/*--------------------------------*- C++ -*----------------------------------*\
| =========                 |                                                 |
| \\      /  F ield         | OpenFOAM: The Open Source CFD Toolbox           |
|  \\    /   O peration     | Version:  v2006                                 |
|   \\  /    A nd           | Website:  www.openfoam.com                      |
|    \\/     M anipulation  |                                                 |
\*---------------------------------------------------------------------------*/
FoamFile
{
    version     2.0;
    format      ascii;
    class       volScalarField;
    location    "1200";
    object      p;
}
// * * * * * * * * * * * * * * * * * * * * * * * * * * * * * * * * * * * * * //

dimensions      [1 -1 -2 0 0 0 0];


internalField   nonuniform List<scalar> 
120
(
2.91893
-1.74121
-6.40176
-11.0627
-15.7241
-20.3859
-25.0481
-29.7107
-34.3738
-39.0373
-43.7013
-48.3657
-53.0305
-57.6959
-62.3617
-67.028
-71.6947
-76.362
-81.0298
-85.6981
-90.3669
-95.0362
-99.706
-104.376
-109.047
-113.719
-118.391
-123.064
-127.737
-132.411
-137.085
-141.76
-146.436
-151.112
-155.789
-160.467
-165.145
-169.824
-174.504
-179.185
-183.866
-188.548
-193.231
-197.915
-202.599
-207.284
-211.97
-216.657
-221.345
-226.034
-230.724
-235.415
-240.107
-244.8
-249.493
-254.189
-258.885
-263.582
-268.281
-272.981
-277.682
-282.385
-287.089
-291.795
-296.502
-301.211
-305.922
-310.635
-315.349
-320.066
-324.785
-329.507
-334.232
-338.961
-343.693
-348.429
-353.171
-357.916
-362.665
-367.415
-372.168
-377.053
-381.97
-386.881
-391.789
-396.695
-401.601
-406.506
-411.412
-416.316
-421.223
-426.143
-430.997
-435.686
-440.347
-445.006
-449.666
-454.326
-458.985
-463.645
-468.305
-472.965
-477.624
-482.284
-486.944
-491.604
-496.263
-500.923
-505.583
-510.243
-514.902
-519.562
-524.222
-528.882
-533.541
-538.201
-542.861
-547.521
-552.18
-556.84
)
;

boundaryField
{
    inlet
    {
        type            cyclic;
    }
    outlet
    {
        type            cyclic;
    }
    top
    {
        type            calculated;
        value           uniform -559.17;
    }
    bottom
    {
        type            calculated;
        value           uniform 5.24881;
    }
    frontAndBackPlanes
    {
        type            empty;
    }
}


// ************************************************************************* //
