/*--------------------------------*- C++ -*----------------------------------*\
| =========                 |                                                 |
| \\      /  F ield         | OpenFOAM: The Open Source CFD Toolbox           |
|  \\    /   O peration     | Version:  v2006                                 |
|   \\  /    A nd           | Website:  www.openfoam.com                      |
|    \\/     M anipulation  |                                                 |
\*---------------------------------------------------------------------------*/
FoamFile
{
    version     2.0;
    format      ascii;
    class       volScalarField;
    location    "1200";
    object      pff;
}
// * * * * * * * * * * * * * * * * * * * * * * * * * * * * * * * * * * * * * //

dimensions      [1 -1 -2 0 0 0 0];


internalField   nonuniform List<scalar> 
120
(
21.2074
20.9137
20.6205
20.3278
20.0354
19.7435
19.4521
19.1611
18.8705
18.5804
18.2908
18.0016
17.713
17.4248
17.1371
16.8499
16.5632
16.2771
15.9914
15.7063
15.4217
15.1377
14.8542
14.5713
14.2889
14.0072
13.726
13.4454
13.1654
12.8861
12.6073
12.3293
12.0518
11.7751
11.499
11.2236
10.9489
10.6749
10.4017
10.1292
9.8575
9.58656
9.3164
9.04705
8.77852
8.51083
8.24399
7.97803
7.71297
7.44883
7.18564
6.92342
6.6622
6.40202
6.14291
5.88489
5.628
5.37227
5.11771
4.86436
4.61222
4.3613
4.11162
3.86318
3.616
3.37011
3.12555
2.88237
2.64064
2.4004
2.16163
1.92413
1.68725
1.44958
1.20976
0.975175
0.756696
0.558879
0.379152
0.186669
0.0273643
0
0
0
0
0
0
0
0
0
0
0
0
0
0
0
0
0
0
0
0
0
0
0
0
0
0
0
0
0
0
0
0
0
0
0
0
0
0
0
)
;

boundaryField
{
    inlet
    {
        type            cyclic;
    }
    outlet
    {
        type            cyclic;
    }
    top
    {
        type            calculated;
        value           uniform 0;
    }
    bottom
    {
        type            calculated;
        value           uniform 21.2074;
    }
    frontAndBackPlanes
    {
        type            empty;
    }
}


// ************************************************************************* //
