/*--------------------------------*- C++ -*----------------------------------*\
| =========                 |                                                 |
| \\      /  F ield         | OpenFOAM: The Open Source CFD Toolbox           |
|  \\    /   O peration     | Version:  v2006                                 |
|   \\  /    A nd           | Website:  www.openfoam.com                      |
|    \\/     M anipulation  |                                                 |
\*---------------------------------------------------------------------------*/
FoamFile
{
    version     2.0;
    format      ascii;
    class       surfaceScalarField;
    location    "1200";
    object      phia;
}
// * * * * * * * * * * * * * * * * * * * * * * * * * * * * * * * * * * * * * //

dimensions      [0 3 -1 0 0 0 0];
oriented        oriented;


internalField   nonuniform List<scalar> 
119
(
-1.00535e-15
-2.02499e-15
-3.05929e-15
-4.10862e-15
-5.17338e-15
-6.25396e-15
-7.3508e-15
-8.46433e-15
-9.59503e-15
-1.07434e-14
-1.19099e-14
-1.3095e-14
-1.42994e-14
-1.55236e-14
-1.67681e-14
-1.80337e-14
-1.93209e-14
-2.06304e-14
-2.19629e-14
-2.33191e-14
-2.46998e-14
-2.61057e-14
-2.75377e-14
-2.89967e-14
-3.04836e-14
-3.19993e-14
-3.35449e-14
-3.51216e-14
-3.67305e-14
-3.83729e-14
-4.00502e-14
-4.17638e-14
-4.35153e-14
-4.53062e-14
-4.71384e-14
-4.90136e-14
-5.09338e-14
-5.2901e-14
-5.49172e-14
-5.69846e-14
-5.91056e-14
-6.12826e-14
-6.35181e-14
-6.58151e-14
-6.81767e-14
-7.06063e-14
-7.31077e-14
-7.56854e-14
-7.83443e-14
-8.10901e-14
-8.3929e-14
-8.68682e-14
-8.99153e-14
-9.30789e-14
-9.6368e-14
-9.97922e-14
-1.03361e-13
-1.07086e-13
-1.10976e-13
-1.15043e-13
-1.19301e-13
-1.23763e-13
-1.28449e-13
-1.33385e-13
-1.38605e-13
-1.4416e-13
-1.50116e-13
-1.56563e-13
-1.6362e-13
-1.71435e-13
-1.80192e-13
-1.90119e-13
-2.01505e-13
-2.1472e-13
-2.30289e-13
-2.47573e-13
-2.64497e-13
-2.77788e-13
-2.87422e-13
-3.14726e-13
-1.02238e-12
-1.71367e-12
-2.03688e-12
-2.18506e-12
-2.25649e-12
-2.29054e-12
-2.30901e-12
-2.3093e-12
-2.33524e-12
-2.32195e-12
-2.10562e-12
-6.68507e-12
-3.8025e-11
-4.94269e-11
-8.28744e-11
-8.22721e-11
-8.22743e-11
-8.2273e-11
-8.22765e-11
-8.22769e-11
-8.22766e-11
-8.22766e-11
-8.22766e-11
-8.22766e-11
-8.22766e-11
-8.22766e-11
-8.22766e-11
-8.22766e-11
-8.22766e-11
-8.22766e-11
-8.22766e-11
-8.22766e-11
-8.22766e-11
-8.22766e-11
-8.22766e-11
-8.22766e-11
-8.22766e-11
-8.22565e-11
-8.21697e-11
)
;

boundaryField
{
    inlet
    {
        type            cyclic;
        value           nonuniform List<scalar> 
120
(
-6.33538e-28
-1.90188e-27
-3.17316e-27
-4.41899e-27
-5.67171e-27
-6.93334e-27
-8.20589e-27
-9.43073e-27
-1.06706e-26
-1.19885e-26
-1.33257e-26
-1.46845e-26
-1.61279e-26
-1.75976e-26
-1.90958e-26
-2.06252e-26
-2.21882e-26
-2.37874e-26
-2.54255e-26
-2.71052e-26
-2.88293e-26
-3.06008e-26
-3.24225e-26
-3.42975e-26
-3.64714e-26
-3.87049e-26
-4.1001e-26
-4.32419e-26
-4.5552e-26
-4.79346e-26
-5.01506e-26
-5.22033e-26
-5.43385e-26
-5.65594e-26
-5.88692e-26
-6.12686e-26
-6.40055e-26
-6.70856e-26
-7.00243e-26
-7.3309e-26
-7.6215e-26
-7.94715e-26
-8.25961e-26
-8.58326e-26
-8.91827e-26
-9.28899e-26
-9.62282e-26
-9.96827e-26
-1.03012e-25
-1.06942e-25
-1.1099e-25
-1.15154e-25
-1.19434e-25
-1.2383e-25
-1.28341e-25
-1.3321e-25
-1.38193e-25
-1.43292e-25
-1.48513e-25
-1.53365e-25
-1.58331e-25
-1.63417e-25
-1.68629e-25
-1.73972e-25
-1.79453e-25
-1.84593e-25
-1.90386e-25
-1.96367e-25
-2.0257e-25
-2.09042e-25
-2.15837e-25
-2.2251e-25
-2.29591e-25
-2.37052e-25
-2.44761e-25
-2.52441e-25
-2.59651e-25
-2.65837e-25
-2.70517e-25
-2.76029e-25
-3.09848e-25
-2.16896e-23
-3.27606e-23
-3.99779e-23
-4.76473e-23
-5.63879e-23
-4.73154e-23
-3.93772e-23
-3.24928e-23
-2.66674e-23
-2.19792e-23
-1.87238e-23
-1.76517e-23
-1.69903e-23
-1.59507e-23
-1.49691e-23
-1.4044e-23
-1.31708e-23
-1.23436e-23
-1.15577e-23
-1.08088e-23
-1.00931e-23
-9.40714e-24
-8.74777e-24
-8.11241e-24
-7.49851e-24
-6.9041e-24
-6.32709e-24
-5.76592e-24
-5.21888e-24
-4.68458e-24
-4.16163e-24
-3.6487e-24
-3.14464e-24
-2.64807e-24
-2.15792e-24
-1.67296e-24
-1.19205e-24
-7.14025e-25
-2.37752e-25
)
;
    }
    outlet
    {
        type            cyclic;
        value           nonuniform List<scalar> 
120
(
6.33538e-28
1.90188e-27
3.17316e-27
4.41899e-27
5.67171e-27
6.93334e-27
8.20589e-27
9.43073e-27
1.06706e-26
1.19885e-26
1.33257e-26
1.46845e-26
1.61279e-26
1.75976e-26
1.90958e-26
2.06252e-26
2.21882e-26
2.37874e-26
2.54255e-26
2.71052e-26
2.88293e-26
3.06008e-26
3.24225e-26
3.42975e-26
3.64714e-26
3.87049e-26
4.1001e-26
4.32419e-26
4.5552e-26
4.79346e-26
5.01506e-26
5.22033e-26
5.43385e-26
5.65594e-26
5.88692e-26
6.12686e-26
6.40055e-26
6.70856e-26
7.00243e-26
7.3309e-26
7.6215e-26
7.94715e-26
8.25961e-26
8.58326e-26
8.91827e-26
9.28899e-26
9.62282e-26
9.96827e-26
1.03012e-25
1.06942e-25
1.1099e-25
1.15154e-25
1.19434e-25
1.2383e-25
1.28341e-25
1.3321e-25
1.38193e-25
1.43292e-25
1.48513e-25
1.53365e-25
1.58331e-25
1.63417e-25
1.68629e-25
1.73972e-25
1.79453e-25
1.84593e-25
1.90386e-25
1.96367e-25
2.0257e-25
2.09042e-25
2.15837e-25
2.2251e-25
2.29591e-25
2.37052e-25
2.44761e-25
2.52441e-25
2.59651e-25
2.65837e-25
2.70517e-25
2.76029e-25
3.09848e-25
2.16896e-23
3.27606e-23
3.99779e-23
4.76473e-23
5.63879e-23
4.73154e-23
3.93772e-23
3.24928e-23
2.66674e-23
2.19792e-23
1.87238e-23
1.76517e-23
1.69903e-23
1.59507e-23
1.49691e-23
1.4044e-23
1.31708e-23
1.23436e-23
1.15577e-23
1.08088e-23
1.00931e-23
9.40714e-24
8.74777e-24
8.11241e-24
7.49851e-24
6.9041e-24
6.32709e-24
5.76592e-24
5.21888e-24
4.68458e-24
4.16163e-24
3.6487e-24
3.14464e-24
2.64807e-24
2.15792e-24
1.67296e-24
1.19205e-24
7.14025e-25
2.37752e-25
)
;
    }
    top
    {
        type            fixedValue;
        value           uniform 0;
    }
    bottom
    {
        type            fixedValue;
        value           uniform 0;
    }
    frontAndBackPlanes
    {
        type            empty;
        value           nonuniform List<scalar> 0();
    }
}


// ************************************************************************* //
