/*--------------------------------*- C++ -*----------------------------------*\
| =========                 |                                                 |
| \\      /  F ield         | OpenFOAM: The Open Source CFD Toolbox           |
|  \\    /   O peration     | Version:  v2006                                 |
|   \\  /    A nd           | Website:  www.openfoam.com                      |
|    \\/     M anipulation  |                                                 |
\*---------------------------------------------------------------------------*/
FoamFile
{
    version     2.0;
    format      ascii;
    class       surfaceScalarField;
    location    "1200";
    object      phib;
}
// * * * * * * * * * * * * * * * * * * * * * * * * * * * * * * * * * * * * * //

dimensions      [0 3 -1 0 0 0 0];
oriented        oriented;


internalField   nonuniform List<scalar> 
119
(
1.50287e-15
3.02639e-15
4.57106e-15
6.1374e-15
7.72598e-15
9.33736e-15
1.09722e-14
1.2631e-14
1.43145e-14
1.60234e-14
1.77583e-14
1.95201e-14
2.13094e-14
2.31272e-14
2.49741e-14
2.68512e-14
2.87592e-14
3.06991e-14
3.26719e-14
3.46786e-14
3.67202e-14
3.87979e-14
4.09128e-14
4.3066e-14
4.5259e-14
4.74931e-14
4.97696e-14
5.20903e-14
5.44567e-14
5.68706e-14
5.9334e-14
6.18488e-14
6.44172e-14
6.70415e-14
6.9724e-14
7.24674e-14
7.52742e-14
7.81472e-14
8.10893e-14
8.41035e-14
8.71929e-14
9.03609e-14
9.36111e-14
9.69473e-14
1.00374e-13
1.03895e-13
1.07517e-13
1.11245e-13
1.15087e-13
1.19049e-13
1.23141e-13
1.27372e-13
1.31753e-13
1.36295e-13
1.41012e-13
1.45915e-13
1.51019e-13
1.56336e-13
1.61881e-13
1.6767e-13
1.73717e-13
1.80043e-13
1.86673e-13
1.93642e-13
2.00996e-13
2.08803e-13
2.17154e-13
2.26172e-13
2.36019e-13
2.46898e-13
2.59057e-13
2.72798e-13
2.88501e-13
3.0664e-13
3.27897e-13
3.51295e-13
3.73821e-13
3.9075e-13
4.01477e-13
4.33555e-13
1.29053e-12
1.9178e-12
2.1433e-12
2.23805e-12
2.28264e-12
2.30338e-12
2.3147e-12
2.31497e-12
2.33023e-12
2.31481e-12
2.14482e-12
4.45116e-12
6.47085e-12
5.77171e-15
2.68112e-16
6.28445e-18
6.72429e-18
7.49506e-18
7.74975e-18
8.17905e-18
8.07722e-18
8.18331e-18
7.79293e-18
7.79864e-18
7.57691e-18
7.7639e-18
7.54459e-18
7.54491e-18
7.14616e-18
6.94127e-18
6.38736e-18
6.13942e-18
5.76772e-18
5.71003e-18
5.43099e-18
5.32649e-18
5.00843e-18
4.85031e-18
4.48903e-18
)
;

boundaryField
{
    inlet
    {
        type            cyclic;
        value           nonuniform List<scalar> 
120
(
-6.33537e-28
-1.90189e-27
-3.17681e-27
-4.419e-27
-5.67171e-27
-6.93342e-27
-8.22588e-27
-9.4307e-27
-1.0644e-26
-1.19883e-26
-1.33255e-26
-1.46476e-26
-1.61278e-26
-1.75976e-26
-1.90958e-26
-2.06252e-26
-2.21882e-26
-2.37874e-26
-2.54255e-26
-2.71052e-26
-2.88293e-26
-3.06007e-26
-3.2421e-26
-3.39629e-26
-3.647e-26
-3.87057e-26
-4.11949e-26
-4.32428e-26
-4.5554e-26
-4.83809e-26
-5.06164e-26
-5.22054e-26
-5.43385e-26
-5.65594e-26
-5.88667e-26
-6.06977e-26
-6.34152e-26
-6.76935e-26
-6.93961e-26
-7.46246e-26
-7.55387e-26
-8.0179e-26
-8.25992e-26
-8.58291e-26
-8.83998e-26
-9.45229e-26
-9.62394e-26
-1.00551e-25
-1.01201e-25
-1.06934e-25
-1.1099e-25
-1.15154e-25
-1.19434e-25
-1.23825e-25
-1.27228e-25
-1.33205e-25
-1.38193e-25
-1.43304e-25
-1.51072e-25
-1.53377e-25
-1.58331e-25
-1.63417e-25
-1.68629e-25
-1.73987e-25
-1.82619e-25
-1.81302e-25
-1.90371e-25
-1.96367e-25
-2.0257e-25
-2.09061e-25
-2.19929e-25
-2.2253e-25
-2.29591e-25
-2.37052e-25
-2.44761e-25
-2.52441e-25
-2.59651e-25
-2.65837e-25
-2.70531e-25
-2.76706e-25
-4.21642e-25
-2.19277e-23
-3.27605e-23
-3.99779e-23
-4.76473e-23
-5.63012e-23
-4.73155e-23
-3.93772e-23
-3.24928e-23
-2.66674e-23
-2.19792e-23
-1.87239e-23
-1.76519e-23
-1.69896e-23
-1.59485e-23
-1.49683e-23
-1.40441e-23
-1.31709e-23
-1.23437e-23
-1.15578e-23
-1.08089e-23
-1.00932e-23
-9.40721e-24
-8.74787e-24
-8.11247e-24
-7.4986e-24
-6.90414e-24
-6.32717e-24
-5.76596e-24
-5.21894e-24
-4.68464e-24
-4.16169e-24
-3.64878e-24
-3.14467e-24
-2.64813e-24
-2.15797e-24
-1.67302e-24
-1.19211e-24
-7.14079e-25
-2.37779e-25
)
;
    }
    outlet
    {
        type            cyclic;
        value           nonuniform List<scalar> 
120
(
6.33537e-28
1.90189e-27
3.17681e-27
4.419e-27
5.67171e-27
6.93342e-27
8.22588e-27
9.4307e-27
1.0644e-26
1.19883e-26
1.33255e-26
1.46476e-26
1.61278e-26
1.75976e-26
1.90958e-26
2.06252e-26
2.21882e-26
2.37874e-26
2.54255e-26
2.71052e-26
2.88293e-26
3.06007e-26
3.2421e-26
3.39629e-26
3.647e-26
3.87057e-26
4.11949e-26
4.32428e-26
4.5554e-26
4.83809e-26
5.06164e-26
5.22054e-26
5.43385e-26
5.65594e-26
5.88667e-26
6.06977e-26
6.34152e-26
6.76935e-26
6.93961e-26
7.46246e-26
7.55387e-26
8.0179e-26
8.25992e-26
8.58291e-26
8.83998e-26
9.45229e-26
9.62394e-26
1.00551e-25
1.01201e-25
1.06934e-25
1.1099e-25
1.15154e-25
1.19434e-25
1.23825e-25
1.27228e-25
1.33205e-25
1.38193e-25
1.43304e-25
1.51072e-25
1.53377e-25
1.58331e-25
1.63417e-25
1.68629e-25
1.73987e-25
1.82619e-25
1.81302e-25
1.90371e-25
1.96367e-25
2.0257e-25
2.09061e-25
2.19929e-25
2.2253e-25
2.29591e-25
2.37052e-25
2.44761e-25
2.52441e-25
2.59651e-25
2.65837e-25
2.70531e-25
2.76706e-25
4.21642e-25
2.19277e-23
3.27605e-23
3.99779e-23
4.76473e-23
5.63012e-23
4.73155e-23
3.93772e-23
3.24928e-23
2.66674e-23
2.19792e-23
1.87239e-23
1.76519e-23
1.69896e-23
1.59485e-23
1.49683e-23
1.40441e-23
1.31709e-23
1.23437e-23
1.15578e-23
1.08089e-23
1.00932e-23
9.40721e-24
8.74787e-24
8.11247e-24
7.4986e-24
6.90414e-24
6.32717e-24
5.76596e-24
5.21894e-24
4.68464e-24
4.16169e-24
3.64878e-24
3.14467e-24
2.64813e-24
2.15797e-24
1.67302e-24
1.19211e-24
7.14079e-25
2.37779e-25
)
;
    }
    top
    {
        type            fixedValue;
        value           uniform 0;
    }
    bottom
    {
        type            fixedValue;
        value           uniform 0;
    }
    frontAndBackPlanes
    {
        type            empty;
        value           nonuniform List<scalar> 0();
    }
}


// ************************************************************************* //
