/*--------------------------------*- C++ -*----------------------------------*\
| =========                 |                                                 |
| \\      /  F ield         | OpenFOAM: The Open Source CFD Toolbox           |
|  \\    /   O peration     | Version:  v2006                                 |
|   \\  /    A nd           | Website:  www.openfoam.com                      |
|    \\/     M anipulation  |                                                 |
\*---------------------------------------------------------------------------*/
FoamFile
{
    version     2.0;
    format      ascii;
    class       volTensorField;
    location    "1200";
    object      Taua;
}
// * * * * * * * * * * * * * * * * * * * * * * * * * * * * * * * * * * * * * //

dimensions      [1 -1 -2 0 0 0 0];


internalField   nonuniform List<tensor> 
120
(
(0.00195706 0 0 8.87395e-15 -0.00391412 0 0 0 0.00195706)
(0.00198045 0 0 8.88867e-15 -0.0039609 0 0 0 0.00198045)
(0.00201094 0 0 8.80989e-15 -0.00402188 0 0 0 0.00201094)
(0.00204053 0 0 8.74495e-15 -0.00408106 0 0 0 0.00204053)
(0.00207038 0 0 8.80024e-15 -0.00414076 0 0 0 0.00207038)
(0.00210112 0 0 8.86963e-15 -0.00420225 0 0 0 0.00210112)
(0.00213274 0 0 8.74086e-15 -0.00426548 0 0 0 0.00213274)
(0.00216521 0 0 8.62663e-15 -0.00433042 0 0 0 0.00216521)
(0.00219858 0 0 8.95208e-15 -0.00439715 0 0 0 0.00219858)
(0.00223288 0 0 9.29263e-15 -0.00446577 0 0 0 0.00223288)
(0.00226817 0 0 9.43615e-15 -0.00453634 0 0 0 0.00226817)
(0.00230448 0 0 9.80784e-15 -0.00460896 0 0 0 0.00230448)
(0.00234186 0 0 1.01957e-14 -0.00468371 0 0 0 0.00234186)
(0.00238034 0 0 1.03877e-14 -0.00476068 0 0 0 0.00238034)
(0.00241997 0 0 1.05967e-14 -0.00483995 0 0 0 0.00241997)
(0.0024608 0 0 1.08232e-14 -0.00492161 0 0 0 0.0024608)
(0.00250288 0 0 1.10676e-14 -0.00500576 0 0 0 0.00250288)
(0.00254625 0 0 1.13305e-14 -0.00509249 0 0 0 0.00254625)
(0.00259096 0 0 1.16123e-14 -0.00518192 0 0 0 0.00259096)
(0.00263707 0 0 1.19135e-14 -0.00527415 0 0 0 0.00263707)
(0.00268465 0 0 1.22346e-14 -0.0053693 0 0 0 0.00268465)
(0.00273376 0 0 1.25761e-14 -0.00546753 0 0 0 0.00273376)
(0.00278449 0 0 1.29386e-14 -0.00556897 0 0 0 0.00278449)
(0.00283691 0 0 1.41713e-14 -0.00567382 0 0 0 0.00283691)
(0.00289113 0 0 1.54259e-14 -0.00578226 0 0 0 0.00289113)
(0.00294726 0 0 1.58537e-14 -0.00589453 0 0 0 0.00294726)
(0.00300543 0 0 1.58796e-14 -0.00601086 0 0 0 0.00300543)
(0.00306577 0 0 1.59284e-14 -0.00613154 0 0 0 0.00306577)
(0.00312843 0 0 1.64245e-14 -0.00625686 0 0 0 0.00312843)
(0.00319357 0 0 1.60952e-14 -0.00638715 0 0 0 0.00319357)
(0.00326137 0 0 1.49405e-14 -0.00652273 0 0 0 0.00326137)
(0.00333198 0 0 1.46576e-14 -0.00666397 0 0 0 0.00333198)
(0.00340561 0 0 1.52463e-14 -0.00681122 0 0 0 0.00340561)
(0.00348241 0 0 1.58576e-14 -0.00696483 0 0 0 0.00348241)
(0.00356258 0 0 1.6482e-14 -0.00712517 0 0 0 0.00356258)
(0.00364629 3.68135e-17 0 1.79768e-14 -0.00729258 0 0 0 0.00364629)
(0.0037337 0 0 2.03595e-14 -0.00746741 0 0 0 0.0037337)
(0.00382501 0 0 2.1066e-14 -0.00765001 0 0 0 0.00382501)
(0.00392037 0 0 2.17819e-14 -0.00784074 0 0 0 0.00392037)
(0.00402 0 0 2.16673e-14 -0.00804 0 0 0 0.00402)
(0.00412411 0 0 2.1569e-14 -0.00824822 0 0 0 0.00412411)
(0.00423298 0 0 2.23337e-14 -0.00846596 0 0 0 0.00423298)
(0.00434694 0 0 2.22637e-14 -0.00869388 0 0 0 0.00434694)
(0.00446641 0 0 2.30534e-14 -0.00893283 0 0 0 0.00446641)
(0.00459193 0 0 2.47006e-14 -0.00918387 0 0 0 0.00459193)
(0.00472417 0 0 2.4659e-14 -0.00944834 0 0 0 0.00472417)
(0.00486394 0 0 2.37746e-14 -0.00972789 0 0 0 0.00486394)
(0.00501222 0 0 2.37423e-14 -0.0100244 0 0 0 0.00501222)
(0.00517015 0 0 2.54089e-14 -0.0103403 0 0 0 0.00517015)
(0.00533899 0 0 2.79241e-14 -0.010678 0 0 0 0.00533899)
(0.00552012 0 0 2.87411e-14 -0.0110402 0 0 0 0.00552012)
(0.00571497 0 0 2.95554e-14 -0.0114299 0 0 0 0.00571497)
(0.00592494 0 0 3.03665e-14 -0.0118499 0 0 0 0.00592494)
(0.00615136 0 0 3.11744e-14 -0.0123027 0 0 0 0.00615136)
(0.00639538 0 0 3.28286e-14 -0.0127908 0 0 0 0.00639538)
(0.00665795 0 0 3.44817e-14 -0.0133159 0 0 0 0.00665795)
(0.00693981 0 0 3.52884e-14 -0.0138796 0 0 0 0.00693981)
(0.00724161 0 0 3.612e-14 -0.0144832 0 0 0 0.00724161)
(0.00756415 -7.36271e-17 0 3.52564e-14 -0.0151283 0 0 0 0.00756415)
(0.00790877 0 0 3.43607e-14 -0.0158175 0 0 0 0.00790877)
(0.008278 0 0 3.51806e-14 -0.016556 0 0 0 0.008278)
(0.00867649 0 0 3.60457e-14 -0.017353 0 0 0 0.00867649)
(0.00911215 0 0 3.69435e-14 -0.0182243 0 0 0 0.00911215)
(0.00959761 0 0 3.7883e-14 -0.0191952 0 0 0 0.00959761)
(0.0101517 0 0 3.71716e-14 -0.0203033 0 0 0 0.0101517)
(0.0108008 0 0 3.82659e-14 -0.0216017 0 0 0 0.0108008)
(0.0115805 0 0 4.12097e-14 -0.023161 0 0 0 0.0115805)
(0.0125354 0 0 4.26436e-14 -0.0250708 0 0 0 0.0125354)
(0.013719 0 0 4.43614e-14 -0.0274381 0 0 0 0.013719)
(0.015192 0 0 4.64357e-14 -0.0303841 0 0 0 0.015192)
(0.0170178 0 0 4.71405e-14 -0.0340356 0 0 0 0.0170178)
(0.0192701 0 0 4.81391e-14 -0.0385401 0 0 0 0.0192701)
(0.0221155 0 0 5.08961e-14 -0.0442309 0 0 0 0.0221155)
(0.0259011 0 0 5.30945e-14 -0.0518022 0 0 0 0.0259011)
(0.0303796 0 0 5.38612e-14 -0.0607593 0 0 0 0.0303796)
(0.0335866 0 0 5.21144e-14 -0.0671731 0 0 0 0.0335866)
(0.0324127 0 0 4.68859e-14 -0.0648254 0 0 0 0.0324127)
(0.0257114 0 0 3.80307e-14 -0.0514228 0 0 0 0.0257114)
(0.0214925 0 0 3.56732e-14 -0.042985 0 0 0 0.0214925)
(0.0117082 0 0 3.40446e-14 -0.0234165 0 0 0 0.0117082)
(0.00153924 0 0 2.67654e-14 -0.00307848 0 0 0 0.00153924)
(3.5645e-07 0 0 6.12011e-17 -7.129e-07 0 0 0 3.5645e-07)
(-1.55497e-06 0 0 3.3116e-17 3.10993e-06 0 0 0 -1.55497e-06)
(5.22281e-07 0 0 2.64733e-17 -1.04456e-06 0 0 0 5.22281e-07)
(2.74921e-07 0 0 2.89407e-17 -5.49842e-07 0 0 0 2.74921e-07)
(7.08455e-08 0 0 -5.82965e-19 -1.41691e-07 0 0 0 7.08455e-08)
(5.45773e-08 0 0 -2.98236e-17 -1.09155e-07 0 0 0 5.45773e-08)
(4.22393e-07 0 0 -2.59558e-17 -8.44787e-07 0 0 0 4.22393e-07)
(-9.27097e-07 0 0 -2.22827e-17 1.85419e-06 0 0 0 -9.27097e-07)
(-2.92686e-06 0 0 -1.83257e-17 5.85372e-06 0 0 0 -2.92686e-06)
(1.45946e-05 0 0 -1.39136e-17 -2.91891e-05 0 0 0 1.45946e-05)
(4.59044e-05 0 0 -7.70592e-18 -9.18088e-05 0 0 0 4.59044e-05)
(3.42008e-06 0 0 -1.7633e-18 -6.84015e-06 0 0 0 3.42008e-06)
(-7.26378e-09 0 0 -1.35117e-21 1.45276e-08 0 0 0 -7.26378e-09)
(2.51862e-10 0 0 -4.48053e-23 -5.03724e-10 0 0 0 2.51862e-10)
(2.05534e-17 0 0 -5.39998e-30 -4.11068e-17 0 0 0 2.05534e-17)
(-1.0158e-25 0 0 -5.62547e-37 2.0316e-25 0 0 0 -1.0158e-25)
(-1.01512e-32 0 0 -7.43935e-44 2.03024e-32 0 0 0 -1.01512e-32)
(1.55254e-40 0 0 -2.45773e-50 -3.10507e-40 0 0 0 1.55254e-40)
(1.59202e-46 0 0 -1.27916e-56 -3.18404e-46 0 0 0 1.59202e-46)
(8.98249e-56 0 0 -6.42055e-63 -1.7965e-55 0 0 0 8.98249e-56)
(-2.88335e-60 0 0 -2.67805e-69 5.7667e-60 0 0 0 -2.88335e-60)
(-4.69818e-68 0 0 -9.67884e-76 9.39636e-68 0 0 0 -4.69818e-68)
(2.63407e-74 0 0 -2.90819e-82 -5.26814e-74 0 0 0 2.63407e-74)
(6.59541e-82 0 0 -7.7664e-89 -1.31908e-81 0 0 0 6.59541e-82)
(-1.32907e-88 0 0 -1.8133e-95 2.65814e-88 0 0 0 -1.32907e-88)
(-4.14692e-96 0 0 -3.94818e-102 8.29383e-96 0 0 0 -4.14692e-96)
(4.9446e-103 0 0 -7.69064e-109 -9.8892e-103 0 0 0 4.9446e-103)
(3.43788e-110 0 0 -1.39858e-115 -6.87576e-110 0 0 0 3.43788e-110)
(3.22417e-117 0 0 -2.29974e-122 -6.44833e-117 0 0 0 3.22417e-117)
(7.41907e-124 0 0 -3.62611e-129 -1.48381e-123 0 0 0 7.41907e-124)
(1.09562e-130 0 0 -5.43484e-136 -2.19125e-130 0 0 0 1.09562e-130)
(1.19057e-137 0 0 -8.37876e-143 -2.38114e-137 0 0 0 1.19057e-137)
(-9.51601e-145 0 0 -1.30296e-149 1.9032e-144 0 0 0 -9.51601e-145)
(-4.13034e-151 0 0 -2.08562e-156 8.26069e-151 0 0 0 -4.13034e-151)
(-1.69048e-156 0 0 -3.18025e-163 3.38095e-156 0 0 0 -1.69048e-156)
(-1.33514e-160 0 0 -4.62958e-170 2.67028e-160 0 0 0 -1.33514e-160)
(-4.1449e-167 0 0 -6.08944e-177 8.28981e-167 0 0 0 -4.1449e-167)
(-3.66804e-173 0 0 -7.40317e-184 7.33609e-173 0 0 0 -3.66804e-173)
(-3.82048e-177 0 0 -7.96503e-191 7.64095e-177 0 0 0 -3.82048e-177)
)
;

boundaryField
{
    inlet
    {
        type            cyclic;
    }
    outlet
    {
        type            cyclic;
    }
    top
    {
        type            extrapolatedCalculated;
        value           uniform (-7.63367e-177 0 0 -7.95859e-191 1.52673e-176 0 0 0 -7.63367e-177);
    }
    bottom
    {
        type            extrapolatedCalculated;
        value           uniform (0.00194926 0 0 8.86953e-15 -0.00389852 0 0 0 0.00194926);
    }
    frontAndBackPlanes
    {
        type            empty;
    }
}


// ************************************************************************* //
