/*--------------------------------*- C++ -*----------------------------------*\
| =========                 |                                                 |
| \\      /  F ield         | OpenFOAM: The Open Source CFD Toolbox           |
|  \\    /   O peration     | Version:  v2006                                 |
|   \\  /    A nd           | Website:  www.openfoam.com                      |
|    \\/     M anipulation  |                                                 |
\*---------------------------------------------------------------------------*/
FoamFile
{
    version     2.0;
    format      ascii;
    class       volTensorField;
    location    "1200";
    object      Taub;
}
// * * * * * * * * * * * * * * * * * * * * * * * * * * * * * * * * * * * * * //

dimensions      [1 -1 -2 0 0 0 0];


internalField   nonuniform List<tensor> 
120
(
(-1.39756e-07 0 0 4.22184e-19 2.79511e-07 0 0 0 -1.39756e-07)
(-1.41011e-07 0 0 4.23466e-19 2.82021e-07 0 0 0 -1.41011e-07)
(-1.42868e-07 0 0 4.19085e-19 2.85736e-07 0 0 0 -1.42868e-07)
(-1.44886e-07 0 0 4.15363e-19 2.89771e-07 0 0 0 -1.44886e-07)
(-1.46941e-07 0 0 4.18588e-19 2.93881e-07 0 0 0 -1.46941e-07)
(-1.49043e-07 0 0 4.25178e-19 2.98087e-07 0 0 0 -1.49043e-07)
(-1.51199e-07 0 0 4.15682e-19 3.02398e-07 0 0 0 -1.51199e-07)
(-1.53413e-07 0 0 4.02486e-19 3.06826e-07 0 0 0 -1.53413e-07)
(-1.55687e-07 0 0 4.25678e-19 3.11373e-07 0 0 0 -1.55687e-07)
(-1.58023e-07 0 0 4.4626e-19 3.16046e-07 0 0 0 -1.58023e-07)
(-1.60424e-07 0 0 4.42528e-19 3.20849e-07 0 0 0 -1.60424e-07)
(-1.62894e-07 0 0 4.66295e-19 3.25788e-07 0 0 0 -1.62894e-07)
(-1.65434e-07 0 0 4.90847e-19 3.30868e-07 0 0 0 -1.65434e-07)
(-1.68048e-07 0 0 4.93824e-19 3.36096e-07 0 0 0 -1.68048e-07)
(-1.70738e-07 0 0 5.03699e-19 3.41476e-07 0 0 0 -1.70738e-07)
(-1.73507e-07 0 0 5.14429e-19 3.47015e-07 0 0 0 -1.73507e-07)
(-1.76359e-07 0 0 5.26009e-19 3.52718e-07 0 0 0 -1.76359e-07)
(-1.79297e-07 0 0 5.38463e-19 3.58593e-07 0 0 0 -1.79297e-07)
(-1.82323e-07 0 0 5.51813e-19 3.64645e-07 0 0 0 -1.82323e-07)
(-1.85441e-07 0 0 5.66084e-19 3.70883e-07 0 0 0 -1.85441e-07)
(-1.88657e-07 0 0 5.81297e-19 3.77313e-07 0 0 0 -1.88657e-07)
(-1.91973e-07 0 0 5.97235e-19 3.83946e-07 0 0 0 -1.91973e-07)
(-1.95396e-07 0 0 5.59025e-19 3.90791e-07 0 0 0 -1.95396e-07)
(-1.98931e-07 0 0 6.73161e-19 3.97861e-07 0 0 0 -1.98931e-07)
(-2.02584e-07 0 0 7.88455e-19 4.05168e-07 0 0 0 -2.02584e-07)
(-2.06363e-07 0 0 7.85429e-19 4.12726e-07 0 0 0 -2.06363e-07)
(-2.10276e-07 0 0 7.54123e-19 4.20553e-07 0 0 0 -2.10276e-07)
(-2.14333e-07 0 0 7.24471e-19 4.28665e-07 0 0 0 -2.14333e-07)
(-2.18542e-07 0 0 8.53885e-19 4.37083e-07 0 0 0 -2.18542e-07)
(-2.22914e-07 0 0 8.41228e-19 4.45828e-07 0 0 0 -2.22914e-07)
(-2.27461e-07 0 0 6.35462e-19 4.54922e-07 0 0 0 -2.27461e-07)
(-2.32193e-07 0 0 6.18396e-19 4.64387e-07 0 0 0 -2.32193e-07)
(-2.37123e-07 0 0 7.23311e-19 4.74246e-07 0 0 0 -2.37123e-07)
(-2.42261e-07 0 0 7.52171e-19 4.84523e-07 0 0 0 -2.42261e-07)
(-2.47619e-07 0 0 6.8735e-19 4.95239e-07 0 0 0 -2.47619e-07)
(-2.53208e-07 -3.49363e-21 0 7.55396e-19 5.06416e-07 0 0 0 -2.53208e-07)
(-2.59039e-07 0 0 1.16171e-18 5.18077e-07 0 0 0 -2.59039e-07)
(-2.65122e-07 0 0 9.93092e-19 5.30244e-07 0 0 0 -2.65122e-07)
(-2.71469e-07 0 0 1.15073e-18 5.42938e-07 0 0 0 -2.71469e-07)
(-2.78093e-07 0 0 1.0197e-18 5.56186e-07 0 0 0 -2.78093e-07)
(-2.85007e-07 0 0 9.21966e-19 5.70014e-07 0 0 0 -2.85007e-07)
(-2.92229e-07 0 0 1.17182e-18 5.84458e-07 0 0 0 -2.92229e-07)
(-2.9978e-07 0 0 9.37623e-19 5.9956e-07 0 0 0 -2.9978e-07)
(-3.07688e-07 0 0 9.6249e-19 6.15375e-07 0 0 0 -3.07688e-07)
(-3.15988e-07 0 0 1.44237e-18 6.31975e-07 0 0 0 -3.15988e-07)
(-3.24724e-07 0 0 1.30048e-18 6.49447e-07 0 0 0 -3.24724e-07)
(-3.3395e-07 0 0 9.99905e-19 6.679e-07 0 0 0 -3.3395e-07)
(-3.43731e-07 0 0 8.22836e-19 6.87461e-07 0 0 0 -3.43731e-07)
(-3.54139e-07 0 0 1.05841e-18 7.08277e-07 0 0 0 -3.54139e-07)
(-3.65256e-07 0 0 1.62298e-18 7.30512e-07 0 0 0 -3.65256e-07)
(-3.77169e-07 0 0 1.36262e-18 7.54339e-07 0 0 0 -3.77169e-07)
(-3.8997e-07 0 0 1.39963e-18 7.79941e-07 0 0 0 -3.8997e-07)
(-4.03746e-07 0 0 1.43698e-18 8.07492e-07 0 0 0 -4.03746e-07)
(-4.18577e-07 0 0 1.29132e-18 8.37153e-07 0 0 0 -4.18577e-07)
(-4.3453e-07 0 0 1.55388e-18 8.6906e-07 0 0 0 -4.3453e-07)
(-4.5166e-07 0 0 1.81629e-18 9.0332e-07 0 0 0 -4.5166e-07)
(-4.70004e-07 0 0 1.67249e-18 9.40008e-07 0 0 0 -4.70004e-07)
(-4.89595e-07 0 0 2.13246e-18 9.7919e-07 0 0 0 -4.89595e-07)
(-5.10477e-07 0 0 1.66753e-18 1.02095e-06 0 0 0 -5.10477e-07)
(-5.3274e-07 0 0 1.20131e-18 1.06548e-06 0 0 0 -5.3274e-07)
(-5.56557e-07 0 0 1.66135e-18 1.11311e-06 0 0 0 -5.56557e-07)
(-5.82249e-07 0 0 1.70379e-18 1.1645e-06 0 0 0 -5.82249e-07)
(-6.1036e-07 0 0 1.74822e-18 1.22072e-06 0 0 0 -6.1036e-07)
(-6.41752e-07 0 0 2.31333e-18 1.2835e-06 0 0 0 -6.41752e-07)
(-6.77691e-07 0 0 1.20929e-18 1.35538e-06 0 0 0 -6.77691e-07)
(-7.19936e-07 0 0 1.28105e-18 1.43987e-06 0 0 0 -7.19936e-07)
(-7.70801e-07 0 0 2.48895e-18 1.5416e-06 0 0 0 -7.70801e-07)
(-8.33161e-07 0 0 2.01486e-18 1.66632e-06 0 0 0 -8.33161e-07)
(-9.10367e-07 0 0 2.09583e-18 1.82073e-06 0 0 0 -9.10367e-07)
(-1.00616e-06 0 0 2.86492e-18 2.01233e-06 0 0 0 -1.00616e-06)
(-1.12499e-06 0 0 2.22206e-18 2.24998e-06 0 0 0 -1.12499e-06)
(-1.27258e-06 0 0 1.59345e-18 2.54517e-06 0 0 0 -1.27258e-06)
(-1.45352e-06 0 0 2.39361e-18 2.90705e-06 0 0 0 -1.45352e-06)
(-1.6728e-06 0 0 2.49886e-18 3.3456e-06 0 0 0 -1.6728e-06)
(-1.89872e-06 0 0 2.53326e-18 3.79745e-06 0 0 0 -1.89872e-06)
(-2.01975e-06 0 0 2.44917e-18 4.03949e-06 0 0 0 -2.01975e-06)
(-1.88699e-06 0 0 2.20147e-18 3.77397e-06 0 0 0 -1.88699e-06)
(-1.43906e-06 0 0 1.78605e-18 2.87811e-06 0 0 0 -1.43906e-06)
(-1.85806e-06 0 0 1.78194e-18 3.71612e-06 0 0 0 -1.85806e-06)
(-2.57189e-05 0 0 2.47215e-17 5.14378e-05 0 0 0 -2.57189e-05)
(9.35375e-05 0 0 3.5254e-15 -0.000187075 0 0 0 9.35375e-05)
(-8.73798e-05 0 0 5.05958e-15 0.00017476 0 0 0 -8.73798e-05)
(-0.000184524 0 0 2.75941e-15 0.000369048 0 0 0 -0.000184524)
(2.28136e-05 0 0 2.25282e-15 -4.56272e-05 0 0 0 2.28136e-05)
(1.34739e-05 0 0 2.45875e-15 -2.69479e-05 0 0 0 1.34739e-05)
(1.26613e-06 0 0 -4.98777e-17 -2.53227e-06 0 0 0 1.26613e-06)
(2.22208e-06 0 0 -2.54087e-15 -4.44417e-06 0 0 0 2.22208e-06)
(3.58699e-05 0 0 -2.22389e-15 -7.17397e-05 0 0 0 3.58699e-05)
(-8.18067e-05 0 0 -1.90816e-15 0.000163613 0 0 0 -8.18067e-05)
(-0.000245582 0 0 -1.57336e-15 0.000491164 0 0 0 -0.000245582)
(0.00124972 0 0 -1.19197e-15 -0.00249945 0 0 0 0.00124972)
(0.00326507 0 0 -6.55351e-16 -0.00653013 0 0 0 0.00326507)
(-0.00131696 0 0 -1.99603e-16 0.00263392 0 0 0 -0.00131696)
(-0.0014712 0 0 -1.1361e-16 0.00294239 0 0 0 -0.0014712)
(0.000302387 0 0 -1.34738e-16 -0.000604774 0 0 0 0.000302387)
(0.000185235 0 0 -1.26939e-16 -0.000370469 0 0 0 0.000185235)
(-1.60529e-05 0 0 -1.19807e-16 3.21057e-05 0 0 0 -1.60529e-05)
(-1.53143e-05 0 0 -1.13347e-16 3.06286e-05 0 0 0 -1.53143e-05)
(6.22588e-07 0 0 -1.0753e-16 -1.24518e-06 0 0 0 6.22588e-07)
(1.23637e-06 0 0 -1.02307e-16 -2.47273e-06 0 0 0 1.23637e-06)
(2.83917e-09 0 0 -9.76276e-17 -5.67834e-09 0 0 0 2.83917e-09)
(-9.7593e-08 0 0 -9.34355e-17 1.95186e-07 0 0 0 -9.7593e-08)
(-4.34424e-09 0 0 -8.96779e-17 8.68848e-09 0 0 0 -4.34424e-09)
(7.57865e-09 0 0 -8.63054e-17 -1.51573e-08 0 0 0 7.57865e-09)
(6.96071e-10 0 0 -8.32739e-17 -1.39214e-09 0 0 0 6.96071e-10)
(-5.71468e-10 0 0 -8.05449e-17 1.14294e-09 0 0 0 -5.71468e-10)
(-8.02656e-11 0 0 -7.80856e-17 1.60531e-10 0 0 0 -8.02656e-11)
(4.7311e-11 0 0 -7.5869e-17 -9.46221e-11 0 0 0 4.7311e-11)
(1.79061e-11 0 0 -7.38727e-17 -3.58121e-11 0 0 0 1.79061e-11)
(1.01413e-11 0 0 -7.20792e-17 -2.02826e-11 0 0 0 1.01413e-11)
(1.43426e-11 0 0 -7.04747e-17 -2.86853e-11 0 0 0 1.43426e-11)
(1.3834e-11 0 0 -6.90485e-17 -2.76681e-11 0 0 0 1.3834e-11)
(9.64333e-12 0 0 -6.77928e-17 -1.92867e-11 0 0 0 9.64333e-12)
(6.46076e-12 0 0 -6.67019e-17 -1.29215e-11 0 0 0 6.46076e-12)
(6.29252e-12 0 0 -6.57716e-17 -1.2585e-11 0 0 0 6.29252e-12)
(8.80568e-12 0 0 -6.49992e-17 -1.76114e-11 0 0 0 8.80568e-12)
(1.00613e-11 0 0 -6.43829e-17 -2.01226e-11 0 0 0 1.00613e-11)
(-4.44543e-12 0 0 -6.39213e-17 8.89085e-12 0 0 0 -4.44543e-12)
(-1.06754e-11 0 0 -6.3614e-17 2.13509e-11 0 0 0 -1.06754e-11)
(1.99331e-10 0 0 -6.34493e-17 -3.98662e-10 0 0 0 1.99331e-10)
)
;

boundaryField
{
    inlet
    {
        type            cyclic;
    }
    outlet
    {
        type            cyclic;
    }
    top
    {
        type            extrapolatedCalculated;
        value           uniform (4.01509e-10 0 0 -6.33997e-17 -8.03019e-10 0 0 0 4.01509e-10);
    }
    bottom
    {
        type            extrapolatedCalculated;
        value           uniform (-1.39352e-07 0 0 4.21971e-19 2.78705e-07 0 0 0 -1.39352e-07);
    }
    frontAndBackPlanes
    {
        type            empty;
    }
}


// ************************************************************************* //
