/*--------------------------------*- C++ -*----------------------------------*\
| =========                 |                                                 |
| \\      /  F ield         | OpenFOAM: The Open Source CFD Toolbox           |
|  \\    /   O peration     | Version:  v2006                                 |
|   \\  /    A nd           | Website:  www.openfoam.com                      |
|    \\/     M anipulation  |                                                 |
\*---------------------------------------------------------------------------*/
FoamFile
{
    version     2.0;
    format      ascii;
    class       volVectorField;
    location    "1200";
    object      Ua;
}
// * * * * * * * * * * * * * * * * * * * * * * * * * * * * * * * * * * * * * //

dimensions      [0 1 -1 0 0 0 0];


internalField   nonuniform List<vector> 
120
(
(2.11179e-21 -1.39233e-09 0)
(6.33959e-21 -4.19926e-09 0)
(1.05772e-20 -7.05076e-09 0)
(1.473e-20 -9.9448e-09 0)
(1.89057e-20 -1.28808e-08 0)
(2.31111e-20 -1.58602e-08 0)
(2.7353e-20 -1.8884e-08 0)
(3.14358e-20 -2.19537e-08 0)
(3.55688e-20 -2.50704e-08 0)
(3.99615e-20 -2.82353e-08 0)
(4.44189e-20 -3.145e-08 0)
(4.89483e-20 -3.47158e-08 0)
(5.37597e-20 -3.80343e-08 0)
(5.86585e-20 -4.14068e-08 0)
(6.36528e-20 -4.48352e-08 0)
(6.87506e-20 -4.8321e-08 0)
(7.39606e-20 -5.18661e-08 0)
(7.92912e-20 -5.54721e-08 0)
(8.47515e-20 -5.91411e-08 0)
(9.03505e-20 -6.28749e-08 0)
(9.60977e-20 -6.66756e-08 0)
(1.02003e-19 -7.05453e-08 0)
(1.08075e-19 -7.44863e-08 0)
(1.14325e-19 -7.8501e-08 0)
(1.21571e-19 -8.25918e-08 0)
(1.29016e-19 -8.67613e-08 0)
(1.3667e-19 -9.10125e-08 0)
(1.4414e-19 -9.53483e-08 0)
(1.5184e-19 -9.97718e-08 0)
(1.59782e-19 -1.04287e-07 0)
(1.67169e-19 -1.08896e-07 0)
(1.74011e-19 -1.13605e-07 0)
(1.81128e-19 -1.18416e-07 0)
(1.88531e-19 -1.23335e-07 0)
(1.96231e-19 -1.28366e-07 0)
(2.04229e-19 -1.33514e-07 0)
(2.13352e-19 -1.38784e-07 0)
(2.23619e-19 -1.44182e-07 0)
(2.33414e-19 -1.49713e-07 0)
(2.44363e-19 -1.55383e-07 0)
(2.5405e-19 -1.61198e-07 0)
(2.64905e-19 -1.67166e-07 0)
(2.7532e-19 -1.73293e-07 0)
(2.86109e-19 -1.79586e-07 0)
(2.97276e-19 -1.86054e-07 0)
(3.09633e-19 -1.92706e-07 0)
(3.20761e-19 -1.99551e-07 0)
(3.32276e-19 -2.06602e-07 0)
(3.43372e-19 -2.13872e-07 0)
(3.56474e-19 -2.21374e-07 0)
(3.69966e-19 -2.29126e-07 0)
(3.83847e-19 -2.37146e-07 0)
(3.98114e-19 -2.45455e-07 0)
(4.12767e-19 -2.54074e-07 0)
(4.27804e-19 -2.6303e-07 0)
(4.44033e-19 -2.72347e-07 0)
(4.60644e-19 -2.82053e-07 0)
(4.77641e-19 -2.92175e-07 0)
(4.95044e-19 -3.02743e-07 0)
(5.11218e-19 -3.13787e-07 0)
(5.27768e-19 -3.25339e-07 0)
(5.44724e-19 -3.37438e-07 0)
(5.62098e-19 -3.50129e-07 0)
(5.79908e-19 -3.63473e-07 0)
(5.98177e-19 -3.77551e-07 0)
(6.15309e-19 -3.92478e-07 0)
(6.3462e-19 -4.08411e-07 0)
(6.54557e-19 -4.25565e-07 0)
(6.75233e-19 -4.44226e-07 0)
(6.96806e-19 -4.64762e-07 0)
(7.19458e-19 -4.87632e-07 0)
(7.41701e-19 -5.13384e-07 0)
(7.65304e-19 -5.42689e-07 0)
(7.90174e-19 -5.76571e-07 0)
(8.15871e-19 -6.16692e-07 0)
(8.4147e-19 -6.6337e-07 0)
(8.65503e-19 -7.12654e-07 0)
(8.86123e-19 -7.55978e-07 0)
(9.01723e-19 -7.86115e-07 0)
(9.20098e-19 -8.17385e-07 0)
(1.03283e-18 -9.21379e-07 0)
(7.22986e-17 -1.3132e-05 0)
(1.09202e-16 -2.81139e-06 0)
(1.3326e-16 -4.5447e-06 0)
(1.58824e-16 -5.74832e-06 0)
(1.8796e-16 -6.10357e-06 0)
(1.57718e-16 -6.15163e-06 0)
(1.31257e-16 -6.41487e-06 0)
(1.08309e-16 -8.56381e-06 0)
(8.88912e-17 -1.12681e-06 0)
(7.32639e-17 8.22779e-06 0)
(6.24127e-17 -8.44501e-05 0)
(5.88391e-17 -0.000249558 0)
(5.66344e-17 -0.000118073 0)
(5.31691e-17 -0.000158114 0)
(4.9897e-17 -0.000231692 0)
(4.68133e-17 -0.000230689 0)
(4.39028e-17 -0.000228445 0)
(4.11454e-17 -0.000228369 0)
(3.85257e-17 -0.000228546 0)
(3.60294e-17 -0.00022856 0)
(3.36437e-17 -0.000228547 0)
(3.13571e-17 -0.000228545 0)
(2.91592e-17 -0.000228546 0)
(2.70414e-17 -0.000228546 0)
(2.4995e-17 -0.000228546 0)
(2.30137e-17 -0.000228546 0)
(2.10903e-17 -0.000228546 0)
(1.92197e-17 -0.000228546 0)
(1.73963e-17 -0.000228546 0)
(1.56153e-17 -0.000228546 0)
(1.38721e-17 -0.000228546 0)
(1.21623e-17 -0.000228546 0)
(1.04821e-17 -0.000228546 0)
(8.82691e-18 -0.000228546 0)
(7.19305e-18 -0.000228546 0)
(5.57655e-18 -0.000228546 0)
(3.97351e-18 -0.000228518 0)
(2.38008e-18 -0.000228481 0)
(7.92507e-19 -0.000228045 0)
)
;

boundaryField
{
    inlet
    {
        type            cyclic;
    }
    outlet
    {
        type            cyclic;
    }
    top
    {
        type            fixedValue;
        value           uniform (0 0 0);
    }
    bottom
    {
        type            fixedValue;
        value           uniform (0 0 0);
    }
    frontAndBackPlanes
    {
        type            empty;
    }
}


// ************************************************************************* //
