/*--------------------------------*- C++ -*----------------------------------*\
| =========                 |                                                 |
| \\      /  F ield         | OpenFOAM: The Open Source CFD Toolbox           |
|  \\    /   O peration     | Version:  v2006                                 |
|   \\  /    A nd           | Website:  www.openfoam.com                      |
|    \\/     M anipulation  |                                                 |
\*---------------------------------------------------------------------------*/
FoamFile
{
    version     2.0;
    format      ascii;
    class       volVectorField;
    location    "1200";
    object      Ub;
}
// * * * * * * * * * * * * * * * * * * * * * * * * * * * * * * * * * * * * * //

dimensions      [0 1 -1 0 0 0 0];


internalField   nonuniform List<vector> 
120
(
(2.11179e-21 2.0922e-09 0)
(6.33964e-21 6.30084e-09 0)
(1.05894e-20 1.05611e-08 0)
(1.473e-20 1.48818e-08 0)
(1.89057e-20 1.92637e-08 0)
(2.31114e-20 2.37084e-08 0)
(2.74196e-20 2.82172e-08 0)
(3.14357e-20 3.27919e-08 0)
(3.54801e-20 3.74343e-08 0)
(3.99611e-20 4.21462e-08 0)
(4.44184e-20 4.69295e-08 0)
(4.88252e-20 5.17864e-08 0)
(5.37592e-20 5.67188e-08 0)
(5.86585e-20 6.17289e-08 0)
(6.36528e-20 6.68191e-08 0)
(6.87506e-20 7.19916e-08 0)
(7.39606e-20 7.7249e-08 0)
(7.92912e-20 8.25937e-08 0)
(8.47515e-20 8.80285e-08 0)
(9.03505e-20 9.35559e-08 0)
(9.60977e-20 9.9179e-08 0)
(1.02002e-19 1.04901e-07 0)
(1.0807e-19 1.10724e-07 0)
(1.1321e-19 1.16652e-07 0)
(1.21567e-19 1.22689e-07 0)
(1.29019e-19 1.28839e-07 0)
(1.37316e-19 1.35104e-07 0)
(1.44143e-19 1.41489e-07 0)
(1.51847e-19 1.48e-07 0)
(1.6127e-19 1.5464e-07 0)
(1.68721e-19 1.61415e-07 0)
(1.74018e-19 1.68329e-07 0)
(1.81128e-19 1.7539e-07 0)
(1.88531e-19 1.82603e-07 0)
(1.96222e-19 1.89975e-07 0)
(2.02326e-19 1.97512e-07 0)
(2.11384e-19 2.05221e-07 0)
(2.25645e-19 2.13111e-07 0)
(2.3132e-19 2.21188e-07 0)
(2.48749e-19 2.29462e-07 0)
(2.51796e-19 2.3794e-07 0)
(2.67263e-19 2.46632e-07 0)
(2.75331e-19 2.55548e-07 0)
(2.86097e-19 2.64697e-07 0)
(2.94666e-19 2.74091e-07 0)
(3.15076e-19 2.83743e-07 0)
(3.20798e-19 2.93666e-07 0)
(3.35171e-19 3.03877e-07 0)
(3.37336e-19 3.14392e-07 0)
(3.56447e-19 3.25234e-07 0)
(3.69966e-19 3.36423e-07 0)
(3.83847e-19 3.47986e-07 0)
(3.98114e-19 3.59951e-07 0)
(4.12751e-19 3.72349e-07 0)
(4.24092e-19 3.85213e-07 0)
(4.44016e-19 3.98578e-07 0)
(4.60644e-19 4.12481e-07 0)
(4.7768e-19 4.26959e-07 0)
(5.03574e-19 4.4205e-07 0)
(5.11257e-19 4.57796e-07 0)
(5.27769e-19 4.74238e-07 0)
(5.44723e-19 4.9143e-07 0)
(5.62098e-19 5.09433e-07 0)
(5.79956e-19 5.28333e-07 0)
(6.08731e-19 5.48244e-07 0)
(6.0434e-19 5.69327e-07 0)
(6.3457e-19 5.91806e-07 0)
(6.54556e-19 6.15982e-07 0)
(6.75233e-19 6.42251e-07 0)
(6.96869e-19 6.7112e-07 0)
(7.33095e-19 7.03214e-07 0)
(7.41765e-19 7.3931e-07 0)
(7.65305e-19 7.80385e-07 0)
(7.90174e-19 8.27498e-07 0)
(8.15871e-19 8.81935e-07 0)
(8.4147e-19 9.42841e-07 0)
(8.65503e-19 1.00473e-06 0)
(8.86124e-19 1.05767e-06 0)
(9.01769e-19 1.09239e-06 0)
(9.22352e-19 1.17099e-06 0)
(1.40547e-18 2.66447e-06 0)
(7.30925e-17 -4.57356e-06 0)
(1.09202e-16 8.24945e-06 0)
(1.3326e-16 7.49671e-06 0)
(1.58824e-16 6.74191e-06 0)
(1.87671e-16 6.6022e-06 0)
(1.57718e-16 6.65766e-06 0)
(1.31257e-16 6.45419e-06 0)
(1.08309e-16 4.26687e-06 0)
(8.88914e-17 1.19031e-05 0)
(7.32641e-17 2.06773e-05 0)
(6.2413e-17 -7.13811e-05 0)
(5.88396e-17 -0.000194919 0)
(5.66319e-17 4.3048e-05 0)
(5.31616e-17 2.56631e-05 0)
(4.98942e-17 -2.31494e-06 0)
(4.68138e-17 -2.12551e-06 0)
(4.39032e-17 9.32887e-08 0)
(4.11457e-17 1.71916e-07 0)
(3.8526e-17 -1.11211e-10 0)
(3.60297e-17 -1.35624e-08 0)
(3.3644e-17 -5.3714e-10 0)
(3.13574e-17 1.07837e-09 0)
(2.91596e-17 1.14577e-10 0)
(2.70416e-17 -5.85684e-11 0)
(2.49953e-17 1.01536e-11 0)
(2.30138e-17 2.71626e-11 0)
(2.10906e-17 2.21949e-11 0)
(1.92199e-17 2.0065e-11 0)
(1.73965e-17 1.95087e-11 0)
(1.56155e-17 1.85436e-11 0)
(1.38723e-17 1.7357e-11 0)
(1.21626e-17 1.64683e-11 0)
(1.04822e-17 1.59104e-11 0)
(8.8271e-18 1.5499e-11 0)
(7.19324e-18 1.49664e-11 0)
(5.57673e-18 1.4178e-11 0)
(3.97369e-18 1.3457e-11 0)
(2.38026e-18 1.48449e-11 0)
(7.92596e-19 1.50585e-11 0)
)
;

boundaryField
{
    inlet
    {
        type            cyclic;
    }
    outlet
    {
        type            cyclic;
    }
    top
    {
        type            fixedValue;
        value           uniform (0 0 0);
    }
    bottom
    {
        type            fixedValue;
        value           uniform (0 0 0);
    }
    frontAndBackPlanes
    {
        type            empty;
    }
}


// ************************************************************************* //
