/*--------------------------------*- C++ -*----------------------------------*\
| =========                 |                                                 |
| \\      /  F ield         | OpenFOAM: The Open Source CFD Toolbox           |
|  \\    /   O peration     | Version:  v2006                                 |
|   \\  /    A nd           | Website:  www.openfoam.com                      |
|    \\/     M anipulation  |                                                 |
\*---------------------------------------------------------------------------*/
FoamFile
{
    version     2.0;
    format      ascii;
    class       volScalarField;
    location    "1760";
    object      p;
}
// * * * * * * * * * * * * * * * * * * * * * * * * * * * * * * * * * * * * * //

dimensions      [1 -1 -2 0 0 0 0];


internalField   nonuniform List<scalar> 
120
(
-2.30446
-6.96421
-11.624
-16.2837
-20.9435
-25.6033
-30.263
-34.9228
-39.5826
-44.2424
-48.9022
-53.562
-58.2218
-62.8816
-67.5414
-72.2012
-76.861
-81.5209
-86.1807
-90.8405
-95.5004
-100.16
-104.82
-109.48
-114.14
-118.8
-123.46
-128.119
-132.779
-137.439
-142.099
-146.759
-151.419
-156.079
-160.739
-165.399
-170.059
-174.718
-179.378
-184.038
-188.698
-193.358
-198.018
-202.678
-207.338
-211.998
-216.658
-221.318
-225.978
-230.638
-235.298
-239.958
-244.618
-249.278
-253.938
-258.598
-263.258
-267.918
-272.579
-277.239
-281.899
-286.559
-291.219
-295.879
-300.539
-305.199
-309.859
-314.519
-319.18
-323.84
-328.5
-333.16
-337.82
-342.48
-347.141
-351.801
-356.461
-361.121
-365.781
-370.442
-375.102
-379.762
-384.422
-389.083
-393.743
-398.403
-403.064
-407.724
-412.384
-417.045
-421.704
-426.367
-431.027
-435.687
-440.346
-445.006
-449.666
-454.326
-458.985
-463.645
-468.305
-472.965
-477.624
-482.284
-486.944
-491.604
-496.263
-500.923
-505.583
-510.243
-514.902
-519.562
-524.222
-528.882
-533.541
-538.201
-542.861
-547.521
-552.18
-556.84
)
;

boundaryField
{
    inlet
    {
        type            cyclic;
    }
    outlet
    {
        type            cyclic;
    }
    top
    {
        type            calculated;
        value           uniform -559.17;
    }
    bottom
    {
        type            calculated;
        value           uniform 0.0254172;
    }
    frontAndBackPlanes
    {
        type            empty;
    }
}


// ************************************************************************* //
