/*--------------------------------*- C++ -*----------------------------------*\
| =========                 |                                                 |
| \\      /  F ield         | OpenFOAM: The Open Source CFD Toolbox           |
|  \\    /   O peration     | Version:  v2006                                 |
|   \\  /    A nd           | Website:  www.openfoam.com                      |
|    \\/     M anipulation  |                                                 |
\*---------------------------------------------------------------------------*/
FoamFile
{
    version     2.0;
    format      ascii;
    class       volScalarField;
    location    "1760";
    object      pff;
}
// * * * * * * * * * * * * * * * * * * * * * * * * * * * * * * * * * * * * * //

dimensions      [1 -1 -2 0 0 0 0];


internalField   nonuniform List<scalar> 
120
(
26.2545
25.9602
25.6659
25.3716
25.0773
24.7831
24.4889
24.1947
23.9006
23.6065
23.3124
23.0184
22.7243
22.4304
22.1364
21.8425
21.5486
21.2547
20.9609
20.6671
20.3733
20.0796
19.7859
19.4922
19.1986
18.905
18.6114
18.3179
18.0244
17.7309
17.4375
17.1441
16.8508
16.5575
16.2643
15.971
15.6779
15.3847
15.0917
14.7986
14.5056
14.2127
13.9198
13.6269
13.3341
13.0414
12.7487
12.456
12.1634
11.8709
11.5784
11.2859
10.9936
10.7012
10.409
10.1168
9.82465
9.53259
9.24059
8.94866
8.6568
8.36501
8.07329
7.78166
7.49011
7.19863
6.90725
6.61595
6.32475
6.03364
5.74264
5.45175
5.16096
4.8703
4.57976
4.28935
3.99908
3.70896
3.41899
3.1292
2.83959
2.55018
2.26099
1.97206
1.68339
1.39506
1.1073
0.819877
0.527991
0.230586
0
0
0
0
0
0
0
0
0
0
0
0
0
0
0
0
0
0
0
0
0
0
0
0
0
0
0
0
0
0
)
;

boundaryField
{
    inlet
    {
        type            cyclic;
    }
    outlet
    {
        type            cyclic;
    }
    top
    {
        type            calculated;
        value           uniform 0;
    }
    bottom
    {
        type            calculated;
        value           uniform 26.2545;
    }
    frontAndBackPlanes
    {
        type            empty;
    }
}


// ************************************************************************* //
