/*--------------------------------*- C++ -*----------------------------------*\
| =========                 |                                                 |
| \\      /  F ield         | OpenFOAM: The Open Source CFD Toolbox           |
|  \\    /   O peration     | Version:  v2006                                 |
|   \\  /    A nd           | Website:  www.openfoam.com                      |
|    \\/     M anipulation  |                                                 |
\*---------------------------------------------------------------------------*/
FoamFile
{
    version     2.0;
    format      ascii;
    class       surfaceScalarField;
    location    "1760";
    object      phia;
}
// * * * * * * * * * * * * * * * * * * * * * * * * * * * * * * * * * * * * * //

dimensions      [0 3 -1 0 0 0 0];
oriented        oriented;


internalField   nonuniform List<scalar> 
119
(
-1.03744e-17
-2.08677e-17
-3.14789e-17
-4.22082e-17
-5.30585e-17
-6.40304e-17
-7.51248e-17
-8.63424e-17
-9.76839e-17
-1.0915e-16
-1.20742e-16
-1.3246e-16
-1.44306e-16
-1.56279e-16
-1.68382e-16
-1.80616e-16
-1.92981e-16
-2.0548e-16
-2.18114e-16
-2.30885e-16
-2.43795e-16
-2.56847e-16
-2.70042e-16
-2.83386e-16
-2.96879e-16
-3.10527e-16
-3.24333e-16
-3.38301e-16
-3.52436e-16
-3.66741e-16
-3.81223e-16
-3.95884e-16
-4.10731e-16
-4.25767e-16
-4.40996e-16
-4.56423e-16
-4.7205e-16
-4.87881e-16
-5.03918e-16
-5.20164e-16
-5.36619e-16
-5.53285e-16
-5.70163e-16
-5.87252e-16
-6.04554e-16
-6.22068e-16
-6.39795e-16
-6.57735e-16
-6.75889e-16
-6.94259e-16
-7.12846e-16
-7.31651e-16
-7.50676e-16
-7.69923e-16
-7.89394e-16
-8.09087e-16
-8.29004e-16
-8.49142e-16
-8.69501e-16
-8.90077e-16
-9.1087e-16
-9.31881e-16
-9.53115e-16
-9.74585e-16
-9.96312e-16
-1.01833e-15
-1.04069e-15
-1.06344e-15
-1.08668e-15
-1.11048e-15
-1.13495e-15
-1.16017e-15
-1.18623e-15
-1.21318e-15
-1.24105e-15
-1.26986e-15
-1.29961e-15
-1.3304e-15
-1.36242e-15
-1.39617e-15
-1.43249e-15
-1.47273e-15
-1.5187e-15
-1.57253e-15
-1.6363e-15
-1.71161e-15
-1.79862e-15
-1.89775e-15
-2.05283e-15
-4.4884e-15
-5.66933e-12
-3.81155e-11
-6.12434e-11
-8.2187e-11
-8.22692e-11
-8.22748e-11
-8.22766e-11
-8.22766e-11
-8.22766e-11
-8.22766e-11
-8.22766e-11
-8.22766e-11
-8.22766e-11
-8.22766e-11
-8.22766e-11
-8.22766e-11
-8.22766e-11
-8.22766e-11
-8.22766e-11
-8.22766e-11
-8.22766e-11
-8.22766e-11
-8.22766e-11
-8.22766e-11
-8.22766e-11
-8.22766e-11
-8.22766e-11
-8.22565e-11
-8.21697e-11
)
;

boundaryField
{
    inlet
    {
        type            cyclic;
        value           nonuniform List<scalar> 
120
(
-1.27383e-27
-3.82321e-27
-6.37665e-27
-8.90653e-27
-1.1446e-26
-1.39976e-26
-1.65643e-26
-1.90878e-26
-2.16315e-26
-2.4259e-26
-2.69119e-26
-2.95929e-26
-3.23652e-26
-3.51706e-26
-3.80115e-26
-4.08903e-26
-4.38093e-26
-4.67707e-26
-4.97769e-26
-5.28297e-26
-5.59314e-26
-5.90839e-26
-6.22889e-26
-6.55482e-26
-6.91061e-26
-7.27214e-26
-7.63955e-26
-8.00084e-26
-8.36825e-26
-8.74187e-26
-9.09752e-26
-9.43528e-26
-9.77944e-26
-1.013e-25
-1.0487e-25
-1.08504e-25
-1.12445e-25
-1.16691e-25
-1.20757e-25
-1.25127e-25
-1.29072e-25
-1.33319e-25
-1.37381e-25
-1.41498e-25
-1.45668e-25
-1.5013e-25
-1.54156e-25
-1.58228e-25
-1.62099e-25
-1.66492e-25
-1.7092e-25
-1.75379e-25
-1.79865e-25
-1.84373e-25
-1.88899e-25
-1.9368e-25
-1.98469e-25
-2.03261e-25
-2.08051e-25
-2.1235e-25
-2.16636e-25
-2.20904e-25
-2.25147e-25
-2.29359e-25
-2.33535e-25
-2.37186e-25
-2.41271e-25
-2.45302e-25
-2.49272e-25
-2.53176e-25
-2.57008e-25
-2.60281e-25
-2.63471e-25
-2.66571e-25
-2.69577e-25
-2.72483e-25
-2.75284e-25
-2.77976e-25
-2.80554e-25
-2.83014e-25
-2.85352e-25
-2.87563e-25
-2.89645e-25
-2.91594e-25
-2.93408e-25
-2.95084e-25
-2.95667e-25
-2.96108e-25
-2.96406e-25
-2.96559e-25
-2.96618e-25
-2.92882e-25
-2.85125e-25
-2.77156e-25
-2.69066e-25
-2.60841e-25
-2.52459e-25
-2.43908e-25
-2.35174e-25
-2.26245e-25
-2.17112e-25
-2.07766e-25
-1.98204e-25
-1.88418e-25
-1.7841e-25
-1.68177e-25
-1.57724e-25
-1.47052e-25
-1.36171e-25
-1.25085e-25
-1.13807e-25
-1.02348e-25
-9.07246e-26
-7.89478e-26
-6.70375e-26
-5.50112e-26
-4.28885e-26
-3.06897e-26
-1.8436e-26
-6.14988e-27
)
;
    }
    outlet
    {
        type            cyclic;
        value           nonuniform List<scalar> 
120
(
1.27383e-27
3.82321e-27
6.37665e-27
8.90653e-27
1.1446e-26
1.39976e-26
1.65643e-26
1.90878e-26
2.16315e-26
2.4259e-26
2.69119e-26
2.95929e-26
3.23652e-26
3.51706e-26
3.80115e-26
4.08903e-26
4.38093e-26
4.67707e-26
4.97769e-26
5.28297e-26
5.59314e-26
5.90839e-26
6.22889e-26
6.55482e-26
6.91061e-26
7.27214e-26
7.63955e-26
8.00084e-26
8.36825e-26
8.74187e-26
9.09752e-26
9.43528e-26
9.77944e-26
1.013e-25
1.0487e-25
1.08504e-25
1.12445e-25
1.16691e-25
1.20757e-25
1.25127e-25
1.29072e-25
1.33319e-25
1.37381e-25
1.41498e-25
1.45668e-25
1.5013e-25
1.54156e-25
1.58228e-25
1.62099e-25
1.66492e-25
1.7092e-25
1.75379e-25
1.79865e-25
1.84373e-25
1.88899e-25
1.9368e-25
1.98469e-25
2.03261e-25
2.08051e-25
2.1235e-25
2.16636e-25
2.20904e-25
2.25147e-25
2.29359e-25
2.33535e-25
2.37186e-25
2.41271e-25
2.45302e-25
2.49272e-25
2.53176e-25
2.57008e-25
2.60281e-25
2.63471e-25
2.66571e-25
2.69577e-25
2.72483e-25
2.75284e-25
2.77976e-25
2.80554e-25
2.83014e-25
2.85352e-25
2.87563e-25
2.89645e-25
2.91594e-25
2.93408e-25
2.95084e-25
2.95667e-25
2.96108e-25
2.96406e-25
2.96559e-25
2.96618e-25
2.92882e-25
2.85125e-25
2.77156e-25
2.69066e-25
2.60841e-25
2.52459e-25
2.43908e-25
2.35174e-25
2.26245e-25
2.17112e-25
2.07766e-25
1.98204e-25
1.88418e-25
1.7841e-25
1.68177e-25
1.57724e-25
1.47052e-25
1.36171e-25
1.25085e-25
1.13807e-25
1.02348e-25
9.07246e-26
7.89478e-26
6.70375e-26
5.50112e-26
4.28885e-26
3.06897e-26
1.8436e-26
6.14988e-27
)
;
    }
    top
    {
        type            fixedValue;
        value           uniform 0;
    }
    bottom
    {
        type            fixedValue;
        value           uniform 0;
    }
    frontAndBackPlanes
    {
        type            empty;
        value           nonuniform List<scalar> 0();
    }
}


// ************************************************************************* //
