/*--------------------------------*- C++ -*----------------------------------*\
| =========                 |                                                 |
| \\      /  F ield         | OpenFOAM: The Open Source CFD Toolbox           |
|  \\    /   O peration     | Version:  v2006                                 |
|   \\  /    A nd           | Website:  www.openfoam.com                      |
|    \\/     M anipulation  |                                                 |
\*---------------------------------------------------------------------------*/
FoamFile
{
    version     2.0;
    format      ascii;
    class       surfaceScalarField;
    location    "1760";
    object      phib;
}
// * * * * * * * * * * * * * * * * * * * * * * * * * * * * * * * * * * * * * //

dimensions      [0 3 -1 0 0 0 0];
oriented        oriented;


internalField   nonuniform List<scalar> 
119
(
1.55662e-17
3.13045e-17
4.72133e-17
6.32928e-17
7.9547e-17
9.59767e-17
1.12583e-16
1.29367e-16
1.46329e-16
1.6347e-16
1.80792e-16
1.98294e-16
2.15979e-16
2.33847e-16
2.51899e-16
2.70138e-16
2.88565e-16
3.07181e-16
3.2599e-16
3.44993e-16
3.64193e-16
3.83594e-16
4.03199e-16
4.23012e-16
4.43037e-16
4.63281e-16
4.83747e-16
5.04441e-16
5.2537e-16
5.4654e-16
5.67957e-16
5.89627e-16
6.11557e-16
6.33752e-16
6.56217e-16
6.78959e-16
7.0198e-16
7.25285e-16
7.48876e-16
7.72756e-16
7.96925e-16
8.21385e-16
8.46136e-16
8.71176e-16
8.96505e-16
9.22122e-16
9.48026e-16
9.74218e-16
1.0007e-15
1.02746e-15
1.05451e-15
1.08185e-15
1.10948e-15
1.13739e-15
1.1656e-15
1.19409e-15
1.22286e-15
1.25191e-15
1.28124e-15
1.31083e-15
1.34068e-15
1.3708e-15
1.40117e-15
1.43182e-15
1.46278e-15
1.49408e-15
1.5258e-15
1.558e-15
1.59081e-15
1.62434e-15
1.65872e-15
1.69407e-15
1.73049e-15
1.76804e-15
1.80676e-15
1.84662e-15
1.88763e-15
1.92986e-15
1.97357e-15
2.01941e-15
2.06853e-15
2.12276e-15
2.18456e-15
2.25675e-15
2.34198e-15
2.44198e-15
2.556e-15
2.68261e-15
2.8774e-15
4.21186e-15
1.38331e-12
1.22357e-13
3.29166e-16
-1.64603e-20
-2.2792e-20
-3.11354e-20
-3.82055e-20
-4.71896e-20
-5.23181e-20
-5.89238e-20
-6.11495e-20
-6.54611e-20
-6.52362e-20
-6.91719e-20
-7.05609e-20
-7.61498e-20
-7.66325e-20
-7.95509e-20
-7.72553e-20
-7.74041e-20
-7.2704e-20
-7.21437e-20
-6.94794e-20
-7.1054e-20
-6.8828e-20
-6.89939e-20
-6.54365e-20
-6.41779e-20
-5.91832e-20
)
;

boundaryField
{
    inlet
    {
        type            cyclic;
        value           nonuniform List<scalar> 
120
(
-1.27383e-27
-3.82321e-27
-6.37655e-27
-8.90653e-27
-1.1446e-26
-1.39976e-26
-1.65642e-26
-1.90878e-26
-2.16315e-26
-2.4259e-26
-2.69119e-26
-2.95928e-26
-3.23652e-26
-3.51706e-26
-3.80115e-26
-4.08903e-26
-4.38093e-26
-4.67707e-26
-4.97769e-26
-5.28297e-26
-5.59314e-26
-5.90839e-26
-6.22888e-26
-6.55459e-26
-6.9106e-26
-7.27214e-26
-7.63969e-26
-8.00084e-26
-8.36825e-26
-8.74219e-26
-9.09786e-26
-9.43529e-26
-9.77944e-26
-1.013e-25
-1.0487e-25
-1.085e-25
-1.1244e-25
-1.16695e-25
-1.20752e-25
-1.25137e-25
-1.29067e-25
-1.33324e-25
-1.37381e-25
-1.41498e-25
-1.45662e-25
-1.50142e-25
-1.54156e-25
-1.58234e-25
-1.62085e-25
-1.66492e-25
-1.7092e-25
-1.75379e-25
-1.79865e-25
-1.84373e-25
-1.88891e-25
-1.9368e-25
-1.98469e-25
-2.03261e-25
-2.08069e-25
-2.1235e-25
-2.16636e-25
-2.20904e-25
-2.25147e-25
-2.29359e-25
-2.33556e-25
-2.37165e-25
-2.41271e-25
-2.45302e-25
-2.49272e-25
-2.53177e-25
-2.57033e-25
-2.60281e-25
-2.63471e-25
-2.66571e-25
-2.69577e-25
-2.72483e-25
-2.75284e-25
-2.77976e-25
-2.80554e-25
-2.83014e-25
-2.85352e-25
-2.87563e-25
-2.89645e-25
-2.91594e-25
-2.93408e-25
-2.95157e-25
-2.95667e-25
-2.96108e-25
-2.96406e-25
-2.96559e-25
-2.9655e-25
-2.92874e-25
-2.85108e-25
-2.7715e-25
-2.69067e-25
-2.60842e-25
-2.52461e-25
-2.43909e-25
-2.35175e-25
-2.26246e-25
-2.17112e-25
-2.07767e-25
-1.98204e-25
-1.8842e-25
-1.78411e-25
-1.68179e-25
-1.57725e-25
-1.47053e-25
-1.36171e-25
-1.25086e-25
-1.13808e-25
-1.0235e-25
-9.07252e-26
-7.89491e-26
-6.70388e-26
-5.50125e-26
-4.28898e-26
-3.0691e-26
-1.84374e-26
-6.15057e-27
)
;
    }
    outlet
    {
        type            cyclic;
        value           nonuniform List<scalar> 
120
(
1.27383e-27
3.82321e-27
6.37655e-27
8.90653e-27
1.1446e-26
1.39976e-26
1.65642e-26
1.90878e-26
2.16315e-26
2.4259e-26
2.69119e-26
2.95928e-26
3.23652e-26
3.51706e-26
3.80115e-26
4.08903e-26
4.38093e-26
4.67707e-26
4.97769e-26
5.28297e-26
5.59314e-26
5.90839e-26
6.22888e-26
6.55459e-26
6.9106e-26
7.27214e-26
7.63969e-26
8.00084e-26
8.36825e-26
8.74219e-26
9.09786e-26
9.43529e-26
9.77944e-26
1.013e-25
1.0487e-25
1.085e-25
1.1244e-25
1.16695e-25
1.20752e-25
1.25137e-25
1.29067e-25
1.33324e-25
1.37381e-25
1.41498e-25
1.45662e-25
1.50142e-25
1.54156e-25
1.58234e-25
1.62085e-25
1.66492e-25
1.7092e-25
1.75379e-25
1.79865e-25
1.84373e-25
1.88891e-25
1.9368e-25
1.98469e-25
2.03261e-25
2.08069e-25
2.1235e-25
2.16636e-25
2.20904e-25
2.25147e-25
2.29359e-25
2.33556e-25
2.37165e-25
2.41271e-25
2.45302e-25
2.49272e-25
2.53177e-25
2.57033e-25
2.60281e-25
2.63471e-25
2.66571e-25
2.69577e-25
2.72483e-25
2.75284e-25
2.77976e-25
2.80554e-25
2.83014e-25
2.85352e-25
2.87563e-25
2.89645e-25
2.91594e-25
2.93408e-25
2.95157e-25
2.95667e-25
2.96108e-25
2.96406e-25
2.96559e-25
2.9655e-25
2.92874e-25
2.85108e-25
2.7715e-25
2.69067e-25
2.60842e-25
2.52461e-25
2.43909e-25
2.35175e-25
2.26246e-25
2.17112e-25
2.07767e-25
1.98204e-25
1.8842e-25
1.78411e-25
1.68179e-25
1.57725e-25
1.47053e-25
1.36171e-25
1.25086e-25
1.13808e-25
1.0235e-25
9.07252e-26
7.89491e-26
6.70388e-26
5.50125e-26
4.28898e-26
3.0691e-26
1.84374e-26
6.15057e-27
)
;
    }
    top
    {
        type            fixedValue;
        value           uniform 0;
    }
    bottom
    {
        type            fixedValue;
        value           uniform 0;
    }
    frontAndBackPlanes
    {
        type            empty;
        value           nonuniform List<scalar> 0();
    }
}


// ************************************************************************* //
