/*--------------------------------*- C++ -*----------------------------------*\
| =========                 |                                                 |
| \\      /  F ield         | OpenFOAM: The Open Source CFD Toolbox           |
|  \\    /   O peration     | Version:  v2006                                 |
|   \\  /    A nd           | Website:  www.openfoam.com                      |
|    \\/     M anipulation  |                                                 |
\*---------------------------------------------------------------------------*/
FoamFile
{
    version     2.0;
    format      ascii;
    class       volTensorField;
    location    "1760";
    object      Taua;
}
// * * * * * * * * * * * * * * * * * * * * * * * * * * * * * * * * * * * * * //

dimensions      [1 -1 -2 0 0 0 0];


internalField   nonuniform List<tensor> 
120
(
(2.02058e-05 0 0 1.78397e-14 -4.04116e-05 0 0 0 2.02058e-05)
(2.03824e-05 0 0 1.78599e-14 -4.07649e-05 0 0 0 2.03824e-05)
(2.06231e-05 0 0 1.77916e-14 -4.12463e-05 0 0 0 2.06231e-05)
(2.08597e-05 0 0 1.77426e-14 -4.17194e-05 0 0 0 2.08597e-05)
(2.10978e-05 0 0 1.78189e-14 -4.21955e-05 0 0 0 2.10978e-05)
(2.13345e-05 0 0 1.79141e-14 -4.26691e-05 0 0 0 2.13345e-05)
(2.15724e-05 0 0 1.78154e-14 -4.31448e-05 0 0 0 2.15724e-05)
(2.1812e-05 0 0 1.77355e-14 -4.3624e-05 0 0 0 2.1812e-05)
(2.20531e-05 0 0 1.80992e-14 -4.41061e-05 0 0 0 2.20531e-05)
(2.22956e-05 0 0 1.84812e-14 -4.45912e-05 0 0 0 2.22956e-05)
(2.25396e-05 0 0 1.86687e-14 -4.50793e-05 0 0 0 2.25396e-05)
(2.27853e-05 0 0 1.90866e-14 -4.55706e-05 0 0 0 2.27853e-05)
(2.30327e-05 0 0 1.9522e-14 -4.60654e-05 0 0 0 2.30327e-05)
(2.3282e-05 0 0 1.9762e-14 -4.65641e-05 0 0 0 2.3282e-05)
(2.35335e-05 0 0 2.00189e-14 -4.7067e-05 0 0 0 2.35335e-05)
(2.37874e-05 0 0 2.02923e-14 -4.75748e-05 0 0 0 2.37874e-05)
(2.40439e-05 0 0 2.05816e-14 -4.80878e-05 0 0 0 2.40439e-05)
(2.43034e-05 0 0 2.08866e-14 -4.86067e-05 0 0 0 2.43034e-05)
(2.45661e-05 0 0 2.12066e-14 -4.91322e-05 0 0 0 2.45661e-05)
(2.48325e-05 0 0 2.15411e-14 -4.9665e-05 0 0 0 2.48325e-05)
(2.51031e-05 0 0 2.18894e-14 -5.02061e-05 0 0 0 2.51031e-05)
(2.53783e-05 0 0 2.2251e-14 -5.07566e-05 0 0 0 2.53783e-05)
(2.56587e-05 0 0 2.26251e-14 -5.13174e-05 0 0 0 2.56587e-05)
(2.5945e-05 0 0 2.38602e-14 -5.189e-05 0 0 0 2.5945e-05)
(2.62377e-05 0 0 2.51063e-14 -5.24754e-05 0 0 0 2.62377e-05)
(2.65374e-05 0 0 2.55132e-14 -5.30749e-05 0 0 0 2.65374e-05)
(2.68447e-05 0 0 2.55047e-14 -5.36895e-05 0 0 0 2.68447e-05)
(2.71601e-05 0 0 2.55044e-14 -5.43202e-05 0 0 0 2.71601e-05)
(2.7484e-05 0 0 2.59358e-14 -5.4968e-05 0 0 0 2.7484e-05)
(2.78166e-05 0 0 2.55246e-14 -5.56333e-05 0 0 0 2.78166e-05)
(2.81583e-05 0 0 2.42696e-14 -5.63165e-05 0 0 0 2.81583e-05)
(2.85089e-05 0 0 2.38671e-14 -5.70177e-05 0 0 0 2.85089e-05)
(2.88683e-05 0 0 2.43156e-14 -5.77367e-05 0 0 0 2.88683e-05)
(2.92364e-05 0 0 2.47654e-14 -5.84727e-05 0 0 0 2.92364e-05)
(2.96125e-05 0 0 2.52148e-14 -5.92249e-05 0 0 0 2.96125e-05)
(2.99961e-05 2.87606e-19 0 2.65107e-14 -5.99921e-05 0 0 0 2.99961e-05)
(3.03863e-05 0 0 2.86518e-14 -6.07727e-05 0 0 0 3.03863e-05)
(3.07824e-05 0 0 2.90922e-14 -6.15649e-05 0 0 0 3.07824e-05)
(3.11834e-05 0 0 2.9526e-14 -6.23669e-05 0 0 0 3.11834e-05)
(3.15883e-05 0 0 2.91047e-14 -6.31767e-05 0 0 0 3.15883e-05)
(3.19962e-05 0 0 2.86737e-14 -6.39923e-05 0 0 0 3.19962e-05)
(3.24061e-05 0 0 2.90796e-14 -6.48122e-05 0 0 0 3.24061e-05)
(3.28174e-05 0 0 2.86251e-14 -6.56348e-05 0 0 0 3.28174e-05)
(3.32295e-05 0 0 2.90037e-14 -6.6459e-05 0 0 0 3.32295e-05)
(3.36422e-05 0 0 3.02133e-14 -6.72843e-05 0 0 0 3.36422e-05)
(3.40553e-05 0 0 2.9711e-14 -6.81105e-05 0 0 0 3.40553e-05)
(3.4469e-05 0 0 2.8342e-14 -6.8938e-05 0 0 0 3.4469e-05)
(3.48838e-05 0 0 2.77989e-14 -6.97677e-05 0 0 0 3.48838e-05)
(3.53003e-05 0 0 2.8926e-14 -7.06006e-05 0 0 0 3.53003e-05)
(3.5719e-05 0 0 3.0875e-14 -7.1438e-05 0 0 0 3.5719e-05)
(3.61406e-05 0 0 3.11046e-14 -7.22812e-05 0 0 0 3.61406e-05)
(3.65655e-05 0 0 3.13062e-14 -7.31309e-05 0 0 0 3.65655e-05)
(3.69937e-05 0 0 3.14783e-14 -7.39874e-05 0 0 0 3.69937e-05)
(3.7425e-05 0 0 3.16193e-14 -7.485e-05 0 0 0 3.7425e-05)
(3.78585e-05 0 0 3.25736e-14 -7.5717e-05 0 0 0 3.78585e-05)
(3.8293e-05 0 0 3.3494e-14 -7.6586e-05 0 0 0 3.8293e-05)
(3.87267e-05 0 0 3.35336e-14 -7.74535e-05 0 0 0 3.87267e-05)
(3.91581e-05 0 0 3.3537e-14 -7.83162e-05 0 0 0 3.91581e-05)
(3.95858e-05 -1.15042e-18 0 3.18129e-14 -7.91717e-05 0 0 0 3.95858e-05)
(4.00096e-05 0 0 3.00499e-14 -8.00193e-05 0 0 0 4.00096e-05)
(4.04312e-05 0 0 2.99377e-14 -8.08624e-05 0 0 0 4.04312e-05)
(4.08551e-05 0 0 2.97856e-14 -8.17102e-05 0 0 0 4.08551e-05)
(4.12896e-05 0 0 2.95928e-14 -8.25793e-05 0 0 0 4.12896e-05)
(4.17478e-05 0 0 2.93587e-14 -8.34957e-05 0 0 0 4.17478e-05)
(4.22479e-05 0 0 2.73953e-14 -8.44958e-05 0 0 0 4.22479e-05)
(4.28132e-05 0 0 2.70773e-14 -8.56263e-05 0 0 0 4.28132e-05)
(4.3471e-05 0 0 2.84051e-14 -8.69421e-05 0 0 0 4.3471e-05)
(4.42511e-05 0 0 2.80038e-14 -8.85022e-05 0 0 0 4.42511e-05)
(4.51816e-05 0 0 2.75609e-14 -9.03632e-05 0 0 0 4.51816e-05)
(4.6285e-05 0 0 2.70767e-14 -9.25701e-05 0 0 0 4.6285e-05)
(4.75729e-05 0 0 2.48671e-14 -9.51457e-05 0 0 0 4.75729e-05)
(4.90402e-05 0 0 2.26175e-14 -9.80804e-05 0 0 0 4.90402e-05)
(5.06627e-05 0 0 2.20133e-14 -0.000101325 0 0 0 5.06627e-05)
(5.23978e-05 0 0 2.13711e-14 -0.000104796 0 0 0 5.23978e-05)
(5.41938e-05 0 0 2.06917e-14 -0.000108388 0 0 0 5.41938e-05)
(5.60123e-05 0 0 1.99767e-14 -0.000112025 0 0 0 5.60123e-05)
(5.78639e-05 0 0 1.92274e-14 -0.000115728 0 0 0 5.78639e-05)
(5.98607e-05 0 0 1.84454e-14 -0.000119721 0 0 0 5.98607e-05)
(6.22785e-05 0 0 1.76324e-14 -0.000124557 0 0 0 6.22785e-05)
(6.56335e-05 0 0 1.67903e-14 -0.000131267 0 0 0 6.56335e-05)
(7.07044e-05 0 0 1.5921e-14 -0.000141409 0 0 0 7.07044e-05)
(7.82171e-05 0 0 1.50266e-14 -0.000156434 0 0 0 7.82171e-05)
(8.84742e-05 0 0 1.41093e-14 -0.000176948 0 0 0 8.84742e-05)
(0.00010419 0 0 1.31714e-14 -0.00020838 0 0 0 0.00010419)
(0.000134292 0 0 1.22149e-14 -0.000268585 0 0 0 0.000134292)
(0.000156124 0 0 7.90588e-15 -0.000312249 0 0 0 0.000156124)
(4.2463e-05 0 0 3.58322e-15 -8.4926e-05 0 0 0 4.2463e-05)
(-8.19546e-06 0 0 2.58593e-15 1.63909e-05 0 0 0 -8.19546e-06)
(0.0017011 0 0 1.57963e-15 -0.00340219 0 0 0 0.0017011)
(0.00683992 0 0 7.43764e-16 -0.0136798 0 0 0 0.00683992)
(8.26456e-06 0 0 -4.96728e-21 -1.65291e-05 0 0 0 8.26456e-06)
(3.033e-07 0 0 -2.57008e-22 -6.066e-07 0 0 0 3.033e-07)
(5.21528e-10 0 0 -5.91662e-25 -1.04306e-09 0 0 0 5.21528e-10)
(7.59947e-20 0 0 -1.31176e-34 -1.51989e-19 0 0 0 7.59947e-20)
(3.181e-30 0 0 -1.80882e-44 -6.36201e-30 0 0 0 3.181e-30)
(-2.89099e-42 0 0 -2.76596e-54 5.78197e-42 0 0 0 -2.89099e-42)
(1.14891e-52 0 0 -4.79433e-64 -2.29782e-52 0 0 0 1.14891e-52)
(1.39477e-62 0 0 -8.96818e-74 -2.78955e-62 0 0 0 1.39477e-62)
(-1.96381e-73 0 0 -1.93658e-83 3.92761e-73 0 0 0 -1.96381e-73)
(-5.42085e-83 0 0 -4.74505e-93 1.08417e-82 0 0 0 -5.42085e-83)
(3.32253e-94 0 0 -1.47341e-102 -6.64506e-94 0 0 0 3.32253e-94)
(5.06401e-103 0 0 -5.68408e-112 -1.0128e-102 0 0 0 5.06401e-103)
(6.61056e-114 0 0 -2.72039e-121 -1.32211e-113 0 0 0 6.61056e-114)
(-9.33588e-123 0 0 -1.40721e-130 1.86718e-122 0 0 0 -9.33588e-123)
(-4.02005e-133 0 0 -7.89949e-140 8.0401e-133 0 0 0 -4.02005e-133)
(2.24192e-142 0 0 -4.51483e-149 -4.48383e-142 0 0 0 2.24192e-142)
(1.89404e-152 0 0 -2.73992e-158 -3.78807e-152 0 0 0 1.89404e-152)
(-5.15111e-162 0 0 -1.64882e-167 1.03022e-161 0 0 0 -5.15111e-162)
(-7.53286e-172 0 0 -1.01774e-176 1.50657e-171 0 0 0 -7.53286e-172)
(-1.1394e-181 0 0 -6.08939e-186 2.2788e-181 0 0 0 -1.1394e-181)
(-2.05215e-190 0 0 -3.68196e-195 4.1043e-190 0 0 0 -2.05215e-190)
(-1.18252e-199 0 0 -2.14237e-204 2.36503e-199 0 0 0 -1.18252e-199)
(-6.35767e-209 0 0 -1.28828e-213 1.27153e-208 0 0 0 -6.35767e-209)
(-5.67558e-216 0 0 -7.90431e-223 1.13512e-215 0 0 0 -5.67558e-216)
(-6.51329e-225 0 0 -5.37112e-232 1.30266e-224 0 0 0 -6.51329e-225)
(-8.79127e-233 0 0 -3.99272e-241 1.75825e-232 0 0 0 -8.79127e-233)
(-4.22278e-239 0 0 -3.68693e-250 8.44557e-239 0 0 0 -4.22278e-239)
(-1.22427e-247 0 0 -4.58645e-259 2.44854e-247 0 0 0 -1.22427e-247)
(-1.64417e-255 0 0 -8.5333e-268 3.28833e-255 0 0 0 -1.64417e-255)
(-3.82207e-261 0 0 -2.05835e-276 7.64415e-261 0 0 0 -3.82207e-261)
)
;

boundaryField
{
    inlet
    {
        type            cyclic;
    }
    outlet
    {
        type            cyclic;
    }
    top
    {
        type            extrapolatedCalculated;
        value           uniform (-7.63686e-261 0 0 -2.05949e-276 1.52737e-260 0 0 0 -7.63686e-261);
    }
    bottom
    {
        type            extrapolatedCalculated;
        value           uniform (2.0153e-05 0 0 1.78337e-14 -4.03061e-05 0 0 0 2.0153e-05);
    }
    frontAndBackPlanes
    {
        type            empty;
    }
}


// ************************************************************************* //
