/*--------------------------------*- C++ -*----------------------------------*\
| =========                 |                                                 |
| \\      /  F ield         | OpenFOAM: The Open Source CFD Toolbox           |
|  \\    /   O peration     | Version:  v2006                                 |
|   \\  /    A nd           | Website:  www.openfoam.com                      |
|    \\/     M anipulation  |                                                 |
\*---------------------------------------------------------------------------*/
FoamFile
{
    version     2.0;
    format      ascii;
    class       volTensorField;
    location    "1760";
    object      Taub;
}
// * * * * * * * * * * * * * * * * * * * * * * * * * * * * * * * * * * * * * //

dimensions      [1 -1 -2 0 0 0 0];


internalField   nonuniform List<tensor> 
120
(
(-1.70877e-09 0 0 8.49474e-19 3.41754e-09 0 0 0 -1.70877e-09)
(-1.03571e-09 0 0 8.50381e-19 2.07142e-09 0 0 0 -1.03571e-09)
(-1.38166e-09 0 0 8.4711e-19 2.76332e-09 0 0 0 -1.38166e-09)
(-1.68332e-09 0 0 8.44751e-19 3.36664e-09 0 0 0 -1.68332e-09)
(-1.56167e-09 0 0 8.48326e-19 3.12333e-09 0 0 0 -1.56167e-09)
(-1.5207e-09 0 0 8.52808e-19 3.04139e-09 0 0 0 -1.5207e-09)
(-1.53709e-09 0 0 8.48079e-19 3.07417e-09 0 0 0 -1.53709e-09)
(-1.55349e-09 0 0 8.44236e-19 3.10699e-09 0 0 0 -1.55349e-09)
(-1.56992e-09 0 0 8.615e-19 3.13984e-09 0 0 0 -1.56992e-09)
(-1.58643e-09 0 0 8.79641e-19 3.17285e-09 0 0 0 -1.58643e-09)
(-1.60301e-09 0 0 8.88498e-19 3.20603e-09 0 0 0 -1.60301e-09)
(-1.61969e-09 0 0 9.08357e-19 3.23938e-09 0 0 0 -1.61969e-09)
(-1.63646e-09 0 0 9.29048e-19 3.27292e-09 0 0 0 -1.63646e-09)
(-1.65334e-09 0 0 9.40402e-19 3.30667e-09 0 0 0 -1.65334e-09)
(-1.67034e-09 0 0 9.52574e-19 3.34068e-09 0 0 0 -1.67034e-09)
(-1.68748e-09 0 0 9.65529e-19 3.37496e-09 0 0 0 -1.68748e-09)
(-1.70478e-09 0 0 9.79243e-19 3.40957e-09 0 0 0 -1.70478e-09)
(-1.72226e-09 0 0 9.93696e-19 3.44452e-09 0 0 0 -1.72226e-09)
(-1.73993e-09 0 0 1.00886e-18 3.47986e-09 0 0 0 -1.73993e-09)
(-1.75783e-09 0 0 1.02471e-18 3.51565e-09 0 0 0 -1.75783e-09)
(-1.77598e-09 0 0 1.04122e-18 3.55196e-09 0 0 0 -1.77598e-09)
(-1.79443e-09 0 0 1.05836e-18 3.58886e-09 0 0 0 -1.79443e-09)
(-1.81321e-09 0 0 1.07571e-18 3.62642e-09 0 0 0 -1.81321e-09)
(-1.83236e-09 0 0 1.13476e-18 3.66472e-09 0 0 0 -1.83236e-09)
(-1.85193e-09 0 0 1.19432e-18 3.70386e-09 0 0 0 -1.85193e-09)
(-1.87194e-09 0 0 1.21345e-18 3.74389e-09 0 0 0 -1.87194e-09)
(-1.89244e-09 0 0 1.21274e-18 3.78488e-09 0 0 0 -1.89244e-09)
(-1.91345e-09 0 0 1.21242e-18 3.82691e-09 0 0 0 -1.91345e-09)
(-1.93501e-09 0 0 1.23362e-18 3.87003e-09 0 0 0 -1.93501e-09)
(-1.95713e-09 0 0 1.21401e-18 3.91427e-09 0 0 0 -1.95713e-09)
(-1.97983e-09 0 0 1.15316e-18 3.95965e-09 0 0 0 -1.97983e-09)
(-2.00309e-09 0 0 1.13392e-18 4.00619e-09 0 0 0 -2.00309e-09)
(-2.02692e-09 0 0 1.15572e-18 4.05384e-09 0 0 0 -2.02692e-09)
(-2.05127e-09 0 0 1.17701e-18 4.10255e-09 0 0 0 -2.05127e-09)
(-2.07612e-09 0 0 1.19757e-18 4.15223e-09 0 0 0 -2.07612e-09)
(-2.1014e-09 -2.73338e-23 0 1.25904e-18 4.20281e-09 0 0 0 -2.1014e-09)
(-2.12708e-09 0 0 1.3629e-18 4.25416e-09 0 0 0 -2.12708e-09)
(-2.15308e-09 0 0 1.38218e-18 4.30616e-09 0 0 0 -2.15308e-09)
(-2.17934e-09 0 0 1.40363e-18 4.35868e-09 0 0 0 -2.17934e-09)
(-2.20578e-09 0 0 1.38254e-18 4.41157e-09 0 0 0 -2.20578e-09)
(-2.23234e-09 0 0 1.36125e-18 4.46469e-09 0 0 0 -2.23234e-09)
(-2.25895e-09 0 0 1.38204e-18 4.5179e-09 0 0 0 -2.25895e-09)
(-2.28554e-09 0 0 1.35858e-18 4.57108e-09 0 0 0 -2.28554e-09)
(-2.31208e-09 0 0 1.37635e-18 4.62415e-09 0 0 0 -2.31208e-09)
(-2.33854e-09 0 0 1.43672e-18 4.67707e-09 0 0 0 -2.33854e-09)
(-2.36491e-09 0 0 1.41168e-18 4.72982e-09 0 0 0 -2.36491e-09)
(-2.39121e-09 0 0 1.34457e-18 4.78241e-09 0 0 0 -2.39121e-09)
(-2.41745e-09 0 0 1.31735e-18 4.8349e-09 0 0 0 -2.41745e-09)
(-2.44367e-09 0 0 1.3719e-18 4.88733e-09 0 0 0 -2.44367e-09)
(-2.46988e-09 0 0 1.46764e-18 4.93975e-09 0 0 0 -2.46988e-09)
(-2.49611e-09 0 0 1.47612e-18 4.99221e-09 0 0 0 -2.49611e-09)
(-2.52238e-09 0 0 1.48553e-18 5.04475e-09 0 0 0 -2.52238e-09)
(-2.54868e-09 0 0 1.49352e-18 5.09735e-09 0 0 0 -2.54868e-09)
(-2.57497e-09 0 0 1.4987e-18 5.14995e-09 0 0 0 -2.57497e-09)
(-2.6012e-09 0 0 1.54515e-18 5.2024e-09 0 0 0 -2.6012e-09)
(-2.62725e-09 0 0 1.58998e-18 5.2545e-09 0 0 0 -2.62725e-09)
(-2.653e-09 0 0 1.59033e-18 5.306e-09 0 0 0 -2.653e-09)
(-2.67831e-09 0 0 1.59329e-18 5.35662e-09 0 0 0 -2.67831e-09)
(-2.70308e-09 5.45442e-23 0 1.50832e-18 5.40616e-09 0 0 0 -2.70308e-09)
(-2.72731e-09 0 0 1.42153e-18 5.45461e-09 0 0 0 -2.72731e-09)
(-2.75111e-09 0 0 1.41902e-18 5.50222e-09 0 0 0 -2.75111e-09)
(-2.7748e-09 0 0 1.41163e-18 5.54961e-09 0 0 0 -2.7748e-09)
(-2.79897e-09 0 0 1.4023e-18 5.59793e-09 0 0 0 -2.79897e-09)
(-2.82449e-09 0 0 1.39447e-18 5.64898e-09 0 0 0 -2.82449e-09)
(-2.85258e-09 0 0 1.29417e-18 5.70516e-09 0 0 0 -2.85258e-09)
(-2.88477e-09 0 0 1.27898e-18 5.76954e-09 0 0 0 -2.88477e-09)
(-2.92282e-09 0 0 1.34871e-18 5.84564e-09 0 0 0 -2.92282e-09)
(-2.96861e-09 0 0 1.32592e-18 5.93722e-09 0 0 0 -2.96861e-09)
(-3.02386e-09 0 0 1.30471e-18 6.04772e-09 0 0 0 -3.02386e-09)
(-3.08983e-09 0 0 1.28555e-18 6.17966e-09 0 0 0 -3.08983e-09)
(-3.16699e-09 0 0 1.17671e-18 6.33397e-09 0 0 0 -3.16699e-09)
(-3.25468e-09 0 0 1.06601e-18 6.50935e-09 0 0 0 -3.25468e-09)
(-3.35097e-09 0 0 1.0412e-18 6.70193e-09 0 0 0 -3.35097e-09)
(-3.45284e-09 0 0 1.0106e-18 6.90568e-09 0 0 0 -3.45284e-09)
(-3.55697e-09 0 0 9.78237e-19 7.11394e-09 0 0 0 -3.55697e-09)
(-3.66131e-09 0 0 9.44183e-19 7.32262e-09 0 0 0 -3.66131e-09)
(-3.76761e-09 0 0 9.08512e-19 7.53521e-09 0 0 0 -3.76761e-09)
(-3.88489e-09 0 0 8.71299e-19 7.76979e-09 0 0 0 -3.88489e-09)
(-4.03318e-09 0 0 8.32626e-19 8.06637e-09 0 0 0 -4.03318e-09)
(-4.2452e-09 0 0 7.92581e-19 8.4904e-09 0 0 0 -4.2452e-09)
(-4.56585e-09 0 0 7.51259e-19 9.13171e-09 0 0 0 -4.56585e-09)
(-5.05846e-09 0 0 7.08757e-19 1.01169e-08 0 0 0 -5.05846e-09)
(-5.80011e-09 0 0 6.6518e-19 1.16002e-08 0 0 0 -5.80011e-09)
(-6.7128e-09 0 0 6.20688e-19 1.34256e-08 0 0 0 -6.7128e-09)
(-7.34566e-09 0 0 5.8727e-19 1.46913e-08 0 0 0 -7.34566e-09)
(-8.60086e-09 0 0 3.72036e-19 1.72017e-08 0 0 0 -8.60086e-09)
(-1.64246e-08 0 0 1.5644e-19 3.28492e-08 0 0 0 -1.64246e-08)
(-1.53509e-08 0 0 1.21395e-19 3.07017e-08 0 0 0 -1.53509e-08)
(2.79327e-07 0 0 7.40607e-20 -5.58655e-07 0 0 0 2.79327e-07)
(-6.1541e-06 0 0 2.35624e-20 1.23082e-05 0 0 0 -6.1541e-06)
(-0.000116918 0 0 -4.82575e-19 0.000233837 0 0 0 -0.000116918)
(-1.80437e-05 0 0 -7.74867e-19 3.60874e-05 0 0 0 -1.80437e-05)
(6.32786e-05 0 0 -1.04817e-18 -0.000126557 0 0 0 6.32786e-05)
(2.20698e-05 0 0 -1.06928e-18 -4.41396e-05 0 0 0 2.20698e-05)
(-4.05202e-06 0 0 -1.0871e-18 8.10404e-06 0 0 0 -4.05202e-06)
(-1.90177e-06 0 0 -1.10694e-18 3.80355e-06 0 0 0 -1.90177e-06)
(2.32227e-07 0 0 -1.12871e-18 -4.64455e-07 0 0 0 2.32227e-07)
(1.62632e-07 0 0 -1.15226e-18 -3.25264e-07 0 0 0 1.62632e-07)
(-1.14391e-08 0 0 -1.17742e-18 2.28783e-08 0 0 0 -1.14391e-08)
(-1.33546e-08 0 0 -1.20399e-18 2.67093e-08 0 0 0 -1.33546e-08)
(2.48416e-10 0 0 -1.23172e-18 -4.96832e-10 0 0 0 2.48416e-10)
(1.08905e-09 0 0 -1.26038e-18 -2.17809e-09 0 0 0 1.08905e-09)
(3.19102e-11 0 0 -1.28969e-18 -6.38205e-11 0 0 0 3.19102e-11)
(-8.4779e-11 0 0 -1.3194e-18 1.69558e-10 0 0 0 -8.4779e-11)
(-6.79796e-12 0 0 -1.34923e-18 1.35959e-11 0 0 0 -6.79796e-12)
(6.61874e-12 0 0 -1.37891e-18 -1.32375e-11 0 0 0 6.61874e-12)
(9.46343e-13 0 0 -1.40817e-18 -1.89269e-12 0 0 0 9.46343e-13)
(-4.37227e-13 0 0 -1.43672e-18 8.74454e-13 0 0 0 -4.37227e-13)
(-1.06518e-13 0 0 -1.46431e-18 2.13037e-13 0 0 0 -1.06518e-13)
(-2.50522e-14 0 0 -1.49067e-18 5.01044e-14 0 0 0 -2.50522e-14)
(-7.7242e-14 0 0 -1.51554e-18 1.54484e-13 0 0 0 -7.7242e-14)
(-7.82974e-14 0 0 -1.53868e-18 1.56595e-13 0 0 0 -7.82974e-14)
(-4.26238e-14 0 0 -1.55987e-18 8.52476e-14 0 0 0 -4.26238e-14)
(-1.99084e-14 0 0 -1.5789e-18 3.98168e-14 0 0 0 -1.99084e-14)
(-2.87758e-14 0 0 -1.59557e-18 5.75515e-14 0 0 0 -2.87758e-14)
(-4.91531e-14 0 0 -1.60973e-18 9.83063e-14 0 0 0 -4.91531e-14)
(-8.72328e-14 0 0 -1.62123e-18 1.74466e-13 0 0 0 -8.72328e-14)
(-7.62484e-14 0 0 -1.62996e-18 1.52497e-13 0 0 0 -7.62484e-14)
(-3.27234e-13 0 0 -1.63583e-18 6.54469e-13 0 0 0 -3.27234e-13)
(-2.02548e-12 0 0 -1.63899e-18 4.05096e-12 0 0 0 -2.02548e-12)
)
;

boundaryField
{
    inlet
    {
        type            cyclic;
    }
    outlet
    {
        type            cyclic;
    }
    top
    {
        type            extrapolatedCalculated;
        value           uniform (-3.4309e-12 0 0 -1.63995e-18 6.86181e-12 0 0 0 -3.4309e-12);
    }
    bottom
    {
        type            extrapolatedCalculated;
        value           uniform (-2.35356e-09 0 0 8.49189e-19 4.70711e-09 0 0 0 -2.35356e-09);
    }
    frontAndBackPlanes
    {
        type            empty;
    }
}


// ************************************************************************* //
