/*--------------------------------*- C++ -*----------------------------------*\
| =========                 |                                                 |
| \\      /  F ield         | OpenFOAM: The Open Source CFD Toolbox           |
|  \\    /   O peration     | Version:  v2006                                 |
|   \\  /    A nd           | Website:  www.openfoam.com                      |
|    \\/     M anipulation  |                                                 |
\*---------------------------------------------------------------------------*/
FoamFile
{
    version     2.0;
    format      ascii;
    class       volVectorField;
    location    "1760";
    object      Ua;
}
// * * * * * * * * * * * * * * * * * * * * * * * * * * * * * * * * * * * * * //

dimensions      [0 1 -1 0 0 0 0];


internalField   nonuniform List<vector> 
120
(
(4.24611e-21 -1.4395e-11 0)
(1.2744e-20 -4.33358e-11 0)
(2.12555e-20 -7.26305e-11 0)
(2.96884e-20 -1.02259e-10 0)
(3.81532e-20 -1.3223e-10 0)
(4.66588e-20 -1.62538e-10 0)
(5.52142e-20 -1.93185e-10 0)
(6.36259e-20 -2.24174e-10 0)
(7.21051e-20 -2.55505e-10 0)
(8.08632e-20 -2.87182e-10 0)
(8.97063e-20 -3.19207e-10 0)
(9.86429e-20 -3.51581e-10 0)
(1.07884e-19 -3.84308e-10 0)
(1.17235e-19 -4.17389e-10 0)
(1.26705e-19 -4.50828e-10 0)
(1.36301e-19 -4.84628e-10 0)
(1.46031e-19 -5.18792e-10 0)
(1.55902e-19 -5.53324e-10 0)
(1.65923e-19 -5.8823e-10 0)
(1.76099e-19 -6.23513e-10 0)
(1.86438e-19 -6.5918e-10 0)
(1.96946e-19 -6.95236e-10 0)
(2.0763e-19 -7.31689e-10 0)
(2.18494e-19 -7.68547e-10 0)
(2.30354e-19 -8.05818e-10 0)
(2.42405e-19 -8.43512e-10 0)
(2.54652e-19 -8.81639e-10 0)
(2.66695e-19 -9.20211e-10 0)
(2.78942e-19 -9.59239e-10 0)
(2.91396e-19 -9.98736e-10 0)
(3.03251e-19 -1.03872e-09 0)
(3.14509e-19 -1.07919e-09 0)
(3.25981e-19 -1.12017e-09 0)
(3.37667e-19 -1.16167e-09 0)
(3.49567e-19 -1.2037e-09 0)
(3.61681e-19 -1.24628e-09 0)
(3.74816e-19 -1.2894e-09 0)
(3.88969e-19 -1.33309e-09 0)
(4.02522e-19 -1.37735e-09 0)
(4.17089e-19 -1.42219e-09 0)
(4.30241e-19 -1.46761e-09 0)
(4.44397e-19 -1.51361e-09 0)
(4.57936e-19 -1.5602e-09 0)
(4.71659e-19 -1.60737e-09 0)
(4.85558e-19 -1.65514e-09 0)
(5.00433e-19 -1.70349e-09 0)
(5.13855e-19 -1.75244e-09 0)
(5.27426e-19 -1.80197e-09 0)
(5.4033e-19 -1.85211e-09 0)
(5.54974e-19 -1.90283e-09 0)
(5.69735e-19 -1.95416e-09 0)
(5.84598e-19 -2.00609e-09 0)
(5.9955e-19 -2.05863e-09 0)
(6.14577e-19 -2.11179e-09 0)
(6.29664e-19 -2.16556e-09 0)
(6.45599e-19 -2.21995e-09 0)
(6.61563e-19 -2.27497e-09 0)
(6.77536e-19 -2.3306e-09 0)
(6.93503e-19 -2.38685e-09 0)
(7.07834e-19 -2.4437e-09 0)
(7.22122e-19 -2.50116e-09 0)
(7.36346e-19 -2.55922e-09 0)
(7.50489e-19 -2.61789e-09 0)
(7.6453e-19 -2.67719e-09 0)
(7.78449e-19 -2.73717e-09 0)
(7.90621e-19 -2.7979e-09 0)
(8.04237e-19 -2.85949e-09 0)
(8.17673e-19 -2.9221e-09 0)
(8.30908e-19 -2.98593e-09 0)
(8.43921e-19 -3.05119e-09 0)
(8.56695e-19 -3.11817e-09 0)
(8.67604e-19 -3.18712e-09 0)
(8.78235e-19 -3.25828e-09 0)
(8.8857e-19 -3.33187e-09 0)
(8.98589e-19 -3.40799e-09 0)
(9.08276e-19 -3.48671e-09 0)
(9.17614e-19 -3.56803e-09 0)
(9.26588e-19 -3.65203e-09 0)
(9.35181e-19 -3.73906e-09 0)
(9.4338e-19 -3.82997e-09 0)
(9.51172e-19 -3.92658e-09 0)
(9.58543e-19 -4.03198e-09 0)
(9.65483e-19 -4.15006e-09 0)
(9.71981e-19 -4.28477e-09 0)
(9.78027e-19 -4.44774e-09 0)
(9.83614e-19 -4.66846e-09 0)
(9.85557e-19 -4.89381e-09 0)
(9.87027e-19 -4.78978e-09 0)
(9.88019e-19 -4.8704e-09 0)
(9.88531e-19 -9.65006e-09 0)
(9.88728e-19 -2.4413e-08 0)
(9.76272e-19 -6.12003e-05 0)
(9.50417e-19 -0.000135659 0)
(9.23853e-19 -0.000199817 0)
(8.96886e-19 -0.000228695 0)
(8.69471e-19 -0.000228507 0)
(8.41531e-19 -0.000228521 0)
(8.13027e-19 -0.000228548 0)
(7.83912e-19 -0.000228548 0)
(7.54149e-19 -0.000228546 0)
(7.23705e-19 -0.000228546 0)
(6.92554e-19 -0.000228546 0)
(6.60679e-19 -0.000228546 0)
(6.28061e-19 -0.000228546 0)
(5.94701e-19 -0.000228546 0)
(5.60591e-19 -0.000228546 0)
(5.25747e-19 -0.000228546 0)
(4.90173e-19 -0.000228546 0)
(4.53902e-19 -0.000228546 0)
(4.16949e-19 -0.000228546 0)
(3.79356e-19 -0.000228546 0)
(3.41161e-19 -0.000228546 0)
(3.02415e-19 -0.000228546 0)
(2.63159e-19 -0.000228546 0)
(2.23458e-19 -0.000228546 0)
(1.83371e-19 -0.000228546 0)
(1.42962e-19 -0.000228546 0)
(1.02299e-19 -0.000228518 0)
(6.14534e-20 -0.000228481 0)
(2.04996e-20 -0.000228045 0)
)
;

boundaryField
{
    inlet
    {
        type            cyclic;
    }
    outlet
    {
        type            cyclic;
    }
    top
    {
        type            fixedValue;
        value           uniform (0 0 0);
    }
    bottom
    {
        type            fixedValue;
        value           uniform (0 0 0);
    }
    frontAndBackPlanes
    {
        type            empty;
    }
}


// ************************************************************************* //
