/*--------------------------------*- C++ -*----------------------------------*\
| =========                 |                                                 |
| \\      /  F ield         | OpenFOAM: The Open Source CFD Toolbox           |
|  \\    /   O peration     | Version:  v2006                                 |
|   \\  /    A nd           | Website:  www.openfoam.com                      |
|    \\/     M anipulation  |                                                 |
\*---------------------------------------------------------------------------*/
FoamFile
{
    version     2.0;
    format      ascii;
    class       volVectorField;
    location    "1760";
    object      Ub;
}
// * * * * * * * * * * * * * * * * * * * * * * * * * * * * * * * * * * * * * //

dimensions      [0 1 -1 0 0 0 0];


internalField   nonuniform List<vector> 
120
(
(4.24611e-21 3.53047e-11 0)
(1.2744e-20 6.72253e-11 0)
(2.12552e-20 9.74524e-11 0)
(2.96884e-20 1.50136e-10 0)
(3.81532e-20 1.9847e-10 0)
(4.66588e-20 2.43857e-10 0)
(5.5214e-20 2.89737e-10 0)
(6.36259e-20 3.36112e-10 0)
(7.21051e-20 3.82981e-10 0)
(8.08632e-20 4.30347e-10 0)
(8.97063e-20 4.78212e-10 0)
(9.86425e-20 5.26579e-10 0)
(1.07884e-19 5.7545e-10 0)
(1.17235e-19 6.24828e-10 0)
(1.26705e-19 6.74718e-10 0)
(1.36301e-19 7.25123e-10 0)
(1.46031e-19 7.76048e-10 0)
(1.55902e-19 8.27497e-10 0)
(1.65923e-19 8.79477e-10 0)
(1.76099e-19 9.31994e-10 0)
(1.86438e-19 9.85055e-10 0)
(1.96946e-19 1.03867e-09 0)
(2.07629e-19 1.09284e-09 0)
(2.18486e-19 1.14759e-09 0)
(2.30353e-19 1.20292e-09 0)
(2.42405e-19 1.25886e-09 0)
(2.54656e-19 1.3154e-09 0)
(2.66695e-19 1.37257e-09 0)
(2.78942e-19 1.43038e-09 0)
(2.91406e-19 1.48885e-09 0)
(3.03262e-19 1.548e-09 0)
(3.1451e-19 1.60785e-09 0)
(3.25981e-19 1.6684e-09 0)
(3.37667e-19 1.72969e-09 0)
(3.49567e-19 1.79172e-09 0)
(3.61667e-19 1.85451e-09 0)
(3.74801e-19 1.91807e-09 0)
(3.88984e-19 1.98241e-09 0)
(4.02506e-19 2.04754e-09 0)
(4.17122e-19 2.11347e-09 0)
(4.30224e-19 2.18021e-09 0)
(4.44415e-19 2.24775e-09 0)
(4.57936e-19 2.31609e-09 0)
(4.71659e-19 2.38525e-09 0)
(4.85539e-19 2.4552e-09 0)
(5.00475e-19 2.52596e-09 0)
(5.13855e-19 2.59751e-09 0)
(5.27448e-19 2.66986e-09 0)
(5.40284e-19 2.74301e-09 0)
(5.54974e-19 2.81696e-09 0)
(5.69735e-19 2.8917e-09 0)
(5.84598e-19 2.96724e-09 0)
(5.9955e-19 3.04357e-09 0)
(6.14577e-19 3.12071e-09 0)
(6.29636e-19 3.19865e-09 0)
(6.45599e-19 3.27739e-09 0)
(6.61563e-19 3.35691e-09 0)
(6.77536e-19 3.43722e-09 0)
(6.93563e-19 3.51829e-09 0)
(7.07834e-19 3.60011e-09 0)
(7.22122e-19 3.68267e-09 0)
(7.36346e-19 3.76594e-09 0)
(7.50489e-19 3.84995e-09 0)
(7.6453e-19 3.93471e-09 0)
(7.7852e-19 4.02028e-09 0)
(7.90549e-19 4.10676e-09 0)
(8.04237e-19 4.1943e-09 0)
(8.17673e-19 4.2831e-09 0)
(8.30908e-19 4.37343e-09 0)
(8.43922e-19 4.46561e-09 0)
(8.56776e-19 4.55996e-09 0)
(8.67605e-19 4.65683e-09 0)
(8.78235e-19 4.75651e-09 0)
(8.88569e-19 4.85924e-09 0)
(8.98589e-19 4.96513e-09 0)
(9.08276e-19 5.07421e-09 0)
(9.17614e-19 5.18646e-09 0)
(9.26588e-19 5.30202e-09 0)
(9.35181e-19 5.42144e-09 0)
(9.4338e-19 5.54605e-09 0)
(9.51172e-19 5.67839e-09 0)
(9.58543e-19 5.82252e-09 0)
(9.65483e-19 5.98481e-09 0)
(9.71981e-19 6.17402e-09 0)
(9.78028e-19 6.39184e-09 0)
(9.83858e-19 6.6197e-09 0)
(9.85558e-19 6.91405e-09 0)
(9.87027e-19 7.61778e-09 0)
(9.88019e-19 7.84789e-09 0)
(9.88531e-19 -9.40051e-09 0)
(9.88499e-19 3.83786e-07 0)
(9.76248e-19 8.91801e-06 0)
(9.5036e-19 3.04813e-06 0)
(9.23835e-19 -5.74716e-07 0)
(8.96889e-19 -2.62756e-07 0)
(8.69473e-19 3.31633e-08 0)
(8.41535e-19 2.25458e-08 0)
(8.1303e-19 -1.67514e-09 0)
(7.83915e-19 -1.85207e-09 0)
(7.54152e-19 4.09472e-11 0)
(7.23708e-19 1.51374e-10 0)
(6.92558e-19 3.68015e-12 0)
(6.60681e-19 -1.20036e-11 0)
(6.28065e-19 -1.10698e-12 0)
(5.94703e-19 7.14855e-13 0)
(5.60595e-19 -8.71625e-14 0)
(5.25749e-19 -2.78081e-13 0)
(4.90178e-19 -2.29132e-13 0)
(4.53904e-19 -2.12489e-13 0)
(4.16953e-19 -2.13152e-13 0)
(3.79361e-19 -2.0873e-13 0)
(3.41167e-19 -2.01564e-13 0)
(3.02417e-19 -1.96984e-13 0)
(2.63164e-19 -1.9517e-13 0)
(2.23463e-19 -1.93998e-13 0)
(1.83375e-19 -1.90853e-13 0)
(1.42966e-19 -1.86624e-13 0)
(1.02303e-19 -1.77766e-13 0)
(6.14579e-20 -1.75185e-13 0)
(2.05019e-20 -1.28675e-13 0)
)
;

boundaryField
{
    inlet
    {
        type            cyclic;
    }
    outlet
    {
        type            cyclic;
    }
    top
    {
        type            fixedValue;
        value           uniform (0 0 0);
    }
    bottom
    {
        type            fixedValue;
        value           uniform (0 0 0);
    }
    frontAndBackPlanes
    {
        type            empty;
    }
}


// ************************************************************************* //
