/*--------------------------------*- C++ -*----------------------------------*\
| =========                 |                                                 |
| \\      /  F ield         | OpenFOAM: The Open Source CFD Toolbox           |
|  \\    /   O peration     | Version:  2206                                  |
|   \\  /    A nd           | Website:  www.openfoam.com                      |
|    \\/     M anipulation  |                                                 |
\*---------------------------------------------------------------------------*/
FoamFile
{
    version     2.0;
    format      ascii;
    arch        "LSB;label=32;scalar=64";
    class       volScalarField;
    location    "260";
    object      p_rbgh;
}
// * * * * * * * * * * * * * * * * * * * * * * * * * * * * * * * * * * * * * //

dimensions      [1 -1 -2 0 0 0 0];

internalField   nonuniform List<scalar> 
120
(
21.7171
21.7154
21.7119
21.7065
21.6989
21.6892
21.6769
21.662
21.6442
21.6232
21.5986
21.5703
21.5376
21.4998
21.4563
21.4069
21.3529
21.292
21.1288
20.9079
20.6554
20.4076
20.1615
19.9159
19.6705
19.4252
19.18
18.9347
18.6895
18.4442
18.199
17.9537
17.7085
17.4632
17.218
16.9727
16.7275
16.4822
16.237
15.9917
15.7465
15.5012
15.256
15.0107
14.7655
14.5202
14.275
14.0297
13.7845
13.5392
13.294
13.0487
12.8035
12.5582
12.313
12.0677
11.8225
11.5772
11.332
11.0867
10.8415
10.5962
10.351
10.1057
9.86048
9.61523
9.36998
9.12473
8.87948
8.63423
8.38898
8.14373
7.89848
7.65323
7.40798
7.16273
6.91748
6.67223
6.42698
6.18173
5.93648
5.69123
5.44598
5.20073
4.95548
4.71023
4.46498
4.21973
3.97448
3.72923
3.48398
3.23873
2.99348
2.74823
2.50298
2.25773
2.01248
1.76723
1.52198
1.2767
1.03147
0.786768
0.541028
0.282122
0.0507634
0.0048702
-0.00274175
-0.00070868
0.000111694
6.75372e-05
4.22863e-07
-5.00749e-06
-6.92314e-07
2.81891e-07
8.72038e-08
-1.16688e-08
-8.39497e-09
1.34226e-10
9.19331e-10
-4.93683e-10
)
;

boundaryField
{
    inlet
    {
        type            cyclic;
    }
    outlet
    {
        type            cyclic;
    }
    top
    {
        type            fixedValue;
        value           uniform 0;
    }
    bottom
    {
        type            fixedFluxPressure;
        gradient        uniform 0;
        value           uniform 21.7171;
    }
    frontAndBackPlanes
    {
        type            empty;
    }
}


// ************************************************************************* //
