/*--------------------------------*- C++ -*----------------------------------*\
| =========                 |                                                 |
| \\      /  F ield         | OpenFOAM: The Open Source CFD Toolbox           |
|  \\    /   O peration     | Version:  2206                                  |
|   \\  /    A nd           | Website:  www.openfoam.com                      |
|    \\/     M anipulation  |                                                 |
\*---------------------------------------------------------------------------*/
FoamFile
{
    version     2.0;
    format      ascii;
    arch        "LSB;label=32;scalar=64";
    class       surfaceScalarField;
    location    "260";
    object      phi.a;
}
// * * * * * * * * * * * * * * * * * * * * * * * * * * * * * * * * * * * * * //

dimensions      [0 3 -1 0 0 0 0];

oriented        oriented;

internalField   nonuniform List<scalar> 
119
(
-4.62854e-15
-9.81172e-15
-1.51441e-14
-2.1141e-14
-2.75613e-14
-3.4659e-14
-4.25242e-14
-5.10855e-14
-6.07593e-14
-7.12259e-14
-8.31388e-14
-9.67622e-14
-1.13297e-13
-1.32385e-13
-1.53108e-13
-1.70921e-13
-1.9305e-13
-6.97584e-13
-1.41297e-12
-2.01376e-12
-2.19655e-12
-2.27447e-12
-2.30485e-12
-2.31645e-12
-2.32083e-12
-2.32244e-12
-2.32301e-12
-2.3232e-12
-2.32327e-12
-2.3233e-12
-2.32331e-12
-2.32331e-12
-2.32331e-12
-2.32331e-12
-2.32331e-12
-2.32331e-12
-2.32331e-12
-2.32331e-12
-2.32331e-12
-2.32331e-12
-2.32331e-12
-2.32331e-12
-2.32331e-12
-2.32331e-12
-2.32331e-12
-2.32331e-12
-2.32331e-12
-2.32331e-12
-2.32331e-12
-2.32331e-12
-2.32331e-12
-2.32331e-12
-2.32331e-12
-2.32331e-12
-2.32331e-12
-2.32331e-12
-2.32331e-12
-2.32331e-12
-2.32331e-12
-2.32331e-12
-2.32331e-12
-2.32331e-12
-2.32331e-12
-2.32331e-12
-2.32331e-12
-2.32331e-12
-2.32331e-12
-2.32331e-12
-2.32331e-12
-2.32331e-12
-2.32331e-12
-2.32331e-12
-2.32331e-12
-2.32331e-12
-2.32331e-12
-2.32331e-12
-2.32331e-12
-2.32331e-12
-2.32331e-12
-2.32331e-12
-2.32331e-12
-2.32331e-12
-2.32331e-12
-2.32331e-12
-2.32331e-12
-2.32331e-12
-2.32331e-12
-2.32331e-12
-2.32331e-12
-2.32331e-12
-2.32331e-12
-2.32331e-12
-2.32331e-12
-2.32331e-12
-2.32331e-12
-2.32331e-12
-2.32331e-12
-2.32339e-12
-2.32359e-12
-2.32178e-12
-2.32073e-12
-2.33423e-12
-2.31047e-12
-4.31971e-12
-3.67036e-11
-3.60515e-11
-4.73996e-11
-9.14339e-11
-7.99516e-11
-7.94097e-11
-8.05894e-11
-8.15384e-11
-8.20927e-11
-8.22868e-11
-8.23296e-11
-8.23352e-11
-8.23352e-11
-8.23324e-11
-8.20605e-11
)
;

boundaryField
{
    inlet
    {
        type            cyclic;
        value           nonuniform List<scalar> 
120
(
4.58756e-28
1.37361e-27
2.2824e-27
3.18187e-27
4.0683e-27
4.93907e-27
5.79227e-27
6.62928e-27
7.44594e-27
8.2358e-27
8.99779e-27
9.72232e-27
1.03875e-26
1.09783e-26
1.14713e-26
1.18501e-26
1.21246e-26
1.26189e-26
1.95245e-25
4.00433e-25
4.70082e-25
6.32835e-25
1.10105e-24
2.26738e-24
-5.13157e-26
-1.58438e-24
-2.86424e-24
-2.96649e-24
-3.22843e-24
-3.52927e-24
-3.30504e-24
-2.6006e-24
-1.96839e-24
-1.39486e-24
-8.71212e-25
-3.94105e-25
-5.38392e-25
-1.30029e-24
-1.52656e-24
-2.36201e-24
-2.08195e-24
-2.40914e-24
-2.19479e-24
-2.01186e-24
-1.86334e-24
-2.32029e-24
-1.65426e-24
-1.0126e-24
1.72858e-25
1.74274e-25
1.40966e-25
7.59959e-26
-2.19529e-26
-1.54689e-25
-3.26422e-25
-1.11566e-24
-1.94946e-24
-2.82901e-24
-3.75386e-24
-3.57566e-24
-3.44973e-24
-3.38377e-24
-3.38137e-24
-3.44592e-24
-3.57674e-24
-2.62912e-24
-2.90965e-24
-3.27331e-24
-3.71885e-24
-4.24882e-24
-4.86181e-24
-4.4086e-24
-4.0436e-24
-3.77346e-24
-3.60095e-24
-3.52883e-24
-3.5599e-24
-3.69692e-24
-3.94256e-24
-4.29929e-24
-4.7693e-24
-5.35437e-24
-6.05582e-24
-6.87435e-24
-7.80997e-24
-8.85408e-24
-7.70175e-24
-6.65463e-24
-5.7182e-24
-4.88964e-24
-4.16584e-24
-3.54366e-24
-3.01999e-24
-2.59168e-24
-2.25322e-24
-1.99072e-24
-1.70051e-24
-1.18603e-24
-7.40638e-25
-4.37233e-25
-2.39677e-25
-1.2209e-25
-5.86885e-26
-2.84063e-26
-1.74209e-26
-1.59146e-26
-1.34266e-26
-9.43927e-27
-5.60778e-27
-3.89988e-27
-2.71385e-27
-1.51258e-27
-5.33998e-28
-1.36482e-28
-3.81155e-29
-2.27893e-29
-2.24491e-29
-2.23898e-29
-2.24732e-29
-2.56185e-29
)
;
    }
    outlet
    {
        type            cyclic;
        value           nonuniform List<scalar> 
120
(
-4.58756e-28
-1.37361e-27
-2.2824e-27
-3.18187e-27
-4.0683e-27
-4.93907e-27
-5.79227e-27
-6.62928e-27
-7.44594e-27
-8.2358e-27
-8.99779e-27
-9.72232e-27
-1.03875e-26
-1.09783e-26
-1.14713e-26
-1.18501e-26
-1.21246e-26
-1.26189e-26
-1.95245e-25
-4.00433e-25
-4.70082e-25
-6.32835e-25
-1.10105e-24
-2.26738e-24
5.13157e-26
1.58438e-24
2.86424e-24
2.96649e-24
3.22843e-24
3.52927e-24
3.30504e-24
2.6006e-24
1.96839e-24
1.39486e-24
8.71212e-25
3.94105e-25
5.38392e-25
1.30029e-24
1.52656e-24
2.36201e-24
2.08195e-24
2.40914e-24
2.19479e-24
2.01186e-24
1.86334e-24
2.32029e-24
1.65426e-24
1.0126e-24
-1.72858e-25
-1.74274e-25
-1.40966e-25
-7.59959e-26
2.19529e-26
1.54689e-25
3.26422e-25
1.11566e-24
1.94946e-24
2.82901e-24
3.75386e-24
3.57566e-24
3.44973e-24
3.38377e-24
3.38137e-24
3.44592e-24
3.57674e-24
2.62912e-24
2.90965e-24
3.27331e-24
3.71885e-24
4.24882e-24
4.86181e-24
4.4086e-24
4.0436e-24
3.77346e-24
3.60095e-24
3.52883e-24
3.5599e-24
3.69692e-24
3.94256e-24
4.29929e-24
4.7693e-24
5.35437e-24
6.05582e-24
6.87435e-24
7.80997e-24
8.85408e-24
7.70175e-24
6.65463e-24
5.7182e-24
4.88964e-24
4.16584e-24
3.54366e-24
3.01999e-24
2.59168e-24
2.25322e-24
1.99072e-24
1.70051e-24
1.18603e-24
7.40638e-25
4.37233e-25
2.39677e-25
1.2209e-25
5.86885e-26
2.84063e-26
1.74209e-26
1.59146e-26
1.34266e-26
9.43927e-27
5.60778e-27
3.89988e-27
2.71385e-27
1.51258e-27
5.33998e-28
1.36482e-28
3.81155e-29
2.27893e-29
2.24491e-29
2.23898e-29
2.24732e-29
2.56185e-29
)
;
    }
    top
    {
        type            fixedValue;
        value           uniform 0;
    }
    bottom
    {
        type            fixedValue;
        value           uniform 0;
    }
    frontAndBackPlanes
    {
        type            empty;
        value           nonuniform List<scalar> 0();
    }
}


// ************************************************************************* //
