/*--------------------------------*- C++ -*----------------------------------*\
| =========                 |                                                 |
| \\      /  F ield         | OpenFOAM: The Open Source CFD Toolbox           |
|  \\    /   O peration     | Version:  2206                                  |
|   \\  /    A nd           | Website:  www.openfoam.com                      |
|    \\/     M anipulation  |                                                 |
\*---------------------------------------------------------------------------*/
FoamFile
{
    version     2.0;
    format      ascii;
    arch        "LSB;label=32;scalar=64";
    class       surfaceScalarField;
    location    "260";
    object      phi.b;
}
// * * * * * * * * * * * * * * * * * * * * * * * * * * * * * * * * * * * * * //

dimensions      [0 3 -1 0 0 0 0];

oriented        oriented;

internalField   nonuniform List<scalar> 
119
(
6.73974e-15
1.42723e-14
2.20036e-14
3.06779e-14
3.99426e-14
5.01536e-14
6.14431e-14
7.36832e-14
8.74767e-14
1.02324e-13
1.19154e-13
1.38268e-13
1.61319e-13
1.87658e-13
2.15856e-13
2.39722e-13
2.69169e-13
8.94713e-13
1.59824e-12
2.12567e-12
2.24522e-12
2.29391e-12
2.31222e-12
2.31919e-12
2.32182e-12
2.32278e-12
2.32313e-12
2.32325e-12
2.32329e-12
2.3233e-12
2.32331e-12
2.32331e-12
2.32331e-12
2.32331e-12
2.32331e-12
2.32331e-12
2.32331e-12
2.32331e-12
2.32331e-12
2.32331e-12
2.32331e-12
2.32331e-12
2.32331e-12
2.32331e-12
2.32331e-12
2.32331e-12
2.32331e-12
2.32331e-12
2.32331e-12
2.32331e-12
2.32331e-12
2.32331e-12
2.32331e-12
2.32331e-12
2.32331e-12
2.32331e-12
2.32331e-12
2.32331e-12
2.32331e-12
2.32331e-12
2.32331e-12
2.32331e-12
2.32331e-12
2.32331e-12
2.32331e-12
2.32331e-12
2.32331e-12
2.32331e-12
2.32331e-12
2.32331e-12
2.32331e-12
2.32331e-12
2.32331e-12
2.32331e-12
2.32331e-12
2.32331e-12
2.32331e-12
2.32331e-12
2.32331e-12
2.32331e-12
2.32331e-12
2.32331e-12
2.32331e-12
2.32331e-12
2.32331e-12
2.32331e-12
2.32331e-12
2.32331e-12
2.32331e-12
2.32331e-12
2.32331e-12
2.32331e-12
2.32331e-12
2.32331e-12
2.32331e-12
2.32331e-12
2.32331e-12
2.32334e-12
2.32335e-12
2.32261e-12
2.32438e-12
2.32674e-12
2.25548e-12
3.29324e-12
8.50314e-12
2.0827e-14
1.03966e-16
-2.84501e-18
3.88114e-19
7.04133e-18
9.19606e-18
7.89037e-18
4.3158e-18
-2.11581e-18
-1.61325e-18
-4.98939e-18
-2.82104e-18
-1.21043e-18
6.66452e-19
)
;

boundaryField
{
    inlet
    {
        type            cyclic;
        value           nonuniform List<scalar> 
120
(
4.58754e-28
1.37353e-27
2.26418e-27
3.18178e-27
4.06829e-27
4.93855e-27
5.67979e-27
6.62952e-27
7.60879e-27
8.23657e-27
8.99903e-27
9.98397e-27
1.03887e-26
1.09783e-26
1.14713e-26
1.18502e-26
1.21313e-26
1.36662e-26
1.99336e-25
4.00429e-25
4.70085e-25
6.32839e-25
1.10099e-24
2.24683e-24
-5.03359e-26
-1.58247e-24
-2.85857e-24
-2.96512e-24
-3.22715e-24
-3.5452e-24
-3.32181e-24
-2.60076e-24
-1.96839e-24
-1.39485e-24
-8.71072e-25
-3.77364e-25
-5.21788e-25
-1.31662e-24
-1.51036e-24
-2.39495e-24
-2.06575e-24
-2.42561e-24
-2.19492e-24
-2.01173e-24
-1.84701e-24
-2.35336e-24
-1.65466e-24
-1.02894e-24
2.05932e-25
1.74545e-25
1.40969e-25
7.59969e-26
-2.19508e-26
-1.54552e-25
-3.09816e-25
-1.11552e-24
-1.94946e-24
-2.82928e-24
-3.78707e-24
-3.57593e-24
-3.44973e-24
-3.38377e-24
-3.38137e-24
-3.44619e-24
-3.60967e-24
-2.59618e-24
-2.90938e-24
-3.2733e-24
-3.71885e-24
-4.24909e-24
-4.89502e-24
-4.40887e-24
-4.0436e-24
-3.77346e-24
-3.60094e-24
-3.52882e-24
-3.55989e-24
-3.69692e-24
-3.94256e-24
-4.29929e-24
-4.7693e-24
-5.35437e-24
-6.05581e-24
-6.87435e-24
-7.81051e-24
-8.92049e-24
-7.70229e-24
-6.65463e-24
-5.7182e-24
-4.88963e-24
-4.16583e-24
-3.54366e-24
-3.01999e-24
-2.59166e-24
-2.25309e-24
-1.98951e-24
-1.69648e-24
-1.18438e-24
-7.40344e-25
-4.37176e-25
-2.39676e-25
-1.22091e-25
-5.86898e-26
-2.8407e-26
-1.74218e-26
-1.59175e-26
-1.34632e-26
-1.13897e-26
-9.6346e-27
-8.14186e-27
-6.86444e-27
-5.76308e-27
-4.80504e-27
-3.96292e-27
-3.21372e-27
-2.53791e-27
-1.91874e-27
-1.34158e-27
-7.93353e-28
-2.62061e-28
)
;
    }
    outlet
    {
        type            cyclic;
        value           nonuniform List<scalar> 
120
(
-4.58754e-28
-1.37353e-27
-2.26418e-27
-3.18178e-27
-4.06829e-27
-4.93855e-27
-5.67979e-27
-6.62952e-27
-7.60879e-27
-8.23657e-27
-8.99903e-27
-9.98397e-27
-1.03887e-26
-1.09783e-26
-1.14713e-26
-1.18502e-26
-1.21313e-26
-1.36662e-26
-1.99336e-25
-4.00429e-25
-4.70085e-25
-6.32839e-25
-1.10099e-24
-2.24683e-24
5.03359e-26
1.58247e-24
2.85857e-24
2.96512e-24
3.22715e-24
3.5452e-24
3.32181e-24
2.60076e-24
1.96839e-24
1.39485e-24
8.71072e-25
3.77364e-25
5.21788e-25
1.31662e-24
1.51036e-24
2.39495e-24
2.06575e-24
2.42561e-24
2.19492e-24
2.01173e-24
1.84701e-24
2.35336e-24
1.65466e-24
1.02894e-24
-2.05932e-25
-1.74545e-25
-1.40969e-25
-7.59969e-26
2.19508e-26
1.54552e-25
3.09816e-25
1.11552e-24
1.94946e-24
2.82928e-24
3.78707e-24
3.57593e-24
3.44973e-24
3.38377e-24
3.38137e-24
3.44619e-24
3.60967e-24
2.59618e-24
2.90938e-24
3.2733e-24
3.71885e-24
4.24909e-24
4.89502e-24
4.40887e-24
4.0436e-24
3.77346e-24
3.60094e-24
3.52882e-24
3.55989e-24
3.69692e-24
3.94256e-24
4.29929e-24
4.7693e-24
5.35437e-24
6.05581e-24
6.87435e-24
7.81051e-24
8.92049e-24
7.70229e-24
6.65463e-24
5.7182e-24
4.88963e-24
4.16583e-24
3.54366e-24
3.01999e-24
2.59166e-24
2.25309e-24
1.98951e-24
1.69648e-24
1.18438e-24
7.40344e-25
4.37176e-25
2.39676e-25
1.22091e-25
5.86898e-26
2.8407e-26
1.74218e-26
1.59175e-26
1.34632e-26
1.13897e-26
9.6346e-27
8.14186e-27
6.86444e-27
5.76308e-27
4.80504e-27
3.96292e-27
3.21372e-27
2.53791e-27
1.91874e-27
1.34158e-27
7.93353e-28
2.62061e-28
)
;
    }
    top
    {
        type            fixedValue;
        value           uniform 0;
    }
    bottom
    {
        type            fixedValue;
        value           uniform 0;
    }
    frontAndBackPlanes
    {
        type            empty;
        value           nonuniform List<scalar> 0();
    }
}


// ************************************************************************* //
