/*--------------------------------*- C++ -*----------------------------------*\
| =========                 |                                                 |
| \\      /  F ield         | OpenFOAM: The Open Source CFD Toolbox           |
|  \\    /   O peration     | Version:  2206                                  |
|   \\  /    A nd           | Website:  www.openfoam.com                      |
|    \\/     M anipulation  |                                                 |
\*---------------------------------------------------------------------------*/
FoamFile
{
    version     2.0;
    format      ascii;
    arch        "LSB;label=32;scalar=64";
    class       volVectorField;
    location    "260";
    object      U.a;
}
// * * * * * * * * * * * * * * * * * * * * * * * * * * * * * * * * * * * * * //

dimensions      [0 1 -1 0 0 0 0];

internalField   nonuniform List<vector> 
120
(
(-1.52919e-21 8.73992e-09 0)
(-4.5787e-21 -1.86371e-08 0)
(-7.608e-21 -3.58697e-08 0)
(-1.06062e-20 -4.82488e-08 0)
(-1.3561e-20 -6.91923e-08 0)
(-1.64636e-20 -8.39112e-08 0)
(-1.93076e-20 -1.08622e-07 0)
(-2.20976e-20 -1.2761e-07 0)
(-2.48198e-20 -1.56174e-07 0)
(-2.74527e-20 -1.81363e-07 0)
(-2.99926e-20 -2.14306e-07 0)
(-3.24077e-20 -2.47544e-07 0)
(-3.4625e-20 -2.89967e-07 0)
(-3.65944e-20 -3.39425e-07 0)
(-3.82377e-20 -3.9604e-07 0)
(-3.95005e-20 -4.54652e-07 0)
(-4.04153e-20 -4.94678e-07 0)
(-4.20628e-20 -5.26165e-07 0)
(-6.50818e-19 -1.30767e-05 0)
(-1.33478e-18 -8.72668e-06 0)
(-1.56694e-18 -3.72e-06 0)
(-2.10945e-18 -5.56527e-06 0)
(-3.67017e-18 -6.17544e-06 0)
(-7.55795e-18 -6.34708e-06 0)
(1.71052e-19 -6.41307e-06 0)
(5.28128e-18 -6.43974e-06 0)
(9.54746e-18 -6.44944e-06 0)
(9.88829e-18 -6.45252e-06 0)
(1.07614e-17 -6.45333e-06 0)
(1.17642e-17 -6.45355e-06 0)
(1.10168e-17 -6.45361e-06 0)
(8.66867e-18 -6.45363e-06 0)
(6.56131e-18 -6.45364e-06 0)
(4.64952e-18 -6.45364e-06 0)
(2.90404e-18 -6.45364e-06 0)
(1.31368e-18 -6.45364e-06 0)
(1.79464e-18 -6.45364e-06 0)
(4.3343e-18 -6.45364e-06 0)
(5.08854e-18 -6.45364e-06 0)
(7.87338e-18 -6.45364e-06 0)
(6.93982e-18 -6.45364e-06 0)
(8.03047e-18 -6.45364e-06 0)
(7.31597e-18 -6.45364e-06 0)
(6.7062e-18 -6.45364e-06 0)
(6.21113e-18 -6.45364e-06 0)
(7.73429e-18 -6.45364e-06 0)
(5.5142e-18 -6.45364e-06 0)
(3.37534e-18 -6.45364e-06 0)
(-5.76194e-19 -6.45364e-06 0)
(-5.80913e-19 -6.45364e-06 0)
(-4.69886e-19 -6.45364e-06 0)
(-2.5332e-19 -6.45364e-06 0)
(7.31764e-20 -6.45364e-06 0)
(5.15629e-19 -6.45364e-06 0)
(1.08807e-18 -6.45364e-06 0)
(3.71887e-18 -6.45364e-06 0)
(6.49819e-18 -6.45364e-06 0)
(9.43003e-18 -6.45364e-06 0)
(1.25129e-17 -6.45364e-06 0)
(1.19189e-17 -6.45364e-06 0)
(1.14991e-17 -6.45364e-06 0)
(1.12792e-17 -6.45364e-06 0)
(1.12712e-17 -6.45364e-06 0)
(1.14864e-17 -6.45364e-06 0)
(1.19225e-17 -6.45364e-06 0)
(8.76374e-18 -6.45364e-06 0)
(9.69883e-18 -6.45364e-06 0)
(1.0911e-17 -6.45364e-06 0)
(1.23962e-17 -6.45364e-06 0)
(1.41627e-17 -6.45364e-06 0)
(1.6206e-17 -6.45365e-06 0)
(1.46953e-17 -6.45364e-06 0)
(1.34787e-17 -6.45364e-06 0)
(1.25782e-17 -6.45364e-06 0)
(1.20032e-17 -6.45364e-06 0)
(1.17628e-17 -6.45364e-06 0)
(1.18663e-17 -6.45364e-06 0)
(1.23231e-17 -6.45364e-06 0)
(1.31419e-17 -6.45364e-06 0)
(1.4331e-17 -6.45364e-06 0)
(1.58977e-17 -6.45364e-06 0)
(1.78479e-17 -6.45364e-06 0)
(2.01861e-17 -6.45364e-06 0)
(2.29145e-17 -6.45364e-06 0)
(2.60332e-17 -6.45364e-06 0)
(2.95136e-17 -6.45364e-06 0)
(2.56725e-17 -6.45364e-06 0)
(2.21821e-17 -6.45364e-06 0)
(1.90607e-17 -6.45364e-06 0)
(1.62988e-17 -6.45364e-06 0)
(1.38861e-17 -6.45364e-06 0)
(1.18122e-17 -6.45364e-06 0)
(1.00666e-17 -6.45364e-06 0)
(8.63893e-18 -6.45363e-06 0)
(7.51072e-18 -6.45365e-06 0)
(6.63574e-18 -6.45375e-06 0)
(5.66838e-18 -6.45398e-06 0)
(3.95343e-18 -6.4486e-06 0)
(2.46879e-18 -6.42646e-06 0)
(1.45744e-18 -6.54488e-06 0)
(7.98925e-19 -7.1805e-06 0)
(4.06966e-19 -4.59717e-06 0)
(1.95628e-19 8.93833e-06 0)
(9.46876e-20 -3.85744e-05 0)
(5.80696e-20 -0.000321008 0)
(5.30486e-20 -0.000178859 0)
(4.47553e-20 3.78411e-05 0)
(3.14642e-20 -0.000282435 0)
(1.86926e-20 -0.000225494 0)
(1.29996e-20 -0.000218846 0)
(9.04618e-21 -0.000222326 0)
(5.04194e-21 -0.000225391 0)
(1.77999e-21 -0.000227599 0)
(4.5494e-22 -0.000228471 0)
(1.27052e-22 -0.000228678 0)
(7.59643e-23 -0.000228709 0)
(7.48304e-23 -0.000228709 0)
(7.46327e-23 -0.000228709 0)
(7.49106e-23 -0.000228693 0)
(8.5395e-23 -0.000227198 0)
)
;

boundaryField
{
    inlet
    {
        type            cyclic;
    }
    outlet
    {
        type            cyclic;
    }
    top
    {
        type            fixedValue;
        value           uniform (0 0 0);
    }
    bottom
    {
        type            fixedValue;
        value           uniform (0 0 0);
    }
    frontAndBackPlanes
    {
        type            empty;
    }
}


// ************************************************************************* //
