/*--------------------------------*- C++ -*----------------------------------*\
| =========                 |                                                 |
| \\      /  F ield         | OpenFOAM: The Open Source CFD Toolbox           |
|  \\    /   O peration     | Version:  2206                                  |
|   \\  /    A nd           | Website:  www.openfoam.com                      |
|    \\/     M anipulation  |                                                 |
\*---------------------------------------------------------------------------*/
FoamFile
{
    version     2.0;
    format      ascii;
    arch        "LSB;label=32;scalar=64";
    class       volVectorField;
    location    "260";
    object      U.b;
}
// * * * * * * * * * * * * * * * * * * * * * * * * * * * * * * * * * * * * * //

dimensions      [0 1 -1 0 0 0 0];

internalField   nonuniform List<vector> 
120
(
(-1.52918e-21 2.42199e-08 0)
(-4.57842e-21 3.06395e-08 0)
(-7.54725e-21 4.90199e-08 0)
(-1.06059e-20 7.53942e-08 0)
(-1.3561e-20 9.62932e-08 0)
(-1.64618e-20 1.27757e-07 0)
(-1.89326e-20 1.53253e-07 0)
(-2.20984e-20 1.90169e-07 0)
(-2.53626e-20 2.22629e-07 0)
(-2.74552e-20 2.65523e-07 0)
(-2.99968e-20 3.07238e-07 0)
(-3.32799e-20 3.59443e-07 0)
(-3.46291e-20 4.17115e-07 0)
(-3.65944e-20 4.8552e-07 0)
(-3.82377e-20 5.59541e-07 0)
(-3.95006e-20 6.28769e-07 0)
(-4.04377e-20 7.25296e-07 0)
(-4.55539e-20 1.83817e-06 0)
(-6.64454e-19 -6.9063e-06 0)
(-1.33476e-18 3.05495e-06 0)
(-1.56695e-18 8.31604e-06 0)
(-2.10946e-18 7.00457e-06 0)
(-3.66998e-18 6.60629e-06 0)
(-7.48942e-18 6.51333e-06 0)
(1.67786e-19 6.4771e-06 0)
(5.27491e-18 6.46152e-06 0)
(9.52855e-18 6.45579e-06 0)
(9.88374e-18 6.45407e-06 0)
(1.07572e-17 6.4537e-06 0)
(1.18173e-17 6.45364e-06 0)
(1.10727e-17 6.45364e-06 0)
(8.66918e-18 6.45364e-06 0)
(6.56131e-18 6.45364e-06 0)
(4.64951e-18 6.45364e-06 0)
(2.90357e-18 6.45364e-06 0)
(1.25788e-18 6.45364e-06 0)
(1.73929e-18 6.45364e-06 0)
(4.38874e-18 6.45364e-06 0)
(5.03454e-18 6.45364e-06 0)
(7.98318e-18 6.45364e-06 0)
(6.88582e-18 6.45364e-06 0)
(8.08537e-18 6.45364e-06 0)
(7.31641e-18 6.45364e-06 0)
(6.70576e-18 6.45364e-06 0)
(6.15669e-18 6.45364e-06 0)
(7.84454e-18 6.45364e-06 0)
(5.51554e-18 6.45365e-06 0)
(3.42979e-18 6.45364e-06 0)
(-6.86441e-19 6.45364e-06 0)
(-5.81817e-19 6.45364e-06 0)
(-4.69896e-19 6.45364e-06 0)
(-2.53323e-19 6.45364e-06 0)
(7.31694e-20 6.45364e-06 0)
(5.15173e-19 6.45365e-06 0)
(1.03272e-18 6.45365e-06 0)
(3.71842e-18 6.45364e-06 0)
(6.49819e-18 6.45364e-06 0)
(9.43094e-18 6.45365e-06 0)
(1.26236e-17 6.45364e-06 0)
(1.19198e-17 6.45364e-06 0)
(1.14991e-17 6.45364e-06 0)
(1.12792e-17 6.45364e-06 0)
(1.12712e-17 6.45364e-06 0)
(1.14873e-17 6.45365e-06 0)
(1.20322e-17 6.45364e-06 0)
(8.65394e-18 6.45364e-06 0)
(9.69792e-18 6.45364e-06 0)
(1.0911e-17 6.45364e-06 0)
(1.23962e-17 6.45364e-06 0)
(1.41636e-17 6.45365e-06 0)
(1.63167e-17 6.45364e-06 0)
(1.46962e-17 6.45365e-06 0)
(1.34787e-17 6.45364e-06 0)
(1.25782e-17 6.45365e-06 0)
(1.20031e-17 6.45364e-06 0)
(1.17627e-17 6.45364e-06 0)
(1.18663e-17 6.45364e-06 0)
(1.23231e-17 6.45364e-06 0)
(1.31419e-17 6.45364e-06 0)
(1.4331e-17 6.45364e-06 0)
(1.58977e-17 6.45364e-06 0)
(1.78479e-17 6.45364e-06 0)
(2.0186e-17 6.45365e-06 0)
(2.29145e-17 6.45364e-06 0)
(2.6035e-17 6.45364e-06 0)
(2.9735e-17 6.45364e-06 0)
(2.56743e-17 6.45364e-06 0)
(2.21821e-17 6.45364e-06 0)
(1.90607e-17 6.45364e-06 0)
(1.62988e-17 6.45364e-06 0)
(1.38861e-17 6.45364e-06 0)
(1.18122e-17 6.45364e-06 0)
(1.00666e-17 6.45365e-06 0)
(8.63886e-18 6.45366e-06 0)
(7.51029e-18 6.45363e-06 0)
(6.63169e-18 6.45354e-06 0)
(5.65492e-18 6.45327e-06 0)
(3.94795e-18 6.45864e-06 0)
(2.46781e-18 6.4811e-06 0)
(1.45725e-18 6.36557e-06 0)
(7.98919e-19 5.72342e-06 0)
(4.06969e-19 8.26537e-06 0)
(1.95633e-19 2.16565e-05 0)
(9.46899e-20 -2.48398e-05 0)
(5.80726e-20 -0.00028372 0)
(5.30583e-20 3.37769e-05 0)
(4.48774e-20 3.79924e-05 0)
(3.79655e-20 1.34467e-06 0)
(3.21153e-20 -2.60695e-06 0)
(2.71395e-20 -4.44137e-07 0)
(2.28815e-20 1.37313e-07 0)
(1.92103e-20 5.1039e-08 0)
(1.60168e-20 -3.55061e-09 0)
(1.32097e-20 -4.30021e-09 0)
(1.07124e-20 -3.0971e-10 0)
(8.4597e-21 2.77449e-10 0)
(6.39581e-21 5.16949e-11 0)
(4.47193e-21 -1.93847e-11 0)
(2.64451e-21 -7.7727e-12 0)
(8.73538e-22 -3.27456e-12 0)
)
;

boundaryField
{
    inlet
    {
        type            cyclic;
    }
    outlet
    {
        type            cyclic;
    }
    top
    {
        type            fixedValue;
        value           uniform (0 0 0);
    }
    bottom
    {
        type            fixedValue;
        value           uniform (0 0 0);
    }
    frontAndBackPlanes
    {
        type            empty;
    }
}


// ************************************************************************* //
