/*--------------------------------*- C++ -*----------------------------------*\
| =========                 |                                                 |
| \\      /  F ield         | OpenFOAM: The Open Source CFD Toolbox           |
|  \\    /   O peration     | Version:  2206                                  |
|   \\  /    A nd           | Website:  www.openfoam.com                      |
|    \\/     M anipulation  |                                                 |
\*---------------------------------------------------------------------------*/
FoamFile
{
    version     2.0;
    format      ascii;
    arch        "LSB;label=32;scalar=64";
    class       volScalarField;
    location    "200";
    object      alpha.a;
}
// * * * * * * * * * * * * * * * * * * * * * * * * * * * * * * * * * * * * * //

dimensions      [0 0 0 0 0 0 0];

internalField   nonuniform List<scalar> 
200
(
0.599487
0.599419
0.599404
0.599342
0.599312
0.599259
0.599221
0.599172
0.599131
0.59908
0.59904
0.598987
0.598947
0.598891
0.598851
0.598793
0.598753
0.598694
0.598652
0.598592
0.598548
0.598487
0.598442
0.59838
0.598332
0.59827
0.59822
0.598157
0.598105
0.598041
0.597987
0.597921
0.597865
0.597798
0.59774
0.597671
0.597611
0.59754
0.597477
0.597405
0.59734
0.597265
0.597198
0.597121
0.59705
0.596971
0.596898
0.596816
0.59674
0.596654
0.596575
0.596487
0.596404
0.596312
0.596225
0.596129
0.596039
0.595939
0.595844
0.595739
0.59564
0.595529
0.595425
0.595309
0.595199
0.595076
0.59496
0.59483
0.594706
0.594569
0.594437
0.59429
0.594149
0.593991
0.59384
0.59367
0.593507
0.593323
0.593146
0.592945
0.59275
0.592529
0.592314
0.592068
0.591827
0.59155
0.591277
0.59096
0.590644
0.590273
0.589898
0.58945
0.588989
0.588421
0.587819
0.587045
0.586192
0.58498
0.58315
0.339189
0.000361332
9.71749e-07
1.90867e-09
9.9926e-21
3.33916e-32
6.99223e-44
6.13472e-56
2.6895e-68
3.21641e-80
6.78632e-92
1.62833e-103
3.18995e-115
4.23232e-127
2.53404e-139
2.29417e-151
3.11511e-163
7.34917e-175
4.11845e-182
1.99202e-182
9.20016e-183
4.62163e-183
2.35206e-183
1.21176e-183
5.20943e-184
2.3827e-184
1.13768e-184
5.28638e-185
2.47429e-185
1.17071e-185
5.60687e-186
2.71634e-186
1.33102e-186
6.58786e-187
2.92219e-187
1.43384e-187
6.93246e-188
2.78927e-188
1.32489e-188
6.28408e-189
2.9854e-189
1.42835e-189
6.91532e-190
3.39274e-190
1.67879e-190
8.32927e-191
4.12238e-191
1.57657e-191
6.74032e-192
3.27905e-192
1.44878e-192
7.17493e-193
3.54969e-193
1.74478e-193
7.11713e-194
3.12982e-194
1.41026e-194
7.0173e-195
3.51919e-195
1.49405e-195
6.80635e-196
3.37257e-196
1.43899e-196
6.96455e-197
3.01263e-197
1.46795e-197
7.17692e-198
3.51492e-198
1.71959e-198
8.36137e-199
3.65798e-199
1.77595e-199
8.61731e-200
4.17765e-200
2.0233e-200
9.79179e-201
4.73829e-201
2.29484e-201
1.11342e-201
5.41451e-202
2.63849e-202
1.28731e-202
6.27967e-203
3.04859e-203
1.40579e-203
6.82585e-204
3.29211e-204
1.53016e-204
7.4272e-205
3.60909e-205
1.7559e-205
8.55091e-206
4.16502e-206
2.02259e-206
9.62071e-207
4.67093e-207
2.23121e-207
1.07502e-207
5.26047e-208
2.73574e-208
1.7421e-208
)
;

boundaryField
{
    inlet
    {
        type            cyclic;
    }
    outlet
    {
        type            cyclic;
    }
    top
    {
        type            zeroGradient;
    }
    bottom
    {
        type            zeroGradient;
    }
    frontAndBackPlanes
    {
        type            empty;
    }
}


// ************************************************************************* //
