/*--------------------------------*- C++ -*----------------------------------*\
| =========                 |                                                 |
| \\      /  F ield         | OpenFOAM: The Open Source CFD Toolbox           |
|  \\    /   O peration     | Version:  2206                                  |
|   \\  /    A nd           | Website:  www.openfoam.com                      |
|    \\/     M anipulation  |                                                 |
\*---------------------------------------------------------------------------*/
FoamFile
{
    version     2.0;
    format      ascii;
    arch        "LSB;label=32;scalar=64";
    class       volScalarField;
    location    "200";
    object      alphaEff.a;
}
// * * * * * * * * * * * * * * * * * * * * * * * * * * * * * * * * * * * * * //

dimensions      [0 0 0 0 0 0 0];

internalField   nonuniform List<scalar> 
200
(
0.55001
0.55001
0.55001
0.55001
0.55001
0.55001
0.55001
0.55001
0.55001
0.55001
0.55001
0.55001
0.55001
0.55001
0.55001
0.55001
0.55001
0.55001
0.55001
0.55001
0.55001
0.55001
0.55001
0.55001
0.55001
0.55001
0.55001
0.55001
0.55001
0.55001
0.55001
0.55001
0.55001
0.55001
0.55001
0.55001
0.55001
0.55001
0.55001
0.55001
0.55001
0.55001
0.55001
0.55001
0.55001
0.55001
0.55001
0.55001
0.55001
0.55001
0.55001
0.55001
0.55001
0.55001
0.55001
0.55001
0.55001
0.55001
0.55001
0.55001
0.55001
0.55001
0.55001
0.55001
0.55001
0.55001
0.55001
0.55001
0.55001
0.55001
0.55001
0.55001
0.55001
0.55001
0.55001
0.55001
0.55001
0.55001
0.55001
0.55001
0.55001
0.55001
0.55001
0.55001
0.55001
0.55001
0.55001
0.55001
0.55001
0.55001
0.55001
0.55001
0.55001
0.55001
0.55001
0.55001
0.55001
0.55001
0.55001
0.55001
0.55001
0.550009
0.549989
0.549703
0.5471
0.530887
0.463623
0.309635
0.148185
0.059858
0.024023
0.0102188
0.00467226
0.00229147
0.00119836
0.000664245
0.000388262
0.000238377
0.000153286
0.00010303
7.22782e-05
5.28532e-05
4.0226e-05
3.18019e-05
2.60481e-05
2.20328e-05
1.91755e-05
1.71052e-05
1.55804e-05
1.44401e-05
1.35753e-05
1.2911e-05
1.23945e-05
1.19884e-05
1.16658e-05
1.1407e-05
1.11975e-05
1.10265e-05
1.08858e-05
1.07692e-05
1.06719e-05
1.05901e-05
1.0521e-05
1.04622e-05
1.04119e-05
1.03687e-05
1.03314e-05
1.0299e-05
1.02707e-05
1.0246e-05
1.02243e-05
1.02051e-05
1.01882e-05
1.01731e-05
1.01596e-05
1.01476e-05
1.01368e-05
1.01271e-05
1.01184e-05
1.01105e-05
1.01033e-05
1.00968e-05
1.00908e-05
1.00854e-05
1.00804e-05
1.00759e-05
1.00717e-05
1.00679e-05
1.00643e-05
1.0061e-05
1.0058e-05
1.00552e-05
1.00526e-05
1.00502e-05
1.00479e-05
1.00458e-05
1.00438e-05
1.0042e-05
1.00403e-05
1.00386e-05
1.00371e-05
1.00357e-05
1.00344e-05
1.00331e-05
1.00319e-05
1.00308e-05
1.00297e-05
1.00287e-05
1.00278e-05
1.00269e-05
1.0026e-05
1.00252e-05
1.00244e-05
1.00237e-05
1.0023e-05
1.00224e-05
1.00217e-05
1.00211e-05
1.00206e-05
1.002e-05
)
;

boundaryField
{
    inlet
    {
        type            cyclic;
    }
    outlet
    {
        type            cyclic;
    }
    top
    {
        type            calculated;
        value           uniform 1.002e-05;
    }
    bottom
    {
        type            calculated;
        value           uniform 0.55001;
    }
    frontAndBackPlanes
    {
        type            empty;
    }
}


// ************************************************************************* //
