/*--------------------------------*- C++ -*----------------------------------*\
| =========                 |                                                 |
| \\      /  F ield         | OpenFOAM: The Open Source CFD Toolbox           |
|  \\    /   O peration     | Version:  2206                                  |
|   \\  /    A nd           | Website:  www.openfoam.com                      |
|    \\/     M anipulation  |                                                 |
\*---------------------------------------------------------------------------*/
FoamFile
{
    version     2.0;
    format      ascii;
    arch        "LSB;label=32;scalar=64";
    class       volScalarField;
    location    "200";
    object      nuEffb;
}
// * * * * * * * * * * * * * * * * * * * * * * * * * * * * * * * * * * * * * //

dimensions      [0 2 -1 0 0 0 0];

internalField   nonuniform List<scalar> 
200
(
0.00157217
0.0015718
0.00157172
0.00157138
0.00157121
0.00157092
0.00157072
0.00157044
0.00157022
0.00156994
0.00156972
0.00156943
0.00156921
0.0015689
0.00156868
0.00156837
0.00156814
0.00156782
0.00156759
0.00156726
0.00156702
0.00156669
0.00156644
0.00156611
0.00156585
0.0015655
0.00156523
0.00156489
0.0015646
0.00156425
0.00156396
0.0015636
0.00156329
0.00156293
0.00156261
0.00156224
0.00156191
0.00156152
0.00156118
0.00156079
0.00156043
0.00156003
0.00155966
0.00155924
0.00155886
0.00155843
0.00155803
0.00155759
0.00155717
0.00155671
0.00155628
0.0015558
0.00155535
0.00155485
0.00155439
0.00155387
0.00155338
0.00155284
0.00155233
0.00155176
0.00155122
0.00155063
0.00155007
0.00154944
0.00154885
0.00154819
0.00154756
0.00154686
0.0015462
0.00154546
0.00154475
0.00154397
0.00154321
0.00154237
0.00154156
0.00154065
0.00153978
0.0015388
0.00153785
0.00153678
0.00153575
0.00153457
0.00153343
0.00153213
0.00153085
0.00152939
0.00152794
0.00152627
0.00152461
0.00152265
0.00152069
0.00151834
0.00151593
0.00151297
0.00150984
0.00150582
0.00150142
0.0014952
0.00148587
0.000704724
0.000252319
0.000252001
0.000252
0.000252
0.000252
0.000252
0.000252
0.000252
0.000252
0.000252
0.000252
0.000252
0.000252
0.000252
0.000252
0.000252
0.000252
0.000252
0.000252
0.000252
0.000252
0.000252
0.000252
0.000252
0.000252
0.000252
0.000252
0.000252
0.000252
0.000252
0.000252
0.000252
0.000252
0.000252
0.000252
0.000252
0.000252
0.000252
0.000252
0.000252
0.000252
0.000252
0.000252
0.000252
0.000252
0.000252
0.000252
0.000252
0.000252
0.000252
0.000252
0.000252
0.000252
0.000252
0.000252
0.000252
0.000252
0.000252
0.000252
0.000252
0.000252
0.000252
0.000252
0.000252
0.000252
0.000252
0.000252
0.000252
0.000252
0.000252
0.000252
0.000252
0.000252
0.000252
0.000252
0.000252
0.000252
0.000252
0.000252
0.000252
0.000252
0.000252
0.000252
0.000252
0.000252
0.000252
0.000252
0.000252
0.000252
0.000252
0.000252
0.000252
0.000252
0.000252
0.000252
0.000252
0.000252
0.000252
0.000252
0.000252
)
;

boundaryField
{
    inlet
    {
        type            cyclic;
    }
    outlet
    {
        type            cyclic;
    }
    top
    {
        type            calculated;
        value           uniform 0.000252;
    }
    bottom
    {
        type            calculated;
        value           uniform 0.00157217;
    }
    frontAndBackPlanes
    {
        type            empty;
    }
}


// ************************************************************************* //
