/*--------------------------------*- C++ -*----------------------------------*\
| =========                 |                                                 |
| \\      /  F ield         | OpenFOAM: The Open Source CFD Toolbox           |
|  \\    /   O peration     | Version:  2206                                  |
|   \\  /    A nd           | Website:  www.openfoam.com                      |
|    \\/     M anipulation  |                                                 |
\*---------------------------------------------------------------------------*/
FoamFile
{
    version     2.0;
    format      ascii;
    arch        "LSB;label=32;scalar=64";
    class       volScalarField;
    location    "200";
    object      nuFra;
}
// * * * * * * * * * * * * * * * * * * * * * * * * * * * * * * * * * * * * * //

dimensions      [0 2 -1 0 0 0 0];

internalField   nonuniform List<scalar> 
200
(
10
10
10
10
10
10
10
10
10
10
10
10
10
10
10
10
10
10
10
10
10
10
10
10
10
10
10
10
10
10
10
10
10
10
10
10
10
10
10
10
10
10
10
10
10
9.63565
8.0609
5.97136
4.01446
2.48711
1.45162
0.809873
0.441943
0.239616
0.132137
0.0751419
0.0448885
0.0283343
0.0190564
0.0135865
0.0102546
0.00809262
0.00664374
0.00559936
0.00482939
0.0042183
0.0037328
0.00332064
0.00297833
0.00267613
0.00241929
0.00218716
0.00198731
0.00180363
0.00164412
0.00149551
0.00136564
0.0012432
0.0011357
0.00103327
0.000943041
0.000856231
0.00077959
0.000705189
0.000639413
0.000575016
0.000518056
0.000461831
0.000412114
0.00036264
0.000318946
0.000275113
0.000236474
0.000197346
0.000162932
0.000128006
9.80981e-05
6.7136e-05
3.64613e-05
7.69777e-11
5.54744e-11
4.90513e-11
4.75604e-11
5.14139e-11
5.31292e-11
5.43868e-11
5.5735e-11
5.71811e-11
5.87173e-11
6.03396e-11
6.20527e-11
6.38654e-11
6.5787e-11
6.78276e-11
6.99987e-11
7.23131e-11
7.47855e-11
7.74326e-11
8.02737e-11
8.33308e-11
8.66296e-11
9.02002e-11
9.40782e-11
9.83037e-11
1.02916e-10
1.07946e-10
1.13454e-10
1.19732e-10
1.2775e-10
1.39144e-10
1.52334e-10
1.47713e-10
8.50595e-11
1.75785e-11
2.05116e-11
0.000194406
8.30874e-12
8.30874e-12
0.000208486
1.34204e-11
1.24026e-11
1.14546e-10
1.11087e-10
9.09263e-12
9.65319e-12
0.000268763
9.61022e-12
9.08445e-12
1.34046e-10
4.20083e-10
5.12829e-10
4.40233e-10
3.52542e-10
2.91868e-10
2.53008e-10
2.26117e-10
2.05331e-10
1.88097e-10
1.73415e-10
1.60791e-10
1.49863e-10
1.40327e-10
1.31936e-10
1.24495e-10
1.1785e-10
1.1188e-10
1.06487e-10
1.01591e-10
9.71261e-11
9.30384e-11
8.92819e-11
8.58179e-11
8.26135e-11
7.96406e-11
7.6875e-11
7.42957e-11
7.18845e-11
6.96255e-11
6.75048e-11
6.551e-11
6.36303e-11
6.18559e-11
6.01783e-11
5.85897e-11
5.70833e-11
5.56528e-11
5.42927e-11
5.29979e-11
5.17637e-11
5.0586e-11
4.94612e-11
4.83857e-11
4.73561e-11
4.63672e-11
4.54125e-11
4.45068e-11
4.37712e-11
4.34306e-11
4.25787e-11
3.48533e-11
)
;

boundaryField
{
    inlet
    {
        type            cyclic;
    }
    outlet
    {
        type            cyclic;
    }
    top
    {
        type            calculated;
        value           uniform 2.85837e-11;
    }
    bottom
    {
        type            calculated;
        value           uniform 10;
    }
    frontAndBackPlanes
    {
        type            empty;
    }
}


// ************************************************************************* //
