/*--------------------------------*- C++ -*----------------------------------*\
| =========                 |                                                 |
| \\      /  F ield         | OpenFOAM: The Open Source CFD Toolbox           |
|  \\    /   O peration     | Version:  2206                                  |
|   \\  /    A nd           | Website:  www.openfoam.com                      |
|    \\/     M anipulation  |                                                 |
\*---------------------------------------------------------------------------*/
FoamFile
{
    version     2.0;
    format      ascii;
    arch        "LSB;label=32;scalar=64";
    class       volScalarField;
    location    "200";
    object      p_rbgh;
}
// * * * * * * * * * * * * * * * * * * * * * * * * * * * * * * * * * * * * * //

dimensions      [1 -1 -2 0 0 0 0];

internalField   nonuniform List<scalar> 
200
(
-0.048507
-0.0485072
-0.0485065
-0.0485081
-0.0485087
-0.0485109
-0.0485124
-0.0485149
-0.0485173
-0.0485204
-0.0485236
-0.0485272
-0.0485312
-0.0485355
-0.0485403
-0.0485453
-0.0485507
-0.0485564
-0.0485626
-0.0485691
-0.048576
-0.0485832
-0.0485908
-0.0485988
-0.0486071
-0.0486159
-0.048625
-0.0486345
-0.0486443
-0.0486546
-0.0486651
-0.0486761
-0.0486874
-0.048699
-0.0487109
-0.0487232
-0.0487357
-0.0487485
-0.0487615
-0.0487748
-0.0487882
-0.0488018
-0.0488154
-0.0488292
-0.0488429
-0.0488566
-0.0488701
-0.0488834
-0.0488964
-0.0489089
-0.0489209
-0.0489322
-0.0489428
-0.0489525
-0.0489617
-0.0489698
-0.0489775
-0.048984
-0.0489903
-0.0489954
-0.0490002
-0.0490038
-0.0490071
-0.0490093
-0.0490113
-0.0490122
-0.049013
-0.0490127
-0.0490123
-0.0490112
-0.04901
-0.0490083
-0.0490068
-0.0490052
-0.0490039
-0.049003
-0.0490026
-0.0490035
-0.0490053
-0.0490095
-0.0490149
-0.0490243
-0.0490355
-0.0490527
-0.0490726
-0.0491017
-0.0491346
-0.0491809
-0.0492318
-0.0493057
-0.049411
-0.0495626
-0.0496076
-0.0493267
-0.0492891
-0.0524811
-0.0603736
-0.0568624
-0.00413483
0.073118
-0.036608
-0.0109151
0.00090769
0.00102001
0.000102871
-7.23006e-05
-2.49805e-05
1.77315e-06
2.85755e-06
4.56564e-07
-1.70668e-07
-7.60292e-08
-5.93503e-10
6.60153e-09
1.48362e-09
-3.65472e-10
-3.71934e-10
-2.36038e-10
-2.07149e-10
-1.73244e-10
-9.43866e-11
3.00222e-12
9.45595e-11
1.42107e-10
1.55543e-10
9.56831e-11
3.03665e-11
-8.38358e-11
-1.54926e-10
-1.9716e-10
-2.14607e-10
-1.24495e-10
-7.44233e-11
2.97022e-11
1.2062e-10
1.10886e-10
1.09643e-10
6.04239e-11
-6.49176e-11
-1.31793e-10
-1.53398e-10
-1.87416e-10
-1.48053e-10
-3.12846e-11
4.23261e-11
6.5886e-11
1.01428e-10
9.76983e-11
-4.93306e-14
-1.07413e-10
-1.37536e-10
-1.30004e-10
-1.31815e-10
-9.55035e-11
8.705e-12
9.92439e-11
9.23392e-11
2.12097e-11
-3.14344e-11
-5.73002e-11
-1.00137e-10
-1.47711e-10
-1.30747e-10
-3.2183e-11
6.79338e-11
8.39902e-11
2.31949e-11
-3.91796e-11
-6.00632e-11
-6.51649e-11
-8.69271e-11
-1.04343e-10
-7.03923e-11
1.34679e-11
7.94881e-11
6.1449e-11
-3.07123e-11
-1.16621e-10
-1.25067e-10
-6.07473e-11
8.79246e-12
2.47109e-11
-1.05977e-11
-4.82513e-11
-4.98685e-11
-2.39099e-11
-8.46959e-12
-2.5713e-11
-5.82251e-11
-6.94256e-11
-4.34972e-11
-2.68463e-12
1.45874e-11
-8.40031e-12
-5.03993e-11
-7.2664e-11
-5.61393e-11
-1.89724e-11
5.38564e-12
5.02506e-12
)
;

boundaryField
{
    inlet
    {
        type            cyclic;
    }
    outlet
    {
        type            cyclic;
    }
    top
    {
        type            fixedValue;
        value           uniform 0;
    }
    bottom
    {
        type            fixedFluxPressure;
        gradient        uniform 0;
        value           uniform -0.048507;
    }
    frontAndBackPlanes
    {
        type            empty;
    }
}


// ************************************************************************* //
