/*--------------------------------*- C++ -*----------------------------------*\
| =========                 |                                                 |
| \\      /  F ield         | OpenFOAM: The Open Source CFD Toolbox           |
|  \\    /   O peration     | Version:  2206                                  |
|   \\  /    A nd           | Website:  www.openfoam.com                      |
|    \\/     M anipulation  |                                                 |
\*---------------------------------------------------------------------------*/
FoamFile
{
    version     2.0;
    format      ascii;
    arch        "LSB;label=32;scalar=64";
    class       volScalarField;
    location    "200";
    object      pff;
}
// * * * * * * * * * * * * * * * * * * * * * * * * * * * * * * * * * * * * * //

dimensions      [1 -1 -2 0 0 0 0];

internalField   nonuniform List<scalar> 
200
(
22.6927
22.3242
22.2437
21.9117
21.751
21.4758
21.2792
21.0234
20.8193
20.5635
20.3637
20.1019
19.9083
19.6411
19.4517
19.182
18.9937
18.7241
18.5347
18.2672
18.0752
17.8108
17.6155
17.3545
17.1559
16.8983
16.6964
16.442
16.2372
15.9857
15.7783
15.5293
15.3197
15.0728
14.8613
14.6163
14.4032
14.1597
13.9453
13.7032
13.4877
13.2466
13.0303
12.7902
12.5733
12.3339
12.1164
11.8774
11.6594
11.4209
11.2025
10.9643
10.7459
10.508
10.2894
10.0518
9.83321
9.59577
9.37717
9.13989
8.9213
8.68415
8.46559
8.22857
8.01005
7.77317
7.55468
7.31794
7.09951
6.86291
6.64453
6.40808
6.18976
5.95346
5.73522
5.49909
5.28094
5.04496
4.82693
4.59112
4.37322
4.13757
3.91985
3.68437
3.46686
3.23154
3.01431
2.77915
2.56227
2.32726
2.11083
1.87602
1.66017
1.42542
1.21001
0.976219
0.766343
0.536798
0.303359
0
0
0
0
0
0
0
0
0
0
0
0
0
0
0
0
0
0
0
0
0
0
0
0
0
0
0
0
0
0
0
0
0
0
0
0
0
0
0
0
0
0
0
0
0
0
0
0
0
0
0
0
0
0
0
0
0
0
0
0
0
0
0
0
0
0
0
0
0
0
0
0
0
0
0
0
0
0
0
0
0
0
0
0
0
0
0
0
0
0
0
0
0
0
0
0
0
0
0
0
0
)
;

boundaryField
{
    inlet
    {
        type            cyclic;
    }
    outlet
    {
        type            cyclic;
    }
    top
    {
        type            calculated;
        value           uniform 0;
    }
    bottom
    {
        type            calculated;
        value           uniform 22.6927;
    }
    frontAndBackPlanes
    {
        type            empty;
    }
}


// ************************************************************************* //
