/*--------------------------------*- C++ -*----------------------------------*\
| =========                 |                                                 |
| \\      /  F ield         | OpenFOAM: The Open Source CFD Toolbox           |
|  \\    /   O peration     | Version:  2206                                  |
|   \\  /    A nd           | Website:  www.openfoam.com                      |
|    \\/     M anipulation  |                                                 |
\*---------------------------------------------------------------------------*/
FoamFile
{
    version     2.0;
    format      ascii;
    arch        "LSB;label=32;scalar=64";
    class       surfaceScalarField;
    location    "200";
    object      phi.a;
}
// * * * * * * * * * * * * * * * * * * * * * * * * * * * * * * * * * * * * * //

dimensions      [0 3 -1 0 0 0 0];

oriented        oriented;

internalField   nonuniform List<scalar> 
199
(
-1.22005e-17
-8.63042e-18
-3.28454e-17
-2.38883e-17
-4.763e-17
-4.39908e-17
-6.09737e-17
-6.43393e-17
-7.59097e-17
-8.35865e-17
-9.25164e-17
-1.0216e-16
-1.10237e-16
-1.20516e-16
-1.28679e-16
-1.38949e-16
-1.47574e-16
-1.57637e-16
-1.66757e-16
-1.76644e-16
-1.86148e-16
-1.95942e-16
-2.057e-16
-2.15454e-16
-2.25341e-16
-2.3505e-16
-2.4494e-16
-2.54548e-16
-2.64323e-16
-2.73747e-16
-2.83278e-16
-2.92361e-16
-3.01414e-16
-3.09872e-16
-3.18102e-16
-3.25596e-16
-3.32689e-16
-3.38968e-16
-3.44734e-16
-3.49605e-16
-3.53782e-16
-3.56759e-16
-3.58563e-16
-3.5864e-16
-3.57053e-16
-3.53515e-16
-3.47742e-16
-3.39484e-16
-3.27985e-16
-3.13946e-16
-2.96703e-16
-2.7924e-16
-2.57966e-16
-2.40328e-16
-2.17264e-16
-2.01468e-16
-1.775e-16
-1.62949e-16
-1.38225e-16
-1.24432e-16
-9.93716e-17
-8.6399e-17
-6.16288e-17
-4.98702e-17
-2.62116e-17
-1.63503e-17
4.92328e-18
1.20821e-17
2.93775e-17
3.27187e-17
4.38001e-17
4.19182e-17
4.37277e-17
3.48561e-17
2.31149e-17
4.91126e-18
-2.60085e-17
-5.7022e-17
-1.15777e-16
-1.63502e-16
-2.61319e-16
-3.32744e-16
-4.83984e-16
-5.91973e-16
-8.21986e-16
-9.87087e-16
-1.34186e-15
-1.60228e-15
-2.14148e-15
-2.60085e-15
-3.48845e-15
-4.33424e-15
-6.00533e-15
-7.77452e-15
-1.11794e-14
-1.52214e-14
-2.06562e-14
-2.36508e-14
-1.18555e-13
-7.01277e-11
-2.53245e-10
-2.41241e-10
-3.4962e-10
-3.90598e-10
-4.02623e-10
-4.06079e-10
-4.07179e-10
-4.07553e-10
-4.07679e-10
-4.07722e-10
-4.07736e-10
-4.07741e-10
-4.07743e-10
-4.07744e-10
-4.07744e-10
-4.07744e-10
-4.07744e-10
-4.07744e-10
-4.07744e-10
-4.07744e-10
-4.07744e-10
-4.07744e-10
-4.07744e-10
-4.07744e-10
-4.07744e-10
-4.07743e-10
-4.07742e-10
-4.07741e-10
-4.07737e-10
-4.0773e-10
-4.07714e-10
-4.07677e-10
-4.07493e-10
-4.07368e-10
-4.07402e-10
-4.07402e-10
-4.06648e-10
-4.05893e-10
-4.05893e-10
-4.06551e-10
-4.07354e-10
-4.0749e-10
-4.07288e-10
-4.06829e-10
-4.06563e-10
-4.06563e-10
-4.0691e-10
-4.07444e-10
-4.07655e-10
-4.07691e-10
-4.07709e-10
-4.0772e-10
-4.07729e-10
-4.07735e-10
-4.07739e-10
-4.07741e-10
-4.07743e-10
-4.07743e-10
-4.07744e-10
-4.07744e-10
-4.07744e-10
-4.07745e-10
-4.07745e-10
-4.07745e-10
-4.07745e-10
-4.07745e-10
-4.07745e-10
-4.07745e-10
-4.07745e-10
-4.07745e-10
-4.07745e-10
-4.07745e-10
-4.07745e-10
-4.07745e-10
-4.07745e-10
-4.07745e-10
-4.07745e-10
-4.07745e-10
-4.07745e-10
-4.07745e-10
-4.07745e-10
-4.07745e-10
-4.07745e-10
-4.07745e-10
-4.07745e-10
-4.07745e-10
-4.07745e-10
-4.07745e-10
-4.07744e-10
-4.07743e-10
-4.07739e-10
-4.07725e-10
-4.07681e-10
-4.07534e-10
-4.07047e-10
-4.05419e-10
-3.99949e-10
-3.81447e-10
-3.18264e-10
)
;

boundaryField
{
    inlet
    {
        type            cyclic;
        value           nonuniform List<scalar> 
200
(
-1.60229e-14
-4.79181e-14
-7.96364e-14
-1.11168e-13
-1.42508e-13
-1.73654e-13
-2.04604e-13
-2.35358e-13
-2.65912e-13
-2.96266e-13
-3.26417e-13
-3.56366e-13
-3.86109e-13
-4.15646e-13
-4.44975e-13
-4.74094e-13
-5.03002e-13
-5.31697e-13
-5.60178e-13
-5.88444e-13
-6.16492e-13
-6.44321e-13
-6.71931e-13
-6.99318e-13
-7.26482e-13
-7.53421e-13
-7.80133e-13
-8.06618e-13
-8.32873e-13
-8.58897e-13
-8.84688e-13
-9.10245e-13
-9.35567e-13
-9.60651e-13
-9.85497e-13
-1.0101e-12
-1.03447e-12
-1.05859e-12
-1.08247e-12
-1.1061e-12
-1.12948e-12
-1.15262e-12
-1.17551e-12
-1.19814e-12
-1.22053e-12
-1.24307e-12
-1.26778e-12
-1.29853e-12
-1.34116e-12
-1.40567e-12
-1.51052e-12
-1.69028e-12
-2.00981e-12
-2.58703e-12
-3.62726e-12
-5.4594e-12
-8.56232e-12
-1.3542e-11
-2.10597e-11
-3.1703e-11
-4.58906e-11
-6.3818e-11
-8.55062e-11
-1.10861e-10
-1.39763e-10
-1.72099e-10
-2.078e-10
-2.46825e-10
-2.89169e-10
-3.34839e-10
-3.83858e-10
-4.36248e-10
-4.92039e-10
-5.51252e-10
-6.13917e-10
-6.80053e-10
-7.49688e-10
-8.22838e-10
-8.99527e-10
-9.79771e-10
-1.06359e-09
-1.151e-09
-1.24202e-09
-1.33666e-09
-1.43494e-09
-1.53686e-09
-1.64245e-09
-1.7517e-09
-1.86464e-09
-1.98127e-09
-2.10161e-09
-2.22564e-09
-2.3534e-09
-2.48487e-09
-2.6201e-09
-2.75909e-09
-2.9017e-09
-3.04754e-09
-3.19692e-09
-3.35394e-09
-3.64287e-09
-4.01586e-09
-4.39325e-09
-4.75885e-09
-5.10992e-09
-5.45326e-09
-5.78871e-09
-6.1158e-09
-6.43445e-09
-6.74465e-09
-7.04639e-09
-7.33969e-09
-7.62455e-09
-7.90097e-09
-8.16894e-09
-8.42847e-09
-8.67956e-09
-8.92221e-09
-9.15642e-09
-9.38219e-09
-9.59952e-09
-9.80842e-09
-1.00089e-08
-1.02009e-08
-1.03845e-08
-1.05597e-08
-1.07266e-08
-1.08851e-08
-1.1035e-08
-1.11742e-08
-1.13003e-08
-1.14166e-08
-1.15503e-08
-1.18507e-08
-1.36509e-08
-1.36509e-08
-1.36509e-08
-9.20686e-09
-9.20686e-09
-9.20686e-09
-1.19582e-08
-1.2184e-08
-1.22805e-08
-1.25163e-08
-1.63415e-08
-1.63415e-08
-1.63415e-08
-1.24992e-08
-1.22769e-08
-1.22238e-08
-1.2189e-08
-1.21518e-08
-1.21051e-08
-1.20471e-08
-1.19786e-08
-1.19011e-08
-1.18153e-08
-1.17213e-08
-1.1619e-08
-1.15084e-08
-1.13894e-08
-1.1262e-08
-1.11262e-08
-1.09821e-08
-1.08296e-08
-1.06688e-08
-1.04996e-08
-1.03221e-08
-1.01361e-08
-9.94188e-09
-9.73927e-09
-9.52831e-09
-9.30901e-09
-9.08136e-09
-8.84538e-09
-8.60105e-09
-8.34838e-09
-8.08739e-09
-7.81806e-09
-7.5404e-09
-7.25442e-09
-6.96011e-09
-6.65748e-09
-6.34653e-09
-6.02726e-09
-5.69968e-09
-5.36378e-09
-5.01958e-09
-4.66707e-09
-4.30626e-09
-3.93714e-09
-3.55973e-09
-3.17402e-09
-2.78001e-09
-2.37767e-09
-1.96692e-09
-1.54804e-09
-1.12338e-09
-6.98256e-10
-2.608e-10
)
;
    }
    outlet
    {
        type            cyclic;
        value           nonuniform List<scalar> 
200
(
1.60229e-14
4.79181e-14
7.96364e-14
1.11168e-13
1.42508e-13
1.73654e-13
2.04604e-13
2.35358e-13
2.65912e-13
2.96266e-13
3.26417e-13
3.56366e-13
3.86109e-13
4.15646e-13
4.44975e-13
4.74094e-13
5.03002e-13
5.31697e-13
5.60178e-13
5.88444e-13
6.16492e-13
6.44321e-13
6.71931e-13
6.99318e-13
7.26482e-13
7.53421e-13
7.80133e-13
8.06618e-13
8.32873e-13
8.58897e-13
8.84688e-13
9.10245e-13
9.35567e-13
9.60651e-13
9.85497e-13
1.0101e-12
1.03447e-12
1.05859e-12
1.08247e-12
1.1061e-12
1.12948e-12
1.15262e-12
1.17551e-12
1.19814e-12
1.22053e-12
1.24307e-12
1.26778e-12
1.29853e-12
1.34116e-12
1.40567e-12
1.51052e-12
1.69028e-12
2.00981e-12
2.58703e-12
3.62726e-12
5.4594e-12
8.56232e-12
1.3542e-11
2.10597e-11
3.1703e-11
4.58906e-11
6.3818e-11
8.55062e-11
1.10861e-10
1.39763e-10
1.72099e-10
2.078e-10
2.46825e-10
2.89169e-10
3.34839e-10
3.83858e-10
4.36248e-10
4.92039e-10
5.51252e-10
6.13917e-10
6.80053e-10
7.49688e-10
8.22838e-10
8.99527e-10
9.79771e-10
1.06359e-09
1.151e-09
1.24202e-09
1.33666e-09
1.43494e-09
1.53686e-09
1.64245e-09
1.7517e-09
1.86464e-09
1.98127e-09
2.10161e-09
2.22564e-09
2.3534e-09
2.48487e-09
2.6201e-09
2.75909e-09
2.9017e-09
3.04754e-09
3.19692e-09
3.35394e-09
3.64287e-09
4.01586e-09
4.39325e-09
4.75885e-09
5.10992e-09
5.45326e-09
5.78871e-09
6.1158e-09
6.43445e-09
6.74465e-09
7.04639e-09
7.33969e-09
7.62455e-09
7.90097e-09
8.16894e-09
8.42847e-09
8.67956e-09
8.92221e-09
9.15642e-09
9.38219e-09
9.59952e-09
9.80842e-09
1.00089e-08
1.02009e-08
1.03845e-08
1.05597e-08
1.07266e-08
1.08851e-08
1.1035e-08
1.11742e-08
1.13003e-08
1.14166e-08
1.15503e-08
1.18507e-08
1.36509e-08
1.36509e-08
1.36509e-08
9.20686e-09
9.20686e-09
9.20686e-09
1.19582e-08
1.2184e-08
1.22805e-08
1.25163e-08
1.63415e-08
1.63415e-08
1.63415e-08
1.24992e-08
1.22769e-08
1.22238e-08
1.2189e-08
1.21518e-08
1.21051e-08
1.20471e-08
1.19786e-08
1.19011e-08
1.18153e-08
1.17213e-08
1.1619e-08
1.15084e-08
1.13894e-08
1.1262e-08
1.11262e-08
1.09821e-08
1.08296e-08
1.06688e-08
1.04996e-08
1.03221e-08
1.01361e-08
9.94188e-09
9.73927e-09
9.52831e-09
9.30901e-09
9.08136e-09
8.84538e-09
8.60105e-09
8.34838e-09
8.08739e-09
7.81806e-09
7.5404e-09
7.25442e-09
6.96011e-09
6.65748e-09
6.34653e-09
6.02726e-09
5.69968e-09
5.36378e-09
5.01958e-09
4.66707e-09
4.30626e-09
3.93714e-09
3.55973e-09
3.17402e-09
2.78001e-09
2.37767e-09
1.96692e-09
1.54804e-09
1.12338e-09
6.98256e-10
2.608e-10
)
;
    }
    top
    {
        type            fixedValue;
        value           uniform 0;
    }
    bottom
    {
        type            fixedValue;
        value           uniform 0;
    }
    frontAndBackPlanes
    {
        type            empty;
        value           nonuniform List<scalar> 0();
    }
}


// ************************************************************************* //
