/*--------------------------------*- C++ -*----------------------------------*\
| =========                 |                                                 |
| \\      /  F ield         | OpenFOAM: The Open Source CFD Toolbox           |
|  \\    /   O peration     | Version:  2206                                  |
|   \\  /    A nd           | Website:  www.openfoam.com                      |
|    \\/     M anipulation  |                                                 |
\*---------------------------------------------------------------------------*/
FoamFile
{
    version     2.0;
    format      ascii;
    arch        "LSB;label=32;scalar=64";
    class       surfaceScalarField;
    location    "200";
    object      phi.b;
}
// * * * * * * * * * * * * * * * * * * * * * * * * * * * * * * * * * * * * * //

dimensions      [0 3 -1 0 0 0 0];

oriented        oriented;

internalField   nonuniform List<scalar> 
199
(
1.82547e-17
1.29079e-17
4.91366e-17
3.57344e-17
7.12382e-17
6.57819e-17
9.11547e-17
9.61643e-17
1.13437e-16
1.24889e-16
1.38208e-16
1.52585e-16
1.64614e-16
1.79923e-16
1.92071e-16
2.07361e-16
2.20189e-16
2.35155e-16
2.48703e-16
2.63389e-16
2.77501e-16
2.9204e-16
3.06518e-16
3.20979e-16
3.35629e-16
3.50006e-16
3.64649e-16
3.78863e-16
3.93318e-16
4.07237e-16
4.2131e-16
4.34711e-16
4.48061e-16
4.60514e-16
4.72618e-16
4.83619e-16
4.9402e-16
5.03207e-16
5.11624e-16
5.18702e-16
5.24747e-16
5.2901e-16
5.31528e-16
5.31477e-16
5.28956e-16
5.23549e-16
5.14835e-16
5.02443e-16
4.85258e-16
4.64332e-16
4.3868e-16
4.12714e-16
3.8113e-16
3.5494e-16
3.20757e-16
2.97317e-16
2.6184e-16
2.40281e-16
2.03739e-16
1.83328e-16
1.46347e-16
1.27189e-16
9.06794e-17
7.3347e-17
3.85357e-17
2.40182e-17
-7.22989e-18
-1.77352e-17
-4.31044e-17
-4.79655e-17
-6.41874e-17
-6.13777e-17
-6.39957e-17
-5.09709e-17
-3.37807e-17
-7.16825e-18
3.79609e-17
8.31609e-17
1.68716e-16
2.38066e-16
3.80167e-16
4.83643e-16
7.02805e-16
8.58756e-16
1.19116e-15
1.42878e-15
1.93993e-15
2.31339e-15
3.08749e-15
3.74401e-15
5.0132e-15
6.21698e-15
8.59568e-15
1.11012e-14
1.59177e-14
2.16002e-14
2.91882e-14
3.3211e-14
1.01468e-13
1.43406e-11
4.58841e-14
1.1745e-16
3.38357e-19
1.34073e-21
-2.33184e-21
-5.46638e-21
-7.34809e-21
-7.52713e-21
-5.97228e-21
-3.0354e-21
5.96776e-22
4.08479e-21
6.60335e-21
7.54495e-21
6.69578e-21
4.2325e-21
7.88821e-22
-2.89298e-21
-5.72823e-21
-7.38536e-21
-6.64748e-21
-5.34308e-21
-5.64545e-22
5.4841e-22
7.70636e-21
3.79445e-21
1.01672e-20
2.56345e-21
1.19461e-21
1.99858e-21
-1.23268e-20
1.49992e-22
-8.95225e-21
-8.31288e-21
6.72514e-21
-1.43699e-21
2.21301e-21
1.4156e-20
2.9603e-21
-2.45346e-21
5.71072e-21
-2.44621e-21
-1.33974e-20
-4.60747e-21
2.37182e-21
-4.48361e-21
-2.69812e-21
1.02648e-20
1.09756e-20
-5.00337e-22
-3.01061e-21
2.9435e-21
-2.18119e-22
-1.04842e-20
-9.99444e-21
1.92728e-21
8.13952e-21
2.9451e-21
-1.01719e-21
3.69018e-21
7.39294e-21
6.31183e-22
-9.71392e-21
-1.04247e-20
-1.00925e-21
6.48833e-21
4.59941e-21
-8.44187e-22
-8.21833e-22
3.99914e-21
5.11194e-21
-1.34075e-21
-8.81538e-21
-8.40921e-21
1.81188e-22
8.22925e-21
7.92926e-21
6.48331e-22
-5.42059e-21
-4.55684e-21
9.03391e-22
4.1011e-21
1.49354e-21
-3.65333e-21
-5.2654e-21
-1.09639e-21
4.9864e-21
7.0279e-21
2.89331e-21
-3.77935e-21
-7.15997e-21
-4.59893e-21
1.25601e-21
5.23857e-21
4.40601e-21
3.33973e-22
-2.84885e-21
-2.50647e-21
2.44454e-22
)
;

boundaryField
{
    inlet
    {
        type            cyclic;
        value           nonuniform List<scalar> 
200
(
-5.24189e-13
-9.01001e-13
-1.04988e-12
-1.12154e-12
-1.16675e-12
-1.20296e-12
-1.23593e-12
-1.26772e-12
-1.29894e-12
-1.32988e-12
-1.36055e-12
-1.39105e-12
-1.4213e-12
-1.45139e-12
-1.48124e-12
-1.51093e-12
-1.54037e-12
-1.56965e-12
-1.59867e-12
-1.62753e-12
-1.65614e-12
-1.68458e-12
-1.71277e-12
-1.74078e-12
-1.76854e-12
-1.79612e-12
-1.82345e-12
-1.85059e-12
-1.87748e-12
-1.90418e-12
-1.93062e-12
-1.95687e-12
-1.98287e-12
-2.00867e-12
-2.03421e-12
-2.05955e-12
-2.08464e-12
-2.10951e-12
-2.13414e-12
-2.15856e-12
-2.18273e-12
-2.20671e-12
-2.2305e-12
-2.25426e-12
-2.27832e-12
-2.30378e-12
-2.33318e-12
-2.37134e-12
-2.42633e-12
-2.51251e-12
-2.65571e-12
-2.90265e-12
-3.33581e-12
-4.09566e-12
-5.40827e-12
-7.6112e-12
-1.11634e-11
-1.662e-11
-2.4568e-11
-3.55331e-11
-4.99031e-11
-6.78907e-11
-8.95549e-11
-1.14851e-10
-1.4369e-10
-1.75982e-10
-2.1166e-10
-2.50684e-10
-2.93039e-10
-3.38731e-10
-3.87776e-10
-4.40195e-10
-4.96013e-10
-5.55256e-10
-6.17948e-10
-6.84112e-10
-7.53772e-10
-8.26948e-10
-9.03661e-10
-9.8393e-10
-1.06777e-09
-1.15521e-09
-1.24625e-09
-1.34091e-09
-1.43921e-09
-1.54115e-09
-1.64676e-09
-1.75604e-09
-1.869e-09
-1.98566e-09
-2.10601e-09
-2.23008e-09
-2.35786e-09
-2.48936e-09
-2.6246e-09
-2.76356e-09
-2.90618e-09
-3.05245e-09
-3.20284e-09
-3.37482e-09
-3.6305e-09
-4.00813e-09
-4.37749e-09
-4.7384e-09
-5.09085e-09
-5.43486e-09
-5.77042e-09
-6.09753e-09
-6.41619e-09
-6.72641e-09
-7.02817e-09
-7.3215e-09
-7.60638e-09
-7.88282e-09
-8.15081e-09
-8.41036e-09
-8.66147e-09
-8.90414e-09
-9.13837e-09
-9.36416e-09
-9.58152e-09
-9.79044e-09
-9.99092e-09
-1.0183e-08
-1.03666e-08
-1.05418e-08
-1.07085e-08
-1.08668e-08
-1.10167e-08
-1.11582e-08
-1.12912e-08
-1.14159e-08
-1.15321e-08
-1.16398e-08
-1.17392e-08
-1.18301e-08
-1.19126e-08
-1.19867e-08
-1.20524e-08
-1.21097e-08
-1.21586e-08
-1.2199e-08
-1.22311e-08
-1.22547e-08
-1.227e-08
-1.22768e-08
-1.22752e-08
-1.22653e-08
-1.22469e-08
-1.22201e-08
-1.2185e-08
-1.21415e-08
-1.20895e-08
-1.20292e-08
-1.19605e-08
-1.18834e-08
-1.1798e-08
-1.17041e-08
-1.16019e-08
-1.14913e-08
-1.13723e-08
-1.1245e-08
-1.11093e-08
-1.09652e-08
-1.08127e-08
-1.06519e-08
-1.04828e-08
-1.03052e-08
-1.01194e-08
-9.92514e-09
-9.72256e-09
-9.51163e-09
-9.29235e-09
-9.06474e-09
-8.82878e-09
-8.58448e-09
-8.33184e-09
-8.07087e-09
-7.80157e-09
-7.52394e-09
-7.23798e-09
-6.9437e-09
-6.64109e-09
-6.33017e-09
-6.01093e-09
-5.68337e-09
-5.34751e-09
-5.00333e-09
-4.65084e-09
-4.29006e-09
-3.92097e-09
-3.54358e-09
-3.15789e-09
-2.76391e-09
-2.36164e-09
-1.95107e-09
-1.53223e-09
-1.10509e-09
-6.69679e-10
-2.25985e-10
)
;
    }
    outlet
    {
        type            cyclic;
        value           nonuniform List<scalar> 
200
(
5.24189e-13
9.01001e-13
1.04988e-12
1.12154e-12
1.16675e-12
1.20296e-12
1.23593e-12
1.26772e-12
1.29894e-12
1.32988e-12
1.36055e-12
1.39105e-12
1.4213e-12
1.45139e-12
1.48124e-12
1.51093e-12
1.54037e-12
1.56965e-12
1.59867e-12
1.62753e-12
1.65614e-12
1.68458e-12
1.71277e-12
1.74078e-12
1.76854e-12
1.79612e-12
1.82345e-12
1.85059e-12
1.87748e-12
1.90418e-12
1.93062e-12
1.95687e-12
1.98287e-12
2.00867e-12
2.03421e-12
2.05955e-12
2.08464e-12
2.10951e-12
2.13414e-12
2.15856e-12
2.18273e-12
2.20671e-12
2.2305e-12
2.25426e-12
2.27832e-12
2.30378e-12
2.33318e-12
2.37134e-12
2.42633e-12
2.51251e-12
2.65571e-12
2.90265e-12
3.33581e-12
4.09566e-12
5.40827e-12
7.6112e-12
1.11634e-11
1.662e-11
2.4568e-11
3.55331e-11
4.99031e-11
6.78907e-11
8.95549e-11
1.14851e-10
1.4369e-10
1.75982e-10
2.1166e-10
2.50684e-10
2.93039e-10
3.38731e-10
3.87776e-10
4.40195e-10
4.96013e-10
5.55256e-10
6.17948e-10
6.84112e-10
7.53772e-10
8.26948e-10
9.03661e-10
9.8393e-10
1.06777e-09
1.15521e-09
1.24625e-09
1.34091e-09
1.43921e-09
1.54115e-09
1.64676e-09
1.75604e-09
1.869e-09
1.98566e-09
2.10601e-09
2.23008e-09
2.35786e-09
2.48936e-09
2.6246e-09
2.76356e-09
2.90618e-09
3.05245e-09
3.20284e-09
3.37482e-09
3.6305e-09
4.00813e-09
4.37749e-09
4.7384e-09
5.09085e-09
5.43486e-09
5.77042e-09
6.09753e-09
6.41619e-09
6.72641e-09
7.02817e-09
7.3215e-09
7.60638e-09
7.88282e-09
8.15081e-09
8.41036e-09
8.66147e-09
8.90414e-09
9.13837e-09
9.36416e-09
9.58152e-09
9.79044e-09
9.99092e-09
1.0183e-08
1.03666e-08
1.05418e-08
1.07085e-08
1.08668e-08
1.10167e-08
1.11582e-08
1.12912e-08
1.14159e-08
1.15321e-08
1.16398e-08
1.17392e-08
1.18301e-08
1.19126e-08
1.19867e-08
1.20524e-08
1.21097e-08
1.21586e-08
1.2199e-08
1.22311e-08
1.22547e-08
1.227e-08
1.22768e-08
1.22752e-08
1.22653e-08
1.22469e-08
1.22201e-08
1.2185e-08
1.21415e-08
1.20895e-08
1.20292e-08
1.19605e-08
1.18834e-08
1.1798e-08
1.17041e-08
1.16019e-08
1.14913e-08
1.13723e-08
1.1245e-08
1.11093e-08
1.09652e-08
1.08127e-08
1.06519e-08
1.04828e-08
1.03052e-08
1.01194e-08
9.92514e-09
9.72256e-09
9.51163e-09
9.29235e-09
9.06474e-09
8.82878e-09
8.58448e-09
8.33184e-09
8.07087e-09
7.80157e-09
7.52394e-09
7.23798e-09
6.9437e-09
6.64109e-09
6.33017e-09
6.01093e-09
5.68337e-09
5.34751e-09
5.00333e-09
4.65084e-09
4.29006e-09
3.92097e-09
3.54358e-09
3.15789e-09
2.76391e-09
2.36164e-09
1.95107e-09
1.53223e-09
1.10509e-09
6.69679e-10
2.25985e-10
)
;
    }
    top
    {
        type            fixedValue;
        value           uniform 0;
    }
    bottom
    {
        type            fixedValue;
        value           uniform 0;
    }
    frontAndBackPlanes
    {
        type            empty;
        value           nonuniform List<scalar> 0();
    }
}


// ************************************************************************* //
