/*--------------------------------*- C++ -*----------------------------------*\
| =========                 |                                                 |
| \\      /  F ield         | OpenFOAM: The Open Source CFD Toolbox           |
|  \\    /   O peration     | Version:  2206                                  |
|   \\  /    A nd           | Website:  www.openfoam.com                      |
|    \\/     M anipulation  |                                                 |
\*---------------------------------------------------------------------------*/
FoamFile
{
    version     2.0;
    format      ascii;
    arch        "LSB;label=32;scalar=64";
    class       volTensorField;
    location    "200";
    object      Taua;
}
// * * * * * * * * * * * * * * * * * * * * * * * * * * * * * * * * * * * * * //

dimensions      [1 -1 -2 0 0 0 0];

internalField   nonuniform List<tensor> 
200
(
(-0.00510836 0 0 5.54135 0.0102167 0 0 0 -0.00510836)
(0.0053576 0 0 5.51298 -0.0107152 0 0 0 0.0053576)
(0.000699671 5.34106e-19 0 5.48145 -0.00139934 0 0 0 0.000699671)
(-0.000258891 -1.33526e-19 0 5.44867 0.000517782 0 0 0 -0.000258891)
(0.000685965 0 0 5.41528 -0.00137193 0 0 0 0.000685965)
(-0.000105225 1.33526e-19 0 5.38152 0.00021045 0 0 0 -0.000105225)
(0.000490669 0 0 5.34746 -0.000981338 0 0 0 0.000490669)
(9.71812e-05 0 0 5.31312 -0.000194362 0 0 0 9.71812e-05)
(0.000334269 5.34106e-19 0 5.27851 -0.000668538 0 0 0 0.000334269)
(0.000221756 0 0 5.24364 -0.000443512 0 0 0 0.000221756)
(0.000257965 0 0 5.2085 -0.00051593 0 0 0 0.000257965)
(0.000278586 0 0 5.1731 -0.000557172 0 0 0 0.000278586)
(0.00023333 5.34106e-19 0 5.13743 -0.00046666 0 0 0 0.00023333)
(0.000296937 0 0 5.1015 -0.000593875 0 0 0 0.000296937)
(0.000235812 0 0 5.0653 -0.000471624 0 0 0 0.000235812)
(0.00029667 1.06821e-18 0 5.02884 -0.00059334 0 0 0 0.00029667)
(0.000249148 0 0 4.99212 -0.000498296 0 0 0 0.000249148)
(0.000290727 0 0 4.95512 -0.000581454 0 0 0 0.000290727)
(0.000263431 1.06821e-18 0 4.91787 -0.000526861 0 0 0 0.000263431)
(0.000285632 0 0 4.88035 -0.000571265 0 0 0 0.000285632)
(0.000274558 0 0 4.84256 -0.000549115 0 0 0 0.000274558)
(0.000282929 1.06821e-18 0 4.80451 -0.000565857 0 0 0 0.000282929)
(0.000281882 0 0 4.76619 -0.000563764 0 0 0 0.000281882)
(0.000281771 0 0 4.7276 -0.000563542 0 0 0 0.000281771)
(0.000285612 0 0 4.68875 -0.000571224 0 0 0 0.000285612)
(0.000280478 0 0 4.64963 -0.000560955 0 0 0 0.000280478)
(0.000285707 2.13642e-18 0 4.61025 -0.000571413 0 0 0 0.000285707)
(0.000277537 0 0 4.5706 -0.000555074 0 0 0 0.000277537)
(0.000282392 0 0 4.53068 -0.000564785 0 0 0 0.000282392)
(0.000272218 0 0 4.4905 -0.000544436 0 0 0 0.000272218)
(0.000275345 0 0 4.45005 -0.000550689 0 0 0 0.000275345)
(0.000262376 0 0 4.40935 -0.000524751 0 0 0 0.000262376)
(0.000261528 2.13642e-18 0 4.36838 -0.000523055 0 0 0 0.000261528)
(0.000244328 0 0 4.32716 -0.000488655 0 0 0 0.000244328)
(0.000237762 0 0 4.28568 -0.000475523 0 0 0 0.000237762)
(0.000216496 0 0 4.24395 -0.000432993 0 0 0 0.000216496)
(0.000204889 0 0 4.20197 -0.000409778 0 0 0 0.000204889)
(0.000181379 0 0 4.15976 -0.000362758 0 0 0 0.000181379)
(0.000166583 2.13642e-18 0 4.1173 -0.000333165 0 0 0 0.000166583)
(0.000140703 0 0 4.07462 -0.000281405 0 0 0 0.000140703)
(0.000120674 0 0 4.03171 -0.000241348 0 0 0 0.000120674)
(8.59997e-05 0 0 3.98859 -0.000171999 0 0 0 8.59997e-05)
(5.21079e-05 0 0 3.94527 -0.000104216 0 0 0 5.21079e-05)
(2.2377e-06 2.13642e-18 0 3.90174 -4.4754e-06 0 0 0 2.2377e-06)
(-4.58649e-05 2.13642e-18 0 3.89334 9.17298e-05 0 0 0 -4.58649e-05)
(-9.84777e-05 0 0 3.94548 0.000196955 0 0 0 -9.84777e-05)
(-0.000134418 0 0 3.87481 0.000268837 0 0 0 -0.000134418)
(-0.000142444 0 0 3.79754 0.000284888 0 0 0 -0.000142444)
(-0.000133353 0 0 3.7272 0.000266706 0 0 0 -0.000133353)
(-0.000100854 0 0 3.6505 0.000201708 0 0 0 -0.000100854)
(-7.23074e-05 0 0 3.58049 0.000144615 0 0 0 -7.23074e-05)
(-4.08362e-05 0 0 3.5043 8.16724e-05 0 0 0 -4.08362e-05)
(-2.71674e-05 0 0 3.4346 5.43348e-05 0 0 0 -2.71674e-05)
(-1.21822e-05 0 0 3.35881 2.43645e-05 0 0 0 -1.21822e-05)
(-8.82482e-06 0 0 3.28931 1.76496e-05 0 0 0 -8.82482e-06)
(-3.39249e-06 0 0 3.21377 6.78497e-06 0 0 0 -3.39249e-06)
(-3.13979e-06 0 0 3.14434 6.27958e-06 0 0 0 -3.13979e-06)
(-1.15028e-06 0 0 3.06887 2.30056e-06 0 0 0 -1.15028e-06)
(-1.40049e-06 2.03569e-21 0 2.99938 2.80099e-06 0 0 0 -1.40049e-06)
(-4.98239e-07 0 0 2.92384 9.96477e-07 0 0 0 -4.98239e-07)
(-7.86207e-07 0 0 2.85422 1.57241e-06 0 0 0 -7.86207e-07)
(-2.58503e-07 0 0 2.77859 5.17006e-07 0 0 0 -2.58503e-07)
(-5.21403e-07 0 0 2.70884 1.04281e-06 0 0 0 -5.21403e-07)
(-1.4441e-07 0 0 2.63314 2.88821e-07 0 0 0 -1.4441e-07)
(-3.76905e-07 5.15945e-22 0 2.56332 7.5381e-07 0 0 0 -3.76905e-07)
(-7.46182e-08 0 0 2.4876 1.49236e-07 0 0 0 -7.46182e-08)
(-2.75123e-07 0 0 2.41776 5.50246e-07 0 0 0 -2.75123e-07)
(-2.55386e-08 0 0 2.34206 5.10773e-08 0 0 0 -2.55386e-08)
(-1.91304e-07 0 0 2.27221 3.82608e-07 0 0 0 -1.91304e-07)
(1.22233e-08 0 0 2.19655 -2.44466e-08 0 0 0 1.22233e-08)
(-1.1353e-07 0 0 2.12671 2.27061e-07 0 0 0 -1.1353e-07)
(4.09244e-08 -2.33699e-22 0 2.05109 -8.18489e-08 0 0 0 4.09244e-08)
(-3.55156e-08 0 0 1.98127 7.10312e-08 0 0 0 -3.55156e-08)
(6.05644e-08 0 0 1.9057 -1.21129e-07 0 0 0 6.05644e-08)
(4.80929e-08 1.75691e-22 0 1.8359 -9.61858e-08 0 0 0 4.80929e-08)
(7.11946e-08 0 0 1.76038 -1.42389e-07 0 0 0 7.11946e-08)
(1.38661e-07 0 0 1.69061 -2.77322e-07 0 0 0 1.38661e-07)
(7.28889e-08 -1.32863e-22 0 1.61514 -1.45778e-07 0 0 0 7.28889e-08)
(2.46452e-07 0 0 1.54541 -4.92903e-07 0 0 0 2.46452e-07)
(5.83483e-08 0 0 1.46999 -1.16697e-07 0 0 0 5.83483e-08)
(3.70124e-07 0 0 1.4003 -7.40248e-07 0 0 0 3.70124e-07)
(3.65681e-08 0 0 1.32493 -7.31363e-08 0 0 0 3.65681e-08)
(4.99446e-07 0 0 1.2553 -9.98892e-07 0 0 0 4.99446e-07)
(1.35531e-08 3.01569e-22 0 1.17998 -2.71061e-08 0 0 0 1.35531e-08)
(6.54581e-07 0 0 1.11042 -1.30916e-06 0 0 0 6.54581e-07)
(-9.43307e-09 0 0 1.03515 1.88661e-08 0 0 0 -9.43307e-09)
(8.61837e-07 0 0 0.965675 -1.72367e-06 0 0 0 8.61837e-07)
(-1.48684e-07 0 0 0.890462 2.97368e-07 0 0 0 -1.48684e-07)
(7.90595e-07 0 0 0.821098 -1.58119e-06 0 0 0 7.90595e-07)
(3.32827e-07 0 0 0.745934 -6.65653e-07 0 0 0 3.32827e-07)
(3.57159e-06 0 0 0.676714 -7.14319e-06 0 0 0 3.57159e-06)
(1.98019e-06 0 0 0.601612 -3.96037e-06 0 0 0 1.98019e-06)
(-9.94775e-06 0 0 0.532576 1.98955e-05 0 0 0 -9.94775e-06)
(-3.25429e-05 0 0 0.457494 6.50859e-05 0 0 0 -3.25429e-05)
(1.48519e-05 0 0 0.388598 -2.97039e-05 0 0 0 1.48519e-05)
(0.000187564 0 0 0.313821 -0.000375128 0 0 0 0.000187564)
(0.000225559 0 0 0.24669 -0.000451118 0 0 0 0.000225559)
(-0.000405629 0 0 0.173262 0.000811258 0 0 0 -0.000405629)
(-0.00179057 0 0 0.0983683 0.00358113 0 0 0 -0.00179057)
(0.000131013 0 0 0.00131121 -0.000262027 0 0 0 0.000131013)
(1.17619e-07 0 0 2.39099e-06 -2.35238e-07 0 0 0 1.17619e-07)
(4.07662e-09 0 0 3.253e-07 -8.15325e-09 0 0 0 4.07662e-09)
(1.49938e-08 0 0 3.06254e-07 -2.99876e-08 0 0 0 1.49938e-08)
(5.89441e-09 0 0 3.1933e-07 -1.17888e-08 0 0 0 5.89441e-09)
(1.79624e-09 0 0 3.19732e-07 -3.59249e-09 0 0 0 1.79624e-09)
(5.49071e-10 0 0 3.19936e-07 -1.09814e-09 0 0 0 5.49071e-10)
(1.82561e-10 0 0 3.20018e-07 -3.65121e-10 0 0 0 1.82561e-10)
(6.22847e-11 0 0 3.19998e-07 -1.24569e-10 0 0 0 6.22847e-11)
(2.10834e-11 0 0 3.2e-07 -4.21669e-11 0 0 0 2.10834e-11)
(7.27714e-12 0 0 3.20001e-07 -1.45543e-11 0 0 0 7.27714e-12)
(2.59604e-12 0 0 3.2e-07 -5.19208e-12 0 0 0 2.59604e-12)
(9.3155e-13 0 0 3.2e-07 -1.8631e-12 0 0 0 9.3155e-13)
(3.32069e-13 0 0 3.2e-07 -6.64138e-13 0 0 0 3.32069e-13)
(1.20755e-13 0 0 3.2e-07 -2.4151e-13 0 0 0 1.20755e-13)
(4.63274e-14 0 0 3.2e-07 -9.26548e-14 0 0 0 4.63274e-14)
(1.92809e-14 0 0 3.2e-07 -3.85617e-14 0 0 0 1.92809e-14)
(9.13991e-15 0 0 3.2e-07 -1.82798e-14 0 0 0 9.13991e-15)
(5.26807e-15 0 0 3.2e-07 -1.05361e-14 0 0 0 5.26807e-15)
(3.69904e-15 0 0 3.20001e-07 -7.39807e-15 0 0 0 3.69904e-15)
(2.805e-15 0 0 3.20001e-07 -5.60999e-15 0 0 0 2.805e-15)
(1.68668e-15 0 0 3.20001e-07 -3.37336e-15 0 0 0 1.68668e-15)
(-6.84527e-16 0 0 3.20001e-07 1.36905e-15 0 0 0 -6.84527e-16)
(-6.42237e-15 0 0 3.20001e-07 1.28447e-14 0 0 0 -6.42237e-15)
(-2.05059e-14 0 0 3.20001e-07 4.10118e-14 0 0 0 -2.05059e-14)
(-5.40873e-14 0 0 3.20001e-07 1.08175e-13 0 0 0 -5.40873e-14)
(-1.2972e-13 0 0 3.20001e-07 2.5944e-13 0 0 0 -1.2972e-13)
(-2.89616e-13 0 0 3.20001e-07 5.79232e-13 0 0 0 -2.89616e-13)
(-6.17192e-13 0 0 3.20001e-07 1.23438e-12 0 0 0 -6.17192e-13)
(-1.31707e-12 0 0 3.20001e-07 2.63413e-12 0 0 0 -1.31707e-12)
(-2.95064e-12 0 0 3.20001e-07 5.90127e-12 0 0 0 -2.95064e-12)
(-6.94005e-12 0 0 3.20001e-07 1.38801e-11 0 0 0 -6.94005e-12)
(-1.56487e-11 0 0 3.20001e-07 3.12975e-11 0 0 0 -1.56487e-11)
(-4.52916e-11 0 0 3.20002e-07 9.05832e-11 0 0 0 -4.52916e-11)
(-6.33444e-12 0 0 3.20008e-07 1.26689e-11 0 0 0 -6.33444e-12)
(1.99811e-12 0 0 3.20009e-07 -3.99622e-12 0 0 0 1.99811e-12)
(1.14634e-10 -4.3551e-17 0 2.21096e-07 -2.29265e-10 0 0 0 1.14631e-10)
(-1.8105e-11 0 0 -3.2e-07 3.621e-11 0 0 0 -1.8105e-11)
(-1.81049e-11 0 0 -3.2e-07 3.62099e-11 0 0 0 -1.81049e-11)
(-7.9157e-11 0 0 2.02108e-07 1.58314e-10 0 0 0 -7.9157e-11)
(2.54793e-11 0 0 3.19994e-07 -5.09586e-11 0 0 0 2.54793e-11)
(2.87882e-11 0 0 3.19994e-07 -5.75764e-11 0 0 0 2.87882e-11)
(4.51104e-11 0 0 3.2e-07 -9.02209e-11 0 0 0 4.51104e-11)
(-6.48362e-11 0 0 3.20002e-07 1.29672e-10 0 0 0 -6.48362e-11)
(-1.20524e-11 0 0 3.20004e-07 2.41047e-11 0 0 0 -1.20524e-11)
(-7.43891e-12 0 0 3.20004e-07 1.48778e-11 0 0 0 -7.43891e-12)
(7.78141e-12 0 0 -1.04874e-08 -1.55628e-11 0 0 0 7.78141e-12)
(9.64576e-12 0 0 -3.20004e-07 -1.92915e-11 0 0 0 9.64576e-12)
(1.40065e-11 0 0 -3.20003e-07 -2.8013e-11 0 0 0 1.40065e-11)
(8.19444e-11 0 0 -3.19999e-07 -1.63889e-10 0 0 0 8.19444e-11)
(4.36113e-11 0 0 -3.19995e-07 -8.72225e-11 0 0 0 4.36113e-11)
(2.56539e-11 0 0 -3.19994e-07 -5.13079e-11 0 0 0 2.56539e-11)
(1.47716e-11 0 0 -3.19994e-07 -2.95432e-11 0 0 0 1.47716e-11)
(8.5494e-12 0 0 -3.19995e-07 -1.70988e-11 0 0 0 8.5494e-12)
(4.96155e-12 0 0 -3.19996e-07 -9.9231e-12 0 0 0 4.96155e-12)
(2.87257e-12 5.6679e-23 0 -3.19997e-07 -5.74513e-12 0 0 0 2.87257e-12)
(1.63609e-12 0 0 -3.19997e-07 -3.27219e-12 0 0 0 1.63609e-12)
(9.0577e-13 0 0 -3.19997e-07 -1.81154e-12 0 0 0 9.0577e-13)
(4.86008e-13 0 0 -3.19997e-07 -9.72016e-13 0 0 0 4.86008e-13)
(2.54446e-13 0 0 -3.19998e-07 -5.08893e-13 0 0 0 2.54446e-13)
(1.31887e-13 0 0 -3.19998e-07 -2.63775e-13 0 0 0 1.31887e-13)
(6.90786e-14 0 0 -3.19998e-07 -1.38157e-13 0 0 0 6.90786e-14)
(3.7491e-14 0 0 -3.19998e-07 -7.49819e-14 0 0 0 3.7491e-14)
(2.16998e-14 0 0 -3.19998e-07 -4.33996e-14 0 0 0 2.16998e-14)
(1.37692e-14 0 0 -3.19998e-07 -2.75384e-14 0 0 0 1.37692e-14)
(9.72398e-15 0 0 -3.19998e-07 -1.9448e-14 0 0 0 9.72398e-15)
(7.59237e-15 0 0 -3.19998e-07 -1.51847e-14 0 0 0 7.59237e-15)
(6.39935e-15 0 0 -3.19998e-07 -1.27987e-14 0 0 0 6.39935e-15)
(5.66656e-15 0 0 -3.19998e-07 -1.13331e-14 0 0 0 5.66656e-15)
(5.16496e-15 0 0 -3.19999e-07 -1.03299e-14 0 0 0 5.16496e-15)
(4.78835e-15 0 0 -3.19999e-07 -9.5767e-15 0 0 0 4.78835e-15)
(4.48646e-15 0 0 -3.19999e-07 -8.97292e-15 0 0 0 4.48646e-15)
(4.23196e-15 0 0 -3.19999e-07 -8.46392e-15 0 0 0 4.23196e-15)
(4.00836e-15 0 0 -3.19999e-07 -8.01672e-15 0 0 0 4.00836e-15)
(3.80738e-15 0 0 -3.19999e-07 -7.61475e-15 0 0 0 3.80738e-15)
(3.62666e-15 0 0 -3.19999e-07 -7.25332e-15 0 0 0 3.62666e-15)
(3.46537e-15 0 0 -3.19999e-07 -6.93075e-15 0 0 0 3.46537e-15)
(3.32065e-15 0 0 -3.19999e-07 -6.6413e-15 0 0 0 3.32065e-15)
(3.18773e-15 0 0 -3.19999e-07 -6.37546e-15 0 0 0 3.18773e-15)
(3.06263e-15 0 0 -3.19999e-07 -6.12526e-15 0 0 0 3.06263e-15)
(2.94359e-15 0 0 -3.19999e-07 -5.88719e-15 0 0 0 2.94359e-15)
(2.8287e-15 0 0 -3.19999e-07 -5.65739e-15 0 0 0 2.8287e-15)
(2.7095e-15 0 0 -3.19999e-07 -5.419e-15 0 0 0 2.7095e-15)
(2.55874e-15 0 0 -3.19999e-07 -5.11749e-15 0 0 0 2.55874e-15)
(2.29864e-15 0 0 -3.19999e-07 -4.59727e-15 0 0 0 2.29864e-15)
(1.70434e-15 0 0 -3.19999e-07 -3.40868e-15 0 0 0 1.70434e-15)
(1.05471e-16 0 0 -3.19999e-07 -2.10942e-16 0 0 0 1.05471e-16)
(-4.53315e-15 0 0 -3.19999e-07 9.0663e-15 0 0 0 -4.53315e-15)
(-1.84593e-14 0 0 -3.19999e-07 3.69186e-14 0 0 0 -1.84593e-14)
(-6.10482e-14 0 0 -3.19999e-07 1.22096e-13 0 0 0 -6.10482e-14)
(-1.93003e-13 0 0 -3.19999e-07 3.86005e-13 0 0 0 -1.93003e-13)
(-6.06452e-13 0 0 -3.19999e-07 1.2129e-12 0 0 0 -6.06452e-13)
(-1.91564e-12 0 0 -3.19999e-07 3.83127e-12 0 0 0 -1.91564e-12)
(-6.10388e-12 1.06087e-23 0 -3.19999e-07 1.22078e-11 0 0 0 -6.10388e-12)
(-1.96392e-11 0 0 -3.19999e-07 3.92784e-11 0 0 0 -1.96392e-11)
(-6.38137e-11 -1.01733e-23 0 -3.19999e-07 1.27627e-10 0 0 0 -6.38137e-11)
(-2.0939e-10 9.97043e-24 0 -3.19998e-07 4.18779e-10 0 0 0 -2.0939e-10)
(-6.91662e-10 0 0 -3.19986e-07 1.38332e-09 0 0 0 -6.91662e-10)
(-2.32131e-09 -9.72933e-24 0 -3.19848e-07 4.64261e-09 0 0 0 -2.32131e-09)
(-7.77152e-09 0 0 -3.18296e-07 1.5543e-08 0 0 0 -7.77152e-09)
(-3.2044e-08 0 0 -2.89684e-07 6.40881e-08 0 0 0 -3.2044e-08)
)
;

boundaryField
{
    inlet
    {
        type            cyclic;
    }
    outlet
    {
        type            cyclic;
    }
    top
    {
        type            extrapolatedCalculated;
        value           uniform (-4.44847e-08 0 0 -2.58418e-07 8.89693e-08 0 0 0 -4.44847e-08);
    }
    bottom
    {
        type            extrapolatedCalculated;
        value           uniform (-0.016431 0 0 5.5544 0.0328619 0 0 0 -0.016431);
    }
    frontAndBackPlanes
    {
        type            empty;
    }
}


// ************************************************************************* //
