/*--------------------------------*- C++ -*----------------------------------*\
| =========                 |                                                 |
| \\      /  F ield         | OpenFOAM: The Open Source CFD Toolbox           |
|  \\    /   O peration     | Version:  2206                                  |
|   \\  /    A nd           | Website:  www.openfoam.com                      |
|    \\/     M anipulation  |                                                 |
\*---------------------------------------------------------------------------*/
FoamFile
{
    version     2.0;
    format      ascii;
    arch        "LSB;label=32;scalar=64";
    class       volTensorField;
    location    "200";
    object      Taub;
}
// * * * * * * * * * * * * * * * * * * * * * * * * * * * * * * * * * * * * * //

dimensions      [1 -1 -2 0 0 0 0];

internalField   nonuniform List<tensor> 
200
(
(-1.09285e-07 0 0 0.00699301 2.1857e-07 0 0 0 -1.09285e-07)
(6.13445e-08 0 0 0.00257926 -1.22689e-07 0 0 0 6.13445e-08)
(-4.34874e-09 -3.77969e-24 0 0.00108201 8.69748e-09 0 0 0 -4.34874e-09)
(-2.84562e-08 -1.51178e-23 0 0.000573356 5.69124e-08 0 0 0 -2.84562e-08)
(-1.61896e-08 0 0 0.000399471 3.23792e-08 0 0 0 -1.61896e-08)
(-2.53583e-08 -3.02331e-23 0 0.000339381 5.07166e-08 0 0 0 -2.53583e-08)
(-1.71452e-08 3.0232e-23 0 0.000317676 3.42905e-08 0 0 0 -1.71452e-08)
(-2.35274e-08 0 0 0.000309079 4.70547e-08 0 0 0 -2.35274e-08)
(-1.98222e-08 -3.02292e-23 0 0.000304892 3.96444e-08 0 0 0 -1.98222e-08)
(-2.22296e-08 0 0 0.000302173 4.44592e-08 0 0 0 -2.22296e-08)
(-2.15054e-08 0 0 0.000299988 4.30108e-08 0 0 0 -2.15054e-08)
(-2.17988e-08 0 0 0.00029792 4.35976e-08 0 0 0 -2.17988e-08)
(-2.23996e-08 -6.04473e-23 0 0.000295938 4.47991e-08 0 0 0 -2.23996e-08)
(-2.1924e-08 0 0 0.000293927 4.38479e-08 0 0 0 -2.1924e-08)
(-2.28777e-08 0 0 0.000291938 4.57554e-08 0 0 0 -2.28777e-08)
(-2.23162e-08 -6.0438e-23 0 0.000289917 4.46325e-08 0 0 0 -2.23162e-08)
(-2.31555e-08 0 0 0.000287896 4.63111e-08 0 0 0 -2.31555e-08)
(-2.27725e-08 0 0 0.000285856 4.55449e-08 0 0 0 -2.27725e-08)
(-2.33503e-08 0 0 0.000283804 4.67007e-08 0 0 0 -2.33503e-08)
(-2.3194e-08 0 0 0.000281742 4.63879e-08 0 0 0 -2.3194e-08)
(-2.35317e-08 0 0 0.00027966 4.70634e-08 0 0 0 -2.35317e-08)
(-2.35338e-08 -1.20839e-22 0 0.000277574 4.70676e-08 0 0 0 -2.35338e-08)
(-2.36761e-08 0 0 0.000275465 4.73522e-08 0 0 0 -2.36761e-08)
(-2.37334e-08 0 0 0.000273354 4.74668e-08 0 0 0 -2.37334e-08)
(-2.37179e-08 0 0 0.000271218 4.74358e-08 0 0 0 -2.37179e-08)
(-2.37519e-08 0 0 0.000269081 4.75038e-08 0 0 0 -2.37519e-08)
(-2.3596e-08 -1.20807e-22 0 0.00026692 4.7192e-08 0 0 0 -2.3596e-08)
(-2.35456e-08 0 0 0.000264758 4.70912e-08 0 0 0 -2.35456e-08)
(-2.32516e-08 0 0 0.000262572 4.65032e-08 0 0 0 -2.32516e-08)
(-2.30769e-08 0 0 0.000260384 4.61538e-08 0 0 0 -2.30769e-08)
(-2.26112e-08 0 0 0.000258174 4.52225e-08 0 0 0 -2.26112e-08)
(-2.22051e-08 0 0 0.000255962 4.44102e-08 0 0 0 -2.22051e-08)
(-2.14263e-08 -2.41527e-22 0 0.000253729 4.28525e-08 0 0 0 -2.14263e-08)
(-2.06232e-08 0 0 0.000251493 4.12465e-08 0 0 0 -2.06232e-08)
(-1.94307e-08 0 0 0.000249238 3.88615e-08 0 0 0 -1.94307e-08)
(-1.82214e-08 0 0 0.00024698 3.64427e-08 0 0 0 -1.82214e-08)
(-1.67079e-08 0 0 0.000244707 3.34158e-08 0 0 0 -1.67079e-08)
(-1.52281e-08 0 0 0.000242433 3.04562e-08 0 0 0 -1.52281e-08)
(-1.35003e-08 -2.41434e-22 0 0.000240157 2.70006e-08 0 0 0 -1.35003e-08)
(-1.17466e-08 0 0 0.000237909 2.34932e-08 0 0 0 -1.17466e-08)
(-9.57839e-09 0 0 0.000235746 1.91568e-08 0 0 0 -9.57839e-09)
(-7.05374e-09 0 0 0.000233861 1.41075e-08 0 0 0 -7.05374e-09)
(-3.79511e-09 0 0 0.000232791 7.59022e-09 0 0 0 -3.79511e-09)
(-4.65868e-11 -2.41347e-22 0 0.000234112 9.31737e-11 0 0 0 -4.65868e-11)
(4.22326e-09 -2.4133e-22 0 0.000242407 -8.44652e-09 0 0 0 4.22326e-09)
(8.91447e-09 0 0 0.000268497 -1.78289e-08 0 0 0 8.91447e-09)
(1.42945e-08 0 0 0.000330607 -2.85891e-08 0 0 0 1.42945e-08)
(2.06842e-08 0 0 0.000455834 -4.13684e-08 0 0 0 2.06842e-08)
(2.75801e-08 0 0 0.000690797 -5.51603e-08 0 0 0 2.75801e-08)
(3.46786e-08 0 0 0.00112234 -6.93572e-08 0 0 0 3.46786e-08)
(3.99816e-08 0 0 0.00190871 -7.99631e-08 0 0 0 3.99816e-08)
(4.50475e-08 0 0 0.00332703 -9.00951e-08 0 0 0 4.50475e-08)
(4.65095e-08 -1.20587e-22 0 0.00583573 -9.3019e-08 0 0 0 4.65095e-08)
(4.91957e-08 0 0 0.0101367 -9.83914e-08 0 0 0 4.91957e-08)
(4.69079e-08 0 0 0.0171935 -9.38159e-08 0 0 0 4.69079e-08)
(4.91052e-08 0 0 0.028144 -9.82105e-08 0 0 0 4.91052e-08)
(4.54159e-08 0 0 0.0440514 -9.08318e-08 0 0 0 4.54159e-08)
(4.90218e-08 0 0 0.0655389 -9.80436e-08 0 0 0 4.90218e-08)
(4.45456e-08 -6.02596e-23 0 0.0924626 -8.90912e-08 0 0 0 4.45456e-08)
(4.91952e-08 0 0 0.123846 -9.83904e-08 0 0 0 4.91952e-08)
(4.34377e-08 0 0 0.158159 -8.68755e-08 0 0 0 4.34377e-08)
(4.86453e-08 0 0 0.19379 -9.72907e-08 0 0 0 4.86453e-08)
(4.13254e-08 0 0 0.229483 -8.26509e-08 0 0 0 4.13254e-08)
(4.67378e-08 0 0 0.264516 -9.34756e-08 0 0 0 4.67378e-08)
(3.76091e-08 -1.50551e-23 0 0.298669 -7.52182e-08 0 0 0 3.76091e-08)
(4.2698e-08 0 0 0.332038 -8.53959e-08 0 0 0 4.2698e-08)
(3.16256e-08 0 0 0.364878 -6.32512e-08 0 0 0 3.16256e-08)
(3.58053e-08 -3.76239e-24 0 0.397444 -7.16105e-08 0 0 0 3.58053e-08)
(2.28045e-08 0 0 0.429959 -4.56089e-08 0 0 0 2.28045e-08)
(2.50545e-08 0 0 0.462558 -5.01091e-08 0 0 0 2.50545e-08)
(1.02116e-08 0 0 0.495338 -2.04233e-08 0 0 0 1.02116e-08)
(9.0143e-09 0 0 0.528329 -1.80286e-08 0 0 0 9.0143e-09)
(-7.19097e-09 0 0 0.561557 1.43819e-08 0 0 0 -7.19097e-09)
(-1.434e-08 0 0 0.595009 2.86799e-08 0 0 0 -1.434e-08)
(-3.08135e-08 3.00692e-23 0 0.62869 6.1627e-08 0 0 0 -3.08135e-08)
(-4.76915e-08 0 0 0.662573 9.5383e-08 0 0 0 -4.76915e-08)
(-6.28204e-08 0 0 0.696664 1.25641e-07 0 0 0 -6.28204e-08)
(-9.57635e-08 -3.00535e-23 0 0.730931 1.91527e-07 0 0 0 -9.57635e-08)
(-1.05855e-07 0 0 0.765381 2.11709e-07 0 0 0 -1.05855e-07)
(-1.6433e-07 0 0 0.799981 3.2866e-07 0 0 0 -1.6433e-07)
(-1.63285e-07 0 0 0.834742 3.26569e-07 0 0 0 -1.63285e-07)
(-2.60737e-07 0 0 0.869627 5.21474e-07 0 0 0 -2.60737e-07)
(-2.44237e-07 0 0 0.904653 4.88475e-07 0 0 0 -2.44237e-07)
(-4.01886e-07 0 0 0.939774 8.03771e-07 0 0 0 -4.01886e-07)
(-3.6269e-07 0 0 0.975015 7.2538e-07 0 0 0 -3.6269e-07)
(-6.11745e-07 0 0 1.01032 1.22349e-06 0 0 0 -6.11745e-07)
(-5.45992e-07 0 0 1.04573 1.09198e-06 0 0 0 -5.45992e-07)
(-1.05156e-06 0 0 1.08118 2.10313e-06 0 0 0 -1.05156e-06)
(-1.09726e-06 0 0 1.1167 2.19452e-06 0 0 0 -1.09726e-06)
(-1.19829e-06 -9.58759e-22 0 1.15221 2.39658e-06 0 0 0 -1.19829e-06)
(1.05445e-06 0 0 1.18778 -2.1089e-06 0 0 0 1.05445e-06)
(-4.67661e-07 0 0 1.22331 9.35321e-07 0 0 0 -4.67661e-07)
(-1.95694e-05 0 0 1.25887 3.91388e-05 0 0 0 -1.95694e-05)
(-5.68417e-05 0 0 1.29435 0.000113683 0 0 0 -5.68417e-05)
(2.03326e-05 0 0 1.32972 -4.06653e-05 0 0 0 2.03326e-05)
(0.000411781 0 0 1.36444 -0.000823562 0 0 0 0.000411781)
(0.000592512 0 0 1.39862 -0.00118502 0 0 0 0.000592512)
(-0.00166963 0 0 1.43449 0.00333926 0 0 0 -0.00166963)
(-0.00749698 0 0 1.55594 0.014994 0 0 0 -0.00749698)
(-0.00614319 0 0 1.55191 0.0122864 0 0 0 -0.00614319)
(0.00260756 0 0 1.24476 -0.00521512 0 0 0 0.00260756)
(0.00413353 0 0 1.46688 -0.00826706 0 0 0 0.00413353)
(0.000270655 0 0 1.43401 -0.00054131 0 0 0 0.000270655)
(-0.000282821 0 0 1.40083 0.000565643 0 0 0 -0.000282821)
(-7.27215e-05 0 0 1.36764 0.000145443 0 0 0 -7.27215e-05)
(8.77451e-06 0 0 1.33446 -1.7549e-05 0 0 0 8.77451e-06)
(7.54681e-06 0 0 1.30128 -1.50936e-05 0 0 0 7.54681e-06)
(8.72936e-07 0 0 1.2681 -1.74587e-06 0 0 0 8.72936e-07)
(-5.31047e-07 0 0 1.23492 1.06209e-06 0 0 0 -5.31047e-07)
(-2.08218e-07 0 0 1.20175 4.16436e-07 0 0 0 -2.08218e-07)
(1.04678e-08 0 0 1.16858 -2.09356e-08 0 0 0 1.04678e-08)
(2.2961e-08 0 0 1.13542 -4.5922e-08 0 0 0 2.2961e-08)
(3.48417e-09 0 0 1.10225 -6.96834e-09 0 0 0 3.48417e-09)
(-1.33659e-09 0 0 1.06909 2.67318e-09 0 0 0 -1.33659e-09)
(-5.66011e-10 0 0 1.03594 1.13202e-09 0 0 0 -5.66011e-10)
(-8.01282e-12 0 0 1.00278 1.60256e-11 0 0 0 -8.01282e-12)
(5.08049e-11 0 0 0.969634 -1.0161e-10 0 0 0 5.08049e-11)
(1.45058e-11 0 0 0.936487 -2.90116e-11 0 0 0 1.45058e-11)
(-5.28883e-13 0 0 0.903345 1.05777e-12 0 0 0 -5.28883e-13)
(-1.09431e-12 0 0 0.870206 2.18863e-12 0 0 0 -1.09431e-12)
(-4.3048e-13 0 0 0.837071 8.60961e-13 0 0 0 -4.3048e-13)
(-1.25177e-12 0 0 0.80394 2.50355e-12 0 0 0 -1.25177e-12)
(-1.69065e-12 0 0 0.770813 3.3813e-12 0 0 0 -1.69065e-12)
(-2.14665e-12 0 0 0.737691 4.2933e-12 0 0 0 -2.14665e-12)
(-1.55389e-12 0 0 0.704573 3.10777e-12 0 0 0 -1.55389e-12)
(-6.18506e-13 0 0 0.67146 1.23701e-12 0 0 0 -6.18506e-13)
(-3.17889e-13 0 0 0.638352 6.35778e-13 0 0 0 -3.17889e-13)
(2.032e-12 0 0 0.605248 -4.064e-12 0 0 0 2.032e-12)
(9.85679e-13 0 0 0.572149 -1.97136e-12 0 0 0 9.85679e-13)
(2.14733e-12 0 0 0.539056 -4.29466e-12 0 0 0 2.14733e-12)
(2.56335e-12 0 0 0.505967 -5.12671e-12 0 0 0 2.56335e-12)
(-1.18255e-12 0 0 0.472884 2.36509e-12 0 0 0 -1.18255e-12)
(1.37001e-12 0 0 0.439807 -2.74002e-12 0 0 0 1.37001e-12)
(-1.09715e-12 0 0 0.406735 2.19429e-12 0 0 0 -1.09715e-12)
(-4.08598e-12 0 0 0.373669 8.17196e-12 0 0 0 -4.08598e-12)
(6.13221e-13 3.6933e-28 0 0.340608 -1.22644e-12 0 0 0 6.13221e-13)
(-1.60876e-12 0 0 0.307554 3.21753e-12 0 0 0 -1.60876e-12)
(-3.06148e-12 0 0 0.274505 6.12295e-12 0 0 0 -3.06148e-12)
(3.06922e-12 0 0 0.241463 -6.13844e-12 0 0 0 3.06922e-12)
(2.19924e-12 0 0 0.208427 -4.39848e-12 0 0 0 2.19924e-12)
(-1.2006e-12 0 0 0.175397 2.4012e-12 0 0 0 -1.2006e-12)
(2.95684e-12 0 0 0.142374 -5.91368e-12 0 0 0 2.95684e-12)
(3.51005e-12 0 0 0.109358 -7.02011e-12 0 0 0 3.51005e-12)
(-2.45463e-12 0 0 0.0763479 4.90925e-12 0 0 0 -2.45463e-12)
(-2.5367e-12 0 0 0.043345 5.07339e-12 0 0 0 -2.5367e-12)
(1.20038e-12 0 0 0.0103491 -2.40077e-12 0 0 0 1.20038e-12)
(-1.24912e-12 0 0 -0.0226398 2.49823e-12 0 0 0 -1.24912e-12)
(-4.38487e-12 0 0 -0.0556215 8.76975e-12 0 0 0 -4.38487e-12)
(-3.84976e-13 0 0 -0.088596 7.69952e-13 0 0 0 -3.84976e-13)
(3.78707e-12 0 0 -0.121563 -7.57414e-12 0 0 0 3.78707e-12)
(1.41073e-12 0 0 -0.154523 -2.82145e-12 0 0 0 1.41073e-12)
(-1.1338e-12 0 0 -0.187475 2.2676e-12 0 0 0 -1.1338e-12)
(1.52183e-12 0 0 -0.220419 -3.04367e-12 0 0 0 1.52183e-12)
(3.41611e-12 0 0 -0.253356 -6.83221e-12 0 0 0 3.41611e-12)
(-3.76695e-13 0 0 -0.286284 7.50141e-13 0 0 0 -3.73446e-13)
(-4.31582e-12 0 0 -0.319205 8.63163e-12 0 0 0 -4.31582e-12)
(-2.58467e-12 0 0 -0.352118 5.16934e-12 0 0 0 -2.58467e-12)
(1.1983e-12 0 0 -0.385023 -2.39659e-12 0 0 0 1.1983e-12)
(1.05848e-12 0 0 -0.417919 -2.11696e-12 0 0 0 1.05848e-12)
(-1.40777e-12 0 0 -0.450807 2.81553e-12 0 0 0 -1.40777e-12)
(-7.38025e-13 0 0 -0.483687 1.47605e-12 0 0 0 -7.38025e-13)
(2.83916e-12 0 0 -0.516558 -5.67832e-12 0 0 0 2.83916e-12)
(3.85281e-12 0 0 -0.549421 -7.70561e-12 0 0 0 3.85281e-12)
(3.03459e-13 0 0 -0.582275 -6.06919e-13 0 0 0 3.03459e-13)
(-3.37076e-12 0 0 -0.615121 6.74151e-12 0 0 0 -3.37076e-12)
(-2.86172e-12 0 0 -0.647958 5.72344e-12 0 0 0 -2.86172e-12)
(2.72527e-13 0 0 -0.680786 -5.45054e-13 0 0 0 2.72527e-13)
(1.50758e-12 0 0 -0.713605 -3.01516e-12 0 0 0 1.50758e-12)
(-2.02199e-13 0 0 -0.746415 4.04398e-13 0 0 0 -2.02199e-13)
(-1.54457e-12 0 0 -0.779216 3.08914e-12 0 0 0 -1.54457e-12)
(3.77478e-14 0 0 -0.812008 -7.54956e-14 0 0 0 3.77478e-14)
(2.73854e-12 0 0 -0.844791 -5.47709e-12 0 0 0 2.73854e-12)
(2.8828e-12 0 0 -0.877564 -5.7656e-12 0 0 0 2.8828e-12)
(-2.09989e-13 0 0 -0.910329 4.19979e-13 0 0 0 -2.09989e-13)
(-3.30631e-12 0 0 -0.943084 6.61262e-12 0 0 0 -3.30631e-12)
(-3.13176e-12 0 0 -0.975829 6.26353e-12 0 0 0 -3.13176e-12)
(-8.4078e-14 0 0 -1.00857 1.68156e-13 0 0 0 -8.4078e-14)
(2.46651e-12 0 0 -1.04129 -4.93302e-12 0 0 0 2.46651e-12)
(2.07566e-12 0 0 -1.07401 -4.15133e-12 0 0 0 2.07566e-12)
(-2.93567e-13 0 0 -1.10672 5.87135e-13 0 0 0 -2.93567e-13)
(-1.72159e-12 0 0 -1.13942 3.44318e-12 0 0 0 -1.72159e-12)
(-7.02244e-13 0 0 -1.1721 1.40449e-12 0 0 0 -7.02244e-13)
(1.36745e-12 0 0 -1.20478 -2.7349e-12 0 0 0 1.36745e-12)
(1.94383e-12 0 0 -1.23745 -3.88766e-12 0 0 0 1.94383e-12)
(1.75962e-13 0 0 -1.27011 -3.51925e-13 0 0 0 1.75962e-13)
(-2.21467e-12 0 0 -1.30276 4.42935e-12 0 0 0 -2.21467e-12)
(-2.76235e-12 0 0 -1.3354 5.5247e-12 0 0 0 -2.76235e-12)
(-7.64385e-13 0 0 -1.36803 1.52877e-12 0 0 0 -7.64385e-13)
(2.04559e-12 0 0 -1.40065 -4.09118e-12 0 0 0 2.04559e-12)
(3.18464e-12 0 0 -1.43326 -6.36928e-12 0 0 0 3.18464e-12)
(1.71776e-12 0 0 -1.46586 -3.43552e-12 0 0 0 1.71776e-12)
(-9.9628e-13 0 0 -1.49845 1.99256e-12 0 0 0 -9.9628e-13)
(-2.65255e-12 3.6933e-28 0 -1.53103 5.30428e-12 0 0 0 -2.65174e-12)
(-2.06279e-12 0 0 -1.5636 4.12557e-12 0 0 0 -2.06279e-12)
(-6.30447e-14 7.3866e-28 0 -1.59616 1.26089e-13 0 0 0 -6.30447e-14)
(1.51302e-12 0 0 -1.62871 -3.02604e-12 0 0 0 1.51302e-12)
(1.61399e-12 0 0 -1.66125 -3.22798e-12 0 0 0 1.61399e-12)
(4.58116e-13 -3.6933e-28 0 -1.69378 -9.16232e-13 0 0 0 4.58116e-13)
(-9.22744e-13 0 0 -1.7263 1.84549e-12 0 0 0 -9.22744e-13)
(-3.74494e-13 -9.23325e-29 0 -1.75881 7.48938e-13 0 0 0 -3.74444e-13)
)
;

boundaryField
{
    inlet
    {
        type            cyclic;
    }
    outlet
    {
        type            cyclic;
    }
    top
    {
        type            extrapolatedCalculated;
        value           uniform (7.49079e-13 -9.23325e-29 0 -1.77507 -1.49821e-12 0 0 0 7.4913e-13);
    }
    bottom
    {
        type            extrapolatedCalculated;
        value           uniform (-2.81403e-07 0 0 0.0102882 5.62807e-07 0 0 0 -2.81403e-07);
    }
    frontAndBackPlanes
    {
        type            empty;
    }
}


// ************************************************************************* //
