/*--------------------------------*- C++ -*----------------------------------*\
| =========                 |                                                 |
| \\      /  F ield         | OpenFOAM: The Open Source CFD Toolbox           |
|  \\    /   O peration     | Version:  2206                                  |
|   \\  /    A nd           | Website:  www.openfoam.com                      |
|    \\/     M anipulation  |                                                 |
\*---------------------------------------------------------------------------*/
FoamFile
{
    version     2.0;
    format      ascii;
    arch        "LSB;label=32;scalar=64";
    class       volVectorField;
    location    "200";
    object      U.a;
}
// * * * * * * * * * * * * * * * * * * * * * * * * * * * * * * * * * * * * * //

dimensions      [0 1 -1 0 0 0 0];

internalField   nonuniform List<vector> 
200
(
(7.58479e-08 6.73117e-10 0)
(2.26831e-07 1.63966e-10 0)
(3.76977e-07 -2.04808e-10 0)
(5.26238e-07 4.93144e-11 0)
(6.74593e-07 -1.62385e-10 0)
(8.22031e-07 -6.30917e-11 0)
(9.68542e-07 -1.45142e-10 0)
(1.11412e-06 -1.43495e-10 0)
(1.25875e-06 -1.61067e-10 0)
(1.40244e-06 -1.98271e-10 0)
(1.54517e-06 -1.97405e-10 0)
(1.68694e-06 -2.40542e-10 0)
(1.82774e-06 -2.43056e-10 0)
(1.96755e-06 -2.78777e-10 0)
(2.10639e-06 -2.91713e-10 0)
(2.24423e-06 -3.17418e-10 0)
(2.38107e-06 -3.40327e-10 0)
(2.51691e-06 -3.58245e-10 0)
(2.65173e-06 -3.87967e-10 0)
(2.78553e-06 -4.01412e-10 0)
(2.91831e-06 -4.34773e-10 0)
(3.05004e-06 -4.46403e-10 0)
(3.18074e-06 -4.81135e-10 0)
(3.31038e-06 -4.92594e-10 0)
(3.43897e-06 -5.27308e-10 0)
(3.56649e-06 -5.39396e-10 0)
(3.69294e-06 -5.73268e-10 0)
(3.81831e-06 -5.86213e-10 0)
(3.94259e-06 -6.18747e-10 0)
(4.06578e-06 -6.32487e-10 0)
(4.18787e-06 -6.63354e-10 0)
(4.30885e-06 -6.77607e-10 0)
(4.42872e-06 -7.06348e-10 0)
(4.54746e-06 -7.20462e-10 0)
(4.66508e-06 -7.46385e-10 0)
(4.78155e-06 -7.59423e-10 0)
(4.89689e-06 -7.81862e-10 0)
(5.01107e-06 -7.92997e-10 0)
(5.1241e-06 -8.11583e-10 0)
(5.23597e-06 -8.20295e-10 0)
(5.34666e-06 -8.3464e-10 0)
(5.45619e-06 -8.40069e-10 0)
(5.56453e-06 -8.48732e-10 0)
(5.67168e-06 -8.48608e-10 0)
(5.77765e-06 -8.49099e-10 0)
(5.88435e-06 -8.41092e-10 0)
(6.00131e-06 -8.32351e-10 0)
(6.14691e-06 -8.13767e-10 0)
(6.34868e-06 -7.93262e-10 0)
(6.65404e-06 -7.59334e-10 0)
(7.1504e-06 -7.26814e-10 0)
(8.00131e-06 -6.7771e-10 0)
(9.51388e-06 -6.44188e-10 0)
(1.22463e-05 -5.76977e-10 0)
(1.71704e-05 -5.60878e-10 0)
(2.58433e-05 -4.6754e-10 0)
(4.05317e-05 -4.86897e-10 0)
(6.41042e-05 -3.52924e-10 0)
(9.9691e-05 -4.20374e-10 0)
(0.000150073 -2.32499e-10 0)
(0.000217234 -3.60284e-10 0)
(0.000302097 -1.06873e-10 0)
(0.000404763 -3.07944e-10 0)
(0.000524786 2.17181e-11 0)
(0.000661599 -2.65687e-10 0)
(0.00081467 1.4959e-10 0)
(0.000983668 -2.36705e-10 0)
(0.0011684 2.70346e-10 0)
(0.00136885 -2.24104e-10 0)
(0.00158504 3.75579e-10 0)
(0.00181708 -2.31587e-10 0)
(0.00206508 4.52457e-10 0)
(0.00232918 -2.6224e-10 0)
(0.00260947 4.81734e-10 0)
(0.00290612 -3.17247e-10 0)
(0.00321919 4.33818e-10 0)
(0.00354882 -3.95225e-10 0)
(0.00389509 2.67509e-10 0)
(0.00425812 -4.91254e-10 0)
(0.00463797 -8.79005e-11 0)
(0.00503475 -5.83735e-10 0)
(0.00544852 -7.30635e-10 0)
(0.00587939 -6.53671e-10 0)
(0.00632738 -1.77965e-09 0)
(0.0067926 -6.85138e-10 0)
(0.00727507 -3.45562e-09 0)
(0.0077749 -6.58283e-10 0)
(0.00829208 -6.17858e-09 0)
(0.00882672 -1.31402e-10 0)
(0.00937881 -9.31765e-09 0)
(0.00994844 -1.63289e-09 0)
(0.0105356 -2.76336e-08 0)
(0.0111403 -1.34023e-08 0)
(0.0117627 4.11285e-08 0)
(0.0124028 2.56013e-07 0)
(0.0130608 -1.07705e-07 0)
(0.0137358 -2.13411e-06 0)
(0.0144262 -3.85312e-06 0)
(0.0151333 7.68097e-06 0)
(0.0158766 7.53524e-05 0)
(0.0172444 -0.000625113 0)
(0.01901 -0.000387061 0)
(0.0207964 -0.000758655 0)
(0.0225271 -0.000903639 0)
(0.024189 -0.000946521 0)
(0.0258142 -0.00095904 0)
(0.0274022 -0.000963065 0)
(0.0289505 -0.000964408 0)
(0.0304589 -0.000964849 0)
(0.0319273 -0.000964996 0)
(0.0333557 -0.000965047 0)
(0.0347441 -0.000965065 0)
(0.0360926 -0.000965071 0)
(0.037401 -0.000965073 0)
(0.0386695 -0.000965074 0)
(0.0398981 -0.000965074 0)
(0.0410867 -0.000965074 0)
(0.0422353 -0.000965074 0)
(0.043344 -0.000965074 0)
(0.0444127 -0.000965074 0)
(0.0454415 -0.000965074 0)
(0.0464304 -0.000965074 0)
(0.0473793 -0.000965074 0)
(0.0482883 -0.000965074 0)
(0.0491574 -0.000965074 0)
(0.0499867 -0.000965073 0)
(0.0507766 -0.000965072 0)
(0.0515273 -0.000965069 0)
(0.0522365 -0.000965064 0)
(0.0528955 -0.000965052 0)
(0.0534927 -0.000965029 0)
(0.054043 -0.000964978 0)
(0.054676 -0.000964855 0)
(0.0560979 -0.000964105 0)
(0.0646196 -0.000964265 0)
(0.0646196 -0.000964265 0)
(0.0646196 -0.000964265 0)
(0.0435828 -0.000960694 0)
(0.0435828 -0.000960694 0)
(0.0435828 -0.000960694 0)
(0.0566068 -0.000963805 0)
(0.0576755 -0.000964498 0)
(0.0581327 -0.000964451 0)
(0.059249 -0.000963541 0)
(0.0773562 -0.000962279 0)
(0.0773562 -0.000962279 0)
(0.0773562 -0.000962279 0)
(0.059168 -0.000963923 0)
(0.0581154 -0.000964805 0)
(0.0578641 -0.000964925 0)
(0.0576993 -0.000964975 0)
(0.0575233 -0.000965007 0)
(0.0573023 -0.00096503 0)
(0.0570275 -0.000965047 0)
(0.0567034 -0.000965058 0)
(0.0563366 -0.000965065 0)
(0.0559304 -0.00096507 0)
(0.0554854 -0.000965073 0)
(0.0550012 -0.000965074 0)
(0.0544775 -0.000965075 0)
(0.0539141 -0.000965075 0)
(0.0533111 -0.000965076 0)
(0.0526685 -0.000965076 0)
(0.0519863 -0.000965076 0)
(0.0512646 -0.000965076 0)
(0.0505032 -0.000965076 0)
(0.0497023 -0.000965076 0)
(0.0488618 -0.000965076 0)
(0.0479817 -0.000965076 0)
(0.0470622 -0.000965076 0)
(0.0461031 -0.000965076 0)
(0.0451044 -0.000965076 0)
(0.0440663 -0.000965076 0)
(0.0429887 -0.000965076 0)
(0.0418716 -0.000965076 0)
(0.040715 -0.000965077 0)
(0.039519 -0.000965077 0)
(0.0382835 -0.000965077 0)
(0.0370086 -0.000965077 0)
(0.0356942 -0.000965077 0)
(0.0343404 -0.000965077 0)
(0.0329473 -0.000965077 0)
(0.0315147 -0.000965077 0)
(0.0300427 -0.000965077 0)
(0.0285314 -0.000965077 0)
(0.0269807 -0.000965077 0)
(0.0253907 -0.000965077 0)
(0.0237613 -0.000965077 0)
(0.0220926 -0.000965076 0)
(0.0203846 -0.000965075 0)
(0.0186374 -0.00096507 0)
(0.0168508 -0.000965055 0)
(0.0150249 -0.000965005 0)
(0.0131598 -0.000964844 0)
(0.0112553 -0.000964311 0)
(0.00931089 -0.000962541 0)
(0.00732802 -0.000956602 0)
(0.0053178 -0.000936647 0)
(0.00330535 -0.000869018 0)
(0.00123456 -0.000637558 0)
)
;

boundaryField
{
    inlet
    {
        type            cyclic;
    }
    outlet
    {
        type            cyclic;
    }
    top
    {
        type            fixedValue;
        value           uniform (0 0 0);
    }
    bottom
    {
        type            fixedValue;
        value           uniform (0 0 0);
    }
    frontAndBackPlanes
    {
        type            empty;
    }
}


// ************************************************************************* //
