/*--------------------------------*- C++ -*----------------------------------*\
| =========                 |                                                 |
| \\      /  F ield         | OpenFOAM: The Open Source CFD Toolbox           |
|  \\    /   O peration     | Version:  2206                                  |
|   \\  /    A nd           | Website:  www.openfoam.com                      |
|    \\/     M anipulation  |                                                 |
\*---------------------------------------------------------------------------*/
FoamFile
{
    version     2.0;
    format      ascii;
    arch        "LSB;label=32;scalar=64";
    class       volVectorField;
    location    "200";
    object      U.b;
}
// * * * * * * * * * * * * * * * * * * * * * * * * * * * * * * * * * * * * * //

dimensions      [0 1 -1 0 0 0 0];

internalField   nonuniform List<vector> 
200
(
(2.48137e-06 2.03612e-10 0)
(4.2651e-06 1.12685e-10 0)
(4.96986e-06 2.60544e-11 0)
(5.30904e-06 1.25272e-10 0)
(5.52308e-06 1.08425e-10 0)
(5.6945e-06 1.72137e-10 0)
(5.85057e-06 1.81835e-10 0)
(6.00105e-06 2.21773e-10 0)
(6.14885e-06 2.4995e-10 0)
(6.2953e-06 2.79163e-10 0)
(6.44049e-06 3.14313e-10 0)
(6.58484e-06 3.41432e-10 0)
(6.72805e-06 3.77436e-10 0)
(6.8705e-06 4.06297e-10 0)
(7.01178e-06 4.40927e-10 0)
(7.15232e-06 4.72553e-10 0)
(7.29167e-06 5.0556e-10 0)
(7.43028e-06 5.39619e-10 0)
(7.56767e-06 5.71521e-10 0)
(7.7043e-06 6.07257e-10 0)
(7.83972e-06 6.3871e-10 0)
(7.97436e-06 6.75427e-10 0)
(8.10778e-06 7.0689e-10 0)
(8.24039e-06 7.44023e-10 0)
(8.37179e-06 7.75656e-10 0)
(8.50235e-06 8.12748e-10 0)
(8.6317e-06 8.44484e-10 0)
(8.76018e-06 8.81127e-10 0)
(8.88746e-06 9.12721e-10 0)
(9.01385e-06 9.48515e-10 0)
(9.13903e-06 9.79608e-10 0)
(9.26329e-06 1.01406e-09 0)
(9.38635e-06 1.04398e-09 0)
(9.50847e-06 1.07617e-09 0)
(9.62939e-06 1.10376e-09 0)
(9.74935e-06 1.1325e-09 0)
(9.8681e-06 1.1566e-09 0)
(9.98587e-06 1.18095e-09 0)
(1.01024e-05 1.20076e-09 0)
(1.0218e-05 1.2201e-09 0)
(1.03324e-05 1.23483e-09 0)
(1.0446e-05 1.24789e-09 0)
(1.05586e-05 1.25529e-09 0)
(1.0671e-05 1.25889e-09 0)
(1.0785e-05 1.25542e-09 0)
(1.09055e-05 1.24664e-09 0)
(1.10446e-05 1.22956e-09 0)
(1.12253e-05 1.20516e-09 0)
(1.14856e-05 1.16953e-09 0)
(1.18935e-05 1.12512e-09 0)
(1.25714e-05 1.06888e-09 0)
(1.37403e-05 1.00907e-09 0)
(1.57908e-05 9.38107e-10 0)
(1.93877e-05 8.7404e-10 0)
(2.56013e-05 7.95269e-10 0)
(3.60294e-05 7.37833e-10 0)
(5.28445e-05 6.52668e-10 0)
(7.86748e-05 6.05934e-10 0)
(0.000116298 5.10282e-10 0)
(0.000168204 4.76537e-10 0)
(0.000236228 3.67364e-10 0)
(0.000321376 3.50332e-10 0)
(0.000423928 2.26014e-10 0)
(0.000543672 2.30239e-10 0)
(0.00068019 9.01757e-11 0)
(0.000833052 1.20921e-10 0)
(0.00100194 -3.39498e-11 0)
(0.00118667 2.89723e-11 0)
(0.00138717 -1.38064e-10 0)
(0.00160346 -3.73462e-11 0)
(0.00183563 -2.10936e-10 0)
(0.00208376 -6.70512e-11 0)
(0.00234799 -2.37162e-10 0)
(0.00262843 -4.61271e-11 0)
(0.0029252 -1.95429e-10 0)
(0.0032384 4.35609e-11 0)
(0.00356815 -5.65909e-11 0)
(0.00391455 2.26472e-10 0)
(0.00427769 2.22291e-10 0)
(0.00465766 5.34796e-10 0)
(0.00505455 7.01033e-10 0)
(0.00546844 1.01059e-09 0)
(0.0058994 1.46096e-09 0)
(0.0063475 1.72258e-09 0)
(0.00681282 2.6328e-09 0)
(0.00729541 2.78039e-09 0)
(0.00779533 4.41751e-09 0)
(0.00831262 4.37371e-09 0)
(0.00884736 7.48717e-09 0)
(0.00939957 7.57777e-09 0)
(0.00996929 1.09876e-08 0)
(0.0105566 4.4964e-09 0)
(0.0111614 1.23548e-08 0)
(0.0117839 6.17359e-08 0)
(0.0124241 1.7871e-07 0)
(0.0130819 2.19348e-09 0)
(0.0137571 -1.0281e-06 0)
(0.0144494 -1.73579e-06 0)
(0.0151614 3.87537e-06 0)
(0.0159755 2.03228e-05 0)
(0.0171858 2.79161e-05 0)
(0.0189734 1.48226e-06 0)
(0.0207219 -1.97691e-06 0)
(0.0224303 -4.75078e-07 0)
(0.0240987 6.84197e-08 0)
(0.0257271 5.08342e-08 0)
(0.0273156 4.96356e-09 0)
(0.028864 -3.74331e-09 0)
(0.0303725 -1.34939e-09 0)
(0.031841 9.71536e-11 0)
(0.0332695 1.5641e-10 0)
(0.034658 2.1452e-11 0)
(0.0360065 -9.6407e-12 0)
(0.0373151 -3.74507e-12 0)
(0.0385837 2.53501e-14 0)
(0.0398124 3.48241e-13 0)
(0.041001 8.32977e-14 0)
(0.0421498 -1.91737e-14 0)
(0.0432586 -2.16064e-14 0)
(0.0443274 -1.53489e-14 0)
(0.0453563 -1.36924e-14 0)
(0.0463453 -1.22357e-14 0)
(0.0472943 -4.63978e-15 0)
(0.0482034 -9.18843e-18 0)
(0.0490726 1.08845e-14 0)
(0.0499019 1.12283e-14 0)
(0.0506912 1.53575e-14 0)
(0.0514407 1.35272e-14 0)
(0.0521502 6.62293e-16 0)
(0.0528199 6.39893e-15 0)
(0.0534497 -1.48669e-14 0)
(0.0540396 -1.21389e-14 0)
(0.0545896 -6.31489e-15 0)
(0.0550998 -2.20466e-14 0)
(0.0555701 1.61951e-15 0)
(0.0560006 7.50264e-15 0)
(0.0563912 -2.81522e-15 0)
(0.056742 1.9137e-14 0)
(0.0570529 1.9325e-14 0)
(0.0573241 -3.05918e-15 0)
(0.0575554 3.42034e-15 0)
(0.0577469 5.6234e-15 0)
(0.0578986 -1.79631e-14 0)
(0.0580105 -1.97608e-14 0)
(0.0580826 -2.11593e-16 0)
(0.058115 -1.41581e-15 0)
(0.0581076 -8.89261e-15 0)
(0.0580604 7.61762e-15 0)
(0.0579735 2.28182e-14 0)
(0.0578468 1.04017e-14 0)
(0.0576805 -4.56939e-15 0)
(0.0574743 1.9953e-16 0)
(0.0572285 3.6301e-15 0)
(0.056943 -1.08062e-14 0)
(0.0566178 -2.10747e-14 0)
(0.0562529 -8.09763e-15 0)
(0.0558483 1.01367e-14 0)
(0.0554041 1.05943e-14 0)
(0.0549202 1.47077e-15 0)
(0.0543966 2.93957e-15 0)
(0.0538334 1.16515e-14 0)
(0.0532306 8.27687e-15 0)
(0.0525882 -8.88086e-15 0)
(0.0519062 -1.95861e-14 0)
(0.0511846 -1.10754e-14 0)
(0.0504234 4.79076e-15 0)
(0.0496226 9.62012e-15 0)
(0.0487822 2.81989e-15 0)
(0.0479023 -1.28249e-15 0)
(0.0469829 4.28216e-15 0)
(0.0460239 9.88764e-15 0)
(0.0450255 4.00917e-15 0)
(0.0439875 -9.91714e-15 0)
(0.04291 -1.68389e-14 0)
(0.041793 -8.39853e-15 0)
(0.0406366 7.07193e-15 0)
(0.0394407 1.425e-14 0)
(0.0382053 7.67997e-15 0)
(0.0369305 -3.5875e-15 0)
(0.0356163 -7.33095e-15 0)
(0.0342626 -1.46446e-15 0)
(0.0328696 5.11934e-15 0)
(0.0314371 3.61408e-15 0)
(0.0299653 -4.76987e-15 0)
(0.0284541 -1.04434e-14 0)
(0.0269035 -6.0424e-15 0)
(0.0253136 5.57279e-15 0)
(0.0236844 1.39345e-14 0)
(0.0220158 1.11007e-14 0)
(0.020308 -8.58909e-16 0)
(0.0185608 -1.19302e-14 0)
(0.0167743 -1.32815e-14 0)
(0.0149486 -4.72521e-15 0)
(0.0130836 5.89744e-15 0)
(0.0111793 1.01926e-14 0)
(0.00923586 6.35337e-15 0)
(0.00725314 -7.49385e-16 0)
(0.00523121 -5.31879e-15 0)
(0.00317008 -4.06242e-15 0)
(0.00106975 1.35437e-15 0)
)
;

boundaryField
{
    inlet
    {
        type            cyclic;
    }
    outlet
    {
        type            cyclic;
    }
    top
    {
        type            fixedValue;
        value           uniform (0 0 0);
    }
    bottom
    {
        type            fixedValue;
        value           uniform (0 0 0);
    }
    frontAndBackPlanes
    {
        type            empty;
    }
}


// ************************************************************************* //
