/*--------------------------------*- C++ -*----------------------------------*\
| =========                 |                                                 |
| \\      /  F ield         | OpenFOAM: The Open Source CFD Toolbox           |
|  \\    /   O peration     | Version:  2206                                  |
|   \\  /    A nd           | Website:  www.openfoam.com                      |
|    \\/     M anipulation  |                                                 |
\*---------------------------------------------------------------------------*/
FoamFile
{
    version     2.0;
    format      ascii;
    arch        "LSB;label=32;scalar=64";
    class       volScalarField;
    location    "1700";
    object      pff;
}
// * * * * * * * * * * * * * * * * * * * * * * * * * * * * * * * * * * * * * //

dimensions      [1 -1 -2 0 0 0 0];

internalField   nonuniform List<scalar> 
120
(
26.4182
25.8849
25.8852
25.3078
25.2907
24.7253
24.6964
24.1429
24.1022
23.5606
23.5081
22.9785
22.9141
22.3966
22.3203
21.8147
21.7266
21.233
21.1331
20.6514
20.5398
20.0699
19.9466
19.4885
19.3537
18.9072
18.761
18.3259
18.1686
17.7447
17.5765
17.1635
16.9847
16.5823
16.3932
16.0011
15.8021
15.4198
15.2113
14.8386
14.621
14.2572
14.0312
13.6758
13.4418
13.0944
12.8529
12.5128
12.2645
11.9312
11.6766
11.3496
11.0892
10.7678
10.5024
10.1861
9.91613
9.60431
9.3304
9.02253
8.74523
8.44079
8.16061
7.85911
7.57656
7.27752
6.99308
6.69606
6.41018
6.11476
5.82792
5.53361
5.24634
4.95262
4.66557
4.37172
4.08577
3.7908
3.50726
3.20963
2.93047
2.62787
2.35601
2.04515
1.78449
1.46154
1.21557
0.879694
0.643464
0.308195
0
0
0
0
0
0
0
0
0
0
0
0
0
0
0
0
0
0
0
0
0
0
0
0
0
0
0
0
0
0
)
;

boundaryField
{
    inlet
    {
        type            cyclic;
    }
    outlet
    {
        type            cyclic;
    }
    top
    {
        type            calculated;
        value           uniform 0;
    }
    bottom
    {
        type            calculated;
        value           uniform 26.4182;
    }
    frontAndBackPlanes
    {
        type            empty;
    }
}


// ************************************************************************* //
