/*--------------------------------*- C++ -*----------------------------------*\
| =========                 |                                                 |
| \\      /  F ield         | OpenFOAM: The Open Source CFD Toolbox           |
|  \\    /   O peration     | Version:  2206                                  |
|   \\  /    A nd           | Website:  www.openfoam.com                      |
|    \\/     M anipulation  |                                                 |
\*---------------------------------------------------------------------------*/
FoamFile
{
    version     2.0;
    format      ascii;
    arch        "LSB;label=32;scalar=64";
    class       surfaceScalarField;
    location    "1700";
    object      phi.a;
}
// * * * * * * * * * * * * * * * * * * * * * * * * * * * * * * * * * * * * * //

dimensions      [0 3 -1 0 0 0 0];

oriented        oriented;

internalField   nonuniform List<scalar> 
119
(
-2.01288e-17
-4.0691e-17
-6.12161e-17
-8.22356e-17
-1.0321e-16
-1.24678e-16
-1.46111e-16
-1.68009e-16
-1.89915e-16
-2.12223e-16
-2.34621e-16
-2.57317e-16
-2.80227e-16
-3.03288e-16
-3.26735e-16
-3.50139e-16
-3.7415e-16
-3.97878e-16
-4.22482e-16
-4.46518e-16
-4.71745e-16
-4.96076e-16
-5.21958e-16
-5.46576e-16
-5.73144e-16
-5.98045e-16
-6.25329e-16
-6.50518e-16
-6.78544e-16
-7.04027e-16
-7.32819e-16
-7.5861e-16
-7.88184e-16
-8.143e-16
-8.44666e-16
-8.71127e-16
-9.02287e-16
-9.29113e-16
-9.61058e-16
-9.88273e-16
-1.02098e-15
-1.0486e-15
-1.08204e-15
-1.11009e-15
-1.14422e-15
-1.1727e-15
-1.20746e-15
-1.23638e-15
-1.2717e-15
-1.30106e-15
-1.33685e-15
-1.36665e-15
-1.40282e-15
-1.43303e-15
-1.46949e-15
-1.50009e-15
-1.53674e-15
-1.56768e-15
-1.60442e-15
-1.63566e-15
-1.6724e-15
-1.70389e-15
-1.74055e-15
-1.77219e-15
-1.80873e-15
-1.84043e-15
-1.87684e-15
-1.90843e-15
-1.94479e-15
-1.97604e-15
-2.01252e-15
-2.04305e-15
-2.08e-15
-2.10922e-15
-2.14726e-15
-2.17428e-15
-2.21434e-15
-2.23786e-15
-2.28124e-15
-2.29965e-15
-2.34761e-15
-2.35978e-15
-2.41171e-15
-2.42069e-15
-2.46646e-15
-2.49542e-15
-2.48154e-15
-2.65839e-15
-2.28194e-15
-7.34155e-15
-1.38915e-14
-1.52257e-14
-2.63183e-11
-6.46076e-11
-7.88086e-11
-8.14072e-11
-8.18708e-11
-8.19707e-11
-8.19976e-11
-8.20065e-11
-8.201e-11
-8.20115e-11
-8.20123e-11
-8.20127e-11
-8.20129e-11
-8.20131e-11
-8.20132e-11
-8.20133e-11
-8.20133e-11
-8.20133e-11
-8.20133e-11
-8.20132e-11
-8.20131e-11
-8.20129e-11
-8.20126e-11
-8.20115e-11
-8.20065e-11
-8.19649e-11
-8.12203e-11
)
;

boundaryField
{
    inlet
    {
        type            cyclic;
        value           nonuniform List<scalar> 
120
(
-4.32465e-27
-1.29801e-26
-2.165e-26
-3.03438e-26
-3.90711e-26
-4.78413e-26
-5.6664e-26
-6.55486e-26
-7.45043e-26
-8.35404e-26
-9.26661e-26
-1.0189e-25
-1.11222e-25
-1.2067e-25
-1.30243e-25
-1.39949e-25
-1.49797e-25
-1.59794e-25
-1.69948e-25
-1.80267e-25
-1.90758e-25
-2.01427e-25
-2.12281e-25
-2.23327e-25
-2.34569e-25
-2.46013e-25
-2.57664e-25
-2.69525e-25
-2.81601e-25
-2.93894e-25
-3.06407e-25
-3.19141e-25
-3.32097e-25
-3.45276e-25
-3.58677e-25
-3.72299e-25
-3.85804e-25
-3.99524e-25
-4.13455e-25
-4.27593e-25
-4.4193e-25
-4.56461e-25
-4.71176e-25
-4.86068e-25
-5.01125e-25
-5.16336e-25
-5.31689e-25
-5.4717e-25
-5.62765e-25
-5.78458e-25
-5.94233e-25
-6.1007e-25
-6.25952e-25
-6.41859e-25
-6.57769e-25
-6.73662e-25
-6.89514e-25
-7.053e-25
-7.21001e-25
-7.36767e-25
-7.52398e-25
-7.67861e-25
-7.83131e-25
-7.98181e-25
-8.12983e-25
-8.27508e-25
-8.4173e-25
-8.55621e-25
-8.69152e-25
-8.82296e-25
-8.95025e-25
-9.07313e-25
-9.19132e-25
-9.30459e-25
-9.41267e-25
-9.51533e-25
-9.61233e-25
-9.70345e-25
-9.78849e-25
-9.86723e-25
-9.9395e-25
-1.00051e-24
-1.00639e-24
-1.01158e-24
-1.01606e-24
-1.01982e-24
-1.02284e-24
-1.02513e-24
-1.02668e-24
-1.02747e-24
-1.02778e-24
-1.02826e-24
-1.02835e-24
-7.0863e-25
-3.59757e-25
-2.19744e-25
-1.80492e-25
-1.69257e-25
-1.65581e-25
-1.64177e-25
-1.63561e-25
-1.63258e-25
-1.63096e-25
-1.63002e-25
-1.62943e-25
-1.62901e-25
-1.6287e-25
-1.62845e-25
-1.62825e-25
-1.62808e-25
-1.62794e-25
-1.62783e-25
-1.62774e-25
-1.62767e-25
-1.6276e-25
-1.62752e-25
-1.62732e-25
-1.62643e-25
-1.62005e-25
-1.53985e-25
)
;
    }
    outlet
    {
        type            cyclic;
        value           nonuniform List<scalar> 
120
(
4.32465e-27
1.29801e-26
2.165e-26
3.03438e-26
3.90711e-26
4.78413e-26
5.6664e-26
6.55486e-26
7.45043e-26
8.35404e-26
9.26661e-26
1.0189e-25
1.11222e-25
1.2067e-25
1.30243e-25
1.39949e-25
1.49797e-25
1.59794e-25
1.69948e-25
1.80267e-25
1.90758e-25
2.01427e-25
2.12281e-25
2.23327e-25
2.34569e-25
2.46013e-25
2.57664e-25
2.69525e-25
2.81601e-25
2.93894e-25
3.06407e-25
3.19141e-25
3.32097e-25
3.45276e-25
3.58677e-25
3.72299e-25
3.85804e-25
3.99524e-25
4.13455e-25
4.27593e-25
4.4193e-25
4.56461e-25
4.71176e-25
4.86068e-25
5.01125e-25
5.16336e-25
5.31689e-25
5.4717e-25
5.62765e-25
5.78458e-25
5.94233e-25
6.1007e-25
6.25952e-25
6.41859e-25
6.57769e-25
6.73662e-25
6.89514e-25
7.053e-25
7.21001e-25
7.36767e-25
7.52398e-25
7.67861e-25
7.83131e-25
7.98181e-25
8.12983e-25
8.27508e-25
8.4173e-25
8.55621e-25
8.69152e-25
8.82296e-25
8.95025e-25
9.07313e-25
9.19132e-25
9.30459e-25
9.41267e-25
9.51533e-25
9.61233e-25
9.70345e-25
9.78849e-25
9.86723e-25
9.9395e-25
1.00051e-24
1.00639e-24
1.01158e-24
1.01606e-24
1.01982e-24
1.02284e-24
1.02513e-24
1.02668e-24
1.02747e-24
1.02778e-24
1.02826e-24
1.02835e-24
7.0863e-25
3.59757e-25
2.19744e-25
1.80492e-25
1.69257e-25
1.65581e-25
1.64177e-25
1.63561e-25
1.63258e-25
1.63096e-25
1.63002e-25
1.62943e-25
1.62901e-25
1.6287e-25
1.62845e-25
1.62825e-25
1.62808e-25
1.62794e-25
1.62783e-25
1.62774e-25
1.62767e-25
1.6276e-25
1.62752e-25
1.62732e-25
1.62643e-25
1.62005e-25
1.53985e-25
)
;
    }
    top
    {
        type            fixedValue;
        value           uniform 0;
    }
    bottom
    {
        type            fixedValue;
        value           uniform 0;
    }
    frontAndBackPlanes
    {
        type            empty;
        value           nonuniform List<scalar> 0();
    }
}


// ************************************************************************* //
