/*--------------------------------*- C++ -*----------------------------------*\
| =========                 |                                                 |
| \\      /  F ield         | OpenFOAM: The Open Source CFD Toolbox           |
|  \\    /   O peration     | Version:  2206                                  |
|   \\  /    A nd           | Website:  www.openfoam.com                      |
|    \\/     M anipulation  |                                                 |
\*---------------------------------------------------------------------------*/
FoamFile
{
    version     2.0;
    format      ascii;
    arch        "LSB;label=32;scalar=64";
    class       volVectorField;
    location    "1700";
    object      U.a;
}
// * * * * * * * * * * * * * * * * * * * * * * * * * * * * * * * * * * * * * //

dimensions      [0 1 -1 0 0 0 0];

internalField   nonuniform List<vector> 
120
(
(1.44155e-20 1.55879e-08 0)
(4.32671e-20 2.68782e-10 0)
(7.21666e-20 -4.94807e-10 0)
(1.01146e-19 1.54615e-10 0)
(1.30237e-19 -6.11493e-10 0)
(1.59471e-19 3.8118e-11 0)
(1.8888e-19 -7.30773e-10 0)
(2.18495e-19 -8.09418e-11 0)
(2.48348e-19 -8.52441e-10 0)
(2.78468e-19 -2.02634e-10 0)
(3.08887e-19 -9.76383e-10 0)
(3.39635e-19 -3.2706e-10 0)
(3.70741e-19 -1.10247e-09 0)
(4.02234e-19 -4.54341e-10 0)
(4.34144e-19 -1.23058e-09 0)
(4.66498e-19 -5.84615e-10 0)
(4.99324e-19 -1.36059e-09 0)
(5.32647e-19 -7.18035e-10 0)
(5.66495e-19 -1.49238e-09 0)
(6.00891e-19 -8.54764e-10 0)
(6.3586e-19 -1.62586e-09 0)
(6.71424e-19 -9.94975e-10 0)
(7.07605e-19 -1.76096e-09 0)
(7.44422e-19 -1.13884e-09 0)
(7.81896e-19 -1.89763e-09 0)
(8.20043e-19 -1.28655e-09 0)
(8.58879e-19 -2.03586e-09 0)
(8.98417e-19 -1.43825e-09 0)
(9.3867e-19 -2.17566e-09 0)
(9.79647e-19 -1.5941e-09 0)
(1.02136e-18 -2.31707e-09 0)
(1.0638e-18 -1.75423e-09 0)
(1.10699e-18 -2.46016e-09 0)
(1.15092e-18 -1.91874e-09 0)
(1.19559e-18 -2.60504e-09 0)
(1.241e-18 -2.08766e-09 0)
(1.28601e-18 -2.7518e-09 0)
(1.33175e-18 -2.26102e-09 0)
(1.37818e-18 -2.90058e-09 0)
(1.42531e-18 -2.43876e-09 0)
(1.4731e-18 -3.05149e-09 0)
(1.52154e-18 -2.62077e-09 0)
(1.57059e-18 -3.20466e-09 0)
(1.62023e-18 -2.80685e-09 0)
(1.67042e-18 -3.36017e-09 0)
(1.72112e-18 -2.99676e-09 0)
(1.7723e-18 -3.51809e-09 0)
(1.8239e-18 -3.19017e-09 0)
(1.87588e-18 -3.67847e-09 0)
(1.92819e-18 -3.38668e-09 0)
(1.98078e-18 -3.84128e-09 0)
(2.03357e-18 -3.58584e-09 0)
(2.08651e-18 -4.00649e-09 0)
(2.13953e-18 -3.78714e-09 0)
(2.19256e-18 -4.17399e-09 0)
(2.24554e-18 -3.99003e-09 0)
(2.29838e-18 -4.34364e-09 0)
(2.351e-18 -4.19396e-09 0)
(2.40334e-18 -4.51523e-09 0)
(2.45589e-18 -4.39837e-09 0)
(2.50799e-18 -4.68852e-09 0)
(2.55954e-18 -4.60275e-09 0)
(2.61044e-18 -4.86315e-09 0)
(2.6606e-18 -4.80669e-09 0)
(2.70994e-18 -5.0387e-09 0)
(2.75836e-18 -5.00993e-09 0)
(2.80577e-18 -5.21456e-09 0)
(2.85207e-18 -5.21246e-09 0)
(2.89717e-18 -5.38983e-09 0)
(2.94099e-18 -5.41469e-09 0)
(2.98342e-18 -5.56317e-09 0)
(3.02438e-18 -5.61763e-09 0)
(3.06377e-18 -5.73247e-09 0)
(3.10153e-18 -5.8233e-09 0)
(3.13756e-18 -5.89441e-09 0)
(3.17178e-18 -6.0351e-09 0)
(3.20411e-18 -6.04393e-09 0)
(3.23448e-18 -6.2584e-09 0)
(3.26283e-18 -6.17371e-09 0)
(3.28908e-18 -6.50049e-09 0)
(3.31317e-18 -6.27463e-09 0)
(3.33504e-18 -6.76857e-09 0)
(3.35465e-18 -6.34041e-09 0)
(3.37193e-18 -7.05909e-09 0)
(3.38686e-18 -6.38842e-09 0)
(3.39939e-18 -7.3146e-09 0)
(3.40948e-18 -6.55e-09 0)
(3.4171e-18 -7.23205e-09 0)
(3.42225e-18 -7.54983e-09 0)
(3.4249e-18 -5.13997e-09 0)
(3.42592e-18 -3.58363e-08 0)
(3.42753e-18 -4.12516e-08 0)
(3.42785e-18 -4.32655e-08 0)
(2.3621e-18 -0.00014617 0)
(1.19919e-18 -0.000212762 0)
(7.3248e-19 -0.000225064 0)
(6.01641e-19 -0.000227198 0)
(5.64189e-19 -0.00022764 0)
(5.51936e-19 -0.000227753 0)
(5.47258e-19 -0.000227789 0)
(5.45203e-19 -0.000227803 0)
(5.44194e-19 -0.000227808 0)
(5.43654e-19 -0.000227811 0)
(5.43341e-19 -0.000227813 0)
(5.43142e-19 -0.000227813 0)
(5.43003e-19 -0.000227814 0)
(5.42899e-19 -0.000227814 0)
(5.42816e-19 -0.000227815 0)
(5.42748e-19 -0.000227815 0)
(5.42693e-19 -0.000227815 0)
(5.42648e-19 -0.000227815 0)
(5.4261e-19 -0.000227815 0)
(5.4258e-19 -0.000227814 0)
(5.42556e-19 -0.000227814 0)
(5.42534e-19 -0.000227813 0)
(5.42506e-19 -0.000227812 0)
(5.42439e-19 -0.000227808 0)
(5.42145e-19 -0.000227784 0)
(5.40018e-19 -0.000227576 0)
(5.13283e-19 -0.000223647 0)
)
;

boundaryField
{
    inlet
    {
        type            cyclic;
    }
    outlet
    {
        type            cyclic;
    }
    top
    {
        type            fixedValue;
        value           uniform (0 0 0);
    }
    bottom
    {
        type            fixedValue;
        value           uniform (0 0 0);
    }
    frontAndBackPlanes
    {
        type            empty;
    }
}


// ************************************************************************* //
