/*--------------------------------*- C++ -*----------------------------------*\
| =========                 |                                                 |
| \\      /  F ield         | OpenFOAM: The Open Source CFD Toolbox           |
|  \\    /   O peration     | Version:  2206                                  |
|   \\  /    A nd           | Website:  www.openfoam.com                      |
|    \\/     M anipulation  |                                                 |
\*---------------------------------------------------------------------------*/
FoamFile
{
    version     2.0;
    format      ascii;
    arch        "LSB;label=32;scalar=64";
    class       volVectorField;
    location    "1700";
    object      U.b;
}
// * * * * * * * * * * * * * * * * * * * * * * * * * * * * * * * * * * * * * //

dimensions      [0 1 -1 0 0 0 0];

internalField   nonuniform List<vector> 
120
(
(1.44155e-20 1.53873e-08 0)
(4.32671e-20 4.91239e-10 0)
(7.21669e-20 -1.47636e-10 0)
(1.01146e-19 6.45292e-10 0)
(1.30237e-19 3.81266e-11 0)
(1.59471e-19 8.23235e-10 0)
(1.88881e-19 2.14816e-10 0)
(2.18495e-19 1.00327e-09 0)
(2.48346e-19 3.95194e-10 0)
(2.78468e-19 1.18672e-09 0)
(3.08887e-19 5.79325e-10 0)
(3.39632e-19 1.37345e-09 0)
(3.70741e-19 7.6731e-10 0)
(4.02234e-19 1.56332e-09 0)
(4.34144e-19 9.5926e-10 0)
(4.66498e-19 1.75619e-09 0)
(4.99324e-19 1.15531e-09 0)
(5.32647e-19 1.95195e-09 0)
(5.66495e-19 1.35562e-09 0)
(6.00891e-19 2.15049e-09 0)
(6.3586e-19 1.56036e-09 0)
(6.71424e-19 2.35175e-09 0)
(7.07604e-19 1.76971e-09 0)
(7.44401e-19 2.55568e-09 0)
(7.81896e-19 1.98387e-09 0)
(8.20043e-19 2.76227e-09 0)
(8.58891e-19 2.20301e-09 0)
(8.98417e-19 2.97153e-09 0)
(9.3867e-19 2.42732e-09 0)
(9.79675e-19 3.18353e-09 0)
(1.02138e-18 2.65697e-09 0)
(1.0638e-18 3.39833e-09 0)
(1.10699e-18 2.89208e-09 0)
(1.15092e-18 3.61606e-09 0)
(1.19559e-18 3.13275e-09 0)
(1.24096e-18 3.83681e-09 0)
(1.28598e-18 3.37902e-09 0)
(1.33178e-18 4.06071e-09 0)
(1.37815e-18 3.63084e-09 0)
(1.42539e-18 4.28787e-09 0)
(1.47306e-18 3.88814e-09 0)
(1.52158e-18 4.51837e-09 0)
(1.57059e-18 4.15069e-09 0)
(1.62023e-18 4.75224e-09 0)
(1.67037e-18 4.41823e-09 0)
(1.72121e-18 4.98949e-09 0)
(1.7723e-18 4.69035e-09 0)
(1.82395e-18 5.23006e-09 0)
(1.87578e-18 4.96659e-09 0)
(1.92819e-18 5.4738e-09 0)
(1.98078e-18 5.24634e-09 0)
(2.03357e-18 5.72052e-09 0)
(2.08651e-18 5.52896e-09 0)
(2.13953e-18 5.96993e-09 0)
(2.19251e-18 5.81369e-09 0)
(2.24554e-18 6.22168e-09 0)
(2.29838e-18 6.09974e-09 0)
(2.351e-18 6.47533e-09 0)
(2.40346e-18 6.38629e-09 0)
(2.45589e-18 6.73037e-09 0)
(2.50799e-18 6.67253e-09 0)
(2.55954e-18 6.98621e-09 0)
(2.61044e-18 6.95768e-09 0)
(2.6606e-18 7.24213e-09 0)
(2.71008e-18 7.24108e-09 0)
(2.75822e-18 7.4973e-09 0)
(2.80577e-18 7.52225e-09 0)
(2.85207e-18 7.75061e-09 0)
(2.89717e-18 7.80101e-09 0)
(2.94099e-18 8.00055e-09 0)
(2.98358e-18 8.07765e-09 0)
(3.02438e-18 8.24499e-09 0)
(3.06377e-18 8.35315e-09 0)
(3.10153e-18 8.48074e-09 0)
(3.13756e-18 8.62958e-09 0)
(3.17178e-18 8.70304e-09 0)
(3.20411e-18 8.91042e-09 0)
(3.23448e-18 8.90496e-09 0)
(3.26283e-18 9.20069e-09 0)
(3.28908e-18 9.07735e-09 0)
(3.31317e-18 9.50553e-09 0)
(3.33504e-18 9.21114e-09 0)
(3.35465e-18 9.82315e-09 0)
(3.37193e-18 9.3098e-09 0)
(3.38686e-18 1.0116e-08 0)
(3.39977e-18 9.44435e-09 0)
(3.40948e-18 1.01883e-08 0)
(3.4171e-18 1.00446e-08 0)
(3.42225e-18 8.96536e-09 0)
(3.4249e-18 7.40121e-09 0)
(3.42514e-18 1.62149e-09 0)
(3.38191e-18 2.67036e-08 0)
(3.28858e-18 2.04629e-09 0)
(3.19356e-18 -9.29843e-10 0)
(3.0968e-18 -3.48631e-10 0)
(2.99824e-18 2.93793e-11 0)
(2.89778e-18 2.99228e-11 0)
(2.79538e-18 1.85529e-12 0)
(2.69096e-18 -2.00755e-12 0)
(2.58449e-18 -3.9301e-13 0)
(2.47593e-18 1.12443e-13 0)
(2.36525e-18 4.51948e-14 0)
(2.25246e-18 -1.56566e-14 0)
(2.13755e-18 -2.17059e-14 0)
(2.02053e-18 -1.23753e-14 0)
(1.90146e-18 -5.09462e-15 0)
(1.78036e-18 1.35585e-15 0)
(1.6573e-18 8.87513e-15 0)
(1.53237e-18 1.23385e-14 0)
(1.40564e-18 1.0896e-14 0)
(1.27723e-18 5.12012e-15 0)
(1.14726e-18 -5.90301e-15 0)
(1.01584e-18 -1.44103e-14 0)
(8.83121e-19 -1.33557e-14 0)
(7.49257e-19 -3.99873e-15 0)
(6.14406e-19 8.79914e-15 0)
(4.78737e-19 1.53564e-14 0)
(3.42423e-19 1.02498e-14 0)
(2.05646e-19 -3.42939e-15 0)
(6.85889e-20 -1.13286e-14 0)
)
;

boundaryField
{
    inlet
    {
        type            cyclic;
    }
    outlet
    {
        type            cyclic;
    }
    top
    {
        type            fixedValue;
        value           uniform (0 0 0);
    }
    bottom
    {
        type            fixedValue;
        value           uniform (0 0 0);
    }
    frontAndBackPlanes
    {
        type            empty;
    }
}


// ************************************************************************* //
