/*--------------------------------*- C++ -*----------------------------------*\
| =========                 |                                                 |
| \\      /  F ield         | OpenFOAM: The Open Source CFD Toolbox           |
|  \\    /   O peration     | Version:  v2006                                 |
|   \\  /    A nd           | Website:  www.openfoam.com                      |
|    \\/     M anipulation  |                                                 |
\*---------------------------------------------------------------------------*/
FoamFile
{
    version     2.0;
    format      ascii;
    class       volScalarField;
    location    "1320";
    object      p;
}
// * * * * * * * * * * * * * * * * * * * * * * * * * * * * * * * * * * * * * //

dimensions      [1 -1 -2 0 0 0 0];


internalField   nonuniform List<scalar> 
120
(
0.86897
-3.79114
-8.45162
-13.1125
-17.7737
-22.4353
-27.0973
-31.7597
-36.4224
-41.0856
-45.7492
-50.4131
-55.0775
-59.7423
-64.4076
-69.0732
-73.7393
-78.4059
-83.0729
-87.7403
-92.4082
-97.0766
-101.745
-106.415
-111.085
-115.755
-120.426
-125.097
-129.769
-134.441
-139.114
-143.787
-148.461
-153.136
-157.811
-162.487
-167.163
-171.84
-176.517
-181.195
-185.874
-190.554
-195.234
-199.914
-204.596
-209.278
-213.961
-218.644
-223.329
-228.014
-232.7
-237.386
-242.074
-246.762
-251.451
-256.141
-260.832
-265.524
-270.217
-274.911
-279.606
-284.301
-288.998
-293.696
-298.396
-303.096
-307.798
-312.501
-317.205
-321.911
-326.618
-331.327
-336.037
-340.75
-345.463
-350.179
-354.897
-359.617
-364.339
-369.063
-373.791
-378.522
-383.256
-387.995
-392.74
-397.489
-402.242
-406.997
-411.756
-416.669
-421.624
-426.361
-431.029
-435.687
-440.346
-445.006
-449.666
-454.326
-458.985
-463.645
-468.305
-472.965
-477.624
-482.284
-486.944
-491.604
-496.263
-500.923
-505.583
-510.243
-514.902
-519.562
-524.222
-528.882
-533.541
-538.201
-542.861
-547.521
-552.18
-556.84
)
;

boundaryField
{
    inlet
    {
        type            cyclic;
    }
    outlet
    {
        type            cyclic;
    }
    top
    {
        type            calculated;
        value           uniform -559.17;
    }
    bottom
    {
        type            calculated;
        value           uniform 3.19885;
    }
    frontAndBackPlanes
    {
        type            empty;
    }
}


// ************************************************************************* //
