/*--------------------------------*- C++ -*----------------------------------*\
| =========                 |                                                 |
| \\      /  F ield         | OpenFOAM: The Open Source CFD Toolbox           |
|  \\    /   O peration     | Version:  v2006                                 |
|   \\  /    A nd           | Website:  www.openfoam.com                      |
|    \\/     M anipulation  |                                                 |
\*---------------------------------------------------------------------------*/
FoamFile
{
    version     2.0;
    format      ascii;
    class       volScalarField;
    location    "1320";
    object      p_p_total;
}
// * * * * * * * * * * * * * * * * * * * * * * * * * * * * * * * * * * * * * //

dimensions      [1 -1 -2 0 0 0 0];


internalField   nonuniform List<scalar> 
120
(
23.2683
22.9745
22.6811
22.388
22.0954
21.8031
21.5113
21.2198
20.9288
20.6382
20.348
20.0583
19.7689
19.48
19.1916
18.9036
18.6161
18.329
18.0424
17.7562
17.4706
17.1854
16.9007
16.6165
16.3329
16.0497
15.7671
15.485
15.2034
14.9224
14.6419
14.3621
14.0827
13.804
13.5258
13.2483
12.9713
12.695
12.4193
12.1442
11.8698
11.5961
11.323
11.0506
10.7789
10.508
10.2378
9.96828
9.69956
9.43163
9.16448
8.89815
8.63264
8.36798
8.10417
7.84124
7.5792
7.31808
7.05789
6.79866
6.54042
6.2832
6.02702
5.77193
5.51796
5.26516
5.01356
4.7632
4.5141
4.2663
4.01979
3.77459
3.53067
3.28802
3.0466
2.80639
2.56735
2.32944
2.09258
1.85652
1.62062
1.38378
1.14524
0.913732
0.706181
0.523053
0.35147
0.170875
0.00176401
0
0
0
0
0
0
0
0
0
0
0
0
0
0
0
0
0
0
0
0
0
0
0
0
0
0
0
0
0
0
0
)
;

boundaryField
{
    inlet
    {
        type            cyclic;
    }
    outlet
    {
        type            cyclic;
    }
    top
    {
        type            calculated;
        value           uniform 0;
    }
    bottom
    {
        type            calculated;
        value           uniform 23.2683;
    }
    frontAndBackPlanes
    {
        type            empty;
    }
}


// ************************************************************************* //
