/*--------------------------------*- C++ -*----------------------------------*\
| =========                 |                                                 |
| \\      /  F ield         | OpenFOAM: The Open Source CFD Toolbox           |
|  \\    /   O peration     | Version:  v2006                                 |
|   \\  /    A nd           | Website:  www.openfoam.com                      |
|    \\/     M anipulation  |                                                 |
\*---------------------------------------------------------------------------*/
FoamFile
{
    version     2.0;
    format      ascii;
    class       surfaceScalarField;
    location    "1320";
    object      phia;
}
// * * * * * * * * * * * * * * * * * * * * * * * * * * * * * * * * * * * * * //

dimensions      [0 3 -1 0 0 0 0];
oriented        oriented;


internalField   nonuniform List<scalar> 
119
(
-9.12053e-16
-1.83596e-15
-2.77198e-15
-3.72042e-15
-4.68155e-15
-5.65569e-15
-6.64314e-15
-7.64424e-15
-8.65931e-15
-9.68871e-15
-1.07328e-14
-1.17919e-14
-1.28665e-14
-1.3957e-14
-1.50637e-14
-1.61872e-14
-1.73278e-14
-1.84862e-14
-1.96627e-14
-2.08578e-14
-2.20723e-14
-2.33066e-14
-2.45613e-14
-2.58371e-14
-2.71346e-14
-2.84545e-14
-2.97976e-14
-3.11645e-14
-3.2556e-14
-3.3973e-14
-3.54162e-14
-3.68866e-14
-3.8385e-14
-3.99125e-14
-4.14699e-14
-4.30585e-14
-4.46794e-14
-4.63338e-14
-4.80229e-14
-4.97483e-14
-5.15115e-14
-5.3314e-14
-5.51577e-14
-5.70445e-14
-5.89763e-14
-6.09552e-14
-6.29837e-14
-6.50639e-14
-6.71985e-14
-6.93899e-14
-7.16411e-14
-7.39548e-14
-7.6334e-14
-7.87821e-14
-8.13027e-14
-8.38995e-14
-8.65772e-14
-8.93406e-14
-9.21957e-14
-9.51492e-14
-9.82088e-14
-1.01384e-13
-1.04684e-13
-1.08121e-13
-1.11707e-13
-1.15457e-13
-1.19384e-13
-1.23504e-13
-1.27831e-13
-1.32381e-13
-1.37171e-13
-1.42218e-13
-1.47545e-13
-1.53181e-13
-1.59169e-13
-1.65572e-13
-1.72484e-13
-1.80043e-13
-1.88448e-13
-1.97994e-13
-2.09115e-13
-2.22388e-13
-2.38616e-13
-2.57245e-13
-2.76343e-13
-2.93107e-13
-3.06229e-13
-3.2268e-13
-1.38286e-12
-1.45789e-12
-2.45906e-11
-1.76667e-11
-1.55687e-10
-8.21347e-11
-8.22977e-11
-8.22752e-11
-8.22756e-11
-8.2277e-11
-8.22767e-11
-8.22766e-11
-8.22766e-11
-8.22766e-11
-8.22766e-11
-8.22766e-11
-8.22766e-11
-8.22766e-11
-8.22766e-11
-8.22766e-11
-8.22766e-11
-8.22766e-11
-8.22766e-11
-8.22766e-11
-8.22766e-11
-8.22766e-11
-8.22766e-11
-8.22766e-11
-8.22766e-11
-8.22565e-11
-8.21697e-11
)
;

boundaryField
{
    inlet
    {
        type            cyclic;
        value           nonuniform List<scalar> 
120
(
-7.50584e-28
-2.25327e-27
-3.7595e-27
-5.24124e-27
-6.73126e-27
-8.23191e-27
-9.74558e-27
-1.12139e-26
-1.27001e-26
-1.42672e-26
-1.58569e-26
-1.74718e-26
-1.91749e-26
-2.0908e-26
-2.26737e-26
-2.44743e-26
-2.63124e-26
-2.81906e-26
-3.01113e-26
-3.20772e-26
-3.40908e-26
-3.61546e-26
-3.82712e-26
-4.04433e-26
-4.29161e-26
-4.54495e-26
-4.80462e-26
-5.05874e-26
-5.31971e-26
-5.5878e-26
-5.83901e-26
-6.07362e-26
-6.31616e-26
-6.5669e-26
-6.82613e-26
-7.09388e-26
-7.39496e-26
-7.72994e-26
-8.0504e-26
-8.40514e-26
-8.72183e-26
-9.07354e-26
-9.41224e-26
-9.76259e-26
-1.01251e-25
-1.05245e-25
-1.08887e-25
-1.12667e-25
-1.16351e-25
-1.20674e-25
-1.25158e-25
-1.29815e-25
-1.34654e-25
-1.39686e-25
-1.44925e-25
-1.50626e-25
-1.56563e-25
-1.62751e-25
-1.69214e-25
-1.7548e-25
-1.82047e-25
-1.88941e-25
-1.96183e-25
-2.03794e-25
-2.11794e-25
-2.19718e-25
-2.28555e-25
-2.37837e-25
-2.47577e-25
-2.57788e-25
-2.68476e-25
-2.79155e-25
-2.90309e-25
-3.01921e-25
-3.13961e-25
-3.26379e-25
-3.39096e-25
-3.51997e-25
-3.64924e-25
-3.77679e-25
-3.90032e-25
-4.01748e-25
-4.12612e-25
-4.22447e-25
-4.31094e-25
-4.38783e-25
-4.44656e-25
-4.49793e-25
-4.5832e-25
-2.14533e-23
-2.59328e-23
-2.56318e-23
-2.46485e-23
-2.35853e-23
-2.25047e-23
-2.14187e-23
-2.03346e-23
-1.92589e-23
-1.81971e-23
-1.71528e-23
-1.61289e-23
-1.5127e-23
-1.41485e-23
-1.31935e-23
-1.22622e-23
-1.13538e-23
-1.0468e-23
-9.6033e-24
-8.75877e-24
-7.933e-24
-7.12452e-24
-6.33182e-24
-5.55325e-24
-4.78738e-24
-4.03229e-24
-3.28648e-24
-2.54825e-24
-1.81591e-24
-1.08778e-24
-3.62219e-25
)
;
    }
    outlet
    {
        type            cyclic;
        value           nonuniform List<scalar> 
120
(
7.50584e-28
2.25327e-27
3.7595e-27
5.24124e-27
6.73126e-27
8.23191e-27
9.74558e-27
1.12139e-26
1.27001e-26
1.42672e-26
1.58569e-26
1.74718e-26
1.91749e-26
2.0908e-26
2.26737e-26
2.44743e-26
2.63124e-26
2.81906e-26
3.01113e-26
3.20772e-26
3.40908e-26
3.61546e-26
3.82712e-26
4.04433e-26
4.29161e-26
4.54495e-26
4.80462e-26
5.05874e-26
5.31971e-26
5.5878e-26
5.83901e-26
6.07362e-26
6.31616e-26
6.5669e-26
6.82613e-26
7.09388e-26
7.39496e-26
7.72994e-26
8.0504e-26
8.40514e-26
8.72183e-26
9.07354e-26
9.41224e-26
9.76259e-26
1.01251e-25
1.05245e-25
1.08887e-25
1.12667e-25
1.16351e-25
1.20674e-25
1.25158e-25
1.29815e-25
1.34654e-25
1.39686e-25
1.44925e-25
1.50626e-25
1.56563e-25
1.62751e-25
1.69214e-25
1.7548e-25
1.82047e-25
1.88941e-25
1.96183e-25
2.03794e-25
2.11794e-25
2.19718e-25
2.28555e-25
2.37837e-25
2.47577e-25
2.57788e-25
2.68476e-25
2.79155e-25
2.90309e-25
3.01921e-25
3.13961e-25
3.26379e-25
3.39096e-25
3.51997e-25
3.64924e-25
3.77679e-25
3.90032e-25
4.01748e-25
4.12612e-25
4.22447e-25
4.31094e-25
4.38783e-25
4.44656e-25
4.49793e-25
4.5832e-25
2.14533e-23
2.59328e-23
2.56318e-23
2.46485e-23
2.35853e-23
2.25047e-23
2.14187e-23
2.03346e-23
1.92589e-23
1.81971e-23
1.71528e-23
1.61289e-23
1.5127e-23
1.41485e-23
1.31935e-23
1.22622e-23
1.13538e-23
1.0468e-23
9.6033e-24
8.75877e-24
7.933e-24
7.12452e-24
6.33182e-24
5.55325e-24
4.78738e-24
4.03229e-24
3.28648e-24
2.54825e-24
1.81591e-24
1.08778e-24
3.62219e-25
)
;
    }
    top
    {
        type            fixedValue;
        value           uniform 0;
    }
    bottom
    {
        type            fixedValue;
        value           uniform 0;
    }
    frontAndBackPlanes
    {
        type            empty;
        value           nonuniform List<scalar> 0();
    }
}


// ************************************************************************* //
