/*--------------------------------*- C++ -*----------------------------------*\
| =========                 |                                                 |
| \\      /  F ield         | OpenFOAM: The Open Source CFD Toolbox           |
|  \\    /   O peration     | Version:  v2006                                 |
|   \\  /    A nd           | Website:  www.openfoam.com                      |
|    \\/     M anipulation  |                                                 |
\*---------------------------------------------------------------------------*/
FoamFile
{
    version     2.0;
    format      ascii;
    class       surfaceScalarField;
    location    "1320";
    object      phib;
}
// * * * * * * * * * * * * * * * * * * * * * * * * * * * * * * * * * * * * * //

dimensions      [0 3 -1 0 0 0 0];
oriented        oriented;


internalField   nonuniform List<scalar> 
119
(
1.36561e-15
2.74835e-15
4.14862e-15
5.56683e-15
7.00337e-15
8.45868e-15
9.93321e-15
1.14274e-14
1.29418e-14
1.44767e-14
1.60329e-14
1.76107e-14
1.92107e-14
2.08335e-14
2.24798e-14
2.415e-14
2.58449e-14
2.75652e-14
2.93115e-14
3.10846e-14
3.28852e-14
3.47143e-14
3.65726e-14
3.8461e-14
4.03804e-14
4.23319e-14
4.43163e-14
4.63348e-14
4.83883e-14
5.0478e-14
5.26051e-14
5.47709e-14
5.69764e-14
5.92232e-14
6.15126e-14
6.38461e-14
6.62252e-14
6.86518e-14
7.11276e-14
7.36546e-14
7.62349e-14
7.88708e-14
8.15647e-14
8.43192e-14
8.71372e-14
9.00216e-14
9.29754e-14
9.6002e-14
9.91048e-14
1.02287e-13
1.05554e-13
1.08907e-13
1.12352e-13
1.15893e-13
1.19535e-13
1.23283e-13
1.27144e-13
1.31123e-13
1.35229e-13
1.39472e-13
1.43861e-13
1.4841e-13
1.53132e-13
1.58043e-13
1.6316e-13
1.68502e-13
1.74088e-13
1.79939e-13
1.86073e-13
1.92512e-13
1.99276e-13
2.06388e-13
2.13877e-13
2.21781e-13
2.30156e-13
2.39085e-13
2.48694e-13
2.5917e-13
2.70783e-13
2.83932e-13
2.99201e-13
3.17352e-13
3.39455e-13
3.64668e-13
3.90196e-13
4.1191e-13
4.27318e-13
4.40729e-13
1.61942e-12
1.64157e-12
1.00474e-11
2.37451e-13
1.89084e-15
4.01501e-18
3.67162e-18
4.25302e-18
4.66722e-18
5.35573e-18
5.61424e-18
6.03558e-18
5.9909e-18
6.1231e-18
5.7988e-18
5.79961e-18
5.58585e-18
5.71099e-18
5.49396e-18
5.44939e-18
5.08538e-18
4.86247e-18
4.37407e-18
4.09514e-18
3.73772e-18
3.59942e-18
3.34616e-18
3.21098e-18
2.97304e-18
2.83423e-18
2.61021e-18
)
;

boundaryField
{
    inlet
    {
        type            cyclic;
        value           nonuniform List<scalar> 
120
(
-7.50584e-28
-2.25329e-27
-3.7628e-27
-5.24126e-27
-6.73126e-27
-8.23199e-27
-9.76364e-27
-1.12139e-26
-1.2676e-26
-1.42671e-26
-1.58568e-26
-1.74385e-26
-1.91748e-26
-2.0908e-26
-2.26737e-26
-2.44743e-26
-2.63124e-26
-2.81906e-26
-3.01113e-26
-3.20772e-26
-3.40908e-26
-3.61546e-26
-3.82699e-26
-4.01447e-26
-4.29148e-26
-4.54502e-26
-4.82187e-26
-5.05882e-26
-5.31989e-26
-5.62738e-26
-5.88028e-26
-6.0738e-26
-6.31616e-26
-6.5669e-26
-6.82591e-26
-7.04363e-26
-7.34306e-26
-7.78332e-26
-7.99532e-26
-8.52029e-26
-8.66273e-26
-9.13526e-26
-9.41251e-26
-9.76228e-26
-1.00572e-25
-1.06659e-25
-1.08896e-25
-1.13416e-25
-1.14793e-25
-1.20667e-25
-1.25158e-25
-1.29815e-25
-1.34654e-25
-1.39682e-25
-1.43981e-25
-1.50622e-25
-1.56563e-25
-1.62761e-25
-1.71351e-25
-1.75489e-25
-1.82047e-25
-1.88941e-25
-1.96183e-25
-2.03805e-25
-2.14364e-25
-2.17063e-25
-2.28543e-25
-2.37837e-25
-2.47577e-25
-2.57802e-25
-2.71632e-25
-2.7917e-25
-2.90309e-25
-3.01921e-25
-3.13961e-25
-3.26379e-25
-3.39096e-25
-3.51997e-25
-3.64924e-25
-3.77679e-25
-3.90032e-25
-4.01748e-25
-4.12612e-25
-4.22448e-25
-4.3116e-25
-4.51886e-25
-4.44735e-25
-4.50381e-25
-5.68226e-25
-2.15037e-23
-2.59327e-23
-2.56319e-23
-2.46462e-23
-2.35841e-23
-2.25048e-23
-2.14188e-23
-2.03347e-23
-1.92591e-23
-1.81972e-23
-1.71529e-23
-1.6129e-23
-1.51272e-23
-1.41486e-23
-1.31936e-23
-1.22622e-23
-1.1354e-23
-1.0468e-23
-9.6034e-24
-8.75887e-24
-7.93309e-24
-7.12462e-24
-6.33191e-24
-5.55339e-24
-4.78742e-24
-4.03237e-24
-3.28657e-24
-2.54834e-24
-1.816e-24
-1.08787e-24
-3.6226e-25
)
;
    }
    outlet
    {
        type            cyclic;
        value           nonuniform List<scalar> 
120
(
7.50584e-28
2.25329e-27
3.7628e-27
5.24126e-27
6.73126e-27
8.23199e-27
9.76364e-27
1.12139e-26
1.2676e-26
1.42671e-26
1.58568e-26
1.74385e-26
1.91748e-26
2.0908e-26
2.26737e-26
2.44743e-26
2.63124e-26
2.81906e-26
3.01113e-26
3.20772e-26
3.40908e-26
3.61546e-26
3.82699e-26
4.01447e-26
4.29148e-26
4.54502e-26
4.82187e-26
5.05882e-26
5.31989e-26
5.62738e-26
5.88028e-26
6.0738e-26
6.31616e-26
6.5669e-26
6.82591e-26
7.04363e-26
7.34306e-26
7.78332e-26
7.99532e-26
8.52029e-26
8.66273e-26
9.13526e-26
9.41251e-26
9.76228e-26
1.00572e-25
1.06659e-25
1.08896e-25
1.13416e-25
1.14793e-25
1.20667e-25
1.25158e-25
1.29815e-25
1.34654e-25
1.39682e-25
1.43981e-25
1.50622e-25
1.56563e-25
1.62761e-25
1.71351e-25
1.75489e-25
1.82047e-25
1.88941e-25
1.96183e-25
2.03805e-25
2.14364e-25
2.17063e-25
2.28543e-25
2.37837e-25
2.47577e-25
2.57802e-25
2.71632e-25
2.7917e-25
2.90309e-25
3.01921e-25
3.13961e-25
3.26379e-25
3.39096e-25
3.51997e-25
3.64924e-25
3.77679e-25
3.90032e-25
4.01748e-25
4.12612e-25
4.22448e-25
4.3116e-25
4.51886e-25
4.44735e-25
4.50381e-25
5.68226e-25
2.15037e-23
2.59327e-23
2.56319e-23
2.46462e-23
2.35841e-23
2.25048e-23
2.14188e-23
2.03347e-23
1.92591e-23
1.81972e-23
1.71529e-23
1.6129e-23
1.51272e-23
1.41486e-23
1.31936e-23
1.22622e-23
1.1354e-23
1.0468e-23
9.6034e-24
8.75887e-24
7.93309e-24
7.12462e-24
6.33191e-24
5.55339e-24
4.78742e-24
4.03237e-24
3.28657e-24
2.54834e-24
1.816e-24
1.08787e-24
3.6226e-25
)
;
    }
    top
    {
        type            fixedValue;
        value           uniform 0;
    }
    bottom
    {
        type            fixedValue;
        value           uniform 0;
    }
    frontAndBackPlanes
    {
        type            empty;
        value           nonuniform List<scalar> 0();
    }
}


// ************************************************************************* //
