/*--------------------------------*- C++ -*----------------------------------*\
| =========                 |                                                 |
| \\      /  F ield         | OpenFOAM: The Open Source CFD Toolbox           |
|  \\    /   O peration     | Version:  v2006                                 |
|   \\  /    A nd           | Website:  www.openfoam.com                      |
|    \\/     M anipulation  |                                                 |
\*---------------------------------------------------------------------------*/
FoamFile
{
    version     2.0;
    format      ascii;
    class       volTensorField;
    location    "1320";
    object      Taua;
}
// * * * * * * * * * * * * * * * * * * * * * * * * * * * * * * * * * * * * * //

dimensions      [1 -1 -2 0 0 0 0];


internalField   nonuniform List<tensor> 
120
(
(0.00177529 0 0 1.05135e-14 -0.00355059 0 0 0 0.00177529)
(0.00179465 0 0 1.05312e-14 -0.00358931 0 0 0 0.00179465)
(0.00181987 0 0 1.04579e-14 -0.00363974 0 0 0 0.00181987)
(0.00184431 0 0 1.04012e-14 -0.00368863 0 0 0 0.00184431)
(0.00186889 0 0 1.04673e-14 -0.00373779 0 0 0 0.00186889)
(0.00189415 0 0 1.05501e-14 -0.00378829 0 0 0 0.00189415)
(0.00192005 0 0 1.0437e-14 -0.0038401 0 0 0 0.00192005)
(0.00194658 0 0 1.03407e-14 -0.00389315 0 0 0 0.00194658)
(0.00197375 0 0 1.06864e-14 -0.00394751 0 0 0 0.00197375)
(0.00200161 0 0 1.1049e-14 -0.00400322 0 0 0 0.00200161)
(0.00203017 0 0 1.12161e-14 -0.00406033 0 0 0 0.00203017)
(0.00205945 0 0 1.16129e-14 -0.0041189 0 0 0 0.00205945)
(0.0020895 0 0 1.20269e-14 -0.004179 0 0 0 0.0020895)
(0.00212033 0 0 1.22457e-14 -0.00424067 0 0 0 0.00212033)
(0.00215199 0 0 1.24819e-14 -0.00430399 0 0 0 0.00215199)
(0.00218451 0 0 1.27357e-14 -0.00436902 0 0 0 0.00218451)
(0.00221793 0 0 1.30071e-14 -0.00443586 0 0 0 0.00221793)
(0.00225229 0 0 1.32962e-14 -0.00450457 0 0 0 0.00225229)
(0.00228763 0 0 1.36031e-14 -0.00457525 0 0 0 0.00228763)
(0.00232399 0 0 1.3928e-14 -0.00464799 0 0 0 0.00232399)
(0.00236144 0 0 1.42708e-14 -0.00472287 0 0 0 0.00236144)
(0.0024 0 0 1.46316e-14 -0.0048 0 0 0 0.0024)
(0.00243974 0 0 1.50105e-14 -0.00487948 0 0 0 0.00243974)
(0.00248071 0 0 1.6257e-14 -0.00496141 0 0 0 0.00248071)
(0.00252295 0 0 1.75217e-14 -0.0050459 0 0 0 0.00252295)
(0.00256652 0 0 1.79553e-14 -0.00513304 0 0 0 0.00256652)
(0.00261147 0 0 1.79826e-14 -0.00522295 0 0 0 0.00261147)
(0.00265787 0 0 1.80284e-14 -0.00531573 0 0 0 0.00265787)
(0.00270576 0 0 1.85172e-14 -0.00541151 0 0 0 0.00270576)
(0.00275521 0 0 1.81756e-14 -0.00551041 0 0 0 0.00275521)
(0.00280628 0 0 1.70038e-14 -0.00561256 0 0 0 0.00280628)
(0.00285905 0 0 1.67001e-14 -0.00571811 0 0 0 0.00285905)
(0.00291361 0 0 1.72647e-14 -0.00582722 0 0 0 0.00291361)
(0.00297003 0 0 1.7849e-14 -0.00594007 0 0 0 0.00297003)
(0.00302844 0 0 1.84443e-14 -0.00605688 0 0 0 0.00302844)
(0.00308894 3.68135e-17 0 1.99091e-14 -0.00617788 0 0 0 0.00308894)
(0.00315168 0 0 2.22621e-14 -0.00630336 0 0 0 0.00315168)
(0.00321681 0 0 2.29402e-14 -0.00643361 0 0 0 0.00321681)
(0.0032845 0 0 2.36321e-14 -0.006569 0 0 0 0.0032845)
(0.00335495 0 0 2.35e-14 -0.00670989 0 0 0 0.00335495)
(0.00342836 0 0 2.3394e-14 -0.00685671 0 0 0 0.00342836)
(0.00350496 0 0 2.41644e-14 -0.00700991 0 0 0 0.00350496)
(0.00358498 0 0 2.41165e-14 -0.00716996 0 0 0 0.00358498)
(0.00366867 0 0 2.49496e-14 -0.00733733 0 0 0 0.00366867)
(0.00375626 0 0 2.66662e-14 -0.00751252 0 0 0 0.00375626)
(0.00384801 0 0 2.67251e-14 -0.00769602 0 0 0 0.00384801)
(0.00394415 0 0 2.5978e-14 -0.00788829 0 0 0 0.00394415)
(0.00404491 0 0 2.61263e-14 -0.00808981 0 0 0 0.00404491)
(0.00415051 0 0 2.8023e-14 -0.00830102 0 0 0 0.00415051)
(0.0042612 0 0 3.08253e-14 -0.00852239 0 0 0 0.0042612)
(0.0043772 0 0 3.19944e-14 -0.0087544 0 0 0 0.0043772)
(0.0044988 0 0 3.32331e-14 -0.0089976 0 0 0 0.0044988)
(0.00462633 0 0 3.45488e-14 -0.00925266 0 0 0 0.00462633)
(0.00476022 0 0 3.59494e-14 -0.00952044 0 0 0 0.00476022)
(0.00490102 0 0 3.82911e-14 -0.00980205 0 0 0 0.00490102)
(0.00504948 0 0 4.07334e-14 -0.010099 0 0 0 0.00504948)
(0.00520654 0 0 4.24372e-14 -0.0104131 0 0 0 0.00520654)
(0.00537341 0 0 4.42796e-14 -0.0107468 0 0 0 0.00537341)
(0.00555159 -7.36271e-17 0 4.45507e-14 -0.0111032 0 0 0 0.00555159)
(0.00574288 0 0 4.49135e-14 -0.0114858 0 0 0 0.00574288)
(0.00594933 0 0 4.71126e-14 -0.0118987 0 0 0 0.00594933)
(0.00617324 0 0 4.94765e-14 -0.0123465 0 0 0 0.00617324)
(0.00641702 0 0 5.19857e-14 -0.012834 0 0 0 0.00641702)
(0.00668309 0 0 5.46388e-14 -0.0133662 0 0 0 0.00668309)
(0.00697371 0 0 5.57339e-14 -0.0139474 0 0 0 0.00697371)
(0.0072908 0 0 5.86636e-14 -0.0145816 0 0 0 0.0072908)
(0.00763586 0 0 6.34166e-14 -0.0152717 0 0 0 0.00763586)
(0.00800986 0 0 6.65786e-14 -0.0160197 0 0 0 0.00800986)
(0.00841344 0 0 6.98295e-14 -0.0168269 0 0 0 0.00841344)
(0.00884724 0 0 7.31443e-14 -0.0176945 0 0 0 0.00884724)
(0.00931277 0 0 7.47857e-14 -0.0186255 0 0 0 0.00931277)
(0.00981366 0 0 7.64155e-14 -0.0196273 0 0 0 0.00981366)
(0.0103577 0 0 7.96785e-14 -0.0207153 0 0 0 0.0103577)
(0.0109594 0 0 8.27831e-14 -0.0219188 0 0 0 0.0109594)
(0.0116438 0 0 8.56053e-14 -0.0232877 0 0 0 0.0116438)
(0.0124508 0 0 8.79738e-14 -0.0249015 0 0 0 0.0124508)
(0.0134394 0 0 8.96625e-14 -0.0268788 0 0 0 0.0134394)
(0.0146944 0 0 9.03978e-14 -0.0293887 0 0 0 0.0146944)
(0.0163344 0 0 8.9887e-14 -0.0326688 0 0 0 0.0163344)
(0.0185342 0 0 8.78776e-14 -0.0370683 0 0 0 0.0185342)
(0.0216019 0 0 8.42399e-14 -0.0432038 0 0 0 0.0216019)
(0.026051 0 0 7.90305e-14 -0.0521021 0 0 0 0.026051)
(0.0316745 0 0 7.24491e-14 -0.0633491 0 0 0 0.0316745)
(0.036086 0 0 6.46857e-14 -0.072172 0 0 0 0.036086)
(0.0365243 0 0 5.71738e-14 -0.0730486 0 0 0 0.0365243)
(0.028884 0 0 4.21036e-14 -0.0577679 0 0 0 0.028884)
(0.0192547 0 0 2.69338e-14 -0.0385094 0 0 0 0.0192547)
(0.0093577 0 0 1.64973e-14 -0.0187154 0 0 0 0.0093577)
(-0.000100438 0 0 2.50463e-15 0.000200876 0 0 0 -0.000100438)
(5.56411e-05 0 0 4.50814e-17 -0.000111282 0 0 0 5.56411e-05)
(2.30222e-05 0 0 8.09695e-18 -4.60443e-05 0 0 0 2.30222e-05)
(-1.15636e-06 0 0 -1.19117e-19 2.31272e-06 0 0 0 -1.15636e-06)
(1.84111e-09 0 0 -1.73613e-22 -3.68221e-09 0 0 0 1.84111e-09)
(2.24204e-13 0 0 -1.15172e-25 -4.48408e-13 0 0 0 2.24204e-13)
(-4.13686e-19 0 0 -9.0151e-32 8.27373e-19 0 0 0 -4.13686e-19)
(-1.7601e-27 0 0 -9.23072e-39 3.5202e-27 0 0 0 -1.7601e-27)
(-1.10937e-35 0 0 -6.65561e-46 2.21873e-35 0 0 0 -1.10937e-35)
(6.21849e-43 0 0 -4.14359e-53 -1.2437e-42 0 0 0 6.21849e-43)
(5.31392e-51 0 0 -2.68657e-60 -1.06278e-50 0 0 0 5.31392e-51)
(-2.10232e-58 0 0 -1.82199e-67 4.20463e-58 0 0 0 -2.10232e-58)
(-2.98984e-66 0 0 -1.42903e-74 5.97968e-66 0 0 0 -2.98984e-66)
(1.16952e-73 0 0 -1.36827e-81 -2.33904e-73 0 0 0 1.16952e-73)
(4.03873e-81 0 0 -1.91029e-88 -8.07747e-81 0 0 0 4.03873e-81)
(-1.98954e-88 0 0 -3.28032e-95 3.97907e-88 0 0 0 -1.98954e-88)
(-1.20234e-95 0 0 -5.97539e-102 2.40467e-95 0 0 0 -1.20234e-95)
(4.23919e-103 0 0 -1.00305e-108 -8.47839e-103 0 0 0 4.23919e-103)
(3.42955e-110 0 0 -1.60735e-115 -6.85911e-110 0 0 0 3.42955e-110)
(6.66769e-118 0 0 -2.30601e-122 -1.33354e-117 0 0 0 6.66769e-118)
(2.0851e-124 0 0 -3.07604e-129 -4.17019e-124 0 0 0 2.0851e-124)
(4.1702e-131 0 0 -3.60676e-136 -8.3404e-131 0 0 0 4.1702e-131)
(5.21226e-138 0 0 -3.84502e-143 -1.04245e-137 0 0 0 5.21226e-138)
(4.53263e-145 0 0 -3.5213e-150 -9.06526e-145 0 0 0 4.53263e-145)
(2.9778e-152 0 0 -2.91412e-157 -5.95561e-152 0 0 0 2.9778e-152)
(-7.00471e-160 0 0 -2.13547e-164 1.40094e-159 0 0 0 -7.00471e-160)
(-1.80595e-166 0 0 -1.47558e-171 3.61191e-166 0 0 0 -1.80595e-166)
(-3.25745e-172 0 0 -9.2917e-179 6.51489e-172 0 0 0 -3.25745e-172)
(-1.05178e-176 0 0 -5.55268e-186 2.10355e-176 0 0 0 -1.05178e-176)
(-1.36893e-183 0 0 -3.06301e-193 2.73785e-183 0 0 0 -1.36893e-183)
(-5.38914e-190 0 0 -1.65688e-200 1.07783e-189 0 0 0 -5.38914e-190)
(-2.82624e-194 0 0 -8.9766e-208 5.65248e-194 0 0 0 -2.82624e-194)
)
;

boundaryField
{
    inlet
    {
        type            cyclic;
    }
    outlet
    {
        type            cyclic;
    }
    top
    {
        type            extrapolatedCalculated;
        value           uniform (-5.64709e-194 0 0 -8.96962e-208 1.12942e-193 0 0 0 -5.64709e-194);
    }
    bottom
    {
        type            extrapolatedCalculated;
        value           uniform (0.00176883 0 0 1.05082e-14 -0.00353767 0 0 0 0.00176883);
    }
    frontAndBackPlanes
    {
        type            empty;
    }
}


// ************************************************************************* //
