/*--------------------------------*- C++ -*----------------------------------*\
| =========                 |                                                 |
| \\      /  F ield         | OpenFOAM: The Open Source CFD Toolbox           |
|  \\    /   O peration     | Version:  v2006                                 |
|   \\  /    A nd           | Website:  www.openfoam.com                      |
|    \\/     M anipulation  |                                                 |
\*---------------------------------------------------------------------------*/
FoamFile
{
    version     2.0;
    format      ascii;
    class       volTensorField;
    location    "1320";
    object      Taub;
}
// * * * * * * * * * * * * * * * * * * * * * * * * * * * * * * * * * * * * * //

dimensions      [1 -1 -2 0 0 0 0];


internalField   nonuniform List<tensor> 
120
(
(-1.26987e-07 0 0 5.00377e-19 2.53974e-07 0 0 0 -1.26987e-07)
(-1.28021e-07 0 0 5.01741e-19 2.56042e-07 0 0 0 -1.28021e-07)
(-1.29561e-07 0 0 4.97677e-19 2.59122e-07 0 0 0 -1.29561e-07)
(-1.31232e-07 0 0 4.94399e-19 2.62464e-07 0 0 0 -1.31232e-07)
(-1.32928e-07 0 0 4.98082e-19 2.65856e-07 0 0 0 -1.32928e-07)
(-1.34659e-07 0 0 5.04991e-19 2.69319e-07 0 0 0 -1.34659e-07)
(-1.3643e-07 0 0 4.96558e-19 2.72859e-07 0 0 0 -1.3643e-07)
(-1.38242e-07 0 0 4.84957e-19 2.76485e-07 0 0 0 -1.38242e-07)
(-1.40099e-07 0 0 5.08369e-19 2.80197e-07 0 0 0 -1.40099e-07)
(-1.42e-07 0 0 5.29579e-19 2.84e-07 0 0 0 -1.42e-07)
(-1.43948e-07 0 0 5.27998e-19 2.87897e-07 0 0 0 -1.43948e-07)
(-1.45945e-07 0 0 5.5236e-19 2.9189e-07 0 0 0 -1.45945e-07)
(-1.47992e-07 0 0 5.77556e-19 2.95985e-07 0 0 0 -1.47992e-07)
(-1.50092e-07 0 0 5.82412e-19 3.00185e-07 0 0 0 -1.50092e-07)
(-1.52247e-07 0 0 5.93586e-19 3.04494e-07 0 0 0 -1.52247e-07)
(-1.54459e-07 0 0 6.05617e-19 3.08919e-07 0 0 0 -1.54459e-07)
(-1.56731e-07 0 0 6.18483e-19 3.13463e-07 0 0 0 -1.56731e-07)
(-1.59066e-07 0 0 6.3219e-19 3.18132e-07 0 0 0 -1.59066e-07)
(-1.61465e-07 0 0 6.46742e-19 3.2293e-07 0 0 0 -1.61465e-07)
(-1.63933e-07 0 0 6.62142e-19 3.27865e-07 0 0 0 -1.63933e-07)
(-1.66471e-07 0 0 6.78392e-19 3.32943e-07 0 0 0 -1.66471e-07)
(-1.69085e-07 0 0 6.95281e-19 3.3817e-07 0 0 0 -1.69085e-07)
(-1.71776e-07 0 0 6.63795e-19 3.43552e-07 0 0 0 -1.71776e-07)
(-1.74549e-07 0 0 7.72654e-19 3.49097e-07 0 0 0 -1.74549e-07)
(-1.77406e-07 0 0 8.82488e-19 3.54812e-07 0 0 0 -1.77406e-07)
(-1.80351e-07 0 0 8.82159e-19 3.60701e-07 0 0 0 -1.80351e-07)
(-1.83386e-07 0 0 8.54484e-19 3.66773e-07 0 0 0 -1.83386e-07)
(-1.86517e-07 0 0 8.28189e-19 3.73033e-07 0 0 0 -1.86517e-07)
(-1.89746e-07 0 0 9.45439e-19 3.79491e-07 0 0 0 -1.89746e-07)
(-1.93077e-07 0 0 9.31774e-19 3.86154e-07 0 0 0 -1.93077e-07)
(-1.96516e-07 0 0 7.42219e-19 3.93031e-07 0 0 0 -1.96516e-07)
(-2.00066e-07 0 0 7.24636e-19 4.00133e-07 0 0 0 -2.00066e-07)
(-2.03734e-07 0 0 8.19682e-19 4.07468e-07 0 0 0 -2.03734e-07)
(-2.07524e-07 0 0 8.47295e-19 4.15048e-07 0 0 0 -2.07524e-07)
(-2.11443e-07 0 0 7.92342e-19 4.22887e-07 0 0 0 -2.11443e-07)
(-2.155e-07 -1.74801e-21 0 8.59458e-19 4.31e-07 0 0 0 -2.155e-07)
(-2.19703e-07 0 0 1.22918e-18 4.39406e-07 0 0 0 -2.19703e-07)
(-2.24063e-07 0 0 1.08381e-18 4.48126e-07 0 0 0 -2.24063e-07)
(-2.28592e-07 0 0 1.22445e-18 4.57183e-07 0 0 0 -2.28592e-07)
(-2.33301e-07 0 0 1.10876e-18 4.66603e-07 0 0 0 -2.33301e-07)
(-2.38206e-07 0 0 1.02155e-18 4.76411e-07 0 0 0 -2.38206e-07)
(-2.43318e-07 0 0 1.24537e-18 4.86637e-07 0 0 0 -2.43318e-07)
(-2.48654e-07 0 0 1.04138e-18 4.97308e-07 0 0 0 -2.48654e-07)
(-2.54229e-07 0 0 1.07053e-18 5.08457e-07 0 0 0 -2.54229e-07)
(-2.60059e-07 0 0 1.5004e-18 5.20117e-07 0 0 0 -2.60059e-07)
(-2.66159e-07 0 0 1.38215e-18 5.32318e-07 0 0 0 -2.66159e-07)
(-2.72545e-07 0 0 1.12183e-18 5.4509e-07 0 0 0 -2.72545e-07)
(-2.79232e-07 0 0 9.78834e-19 5.58464e-07 0 0 0 -2.79232e-07)
(-2.86233e-07 0 0 1.2034e-18 5.72466e-07 0 0 0 -2.86233e-07)
(-2.93561e-07 0 0 1.72022e-18 5.87122e-07 0 0 0 -2.93561e-07)
(-3.0123e-07 0 0 1.51803e-18 6.02461e-07 0 0 0 -3.0123e-07)
(-3.09259e-07 0 0 1.57542e-18 6.18518e-07 0 0 0 -3.09259e-07)
(-3.17669e-07 0 0 1.63688e-18 6.35337e-07 0 0 0 -3.17669e-07)
(-3.26487e-07 0 0 1.54725e-18 6.52975e-07 0 0 0 -3.26487e-07)
(-3.35752e-07 0 0 1.81449e-18 6.71505e-07 0 0 0 -3.35752e-07)
(-3.45512e-07 0 0 2.08643e-18 6.91025e-07 0 0 0 -3.45512e-07)
(-3.55829e-07 0 0 2.01271e-18 7.11659e-07 0 0 0 -3.55829e-07)
(-3.66781e-07 0 0 2.4517e-18 7.33561e-07 0 0 0 -3.66781e-07)
(-3.78464e-07 3.48697e-21 0 2.1099e-18 7.56928e-07 0 0 0 -3.78464e-07)
(-3.90997e-07 0 0 1.77257e-18 7.81994e-07 0 0 0 -3.90997e-07)
(-4.04515e-07 0 0 2.22896e-18 8.0903e-07 0 0 0 -4.04515e-07)
(-4.19164e-07 0 0 2.34209e-18 8.38328e-07 0 0 0 -4.19164e-07)
(-4.35099e-07 0 0 2.46238e-18 8.70197e-07 0 0 0 -4.35099e-07)
(-4.52468e-07 0 0 3.01116e-18 9.04937e-07 0 0 0 -4.52468e-07)
(-4.71407e-07 0 0 2.19532e-18 9.42814e-07 0 0 0 -4.71407e-07)
(-4.9202e-07 0 0 2.34754e-18 9.8404e-07 0 0 0 -4.9202e-07)
(-5.14386e-07 0 0 3.43869e-18 1.02877e-06 0 0 0 -5.14386e-07)
(-5.3855e-07 0 0 3.15013e-18 1.0771e-06 0 0 0 -5.3855e-07)
(-5.64537e-07 0 0 3.30351e-18 1.12907e-06 0 0 0 -5.64537e-07)
(-5.92378e-07 0 0 3.97912e-18 1.18476e-06 0 0 0 -5.92378e-07)
(-6.2217e-07 0 0 3.53378e-18 1.24434e-06 0 0 0 -6.2217e-07)
(-6.54166e-07 0 0 3.08804e-18 1.30833e-06 0 0 0 -6.54166e-07)
(-6.88904e-07 0 0 3.7606e-18 1.37781e-06 0 0 0 -6.88904e-07)
(-7.2739e-07 0 0 3.90851e-18 1.45478e-06 0 0 0 -7.2739e-07)
(-7.71336e-07 0 0 4.04055e-18 1.54267e-06 0 0 0 -7.71336e-07)
(-8.2344e-07 0 0 4.15099e-18 1.64688e-06 0 0 0 -8.2344e-07)
(-8.87699e-07 0 0 4.2292e-18 1.7754e-06 0 0 0 -8.87699e-07)
(-9.69837e-07 0 0 4.26226e-18 1.93967e-06 0 0 0 -9.69837e-07)
(-1.07828e-06 0 0 4.23642e-18 2.15656e-06 0 0 0 -1.07828e-06)
(-1.22554e-06 0 0 4.13981e-18 2.45107e-06 0 0 0 -1.22554e-06)
(-1.4242e-06 0 0 3.96639e-18 2.84841e-06 0 0 0 -1.4242e-06)
(-1.68652e-06 0 0 3.7189e-18 3.37304e-06 0 0 0 -1.68652e-06)
(-1.98193e-06 0 0 3.40687e-18 3.96386e-06 0 0 0 -1.98193e-06)
(-2.20061e-06 0 0 3.05008e-18 4.40122e-06 0 0 0 -2.20061e-06)
(-2.18509e-06 0 0 4.83668e-18 4.37018e-06 0 0 0 -2.18509e-06)
(-1.77874e-06 0 0 2.22806e-18 3.55749e-06 0 0 0 -1.77874e-06)
(-6.65111e-07 0 0 -2.46666e-19 1.33022e-06 0 0 0 -6.65111e-07)
(-3.66977e-05 0 0 2.01977e-17 7.33954e-05 0 0 0 -3.66977e-05)
(-0.000275865 0 0 3.41432e-15 0.000551731 0 0 0 -0.000275865)
(0.00464226 0 0 3.82795e-15 -0.00928451 0 0 0 0.00464226)
(0.000270055 0 0 6.56049e-16 -0.000540111 0 0 0 0.000270055)
(-0.00252858 0 0 -9.14347e-17 0.00505716 0 0 0 -0.00252858)
(-5.88489e-06 0 0 -1.36509e-16 1.17698e-05 0 0 0 -5.88489e-06)
(0.000370006 0 0 -1.42742e-16 -0.000740011 0 0 0 0.000370006)
(1.58079e-05 0 0 -1.44333e-16 -3.16158e-05 0 0 0 1.58079e-05)
(-2.82655e-05 0 0 -1.44656e-16 5.6531e-05 0 0 0 -2.82655e-05)
(-2.37986e-06 0 0 -1.43965e-16 4.75971e-06 0 0 0 -2.37986e-06)
(2.11198e-06 0 0 -1.42481e-16 -4.22396e-06 0 0 0 2.11198e-06)
(2.71596e-07 0 0 -1.40394e-16 -5.43192e-07 0 0 0 2.71596e-07)
(-1.54036e-07 0 0 -1.37866e-16 3.08072e-07 0 0 0 -1.54036e-07)
(-2.75712e-08 0 0 -1.35034e-16 5.51425e-08 0 0 0 -2.75712e-08)
(1.09162e-08 0 0 -1.3201e-16 -2.18324e-08 0 0 0 1.09162e-08)
(2.65526e-09 0 0 -1.28887e-16 -5.31052e-09 0 0 0 2.65526e-09)
(-7.36339e-10 0 0 -1.25739e-16 1.47268e-09 0 0 0 -7.36339e-10)
(-2.40086e-10 0 0 -1.22628e-16 4.80173e-10 0 0 0 -2.40086e-10)
(4.87479e-11 0 0 -1.19599e-16 -9.74958e-11 0 0 0 4.87479e-11)
(2.42559e-11 0 0 -1.1669e-16 -4.85118e-11 0 0 0 2.42559e-11)
(3.33591e-12 0 0 -1.1393e-16 -6.67181e-12 0 0 0 3.33591e-12)
(7.49959e-12 0 0 -1.1134e-16 -1.49992e-11 0 0 0 7.49959e-12)
(1.24514e-11 0 0 -1.08937e-16 -2.49029e-11 0 0 0 1.24514e-11)
(1.42953e-11 0 0 -1.06732e-16 -2.85906e-11 0 0 0 1.42953e-11)
(1.33308e-11 0 0 -1.04736e-16 -2.66616e-11 0 0 0 1.33308e-11)
(1.04597e-11 0 0 -1.02953e-16 -2.09195e-11 0 0 0 1.04597e-11)
(7.94074e-12 0 0 -1.01388e-16 -1.58815e-11 0 0 0 7.94074e-12)
(7.0252e-12 0 0 -1.00044e-16 -1.40504e-11 0 0 0 7.0252e-12)
(7.50681e-12 0 0 -9.89234e-17 -1.50136e-11 0 0 0 7.50681e-12)
(7.32892e-12 0 0 -9.80259e-17 -1.46578e-11 0 0 0 7.32892e-12)
(7.24064e-14 0 0 -9.73526e-17 -1.44813e-13 0 0 0 7.24064e-14)
(-2.10613e-12 0 0 -9.69036e-17 4.21225e-12 0 0 0 -2.10613e-12)
(1.12211e-10 0 0 -9.66629e-17 -2.24421e-10 0 0 0 1.12211e-10)
)
;

boundaryField
{
    inlet
    {
        type            cyclic;
    }
    outlet
    {
        type            cyclic;
    }
    top
    {
        type            extrapolatedCalculated;
        value           uniform (2.22014e-10 0 0 -9.65905e-17 -4.44029e-10 0 0 0 2.22014e-10);
    }
    bottom
    {
        type            extrapolatedCalculated;
        value           uniform (-1.26657e-07 0 0 5.00121e-19 2.53314e-07 0 0 0 -1.26657e-07);
    }
    frontAndBackPlanes
    {
        type            empty;
    }
}


// ************************************************************************* //
