/*--------------------------------*- C++ -*----------------------------------*\
| =========                 |                                                 |
| \\      /  F ield         | OpenFOAM: The Open Source CFD Toolbox           |
|  \\    /   O peration     | Version:  v2006                                 |
|   \\  /    A nd           | Website:  www.openfoam.com                      |
|    \\/     M anipulation  |                                                 |
\*---------------------------------------------------------------------------*/
FoamFile
{
    version     2.0;
    format      ascii;
    class       volVectorField;
    location    "1320";
    object      Ua;
}
// * * * * * * * * * * * * * * * * * * * * * * * * * * * * * * * * * * * * * //

dimensions      [0 1 -1 0 0 0 0];


internalField   nonuniform List<vector> 
120
(
(2.50195e-21 -1.26345e-09 0)
(7.51091e-21 -3.80882e-09 0)
(1.25317e-20 -6.39103e-09 0)
(1.74708e-20 -9.00845e-09 0)
(2.24375e-20 -1.16605e-08 0)
(2.74397e-20 -1.43481e-08 0)
(3.24853e-20 -1.70723e-08 0)
(3.73797e-20 -1.9834e-08 0)
(4.23336e-20 -2.2634e-08 0)
(4.75573e-20 -2.54733e-08 0)
(5.28565e-20 -2.83529e-08 0)
(5.82393e-20 -3.12737e-08 0)
(6.39164e-20 -3.4237e-08 0)
(6.96935e-20 -3.72437e-08 0)
(7.55789e-20 -4.02951e-08 0)
(8.1581e-20 -4.33923e-08 0)
(8.77081e-20 -4.65366e-08 0)
(9.39687e-20 -4.97292e-08 0)
(1.00371e-19 -5.29717e-08 0)
(1.06924e-19 -5.62653e-08 0)
(1.13636e-19 -5.96116e-08 0)
(1.20515e-19 -6.30122e-08 0)
(1.27571e-19 -6.64688e-08 0)
(1.34811e-19 -6.99829e-08 0)
(1.43054e-19 -7.35565e-08 0)
(1.51498e-19 -7.71914e-08 0)
(1.60154e-19 -8.08894e-08 0)
(1.68625e-19 -8.46527e-08 0)
(1.77324e-19 -8.84833e-08 0)
(1.8626e-19 -9.23834e-08 0)
(1.94634e-19 -9.63553e-08 0)
(2.02454e-19 -1.00401e-07 0)
(2.10539e-19 -1.04524e-07 0)
(2.18897e-19 -1.08726e-07 0)
(2.27538e-19 -1.1301e-07 0)
(2.36463e-19 -1.17379e-07 0)
(2.46499e-19 -1.21835e-07 0)
(2.57665e-19 -1.26383e-07 0)
(2.68347e-19 -1.31026e-07 0)
(2.80171e-19 -1.35768e-07 0)
(2.90728e-19 -1.40612e-07 0)
(3.02451e-19 -1.45563e-07 0)
(3.13741e-19 -1.50626e-07 0)
(3.2542e-19 -1.55806e-07 0)
(3.37503e-19 -1.61108e-07 0)
(3.50816e-19 -1.66538e-07 0)
(3.62955e-19 -1.72102e-07 0)
(3.75557e-19 -1.77807e-07 0)
(3.87837e-19 -1.83659e-07 0)
(4.02245e-19 -1.89666e-07 0)
(4.17195e-19 -1.95834e-07 0)
(4.32716e-19 -2.02172e-07 0)
(4.48845e-19 -2.08688e-07 0)
(4.6562e-19 -2.1539e-07 0)
(4.83083e-19 -2.22288e-07 0)
(5.02087e-19 -2.29393e-07 0)
(5.21876e-19 -2.36715e-07 0)
(5.42504e-19 -2.44269e-07 0)
(5.64047e-19 -2.52068e-07 0)
(5.84933e-19 -2.6013e-07 0)
(6.06822e-19 -2.68476e-07 0)
(6.29802e-19 -2.77128e-07 0)
(6.53943e-19 -2.86114e-07 0)
(6.79312e-19 -2.95463e-07 0)
(7.0598e-19 -3.05208e-07 0)
(7.32392e-19 -3.15388e-07 0)
(7.6185e-19 -3.26039e-07 0)
(7.92789e-19 -3.37204e-07 0)
(8.25258e-19 -3.48925e-07 0)
(8.59293e-19 -3.61243e-07 0)
(8.94919e-19 -3.74202e-07 0)
(9.30518e-19 -3.87851e-07 0)
(9.67696e-19 -4.02241e-07 0)
(1.0064e-18 -4.17444e-07 0)
(1.04654e-18 -4.33554e-07 0)
(1.08793e-18 -4.50712e-07 0)
(1.13032e-18 -4.69128e-07 0)
(1.17332e-18 -4.8911e-07 0)
(1.21641e-18 -5.11111e-07 0)
(1.25893e-18 -5.3578e-07 0)
(1.30011e-18 -5.64066e-07 0)
(1.33916e-18 -5.975e-07 0)
(1.37537e-18 -6.38498e-07 0)
(1.40816e-18 -6.87998e-07 0)
(1.43698e-18 -7.416e-07 0)
(1.46261e-18 -7.92353e-07 0)
(1.48219e-18 -8.34637e-07 0)
(1.49931e-18 -8.71062e-07 0)
(1.52773e-18 -9.12147e-07 0)
(7.15109e-17 7.55153e-06 0)
(8.64427e-17 -0.000315327 0)
(8.54394e-17 -0.000111258 0)
(8.21617e-17 -0.000190653 0)
(7.86176e-17 -0.000328288 0)
(7.50158e-17 -0.000232386 0)
(7.13957e-17 -0.000228868 0)
(6.7782e-17 -0.000228248 0)
(6.41965e-17 -0.000228508 0)
(6.06571e-17 -0.000228568 0)
(5.71759e-17 -0.00022855 0)
(5.3763e-17 -0.000228545 0)
(5.04233e-17 -0.000228546 0)
(4.71617e-17 -0.000228546 0)
(4.39782e-17 -0.000228546 0)
(4.08739e-17 -0.000228546 0)
(3.78461e-17 -0.000228546 0)
(3.48932e-17 -0.000228546 0)
(3.2011e-17 -0.000228546 0)
(2.91959e-17 -0.000228546 0)
(2.64433e-17 -0.000228546 0)
(2.37484e-17 -0.000228546 0)
(2.11061e-17 -0.000228546 0)
(1.85108e-17 -0.000228546 0)
(1.59579e-17 -0.000228546 0)
(1.3441e-17 -0.000228546 0)
(1.09549e-17 -0.000228546 0)
(8.49417e-18 -0.000228546 0)
(6.05304e-18 -0.000228518 0)
(3.62594e-18 -0.000228481 0)
(1.2074e-18 -0.000228045 0)
)
;

boundaryField
{
    inlet
    {
        type            cyclic;
    }
    outlet
    {
        type            cyclic;
    }
    top
    {
        type            fixedValue;
        value           uniform (0 0 0);
    }
    bottom
    {
        type            fixedValue;
        value           uniform (0 0 0);
    }
    frontAndBackPlanes
    {
        type            empty;
    }
}


// ************************************************************************* //
