/*--------------------------------*- C++ -*----------------------------------*\
| =========                 |                                                 |
| \\      /  F ield         | OpenFOAM: The Open Source CFD Toolbox           |
|  \\    /   O peration     | Version:  v2006                                 |
|   \\  /    A nd           | Website:  www.openfoam.com                      |
|    \\/     M anipulation  |                                                 |
\*---------------------------------------------------------------------------*/
FoamFile
{
    version     2.0;
    format      ascii;
    class       volVectorField;
    location    "1320";
    object      Ub;
}
// * * * * * * * * * * * * * * * * * * * * * * * * * * * * * * * * * * * * * //

dimensions      [0 1 -1 0 0 0 0];


internalField   nonuniform List<vector> 
120
(
(2.50195e-21 1.90087e-09 0)
(7.51095e-21 5.72242e-09 0)
(1.25427e-20 9.58666e-09 0)
(1.74709e-20 1.3501e-08 0)
(2.24375e-20 1.7466e-08 0)
(2.744e-20 2.14827e-08 0)
(3.25455e-20 2.55521e-08 0)
(3.73796e-20 2.96755e-08 0)
(4.22535e-20 3.38542e-08 0)
(4.75569e-20 3.80896e-08 0)
(5.2856e-20 4.2383e-08 0)
(5.81284e-20 4.67359e-08 0)
(6.39159e-20 5.11498e-08 0)
(6.96935e-20 5.56262e-08 0)
(7.55789e-20 6.01668e-08 0)
(8.1581e-20 6.47732e-08 0)
(8.77081e-20 6.94473e-08 0)
(9.39687e-20 7.41908e-08 0)
(1.00371e-19 7.90057e-08 0)
(1.06924e-19 8.38941e-08 0)
(1.13636e-19 8.8858e-08 0)
(1.20515e-19 9.38996e-08 0)
(1.27566e-19 9.90212e-08 0)
(1.33816e-19 1.04225e-07 0)
(1.43049e-19 1.09514e-07 0)
(1.51501e-19 1.14891e-07 0)
(1.60729e-19 1.20358e-07 0)
(1.68627e-19 1.25918e-07 0)
(1.7733e-19 1.31574e-07 0)
(1.87579e-19 1.37329e-07 0)
(1.96009e-19 1.43186e-07 0)
(2.0246e-19 1.49148e-07 0)
(2.10539e-19 1.5522e-07 0)
(2.18897e-19 1.61404e-07 0)
(2.2753e-19 1.67705e-07 0)
(2.34788e-19 1.74126e-07 0)
(2.44769e-19 1.80672e-07 0)
(2.59444e-19 1.87347e-07 0)
(2.66511e-19 1.94157e-07 0)
(2.8401e-19 2.01106e-07 0)
(2.88758e-19 2.082e-07 0)
(3.04509e-19 2.15446e-07 0)
(3.1375e-19 2.22849e-07 0)
(3.25409e-19 2.30417e-07 0)
(3.35238e-19 2.38158e-07 0)
(3.55529e-19 2.46079e-07 0)
(3.62987e-19 2.54189e-07 0)
(3.78054e-19 2.62496e-07 0)
(3.82643e-19 2.7101e-07 0)
(4.02222e-19 2.79742e-07 0)
(4.17194e-19 2.88699e-07 0)
(4.32716e-19 2.97895e-07 0)
(4.48845e-19 3.07339e-07 0)
(4.65606e-19 3.17043e-07 0)
(4.79938e-19 3.27021e-07 0)
(5.02073e-19 3.37287e-07 0)
(5.21876e-19 3.47857e-07 0)
(5.42536e-19 3.58748e-07 0)
(5.71171e-19 3.69981e-07 0)
(5.84965e-19 3.8158e-07 0)
(6.06822e-19 3.93572e-07 0)
(6.29802e-19 4.05991e-07 0)
(6.53943e-19 4.18872e-07 0)
(6.79351e-19 4.32257e-07 0)
(7.14545e-19 4.46191e-07 0)
(7.23542e-19 4.60724e-07 0)
(7.61809e-19 4.75909e-07 0)
(7.92789e-19 4.918e-07 0)
(8.25258e-19 5.08451e-07 0)
(8.59341e-19 5.25919e-07 0)
(9.05439e-19 5.44261e-07 0)
(9.30566e-19 5.63539e-07 0)
(9.67696e-19 5.83826e-07 0)
(1.0064e-18 6.05216e-07 0)
(1.04654e-18 6.27844e-07 0)
(1.08793e-18 6.51908e-07 0)
(1.13032e-18 6.77705e-07 0)
(1.17332e-18 7.05679e-07 0)
(1.21641e-18 7.36474e-07 0)
(1.25893e-18 7.71046e-07 0)
(1.30011e-18 8.10803e-07 0)
(1.33916e-18 8.57469e-07 0)
(1.37537e-18 9.13204e-07 0)
(1.40816e-18 9.7789e-07 0)
(1.4372e-18 1.04702e-06 0)
(1.50629e-18 1.11089e-06 0)
(1.48245e-18 1.1554e-06 0)
(1.50127e-18 1.15146e-06 0)
(1.89409e-18 3.39914e-06 0)
(7.1679e-17 1.81618e-05 0)
(8.64422e-17 -0.000304202 0)
(8.54396e-17 1.16866e-06 0)
(8.2154e-17 5.15627e-05 0)
(7.86137e-17 2.05145e-06 0)
(7.5016e-17 -3.94508e-06 0)
(7.13962e-17 -3.20034e-07 0)
(6.77823e-17 2.95278e-07 0)
(6.4197e-17 3.69893e-08 0)
(6.06574e-17 -2.15586e-08 0)
(5.71764e-17 -3.75524e-09 0)
(5.37632e-17 1.54969e-09 0)
(5.04239e-17 3.80963e-10 0)
(4.71619e-17 -8.79479e-11 0)
(4.39787e-17 -1.73758e-11 0)
(4.08741e-17 2.25168e-11 0)
(3.78466e-17 1.86416e-11 0)
(3.48934e-17 1.52037e-11 0)
(3.20113e-17 1.50028e-11 0)
(2.91962e-17 1.47032e-11 0)
(2.64436e-17 1.38777e-11 0)
(2.37487e-17 1.28353e-11 0)
(2.11064e-17 1.17332e-11 0)
(1.85113e-17 1.08354e-11 0)
(1.59581e-17 1.0164e-11 0)
(1.34412e-17 9.64414e-12 0)
(1.09552e-17 9.11009e-12 0)
(8.49445e-18 8.51797e-12 0)
(6.05332e-18 8.01062e-12 0)
(3.62622e-18 8.50711e-12 0)
(1.20753e-18 8.32658e-12 0)
)
;

boundaryField
{
    inlet
    {
        type            cyclic;
    }
    outlet
    {
        type            cyclic;
    }
    top
    {
        type            fixedValue;
        value           uniform (0 0 0);
    }
    bottom
    {
        type            fixedValue;
        value           uniform (0 0 0);
    }
    frontAndBackPlanes
    {
        type            empty;
    }
}


// ************************************************************************* //
