/*--------------------------------*- C++ -*----------------------------------*\
| =========                 |                                                 |
| \\      /  F ield         | OpenFOAM: The Open Source CFD Toolbox           |
|  \\    /   O peration     | Version:  2206                                  |
|   \\  /    A nd           | Website:  www.openfoam.com                      |
|    \\/     M anipulation  |                                                 |
\*---------------------------------------------------------------------------*/
FoamFile
{
    version     2.0;
    format      ascii;
    arch        "LSB;label=32;scalar=64";
    class       volScalarField;
    location    "1220";
    object      nuFra;
}
// * * * * * * * * * * * * * * * * * * * * * * * * * * * * * * * * * * * * * //

dimensions      [0 2 -1 0 0 0 0];

internalField   nonuniform List<scalar> 
120
(
1
1
1
1
1
1
1
1
1
1
1
1
1
1
1
1
1
1
1
1
1
1
1
1
1
1
1
1
1
1
1
1
1
1
1
1
1
1
1
1
1
1
1
1
1
1
1
1
1
1
1
1
1
1
1
1
1
1
1
1
1
1
1
1
1
1
1
1
1
1
1
1
1
1
1
1
1
1
1
0.658565
0.277286
0.00849093
2.28638e-08
1.00006e-07
4.23186e-08
9.01937e-08
1.68678e-07
3.85017e-07
2.44385e-08
1.15181e-08
9.45943e-10
9.54416e-10
4.05284e-09
3.17727e-08
4.29903e-09
1.37419e-08
2.17384e-06
8.38571e-07
4.92252e-07
3.19782e-07
2.03072e-07
1.36913e-07
1.09877e-07
1.09866e-07
1.44812e-07
2.60404e-07
6.52322e-07
2.24024e-06
9.57725e-06
4.13285e-05
0.000132236
0.00024603
0.00030152
0.000288812
0.00020249
7.71308e-05
1.41879e-05
1.38296e-06
6.23457e-08
4.76511e-10
)
;

boundaryField
{
    inlet
    {
        type            cyclic;
    }
    outlet
    {
        type            cyclic;
    }
    top
    {
        type            calculated;
        value           uniform 2.40014e-10;
    }
    bottom
    {
        type            calculated;
        value           uniform 1;
    }
    frontAndBackPlanes
    {
        type            empty;
    }
}


// ************************************************************************* //
