/*--------------------------------*- C++ -*----------------------------------*\
| =========                 |                                                 |
| \\      /  F ield         | OpenFOAM: The Open Source CFD Toolbox           |
|  \\    /   O peration     | Version:  2206                                  |
|   \\  /    A nd           | Website:  www.openfoam.com                      |
|    \\/     M anipulation  |                                                 |
\*---------------------------------------------------------------------------*/
FoamFile
{
    version     2.0;
    format      ascii;
    arch        "LSB;label=32;scalar=64";
    class       volScalarField;
    location    "1220";
    object      pff;
}
// * * * * * * * * * * * * * * * * * * * * * * * * * * * * * * * * * * * * * //

dimensions      [1 -1 -2 0 0 0 0];

internalField   nonuniform List<scalar> 
120
(
21.6568
21.1232
21.1261
20.5482
20.5351
19.97
19.9452
19.394
19.3566
18.8202
18.7694
18.2487
18.1838
17.6793
17.5998
17.1121
17.0176
16.5469
16.4374
15.9839
15.8592
15.4229
15.2833
14.8639
14.7098
14.3069
14.1388
13.7519
13.5705
13.1989
13.0051
12.6479
12.4427
12.099
11.8834
11.5521
11.3274
11.0074
10.7747
10.465
10.2255
9.92498
9.67995
9.38743
9.13801
8.85254
8.59985
8.32049
8.06558
7.79151
7.53532
7.26585
7.00921
6.74377
6.48739
6.22551
5.96997
5.71129
5.45705
5.2013
4.94872
4.69574
4.44512
4.19486
3.94652
3.69909
3.4534
3.20899
2.96635
2.72514
2.48573
2.24756
2.01072
1.77448
1.53824
1.29644
1.04788
0.812282
0.594609
0.377492
0.248145
0.193539
0
0
0
0
0
0
0
0
0
0
0
0
0
0
0
0
0
0
0
0
0
0
0
0
0
0
0
0
0
0
0
0
0
0
0
0
0
0
)
;

boundaryField
{
    inlet
    {
        type            cyclic;
    }
    outlet
    {
        type            cyclic;
    }
    top
    {
        type            calculated;
        value           uniform 0;
    }
    bottom
    {
        type            calculated;
        value           uniform 21.6568;
    }
    frontAndBackPlanes
    {
        type            empty;
    }
}


// ************************************************************************* //
