/*--------------------------------*- C++ -*----------------------------------*\
| =========                 |                                                 |
| \\      /  F ield         | OpenFOAM: The Open Source CFD Toolbox           |
|  \\    /   O peration     | Version:  2206                                  |
|   \\  /    A nd           | Website:  www.openfoam.com                      |
|    \\/     M anipulation  |                                                 |
\*---------------------------------------------------------------------------*/
FoamFile
{
    version     2.0;
    format      ascii;
    arch        "LSB;label=32;scalar=64";
    class       surfaceScalarField;
    location    "1220";
    object      phi.b;
}
// * * * * * * * * * * * * * * * * * * * * * * * * * * * * * * * * * * * * * //

dimensions      [0 3 -1 0 0 0 0];

oriented        oriented;

internalField   nonuniform List<scalar> 
119
(
1.47127e-15
2.97865e-15
4.48714e-15
6.03485e-15
7.5866e-15
9.17693e-15
1.07745e-14
1.24098e-14
1.40557e-14
1.57383e-14
1.74349e-14
1.91672e-14
2.09176e-14
2.27024e-14
2.45093e-14
2.63493e-14
2.82161e-14
3.01148e-14
3.20448e-14
3.40056e-14
3.60026e-14
3.80298e-14
4.0098e-14
4.21958e-14
4.434e-14
4.65139e-14
4.87395e-14
5.09951e-14
5.33077e-14
5.56517e-14
5.8058e-14
6.04974e-14
6.30045e-14
6.55472e-14
6.81625e-14
7.08169e-14
7.35491e-14
7.63243e-14
7.91822e-14
8.20885e-14
8.50827e-14
8.81318e-14
9.12748e-14
9.44807e-14
9.77878e-14
1.01168e-13
1.04658e-13
1.08234e-13
1.1193e-13
1.15727e-13
1.19656e-13
1.23703e-13
1.27897e-13
1.32227e-13
1.36717e-13
1.41363e-13
1.46186e-13
1.51184e-13
1.56379e-13
1.61775e-13
1.67399e-13
1.73267e-13
1.79412e-13
1.85871e-13
1.92696e-13
1.99945e-13
2.07697e-13
2.16034e-13
2.25054e-13
2.34859e-13
2.45548e-13
2.57226e-13
2.69991e-13
2.8394e-13
2.99405e-13
3.17293e-13
3.37988e-13
3.59556e-13
3.82328e-13
4.15851e-13
4.89509e-13
8.2538e-13
1.54969e-12
2.07334e-12
2.20526e-12
2.2677e-12
2.29608e-12
2.31103e-12
2.32613e-12
2.34972e-12
1.87255e-12
8.11501e-12
4.04871e-12
2.08676e-14
2.15197e-15
2.66078e-16
-1.33633e-19
1.46177e-19
2.07331e-19
3.42949e-19
3.41289e-19
-2.23546e-19
-5.79663e-19
2.42342e-19
5.21367e-19
-2.38831e-19
-1.98191e-19
-2.33399e-19
-4.50488e-19
4.45875e-19
3.69815e-19
3.23905e-19
-9.61962e-20
-4.67559e-19
4.37855e-19
-5.39873e-19
-4.97283e-20
-2.04116e-19
3.98735e-19
)
;

boundaryField
{
    inlet
    {
        type            cyclic;
        value           nonuniform List<scalar> 
120
(
-2.3704e-27
-7.11601e-27
-1.18764e-26
-1.6648e-26
-2.14493e-26
-2.62843e-26
-3.11804e-26
-3.60851e-26
-4.104e-26
-4.6113e-26
-5.12323e-26
-5.6396e-26
-6.17226e-26
-6.71105e-26
-7.26044e-26
-7.82132e-26
-8.39461e-26
-8.98121e-26
-9.58206e-26
-1.01981e-25
-1.08304e-25
-1.14799e-25
-1.21474e-25
-1.28017e-25
-1.35426e-25
-1.42725e-25
-1.50436e-25
-1.58e-25
-1.66003e-25
-1.747e-25
-1.8324e-25
-1.91577e-25
-2.00663e-25
-2.10058e-25
-2.19772e-25
-2.29247e-25
-2.39406e-25
-2.51115e-25
-2.60795e-25
-2.73978e-25
-2.83667e-25
-2.97071e-25
-3.08826e-25
-3.21681e-25
-3.3421e-25
-3.50313e-25
-3.62883e-25
-3.78324e-25
-3.90761e-25
-4.08078e-25
-4.24125e-25
-4.4065e-25
-4.57665e-25
-4.75175e-25
-4.9212e-25
-5.11757e-25
-5.30842e-25
-5.50462e-25
-5.73069e-25
-5.91364e-25
-6.12656e-25
-6.34527e-25
-6.5698e-25
-6.80041e-25
-7.06724e-25
-7.24748e-25
-7.5284e-25
-7.78513e-25
-8.04934e-25
-8.32217e-25
-8.64283e-25
-8.89541e-25
-9.19694e-25
-9.50818e-25
-9.82576e-25
-1.01433e-24
-1.04505e-24
-1.07319e-24
-1.09649e-24
-1.11616e-24
-1.14548e-24
-1.3494e-24
-7.33344e-24
-2.83786e-23
-3.49635e-23
-4.28785e-23
-3.45942e-23
-2.84898e-23
-2.397e-23
-2.05858e-23
-1.8064e-23
-1.64078e-23
-1.61141e-23
-1.54634e-23
-1.47287e-23
-1.40121e-23
-1.33137e-23
-1.26303e-23
-1.19614e-23
-1.13065e-23
-1.06653e-23
-1.00374e-23
-9.42223e-24
-8.81928e-24
-8.22798e-24
-7.64766e-24
-7.0776e-24
-6.51706e-24
-5.96523e-24
-5.42131e-24
-4.88451e-24
-4.35404e-24
-3.82915e-24
-3.30909e-24
-2.79317e-24
-2.28069e-24
-1.771e-24
-1.26347e-24
-7.57456e-25
-2.52355e-25
)
;
    }
    outlet
    {
        type            cyclic;
        value           nonuniform List<scalar> 
120
(
2.3704e-27
7.11601e-27
1.18764e-26
1.6648e-26
2.14493e-26
2.62843e-26
3.11804e-26
3.60851e-26
4.104e-26
4.6113e-26
5.12323e-26
5.6396e-26
6.17226e-26
6.71105e-26
7.26044e-26
7.82132e-26
8.39461e-26
8.98121e-26
9.58206e-26
1.01981e-25
1.08304e-25
1.14799e-25
1.21474e-25
1.28017e-25
1.35426e-25
1.42725e-25
1.50436e-25
1.58e-25
1.66003e-25
1.747e-25
1.8324e-25
1.91577e-25
2.00663e-25
2.10058e-25
2.19772e-25
2.29247e-25
2.39406e-25
2.51115e-25
2.60795e-25
2.73978e-25
2.83667e-25
2.97071e-25
3.08826e-25
3.21681e-25
3.3421e-25
3.50313e-25
3.62883e-25
3.78324e-25
3.90761e-25
4.08078e-25
4.24125e-25
4.4065e-25
4.57665e-25
4.75175e-25
4.9212e-25
5.11757e-25
5.30842e-25
5.50462e-25
5.73069e-25
5.91364e-25
6.12656e-25
6.34527e-25
6.5698e-25
6.80041e-25
7.06724e-25
7.24748e-25
7.5284e-25
7.78513e-25
8.04934e-25
8.32217e-25
8.64283e-25
8.89541e-25
9.19694e-25
9.50818e-25
9.82576e-25
1.01433e-24
1.04505e-24
1.07319e-24
1.09649e-24
1.11616e-24
1.14548e-24
1.3494e-24
7.33344e-24
2.83786e-23
3.49635e-23
4.28785e-23
3.45942e-23
2.84898e-23
2.397e-23
2.05858e-23
1.8064e-23
1.64078e-23
1.61141e-23
1.54634e-23
1.47287e-23
1.40121e-23
1.33137e-23
1.26303e-23
1.19614e-23
1.13065e-23
1.06653e-23
1.00374e-23
9.42223e-24
8.81928e-24
8.22798e-24
7.64766e-24
7.0776e-24
6.51706e-24
5.96523e-24
5.42131e-24
4.88451e-24
4.35404e-24
3.82915e-24
3.30909e-24
2.79317e-24
2.28069e-24
1.771e-24
1.26347e-24
7.57456e-25
2.52355e-25
)
;
    }
    top
    {
        type            fixedValue;
        value           uniform 0;
    }
    bottom
    {
        type            fixedValue;
        value           uniform 0;
    }
    frontAndBackPlanes
    {
        type            empty;
        value           nonuniform List<scalar> 0();
    }
}


// ************************************************************************* //
