/*--------------------------------*- C++ -*----------------------------------*\
| =========                 |                                                 |
| \\      /  F ield         | OpenFOAM: The Open Source CFD Toolbox           |
|  \\    /   O peration     | Version:  2206                                  |
|   \\  /    A nd           | Website:  www.openfoam.com                      |
|    \\/     M anipulation  |                                                 |
\*---------------------------------------------------------------------------*/
FoamFile
{
    version     2.0;
    format      ascii;
    arch        "LSB;label=32;scalar=64";
    class       surfaceScalarField;
    location    "1220";
    object      phi.a;
}
// * * * * * * * * * * * * * * * * * * * * * * * * * * * * * * * * * * * * * //

dimensions      [0 3 -1 0 0 0 0];

oriented        oriented;

internalField   nonuniform List<scalar> 
119
(
-9.83998e-16
-1.99251e-15
-3.00222e-15
-4.0387e-15
-5.07846e-15
-6.14462e-15
-7.21611e-15
-8.31349e-15
-9.41846e-15
-1.05487e-14
-1.1689e-14
-1.28539e-14
-1.40316e-14
-1.52331e-14
-1.64501e-14
-1.76903e-14
-1.8949e-14
-2.02301e-14
-2.1533e-14
-2.28577e-14
-2.42074e-14
-2.55785e-14
-2.69782e-14
-2.83989e-14
-2.98518e-14
-3.1326e-14
-3.2836e-14
-3.43677e-14
-3.59389e-14
-3.75329e-14
-3.91701e-14
-4.08314e-14
-4.25396e-14
-4.42738e-14
-4.60586e-14
-4.78718e-14
-4.97392e-14
-5.16381e-14
-5.35948e-14
-5.55867e-14
-5.76404e-14
-5.97339e-14
-6.18935e-14
-6.4099e-14
-6.63757e-14
-6.87056e-14
-7.11131e-14
-7.35828e-14
-7.61379e-14
-7.87661e-14
-8.14888e-14
-8.42967e-14
-8.72093e-14
-9.02205e-14
-9.33474e-14
-9.65868e-14
-9.99541e-14
-1.03449e-13
-1.07088e-13
-1.10874e-13
-1.14826e-13
-1.18957e-13
-1.23291e-13
-1.27855e-13
-1.32687e-13
-1.3783e-13
-1.4334e-13
-1.49278e-13
-1.55717e-13
-1.62732e-13
-1.704e-13
-1.78805e-13
-1.88027e-13
-1.98154e-13
-2.09452e-13
-2.22611e-13
-2.37951e-13
-2.54168e-13
-2.71695e-13
-2.97215e-13
-3.51318e-13
-6.37718e-13
-1.3464e-12
-1.93361e-12
-2.13387e-12
-2.23229e-12
-2.27858e-12
-2.30054e-12
-2.32225e-12
-2.42855e-12
-1.70107e-12
-1.55603e-11
-6.24982e-11
-8.00816e-11
-7.85447e-11
-8.01046e-11
-8.01315e-11
-8.01774e-11
-8.02574e-11
-8.03812e-11
-8.05741e-11
-8.0857e-11
-8.12099e-11
-8.15608e-11
-8.18269e-11
-8.19752e-11
-8.20346e-11
-8.2052e-11
-8.20561e-11
-8.20571e-11
-8.20573e-11
-8.20574e-11
-8.20574e-11
-8.20574e-11
-8.20573e-11
-8.20568e-11
-8.2054e-11
-8.2026e-11
-8.14036e-11
)
;

boundaryField
{
    inlet
    {
        type            cyclic;
        value           nonuniform List<scalar> 
120
(
-2.3704e-27
-7.11599e-27
-1.18727e-26
-1.6648e-26
-2.14493e-26
-2.62843e-26
-3.11605e-26
-3.60851e-26
-4.10664e-26
-4.61131e-26
-5.12324e-26
-5.64326e-26
-6.17227e-26
-6.71105e-26
-7.26044e-26
-7.82132e-26
-8.39461e-26
-8.98121e-26
-9.58206e-26
-1.01981e-25
-1.08304e-25
-1.14799e-25
-1.21476e-25
-1.28346e-25
-1.35428e-25
-1.42724e-25
-1.50246e-25
-1.57999e-25
-1.66001e-25
-1.74262e-25
-1.82783e-25
-1.91575e-25
-2.00663e-25
-2.10058e-25
-2.19775e-25
-2.29807e-25
-2.39984e-25
-2.5052e-25
-2.61409e-25
-2.72692e-25
-2.84328e-25
-2.9638e-25
-3.08823e-25
-3.21684e-25
-3.34974e-25
-3.48721e-25
-3.62872e-25
-3.77478e-25
-3.92524e-25
-4.08086e-25
-4.24125e-25
-4.4065e-25
-4.57666e-25
-4.7518e-25
-4.93201e-25
-5.11762e-25
-5.30842e-25
-5.50451e-25
-5.70594e-25
-5.91353e-25
-6.12656e-25
-6.34528e-25
-6.5698e-25
-6.80027e-25
-7.03686e-25
-7.279e-25
-7.52855e-25
-7.78513e-25
-8.04934e-25
-8.32199e-25
-8.60399e-25
-8.89522e-25
-9.19694e-25
-9.50818e-25
-9.82576e-25
-1.01433e-24
-1.04505e-24
-1.07319e-24
-1.09648e-24
-1.1161e-24
-1.14488e-24
-1.31248e-24
-7.09579e-24
-2.8379e-23
-3.49635e-23
-4.29636e-23
-3.45939e-23
-2.84898e-23
-2.39701e-23
-2.05858e-23
-1.8064e-23
-1.64077e-23
-1.61143e-23
-1.54364e-23
-1.40417e-23
-7.3428e-24
-7.24822e-24
-7.13023e-24
-6.89492e-24
-6.54401e-24
-6.03546e-24
-5.23227e-24
-4.07083e-24
-2.70093e-24
-1.45723e-24
-6.41227e-25
-2.66839e-25
-1.46232e-25
-1.16442e-25
-1.09547e-25
-1.07585e-25
-1.06776e-25
-1.06334e-25
-1.06065e-25
-1.05903e-25
-1.0582e-25
-1.05813e-25
-1.05994e-25
-1.06985e-25
-1.09884e-25
)
;
    }
    outlet
    {
        type            cyclic;
        value           nonuniform List<scalar> 
120
(
2.3704e-27
7.11599e-27
1.18727e-26
1.6648e-26
2.14493e-26
2.62843e-26
3.11605e-26
3.60851e-26
4.10664e-26
4.61131e-26
5.12324e-26
5.64326e-26
6.17227e-26
6.71105e-26
7.26044e-26
7.82132e-26
8.39461e-26
8.98121e-26
9.58206e-26
1.01981e-25
1.08304e-25
1.14799e-25
1.21476e-25
1.28346e-25
1.35428e-25
1.42724e-25
1.50246e-25
1.57999e-25
1.66001e-25
1.74262e-25
1.82783e-25
1.91575e-25
2.00663e-25
2.10058e-25
2.19775e-25
2.29807e-25
2.39984e-25
2.5052e-25
2.61409e-25
2.72692e-25
2.84328e-25
2.9638e-25
3.08823e-25
3.21684e-25
3.34974e-25
3.48721e-25
3.62872e-25
3.77478e-25
3.92524e-25
4.08086e-25
4.24125e-25
4.4065e-25
4.57666e-25
4.7518e-25
4.93201e-25
5.11762e-25
5.30842e-25
5.50451e-25
5.70594e-25
5.91353e-25
6.12656e-25
6.34528e-25
6.5698e-25
6.80027e-25
7.03686e-25
7.279e-25
7.52855e-25
7.78513e-25
8.04934e-25
8.32199e-25
8.60399e-25
8.89522e-25
9.19694e-25
9.50818e-25
9.82576e-25
1.01433e-24
1.04505e-24
1.07319e-24
1.09648e-24
1.1161e-24
1.14488e-24
1.31248e-24
7.09579e-24
2.8379e-23
3.49635e-23
4.29636e-23
3.45939e-23
2.84898e-23
2.39701e-23
2.05858e-23
1.8064e-23
1.64077e-23
1.61143e-23
1.54364e-23
1.40417e-23
7.3428e-24
7.24822e-24
7.13023e-24
6.89492e-24
6.54401e-24
6.03546e-24
5.23227e-24
4.07083e-24
2.70093e-24
1.45723e-24
6.41227e-25
2.66839e-25
1.46232e-25
1.16442e-25
1.09547e-25
1.07585e-25
1.06776e-25
1.06334e-25
1.06065e-25
1.05903e-25
1.0582e-25
1.05813e-25
1.05994e-25
1.06985e-25
1.09884e-25
)
;
    }
    top
    {
        type            fixedValue;
        value           uniform 0;
    }
    bottom
    {
        type            fixedValue;
        value           uniform 0;
    }
    frontAndBackPlanes
    {
        type            empty;
        value           nonuniform List<scalar> 0();
    }
}


// ************************************************************************* //
