/*--------------------------------*- C++ -*----------------------------------*\
| =========                 |                                                 |
| \\      /  F ield         | OpenFOAM: The Open Source CFD Toolbox           |
|  \\    /   O peration     | Version:  2206                                  |
|   \\  /    A nd           | Website:  www.openfoam.com                      |
|    \\/     M anipulation  |                                                 |
\*---------------------------------------------------------------------------*/
FoamFile
{
    version     2.0;
    format      ascii;
    arch        "LSB;label=32;scalar=64";
    class       volVectorField;
    location    "1220";
    object      U.a;
}
// * * * * * * * * * * * * * * * * * * * * * * * * * * * * * * * * * * * * * //

dimensions      [0 1 -1 0 0 0 0];

internalField   nonuniform List<vector> 
120
(
(7.90134e-21 1.4297e-08 0)
(2.372e-20 -3.81118e-09 0)
(3.95758e-20 -7.25829e-09 0)
(5.54932e-20 -9.42013e-09 0)
(7.14976e-20 -1.30171e-08 0)
(8.76142e-20 -1.51959e-08 0)
(1.03868e-19 -1.89407e-08 0)
(1.20284e-19 -2.11481e-08 0)
(1.36888e-19 -2.50378e-08 0)
(1.5371e-19 -2.72863e-08 0)
(1.70775e-19 -3.13174e-08 0)
(1.88109e-19 -3.36211e-08 0)
(2.05742e-19 -3.77894e-08 0)
(2.23702e-19 -4.01633e-08 0)
(2.42015e-19 -4.44645e-08 0)
(2.60711e-19 -4.69246e-08 0)
(2.7982e-19 -5.13542e-08 0)
(2.99374e-19 -5.39176e-08 0)
(3.19402e-19 -5.84715e-08 0)
(3.39938e-19 -6.1156e-08 0)
(3.61013e-19 -6.58305e-08 0)
(3.82662e-19 -6.86548e-08 0)
(4.04919e-19 -7.34474e-08 0)
(4.27819e-19 -7.64308e-08 0)
(4.51425e-19 -8.13403e-08 0)
(4.75747e-19 -8.45028e-08 0)
(5.0082e-19 -8.95297e-08 0)
(5.26664e-19 -9.28919e-08 0)
(5.53336e-19 -9.80389e-08 0)
(5.80873e-19 -1.01621e-07 0)
(6.09277e-19 -1.06894e-07 0)
(6.38585e-19 -1.10717e-07 0)
(6.68876e-19 -1.16122e-07 0)
(7.00192e-19 -1.20208e-07 0)
(7.32582e-19 -1.25756e-07 0)
(7.66022e-19 -1.30124e-07 0)
(7.99946e-19 -1.35829e-07 0)
(8.35066e-19 -1.40499e-07 0)
(8.71363e-19 -1.46378e-07 0)
(9.08973e-19 -1.5137e-07 0)
(9.4776e-19 -1.57443e-07 0)
(9.87934e-19 -1.6278e-07 0)
(1.02941e-18 -1.69073e-07 0)
(1.07228e-18 -1.74779e-07 0)
(1.11658e-18 -1.81325e-07 0)
(1.1624e-18 -1.87428e-07 0)
(1.20957e-18 -1.94268e-07 0)
(1.25826e-18 -2.00803e-07 0)
(1.30841e-18 -2.07989e-07 0)
(1.36029e-18 -2.14999e-07 0)
(1.41375e-18 -2.22589e-07 0)
(1.46883e-18 -2.30125e-07 0)
(1.52555e-18 -2.38188e-07 0)
(1.58393e-18 -2.46306e-07 0)
(1.644e-18 -2.54916e-07 0)
(1.70587e-18 -2.63678e-07 0)
(1.76947e-18 -2.72912e-07 0)
(1.83484e-18 -2.82386e-07 0)
(1.90198e-18 -2.9233e-07 0)
(1.97118e-18 -3.02599e-07 0)
(2.04219e-18 -3.13365e-07 0)
(2.11509e-18 -3.24554e-07 0)
(2.18993e-18 -3.36312e-07 0)
(2.26676e-18 -3.48634e-07 0)
(2.34562e-18 -3.61667e-07 0)
(2.42633e-18 -3.75478e-07 0)
(2.50952e-18 -3.90236e-07 0)
(2.59504e-18 -4.06086e-07 0)
(2.68311e-18 -4.23224e-07 0)
(2.774e-18 -4.41857e-07 0)
(2.868e-18 -4.62195e-07 0)
(2.96507e-18 -4.8446e-07 0)
(3.06565e-18 -5.08885e-07 0)
(3.16939e-18 -5.35695e-07 0)
(3.27525e-18 -5.65143e-07 0)
(3.38111e-18 -5.98446e-07 0)
(3.48349e-18 -6.38245e-07 0)
(3.57731e-18 -6.83707e-07 0)
(3.65492e-18 -7.28343e-07 0)
(3.72034e-18 -7.80829e-07 0)
(3.81625e-18 -8.68094e-07 0)
(4.37493e-18 -1.01901e-06 0)
(2.36526e-17 -4.1531e-06 0)
(9.45968e-17 -1.1132e-05 0)
(1.16545e-16 -3.59876e-06 0)
(1.43212e-16 -5.29074e-06 0)
(1.15313e-16 -5.99567e-06 0)
(9.4966e-17 -6.58512e-06 0)
(7.99004e-17 -6.55439e-06 0)
(6.86192e-17 2.2941e-06 0)
(6.02132e-17 1.21505e-05 0)
(5.46925e-17 -0.000226733 0)
(5.37142e-17 -0.000213235 0)
(5.14545e-17 -0.000173184 0)
(4.68057e-17 -0.00020685 0)
(2.4476e-17 -0.0002225 0)
(2.41607e-17 -0.000222548 0)
(2.37674e-17 -0.000222627 0)
(2.29831e-17 -0.000222803 0)
(2.18134e-17 -0.000223072 0)
(2.01182e-17 -0.000223491 0)
(1.74409e-17 -0.000224143 0)
(1.35694e-17 -0.000225062 0)
(9.00309e-18 -0.000226104 0)
(4.85744e-18 -0.000227011 0)
(2.13742e-18 -0.000227583 0)
(8.89462e-19 -0.000227835 0)
(4.87438e-19 -0.000227913 0)
(3.88141e-19 -0.000227932 0)
(3.65157e-19 -0.000227936 0)
(3.58618e-19 -0.000227937 0)
(3.55919e-19 -0.000227937 0)
(3.54448e-19 -0.000227937 0)
(3.53549e-19 -0.000227937 0)
(3.53011e-19 -0.000227937 0)
(3.52733e-19 -0.000227937 0)
(3.5271e-19 -0.000227934 0)
(3.53313e-19 -0.000227921 0)
(3.56615e-19 -0.000227778 0)
(3.66279e-19 -0.000224464 0)
)
;

boundaryField
{
    inlet
    {
        type            cyclic;
    }
    outlet
    {
        type            cyclic;
    }
    top
    {
        type            fixedValue;
        value           uniform (0 0 0);
    }
    bottom
    {
        type            fixedValue;
        value           uniform (0 0 0);
    }
    frontAndBackPlanes
    {
        type            empty;
    }
}


// ************************************************************************* //
