/*--------------------------------*- C++ -*----------------------------------*\
| =========                 |                                                 |
| \\      /  F ield         | OpenFOAM: The Open Source CFD Toolbox           |
|  \\    /   O peration     | Version:  2206                                  |
|   \\  /    A nd           | Website:  www.openfoam.com                      |
|    \\/     M anipulation  |                                                 |
\*---------------------------------------------------------------------------*/
FoamFile
{
    version     2.0;
    format      ascii;
    arch        "LSB;label=32;scalar=64";
    class       volVectorField;
    location    "1220";
    object      U.b;
}
// * * * * * * * * * * * * * * * * * * * * * * * * * * * * * * * * * * * * * //

dimensions      [0 1 -1 0 0 0 0];

internalField   nonuniform List<vector> 
120
(
(7.90134e-21 1.74338e-08 0)
(2.372e-20 6.51913e-09 0)
(3.95881e-20 1.00336e-08 0)
(5.54933e-20 1.49718e-08 0)
(7.14976e-20 1.85585e-08 0)
(8.76145e-20 2.36787e-08 0)
(1.03935e-19 2.73161e-08 0)
(1.20284e-19 3.26295e-08 0)
(1.368e-19 3.63335e-08 0)
(1.5371e-19 4.18384e-08 0)
(1.70774e-19 4.56241e-08 0)
(1.87987e-19 5.13182e-08 0)
(2.05742e-19 5.5203e-08 0)
(2.23702e-19 6.10842e-08 0)
(2.42015e-19 6.50863e-08 0)
(2.60711e-19 7.11515e-08 0)
(2.7982e-19 7.52904e-08 0)
(2.99374e-19 8.15376e-08 0)
(3.19402e-19 8.58342e-08 0)
(3.39938e-19 9.22611e-08 0)
(3.61013e-19 9.67373e-08 0)
(3.82662e-19 1.03343e-07 0)
(4.04914e-19 1.08023e-07 0)
(4.26722e-19 1.14808e-07 0)
(4.51421e-19 1.19715e-07 0)
(4.7575e-19 1.26682e-07 0)
(5.01454e-19 1.31842e-07 0)
(5.26667e-19 1.38997e-07 0)
(5.53342e-19 1.44435e-07 0)
(5.82332e-19 1.51785e-07 0)
(6.10799e-19 1.5753e-07 0)
(6.38592e-19 1.65084e-07 0)
(6.68876e-19 1.71163e-07 0)
(7.00192e-19 1.78936e-07 0)
(7.32574e-19 1.85376e-07 0)
(7.64157e-19 1.93386e-07 0)
(7.9802e-19 2.00214e-07 0)
(8.37049e-19 2.08481e-07 0)
(8.69315e-19 2.15725e-07 0)
(9.1326e-19 2.24275e-07 0)
(9.45557e-19 2.31965e-07 0)
(9.90238e-19 2.40829e-07 0)
(1.02942e-18 2.48998e-07 0)
(1.07227e-18 2.58215e-07 0)
(1.11403e-18 2.66899e-07 0)
(1.16771e-18 2.76518e-07 0)
(1.20961e-18 2.85765e-07 0)
(1.26108e-18 2.95847e-07 0)
(1.30254e-18 3.05711e-07 0)
(1.36026e-18 3.16332e-07 0)
(1.41375e-18 3.2688e-07 0)
(1.46883e-18 3.38124e-07 0)
(1.52555e-18 3.49431e-07 0)
(1.58392e-18 3.61393e-07 0)
(1.6404e-18 3.73543e-07 0)
(1.70586e-18 3.86323e-07 0)
(1.76947e-18 3.99401e-07 0)
(1.83487e-18 4.13106e-07 0)
(1.91023e-18 4.27215e-07 0)
(1.97121e-18 4.41973e-07 0)
(2.04219e-18 4.57251e-07 0)
(2.11509e-18 4.73247e-07 0)
(2.18993e-18 4.89922e-07 0)
(2.2668e-18 5.07461e-07 0)
(2.35575e-18 5.25918e-07 0)
(2.41583e-18 5.455e-07 0)
(2.50947e-18 5.66358e-07 0)
(2.59504e-18 5.88739e-07 0)
(2.68311e-18 6.12879e-07 0)
(2.77406e-18 6.39057e-07 0)
(2.88094e-18 6.67544e-07 0)
(2.96514e-18 6.98629e-07 0)
(3.06565e-18 7.32574e-07 0)
(3.16939e-18 7.69657e-07 0)
(3.27525e-18 8.1063e-07 0)
(3.38111e-18 8.57352e-07 0)
(3.48349e-18 9.10674e-07 0)
(3.57731e-18 9.6747e-07 0)
(3.65498e-18 1.02969e-06 0)
(3.72055e-18 1.11768e-06 0)
(3.81826e-18 1.29377e-06 0)
(4.49798e-18 1.78623e-06 0)
(2.44448e-17 1.71202e-06 0)
(9.45953e-17 2.50758e-07 0)
(1.16545e-16 8.11098e-06 0)
(1.42928e-16 7.04342e-06 0)
(1.15314e-16 6.63796e-06 0)
(9.4966e-17 6.19334e-06 0)
(7.99e-17 6.28894e-06 0)
(6.86193e-17 1.50771e-05 0)
(6.02132e-17 2.53858e-05 0)
(5.46926e-17 -0.000216658 0)
(5.37138e-17 -8.14502e-05 0)
(5.15447e-17 6.28429e-05 0)
(4.90957e-17 1.14676e-05 0)
(4.67071e-17 -2.90594e-06 0)
(4.4379e-17 -1.26024e-06 0)
(4.21011e-17 5.2168e-08 0)
(3.98713e-17 1.01076e-07 0)
(3.76884e-17 9.48537e-09 0)
(3.55512e-17 -6.30397e-09 0)
(3.3458e-17 -1.54929e-09 0)
(3.14074e-17 2.63226e-10 0)
(2.93976e-17 1.53044e-10 0)
(2.74266e-17 2.09394e-12 0)
(2.54922e-17 -1.1026e-11 0)
(2.3592e-17 -2.26456e-12 0)
(2.17235e-17 -2.94361e-14 0)
(1.98841e-17 -7.71359e-13 0)
(1.8071e-17 1.88325e-15 0)
(1.62817e-17 1.23183e-12 0)
(1.45135e-17 1.0501e-12 0)
(1.27638e-17 1.50095e-13 0)
(1.10303e-17 -9.14114e-13 0)
(9.31055e-18 -2.20326e-14 0)
(7.6023e-18 2.65006e-15 0)
(5.90335e-18 -7.93187e-13 0)
(4.21156e-18 -3.94769e-13 0)
(2.52485e-18 3.51727e-13 0)
(8.41185e-19 5.03692e-13 0)
)
;

boundaryField
{
    inlet
    {
        type            cyclic;
    }
    outlet
    {
        type            cyclic;
    }
    top
    {
        type            fixedValue;
        value           uniform (0 0 0);
    }
    bottom
    {
        type            fixedValue;
        value           uniform (0 0 0);
    }
    frontAndBackPlanes
    {
        type            empty;
    }
}


// ************************************************************************* //
