/*--------------------------------*- C++ -*----------------------------------*\
| =========                 |                                                 |
| \\      /  F ield         | OpenFOAM: The Open Source CFD Toolbox           |
|  \\    /   O peration     | Version:  2206                                  |
|   \\  /    A nd           | Website:  www.openfoam.com                      |
|    \\/     M anipulation  |                                                 |
\*---------------------------------------------------------------------------*/
FoamFile
{
    version     2.0;
    format      ascii;
    arch        "LSB;label=32;scalar=64";
    class       volScalarField;
    location    "1200";
    object      nuFra;
}
// * * * * * * * * * * * * * * * * * * * * * * * * * * * * * * * * * * * * * //

dimensions      [0 2 -1 0 0 0 0];

internalField   nonuniform List<scalar> 
120
(
1
1
1
1
1
1
1
1
1
1
1
1
1
1
1
1
1
1
1
1
1
1
1
1
1
1
1
1
1
1
1
1
1
1
1
1
1
1
1
1
1
1
1
1
1
1
1
1
1
1
1
1
1
1
1
1
1
1
1
1
1
1
1
1
1
1
1
1
1
1
1
1
1
1
1
1
1
1
1
1
2.11654e-05
9.85417e-08
1.09881e-08
8.40924e-08
1.11154e-07
3.30905e-07
5.0747e-07
2.76425e-07
6.33502e-08
1.2561e-08
2.40567e-09
7.9949e-10
1.48446e-09
1.03688e-09
7.40482e-10
8.35315e-10
7.36243e-09
4.07824e-05
3.83286e-08
1.68799e-08
2.01768e-08
4.51201e-08
1.23143e-07
2.76915e-07
4.91095e-07
8.06964e-07
1.42446e-06
2.92335e-06
7.18852e-06
2.10406e-05
6.70556e-05
0.000175565
0.000281042
0.000301057
0.000224237
8.64368e-05
1.52844e-05
1.43273e-06
6.30158e-08
4.76451e-10
)
;

boundaryField
{
    inlet
    {
        type            cyclic;
    }
    outlet
    {
        type            cyclic;
    }
    top
    {
        type            calculated;
        value           uniform 2.39966e-10;
    }
    bottom
    {
        type            calculated;
        value           uniform 1;
    }
    frontAndBackPlanes
    {
        type            empty;
    }
}


// ************************************************************************* //
