/*--------------------------------*- C++ -*----------------------------------*\
| =========                 |                                                 |
| \\      /  F ield         | OpenFOAM: The Open Source CFD Toolbox           |
|  \\    /   O peration     | Version:  2206                                  |
|   \\  /    A nd           | Website:  www.openfoam.com                      |
|    \\/     M anipulation  |                                                 |
\*---------------------------------------------------------------------------*/
FoamFile
{
    version     2.0;
    format      ascii;
    arch        "LSB;label=32;scalar=64";
    class       volScalarField;
    location    "1200";
    object      pff;
}
// * * * * * * * * * * * * * * * * * * * * * * * * * * * * * * * * * * * * * //

dimensions      [1 -1 -2 0 0 0 0];

internalField   nonuniform List<scalar> 
120
(
21.3127
20.7791
20.782
20.2043
20.191
19.6263
19.6012
19.0505
19.0127
18.477
18.4256
17.9058
17.84
17.3368
17.2562
16.7699
16.6742
16.2053
16.0942
15.6427
15.5163
15.0822
14.9407
14.5238
14.3676
13.9674
13.7971
13.4129
13.2293
12.8606
12.6645
12.3102
12.1028
11.7619
11.5442
11.2158
10.9891
10.6719
10.4374
10.1303
9.88926
9.59121
9.34486
9.05468
8.80423
8.52091
8.26748
7.99007
7.73469
7.46236
7.20596
6.93805
6.68145
6.41741
6.16133
5.90078
5.64582
5.38849
5.13513
4.88083
4.62943
4.378
4.12876
3.88009
3.63314
3.38711
3.14257
2.8992
2.6573
2.41672
2.17771
1.93976
1.70349
1.46651
1.22389
0.978471
0.755783
0.55594
0.356864
0.227362
0.00224962
0
0
0
0
0
0
0
0
0
0
0
0
0
0
0
0
0
0
0
0
0
0
0
0
0
0
0
0
0
0
0
0
0
0
0
0
0
0
0
)
;

boundaryField
{
    inlet
    {
        type            cyclic;
    }
    outlet
    {
        type            cyclic;
    }
    top
    {
        type            calculated;
        value           uniform 0;
    }
    bottom
    {
        type            calculated;
        value           uniform 21.3127;
    }
    frontAndBackPlanes
    {
        type            empty;
    }
}


// ************************************************************************* //
