/*--------------------------------*- C++ -*----------------------------------*\
| =========                 |                                                 |
| \\      /  F ield         | OpenFOAM: The Open Source CFD Toolbox           |
|  \\    /   O peration     | Version:  2206                                  |
|   \\  /    A nd           | Website:  www.openfoam.com                      |
|    \\/     M anipulation  |                                                 |
\*---------------------------------------------------------------------------*/
FoamFile
{
    version     2.0;
    format      ascii;
    arch        "LSB;label=32;scalar=64";
    class       surfaceScalarField;
    location    "1200";
    object      phi.a;
}
// * * * * * * * * * * * * * * * * * * * * * * * * * * * * * * * * * * * * * //

dimensions      [0 3 -1 0 0 0 0];

oriented        oriented;

internalField   nonuniform List<scalar> 
119
(
-1.00127e-15
-2.02785e-15
-3.05563e-15
-4.11103e-15
-5.16977e-15
-6.25572e-15
-7.34712e-15
-8.46521e-15
-9.59113e-15
-1.07431e-14
-1.19056e-14
-1.30934e-14
-1.42946e-14
-1.55205e-14
-1.67628e-14
-1.80291e-14
-1.9315e-14
-2.06242e-14
-2.19565e-14
-2.33114e-14
-2.46929e-14
-2.60965e-14
-2.75303e-14
-2.8986e-14
-3.04754e-14
-3.19869e-14
-3.35357e-14
-3.51071e-14
-3.67196e-14
-3.83557e-14
-4.00369e-14
-4.17432e-14
-4.34987e-14
-4.52817e-14
-4.71179e-14
-4.89847e-14
-5.0909e-14
-5.28676e-14
-5.4888e-14
-5.69472e-14
-5.90724e-14
-6.12415e-14
-6.34812e-14
-6.57708e-14
-6.81358e-14
-7.05578e-14
-7.30612e-14
-7.56305e-14
-7.82888e-14
-8.10245e-14
-8.38596e-14
-8.67867e-14
-8.9827e-14
-9.29775e-14
-9.62586e-14
-9.96712e-14
-1.03234e-13
-1.06952e-13
-1.10842e-13
-1.14909e-13
-1.19171e-13
-1.23636e-13
-1.28323e-13
-1.3325e-13
-1.38448e-13
-1.43957e-13
-1.49838e-13
-1.56175e-13
-1.63086e-13
-1.70723e-13
-1.79292e-13
-1.89043e-13
-2.00299e-13
-2.13681e-13
-2.30123e-13
-2.49545e-13
-2.6966e-13
-2.87815e-13
-2.99884e-13
-3.17255e-13
-1.15642e-12
-1.70402e-12
-2.01152e-12
-2.1729e-12
-2.25082e-12
-2.288e-12
-2.30621e-12
-2.31363e-12
-2.3195e-12
-2.34912e-12
-2.06671e-12
-6.83599e-12
-1.29101e-11
1.29576e-11
-2.84541e-11
-8.15305e-11
-7.53381e-11
-7.53381e-11
-7.63278e-11
-7.86015e-11
-8.05385e-11
-8.1421e-11
-8.17445e-11
-8.18857e-11
-8.19641e-11
-8.20117e-11
-8.20387e-11
-8.20519e-11
-8.20573e-11
-8.20591e-11
-8.20597e-11
-8.20599e-11
-8.20599e-11
-8.20599e-11
-8.20598e-11
-8.20593e-11
-8.20568e-11
-8.20297e-11
-8.14142e-11
)
;

boundaryField
{
    inlet
    {
        type            cyclic;
        value           nonuniform List<scalar> 
120
(
-2.30425e-27
-6.91737e-27
-1.15412e-26
-1.61829e-26
-2.08497e-26
-2.5549e-26
-3.02881e-26
-3.50738e-26
-3.99143e-26
-4.48179e-26
-4.97916e-26
-5.48435e-26
-5.99825e-26
-6.52159e-26
-7.05521e-26
-7.59996e-26
-8.15675e-26
-8.72645e-26
-9.31001e-26
-9.90836e-26
-1.05225e-25
-1.11534e-25
-1.18021e-25
-1.24697e-25
-1.31581e-25
-1.38675e-25
-1.45991e-25
-1.53535e-25
-1.61323e-25
-1.69369e-25
-1.77672e-25
-1.86244e-25
-1.95112e-25
-2.04289e-25
-2.13784e-25
-2.2362e-25
-2.33556e-25
-2.43881e-25
-2.54557e-25
-2.65635e-25
-2.77072e-25
-2.88932e-25
-3.01191e-25
-3.13876e-25
-3.26998e-25
-3.40587e-25
-3.54589e-25
-3.69055e-25
-3.83971e-25
-3.99412e-25
-4.15339e-25
-4.31756e-25
-4.4867e-25
-4.66085e-25
-4.84004e-25
-5.02461e-25
-5.21433e-25
-5.40924e-25
-5.60953e-25
-5.81536e-25
-6.02655e-25
-6.2432e-25
-6.46537e-25
-6.6931e-25
-6.92643e-25
-7.16461e-25
-7.40927e-25
-7.65974e-25
-7.91641e-25
-8.18014e-25
-8.45247e-25
-8.73473e-25
-9.03088e-25
-9.34398e-25
-9.67593e-25
-1.00252e-24
-1.03824e-24
-1.07232e-24
-1.10039e-24
-1.117e-24
-1.1241e-24
-1.89946e-23
-2.48636e-23
-2.88512e-23
-3.4071e-23
-4.16984e-23
-3.35462e-23
-2.77465e-23
-2.34506e-23
-2.01859e-23
-1.77094e-23
-1.59889e-23
-1.53908e-23
-1.49108e-23
-1.36884e-23
-1.10774e-23
-9.91689e-24
-9.91629e-24
-9.91328e-24
-7.5423e-24
-3.98262e-24
-1.89821e-24
-1.05041e-24
-6.65484e-25
-4.40756e-25
-2.90712e-25
-1.94042e-25
-1.40277e-25
-1.15628e-25
-1.06342e-25
-1.03284e-25
-1.02206e-25
-1.01716e-25
-1.01447e-25
-1.01292e-25
-1.01213e-25
-1.01204e-25
-1.01368e-25
-1.02299e-25
-1.05135e-25
)
;
    }
    outlet
    {
        type            cyclic;
        value           nonuniform List<scalar> 
120
(
2.30425e-27
6.91737e-27
1.15412e-26
1.61829e-26
2.08497e-26
2.5549e-26
3.02881e-26
3.50738e-26
3.99143e-26
4.48179e-26
4.97916e-26
5.48435e-26
5.99825e-26
6.52159e-26
7.05521e-26
7.59996e-26
8.15675e-26
8.72645e-26
9.31001e-26
9.90836e-26
1.05225e-25
1.11534e-25
1.18021e-25
1.24697e-25
1.31581e-25
1.38675e-25
1.45991e-25
1.53535e-25
1.61323e-25
1.69369e-25
1.77672e-25
1.86244e-25
1.95112e-25
2.04289e-25
2.13784e-25
2.2362e-25
2.33556e-25
2.43881e-25
2.54557e-25
2.65635e-25
2.77072e-25
2.88932e-25
3.01191e-25
3.13876e-25
3.26998e-25
3.40587e-25
3.54589e-25
3.69055e-25
3.83971e-25
3.99412e-25
4.15339e-25
4.31756e-25
4.4867e-25
4.66085e-25
4.84004e-25
5.02461e-25
5.21433e-25
5.40924e-25
5.60953e-25
5.81536e-25
6.02655e-25
6.2432e-25
6.46537e-25
6.6931e-25
6.92643e-25
7.16461e-25
7.40927e-25
7.65974e-25
7.91641e-25
8.18014e-25
8.45247e-25
8.73473e-25
9.03088e-25
9.34398e-25
9.67593e-25
1.00252e-24
1.03824e-24
1.07232e-24
1.10039e-24
1.117e-24
1.1241e-24
1.89946e-23
2.48636e-23
2.88512e-23
3.4071e-23
4.16984e-23
3.35462e-23
2.77465e-23
2.34506e-23
2.01859e-23
1.77094e-23
1.59889e-23
1.53908e-23
1.49108e-23
1.36884e-23
1.10774e-23
9.91689e-24
9.91629e-24
9.91328e-24
7.5423e-24
3.98262e-24
1.89821e-24
1.05041e-24
6.65484e-25
4.40756e-25
2.90712e-25
1.94042e-25
1.40277e-25
1.15628e-25
1.06342e-25
1.03284e-25
1.02206e-25
1.01716e-25
1.01447e-25
1.01292e-25
1.01213e-25
1.01204e-25
1.01368e-25
1.02299e-25
1.05135e-25
)
;
    }
    top
    {
        type            fixedValue;
        value           uniform 0;
    }
    bottom
    {
        type            fixedValue;
        value           uniform 0;
    }
    frontAndBackPlanes
    {
        type            empty;
        value           nonuniform List<scalar> 0();
    }
}


// ************************************************************************* //
