/*--------------------------------*- C++ -*----------------------------------*\
| =========                 |                                                 |
| \\      /  F ield         | OpenFOAM: The Open Source CFD Toolbox           |
|  \\    /   O peration     | Version:  2206                                  |
|   \\  /    A nd           | Website:  www.openfoam.com                      |
|    \\/     M anipulation  |                                                 |
\*---------------------------------------------------------------------------*/
FoamFile
{
    version     2.0;
    format      ascii;
    arch        "LSB;label=32;scalar=64";
    class       surfaceScalarField;
    location    "1200";
    object      phi.b;
}
// * * * * * * * * * * * * * * * * * * * * * * * * * * * * * * * * * * * * * //

dimensions      [0 3 -1 0 0 0 0];

oriented        oriented;

internalField   nonuniform List<scalar> 
119
(
1.4967e-15
3.03063e-15
4.56565e-15
6.14114e-15
7.72075e-15
9.3401e-15
1.09668e-14
1.26324e-14
1.43089e-14
1.60233e-14
1.77522e-14
1.9518e-14
2.13026e-14
2.31229e-14
2.49667e-14
2.68448e-14
2.87509e-14
3.06904e-14
3.2663e-14
3.46678e-14
3.67107e-14
3.87849e-14
4.09025e-14
4.30509e-14
4.52479e-14
4.74754e-14
4.97569e-14
5.20696e-14
5.44417e-14
5.68462e-14
5.93156e-14
6.18194e-14
6.43941e-14
6.70065e-14
6.96954e-14
7.24261e-14
7.52395e-14
7.80997e-14
8.10483e-14
8.40502e-14
8.71463e-14
9.03026e-14
9.35592e-14
9.68845e-14
1.00316e-13
1.03827e-13
1.07452e-13
1.11168e-13
1.15009e-13
1.18956e-13
1.23043e-13
1.27256e-13
1.31628e-13
1.36151e-13
1.40857e-13
1.45743e-13
1.50839e-13
1.56147e-13
1.61692e-13
1.67482e-13
1.73536e-13
1.79868e-13
1.86501e-13
1.93458e-13
2.00781e-13
2.08523e-13
2.16768e-13
2.2563e-13
2.3527e-13
2.45896e-13
2.57789e-13
2.71287e-13
2.86817e-13
3.05205e-13
3.27692e-13
3.54093e-13
3.81095e-13
4.04675e-13
4.19208e-13
4.34264e-13
1.44904e-12
1.91105e-12
2.12433e-12
2.23075e-12
2.27923e-12
2.30185e-12
2.31283e-12
2.31797e-12
2.32369e-12
2.32729e-12
2.1055e-12
4.58572e-12
2.17849e-12
-1.04167e-15
1.47686e-17
2.80936e-18
1.02617e-19
-4.54229e-20
1.08596e-18
2.98292e-20
-3.76894e-19
-3.74956e-19
-3.10101e-19
-3.12012e-19
1.72637e-19
7.99945e-19
-9.01494e-20
6.96568e-19
-9.24287e-19
-1.63899e-19
1.74148e-20
-1.32112e-19
4.75445e-19
-4.77743e-19
7.50209e-20
7.33014e-20
7.40301e-19
-1.50074e-19
-3.58787e-20
)
;

boundaryField
{
    inlet
    {
        type            cyclic;
        value           nonuniform List<scalar> 
120
(
-2.30425e-27
-6.91738e-27
-1.1545e-26
-1.61829e-26
-2.08497e-26
-2.55491e-26
-3.03083e-26
-3.50738e-26
-3.98874e-26
-4.48178e-26
-4.97915e-26
-5.48063e-26
-5.99823e-26
-6.52159e-26
-7.05521e-26
-7.59996e-26
-8.15674e-26
-8.72645e-26
-9.31001e-26
-9.90836e-26
-1.05225e-25
-1.11534e-25
-1.1802e-25
-1.24361e-25
-1.31579e-25
-1.38676e-25
-1.46185e-25
-1.53535e-25
-1.61325e-25
-1.69816e-25
-1.78138e-25
-1.86246e-25
-1.95112e-25
-2.04289e-25
-2.13781e-25
-2.23047e-25
-2.32965e-25
-2.44489e-25
-2.53929e-25
-2.66951e-25
-2.76395e-25
-2.8964e-25
-3.01194e-25
-3.13872e-25
-3.26214e-25
-3.42221e-25
-3.546e-25
-3.69924e-25
-3.82159e-25
-3.99404e-25
-4.15338e-25
-4.31756e-25
-4.4867e-25
-4.6608e-25
-4.82891e-25
-5.02456e-25
-5.21433e-25
-5.40936e-25
-5.63511e-25
-5.81548e-25
-6.02655e-25
-6.2432e-25
-6.46537e-25
-6.69324e-25
-6.95809e-25
-7.13172e-25
-7.40912e-25
-7.65974e-25
-7.91641e-25
-8.18033e-25
-8.49322e-25
-8.73492e-25
-9.03088e-25
-9.34397e-25
-9.67593e-25
-1.00252e-24
-1.03824e-24
-1.07232e-24
-1.10039e-24
-1.11752e-24
-1.22221e-24
-1.90161e-23
-2.48635e-23
-2.88512e-23
-3.40709e-23
-4.16131e-23
-3.35463e-23
-2.77464e-23
-2.34505e-23
-2.01859e-23
-1.77094e-23
-1.59889e-23
-1.53909e-23
-1.49145e-23
-1.41735e-23
-1.34606e-23
-1.27702e-23
-1.21031e-23
-1.14566e-23
-1.08285e-23
-1.0217e-23
-9.62042e-24
-9.03714e-24
-8.46583e-24
-7.90529e-24
-7.35444e-24
-6.81232e-24
-6.27808e-24
-5.75094e-24
-5.23021e-24
-4.71521e-24
-4.20535e-24
-3.70004e-24
-3.1987e-24
-2.70081e-24
-2.2058e-24
-1.71317e-24
-1.22237e-24
-7.32882e-25
-2.44181e-25
)
;
    }
    outlet
    {
        type            cyclic;
        value           nonuniform List<scalar> 
120
(
2.30425e-27
6.91738e-27
1.1545e-26
1.61829e-26
2.08497e-26
2.55491e-26
3.03083e-26
3.50738e-26
3.98874e-26
4.48178e-26
4.97915e-26
5.48063e-26
5.99823e-26
6.52159e-26
7.05521e-26
7.59996e-26
8.15674e-26
8.72645e-26
9.31001e-26
9.90836e-26
1.05225e-25
1.11534e-25
1.1802e-25
1.24361e-25
1.31579e-25
1.38676e-25
1.46185e-25
1.53535e-25
1.61325e-25
1.69816e-25
1.78138e-25
1.86246e-25
1.95112e-25
2.04289e-25
2.13781e-25
2.23047e-25
2.32965e-25
2.44489e-25
2.53929e-25
2.66951e-25
2.76395e-25
2.8964e-25
3.01194e-25
3.13872e-25
3.26214e-25
3.42221e-25
3.546e-25
3.69924e-25
3.82159e-25
3.99404e-25
4.15338e-25
4.31756e-25
4.4867e-25
4.6608e-25
4.82891e-25
5.02456e-25
5.21433e-25
5.40936e-25
5.63511e-25
5.81548e-25
6.02655e-25
6.2432e-25
6.46537e-25
6.69324e-25
6.95809e-25
7.13172e-25
7.40912e-25
7.65974e-25
7.91641e-25
8.18033e-25
8.49322e-25
8.73492e-25
9.03088e-25
9.34397e-25
9.67593e-25
1.00252e-24
1.03824e-24
1.07232e-24
1.10039e-24
1.11752e-24
1.22221e-24
1.90161e-23
2.48635e-23
2.88512e-23
3.40709e-23
4.16131e-23
3.35463e-23
2.77464e-23
2.34505e-23
2.01859e-23
1.77094e-23
1.59889e-23
1.53909e-23
1.49145e-23
1.41735e-23
1.34606e-23
1.27702e-23
1.21031e-23
1.14566e-23
1.08285e-23
1.0217e-23
9.62042e-24
9.03714e-24
8.46583e-24
7.90529e-24
7.35444e-24
6.81232e-24
6.27808e-24
5.75094e-24
5.23021e-24
4.71521e-24
4.20535e-24
3.70004e-24
3.1987e-24
2.70081e-24
2.2058e-24
1.71317e-24
1.22237e-24
7.32882e-25
2.44181e-25
)
;
    }
    top
    {
        type            fixedValue;
        value           uniform 0;
    }
    bottom
    {
        type            fixedValue;
        value           uniform 0;
    }
    frontAndBackPlanes
    {
        type            empty;
        value           nonuniform List<scalar> 0();
    }
}


// ************************************************************************* //
