/*--------------------------------*- C++ -*----------------------------------*\
| =========                 |                                                 |
| \\      /  F ield         | OpenFOAM: The Open Source CFD Toolbox           |
|  \\    /   O peration     | Version:  2206                                  |
|   \\  /    A nd           | Website:  www.openfoam.com                      |
|    \\/     M anipulation  |                                                 |
\*---------------------------------------------------------------------------*/
FoamFile
{
    version     2.0;
    format      ascii;
    arch        "LSB;label=32;scalar=64";
    class       volVectorField;
    location    "1200";
    object      U.a;
}
// * * * * * * * * * * * * * * * * * * * * * * * * * * * * * * * * * * * * * //

dimensions      [0 1 -1 0 0 0 0];

internalField   nonuniform List<vector> 
120
(
(7.68084e-21 1.42697e-08 0)
(2.30579e-20 -3.88152e-09 0)
(3.84708e-20 -7.38427e-09 0)
(5.3943e-20 -9.59086e-09 0)
(6.94992e-20 -1.32482e-08 0)
(8.51634e-20 -1.54721e-08 0)
(1.0096e-19 -1.92818e-08 0)
(1.16913e-19 -2.15348e-08 0)
(1.33048e-19 -2.5494e-08 0)
(1.49393e-19 -2.77894e-08 0)
(1.65972e-19 -3.18944e-08 0)
(1.82812e-19 -3.42471e-08 0)
(1.99942e-19 -3.84939e-08 0)
(2.17386e-19 -4.09202e-08 0)
(2.35174e-19 -4.53046e-08 0)
(2.53332e-19 -4.78216e-08 0)
(2.71892e-19 -5.23396e-08 0)
(2.90882e-19 -5.49656e-08 0)
(3.10334e-19 -5.9613e-08 0)
(3.30279e-19 -6.2367e-08 0)
(3.5075e-19 -6.71403e-08 0)
(3.7178e-19 -7.00418e-08 0)
(3.93404e-19 -7.49382e-08 0)
(4.15656e-19 -7.80073e-08 0)
(4.38602e-19 -8.30252e-08 0)
(4.6225e-19 -8.62822e-08 0)
(4.86636e-19 -9.14216e-08 0)
(5.11782e-19 -9.48873e-08 0)
(5.37744e-19 -1.00151e-07 0)
(5.64562e-19 -1.03847e-07 0)
(5.92238e-19 -1.0924e-07 0)
(6.20814e-19 -1.13187e-07 0)
(6.50373e-19 -1.18718e-07 0)
(6.80962e-19 -1.2294e-07 0)
(7.12613e-19 -1.28623e-07 0)
(7.454e-19 -1.33142e-07 0)
(7.78519e-19 -1.38993e-07 0)
(8.12936e-19 -1.43834e-07 0)
(8.48525e-19 -1.49874e-07 0)
(8.85448e-19 -1.55059e-07 0)
(9.23572e-19 -1.61313e-07 0)
(9.63108e-19 -1.66866e-07 0)
(1.00397e-18 -1.73363e-07 0)
(1.04625e-18 -1.7931e-07 0)
(1.08999e-18 -1.86082e-07 0)
(1.13529e-18 -1.92449e-07 0)
(1.18196e-18 -1.99537e-07 0)
(1.23018e-18 -2.06357e-07 0)
(1.2799e-18 -2.1381e-07 0)
(1.33137e-18 -2.21126e-07 0)
(1.38446e-18 -2.29008e-07 0)
(1.43919e-18 -2.36877e-07 0)
(1.49557e-18 -2.45269e-07 0)
(1.55362e-18 -2.53767e-07 0)
(1.61335e-18 -2.62772e-07 0)
(1.67487e-18 -2.71995e-07 0)
(1.73811e-18 -2.81731e-07 0)
(1.80308e-18 -2.9179e-07 0)
(1.86984e-18 -3.02385e-07 0)
(1.93845e-18 -3.13399e-07 0)
(2.00885e-18 -3.24983e-07 0)
(2.08107e-18 -3.37075e-07 0)
(2.15512e-18 -3.49789e-07 0)
(2.23103e-18 -3.63113e-07 0)
(2.30881e-18 -3.77161e-07 0)
(2.3882e-18 -3.9199e-07 0)
(2.46976e-18 -4.07763e-07 0)
(2.55325e-18 -4.24662e-07 0)
(2.6388e-18 -4.42968e-07 0)
(2.72671e-18 -4.63052e-07 0)
(2.81749e-18 -4.8539e-07 0)
(2.91158e-18 -5.10651e-07 0)
(3.01029e-18 -5.39561e-07 0)
(3.11466e-18 -5.73171e-07 0)
(3.22531e-18 -6.13886e-07 0)
(3.34174e-18 -6.64522e-07 0)
(3.4608e-18 -7.21841e-07 0)
(3.5744e-18 -7.76346e-07 0)
(3.66797e-18 -8.22796e-07 0)
(3.72334e-18 -8.4339e-07 0)
(3.74699e-18 -8.43963e-07 0)
(6.33152e-17 -2.38083e-05 0)
(8.28785e-17 -3.03693e-06 0)
(9.61707e-17 -4.1152e-06 0)
(1.1357e-16 -5.58793e-06 0)
(1.38995e-16 -6.07565e-06 0)
(1.11821e-16 -6.24736e-06 0)
(9.24885e-17 -6.50422e-06 0)
(7.81685e-17 -7.02504e-06 0)
(6.72863e-17 -3.06503e-06 0)
(5.90314e-17 1.01543e-05 0)
(5.32964e-17 -9.38908e-05 0)
(5.13027e-17 -0.000262479 0)
(4.97027e-17 -8.61007e-06 0)
(4.56281e-17 9.68434e-05 0)
(3.69248e-17 -0.000244028 0)
(3.30563e-17 -0.000209277 0)
(3.30543e-17 -0.000209269 0)
(3.30443e-17 -0.000209276 0)
(2.5141e-17 -0.000214767 0)
(1.32754e-17 -0.000221908 0)
(6.32736e-18 -0.000225528 0)
(3.50138e-18 -0.000226811 0)
(2.21828e-18 -0.000227325 0)
(1.46919e-18 -0.000227595 0)
(9.6904e-19 -0.000227761 0)
(6.46805e-19 -0.00022786 0)
(4.6759e-19 -0.000227911 0)
(3.85425e-19 -0.000227933 0)
(3.54473e-19 -0.000227941 0)
(3.44279e-19 -0.000227943 0)
(3.40685e-19 -0.000227944 0)
(3.39052e-19 -0.000227944 0)
(3.38156e-19 -0.000227944 0)
(3.37641e-19 -0.000227944 0)
(3.37378e-19 -0.000227944 0)
(3.37348e-19 -0.000227942 0)
(3.37892e-19 -0.000227929 0)
(3.40998e-19 -0.000227791 0)
(3.50449e-19 -0.00022451 0)
)
;

boundaryField
{
    inlet
    {
        type            cyclic;
    }
    outlet
    {
        type            cyclic;
    }
    top
    {
        type            fixedValue;
        value           uniform (0 0 0);
    }
    bottom
    {
        type            fixedValue;
        value           uniform (0 0 0);
    }
    frontAndBackPlanes
    {
        type            empty;
    }
}


// ************************************************************************* //
