/*--------------------------------*- C++ -*----------------------------------*\
| =========                 |                                                 |
| \\      /  F ield         | OpenFOAM: The Open Source CFD Toolbox           |
|  \\    /   O peration     | Version:  2206                                  |
|   \\  /    A nd           | Website:  www.openfoam.com                      |
|    \\/     M anipulation  |                                                 |
\*---------------------------------------------------------------------------*/
FoamFile
{
    version     2.0;
    format      ascii;
    arch        "LSB;label=32;scalar=64";
    class       volVectorField;
    location    "1200";
    object      U.b;
}
// * * * * * * * * * * * * * * * * * * * * * * * * * * * * * * * * * * * * * //

dimensions      [0 1 -1 0 0 0 0];

internalField   nonuniform List<vector> 
120
(
(7.68084e-21 1.74657e-08 0)
(2.30579e-20 6.62942e-09 0)
(3.84834e-20 1.02119e-08 0)
(5.39431e-20 1.52325e-08 0)
(6.94992e-20 1.88883e-08 0)
(8.51637e-20 2.4097e-08 0)
(1.01028e-19 2.78045e-08 0)
(1.16913e-19 3.3212e-08 0)
(1.32958e-19 3.6988e-08 0)
(1.49393e-19 4.25931e-08 0)
(1.65972e-19 4.64537e-08 0)
(1.82688e-19 5.22541e-08 0)
(1.99941e-19 5.62176e-08 0)
(2.17386e-19 6.22116e-08 0)
(2.35174e-19 6.62981e-08 0)
(2.53332e-19 7.24836e-08 0)
(2.71891e-19 7.67137e-08 0)
(2.90882e-19 8.30883e-08 0)
(3.10334e-19 8.74849e-08 0)
(3.30279e-19 9.40476e-08 0)
(3.5075e-19 9.8634e-08 0)
(3.7178e-19 1.05383e-07 0)
(3.93399e-19 1.10183e-07 0)
(4.14537e-19 1.1712e-07 0)
(4.38597e-19 1.22159e-07 0)
(4.62252e-19 1.29284e-07 0)
(4.87284e-19 1.34587e-07 0)
(5.11785e-19 1.41906e-07 0)
(5.3775e-19 1.47501e-07 0)
(5.66053e-19 1.55021e-07 0)
(5.93794e-19 1.60935e-07 0)
(6.2082e-19 1.68668e-07 0)
(6.50373e-19 1.7493e-07 0)
(6.80962e-19 1.82893e-07 0)
(7.12604e-19 1.89535e-07 0)
(7.4349e-19 1.97748e-07 0)
(7.76549e-19 2.04802e-07 0)
(8.14964e-19 2.13292e-07 0)
(8.46429e-19 2.2079e-07 0)
(8.89838e-19 2.29588e-07 0)
(9.21316e-19 2.37565e-07 0)
(9.65468e-19 2.46706e-07 0)
(1.00398e-18 2.55195e-07 0)
(1.04624e-18 2.64721e-07 0)
(1.08738e-18 2.73759e-07 0)
(1.14074e-18 2.83717e-07 0)
(1.182e-18 2.93347e-07 0)
(1.23308e-18 3.03797e-07 0)
(1.27386e-18 3.14072e-07 0)
(1.33135e-18 3.25088e-07 0)
(1.38446e-18 3.36078e-07 0)
(1.43919e-18 3.47759e-07 0)
(1.49557e-18 3.59559e-07 0)
(1.5536e-18 3.72027e-07 0)
(1.60964e-18 3.84757e-07 0)
(1.67485e-18 3.98162e-07 0)
(1.73811e-18 4.11966e-07 0)
(1.80312e-18 4.26474e-07 0)
(1.87837e-18 4.41509e-07 0)
(1.93849e-18 4.57291e-07 0)
(2.00885e-18 4.73715e-07 0)
(2.08107e-18 4.90946e-07 0)
(2.15512e-18 5.08939e-07 0)
(2.23108e-18 5.27838e-07 0)
(2.31936e-18 5.47674e-07 0)
(2.37724e-18 5.68627e-07 0)
(2.46971e-18 5.9086e-07 0)
(2.55325e-18 6.14673e-07 0)
(2.6388e-18 6.40436e-07 0)
(2.72678e-18 6.68671e-07 0)
(2.83107e-18 7.00065e-07 0)
(2.91164e-18 7.35451e-07 0)
(3.01029e-18 7.75914e-07 0)
(3.11466e-18 8.23405e-07 0)
(3.22531e-18 8.80618e-07 0)
(3.34174e-18 9.47785e-07 0)
(3.4608e-18 1.01935e-06 0)
(3.5744e-18 1.08664e-06 0)
(3.66798e-18 1.13751e-06 0)
(3.72507e-18 1.17232e-06 0)
(4.07404e-18 3.14963e-06 0)
(6.33869e-17 -1.43851e-05 0)
(8.28783e-17 7.92203e-06 0)
(9.61707e-17 7.83126e-06 0)
(1.1357e-16 6.86768e-06 0)
(1.3871e-16 6.61377e-06 0)
(1.11821e-16 6.55351e-06 0)
(9.24879e-17 6.35526e-06 0)
(7.81683e-17 5.85468e-06 0)
(6.72863e-17 9.76839e-06 0)
(5.90315e-17 2.29168e-05 0)
(5.32965e-17 -8.12043e-05 0)
(5.13029e-17 -0.000200576 0)
(4.97151e-17 2.60163e-06 0)
(4.7245e-17 2.50368e-05 0)
(4.48688e-17 -1.91954e-06 0)
(4.25672e-17 -2.24326e-06 0)
(4.03436e-17 -5.73729e-08 0)
(3.81887e-17 1.49324e-07 0)
(3.60952e-17 3.23441e-08 0)
(3.40568e-17 -4.08675e-09 0)
(3.20681e-17 -2.97264e-09 0)
(3.01238e-17 -5.49938e-11 0)
(2.82194e-17 2.20489e-10 0)
(2.6351e-17 2.51665e-11 0)
(2.45148e-17 -1.39853e-11 0)
(2.27077e-17 -3.08193e-12 0)
(2.09269e-17 1.4182e-12 0)
(1.91698e-17 7.03316e-14 0)
(1.7434e-17 -1.45633e-12 0)
(1.57174e-17 -2.56094e-13 0)
(1.40178e-17 -1.04044e-13 0)
(1.23335e-17 4.94722e-13 0)
(1.06623e-17 7.10155e-14 0)
(9.00269e-18 -5.42239e-13 0)
(7.35268e-18 1.50798e-13 0)
(5.71056e-18 9.94177e-13 0)
(4.07457e-18 7.241e-13 0)
(2.44294e-18 -1.18426e-13 0)
(8.13938e-19 -7.24925e-13 0)
)
;

boundaryField
{
    inlet
    {
        type            cyclic;
    }
    outlet
    {
        type            cyclic;
    }
    top
    {
        type            fixedValue;
        value           uniform (0 0 0);
    }
    bottom
    {
        type            fixedValue;
        value           uniform (0 0 0);
    }
    frontAndBackPlanes
    {
        type            empty;
    }
}


// ************************************************************************* //
