/*--------------------------------*- C++ -*----------------------------------*\
| =========                 |                                                 |
| \\      /  F ield         | OpenFOAM: The Open Source CFD Toolbox           |
|  \\    /   O peration     | Version:  2206                                  |
|   \\  /    A nd           | Website:  www.openfoam.com                      |
|    \\/     M anipulation  |                                                 |
\*---------------------------------------------------------------------------*/
FoamFile
{
    version     2.0;
    format      ascii;
    arch        "LSB;label=32;scalar=64";
    class       volScalarField;
    location    "1140";
    object      nuFra;
}
// * * * * * * * * * * * * * * * * * * * * * * * * * * * * * * * * * * * * * //

dimensions      [0 2 -1 0 0 0 0];

internalField   nonuniform List<scalar> 
120
(
1
1
1
1
1
1
1
1
1
1
1
1
1
1
1
1
1
1
1
1
1
1
1
1
1
1
1
1
1
1
1
1
1
1
1
1
1
1
1
1
1
1
1
1
1
1
1
1
1
1
1
1
1
1
1
1
1
1
1
1
1
1
1
1
1
1
1
1
1
1
1
1
1
1
1
1
0.000162295
9.09954e-08
1.09369e-08
9.14768e-08
1.03157e-07
2.97546e-07
7.41037e-07
1.48028e-06
3.00889e-06
9.13881e-06
9.43503e-06
6.45227e-07
7.6813e-07
2.67176e-08
1.14399e-08
1.0235e-09
9.29218e-10
4.84569e-09
3.02469e-08
3.78017e-09
9.46884e-09
2.75875e-08
3.4469e-08
4.39089e-08
4.78495e-08
0.000301358
2.1778e-07
9.2302e-08
1.07884e-07
2.52616e-07
8.26221e-07
2.762e-06
9.29538e-06
3.25671e-05
0.000102835
0.000218542
0.000294818
0.000295683
0.000213815
8.22472e-05
1.48453e-05
1.41517e-06
6.27803e-08
4.76422e-10
)
;

boundaryField
{
    inlet
    {
        type            cyclic;
    }
    outlet
    {
        type            cyclic;
    }
    top
    {
        type            calculated;
        value           uniform 2.39958e-10;
    }
    bottom
    {
        type            calculated;
        value           uniform 1;
    }
    frontAndBackPlanes
    {
        type            empty;
    }
}


// ************************************************************************* //
