/*--------------------------------*- C++ -*----------------------------------*\
| =========                 |                                                 |
| \\      /  F ield         | OpenFOAM: The Open Source CFD Toolbox           |
|  \\    /   O peration     | Version:  2206                                  |
|   \\  /    A nd           | Website:  www.openfoam.com                      |
|    \\/     M anipulation  |                                                 |
\*---------------------------------------------------------------------------*/
FoamFile
{
    version     2.0;
    format      ascii;
    arch        "LSB;label=32;scalar=64";
    class       volScalarField;
    location    "1140";
    object      pff;
}
// * * * * * * * * * * * * * * * * * * * * * * * * * * * * * * * * * * * * * //

dimensions      [1 -1 -2 0 0 0 0];

internalField   nonuniform List<scalar> 
120
(
20.2787
19.7455
19.7481
19.1711
19.1573
18.5936
18.5676
18.0186
17.9793
17.446
17.3925
16.8758
16.8073
16.308
16.2239
15.7425
15.6425
15.1792
15.0632
14.6181
14.4861
14.0592
13.9116
13.5025
13.3397
12.9478
12.7706
12.3953
12.2046
11.8449
11.6418
11.2966
11.0823
10.7505
10.5263
10.2068
9.97404
9.66536
9.42549
9.12646
8.88083
8.59021
8.34013
8.05678
7.80352
7.52639
7.27111
6.9993
6.74305
6.47583
6.21951
5.95631
5.70068
5.44104
5.18671
4.9303
4.67769
4.42426
4.17365
3.92304
3.67464
3.4268
3.18084
2.93591
2.69268
2.45092
2.21066
1.97186
1.73431
1.4967
1.25323
1.00528
0.77708
0.569685
0.3638
0.232761
0.0172242
0
0
0
0
0
0
0
0
0
0
0
0
0
0
0
0
0
0
0
0
0
0
0
0
0
0
0
0
0
0
0
0
0
0
0
0
0
0
0
0
0
0
0
)
;

boundaryField
{
    inlet
    {
        type            cyclic;
    }
    outlet
    {
        type            cyclic;
    }
    top
    {
        type            calculated;
        value           uniform 0;
    }
    bottom
    {
        type            calculated;
        value           uniform 20.2787;
    }
    frontAndBackPlanes
    {
        type            empty;
    }
}


// ************************************************************************* //
