/*--------------------------------*- C++ -*----------------------------------*\
| =========                 |                                                 |
| \\      /  F ield         | OpenFOAM: The Open Source CFD Toolbox           |
|  \\    /   O peration     | Version:  2206                                  |
|   \\  /    A nd           | Website:  www.openfoam.com                      |
|    \\/     M anipulation  |                                                 |
\*---------------------------------------------------------------------------*/
FoamFile
{
    version     2.0;
    format      ascii;
    arch        "LSB;label=32;scalar=64";
    class       surfaceScalarField;
    location    "1140";
    object      phi.a;
}
// * * * * * * * * * * * * * * * * * * * * * * * * * * * * * * * * * * * * * //

dimensions      [0 3 -1 0 0 0 0];

oriented        oriented;

internalField   nonuniform List<scalar> 
119
(
-1.05513e-15
-2.1383e-15
-3.22285e-15
-4.33807e-15
-5.45712e-15
-6.60644e-15
-7.76204e-15
-8.94734e-15
-1.01416e-14
-1.1365e-14
-1.26003e-14
-1.38638e-14
-1.51426e-14
-1.64488e-14
-1.77737e-14
-1.91251e-14
-2.0499e-14
-2.18986e-14
-2.33246e-14
-2.47757e-14
-2.62573e-14
-2.77636e-14
-2.93047e-14
-3.08705e-14
-3.24757e-14
-3.41059e-14
-3.57801e-14
-3.74805e-14
-3.92294e-14
-4.10063e-14
-4.28364e-14
-4.46968e-14
-4.66152e-14
-4.85669e-14
-5.05812e-14
-5.26325e-14
-5.47512e-14
-5.69115e-14
-5.91438e-14
-6.14235e-14
-6.37806e-14
-6.61923e-14
-6.86877e-14
-7.1247e-14
-7.38983e-14
-7.66254e-14
-7.94552e-14
-8.23758e-14
-8.54125e-14
-8.85579e-14
-9.18352e-14
-9.52411e-14
-9.87962e-14
-1.02501e-13
-1.06373e-13
-1.10415e-13
-1.14647e-13
-1.19076e-13
-1.23725e-13
-1.28616e-13
-1.33787e-13
-1.39285e-13
-1.45179e-13
-1.51557e-13
-1.58535e-13
-1.66257e-13
-1.74908e-13
-1.84697e-13
-1.95871e-13
-2.08897e-13
-2.24545e-13
-2.427e-13
-2.61228e-13
-2.77857e-13
-2.89049e-13
-3.06186e-13
-1.0939e-12
-1.65456e-12
-1.99673e-12
-2.16598e-12
-2.24792e-12
-2.28679e-12
-2.30555e-12
-2.3147e-12
-2.31915e-12
-2.32131e-12
-2.32231e-12
-2.32252e-12
-2.32211e-12
-2.33132e-12
-2.41978e-12
-1.72019e-12
-1.44286e-11
-5.93149e-11
-8.09286e-11
-8.27821e-11
-8.24168e-11
-8.14293e-11
-8.25434e-11
-8.14659e-11
-8.08896e-11
-8.08895e-11
-8.10602e-11
-8.14738e-11
-8.18394e-11
-8.19994e-11
-8.20478e-11
-8.20618e-11
-8.20659e-11
-8.20671e-11
-8.20675e-11
-8.20676e-11
-8.20676e-11
-8.20676e-11
-8.20675e-11
-8.2067e-11
-8.20644e-11
-8.2037e-11
-8.14189e-11
)
;

boundaryField
{
    inlet
    {
        type            cyclic;
        value           nonuniform List<scalar> 
120
(
-2.12462e-27
-6.3779e-27
-1.06406e-26
-1.4919e-26
-1.92195e-26
-2.35485e-26
-2.79126e-26
-3.23178e-26
-3.67714e-26
-4.12811e-26
-4.58531e-26
-5.04946e-26
-5.5214e-26
-6.00178e-26
-6.49137e-26
-6.99096e-26
-7.50137e-26
-8.02344e-26
-8.55804e-26
-9.10605e-26
-9.66838e-26
-1.0246e-25
-1.08398e-25
-1.14509e-25
-1.20812e-25
-1.27308e-25
-1.34009e-25
-1.4092e-25
-1.48058e-25
-1.55436e-25
-1.63054e-25
-1.70924e-25
-1.79072e-25
-1.87511e-25
-1.96259e-25
-2.05318e-25
-2.14531e-25
-2.24108e-25
-2.34038e-25
-2.44372e-25
-2.55071e-25
-2.66208e-25
-2.77763e-25
-2.89772e-25
-3.02251e-25
-3.15239e-25
-3.28683e-25
-3.42644e-25
-3.57111e-25
-3.72172e-25
-3.87786e-25
-4.03962e-25
-4.20706e-25
-4.38023e-25
-4.55916e-25
-4.74415e-25
-4.93486e-25
-5.13122e-25
-5.33319e-25
-5.54066e-25
-5.75327e-25
-5.97086e-25
-6.1932e-25
-6.42016e-25
-6.6518e-25
-6.8876e-25
-7.13012e-25
-7.37961e-25
-7.63736e-25
-7.90417e-25
-8.17908e-25
-8.45607e-25
-8.72498e-25
-8.96625e-25
-9.15382e-25
-9.26231e-25
-9.32264e-25
-1.36269e-23
-1.76318e-23
-1.92017e-23
-2.06304e-23
-2.22957e-23
-2.43587e-23
-2.70486e-23
-3.06979e-23
-3.58966e-23
-3.03407e-23
-2.61953e-23
-2.21249e-23
-1.91613e-23
-1.68356e-23
-1.4969e-23
-1.36706e-23
-1.338e-23
-1.28407e-23
-1.22377e-23
-1.09406e-23
-9.01795e-24
-7.93558e-24
-6.80403e-24
-5.24787e-24
-5.24716e-24
-5.24573e-24
-3.79728e-24
-1.672e-24
-5.72741e-25
-2.29655e-25
-1.2989e-25
-1.00057e-25
-9.13811e-26
-8.87404e-26
-8.77122e-26
-8.71869e-26
-8.68768e-26
-8.66917e-26
-8.65916e-26
-8.65654e-26
-8.67024e-26
-8.75489e-26
-9.0282e-26
)
;
    }
    outlet
    {
        type            cyclic;
        value           nonuniform List<scalar> 
120
(
2.12462e-27
6.3779e-27
1.06406e-26
1.4919e-26
1.92195e-26
2.35485e-26
2.79126e-26
3.23178e-26
3.67714e-26
4.12811e-26
4.58531e-26
5.04946e-26
5.5214e-26
6.00178e-26
6.49137e-26
6.99096e-26
7.50137e-26
8.02344e-26
8.55804e-26
9.10605e-26
9.66838e-26
1.0246e-25
1.08398e-25
1.14509e-25
1.20812e-25
1.27308e-25
1.34009e-25
1.4092e-25
1.48058e-25
1.55436e-25
1.63054e-25
1.70924e-25
1.79072e-25
1.87511e-25
1.96259e-25
2.05318e-25
2.14531e-25
2.24108e-25
2.34038e-25
2.44372e-25
2.55071e-25
2.66208e-25
2.77763e-25
2.89772e-25
3.02251e-25
3.15239e-25
3.28683e-25
3.42644e-25
3.57111e-25
3.72172e-25
3.87786e-25
4.03962e-25
4.20706e-25
4.38023e-25
4.55916e-25
4.74415e-25
4.93486e-25
5.13122e-25
5.33319e-25
5.54066e-25
5.75327e-25
5.97086e-25
6.1932e-25
6.42016e-25
6.6518e-25
6.8876e-25
7.13012e-25
7.37961e-25
7.63736e-25
7.90417e-25
8.17908e-25
8.45607e-25
8.72498e-25
8.96625e-25
9.15382e-25
9.26231e-25
9.32264e-25
1.36269e-23
1.76318e-23
1.92017e-23
2.06304e-23
2.22957e-23
2.43587e-23
2.70486e-23
3.06979e-23
3.58966e-23
3.03407e-23
2.61953e-23
2.21249e-23
1.91613e-23
1.68356e-23
1.4969e-23
1.36706e-23
1.338e-23
1.28407e-23
1.22377e-23
1.09406e-23
9.01795e-24
7.93558e-24
6.80403e-24
5.24787e-24
5.24716e-24
5.24573e-24
3.79728e-24
1.672e-24
5.72741e-25
2.29655e-25
1.2989e-25
1.00057e-25
9.13811e-26
8.87404e-26
8.77122e-26
8.71869e-26
8.68768e-26
8.66917e-26
8.65916e-26
8.65654e-26
8.67024e-26
8.75489e-26
9.0282e-26
)
;
    }
    top
    {
        type            fixedValue;
        value           uniform 0;
    }
    bottom
    {
        type            fixedValue;
        value           uniform 0;
    }
    frontAndBackPlanes
    {
        type            empty;
        value           nonuniform List<scalar> 0();
    }
}


// ************************************************************************* //
