/*--------------------------------*- C++ -*----------------------------------*\
| =========                 |                                                 |
| \\      /  F ield         | OpenFOAM: The Open Source CFD Toolbox           |
|  \\    /   O peration     | Version:  2206                                  |
|   \\  /    A nd           | Website:  www.openfoam.com                      |
|    \\/     M anipulation  |                                                 |
\*---------------------------------------------------------------------------*/
FoamFile
{
    version     2.0;
    format      ascii;
    arch        "LSB;label=32;scalar=64";
    class       volVectorField;
    location    "1140";
    object      U.a;
}
// * * * * * * * * * * * * * * * * * * * * * * * * * * * * * * * * * * * * * //

dimensions      [0 1 -1 0 0 0 0];

internalField   nonuniform List<vector> 
120
(
(7.08206e-21 1.41847e-08 0)
(2.12597e-20 -4.10091e-09 0)
(3.54687e-20 -7.77848e-09 0)
(4.97299e-20 -1.01256e-08 0)
(6.40648e-20 -1.39748e-08 0)
(7.84949e-20 -1.63418e-08 0)
(9.30419e-20 -2.03606e-08 0)
(1.07726e-19 -2.27611e-08 0)
(1.22571e-19 -2.69462e-08 0)
(1.37604e-19 -2.93956e-08 0)
(1.52844e-19 -3.37429e-08 0)
(1.68315e-19 -3.62581e-08 0)
(1.84047e-19 -4.07629e-08 0)
(2.00059e-19 -4.33623e-08 0)
(2.16379e-19 -4.80194e-08 0)
(2.33032e-19 -5.07228e-08 0)
(2.50046e-19 -5.55273e-08 0)
(2.67448e-19 -5.83556e-08 0)
(2.85268e-19 -6.33027e-08 0)
(3.03535e-19 -6.6278e-08 0)
(3.22279e-19 -7.13639e-08 0)
(3.41532e-19 -7.45094e-08 0)
(3.61327e-19 -7.97318e-08 0)
(3.81696e-19 -8.30717e-08 0)
(4.02706e-19 -8.84303e-08 0)
(4.24361e-19 -9.19895e-08 0)
(4.46696e-19 -9.74868e-08 0)
(4.69733e-19 -1.01291e-07 0)
(4.93527e-19 -1.06933e-07 0)
(5.18122e-19 -1.11008e-07 0)
(5.43515e-19 -1.16803e-07 0)
(5.69747e-19 -1.21176e-07 0)
(5.96906e-19 -1.27138e-07 0)
(6.25038e-19 -1.31835e-07 0)
(6.54197e-19 -1.3798e-07 0)
(6.84392e-19 -1.43026e-07 0)
(7.15102e-19 -1.49375e-07 0)
(7.47026e-19 -1.54797e-07 0)
(7.80128e-19 -1.61376e-07 0)
(8.14574e-19 -1.672e-07 0)
(8.50236e-19 -1.7404e-07 0)
(8.87361e-19 -1.80295e-07 0)
(9.25877e-19 -1.87438e-07 0)
(9.65905e-19 -1.94159e-07 0)
(1.0075e-18 -2.01655e-07 0)
(1.0508e-18 -2.08889e-07 0)
(1.09561e-18 -2.16805e-07 0)
(1.14215e-18 -2.2461e-07 0)
(1.19037e-18 -2.33031e-07 0)
(1.24057e-18 -2.41481e-07 0)
(1.29262e-18 -2.50505e-07 0)
(1.34654e-18 -2.59688e-07 0)
(1.40235e-18 -2.69426e-07 0)
(1.46008e-18 -2.79439e-07 0)
(1.51972e-18 -2.90006e-07 0)
(1.58138e-18 -3.00949e-07 0)
(1.64495e-18 -3.12466e-07 0)
(1.71041e-18 -3.24456e-07 0)
(1.77773e-18 -3.37071e-07 0)
(1.84689e-18 -3.50284e-07 0)
(1.91776e-18 -3.64243e-07 0)
(1.99029e-18 -3.7901e-07 0)
(2.0644e-18 -3.94787e-07 0)
(2.14005e-18 -4.11751e-07 0)
(2.21727e-18 -4.30218e-07 0)
(2.29587e-18 -4.50515e-07 0)
(2.37671e-18 -4.73116e-07 0)
(2.45987e-18 -4.9857e-07 0)
(2.54579e-18 -5.27495e-07 0)
(2.63472e-18 -5.60642e-07 0)
(2.72636e-18 -5.99846e-07 0)
(2.81869e-18 -6.47586e-07 0)
(2.90833e-18 -7.00759e-07 0)
(2.98875e-18 -7.50588e-07 0)
(3.05127e-18 -7.93214e-07 0)
(3.08744e-18 -8.12585e-07 0)
(3.10755e-18 -8.15469e-07 0)
(4.5423e-17 -2.34926e-05 0)
(5.87728e-17 -3.27598e-06 0)
(6.40057e-17 -3.95687e-06 0)
(6.87679e-17 -5.53112e-06 0)
(7.43189e-17 -6.06731e-06 0)
(8.11958e-17 -6.26383e-06 0)
(9.0162e-17 -6.36091e-06 0)
(1.02326e-16 -6.41072e-06 0)
(1.19655e-16 -6.43317e-06 0)
(1.01136e-16 -6.4345e-06 0)
(8.73175e-17 -6.45656e-06 0)
(7.37496e-17 -6.77142e-06 0)
(6.38709e-17 -6.73205e-06 0)
(5.61185e-17 1.35817e-06 0)
(4.98967e-17 1.21065e-05 0)
(4.55686e-17 -0.000210507 0)
(4.45999e-17 -0.000219166 0)
(4.28023e-17 -0.000164967 0)
(4.07922e-17 -0.000211835 0)
(3.64688e-17 -0.000237694 0)
(3.00598e-17 -0.000221721 0)
(2.64519e-17 -0.00023068 0)
(2.26801e-17 -0.000227894 0)
(1.74929e-17 -0.000224694 0)
(1.74905e-17 -0.000224693 0)
(1.74858e-17 -0.000224694 0)
(1.26576e-17 -0.000225641 0)
(5.57334e-18 -0.000226991 0)
(1.90914e-18 -0.000227672 0)
(7.65516e-19 -0.00022788 0)
(4.32968e-19 -0.000227941 0)
(3.33523e-19 -0.000227958 0)
(3.04604e-19 -0.000227963 0)
(2.95801e-19 -0.000227965 0)
(2.92374e-19 -0.000227965 0)
(2.90623e-19 -0.000227966 0)
(2.89589e-19 -0.000227966 0)
(2.88972e-19 -0.000227965 0)
(2.88639e-19 -0.000227965 0)
(2.88551e-19 -0.000227963 0)
(2.89008e-19 -0.00022795 0)
(2.9183e-19 -0.000227811 0)
(3.0094e-19 -0.000224517 0)
)
;

boundaryField
{
    inlet
    {
        type            cyclic;
    }
    outlet
    {
        type            cyclic;
    }
    top
    {
        type            fixedValue;
        value           uniform (0 0 0);
    }
    bottom
    {
        type            fixedValue;
        value           uniform (0 0 0);
    }
    frontAndBackPlanes
    {
        type            empty;
    }
}


// ************************************************************************* //
