/*--------------------------------*- C++ -*----------------------------------*\
| =========                 |                                                 |
| \\      /  F ield         | OpenFOAM: The Open Source CFD Toolbox           |
|  \\    /   O peration     | Version:  2206                                  |
|   \\  /    A nd           | Website:  www.openfoam.com                      |
|    \\/     M anipulation  |                                                 |
\*---------------------------------------------------------------------------*/
FoamFile
{
    version     2.0;
    format      ascii;
    arch        "LSB;label=32;scalar=64";
    class       volVectorField;
    location    "1140";
    object      U.b;
}
// * * * * * * * * * * * * * * * * * * * * * * * * * * * * * * * * * * * * * //

dimensions      [0 1 -1 0 0 0 0];

internalField   nonuniform List<vector> 
120
(
(7.08206e-21 1.75652e-08 0)
(2.12597e-20 6.97396e-09 0)
(3.5482e-20 1.07693e-08 0)
(4.973e-20 1.60499e-08 0)
(6.40648e-20 1.99234e-08 0)
(7.84952e-20 2.54144e-08 0)
(9.31132e-20 2.9347e-08 0)
(1.07726e-19 3.50597e-08 0)
(1.22477e-19 3.907e-08 0)
(1.37603e-19 4.50024e-08 0)
(1.52843e-19 4.91085e-08 0)
(1.68184e-19 5.52579e-08 0)
(1.84046e-19 5.94814e-08 0)
(2.00059e-19 6.58465e-08 0)
(2.16379e-19 7.02102e-08 0)
(2.33032e-19 7.67867e-08 0)
(2.50046e-19 8.13135e-08 0)
(2.67448e-19 8.8099e-08 0)
(2.85268e-19 9.28158e-08 0)
(3.03535e-19 9.98089e-08 0)
(3.22279e-19 1.04743e-07 0)
(3.41532e-19 1.11943e-07 0)
(3.61322e-19 1.17124e-07 0)
(3.80506e-19 1.24534e-07 0)
(4.02701e-19 1.29991e-07 0)
(4.24364e-19 1.37615e-07 0)
(4.47386e-19 1.43382e-07 0)
(4.69736e-19 1.51228e-07 0)
(4.93534e-19 1.57337e-07 0)
(5.19713e-19 1.65419e-07 0)
(5.45176e-19 1.71906e-07 0)
(5.69754e-19 1.8024e-07 0)
(5.96906e-19 1.8714e-07 0)
(6.25038e-19 1.95748e-07 0)
(6.54188e-19 2.03095e-07 0)
(6.82345e-19 2.12004e-07 0)
(7.12987e-19 2.19835e-07 0)
(7.49207e-19 2.29075e-07 0)
(7.77873e-19 2.37426e-07 0)
(8.19302e-19 2.47036e-07 0)
(8.47804e-19 2.55946e-07 0)
(8.89908e-19 2.65974e-07 0)
(9.25888e-19 2.75489e-07 0)
(9.65892e-19 2.85996e-07 0)
(1.00468e-18 2.96174e-07 0)
(1.0567e-18 3.07238e-07 0)
(1.09565e-18 3.18153e-07 0)
(1.1453e-18 3.29876e-07 0)
(1.1838e-18 3.41622e-07 0)
(1.24054e-18 3.54128e-07 0)
(1.29262e-18 3.6682e-07 0)
(1.34654e-18 3.80249e-07 0)
(1.40235e-18 3.94014e-07 0)
(1.46006e-18 4.08515e-07 0)
(1.51563e-18 4.23487e-07 0)
(1.58136e-18 4.39216e-07 0)
(1.64495e-18 4.55537e-07 0)
(1.71045e-18 4.72667e-07 0)
(1.78722e-18 4.90527e-07 0)
(1.84693e-18 5.09311e-07 0)
(1.91776e-18 5.29045e-07 0)
(1.99029e-18 5.49964e-07 0)
(2.0644e-18 5.72229e-07 0)
(2.14011e-18 5.96192e-07 0)
(2.22927e-18 6.22199e-07 0)
(2.2833e-18 6.5078e-07 0)
(2.37665e-18 6.82532e-07 0)
(2.45987e-18 7.1818e-07 0)
(2.54579e-18 7.58561e-07 0)
(2.6348e-18 8.05132e-07 0)
(2.7431e-18 8.60088e-07 0)
(2.81877e-18 9.23304e-07 0)
(2.90833e-18 9.89531e-07 0)
(2.98875e-18 1.05126e-06 0)
(3.05128e-18 1.0984e-06 0)
(3.08866e-18 1.15147e-06 0)
(3.33719e-18 2.96267e-06 0)
(4.56971e-17 -1.47383e-05 0)
(5.87726e-17 7.6782e-06 0)
(6.40056e-17 7.94391e-06 0)
(6.87678e-17 6.90497e-06 0)
(7.43185e-17 6.61451e-06 0)
(8.11949e-17 6.53383e-06 0)
(9.01596e-17 6.49313e-06 0)
(1.02315e-16 6.47087e-06 0)
(1.19456e-16 6.46177e-06 0)
(1.01124e-16 6.46665e-06 0)
(8.73052e-17 6.44763e-06 0)
(7.37491e-17 6.13941e-06 0)
(6.38702e-17 6.17603e-06 0)
(5.61186e-17 1.41726e-05 0)
(4.98967e-17 2.52631e-05 0)
(4.55686e-17 -0.000200207 0)
(4.46005e-17 -9.62449e-05 0)
(4.28033e-17 6.10191e-05 0)
(4.07373e-17 1.30063e-05 0)
(3.87124e-17 -2.54248e-06 0)
(3.67289e-17 -1.29219e-06 0)
(3.47822e-17 1.46602e-08 0)
(3.28724e-17 9.84207e-08 0)
(3.1e-17 1.17933e-08 0)
(2.91651e-17 -5.83621e-09 0)
(2.73676e-17 -1.66872e-09 0)
(2.56064e-17 2.11397e-10 0)
(2.38805e-17 1.56143e-10 0)
(2.21881e-17 6.91733e-12 0)
(2.05271e-17 -8.73953e-12 0)
(1.88952e-17 -1.17361e-12 0)
(1.72901e-17 -1.32506e-12 0)
(1.57093e-17 -3.09471e-12 0)
(1.41503e-17 -6.98809e-13 0)
(1.26107e-17 1.08082e-12 0)
(1.10882e-17 2.08208e-12 0)
(9.58058e-18 1.00033e-12 0)
(8.08564e-18 2.23044e-13 0)
(6.6013e-18 -1.27782e-12 0)
(5.12553e-18 -2.00222e-12 0)
(3.65638e-18 -3.15503e-13 0)
(2.1919e-18 1.19622e-12 0)
(7.30235e-19 6.67848e-13 0)
)
;

boundaryField
{
    inlet
    {
        type            cyclic;
    }
    outlet
    {
        type            cyclic;
    }
    top
    {
        type            fixedValue;
        value           uniform (0 0 0);
    }
    bottom
    {
        type            fixedValue;
        value           uniform (0 0 0);
    }
    frontAndBackPlanes
    {
        type            empty;
    }
}


// ************************************************************************* //
