/*--------------------------------*- C++ -*----------------------------------*\
| =========                 |                                                 |
| \\      /  F ield         | OpenFOAM: The Open Source CFD Toolbox           |
|  \\    /   O peration     | Version:  2206                                  |
|   \\  /    A nd           | Website:  www.openfoam.com                      |
|    \\/     M anipulation  |                                                 |
\*---------------------------------------------------------------------------*/
FoamFile
{
    version     2.0;
    format      ascii;
    arch        "LSB;label=32;scalar=64";
    class       volScalarField;
    location    "120";
    object      alpha.a;
}
// * * * * * * * * * * * * * * * * * * * * * * * * * * * * * * * * * * * * * //

dimensions      [0 0 0 0 0 0 0];

internalField   nonuniform List<scalar> 
344
(
0.585917
0.585857
0.585812
0.585748
0.585702
0.585636
0.585589
0.585521
0.585473
0.585402
0.585353
0.585281
0.58523
0.585156
0.585104
0.585026
0.584973
0.584893
0.584838
0.584756
0.584699
0.584614
0.584555
0.584467
0.584407
0.584314
0.584252
0.584156
0.584092
0.583992
0.583926
0.583822
0.583752
0.583644
0.583572
0.583458
0.583383
0.583264
0.583185
0.58306
0.582978
0.582846
0.58276
0.582621
0.582531
0.582383
0.582288
0.582131
0.58203
0.581862
0.581756
0.581576
0.581462
0.581269
0.581147
0.580937
0.580806
0.580577
0.580434
0.580183
0.580026
0.579747
0.579574
0.579261
0.579066
0.57871
0.578487
0.578073
0.577812
0.577318
0.577002
0.576386
0.575985
0.575165
0.574611
0.573362
0.572437
0.569611
0.196567
0.000343927
1.18647e-08
1.78694e-10
1.02321e-20
5.93665e-31
3.538e-41
1.97081e-51
9.50473e-62
4.15504e-72
1.54597e-82
6.35268e-93
2.61087e-103
1.08823e-113
4.12675e-124
1.58074e-134
5.47969e-145
1.73244e-155
4.44684e-166
1.1124e-176
2.4472e-187
4.7497e-198
7.07717e-209
8.73658e-220
7.35783e-231
3.60301e-242
2.79328e-253
4.59925e-264
7.10183e-275
1.20654e-285
2.13085e-296
4.70077e-307
5.02348e-316
1.15611e-321
0
0
0
0
0
0
0
4.76449e-317
0
0
0
1.8058e-316
0
0
0
0
0
0
0
0
0
0
1.75432e-316
0
0
0
0
0
0
0
0
0
0
0
0
0
0
0
0
0
0
0
0
0
0
0
0
0
0
0
0
0
0
0
0
0
0
0
0
0
0
0
0
0
0
0
0
0
0
0
0
0
0
0
0
0
0
0
0
0
0
0
0
0
0
0
0
0
0
0
0
0
0
0
0
0
0
0
0
0
0
0
0
0
0
0
0
0
0
0
0
0
0
0
0
0
0
0
0
0
0
0
0
0
0
0
0
0
0
0
0
0
0
0
0
0
0
0
0
0
0
0
0
0
0
0
0
0
0
0
0
0
0
0
0
0
0
0
0
0
0
0
0
0
0
0
0
0
0
0
0
0
0
0
0
0
0
0
0
0
0
0
0
0
0
0
0
0
0
0
0
0
0
0
0
0
0
0
0
0
0
0
0
0
0
0
0
0
0
0
0
0
0
0
0
0
0
0
0
0
0
0
0
0
0
0
0
0
0
0
0
0
)
;

boundaryField
{
    inlet
    {
        type            cyclic;
    }
    outlet
    {
        type            cyclic;
    }
    top
    {
        type            zeroGradient;
    }
    bottom
    {
        type            zeroGradient;
    }
    frontAndBackPlanes
    {
        type            empty;
    }
}


// ************************************************************************* //
