/*--------------------------------*- C++ -*----------------------------------*\
| =========                 |                                                 |
| \\      /  F ield         | OpenFOAM: The Open Source CFD Toolbox           |
|  \\    /   O peration     | Version:  2206                                  |
|   \\  /    A nd           | Website:  www.openfoam.com                      |
|    \\/     M anipulation  |                                                 |
\*---------------------------------------------------------------------------*/
FoamFile
{
    version     2.0;
    format      ascii;
    arch        "LSB;label=32;scalar=64";
    class       volScalarField;
    location    "120";
    object      muI;
}
// * * * * * * * * * * * * * * * * * * * * * * * * * * * * * * * * * * * * * //

dimensions      [0 0 0 0 0 0 0];

internalField   nonuniform List<scalar> 
344
(
0.630001
0.630001
0.63
0.63
0.63
0.63
0.63
0.63
0.63
0.63
0.63
0.63
0.63
0.63
0.63
0.63
0.63
0.63
0.63
0.63
0.63
0.63
0.63
0.63
0.63
0.63
0.63
0.63
0.63
0.63
0.63
0.63
0.63
0.63
0.63
0.63
0.63
0.63
0.63
0.63
0.63
0.63
0.63
0.63
0.63
0.63
0.63
0.63
0.63
0.63
0.63
0.63
0.63
0.63
0.63
0.63
0.63
0.63
0.63
0.63
0.63
0.63
0.63
0.63
0.63
0.63
0.63
0.63
0.63
0.63
0.63
0.63
0.63
0.63
0.63
0.63
0.63
0.630007
1.12785
1.12822
1.09888
1.12231
1.12475
0.956754
0.909791
0.913622
0.930243
0.689554
0.686492
0.630025
0.630017
0.630005
0.630003
0.630001
0.630001
0.630001
0.630002
0.630003
0.630007
0.630031
0.666239
0.866324
1.08032
1.12062
1.11891
0.630034
1.11715
1.11715
0.630006
0.630004
0.630004
0.630004
0.630004
0.630004
0.630004
0.630004
0.630004
0.630004
0.630004
0.630004
0.630004
0.630004
0.630004
0.630004
0.630006
1.11746
1.11746
0.630012
1.1175
1.11699
1.11558
1.1149
0.630006
1.1128
1.1128
0.630001
1.09103
1.09103
0.630004
1.10283
1.10104
1.11417
1.11358
0.630007
1.11417
1.11417
0.630005
0.630019
1.04999
1.05
0.630001
1.05107
1.05106
0.630023
0.630019
0.630021
0.630016
0.630021
1.11982
1.11982
0.630014
1.11888
1.11888
0.630005
0.63003
1.1169
1.1169
0.630016
1.11813
1.11756
1.11761
1.117
0.630017
1.11814
1.11814
0.630015
0.63003
0.630023
0.630023
0.630024
0.630024
0.630024
0.630024
0.630024
0.630024
0.630024
0.630024
0.630029
0.918895
0.918908
0.63
0.926518
0.926506
0.63003
0.630029
0.630018
1.09209
1.09209
0.630001
1.08458
1.08458
0.630029
0.63003
0.630018
1.11204
1.11204
0.630005
1.11185
1.11185
0.630019
0.630015
0.630016
0.630015
0.630014
1.11973
1.11973
0.630025
1.1197
1.1197
0.630018
0.630015
0.630015
0.630015
0.630016
0.630012
1.11749
1.11749
0.63001
1.11763
1.11763
0.630009
0.630007
0.630007
0.630007
0.630007
0.630007
0.630007
0.630007
0.630006
0.630007
1.11877
1.11877
0.630009
1.11725
1.11725
0.630007
1.11543
1.11543
0.63001
1.11725
1.11725
0.630018
0.630015
0.630015
0.630015
0.630015
0.630016
0.630012
1.11656
1.11656
0.630011
1.11677
1.11602
1.11829
1.11772
0.630023
1.11876
1.1188
0.983403
0.989741
0.630001
0.965763
0.965756
0.630008
0.630035
0.970427
0.970435
0.63
0.964259
0.964251
0.630018
0.630015
1.11454
1.11454
0.630006
1.11361
1.11361
0.630019
0.630016
0.630016
0.630016
0.630013
1.11829
1.11829
0.630012
1.11827
1.11827
0.630018
0.630015
0.630015
0.63002
0.630009
1.10152
1.10152
0.630003
1.10191
1.10191
0.630019
0.630016
0.630016
0.630014
1.11782
1.11782
0.630011
1.11808
1.11808
0.630004
0.630002
0.630002
0.630003
0.630002
1.10717
1.10717
0.630003
1.10612
1.10612
0.63002
0.630016
0.630016
0.630017
0.630014
1.11768
1.11768
0.630011
1.11803
1.11803
0.630003
0.630002
0.630002
0.630001
0.630001
0.630001
0.63
0.63
)
;

boundaryField
{
    inlet
    {
        type            cyclic;
    }
    outlet
    {
        type            cyclic;
    }
    top
    {
        type            calculated;
        value           uniform 0.63;
    }
    bottom
    {
        type            calculated;
        value           uniform 0.630006;
    }
    frontAndBackPlanes
    {
        type            empty;
    }
}


// ************************************************************************* //
