/*--------------------------------*- C++ -*----------------------------------*\
| =========                 |                                                 |
| \\      /  F ield         | OpenFOAM: The Open Source CFD Toolbox           |
|  \\    /   O peration     | Version:  2206                                  |
|   \\  /    A nd           | Website:  www.openfoam.com                      |
|    \\/     M anipulation  |                                                 |
\*---------------------------------------------------------------------------*/
FoamFile
{
    version     2.0;
    format      ascii;
    arch        "LSB;label=32;scalar=64";
    class       volScalarField;
    location    "120";
    object      nuFra;
}
// * * * * * * * * * * * * * * * * * * * * * * * * * * * * * * * * * * * * * //

dimensions      [0 2 -1 0 0 0 0];

internalField   nonuniform List<scalar> 
344
(
0.01
0.01
0.01
0.01
0.01
0.01
0.01
0.01
0.01
0.01
0.01
0.01
0.01
0.01
0.01
0.01
0.01
0.01
0.01
0.01
0.01
0.01
0.01
0.01
0.01
0.01
0.01
0.01
0.01
0.01
0.01
0.01
0.01
0.01
0.01
0.01
0.01
0.01
0.01
0.01
0.01
0.01
0.01
0.01
0.01
0.01
0.01
0.01
0.01
0.01
0.01
0.01
0.01
0.01
0.01
0.01
0.01
0.01
0.01
0.01
0.01
0.01
0.01
0.01
0.01
0.01
0.01
0.01
0.01
0.01
0.01
0.01
0.01
0.01
0.01
0.01
0.01
0.01
2.62757e-11
2.1717e-11
3.93475e-10
9.46221e-11
6.43929e-11
2.73707e-09
3.86354e-09
3.76081e-09
3.33939e-09
2.75163e-08
2.90798e-08
6.64394e-05
9.34503e-05
0.000192703
0.000209426
0.00022767
0.000231279
0.00023045
0.000225168
0.000211873
0.00017345
5.25818e-05
4.60035e-08
5.21538e-09
6.43037e-10
1.15581e-10
1.36997e-10
4.94851e-05
1.58942e-10
1.58947e-10
0.000180416
0.000198691
0.00019866
0.000198634
0.000198655
0.000198639
0.000198648
0.000198637
0.00019864
0.000198631
0.000198631
0.000198625
0.000198632
0.000198534
0.000198343
0.000208874
0.000184451
1.55079e-10
1.55077e-10
0.000119624
1.54615e-10
1.60982e-10
1.78788e-10
1.87352e-10
0.000180068
2.13925e-10
2.13928e-10
0.000227844
4.97628e-10
4.97619e-10
0.000201799
3.41936e-10
3.65247e-10
1.96579e-10
2.04059e-10
0.000168306
1.9658e-10
1.96582e-10
0.000192621
8.48449e-05
1.0792e-09
1.07917e-09
0.00023024
1.06312e-09
1.06315e-09
6.95133e-05
8.26806e-05
7.76807e-05
9.44686e-05
7.78108e-05
1.25574e-10
1.25573e-10
0.000110036
1.37337e-10
1.37339e-10
0.00019439
5.49098e-05
1.62131e-10
1.62128e-10
9.54152e-05
1.46711e-10
1.53797e-10
1.53192e-10
1.6093e-10
9.29134e-05
1.46605e-10
1.46607e-10
9.98017e-05
5.46216e-05
6.92347e-05
6.95844e-05
6.80301e-05
6.86303e-05
6.85415e-05
6.85275e-05
6.85478e-05
6.85437e-05
6.84969e-05
6.77428e-05
5.69105e-05
3.62297e-09
3.62266e-09
0.000231564
3.4306e-09
3.43089e-09
5.53665e-05
5.67868e-05
8.73694e-05
4.83416e-10
4.8341e-10
0.000227435
5.84675e-10
5.84685e-10
5.68958e-05
5.52875e-05
8.73942e-05
2.23598e-10
2.23596e-10
0.00019289
2.25972e-10
2.25975e-10
8.50402e-05
9.98574e-05
9.788e-05
0.000104455
0.00010494
1.26724e-10
1.26722e-10
6.41586e-05
1.27102e-10
1.27105e-10
8.82742e-05
0.000102685
0.000103649
0.000104228
9.81964e-05
0.000121775
1.54687e-10
1.54686e-10
0.000136103
1.52945e-10
1.52947e-10
0.000150236
0.000169772
0.000170148
0.000170155
0.000170129
0.000170227
0.000170251
0.000167692
0.000181548
0.000164085
1.38722e-10
1.3872e-10
0.000149152
1.57764e-10
1.57766e-10
0.000171805
1.80652e-10
1.8065e-10
0.000141582
1.57704e-10
1.57706e-10
8.74531e-05
0.000101972
0.000102549
0.000102777
0.000103838
9.52991e-05
0.000123913
1.66454e-10
1.66452e-10
0.000127661
1.63816e-10
1.73148e-10
1.44671e-10
1.51896e-10
7.08737e-05
1.3879e-10
1.38308e-10
2.20104e-09
2.08211e-09
0.000231065
2.54889e-09
2.54903e-09
0.000153591
4.7686e-05
2.45437e-09
2.45422e-09
0.000231782
2.57978e-09
2.57993e-09
8.69639e-05
0.000101241
1.91848e-10
1.91847e-10
0.000183496
2.03603e-10
2.03605e-10
8.347e-05
9.77619e-05
9.80818e-05
9.61918e-05
0.000111485
1.44681e-10
1.44679e-10
0.000122131
1.44922e-10
1.44924e-10
8.57596e-05
0.000100872
0.00010394
7.88725e-05
0.00014837
3.58937e-10
3.58933e-10
0.000216476
3.53865e-10
3.53869e-10
8.27473e-05
9.62571e-05
9.5038e-05
0.000110484
1.50595e-10
1.50593e-10
0.000125303
1.47302e-10
1.47303e-10
0.000205973
0.000219862
0.000219519
0.000219335
0.0002228
2.85846e-10
2.85844e-10
0.000210585
2.99347e-10
2.9935e-10
8.12377e-05
9.52418e-05
9.58812e-05
9.26734e-05
0.000110301
1.52382e-10
1.5238e-10
0.000126181
1.47947e-10
1.47949e-10
0.000215998
0.000226844
0.000227021
0.000228042
0.000229555
0.000231152
0.00023187
0.000231794
)
;

boundaryField
{
    inlet
    {
        type            cyclic;
    }
    outlet
    {
        type            cyclic;
    }
    top
    {
        type            calculated;
        value           uniform 0.000231873;
    }
    bottom
    {
        type            calculated;
        value           uniform 0.01;
    }
    frontAndBackPlanes
    {
        type            empty;
    }
}


// ************************************************************************* //
