/*--------------------------------*- C++ -*----------------------------------*\
| =========                 |                                                 |
| \\      /  F ield         | OpenFOAM: The Open Source CFD Toolbox           |
|  \\    /   O peration     | Version:  2206                                  |
|   \\  /    A nd           | Website:  www.openfoam.com                      |
|    \\/     M anipulation  |                                                 |
\*---------------------------------------------------------------------------*/
FoamFile
{
    version     2.0;
    format      ascii;
    arch        "LSB;label=32;scalar=64";
    class       volScalarField;
    location    "120";
    object      p_rbgh;
}
// * * * * * * * * * * * * * * * * * * * * * * * * * * * * * * * * * * * * * //

dimensions      [1 -1 -2 0 0 0 0];

internalField   nonuniform List<scalar> 
344
(
0.112869
0.119112
0.119084
0.118942
0.118743
0.118509
0.118246
0.117965
0.117678
0.117395
0.11713
0.116892
0.116694
0.116545
0.116456
0.116432
0.11648
0.116603
0.116804
0.117081
0.117436
0.117864
0.118363
0.118929
0.119554
0.12024
0.120974
0.121762
0.12259
0.123467
0.124375
0.125331
0.126312
0.127336
0.128381
0.129461
0.130557
0.131673
0.132794
0.133911
0.135017
0.136083
0.137113
0.138056
0.138929
0.139661
0.140283
0.140709
0.140984
0.141022
0.14088
0.140489
0.139919
0.139137
0.138222
0.137188
0.136124
0.135072
0.134128
0.133328
0.132748
0.132394
0.132273
0.132407
0.132645
0.13319
0.133642
0.134582
0.135361
0.136895
0.138561
0.140925
0.144143
0.146873
0.151183
0.15191
0.151357
0.15156
0.250467
-0.186335
0.123455
-0.0657211
0.0305445
-0.0174446
0.0147101
-0.0137377
0.0119754
-0.00968365
0.00744823
-0.00556056
0.00408713
-0.00298859
0.00218997
-0.00161523
0.00120104
-0.000899897
0.000678137
-0.000512812
0.000388287
-0.000293944
0.000222218
-0.000167733
0.000126357
-9.50705e-05
7.14174e-05
-5.3636e-05
4.02363e-05
-3.02082e-05
2.26538e-05
-1.70177e-05
1.27608e-05
-9.59404e-06
7.19012e-06
-5.40945e-06
4.04764e-06
-3.04565e-06
2.27125e-06
-1.70673e-06
1.26336e-06
-9.43262e-07
6.84995e-07
-4.98803e-07
3.4388e-07
-2.37642e-07
1.51676e-07
-9.81509e-08
5.6155e-08
-3.35501e-08
1.63809e-08
-9.09157e-09
3.59867e-09
-1.9204e-09
6.9775e-10
-2.51191e-10
2.40299e-10
8.04714e-11
2.43943e-10
1.88673e-10
1.72813e-10
1.38736e-10
1.17244e-10
9.30867e-11
7.31185e-11
5.55149e-11
4.19939e-11
2.98133e-11
1.95957e-11
1.11843e-11
4.35931e-12
-7.04166e-13
-4.47267e-12
-6.99748e-12
-8.73683e-12
-8.90888e-12
-8.07352e-12
-6.26548e-12
-4.25532e-12
-1.45437e-12
1.36504e-12
4.17264e-12
6.36187e-12
8.85712e-12
1.11962e-11
1.33736e-11
1.49573e-11
1.61963e-11
1.69013e-11
1.71854e-11
1.72693e-11
1.67656e-11
1.60212e-11
1.51616e-11
1.43089e-11
1.339e-11
1.24808e-11
1.1586e-11
1.07634e-11
9.90127e-12
9.04563e-12
8.19607e-12
7.40127e-12
6.6237e-12
5.90234e-12
5.23616e-12
4.6475e-12
4.06947e-12
3.5164e-12
2.9868e-12
2.49905e-12
2.0386e-12
1.61942e-12
1.24143e-12
9.14465e-13
6.24056e-13
3.76823e-13
1.72486e-13
1.49204e-14
-9.63461e-14
-1.62601e-13
-1.88966e-13
-2.70684e-13
-2.51783e-13
-2.28287e-13
-2.05304e-13
-1.8657e-13
-1.69303e-13
-1.54338e-13
-1.41773e-13
-1.31506e-13
-1.22686e-13
-1.15172e-13
-1.08952e-13
-1.03516e-13
-9.9235e-14
-9.5625e-14
-9.26755e-14
-8.99475e-14
-8.80173e-14
-8.65086e-14
-8.54164e-14
-8.44007e-14
-8.37208e-14
-8.30851e-14
-8.24899e-14
-8.16723e-14
-8.10712e-14
-8.0472e-14
-7.9877e-14
-7.90888e-14
-7.83152e-14
-7.73706e-14
-7.64396e-14
-7.82108e-14
-7.71822e-14
-7.60671e-14
-7.50516e-14
-7.40162e-14
-7.30935e-14
-7.22024e-14
-7.13447e-14
-7.04424e-14
-6.96404e-14
-6.88657e-14
-6.81183e-14
-6.73622e-14
-6.66313e-14
-6.58908e-14
-6.51412e-14
-6.43281e-14
-6.35868e-14
-6.28629e-14
-6.21569e-14
-6.14336e-14
-6.07275e-14
-6.00017e-14
-5.92563e-14
-5.84168e-14
-5.76361e-14
-5.68326e-14
-5.60088e-14
-5.50752e-14
-5.41779e-14
-5.31751e-14
-5.2242e-14
-5.39561e-14
-5.30237e-14
-5.20221e-14
-5.11269e-14
-5.01965e-14
-4.93765e-14
-4.85783e-14
-4.78042e-14
-4.69732e-14
-4.62371e-14
-4.55221e-14
-4.48283e-14
-4.41201e-14
-4.3431e-14
-4.27272e-14
-4.20092e-14
-4.12236e-14
-4.05052e-14
-3.98005e-14
-3.91102e-14
-3.84003e-14
-3.77046e-14
-3.69871e-14
-3.62482e-14
-3.54144e-14
-3.46365e-14
-3.3834e-14
-3.30091e-14
-3.2074e-14
-3.11729e-14
-3.01658e-14
-2.92287e-14
-3.09638e-14
-3.00362e-14
-2.90477e-14
-2.81741e-14
-2.72744e-14
-2.6494e-14
-2.57434e-14
-2.50251e-14
-2.42582e-14
-2.35929e-14
-2.29558e-14
-2.23473e-14
-2.1733e-14
-2.11423e-14
-2.05476e-14
-1.99495e-14
-1.93155e-14
-1.87235e-14
-1.81444e-14
-1.75788e-14
-1.70115e-14
-1.64545e-14
-1.58976e-14
-1.53409e-14
-1.47751e-14
-1.42184e-14
-1.36615e-14
-1.31045e-14
-1.25373e-14
-1.19717e-14
-1.13926e-14
-1.08007e-14
-1.0167e-14
-9.56906e-15
-8.97471e-15
-8.3844e-15
-7.77039e-15
-7.16226e-15
-6.52531e-15
-5.85991e-15
-5.09247e-15
-4.37368e-15
-3.62148e-15
-2.83845e-15
-1.93383e-15
-1.0517e-15
-5.27075e-17
8.83515e-16
)
;

boundaryField
{
    inlet
    {
        type            cyclic;
    }
    outlet
    {
        type            cyclic;
    }
    top
    {
        type            fixedValue;
        value           uniform 0;
    }
    bottom
    {
        type            fixedFluxPressure;
        gradient        uniform 0;
        value           uniform 0.112869;
    }
    frontAndBackPlanes
    {
        type            empty;
    }
}


// ************************************************************************* //
