/*--------------------------------*- C++ -*----------------------------------*\
| =========                 |                                                 |
| \\      /  F ield         | OpenFOAM: The Open Source CFD Toolbox           |
|  \\    /   O peration     | Version:  2206                                  |
|   \\  /    A nd           | Website:  www.openfoam.com                      |
|    \\/     M anipulation  |                                                 |
\*---------------------------------------------------------------------------*/
FoamFile
{
    version     2.0;
    format      ascii;
    arch        "LSB;label=32;scalar=64";
    class       surfaceScalarField;
    location    "120";
    object      phi.a;
}
// * * * * * * * * * * * * * * * * * * * * * * * * * * * * * * * * * * * * * //

dimensions      [0 3 -1 0 0 0 0];

oriented        oriented;

internalField   nonuniform List<scalar> 
343
(
-2.49793e-16
-4.94961e-16
-7.22847e-16
-9.29289e-16
-1.0998e-15
-1.23313e-15
-1.31677e-15
-1.35107e-15
-1.3295e-15
-1.25184e-15
-1.12085e-15
-9.33558e-16
-7.03737e-16
-4.24284e-16
-1.18939e-16
2.23344e-16
5.73231e-16
9.43306e-16
1.30596e-15
1.66989e-15
2.01893e-15
2.35013e-15
2.66948e-15
2.9528e-15
3.23788e-15
3.46996e-15
3.72491e-15
3.9118e-15
4.14505e-15
4.29811e-15
4.51595e-15
4.64515e-15
4.84471e-15
4.95341e-15
5.11858e-15
5.19934e-15
5.2984e-15
5.33088e-15
5.31821e-15
5.27014e-15
5.09135e-15
4.92193e-15
4.52292e-15
4.18911e-15
3.52985e-15
2.99851e-15
2.07448e-15
1.34223e-15
2.11138e-16
-6.67528e-16
-1.86154e-15
-2.74758e-15
-3.7748e-15
-4.43755e-15
-5.02687e-15
-5.19507e-15
-5.14272e-15
-4.64102e-15
-3.94339e-15
-2.87555e-15
-1.76612e-15
-6.14167e-16
6.36487e-16
1.19689e-15
2.67599e-15
2.3162e-15
4.65071e-15
4.01594e-15
7.67527e-15
8.52133e-15
1.20512e-14
1.63907e-14
1.43038e-14
2.19051e-14
4.29783e-15
-6.20376e-15
-3.19465e-14
-8.38726e-13
-2.10365e-09
-4.31217e-09
-4.14156e-09
-4.74161e-09
-5.3367e-09
-5.34003e-09
-5.34951e-09
-5.35958e-09
-5.37096e-09
-5.37221e-09
-5.37318e-09
-5.37318e-09
-5.37318e-09
-5.37318e-09
-5.37318e-09
-5.37318e-09
-5.37318e-09
-5.37318e-09
-5.37318e-09
-5.37318e-09
-5.37318e-09
-5.37318e-09
-5.37257e-09
-5.36556e-09
-5.29476e-09
-4.886e-09
-4.54162e-09
-4.54162e-09
-4.83796e-09
-5.13428e-09
-5.13428e-09
-5.13428e-09
-5.13428e-09
-5.13428e-09
-5.13428e-09
-5.13428e-09
-5.13428e-09
-5.13428e-09
-5.13428e-09
-5.13428e-09
-5.13428e-09
-5.13428e-09
-5.13428e-09
-5.13428e-09
-5.13428e-09
-5.13428e-09
-5.13428e-09
-4.83048e-09
-4.52667e-09
-4.52667e-09
-4.8314e-09
-5.12394e-09
-4.86087e-09
-4.60997e-09
-4.60997e-09
-4.82929e-09
-5.0486e-09
-5.0486e-09
-4.95616e-09
-4.86372e-09
-4.86372e-09
-4.9997e-09
-5.1268e-09
-4.88784e-09
-4.65776e-09
-4.65776e-09
-4.89672e-09
-5.13568e-09
-5.13568e-09
-5.13568e-09
-5.09466e-09
-5.05363e-09
-5.05363e-09
-5.09532e-09
-5.137e-09
-5.137e-09
-5.137e-09
-5.137e-09
-5.137e-09
-5.137e-09
-4.76102e-09
-4.38505e-09
-4.38505e-09
-4.72853e-09
-5.07201e-09
-5.07201e-09
-5.07201e-09
-4.78157e-09
-4.49112e-09
-4.49112e-09
-4.81244e-09
-5.1188e-09
-4.81122e-09
-4.51859e-09
-4.51859e-09
-4.84014e-09
-5.16169e-09
-5.16169e-09
-5.16169e-09
-5.1617e-09
-5.1617e-09
-5.1617e-09
-5.1617e-09
-5.1617e-09
-5.1617e-09
-5.1617e-09
-5.1617e-09
-5.1617e-09
-5.1617e-09
-5.1617e-09
-5.15101e-09
-5.14031e-09
-5.14031e-09
-5.1517e-09
-5.16308e-09
-5.16308e-09
-5.16308e-09
-5.16308e-09
-5.06784e-09
-4.97259e-09
-4.97259e-09
-5.0508e-09
-5.12901e-09
-5.12901e-09
-5.129e-09
-5.129e-09
-4.91932e-09
-4.70964e-09
-4.70964e-09
-4.91708e-09
-5.12452e-09
-5.12452e-09
-5.12452e-09
-5.12452e-09
-5.12452e-09
-5.12452e-09
-4.75199e-09
-4.37945e-09
-4.37945e-09
-4.75087e-09
-5.12227e-09
-5.12227e-09
-5.12227e-09
-5.12227e-09
-5.12227e-09
-5.12227e-09
-5.12227e-09
-4.81769e-09
-4.51311e-09
-4.51311e-09
-4.8212e-09
-5.12928e-09
-5.12928e-09
-5.12928e-09
-5.12928e-09
-5.12928e-09
-5.12928e-09
-5.12928e-09
-5.12928e-09
-5.12928e-09
-5.12928e-09
-5.12928e-09
-4.78926e-09
-4.44923e-09
-4.44923e-09
-4.74781e-09
-5.04638e-09
-5.04638e-09
-4.78606e-09
-4.52573e-09
-4.52573e-09
-4.82442e-09
-5.12311e-09
-5.12311e-09
-5.1231e-09
-5.1231e-09
-5.1231e-09
-5.1231e-09
-5.1231e-09
-5.1231e-09
-4.84029e-09
-4.55748e-09
-4.55748e-09
-4.8449e-09
-5.11664e-09
-4.79074e-09
-4.4805e-09
-4.4805e-09
-4.82036e-09
-5.1614e-09
-5.14257e-09
-5.12253e-09
-5.12253e-09
-5.1385e-09
-5.15447e-09
-5.15447e-09
-5.15447e-09
-5.13781e-09
-5.12113e-09
-5.12113e-09
-5.13689e-09
-5.15265e-09
-5.15265e-09
-5.15265e-09
-4.90772e-09
-4.66278e-09
-4.66278e-09
-4.89338e-09
-5.12398e-09
-5.12398e-09
-5.12398e-09
-5.12398e-09
-5.12398e-09
-5.12398e-09
-4.7981e-09
-4.47222e-09
-4.47222e-09
-4.79755e-09
-5.12288e-09
-5.12288e-09
-5.12288e-09
-5.12288e-09
-5.12288e-09
-5.12288e-09
-4.99349e-09
-4.8641e-09
-4.8641e-09
-4.99539e-09
-5.12667e-09
-5.12667e-09
-5.12667e-09
-5.12667e-09
-5.12667e-09
-4.81373e-09
-4.50078e-09
-4.50078e-09
-4.8208e-09
-5.14081e-09
-5.14081e-09
-5.14081e-09
-5.14081e-09
-5.14081e-09
-5.14081e-09
-4.97751e-09
-4.81421e-09
-4.81421e-09
-4.97e-09
-5.12578e-09
-5.12578e-09
-5.12578e-09
-5.12578e-09
-5.12578e-09
-5.12578e-09
-4.81654e-09
-4.5073e-09
-4.5073e-09
-4.82591e-09
-5.14451e-09
-5.14451e-09
-5.14451e-09
-5.14451e-09
-5.14451e-09
-5.14451e-09
-5.14451e-09
-5.14451e-09
)
;

boundaryField
{
    inlet
    {
        type            cyclic;
        value           nonuniform List<scalar> 
344
(
1.01084e-23
2.17108e-23
3.33592e-23
4.50599e-23
5.7038e-23
6.10657e-23
6.5362e-23
6.97131e-23
7.41118e-23
7.11381e-23
6.82534e-23
6.54557e-23
6.27262e-23
6.00684e-23
5.74859e-23
5.49825e-23
5.25613e-23
5.02249e-23
4.7976e-23
4.58172e-23
4.37514e-23
4.17814e-23
3.99097e-23
3.81389e-23
3.64708e-23
3.49073e-23
3.34495e-23
3.20985e-23
3.08551e-23
2.97195e-23
2.86921e-23
2.77728e-23
2.69612e-23
2.6257e-23
2.56594e-23
2.51676e-23
2.47808e-23
2.44974e-23
2.43166e-23
2.4237e-23
2.42571e-23
2.43756e-23
2.45912e-23
2.49028e-23
2.53096e-23
2.58124e-23
2.64141e-23
2.71198e-23
2.79354e-23
2.8862e-23
2.98722e-23
3.08486e-23
2.92209e-23
2.75555e-23
2.59667e-23
2.44781e-23
2.30853e-23
2.17785e-23
2.05493e-23
1.93916e-23
1.83017e-23
1.72768e-23
1.63153e-23
1.54153e-23
1.45758e-23
1.37955e-23
1.30734e-23
1.24086e-23
1.18005e-23
1.1248e-23
1.07508e-23
1.03079e-23
9.91894e-24
9.58356e-24
9.30144e-24
9.07238e-24
8.89614e-24
8.77078e-24
8.77494e-24
7.97775e-24
8.13829e-24
7.38491e-24
1.32923e-24
-5.09142e-24
-1.04608e-23
-7.5374e-24
-2.67981e-24
-1.41256e-24
-3.83375e-25
-3.82374e-25
-3.81819e-25
-3.81505e-25
-3.81299e-25
-3.81137e-25
-3.81013e-25
-3.80917e-25
-3.80846e-25
-3.80801e-25
-3.8078e-25
-3.80784e-25
-3.80841e-25
-4.15903e-25
-5.57174e-25
-7.40533e-25
-1.02924e-27
-1.01607e-27
-1.02045e-27
6.02228e-26
6.02242e-26
6.0225e-26
6.02259e-26
6.02267e-26
6.02274e-26
6.02281e-26
6.02286e-26
6.02289e-26
6.02292e-26
6.02292e-26
6.02292e-26
6.02291e-26
6.02288e-26
6.02285e-26
6.02281e-26
6.02279e-26
6.02275e-26
6.02209e-26
-2.96265e-24
-2.96267e-24
-2.96266e-24
-8.8677e-25
-2.18694e-25
-1.33678e-26
-1.33674e-26
-1.33673e-26
-2.70002e-27
-2.70001e-27
-2.7e-27
-1.46128e-27
-1.46128e-27
-1.46127e-27
1.70097e-27
5.98368e-27
1.51647e-26
1.51651e-26
1.51849e-26
6.94583e-24
6.94586e-24
6.94587e-24
6.94607e-24
1.54987e-23
4.01023e-24
-7.47823e-24
2.6937e-24
2.77319e-24
-1.64795e-24
-5.72751e-24
-5.2939e-24
-5.19681e-24
-5.19293e-24
-2.06059e-24
-2.06059e-24
-2.06058e-24
-2.99771e-25
-2.99769e-25
-2.99767e-25
-2.99763e-25
-7.83699e-27
-7.83604e-27
-7.83578e-27
4.31285e-26
1.39464e-25
3.50826e-25
3.50829e-25
3.50932e-25
2.53936e-23
1.40109e-23
9.67803e-24
9.51523e-24
9.38034e-24
5.79301e-24
2.00788e-24
-1.4804e-24
-4.9172e-24
-8.77901e-24
-1.23961e-23
-1.62055e-23
-1.98788e-23
-2.31597e-23
-3.45571e-23
-2.38171e-23
-2.38168e-23
-2.38167e-23
-2.27206e-23
-2.265e-23
-2.67191e-23
-2.98756e-23
-2.98302e-23
5.49854e-24
-5.98867e-24
-1.74757e-23
-1.85461e-24
-1.81558e-24
-6.48258e-24
-1.01096e-23
-1.00826e-23
-1.88231e-24
-1.8823e-24
-1.88226e-24
7.03224e-24
6.86542e-24
3.13543e-24
-2.64281e-25
-4.12731e-24
-7.58488e-24
-7.49431e-24
-1.87875e-24
-1.8799e-24
-1.88101e-24
5.92611e-24
5.91207e-24
5.7182e-24
2.93864e-24
7.98062e-26
-3.77706e-24
-7.15514e-24
-7.27982e-24
-3.40436e-25
-3.40407e-25
-3.4035e-25
1.46096e-23
1.44387e-23
1.05236e-23
6.58528e-24
3.24405e-24
-2.60866e-25
-7.22738e-25
-5.91795e-25
-4.26347e-24
-7.5146e-24
-1.06415e-23
-2.20322e-23
-8.17141e-25
-8.17105e-25
-8.17089e-25
4.08228e-24
4.0823e-24
4.08231e-24
1.31251e-23
1.63654e-24
-9.85198e-24
7.74568e-24
7.74946e-24
7.82767e-24
7.81672e-24
4.19241e-24
5.72117e-25
-2.79102e-24
-5.73289e-24
-5.65665e-24
-6.59525e-26
-6.59377e-26
-6.59225e-26
-2.90022e-25
-9.15617e-25
-2.58496e-25
-2.58496e-25
-2.58479e-25
2.99684e-24
4.22921e-24
5.32216e-24
5.32219e-24
5.32224e-24
8.13825e-24
-3.26994e-24
-9.20967e-24
-8.96556e-24
-1.25258e-23
-1.25259e-23
-1.25259e-23
-1.30456e-23
-1.30457e-23
-1.30456e-23
-1.30455e-23
-4.5083e-26
-4.50563e-26
-4.50556e-26
-6.7861e-27
-6.78595e-27
-6.78589e-27
-6.78584e-27
-6.7858e-27
-6.78577e-27
-6.78572e-27
-4.12357e-30
-4.10771e-30
-4.10738e-30
-4.86357e-34
-4.7243e-34
-4.6709e-34
-4.63366e-34
-4.60501e-34
-4.59014e-34
-4.58966e-34
-2.1975e-37
-2.18254e-37
-2.18224e-37
-1.04042e-40
-1.02311e-40
-1.01689e-40
-1.0129e-40
-1.01081e-40
-1.01018e-40
3.93051e-41
3.9272e-41
3.92777e-41
-4.28219e-41
-4.28155e-41
-4.28556e-41
-4.29307e-41
-4.30296e-41
-4.31363e-41
-4.333e-41
-6.38315e-39
-6.38297e-39
-6.38316e-39
3.26447e-38
3.26464e-38
3.26467e-38
3.26464e-38
3.26458e-38
3.26449e-38
3.26427e-38
-1.08012e-39
-1.07864e-39
-1.08191e-39
-4.50578e-37
-4.50578e-37
-4.50578e-37
-4.50578e-37
-4.50578e-37
-4.50579e-37
-4.50579e-37
-4.50579e-37
-4.50579e-37
)
;
    }
    outlet
    {
        type            cyclic;
        value           nonuniform List<scalar> 
344
(
-1.01084e-23
-2.17108e-23
-3.33592e-23
-4.50599e-23
-5.7038e-23
-6.10657e-23
-6.5362e-23
-6.97131e-23
-7.41118e-23
-7.11381e-23
-6.82534e-23
-6.54557e-23
-6.27262e-23
-6.00684e-23
-5.74859e-23
-5.49825e-23
-5.25613e-23
-5.02249e-23
-4.7976e-23
-4.58172e-23
-4.37514e-23
-4.17814e-23
-3.99097e-23
-3.81389e-23
-3.64708e-23
-3.49073e-23
-3.34495e-23
-3.20985e-23
-3.08551e-23
-2.97195e-23
-2.86921e-23
-2.77728e-23
-2.69612e-23
-2.6257e-23
-2.56594e-23
-2.51676e-23
-2.47808e-23
-2.44974e-23
-2.43166e-23
-2.4237e-23
-2.42571e-23
-2.43756e-23
-2.45912e-23
-2.49028e-23
-2.53096e-23
-2.58124e-23
-2.64141e-23
-2.71198e-23
-2.79354e-23
-2.8862e-23
-2.98722e-23
-3.08486e-23
-2.92209e-23
-2.75555e-23
-2.59667e-23
-2.44781e-23
-2.30853e-23
-2.17785e-23
-2.05493e-23
-1.93916e-23
-1.83017e-23
-1.72768e-23
-1.63153e-23
-1.54153e-23
-1.45758e-23
-1.37955e-23
-1.30734e-23
-1.24086e-23
-1.18005e-23
-1.1248e-23
-1.07508e-23
-1.03079e-23
-9.91894e-24
-9.58356e-24
-9.30144e-24
-9.07238e-24
-8.89614e-24
-8.77078e-24
-8.77494e-24
-7.97775e-24
-8.13829e-24
-7.38491e-24
-1.32923e-24
5.09142e-24
1.04608e-23
7.5374e-24
2.67981e-24
1.41256e-24
3.83375e-25
3.82374e-25
3.81819e-25
3.81505e-25
3.81299e-25
3.81137e-25
3.81013e-25
3.80917e-25
3.80846e-25
3.80801e-25
3.8078e-25
3.80784e-25
3.80841e-25
4.15903e-25
5.57174e-25
7.40533e-25
1.02924e-27
1.01607e-27
1.02045e-27
-6.02228e-26
-6.02242e-26
-6.0225e-26
-6.02259e-26
-6.02267e-26
-6.02274e-26
-6.02281e-26
-6.02286e-26
-6.02289e-26
-6.02292e-26
-6.02292e-26
-6.02292e-26
-6.02291e-26
-6.02288e-26
-6.02285e-26
-6.02281e-26
-6.02279e-26
-6.02275e-26
-6.02209e-26
2.96265e-24
2.96267e-24
2.96266e-24
8.8677e-25
2.18694e-25
1.33678e-26
1.33674e-26
1.33673e-26
2.70002e-27
2.70001e-27
2.7e-27
1.46128e-27
1.46128e-27
1.46127e-27
-1.70097e-27
-5.98368e-27
-1.51647e-26
-1.51651e-26
-1.51849e-26
-6.94583e-24
-6.94586e-24
-6.94587e-24
-6.94607e-24
-1.54987e-23
-4.01023e-24
7.47823e-24
-2.6937e-24
-2.77319e-24
1.64795e-24
5.72751e-24
5.2939e-24
5.19681e-24
5.19293e-24
2.06059e-24
2.06059e-24
2.06058e-24
2.99771e-25
2.99769e-25
2.99767e-25
2.99763e-25
7.83699e-27
7.83604e-27
7.83578e-27
-4.31285e-26
-1.39464e-25
-3.50826e-25
-3.50829e-25
-3.50932e-25
-2.53936e-23
-1.40109e-23
-9.67803e-24
-9.51523e-24
-9.38034e-24
-5.79301e-24
-2.00788e-24
1.4804e-24
4.9172e-24
8.77901e-24
1.23961e-23
1.62055e-23
1.98788e-23
2.31597e-23
3.45571e-23
2.38171e-23
2.38168e-23
2.38167e-23
2.27206e-23
2.265e-23
2.67191e-23
2.98756e-23
2.98302e-23
-5.49854e-24
5.98867e-24
1.74757e-23
1.85461e-24
1.81558e-24
6.48258e-24
1.01096e-23
1.00826e-23
1.88231e-24
1.8823e-24
1.88226e-24
-7.03224e-24
-6.86542e-24
-3.13543e-24
2.64281e-25
4.12731e-24
7.58488e-24
7.49431e-24
1.87875e-24
1.8799e-24
1.88101e-24
-5.92611e-24
-5.91207e-24
-5.7182e-24
-2.93864e-24
-7.98062e-26
3.77706e-24
7.15514e-24
7.27982e-24
3.40436e-25
3.40407e-25
3.4035e-25
-1.46096e-23
-1.44387e-23
-1.05236e-23
-6.58528e-24
-3.24405e-24
2.60866e-25
7.22738e-25
5.91795e-25
4.26347e-24
7.5146e-24
1.06415e-23
2.20322e-23
8.17141e-25
8.17105e-25
8.17089e-25
-4.08228e-24
-4.0823e-24
-4.08231e-24
-1.31251e-23
-1.63654e-24
9.85198e-24
-7.74568e-24
-7.74946e-24
-7.82767e-24
-7.81672e-24
-4.19241e-24
-5.72117e-25
2.79102e-24
5.73289e-24
5.65665e-24
6.59525e-26
6.59377e-26
6.59225e-26
2.90022e-25
9.15617e-25
2.58496e-25
2.58496e-25
2.58479e-25
-2.99684e-24
-4.22921e-24
-5.32216e-24
-5.32219e-24
-5.32224e-24
-8.13825e-24
3.26994e-24
9.20967e-24
8.96556e-24
1.25258e-23
1.25259e-23
1.25259e-23
1.30456e-23
1.30457e-23
1.30456e-23
1.30455e-23
4.5083e-26
4.50563e-26
4.50556e-26
6.7861e-27
6.78595e-27
6.78589e-27
6.78584e-27
6.7858e-27
6.78577e-27
6.78572e-27
4.12357e-30
4.10771e-30
4.10738e-30
4.86357e-34
4.7243e-34
4.6709e-34
4.63366e-34
4.60501e-34
4.59014e-34
4.58966e-34
2.1975e-37
2.18254e-37
2.18224e-37
1.04042e-40
1.02311e-40
1.01689e-40
1.0129e-40
1.01081e-40
1.01018e-40
-3.93051e-41
-3.9272e-41
-3.92777e-41
4.28219e-41
4.28155e-41
4.28556e-41
4.29307e-41
4.30296e-41
4.31363e-41
4.333e-41
6.38315e-39
6.38297e-39
6.38316e-39
-3.26447e-38
-3.26464e-38
-3.26467e-38
-3.26464e-38
-3.26458e-38
-3.26449e-38
-3.26427e-38
1.08012e-39
1.07864e-39
1.08191e-39
4.50578e-37
4.50578e-37
4.50578e-37
4.50578e-37
4.50578e-37
4.50579e-37
4.50579e-37
4.50579e-37
4.50579e-37
)
;
    }
    top
    {
        type            calculated;
        value           uniform -5.14451e-09;
    }
    bottom
    {
        type            fixedValue;
        value           uniform 0;
    }
    frontAndBackPlanes
    {
        type            empty;
        value           nonuniform List<scalar> 0();
    }
}


// ************************************************************************* //
