/*--------------------------------*- C++ -*----------------------------------*\
| =========                 |                                                 |
| \\      /  F ield         | OpenFOAM: The Open Source CFD Toolbox           |
|  \\    /   O peration     | Version:  2206                                  |
|   \\  /    A nd           | Website:  www.openfoam.com                      |
|    \\/     M anipulation  |                                                 |
\*---------------------------------------------------------------------------*/
FoamFile
{
    version     2.0;
    format      ascii;
    arch        "LSB;label=32;scalar=64";
    class       surfaceScalarField;
    location    "120";
    object      phi.b;
}
// * * * * * * * * * * * * * * * * * * * * * * * * * * * * * * * * * * * * * //

dimensions      [0 3 -1 0 0 0 0];

oriented        oriented;

internalField   nonuniform List<scalar> 
343
(
3.53593e-16
7.00482e-16
1.02278e-15
1.31457e-15
1.55548e-15
1.74368e-15
1.86157e-15
1.90966e-15
1.87893e-15
1.76895e-15
1.58376e-15
1.3191e-15
9.94659e-16
6.00287e-16
1.6962e-16
-3.1298e-16
-8.05871e-16
-1.32702e-15
-1.83741e-15
-2.34941e-15
-2.84005e-15
-3.30539e-15
-3.75373e-15
-4.15119e-15
-4.55067e-15
-4.87544e-15
-5.2321e-15
-5.49298e-15
-5.81868e-15
-6.03164e-15
-6.33527e-15
-6.51439e-15
-6.79189e-15
-6.94184e-15
-7.17072e-15
-7.2812e-15
-7.4171e-15
-7.45968e-15
-7.43896e-15
-7.36835e-15
-7.11563e-15
-6.87579e-15
-6.31547e-15
-5.8466e-15
-4.92411e-15
-4.18081e-15
-2.89097e-15
-1.86955e-15
-2.93998e-16
9.28617e-16
2.58827e-15
3.81795e-15
5.24207e-15
6.15845e-15
6.97158e-15
7.19981e-15
7.12199e-15
6.42229e-15
5.45248e-15
3.97266e-15
2.43775e-15
8.46913e-16
-8.76896e-16
-1.64722e-15
-3.67862e-15
-3.18024e-15
-6.37726e-15
-5.49922e-15
-1.04938e-14
-1.16313e-14
-1.64181e-14
-2.22836e-14
-1.93977e-14
-2.96227e-14
-5.79065e-15
8.32154e-15
4.2525e-14
5.20831e-13
2.29735e-10
7.41689e-13
2.50316e-17
5.52777e-19
1.66639e-19
1.8443e-19
2.22396e-19
2.33698e-19
2.4747e-19
2.37118e-19
2.9199e-19
3.17138e-19
3.45125e-19
3.32053e-19
3.5478e-19
3.35263e-19
3.18119e-19
2.65914e-19
2.67219e-19
2.40152e-19
2.14994e-19
1.65341e-19
1.30874e-19
8.40203e-20
3.76965e-20
3.26321e-20
-5.37365e-20
-8.87689e-20
-1.23947e-19
-1.45387e-19
-1.80423e-19
-1.9863e-19
-2.18021e-19
-2.20272e-19
-2.54938e-19
-2.69859e-19
-2.86144e-19
-2.79261e-19
-2.92579e-19
-2.82631e-19
-2.74495e-19
-2.48457e-19
-2.66725e-19
-2.68075e-19
-2.71171e-19
-2.53544e-19
-2.53298e-19
-2.33887e-19
-2.15505e-19
-1.82186e-19
-1.70839e-19
-1.48223e-19
-1.26366e-19
-9.61671e-20
-6.95115e-20
-4.12464e-20
-1.36478e-20
-6.15913e-20
1.98365e-20
2.31749e-20
2.60229e-20
2.36843e-20
2.55072e-20
2.4558e-20
2.37297e-20
2.12979e-20
2.22196e-20
2.17673e-20
2.14098e-20
1.99951e-20
1.94553e-20
1.80321e-20
1.66818e-20
1.47872e-20
1.4585e-20
1.39801e-20
1.34376e-20
1.23982e-20
1.17684e-20
1.07293e-20
9.71161e-21
8.39642e-21
7.50913e-21
6.41157e-21
5.32835e-21
4.12251e-21
2.92208e-21
1.77117e-21
6.48e-22
2.61504e-21
-5.64464e-22
-6.1865e-22
-6.47684e-22
-5.27196e-22
-5.21798e-22
-4.63966e-22
-4.07299e-22
-3.36538e-22
-3.145e-22
-2.8253e-22
-2.51067e-22
-2.24427e-22
-1.9403e-22
-1.69665e-22
-1.45193e-22
-1.2771e-22
-1.07346e-22
-9.37982e-23
-8.0133e-23
-7.24668e-23
-6.00292e-23
-5.30604e-23
-4.5803e-23
-4.2903e-23
-3.34039e-23
-2.72256e-23
-2.08252e-23
-1.72602e-23
-1.16144e-23
-7.83274e-24
-4.096e-24
-8.33492e-24
-1.05942e-24
-1.09995e-24
-1.23143e-24
-1.44935e-24
-1.61916e-24
-1.68335e-24
-1.75878e-24
-1.70163e-24
-1.80381e-24
-1.81393e-24
-1.83277e-24
-1.73173e-24
-1.72048e-24
-1.62052e-24
-1.52563e-24
-1.38048e-24
-1.33425e-24
-1.26134e-24
-1.1918e-24
-1.0989e-24
-1.01931e-24
-9.31863e-25
-8.43616e-25
-7.65957e-25
-6.40444e-25
-5.46574e-25
-4.49966e-25
-4.10252e-25
-2.91512e-25
-2.70759e-25
-2.29986e-25
-6.81252e-26
-1.34748e-25
-8.09516e-26
-7.06385e-27
-3.39002e-26
2.24637e-26
1.57366e-26
1.24787e-26
-3.30858e-26
-4.8719e-27
-4.14849e-27
-1.38429e-27
-1.55851e-26
-1.45425e-26
-2.70588e-26
-3.80131e-26
-6.29013e-26
-3.95883e-26
-3.03949e-26
-1.96281e-26
-2.2894e-26
-1.04465e-26
-1.57079e-26
-1.8921e-26
-4.94132e-26
-8.48625e-27
-9.78916e-27
-7.63349e-27
-6.59175e-26
-4.86818e-26
-1.22107e-25
-1.73206e-25
1.46947e-25
-1.7294e-25
-1.21623e-25
-4.7977e-26
-6.51302e-26
-6.59603e-27
-8.74578e-27
-7.41552e-27
-4.86305e-26
-1.77669e-26
-1.46173e-26
-9.38952e-27
-2.24474e-26
-1.92378e-26
-3.07686e-26
-4.06832e-26
-6.55192e-26
-4.09234e-26
-3.12472e-26
-1.99551e-26
-2.33942e-26
-1.05845e-26
-1.60375e-26
-1.9419e-26
-5.04143e-26
-9.68805e-27
-1.13705e-26
-9.58465e-27
-6.81323e-26
-5.16643e-26
-1.25128e-25
-1.76174e-25
1.58634e-25
-1.71114e-25
-1.15352e-25
-3.71497e-26
-4.97065e-26
1.35793e-26
1.53364e-26
2.063e-26
-1.7285e-26
1.75086e-26
2.38261e-26
3.22643e-26
2.19791e-26
2.68334e-26
1.88912e-26
1.20127e-26
-5.04999e-27
7.38744e-27
1.12299e-26
1.59726e-26
1.46166e-26
1.80265e-26
1.78642e-26
1.79168e-26
1.47726e-26
1.81275e-26
1.83134e-26
1.87123e-26
1.56121e-26
1.71997e-26
1.28066e-26
9.30937e-27
-2.64123e-27
1.47958e-26
2.22412e-26
3.07444e-26
2.66552e-26
3.75997e-26
2.99362e-26
2.44194e-26
-9.6799e-27
3.00889e-26
2.60335e-26
2.55903e-26
-3.77681e-26
-2.31155e-26
-1.01689e-25
-1.57421e-25
)
;

boundaryField
{
    inlet
    {
        type            cyclic;
        value           nonuniform List<scalar> 
344
(
1.00689e-23
2.17014e-23
3.33589e-23
4.50596e-23
5.70029e-23
6.10654e-23
6.5362e-23
6.97128e-23
7.41115e-23
7.11389e-23
6.82534e-23
6.54557e-23
6.27266e-23
6.00683e-23
5.74857e-23
5.49825e-23
5.25613e-23
5.02249e-23
4.7976e-23
4.58172e-23
4.37514e-23
4.17822e-23
3.99097e-23
3.81388e-23
3.64708e-23
3.49072e-23
3.34495e-23
3.20985e-23
3.0855e-23
2.97195e-23
2.86921e-23
2.77727e-23
2.69612e-23
2.62569e-23
2.56593e-23
2.51675e-23
2.47823e-23
2.44974e-23
2.43166e-23
2.4237e-23
2.42571e-23
2.43755e-23
2.45911e-23
2.49042e-23
2.53102e-23
2.58124e-23
2.64141e-23
2.71197e-23
2.79353e-23
2.8862e-23
2.98723e-23
3.0832e-23
2.92209e-23
2.7556e-23
2.59666e-23
2.44781e-23
2.30853e-23
2.17785e-23
2.05493e-23
1.93916e-23
1.83021e-23
1.72768e-23
1.63153e-23
1.54154e-23
1.45758e-23
1.37954e-23
1.30734e-23
1.24085e-23
1.18007e-23
1.1248e-23
1.07515e-23
1.03084e-23
9.91893e-24
9.58355e-24
9.30143e-24
9.07249e-24
8.89614e-24
8.77422e-24
8.9191e-24
7.94456e-24
5.54344e-24
3.95601e-24
6.29498e-24
2.09802e-24
-2.44826e-24
-1.57474e-23
-1.61512e-23
-1.65012e-23
-1.68557e-23
-2.28708e-23
-2.05798e-23
-1.83557e-23
-1.38877e-23
-9.51788e-24
-7.84462e-24
-6.28109e-24
-4.8119e-24
-4.54433e-24
-4.37328e-24
-3.66249e-24
-3.03582e-24
-2.48877e-24
-2.0133e-24
-1.60169e-24
-1.24685e-24
-9.42089e-25
-6.8103e-25
-4.57499e-25
-2.65659e-25
-1.7213e-25
-1.00572e-25
-4.71526e-26
-8.47878e-27
1.84761e-26
3.63228e-26
4.72476e-26
5.30435e-26
5.51602e-26
5.47581e-26
4.85996e-26
4.45857e-26
4.00791e-26
3.54517e-26
3.09585e-26
2.67644e-26
2.29668e-26
1.9615e-26
1.63838e-26
1.36011e-26
1.12377e-26
9.11701e-27
7.33751e-27
5.88993e-27
4.69954e-27
3.72874e-27
2.94298e-27
2.31134e-27
1.80683e-27
1.40622e-27
1.08988e-27
8.41363e-28
6.47078e-28
4.95885e-28
3.78724e-28
2.88295e-28
2.18765e-28
1.65494e-28
1.24815e-28
9.38535e-29
7.036e-29
5.25871e-29
3.91814e-29
2.91013e-29
2.15408e-29
1.58889e-29
1.16804e-29
8.55371e-30
6.23972e-30
4.53478e-30
3.2811e-30
2.36266e-30
1.69428e-30
1.21024e-30
8.59145e-31
6.07505e-31
4.27505e-31
2.99452e-31
2.08843e-31
1.45081e-31
1.00462e-31
6.94283e-32
4.78363e-32
3.30021e-32
2.35238e-32
1.63786e-32
1.18943e-32
8.55635e-33
6.60885e-33
5.35199e-33
4.34435e-33
3.93827e-33
3.52129e-33
3.0602e-33
2.9905e-33
2.68027e-33
2.65963e-33
2.51927e-33
2.27783e-33
2.24055e-33
2.09535e-33
1.86352e-33
1.84887e-33
1.55513e-33
1.40072e-33
1.25055e-33
1.11181e-33
9.60115e-34
8.84274e-34
7.65973e-34
6.67927e-34
5.93151e-34
5.07566e-34
4.32331e-34
3.64977e-34
3.09512e-34
2.57308e-34
2.14524e-34
1.79182e-34
1.45853e-34
1.18878e-34
9.58519e-35
7.67218e-35
6.09696e-35
4.79557e-35
3.67747e-35
2.87653e-35
2.17093e-35
1.5185e-35
1.1224e-35
8.23028e-36
5.01853e-36
3.52013e-36
1.56298e-36
4.95522e-37
3.47693e-37
-4.28621e-37
-8.88024e-37
-1.1053e-36
-1.00521e-36
-9.64887e-37
-7.49796e-37
-1.13023e-36
-2.60098e-37
-6.65938e-37
-2.90159e-37
-1.56717e-37
-3.80779e-38
-1.27374e-37
1.74793e-37
8.24826e-38
3.64705e-37
2.83159e-37
5.42179e-37
6.28072e-37
7.15426e-37
8.04105e-37
7.32682e-37
1.12618e-36
1.36651e-36
9.90815e-37
1.08031e-36
1.31095e-36
1.39126e-36
1.4753e-36
1.4049e-36
1.64055e-36
1.39021e-36
1.79178e-36
1.69341e-36
1.5932e-36
1.96643e-36
1.98217e-36
1.75574e-36
2.04636e-36
2.20712e-36
2.0757e-36
1.49929e-36
2.00685e-36
1.96284e-36
1.58861e-36
2.0313e-36
1.64591e-36
1.74277e-36
1.51581e-36
1.43709e-36
1.35175e-36
1.11008e-36
1.30921e-36
1.21178e-36
9.65851e-37
1.0239e-36
9.27014e-37
1.13702e-36
4.65972e-37
6.87967e-37
6.08909e-37
5.38042e-37
4.73304e-37
4.14234e-37
3.60675e-37
3.124e-37
2.69162e-37
2.30707e-37
1.96762e-37
1.6703e-37
1.41195e-37
1.18931e-37
9.99066e-38
8.37939e-38
7.02764e-38
5.90516e-38
4.98329e-38
4.23508e-38
3.63511e-38
3.15936e-38
2.78488e-38
2.48945e-38
2.25114e-38
2.04795e-38
1.85738e-38
1.65608e-38
1.41958e-38
1.12212e-38
7.36624e-39
2.34935e-39
-4.11809e-39
-1.23251e-38
-2.2553e-38
-3.50685e-38
-5.01226e-38
-6.79673e-38
-8.88973e-38
-1.13291e-37
-1.41597e-37
-1.74687e-37
-2.1584e-37
7.98925e-39
-2.99273e-37
-3.41046e-37
-3.89845e-37
-4.41814e-37
-4.95431e-37
-5.49496e-37
-6.02752e-37
-6.53873e-37
-7.01412e-37
-7.43778e-37
-7.7932e-37
-8.06553e-37
-8.24598e-37
-8.34358e-37
-8.45475e-37
-9.0452e-37
-1.2351e-36
)
;
    }
    outlet
    {
        type            cyclic;
        value           nonuniform List<scalar> 
344
(
-1.00689e-23
-2.17014e-23
-3.33589e-23
-4.50596e-23
-5.70029e-23
-6.10654e-23
-6.5362e-23
-6.97128e-23
-7.41115e-23
-7.11389e-23
-6.82534e-23
-6.54557e-23
-6.27266e-23
-6.00683e-23
-5.74857e-23
-5.49825e-23
-5.25613e-23
-5.02249e-23
-4.7976e-23
-4.58172e-23
-4.37514e-23
-4.17822e-23
-3.99097e-23
-3.81388e-23
-3.64708e-23
-3.49072e-23
-3.34495e-23
-3.20985e-23
-3.0855e-23
-2.97195e-23
-2.86921e-23
-2.77727e-23
-2.69612e-23
-2.62569e-23
-2.56593e-23
-2.51675e-23
-2.47823e-23
-2.44974e-23
-2.43166e-23
-2.4237e-23
-2.42571e-23
-2.43755e-23
-2.45911e-23
-2.49042e-23
-2.53102e-23
-2.58124e-23
-2.64141e-23
-2.71197e-23
-2.79353e-23
-2.8862e-23
-2.98723e-23
-3.0832e-23
-2.92209e-23
-2.7556e-23
-2.59666e-23
-2.44781e-23
-2.30853e-23
-2.17785e-23
-2.05493e-23
-1.93916e-23
-1.83021e-23
-1.72768e-23
-1.63153e-23
-1.54154e-23
-1.45758e-23
-1.37954e-23
-1.30734e-23
-1.24085e-23
-1.18007e-23
-1.1248e-23
-1.07515e-23
-1.03084e-23
-9.91893e-24
-9.58355e-24
-9.30143e-24
-9.07249e-24
-8.89614e-24
-8.77422e-24
-8.9191e-24
-7.94456e-24
-5.54344e-24
-3.95601e-24
-6.29498e-24
-2.09802e-24
2.44826e-24
1.57474e-23
1.61512e-23
1.65012e-23
1.68557e-23
2.28708e-23
2.05798e-23
1.83557e-23
1.38877e-23
9.51788e-24
7.84462e-24
6.28109e-24
4.8119e-24
4.54433e-24
4.37328e-24
3.66249e-24
3.03582e-24
2.48877e-24
2.0133e-24
1.60169e-24
1.24685e-24
9.42089e-25
6.8103e-25
4.57499e-25
2.65659e-25
1.7213e-25
1.00572e-25
4.71526e-26
8.47878e-27
-1.84761e-26
-3.63228e-26
-4.72476e-26
-5.30435e-26
-5.51602e-26
-5.47581e-26
-4.85996e-26
-4.45857e-26
-4.00791e-26
-3.54517e-26
-3.09585e-26
-2.67644e-26
-2.29668e-26
-1.9615e-26
-1.63838e-26
-1.36011e-26
-1.12377e-26
-9.11701e-27
-7.33751e-27
-5.88993e-27
-4.69954e-27
-3.72874e-27
-2.94298e-27
-2.31134e-27
-1.80683e-27
-1.40622e-27
-1.08988e-27
-8.41363e-28
-6.47078e-28
-4.95885e-28
-3.78724e-28
-2.88295e-28
-2.18765e-28
-1.65494e-28
-1.24815e-28
-9.38535e-29
-7.036e-29
-5.25871e-29
-3.91814e-29
-2.91013e-29
-2.15408e-29
-1.58889e-29
-1.16804e-29
-8.55371e-30
-6.23972e-30
-4.53478e-30
-3.2811e-30
-2.36266e-30
-1.69428e-30
-1.21024e-30
-8.59145e-31
-6.07505e-31
-4.27505e-31
-2.99452e-31
-2.08843e-31
-1.45081e-31
-1.00462e-31
-6.94283e-32
-4.78363e-32
-3.30021e-32
-2.35238e-32
-1.63786e-32
-1.18943e-32
-8.55635e-33
-6.60885e-33
-5.35199e-33
-4.34435e-33
-3.93827e-33
-3.52129e-33
-3.0602e-33
-2.9905e-33
-2.68027e-33
-2.65963e-33
-2.51927e-33
-2.27783e-33
-2.24055e-33
-2.09535e-33
-1.86352e-33
-1.84887e-33
-1.55513e-33
-1.40072e-33
-1.25055e-33
-1.11181e-33
-9.60115e-34
-8.84274e-34
-7.65973e-34
-6.67927e-34
-5.93151e-34
-5.07566e-34
-4.32331e-34
-3.64977e-34
-3.09512e-34
-2.57308e-34
-2.14524e-34
-1.79182e-34
-1.45853e-34
-1.18878e-34
-9.58519e-35
-7.67218e-35
-6.09696e-35
-4.79557e-35
-3.67747e-35
-2.87653e-35
-2.17093e-35
-1.5185e-35
-1.1224e-35
-8.23028e-36
-5.01853e-36
-3.52013e-36
-1.56298e-36
-4.95522e-37
-3.47693e-37
4.28621e-37
8.88024e-37
1.1053e-36
1.00521e-36
9.64887e-37
7.49796e-37
1.13023e-36
2.60098e-37
6.65938e-37
2.90159e-37
1.56717e-37
3.80779e-38
1.27374e-37
-1.74793e-37
-8.24826e-38
-3.64705e-37
-2.83159e-37
-5.42179e-37
-6.28072e-37
-7.15426e-37
-8.04105e-37
-7.32682e-37
-1.12618e-36
-1.36651e-36
-9.90815e-37
-1.08031e-36
-1.31095e-36
-1.39126e-36
-1.4753e-36
-1.4049e-36
-1.64055e-36
-1.39021e-36
-1.79178e-36
-1.69341e-36
-1.5932e-36
-1.96643e-36
-1.98217e-36
-1.75574e-36
-2.04636e-36
-2.20712e-36
-2.0757e-36
-1.49929e-36
-2.00685e-36
-1.96284e-36
-1.58861e-36
-2.0313e-36
-1.64591e-36
-1.74277e-36
-1.51581e-36
-1.43709e-36
-1.35175e-36
-1.11008e-36
-1.30921e-36
-1.21178e-36
-9.65851e-37
-1.0239e-36
-9.27014e-37
-1.13702e-36
-4.65972e-37
-6.87967e-37
-6.08909e-37
-5.38042e-37
-4.73304e-37
-4.14234e-37
-3.60675e-37
-3.124e-37
-2.69162e-37
-2.30707e-37
-1.96762e-37
-1.6703e-37
-1.41195e-37
-1.18931e-37
-9.99066e-38
-8.37939e-38
-7.02764e-38
-5.90516e-38
-4.98329e-38
-4.23508e-38
-3.63511e-38
-3.15936e-38
-2.78488e-38
-2.48945e-38
-2.25114e-38
-2.04795e-38
-1.85738e-38
-1.65608e-38
-1.41958e-38
-1.12212e-38
-7.36624e-39
-2.34935e-39
4.11809e-39
1.23251e-38
2.2553e-38
3.50685e-38
5.01226e-38
6.79673e-38
8.88973e-38
1.13291e-37
1.41597e-37
1.74687e-37
2.1584e-37
-7.98925e-39
2.99273e-37
3.41046e-37
3.89845e-37
4.41814e-37
4.95431e-37
5.49496e-37
6.02752e-37
6.53873e-37
7.01412e-37
7.43778e-37
7.7932e-37
8.06553e-37
8.24598e-37
8.34358e-37
8.45475e-37
9.0452e-37
1.2351e-36
)
;
    }
    top
    {
        type            calculated;
        value           uniform 1.5713e-25;
    }
    bottom
    {
        type            fixedValue;
        value           uniform 0;
    }
    frontAndBackPlanes
    {
        type            empty;
        value           nonuniform List<scalar> 0();
    }
}


// ************************************************************************* //
