/*--------------------------------*- C++ -*----------------------------------*\
| =========                 |                                                 |
| \\      /  F ield         | OpenFOAM: The Open Source CFD Toolbox           |
|  \\    /   O peration     | Version:  2206                                  |
|   \\  /    A nd           | Website:  www.openfoam.com                      |
|    \\/     M anipulation  |                                                 |
\*---------------------------------------------------------------------------*/
FoamFile
{
    version     2.0;
    format      ascii;
    arch        "LSB;label=32;scalar=64";
    class       volVectorField;
    location    "120";
    object      U.a;
}
// * * * * * * * * * * * * * * * * * * * * * * * * * * * * * * * * * * * * * //

dimensions      [0 1 -1 0 0 0 0];

internalField   nonuniform List<vector> 
344
(
(-2.24631e-17 1.05658e-05 0)
(-4.82462e-17 -1.06692e-07 0)
(-7.41316e-17 9.3871e-08 0)
(-1.00133e-16 -1.05074e-07 0)
(-1.26751e-16 9.07133e-08 0)
(-1.35702e-16 -1.07692e-07 0)
(-1.45249e-16 8.86513e-08 0)
(-1.54918e-16 -1.08982e-07 0)
(-1.64693e-16 8.81194e-08 0)
(-1.58085e-16 -1.08648e-07 0)
(-1.51674e-16 8.93172e-08 0)
(-1.45457e-16 -1.06626e-07 0)
(-1.39392e-16 9.22094e-08 0)
(-1.33485e-16 -1.0308e-07 0)
(-1.27746e-16 9.6526e-08 0)
(-1.22183e-16 -9.83688e-08 0)
(-1.16803e-16 1.01814e-07 0)
(-1.11611e-16 -9.29713e-08 0)
(-1.06613e-16 1.07531e-07 0)
(-1.01816e-16 -8.73766e-08 0)
(-9.72253e-17 1.13151e-07 0)
(-9.28476e-17 -8.19903e-08 0)
(-8.86883e-17 1.18263e-07 0)
(-8.47531e-17 -7.70588e-08 0)
(-8.10463e-17 1.2263e-07 0)
(-7.75717e-17 -7.26503e-08 0)
(-7.43322e-17 1.26197e-07 0)
(-7.13301e-17 -6.86997e-08 0)
(-6.85668e-17 1.2906e-07 0)
(-6.60434e-17 -6.50764e-08 0)
(-6.37603e-17 1.31393e-07 0)
(-6.17173e-17 -6.16844e-08 0)
(-5.99138e-17 1.33353e-07 0)
(-5.83488e-17 -5.85711e-08 0)
(-5.70208e-17 1.34997e-07 0)
(-5.5928e-17 -5.59902e-08 0)
(-5.50684e-17 1.36216e-07 0)
(-5.44387e-17 -5.44381e-08 0)
(-5.4037e-17 1.36705e-07 0)
(-5.386e-17 -5.46266e-08 0)
(-5.39047e-17 1.35972e-07 0)
(-5.4168e-17 -5.74025e-08 0)
(-5.4647e-17 1.33394e-07 0)
(-5.53396e-17 -6.3607e-08 0)
(-5.62436e-17 1.2831e-07 0)
(-5.7361e-17 -7.38598e-08 0)
(-5.8698e-17 1.20206e-07 0)
(-6.02661e-17 -8.82276e-08 0)
(-6.20787e-17 1.09021e-07 0)
(-6.41378e-17 -1.05809e-07 0)
(-6.63827e-17 9.55782e-08 0)
(-6.85523e-17 -1.24362e-07 0)
(-6.49353e-17 8.20032e-08 0)
(-6.12344e-17 -1.40322e-07 0)
(-5.77037e-17 7.18427e-08 0)
(-5.43958e-17 -1.49493e-07 0)
(-5.13006e-17 6.92891e-08 0)
(-4.83967e-17 -1.48735e-07 0)
(-4.56651e-17 7.70741e-08 0)
(-4.30925e-17 -1.38005e-07 0)
(-4.06704e-17 9.36124e-08 0)
(-3.83929e-17 -1.20895e-07 0)
(-3.62561e-17 1.11405e-07 0)
(-3.42563e-17 -1.01486e-07 0)
(-3.23906e-17 1.19826e-07 0)
(-3.06566e-17 -7.82203e-08 0)
(-2.90519e-17 1.13526e-07 0)
(-2.75748e-17 -4.1204e-08 0)
(-2.62233e-17 1.02396e-07 0)
(-2.49957e-17 1.66463e-08 0)
(-2.38906e-17 1.14217e-07 0)
(-2.29064e-17 7.17901e-08 0)
(-2.20421e-17 1.8197e-07 0)
(-2.12968e-17 3.71928e-08 0)
(-2.06699e-17 3.05063e-07 0)
(-2.01608e-17 -2.41431e-07 0)
(-1.97692e-17 1.45336e-07 0)
(-1.94906e-17 -7.28778e-07 0)
(-1.94999e-17 7.10099e-06 0)
(-1.77283e-17 -0.0278693 0)
(-1.80851e-17 -0.0321542 0)
(-1.64109e-17 -0.0316176 0)
(-2.95384e-18 -0.041433 0)
(1.13143e-17 -0.0411143 0)
(2.32462e-17 -0.0412895 0)
(1.67498e-17 -0.0412653 0)
(5.95514e-18 -0.0414431 0)
(3.13902e-18 -0.0414445 0)
(8.51944e-19 -0.0414597 0)
(8.49719e-19 -0.0414597 0)
(8.48488e-19 -0.0414597 0)
(8.47789e-19 -0.0414597 0)
(8.47331e-19 -0.0414597 0)
(8.46972e-19 -0.0414597 0)
(8.46695e-19 -0.0414597 0)
(8.46481e-19 -0.0414597 0)
(8.46325e-19 -0.0414597 0)
(8.46224e-19 -0.0414597 0)
(8.46177e-19 -0.0414597 0)
(8.46188e-19 -0.0414597 0)
(8.46313e-19 -0.0414597 0)
(9.24229e-19 -0.0414503 0)
(1.23816e-18 -0.0413516 0)
(1.64563e-18 -0.0403572 0)
(2.2872e-21 -0.0350434 0)
(2.25793e-21 -0.0350433 0)
(2.26766e-21 -0.0350434 0)
(-1.33829e-19 -0.0396164 0)
(-1.33832e-19 -0.0396164 0)
(-1.33833e-19 -0.0396164 0)
(-1.33835e-19 -0.0396164 0)
(-1.33837e-19 -0.0396164 0)
(-1.33839e-19 -0.0396164 0)
(-1.3384e-19 -0.0396164 0)
(-1.33841e-19 -0.0396164 0)
(-1.33842e-19 -0.0396164 0)
(-1.33843e-19 -0.0396164 0)
(-1.33843e-19 -0.0396164 0)
(-1.33843e-19 -0.0396164 0)
(-1.33842e-19 -0.0396164 0)
(-1.33842e-19 -0.0396164 0)
(-1.33841e-19 -0.0396164 0)
(-1.3384e-19 -0.0396164 0)
(-1.3384e-19 -0.0396164 0)
(-1.33839e-19 -0.0396164 0)
(-1.33824e-19 -0.0396164 0)
(6.58368e-18 -0.0349281 0)
(6.58372e-18 -0.034928 0)
(6.58368e-18 -0.0349281 0)
(1.9706e-18 -0.0396305 0)
(4.85987e-19 -0.0394426 0)
(2.97061e-20 -0.0355708 0)
(2.97053e-20 -0.0355708 0)
(2.97052e-20 -0.0355708 0)
(6.00004e-21 -0.0389552 0)
(6.00003e-21 -0.0389552 0)
(5.99999e-21 -0.0389552 0)
(3.2473e-21 -0.0375288 0)
(3.2473e-21 -0.0375287 0)
(3.24726e-21 -0.0375288 0)
(-3.77993e-21 -0.0396272 0)
(-1.32971e-20 -0.0394901 0)
(-3.36993e-20 -0.0359395 0)
(-3.37003e-20 -0.0359395 0)
(-3.37441e-20 -0.0359395 0)
(-1.54352e-17 -0.0396271 0)
(-1.54352e-17 -0.0396271 0)
(-1.54353e-17 -0.0396271 0)
(-1.54357e-17 -0.0396271 0)
(-3.44415e-17 -0.0389941 0)
(-8.91162e-18 -0.0389941 0)
(1.66183e-17 -0.0389941 0)
(-5.98599e-18 -0.0396373 0)
(-6.16264e-18 -0.0396373 0)
(3.66211e-18 -0.0396373 0)
(1.27278e-17 -0.0396373 0)
(1.17642e-17 -0.0396373 0)
(1.15485e-17 -0.0396373 0)
(1.15399e-17 -0.0396373 0)
(4.5791e-18 -0.0338353 0)
(4.5791e-18 -0.0338352 0)
(4.57907e-18 -0.0338353 0)
(6.66157e-19 -0.0391359 0)
(6.66153e-19 -0.0391359 0)
(6.6615e-19 -0.0391359 0)
(6.6614e-19 -0.0391359 0)
(1.74155e-20 -0.0346537 0)
(1.74134e-20 -0.0346537 0)
(1.74128e-20 -0.0346537 0)
(-9.58411e-20 -0.0396123 0)
(-3.0992e-19 -0.0393816 0)
(-7.79613e-19 -0.0348657 0)
(-7.7962e-19 -0.0348656 0)
(-7.79848e-19 -0.0348657 0)
(-5.64303e-17 -0.0398279 0)
(-3.11354e-17 -0.0398279 0)
(-2.15067e-17 -0.0398279 0)
(-2.1145e-17 -0.0398279 0)
(-2.08452e-17 -0.0398279 0)
(-1.28734e-17 -0.0398279 0)
(-4.46195e-18 -0.0398279 0)
(3.28978e-18 -0.0398279 0)
(1.09271e-17 -0.0398279 0)
(1.95089e-17 -0.0398279 0)
(2.75469e-17 -0.0398279 0)
(3.60121e-17 -0.0398279 0)
(4.4175e-17 -0.0398279 0)
(5.1466e-17 -0.0398279 0)
(7.67936e-17 -0.0398279 0)
(5.29268e-17 -0.0396629 0)
(5.29262e-17 -0.0396629 0)
(5.2926e-17 -0.0396629 0)
(5.04903e-17 -0.0398386 0)
(5.03334e-17 -0.0398386 0)
(5.93758e-17 -0.0398386 0)
(6.63903e-17 -0.0398386 0)
(6.62894e-17 -0.0398386 0)
(-1.2219e-17 -0.0383687 0)
(1.33082e-17 -0.0383687 0)
(3.88348e-17 -0.0383687 0)
(4.12136e-18 -0.0395757 0)
(4.03461e-18 -0.0395757 0)
(1.44057e-17 -0.0395757 0)
(2.24658e-17 -0.0395757 0)
(2.24059e-17 -0.0395757 0)
(4.18292e-18 -0.0363398 0)
(4.18288e-18 -0.0363398 0)
(4.18279e-18 -0.0363398 0)
(-1.56272e-17 -0.0395411 0)
(-1.52565e-17 -0.0395411 0)
(-6.96762e-18 -0.0395411 0)
(5.87292e-19 -0.0395411 0)
(9.17181e-18 -0.0395411 0)
(1.68553e-17 -0.0395411 0)
(1.6654e-17 -0.0395411 0)
(4.17499e-18 -0.0337921 0)
(4.17755e-18 -0.033792 0)
(4.18003e-18 -0.0337921 0)
(-1.31691e-17 -0.0395237 0)
(-1.31379e-17 -0.0395237 0)
(-1.27071e-17 -0.0395237 0)
(-6.5303e-18 -0.0395237 0)
(-1.77347e-19 -0.0395237 0)
(8.39346e-18 -0.0395237 0)
(1.59003e-17 -0.0395237 0)
(1.61774e-17 -0.0395237 0)
(7.56524e-19 -0.0348234 0)
(7.5646e-19 -0.0348234 0)
(7.56333e-19 -0.0348234 0)
(-3.24658e-17 -0.0395778 0)
(-3.20859e-17 -0.0395778 0)
(-2.33858e-17 -0.0395778 0)
(-1.4634e-17 -0.0395778 0)
(-7.209e-18 -0.0395778 0)
(5.79703e-19 -0.0395778 0)
(1.60608e-18 -0.0395778 0)
(1.3151e-18 -0.0395778 0)
(9.47437e-18 -0.0395778 0)
(1.66991e-17 -0.0395778 0)
(2.36477e-17 -0.0395778 0)
(4.89605e-17 -0.0395778 0)
(1.81587e-18 -0.0343305 0)
(1.81579e-18 -0.0343305 0)
(1.81575e-18 -0.0343305 0)
(-9.07173e-18 -0.0389381 0)
(-9.07177e-18 -0.0389381 0)
(-9.0718e-18 -0.0389381 0)
(-2.91668e-17 -0.0349208 0)
(-3.63675e-18 -0.0349207 0)
(2.18933e-17 -0.0349208 0)
(-1.72126e-17 -0.0395301 0)
(-1.7221e-17 -0.0395301 0)
(-1.73948e-17 -0.0395301 0)
(-1.73705e-17 -0.0395301 0)
(-9.31647e-18 -0.0395301 0)
(-1.27137e-18 -0.0395301 0)
(6.20226e-18 -0.0395301 0)
(1.27397e-17 -0.0395301 0)
(1.25703e-17 -0.0395301 0)
(1.46561e-19 -0.0351657 0)
(1.46528e-19 -0.0351657 0)
(1.46494e-19 -0.0351657 0)
(6.44494e-19 -0.0396012 0)
(2.0347e-18 -0.0393594 0)
(5.74435e-19 -0.0345718 0)
(5.74435e-19 -0.0345717 0)
(5.74398e-19 -0.0345718 0)
(-6.65965e-18 -0.0398164 0)
(-9.39824e-18 -0.0398349 0)
(-1.1827e-17 -0.0395257 0)
(-1.18271e-17 -0.0395257 0)
(-1.18272e-17 -0.0395257 0)
(-1.8085e-17 -0.0397722 0)
(7.26654e-18 -0.0397722 0)
(2.04659e-17 -0.0397722 0)
(1.99235e-17 -0.0397722 0)
(2.78351e-17 -0.0395149 0)
(2.78353e-17 -0.0395149 0)
(2.78353e-17 -0.0395149 0)
(2.89902e-17 -0.0397581 0)
(2.89904e-17 -0.0397581 0)
(2.89903e-17 -0.0397581 0)
(2.899e-17 -0.0397581 0)
(1.00184e-19 -0.0359783 0)
(1.00125e-19 -0.0359782 0)
(1.00123e-19 -0.0359783 0)
(1.50802e-20 -0.0395369 0)
(1.50799e-20 -0.0395369 0)
(1.50798e-20 -0.0395369 0)
(1.50796e-20 -0.0395369 0)
(1.50796e-20 -0.0395369 0)
(1.50795e-20 -0.0395369 0)
(1.50794e-20 -0.0395369 0)
(9.16349e-24 -0.0345079 0)
(9.12825e-24 -0.0345079 0)
(9.12751e-24 -0.0345079 0)
(1.08079e-27 -0.0395284 0)
(1.04984e-27 -0.0395284 0)
(1.03798e-27 -0.0395284 0)
(1.0297e-27 -0.0395284 0)
(1.02334e-27 -0.0395284 0)
(1.02003e-27 -0.0395284 0)
(1.01992e-27 -0.0395284 0)
(4.88333e-31 -0.0375317 0)
(4.85009e-31 -0.0375317 0)
(4.84942e-31 -0.0375317 0)
(2.31205e-34 -0.0395577 0)
(2.27357e-34 -0.0395577 0)
(2.25977e-34 -0.0395577 0)
(2.25089e-34 -0.0395577 0)
(2.24625e-34 -0.0395577 0)
(2.24485e-34 -0.0395577 0)
(-8.73447e-35 -0.0347282 0)
(-8.72711e-35 -0.0347282 0)
(-8.72837e-35 -0.0347282 0)
(9.51597e-35 -0.0396668 0)
(9.51454e-35 -0.0396668 0)
(9.52347e-35 -0.0396668 0)
(9.54015e-35 -0.0396668 0)
(9.56212e-35 -0.0396668 0)
(9.58584e-35 -0.0396668 0)
(9.62888e-35 -0.0396668 0)
(1.41848e-32 -0.0371467 0)
(1.41844e-32 -0.0371466 0)
(1.41848e-32 -0.0371467 0)
(-7.25439e-32 -0.0395508 0)
(-7.25475e-32 -0.0395508 0)
(-7.25481e-32 -0.0395508 0)
(-7.25476e-32 -0.0395508 0)
(-7.25461e-32 -0.0395508 0)
(-7.25442e-32 -0.0395508 0)
(-7.25393e-32 -0.0395508 0)
(2.40026e-33 -0.0347786 0)
(2.39697e-33 -0.0347785 0)
(2.40425e-33 -0.0347786 0)
(1.00128e-30 -0.0396953 0)
(1.00128e-30 -0.0396953 0)
(1.00128e-30 -0.0396953 0)
(1.00129e-30 -0.0396953 0)
(1.00129e-30 -0.0396953 0)
(1.00129e-30 -0.0396953 0)
(1.00129e-30 -0.0396953 0)
(1.00129e-30 -0.0396953 0)
(1.00129e-30 -0.0396953 0)
)
;

boundaryField
{
    inlet
    {
        type            cyclic;
    }
    outlet
    {
        type            cyclic;
    }
    top
    {
        type            zeroGradient;
    }
    bottom
    {
        type            fixedValue;
        value           uniform (0 0 0);
    }
    frontAndBackPlanes
    {
        type            empty;
    }
}


// ************************************************************************* //
