/*--------------------------------*- C++ -*----------------------------------*\
| =========                 |                                                 |
| \\      /  F ield         | OpenFOAM: The Open Source CFD Toolbox           |
|  \\    /   O peration     | Version:  2206                                  |
|   \\  /    A nd           | Website:  www.openfoam.com                      |
|    \\/     M anipulation  |                                                 |
\*---------------------------------------------------------------------------*/
FoamFile
{
    version     2.0;
    format      ascii;
    arch        "LSB;label=32;scalar=64";
    class       volVectorField;
    location    "120";
    object      U.b;
}
// * * * * * * * * * * * * * * * * * * * * * * * * * * * * * * * * * * * * * //

dimensions      [0 1 -1 0 0 0 0];

internalField   nonuniform List<vector> 
344
(
(-2.23753e-17 1.01435e-05 0)
(-4.82254e-17 -3.33776e-07 0)
(-7.4131e-17 1.02199e-07 0)
(-1.00132e-16 -8.86729e-08 0)
(-1.26673e-16 1.08088e-07 0)
(-1.35701e-16 -8.43692e-08 0)
(-1.45249e-16 1.10847e-07 0)
(-1.54917e-16 -8.25427e-08 0)
(-1.64692e-16 1.11532e-07 0)
(-1.58087e-16 -8.3019e-08 0)
(-1.51674e-16 1.09862e-07 0)
(-1.45457e-16 -8.59089e-08 0)
(-1.39392e-16 1.05907e-07 0)
(-1.33485e-16 -9.0991e-08 0)
(-1.27746e-16 1.00043e-07 0)
(-1.22183e-16 -9.77531e-08 0)
(-1.16803e-16 9.28716e-08 0)
(-1.11611e-16 -1.05493e-07 0)
(-1.06613e-16 8.50912e-08 0)
(-1.01816e-16 -1.13468e-07 0)
(-9.72252e-17 7.73488e-08 0)
(-9.28492e-17 -1.21029e-07 0)
(-8.86882e-17 7.01223e-08 0)
(-8.4753e-17 -1.27736e-07 0)
(-8.10462e-17 6.36481e-08 0)
(-7.75716e-17 -1.33401e-07 0)
(-7.43321e-17 5.79382e-08 0)
(-7.133e-17 -1.38061e-07 0)
(-6.85667e-17 5.28504e-08 0)
(-6.60433e-17 -1.41905e-07 0)
(-6.37602e-17 4.82095e-08 0)
(-6.17172e-17 -1.45152e-07 0)
(-5.99137e-17 4.3951e-08 0)
(-5.83487e-17 -1.47918e-07 0)
(-5.70207e-17 4.02414e-08 0)
(-5.59279e-17 -1.50118e-07 0)
(-5.50717e-17 3.7549e-08 0)
(-5.44386e-17 -1.51406e-07 0)
(-5.40369e-17 3.66574e-08 0)
(-5.38599e-17 -1.51159e-07 0)
(-5.39046e-17 3.85977e-08 0)
(-5.41679e-17 -1.4855e-07 0)
(-5.46469e-17 4.44982e-08 0)
(-5.53426e-17 -1.4265e-07 0)
(-5.62449e-17 5.53639e-08 0)
(-5.73608e-17 -1.3265e-07 0)
(-5.86979e-17 7.17009e-08 0)
(-6.0266e-17 -1.18213e-07 0)
(-6.20785e-17 9.30168e-08 0)
(-6.41377e-17 -9.99965e-08 0)
(-6.63828e-17 1.17262e-07 0)
(-6.85156e-17 -8.02184e-08 0)
(-6.49353e-17 1.40543e-07 0)
(-6.12356e-17 -6.29716e-08 0)
(-5.77037e-17 1.57516e-07 0)
(-5.43958e-17 -5.36728e-08 0)
(-5.13006e-17 1.62985e-07 0)
(-4.83967e-17 -5.70228e-08 0)
(-4.56651e-17 1.54551e-07 0)
(-4.30924e-17 -7.36705e-08 0)
(-4.06714e-17 1.34728e-07 0)
(-3.83929e-17 -9.75008e-08 0)
(-3.62562e-17 1.09678e-07 0)
(-3.42563e-17 -1.16983e-07 0)
(-3.23906e-17 8.30783e-08 0)
(-3.06565e-17 -1.22936e-07 0)
(-2.90519e-17 4.9147e-08 0)
(-2.75744e-17 -1.19799e-07 0)
(-2.62237e-17 -4.32623e-09 0)
(-2.49956e-17 -1.30812e-07 0)
(-2.38922e-17 -7.33569e-08 0)
(-2.29076e-17 -1.86754e-07 0)
(-2.20421e-17 -9.90665e-08 0)
(-2.12968e-17 -2.90874e-07 0)
(-2.06698e-17 6.08256e-08 0)
(-2.01611e-17 -2.51454e-07 0)
(-1.97692e-17 2.90783e-07 0)
(-1.94983e-17 -4.13405e-06 0)
(-1.98202e-17 0.000526446 0)
(-1.76546e-17 0.0106772 0)
(-1.23188e-17 -0.00677536 0)
(-8.79114e-18 0.00430929 0)
(-1.39888e-17 -0.00295834 0)
(-4.66226e-18 0.00225284 0)
(5.44058e-18 -0.00181034 0)
(3.49943e-17 0.00144952 0)
(3.58916e-17 -0.00113031 0)
(3.66694e-17 0.000859416 0)
(3.74571e-17 -0.000642698 0)
(5.08241e-17 0.000476706 0)
(4.5733e-17 -0.000352897 0)
(4.07905e-17 0.000261792 0)
(3.08615e-17 -0.000195021 0)
(2.11509e-17 0.000145958 0)
(1.74325e-17 -0.000109681 0)
(1.3958e-17 8.26551e-05 0)
(1.06931e-17 -6.23829e-05 0)
(1.00985e-17 4.71001e-05 0)
(9.71839e-18 -3.55448e-05 0)
(8.13888e-18 2.67992e-05 0)
(6.74626e-18 -2.01827e-05 0)
(5.53059e-18 1.51834e-05 0)
(4.474e-18 -1.1412e-05 0)
(3.55932e-18 8.57163e-06 0)
(2.77077e-18 -6.43545e-06 0)
(2.09353e-18 4.83056e-06 0)
(1.5134e-18 -3.62566e-06 0)
(1.01666e-18 2.72138e-06 0)
(5.90353e-19 -2.04279e-06 0)
(3.82512e-19 1.53352e-06 0)
(2.23494e-19 -1.15127e-06 0)
(1.04784e-19 8.64313e-07 0)
(1.88417e-20 -6.48884e-07 0)
(-4.1058e-20 4.87154e-07 0)
(-8.07173e-20 -3.65779e-07 0)
(-1.04995e-19 2.74723e-07 0)
(-1.17874e-19 -2.06488e-07 0)
(-1.22578e-19 1.55416e-07 0)
(-1.21685e-19 -1.17301e-07 0)
(-1.07999e-19 8.89642e-08 0)
(-9.90794e-20 -6.80704e-08 0)
(-8.90647e-20 5.27519e-08 0)
(-7.87815e-20 -3.99906e-08 0)
(-6.87967e-20 2.9528e-08 0)
(-5.94764e-20 -2.11441e-08 0)
(-5.10373e-20 1.45847e-08 0)
(-4.35888e-20 -9.62657e-09 0)
(-3.64085e-20 6.01678e-09 0)
(-3.02247e-20 -3.53044e-09 0)
(-2.49727e-20 1.91997e-09 0)
(-2.026e-20 -9.66553e-10 0)
(-1.63056e-20 4.49085e-10 0)
(-1.30887e-20 -1.98344e-10 0)
(-1.04434e-20 8.32945e-11 0)
(-8.2861e-21 -3.50264e-11 0)
(-6.53995e-21 1.40569e-11 0)
(-5.13632e-21 -6.01851e-12 0)
(-4.01517e-21 2.54673e-12 0)
(-3.12494e-21 -8.10308e-13 0)
(-2.42195e-21 6.03048e-13 0)
(-1.8697e-21 2.08561e-14 0)
(-1.43795e-21 2.62076e-13 0)
(-1.10197e-21 1.56825e-13 0)
(-8.41609e-22 1.8646e-13 0)
(-6.40656e-22 1.63725e-13 0)
(-4.86144e-22 1.71512e-13 0)
(-3.67764e-22 1.65356e-13 0)
(-2.77367e-22 1.60229e-13 0)
(-2.08563e-22 1.52119e-13 0)
(-1.56356e-22 1.44552e-13 0)
(-1.1686e-22 1.3381e-13 0)
(-8.70697e-23 1.21762e-13 0)
(-6.46696e-23 1.13633e-13 0)
(-4.78685e-23 1.10241e-13 0)
(-3.53087e-23 1.05689e-13 0)
(-2.59565e-23 9.98007e-14 0)
(-1.90083e-23 9.3277e-14 0)
(-1.3866e-23 8.68401e-14 0)
(-1.00773e-23 7.88301e-14 0)
(-7.29133e-24 6.99379e-14 0)
(-5.25036e-24 6.13172e-14 0)
(-3.76507e-24 5.38065e-14 0)
(-2.68942e-24 4.51402e-14 0)
(-1.90921e-24 3.68166e-14 0)
(-1.35001e-24 2.66525e-14 0)
(-9.50011e-25 1.86472e-14 0)
(-6.65448e-25 9.75076e-15 0)
(-4.64096e-25 1.21903e-14 0)
(-3.22402e-25 7.46019e-15 0)
(-2.23249e-25 -4.1288e-15 0)
(-1.54285e-25 -4.4056e-15 0)
(-1.06303e-25 -5.04001e-15 0)
(-7.33381e-26 -3.78098e-15 0)
(-5.22751e-26 -3.94817e-15 0)
(-3.63968e-26 -3.30946e-15 0)
(-2.64319e-26 -2.89846e-15 0)
(-1.90141e-26 -2.48805e-15 0)
(-1.46863e-26 -2.32711e-15 0)
(-1.18933e-26 -2.06913e-15 0)
(-9.65411e-27 -1.84353e-15 0)
(-8.75171e-27 -1.61284e-15 0)
(-7.82508e-27 -1.42077e-15 0)
(-6.80044e-27 -1.22745e-15 0)
(-6.64555e-27 -1.03651e-15 0)
(-5.95616e-27 -8.86032e-16 0)
(-5.91029e-27 -7.8888e-16 0)
(-5.59837e-27 -6.80062e-16 0)
(-5.06184e-27 -5.91557e-16 0)
(-4.979e-27 -5.09637e-16 0)
(-4.65633e-27 -4.47583e-16 0)
(-4.14115e-27 -3.88568e-16 0)
(-4.1086e-27 -3.38758e-16 0)
(-3.45585e-27 -2.85726e-16 0)
(-3.11271e-27 -2.43126e-16 0)
(-2.77901e-27 -1.84532e-16 0)
(-2.4707e-27 -1.57118e-16 0)
(-2.13359e-27 -9.52437e-17 0)
(-1.96505e-27 -9.79155e-17 0)
(-1.70216e-27 1.71679e-17 0)
(-1.48428e-27 -8.3798e-17 0)
(-1.31811e-27 -6.98342e-17 0)
(-1.12792e-27 5.44179e-17 0)
(-9.60736e-28 -2.74261e-17 0)
(-8.1106e-28 3.60086e-18 0)
(-6.87804e-28 -1.97025e-17 0)
(-5.71795e-28 -8.69695e-18 0)
(-4.7672e-28 -1.42951e-17 0)
(-3.98182e-28 -1.33282e-17 0)
(-3.24118e-28 -1.46977e-17 0)
(-2.64172e-28 -1.33049e-17 0)
(-2.13004e-28 -1.42857e-17 0)
(-1.70493e-28 -1.3638e-17 0)
(-1.35488e-28 -1.34746e-17 0)
(-1.06568e-28 -1.28395e-17 0)
(-8.17216e-29 -1.21812e-17 0)
(-6.39228e-29 -1.13612e-17 0)
(-4.82429e-29 -1.06843e-17 0)
(-3.37444e-29 -1.00118e-17 0)
(-2.49423e-29 -9.55323e-18 0)
(-1.82895e-29 -8.84422e-18 0)
(-1.11523e-29 -8.21261e-18 0)
(-7.82252e-30 -7.57585e-18 0)
(-3.47329e-30 -6.91084e-18 0)
(-1.10116e-30 -6.18192e-18 0)
(-7.72651e-31 -5.41089e-18 0)
(9.52491e-31 -4.62373e-18 0)
(1.97339e-30 -3.88986e-18 0)
(2.45622e-30 -3.39868e-18 0)
(2.2338e-30 -2.57259e-18 0)
(2.14419e-30 -2.47533e-18 0)
(1.66621e-30 -2.79956e-19 0)
(2.51161e-30 -2.62988e-18 0)
(5.77995e-31 -2.25051e-18 0)
(1.47986e-30 8.24391e-19 0)
(6.44797e-31 -6.23483e-19 0)
(3.48261e-31 -2.53667e-20 0)
(8.46175e-32 -1.09247e-19 0)
(2.83053e-31 1.32973e-19 0)
(-3.8843e-31 8.99735e-20 0)
(-1.83295e-31 -8.59656e-20 0)
(-8.10456e-31 -1.35067e-19 0)
(-6.29242e-31 -5.43856e-20 0)
(-1.20484e-30 -3.15578e-20 0)
(-1.39571e-30 -6.98561e-20 0)
(-1.58984e-30 -1.15305e-19 0)
(-1.7869e-30 -1.7135e-19 0)
(-1.62818e-30 -2.63743e-19 0)
(-2.50262e-30 -3.76443e-19 0)
(-3.03668e-30 -3.83342e-19 0)
(-2.20181e-30 -2.825e-19 0)
(-2.40069e-30 -2.05288e-19 0)
(-2.91323e-30 -1.62686e-19 0)
(-3.09169e-30 -1.33046e-19 0)
(-3.27845e-30 -1.14062e-19 0)
(-3.12201e-30 -1.51587e-19 0)
(-3.64566e-30 -2.54794e-19 0)
(-3.08935e-30 -2.277e-19 0)
(-3.98172e-30 -9.96463e-20 0)
(-3.76314e-30 -5.93398e-20 0)
(-3.54045e-30 -4.04019e-19 0)
(-4.36984e-30 -1.99087e-19 0)
(-4.40482e-30 -1.19489e-18 0)
(-3.90164e-30 1.09106e-18 0)
(-4.54746e-30 -1.85515e-18 0)
(-4.90471e-30 -1.85426e-18 0)
(-4.61267e-30 1.09408e-18 0)
(-3.33176e-30 -1.19055e-18 0)
(-4.45966e-30 -1.931e-19 0)
(-4.36187e-30 -3.97104e-19 0)
(-3.53025e-30 -5.12453e-20 0)
(-4.51399e-30 -9.20735e-20 0)
(-3.65758e-30 -2.1993e-19 0)
(-3.87283e-30 -2.47102e-19 0)
(-3.36846e-30 -1.43238e-19 0)
(-3.19353e-30 -1.06451e-19 0)
(-3.00389e-30 -1.26812e-19 0)
(-2.46685e-30 -1.59602e-19 0)
(-2.90936e-30 -2.05551e-19 0)
(-2.69284e-30 -2.89602e-19 0)
(-2.14634e-30 -3.95988e-19 0)
(-2.27534e-30 -3.96917e-19 0)
(-2.06003e-30 -2.92376e-19 0)
(-2.5267e-30 -2.10167e-19 0)
(-1.03549e-30 -1.66025e-19 0)
(-1.52882e-30 -1.35074e-19 0)
(-1.35313e-30 -1.1655e-19 0)
(-1.19565e-30 -1.55059e-19 0)
(-1.05179e-30 -2.60423e-19 0)
(-9.2052e-31 -2.35606e-19 0)
(-8.015e-31 -1.10984e-19 0)
(-6.94223e-31 -7.27329e-20 0)
(-5.98138e-31 -4.20489e-19 0)
(-5.12682e-31 -2.18518e-19 0)
(-4.37248e-31 -1.21886e-18 0)
(-3.71177e-31 1.07203e-18 0)
(-3.13768e-31 -1.82398e-18 0)
(-2.64292e-31 -1.80443e-18 0)
(-2.22015e-31 1.12922e-18 0)
(-1.86209e-31 -1.12503e-18 0)
(-1.5617e-31 -9.15725e-20 0)
(-1.31226e-31 -2.59843e-19 0)
(-1.1074e-31 1.1967e-19 0)
(-9.41128e-32 1.09781e-19 0)
(-8.07802e-32 8.11695e-21 0)
(-7.0208e-32 9.44674e-21 0)
(-6.18863e-32 1.41909e-19 0)
(-5.53211e-32 2.04324e-19 0)
(-5.00253e-32 2.04334e-19 0)
(-4.551e-32 1.90935e-19 0)
(-4.12751e-32 1.65124e-19 0)
(-3.68018e-32 1.12068e-19 0)
(-3.15463e-32 3.22346e-20 0)
(-2.49359e-32 1.83897e-20 0)
(-1.63694e-32 6.45781e-20 0)
(-5.22078e-33 1.03101e-19 0)
(9.15131e-33 1.16487e-19 0)
(2.73891e-32 1.26657e-19 0)
(5.01178e-32 1.36252e-19 0)
(7.79299e-32 1.36369e-19 0)
(1.11383e-31 1.27793e-19 0)
(1.51038e-31 1.28611e-19 0)
(1.97549e-31 1.38918e-19 0)
(2.51757e-31 1.40625e-19 0)
(3.1466e-31 1.33161e-19 0)
(3.88193e-31 1.2504e-19 0)
(4.79644e-31 1.13922e-19 0)
(-1.77539e-32 7.79312e-20 0)
(6.65052e-31 3.52561e-20 0)
(7.57881e-31 5.23196e-20 0)
(8.66323e-31 1.35592e-19 0)
(9.81809e-31 1.92812e-19 0)
(1.10096e-30 2.24242e-19 0)
(1.2211e-30 2.42758e-19 0)
(1.33945e-30 2.48072e-19 0)
(1.45305e-30 1.915e-19 0)
(1.55869e-30 6.61536e-20 0)
(1.65284e-30 7.36613e-20 0)
(1.73182e-30 1.86353e-19 0)
(1.79234e-30 2.06007e-19 0)
(1.83244e-30 -1.69758e-19 0)
(1.85413e-30 1.15781e-20 0)
(1.87883e-30 -1.03289e-18 0)
(2.01004e-30 1.31492e-18 0)
(2.74466e-30 -1.78612e-18 0)
)
;

boundaryField
{
    inlet
    {
        type            cyclic;
    }
    outlet
    {
        type            cyclic;
    }
    top
    {
        type            zeroGradient;
    }
    bottom
    {
        type            fixedValue;
        value           uniform (0 0 0);
    }
    frontAndBackPlanes
    {
        type            empty;
    }
}


// ************************************************************************* //
