/*--------------------------------*- C++ -*----------------------------------*\
| =========                 |                                                 |
| \\      /  F ield         | OpenFOAM: The Open Source CFD Toolbox           |
|  \\    /   O peration     | Version:  2206                                  |
|   \\  /    A nd           | Website:  www.openfoam.com                      |
|    \\/     M anipulation  |                                                 |
\*---------------------------------------------------------------------------*/
FoamFile
{
    version     2.0;
    format      ascii;
    arch        "LSB;label=32;scalar=64";
    class       volScalarField;
    location    "2";
    object      alpha.b;
}
// * * * * * * * * * * * * * * * * * * * * * * * * * * * * * * * * * * * * * //

dimensions      [0 0 0 0 0 0 0];

internalField   nonuniform List<scalar> 
13078
(
0.4863068
0.4376026
0.4195729
0.4189842
0.4194871
0.4202042
0.4210494
0.4332654
0.4197306
0.4183507
0.4188158
0.4194466
0.4201767
0.4210264
0.4177178
0.4175877
0.4180773
0.4187028
0.4193794
0.4201326
0.4209927
0.4166224
0.4173254
0.4179659
0.4186133
0.4193143
0.4200855
0.4209552
0.4165329
0.4172481
0.417896
0.4185595
0.4192606
0.420041
0.4209181
0.4165718
0.4172364
0.4178639
0.4185247
0.4192312
0.4200042
0.4208833
0.416614
0.4172449
0.417851
0.4185038
0.4192106
0.419986
0.4208537
0.4166446
0.4172586
0.4178471
0.4184935
0.4191989
0.4199732
0.4208413
0.4166665
0.4172715
0.4178504
0.4184909
0.4191927
0.4199651
0.4208322
0.4166822
0.4172823
0.4178553
0.4184909
0.4191898
0.4199599
0.4208258
0.4166939
0.417291
0.4178601
0.4184923
0.4191886
0.4199567
0.4208211
0.4167033
0.4172979
0.4178646
0.4184943
0.4191884
0.4199546
0.4208175
0.4167107
0.4173036
0.4178685
0.4184963
0.4191888
0.4199533
0.4208147
0.416717
0.4173084
0.417872
0.4184982
0.419189
0.4199523
0.4208122
0.4167224
0.4173126
0.4178748
0.418496
0.4191841
0.4199507
0.42081
0.4167273
0.4173163
0.4178772
0.418493
0.4191806
0.4199496
0.4208078
0.416732
0.4173199
0.4178798
0.418494
0.4191806
0.4199486
0.4208056
0.4167365
0.4173232
0.4178823
0.4184952
0.4191807
0.4199476
0.4208033
0.4167411
0.4173266
0.4178846
0.4184963
0.4191805
0.419946
0.420801
0.4167458
0.41733
0.4178869
0.418497
0.4191746
0.4199365
0.4207975
0.4167507
0.4173336
0.4178893
0.4184976
0.4191676
0.4199294
0.420794
0.4167561
0.4173374
0.4178919
0.4184989
0.4191664
0.4199272
0.420791
0.4167619
0.4173415
0.4178947
0.4185001
0.419166
0.4199246
0.4207867
0.4167684
0.4173462
0.4178978
0.4185013
0.4191646
0.419914
0.420771
0.4167757
0.4173514
0.4179014
0.4185027
0.4191634
0.4199017
0.4207586
0.416784
0.4173573
0.4179053
0.4185044
0.4191627
0.4198971
0.4207524
0.4167936
0.4173641
0.4179098
0.4185063
0.4191619
0.4198934
0.4207453
0.4168045
0.4173719
0.417915
0.4185085
0.419161
0.4198886
0.4207265
0.4168172
0.4173811
0.4179211
0.4185113
0.4191602
0.4198839
0.4207055
0.4168301
0.4173897
0.4179275
0.4185144
0.4191599
0.4198801
0.4206954
0.4168456
0.4174005
0.4179353
0.4185184
0.41916
0.4198764
0.4206866
0.416864
0.4174104
0.4179391
0.418522
0.4191608
0.4198736
0.4206792
0.4168843
0.4174212
0.4179413
0.4185186
0.4191595
0.4198695
0.4206723
0.4169056
0.4174329
0.4179421
0.4185157
0.4191518
0.4198558
0.420656
0.4169248
0.4174379
0.4179312
0.4184818
0.4191034
0.41981
0.4206139
0.4169349
0.4174206
0.4178808
0.4183933
0.4189914
0.4197011
0.4205348
0.4169221
0.4173489
0.4177535
0.4182336
0.4188185
0.4195783
0.4204825
0.4168594
0.4171881
0.4175437
0.4180289
0.4186529
0.4194865
0.4205469
0.4167121
0.4169494
0.4172995
0.4178353
0.4185518
0.4194764
0.4207633
0.4164547
0.4166697
0.4170697
0.4176869
0.4185239
0.4195888
0.4210371
0.4161011
0.4163922
0.4168385
0.4175801
0.4185306
0.41971
0.4212059
0.4156657
0.4161352
0.4166385
0.4174396
0.4184834
0.4197423
0.4213698
0.4151988
0.4158988
0.4164652
0.4172732
0.4182899
0.4197285
0.4215307
0.4147705
0.4157622
0.4163007
0.417084
0.4181915
0.4197586
0.4217484
0.414502
0.4157241
0.416211
0.4170341
0.4182417
0.4198772
0.4217929
0.4144711
0.4157603
0.4162438
0.4171935
0.4184642
0.4200361
0.4218359
0.4145516
0.4158041
0.416446
0.4175028
0.4188143
0.420349
0.4219628
0.4145833
0.4158768
0.4166684
0.4178157
0.4191451
0.4206827
0.4223584
0.4146673
0.4160132
0.4168315
0.4180907
0.4194444
0.420949
0.4225911
0.4148415
0.4161589
0.4169876
0.4183329
0.419718
0.4212053
0.4224991
0.4151006
0.4162604
0.4171235
0.4185898
0.4199364
0.4212437
0.422305
0.4154134
0.4164107
0.4172752
0.4186987
0.4199075
0.4209502
0.4218028
0.4157321
0.4166174
0.4175279
0.4188613
0.4198994
0.4207685
0.4217705
0.4159975
0.4168126
0.4177432
0.4190716
0.420099
0.4210829
0.4220634
0.4162059
0.416987
0.4179433
0.4192637
0.4203339
0.4214261
0.4225649
0.4163635
0.4171249
0.4180938
0.4194038
0.4205373
0.4217289
0.4230092
0.41641
0.4172188
0.41821
0.4195511
0.4207474
0.4219842
0.4232339
0.4163177
0.4172048
0.4182097
0.4196037
0.4208659
0.4220971
0.4232375
0.4161862
0.4171487
0.4181468
0.4195868
0.4209689
0.4222695
0.4233172
0.4160269
0.4170903
0.4180764
0.4195369
0.421016
0.422466
0.4238659
0.4158219
0.4169999
0.4179621
0.419485
0.4209991
0.4225959
0.4241934
0.4156082
0.4169179
0.4178169
0.4192975
0.4208037
0.4224801
0.4240556
0.4154431
0.4168248
0.4176962
0.4190658
0.4205463
0.4221956
0.4237441
0.4153486
0.4166622
0.4174985
0.4187887
0.42024
0.4218825
0.4235361
0.4153053
0.4164452
0.417224
0.4184577
0.4199375
0.4216396
0.4234059
0.4152395
0.4162748
0.4169439
0.4181422
0.4196854
0.4215063
0.4232484
0.41517
0.4161764
0.4167727
0.4178937
0.4194323
0.421228
0.4230824
0.415266
0.4161779
0.4167797
0.4177532
0.4191629
0.4209393
0.4228332
0.4155523
0.4162612
0.41686
0.4177205
0.418971
0.4206103
0.4225384
0.4159031
0.416403
0.4169713
0.4177939
0.4188723
0.4203411
0.4221413
0.4162506
0.4165925
0.4170938
0.4178519
0.4188363
0.4201041
0.4217372
0.4165506
0.4167954
0.4172257
0.4179011
0.4187766
0.4198869
0.4212769
0.4167685
0.4170206
0.4174008
0.4179653
0.4187185
0.419674
0.4209793
0.4168992
0.4172282
0.4175951
0.4180998
0.4187457
0.4195635
0.4206996
0.4169531
0.4173725
0.4177768
0.418263
0.4188543
0.4196063
0.4205505
0.4169625
0.4174407
0.4178971
0.4184057
0.4189986
0.4197168
0.4205572
0.4169502
0.4174579
0.4179475
0.4184865
0.4191039
0.4198096
0.4206187
0.4169281
0.4174514
0.4179559
0.4185188
0.41915
0.4198609
0.4206606
0.4169043
0.4174374
0.4179506
0.4185281
0.4191682
0.4198751
0.4206751
0.4168816
0.4174219
0.4179446
0.4185241
0.4191662
0.4198768
0.4206794
0.4168602
0.4174096
0.4179406
0.4185249
0.4191643
0.4198773
0.4206833
0.4168417
0.4173988
0.4179356
0.4185198
0.4191621
0.419879
0.4206895
0.4168265
0.4173877
0.4179269
0.4185149
0.4191609
0.4198817
0.4206972
0.4168139
0.4173789
0.41792
0.418511
0.4191606
0.4198846
0.4207062
0.4168016
0.4173698
0.4179137
0.4185078
0.4191608
0.4198886
0.4207267
0.416791
0.4173621
0.4179083
0.4185053
0.4191612
0.4198929
0.4207448
0.4167817
0.4173554
0.4179038
0.4185033
0.4191617
0.4198963
0.4207516
0.4167738
0.4173497
0.4179
0.4185017
0.4191624
0.4199007
0.4207576
0.4167667
0.4173447
0.4178966
0.4185001
0.4191636
0.4199132
0.4207702
0.4167605
0.4173403
0.4178936
0.418499
0.4191649
0.4199236
0.4207858
0.4167549
0.4173364
0.417891
0.4184979
0.4191654
0.4199263
0.42079
0.4167499
0.4173327
0.4178884
0.4184969
0.4191668
0.4199285
0.4207932
0.4167452
0.4173294
0.4178863
0.4184965
0.4191742
0.419936
0.4207969
0.4167409
0.4173263
0.4178843
0.4184961
0.4191802
0.4199457
0.4208005
0.4167367
0.4173233
0.4178824
0.4184951
0.4191805
0.4199474
0.4208029
0.4167326
0.4173204
0.4178802
0.4184942
0.4191806
0.4199484
0.4208051
0.4167285
0.4173173
0.417878
0.4184934
0.4191807
0.4199493
0.4208074
0.4167243
0.4173142
0.417876
0.4184968
0.4191844
0.4199506
0.4208096
0.4167198
0.4173107
0.4178737
0.4184992
0.4191894
0.4199521
0.4208116
0.4167146
0.4173068
0.4178708
0.4184976
0.4191891
0.4199529
0.4208137
0.4167087
0.417302
0.4178674
0.4184957
0.4191886
0.4199538
0.4208159
0.4167014
0.4172964
0.4178636
0.4184937
0.4191883
0.419955
0.4208186
0.4166923
0.4172897
0.4178592
0.4184918
0.4191884
0.419957
0.420822
0.4166808
0.4172812
0.4178545
0.4184905
0.4191895
0.4199601
0.4208265
0.4166654
0.4172705
0.4178499
0.4184903
0.4191923
0.4199652
0.420833
0.4166439
0.4172577
0.4178494
0.418495
0.4191986
0.4199734
0.4208422
0.4166136
0.4172441
0.4178521
0.4185057
0.4192108
0.4199858
0.4208678
0.4165719
0.417235
0.4178623
0.4185236
0.4192292
0.4200156
0.4208986
0.4165328
0.417246
0.4178936
0.4185549
0.4192695
0.4200533
0.4209327
0.4166172
0.4173214
0.4179554
0.4186193
0.4193234
0.4200967
0.4209699
0.4176259
0.4175522
0.4180807
0.4187076
0.4193865
0.4201436
0.4210077
0.4321303
0.4192915
0.4182456
0.4188138
0.4194585
0.4201916
0.4210441
0.4220534
0.4233134
0.424993
0.4265887
0.4294243
0.433873
0.4440497
0.4220295
0.423284
0.4249562
0.4265462
0.4293722
0.4338008
0.4436213
0.4219993
0.4232514
0.4249147
0.4270985
0.4293222
0.4337312
0.443397
0.4219661
0.4232174
0.4248783
0.4264498
0.4292695
0.4336611
0.4431919
0.4219328
0.4231824
0.4248376
0.426402
0.4292164
0.4335909
0.4430469
0.4219003
0.4231472
0.4247965
0.426354
0.4291639
0.4335212
0.4429104
0.4218696
0.423113
0.424756
0.4263084
0.4291481
0.4334518
0.4427788
0.4218427
0.4230799
0.4247166
0.4262639
0.4291335
0.4333831
0.4426572
0.421833
0.4230502
0.4246793
0.4262194
0.4290911
0.4333213
0.4425364
0.4218256
0.4230408
0.4246452
0.4261755
0.4290497
0.4332595
0.4424214
0.4218198
0.4230336
0.424635
0.4261332
0.4290084
0.4331978
0.4423105
0.4218149
0.4230271
0.424627
0.4261236
0.4289669
0.433136
0.4422027
0.4218107
0.4230211
0.4246192
0.4261147
0.4289592
0.4330727
0.442099
0.4218068
0.4230154
0.4246114
0.4261056
0.4289506
0.4330602
0.4420116
0.4218031
0.4230096
0.4246035
0.4260962
0.4289414
0.4330452
0.4420434
0.4217993
0.4230037
0.4245954
0.4260864
0.4289314
0.4330289
0.442076
0.4217956
0.4229976
0.4245871
0.4260759
0.4289157
0.4330117
0.4420985
0.4217917
0.4229915
0.4245782
0.4260604
0.4287971
0.4329931
0.442137
0.4217877
0.4229854
0.4245691
0.4260488
0.4287773
0.4329739
0.4421702
0.4217833
0.4229789
0.4245595
0.4260366
0.4287621
0.4329536
0.4422103
0.4217788
0.4229721
0.4245495
0.4260237
0.4287461
0.4329323
0.4422698
0.4217738
0.4229649
0.4245394
0.4260099
0.4287294
0.43291
0.4423162
0.4217686
0.422957
0.4245281
0.4259976
0.4287074
0.4328867
0.4423655
0.4217614
0.4229482
0.4245143
0.4265441
0.4285864
0.4328508
0.4424137
0.4217539
0.4229393
0.4245028
0.4259675
0.4285273
0.4328213
0.4424619
0.4217467
0.4229295
0.4244889
0.4259461
0.4285019
0.4327929
0.4425126
0.4217365
0.422917
0.4244722
0.4259254
0.4284758
0.4327593
0.4425715
0.4217094
0.4229027
0.424456
0.425904
0.4284408
0.4325166
0.4426271
0.4216911
0.4225618
0.4240182
0.4258891
0.4284071
0.4324195
0.4426699
0.4216768
0.422548
0.4239969
0.4258629
0.428373
0.4323756
0.4427109
0.4216394
0.4225043
0.4239759
0.4258349
0.4283341
0.4321926
0.4427368
0.4216149
0.4224627
0.4239537
0.4258025
0.4282893
0.431981
0.4427278
0.421602
0.4223977
0.4239248
0.4257677
0.428238
0.4319004
0.4425732
0.4215882
0.4223727
0.4238725
0.4257382
0.428183
0.4317659
0.4408566
0.4215634
0.4223498
0.4238268
0.425726
0.4281406
0.4315343
0.4395459
0.4215508
0.4223351
0.4237982
0.4257925
0.4281568
0.431136
0.4362067
0.421648
0.4224448
0.4240488
0.4260552
0.4282892
0.4308063
0.4360212
0.4219414
0.4228251
0.4245232
0.4262767
0.4285885
0.4313804
0.4354831
0.4224198
0.4234545
0.4251888
0.4268337
0.4293419
0.4316259
0.4346873
0.4229669
0.4241899
0.4261228
0.4282807
0.4292834
0.4308225
0.4344946
0.4234488
0.4249858
0.4273325
0.4288811
0.4287892
0.4305856
0.4360593
0.4236241
0.4255639
0.4279463
0.4284208
0.4285468
0.4303855
0.4369085
0.4238788
0.4259252
0.4279875
0.4275506
0.428499
0.4305845
0.4378072
0.4241501
0.4263797
0.4270599
0.426889
0.4285119
0.4320911
0.4383611
0.4240974
0.4260335
0.4259094
0.4263867
0.4290307
0.4327992
0.4382644
0.4240087
0.4255959
0.4252413
0.4261414
0.4289623
0.4312365
0.4363382
0.4239686
0.425207
0.4250367
0.4262874
0.4279354
0.4306471
0.4337243
0.424383
0.4254179
0.4256981
0.4267516
0.4281687
0.4299203
0.4316026
0.4246971
0.4257012
0.4263201
0.4277768
0.428524
0.4300702
0.4314547
0.4243945
0.4256501
0.4266939
0.4279449
0.429333
0.4304547
0.4319547
0.4238487
0.4247271
0.4269915
0.4285623
0.4296752
0.4311732
0.4336402
0.4237634
0.4252008
0.4277419
0.4287775
0.4296635
0.4315401
0.4344283
0.4239633
0.4254624
0.4280027
0.4294521
0.4301887
0.4326549
0.4345127
0.4244292
0.4260821
0.4287316
0.4301942
0.4301518
0.4310427
0.4309852
0.4251583
0.426749
0.4295384
0.4304991
0.4301371
0.4270235
0.4245548
0.4256379
0.4276497
0.4293304
0.4299703
0.4288248
0.4270399
0.4257425
0.4277924
0.4289529
0.4299155
0.4295593
0.4274431
0.425869
0.4281415
0.4294504
0.4303441
0.4298944
0.4276559
0.4258949
0.4282845
0.4297528
0.4304646
0.4303416
0.4299945
0.4291354
0.4260393
0.4280091
0.4296662
0.4308243
0.4310736
0.4325475
0.4331245
0.4268028
0.429014
0.427766
0.43007
0.4308796
0.4312319
0.4322285
0.4264841
0.4287343
0.4274731
0.4288367
0.4291719
0.4296643
0.4312466
0.4259012
0.4275356
0.4270303
0.4280894
0.4289618
0.4300868
0.4315454
0.425782
0.4271469
0.4265053
0.4276267
0.4294352
0.430396
0.4309748
0.4256415
0.4268257
0.4261628
0.4275496
0.4292528
0.4303163
0.4321161
0.4256176
0.4269619
0.4260833
0.4270976
0.429188
0.4307935
0.4335464
0.425557
0.4272539
0.4263151
0.4270573
0.4294137
0.4326681
0.4382286
0.425381
0.4275825
0.4272056
0.4273418
0.4297691
0.433438
0.4383808
0.4250452
0.4273418
0.4279983
0.4281602
0.4293452
0.4331914
0.4382045
0.4245763
0.4267405
0.4285922
0.4288327
0.4297975
0.4324917
0.4392328
0.4240352
0.4261798
0.4281825
0.4291989
0.4303392
0.4319931
0.4387912
0.423389
0.4254882
0.4272515
0.4292883
0.4300675
0.4317556
0.4381607
0.4227093
0.4244895
0.4260296
0.4285534
0.4296368
0.4315729
0.4365684
0.4221226
0.4236656
0.4249815
0.4269775
0.4296613
0.4316107
0.434314
0.4217412
0.4229916
0.4243599
0.4261102
0.4287063
0.4314195
0.4342833
0.4215907
0.4225856
0.423959
0.4259578
0.4283082
0.4310554
0.4360093
0.4215746
0.4224455
0.4237781
0.4257551
0.4281996
0.4312512
0.4373831
0.4215912
0.4224227
0.4237757
0.4257208
0.4281667
0.4316607
0.4402079
0.4216018
0.4224235
0.4238485
0.4257361
0.4281884
0.4318107
0.4412475
0.4216078
0.4224301
0.4239132
0.4257631
0.4282313
0.4318895
0.4420151
0.4216185
0.4224737
0.4239449
0.4257953
0.4282777
0.4319635
0.4428199
0.4216422
0.4225133
0.4239695
0.4258257
0.4283208
0.4320502
0.4428099
0.4216785
0.4225615
0.4239894
0.425853
0.428359
0.4323393
0.4427696
0.4216917
0.4225788
0.4240091
0.4258767
0.4283925
0.4324008
0.4427185
0.4217095
0.4229026
0.4244558
0.4259137
0.4284241
0.4324427
0.4426666
0.421736
0.4229163
0.4244713
0.4259314
0.4284592
0.4326649
0.4426095
0.4217459
0.4229284
0.4244871
0.4259495
0.4284885
0.4327766
0.4425454
0.421753
0.4229382
0.424501
0.4259664
0.428514
0.432806
0.4424901
0.4217604
0.4229474
0.4245141
0.4259824
0.4285417
0.4328331
0.4424318
0.4217676
0.4229558
0.4245262
0.4259979
0.4286683
0.4328687
0.4423823
0.4217728
0.4229636
0.4245377
0.4260124
0.42872
0.432897
0.4423304
0.4217778
0.4229711
0.4245484
0.4260258
0.428737
0.4329197
0.4422769
0.4217826
0.422978
0.4245585
0.4260387
0.4287534
0.4329414
0.4422288
0.4217871
0.4229846
0.4245682
0.4260508
0.4287688
0.4329621
0.442182
0.4217911
0.4229908
0.4245772
0.4260625
0.4287834
0.4329818
0.4421426
0.421795
0.4229969
0.4245861
0.426076
0.4288485
0.4330007
0.4421086
0.4217987
0.4230028
0.4245944
0.4260886
0.428925
0.4330185
0.4420756
0.4218023
0.4230085
0.4246023
0.4260989
0.4289352
0.4330354
0.4420415
0.4218058
0.423014
0.4246099
0.4261088
0.4289447
0.4330512
0.442035
0.4218093
0.4230194
0.4246174
0.4261184
0.4289535
0.4330658
0.4420587
0.4218129
0.4230248
0.4246247
0.4261279
0.4289619
0.4331034
0.442163
0.4218169
0.4230306
0.4246321
0.4261373
0.4289859
0.4331653
0.4422721
0.4218215
0.4230368
0.4246416
0.4261633
0.4290268
0.4332272
0.4423857
0.4218273
0.423045
0.4246748
0.4262073
0.4290679
0.4332889
0.4425002
0.4218351
0.4230732
0.4247109
0.4262518
0.4291092
0.4333509
0.4426208
0.4218596
0.4231047
0.4247492
0.4262971
0.4291491
0.433416
0.4427441
0.4218879
0.4231374
0.4247887
0.4263407
0.429137
0.4334854
0.4428703
0.4219183
0.4231716
0.4248291
0.4263871
0.4291875
0.433555
0.4430022
0.4219507
0.4232069
0.4248702
0.4264332
0.4292401
0.4336249
0.4431432
0.4219848
0.4232426
0.4249113
0.4264791
0.4292928
0.4336952
0.4433112
0.4220185
0.4232775
0.4249518
0.4265238
0.4293457
0.4337657
0.4435314
0.4220509
0.4233121
0.4249919
0.4265672
0.4293983
0.433837
0.4438506
0.9950745
1
1
1
1
1
1
1
1
1
1
1
1
1
1
1
1
1
0.9889081
1
1
1
1
1
1
1
1
1
1
1
1
1
1
1
1
1
0.9871531
1
1
1
1
1
1
1
1
1
1
1
1
1
1
1
1
1
0.9861342
1
1
1
1
1
1
1
1
1
1
1
1
1
1
1
1
1
0.9850077
1
1
1
1
1
1
1
1
1
1
1
1
1
1
1
1
1
0.9838625
1
1
1
1
1
1
1
1
1
1
1
1
1
1
1
1
1
0.9828084
1
1
1
1
1
1
1
1
1
1
1
1
1
1
1
1
1
0.9817055
1
1
1
1
1
1
1
1
1
1
1
1
1
1
1
1
1
0.9806839
1
1
1
1
1
1
1
1
1
1
1
1
1
1
1
1
1
0.9795661
1
1
1
1
1
1
1
1
1
1
1
1
1
1
1
1
1
0.978417
1
1
1
1
1
1
1
1
1
1
1
1
1
1
1
1
1
0.9773104
1
1
1
1
1
1
1
1
1
1
1
1
1
1
1
1
1
0.9761489
1
1
1
1
1
1
1
1
1
1
1
1
1
1
1
1
1
0.9748751
1
1
1
1
1
1
1
1
1
1
1
1
1
1
1
1
1
0.969294
1
1
1
1
1
1
1
1
1
1
1
1
1
1
1
1
1
0.9678012
1
1
1
1
1
1
1
1
1
1
1
1
1
1
1
1
1
0.9656966
0.9999998
1
1
1
1
1
1
1
1
1
1
1
1
1
1
1
1
0.9633952
0.9999998
1
1
1
1
1
1
1
1
1
1
1
1
1
1
1
1
0.9609245
0.9999997
1
1
1
1
1
1
1
1
1
1
1
1
1
1
1
1
0.9584537
0.9999997
1
1
1
1
1
1
1
1
1
1
1
1
1
1
1
1
0.9559896
0.9999996
1
1
1
1
1
1
1
1
1
1
1
1
1
1
1
1
0.9534372
0.9999995
1
1
1
1
1
1
1
1
1
1
1
1
1
1
1
1
0.9507341
0.9999994
1
1
1
1
1
1
1
1
1
1
1
1
1
1
1
1
0.9478837
0.9999992
1
1
1
1
1
1
1
1
1
1
1
1
1
1
1
1
0.9448172
0.999999
1
1
1
1
1
1
1
1
1
1
1
1
1
1
1
1
0.9416317
0.9999988
1
1
1
1
1
1
1
1
1
1
1
1
1
1
1
1
0.9382157
0.9999985
1
1
1
1
1
1
1
1
1
1
1
1
1
1
1
1
0.9345742
0.9999981
1
1
1
1
1
1
1
1
1
1
1
1
1
1
1
1
0.9307531
0.9999977
1
1
1
1
1
1
1
1
1
1
1
1
1
1
1
1
0.9266216
0.9999971
1
1
1
1
1
1
1
1
1
1
1
1
1
1
1
1
0.9222389
0.9999965
1
1
1
1
1
1
1
1
1
1
1
1
1
1
1
1
0.9176348
0.9999958
1
1
1
1
1
1
1
1
1
1
1
1
1
1
1
1
0.9126048
0.9999953
1
1
1
1
1
1
1
1
1
1
1
1
1
1
1
1
0.9068205
0.9999932
1
1
1
1
1
1
1
1
1
1
1
1
1
1
1
1
0.8899534
0.9999886
1
1
1
1
1
1
1
1
1
1
1
1
1
1
1
1
0.8788045
0.9999849
1
1
1
1
1
1
1
1
1
1
1
1
1
1
1
1
0.8597042
0.9999836
1
1
1
1
1
1
1
1
1
1
1
1
1
1
1
1
0.7599364
0.9999731
1
1
1
1
1
1
1
1
1
1
1
1
1
1
1
1
0.6274936
0.9999506
1
1
1
1
1
1
1
1
1
1
1
1
1
1
1
1
0.5302132
0.9995352
1
1
1
1
1
1
1
1
1
1
1
1
1
1
1
1
0.4769127
0.9993174
1
1
1
1
1
1
1
1
1
1
1
1
1
1
1
1
0.4693043
0.9995474
1
1
1
1
1
1
1
1
1
1
1
1
1
1
1
1
0.4634322
0.999868
1
1
1
1
1
1
1
1
1
1
1
1
1
1
1
1
0.4582653
0.9991746
1
1
1
1
1
1
1
1
1
1
1
1
1
1
1
1
0.4563362
0.9991221
1
1
1
1
1
1
1
1
1
1
1
1
1
1
1
1
0.4541933
0.9991847
1
1
1
1
1
1
1
1
1
1
1
1
1
1
1
1
0.4452083
0.9982021
0.9999995
1
1
1
1
1
1
1
1
1
1
1
1
1
1
1
0.4444656
0.9726934
0.9999902
1
1
1
1
1
1
1
1
1
1
1
1
1
1
1
0.4455953
0.9459248
0.9998859
0.9999994
1
1
1
1
1
1
1
1
1
1
1
1
1
1
0.4364957
0.8260853
0.99886
0.9999888
1
1
1
1
1
1
1
1
1
1
0.4365245
0.4695948
1
1
1
1
1
1
1
1
0.4367777
1
1
1
1
1
1
1
1
1
1
1
1
1
1
1
1
1
1
1
1
1
1
1
1
1
1
1
1
1
1
1
1
1
1
1
1
1
1
1
1
1
1
1
1
1
1
1
1
1
0.4353642
1
1
1
1
1
1
0.4350059
0.50497
1
1
1
1
1
1
1
0.4370125
0.7080803
0.9970975
1
1
1
1
1
1
1
1
1
0.4453752
0.9022855
0.9994678
0.9999961
1
1
1
1
1
1
1
1
1
1
1
1
1
1
0.4471376
0.9650799
0.9999391
0.9999998
1
1
1
1
1
1
1
1
1
1
1
1
1
1
0.4483694
0.981386
0.9999913
1
1
1
1
1
1
1
1
1
1
1
1
1
1
1
0.4507177
0.9952421
0.999999
1
1
1
1
1
1
1
1
1
1
1
1
1
1
1
0.4581414
0.9974301
0.9999998
1
1
1
1
1
1
1
1
1
1
1
1
1
1
1
0.4581945
0.9976667
0.9999995
1
1
1
1
1
1
1
1
1
1
1
1
1
1
1
0.4592803
0.9983145
0.9999993
1
1
1
1
1
1
1
1
1
1
1
1
1
1
1
0.4635659
0.9979744
0.9999991
1
1
1
1
1
1
1
1
1
1
1
1
1
1
1
0.4692549
0.9966503
0.9999958
1
1
1
1
1
1
1
1
1
1
1
1
1
1
1
0.4919541
0.998288
0.9999996
1
1
1
1
1
1
1
1
1
1
1
1
1
1
1
0.5690519
0.9998508
1
1
1
1
1
1
1
1
1
1
1
1
1
1
1
1
0.6255504
0.999845
1
1
1
1
1
1
1
1
1
1
1
1
1
1
1
1
0.8408051
0.9999763
1
1
1
1
1
1
1
1
1
1
1
1
1
1
1
1
0.8618544
0.9999786
1
1
1
1
1
1
1
1
1
1
1
1
1
1
1
1
0.8829385
0.9999869
1
1
1
1
1
1
1
1
1
1
1
1
1
1
1
1
0.8978061
0.9999949
1
1
1
1
1
1
1
1
1
1
1
1
1
1
1
1
0.911288
0.9999948
1
1
1
1
1
1
1
1
1
1
1
1
1
1
1
1
0.9160199
0.9999949
1
1
1
1
1
1
1
1
1
1
1
1
1
1
1
1
0.9204816
0.9999957
1
1
1
1
1
1
1
1
1
1
1
1
1
1
1
1
0.9247863
0.9999964
1
1
1
1
1
1
1
1
1
1
1
1
1
1
1
1
0.9288864
0.9999971
1
1
1
1
1
1
1
1
1
1
1
1
1
1
1
1
0.9327314
0.9999976
1
1
1
1
1
1
1
1
1
1
1
1
1
1
1
1
0.9363579
0.9999981
1
1
1
1
1
1
1
1
1
1
1
1
1
1
1
1
0.9398225
0.9999984
1
1
1
1
1
1
1
1
1
1
1
1
1
1
1
1
0.9431628
0.9999987
1
1
1
1
1
1
1
1
1
1
1
1
1
1
1
1
0.9461184
0.9999989
1
1
1
1
1
1
1
1
1
1
1
1
1
1
1
1
0.9491632
0.9999991
1
1
1
1
1
1
1
1
1
1
1
1
1
1
1
1
0.9518961
0.9999993
1
1
1
1
1
1
1
1
1
1
1
1
1
1
1
1
0.9545136
0.9999994
1
1
1
1
1
1
1
1
1
1
1
1
1
1
1
1
0.9569513
0.9999995
1
1
1
1
1
1
1
1
1
1
1
1
1
1
1
1
0.9593864
0.9999996
1
1
1
1
1
1
1
1
1
1
1
1
1
1
1
1
0.961946
0.9999997
1
1
1
1
1
1
1
1
1
1
1
1
1
1
1
1
0.9643577
0.9999997
1
1
1
1
1
1
1
1
1
1
1
1
1
1
1
1
0.9666618
0.9999999
1
1
1
1
1
1
1
1
1
1
1
1
1
1
1
1
0.9680764
0.9999998
1
1
1
1
1
1
1
1
1
1
1
1
1
1
1
1
0.9728293
0.9999998
1
1
1
1
1
1
1
1
1
1
1
1
1
1
1
1
0.9755954
0.9999999
1
1
1
1
1
1
1
1
1
1
1
1
1
1
1
1
0.9767996
0.9999999
1
1
1
1
1
1
1
1
1
1
1
1
1
1
1
1
0.9779723
0.9999999
1
1
1
1
1
1
1
1
1
1
1
1
1
1
1
1
0.9791194
0.9999999
1
1
1
1
1
1
1
1
1
1
1
1
1
1
1
1
0.9802688
0.9999999
1
1
1
1
1
1
1
1
1
1
1
1
1
1
1
1
0.9813937
0.9999999
1
1
1
1
1
1
1
1
1
1
1
1
1
1
1
1
0.9824398
0.9999999
1
1
1
1
1
1
1
1
1
1
1
1
1
1
1
1
0.9835249
0.9999999
1
1
1
1
1
1
1
1
1
1
1
1
1
1
1
1
0.9845924
0.9999999
1
1
1
1
1
1
1
1
1
1
1
1
1
1
1
1
0.985637
0.9999999
1
1
1
1
1
1
1
1
1
1
1
1
1
1
1
1
0.9866311
0.9999997
1
1
1
1
1
1
1
1
1
1
1
1
1
1
1
1
0.9876856
0.9999993
1
1
1
1
1
1
1
1
1
1
1
1
1
1
1
1
0.992097
0.9999998
1
1
1
1
1
1
1
1
1
1
1
1
1
1
1
1
1
1
1
1
1
1
1
1
1
1
1
1
1
1
1
1
1
1
1
1
1
1
1
1
1
1
1
1
1
1
1
1
1
1
1
1
1
1
1
1
1
1
1
1
1
1
1
1
1
1
1
1
1
1
1
1
1
1
1
1
1
1
1
1
1
1
1
1
1
1
1
1
1
1
1
1
1
1
1
1
1
1
1
1
1
1
1
1
1
1
1
1
1
1
1
1
1
1
1
1
1
1
1
1
1
1
1
1
1
1
1
1
1
1
1
1
1
1
1
1
1
1
1
1
1
1
1
1
1
1
1
1
1
1
1
1
1
1
1
1
1
1
1
1
1
1
1
1
1
1
1
1
1
1
1
1
1
1
1
1
1
1
1
1
1
1
1
1
1
1
1
1
1
1
1
1
1
1
1
1
1
1
1
1
1
1
1
1
1
1
1
1
1
1
1
1
1
1
1
1
1
1
1
1
1
1
1
1
1
1
1
1
1
1
1
1
1
1
1
1
1
1
1
1
1
1
1
1
1
1
1
1
1
1
1
1
1
1
1
1
1
1
1
1
1
1
1
1
1
1
1
1
1
1
1
1
1
1
1
1
1
1
1
1
1
1
1
1
1
1
1
1
1
1
1
1
1
1
1
1
1
1
1
1
1
1
1
1
1
1
1
1
1
1
1
1
1
1
1
1
1
1
1
1
1
1
1
1
1
1
1
1
1
1
1
1
1
1
1
1
1
1
1
1
1
1
1
1
1
1
1
1
1
1
1
1
1
1
1
1
1
1
1
1
1
1
1
1
1
1
1
1
1
1
1
1
1
1
1
1
1
1
1
1
1
1
1
1
1
1
1
1
1
1
1
1
1
1
1
1
1
1
1
1
1
1
1
1
1
1
1
1
1
1
1
1
1
1
1
1
1
1
1
1
1
1
1
1
1
1
1
1
1
1
1
1
1
1
1
1
1
1
1
1
1
1
1
1
1
1
1
1
1
1
1
1
1
1
1
1
1
1
1
1
1
1
1
1
1
1
1
1
1
1
1
1
1
1
1
1
1
1
1
1
1
1
1
1
1
1
1
1
1
1
1
1
1
1
1
1
1
1
1
1
1
1
1
1
1
1
1
1
1
1
1
1
1
1
1
1
1
1
1
1
1
1
1
1
1
1
1
1
1
1
1
1
1
1
1
1
1
1
1
1
1
1
1
1
1
1
1
1
1
1
1
1
1
1
1
1
1
1
1
1
1
1
1
1
1
1
1
1
1
1
1
1
1
1
1
1
1
1
1
1
1
1
1
1
1
1
1
1
1
1
1
1
1
1
1
1
1
1
1
1
1
1
1
1
1
1
1
1
1
1
1
1
1
1
1
1
1
1
1
1
1
1
1
1
1
1
1
1
1
1
1
1
1
1
1
1
1
1
1
1
1
1
1
1
1
1
1
1
1
1
1
1
1
1
1
1
1
1
1
1
1
1
1
1
1
1
1
1
1
1
1
1
1
1
1
1
1
1
1
1
1
1
1
1
1
1
1
1
1
1
1
1
1
1
1
1
1
1
1
1
1
1
1
1
1
1
1
1
1
1
1
1
1
1
1
1
1
1
1
1
1
1
1
1
1
1
1
1
1
1
1
1
1
1
1
1
1
1
1
1
1
1
1
1
1
1
1
1
1
1
1
1
1
1
1
1
1
1
1
1
1
1
1
1
1
1
1
1
1
1
1
1
1
1
1
1
1
1
1
1
1
1
1
1
1
1
1
1
1
1
1
1
1
1
1
1
1
1
1
1
1
1
1
1
1
1
1
1
1
1
1
1
1
1
1
1
1
1
1
1
1
1
1
1
1
1
1
1
1
1
1
1
1
1
1
1
1
1
1
1
1
1
1
1
1
1
1
1
1
1
1
1
1
1
1
1
1
1
1
1
1
1
1
1
1
1
1
1
1
1
1
1
1
1
1
1
1
1
1
1
1
1
1
1
1
1
1
1
1
1
1
1
1
1
1
1
1
1
1
1
1
1
1
1
1
1
1
1
1
1
1
1
1
1
1
1
1
1
1
1
1
1
1
1
1
1
1
1
1
1
1
1
1
1
1
1
1
1
1
1
1
1
1
1
1
1
1
1
1
1
1
1
1
1
1
1
1
1
1
1
1
1
1
1
1
1
1
1
1
1
1
1
1
1
1
1
1
1
1
1
1
1
1
1
1
1
1
1
1
1
1
1
1
1
1
1
1
1
1
1
1
1
1
1
1
1
1
1
1
1
1
1
1
1
1
1
1
1
1
1
1
1
1
1
1
1
1
1
1
1
1
1
1
1
1
1
1
1
1
1
1
1
1
1
1
1
1
1
1
1
1
1
1
1
1
1
1
1
1
1
1
1
1
1
1
1
1
1
1
1
1
1
1
1
1
1
1
1
1
1
1
1
1
1
1
1
1
1
1
1
1
1
1
1
1
1
1
1
1
1
1
1
1
1
1
1
1
1
1
1
1
1
1
1
1
1
1
1
1
1
1
1
1
1
1
1
1
1
1
1
1
1
1
1
1
1
1
1
1
1
1
1
1
1
1
1
1
1
1
1
1
1
1
1
1
1
1
1
1
1
1
1
1
1
1
1
1
1
1
1
1
1
1
1
1
1
1
1
1
1
1
1
1
1
1
1
1
1
1
1
1
1
1
1
1
1
1
1
1
1
1
1
1
1
1
1
1
1
1
1
1
1
1
1
1
1
1
1
1
1
1
1
1
1
1
1
1
1
1
1
1
1
1
1
1
1
1
1
1
1
1
1
1
1
1
1
1
1
0.4342476
0.4373006
0.4339302
0.4278161
0.4302956
0.4256763
0.4268575
0.4254597
0.4252945
0.4269808
0.4257074
0.4257771
0.4276418
0.4262639
0.4299629
0.4271487
0.4252095
0.430548
0.4344507
0.4329595
0.432705
1
0.9999998
0.999998
1
1
1
1
1
1
1
1
1
1
1
1
1
1
1
0.999904
0.9997146
0.9976945
0.9999991
1
1
1
1
0.936292
0.4565136
1
1
0.4365006
0.4340632
1
1
1
1
1
1
1
1
1
1
1
1
1
1
1
1
1
1
1
1
1
1
1
1
1
1
1
1
1
1
1
1
0.4462121
0.4353608
1
1
1
0.9195068
0.4721075
1
1
1
0.9996978
0.9998806
0.9988375
0.9999988
0.9999869
1
1
1
1
1
0.9999996
0.9999999
0.9999982
1
1
1
1
1
1
1
1
1
1
1
1
1
1
1
0.4278734
0.4278485
0.4265677
0.431354
0.4313268
0.4293984
0.4374546
0.4374002
0.4338359
0.4982027
0.4913304
0.4438127
0.4278209
0.4277989
0.4265256
0.4313002
0.4312746
0.4293479
0.4373448
0.4372915
0.4337652
0.4866366
0.4860808
0.443508
0.4312493
0.4312233
0.4293037
0.437237
0.4371837
0.4336963
0.4857196
0.4853599
0.4432875
0.4277158
0.4276904
0.4264412
0.4311958
0.4311688
0.4292418
0.4371298
0.4370758
0.4336254
0.485034
0.4847358
0.4431182
0.4276654
0.4276404
0.4263928
0.4311416
0.431116
0.4291899
0.4370219
0.4369682
0.4335557
0.4844696
0.4842141
0.4429775
0.4310893
0.4310634
0.4291398
0.4369165
0.4368715
0.4334865
0.4839464
0.4836408
0.4428439
0.4275859
0.4275896
0.4263018
0.4310401
0.4310163
0.4291514
0.4368265
0.4367813
0.4334171
0.4833943
0.4831558
0.4427165
0.4309902
0.4309648
0.4291112
0.436736
0.436691
0.4333516
0.4828902
0.4826361
0.4425971
0.4275256
0.4275044
0.4262111
0.4309383
0.4309134
0.4290696
0.4366453
0.4366006
0.4332896
0.4823745
0.4821476
0.4424797
0.4274827
0.4274618
0.4261666
0.4308872
0.4308643
0.4290288
0.4365552
0.4365102
0.4332281
0.481935
0.4817277
0.4423647
0.4274403
0.4274203
0.4261401
0.4308405
0.4308175
0.4289875
0.4364647
0.4364197
0.4331665
0.4815294
0.4813347
0.4422564
0.4274169
0.4274123
0.42613
0.4307936
0.4307696
0.428963
0.4363742
0.4363292
0.4331048
0.4811447
0.4809537
0.4421497
0.4274075
0.4274033
0.4261202
0.4307652
0.4307603
0.4289546
0.4362837
0.4362359
0.4330677
0.4807632
0.4805566
0.44205
0.4273985
0.4273939
0.4261104
0.4307549
0.4307495
0.428946
0.4362283
0.436217
0.4330528
0.4803621
0.4795424
0.4420306
0.427389
0.427384
0.4261007
0.4307435
0.4307377
0.4289367
0.4362047
0.4361933
0.4330369
0.4781001
0.4778335
0.4420419
0.4273793
0.4273736
0.4260905
0.4307315
0.4307251
0.4289269
0.4361798
0.4361681
0.4330205
0.4777539
0.4775153
0.4420799
0.4273652
0.4273174
0.4260771
0.4307189
0.4307067
0.4288488
0.4361547
0.4361417
0.4330029
0.4771733
0.4768819
0.4421162
0.4272643
0.4272517
0.4260631
0.4306956
0.4306884
0.4287842
0.4361281
0.4361136
0.432984
0.4765629
0.4762582
0.4421517
0.4272439
0.4272372
0.4260517
0.430681
0.4306734
0.4287698
0.4360994
0.4360842
0.4329641
0.4759408
0.4756321
0.4421896
0.4272296
0.4272219
0.4260399
0.4306656
0.4306575
0.4287546
0.4360685
0.4360528
0.4329432
0.475367
0.4750958
0.442238
0.4272146
0.4272061
0.4260273
0.4306495
0.4306407
0.4287385
0.4360362
0.4360201
0.4329208
0.4748374
0.4745831
0.442286
0.4271981
0.4271884
0.4260145
0.4306321
0.430623
0.4287209
0.4360026
0.4359864
0.4328984
0.47432
0.4740711
0.4423374
0.4271783
0.4271746
0.4259972
0.4306123
0.4305523
0.4286685
0.4359692
0.4359519
0.4328709
0.4737985
0.4735457
0.4423869
0.4304576
0.4304079
0.4285524
0.435935
0.435917
0.4328356
0.473276
0.4730046
0.4424371
0.4271324
0.4271259
0.4259718
0.4303936
0.4303801
0.4285144
0.4358994
0.4358808
0.4328076
0.4727349
0.4724727
0.4424895
0.4271176
0.4271071
0.4259508
0.4303668
0.4303531
0.4284896
0.4358618
0.4358425
0.4327778
0.4722036
0.4719302
0.4425432
0.4270957
0.4270842
0.4259322
0.4303322
0.4302734
0.4284595
0.4358229
0.435796
0.432666
0.4716573
0.4713776
0.4426008
0.4270722
0.4270588
0.4259138
0.4301625
0.4300968
0.4284248
0.435765
0.4357394
0.4324426
0.4710986
0.4708161
0.4426506
0.4232359
0.4232318
0.4225777
0.4248852
0.4248764
0.4240075
0.4270451
0.4270299
0.4258758
0.4300715
0.4300507
0.4283901
0.4357181
0.4356966
0.4323982
0.4705376
0.4702446
0.4426918
0.4232255
0.4232175
0.4225597
0.4248674
0.4248562
0.4239868
0.4270146
0.4269985
0.4258486
0.4300293
0.4300067
0.4283536
0.4356745
0.4356393
0.4323336
0.4699525
0.4696562
0.4427298
0.4232051
0.4231936
0.422511
0.4248437
0.4248309
0.4239648
0.4269802
0.4269621
0.4258187
0.4299776
0.4299476
0.4283118
0.4354046
0.4352239
0.4320426
0.4693592
0.4690538
0.442743
0.4231773
0.423146
0.4224702
0.424817
0.4248032
0.4239384
0.4269414
0.4269206
0.4257852
0.4299199
0.4298906
0.4282643
0.4351693
0.4351309
0.4319445
0.4687601
0.4684535
0.4426852
0.4231219
0.4231017
0.4224256
0.4247897
0.4247773
0.4239059
0.4268996
0.4268788
0.4257524
0.4298577
0.4298202
0.4282116
0.4350478
0.4347168
0.4318376
0.4681349
0.4677293
0.4416246
0.4230687
0.4230298
0.422417
0.4247625
0.4247517
0.4238469
0.4268604
0.4268443
0.4257292
0.4297819
0.4297368
0.4281586
0.4343942
0.4341356
0.4316707
0.4672797
0.466366
0.4402579
0.4230164
0.4230206
0.4224248
0.4247376
0.4247351
0.4237891
0.4268412
0.42686
0.4257409
0.4296829
0.4296203
0.42814
0.433839
0.4335766
0.4313696
0.4653323
0.4650448
0.4392299
0.4230557
0.4231213
0.4225217
0.4247778
0.4248051
0.4238708
0.426914
0.4269809
0.4258958
0.4295447
0.4295
0.4282023
0.4332752
0.4326052
0.4309076
0.4627836
0.4606487
0.4366699
0.4232646
0.423464
0.4228633
0.4248788
0.4250448
0.424259
0.4270714
0.4272392
0.426225
0.4295612
0.4297695
0.4284
0.4321832
0.4322358
0.4309893
0.4600127
0.4593754
0.4358482
0.423744
0.4240601
0.4234685
0.4252765
0.42563
0.4248375
0.427524
0.4279337
0.4264454
0.4301364
0.4304399
0.4289526
0.4325958
0.4330777
0.4317201
0.4504373
0.4482418
0.4349918
0.4244389
0.4248178
0.4242138
0.4259846
0.4265089
0.4255966
0.4281032
0.4284812
0.4275924
0.4303147
0.4302499
0.4297727
0.4332669
0.4331385
0.4313118
0.446733
0.4440662
0.4343644
0.4252558