/*--------------------------------*- C++ -*----------------------------------*\
| =========                 |                                                 |
| \\      /  F ield         | OpenFOAM: The Open Source CFD Toolbox           |
|  \\    /   O peration     | Version:  2206                                  |
|   \\  /    A nd           | Website:  www.openfoam.com                      |
|    \\/     M anipulation  |                                                 |
\*---------------------------------------------------------------------------*/
FoamFile
{
    version     2.0;
    format      ascii;
    arch        "LSB;label=32;scalar=64";
    class       volScalarField;
    location    "2";
    object      alphaEff.a;
}
// * * * * * * * * * * * * * * * * * * * * * * * * * * * * * * * * * * * * * //

dimensions      [0 0 0 0 0 0 0];

internalField   nonuniform List<scalar> 
13078
(
0.5931968
0.5926615
0.5920856
0.5914609
0.5907742
0.5900064
0.5891321
0.5931992
0.5926717
0.5920979
0.5914728
0.5907874
0.590021
0.5891492
0.5931994
0.5926734
0.5921086
0.5914846
0.5908005
0.5900356
0.5891663
0.5931995
0.5926737
0.5921099
0.5914955
0.5908134
0.5900502
0.5891834
0.5931997
0.5926741
0.5921105
0.5914971
0.5908254
0.5900648
0.5892004
0.5931999
0.5926744
0.5921112
0.5914981
0.5908273
0.5900784
0.5892174
0.5932001
0.5926749
0.5921138
0.591502
0.5908288
0.5900809
0.5892332
0.5932003
0.5926753
0.5921172
0.5915052
0.5908302
0.5900825
0.5892363
0.5932005
0.5926757
0.5921182
0.5915064
0.5908314
0.5900842
0.5892385
0.5932007
0.5926762
0.592119
0.5915075
0.5908327
0.5900859
0.5892407
0.593201
0.5926766
0.5921198
0.5915086
0.5908341
0.5900877
0.5892431
0.5932012
0.5926771
0.5921207
0.5915097
0.5908355
0.5900896
0.5892455
0.5932015
0.5926775
0.5921216
0.5915109
0.5908369
0.5900915
0.589248
0.5932017
0.592678
0.5921226
0.5915124
0.5908388
0.5900936
0.5892507
0.593202
0.5926785
0.5921237
0.5915171
0.5908456
0.5900962
0.5892534
0.5932023
0.5926791
0.592125
0.5915231
0.5908513
0.5900987
0.5892563
0.5932026
0.5926796
0.5921261
0.591525
0.5908535
0.5901011
0.5892593
0.5932029
0.5926802
0.5921272
0.5915267
0.5908556
0.5901035
0.5892624
0.5932032
0.5926808
0.5921284
0.5915284
0.590858
0.5901066
0.5892657
0.5932035
0.5926815
0.5921297
0.5915305
0.5908655
0.5901174
0.5892698
0.5932039
0.5926821
0.592131
0.5915328
0.590875
0.5901265
0.589274
0.5932042
0.5926828
0.5921323
0.5915348
0.5908783
0.5901301
0.5892778
0.5932046
0.5926836
0.5921338
0.591537
0.5908812
0.5901341
0.5892825
0.593205
0.5926843
0.5921353
0.5915392
0.5908847
0.5901453
0.5892987
0.5932054
0.5926851
0.5921368
0.5915415
0.5908884
0.5901595
0.5893124
0.5932059
0.592686
0.5921385
0.591544
0.5908919
0.5901647
0.5893182
0.5932063
0.5926869
0.5921402
0.5915466
0.5908955
0.5901695
0.5893244
0.5932069
0.5926879
0.592142
0.5915493
0.5908993
0.590175
0.5893414
0.5932077
0.592689
0.5921439
0.5915521
0.5909033
0.5901811
0.589363
0.5932097
0.5926917
0.5921462
0.5915551
0.5909075
0.5901867
0.5893713
0.5932126
0.5926941
0.5921487
0.5915583
0.5909119
0.5901926
0.5893799
0.5932136
0.5926975
0.5921552
0.5915625
0.5909165
0.5901988
0.5893891
0.5932145
0.5927022
0.5921642
0.5915729
0.590922
0.5902053
0.5893977
0.5932153
0.5927041
0.592173
0.5915816
0.5909282
0.5902123
0.5894067
0.5932162
0.5927058
0.5921768
0.591592
0.5909441
0.5902214
0.5894162
0.5932171
0.5927075
0.5921806
0.5916061
0.5909649
0.5902441
0.5894275
0.593218
0.5927093
0.5921841
0.5916127
0.5909847
0.5902631
0.5894403
0.593219
0.5927112
0.5921878
0.5916184
0.5909939
0.5902844
0.589472
0.5932202
0.5927134
0.5921917
0.5916243
0.5910031
0.5903121
0.5894992
0.5932228
0.5927176
0.5921963
0.5916304
0.5910118
0.5903255
0.5895303
0.5932269
0.592723
0.5922055
0.5916375
0.5910208
0.5903388
0.5895703
0.5932286
0.5927293
0.5922164
0.5916522
0.5910315
0.5903515
0.5895899
0.5932299
0.5927324
0.5922286
0.5916691
0.5910534
0.5903665
0.5896077
0.5932314
0.5927354
0.5922349
0.5916875
0.5910779
0.5903975
0.5896285
0.5932337
0.5927398
0.5922411
0.5916975
0.5911041
0.5904318
0.5896722
0.5932375
0.5927445
0.5922524
0.5917124
0.5911191
0.590468
0.5897198
0.5932383
0.592751
0.5922653
0.5917268
0.5911405
0.5904893
0.5897699
0.5932387
0.5927548
0.5922718
0.5917438
0.5911613
0.5905246
0.5898125
0.593239
0.5927581
0.5922772
0.5917534
0.5911854
0.5905615
0.5898514
0.5932393
0.5927612
0.5922823
0.5917612
0.5911978
0.5905803
0.5898938
0.5932397
0.5927676
0.5922915
0.5917689
0.5912086
0.5905961
0.5899185
0.5932408
0.5927761
0.5922992
0.5917865
0.591233
0.5906289
0.5899605
0.5932412
0.5927796
0.5923109
0.5918049
0.5912602
0.5906647
0.5899961
0.5932413
0.5927812
0.592314
0.5918111
0.5912694
0.5906782
0.5900246
0.5932414
0.5927824
0.5923162
0.5918147
0.5912749
0.5906861
0.5900391
0.5932414
0.5927837
0.5923186
0.5918187
0.5912808
0.5906941
0.5900501
0.5932414
0.5927837
0.5923186
0.5918187
0.5912808
0.5906941
0.5900501
0.5932414
0.5927824
0.5923162
0.5918147
0.5912749
0.5906861
0.5900391
0.5932413
0.5927812
0.592314
0.5918111
0.5912694
0.5906782
0.5900246
0.5932412
0.5927796
0.5923109
0.5918049
0.5912602
0.5906647
0.5899961
0.5932408
0.5927761
0.5922992
0.5917865
0.591233
0.5906289
0.5899605
0.5932397
0.5927676
0.5922915
0.5917689
0.5912086
0.5905961
0.5899185
0.5932393
0.5927612
0.5922823
0.5917612
0.5911978
0.5905803
0.5898938
0.593239
0.5927581
0.5922772
0.5917534
0.5911854
0.5905615
0.5898514
0.5932387
0.5927548
0.5922718
0.5917438
0.5911613
0.5905246
0.5898129
0.5932383
0.592751
0.5922653
0.5917268
0.5911405
0.5904893
0.5897705
0.5932375
0.5927445
0.5922524
0.5917124
0.5911191
0.5904687
0.5897278
0.5932337
0.5927398
0.5922411
0.5916975
0.5911046
0.590438
0.5896879
0.5932314
0.5927354
0.5922349
0.5916878
0.5910824
0.5904092
0.5896432
0.5932299
0.5927325
0.5922289
0.5916723
0.5910621
0.5903817
0.5896177
0.5932286
0.5927294
0.5922186
0.5916583
0.5910427
0.5903614
0.5895961
0.593227
0.5927242
0.5922095
0.5916451
0.591028
0.5903436
0.5895711
0.5932237
0.5927197
0.5922013
0.5916353
0.5910152
0.590326
0.5895304
0.5932215
0.592716
0.5921964
0.5916276
0.5910036
0.5903121
0.5894992
0.5932203
0.5927135
0.5921907
0.5916206
0.5909937
0.5902842
0.589472
0.5932192
0.5927107
0.5921855
0.5916126
0.5909787
0.5902587
0.5894398
0.5932181
0.5927084
0.5921808
0.591606
0.5909612
0.590237
0.5894269
0.5932166
0.5927063
0.5921769
0.591592
0.5909438
0.5902209
0.5894162
0.5932154
0.5927042
0.592173
0.5915816
0.5909281
0.5902123
0.5894067
0.5932145
0.5927022
0.5921642
0.5915729
0.590922
0.5902053
0.5893977
0.5932136
0.5926975
0.5921552
0.5915625
0.5909165
0.5901988
0.5893891
0.5932126
0.5926941
0.5921487
0.5915583
0.5909119
0.5901926
0.5893799
0.5932097
0.5926917
0.5921462
0.5915551
0.5909075
0.5901867
0.5893713
0.5932077
0.592689
0.5921439
0.5915521
0.5909033
0.5901811
0.589363
0.5932069
0.5926879
0.592142
0.5915493
0.5908993
0.590175
0.5893414
0.5932063
0.5926869
0.5921402
0.5915466
0.5908955
0.5901695
0.5893244
0.5932059
0.592686
0.5921385
0.591544
0.5908919
0.5901647
0.5893182
0.5932054
0.5926851
0.5921368
0.5915415
0.5908884
0.5901595
0.5893124
0.593205
0.5926843
0.5921353
0.5915392
0.5908847
0.5901453
0.5892987
0.5932046
0.5926836
0.5921338
0.591537
0.5908812
0.5901341
0.5892825
0.5932042
0.5926828
0.5921323
0.5915348
0.5908783
0.5901301
0.5892778
0.5932039
0.5926821
0.592131
0.5915328
0.590875
0.5901265
0.589274
0.5932035
0.5926815
0.5921297
0.5915305
0.5908655
0.5901174
0.5892698
0.5932032
0.5926808
0.5921284
0.5915284
0.590858
0.5901066
0.5892657
0.5932029
0.5926802
0.5921272
0.5915267
0.5908556
0.5901035
0.5892624
0.5932026
0.5926796
0.5921261
0.591525
0.5908535
0.5901011
0.5892593
0.5932023
0.5926791
0.592125
0.5915231
0.5908513
0.5900987
0.5892563
0.593202
0.5926785
0.5921237
0.5915171
0.5908456
0.5900962
0.5892534
0.5932017
0.592678
0.5921226
0.5915124
0.5908388
0.5900936
0.5892507
0.5932015
0.5926775
0.5921216
0.5915109
0.5908369
0.5900915
0.589248
0.5932012
0.5926771
0.5921207
0.5915097
0.5908355
0.5900896
0.5892455
0.593201
0.5926766
0.5921198
0.5915086
0.5908341
0.5900877
0.5892431
0.5932007
0.5926762
0.592119
0.5915075
0.5908327
0.5900859
0.5892407
0.5932005
0.5926757
0.5921182
0.5915064
0.5908314
0.5900842
0.5892385
0.5932003
0.5926753
0.5921172
0.5915052
0.5908302
0.5900825
0.5892363
0.5932001
0.5926749
0.5921138
0.591502
0.5908288
0.5900809
0.5892332
0.5931999
0.5926744
0.5921112
0.5914981
0.5908273
0.5900784
0.5892174
0.5931997
0.5926741
0.5921105
0.5914971
0.5908254
0.5900648
0.5892004
0.5931995
0.5926737
0.5921099
0.5914955
0.5908134
0.5900502
0.5891834
0.5931994
0.5926734
0.5921086
0.5914846
0.5908005
0.5900356
0.5891663
0.5931992
0.5926717
0.5920979
0.5914728
0.5907874
0.590021
0.5891492
0.5931968
0.5926615
0.5920856
0.5914609
0.5907742
0.5900064
0.5891321
0.588108
0.5868219
0.5851067
0.5834786
0.5805995
0.576116
0.5663954
0.5881286
0.586849
0.5851421
0.5835228
0.5806515
0.576188
0.5666318
0.5881492
0.5868757
0.5851775
0.5829572
0.5807035
0.57626
0.5668681
0.5881697
0.5869025
0.5852129
0.5836099
0.5807556
0.5763319
0.5670927
0.5881896
0.5869292
0.5852483
0.5836528
0.5808076
0.5764038
0.5672647
0.5882096
0.5869559
0.5852836
0.5836958
0.5808595
0.5764757
0.5674368
0.5882295
0.5869826
0.5853189
0.5837378
0.5808746
0.5765475
0.5676088
0.5882481
0.5870093
0.5853541
0.5837792
0.580889
0.5766187
0.5677807
0.5882522
0.5870343
0.5853877
0.5838218
0.5809306
0.5766828
0.5679527
0.5882553
0.5870404
0.5854194
0.5838644
0.5809722
0.5767469
0.5681245
0.5882584
0.587045
0.5854278
0.5839058
0.5810139
0.5768109
0.5682963
0.5882617
0.5870499
0.5854344
0.5839153
0.5810559
0.576875
0.5684679
0.5882651
0.5870549
0.5854413
0.5839239
0.5810641
0.5769402
0.5686396
0.5882687
0.5870601
0.5854485
0.5839329
0.5810732
0.5769551
0.5688144
0.5882724
0.5870656
0.585456
0.5839423
0.5810827
0.5769717
0.5688581
0.5882763
0.5870713
0.5854638
0.5839521
0.5810927
0.5769889
0.5689065
0.5882803
0.5870773
0.5854719
0.5839624
0.5811064
0.5770069
0.5689568
0.5882845
0.5870834
0.5854805
0.5839771
0.5812311
0.5770259
0.5690093
0.5882889
0.5870895
0.5854893
0.5839884
0.5812478
0.5770454
0.5690641
0.5882936
0.5870959
0.5854986
0.5840002
0.5812626
0.5770659
0.5691213
0.5882984
0.5871026
0.5855083
0.5840125
0.581278
0.5770872
0.5691811
0.5883035
0.5871097
0.5855185
0.5840254
0.581294
0.5771096
0.5692436
0.5883088
0.5871171
0.5855292
0.584039
0.5813129
0.5771332
0.5693091
0.5883154
0.5871248
0.5855404
0.5834904
0.5814309
0.5771685
0.5693778
0.5883222
0.587133
0.5855523
0.5840682
0.5814932
0.5771975
0.5694499
0.5883284
0.5871415
0.5855647
0.5840839
0.5815167
0.5772249
0.5695255
0.5883361
0.5871506
0.5855777
0.5841003
0.5815414
0.5772583
0.569588
0.5883608
0.5871607
0.5855915
0.5841177
0.5815735
0.5774982
0.5696545
0.5883804
0.5874943
0.5860317
0.584136
0.5816033
0.5775929
0.569724
0.5883899
0.5875039
0.5860452
0.5841552
0.5816308
0.5776312
0.5697972
0.5884251
0.5875445
0.5860595
0.5841756
0.5816597
0.5777943
0.5698947
0.5884509
0.5875777
0.5860747
0.5841971
0.5816904
0.577999
0.5699945
0.5884642
0.5876391
0.5860947
0.5842199
0.5817228
0.5780539
0.5701032
0.5884763
0.5876568
0.5861572
0.584244
0.5817571
0.5781269
0.5708907
0.588489
0.5876744
0.5862293
0.5842717
0.5817935
0.5781891
0.5710306
0.5885025
0.5876913
0.5863151
0.5843064
0.5818321
0.578255
0.571506
0.5885167
0.5877091
0.5863462
0.5844453
0.5818741
0.5783252
0.572011
0.5885335
0.5877279
0.5863737
0.5845342
0.5819691
0.5784002
0.5721765
0.5885521
0.5877477
0.5864027
0.5846502
0.5821349
0.5785157
0.5723576
0.5885961
0.5877683
0.5864333
0.5846966
0.5822987
0.5786357
0.5725292
0.588638
0.5877907
0.5864655
0.584741
0.5824735
0.5788151
0.5727208
0.5886952
0.5878751
0.5865561
0.584834
0.5825521
0.5791493
0.5730252
0.5887157
0.5879204
0.5866486
0.5849673
0.5826341
0.5794078
0.5733812
0.588738
0.587942
0.5866925
0.5850526
0.582813
0.5796322
0.5740627
0.588796
0.5880497
0.5868494
0.5851673
0.5830082
0.5797829
0.5746148
0.5888727
0.588122
0.5869365
0.5853416
0.5831196
0.5801487
0.5751764
0.5889316
0.5881961
0.5870264
0.5854243
0.5833707
0.5804283
0.5756852
0.5889801
0.5882627
0.5871208
0.5855978
0.5835665
0.5807606
0.5763852
0.5890458
0.5883333
0.5872436
0.5857743
0.583818
0.5811208
0.5769101
0.5890956
0.5883881
0.5873168
0.5859353
0.5840708
0.5815127
0.5776292
0.5891556
0.5884986
0.5874335
0.5860701
0.5843043
0.5819177
0.5782585
0.5891934
0.5885372
0.5875547
0.5862502
0.5845855
0.582296
0.5788921
0.589255
0.5886161
0.5876508
0.5863867
0.5847993
0.5826294
0.5796068
0.5892973
0.5886779
0.5877361
0.5865367
0.5849759
0.582987
0.5800866
0.5893169
0.5887106
0.5877927
0.5866357
0.5851142
0.5831195
0.5808756
0.589334
0.5887331
0.5878227
0.5866789
0.5851781
0.5832119
0.589334
0.5887421
0.5878345
0.5866953
0.5851983
0.5832449
0.5893169
0.5887245
0.5878111
0.5866616
0.5851413
0.5831722
0.5892973
0.5886944
0.5877693
0.5865796
0.5850645
0.5831119
0.5805851
0.589255
0.5886527
0.5876856
0.5864768
0.5848923
0.5828156
0.5796921
0.5891934
0.5885696
0.5875993
0.5863206
0.584675
0.5825107
0.5792552
0.5891556
0.5885204
0.5875239
0.5861851
0.5844277
0.5821261
0.5786567
0.5890956
0.5884418
0.5873466
0.5859824
0.5841827
0.5817094
0.5779403
0.5890458
0.5883535
0.5872887
0.5858525
0.5839519
0.5813165
0.5772759
0.5889842
0.5883117
0.5871817
0.5856903
0.5836881
0.5809144
0.5765692
0.5889329
0.5882221
0.5870877
0.5855082
0.5834998
0.5806173
0.5760508
0.5888833
0.5881775
0.5869806
0.5853814
0.5832365
0.5803291
0.5753421
0.5888153
0.5880857
0.5868805
0.5852567
0.5830649
0.5799505
0.5748616
0.5887576
0.5880113
0.5867783
0.5850876
0.582899
0.5797072
0.5743943
0.588715
0.5879411
0.5866815
0.5850202
0.5827322
0.5795586
0.5736882
0.5886902
0.5879056
0.5866274
0.5849025
0.5825913
0.5792463
0.5731947
0.5886432
0.5878409
0.5865209
0.5847682
0.5825115
0.5790003
0.5728223
0.5885963
0.5877803
0.5864506
0.5847186
0.582434
0.5787188
0.5726243
0.5885521
0.587758
0.5864178
0.5846752
0.5822171
0.5785842
0.5724422
0.5885335
0.5877377
0.5863881
0.5846229
0.5820042
0.5784378
0.5722756
0.5885167
0.5877184
0.5863598
0.5844671
0.5819154
0.578364
0.5720856
0.5885025
0.5877001
0.5863306
0.5843842
0.5818524
0.5782896
0.5719215
0.588489
0.5876827
0.5862802
0.5842883
0.5818125
0.5782215
0.5711153
0.5884763
0.5876662
0.5861989
0.5842567
0.581775
0.5781578
0.5709672
0.5884642
0.587648
0.5861055
0.5842318
0.5817397
0.5780889
0.5705365
0.5884509
0.5876042
0.5860848
0.5842083
0.5817064
0.578026
0.5700382
0.5884251
0.5875696
0.586067
0.5841862
0.5816749
0.577965
0.5699518
0.5883899
0.5875106
0.5860523
0.5841653
0.581645
0.5776578
0.5698362
0.5883804
0.5874992
0.5860384
0.5841455
0.5816169
0.5776117
0.5697601
0.5883608
0.5871607
0.5855915
0.5841267
0.5815892
0.5775722
0.5696889
0.5883361
0.5871506
0.5855777
0.5841089
0.5815563
0.5773513
0.5696208
0.5883284
0.5871415
0.5855647
0.584092
0.5815288
0.5772393
0.5695564
0.5883222
0.587133
0.5855523
0.584076
0.5815048
0.5772111
0.5694873
0.5883154
0.5871248
0.5855404
0.5840606
0.5814801
0.5771842
0.5694135
0.5883088
0.5871171
0.5855292
0.584046
0.5813542
0.5771495
0.5693431
0.5883035
0.5871097
0.5855185
0.584032
0.5813024
0.5771212
0.569276
0.5882984
0.5871026
0.5855083
0.5840188
0.5812859
0.5770983
0.569212
0.5882936
0.5870959
0.5854986
0.5840062
0.58127
0.5770765
0.5691509
0.5882889
0.5870895
0.5854893
0.5839942
0.581255
0.5770556
0.5690924
0.5882845
0.5870834
0.5854805
0.5839828
0.5812407
0.5770356
0.5690364
0.5882803
0.5870773
0.5854719
0.5839694
0.581175
0.5770163
0.5689828
0.5882763
0.5870713
0.5854638
0.5839572
0.5810978
0.5769978
0.5689314
0.5882724
0.5870656
0.585456
0.5839472
0.5810877
0.5769802
0.5688821
0.5882687
0.5870601
0.5854485
0.5839376
0.5810779
0.5769633
0.5688347
0.5882651
0.5870549
0.5854413
0.5839284
0.5810686
0.5769471
0.5687254
0.5882617
0.5870499
0.5854344
0.5839196
0.5810596
0.576907
0.5685538
0.5882584
0.587045
0.5854278
0.5839111
0.5810346
0.576843
0.5683821
0.5882553
0.5870404
0.5854194
0.5838855
0.5809931
0.5767789
0.5682103
0.5882522
0.5870343
0.5853877
0.5838429
0.5809514
0.5767149
0.5680386
0.5882481
0.5870093
0.5853541
0.5838002
0.5809098
0.5766507
0.5678667
0.5882295
0.5869826
0.5853189
0.5837576
0.5808697
0.5765833
0.5676948
0.5882096
0.5869559
0.5852836
0.5837169
0.5808837
0.5765116
0.5675228
0.5881896
0.5869292
0.5852483
0.5836738
0.5808335
0.5764398
0.5673508
0.5881697
0.5869025
0.5852129
0.5836307
0.5807816
0.5763679
0.5671787
0.5881492
0.5868757
0.5851775
0.5835875
0.5807296
0.5762959
0.5669863
0.5881286
0.586849
0.5851421
0.5835444
0.5806775
0.576224
0.56675
0.588108
0.5868219
0.5851067
0.5835012
0.5806255
0.576152
0.5665136
0.01015304
0.01
0.01
0.01
0.01
0.01
0.01
0.01
0.01
0.01
0.01
0.01
0.01
0.01
0.01
0.01
0.01
0.01
0.01029204
0.01
0.01
0.01
0.01
0.01
0.01
0.01
0.01
0.01
0.01
0.01
0.01
0.01
0.01
0.01
0.01
0.01
0.01043105
0.01
0.01
0.01
0.01
0.01
0.01
0.01
0.01
0.01
0.01
0.01
0.01
0.01
0.01
0.01
0.01
0.01
0.01057002
0.01
0.01
0.01
0.01
0.01
0.01
0.01
0.01
0.01
0.01
0.01
0.01
0.01
0.01
0.01
0.01
0.01
0.010709
0.01
0.01
0.01
0.01
0.01
0.01
0.01
0.01
0.01
0.01
0.01
0.01
0.01
0.01
0.01
0.01
0.01
0.01084791
0.01
0.01
0.01
0.01
0.01
0.01
0.01
0.01
0.01
0.01
0.01
0.01
0.01
0.01
0.01
0.01
0.01
0.01098681
0.01
0.01
0.01
0.01
0.01
0.01
0.01
0.01
0.01
0.01
0.01
0.01
0.01
0.01
0.01
0.01
0.01
0.01112569
0.01
0.01
0.01
0.01
0.01
0.01
0.01
0.01
0.01
0.01
0.01
0.01
0.01
0.01
0.01
0.01
0.01
0.01126452
0.01
0.01
0.01
0.01
0.01
0.01
0.01
0.01
0.01
0.01
0.01
0.01
0.01
0.01
0.01
0.01
0.01
0.01140333
0.01
0.01
0.01
0.01
0.01
0.01
0.01
0.01
0.01
0.01
0.01
0.01
0.01
0.01
0.01
0.01
0.01
0.01154213
0.01
0.01
0.01
0.01
0.01
0.01
0.01
0.01
0.01
0.01
0.01
0.01
0.01
0.01
0.01
0.01
0.01
0.01168087
0.01
0.01
0.01
0.01
0.01
0.01
0.01
0.01
0.01
0.01
0.01
0.01
0.01
0.01
0.01
0.01
0.01
0.01181958
0.01
0.01
0.01
0.01
0.01
0.01
0.01
0.01
0.01
0.01
0.01
0.01
0.01
0.01
0.01
0.01
0.01
0.01195824
0.01
0.01
0.01
0.01
0.01
0.01
0.01
0.01
0.01
0.01
0.01
0.01
0.01
0.01
0.01
0.01
0.01
0.01852655
0.01
0.01
0.01
0.01
0.01
0.01
0.01
0.01
0.01
0.01
0.01
0.01
0.01
0.01
0.01
0.01
0.01
0.02086896
0.01
0.01
0.01
0.01
0.01
0.01
0.01
0.01
0.01
0.01
0.01
0.01
0.01
0.01
0.01
0.01
0.01
0.02345505
0.01
0.01
0.01
0.01
0.01
0.01
0.01
0.01
0.01
0.01
0.01
0.01
0.01
0.01
0.01
0.01
0.01
0.02614874
0.01
0.01
0.01
0.01
0.01
0.01
0.01
0.01
0.01
0.01
0.01
0.01
0.01
0.01
0.01
0.01
0.01
0.02896104
0.01
0.01
0.01
0.01
0.01
0.01
0.01
0.01
0.01
0.01
0.01
0.01
0.01
0.01
0.01
0.01
0.01
0.03189456
0.01
0.01
0.01
0.01
0.01
0.01
0.01
0.01
0.01
0.01
0.01
0.01
0.01
0.01
0.01
0.01
0.01
0.03496163
0.01
0.01
0.01
0.01
0.01
0.01
0.01
0.01
0.01
0.01
0.01
0.01
0.01
0.01
0.01
0.01
0.01
0.03816864
0.01
0.01
0.01
0.01
0.01
0.01
0.01
0.01
0.01
0.01
0.01
0.01
0.01
0.01
0.01
0.01
0.01
0.04152533
0.01
0.01
0.01
0.01
0.01
0.01
0.01
0.01
0.01
0.01
0.01
0.01
0.01
0.01
0.01
0.01
0.01
0.04504467
0.01
0.01
0.01
0.01
0.01
0.01
0.01
0.01
0.01
0.01
0.01
0.01
0.01
0.01
0.01
0.01
0.01
0.04873575
0.01
0.01
0.01
0.01
0.01
0.01
0.01
0.01
0.01
0.01
0.01
0.01
0.01
0.01
0.01
0.01
0.01
0.05261361
0.01
0.01
0.01
0.01
0.01
0.01
0.01
0.01
0.01
0.01
0.01
0.01
0.01
0.01
0.01
0.01
0.01
0.05668952
0.01
0.01
0.01
0.01
0.01
0.01
0.01
0.01
0.01
0.01
0.01
0.01
0.01
0.01
0.01
0.01
0.01
0.06097769
0.01
0.01
0.01
0.01
0.01
0.01
0.01
0.01
0.01
0.01
0.01
0.01
0.01
0.01
0.01
0.01
0.01
0.06549883
0.01
0.01
0.01
0.01
0.01
0.01
0.01
0.01
0.01
0.01
0.01
0.01
0.01
0.01
0.01
0.01
0.01
0.07026594
0.01
0.01
0.01
0.01
0.01
0.01
0.01
0.01
0.01
0.01
0.01
0.01
0.01
0.01
0.01
0.01
0.01
0.075304
0.01
0.01
0.01
0.01
0.01
0.01
0.01
0.01
0.01
0.01
0.01
0.01
0.01
0.01
0.01
0.01
0.01
0.08063105
0.01
0.01
0.01
0.01
0.01
0.01
0.01
0.01
0.01
0.01
0.01
0.01
0.01
0.01
0.01
0.01
0.01
0.086272
0.01
0.01
0.01
0.01
0.01
0.01
0.01
0.01
0.01
0.01
0.01
0.01
0.01
0.01
0.01
0.01
0.01
0.09251823
0.01
0.01
0.01
0.01
0.01
0.01
0.01
0.01
0.01
0.01
0.01
0.01
0.01
0.01
0.01
0.01
0.01
0.1110133
0.01
0.01
0.01
0.01
0.01
0.01
0.01
0.01
0.01
0.01
0.01
0.01
0.01
0.01
0.01
0.01
0.01
0.1200729
0.01
0.01
0.01
0.01
0.01
0.01
0.01
0.01
0.01
0.01
0.01
0.01
0.01
0.01
0.01
0.01
0.01
0.1291351
0.01
0.01
0.01
0.01
0.01
0.01
0.01
0.01
0.01
0.01
0.01
0.01
0.01
0.01
0.01
0.01
0.01
0.2501964
0.01
0.01
0.01
0.01
0.01
0.01
0.01
0.01
0.01
0.01
0.01
0.01
0.01
0.01
0.01
0.01
0.01
0.3667927
0.01
0.01
0.01
0.01
0.01
0.01
0.01
0.01
0.01
0.01
0.01
0.01
0.01
0.01
0.01
0.01
0.01
0.4713909
0.01
0.01
0.01
0.01
0.01
0.01
0.01
0.01
0.01
0.01
0.01
0.01
0.01
0.01
0.01
0.01
0.01
0.5389429
0.01
0.01
0.01
0.01
0.01
0.01
0.01
0.01
0.01
0.01
0.01
0.01
0.01
0.01
0.01
0.01
0.01
0.5420912
0.01
0.01
0.01
0.01
0.01
0.01
0.01
0.01
0.01
0.01
0.01
0.01
0.01
0.01
0.01
0.01
0.01
0.5457162
0.01
0.01
0.01
0.01
0.01
0.01
0.01
0.01
0.01
0.01
0.01
0.01
0.01
0.01
0.01
0.01
0.01
0.5496035
0.01
0.01
0.01
0.01
0.01
0.01
0.01
0.01
0.01
0.01
0.01
0.01
0.01
0.01
0.01
0.01
0.01
0.5569661
0.01
0.01
0.01
0.01
0.01
0.01
0.01
0.01
0.01
0.01
0.01
0.01
0.01
0.01
0.01
0.01
0.01
0.5608407
0.01
0.01
0.01
0.01
0.01
0.01
0.01
0.01
0.01
0.01
0.01
0.01
0.01
0.01
0.01
0.01
0.01
0.5639492
0.01
0.01
0.01
0.01
0.01
0.01
0.01
0.01
0.01
0.01
0.01
0.01
0.01
0.01
0.01
0.01
0.01
0.5659358
0.01000191
0.01
0.01
0.01
0.01
0.01
0.01
0.01
0.01
0.01
0.01
0.01
0.01
0.01
0.01
0.01
0.01
0.5680997
0.01004799
0.01
0.01
0.01
0.01
0.01
0.01
0.01
0.01
0.01
0.01
0.01
0.01
0.01
0.01
0.01
0.01
0.5699118
0.01168384
0.01
0.01
0.01
0.01
0.01
0.01
0.01
0.01
0.01
0.01
0.01
0.01
0.5715286
0.1176622
0.01
0.01
0.01
0.01
0.01
0.01
0.01
0.01
0.5725697
0.01
0.01
0.01
0.01
0.01
0.01
0.01
0.01
0.01
0.01
0.01
0.01
0.01
0.01
0.01
0.01
0.01
0.01
0.01
0.01
0.01
0.01
0.01
0.01
0.01
0.01
0.01
0.01
0.01
0.01
0.01
0.01
0.01
0.01
0.01
0.01
0.01
0.01
0.01
0.01
0.01
0.01
0.01
0.01
0.01
0.01
0.01
0.01
0.01
0.573662
0.01
0.01
0.01
0.01
0.01
0.01
0.5721281
0.4066692
0.01
0.01
0.01
0.01
0.01
0.01
0.01
0.5707291
0.04917156
0.01
0.01
0.01
0.01
0.01
0.01
0.01
0.01
0.01
0.01
0.5690399
0.01061329
0.01
0.01
0.01
0.01
0.01
0.01
0.01
0.01
0.01
0.01
0.01
0.01
0.01
0.01
0.01
0.01
0.5671056
0.01000591
0.01
0.01
0.01
0.01
0.01
0.01
0.01
0.01
0.01
0.01
0.01
0.01
0.01
0.01
0.01
0.01
0.5648517
0.01
0.01
0.01
0.01
0.01
0.01
0.01
0.01
0.01
0.01
0.01
0.01
0.01
0.01
0.01
0.01
0.01
0.5624989
0.01
0.01
0.01
0.01
0.01
0.01
0.01
0.01
0.01
0.01
0.01
0.01
0.01
0.01
0.01
0.01
0.01
0.5595932
0.01
0.01
0.01
0.01
0.01
0.01
0.01
0.01
0.01
0.01
0.01
0.01
0.01
0.01
0.01
0.01
0.01
0.5533815
0.01
0.01
0.01
0.01
0.01
0.01
0.01
0.01
0.01
0.01
0.01
0.01
0.01
0.01
0.01
0.01
0.01
0.5477065
0.01
0.01
0.01
0.01
0.01
0.01
0.01
0.01
0.01
0.01
0.01
0.01
0.01
0.01
0.01
0.01
0.01
0.5438283
0.01
0.01
0.01
0.01
0.01
0.01
0.01
0.01
0.01
0.01
0.01
0.01
0.01
0.01
0.01
0.01
0.01
0.5406114
0.01
0.01
0.01
0.01
0.01
0.01
0.01
0.01
0.01
0.01
0.01
0.01
0.01
0.01
0.01
0.01
0.01
0.5374628
0.01
0.01
0.01
0.01
0.01
0.01
0.01
0.01
0.01
0.01
0.01
0.01
0.01
0.01
0.01
0.01
0.01
0.4269472
0.01
0.01
0.01
0.01
0.01
0.01
0.01
0.01
0.01
0.01
0.01
0.01
0.01
0.01
0.01
0.01
0.01
0.3786575
0.01
0.01
0.01
0.01
0.01
0.01
0.01
0.01
0.01
0.01
0.01
0.01
0.01
0.01
0.01
0.01
0.01
0.1707455
0.01
0.01
0.01
0.01
0.01
0.01
0.01
0.01
0.01
0.01
0.01
0.01
0.01
0.01
0.01
0.01
0.01
0.1376289
0.01
0.01
0.01
0.01
0.01
0.01
0.01
0.01
0.01
0.01
0.01
0.01
0.01
0.01
0.01
0.01
0.01
0.1242117
0.01
0.01
0.01
0.01
0.01
0.01
0.01
0.01
0.01
0.01
0.01
0.01
0.01
0.01
0.01
0.01
0.01
0.1050316
0.01
0.01
0.01
0.01
0.01
0.01
0.01
0.01
0.01
0.01
0.01
0.01
0.01
0.01
0.01
0.01
0.01
0.08926028
0.01
0.01
0.01
0.01
0.01
0.01
0.01
0.01
0.01
0.01
0.01
0.01
0.01
0.01
0.01
0.01
0.01
0.08341329
0.01
0.01
0.01
0.01
0.01
0.01
0.01
0.01
0.01
0.01
0.01
0.01
0.01
0.01
0.01
0.01
0.01
0.07793194
0.01
0.01
0.01
0.01
0.01
0.01
0.01
0.01
0.01
0.01
0.01
0.01
0.01
0.01
0.01
0.01
0.01
0.07275322
0.01
0.01
0.01
0.01
0.01
0.01
0.01
0.01
0.01
0.01
0.01
0.01
0.01
0.01
0.01
0.01
0.01
0.0678529
0.01
0.01
0.01
0.01
0.01
0.01
0.01
0.01
0.01
0.01
0.01
0.01
0.01
0.01
0.01
0.01
0.01
0.06320989
0.01
0.01
0.01
0.01
0.01
0.01
0.01
0.01
0.01
0.01
0.01
0.01
0.01
0.01
0.01
0.01
0.01
0.0588078
0.01
0.01
0.01
0.01
0.01
0.01
0.01
0.01
0.01
0.01
0.01
0.01
0.01
0.01
0.01
0.01
0.01
0.05462689
0.01
0.01
0.01
0.01
0.01
0.01
0.01
0.01
0.01
0.01
0.01
0.01
0.01
0.01
0.01
0.01
0.01
0.05065303
0.01
0.01
0.01
0.01
0.01
0.01
0.01
0.01
0.01
0.01
0.01
0.01
0.01
0.01
0.01
0.01
0.01
0.04687102
0.01
0.01
0.01
0.01
0.01
0.01
0.01
0.01
0.01
0.01
0.01
0.01
0.01
0.01
0.01
0.01
0.01
0.04326773
0.01
0.01
0.01
0.01
0.01
0.01
0.01
0.01
0.01
0.01
0.01
0.01
0.01
0.01
0.01
0.01
0.01
0.03983028
0.01
0.01
0.01
0.01
0.01
0.01
0.01
0.01
0.01
0.01
0.01
0.01
0.01
0.01
0.01
0.01
0.01
0.03654842
0.01
0.01
0.01
0.01
0.01
0.01
0.01
0.01
0.01
0.01
0.01
0.01
0.01
0.01
0.01
0.01
0.01
0.03341299
0.01
0.01
0.01
0.01
0.01
0.01
0.01
0.01
0.01
0.01
0.01
0.01
0.01
0.01
0.01
0.01
0.01
0.03041291
0.01
0.01
0.01
0.01
0.01
0.01
0.01
0.01
0.01
0.01
0.01
0.01
0.01
0.01
0.01
0.01
0.01
0.02754141
0.01
0.01
0.01
0.01
0.01
0.01
0.01
0.01
0.01
0.01
0.01
0.01
0.01
0.01
0.01
0.01
0.01
0.02478972
0.01
0.01
0.01
0.01
0.01
0.01
0.01
0.01
0.01
0.01
0.01
0.01
0.01
0.01
0.01
0.01
0.01
0.02214985
0.01
0.01
0.01
0.01
0.01
0.01
0.01
0.01
0.01
0.01
0.01
0.01
0.01
0.01
0.01
0.01
0.01
0.01961755
0.01
0.01
0.01
0.01
0.01
0.01
0.01
0.01
0.01
0.01
0.01
0.01
0.01
0.01
0.01
0.01
0.01
0.01410062
0.01
0.01
0.01
0.01
0.01
0.01
0.01
0.01
0.01
0.01
0.01
0.01
0.01
0.01
0.01
0.01
0.01
0.01188891
0.01
0.01
0.01
0.01
0.01
0.01
0.01
0.01
0.01
0.01
0.01
0.01
0.01
0.01
0.01
0.01
0.01
0.01175023
0.01
0.01
0.01
0.01
0.01
0.01
0.01
0.01
0.01
0.01
0.01
0.01
0.01
0.01
0.01
0.01
0.01
0.01161151
0.01
0.01
0.01
0.01
0.01
0.01
0.01
0.01
0.01
0.01
0.01
0.01
0.01
0.01
0.01
0.01
0.01
0.01147276
0.01
0.01
0.01
0.01
0.01
0.01
0.01
0.01
0.01
0.01
0.01
0.01
0.01
0.01
0.01
0.01
0.01
0.01133394
0.01
0.01
0.01
0.01
0.01
0.01
0.01
0.01
0.01
0.01
0.01
0.01
0.01
0.01
0.01
0.01
0.01
0.01119512
0.01
0.01
0.01
0.01
0.01
0.01
0.01
0.01
0.01
0.01
0.01
0.01
0.01
0.01
0.01
0.01
0.01
0.01105624
0.01
0.01
0.01
0.01
0.01
0.01
0.01
0.01
0.01
0.01
0.01
0.01
0.01
0.01
0.01
0.01
0.01
0.01091737
0.01
0.01
0.01
0.01
0.01
0.01
0.01
0.01
0.01
0.01
0.01
0.01
0.01
0.01
0.01
0.01
0.01
0.01077842
0.01
0.01
0.01
0.01
0.01
0.01
0.01
0.01
0.01
0.01
0.01
0.01
0.01
0.01
0.01
0.01
0.01
0.0106395
0.01
0.01
0.01
0.01
0.01
0.01
0.01
0.01
0.01
0.01
0.01
0.01
0.01
0.01
0.01
0.01
0.01
0.01050055
0.01
0.01
0.01
0.01
0.01
0.01
0.01
0.01
0.01
0.01
0.01
0.01
0.01
0.01
0.01
0.01
0.01
0.01036157
0.01
0.01
0.01
0.01
0.01
0.01
0.01
0.01
0.01
0.01
0.01
0.01
0.01
0.01
0.01
0.01
0.01
0.01022256
0.01
0.01
0.01
0.01
0.01
0.01
0.01
0.01
0.01
0.01
0.01
0.01
0.01
0.01
0.01
0.01
0.01
0.01
0.01
0.01
0.01
0.01
0.01
0.01
0.01
0.01
0.01
0.01
0.01
0.01
0.01
0.01
0.01
0.01
0.01
0.01
0.01
0.01
0.01
0.01
0.01
0.01
0.01
0.01
0.01
0.01
0.01
0.01
0.01
0.01
0.01
0.01
0.01
0.01
0.01
0.01
0.01
0.01
0.01
0.01
0.01
0.01
0.01
0.01
0.01
0.01
0.01
0.01
0.01
0.01
0.01
0.01
0.01
0.01
0.01
0.01
0.01
0.01
0.01
0.01
0.01
0.01
0.01
0.01
0.01
0.01
0.01
0.01
0.01
0.01
0.01
0.01
0.01
0.01
0.01
0.01
0.01
0.01
0.01
0.01
0.01
0.01
0.01
0.01
0.01
0.01
0.01
0.01
0.01
0.01
0.01
0.01
0.01
0.01
0.01
0.01
0.01
0.01
0.01
0.01
0.01
0.01
0.01
0.01
0.01
0.01
0.01
0.01
0.01
0.01
0.01
0.01
0.01
0.01
0.01
0.01
0.01
0.01
0.01
0.01
0.01
0.01
0.01
0.01
0.01
0.01
0.01
0.01
0.01
0.01
0.01
0.01
0.01
0.01
0.01
0.01
0.01
0.01
0.01
0.01
0.01
0.01
0.01
0.01
0.01
0.01
0.01
0.01
0.01
0.01
0.01
0.01
0.01
0.01
0.01
0.01
0.01
0.01
0.01
0.01
0.01
0.01
0.01
0.01
0.01
0.01
0.01
0.01
0.01
0.01
0.01
0.01
0.01
0.01
0.01
0.01
0.01
0.01
0.01
0.01
0.01
0.01
0.01
0.01
0.01
0.01
0.01
0.01
0.01
0.01
0.01
0.01
0.01
0.01
0.01
0.01
0.01
0.01
0.01
0.01
0.01
0.01
0.01
0.01
0.01
0.01
0.01
0.01
0.01
0.01
0.01
0.01
0.01
0.01
0.01
0.01
0.01
0.01
0.01
0.01
0.01
0.01
0.01
0.01
0.01
0.01
0.01
0.01
0.01
0.01
0.01
0.01
0.01
0.01
0.01
0.01
0.01
0.01
0.01
0.01
0.01
0.01
0.01
0.01
0.01
0.01
0.01
0.01
0.01
0.01
0.01
0.01
0.01
0.01
0.01
0.01
0.01
0.01
0.01
0.01
0.01
0.01
0.01
0.01
0.01
0.01
0.01
0.01
0.01
0.01
0.01
0.01
0.01
0.01
0.01
0.01
0.01
0.01
0.01
0.01
0.01
0.01
0.01
0.01
0.01
0.01
0.01
0.01
0.01
0.01
0.01
0.01
0.01
0.01
0.01
0.01
0.01
0.01
0.01
0.01
0.01
0.01
0.01
0.01
0.01
0.01
0.01
0.01
0.01
0.01
0.01
0.01
0.01
0.01
0.01
0.01
0.01
0.01
0.01
0.01
0.01
0.01
0.01
0.01
0.01
0.01
0.01
0.01
0.01
0.01
0.01
0.01
0.01
0.01
0.01
0.01
0.01
0.01
0.01
0.01
0.01
0.01
0.01
0.01
0.01
0.01
0.01
0.01
0.01
0.01
0.01
0.01
0.01
0.01
0.01
0.01
0.01
0.01
0.01
0.01
0.01
0.01
0.01
0.01
0.01
0.01
0.01
0.01
0.01
0.01
0.01
0.01
0.01
0.01
0.01
0.01
0.01
0.01
0.01
0.01
0.01
0.01
0.01
0.01
0.01
0.01
0.01
0.01
0.01
0.01
0.01
0.01
0.01
0.01
0.01
0.01
0.01
0.01
0.01
0.01
0.01
0.01
0.01
0.01
0.01
0.01
0.01
0.01
0.01
0.01
0.01
0.01
0.01
0.01
0.01
0.01
0.01
0.01
0.01
0.01
0.01
0.01
0.01
0.01
0.01
0.01
0.01
0.01
0.01
0.01
0.01
0.01
0.01
0.01
0.01
0.01
0.01
0.01
0.01
0.01
0.01
0.01
0.01
0.01
0.01
0.01
0.01
0.01
0.01
0.01
0.01
0.01
0.01
0.01
0.01
0.01
0.01
0.01
0.01
0.01
0.01
0.01
0.01
0.01
0.01
0.01
0.01
0.01
0.01
0.01
0.01
0.01
0.01
0.01
0.01
0.01
0.01
0.01
0.01
0.01
0.01
0.01
0.01
0.01
0.01
0.01
0.01
0.01
0.01
0.01
0.01
0.01
0.01
0.01
0.01
0.01
0.01
0.01
0.01
0.01
0.01
0.01
0.01
0.01
0.01
0.01
0.01
0.01
0.01
0.01
0.01
0.01
0.01
0.01
0.01
0.01
0.01
0.01
0.01
0.01
0.01
0.01
0.01
0.01
0.01
0.01
0.01
0.01
0.01
0.01
0.01
0.01
0.01
0.01
0.01
0.01
0.01
0.01
0.01
0.01
0.01
0.01
0.01
0.01
0.01
0.01
0.01
0.01
0.01
0.01
0.01
0.01
0.01
0.01
0.01
0.01
0.01
0.01
0.01
0.01
0.01
0.01
0.01
0.01
0.01
0.01
0.01
0.01
0.01
0.01
0.01
0.01
0.01
0.01
0.01
0.01
0.01
0.01
0.01
0.01
0.01
0.01
0.01
0.01
0.01
0.01
0.01
0.01
0.01
0.01
0.01
0.01
0.01
0.01
0.01
0.01
0.01
0.01
0.01
0.01
0.01
0.01
0.01
0.01
0.01
0.01
0.01
0.01
0.01
0.01
0.01
0.01
0.01
0.01
0.01
0.01
0.01
0.01
0.01
0.01
0.01
0.01
0.01
0.01
0.01
0.01
0.01
0.01
0.01
0.01
0.01
0.01
0.01
0.01
0.01
0.01
0.01
0.01
0.01
0.01
0.01
0.01
0.01
0.01
0.01
0.01
0.01
0.01
0.01
0.01
0.01
0.01
0.01
0.01
0.01
0.01
0.01
0.01
0.01
0.01
0.01
0.01
0.01
0.01
0.01
0.01
0.01
0.01
0.01
0.01
0.01
0.01
0.01
0.01
0.01
0.01
0.01
0.01
0.01
0.01
0.01
0.01
0.01
0.01
0.01
0.01
0.01
0.01
0.01
0.01
0.01
0.01
0.01
0.01
0.01
0.01
0.01
0.01
0.01
0.01
0.01
0.01
0.01
0.01
0.01
0.01
0.01
0.01
0.01
0.01
0.01
0.01
0.01
0.01
0.01
0.01
0.01
0.01
0.01
0.01
0.01
0.01
0.01