/*--------------------------------*- C++ -*----------------------------------*\
| =========                 |                                                 |
| \\      /  F ield         | OpenFOAM: The Open Source CFD Toolbox           |
|  \\    /   O peration     | Version:  2206                                  |
|   \\  /    A nd           | Website:  www.openfoam.com                      |
|    \\/     M anipulation  |                                                 |
\*---------------------------------------------------------------------------*/
FoamFile
{
    version     2.0;
    format      ascii;
    arch        "LSB;label=32;scalar=64";
    class       volScalarField;
    location    "2";
    object      alpha.a_0;
}
// * * * * * * * * * * * * * * * * * * * * * * * * * * * * * * * * * * * * * //

dimensions      [0 0 0 0 0 0 0];

internalField   nonuniform List<scalar> 
13078
(
0.5157406
0.5624742
0.5804358
0.5810171
0.5805134
0.5797961
0.578951
0.5668006
0.580287
0.5816513
0.5811848
0.5805538
0.5798237
0.5789739
0.58229
0.5824143
0.5819232
0.5812976
0.5806209
0.5798677
0.5790076
0.5833778
0.5826748
0.5820343
0.5813869
0.5806859
0.5799147
0.5790451
0.5834665
0.5827518
0.5821041
0.5814406
0.5807395
0.5799592
0.5790821
0.5834277
0.5827634
0.582136
0.5814754
0.5807689
0.579996
0.5791169
0.5833856
0.5827549
0.5821489
0.5814962
0.5807895
0.5800141
0.5791465
0.583355
0.5827412
0.5821528
0.5815064
0.5808012
0.5800269
0.5791589
0.5833332
0.5827283
0.5821495
0.5815091
0.5808073
0.580035
0.579168
0.5833176
0.5827176
0.5821447
0.5815091
0.5808103
0.5800402
0.5791744
0.5833059
0.5827089
0.5821398
0.5815077
0.5808115
0.5800434
0.5791791
0.5832966
0.5827021
0.5821354
0.5815057
0.5808116
0.5800455
0.5791826
0.5832892
0.5826964
0.5821315
0.5815037
0.5808113
0.5800469
0.5791855
0.5832829
0.5826916
0.582128
0.5815019
0.5808111
0.5800479
0.5791879
0.5832775
0.5826874
0.5821252
0.5815041
0.5808161
0.5800494
0.5791902
0.5832726
0.5826838
0.5821228
0.5815071
0.5808195
0.5800506
0.5791924
0.583268
0.5826802
0.5821203
0.5815061
0.5808195
0.5800516
0.5791946
0.5832635
0.5826768
0.5821178
0.581505
0.5808195
0.5800526
0.5791969
0.5832589
0.5826735
0.5821155
0.5815038
0.5808197
0.5800542
0.5791993
0.5832542
0.5826702
0.5821132
0.5815032
0.5808256
0.5800637
0.5792027
0.5832494
0.5826666
0.5821109
0.5815026
0.5808327
0.5800709
0.5792063
0.583244
0.5826627
0.5821082
0.5815013
0.5808338
0.5800731
0.5792093
0.5832382
0.5826586
0.5821055
0.5815002
0.5808343
0.5800757
0.5792136
0.5832317
0.582654
0.5821024
0.5814989
0.5808356
0.5800863
0.5792293
0.5832244
0.5826488
0.5820989
0.5814975
0.5808369
0.5800986
0.5792418
0.5832162
0.582643
0.582095
0.5814959
0.5808377
0.5801032
0.579248
0.5832066
0.5826362
0.5820905
0.5814941
0.5808385
0.580107
0.5792551
0.5831958
0.5826284
0.5820854
0.5814919
0.5808394
0.5801118
0.5792739
0.5831831
0.5826194
0.5820794
0.5814892
0.5808403
0.5801166
0.579295
0.5831703
0.5826108
0.582073
0.5814861
0.5808407
0.5801205
0.5793051
0.583155
0.5826001
0.5820654
0.5814823
0.5808407
0.5801242
0.579314
0.5831366
0.5825904
0.5820617
0.5814788
0.58084
0.5801272
0.5793216
0.5831164
0.5825797
0.5820597
0.5814824
0.5808415
0.5801315
0.5793287
0.5830953
0.5825682
0.582059
0.5814855
0.5808495
0.5801454
0.5793452
0.5830762
0.5825633
0.5820702
0.5815197
0.5808982
0.5801917
0.5793877
0.5830664
0.5825809
0.5821209
0.5816086
0.5810107
0.580301
0.5794673
0.5830793
0.582653
0.5822487
0.5817688
0.5811841
0.5804243
0.5795202
0.5831423
0.5828142
0.5824589
0.581974
0.5813502
0.5805167
0.5794567
0.58329
0.5830533
0.5827037
0.5821682
0.581452
0.5805281
0.579242
0.5835477
0.5833334
0.5829339
0.5823173
0.5814813
0.5804176
0.5789703
0.5839017
0.5836113
0.5831659
0.5824257
0.5814769
0.5802988
0.5788029
0.5843376
0.583869
0.5833675
0.582569
0.581527
0.580267
0.5786336
0.5848051
0.5841069
0.5835438
0.582739
0.5817219
0.5802748
0.5784605
0.5852349
0.5842465
0.5837125
0.5829308
0.5818158
0.580234
0.5782295
0.5855063
0.5842888
0.583806
0.5829775
0.5817549
0.5801032
0.5781685
0.5855415
0.5842575
0.5837728
0.5828076
0.5815188
0.57993
0.5781039
0.5854668
0.584216
0.5835618
0.5824846
0.5811537
0.5796001
0.5779532
0.5854416
0.5841397
0.583326
0.582157
0.5808088
0.5792491
0.5775201
0.5853614
0.5839937
0.5831486
0.581869
0.5804959
0.5789559
0.5772296
0.5851856
0.5838361
0.5829807
0.5816163
0.5802034
0.5786537
0.5772509
0.5849182
0.5837229
0.5828375
0.5813483
0.5799553
0.5785602
0.5774003
0.5845931
0.5835634
0.5826765
0.5812212
0.5799452
0.5788235
0.5779143
0.5842628
0.5833499
0.5824152
0.5810413
0.5799274
0.5789962
0.5779553
0.5839891
0.5831508
0.5821943
0.5808187
0.5797108
0.5786705
0.5776692
0.5837752
0.582974
0.5819908
0.5806196
0.5794675
0.5783214
0.577168
0.583614
0.5828351
0.5818392
0.5804783
0.5792644
0.5780195
0.5767217
0.5835681
0.5827427
0.5817251
0.5803364
0.5790625
0.5777696
0.5764941
0.5836641
0.5827584
0.5817279
0.5802922
0.5789581
0.5776675
0.576501
0.5838009
0.5828173
0.581795
0.5803216
0.5788789
0.5775147
0.5764354
0.5839684
0.5828816
0.5818725
0.5803871
0.5788647
0.5773546
0.5758943
0.5841837
0.5829806
0.5819979
0.5804536
0.5789107
0.5772687
0.5756085
0.5844075
0.5830733
0.5821524
0.5806513
0.5791245
0.5774159
0.5757918
0.5845783
0.5831764
0.5822831
0.5808958
0.579399
0.5777257
0.5761356
0.5846733
0.5833486
0.5824941
0.5811867
0.5797203
0.5780592
0.5763631
0.5847131
0.5835721
0.5827808
0.5815316
0.5800354
0.5783164
0.5765161
0.5847739
0.5837441
0.5830701
0.5818581
0.5802995
0.5784643
0.5767
0.584839
0.5838395
0.5832459
0.5821154
0.5805645
0.5787569
0.5768852
0.5847397
0.5838328
0.5832367
0.5822618
0.5808429
0.5790555
0.5771504
0.5844513
0.5837453
0.5831515
0.5822945
0.5810406
0.5793926
0.5774573
0.5840996
0.5836011
0.5830358
0.5822172
0.5811408
0.5796684
0.5778623
0.5837517
0.5834106
0.5829107
0.5821552
0.5811738
0.5799073
0.578272
0.5834515
0.5832073
0.5827777
0.5821035
0.58123
0.5801221
0.5787332
0.5832333
0.5829819
0.5826022
0.5820382
0.5812859
0.5803318
0.5790281
0.5831023
0.5827739
0.5824075
0.5819032
0.5812576
0.5804406
0.5793054
0.5830482
0.5826294
0.5822254
0.5817396
0.5811486
0.5803967
0.5794531
0.5830387
0.5825609
0.5821048
0.5815965
0.5810037
0.5802857
0.5794455
0.5830509
0.5825435
0.582054
0.5815152
0.580898
0.5801924
0.5793834
0.5830728
0.5825497
0.5820454
0.5814826
0.5808515
0.5801407
0.5793411
0.5830964
0.5825636
0.5820505
0.581473
0.5808331
0.5801262
0.5793262
0.5831191
0.5825789
0.5820563
0.5814768
0.5808348
0.5801242
0.5793216
0.5831404
0.5825911
0.5820602
0.5814759
0.5808365
0.5801235
0.5793175
0.5831588
0.5826018
0.5820651
0.5814809
0.5808385
0.5801217
0.5793112
0.5831739
0.5826128
0.5820736
0.5814856
0.5808396
0.5801189
0.5793034
0.5831864
0.5826215
0.5820804
0.5814895
0.5808399
0.5801159
0.5792944
0.5831986
0.5826306
0.5820867
0.5814927
0.5808397
0.5801118
0.5792737
0.5832092
0.5826382
0.582092
0.581495
0.5808392
0.5801075
0.5792556
0.5832185
0.5826449
0.5820965
0.581497
0.5808386
0.5801041
0.5792488
0.5832263
0.5826505
0.5821003
0.5814986
0.580838
0.5800996
0.5792427
0.5832334
0.5826555
0.5821036
0.5815001
0.5808367
0.5800872
0.5792302
0.5832396
0.5826599
0.5821066
0.5815012
0.5808353
0.5800767
0.5792145
0.5832451
0.5826638
0.5821092
0.5815023
0.5808348
0.580074
0.5792103
0.5832501
0.5826674
0.5821117
0.5815033
0.5808334
0.5800717
0.5792071
0.5832548
0.5826707
0.5821138
0.5815037
0.580826
0.5800642
0.5792034
0.5832591
0.5826738
0.5821158
0.581504
0.58082
0.5800545
0.5791997
0.5832633
0.5826768
0.5821177
0.581505
0.5808197
0.5800528
0.5791974
0.5832673
0.5826797
0.5821198
0.5815059
0.5808196
0.5800518
0.5791951
0.5832715
0.5826828
0.5821221
0.5815067
0.5808194
0.5800509
0.5791928
0.5832756
0.5826859
0.582124
0.5815033
0.5808157
0.5800496
0.5791906
0.5832801
0.5826893
0.5821263
0.5815009
0.5808107
0.580048
0.5791886
0.5832853
0.5826932
0.5821292
0.5815025
0.580811
0.5800472
0.5791864
0.5832912
0.582698
0.5821326
0.5815044
0.5808115
0.5800463
0.5791842
0.5832985
0.5827035
0.5821364
0.5815063
0.5808118
0.5800451
0.5791816
0.5833075
0.5827103
0.5821407
0.5815082
0.5808116
0.5800431
0.5791782
0.583319
0.5827187
0.5821455
0.5815095
0.5808105
0.58004
0.5791736
0.5833343
0.5827294
0.58215
0.5815097
0.5808077
0.5800349
0.5791671
0.5833557
0.5827421
0.5821505
0.581505
0.5808014
0.5800267
0.579158
0.583386
0.5827557
0.5821478
0.5814943
0.5807893
0.5800143
0.5791324
0.5834276
0.5827647
0.5821377
0.5814764
0.5807709
0.5799845
0.5791016
0.5834666
0.5827538
0.5821064
0.5814452
0.5807306
0.5799469
0.5790675
0.5833828
0.5826788
0.5820448
0.5813809
0.5806768
0.5799035
0.5790303
0.5823799
0.5824493
0.5819198
0.5812928
0.5806138
0.5798567
0.5789926
0.567924
0.5807213
0.5817557
0.5811866
0.5805419
0.5798087
0.5789562
0.5779469
0.5766869
0.5750072
0.5734114
0.5705758
0.566127
0.5559515
0.5779707
0.5767163
0.575044
0.573454
0.5706279
0.5661993
0.5563799
0.578001
0.5767489
0.5750855
0.5729016
0.5706779
0.5662689
0.5566044
0.5780341
0.5767828
0.5751219
0.5735504
0.5707306
0.566339
0.5568096
0.5780674
0.5768178
0.5751626
0.5735982
0.5707837
0.5664092
0.5569548
0.5780999
0.576853
0.5752037
0.5736461
0.5708362
0.5664789
0.5570915
0.5781306
0.5768872
0.5752442
0.5736918
0.570852
0.5665484
0.5572234
0.5781575
0.5769203
0.5752836
0.5737362
0.5708667
0.5666172
0.5573454
0.5781672
0.57695
0.5753209
0.5737807
0.5709091
0.5666791
0.5574665
0.5781746
0.5769594
0.575355
0.5738247
0.5709506
0.5667408
0.5575818
0.5781804
0.5769666
0.5753652
0.573867
0.5709919
0.5668026
0.5576931
0.5781853
0.5769732
0.5753732
0.5738766
0.5710333
0.5668644
0.5578012
0.5781895
0.5769792
0.5753811
0.5738855
0.5710411
0.5669278
0.5579053
0.5781934
0.5769849
0.5753888
0.5738947
0.5710497
0.5669403
0.557993
0.5781971
0.5769907
0.5753968
0.5739041
0.571059
0.5669554
0.5579615
0.5782009
0.5769966
0.5754049
0.5739139
0.571069
0.5669718
0.5579293
0.5782047
0.5770027
0.5754132
0.5739245
0.5710848
0.566989
0.5579072
0.5782086
0.5770088
0.5754221
0.57394
0.5712034
0.5670076
0.557869
0.5782126
0.5770149
0.5754313
0.5739516
0.5712232
0.5670269
0.5578362
0.578217
0.5770214
0.5754409
0.5739638
0.5712385
0.5670472
0.5577964
0.5782215
0.5770283
0.5754509
0.5739768
0.5712544
0.5670686
0.5577373
0.5782265
0.5770355
0.575461
0.5739906
0.5712712
0.567091
0.5576913
0.5782317
0.5770435
0.5754723
0.5740029
0.5712933
0.5671143
0.5576424
0.578239
0.5770522
0.5754862
0.5734564
0.5714143
0.5671502
0.5575946
0.5782464
0.5770611
0.5754977
0.5740331
0.5714734
0.5671799
0.5575467
0.5782537
0.5770709
0.5755116
0.5740543
0.5714988
0.5672083
0.5574965
0.5782639
0.5770834
0.5755283
0.574075
0.5715249
0.567242
0.557438
0.578291
0.5770978
0.5755445
0.5740965
0.5715598
0.5674846
0.5573827
0.5783094
0.5774387
0.5759824
0.5741113
0.5715935
0.5675818
0.5573404
0.5783237
0.5774524
0.5760035
0.5741375
0.5716276
0.5676256
0.5572998
0.5783611
0.577496
0.5760245
0.5741654
0.5716664
0.5678083
0.557274
0.5783857
0.5775378
0.5760467
0.5741978
0.571711
0.56802
0.557283
0.5783988
0.5776028
0.5760755
0.5742324
0.5717621
0.5681003
0.5574377
0.5784129
0.577628
0.5761279
0.574262
0.571817
0.5682345
0.5591527
0.5784381
0.5776513
0.5761739
0.5742742
0.5718595
0.5684656
0.5604622
0.5784512
0.5776665
0.5762029
0.5742081
0.5718431
0.5688638
0.5637931
0.5783546
0.5775574
0.5759529
0.573947
0.571711
0.5691949
0.5639914
0.5780624
0.5771784
0.5754809
0.5737247
0.5714113
0.5686195
0.5645323
0.5775862
0.5765513
0.5748149
0.5731653
0.5706478
0.5683604
0.5653363
0.5770415
0.5758178
0.5738765
0.5717042
0.5706641
0.569135
0.5655226
0.5765588
0.5750182
0.5726544
0.5710542
0.5711111
0.5693403
0.5638886
0.576373
0.5744308
0.5720205
0.5714154
0.5713168
0.5695071
0.562975
0.5761001
0.5740462
0.5718688
0.5722543
0.5713514
0.5692802
0.5620213
0.5758003
0.5735282
0.5726934
0.5729383
0.5713028
0.567709
0.5614321
0.5758066
0.5737696
0.5738474
0.5734387
0.5707538
0.5669399
0.5615772
0.5758422
0.5741308
0.5745002
0.5736706
0.5707815
0.5684824
0.5634544
0.5758296
0.5744713
0.5746697
0.5734697
0.5717594
0.569061
0.5660659
0.5753524
0.5741852
0.573956
0.5729609
0.5715435
0.5697631
0.5682738
0.5749455
0.5738292
0.5733248
0.5719203
0.5712064
0.569676
0.5684234
0.5751723
0.5738382
0.5729793
0.5717661
0.5704193
0.5693326
0.567897
0.5757307
0.5748139
0.5726811
0.5711599
0.5701153
0.5686492
0.5661685
0.5758299
0.574295
0.5718986
0.5709833
0.570143
0.568294
0.5653925
0.5756442
0.5740248
0.5716374
0.5702824
0.5695878
0.5671759
0.5652252
0.5751997
0.5734377
0.5708873
0.56951
0.5696222
0.5686569
0.5686728
0.5744818
0.5728046
0.5700802
0.569192
0.5694627
0.5725626
0.5752293
0.5739839
0.5718782
0.5702954
0.5697015
0.5708606
0.5727391
0.5738633
0.5717
0.570699
0.5698112
0.5700925
0.5722537
0.5737565
0.5713447
0.5701717
0.5693841
0.5697973
0.5720712
0.5737719
0.5712552
0.569863
0.5692271
0.5693958
0.5697015
0.5706715
0.5736515
0.5716069
0.5700006
0.5688649
0.5687067
0.5672414
0.5665814
0.5728951
0.5705762
0.5719733
0.5696523
0.5689224
0.5686677
0.5677343
0.5732442
0.5708558
0.5722628
0.570903
0.5706203
0.5701859
0.5686426
0.5738422
0.5720717
0.5726868
0.5716859
0.570864
0.569719
0.5683127
0.5739922
0.5724675
0.5732238
0.5721679
0.5703906
0.5694027
0.5689308
0.5741745
0.5728455
0.5735699
0.572254
0.5705486
0.569495
0.5678101
0.5742465
0.5727724
0.5736843
0.5727009
0.5706311
0.5690125
0.5664147
0.5743597
0.5725541
0.5734636
0.5727699
0.5704119
0.5671648
0.5617692
0.5745798
0.5722988
0.5725989
0.5724694
0.5700842
0.5663948
0.5615798
0.5749399
0.5726149
0.5718673
0.5716393
0.5705064
0.5666819
0.5616931
0.5754226
0.5732491
0.5713594
0.5710228
0.570021
0.5674123
0.560675
0.5759711
0.5738213
0.5718069
0.5707438
0.5695237
0.5679085
0.5611335
0.5766207
0.5745179
0.5727465
0.5706912
0.569873
0.5681691
0.5617927
0.5772993
0.5755191
0.5739738
0.5714417
0.5703418
0.5683959
0.5634244
0.5778832
0.5763411
0.575024
0.5730237
0.5703319
0.5683777
0.5656985
0.5782627
0.5770128
0.5756438
0.573892
0.5712933
0.5685776
0.5657304
0.5784122
0.5774174
0.5760433
0.5740437
0.5716923
0.5689445
0.5640065
0.5784275
0.5775567
0.5762235
0.5742459
0.5718011
0.5687496
0.5626298
0.5784104
0.5775789
0.5762255
0.5742799
0.571834
0.5683405
0.5598062
0.5783994
0.5775777
0.5761525
0.5742645
0.5718121
0.5681906
0.5587655
0.5783932
0.5775709
0.5760875
0.5742374
0.5717693
0.5681119
0.5579969
0.5783823
0.5775271
0.5760557
0.5742052
0.571723
0.5680379
0.5571931
0.5783584
0.5774875
0.5760311
0.5741748
0.5716799
0.5679514
0.5572023
0.5783221
0.5774392
0.5760112
0.5741476
0.5716418
0.5676622
0.5572421
0.5783088
0.5774218
0.5759914
0.5741238
0.5716082
0.5676006
0.5572925
0.5782909
0.5770979
0.5755447
0.5740869
0.5715766
0.5675586
0.5573437
0.5782645
0.5770842
0.5755293
0.5740692
0.5715415
0.5673364
0.5574003
0.5782545
0.5770721
0.5755134
0.5740511
0.5715122
0.5672246
0.5574638
0.5782475
0.5770623
0.5754995
0.5740342
0.5714866
0.5671952
0.5575185
0.5782399
0.577053
0.5754864
0.5740181
0.5714589
0.567168
0.5575763
0.5782327
0.5770446
0.5754742
0.5740026
0.5713323
0.5671323
0.5576253
0.5782275
0.5770368
0.5754628
0.5739881
0.5712806
0.5671039
0.5576767
0.5782225
0.5770293
0.575452
0.5739747
0.5712635
0.5670812
0.5577298
0.5782178
0.5770223
0.5754419
0.5739617
0.5712471
0.5670595
0.5577775
0.5782132
0.5770158
0.5754322
0.5739496
0.5712316
0.5670386
0.557824
0.5782092
0.5770096
0.5754231
0.5739379
0.571217
0.567019
0.557863
0.5782053
0.5770034
0.5754143
0.5739243
0.5711519
0.567
0.5578966
0.5782015
0.5769974
0.5754059
0.5739117
0.5710753
0.5669821
0.5579293
0.5781979
0.5769917
0.575398
0.5739015
0.5710652
0.5669652
0.5579631
0.5781945
0.5769862
0.5753903
0.5738915
0.5710556
0.5669493
0.5579694
0.578191
0.5769809
0.5753829
0.5738819
0.5710468
0.5669347
0.5579453
0.5781873
0.5769754
0.5753756
0.5738724
0.5710383
0.566897
0.5578406
0.5781833
0.5769697
0.5753682
0.5738629
0.5710143
0.5668351
0.5577313
0.5781787
0.5769634
0.5753586
0.5738369
0.5709734
0.5667732
0.5576174
0.5781729
0.5769552
0.5753254
0.5737929
0.5709323
0.5667114
0.5575026
0.5781651
0.576927
0.5752893
0.5737484
0.570891
0.5666494
0.5573816
0.5781406
0.5768955
0.5752509
0.573703
0.5708511
0.5665842
0.5572581
0.5781123
0.5768628
0.5752114
0.5736594
0.5708631
0.5665148
0.5571317
0.5780819
0.5768286
0.575171
0.5736131
0.5708126
0.5664451
0.5569996
0.5780495
0.5767933
0.57513
0.573567
0.57076
0.5663752
0.5568584
0.5780154
0.5767576
0.5750889
0.573521
0.5707072
0.5663049
0.5566902
0.5779817
0.5767227
0.5750483
0.5734763
0.5706544
0.5662343
0.5564699
0.5779493
0.5766881
0.5750083
0.5734329
0.5706018
0.5661631
0.5561509
0.004948844
2.53184e-12
0
0
0
0
1.635201e-39
1.140558e-44
6.492781e-50
2.034803e-55
4.258387e-61
6.577886e-67
7.95756e-73
7.75316e-79
1.013549e-84
1.649313e-90
1.571545e-96
1.289073e-102
0.01110938
1.649983e-10
3.110554e-17
2.407639e-23
3.226915e-29
1.212864e-34
4.868427e-40
2.150426e-45
9.244661e-51
2.871908e-56
6.012099e-62
8.960335e-68
1.04358e-73
9.659045e-80
1.044475e-85
1.429248e-91
1.24132e-97
9.385469e-104
0.01286711
1.190181e-09
2.429819e-16
1.335688e-22
1.036032e-28
2.861759e-34
1.065573e-39
4.339312e-45
1.595661e-50
4.1522e-56
7.528916e-62
1.032145e-67
1.110149e-73
9.474819e-80
1.063141e-85
1.02414e-91
7.947824e-98
5.419243e-104
0.01388073
2.156374e-09
6.439313e-16
3.439988e-22
2.294396e-28
5.730014e-34
2.078007e-39
8.283324e-45
2.888378e-50
7.137316e-56
1.239148e-61
1.632283e-67
1.68648e-73
1.371284e-79
1.344564e-85
9.783181e-92
6.664139e-98
3.925198e-104
0.01501267
3.245138e-09
1.305343e-15
7.600749e-22
4.998717e-28
1.154544e-33
4.108091e-39
1.619328e-44
5.515299e-50
1.317625e-55
2.217945e-61
2.82422e-67
2.797732e-73
2.181445e-79
0
2.561109e-92
2.49273e-98
1.666218e-104
0.01616852
5.212478e-09
2.663052e-15
1.701954e-21
1.119513e-27
2.373295e-33
8.293353e-39
3.25789e-44
1.083104e-49
2.542944e-55
4.207961e-61
5.298741e-67
5.13005e-73
3.968607e-79
2.547348e-85
2.090697e-91
1.402306e-97
8.210104e-104
0.0172259
1.400069e-08
6.727577e-15
3.973213e-21
2.556306e-27
4.977828e-33
1.715975e-38
6.756036e-44
2.212752e-49
5.133259e-55
8.474568e-61
1.070739e-66
1.036932e-72
7.753235e-79
4.842456e-85
3.652025e-91
2.518799e-97
1.445186e-103
0.01833406
2.425499e-08
1.60559e-14
9.462294e-21
6.03703e-27
1.076238e-32
3.644254e-38
1.445268e-43
4.667578e-49
1.098741e-54
1.826682e-60
2.316012e-66
2.223277e-72
1.672511e-78
1.051547e-84
8.035065e-91
5.748979e-97
3.375538e-103
0.01935884
2.43266e-08
2.598319e-14
2.268958e-20
1.582972e-26
2.505336e-32
8.017543e-38
3.190837e-43
1.033594e-48
2.449349e-54
4.140166e-60
5.310364e-66
5.206553e-72
3.960055e-78
2.536379e-84
2.031719e-90
1.538582e-96
9.197681e-103
0.02048142
3.08086e-08
5.286858e-14
6.440087e-20
5.096269e-26
6.867572e-32
1.904213e-37
7.410956e-43
2.40665e-48
5.75947e-54
9.993612e-60
1.33115e-65
1.351245e-71
1.038761e-77
6.960179e-84
5.976471e-90
4.813853e-96
2.972341e-102
0.02163641
3.705513e-08
9.439332e-14
1.780189e-19
1.544371e-25
1.970197e-31
4.765727e-37
1.771508e-42
5.832646e-48
1.441271e-53
2.63303e-59
3.646479e-65
3.804407e-71
3.064337e-77
2.157059e-83
2.058172e-89
1.72671e-95
1.097328e-101
0.02274855
3.89068e-08
1.0242e-13
2.269779e-19
2.593246e-25
3.969481e-31
1.045773e-36
3.793703e-42
1.426451e-47
3.912577e-53
7.65856e-59
1.120543e-64
1.228735e-70
1.034257e-76
7.827166e-83
8.270263e-89
7.380527e-95
4.858735e-101
0.0239161
4.051091e-08
1.18596e-13
3.085794e-19
4.232586e-25
8.348892e-31
3.213197e-36
1.497035e-41
5.056317e-47
1.390425e-52
2.806798e-58
4.335873e-64
4.949933e-70
4.390859e-76
3.620465e-82
4.237905e-88
3.82437e-94
2.641413e-100
0.02519704
3.395981e-08
1.203251e-13
3.586827e-19
6.438394e-25
1.782138e-30
8.805392e-36
4.977894e-41
2.199616e-46
6.568203e-52
1.423413e-57
2.241151e-63
2.625072e-69
2.427232e-75
2.126436e-81
2.641145e-87
2.454926e-93
1.749529e-99
0.03079036
3.717367e-08
1.271361e-13
4.013914e-19
8.463603e-25
2.806184e-30
1.442273e-35
8.381592e-41
3.682771e-46
1.217832e-51
2.914682e-57
5.122826e-63
6.814571e-69
7.323506e-75
7.251086e-81
9.832989e-87
9.616828e-93
7.563181e-99
0.03228915
0
1.653267e-13
5.139616e-19
1.390127e-24
4.876845e-30
2.2277e-35
1.058251e-40
3.571466e-46
1.135351e-51
2.775299e-57
5.210551e-63
7.550519e-69
9.360227e-75
1.180883e-80
2.049062e-86
2.241747e-92
2.104315e-98
0.03440246
1.653011e-07
0
7.29136e-19
2.333929e-24
1.196257e-29
7.189958e-35
3.226029e-40
1.147322e-45
3.261993e-51
7.377069e-57
1.300939e-62
1.835976e-68
2.328627e-74
3.334432e-80
6.419769e-86
7.586796e-92
8.069406e-98
0.03671322
2.098386e-07
1.239252e-12
0
4.178879e-24
1.787066e-29
1.492904e-34
1.061089e-39
4.016259e-45
1.169028e-50
2.580677e-56
4.461148e-62
6.1358e-68
7.705228e-74
1.145441e-79
2.325926e-85
2.815424e-91
3.2424e-97
0.03919389
2.702747e-07
1.844308e-12
1.015087e-17
0
3.060341e-29
2.680744e-34
2.762046e-39
1.54764e-44
5.170111e-50
1.163105e-55
1.96971e-61
2.639845e-67
3.254973e-73
6.870925e-79
1.220326e-84
1.377325e-90
1.686043e-96
0.04167517
3.436785e-07
2.739465e-12
1.705017e-17
7.510234e-23
0
4.024447e-34
4.48658e-39
3.100611e-44
1.42994e-49
4.191234e-55
8.022076e-61
1.151337e-66
1.528779e-72
1.217041e-77
7.575424e-84
9.512957e-90
1.150441e-95
0.04415029
4.328825e-07
4.012763e-12
2.875134e-17
1.425406e-22
4.637472e-28
0
5.107359e-39
4.592377e-44
2.798022e-49
1.129899e-54
2.897486e-60
5.040922e-66
7.575762e-72
4.910596e-77
0
4.162181e-89
4.890444e-95
0.04671456
5.394522e-07
5.798825e-12
4.748675e-17
2.681972e-22
9.862146e-28
4.960816e-33
0
6.756712e-44
6.019437e-49
3.148117e-54
1.019837e-59
2.288977e-65
4.065692e-71
1.62317e-76
1.684111e-82
2.635809e-88
3.181251e-94
0.04943038
6.711837e-07
8.369788e-12
7.903368e-17
5.107119e-22
2.131939e-27
1.197897e-32
8.811056e-38
0
1.227232e-48
9.256493e-54
3.704111e-59
1.104156e-64
2.410555e-70
8.371288e-76
1.056602e-81
1.837706e-87
2.342191e-93
0.0522944
8.369462e-07
1.207212e-11
1.313844e-16
9.69607e-22
4.561883e-27
2.862536e-32
2.280402e-37
1.287697e-42
0
1.725567e-53
9.548394e-59
3.807302e-64
1.203575e-69
5.912549e-75
6.633105e-81
1.183679e-86
1.511013e-92
0.0553754
1.039136e-06
1.741216e-11
2.169295e-16
1.818249e-21
9.620134e-27
6.761393e-32
5.90119e-37
3.535135e-42
1.964535e-47
0
2.049965e-58
1.34883e-63
7.142015e-69
1.148342e-73
5.666011e-80
7.961771e-86
9.253488e-92
0.05857626
1.282426e-06
2.488317e-11
3.552463e-16
3.407168e-21
2.018579e-26
1.575992e-31
1.501463e-36
9.661137e-42
5.711694e-47
2.928228e-52
0
2.386277e-63
2.745829e-68
4.259266e-72
4.310596e-79
4.460413e-85
6.028035e-91
0.06200866
1.594717e-06
3.589691e-11
5.879793e-16
6.417986e-21
4.231787e-26
3.670825e-31
3.861186e-36
2.667832e-41
1.720689e-46
9.501276e-52
4.937074e-57
0
7.386076e-68
2.989761e-73
9.351728e-79
2.169232e-84
4.214231e-90
0.0656677
1.97291e-06
5.153541e-11
9.73619e-16
1.207701e-20
8.835543e-26
8.57034e-31
9.98025e-36
7.279888e-41
5.203116e-46
3.121765e-51
1.650293e-56
9.494594e-62
5.455752e-67
3.913546e-72
8.314636e-78
1.779016e-83
5.795275e-89
0.06950716
2.441576e-06
7.378083e-11
1.623602e-15
2.346895e-20
1.853424e-25
2.009026e-30
2.567378e-35
2.086254e-40
1.611431e-45
1.068515e-50
6.096685e-56
3.600678e-61
2.908029e-65
0
9.187389e-77
1.656645e-82
1.617623e-87
0.07365825
3.016722e-06
1.051423e-10
2.774907e-15
4.847038e-20
4.392318e-25
5.812966e-30
7.457299e-35
5.344686e-40
4.628975e-45
3.622457e-50
2.25093e-55
1.43444e-60
8.14189e-65
1.031369e-70
5.379644e-77
1.477859e-81
3.28907e-86
0.07806179
3.678278e-06
1.421618e-10
3.921564e-15
1.490706e-19
9.265365e-25
1.19798e-29
1.500221e-34
1.243809e-39
1.469024e-44
1.764413e-49
9.328243e-55
5.943757e-60
8.681983e-65
4.066098e-70
1.845749e-75
5.286243e-81
9.024814e-85
0.08268749
4.388006e-06
1.769959e-10
4.744017e-15
7.86179e-20
1.25778e-24
1.855528e-29
2.642921e-34
4.867798e-39
3.242851e-44
3.165217e-49
2.598538e-54
4.312375e-59
3.595793e-64
3.475816e-69
1.339763e-74
9.611085e-80
2.523656e-84
0.08774164
4.97736e-06
2.104859e-10
4.255257e-15
1.08002e-19
2.01932e-24
3.529756e-29
5.298647e-34
7.538823e-39
5.920129e-44
6.237626e-49
6.395563e-54
1.372005e-58
0
1.023866e-68
7.170539e-74
3.558028e-78
0
0.09354729
7.086618e-06
3.524084e-10
1.003687e-14
1.698593e-19
3.283181e-24
5.436425e-29
9.969653e-34
1.013518e-38
2.041195e-43
2.767928e-48
2.883556e-53
1.795467e-57
1.07073e-62
6.679425e-68
9.517605e-73
9.209121e-77
1.224801e-82
0.1104566
1.191967e-05
8.622871e-10
4.225487e-14
0
1.453922e-23
2.065698e-28
2.602292e-33
0
2.018451e-42
2.403044e-47
2.561738e-52
4.713791e-56
4.165582e-62
8.832015e-67
3.027252e-71
8.898059e-77
1.16084e-81
0.1216071
1.585228e-05
1.25063e-09
6.700976e-14
1.664035e-18
2.344892e-23
4.970829e-28
0
2.741757e-37
4.227357e-42
6.377667e-47
1.242819e-51
7.181006e-56
8.107631e-61
1.092008e-65
1.207976e-69
6.353033e-78
2.157938e-80
0.1407089
1.72264e-05
1.337804e-09
9.92924e-14
3.139541e-18
5.479417e-23
1.143522e-27
1.923533e-32
4.714101e-37
9.210506e-42
2.056869e-46
1.048538e-50
9.126516e-56
5.087754e-60
2.178221e-64
2.726768e-68
1.867998e-73
2.990191e-79
0.2404993
2.858707e-05
3.664634e-09
4.174279e-13
1.211209e-17
1.425896e-22
2.159891e-27
3.285393e-32
8.279967e-37
2.17244e-41
7.637642e-46
7.388925e-50
3.12556e-55
3.891901e-59
3.295464e-63
7.015952e-69
4.174355e-73
4.650381e-78
0.3727939
5.118625e-05
3.423318e-09
3.364075e-13
3.941176e-18
1.393866e-23
3.873078e-28
9.271149e-33
5.219443e-37
2.500071e-41
1.332729e-45
9.637669e-49
1.786643e-53
9.880153e-58
1.125164e-61
2.4718e-65
4.203051e-71
4.231505e-76
0.4697393
0.0004759032
4.859366e-08
8.963755e-13
2.020115e-18
2.812706e-23
1.833214e-27
9.378329e-32
7.776568e-36
5.19402e-40
5.868586e-44
1.585073e-47
4.038417e-51
4.553363e-55
6.386947e-59
1.022789e-62
1.469302e-68
1.019031e-73
0.5230989
0.0007073449
3.214734e-08
2.488789e-14
1.421018e-18
2.692678e-22
2.654537e-26
1.251949e-30
1.450221e-34
2.718684e-38
8.428836e-42
4.306554e-45
1.288136e-48
1.887437e-52
2.967199e-56
3.585637e-60
8.769795e-66
1.245159e-70
0.5306961
0.0004732048
2.938186e-09
0
1.765928e-18
6.283485e-22
7.551649e-26
1.047266e-29
4.998475e-33
2.922301e-36
1.747603e-39
1.532809e-42
4.052304e-46
6.262751e-50
1.182343e-53
1.16417e-57
7.175517e-63
1.401921e-67
0.5365072
0.0001457518
1.29041e-11
4.189417e-15
2.75312e-18
6.822345e-22
8.417577e-25
4.429771e-28
3.728528e-31
3.512971e-34
3.660091e-37
2.545345e-40
1.138432e-43
1.487123e-47
2.478189e-51
3.19776e-55
4.409214e-60
7.53336e-65
0.5416369
0.0008217267
6.177695e-10
4.084544e-14
3.678753e-17
1.762646e-20
2.690547e-23
2.30155e-26
2.917466e-29
4.231516e-32
7.04593e-35
3.550026e-38
2.613976e-41
4.706516e-45
4.49424e-49
7.171734e-53
1.751098e-57
2.826691e-62
0.5435622
0.0008882718
1.021003e-09
1.456669e-13
5.602046e-16
7.168778e-19
1.252806e-21
1.857856e-24
3.001337e-27
4.755693e-30
1.449517e-32
4.866946e-36
5.609642e-39
3.298441e-43
6.521009e-47
1.376031e-50
2.518033e-55
2.687256e-60
0.5456718
0.0007985105
3.668149e-09
7.472555e-12
3.300469e-14
7.998351e-17
1.126841e-19
1.628516e-22
2.868281e-25
4.444945e-28
1.343883e-30
5.310885e-34
6.785667e-37
1.268793e-41
5.832139e-45
1.130648e-48
2.67244e-53
3.025202e-59
0.5547487
0.001775737
4.943818e-07
5.161432e-10
1.655729e-12
7.148903e-15
8.290562e-18
1.206933e-20
2.418919e-23
3.390872e-26
7.612472e-29
8.973715e-33
2.547365e-35
0
4.210049e-43
8.452975e-47
1.545165e-51
0
0.555768
0.02730272
9.771914e-06
2.057147e-08
8.973774e-11
5.055283e-13
6.175395e-16
9.145497e-19
1.418974e-21
1.868726e-24
2.165328e-27
2.877143e-31
9.725144e-34
1.807298e-38
0
3.759693e-46
0
6.627691e-56
0.5549033
0.05428203
0.0001123133
6.031005e-07
4.862233e-09
2.077652e-11
3.825444e-14
6.292273e-17
3.217555e-20
8.862479e-24
1.242445e-26
2.095404e-29
1.25766e-32
0
2.335919e-41
0
1.073848e-49
0
0.5635364
0.1733293
0.001110544
1.051003e-05
6.171193e-20
0
0
0
0
5.771049e-37
3.762881e-41
5.924799e-45
5.757344e-50
1.432953e-54
0.5635869
0.5295436
0
8.658122e-31
0
5.486495e-39
0
4.640673e-46
0
0
0.5628631
0
3.823426e-33
7.336388e-38
3.10513e-44
3.612986e-47
3.737132e-51
1.209431e-56
3.717349e-33
2.298746e-38
4.811329e-43
2.438916e-47
5.255899e-52
7.013732e-56
2.123232e-38
0
2.492135e-49
3.807193e-51
1.904238e-56
1.393442e-40
7.392614e-45
1.315598e-48
0
3.623725e-58
2.148954e-39
2.167341e-43
6.207292e-48
1.403324e-52
2.25477e-57
4.555307e-37
4.021577e-41
2.085291e-45
9.420651e-50
1.958674e-54
8.825578e-36
6.602324e-39
8.145445e-43
4.050063e-47
8.015247e-52
2.032575e-34
1.826091e-37
1.670148e-41
5.325003e-46
3.354534e-50
0
2.209236e-33
1.708612e-36
2.216062e-40
1.057366e-44
1.662245e-49
0.5647013
0
1.119181e-33
5.670212e-37
6.828017e-41
9.553379e-45
3.214977e-49
0.5650919
0.4950207
0
4.125203e-33
1.328864e-34
6.784266e-38
9.539737e-42
6.426889e-46
3.951177e-50
0.5630765
0.2890929
0.002809465
0
0
3.534966e-27
3.661237e-30
1.477919e-33
6.240257e-37
4.488238e-41
6.844081e-45
2.400154e-49
0.5550684
0.09699235
0.0005149069
3.685624e-06
4.61535e-08
3.655513e-10
1.942671e-12
5.715438e-15
1.244686e-17
1.633473e-20
2.735019e-23
2.320923e-26
1.327648e-29
3.411388e-33
4.657346e-37
1.056477e-40
8.843022e-45
1.973549e-49
0.5532068
0.03419646
5.881745e-05
2.159012e-07
1.068806e-09
6.150775e-12
2.035982e-14
4.983666e-17
8.963907e-20
1.374316e-22
2.050993e-25
9.928966e-29
2.054398e-32
1.012354e-35
4.894897e-40
1.932891e-43
1.148515e-47
1.588234e-51
0.5519574
0.01822361
8.194199e-06
9.357611e-09
2.011481e-11
4.958693e-14
1.093567e-16
2.584004e-19
5.116271e-22
4.550466e-25
4.804943e-28
3.690928e-31
1.224492e-34
1.717911e-38
4.806968e-42
2.785678e-46
4.403413e-50
2.11147e-55
0.5493291
0.004664973
9.756999e-07
2.582146e-10
2.302041e-13
6.396578e-16
1.373478e-18
2.231052e-21
2.742038e-24
3.115944e-27
8.696348e-31
6.309445e-34
8.219596e-38
4.495373e-41
1.640582e-45
4.463104e-49
6.027177e-54
2.931203e-57
0.5418335
0.002487403
1.422956e-07
1.877184e-11
8.123024e-15
7.022315e-18
7.002266e-21
6.681334e-24
5.871568e-27
5.634133e-30
2.756543e-33
1.57839e-36
1.183199e-40
3.867968e-44
0
1.678699e-51
2.132215e-55
0
0.5418443
0.002286324
4.580242e-07
1.141448e-10
3.976275e-14
1.461953e-17
5.706082e-21
2.119338e-24
7.775281e-28
2.405378e-31
6.726277e-35
1.586771e-38
3.498423e-42
5.922138e-48
1.313511e-50
5.890144e-54
1.257195e-58
1.606795e-62
0.5408169
0.001669911
7.011251e-07
1.64962e-10
3.982825e-14
8.58145e-18
1.690722e-21
2.750842e-25
4.135657e-29
5.080673e-33
5.626877e-37
1.791732e-42
9.387071e-46
0
7.175841e-54
1.224908e-57
2.411787e-61
2.11412e-66
0.5365624
0.002039284