/*--------------------------------*- C++ -*----------------------------------*\
| =========                 |                                                 |
| \\      /  F ield         | OpenFOAM: The Open Source CFD Toolbox           |
|  \\    /   O peration     | Version:  2206                                  |
|   \\  /    A nd           | Website:  www.openfoam.com                      |
|    \\/     M anipulation  |                                                 |
\*---------------------------------------------------------------------------*/
FoamFile
{
    version     2.0;
    format      ascii;
    arch        "LSB;label=32;scalar=64";
    class       volScalarField;
    location    "2";
    object      alpha.a;
}
// * * * * * * * * * * * * * * * * * * * * * * * * * * * * * * * * * * * * * //

dimensions      [0 0 0 0 0 0 0];

internalField   nonuniform List<scalar> 
13078
(
0.5136932
0.5623974
0.5804271
0.5810158
0.5805129
0.5797958
0.5789506
0.5667346
0.5802694
0.5816493
0.5811842
0.5805534
0.5798233
0.5789736
0.5822822
0.5824123
0.5819227
0.5812972
0.5806206
0.5798674
0.5790073
0.5833776
0.5826746
0.5820341
0.5813867
0.5806857
0.5799145
0.5790448
0.5834671
0.5827519
0.582104
0.5814405
0.5807394
0.579959
0.5790819
0.5834282
0.5827636
0.5821361
0.5814753
0.5807688
0.5799958
0.5791167
0.583386
0.5827551
0.582149
0.5814962
0.5807894
0.580014
0.5791463
0.5833554
0.5827414
0.5821529
0.5815065
0.5808011
0.5800268
0.5791587
0.5833335
0.5827285
0.5821496
0.5815091
0.5808073
0.5800349
0.5791678
0.5833178
0.5827177
0.5821447
0.5815091
0.5808102
0.5800401
0.5791742
0.5833061
0.582709
0.5821399
0.5815077
0.5808114
0.5800433
0.5791789
0.5832967
0.5827021
0.5821354
0.5815057
0.5808116
0.5800454
0.5791825
0.5832893
0.5826964
0.5821315
0.5815037
0.5808112
0.5800467
0.5791853
0.583283
0.5826916
0.582128
0.5815018
0.580811
0.5800477
0.5791878
0.5832776
0.5826874
0.5821252
0.581504
0.5808159
0.5800493
0.57919
0.5832727
0.5826837
0.5821228
0.581507
0.5808194
0.5800504
0.5791922
0.583268
0.5826801
0.5821202
0.581506
0.5808194
0.5800514
0.5791944
0.5832635
0.5826768
0.5821177
0.5815048
0.5808193
0.5800524
0.5791967
0.5832589
0.5826734
0.5821154
0.5815037
0.5808195
0.580054
0.579199
0.5832542
0.58267
0.5821131
0.581503
0.5808254
0.5800635
0.5792025
0.5832493
0.5826664
0.5821107
0.5815024
0.5808324
0.5800706
0.579206
0.5832439
0.5826626
0.5821081
0.5815011
0.5808336
0.5800728
0.579209
0.5832381
0.5826585
0.5821053
0.5814999
0.580834
0.5800754
0.5792133
0.5832316
0.5826538
0.5821022
0.5814987
0.5808354
0.580086
0.579229
0.5832243
0.5826486
0.5820986
0.5814973
0.5808366
0.5800983
0.5792414
0.583216
0.5826427
0.5820947
0.5814956
0.5808373
0.5801029
0.5792476
0.5832064
0.5826359
0.5820902
0.5814937
0.5808381
0.5801066
0.5792547
0.5831955
0.5826281
0.582085
0.5814915
0.580839
0.5801114
0.5792735
0.5831828
0.5826189
0.5820789
0.5814887
0.5808398
0.5801161
0.5792945
0.5831699
0.5826103
0.5820725
0.5814856
0.5808401
0.5801199
0.5793046
0.5831544
0.5825995
0.5820647
0.5814816
0.58084
0.5801236
0.5793134
0.583136
0.5825896
0.5820609
0.581478
0.5808392
0.5801264
0.5793208
0.5831157
0.5825788
0.5820587
0.5814814
0.5808405
0.5801305
0.5793277
0.5830944
0.5825671
0.5820579
0.5814843
0.5808482
0.5801442
0.579344
0.5830752
0.5825621
0.5820688
0.5815182
0.5808966
0.58019
0.5793861
0.5830651
0.5825794
0.5821192
0.5816067
0.5810086
0.5802989
0.5794652
0.5830779
0.5826511
0.5822465
0.5817664
0.5811815
0.5804217
0.5795175
0.5831406
0.5828119
0.5824563
0.5819711
0.5813471
0.5805135
0.5794531
0.5832879
0.5830506
0.5827005
0.5821647
0.5814482
0.5805236
0.5792367
0.5835453
0.5833303
0.5829303
0.5823131
0.5814761
0.5804112
0.5789629
0.5838989
0.5836078
0.5831615
0.5824199
0.5814694
0.58029
0.5787941
0.5843343
0.5838648
0.5833615
0.5825604
0.5815166
0.5802577
0.5786302
0.5848012
0.5841012
0.5835348
0.5827268
0.5817101
0.5802715
0.5784693
0.5852295
0.5842378
0.5836993
0.582916
0.5818085
0.5802414
0.5782516
0.585498
0.5842759
0.583789
0.5829659
0.5817583
0.5801228
0.5782071
0.5855289
0.5842397
0.5837562
0.5828065
0.5815358
0.5799639
0.5781641
0.5854484
0.5841959
0.583554
0.5824972
0.5811857
0.579651
0.5780372
0.5854167
0.5841232
0.5833316
0.5821843
0.5808549
0.5793173
0.5776416
0.5853327
0.5839868
0.5831685
0.5819093
0.5805556
0.579051
0.5774089
0.5851585
0.5838411
0.5830124
0.5816671
0.580282
0.5787947
0.5775009
0.5848994
0.5837396
0.5828765
0.5814102
0.5800636
0.5787563
0.577695
0.5845866
0.5835893
0.5827248
0.5813013
0.5800925
0.5790498
0.5781972
0.5842679
0.5833826
0.5824721
0.5811387
0.5801006
0.5792315
0.5782295
0.5840025
0.5831874
0.5822568
0.5809284
0.579901
0.5789171
0.5779366
0.5837941
0.583013
0.5820567
0.5807363
0.5796661
0.5785739
0.5774351
0.5836365
0.5828751
0.5819062
0.5805962
0.5794627
0.5782711
0.5769908
0.58359
0.5827812
0.58179
0.5804489
0.5792526
0.5780158
0.5767661
0.5836823
0.5827952
0.5817903
0.5803963
0.5791341
0.5779029
0.5767625
0.5838138
0.5828513
0.5818532
0.5804132
0.5790311
0.5777305
0.5766828
0.5839731
0.5829097
0.5819236
0.5804631
0.578984
0.577534
0.5761341
0.5841781
0.5830001
0.5820379
0.580515
0.5790009
0.5774041
0.5758066
0.5843918
0.5830821
0.5821831
0.5807025
0.5791963
0.5775199
0.5759444
0.5845569
0.5831752
0.5823038
0.5809342
0.5794537
0.5778044
0.5762559
0.5846514
0.5833378
0.5825015
0.5812113
0.57976
0.5781175
0.5764639
0.5846947
0.5835548
0.582776
0.5815423
0.5800625
0.5783604
0.5765941
0.5847605
0.5837252
0.5830561
0.5818578
0.5803146
0.5784937
0.5767516
0.58483
0.5838236
0.5832273
0.5821063
0.5805677
0.578772
0.5769176
0.584734
0.5838221
0.5832203
0.5822468
0.5808371
0.5790607
0.5771668
0.5844477
0.5837388
0.58314
0.5822795
0.581029
0.5793897
0.5774616
0.5840969
0.583597
0.5830287
0.5822061
0.5811277
0.5796589
0.5778587
0.5837494
0.5834075
0.5829062
0.5821481
0.5811637
0.5798959
0.5782628
0.5834494
0.5832046
0.5827743
0.5820989
0.5812234
0.5801131
0.5787231
0.5832315
0.5829794
0.5825992
0.5820347
0.5812815
0.580326
0.5790207
0.5831008
0.5827718
0.5824049
0.5819002
0.5812543
0.5804365
0.5793004
0.5830469
0.5826275
0.5822232
0.581737
0.5811457
0.5803937
0.5794495
0.5830375
0.5825593
0.5821029
0.5815943
0.5810014
0.5802832
0.5794428
0.5830498
0.5825421
0.5820525
0.5815135
0.5808961
0.5801904
0.5793813
0.5830719
0.5825486
0.5820441
0.5814812
0.58085
0.5801391
0.5793394
0.5830957
0.5825626
0.5820494
0.5814719
0.5808318
0.5801249
0.5793249
0.5831184
0.5825781
0.5820554
0.5814759
0.5808338
0.5801232
0.5793206
0.5831398
0.5825904
0.5820594
0.5814751
0.5808357
0.5801227
0.5793167
0.5831583
0.5826012
0.5820644
0.5814802
0.5808379
0.580121
0.5793105
0.5831735
0.5826123
0.5820731
0.5814851
0.5808391
0.5801183
0.5793028
0.5831861
0.5826211
0.58208
0.581489
0.5808394
0.5801154
0.5792938
0.5831984
0.5826302
0.5820863
0.5814922
0.5808392
0.5801114
0.5792733
0.583209
0.5826379
0.5820917
0.5814947
0.5808388
0.5801071
0.5792552
0.5832183
0.5826446
0.5820962
0.5814967
0.5808383
0.5801037
0.5792484
0.5832262
0.5826503
0.5821
0.5814983
0.5808376
0.5800993
0.5792424
0.5832333
0.5826553
0.5821034
0.5814999
0.5808364
0.5800868
0.5792298
0.5832395
0.5826597
0.5821064
0.581501
0.5808351
0.5800764
0.5792142
0.5832451
0.5826636
0.582109
0.5815021
0.5808346
0.5800737
0.57921
0.5832501
0.5826673
0.5821116
0.5815031
0.5808332
0.5800715
0.5792068
0.5832548
0.5826706
0.5821137
0.5815035
0.5808258
0.580064
0.5792031
0.5832591
0.5826737
0.5821157
0.5815039
0.5808198
0.5800543
0.5791995
0.5832633
0.5826767
0.5821176
0.5815049
0.5808195
0.5800526
0.5791971
0.5832674
0.5826796
0.5821198
0.5815058
0.5808194
0.5800516
0.5791949
0.5832715
0.5826827
0.582122
0.5815066
0.5808193
0.5800507
0.5791926
0.5832757
0.5826858
0.582124
0.5815032
0.5808156
0.5800494
0.5791904
0.5832802
0.5826893
0.5821263
0.5815008
0.5808106
0.5800479
0.5791884
0.5832854
0.5826932
0.5821292
0.5815024
0.5808109
0.5800471
0.5791863
0.5832913
0.582698
0.5821326
0.5815043
0.5808114
0.5800462
0.5791841
0.5832986
0.5827036
0.5821364
0.5815063
0.5808117
0.580045
0.5791814
0.5833077
0.5827103
0.5821408
0.5815082
0.5808116
0.580043
0.579178
0.5833192
0.5827188
0.5821455
0.5815095
0.5808105
0.5800399
0.5791735
0.5833346
0.5827295
0.5821501
0.5815097
0.5808077
0.5800348
0.579167
0.5833561
0.5827423
0.5821506
0.581505
0.5808014
0.5800266
0.5791578
0.5833864
0.5827559
0.5821479
0.5814943
0.5807892
0.5800142
0.5791322
0.5834281
0.582765
0.5821377
0.5814764
0.5807708
0.5799844
0.5791014
0.5834672
0.582754
0.5821064
0.5814451
0.5807305
0.5799467
0.5790673
0.5833828
0.5826786
0.5820446
0.5813807
0.5806766
0.5799033
0.5790301
0.5823741
0.5824478
0.5819193
0.5812924
0.5806135
0.5798564
0.5789923
0.5678697
0.5807085
0.5817544
0.5811862
0.5805415
0.5798084
0.5789559
0.5779466
0.5766866
0.575007
0.5734113
0.5705757
0.566127
0.5559503
0.5779705
0.576716
0.5750438
0.5734538
0.5706278
0.5661992
0.5563787
0.5780007
0.5767486
0.5750853
0.5729015
0.5706778
0.5662688
0.556603
0.5780339
0.5767826
0.5751217
0.5735502
0.5707305
0.5663389
0.5568081
0.5780672
0.5768176
0.5751624
0.573598
0.5707836
0.5664091
0.5569531
0.5780997
0.5768528
0.5752035
0.573646
0.5708361
0.5664788
0.5570896
0.5781304
0.576887
0.575244
0.5736916
0.5708519
0.5665482
0.5572212
0.5781573
0.5769201
0.5752834
0.5737361
0.5708665
0.5666169
0.5573428
0.578167
0.5769498
0.5753207
0.5737806
0.5709089
0.5666787
0.5574636
0.5781744
0.5769592
0.5753548
0.5738245
0.5709503
0.5667405
0.5575786
0.5781802
0.5769664
0.575365
0.5738668
0.5709916
0.5668022
0.5576895
0.5781851
0.5769729
0.575373
0.5738764
0.5710331
0.566864
0.5577973
0.5781893
0.5769789
0.5753808
0.5738853
0.5710408
0.5669273
0.557901
0.5781932
0.5769846
0.5753886
0.5738944
0.5710494
0.5669398
0.5579884
0.5781969
0.5769904
0.5753965
0.5739038
0.5710586
0.5669548
0.5579566
0.5782007
0.5769963
0.5754046
0.5739136
0.5710686
0.5669711
0.557924
0.5782044
0.5770024
0.5754129
0.5739241
0.5710843
0.5669883
0.5579015
0.5782083
0.5770085
0.5754218
0.5739396
0.5712029
0.5670069
0.557863
0.5782123
0.5770146
0.5754309
0.5739512
0.5712227
0.5670261
0.5578298
0.5782167
0.5770211
0.5754405
0.5739634
0.5712379
0.5670464
0.5577897
0.5782212
0.5770279
0.5754505
0.5739763
0.5712539
0.5670677
0.5577302
0.5782262
0.5770351
0.5754606
0.5739901
0.5712706
0.56709
0.5576838
0.5782314
0.577043
0.5754719
0.5740024
0.5712926
0.5671133
0.5576345
0.5782386
0.5770518
0.5754857
0.5734559
0.5714136
0.5671492
0.5575863
0.5782461
0.5770607
0.5754972
0.5740325
0.5714727
0.5671787
0.5575381
0.5782533
0.5770705
0.5755111
0.5740539
0.5714981
0.5672071
0.5574874
0.5782635
0.577083
0.5755278
0.5740746
0.5715242
0.5672407
0.5574285
0.5782906
0.5770973
0.575544
0.574096
0.5715592
0.5674834
0.5573729
0.5783089
0.5774382
0.5759818
0.5741109
0.5715929
0.5675805
0.5573301
0.5783232
0.577452
0.5760031
0.5741371
0.571627
0.5676244
0.5572891
0.5783606
0.5774957
0.5760241
0.5741651
0.5716659
0.5678074
0.5572632
0.5783851
0.5775373
0.5760463
0.5741975
0.5717107
0.568019
0.5572722
0.578398
0.5776023
0.5760752
0.5742323
0.571762
0.5680996
0.5574268
0.5784118
0.5776273
0.5761275
0.5742618
0.571817
0.5682341
0.5591434
0.5784366
0.5776502
0.5761732
0.574274
0.5718594
0.5684657
0.5604541
0.5784492
0.5776649
0.5762018
0.5742075
0.5718432
0.568864
0.5637933
0.578352
0.5775552
0.5759512
0.5739448
0.5717108
0.5691937
0.5639788
0.5780586
0.5771749
0.5754768
0.5737233
0.5714115
0.5686196
0.5645169
0.5775802
0.5765455
0.5748112
0.5731663
0.5706581
0.5683741
0.5653127
0.5770331
0.5758101
0.5738772
0.5717193
0.5707166
0.5691775
0.5655054
0.5765512
0.5750142
0.5726675
0.5711189
0.5712108
0.5694144
0.5639407
0.5763759
0.5744361
0.5720537
0.5715792
0.5714532
0.5696145
0.5630915
0.5761212
0.5740748
0.5720125
0.5724494
0.571501
0.5694155
0.5621928
0.5758499
0.5736203
0.5729401
0.573111
0.5714881
0.5679089
0.5616389
0.5759026
0.5739665
0.5740906
0.5736133
0.5709693
0.5672008
0.5617356
0.5759913
0.5744041
0.5747587
0.5738586
0.5710377
0.5687635
0.5636618
0.5760314
0.574793
0.5749633
0.5737126
0.5720646
0.5693529
0.5662757
0.575617
0.5745821
0.5743019
0.5732484
0.5718313
0.5700797
0.5683974
0.5753029
0.5742988
0.5736799
0.5722232
0.571476
0.5699298
0.5685453
0.5756055
0.5743499
0.5733061
0.5720551
0.570667
0.5695453
0.5680453
0.5761513
0.5752729
0.5730085
0.5714377
0.5703248
0.5688268
0.5663598
0.5762366
0.5747992
0.5722581
0.5712225
0.5703365
0.5684599
0.5655717
0.5760367
0.5745376
0.5719973
0.5705479
0.5698113
0.5673451
0.5654873
0.5755708
0.5739179
0.5712684
0.5698058
0.5698482
0.5689573
0.5690148
0.5748417
0.573251
0.5704616
0.5695009
0.5698629
0.5729765
0.5754452
0.5743621
0.5723503
0.5706696
0.5700297
0.5711752
0.5729601
0.5742575
0.5722076
0.5710471
0.5700845
0.5704407
0.5725569
0.574131
0.5718585
0.5705496
0.5696559
0.5701056
0.5723441
0.5741051
0.5717155
0.5702472
0.5695354
0.5696584
0.5700055
0.5708646
0.5739607
0.5719909
0.5703338
0.5691757
0.5689264
0.5674525
0.5668755
0.5731972
0.570986
0.572234
0.56993
0.5691204
0.5687681
0.5677715
0.5735159
0.5712657
0.5725269
0.5711633
0.5708281
0.5703357
0.5687534
0.5740988
0.5724644
0.5729697
0.5719106
0.5710382
0.5699132
0.5684546
0.574218
0.5728531
0.5734947
0.5723733
0.5705648
0.569604
0.5690252
0.5743585
0.5731743
0.5738372
0.5724504
0.5707472
0.5696837
0.5678839
0.5743824
0.5730381
0.5739167
0.5729024
0.570812
0.5692065
0.5664536
0.574443
0.5727461
0.5736849
0.5729427
0.5705863
0.5673319
0.5617714
0.574619
0.5724175
0.5727944
0.5726582
0.5702309
0.566562
0.5616192
0.5749548
0.5726582
0.5720017
0.5718398
0.5706548
0.5668086
0.5617955
0.5754237
0.5732595
0.5714078
0.5711673
0.5702025
0.5675083
0.5607672
0.5759648
0.5738202
0.5718175
0.5708011
0.5696608
0.5680069
0.5612088
0.576611
0.5745118
0.5727485
0.5707117
0.5699325
0.5682444
0.5618393
0.5772907
0.5755105
0.5739704
0.5714466
0.5703632
0.5684271
0.5634316
0.5778774
0.5763344
0.5750185
0.5730225
0.5703387
0.5683893
0.565686
0.5782588
0.5770084
0.5756401
0.5738898
0.5712937
0.5685805
0.5657167
0.5784093
0.5774144
0.576041
0.5740422
0.5716918
0.5689446
0.5639907
0.5784254
0.5775545
0.5762219
0.5742449
0.5718004
0.5687488
0.5626169
0.5784088
0.5775773
0.5762243
0.5742792
0.5718333
0.5683393
0.5597921
0.5783982
0.5775765
0.5761515
0.5742639
0.5718116
0.5681893
0.5587525
0.5783922
0.5775699
0.5760868
0.5742369
0.5717687
0.5681105
0.5579849
0.5783815
0.5775263
0.5760551
0.5742047
0.5717223
0.5680365
0.5571801
0.5783578
0.5774867
0.5760305
0.5741743
0.5716792
0.5679498
0.5571901
0.5783215
0.5774385
0.5760106
0.574147
0.571641
0.5676607
0.5572304
0.5783083
0.5774212
0.5759909
0.5741233
0.5716075
0.5675992
0.5572815
0.5782905
0.5770974
0.5755442
0.5740863
0.5715759
0.5675573
0.5573334
0.578264
0.5770837
0.5755287
0.5740686
0.5715408
0.5673351
0.5573905
0.5782541
0.5770716
0.5755129
0.5740505
0.5715115
0.5672234
0.5574546
0.578247
0.5770618
0.575499
0.5740336
0.571486
0.567194
0.5575099
0.5782396
0.5770526
0.5754859
0.5740176
0.5714583
0.5671669
0.5575682
0.5782324
0.5770442
0.5754738
0.5740021
0.5713317
0.5671313
0.5576177
0.5782272
0.5770364
0.5754623
0.5739876
0.57128
0.567103
0.5576696
0.5782222
0.5770289
0.5754516
0.5739742
0.571263
0.5670803
0.5577231
0.5782174
0.577022
0.5754415
0.5739613
0.5712466
0.5670586
0.5577712
0.5782129
0.5770154
0.5754318
0.5739492
0.5712312
0.5670379
0.557818
0.5782089
0.5770092
0.5754228
0.5739375
0.5712166
0.5670182
0.5578574
0.578205
0.5770031
0.5754139
0.573924
0.5711515
0.5669993
0.5578914
0.5782013
0.5769972
0.5754056
0.5739114
0.571075
0.5669815
0.5579244
0.5781977
0.5769915
0.5753977
0.5739011
0.5710648
0.5669646
0.5579585
0.5781942
0.576986
0.5753901
0.5738912
0.5710553
0.5669488
0.557965
0.5781907
0.5769806
0.5753826
0.5738816
0.5710465
0.5669342
0.5579413
0.5781871
0.5769752
0.5753753
0.5738721
0.5710381
0.5668966
0.557837
0.5781831
0.5769694
0.5753679
0.5738627
0.5710141
0.5668347
0.5577279
0.5781785
0.5769632
0.5753584
0.5738367
0.5709732
0.5667728
0.5576143
0.5781727
0.576955
0.5753252
0.5737927
0.5709321
0.5667111
0.5574998
0.5781649
0.5769268
0.5752891
0.5737482
0.5708908
0.5666491
0.5573792
0.5781404
0.5768953
0.5752508
0.5737029
0.5708509
0.566584
0.5572559
0.5781121
0.5768626
0.5752113
0.5736593
0.570863
0.5665146
0.5571297
0.5780817
0.5768284
0.5751709
0.5736129
0.5708125
0.566445
0.5569978
0.5780493
0.5767931
0.5751298
0.5735668
0.5707599
0.5663751
0.5568568
0.5780152
0.5767574
0.5750887
0.5735209
0.5707072
0.5663048
0.5566888
0.5779815
0.5767225
0.5750482
0.5734762
0.5706543
0.5662343
0.5564686
0.5779491
0.5766879
0.5750081
0.5734328
0.5706017
0.566163
0.5561494
0.00492553
2.90665e-12
0
0
0
0
1.545358e-39
1.084701e-44
6.28689e-50
1.981409e-55
4.162901e-61
6.453631e-67
7.832402e-73
7.656569e-79
1.010486e-84
1.71671e-90
1.66826e-96
1.377856e-102
0.0110919
1.628842e-10
3.066114e-17
2.342522e-23
3.097627e-29
1.167166e-34
4.691502e-40
2.074249e-45
8.997199e-51
2.794241e-56
5.848817e-62
8.708766e-68
1.013396e-73
9.373653e-80
1.026878e-85
1.464995e-91
1.287176e-97
9.77427e-104
0.01284687
1.147754e-09
2.353546e-16
1.291851e-22
9.935023e-29
2.756324e-34
1.028212e-39
4.192701e-45
1.548779e-50
4.026231e-56
7.283363e-62
9.954385e-68
1.067445e-73
9.088569e-80
1.03557e-85
1.043575e-91
8.124203e-98
5.544381e-104
0.01386578
2.06822e-09
6.201678e-16
3.315347e-22
2.198704e-28
5.518028e-34
2.005357e-39
8.007555e-45
2.78599e-50
6.868023e-56
1.191624e-61
1.569184e-67
1.620994e-73
1.317369e-79
1.304068e-85
9.730594e-92
6.622859e-98
3.894023e-104
0.01499233
3.112343e-09
1.256115e-15
7.320841e-22
4.795994e-28
1.112574e-33
3.966797e-39
1.566263e-44
5.311433e-50
1.268165e-55
2.134174e-61
2.717096e-67
2.691016e-73
2.097573e-79
0
2.50228e-92
2.444474e-98
1.631285e-104
0.01613747
5.015782e-09
2.565998e-15
1.63991e-21
1.074867e-27
2.288149e-33
8.012631e-39
3.153146e-44
1.043386e-49
2.448574e-55
4.052158e-61
5.104002e-67
4.939648e-73
3.822555e-79
2.464079e-85
2.024993e-91
1.352317e-97
7.912934e-104
0.01719158
1.349562e-08
6.49395e-15
3.83057e-21
2.455614e-27
4.802443e-33
1.658684e-38
6.542493e-44
2.132358e-49
4.945146e-55
8.165631e-61
1.031836e-66
9.992818e-73
7.471086e-79
4.676436e-85
3.52646e-91
2.42944e-97
1.39428e-103
0.01829454
2.317835e-08
1.542661e-14
9.119356e-21
5.804638e-27
1.039212e-32
3.525127e-38
1.400438e-43
4.499303e-49
1.059149e-54
1.76102e-60
2.233565e-66
2.144028e-72
1.613715e-78
1.017095e-84
7.772126e-91
5.553548e-97
3.26245e-103
0.01931605
2.325167e-08
2.497214e-14
2.189858e-20
1.527791e-26
2.424752e-32
7.764393e-38
3.094286e-43
9.967991e-49
2.361804e-54
3.993628e-60
5.124235e-66
5.025545e-72
3.824413e-78
2.455948e-84
1.968457e-90
1.489055e-96
8.907734e-103
0.02043386
2.94952e-08
5.088698e-14
6.224124e-20
4.927587e-26
6.661889e-32
1.846965e-37
7.193387e-43
2.322414e-48
5.557394e-54
9.647868e-60
1.285679e-65
1.30583e-71
1.004222e-77
6.750851e-84
5.802239e-90
4.667925e-96
2.884353e-102
0.02158299
3.539663e-08
9.034288e-14
1.710544e-19
1.478724e-25
1.901559e-31
4.616092e-37
1.717142e-42
5.628937e-48
1.391486e-53
2.544526e-59
3.525888e-65
3.681806e-71
2.967499e-77
2.095603e-83
2.002718e-89
1.677136e-95
1.066762e-101
0.02268957
3.717167e-08
9.785721e-14
2.170676e-19
2.478242e-25
3.825327e-31
1.011934e-36
3.679633e-42
1.379248e-47
3.784857e-53
7.413954e-59
1.085855e-64
1.191452e-70
1.003639e-76
7.624269e-83
8.067914e-89
7.186965e-95
4.735067e-101
0.02385106
3.866072e-08
1.136987e-13
2.965873e-19
4.058914e-25
8.072382e-31
3.129706e-36
1.473417e-41
4.918564e-47
1.351995e-52
2.729744e-58
4.219376e-64
4.820329e-70
4.279098e-76
3.540949e-82
4.152593e-88
3.738481e-94
2.584133e-100
0.02512492
3.238957e-08
1.144457e-13
3.415753e-19
6.143543e-25
1.715018e-30
8.509159e-36
4.819288e-41
2.130233e-46
6.374548e-52
1.384597e-57
2.182243e-63
2.554731e-69
2.361782e-75
2.078134e-81
2.577395e-87
2.391616e-93
1.706722e-99
0.03070604
3.537833e-08
1.217407e-13
3.846452e-19
8.111851e-25
2.696902e-30
1.384171e-35
8.04501e-41
3.51653e-46
1.162204e-51
2.781939e-57
4.892678e-63
6.514931e-69
7.01773e-75
6.980041e-81
9.491932e-87
9.275555e-93
7.305966e-99
0.03219879
0
1.579125e-13
4.901693e-19
1.335838e-24
4.731532e-30
2.184661e-35
1.036213e-40
3.44272e-46
1.091793e-51
2.666278e-57
5.005982e-63
7.260844e-69
9.012979e-75
1.142647e-80
1.9853e-86
2.170875e-92
2.042922e-98
0.03430339
1.580911e-07
0
6.983882e-19
2.237476e-24
1.151991e-29
6.965605e-35
3.128241e-40
1.110657e-45
3.156295e-51
7.136331e-57
1.258002e-62
1.774739e-68
2.250318e-74
3.233451e-80
6.226973e-86
7.346657e-92
7.821507e-98
0.0366048
2.006716e-07
1.188141e-12
0
4.026725e-24
1.720328e-29
1.442778e-34
1.036295e-39
3.895269e-45
1.134457e-50
2.503923e-56
4.327387e-62
5.951946e-68
7.476521e-74
1.117405e-79
2.265859e-85
2.738246e-91
3.157735e-97
0.03907551
2.584205e-07
1.767113e-12
9.740718e-18
0
2.944843e-29
2.585299e-34
2.67096e-39
1.494838e-44
5.008367e-50
1.129249e-55
1.913799e-61
2.565256e-67
3.16356e-73
6.824032e-79
1.20584e-84
1.345743e-90
1.647983e-96
0.04154635
3.284748e-07
2.624088e-12
1.635475e-17
7.241432e-23
0
3.865865e-34
4.31095e-39
2.971383e-44
1.372873e-49
4.038266e-55
7.756923e-61
1.116114e-66
1.485772e-72
1.21616e-77
7.050599e-84
9.269314e-90
1.1202e-95
0.04401036
4.137163e-07
3.843219e-12
2.75771e-17
1.374005e-22
4.476934e-28
0
4.915099e-39
4.406063e-44
2.695984e-49
1.092085e-54
2.80834e-60
4.898485e-66
7.375978e-72
4.860813e-77
0
4.049202e-89
4.762231e-95
0.04656277
5.155558e-07
5.552525e-12
4.552718e-17
2.585609e-22
9.526915e-28
4.804334e-33
0
6.487513e-44
5.786405e-49
3.036715e-54
9.864682e-60
2.223774e-65
3.963591e-71
1.602008e-76
1.645148e-82
2.578453e-88
3.116266e-94
0.04926585
6.414252e-07
8.014155e-12
7.577543e-17
4.924167e-22
2.059617e-27
1.159648e-32
8.543033e-38
0
1.176856e-48
8.9074e-54
3.577557e-59
1.069927e-64
2.345456e-70
8.238888e-76
1.030486e-81
1.794213e-87
2.288645e-93
0.05211627
7.998968e-07
1.155786e-11
1.259649e-16
9.348169e-22
4.405739e-27
2.770465e-32
2.209458e-37
1.242905e-42
0
1.662033e-53
9.189312e-59
3.681562e-64
1.171556e-69
5.897642e-75
6.492442e-81
1.155724e-86
1.474175e-92
0.05518279
9.930065e-07
1.666731e-11
2.079379e-16
1.752569e-21
9.29025e-27
6.542626e-32
5.715849e-37
3.409368e-42
1.895848e-47
0
1.976183e-58
1.303495e-63
6.959492e-69
1.170219e-73
5.586572e-80
7.766345e-86
9.033975e-92
0.05836829
1.225358e-06
2.381859e-11
3.404696e-16
3.284472e-21
1.949308e-26
1.524835e-31
1.454288e-36
9.316534e-42
5.509057e-47
2.828738e-52
0
2.27625e-63
2.653882e-68
4.25724e-72
4.197697e-79
4.329674e-85
5.88525e-91
0.06178426
1.523789e-06
3.435936e-11
5.634544e-16
6.186264e-21
4.086599e-26
3.551385e-31
3.740008e-36
2.572354e-41
1.659802e-46
9.175179e-52
4.783937e-57
0
7.199627e-68
2.932903e-73
9.131606e-79
2.120315e-84
4.150072e-90
0.06542581
1.884859e-06
4.932012e-11
9.329312e-16
1.164355e-20
8.530378e-26
8.291007e-31
9.664488e-36
7.016231e-41
5.017678e-46
3.013858e-51
1.595318e-56
9.210145e-62
5.638838e-67
3.883e-72
8.209441e-78
1.748029e-83
5.819049e-89
0.06924693
2.332486e-06
7.06007e-11
1.555851e-15
2.263581e-20
1.790144e-25
1.944909e-30
2.487143e-35
2.011444e-40
1.553455e-45
1.031639e-50
5.893515e-56
3.487542e-61
2.884901e-65
0
8.848231e-77
1.617293e-82
1.630159e-87
0.07337843
2.881418e-06
1.005686e-10
2.660458e-15
4.687169e-20
4.26718e-25
5.659605e-30
7.246836e-35
5.137305e-40
4.459593e-45
3.505438e-50
2.176289e-55
1.38693e-60
7.962388e-65
1.015095e-70
5.110742e-77
1.467722e-81
3.324397e-86
0.07776113
3.512195e-06
1.358323e-10
3.740424e-15
1.440485e-19
8.901601e-25
1.150819e-29
1.443483e-34
1.211575e-39
1.416654e-44
1.70508e-49
9.024051e-55
5.795415e-60
8.580563e-65
3.987955e-70
1.806271e-75
5.189504e-81
8.956817e-85
0.08236524
4.187101e-06
1.68966e-10
4.528376e-15
7.484154e-20
1.213398e-24
1.799881e-29
2.549782e-34
4.783753e-39
3.100497e-44
3.020787e-49
2.491261e-54
4.177542e-59
3.294794e-64
3.370379e-69
1.303847e-74
9.6873e-80
2.45397e-84
0.08739516
4.745959e-06
2.008835e-10
4.033372e-15
1.033939e-19
1.938304e-24
3.389955e-29
5.093301e-34
7.258659e-39
5.678917e-44
6.002423e-49
6.161428e-54
1.343486e-58
0
9.888751e-69
7.019228e-74
3.599112e-78
0
0.09317947
6.807051e-06
3.389075e-10
9.628451e-15
1.634622e-19
3.190692e-24
5.278105e-29
9.704723e-34
9.67172e-39
2.006827e-43
2.705122e-48
2.817493e-53
1.807279e-57
1.055333e-62
6.575921e-68
9.560427e-73
9.060259e-77
1.224205e-82
0.1100466
1.138981e-05
8.246054e-10
4.061906e-14
0
1.403795e-23
1.996885e-28
2.482689e-33
0
1.951957e-42
2.3219e-47
2.487125e-52
4.652656e-56
3.862061e-62
8.688473e-67
3.068826e-71
8.417716e-77
1.153807e-81
0.1211955
1.511741e-05
1.191201e-09
6.410639e-14
1.593016e-18
2.260438e-23
4.798487e-28
0
2.638813e-37
4.033186e-42
6.108031e-47
1.20887e-51
7.013123e-56
8.065723e-61
1.081364e-65
1.23314e-69
4.469827e-77
2.128272e-80
0.1402958
1.641557e-05
1.27835e-09
9.630937e-14
3.049727e-18
5.349113e-23
1.110283e-27
1.853031e-32
4.54472e-37
8.875398e-42
1.986614e-46
1.027369e-50
8.198598e-56
4.97314e-60
2.166678e-64
2.690787e-68
1.869112e-73
2.940144e-79
0.2400636
2.690049e-05
3.485622e-09
3.993679e-13
1.155842e-17
1.360205e-22
2.062665e-27
3.11783e-32
7.872731e-37
2.064016e-41
7.284089e-46
7.243491e-50
2.922454e-55
3.773257e-59
3.231247e-63
8.548492e-69
4.204634e-73
4.853774e-78
0.3725064
4.939505e-05
3.313854e-09
3.241662e-13
3.712151e-18
1.31305e-23
3.720413e-28
8.930364e-33
5.07543e-37
2.446019e-41
1.322846e-45
9.485618e-49
1.996398e-53
1.169029e-57
1.366236e-61
3.003878e-65
5.03387e-71
4.874765e-76
0.4697868
0.0004648042
4.705411e-08
8.545079e-13
1.905521e-18
2.761446e-23
1.814392e-27
9.250083e-32
7.705758e-36
5.25432e-40
6.197847e-44
1.770666e-47
4.632689e-51
5.349407e-55
7.636298e-59
1.210364e-62
1.852492e-68
1.439585e-73
0.5230873
0.0006825974
3.021413e-08
1.996314e-14
1.374053e-18
2.624894e-22
2.593314e-26
1.221457e-30
1.445561e-34
2.847491e-38
9.166339e-42
4.837083e-45
1.466265e-48
2.176514e-52
3.423218e-56
4.150933e-60
1.179368e-65
1.808965e-70
0.5306957
0.0004525534
2.72716e-09
0
1.672578e-18
6.044402e-22
7.323434e-26
1.049629e-29
5.149947e-33
3.085199e-36
1.905741e-39
1.684311e-42
4.558026e-46
7.061405e-50
1.330065e-53
1.325245e-57
9.100923e-63
1.997273e-67
0.5365678
0.0001319988
1.173771e-11
4.132936e-15
2.734332e-18
6.795008e-22
8.474515e-25
4.493642e-28
3.839515e-31
3.702754e-34
3.9716e-37
2.759154e-40
1.25901e-43
1.596699e-47
2.725626e-51
3.580424e-55
5.3765e-60
9.491539e-65
0.5417347
0.0008254353
5.466062e-10
3.960956e-14
3.622096e-17
1.757883e-20
2.703608e-23
2.361614e-26
3.035545e-29
4.440139e-32
7.55443e-35
3.780756e-38
2.841375e-41
4.924754e-45
4.845417e-49
7.863892e-53
1.971426e-57
3.050552e-62
0.5436638
0.0008779207
1.004638e-09
1.473212e-13
5.748353e-16
7.461453e-19
1.295128e-21
1.919351e-24
3.125737e-27
4.939602e-30
1.510216e-32
5.099202e-36
6.006527e-39
3.368619e-43
6.948781e-47
1.485933e-50
2.711294e-55
2.781424e-60
0.5458067
0.0008153056
3.79737e-09
7.682059e-12
3.371415e-14
8.265897e-17
1.154717e-19
1.666128e-22
2.947426e-25
4.57822e-28
1.379813e-30
5.487576e-34
7.017116e-37
1.258365e-41
6.090896e-45
1.181123e-48
2.833841e-53
2.788515e-59
0.5547917
0.001797903
5.027332e-07
5.256051e-10
1.702667e-12
7.382479e-15
8.451179e-18
1.228054e-20
2.44733e-23
3.492904e-26
7.745702e-29
8.862377e-33
2.585386e-35
0
4.101354e-43
8.556473e-47
1.553523e-51
0
0.5555344
0.0273066
9.777472e-06
2.119397e-08
9.244695e-11
5.175637e-13
6.271264e-16
9.272239e-19
1.417202e-21
1.842065e-24
2.124176e-27
2.881752e-31
9.647911e-34
1.763535e-38
0
3.648328e-46
0
6.256537e-56
0.5544047
0.05407518
0.000114108
6.182705e-07
4.964629e-09
2.097438e-11
3.83192e-14
6.323256e-17
3.141069e-20
8.46549e-24
1.197143e-26
2.036773e-29
1.217569e-32
0
2.217972e-41
0
1.025238e-49
0
0.5635043
0.1739147
0.001139975
1.115297e-05
6.131876e-20
0
0
0
0
5.489413e-37
3.631933e-41
5.629217e-45
5.53046e-50
1.331178e-54
0.5634755
0.5304052
0
8.328638e-31
0
5.228366e-39
0
4.399557e-46
0
0
0.5632223
0
3.706208e-33
7.072345e-38
3.227948e-44
3.548619e-47
3.604766e-51
1.151531e-56
3.529901e-33
2.207302e-38
4.578279e-43
2.330454e-47
5.304192e-52
6.829075e-56
2.025015e-38
0
2.709656e-49
3.594041e-51
1.798102e-56
1.35449e-40
7.339278e-45
1.206051e-48
0
3.3149e-58
2.53738e-39
2.482461e-43
7.295048e-48
1.835223e-52
3.107036e-57
4.946194e-37
4.563941e-41
2.617833e-45
1.232986e-49
2.629691e-54
8.295391e-36
7.574065e-39
9.970219e-43
5.131583e-47
1.038288e-51
2.091336e-34
1.995043e-37
1.938785e-41
6.927308e-46
4.467531e-50
0
2.093954e-33
1.918373e-36
2.678492e-40
1.350431e-44
2.256066e-49
0.5646358
0
9.637321e-34
6.385564e-37
8.281593e-41
1.214175e-44
4.238556e-49
0.5649941
0.49503
6.797716e-27
5.785347e-33
1.597749e-34
8.076113e-38
1.203122e-41
8.200107e-46
5.278653e-50
0.5629875
0.2919197
0.002902496
0
3.063267e-25
4.251324e-27
4.392075e-30
1.812201e-33
7.842225e-37
5.766596e-41
9.067508e-45
3.280636e-49
0.5546248
0.09771453
0.0005321518
3.853181e-06
4.849399e-08
3.86326e-10
2.076747e-12
6.267802e-15
1.439277e-17
1.898247e-20
3.16774e-23
2.749089e-26
1.613874e-29
4.17918e-33
5.788844e-37
1.349847e-40
1.163054e-44
2.616157e-49
0.5528624
0.03492012
6.091169e-05
2.2527e-07
1.127639e-09
6.501186e-12
2.193095e-14
5.479652e-17
9.972089e-20
1.563982e-22
2.354503e-25
1.139107e-28
2.395329e-32
1.25147e-35
5.772726e-40
2.311011e-43
1.407034e-47
2.068907e-51
0.5516306
0.01861398
8.650437e-06
1.000612e-08
2.127981e-11
5.338614e-14
1.179533e-16
2.822206e-19
5.648015e-22
5.07501e-25
5.603294e-28
4.331341e-31
1.453487e-34
2.142371e-38
6.045006e-42
3.469157e-46
5.75396e-50
2.928451e-55
0.5492823
0.00475793
1.036037e-06
2.867109e-10
2.45208e-13
6.740722e-16
1.458605e-18
2.426709e-21
3.038077e-24
3.503213e-27
9.929191e-31
7.325052e-34
9.469873e-38
5.318551e-41
1.945876e-45
5.390618e-49
6.721462e-54
3.50121e-57
0.5418586
0.002569881
1.575267e-07
2.186736e-11
9.157298e-15
7.737048e-18
7.775638e-21
7.426785e-24
6.547502e-27
6.319415e-30
3.154152e-33
1.83086e-36
1.381283e-40
4.721524e-44
0
2.244477e-51
2.614856e-55
0
0.5418055
0.002333269
4.896022e-07
1.250471e-10
4.453207e-14
1.670011e-17
6.631424e-21
2.500174e-24
9.353023e-28
2.941322e-31
8.310647e-35
1.976682e-38
4.404737e-42
6.751761e-48
1.383702e-50
6.662607e-54
1.45763e-58
2.002573e-62
0.5407197
0.001685466
7.174678e-07
1.752844e-10
4.418946e-14
9.888929e-18
2.027717e-21
3.429727e-25
5.354901e-29
6.816131e-33
7.774046e-37
2.451215e-42
1.108244e-45
2.280954e-51
8.221794e-54
1.452812e-57
2.791631e-61