/*--------------------------------*- C++ -*----------------------------------*\
| =========                 |                                                 |
| \\      /  F ield         | OpenFOAM: The Open Source CFD Toolbox           |
|  \\    /   O peration     | Version:  2206                                  |
|   \\  /    A nd           | Website:  www.openfoam.com                      |
|    \\/     M anipulation  |                                                 |
\*---------------------------------------------------------------------------*/
FoamFile
{
    version     2.0;
    format      ascii;
    arch        "LSB;label=32;scalar=64";
    class       volVectorField;
    location    "2";
    object      ddt0(U.b);
}
// * * * * * * * * * * * * * * * * * * * * * * * * * * * * * * * * * * * * * //

dimensions      [0 1 -2 0 0 0 0];

internalField   nonuniform List<vector> 
13078
(
(0.000399459 -2.83013e-05 -5.401591e-26)
(0.0003810532 1.055488e-05 -3.014665e-28)
(0.0003614688 0.0003272733 9.97437e-26)
(0.0003636975 0.0004226735 0)
(0.0003588669 0.0005296284 6.796857e-26)
(0.0003490353 0.0006439433 7.951778e-26)
(0.0003395338 0.0007632873 9.22499e-26)
(0.0001045138 -3.15868e-05 0)
(0.0002799088 0.0001286639 -1.611858e-28)
(0.0002649403 0.0003123803 0)
(0.0002572349 0.0004133626 0)
(0.0002467604 0.0005172856 1.019008e-28)
(0.0002363074 0.0006300224 6.15473e-29)
(0.0002216301 0.0007463194 1.41988e-28)
(0.0001606143 3.888755e-05 -3.028985e-27)
(0.0001886503 0.0001582349 1.115779e-26)
(0.0001686048 0.0002834488 -4.113745e-26)
(0.0001520558 0.0003944991 -1.066808e-25)
(0.0001394205 0.0005030155 -6.576014e-26)
(0.0001257223 0.0006131238 0)
(0.0001078546 0.0007263293 5.148844e-31)
(6.454145e-05 4.730573e-05 -4.053359e-26)
(6.840154e-05 0.0001562215 8.664363e-26)
(5.808278e-05 0.0002687785 9.024495e-26)
(4.772062e-05 0.0003762095 4.615199e-26)
(3.342807e-05 0.0004857237 -1.752207e-27)
(1.752957e-05 0.0005937684 0)
(-2.202061e-06 0.0007036822 -9.442334e-28)
(-4.779999e-05 4.791241e-05 2.384321e-28)
(-4.670602e-05 0.000152533 7.54132e-26)
(-5.100969e-05 0.0002581418 1.501623e-25)
(-5.917874e-05 0.0003637271 1.576171e-25)
(-6.989835e-05 0.0004668978 -7.063569e-27)
(-8.746717e-05 0.0005735636 4.450044e-30)
(-0.0001082489 0.0006796422 -8.500708e-26)
(-0.0001522695 4.696112e-05 0)
(-0.000152403 0.000148084 -1.348582e-27)
(-0.0001563516 0.0002496041 2.207352e-27)
(-0.0001635972 0.0003516989 1.02186e-25)
(-0.0001736713 0.0004519181 -7.799867e-27)
(-0.0001884294 0.0005503781 7.332132e-26)
(-0.0002096464 0.0006549668 1.764405e-25)
(-0.0002522944 4.557975e-05 0)
(-0.0002525363 0.0001430391 1.284303e-25)
(-0.0002564301 0.0002403853 1.619872e-25)
(-0.0002650157 0.0003384608 4.684585e-26)
(-0.00027696 0.000436427 1.217149e-25)
(-0.0002897247 0.0005326704 -9.213082e-27)
(-0.0003071939 0.0006291483 0)
(-0.0003484475 4.418516e-05 -3.120564e-25)
(-0.0003499629 0.0001376019 1.554317e-25)
(-0.00035335 0.0002308338 1.551732e-25)
(-0.0003633747 0.0003241324 0)
(-0.000373924 0.0004192548 3.104933e-25)
(-0.0003883739 0.0005154454 -9.145e-27)
(-0.0004044294 0.0006096122 -1.075598e-26)
(-0.000441197 4.148367e-05 -3.526936e-29)
(-0.0004426899 0.0001326461 -3.640581e-25)
(-0.0004480857 0.0002203131 -1.858626e-25)
(-0.0004570401 0.0003110858 -5.798341e-27)
(-0.0004679284 0.0004047071 7.181371e-25)
(-0.0004829242 0.0004963353 -9.088903e-27)
(-0.0005001405 0.0005898348 0)
(-0.000529463 4.032338e-05 4.184154e-25)
(-0.0005305939 0.0001257687 -4.167971e-25)
(-0.0005390123 0.0002108057 -2.082529e-25)
(-0.0005465409 0.0002979368 4.134931e-25)
(-0.0005603294 0.0003873174 2.062318e-28)
(-0.0005756184 0.0004780912 0)
(-0.0005943894 0.0005693254 0)
(-0.0006121055 3.818791e-05 0)
(-0.0006163307 0.0001185817 0)
(-0.0006237408 0.0001991703 -4.688373e-25)
(-0.0006344842 0.0002838009 4.664485e-25)
(-0.0006485344 0.0003700196 -2.147313e-28)
(-0.0006668398 0.0004576041 0)
(-0.0006871933 0.0005474805 0)
(-0.0006911871 3.416431e-05 0)
(-0.0006956324 0.0001101242 5.21603e-25)
(-0.0007041618 0.0001880594 -5.21292e-25)
(-0.000717469 0.0002676987 -5.132071e-25)
(-0.0007346709 0.0003496891 5.286057e-25)
(-0.0007557783 0.000434847 0)
(-0.000779151 0.0005233941 -5.449667e-25)
(-0.0007649297 3.220791e-05 0)
(-0.000768619 0.0001023997 5.757485e-25)
(-0.0007798278 0.0001734213 3.951428e-27)
(-0.0007966379 0.0002483231 -5.717403e-25)
(-0.0008171488 0.0003268363 5.743908e-25)
(-0.0008420294 0.000408895 -5.76392e-25)
(-0.0008698349 0.0004955762 -2.962988e-28)
(-0.0008303501 2.939555e-05 6.253393e-25)
(-0.0008369355 9.276164e-05 0)
(-0.0008505222 0.0001567125 3.877938e-27)
(-0.0008700943 0.0002260004 5.502391e-27)
(-0.0008953685 0.00029991 1.256107e-24)
(-0.0009250906 0.0003784118 -6.311151e-25)
(-0.0009586596 0.0004626116 6.343379e-25)
(-0.0008883612 2.498005e-05 6.755754e-25)
(-0.0008976071 8.060142e-05 0)
(-0.0009141826 0.0001375414 7.558406e-27)
(-0.0009369515 0.0001997595 -7.465623e-25)
(-0.0009692047 0.0002674612 5.77242e-25)
(-0.001004274 0.0003421057 0)
(-0.001044857 0.0004231348 -6.904497e-25)
(-0.0009379334 2.003981e-05 0)
(-0.000949122 6.637926e-05 7.25005e-25)
(-0.0009696191 0.0001147115 0)
(-0.0009980417 0.0001684392 -7.41337e-25)
(-0.001035234 0.0002297694 -1.370477e-26)
(-0.001078396 0.0002990228 -1.719008e-26)
(-0.001127511 0.00037592 -7.686494e-25)
(-0.0009767044 1.432321e-05 0)
(-0.0009904291 4.967017e-05 1.546777e-24)
(-0.001015375 8.778926e-05 3.56437e-27)
(-0.001049871 0.0001320938 5.088284e-27)
(-0.001094341 0.0001852552 0)
(-0.001146539 0.0002477951 0)
(-0.001205633 0.0003195694 0)
(-0.001002712 7.605207e-06 8.177912e-25)
(-0.001019557 2.992321e-05 8.209857e-25)
(-0.001049727 5.586299e-05 6.80367e-27)
(-0.001091275 8.905299e-05 4.864777e-27)
(-0.00114454 0.0001324315 0)
(-0.001207372 0.0001868663 8.671512e-25)
(-0.001278173 0.0002524641 3.952831e-26)
(-0.001013624 -3.197498e-07 8.61091e-25)
(-0.001034196 6.57881e-06 8.649522e-25)
(-0.001070507 1.805372e-05 9.532359e-27)
(-0.0011204 3.807011e-05 9.149884e-27)
(-0.001183854 6.970262e-05 0)
(-0.001259496 0.0001144592 9.062791e-25)
(-0.001343939 0.0001727015 1.89896e-26)
(-0.001006692 -9.661539e-06 9.011886e-25)
(-0.001031662 -2.097033e-05 1.810329e-24)
(-0.001075134 -2.664358e-05 9.138971e-25)
(-0.001134752 -2.246539e-05 0)
(-0.00120906 -5.776835e-06 -7.587454e-26)
(-0.0013012 2.81913e-05 -1.295645e-25)
(-0.001401571 7.794387e-05 -3.566745e-26)
(-0.0009787083 -2.065434e-05 9.37164e-25)
(-0.001008852 -5.339913e-05 1.883784e-24)
(-0.001060682 -7.922713e-05 1.904649e-24)
(-0.001131714 -9.34912e-05 9.621844e-25)
(-0.001220226 -9.328078e-05 -1.00718e-26)
(-0.0013281 -7.395279e-05 1.00794e-24)
(-0.001449164 -3.437049e-05 -1.021787e-24)
(-0.0009259297 -3.357333e-05 0)
(-0.000962139 -9.153879e-05 9.73177e-25)
(-0.001023722 -0.0001411495 9.866383e-25)
(-0.001108071 -0.0001773058 2.017775e-24)
(-0.00121321 -0.0001965908 0)
(-0.001340707 -0.0001939264 1.059199e-24)
(-0.00148502 -0.0001673249 -3.796867e-28)
(-0.0008440176 -4.870707e-05 -9.908043e-25)
(-0.0008872849 -0.0001362661 0)
(-0.0009601438 -0.0002138975 0)
(-0.001059884 -0.000276001 -4.549604e-27)
(-0.001184476 -0.0003184502 -1.080861e-24)
(-0.001334825 -0.0003357998 0)
(-0.001506444 -0.0003248378 1.152991e-24)
(-0.0007279967 -6.636283e-05 -2.012621e-24)
(-0.0007794108 -0.0001885047 0)
(-0.0008651721 -0.0002990201 0)
(-0.0009824767 -0.000391859 -1.068263e-24)
(-0.001129212 -0.0004626373 -2.214277e-24)
(-0.001303816 -0.0005071344 1.153775e-24)
(-0.001509082 -0.0005113001 0)
(-0.0005722097 -8.686824e-05 -1.011794e-24)
(-0.0006329444 -0.0002492473 6.889578e-29)
(-0.0007333745 -0.0003981481 -1.053618e-24)
(-0.0008707005 -0.0005268349 -6.951478e-28)
(-0.001042807 -0.0006298855 -2.028846e-27)
(-0.001246596 -0.0007018449 1.19299e-24)
(-0.001486896 -0.0007337684 0)
(-0.0003702789 -0.0001105573 0)
(-0.0004415341 -0.0003195528 1.023208e-24)
(-0.0005584621 -0.000513232 -1.05623e-24)
(-0.0007184721 -0.0006841878 0)
(-0.0009196899 -0.0008261579 1.161578e-24)
(-0.001158574 -0.0009325171 7.94608e-28)
(-0.001440189 -0.0009936145 -4.204175e-27)
(-0.0001151514 -0.0001377176 9.837677e-25)
(-0.0001980003 -0.0004003753 1.006145e-24)
(-0.000333181 -0.0006460276 -1.045752e-24)
(-0.0005183868 -0.0008665711 0)
(-0.0007522087 -0.001054837 -1.094286e-26)
(-0.001031568 -0.001202623 1.636346e-28)
(-0.001360674 -0.001299153 6.115889e-27)
(0.000200783 -0.0001686038 9.453734e-25)
(0.0001057224 -0.000492367 9.723848e-25)
(-4.94058e-05 -0.0007980112 -1.019552e-24)
(-0.000261988 -0.001076388 0)
(-0.0005313906 -0.001319818 0)
(-0.0008550712 -0.00152005 1.262246e-24)
(-0.001233084 -0.001669158 -1.592217e-24)
(0.0005855888 -0.0002030084 8.854571e-25)
(0.0004782329 -0.0005959652 9.157585e-25)
(0.0003017564 -0.0009702905 0)
(6.004583e-05 -0.001315364 -1.078256e-24)
(-0.0002476435 -0.001622797 -3.165739e-26)
(-0.0006196893 -0.001881948 2.55726e-24)
(-0.001053108 -0.002080883 1.048109e-25)
(0.001047562 -0.0002429849 8.043752e-25)
(0.0009307244 -0.0007094329 0)
(0.00073045 -0.001162871 8.939614e-25)
(0.0004582453 -0.001585064 -1.015255e-24)
(0.0001103087 -0.001967929 1.109205e-24)
(-0.000313963 -0.002300278 2.486443e-24)
(-0.000813486 -0.002567413 1.398412e-24)
(0.001600625 -0.0002826205 0)
(0.001465091 -0.0008368705 0)
(0.001246909 -0.001375126 1.630565e-24)
(0.0009442948 -0.001885113 0)
(0.0005556444 -0.00235528 2.094958e-24)
(7.923129e-05 -0.002775124 1.20312e-24)
(-0.000486568 -0.003132989 -1.385247e-24)
(0.002248222 -0.0003301296 5.485304e-25)
(0.002092958 -0.0009816773 -6.205455e-25)
(0.001865653 -0.001600492 -7.012034e-25)
(0.001532841 -0.002211008 0)
(0.001101382 -0.002782125 9.574098e-25)
(0.0005742264 -0.003300815 0)
(-5.734511e-05 -0.003754488 -1.545187e-24)
(0.003000184 -0.0003780936 3.781816e-25)
(0.002837309 -0.001123319 -4.360683e-25)
(0.002580179 -0.001860612 -1.61446e-24)
(0.002243831 -0.002552428 -1.279525e-24)
(0.001763179 -0.003243246 9.350293e-25)
(0.001187733 -0.003878765 1.145184e-25)
(0.0004911297 -0.004452773 -1.28146e-25)
(0.003860552 -0.000428793 3.499354e-27)
(0.00368669 -0.001273382 1.042705e-26)
(0.003423351 -0.002103857 -2.644408e-25)
(0.003056611 -0.002923285 -1.096944e-24)
(0.002557256 -0.003728188 4.336343e-25)
(0.001940569 -0.004498572 2.836419e-25)
(0.001188493 -0.005215139 6.430005e-25)
(0.004834848 -0.0004810075 -4.097292e-27)
(0.004650156 -0.001431757 -1.228178e-26)
(0.00438003 -0.002375534 -1.765363e-25)
(0.003990978 -0.003325001 -1.28585e-24)
(0.003510199 -0.004210983 -1.439203e-24)
(0.002858914 -0.005136197 -1.066871e-24)
(0.002058569 -0.006018209 0)
(0.005923664 -0.0005314478 0)
(0.005730501 -0.001583527 0)
(0.005461285 -0.002629183 1.887337e-25)
(0.005089131 -0.003679119 2.867681e-25)
(0.00458154 -0.004748151 1.495894e-24)
(0.003978733 -0.005752062 1.162815e-24)
(0.003124595 -0.006829166 0)
(0.00712257 -0.000578873 -1.057524e-26)
(0.006923632 -0.001727093 3.178543e-26)
(0.006658628 -0.002872307 1.066151e-25)
(0.006300323 -0.004021319 0)
(0.005824851 -0.00517862 2.604968e-25)
(0.005219741 -0.006365037 -4.715141e-25)
(0.004409881 -0.007595637 -1.115034e-24)
(0.008422826 -0.000620456 -1.078352e-24)
(0.00822383 -0.001855163 3.540484e-26)
(0.007968905 -0.003093672 -8.817934e-25)
(0.007629465 -0.004346195 0)
(0.007186972 -0.005626044 9.428237e-25)
(0.00660197 -0.006965488 -3.5284e-24)
(0.005959171 -0.008236889 -6.380112e-24)
(0.009807627 -0.0006532088 -1.4856e-24)
(0.009619525 -0.001956951 -1.371236e-24)
(0.009380582 -0.003275984 -1.296408e-24)
(0.009073633 -0.004608988 -3.656641e-25)
(0.008683166 -0.005964984 -9.588274e-25)
(0.0081866 -0.007346461 -1.126808e-24)
(0.007591777 -0.008797394 -2.900004e-24)
(0.01125949 -0.0006807142 0)
(0.01109119 -0.002016284 1.749492e-24)
(0.01088449 -0.00339731 1.738726e-24)
(0.01062931 -0.0048021 1.965484e-25)
(0.01032185 -0.006240363 -1.950912e-24)
(0.009926208 -0.00773527 -6.59039e-25)
(0.009364707 -0.009314636 0)
(0.01276848 -0.0006845146 2.387289e-24)
(0.01259056 -0.002063356 4.281259e-24)
(0.0124727 -0.003417379 1.685793e-24)
(0.01231252 -0.004859265 4.216266e-24)
(0.012155 -0.006348855 -2.536744e-24)
(0.01198103 -0.007944741 1.090935e-24)
(0.01166134 -0.009614202 6.488721e-24)
(0.01427541 -0.00066679 2.824563e-24)
(0.01413423 -0.002005055 -4.10793e-26)
(0.01406427 -0.003361021 0)
(0.01413356 -0.004668245 1.464212e-25)
(0.01419935 -0.006141412 5.124563e-24)
(0.01430719 -0.007819369 -1.145046e-22)
(0.01433792 -0.01008859 -2.234658e-23)
(0.01573156 -0.0006245228 -3.265284e-24)
(0.01566387 -0.00183142 7.701788e-26)
(0.0157331 -0.003035912 1.363138e-25)
(0.01592895 -0.00424278 -7.725473e-24)
(0.01632127 -0.005506793 3.529877e-22)
(0.01646024 -0.007240221 -1.691906e-22)
(0.01606618 -0.01034488 -8.598255e-23)
(0.01709363 -0.000526402 -3.655455e-24)
(0.01708754 -0.00151665 0)
(0.01733724 -0.002449983 2.456612e-25)
(0.01774864 -0.00346391 -8.323987e-23)
(0.01795314 -0.004889882 4.668606e-22)
(0.01767137 -0.007211872 -4.187072e-22)
(0.01584321 -0.01152798 4.089547e-22)
(0.01825812 -0.0003555672 0)
(0.0183478 -0.0009702738 1.13158e-25)
(0.01874135 -0.001580353 1.321407e-22)
(0.01924043 -0.002622614 -1.133234e-22)
(0.01926024 -0.004710511 3.376408e-23)
(0.01810423 -0.008762096 -1.436003e-22)
(0.01545214 -0.0131114 -3.793008e-22)
(0.01909777 -9.521587e-05 0)
(0.01923851 -0.0002192007 6.171934e-23)
(0.01966884 -0.0005497531 1.812625e-22)
(0.01992309 -0.001748207 2.944924e-23)
(0.01928201 -0.00481259 -4.494205e-22)
(0.01677401 -0.01040637 2.310689e-22)
(0.0136728 -0.0159829 3.607088e-22)
(0.01943856 0.0002222989 -4.364603e-24)
(0.01962043 0.0006139486 4.356893e-23)
(0.01987537 0.0002301942 2.657567e-22)
(0.01952481 -0.001831279 -2.076781e-22)
(0.01743815 -0.006744574 -1.525017e-22)
(0.01383747 -0.01372431 -3.936873e-24)
(0.009394996 -0.01952346 1.29262e-22)
(0.01915118 0.0005276669 1.208057e-22)
(0.01930002 0.001279883 6.076303e-23)
(0.01924085 0.0005631065 2.783945e-22)
(0.01799327 -0.003230936 -2.263472e-22)
(0.01513484 -0.0101405 4.774399e-22)
(0.0112772 -0.0182619 4.54131e-22)
(0.006306821 -0.02524272 5.5613e-22)
(0.01830657 0.0007997482 3.591573e-22)
(0.01814177 0.001718477 -1.150961e-22)
(0.01736125 4.455676e-06 1.090561e-23)
(0.01527397 -0.005316985 -1.608786e-22)
(0.01238838 -0.01334214 -1.893829e-22)
(0.008652904 -0.02273048 -1.737169e-22)
(0.004712002 -0.03227442 2.873465e-22)
(0.01677889 0.000937176 4.470626e-23)
(0.01610676 0.001399375 -2.902369e-22)
(0.01482797 -0.001565859 1.663976e-22)
(0.01257295 -0.008023394 -1.827501e-22)
(0.009991505 -0.01651988 -7.91474e-23)
(0.007022653 -0.02654429 -2.588643e-22)
(0.002182217 -0.04013496 7.830902e-22)
(0.01452079 0.0008003053 -1.492913e-22)
(0.01331978 0.0007802046 -1.641826e-22)
(0.01204632 -0.003243981 8.138617e-24)
(0.01002372 -0.01033662 -8.13712e-23)
(0.008142742 -0.01907828 1.928392e-22)
(0.005245594 -0.0320317 5.043359e-22)
(-0.002855816 -0.04838906 3.067896e-22)
(0.01183239 0.0003357949 4.752742e-23)
(0.01046282 -0.0003044514 3.830385e-23)
(0.00903142 -0.005138984 3.052693e-22)
(0.007477105 -0.01225892 2.657983e-22)
(0.005714543 -0.02237573 3.696233e-22)
(0.001174487 -0.03847804 -2.466826e-22)
(-0.01141374 -0.05697047 -2.657724e-21)
(0.008645059 -5.345901e-05 2.751242e-23)
(0.00730547 -0.001457958 9.72036e-23)
(0.005876122 -0.00649337 2.193613e-23)
(0.004523515 -0.01376518 -1.824454e-22)
(0.00255861 -0.02665488 -1.769961e-23)
(-0.004238962 -0.0457958 -2.076846e-22)
(-0.01663179 -0.0694213 -8.991271e-22)
(0.004626839 -0.0004015097 3.66731e-23)
(0.003480748 -0.002468763 1.078105e-22)
(0.002286918 -0.007949449 2.543581e-23)
(0.0008974189 -0.01558523 -5.837951e-23)
(-0.001685556 -0.03108506 9.821054e-23)
(-0.008352748 -0.0536333 -4.67431e-23)
(-0.01844893 -0.08025858 -8.726352e-22)
(6.337443e-05 -0.0006279365 4.336917e-23)
(-0.0006499245 -0.00319079 7.209335e-24)
(-0.001678232 -0.009064364 -1.274579e-23)
(-0.002949388 -0.01781975 -3.08769e-23)
(-0.005617695 -0.03557306 -2.256703e-23)
(-0.01101712 -0.0599812 -1.336569e-22)
(-0.01665102 -0.08860353 -9.929135e-23)
(-0.005005159 -0.0006927377 9.316534e-24)
(-0.005258886 -0.003778723 1.328553e-23)
(-0.005832688 -0.01021542 6.75893e-23)
(-0.006907944 -0.01966948 -6.468949e-23)
(-0.008763483 -0.038778 -1.466934e-22)
(-0.01134467 -0.06373688 2.232497e-22)
(-0.01233423 -0.09182323 3.606712e-22)
(-0.01023409 -0.0007583345 -2.057149e-24)
(-0.01004809 -0.003983029 2.236056e-23)
(-0.01003009 -0.01093981 1.195364e-22)
(-0.01073788 -0.02113281 5.288292e-23)
(-0.01182888 -0.03985219 -6.290745e-23)
(-0.01119985 -0.06358858 2.996513e-22)
(-0.007976349 -0.08937822 2.748782e-22)
(-0.01505416 -0.0007783175 -1.395522e-23)
(-0.01441783 -0.00408366 -9.190734e-24)
(-0.01412795 -0.01158041 3.866625e-25)
(-0.01433794 -0.02241354 -2.444586e-23)
(-0.0150901 -0.0397031 -7.401026e-23)
(-0.0126098 -0.06117048 -2.641862e-23)
(-0.006266264 -0.08425969 8.137746e-23)
(-0.01928359 -0.0007256558 4.217923e-24)
(-0.01821669 -0.004112842 -6.500969e-23)
(-0.0175059 -0.01193382 -3.262772e-23)
(-0.01729642 -0.0235709 -5.617209e-23)
(-0.01721411 -0.03920888 9.665343e-23)
(-0.01417615 -0.0585264 5.368685e-23)
(-0.006909015 -0.07980702 -2.402814e-23)
(-0.02286885 -0.0005436275 3.781174e-23)
(-0.02171425 -0.003757056 -1.604766e-23)
(-0.0202565 -0.01199827 -5.931264e-23)
(-0.01908814 -0.02391695 5.478722e-23)
(-0.01724998 -0.03761371 -1.567584e-22)
(-0.01427439 -0.0549865 -1.051266e-22)
(-0.008006973 -0.07587278 4.893418e-22)
(-0.02525665 -0.0006047897 4.272495e-24)
(-0.0241413 -0.003256378 1.707549e-22)
(-0.02239461 -0.01089362 1.501797e-22)
(-0.01957501 -0.02228816 -4.288871e-22)
(-0.01567345 -0.03550166 -8.804598e-22)
(-0.01151737 -0.05071546 -1.389284e-21)
(-0.004870017 -0.06694943 -1.961989e-21)
(-0.02629979 -0.0006083068 -1.990063e-22)
(-0.02504267 -0.002918815 6.163499e-23)
(-0.02320584 -0.008670088 2.02182e-22)
(-0.01982585 -0.01822032 2.078058e-22)
(-0.01450894 -0.03020256 -8.350052e-23)
(-0.008280761 -0.04308433 -3.802288e-22)
(-0.001181294 -0.05538558 -2.978971e-22)
(-0.02647593 -0.0004540209 -3.677362e-22)
(-0.0255256 -0.002155455 -1.40891e-22)
(-0.02363828 -0.007066358 -1.913188e-22)
(-0.0201678 -0.01442316 -2.759938e-23)
(-0.01507193 -0.0239227 1.994155e-22)
(-0.008082603 -0.03461789 5.174986e-22)
(-0.0005258235 -0.04253585 -4.049221e-23)
(-0.02595068 -0.0005011798 -2.190825e-22)
(-0.02538379 -0.001844093 -2.975026e-22)
(-0.02403632 -0.005153009 -1.491426e-22)
(-0.02073424 -0.01089602 -8.096056e-23)
(-0.01647275 -0.01839303 2.029363e-22)
(-0.01009372 -0.02663301 4.179304e-22)
(-0.003648831 -0.03302496 -4.272803e-22)
(-0.02460082 -0.0006088222 -9.771521e-23)
(-0.02414183 -0.001898492 -1.952771e-22)
(-0.02340611 -0.004085681 -3.025873e-23)
(-0.02136196 -0.008231088 2.981193e-23)
(-0.0180154 -0.01404346 7.228866e-22)
(-0.01334204 -0.02083251 2.162247e-21)
(-0.007772183 -0.0264347 1.74064e-21)
(-0.0225425 -0.000776211 -5.281589e-24)
(-0.02217192 -0.002237848 -3.749211e-22)
(-0.02181328 -0.004029337 9.131878e-23)
(-0.02078544 -0.00706357 2.05314e-22)
(-0.01855049 -0.01133684 3.473055e-23)
(-0.01523243 -0.01655732 -2.983888e-23)
(-0.01080371 -0.02146519 -5.892327e-22)
(-0.02010486 -0.0009533335 0)
(-0.01975767 -0.002712832 -4.456886e-22)
(-0.01952218 -0.004357219 1.108923e-22)
(-0.01907124 -0.00647302 7.722267e-23)
(-0.01766808 -0.009797862 2.495487e-22)
(-0.01532218 -0.01412455 3.482903e-22)
(-0.01207439 -0.01877341 -1.065661e-21)
(-0.01750288 -0.001060303 0)
(-0.01718394 -0.002995372 -1.979623e-25)
(-0.01692013 -0.004788192 2.552416e-23)
(-0.01663911 -0.006713768 3.368468e-23)
(-0.01584867 -0.009289456 -2.379291e-24)
(-0.01415974 -0.01241692 8.302234e-23)
(-0.01157728 -0.01562591 -1.991726e-22)
(-0.0149705 -0.001065214 -3.659684e-24)
(-0.01460188 -0.003148305 0)
(-0.01425653 -0.005056484 0)
(-0.01388317 -0.00688999 2.595692e-23)
(-0.01322059 -0.00888607 -9.310528e-22)
(-0.01204019 -0.01103151 -1.064142e-22)
(-0.01031787 -0.01421371 1.401625e-22)
(-0.01253046 -0.001048461 -3.058063e-24)
(-0.01215159 -0.003097736 -1.072479e-25)
(-0.01171196 -0.005046411 -1.858353e-25)
(-0.01117235 -0.006897175 -2.065175e-24)
(-0.0105815 -0.008571018 -6.062202e-22)
(-0.009682294 -0.01051771 -3.690439e-22)
(-0.008475051 -0.01272994 5.016047e-22)
(-0.01027375 -0.0009762236 0)
(-0.009890998 -0.002909925 2.359308e-24)
(-0.00938195 -0.004802371 0)
(-0.008772331 -0.006527664 -5.123999e-25)
(-0.007996719 -0.008250784 -6.880621e-25)
(-0.007091537 -0.009932228 -9.274953e-23)
(-0.005987312 -0.01162596 5.210374e-22)
(-0.008194582 -0.0008905962 0)
(-0.007824288 -0.0026695 -1.732591e-24)
(-0.007328703 -0.004365605 1.608987e-24)
(-0.00663963 -0.006054311 0)
(-0.005791357 -0.007657813 -1.275785e-24)
(-0.004816487 -0.00911517 -2.415559e-24)
(-0.00365966 -0.01059743 3.118557e-22)
(-0.00630717 -0.0008084245 0)
(-0.005985907 -0.002378657 -3.620633e-24)
(-0.005486415 -0.003943708 -6.572085e-27)
(-0.004803395 -0.005466676 -2.502465e-24)
(-0.003956838 -0.006883707 -1.158462e-24)
(-0.002929287 -0.00826009 1.646452e-25)
(-0.001685571 -0.009593545 -7.02685e-24)
(-0.004639901 -0.0007138883 8.236675e-25)
(-0.004333089 -0.002118434 -7.958159e-25)
(-0.003865188 -0.003492449 2.705547e-27)
(-0.00322346 -0.004821841 -4.094401e-25)
(-0.002395469 -0.006090172 0)
(-0.001391455 -0.007277185 0)
(-0.0001641013 -0.008364962 3.535855e-24)
(-0.003173702 -0.0006258928 3.617375e-25)
(-0.002884617 -0.001858472 -3.075827e-25)
(-0.002446291 -0.003060407 1.085546e-25)
(-0.001851395 -0.004203084 -1.081537e-25)
(-0.001068071 -0.005317473 0)
(-8.727776e-05 -0.006379582 0)
(0.001071297 -0.007230671 2.383496e-25)
(-0.001897616 -0.0005424478 1.917643e-26)
(-0.001631351 -0.001608371 -1.232001e-26)
(-0.00122787 -0.002629707 -1.075572e-25)
(-0.0006679577 -0.003618467 -6.281177e-25)
(6.725297e-05 -0.004557897 1.160006e-24)
(0.0009842845 -0.005374715 3.695545e-24)
(0.002103528 -0.006145321 -2.088959e-24)
(-0.0008052885 -0.0004620542 3.474056e-25)
(-0.0005670568 -0.001365642 -2.748223e-26)
(-0.0001940298 -0.002235117 9.08709e-26)
(0.0003219111 -0.003061323 1.252748e-25)
(0.00100351 -0.003833388 0)
(0.001848864 -0.004496659 1.05557e-24)
(0.002868081 -0.005093305 -1.747566e-24)
(0.0001160639 -0.000389693 0)
(0.0003273945 -0.001144824 -4.576827e-26)
(0.0006669277 -0.001872569 -7.502833e-26)
(0.00114767 -0.00256467 -1.233156e-24)
(0.00175511 -0.003148467 1.062026e-24)
(0.002526441 -0.00369313 -3.393949e-24)
(0.003422798 -0.004124783 -2.212439e-24)
(0.0008785597 -0.0003209584 -6.285074e-27)
(0.001067011 -0.000942778 -1.842641e-26)
(0.001371018 -0.001532697 0)
(0.001799553 -0.002076611 -3.086764e-27)
(0.002355486 -0.002561023 -1.421431e-24)
(0.003026641 -0.002964452 -1.668187e-24)
(0.003810943 -0.003260972 -2.535518e-25)
(0.001499688 -0.00026082 -1.055021e-24)
(0.001666335 -0.0007649586 1.074972e-24)
(0.001940584 -0.001244394 -2.693675e-24)
(0.002311941 -0.001658253 2.393408e-24)
(0.002802808 -0.002031216 -1.610597e-24)
(0.00338543 -0.002319312 0)
(0.00406286 -0.002506798 1.856308e-25)
(0.001996945 -0.0002080495 -1.190166e-24)
(0.00214633 -0.0006091624 1.257449e-24)
(0.002381091 -0.0009703981 -1.338901e-24)
(0.002712087 -0.00129856 0)
(0.003130603 -0.001567842 1.603967e-24)
(0.003630672 -0.001762311 0)
(0.004207015 -0.001866676 -1.989628e-24)
(0.002385021 -0.0001606172 0)
(0.002511721 -0.0004654412 0)
(0.002719039 -0.0007442734 2.833809e-24)
(0.003002868 -0.0009830003 0)
(0.00335991 -0.001168291 3.291382e-24)
(0.00378556 -0.001287049 1.796586e-24)
(0.004271426 -0.001325436 -1.968671e-24)
(0.002680121 -0.0001219945 1.372046e-24)
(0.002785474 -0.0003456911 0)
(0.002964402 -0.0005475414 1.478492e-24)
(0.003206389 -0.0007119069 -1.544558e-24)
(0.003508962 -0.0008282123 1.662065e-24)
(0.00386744 -0.0008847752 3.575969e-24)
(0.004272361 -0.0008679836 1.930001e-24)
(0.002893383 -8.655214e-05 1.418542e-24)
(0.002983358 -0.0002441958 1.448511e-24)
(0.003134402 -0.0003799068 0)
(0.003338506 -0.0004824327 -1.557952e-24)
(0.003592571 -0.0005425343 1.14107e-26)
(0.00389131 -0.0005506541 3.515541e-24)
(0.004226407 -0.0004986109 -1.485329e-26)
(0.00303919 -5.744223e-05 1.441382e-24)
(0.003114633 -0.0001578141 1.464337e-24)
(0.00324143 -0.0002387025 -1.507031e-24)
(0.003411957 -0.0002902751 0)
(0.003623171 -0.0003045032 0)
(0.003869243 -0.0002725846 1.723429e-24)
(0.004144371 -0.0001832669 -1.804548e-24)
(0.003128736 -3.295532e-05 1.445708e-24)
(0.003191261 -8.554302e-05 1.464258e-24)
(0.003296598 -0.000121189 -1.498683e-24)
(0.003437589 -0.0001312522 0)
(0.003611125 -0.0001088754 -6.981419e-27)
(0.003811184 -4.662832e-05 -2.20929e-28)
(0.004040208 6.800933e-05 2.017936e-26)
(0.003171533 -1.267248e-05 0)
(0.003222755 -2.577366e-05 1.449205e-24)
(0.00330942 -2.448938e-05 -1.477267e-24)
(0.003424809 -1.22511e-06 0)
(0.003565847 4.962539e-05 1.577226e-24)
(0.003726856 0.000133741 4.005431e-26)
(0.003912113 0.0002622827 2.842086e-26)
(0.003175909 3.968461e-06 -1.411686e-24)
(0.003217426 2.31166e-05 1.214351e-27)
(0.003288056 5.423988e-05 -1.442464e-24)
(0.003381626 0.0001039635 6.691842e-27)
(0.003495147 0.000176859 9.282164e-27)
(0.00362384 0.0002774926 1.556459e-24)
(0.003772366 0.0004153935 0)
(0.003149015 1.748044e-05 -2.75659e-24)
(0.003182317 6.270414e-05 0)
(0.003239339 0.0001177364 0)
(0.003314507 0.0001884318 -1.436848e-24)
(0.003404701 0.0002787583 -2.927331e-24)
(0.003505721 0.000393642 1.4904e-24)
(0.0036274 0.0005371948 0)
(0.003096947 2.834037e-05 -1.337035e-24)
(0.003123362 9.44309e-05 1.94473e-27)
(0.003168923 0.0001684251 3.395013e-27)
(0.003228643 0.0002555215 1.013722e-26)
(0.003299623 0.0003588708 -1.384521e-24)
(0.003382744 0.0004843046 0)
(0.003470845 0.0006327757 1.453633e-24)
(0.003024824 3.69731e-05 3.519833e-28)
(0.00304552 0.0001195685 1.29754e-24)
(0.003081501 0.0002084059 1.308205e-24)
(0.003128328 0.0003081322 2.637263e-24)
(0.003183466 0.0004212355 0)
(0.003249004 0.0005534757 1.348905e-24)
(0.003314379 0.0007042205 -5.717373e-28)
(0.002936923 4.374749e-05 1.237543e-24)
(0.002952911 0.0001392154 2.482616e-24)
(0.002980957 0.00023947 2.500495e-24)
(0.003017069 0.0003487202 1.270353e-24)
(0.003059079 0.0004690705 1.549967e-26)
(0.003109574 0.0006054593 1.278539e-24)
(0.003157757 0.0007570894 -1.324773e-24)
(0.002836787 4.899527e-05 1.182398e-24)
(0.002848936 0.000154349 2.368309e-24)
(0.002870415 0.0002633089 1.18931e-24)
(0.002897434 0.0003799679 0)
(0.002927451 0.0005070963 1.115686e-25)
(0.00296802 0.0006443453 1.855163e-25)
(0.003001636 0.0007954217 4.961569e-26)
(0.002727329 5.299719e-05 1.125072e-24)
(0.0027364 0.000165755 1.123972e-24)
(0.002752437 0.0002810395 -1.332793e-26)
(0.002772141 0.0004025773 -1.267631e-26)
(0.002795786 0.0005333528 0)
(0.002820726 0.0006736212 1.14579e-24)
(0.002846225 0.0008218101 -2.535146e-26)
(0.002610938 5.603116e-05 1.065436e-24)
(0.002617637 0.0001741555 1.063849e-24)
(0.002629176 0.0002938248 -9.100193e-27)
(0.002643034 0.0004187325 -6.463511e-27)
(0.002660071 0.0005517288 0)
(0.002675369 0.0006922005 1.054876e-24)
(0.00269268 0.0008382525 -5.105827e-26)
(0.002489786 5.835937e-05 -4.485249e-28)
(0.002494385 0.0001801505 2.006549e-24)
(0.002502271 0.000302546 -4.600383e-27)
(0.002511479 0.000429614 -6.534594e-27)
(0.002522805 0.0005634673 0)
(0.002531307 0.000703204 0)
(0.002541472 0.0008469373 0)
(0.002365747 5.984718e-05 0)
(0.002367886 0.0001839898 9.423348e-25)
(0.002373017 0.000308102 0)
(0.002378497 0.0004363925 -9.293167e-25)
(0.002385446 0.000570048 1.701616e-26)
(0.002388758 0.0007084124 2.12227e-26)
(0.00239316 0.0008494494 -9.168707e-25)
(0.002239536 6.014517e-05 8.823347e-25)
(0.002239623 0.0001858222 0)
(0.002242332 0.0003117835 -9.229845e-27)
(0.002244047 0.000441564 -7.956255e-25)
(0.002249349 0.000572818 1.005193e-24)
(0.002248322 0.0007092509 0)
(0.002248184 0.0008472098 -8.749293e-25)
(0.002111917 5.993261e-05 8.211933e-25)
(0.002110725 0.0001861749 0)
(0.002111913 0.0003132212 -4.633739e-27)
(0.002112309 0.0004426128 -6.559108e-27)
(0.002111829 0.0005739554 1.627613e-24)
(0.002110059 0.0007069602 -8.122578e-25)
(0.002106877 0.0008415302 8.100919e-25)
(0.001982859 5.92702e-05 0)
(0.001982411 0.000185899 7.558857e-25)
(0.001982175 0.0003130662 -4.628323e-27)
(0.001980704 0.0004417419 -7.519299e-25)
(0.001977478 0.0005721301 7.512728e-25)
(0.0019744 0.0007023851 -7.491074e-25)
(0.001969383 0.0008336452 -3.461081e-28)
(0.001854124 6.009753e-05 0)
(0.001854062 0.0001861723 6.981551e-25)
(0.00185285 0.0003115653 -6.962869e-25)
(0.001850227 0.0004393138 -6.97382e-25)
(0.001845599 0.0005684602 6.819724e-25)
(0.001841354 0.0006967724 -2.052601e-26)
(0.00183551 0.0008249403 -6.845151e-25)
(0.001727031 6.008815e-05 0)
(0.001725028 0.0001858922 0)
(0.001723174 0.0003098584 -6.360948e-25)
(0.001721441 0.0004362647 6.313046e-25)
(0.001716115 0.0005642628 -2.461498e-28)
(0.001711075 0.0006906287 0)
(0.001704798 0.0008164129 0)
(0.001599682 5.912436e-05 5.811742e-25)
(0.001597645 0.0001839926 -5.790744e-25)
(0.001595684 0.0003091739 -2.839825e-25)
(0.001592352 0.000434447 5.781954e-25)
(0.001588094 0.0005594397 2.332121e-28)
(0.001583283 0.0006842703 -2.011643e-26)
(0.001577243 0.0008087909 -1.197416e-29)
(0.001472836 5.92678e-05 -4.287684e-29)
(0.001471242 0.0001838803 -5.203038e-25)
(0.001468719 0.000306111 -2.546235e-25)
(0.001466119 0.0004313 6.357538e-27)
(0.00145973 0.0005569928 1.033563e-24)
(0.001457347 0.0006790783 9.981772e-27)
(0.001451418 0.0008019719 0)
(0.001347344 5.887751e-05 -4.639956e-25)
(0.00134521 0.0001822592 2.310704e-25)
(0.001342396 0.0003060821 2.301323e-25)
(0.001339357 0.00042828 0)
(0.001334458 0.0005528282 4.552726e-25)
(0.00133031 0.0006758472 9.916436e-27)
(0.001326809 0.0007964572 1.167904e-26)
(0.001222779 5.859264e-05 0)
(0.001220404 0.0001817543 2.02093e-25)
(0.00121635 0.0003034918 1.660737e-25)
(0.001212987 0.0004264218 -4.92983e-26)
(0.00120934 0.0005504727 2.075842e-25)
(0.001203284 0.0006716653 9.869121e-27)
(0.001202233 0.0007928484 0)
(0.00109925 5.799385e-05 0)
(0.001095868 0.0001796255 1.384863e-27)
(0.001091713 0.0003013246 -2.280305e-27)
(0.001088363 0.0004242905 1.720758e-25)
(0.00108166 0.0005464333 8.019896e-27)
(0.001078546 0.0006679341 -7.705113e-26)
(0.001079445 0.0007952626 -1.770918e-25)
(0.0009770219 5.646197e-05 -2.342586e-28)