/*--------------------------------*- C++ -*----------------------------------*\
| =========                 |                                                 |
| \\      /  F ield         | OpenFOAM: The Open Source CFD Toolbox           |
|  \\    /   O peration     | Version:  2206                                  |
|   \\  /    A nd           | Website:  www.openfoam.com                      |
|    \\/     M anipulation  |                                                 |
\*---------------------------------------------------------------------------*/
FoamFile
{
    version     2.0;
    format      ascii;
    arch        "LSB;label=32;scalar=64";
    class       volScalarField;
    location    "2";
    object      ddt0(k.b);
}
// * * * * * * * * * * * * * * * * * * * * * * * * * * * * * * * * * * * * * //

dimensions      [0 2 -3 0 0 0 0];

internalField   nonuniform List<scalar> 
13078
(
4.326526e-14
-1.048496e-10
-1.09509e-10
-1.099957e-10
-1.107956e-10
-1.117059e-10
-1.127632e-10
-2.115544e-13
-9.49636e-11
-1.092535e-10
-1.099643e-10
-1.107694e-10
-1.116848e-10
-1.127407e-10
-1.803119e-13
-9.445835e-11
-1.092048e-10
-1.099202e-10
-1.107372e-10
-1.11659e-10
-1.127156e-10
-2.768089e-13
-9.451886e-11
-1.091783e-10
-1.098867e-10
-1.107079e-10
-1.11633e-10
-1.126898e-10
-3.628282e-13
-9.453422e-11
-1.091649e-10
-1.09874e-10
-1.106842e-10
-1.116086e-10
-1.126647e-10
-4.550535e-13
-9.454078e-11
-1.091593e-10
-1.098671e-10
-1.106765e-10
-1.115874e-10
-1.126404e-10
-5.60423e-13
-9.452818e-11
-1.091551e-10
-1.098601e-10
-1.106715e-10
-1.115815e-10
-1.126186e-10
-6.829785e-13
-9.450388e-11
-1.091513e-10
-1.098556e-10
-1.106683e-10
-1.115778e-10
-1.126133e-10
-8.268597e-13
-9.448191e-11
-1.091507e-10
-1.098543e-10
-1.106663e-10
-1.115749e-10
-1.126097e-10
-9.974319e-13
-9.445286e-11
-1.091503e-10
-1.098534e-10
-1.106646e-10
-1.115724e-10
-1.126066e-10
-1.20233e-12
-9.441889e-11
-1.091497e-10
-1.098525e-10
-1.106631e-10
-1.115702e-10
-1.126035e-10
-1.451083e-12
-9.438072e-11
-1.091489e-10
-1.098517e-10
-1.106616e-10
-1.11568e-10
-1.126006e-10
-1.755368e-12
-9.433919e-11
-1.091479e-10
-1.098506e-10
-1.106602e-10
-1.115659e-10
-1.125977e-10
-2.130305e-12
-9.429415e-11
-1.091467e-10
-1.098492e-10
-1.106582e-10
-1.115635e-10
-1.125946e-10
-2.595468e-12
-9.424594e-11
-1.091452e-10
-1.098437e-10
-1.106501e-10
-1.115605e-10
-1.125915e-10
-3.17584e-12
-9.419448e-11
-1.091434e-10
-1.098367e-10
-1.106433e-10
-1.115576e-10
-1.125882e-10
-3.903459e-12
-9.414013e-11
-1.091417e-10
-1.098345e-10
-1.106408e-10
-1.115549e-10
-1.125847e-10
-4.819485e-12
-9.408252e-11
-1.091399e-10
-1.098325e-10
-1.106383e-10
-1.11552e-10
-1.125811e-10
-5.976617e-12
-9.402124e-11
-1.091379e-10
-1.098304e-10
-1.106354e-10
-1.115484e-10
-1.125773e-10
-7.44215e-12
-9.395638e-11
-1.091355e-10
-1.098276e-10
-1.10626e-10
-1.115351e-10
-1.125724e-10
-9.301864e-12
-9.388753e-11
-1.091331e-10
-1.098245e-10
-1.106145e-10
-1.115241e-10
-1.125673e-10
-1.166512e-11
-9.381451e-11
-1.091305e-10
-1.098219e-10
-1.106103e-10
-1.115195e-10
-1.125627e-10
-1.46711e-11
-9.373676e-11
-1.091275e-10
-1.098189e-10
-1.106066e-10
-1.115145e-10
-1.125569e-10
-1.84961e-11
-9.365412e-11
-1.091243e-10
-1.098157e-10
-1.106018e-10
-1.115002e-10
-1.125366e-10
-2.336278e-11
-9.356603e-11
-1.091209e-10
-1.098123e-10
-1.105966e-10
-1.114829e-10
-1.125198e-10
-2.955126e-11
-9.347204e-11
-1.09117e-10
-1.098085e-10
-1.105917e-10
-1.114758e-10
-1.125121e-10
-3.741284e-11
-9.337325e-11
-1.091128e-10
-1.098044e-10
-1.105865e-10
-1.114692e-10
-1.125038e-10
-4.739441e-11
-9.325961e-11
-1.09108e-10
-1.098001e-10
-1.105807e-10
-1.114612e-10
-1.124816e-10
-6.005199e-11
-9.315524e-11
-1.091029e-10
-1.097953e-10
-1.105744e-10
-1.114522e-10
-1.124546e-10
-7.62376e-11
-9.290597e-11
-1.090942e-10
-1.0979e-10
-1.105675e-10
-1.114436e-10
-1.124426e-10
-9.709901e-11
-9.260991e-11
-1.090886e-10
-1.097841e-10
-1.105598e-10
-1.11434e-10
-1.124294e-10
-1.226888e-10
-9.215687e-11
-1.090816e-10
-1.097765e-10
-1.105512e-10
-1.11423e-10
-1.124145e-10
-1.5457e-10
-9.157959e-11
-1.090578e-10
-1.09761e-10
-1.105407e-10
-1.114108e-10
-1.123996e-10
-1.938646e-10
-9.135604e-11
-1.090393e-10
-1.097477e-10
-1.105297e-10
-1.113981e-10
-1.12384e-10
-2.419871e-10
-9.112134e-11
-1.090272e-10
-1.097351e-10
-1.105106e-10
-1.113867e-10
-1.1237e-10
-3.002026e-10
-9.086326e-11
-1.09019e-10
-1.097273e-10
-1.10493e-10
-1.11364e-10
-1.123581e-10
-3.694663e-10
-9.05892e-11
-1.0902e-10
-1.097385e-10
-1.104883e-10
-1.113451e-10
-1.123317e-10
-4.500762e-10
-9.031172e-11
-1.090273e-10
-1.09755e-10
-1.104885e-10
-1.113027e-10
-1.122317e-10
-5.413388e-10
-9.005625e-11
-1.090303e-10
-1.097607e-10
-1.104603e-10
-1.11226e-10
-1.120813e-10
-6.431183e-10
-8.964507e-11
-1.090115e-10
-1.097294e-10
-1.103787e-10
-1.110853e-10
-1.118667e-10
-7.539869e-10
-8.874685e-11
-1.089481e-10
-1.096238e-10
-1.101986e-10
-1.108452e-10
-1.116176e-10
-8.592243e-10
-8.787742e-11
-1.08763e-10
-1.093583e-10
-1.098981e-10
-1.10515e-10
-1.111923e-10
-9.539938e-10
-8.744992e-11
-1.084549e-10
-1.089928e-10
-1.094954e-10
-1.100556e-10
-1.106644e-10
-1.029912e-09
-8.688349e-11
-1.080637e-10
-1.086465e-10
-1.090357e-10
-1.094343e-10
-1.101316e-10
-1.081189e-09
-8.594542e-11
-1.076901e-10
-1.082024e-10
-1.08518e-10
-1.089019e-10
-1.094231e-10
-1.104443e-09
-8.433093e-11
-1.072549e-10
-1.075653e-10
-1.078604e-10
-1.082145e-10
-1.086937e-10
-1.06886e-09
-8.250052e-11
-1.06663e-10
-1.069542e-10
-1.069836e-10
-1.072801e-10
-1.077767e-10
-9.500475e-10
-8.098976e-11
-1.059683e-10
-1.06312e-10
-1.061693e-10
-1.063305e-10
-1.06606e-10
-7.95245e-10
-7.937063e-11
-1.05323e-10
-1.055461e-10
-1.054412e-10
-1.055731e-10
-1.057648e-10
-6.354583e-10
-7.782344e-11
-1.04721e-10
-1.048688e-10
-1.04704e-10
-1.047343e-10
-1.051419e-10
-4.855821e-10
-7.590355e-11
-1.04219e-10
-1.043136e-10
-1.041326e-10
-1.041546e-10
-1.045103e-10
-3.477362e-10
-7.344009e-11
-1.037659e-10
-1.038542e-10
-1.037611e-10
-1.039206e-10
-1.043169e-10
-2.272218e-10
-7.199555e-11
-1.03258e-10
-1.034949e-10
-1.035378e-10
-1.038664e-10
-1.041125e-10
-1.302219e-10
-7.103223e-11
-1.028097e-10
-1.031251e-10
-1.032469e-10
-1.035287e-10
-1.038588e-10
-5.776635e-11
-7.045818e-11
-1.025282e-10
-1.02894e-10
-1.030544e-10
-1.033054e-10
-1.036506e-10
-1.065174e-11
-7.027376e-11
-1.024242e-10
-1.02747e-10
-1.029171e-10
-1.031556e-10
-1.03508e-10
-6.232165e-12
-7.041966e-11
-1.023688e-10
-1.026149e-10
-1.027463e-10
-1.029636e-10
-1.03315e-10
-4.191102e-11
-7.098918e-11
-1.025116e-10
-1.026492e-10
-1.026935e-10
-1.028646e-10
-1.031914e-10
-1.132149e-10
-7.189182e-11
-1.028447e-10
-1.02795e-10
-1.027086e-10
-1.028166e-10
-1.030604e-10
-2.281833e-10
-7.297241e-11
-1.032393e-10
-1.030186e-10
-1.027909e-10
-1.028011e-10
-1.028202e-10
-3.918539e-10
-7.437732e-11
-1.0363e-10
-1.032465e-10
-1.029708e-10
-1.028806e-10
-1.029404e-10
-5.965626e-10
-7.669828e-11
-1.041353e-10
-1.038383e-10
-1.034933e-10
-1.032978e-10
-1.033975e-10
-8.224568e-10
-7.833165e-11
-1.045535e-10
-1.04324e-10
-1.04015e-10
-1.039e-10
-1.041474e-10
-1.024492e-09
-7.952632e-11
-1.050645e-10
-1.049722e-10
-1.047218e-10
-1.047168e-10
-1.048594e-10
-1.154794e-09
-8.085508e-11
-1.056695e-10
-1.057518e-10
-1.054817e-10
-1.055662e-10
-1.057273e-10
-1.222128e-09
-8.219615e-11
-1.063806e-10
-1.0649e-10
-1.06348e-10
-1.064626e-10
-1.067979e-10
-1.2327e-09
-8.394421e-11
-1.070297e-10
-1.071873e-10
-1.072592e-10
-1.074146e-10
-1.077072e-10
-1.192416e-09
-8.550215e-11
-1.074917e-10
-1.079333e-10
-1.080251e-10
-1.082119e-10
-1.085697e-10
-1.120777e-09
-8.643082e-11
-1.078775e-10
-1.084672e-10
-1.087348e-10
-1.089118e-10
-1.094614e-10
-1.023544e-09
-8.704763e-11
-1.08289e-10
-1.088543e-10
-1.093116e-10
-1.097364e-10
-1.101469e-10
-9.099916e-10
-8.755479e-11
-1.086297e-10
-1.092423e-10
-1.097709e-10
-1.103596e-10
-1.109017e-10
-7.89897e-10
-8.836158e-11
-1.088422e-10
-1.095305e-10
-1.101109e-10
-1.10765e-10
-1.115376e-10
-6.68947e-10
-8.91672e-11
-1.089332e-10
-1.096589e-10
-1.103234e-10
-1.110543e-10
-1.118626e-10
-5.587584e-10
-8.963344e-11
-1.089694e-10
-1.096974e-10
-1.104191e-10
-1.112072e-10
-1.121007e-10
-4.600385e-10
-8.997611e-11
-1.089855e-10
-1.097008e-10
-1.104449e-10
-1.112781e-10
-1.122356e-10
-3.739822e-10
-9.042389e-11
-1.090015e-10
-1.097007e-10
-1.104557e-10
-1.113198e-10
-1.123164e-10
-3.018569e-10
-9.080861e-11
-1.090181e-10
-1.097054e-10
-1.10473e-10
-1.113499e-10
-1.123385e-10
-2.421209e-10
-9.113482e-11
-1.090354e-10
-1.097249e-10
-1.104983e-10
-1.11374e-10
-1.123579e-10
-1.937613e-10
-9.141146e-11
-1.090521e-10
-1.09743e-10
-1.105237e-10
-1.113916e-10
-1.123777e-10
-1.547037e-10
-9.163911e-11
-1.090714e-10
-1.097581e-10
-1.10537e-10
-1.11407e-10
-1.123961e-10
-1.231749e-10
-9.221953e-11
-1.090943e-10
-1.097748e-10
-1.105487e-10
-1.114204e-10
-1.124122e-10
-9.792584e-11
-9.267199e-11
-1.091018e-10
-1.097829e-10
-1.10558e-10
-1.114321e-10
-1.124279e-10
-7.734494e-11
-9.296394e-11
-1.091068e-10
-1.097894e-10
-1.105662e-10
-1.114424e-10
-1.124416e-10
-6.112615e-11
-9.3211e-11
-1.091146e-10
-1.09795e-10
-1.105736e-10
-1.114515e-10
-1.124542e-10
-4.828349e-11
-9.331095e-11
-1.091188e-10
-1.098e-10
-1.105803e-10
-1.114609e-10
-1.124814e-10
-3.815428e-11
-9.34201e-11
-1.091227e-10
-1.098046e-10
-1.105863e-10
-1.11469e-10
-1.12504e-10
-3.017825e-11
-9.351427e-11
-1.091259e-10
-1.098088e-10
-1.105917e-10
-1.114759e-10
-1.125125e-10
-2.389526e-11
-9.360389e-11
-1.091289e-10
-1.098126e-10
-1.105967e-10
-1.114832e-10
-1.125204e-10
-1.894996e-11
-9.368788e-11
-1.091315e-10
-1.09816e-10
-1.106019e-10
-1.115005e-10
-1.125371e-10
-1.505876e-11
-9.376672e-11
-1.091339e-10
-1.098192e-10
-1.106068e-10
-1.115148e-10
-1.125575e-10
-1.199661e-11
-9.384111e-11
-1.091361e-10
-1.098222e-10
-1.106106e-10
-1.115199e-10
-1.125633e-10
-9.585377e-12
-9.391114e-11
-1.09138e-10
-1.098249e-10
-1.106149e-10
-1.115245e-10
-1.125679e-10
-7.684409e-12
-9.397738e-11
-1.091399e-10
-1.09828e-10
-1.106263e-10
-1.115355e-10
-1.12573e-10
-6.183258e-12
-9.403995e-11
-1.091418e-10
-1.098308e-10
-1.106357e-10
-1.115489e-10
-1.12578e-10
-4.995237e-12
-9.409931e-11
-1.091434e-10
-1.098328e-10
-1.106386e-10
-1.115525e-10
-1.125817e-10
-4.052362e-12
-9.415533e-11
-1.091448e-10
-1.098348e-10
-1.106411e-10
-1.115552e-10
-1.125852e-10
-3.301361e-12
-9.420839e-11
-1.091461e-10
-1.098371e-10
-1.106436e-10
-1.11558e-10
-1.125887e-10
-2.700542e-12
-9.425886e-11
-1.091477e-10
-1.09844e-10
-1.106503e-10
-1.115609e-10
-1.12592e-10
-2.217577e-12
-9.430636e-11
-1.09149e-10
-1.098495e-10
-1.106585e-10
-1.115639e-10
-1.12595e-10
-1.82795e-12
-9.4351e-11
-1.0915e-10
-1.09851e-10
-1.106605e-10
-1.115662e-10
-1.12598e-10
-1.511019e-12
-9.439247e-11
-1.091508e-10
-1.098521e-10
-1.106619e-10
-1.115682e-10
-1.126008e-10
-1.250986e-12
-9.44311e-11
-1.091515e-10
-1.09853e-10
-1.106633e-10
-1.115703e-10
-1.126035e-10
-1.036154e-12
-9.44664e-11
-1.09152e-10
-1.098539e-10
-1.106647e-10
-1.115723e-10
-1.126063e-10
-8.579091e-13
-9.449782e-11
-1.091523e-10
-1.098547e-10
-1.106661e-10
-1.115744e-10
-1.126092e-10
-7.084163e-13
-9.452352e-11
-1.091528e-10
-1.098556e-10
-1.106676e-10
-1.115768e-10
-1.126123e-10
-5.809579e-13
-9.455352e-11
-1.091559e-10
-1.098592e-10
-1.106698e-10
-1.115796e-10
-1.126169e-10
-4.709432e-13
-9.4574e-11
-1.091585e-10
-1.098646e-10
-1.106732e-10
-1.115842e-10
-1.126378e-10
-3.746388e-13
-9.45762e-11
-1.091603e-10
-1.09868e-10
-1.106782e-10
-1.116037e-10
-1.12661e-10
-2.901828e-13
-9.456937e-11
-1.091657e-10
-1.098749e-10
-1.106982e-10
-1.11626e-10
-1.126852e-10
-2.146149e-13
-9.453328e-11
-1.091781e-10
-1.098988e-10
-1.107229e-10
-1.116502e-10
-1.127104e-10
-1.253559e-13
-9.459847e-11
-1.092175e-10
-1.09933e-10
-1.10752e-10
-1.116762e-10
-1.127363e-10
-1.652596e-13
-9.587166e-11
-1.092592e-10
-1.099809e-10
-1.10787e-10
-1.117036e-10
-1.127624e-10
-1.140173e-10
-1.156089e-10
-1.177587e-10
-1.198416e-10
-1.236114e-10
-1.279447e-10
-9.167675e-10
-1.139909e-10
-1.155742e-10
-1.177123e-10
-1.197857e-10
-1.235422e-10
-1.291256e-10
-2.270184e-11
-1.139632e-10
-1.155396e-10
-1.176682e-10
-1.205103e-10
-1.234784e-10
-1.290233e-10
-4.826586e-12
-1.139352e-10
-1.155049e-10
-1.176214e-10
-1.196743e-10
-1.234041e-10
-1.289254e-10
5.021363e-12
-1.139079e-10
-1.154702e-10
-1.175767e-10
-1.196156e-10
-1.233351e-10
-1.288301e-10
-8.213981e-12
-1.138809e-10
-1.154356e-10
-1.175313e-10
-1.195596e-10
-1.232668e-10
-1.287371e-10
-5.073416e-11
-1.138546e-10
-1.154013e-10
-1.174862e-10
-1.195055e-10
-1.232482e-10
-1.286462e-10
-9.290531e-11
-1.138304e-10
-1.153674e-10
-1.174414e-10
-1.194525e-10
-1.232308e-10
-1.285592e-10
-1.418381e-10
-1.138247e-10
-1.153359e-10
-1.173988e-10
-1.193982e-10
-1.231766e-10
-1.284863e-10
-1.727221e-10
-1.138205e-10
-1.153282e-10
-1.17359e-10
-1.193443e-10
-1.231229e-10
-1.284188e-10
-2.029177e-10
-1.138166e-10
-1.153227e-10
-1.173488e-10
-1.192918e-10
-1.230693e-10
-1.283544e-10
-2.323159e-10
-1.138126e-10
-1.153169e-10
-1.17341e-10
-1.192806e-10
-1.230155e-10
-1.283021e-10
-2.508516e-10
-1.138086e-10
-1.15311e-10
-1.17333e-10
-1.192707e-10
-1.230064e-10
-1.282506e-10
-2.621755e-10
-1.138045e-10
-1.153051e-10
-1.173246e-10
-1.192602e-10
-1.229963e-10
-1.282486e-10
-2.85224e-10
-1.138003e-10
-1.152987e-10
-1.173159e-10
-1.192493e-10
-1.229856e-10
-1.28314e-10
-2.278994e-10
-1.137958e-10
-1.152921e-10
-1.173068e-10
-1.19238e-10
-1.229741e-10
-1.283521e-10
-2.246011e-10
-1.137911e-10
-1.152853e-10
-1.172975e-10
-1.19226e-10
-1.229578e-10
-1.283697e-10
-2.105348e-10
-1.137863e-10
-1.152783e-10
-1.172875e-10
-1.192078e-10
-1.227933e-10
-1.283844e-10
-1.988383e-10
-1.137812e-10
-1.152713e-10
-1.172773e-10
-1.191947e-10
-1.227723e-10
-1.283911e-10
-1.899835e-10
-1.137758e-10
-1.152639e-10
-1.172666e-10
-1.191811e-10
-1.227549e-10
-1.283963e-10
-1.807023e-10
-1.137702e-10
-1.152562e-10
-1.172554e-10
-1.191668e-10
-1.227367e-10
-1.283979e-10
-1.713016e-10
-1.137641e-10
-1.15248e-10
-1.172437e-10
-1.191517e-10
-1.227178e-10
-1.283261e-10
-7.550279e-11
-1.137578e-10
-1.152393e-10
-1.172307e-10
-1.191368e-10
-1.226948e-10
-1.278956e-10
3.622424e-10
-1.137497e-10
-1.152301e-10
-1.172193e-10
-1.198425e-10
-1.225468e-10
-1.278208e-10
1.603399e-10
-1.137413e-10
-1.152204e-10
-1.172032e-10
-1.19109e-10
-1.224646e-10
-1.276944e-10
1.373883e-10
-1.137335e-10
-1.152103e-10
-1.171898e-10
-1.190837e-10
-1.224366e-10
-1.275318e-10
1.926393e-10
-1.137237e-10
-1.15199e-10
-1.171741e-10
-1.19064e-10
-1.224076e-10
-1.275163e-10
1.432475e-10
-1.13692e-10
-1.151863e-10
-1.171583e-10
-1.190437e-10
-1.223678e-10
-1.273628e-10
9.84481e-11
-1.136666e-10
-1.147775e-10
-1.166073e-10
-1.190192e-10
-1.223324e-10
-1.273147e-10
6.817107e-11
-1.13654e-10
-1.147619e-10
-1.165869e-10
-1.189969e-10
-1.223007e-10
-1.27398e-10
3.86478e-11
-1.136083e-10
-1.147106e-10
-1.165696e-10
-1.189738e-10
-1.222681e-10
-1.269722e-10
-4.00051e-10
-1.135744e-10
-1.146637e-10
-1.16551e-10
-1.189498e-10
-1.222343e-10
-1.267591e-10
-3.788877e-10
-1.135527e-10
-1.145899e-10
-1.165255e-10
-1.189246e-10
-1.22201e-10
-1.268084e-10
-3.133417e-10
-1.135323e-10
-1.145608e-10
-1.164422e-10
-1.188963e-10
-1.221689e-10
-1.269068e-10
-2.265544e-10
-1.135104e-10
-1.145311e-10
-1.163387e-10
-1.188624e-10
-1.221439e-10
-1.270636e-10
-3.098982e-11
-1.134811e-10
-1.144923e-10
-1.162224e-10
-1.188103e-10
-1.221342e-10
-1.269784e-10
-4.523033e-11
-1.134189e-10
-1.144088e-10
-1.161267e-10
-1.185856e-10
-1.22091e-10
-1.271077e-10
-2.49831e-11
-1.132941e-10
-1.142486e-10
-1.159631e-10
-1.183742e-10
-1.2201e-10
-1.270458e-10
8.702457e-11
-1.131107e-10
-1.140309e-10
-1.157679e-10
-1.181994e-10
-1.218917e-10
-1.276742e-10
-1.270941e-10
-1.128486e-10
-1.137752e-10
-1.155811e-10
-1.180782e-10
-1.220037e-10
-1.281484e-10
-1.683357e-10
-1.12519e-10
-1.134751e-10
-1.153838e-10
-1.18123e-10
-1.221223e-10
-1.272876e-10
-1.878206e-10
-1.121085e-10
-1.130445e-10
-1.148453e-10
-1.180416e-10
-1.219561e-10
-1.260207e-10
-2.306261e-10
-1.116509e-10
-1.126766e-10
-1.145086e-10
-1.178762e-10
-1.21336e-10
-1.253467e-10
-3.178291e-10
-1.112161e-10
-1.121848e-10
-1.147612e-10
-1.176945e-10
-1.206204e-10
-1.245992e-10
-3.577735e-10
-1.105232e-10
-1.118109e-10
-1.145215e-10
-1.177684e-10
-1.193817e-10
-1.242695e-10
-2.648248e-10
-1.096314e-10
-1.114344e-10
-1.14685e-10
-1.168042e-10
-1.190489e-10
-1.262826e-10
-1.07548e-09
-1.087508e-10
-1.107745e-10
-1.139936e-10
-1.164163e-10
-1.181503e-10
-1.251678e-10
-6.797991e-10
-1.078628e-10
-1.098548e-10
-1.13415e-10
-1.152965e-10
-1.180047e-10
-1.218888e-10
-2.926343e-10
-1.066393e-10
-1.089548e-10
-1.122016e-10
-1.142685e-10
-1.172056e-10
-1.244946e-10
-5.235573e-10
-1.060494e-10
-1.0804e-10
-1.11474e-10
-1.135299e-10
-1.16233e-10
-1.207882e-10
-2.627367e-10
-1.056572e-10
-1.07674e-10
-1.101817e-10
-1.124213e-10
-1.153311e-10
-1.193715e-10
-1.93487e-10
-1.053483e-10
-1.070958e-10
-1.092834e-10
-1.114444e-10
-1.141894e-10
-1.184354e-10
-2.570031e-10
-1.049967e-10
-1.064395e-10
-1.087284e-10
-1.105396e-10
-1.137532e-10
-1.320296e-10
-1.096946e-09
-1.046486e-10
-1.061939e-10
-1.08188e-10
-1.099513e-10
-1.121853e-10
-1.164138e-10
-3.117027e-10
-1.043094e-10
-1.058662e-10
-1.079068e-10
-1.093161e-10
-1.113408e-10
-1.144456e-10
-1.147145e-10
-1.04165e-10
-1.055096e-10
-1.078972e-10
-1.091906e-10
-1.106515e-10
-1.111543e-10
-1.040088e-10
-1.054249e-10
-1.079556e-10
-1.091656e-10
-1.104306e-10
-1.107867e-10
-1.038514e-10
-1.051572e-10
-1.075392e-10
-1.087575e-10
-1.103581e-10
-1.111794e-10
-1.037673e-10
-1.049913e-10
-1.073042e-10
-1.08917e-10
-1.114026e-10
-1.14251e-10
-2.112539e-10
-1.037191e-10
-1.048362e-10
-1.074847e-10
-1.094916e-10
-1.125262e-10
-1.201564e-10
-1.156768e-09
-1.035813e-10
-1.045101e-10
-1.086345e-10
-1.105105e-10
-1.13166e-10
-1.211967e-10
-5.189141e-10
-1.040292e-10
-1.046869e-10
-1.088194e-10
-1.112461e-10
-1.14266e-10
-1.199817e-10
-3.769472e-10
-1.048451e-10
-1.056744e-10
-1.100207e-10
-1.121374e-10
-1.14505e-10
-1.194169e-10
-2.069006e-10
-1.05659e-10
-1.067177e-10
-1.105058e-10
-1.123882e-10
-1.153454e-10
-1.196426e-10
-2.769236e-10
-1.067714e-10
-1.076089e-10
-1.112286e-10
-1.135402e-10
-1.158254e-10
-1.200391e-10
-3.064118e-10
-1.075436e-10
-1.085556e-10
-1.120633e-10
-1.142499e-10
-1.161903e-10
-1.234185e-10
-7.970229e-10
-1.084076e-10
-1.09183e-10
-1.124863e-10
-1.151074e-10
-1.169116e-10
-1.213327e-10
-6.190683e-10
-1.093989e-10
-1.099236e-10
-1.128468e-10
-1.154415e-10
-1.177931e-10
-1.225339e-10
-5.098941e-10
-1.101564e-10
-1.10749e-10
-1.131315e-10
-1.160214e-10
-1.187596e-10
-1.227798e-10
-2.975707e-10
-1.109349e-10
-1.115515e-10
-1.134157e-10
-1.162279e-10
-1.195543e-10
-1.368033e-10
-2.724371e-09
-1.116011e-10
-1.122569e-10
-1.139608e-10
-1.16661e-10
-1.20007e-10
-1.241266e-10
-3.055512e-10
-1.123647e-10
-1.128325e-10
-1.147713e-10
-1.172873e-10
-1.207391e-10
-1.253597e-10
-7.694072e-10
-1.128803e-10
-1.136349e-10
-1.153418e-10
-1.176866e-10
-1.213161e-10
-1.26718e-10
-2.045172e-10
-1.131763e-10
-1.139535e-10
-1.158033e-10
-1.181395e-10
-1.215271e-10
-1.274183e-10
-1.760598e-10
-1.133463e-10
-1.141979e-10
-1.159743e-10
-1.183479e-10
-1.220374e-10
-1.272893e-10
-2.179465e-10
-1.13434e-10
-1.143601e-10
-1.16114e-10
-1.18469e-10
-1.22046e-10
-1.271311e-10
-1.383333e-10
-1.134742e-10
-1.144473e-10
-1.161952e-10
-1.186959e-10
-1.22084e-10
-1.271006e-10
-1.071922e-10
-1.135025e-10
-1.144974e-10
-1.162754e-10
-1.188371e-10
-1.221093e-10
-1.269509e-10
-8.992587e-11
-1.135274e-10
-1.145359e-10
-1.163875e-10
-1.188784e-10
-1.221455e-10
-1.269526e-10
-6.882754e-11
-1.135497e-10
-1.145623e-10
-1.165072e-10
-1.189093e-10
-1.221832e-10
-1.268593e-10
-3.411278e-10
-1.135723e-10
-1.146231e-10
-1.165371e-10
-1.189371e-10
-1.222197e-10
-1.26821e-10
-4.073651e-10
-1.136069e-10
-1.146757e-10
-1.165606e-10
-1.189633e-10
-1.222552e-10
-1.268739e-10
-4.225066e-10
-1.136535e-10
-1.147502e-10
-1.165795e-10
-1.189881e-10
-1.2229e-10
-1.273009e-10
1.531833e-10
-1.136666e-10
-1.147666e-10
-1.165978e-10
-1.190113e-10
-1.223226e-10
-1.274667e-10
-9.24722e-12
-1.136925e-10
-1.151878e-10
-1.171608e-10
-1.190352e-10
-1.223551e-10
-1.273835e-10
4.253592e-11
-1.137244e-10
-1.152006e-10
-1.171767e-10
-1.190562e-10
-1.223958e-10
-1.275161e-10
7.97765e-11
-1.137345e-10
-1.152119e-10
-1.171922e-10
-1.190759e-10
-1.224285e-10
-1.275824e-10
1.252335e-10
-1.137423e-10
-1.152221e-10
-1.172067e-10
-1.190945e-10
-1.224568e-10
-1.275797e-10
1.756732e-10
-1.137507e-10
-1.152318e-10
-1.172205e-10
-1.191125e-10
-1.224872e-10
-1.282558e-10
-4.496945e-11
-1.137588e-10
-1.152408e-10
-1.172335e-10
-1.191297e-10
-1.226476e-10
-1.283187e-10
-6.20376e-11
-1.137651e-10
-1.152494e-10
-1.172458e-10
-1.19146e-10
-1.227131e-10
-1.283454e-10
-9.742184e-11
-1.137711e-10
-1.152576e-10
-1.172575e-10
-1.191613e-10
-1.227321e-10
-1.284059e-10
-1.644095e-10
-1.137767e-10
-1.152653e-10
-1.172686e-10
-1.191759e-10
-1.227505e-10
-1.284128e-10
-1.691133e-10
-1.137821e-10
-1.152726e-10
-1.172792e-10
-1.191897e-10
-1.227678e-10
-1.284126e-10
-1.760007e-10
-1.137871e-10
-1.152795e-10
-1.172893e-10
-1.192029e-10
-1.227844e-10
-1.284061e-10
-1.861027e-10
-1.137919e-10
-1.152864e-10
-1.172991e-10
-1.192192e-10
-1.228687e-10
-1.283952e-10
-1.964661e-10
-1.137965e-10
-1.152932e-10
-1.173084e-10
-1.192337e-10
-1.229716e-10
-1.28379e-10
-2.073445e-10
-1.138009e-10
-1.152997e-10
-1.173173e-10
-1.192453e-10
-1.229829e-10
-1.283576e-10
-2.142382e-10
-1.13805e-10
-1.153058e-10
-1.173258e-10
-1.192565e-10
-1.229938e-10
-1.283072e-10
-2.514237e-10
-1.138091e-10
-1.153117e-10
-1.17334e-10
-1.192672e-10
-1.23004e-10
-1.282828e-10
-2.649078e-10
-1.138129e-10
-1.153174e-10
-1.173419e-10
-1.192775e-10
-1.230139e-10
-1.283058e-10
-2.585057e-10
-1.138167e-10
-1.15323e-10
-1.173495e-10
-1.192874e-10
-1.23045e-10
-1.283577e-10
-2.493854e-10
-1.138204e-10
-1.153284e-10
-1.173595e-10
-1.193192e-10
-1.23098e-10
-1.284113e-10
-2.348193e-10
-1.138242e-10
-1.153357e-10
-1.173991e-10
-1.193731e-10
-1.231515e-10
-1.284737e-10
-2.081139e-10
-1.138295e-10
-1.153668e-10
-1.174414e-10
-1.194274e-10
-1.232051e-10
-1.285426e-10
-1.814455e-10
-1.138532e-10
-1.154004e-10
-1.174857e-10
-1.19482e-10
-1.232567e-10
-1.286175e-10
-1.534535e-10
-1.13879e-10
-1.154343e-10
-1.175306e-10
-1.195339e-10
-1.232361e-10
-1.287032e-10
-1.167188e-10
-1.139054e-10
-1.154686e-10
-1.175757e-10
-1.195894e-10
-1.233021e-10
-1.287936e-10
-8.404403e-11
-1.139323e-10
-1.155032e-10
-1.176211e-10
-1.19645e-10
-1.233703e-10
-1.288868e-10
-5.982212e-11
-1.139603e-10
-1.155382e-10
-1.176668e-10
-1.19701e-10
-1.23439e-10
-1.289815e-10
-4.966523e-11
-1.139886e-10
-1.155731e-10
-1.177125e-10
-1.197568e-10
-1.235081e-10
-1.290787e-10
-6.32878e-11
-1.14017e-10
-1.156087e-10
-1.177584e-10
-1.198128e-10
-1.235774e-10
-1.290865e-10
-2.522684e-10
-1.048848e-07
-1.185881e-07
-1.212553e-07
-1.212375e-07
-1.212373e-07
-1.212372e-07
-1.212372e-07
-1.212372e-07
-1.212372e-07
-1.212372e-07
-1.212372e-07
-1.212372e-07
-1.212372e-07
-1.212372e-07
-1.212372e-07
-1.212372e-07
-1.212371e-07
-1.212371e-07
-1.368879e-07
-1.231384e-07
-1.212454e-07
-1.212399e-07
-1.212399e-07
-1.212399e-07
-1.212399e-07
-1.212399e-07
-1.212399e-07
-1.212399e-07
-1.212399e-07
-1.212399e-07
-1.212399e-07
-1.212399e-07
-1.212399e-07
-1.2124e-07
-1.2124e-07
-1.2124e-07
-1.437692e-07
-1.217099e-07
-1.212407e-07
-1.212397e-07
-1.212397e-07
-1.212397e-07
-1.212397e-07
-1.212397e-07
-1.212397e-07
-1.212397e-07
-1.212397e-07
-1.212397e-07
-1.212397e-07
-1.212397e-07
-1.212397e-07
-1.212397e-07
-1.212397e-07
-1.212397e-07
-1.404679e-07
-1.219233e-07
-1.212408e-07
-1.212397e-07
-1.212397e-07
-1.212397e-07
-1.212397e-07
-1.212397e-07
-1.212397e-07
-1.212397e-07
-1.212397e-07
-1.212397e-07
-1.212397e-07
-1.212397e-07
-1.212397e-07
-1.212397e-07
-1.212397e-07
-1.212397e-07
-1.463745e-07
-1.220437e-07
-1.212409e-07
-1.212397e-07
-1.212397e-07
-1.212397e-07
-1.212397e-07
-1.212397e-07
-1.212397e-07
-1.212397e-07
-1.212397e-07
-1.212397e-07
-1.212397e-07
-1.212397e-07
-1.212397e-07
-1.212397e-07
-1.212397e-07
-1.212397e-07
-1.50942e-07
-1.220934e-07
-1.21241e-07
-1.212397e-07
-1.212397e-07
-1.212397e-07
-1.212397e-07
-1.212397e-07
-1.212397e-07
-1.212397e-07
-1.212397e-07
-1.212397e-07
-1.212397e-07
-1.212397e-07
-1.212397e-07
-1.212397e-07
-1.212397e-07
-1.212397e-07
-1.49256e-07
-1.221166e-07
-1.212411e-07
-1.212397e-07
-1.212397e-07
-1.212397e-07
-1.212397e-07
-1.212397e-07
-1.212397e-07
-1.212397e-07
-1.212397e-07
-1.212397e-07
-1.212397e-07
-1.212397e-07
-1.212397e-07
-1.212397e-07
-1.212397e-07
-1.212397e-07
-1.471577e-07
-1.220981e-07
-1.212411e-07
-1.212397e-07
-1.212397e-07
-1.212397e-07
-1.212397e-07
-1.212397e-07
-1.212397e-07
-1.212397e-07
-1.212397e-07
-1.212397e-07
-1.212397e-07
-1.212397e-07
-1.212397e-07
-1.212397e-07
-1.212397e-07
-1.212397e-07
-1.435179e-07
-1.220524e-07
-1.212411e-07
-1.212397e-07
-1.212397e-07
-1.212397e-07
-1.212397e-07
-1.212397e-07
-1.212397e-07
-1.212397e-07
-1.212397e-07
-1.212397e-07
-1.212397e-07
-1.212397e-07
-1.212397e-07
-1.212397e-07
-1.212397e-07
-1.212397e-07
-1.408206e-07
-1.220627e-07
-1.212411e-07
-1.212397e-07
-1.212397e-07
-1.212397e-07
-1.212397e-07
-1.212397e-07
-1.212397e-07
-1.212397e-07
-1.212397e-07
-1.212397e-07
-1.212397e-07
-1.212397e-07
-1.212397e-07
-1.212397e-07
-1.212397e-07
-1.212397e-07
-1.383506e-07
-1.22079e-07
-1.212411e-07
-1.212397e-07
-1.212397e-07
-1.212397e-07
-1.212397e-07
-1.212397e-07
-1.212397e-07
-1.212397e-07
-1.212397e-07
-1.212397e-07
-1.212397e-07
-1.212397e-07
-1.212397e-07
-1.212397e-07
-1.212397e-07
-1.212397e-07
-1.351594e-07
-1.220948e-07
-1.212411e-07
-1.212397e-07
-1.212397e-07
-1.212397e-07
-1.212397e-07
-1.212397e-07
-1.212397e-07
-1.212397e-07
-1.212397e-07
-1.212397e-07
-1.212397e-07
-1.212397e-07
-1.212397e-07
-1.212397e-07
-1.212397e-07
-1.212397e-07
-1.320371e-07
-1.220569e-07
-1.212412e-07
-1.212397e-07
-1.212397e-07
-1.212397e-07
-1.212397e-07
-1.212397e-07
-1.212397e-07
-1.212397e-07
-1.212397e-07
-1.212397e-07
-1.212397e-07
-1.212397e-07
-1.212397e-07
-1.212397e-07
-1.212397e-07
-1.212397e-07
-1.307267e-07
-1.223669e-07
-1.212423e-07
-1.212397e-07
-1.212397e-07
-1.212397e-07
-1.212397e-07
-1.212397e-07
-1.212397e-07
-1.212397e-07
-1.212397e-07
-1.212397e-07
-1.212397e-07
-1.212397e-07
-1.212397e-07
-1.212397e-07
-1.212397e-07
-1.212397e-07
-1.09667e-07
-1.234564e-07
-1.212524e-07
-1.212398e-07
-1.212397e-07
-1.212397e-07
-1.212397e-07
-1.212397e-07
-1.212397e-07
-1.212397e-07
-1.212397e-07
-1.212397e-07
-1.212397e-07
-1.212397e-07
-1.212397e-07
-1.212397e-07
-1.212397e-07
-1.212397e-07
-1.027485e-07
-1.218523e-07
-1.212866e-07
-1.212425e-07
-1.212397e-07
-1.212397e-07
-1.212397e-07
-1.212397e-07
-1.212397e-07
-1.212397e-07
-1.212397e-07
-1.212397e-07
-1.212397e-07
-1.212397e-07
-1.212397e-07
-1.212397e-07
-1.212397e-07
-1.212397e-07
-9.817436e-08
-1.231879e-07
-1.212221e-07
-1.212555e-07
-1.212404e-07
-1.212397e-07
-1.212397e-07
-1.212397e-07
-1.212397e-07
-1.212397e-07
-1.212397e-07
-1.212397e-07
-1.212397e-07
-1.212397e-07
-1.212397e-07
-1.212397e-07
-1.212397e-07
-1.212397e-07
-9.240624e-08
-1.229497e-07
-1.212272e-07
-1.21233e-07
-1.212447e-07
-1.212398e-07
-1.212397e-07
-1.212397e-07
-1.212397e-07
-1.212397e-07
-1.212397e-07
-1.212397e-07
-1.212397e-07
-1.212397e-07
-1.212397e-07
-1.212397e-07
-1.212397e-07
-1.212397e-07
-8.702856e-08
-1.229695e-07
-1.212423e-07
-1.21234e-07
-1.212369e-07
-1.212405e-07
-1.212397e-07
-1.212397e-07
-1.212397e-07
-1.212397e-07
-1.212397e-07
-1.212397e-07
-1.212397e-07
-1.212397e-07
-1.212397e-07
-1.212397e-07
-1.212397e-07
-1.212397e-07
-8.204847e-08
-1.229654e-07
-1.212432e-07
-1.212394e-07
-1.212384e-07
-1.212394e-07
-1.212398e-07
-1.212397e-07
-1.212397e-07
-1.212397e-07
-1.212397e-07
-1.212397e-07
-1.212397e-07
-1.212397e-07
-1.212397e-07
-1.212397e-07
-1.212397e-07
-1.212397e-07
-7.737397e-08
-1.229808e-07
-1.212432e-07
-1.212397e-07
-1.212397e-07
-1.212394e-07
-1.212397e-07
-1.212397e-07
-1.212397e-07
-1.212397e-07
-1.212397e-07
-1.212397e-07
-1.212397e-07
-1.212397e-07
-1.212397e-07
-1.212397e-07
-1.212397e-07
-1.212397e-07
-7.2893e-08
-1.229779e-07
-1.212431e-07
-1.212397e-07
-1.212397e-07
-1.212397e-07
-1.212396e-07
-1.212397e-07
-1.212397e-07
-1.212397e-07
-1.212397e-07
-1.212397e-07
-1.212397e-07
-1.212397e-07
-1.212397e-07
-1.212397e-07
-1.212397e-07
-1.212397e-07
-6.790982e-08
-1.230557e-07
-1.212432e-07
-1.212397e-07
-1.212397e-07
-1.212397e-07
-1.212397e-07
-1.212397e-07
-1.212397e-07
-1.212397e-07
-1.212397e-07
-1.212397e-07
-1.212397e-07
-1.212397e-07
-1.212397e-07
-1.212397e-07
-1.212397e-07
-1.212397e-07
-6.48853e-08
-1.231347e-07
-1.212433e-07
-1.212397e-07
-1.212397e-07
-1.212397e-07
-1.212397e-07
-1.212397e-07
-1.212397e-07
-1.212397e-07
-1.212397e-07
-1.212397e-07
-1.212397e-07
-1.212397e-07
-1.212397e-07
-1.212397e-07
-1.212397e-07
-1.212397e-07
-6.11904e-08
-1.23104e-07
-1.212432e-07
-1.212397e-07
-1.212397e-07
-1.212397e-07
-1.212397e-07
-1.212397e-07
-1.212397e-07
-1.212397e-07
-1.212397e-07
-1.212397e-07
-1.212397e-07
-1.212397e-07
-1.212397e-07
-1.212397e-07
-1.212397e-07
-1.212397e-07
-5.778567e-08
-1.231044e-07
-1.212431e-07
-1.212397e-07
-1.212398e-07
-1.212397e-07
-1.212397e-07
-1.212397e-07
-1.212397e-07
-1.212397e-07
-1.212397e-07
-1.212397e-07
-1.212397e-07
-1.212397e-07
-1.212398e-07
-1.212397e-07
-1.212397e-07
-1.212397e-07
-5.475034e-08
-1.231405e-07
-1.21243e-07
-1.212397e-07
-1.212399e-07
-1.212397e-07
-1.212397e-07
-1.212397e-07
-1.212397e-07
-1.212397e-07
-1.212397e-07
-1.212397e-07
-1.212397e-07
-1.212397e-07
-1.212396e-07
-1.212397e-07
-1.212397e-07
-1.212397e-07
-5.168301e-08
-1.23153e-07
-1.212429e-07
-1.212399e-07
-1.212403e-07
-1.212397e-07
-1.212397e-07
-1.212397e-07
-1.212397e-07
-1.212397e-07
-1.212397e-07
-1.212397e-07
-1.212397e-07
-1.212397e-07
-1.212397e-07
-1.212397e-07
-1.212397e-07
-1.212397e-07
-4.882138e-08
-1.229898e-07
-1.212426e-07
-1.212489e-07
-1.212484e-07
-1.212397e-07
-1.212397e-07
-1.212398e-07
-1.212398e-07
-1.212397e-07
-1.212397e-07
-1.212397e-07
-1.212397e-07
-1.212397e-07
-1.212397e-07
-1.212397e-07
-1.212397e-07
-1.212397e-07
-4.617751e-08
-1.227786e-07
-1.212436e-07
-1.214638e-07
-1.21417e-07
-1.21241e-07
-1.212399e-07