/*--------------------------------*- C++ -*----------------------------------*\
| =========                 |                                                 |
| \\      /  F ield         | OpenFOAM: The Open Source CFD Toolbox           |
|  \\    /   O peration     | Version:  2206                                  |
|   \\  /    A nd           | Website:  www.openfoam.com                      |
|    \\/     M anipulation  |                                                 |
\*---------------------------------------------------------------------------*/
FoamFile
{
    version     2.0;
    format      ascii;
    arch        "LSB;label=32;scalar=64";
    class       volScalarField;
    location    "2";
    object      ddt0(omega.b);
}
// * * * * * * * * * * * * * * * * * * * * * * * * * * * * * * * * * * * * * //

dimensions      [0 0 -2 0 0 0 0];

internalField   nonuniform List<scalar> 
13078
(
3.076634e-09
-0.1085226
-0.153351
-0.1550124
-0.1554595
-0.1559018
-0.1564068
-1.334791e-08
-0.1082944
-0.1536629
-0.1550419
-0.1554524
-0.1558948
-0.1563976
-8.752493e-09
-0.1132841
-0.1537828
-0.1550431
-0.1554484
-0.155889
-0.1563895
-1.529768e-08
-0.114969
-0.1538374
-0.1550442
-0.155446
-0.155884
-0.1563821
-2.179566e-08
-0.1155605
-0.1538669
-0.1550507
-0.1554442
-0.1558793
-0.156375
-2.82714e-08
-0.115854
-0.1538838
-0.1550558
-0.1554471
-0.1558747
-0.1563678
-3.542187e-08
-0.1159994
-0.1538823
-0.1550568
-0.1554493
-0.1558757
-0.1563608
-4.35816e-08
-0.1160644
-0.1538735
-0.1550563
-0.1554503
-0.1558767
-0.1563607
-5.307722e-08
-0.1160991
-0.1538758
-0.1550562
-0.1554506
-0.1558769
-0.1563607
-6.429405e-08
-0.1160992
-0.1538758
-0.1550555
-0.1554502
-0.1558766
-0.1563602
-7.774142e-08
-0.1160767
-0.1538747
-0.1550545
-0.1554494
-0.1558759
-0.1563594
-9.404867e-08
-0.1160381
-0.1538728
-0.1550533
-0.1554484
-0.1558749
-0.1563583
-1.140106e-07
-0.1159875
-0.1538705
-0.1550519
-0.1554472
-0.1558737
-0.156357
-1.38633e-07
-0.1159275
-0.1538678
-0.1550504
-0.1554457
-0.1558723
-0.1563555
-1.692098e-07
-0.115858
-0.153864
-0.1550468
-0.1554413
-0.1558705
-0.1563539
-2.073967e-07
-0.1157828
-0.1538596
-0.1550423
-0.1554374
-0.1558688
-0.1563522
-2.553152e-07
-0.1157021
-0.1538562
-0.1550404
-0.1554356
-0.1558671
-0.1563503
-3.156954e-07
-0.1156166
-0.1538524
-0.1550386
-0.1554338
-0.1558653
-0.1563484
-3.920234e-07
-0.1155265
-0.1538485
-0.1550367
-0.1554318
-0.1558631
-0.1563463
-4.88763e-07
-0.1154334
-0.1538444
-0.1550344
-0.1554268
-0.1558565
-0.1563438
-6.115902e-07
-0.1153374
-0.1538401
-0.155032
-0.1554205
-0.1558507
-0.1563412
-7.677626e-07
-0.1152397
-0.1538357
-0.1550298
-0.1554178
-0.1558481
-0.1563388
-9.66519e-07
-0.115141
-0.1538312
-0.1550273
-0.1554153
-0.1558455
-0.1563358
-1.219577e-06
-0.115042
-0.1538266
-0.1550247
-0.1554122
-0.1558385
-0.1563265
-1.54176e-06
-0.1149437
-0.1538219
-0.155022
-0.155409
-0.1558291
-0.1563184
-1.951757e-06
-0.1148473
-0.153817
-0.155019
-0.155406
-0.1558258
-0.1563149
-2.473038e-06
-0.1147574
-0.1538122
-0.1550158
-0.1554027
-0.1558224
-0.1563125
-3.135177e-06
-0.1146595
-0.1538064
-0.1550124
-0.1553992
-0.155818
-0.1563024
-3.975024e-06
-0.1146052
-0.1538022
-0.1550088
-0.1553954
-0.1558134
-0.1562866
-5.043227e-06
-0.1143051
-0.1537865
-0.1550046
-0.1553913
-0.1558093
-0.1562831
-6.412763e-06
-0.1140311
-0.1537882
-0.1549998
-0.1553867
-0.1558043
-0.1562757
-8.109388e-06
-0.1134745
-0.1537973
-0.1549921
-0.1553805
-0.1557986
-0.1562686
-1.022683e-05
-0.1127848
-0.1537439
-0.1549941
-0.1553723
-0.1557925
-0.1562624
-1.284268e-05
-0.1128818
-0.1536995
-0.154995
-0.1553654
-0.1557867
-0.1562576
-1.605104e-05
-0.1130866
-0.1537062
-0.1549991
-0.1554026
-0.1557909
-0.1562619
-1.993689e-05
-0.1133917
-0.15374
-0.1550065
-0.1554349
-0.1558506
-0.156292
-2.456343e-05
-0.1138906
-0.1538252
-0.1550876
-0.1554715
-0.1559144
-0.1563136
-2.99468e-05
-0.1147836
-0.1539545
-0.1551806
-0.1555364
-0.1559161
-0.1562676
-3.602352e-05
-0.1163051
-0.1541034
-0.1552569
-0.1555421
-0.1558217
-0.1561329
-4.270139e-05
-0.1181251
-0.154231
-0.1552683
-0.1555111
-0.1557174
-0.1559382
-4.983168e-05
-0.1198605
-0.1543559
-0.1552391
-0.1554077
-0.1555491
-0.1556719
-5.665752e-05
-0.1213609
-0.1542764
-0.155121
-0.1552288
-0.1553765
-0.1554838
-6.272547e-05
-0.1225116
-0.1540801
-0.154915
-0.1551004
-0.1551781
-0.1552449
-6.74318e-05
-0.1224206
-0.1538339
-0.1546807
-0.1549273
-0.1550331
-0.1549305
-7.030499e-05
-0.1214219
-0.1535385
-0.1543633
-0.1546004
-0.1547484
-0.1547592
-7.112389e-05
-0.1209919
-0.1531715
-0.1538143
-0.1542256
-0.1541127
-0.1540378
-6.934926e-05
-0.1240218
-0.1527353
-0.1533988
-0.1535898
-0.1534592
-0.1531654
0.0009373237
-0.1320064
-0.152266
-0.1529795
-0.1530078
-0.153037
-0.1525975
0.01324852
-0.1408921
-0.1517621
-0.1524215
-0.1524102
-0.1521023
-0.1512735
0.04519843
-0.1464548
-0.1513038
-0.1517193
-0.1514483
-0.1506675
-0.1507555
0.09985758
-0.1417055
-0.1507029
-0.1509799
-0.1504053
-0.1500693
-0.1503039
0.1772334
-0.1231294
-0.1499245
-0.1504748
-0.1500714
-0.1499707
-0.1502127
0.247516
-0.1087305
-0.1491914
-0.1500408
-0.1497683
-0.1498941
-0.1500794
0.2984533
-0.1053529
-0.1487477
-0.1496103
-0.1494532
-0.1495497
-0.1498286
0.3349164
-0.1021038
-0.1485104
-0.1493696
-0.1492141
-0.149253
-0.1495762
0.3667877
-0.09090289
-0.1483381
-0.1493984
-0.1493973
-0.1498434
-0.149544
0.3691607
-0.08822168
-0.1480987
-0.1495327
-0.1489817
-0.1486635
-0.1487076
0.3379116
-0.09056042
-0.1477041
-0.1491752
-0.1488034
-0.1486397
-0.1487542
0.3015486
-0.0846911
-0.1474707
-0.1492237
-0.1488113
-0.1485975
-0.1487192
0.2526895
-0.08289951
-0.1474733
-0.1493857
-0.1488971
-0.1485246
-0.1484074
0.1835899
-0.09339594
-0.1480927
-0.1496042
-0.1491468
-0.1486994
-0.1484523
0.106192
-0.1075399
-0.1489145
-0.150129
-0.1496762
-0.1491008
-0.1489384
0.04871834
-0.1130939
-0.1495862
-0.150582
-0.150228
-0.149764
-0.149572
0.01541754
-0.1147908
-0.1503754
-0.1511204
-0.1510137
-0.1508547
-0.1505528
0.001125523
-0.115813
-0.1512805
-0.1517505
-0.1515021
-0.1516236
-0.1515586
-8.088595e-05
-0.1160877
-0.1521182
-0.152377
-0.1521761
-0.1524028
-0.1522781
-8.257204e-05
-0.1186995
-0.1527906
-0.1529748
-0.1529902
-0.1530561
-0.153056
-8.07868e-05
-0.1219569
-0.153292
-0.1537224
-0.1535725
-0.1536031
-0.153501
-7.644708e-05
-0.1237844
-0.1536556
-0.1542597
-0.1542136
-0.1540252
-0.1541055
-7.005555e-05
-0.1233252
-0.1539228
-0.1546158
-0.1546773
-0.1546467
-0.1545946
-6.239808e-05
-0.1210586
-0.1541059
-0.1548968
-0.1549959
-0.1551338
-0.1551126
-5.422667e-05
-0.1184331
-0.1541633
-0.1550705
-0.1552581
-0.1554229
-0.1555838
-4.604907e-05
-0.1161087
-0.1540317
-0.1551585
-0.1554234
-0.15566
-0.1559407
-3.854346e-05
-0.1139125
-0.1538997
-0.1551332
-0.1554655
-0.1557944
-0.156186
-3.184725e-05
-0.11235
-0.1537833
-0.1550613
-0.1554329
-0.1558643
-0.1562709
-2.60088e-05
-0.1116072
-0.1537045
-0.1549902
-0.155394
-0.1558436
-0.1562608
-2.104866e-05
-0.1111604
-0.1536505
-0.1549541
-0.1553831
-0.1557768
-0.1562393
-1.689852e-05
-0.11092
-0.1536367
-0.1549776
-0.1553707
-0.1557654
-0.1562399
-1.350428e-05
-0.1107805
-0.1536408
-0.1549859
-0.155357
-0.1557778
-0.1562496
-1.074848e-05
-0.1107781
-0.1536887
-0.1549888
-0.1553685
-0.1557888
-0.1562596
-8.522711e-06
-0.1116264
-0.1537489
-0.1549894
-0.1553784
-0.1557967
-0.1562675
-6.742386e-06
-0.1123318
-0.1537418
-0.1549977
-0.1553854
-0.1558033
-0.1562754
-5.306221e-06
-0.112849
-0.1537436
-0.1550033
-0.1553907
-0.1558091
-0.1562834
-4.186707e-06
-0.1132149
-0.153763
-0.155008
-0.1553954
-0.1558136
-0.1562875
-3.30669e-06
-0.1134063
-0.1537709
-0.155012
-0.1553995
-0.1558186
-0.1563034
-2.612593e-06
-0.1136308
-0.1537803
-0.1550157
-0.1554033
-0.1558233
-0.1563138
-2.066022e-06
-0.113843
-0.1537885
-0.1550191
-0.1554067
-0.1558268
-0.1563164
-1.635641e-06
-0.1140525
-0.1537966
-0.1550222
-0.1554098
-0.1558304
-0.15632
-1.296978e-06
-0.1142539
-0.1538041
-0.155025
-0.1554131
-0.1558395
-0.156328
-1.030535e-06
-0.1144461
-0.1538114
-0.1550276
-0.1554161
-0.1558466
-0.1563372
-8.208605e-07
-0.1146285
-0.1538183
-0.1550301
-0.1554186
-0.1558492
-0.1563401
-6.557446e-07
-0.1148007
-0.1538247
-0.1550323
-0.1554212
-0.1558517
-0.1563424
-5.255532e-07
-0.1149629
-0.1538308
-0.1550347
-0.1554274
-0.1558573
-0.1563449
-4.227245e-07
-0.1151148
-0.1538366
-0.1550369
-0.1554324
-0.1558639
-0.1563474
-3.413233e-07
-0.115257
-0.153842
-0.1550387
-0.1554343
-0.155866
-0.1563493
-2.767052e-07
-0.1153891
-0.1538471
-0.1550405
-0.155436
-0.1558677
-0.1563512
-2.252194e-07
-0.1155118
-0.1538517
-0.1550424
-0.1554378
-0.1558693
-0.1563529
-1.840208e-07
-0.1156237
-0.1538571
-0.1550467
-0.1554415
-0.155871
-0.1563547
-1.508971e-07
-0.1157263
-0.1538619
-0.1550503
-0.1554459
-0.1558728
-0.1563562
-1.241652e-07
-0.1158188
-0.1538656
-0.1550519
-0.1554475
-0.1558742
-0.1563578
-1.024161e-07
-0.1158998
-0.1538689
-0.1550532
-0.1554486
-0.1558754
-0.1563591
-8.455996e-08
-0.1159692
-0.1538717
-0.1550544
-0.1554497
-0.1558765
-0.1563603
-6.979345e-08
-0.1160245
-0.153874
-0.1550556
-0.1554507
-0.1558774
-0.1563613
-5.7488e-08
-0.1160618
-0.1538755
-0.1550566
-0.1554514
-0.155878
-0.156362
-4.709827e-08
-0.1160739
-0.1538753
-0.1550573
-0.1554517
-0.1558783
-0.1563624
-3.81831e-08
-0.1160711
-0.1538872
-0.1550587
-0.1554515
-0.155878
-0.156363
-3.041168e-08
-0.116016
-0.1538934
-0.1550594
-0.1554505
-0.1558778
-0.1563704
-2.348803e-08
-0.1158683
-0.1538843
-0.1550567
-0.1554489
-0.1558831
-0.156378
-1.745496e-08
-0.1155892
-0.1538676
-0.1550526
-0.1554517
-0.1558882
-0.1563853
-1.232628e-08
-0.1149764
-0.1538415
-0.1550518
-0.1554541
-0.155893
-0.1563924
-7.22528e-09
-0.1136098
-0.1538276
-0.1550513
-0.1554569
-0.155898
-0.1563998
-1.234118e-08
-0.1109094
-0.1537517
-0.1550555
-0.1554617
-0.1559039
-0.1564078
-0.1569978
-0.1577407
-0.1587345
-0.1596816
-0.1613661
-0.1640051
-0.1761247
-0.1569862
-0.1577252
-0.1587139
-0.1596562
-0.1613353
-0.163949
-0.165015
-0.1569756
-0.1577107
-0.1586943
-0.159986
-0.1613054
-0.1639056
-0.1643573
-0.1569655
-0.1576964
-0.1586743
-0.1596076
-0.1612744
-0.1638631
-0.1640421
-0.156956
-0.1576825
-0.1586551
-0.1595829
-0.1612448
-0.1638214
-0.1640836
-0.1569465
-0.1576687
-0.1586359
-0.1595591
-0.1612153
-0.1637802
-0.1645872
-0.1569369
-0.1576548
-0.1586168
-0.1595358
-0.1612076
-0.163739
-0.1651041
-0.1569277
-0.1576408
-0.1585975
-0.1595128
-0.1612001
-0.1636982
-0.1658073
-0.1569264
-0.1576275
-0.1585792
-0.1594892
-0.1611768
-0.1636616
-0.1663183
-0.1569256
-0.1576249
-0.1585617
-0.1594654
-0.1611534
-0.1636252
-0.1668759
-0.1569245
-0.157623
-0.1585577
-0.1594421
-0.1611299
-0.1635889
-0.1674433
-0.1569231
-0.1576208
-0.1585546
-0.1594374
-0.1611063
-0.1635529
-0.167949
-0.1569215
-0.1576185
-0.1585513
-0.1594332
-0.1611025
-0.1635163
-0.1683234
-0.1569196
-0.1576159
-0.1585477
-0.1594288
-0.1610982
-0.1635089
-0.1688095
-0.1569177
-0.1576131
-0.158544
-0.159424
-0.1610937
-0.1635021
-0.1683895
-0.1569156
-0.1576102
-0.15854
-0.1594191
-0.1610888
-0.1634946
-0.1686754
-0.1569134
-0.1576071
-0.1585359
-0.1594139
-0.1610823
-0.1634864
-0.1686073
-0.156911
-0.1576039
-0.1585316
-0.1594061
-0.1610098
-0.163478
-0.1685742
-0.1569086
-0.1576008
-0.1585272
-0.1594006
-0.1610013
-0.1634694
-0.1685517
-0.156906
-0.1575975
-0.1585225
-0.1593947
-0.1609941
-0.1634605
-0.168515
-0.1569034
-0.157594
-0.1585176
-0.1593887
-0.1609866
-0.1634512
-0.1684666
-0.1569005
-0.1575904
-0.1585123
-0.1593823
-0.1609789
-0.1634412
-0.1684543
-0.1568975
-0.1575866
-0.1585069
-0.1593794
-0.1609698
-0.1634306
-0.1684367
-0.1568938
-0.1575828
-0.1585015
-0.1597015
-0.1609044
-0.1634136
-0.1684297
-0.1568901
-0.1575787
-0.1584949
-0.1593637
-0.1608682
-0.1634001
-0.1684368
-0.1568867
-0.1575747
-0.158492
-0.1593536
-0.1608576
-0.1633884
-0.168444
-0.1568824
-0.1575703
-0.1584843
-0.1593467
-0.1608467
-0.1633737
-0.1684669
-0.1568687
-0.1575638
-0.1584879
-0.1593391
-0.1608313
-0.163237
-0.1684857
-0.1568577
-0.1573754
-0.1582214
-0.1593351
-0.1608182
-0.1631903
-0.1685157
-0.1568674
-0.1573789
-0.1582201
-0.159325
-0.160808
-0.1631727
-0.1685544
-0.1568347
-0.1573781
-0.158216
-0.1593186
-0.1607995
-0.1630807
-0.1685993
-0.156812
-0.1573232
-0.1582111
-0.1593134
-0.1607922
-0.1629838
-0.1686485
-0.1568042
-0.1573568
-0.1581934
-0.1593085
-0.1607872
-0.1629813
-0.1688701
-0.1567949
-0.1573416
-0.1581638
-0.1593017
-0.1607867
-0.1629852
-0.1687422
-0.1567908
-0.1573655
-0.1581713
-0.1592901
-0.1608171
-0.163129
-0.169166
-0.1568023
-0.1573849
-0.1580837
-0.1593112
-0.1608498
-0.1633583
-0.1688515
-0.1567683
-0.157343
-0.1580112
-0.1589901
-0.1608933
-0.1636003
-0.1698608
-0.1566129
-0.1571582
-0.1576588
-0.158981
-0.1608371
-0.1635062
-0.1688394
-0.1563534
-0.1568188
-0.1573487
-0.1587523
-0.1606651
-0.1633226
-0.1676981
-0.1559824
-0.1564599
-0.1569294
-0.1583354
-0.1606315
-0.1642567
-0.1689731
-0.155778
-0.1559961
-0.1565808
-0.158913
-0.1609907
-0.1643831
-0.1696969
-0.1556142
-0.155932
-0.1569892
-0.1583162
-0.1612984
-0.1639255
-0.1684081
-0.1553369
-0.1551549
-0.1558024
-0.1586608
-0.1612304
-0.1637756
-0.1690959
-0.1550905
-0.1547707
-0.1565159
-0.1589193
-0.1610364
-0.1632066
-0.1701442
-0.1551107
-0.1548336
-0.1569058
-0.1594908
-0.1603807
-0.1630079
-0.1716642
-0.1547504
-0.1549399
-0.1575305
-0.1589552
-0.160514
-0.1629972
-0.1726262
-0.153894
-0.1546874
-0.1571478
-0.1588606
-0.1598498
-0.1627121
-0.1690391
-0.1525164
-0.15402
-0.1567048
-0.1578557
-0.1596959
-0.1617785
-0.1720036
-0.1515401
-0.153397
-0.1558213
-0.1570934
-0.1590311
-0.1622991
-0.1676645
-0.1512229
-0.1526541
-0.1553822
-0.1566241
-0.1586434
-0.1618558
-0.1680316
-0.1511908
-0.1527904
-0.1543722
-0.1557773
-0.1582776
-0.1611521
-0.1658743
-0.1508522
-0.1519771
-0.1529942
-0.1559377
-0.1574014
-0.1604006
-0.1642808
-0.1505963
-0.1516087
-0.152705
-0.154181
-0.1565725
-0.1591823
-0.1643188
-0.1510169
-0.1512393
-0.1522199
-0.15328
-0.1551961
-0.1582232
-0.1656225
-0.1504532
-0.150824
-0.1516132
-0.1525711
-0.1545092
-0.1609799
-0.1577047
-0.149508
-0.1510654
-0.1513429
-0.1522789
-0.1539368
-0.156608
-0.1489864
-0.1498712
-0.1511534
-0.1519091
-0.1542175
-0.1556378
-0.1489145
-0.1497739
-0.1510096
-0.1518613
-0.1540131
-0.156801
-0.1488882
-0.1495056
-0.1506522
-0.1523777
-0.154718
-0.1589088
-0.1651799
-0.1488696
-0.1493552
-0.1511409
-0.1529627
-0.1555728
-0.159043
-0.1700733
-0.148626
-0.1489475
-0.1525485
-0.1540709
-0.1564185
-0.1605507
-0.1675724
-0.1490977
-0.1495115
-0.1530934
-0.1545769
-0.1575433
-0.1607821
-0.1663302
-0.1496459
-0.15004
-0.1538151
-0.1557448
-0.1570759
-0.1604435
-0.1668468
-0.1503659
-0.1509527
-0.1541794
-0.1553666
-0.1569491
-0.1601542
-0.1667571
-0.1512187
-0.1515404
-0.1545139
-0.1559293
-0.1573271
-0.1599142
-0.1772199
-0.1519618
-0.1519336
-0.1550479
-0.1564321
-0.1575754
-0.1608612
-0.1759244
-0.1526152
-0.152424
-0.1550785
-0.1569475
-0.1581664
-0.1605312
-0.1698273
-0.1533955
-0.1525971
-0.154981
-0.1569627
-0.1586621
-0.1607874
-0.1706092
-0.1540676
-0.153425
-0.1547891
-0.1570177
-0.1590997
-0.1611198
-0.1688325
-0.1545707
-0.1546505
-0.1547707
-0.1566135
-0.1592851
-0.1615657
-0.1680914
-0.1550291
-0.1548289
-0.1558379
-0.1578359
-0.1590757
-0.161906
-0.1674072
-0.1556693
-0.1556065
-0.1562097
-0.1576096
-0.1600675
-0.1623893
-0.1670796
-0.1561777
-0.1563443
-0.1567698
-0.1576869
-0.1605732
-0.1631442
-0.1682289
-0.1565013
-0.1567711
-0.1575073
-0.1585426
-0.1604309
-0.1637182
-0.1688216
-0.156698
-0.1571018
-0.1578377
-0.1590218
-0.1608577
-0.1637555
-0.1688883
-0.1567646
-0.1572863
-0.1580154
-0.1592632
-0.1608786
-0.1635056
-0.1691706
-0.1567674
-0.1573449
-0.1580605
-0.1592313
-0.1608404
-0.1633203
-0.1691937
-0.1567747
-0.1573559
-0.15808
-0.1592695
-0.1607852
-0.1630391
-0.1688961
-0.1567903
-0.1573392
-0.158172
-0.1593006
-0.160784
-0.1629689
-0.1685818
-0.1568033
-0.1573863
-0.1581875
-0.1593094
-0.1607912
-0.1630018
-0.168799
-0.1568119
-0.1573805
-0.1582016
-0.1593149
-0.1607978
-0.1629922
-0.1689134
-0.1568351
-0.1573645
-0.1582169
-0.1593212
-0.1608052
-0.1630217
-0.16882
-0.156868
-0.1573993
-0.158222
-0.159328
-0.1608139
-0.1632189
-0.1687845
-0.1568592
-0.1574365
-0.1582278
-0.1593328
-0.1608237
-0.1632032
-0.1687126
-0.1568706
-0.1575674
-0.1584926
-0.159343
-0.1608342
-0.1632189
-0.1686428
-0.1568847
-0.1575738
-0.1584894
-0.1593556
-0.1608507
-0.1633394
-0.1685908
-0.156889
-0.1575781
-0.1584951
-0.1593604
-0.1608615
-0.1633999
-0.1685426
-0.1568923
-0.1575819
-0.1585006
-0.1593656
-0.1608721
-0.1634107
-0.1685084
-0.1568959
-0.1575858
-0.158506
-0.1593711
-0.1608834
-0.1634213
-0.1684601
-0.1568995
-0.1575894
-0.1585112
-0.1593768
-0.1609541
-0.163437
-0.1684534
-0.1569023
-0.157593
-0.1585161
-0.1593826
-0.1609819
-0.1634489
-0.1684255
-0.156905
-0.1575964
-0.1585209
-0.1593883
-0.1609892
-0.1634582
-0.1684216
-0.1569075
-0.1575996
-0.1585255
-0.1593939
-0.1609964
-0.1634669
-0.1684105
-0.15691
-0.1576027
-0.1585299
-0.1593994
-0.1610032
-0.1634753
-0.1684169
-0.1569123
-0.1576057
-0.1585341
-0.1594047
-0.1610098
-0.1634833
-0.1684741
-0.1569145
-0.1576088
-0.1585383
-0.1594114
-0.1610458
-0.1634911
-0.1685067
-0.1569167
-0.1576117
-0.1585422
-0.1594173
-0.1610907
-0.1634986
-0.1685138
-0.1569187
-0.1576146
-0.158546
-0.1594222
-0.1610952
-0.1635059
-0.1683998
-0.1569206
-0.1576173
-0.1585497
-0.1594269
-0.1610996
-0.1635124
-0.1686291
-0.1569225
-0.1576198
-0.1585531
-0.1594313
-0.1611038
-0.1635194
-0.1686257
-0.1569241
-0.1576222
-0.1585564
-0.1594355
-0.1611078
-0.163541
-0.1683709
-0.1569256
-0.1576244
-0.1585595
-0.1594395
-0.1611213
-0.1635764
-0.1680551
-0.1569269
-0.1576264
-0.1585635
-0.1594535
-0.1611445
-0.1636121
-0.1676454
-0.1569279
-0.1576291
-0.158581
-0.1594772
-0.1611678
-0.1636479
-0.1671044
-0.1569294
-0.1576426
-0.1585995
-0.159501
-0.161191
-0.163684
-0.1666312
-0.1569389
-0.1576568
-0.1586187
-0.1595248
-0.1612132
-0.1637221
-0.1661493
-0.1569488
-0.1576708
-0.1586379
-0.1595472
-0.1612036
-0.1637629
-0.1656088
-0.1569585
-0.1576847
-0.1586571
-0.1595711
-0.1612322
-0.163804
-0.1652062
-0.156968
-0.1576985
-0.1586762
-0.1595951
-0.1612615
-0.1638453
-0.164967
-0.1569777
-0.1577123
-0.1586955
-0.1596194
-0.1612911
-0.1638868
-0.1649596
-0.1569878
-0.1577264
-0.1587149
-0.1596437
-0.1613209
-0.1639285
-0.1653497
-0.1569983
-0.1577411
-0.1587347
-0.1596685
-0.161351
-0.1639726
-0.1709439
-0.8280372
-1.374939
-1.202119
-1.210731
-1.210872
-1.210872
-1.210872
-1.210872
-1.210872
-1.210871
-1.210871
-1.210871
-1.210871
-1.210871
-1.210871
-1.210871
-1.210871
-1.21087
-1.398148
-1.13243
-1.210245
-1.210901
-1.210901
-1.210901
-1.210901
-1.210901
-1.210901
-1.210902
-1.210902
-1.210902
-1.210902
-1.210902
-1.210902
-1.210902
-1.210902
-1.210902
-1.432616
-1.21179
-1.210879
-1.210899
-1.210899
-1.210899
-1.210899
-1.210899
-1.210899
-1.210899
-1.210899
-1.210899
-1.210899
-1.210899
-1.210899
-1.210899
-1.210899
-1.210899
-1.395574
-1.206093
-1.210888
-1.210899
-1.210898
-1.210898
-1.210898
-1.210898
-1.210898
-1.210898
-1.210898
-1.210898
-1.210898
-1.210898
-1.210898
-1.210898
-1.210899
-1.210899
-1.464342
-1.203426
-1.210885
-1.210898
-1.210898
-1.210898
-1.210898
-1.210898
-1.210898
-1.210898
-1.210898
-1.210898
-1.210898
-1.210898
-1.210898
-1.210898
-1.210898
-1.210898
-1.524589
-1.204054
-1.210883
-1.210898
-1.210898
-1.210898
-1.210898
-1.210898
-1.210898
-1.210898
-1.210898
-1.210898
-1.210898
-1.210898
-1.210898
-1.210898
-1.210898
-1.210898
-1.523583
-1.205277
-1.210881
-1.210898
-1.210898
-1.210898
-1.210898
-1.210898
-1.210898
-1.210898
-1.210898
-1.210898
-1.210898
-1.210898
-1.210898
-1.210898
-1.210898
-1.210898
-1.522241
-1.207982
-1.21088
-1.210898
-1.210899
-1.210898
-1.210898
-1.210898
-1.210898
-1.210898
-1.210898
-1.210898
-1.210898
-1.210898
-1.210898
-1.210898
-1.210898
-1.210898
-1.504556
-1.209824
-1.210883
-1.210898
-1.210898
-1.210898
-1.210898
-1.210898
-1.210898
-1.210898
-1.210898
-1.210898
-1.210898
-1.210898
-1.210898
-1.210898
-1.210898
-1.210898
-1.49753
-1.209617
-1.210883
-1.210898
-1.210898
-1.210898
-1.210898
-1.210898
-1.210898
-1.210898
-1.210898
-1.210898
-1.210898
-1.210898
-1.210898
-1.210898
-1.210898
-1.210898
-1.495107
-1.210973
-1.210882
-1.210898
-1.210897
-1.210898
-1.210898
-1.210898
-1.210898
-1.210898
-1.210898
-1.210898
-1.210898
-1.210898
-1.210898
-1.210898
-1.210898
-1.210898
-1.483364
-1.210442
-1.210882
-1.210898
-1.210897
-1.210898
-1.210898
-1.210898
-1.210898
-1.210898
-1.210898
-1.210898
-1.210898
-1.210898
-1.210898
-1.210898
-1.210898
-1.210898
-1.478376
-1.211657
-1.21088
-1.210898
-1.210897
-1.210898
-1.210898
-1.210898
-1.210898
-1.210898
-1.210898
-1.210898
-1.210898
-1.210898
-1.210898
-1.210898
-1.210898
-1.210898
-1.474746
-1.210469
-1.210855
-1.210898
-1.210897
-1.210898
-1.210898
-1.210898
-1.210898
-1.210898
-1.210898
-1.210898
-1.210898
-1.210898
-1.210898
-1.210898
-1.210898
-1.210898
-1.363323
-1.201032
-1.210243
-1.210892
-1.210898
-1.210898
-1.210898
-1.210898
-1.210898
-1.210898
-1.210898
-1.210898
-1.210898
-1.210898
-1.210898
-1.210898
-1.210898
-1.210898
-1.343587
-1.228462
-1.208846
-1.210706
-1.210897
-1.210898
-1.210898
-1.210898
-1.210898
-1.210898
-1.210898
-1.210898
-1.210898
-1.210898
-1.210898
-1.210898
-1.210898
-1.210898
-1.329493
-1.213736
-1.211419
-1.21016
-1.210847
-1.210898
-1.210898
-1.210898
-1.210898
-1.210898
-1.210898
-1.210898
-1.210898
-1.210898
-1.210898
-1.210898
-1.210898
-1.210898
-1.304207
-1.216536
-1.211698
-1.211089
-1.210663
-1.210892
-1.210898
-1.210898
-1.210898
-1.210898
-1.210898
-1.210898
-1.210898
-1.210898
-1.210898
-1.210898
-1.210898
-1.210898
-1.281073
-1.215067
-1.210951
-1.211175
-1.210968
-1.210859
-1.210898
-1.210898
-1.210898
-1.210898
-1.210898
-1.210898
-1.210898
-1.210898
-1.210898
-1.210898
-1.210898
-1.210898
-1.258074
-1.216588
-1.210881
-1.21092
-1.210968
-1.210894
-1.210894
-1.210898
-1.210898
-1.210898
-1.210898
-1.210898
-1.210898
-1.210898
-1.210899
-1.210899
-1.210898
-1.210898
-1.233783
-1.216638
-1.21088
-1.210899
-1.210902
-1.210913
-1.210894
-1.210898
-1.210898
-1.210898
-1.210898
-1.210898
-1.210898
-1.210898
-1.210899
-1.210898
-1.210898
-1.210898
-1.214265
-1.21792
-1.21088
-1.210898
-1.210897
-1.210899
-1.210899
-1.210898
-1.210898
-1.210898
-1.210898
-1.210898
-1.210898
-1.210898
-1.210898
-1.210898
-1.210898
-1.210898
-1.196463
-1.217956
-1.210882
-1.210898
-1.210895
-1.210898
-1.210898
-1.210899
-1.210897
-1.210898
-1.210898
-1.210898
-1.210898
-1.210898
-1.210898
-1.210898
-1.210898
-1.210898
-1.17888
-1.218697
-1.210883
-1.210898
-1.210893
-1.210898
-1.210898
-1.210898
-1.210899
-1.210898
-1.210898
-1.210898
-1.210898
-1.210898
-1.210898
-1.210898
-1.210898
-1.210898
-1.162384
-1.218551
-1.210882
-1.210897
-1.210889
-1.210898
-1.210898
-1.210898
-1.210898
-1.210899
-1.210898
-1.210898
-1.210898
-1.210897
-1.210894
-1.210898
-1.210898
-1.210898
-1.146471
-1.219936
-1.210884
-1.210896
-1.210882
-1.210898
-1.210898
-1.210898
-1.210897
-1.210898
-1.210899
-1.210898
-1.210898
-1.210893
-1.210869
-1.210899
-1.210898
-1.210898
-1.128956
-1.219564
-1.210884
-1.210892
-1.21087
-1.210898
-1.210897
-1.210898
-1.210896
-1.210898
-1.210898
-1.210898
-1.210898
-1.210895
-1.210899
-1.210898
-1.210898
-1.210898
-1.112527
-1.219705
-1.210883
-1.210877
-1.21083
-1.210898
-1.210896
-1.210897
-1.210894
-1.210898
-1.210898
-1.210898
-1.210898
-1.210897
-1.210898
-1.210898
-1.210898
-1.210898
-1.096197
-1.220965
-1.210876
-1.210459
-1.210368
-1.210895
-1.210892
-1.210892
-1.21089
-1.210898
-1.210898
-1.210898
-1.210898
-1.210898
-1.210899
-1.210898
-1.210898
-1.210897
-1.079816
-1.22068
-1.210756
-1.200627
-1.200924
-1.210859
-1.21088
-1.210735
-1.210833
-1.210898
-1.210898
-1.210898
-1.210898
-1.210899
-1.210898
-1.210898
-1.210898
-1.210886
-1.062275
-1.218156
-1.2106
-1.173658
-1.18162
-1.210837
-1.210856
-1.208639
-1.210016
-1.210907
-1.210898
-1.210898
-1.210898
-1.210896
-1.210899
-1.210898
-1.210898
-1.21089
-1.046096
-1.20536
-1.210472
-1.229213
-1.222323
-1.210911
-1.210823
-1.21175
-1.210725
-1.210911
-1.210898
-1.210898
-1.210889
-1.210888
-1.210898
-1.210898
-1.210897
-1.210889
-1.029739
-1.190625
-1.202107
-1.185319
-1.153975
-1.208571
-1.210748
-1.210601
-1.210657
-1.210884
-1.210898
-1.210898
-1.210888
-1.210879
-1.210898
-1.210898
-1.210871
-1.210861
-1.042371
-1.058649
-1.201188
-1.102539
-1.19095
-1.170158
-1.210627
-1.210643
-1.210549
-1.210555
-1.210898
-1.210898
-1.210879
-1.210895
-1.210898
-1.210897
-1.210871
-1.210929
-0.94733
-1.1946
-1.19279
-1.304713
-1.148509
-1.243035
-1.209815
-1.208954
-1.209207
-1.210339
-1.210895
-1.210896
-1.210866
-1.210906
-1.210898
-1.210891
-1.210752
-1.210898
-0.9220513
-1.004165
-1.210308
-1.181481
-1.268902
-1.211742
-1.209581
-1.212347
-1.211468
-1.211146
-1.210826
-1.210874
-1.210789
-1.210896
-1.210898
-1.210837
-1.210591
-1.210901
-0.9194867
-1.265319
-1.104247
-1.088176
-1.185963
-1.204349
-1.204375
-1.205411
-1.206916
-1.207834
-1.208881
-1.209748
-1.210644
-1.210845
-1.210898
-1.21076
-1.210961
-1.210899
-0.6376189
-0.6333313
-1.117319
-1.150406
-1.202
-1.201362
-1.204485
-1.20445
-1.203766
-1.203513
-1.202983
-1.203401
-1.20632
-1.208638
-1.210232
-1.210757
-1.210914
-1.2109
-0.5772973
-0.8122851
-1.115045
-1.275311
-1.22455
-1.205506
-1.208052
-1.209143
-1.207646
-1.206418
-1.205944
-1.204477
-1.203469
-1.202546
-1.203562
-1.208901
-1.210598
-1.210912
-1.015036
-2.70077
-1.010896
-1.244658
-1.211683
-1.207126
-1.211128
-1.210487
-1.210553
-1.208917
-1.208467
-1.208386
-1.206626
-1.205877
-1.205074
-1.202461
-1.205221
-1.209785
-0.723391
-0.5575133
-1.161427
-1.182499
-1.206337
-1.20486
-1.213636
-1.212628
-1.213166
-1.21159
-1.210178
-1.214467
-1.20964
-1.206699
-1.20728
-1.206315
-1.204365
-1.203485
-0.413463
-1.106251
-1.202698
-1.226474
-1.214496
-1.196975
-1.214813
-1.214787
-1.215888
-1.214284
-1.212765
-1.213829
-1.212212
-1.211788
-1.208744
-1.209147
-1.20743
-1.205973
-0.6611568
-1.527892
-1.205832
-1.212091
-1.189484
-1.246084
-1.218771
-1.21679
-1.218195
-1.216442
-1.215477
-1.213838
-1.211321
-1.213813
-1.212851
-1.211184
-1.210072
-1.20703
-0.7962626
-1.984631
-1.235962
-1.200967
-1.213427
-1.212486
-1.219649
-1.218782
-1.219355
-1.2163
-1.212993
-1.215336
-1.213857
-1.218478
-1.21485
-1.213391
-1.210285
-1.211797
-0.7228159
-1.987717
-1.226106
-0.981357
-1.140953
-1.221249
-1.218655
-1.219808
-1.218229
-1.206787
-1.193991
-1.207835
-1.216924
-1.216165
-1.21592
-1.2112
-1.214688
-1.212488
-0.6956138
-2.575412
-0.7382399
-1.285246
-1.281035
-1.203938
-1.219931
-1.219351
-1.220506
-1.20707
-1.216259
-1.213963
-1.218781
-1.215668
-1.216936
-1.211657
-1.210821
-1.216646
-0.3208762
-3.302688
-1.316732
-1.139835
-1.106509
-1.15696
-1.222232
-1.214253
-1.221714
-1.222125
-1.212409
-1.190891
-1.215002
-1.215019
-1.21797
-1.20469
-1.210074
-1.216748
-0.3781886
-2.927583
-1.210165
-0.7852851
-1.219749
-1.228378
-1.219163
-1.204822
-1.20095
-1.159492
-1.213199
-1.223748
-1.206242
-1.220374
-1.198379
-1.213379
-1.213989
-1.214739
-0.1185842
-2.733221
-2.210601
-0.9643881
-1.072088
-1.187047
-1.206028
-1.158406
-1.080761
-1.122428
-1.136731
-1.218106
-1.225905
-1.165991
-1.198824
-1.215213
-1.221332
-1.224137
-0.2597517
-2.241878
-3.793775
-1.707331
-1.138028
-1.176915
-1.03167
-1.162682
-1.159253
-1.176112
-1.24606
-1.218458
-1.217175
-1.218184
-0.1917034
-2.634281
-1.116622
-1.077592
-1.159942
-1.289933
-1.183862
-1.212445
-1.223494
-1.217205
-0.1934643
-1.362963
-1.101466
-1.178187
-1.167552
-1.206553
-1.224474
-1.224179
-1.034949
-1.171013
-1.188371
-1.224144
-1.227954
-1.221087
-1.094772
-1.225937
-1.208812
-1.211145
-1.22385
-1.453375
-1.165108
-1.216796
-1.216565
-1.220523
-1.13872
-1.239442
-1.218613
-1.222989
-1.224741
-1.04736
-1.204891
-1.215062
-1.220935
-1.221702
-0.8415982
-1.124717
-1.227635
-1.21637
-1.219856
-1.41146
-1.230027
-1.196896
-1.222199
-1.222926
-1.318633
-1.124266
-1.20303
-1.194702
-1.223274
-1.213386
-0.2313375
-1.029403
-1.175873
-1.19033
-1.209711
-1.220047
-1.220461
-0.2161174
-0.8393502
-1.112383
-1.152484
-1.150556
-1.205555
-1.220622
-1.19786
-1.217721
-0.2963156
-2.597619
-3.319659
-1.048534
-1.11542
-1.261771
-1.206197
-1.203461
-1.209267
-1.199784
-1.226752
-1.212642
-0.1564041
-3.583839
-2.883355
-1.135
-0.7931168
-1.02383
-1.231651
-1.183411
-1.429747
-1.23004
-1.183441
-1.192978
-1.233685
-1.190554
-1.19646
-1.208185
-1.204564
-1.216487
-0.4989592
-3.652575
-1.522248
-0.7463069
-1.028534
-1.152851
-1.199943
-1.227804
-1.207332
-1.208401
-1.19253
-1.197076
-1.188009
-1.204711
-1.213603
-1.195335
-1.223451
-1.2035
-0.5121564
-3.728127
-0.9435861
-0.854969
-1.032544
-1.166057
-1.193032
-1.20656
-1.215647
-1.211451
-1.183132
-1.211758
-1.221155
-1.19831
-1.204603
-1.227934
-1.201377
-1.219303
-0.4543488
-3.244206
-1.233888
-0.9111982
-1.14311
-1.145525
-1.201371
-1.207075
-1.204324
-1.196002
-1.18251
-1.21439
-1.193575
-1.205302
-1.205044
-1.198356
-1.223342
-1.196467
-0.8329412
-3.045568
-0.9890753
-1.18109
-1.056022
-1.205084
-1.19672
-1.204457
-1.205276
-1.201711
-1.175247
-1.204092
-1.186366
-1.211376
-1.198357
-1.223639
-1.199767
-1.215494
-0.8941804
-2.422452
-1.243153
-1.220841
-1.11805
-1.193874
-1.198547
-1.203676
-1.203524
-1.2092
-1.193784
-1.204472
-1.207706
-1.202126
-1.21675
-1.205798
-1.211977
-1.205113
-0.907935
-2.234204
-0.9769956
-1.193849
-1.172924
-1.182943
-1.199865
-1.20216
-1.203074
-1.20663
-1.204561
-1.202118
-1.203822
-1.192537
-1.208761
-1.201527
-1.209024
-1.205101
-0.6454703
-2.241188
-0.9859706
-1.100111
-1.204418
-1.154493
-1.192423
-1.201098
-1.20202
-1.203101
-1.201323
-1.198534
-1.204211
-1.208605
-1.202919
-1.213665
-1.206303
-1.211581
-1.059331
-2.393799
-1.018973
-1.110701
-1.180935
-1.205138
-1.199932
-1.200553
-1.2018
-1.202226
-1.203651
-1.197345
-1.204658
-1.206076
-1.201908
-1.206269
-1.206018
-1.207297
-0.8825645
-0.6876946
-1.381155
-1.142431
-1.184568
-1.190141
-1.196924
-1.198935
-1.201847
-1.201697
-1.205427
-1.206414
-1.203637
-1.205699
-1.208198
-1.206156
-1.209359
-1.209414
-1.122374
-1.724398
-1.19741
-1.194817
-1.18731
-1.195871
-1.198608
-1.19775
-1.203344
-1.202135
-1.203424
-1.205209
-1.204286
-1.205878
-1.208079
-1.208201
-1.210158
-1.210884