/*--------------------------------*- C++ -*----------------------------------*\
| =========                 |                                                 |
| \\      /  F ield         | OpenFOAM: The Open Source CFD Toolbox           |
|  \\    /   O peration     | Version:  2206                                  |
|   \\  /    A nd           | Website:  www.openfoam.com                      |
|    \\/     M anipulation  |                                                 |
\*---------------------------------------------------------------------------*/
FoamFile
{
    version     2.0;
    format      ascii;
    arch        "LSB;label=32;scalar=64";
    class       volScalarField;
    location    "2";
    object      ddt0(alpha.a);
}
// * * * * * * * * * * * * * * * * * * * * * * * * * * * * * * * * * * * * * //

dimensions      [0 0 -1 0 0 0 0];

internalField   nonuniform List<scalar> 
13078
(
-0.5613474
-0.02058471
-0.002341715
-0.0003560243
-0.0001166445
-9.955158e-05
-8.425195e-05
-0.01770966
-0.004773083
-0.0005441355
-0.0001569263
-0.0001139827
-9.455414e-05
-8.289801e-05
-0.002120471
-0.0005372319
-0.000142497
-0.0001011491
-8.977943e-05
-8.106996e-05
-7.590421e-05
-4.654914e-05
-5.906429e-05
-6.118296e-05
-6.124883e-05
-6.451669e-05
-6.625732e-05
-6.702495e-05
0.0001570331
4.063122e-05
-7.818139e-06
-3.02149e-05
-4.23011e-05
-5.159582e-05
-5.82132e-05
0.0001464685
5.835625e-05
1.72477e-05
-9.14702e-06
-2.792978e-05
-4.032211e-05
-5.038391e-05
0.0001151656
5.542194e-05
2.597887e-05
1.418145e-06
-1.803477e-05
-3.365863e-05
-4.513064e-05
9.08863e-05
4.452163e-05
2.510162e-05
3.848111e-06
-1.373083e-05
-2.921223e-05
-4.245984e-05
7.302582e-05
3.335697e-05
2.063086e-05
2.689006e-06
-1.292469e-05
-2.783163e-05
-4.098533e-05
5.961052e-05
2.32861e-05
1.455888e-05
-3.638304e-07
-1.436985e-05
-2.846621e-05
-4.168693e-05
4.927511e-05
1.450978e-05
8.489517e-06
-4.237145e-06
-1.71147e-05
-3.044091e-05
-4.351507e-05
4.096621e-05
7.361083e-06
2.734324e-06
-8.733256e-06
-2.063263e-05
-3.324635e-05
-4.58207e-05
3.41584e-05
1.215229e-06
-2.681637e-06
-1.336038e-05
-2.432764e-05
-3.630103e-05
-4.844825e-05
2.838669e-05
-4.507116e-06
-7.958686e-06
-1.807569e-05
-2.836626e-05
-3.956105e-05
-5.167171e-05
2.31606e-05
-9.853943e-06
-1.287472e-05
-2.134882e-05
-3.134191e-05
-4.317977e-05
-5.540822e-05
1.817988e-05
-1.475383e-05
-1.73185e-05
-2.626922e-05
-3.636246e-05
-4.735996e-05
-5.932849e-05
1.33905e-05
-1.921926e-05
-2.166491e-05
-3.044181e-05
-4.067953e-05
-5.161602e-05
-6.320277e-05
9.001466e-06
-2.347197e-05
-2.625211e-05
-3.518672e-05
-4.502269e-05
-5.568982e-05
-6.717634e-05
4.695675e-06
-2.803271e-05
-3.111282e-05
-3.993246e-05
-4.973371e-05
-6.037105e-05
-7.144473e-05
-3.60045e-08
-3.301851e-05
-3.608191e-05
-4.453402e-05
-5.246545e-05
-6.296828e-05
-7.513092e-05
-5.268686e-06
-3.844913e-05
-4.126816e-05
-4.948555e-05
-5.869031e-05
-6.90996e-05
-7.922699e-05
-1.096168e-05
-4.420535e-05
-4.691409e-05
-5.491773e-05
-6.308499e-05
-7.309461e-05
-8.370364e-05
-1.741973e-05
-5.050566e-05
-5.30869e-05
-6.094987e-05
-6.851113e-05
-7.878573e-05
-8.900816e-05
-2.485241e-05
-5.791182e-05
-6.019697e-05
-6.751224e-05
-7.447731e-05
-8.104442e-05
-9.009308e-05
-3.355474e-05
-6.643247e-05
-6.852249e-05
-7.511922e-05
-8.154906e-05
-8.954333e-05
-9.75501e-05
-4.383805e-05
-7.64764e-05
-7.828608e-05
-8.416751e-05
-8.953432e-05
-9.454909e-05
-0.000101397
-5.60541e-05
-8.860004e-05
-9.009245e-05
-9.518582e-05
-9.928315e-05
-0.0001022673
-0.0001080808
-7.086028e-05
-0.000103381
-0.0001044185
-0.0001090292
-0.0001113433
-0.0001125866
-0.0001102857
-8.898651e-05
-0.0001217381
-0.0001225299
-0.0001265201
-0.0001277727
-0.0001275902
-0.0001263854
-0.0001101285
-0.0001432407
-0.0001449988
-0.0001483536
-0.0001493586
-0.0001471531
-0.0001398942
-0.0001356561
-0.000170528
-0.0001739489
-0.0001774841
-0.0001777165
-0.0001733962
-0.0001630872
-0.0001657258
-0.0002020699
-0.0002080866
-0.000215261
-0.0002151238
-0.0002104229
-0.0001978572
-0.0002001454
-0.0002417955
-0.0002507649
-0.0002607747
-0.0002649609
-0.0002623112
-0.0002487544
-0.0002396297
-0.0002882383
-0.000304923
-0.0003259146
-0.0003367183
-0.0003372345
-0.0003250761
-0.0002842473
-0.0003422356
-0.000373718
-0.0004028041
-0.00043033
-0.0004446525
-0.0004361188
-0.0003323668
-0.0004114556
-0.0004688492
-0.0005223033
-0.0005539612
-0.0005721015
-0.0005648738
-0.000388687
-0.0005053437
-0.0005886053
-0.0006509276
-0.0006921995
-0.0007176346
-0.0007253201
-0.000463941
-0.0006127134
-0.0007162775
-0.0007872424
-0.0008296536
-0.0008751484
-0.0009584812
-0.0005520508
-0.0007242821
-0.0008406522
-0.0009252618
-0.001032669
-0.001216916
-0.001428457
-0.0006517594
-0.000831423
-0.0009695314
-0.001144143
-0.001432608
-0.001743371
-0.002026261
-0.0007595586
-0.0009398126
-0.001191805
-0.001589291
-0.002075394
-0.002437805
-0.002917875
-0.0008803228
-0.001126554
-0.001654271
-0.002372963
-0.002882294
-0.003602922
-0.006178573
-0.001067347
-0.001577997
-0.002483229
-0.003376232
-0.004356308
-0.007284903
-0.0115497
-0.001494188
-0.002402188
-0.003651171
-0.004898711
-0.007860681
-0.01266663
-0.01660643
-0.002296742
-0.003570434
-0.005076597
-0.008444954
-0.0130255
-0.01711406
-0.02002813
-0.003474324
-0.004891923
-0.00750949
-0.01307442
-0.0172912
-0.02082751
-0.02124592
-0.005049878
-0.006815931
-0.01098857
-0.01595788
-0.0205458
-0.02344155
-0.0214922
-0.006944472
-0.009697979
-0.01412863
-0.01816529
-0.02278659
-0.02354929
-0.01845351
-0.00922619
-0.01236854
-0.01610117
-0.02059238
-0.0241915
-0.02236882
-0.007956405
-0.0113331
-0.01377828
-0.01762617
-0.0225109
-0.02398018
-0.01493335
0.009051647
-0.01326137
-0.01506625
-0.01825572
-0.02303683
-0.01953912
-0.002922076
0.01969812
-0.01486911
-0.01621462
-0.01998752
-0.02280849
-0.01263527
0.003518016
0.01429359
-0.01606722
-0.0171415
-0.02102495
-0.01949498
-0.006635747
0.00497956
0.01121077
-0.01675495
-0.01751277
-0.02080807
-0.01723241
-0.002669983
0.007731667
0.01018078
-0.01753977
-0.01806656
-0.02097897
-0.01626532
-0.001030072
0.009005855
0.0099143
-0.01849914
-0.01849919
-0.02115639
-0.01617
-0.001077411
0.00904761
0.01092425
-0.01819084
-0.01779564
-0.02026768
-0.01581608
-0.001298187
0.00973827
0.0140421
-0.01712655
-0.01717081
-0.01982183
-0.01694424
-0.004080839
0.007860533
0.01244657
-0.01626553
-0.01660942
-0.01942783
-0.01863245
-0.00883808
0.004207092
0.01092475
-0.01508658
-0.01564767
-0.01837876
-0.01930037
-0.01401462
-0.00212098
0.01091025
-0.013307
-0.01449926
-0.01621139
-0.01938033
-0.01839398
-0.01172988
0.000545742
-0.01115099
-0.01368904
-0.01577673
-0.01977744
-0.02089901
-0.01748298
-0.008019151
-0.009038544
-0.01290882
-0.01581858
-0.01863412
-0.02036436
-0.0186256
-0.01063117
-0.006963896
-0.01120632
-0.01463453
-0.01715706
-0.01881764
-0.0179786
-0.01261648
-0.0051628
-0.008563573
-0.01280193
-0.01532173
-0.01789199
-0.01791655
-0.01459767
-0.003707206
-0.005986399
-0.009971261
-0.01390416
-0.01647866
-0.0168318
-0.01406878
-0.002496352
-0.004370755
-0.007090727
-0.01139756
-0.01341125
-0.01455689
-0.01473786
-0.001574303
-0.00296461
-0.004746948
-0.007475766
-0.01015439
-0.01239507
-0.01416511
-0.0009885576
-0.001804006
-0.003182016
-0.004650251
-0.006826498
-0.009677361
-0.01118485
-0.000732041
-0.001121381
-0.001954336
-0.003090169
-0.004270153
-0.006058407
-0.008351507
-0.0006292658
-0.0008386606
-0.001234371
-0.001957286
-0.002786578
-0.003658914
-0.005276783
-0.0005511129
-0.0007398133
-0.0009246798
-0.001246231
-0.001812413
-0.002456086
-0.003049611
-0.0004779592
-0.0006705362
-0.0008031965
-0.0009387288
-0.001204919
-0.001593081
-0.002037072
-0.0004110416
-0.0005842499
-0.0007096709
-0.0008044644
-0.0009040744
-0.001097089
-0.001356911
-0.0003546915
-0.0004989015
-0.0006038258
-0.0006907899
-0.0007562156
-0.0008262889
-0.0009520476
-0.0003141067
-0.0004176797
-0.0004984373
-0.0005716114
-0.0006299512
-0.0006811402
-0.0007243503
-0.0002765659
-0.0003556489
-0.0004084341
-0.0004624822
-0.0005076064
-0.0005432414
-0.0005670819
-0.0002401404
-0.0003052639
-0.0003389151
-0.0003707737
-0.0004031479
-0.0004272723
-0.0004361277
-0.0002055037
-0.0002606352
-0.0002834555
-0.0003089974
-0.0003259722
-0.0003365106
-0.0003370135
-0.0001742063
-0.0002209705
-0.0002365129
-0.0002530664
-0.0002634252
-0.0002698942
-0.000266994
-0.0001459958
-0.000187997
-0.0001987726
-0.0002110557
-0.0002178597
-0.0002208895
-0.0002184969
-0.0001214482
-0.0001603162
-0.0001679525
-0.000176551
-0.000182524
-0.0001849823
-0.0001831759
-9.981594e-05
-0.0001359035
-0.0001415304
-0.0001496787
-0.0001548229
-0.0001583532
-0.0001582941
-8.122585e-05
-0.0001168241
-0.000120998
-0.0001281732
-0.0001334212
-0.0001380462
-0.0001405426
-6.590581e-05
-0.0001003486
-0.0001043896
-0.0001110944
-0.0001171674
-0.0001217048
-0.0001235059
-5.272772e-05
-8.692067e-05
-9.035773e-05
-9.749042e-05
-0.0001042419
-0.0001094636
-0.0001171853
-4.146779e-05
-7.617664e-05
-7.861515e-05
-8.630115e-05
-9.329879e-05
-0.0001000496
-0.0001083113
-3.241417e-05
-6.628429e-05
-6.907808e-05
-7.710286e-05
-8.439961e-05
-9.287869e-05
-0.0001024739
-2.482235e-05
-5.764139e-05
-6.111934e-05
-6.881904e-05
-7.67323e-05
-8.468344e-05
-9.452732e-05
-1.75482e-05
-5.050668e-05
-5.370528e-05
-6.181687e-05
-7.025223e-05
-8.050013e-05
-9.057129e-05
-1.119989e-05
-4.467092e-05
-4.744323e-05
-5.538121e-05
-6.419687e-05
-7.445002e-05
-8.430537e-05
-5.892152e-06
-3.865022e-05
-4.162677e-05
-5.018028e-05
-5.917247e-05
-6.894671e-05
-7.935584e-05
-1.117837e-06
-3.352912e-05
-3.664026e-05
-4.497207e-05
-5.325688e-05
-6.312613e-05
-7.464472e-05
3.461957e-06
-2.905695e-05
-3.189785e-05
-4.012561e-05
-4.946482e-05
-5.967286e-05
-7.022833e-05
7.983343e-06
-2.479965e-05
-2.748842e-05
-3.544492e-05
-4.477736e-05
-5.477097e-05
-6.580246e-05
1.183218e-05
-2.059235e-05
-2.307576e-05
-3.103311e-05
-4.056997e-05
-5.056775e-05
-6.181441e-05
1.578529e-05
-1.641671e-05
-1.860049e-05
-2.687424e-05
-3.64592e-05
-4.680043e-05
-5.802094e-05
2.005201e-05
-1.211537e-05
-1.426769e-05
-2.272417e-05
-3.234466e-05
-4.320795e-05
-5.433173e-05
2.460684e-05
-7.307713e-06
-9.957489e-06
-1.92607e-05
-2.900962e-05
-3.961014e-05
-5.066824e-05
2.95537e-05
-2.374441e-06
-5.493023e-06
-1.493982e-05
-2.48866e-05
-3.590179e-05
-4.727854e-05
3.53001e-05
2.78924e-06
-7.828468e-07
-1.058653e-05
-2.103055e-05
-3.255504e-05
-4.421109e-05
4.194969e-05
8.63523e-06
4.479915e-06
-6.125942e-06
-1.727632e-05
-2.949385e-05
-4.150064e-05
4.977101e-05
1.570347e-05
1.02221e-05
-1.707096e-06
-1.402974e-05
-2.6996e-05
-3.931897e-05
5.950413e-05
2.397717e-05
1.621808e-05
2.190932e-06
-1.150014e-05
-2.520117e-05
-3.792656e-05
7.232726e-05
3.36796e-05
2.206122e-05
5.35703e-06
-1.009931e-05
-2.471949e-05
-3.77411e-05
8.960227e-05
4.493794e-05
2.669146e-05
6.7774e-06
-1.080299e-05
-2.622175e-05
-3.843769e-05
0.0001132178
5.620183e-05
2.763517e-05
3.980806e-06
-1.511525e-05
-2.918318e-05
-4.126454e-05
0.0001435588
6.090244e-05
2.116249e-05
-5.193597e-06
-2.243295e-05
-3.602325e-05
-4.678649e-05
0.0001606027
4.649594e-05
-1.902743e-06
-2.219384e-05
-3.695389e-05
-4.707687e-05
-5.420496e-05
-3.104199e-06
-4.198552e-05
-4.584581e-05
-5.291439e-05
-5.821322e-05
-6.106664e-05
-6.327158e-05
-0.001588749
-0.0004216658
-0.0001231676
-9.107949e-05
-8.195806e-05
-7.605402e-05
-7.207206e-05
-0.01462041
-0.003484465
-0.0003636395
-0.0001226124
-0.0001078007
-9.183792e-05
-8.108976e-05
-7.502615e-05
-6.221055e-05
-4.693327e-05
-3.215701e-05
-1.651026e-05
-1.391612e-05
-0.0003089143
-7.443039e-05
-6.276233e-05
-4.843563e-05
-3.436316e-05
-1.872501e-05
-1.849536e-05
-0.0003356529
-7.06391e-05
-6.074925e-05
-4.574566e-05
-3.234395e-05
-2.05042e-05
-2.351264e-05
-0.0003708956
-6.596859e-05
-5.905458e-05
-4.802604e-05
-4.736019e-05
-2.644998e-05
-3.030791e-05
-0.0004119214
-6.104805e-05
-5.764711e-05
-4.882365e-05
-3.486742e-05
-3.02903e-05
-3.888675e-05
-0.0004696529
-5.686678e-05
-5.625954e-05
-4.972973e-05
-3.611771e-05
-3.591495e-05
-4.894936e-05
-0.0005330521
-5.351262e-05
-5.553452e-05
-5.098525e-05
-4.020602e-05
-4.41076e-05
-6.024547e-05
-0.0006087602
-5.164142e-05
-5.54838e-05
-5.337819e-05
-4.394287e-05
-4.883658e-05
-7.209485e-05
-0.0006924993
-5.189675e-05
-5.689147e-05
-5.593006e-05
-4.785482e-05
-5.489624e-05
-8.431196e-05
-0.0007802784
-5.299542e-05
-5.951801e-05
-5.90451e-05
-5.228652e-05
-6.210125e-05
-9.695922e-05
-0.0008738816
-5.499316e-05
-6.188456e-05
-6.299194e-05
-5.715568e-05
-6.964175e-05
-0.0001096778
-0.0009707965
-5.725614e-05
-6.476304e-05
-6.688742e-05
-6.202868e-05
-7.697247e-05
-0.0001223803
-0.001070388
-5.999976e-05
-6.813948e-05
-7.104351e-05
-6.808589e-05
-8.509848e-05
-0.0001342237
-0.001171608
-6.337204e-05
-7.197714e-05
-7.580528e-05
-7.463994e-05
-9.318166e-05
-0.0001488812
-0.001262466
-6.72452e-05
-7.619177e-05
-8.086465e-05
-8.078117e-05
-0.0001013276
-0.0001626901
-0.00134612
-7.116275e-05
-8.060066e-05
-8.599725e-05
-8.654671e-05
-0.0001094535
-0.0001764945
-0.001449916
-7.498843e-05
-8.51317e-05
-9.130774e-05
-9.225674e-05
-0.0001227345
-0.0001905255
-0.001548971
-7.904699e-05
-8.968539e-05
-9.64037e-05
-9.837933e-05
-0.0001328421
-0.000204447
-0.001647594
-8.337968e-05
-9.440518e-05
-0.0001016341
-0.0001052443
-0.0001346099
-0.0002184625
-0.001744534
-8.756254e-05
-9.903879e-05
-0.0001074674
-0.0001119658
-0.0001431271
-0.0002326572
-0.001845124
-9.163245e-05
-0.000103465
-0.0001132984
-0.0001175474
-0.0001518483
-0.0002472156
-0.001947284
-9.560732e-05
-0.0001079171
-0.0001183974
-0.0001230573
-0.0001606788
-0.0002623623
-0.002051761
-9.937588e-05
-0.0001115986
-0.0001225739
-0.0001288013
-0.0001718903
-0.0002784664
-0.002161725
-0.0001021477
-0.0001140514
-0.0001255337
-0.0001459983
-0.0001653229
-0.0002928705
-0.002273057
-0.0001046364
-0.0001156603
-0.0001261653
-0.000172382
-0.0001801431
-0.0003046627
-0.002380947
-0.00010754
-0.0001172962
-0.0001271407
-0.0001330455
-0.0001816355
-0.0003183356
-0.002492932
-0.0001120988
-0.0001173182
-0.0001255483
-0.0001268849
-0.0001826511
-0.0003380914
-0.002606358
-0.0001102723
-0.000113945
-0.000120262
-0.0001217803
-0.0001787773
-0.0003303478
-0.002717624
-0.0001232757
-0.0001326872
-0.0001588806
-0.0001282721
-0.0001699267
-0.0003370087
-0.00282143
-0.0001365444
-0.0001049354
-0.0001100493
-0.0001093701
-0.0001550991
-0.0003412288
-0.002929873
-0.0001397826
-0.0001008748
-0.0001046908
-9.033137e-05
-0.0001300708
-0.0002597391
-0.002980852
-0.0001759733
-0.0001321132
-9.961255e-05
-6.400865e-05
-9.004563e-05
-0.0002758096
-0.002977686
-0.0002187304
-0.0001490796
-9.764226e-05
-3.753589e-05
-3.375003e-05
-0.0001879754
-0.002996479
-0.0002920564
-0.0001872761
-0.0001141787
-4.011064e-05
-4.262969e-06
-9.861141e-05
-0.002532527
-0.0004002653
-0.000286443
-0.0002052963
-7.647299e-05
-1.674044e-05
8.606673e-06
-0.002234142
-0.0005447983
-0.0004346956
-0.0003009469
-0.000159517
3.949003e-05
8.829636e-05
2.63547e-05
-0.000709262
-0.0006130493
-0.0004547751
-0.0005987695
-5.824344e-05
-0.0003279083
-0.003477553
-0.001031618
-0.0009668054
-0.001113687
-0.0003876746
6.248886e-05
5.669875e-05
-0.004593654
-0.001625601
-0.001593125
-0.001045751
0.0002429789
0.0009025774
-0.0008377614
-0.01322376
-0.002341658
-0.002110494
-0.001690114
-0.002022956
0.004404644
-0.001019623
-0.01850516
-0.004880205
-0.006152226
-0.007047161
0.001707627
0.009265022
-0.001708305
-0.007390933
-0.01002622
-0.0132439
-0.01155791
0.01922691
0.01198872
0.002335596
0.00249158
-0.01455516
-0.01603188
0.007491192
0.021376
0.008013612
0.003277918
0.01055708
-0.01436058
-0.008452023
0.02934741
0.008157085
0.01022682
0.01368501
0.01211296
-0.01182923
0.009851354
0.02241093
0.004501299
0.01134984
0.02320542
-0.00174014
-0.004518843
0.02563239
0.02328152
0.0004937826
0.0199401
0.02358515
0.008788127
0.002234066
0.03161285
0.02720758
0.01369226
0.0268083
0.02664513
0.004100076
0.01566994
0.04999888
0.04038166
0.02090652
0.02188253
0.02984441
-0.01757192
0.03654115
0.06966612
0.03867523
0.02179004
0.01511541
0.01386541
-0.01984883
0.05703048
0.07835469
0.02587333
0.01478499
0.008098378
0.003077856
-0.008265949
0.05176928
0.06205576
0.02331013
0.01293058
-0.0006252535
-0.003222396
0.007570708
0.04682041
0.07318017
0.0318391
0.004346846
-0.002568557
-0.00295286
0.009128334
0.04331775
0.07547997
0.03344985
0.01158223
0.009070012
0.003035308
0.03204011
0.0358767
0.06613395
0.04050075
0.02266225
0.009392844
0.03729766
0.06505314
0.0325113
0.05646678
0.04341863
0.02800736
0.05974632
0.08016852
0.02872658
0.0383145
0.06406929
0.04279117
0.03440544
0.04117049
0.02502842
0.04527058
0.07676376
0.038003
0.02102864
0.05080963
0.05067705
0.04121263
0.07980155
0.04831226
0.02232409
0.03857593
0.04394646
0.03299107
0.06796002
0.05331051
0.0358221
0.02818906
0.04799761
0.02844721
0.02978785
0.05012931
0.03841625
0.03802681
0.0188403
0.02357106
0.05521946
0.02824299
0.05878806
0.0233074
0.03087927
0.01642937
-0.005433182
-0.01741457
0.02240312
0.061598
0.02910496
0.02851074
0.01561307
0.008544932
0.003193904
0.02366703
0.06124659
0.03484458
0.02038625
0.009488845
0.02083421
0.01146648
0.01741091
0.06161787
0.03822126
0.01794121
0.01219854
0.02334179
0.0006847072
0.01196089
0.05102409
0.03901103
0.02152977
0.02051381
0.02514445
-0.00325487
0.003120994
0.03494205
0.03496096
0.02360763
0.02178492
0.02542184
-0.01034491
-0.00513452
0.02144745
0.03243865
0.02397483
0.01945159
0.02427115
-0.01737338
-0.01016407
0.005429279
0.02896253
0.03053602
0.02065116
0.02291365
-0.002418814
-0.01180612
-0.006956504
0.01623017
0.0378608
0.02430889
0.01979864
0.01389275
-0.01026455
-0.01102799
-0.003820711
0.02460633
0.03587799
0.01635475
0.01488163
-0.007198458
-0.0090335
-0.006903342
0.003167018
0.0280361
0.02094151
0.01131471
-0.004018374
-0.005719256
-0.005053307
-0.003239803
0.009896342
0.01327092
0.005978066
-0.002370502
-0.002980777
-0.00317925
-0.001960224
0.002598732
0.004443706
8.314747e-05
-0.001591639
-0.001839241
-0.001552401
-0.0009051393
-0.0001929986
0.0004691108
-0.004305923
-0.001066684
-0.001181079
-0.0009980676
-0.0006108285
9.572389e-05
0.0002830568
-0.003853028
-0.0007696859
-0.0008002994
-0.0006250353
-0.000416578
-0.0001304754
5.713923e-05
-0.004284244
-0.0005687026
-0.0005863265
-0.0004437289
-0.0002628454
-0.0001686083
-0.0002148143
-0.003459401
-0.0004253051
-0.0004398819
-0.0003192547
-0.000202896
-0.0001685701
-0.0003095307
-0.00380798
-0.0003209849
-0.0003313637
-0.0002491916
-0.0001621526
-0.0001568648
-0.0003391883
-0.00353162
-0.000252123
-0.0002599668
-0.000188404
-0.0001464679
-0.0001712594
-0.0003724883
-0.003251391
-0.0002084929
-0.0002122553
-0.0001652007
-0.000148802
-0.0001903696
-0.0004018849
-0.003522833
-0.0001716368
-0.0001993855
-0.0001593024
-0.0001536815
-0.0002030757
-0.0004163845
-0.003325889
-0.0001603626
-0.0001787529
-0.0001519897
-0.0001554177
-0.0002067977
-0.0004074287
-0.003208343
-0.0001420392
-0.000155219
-0.0001446818
-0.000154404
-0.0002056818
-0.0003832596
-0.003016742
-0.0001268314
-0.0001323713
-0.0001418643
-0.000166774
-0.0002036539
-0.0003661928
-0.002840938
-0.0001225421
-0.0001306507
-0.0001402691
-0.0001644468
-0.0001996257
-0.0003500418
-0.002674189
-0.0001162282
-0.0001269555
-0.0001370353
-0.0001604846
-0.0001932679
-0.0003315216
-0.002513704
-0.0001112521
-0.0001225567
-0.0001329835
-0.0001530048
-0.0001849679
-0.0003110219
-0.002364763
-0.000106188
-0.0001177531
-0.0001275203
-0.0001467949
-0.0001775984
-0.0002911438
-0.002220901
-0.0001010369
-0.0001124212
-0.0001219977
-0.0001399339
-0.000165792
-0.0002740296
-0.002089909
-9.575359e-05
-0.0001072537
-0.0001160186
-0.0001312631
-0.0001585382
-0.000256128
-0.001962985
-9.093892e-05
-0.0001019885
-0.0001093942
-0.0001235624
-0.0001483184
-0.0002388129
-0.001844405
-8.596078e-05
-9.636763e-05
-0.0001032865
-0.0001157904
-0.0001386966
-0.0002226715
-0.001730915
-8.129397e-05
-9.13288e-05
-9.734167e-05
-0.0001086742
-0.000129593
-0.0002077317
-0.001625039
-7.707351e-05
-8.643385e-05
-9.155866e-05
-0.0001021493
-0.0001209775
-0.0001932174
-0.001525998
-7.288275e-05
-8.163212e-05
-8.628423e-05
-9.533856e-05
-0.0001089696
-0.0001794135
-0.001430708
-6.868226e-05
-7.705275e-05
-8.090426e-05
-8.987934e-05
-0.0001042249
-0.0001657921
-0.00133881
-6.479508e-05
-7.286903e-05
-7.622552e-05
-8.455281e-05
-9.633601e-05
-0.0001527353
-0.001241611
-6.130995e-05
-6.89746e-05
-7.168219e-05
-7.880525e-05
-8.873302e-05
-0.0001401084
-0.00120327
-5.797062e-05
-6.508728e-05
-6.697544e-05
-7.385527e-05
-8.126667e-05
-0.0001276817
-0.001099565
-5.484969e-05
-6.15826e-05
-6.275598e-05
-6.982874e-05
-7.408886e-05
-0.0001156976
-0.001010913
-5.209609e-05
-5.845293e-05
-5.921304e-05
-6.596595e-05
-6.681338e-05
-0.0001046693
-0.0009248032
-4.989999e-05
-5.590991e-05
-5.549956e-05
-6.058502e-05
-6.018914e-05
-9.360801e-05
-0.000841674
-4.857344e-05
-5.337829e-05
-5.205418e-05
-5.701224e-05
-5.362645e-05
-8.259426e-05
-0.000761048
-4.749607e-05
-5.173593e-05
-4.957699e-05
-5.369312e-05
-4.729132e-05
-7.172969e-05
-0.000684154
-4.785679e-05
-5.107477e-05
-4.73943e-05
-5.015883e-05
-4.141752e-05
-6.112945e-05
-0.0006120893
-4.986029e-05
-5.122298e-05
-4.569548e-05
-4.751148e-05
-3.624927e-05
-5.088253e-05
-0.0005458376
-5.309109e-05
-5.230833e-05
-4.490647e-05
-4.512289e-05
-3.1161e-05
-4.147841e-05
-0.0004855979
-5.768749e-05
-5.413196e-05
-4.465139e-05
-4.205824e-05
-2.653681e-05
-3.314166e-05
-0.0004351304
-6.294599e-05
-5.629095e-05
-4.463333e-05
-3.993425e-05
-2.275654e-05
-2.626829e-05
-0.0003963368
-6.783366e-05
-5.865924e-05
-4.538547e-05
-3.846722e-05
-2.001415e-05
-2.132863e-05
-0.0003733771
-7.275694e-05
-6.110999e-05
-4.748494e-05
-3.597835e-05
-1.841238e-05
-1.871773e-05
-0.0004214319
-0.006322238
1.028993e-10
9.099395e-19
1.330784e-24
3.098475e-28
2.449256e-33
-2.479373e-38
-1.53797e-43
-5.762512e-49
-1.522703e-54
-2.773646e-60
-3.695682e-66
-3.835295e-72
-3.096552e-78
-1.225142e-84
1.715178e-89
2.415052e-95
2.205546e-101
-0.004686821
-5.656678e-10
-1.199651e-16
-1.784082e-22
-3.553776e-28
-1.254499e-33
-4.856272e-39
-2.090106e-44
-7.012033e-50
-2.223488e-55
-4.714315e-61
-7.318374e-67
-8.830655e-73
-8.397563e-79
-5.295771e-85
8.770496e-91
1.120814e-96
9.506097e-103
-0.00541699
-1.160961e-08
-2.083834e-15
-1.198998e-21
-1.168006e-27
-2.891149e-33
-1.023635e-38
-4.014708e-44
-1.332983e-49
-3.603518e-55
-7.062028e-61
-1.059129e-66
-1.216705e-72
-1.059878e-78
-7.592125e-85
4.520571e-91
4.115824e-97
2.918617e-103
-0.0038575
-2.421209e-08
-6.51495e-15
-3.416641e-21
-2.6307e-27
-5.815109e-33
-1.990804e-38
-7.550463e-44
-2.90461e-49
-7.440519e-55
-1.304028e-60
-1.731725e-66
-1.797371e-72
-1.480079e-78
-1.099319e-84
-2.103059e-91
-1.606508e-97
-1.129363e-103
-0.005309681
-3.647921e-08
-1.35046e-14
-7.676418e-21
-5.57054e-27
-1.15096e-32
-3.870819e-38
-1.452601e-43
-5.590805e-49
-1.356802e-54
-2.29813e-60
-2.939173e-66
-2.928438e-72
-2.301538e-78
5.527479e-85
-1.839818e-91
-1.481642e-97
-1.074042e-103
-0.008331636
-5.400482e-08
-2.662146e-14
-1.701304e-20
-1.226293e-26
-2.334581e-32
-7.688803e-38
-2.866609e-43
-1.089147e-48
-2.588388e-54
-4.273409e-60
-5.340133e-66
-5.222509e-72
-4.005136e-78
-2.279664e-84
-1.795287e-90
-1.36884e-96
-8.142577e-103
-0.009227719
-1.383274e-07
-6.398814e-14
-3.910049e-20
-2.764972e-26
-4.80743e-32
-1.568965e-37
-5.842987e-43
-2.204338e-48
-5.158927e-54
-8.471451e-60
-1.066665e-65
-1.032339e-71
-7.736984e-78
-4.54763e-84
-3.442957e-90
-2.449871e-96
-1.395579e-102
-0.01062954
-2.959281e-07
-1.726644e-13
-9.403081e-20
-6.383798e-26
-1.014902e-31
-3.261674e-37
-1.22647e-42
-4.613729e-48
-1.085476e-53
-1.800228e-59
-2.260126e-65
-2.172729e-71
-1.611434e-77
-9.43149e-84
-7.204786e-90
-5.355254e-96
-3.098095e-102
-0.01150129
-2.95679e-07
-2.776001e-13
-2.168411e-19
-1.514756e-25
-2.208162e-31
-6.930201e-37
-2.641008e-42
-1.008686e-47
-2.400123e-53
-4.016881e-59
-5.101851e-65
-4.961074e-71
-3.716923e-77
-2.201436e-83
-1.732754e-89
-1.35636e-95
-7.937745e-102
-0.01278696
-3.609782e-07
-5.434539e-13
-5.9137e-19
-4.611357e-25
-5.622205e-31
-1.565559e-36
-5.947584e-42
-2.308632e-47
-5.539036e-53
-9.475458e-59
-1.246009e-64
-1.244085e-70
-9.462122e-77
-5.725937e-83
-4.769515e-89
-3.993687e-95
-2.407321e-101
-0.01436226
-4.561986e-07
-1.112748e-12
-1.909188e-18
-1.802821e-24
-1.879086e-30
-4.091616e-36
-1.48375e-41
-5.582966e-47
-1.364429e-52
-2.424945e-58
-3.30342e-64
-3.357573e-70
-2.651509e-76
-1.680815e-82
-1.517425e-88
-1.356704e-94
-8.362239e-101
-0.01585865
-4.772611e-07
-1.255345e-12
-2.725715e-18
-3.167156e-24
-3.956859e-30
-9.301939e-36
-3.141577e-41
-1.294335e-46
-3.500514e-52
-6.70208e-58
-9.500851e-64
-1.020847e-69
-8.382547e-76
-5.548335e-82
-5.538501e-88
-5.295134e-94
-3.382844e-100
-0.01748554
-5.088337e-07
-1.343948e-12
-3.285083e-18
-4.764048e-24
-7.563653e-30
-2.270313e-35
-6.423337e-41
-3.764824e-46
-1.051232e-51
-2.108657e-57
-3.187288e-63
-3.545078e-69
-3.05627e-75
-2.172379e-81
-2.331108e-87
-2.346427e-93
-1.564766e-99
-0.01939788
-4.328527e-07
-1.621785e-12
-4.716374e-18
-8.127108e-24
-1.840556e-29
-8.096097e-35
-4.32935e-40
-1.895381e-45
-5.282697e-51
-1.05793e-56
-1.608211e-62
-1.929556e-68
-1.783672e-74
-1.313498e-80
-1.736722e-86
-1.725617e-92
-1.166095e-98
-0.02266744
-4.945365e-07
-1.483387e-12
-4.601911e-18
-9.67399e-24
-3.003928e-29
-1.59666e-34
-9.240467e-40
-4.565205e-45
-1.528798e-50
-3.648831e-56
-6.3327e-62
-8.240913e-68
-8.399489e-74
-7.435309e-80
-9.341422e-86
-9.350461e-92
-7.045834e-98
-0.0242789
7.259886e-08
-2.038156e-12
-6.562071e-18
-1.490375e-23
-3.967665e-29
-1.17284e-34
-5.979935e-40
-3.538569e-45
-1.196546e-50
-2.995885e-56
-5.624318e-62
-7.958279e-68
-9.532444e-74
-1.047301e-79
-1.746212e-85
-1.94046e-91
-1.678911e-97
-0.02662359
-1.981249e-06
-1.617621e-12
-8.415443e-18
-2.653649e-23
-1.212942e-28
-6.13133e-34
-2.682255e-39
-1.004187e-44
-2.895928e-50
-6.59583e-56
-1.176571e-61
-1.678415e-67
-2.146627e-73
-2.763882e-79
-5.279371e-85
-6.577094e-91
-6.788054e-97
-0.02913951
-2.520952e-06
-1.404333e-11
-2.655279e-17
-4.155771e-23
-1.831501e-28
-1.371732e-33
-6.747031e-39
-3.310441e-44
-9.46265e-50
-2.101609e-55
-3.66263e-61
-5.033343e-67
-6.259597e-73
-7.678867e-79
-1.644293e-84
-2.111027e-90
-2.314492e-96
-0.03182534
-3.260262e-06
-2.121798e-11
-1.126525e-16
4.442268e-23
-3.158507e-28
-2.613597e-33
-2.489155e-38
-1.444573e-43
-4.420058e-49
-9.247256e-55
-1.527486e-60
-2.03884e-66
-2.500145e-72
-1.336833e-78
-3.934154e-84
-8.635189e-90
-1.040181e-95
-0.0346396
-4.182182e-06
-3.171648e-11
-1.910569e-16
-7.368689e-22
6.966156e-28
-4.346284e-33
-4.819455e-38
-3.550267e-43
-1.566984e-48
-4.195661e-54
-7.265795e-60
-9.646556e-66
-1.176852e-71
-2.291025e-78
-1.436495e-82
-6.642209e-89
-8.247995e-95
-0.037638
-5.272472e-06
-4.660963e-11
-3.226106e-16
-1.408618e-21
-4.397768e-27
-6.249065e-33
-5.261846e-38
-5.116724e-43
-2.797302e-48
-1.035261e-53
-2.437863e-59
-3.893637e-65
-5.461205e-71
-1.358219e-76
-1.860262e-82
-3.098934e-88
-3.51404e-94
-0.04084431
-6.574123e-06
-6.77215e-11
-5.385214e-16
-2.641241e-21
-9.182256e-27
-4.281886e-32
3.155418e-38
-7.378555e-43
-6.396633e-48
-3.054374e-53
-9.140444e-59
-1.78332e-64
-2.789841e-70
-5.455914e-76
-1.062982e-81
-1.565273e-87
-1.773008e-93
-0.04428764
-8.187186e-06
-9.77872e-11
-8.953938e-16
-5.014902e-21
-1.980641e-26
-1.0465e-31
-7.329954e-37
-7.385037e-43
-1.380087e-47
-9.571298e-53
-3.464272e-58
-9.358403e-64
-1.778506e-69
-3.638197e-75
-7.139463e-81
-1.187682e-86
-1.461244e-92
-0.04797393
-1.019196e-05
-1.41414e-10
-1.489335e-15
-9.535118e-21
-4.276618e-26
-2.519457e-31
-1.940516e-36
-1.227578e-41
-1.414222e-47
-1.736969e-52
-9.848207e-58
-3.443881e-63
-8.759596e-69
-4.662968e-75
-3.850992e-80
-7.63815e-86
-1.006337e-91
-0.05189335
-1.269281e-05
-2.048443e-10
-2.471322e-15
-1.8004e-20
-9.036632e-26
-5.986574e-31
-5.069978e-36
-3.447645e-41
-1.882705e-46
-1.416238e-52
-2.024279e-57
-1.239517e-62
-4.980735e-68
5.805738e-73
-2.179072e-79
-5.330183e-85
-5.996816e-91
-0.05606192
-1.570401e-05
-2.927958e-10
-4.061879e-15
-3.363699e-20
-1.897424e-25
-1.400021e-30
-1.290518e-35
-9.447276e-41
-5.555226e-46
-2.725987e-51
1.408054e-57
-3.031609e-62
-2.515465e-67
-5.988965e-73
-3.067353e-78
-3.577351e-84
-3.903639e-90
-0.0605246
-1.951917e-05
-4.22896e-10
-6.742029e-15
-6.350762e-20
-3.977009e-25
-3.268801e-30
-3.314761e-35
-2.617393e-40
-1.668915e-45
-8.934383e-51
-4.188915e-56
1.553945e-63
-5.170184e-67
-1.574547e-72
-6.041326e-78
-1.338696e-83
-1.772574e-89
-0.06528079
-2.423443e-05
-6.093779e-10
-1.118627e-14
-1.188673e-19
-8.359955e-25
-7.644903e-30
-8.638303e-35
-7.231247e-40
-5.084065e-45
-2.957269e-50
-1.505772e-55
-7.778815e-61
4.920803e-66
-7.588198e-72
-2.849963e-77
-8.439205e-83
5.793795e-89
-0.07027645
-3.002754e-05
-8.748691e-10
-1.862736e-14
-2.283822e-19
-1.733724e-24
-1.755426e-29
-2.195453e-34
-2.049462e-39
-1.589032e-44
-1.010316e-49
-5.563159e-55
-3.095019e-60
-6.142202e-65
2.028589e-71
-9.200004e-76
-1.079948e-81
3.293398e-87
-0.07561611
-3.724773e-05
-1.258412e-09
-3.147142e-14
-4.385678e-19
-3.423347e-24
-4.181896e-29
-5.740059e-34
-5.693365e-39
-4.646465e-44
-3.207356e-49
-2.044864e-54
-1.301748e-59
-4.875013e-64
-4.35279e-70
-7.48001e-76
-2.68079e-81
9.453007e-86
-0.0813059
-4.573178e-05
-1.742258e-09
-4.990043e-14
-1.371525e-18
-9.984294e-24
-1.294628e-28
-1.556118e-33
-8.876831e-39
-1.433433e-43
-1.617318e-48
-8.311052e-54
-4.057383e-59
-2.688636e-64
-2.128879e-69
-1.076111e-74
-2.684098e-80
-1.800217e-84
-0.0872157
-5.532017e-05
-2.211335e-09
-5.934807e-14
-1.040479e-18
-1.214033e-23
-1.521661e-28
-2.551355e-33
-2.262831e-38
-3.91567e-43
-3.977816e-48
-2.947845e-53
-3.689769e-58
-8.034262e-63
-2.873984e-68
-9.799306e-74
1.941691e-79
-1.896277e-83
-0.09386702
-6.377814e-05
-2.646391e-09
-6.12494e-14
-1.267728e-18
-2.225219e-23
-3.837821e-28
-5.639949e-33
-7.670794e-38
-6.636263e-43
-6.466083e-48
-6.431993e-53
-7.883213e-58
-3.978604e-62
-9.631589e-68
-4.179217e-73
1.045401e-77
-7.443624e-85
-0.09980207
-7.671169e-05
-3.708919e-09
-1.121978e-13
-1.741603e-18
-2.529348e-23
-4.330371e-28
-7.284085e-33
-1.273501e-37
-9.452902e-43
-1.712198e-47
-1.804041e-52
3.169358e-57
-4.496546e-62
-2.830369e-67
1.03612e-72
-3.932937e-76
-1.850216e-84
-0.1113377