/*--------------------------------*- C++ -*----------------------------------*\
| =========                 |                                                 |
| \\      /  F ield         | OpenFOAM: The Open Source CFD Toolbox           |
|  \\    /   O peration     | Version:  2206                                  |
|   \\  /    A nd           | Website:  www.openfoam.com                      |
|    \\/     M anipulation  |                                                 |
\*---------------------------------------------------------------------------*/
FoamFile
{
    version     2.0;
    format      ascii;
    arch        "LSB;label=32;scalar=64";
    class       volVectorField;
    location    "2";
    object      ddt0(U.a);
}
// * * * * * * * * * * * * * * * * * * * * * * * * * * * * * * * * * * * * * //

dimensions      [0 1 -2 0 0 0 0];

internalField   nonuniform List<vector> 
13078
(
(3.031835e-05 -0.0001652708 4.032745e-27)
(5.357004e-06 -5.33836e-05 -4.076469e-31)
(7.257857e-07 -1.748598e-05 -8.612762e-30)
(1.126821e-07 -6.725655e-06 0)
(-1.361163e-08 -3.768724e-06 2.013901e-29)
(-7.356991e-08 -1.893356e-06 2.398219e-29)
(-1.082065e-07 -7.457434e-07 2.797974e-29)
(-5.973789e-05 -4.770625e-05 0)
(-2.696877e-05 -3.132848e-05 -3.986528e-33)
(-7.453032e-06 -1.141968e-05 0)
(-2.397355e-06 -5.556533e-06 0)
(-1.349522e-06 -3.350786e-06 4.558385e-32)
(-8.537414e-07 -1.735052e-06 2.461625e-32)
(-5.902521e-07 -6.746327e-07 5.278389e-32)
(-1.418904e-05 -6.497973e-06 -1.453347e-29)
(-1.149932e-05 -8.47638e-06 1.176639e-29)
(-6.049148e-06 -5.64018e-06 -8.918179e-30)
(-3.496385e-06 -4.034434e-06 -3.115754e-29)
(-2.165801e-06 -2.501422e-06 -1.971234e-29)
(-1.419369e-06 -1.28427e-06 0)
(-9.777974e-07 -4.322488e-07 1.569195e-34)
(-3.54448e-06 -1.059658e-06 -1.538566e-29)
(-4.910893e-06 -2.200106e-06 3.708957e-29)
(-4.481972e-06 -2.897027e-06 3.531475e-29)
(-3.364539e-06 -2.390067e-06 1.688523e-29)
(-2.40126e-06 -1.528919e-06 -5.967656e-31)
(-1.705137e-06 -7.126118e-07 0)
(-1.228077e-06 -1.015434e-07 -3.045727e-31)
(-1.690752e-06 -3.74744e-07 5.351761e-32)
(-3.096925e-06 -9.465079e-07 2.794083e-29)
(-3.323607e-06 -1.288405e-06 5.477103e-29)
(-2.923485e-06 -1.119806e-06 5.526805e-29)
(-2.346784e-06 -6.737314e-07 -4.576404e-30)
(-1.801805e-06 -1.640846e-07 1.455359e-33)
(-1.368796e-06 2.372018e-07 -2.611037e-29)
(-1.126429e-06 -9.089038e-08 0)
(-2.239335e-06 -2.64644e-07 -4.102811e-31)
(-2.62817e-06 -3.838555e-07 6.891588e-31)
(-2.544138e-06 -2.777686e-07 3.548009e-29)
(-2.218963e-06 -1.320213e-08 -2.454868e-30)
(-1.823525e-06 2.891429e-07 2.293191e-29)
(-1.454953e-06 5.365656e-07 5.473716e-29)
(-1.00342e-06 3.275454e-08 0)
(-1.906747e-06 8.391321e-08 4.506035e-29)
(-2.290312e-06 1.154699e-07 5.554363e-29)
(-2.337665e-06 2.405748e-07 1.50144e-29)
(-2.145293e-06 4.34039e-07 4.121949e-29)
(-1.849402e-06 6.378532e-07 -2.929663e-30)
(-1.537418e-06 7.824022e-07 0)
(-1.039373e-06 9.018763e-08 -8.674564e-29)
(-1.853893e-06 2.574888e-07 5.3864e-29)
(-2.205445e-06 3.790161e-07 5.346424e-29)
(-2.301416e-06 5.391308e-07 0)
(-2.167605e-06 7.150998e-07 1.044914e-28)
(-1.923318e-06 8.797426e-07 -2.938862e-30)
(-1.644851e-06 9.82796e-07 -3.434925e-30)
(-1.143405e-06 1.159207e-07 -9.195827e-33)
(-1.958462e-06 3.423405e-07 -1.253439e-28)
(-2.296953e-06 5.161477e-07 -6.356299e-29)
(-2.406892e-06 7.085349e-07 -1.913272e-30)
(-2.290719e-06 8.916976e-07 2.411996e-28)
(-2.060554e-06 1.047737e-06 -2.948398e-30)
(-1.787886e-06 1.1398e-06 0)
(-1.282776e-06 1.2779e-07 1.150025e-28)
(-2.155787e-06 3.83285e-07 -1.429913e-28)
(-2.504947e-06 5.894133e-07 -7.108906e-29)
(-2.620695e-06 8.093577e-07 1.417497e-28)
(-2.501133e-06 1.010054e-06 6.81857e-32)
(-2.260064e-06 1.176727e-06 0)
(-1.969268e-06 1.274614e-06 0)
(-1.443476e-06 1.335543e-07 0)
(-2.413258e-06 4.056391e-07 0)
(-2.791113e-06 6.342532e-07 -1.598379e-28)
(-2.914545e-06 8.797728e-07 1.597912e-28)
(-2.779457e-06 1.10398e-06 -7.177445e-32)
(-2.511625e-06 1.290972e-06 0)
(-2.185875e-06 1.405244e-06 0)
(-1.619675e-06 1.375071e-07 0)
(-2.711443e-06 4.23152e-07 1.785589e-28)
(-3.133193e-06 6.721439e-07 -1.776954e-28)
(-3.267176e-06 9.42461e-07 -1.758621e-28)
(-3.110772e-06 1.193463e-06 1.773082e-28)
(-2.804503e-06 1.406638e-06 0)
(-2.431276e-06 1.542823e-06 -1.769581e-28)
(-1.808078e-06 1.430601e-07 0)
(-3.04131e-06 4.433832e-07 1.972342e-28)
(-3.519111e-06 7.126248e-07 1.361737e-30)
(-3.666615e-06 1.009452e-06 -1.961369e-28)
(-3.485345e-06 1.290914e-06 1.928752e-28)
(-3.131295e-06 1.533716e-06 -1.902137e-28)
(-2.700414e-06 1.694021e-06 -9.931579e-32)
(-2.007335e-06 1.505157e-07 1.718083e-28)
(-3.400819e-06 4.688942e-07 0)
(-3.944326e-06 7.616626e-07 1.359124e-30)
(-4.107178e-06 1.088495e-06 1.94727e-30)
(-3.903356e-06 1.405037e-06 4.233708e-28)
(-3.490263e-06 1.678919e-06 -2.086477e-28)
(-2.991812e-06 1.863169e-06 2.062726e-28)
(-2.218385e-06 1.600863e-07 1.860653e-28)
(-3.79039e-06 5.012052e-07 0)
(-4.407163e-06 8.222118e-07 2.699867e-30)
(-4.584384e-06 1.182923e-06 -2.576444e-28)
(-4.377345e-06 1.542896e-06 1.948427e-28)
(-3.887653e-06 1.849071e-06 0)
(-3.308555e-06 2.054694e-06 -2.249223e-28)
(-2.442538e-06 1.724097e-07 0)
(-4.212786e-06 5.412592e-07 2.501833e-28)
(-4.912019e-06 8.943363e-07 0)
(-5.103348e-06 1.289037e-06 -2.532309e-28)
(-4.88625e-06 1.6993e-06 -5.023575e-30)
(-4.322588e-06 2.043344e-06 -6.1486e-30)
(-3.656471e-06 2.272751e-06 -2.514697e-28)
(-2.681528e-06 1.886954e-07 0)
(-4.673705e-06 5.935236e-07 5.359372e-28)
(-5.472167e-06 9.879893e-07 1.328558e-30)
(-5.68685e-06 1.427738e-06 1.891238e-30)
(-5.445955e-06 1.888337e-06 0)
(-4.806221e-06 2.273896e-06 0)
(-4.045998e-06 2.528239e-06 0)
(-2.937819e-06 2.103825e-07 2.280252e-28)
(-5.180176e-06 6.616733e-07 2.859097e-28)
(-6.096294e-06 1.108121e-06 2.616446e-30)
(-6.345037e-06 1.603851e-06 1.863057e-30)
(-6.075805e-06 2.121201e-06 0)
(-5.356228e-06 2.554359e-06 2.917748e-28)
(-4.49142e-06 2.83529e-06 1.451286e-29)
(-3.214101e-06 2.391028e-07 2.415425e-28)
(-5.741141e-06 7.501526e-07 3.030157e-28)
(-6.797073e-06 1.261522e-06 3.816852e-30)
(-7.089965e-06 1.82614e-06 3.639869e-30)
(-6.792106e-06 2.411597e-06 0)
(-5.999264e-06 2.90368e-06 3.064413e-28)
(-5.012349e-06 3.212741e-06 7.180324e-30)
(-3.513478e-06 2.765276e-07 2.546155e-28)
(-6.366138e-06 8.63877e-07 6.38596e-28)
(-7.587984e-06 1.456451e-06 3.192852e-28)
(-7.932992e-06 2.104749e-06 0)
(-7.60637e-06 2.76958e-06 -3.274056e-29)
(-6.778669e-06 3.341006e-06 -5.420377e-29)
(-5.634537e-06 3.680956e-06 -1.406748e-29)
(-3.838584e-06 3.244142e-07 2.670552e-28)
(-7.063174e-06 1.007333e-06 6.699732e-28)
(-8.480146e-06 1.69808e-06 6.702572e-28)
(-8.887933e-06 2.442215e-06 3.339314e-28)
(-8.531373e-06 3.191514e-06 -4.40602e-30)
(-7.649759e-06 3.852946e-06 3.501104e-28)
(-6.356003e-06 4.236707e-06 -3.399977e-28)
(-4.190844e-06 3.842517e-07 0)
(-7.837393e-06 1.184856e-06 3.493766e-28)
(-9.48167e-06 1.994462e-06 3.50177e-28)
(-9.972247e-06 2.853076e-06 7.072419e-28)
(-9.587209e-06 3.704247e-06 0)
(-8.62028e-06 4.451714e-06 3.703167e-28)
(-7.182045e-06 4.883248e-06 -1.594314e-31)
(-4.569655e-06 4.564439e-07 -2.886209e-28)
(-8.688946e-06 1.396962e-06 0)
(-1.059146e-05 2.344526e-06 0)
(-1.117824e-05 3.331926e-06 -2.65885e-30)
(-1.076485e-05 4.29365e-06 -3.797545e-28)
(-9.690651e-06 5.12252e-06 0)
(-8.113592e-06 5.600201e-06 3.911667e-28)
(-4.971501e-06 5.403378e-07 -5.948058e-28)
(-9.609936e-06 1.640721e-06 0)
(-1.179606e-05 2.741346e-06 0)
(-1.248269e-05 3.864684e-06 -3.809612e-28)
(-1.202219e-05 4.933005e-06 -7.794319e-28)
(-1.08194e-05 5.825241e-06 4.07946e-28)
(-9.143905e-06 6.342673e-06 0)
(-5.388357e-06 6.33807e-07 -3.043093e-28)
(-1.058045e-05 1.909347e-06 -3.321457e-31)
(-1.306326e-05 3.171846e-06 -3.896119e-28)
(-1.383989e-05 4.427019e-06 -1.848037e-30)
(-1.330157e-05 5.58042e-06 -2.736915e-30)
(-1.193177e-05 6.497317e-06 4.192227e-28)
(-1.008897e-05 7.002568e-06 0)
(-5.806747e-06 7.33247e-07 0)
(-1.156597e-05 2.192176e-06 3.913016e-28)
(-1.433905e-05 3.619381e-06 -3.972884e-28)
(-1.518002e-05 4.998908e-06 0)
(-1.453225e-05 6.216179e-06 4.134374e-28)
(-1.293539e-05 7.119344e-06 -1.087584e-29)
(-1.083192e-05 7.530941e-06 -7.893463e-30)
(-6.206853e-06 8.327596e-07 3.105716e-28)
(-1.251659e-05 2.472588e-06 3.947218e-28)
(-1.554747e-05 4.058767e-06 -4.023474e-28)
(-1.640553e-05 5.548008e-06 0)
(-1.559491e-05 6.8e-06 1.871104e-30)
(-1.370717e-05 7.636701e-06 5.907316e-32)
(-1.125566e-05 7.861272e-06 -5.467515e-30)
(-6.561893e-06 9.225852e-07 3.088542e-28)
(-1.336787e-05 2.724629e-06 3.940542e-28)
(-1.659272e-05 4.454021e-06 -4.037173e-28)
(-1.739868e-05 6.034373e-06 0)
(-1.635475e-05 7.291909e-06 0)
(-1.409748e-05 8.008339e-06 4.581764e-28)
(-1.12622e-05 7.942828e-06 -5.003822e-28)
(-6.841927e-06 9.882829e-07 3.027673e-28)
(-1.405002e-05 2.910461e-06 3.88417e-28)
(-1.737059e-05 4.752741e-06 0)
(-1.803524e-05 6.403998e-06 -4.203423e-28)
(-1.66884e-05 7.648902e-06 -3.06489e-30)
(-1.401154e-05 8.213865e-06 9.313228e-28)
(-1.0692e-05 7.771279e-06 4.857039e-30)
(-7.008359e-06 1.007383e-06 2.916976e-28)
(-1.4488e-05 2.970754e-06 0)
(-1.779196e-05 4.88011e-06 3.899051e-28)
(-1.82137e-05 6.584162e-06 -4.146851e-28)
(-1.650582e-05 7.830828e-06 4.375226e-28)
(-1.340699e-05 8.287353e-06 9.363818e-28)
(-9.646464e-06 7.548071e-06 5.084995e-28)
(-7.039826e-06 9.50813e-07 0)
(-1.465952e-05 2.836431e-06 0)
(-1.782323e-05 4.734461e-06 7.553245e-28)
(-1.79061e-05 6.469713e-06 0)
(-1.57862e-05 7.753316e-06 8.614038e-28)
(-1.227046e-05 8.193088e-06 4.671001e-28)
(-8.085925e-06 7.3018e-06 -5.114902e-28)
(-7.014752e-06 8.006482e-07 2.502485e-28)
(-1.460012e-05 2.432057e-06 -3.366171e-28)
(-1.754131e-05 4.201139e-06 -3.586467e-28)
(-1.723904e-05 5.949953e-06 0)
(-1.466906e-05 7.318243e-06 4.169989e-28)
(-1.073281e-05 7.843259e-06 0)
(-6.151527e-06 6.934795e-06 -5.433149e-28)
(-6.955421e-06 5.226744e-07 2.215306e-28)
(-1.447335e-05 1.690098e-06 -2.951725e-28)
(-1.719883e-05 3.188647e-06 -9.74792e-28)
(-1.657135e-05 4.913753e-06 -7.084952e-28)
(-1.357962e-05 6.468278e-06 4.159287e-28)
(-9.217714e-06 7.196562e-06 2.222963e-29)
(-4.126799e-06 6.366727e-06 -2.414037e-29)
(-6.972303e-06 1.162283e-07 6.067889e-31)
(-1.466081e-05 6.194483e-07 2.229855e-30)
(-1.730261e-05 1.722011e-06 -2.621836e-28)
(-1.652866e-05 3.407982e-06 -6.712775e-28)
(-1.330067e-05 5.259136e-06 3.14684e-28)
(-8.588766e-06 6.353075e-06 5.818144e-29)
(-2.916947e-06 5.761802e-06 1.284462e-28)
(-7.229843e-06 -3.782524e-07 -7.259556e-31)
(-1.560329e-05 -6.798956e-07 -2.692889e-30)
(-1.861852e-05 -2.844963e-08 -2.41068e-28)
(-1.806388e-05 1.646218e-06 -5.066221e-28)
(-1.507873e-05 3.98072e-06 -3.278467e-28)
(-1.021258e-05 5.690658e-06 -4.611585e-28)
(-4.396571e-06 5.919907e-06 0)
(-7.931359e-06 -8.72758e-07 0)
(-1.785086e-05 -2.008651e-06 0)
(-2.199554e-05 -1.799127e-06 -1.584645e-28)
(-2.230865e-05 3.649309e-09 -1.434217e-28)
(-2.015417e-05 3.011111e-06 1.317505e-28)
(-1.56842e-05 5.282885e-06 2.337654e-29)
(-1.023008e-05 5.86637e-06 0)
(-9.147997e-06 -1.341968e-06 -1.990445e-30)
(-2.186493e-05 -3.121362e-06 7.380193e-30)
(-2.813581e-05 -3.174422e-06 2.424464e-29)
(-3.009768e-05 -8.32446e-07 0)
(-2.988864e-05 3.277886e-06 -4.31895e-28)
(-2.668349e-05 5.998749e-06 -1.206665e-28)
(-2.34668e-05 7.635495e-06 -2.015022e-28)
(-1.037139e-05 -2.158223e-06 -3.174857e-29)
(-2.842665e-05 -2.890628e-06 8.427708e-30)
(-3.808044e-05 -2.664847e-06 2.210093e-29)
(-4.386956e-05 1.970024e-06 0)
(-4.611792e-05 6.110389e-06 -2.87734e-28)
(-4.728819e-05 5.818847e-06 -1.462726e-27)
(-4.931424e-05 -8.88608e-07 -1.406689e-27)
(-1.290972e-05 -2.462627e-06 -3.995017e-29)
(-3.801449e-05 8.65963e-07 7.357176e-30)
(-5.109773e-05 -2.556215e-07 5.188831e-29)
(-5.974085e-05 1.083855e-06 -6.261882e-29)
(-6.822821e-05 -1.911302e-06 -1.515807e-28)
(-7.88482e-05 -1.19033e-05 -1.3343e-27)
(-9.191954e-05 -3.653089e-05 -9.858989e-28)
(-1.559941e-05 -3.877141e-06 0)
(-4.599315e-05 2.362106e-06 1.022472e-31)
(-6.401487e-05 -1.371424e-06 -1.1233e-29)
(-8.406332e-05 -5.504204e-06 2.93917e-29)
(-0.0001073706 -2.291577e-05 2.622164e-28)
(-0.0001369602 -6.08332e-05 -1.940747e-28)
(-0.0001613404 -0.0001212096 0)
(-1.840151e-05 -1.090418e-06 1.801251e-28)
(-5.003623e-05 6.803532e-06 3.248171e-28)
(-8.251196e-05 3.082191e-09 2.072427e-28)
(-0.0001285457 -2.873765e-05 6.609951e-28)
(-0.0001891634 -8.073596e-05 -3.929693e-28)
(-0.0002545207 -0.00016438 -3.575718e-28)
(-0.0002922293 -0.0002886271 -1.64732e-25)
(-1.754785e-05 3.704337e-06 5.3296e-29)
(-5.661077e-05 2.55145e-06 -1.384256e-30)
(-0.0001255741 -2.741143e-05 0)
(-0.0002273074 -9.334976e-05 1.566736e-29)
(-0.0003598314 -0.0001934698 3.813002e-27)
(-0.0004969153 -0.0003186586 -1.601515e-25)
(-0.0005803642 -0.0004678932 9.823004e-26)
(-2.253922e-05 -2.539582e-06 -2.305164e-28)
(-6.913002e-05 -6.521184e-06 -6.51233e-30)
(-0.0002220777 -9.285901e-05 -4.205756e-29)
(-0.0004295192 -0.0002178272 -6.517347e-27)
(-0.0006768671 -0.0003603056 8.800439e-25)
(-0.0009058253 -0.0004690309 -2.729308e-25)
(-0.001038976 -0.0005172767 -1.694231e-25)
(-3.265962e-05 -2.021696e-05 -7.991907e-28)
(-0.000166062 -9.479464e-05 0)
(-0.0004190042 -0.000229468 -2.121369e-28)
(-0.0007650876 -0.0004110689 -1.403739e-25)
(-0.001153077 -0.0005589579 5.687479e-25)
(-0.001461553 -0.0005784434 -2.103339e-24)
(-0.001624581 -0.0004700621 2.990668e-24)
(-7.109515e-05 -6.273236e-05 0)
(-0.0003078268 -0.0002232221 -2.816886e-28)
(-0.0006980786 -0.0004281656 3.108862e-25)
(-0.001202057 -0.0006531309 -3.453519e-25)
(-0.001722012 -0.000758765 -4.006301e-26)
(-0.002097665 -0.000671569 -6.920129e-26)
(-0.002315933 -0.0005023998 -2.410204e-25)
(-0.0001216514 -0.0001235247 0)
(-0.0004793972 -0.0003985033 3.035714e-25)
(-0.001018795 -0.00068281 9.656442e-25)
(-0.001674884 -0.0009121134 4.215677e-25)
(-0.002273975 -0.0009245231 -1.701062e-24)
(-0.002669044 -0.0007578523 1.606243e-24)
(-0.003056738 -0.0007041428 4.706693e-24)
(-0.0001691589 -0.0002081067 -5.357517e-27)
(-0.0006429341 -0.0006240935 1.701751e-25)
(-0.001324041 -0.000970364 7.980539e-25)
(-0.002088431 -0.001141309 -4.962553e-26)
(-0.002643266 -0.001052403 4.012796e-25)
(-0.00298613 -0.0008652914 8.420738e-25)
(-0.003620246 -0.001227198 6.983486e-25)
(-0.0001997408 -0.0003199142 2.93347e-25)
(-0.0007809365 -0.0008894522 1.662428e-25)
(-0.001582234 -0.001250868 1.233359e-24)
(-0.002304355 -0.001303345 -9.044882e-25)
(-0.002729254 -0.001150122 2.890494e-24)
(-0.003043506 -0.001112911 5.715627e-25)
(-0.003984425 -0.002541304 1.931492e-24)
(-0.000221867 -0.0004546002 1.071941e-24)
(-0.0009377031 -0.001169621 -4.387322e-25)
(-0.001763223 -0.001473617 2.774213e-25)
(-0.00229518 -0.001410792 -4.808316e-25)
(-0.002647143 -0.001227657 -2.345294e-25)
(-0.003133231 -0.001819999 -1.172619e-24)
(-0.004911996 -0.005260066 3.329936e-24)
(-0.0002999197 -0.0006198977 2.366113e-25)
(-0.001181375 -0.001429898 -1.093555e-24)
(-0.001823036 -0.001592334 5.700015e-25)
(-0.002153892 -0.001482663 -9.21428e-25)
(-0.002571056 -0.001435648 -5.992257e-26)
(-0.003400731 -0.003305179 -1.86462e-24)
(-0.006272559 -0.007069862 1.910449e-23)
(-0.0005124936 -0.0008303388 -4.330413e-25)
(-0.00140222 -0.001609851 -1.234507e-24)
(-0.001741286 -0.00163445 -1.935131e-25)
(-0.00200076 -0.001588878 -2.779826e-25)
(-0.002519224 -0.00230045 1.3855e-24)
(-0.003610813 -0.005371685 1.107826e-23)
(-0.004333984 -0.004124009 2.222815e-23)
(-0.0007199877 -0.0009939424 1.661097e-25)
(-0.001439207 -0.001678546 9.890919e-27)
(-0.001637384 -0.00169275 9.894078e-25)
(-0.001913442 -0.001848725 2.603304e-25)
(-0.002436483 -0.003519921 3.963043e-24)
(-0.003221708 -0.003801126 -1.190893e-23)
(-0.005700832 0.002880285 -1.586736e-22)
(-0.0007417269 -0.001018217 1.240693e-25)
(-0.001324815 -0.00165897 3.960656e-25)
(-0.001518717 -0.001742858 -1.145486e-25)
(-0.001769693 -0.002128566 -9.472132e-25)
(-0.002190494 -0.003691438 1.470024e-24)
(-0.003559161 -0.001658245 -3.019895e-24)
(-0.006756499 0.003056086 -5.125986e-23)
(-0.0006011086 -0.0009369031 1.837172e-25)
(-0.00106347 -0.001544505 4.567506e-25)
(-0.001281126 -0.001690655 -5.071966e-26)
(-0.001494942 -0.002172565 -2.548337e-25)
(-0.002152618 -0.003313376 1.097213e-24)
(-0.003416004 0.0004158956 -3.168009e-25)
(-0.005462291 0.005749862 -4.566199e-23)
(-0.0003718235 -0.000826632 1.475414e-25)
(-0.0006764998 -0.001379884 -1.603152e-26)
(-0.0008632336 -0.00152514 -1.627232e-25)
(-0.0009965929 -0.002042975 -2.371588e-25)
(-0.001635643 -0.003113567 -3.3035e-25)
(-0.003087844 0.001367482 -5.692362e-24)
(-0.004226947 0.007347325 -5.105652e-24)
(-9.937123e-05 -0.0007438715 3.734194e-26)
(-0.0001981548 -0.001258888 6.52225e-26)
(-0.0002867558 -0.001378642 3.241094e-25)
(-0.0003595568 -0.00189591 -3.811808e-25)
(-0.0008377882 -0.002973182 -3.83179e-24)
(-0.001845631 0.001426733 8.149945e-24)
(-0.001761744 0.006807908 1.364191e-23)
(0.0001821197 -0.0007190709 -1.739635e-26)
(0.0003311471 -0.001258831 1.817425e-25)
(0.0003964331 -0.001395598 5.217021e-25)
(0.0004481972 -0.001807473 2.712844e-25)
(0.000360253 -0.002962868 -2.626774e-24)
(6.601013e-05 0.0006450637 1.130145e-23)
(0.001067449 0.006312818 9.624223e-24)
(0.0004323982 -0.000749719 -2.035277e-26)
(0.0008499348 -0.001384144 -2.168489e-26)
(0.00107334 -0.001591137 1.04688e-25)
(0.001318098 -0.001950952 -1.974365e-25)
(0.001799511 -0.003288502 -1.797594e-24)
(0.002108027 -0.001245033 -2.571621e-24)
(0.002557973 0.003863055 7.031638e-24)
(0.0006135897 -0.0007991374 5.609856e-26)
(0.001296901 -0.001554534 -3.400237e-25)
(0.001696508 -0.001825962 2.929509e-26)
(0.002173391 -0.00219189 -1.341206e-25)
(0.003169732 -0.003667937 9.583208e-25)
(0.003354879 -0.004428185 -2.37378e-25)
(0.003135332 -0.001084073 -2.264881e-24)
(0.0006944745 -0.0008206941 1.735476e-25)
(0.001619373 -0.001682889 -5.841573e-26)
(0.002217731 -0.002000535 -3.211737e-25)
(0.002829665 -0.002346582 6.361346e-25)
(0.003647063 -0.003505888 -2.204673e-24)
(0.004190734 -0.006524216 -3.864532e-24)
(0.005197986 -0.006807151 1.875486e-23)
(0.0006483821 -0.0007826061 2.581613e-27)
(0.001757489 -0.001720233 1.249259e-24)
(0.002557986 -0.002065707 1.579917e-24)
(0.0032361 -0.00226755 -2.263798e-24)
(0.004071474 -0.002967186 -7.275946e-24)
(0.005531893 -0.005955862 -1.930311e-23)
(0.006776073 -0.01110661 -2.995814e-23)
(0.0005024381 -0.0006848211 -6.642229e-25)
(0.001642531 -0.001641259 3.801954e-25)
(0.002689488 -0.002040926 1.53391e-24)
(0.003567001 -0.002155377 1.2832e-24)
(0.004500385 -0.002369461 -1.469023e-24)
(0.005625327 -0.003951877 -3.243185e-24)
(0.006303294 -0.008693159 -6.866843e-24)
(0.0003833176 -0.0005558247 -9.566773e-25)
(0.001371897 -0.00143195 -6.016485e-25)
(0.002553268 -0.001906294 -1.355709e-24)
(0.003632355 -0.002026139 -4.039276e-25)
(0.004511862 -0.002000116 8.167731e-25)
(0.005390248 -0.002533157 4.654446e-24)
(0.006091161 -0.005319042 2.059882e-24)
(0.0003277185 -0.000419171 -4.680296e-25)
(0.001157735 -0.001148734 -7.73244e-25)
(0.002229314 -0.001637633 -4.10383e-25)
(0.003386417 -0.001818683 -6.427537e-25)
(0.004313148 -0.001724929 7.413362e-25)
(0.005111565 -0.001681979 3.909427e-24)
(0.005982133 -0.003041623 -3.686998e-24)
(0.0002809994 -0.0002839901 -1.864839e-25)
(0.0009912237 -0.0008448066 -4.165738e-25)
(0.001892715 -0.00129963 -2.740859e-25)
(0.002926753 -0.00153326 5.540491e-26)
(0.003876567 -0.001448982 5.2264e-24)
(0.004667023 -0.001170504 1.94603e-23)
(0.005521022 -0.001452327 2.380996e-23)
(0.0002140891 -0.0001717475 -5.530021e-27)
(0.0007829048 -0.0005639506 -8.169789e-25)
(0.001542824 -0.0009592912 8.077231e-26)
(0.002422287 -0.001229018 5.144435e-25)
(0.003287316 -0.001193648 -5.570109e-25)
(0.004044987 -0.0008713296 -7.367492e-25)
(0.004849263 -0.0006511731 -6.17622e-24)
(0.0001355998 -9.145735e-05 0)
(0.0005329195 -0.0003323729 -6.299889e-25)
(0.001137586 -0.0006377466 4.100883e-25)
(0.001873191 -0.000914126 9.702547e-26)
(0.002624705 -0.0009575732 1.848977e-24)
(0.003270358 -0.0007290731 3.444592e-24)
(0.003852344 -0.0004065524 -9.406649e-24)
(6.590776e-05 -3.650364e-05 0)
(0.000304262 -0.0001613989 2.419703e-28)
(0.0007265299 -0.0003612135 2.065165e-25)
(0.001301716 -0.0006047008 3.944529e-25)
(0.001919477 -0.0007317633 -2.126898e-25)
(0.002429673 -0.0006371311 1.215472e-25)
(0.002783803 -0.00039725 -1.000462e-24)
(-1.830807e-06 1.015048e-05 -5.572387e-28)
(0.000139059 -4.784039e-05 0)
(0.0003948429 -0.0001608842 0)
(0.0007817518 -0.0003373965 -3.23055e-25)
(0.001238577 -0.0005014416 -3.806269e-24)
(0.001629958 -0.0005519817 -1.521298e-24)
(0.001867371 -0.0005093444 -2.171058e-25)
(2.113074e-05 1.418918e-06 -1.257455e-28)
(7.063872e-05 -1.341472e-06 -2.073523e-30)
(0.0001921083 -4.589547e-05 9.936391e-30)
(0.0004002934 -0.0001432818 4.904817e-29)
(0.0006846575 -0.0002795963 -1.259109e-24)
(0.0009601881 -0.0004100223 -1.084844e-24)
(0.001126869 -0.000530158 1.987909e-24)
(2.411131e-05 2.740422e-06 0)
(5.853907e-05 5.919754e-06 2.033802e-28)
(9.934144e-05 3.707523e-06 0)
(0.0001909924 -3.597864e-05 -7.268259e-29)
(0.0003363847 -0.000114003 -1.888594e-28)
(0.0004980115 -0.0002248908 -2.123551e-25)
(0.0005998928 -0.0003738481 1.218773e-24)
(2.008392e-05 -8.341278e-06 0)
(5.972232e-05 -1.659206e-06 -1.004472e-28)
(7.915358e-05 8.885389e-06 -4.067843e-30)
(0.0001053295 5.046691e-06 0)
(0.0001622436 -2.521502e-05 -3.225003e-28)
(0.0002399786 -8.053724e-05 -2.083211e-27)
(0.0003038508 -0.0001694216 7.560619e-25)
(1.703295e-05 -4.313975e-06 0)
(4.824961e-05 -3.14085e-06 -2.501662e-29)
(6.741339e-05 1.259168e-06 -1.413144e-30)
(7.52011e-05 6.744811e-06 4.997482e-28)
(8.805388e-05 5.102541e-06 -2.598251e-28)
(0.0001163438 -1.24582e-05 -1.185218e-27)
(0.0001480001 -4.833487e-05 -3.772348e-27)
(1.661709e-05 -1.143838e-06 -4.670241e-29)
(3.570261e-05 -6.315652e-06 4.149212e-29)
(4.864276e-05 -6.014752e-06 7.218521e-31)
(5.346277e-05 -1.859543e-06 5.189286e-28)
(5.528362e-05 6.518746e-06 0)
(6.013429e-05 6.056004e-06 0)
(6.887813e-05 -3.891262e-06 4.15149e-27)
(1.245793e-05 -2.28427e-06 -1.105089e-28)
(2.813407e-05 -6.281055e-06 1.510359e-28)
(3.594049e-05 -7.493684e-06 -2.09789e-28)
(3.699513e-05 -6.581216e-06 -2.698364e-28)
(3.611379e-05 3.620564e-07 0)
(3.344721e-05 7.684549e-06 0)
(2.959603e-05 5.296286e-06 1.070844e-27)
(1.030143e-05 -2.340652e-06 1.80654e-28)
(2.231756e-05 -6.022444e-06 2.238211e-28)
(2.68837e-05 -7.663167e-06 -2.454774e-29)
(2.626829e-05 -7.08976e-06 -3.806484e-28)
(2.225315e-05 -4.099993e-06 2.749199e-28)
(1.721271e-05 1.249431e-06 1.514174e-27)
(7.307249e-06 -1.109818e-07 -8.899567e-28)
(9.194661e-06 -1.850135e-06 2.410891e-28)
(1.891443e-05 -4.799405e-06 -6.133622e-30)
(2.175281e-05 -6.24498e-06 2.018795e-29)
(2.016808e-05 -6.004813e-06 2.775123e-29)
(1.551305e-05 -4.448437e-06 0)
(8.870962e-06 -2.23897e-06 5.075689e-28)
(-3.573282e-07 -3.47886e-06 -6.794636e-28)
(8.770443e-06 -1.164735e-06 0)
(1.747376e-05 -2.972345e-06 -9.977973e-30)
(1.978627e-05 -3.754979e-06 -1.612387e-29)
(1.800567e-05 -3.405499e-06 -7.710395e-28)
(1.336909e-05 -2.332152e-06 2.399833e-28)
(6.818404e-06 -1.437036e-06 -1.269684e-27)
(-9.941497e-07 -2.423533e-06 -7.463357e-28)
(8.716576e-06 -4.686655e-07 -1.069604e-30)
(1.720885e-05 -1.074415e-06 -3.8379e-30)
(1.969514e-05 -1.034193e-06 0)
(1.827189e-05 -3.145085e-07 -4.852404e-31)
(1.400369e-05 7.167575e-07 -5.670377e-28)
(8.175251e-06 1.231062e-06 -6.210521e-28)
(1.557928e-06 3.20746e-07 -4.731608e-29)
(8.803243e-06 1.268838e-07 -3.665377e-28)
(1.744542e-05 5.612665e-07 4.713548e-28)
(2.040718e-05 1.372294e-06 -1.078207e-27)
(1.951536e-05 2.502492e-06 1.033848e-27)
(1.589982e-05 3.615163e-06 -5.978866e-28)
(1.079699e-05 4.096906e-06 0)
(5.045982e-06 3.286093e-06 3.0457e-29)
(8.868368e-06 5.611236e-07 -3.886342e-28)
(1.773385e-05 1.766757e-06 5.121143e-28)
(2.110272e-05 3.15535e-06 -5.350289e-28)
(2.074998e-05 4.618352e-06 0)
(1.781712e-05 5.825742e-06 5.909562e-28)
(1.335269e-05 6.342936e-06 0)
(8.203048e-06 5.611392e-06 -6.796871e-28)
(8.821112e-06 8.253781e-07 0)
(1.772031e-05 2.51043e-06 0)
(2.135798e-05 4.2521e-06 1.086183e-27)
(2.149867e-05 5.90852e-06 0)
(1.914613e-05 7.215003e-06 1.184675e-27)
(1.520817e-05 7.788502e-06 6.26402e-28)
(1.049316e-05 7.141567e-06 -6.678722e-28)
(8.676452e-06 9.587969e-07 4.163648e-28)
(1.73263e-05 2.872199e-06 0)
(2.10731e-05 4.768146e-06 5.476582e-28)
(2.157685e-05 6.520646e-06 -5.638286e-28)
(1.968637e-05 7.892771e-06 5.876571e-28)
(1.621948e-05 8.547567e-06 1.23054e-27)
(1.196909e-05 8.06488e-06 6.528243e-28)
(8.366854e-06 9.879832e-07 4.204481e-28)
(1.659308e-05 2.95309e-06 5.356233e-28)
(2.028758e-05 4.865012e-06 0)
(2.101481e-05 6.635305e-06 -5.605029e-28)
(1.950173e-05 8.055972e-06 -2.19552e-30)
(1.649813e-05 8.842073e-06 1.204773e-27)
(1.274361e-05 8.646535e-06 1.860364e-29)
(7.938186e-06 9.509148e-07 4.191062e-28)
(1.560737e-05 2.848566e-06 5.312821e-28)
(1.912358e-05 4.693026e-06 -5.389457e-28)
(1.995759e-05 6.426822e-06 0)
(1.875269e-05 7.879671e-06 0)
(1.621164e-05 8.823179e-06 5.847772e-28)
(1.300852e-05 9.004149e-06 -6.707729e-28)
(7.443679e-06 8.774454e-07 4.137865e-28)
(1.447604e-05 2.640945e-06 5.230618e-28)
(1.77211e-05 4.36439e-06 -5.285873e-28)
(1.857374e-05 6.019687e-06 0)
(1.760547e-05 7.467285e-06 -6.565361e-30)
(1.54739e-05 8.521216e-06 -7.491481e-32)
(1.271731e-05 8.971426e-06 1.254084e-29)
(6.919904e-06 7.870969e-07 0)
(1.328283e-05 2.383316e-06 5.11212e-28)
(1.62076e-05 3.956372e-06 -5.152073e-28)
(1.701698e-05 5.502438e-06 0)
(1.621536e-05 6.905026e-06 5.375517e-28)
(1.440473e-05 8.0053e-06 2.163292e-29)
(1.205073e-05 8.612701e-06 1.442154e-29)
(6.394659e-06 6.92049e-07 -3.945728e-28)
(1.209444e-05 2.110618e-06 6.764473e-31)
(1.468224e-05 3.520717e-06 -4.978932e-28)
(1.540978e-05 4.936581e-06 3.439293e-30)
(1.472409e-05 6.260818e-06 4.537108e-30)
(1.316591e-05 7.351988e-06 5.212745e-28)
(1.11052e-05 8.015995e-06 0)
(5.885845e-06 6.003088e-07 -7.63587e-28)
(1.095694e-05 1.844748e-06 0)
(1.321433e-05 3.090937e-06 0)
(1.384257e-05 4.367333e-06 -4.876929e-28)
(1.324615e-05 5.594171e-06 -9.839402e-28)
(1.187877e-05 6.64431e-06 5.044787e-28)
(9.998319e-06 7.281979e-06 0)
(5.404827e-06 5.169191e-07 -3.675647e-28)
(9.897916e-06 1.599351e-06 8.382385e-31)
(1.184836e-05 2.688236e-06 1.443621e-30)
(1.237339e-05 3.820975e-06 4.233118e-30)
(1.183559e-05 4.929629e-06 -4.623323e-28)
(1.06168e-05 5.902636e-06 0)
(8.842133e-06 6.481424e-06 4.763657e-28)
(4.957499e-06 4.441072e-07 1.12446e-31)
(8.930205e-06 1.382467e-06 4.431205e-28)
(1.060674e-05 2.327942e-06 4.429126e-28)
(1.103587e-05 3.324779e-06 8.833603e-28)
(1.053692e-05 4.314248e-06 0)
(9.442769e-06 5.197278e-06 4.546435e-28)
(7.832041e-06 5.72786e-06 -2.108312e-31)
(4.545023e-06 3.822856e-07 3.361667e-28)
(8.05652e-06 1.197361e-06 8.428726e-28)
(9.49441e-06 2.01816e-06 8.420589e-28)
(9.842982e-06 2.893454e-06 4.24284e-28)
(9.384454e-06 3.774288e-06 5.871966e-30)
(8.387948e-06 4.565042e-06 4.292133e-28)
(6.944559e-06 5.049659e-06 -4.304527e-28)
(4.166152e-06 3.316127e-07 3.196879e-28)
(7.272674e-06 1.044011e-06 8.002289e-28)
(8.506428e-06 1.759598e-06 3.986963e-28)
(8.796251e-06 2.532636e-06 0)
(8.380201e-06 3.324801e-06 4.246749e-29)
(7.439838e-06 4.015278e-06 6.945273e-29)
(6.164917e-06 4.455293e-06 1.779186e-29)
(3.818251e-06 2.909112e-07 3.029687e-28)
(6.570127e-06 9.186588e-07 3.781929e-28)
(7.630405e-06 1.544491e-06 -4.853537e-30)
(7.870892e-06 2.225637e-06 -4.601953e-30)
(7.491224e-06 2.931249e-06 0)
(6.58336e-06 3.533423e-06 3.75798e-28)
(5.484588e-06 3.939036e-06 -8.879121e-30)
(3.498441e-06 2.585226e-07 2.859175e-28)
(5.939336e-06 8.174958e-07 3.567237e-28)
(6.852934e-06 1.36904e-06 -3.246043e-30)
(7.050456e-06 1.972101e-06 -2.3008e-30)
(6.704396e-06 2.600516e-06 0)
(5.875148e-06 3.135246e-06 3.435529e-28)
(4.908336e-06 3.506299e-06 -1.759996e-29)
(3.203184e-06 2.325223e-07 -1.238864e-31)
(5.370089e-06 7.354984e-07 6.708529e-28)
(6.159295e-06 1.225839e-06 -1.613644e-30)
(6.323327e-06 1.763365e-06 -2.288755e-30)
(6.009052e-06 2.325067e-06 0)
(5.265742e-06 2.803313e-06 0)
(4.409202e-06 3.139876e-06 0)
(2.929053e-06 2.116177e-07 0)
(4.852726e-06 6.686977e-07 3.142667e-28)
(5.536581e-06 1.108674e-06 0)
(5.678279e-06 1.592184e-06 -3.071523e-28)
(5.389168e-06 2.093336e-06 5.947637e-30)
(4.726929e-06 2.520935e-06 7.249971e-30)
(3.968902e-06 2.824562e-06 -2.918548e-28)
(2.673134e-06 1.94548e-07 2.350142e-28)
(4.379449e-06 6.140994e-07 0)
(4.976409e-06 1.01372e-06 -3.164968e-30)
(5.105693e-06 1.455451e-06 -2.638821e-28)
(4.822817e-06 1.895161e-06 3.350127e-28)
(4.240086e-06 2.276287e-06 0)
(3.574008e-06 2.549196e-06 -2.784991e-28)
(2.433206e-06 1.802132e-07 2.183644e-28)
(3.943839e-06 5.675744e-07 0)
(4.462723e-06 9.304751e-07 -1.570968e-30)
(4.576748e-06 1.329977e-06 -2.245825e-30)
(4.292286e-06 1.717415e-06 5.335511e-28)
(3.794157e-06 2.059136e-06 -2.618004e-28)
(3.214234e-06 2.304738e-06 2.575152e-28)
(2.207303e-06 1.685472e-07 0)
(3.541821e-06 5.291522e-07 2.507849e-28)
(3.989063e-06 8.601092e-07 -1.552732e-30)
(4.08614e-06 1.22163e-06 -2.504453e-28)
(3.825329e-06 1.566907e-06 2.454289e-28)
(3.391238e-06 1.871338e-06 -2.410812e-28)
(2.883218e-06 2.087741e-06 -1.129906e-31)
(1.99445e-06 1.599316e-07 0)
(3.169883e-06 4.984541e-07 2.314238e-28)
(3.553993e-06 8.013816e-07 -2.300611e-28)
(3.63604e-06 1.129495e-06 -2.320014e-28)
(3.403005e-06 1.438257e-06 2.224643e-28)
(3.021429e-06 1.707235e-06 -6.72471e-30)
(2.57605e-06 1.894472e-06 -2.171539e-28)
(1.794508e-06 1.532383e-07 0)
(2.827015e-06 4.735607e-07 0)
(3.157267e-06 7.521737e-07 -2.100451e-28)
(3.226935e-06 1.050265e-06 2.097936e-28)
(3.019431e-06 1.326188e-06 -8.076414e-32)
(2.682635e-06 1.56263e-06 0)
(2.291608e-06 1.722263e-06 0)
(1.60774e-06 1.473101e-07 1.541949e-28)
(2.517265e-06 4.511457e-07 -1.918652e-28)
(2.804691e-06 7.08104e-07 -9.377341e-29)
(2.863865e-06 9.787238e-07 1.920131e-28)
(2.677904e-06 1.2247e-06 7.597878e-32)
(2.377923e-06 1.432287e-06 -6.495966e-30)
(2.031981e-06 1.567499e-06 -3.793946e-33)
(1.436736e-06 1.40797e-07 -1.104662e-32)
(2.248889e-06 4.25775e-07 -1.725078e-28)
(2.507768e-06 6.581926e-07 -8.41271e-29)
(2.559523e-06 9.021695e-07 2.080105e-30)
(2.387813e-06 1.12315e-06 3.36532e-28)
(2.114325e-06 1.307423e-06 3.201903e-30)
(1.801314e-06 1.423172e-06 0)