/*--------------------------------*- C++ -*----------------------------------*\
| =========                 |                                                 |
| \\      /  F ield         | OpenFOAM: The Open Source CFD Toolbox           |
|  \\    /   O peration     | Version:  2206                                  |
|   \\  /    A nd           | Website:  www.openfoam.com                      |
|    \\/     M anipulation  |                                                 |
\*---------------------------------------------------------------------------*/
FoamFile
{
    version     2.0;
    format      ascii;
    arch        "LSB;label=32;scalar=64";
    class       volVectorField;
    location    "2";
    object      ddtCorrDdt0(U.b);
}
// * * * * * * * * * * * * * * * * * * * * * * * * * * * * * * * * * * * * * //

dimensions      [0 1 -2 0 0 0 0];

internalField   nonuniform List<vector> 
13078
(
(0.000399459 -2.83013e-05 -5.401591e-26)
(0.0003810532 1.055488e-05 -3.014665e-28)
(0.0003614688 0.0003272733 9.97437e-26)
(0.0003636975 0.0004226735 0)
(0.0003588669 0.0005296284 6.796857e-26)
(0.0003490353 0.0006439433 7.951778e-26)
(0.0003395338 0.0007632873 9.22499e-26)
(0.0001045138 -3.15868e-05 0)
(0.0002799088 0.0001286639 -1.611858e-28)
(0.0002649403 0.0003123803 0)
(0.0002572349 0.0004133626 0)
(0.0002467604 0.0005172856 1.019008e-28)
(0.0002363074 0.0006300224 6.15473e-29)
(0.0002216301 0.0007463194 1.41988e-28)
(0.0001606143 3.888755e-05 -3.028985e-27)
(0.0001886503 0.0001582349 1.115779e-26)
(0.0001686048 0.0002834488 -4.113745e-26)
(0.0001520558 0.0003944991 -1.066808e-25)
(0.0001394205 0.0005030155 -6.576014e-26)
(0.0001257223 0.0006131238 0)
(0.0001078546 0.0007263293 5.148844e-31)
(6.454145e-05 4.730573e-05 -4.053359e-26)
(6.840154e-05 0.0001562215 8.664363e-26)
(5.808278e-05 0.0002687785 9.024495e-26)
(4.772062e-05 0.0003762095 4.615199e-26)
(3.342807e-05 0.0004857237 -1.752207e-27)
(1.752957e-05 0.0005937684 0)
(-2.202061e-06 0.0007036822 -9.442334e-28)
(-4.779999e-05 4.791241e-05 2.384321e-28)
(-4.670602e-05 0.000152533 7.54132e-26)
(-5.100969e-05 0.0002581418 1.501623e-25)
(-5.917874e-05 0.0003637271 1.576171e-25)
(-6.989835e-05 0.0004668978 -7.063569e-27)
(-8.746717e-05 0.0005735636 4.450044e-30)
(-0.0001082489 0.0006796422 -8.500708e-26)
(-0.0001522695 4.696112e-05 0)
(-0.000152403 0.000148084 -1.348582e-27)
(-0.0001563516 0.0002496041 2.207352e-27)
(-0.0001635972 0.0003516989 1.02186e-25)
(-0.0001736713 0.0004519181 -7.799867e-27)
(-0.0001884294 0.0005503781 7.332132e-26)
(-0.0002096464 0.0006549668 1.764405e-25)
(-0.0002522944 4.557975e-05 0)
(-0.0002525363 0.0001430391 1.284303e-25)
(-0.0002564301 0.0002403853 1.619872e-25)
(-0.0002650157 0.0003384608 4.684585e-26)
(-0.00027696 0.000436427 1.217149e-25)
(-0.0002897247 0.0005326704 -9.213082e-27)
(-0.0003071939 0.0006291483 0)
(-0.0003484475 4.418516e-05 -3.120564e-25)
(-0.0003499629 0.0001376019 1.554317e-25)
(-0.00035335 0.0002308338 1.551732e-25)
(-0.0003633747 0.0003241324 0)
(-0.000373924 0.0004192548 3.104933e-25)
(-0.0003883739 0.0005154454 -9.145e-27)
(-0.0004044294 0.0006096122 -1.075598e-26)
(-0.000441197 4.148367e-05 -3.526936e-29)
(-0.0004426899 0.0001326461 -3.640581e-25)
(-0.0004480857 0.0002203131 -1.858626e-25)
(-0.0004570401 0.0003110858 -5.798341e-27)
(-0.0004679284 0.0004047071 7.181371e-25)
(-0.0004829242 0.0004963353 -9.088903e-27)
(-0.0005001405 0.0005898348 0)
(-0.000529463 4.032338e-05 4.184154e-25)
(-0.0005305939 0.0001257687 -4.167971e-25)
(-0.0005390123 0.0002108057 -2.082529e-25)
(-0.0005465409 0.0002979368 4.134931e-25)
(-0.0005603294 0.0003873174 2.062318e-28)
(-0.0005756184 0.0004780912 0)
(-0.0005943894 0.0005693254 0)
(-0.0006121055 3.818791e-05 0)
(-0.0006163307 0.0001185817 0)
(-0.0006237408 0.0001991703 -4.688373e-25)
(-0.0006344842 0.0002838009 4.664485e-25)
(-0.0006485344 0.0003700196 -2.147313e-28)
(-0.0006668398 0.0004576041 0)
(-0.0006871933 0.0005474805 0)
(-0.0006911871 3.416431e-05 0)
(-0.0006956324 0.0001101242 5.21603e-25)
(-0.0007041618 0.0001880594 -5.21292e-25)
(-0.000717469 0.0002676987 -5.132071e-25)
(-0.0007346709 0.0003496891 5.286057e-25)
(-0.0007557783 0.000434847 0)
(-0.000779151 0.0005233941 -5.449667e-25)
(-0.0007649297 3.220791e-05 0)
(-0.000768619 0.0001023997 5.757485e-25)
(-0.0007798278 0.0001734213 3.951428e-27)
(-0.0007966379 0.0002483231 -5.717403e-25)
(-0.0008171488 0.0003268363 5.743908e-25)
(-0.0008420294 0.000408895 -5.76392e-25)
(-0.0008698349 0.0004955762 -2.962988e-28)
(-0.0008303501 2.939555e-05 6.253393e-25)
(-0.0008369355 9.276164e-05 0)
(-0.0008505222 0.0001567125 3.877938e-27)
(-0.0008700943 0.0002260004 5.502391e-27)
(-0.0008953685 0.00029991 1.256107e-24)
(-0.0009250906 0.0003784118 -6.311151e-25)
(-0.0009586596 0.0004626116 6.343379e-25)
(-0.0008883612 2.498005e-05 6.755754e-25)
(-0.0008976071 8.060142e-05 0)
(-0.0009141826 0.0001375414 7.558406e-27)
(-0.0009369515 0.0001997595 -7.465623e-25)
(-0.0009692047 0.0002674612 5.77242e-25)
(-0.001004274 0.0003421057 0)
(-0.001044857 0.0004231348 -6.904497e-25)
(-0.0009379334 2.003981e-05 0)
(-0.000949122 6.637926e-05 7.25005e-25)
(-0.0009696191 0.0001147115 0)
(-0.0009980417 0.0001684392 -7.41337e-25)
(-0.001035234 0.0002297694 -1.370477e-26)
(-0.001078396 0.0002990228 -1.719008e-26)
(-0.001127511 0.00037592 -7.686494e-25)
(-0.0009767044 1.432321e-05 0)
(-0.0009904291 4.967017e-05 1.546777e-24)
(-0.001015375 8.778926e-05 3.56437e-27)
(-0.001049871 0.0001320938 5.088284e-27)
(-0.001094341 0.0001852552 0)
(-0.001146539 0.0002477951 0)
(-0.001205633 0.0003195694 0)
(-0.001002712 7.605207e-06 8.177912e-25)
(-0.001019557 2.992321e-05 8.209857e-25)
(-0.001049727 5.586299e-05 6.80367e-27)
(-0.001091275 8.905299e-05 4.864777e-27)
(-0.00114454 0.0001324315 0)
(-0.001207372 0.0001868663 8.671512e-25)
(-0.001278173 0.0002524641 3.952831e-26)
(-0.001013624 -3.197498e-07 8.61091e-25)
(-0.001034196 6.57881e-06 8.649522e-25)
(-0.001070507 1.805372e-05 9.532359e-27)
(-0.0011204 3.807011e-05 9.149884e-27)
(-0.001183854 6.970262e-05 0)
(-0.001259496 0.0001144592 9.062791e-25)
(-0.001343939 0.0001727015 1.89896e-26)
(-0.001006692 -9.661539e-06 9.011886e-25)
(-0.001031662 -2.097033e-05 1.810329e-24)
(-0.001075134 -2.664358e-05 9.138971e-25)
(-0.001134752 -2.246539e-05 0)
(-0.00120906 -5.776835e-06 -7.587454e-26)
(-0.0013012 2.81913e-05 -1.295645e-25)
(-0.001401571 7.794387e-05 -3.566745e-26)
(-0.0009787083 -2.065434e-05 9.37164e-25)
(-0.001008852 -5.339913e-05 1.883784e-24)
(-0.001060682 -7.922713e-05 1.904649e-24)
(-0.001131714 -9.34912e-05 9.621844e-25)
(-0.001220226 -9.328078e-05 -1.00718e-26)
(-0.0013281 -7.395279e-05 1.00794e-24)
(-0.001449164 -3.437049e-05 -1.021787e-24)
(-0.0009259297 -3.357333e-05 0)
(-0.000962139 -9.153879e-05 9.73177e-25)
(-0.001023722 -0.0001411495 9.866383e-25)
(-0.001108071 -0.0001773058 2.017775e-24)
(-0.00121321 -0.0001965908 0)
(-0.001340707 -0.0001939264 1.059199e-24)
(-0.00148502 -0.0001673249 -3.796867e-28)
(-0.0008440176 -4.870707e-05 -9.908043e-25)
(-0.0008872849 -0.0001362661 0)
(-0.0009601438 -0.0002138975 0)
(-0.001059884 -0.000276001 -4.549604e-27)
(-0.001184476 -0.0003184502 -1.080861e-24)
(-0.001334825 -0.0003357998 0)
(-0.001506444 -0.0003248378 1.152991e-24)
(-0.0007279967 -6.636283e-05 -2.012621e-24)
(-0.0007794108 -0.0001885047 0)
(-0.0008651721 -0.0002990201 0)
(-0.0009824767 -0.000391859 -1.068263e-24)
(-0.001129212 -0.0004626373 -2.214277e-24)
(-0.001303816 -0.0005071344 1.153775e-24)
(-0.001509082 -0.0005113001 0)
(-0.0005722097 -8.686824e-05 -1.011794e-24)
(-0.0006329444 -0.0002492473 6.889578e-29)
(-0.0007333745 -0.0003981481 -1.053618e-24)
(-0.0008707005 -0.0005268349 -6.951478e-28)
(-0.001042807 -0.0006298855 -2.028846e-27)
(-0.001246596 -0.0007018449 1.19299e-24)
(-0.001486896 -0.0007337684 0)
(-0.0003702789 -0.0001105573 0)
(-0.0004415341 -0.0003195528 1.023208e-24)
(-0.0005584621 -0.000513232 -1.05623e-24)
(-0.0007184721 -0.0006841878 0)
(-0.0009196899 -0.0008261579 1.161578e-24)
(-0.001158574 -0.0009325171 7.94608e-28)
(-0.001440189 -0.0009936145 -4.204175e-27)
(-0.0001151514 -0.0001377176 9.837677e-25)
(-0.0001980003 -0.0004003753 1.006145e-24)
(-0.000333181 -0.0006460276 -1.045752e-24)
(-0.0005183868 -0.0008665711 0)
(-0.0007522087 -0.001054837 -1.094286e-26)
(-0.001031568 -0.001202623 1.636346e-28)
(-0.001360674 -0.001299153 6.115889e-27)
(0.000200783 -0.0001686038 9.453734e-25)
(0.0001057224 -0.000492367 9.723848e-25)
(-4.94058e-05 -0.0007980112 -1.019552e-24)
(-0.000261988 -0.001076388 0)
(-0.0005313906 -0.001319818 0)
(-0.0008550712 -0.00152005 1.262246e-24)
(-0.001233084 -0.001669158 -1.592217e-24)
(0.0005855888 -0.0002030084 8.854571e-25)
(0.0004782329 -0.0005959652 9.157585e-25)
(0.0003017564 -0.0009702905 0)
(6.004583e-05 -0.001315364 -1.078256e-24)
(-0.0002476435 -0.001622797 -3.165739e-26)
(-0.0006196893 -0.001881948 2.55726e-24)
(-0.001053108 -0.002080883 1.048109e-25)
(0.001047562 -0.0002429849 8.043752e-25)
(0.0009307244 -0.0007094329 0)
(0.00073045 -0.001162871 8.939614e-25)
(0.0004582453 -0.001585064 -1.015255e-24)
(0.0001103087 -0.001967929 1.109205e-24)
(-0.000313963 -0.002300278 2.486443e-24)
(-0.000813486 -0.002567413 1.398412e-24)
(0.001600625 -0.0002826205 0)
(0.001465091 -0.0008368705 0)
(0.001246909 -0.001375126 1.630565e-24)
(0.0009442948 -0.001885113 0)
(0.0005556444 -0.00235528 2.094958e-24)
(7.923129e-05 -0.002775124 1.20312e-24)
(-0.000486568 -0.003132989 -1.385247e-24)
(0.002248222 -0.0003301296 5.485304e-25)
(0.002092958 -0.0009816773 -6.205455e-25)
(0.001865653 -0.001600492 -7.012034e-25)
(0.001532841 -0.002211008 0)
(0.001101382 -0.002782125 9.574098e-25)
(0.0005742264 -0.003300815 0)
(-5.734511e-05 -0.003754488 -1.545187e-24)
(0.003000184 -0.0003780936 3.781816e-25)
(0.002837309 -0.001123319 -4.360683e-25)
(0.002580179 -0.001860612 -1.61446e-24)
(0.002243831 -0.002552428 -1.279525e-24)
(0.001763179 -0.003243246 9.350293e-25)
(0.001187733 -0.003878765 1.145184e-25)
(0.0004911297 -0.004452773 -1.28146e-25)
(0.003860552 -0.000428793 3.499354e-27)
(0.00368669 -0.001273382 1.042705e-26)
(0.003423351 -0.002103857 -2.644408e-25)
(0.003056611 -0.002923285 -1.096944e-24)
(0.002557256 -0.003728188 4.336343e-25)
(0.001940569 -0.004498572 2.836419e-25)
(0.001188493 -0.005215139 6.430005e-25)
(0.004834848 -0.0004810075 -4.097292e-27)
(0.004650156 -0.001431757 -1.228178e-26)
(0.00438003 -0.002375534 -1.765363e-25)
(0.003990978 -0.003325001 -1.28585e-24)
(0.003510199 -0.004210983 -1.439203e-24)
(0.002858914 -0.005136197 -1.066871e-24)
(0.002058569 -0.006018209 0)
(0.005923664 -0.0005314478 0)
(0.005730501 -0.001583527 0)
(0.005461285 -0.002629183 1.887337e-25)
(0.005089131 -0.003679119 2.867681e-25)
(0.00458154 -0.004748151 1.495894e-24)
(0.003978733 -0.005752062 1.162815e-24)
(0.003124595 -0.006829166 0)
(0.00712257 -0.000578873 -1.057524e-26)
(0.006923632 -0.001727093 3.178543e-26)
(0.006658628 -0.002872307 1.066151e-25)
(0.006300323 -0.004021319 0)
(0.005824851 -0.00517862 2.604968e-25)
(0.005219741 -0.006365037 -4.715141e-25)
(0.004409881 -0.007595637 -1.115034e-24)
(0.008422826 -0.000620456 -1.078352e-24)
(0.00822383 -0.001855163 3.540484e-26)
(0.007968905 -0.003093672 -8.817934e-25)
(0.007629465 -0.004346195 0)
(0.007186972 -0.005626044 9.428237e-25)
(0.00660197 -0.006965488 -3.5284e-24)
(0.005959171 -0.008236889 -6.380112e-24)
(0.009807627 -0.0006532088 -1.4856e-24)
(0.009619525 -0.001956951 -1.371236e-24)
(0.009380582 -0.003275984 -1.296408e-24)
(0.009073633 -0.004608988 -3.656641e-25)
(0.008683166 -0.005964984 -9.588274e-25)
(0.0081866 -0.007346461 -1.126808e-24)
(0.007591777 -0.008797394 -2.900004e-24)
(0.01125949 -0.0006807142 0)
(0.01109119 -0.002016284 1.749492e-24)
(0.01088449 -0.00339731 1.738726e-24)
(0.01062931 -0.0048021 1.965484e-25)
(0.01032185 -0.006240363 -1.950912e-24)
(0.009926208 -0.00773527 -6.59039e-25)
(0.009364707 -0.009314636 0)
(0.01276848 -0.0006845146 2.387289e-24)
(0.01259056 -0.002063356 4.281259e-24)
(0.0124727 -0.003417379 1.685793e-24)
(0.01231252 -0.004859265 4.216266e-24)
(0.012155 -0.006348855 -2.536744e-24)
(0.01198103 -0.007944741 1.090935e-24)
(0.01166077 -0.009613921 6.488003e-24)
(0.01427541 -0.00066679 2.824563e-24)
(0.01413423 -0.002005055 -4.10793e-26)
(0.01406427 -0.003361021 0)
(0.01413356 -0.004668245 1.464212e-25)
(0.01419935 -0.006141412 5.124563e-24)
(0.0143058 -0.007818966 -1.144917e-22)
(0.01433022 -0.01008598 -2.235123e-23)
(0.01573156 -0.0006245228 -3.265284e-24)
(0.01566387 -0.00183142 7.701788e-26)
(0.0157331 -0.003035912 1.363138e-25)
(0.01592895 -0.00424278 -7.725473e-24)
(0.01631975 -0.005506568 3.529464e-22)
(0.01645038 -0.007238602 -1.690536e-22)
(0.01604185 -0.01034073 -8.588581e-23)
(0.01709363 -0.000526402 -3.655455e-24)
(0.01708754 -0.00151665 0)
(0.01733724 -0.002449983 2.456612e-25)
(0.01774745 -0.00346384 -8.323726e-23)
(0.01794398 -0.004889439 4.665423e-22)
(0.01764552 -0.007211167 -4.182426e-22)
(0.01579792 -0.01152757 4.083776e-22)
(0.01825812 -0.0003555672 0)
(0.0183478 -0.0009702738 1.13158e-25)
(0.01874077 -0.001580349 1.321381e-22)
(0.0192321 -0.002622768 -1.132872e-22)
(0.01923631 -0.004711947 3.365687e-23)
(0.01806076 -0.008766332 -1.438434e-22)
(0.01538387 -0.01311967 -3.798003e-22)
(0.01909777 -9.521587e-05 0)
(0.01923851 -0.0002192007 6.171934e-23)
(0.01966408 -0.0005500194 1.812367e-22)
(0.0199011 -0.001750588 2.922616e-23)
(0.01924096 -0.004819509 -4.484339e-22)
(0.01671125 -0.01042 2.301082e-22)
(0.01358424 -0.01600333 3.60464e-22)
(0.01943856 0.0002222989 -4.364603e-24)
(0.01961833 0.0006138168 4.355856e-23)
(0.01986047 0.0002282375 2.655305e-22)
(0.01948979 -0.001838486 -2.076485e-22)
(0.01737969 -0.00675997 -1.521029e-22)
(0.01375485 -0.01374955 -4.161798e-24)
(0.009287803 -0.01955673 1.293256e-22)
(0.019151 0.0005276617 1.208038e-22)
(0.01929126 0.001278918 6.072754e-23)
(0.01921369 0.0005574463 2.779389e-22)
(0.017946 -0.003245016 -2.257936e-22)
(0.01506306 -0.01016727 4.762278e-22)
(0.01118255 -0.01829985 4.541771e-22)
(0.006182229 -0.02528624 5.577617e-22)
(0.0183043 0.0007996513 3.591079e-22)
(0.01812391 0.001715583 -1.149988e-22)
(0.0173239 -6.138876e-06 1.07462e-23)
(0.015216 -0.005339465 -1.606645e-22)
(0.0123077 -0.01338014 -1.894499e-22)
(0.008550317 -0.02278197 -1.733129e-22)
(0.004589455 -0.03232589 2.87312e-22)
(0.01677239 0.000936801 4.467989e-23)
(0.01608163 0.001394058 -2.899459e-22)
(0.01478352 -0.001581428 1.660397e-22)
(0.01250834 -0.008054425 -1.821191e-22)
(0.009905484 -0.01656877 -7.901714e-23)
(0.00692082 -0.02660511 -2.575227e-22)
(0.002084169 -0.04019282 7.821126e-22)
(0.01450789 0.0007993505 -1.492336e-22)
(0.0132894 0.0007719886 -1.640509e-22)
(0.01200055 -0.003263778 8.121038e-24)
(0.009957955 -0.0103756 -8.109791e-23)
(0.008059869 -0.01913429 1.927452e-22)
(0.005158306 -0.03209174 5.038483e-22)
(-0.002921484 -0.04843844 3.065726e-22)
(0.01181354 0.0003339457 4.746742e-23)
(0.01043043 -0.0003154459 3.822235e-23)
(0.0089853 -0.005164261 3.047964e-22)
(0.007413203 -0.01230468 2.656295e-22)
(0.005641011 -0.02243399 3.694567e-22)
(0.001110346 -0.03853352 -2.460716e-22)
(-0.01144343 -0.05700454 -2.649342e-21)
(0.008623837 -5.62749e-05 2.746082e-23)
(0.007275015 -0.001471284 9.704093e-23)
(0.005833791 -0.006523894 2.197903e-23)
(0.0044692 -0.01381478 -1.819459e-22)
(0.002498732 -0.02671038 -1.689344e-23)
(-0.004282189 -0.04583748 -2.06094e-22)
(-0.01663915 -0.06942069 -8.980858e-22)
(0.004608288 -0.0004052459 3.658263e-23)
(0.003456643 -0.002483922 1.076657e-22)
(0.002254146 -0.007982879 2.545879e-23)
(0.0008574221 -0.01563771 -5.820016e-23)
(-0.001726362 -0.03113828 9.788861e-23)
(-0.008378823 -0.05366107 -4.631509e-23)
(-0.01844592 -0.08023449 -8.693306e-22)
(5.117235e-05 -0.000632385 4.328647e-23)
(-0.0006648903 -0.003207407 7.246746e-24)
(-0.001697718 -0.009099821 -1.266211e-23)
(-0.002971843 -0.0178719 -3.0543e-23)
(-0.005636406 -0.03562092 -2.250123e-23)
(-0.01102404 -0.05999987 -1.333634e-22)
(-0.01664445 -0.08856591 -9.890477e-23)
(-0.005008541 -0.0006979145 9.298848e-24)
(-0.005262729 -0.00379577 1.328515e-23)
(-0.005836664 -0.01025062 6.75286e-23)
(-0.006910327 -0.01971962 -6.458451e-23)
(-0.008760827 -0.03882036 -1.465224e-22)
(-0.01133525 -0.06374874 2.228183e-22)
(-0.01232354 -0.09177889 3.591457e-22)
(-0.01022728 -0.0007633402 -2.060905e-24)
(-0.01003985 -0.003999119 2.233037e-23)
(-0.01001812 -0.01097211 1.193884e-22)
(-0.01071944 -0.02117783 5.268514e-23)
(-0.0118037 -0.03988988 -6.279441e-23)
(-0.01117285 -0.06359886 2.99435e-22)
(-0.007953142 -0.08933715 2.738756e-22)
(-0.01503886 -0.0007824564 -1.396191e-23)
(-0.01439875 -0.004097976 -9.161322e-24)
(-0.01410083 -0.01160829 3.240491e-25)
(-0.01430102 -0.02245169 -2.447599e-23)
(-0.01504314 -0.03973428 -7.37876e-23)
(-0.01256123 -0.06117638 -2.648855e-23)
(-0.006225511 -0.08421822 8.149618e-23)
(-0.01926265 -0.0007287987 4.186133e-24)
(-0.01818965 -0.004124472 -6.487226e-23)
(-0.01746767 -0.01195673 -3.263413e-23)
(-0.01724583 -0.02360164 -5.606943e-23)
(-0.01715206 -0.03923299 9.651525e-23)
(-0.0141138 -0.05852776 5.373814e-23)
(-0.00685942 -0.07976291 -2.415179e-23)
(-0.02284619 -0.0005459613 3.773466e-23)
(-0.02168266 -0.003766057 -1.605415e-23)
(-0.02021244 -0.01201494 -5.917072e-23)
(-0.01903023 -0.02393952 5.440995e-23)
(-0.01718027 -0.03763361 -1.567618e-22)
(-0.01420187 -0.05498908 -1.046884e-22)
(-0.007945761 -0.0758311 4.87963e-22)
(-0.02523717 -0.0006061372 4.285959e-24)
(-0.02410896 -0.003262953 1.704308e-22)
(-0.02235018 -0.01090519 1.494082e-22)
(-0.01951439 -0.02230378 -4.285789e-22)
(-0.01560037 -0.03551558 -8.787713e-22)
(-0.01143897 -0.0507152 -1.386158e-21)
(-0.004800605 -0.06691704 -1.957413e-21)
(-0.02628711 -0.0006088705 -1.988909e-22)
(-0.02501325 -0.002922971 6.152891e-23)
(-0.02316234 -0.008678325 2.015109e-22)
(-0.01976523 -0.01823241 2.072521e-22)
(-0.01443657 -0.03021474 -8.298514e-23)
(-0.0082035 -0.04308882 -3.794589e-22)
(-0.001112533 -0.05536805 -2.977784e-22)
(-0.02646974 -0.0004541912 -3.67632e-22)
(-0.02550132 -0.002158025 -1.407613e-22)
(-0.02359745 -0.007072754 -1.907877e-22)
(-0.02011283 -0.01443295 -2.76165e-23)
(-0.01500595 -0.02393481 1.993247e-22)
(-0.00801047 -0.03462728 5.164121e-22)
(-0.0004576319 -0.04253476 -4.000049e-23)
(-0.02594881 -0.0005012102 -2.190549e-22)
(-0.02536724 -0.001845286 -2.973868e-22)
(-0.02400329 -0.005157378 -1.488479e-22)
(-0.02068724 -0.0109043 -8.068958e-23)
(-0.01641387 -0.01840428 2.027316e-22)
(-0.01002669 -0.02664483 4.166814e-22)
(-0.003574433 -0.03303225 -4.239467e-22)
(-0.02460068 -0.0006088231 -9.771436e-23)
(-0.02413413 -0.001898816 -1.952424e-22)
(-0.02338305 -0.004087948 -3.024637e-23)
(-0.0213246 -0.008236514 2.974842e-23)
(-0.01796216 -0.01405262 7.219562e-22)
(-0.01327796 -0.02084383 2.159623e-21)
(-0.007694614 -0.0264456 1.740079e-21)
(-0.0225425 -0.000776211 -5.281589e-24)
(-0.0221703 -0.002237865 -3.748924e-22)
(-0.02180104 -0.004029905 9.13224e-23)
(-0.02075736 -0.007066097 2.05141e-22)
(-0.0185065 -0.01134245 3.478003e-23)
(-0.01517579 -0.01656558 -2.971705e-23)
(-0.01073584 -0.02147337 -5.883165e-22)
(-0.02010486 -0.0009533335 0)
(-0.01975767 -0.002712832 -4.456886e-22)
(-0.01951834 -0.004357204 1.108921e-22)
(-0.01905369 -0.00647353 7.728358e-23)
(-0.0176378 -0.009799706 2.492851e-22)
(-0.01527882 -0.01412771 3.477211e-22)
(-0.01201516 -0.01877643 -1.06454e-21)
(-0.01750288 -0.001060303 0)
(-0.01718394 -0.002995372 -1.979623e-25)
(-0.01691969 -0.00478817 2.552396e-23)
(-0.0166327 -0.006713504 3.368064e-23)
(-0.01583107 -0.00928897 -2.437222e-24)
(-0.01412883 -0.01241621 8.264066e-23)
(-0.01153077 -0.01562403 -1.992975e-22)
(-0.0149705 -0.001065214 -3.659684e-24)
(-0.01460188 -0.003148305 0)
(-0.01425653 -0.005056484 0)
(-0.01388229 -0.006889894 2.595429e-23)
(-0.01321369 -0.008885269 -9.307956e-22)
(-0.01202161 -0.01102916 -1.0637e-22)
(-0.01028877 -0.01420892 1.393791e-22)
(-0.01253046 -0.001048461 -3.058063e-24)
(-0.01215159 -0.003097736 -1.072479e-25)
(-0.01171196 -0.005046411 -1.858353e-25)
(-0.01117235 -0.006897175 -2.065175e-24)
(-0.01058035 -0.008570787 -6.061868e-22)
(-0.009675642 -0.01051613 -3.689508e-22)
(-0.008459427 -0.01272547 5.010146e-22)
(-0.01027375 -0.0009762236 0)
(-0.009890998 -0.002909925 2.359308e-24)
(-0.00938195 -0.004802371 0)
(-0.008772331 -0.006527664 -5.123999e-25)
(-0.007996719 -0.008250784 -6.880621e-25)
(-0.007090651 -0.009931922 -9.274883e-23)
(-0.005982172 -0.01162386 5.208441e-22)
(-0.008194582 -0.0008905962 0)
(-0.007824288 -0.0026695 -1.732591e-24)
(-0.007328703 -0.004365605 1.608987e-24)
(-0.00663963 -0.006054311 0)
(-0.005791357 -0.007657813 -1.275785e-24)
(-0.004816487 -0.00911517 -2.415559e-24)
(-0.00365926 -0.01059721 3.11847e-22)
(-0.00630717 -0.0008084245 0)
(-0.005985907 -0.002378657 -3.620633e-24)
(-0.005486415 -0.003943708 -6.572085e-27)
(-0.004803395 -0.005466676 -2.502465e-24)
(-0.003956838 -0.006883707 -1.158462e-24)
(-0.002929287 -0.00826009 1.646452e-25)
(-0.001685571 -0.009593545 -7.02685e-24)
(-0.004639901 -0.0007138883 8.236675e-25)
(-0.004333089 -0.002118434 -7.958159e-25)
(-0.003865188 -0.003492449 2.705547e-27)
(-0.00322346 -0.004821841 -4.094401e-25)
(-0.002395469 -0.006090172 0)
(-0.001391455 -0.007277185 0)
(-0.0001641013 -0.008364962 3.535855e-24)
(-0.003173702 -0.0006258928 3.617375e-25)
(-0.002884617 -0.001858472 -3.075827e-25)
(-0.002446291 -0.003060407 1.085546e-25)
(-0.001851395 -0.004203084 -1.081537e-25)
(-0.001068071 -0.005317473 0)
(-8.727776e-05 -0.006379582 0)
(0.001071297 -0.007230671 2.383496e-25)
(-0.001897616 -0.0005424478 1.917643e-26)
(-0.001631351 -0.001608371 -1.232001e-26)
(-0.00122787 -0.002629707 -1.075572e-25)
(-0.0006679577 -0.003618467 -6.281177e-25)
(6.725297e-05 -0.004557897 1.160006e-24)
(0.0009842845 -0.005374715 3.695545e-24)
(0.002103528 -0.006145321 -2.088959e-24)
(-0.0008052885 -0.0004620542 3.474056e-25)
(-0.0005670568 -0.001365642 -2.748223e-26)
(-0.0001940298 -0.002235117 9.08709e-26)
(0.0003219111 -0.003061323 1.252748e-25)
(0.00100351 -0.003833388 0)
(0.001848864 -0.004496659 1.05557e-24)
(0.002868081 -0.005093305 -1.747566e-24)
(0.0001160639 -0.000389693 0)
(0.0003273945 -0.001144824 -4.576827e-26)
(0.0006669277 -0.001872569 -7.502833e-26)
(0.00114767 -0.00256467 -1.233156e-24)
(0.00175511 -0.003148467 1.062026e-24)
(0.002526441 -0.00369313 -3.393949e-24)
(0.003422798 -0.004124783 -2.212439e-24)
(0.0008785597 -0.0003209584 -6.285074e-27)
(0.001067011 -0.000942778 -1.842641e-26)
(0.001371018 -0.001532697 0)
(0.001799553 -0.002076611 -3.086764e-27)
(0.002355486 -0.002561023 -1.421431e-24)
(0.003026641 -0.002964452 -1.668187e-24)
(0.003810943 -0.003260972 -2.535518e-25)
(0.001499688 -0.00026082 -1.055021e-24)
(0.001666335 -0.0007649586 1.074972e-24)
(0.001940584 -0.001244394 -2.693675e-24)
(0.002311941 -0.001658253 2.393408e-24)
(0.002802808 -0.002031216 -1.610597e-24)
(0.00338543 -0.002319312 0)
(0.00406286 -0.002506798 1.856308e-25)
(0.001996945 -0.0002080495 -1.190166e-24)
(0.00214633 -0.0006091624 1.257449e-24)
(0.002381091 -0.0009703981 -1.338901e-24)
(0.002712087 -0.00129856 0)
(0.003130603 -0.001567842 1.603967e-24)
(0.003630672 -0.001762311 0)
(0.004207015 -0.001866676 -1.989628e-24)
(0.002385021 -0.0001606172 0)
(0.002511721 -0.0004654412 0)
(0.002719039 -0.0007442734 2.833809e-24)
(0.003002868 -0.0009830003 0)
(0.00335991 -0.001168291 3.291382e-24)
(0.00378556 -0.001287049 1.796586e-24)
(0.004271426 -0.001325436 -1.968671e-24)
(0.002680121 -0.0001219945 1.372046e-24)
(0.002785474 -0.0003456911 0)
(0.002964402 -0.0005475414 1.478492e-24)
(0.003206389 -0.0007119069 -1.544558e-24)
(0.003508962 -0.0008282123 1.662065e-24)
(0.00386744 -0.0008847752 3.575969e-24)
(0.004272361 -0.0008679836 1.930001e-24)
(0.002893383 -8.655214e-05 1.418542e-24)
(0.002983358 -0.0002441958 1.448511e-24)
(0.003134402 -0.0003799068 0)
(0.003338506 -0.0004824327 -1.557952e-24)
(0.003592571 -0.0005425343 1.14107e-26)
(0.00389131 -0.0005506541 3.515541e-24)
(0.004226407 -0.0004986109 -1.485329e-26)
(0.00303919 -5.744223e-05 1.441382e-24)
(0.003114633 -0.0001578141 1.464337e-24)
(0.00324143 -0.0002387025 -1.507031e-24)
(0.003411957 -0.0002902751 0)
(0.003623171 -0.0003045032 0)
(0.003869243 -0.0002725846 1.723429e-24)
(0.004144371 -0.0001832669 -1.804548e-24)
(0.003128736 -3.295532e-05 1.445708e-24)
(0.003191261 -8.554302e-05 1.464258e-24)
(0.003296598 -0.000121189 -1.498683e-24)
(0.003437589 -0.0001312522 0)
(0.003611125 -0.0001088754 -6.981419e-27)
(0.003811184 -4.662832e-05 -2.20929e-28)
(0.004040208 6.800933e-05 2.017936e-26)
(0.003171533 -1.267248e-05 0)
(0.003222755 -2.577366e-05 1.449205e-24)
(0.00330942 -2.448938e-05 -1.477267e-24)
(0.003424809 -1.22511e-06 0)
(0.003565847 4.962539e-05 1.577226e-24)
(0.003726856 0.000133741 4.005431e-26)
(0.003912113 0.0002622827 2.842086e-26)
(0.003175909 3.968461e-06 -1.411686e-24)
(0.003217426 2.31166e-05 1.214351e-27)
(0.003288056 5.423988e-05 -1.442464e-24)
(0.003381626 0.0001039635 6.691842e-27)
(0.003495147 0.000176859 9.282164e-27)
(0.00362384 0.0002774926 1.556459e-24)
(0.003772366 0.0004153935 0)
(0.003149015 1.748044e-05 -2.75659e-24)
(0.003182317 6.270414e-05 0)
(0.003239339 0.0001177364 0)
(0.003314507 0.0001884318 -1.436848e-24)
(0.003404701 0.0002787583 -2.927331e-24)
(0.003505721 0.000393642 1.4904e-24)
(0.0036274 0.0005371948 0)
(0.003096947 2.834037e-05 -1.337035e-24)
(0.003123362 9.44309e-05 1.94473e-27)
(0.003168923 0.0001684251 3.395013e-27)
(0.003228643 0.0002555215 1.013722e-26)
(0.003299623 0.0003588708 -1.384521e-24)
(0.003382744 0.0004843046 0)
(0.003470845 0.0006327757 1.453633e-24)
(0.003024824 3.69731e-05 3.519833e-28)
(0.00304552 0.0001195685 1.29754e-24)
(0.003081501 0.0002084059 1.308205e-24)
(0.003128328 0.0003081322 2.637263e-24)
(0.003183466 0.0004212355 0)
(0.003249004 0.0005534757 1.348905e-24)
(0.003314379 0.0007042205 -5.717373e-28)
(0.002936923 4.374749e-05 1.237543e-24)
(0.002952911 0.0001392154 2.482616e-24)
(0.002980957 0.00023947 2.500495e-24)
(0.003017069 0.0003487202 1.270353e-24)
(0.003059079 0.0004690705 1.549967e-26)
(0.003109574 0.0006054593 1.278539e-24)
(0.003157757 0.0007570894 -1.324773e-24)
(0.002836787 4.899527e-05 1.182398e-24)
(0.002848936 0.000154349 2.368309e-24)
(0.002870415 0.0002633089 1.18931e-24)
(0.002897434 0.0003799679 0)
(0.002927451 0.0005070963 1.115686e-25)
(0.00296802 0.0006443453 1.855163e-25)
(0.003001636 0.0007954217 4.961569e-26)
(0.002727329 5.299719e-05 1.125072e-24)
(0.0027364 0.000165755 1.123972e-24)
(0.002752437 0.0002810395 -1.332793e-26)
(0.002772141 0.0004025773 -1.267631e-26)
(0.002795786 0.0005333528 0)
(0.002820726 0.0006736212 1.14579e-24)
(0.002846225 0.0008218101 -2.535146e-26)
(0.002610938 5.603116e-05 1.065436e-24)
(0.002617637 0.0001741555 1.063849e-24)
(0.002629176 0.0002938248 -9.100193e-27)
(0.002643034 0.0004187325 -6.463511e-27)
(0.002660071 0.0005517288 0)
(0.002675369 0.0006922005 1.054876e-24)
(0.00269268 0.0008382525 -5.105827e-26)
(0.002489786 5.835937e-05 -4.485249e-28)
(0.002494385 0.0001801505 2.006549e-24)
(0.002502271 0.000302546 -4.600383e-27)
(0.002511479 0.000429614 -6.534594e-27)
(0.002522805 0.0005634673 0)
(0.002531307 0.000703204 0)
(0.002541472 0.0008469373 0)
(0.002365747 5.984718e-05 0)
(0.002367886 0.0001839898 9.423348e-25)
(0.002373017 0.000308102 0)
(0.002378497 0.0004363925 -9.293167e-25)
(0.002385446 0.000570048 1.701616e-26)
(0.002388758 0.0007084124 2.12227e-26)
(0.00239316 0.0008494494 -9.168707e-25)
(0.002239536 6.014517e-05 8.823347e-25)
(0.002239623 0.0001858222 0)
(0.002242332 0.0003117835 -9.229845e-27)
(0.002244047 0.000441564 -7.956255e-25)
(0.002249349 0.000572818 1.005193e-24)
(0.002248322 0.0007092509 0)
(0.002248184 0.0008472098 -8.749293e-25)
(0.002111917 5.993261e-05 8.211933e-25)
(0.002110725 0.0001861749 0)
(0.002111913 0.0003132212 -4.633739e-27)
(0.002112309 0.0004426128 -6.559108e-27)
(0.002111829 0.0005739554 1.627613e-24)
(0.002110059 0.0007069602 -8.122578e-25)
(0.002106877 0.0008415302 8.100919e-25)
(0.001982859 5.92702e-05 0)
(0.001982411 0.000185899 7.558857e-25)
(0.001982175 0.0003130662 -4.628323e-27)
(0.001980704 0.0004417419 -7.519299e-25)
(0.001977478 0.0005721301 7.512728e-25)
(0.0019744 0.0007023851 -7.491074e-25)
(0.001969383 0.0008336452 -3.461081e-28)
(0.001854124 6.009753e-05 0)
(0.001854062 0.0001861723 6.981551e-25)
(0.00185285 0.0003115653 -6.962869e-25)
(0.001850227 0.0004393138 -6.97382e-25)
(0.001845599 0.0005684602 6.819724e-25)
(0.001841354 0.0006967724 -2.052601e-26)
(0.00183551 0.0008249403 -6.845151e-25)
(0.001727031 6.008815e-05 0)
(0.001725028 0.0001858922 0)
(0.001723174 0.0003098584 -6.360948e-25)
(0.001721441 0.0004362647 6.313046e-25)
(0.001716115 0.0005642628 -2.461498e-28)
(0.001711075 0.0006906287 0)
(0.001704798 0.0008164129 0)
(0.001599682 5.912436e-05 5.811742e-25)
(0.001597645 0.0001839926 -5.790744e-25)
(0.001595684 0.0003091739 -2.839825e-25)
(0.001592352 0.000434447 5.781954e-25)
(0.001588094 0.0005594397 2.332121e-28)
(0.001583283 0.0006842703 -2.011643e-26)
(0.001577243 0.0008087909 -1.197416e-29)
(0.001472836 5.92678e-05 -4.287684e-29)
(0.001471242 0.0001838803 -5.203038e-25)
(0.001468719 0.000306111 -2.546235e-25)
(0.001466119 0.0004313 6.357538e-27)
(0.00145973 0.0005569928 1.033563e-24)
(0.001457347 0.0006790783 9.981772e-27)
(0.001451418 0.0008019719 0)
(0.001347344 5.887751e-05 -4.639956e-25)
(0.00134521 0.0001822592 2.310704e-25)
(0.001342396 0.0003060821 2.301323e-25)
(0.001339357 0.00042828 0)
(0.001334458 0.0005528282 4.552726e-25)
(0.00133031 0.0006758472 9.916436e-27)
(0.001326809 0.0007964572 1.167904e-26)
(0.001222779 5.859264e-05 0)
(0.001220404 0.0001817543 2.02093e-25)
(0.00121635 0.0003034918 1.660737e-25)
(0.001212987 0.0004264218 -4.92983e-26)
(0.00120934 0.0005504727 2.075842e-25)
(0.001203284 0.0006716653 9.869121e-27)
(0.001202233 0.0007928484 0)
(0.00109925 5.799385e-05 0)
(0.001095868 0.0001796255 1.384863e-27)
(0.001091713 0.0003013246 -2.280305e-27)
(0.001088363 0.0004242905 1.720758e-25)
(0.00108166 0.0005464333 8.019896e-27)
(0.001078546 0.0006679341 -7.705113e-26)
(0.001079445 0.0007952626 -1.770918e-25)
(0.0009770219 5.646197e-05 -2.342586e-28)