/*--------------------------------*- C++ -*----------------------------------*\
| =========                 |                                                 |
| \\      /  F ield         | OpenFOAM: The Open Source CFD Toolbox           |
|  \\    /   O peration     | Version:  2206                                  |
|   \\  /    A nd           | Website:  www.openfoam.com                      |
|    \\/     M anipulation  |                                                 |
\*---------------------------------------------------------------------------*/
FoamFile
{
    version     2.0;
    format      ascii;
    arch        "LSB;label=32;scalar=64";
    class       surfaceVectorField;
    location    "2";
    object      ddtCorrDdt0(Ufa);
}
// * * * * * * * * * * * * * * * * * * * * * * * * * * * * * * * * * * * * * //

dimensions      [0 1 -2 0 0 0 0];

internalField   nonuniform List<vector> 
26037
(
(1.791845e-05 -0.0001077902 3.652017e-23)
(-1.708845e-05 -0.0001069639 2.029497e-27)
(3.051073e-06 -3.512609e-05 -6.898999e-24)
(-1.064681e-05 -4.24296e-05 1.647917e-26)
(4.190356e-07 -1.208506e-05 -4.300136e-30)
(-3.360353e-06 -1.445531e-05 -4.309901e-30)
(4.957315e-08 -5.244535e-06 1.007082e-29)
(-1.141162e-06 -6.141132e-06 0)
(-4.360972e-08 -2.831964e-06 1.023405e-26)
(-6.821788e-07 -3.559757e-06 1.009241e-29)
(-9.088464e-08 -1.319321e-06 2.598102e-29)
(-4.638572e-07 -1.814205e-06 -2.08636e-29)
(-3.495316e-07 -7.101882e-07 1.401633e-29)
(-1.209151e-07 -4.237704e-07 -4.024856e-27)
(-4.340868e-05 -3.93543e-05 -1.986521e-33)
(-3.691912e-05 -2.709899e-05 -7.267307e-30)
(-1.726933e-05 -2.135099e-05 -2.005614e-33)
(-1.930738e-05 -1.997734e-05 5.843035e-30)
(-4.915626e-06 -8.466927e-06 0)
(-6.763326e-06 -8.55168e-06 -4.425598e-30)
(-1.873267e-06 -4.452397e-06 2.279865e-32)
(-2.947201e-06 -4.795542e-06 -1.557759e-29)
(-1.101623e-06 -2.542862e-06 3.50997e-32)
(-1.757606e-06 -2.926108e-06 6.721998e-30)
(-7.219874e-07 -1.20451e-06 3.870042e-32)
(-1.136549e-06 -1.509662e-06 1.230821e-32)
(-7.841908e-07 -5.534417e-07 -5.389623e-29)
(-5.17886e-07 -3.70096e-07 1.58044e-29)
(-1.284492e-05 -7.477829e-06 -1.390751e-30)
(-8.889953e-06 -3.779428e-06 4.992111e-25)
(-8.798262e-06 -7.055691e-06 1.51535e-30)
(-8.215951e-06 -5.338354e-06 -2.34755e-25)
(-4.768709e-06 -4.830576e-06 4.520494e-26)
(-5.274473e-06 -4.27911e-06 1.303094e-29)
(-2.830768e-06 -3.266652e-06 9.824714e-27)
(-3.430454e-06 -3.218615e-06 -7.322116e-30)
(-1.792567e-06 -1.892549e-06 -9.855821e-30)
(-2.283215e-06 -2.015179e-06 -2.120162e-28)
(-1.198571e-06 -8.578673e-07 7.84615e-35)
(-1.562359e-06 -9.984436e-07 0)
(-1.103103e-06 -2.668961e-07 5.327001e-29)
(-8.457597e-07 -1.841822e-07 -1.578279e-29)
(-4.227305e-06 -1.636455e-06 1.08372e-29)
(-2.619246e-06 -7.172359e-07 -7.665447e-30)
(-4.698078e-06 -2.544305e-06 3.620898e-29)
(-4.005824e-06 -1.573321e-06 -4.212357e-26)
(-3.921521e-06 -2.640703e-06 1.353066e-27)
(-3.902278e-06 -2.092648e-06 1.989603e-26)
(-2.883255e-06 -1.957827e-06 8.151369e-30)
(-3.14677e-06 -1.759703e-06 -2.33435e-26)
(-2.053177e-06 -1.120321e-06 -2.983712e-31)
(-2.374113e-06 -1.104583e-06 -2.571423e-30)
(-1.466592e-06 -4.065636e-07 -1.522897e-31)
(-1.753497e-06 -4.383507e-07 7.276729e-34)
(-1.298636e-06 6.782668e-08 -1.320729e-29)
(-1.071502e-06 7.635612e-08 1.539761e-29)
(-2.393438e-06 -6.67131e-07 2.160783e-27)
(-1.408742e-06 -2.328105e-07 2.675628e-32)
(-3.209378e-06 -1.115083e-06 -6.258941e-28)
(-2.668697e-06 -6.055659e-07 1.376393e-29)
(-3.122668e-06 -1.203739e-06 5.502063e-29)
(-2.976519e-06 -8.361473e-07 2.772942e-29)
(-2.635369e-06 -8.948618e-07 -2.671684e-27)
(-2.732899e-06 -6.987935e-07 1.955684e-26)
(-2.074618e-06 -4.177393e-07 -1.602636e-26)
(-2.283502e-06 -3.458872e-07 3.376877e-27)
(-1.585285e-06 3.716471e-08 6.436531e-27)
(-1.812829e-06 6.083064e-08 1.138076e-29)
(-1.412064e-06 3.868831e-07 -1.077272e-28)
(-1.212563e-06 3.473589e-07 -1.305498e-29)
(-1.682561e-06 -1.841327e-07 -2.050209e-31)
(-1.06495e-06 -2.906344e-08 0)
(-2.43224e-06 -3.231949e-07 3.810779e-28)
(-2.073094e-06 -9.035689e-08 2.232645e-29)
(-2.585987e-06 -3.306998e-07 1.456143e-28)
(-2.459792e-06 -1.344019e-07 2.809552e-29)
(-2.381443e-06 -1.442655e-07 1.479759e-27)
(-2.441286e-06 -1.941702e-08 2.527953e-29)
(-2.021501e-06 1.389039e-07 1.022193e-29)
(-2.181794e-06 2.103991e-07 7.112514e-27)
(-1.639436e-06 4.148504e-07 -2.30266e-26)
(-1.836692e-06 4.622382e-07 1.00937e-29)
(-1.495922e-06 6.585798e-07 2.756988e-29)
(-1.309082e-06 5.935049e-07 -9.995437e-27)
(-1.454878e-06 5.223315e-08 2.251976e-29)
(-1.021377e-06 6.147472e-08 -4.337708e-29)
(-2.097549e-06 9.97433e-08 5.02752e-29)
(-1.879901e-06 1.707388e-07 8.759485e-27)
(-2.31392e-06 1.776063e-07 2.33806e-27)
(-2.248433e-06 2.476495e-07 -1.456506e-26)
(-2.24105e-06 3.385323e-07 2.817497e-29)
(-2.31849e-06 3.900425e-07 7.500142e-30)
(-1.997309e-06 5.363591e-07 5.18948e-28)
(-2.157056e-06 5.745669e-07 7.286014e-29)
(-1.693612e-06 7.115081e-07 -1.466763e-30)
(-1.886354e-06 7.588143e-07 -2.934263e-30)
(-1.59124e-06 8.818791e-07 -1.705415e-30)
(-1.400794e-06 8.0432e-07 6.76492e-31)
(-1.446523e-06 1.683665e-07 -1.646023e-29)
(-1.091149e-06 1.030654e-07 -1.045817e-26)
(-2.02948e-06 3.182058e-07 5.366433e-29)
(-1.906793e-06 2.998964e-07 -3.575109e-29)
(-2.25294e-06 4.586632e-07 2.700484e-29)
(-2.250592e-06 4.476297e-07 -5.069843e-30)
(-2.234043e-06 6.286484e-07 5.260938e-29)
(-2.354923e-06 6.238067e-07 -9.567644e-31)
(-2.045393e-06 7.98497e-07 5.074676e-29)
(-2.228311e-06 8.034433e-07 3.611041e-26)
(-1.784104e-06 9.321247e-07 1.11293e-27)
(-1.991773e-06 9.637575e-07 -2.943631e-30)
(-1.715901e-06 1.061327e-06 -1.717206e-30)
(-1.512765e-06 9.82277e-07 1.358889e-29)
(-1.550825e-06 2.23066e-07 -6.265933e-29)
(-1.213243e-06 1.2185e-07 -6.079918e-27)
(-2.127569e-06 4.300568e-07 -9.447856e-29)
(-2.056605e-06 3.62836e-07 -2.256106e-26)
(-2.351325e-06 6.106033e-07 -9.232622e-28)
(-2.401356e-06 5.527698e-07 8.230663e-27)
(-2.348381e-06 8.019053e-07 1.20527e-28)
(-2.51281e-06 7.589992e-07 6.992263e-29)
(-2.17557e-06 9.700433e-07 4.826631e-28)
(-2.396072e-06 9.508785e-07 -5.418205e-27)
(-1.92424e-06 1.094539e-06 -1.474431e-30)
(-2.159881e-06 1.112258e-06 -1.473977e-30)
(-1.878213e-06 1.207232e-06 0)
(-1.653686e-06 1.13436e-06 -2.899915e-29)
(-1.719162e-06 2.498528e-07 -1.395817e-29)
(-1.363032e-06 1.306768e-07 5.749436e-29)
(-2.330223e-06 4.862634e-07 -1.070699e-28)
(-2.284345e-06 3.944714e-07 -7.148615e-29)
(-2.562177e-06 6.979651e-07 3.414534e-29)
(-2.647763e-06 6.118478e-07 -1.154697e-28)
(-2.560469e-06 9.111805e-07 7.038251e-29)
(-2.767752e-06 8.445615e-07 -4.854585e-27)
(-2.380527e-06 1.094059e-06 3.407296e-32)
(-2.639809e-06 1.057044e-06 -2.116045e-26)
(-2.114688e-06 1.226261e-06 0)
(-2.385427e-06 1.233875e-06 0)
(-2.077019e-06 1.339961e-06 0)
(-1.823758e-06 1.271144e-06 -3.719601e-29)
(-1.92823e-06 2.639749e-07 0)
(-1.531263e-06 1.355446e-07 0)
(-2.602025e-06 5.198622e-07 -7.985132e-29)
(-2.562601e-06 4.14387e-07 8.929011e-29)
(-2.852127e-06 7.55563e-07 -1.841658e-30)
(-2.962075e-06 6.532051e-07 -4.416194e-27)
(-2.846488e-06 9.932014e-07 7.9253e-29)
(-3.090366e-06 9.111455e-07 -8.04682e-30)
(-2.64546e-06 1.197938e-06 -3.586587e-32)
(-2.944724e-06 1.148745e-06 1.743607e-26)
(-2.348776e-06 1.348575e-06 0)
(-2.657605e-06 1.348833e-06 0)
(-2.307955e-06 1.47407e-06 -8.849411e-29)
(-2.020864e-06 1.406859e-06 3.744687e-29)
(-2.165401e-06 2.747085e-07 8.925296e-29)
(-1.713997e-06 1.402793e-07 0)
(-2.922135e-06 5.475591e-07 5.859358e-31)
(-2.87604e-06 4.332842e-07 1.539901e-26)
(-3.199406e-06 8.052823e-07 -1.767894e-28)
(-3.325852e-06 6.924009e-07 -8.8154e-29)
(-3.188366e-06 1.069222e-06 -3.668929e-28)
(-3.466752e-06 9.759674e-07 -6.724451e-27)
(-2.957544e-06 1.300475e-06 8.860038e-29)
(-3.297647e-06 1.242214e-06 1.850928e-28)
(-2.617921e-06 1.475098e-06 -8.846364e-29)
(-2.967383e-06 1.470209e-06 -9.512259e-29)
(-2.56518e-06 1.618463e-06 -2.900515e-26)
(-2.240858e-06 1.550931e-06 1.337085e-27)
(-2.42451e-06 2.873281e-07 9.858694e-29)
(-1.907717e-06 1.467884e-07 8.591433e-29)
(-3.279999e-06 5.777851e-07 2.274689e-28)
(-3.220946e-06 4.561468e-07 9.860307e-29)
(-3.591987e-06 8.589225e-07 -9.62139e-29)
(-3.731607e-06 7.371535e-07 1.360431e-30)
(-3.575262e-06 1.151517e-06 -9.067135e-32)
(-3.886827e-06 1.048979e-06 -9.709164e-29)
(-3.308209e-06 1.412696e-06 1.210826e-30)
(-3.693595e-06 1.347999e-06 3.071727e-26)
(-2.915893e-06 1.614105e-06 -9.517359e-29)
(-3.310262e-06 1.606352e-06 -2.317556e-26)
(-2.845445e-06 1.778639e-06 2.932389e-26)
(-2.479856e-06 1.708513e-06 -4.966832e-32)
(-2.703864e-06 3.037341e-07 8.59309e-29)
(-2.112818e-06 1.553042e-07 2.550072e-27)
(-3.672329e-06 6.148984e-07 6.789513e-31)
(-3.595658e-06 4.850509e-07 0)
(-4.024788e-06 9.22864e-07 3.618031e-28)
(-4.175526e-06 7.919499e-07 2.029549e-30)
(-4.004521e-06 1.247577e-06 2.142035e-28)
(-4.345674e-06 1.135644e-06 -1.276962e-28)
(-3.69659e-06 1.542593e-06 1.070278e-28)
(-4.138243e-06 1.473675e-06 4.036698e-26)
(-3.241078e-06 1.771145e-06 -1.221275e-30)
(-3.688432e-06 1.763999e-06 -1.043446e-28)
(-3.149538e-06 1.958978e-06 -9.366241e-30)
(-2.736824e-06 1.882812e-06 5.577838e-30)
(-3.004142e-06 3.246915e-07 9.306223e-29)
(-2.330644e-06 1.662411e-07 9.301935e-29)
(-4.098564e-06 6.612168e-07 1.349002e-30)
(-4.001804e-06 5.212272e-07 1.251118e-28)
(-4.495085e-06 1.000475e-06 1.645269e-27)
(-4.660076e-06 8.582733e-07 1.349346e-30)
(-4.481239e-06 1.361943e-06 -6.755057e-27)
(-4.846086e-06 1.236209e-06 3.793752e-26)
(-4.130783e-06 1.697794e-06 9.673991e-29)
(-4.630953e-06 1.621275e-06 9.477278e-29)
(-3.59799e-06 1.951835e-06 -1.125056e-28)
(-4.10435e-06 1.946266e-06 -3.074999e-30)
(-3.481773e-06 2.163778e-06 -3.286331e-26)
(-3.014459e-06 2.077468e-06 -2.237094e-28)
(-3.327381e-06 3.508813e-07 1.250513e-28)
(-2.562336e-06 1.8054e-07 0)
(-4.562276e-06 7.175532e-07 1.25137e-28)
(-4.44356e-06 5.673828e-07 -1.140275e-26)
(-5.007531e-06 1.090964e-06 -1.264129e-28)
(-5.192307e-06 9.411644e-07 6.644041e-31)
(-4.996396e-06 1.48992e-06 -3.332508e-27)
(-5.395297e-06 1.358423e-06 -1.25601e-28)
(-4.60131e-06 1.873521e-06 -5.592291e-30)
(-5.165974e-06 1.793848e-06 -2.511289e-30)
(-3.989254e-06 2.158034e-06 -4.104689e-28)
(-4.56396e-06 2.158666e-06 -3.073663e-30)
(-3.850554e-06 2.400555e-06 -1.257059e-28)
(-3.318474e-06 2.297163e-06 -1.299803e-28)
(-3.677293e-06 3.851344e-07 2.678804e-28)
(-2.810143e-06 1.995185e-07 1.140298e-28)
(-5.072794e-06 7.904007e-07 2.687284e-28)
(-4.927454e-06 6.275818e-07 -1.963166e-26)
(-5.579381e-06 1.207063e-06 6.949263e-28)
(-5.784619e-06 1.048051e-06 1.972624e-30)
(-5.568305e-06 1.653072e-06 9.605283e-31)
(-6.016182e-06 1.515805e-06 1.877144e-30)
(-5.12239e-06 2.083256e-06 0)
(-5.760909e-06 2.004781e-06 0)
(-4.425781e-06 2.40085e-06 0)
(-5.080765e-06 2.414179e-06 1.459168e-28)
(-4.268074e-06 2.68183e-06 7.258127e-30)
(-3.658699e-06 2.55204e-06 4.236924e-30)
(-4.058623e-06 4.300546e-07 -3.541338e-27)
(-3.076649e-06 2.247112e-07 -2.822475e-26)
(-5.638068e-06 8.843988e-07 6.817192e-28)
(-5.461431e-06 7.058858e-07 2.944642e-28)
(-6.220516e-06 1.354996e-06 8.902646e-28)
(-6.447293e-06 1.184812e-06 3.216771e-30)
(-6.212602e-06 1.856888e-06 9.465882e-31)
(-6.717928e-06 1.715002e-06 2.751645e-30)
(-5.711762e-06 2.339729e-06 1.476131e-28)
(-6.434464e-06 2.266372e-06 0)
(-4.923437e-06 2.694451e-06 1.446854e-27)
(-5.676834e-06 2.729024e-06 3.582849e-26)
(-4.75134e-06 3.024086e-06 1.084575e-29)
(-4.048755e-06 2.856105e-06 1.595659e-27)
(-4.47719e-06 4.886875e-07 -3.497335e-27)
(-3.364764e-06 2.577693e-07 2.480801e-28)
(-6.26891e-06 1.005151e-06 9.15488e-28)
(-6.054747e-06 8.069728e-07 -4.425013e-26)
(-6.94334e-06 1.542614e-06 2.244322e-27)
(-7.193377e-06 1.358968e-06 1.615824e-28)
(-6.943445e-06 2.112807e-06 1.849324e-30)
(-7.511759e-06 1.965448e-06 1.819733e-30)
(-6.391308e-06 2.658493e-06 1.549162e-28)
(-7.199397e-06 2.590252e-06 -1.634421e-29)
(-5.505069e-06 3.058161e-06 1.565868e-28)
(-6.38559e-06 3.120925e-06 1.273203e-28)
(-5.32305e-06 3.446807e-06 -3.441035e-30)
(-4.506719e-06 3.228385e-06 2.41856e-27)
(-4.939306e-06 5.643323e-07 4.465375e-28)
(-3.677367e-06 3.004056e-07 -5.557831e-26)
(-6.97683e-06 1.159189e-06 4.790013e-28)
(-6.716249e-06 9.355411e-07 -6.42558e-26)
(-7.760332e-06 1.778851e-06 1.597906e-28)
(-8.035573e-06 1.577223e-06 -5.937665e-26)
(-7.771428e-06 2.431731e-06 -1.619605e-29)
(-8.412373e-06 2.273511e-06 1.670706e-28)
(-7.194191e-06 3.052394e-06 -3.636366e-26)
(-8.07428e-06 2.981909e-06 -1.847469e-29)
(-6.201018e-06 3.512504e-06 -7.43144e-28)
(-7.213596e-06 3.597533e-06 1.48319e-28)
(-5.994288e-06 3.958972e-06 -1.770843e-28)
(-5.054619e-06 3.689243e-06 -7.029893e-30)
(-5.450303e-06 6.60179e-07 4.057574e-27)
(-4.016464e-06 3.542446e-07 1.335043e-28)
(-7.771391e-06 1.351598e-06 -5.896481e-28)
(-7.452353e-06 1.096007e-06 -8.451268e-26)
(-8.683953e-06 2.068715e-06 5.021688e-28)
(-8.982752e-06 1.846217e-06 -7.322655e-26)
(-8.710043e-06 2.814391e-06 -4.143717e-27)
(-9.431615e-06 2.647633e-06 -5.815209e-26)
(-8.099077e-06 3.512158e-06 1.694388e-28)
(-9.060615e-06 3.448029e-06 -2.201347e-30)
(-6.992916e-06 4.046743e-06 -2.615345e-31)
(-8.135808e-06 4.152363e-06 -2.654743e-26)
(-6.768608e-06 4.560094e-06 -2.250359e-26)
(-5.699001e-06 4.242574e-06 4.092869e-27)
(-6.013451e-06 7.790853e-07 1.746238e-28)
(-4.382499e-06 4.202311e-07 -1.443388e-28)
(-8.659214e-06 1.588269e-06 -1.240177e-27)
(-8.265841e-06 1.290793e-06 1.746493e-28)
(-9.726857e-06 2.421972e-06 5.286324e-28)
(-1.003895e-05 2.169419e-06 1.750454e-28)
(-9.780044e-06 3.275851e-06 3.541872e-28)
(-1.05772e-05 3.092476e-06 -7.60794e-26)
(-9.113818e-06 4.066421e-06 1.813069e-28)
(-1.017752e-05 3.998969e-06 -1.899327e-28)
(-7.889549e-06 4.668607e-06 1.820846e-28)
(-9.157032e-06 4.787025e-06 1.851489e-28)
(-7.646713e-06 5.241684e-06 4.173715e-26)
(-6.445744e-06 4.888666e-06 1.768916e-28)
(-6.628529e-06 9.215398e-07 -1.443649e-28)
(-4.773422e-06 4.982373e-07 1.196753e-25)
(-9.639825e-06 1.869001e-06 0)
(-9.152835e-06 1.518685e-06 0)
(-1.088473e-05 2.835954e-06 -1.328836e-30)
(-1.119682e-05 2.54283e-06 0)
(-1.097189e-05 3.809419e-06 -6.906394e-27)
(-1.183294e-05 3.598262e-06 9.746145e-26)
(-1.023896e-05 4.695868e-06 -1.938348e-28)
(-1.139482e-05 4.613313e-06 5.083e-26)
(-8.890148e-06 5.360209e-06 1.985616e-28)
(-1.025593e-05 5.473011e-06 2.035541e-28)
(-8.624112e-06 5.968237e-06 1.972744e-28)
(-7.284182e-06 5.601223e-06 3.993661e-28)
(-7.289833e-06 1.085784e-06 -2.97517e-28)
(-5.183484e-06 5.868744e-07 1.500112e-25)
(-1.070256e-05 2.18888e-06 0)
(-1.009948e-05 1.774828e-06 -1.661133e-31)
(-1.213923e-05 3.300111e-06 -1.90396e-28)
(-1.243365e-05 2.956443e-06 -1.948586e-28)
(-1.225273e-05 4.394489e-06 9.044925e-27)
(-1.316498e-05 4.145751e-06 -1.913473e-28)
(-1.142911e-05 5.368835e-06 -1.939219e-28)
(-1.266606e-05 5.256802e-06 1.545084e-25)
(-9.985384e-06 6.078125e-06 2.048305e-28)
(-1.138471e-05 6.164108e-06 -1.724909e-25)
(-9.615903e-06 6.673496e-06 0)
(-8.174689e-06 6.319571e-06 -2.113252e-28)
(-7.983396e-06 1.267407e-06 -1.5238e-28)
(-5.601918e-06 6.832738e-07 -1.52123e-28)
(-1.182134e-05 2.538062e-06 -3.126027e-27)
(-1.107848e-05 2.050493e-06 1.955329e-28)
(-1.345141e-05 3.796169e-06 -1.958162e-28)
(-1.370606e-05 3.395409e-06 2.0173e-25)
(-1.357089e-05 4.999815e-06 -9.321461e-27)
(-1.451433e-05 4.712828e-06 -9.237204e-31)
(-1.261858e-05 6.033477e-06 2.076591e-28)
(-1.392058e-05 5.898237e-06 -1.467094e-25)
(-1.103276e-05 6.735534e-06 2.146888e-28)
(-1.243643e-05 6.808519e-06 2.039585e-28)
(-1.046238e-05 7.266702e-06 -3.948074e-30)
(-8.984826e-06 6.932405e-06 -2.191763e-28)
(-8.685229e-06 1.459276e-06 1.955738e-28)
(-6.012105e-06 7.826846e-07 1.553217e-28)
(-1.295193e-05 2.902795e-06 -2.826968e-30)
(-1.204767e-05 2.332037e-06 -2.686453e-25)
(-1.475935e-05 4.305297e-06 -1.987343e-28)
(-1.494923e-05 3.838799e-06 -3.998186e-28)
(-1.485632e-05 5.602921e-06 2.066126e-28)
(-1.579814e-05 5.273258e-06 0)
(-1.373549e-05 6.661611e-06 -2.69041e-26)
(-1.506807e-05 6.507964e-06 2.075785e-28)
(-1.191135e-05 7.311143e-06 -4.46386e-26)
(-1.332471e-05 7.377948e-06 -5.406233e-30)
(-1.10471e-05 7.695853e-06 -6.680403e-30)
(-9.588998e-06 7.37532e-06 1.500256e-30)
(-9.360417e-06 1.650139e-06 3.526293e-28)
(-6.390697e-06 8.772743e-07 -2.701854e-25)
(-1.40314e-05 3.262202e-06 -3.644676e-30)
(-1.294986e-05 2.598148e-06 3.94388e-28)
(-1.597631e-05 4.798879e-06 -2.012668e-28)
(-1.607733e-05 4.256028e-06 3.031771e-25)
(-1.600045e-05 6.168515e-06 9.350617e-31)
(-1.690868e-05 5.790905e-06 0)
(-1.465302e-05 7.211253e-06 3.234973e-26)
(-1.598034e-05 7.045749e-06 9.351954e-31)
(-1.251384e-05 7.737421e-06 -4.469802e-26)
(-1.390587e-05 7.822365e-06 2.291659e-28)
(-1.126372e-05 7.901559e-06 -2.523035e-28)
(-9.877292e-06 7.559567e-06 -2.535183e-28)
(-9.962246e-06 1.821929e-06 3.514212e-28)
(-6.709481e-06 9.549475e-07 3.058096e-28)
(-1.497994e-05 3.5855e-06 -4.74147e-30)
(-1.371799e-05 2.816977e-06 -3.857356e-25)
(-1.699553e-05 5.239001e-06 -2.019518e-28)
(-1.699031e-05 4.602898e-06 -2.017936e-28)
(-1.687702e-05 6.656621e-06 0)
(-1.772512e-05 6.218773e-06 -2.102496e-28)
(-1.522787e-05 7.641458e-06 2.287418e-28)
(-1.652925e-05 7.470045e-06 -1.533099e-30)
(-1.270475e-05 7.967254e-06 -1.271092e-29)
(-1.406247e-05 8.110778e-06 -3.415285e-25)
(-1.098313e-05 7.855537e-06 3.940224e-25)
(-9.766761e-06 7.396112e-06 5.654166e-25)
(-1.044066e-05 1.948337e-06 -1.440432e-28)
(-6.933108e-06 9.972826e-07 -3.459634e-25)
(-1.571046e-05 3.827612e-06 1.941917e-28)
(-1.427968e-05 2.93978e-06 1.946751e-28)
(-1.770279e-05 5.572674e-06 -2.100776e-28)
(-1.759188e-05 4.815744e-06 1.949532e-28)
(-1.73622e-05 7.01948e-06 3.425501e-26)
(-1.813422e-05 6.493513e-06 4.167181e-25)
(-1.535088e-05 7.923411e-06 4.638301e-28)
(-1.660597e-05 7.739377e-06 2.173248e-28)
(-1.235769e-05 7.985164e-06 -4.213833e-26)
(-1.371691e-05 8.250185e-06 -3.32735e-25)
(-1.017409e-05 7.659215e-06 -2.355208e-25)
(-8.725598e-06 6.851645e-06 -1.293872e-25)
(-1.072458e-05 1.985945e-06 1.467681e-28)
(-7.033937e-06 9.78408e-07 1.454319e-28)
(-1.614412e-05 3.923188e-06 1.954391e-28)
(-1.458625e-05 2.902557e-06 0)
(-1.800285e-05 5.725908e-06 1.604075e-26)
(-1.781965e-05 4.806467e-06 -5.177211e-25)
(-1.736024e-05 7.199696e-06 1.120001e-29)
(-1.807122e-05 6.526189e-06 -2.072643e-28)
(-1.495741e-05 8.050034e-06 6.868e-28)
(-1.615654e-05 7.791399e-06 -4.583843e-25)
(-1.153167e-05 7.908195e-06 7.22994e-28)
(-1.284776e-05 8.239651e-06 -3.981947e-25)
(-8.872114e-06 7.424541e-06 -1.644134e-30)
(-7.448742e-06 6.346989e-06 7.762557e-28)
(-1.080799e-05 1.888555e-06 0)
(-7.03782e-06 8.750243e-07 1.25183e-28)
(-1.624636e-05 3.783639e-06 3.788483e-28)
(-1.464244e-05 2.633598e-06 -1.680235e-28)
(-1.786472e-05 5.595773e-06 3.774282e-28)
(-1.769916e-05 4.468091e-06 -6.93685e-25)
(-1.684669e-05 7.10304e-06 4.305001e-28)
(-1.758764e-05 6.209008e-06 0)
(-1.402947e-05 7.962757e-06 6.643718e-28)
(-1.524095e-05 7.534825e-06 -5.821982e-25)
(-1.018217e-05 7.734636e-06 -2.129221e-29)
(-1.151443e-05 8.017277e-06 2.334216e-28)
(-7.13098e-06 7.117235e-06 5.853763e-25)
(-5.660086e-06 5.960056e-06 -2.593109e-28)
(-1.077757e-05 1.618171e-06 -2.126927e-26)
(-6.997646e-06 6.607604e-07 -5.520015e-25)
(-1.606174e-05 3.308603e-06 -3.475642e-28)
(-1.455107e-05 2.058052e-06 6.412477e-25)
(-1.738949e-05 5.071736e-06 -1.784276e-28)
(-1.738343e-05 3.694117e-06 1.121392e-24)
(-1.595311e-05 6.625186e-06 2.08661e-28)
(-1.692682e-05 5.434595e-06 -3.514496e-28)
(-1.270207e-05 7.569891e-06 2.086117e-28)
(-1.41422e-05 6.892182e-06 4.164639e-28)
(-8.443904e-06 7.376082e-06 -2.714652e-28)
(-9.991154e-06 7.518712e-06 1.112087e-29)
(-5.154197e-06 6.649637e-06 -2.835563e-28)
(-3.5358e-06 5.517566e-06 1.60027e-25)
(-1.070819e-05 1.115706e-06 -3.639678e-29)
(-6.977355e-06 3.184551e-07 1.110225e-28)
(-1.582142e-05 2.428087e-06 -6.313188e-28)
(-1.458429e-05 1.152997e-06 -1.46288e-28)
(-1.688734e-05 4.041296e-06 -8.425441e-28)
(-1.726762e-05 2.447785e-06 7.167784e-25)
(-1.506126e-05 5.688025e-06 -5.421862e-26)
(-1.656765e-05 4.1566e-06 1.482183e-24)
(-1.139797e-05 6.820396e-06 2.190073e-28)
(-1.345932e-05 5.862398e-06 -8.232478e-25)
(-6.674029e-06 6.767969e-06 -7.272679e-26)
(-8.92207e-06 6.773359e-06 4.021511e-29)
(-3.540768e-06 6.062872e-06 5.220328e-29)
(-1.149719e-06 4.9076e-06 1.763439e-25)
(-1.081343e-05 3.810616e-07 1.731343e-26)
(-7.115239e-06 -1.321031e-07 -5.986235e-32)
(-1.59784e-05 1.165507e-06 -1.296441e-28)
(-1.51502e-05 -3.175535e-08 -2.32727e-31)
(-1.692389e-05 2.541903e-06 -2.73758e-26)
(-1.797871e-05 8.448655e-07 -2.516169e-28)
(-1.489362e-05 4.338186e-06 7.741574e-26)
(-1.73103e-05 2.528883e-06 -5.892739e-28)
(-1.094061e-05 5.794866e-06 1.862034e-28)
(-1.42078e-05 4.625169e-06 -2.889168e-30)
(-5.754581e-06 6.043776e-06 -1.442597e-25)
(-9.426361e-06 6.020473e-06 -2.011666e-28)
(-3.677502e-06 5.839601e-06 6.418422e-29)
(6.156726e-07 4.157482e-06 -2.085035e-25)
(-1.141333e-05 -5.122604e-07 -2.153596e-26)
(-7.595266e-06 -6.266666e-07 -3.628181e-31)
(-1.710856e-05 -3.587223e-07 -1.216939e-28)
(-1.674663e-05 -1.345941e-06 -1.345764e-30)
(-1.834552e-05 7.944108e-07 7.175335e-27)
(-2.032915e-05 -9.161866e-07 8.866262e-25)
(-1.658055e-05 2.804751e-06 6.154259e-26)
(-2.022875e-05 8.142035e-07 7.861253e-25)
(-1.261718e-05 4.831854e-06 1.4391e-25)
(-1.763266e-05 3.494413e-06 -9.827055e-29)
(-7.299946e-06 5.785421e-06 -2.301952e-28)
(-1.294547e-05 5.486976e-06 1.523747e-24)
(-7.329806e-06 5.891966e-06 0)
(8.504888e-08 3.468245e-06 -9.116452e-30)
(-1.288741e-05 -1.41979e-06 0)
(-8.55439e-06 -1.108556e-06 -9.956778e-31)
(-1.99214e-05 -1.907117e-06 -7.916298e-29)
(-1.987784e-05 -2.566667e-06 3.691974e-30)
(-2.215168e-05 -9.029677e-07 -1.50964e-28)
(-2.50878e-05 -2.488619e-06 -6.705357e-29)
(-2.125082e-05 1.480423e-06 1.387561e-27)
(-2.623408e-05 -4.168474e-07 -7.154508e-29)
(-1.793554e-05 4.136939e-06 -7.188689e-26)
(-2.511802e-05 3.145028e-06 9.354847e-25)
(-1.291011e-05 5.543862e-06 1.148431e-29)
(-2.125457e-05 5.638268e-06 -4.905611e-29)
(-1.687768e-05 6.748583e-06 -1.007341e-28)
(-5.272627e-06 3.429458e-06 3.93923e-28)
(-1.550185e-05 -2.206958e-06 -6.208966e-26)
(-9.775834e-06 -1.751519e-06 -1.687627e-29)
(-2.499784e-05 -3.150061e-06 -1.131298e-26)
(-2.516401e-05 -3.00719e-06 7.904212e-30)
(-2.911576e-05 -2.006184e-06 1.213457e-29)
(-3.312835e-05 -2.920752e-06 2.317216e-29)
(-2.999358e-05 1.213587e-06 -2.150868e-28)
(-3.699909e-05 5.690287e-07 0)
(-2.833809e-05 4.601394e-06 -2.813437e-28)
(-3.801012e-05 4.696219e-06 -1.588472e-25)
(-2.503717e-05 6.795037e-06 4.351139e-25)
(-3.6933e-05 5.907869e-06 -7.87444e-28)
(-3.626552e-05 3.441492e-06 -7.932881e-28)
(-1.834337e-05 2.325785e-06 1.850129e-25)
(-1.939253e-05 -2.499821e-06 6.278833e-26)
(-1.164718e-05 -2.310975e-06 -2.804051e-25)
(-3.324986e-05 -2.779396e-06 1.525909e-29)
(-3.322098e-05 -1.012354e-06 7.89244e-30)
(-4.09724e-05 -3.574307e-07 1.10606e-29)
(-4.459667e-05 -1.459879e-06 -1.78317e-25)
(-4.49913e-05 4.019471e-06 -1.435335e-28)
(-5.182631e-05 1.525491e-06 -3.133092e-29)
(-4.668842e-05 5.997528e-06 3.043875e-25)
(-5.725593e-05 2.087666e-06 -2.195299e-28)
(-4.829239e-05 2.50998e-06 -1.647466e-24)
(-6.348236e-05 -3.217747e-06 5.109459e-24)
(-7.103362e-05 -1.886712e-05 -1.19485e-27)
(-4.793473e-05 -1.201513e-05 -1.419043e-24)
(-2.544307e-05 -7.816428e-07 4.94477e-26)
(-1.424735e-05 -3.168591e-06 -1.99985e-29)
(-4.455447e-05 3.043354e-07 2.961713e-29)
(-4.200356e-05 1.610038e-06 -6.493587e-25)
(-5.541576e-05 4.139559e-07 -5.318491e-30)
(-5.758917e-05 -8.161033e-07 2.034218e-29)
(-6.397964e-05 -3.907589e-07 -2.219078e-25)
(-7.199882e-05 -2.218961e-06 -1.658603e-29)
(-7.351112e-05 -6.815089e-06 -7.05814e-25)
(-8.800471e-05 -1.243577e-05 5.548232e-29)
(-8.512247e-05 -2.360034e-05 -2.694552e-24)
(-0.0001082781 -3.643061e-05 -7.633039e-28)
(-0.0001268783 -7.862207e-05 -4.9663e-28)
(-9.494712e-05 -5.178754e-05 -5.099649e-24)
(-3.068513e-05 -7.445749e-07 5.075123e-32)
(-1.705187e-05 -2.481077e-06 9.044717e-29)
(-5.502386e-05 5.050251e-07 -7.127552e-26)
(-4.806329e-05 4.574896e-06 4.546268e-24)
(-7.404111e-05 -3.398039e-06 2.08856e-25)
(-7.329983e-05 -6.988793e-07 4.849016e-24)
(-9.570522e-05 -1.411063e-05 1.456971e-28)
(-0.0001064934 -1.712667e-05 3.448948e-28)
(-0.0001221221 -4.166193e-05 -1.67035e-24)
(-0.00014868 -5.18751e-05 -1.708566e-23)
(-0.0001487832 -8.979516e-05 -9.990214e-29)
(-0.0001965396 -0.000112773 -2.76009e-28)
(-0.0002291571 -0.0002068486 -8.421609e-26)
(-0.0001616838 -0.0001518108 3.763104e-25)
(-3.407109e-05 2.865722e-06 2.517961e-28)
(-1.79679e-05 1.310283e-06 -2.859691e-25)
(-6.615359e-05 3.475292e-06 -9.468214e-25)
(-5.341241e-05 4.655148e-06 1.603521e-28)
(-0.0001056672 -1.435716e-05 4.354951e-28)
(-0.0001041502 -1.369897e-05 1.037777e-28)
(-0.0001588743 -5.456932e-05 1.336311e-28)
(-0.0001776962 -6.068439e-05 3.272907e-23)
(-0.0002218011 -0.0001221735 -3.535306e-24)
(-0.0002749993 -0.0001370704 1.706928e-27)
(-0.0002732534 -0.0002257281 -8.209234e-26)
(-0.0003765169 -0.0002415917 3.278802e-23)
(-0.0004199312 -0.0003769872 3.359979e-21)
(-0.0002634802 -0.0003352452 -6.579048e-20)
(-3.703884e-05 3.225645e-06 -2.490375e-25)
(-2.008514e-05 5.77281e-07 -8.870562e-29)
(-9.063144e-05 -1.213659e-05 -7.01363e-31)
(-6.300572e-05 -2.002234e-06 -3.952983e-30)
(-0.0001760562 -5.99483e-05 7.775636e-30)
(-0.0001746842 -6.056672e-05 -2.129367e-29)
(-0.0002942284 -0.0001435856 1.933389e-27)
(-0.0003286486 -0.0001555354 -3.500605e-23)
(-0.000428409 -0.0002555312 -7.825276e-26)
(-0.000516393 -0.000275528 6.417913e-23)
(-0.0005361029 -0.0002739061 1.323588e-21)
(-0.0006628337 -0.0003902916 2.850908e-19)
(-0.0005604246 -0.0004721753 2.880109e-18)
(-0.0005391925 0.0001025408 8.044432e-19)
(-4.581162e-05 -4.394056e-06 -1.186227e-28)
(-2.767503e-05 -1.138706e-05 -3.40014e-24)
(-0.0001454 -4.948174e-05 4.843386e-25)
(-0.000117796 -5.068018e-05 -3.255597e-30)
(-0.0003239815 -0.0001540315 -3.22309e-27)
(-0.0003211392 -0.0001613571 -1.273052e-28)
(-0.0005521784 -0.0002878496 -2.45955e-23)
(-0.0006005567 -0.0003160867 -7.458069e-26)
(-0.0007896989 -0.0002936316 2.884193e-19)
(-0.0008685097 -0.0004527183 1.397781e-19)
(-0.000954578 0.0003644084 4.600784e-19)
(-0.000888471 -0.0004945788 -5.012374e-19)
(-0.0004829851 -0.0004197271 -2.663259e-19)
(-0.0009949503 0.001918578 -1.129788e-18)
(-9.926187e-05 -5.732267e-05 -4.001845e-28)
(-5.193623e-05 -4.14475e-05 -4.00239e-28)
(-0.0002924597 -0.0001620016 -1.060075e-28)
(-0.0002368973 -0.0001587783 -1.402994e-28)
(-0.0005914209 -0.0003196122 3.253426e-24)
(-0.0005587312 -0.0003287446 1.55205e-25)
(-0.000952478 -0.0003922345 4.885616e-20)
(-0.0009551135 -0.0005299203 -4.208725e-21)
(-0.001250491 0.0002051474 -2.174415e-18)
(-0.00120205 -0.0006398631 -1.607093e-18)
(-0.00146636 0.002008811 2.609397e-18)
(-0.0008255764 -0.0004743464 1.577443e-18)
(-0.0001830276 -0.0003107601 -3.988367e-19)
(-0.001559982 0.004850432 2.165428e-17)
(-0.0001887687 -0.0001424341 -1.400215e-28)
(-9.656931e-05 -9.326981e-05 0)
(-0.0005033172 -0.0003257466 1.556668e-24)
(-0.0003935137 -0.0003106821 1.513174e-25)
(-0.000948715 -0.0004976773 2.812536e-20)
(-0.0008418955 -0.0005521824 -4.961323e-20)
(-0.001448776 -5.875532e-05 -5.682034e-19)
(-0.001238651 -0.0007638521 6.653459e-19)
(-0.001838229 0.001563216 1.122451e-18)
(-0.001292676 -0.0007850784 5.732715e-18)
(-0.001767717 0.004444009 -1.658296e-17)
(-0.0007904389 -0.0005731086 5.490003e-18)
(0.0007674906 -7.251455e-06 3.893361e-17)
(-0.002213736 0.008094704 4.928562e-21)
(-0.0002991235 -0.0002599803 1.505969e-25)
(-0.0001453914 -0.0001658679 -2.682254e-27)
(-0.0007479424 -0.0005394335 2.30236e-21)
(-0.0005616017 -0.0005123036 -4.740717e-22)
(-0.00133091 -0.0004523125 6.71513e-19)
(-0.001078612 -0.000821999 2.466201e-19)
(-0.001933485 0.0009699994 5.537424e-19)
(-0.001279797 -0.0009479805 5.441985e-18)
(-0.002367314 0.003703069 6.320252e-18)
(-0.00104388 -0.0008587263 5.838538e-18)
(-0.002563486 0.007491693 -4.750921e-18)
(-0.0002649474 -0.0006038755 7.350321e-18)
(0.0007982271 -0.0006077263 2.836983e-17)
(-0.002485559 0.01152062 1.445541e-16)
(-0.0004056397 -0.0004156757 3.08699e-25)
(-0.0001840868 -0.0002640217 1.766251e-23)
(-0.0009803398 -0.0006564628 5.179143e-20)
(-0.0006673815 -0.0007535962 -8.955512e-20)
(-0.001677704 0.0001312927 -4.170411e-19)
(-0.001131937 -0.0010879 6.055072e-19)
(-0.002194602 0.002497207 6.716619e-18)
(-0.001197163 -0.001145733 1.629141e-19)
(-0.002615928 0.006312509 7.554725e-19)
(-0.0001601743 -0.0007286296 2.934715e-17)
(-0.002934717 0.0109092 4.385022e-18)
(0.0007211275 -0.0006515498 9.83372e-18)
(0.001850208 -0.001349746 4.644998e-17)
(-0.004238877 0.0145582 -3.869182e-17)
(-0.0004895306 -0.000591934 -3.238724e-21)
(-0.0002064968 -0.0003869509 3.147126e-21)
(-0.001173466 -0.0004410731 1.97739e-19)
(-0.000700013 -0.001017487 -5.113042e-19)
(-0.001903434 0.001263482 2.275248e-18)
(-0.0009961211 -0.001312486 -4.19994e-19)
(-0.002378527 0.00448669 7.904807e-18)
(-0.0006903511 -0.001241636 -1.519458e-20)
(-0.002259426 0.009126853 1.86713e-17)
(0.000272787 -0.0009658461 4.129816e-18)
(-0.002388079 0.01394335 9.0836e-17)
(0.00153939 -0.001130365 4.445127e-17)
(0.00415067 -0.002370608 3.753726e-17)
(-0.004125643 0.01649291 -5.312683e-17)
(-0.0005776992 -0.0006640796 3.567219e-20)
(-0.0002176344 -0.0005339535 3.05051e-20)
(-0.001335331 0.0001223072 -5.900369e-19)
(-0.00071198 -0.00127277 3.27045e-18)
(-0.0019727 0.002706056 -5.870956e-19)
(-0.0006979169 -0.001449951 4.420478e-18)
(-0.002322859 0.00685027 -7.753819e-18)
(5.748155e-05 -0.001277181 -3.679026e-18)
(-0.002544446 0.01184322 -3.671636e-17)
(0.001241483 -0.001050549 8.449191e-18)
(-0.003311718 0.01604 -7.366453e-18)
(0.002489234 -0.002157581 -1.961974e-17)
(0.002658284 -0.005510263 4.656177e-17)
(-0.003273824 0.01774802 7.306331e-17)
(-0.0007364549 -0.0005544705 -1.285528e-20)
(-0.0002992002 -0.0007164606 8.317836e-20)
(-0.001477974 0.0008824996 -1.383665e-18)
(-0.0007244936 -0.00147488 8.515387e-19)
(-0.00192079 0.004251272 -1.58039e-18)
(-0.0002528755 -0.00148919 -1.460271e-18)
(-0.002198203 0.009086711 -3.242312e-18)
(0.0008458093 -0.001310494 -2.545761e-18)
(-0.002648479 0.01413092 -2.096738e-17)
(0.002178706 -0.001508557 -1.991871e-18)
(-0.004210679 0.01815954 5.09614e-19)