/*--------------------------------*- C++ -*----------------------------------*\
| =========                 |                                                 |
| \\      /  F ield         | OpenFOAM: The Open Source CFD Toolbox           |
|  \\    /   O peration     | Version:  2206                                  |
|   \\  /    A nd           | Website:  www.openfoam.com                      |
|    \\/     M anipulation  |                                                 |
\*---------------------------------------------------------------------------*/
FoamFile
{
    version     2.0;
    format      ascii;
    arch        "LSB;label=32;scalar=64";
    class       surfaceVectorField;
    location    "2";
    object      ddtCorrDdt0(Ufb);
}
// * * * * * * * * * * * * * * * * * * * * * * * * * * * * * * * * * * * * * //

dimensions      [0 1 -2 0 0 0 0];

internalField   nonuniform List<vector> 
26037
(
(0.0003974454 0.0002876078 6.319399e-21)
(0.0002654311 -2.949973e-05 -2.718375e-26)
(0.0003744634 0.000302086 -2.84185e-21)
(0.0003947592 6.924045e-05 2.056454e-23)
(0.0003623804 0.0003642902 4.979953e-26)
(0.0003332779 0.0003198985 4.991261e-26)
(0.0003611053 0.0004667415 3.398872e-26)
(0.0003113739 0.0004180187 0)
(0.0003539066 0.0005844383 2.521772e-23)
(0.0003011715 0.0005234568 3.403561e-26)
(0.0003442323 0.0007008652 8.588401e-26)
(0.0002920471 0.0006369828 -6.068351e-26)
(0.00027946 0.0007548032 4.619616e-26)
(0.0003323333 0.000823753 3.894565e-24)
(0.0001919476 0.0001244628 -8.032026e-29)
(0.0002542867 7.959444e-06 -1.514612e-27)
(0.0002733562 0.000256955 -8.109225e-29)
(0.0002669971 0.0001444824 5.461598e-27)
(0.0002610112 0.0003597813 0)
(0.0002233513 0.0002980636 -2.041423e-26)
(0.0002519179 0.0004611625 5.096542e-29)
(0.0002106561 0.000403936 -5.333636e-26)
(0.0002415195 0.0005728976 8.172335e-29)
(0.0001919931 0.0005101502 -3.860751e-25)
(0.0002289431 0.0006868271 1.017687e-28)
(0.0001806915 0.000621573 3.077386e-29)
(0.000163848 0.0007363241 -2.878074e-25)
(0.0002132662 0.0008051606 5.21058e-26)
(0.0001746299 0.0001103955 4.060512e-27)
(0.0001174296 4.327217e-05 -1.024736e-22)
(0.0001787262 0.0002320739 -1.475914e-26)
(0.0001263176 0.00015715 -4.636601e-23)
(0.0001603152 0.0003397106 5.954135e-24)
(0.0001130132 0.0002761369 2.405668e-26)
(0.0001457754 0.0004509269 2.285732e-23)
(0.0001019451 0.0003854269 -3.085599e-26)
(0.0001325542 0.0005571699 -3.28789e-26)
(8.806303e-05 0.0004943707 -1.087735e-24)
(0.0001167859 0.0006696005 2.574479e-31)
(7.088815e-05 0.0006034458 0)
(5.19478e-05 0.0007150053 2.821888e-25)
(9.769161e-05 0.0007842115 -5.189972e-26)
(6.647159e-05 0.0001042748 2.301926e-26)
(4.026305e-06 4.74495e-05 -2.014593e-26)
(6.328533e-05 0.0002160142 8.843046e-26)
(7.193406e-06 0.0001542452 -7.68381e-23)
(5.288686e-05 0.0003238466 8.327864e-25)
(2.779291e-06 0.0002634267 -3.117475e-23)
(4.061649e-05 0.0004328671 2.221944e-26)
(-7.246754e-06 0.0003699431 -3.997962e-23)
(2.547008e-05 0.0005392992 -8.760696e-28)
(-1.591356e-05 0.000476384 -4.387653e-27)
(7.660746e-06 0.0006485787 -4.721273e-28)
(-3.574394e-05 0.0005836655 2.225002e-30)
(-5.633892e-05 0.0006916616 -4.297507e-26)
(-1.397976e-05 0.0007595938 5.050056e-26)
(-4.725233e-05 0.0001022404 -6.213603e-25)
(-0.0001016242 4.737728e-05 1.192048e-28)
(-4.883893e-05 0.000207164 -1.330505e-24)
(-0.0001015267 0.0001502358 3.702866e-26)
(-5.510983e-05 0.0003132849 1.539061e-25)
(-0.0001052184 0.0002538041 7.618296e-26)
(-6.453456e-05 0.0004149663 4.67295e-25)
(-0.0001115515 0.0003577071 -3.402336e-24)
(-7.866691e-05 0.0005204028 -2.581182e-24)
(-0.0001212296 0.0004594691 -3.690342e-24)
(-9.786007e-05 0.0006265051 -1.098904e-24)
(-0.0001391173 0.0005620563 3.638817e-26)
(-0.0001601222 0.0006673035 -7.103023e-25)
(-0.0001208129 0.0007330155 -4.250286e-26)
(-0.0001523355 9.898182e-05 -6.738979e-28)
(-0.000203398 4.622784e-05 0)
(-0.0001543622 0.0001981615 -1.850386e-25)
(-0.0002037516 0.0001455133 6.354489e-26)
(-0.000159992 0.0002993573 1.982613e-24)
(-0.0002078624 0.00024493 8.203648e-26)
(-0.0001686384 0.0004012719 -6.873369e-25)
(-0.0002156828 0.0003450404 7.460325e-26)
(-0.0001810364 0.000503553 3.270771e-26)
(-0.0002257517 0.0004441572 -9.232156e-24)
(-0.0001989887 0.0006044965 -2.011525e-23)
(-0.0002396126 0.0005415553 3.234957e-26)
(-0.0002592354 0.0006421513 8.88691e-26)
(-0.0002223571 0.0007063417 -5.085964e-24)
(-0.0002524147 9.536058e-05 6.418545e-26)
(-0.0003013992 4.484241e-05 -1.560435e-25)
(-0.0002544747 0.0001905459 1.45123e-25)
(-0.000301631 0.0001403058 -7.650875e-24)
(-0.0002607433 0.0002870659 2.268145e-23)
(-0.0003065458 0.0002355369 -3.136901e-23)
(-0.0002710272 0.0003830912 8.444615e-26)
(-0.0003131715 0.0003313409 2.34009e-26)
(-0.0002833457 0.0004836314 -1.144449e-24)
(-0.0003281584 0.0004277352 2.161181e-25)
(-0.0002984443 0.00058251 -4.612614e-27)
(-0.0003403733 0.0005240084 -9.179036e-27)
(-0.0003565015 0.0006194122 -5.340264e-27)
(-0.0003192679 0.0006802945 2.160309e-27)
(-0.0003492046 9.162715e-05 -7.837687e-26)
(-0.0003955924 4.280375e-05 3.221305e-23)
(-0.0003516527 0.0001859291 1.553026e-25)
(-0.0003984762 0.0001350407 -1.043455e-25)
(-0.0003583099 0.0002775592 7.837812e-26)
(-0.0004003878 0.0002255849 -1.540435e-26)
(-0.0003686765 0.0003778993 1.563273e-25)
(-0.0004136091 0.000317441 -2.89956e-27)
(-0.0003811515 0.0004681091 1.505863e-25)
(-0.0004198247 0.0004120236 4.687208e-23)
(-0.0003964003 0.0005625696 5.224284e-26)
(-0.0004364599 0.000505859 -9.116948e-27)
(-0.0004525341 0.0005997133 -5.377186e-27)
(-0.0004145123 0.0006569286 4.324131e-26)
(-0.0004419423 8.879429e-05 -1.819967e-25)
(-0.0004869291 4.083849e-05 -6.72979e-23)
(-0.0004453871 0.0001750613 -2.750328e-25)
(-0.0004869933 0.0001291933 1.426153e-23)
(-0.0004525088 0.0002684779 4.124199e-24)
(-0.0004959256 0.0002154663 4.984486e-23)
(-0.0004625282 0.0003555169 3.588013e-25)
(-0.0005005287 0.0003045745 2.038603e-25)
(-0.0004754308 0.0004504108 1.77832e-25)
(-0.0005160433 0.0003959347 -7.956549e-23)
(-0.0004915334 0.0005420141 -4.545168e-27)
(-0.0005294895 0.0004872038 -4.543767e-27)
(-0.0005477411 0.0005795612 0)
(-0.0005096249 0.0006356913 -9.120126e-26)
(-0.0005300285 8.269586e-05 9.265621e-28)
(-0.0005720598 3.920261e-05 2.091827e-25)
(-0.0005348001 0.0001678561 -3.126111e-25)
(-0.0005742869 0.0001221417 -2.083708e-25)
(-0.0005427374 0.000252273 9.915854e-26)
(-0.000582159 0.0002049563 -3.385632e-25)
(-0.0005534836 0.0003446473 2.053141e-25)
(-0.0005925769 0.0002907626 -8.464967e-23)
(-0.0005679794 0.0004322171 1.030557e-28)
(-0.000604674 0.0003786577 9.889705e-24)
(-0.0005850036 0.000523193 0)
(-0.0006217423 0.0004678263 0)
(-0.0006409682 0.0005583948 0)
(-0.0006039271 0.0006150487 -1.166745e-25)
(-0.0006142178 7.785125e-05 0)
(-0.000652187 3.615306e-05 0)
(-0.0006200312 0.0001599977 -2.342202e-25)
(-0.0006584366 0.0001142513 2.608327e-25)
(-0.0006290504 0.0002415991 -6.515056e-27)
(-0.000665421 0.0001935545 6.13875e-23)
(-0.000641565 0.0003259023 2.313457e-25)
(-0.0006763791 0.0002757283 -2.341245e-26)
(-0.0006576949 0.0004127266 -1.073017e-28)
(-0.0006923913 0.0003598203 -3.252885e-23)
(-0.0006770165 0.0005018489 0)
(-0.0007119386 0.000446199 0)
(-0.0007334258 0.0005354259 -2.725297e-25)
(-0.0006977565 0.0005930992 1.175843e-25)
(-0.0006934068 7.586235e-05 2.607242e-25)
(-0.0007303076 3.308828e-05 0)
(-0.000699894 0.0001486051 6.069379e-28)
(-0.000732925 0.0001062279 -3.310501e-23)
(-0.0007107429 0.0002246613 -5.172966e-25)
(-0.0007429114 0.0001807014 -2.586326e-25)
(-0.0007261394 0.000307531 1.924492e-24)
(-0.0007585055 0.0002579327 5.92825e-23)
(-0.0007452329 0.0003914305 2.641428e-25)
(-0.0007769533 0.0003382169 5.515016e-25)
(-0.0007674649 0.0004782363 -2.724359e-25)
(-0.0007996013 0.0004218409 -2.882437e-25)
(-0.0008248498 0.0005094691 1.43531e-23)
(-0.0007914567 0.0005686633 -2.446501e-24)
(-0.0007667738 6.722179e-05 2.877862e-25)
(-0.0007996057 3.071418e-05 3.127068e-25)
(-0.0007742195 0.0001370128 1.406698e-24)
(-0.000804352 9.751223e-05 2.878333e-25)
(-0.0007881344 0.0002096747 -2.804733e-25)
(-0.0008167777 0.0001649977 3.914677e-27)
(-0.0008069765 0.0002868797 5.863067e-27)
(-0.00083472 0.0002370876 -2.831097e-25)
(-0.0008295993 0.0003668383 -1.360765e-27)
(-0.0008573064 0.0003133293 -4.326663e-23)
(-0.0008559328 0.0004510636 -2.883959e-25)
(-0.0008844118 0.0003936159 3.486006e-23)
(-0.000914762 0.0004790706 -2.09175e-23)
(-0.0008846245 0.0005402643 -1.481805e-28)
(-0.0008336427 5.968562e-05 3.127671e-25)
(-0.0008611299 2.710678e-05 -7.453461e-23)
(-0.0008437244 0.0001234985 1.937226e-27)
(-0.0008695394 8.658064e-05 0)
(-0.0008601941 0.000190078 1.124853e-24)
(-0.0008842908 0.000147042 5.718318e-27)
(-0.0008828283 0.0002620393 6.353879e-25)
(-0.0009054937 0.0002127846 -3.700885e-25)
(-0.0009102483 0.000337982 3.114993e-25)
(-0.0009332361 0.0002837134 -4.637149e-23)
(-0.0009418765 0.0004190345 1.508532e-27)
(-0.0009656869 0.0003602196 -3.156203e-25)
(-0.00100247 0.0004428408 -2.818309e-26)
(-0.0009766679 0.0005064079 1.098967e-26)
(-0.0008929826 5.289812e-05 3.378951e-25)
(-0.0009156491 2.23929e-05 3.377394e-25)
(-0.0009058905 0.0001080371 3.776595e-27)
(-0.0009257026 7.338364e-05 3.625608e-25)
(-0.0009254819 0.0001672516 2.615857e-24)
(-0.0009441394 0.000126024 3.777559e-27)
(-0.000953055 0.0002320619 -2.921937e-23)
(-0.0009698115 0.0001839244 9.049451e-23)
(-0.0009868683 0.0003036322 2.866021e-25)
(-0.001003494 0.0002485182 2.813642e-25)
(-0.001024579 0.0003808652 -3.453615e-25)
(-0.001042598 0.0003205041 -8.596994e-27)
(-0.001087124 0.0003994837 3.83685e-23)
(-0.001066776 0.0004656693 -6.931195e-25)
(-0.0009435258 4.328549e-05 3.623857e-25)
(-0.0009602627 1.704037e-05 0)
(-0.0009593684 8.949289e-05 3.626339e-25)
(-0.0009725556 5.789477e-05 -1.16842e-22)
(-0.0009838105 0.0001402256 -3.700755e-25)
(-0.0009950842 0.0001011321 1.782521e-27)
(-0.001016373 0.0001969227 -4.853641e-24)
(-0.001026326 0.0001501523 -3.67923e-25)
(-0.001057058 0.0002629669 -1.546664e-26)
(-0.001066678 0.0002073945 -6.851024e-27)
(-0.00110298 0.0003353845 -5.88037e-24)
(-0.001114049 0.0002733327 -8.593259e-27)
(-0.001167749 0.0003476886 -3.842361e-25)
(-0.00115404 0.0004167603 -3.96593e-25)
(-0.0009835645 3.195607e-05 7.731342e-25)
(-0.0009931783 1.079354e-05 4.089573e-25)
(-0.001002899 6.752378e-05 7.754464e-25)
(-0.001008298 3.963831e-05 -1.392278e-22)
(-0.001032606 0.0001084029 1.956309e-24)
(-0.001035623 7.168226e-05 5.184328e-27)
(-0.001071761 0.0001561437 2.584256e-27)
(-0.001073334 0.0001104438 4.976507e-27)
(-0.001120748 0.0002147432 0)
(-0.001121754 0.0001586985 0)
(-0.00117612 0.0002812057 0)
(-0.001178855 0.0002172372 4.336629e-25)
(-0.001243331 0.0002859472 1.976878e-26)
(-0.001237553 0.0003582781 1.201794e-26)
(-0.001011132 1.858245e-05 7.047422e-25)
(-0.001012262 3.436176e-06 -1.735621e-22)
(-0.001034639 4.148453e-05 2.224555e-24)
(-0.00103079 1.805849e-05 8.429729e-25)
(-0.00107048 7.064468e-05 2.32088e-24)
(-0.001063762 3.678317e-05 8.168292e-27)
(-0.001117484 0.0001078839 2.471712e-27)
(-0.001109097 6.340491e-05 7.007769e-27)
(-0.001176335 0.0001574113 4.387042e-25)
(-0.001167026 0.0001008882 0)
(-0.001242814 0.0002167319 8.13048e-24)
(-0.001235668 0.0001505643 -9.310495e-23)
(-0.001312784 0.0002124972 2.92566e-26)
(-0.001316416 0.000288584 8.329131e-24)
(-0.001023907 2.781693e-06 6.397276e-25)
(-0.001014983 -5.240528e-06 8.811432e-25)
(-0.001052348 1.066629e-05 2.562839e-24)
(-0.001037549 -7.429008e-06 -1.954064e-22)
(-0.001095428 2.590384e-05 5.550851e-24)
(-0.001077146 -4.508077e-06 4.618045e-25)
(-0.001151624 5.072437e-05 4.648822e-27)
(-0.001131538 7.610458e-06 4.574436e-27)
(-0.001222109 8.921147e-05 4.581538e-25)
(-0.001200374 3.177284e-05 -3.787686e-26)
(-0.001301793 0.000140146 4.619703e-25)
(-0.001282905 7.147984e-05 3.918082e-25)
(-0.001374797 0.0001252408 -8.332382e-27)
(-0.001389643 0.0002056855 9.941638e-24)
(-0.001019173 -1.585857e-05 1.355597e-24)
(-0.000998374 -1.545967e-05 -2.413223e-22)
(-0.001053393 -2.572362e-05 1.362283e-24)
(-0.001025688 -3.74665e-05 -2.297428e-22)
(-0.001104922 -2.703562e-05 4.57372e-25)
(-0.001072975 -5.319228e-05 -2.14418e-22)
(-0.001171526 -1.728335e-05 -3.75335e-26)
(-0.001137811 -5.821942e-05 4.813944e-25)
(-0.001255081 7.199541e-06 -8.024042e-23)
(-0.001218675 -5.002747e-05 -4.274418e-26)
(-0.001351902 4.91064e-05 -2.185722e-23)
(-0.001317284 -2.314699e-05 4.402166e-25)
(-0.00142778 2.165402e-05 -5.288838e-25)
(-0.001456132 0.0001072055 -1.782397e-26)
(-0.0009937756 -3.780441e-05 1.915116e-24)
(-0.0009589814 -2.747799e-05 4.685002e-25)
(-0.001034761 -6.856699e-05 -1.019921e-24)
(-0.0009918805 -7.280912e-05 -2.711913e-22)
(-0.00109619 -8.929506e-05 1.433625e-24)
(-0.00104818 -0.0001104993 -2.534797e-22)
(-0.001175888 -9.705007e-05 -8.999084e-24)
(-0.00112534 -0.0001356769 -2.304972e-22)
(-0.001273156 -8.880013e-05 4.891323e-25)
(-0.001221488 -0.0001452067 -5.032099e-27)
(-0.001389584 -5.861997e-05 -2.256441e-26)
(-0.001338167 -0.0001342164 -1.520034e-22)
(-0.001470068 -0.0001010118 1.242497e-22)
(-0.001514309 -9.576737e-06 1.361827e-23)
(-0.0009440287 -6.360268e-05 4.864089e-25)
(-0.0008927724 -4.157856e-05 -4.954995e-25)
(-0.0009929236 -0.0001189765 -2.429082e-24)
(-0.0009321997 -0.000114313 4.8648e-25)
(-0.001065888 -0.0001626587 1.501984e-24)
(-0.0009989773 -0.0001779007 4.931979e-25)
(-0.001160572 -0.0001912415 1.010503e-24)
(-0.001090431 -0.0002269919 -2.741901e-22)
(-0.001275659 -0.0002012423 5.18583e-25)
(-0.001204476 -0.0002578194 -5.405884e-25)
(-0.001414053 -0.0001859975 5.208462e-25)
(-0.001342416 -0.0002651972 5.295723e-25)
(-0.001499359 -0.000246244 -1.518852e-22)
(-0.001562588 -0.0001480347 5.479488e-25)
(-0.0008656445 -9.383383e-05 -4.95589e-25)
(-0.000795101 -5.80606e-05 3.882403e-22)
(-0.0009237059 -0.0001781249 0)
(-0.0008420944 -0.0001628784 0)
(-0.001010004 -0.0002489294 -2.273794e-27)
(-0.000920924 -0.0002569139 0)
(-0.001122099 -0.0003022766 -1.370147e-23)
(-0.001028845 -0.0003343433 3.267261e-22)
(-0.001258116 -0.0003338362 -5.516947e-25)
(-0.001163855 -0.0003909134 2.963985e-22)
(-0.001421988 -0.000336849 5.852742e-25)
(-0.001326128 -0.000421777 5.757026e-25)
(-0.001512603 -0.0004175187 5.814801e-25)
(-0.001598806 -0.0003123104 1.191996e-24)
(-0.0007536957 -0.0001291127 -1.006697e-24)
(-0.000660658 -7.72437e-05 4.515013e-22)
(-0.0008222813 -0.0002472476 0)
(-0.0007163489 -0.0002194665 3.445629e-29)
(-0.0009238124 -0.0003499729 -5.338942e-25)
(-0.0008089053 -0.0003491304 -5.269514e-25)
(-0.00105578 -0.0004328491 1.296646e-23)
(-0.0009354709 -0.0004598404 -5.343177e-25)
(-0.001215359 -0.0004912473 -5.534513e-25)
(-0.001093815 -0.0005467337 3.330894e-22)
(-0.001406395 -0.0005178393 5.793126e-25)
(-0.001281211 -0.0006057 -2.639421e-22)
(-0.001502132 -0.0006231011 0)
(-0.001620584 -0.0005074973 -6.389815e-25)
(-0.0006025675 -0.0001700938 -5.060598e-25)
(-0.0004834346 -9.945964e-05 -5.057916e-25)
(-0.0006831473 -0.0003276742 -5.69954e-24)
(-0.0005490313 -0.0002851048 5.117644e-25)
(-0.000802024 -0.0004677212 -5.273907e-25)
(-0.0006571591 -0.0004563469 4.809623e-22)
(-0.0009567362 -0.0005849695 -1.718517e-23)
(-0.0008050824 -0.0006061121 -3.474617e-28)
(-0.001144462 -0.0006737846 5.938272e-25)
(-0.0009907901 -0.0007285613 -4.074629e-22)
(-0.001363932 -0.0007285791 6.109439e-25)
(-0.001210759 -0.000817726 5.962965e-25)
(-0.001469767 -0.0008642238 -2.102803e-27)
(-0.001621611 -0.0007385409 -6.658156e-25)
(-0.0004058953 -0.0002174484 5.114028e-25)
(-0.0002566844 -0.0001250195 4.919977e-25)
(-0.0004999838 -0.000420859 -1.607217e-26)
(-0.0003333689 -0.000360802 -5.837744e-22)
(-0.000638451 -0.0006046229 -5.283547e-25)
(-0.0004588775 -0.0005804156 -1.050989e-24)
(-0.0008190629 -0.0007626794 5.80491e-25)
(-0.0006307714 -0.0007761065 0)
(-0.001038938 -0.0008885329 -4.768597e-23)
(-0.0008473202 -0.0009411565 5.751018e-25)
(-0.001295765 -0.0009754487 -6.849993e-23)
(-0.001104934 -0.001068155 4.789971e-28)
(-0.001408326 -0.001147029 9.562202e-28)
(-0.001599787 -0.001010964 3.567891e-27)
(-0.0001565621 -0.0002717474 9.949515e-25)
(2.696935e-05 -0.0001541906 -6.819128e-22)
(-0.0002655741 -0.0005281328 -1.937077e-26)
(-6.178596e-05 -0.0004473565 9.892629e-25)
(-0.0004257645 -0.0007628556 -5.231179e-25)
(-0.0002063591 -0.0007229545 6.469368e-22)
(-0.000635276 -0.0009691234 -5.468563e-27)
(-0.0004046247 -0.0009723578 0)
(-0.0008916615 -0.001139348 5.589301e-23)
(-0.0006554897 -0.001188144 -5.469345e-27)
(-0.001191878 -0.001264729 -7.855496e-23)
(-0.0009562968 -0.001362088 6.313374e-25)
(-0.001309746 -0.001484721 -7.91044e-25)
(-0.001548555 -0.001331962 -7.341761e-25)
(0.0001532838 -0.0003333539 9.588686e-25)
(0.0003755505 -0.0001869854 9.154045e-25)
(2.8162e-05 -0.0006505832 -2.335841e-26)
(0.0002741036 -0.0005453379 -7.685001e-22)
(-0.0001556746 -0.0009443016 -5.100111e-25)
(0.0001089372 -0.0008852555 -5.096116e-25)
(-0.0003966634 -0.001207213 0)
(-0.0001176639 -0.001196924 -5.39329e-25)
(-0.0006930551 -0.001431096 6.301686e-25)
(-0.0004053593 -0.001472286 -1.583545e-26)
(-0.001040904 -0.001606854 -1.399954e-25)
(-0.0007515501 -0.001701994 -6.09206e-22)
(-0.00115313 -0.001878017 4.679691e-22)
(-0.001451388 -0.001717134 7.459835e-22)
(0.000531984 -0.0004021118 4.655813e-24)
(0.0007969341 -0.0002243078 -8.411568e-22)
(0.0003899713 -0.0007889872 4.578397e-25)
(0.0006833823 -0.0006539496 4.589793e-25)
(0.0001809251 -0.001150373 -5.388879e-25)
(0.0004962246 -0.001067859 4.469822e-25)
(-9.37704e-05 -0.001478998 5.128925e-23)
(0.000239786 -0.001451466 8.332008e-22)
(-0.0004336295 -0.001765214 1.261973e-24)
(-8.758766e-05 -0.001796564 5.390223e-25)
(-0.0008357572 -0.00199737 -8.349237e-23)
(-0.0004851643 -0.002092267 -7.853447e-22)
(-0.0009497944 -0.00232541 -7.076066e-22)
(-0.001300537 -0.002162384 -2.497574e-22)
(0.0009894754 -0.0004781772 4.047226e-25)
(0.001303617 -0.0002641817 4.010379e-25)
(0.0008303111 -0.0009430286 4.480963e-25)
(0.00117643 -0.0007749073 0)
(0.0005943191 -0.001381866 2.040417e-23)
(0.0009660883 -0.001270531 -9.710094e-22)
(0.00028431 -0.001786788 4.642979e-26)
(0.0006790206 -0.001736572 -5.074359e-25)
(-0.0001017882 -0.002147548 1.797404e-24)
(0.0003108805 -0.002163053 -9.509155e-22)
(-0.0005632212 -0.002451594 1.943835e-24)
(-0.000139793 -0.002539139 -9.629049e-22)
(-0.0006737292 -0.002851667 6.176245e-27)
(-0.001097375 -0.002681974 2.250877e-24)
(0.001533588 -0.0005610919 0)
(0.001899631 -0.000307975 2.743939e-25)
(0.001355638 -0.001111217 8.178429e-25)
(0.001756157 -0.0009109068 -3.097472e-25)
(0.001095473 -0.001638097 8.147772e-25)
(0.001529096 -0.001489004 -1.097132e-21)
(0.0007500011 -0.002130535 1.046988e-24)
(0.001211985 -0.002049707 0)
(0.0003174896 -0.002578304 1.64931e-24)
(0.0008033074 -0.0025704 -1.086679e-21)
(-0.0002032851 -0.002970257 -8.867561e-26)
(0.000301414 -0.003039656 6.012288e-25)
(-0.0002957227 -0.003445591 1.029376e-21)
(-0.0008110301 -0.00329215 -7.022805e-25)
(0.002171194 -0.0006560005 6.824838e-24)
(0.002598963 -0.000355787 -1.117292e-21)
(0.001979888 -0.001294406 -6.606267e-25)
(0.002442389 -0.001054516 1.083828e-21)
(0.001698354 -0.001914313 -3.488504e-25)
(0.002197441 -0.00173263 2.136831e-21)
(0.001316875 -0.002507997 4.790759e-25)
(0.001853965 -0.002382614 -6.347093e-25)
(0.0008378492 -0.003054425 4.789627e-25)
(0.001402342 -0.0030146 9.462219e-25)
(0.0002585075 -0.003545339 -7.72047e-25)
(0.0008504624 -0.00359187 5.72904e-26)
(0.0001850593 -0.00410577 -8.361989e-25)
(-0.0004249644 -0.003961786 2.469184e-22)
(0.002918875 -0.0007523488 -2.827497e-26)
(0.003403557 -0.0004052774 1.907622e-25)
(0.002710113 -0.001490479 -1.018912e-24)
(0.003236368 -0.001200151 -2.125455e-25)
(0.002412976 -0.002209167 -1.448125e-24)
(0.002980872 -0.001984941 1.072266e-21)
(0.002001095 -0.002912938 -6.128819e-23)
(0.002622125 -0.002741317 2.465606e-21)
(0.001475256 -0.003573242 5.24624e-25)
(0.002125216 -0.00348815 -1.502202e-21)
(0.0008395031 -0.004182172 -8.653494e-23)
(0.001528139 -0.004191186 1.991252e-25)
(0.0008007898 -0.004836633 2.576817e-25)
(7.813565e-05 -0.004721278 2.326073e-22)
(0.003773685 -0.0008537676 -3.8871e-24)
(0.004319974 -0.0004568658 -3.005591e-28)
(0.003555337 -0.001690979 -1.26661e-25)
(0.004139759 -0.001354563 -9.329483e-28)
(0.003243809 -0.002512427 -3.970043e-23)
(0.003870666 -0.002241919 -2.204517e-25)
(0.002803661 -0.003331614 6.024086e-24)
(0.003494927 -0.003126024 -1.191025e-24)
(0.002248275 -0.004124301 3.58504e-25)
(0.002989246 -0.003969711 -4.920224e-25)
(0.001564606 -0.004870571 -1.448176e-22)
(0.002355219 -0.00481996 -3.907775e-25)
(0.001578729 -0.005619807 3.213055e-25)
(0.0007381366 -0.005557286 -1.742378e-22)
(0.004742567 -0.0009582334 2.846747e-24)
(0.005352481 -0.0005081984 -2.047745e-27)
(0.004515303 -0.001903128 -9.428045e-26)
(0.005163175 -0.001509603 -6.13779e-27)
(0.004188528 -0.0028428 -1.184371e-24)
(0.004893426 -0.002504393 1.225981e-21)
(0.003751982 -0.00376707 7.085765e-23)
(0.004517757 -0.003506107 1.248906e-21)
(0.003180623 -0.004684767 5.80484e-23)
(0.004012086 -0.004482821 2.692533e-26)
(0.002457935 -0.005591227 -5.325472e-25)
(0.003358039 -0.005443757 2.265297e-21)
(0.002538973 -0.006427015 0)
(0.001582653 -0.006442899 -5.481847e-26)
(0.005827148 -0.001059227 0)
(0.006498199 -0.0005570664 -5.290038e-27)
(0.005596011 -0.002105721 9.428435e-26)
(0.006301201 -0.001657251 1.59008e-26)
(0.005275748 -0.003149332 2.376149e-25)
(0.00603278 -0.002752753 1.476491e-25)
(0.00483999 -0.004198421 5.85951e-23)
(0.005668842 -0.00385246 1.430526e-25)
(0.004282535 -0.005242943 1.414343e-22)
(0.005188376 -0.004968446 1.064345e-21)
(0.003544025 -0.006312067 5.712622e-25)
(0.004561895 -0.006065072 3.409859e-25)
(0.003703618 -0.00721694 -5.574229e-25)
(0.002636011 -0.007347685 6.038353e-25)
(0.007023168 -0.001154366 4.637289e-24)
(0.007751254 -0.0006013698 -5.447063e-25)
(0.006791243 -0.002297997 6.479893e-24)
(0.007550519 -0.001792939 3.359604e-26)
(0.006479678 -0.003443334 5.336141e-26)
(0.007288492 -0.002984926 -3.878764e-25)
(0.006063567 -0.004594432 1.297293e-25)
(0.006935295 -0.004185982 0)
(0.005532137 -0.005752697 -9.360059e-26)
(0.006468111 -0.005405359 1.695333e-21)
(0.004805441 -0.006972875 -2.327638e-22)
(0.005875806 -0.006667058 -1.990272e-24)
(0.005100871 -0.007915994 -3.700359e-24)
(0.003930541 -0.008221459 5.767304e-23)
(0.008323397 -0.001237974 -2.078963e-24)
(0.009100253 -0.0006380623 -6.76899e-22)
(0.00809648 -0.002470941 -4.228433e-25)
(0.008902247 -0.001907584 -6.679188e-25)
(0.007799393 -0.003712627 -4.413011e-25)
(0.008653054 -0.003186554 -9.803854e-22)
(0.007408843 -0.004973937 4.703189e-25)
(0.008325353 -0.004479632 -1.829577e-25)
(0.006901764 -0.006266349 1.360893e-22)
(0.007906279 -0.005797952 -9.78255e-27)
(0.006284317 -0.007577418 -1.524512e-21)
(0.007381062 -0.007161675 1.22295e-21)
(0.00672451 -0.008526398 -4.628117e-24)
(0.005476062 -0.008978179 -3.211826e-22)
(0.009713727 -0.001301784 4.52456e-24)
(0.01052501 -0.0006675783 -7.436708e-25)
(0.009500103 -0.002612648 -1.333831e-24)
(0.01034016 -0.001987543 -5.545243e-22)
(0.00922729 -0.003934858 -8.314163e-25)
(0.01011117 -0.003338283 2.204606e-25)
(0.008878694 -0.005278819 -7.788201e-23)
(0.009819629 -0.004708063 -8.438966e-26)
(0.008436197 -0.006645747 -6.959977e-23)
(0.009450656 -0.006106626 -1.455264e-24)
(0.007901207 -0.00803135 -2.49009e-22)
(0.008981455 -0.00754684 -8.925613e-25)
(0.008426652 -0.009060105 -1.460828e-24)
(0.007190114 -0.00954889 -1.805752e-21)
(0.01117599 -0.001340543 8.683743e-25)
(0.01201749 -0.0006826029 1.198742e-24)
(0.01098765 -0.002703899 -2.109256e-23)
(0.01183957 -0.002039818 2.965892e-23)
(0.01075692 -0.004093621 3.33851e-23)
(0.01165137 -0.003409059 9.354486e-22)
(0.01047585 -0.005508951 -8.761953e-25)
(0.01142366 -0.004834359 2.204507e-24)
(0.01012484 -0.006967142 -1.954645e-22)
(0.01116467 -0.00630033 -3.303155e-21)
(0.009654106 -0.008484972 -3.392478e-25)
(0.01083774 -0.00784891 2.17936e-25)
(0.01035464 -0.009482322 3.316874e-24)
(0.009137001 -0.01000627 2.954005e-22)
(0.01268038 -0.001361665 3.325439e-24)
(0.01353231 -0.0006749579 -4.292691e-22)
(0.01253211 -0.002733551 -3.416049e-23)
(0.01336933 -0.002033926 2.102011e-24)
(0.01239221 -0.00413583 2.958704e-24)
(0.01325439 -0.003390673 8.441686e-25)
(0.01223388 -0.005589147 8.373146e-25)
(0.01315824 -0.004769636 4.778439e-21)
(0.01206864 -0.007109452 -3.815269e-22)
(0.01308753 -0.006252358 1.288284e-24)
(0.01182172 -0.008777686 3.774439e-24)
(0.01305067 -0.007888989 4.100572e-21)
(0.01260902 -0.009880534 -1.399921e-19)
(0.01127197 -0.01043497 -4.233769e-20)
(0.01420497 -0.00133286 -2.958678e-24)
(0.01502398 -0.000644141 -2.224083e-25)
(0.01409966 -0.002680358 -2.081371e-26)
(0.01489945 -0.001918152 1.807731e-26)
(0.01409909 -0.003998976 7.266815e-26)
(0.0148816 -0.003198545 6.901543e-26)
(0.01416722 -0.005388223 2.660471e-24)
(0.01499644 -0.004460051 -2.890911e-21)
(0.01425385 -0.006901514 -5.475391e-23)
(0.01521098 -0.005832052 2.93093e-21)
(0.01432171 -0.008743863 4.711898e-23)
(0.01544461 -0.007523866 2.156118e-18)
(0.01536928 -0.01019957 7.870429e-18)
(0.01376687 -0.01161513 9.99319e-19)
(0.0156977 -0.001240623 -1.595749e-24)
(0.01643825 -0.0005734653 1.166556e-21)
(0.01569829 -0.002445819 -7.100698e-23)
(0.0163805 -0.001673652 3.850222e-26)
(0.01582948 -0.003618101 -3.725845e-24)
(0.01653176 -0.00274263 1.911212e-25)
(0.01612689 -0.004796599 -2.718198e-21)
(0.01685236 -0.003846817 -4.612082e-23)
(0.0163889 -0.006255926 9.062989e-19)
(0.01726571 -0.005179592 -1.607884e-19)
(0.01625482 -0.008340587 6.502802e-19)
(0.01703734 -0.007225098 -8.921915e-19)
(0.01792665 -0.01076085 -2.656214e-19)
(0.01530292 -0.01288084 -1.011713e-18)
(0.01709051 -0.001038085 -1.830422e-24)
(0.0177354 -0.0004363562 -1.830672e-24)
(0.01721225 -0.001992907 1.2276e-25)
(0.01776098 -0.001240815 5.636011e-26)
(0.01754228 -0.002902269 5.078715e-22)
(0.01809059 -0.002011498 6.613728e-23)
(0.01784764 -0.00396361 3.900818e-19)
(0.01860388 -0.003033896 2.535485e-19)
(0.01782162 -0.005672246 -3.608164e-18)
(0.01867354 -0.00479306 -4.533609e-18)
(0.01671818 -0.009031078 3.181403e-18)
(0.01818739 -0.00793492 2.802785e-18)
(0.01945705 -0.01192827 -1.951365e-18)
(0.01496671 -0.01450842 2.353574e-17)
(0.01830271 -0.0006596984 5.624848e-26)
(0.01877783 -0.0002183708 0)
(0.01854492 -0.001250562 3.275791e-22)
(0.01890095 -0.0005851424 3.084985e-23)
(0.01898947 -0.001845004 2.288915e-19)
(0.01937578 -0.001058625 -9.196121e-19)
(0.01924047 -0.003275191 -9.751426e-19)
(0.0198705 -0.002167406 1.561442e-18)
(0.01868219 -0.00605712 1.144835e-18)
(0.01941318 -0.004752194 8.386121e-18)
(0.01673769 -0.01090422 -1.684823e-17)
(0.01921366 -0.009452615 6.037861e-18)
(0.01786869 -0.01397432 4.154648e-17)
(0.01423237 -0.01483116 -6.460484e-19)
(0.01916768 -0.0001385207 3.061796e-23)
(0.01941427 7.33542e-05 -2.185149e-24)
(0.01945511 -0.0001921079 6.540214e-19)
(0.0196104 0.0002133685 -1.639333e-19)
(0.01979971 -0.0006218639 1.587189e-18)
(0.02002643 -0.0001360922 4.892765e-19)
(0.01958632 -0.002450981 6.036585e-19)
(0.01983244 -0.001776976 7.092107e-18)
(0.01801115 -0.006253817 7.011813e-18)
(0.01926698 -0.005689304 8.106652e-18)
(0.01522864 -0.01236253 -5.106565e-18)
(0.01977017 -0.01172376 7.724122e-18)
(0.01526475 -0.01749062 3.120083e-17)
(0.01167423 -0.0154557 1.392029e-16)
(0.01952891 0.000563947 3.963207e-22)
(0.01948534 0.0003880683 9.081921e-21)
(0.01974397 0.0009416489 2.022519e-19)
(0.01968548 0.0009623016 -2.154218e-19)
(0.01969262 0.0001320375 -6.326766e-19)
(0.01974665 0.0004073127 2.828835e-20)
(0.01853641 -0.002186279 7.954635e-18)
(0.01852642 -0.00256676 8.627192e-19)
(0.0156082 -0.008064029 1.16588e-18)
(0.01951081 -0.007978013 2.990546e-17)
(0.01165245 -0.01281543 3.993925e-18)
(0.01730951 -0.01551744 1.069905e-17)
(0.01233375 -0.02192313 4.674512e-17)
(0.006846649 -0.015584 -3.915873e-17)
(0.01922278 0.001358053 -8.06148e-20)
(0.01890905 0.0006765023 -2.576764e-19)
(0.01925982 0.001855496 3.618094e-19)
(0.01889724 0.001510612 -8.674227e-19)
(0.01860857 0.0007539216 2.750465e-18)
(0.01812249 0.000265526 -4.003769e-19)
(0.01659312 -0.003830736 8.574699e-18)
(0.0180658 -0.004192142 5.082386e-20)
(0.01346588 -0.00858857 1.923716e-17)
(0.01678139 -0.01157993 3.808529e-18)
(0.009256909 -0.01398643 9.213301e-17)
(0.01530163 -0.02021739 4.500699e-17)
(0.01224977 -0.0275734 3.220396e-17)
(0.003860149 -0.01666198 -5.832607e-17)
(0.01821679 0.002044398 1.416307e-19)
(0.01764091 0.0008756486 -6.638664e-19)
(0.01773653 0.002598327 -7.914097e-19)
(0.01701362 0.001548461 2.99089e-18)
(0.0163047 0.0002301178 -6.270637e-19)
(0.01638235 -0.0007690732 4.202595e-18)
(0.01384627 -0.004604389 -8.155671e-18)
(0.01622594 -0.006526435 -3.240626e-18)
(0.01063175 -0.01023681 -3.706465e-17)
(0.01434751 -0.01474342 8.516807e-18)
(0.007027474 -0.01569459 -7.175802e-18)
(0.01422472 -0.02424341 -1.899146e-17)
(0.01228326 -0.03560828 4.37023e-17)
(0.003005377 -0.01754826 7.276793e-17)
(0.0164319 0.002469144 -4.644992e-20)
(0.0158015 0.0008796092 5.118853e-19)
(0.01544946 0.002065654 -1.681695e-18)
(0.01519811 0.001124025 1.146732e-18)
(0.01368347 -0.001145485 -1.642405e-18)
(0.01421345 -0.002345508 -1.723872e-18)
(0.01129787 -0.006177437 -3.394444e-18)
(0.0134952 -0.009038647 -2.426604e-18)
(0.008603112 -0.01210757 -2.078289e-17)
(0.0123296 -0.01759366 -2.265519e-18)
(0.00495417 -0.01638952 5.386083e-19)
(0.01251598 -0.02885331 1.876341e-17)
(0.00636686 -0.04380966 1.866067e-18)
(-0.002006182 -0.01917977 1.150221e-16)
(0.013924 0.002534618 1.507863e-19)
(0.01329288 0.0005706369 -1.646099e-19)
(0.012711 0.001337215 -1.363061e-17)
(0.01295064 0.0002701193 -1.969476e-18)
(0.01102078 -0.002935888 1.749743e-18)
(0.0125521 -0.003941255 2.426806e-17)
(0.009104735 -0.008229014 8.65916e-18)
(0.01092817 -0.01111639 -3.103204e-18)
(0.006826747 -0.01453033 2.385842e-17)
(0.0117018 -0.02032707 7.356954e-18)
(0.001612651 -0.02078955 7.012528e-17)
(0.009981488 -0.03458468 8.126005e-18)
(-0.0005041389 -0.0519286 1.930895e-17)
(-0.01038346 -0.02870421 -2.92035e-17)
(0.01113217 0.002057324 -4.900568e-19)
(0.01027968 0.0001406272 5.137569e-19)
(0.009753693 0.0008246732 -2.415023e-18)
(0.009606355 -0.0008703863 -3.90593e-19)
(0.008396752 -0.003619065 5.542405e-17)