/*--------------------------------*- C++ -*----------------------------------*\
| =========                 |                                                 |
| \\      /  F ield         | OpenFOAM: The Open Source CFD Toolbox           |
|  \\    /   O peration     | Version:  2206                                  |
|   \\  /    A nd           | Website:  www.openfoam.com                      |
|    \\/     M anipulation  |                                                 |
\*---------------------------------------------------------------------------*/
FoamFile
{
    version     2.0;
    format      ascii;
    arch        "LSB;label=32;scalar=64";
    class       volScalarField;
    location    "2";
    object      k.b;
}
// * * * * * * * * * * * * * * * * * * * * * * * * * * * * * * * * * * * * * //

dimensions      [0 2 -2 0 0 0 0];

internalField   nonuniform List<scalar> 
13078
(
5.817345e-14
6.291231e-11
8.11475e-11
8.182025e-11
8.239386e-11
8.307603e-11
8.387335e-11
6.685398e-14
5.520809e-11
8.065767e-11
8.175871e-11
8.236918e-11
8.305749e-11
8.385511e-11
9.160557e-14
5.500033e-11
8.056062e-11
8.17066e-11
8.23349e-11
8.303223e-11
8.383277e-11
7.444367e-14
5.522286e-11
8.053307e-11
8.166618e-11
8.230272e-11
8.300619e-11
8.380907e-11
6.806071e-14
5.530532e-11
8.051679e-11
8.16462e-11
8.227641e-11
8.298163e-11
8.378585e-11
6.729872e-14
5.535232e-11
8.051098e-11
8.163412e-11
8.226494e-11
8.296078e-11
8.37637e-11
6.849036e-14
5.536501e-11
8.050209e-11
8.162525e-11
8.225716e-11
8.295305e-11
8.374425e-11
7.101427e-14
5.53565e-11
8.049274e-11
8.162021e-11
8.225255e-11
8.294788e-11
8.373824e-11
7.469465e-14
5.534515e-11
8.049455e-11
8.161892e-11
8.224996e-11
8.294426e-11
8.373398e-11
7.955283e-14
5.532201e-11
8.049577e-11
8.161849e-11
8.224835e-11
8.294167e-11
8.373067e-11
8.575781e-14
5.529083e-11
8.049635e-11
8.161841e-11
8.224726e-11
8.293966e-11
8.372783e-11
9.357585e-14
5.525338e-11
8.049633e-11
8.161844e-11
8.224645e-11
8.293797e-11
8.372538e-11
1.033612e-13
5.521111e-11
8.049584e-11
8.161837e-11
8.224577e-11
8.293649e-11
8.37231e-11
1.155971e-13
5.516437e-11
8.049493e-11
8.161804e-11
8.224476e-11
8.293499e-11
8.372082e-11
1.309193e-13
5.511388e-11
8.049299e-11
8.161433e-11
8.223904e-11
8.293298e-11
8.371859e-11
1.501496e-13
5.50598e-11
8.049049e-11
8.160953e-11
8.223449e-11
8.293112e-11
8.371624e-11
1.743471e-13
5.500256e-11
8.048863e-11
8.160857e-11
8.22331e-11
8.292941e-11
8.371382e-11
2.048779e-13
5.494213e-11
8.048649e-11
8.160771e-11
8.223176e-11
8.292762e-11
8.371128e-11
2.43481e-13
5.487817e-11
8.048408e-11
8.160681e-11
8.223012e-11
8.292524e-11
8.370863e-11
2.923891e-13
5.481104e-11
8.04814e-11
8.160541e-11
8.222351e-11
8.291551e-11
8.370509e-11
3.544252e-13
5.474033e-11
8.047855e-11
8.160383e-11
8.221549e-11
8.290766e-11
8.370147e-11
4.331958e-13
5.466613e-11
8.047563e-11
8.160263e-11
8.22129e-11
8.290463e-11
8.369822e-11
5.332465e-13
5.458803e-11
8.047241e-11
8.160123e-11
8.221071e-11
8.290117e-11
8.369399e-11
6.60321e-13
5.450594e-11
8.046905e-11
8.159974e-11
8.220778e-11
8.289071e-11
8.367869e-11
8.21613e-13
5.441947e-11
8.046553e-11
8.159812e-11
8.22046e-11
8.287822e-11
8.366626e-11
1.026094e-12
5.432822e-11
8.046165e-11
8.159635e-11
8.22017e-11
8.287314e-11
8.366046e-11
1.28486e-12
5.423347e-11
8.045759e-11
8.159448e-11
8.21986e-11
8.286851e-11
8.365382e-11
1.61093e-12
5.412267e-11
8.04527e-11
8.159248e-11
8.219512e-11
8.286302e-11
8.363692e-11
2.020187e-12
5.402549e-11
8.044847e-11
8.159032e-11
8.219131e-11
8.28568e-11
8.361737e-11
2.521628e-12
5.374238e-11
8.04363e-11
8.15878e-11
8.218728e-11
8.28509e-11
8.360765e-11
3.141021e-12
5.343888e-11
8.04339e-11
8.15854e-11
8.218287e-11
8.284449e-11
8.359848e-11
3.928277e-12
5.293403e-11
8.042553e-11
8.158225e-11
8.21783e-11
8.283746e-11
8.358811e-11
4.900427e-12
5.229621e-11
8.037697e-11
8.157004e-11
8.21723e-11
8.282935e-11
8.35775e-11
6.091478e-12
5.207401e-11
8.034061e-11
8.155876e-11
8.216429e-11
8.28191e-11
8.356435e-11
7.536937e-12
5.184622e-11
8.032123e-11
8.154166e-11
8.213307e-11
8.280097e-11
8.354534e-11
9.270942e-12
5.159735e-11
8.029023e-11
8.151713e-11
8.209233e-11
8.27505e-11
8.351456e-11
1.131837e-11
5.132783e-11
8.024336e-11
8.147784e-11
8.204871e-11
8.269942e-11
8.347991e-11
1.368241e-11
5.103061e-11
8.017818e-11
8.143115e-11
8.200437e-11
8.265179e-11
8.342923e-11
1.631563e-11
5.070586e-11
8.010111e-11
8.138295e-11
8.196491e-11
8.261586e-11
8.33897e-11
1.905004e-11
5.011972e-11
8.001121e-11
8.133059e-11
8.190821e-11
8.255867e-11
8.332615e-11
2.176659e-11
4.905691e-11
7.989824e-11
8.124175e-11
8.180346e-11
8.244686e-11
8.323281e-11
2.452961e-11
4.800954e-11
7.969031e-11
8.105296e-11
8.161871e-11
8.225288e-11
8.299935e-11
2.695165e-11
4.750102e-11
7.943587e-11
8.080202e-11
8.131829e-11
8.196049e-11
8.268906e-11
2.867215e-11
4.702585e-11
7.917673e-11
8.055978e-11
8.100118e-11
8.155346e-11
8.239538e-11
2.934444e-11
4.639865e-11
7.895172e-11
8.027975e-11
8.070857e-11
8.123646e-11
8.193093e-11
2.879446e-11
4.543688e-11
7.871417e-11
7.993019e-11
8.036635e-11
8.087389e-11
8.148498e-11
2.740346e-11
4.434606e-11
7.840741e-11
7.963162e-11
7.992933e-11
8.040217e-11
8.09908e-11
2.502323e-11
4.362138e-11
7.806915e-11
7.933113e-11
7.953538e-11
7.991487e-11
8.041457e-11
2.192161e-11
4.286887e-11
7.772999e-11
7.896323e-11
7.920011e-11
7.956639e-11
8.000786e-11
1.854866e-11
4.217594e-11
7.74223e-11
7.864025e-11
7.885159e-11
7.917259e-11
7.965252e-11
1.510943e-11
4.103306e-11
7.714591e-11
7.839612e-11
7.859964e-11
7.888694e-11
7.927109e-11
1.151658e-11
3.939067e-11
7.681953e-11
7.81384e-11
7.837221e-11
7.868619e-11
7.905274e-11
8.344485e-12
3.861127e-11
7.652141e-11
7.801368e-11
7.828127e-11
7.863661e-11
7.892085e-11
5.499636e-12
3.815036e-11
7.633382e-11
7.787208e-11
7.818084e-11
7.85279e-11
7.883793e-11
3.112346e-12
3.782797e-11
7.623173e-11
7.780498e-11
7.814988e-11
7.85025e-11
7.887355e-11
1.363616e-12
3.763493e-11
7.617838e-11
7.778315e-11
7.815659e-11
7.853482e-11
7.894266e-11
1.116973e-12
3.768505e-11
7.616081e-11
7.775022e-11
7.811252e-11
7.849249e-11
7.891664e-11
2.335324e-12
3.796597e-11
7.62054e-11
7.774532e-11
7.807532e-11
7.84273e-11
7.880683e-11
4.407248e-12
3.83818e-11
7.630994e-11
7.779582e-11
7.808329e-11
7.841731e-11
7.871602e-11
7.370816e-12
3.894724e-11
7.648836e-11
7.790046e-11
7.813023e-11
7.845259e-11
7.869654e-11
1.129525e-11
3.983187e-11
7.677763e-11
7.799524e-11
7.819e-11
7.847982e-11
7.8817e-11
1.625432e-11
4.156098e-11
7.714293e-11
7.829177e-11
7.84407e-11
7.86786e-11
7.901178e-11
2.135014e-11
4.277785e-11
7.743377e-11
7.852308e-11
7.868082e-11
7.89503e-11
7.937717e-11
2.616649e-11
4.349727e-11
7.774435e-11
7.883828e-11
7.902391e-11
7.934928e-11
7.976308e-11
3.014469e-11
4.420929e-11
7.808918e-11
7.921647e-11
7.938412e-11
7.976497e-11
8.022395e-11
3.269211e-11
4.480789e-11
7.844984e-11
7.956385e-11
7.982621e-11
8.027596e-11
8.081478e-11
3.362579e-11
4.576629e-11
7.879013e-11
7.991884e-11
8.030666e-11
8.077575e-11
8.131341e-11
3.334856e-11
4.66775e-11
7.904603e-11
8.03213e-11
8.069482e-11
8.117433e-11
8.178695e-11
3.164914e-11
4.729584e-11
7.927094e-11
8.062093e-11
8.105021e-11
8.152273e-11
8.227418e-11
2.892216e-11
4.777725e-11
7.952463e-11
8.08586e-11
8.137179e-11
8.195977e-11
8.259937e-11
2.568958e-11
4.828916e-11
7.976995e-11
8.109433e-11
8.164277e-11
8.226318e-11
8.295436e-11
2.23241e-11
4.917304e-11
7.995835e-11
8.127183e-11
8.181961e-11
8.245275e-11
8.321913e-11
1.915654e-11
5.002939e-11
8.00689e-11
8.135604e-11
8.192396e-11
8.256656e-11
8.331705e-11
1.615027e-11
5.053769e-11
8.015105e-11
8.141365e-11
8.198769e-11
8.262475e-11
8.338147e-11
1.339725e-11
5.084521e-11
8.022097e-11
8.146206e-11
8.203291e-11
8.266764e-11
8.343177e-11
1.099849e-11
5.124592e-11
8.02771e-11
8.150386e-11
8.207568e-11
8.272257e-11
8.349433e-11
8.960533e-12
5.158539e-11
8.03094e-11
8.152998e-11
8.211014e-11
8.277666e-11
8.352756e-11
7.268739e-12
5.186945e-11
8.032948e-11
8.154542e-11
8.213956e-11
8.280649e-11
8.354933e-11
5.863485e-12
5.212414e-11
8.034578e-11
8.155891e-11
8.216435e-11
8.281912e-11
8.356397e-11
4.708535e-12
5.233008e-11
8.037942e-11
8.156926e-11
8.217111e-11
8.282794e-11
8.357568e-11
3.771126e-12
5.295888e-11
8.042654e-11
8.158125e-11
8.217697e-11
8.283581e-11
8.358628e-11
3.015958e-12
5.345449e-11
8.043378e-11
8.158435e-11
8.218163e-11
8.284304e-11
8.359681e-11
2.425395e-12
5.375063e-11
8.043541e-11
8.158683e-11
8.218611e-11
8.284963e-11
8.360619e-11
1.948847e-12
5.402968e-11
8.044718e-11
8.15894e-11
8.21903e-11
8.285565e-11
8.361602e-11
1.560449e-12
5.412359e-11
8.045118e-11
8.159158e-11
8.21942e-11
8.286195e-11
8.363573e-11
1.250984e-12
5.423228e-11
8.045596e-11
8.159372e-11
8.219773e-11
8.286752e-11
8.365282e-11
1.005283e-12
5.432568e-11
8.046001e-11
8.159569e-11
8.220093e-11
8.287228e-11
8.365957e-11
8.107289e-13
5.441621e-11
8.046398e-11
8.159754e-11
8.220394e-11
8.287752e-11
8.366552e-11
6.568268e-13
5.450235e-11
8.046765e-11
8.159916e-11
8.22072e-11
8.289012e-11
8.367805e-11
5.351294e-13
5.458437e-11
8.047112e-11
8.160075e-11
8.221019e-11
8.29006e-11
8.369343e-11
4.389184e-13
5.466263e-11
8.047445e-11
8.160223e-11
8.221246e-11
8.290417e-11
8.369768e-11
3.629829e-13
5.473714e-11
8.04775e-11
8.160354e-11
8.22152e-11
8.29073e-11
8.370105e-11
3.029154e-13
5.480831e-11
8.048053e-11
8.160522e-11
8.222333e-11
8.291528e-11
8.370482e-11
2.552534e-13
5.487599e-11
8.048339e-11
8.160671e-11
8.222999e-11
8.292511e-11
8.370847e-11
2.173664e-13
5.494065e-11
8.048603e-11
8.160766e-11
8.223167e-11
8.292752e-11
8.371112e-11
1.871743e-13
5.500193e-11
8.048837e-11
8.160859e-11
8.223307e-11
8.29293e-11
8.371364e-11
1.630525e-13
5.506017e-11
8.049044e-11
8.160967e-11
8.223451e-11
8.293103e-11
8.37161e-11
1.437196e-13
5.511546e-11
8.049321e-11
8.161457e-11
8.223914e-11
8.293295e-11
8.371849e-11
1.281837e-13
5.516743e-11
8.049548e-11
8.161838e-11
8.224491e-11
8.293497e-11
8.372068e-11
1.156916e-13
5.521605e-11
8.049675e-11
8.16188e-11
8.224592e-11
8.293642e-11
8.372286e-11
1.056069e-13
5.526071e-11
8.049762e-11
8.161894e-11
8.224658e-11
8.293776e-11
8.372492e-11
9.744833e-14
5.530139e-11
8.049809e-11
8.161897e-11
8.224725e-11
8.293919e-11
8.372707e-11
9.087371e-14
5.533722e-11
8.049806e-11
8.161896e-11
8.224804e-11
8.294078e-11
8.372947e-11
8.565004e-14
5.536689e-11
8.04974e-11
8.161903e-11
8.224903e-11
8.294268e-11
8.373216e-11
8.158556e-14
5.538752e-11
8.049592e-11
8.161946e-11
8.225052e-11
8.294526e-11
8.373551e-11
7.856312e-14
5.540926e-11
8.050474e-11
8.162268e-11
8.225329e-11
8.294885e-11
8.374033e-11
7.661128e-14
5.541464e-11
8.051152e-11
8.162817e-11
8.225808e-11
8.295444e-11
8.37583e-11
7.596149e-14
5.539104e-11
8.051164e-11
8.163429e-11
8.22654e-11
8.29726e-11
8.377887e-11
7.744164e-14
5.534371e-11
8.051701e-11
8.164565e-11
8.228636e-11
8.299431e-11
8.380084e-11
8.534191e-14
5.52355e-11
8.053205e-11
8.167472e-11
8.231326e-11
8.30185e-11
8.382415e-11
1.048983e-13
5.516802e-11
8.0592e-11
8.171521e-11
8.234491e-11
8.304451e-11
8.384797e-11
8.29928e-14
5.631898e-11
8.066645e-11
8.176773e-11
8.238181e-11
8.307161e-11
8.387155e-11
8.482276e-11
8.602842e-11
8.765648e-11
8.923824e-11
9.210606e-11
9.806369e-11
1.290108e-09
8.480203e-11
8.600162e-11
8.762073e-11
8.919596e-11
9.205229e-11
9.709891e-11
5.24792e-10
8.477899e-11
8.597406e-11
8.758666e-11
8.974356e-11
9.20055e-11
9.701991e-11
5.273095e-10
8.475503e-11
8.594603e-11
8.754977e-11
8.910995e-11
9.194709e-11
9.694061e-11
5.242107e-10
8.473141e-11
8.59178e-11
8.751479e-11
8.906337e-11
9.189356e-11
9.686148e-11
5.202095e-10
8.470822e-11
8.588957e-11
8.747884e-11
8.90195e-11
9.184099e-11
9.678295e-11
5.142631e-10
8.468579e-11
8.586177e-11
8.744324e-11
8.897729e-11
9.182636e-11
9.670557e-11
5.054945e-10
8.466558e-11
8.583445e-11
8.740813e-11
8.893603e-11
9.181292e-11
9.662889e-11
4.914528e-10
8.465995e-11
8.580942e-11
8.737471e-11
8.889405e-11
9.177112e-11
9.655764e-11
4.733643e-10
8.465581e-11
8.580279e-11
8.73437e-11
8.885239e-11
9.172983e-11
9.648599e-11
4.511117e-10
8.465222e-11
8.579789e-11
8.733544e-11
8.881209e-11
9.168887e-11
9.641406e-11
4.276894e-10
8.464881e-11
8.579306e-11
8.732911e-11
8.880329e-11
9.164774e-11
9.633915e-11
3.963827e-10
8.464559e-11
8.578835e-11
8.732266e-11
8.879543e-11
9.164066e-11
9.6261e-11
3.661174e-10
8.464236e-11
8.578364e-11
8.731608e-11
8.878727e-11
9.163277e-11
9.62514e-11
3.41877e-10
8.463912e-11
8.577871e-11
8.730927e-11
8.877883e-11
9.16244e-11
9.619555e-11
2.908416e-10
8.463573e-11
8.577363e-11
8.730223e-11
8.877004e-11
9.161545e-11
9.615055e-11
2.512696e-10
8.463227e-11
8.576833e-11
8.729495e-11
8.876063e-11
9.160224e-11
9.610544e-11
2.277309e-10
8.462866e-11
8.576298e-11
8.728719e-11
8.874644e-11
9.147664e-11
9.60582e-11
2.039828e-10
8.462488e-11
8.575762e-11
8.727926e-11
8.873615e-11
9.145989e-11
9.601406e-11
1.847802e-10
8.462085e-11
8.575195e-11
8.72709e-11
8.872547e-11
9.144618e-11
9.59667e-11
1.652803e-10
8.461665e-11
8.574598e-11
8.726222e-11
8.871425e-11
9.143186e-11
9.591672e-11
1.463845e-10
8.461209e-11
8.573965e-11
8.725325e-11
8.870232e-11
9.141687e-11
9.588147e-11
1.634477e-10
8.460733e-11
8.57329e-11
8.724285e-11
8.869005e-11
9.139836e-11
9.591048e-11
6.129984e-10
8.460108e-11
8.572567e-11
8.723423e-11
8.922464e-11
9.128592e-11
9.588153e-11
5.880064e-10
8.459463e-11
8.571802e-11
8.72211e-11
8.866792e-11
9.12223e-11
9.587154e-11
6.043917e-10
8.458859e-11
8.570997e-11
8.721004e-11
8.86477e-11
9.120012e-11
9.587003e-11
7.169228e-10
8.45807e-11
8.570063e-11
8.719743e-11
8.86316e-11
9.117661e-11
9.583062e-11
6.808717e-10
8.455616e-11
8.569009e-11
8.718215e-11
8.861457e-11
9.114471e-11
9.552718e-11
6.43459e-10
8.453611e-11
8.537611e-11
8.67639e-11
8.859378e-11
9.111554e-11
9.540725e-11
5.978548e-10
8.452268e-11
8.536135e-11
8.674842e-11
8.857582e-11
9.108828e-11
9.533334e-11
4.580474e-10
8.44905e-11
8.531856e-11
8.673315e-11
8.85553e-11
9.105922e-11
9.540526e-11
6.0921e-10
8.446675e-11
8.528732e-11
8.671695e-11
8.853301e-11
9.102766e-11
9.52478e-11
5.70836e-10
8.445012e-11
8.521633e-11
8.669678e-11
8.850914e-11
9.099413e-11
9.510315e-11
4.589726e-10
8.443516e-11
8.519377e-11
8.663264e-11
8.848451e-11
9.095873e-11
9.493775e-11
3.179791e-10
8.441491e-11
8.516503e-11
8.655104e-11
8.845796e-11
9.092006e-11
9.464639e-11
2.03418e-10
8.438756e-11
8.512994e-11
8.64743e-11
8.842155e-11
9.088344e-11
9.457283e-11
2.691056e-10
8.436688e-11
8.50988e-11
8.646372e-11
8.832697e-11
9.086471e-11
9.440715e-11
2.208248e-10
8.436383e-11
8.509304e-11
8.647847e-11
8.824693e-11
9.088561e-11
9.452021e-11
2.880892e-10
8.437076e-11
8.511609e-11
8.653359e-11
8.830254e-11
9.09619e-11
9.469758e-11
1.115516e-10
8.435742e-11
8.514277e-11
8.665415e-11
8.855201e-11
9.085049e-11
9.447812e-11
1.32921e-10
8.424155e-11
8.514273e-11
8.67623e-11
8.857088e-11
9.061121e-11
9.371427e-11
1.226208e-10
8.401246e-11
8.49971e-11
8.648594e-11
8.827226e-11
9.031779e-11
9.281691e-11
1.210436e-10
8.376063e-11
8.479261e-11
8.626773e-11
8.787915e-11
8.985416e-11
9.224114e-11
1.350785e-10
8.350173e-11
8.455761e-11
8.606495e-11
8.754272e-11
8.935534e-11
9.206254e-11
1.230465e-10
8.305258e-11
8.417563e-11
8.555176e-11
8.730259e-11
8.872171e-11
9.174149e-11
1.144445e-10
8.247533e-11
8.378048e-11
8.535306e-11
8.669023e-11
8.84176e-11
9.099881e-11
2.212766e-10
8.195421e-11
8.324674e-11
8.487282e-11
8.646515e-11
8.773161e-11
9.069226e-11
1.867689e-10
8.152473e-11
8.273792e-11
8.46403e-11
8.594162e-11
8.764166e-11
8.963419e-11
1.19168e-10
8.091388e-11
8.224363e-11
8.404645e-11
8.553688e-11
8.719016e-11
8.980785e-11
1.523685e-10
8.049939e-11
8.172936e-11
8.363582e-11
8.507716e-11
8.673044e-11
8.88105e-11
1.073522e-10
8.01172e-11
8.125912e-11
8.299823e-11
8.454528e-11
8.620285e-11
8.813831e-11
9.514903e-11
7.993294e-11
8.103755e-11
8.270125e-11
8.402438e-11
8.550852e-11
8.74623e-11
9.827702e-11
7.979805e-11
8.078804e-11
8.244019e-11
8.368753e-11
8.520372e-11
8.808967e-11
1.944126e-10
7.967494e-11
8.066805e-11
8.226062e-11
8.355881e-11
8.465875e-11
8.625462e-11
9.972742e-11
7.967925e-11
8.059861e-11
8.233973e-11
8.336126e-11
8.440719e-11
8.468799e-11
8.59826e-11
7.977117e-11
8.066718e-11
8.231312e-11
8.335985e-11
8.395573e-11
8.424766e-11
7.975656e-11
8.07134e-11
8.239507e-11
8.34628e-11
8.41587e-11
8.452692e-11
7.965092e-11
8.06238e-11
8.224199e-11
8.328135e-11
8.391351e-11
8.419685e-11
7.955031e-11
8.053226e-11
8.216551e-11
8.31634e-11
8.426197e-11
8.524645e-11
8.852849e-11
7.952667e-11
8.03695e-11
8.214129e-11
8.335726e-11
8.462307e-11
8.66345e-11
9.796496e-11
7.960995e-11
8.04138e-11
8.224499e-11
8.367135e-11
8.502796e-11
8.695258e-11
1.246915e-10
7.977987e-11
8.049488e-11
8.220891e-11
8.377195e-11
8.536935e-11
8.727729e-11
1.113786e-10
8.016309e-11
8.08947e-11
8.287878e-11
8.426857e-11
8.566993e-11
8.790524e-11
9.901559e-11
8.062588e-11
8.139918e-11
8.315892e-11
8.444753e-11
8.633608e-11
8.830568e-11
1.08072e-10
8.124956e-11
8.190005e-11
8.358644e-11
8.511746e-11
8.665962e-11
8.868313e-11
1.097794e-10
8.172976e-11
8.254814e-11
8.409992e-11
8.549432e-11
8.700728e-11
8.921394e-11
1.764904e-10
8.224088e-11
8.300586e-11
8.451014e-11
8.598609e-11
8.74192e-11
8.973365e-11
1.245715e-10
8.280829e-11
8.359273e-11
8.498107e-11
8.637008e-11
8.796644e-11
9.053619e-11
1.437246e-10
8.322306e-11
8.403995e-11
8.543052e-11
8.694332e-11
8.852595e-11
9.119782e-11
1.079721e-10
8.360129e-11
8.441093e-11
8.583276e-11
8.736806e-11
8.920032e-11
9.307156e-11
8.853546e-10
8.389065e-11
8.471837e-11
8.611621e-11
8.776598e-11
8.974281e-11
9.21179e-11
1.181311e-10
8.416702e-11
8.489843e-11
8.640846e-11
8.822204e-11
9.022422e-11
9.283168e-11
1.691571e-10
8.430294e-11
8.511678e-11
8.649164e-11
8.840689e-11
9.057998e-11
9.383733e-11
1.171812e-10
8.433697e-11
8.510674e-11
8.649369e-11
8.829834e-11
9.078702e-11
9.449693e-11
1.227978e-10
8.434628e-11
8.509193e-11
8.644633e-11
8.8195e-11
9.09046e-11
9.460304e-11
3.2752e-10
8.436771e-11
8.509609e-11
8.643648e-11
8.821615e-11
9.083981e-11
9.438778e-11
1.042894e-10
8.439418e-11
8.512288e-11
8.645531e-11
8.834296e-11
9.086362e-11
9.448754e-11
1.53651e-10
8.441666e-11
8.515384e-11
8.650766e-11
8.843625e-11
9.089669e-11
9.463676e-11
2.553599e-10
8.443357e-11
8.518476e-11
8.658361e-11
8.846493e-11
9.093242e-11
9.470918e-11
2.739892e-10
8.444759e-11
8.519564e-11
8.667728e-11
8.849106e-11
9.096921e-11
9.495e-11
4.324153e-10
8.446432e-11
8.524937e-11
8.670311e-11
8.851674e-11
9.100511e-11
9.519971e-11
5.691968e-10
8.448838e-11
8.529628e-11
8.672204e-11
8.854063e-11
9.103881e-11
9.527341e-11
6.104552e-10
8.452101e-11
8.535101e-11
8.673833e-11
8.856268e-11
9.106997e-11
9.535071e-11
5.73996e-10
8.453463e-11
8.536021e-11
8.67539e-11
8.858292e-11
9.109866e-11
9.534629e-11
4.666155e-10
8.455486e-11
8.568858e-11
8.718039e-11
8.860616e-11
9.112653e-11
9.542384e-11
6.100589e-10
8.457953e-11
8.569927e-11
8.719581e-11
8.862266e-11
9.115955e-11
9.57043e-11
6.56199e-10
8.45876e-11
8.570877e-11
8.720879e-11
8.863929e-11
9.11868e-11
9.584623e-11
6.944442e-10
8.459377e-11
8.571704e-11
8.722066e-11
8.865486e-11
9.121003e-11
9.588404e-11
7.336607e-10
8.460038e-11
8.57249e-11
8.723193e-11
8.866961e-11
9.123463e-11
9.576651e-11
1.572712e-10
8.460672e-11
8.573216e-11
8.724239e-11
8.868371e-11
9.135777e-11
9.581106e-11
1.520781e-10
8.461155e-11
8.573899e-11
8.725232e-11
8.869692e-11
9.140833e-11
9.585314e-11
1.518396e-10
8.461616e-11
8.574551e-11
8.726168e-11
8.87092e-11
9.142385e-11
9.588877e-11
1.403425e-10
8.462051e-11
8.575157e-11
8.72705e-11
8.872092e-11
9.143879e-11
9.593252e-11
1.542622e-10
8.462467e-11
8.57573e-11
8.727897e-11
8.873192e-11
9.145277e-11
9.597844e-11
1.713988e-10
8.462846e-11
8.576274e-11
8.72869e-11
8.874242e-11
9.146614e-11
9.602608e-11
1.915314e-10
8.463211e-11
8.576814e-11
8.729468e-11
8.875525e-11
9.153153e-11
9.607252e-11
2.135984e-10
8.463558e-11
8.577344e-11
8.730201e-11
8.876671e-11
9.161069e-11
9.611882e-11
2.381319e-10
8.463892e-11
8.577846e-11
8.730901e-11
8.877587e-11
9.161977e-11
9.616238e-11
2.656843e-10
8.464209e-11
8.57833e-11
8.731574e-11
8.878473e-11
9.162847e-11
9.621849e-11
3.092508e-10
8.46452e-11
8.57879e-11
8.732224e-11
8.879316e-11
9.163661e-11
9.624928e-11
3.406177e-10
8.464822e-11
8.579242e-11
8.732849e-11
8.880139e-11
9.164444e-11
9.629497e-11
3.68048e-10
8.465132e-11
8.579699e-11
8.733463e-11
8.880938e-11
9.166832e-11
9.637117e-11
3.960137e-10
8.465452e-11
8.580158e-11
8.734265e-11
8.883392e-11
9.170893e-11
9.644619e-11
4.247649e-10
8.465813e-11
8.580777e-11
8.737333e-11
8.887544e-11
9.175e-11
9.65188e-11
4.488783e-10
8.466305e-11
8.583221e-11
8.740628e-11
8.891739e-11
9.17913e-11
9.659053e-11
4.683245e-10
8.468237e-11
8.585893e-11
8.744094e-11
8.895981e-11
9.18311e-11
9.666488e-11
4.868633e-10
8.470387e-11
8.588615e-11
8.747617e-11
8.90002e-11
9.181586e-11
9.674243e-11
5.014657e-10
8.472624e-11
8.591398e-11
8.75118e-11
8.904341e-11
9.186665e-11
9.682054e-11
5.110929e-10
8.474943e-11
8.594229e-11
8.754778e-11
8.908671e-11
9.191934e-11
9.689959e-11
5.177304e-10
8.477364e-11
8.59709e-11
8.758391e-11
8.913025e-11
9.197236e-11
9.697893e-11
5.223268e-10
8.479794e-11
8.599929e-11
8.761996e-11
8.917343e-11
9.202562e-11
9.70585e-11
5.236934e-10
8.482191e-11
8.602795e-11
8.765601e-11
8.92164e-11
9.207898e-11
9.718259e-11
4.920476e-10
2.418867e-07
3.273448e-07
3.282102e-07
3.28214e-07
3.28214e-07
3.28214e-07
3.28214e-07
3.28214e-07
3.28214e-07
3.28214e-07
3.28214e-07
3.28214e-07
3.28214e-07
3.28214e-07
3.28214e-07
3.28214e-07
3.28214e-07
3.28214e-07
2.516098e-07
3.277009e-07
3.282136e-07
3.282143e-07
3.282143e-07
3.282143e-07
3.282143e-07
3.282143e-07
3.282143e-07
3.282143e-07
3.282143e-07
3.282143e-07
3.282143e-07
3.282143e-07
3.282143e-07
3.282143e-07
3.282143e-07
3.282143e-07
2.463884e-07
3.27621e-07
3.282138e-07
3.282143e-07
3.282143e-07
3.282143e-07
3.282143e-07
3.282143e-07
3.282143e-07
3.282143e-07
3.282143e-07
3.282143e-07
3.282143e-07
3.282143e-07
3.282143e-07
3.282143e-07
3.282143e-07
3.282143e-07
2.43125e-07
3.275968e-07
3.282137e-07
3.282143e-07
3.282143e-07
3.282143e-07
3.282143e-07
3.282143e-07
3.282143e-07
3.282143e-07
3.282143e-07
3.282143e-07
3.282143e-07
3.282143e-07
3.282143e-07
3.282143e-07
3.282143e-07
3.282143e-07
2.390935e-07
3.275741e-07
3.282137e-07
3.282143e-07
3.282143e-07
3.282143e-07
3.282143e-07
3.282143e-07
3.282143e-07
3.282143e-07
3.282143e-07
3.282143e-07
3.282143e-07
3.282143e-07
3.282143e-07
3.282143e-07
3.282143e-07
3.282143e-07
2.340178e-07
3.275394e-07
3.282137e-07
3.282143e-07
3.282143e-07
3.282143e-07
3.282143e-07
3.282143e-07
3.282143e-07
3.282143e-07
3.282143e-07
3.282143e-07
3.282143e-07
3.282143e-07
3.282143e-07
3.282143e-07
3.282143e-07
3.282143e-07
2.284642e-07
3.274958e-07
3.282136e-07
3.282143e-07
3.282143e-07
3.282143e-07
3.282143e-07
3.282143e-07
3.282143e-07
3.282143e-07
3.282143e-07
3.282143e-07
3.282143e-07
3.282143e-07
3.282143e-07
3.282143e-07
3.282143e-07
3.282143e-07
2.222887e-07
3.274517e-07
3.282136e-07
3.282143e-07
3.282143e-07
3.282143e-07
3.282143e-07
3.282143e-07
3.282143e-07
3.282143e-07
3.282143e-07
3.282143e-07
3.282143e-07
3.282143e-07
3.282143e-07
3.282143e-07
3.282143e-07
3.282143e-07
2.163973e-07
3.274231e-07
3.282135e-07
3.282143e-07
3.282143e-07
3.282143e-07
3.282143e-07
3.282143e-07
3.282143e-07
3.282143e-07
3.282143e-07
3.282143e-07
3.282143e-07
3.282143e-07
3.282143e-07
3.282143e-07
3.282143e-07
3.282143e-07
2.102469e-07
3.273969e-07
3.282135e-07
3.282143e-07
3.282143e-07
3.282143e-07
3.282143e-07
3.282143e-07
3.282143e-07
3.282143e-07
3.282143e-07
3.282143e-07
3.282143e-07
3.282143e-07
3.282143e-07
3.282143e-07
3.282143e-07
3.282143e-07
2.038556e-07
3.273595e-07
3.282135e-07
3.282143e-07
3.282143e-07
3.282143e-07
3.282143e-07
3.282143e-07
3.282143e-07
3.282143e-07
3.282143e-07
3.282143e-07
3.282143e-07
3.282143e-07
3.282143e-07
3.282143e-07
3.282143e-07
3.282143e-07
1.975308e-07
3.273325e-07
3.282135e-07
3.282143e-07
3.282143e-07
3.282143e-07
3.282143e-07
3.282143e-07
3.282143e-07
3.282143e-07
3.282143e-07
3.282143e-07
3.282143e-07
3.282143e-07
3.282143e-07
3.282143e-07
3.282143e-07
3.282143e-07
1.914165e-07
3.273117e-07
3.282134e-07
3.282143e-07
3.282143e-07
3.282143e-07
3.282143e-07
3.282143e-07
3.282143e-07
3.282143e-07
3.282143e-07
3.282143e-07
3.282143e-07
3.282143e-07
3.282143e-07
3.282143e-07
3.282143e-07
3.282143e-07
1.824653e-07
3.272497e-07
3.282133e-07
3.282143e-07
3.282143e-07
3.282143e-07
3.282143e-07
3.282143e-07
3.282143e-07
3.282143e-07
3.282143e-07
3.282143e-07
3.282143e-07
3.282143e-07
3.282143e-07
3.282143e-07
3.282143e-07
3.282143e-07
1.543914e-07
3.268422e-07
3.282121e-07
3.282143e-07
3.282143e-07
3.282143e-07
3.282143e-07
3.282143e-07
3.282143e-07
3.282143e-07
3.282143e-07
3.282143e-07
3.282143e-07
3.282143e-07
3.282143e-07
3.282143e-07
3.282143e-07
3.282143e-07
1.453716e-07
3.265394e-07
3.282037e-07
3.282141e-07
3.282143e-07
3.282143e-07
3.282143e-07
3.282143e-07
3.282143e-07
3.282143e-07
3.282143e-07
3.282143e-07
3.282143e-07
3.282143e-07
3.282143e-07
3.282143e-07
3.282143e-07
3.282143e-07
1.36635e-07
3.266628e-07
3.282134e-07
3.282115e-07
3.282142e-07
3.282143e-07
3.282143e-07
3.282143e-07
3.282143e-07
3.282143e-07
3.282143e-07
3.282143e-07
3.282143e-07
3.282143e-07
3.282143e-07
3.282143e-07
3.282143e-07
3.282143e-07
1.277293e-07
3.265624e-07
3.282138e-07
3.282143e-07
3.282135e-07
3.282143e-07
3.282143e-07
3.282143e-07
3.282143e-07
3.282143e-07
3.282143e-07
3.282143e-07
3.282143e-07
3.282143e-07
3.282143e-07
3.282143e-07
3.282143e-07
3.282143e-07
1.192337e-07
3.264527e-07
3.282123e-07
3.282147e-07
3.282142e-07
3.282142e-07
3.282143e-07
3.282143e-07
3.282143e-07
3.282143e-07
3.282143e-07
3.282143e-07
3.282143e-07
3.282143e-07
3.282143e-07
3.282143e-07
3.282143e-07
3.282143e-07
1.114311e-07
3.263287e-07
3.282121e-07
3.282143e-07
3.282144e-07
3.282142e-07
3.282143e-07
3.282143e-07
3.282143e-07
3.282143e-07
3.282143e-07
3.282143e-07
3.282143e-07
3.282143e-07
3.282143e-07
3.282143e-07
3.282143e-07
3.282143e-07
1.041711e-07
3.262076e-07
3.28212e-07
3.282143e-07
3.282143e-07
3.282143e-07
3.282143e-07
3.282143e-07
3.282143e-07
3.282143e-07
3.282143e-07
3.282143e-07
3.282143e-07
3.282143e-07
3.282143e-07
3.282143e-07
3.282143e-07
3.282143e-07
9.766048e-08
3.260785e-07
3.282119e-07
3.282143e-07
3.282143e-07
3.282143e-07
3.282143e-07
3.282143e-07
3.282143e-07
3.282143e-07
3.282143e-07
3.282143e-07
3.282143e-07
3.282143e-07
3.282143e-07
3.282143e-07
3.282143e-07
3.282143e-07
9.249856e-08
3.259728e-07
3.282118e-07
3.282143e-07
3.282143e-07
3.282143e-07
3.282143e-07
3.282143e-07
3.282143e-07
3.282143e-07
3.282143e-07
3.282143e-07
3.282143e-07
3.282143e-07
3.282143e-07
3.282143e-07
3.282143e-07
3.282143e-07
8.667739e-08
3.258346e-07
3.282117e-07
3.282143e-07
3.282143e-07
3.282143e-07
3.282143e-07
3.282143e-07
3.282143e-07
3.282143e-07
3.282143e-07
3.282143e-07
3.282143e-07
3.282143e-07
3.282143e-07
3.282143e-07
3.282143e-07
3.282143e-07
8.088679e-08
3.256995e-07
3.282115e-07
3.282143e-07
3.282143e-07
3.282143e-07
3.282143e-07
3.282143e-07
3.282143e-07
3.282143e-07
3.282143e-07
3.282143e-07
3.282143e-07
3.282143e-07
3.282143e-07
3.282143e-07
3.282143e-07
3.282143e-07
7.563925e-08
3.255787e-07
3.282114e-07
3.282143e-07
3.282143e-07
3.282143e-07
3.282143e-07
3.282143e-07
3.282143e-07
3.282143e-07
3.282143e-07
3.282143e-07
3.282143e-07
3.282143e-07
3.282143e-07
3.282143e-07
3.282143e-07
3.282143e-07
7.019631e-08
3.254604e-07
3.282113e-07
3.282143e-07
3.282143e-07
3.282143e-07
3.282143e-07
3.282143e-07
3.282143e-07
3.282143e-07
3.282143e-07
3.282143e-07
3.282143e-07
3.282143e-07
3.282143e-07
3.282143e-07
3.282143e-07
3.282143e-07
6.480798e-08
3.253211e-07
3.282111e-07
3.282143e-07
3.282142e-07
3.282143e-07
3.282143e-07
3.282143e-07
3.282143e-07
3.282143e-07
3.282143e-07
3.282143e-07
3.282143e-07
3.282143e-07
3.282143e-07
3.282143e-07
3.282143e-07
3.282143e-07
5.969432e-08
3.252157e-07
3.282109e-07
3.282138e-07
3.282137e-07
3.282143e-07
3.282143e-07
3.282143e-07
3.282143e-07
3.282143e-07
3.282143e-07
3.282143e-07
3.282143e-07
3.282143e-07
3.282143e-07
3.282143e-07
3.282143e-07
3.282143e-07
5.439924e-08
3.251471e-07
3.282108e-07
3.281951e-07
3.281987e-07
3.282142e-07
3.282143e-07
3.282142e-07
3.282142e-07
3.282143e-07
3.282143e-07
3.282143e-07
3.282143e-07
3.282143e-07
3.282143e-07
3.282143e-07
3.282143e-07
3.282143e-07
5.024706e-08
3.252169e-07
3.282099e-07
3.279948e-07
3.280565e-07
3.282124e-07
3.282142e-07
3.282119e-07
3.282131e-07
3.282143e-07
3.282143e-07
3.282143e-07
3.282143e-07
3.282143e-07
3.282143e-07
3.282143e-07
3.282143e-07
3.282143e-07
4.55641e-08
3.254929e-07
3.282107e-07
3.28165e-07
3.282111e-07
3.282135e-07
3.282141e-07
3.282094e-07
3.282091e-07
3.282143e-07
3.282143e-07
3.282143e-07
3.282143e-07
3.282143e-07
3.282143e-07
3.282143e-07
3.282143e-07
3.282143e-07
4.066396e-08
3.261477e-07
3.28196e-07
3.280422e-07
3.280746e-07
3.282116e-07
3.28214e-07
3.28214e-07
3.282144e-07
3.282143e-07
3.282143e-07
3.282143e-07
3.282143e-07
3.282142e-07
3.282143e-07
3.282143e-07
3.282143e-07
3.282143e-07
3.483955e-08
3.256458e-07
3.281618e-07
3.276335e-07
3.277086e-07
3.281433e-07
3.282138e-07
3.282137e-07
3.282138e-07
3.28214e-07
3.282143e-07
3.282143e-07
3.282143e-07
3.282143e-07
3.282143e-07
3.282143e-07
3.282142e-07
3.282143e-07
2.50536e-08
3.243931e-07
3.281118e-07
3.279027e-07
3.277978e-07
3.27715e-07
3.282118e-07
3.282096e-07
3.282094e-07
3.282116e-07
3.282143e-07
3.282143e-07
3.282142e-07
3.282143e-07
3.282143e-07
3.282143e-07
3.28214e-07
3.282143e-07
1.87811e-08
3.23863e-07
3.280556e-07
3.281944e-07
3.282523e-07
3.282517e-07
3.282076e-07
3.281984e-07
3.281958e-07
3.282153e-07
3.282145e-07
3.282143e-07
3.282141e-07
3.282143e-07
3.282143e-07
3.282143e-07
3.282142e-07
3.282143e-07
1.108427e-08
3.254693e-07
3.279134e-07
3.280279e-07
3.282115e-07
3.282639e-07
3.282761e-07
3.282725e-07
3.282599e-07
3.28243e-07
3.282299e-07
3.282197e-07
3.282141e-07
3.282144e-07
3.282142e-07
3.282141e-07
3.282144e-07
3.282143e-07
2.789403e-08
3.131623e-07
3.265812e-07
3.276775e-07
3.283736e-07
3.284721e-07
3.285418e-07
3.285693e-07
3.285543e-07
3.284861e-07
3.284341e-07
3.283483e-07
3.282629e-07
3.282303e-07
3.282158e-07
3.282136e-07
3.282143e-07
3.282143e-07
3.293229e-08
3.304092e-07
3.274084e-07
3.282957e-07