/*--------------------------------*- C++ -*----------------------------------*\
| =========                 |                                                 |
| \\      /  F ield         | OpenFOAM: The Open Source CFD Toolbox           |
|  \\    /   O peration     | Version:  2206                                  |
|   \\  /    A nd           | Website:  www.openfoam.com                      |
|    \\/     M anipulation  |                                                 |
\*---------------------------------------------------------------------------*/
FoamFile
{
    version     2.0;
    format      ascii;
    arch        "LSB;label=32;scalar=64";
    class       volScalarField;
    location    "2";
    object      k.b_0;
}
// * * * * * * * * * * * * * * * * * * * * * * * * * * * * * * * * * * * * * //

dimensions      [0 2 -2 0 0 0 0];

internalField   nonuniform List<scalar> 
13078
(
5.799139e-14
6.330117e-11
8.155377e-11
8.222832e-11
8.280491e-11
8.349045e-11
8.42917e-11
6.764082e-14
5.556028e-11
8.106299e-11
8.216667e-11
8.278013e-11
8.347183e-11
8.427337e-11
9.226711e-14
5.535065e-11
8.096577e-11
8.211439e-11
8.274572e-11
8.344648e-11
8.425093e-11
7.545952e-14
5.55734e-11
8.093811e-11
8.207385e-11
8.271344e-11
8.342034e-11
8.422714e-11
6.938717e-14
5.565592e-11
8.092178e-11
8.205383e-11
8.268704e-11
8.339569e-11
8.420383e-11
6.895771e-14
5.570295e-11
8.091596e-11
8.204172e-11
8.267554e-11
8.337476e-11
8.418159e-11
7.052924e-14
5.571559e-11
8.090705e-11
8.203282e-11
8.266774e-11
8.336701e-11
8.416206e-11
7.349497e-14
5.570699e-11
8.089769e-11
8.202777e-11
8.266312e-11
8.336182e-11
8.415603e-11
7.769406e-14
5.569556e-11
8.089949e-11
8.202647e-11
8.266053e-11
8.335819e-11
8.415176e-11
8.316718e-14
5.567231e-11
8.090071e-11
8.202604e-11
8.265891e-11
8.335559e-11
8.414843e-11
9.011089e-14
5.5641e-11
8.090129e-11
8.202596e-11
8.265781e-11
8.335357e-11
8.414558e-11
9.882585e-14
5.560342e-11
8.090127e-11
8.202598e-11
8.2657e-11
8.335188e-11
8.414312e-11
1.097084e-13
5.556099e-11
8.090078e-11
8.202591e-11
8.265631e-11
8.335039e-11
8.414083e-11
1.232966e-13
5.551408e-11
8.089985e-11
8.202557e-11
8.26553e-11
8.334888e-11
8.413854e-11
1.402964e-13
5.546342e-11
8.089792e-11
8.202184e-11
8.264954e-11
8.334686e-11
8.41363e-11
1.616198e-13
5.540914e-11
8.089541e-11
8.201702e-11
8.264497e-11
8.334499e-11
8.413393e-11
1.884415e-13
5.53517e-11
8.089354e-11
8.201604e-11
8.264357e-11
8.334327e-11
8.41315e-11
2.222758e-13
5.529106e-11
8.089139e-11
8.201518e-11
8.264222e-11
8.334147e-11
8.412895e-11
2.650519e-13
5.522687e-11
8.088898e-11
8.201427e-11
8.264057e-11
8.333907e-11
8.412628e-11
3.192446e-13
5.515951e-11
8.088629e-11
8.201286e-11
8.263393e-11
8.33293e-11
8.412272e-11
3.879863e-13
5.508854e-11
8.088343e-11
8.201127e-11
8.262586e-11
8.33214e-11
8.411909e-11
4.752777e-13
5.501407e-11
8.08805e-11
8.201006e-11
8.262326e-11
8.331836e-11
8.411582e-11
5.86166e-13
5.493569e-11
8.087727e-11
8.200865e-11
8.262105e-11
8.331488e-11
8.411157e-11
7.270305e-13
5.485329e-11
8.08739e-11
8.200715e-11
8.261811e-11
8.330437e-11
8.409619e-11
9.058671e-13
5.476649e-11
8.087037e-11
8.200552e-11
8.26149e-11
8.329181e-11
8.40837e-11
1.132657e-12
5.467489e-11
8.086648e-11
8.200374e-11
8.261199e-11
8.328671e-11
8.407787e-11
1.419761e-12
5.457978e-11
8.08624e-11
8.200185e-11
8.260887e-11
8.328205e-11
8.40712e-11
1.781804e-12
5.446856e-11
8.08575e-11
8.199983e-11
8.260537e-11
8.327653e-11
8.405422e-11
2.236665e-12
5.4371e-11
8.085324e-11
8.199766e-11
8.260154e-11
8.327028e-11
8.403457e-11
2.796324e-12
5.408697e-11
8.084105e-11
8.199511e-11
8.259748e-11
8.326435e-11
8.402481e-11
3.490633e-12
5.378238e-11
8.083863e-11
8.19927e-11
8.259304e-11
8.325791e-11
8.401558e-11
4.369924e-12
5.327585e-11
8.083024e-11
8.198951e-11
8.258844e-11
8.325083e-11
8.400516e-11
5.456698e-12
5.263589e-11
8.078159e-11
8.197725e-11
8.25824e-11
8.324268e-11
8.39945e-11
6.788967e-12
5.241287e-11
8.074516e-11
8.196592e-11
8.257435e-11
8.323238e-11
8.398129e-11
8.407157e-12
5.218422e-11
8.072573e-11
8.194877e-11
8.254305e-11
8.32142e-11
8.396223e-11
1.034944e-11
5.19344e-11
8.069471e-11
8.192421e-11
8.250225e-11
8.316365e-11
8.393141e-11
1.264378e-11
5.166388e-11
8.064784e-11
8.188497e-11
8.245861e-11
8.311251e-11
8.389665e-11
1.529508e-11
5.136563e-11
8.058269e-11
8.183833e-11
8.241427e-11
8.306472e-11
8.38456e-11
1.825402e-11
5.103994e-11
8.050563e-11
8.179015e-11
8.237471e-11
8.30285e-11
8.380552e-11
2.13516e-11
5.045228e-11
8.041566e-11
8.173768e-11
8.231771e-11
8.297079e-11
8.374117e-11
2.446316e-11
4.938613e-11
8.030244e-11
8.164845e-11
8.221229e-11
8.285809e-11
8.364667e-11
2.760203e-11
4.833554e-11
8.009383e-11
8.145867e-11
8.202642e-11
8.266236e-11
8.340918e-11
3.036082e-11
4.782543e-11
7.983823e-11
8.120636e-11
8.172397e-11
8.236556e-11
8.309244e-11
3.234603e-11
4.734816e-11
7.957764e-11
8.096243e-11
8.140276e-11
8.195202e-11
8.279231e-11
3.317536e-11
4.671749e-11
7.935105e-11
8.067855e-11
8.110417e-11
8.16291e-11
8.232128e-11
3.26435e-11
4.574972e-11
7.911064e-11
8.032293e-11
8.075555e-11
8.126018e-11
8.186916e-11
3.106799e-11
4.465175e-11
7.879884e-11
8.001883e-11
8.031164e-11
8.078144e-11
8.13684e-11
2.827423e-11
4.392041e-11
7.845473e-11
7.971289e-11
7.99117e-11
8.02884e-11
8.078467e-11
2.464387e-11
4.316049e-11
7.811038e-11
7.933926e-11
7.957128e-11
7.993431e-11
8.037272e-11
2.072678e-11
4.246065e-11
7.779822e-11
7.901149e-11
7.92178e-11
7.953527e-11
8.001396e-11
1.677734e-11
4.130963e-11
7.751874e-11
7.876367e-11
7.896218e-11
7.924605e-11
7.962891e-11
1.271318e-11
3.965741e-11
7.718871e-11
7.850209e-11
7.873167e-11
7.904333e-11
7.940855e-11
9.129893e-12
3.88721e-11
7.688717e-11
7.837544e-11
7.863936e-11
7.89929e-11
7.927552e-11
5.952993e-12
3.840734e-11
7.669737e-11
7.823201e-11
7.853752e-11
7.888277e-11
7.919215e-11
3.316099e-12
3.808259e-11
7.659372e-11
7.816362e-11
7.850552e-11
7.885636e-11
7.922695e-11
1.403139e-12
3.788873e-11
7.653976e-11
7.814113e-11
7.851173e-11
7.888826e-11
7.929579e-11
1.141609e-12
3.793963e-11
7.652268e-11
7.810857e-11
7.846802e-11
7.884631e-11
7.92702e-11
2.487535e-12
3.822287e-11
7.656832e-11
7.810435e-11
7.843119e-11
7.878134e-11
7.916056e-11
4.80936e-12
3.864229e-11
7.667478e-11
7.815621e-11
7.844013e-11
7.877222e-11
7.907055e-11
8.1704e-12
3.921227e-11
7.685606e-11
7.826335e-11
7.848927e-11
7.880955e-11
7.905163e-11
1.265619e-11
4.010286e-11
7.714921e-11
7.836084e-11
7.855132e-11
7.88383e-11
7.917349e-11
1.831603e-11
4.184135e-11
7.751776e-11
7.866063e-11
7.880501e-11
7.903977e-11
7.937188e-11
2.41843e-11
4.306511e-11
7.78114e-11
7.889598e-11
7.904951e-11
7.931632e-11
7.974281e-11
2.972005e-11
4.379008e-11
7.812616e-11
7.921611e-11
7.939794e-11
7.97212e-11
8.013275e-11
3.421877e-11
4.450823e-11
7.84757e-11
7.959991e-11
7.976304e-11
8.014187e-11
8.059867e-11
3.704048e-11
4.511264e-11
7.884156e-11
7.995216e-11
8.021061e-11
8.06586e-11
8.119711e-11
3.802564e-11
4.607773e-11
7.918624e-11
8.031213e-11
8.069752e-11
8.116494e-11
8.170123e-11
3.76139e-11
4.699471e-11
7.94447e-11
8.072009e-11
8.109136e-11
8.156889e-11
8.218035e-11
3.565947e-11
4.76165e-11
7.967116e-11
8.10231e-11
8.145183e-11
8.192236e-11
8.267405e-11
3.256813e-11
4.810019e-11
7.992639e-11
8.126244e-11
8.177701e-11
8.236518e-11
8.300431e-11
2.889845e-11
4.861398e-11
8.017298e-11
8.149961e-11
8.205001e-11
8.267235e-11
8.336442e-11
2.508039e-11
4.950086e-11
8.036217e-11
8.167818e-11
8.222811e-11
8.286368e-11
8.363281e-11
2.147119e-11
5.036019e-11
8.047307e-11
8.176286e-11
8.233325e-11
8.297857e-11
8.373206e-11
1.807149e-11
5.087022e-11
8.055536e-11
8.182062e-11
8.239733e-11
8.303732e-11
8.379736e-11
1.497418e-11
5.1179e-11
8.062534e-11
8.186904e-11
8.244266e-11
8.308048e-11
8.384816e-11
1.227977e-11
5.158136e-11
8.068152e-11
8.191084e-11
8.248547e-11
8.313556e-11
8.391102e-11
9.994853e-12
5.192225e-11
8.071388e-11
8.193698e-11
8.251999e-11
8.318976e-11
8.394433e-11
8.098794e-12
5.220751e-11
8.073402e-11
8.19525e-11
8.25495e-11
8.321969e-11
8.396618e-11
6.528054e-12
5.246321e-11
8.075038e-11
8.196605e-11
8.257438e-11
8.323238e-11
8.398088e-11
5.239359e-12
5.267e-11
8.078409e-11
8.197645e-11
8.258119e-11
8.324126e-11
8.399267e-11
4.193961e-12
5.330094e-11
8.083129e-11
8.19885e-11
8.258709e-11
8.324918e-11
8.400332e-11
3.352278e-12
5.379822e-11
8.083856e-11
8.199164e-11
8.259179e-11
8.325644e-11
8.401391e-11
2.691333e-12
5.409544e-11
8.084021e-11
8.199414e-11
8.25963e-11
8.326307e-11
8.402334e-11
2.159607e-12
5.43754e-11
8.0852e-11
8.199674e-11
8.260053e-11
8.326913e-11
8.403322e-11
1.72764e-12
5.446968e-11
8.085602e-11
8.199893e-11
8.260445e-11
8.327546e-11
8.405303e-11
1.383728e-12
5.457877e-11
8.086081e-11
8.200109e-11
8.2608e-11
8.328106e-11
8.40702e-11
1.110838e-12
5.467251e-11
8.086487e-11
8.200308e-11
8.261122e-11
8.328585e-11
8.407698e-11
8.948128e-13
5.476337e-11
8.086885e-11
8.200494e-11
8.261424e-11
8.329111e-11
8.408296e-11
7.23967e-13
5.484983e-11
8.087253e-11
8.200656e-11
8.261752e-11
8.330378e-11
8.409555e-11
5.888977e-13
5.493214e-11
8.0876e-11
8.200817e-11
8.262053e-11
8.331431e-11
8.411102e-11
4.821038e-13
5.501067e-11
8.087934e-11
8.200966e-11
8.262281e-11
8.33179e-11
8.411528e-11
3.976118e-13
5.508544e-11
8.08824e-11
8.201098e-11
8.262557e-11
8.332105e-11
8.411867e-11
3.30699e-13
5.515685e-11
8.088544e-11
8.201268e-11
8.263374e-11
8.332907e-11
8.412246e-11
2.776225e-13
5.522477e-11
8.088831e-11
8.201417e-11
8.264044e-11
8.333895e-11
8.412613e-11
2.354479e-13
5.528965e-11
8.089095e-11
8.201513e-11
8.264213e-11
8.334138e-11
8.41288e-11
2.018516e-13
5.535113e-11
8.089329e-11
8.201607e-11
8.264354e-11
8.334316e-11
8.413132e-11
1.750173e-13
5.540957e-11
8.089537e-11
8.201716e-11
8.264499e-11
8.334491e-11
8.41338e-11
1.535135e-13
5.546504e-11
8.089815e-11
8.202209e-11
8.264964e-11
8.334683e-11
8.41362e-11
1.36232e-13
5.551719e-11
8.090042e-11
8.202591e-11
8.265545e-11
8.334887e-11
8.41384e-11
1.223311e-13
5.556597e-11
8.090169e-11
8.202634e-11
8.265646e-11
8.335032e-11
8.414059e-11
1.110999e-13
5.561079e-11
8.090256e-11
8.202648e-11
8.265712e-11
8.335167e-11
8.414266e-11
1.020004e-13
5.565161e-11
8.090304e-11
8.202652e-11
8.26578e-11
8.335311e-11
8.414482e-11
9.464797e-14
5.568757e-11
8.0903e-11
8.202651e-11
8.265859e-11
8.33547e-11
8.414723e-11
8.877866e-14
5.571735e-11
8.090235e-11
8.202659e-11
8.265959e-11
8.335661e-11
8.414993e-11
8.417239e-14
5.573809e-11
8.090087e-11
8.202701e-11
8.266109e-11
8.33592e-11
8.415329e-11
8.068778e-14
5.575994e-11
8.09097e-11
8.203025e-11
8.266387e-11
8.33628e-11
8.415813e-11
7.833679e-14
5.576539e-11
8.091649e-11
8.203576e-11
8.266867e-11
8.336841e-11
8.417618e-11
7.733731e-14
5.57418e-11
8.091661e-11
8.204189e-11
8.267601e-11
8.338664e-11
8.419684e-11
7.851034e-14
5.569444e-11
8.0922e-11
8.205328e-11
8.269704e-11
8.340843e-11
8.421889e-11
8.613423e-14
5.55861e-11
8.09371e-11
8.208243e-11
8.272404e-11
8.343271e-11
8.42423e-11
1.053582e-13
5.551886e-11
8.099719e-11
8.212305e-11
8.275579e-11
8.345883e-11
8.426622e-11
8.36132e-14
5.667455e-11
8.10718e-11
8.217575e-11
8.279283e-11
8.348602e-11
8.428989e-11
8.524575e-11
8.645732e-11
8.809336e-11
8.968285e-11
9.256466e-11
9.853835e-11
1.293524e-09
8.522493e-11
8.643039e-11
8.805744e-11
8.964036e-11
9.251063e-11
9.757795e-11
5.248798e-10
8.520179e-11
8.64027e-11
8.80232e-11
9.019065e-11
9.24636e-11
9.749857e-11
5.273354e-10
8.517772e-11
8.637455e-11
8.798614e-11
8.955393e-11
9.240492e-11
9.741892e-11
5.241964e-10
8.5154e-11
8.634619e-11
8.795099e-11
8.950714e-11
9.235113e-11
9.733943e-11
5.202482e-10
8.513071e-11
8.631783e-11
8.791487e-11
8.946306e-11
9.229831e-11
9.726056e-11
5.144602e-10
8.510819e-11
8.628991e-11
8.787911e-11
8.942065e-11
9.228361e-11
9.718284e-11
5.058476e-10
8.508788e-11
8.626245e-11
8.784383e-11
8.937919e-11
9.22701e-11
9.710583e-11
4.919866e-10
8.508223e-11
8.623731e-11
8.781026e-11
8.933701e-11
9.22281e-11
9.703432e-11
4.740117e-10
8.507808e-11
8.623065e-11
8.777909e-11
8.929516e-11
9.218661e-11
9.696241e-11
4.518706e-10
8.507447e-11
8.622573e-11
8.77708e-11
8.925465e-11
9.214545e-11
9.689025e-11
4.28557e-10
8.507105e-11
8.622088e-11
8.776444e-11
8.924582e-11
9.210412e-11
9.681515e-11
3.973185e-10
8.506781e-11
8.621615e-11
8.775796e-11
8.923792e-11
9.209701e-11
9.673681e-11
3.670948e-10
8.506457e-11
8.621141e-11
8.775135e-11
8.922972e-11
9.208908e-11
9.672721e-11
3.429393e-10
8.506131e-11
8.620646e-11
8.77445e-11
8.922124e-11
9.208067e-11
9.66716e-11
2.916901e-10
8.505791e-11
8.620135e-11
8.773743e-11
8.921241e-11
9.207168e-11
9.662674e-11
2.521056e-10
8.505443e-11
8.619603e-11
8.773011e-11
8.920295e-11
9.205841e-11
9.658169e-11
2.285147e-10
8.50508e-11
8.619065e-11
8.772232e-11
8.91887e-11
9.19322e-11
9.653451e-11
2.04723e-10
8.504701e-11
8.618527e-11
8.771436e-11
8.917835e-11
9.191537e-11
9.649039e-11
1.854873e-10
8.504295e-11
8.617957e-11
8.770596e-11
8.916762e-11
9.19016e-11
9.644305e-11
1.659528e-10
8.503873e-11
8.617358e-11
8.769723e-11
8.915636e-11
9.188722e-11
9.639308e-11
1.470217e-10
8.503415e-11
8.616722e-11
8.768822e-11
8.914437e-11
9.187215e-11
9.635756e-11
1.637293e-10
8.502937e-11
8.616043e-11
8.767777e-11
8.913204e-11
9.185356e-11
9.638498e-11
6.116916e-10
8.502309e-11
8.615317e-11
8.766911e-11
8.966925e-11
9.174057e-11
9.635576e-11
5.874465e-10
8.501661e-11
8.614549e-11
8.765592e-11
8.910981e-11
9.167664e-11
9.63453e-11
6.039167e-10
8.501054e-11
8.61374e-11
8.764481e-11
8.90895e-11
9.165436e-11
9.634319e-11
7.162532e-10
8.500261e-11
8.612802e-11
8.763214e-11
8.907332e-11
9.163075e-11
9.630373e-11
6.803858e-10
8.497795e-11
8.611743e-11
8.76168e-11
8.905622e-11
9.15987e-11
9.599973e-11
6.431396e-10
8.495781e-11
8.580193e-11
8.719651e-11
8.903534e-11
9.15694e-11
9.587962e-11
5.976479e-10
8.494434e-11
8.578711e-11
8.718095e-11
8.90173e-11
9.154202e-11
9.580602e-11
4.579404e-10
8.491199e-11
8.574414e-11
8.716563e-11
8.89967e-11
9.151284e-11
9.587642e-11
6.107238e-10
8.488811e-11
8.571272e-11
8.714935e-11
8.897431e-11
9.148115e-11
9.571816e-11
5.722719e-10
8.48714e-11
8.564146e-11
8.712909e-11
8.895036e-11
9.144751e-11
9.557369e-11
4.601598e-10
8.485636e-11
8.561879e-11
8.706464e-11
8.892562e-11
9.141199e-11
9.540864e-11
3.188411e-10
8.483603e-11
8.558994e-11
8.698266e-11
8.889895e-11
9.137323e-11
9.511783e-11
2.03562e-10
8.480858e-11
8.555471e-11
8.690549e-11
8.886234e-11
9.133658e-11
9.504397e-11
2.693173e-10
8.478766e-11
8.552326e-11
8.689456e-11
8.876694e-11
9.131769e-11
9.487876e-11
2.209505e-10
8.478415e-11
8.55169e-11
8.690871e-11
8.868612e-11
9.133829e-11
9.499161e-11
2.878253e-10
8.47904e-11
8.553915e-11
8.69631e-11
8.874108e-11
9.141308e-11
9.516837e-11
1.120202e-10
8.477607e-11
8.556488e-11
8.708196e-11
8.898675e-11
9.129758e-11
9.494558e-11
1.335342e-10
8.465754e-11
8.5561e-11
8.718456e-11
8.900079e-11
9.105408e-11
9.417292e-11
1.232995e-10
8.442274e-11
8.540868e-11
8.69012e-11
8.869697e-11
9.075522e-11
9.326791e-11
1.218718e-10
8.416426e-11
8.519812e-11
8.667705e-11
8.829849e-11
9.028475e-11
9.26859e-11
1.362191e-10
8.39e-11
8.495694e-11
8.647122e-11
8.795699e-11
8.977909e-11
9.250058e-11
1.243246e-10
8.344343e-11
8.456875e-11
8.5953e-11
8.771476e-11
8.913725e-11
9.217493e-11
1.153854e-10
8.285966e-11
8.416965e-11
8.575259e-11
8.709479e-11
8.883097e-11
9.143668e-11
2.251451e-10
8.233173e-11
8.362962e-11
8.526634e-11
8.686745e-11
8.81386e-11
9.112623e-11
1.892043e-10
8.18974e-11
8.311615e-11
8.503085e-11
8.633778e-11
8.804841e-11
9.005442e-11
1.202053e-10
8.127973e-11
8.261785e-11
8.443096e-11
8.592795e-11
8.759311e-11
9.023813e-11
1.542344e-10
8.086213e-11
8.209812e-11
8.401624e-11
8.546409e-11
8.712925e-11
8.922826e-11
1.082796e-10
8.047729e-11
8.162623e-11
8.337344e-11
8.49293e-11
8.659952e-11
8.85528e-11
9.58316e-11
8.029133e-11
8.1402e-11
8.307362e-11
8.440609e-11
8.590199e-11
8.787404e-11
9.918871e-11
8.015547e-11
8.115023e-11
8.281144e-11
8.406597e-11
8.55972e-11
8.855252e-11
1.983651e-10
8.003066e-11
8.102948e-11
8.263003e-11
8.393648e-11
8.504698e-11
8.666316e-11
1.008401e-10
8.003391e-11
8.095917e-11
8.270896e-11
8.373775e-11
8.479446e-11
8.509092e-11
8.639107e-11
8.01258e-11
8.102691e-11
8.268261e-11
8.373651e-11
8.434157e-11
8.464043e-11
8.011179e-11
8.107404e-11
8.276592e-11
8.384044e-11
8.454473e-11
8.491927e-11
8.000613e-11
8.0984e-11
8.261227e-11
8.365827e-11
8.429991e-11
8.459102e-11
7.990668e-11
8.089319e-11
8.253673e-11
8.354183e-11
8.46527e-11
8.565155e-11
8.927483e-11
7.988473e-11
8.073123e-11
8.251305e-11
8.373854e-11
8.50181e-11
8.706119e-11
1.020788e-10
7.996835e-11
8.077531e-11
8.262302e-11
8.405719e-11
8.54273e-11
8.738303e-11
1.265525e-10
8.014162e-11
8.085887e-11
8.258917e-11
8.416181e-11
8.577116e-11
8.770441e-11
1.12735e-10
8.053034e-11
8.126399e-11
8.326312e-11
8.466267e-11
8.607485e-11
8.833049e-11
9.976001e-11
8.099716e-11
8.177371e-11
8.354815e-11
8.484384e-11
8.674547e-11
8.873241e-11
1.090721e-10
8.162788e-11
8.228094e-11
8.397909e-11
8.552054e-11
8.707145e-11
8.91142e-11
1.108854e-10
8.21128e-11
8.29335e-11
8.449913e-11
8.589975e-11
8.742346e-11
8.965643e-11
1.793829e-10
8.262968e-11
8.339705e-11
8.491217e-11
8.639903e-11
8.783731e-11
9.017223e-11
1.268137e-10
8.320381e-11
8.398811e-11
8.538764e-11
8.678548e-11
8.839214e-11
9.097811e-11
1.455852e-10
8.362371e-11
8.444165e-11
8.58412e-11
8.736383e-11
8.895655e-11
9.164479e-11
1.090566e-10
8.400748e-11
8.48177e-11
8.624533e-11
8.779206e-11
8.96351e-11
9.357222e-11
8.953566e-10
8.430191e-11
8.513032e-11
8.653395e-11
8.819269e-11
9.018276e-11
9.25746e-11
1.192543e-10
8.45832e-11
8.531495e-11
8.683132e-11
8.865254e-11
9.066887e-11
9.329233e-11
1.719934e-10
8.472172e-11
8.553805e-11
8.691842e-11
8.88418e-11
9.102839e-11
9.430499e-11
1.179409e-10
8.475686e-11
8.552952e-11
8.692333e-11
8.873636e-11
9.123679e-11
9.496804e-11
1.234553e-10
8.47668e-11
8.551561e-11
8.68766e-11
8.863409e-11
9.135739e-11
9.507504e-11
3.284174e-10
8.478854e-11
8.552037e-11
8.686727e-11
8.865569e-11
9.129263e-11
9.485948e-11
1.048026e-10
8.481517e-11
8.554748e-11
8.68864e-11
8.878333e-11
9.131658e-11
9.495913e-11
1.540712e-10
8.483775e-11
8.557863e-11
8.693904e-11
8.887715e-11
9.134974e-11
9.510781e-11
2.557389e-10
8.485475e-11
8.560969e-11
8.701541e-11
8.890598e-11
9.13856e-11
9.518022e-11
2.742922e-10
8.486885e-11
8.562067e-11
8.710953e-11
8.893222e-11
9.142252e-11
9.542072e-11
4.337124e-10
8.488567e-11
8.567462e-11
8.713546e-11
8.8958e-11
9.145856e-11
9.567032e-11
5.707446e-10
8.490986e-11
8.572173e-11
8.715448e-11
8.898199e-11
9.149238e-11
9.574421e-11
6.120588e-10
8.494266e-11
8.577673e-11
8.717084e-11
8.900413e-11
9.152367e-11
9.582305e-11
5.734964e-10
8.495633e-11
8.578599e-11
8.718648e-11
8.902445e-11
9.155248e-11
9.581923e-11
4.666904e-10
8.497666e-11
8.611592e-11
8.761505e-11
8.904779e-11
9.158047e-11
9.589648e-11
6.09952e-10
8.500145e-11
8.612666e-11
8.763053e-11
8.906436e-11
9.161364e-11
9.617742e-11
6.559536e-10
8.500955e-11
8.61362e-11
8.764357e-11
8.908106e-11
9.164101e-11
9.631959e-11
6.940296e-10
8.501575e-11
8.614451e-11
8.76555e-11
8.90967e-11
9.166435e-11
9.635739e-11
7.330585e-10
8.502238e-11
8.61524e-11
8.766681e-11
8.911152e-11
9.168905e-11
9.624235e-11
1.574405e-10
8.502876e-11
8.61597e-11
8.767732e-11
8.912568e-11
9.181279e-11
9.628713e-11
1.523102e-10
8.503361e-11
8.616656e-11
8.768729e-11
8.913895e-11
9.18636e-11
9.632931e-11
1.522028e-10
8.503824e-11
8.617311e-11
8.76967e-11
8.915128e-11
9.187919e-11
9.636516e-11
1.409542e-10
8.504261e-11
8.61792e-11
8.770556e-11
8.916306e-11
9.189419e-11
9.640894e-11
1.548915e-10
8.504679e-11
8.618496e-11
8.771407e-11
8.917411e-11
9.190824e-11
9.645485e-11
1.720539e-10
8.50506e-11
8.619042e-11
8.772204e-11
8.918466e-11
9.192167e-11
9.650247e-11
1.922243e-10
8.505427e-11
8.619585e-11
8.772985e-11
8.919755e-11
9.198737e-11
9.654887e-11
2.143299e-10
8.505775e-11
8.620117e-11
8.773722e-11
8.920906e-11
9.206691e-11
9.659511e-11
2.389039e-10
8.506112e-11
8.620622e-11
8.774425e-11
8.921826e-11
9.207604e-11
9.663859e-11
2.664823e-10
8.50643e-11
8.621107e-11
8.775101e-11
8.922717e-11
9.208478e-11
9.669451e-11
3.101873e-10
8.506742e-11
8.62157e-11
8.775754e-11
8.923564e-11
9.209295e-11
9.672521e-11
3.416051e-10
8.507045e-11
8.622024e-11
8.776382e-11
8.924391e-11
9.210081e-11
9.677098e-11
3.690117e-10
8.507357e-11
8.622484e-11
8.776999e-11
8.925193e-11
9.212481e-11
9.684738e-11
3.969439e-10
8.507679e-11
8.622944e-11
8.777805e-11
8.927658e-11
9.216562e-11
9.692259e-11
4.256415e-10
8.508041e-11
8.623566e-11
8.780888e-11
8.93183e-11
9.220689e-11
9.699544e-11
4.496563e-10
8.508535e-11
8.626021e-11
8.784198e-11
8.936046e-11
9.224838e-11
9.706742e-11
4.690041e-10
8.510476e-11
8.628706e-11
8.787681e-11
8.940308e-11
9.228838e-11
9.714205e-11
4.874404e-10
8.512636e-11
8.63144e-11
8.79122e-11
8.944367e-11
9.227306e-11
9.721991e-11
5.01906e-10
8.514882e-11
8.634236e-11
8.7948e-11
8.948708e-11
9.232409e-11
9.729836e-11
5.114118e-10
8.517211e-11
8.63708e-11
8.798415e-11
8.953059e-11
9.237704e-11
9.737775e-11
5.179594e-10
8.519643e-11
8.639954e-11
8.802045e-11
8.957434e-11
9.243031e-11
9.745745e-11
5.225181e-10
8.522083e-11
8.642806e-11
8.805667e-11
8.961772e-11
9.248383e-11
9.753737e-11
5.239348e-10
8.52449e-11
8.645685e-11
8.809288e-11
8.96609e-11
9.253745e-11
9.766149e-11
4.929887e-10
2.422754e-07
3.277856e-07
3.28661e-07
3.286648e-07
3.286648e-07
3.286648e-07
3.286648e-07
3.286648e-07
3.286648e-07
3.286648e-07
3.286648e-07
3.286648e-07
3.286648e-07
3.286648e-07
3.286648e-07
3.286648e-07
3.286648e-07
3.286648e-07
2.521189e-07
3.281589e-07
3.286645e-07
3.286651e-07
3.286651e-07
3.286651e-07
3.286651e-07
3.286651e-07
3.286651e-07
3.286651e-07
3.286651e-07
3.286651e-07
3.286651e-07
3.286651e-07
3.286651e-07
3.286651e-07
3.286651e-07
3.286651e-07
2.469233e-07
3.280736e-07
3.286646e-07
3.286651e-07
3.286651e-07
3.286651e-07
3.286651e-07
3.286651e-07
3.286651e-07
3.286651e-07
3.286651e-07
3.286651e-07
3.286651e-07
3.286651e-07
3.286651e-07
3.286651e-07
3.286651e-07
3.286651e-07
2.436487e-07
3.280501e-07
3.286646e-07
3.286651e-07
3.286651e-07
3.286651e-07
3.286651e-07
3.286651e-07
3.286651e-07
3.286651e-07
3.286651e-07
3.286651e-07
3.286651e-07
3.286651e-07
3.286651e-07
3.286651e-07
3.286651e-07
3.286651e-07
2.396387e-07
3.280279e-07
3.286645e-07
3.286651e-07
3.286651e-07
3.286651e-07
3.286651e-07
3.286651e-07
3.286651e-07
3.286651e-07
3.286651e-07
3.286651e-07
3.286651e-07
3.286651e-07
3.286651e-07
3.286651e-07
3.286651e-07
3.286651e-07
2.345786e-07
3.279934e-07
3.286645e-07
3.286651e-07
3.286651e-07
3.286651e-07
3.286651e-07
3.286651e-07
3.286651e-07
3.286651e-07
3.286651e-07
3.286651e-07
3.286651e-07
3.286651e-07
3.286651e-07
3.286651e-07
3.286651e-07
3.286651e-07
2.290187e-07
3.279499e-07
3.286644e-07
3.286651e-07
3.286651e-07
3.286651e-07
3.286651e-07
3.286651e-07
3.286651e-07
3.286651e-07
3.286651e-07
3.286651e-07
3.286651e-07
3.286651e-07
3.286651e-07
3.286651e-07
3.286651e-07
3.286651e-07
2.228354e-07
3.279057e-07
3.286644e-07
3.286651e-07
3.286651e-07
3.286651e-07
3.286651e-07
3.286651e-07
3.286651e-07
3.286651e-07
3.286651e-07
3.286651e-07
3.286651e-07
3.286651e-07
3.286651e-07
3.286651e-07
3.286651e-07
3.286651e-07
2.169306e-07
3.27877e-07
3.286644e-07
3.286651e-07
3.286651e-07
3.286651e-07
3.286651e-07
3.286651e-07
3.286651e-07
3.286651e-07
3.286651e-07
3.286651e-07
3.286651e-07
3.286651e-07
3.286651e-07
3.286651e-07
3.286651e-07
3.286651e-07
2.107701e-07
3.278508e-07
3.286643e-07
3.286651e-07
3.286651e-07
3.286651e-07
3.286651e-07
3.286651e-07
3.286651e-07
3.286651e-07
3.286651e-07
3.286651e-07
3.286651e-07
3.286651e-07
3.286651e-07
3.286651e-07
3.286651e-07
3.286651e-07
2.043697e-07
3.278135e-07
3.286643e-07
3.286651e-07
3.286651e-07
3.286651e-07
3.286651e-07
3.286651e-07
3.286651e-07
3.286651e-07
3.286651e-07
3.286651e-07
3.286651e-07
3.286651e-07
3.286651e-07
3.286651e-07
3.286651e-07
3.286651e-07
1.98033e-07
3.277865e-07
3.286643e-07
3.286651e-07
3.286651e-07
3.286651e-07
3.286651e-07
3.286651e-07
3.286651e-07
3.286651e-07
3.286651e-07
3.286651e-07
3.286651e-07
3.286651e-07
3.286651e-07
3.286651e-07
3.286651e-07
3.286651e-07
1.919071e-07
3.277656e-07
3.286643e-07
3.286651e-07
3.286651e-07
3.286651e-07
3.286651e-07
3.286651e-07
3.286651e-07
3.286651e-07
3.286651e-07
3.286651e-07
3.286651e-07
3.286651e-07
3.286651e-07
3.286651e-07
3.286651e-07
3.286651e-07
1.82951e-07
3.277047e-07
3.286641e-07
3.286651e-07
3.286651e-07
3.286651e-07
3.286651e-07
3.286651e-07
3.286651e-07
3.286651e-07
3.286651e-07
3.286651e-07
3.286651e-07
3.286651e-07
3.286651e-07
3.286651e-07
3.286651e-07
3.286651e-07
1.547989e-07
3.273012e-07
3.286629e-07
3.286651e-07
3.286651e-07
3.286651e-07
3.286651e-07
3.286651e-07
3.286651e-07
3.286651e-07
3.286651e-07
3.286651e-07
3.286651e-07
3.286651e-07
3.286651e-07
3.286651e-07
3.286651e-07
3.286651e-07
1.457534e-07
3.269924e-07
3.286547e-07
3.286649e-07
3.286651e-07
3.286651e-07
3.286651e-07
3.286651e-07
3.286651e-07
3.286651e-07
3.286651e-07
3.286651e-07
3.286651e-07
3.286651e-07
3.286651e-07
3.286651e-07
3.286651e-07
3.286651e-07
1.369999e-07
3.271209e-07
3.286641e-07
3.286623e-07
3.286651e-07
3.286651e-07
3.286651e-07
3.286651e-07
3.286651e-07
3.286651e-07
3.286651e-07
3.286651e-07
3.286651e-07
3.286651e-07
3.286651e-07
3.286651e-07
3.286651e-07
3.286651e-07
1.280727e-07
3.270195e-07
3.286645e-07
3.286651e-07
3.286643e-07
3.286651e-07
3.286651e-07
3.286651e-07
3.286651e-07
3.286651e-07
3.286651e-07
3.286651e-07
3.286651e-07
3.286651e-07
3.286651e-07
3.286651e-07
3.286651e-07
3.286651e-07
1.195572e-07
3.2691e-07
3.286632e-07
3.286655e-07
3.28665e-07
3.28665e-07
3.286651e-07
3.286651e-07
3.286651e-07
3.286651e-07
3.286651e-07
3.286651e-07
3.286651e-07
3.286651e-07
3.286651e-07
3.286651e-07
3.286651e-07
3.286651e-07
1.11736e-07
3.267859e-07
3.28663e-07
3.286651e-07
3.286652e-07
3.28665e-07
3.286651e-07
3.286651e-07
3.286651e-07
3.286651e-07
3.286651e-07
3.286651e-07
3.286651e-07
3.286651e-07
3.286651e-07
3.286651e-07
3.286651e-07
3.286651e-07
1.044587e-07
3.266649e-07
3.286628e-07
3.286651e-07
3.286651e-07
3.286651e-07
3.286651e-07
3.286651e-07
3.286651e-07
3.286651e-07
3.286651e-07
3.286651e-07
3.286651e-07
3.286651e-07
3.286651e-07
3.286651e-07
3.286651e-07
3.286651e-07
9.793138e-08
3.265358e-07
3.286627e-07
3.286651e-07
3.286651e-07
3.286651e-07
3.286651e-07
3.286651e-07
3.286651e-07
3.286651e-07
3.286651e-07
3.286651e-07
3.286651e-07
3.286651e-07
3.286651e-07
3.286651e-07
3.286651e-07
3.286651e-07
9.275094e-08
3.264304e-07
3.286626e-07
3.286651e-07
3.286651e-07
3.286651e-07
3.286651e-07
3.286651e-07
3.286651e-07
3.286651e-07
3.286651e-07
3.286651e-07
3.286651e-07
3.286651e-07
3.286651e-07
3.286651e-07
3.286651e-07
3.286651e-07
8.691854e-08
3.262924e-07
3.286625e-07
3.286651e-07
3.286651e-07
3.286651e-07
3.286651e-07
3.286651e-07
3.286651e-07
3.286651e-07
3.286651e-07
3.286651e-07
3.286651e-07
3.286651e-07
3.286651e-07
3.286651e-07
3.286651e-07
3.286651e-07
8.111422e-08
3.261573e-07
3.286623e-07
3.286651e-07
3.286651e-07
3.286651e-07
3.286651e-07
3.286651e-07
3.286651e-07
3.286651e-07
3.286651e-07
3.286651e-07
3.286651e-07
3.286651e-07
3.286651e-07
3.286651e-07
3.286651e-07
3.286651e-07
7.585404e-08
3.260364e-07
3.286622e-07
3.286651e-07
3.286651e-07
3.286651e-07
3.286651e-07
3.286651e-07
3.286651e-07
3.286651e-07
3.286651e-07
3.286651e-07
3.286651e-07
3.286651e-07
3.286651e-07
3.286651e-07
3.286651e-07
3.286651e-07
7.039984e-08
3.259183e-07
3.286621e-07
3.286651e-07
3.286651e-07
3.286651e-07
3.286651e-07
3.286651e-07
3.286651e-07
3.286651e-07
3.286651e-07
3.286651e-07
3.286651e-07
3.286651e-07
3.286651e-07
3.286651e-07
3.286651e-07
3.286651e-07
6.500015e-08
3.257791e-07
3.286619e-07
3.286651e-07
3.28665e-07
3.286651e-07
3.286651e-07
3.286651e-07
3.286651e-07
3.286651e-07
3.286651e-07
3.286651e-07
3.286651e-07
3.286651e-07
3.286651e-07
3.286651e-07
3.286651e-07
3.286651e-07
5.98759e-08
3.256731e-07
3.286618e-07
3.286646e-07
3.286645e-07
3.286651e-07
3.286651e-07
3.286651e-07
3.286651e-07
3.286651e-07
3.286651e-07
3.286651e-07
3.286651e-07
3.286651e-07
3.286651e-07
3.286651e-07
3.286651e-07
3.286651e-07
5.457103e-08
3.256037e-07
3.286616e-07
3.286467e-07
3.286502e-07
3.28665e-07
3.286651e-07
3.28665e-07
3.28665e-07
3.286651e-07
3.286651e-07
3.286651e-07
3.286651e-07
3.286651e-07
3.286651e-07
3.286651e-07
3.286651e-07
3.286651e-07
5.041139e-08
3.256711e-07
3.286608e-07
3.284482e-07
3.285088e-07
3.286633e-07
3.28665e-07
3.286628e-07
3.28664e-07
3.286651e-07
3.286651e-07
3.286651e-07
3.286651e-07
3.286651e-07
3.286651e-07
3.286651e-07
3.286651e-07
3.286651e-07
4.571879e-08
3.259435e-07
3.286615e-07
3.286146e-07
3.28661e-07
3.286643e-07
3.28665e-07
3.286602e-07
3.286599e-07
3.286651e-07
3.286651e-07
3.286651e-07
3.286651e-07
3.286651e-07
3.286651e-07
3.286651e-07
3.286651e-07
3.286651e-07
4.080767e-08
3.265928e-07
3.286474e-07
3.284965e-07
3.285294e-07
3.286626e-07
3.286648e-07
3.286648e-07
3.286652e-07
3.286651e-07
3.286651e-07
3.286651e-07
3.286651e-07
3.286651e-07
3.286651e-07
3.286651e-07
3.286651e-07
3.286651e-07
3.498538e-08
3.261366e-07
3.286136e-07
3.280916e-07
3.281639e-07
3.285968e-07
3.286646e-07
3.286645e-07
3.286646e-07
3.286648e-07
3.286651e-07
3.286651e-07
3.286651e-07
3.286651e-07
3.286651e-07
3.286651e-07
3.286651e-07
3.286651e-07
2.515571e-08
3.248378e-07
3.285636e-07
3.283469e-07
3.28249e-07
3.281648e-07
3.286627e-07
3.286606e-07
3.286603e-07
3.286624e-07
3.286651e-07
3.286651e-07
3.28665e-07
3.286651e-07
3.286651e-07
3.286651e-07
3.286648e-07
3.286651e-07
1.887362e-08
3.243195e-07
3.285077e-07
3.286466e-07
3.286991e-07
3.28702e-07
3.286583e-07
3.286491e-07
3.286466e-07
3.286661e-07
3.286653e-07
3.286651e-07
3.286649e-07
3.286651e-07
3.286651e-07
3.286651e-07
3.28665e-07
3.286651e-07
1.117054e-08
3.259301e-07
3.283709e-07
3.284838e-07
3.286623e-07
3.287131e-07
3.287253e-07
3.287219e-07
3.287094e-07
3.286929e-07
3.286801e-07
3.286702e-07
3.286649e-07
3.286651e-07
3.28665e-07
3.286649e-07
3.286652e-07
3.286651e-07
2.803947e-08
3.136069e-07
3.270351e-07
3.281248e-07
3.288138e-07
3.289119e-07
3.289839e-07
3.290148e-07
3.29001e-07
3.289321e-07
3.288816e-07
3.287971e-07
3.287122e-07
3.286804e-07
3.286664e-07
3.286644e-07
3.286651e-07
3.286651e-07
3.308981e-08
3.307868e-07
3.278449e-07
3.287199e-07
3.290142e-07