/*--------------------------------*- C++ -*----------------------------------*\
| =========                 |                                                 |
| \\      /  F ield         | OpenFOAM: The Open Source CFD Toolbox           |
|  \\    /   O peration     | Version:  2206                                  |
|   \\  /    A nd           | Website:  www.openfoam.com                      |
|    \\/     M anipulation  |                                                 |
\*---------------------------------------------------------------------------*/
FoamFile
{
    version     2.0;
    format      ascii;
    arch        "LSB;label=32;scalar=64";
    class       volScalarField;
    location    "2";
    object      muEff;
}
// * * * * * * * * * * * * * * * * * * * * * * * * * * * * * * * * * * * * * //

dimensions      [1 -1 -1 0 0 0 0];

internalField   nonuniform List<scalar> 
13078
(
0.0368053
0.0368053
0.0368053
0.0368053
0.0368053
0.0368053
0.0368053
0.0368053
0.0368053
0.0368053
0.0368053
0.0368053
0.0368053
0.0368053
0.0368053
0.0368053
0.0368053
0.0368053
0.0368053
0.0368053
0.0368053
0.0368053
0.0368053
0.0368053
0.0368053
0.0368053
0.0368053
0.0368053
0.0368053
0.0368053
0.0368053
0.0368053
0.0368053
0.0368053
0.0368053
0.0368053
0.0368053
0.0368053
0.0368053
0.0368053
0.0368053
0.0368053
0.0368053
0.0368053
0.0368053
0.0368053
0.0368053
0.0368053
0.0368053
0.0368053
0.0368053
0.0368053
0.0368053
0.0368053
0.0368053
0.0368053
0.0368053
0.0368053
0.0368053
0.0368053
0.0368053
0.0368053
0.0368053
0.0368053
0.0368053
0.0368053
0.0368053
0.0368053
0.0368053
0.0368053
0.0368053
0.0368053
0.0368053
0.0368053
0.0368053
0.0368053
0.0368053
0.0368053
0.0368053
0.0368053
0.0368053
0.0368053
0.0368053
0.0368053
0.0368053
0.0368053
0.0368053
0.0368053
0.0368053
0.0368053
0.0368053
0.0368053
0.0368053
0.0368053
0.0368053
0.0368053
0.0368053
0.0368053
0.0368053
0.0368053
0.0368053
0.0368053
0.0368053
0.0368053
0.0368053
0.0368053
0.0368053
0.0368053
0.0368053
0.0368053
0.0368053
0.0368053
0.0368053
0.0368053
0.0368053
0.0368053
0.0368053
0.0368053
0.0368053
0.0368053
0.0368053
0.0368053
0.0368053
0.0368053
0.0368053
0.0368053
0.0368053
0.0368053
0.0368053
0.0368053
0.0368053
0.0368053
0.0368053
0.0368053
0.0368053
0.0368053
0.0368053
0.0368053
0.0368053
0.0368053
0.0368053
0.0368053
0.0368053
0.0368053
0.0368053
0.0368053
0.0368053
0.0368053
0.0368053
0.0368053
0.0368053
0.0368053
0.0368053
0.0368053
0.0368053
0.0368053
0.0368053
0.0368053
0.0368053
0.0368053
0.0368053
0.0368053
0.0368053
0.0368053
0.0368053
0.0368053
0.0368053
0.0368053
0.0368053
0.0368053
0.0368053
0.0368053
0.0368053
0.0368053
0.0368053
0.0368053
0.0368053
0.0368053
0.0368053
0.0368053
0.0368053
0.0368053
0.0368053
0.0368053
0.0368053
0.0368053
0.0368053
0.0368053
0.0368053
0.0368053
0.0368053
0.0368053
0.0368053
0.0368053
0.0368053
0.0368053
0.0368053
0.0368053
0.0368053
0.0368053
0.0368053
0.0368053
0.0368053
0.0368053
0.0368053
0.0368053
0.0368053
0.0368053
0.0368053
0.0368053
0.0368053
0.0368053
0.0368053
0.0368053
0.0368053
0.0368053
0.0368053
0.0368053
0.0368053
0.0368053
0.0368053
0.0368053
0.0368053
0.0368053
0.0368053
0.0368053
0.0368053
0.0368053
0.0368053
0.0368053
0.0368053
0.0368053
0.0368053
0.0368053
0.0368053
0.0368053
0.0368053
0.0368053
0.0368053
0.0368053
0.0368053
0.0368053
0.0368053
0.0368053
0.0368053
0.0368053
0.0368053
0.0368053
0.0368053
0.0368053
0.0368053
0.0368053
0.0368053
0.0368053
0.0368053
0.0368053
0.0368053
0.0368053
0.0368053
0.0368053
0.0368053
0.0368053
0.0368053
0.0368053
0.0368053
0.0368053
0.0368053
0.0368053
0.0368053
0.0368053
0.0368053
0.0368053
0.0368053
0.0368053
0.0368053
0.0368053
0.0368053
0.0368053
0.0368053
0.0368053
0.0368053
0.0368053
0.0368053
0.0368053
0.0368053
0.0368053
0.0368053
0.0368053
0.0368053
0.0368053
0.0368053
0.0368053
0.0368053
0.0368053
0.0368053
0.0368053
0.0368053
0.0368053
0.0368053
0.0368053
0.0368053
0.0368053
0.0368053
0.0368053
0.0368053
0.0368053
0.0368053
0.0368053
0.0368053
0.0368053
0.0368053
0.0368053
0.0368053
0.0368053
0.0368053
0.0368053
0.0368053
0.0368053
0.0368053
0.0368053
0.0368053
0.0368053
0.0368053
0.0368053
0.0368053
0.0368053
0.0368053
0.0368053
0.0368053
0.0368053
0.0368053
0.0368053
0.0368053
0.0368053
0.0368053
0.0368053
0.0368053
0.0368053
0.0368053
0.0368053
0.0368053
0.0368053
0.0368053
0.0368053
0.0368053
0.0368053
0.0368053
0.0368053
0.0368053
0.0368053
0.0368053
0.0368053
0.0368053
0.0368053
0.0368053
0.0368053
0.0368053
0.0368053
0.0368053
0.0368053
0.0368053
0.0368053
0.0368053
0.0368053
0.0368053
0.0368053
0.0368053
0.0368053
0.0368053
0.0368053
0.0368053
0.0368053
0.0368053
0.0368053
0.0368053
0.0368053
0.0368053
0.0368053
0.0368053
0.0368053
0.0368053
0.0368053
0.0368053
0.0368053
0.0368053
0.0368053
0.0368053
0.0368053
0.0368053
0.0368053
0.0368053
0.0368053
0.0368053
0.0368053
0.0368053
0.0368053
0.0368053
0.0368053
0.0368053
0.0368053
0.0368053
0.0368053
0.0368053
0.0368053
0.0368053
0.0368053
0.0368053
0.0368053
0.0368053
0.0368053
0.0368053
0.0368053
0.0368053
0.0368053
0.0368053
0.0368053
0.0368053
0.0368053
0.0368053
0.0368053
0.0368053
0.0368053
0.0368053
0.0368053
0.0368053
0.0368053
0.0368053
0.0368053
0.0368053
0.0368053
0.0368053
0.0368053
0.0368053
0.0368053
0.0368053
0.0368053
0.0368053
0.0368053
0.0368053
0.0368053
0.0368053
0.0368053
0.0368053
0.0368053
0.0368053
0.0368053
0.0368053
0.0368053
0.0368053
0.0368053
0.0368053
0.0368053
0.0368053
0.0368053
0.0368053
0.0368053
0.0368053
0.0368053
0.0368053
0.0368053
0.0368053
0.0368053
0.0368053
0.0368053
0.0368053
0.0368053
0.0368053
0.0368053
0.0368053
0.0368053
0.0368053
0.0368053
0.0368053
0.0368053
0.0368053
0.0368053
0.0368053
0.0368053
0.0368053
0.0368053
0.0368053
0.0368053
0.0368053
0.0368053
0.0368053
0.0368053
0.0368053
0.0368053
0.0368053
0.0368053
0.0368053
0.0368053
0.0368053
0.0368053
0.0368053
0.0368053
0.0368053
0.0368053
0.0368053
0.0368053
0.0368053
0.0368053
0.0368053
0.0368053
0.0368053
0.0368053
0.0368053
0.0368053
0.0368053
0.0368053
0.0368053
0.0368053
0.0368053
0.0368053
0.0368053
0.0368053
0.0368053
0.0368053
0.0368053
0.0368053
0.0368053
0.0368053
0.0368053
0.0368053
0.0368053
0.0368053
0.0368053
0.0368053
0.0368053
0.0368053
0.0368053
0.0368053
0.0368053
0.0368053
0.0368053
0.0368053
0.0368053
0.0368053
0.0368053
0.0368053
0.0368053
0.0368053
0.0368053
0.0368053
0.0368053
0.0368053
0.0368053
0.0368053
0.0368053
0.0368053
0.0368053
0.0368053
0.0368053
0.0368053
0.0368053
0.0368053
0.0368053
0.0368053
0.0368053
0.0368053
0.0368053
0.0368053
0.0368053
0.0368053
0.0368053
0.0368053
0.0368053
0.0368053
0.0368053
0.0368053
0.0368053
0.0368053
0.0368053
0.0368053
0.0368053
0.0368053
0.0368053
0.0368053
0.0368053
0.0368053
0.0368053
0.0368053
0.0368053
0.0368053
0.0368053
0.0368053
0.0368053
0.0368053
0.0368053
0.0368053
0.0368053
0.0368053
0.0368053
0.0368053
0.0368053
0.0368053
0.0368053
0.0368053
0.0368053
0.0368053
0.0368053
0.0368053
0.0368053
0.0368053
0.0368053
0.0368053
0.0368053
0.0368053
0.0368053
0.0368053
0.0368053
0.0368053
0.0368053
0.0368053
0.0368053
0.0368053
0.0368053
0.0368053
0.0368053
0.0368053
0.0368053
0.0368053
0.0368053
0.0368053
0.0368053
0.0368053
0.0368053
0.0368053
0.0368053
0.0368053
0.0368053
0.0368053
0.0368053
0.0368053
0.0368053
0.0368053
0.0368053
0.0368053
0.0368053
0.0368053
0.0368053
0.0368053
0.0368053
0.0368053
0.0368053
0.0368053
0.0368053
0.0368053
0.0368053
0.0368053
0.0368053
0.0368053
0.0368053
0.0368053
0.0368053
0.0368053
0.0368053
0.0368053
0.0368053
0.0368053
0.0368053
0.0368053
0.0368053
0.0368053
0.0368053
0.0368053
0.0368053
0.0368053
0.0368053
0.0368053
0.0368053
0.0368053
0.0368053
0.0368053
0.0368053
0.0368053
0.0368053
0.0368053
0.0368053
0.0368053
0.0368053
0.0368053
0.0368053
0.0368053
0.0368053
0.0368053
0.0368053
0.0368053
0.0368053
0.0368053
0.0368053
0.0368053
0.0368053
0.0368053
0.0368053
0.0368053
0.0368053
0.0368053
0.0368053
0.0368053
0.0368053
0.0368053
0.0368053
0.0368053
0.0368053
0.0368053
0.0368053
0.0368053
0.0368053
0.0368053
0.0368053
0.0368053
0.0368053
0.0368053
0.0368053
0.0368053
0.0368053
0.0368053
0.0368053
0.0368053
0.0368053
0.0368053
0.0368053
0.0368053
0.0368053
0.0368053
0.0368053
0.0368053
0.0368053
0.0368053
0.0368053
0.0368053
0.0368053
0.0368053
0.0368053
0.0368053
0.0368053
0.0368053
0.0368053
0.0368053
0.0368053
0.0368053
0.0368053
0.0368053
0.0368053
0.0368053
0.0368053
0.0368053
0.0368053
0.0368053
0.0368053
0.0368053
0.0368053
0.0368053
0.0368053
0.0368053
0.0368053
0.0368053
0.0368053
0.0368053
0.0368053
0.0368053
0.0368053
0.0368053
0.0368053
0.0368053
0.0368053
0.0368053
0.0368053
0.0368053
0.0368053
0.0368053
0.0368053
0.0368053
0.0368053
0.0368053
0.0368053
0.0368053
0.0368053
0.0368053
0.0368053
0.0368053
0.0368053
0.0368053
0.0368053
0.0368053
0.0368053
0.0368053
0.0368053
0.0368053
0.0368053
0.0368053
0.0368053
0.0368053
0.0368053
0.0368053
0.0368053
0.0368053
0.0368053
0.0368053
0.0368053
0.0368053
0.0368053
0.0368053
0.0368053
0.0368053
0.0368053
0.0368053
0.0368053
0.0368053
0.0368053
0.0368053
0.0368053
0.0368053
0.0368053
0.0368053
0.0368053
0.0368053
0.0368053
0.0368053
0.0368053
0.0368053
0.0368053
0.0368053
0.0368053
0.0368053
0.0368053
0.0368053
0.0368053
0.0368053
0.0368053
0.0368053
0.0368053
0.0368053
0.0368053
0.0368053
0.0368053
0.0368053
0.0368053
0.0368053
0.0368053
0.0368053
0.0368053
0.0368053
0.0368053
0.0368053
0.0368053
0.0368053
0.0368053
0.0368053
0.0368053
0.0368053
0.0368053
0.0368053
0.0368053
0.0368053
0.0368053
0.0368053
0.0368053
0.0368053
0.0368053
0.0368053
0.0368053
0.0368053
0.0368053
0.0368053
0.0368053
0.0368053
0.0368053
0.0368053
0.0368053
0.0368053
0.0368053
0.0368053
0.0368053
0.0368053
0.0368053
0.0368053
0.0368053
0.0368053
0.0368053
0.0368053
0.0368053
0.0368053
0.0368053
0.0368053
0.0368053
0.0368053
0.0368053
0.0368053
0.0368053
0.0368053
0.0368053
0.0368053
0.0368053
0.0368053
0.0368053
0.0368053
0.0368053
0.0368053
0.0368053
0.0368053
0.0368053
0.0368053
0.0368053
0.0368053
0.0368053
0.0368053
0.0368053
0.0368053
0.0368053
0.0368053
0.0368053
0.0368053
0.0368053
0.0368053
0.0368053
0.0368053
0.0368053
0.0368053
0.0368053
0.0368053
0.0368053
0.0368053
0.0368053
0.0368053
0.0368053
0.0368053
0.0368053
0.0368053
0.0368053
0.0368053
0.0368053
0.0368053
0.0368053
0.0368053
0.0368053
0.0368053
0.0368053
0.0368053
0.0368053
0.0368053
0.0368053
0.0368053
0.0368053
0.0368053
0.0368053
0.0368053
0.0368053
0.0368053
0.0368053
0.0368053
0.0368053
0.0368053
0.0368053
0.0368053
0.0368053
0.0368053
0.0368053
0.0368053
0.0368053
0.0368053
0.0368053
0.0368053
0.0368053
0.0368053
0.0368053
0.0368053
0.0368053
0.0368053
0.0368053
0.0368053
0.0368053
0.0368053
0.0368053
0.0368053
0.0368053
0.0368053
0.0368053
0.0368053
0.0368053
0.0368053
0.0368053
0.0368053
0.0368053
0.0368053
0.0368053
0.0368053
0.0368053
0.0368053
0.0368053
0.0368053
0.0368053
0.0368053
0.0368053
0.0368053
0.0368053
0.0368053
0.0368053
0.0368053
0.0368053
0.0368053
0.0368053
0.0368053
0.0368053
0.0368053
0.0368053
0.0368053
0.0368053
0.0368053
0.0368053
0.0368053
0.0368053
0.0368053
0.0368053
0.0368053
0.0368053
0.0368053
0.0368053
0.0368053
0.0368053
0.0368053
0.0368053
0.0368053
0.0368053
0.0368053
0.0368053
0.0368053
0.0368053
0.0368053
0.0368053
0.0368053
0.0368053
0.0368053
0.0368053
0.0368053
0.0368053
0.0368053
0.0368053
0.0368053
0.0368053
0.0368053
0.0368053
0.0368053
0.0368053
0.0368053
0.0368053
0.0368053
0.0368053
0.0368053
0.0368053
0.0368053
0.0368053
0.0368053
0.0368053
0.0368053
0.0368053
0.0368053
0.0368053
0.0368053
0.0368053
0.0368053
0.0368053
0.0368053
0.0368053
0.0368053
0.0368053
0.0368053
0.0368053
0.0368053
0.0368053
0.0368053
0.0368053
0.0368053
0.0368053
0.0368053
0.0368053
0.0368053
0.0368053
0.0368053
0.0368053
0.0368053
0.0368053
0.0368053
0.0368053
0.0368053
0.0368053
0.0368053
0.0368053
0.0368053
0.0368053
0.0368053
0.0368053
0.0368053
0.0368053
0.0368053
0.0368053
0.0368053
0.0368053
0.0368053
0.0368053
0.0368053
0.0368053
0.0368053
0.0368053
0.0368053
0.0368053
0.0368053
0.0368053
0.0368053
0.0368053
0.0368053
0.0368053
0.0368053
0.0368053
0.0368053
0.0368053
0.0368053
0.0368053
0.0368053
0.0368053
0.0368053
0.0368053
0.0368053
0.0368053
0.0368053
0.0368053
0.0368053
0.0368053
0.0368053
0.0368053
0.0368053
0.0368053
0.0368053
0.0368053
0.0368053
0.0368053
0.0368053
0.0368053
0.0368053
0.0368053
0.0368053
0.0368053
0.0368053
0.0368053
0.0368053
0.0368053
0.0368053
0.0368053
0.0368053
0.0368053
0.0368053
0.0368053
0.0368053
0.0368053
0.0368053
0.0368053
0.0368053
0.0368053
0.0368053
0.0368053
0.0368053
0.0368053
0.0368053
0.0368053
0.0368053
0.0368053
0.0368053
0.0368053
0.0368053
0.0368053
0.0368053
0.0368053
0.0368053
0.0368053
0.0368053
0.0368053
0.0368053
0.0368053
0.0368053
0.0368053
0.0368053
0.0368053
0.0368053
0.0368053
0.0368053
0.0368053
0.0368053
0.0368053
0.0368053
0.0368053
0.0368053
0.0368053
0.0368053
0.0368053
0.0368053
0.0368053
0.0368053
0.0368053
0.0368053
0.0368053
0.0368053
0.0368053
0.0368053
0.0368053
0.0368053
0.0368053
0.0368053
0.0368053
0.0368053
0.0368053
0.0368053
0.0368053
0.0368053
0.0368053
0.0368053
0.0368053
0.0368053
0.0368053
0.0368053
0.0368053
0.0368053
0.0368053
0.0368053
0.0368053
0.0368053
0.0368053
0.0368053
0.0368053
0.0368053
0.0368053
0.0368053
0.0368053
0.0368053
0.0368053
0.0368053
0.0368053
0.0368053
0.0368053
0.0368053
0.0368053
0.0368053
0.0368053
0.0368053
0.0368053
0.0368053
0.0368053
0.0368053
0.0368053
0.0368053
0.0368053
0.0368053
0.0368053
0.0368053
0.0368053
0.0368053
0.0368053
0.0368053
0.0368053
0.0368053
0.0368053
0.0368053
0.0368053
0.0368053
0.0368053
0.0368053
0.0368053
0.0368053
0.0368053
0.0368053
0.0368053
0.0368053
0.0368053
0.0368053
0.0368053
0.0368053
0.0368053
0.0368053
0.0368053
0.0368053
0.0368053
0.0368053
0.0368053
0.0368053
0.0368053
0.0368053
0.0368053
0.0368053
0.0368053
0.0368053
0.0368053
0.0368053
0.0368053
0.0368053
0.0368053
0.0368053
0.0368053
0.0368053
0.0368053
0.0368053
0.0368053
0.0368053
0.0368053
0.0368053
0.0368053
0.0368053
0.0368053
0.0368053
0.0368053
0.0368053
0.0368053
0.0368053
0.0368053
0.0368053
0.0368053
0.0368053
0.0368053
0.0368053
0.0368053
0.0368053
0.0368053
0.0368053
0.0368053
0.0368053
0.0368053
0.0368053
0.0368053
0.0368053
0.0368053
0.0368053
0.0368053
0.0368053
0.0368053
0.0368053
0.0368053
0.0368053
0.0368053
0.0368053
0.0368053
0.0368053
0.0368053
0.0368053
0.0368053
0.0368053
0.0368053
0.0368053
0.0368053
0.0368053
0.0368053
0.0368053
0.0368053
0.0368053
0.0368053
0.0368053
0.0368053
0.0368053
0.0368053
0.0368053
0.0368053
0.0368053
0.0368053
0.0368053
0.0368053
0.0368053
0.0368053
0.0368053
0.0368053
0.0368053
0.0368053
0.0368053
0.0368053
0.0368053
0.0368053
0.0368053
0.0368053
0.0368053
0.0368053
0.0368053
0.0368053
0.0368053
0.0368053
0.0368053
0.0368053
0.0368053
0.0368053
0.0368053
0.0368053
0.0368053
0.0368053
0.0368053
0.0368053
0.0368053
0.0368053
0.0368053
0.0368053
0.0368053
0.0368053
0.0368053
0.0368053
0.0368053
0.0368053
0.0368053
0.0368053
0.0368053
0.0368053
0.0368053
0.0368053
0.0368053
0.0368053
0.0368053
0.0368053
0.0368053
0.0368053
0.0368053
0.0368053
0.0368053
0.0368053
0.0368053
0.0368053
0.0368053
0.0368053
0.0368053
0.0368053
0.0368053
0.0368053
0.0368053
0.0368053
0.0368053
0.0368053
0.0368053
0.0368053
0.0368053
0.0368053
0.0368053
0.0368053
0.0368053
0.0368053
0.0368053
0.0368053
0.0368053
0.0368053
0.0368053
0.0368053
0.0368053
0.0368053
0.0368053
0.0368053
0.0368053
0.0368053
0.0368053
0.0368053
0.0368053
0.0368053
0.0368053
0.0368053
0.0368053
0.0368053
0.0368053
0.0368053
0.0368053
0.0368053
0.0368053
0.0368053
0.0368053
0.0368053
0.0368053
0.0368053
0.0368053
0.0368053
0.0368053
0.0368053
0.0368053
0.0368053
0.0368053
0.0368053
0.0368053
0.0368053
0.0368053
0.0368053
0.0368053
0.0368053
0.0368053
0.0368053
0.0368053
0.0368053
0.0368053
0.0368053
0.0368053
0.0368053
0.0368053
0.0368053
0.0368053
0.0368053
0.0368053
0.0368053
0.0368053
0.0368053
0.0368053
0.0368053
0.0368053
0.0368053
0.0368053
0.0368053
0.0368053
0.0368053
0.0368053
0.0368053
0.0368053
0.0368053
0.0368053
0.0368053
0.0368053
0.0368053
0.0368053
0.0368053
0.0368053
0.0368053
0.0368053
0.0368053
0.0368053
0.0368053
0.0368053
0.0368053
0.0368053
0.0368053
0.0368053
0.0368053
0.0368053
0.0368053
0.0368053
0.0368053
0.0368053
0.0368053
0.0368053
0.0368053
0.0368053
0.0368053
0.0368053
0.0368053
0.0368053
0.0368053
0.0368053
0.0368053
0.0368053
0.0368053
0.0368053
0.0368053
0.0368053
0.0368053
0.0368053
0.0368053
0.0368053
0.0368053
0.0368053
0.0368053
0.0368053
0.0368053
0.0368053
0.0368053
0.0368053
0.0368053
0.0368053
0.0368053
0.0368053
0.0368053
0.001012615
0.001001639
0.001004493
0.001010246
0.001020483
0.001038266
0.001064542
0.001078338
0.001090703
0.00109174
0.001085797
0.001079264
0.001073821
0.00106932
0.001065683
0.001062538
0.001059987
0.001057858
0.001028442
0.001005922
0.001008206
0.0010138
0.001024298
0.001043749
0.001068533
0.001085218
0.001093382
0.001094521
0.001087474
0.001080646
0.001074763
0.001069983
0.001066132
0.001062959
0.001060302
0.001058125
0.001033009
0.001009984
0.001014507
0.001022984
0.001038788
0.001065525
0.001085735
0.001098767
0.001097499
0.001092484
0.001086758
0.001081022
0.001075038
0.001070139
0.001066201
0.001063018
0.001060358
0.001058155
0.001035668
0.001009762
0.001015636
0.001025621
0.001052375
0.001130588
0.001112278
0.001101704
0.001094821
0.001088879
0.001085066
0.001079966
0.001074582
0.001069695
0.001065959
0.001062621
0.001060088
0.001057944
0.001038615
0.001009089
0.001013565
0.001019944
0.001034816
0.001089884
0.001127814
0.001097873
0.00108866
0.001085846
0.001080757
0.001077906
0.001073405
0.001068803
0.001065394
0.001061695
0.001059546
0.001057475
0.001041627
0.001011775
0.001014017
0.001018317
0.001027814
0.001055992
0.001102388
0.001112824
0.001081535
0.001080963
0.001076673
0.001074068
0.001071341
0.001067286
0.001064471
0.001060592
0.001058725
0.001056788
0.001044407
0.001013823
0.001015
0.00101842
0.001025697
0.00104659
0.001091447
0.001117994
0.001079738
0.001075162
0.00107283
0.001070365
0.001068501
0.001065341
0.001063029
0.001059133
0.001057659
0.00105588
0.001047328
0.001014388
0.00101555
0.00101875
0.001025006
0.001041756
0.00109998
0.001106817
0.001086023
0.001070532
0.001068798
0.001066624
0.001065194
0.001063112
0.001061293
0.001057561
0.001056389
0.001054795
0.001050042
0.001014656
0.001015845
0.001019064
0.00102475
0.001038805
0.001094895
0.001103152
0.001092732
0.001068329
0.001064677
0.001063144
0.001062058
0.001060594
0.001059398
0.001055814
0.001054967
0.001053563
0.001053023
0.00101396
0.001016022
0.001019452
0.00102488
0.001036854
0.00108065
0.001111861
0.001092765
0.001067086
0.001061136
0.00105992
0.001059389
0.001058207
0.001057367
0.001053978
0.001053428
0.001052229
0.001056099
0.001013966
0.001016377
0.001020204
0.001025382
0.001035699
0.001067309
0.001099232
0.00108525
0.001067807
0.001058811
0.001056686
0.001056828
0.001055931
0.001055262
0.001052086
0.001051814
0.001050796
0.001059072
0.001014642
0.001016885
0.001021145
0.001026109
0.00103537
0.001058368
0.001087864
0.001076947
0.001068748
0.001055677
0.00105462
0.001054823
0.001053427
0.001053175
0.001050171
0.00105014
0.001049306
0.001062205
0.001013353
0.00101633
0.001021646
0.001026982
0.001035629
0.001053001
0.001081555
0.001074049
0.001065218
0.001053001
0.001051731
0.001051555
0.001051103
0.001051044
0.001048351
0.001048434
0.00104777
0.001065654
0.001008483
0.001016618
0.001023193
0.001028462
0.001036508
0.00105033
0.001072048
0.001066243
0.00105474
0.001049535
0.001048459
0.001048788
0.001048834
0.001049034
0.001046428
0.001046729
0.001046215
0.001080948
0.001017547
0.00102092
0.001026792
0.001030674
0.00103766
0.001048942
0.001063181
0.001056885
0.001051009
0.001046586
0.001045829
0.001046463
0.001046635
0.001047027
0.001044542
0.001045026
0.001044648
0.001085082
0.001015454
0.001019427
0.001029089
0.001033219
0.001038765
0.001047827
0.001057021
0.001052271
0.001049156
0.001044177
0.001043669
0.001044187
0.001044487
0.001045047
0.001042704
0.001043329
0.001043077
0.001090952
0.001018417
0.00102421
0.001027514
0.001035362
0.001040042
0.001046754
0.001052693
0.001048996
0.001046858
0.001041989
0.001041526
0.001041943
0.001042398
0.001043092
0.001040915
0.001041653
0.00104151
0.001097419
0.001019985
0.001029619
0.001032627
0.00103331
0.001040743
0.001045468
0.001048591
0.001045753
0.001043966
0.001039772
0.001039417
0.001039848
0.001040371
0.001041129
0.001039194
0.001040002
0.001039959
0.001104418
0.001020697
0.001033856
0.001040456
0.001036615
0.001038527
0.001043436
0.001044731
0.00104227
0.001040784
0.001037638
0.001037422
0.001037854
0.00103846
0.001039076
0.001037605
0.00103837
0.001038423
0.001111477
0.001021623
0.001035643
0.001042482
0.001040795
0.001036222
0.001039733
0.001040749
0.001038836
0.00103767
0.001035581
0.001035492
0.001035937
0.001036582
0.001036499
0.001036368
0.001036775
0.001036902
0.001118577
0.001021713
0.001034977
0.001039944
0.001041261
0.001037049
0.001034192
0.00103647
0.001035444
0.001034832
0.001033558
0.001033604
0.001034059
0.001034527
0.001034724
0.00103509
0.001035154
0.001035398
0.001125994
0.001020681
0.001030885
0.001034607
0.001038767
0.001034041
0.001034102
0.001032057
0.001032308
0.001032289
0.001031601
0.001031776
0.001032261
0.00103277
0.001033022
0.001033654
0.001033636
0.001033948
0.001133922
0.001019946
0.001027803
0.0010288
0.001035535
0.001030748
0.001029568
0.001029869
0.001029641
0.001030071
0.001029737
0.001030016
0.001030551
0.001031045
0.001031418
0.001032031
0.001032137
0.001032503
0.001142363
0.001019306
0.001024775
0.001024169
0.001031304
0.001027527
0.001026483
0.001026648
0.001027044
0.001028005
0.001027995
0.001028268
0.001028882
0.001029463
0.001029809
0.001030475
0.001030662
0.00103107
0.001151538
0.001018262
0.001021585
0.001020655
0.001027511
0.001024537
0.00102368
0.00102432
0.001024939
0.001025601
0.001026397
0.001026641
0.001027283
0.001028073
0.001027903
0.001028893
0.001029223
0.001029669
0.001161174
0.001017271
0.001019282
0.001018105
0.001024149
0.001021958
0.001021435
0.001022572
0.00102258
0.001023639
0.001024419
0.00102525
0.001025783
0.001027942
0.001026714
0.001027684
0.001027848
0.001028277
0.001171628
0.001016221
0.001017264
0.001016157
0.001021008
0.001019509
0.001019855
0.00102016
0.00102048
0.001021738
0.001022861
0.001023642
0.001024469
0.001025458
0.001024358
0.001025928
0.001026466
0.001027051
0.001182914
0.001015104
0.001015776
0.00101481
0.001017398
0.001017422
0.001017921
0.001018091
0.001018671
0.001020053
0.001021291
0.001022191
0.001023109
0.001023998
0.001023665
0.001024641
0.001025137
0.001025619
0.001194915
0.001013715
0.001014694
0.001014413
0.001013393
0.001015872
0.001015981
0.001016129
0.001017325
0.001018573
0.001019824
0.001020774
0.001021785
0.001022156
0.001022732
0.00102336
0.001023809
0.001024427
0.001208078
0.001011935
0.001013144
0.001016726
0.001009326
0.001015278
0.001014482
0.001014161
0.001016722
0.001017127
0.001018422
0.001019453
0.001020434
0.001020992
0.001021688
0.001022092
0.001022688
0.001024975
0.001222258
0.001009838
0.001009503
0.001019292
0.001008648
0.001014346
0.001013316
0.00101275
0.001016943
0.001015525
0.001017076
0.001018233
0.001019226
0.001019645
0.001020423
0.001020822
0.001021376
0.001022003
0.001237403
0.001008195
0.001007225
0.001011286
0.001011097
0.001010173
0.001011615
0.00101168
0.001012424
0.001014689
0.001016035
0.001017143
0.001018267
0.001018108
0.001019217
0.001019644
0.001020259
0.001020603
0.001254244
0.001005867
0.001005948
0.001006525
0.001009774
0.001009126
0.001010171
0.00101093
0.001012349
0.001013732
0.00101521
0.001016208
0.001017482
0.001017438
0.001017956
0.001018461
0.001019779
0.001018781
0.00127401
0.001005389
0.001006799
0.001004756
0.00100763
0.001008262
0.001009183
0.001010396
0.001011073
0.00101287
0.001014606
0.00101542
0.001016255
0.001015992
0.001016762
0.001017238
0.001017586
0.001017911
0.001334164
0.001003635
0.001005288
0.001004241
0.001004896
0.00101141
0.001008573
0.001008717
0.001012526
0.001012561
0.001014136
0.001014585
0.001014468
0.001015365
0.001015744
0.001016154
0.001015949
0.001017706
0.001376146
0.001002825
0.001003513
0.001003947
0.001004443
0.001008808
0.001008262
0.001012192
0.001011398
0.001011706
0.001013023
0.001013704
0.001013926
0.00101436
0.001014687
0.001016365
0.001015683
0.001016632
0.001452544
0.00100174
0.001002858
0.001004043
0.001005249
0.001006866
0.001008143
0.001011142
0.001010454
0.001011372
0.001012172
0.001012765
0.001012363
0.001013432
0.001013648
0.001013628
0.001013633
0.001015008
0.001974814
0.00100086
0.001002706
0.001003768
0.001004841
0.001006398
0.001008198
0.001010137
0.001010652
0.001011135
0.001011434
0.001011888
0.001011793
0.001012057
0.001012702
0.001012154
0.001013925
0.001014081
0.003305613
0.001000632
0.001004357
0.001003301
0.00100463
0.00100686
0.001008848
0.001010195
0.001010414
0.001010563
0.001010469
0.001010311
0.001010617
0.001010894
0.001011647
0.001011756
0.001012496
0.001013075
0.007266348
0.001001738
0.001001733
0.001003606
0.001006331
0.001008874
0.001010124
0.00101015
0.001009917
0.001009646
0.001009569
0.0010092
0.001009598
0.001010018
0.001010205
0.001010655
0.001011341
0.001012023
0.0368053
0.001002053
0.001002665
0.001003556
0.001006694
0.001010568
0.001010851
0.001009585
0.001009064
0.001008429
0.001008529
0.001007958
0.001008717
0.001009556
0.00100879
0.00100961
0.001010131
0.001010756
0.0368053
0.001001414
0.001003702
0.001006024
0.001008496
0.001012116
0.001009452
0.001008777
0.001007706
0.001007588
0.001007614
0.001007367
0.001007774
0.001008146
0.001007877
0.001008648
0.00100922
0.001010021
0.0368053
0.001000578
0.001002836
0.001006908
0.001011007
0.001011075
0.001007926
0.001006812
0.001006763
0.001006538
0.001006075
0.001006774
0.001006917
0.001006346
0.001007389
0.001007855
0.001008656
0.001008374
0.0368053
0.001002324
0.001004185
0.001008912
0.001011172
0.001008352
0.001006494
0.001005958
0.001005667
0.001005825
0.001005256
0.001005892
0.001005764
0.001006316
0.001006666
0.001007297
0.001007112
0.001008483
0.0368053
0.00100242
0.001003976
0.001004939
0.001015632
0.001006149
0.001005894
0.001005146
0.001004771
0.001005188
0.001004737
0.001005252
0.001004702
0.001005924
0.001006244
0.001005924
0.001007119
0.001007267
0.0368053
0.001002261
0.001001854
0.001003288
0.001010923
0.00100504
0.001004859
0.001004231
0.001003924
0.001003938
0.001003997
0.001004307
0.001004547
0.00100493
0.00100484
0.001006259
0.001006033
0.001006748
0.0368053
0.001004741
0.001000873
0.001004407
0.001004169
0.001004498
0.001003575
0.001003366
0.001003248
0.001003471
0.0010035
0.00100361
0.001004065
0.001004134
0.001005076
0.001004554
0.001006058
0.001005924
0.0368053
0.001071702
0.001001447
0.001002182
0.00100281
0.001002931
0.001002769
0.001002663
0.001002728
0.001002799
0.001002854
0.001002857
0.001003335
0.001004029
0.001003699
0.001005144
0.001004509
0.001006242
0.0368053
0.001148708
0.001003791
0.001001208
0.00100181
0.001001986
0.001002144
0.001002021
0.001001927
0.001002395
0.001002197
0.001002648
0.001003038
0.001002874
0.001003965
0.001003673
0.001004997
0.001004632
0.0368053
0.001602889
0.001003407
0.001000679
0.001001319
0.001001718
0.001001902
0.001002276
0.001002333
0.001002838
0.00100329
0.001003569
0.001003904
0.001005146
0.0368053
0.0368053
0.001001274
0.001001631
0.001002053
0.001002424
0.001002446
0.001003706
0.001003597
0.001004288
0.0368053
0.001001204
0.001001743
0.00100193
0.001002566
0.001002921
0.001003298
0.001004133
0.001001811
0.001001723
0.001002105
0.00100271
0.001003046
0.001003652
0.001001809
0.001001998
0.001002294
0.001003086
0.001003616
0.001001419
0.00100174
0.001002349
0.00100277
0.001003337
0.00100135
0.001001752
0.001002146
0.001002683
0.001003233
0.0010013
0.001001675
0.001002129
0.001002632
0.001003181
0.001001305
0.001001671
0.001002179
0.001002668
0.001003188
0.001001309
0.001001683
0.001002146
0.00100282
0.001003233
0.001001273
0.001001351
0.001001931
0.001002249
0.001002799
0.001003465
0.0368053
0.001001633
0.001001571
0.001002016
0.001002479
0.001002963
0.001003477
0.0368053
0.0368053
0.001001581
0.001001563
0.001001798
0.001002346
0.001002662
0.001003292
0.001003953
0.0368053
0.002369974
0.001007799
0.001001071
0.001001536
0.001001433
0.00100183
0.001002235
0.001002324
0.001002974
0.001003217
0.001003974
0.0368053
0.001290627
0.001002483
0.001001244
0.001001119
0.001001199
0.001001202
0.001001192
0.001001434
0.001001481
0.001001673
0.001001735
0.00100197
0.001002491
0.001002882
0.001003146
0.001003685
0.001004294
0.0368053
0.001092977
0.001001476
0.001000874
0.001001185
0.001001388
0.001001463
0.001001504
0.001001644
0.001001803
0.00100182
0.001002219
0.001002484
0.001002529
0.001003248
0.001003405
0.001004527
0.00100438
0.0368053
0.001048289
0.001000743
0.001001201
0.00100148
0.001001549
0.001001742
0.001001849
0.001001886
0.001002086
0.00100215
0.001002584
0.001002717
0.001003347
0.001003277
0.00100429
0.001004192
0.001005314
0.0368053
0.001012246
0.001000833
0.001001073
0.001001423
0.001001813
0.001001979
0.001002125
0.001002295
0.001002453
0.001002648
0.001002701
0.001003249
0.001003395
0.001004161
0.001004213
0.001005136
0.001005161
0.0368053
0.001006703
0.001001348
0.001001259
0.001001912
0.001002302
0.001002306
0.001002491
0.001002672
0.001002905
0.001003464
0.001003246
0.001003635
0.001003861
0.001004441
0.001004938
0.001005071
0.001006496
0.0368053
0.001006159
0.001002435
0.001001928
0.001002274
0.00100258
0.001002678
0.001002896
0.001003104
0.001003148
0.001003199
0.001003815
0.001004334
0.001004369
0.001004878
0.001005269
0.001005964
0.001006181
0.0368053
0.001004517
0.001002506
0.001002202
0.001002593
0.001002852
0.001003137
0.001003297
0.001003447
0.001003675
0.001003993
0.001004054
0.001004517
0.001004925
0.001005204
0.001005923
0.001006374
0.001007133
0.0368053
0.001005368
0.001002157
0.001003315
0.001003315
0.001003103
0.001003369
0.00100366
0.00100388
0.001004091
0.001004515
0.00100498
0.001005238
0.001006129
0.001006122
0.001006464
0.001007071
0.001007577
0.0368053
0.001008796
0.00100417
0.00100324
0.001003489