/*--------------------------------*- C++ -*----------------------------------*\
| =========                 |                                                 |
| \\      /  F ield         | OpenFOAM: The Open Source CFD Toolbox           |
|  \\    /   O peration     | Version:  2206                                  |
|   \\  /    A nd           | Website:  www.openfoam.com                      |
|    \\/     M anipulation  |                                                 |
\*---------------------------------------------------------------------------*/
FoamFile
{
    version     2.0;
    format      ascii;
    arch        "LSB;label=32;scalar=64";
    class       volScalarField;
    location    "2";
    object      muI;
}
// * * * * * * * * * * * * * * * * * * * * * * * * * * * * * * * * * * * * * //

dimensions      [0 0 0 0 0 0 0];

internalField   nonuniform List<scalar> 
13078
(
0.6301396
0.6300065
0.630001
0.6300004
0.6300003
0.6300002
0.6300001
0.6300053
0.6300015
0.6300007
0.6300004
0.6300002
0.6300002
0.6300001
0.6300011
0.6300007
0.6300004
0.6300003
0.6300002
0.6300001
0.6300001
0.6300004
0.6300003
0.6300002
0.6300002
0.6300001
0.6300001
0.6300001
0.6300002
0.6300002
0.6300001
0.6300001
0.6300001
0.6300001
0.6300001
0.6300001
0.6300001
0.6300001
0.6300001
0.6300001
0.6300001
0.6300001
0.6300001
0.6300001
0.6300001
0.6300001
0.6300001
0.6300001
0.6300001
0.6300001
0.63
0.63
0.63
0.63
0.63
0.6300001
0.63
0.63
0.63
0.63
0.63
0.63
0.63
0.63
0.63
0.63
0.63
0.63
0.63
0.63
0.63
0.63
0.63
0.63
0.63
0.63
0.63
0.63
0.63
0.63
0.63
0.63
0.63
0.63
0.63
0.63
0.63
0.63
0.63
0.63
0.63
0.63
0.63
0.63
0.63
0.63
0.63
0.63
0.63
0.63
0.63
0.63
0.63
0.63
0.63
0.63
0.63
0.63
0.63
0.63
0.63
0.63
0.63
0.63
0.63
0.63
0.63
0.63
0.63
0.63
0.63
0.63
0.63
0.63
0.63
0.63
0.63
0.63
0.63
0.63
0.63
0.63
0.6300001
0.63
0.63
0.63
0.63
0.63
0.63
0.6300001
0.63
0.63
0.63
0.63
0.63
0.63
0.6300001
0.63
0.63
0.63
0.63
0.63
0.6300001
0.6300001
0.63
0.63
0.63
0.63
0.63
0.6300001
0.6300001
0.63
0.63
0.63
0.63
0.6300001
0.6300001
0.6300001
0.63
0.63
0.63
0.6300001
0.6300001
0.6300001
0.6300001
0.63
0.63
0.6300001
0.6300001
0.6300001
0.6300001
0.6300001
0.63
0.6300001
0.6300001
0.6300001
0.6300001
0.6300001
0.6300001
0.63
0.6300001
0.6300001
0.6300001
0.6300001
0.6300001
0.6300001
0.6300001
0.6300001
0.6300001
0.6300001
0.6300001
0.6300001
0.6300001
0.6300001
0.6300001
0.6300001
0.6300001
0.6300001
0.6300001
0.6300001
0.6300001
0.6300001
0.6300001
0.6300001
0.6300001
0.6300001
0.6300002
0.6300001
0.6300001
0.6300001
0.6300001
0.6300002
0.6300002
0.6300002
0.6300001
0.6300002
0.6300002
0.6300002
0.6300002
0.6300002
0.6300002
0.6300001
0.6300002
0.6300002
0.6300002
0.6300002
0.6300002
0.6300002
0.6300002
0.6300002
0.6300002
0.6300002
0.6300003
0.6300003
0.6300003
0.6300002
0.6300002
0.6300003
0.6300003
0.6300003
0.6300003
0.6300003
0.6300002
0.6300003
0.6300003
0.6300003
0.6300004
0.6300004
0.6300004
0.6300003
0.6300003
0.6300004
0.6300004
0.6300004
0.6300005
0.6300006
0.6300003
0.6300004
0.6300004
0.6300005
0.6300005
0.6300007
0.6300009
0.6300004
0.6300004
0.6300005
0.6300006
0.6300008
0.630001
0.6300013
0.6300004
0.6300005
0.6300006
0.6300008
0.6300011
0.6300014
0.6300015
0.6300005
0.6300006
0.6300009
0.6300013
0.6300016
0.6300017
0.6300016
0.6300006
0.6300009
0.6300013
0.6300019
0.6300021
0.6300019
0.6300018
0.6300008
0.6300014
0.6300021
0.6300025
0.6300025
0.6300022
0.6300026
0.6300013
0.6300021
0.6300029
0.630003
0.6300026
0.6300026
0.6300045
0.630002
0.6300031
0.6300035
0.6300032
0.6300025
0.630003
0.6300077
0.6300031
0.6300039
0.6300036
0.6300026
0.630002
0.6300037
0.6300114
0.6300043
0.6300043
0.630003
0.6300016
0.6300018
0.6300054
0.6300192
0.6300053
0.6300039
0.630002
0.6300011
0.6300024
0.6300101
0.6300346
0.6300059
0.6300031
0.6300013
0.6300011
0.630005
0.6300208
0.6300541
0.6300057
0.6300024
0.6300012
0.6300021
0.6300108
0.6300335
0.6300642
0.630005
0.6300022
0.6300014
0.6300045
0.6300184
0.6300389
0.6300564
0.630004
0.630002
0.6300019
0.6300074
0.6300232
0.6300387
0.6300504
0.6300029
0.6300018
0.6300024
0.6300096
0.6300264
0.6300403
0.6300468
0.6300021
0.6300015
0.6300027
0.6300108
0.6300281
0.6300415
0.6300474
0.6300016
0.6300013
0.6300028
0.6300111
0.6300284
0.6300425
0.6300512
0.6300016
0.6300014
0.6300028
0.6300104
0.6300274
0.6300432
0.6300553
0.6300021
0.6300017
0.6300027
0.6300087
0.6300244
0.630041
0.630053
0.630003
0.6300022
0.6300027
0.6300065
0.6300195
0.6300372
0.6300498
0.6300041
0.6300027
0.6300026
0.6300046
0.6300132
0.6300303
0.6300505
0.630005
0.6300032
0.6300024
0.6300031
0.6300078
0.6300201
0.630041
0.6300055
0.6300038
0.6300025
0.6300024
0.6300048
0.630013
0.6300302
0.6300054
0.6300044
0.630003
0.6300022
0.6300034
0.6300093
0.6300246
0.6300048
0.6300048
0.6300038
0.6300027
0.6300031
0.6300073
0.630021
0.6300037
0.6300046
0.6300043
0.6300034
0.6300033
0.6300061
0.6300163
0.6300026
0.6300039
0.6300043
0.6300039
0.6300036
0.6300051
0.6300115
0.6300017
0.6300029
0.6300039
0.630004
0.6300036
0.6300041
0.6300074
0.630001
0.6300019
0.6300029
0.6300036
0.6300034
0.6300034
0.6300044
0.6300006
0.6300011
0.630002
0.6300028
0.630003
0.6300028
0.6300029
0.6300005
0.6300007
0.6300011
0.6300019
0.6300024
0.6300024
0.6300023
0.6300004
0.6300005
0.6300007
0.6300011
0.6300017
0.630002
0.6300021
0.6300003
0.6300004
0.6300005
0.6300007
0.630001
0.6300015
0.6300018
0.6300003
0.6300004
0.6300004
0.6300005
0.6300006
0.6300009
0.6300013
0.6300002
0.6300003
0.6300003
0.6300004
0.6300004
0.6300006
0.6300008
0.6300002
0.6300003
0.6300003
0.6300003
0.6300004
0.6300004
0.6300005
0.6300002
0.6300002
0.6300003
0.6300003
0.6300003
0.6300003
0.6300004
0.6300002
0.6300002
0.6300002
0.6300002
0.6300003
0.6300003
0.6300003
0.6300001
0.6300002
0.6300002
0.6300002
0.6300002
0.6300002
0.6300002
0.6300001
0.6300002
0.6300002
0.6300002
0.6300002
0.6300002
0.6300002
0.6300001
0.6300001
0.6300001
0.6300002
0.6300002
0.6300002
0.6300002
0.6300001
0.6300001
0.6300001
0.6300001
0.6300001
0.6300001
0.6300002
0.6300001
0.6300001
0.6300001
0.6300001
0.6300001
0.6300001
0.6300001
0.6300001
0.6300001
0.6300001
0.6300001
0.6300001
0.6300001
0.6300001
0.6300001
0.6300001
0.6300001
0.6300001
0.6300001
0.6300001
0.6300001
0.63
0.6300001
0.6300001
0.6300001
0.6300001
0.6300001
0.6300001
0.63
0.6300001
0.6300001
0.6300001
0.6300001
0.6300001
0.6300001
0.63
0.63
0.6300001
0.6300001
0.6300001
0.6300001
0.6300001
0.63
0.63
0.63
0.6300001
0.6300001
0.6300001
0.6300001
0.63
0.63
0.63
0.63
0.6300001
0.6300001
0.6300001
0.63
0.63
0.63
0.63
0.63
0.6300001
0.6300001
0.63
0.63
0.63
0.63
0.63
0.6300001
0.6300001
0.63
0.63
0.63
0.63
0.63
0.63
0.6300001
0.63
0.63
0.63
0.63
0.63
0.63
0.6300001
0.63
0.63
0.63
0.63
0.63
0.63
0.6300001
0.63
0.63
0.63
0.63
0.63
0.63
0.63
0.63
0.63
0.63
0.63
0.63
0.63
0.63
0.63
0.63
0.63
0.63
0.63
0.63
0.63
0.63
0.63
0.63
0.63
0.63
0.63
0.63
0.63
0.63
0.63
0.63
0.63
0.63
0.63
0.63
0.63
0.63
0.63
0.63
0.63
0.63
0.63
0.63
0.63
0.63
0.63
0.63
0.63
0.63
0.63
0.63
0.63
0.63
0.63
0.63
0.63
0.63
0.63
0.63
0.63
0.63
0.63
0.63
0.63
0.63
0.63
0.63
0.63
0.63
0.63
0.63
0.63
0.63
0.63
0.63
0.63
0.6300001
0.63
0.63
0.63
0.63
0.63
0.6300001
0.6300001
0.6300001
0.6300001
0.6300001
0.6300001
0.6300001
0.6300001
0.6300001
0.6300001
0.6300001
0.6300001
0.6300001
0.6300001
0.6300001
0.6300002
0.6300002
0.6300001
0.6300001
0.6300001
0.6300001
0.6300001
0.6300004
0.6300003
0.6300002
0.6300002
0.6300001
0.6300001
0.6300001
0.6300011
0.6300007
0.6300004
0.6300002
0.6300002
0.6300001
0.6300001
0.6300048
0.6300014
0.6300007
0.6300004
0.6300002
0.6300002
0.6300001
0.6300001
0.6300001
0.6300001
0.6300001
0.6300001
0.63
0.6300001
0.6300001
0.6300001
0.6300001
0.6300001
0.6300001
0.63
0.6300001
0.6300001
0.6300001
0.6300001
0.6300001
0.6300001
0.63
0.6300001
0.6300001
0.6300001
0.6300001
0.6300001
0.6300001
0.63
0.6300001
0.6300001
0.6300001
0.6300001
0.6300001
0.6300001
0.6300001
0.6300001
0.6300001
0.6300001
0.6300001
0.6300001
0.6300001
0.6300001
0.6300001
0.6300001
0.6300001
0.6300001
0.6300001
0.6300001
0.6300001
0.6300001
0.6300001
0.6300001
0.6300001
0.6300001
0.6300001
0.6300001
0.6300001
0.6300001
0.6300001
0.6300001
0.6300001
0.6300001
0.6300001
0.6300001
0.63
0.6300001
0.6300001
0.6300001
0.6300001
0.6300001
0.6300001
0.63
0.6300001
0.6300001
0.63
0.6300001
0.6300001
0.6300001
0.63
0.6300001
0.6300001
0.63
0.6300001
0.6300001
0.6300001
0.63
0.6300001
0.6300001
0.63
0.6300001
0.6300001
0.6300001
0.63
0.6300001
0.6300001
0.63
0.6300001
0.6300001
0.6300001
0.63
0.6300001
0.6300001
0.63
0.6300001
0.6300001
0.6300001
0.6300001
0.6300001
0.6300001
0.6300001
0.6300001
0.6300001
0.6300001
0.6300001
0.6300001
0.6300001
0.6300001
0.6300001
0.6300001
0.6300001
0.6300001
0.6300001
0.6300001
0.6300001
0.6300001
0.6300001
0.6300001
0.6300001
0.6300001
0.6300001
0.6300001
0.6300001
0.6300001
0.6300001
0.6300001
0.6300001
0.6300001
0.6300001
0.6300001
0.6300001
0.6300001
0.6300001
0.6300001
0.6300001
0.6300001
0.6300001
0.6300001
0.6300001
0.6300001
0.6300001
0.6300001
0.6300001
0.6300001
0.6300001
0.6300001
0.6300001
0.6300001
0.6300001
0.6300001
0.6300001
0.6300001
0.6300002
0.6300001
0.6300001
0.6300001
0.6300001
0.6300001
0.6300001
0.6300002
0.6300001
0.6300001
0.6300001
0.6300001
0.6300001
0.6300001
0.6300002
0.6300001
0.6300001
0.6300001
0.6300001
0.6300001
0.6300001
0.6300002
0.6300001
0.6300001
0.6300001
0.6300001
0.6300001
0.6300001
0.6300003
0.6300001
0.6300001
0.6300001
0.6300001
0.6300001
0.6300002
0.6300003
0.6300001
0.6300001
0.6300001
0.6300001
0.6300001
0.6300002
0.6300004
0.6300001
0.6300001
0.6300002
0.6300002
0.6300002
0.6300002
0.6300004
0.6300002
0.6300001
0.6300002
0.6300002
0.6300002
0.6300002
0.6300005
0.6300002
0.6300002
0.6300002
0.6300002
0.6300003
0.6300003
0.6300007
0.6300002
0.6300002
0.6300002
0.6300003
0.6300004
0.6300005
0.6300012
0.6300002
0.6300002
0.6300002
0.6300003
0.6300004
0.6300007
0.6300018
0.6300003
0.6300002
0.6300003
0.6300003
0.6300005
0.6300011
0.6300027
0.6300003
0.6300003
0.6300002
0.6300004
0.6300015
0.6300021
0.6300047
0.6300004
0.6300003
0.6300005
0.6300017
0.6300005
0.6300002
0.6300002
0.6300007
0.6300006
0.6300014
0.6300003
0.6300005
0.6300012
0.630003
0.6300012
0.6300012
0.6300011
0.6300006
0.6300033
0.6300067
0.6300109
0.6300017
0.6300017
0.6300007
0.6300029
0.6300172
0.6300152
0.6300164
0.6300021
0.6300023
0.6300004
0.6300185
0.6300319
0.6300263
0.630027
0.6300021
0.6300036
0.6300073
0.6300556
0.6300443
0.6300419
0.6300594
0.6300029
0.6300064
0.630049
0.6300604
0.6300443
0.6300477
0.6300861
0.6300088
0.6300243
0.6300769
0.6300448
0.6300524
0.6300688
0.630095
0.6300201
0.6300544
0.630066
0.6300476
0.6300726
0.6301052
0.6300708
0.6300329
0.630077
0.6300695
0.6300612
0.6301179
0.6301523
0.6301247
0.630045
0.630086
0.6300858
0.6300945
0.6301538
0.6301738
0.6301094
0.6300641
0.63011
0.6301084
0.6301157
0.6301348
0.6301424
0.6300365
0.630093
0.6301297
0.6301081
0.630107
0.6300996
0.630102
0.6300244
0.6301135
0.6301336
0.6300872
0.6300802
0.630069
0.6300734
0.6300403
0.6301009
0.6301092
0.6300877
0.6300663
0.630047
0.6300545
0.6300546
0.6300934
0.6301238
0.6300949
0.6300515
0.6300473
0.6300636
0.6300922
0.6300858
0.6301239
0.6300914
0.6300603
0.6300712
0.6301491
0.6302066
0.630077
0.6301116
0.6301009
0.6300773
0.630103
0.6302676
0.6302684
0.6300772
0.6301056
0.6301196
0.6301283
0.6302312
0.6302954
0.6301709
0.6300905
0.6301291
0.6301358
0.6301635
0.6302108
0.6302654
0.6301
0.6301506
0.6301213
0.6301271
0.6302241
0.6302792
0.6300937
0.6301557
0.6301344
0.6301189
0.6301998
0.6302481
0.6300776
0.6301305
0.6301315
0.6301262
0.6301903
0.6302961
0.6302423
0.6300699
0.6300915
0.6300892
0.6300932
0.6300993
0.6302104
0.6302105
0.6300766
0.6301061
0.6300537
0.6300662
0.6300492
0.6300375
0.6300424
0.6300747
0.6301277
0.6300708
0.6300886
0.6300694
0.6300554
0.6300312
0.6300759
0.6301353
0.6300997
0.6301015
0.6300913
0.6301019
0.6300368
0.6300667
0.6301309
0.6301016
0.6301059
0.6301276
0.6301448
0.6300531
0.6300544
0.630111
0.6300937
0.6301019
0.6301372
0.6301465
0.6300496
0.6300396
0.6300885
0.6300796
0.6300914
0.6301223
0.6301273
0.6300564
0.6300243
0.6300675
0.6300731
0.6300692
0.630091
0.6301011
0.6300419
0.6300115
0.6300421
0.63007
0.6300661
0.6300613
0.6300781
0.63003
0.6300046
0.6300159
0.6300554
0.6300728
0.6300589
0.6300624
0.6300664
0.6300025
0.6300045
0.63002
0.630059
0.6300721
0.6300501
0.6300609
0.6300022
0.6300025
0.6300035
0.6300216
0.6300544
0.6300457
0.6300438
0.6300021
0.6300023
0.6300011
0.6300061
0.6300218
0.63003
0.6300251
0.6300016
0.6300022
0.6300016
0.6300022
0.6300077
0.6300117
0.6300091
0.630001
0.6300015
0.6300013
0.6300011
0.6300026
0.6300048
0.6300042
0.6300006
0.6300008
0.6300007
0.6300005
0.6300009
0.6300019
0.6300018
0.6300004
0.6300005
0.6300003
0.6300002
0.6300004
0.6300008
0.6300004
0.6300003
0.6300004
0.6300002
0.6300002
0.6300002
0.6300004
0.6300006
0.6300002
0.6300003
0.6300002
0.6300002
0.6300002
0.6300004
0.6300009
0.6300002
0.6300002
0.6300002
0.6300002
0.6300003
0.6300004
0.6300007
0.6300002
0.6300002
0.6300002
0.6300002
0.6300003
0.6300003
0.6300012
0.6300002
0.6300002
0.6300002
0.6300002
0.6300002
0.6300003
0.6300006
0.6300001
0.6300002
0.6300002
0.6300002
0.6300002
0.6300002
0.6300005
0.6300001
0.6300002
0.6300001
0.6300001
0.6300002
0.6300002
0.6300004
0.6300001
0.6300001
0.6300001
0.6300001
0.6300001
0.6300002
0.6300004
0.6300001
0.6300001
0.6300001
0.6300001
0.6300001
0.6300002
0.6300003
0.6300001
0.6300001
0.6300001
0.6300001
0.6300001
0.6300001
0.6300003
0.6300001
0.6300001
0.6300001
0.6300001
0.6300001
0.6300001
0.6300002
0.6300001
0.6300001
0.6300001
0.6300001
0.6300001
0.6300001
0.6300002
0.6300001
0.6300001
0.6300001
0.6300001
0.6300001
0.6300001
0.6300002
0.6300001
0.6300001
0.6300001
0.6300001
0.6300001
0.6300001
0.6300002
0.6300001
0.6300001
0.6300001
0.6300001
0.6300001
0.6300001
0.6300002
0.6300001
0.6300001
0.6300001
0.6300001
0.6300001
0.6300001
0.6300001
0.6300001
0.6300001
0.6300001
0.6300001
0.6300001
0.6300001
0.6300001
0.6300001
0.6300001
0.6300001
0.6300001
0.6300001
0.6300001
0.6300001
0.6300001
0.6300001
0.6300001
0.6300001
0.6300001
0.6300001
0.6300001
0.6300001
0.6300001
0.6300001
0.6300001
0.6300001
0.6300001
0.6300001
0.6300001
0.6300001
0.6300001
0.6300001
0.6300001
0.6300001
0.6300001
0.63
0.6300001
0.6300001
0.6300001
0.6300001
0.6300001
0.6300001
0.63
0.6300001
0.6300001
0.6300001
0.63
0.6300001
0.6300001
0.63
0.6300001
0.6300001
0.6300001
0.63
0.6300001
0.6300001
0.63
0.63
0.6300001
0.6300001
0.63
0.6300001
0.6300001
0.63
0.6300001
0.6300001
0.6300001
0.63
0.6300001
0.6300001
0.63
0.6300001
0.6300001
0.6300001
0.63
0.6300001
0.6300001
0.63
0.6300001
0.6300001
0.6300001
0.6300001
0.6300001
0.6300001
0.6300001
0.6300001
0.6300001
0.6300001
0.6300001
0.6300001
0.6300001
0.6300001
0.6300001
0.6300001
0.6300001
0.6300001
0.6300001
0.6300001
0.6300001
0.6300001
0.6300001
0.6300001
0.6300001
0.6300001
0.6300001
0.6300001
0.6300001
0.6300001
0.6300001
0.6300001
0.6300001
0.6300001
0.6300001
0.6300001
0.6300001
0.6300001
0.6300001
0.6300001
0.6300001
0.6300001
0.6300001
0.6300001
0.6300001
0.6300001
0.63
0.6300001
0.6300001
0.6300001
0.6300001
0.6300001
0.6300001
0.63
0.6300001
0.6300001
0.6300001
0.6300001
0.6300001
0.6300001
0.63
0.6300001
1.124293
1.085999
1.020121
0.922332
0.8229201
0.7469247
0.7027447
0.6905732
0.682648
0.6820759
0.6855334
0.6898989
0.6940903
0.6980193
0.7015584
0.7049245
0.7078918
0.7105502
1.124056
0.9918376
0.9523676
0.8795815
0.7999244
0.7339043
0.6987552
0.6858946
0.6811946
0.6806005
0.6845127
0.6889198
0.6933242
0.6974106
0.7011017
0.7044563
0.7075128
0.7102077
1.123879
0.9259326
0.872299
0.8072546
0.7455514
0.7017208
0.6855722
0.6785015
0.67911
0.6816728
0.6849438
0.688659
0.6931035
0.6972694
0.7010321
0.7043906
0.707446
0.7101692
1.123889
0.9290566
0.8613901
0.7930796
0.7182929
0.6669802
0.6728396
0.6771476
0.6804463
0.6836855
0.6859905
0.6893976
0.6934695
0.6976744
0.7012772
0.7048318
0.7077706
0.7104406
1.124006
0.9388063
0.8820866
0.826621
0.7568449
0.6831093
0.6677631
0.6789289
0.6838131
0.6855031
0.688843
0.6908933
0.6944343
0.6985016
0.7018558
0.7058799
0.7084283
0.7110481
1.123992
0.9025824
0.8773067
0.8386107
0.7828016
0.7130323
0.6768433
0.6726382
0.6883064
0.6886998
0.6918243
0.6938877
0.6961978
0.6999546
0.7028199
0.7071673
0.7094475
0.7119561
1.12402
0.8793442
0.8674319
0.8378171
0.7927053
0.7282033
0.6822363
0.6708212
0.6895596
0.6930051
0.6949163
0.6970655
0.6987859
0.70191
0.7043785
0.7089373
0.7108086
0.7131855
1.124026
0.8735001
0.8621953
0.8352956
0.7962
0.7382988
0.6779333
0.6749621
0.6853939
0.6969152
0.6985057
0.7006088
0.7020624
0.704287
0.7063448
0.7109358
0.7124921
0.714704
1.124039
0.870813
0.8594663
0.832952
0.7975272
0.7455084
0.6804085
0.6765078
0.6815399
0.6989487
0.7026029
0.7042518
0.7054658
0.7071656
0.7086108
0.7132765
0.7144589
0.716494
1.124058
0.8779074
0.8578553
0.8301191
0.7968491
0.7508003
0.6889175
0.6729944
0.6815225
0.7001512
0.7065272
0.7079736
0.7086219
0.7101028
0.7111902
0.7158829
0.7166953
0.7185185
1.12406
0.8778425
0.8546821
0.8248227
0.7942798
0.7541581
0.6999324
0.6782821
0.6858747
0.6994486
0.7093393
0.7120917
0.7119016
0.7131151
0.7140435
0.7187418
0.7191669
0.7207986
1.124055
0.8709505
0.8502731
0.8185352
0.7906848
0.7551462
0.709898
0.6842808
0.6916151
0.698553
0.7134659
0.7149531
0.7146642
0.7166964
0.7170734
0.7218298
0.7218806
0.7232936
1.124062
0.8843803
0.855096
0.8153396
0.7865543
0.7543666
0.7173362
0.6882932
0.6939033
0.7020373
0.7173361
0.7192984
0.7195764
0.7203004
0.7203956
0.7249656
0.7248173
0.726011
1.124066
0.9480216
0.8525725
0.8060546
0.7799883
0.7517883
0.7215657
0.6955834
0.7009906
0.7147822
0.7229025
0.7247733
0.7241925
0.7241133
0.7237642
0.728511
0.7279401
0.7289199
1.123926
0.8447446
0.8200059
0.7874362
0.771084
0.7485587
0.7239247
0.704211
0.7118258
0.7204524
0.728211
0.7296697
0.7284459
0.7281183
0.7273805
0.732249
0.7312635
0.7320319
1.124033
0.8630999
0.8302947
0.7773599
0.7619997
0.7456112
0.7259075
0.711645
0.7184532
0.7235525
0.733004
0.7340728
0.7329842
0.7323612
0.7312215
0.736165
0.7348009
0.7353476
1.124011
0.8378396
0.8003988
0.7841335
0.7551705
0.7423773
0.7278935
0.7178044
0.7238301
0.727696
0.7377683
0.7388309
0.7378718
0.7368457
0.7353146
0.7402647
0.7385373
0.7388669
1.123991
0.8263435
0.7752036
0.7640123
0.7616967
0.7406738
0.7303801
0.7245403
0.7298194
0.7334455
0.7430474
0.7439381
0.742856
0.7415716
0.7397571
0.7445045
0.7424752
0.7425815
1.123968
0.8214858
0.759898
0.7413655
0.7514817
0.7462357
0.7345722
0.7318622
0.7371324
0.7405765
0.7486193
0.749211
0.7480321
0.746411
0.744808
0.7487077
0.7466502
0.7465078
1.123946
0.8154882
0.7543249
0.7366577
0.7405498
0.7526149
0.7431441
0.7406601
0.7454275
0.7485313
0.7545096
0.7547763
0.7534494
0.7515757
0.7518135
0.7521914
0.7510255
0.7506638
1.123923
0.8149263
0.7563485
0.7426199
0.7394486
0.7502513
0.758815
0.7518962
0.754921
0.7567958
0.7608729
0.7607213
0.7592422
0.7577501
0.7571329
0.7560008
0.7558044
0.7550601
1.123899
0.8216009
0.7702897
0.7574994
0.7456057
0.7592989
0.7591029
0.766006
0.7651238
0.7651876
0.7676438
0.7670118
0.7652888
0.7635216
0.7626629
0.7605574
0.760617
0.7596
1.123871
0.8266179
0.7828492
0.7785634
0.7546467
0.7708035
0.7754116
0.7742092
0.7751192
0.7734137
0.7747334
0.7736306
0.7715529
0.769689
0.7683112
0.7660991
0.7657242
0.7644441
1.12384
0.8311909
0.7973968
0.8006203
0.7687284
0.7840788
0.7888917
0.7881116
0.7862699
0.7819612
0.782006
0.7808194
0.7782203
0.7758321
0.7744484
0.7718444
0.7711329
0.7695959
1.123805
0.8390608
0.815721
0.8217662
0.7841467
0.7986466
0.8032995
0.7998026
0.7965441
0.7931839
0.7893027
0.7881443
0.7851787
0.7816658
0.7824097
0.7781731
0.7768088
0.7750055
1.123768
0.8470457
0.8313524
0.8402696
0.8007286
0.8133929
0.8166759
0.8096749
0.8096282
0.8035306
0.7992779
0.7949462
0.7922798
0.782238
0.7878048
0.7833776
0.7826501
0.7807836
1.123725
0.8561005
0.8470715
0.8566402
0.8194275
0.8297051
0.8272464
0.825125
0.8229372
0.8147626
0.8079711
0.8035111
0.799009
0.7938953
0.7995996
0.7915652
0.788973
0.7862405
1.123678
0.8664712
0.860101
0.8692953
0.8459673
0.8457644
0.8417296
0.8403809
0.8358963
0.8258655
0.8175963
0.8119658
0.8065327
0.8015465
0.8033827
0.7980995
0.7955269
0.7930931
1.123625
0.8805472
0.870437
0.8732548
0.8839455
0.8592151
0.8582302
0.8568931
0.8465719
0.8366423
0.8274662
0.8209692
0.8144669
0.8121784
0.8087272
0.8051015
0.8025874
0.7992344
1.123565
0.9007366
0.8866786
0.8516312
0.9353115
0.8647631
0.8725567
0.87582
0.8516662
0.8482169
0.8377976
0.8301079
0.8232536
0.8195333
0.8150765
0.8125726
0.8089912
0.7963558
1.123497
0.9281068
0.9327515
0.8312774
0.9454712
0.873927
0.8847817
0.8910961
0.8497794
0.8624258
0.8486505
0.8392646
0.8317624
0.8287339
0.8233224
0.8206554
0.8170506
0.8131177
1.123417
0.9527037
0.9685145
0.9086647
0.9110677
0.9233273
0.9045503
0.9037441
0.8948456
0.8704825
0.8577371
0.8480895
0.8389981
0.8402412
0.8318259
0.82874
0.8244433
0.8221089
1.123317
0.9931008
0.9913539
0.980768
0.9288847
0.938252
0.9233554
0.9132297
0.8957229
0.8803089
0.8654106
0.8561778
0.8452735
0.8456397
0.8414491
0.8374975
0.8277823
0.8350647
1.123072
1.002377
0.9758845
1.014685
0.9616974
0.9514786
0.9374157
0.9202875
0.9113745
0.889741
0.8713103
0.8634116
0.8557611
0.8581222
0.8513199
0.8472897
0.8444205
0.8418078
1.122867
1.039192
1.004015
1.025427
1.011847
0.9071001
0.9466236
0.9444128
0.8936696
0.8932613
0.8760793
0.8715192
0.8726993
0.8639308
0.8603963
0.856661
0.858521
0.8434546
1.122419
1.057894
1.041258
1.031727
1.021163
0.9430218
0.9514853
0.8975708
0.907255
0.903429
0.8880151
0.8806031
0.8782617
0.8737865
0.8705045
0.8547824
0.8609545
0.8524508
1.12204
1.084479
1.056255
1.029644
1.004795
0.9747231
0.9533693
0.9104897
0.9195157
0.9075718
0.8978055
0.8909232
0.8955562
0.8835166
0.8811945
0.881415
0.8813556
0.8673556
1.119689
1.10812
1.059811
1.035628
1.012969
0.9830575
0.9524894
0.9238142
0.9168703
0.91058
0.9067997
0.9012121
0.9023666
0.8991843
0.8916389
0.8980199
0.878274
0.8766471
1.117683
1.115829
1.02297
1.046037
1.017287
0.9748261
0.9424183
0.9230286
0.9200488
0.9180569
0.9193033
0.9214394
0.917327
0.9136884
0.9041568
0.9028206
0.8940059
0.8874417
0.8046438
1.114027
1.083619
1.039188
0.9842761
0.9420271
0.9239998
0.9236455
0.9268711
0.9306964
0.931801
0.9371624
0.9313793
0.9254704
0.9228841
0.9168255
0.9079685
0.8995911
0.6368761
1.120343
1.060782
1.040304
0.9777563
0.917988
0.9142459
0.9315664
0.9391776
0.9488553
0.9473002
0.9563437
0.9444126
0.9319871
0.9433048
0.9312128
0.9239003
0.9155015
0.6324622
1.12209
1.037066
0.9899283
0.9478171
0.8984707
0.9334915
0.9434969
0.9604534
0.9623961
0.9619744
0.9660934
0.9593256
0.9533261
0.9576552
0.9454645
0.9368774
0.9254182
0.6302379
1.123038
1.056766
0.9739731
0.9122225
0.9113565
0.956854
0.9756722
0.9765219
0.9805314
0.9889741
0.9763398
0.9738157
0.9840063
0.9657274
0.9580098
0.945345
0.9497191
0.6301117
1.122776
1.026616
0.9414566
0.9101108
0.9500639
0.9813237
0.9911557
0.9966686
0.9936703
1.004648
0.9924111
0.9948263
0.9845525
0.9782466
0.9672872
0.9704505
0.9480227
0.6302245
1.123748
1.03109
1.010974
0.8614329
0.9876188
0.9923721
1.006834
1.014384
1.005989
1.015089
1.004741
1.015797
0.9917959
0.9858608
0.9918014
0.9703274
0.9677904
0.6301971
1.123818
1.080558
1.046334
0.9133135
1.008947
1.012596
1.025619
1.032221
1.031911
1.030643
1.024026
1.01899
1.011152
1.012979
0.9855881
0.9897569
0.9767845
0.6301117
1.12344
1.106018
1.021925
1.026949
1.020019
1.039877
1.044574
1.047244
1.042207
1.04156
1.039115
1.029167
1.027702
1.008217
1.018848
0.9893015
0.9917959
0.6303806
1.121123
1.091524
1.072429
1.057364
1.054531
1.058333
1.060844
1.059304
1.057634
1.056341
1.056267
1.04528
1.029938
1.037148
1.006873
1.019779
0.9859069
0.6311212
1.1102
1.041426
1.097151
1.081664
1.077263
1.073363
1.07639
1.07873
1.067244
1.072071
1.061194
1.052067
1.055867
1.031319
1.037721
1.009808
1.01723
0.6300213
1.116849
1.114646
1.111962
1.094218
1.083984
1.079355
1.070135
1.068762
1.056714
1.046294
1.040012
1.032654
1.006824
0.6300824
0.639979
1.095388
1.086206
1.075614
1.066552
1.066021
1.036989
1.039391
1.024413
0.6301186
1.097213
1.083343
1.078654
1.063142
1.054767
1.046106
1.027726
1.081652
1.083858
1.07432
1.059717
1.051882
1.038182
1.081688
1.076984
1.069706
1.05095
1.038975
1.091629
1.083442
1.068356
1.058303
1.045234
1.093414
1.083129
1.073306
1.060361
1.047594
1.094721
1.085071
1.073744
1.061563
1.048776
1.094576
1.085179
1.07251
1.060726
1.048611
1.094469
1.084869
1.073315
1.057128
1.04758
1.095411
1.093387
1.07864
1.070795
1.057626
1.042346
0.6300809
1.086148
1.087715
1.076537
1.065234
1.053797
1.042063
0.6300886
0.6810885
1.087464
1.087938
1.08196
1.068447
1.060869
1.046238
1.031582
0.6301786
1.114414
1.115832
1.100722
1.088626
1.091256
1.081159
1.071135
1.068975
1.053536
1.047946
1.031127
0.6313883
1.100729
1.098585
1.096417
1.099455
1.097353
1.097278
1.097522
1.091238
1.090018
1.085128
1.083546
1.077655
1.064939
1.055675
1.049565
1.037441
1.024286
0.6310214
1.11578
1.094084
1.105971
1.097708
1.092439
1.090484
1.089436
1.085857
1.081845
1.081422
1.071525
1.065119
1.064036
1.04725
1.043688
1.019402
1.022474
0.6303237
1.120885
1.110037
1.097303
1.090051
1.088282
1.083384
1.080685
1.079761
1.074795
1.073207
1.06272
1.059556
1.045006
1.046595
1.024378
1.026452
1.003506
0.6302756
1.122708
1.107101
1.100651
1.091528
1.081585
1.077441
1.073822
1.069675
1.065858
1.061192
1.059928
1.047221
1.04391
1.027127
1.026008
1.007032
1.006527
0.6301324
1.122918
1.093466
1.095772
1.07911
1.069515
1.069407
1.064946
1.060619
1.055148
1.042373
1.047293
1.038553
1.033591
1.021214
1.010989
1.008322
0.9812931
0.6301035
1.121492
1.066314
1.07871
1.070174
1.062817
1.060485
1.055363
1.050542
1.049533
1.048352
1.034591
1.023441
1.022718
1.012212
1.004388
0.991058
0.987031
0.6300923
1.121809
1.064614
1.071951
1.062491
1.05638
1.049777
1.046131
1.04275
1.037671
1.030727
1.029408
1.019611
1.011261
1.005679
0.9918124
0.9834982
0.9700842
0.6301209
1.12195
1.073091
1.045713
1.045734
1.050554
1.044496
1.037995
1.033176
1.028625
1.019665
1.010147
1.005017
0.987987
0.9881201
0.9818586
0.9711533
0.9625834
0.6321989
1.119484
1.02715
1.047435
1.041794
1.035232
1.035607
1.029002
1.023415
1.017889
1.012882
1.007587
0.9986549
0.9915378
0.9757084
0.9708036
0.9612715
0.9520645
0.6491439
1.116942
1.08635
1.06186
1.029116
1.019507
1.023335
1.018975
1.013083
1.007288
1.000551
0.9871481
0.9843744
0.9795225
0.9687833
0.9597031
0.95253
0.9445452
1.118879
1.102165
1.045096
0.9976466
0.9900248
0.9960027
1.006228
1.006288
1.001809
0.9963586
0.9903172
0.9799376
0.9769857
0.967132
0.9629354
0.9522969
0.9426102
0.9344033
1.119205
1.096032
0.9017314
0.9779919
0.9731643
0.9790113
0.9865355
0.9915733
0.9860376
0.9832176
0.9776067
0.9683103
0.9630727
0.9557005
0.950999
0.9473675
0.9352583
0.9242838
1.122475
1.048764
0.9779253
0.8657862
0.9015634
0.9570732
0.9613648
0.9813881
0.9643936
0.9669997
0.9642577
0.9605299
0.9596971
0.9477523
0.938344
0.9225883
0.9286903
0.9153968
1.12274
1.004443
0.9673208
0.9525104
0.8098049
0.955458
0.9236241
0.9650379
0.9560093
0.9510722
0.9515514
0.9478707
0.9371756
0.9333545
0.9259217
0.9122361
0.9036937
0.9024456
1.123149
0.9852079
0.9581291
0.9056202
0.8368234
0.9437584
0.91552
0.9137436
0.9393299
0.9355829
0.9401819
0.9372315
0.9301991
0.9260319
0.9166534
0.9108236
0.9074708
0.8923082
1.123645
1.053553
0.9708648
0.9687992
1.010505
0.8882332
0.8923217
0.9028293
0.9147859
0.9144053
0.9216846
0.921544
0.9120276
0.911528
0.9045573
0.8987441
0.8903866
0.8893313
1.123508
1.007059
0.9710136
1.017158
0.9470019
0.8944187
0.892627
0.8892338
0.9045671
0.9060408
0.9072257
0.9073877
0.902337
0.8986302
0.8933218
0.8865431
0.8755162
0.8717848
1.123528
0.9721049
0.9624492
0.9711626
0.9525382
0.8873731
0.8920511
0.8858291
0.8755024
0.8909124
0.8936289
0.8943635
0.891911
0.8941207
0.8830813
0.8765487
0.8702132
0.8621204
1.123569
0.9701793
0.9590048
0.9560041
0.8458197
0.8960927
0.8885557
0.8660326
0.9069901
0.8837538
0.8826966
0.8828588
0.8821335
0.8767798
0.8721554
0.8664226
0.8609719
0.8541701
1.123615
0.9645142
0.942818
0.9205285
0.8495802
0.9143602
0.8847621
0.8604464
0.8737779
0.8737724
0.8724446
0.8719135
0.8710217
0.8667646
0.8624385
0.8568366
0.8507521
0.840349
1.123659
0.955425
0.9220512
0.8858291
0.8719459
0.8953973
0.8767992
0.8597584
0.8591108
0.8614519
0.8613873
0.86123
0.8610615
0.8563148
0.8547879
0.8476805
0.8425956
0.838963
1.123698
0.9454809
0.9074606
0.870055
0.8708194
0.8871664
0.8705018
0.8542401
0.8484335
0.8504516
0.85071
0.85095
0.85025
0.843527
0.8458681
0.8385896
0.834183
0.8305549
1.123733
0.9356334
0.8956563
0.8570993
0.8656142
0.8805402
0.8662278
0.8477315
0.8393924
0.8405111
0.8408167
0.8412813
0.8400695
0.8336616
0.8376437
0.8299761
0.8257994
0.8208356
1.123764
0.926162
0.8861147
0.8455855
0.8593131
0.8737976
0.8610584
0.841609
0.8319006
0.8313956
0.8314099
0.8324767
0.8301581
0.8237889
0.8234807
0.8209312
0.8180272
0.8141121
1.123792
0.918776
0.8784035
0.835539
0.8539583
0.8669585
0.8555499
0.8375305
0.8248943
0.8226039
0.8239539
0.8225128
0.8212318
0.8194832
0.8227972
0.8145523
0.8106814
0.806887
1.123817
0.9102325
0.8702793
0.8266954
0.8494763
0.8600209
0.8497039
0.8329929
0.8173741
0.8163484
0.8139089
0.8134778
0.812729
0.8120792
0.8101381
0.80626
0.8033829
0.7999827
1.123839
0.9045767
0.8639404
0.8197547
0.8455475
0.8532867
0.8441264
0.8277462
0.8139946
0.8057428
0.805402
0.8050758
0.8045269
0.8039243
0.8020154
0.7989103
0.7964631
0.7933695
1.123858
0.8992408
0.8578179
0.8142832
0.8421192
0.8471812
0.8383697
0.824382
0.8069982
0.7988537
0.7977473
0.796927
0.7966937
0.7963601
0.7947975
0.7922629
0.7898761
0.7872007
1.123875
0.8929619
0.8505867
0.8118251
0.8387388
0.8395706
0.8348146
0.8190861
0.8042721
0.7936981
0.7901723
0.7891241
0.7890658
0.7888475
0.7878219
0.7857001
0.7835121
0.7813743
1.123889
0.8843092
0.8427046
0.8107976
0.8289498
0.8392086
0.8293084
0.8171349
0.7988928
0.7890706
0.7828144
0.7818028
0.7817142
0.7819535
0.7814115
0.7812557
0.7777693
0.7757251
1.123902
0.8763038
0.8365184
0.8014235
0.8342148
0.8362077
0.8289185
0.8102896
0.7936733
0.7850375
0.7763999
0.7750328
0.7750835
0.7752336
0.7720946
0.7756382
0.7718345