/*--------------------------------*- C++ -*----------------------------------*\
| =========                 |                                                 |
| \\      /  F ield         | OpenFOAM: The Open Source CFD Toolbox           |
|  \\    /   O peration     | Version:  2206                                  |
|   \\  /    A nd           | Website:  www.openfoam.com                      |
|    \\/     M anipulation  |                                                 |
\*---------------------------------------------------------------------------*/
FoamFile
{
    version     2.0;
    format      ascii;
    arch        "LSB;label=32;scalar=64";
    class       volScalarField;
    location    "2";
    object      nuEffb;
}
// * * * * * * * * * * * * * * * * * * * * * * * * * * * * * * * * * * * * * //

dimensions      [0 2 -1 0 0 0 0];

internalField   nonuniform List<scalar> 
13078
(
1.688463e-05
3.436198e-05
5.087758e-05
5.164887e-05
5.098871e-05
5.007288e-05
4.903075e-05
3.738607e-05
5.067442e-05
5.250262e-05
5.187337e-05
5.104124e-05
5.010752e-05
4.905856e-05
5.338117e-05
5.356506e-05
5.287895e-05
5.202502e-05
5.112874e-05
5.016306e-05
4.909937e-05
5.496572e-05
5.393923e-05
5.30337e-05
5.214573e-05
5.121381e-05
5.022246e-05
4.914495e-05
5.50988e-05
5.405045e-05
5.313126e-05
5.221851e-05
5.128411e-05
5.027872e-05
4.919008e-05
5.504096e-05
5.406726e-05
5.317609e-05
5.226572e-05
5.132278e-05
5.032541e-05
4.923246e-05
5.497814e-05
5.405507e-05
5.319417e-05
5.229403e-05
5.134978e-05
5.034845e-05
4.926854e-05
5.493264e-05
5.403526e-05
5.319965e-05
5.230797e-05
5.136518e-05
5.036463e-05
4.92837e-05
5.490026e-05
5.40167e-05
5.319499e-05
5.231162e-05
5.137326e-05
5.037501e-05
4.929485e-05
5.487696e-05
5.400119e-05
5.318814e-05
5.231151e-05
5.137719e-05
5.038155e-05
4.930264e-05
5.485962e-05
5.398864e-05
5.318135e-05
5.230959e-05
5.137873e-05
5.038565e-05
4.930844e-05
5.484581e-05
5.397884e-05
5.317517e-05
5.230691e-05
5.137895e-05
5.038828e-05
4.931276e-05
5.483481e-05
5.39706e-05
5.316963e-05
5.230416e-05
5.137851e-05
5.039e-05
4.931621e-05
5.482551e-05
5.396367e-05
5.316478e-05
5.23017e-05
5.137816e-05
5.039129e-05
4.93192e-05
5.481751e-05
5.395767e-05
5.31608e-05
5.23046e-05
5.13847e-05
5.039322e-05
4.93219e-05
5.481027e-05
5.395235e-05
5.315742e-05
5.230875e-05
5.138921e-05
5.039472e-05
4.93246e-05
5.480341e-05
5.394719e-05
5.31538e-05
5.230738e-05
5.13892e-05
5.03959e-05
4.932731e-05
5.479669e-05
5.394237e-05
5.315039e-05
5.230578e-05
5.138913e-05
5.039719e-05
4.933014e-05
5.478996e-05
5.393753e-05
5.31471e-05
5.230417e-05
5.138934e-05
5.039919e-05
4.933297e-05
5.478302e-05
5.393272e-05
5.314394e-05
5.230329e-05
5.139719e-05
5.041128e-05
4.933719e-05
5.477578e-05
5.392754e-05
5.314061e-05
5.230244e-05
5.140643e-05
5.04204e-05
4.934149e-05
5.476782e-05
5.392203e-05
5.313687e-05
5.23007e-05
5.140791e-05
5.04232e-05
4.934519e-05
5.475921e-05
5.391611e-05
5.313297e-05
5.22991e-05
5.140852e-05
5.042646e-05
4.93504e-05
5.474965e-05
5.390941e-05
5.312862e-05
5.229738e-05
5.141026e-05
5.043996e-05
4.93697e-05
5.473886e-05
5.390197e-05
5.312367e-05
5.229546e-05
5.141195e-05
5.045559e-05
4.93849e-05
5.472668e-05
5.38935e-05
5.311824e-05
5.229325e-05
5.141285e-05
5.046145e-05
4.939251e-05
5.471252e-05
5.38837e-05
5.311191e-05
5.229068e-05
5.141386e-05
5.046619e-05
4.940124e-05
5.469642e-05
5.387255e-05
5.310465e-05
5.22876e-05
5.141508e-05
5.047227e-05
4.942422e-05
5.467773e-05
5.385945e-05
5.309621e-05
5.228392e-05
5.141611e-05
5.047836e-05
4.945008e-05
5.465883e-05
5.384704e-05
5.308718e-05
5.227958e-05
5.141652e-05
5.048315e-05
4.94625e-05
5.463608e-05
5.383161e-05
5.30764e-05
5.227422e-05
5.14164e-05
5.048782e-05
4.947324e-05
5.460903e-05
5.381755e-05
5.307107e-05
5.226927e-05
5.141526e-05
5.049145e-05
4.948242e-05
5.45792e-05
5.380203e-05
5.306803e-05
5.227394e-05
5.141699e-05
5.049666e-05
4.949093e-05
5.454794e-05
5.378539e-05
5.306684e-05
5.227784e-05
5.142719e-05
5.051412e-05
4.951096e-05
5.451986e-05
5.377817e-05
5.308206e-05
5.232393e-05
5.149108e-05
5.057269e-05
4.956281e-05
5.450518e-05
5.380287e-05
5.31524e-05
5.244448e-05
5.163933e-05
5.071223e-05
4.966059e-05
5.452381e-05
5.390553e-05
5.333093e-05
5.266323e-05
5.186982e-05
5.087053e-05
4.97254e-05
5.461576e-05
5.413704e-05
5.362748e-05
5.294609e-05
5.209231e-05
5.09894e-05
4.964567e-05
5.483278e-05
5.448391e-05
5.397654e-05
5.321617e-05
5.222894e-05
5.100252e-05
4.937917e-05
5.521569e-05
5.489554e-05
5.430857e-05
5.342479e-05
5.22667e-05
5.085704e-05
4.904562e-05
5.574971e-05
5.530945e-05
5.464646e-05
5.35758e-05
5.225761e-05
5.070079e-05
4.884189e-05
5.642014e-05
5.569781e-05
5.494171e-05
5.377575e-05
5.232179e-05
5.065943e-05
4.864565e-05
5.715531e-05
5.605938e-05
5.52e-05
5.401432e-05
5.258588e-05
5.067707e-05
4.845431e-05
5.78451e-05
5.62702e-05
5.544712e-05
5.428787e-05
5.272125e-05
5.063843e-05
4.819753e-05
5.828521e-05
5.632928e-05
5.558273e-05
5.436038e-05
5.265215e-05
5.04869e-05
4.814536e-05
5.833631e-05
5.62732e-05
5.553311e-05
5.412914e-05
5.23478e-05
5.028492e-05
4.809509e-05
5.820355e-05
5.620546e-05
5.522872e-05
5.368563e-05
5.187543e-05
4.989157e-05
4.794712e-05
5.815142e-05
5.609321e-05
5.489738e-05
5.324366e-05
5.143602e-05
4.947804e-05
4.749087e-05
5.801361e-05
5.588393e-05
5.465673e-05
5.286038e-05
5.10442e-05
4.915243e-05
4.72262e-05
5.772966e-05
5.566177e-05
5.442807e-05
5.252699e-05
5.069058e-05
4.884264e-05
4.733047e-05
5.731222e-05
5.550791e-05
5.42305e-05
5.217752e-05
5.04115e-05
4.879661e-05
4.755203e-05
5.681525e-05
5.528169e-05
5.401135e-05
5.20306e-05
5.044823e-05
4.915105e-05
4.813383e-05
5.631686e-05
5.497309e-05
5.365005e-05
5.181265e-05
5.045858e-05
4.937279e-05
4.817161e-05
5.590787e-05
5.468446e-05
5.334539e-05
5.153305e-05
5.020544e-05
4.899023e-05
4.783037e-05
5.559053e-05
5.442901e-05
5.306519e-05
5.128005e-05
4.991047e-05
4.857856e-05
4.725579e-05
5.535252e-05
5.422852e-05
5.285614e-05
5.109704e-05
4.965753e-05
4.82205e-05
4.675702e-05
5.528275e-05
5.409276e-05
5.269569e-05
5.090576e-05
4.939866e-05
4.792225e-05
4.650827e-05
5.54215e-05
5.411292e-05
5.269616e-05
5.083778e-05
4.92537e-05
4.779129e-05
4.650431e-05
5.562027e-05
5.419394e-05
5.278291e-05
5.08595e-05
4.912832e-05
4.75927e-05
4.641673e-05
5.586297e-05
5.427862e-05
5.288019e-05
5.092415e-05
4.907111e-05
4.736812e-05
4.582121e-05
5.617799e-05
5.441017e-05
5.303895e-05
5.099137e-05
4.909161e-05
4.722074e-05
4.547216e-05
5.650966e-05
5.453002e-05
5.324189e-05
5.12358e-05
4.932965e-05
4.735208e-05
4.561843e-05
5.676847e-05
5.466654e-05
5.341172e-05
5.154075e-05
4.964642e-05
4.767767e-05
4.595222e-05
5.691749e-05
5.490668e-05
5.369188e-05
5.190969e-05
5.002795e-05
4.804067e-05
4.617753e-05
5.698614e-05
5.522986e-05
5.408518e-05
5.235675e-05
5.04101e-05
4.832563e-05
4.631952e-05
5.709059e-05
5.548623e-05
5.449196e-05
5.278917e-05
5.073249e-05
4.848326e-05
4.649235e-05
5.72012e-05
5.563528e-05
5.474335e-05
5.313438e-05
5.105992e-05
4.881543e-05
4.667579e-05
5.70485e-05
5.563294e-05
5.473303e-05
5.333144e-05
5.141259e-05
4.916428e-05
4.695353e-05
5.659709e-05
5.550678e-05
5.461493e-05
5.337737e-05
5.16664e-05
4.956733e-05
4.728591e-05
5.605281e-05
5.529327e-05
5.445194e-05
5.327419e-05
5.179795e-05
4.990144e-05
4.774031e-05
5.552275e-05
5.501012e-05
5.427362e-05
5.319284e-05
5.184598e-05
5.019905e-05
4.821072e-05
5.507252e-05
5.470984e-05
5.408267e-05
5.312407e-05
5.192589e-05
5.047453e-05
4.875671e-05
5.474949e-05
5.438003e-05
5.383129e-05
5.303461e-05
5.200389e-05
5.074711e-05
4.91156e-05
5.45574e-05
5.407906e-05
5.355461e-05
5.284788e-05
5.196739e-05
5.088971e-05
4.945728e-05
5.447847e-05
5.387178e-05
5.329821e-05
5.262286e-05
5.1822e-05
5.083433e-05
4.964123e-05
5.446477e-05
5.377427e-05
5.312969e-05
5.242759e-05
5.162972e-05
5.069206e-05
4.96329e-05
5.44828e-05
5.374973e-05
5.305931e-05
5.231756e-05
5.149039e-05
5.05732e-05
4.955693e-05
5.451503e-05
5.375895e-05
5.304769e-05
5.227372e-05
5.142954e-05
5.050763e-05
4.950534e-05
5.454986e-05
5.377899e-05
5.305508e-05
5.226103e-05
5.140562e-05
5.048954e-05
4.948747e-05
5.45832e-05
5.380107e-05
5.306345e-05
5.226648e-05
5.140821e-05
5.048732e-05
4.948215e-05
5.46146e-05
5.381865e-05
5.306898e-05
5.226543e-05
5.141066e-05
5.048665e-05
4.947733e-05
5.46418e-05
5.383409e-05
5.307599e-05
5.227233e-05
5.141355e-05
5.048451e-05
4.94697e-05
5.466415e-05
5.384994e-05
5.308801e-05
5.227895e-05
5.141514e-05
5.048114e-05
4.946028e-05
5.468255e-05
5.386255e-05
5.309766e-05
5.228425e-05
5.141563e-05
5.047745e-05
4.944925e-05
5.47007e-05
5.387566e-05
5.310649e-05
5.228866e-05
5.141538e-05
5.047225e-05
4.942401e-05
5.471638e-05
5.388666e-05
5.311397e-05
5.229197e-05
5.141478e-05
5.046686e-05
4.940178e-05
5.473006e-05
5.389629e-05
5.312037e-05
5.229468e-05
5.141408e-05
5.046249e-05
4.939344e-05
5.47417e-05
5.39044e-05
5.312565e-05
5.229694e-05
5.141328e-05
5.045686e-05
4.938606e-05
5.475213e-05
5.391152e-05
5.313031e-05
5.229901e-05
5.141161e-05
5.044102e-05
4.937071e-05
5.476128e-05
5.391795e-05
5.313453e-05
5.230057e-05
5.14099e-05
5.042778e-05
4.935155e-05
5.476951e-05
5.392356e-05
5.313825e-05
5.2302e-05
5.14092e-05
5.042435e-05
4.934641e-05
5.477695e-05
5.392876e-05
5.314177e-05
5.230342e-05
5.140742e-05
5.042146e-05
4.934255e-05
5.47838e-05
5.393356e-05
5.31447e-05
5.230394e-05
5.139774e-05
5.04119e-05
4.933798e-05
5.479026e-05
5.393798e-05
5.31475e-05
5.230448e-05
5.138977e-05
5.039966e-05
4.933354e-05
5.479642e-05
5.394227e-05
5.315026e-05
5.230585e-05
5.138938e-05
5.039752e-05
4.933068e-05
5.480243e-05
5.394648e-05
5.315323e-05
5.230711e-05
5.138927e-05
5.039625e-05
4.932792e-05
5.480854e-05
5.395093e-05
5.315637e-05
5.230812e-05
5.13891e-05
5.039503e-05
4.932517e-05
5.481476e-05
5.39554e-05
5.315915e-05
5.23035e-05
5.138425e-05
5.039341e-05
4.932247e-05
5.482142e-05
5.396036e-05
5.316236e-05
5.230034e-05
5.137765e-05
5.039149e-05
4.931997e-05
5.482905e-05
5.396604e-05
5.316641e-05
5.230251e-05
5.137805e-05
5.039048e-05
4.931738e-05
5.483781e-05
5.39729e-05
5.317116e-05
5.230506e-05
5.137874e-05
5.038936e-05
4.931469e-05
5.484861e-05
5.398091e-05
5.317653e-05
5.230774e-05
5.137915e-05
5.038775e-05
4.931148e-05
5.486204e-05
5.399062e-05
5.31826e-05
5.231027e-05
5.137893e-05
5.038528e-05
4.93073e-05
5.487908e-05
5.400283e-05
5.318926e-05
5.231212e-05
5.137751e-05
5.038134e-05
4.930175e-05
5.490188e-05
5.401825e-05
5.319565e-05
5.231237e-05
5.137382e-05
5.037486e-05
4.929378e-05
5.493368e-05
5.403659e-05
5.319643e-05
5.230604e-05
5.136551e-05
5.03644e-05
4.928262e-05
5.497875e-05
5.405625e-05
5.319261e-05
5.229151e-05
5.134957e-05
5.034873e-05
4.925136e-05
5.504079e-05
5.406928e-05
5.317838e-05
5.226718e-05
5.132539e-05
5.031089e-05
4.921385e-05
5.509907e-05
5.405342e-05
5.313455e-05
5.22247e-05
5.127243e-05
5.026319e-05
4.917225e-05
5.497344e-05
5.394508e-05
5.304835e-05
5.213764e-05
5.12019e-05
5.020835e-05
4.912708e-05
5.351098e-05
5.361539e-05
5.287429e-05
5.201862e-05
5.111947e-05
5.01492e-05
4.908121e-05
3.825487e-05
5.124369e-05
5.264675e-05
5.187604e-05
5.102581e-05
5.008872e-05
4.903706e-05
4.78419e-05
4.642091e-05
4.463953e-05
4.305612e-05
4.047511e-05
3.6935e-05
3.058305e-05
4.786957e-05
4.645321e-05
4.467722e-05
4.309709e-05
4.052006e-05
3.698815e-05
3.08116e-05
4.790471e-05
4.648909e-05
4.47199e-05
4.257108e-05
4.05633e-05
3.703943e-05
3.093247e-05
4.79432e-05
4.652646e-05
4.475733e-05
4.319002e-05
4.060891e-05
3.709127e-05
3.104364e-05
4.798201e-05
4.65651e-05
4.479923e-05
4.32363e-05
4.065505e-05
3.714326e-05
3.112269e-05
4.801983e-05
4.660395e-05
4.484167e-05
4.328279e-05
4.070069e-05
3.719498e-05
3.11974e-05
4.805573e-05
4.66418e-05
4.488345e-05
4.33271e-05
4.071443e-05
3.724665e-05
3.126972e-05
4.808714e-05
4.667848e-05
4.492431e-05
4.337031e-05
4.072719e-05
3.729797e-05
3.133686e-05
4.80985e-05
4.671143e-05
4.496294e-05
4.341368e-05
4.076414e-05
3.73442e-05
3.140374e-05
4.810714e-05
4.67219e-05
4.499838e-05
4.34566e-05
4.080033e-05
3.739049e-05
3.146765e-05
4.81139e-05
4.672992e-05
4.500897e-05
4.349788e-05
4.083647e-05
3.743682e-05
3.15295e-05
4.811965e-05
4.673716e-05
4.501724e-05
4.350728e-05
4.087278e-05
3.748335e-05
3.158983e-05
4.812457e-05
4.674382e-05
4.502537e-05
4.351598e-05
4.087952e-05
3.753111e-05
3.164802e-05
4.812911e-05
4.675017e-05
4.503346e-05
4.352494e-05
4.088709e-05
3.754056e-05
3.169719e-05
4.813344e-05
4.675662e-05
4.50417e-05
4.353412e-05
4.089517e-05
3.755191e-05
3.167932e-05
4.813784e-05
4.676318e-05
4.505012e-05
4.354371e-05
4.090395e-05
3.756425e-05
3.166097e-05
4.814225e-05
4.676992e-05
4.505878e-05
4.355409e-05
4.09178e-05
3.757722e-05
3.164831e-05
4.81468e-05
4.67767e-05
4.506804e-05
4.356926e-05
4.102216e-05
3.759132e-05
3.162668e-05
4.815152e-05
4.67835e-05
4.507756e-05
4.358066e-05
4.103966e-05
3.760585e-05
3.160805e-05
4.815661e-05
4.679072e-05
4.508759e-05
4.359265e-05
4.105313e-05
3.762127e-05
3.158555e-05
4.816191e-05
4.679834e-05
4.509793e-05
4.360533e-05
4.106723e-05
3.76374e-05
3.155223e-05
4.816775e-05
4.68064e-05
4.510852e-05
4.361888e-05
4.108205e-05
3.765437e-05
3.152629e-05
4.817386e-05
4.681519e-05
4.51203e-05
4.3631e-05
4.110154e-05
3.767206e-05
3.149881e-05
4.818235e-05
4.68249e-05
4.513474e-05
4.309905e-05
4.120894e-05
3.769935e-05
3.147192e-05
4.819108e-05
4.683485e-05
4.514679e-05
4.366059e-05
4.126156e-05
3.772188e-05
3.144509e-05
4.819956e-05
4.684583e-05
4.516127e-05
4.368164e-05
4.128423e-05
3.774354e-05
3.141695e-05
4.821152e-05
4.685976e-05
4.517874e-05
4.370205e-05
4.130752e-05
3.776916e-05
3.138426e-05
4.824343e-05
4.687579e-05
4.519572e-05
4.372326e-05
4.133875e-05
3.79553e-05
3.135346e-05
4.826493e-05
4.725935e-05
4.565827e-05
4.373793e-05
4.136899e-05
3.803024e-05
3.132984e-05
4.828177e-05
4.727501e-05
4.568106e-05
4.376385e-05
4.139956e-05
3.806413e-05
3.130718e-05
4.832582e-05
4.732458e-05
4.570344e-05
4.379157e-05
4.143446e-05
3.82063e-05
3.129289e-05
4.83547e-05
4.737191e-05
4.572716e-05
4.382369e-05
4.147473e-05
3.837177e-05
3.129786e-05
4.836998e-05
4.744595e-05
4.575805e-05
4.385816e-05
4.152091e-05
3.843518e-05
3.138331e-05
4.838633e-05
4.747459e-05
4.581406e-05
4.388752e-05
4.157053e-05
3.854134e-05
3.236003e-05
4.841563e-05
4.750079e-05
4.586314e-05
4.389959e-05
4.160894e-05
3.872529e-05
3.314155e-05
4.843048e-05
4.751751e-05
4.589389e-05
4.383361e-05
4.159428e-05
3.904541e-05
3.528756e-05
4.831571e-05
4.739226e-05
4.562574e-05
4.357435e-05
4.147478e-05
3.93138e-05
3.541376e-05
4.797201e-05
4.696254e-05
4.512543e-05
4.335788e-05
4.120707e-05
3.884841e-05
3.578451e-05
4.742081e-05
4.626635e-05
4.443974e-05
4.282184e-05
4.054623e-05
3.86524e-05
3.634524e-05
4.680409e-05
4.547589e-05
4.350814e-05
4.148245e-05
4.059688e-05
3.930058e-05
3.648332e-05
4.627265e-05
4.464693e-05
4.23516e-05
4.09482e-05
4.102915e-05
3.949531e-05
3.53878e-05
4.60819e-05
4.406136e-05
4.178539e-05
4.135672e-05
4.124412e-05
3.966119e-05
3.481688e-05
4.580734e-05
4.370232e-05
4.174783e-05
4.21489e-05
4.128675e-05
3.949625e-05
3.422987e-05
4.551809e-05
4.325787e-05
4.260742e-05
4.276926e-05
4.127532e-05
3.828556e-05
3.387652e-05
4.557403e-05
4.359564e-05
4.371789e-05
4.325108e-05
4.081692e-05
3.773872e-05
3.393775e-05
4.56684e-05
4.402936e-05
4.438646e-05
4.348988e-05
4.087684e-05
3.896416e-05
3.519849e-05
4.571128e-05
4.442127e-05
4.459478e-05
4.334744e-05
4.17953e-05
3.944462e-05
3.704456e-05
4.527227e-05
4.420798e-05
4.392736e-05
4.290006e-05
4.158344e-05
4.005151e-05
3.867091e-05
4.494444e-05
4.39243e-05
4.331571e-05
4.194043e-05
4.12645e-05
3.992502e-05
3.878892e-05
4.526021e-05
4.397525e-05
4.29553e-05
4.178668e-05
4.0554e-05
3.960373e-05
3.839248e-05
4.583969e-05
4.49134e-05
4.267205e-05
4.123037e-05
4.025986e-05
3.901528e-05
3.710669e-05
4.593138e-05
4.442758e-05
4.197241e-05
4.10395e-05
4.026988e-05
3.872072e-05
3.653106e-05
4.571692e-05
4.416325e-05
4.173401e-05
4.045114e-05
3.982545e-05
3.784906e-05
3.647033e-05
4.522379e-05
4.354797e-05
4.108004e-05
3.982084e-05
3.985645e-05
3.912105e-05
3.916778e-05
4.447072e-05
4.290261e-05
4.037697e-05
3.956684e-05
3.986879e-05
4.26418e-05
4.50925e-05
4.398739e-05
4.205732e-05
4.055624e-05
4.000924e-05
4.09978e-05
4.262632e-05
4.388318e-05
4.192608e-05
4.088509e-05
4.005554e-05
4.0359e-05
4.224857e-05
4.375778e-05
4.160804e-05
4.045266e-05
3.969566e-05
4.007339e-05
4.20516e-05
4.373221e-05
4.147904e-05
4.019369e-05
3.959548e-05
3.969775e-05
3.998879e-05
4.07255e-05
4.359e-05
4.172815e-05
4.02675e-05
3.929905e-05
3.90959e-05
3.793149e-05
3.7492e-05
4.285123e-05
4.083156e-05
4.195033e-05
3.992518e-05
3.925389e-05
3.896788e-05
3.817833e-05
4.315692e-05
4.10777e-05
4.222077e-05
4.098728e-05
4.069375e-05
4.026914e-05
3.895607e-05
4.372596e-05
4.21628e-05
4.263541e-05
4.165524e-05
4.087726e-05
3.991098e-05
3.871644e-05
4.384398e-05
4.252553e-05
4.313641e-05
4.207852e-05
4.046575e-05
3.965245e-05
3.917619e-05
4.398378e-05
4.282946e-05
4.346892e-05
4.214981e-05
4.062339e-05
3.971878e-05
3.826599e-05
4.400765e-05
4.270014e-05
4.354679e-05
4.257193e-05
4.067971e-05
3.932429e-05
3.717626e-05
4.406834e-05
4.242514e-05
4.332054e-05
4.260989e-05
4.04843e-05
3.783893e-05
3.396046e-05
4.42452e-05
4.211941e-05
4.247043e-05
4.234291e-05
4.017978e-05
3.725695e-05
3.386409e-05
4.458609e-05
4.234293e-05
4.173802e-05
4.159113e-05
4.054345e-05
3.744164e-05
3.397575e-05
4.507004e-05
4.291068e-05
4.120371e-05
4.099081e-05
4.015562e-05
3.797446e-05
3.333311e-05
4.564016e-05
4.345239e-05
4.157099e-05
4.067028e-05
3.969971e-05
3.836234e-05
3.360648e-05
4.633797e-05
4.413729e-05
4.242738e-05
4.059265e-05
3.992729e-05
3.854949e-05
3.40036e-05
4.709266e-05
4.516068e-05
4.359946e-05
4.123823e-05
4.029267e-05
3.869454e-05
3.50436e-05
4.776184e-05
4.603699e-05
4.465129e-05
4.268534e-05
4.027175e-05
3.866442e-05
3.661355e-05
4.820606e-05
4.677664e-05
4.529656e-05
4.35204e-05
4.110246e-05
3.88171e-05
3.663582e-05
4.838333e-05
4.723239e-05
4.572152e-05
4.367015e-05
4.145769e-05
3.911073e-05
3.542188e-05
4.840234e-05
4.739153e-05
4.591552e-05
4.387072e-05
4.155558e-05
3.895232e-05
3.450473e-05
4.838273e-05
4.741747e-05
4.591818e-05
4.390478e-05
4.158531e-05
3.862474e-05
3.274281e-05
4.837017e-05
4.741654e-05
4.583991e-05
4.388962e-05
4.156564e-05
3.850591e-05
3.213301e-05
4.836317e-05
4.740904e-05
4.577054e-05
4.386273e-05
4.152694e-05
3.844375e-05
3.169524e-05
4.835053e-05
4.73594e-05
4.573658e-05
4.38308e-05
4.148516e-05
3.838551e-05
3.124715e-05
4.832254e-05
4.731442e-05
4.57103e-05
4.380063e-05
4.14464e-05
3.831757e-05
3.125262e-05
4.82798e-05
4.72597e-05
4.568902e-05
4.377362e-05
4.14121e-05
3.809228e-05
3.127482e-05
4.826424e-05
4.724013e-05
4.566795e-05
4.375016e-05
4.138202e-05
3.804467e-05
3.130299e-05
4.824326e-05
4.687584e-05
4.51959e-05
4.371363e-05
4.135371e-05
3.801227e-05
3.133163e-05
4.821214e-05
4.686053e-05
4.517973e-05
4.36962e-05
4.132231e-05
3.784139e-05
3.136324e-05
4.820052e-05
4.684706e-05
4.516316e-05
4.367836e-05
4.129615e-05
3.775593e-05
3.139876e-05
4.819223e-05
4.683612e-05
4.51486e-05
4.366171e-05
4.127336e-05
3.773355e-05
3.142941e-05
4.818345e-05
4.682586e-05
4.513493e-05
4.364591e-05
4.12487e-05
3.771287e-05
3.146187e-05
4.817501e-05
4.681648e-05
4.51223e-05
4.36307e-05
4.113611e-05
3.768576e-05
3.148945e-05
4.816892e-05
4.680774e-05
4.511035e-05
4.361645e-05
4.109036e-05
3.766425e-05
3.151836e-05
4.816306e-05
4.679942e-05
4.509914e-05
4.360323e-05
4.10753e-05
3.764703e-05
3.154827e-05
4.815751e-05
4.67917e-05
4.508859e-05
4.359057e-05
4.10608e-05
3.763056e-05
3.157516e-05
4.815223e-05
4.678442e-05
4.507849e-05
4.357866e-05
4.104716e-05
3.761481e-05
3.160143e-05
4.81475e-05
4.677755e-05
4.506907e-05
4.356721e-05
4.103429e-05
3.759993e-05
3.162354e-05
4.814292e-05
4.677076e-05
4.505987e-05
4.355392e-05
4.097684e-05
3.75856e-05
3.16426e-05
4.813857e-05
4.67641e-05
4.505121e-05
4.354155e-05
4.090956e-05
3.757209e-05
3.166118e-05
4.813436e-05
4.675778e-05
4.504298e-05
4.353154e-05
4.090066e-05
3.755935e-05
3.168039e-05
4.813032e-05
4.675166e-05
4.503504e-05
4.352176e-05
4.089226e-05
3.754739e-05
3.168402e-05
4.812623e-05
4.674573e-05
4.502726e-05
4.351242e-05
4.088458e-05
3.753633e-05
3.16707e-05
4.812203e-05
4.673969e-05
4.501969e-05
4.35031e-05
4.087716e-05
3.750796e-05
3.161204e-05
4.811732e-05
4.673328e-05
4.501202e-05
4.349387e-05
4.085614e-05
3.746129e-05
3.155097e-05
4.811193e-05
4.672633e-05
4.500213e-05
4.346843e-05
4.082035e-05
3.741476e-05
3.148754e-05
4.810513e-05
4.67172e-05
4.496763e-05
4.342554e-05
4.07844e-05
3.736844e-05
3.142383e-05
4.809601e-05
4.668594e-05
4.493021e-05
4.338211e-05
4.074839e-05
3.732205e-05
3.135694e-05
4.806741e-05
4.665104e-05
4.489047e-05
4.3338e-05
4.07136e-05
3.727336e-05
3.128885e-05
4.803436e-05
4.661483e-05
4.484965e-05
4.329565e-05
4.072411e-05
3.722168e-05
3.121945e-05
4.799894e-05
4.657703e-05
4.480794e-05
4.325075e-05
4.068013e-05
3.716987e-05
3.114715e-05
4.796114e-05
4.653806e-05
4.476568e-05
4.320611e-05
4.063448e-05
3.711804e-05
3.107016e-05
4.792148e-05
4.649871e-05
4.47234e-05
4.316171e-05
4.058873e-05
3.706605e-05
3.097888e-05
4.788232e-05
4.646035e-05
4.468174e-05
4.31186e-05
4.054302e-05
3.701396e-05
3.085992e-05
4.784478e-05
4.642232e-05
4.464063e-05
4.307685e-05
4.049757e-05
3.69615e-05
3.068889e-05
1.017423e-06
1e-06
1e-06
1e-06
1e-06
1e-06
1e-06
1e-06
1e-06
1e-06
1e-06
1e-06
1e-06
1e-06
1e-06
1e-06
1e-06
1e-06
1.039764e-06
1e-06
1e-06
1e-06
1e-06
1e-06
1e-06
1e-06
1e-06
1e-06
1e-06
1e-06
1e-06
1e-06
1e-06
1e-06
1e-06
1e-06
1.046232e-06
1e-06
1e-06
1e-06
1e-06
1e-06
1e-06
1e-06
1e-06
1e-06
1e-06
1e-06
1e-06
1e-06
1e-06
1e-06
1e-06
1e-06
1.05001e-06
1e-06
1e-06
1e-06
1e-06
1e-06
1e-06
1e-06
1e-06
1e-06
1e-06
1e-06
1e-06
1e-06
1e-06
1e-06
1e-06
1e-06
1.054207e-06
1e-06
1e-06
1e-06
1e-06
1e-06
1e-06
1e-06
1e-06
1e-06
1e-06
1e-06
1e-06
1e-06
1e-06
1e-06
1e-06
1e-06
1.058494e-06
1e-06
1e-06
1e-06
1e-06
1e-06
1e-06
1e-06
1e-06
1e-06
1e-06
1e-06
1e-06
1e-06
1e-06
1e-06
1e-06
1e-06
1.06246e-06
1e-06
1e-06
1e-06
1e-06
1e-06
1e-06
1e-06
1e-06
1e-06
1e-06
1e-06
1e-06
1e-06
1e-06
1e-06
1e-06
1e-06
1.066629e-06
1e-06
1e-06
1e-06
1e-06
1e-06
1e-06
1e-06
1e-06
1e-06
1e-06
1e-06
1e-06
1e-06
1e-06
1e-06
1e-06
1e-06
1.070508e-06
1e-06
1e-06
1e-06
1e-06
1e-06
1e-06
1e-06
1e-06
1e-06
1e-06
1e-06
1e-06
1e-06
1e-06
1e-06
1e-06
1e-06
1.074773e-06
1e-06
1e-06
1e-06
1e-06
1e-06
1e-06
1e-06
1e-06
1e-06
1e-06
1e-06
1e-06
1e-06
1e-06
1e-06
1e-06
1e-06
1.079179e-06
1e-06
1e-06
1e-06
1e-06
1e-06
1e-06
1e-06
1e-06
1e-06
1e-06
1e-06
1e-06
1e-06
1e-06
1e-06
1e-06
1e-06
1.083444e-06
1e-06
1e-06
1e-06
1e-06
1e-06
1e-06
1e-06
1e-06
1e-06
1e-06
1e-06
1e-06
1e-06
1e-06
1e-06
1e-06
1e-06
1.087942e-06
1e-06
1e-06
1e-06
1e-06
1e-06
1e-06
1e-06
1e-06
1e-06
1e-06
1e-06
1e-06
1e-06
1e-06
1e-06
1e-06
1e-06
1.092902e-06
1e-06
1e-06
1e-06
1e-06
1e-06
1e-06
1e-06
1e-06
1e-06
1e-06
1e-06
1e-06
1e-06
1e-06
1e-06
1e-06
1e-06
1.114968e-06
1e-06
1e-06
1e-06
1e-06
1e-06
1e-06
1e-06
1e-06
1e-06
1e-06
1e-06
1e-06
1e-06
1e-06
1e-06
1e-06
1e-06
1.120963e-06
1e-06
1e-06
1e-06
1e-06
1e-06
1e-06
1e-06
1e-06
1e-06
1e-06
1e-06
1e-06
1e-06
1e-06
1e-06
1e-06
1e-06
1.129484e-06
1.000001e-06
1e-06
1e-06
1e-06
1e-06
1e-06
1e-06
1e-06
1e-06
1e-06
1e-06
1e-06
1e-06
1e-06
1e-06
1e-06
1e-06
1.138894e-06
1.000001e-06
1e-06
1e-06
1e-06
1e-06
1e-06
1e-06
1e-06
1e-06
1e-06
1e-06
1e-06
1e-06
1e-06
1e-06
1e-06
1e-06
1.149106e-06
1.000001e-06
1e-06
1e-06
1e-06
1e-06
1e-06
1e-06
1e-06
1e-06
1e-06
1e-06
1e-06
1e-06
1e-06
1e-06
1e-06
1e-06
1.159432e-06
1.000001e-06
1e-06
1e-06
1e-06
1e-06
1e-06
1e-06
1e-06
1e-06
1e-06
1e-06
1e-06
1e-06
1e-06
1e-06
1e-06
1e-06
1.169846e-06
1.000001e-06
1e-06
1e-06
1e-06
1e-06
1e-06
1e-06
1e-06
1e-06
1e-06
1e-06
1e-06
1e-06
1e-06
1e-06
1e-06
1e-06
1.180757e-06
1.000002e-06
1e-06
1e-06
1e-06
1e-06
1e-06
1e-06
1e-06
1e-06
1e-06
1e-06
1e-06
1e-06
1e-06
1e-06
1e-06
1e-06
1.192451e-06
1.000002e-06
1e-06
1e-06
1e-06
1e-06
1e-06
1e-06
1e-06
1e-06
1e-06
1e-06
1e-06
1e-06
1e-06
1e-06
1e-06
1e-06
1.20494e-06
1.000003e-06
1e-06
1e-06
1e-06
1e-06
1e-06
1e-06
1e-06
1e-06
1e-06
1e-06
1e-06
1e-06
1e-06
1e-06
1e-06
1e-06
1.218561e-06
1.000003e-06
1e-06
1e-06
1e-06
1e-06
1e-06
1e-06
1e-06
1e-06
1e-06
1e-06
1e-06
1e-06
1e-06
1e-06
1e-06
1e-06
1.232915e-06
1.000004e-06
1e-06
1e-06
1e-06
1e-06
1e-06
1e-06
1e-06
1e-06
1e-06
1e-06
1e-06
1e-06
1e-06
1e-06
1e-06
1e-06
1.248545e-06
1.000005e-06
1e-06
1e-06
1e-06
1e-06
1e-06
1e-06
1e-06
1e-06
1e-06
1e-06
1e-06
1e-06
1e-06
1e-06
1e-06
1e-06
1.265484e-06
1.000007e-06
1e-06
1e-06
1e-06
1e-06
1e-06
1e-06
1e-06
1e-06
1e-06
1e-06
1e-06
1e-06
1e-06
1e-06
1e-06
1e-06
1.283571e-06
1.000008e-06
1e-06
1e-06
1e-06
1e-06
1e-06
1e-06
1e-06
1e-06
1e-06
1e-06
1e-06
1e-06
1e-06
1e-06
1e-06
1e-06
1.303497e-06
1.00001e-06
1e-06
1e-06
1e-06
1e-06
1e-06
1e-06
1e-06
1e-06
1e-06
1e-06
1e-06
1e-06
1e-06
1e-06
1e-06
1e-06
1.325066e-06
1.000012e-06
1e-06
1e-06
1e-06
1e-06
1e-06
1e-06
1e-06
1e-06
1e-06
1e-06
1e-06
1e-06
1e-06
1e-06
1e-06
1e-06
1.348214e-06
1.000015e-06
1e-06
1e-06
1e-06
1e-06
1e-06
1e-06
1e-06
1e-06
1e-06
1e-06
1e-06
1e-06
1e-06
1e-06
1e-06
1e-06
1.374095e-06
1.000017e-06
1e-06
1e-06
1e-06
1e-06
1e-06
1e-06
1e-06
1e-06
1e-06
1e-06
1e-06
1e-06
1e-06
1e-06
1e-06
1e-06
1.404648e-06
1.000024e-06
1e-06
1e-06
1e-06
1e-06
1e-06
1e-06
1e-06
1e-06
1e-06
1e-06
1e-06
1e-06
1e-06
1e-06
1e-06
1e-06
1.498853e-06
1.00004e-06
1e-06
1e-06
1e-06
1e-06
1e-06
1e-06
1e-06
1e-06
1e-06
1e-06
1e-06
1e-06
1e-06
1e-06
1e-06
1e-06
1.565622e-06
1.000053e-06
1e-06
1e-06
1e-06
1e-06
1e-06
1e-06
1e-06
1e-06
1e-06
1e-06
1e-06
1e-06
1e-06
1e-06
1e-06
1e-06
1.689255e-06
1.000057e-06
1e-06
1e-06
1e-06
1e-06
1e-06
1e-06
1e-06
1e-06
1e-06
1e-06
1e-06
1e-06
1e-06
1e-06
1e-06
1e-06
2.598171e-06
1.000094e-06
1e-06
1e-06
1e-06
1e-06
1e-06
1e-06
1e-06
1e-06
1e-06
1e-06
1e-06
1e-06
1e-06
1e-06
1e-06
1e-06
5.26726e-06
1.000173e-06
1e-06
1e-06
1e-06
1e-06
1e-06
1e-06
1e-06
1e-06
1e-06
1e-06
1e-06
1e-06
1e-06
1e-06
1e-06
1e-06
1.080556e-05
1.001628e-06
1e-06
1e-06
1e-06
1e-06
1e-06
1e-06
1e-06
1e-06
1e-06
1e-06
1e-06
1e-06
1e-06
1e-06
1e-06
1e-06
1.891298e-05
1.002393e-06
1e-06
1e-06
1e-06
1e-06
1e-06
1e-06
1e-06
1e-06
1e-06
1e-06
1e-06
1e-06
1e-06
1e-06
1e-06
1e-06
2.086693e-05
1.001585e-06
1e-06
1e-06
1e-06
1e-06
1e-06
1e-06
1e-06
1e-06
1e-06
1e-06
1e-06
1e-06
1e-06
1e-06
1e-06
1e-06
2.26151e-05
1.000462e-06
1e-06
1e-06
1e-06
1e-06
1e-06
1e-06
1e-06
1e-06
1e-06
1e-06
1e-06
1e-06
1e-06
1e-06
1e-06
1e-06
2.436543e-05
1.002894e-06
1e-06
1e-06
1e-06
1e-06
1e-06
1e-06
1e-06
1e-06
1e-06
1e-06
1e-06
1e-06
1e-06
1e-06
1e-06
1e-06
2.5078e-05
1.003079e-06
1e-06
1e-06
1e-06
1e-06
1e-06
1e-06
1e-06
1e-06
1e-06
1e-06
1e-06
1e-06
1e-06
1e-06
1e-06
1e-06
2.591159e-05
1.002859e-06
1e-06
1e-06
1e-06
1e-06
1e-06
1e-06
1e-06
1e-06
1e-06
1e-06
1e-06
1e-06
1e-06
1e-06
1e-06
1e-06
2.997922e-05
1.006317e-06
1.000002e-06
1e-06
1e-06
1e-06
1e-06
1e-06
1e-06
1e-06
1e-06
1e-06
1e-06
1e-06
1e-06
1e-06
1e-06
1e-06
3.036391e-05
1.101463e-06
1.000034e-06
1e-06
1e-06
1e-06
1e-06
1e-06
1e-06
1e-06
1e-06
1e-06
1e-06
1e-06
1e-06
1e-06
1e-06
1e-06
2.978207e-05
1.213619e-06
1.000399e-06
1.000002e-06
1e-06
1e-06
1e-06
1e-06
1e-06
1e-06
1e-06
1e-06
1e-06
1e-06
1e-06
1e-06
1e-06
1e-06
3.50924e-05
1.939773e-06
1.004e-06
1.000039e-06
1e-06
1e-06
1e-06
1e-06
1e-06
1e-06
1e-06
1e-06
1e-06
1e-06
3.507306e-05
2.07863e-05
1e-06
1e-06
1e-06
1e-06
1e-06
1e-06
1e-06
1e-06
3.49038e-05
1e-06
1e-06
1e-06
1e-06
1e-06
1e-06
1e-06
1e-06
1e-06
1e-06
1e-06
1e-06
1e-06
1e-06
1e-06
1e-06
1e-06
1e-06
1e-06
1e-06
1e-06
1e-06
1e-06
1e-06
1e-06
1e-06
1e-06
1e-06
1e-06
1e-06
1e-06
1e-06
1e-06
1e-06
1e-06
1e-06
1e-06
1e-06
1e-06
1e-06
1e-06
1e-06
1e-06
1e-06
1e-06
1e-06
1e-06
1e-06
1e-06
3.58673e-05
1e-06
1e-06
1e-06
1e-06
1e-06
1e-06
3.61189e-05
1.376567e-05
1e-06
1e-06
1e-06
1e-06
1e-06
1e-06
1e-06
3.474805e-05
3.34625e-06
1.010222e-06
1e-06
1e-06
1e-06
1e-06
1e-06
1e-06
1e-06
1e-06
1e-06
2.989393e-05
1.429211e-06
1.001865e-06
1.000013e-06
1e-06
1e-06
1e-06
1e-06
1e-06
1e-06
1e-06
1e-06
1e-06
1e-06
1e-06
1e-06
1e-06
1e-06
2.901789e-05
1.131996e-06
1.000213e-06
1.000001e-06
1e-06
1e-06
1e-06
1e-06
1e-06
1e-06
1e-06
1e-06
1e-06
1e-06
1e-06
1e-06
1e-06
1e-06
2.843126e-05
1.06784e-06
1.00003e-06
1e-06
1e-06
1e-06
1e-06
1e-06
1e-06
1e-06
1e-06
1e-06
1e-06
1e-06
1e-06
1e-06
1e-06
1e-06
2.736726e-05
1.016824e-06
1.000004e-06
1e-06
1e-06
1e-06
1e-06
1e-06
1e-06
1e-06
1e-06
1e-06
1e-06
1e-06
1e-06
1e-06
1e-06
1e-06
2.441017e-05
1.009044e-06
1.000001e-06
1e-06
1e-06
1e-06
1e-06
1e-06
1e-06
1e-06
1e-06
1e-06
1e-06
1e-06
1e-06
1e-06
1e-06
1e-06
2.439096e-05
1.008207e-06
1.000002e-06
1e-06
1e-06
1e-06
1e-06
1e-06
1e-06
1e-06
1e-06
1e-06
1e-06
1e-06
1e-06
1e-06
1e-06
1e-06
2.400403e-05
1.005921e-06
1.000003e-06
1e-06
1e-06
1e-06
1e-06
1e-06
1e-06
1e-06
1e-06
1e-06
1e-06
1e-06
1e-06
1e-06
1e-06
1e-06
2.257261e-05
1.007121e-06
1.000003e-06
1e-06
1e-06
1e-06
1e-06
1e-06
1e-06
1e-06
1e-06
1e-06
1e-06
1e-06
1e-06
1e-06
1e-06
1e-06
2.088068e-05
1.011809e-06
1.000015e-06
1e-06
1e-06
1e-06
1e-06
1e-06
1e-06
1e-06
1e-06
1e-06
1e-06
1e-06
1e-06
1e-06
1e-06
1e-06
1.582966e-05
1.006014e-06
1.000002e-06
1e-06
1e-06
1e-06
1e-06
1e-06
1e-06
1e-06
1e-06
1e-06
1e-06
1e-06
1e-06
1e-06
1e-06
1e-06
7.855135e-06
1.000522e-06
1e-06
1e-06
1e-06
1e-06
1e-06
1e-06
1e-06
1e-06
1e-06
1e-06
1e-06
1e-06
1e-06
1e-06
1e-06
1e-06
5.331575e-06
1.000543e-06
1e-06
1e-06
1e-06
1e-06
1e-06
1e-06
1e-06
1e-06
1e-06
1e-06
1e-06
1e-06
1e-06
1e-06
1e-06
1e-06
1.824447e-06
1.000083e-06
1e-06
1e-06
1e-06
1e-06
1e-06
1e-06
1e-06
1e-06
1e-06
1e-06
1e-06
1e-06
1e-06
1e-06
1e-06
1e-06
1.674716e-06
1.000075e-06
1e-06
1e-06
1e-06
1e-06
1e-06
1e-06
1e-06
1e-06
1e-06
1e-06
1e-06
1e-06
1e-06
1e-06
1e-06
1e-06
1.540425e-06
1.000046e-06
1e-06
1e-06
1e-06
1e-06
1e-06
1e-06
1e-06
1e-06
1e-06
1e-06
1e-06
1e-06
1e-06
1e-06
1e-06
1e-06
1.454017e-06
1.000018e-06
1e-06
1e-06
1e-06
1e-06
1e-06
1e-06
1e-06
1e-06
1e-06
1e-06
1e-06
1e-06
1e-06
1e-06
1e-06
1e-06
1.380976e-06
1.000018e-06
1e-06
1e-06
1e-06
1e-06
1e-06
1e-06
1e-06
1e-06
1e-06
1e-06
1e-06
1e-06
1e-06
1e-06
1e-06
1e-06
1.356455e-06
1.000018e-06
1e-06
1e-06
1e-06
1e-06
1e-06
1e-06
1e-06
1e-06
1e-06
1e-06
1e-06
1e-06
1e-06
1e-06
1e-06
1e-06
1.333841e-06
1.000015e-06
1e-06
1e-06
1e-06
1e-06
1e-06
1e-06
1e-06
1e-06
1e-06
1e-06