/*--------------------------------*- C++ -*----------------------------------*\
| =========                 |                                                 |
| \\      /  F ield         | OpenFOAM: The Open Source CFD Toolbox           |
|  \\    /   O peration     | Version:  2206                                  |
|   \\  /    A nd           | Website:  www.openfoam.com                      |
|    \\/     M anipulation  |                                                 |
\*---------------------------------------------------------------------------*/
FoamFile
{
    version     2.0;
    format      ascii;
    arch        "LSB;label=32;scalar=64";
    class       volScalarField;
    location    "2";
    object      nuFra;
}
// * * * * * * * * * * * * * * * * * * * * * * * * * * * * * * * * * * * * * //

dimensions      [0 2 -1 0 0 0 0];

internalField   nonuniform List<scalar> 
13078
(
0.01129482
2.379167
47.23687
100
100
100
100
3.743441
30.33706
66.21765
100
100
100
100
46.03797
77.03517
100
100
100
100
100
100
100
100
100
100
100
100
100
100
100
100
100
100
100
100
100
100
100
100
100
100
100
100
100
100
100
100
100
100
100
100
100
100
100
100
100
100
100
100
100
100
100
100
100
100
100
100
100
100
100
100
100
100
100
100
100
100
100
100
100
100
100
100
100
100
100
100
100
100
100
100
100
100
100
100
100
100
100
100
100
100
100
100
100
100
100
100
100
100
100
100
100
100
100
100
100
100
100
100
100
100
100
100
100
100
100
100
100
100
100
100
100
100
100
100
100
100
100
100
100
100
100
100
100
100
100
100
100
100
100
100
100
100
100
100
100
100
100
100
100
100
100
100
100
100
100
100
100
100
100
100
100
100
100
100
100
100
100
100
100
100
100
100
100
100
100
100
100
100
100
100
100
100
100
100
100
100
100
100
100
100
100
100
100
100
100
100
100
100
100
100
100
100
100
100
100
100
100
100
100
100
100
100
100
100
100
100
100
100
100
100
100
100
100
100
100
100
100
100
100
100
100
100
100
100
100
100
100
100
100
100
100
100
100
100
100
100
100
100
100
100
100
100
97.49258
75.02317
100
100
100
100
92.08557
69.28532
47.89984
100
100
100
90.50918
64.37152
45.6713
33.00467
100
100
92.50285
63.69057
43.0395
32.70988
27.01679
100
96.48248
65.08457
41.49338
30.74953
27.07546
25.53
100
67.71797
42.17917
28.48711
23.72046
23.89826
22.341
77.63965
43.09942
27.72687
21.47462
20.32887
20.26014
14.87425
50.21674
27.8558
20.05719
17.7975
18.86537
17.20876
8.681116
31.94149
19.39967
16.2279
16.98025
19.80358
14.58428
5.107241
21.08296
15.25779
15.62143
20.50371
23.77813
11.62656
3.3942
15.24463
13.84982
18.52269
31.13105
26.49284
7.78623
1.973426
12.15947
14.88923
27.54086
47.79656
18.78439
4.129983
1.079165
10.86502
18.51166
41.31736
43.72933
8.956749
1.964973
0.6933157
10.91606
23.41884
46.01092
22.76897
4.1088
1.215546
0.5922093
12.10003
26.11682
38.06047
10.85652
2.419953
1.066569
0.6960824
14.80076
27.69053
27.42406
6.449528
1.921415
1.087063
0.7803807
19.82658
30.6531
21.43937
4.925702
1.662504
1.022323
0.8245243
27.7865
35.79833
18.73816
4.288786
1.537121
0.9701222
0.7891398
36.20418
40.24248
17.79012
4.145473
1.504389
0.9287386
0.7098165
35.61829
38.07219
17.76701
4.377497
1.535696
0.8987078
0.6479526
26.86128
30.83621
18.36127
5.201707
1.709713
0.939593
0.6758982
19.144
24.19503
18.88125
6.962606
2.124146
1.024329
0.7147881
14.39281
19.74918
19.38421
10.01239
3.130899
1.241402
0.6809639
11.90727
16.85731
20.82895
14.63175
5.278459
1.851209
0.8223763
10.95652
14.45578
20.55981
19.32096
8.72231
2.884087
1.124136
11.24088
12.42488
17.34266
21.36424
12.4868
4.10652
1.40716
12.86977
11.58002
13.98128
17.9729
14.07037
5.365695
1.67068
16.43235
12.30416
12.37396
14.52586
13.28588
6.469143
2.177365
23.43552
14.81816
12.58038
12.77691
12.47189
7.794987
3.121486
36.95877
19.9923
14.33027
12.68357
12.60042
9.87739
4.882824
60.45252
30.43893
18.78493
14.5242
13.65144
12.38751
8.281206
93.27766
50.68222
28.11041
18.73141
15.61756
14.90307
12.89755
100
82.23493
47.67583
27.50197
19.59955
17.65419
16.77456
100
100
78.75291
45.91882
28.76425
21.46576
18.6988
100
100
100
77.24383
46.7844
30.25945
22.81688
100
100
100
100
76.51794
49.8926
32.89561
100
100
100
100
100
80.24638
54.13276
100
100
100
100
100
100
84.71478
100
100
100
100
100
100
100
100
100
100
100
100
100
100
100
100
100
100
100
100
100
100
100
100
100
100
100
100
100
100
100
100
100
100
100
100
100
100
100
100
100
100
100
100
100
100
100
100
100
100
100
100
100
100
100
100
100
100
100
100
100
100
100
100
100
100
100
100
100
100
100
100
100
100
100
100
100
100
100
100
100
100
100
100
100
100
100
100
100
100
100
100
100
100
100
100
100
100
100
100
100
100
100
100
100
100
100
100
100
100
100
100
100
100
100
100
100
100
100
100
100
100
100
100
100
100
100
100
100
100
100
100
100
100
100
100
100
100
100
100
100
100
100
100
100
100
100
100
100
100
100
100
100
100
100
100
100
100
100
100
100
100
100
100
100
100
100
100
100
100
100
100
100
100
100
100
100
100
100
100
100
100
100
100
100
100
100
100
100
100
100
100
100
100
100
100
100
100
100
100
100
100
100
100
100
100
100
100
100
100
100
100
100
100
100
100
100
100
100
100
100
100
100
100
100
100
100
100
100
100
100
100
100
100
100
100
100
100
100
100
100
100
100
100
100
47.60109
79.00746
100
100
100
100
100
4.357314
33.10232
68.79132
100
100
100
100
100
100
100
100
100
100
100
100
100
100
100
100
100
100
100
100
100
100
100
100
100
100
100
100
100
100
100
100
100
100
100
100
100
100
100
100
100
100
100
100
100
100
100
100
100
100
100
100
100
100
100
100
100
100
100
100
100
100
100
100
100
100
100
100
100
100
100
100
100
100
100
100
100
100
100
100
100
100
100
100
100
100
100
100
100
100
100
100
100
100
100
100
100
100
100
100
100
100
100
100
100
100
100
100
100
100
100
100
100
100
100
100
100
100
100
100
100
100
100
100
100
100
100
100
100
100
100
100
100
100
100
100
100
100
100
100
100
100
100
100
100
100
100
100
100
100
90.91725
100
100
100
100
100
100
82.76871
100
100
100
100
100
100
75.10677
100
100
100
100
100
100
67.04104
100
100
100
100
100
100
59.04245
100
100
100
100
100
100
52.05072
100
100
100
100
100
100
45.97438
100
100
100
100
100
100
40.04837
100
100
100
100
100
100
33.9188
100
100
100
100
100
100
29.62454
100
100
100
100
100
87.98719
23.43996
100
100
100
100
100
64.94568
15.98937
100
100
100
100
74.8932
42.86816
9.839014
100
100
100
100
62.75688
31.64121
7.253052
100
100
100
100
57.16456
19.36981
5.278038
100
100
100
86.11872
17.67868
10.4218
3.555604
89.42263
100
69.0972
17.96252
53.21194
96.03937
83.25589
55.04521
58.19959
22.90099
100
52.03747
18.48985
5.77852
32.144
28.33085
29.43176
48.00363
7.553512
3.232533
1.67781
21.56873
19.72496
44.07521
8.955466
1.437756
1.490601
1.124407
16.82609
13.67631
67.56292
1.373023
0.7984433
0.8720338
0.6261546
16.87469
8.571663
3.667106
0.4683517
0.584221
0.5549991
0.272259
11.9479
4.737918
0.5459722
0.4539918
0.585372
0.4811686
0.1788738
3.852526
1.21301
0.3676233
0.6377268
0.494888
0.3061958
0.1574519
1.687329
0.5532739
0.4590097
0.6182588
0.3461595
0.1925121
0.2125079
1.036414
0.4014263
0.4539937
0.4882956
0.2140526
0.1452509
0.1336927
0.7587649
0.3680678
0.3724514
0.3134789
0.1743363
0.1316916
0.1758724
0.5195676
0.2839251
0.2832798
0.2488904
0.196142
0.1675533
0.5933814
0.3511674
0.2366138
0.273451
0.2529942
0.2601191
0.2318838
0.896609
0.2930807
0.230488
0.3313874
0.3343174
0.357749
0.315148
0.5274825
0.3412695
0.2984729
0.3235215
0.3896916
0.5154638
0.4070275
0.3538789
0.3709046
0.2556523
0.2857301
0.4953531
0.512316
0.3419634
0.2006236
0.3983354
0.2513842
0.2922389
0.4067957
0.330138
0.136936
0.0891324
0.4312475
0.2687847
0.2535303
0.3040251
0.228632
0.08358066
0.08362355
0.4109692
0.2725978
0.2039452
0.1798417
0.1019117
0.09585509
0.1927405
0.340537
0.2112475
0.1818862
0.1455231
0.1206753
0.1066021
0.3061757
0.1795771
0.2081069
0.1878276
0.1087533
0.09889763
0.3241993
0.1700761
0.1824712
0.1958379
0.1196346
0.1098787
0.3909022
0.2012103
0.1832902
0.1832317
0.1223817
0.08023956
0.1030708
0.4298817
0.2918218
0.2713569
0.2429438
0.2249795
0.09763722
0.09444918
0.3745704
0.2370228
0.5042656
0.3572446
0.4590052
0.5895885
0.4932623
0.391486
0.2002168
0.3891441
0.2870251
0.3592113
0.4372647
0.7091227
0.399316
0.2030224
0.2839189
0.261706
0.2762681
0.2319741
0.5906093
0.4576643
0.214782
0.2876848
0.2578528
0.1923885
0.1603432
0.4228013
0.5661423
0.2583104
0.3184935
0.2691477
0.180803
0.1592218
0.4240025
0.7796907
0.3211484
0.3767379
0.3084209
0.2036583
0.1783022
0.3441514
1.275899
0.4134997
0.4044602
0.4082777
0.2701095
0.2017169
0.3595641
2.722394
0.6510234
0.4000233
0.4204705
0.392965
0.2501438
0.4989198
6.925991
1.747443
0.4822163
0.3635201
0.4188695
0.3177104
0.2270959
12.91151
6.426836
1.291341
0.4307149
0.3333988
0.4115794
0.2347679
15.28245
12.13304
7.588029
1.149823
0.4282893
0.463828
0.3338647
16.96467
13.3332
25.54942
4.049528
1.085193
0.7168051
0.6015657
22.62629
15.11293
19.38879
11.81844
3.139957
1.850015
1.80055
37.9978
24.01587
24.8229
25.60722
9.353123
4.552082
4.394913
64.30326
44.91539
49.23808
57.51914
29.93341
11.23862
10.08559
96.30651
75.52558
98.46056
100
66.48756
28.64239
39.59126
100
100
100
100
100
60.28127
27.18589
100
100
100
100
100
57.72751
15.2114
100
100
100
100
92.7748
54.65527
18.02883
100
100
100
100
100
61.60318
10.73911
100
100
100
100
100
80.89517
20.7709
100
100
100
100
100
94.50955
24.0154
100
100
100
100
100
100
29.60867
100
100
100
100
100
100
33.7654
100
100
100
100
100
100
39.20572
100
100
100
100
100
100
44.60703
100
100
100
100
100
100
50.27312
100
100
100
100
100
100
56.40981
100
100
100
100
100
100
63.08388
100
100
100
100
100
100
70.25837
100
100
100
100
100
100
77.7878
100
100
100
100
100
100
86.06486
100
100
100
100
100
100
96.47084
100
100
100
100
100
100
100
100
100
100
100
100
100
100
100
100
100
100
100
100
100
100
100
100
100
100
100
100
100
100
100
100
100
100
100
100
100
100
100
100
100
100
100
100
100
100
100
100
100
100
100
100
100
100
100
100
100
100
100
100
100
100
100
100
100
100
100
100
100
100
100
100
100
100
100
100
100
100
100
100
100
100
100
100
100
100
100
100
100
100
100
100
100
100
100
100
100
100
100
100
100
100
100
100
100
100
100
100
100
100
100
100
100
100
100
100
100
100
100
100
100
100
100
100
100
100
100
100
100
100
100
100
100
7.471212e-11
6.031072e-10
1.653619e-09
3.770945e-09
7.538783e-09
1.408394e-08
2.375492e-08
2.883271e-08
3.338364e-08
3.376524e-08
3.157791e-08
2.917352e-08
2.717e-08
2.551344e-08
2.417489e-08
2.30173e-08
2.207845e-08
2.129499e-08
7.782954e-11
2.179649e-09
3.020265e-09
5.079253e-09
8.942855e-09
1.610185e-08
2.522395e-08
3.136485e-08
3.436965e-08
3.47888e-08
3.219501e-08
2.968212e-08
2.751664e-08
2.575764e-08
2.434025e-08
2.317216e-08
2.219442e-08
2.139307e-08
8.016312e-11
3.674766e-09
5.339488e-09
8.45946e-09
1.427613e-08
2.411657e-08
3.155489e-08
3.635143e-08
3.588479e-08
3.403917e-08
3.193162e-08
2.982042e-08
2.761805e-08
2.581489e-08
2.436565e-08
2.319404e-08
2.221498e-08
2.140417e-08
8.00329e-11
3.592793e-09
5.755018e-09
9.430048e-09
1.927675e-08
4.806319e-08
4.132419e-08
3.743265e-08
3.489923e-08
3.271221e-08
3.130875e-08
2.943186e-08
2.745026e-08
2.565128e-08
2.427645e-08
2.30478e-08
2.21154e-08
2.132629e-08
7.848809e-11
3.345284e-09
4.99265e-09
7.3406e-09
1.281424e-08
3.308194e-08
4.704235e-08
3.602249e-08
3.263141e-08
3.159587e-08
2.972272e-08
2.867353e-08
2.701703e-08
2.532304e-08
2.40683e-08
2.270716e-08
2.191615e-08
2.115387e-08
7.867278e-11
4.333938e-09
5.159158e-09
6.741663e-09
1.023696e-08
2.060792e-08
3.768418e-08
4.152527e-08
3.000931e-08
2.97987e-08
2.821982e-08
2.72609e-08
2.625734e-08
2.476494e-08
2.372873e-08
2.230113e-08
2.161375e-08
2.090082e-08
7.831293e-11
5.08753e-09
5.520876e-09
6.779416e-09
9.457778e-09
1.714758e-08
3.365745e-08
4.342822e-08
2.934789e-08
2.766349e-08
2.680533e-08
2.589801e-08
2.521202e-08
2.4049e-08
2.319808e-08
2.176415e-08
2.122155e-08
2.056682e-08
7.82337e-11
5.295666e-09
5.723217e-09
6.901077e-09
9.203374e-09
1.536856e-08
3.679782e-08
3.931424e-08
3.16609e-08
2.59596e-08
2.532141e-08
2.452107e-08
2.399479e-08
2.322862e-08
2.255899e-08
2.118557e-08
2.075402e-08
2.016739e-08
7.805381e-11
5.394209e-09
5.831776e-09
7.016541e-09
9.109322e-09
1.428222e-08
3.49264e-08
3.796526e-08
3.413035e-08
2.514882e-08
2.380441e-08
2.324039e-08
2.284062e-08
2.230166e-08
2.186143e-08
2.054249e-08
2.023091e-08
1.971415e-08
7.78088e-11
5.13794e-09
5.896909e-09
7.159297e-09
9.157202e-09
1.35642e-08
2.968329e-08
4.117095e-08
3.414239e-08
2.469118e-08
2.250133e-08
2.205356e-08
2.185812e-08
2.142329e-08
2.111392e-08
1.98668e-08
1.966432e-08
1.922312e-08
7.77733e-11
5.140228e-09
6.027543e-09
7.436059e-09
9.341926e-09
1.3139e-08
2.477329e-08
3.652257e-08
3.137655e-08
2.49567e-08
2.164548e-08
2.086352e-08
2.091585e-08
2.05857e-08
2.03394e-08
1.917029e-08
1.907045e-08
1.869569e-08
7.784207e-11
5.389124e-09
6.214426e-09
7.782576e-09
9.609519e-09
1.301802e-08
2.148247e-08
3.233843e-08
2.832063e-08
2.530287e-08
2.0492e-08
2.010321e-08
2.017769e-08
1.966405e-08
1.957135e-08
1.846554e-08
1.845435e-08
1.814735e-08
7.77529e-11
4.914602e-09
6.010324e-09
7.966769e-09
9.930962e-09
1.311332e-08
1.950718e-08
3.001645e-08
2.725387e-08
2.40037e-08
1.950719e-08
1.903976e-08
1.897516e-08
1.880872e-08
1.878702e-08
1.77956e-08
1.782632e-08
1.758173e-08
7.769504e-11
3.122131e-09
6.116162e-09
8.536081e-09
1.047569e-08
1.343677e-08
1.8524e-08
2.651741e-08
2.438081e-08
2.01472e-08
1.823142e-08
1.783544e-08
1.795675e-08
1.797339e-08
1.804711e-08
1.708813e-08
1.71987e-08
1.700972e-08
7.954703e-11
6.458129e-09
7.699684e-09
9.861023e-09
1.12898e-08
1.386085e-08
1.801316e-08
2.325406e-08
2.09368e-08
1.877409e-08
1.714608e-08
1.686753e-08
1.710067e-08
1.716406e-08
1.730829e-08
1.639384e-08
1.657207e-08
1.643282e-08
7.813662e-11
5.68771e-09
7.150341e-09
1.070642e-08
1.222643e-08
1.426766e-08
1.76027e-08
2.098692e-08
1.92386e-08
1.809208e-08
1.625953e-08
1.607264e-08
1.626303e-08
1.637375e-08
1.657974e-08
1.571729e-08
1.594741e-08
1.585449e-08
7.843213e-11
6.778344e-09
8.910423e-09
1.012678e-08
1.301507e-08
1.473753e-08
1.720778e-08
1.939379e-08
1.803317e-08
1.724635e-08
1.545401e-08
1.528365e-08
1.543728e-08
1.560458e-08
1.586008e-08
1.505878e-08
1.53304e-08
1.527794e-08
7.868833e-11
7.355234e-09
1.090152e-08
1.200858e-08
1.225977e-08
1.499566e-08
1.673471e-08
1.788393e-08
1.683938e-08
1.618188e-08
1.463805e-08
1.450756e-08
1.466636e-08
1.485868e-08
1.513775e-08
1.442559e-08
1.472294e-08
1.47071e-08
7.899055e-11
7.617426e-09
1.246074e-08
1.488992e-08
1.347609e-08
1.417982e-08
1.598657e-08
1.646339e-08
1.555752e-08
1.501063e-08
1.385269e-08
1.377342e-08
1.393211e-08
1.415532e-08
1.4382e-08
1.384079e-08
1.412201e-08
1.414182e-08
7.927984e-11
7.958075e-09
1.311844e-08
1.563558e-08
1.501474e-08
1.333165e-08
1.462379e-08
1.499777e-08
1.429367e-08
1.386453e-08
1.309575e-08
1.30631e-08
1.32269e-08
1.346401e-08
1.343354e-08
1.338533e-08
1.353498e-08
1.358196e-08
7.958261e-11
7.991004e-09
1.287325e-08
1.470139e-08
1.518607e-08
1.363587e-08
1.258431e-08
1.342297e-08
1.304544e-08
1.282006e-08
1.235116e-08
1.23681e-08
1.253534e-08
1.270776e-08
1.278021e-08
1.291485e-08
1.293844e-08
1.302849e-08
7.990539e-11
7.611074e-09
1.136713e-08
1.27371e-08
1.426845e-08
1.252886e-08
1.255128e-08
1.17988e-08
1.189091e-08
1.188421e-08
1.163077e-08
1.169516e-08
1.18736e-08
1.206112e-08
1.215396e-08
1.238646e-08
1.237977e-08
1.249454e-08
8.027361e-11
7.340766e-09
1.023299e-08
1.059983e-08
1.307894e-08
1.131702e-08
1.088247e-08
1.099334e-08
1.090928e-08
1.106766e-08
1.09448e-08
1.104731e-08
1.124454e-08
1.142616e-08
1.156338e-08
1.178914e-08
1.18281e-08
1.196265e-08
8.068095e-11
7.104865e-09
9.118503e-09
8.895336e-09
1.152155e-08
1.013126e-08
9.747157e-09
9.807947e-09
9.953674e-09
1.030742e-08
1.030364e-08
1.04043e-08
1.063005e-08
1.08441e-08
1.097115e-08
1.121654e-08
1.128507e-08
1.143535e-08
8.113596e-11
6.720363e-09
7.944483e-09
7.601967e-09
1.012569e-08
9.031049e-09
8.715648e-09
8.951211e-09
9.178859e-09
9.422349e-09
9.715361e-09
9.805384e-09
1.004154e-08
1.033235e-08
1.026973e-08
1.063421e-08
1.075577e-08
1.091972e-08
8.163077e-11
6.355381e-09
7.096711e-09
6.663554e-09
8.887975e-09
8.081802e-09
7.889054e-09
8.30776e-09
8.310652e-09
8.700388e-09
8.987324e-09
9.29351e-09
9.489444e-09
1.028413e-08
9.831999e-09
1.018909e-08
1.024961e-08
1.040737e-08
8.219131e-11
5.968762e-09
6.354241e-09
5.946559e-09
7.732145e-09
7.180457e-09
7.307766e-09
7.419907e-09
7.537853e-09
8.000633e-09
8.41416e-09
8.701669e-09
9.005909e-09
9.370028e-09
8.96516e-09
9.542967e-09
9.740859e-09
9.956026e-09
8.28174e-11
5.557424e-09
5.806331e-09
5.450692e-09
6.403298e-09
6.412358e-09
6.595696e-09
6.658349e-09
6.871854e-09
7.380517e-09
7.836108e-09
8.167543e-09
8.505444e-09
8.832638e-09
8.710146e-09
9.069184e-09
9.251603e-09
9.429057e-09
8.351444e-11
5.045697e-09
5.408147e-09
5.304588e-09
4.929308e-09
5.841881e-09
5.881682e-09
5.936186e-09
6.376383e-09
6.835773e-09
7.296274e-09
7.646009e-09
8.018066e-09
8.154694e-09
8.366718e-09
8.597616e-09
8.762907e-09
8.990328e-09
8.430261e-11
4.389907e-09
4.837561e-09
6.156173e-09
3.432599e-09
5.623036e-09
5.330055e-09
5.21205e-09
6.15468e-09
6.30381e-09
6.780346e-09
7.159866e-09
7.520644e-09
7.726196e-09
7.982182e-09
8.13094e-09
8.350233e-09
9.192261e-09
8.520491e-11
3.617573e-09
3.497542e-09
7.100496e-09
3.182895e-09
5.280181e-09
4.901064e-09
4.692639e-09
6.235753e-09
5.714144e-09
6.284838e-09
6.710746e-09
7.076053e-09
7.230413e-09
7.516912e-09
7.663445e-09
7.867442e-09
8.098239e-09
8.625945e-11
3.012474e-09
2.659083e-09
4.153767e-09
4.084316e-09
3.744172e-09
4.27494e-09
4.299027e-09
4.572757e-09
5.406459e-09
5.901717e-09
6.309397e-09
6.723324e-09
6.664883e-09
7.072863e-09
7.230095e-09
7.4564e-09
7.583135e-09
8.758656e-11
2.154947e-09
2.189138e-09
2.401475e-09
3.597269e-09
3.359031e-09
3.74342e-09
4.022636e-09
4.545107e-09
5.053956e-09
5.59807e-09
5.965573e-09
6.434345e-09
6.417933e-09
6.608672e-09
6.794695e-09
7.279783e-09
6.912348e-09
9.082279e-11
1.977191e-09
2.502554e-09
1.750574e-09
2.808385e-09
3.040933e-09
3.379845e-09
3.826388e-09
4.075517e-09
4.736662e-09
5.375833e-09
5.675529e-09
5.982766e-09
5.886062e-09
6.16947e-09
6.344599e-09
6.472754e-09
6.592086e-09
9.352347e-11
1.32728e-09
1.946425e-09
1.560733e-09
1.801934e-09
4.199504e-09
3.155347e-09
3.208332e-09
4.610055e-09
4.623068e-09
5.202788e-09
5.368134e-09
5.324842e-09
5.655302e-09
5.794536e-09
5.945705e-09
5.869898e-09
6.516575e-09
9.945486e-11
1.025999e-09
1.293129e-09
1.452564e-09
1.635245e-09
3.24196e-09
3.040778e-09
4.487353e-09
4.194959e-09
4.308475e-09
4.793283e-09
5.043759e-09
5.125465e-09
5.28527e-09
5.405642e-09
6.023364e-09
5.772303e-09
6.12132e-09
1.044646e-10
6.251495e-10
1.051722e-09
1.488081e-09
1.931865e-09
2.526897e-09
2.997079e-09
4.100933e-09
3.847479e-09
4.185671e-09
4.480066e-09
4.698235e-09
4.550349e-09
4.943853e-09
5.023325e-09
5.015725e-09
5.017772e-09
5.523768e-09
1.356965e-10
2.918503e-10
9.960701e-10
1.386727e-09
1.781564e-09
2.354782e-09
3.017439e-09
3.731129e-09
3.92045e-09
4.098333e-09
4.208334e-09
4.375429e-09
4.34045e-09
4.437457e-09
4.67511e-09
4.473417e-09
5.125032e-09
5.182561e-09
1.624637e-10
1.87314e-10
1.603537e-09
1.214984e-09
1.703948e-09
2.524732e-09
3.256622e-09
3.752192e-09
3.832903e-09
3.887587e-09
3.853299e-09
3.795077e-09
3.907776e-09
4.009647e-09
4.286683e-09
4.326759e-09
4.599363e-09
4.812235e-09
5.657341e-07
2.115836e-10
6.376623e-10
1.327349e-09
2.330105e-09
3.266149e-09
3.726166e-09
3.735645e-09
3.649998e-09
3.550297e-09
3.521871e-09
3.386165e-09
3.532705e-09
3.68701e-09
3.756078e-09
3.921694e-09
4.174068e-09
4.424952e-09
0.0003502827
1.269886e-10
9.809702e-10
1.308876e-09
2.463568e-09
3.889492e-09
3.993903e-09
3.527895e-09
3.336098e-09
3.102428e-09
3.139243e-09
2.928862e-09
3.208337e-09
3.517099e-09
3.235102e-09
3.536988e-09
3.728827e-09
3.958627e-09
0.001380553
1.03814e-10
1.36265e-09
2.217215e-09
3.126977e-09
4.459462e-09
3.478684e-09
3.230449e-09
2.83612e-09
2.792875e-09
2.802231e-09
2.711597e-09
2.861399e-09
2.998076e-09
2.899078e-09
3.183056e-09
3.393287e-09
3.688396e-09
0.01865864
9.127352e-11
1.043683e-09
2.54268e-09
4.051277e-09
4.076033e-09
2.917252e-09
2.506994e-09
2.489244e-09
2.406325e-09
2.236095e-09
2.493042e-09
2.545999e-09
2.335557e-09
2.719585e-09
2.891056e-09
3.185922e-09
3.082094e-09
0.05037955
9.472835e-11
1.540134e-09
3.280075e-09
4.111856e-09
3.074002e-09
2.3901e-09
2.193033e-09
2.085831e-09
2.14385e-09
1.934609e-09
2.168419e-09
2.121403e-09
2.324525e-09
2.453408e-09
2.685635e-09
2.617486e-09
3.122105e-09
0.02743096
8.189325e-11
1.463408e-09
1.817851e-09
5.753325e-09
2.263034e-09
2.169182e-09
1.893957e-09
1.755997e-09
1.909633e-09
1.743307e-09
1.932872e-09
1.730588e-09
2.180466e-09
2.298196e-09
2.180358e-09
2.620122e-09
2.674731e-09
0.03455788
8.097574e-11
6.824306e-10
1.210175e-09
4.020259e-09
1.85497e-09
1.788337e-09
1.557399e-09
1.444181e-09
1.449445e-09
1.471025e-09
1.585089e-09
1.673644e-09
1.814589e-09
1.781384e-09
2.303673e-09
2.220601e-09
2.483771e-09
0.09421981
8.596495e-11
3.207031e-10
1.621843e-09
1.534394e-09
1.655434e-09
1.315935e-09
1.238794e-09
1.19543e-09
1.277528e-09
1.288153e-09
1.328563e-09
1.496241e-09
1.521414e-09
1.86839e-09
1.676166e-09
2.229609e-09
2.180466e-09
0.02870485
1.166215e-10
5.237153e-10
8.031596e-10
1.03431e-09
1.078918e-09
1.019124e-09
9.800177e-10
1.003976e-09
1.030064e-09
1.050376e-09
1.051528e-09
1.227298e-09
1.483049e-09
1.361279e-09
1.893226e-09
1.659677e-09
2.297272e-09
0.009207146
2.634551e-10
1.290357e-09
4.440156e-10
6.66225e-10
7.310431e-10
7.891432e-10
7.439998e-10
7.093491e-10
8.815896e-10
8.085375e-10
9.745883e-10
1.118033e-09
1.057825e-09
1.459505e-09
1.351729e-09
1.839156e-09
1.704957e-09
0.7754049
1.736352e-10
2.032308e-10
2.395226e-10
4.854142e-10
6.323549e-10
7.001313e-10
8.377113e-10
8.585016e-10
1.044505e-09
1.210813e-09
1.313698e-09
1.436841e-09
1.894135e-09
0.2002181
0.0003350515
4.688629e-10
6.001182e-10
7.555348e-10
8.92146e-10
9.00258e-10
1.363941e-09
1.323973e-09
1.57836e-09
0.1372659
4.431422e-10
6.416928e-10
7.104706e-10
9.444556e-10
1.07519e-09
1.213868e-09
1.521003e-09
6.663908e-10
6.34188e-10
7.748233e-10
9.975301e-10
1.12097e-09
1.344049e-09
6.658752e-10
7.351859e-10
8.441988e-10
1.135862e-09
1.330877e-09
5.222158e-10
6.402479e-10
8.646645e-10
1.019606e-09
1.228038e-09
4.968276e-10
6.448072e-10
7.89995e-10
9.875066e-10
1.189789e-09
4.782929e-10
6.165562e-10
7.834487e-10
9.688607e-10
1.170719e-09
4.803494e-10
6.149891e-10
8.019319e-10
9.818441e-10
1.173378e-09
4.818682e-10
6.194859e-10
7.89871e-10
1.037999e-09
1.190007e-09
4.685347e-10
4.972037e-10
7.106818e-10
8.277442e-10
1.030193e-09
1.275233e-09
0.2172103
6.009568e-10
5.783296e-10
7.418191e-10
9.123083e-10
1.090544e-09
1.279888e-09
0.2023386
1.208502e-05
5.819531e-10
5.751122e-10
6.618799e-10
8.632869e-10
9.796195e-10
1.211731e-09
1.455029e-09
0.09002406
2.06366e-10
1.872761e-10
3.940288e-10
5.652146e-10
5.275433e-10
6.736133e-10
8.226273e-10
8.552692e-10
1.094676e-09
1.184102e-09
1.46277e-09
0.007516905
3.93933e-10
4.238952e-10
4.543536e-10
4.117168e-10
4.411731e-10
4.422278e-10
4.388013e-10
5.277951e-10
5.452445e-10
6.157265e-10
6.387318e-10
7.252342e-10
9.16831e-10
1.060853e-09
1.158037e-09
1.356403e-09
1.580568e-09
0.009364279
1.879845e-10
4.873124e-10
3.21346e-10
4.361937e-10
5.106833e-10
5.385795e-10
5.53595e-10
6.051642e-10
6.635675e-10
6.697683e-10
8.167503e-10
9.140711e-10
9.306938e-10
1.195337e-09
1.253245e-09
1.666335e-09
1.612216e-09
0.0278247
1.197811e-10
2.65681e-10
4.418864e-10
5.447726e-10
5.701724e-10
6.410961e-10
6.805767e-10
6.941595e-10
7.677394e-10
7.914809e-10
9.509695e-10
1.000047e-09
1.231755e-09
1.205934e-09
1.578967e-09
1.542981e-09
1.955976e-09
0.02916909
9.562421e-11
3.058177e-10
3.950153e-10
5.236606e-10
6.673791e-10
7.284145e-10
7.822796e-10
8.446765e-10
9.027425e-10
9.74614e-10
9.942509e-10
1.195812e-09
1.249617e-09
1.531326e-09
1.550662e-09
1.890289e-09
1.899643e-09
0.04275692
9.284832e-11
4.96079e-10
4.63447e-10
7.037506e-10
8.470919e-10
8.487291e-10
9.167191e-10
9.835083e-10
1.069171e-09
1.274798e-09
1.194653e-09
1.337882e-09
1.421008e-09
1.634354e-09
1.817561e-09
1.866463e-09
2.390726e-09
0.054587
1.117306e-10
8.95772e-10
7.096448e-10
8.371256e-10
9.494743e-10
9.855908e-10
1.065773e-09
1.142388e-09
1.158555e-09
1.177545e-09
1.40415e-09
1.595296e-09
1.607955e-09
1.795312e-09
1.939451e-09
2.194953e-09
2.274765e-09
0.05817993
1.075236e-10
9.218093e-10
8.103304e-10
9.545048e-10
1.049751e-09
1.154646e-09
1.213469e-09
1.268612e-09
1.352562e-09
1.469589e-09
1.492123e-09
1.662644e-09
1.812599e-09
1.915384e-09
2.180143e-09
2.345843e-09
2.62533e-09
0.03651256
1.056669e-10
7.932191e-10
1.220243e-09
1.219917e-09
1.142197e-09
1.240054e-09
1.347164e-09
1.428008e-09
1.505542e-09
1.661692e-09
1.832952e-09
1.927712e-09
2.255701e-09
2.253053e-09
2.379178e-09
2.602472e-09
2.788726e-09
0.001549436
1.384151e-10
1.530917e-09
1.192343e-09
1.284309e-09
1.393364e-09
1.387067e-09
1.499076e-09
1.595754e-09
1.693219e-09
1.783141e-09
1.880017e-09
2.047759e-09
2.185529e-09
2.506237e-09
2.609937e-09
2.817865e-09
3.027301e-09
6.273438e-05
1.723917e-10
5.980369e-10
9.642617e-10
1.497119e-09
1.664486e-09
1.597152e-09
1.67391e-09
1.779508e-09
1.885544e-09
2.011674e-09
2.272426e-09
2.32812e-09
2.427061e-09
2.653287e-09
2.852925e-09
3.016499e-09
3.205144e-09
1.46483e-10
3.739522e-10
1.23028e-09
2.067049e-09
2.21531e-09
2.098659e-09
1.905178e-09
1.904067e-09
1.987887e-09
2.091799e-09
2.20954e-09
2.418519e-09
2.479581e-09
2.689003e-09
2.780937e-09
3.021905e-09
3.251955e-09
3.455543e-09
1.421376e-10
4.597751e-10
4.359666e-09
2.458682e-09
2.559757e-09
2.437599e-09
2.284674e-09
2.184832e-09
2.294649e-09
2.351532e-09
2.466672e-09
2.663491e-09
2.777904e-09
2.943535e-09
3.052118e-09
3.137645e-09
3.43394e-09
3.71858e-09
9.871695e-11
1.170921e-09
2.460064e-09
5.583639e-09
4.364761e-09
2.912273e-09
2.815787e-09
2.388784e-09
2.748799e-09
2.691874e-09
2.751785e-09
2.834412e-09
2.853058e-09
3.128512e-09
3.356746e-09
3.764037e-09
3.602334e-09
3.96156e-09
9.520169e-11
1.938438e-09
2.684905e-09
3.016952e-09
8.299714e-09
2.949079e-09
3.736217e-09
2.734665e-09
2.936484e-09
3.050411e-09
3.039237e-09
3.125705e-09
3.385837e-09
3.482168e-09
3.675057e-09
4.050888e-09
4.300539e-09
4.338066e-09
8.980376e-11
2.311318e-09
2.888359e-09
4.243152e-09
6.827049e-09
3.224125e-09
3.958109e-09
4.008086e-09
3.332334e-09
3.425762e-09
3.311331e-09
3.38444e-09
3.563146e-09
3.67214e-09
3.926481e-09
4.091326e-09
4.18863e-09
4.653575e-09
8.32579e-11
1.094411e-09
2.60863e-09
2.652945e-09
1.826406e-09
4.786094e-09
4.653144e-09
4.326498e-09
3.978703e-09
3.98941e-09
3.788434e-09
3.792242e-09
4.056836e-09
4.07112e-09
4.274734e-09
4.451019e-09
4.71564e-09
4.750046e-09
8.506254e-11
1.88978e-09
2.605453e-09
1.706243e-09
3.146336e-09
4.586265e-09
4.643353e-09
4.753239e-09
4.274439e-09
4.230706e-09
4.195817e-09
4.191066e-09
4.341343e-09
4.454536e-09
4.621139e-09
4.842071e-09
5.222925e-09
5.358359e-09
8.480039e-11
2.582214e-09
2.791699e-09
2.602273e-09
3.01631e-09
4.814505e-09
4.661837e-09
4.865906e-09
5.223419e-09
4.698585e-09
4.61135e-09
4.588016e-09
4.666344e-09
4.595716e-09
4.958658e-09
5.186061e-09
5.41646e-09
5.726166e-09
8.425437e-11
2.623294e-09
2.868614e-09
2.936604e-09
6.409884e-09
4.533497e-09
4.775481e-09
5.574197e-09
4.202736e-09
4.935806e-09
4.971777e-09
4.966242e-09
4.991043e-09
5.177842e-09
5.344749e-09
5.55928e-09
5.771611e-09
6.048919e-09
8.365048e-11
2.746151e-09
3.246906e-09
3.819822e-09
6.244383e-09
3.990682e-09
4.901724e-09
5.792535e-09
5.285585e-09
5.285784e-09
5.334154e-09
5.35363e-09
5.386491e-09
5.546236e-09
5.713648e-09
5.938503e-09
6.193809e-09
6.659841e-09
8.306946e-11
2.949833e-09
3.778524e-09
4.865903e-09
5.35244e-09
4.555351e-09
5.177154e-09
5.820054e-09
5.846082e-09
5.752573e-09
5.755131e-09
5.761365e-09
5.768053e-09
5.959933e-09
6.023136e-09
6.327369e-09
6.555836e-09
6.724986e-09
8.25525e-11
3.182662e-09
4.188929e-09
5.422346e-09
5.393971e-09
4.821358e-09
5.405744e-09
6.04599e-09
6.294324e-09
6.206733e-09
6.195618e-09
6.185312e-09
6.215422e-09
6.513278e-09
6.407723e-09
6.742665e-09
6.955598e-09
7.137104e-09
8.209319e-11
3.424493e-09
4.547201e-09
5.927745e-09
5.590242e-09
5.045937e-09
5.566726e-09
6.325126e-09
6.704724e-09
6.652271e-09
6.638029e-09
6.616447e-09
6.672915e-09
6.981329e-09
6.7877e-09
7.166598e-09
7.38402e-09
7.653427e-09
8.167892e-11
3.668701e-09
4.856357e-09
6.420359e-09
5.837939e-09
5.284869e-09
5.768175e-09
6.601273e-09
7.069107e-09
7.09453e-09
7.093809e-09
7.040242e-09
7.157309e-09
7.491652e-09
7.508326e-09
7.648121e-09
7.811482e-09
8.039048e-09
8.131309e-11
3.867778e-09
5.120477e-09
6.889217e-09
6.057785e-09
5.538852e-09
5.991502e-09
6.793114e-09
7.432228e-09
7.556029e-09
7.482742e-09
7.561006e-09
7.631461e-09
7.729015e-09
7.54548e-09
8.013027e-09
8.245757e-09
8.482834e-09
8.098527e-11
4.108345e-09
5.414005e-09
7.336687e-09
6.248888e-09
5.809535e-09
6.239021e-09
7.014502e-09
7.84885e-09
7.908007e-09
8.051096e-09
8.076737e-09
8.121539e-09
8.160684e-09
8.279149e-09
8.522899e-09
8.710137e-09
8.93886e-09
8.069481e-11
4.274155e-09
5.654927e-09
7.713764e-09
6.422061e-09
6.085999e-09
6.48606e-09
7.281662e-09
8.046011e-09
8.556143e-09
8.578149e-09
8.599283e-09
8.635013e-09
8.674471e-09
8.801131e-09
9.012745e-09
9.184622e-09
9.40866e-09
8.044256e-11
4.435717e-09
5.898431e-09
8.02892e-09
6.57773e-09
6.349391e-09
6.753102e-09
7.459694e-09
8.475752e-09
9.016672e-09
9.093853e-09
9.151685e-09
9.168225e-09
9.191954e-09
9.30428e-09
9.490708e-09
9.671243e-09
9.879627e-09
8.021485e-11
4.632633e-09
6.200918e-09
8.176062e-09
6.735592e-09
6.696332e-09
6.924583e-09
7.751393e-09
8.651663e-09
9.384493e-09
9.648567e-09
9.729156e-09
9.73367e-09
9.750586e-09
9.830661e-09
9.999415e-09
1.017796e-08
1.035705e-08
8.003294e-11
4.917005e-09
6.550835e-09
8.238639e-09
7.21927e-09
6.713386e-09
7.200812e-09
7.862589e-09
9.013959e-09
9.733295e-09
1.02359e-08
1.032078e-08
1.032826e-08
1.030807e-08
1.035389e-08
1.036712e-08
1.066997e-08
1.085384e-08
7.986434e-11
5.19478e-09
6.841753e-09
8.840931e-09
6.954035e-09
6.856767e-09
7.220885e-09
8.269819e-09
9.38631e-09
1.005298e-08
1.079262e-08
1.091721e-08
1.091255e-08
1.089877e-08
1.11926e-08
1.086176e-08
1.121749e-08
1.136923e-08
7.969259e-11
5.39783e-09