/*--------------------------------*- C++ -*----------------------------------*\
| =========                 |                                                 |
| \\      /  F ield         | OpenFOAM: The Open Source CFD Toolbox           |
|  \\    /   O peration     | Version:  2206                                  |
|   \\  /    A nd           | Website:  www.openfoam.com                      |
|    \\/     M anipulation  |                                                 |
\*---------------------------------------------------------------------------*/
FoamFile
{
    version     2.0;
    format      ascii;
    arch        "LSB;label=32;scalar=64";
    class       volScalarField;
    location    "2";
    object      omega.b_0;
}
// * * * * * * * * * * * * * * * * * * * * * * * * * * * * * * * * * * * * * //

dimensions      [0 0 -1 0 0 0 0];

internalField   nonuniform List<scalar> 
13078
(
6.495683
0.4228996
0.322436
0.3216214
0.3223745
0.3232861
0.3243454
6.57947
0.4092528
0.3217188
0.3215375
0.3223413
0.3232613
0.3243212
6.585492
0.4049641
0.3215835
0.3214666
0.322295
0.3232274
0.3242915
6.591679
0.4032697
0.3215074
0.3214119
0.3222515
0.3231925
0.32426
6.598133
0.4026812
0.3214643
0.3213845
0.322216
0.3231596
0.3242291
6.604802
0.4023895
0.3214432
0.3213678
0.3222004
0.3231316
0.3241996
6.611848
0.4022935
0.3214416
0.3213555
0.3221899
0.3231212
0.3241738
6.619131
0.4023053
0.3214482
0.3213489
0.3221836
0.3231143
0.3241658
6.626655
0.4023331
0.3214475
0.3213471
0.3221801
0.3231094
0.3241601
6.634488
0.40241
0.3214491
0.3213465
0.322178
0.3231059
0.3241557
6.642682
0.4025191
0.3214513
0.3213464
0.3221765
0.3231032
0.3241519
6.651186
0.4026516
0.3214536
0.3213464
0.3221754
0.323101
0.3241486
6.660084
0.4028025
0.3214561
0.3213464
0.3221745
0.323099
0.3241456
6.669375
0.4029697
0.3214584
0.321346
0.3221732
0.323097
0.3241426
6.679072
0.4031504
0.3214614
0.3213413
0.3221655
0.3230944
0.3241396
6.689206
0.4033436
0.3214645
0.3213353
0.3221594
0.3230919
0.3241365
6.69983
0.4035478
0.3214669
0.321334
0.3221576
0.3230896
0.3241333
6.710875
0.4037625
0.3214695
0.321333
0.3221558
0.3230873
0.32413
6.722538
0.4039891
0.3214721
0.3213318
0.3221537
0.3230841
0.3241265
6.734686
0.4042259
0.3214747
0.3213301
0.3221449
0.3230713
0.3241218
6.747501
0.404475
0.3214774
0.3213281
0.3221341
0.3230609
0.3241171
6.760848
0.4047355
0.3214804
0.3213267
0.3221307
0.323057
0.3241128
6.77492
0.4050088
0.3214834
0.321325
0.3221279
0.3230528
0.3241072
6.789678
0.4052962
0.3214867
0.3213233
0.3221241
0.323039
0.3240878
6.805169
0.405599
0.3214904
0.3213215
0.32212
0.3230218
0.3240717
6.821431
0.4059197
0.3214943
0.3213196
0.3221166
0.3230156
0.3240643
6.838694
0.4062545
0.3214989
0.3213177
0.3221129
0.32301
0.3240575
6.860782
0.4066597
0.3215053
0.3213158
0.3221088
0.3230026
0.3240356
6.889513
0.4070057
0.3215104
0.3213139
0.3221046
0.322995
0.3240064
6.964902
0.4081588
0.3215327
0.3213122
0.3221004
0.3229887
0.3239969
7.077899
0.4093071
0.3215286
0.3213097
0.3220959
0.3229814
0.323984
7.116328
0.4113473
0.3215181
0.3213046
0.3220902
0.322974
0.3239721
7.153721
0.4139635
0.3215929
0.3213032
0.3220815
0.3229654
0.3239618
7.186842
0.4149069
0.3216283
0.3213035
0.3220705
0.3229514
0.3239472
7.221338
0.415886
0.3216455
0.3212881
0.3220761
0.322929
0.3239265
7.257502
0.4169406
0.3216683
0.3212437
0.3220403
0.3229212
0.3239105
7.295302
0.4180546
0.3216889
0.3212263
0.3219729
0.3229093
0.3239041
7.335033
0.419297
0.3217001
0.3211947
0.3219359
0.3228577
0.3239029
7.385167
0.4207897
0.3217096
0.321152
0.3218797
0.3227618
0.3239113
7.498024
0.4237404
0.3217292
0.321074
0.3218304
0.3227277
0.3239106
7.673723
0.4287831
0.321663
0.3209764
0.3217286
0.3226344
0.3237699
7.748894
0.434046
0.3216452
0.3207713
0.3215209
0.3224839
0.3236929
7.810546
0.4366239
0.3214728
0.320479
0.3212919
0.3222971
0.3236216
7.878361
0.4383552
0.3211691
0.3201715
0.3210862
0.3221701
0.3235066
7.986779
0.4397938
0.3208918
0.319934
0.3208093
0.3220071
0.3233225
8.166377
0.4413522
0.3206254
0.3196888
0.3205323
0.3216142
0.3229779
8.255058
0.4430934
0.3204639
0.3194694
0.3201448
0.32113
0.3223419
8.326458
0.4425715
0.3201247
0.3191607
0.3197289
0.3206819
0.3216718
8.39256
0.4416679
0.3197405
0.3187201
0.31928
0.3201591
0.3211105
8.454512
0.4403819
0.319342
0.3183046
0.318841
0.319606
0.3205975
8.544983
0.4416028
0.3190391
0.3179554
0.3184454
0.3191212
0.3200138
8.785634
0.4448324
0.3188408
0.3177743
0.318249
0.3188517
0.3195675
8.871857
0.4445743
0.3185061
0.3173789
0.3179333
0.3186341
0.31934
8.908514
0.4440892
0.3182032
0.3171115
0.317715
0.3184401
0.319177
8.926436
0.4442798
0.3179913
0.3169189
0.3175364
0.3182478
0.3189457
8.928723
0.4446468
0.3178008
0.3167113
0.3173294
0.318013
0.3187712
8.928231
0.4446966
0.3177017
0.3166059
0.3172465
0.3179331
0.3186306
8.925797
0.4448284
0.3178578
0.3167639
0.3173596
0.3180297
0.3187162
8.907846
0.4448852
0.3180549
0.3169255
0.31745
0.3180994
0.3187386
8.87074
0.4447606
0.3182447
0.3170802
0.3175194
0.3181118
0.3187244
8.784278
0.4439192
0.3184571
0.3173405
0.3177599
0.3183259
0.3189369
8.543687
0.4395219
0.3187117
0.3176875
0.3180548
0.318584
0.3193114
8.453752
0.4368466
0.3189774
0.3179559
0.3183398
0.3189177
0.3197201
8.392089
0.4368308
0.3193266
0.3183038
0.3187034
0.3193974
0.3201709
8.326415
0.4372575
0.3197102
0.318714
0.3191892
0.320028
0.3208166
8.255059
0.4385137
0.3201482
0.3191547
0.3197053
0.3205292
0.3215093
8.166377
0.4378187
0.3204865
0.3195119
0.3201863
0.3210575
0.3221372
7.98678
0.4365538
0.3208447
0.319909
0.3205745
0.3215188
0.3225568
7.878362
0.4351352
0.3211338
0.3202375
0.3210001
0.3218147
0.3229269
7.810546
0.4334795
0.3214244
0.3205329
0.3212922
0.322134
0.3231954
7.749108
0.4310621
0.3216126
0.3208079
0.3215146
0.3224521
0.3234733
7.678126
0.4268094
0.3216566
0.3210045
0.3217305
0.3226074
0.3236761
7.535473
0.4229716
0.3216973
0.3211321
0.3218607
0.3227168
0.3238545
7.439014
0.4207189
0.321692
0.3211892
0.3219205
0.3227836
0.3239111
7.388641
0.4195484
0.321683
0.3212168
0.3219548
0.3228764
0.3239017
7.344497
0.4180262
0.3216591
0.3212334
0.3220033
0.3229206
0.3238919
7.300796
0.416722
0.3216447
0.3212471
0.3220546
0.3229121
0.323904
7.237692
0.4156348
0.3216312
0.3212881
0.3220712
0.3229311
0.3239284
7.19073
0.4146116
0.3216151
0.3213011
0.3220698
0.3229511
0.3239466
7.154755
0.413811
0.3215842
0.3213005
0.3220794
0.3229631
0.3239592
7.116393
0.4112868
0.321513
0.3213027
0.322088
0.3229715
0.3239695
7.077899
0.4093219
0.3215268
0.3213078
0.3220938
0.3229792
0.3239816
6.964902
0.4082249
0.3215325
0.3213105
0.3220985
0.3229867
0.3239947
6.889513
0.4070998
0.3215114
0.3213125
0.322103
0.3229933
0.3240045
6.860782
0.4067701
0.321507
0.3213145
0.3221074
0.3230011
0.3240337
6.838694
0.4063711
0.321501
0.3213166
0.3221116
0.3230085
0.3240559
6.821431
0.4060362
0.3214966
0.3213187
0.3221154
0.3230143
0.324063
6.805169
0.4057113
0.3214927
0.3213207
0.3221191
0.3230208
0.3240706
6.789678
0.4054019
0.3214891
0.3213225
0.3221232
0.3230381
0.3240868
6.77492
0.4051065
0.3214856
0.3213244
0.3221272
0.3230519
0.3241065
6.760848
0.4048245
0.3214825
0.3213262
0.3221301
0.3230563
0.3241121
6.747501
0.4045552
0.3214793
0.3213278
0.3221337
0.3230604
0.3241165
6.734686
0.4042973
0.3214764
0.3213299
0.3221447
0.323071
0.3241215
6.722538
0.404052
0.3214737
0.3213318
0.3221535
0.3230839
0.3241263
6.710875
0.4038168
0.3214711
0.3213329
0.3221557
0.3230871
0.3241298
6.69983
0.4035937
0.3214684
0.3213341
0.3221576
0.3230895
0.3241331
6.689206
0.403381
0.3214659
0.3213355
0.3221595
0.3230918
0.3241363
6.679072
0.4031788
0.3214627
0.3213417
0.3221656
0.3230943
0.3241395
6.669375
0.4029884
0.3214597
0.3213464
0.3221734
0.323097
0.3241424
6.660084
0.4028103
0.3214573
0.321347
0.3221747
0.3230989
0.3241453
6.651186
0.4026462
0.3214547
0.3213471
0.3221756
0.3231007
0.324148
6.642682
0.4024972
0.3214522
0.3213471
0.3221765
0.3231026
0.3241509
6.634488
0.4023667
0.3214498
0.3213471
0.3221775
0.3231047
0.324154
6.626655
0.4022602
0.3214477
0.3213472
0.3221789
0.3231073
0.3241576
6.619131
0.4021894
0.3214471
0.3213478
0.3221809
0.3231107
0.3241621
6.611848
0.4021137
0.3214375
0.3213518
0.3221846
0.3231156
0.3241685
6.604802
0.4021124
0.321433
0.3213595
0.3221911
0.3231231
0.3241924
6.598133
0.4022502
0.3214421
0.321368
0.322201
0.3231474
0.3242197
6.591679
0.4025405
0.321463
0.3213837
0.3222293
0.3231765
0.3242489
6.585492
0.4032349
0.3215015
0.3214227
0.3222656
0.3232089
0.32428
6.57947
0.4043027
0.321547
0.3214775
0.3223083
0.3232438
0.3243116
6.495683
0.4043077
0.3216476
0.3215487
0.3223582
0.3232801
0.324343
0.3255978
0.3271744
0.3292796
0.3312987
0.3348973
0.3406421
0.3551919
0.3255706
0.3271395
0.3292338
0.3312451
0.334831
0.3405501
0.3642147
0.3255402
0.3271036
0.3291897
0.3319393
0.3347724
0.3404572
0.3638859
0.3255086
0.3270671
0.3291425
0.3311362
0.3347002
0.3403645
0.3634908
0.3254775
0.3270303
0.3290974
0.3310766
0.3346338
0.3402723
0.3631598
0.3254469
0.3269934
0.3290511
0.3310208
0.3345685
0.340181
0.3628232
0.3254174
0.3269572
0.3290053
0.3309671
0.3345503
0.3400913
0.3624586
0.3253907
0.3269215
0.3289601
0.3309146
0.3345334
0.3400026
0.3620248
0.3253833
0.3268888
0.328917
0.3308612
0.3344814
0.3399213
0.3615225
0.3253778
0.3268802
0.3288771
0.3308081
0.33443
0.3398405
0.3609509
0.3253731
0.3268738
0.3288664
0.3307568
0.334379
0.3397603
0.3603567
0.3253686
0.3268675
0.3288583
0.3307456
0.3343278
0.3396801
0.3595998
0.3253643
0.3268614
0.32885
0.3307356
0.334319
0.3395983
0.3588419
0.3253601
0.3268552
0.3288415
0.3307253
0.3343092
0.3395826
0.358226
0.3253558
0.3268488
0.3288327
0.3307145
0.3342988
0.339564
0.357449
0.3253514
0.3268422
0.3288237
0.3307033
0.3342877
0.3395441
0.3566176
0.3253469
0.3268353
0.3288143
0.3306913
0.3342711
0.3395233
0.3560989
0.3253421
0.3268283
0.3288044
0.3306734
0.3341151
0.3395012
0.3555409
0.3253372
0.3268214
0.3287942
0.3306603
0.3340942
0.3394786
0.3550648
0.3253319
0.3268141
0.3287835
0.3306467
0.3340772
0.3394548
0.3545528
0.3253265
0.3268064
0.3287724
0.3306325
0.3340594
0.3394299
0.3540458
0.3253206
0.3267982
0.3287607
0.3306174
0.3340409
0.339404
0.353682
0.3253144
0.3267895
0.3287474
0.3306057
0.3340178
0.3393771
0.3533583
0.3253062
0.3267803
0.3287359
0.331289
0.333878
0.3393359
0.3530674
0.3252979
0.3267706
0.3287195
0.3305756
0.3337989
0.3393022
0.3528245
0.3252901
0.3267605
0.3287085
0.3305497
0.3337709
0.3392705
0.3525894
0.3252795
0.3267484
0.3286907
0.3305288
0.3337427
0.3392321
0.3523955
0.3252483
0.3267338
0.3286835
0.330508
0.3337033
0.3389197
0.3522114
0.3252248
0.3263299
0.3281329
0.33049
0.3336677
0.3388017
0.3520624
0.3252251
0.3263229
0.3281139
0.3304617
0.3336348
0.338755
0.3519447
0.3251699
0.3262868
0.3280965
0.3304376
0.3336006
0.3385444
0.3518273
0.3251313
0.3262148
0.328077
0.3304117
0.3335631
0.3382996
0.3517181
0.3251168
0.3261979
0.3280442
0.3303847
0.3335244
0.3382439
0.3516384
0.3250988
0.32617
0.3279807
0.3303583
0.3334881
0.3381544
0.3501579
0.3250818
0.3261722
0.3279482
0.3303432
0.333494
0.3381469
0.350203
0.3250886
0.3261858
0.3278608
0.3304169
0.3336027
0.3381639
0.3465573
0.325121
0.3262254
0.3279631
0.3304483
0.3336986
0.3380952
0.3477407
0.3251637
0.3263062
0.3280746
0.3305099
0.3337817
0.3383265
0.3476012
0.3252447
0.3264394
0.3282177
0.3305681
0.3341076
0.3390443
0.3465276
0.3252639
0.3266138
0.3285026
0.3311822
0.3347282
0.3396639
0.3468732
0.3254026
0.3267845
0.3290714
0.3319638
0.3350812
0.3395316
0.3480895
0.325376
0.3268497
0.3294171
0.3321726
0.3351587
0.3388385
0.3472298
0.3253734
0.3270412
0.3293657
0.3318966
0.334954
0.3385622
0.3467889
0.3254694
0.327079
0.3294543
0.3316921
0.3345821
0.3386038
0.3464245
0.3251225
0.3270115
0.329034
0.3316954
0.3342141
0.3383894
0.3464069
0.3246489
0.3266806
0.3290456
0.3310078
0.3341081
0.3372768
0.3458085
0.3239544
0.3261086
0.3284295
0.3308824
0.3329105
0.3368622
0.3431518
0.3234664
0.3254822
0.3281818
0.3301324
0.3327228
0.3354977
0.341458
0.322656
0.3248871
0.3274769
0.3297553
0.3319271
0.3353331
0.3399993
0.3221337
0.3240572
0.326967
0.3292439
0.3315519
0.3347066
0.3392796
0.3216674
0.3234741
0.3260027
0.3284417
0.3310748
0.3340568
0.3382388
0.321131
0.3228759
0.3252152
0.3273786
0.3299261
0.3331052
0.3376376
0.3207288
0.3222594
0.3247494
0.3268374
0.3292065
0.3322893
0.3363378
0.3205515
0.3223346
0.3245144
0.3264873
0.3283129
0.3307969
0.3347711
0.3202905
0.3221192
0.3243746
0.32621
0.327806
0.3291515
0.3322807
0.3201
0.3220453
0.3241971
0.3258209
0.3271028
0.3285464
0.3199439
0.3219075
0.3236605
0.325329
0.3266813
0.3280301
0.3200258
0.3219586
0.3238863
0.3254996
0.3269012
0.3285662
0.3200354
0.3218303
0.3238074
0.3254787
0.3273513
0.3292252
0.3324636
0.3201184
0.3215846
0.3236379
0.3258645
0.3279442
0.3308651
0.3360504
0.320339
0.3216967
0.3239351
0.3262364
0.3286632
0.3315566
0.3357446
0.3206792
0.322089
0.3245235
0.326546
0.3292057
0.3321497
0.336274
0.321031
0.3221825
0.3251307
0.3273159
0.3294426
0.3326327
0.3371603
0.3216266
0.3230254
0.3255502
0.3275514
0.3299927
0.3328537
0.3374331
0.3224323
0.3236319
0.3259688
0.3281627
0.3302588
0.33311
0.3396802
0.3229737
0.3242618
0.326603
0.3284163
0.3308678
0.3337697
0.3406714
0.3235825
0.3249609
0.3269855
0.3291426
0.3312872
0.334835
0.3420522
0.3241313
0.3254518
0.327585
0.3294882
0.3322433
0.3356251
0.3434136
0.3244346
0.3259
0.3280162
0.3301505
0.3327034
0.3364563
0.3434455
0.3246888
0.3261046
0.3282072
0.3304078
0.3333029
0.3368424
0.3444019
0.3248552
0.3262573
0.3283058
0.330831
0.3337336
0.3371529
0.3445311
0.3251503
0.3264787
0.3284563
0.3311637
0.3340047
0.3377553
0.3460022
0.3252205
0.3265826
0.3282884
0.3308787
0.3340198
0.3385547
0.3465469
0.3251659
0.3264677
0.3281794
0.330541
0.3340846
0.3386914
0.3456281
0.325109
0.3263312
0.3280072
0.3303467
0.3338518
0.3385037
0.3459086
0.3250736
0.3262411
0.3278908
0.3304435
0.333623
0.3380739
0.3474142
0.3250616
0.3261997
0.3278084
0.3302939
0.33351
0.3380437
0.3479345
0.3250761
0.3261912
0.3278279
0.3302978
0.3334389
0.338056
0.3501582
0.3250964
0.3261784
0.327954
0.3303352
0.3334554
0.3381008
0.350371
0.3251133
0.3262263
0.3280239
0.3303643
0.3334951
0.3381986
0.3506732
0.3251277
0.3262511
0.3280539
0.3303923
0.3335362
0.3382535
0.3515824
0.3251668
0.3262631
0.3280829
0.3304198
0.3335754
0.3383403
0.3516752
0.325222
0.326334
0.3281021
0.3304457
0.3336128
0.3387365
0.3518139
0.3252223
0.3263739
0.3281207
0.3304681
0.333647
0.3387722
0.3519415
0.3252464
0.3267318
0.3286806
0.3305039
0.3336804
0.3388208
0.3520766
0.325278
0.3267466
0.3286885
0.3305276
0.3337225
0.3391059
0.3522591
0.3252888
0.3267589
0.3287047
0.3305456
0.3337545
0.3392498
0.3524609
0.3252968
0.3267693
0.3287196
0.330563
0.3337831
0.3392832
0.3526749
0.3253052
0.3267793
0.3287338
0.33058
0.3338131
0.3393147
0.3529189
0.3253136
0.3267886
0.3287471
0.3305966
0.3339679
0.3393561
0.3531954
0.3253198
0.3267973
0.3287597
0.3306125
0.3340303
0.3393889
0.3534817
0.3253258
0.3268057
0.3287717
0.3306275
0.3340495
0.3394156
0.3538334
0.3253315
0.3268135
0.328783
0.3306419
0.334068
0.3394412
0.3542112
0.3253369
0.326821
0.3287938
0.3306556
0.3340854
0.3394656
0.3546563
0.3253419
0.326828
0.328804
0.3306688
0.334102
0.3394891
0.355187
0.3253466
0.326835
0.328814
0.3306849
0.3341832
0.3395118
0.3557275
0.3253512
0.3268419
0.3288234
0.3306994
0.3342817
0.3395334
0.3562842
0.3253556
0.3268485
0.3288324
0.330711
0.3342931
0.339554
0.3568815
0.3253597
0.3268548
0.3288411
0.3307222
0.3343039
0.3395735
0.3576709
0.3253638
0.3268608
0.3288494
0.3307329
0.334314
0.3395915
0.3582793
0.3253678
0.3268667
0.3288575
0.3307433
0.3343237
0.3396403
0.3590035
0.3253719
0.3268726
0.3288654
0.3307535
0.3343534
0.3397204
0.359728
0.3253761
0.3268786
0.3288757
0.3307847
0.334404
0.3398007
0.3604486
0.3253809
0.3268867
0.3289152
0.3308376
0.3344551
0.3398813
0.3610656
0.3253873
0.3269186
0.3289577
0.3308909
0.3345065
0.3399622
0.3615978
0.3254128
0.3269534
0.3290023
0.3309449
0.334556
0.3400469
0.3621142
0.3254411
0.3269889
0.3290477
0.3309963
0.3345373
0.3401364
0.3625662
0.3254706
0.3270252
0.3290935
0.3310512
0.3346003
0.3402268
0.36295
0.3255012
0.3270621
0.3291398
0.3311063
0.3346658
0.3403185
0.3633034
0.3255331
0.3270995
0.3291863
0.3311616
0.3347317
0.3404107
0.3636659
0.3255651
0.3271365
0.3292327
0.3312164
0.3347979
0.3405035
0.3640447
0.3255967
0.3271738
0.329279
0.331271
0.3348641
0.3405982
0.3626663
3.633419
4.173041
4.099936
4.098731
4.09872
4.09872
4.09872
4.09872
4.09872
4.09872
4.09872
4.09872
4.09872
4.09872
4.09872
4.09872
4.09872
4.09872
3.839226
4.107947
4.098765
4.098723
4.098724
4.098724
4.098724
4.098724
4.098724
4.098724
4.098724
4.098724
4.098724
4.098724
4.098724
4.098724
4.098724
4.098724
3.814323
4.108538
4.098731
4.098724
4.098724
4.098724
4.098724
4.098724
4.098724
4.098724
4.098724
4.098724
4.098724
4.098724
4.098724
4.098724
4.098724
4.098724
3.798747
4.108835
4.098731
4.098724
4.098724
4.098724
4.098724
4.098724
4.098724
4.098724
4.098724
4.098724
4.098724
4.098724
4.098724
4.098724
4.098724
4.098724
3.777364
4.109133
4.098731
4.098724
4.098724
4.098724
4.098724
4.098724
4.098724
4.098724
4.098724
4.098724
4.098724
4.098724
4.098724
4.098724
4.098724
4.098724
3.746699
4.109824
4.098732
4.098724
4.098724
4.098724
4.098724
4.098724
4.098724
4.098724
4.098724
4.098724
4.098724
4.098724
4.098724
4.098724
4.098724
4.098724
3.711944
4.110703
4.098733
4.098724
4.098724
4.098724
4.098724
4.098724
4.098724
4.098724
4.098724
4.098724
4.098724
4.098724
4.098724
4.098724
4.098724
4.098724
3.670371
4.111454
4.098734
4.098724
4.098724
4.098724
4.098724
4.098724
4.098724
4.098724
4.098724
4.098724
4.098724
4.098724
4.098724
4.098724
4.098724
4.098724
3.630979
4.111693
4.098734
4.098724
4.098724
4.098724
4.098724
4.098724
4.098724
4.098724
4.098724
4.098724
4.098724
4.098724
4.098724
4.098724
4.098724
4.098724
3.588622
4.111827
4.098734
4.098724
4.098724
4.098724
4.098724
4.098724
4.098724
4.098724
4.098724
4.098724
4.098724
4.098724
4.098724
4.098724
4.098724
4.098724
3.543901
4.112265
4.098734
4.098724
4.098724
4.098724
4.098724
4.098724
4.098724
4.098724
4.098724
4.098724
4.098724
4.098724
4.098724
4.098724
4.098724
4.098724
3.498721
4.112436
4.098735
4.098724
4.098724
4.098724
4.098724
4.098724
4.098724
4.098724
4.098724
4.098724
4.098724
4.098724
4.098724
4.098724
4.098724
4.098724
3.455462
4.112921
4.098735
4.098724
4.098724
4.098724
4.098724
4.098724
4.098724
4.098724
4.098724
4.098724
4.098724
4.098724
4.098724
4.098724
4.098724
4.098724
3.395556
4.114327
4.098738
4.098724
4.098724
4.098724
4.098724
4.098724
4.098724
4.098724
4.098724
4.098724
4.098724
4.098724
4.098724
4.098724
4.098724
4.098724
3.208408
4.114559
4.098788
4.098724
4.098724
4.098724
4.098724
4.098724
4.098724
4.098724
4.098724
4.098724
4.098724
4.098724
4.098724
4.098724
4.098724
4.098724
3.147537
4.125462
4.099454
4.098738
4.098724
4.098724
4.098724
4.098724
4.098724
4.098724
4.098724
4.098724
4.098724
4.098724
4.098724
4.098724
4.098724
4.098724
3.084765
4.112897
4.098634
4.098956
4.098728
4.098724
4.098724
4.098724
4.098724
4.098724
4.098724
4.098724
4.098724
4.098724
4.098724
4.098724
4.098724
4.098724
3.015617
4.114731
4.098602
4.098707
4.098788
4.098724
4.098724
4.098724
4.098724
4.098724
4.098724
4.098724
4.098724
4.098724
4.098724
4.098724
4.098724
4.098724
2.947431
4.114486
4.098733
4.098681
4.098726
4.098732
4.098724
4.098724
4.098724
4.098724
4.098724
4.098724
4.098724
4.098724
4.098724
4.098724
4.098724
4.098724
2.879671
4.114532
4.098739
4.098722
4.098715
4.09873
4.098725
4.098724
4.098724
4.098724
4.098724
4.098724
4.098724
4.098724
4.098724
4.098724
4.098724
4.098724
2.813689
4.114051
4.098738
4.098724
4.098724
4.098723
4.098726
4.098724
4.098724
4.098724
4.098724
4.098724
4.098724
4.098724
4.098724
4.098724
4.098724
4.098724
2.751453
4.114283
4.098738
4.098724
4.098724
4.098724
4.098724
4.098724
4.098724
4.098724
4.098724
4.098724
4.098724
4.098724
4.098724
4.098724
4.098724
4.098724
2.69188
4.113497
4.098737
4.098724
4.098724
4.098724
4.098724
4.098724
4.098724
4.098724
4.098724
4.098724
4.098724
4.098724
4.098724
4.098724
4.098724
4.098724
2.632094
4.113351
4.098736
4.098724
4.098725
4.098724
4.098724
4.098724
4.098724
4.098724
4.098724
4.098724
4.098724
4.098724
4.098724
4.098724
4.098724
4.098724
2.573054
4.113451
4.098736
4.098724
4.098726
4.098724
4.098724
4.098724
4.098724
4.098724
4.098724
4.098724
4.098724
4.098724
4.098724
4.098724
4.098724
4.098724
2.514199
4.113074
4.098736
4.098724
4.098727
4.098724
4.098724
4.098724
4.098724
4.098724
4.098724
4.098724
4.098724
4.098725
4.098728
4.098724
4.098724
4.098724
2.453547
4.112722
4.098736
4.098725
4.098729
4.098724
4.098724
4.098724
4.098724
4.098724
4.098724
4.098724
4.098724
4.098724
4.098723
4.098724
4.098724
4.098724
2.393315
4.112486
4.098736
4.098726
4.098735
4.098724
4.098724
4.098724
4.098725
4.098724
4.098724
4.098724
4.098724
4.098724
4.098724
4.098724
4.098724
4.098724
2.333574
4.112182
4.098736
4.098751
4.098771
4.098724
4.098725
4.098725
4.098725
4.098724
4.098724
4.098724
4.098724
4.098724
4.098724
4.098724
4.098724
4.098724
2.2725
4.111457
4.098749
4.099647
4.099642
4.098728
4.098727
4.098735
4.09873
4.098724
4.098724
4.098724
4.098724
4.098724
4.098724
4.098724
4.098724
4.098725
2.210132
4.110951
4.098825
4.110755
4.109672
4.09878
4.098733
4.099
4.098822
4.098724
4.098724
4.098724
4.098724
4.098724
4.098724
4.098724
4.098724
4.098725
2.148981
4.112512
4.098827
4.102474
4.098635
4.098779
4.098741
4.099232
4.099297
4.098723
4.098724
4.098724
4.098725
4.098726
4.098724
4.098724
4.098724
4.098725
2.08715
4.123612
4.09966
4.106193
4.106489
4.098902
4.098758
4.098773
4.09872
4.098725
4.098724
4.098724
4.098727
4.098734
4.098724
4.098724
4.098726
4.098728
2.011746
4.138842
4.100873
4.130751
4.126835
4.103062
4.098783
4.098788
4.098763
4.098753
4.098724
4.098724
4.098726
4.098724
4.098724
4.098724
4.098731
4.098722
1.843344
4.101182
4.105101
4.119688
4.122044
4.127445
4.098888
4.099018
4.099038
4.099016
4.098724
4.098724
4.098734
4.098723
4.098724
4.098724
4.098749
4.098724
1.769136
4.166099
4.107737
4.100466
4.09856
4.096961
4.099336
4.099628
4.10027
4.098709
4.098727
4.098725
4.09874
4.098723
4.098724
4.098729
4.098754
4.098724
1.649343
4.256862
4.115336
4.118503
4.104531
4.100033
4.099981
4.099385
4.099152
4.099079
4.098913
4.0988
4.098835
4.098724
4.098723
4.098747
4.098713
4.098724
0.8600696
4.284986
4.201217
4.159566
4.110192
4.104179
4.103559
4.103167
4.102806
4.101997
4.101359
4.100327
4.099392
4.098911
4.098745
4.098779
4.098721
4.098724
0.1537756
4.32485
4.168221
4.1208
4.108152
4.107676
4.106566
4.106335
4.106239
4.10537
4.105003
4.104352
4.102962
4.101533
4.099867
4.09898
4.098727
4.098721
0.520986
4.192916
4.247192
4.14791
4.106878
4.110693
4.109075
4.108069
4.10919
4.108511
4.108301
4.108187
4.106488
4.105287
4.104067
4.101519
4.099443
4.098756
0.5939013
3.991245
4.28444
4.11263
4.111195
4.114192
4.111115
4.110697
4.111818
4.111298
4.111348
4.111053
4.10968
4.10878
4.1065
4.105206
4.103166
4.100454
0.1739156
4.036418
4.177328
4.1087
4.112317
4.123496
4.112981
4.112573
4.113866
4.113592
4.113965
4.112925
4.112482
4.111918
4.109885
4.108327
4.10631
4.104171
0.3775705
4.135784
4.20127
4.113402
4.116736
4.108639
4.113689
4.113923
4.115233
4.11538
4.116667
4.115006
4.11532
4.113803
4.112672
4.111108
4.109466
4.106481
0.429055
4.16429
4.163579
4.115041
4.124535
4.113763
4.113984
4.11461
4.116117
4.116766
4.118817
4.1169
4.117797
4.11643
4.114864
4.114008
4.110847
4.110067
0.4210196
4.185567
4.246898
4.172367
4.126816
4.114728
4.113949
4.114715
4.116373
4.119114
4.120141
4.119021
4.119243
4.117029
4.117237
4.114541
4.114551
4.111721
0.4167215
4.118484
4.309876
4.125141
4.136468
4.118426
4.113888
4.1143
4.115591
4.122372
4.118284
4.120638
4.122906
4.119047
4.117389
4.118452
4.114609
4.114058
0.3770699
3.955308
4.383652
4.195909
4.134988
4.128005
4.11258
4.114648
4.114593
4.118279
4.118555
4.119002
4.122274
4.120818
4.121781
4.117869
4.11798
4.114676
0.4158684
3.065688
4.399535
4.17011
4.142666
4.123346
4.109768
4.113965
4.1168
4.127524
4.117494
4.11855
4.123985
4.123743
4.121973
4.118655
4.118011
4.116522
0.3473192
1.977096
4.162412
4.324487
4.260406
4.106834
4.111309
4.12208
4.155075
4.127758
4.123863
4.11881
4.12618
4.130905
4.122659
4.118966
4.115989
4.115798
0.369229
1.170561
3.614617
4.307574
4.198354
4.21176
4.165179
4.119919
4.142768
4.124875
4.119728
4.118595
4.118246
4.116244
0.3493599
0.3270072
4.182758
4.160916
4.126792
4.126514
4.120842
4.115285
4.114639
4.1154
0.3465385
4.168192
4.13267
4.125265
4.120937
4.116455
4.115006
4.115087
4.1549
4.123873
4.134319
4.116309
4.114524
4.113282
4.141092
4.110516
4.113301
4.112802
4.112043
4.163046
4.116032
4.111867
4.11181
4.110874
4.122508
4.104425
4.108116
4.108927
4.109401
4.118218
4.10608
4.107366
4.107518
4.107998
4.189533
4.113081
4.108319
4.106717
4.106823
4.103093
4.105594
4.105874
4.105935
4.104118
4.137111
4.127616
4.107274
4.107215
4.105745
4.105474
0.3504864
4.150376
4.112847
4.10491
4.101161
4.102434
4.102297
0.3494297
0.7987105
4.165255
4.109229
4.10748
4.100456
4.102202
4.101497
4.100171
0.3671124
1.04034
3.048409
4.206509
4.179551
4.09185
4.114699
4.110457
4.099549
4.100662
4.099248
4.101448
0.3567733
1.39272
4.139015
4.314922
4.193137
4.11059
4.096209
4.115342
4.149654
4.096937
4.092325
4.10122
4.094065
4.104322
4.10212
4.101882
4.098706
4.098355
0.4398597
2.906774
4.413353
4.227407
4.102999
4.111446
4.088904
4.088286
4.094035
4.101211
4.093464
4.09298
4.099935
4.096249
4.096482
4.09684
4.097113
4.09826
0.448733
3.674628
4.303072
4.175749
4.13939
4.120664
4.087307
4.088771
4.088523
4.090208
4.092998
4.09057
4.094651
4.093773
4.095942
4.094823
4.096519
4.097048
0.3557138
3.888312
4.374591
4.17329
4.089967
4.094603
4.086551
4.085564
4.087345
4.090451
4.090932
4.091835
4.091889
4.095192
4.093378
4.095081
4.095469
4.097461
0.365405
4.105176
4.166555
4.250938
4.13453
4.083325
4.085013
4.084844
4.08648
4.089582
4.094447
4.091104
4.095077
4.090798
4.093603
4.094039
4.094805
4.096294
0.341058
4.025316
4.092178
4.063722
4.094924
4.084013
4.084584
4.084546
4.086685
4.086131
4.093112
4.088933
4.0923
4.091364
4.093987
4.09354
4.096447
4.095855
0.3412471
4.049332
4.192937
4.086018
4.10044
4.08507
4.085036
4.084912
4.087114
4.086789
4.088881
4.089264
4.091371
4.092784
4.092092
4.09469
4.094763
4.096548
0.2601079
3.976741
4.2419
4.094552
4.083581
4.112408
4.086702
4.086025
4.088172
4.087764
4.090996
4.090418
4.091481
4.094046
4.093827
4.095814
4.095838
4.097009
0.672096
3.703143
4.331608
4.119067
4.091681
4.093373
4.088153
4.087759
4.089707
4.089451
4.091568
4.091896
4.092696
4.093725
4.095418
4.0955
4.097148
4.097679
0.4641961
3.982772
4.227403
4.096163
4.093399
4.094813
4.090915
4.090215
4.091677
4.091498
4.093229
4.093853
4.094418
4.095434
4.096858
4.097319
4.098038
4.09854
0.6795266
4.296915
4.166911
4.103412
4.096122
4.095494
4.093592
4.093686
4.093909
4.093938
4.094216
4.095541
4.096408
4.097167
4.09792
4.098556
4.098684
4.098726
0.14836
4.363496
4.213245
4.116116
4.09972
4.096744
4.096107
4.096176
4.096368
4.096584
4.097032
4.097753
4.098323
4.098575
4.098643
4.098783
4.098726
4.098724
1.344841
4.221648
4.128786
4.111122
4.100771
4.098493
4.098449
4.098402
4.098566
4.09869
4.098715
4.098655
4.098755
4.098731
4.098724
4.098728
4.09873
4.098724
1.575011
4.120476
4.09855
4.100965
4.101997
4.099196
4.09874
4.099597
4.100675
4.098805
4.098733
4.098726
4.098714
4.098726
4.098724
4.098724
4.098795
4.098724
1.709919
4.170378
4.104832
4.107755
4.136859
4.113023
4.098834
4.099171
4.098085
4.099332
4.098726
4.098724
4.098728
4.098724
4.098724
4.098723
4.098768
4.098725
1.811744
4.321583
4.10012
4.149704
4.109254
4.106197
4.09876
4.09878
4.098768
4.098665
4.098724
4.098724
4.098721
4.098726
4.098724
4.098724
4.098726
4.098725
2.035013
4.15022
4.102019
4.110378
4.115583
4.099095
4.098738
4.098764
4.09874
4.098724
4.098724
4.098724
4.098725
4.098732
4.098724
4.098724
4.098724
4.098727
2.101551
4.126748
4.098711
4.10562
4.099159
4.098749
4.09873
4.099054
4.099065
4.098735
4.098724
4.098724
4.098724
4.098726
4.098724
4.098724
4.098724
4.098723
2.167601
4.129209
4.098832
4.116556
4.108414
4.098957
4.098728
4.099014
4.098768
4.098734
4.098724
4.098724
4.098724
4.098724
4.098724
4.098724
4.098724
4.098726
2.23303
4.127997
4.098801
4.097365
4.098867
4.098707
4.098726
4.098728
4.098739
4.098724
4.098724
4.098724
4.098724
4.098724
4.098724
4.098724
4.098724
4.098724
2.297948
4.126484
4.098769
4.098785
4.098833
4.098725
4.098725
4.098724
4.098726
4.098724
4.098724
4.098724
4.098724
4.098724
4.098724
4.098724
4.098724
4.098724
2.360275
4.125351
4.098766
4.098726
4.098735
4.098724
4.098724
4.098724
4.098725
4.098724
4.098724
4.098724
4.098724
4.098724
4.098724
4.098724
4.098724
4.098724
2.423825
4.124284
4.098763
4.098724
4.098729
4.098724
4.098724
4.098724
4.098724
4.098724
4.098724
4.098724
4.098724
4.098724
4.098724
4.098724
4.098724
4.098724
2.485987
4.123406
4.098761
4.098724
4.098727
4.098724
4.098724
4.098724
4.098724
4.098724
4.098724
4.098724
4.098724
4.098724
4.098728
4.098724
4.098724
4.098724
2.546404
4.121536
4.098756
4.098724
4.098725
4.098724
4.098724
4.098724
4.098724
4.098724
4.098724
4.098724
4.098724
4.098724
4.098726
4.098724
4.098724
4.098724
2.606391
4.122118
4.098758
4.098724
4.098725
4.098724
4.098724
4.098724
4.098724
4.098724
4.098724
4.098724
4.098724
4.098724
4.098724
4.098724
4.098724
4.098724
2.667922
4.12026
4.098754
4.098724
4.098724
4.098724
4.098724
4.098724
4.098724
4.098724
4.098724
4.098724
4.098724
4.098724
4.098724
4.098724
4.098724
4.098724
2.727776
4.120167
4.098754
4.098724
4.098724
4.098724
4.098724
4.098725
4.098724
4.098724
4.098724
4.098724
4.098724
4.098724
4.098724
4.098724
4.098724
4.098724
2.789313
4.119855
4.098753
4.098724
4.098724
4.098726
4.098728
4.098724
4.098724
4.098724
4.098724
4.098724
4.098724
4.098724
4.098724
4.098724
4.098724
4.098724
2.85108
4.119803
4.098753
4.098724
4.098731
4.098741
4.098725
4.098724
4.098724
4.098724
4.098724
4.098724
4.098724
4.098724
4.098724
4.098724
4.098724
4.098724
2.91652
4.118917
4.098753
4.098744
4.098783
4.098738
4.098723
4.098724
4.098724
4.098724
4.098724
4.098724
4.098724