/*--------------------------------*- C++ -*----------------------------------*\
| =========                 |                                                 |
| \\      /  F ield         | OpenFOAM: The Open Source CFD Toolbox           |
|  \\    /   O peration     | Version:  2206                                  |
|   \\  /    A nd           | Website:  www.openfoam.com                      |
|    \\/     M anipulation  |                                                 |
\*---------------------------------------------------------------------------*/
FoamFile
{
    version     2.0;
    format      ascii;
    arch        "LSB;label=32;scalar=64";
    class       volScalarField;
    location    "2";
    object      omega.b;
}
// * * * * * * * * * * * * * * * * * * * * * * * * * * * * * * * * * * * * * //

dimensions      [0 0 -1 0 0 0 0];

internalField   nonuniform List<scalar> 
13078
(
6.495683
0.4224972
0.3218661
0.3210453
0.3217968
0.3227067
0.3237642
6.57947
0.4088508
0.3211478
0.3209613
0.3217636
0.322682
0.32374
6.585492
0.4045435
0.3210121
0.3208904
0.3217173
0.3226481
0.3237103
6.591679
0.4028428
0.3209358
0.3208358
0.3216738
0.3226132
0.3236788
6.598133
0.4022521
0.3208926
0.3208083
0.3216383
0.3225803
0.323648
6.604802
0.4019594
0.3208714
0.3207916
0.3216228
0.3225524
0.3236186
6.611848
0.4018628
0.3208698
0.3207793
0.3216122
0.322542
0.3235927
6.619131
0.4018743
0.3208764
0.3207727
0.321606
0.322535
0.3235847
6.626655
0.4019021
0.3208757
0.3207709
0.3216025
0.3225302
0.323579
6.634488
0.401979
0.3208773
0.3207703
0.3216003
0.3225267
0.3235746
6.642682
0.4020881
0.3208795
0.3207702
0.3215988
0.322524
0.3235708
6.651186
0.4022208
0.3208818
0.3207703
0.3215978
0.3225217
0.3235676
6.660084
0.402372
0.3208843
0.3207702
0.3215969
0.3225198
0.3235646
6.669375
0.4025393
0.3208867
0.3207698
0.3215955
0.3225178
0.3235616
6.679072
0.4027203
0.3208897
0.3207651
0.3215879
0.3225151
0.3235586
6.689206
0.4029139
0.3208927
0.3207591
0.3215818
0.3225127
0.3235555
6.69983
0.4031185
0.3208952
0.3207579
0.32158
0.3225104
0.3235523
6.710875
0.4033335
0.3208978
0.3207568
0.3215782
0.322508
0.323549
6.722538
0.4035605
0.3209004
0.3207557
0.3215761
0.3225049
0.3235455
6.734686
0.4037976
0.320903
0.3207539
0.3215674
0.3224921
0.3235408
6.747501
0.4040472
0.3209057
0.320752
0.3215565
0.3224817
0.3235361
6.760848
0.4043081
0.3209087
0.3207506
0.3215532
0.3224778
0.3235319
6.77492
0.4045819
0.3209118
0.3207489
0.3215504
0.3224736
0.3235263
6.789678
0.4048697
0.3209151
0.3207472
0.3215465
0.3224599
0.3235068
6.805169
0.405173
0.3209188
0.3207454
0.3215425
0.3224427
0.3234908
6.821431
0.4054943
0.3209228
0.3207435
0.3215391
0.3224365
0.3234835
6.838694
0.4058295
0.3209273
0.3207416
0.3215354
0.3224309
0.3234766
6.860782
0.4062352
0.3209338
0.3207398
0.3215313
0.3224236
0.3234547
6.889513
0.4065816
0.3209389
0.3207379
0.3215271
0.322416
0.3234256
6.964902
0.407736
0.3209612
0.3207362
0.321523
0.3224097
0.3234161
7.077899
0.4088856
0.3209572
0.3207337
0.3215184
0.3224024
0.3234032
7.116328
0.4109281
0.3209467
0.3207286
0.3215128
0.3223951
0.3233914
7.153721
0.4135472
0.3210217
0.3207272
0.3215041
0.3223865
0.3233811
7.186842
0.4144905
0.3210572
0.3207275
0.3214932
0.3223724
0.3233665
7.221338
0.4154691
0.3210744
0.3207121
0.3214986
0.3223501
0.3233458
7.257502
0.4165229
0.3210971
0.3206677
0.3214626
0.322342
0.3233297
7.295301
0.4176351
0.3211174
0.32065
0.3213951
0.3223299
0.3233233
7.335033
0.4188743
0.3211281
0.320618
0.3213579
0.3222783
0.3233222
7.385167
0.4203613
0.3211371
0.3205751
0.3213016
0.3221828
0.3233311
7.498024
0.4233046
0.3211562
0.320497
0.3212525
0.3221491
0.3233311
7.673723
0.4283409
0.3210894
0.3203995
0.3211511
0.3220564
0.3231923
7.748894
0.4335976
0.3210719
0.3201949
0.3209441
0.3219085
0.3231256
7.810545
0.4361705
0.3209003
0.3199033
0.3207176
0.3217332
0.3230728
7.878361
0.4379015
0.3205975
0.3195983
0.3205221
0.3216234
0.3229767
7.986779
0.4393431
0.320322
0.3193707
0.3202625
0.3214774
0.3228092
8.166376
0.4409034
0.320062
0.3191424
0.3200029
0.3211021
0.3224814
8.255058
0.4426374
0.3199138
0.3189376
0.3196325
0.3206348
0.3218615
8.326466
0.4420973
0.3195899
0.3186431
0.3192309
0.3201976
0.3212067
8.392677
0.4411762
0.3192192
0.3182164
0.3187945
0.3196896
0.3206593
8.454874
0.4398836
0.3188318
0.3178129
0.3183683
0.3191509
0.3201531
8.545767
0.441136
0.3185365
0.3174734
0.3179832
0.3186745
0.3195767
8.786981
0.4444465
0.3183495
0.3173032
0.3177952
0.31841
0.3191361
8.873706
0.4442493
0.3180241
0.3169119
0.3174829
0.3181954
0.3189107
8.910719
0.4437806
0.3177253
0.3166481
0.3172672
0.3180035
0.3187468
8.928906
0.443987
0.3175164
0.3164582
0.3170908
0.3178129
0.3185163
8.931419
0.4443977
0.3173276
0.3162509
0.316883
0.3175754
0.3183407
8.930909
0.4444536
0.3172263
0.3161414
0.3167976
0.3174953
0.3181987
8.928244
0.4445723
0.3173816
0.3162985
0.3169091
0.3175898
0.3182817
8.910027
0.4446447
0.3175765
0.3164566
0.3169957
0.3176553
0.3182992
8.87255
0.4445172
0.3177602
0.3166037
0.3170571
0.3176595
0.3182803
8.785577
0.4436255
0.31796
0.3168556
0.31729
0.3178678
0.3184886
8.544426
0.4391637
0.3182057
0.3171962
0.3175784
0.3181196
0.3188533
8.454087
0.436458
0.3184636
0.3174536
0.3178512
0.3184399
0.3192482
8.39219
0.4364247
0.3188004
0.3177891
0.3182006
0.3189037
0.3196894
8.326422
0.4368361
0.3191705
0.3181858
0.318676
0.3195237
0.3203235
8.255058
0.4380836
0.3195949
0.3186155
0.3191803
0.3200121
0.320999
8.166377
0.4373772
0.3199225
0.3189608
0.3196458
0.3205257
0.3216151
7.986779
0.4361005
0.3202755
0.3193442
0.3200205
0.3209753
0.3220234
7.878361
0.4346765
0.3205628
0.3196651
0.320434
0.3212597
0.3223788
7.810546
0.4330236
0.3208525
0.3199583
0.3207186
0.3215661
0.3226354
7.749108
0.4306156
0.32104
0.3202323
0.3209386
0.3218766
0.3229023
7.678126
0.4263733
0.3210839
0.3204282
0.3211536
0.3220298
0.3230985
7.535472
0.4225441
0.321125
0.3205555
0.3212831
0.3221384
0.323275
7.439014
0.4203001
0.3211202
0.3206127
0.3213428
0.3222046
0.3233307
7.38864
0.4191354
0.3211116
0.3206406
0.3213772
0.3222971
0.323321
7.344497
0.4176158
0.3210881
0.3206574
0.3214258
0.3223414
0.3233112
7.300796
0.416313
0.3210739
0.3206712
0.3214772
0.3223332
0.3233234
7.237692
0.4152263
0.3210604
0.3207122
0.3214938
0.3223523
0.3233478
7.19073
0.4142034
0.3210442
0.3207251
0.3214925
0.3223722
0.3233659
7.154755
0.4134025
0.3210131
0.3207245
0.3215021
0.3223842
0.3233785
7.116393
0.4108748
0.3209417
0.3207268
0.3215106
0.3223925
0.3233888
7.077899
0.408907
0.3209555
0.3207318
0.3215163
0.3224002
0.3234008
6.964902
0.4078077
0.3209613
0.3207345
0.3215211
0.3224077
0.3234139
6.889513
0.4066811
0.3209401
0.3207364
0.3215255
0.3224143
0.3234237
6.860782
0.4063505
0.3209356
0.3207384
0.3215299
0.322422
0.3234529
6.838694
0.4059505
0.3209296
0.3207405
0.3215341
0.3224294
0.323475
6.821431
0.4056146
0.3209252
0.3207426
0.3215379
0.3224353
0.3234821
6.805169
0.4052888
0.3209213
0.3207446
0.3215416
0.3224417
0.3234897
6.789678
0.4049785
0.3209176
0.3207464
0.3215457
0.322459
0.3235059
6.77492
0.4046822
0.3209141
0.3207483
0.3215496
0.3224728
0.3235255
6.760848
0.4043995
0.3209109
0.3207501
0.3215526
0.3224772
0.3235311
6.747501
0.4041295
0.3209077
0.3207517
0.3215561
0.3224812
0.3235355
6.734686
0.4038709
0.3209048
0.3207537
0.3215671
0.3224918
0.3235405
6.722538
0.4036249
0.3209021
0.3207556
0.3215759
0.3225047
0.3235453
6.710875
0.4033892
0.3208994
0.3207568
0.3215781
0.3225079
0.3235488
6.69983
0.4031656
0.3208967
0.3207579
0.3215799
0.3225102
0.3235521
6.689206
0.4029523
0.3208941
0.3207593
0.3215818
0.3225125
0.3235553
6.679072
0.4027496
0.320891
0.3207655
0.321588
0.3225151
0.3235585
6.669375
0.4025588
0.320888
0.3207702
0.3215957
0.3225178
0.3235614
6.660084
0.4023803
0.3208855
0.3207708
0.3215971
0.3225197
0.3235642
6.651186
0.4022159
0.320883
0.3207709
0.3215979
0.3225215
0.323567
6.642682
0.4020667
0.3208804
0.3207709
0.3215988
0.3225234
0.3235698
6.634488
0.401936
0.320878
0.3207709
0.3215999
0.3225255
0.323573
6.626655
0.4018293
0.3208759
0.320771
0.3216012
0.322528
0.3235766
6.619131
0.4017584
0.3208753
0.3207716
0.3216032
0.3225315
0.323581
6.611848
0.4016828
0.3208656
0.3207756
0.3216069
0.3225363
0.3235874
6.604802
0.4016816
0.3208611
0.3207833
0.3216134
0.3225438
0.3236113
6.598133
0.40182
0.3208702
0.3207918
0.3216234
0.3225681
0.3236386
6.591679
0.4021113
0.3208912
0.3208075
0.3216516
0.3225972
0.3236678
6.585492
0.402808
0.3209298
0.3208465
0.3216879
0.3226296
0.3236988
6.57947
0.4038809
0.3209754
0.3209013
0.3217306
0.3226645
0.3237304
6.495683
0.403896
0.3210763
0.3209725
0.3217805
0.3227008
0.3237617
0.3250144
0.3265882
0.3286898
0.3307053
0.3342977
0.3400327
0.3545374
0.3249872
0.3265534
0.328644
0.3306518
0.3342314
0.3399409
0.3636014
0.3249569
0.3265175
0.3285999
0.3313448
0.334173
0.3398481
0.363275
0.3249253
0.3264811
0.3285528
0.330543
0.3341009
0.3397556
0.3628812
0.3248942
0.3264443
0.3285078
0.3304835
0.3340346
0.3396636
0.3625499
0.3248637
0.3264075
0.3284616
0.3304278
0.3339694
0.3395724
0.3622114
0.3248342
0.3263713
0.3284159
0.3303742
0.3339512
0.3394828
0.3618449
0.3248075
0.3263357
0.3283707
0.3303218
0.3339344
0.3393943
0.3614085
0.3248001
0.3263031
0.3283277
0.3302685
0.3338825
0.3393131
0.3609044
0.3247947
0.3262944
0.3282878
0.3302155
0.3338312
0.3392325
0.3603307
0.3247899
0.326288
0.3282772
0.3301643
0.3337803
0.3391524
0.3597343
0.3247854
0.3262818
0.3282691
0.3301531
0.3337291
0.3390723
0.3589755
0.3247812
0.3262756
0.3282608
0.3301432
0.3337203
0.3389906
0.3582163
0.324777
0.3262695
0.3282523
0.3301328
0.3337105
0.338975
0.3575985
0.3247727
0.3262631
0.3282436
0.3301221
0.3337001
0.3389564
0.3568232
0.3247683
0.3262565
0.3282345
0.3301109
0.333689
0.3389365
0.3559907
0.3247638
0.3262496
0.3282252
0.3300989
0.3336725
0.3389158
0.3554723
0.324759
0.3262427
0.3282152
0.330081
0.3335167
0.3388937
0.3549143
0.3247541
0.3262357
0.3282051
0.3300679
0.3334959
0.3388711
0.3544383
0.3247489
0.3262284
0.3281944
0.3300544
0.3334789
0.3388473
0.3539264
0.3247434
0.3262207
0.3281833
0.3300402
0.3334612
0.3388225
0.3534197
0.3247375
0.3262126
0.3281716
0.3300252
0.3334427
0.3387966
0.3530559
0.3247313
0.3262039
0.3281583
0.3300134
0.3334196
0.3387698
0.3527323
0.3247232
0.3261947
0.3281469
0.3306955
0.33328
0.3387286
0.3524414
0.3247149
0.326185
0.3281305
0.3299834
0.3332011
0.3386949
0.3521985
0.3247071
0.326175
0.3281195
0.3299575
0.3331732
0.3386633
0.3519633
0.3246965
0.3261629
0.3281018
0.3299366
0.333145
0.3386249
0.3517693
0.3246654
0.3261483
0.3280945
0.3299158
0.3331056
0.3383131
0.3515851
0.3246419
0.3257451
0.3275449
0.3298979
0.3330701
0.3381952
0.3514361
0.3246422
0.325738
0.327526
0.3298696
0.3330372
0.3381486
0.3513182
0.3245871
0.325702
0.3275085
0.3298455
0.3330031
0.3379383
0.3512006
0.3245486
0.3256301
0.327489
0.3298197
0.3329656
0.3376939
0.3510912
0.3245341
0.3256131
0.3274563
0.3297927
0.3329269
0.3376382
0.3510108
0.3245161
0.3255853
0.327393
0.3297663
0.3328906
0.3375487
0.3495307
0.3244991
0.3255874
0.3273604
0.3297512
0.3328963
0.3375407
0.3495742
0.3245059
0.3256009
0.3272733
0.3298248
0.3330049
0.3375568
0.3459296
0.3245384
0.3256407
0.3273759
0.3298575
0.3331007
0.3374872
0.3471094
0.3245817
0.3257222
0.3274887
0.329919
0.3331839
0.3377188
0.3469744
0.3246636
0.3258566
0.3276329
0.3299781
0.3335145
0.3384478
0.3459199
0.3246843
0.3260323
0.3279233
0.3306064
0.3341521
0.3390823
0.3462786
0.3248294
0.3262152
0.3285115
0.3314047
0.334521
0.3389702
0.3475096
0.3248197
0.3263003
0.3288751
0.3316345
0.3346154
0.3382899
0.3466713
0.3248375
0.3265129
0.3288463
0.3313754
0.3344281
0.3380282
0.3462435
0.3249494
0.3265694
0.3289479
0.3311867
0.334073
0.3380866
0.3458916
0.3246217
0.3265209
0.3285424
0.3311971
0.3337217
0.3378857
0.3458667
0.3241627
0.3262001
0.3285609
0.3305274
0.333619
0.336784
0.3452741
0.3234858
0.3256446
0.32796
0.3304058
0.3324361
0.33637
0.3426371
0.3230094
0.3250262
0.3277173
0.3296677
0.3322477
0.3350165
0.3409281
0.3222124
0.3244366
0.3270223
0.3292988
0.331458
0.3348467
0.3394858
0.3216956
0.3236182
0.3265198
0.328795
0.3310865
0.3342193
0.3387591
0.3212346
0.3230361
0.3255615
0.3279918
0.3306068
0.3335654
0.337719
0.3207016
0.3224431
0.3247774
0.3269232
0.3294579
0.3326142
0.337116
0.3202991
0.3218274
0.3243093
0.3263886
0.3287353
0.3317932
0.3358109
0.320122
0.3219035
0.3240756
0.3260365
0.327845
0.3302983
0.3342265
0.319862
0.3216883
0.3239344
0.3257574
0.3273329
0.328638
0.3317611
0.3196728
0.3216114
0.3237567
0.3253667
0.3266277
0.3280415
0.3195141
0.3214732
0.3232159
0.3248716
0.326201
0.3275255
0.3195941
0.3215226
0.3234389
0.3250397
0.3264193
0.3280559
0.319598
0.3213899
0.3233543
0.3250135
0.3268645
0.3287077
0.3319063
0.3196736
0.3211392
0.3231833
0.3253941
0.3274533
0.3303455
0.3354729
0.3198916
0.321249
0.3234672
0.3257585
0.3281614
0.3310307
0.3351816
0.3202231
0.3216319
0.3240476
0.3260611
0.3287058
0.3316198
0.3357136
0.3205626
0.3217165
0.3246532
0.3268229
0.3289356
0.3321037
0.3365966
0.3211511
0.3225503
0.3250591
0.3270545
0.3294806
0.3323231
0.3368656
0.3219416
0.323142
0.3254733
0.3276536
0.3297426
0.3325693
0.3390722
0.3224722
0.3237662
0.3260916
0.3279062
0.3303391
0.3332284
0.3400632
0.3230679
0.3244494
0.3264689
0.3286138
0.3307589
0.3342813
0.3414611
0.3236017
0.3249334
0.3270562
0.3289545
0.3316966
0.3350745
0.3428086
0.3238936
0.3253655
0.3274761
0.3296052
0.33215
0.3358891
0.3428481
0.3241354
0.3255574
0.3276637
0.3298535
0.3327441
0.3362644
0.3437994
0.32429
0.3256993
0.327746
0.3302676
0.3331624
0.3365653
0.3439304
0.3245745
0.3259086
0.327887
0.3305954
0.3334225
0.3371681
0.3453973
0.3246401
0.3260029
0.3277103
0.3302992
0.3334295
0.3379575
0.345927
0.3245843
0.3258851
0.3275941
0.329953
0.3334926
0.3380889
0.3450025
0.3245267
0.3257474
0.3274207
0.3297557
0.333254
0.3378963
0.345281
0.324491
0.3256566
0.3273036
0.3298517
0.3330251
0.3374663
0.3467853
0.324479
0.325615
0.327221
0.3297022
0.3329123
0.3374367
0.3473056
0.3244935
0.3256064
0.3272404
0.3297059
0.3328414
0.33745
0.3495303
0.3245137
0.3255937
0.3273662
0.3297432
0.3328579
0.3374951
0.3497444
0.3245306
0.3256415
0.3274361
0.3297723
0.3328976
0.3375929
0.3500458
0.3245449
0.3256662
0.327466
0.3298003
0.3329386
0.3376477
0.3509545
0.3245839
0.3256783
0.327495
0.3298277
0.3329778
0.3377344
0.3510477
0.324639
0.3257491
0.3275141
0.3298536
0.3330151
0.3381299
0.3511865
0.3246394
0.3257889
0.3275327
0.329876
0.3330493
0.3381656
0.3513144
0.3246634
0.3261463
0.3280916
0.3299117
0.3330827
0.3382143
0.3514497
0.3246949
0.326161
0.3280995
0.3299354
0.3331248
0.3384989
0.3516325
0.3247057
0.3261733
0.3281157
0.3299534
0.3331567
0.3386426
0.3518344
0.3247137
0.3261837
0.3281306
0.3299708
0.3331853
0.338676
0.3520486
0.3247222
0.3261937
0.3281448
0.3299877
0.3332152
0.3387074
0.3522927
0.3247305
0.3262029
0.328158
0.3300044
0.3333697
0.3387487
0.3525693
0.3247368
0.3262117
0.3281706
0.3300202
0.3334321
0.3387815
0.3528557
0.3247427
0.3262201
0.3281826
0.3300352
0.3334513
0.3388082
0.3532074
0.3247484
0.3262279
0.3281939
0.3300496
0.3334697
0.3388337
0.3535852
0.3247538
0.3262353
0.3282047
0.3300633
0.333487
0.3388581
0.3540304
0.3247587
0.3262423
0.3282149
0.3300764
0.3335036
0.3388816
0.3545608
0.3247635
0.3262493
0.3282248
0.3300925
0.3335847
0.3389042
0.3551013
0.3247681
0.3262562
0.3282342
0.3301069
0.3336831
0.3389259
0.3556579
0.3247724
0.3262628
0.3282432
0.3301185
0.3336944
0.3389464
0.3562556
0.3247766
0.326269
0.3282519
0.3301297
0.3337052
0.3389659
0.3570442
0.3247807
0.326275
0.3282602
0.3301404
0.3337153
0.3389838
0.3576526
0.3247846
0.3262809
0.3282683
0.3301508
0.333725
0.3390325
0.3583777
0.3247887
0.3262869
0.3282762
0.330161
0.3337547
0.3391126
0.3591034
0.3247929
0.3262928
0.3282865
0.3301922
0.3338052
0.3391927
0.3598255
0.3247977
0.3263009
0.3283259
0.3302449
0.3338562
0.3392731
0.3604445
0.3248042
0.3263327
0.3283683
0.3302982
0.3339075
0.339354
0.3609785
0.3248296
0.3263675
0.3284129
0.3303521
0.3339569
0.3394385
0.3614967
0.3248579
0.326403
0.3284581
0.3304034
0.3339382
0.3395278
0.3619507
0.3248873
0.3264392
0.3285039
0.3304583
0.3340012
0.3396181
0.3623359
0.3249179
0.3264761
0.3285502
0.3305132
0.3340666
0.3397096
0.3626902
0.3249498
0.3265134
0.3285966
0.3305684
0.3341323
0.3398016
0.3630528
0.3249817
0.3265503
0.3286429
0.3306232
0.3341984
0.3398943
0.3634301
0.3250133
0.3265876
0.3286891
0.3306776
0.3342645
0.3399888
0.362031
3.630355
4.167917
4.095466
4.094229
4.094217
4.094217
4.094217
4.094217
4.094217
4.094217
4.094217
4.094217
4.094217
4.094217
4.094217
4.094217
4.094217
4.094217
3.834022
4.10374
4.094264
4.09422
4.09422
4.09422
4.09422
4.09422
4.09422
4.09422
4.09422
4.09422
4.09422
4.09422
4.09422
4.09422
4.09422
4.09422
3.808988
4.104032
4.094228
4.094221
4.094221
4.094221
4.094221
4.094221
4.094221
4.094221
4.094221
4.094221
4.094221
4.094221
4.094221
4.094221
4.094221
4.094221
3.793537
4.10435
4.094228
4.094221
4.094221
4.094221
4.094221
4.094221
4.094221
4.094221
4.094221
4.094221
4.094221
4.094221
4.094221
4.094221
4.094221
4.094221
3.771903
4.104658
4.094228
4.094221
4.094221
4.094221
4.094221
4.094221
4.094221
4.094221
4.094221
4.094221
4.094221
4.094221
4.094221
4.094221
4.094221
4.094221
3.74103
4.105346
4.094229
4.094221
4.094221
4.094221
4.094221
4.094221
4.094221
4.094221
4.094221
4.094221
4.094221
4.094221
4.094221
4.094221
4.094221
4.094221
3.706278
4.10622
4.09423
4.094221
4.094221
4.094221
4.094221
4.094221
4.094221
4.094221
4.094221
4.094221
4.094221
4.094221
4.094221
4.094221
4.094221
4.094221
3.66471
4.106962
4.09423
4.094221
4.094221
4.094221
4.094221
4.094221
4.094221
4.094221
4.094221
4.094221
4.094221
4.094221
4.094221
4.094221
4.094221
4.094221
3.625383
4.107194
4.094231
4.094221
4.094221
4.094221
4.094221
4.094221
4.094221
4.094221
4.094221
4.094221
4.094221
4.094221
4.094221
4.094221
4.094221
4.094221
3.583052
4.107329
4.094231
4.094221
4.094221
4.094221
4.094221
4.094221
4.094221
4.094221
4.094221
4.094221
4.094221
4.094221
4.094221
4.094221
4.094221
4.094221
3.53834
4.107762
4.094231
4.094221
4.094221
4.094221
4.094221
4.094221
4.094221
4.094221
4.094221
4.094221
4.094221
4.094221
4.094221
4.094221
4.094221
4.094221
3.493203
4.107934
4.094232
4.094221
4.094221
4.094221
4.094221
4.094221
4.094221
4.094221
4.094221
4.094221
4.094221
4.094221
4.094221
4.094221
4.094221
4.094221
3.449963
4.108415
4.094232
4.094221
4.094221
4.094221
4.094221
4.094221
4.094221
4.094221
4.094221
4.094221
4.094221
4.094221
4.094221
4.094221
4.094221
4.094221
3.39007
4.109826
4.094235
4.094221
4.094221
4.094221
4.094221
4.094221
4.094221
4.094221
4.094221
4.094221
4.094221
4.094221
4.094221
4.094221
4.094221
4.094221
3.203335
4.110094
4.094287
4.094221
4.094221
4.094221
4.094221
4.094221
4.094221
4.094221
4.094221
4.094221
4.094221
4.094221
4.094221
4.094221
4.094221
4.094221
3.142538
4.120892
4.094959
4.094236
4.094221
4.094221
4.094221
4.094221
4.094221
4.094221
4.094221
4.094221
4.094221
4.094221
4.094221
4.094221
4.094221
4.094221
3.079818
4.108384
4.094129
4.094456
4.094225
4.094221
4.094221
4.094221
4.094221
4.094221
4.094221
4.094221
4.094221
4.094221
4.094221
4.094221
4.094221
4.094221
3.010764
4.110207
4.094096
4.094203
4.094286
4.094221
4.094221
4.094221
4.094221
4.094221
4.094221
4.094221
4.094221
4.094221
4.094221
4.094221
4.094221
4.094221
2.942664
4.109968
4.09423
4.094177
4.094222
4.094229
4.094221
4.094221
4.094221
4.094221
4.094221
4.094221
4.094221
4.094221
4.094221
4.094221
4.094221
4.094221
2.874988
4.110008
4.094236
4.094219
4.094211
4.094227
4.094222
4.094221
4.094221
4.094221
4.094221
4.094221
4.094221
4.094221
4.094221
4.094221
4.094221
4.094221
2.809097
4.109526
4.094235
4.094221
4.094221
4.09422
4.094223
4.094221
4.094221
4.094221
4.094221
4.094221
4.094221
4.094221
4.094221
4.094221
4.094221
4.094221
2.746933
4.109753
4.094235
4.094221
4.094221
4.094221
4.094221
4.094221
4.094221
4.094221
4.094221
4.094221
4.094221
4.094221
4.094221
4.094221
4.094221
4.094221
2.687426
4.108968
4.094233
4.094221
4.094221
4.094221
4.094221
4.094221
4.094221
4.094221
4.094221
4.094221
4.094221
4.094221
4.094221
4.094221
4.094221
4.094221
2.627705
4.108819
4.094233
4.094221
4.094222
4.094221
4.094221
4.094221
4.094221
4.094221
4.094221
4.094221
4.094221
4.094221
4.094221
4.094221
4.094221
4.094221
2.568727
4.10892
4.094233
4.094221
4.094223
4.094221
4.094221
4.094221
4.094221
4.094221
4.094221
4.094221
4.094221
4.094221
4.094221
4.094221
4.094221
4.094221
2.50993
4.108538
4.094233
4.094221
4.094224
4.094221
4.094221
4.094221
4.094221
4.094221
4.094221
4.094221
4.094221
4.094222
4.094225
4.094221
4.094221
4.094221
2.449344
4.108187
4.094232
4.094222
4.094226
4.094221
4.094221
4.094221
4.094221
4.094221
4.094221
4.094221
4.094221
4.094221
4.09422
4.094221
4.094221
4.094221
2.389172
4.107951
4.094233
4.094223
4.094232
4.094221
4.094221
4.094221
4.094222
4.094221
4.094221
4.094221
4.094221
4.094221
4.094221
4.094221
4.094221
4.094221
2.329491
4.107642
4.094233
4.094249
4.09427
4.094221
4.094222
4.094221
4.094222
4.094221
4.094221
4.094221
4.094221
4.094221
4.094221
4.094221
4.094221
4.094221
2.268478
4.106919
4.094247
4.095183
4.095177
4.094225
4.094224
4.094232
4.094227
4.094221
4.094221
4.094221
4.094221
4.094221
4.094221
4.094221
4.094221
4.094222
2.206176
4.106423
4.094323
4.106391
4.105278
4.094277
4.09423
4.094506
4.094322
4.09422
4.094221
4.094221
4.094221
4.094221
4.094221
4.094221
4.094221
4.094222
2.145084
4.108032
4.094325
4.097903
4.09409
4.094275
4.094238
4.094726
4.094794
4.09422
4.094221
4.094221
4.094222
4.094223
4.094221
4.094221
4.094221
4.094222
2.083313
4.119189
4.09519
4.101786
4.1022
4.094407
4.094255
4.094271
4.094218
4.094222
4.094221
4.094221
4.094223
4.094231
4.094221
4.094221
4.094223
4.094225
2.007859
4.134908
4.096406
4.126652
4.122403
4.098713
4.094281
4.094286
4.094261
4.094252
4.094221
4.094221
4.094223
4.094221
4.094221
4.094221
4.094228
4.094218
1.839813
4.096746
4.100665
4.114832
4.117774
4.122819
4.094389
4.094522
4.094542
4.094515
4.094221
4.094221
4.094231
4.094219
4.094221
4.094221
4.094247
4.094221
1.765696
4.162371
4.103236
4.096074
4.093841
4.092456
4.094838
4.095119
4.095764
4.094205
4.094224
4.094222
4.094238
4.09422
4.094221
4.094226
4.094252
4.09422
1.645916
4.252149
4.111238
4.11446
4.100122
4.09556
4.095504
4.094902
4.094664
4.094588
4.094418
4.094301
4.094333
4.094221
4.09422
4.094244
4.09421
4.094221
0.8577008
4.28273
4.197165
4.155387
4.105853
4.099839
4.09917
4.098731
4.098355
4.097554
4.096897
4.095848
4.094906
4.094417
4.094245
4.094277
4.094218
4.094221
0.1516313
4.322111
4.164363
4.116368
4.103891
4.103454
4.102258
4.101934
4.10181
4.100968
4.100555
4.099873
4.098485
4.097051
4.095385
4.094485
4.094225
4.094218
0.5172742
4.183341
4.243879
4.143745
4.102807
4.106587
4.104841
4.103816
4.104782
4.10414
4.103853
4.103644
4.101984
4.100756
4.099518
4.097027
4.094959
4.094257
0.5913096
3.989835
4.280718
4.108839
4.107267
4.1102
4.106945
4.106501
4.107427
4.10694
4.106887
4.106483
4.10513
4.104188
4.101896
4.10063
4.098622
4.09596
0.1724264
4.033202
4.1736
4.104856
4.108457
4.119616
4.108864
4.108415
4.109485
4.109229
4.109467
4.108411
4.107868
4.107195
4.105233
4.10365
4.101653
4.099567
0.3752564
4.131099
4.197643
4.109618
4.113038
4.10465
4.109598
4.109786
4.110855
4.110994
4.112112
4.110444
4.110635
4.109059
4.10791
4.106314
4.104678
4.101798
0.4262606
4.157898
4.159947
4.111343
4.120787
4.109929
4.109909
4.11047
4.111738
4.112344
4.114216
4.112264
4.113007
4.111635
4.109982
4.109077
4.106
4.105198
0.418488
4.179238
4.243412
4.169537
4.123347
4.110862
4.109876
4.110555
4.112002
4.114669
4.115651
4.114327
4.114377
4.112131
4.112221
4.109572
4.109508
4.10676
0.4143051
4.110099
4.30822
4.121206
4.132451
4.114595
4.10979
4.110103
4.111196
4.117848
4.113694
4.115815
4.118057
4.114026
4.112315
4.113309
4.109519
4.108911
0.3759916
3.944267
4.379701
4.19252
4.131565
4.124278
4.108433
4.110372
4.110162
4.113619
4.113881
4.114229
4.117318
4.115741
4.116572
4.112698
4.112709
4.109436
0.4145988
3.055796
4.395993
4.168011
4.138742
4.119272
4.105574
4.109674
4.112412
4.123159
4.11269
4.113709
4.118976
4.118554
4.116754
4.113289
4.112618
4.111119
0.3469785
1.967553
4.155085
4.321557
4.25695
4.102811
4.107091
4.117919
4.151055
4.123477
4.119381
4.113835
4.121068
4.125882
4.117319
4.113567
4.110439
4.110249
0.3683697
1.162693
3.601279
4.301798
4.194103
4.207226
4.161114
4.115186
4.137867
4.119745
4.114206
4.113076
4.112722
4.110574
0.3487319
0.3174313
4.178317
4.156466
4.121868
4.120911
4.115516
4.109668
4.108935
4.10974
0.3458915
4.162655
4.127971
4.12007
4.115593
4.110895
4.109231
4.109229
4.150454
4.118736
4.128893
4.110579
4.108638
4.107337
4.136211
4.104927
4.107605
4.106949
4.106061
4.156824
4.110669
4.106072
4.105858
4.104814
4.117484
4.098754
4.102296
4.102932
4.103309
4.11351
4.100502
4.101515
4.101481
4.101862
4.185503
4.107744
4.102354
4.100634
4.100635
4.096871
4.099812
4.099943
4.09982
4.097919
4.131374
4.122376
4.101493
4.101289
4.099588
4.099358
0.3496782
4.14565
4.107331
4.099114
4.095142
4.096257
4.096065
0.3486758
0.7957176
4.160298
4.103919
4.10195
4.094541
4.096125
4.095425
4.093996
0.3660642
1.030886
3.036423
4.201991
4.174655
4.086219
4.10907
4.104667
4.093639
4.094644
4.093048
4.095352
0.3562365
1.37967
4.12856
4.310745
4.190105
4.106614
4.091354
4.110544
4.143794
4.091671
4.087125
4.095718
4.088255
4.098526
4.096187
4.095807
4.092662
4.092278
0.4380759
2.893603
4.407906
4.224631
4.099075
4.106934
4.084081
4.083217
4.088911
4.095909
4.088001
4.087434
4.094266
4.090328
4.090461
4.090906
4.091018
4.092346
0.4468947
3.661166
4.299697
4.172585
4.135377
4.116048
4.082435
4.083667
4.083283
4.084881
4.087568
4.084963
4.088802
4.087968
4.090036
4.088773
4.090661
4.091148
0.3540789
3.876659
4.370106
4.169829
4.085519
4.090032
4.081592
4.080474
4.082085
4.085065
4.085525
4.086105
4.086223
4.089394
4.08755
4.089314
4.089595
4.091846
0.3623827
4.094067
4.162895
4.246396
4.130377
4.078526
4.080036
4.079749
4.081183
4.084096
4.089069
4.085485
4.089496
4.085058
4.08794
4.088246
4.089236
4.090736
0.337811
4.016402
4.087596
4.058987
4.09054
4.079248
4.079589
4.079461
4.081376
4.080753
4.087662
4.08341
4.086664
4.085799
4.088256
4.088029
4.090984
4.090569
0.3379289
4.041148
4.189369
4.081351
4.095846
4.080354
4.080047
4.079862
4.081837
4.081497
4.083534
4.083872
4.085901
4.087425
4.086669
4.0894
4.089527
4.091489
0.2577461
3.968494
4.238163
4.090337
4.078886
4.107807
4.081776
4.081029
4.082963
4.082584
4.085765
4.085183
4.086179
4.088689
4.088629
4.090574
4.090844
4.092115
0.668181
3.694269
4.327723
4.114815
4.087095
4.088609
4.083255
4.082835
4.084596
4.084392
4.086357
4.086829
4.087578
4.088625
4.090441
4.090592
4.09239
4.093052
0.4609198
3.980256
4.22216
4.091819
4.088833
4.090155
4.086104
4.085386
4.08669
4.086576
4.088165
4.088856
4.089501
4.090551
4.092034
4.092643
4.093473
4.094043
0.6753536
4.29051
4.162377
4.098892
4.091588
4.090875
4.088867
4.08891
4.089064
4.089159
4.089417
4.090771
4.091689
4.092502
4.093334
4.094055
4.094184
4.094223
0.1460134
4.35745
4.209362
4.111957
4.095207
4.092173
4.091478
4.091492
4.091686
4.091951
4.092405
4.093183
4.093791
4.094071
4.094143
4.094283
4.094223
4.094221
1.341871
4.216399
4.12382
4.106484
4.096248
4.093977
4.093917
4.093866
4.094046
4.094179
4.094213
4.094153
4.094256
4.094229
4.094221
4.094224
4.094227
4.094221
1.5717
4.116154
4.09404
4.096457
4.097585
4.09472
4.09423
4.095123
4.096222
4.094307
4.094231
4.094223
4.09421
4.094223
4.094221
4.094221
4.094294
4.094221
1.706389
4.166392
4.100371
4.103508
4.132589
4.10889
4.094333
4.094661
4.093562
4.094839
4.094223
4.094221
4.094225
4.094221
4.094221
4.09422
4.094265
4.094222
1.807922
4.317026
4.095582
4.145075
4.104837
4.101466
4.094257
4.09428
4.094263
4.09416
4.094221
4.094221
4.094218
4.094223
4.094221
4.094221
4.094223
4.094222
2.031187
4.144863
4.097502
4.105756
4.110878
4.094613
4.094235
4.094262
4.094238
4.094221
4.094221
4.094221
4.094222
4.094229
4.094221
4.094221
4.094221
4.094224
2.09764
4.122344
4.094208
4.101215
4.094707
4.094248
4.094227
4.094559
4.09457
4.094233
4.094221
4.094221
4.094221
4.094223
4.094221
4.094221
4.094221
4.09422
2.163635
4.124645
4.09433
4.112139
4.103956
4.094459
4.094225
4.094506
4.094258
4.09423
4.094221
4.094221
4.094221
4.094221
4.094221
4.094221
4.094221
4.094222
2.229006
4.123412
4.094298
4.092775
4.094285
4.094202
4.094223
4.094226
4.094236
4.094221
4.094221
4.094221
4.094221
4.094221
4.094221
4.094221
4.094221
4.094221
2.293865
4.121904
4.094267
4.094282
4.094333
4.094222
4.094222
4.094221
4.094222
4.094221
4.094221
4.094221
4.094221
4.094221
4.094221
4.094221
4.094221
4.094221
2.35614
4.120778
4.094263
4.094223
4.094231
4.094221
4.094221
4.094221
4.094222
4.094221
4.094221
4.094221
4.094221
4.094221
4.094221
4.094221
4.094221
4.094221
2.419631
4.119718
4.09426
4.094221
4.094226
4.094221
4.094221
4.094221
4.094221
4.094221
4.094221
4.094221
4.094221
4.094221
4.094221
4.094221
4.094221
4.094221
2.481737
4.118846
4.094258
4.094221
4.094224
4.094221
4.094221
4.094221
4.094221
4.094221
4.094221
4.094221
4.094221
4.094221
4.094225
4.094221
4.094221
4.094221
2.542101
4.116981
4.094254
4.094221
4.094222
4.094221
4.094221
4.094221
4.094221
4.094221
4.094221
4.094221
4.094221
4.094221
4.094223
4.094221
4.094221
4.094221
2.602039
4.117576
4.094255
4.094221
4.094222
4.094221
4.094221
4.094221
4.094221
4.094221
4.094221
4.094221
4.094221
4.094221
4.094221
4.094221
4.094221
4.094221
2.66351
4.115722
4.094251
4.094221
4.094221
4.094221
4.094221
4.094221
4.094221
4.094221
4.094221
4.094221
4.094221
4.094221
4.094221
4.094221
4.094221
4.094221
2.723311
4.115633
4.094251
4.094221
4.094221
4.094221
4.094221
4.094221
4.094221
4.094221
4.094221
4.094221
4.094221
4.094221
4.094221
4.094221
4.094221
4.094221
2.784787
4.115328
4.094251
4.094221
4.094221
4.094223
4.094225
4.094221
4.094221
4.094221
4.094221
4.094221
4.094221
4.094221
4.094221
4.094221
4.094221
4.094221
2.846496
4.115275
4.09425
4.094221
4.094228
4.094238
4.094221
4.094221
4.094221
4.094221
4.094221
4.094221
4.094221
4.094221
4.094221
4.094221
4.094221
4.094221
2.911865
4.114395
4.09425
4.094241
4.094281
4.094235
4.09422
4.094221