/*--------------------------------*- C++ -*----------------------------------*\
| =========                 |                                                 |
| \\      /  F ield         | OpenFOAM: The Open Source CFD Toolbox           |
|  \\    /   O peration     | Version:  2206                                  |
|   \\  /    A nd           | Website:  www.openfoam.com                      |
|    \\/     M anipulation  |                                                 |
\*---------------------------------------------------------------------------*/
FoamFile
{
    version     2.0;
    format      ascii;
    arch        "LSB;label=32;scalar=64";
    class       volScalarField;
    location    "2";
    object      p_rbgh;
}
// * * * * * * * * * * * * * * * * * * * * * * * * * * * * * * * * * * * * * //

dimensions      [1 -1 -2 0 0 0 0];

internalField   nonuniform List<scalar> 
13078
(
13.77052
9.188223
5.713534
3.534538
2.128547
1.125299
0.4044298
11.97297
8.257174
5.31112
3.36567
2.016316
1.037328
0.3301288
7.85621
6.208283
4.475407
2.975884
1.795989
0.8957592
0.2285898
5.568461
4.714617
3.59708
2.488045
1.505283
0.7088284
0.09943918
4.133318
3.590137
2.80428
1.960398
1.173203
0.487433
-0.05564604
3.035915
2.664951
2.092071
1.439091
0.8027397
0.2362639
-0.2348307
2.130234
1.865607
1.440142
0.9322786
0.4180615
-0.04926673
-0.4382462
1.348398
1.153355
0.832152
0.4378395
0.0265463
-0.3536459
-0.6702871
0.6531356
0.5057436
0.2613613
-0.04415088
-0.3681147
-0.6702048
-0.9200576
0.02120953
-0.09211631
-0.2783218
-0.5127865
-0.7627563
-0.9951038
-1.182194
-0.5631168
-0.6510191
-0.7919157
-0.9684494
-1.155155
-1.325076
-1.453453
-1.111114
-1.17922
-1.283718
-1.411978
-1.543855
-1.657528
-1.731011
-1.631241
-1.683253
-1.757546
-1.844599
-1.928148
-1.990725
-2.012394
-2.130086
-2.168462
-2.216839
-2.267807
-2.308113
-2.323172
-2.295865
-2.612996
-2.639352
-2.664726
-2.683603
-2.685334
-2.654273
-2.580037
-3.084491
-3.099902
-3.104247
-3.095223
-3.058406
-2.983688
-2.864002
-3.5486
-3.553484
-3.537866
-3.500599
-3.427722
-3.311297
-3.147032
-4.008806
-4.003291
-3.968151
-3.903055
-3.794757
-3.637124
-3.428469
-4.468332
-4.452325
-4.397516
-4.304413
-4.160503
-3.961537
-3.707637
-4.930328
-4.903421
-4.828272
-4.706297
-4.527456
-4.288539
-3.983949
-5.397869
-5.359382
-5.262791
-5.1107
-4.898183
-4.612886
-4.256302
-5.87396
-5.822955
-5.703302
-5.518651
-5.265842
-4.932548
-4.523547
-6.36151
-6.296811
-6.152028
-5.931934
-5.635004
-5.250049
-4.785171
-6.86324
-6.783475
-6.611107
-6.352093
-6.006807
-5.569443
-5.047835
-7.381478
-7.28516
-7.082473
-6.780671
-6.382627
-5.892323
-5.300452
-7.917825
-7.803415
-7.567453
-7.218469
-6.761435
-6.203662
-5.536209
-8.472681
-8.338695
-8.066399
-7.665555
-7.143244
-6.509821
-5.758766
-9.044661
-8.889875
-8.57807
-8.120496
-7.526197
-6.809039
-5.973824
-9.62989
-9.453227
-9.098784
-8.579437
-7.906185
-7.097554
-6.17705
-10.22146
-10.02382
-9.621645
-9.034647
-8.274312
-7.36266
-6.329494
-10.80866
-10.58727
-10.13503
-9.473448
-8.616425
-7.589851
-6.430298
-11.37276
-11.12856
-10.62765
-9.877728
-8.910085
-7.754203
-6.455552
-11.89581
-11.62909
-11.0719
-10.22969
-9.122176
-7.814243
-6.353316
-12.35507
-12.05767
-11.43762
-10.47768
-9.205197
-7.708654
-6.049145
-12.72858
-12.39278
-11.68252
-10.58163
-9.114439
-7.353487
-5.429187
-12.99939
-12.6149
-11.78694
-10.50247
-8.764222
-6.655047
-4.335924
-13.16032
-12.71148
-11.72365
-10.16837
-8.06552
-5.459486
-2.582003
-13.21905
-12.68259
-11.47759
-9.552064
-6.924947
-3.667457
-0.001579998
-13.2013
-12.54626
-11.05581
-8.653724
-5.349899
-1.224381
3.615006
-13.15162
-12.34953
-10.50881
-7.52223
-3.330865
2.070343
8.566217
-13.12899
-12.16301
-9.952916
-6.23951
-0.8299062
6.373507
15.13223
-13.19015
-12.07993
-9.481626
-4.882284
2.227533
11.79594
23.75781
-13.34723
-12.12203
-9.077001
-3.310965
5.796466
18.52685
36.12573
-13.47606
-12.10008
-8.390712
-1.246069
10.42709
28.23572
54.98388
-13.15904
-11.45683
-6.746189
2.15281
17.86527
43.72427
81.86708
-11.64521
-9.268551
-3.080695
8.890074
31.10931
66.66637
118.1783
-8.151312
-4.685141
4.090672
21.64824
51.87973
98.72317
163.0969
-1.85925
3.089818
15.88025
40.55293
81.10124
140.962
218.6335
7.817235
14.94793
32.71211
64.96474
116.432
190.2462
282.2803
20.98622
30.84023
53.78222
94.00786
156.8301
243.0411
342.0971
36.58742
49.33984
77.54816
125.8051
199.0697
292.7129
390.4485
52.9343
68.29305
101.6537
157.2997
238.3372
333.2571
425.8042
68.37585
85.87735
123.2535
185.3398
270.2695
363.8723
455.2001
81.59099
100.8992
141.5734
207.9799
295.7231
388.6511
477.4976
91.11033
111.6608
154.5293
223.6227
313.1877
406.3894
494.6089
96.54794
117.7879
161.4955
231.4056
321.5935
415.572
505.3343
98.50578
119.6073
162.6179
231.2095
320.3417
414.4465
505.2391
96.78786
116.6404
157.26
222.1785
307.9337
400.3497
489.7458
91.46634
109.479
146.5216
205.9672
286.3965
376.3245
463.9419
83.68959
99.5599
132.4286
185.2954
258.4882
344.9337
431.8838
74.64119
88.05117
116.6599
161.9068
226.4037
306.4407
391.0818
65.20249
75.63876
99.05947
137.5012
193.7566
266.9312
350.3014
56.61216
64.18439
83.26313
116.2532
165.5818
232.1078
312.039
50.17146
55.56109
70.64428
98.53925
141.5079
201.0742
275.8321
46.17079
50.13439
61.56064
84.2968
120.8067
172.6735
239.0418
44.24366
47.29655
55.81175
73.40521
103.0713
146.9428
204.3561
43.71209
46.07188
52.68689
65.9433
89.53626
124.4571
171.1594
43.76739
45.68258
50.99634
61.33054
78.91639
105.2907
140.5124
43.60635
45.2575
49.48478
57.53625
70.58618
89.42449
114.9834
42.69738
44.12181
47.53504
53.70221
63.32226
76.74825
94.17941
40.92851
42.08802
44.83073
49.49174
56.49559
66.01541
77.79598
38.43182
39.28894
41.40203
44.92219
49.96003
56.56882
64.59868
35.41918
35.99437
37.54116
40.13195
43.73348
48.27209
53.53516
32.12896
32.47638
33.5471
35.36516
37.88004
40.96128
44.28478
28.75891
28.93718
29.62526
30.83942
32.52266
34.48874
36.52746
25.45608
25.50911
25.91646
26.67946
27.72331
28.90173
30.01175
22.32523
22.29526
22.50537
22.95013
23.52664
24.1682
24.73882
19.43018
19.35115
19.4291
19.62388
19.91624
20.21208
20.44949
16.8079
16.69923
16.69127
16.73265
16.81836
16.92915
16.95418
14.46538
14.34105
14.26127
14.22564
14.20485
14.1862
14.08711
12.39228
12.25175
12.14106
12.04971
11.97687
11.88238
11.7167
10.57127
10.42942
10.29955
10.18773
10.07604
9.939125
9.740806
8.976117
8.842658
8.710516
8.583985
8.450868
8.293943
8.086936
7.591339
7.462916
7.334705
7.202199
7.059801
6.896628
6.693743
6.392086
6.271543
6.146607
6.013029
5.868482
5.70551
5.497273
5.356464
5.243575
5.123277
4.991844
4.849409
4.692069
4.495202
4.466132
4.360615
4.245397
4.117766
3.979952
3.831084
3.653642
3.70511
3.606303
3.496278
3.373185
3.241027
3.101012
2.942876
3.059438
2.966625
2.861481
2.743006
2.616204
2.47858
2.34167
2.516953
2.429373
2.328631
2.214415
2.092826
1.961797
1.836539
2.067091
1.983979
1.886951
1.776274
1.65913
1.536078
1.42274
1.700678
1.621235
1.527023
1.418803
1.304456
1.187333
1.082957
1.409769
1.333147
1.240636
1.133248
1.017192
0.904834
0.8073133
1.187555
1.112865
1.020793
0.9126905
0.794787
0.6814828
0.5878057
1.028257
0.9545547
0.8614864
0.7508532
0.6300707
0.5138691
0.4179209
0.927052
0.8533049
0.7575897
0.6422122
0.5157475
0.3933641
0.2913706
0.8800472
0.8051179
0.7048739
0.5821856
0.446894
0.3147863
0.2029736
0.8842749
0.8068597
0.6998002
0.5659708
0.4184996
0.2735879
0.148146
0.9377333
0.8563387
0.7398893
0.5918486
0.4275499
0.265863
0.1227604
1.039411
0.9522338
0.823271
0.6575889
0.4722388
0.2881504
0.1229495
1.189386
1.094122
0.9486173
0.7602016
0.5483454
0.3366597
0.1447969
1.389043
1.282655
1.115375
0.8978014
0.6528822
0.4077172
0.1843094
1.641416
1.51971
1.323662
1.068721
0.7827761
0.4973951
0.2372453
1.95172
1.808671
1.574273
1.271304
0.9346128
0.6013421
0.2990113
2.32824
2.154888
1.868734
1.503711
1.104464
0.714672
0.3646368
2.783932
2.566425
2.208872
1.762768
1.287632
0.8319313
0.4280787
3.33948
3.05573
2.598015
2.046396
1.478855
0.9459254
0.4779525
4.029562
3.642956
3.044106
2.354635
1.670726
1.041613
0.514598
4.918999
4.363824
3.557406
2.680535
1.843047
1.120035
0.5350206
6.149257
5.288105
4.150083
2.998166
1.995929
1.176036
0.535828
8.218585
6.565205
4.794335
3.298029
2.114409
1.200673
0.5138934
12.02816
8.304989
5.428388
3.510322
2.16466
1.181513
0.4662942
-0.09715457
-0.4185809
-0.5957115
-0.6388529
-0.6626166
-0.6551745
-0.6447548
-0.1616885
-0.4747495
-0.6434885
-0.6806531
-0.6947714
-0.6798029
-0.6963582
-0.2402622
-0.5378906
-0.6935095
-0.7416095
-0.7233529
-0.6864436
-0.646243
-0.3355278
-0.6118318
-0.7531917
-0.7702673
-0.7558149
-0.6980142
-0.6173631
-0.4488263
-0.6977884
-0.819895
-0.8226848
-0.7974753
-0.731843
-0.6552373
-0.5809821
-0.7974763
-0.8963137
-0.884365
-0.8472495
-0.7779827
-0.7210504
-0.7320169
-0.911767
-0.983149
-0.9538339
-0.8990395
-0.8188364
-0.7514353
-0.9025998
-1.040547
-1.080321
-1.030172
-0.9518455
-0.852562
-0.7603084
-1.095314
-1.184129
-1.187487
-1.113367
-1.006964
-0.8834947
-0.7687237
-1.302651
-1.343206
-1.304781
-1.203307
-1.064321
-0.9127235
-0.7700564
-1.520405
-1.513085
-1.431383
-1.299955
-1.124354
-0.9416877
-0.7687375
-1.745983
-1.690632
-1.565032
-1.40235
-1.187433
-0.9716029
-0.768928
-1.977043
-1.873818
-1.703382
-1.508732
-1.251942
-1.002347
-0.7683125
-2.211623
-2.0608
-1.844866
-1.617584
-1.317429
-1.03125
-0.7667218
-2.448102
-2.249971
-1.988039
-1.727561
-1.382207
-1.058018
-0.7702797
-2.685198
-2.439959
-2.131689
-1.83761
-1.445365
-1.079088
-0.7411779
-2.921795
-2.629527
-2.274706
-1.946952
-1.507969
-1.100364
-0.7277628
-3.156814
-2.817429
-2.415986
-2.055544
-1.585404
-1.120692
-0.7137948
-3.389063
-3.002201
-2.553975
-2.160758
-1.645569
-1.139018
-0.6984825
-3.617129
-3.182083
-2.686817
-2.261407
-1.701401
-1.154332
-0.6814962
-3.839461
-3.354978
-2.812215
-2.355483
-1.751628
-1.165623
-0.6624551
-4.054158
-3.518355
-2.927373
-2.440226
-1.794028
-1.17167
-0.6410147
-4.258974
-3.669189
-3.029474
-2.511018
-1.826099
-1.170621
-0.6163009
-4.451897
-3.803715
-3.111482
-2.399929
-1.866288
-1.161524
-0.5876664
-4.629941
-3.919414
-3.175785
-2.599263
-1.876332
-1.139531
-0.5550488
-4.789091
-4.009637
-3.207044
-2.613108
-1.855999
-1.102816
-0.5179675
-4.927104
-4.070058
-3.205375
-2.589765
-1.806888
-1.048302
-0.4750442
-5.053325
-4.094164
-3.162238
-2.524536
-1.72134
-0.9919913
-0.4251353
-5.147775
-4.332845
-3.336919
-2.405566
-1.588887
-0.8886889
-0.3672749
-5.178752
-4.303004
-3.215159
-2.225662
-1.39874
-0.7405405
-0.2993241
-5.174383
-4.229717
-3.017562
-1.968743
-1.136399
-0.5512095
-0.2153486
-5.075533
-4.055697
-2.721239
-1.616008
-0.7882627
-0.2892359
-0.1069027
-4.817471
-3.782211
-2.298561
-1.149275
-0.3483396
0.05117965
0.03274746
-4.326568
-3.256179
-1.703613
-0.5320992
0.1821893
0.4250187
0.1805871
-3.465164
-2.381788
-0.7792012
0.3423444
0.8519813
0.8165846
0.2167514
-2.022431
-0.9330074
0.7556356
1.697846
1.783829
1.147416
0.1347522
0.2679592
1.409285
3.313701
4.069045
3.322635
1.435691
-0.6023655
3.70547
5.062164
7.553177
8.444457
6.444476
2.168437
-1.795714
8.689372
10.61389
14.51891
16.13899
12.72288
3.783292
-4.55429
15.69399
18.61319
24.7192
28.14777
24.18473
8.886758
-5.293316
25.05085
29.41195
39.53265
47.76662
41.9189
19.59887
0.8152768
38.6761
46.11395
63.87421
75.41402
61.66545
35.91006
10.19248
60.54803
73.53819
99.92071
103.1369
82.83629
55.42864
20.91366
92.67987
112.2801
137.8552
129.4958
109.4884
79.35441
33.32145
132.9836
157.4776
175.8022
160.5014
140.4953
103.5278
42.36146
182.188
206.7283
218.7787
199.4486
173.9469
130.2448
55.70748
239.6057
262.306
269.1754
243.5453
211.1396
153.6397
67.46456
304.0273
325.3052
324.7391
290.9094
241.9728
172.8396
75.20246
371.5542
387.609
378.1092
333.5107
269.6974
188.7383
84.9235
430.9622
440.8739
420.4405
369.7688
296.6457
210.1453
108.7968
472.7301
486.0001
463.0131
403.6339
324.2193
237.1414
140.3605
508.3323
524.9394
506.5897
442.1216
360.9339
269.6488
175.8656
537.4435
560.4354
546.535
485.1912
406.3886
313.3199
219.556
558.8212
586.6587
581.3482
530.6932
455.07
367.3536
244.9603
575.905
605.2203
604.903
564.1542
493.5862
380.1081
257.9415
588.6336
619.2286
616.7266
575.5439
497.3383
370.8514
589.3703
622.9205
616.2707
572.71
499.4298
375.3323
572.1139
610.8347
606.0982
561.574
487.2738
365.0533
541.5199
582.6355
582.289
536.9937
462.6235
356.1832
220.4767
504.9754
543.7238
540.9562
499.1518
420.362
319.6885
192.5008
468.0694
504.2237
497.6534
454.6621
378.7139
277.3055
159.7446
430.3347
469.6315
462.0209
419.3538
346.8061
254.9746
147.252
394.6154
434.5067
423.6583
384.3319
321.3942
239.5788
134.4295
355.1544
397.8793
392.9616
356.0295
300.1847
222.7664
114.1549
314.7456
360.065
358.8537
327.4774
277.9797
202.7806
94.8885
271.7273
317.4078
323.5635
297.0069
254.9774
183.8875
78.91521
226.8175
273.6029
287.6846
268.0021
228.5941
165.095
65.10137
184.0784
227.8555
251.3571
241.1514
205.7684
147.8413
64.81286
146.3048
182.2776
210.6986
211.9308
184.0543
133.5742
65.74756
115.2774
141.3609
165.35
177.6807
160.3824
117.7997
56.96066
91.48583
109.2745
125.7523
136.8574
130.1445
96.6073
45.23113
73.47905
85.17847
94.78304
100.5366
97.25418
72.72073
33.51181
59.12673
66.70087
71.68659
73.72149
69.2375
49.3913
22.54691
47.43516
52.51119
54.71512
54.22987
47.86682
33.42662
14.18596
38.23047
41.48704
42.01803
40.28117
33.59965
23.19627
9.729602
30.89256
32.94538
32.57546
30.02035
24.65281
17.0112
7.363934
25.06606
26.33535
25.53894
23.00441
18.76857
13.12029
6.370335
20.44991
21.22385
20.23198
17.9155
14.75505
10.55275
5.424051
16.77659
17.24741
16.18865
14.3439
11.86412
8.665155
4.796237
13.82339
14.10413
13.04345
11.63885
9.678002
7.199798
4.211112
11.41748
11.53387
10.66918
9.522287
7.965683
6.030636
3.628157
9.406737
9.486677
8.765241
7.832769
6.597444
5.080935
3.217728
7.759205
7.77615
7.219815
6.465473
5.489495
4.222991
2.855027
6.401966
6.410475
5.950787
5.344517
4.580816
3.599727
2.539948
5.244695
4.918388
4.548377
4.407841
3.825411
3.074419
2.259767
4.268722
4.020532
3.729744
3.634892
3.191984
2.602852
2.008172
3.460217
3.263009
3.041343
2.988204
2.661297
2.217192
1.78055
2.780048
2.625464
2.46267
2.444638
2.212969
1.894099
1.573879
2.208514
2.090177
1.976501
1.986841
1.832107
1.613018
1.385688
1.730353
1.642159
1.568425
1.600738
1.499001
1.366421
1.212377
1.333378
1.268636
1.226356
1.274955
1.223026
1.149722
1.053098
1.00585
0.9586722
0.9401365
0.999873
0.9870029
0.9581113
0.9057903
0.7382557
0.7030925
0.7012472
0.7675352
0.7833305
0.7875577
0.7691832
0.5225904
0.4941942
0.5026976
0.5714362
0.6071403
0.6350807
0.6419877
0.3520676
0.3254792
0.3386698
0.4062675
0.4544937
0.4982603
0.5226279
0.2207649
0.1913909
0.2041849
0.2674866
0.3224848
0.3748808
0.410111
0.1235994
0.08719027
0.09508774
0.1514074
0.207412
0.2633087
0.3045075
0.05608349
0.008724754
0.007743307
0.05490375
0.1073273
0.1616029
0.2049114
0.01412308
-0.04785433
-0.06109141
-0.02488035
0.02035124
0.06977343
0.1096944
-0.006150618
-0.08613274
-0.1145121
-0.09055176
-0.05506026
-0.01226067
0.02254864
-0.00859536
-0.1096706
-0.1556149
-0.1447189
-0.1209877
-0.08537413
-0.05552433
0.002843776
-0.1220774
-0.1874773
-0.1899608
-0.1781497
-0.1508833
-0.1287972
0.02404272
-0.1270682
-0.2131149
-0.2283114
-0.228924
-0.2113223
-0.1965293
0.05066907
-0.1285108
-0.2363164
-0.2629821
-0.2760701
-0.2679246
-0.2615181
0.07780397
-0.1322958
-0.2598022
-0.2966546
-0.3208909
-0.3211037
-0.3230079
0.09703813
-0.1403709
-0.2859189
-0.3312113
-0.364484
-0.370757
-0.3780115
0.1075445
-0.1552346
-0.3165748
-0.3680177
-0.4073335
-0.4177598
-0.4248389
0.1067808
-0.1788327
-0.352901
-0.408303
-0.4517513
-0.4645266
-0.4752981
0.0926345
-0.2119281
-0.3951497
-0.4521487
-0.4971276
-0.5106408
-0.5234638
0.06404376
-0.2543196
-0.4424576
-0.4987796
-0.5426839
-0.5553421
-0.5680304
0.02088099
-0.3048615
-0.493218
-0.5466633
-0.5867849
-0.5976873
-0.6167993
-0.03621531
-0.3619599
-0.5457502
-0.5940201
-0.6269094
-0.6305053
-0.6539652
-1.036467
-0.9765461
-0.9466778
-0.9275954
-0.9159009
-0.9059383
-0.8956081
-0.884284
-0.8720498
-0.8587787
-0.8444778
-0.8291736
-0.8129027
-0.7957053
-0.7776227
-0.7586926
-0.7389829
-0.7185328
-1.119796
-1.03139
-0.9829022
-0.9569265
-0.9439846
-0.9339435
-0.9236307
-0.9122807
-0.8999202
-0.8864472
-0.8718594
-0.8561954
-0.8394994
-0.8218185
-0.8031748
-0.783629
-0.7632864
-0.7421661
-1.18095
-1.078346
-1.018178
-0.9868688
-0.9729193
-0.9628147
-0.952618
-0.9413422
-0.9288225
-0.9151137
-0.9001996
-0.884135
-0.8669721
-0.8487634
-0.8295106
-0.8092986
-0.788274
-0.7664336
-1.235492
-1.119647
-1.053198
-1.01941
-1.004053
-0.9931424
-0.9829496
-0.9715554
-0.9588448
-0.9448483
-0.9295653
-0.9130531
-0.8953752
-0.8765877
-0.856672
-0.835738
-0.8139772
-0.7913633
-1.246895
-1.144065
-1.086312
-1.054723
-1.03829
-1.026257
-1.015007
-1.003013
-0.9900612
-0.9757261
-0.9600237
-0.9430135
-0.9247635
-0.9053407
-0.8847129
-0.8629869
-0.8404294
-0.816983
-1.238677
-1.160211
-1.11656
-1.09058
-1.074479
-1.061528
-1.049216
-1.035964
-1.022579
-1.00783
-0.9916468
-0.9740763
-0.955192
-0.9350718
-0.913779
-0.8910849
-0.8676625
-0.8433208
-1.24292
-1.181526
-1.147902
-1.1264
-1.111468
-1.0981
-1.085014
-1.070836
-1.056467
-1.041246
-1.024497
-1.006295
-0.9867152
-0.9658301
-0.943716
-0.92006
-0.8957078
-0.8704022
-1.255811
-1.208568
-1.181973
-1.162737
-1.149092
-1.135776
-1.122116
-1.107508
-1.091816
-1.076035
-1.058649
-1.039745
-1.019392
-0.9976656
-0.9746509
-0.9499538
-0.9245967
-0.8982532
-1.277286
-1.238486
-1.217499
-1.199944
-1.187583
-1.174593
-1.160405
-1.145612
-1.128842
-1.112269
-1.094179
-1.074493
-1.053273
-1.030628
-1.006632
-0.9808021
-0.9543583
-0.9268965
-1.305529
-1.271169
-1.253837
-1.238292
-1.227269
-1.214748
-1.200524
-1.185267
-1.167642
-1.150017
-1.131135
-1.110578
-1.088409
-1.064767
-1.039703
-1.012641
-0.9850215
-0.9563542
-1.340439
-1.307167
-1.291778
-1.27828
-1.268526
-1.256405
-1.242162
-1.2263
-1.20832
-1.189447
-1.169549
-1.148052
-1.124897
-1.100145
-1.07391
-1.045503
-1.016614
-0.9866516
-1.380772
-1.346737
-1.331974
-1.320475
-1.311734
-1.299822
-1.285572
-1.269129
-1.250961
-1.23088
-1.20964
-1.187092
-1.162775
-1.1368
-1.109292
-1.079418
-1.049153
-1.017793
-1.425112
-1.390022
-1.374778
-1.365234
-1.357202
-1.345268
-1.330867
-1.313711
-1.29487
-1.273746
-1.251385
-1.227628
-1.20208
-1.174784
-1.145891
-1.11442
-1.082664
-1.049791
-1.480642
-1.437491
-1.420705
-1.412933
-1.405181
-1.392981
-1.378182
-1.360467
-1.339997
-1.318347
-1.294818
-1.269818
-1.242884
-1.214152
-1.183749
-1.150537
-1.117167
-1.082666
-1.538304
-1.488529
-1.47053
-1.463779
-1.455899
-1.443168
-1.427635
-1.409184
-1.387812
-1.364813
-1.340141
-1.313713
-1.285268
-1.254959
-1.222909
-1.187796
-1.152678
-1.116418
-1.588206
-1.544164
-1.523876
-1.517704
-1.509401
-1.495977
-1.479491
-1.459995
-1.437583
-1.413331
-1.387396
-1.359399
-1.329301
-1.297263
-1.263414
-1.226221
-1.189207
-1.151046
-1.647218
-1.602929
-1.581748
-1.574559
-1.565728
-1.551508
-1.533959
-1.513259
-1.489629
-1.464101
-1.436675
-1.406966
-1.375052
-1.341117
-1.305301
-1.265832
-1.22676
-1.186544
-1.707874
-1.664415
-1.642319
-1.634522
-1.624934
-1.609884
-1.591217
-1.569183
-1.544182
-1.517231
-1.488099
-1.456503
-1.422592
-1.386576
-1.348609
-1.306643
-1.265336
-1.222895
-1.770625
-1.728939
-1.705782
-1.698809
-1.687408
-1.671309
-1.651409
-1.627929
-1.601396
-1.572827
-1.541786
-1.508108
-1.471997
-1.433696
-1.393372
-1.348665
-1.304927
-1.260077
-1.835743
-1.797164
-1.773172
-1.766564
-1.754572
-1.736118
-1.714769
-1.689681
-1.661434
-1.631033
-1.597866
-1.561882
-1.523344
-1.482527
-1.439607
-1.391902
-1.345516
-1.298055
-1.904402
-1.869313
-1.844631
-1.837963
-1.825646
-1.805983
-1.781661
-1.754658
-1.72449
-1.692019
-1.656473
-1.617933
-1.57671
-1.533115
-1.486252
-1.436267
-1.387072
-1.33678
-1.976799
-1.945513
-1.920097
-1.913651
-1.900929
-1.880083
-1.85372
-1.823264
-1.790782
-1.755961
-1.717758
-1.676375
-1.632175
-1.585516
-1.534814
-1.481861
-1.429552
-1.37619
-2.053009
-2.026109
-2.000346
-1.99409
-1.980874
-1.95861
-1.930272
-1.897119
-1.860747
-1.823064
-1.781881
-1.737324
-1.689816
-1.639764
-1.585336
-1.528619
-1.472898
-1.416207
-2.133292
-2.111301
-2.086028
-2.079813
-2.065918
-2.042012
-2.011427
-1.975638
-1.93595
-1.893727
-1.84901
-1.8009
-1.749703
-1.695888
-1.637332
-1.576471
-1.517025
-1.45672
-2.217781
-2.201429
-2.177659
-2.171335
-2.156611
-2.130794
-2.097619
-2.058849
-2.015757
-1.969452
-1.919476
-1.867215
-1.811897
-1.753902
-1.690766
-1.625343
-1.561824
-1.497592
-2.307156
-2.297092
-2.275799
-2.269304
-2.253647
-2.225548
-2.189333
-2.147217
-2.100076
-2.049566
-1.994724
-1.936574
-1.876451
-1.813698
-1.743803
-1.675119
-1.607149
-1.538653
-2.401946
-2.399449
-2.380945
-2.374451
-2.357752
-2.326918
-2.287224
-2.241127
-2.189267
-2.133949
-2.074027
-2.01018
-1.943626
-1.875347
-1.79782
-1.72563
-1.652821
-1.5797
-2.502588
-2.509634
-2.494109
-2.48764
-2.469617
-2.435615
-2.391997
-2.341013
-2.283706
-2.222882
-2.157174
-2.087373
-2.014341
-1.939097
-1.85449
-1.776726
-1.698622
-1.620486
-2.609555
-2.629103
-2.616654
-2.60993
-2.590298
-2.552523
-2.504203
-2.447434
-2.38371
-2.316563
-2.244256
-2.16771
-2.087922
-2.005467
-1.912243
-1.828166
-1.744281
-1.660723
-2.723603
-2.759754
-2.750052
-2.742549
-2.720793
-2.678639
-2.624558
-2.560968
-2.48997
-2.41552
-2.335632
-2.2514
-2.163966
-2.070211
-1.971474
-1.879813
-1.789448
-1.70052
-2.846929
-2.903276
-2.895282
-2.8873
-2.861024
-2.814897
-2.75394
-2.682172
-2.602824
-2.519786
-2.431185
-2.338217
-2.242186
-2.137886
-2.031613
-1.932045
-1.834431
-1.739612
-2.982507
-3.059765
-3.052783
-3.044113
-3.013275
-2.962684
-2.893384
-2.811931
-2.724363
-2.629647
-2.531021
-2.428109
-2.322378
-2.207664
-2.091707
-1.983902
-1.878719
-1.771926
-3.130491
-3.229249
-3.225005
-3.21569
-3.181193
-3.123147
-3.043911
-2.951173
-2.851799
-2.745136
-2.635071
-2.520847
-2.403853
-2.271903
-2.151079
-2.034294
-1.920797
-1.802569
-3.298231
-3.411843
-3.416327
-3.40289
-3.365142
-3.298159
-3.206655
-3.100184
-2.986942
-2.86645
-2.743201
-2.616106
-2.486643
-2.338625
-2.209039
-2.082456
-1.959575
-1.826438
-3.382673
-3.615076
-3.631434
-3.60994
-3.564708
-3.489444
-3.38274
-3.259793
-3.130634
-2.993452
-2.855099
-2.713362
-2.569717
-2.406233
-2.264724
-2.127508
-1.985833
-1.850785
-3.547797
-3.853825
-3.870545
-3.843823
-3.784987
-3.697327
-3.573188
-3.431538
-3.285456
-3.126298
-2.970365
-2.811991
-2.641269
-2.470773
-2.316972
-2.167891
-2.010599
-1.870152
-3.706185
-4.120534
-4.140047
-4.104914
-4.031198
-3.925813
-3.779591
-3.617687
-3.446409
-3.264376
-3.088254
-2.910984
-2.720205
-2.532285
-2.364464
-2.202448
-2.025519
-1.882693
-3.502192
-4.409932
-4.445381
-4.396568
-4.304486
-4.177144
-4.00353
-3.813821
-3.615719
-3.407033
-3.207733
-3.008274
-2.78032
-2.588471
-2.405554
-2.216299
-2.038299
-1.887088
-3.193632
-4.73947
-4.795976
-4.726183
-4.609438
-4.454158
-4.246708
-4.02331
-3.793313
-3.553411
-3.32754
-3.103513
-2.84781
-2.637436
-2.437558
-2.217087
-2.041954
-1.88176
-2.004879
-5.142544
-5.189346
-5.096077
-4.949105
-4.758848
-4.510094
-4.24621
-3.978179
-3.701713
-3.445577
-3.17709
-2.906692
-2.676599
-2.447455
-2.219677
-2.033977
-1.864961
-1.260371
-5.61118
-5.628659
-5.509527
-5.325999
-5.093234
-4.794269
-4.481642
-4.168634
-3.849748
-3.558971
-3.249777
-2.954553
-2.70204
-2.436817
-2.207465
-2.011958
-1.834733
-3.863294
-6.192492
-6.129635
-5.973214
-5.744989
-5.459058
-5.099544
-4.728468
-4.362474
-3.994398
-3.662645
-3.285376
-2.987179
-2.694241
-2.406957
-2.178423
-1.973162
-1.787919
-6.227793
-6.862965
-6.71575
-6.496836
-6.209824
-5.841662
-5.426376
-4.984995
-4.556565
-4.131247
-3.75363
-3.327659
-2.999726
-2.667294
-2.368458
-2.128606
-1.913664
-1.707009
-6.581656
-7.558121
-7.380869
-7.091454
-6.727874
-6.275629
-5.774158
-5.248457
-4.746245
-4.254852
-3.783034
-3.343821
-2.982962
-2.590698
-2.304928
-2.052979
-1.812116
-1.611019
-7.501558
-8.329637
-8.138853
-7.764777
-7.305646
-6.749226
-6.141718
-5.51444
-4.911229
-4.355505
-3.799256
-3.330075
-2.892187
-2.507215
-2.208707
-1.924908
-1.691547
-1.489137
-7.627583
-9.367259
-9.011766
-8.555442
-7.951988
-7.265654
-6.526563
-5.777154
-5.052333
-4.42466
-3.756017
-3.271611
-2.747749
-2.387024
-2.054276
-1.770685
-1.532073
-1.330516
-7.097049
-10.58223
-10.05657
-9.431405
-8.674172
-7.870565
-6.926116
-6.029604
-5.176124
-4.412118
-3.691686
-3.116757
-2.592834
-2.199148
-1.8524
-1.562156
-1.337083
-1.151957
-8.630737
-11.9169
-11.28362
-10.50703
-9.511387
-8.497914
-7.339098
-6.238791
-5.252785
-4.295524
-3.534448
-2.874711
-2.35024
-1.92954
-1.584671
-1.323761
-1.101002
-0.9338348
-11.24979
-13.14314
-12.78307
-11.7365
-10.58457
-9.181992
-7.752114
-6.399996
-5.167276
-4.132477
-3.269535
-2.543517
-2.001845
-1.585219
-1.257642
-1.026239
-0.8426333
-0.6900841
7.547806
-13.42346
-14.4498
-13.23883
-4.949223
-3.785741
-2.836939
-2.101953
-1.553447
-1.16237
-0.8761644
-0.6839329
-0.5274956
-0.4230739
27.8041
-12.33097
-2.188361
-1.473445
-1.000113
-0.6691223
-0.4411324
-0.2900747
-0.1922622
-0.1220474
68.41788
-0.7507282
-0.3158352
-0.06044536
0.05543608
0.1426854
0.1709256
0.1686374
0.4946658
0.5807852
0.5889627
0.5678863
0.520647
0.4859569
1.239119
1.122967
1.003161
0.8866897
0.7808567
1.887635
1.623603
1.401744
1.21411
1.048649
2.425577
2.047074
1.735542
1.484098
1.276603
2.801005
2.367707
2.003702
1.711741
1.472563
3.014191
2.546266
2.166066
1.850995
1.599161
2.994786
2.57355
2.217027
1.918907
1.66324
3.214107
2.856819
2.5022
2.184975
1.911891
1.675479
42.07982
2.924046
2.620707
2.341777
2.080739
1.845849
1.64083
30.96008
-2.132146
2.562246
2.465991
2.3108
2.12081
1.926774
1.739514
1.564534
23.1649
-3.827079
-7.484441
1.540772
1.915079
2.053488
2.054409
1.987231
1.874198
1.737812
1.597144
1.460832
6.738749
-5.443909
-6.074523
-5.123617
-3.869638
-2.585839
-1.387627
-0.3566143
0.4640477
1.00508
1.388688
1.587328
1.672718
1.671488
1.623681
1.537346
1.440963
1.33777
0.3527909
-5.448619
-5.147157
-4.286943
-3.375251
-2.384561
-1.416071
-0.5658159
0.07885063
0.61949
0.9664814
1.199094
1.32863
1.37945
1.376871
1.336271
1.278077
1.20632
-3.79092
-4.924206
-4.330379
-3.664636
-2.901628
-2.17552
-1.395955
-0.7264821
-0.1576338
0.2937925
0.6420615
0.8904787
1.032596
1.113982
1.149375
1.146234
1.116167
1.071516
-2.396436
-4.358418
-3.714883
-3.159205
-2.55753
-1.963866
-1.344084
-0.7901356
-0.3065243
0.0732421
0.408547
0.6188146
0.8002711
0.8839232
0.9415536
0.9658803
0.963257
0.9378974
-1.717152
-3.698274
-3.190409
-2.722988
-2.253541
-1.763244
-1.272577
-0.8132452
-0.4036883
-0.08392767
0.2289734
0.4189065
0.5923706
0.7001635
0.7656776
0.8050195
0.8135007
0.812974
-1.151527
-3.084776
-2.71126
-2.343818
-1.98146
-1.588131
-1.189113
-0.8088957
-0.4786034
-0.1872704
0.065341
0.2677308
0.4208304
0.5440901
0.6112628
0.6586136
0.6868785
0.6931577
-1.297118
-2.593615
-2.290481
-2.01719
-1.736689
-1.422383
-1.099855
-0.7859102
-0.5079432
-0.2565144
-0.04348851
0.148446
0.2796024
0.4024614
0.4839266
0.5320222
0.5668564
0.5879275
-1.366428
-2.148403
-1.929079
-1.730893
-1.516488
-1.273913
-1.008583
-0.7511717
-0.5176829
-0.3024542
-0.1295298
0.05568383
0.1764926
0.2888736
0.3744578
0.4258386
0.4613296
0.4872956
1.026444
-1.719097
-1.615066
-1.478032
-1.320008
-1.136979
-0.9194607
-0.7091348
-0.5145353
-0.3311977
-0.1804386
-0.02741201
0.09340045
0.1852601
0.2793704
0.3328306
0.3709099
0.3976303
3.387529
-1.36053
-1.340487
-1.2589
-1.147568
-1.008578
-0.8362113
-0.6647242
-0.5026093
-0.3477598
-0.2177253
-0.08735838
0.02591904
0.1095983
0.1891201
0.2512775
0.2904357
0.3194655
1.157607
-1.115889
-1.123064
-1.075933
-1.000027
-0.8960817
-0.7603368
-0.6213636
-0.4865843
-0.3557628
-0.2441054
-0.1379856
-0.03004341
0.04682744
0.1115184
0.1792712
0.2190254
0.2496568
0.7659985
-0.9106466
-0.9492732
-0.9283944
-0.8773283
-0.7997555
-0.6931311
-0.5806734
-0.4692335
-0.3589126
-0.2632716
-0.1741938
-0.07584547
-0.006315379
0.05311015
0.1123112
0.156298
0.1876256
-0.3068421
-0.7950105
-0.824149
-0.8119745
-0.7774714
-0.7190868
-0.635167
-0.544118
-0.452306
-0.3595933
-0.2775757
-0.2004256
-0.1190185
-0.05117767
0.003284876
0.05462386
0.1009563
0.1324841
-0.2977349
-0.7103517
-0.7268349
-0.7204143
-0.6973894
-0.6524969
-0.5861513
-0.5119333
-0.4370574
-0.3588483
-0.288438
-0.2216065
-0.1519928
-0.08881455
-0.0389972
0.004640095
0.0524901
0.08347049
-0.3697112
-0.6347584
-0.6514381
-0.6493319
-0.6340181
-0.5967992
-0.5449616
-0.4829851
-0.4218697
-0.3574105
-0.2967141
-0.2385207
-0.1794938
-0.1210742
-0.07539485
-0.0351934
0.005217885
0.03974233
-0.4725875
-0.5748499
-0.5953104
-0.5944862
-0.5804027
-0.5523692
-0.5114843
-0.4608119
-0.4084856
-0.3552378
-0.303288
-0.2526603
-0.2039575
-0.14858
-0.1070467
-0.06995615
-0.0337514
0.0004350452
-0.4595801
-0.5475201
-0.5528403
-0.5498505
-0.5398501
-0.5185674
-0.4850263
-0.4431028
-0.3990741
-0.3537266
-0.3090451
-0.2648986
-0.221938
-0.1726618
-0.1349063
-0.1007893
-0.06982394
-0.03598026
-0.450774
-0.5226178
-0.519036
-0.515983
-0.5099257
-0.4925214
-0.4646057
-0.4295508
-0.391917
-0.3531906
-0.3145928
-0.2759913
-0.238134
-0.1970965
-0.1598004
-0.1284006
-0.09970357
-0.06985623
-0.4491122
-0.5000454
-0.4924423
-0.4901653
-0.4871298
-0.4730308
-0.4492836
-0.4196117
-0.3864281
-0.353891
-0.3203795
-0.2864822
-0.2529667
-0.2168045
-0.1822981
-0.1534166
-0.1266777
-0.1006601
-0.4502428
-0.482613
-0.4734142
-0.4722339
-0.4699843
-0.4585906
-0.4382773
-0.4129061
-0.3842594
-0.3560807
-0.3267071
-0.2967696
-0.2668866
-0.2343802
-0.2029591
-0.1763632
-0.1513966
-0.1279481
-0.4533241
-0.4714959
-0.4610495
-0.4603951
-0.4585096
-0.4485358
-0.4311909
-0.4092186
-0.3843125
-0.3596541
-0.3337311
-0.3071199
-0.2803307
-0.2527833
-0.2224246
-0.1975827
-0.1741878
-0.1522758
-0.4588065
-0.4663211
-0.4539962
-0.4532908
-0.4516278
-0.4426024
-0.4275863
-0.4083074
-0.3864017
-0.3646131
-0.3415536
-0.317727
-0.2935574
-0.2693644
-0.2405941
-0.2174723
-0.1955213
-0.1747811
-0.4661291
-0.4653925
-0.4515915
-0.4504784
-0.4487314
-0.440386
-0.4270719
-0.409905
-0.390377
-0.3709233
-0.3502306
-0.3287239
-0.3067596
-0.2845068
-0.2579645
-0.2363887
-0.2157166
-0.1960053
-0.4752951
-0.4676244
-0.4530991