/*--------------------------------*- C++ -*----------------------------------*\
| =========                 |                                                 |
| \\      /  F ield         | OpenFOAM: The Open Source CFD Toolbox           |
|  \\    /   O peration     | Version:  2206                                  |
|   \\  /    A nd           | Website:  www.openfoam.com                      |
|    \\/     M anipulation  |                                                 |
\*---------------------------------------------------------------------------*/
FoamFile
{
    version     2.0;
    format      ascii;
    arch        "LSB;label=32;scalar=64";
    class       volScalarField;
    location    "2";
    object      pff;
}
// * * * * * * * * * * * * * * * * * * * * * * * * * * * * * * * * * * * * * //

dimensions      [1 -1 -2 0 0 0 0];

internalField   nonuniform List<scalar> 
13078
(
0.7562058
73.83747
630.5527
683.0558
637.9133
579.2359
517.753
118.4445
617.2702
745.1484
698.9703
641.4167
581.3745
519.3236
813.6312
828.5769
773.9
709.8858
647.2855
584.8165
521.6349
949.6979
859.6592
785.975
718.671
653.0319
588.5152
524.2268
961.8984
869.0735
793.6637
724.009
657.8112
592.0356
526.802
956.5804
870.5041
797.2167
727.488
660.4515
594.9701
529.2299
950.831
869.4666
798.6529
729.5807
662.3003
596.422
531.3039
946.6845
867.7833
799.0888
730.6135
663.357
597.4435
532.1773
943.7421
866.2083
798.7179
730.8838
663.9118
598.0998
532.8203
941.6292
864.8936
798.1736
730.8759
664.1817
598.5131
533.2703
940.0592
863.831
797.6345
730.7335
664.2876
598.7723
533.6052
938.8101
863.0022
797.1433
730.5348
664.3023
598.9391
533.8546
937.8165
862.3061
796.7039
730.3312
664.2723
599.0479
534.0543
936.9775
861.7207
796.3188
730.149
664.2483
599.1299
534.2272
936.2553
861.2144
796.0033
730.3638
664.6977
599.2518
534.383
935.6024
860.7653
795.7354
730.6711
665.0074
599.3468
534.5394
934.9843
860.3301
795.4485
730.5695
665.0071
599.4214
534.6961
934.3795
859.9232
795.1779
730.4509
665.0019
599.5032
534.8601
933.7736
859.5154
794.9172
730.3319
665.0168
599.6302
535.0238
933.1493
859.11
794.6668
730.2667
665.5567
600.3962
535.2683
932.4982
858.6739
794.4032
730.2036
666.1927
600.9751
535.5169
931.7824
858.2102
794.1072
730.0748
666.2947
601.1529
535.7315
931.0096
857.7115
793.7988
729.9565
666.3364
601.36
536.0337
930.1512
857.1482
793.4548
729.8289
666.4563
602.2177
537.1532
929.1831
856.5225
793.0634
729.687
666.5728
603.2118
538.0368
928.0918
855.8114
792.6337
729.5236
666.6348
603.585
538.4795
926.8244
854.9886
792.1341
729.3329
666.7045
603.8869
538.9876
925.3854
854.053
791.5603
729.105
666.7887
604.2744
540.327
923.7157
852.955
790.8946
728.8329
666.86
604.6624
541.8374
922.0308
851.9165
790.182
728.512
666.8877
604.968
542.564
920.0055
850.6259
789.3325
728.1163
666.8799
605.2664
543.1931
917.6025
849.4512
788.9125
727.7507
666.8011
605.4977
543.7312
914.9573
848.1563
788.6735
728.0956
666.9203
605.8311
544.23
912.1926
846.7692
788.5798
728.3839
667.6236
606.9469
545.4064
909.7141
846.168
789.7784
731.7962
672.0426
610.7029
548.4606
908.4215
848.2267
795.3373
740.7829
682.3858
619.725
554.2573
910.0628
856.8223
809.5857
757.3139
698.7164
630.0879
558.1263
918.1999
876.4598
833.6987
779.1202
714.7726
637.9597
553.3702
937.6332
906.5494
862.8081
800.4036
724.7761
638.8328
537.7037
972.716
943.3135
891.2387
817.1566
727.5605
629.1994
518.5924
1023.375
981.463
920.9291
829.4561
726.8898
618.9813
507.187
1089.911
1018.361
947.5102
845.9666
731.6375
616.2989
496.3891
1166.77
1053.694
971.2591
866.006
751.435
617.4419
486.037
1242.735
1074.741
994.4194
889.4454
761.747
614.9403
472.4132
1293.218
1080.698
1007.315
895.7414
756.4689
605.2074
469.6826
1299.183
1075.042
1002.581
875.7845
733.5693
592.4242
467.0635
1283.73
1068.243
973.9282
838.4933
699.1175
568.1437
459.4205
1277.703
1057.05
943.4804
802.5954
668.233
543.4744
436.4756
1261.876
1036.429
921.8438
772.4606
641.6144
524.653
423.5868
1229.756
1014.891
901.6517
746.9844
618.3185
507.2284
428.6278
1183.716
1000.184
884.4879
720.9987
600.4101
504.6791
439.4978
1130.701
978.8667
865.7549
710.2902
602.7436
524.5741
469.0811
1079.443
950.3705
835.557
694.6371
603.402
537.3331
471.0553
1038.772
924.3169
810.7483
674.9581
587.4535
515.4717
453.4604
1008.061
901.7337
788.4502
657.5343
569.2924
492.7392
425.0126
985.5024
884.3176
772.1326
645.1545
554.0754
473.6194
401.4799
978.966
872.6764
759.7915
632.4129
538.8371
458.1459
390.1354
991.9986
874.3974
759.8273
627.9331
530.4503
451.4793
389.9569
1010.907
881.341
766.4807
629.3616
523.2798
441.5162
386.025
1034.382
888.6443
773.9962
633.6292
520.0339
430.46
360.1131
1065.494
900.0853
786.3868
638.0907
521.1948
423.3242
345.5775
1099.048
910.6106
802.454
654.5238
534.8317
429.679
351.6111
1125.809
922.7184
816.099
675.4944
553.4146
445.7577
365.6921
1141.451
944.325
839.01
701.5723
576.4712
464.2409
375.4461
1148.714
974.0346
872.0301
734.2345
600.3216
479.1713
381.6977
1159.836
998.1256
907.2576
766.9619
621.0435
487.5923
389.4181
1171.706
1012.347
929.5862
793.9104
642.6658
505.7204
397.7472
1155.344
1012.122
928.661
809.6262
666.6173
525.3286
410.6255
1108.032
1000.077
918.1263
813.3247
684.288
548.7274
426.468
1053.044
979.9492
903.7428
805.0351
693.5914
568.7432
448.9049
1001.595
953.7549
888.2115
798.5473
697.0132
587.0555
473.1057
959.4794
926.585
871.816
793.0946
702.7354
604.4187
502.4772
930.1372
897.4541
850.5989
786.0461
708.3566
621.9967
522.557
913.029
871.5092
827.7215
771.4936
705.7217
631.3526
542.2585
906.0713
853.9886
806.9588
754.2408
695.3032
627.7063
553.1059
904.8683
845.8436
793.5394
739.519
681.7116
618.4143
552.6113
906.452
843.8037
787.9875
731.3238
671.9947
610.7355
548.1136
909.2892
844.5698
787.0738
728.0791
667.7861
606.5317
545.0763
912.3619
846.237
787.6546
727.1419
666.137
605.3762
544.0272
915.3116
848.0764
788.3128
727.544
666.3152
605.2341
543.7154
918.0965
849.5432
788.748
727.467
666.484
605.1913
543.4328
920.515
850.8331
789.3007
727.9762
666.6834
605.0553
542.9853
922.505
852.1592
790.2475
728.4654
666.7932
604.8398
542.4339
924.1465
853.2148
791.0088
728.8573
666.8267
604.6045
541.7888
925.7673
854.314
791.7059
729.1837
666.8093
604.2731
540.3144
927.1703
855.2369
792.2965
729.4288
666.768
603.9299
539.0191
928.3945
856.0457
792.8025
729.6288
666.7195
603.6515
538.5333
929.4377
856.7267
793.2195
729.7966
666.6643
603.2925
538.1043
930.3736
857.3253
793.5886
729.9494
666.5498
602.2848
537.2123
931.1954
857.867
793.9224
730.065
666.4316
601.4436
536.1004
931.9339
858.3385
794.2164
730.1707
666.3833
601.2257
535.8022
932.603
858.7771
794.4953
730.2763
666.2607
601.0421
535.5783
933.219
859.1806
794.7273
730.3149
665.5942
600.4359
535.3136
933.8
859.5531
794.9488
730.3547
665.0465
599.6599
535.0565
934.3549
859.9147
795.1678
730.4558
665.0194
599.5242
534.8912
934.8966
860.27
795.4033
730.5499
665.0119
599.4437
534.7315
935.4463
860.6453
795.6524
730.6245
665.0005
599.3662
534.5725
936.0069
861.0227
795.8721
730.2818
664.667
599.2636
534.416
936.6083
861.4411
796.1266
730.0484
664.2132
599.1426
534.2718
937.2968
861.9205
796.4484
730.2086
664.2407
599.0784
534.1217
938.0874
862.5004
796.8252
730.3979
664.2878
599.0077
533.9666
939.0636
863.1772
797.2517
730.5959
664.3161
598.9056
533.7807
940.2784
863.9987
797.7339
730.7833
664.3012
598.749
533.5391
941.8215
865.0331
798.2625
730.9209
664.2038
598.4999
533.2189
943.8891
866.3396
798.7703
730.9395
663.9503
598.0898
532.7587
946.779
867.8956
798.8327
730.4705
663.3793
597.4289
532.115
950.8868
869.567
798.5291
729.3945
662.2864
596.4398
530.316
956.5652
870.6756
797.398
727.5958
660.6301
594.0561
528.1629
961.9226
869.3262
793.9235
724.4642
657.0151
591.0624
525.7833
950.4023
860.1516
787.1256
718.079
652.2248
587.6347
523.2092
824.1591
832.7052
773.5386
709.4226
646.6617
583.9556
520.6058
134.5373
655.0598
756.0584
699.1616
640.3859
580.2132
518.1091
454.0466
386.212
312.7717
257.1931
183.5627
110.7101
37.88505
455.4547
387.6589
314.2014
258.525
184.6829
111.6002
39.55842
457.2486
389.2714
315.8266
241.8331
185.7655
112.4642
40.4664
459.2198
390.9565
317.2571
261.5661
186.913
113.3432
41.31588
461.2136
392.7048
318.8648
263.091
188.0795
114.23
41.92838
463.1637
394.4689
320.4996
264.6299
189.239
115.1177
42.51374
465.0206
396.1934
322.1155
266.1033
189.589
116.01
43.08643
466.6506
397.8703
323.7021
267.5467
189.9146
116.9015
43.62349
467.2409
399.3817
325.2077
269.001
190.8602
117.7093
44.16365
467.6902
399.8629
326.594
270.4467
191.7899
118.5223
44.68478
468.0421
400.2317
327.0089
271.8432
192.7217
119.3406
45.1936
468.3416
400.565
327.3336
272.1619
193.6615
120.167
45.69429
468.5982
400.8714
327.6528
272.4569
193.8364
121.0199
46.18134
468.8349
401.1642
327.9706
272.7614
194.0328
121.1892
46.59609
469.0608
401.4616
328.2947
273.0734
194.2429
121.3928
46.44503
469.2903
401.7642
328.6261
273.3999
194.4712
121.6144
46.29032
469.5203
402.0756
328.967
273.7535
194.8318
121.8477
46.18382
469.7581
402.3886
329.332
274.2709
197.5664
122.1019
46.00229
470.0047
402.7028
329.7077
274.66
198.0277
122.364
45.84637
470.2704
403.0371
330.1037
275.0701
198.3836
122.6427
45.65861
470.5477
403.3894
330.5127
275.504
198.7565
122.9349
45.38171
470.853
403.7628
330.9318
275.9687
199.1491
123.2429
45.16711
471.173
404.1703
331.3981
276.3843
199.6663
123.5645
44.94055
471.6176
404.6209
331.9708
258.5888
202.5357
124.062
44.71975
472.0749
405.0828
332.4494
277.4019
203.9533
124.4741
44.50026
472.52
405.593
333.0252
278.1277
204.5665
124.871
44.27095
473.148
406.2408
333.721
278.8329
205.198
125.342
44.00581
474.8261
406.988
334.3981
279.5669
206.0471
128.8054
43.75707
475.9598
425.1845
353.2689
280.0754
206.8718
130.2208
43.56712
476.849
425.941
354.22
280.9763
207.7082
130.8651
43.3854
479.1814
428.342
355.1558
281.9417
208.6666
133.5944
43.27113
480.7156
430.6448
356.1499
283.064
209.7766
136.8276
43.3109
481.5288
434.2666
357.448
284.2721
211.0552
138.0827
43.99807
482.4004
435.674
359.8106
285.3044
212.4361
140.2044
52.47689
483.9649
436.9647
361.8916
285.7297
213.5096
143.9415
60.14112
484.7599
437.7899
363.1998
283.4112
213.0992
150.6314
85.76839
478.6451
431.6378
351.9147
274.4445
209.7778
156.4272
87.50583
460.6991
411.0484
331.6018
267.1308
202.4854
146.4861
92.77056
433.0341
379.3473
305.2791
249.6809
185.3375
142.4512
101.2027
403.6558
345.7303
272.1908
209.99
186.6098
156.1377
103.3687
379.6253
313.0519
235.1253
195.6254
197.7504
160.4453
87.14619
371.2811
291.4777
218.497
206.5368
203.4824
164.188
79.52594
359.5267
278.8422
217.4279
229.0616
204.6346
160.4663
72.24691
347.4634
263.8041
242.9583
248.0188
204.3252
135.1355
68.12445
349.7709
275.1724
279.381
263.5796
192.2172
124.7825
68.82517
353.6913
290.3336
303.3048
271.5721
193.7669
148.9107
84.55851
355.4842
304.5935
311.081
266.782
218.7799
159.315
112.5509
337.4649
296.7659
286.7102
252.1694
212.7964
173.2668
142.8286
324.486
286.6018
265.724
222.9551
204.0328
170.2825
145.2523
336.9801
288.4069
253.9387
218.534
185.5323
162.8839
137.2365
360.8963
323.2778
244.9693
203.1122
178.2723
149.9916
113.6056
364.8001
304.8275
223.8833
198.0236
178.5159
143.8476
104.126
355.7208
295.1444
217.0355
182.9674
167.9619
126.8195
103.1634
335.5199
273.5448
199.0958
167.8551
168.6817
152.2474
153.2526
306.4313
252.2508
181.1355
162.051
168.969
244.0265
330.2981
288.838
226.3629
185.5883
172.2651
196.9252
243.5448
285.1518
222.5392
193.9811
173.3625
180.6939
232.0276
280.765
213.4845
183.0053
164.9744
173.7872
226.1953
279.8771
209.8956
176.6706
162.6974
165.0222
171.7818
189.8715
274.9795
216.8693
178.4581
156.1041
151.7087
128.3583
120.3212
250.6136
192.5949
223.2421
170.2862
155.1185
148.9891
133.0539
260.4797
199.0337
231.1976
196.6491
189.0621
178.498
148.7403
279.6606
229.4737
243.8276
214.8095
193.7779
169.9538
143.7598
283.7747
240.4287
259.8082
226.9854
183.3301
163.9891
153.434
288.7097
249.9223
270.8629
229.0886
187.2786
165.5035
134.7538
289.5592
245.8473
273.5047
241.8595
188.7053
156.6571
114.7958
291.7276
237.3562
265.885
243.0349
183.7911
126.6313
69.08654
298.12
228.19
238.7385
234.863
176.3353
116.1885
67.98285
310.7534
234.8635
217.1493
213.0112
185.2678
119.4261
69.26295
329.4112
252.5087
202.3951
196.7417
175.754
129.1662
62.14712
352.5147
270.3047
212.4488
188.4658
165.067
136.6416
65.10028
382.5162
294.2068
237.4246
186.5032
170.3356
140.3683
69.58513
417.1993
333.0016
275.3031
203.3239
179.0709
143.3113
82.48665
449.9905
369.3382
313.2171
245.3845
178.5613
142.6963
105.4449
472.8609
402.386
338.4424
272.6071
199.6906
145.8357
105.8031
482.2405
423.8846
355.9133
277.7313
209.3064
152.0262
87.61854
483.255
431.602
364.1222
284.7133
212.0191
148.6614
75.58694
482.2084
432.8704
364.2361
285.9126
212.8487
141.889
56.1285
481.5392
432.825
360.9055
285.3786
212.2995
139.4934
50.40092
481.1663
432.4582
357.9736
284.4327
211.2225
138.253
46.57957
480.494
430.035
356.5452
283.3127
210.0649
137.0989
42.907
479.0075
427.8493
355.4431
282.2581
208.9951
135.7618
42.95043
476.7451
425.2012
354.5527
281.3163
208.0522
131.4018
43.127
475.9231
424.2576
353.6725
280.5001
207.2281
130.4947
43.35193
474.8169
406.99
334.4053
279.2333
206.4548
129.8803
43.58149
473.1805
406.277
333.7602
278.6306
205.5997
126.6771
43.83597
472.5703
405.6503
333.1002
278.0146
204.8895
125.0986
44.12327
472.1357
405.1414
332.5216
277.4407
204.2723
124.6877
44.3724
471.6752
404.6654
331.9784
276.8967
203.6061
124.3091
44.63743
471.2331
404.2301
331.4773
276.374
200.5864
123.8141
44.86355
470.9144
403.8251
331.004
275.885
199.3694
123.4224
45.10162
470.6079
403.4396
330.5605
275.4323
198.9701
123.1095
45.34894
470.3176
403.082
330.1434
274.999
198.5863
122.811
45.57215
470.0416
402.7456
329.7445
274.5918
198.2257
122.5259
45.79111
469.7947
402.428
329.3729
274.2009
197.8861
122.2571
45.97597
469.5554
402.1141
329.0101
273.7475
196.375
121.9987
46.13579
469.3284
401.8066
328.6689
273.3262
194.6171
121.7554
46.29204
469.1087
401.5152
328.3449
272.9859
194.3856
121.5264
46.45409
468.8979
401.2329
328.0326
272.6534
194.1672
121.3116
46.4847
468.6849
400.9594
327.7269
272.3362
193.9676
121.1133
46.3723
468.4656
400.6813
327.4296
272.0202
193.7751
120.6059
45.87974
468.2206
400.3862
327.1285
271.7072
193.2303
119.7746
45.37127
467.9399
400.0667
326.7408
270.8463
192.3055
118.9505
44.84787
467.5856
399.6466
325.391
269.3999
191.3802
118.1345
44.32697
467.1115
398.2119
323.9317
267.9418
190.4566
117.3216
43.78514
465.6263
396.6151
322.3877
266.4668
189.5678
116.4732
43.23889
463.9148
394.9638
320.8077
265.057
189.8361
115.5781
42.68772
462.0859
393.2456
319.1998
263.5685
188.7158
114.686
42.1193
460.1405
391.4806
317.5769
262.0954
187.5586
113.7991
41.52059
458.1067
389.7045
315.9598
260.6366
186.4045
112.9149
40.81933
456.1052
387.9794
314.3732
259.2262
185.2571
112.0344
39.91948
454.1928
386.275
312.8134
257.8661
184.1216
111.1531
38.65296
0
0
0
0
0
0
0
0
0
0
0
0
0
0
0
0
0
0
0
0
0
0
0
0
0
0
0
0
0
0
0
0
0
0
0
0
0
0
0
0
0
0
0
0
0
0
0
0
0
0
0
0
0
0
0
0
0
0
0
0
0
0
0
0
0
0
0
0
0
0
0
0
0
0
0
0
0
0
0
0
0
0
0
0
0
0
0
0
0
0
0
0
0
0
0
0
0
0
0
0
0
0
0
0
0
0
0
0
0
0
0
0
0
0
0
0
0
0
0
0
0
0
0
0
0
0
0
0
0
0
0
0
0
0
0
0
0
0
0
0
0
0
0
0
0
0
0
0
0
0
0
0
0
0
0
0
0
0
0
0
0
0
0
0
0
0
0
0
0
0
0
0
0
0
0
0
0
0
0
0
0
0
0
0
0
0
0
0
0
0
0
0
0
0
0
0
0
0
0
0
0
0
0
0
0
0
0
0
0
0
0
0
0
0
0
0
0
0
0
0
0
0
0
0
0
0
0
0
0
0
0
0
0
0
0
0
0
0
0
0
0
0
0
0
0
0
0
0
0
0
0
0
0
0
0
0
0
0
0
0
0
0
0
0
0
0
0
0
0
0
0
0
0
0
0
0
0
0
0
0
0
0
0
0
0
0
0
0
0
0
0
0
0
0
0
0
0
0
0
0
0
0
0
0
0
0
0
0
0
0
0
0
0
0
0
0
0
0
0
0
0
0
0
0
0
0
0
0
0
0
0
0
0
0
0
0
0
0
0
0
0
0
0
0
0
0
0
0
0
0
0
0
0
0
0
0
0
0
0
0
0
0
0
0
0
0
0
0
0
0
0
0
0
0
0
0
0
0
0
0
0
0
0
0
0
0
0
0
0
0
0
0
0
0
0
0
0
0
0
0
0
0
0
0
0
0
0
0
0
0
0
0
0
0
0
0
0
0
0
0
0
0
0
0
0
0
0
0
0
0
0
0
0
0
0
0
0
0
0
0
0
0
0
0
0
0
0
0
0
0
0
0
0
0
0
0
0
0
0
0
0
0
0
0
0
0
0
0
0
0
0
0
0
0
0
0
0
0
0
0
0
0
0
0
0
0
0
0
0
0
0
0
0
0
0
0
0
0
0
0
0
0
0
0
0
0
0
0
0
0
0
0
0
0
0
0
0
0
0
0
0
0
0
0
0
0
0
0
0
0
0
0
0
0
0
0
0
0
0
0
0
0
0
0
0
0
0
0
0
0
0
0
0
0
0
0
0
0
0
0
0
0
0
0
0
0
0
0
0
0
0
0
0
0
0
0
0
0
0
0
0
0
0
0
0
0
0
0
0
0
0
0
0
0
0
0
0
0
0
0
0
0
0
0
0
0
0
0
0
0
0
0
0
0
0
0
0
0
0
0
0
0
0
0
0
0
0
0
0
0
0
0
0
0
0
0
0
0
0
0
0
0
0
0
0
0
0
0
0
0
0
0
0
0
0
0
0
0
0
0
0
0
0
0
0
0
0
0
0
0
0
0
0
0
0
0
0
0
0
0
0
0
0
0
0
0
0
0
0
0
0
0
0
0
0
0
0
0
0
0
0
0
0.004299848
0
0
0
0
0
0
0
0
0
0
0
0
0
0
0
0
0
1.775632
0
0
0
0
0
0
0
0
0
0
0
0
0
0
0
0
0
3.522601
0
0
0
0
0
0
0
0
0
0
0
0
0
0
0
0
0
5.997731
0
0
0
0
0
0
0
0
0
0
0
0
0
0
0
0
0
9.643889
0
0
0
0
0
0
0
0
0
0
0
0
0
0
0
0
0
11.54164
0
0
0
0
0
0
0
0
0
0
0
0
0
0
0
0
0
14.11606
0
0
0
0
0
0
0
0
0
0
0
0
0
0
0
0
0
33.72933
0
0
0
0
0
0
0
0
0
0
0
0
0
0
0
0
0
36.33308
0
0
0
0
0
0
0
0
0
0
0
0
0
0
0
0
0
32.45274
0
0
0
0
0
0
0
0
0
0
0
0
0
0
0
0
0
83.13507
0
0
0
0
0
0
0
0
0
0
0
0
0
82.87764
3.431512
0
0
0
0
0
0
0
0
80.65092
0
0
0
0
0
0
0
0
0
0
0
0
0
0
0
0
0
0
0
0
0
0
0
0
0
0
0
0
0
0
0
0
0
0
0
0
0
0
0
0
0
0
0
0
0
0
0
0
0
93.97943
0
0
0
0
0
0
97.7296
0.1231004
0
0
0
0
0
0
0
78.64383
0
0
0
0
0
0
0
0
0
0
0
33.17233
0
0
0
0
0
0
0
0
0
0
0
0
0
0
0
0
0
27.85674
0
0
0
0
0
0
0
0
0
0
0
0
0
0
0
0
0
24.68695
0
0
0
0
0
0
0
0
0
0
0
0
0
0
0
0
0
19.66062
0
0
0
0
0
0
0
0
0
0
0
0
0
0
0
0
0
9.755386
0
0
0
0
0
0
0
0
0
0
0
0
0
0
0
0
0
9.707385
0
0
0
0
0
0
0
0
0
0
0
0
0
0
0
0
0
8.77898
0
0
0
0
0
0
0
0
0
0
0
0
0
0
0
0
0
5.925046
0
0
0
0
0
0
0
0
0
0
0
0
0
0
0
0
0
3.538325
0
0
0
0
0
0
0
0
0
0
0
0
0
0
0
0
0
0.4468974
0
0
0
0
0
0
0
0
0
0
0
0
0
0
0
0
0
0
0
0
0
0
0
0
0
0
0
0
0
0
0
0
0
0
0
0
0
0
0
0
0
0
0
0
0
0
0
0
0
0
0
0
0
0
0
0
0
0
0
0
0
0
0
0
0
0
0
0
0
0
0
0
0
0
0
0
0
0
0
0
0
0
0
0
0
0
0
0
0
0
0
0
0
0
0
0
0
0
0
0
0
0
0
0
0
0
0
0
0
0
0
0
0
0
0
0
0
0
0
0
0
0
0
0
0
0
0
0
0
0
0
0
0
0
0
0
0
0
0
0
0
0
0
0
0
0
0
0
0
0
0
0
0
0
0
0
0
0
0
0
0
0
0
0
0
0
0
0
0
0
0
0
0
0
0
0
0
0
0
0
0
0
0
0
0
0
0
0
0
0
0
0
0
0
0
0
0
0
0
0
0
0
0
0
0
0
0
0
0
0
0
0
0
0
0
0
0
0
0
0
0
0
0
0
0
0
0
0
0
0
0
0
0
0
0
0
0
0
0
0
0
0
0
0
0
0
0
0
0
0
0
0
0
0
0
0
0
0
0
0
0
0
0
0
0
0
0
0
0
0
0
0
0
0
0
0
0
0
0
0
0
0
0
0
0
0
0
0
0
0
0
0
0
0
0
0
0
0
0
0
0
0
0
0
0
0
0
0
0
0
0
0
0
0
0
0
0
0
0
0
0
0
0
0
0
0
0
0
0
0
0
0
0
0
0
0
0
0
0
0
0
0
0
0
0
0
0
0
0
0
0
0
0
0
0
0
0
0
0
0
0
0
0
0
0
0
0
0
0
0
0
0
0
0
0
0
0
0
0
0
0
0
0
0
0
0
0
0
0
0
0
0
0
0
0
0
0
0
0
0
0
0
0
0
0
0
0
0
0
0
0
0
0
0
0
0
0
0
0
0
0
0
0
0
0
0
0
0
0
0
0
0
0
0
0
0
0
0
0
0
0
0
0
0
0
0
0
0
0
0
0
0
0
0
0
0
0
0
0
0
0
0
0
0
0
0
0
0
0
0
0
0
0
0
0
0
0
0
0
0
0
0
0
0
0
0
0
0
0
0
0
0
0
0
0
0
0
0
0
0
0
0
0
0
0
0
0
0
0
0
0
0
0
0
0
0
0
0
0
0
0
0
0
0
0
0
0
0
0
0
0
0
0
0
0
0
0
0
0
0
0
0
0
0
0
0
0
0
0
0
0
0
0
0
0
0
0
0
0
0
0
0
0
0
0
0
0
0
0
0
0
0
0
0
0
0
0
0
0
0
0
0
0
0
0
0
0
0
0
0
0
0
0
0
0
0
0
0
0
0
0
0
0
0
0
0
0
0
0
0
0
0
0
0
0
0
0
0
0
0
0
0
0
0
0
0
0
0
0
0
0
0
0
0
0
0
0
0
0
0
0
0
0
0
0
0
0
0
0
0
0
0
0
0
0
0
0
0
0
0
0
0
0
0
0
0
0
0
0
0
0
0
0
0
0
0
0
0
0
0
0
0
0
0
0
0
0
0
0
0
0
0
0
0
0
0
0
0
0
0
0
0
0
0
0
0
0
0
0
0
0
0
0
0
0
0
0
0
0
0
0
0
0
0
0
0
0
0
0
0
0
0
0
0
0
0
0
0
0
0
0
0
0
0
0
0
0
0
0
0
0
0
0
0
0
0
0
0
0
0
0
0
0
0
0
0
0
0
0
0
0
0
0
0
0
0
0
0
0
0
0
0
0
0
0
0
0
0
0
0
0
0
0
0
0
0
0
0
0
0
0
0
0
0
0
0
0
0
0
0
0
0
0
0
0
0
0
0
0
0
0
0
0
0
0
0
0
0
0
0
0
0
0
0
0
0
0
0
0
0
0
0
0
0
0
0
0
0
0
0
0
0
0
0
0
0
0
0
0
0
0
0
0
0
0
0
0
0
0
0
0
0
0
0
0
0
0
0
0
0
0
0
0
0
0
0
0
0
0
0
0
0
0
0
0
0
0
0
0
0
0
0
0
0
0
0
0
0
0
0
0
0
0
0
0
0
0
0
0
0
0
0
0
0
0
0
0
0
0
0
0
0
0
0
0
0
0
0
0
0
0
0
0
0
0
0
0
0
0
0
0
0
0
0
0
0
0
0
0
0
0
0
0
0
0
0
0
0
0
0
0
0
0
0
0
0
0
0
0
0
0
0
0
0
0
0
0
0
0
0
0
0
0
0
0
0
0
0
0
0
0
0
0
0
0
0
0
0
0
0
0
0
0
0
0
0
0
0
0
0
0
0
0
0
0
0
0
0
0
0
0
0
0
0
0
0
0
0
0
0
0
0
0
0
0
0
0
0
0
0
0
0
0
0
0
0
0
0
0
0
0
0
0
0
0
0
0
0
0
0
0
0
0
0
0
0
0
0
0
0
0
0
0
0
0
0
0
0
0
0
0
0
0
0
0
0
0
0
0
0
0
0
0
0
0
0
0
0
0
0
0
0
0
0
0
0
0
0
0
0
0
0
0
0
0
0
0
0
0
0
0
0
0
0
0
0
0
0
0
0
0
0
0
0
0
0
0
0
0
0
0
0
0
0
0
0
0
0
0
0
0
0
0
0
0
0
0
0
0
0
0
0
0
0
0
0
0
0
0
0
0
0
0
0
0
0
0
0
0
0
0
0
0
0
0
0
0
0
0
0
0
0
0
0
0
0
0
0
0
0
0
0
0
0
0
0
0
0
0
0
0
0
0
0
0
0
0
0
0
0
0
0
0
0
0
0
0
0
0
0
0
0
0
0
0
0
0
0
0
0
0
0
0
0
0
0
0
0
0
0
0
0
0
0
0
0
0
0
0
0
0
0
0
0
0
0
0
0
0
0
0
0
0
0
0
0
0
0
0
0
0
0
0
0
0
0
0
0
0
0
0
0
0
0
0
0
0
0
0
0
0
0
0
0
0
0
0
0
0
0
0
0
0
0
0
0
0
0
0
0
0
0
0
0
0
0
0
0
0
0
0
0
0
0
0
0
0
0
0
0
0
0
0
0
0
0
0
0
0
0
0
0
0
0
0
0
0
0
0
0
0
0
0
0
0
0
0
0
0
0
0
0
0
0
0
0
0
0
0
0
0
0
0
0
0
0
0
0
0
0
0
0
0
0
0
0
0
0
0
0
0
0
0
0
0
0
0
0
0
0
0
0
0
0
0
0
0
0
0
0
0
0
0
0
0
0
0
0
0
0
0
0
0
0
0
0
0
0
0
0
0
0
0
0
0
0
0
0
0
0
0
0
0
0
0
0
0
0
0
0
0
0
0
0
0
0
0
0
0
0
0
0
0
0
0
0
0
0
0
0
0
0
0
0
0
0
0
0
0
0
0
0
0
0
0
0
0
0
0
0
0
0
0
0
0
0
0
0
0
0
0
0
0
0
0
0
0
0
0
0
0
0
0
0
0
0
0
0
0
0
0
0
0
0
0
0
0
0
0
0
0
0
0
0
0
0
0
0
0
0
0
0
0
0
0
0
0
0
0
0
0
0
0
0
0
0
0
0
0
0
0
0
0
0
0
0
0
0
0
0
0
0
0
0
0
0
0
0
0
0
0
0
0
0
0
0
0
0
0
0
0
0
0
0
0
0
0
0
0
0
0
0
0
0
0
0
0
0
0
0
0
0
0
0
0
0
0
0
0
0
0
0
0
0
0
0
0
0
0
0
0
0
0
0
0
0
0
0
0
0
0
0
0
0
0
0
0
0
0
0
0
0
0
0
0
0
0
0
0
0
0
0
0
0
0
0
0
0
0
0
0
0
0
0
0
0
0
0
0
0
0
0
0
0
0
0
0
0
0
0
0
0
0
0
0
0
0
0
0
0
0
0
0
0
0
0
0
0
0
0
0
0
0
0
0
0
0
0
0
0
0
0
0
0
0
0
0
0
0
0
0
0
0
0
0
0
0
0
0
0
0
0
0
0
0
0
0
0
0
0
0
0
0
0
0
0
0
0
0
0
0
0
0
0
0
0
0
0
0
0
0
0
0
0
0
0
0
0
0
0
0
0
0
0
0
0
0
0
0
0
0
0
0
0
0
0
0
0
0
0
0
0
0
0
0
0
0
0
0
0
0
0
0
0
0
0
0
0
0
0
0
0
0
0
0
0
0
0
0
0
0
0
0
0
0
0
0
0
0
0
0
0
0
0
0
0
0
0
0
0
0
0
0
0
0
0
0
0
0
0
0
0
0
0
0
0
0
0
0
0
0
0
0
0
0
0
0
0
0
0
0
0
0
0
0
0
0
0
0
0
0
0
0
0
0
0
0
0
0
0
0
0
0
0
0
0
0
0
0
0
0
0
0
0
0
0
0
0
0
0
0
0
0
0
0
0
0
0
0
0
0
106.2199
76.25568
110.012
221.911
165.9009
287.4814
248.9648
295.2399
301.3185
245.2855
286.3827
283.9469
226.5757
267.5483
172.4127
240.3758
304.4995
161.1419
103.8693
122.5624
126.1075
0
0
0
0
0
0
0
0
0
0
0
0
0
0
0
0
0
0
0
0
0
0
0
0
0
0
0
11.35183
0
0
83.09095
108.4048
0
0
0
0
0
0
0
0
0
0
0
0
0
0
0
0
0
0
0
0
0
0
0
0
0
0
0
0
0
0
0
0
30.52388
94.01419
0
0
0
0
2.736474
0
0
0
0
0
0
0
0
0
0
0
0
0
0
0
0
0
0
0
0
0
0
0
0
0
0
0
0
0
0
0
220.4005
221.0574
257.8508
146.9283
147.384
184.12
75.01242
75.44923
111.167
0.2447871
0.4739615
38.80119
221.7837
222.368
259.1707
147.8323
148.2658
185.2091
75.89649
76.33038
112.0413
0.7335864
0.7720894
40.01414
148.6931
149.1357
186.1668
76.77596
77.21484
112.9006
0.7981452
0.8249367
40.91753
224.5817
225.2645
261.8405
149.6045
150.0669
187.5213
77.66152
78.11257
113.7925
0.8499528
0.8734808
41.62614
225.9392
226.6149
263.3845
150.5336
150.9753
188.6631
78.56458
79.01812
114.678
0.8950179
0.9161671
42.22504
151.4366
151.8866
189.7729
79.45787
79.84217
115.5636
0.9388455
0.9654055
42.80206
228.097
227.9957
266.3159
152.2913
152.7068
189.5152
80.22932
80.61972
116.459
0.9873475
1.009045
43.3607
153.165
153.6108
190.4107
81.01291
81.40586
117.3114
1.033755
1.057942
43.89115
229.7475
230.332
269.2726
154.0772
154.5185
191.3426
81.80701
82.20118
118.1252
1.083416
1.106
44.41966
230.9315
231.51
270.7383
154.9824
155.3906
192.2609
82.60386
83.00483
118.938
1.127568
1.148991
44.94397
232.1054
232.6621
271.6151
155.8148
156.2276
193.1935
83.41288
83.81832
119.7593
1.169864
1.190717
45.44391
232.7592
232.8858
271.9494
156.6561
157.0886
193.7501
84.23118
84.64129
120.5868
1.211407
1.232563
45.94256
233.0207
233.1383
272.2754
157.1669
157.2557
193.9421
85.05778
85.49766
121.0876
1.254031
1.277725
46.4137
233.2733
233.4012
272.6027
157.3539
157.4516
194.1381
85.56836
85.67286
121.2901
1.30042
1.400532
46.50587
233.5388
233.6784
272.9242
157.5595
157.6653
194.3496
85.78671
85.89248
121.5048
1.595362
1.634196
46.45184
233.8099
233.9685
273.2645
157.7768
157.8925
194.5753
86.01743
86.12687
121.7289
1.645975
1.681768
46.27162
234.2043
235.5524
273.7103
158.005
158.2272
196.3687
86.25136
86.37254
121.9677
1.734417
1.780577
46.10033
237.0584
237.4198
274.1787
158.4296
158.5605
197.8683
86.50028
86.63532
122.2262
1.832481
1.883481
45.93315
237.6415
237.8336
274.5635
158.6953
158.8345
198.2022
86.76913
86.91199
122.4988
1.938092
1.992703
45.75515
238.05
238.2699
274.9572
158.9767
159.1245
198.5592
87.05971
87.20763
122.7852
2.040833
2.091259
45.52957
238.4783
238.7241
275.3819
159.2718
159.4315
198.9347
87.36442
87.5166
123.0938
2.14047
2.190017
45.30679
238.9521
239.232
275.8142
159.59
159.7571
199.3484
87.68275
87.83671
123.4037
2.242487
2.29327
45.06954
239.523
239.6298
276.3976
159.9536
161.062
200.5835
88.00014
88.16554
123.7839
2.35023
2.404288
44.84252
162.8283
163.7648
203.3495
88.32699
88.49968
124.2739
2.463353
2.524255
44.61301
240.847
241.0363
277.2558
164.0354
164.2899
204.2645
88.66846
88.84748
124.6643
2.586256
2.648005
44.37512
241.2787
241.5831
277.9709
164.542
164.8033
204.8631
89.0305
89.21683
125.0817
2.712907
2.780515
44.13322
241.9134
242.2506
278.6017
165.2003
166.3257
205.5932
89.40672
89.66874
126.6609
2.849661
2.92232
43.87451
242.6
242.9917
279.23
168.4725
169.7584
206.4394
89.97036
90.22127
129.8826
2.996669
3.073896
43.65269
390.0401
390.2424
424.3139
316.9823
317.3316
353.7473
243.3943
243.8407
280.5312
170.2556
170.666
207.2881
90.42972
90.64091
130.5332
3.151981
3.236309
43.46976
390.5541
390.954
425.2999
317.6867
318.1284
354.6672
244.289
244.7637
281.4673
171.091
171.5389
208.1843
90.85929
91.20737
131.4861
3.322613
3.412567
43.30225
391.5726
392.1434
427.9728
318.6242
319.1299
355.6506
245.3048
245.8402
282.5011
172.1195
172.7176
209.2175
93.56654
95.42875
135.8776
3.505219
3.603097
43.24408
392.9604
394.5331
430.2268
319.6804
320.2314
356.838
246.4563
247.0734
283.6649
173.2743
173.8644
210.3979
95.99914
96.40327
137.3948
3.699896
3.803717
43.49904
395.747
396.7686
432.7087
320.7696
321.2639
358.2997
247.7016
248.3246
284.8069
174.5302
175.2923
211.718
97.28238
100.8751
139.068
3.914746
4.060891
48.48305
398.4433
400.4267
433.1886
321.8574
322.2894
360.9759
248.8774
249.362
285.6176
176.0743
176.9994
213.0517
104.5179
107.5408
141.7273
4.229352
4.594033
55.83754
401.1111
400.8949
432.7519
322.8566
322.9549
363.62
249.4552
248.8873
285.2094
178.1133
179.4152
213.5227
111.1284
114.412
146.6669
5.045547
5.179013
62.16567
399.1019
395.7736
427.387
321.2447
320.1574
359.8906
247.2724
245.2844
279.8449
181.0019
181.9493
211.9521
118.3155
127.529
154.621
6.363504
7.738748
81.59046
388.6132
378.8939
409.0461
317.235
310.7711
342.7457
242.6229
237.7757
268.8192
180.6555
176.3279
207.0445
133.7356
132.9447
153.1794
8.205277
8.702195
89.16203
365.698
351.4127
378.6756
301.9883
289.1202
318.8701
229.7914
218.8237
261.7059
168.9823
163.1606
193.9876
127.6635
120.953
140.9341
20.19907
24.99674
97.88094
335.1141
319.649
344.6966
276.824
259.695
290.3101
214.458
205.0661
227.9183
165.5357
166.7791
176.2612
118.4254
120.1341
147.637
28.99081
37.82222
104.8609
302.7607
285.84
314.3947
239.2488
219.8484
252.2363
195.9057
190.2666
197.2447
175.6904
177.2886
192.2019
123.2052
128.7774
162.4361
46.37562
57.95879
94.09551
268.2529
257.9753
292.0864
208.0985
203.0247
224.7087
194.8054
201.875
199.1184
180.556
189.0965
202.1175
130.5286
129.6039
165.4028
62.34144
61.58418
82.17262
250.9612
246.6839
284.3031
205.1712
212.0108
215.2564
207.7414
215.0408
217.1169
187.793
187.3822
205.343
128.8118
126.48
163.0934
65.85027
70.00366
74.40743
239.4736
240.2983
271.1553
222.9048
238.8293
228.9425
223.8306
230.3956
239.2667
183.5878
176.7119
207.3683
130.0625
124.6022
145.7646
77.09682
79.18527
68.2557
242.6828
257.7994
276.5502
254.3433
270.9053
263.9963
228.4532
228.9693
251.3934
166.5366
168.6991
201.3368
121.526
116.0835
128.8607
68.93502
66.41396
69.66565
271.9856
285.766
288.7083
285.1078
292.1475
295.7569
227.3058
240.9379
275.6903
166.3051
173.4226
193.3742
115.9395
122.1271
137.0381
65.43091
68.83469
74.75411
297.6731
308.5084
305.7281
296.7275
296.3826
312.2482
248.8086
251.5488
276.3778
175.277
180.303
204.6754
143.1145
155.9521
152.8772
86.19093
87.48214
90.6348
307.6757
305.0073
300.418
286.8205
286.9254
302.8169
246.2502
240.5204
257.5509
191.3499
203.8625
216.3747
171.5741
167.1107
173.4514
121.1397
117.8405
126.9826
285.5789
283.3353
283.4811
271.4259
253.9423
271.7486
232.0795
227.4818
237.2613
200.4016
200.1615
207.818
156.2909
154.8641
183.4577
107.0342
123.9962
136.5358
277.1319
273.431
270.37
246.0881
242.6289
254.0453
216.3787
204.9553
220.1831
185.8992
184.6916
196.8213
153.7782
141.6581
163.1313
134.279
154.928
150.9416
276.7817
287.4447
295.3338
236.8112
224.2217
244.9527
202.7306
195.9476
205.3489
174.5418
162.1843
184.5555
134.7828
136.2867
155.7707
153.6633
134.4443
122.0608
288.6399
270.4333
306.5897
217.2933
217.5965
233.242
182.3478
182.8424
203.0292
158.1864
151.3939
174.1968
121.9072
119.9941
144.6456
118.8638
104.4576
109.4504
252.8918
254.62
287.664
214.9113
201.255
220.1005
188.8687
182.9035
189.7187
153.746
156.0645
169.59
123.0765
107.6599
134.7501
97.21201
75.30824
105.8813
250.173
239.2531
262.4736
194.5167
184.4669
204.1478
173.9178
170.4499
176.0404
150.2545
155.8817
169.526
105.8788
125.8793
132.2964
232.4273
217.26
235.2284
176.2411
175.8772
184.8224
165.3697
160.4441
167.3077
166.655
178.1345
167.1294
153.1984
195.7381
183.4008
216.7083
205.6482
211.5237
165.9148
167.2226
177.989
159.6734
172.1368
163.606
181.5508
213.949
194.4625
209.9274
214.2128
216.5113
174.3353
182.9976
193.1461
181.5629
185.0908
180.1047
227.7793
227.8412
194.184
216.8173
214.3916
225.0136
181.124
175.1274
190.3555
174.1758
163.8131
165.1069
214.5216
198.5873
171.7455
206.464
205.7189
225.3068
170.6907
170.8459
183.7023
169.3913
160.6004
162.3209
187.4306
171.634
164.4007
197.8428
198.9141
223.3744
170.8897
164.6706
179.3687
160.0472
150.4718
155.5023
169.6704
150.1157
153.8513
176.833
158.5186
138.5924
203.2121
220.211
230.3629
162.6678
171.2881
197.8609
153.6513
157.0754
161.446
138.349
148.0329
153.542
134.989
119.9058
118.9632
218.2944
201.2283
205.441
192.1045
220.5763
225.1783
165.4505
178.2561
182.5977
161.689
164.5412
172.6743
122.6192
148.8606
169.7452
92.45486
133.8734
133.3336
220.6591
235.8599
238.653
213.7263
217.9819
238.019
185.494
190.9665
211.6039
169.3626
180.252
198.6082
154.0957
145.1526
179.7084
164.5458
160.3495
157.012
240.67
253.2539
245.2846
230.3141
238.9909
252.3371
203.291
207.3367
222.8805
172.3583
172.0262
187.8541
144.2845
141.5762
171.0723
153.7064
134.0726
145.2569
260.2867
264.504
251.7352
246.4586
252.2662
266.5269
204.9452
203.2881
227.5318
175.7532
171.7468
188.7622
140.3612
147.8388
159.0215
111.6513
87.12825
146.9658
269.4977
265.3384
249.7271
253.8494
256.987
269.1952
211.8323