/*--------------------------------*- C++ -*----------------------------------*\
| =========                 |                                                 |
| \\      /  F ield         | OpenFOAM: The Open Source CFD Toolbox           |
|  \\    /   O peration     | Version:  2206                                  |
|   \\  /    A nd           | Website:  www.openfoam.com                      |
|    \\/     M anipulation  |                                                 |
\*---------------------------------------------------------------------------*/
FoamFile
{
    version     2.0;
    format      ascii;
    arch        "LSB;label=32;scalar=64";
    class       surfaceScalarField;
    location    "2";
    object      phi.b;
}
// * * * * * * * * * * * * * * * * * * * * * * * * * * * * * * * * * * * * * //

dimensions      [0 3 -1 0 0 0 0];

oriented        oriented;

internalField   nonuniform List<scalar> 
26037
(
1.473759e-10
6.125549e-11
7.96195e-11
1.016985e-11
4.027694e-11
-4.53044e-12
2.311793e-11
-1.214408e-11
1.473461e-11
-1.379857e-11
8.858503e-12
-1.463918e-11
-1.529389e-11
4.232424e-12
1.000159e-10
1.205998e-10
6.482104e-11
4.112303e-11
3.819914e-11
6.54408e-12
2.364868e-11
-6.750012e-12
1.504905e-11
-1.171709e-11
8.961968e-12
-1.406014e-11
-1.535298e-11
4.203822e-12
4.746509e-11
6.542937e-11
4.293574e-11
3.039242e-11
3.158488e-11
9.723863e-12
2.239248e-11
-3.398578e-12
1.507936e-11
-9.678053e-12
9.29879e-12
-1.304263e-11
-1.496678e-11
4.533707e-12
2.681974e-11
4.069553e-11
3.053977e-11
2.329361e-11
2.707593e-11
9.480021e-12
2.054694e-11
-6.732727e-13
1.479563e-11
-7.829648e-12
9.60064e-12
-1.174087e-11
-1.418331e-11
5.001162e-12
1.82889e-11
2.939874e-11
2.347648e-11
1.905118e-11
2.27861e-11
9.085951e-12
1.9334e-11
5.99994e-13
1.422621e-11
-5.430349e-12
9.710264e-12
-1.026013e-11
-1.311104e-11
5.399354e-12
1.316815e-11
2.222681e-11
1.835969e-11
1.579628e-11
1.912179e-11
8.544706e-12
1.717328e-11
1.538274e-12
1.388842e-11
-4.004715e-12
9.508121e-12
-8.237822e-12
-1.189539e-11
5.584395e-12
9.748855e-12
1.725476e-11
1.439203e-11
1.309997e-11
1.604388e-11
7.632161e-12
1.493554e-11
2.263951e-12
1.256459e-11
-2.860775e-12
9.407387e-12
-6.967225e-12
-1.027836e-11
5.477208e-12
7.394704e-12
1.364543e-11
1.127353e-11
1.085367e-11
1.296865e-11
6.77151e-12
1.267708e-11
2.444606e-12
1.101163e-11
-2.07388e-12
8.460481e-12
-5.943551e-12
-9.264594e-12
5.401983e-12
5.738135e-12
1.095136e-11
8.862349e-12
8.984649e-12
1.048469e-11
5.873426e-12
1.053961e-11
2.349019e-12
9.354588e-12
-1.602891e-12
7.282907e-12
-5.195106e-12
-8.452029e-12
4.641482e-12
4.535223e-12
8.905966e-12
6.972604e-12
7.447189e-12
8.383876e-12
5.005505e-12
8.568731e-12
2.08175e-12
7.682326e-12
-1.383043e-12
5.967088e-12
-4.702719e-12
-7.85653e-12
3.66536e-12
3.63167e-12
7.337906e-12
5.468169e-12
6.196732e-12
6.603119e-12
4.211392e-12
6.776039e-12
1.725026e-12
6.049422e-12
-1.347653e-12
4.577327e-12
-4.425248e-12
-7.465489e-12
2.539004e-12
2.928379e-12
6.134163e-12
4.242916e-12
5.193961e-12
5.077281e-12
3.515789e-12
5.153978e-12
1.334803e-12
4.482216e-12
-1.434463e-12
3.15203e-12
-4.309728e-12
-7.259394e-12
1.311257e-12
2.357633e-12
5.22036e-12
3.218987e-12
4.403592e-12
3.75241e-12
2.927671e-12
3.678446e-12
9.526709e-13
2.982976e-12
-1.589972e-12
1.737324e-12
-4.330699e-12
-7.198553e-12
2.123107e-14
1.877962e-12
4.544963e-12
2.337207e-12
3.799723e-12
2.575458e-12
2.449718e-12
2.325296e-12
5.920316e-13
1.56068e-12
-1.794311e-12
3.293955e-13
-4.441238e-12
-7.260298e-12
-1.308446e-12
1.459351e-12
4.073218e-12
1.550949e-12
3.366372e-12
1.502237e-12
2.084272e-12
1.06067e-12
2.895428e-13
1.917429e-13
-2.02125e-12
-1.058494e-12
-4.616721e-12
-7.417468e-12
-2.660412e-12
1.076559e-12
3.785683e-12
8.340422e-13
3.081197e-12
5.061982e-13
1.828446e-12
-1.390241e-13
6.217723e-14
-1.130627e-12
-2.258605e-12
-2.435886e-12
-4.833547e-12
-7.656449e-12
-4.02833e-12
7.246157e-13
3.660066e-12
1.584265e-13
2.938878e-12
-4.423767e-13
1.675678e-12
-1.297899e-12
-1.082987e-13
-2.434297e-12
-2.489264e-12
-3.809e-12
-5.087834e-12
-7.971142e-12
-5.408372e-12
3.847573e-13
3.686675e-12
-4.983217e-13
2.933271e-12
-1.37213e-12
1.625852e-12
-2.441889e-12
-2.181511e-13
-3.729823e-12
-2.707861e-12
-5.186778e-12
-5.372568e-12
-8.361948e-12
-6.799856e-12
4.318532e-14
3.863551e-12
-1.155401e-12
3.058462e-12
-2.304875e-12
1.675934e-12
-3.593028e-12
-2.712614e-13
-5.043869e-12
-2.919596e-12
-6.585857e-12
-5.707674e-12
-8.842136e-12
-8.206774e-12
-3.062731e-13
4.188836e-12
-1.829106e-12
3.313823e-12
-3.265456e-12
1.82855e-12
-4.799263e-12
-2.45333e-13
-6.614282e-12
-2.885967e-12
-8.030418e-12
-6.325116e-12
-9.435896e-12
-9.630029e-12
-6.705382e-13
4.660779e-12
-2.530122e-12
3.696776e-12
-4.259726e-12
2.076354e-12
-6.013085e-12
-1.781481e-13
-7.76887e-12
-3.020207e-12
-9.473756e-12
-6.8083e-12
-1.01106e-11
-1.108713e-11
-1.056203e-12
5.276836e-12
-3.271881e-12
4.204049e-12
-5.312855e-12
2.416952e-12
-7.313402e-12
-6.1916e-14
-9.214217e-12
-3.178049e-12
-1.10107e-11
-7.348878e-12
-1.091065e-11
-1.25937e-11
-1.468157e-12
6.030402e-12
-4.063569e-12
4.828902e-12
-6.436655e-12
2.84388e-12
-8.69877e-12
9.660659e-14
-1.076542e-11
-3.354998e-12
-1.265255e-11
-7.965185e-12
-1.190326e-11
-1.41601e-11
-1.908559e-12
6.906478e-12
-4.909852e-12
5.557134e-12
-7.639248e-12
3.344896e-12
-1.018744e-11
2.914524e-13
-1.248725e-11
-3.502867e-12
-1.506865e-11
-7.986906e-12
-1.377765e-11
-1.58475e-11
-2.375632e-12
7.875951e-12
-5.808182e-12
6.360568e-12
-8.915752e-12
3.891699e-12
-1.175657e-11
4.845494e-13
-1.419713e-11
-3.753088e-12
-1.61846e-11
-8.696071e-12
-1.530873e-11
-1.74644e-11
-2.864636e-12
8.890328e-12
-6.752786e-12
7.193968e-12
-1.026503e-11
4.44278e-12
-1.342851e-11
6.424722e-13
-1.607787e-11
-4.09428e-12
-1.805728e-11
-9.625729e-12
-1.707455e-11
-1.924507e-11
-3.366358e-12
9.875385e-12
-7.731606e-12
7.990002e-12
-1.167429e-11
4.934622e-12
-1.518677e-11
7.048227e-13
-1.806243e-11
-4.586572e-12
-2.008505e-11
-1.079489e-11
-1.912661e-11
-2.118706e-11
-3.863387e-12
1.072137e-11
-8.727327e-12
8.657263e-12
-1.312456e-11
5.275104e-12
-1.701545e-11
5.825417e-13
-2.015329e-11
-5.309344e-12
-2.237192e-11
-1.214905e-11
-1.985516e-11
-2.493189e-11
-4.347727e-12
1.128792e-11
-9.725022e-12
9.064999e-12
-1.459958e-11
5.33488e-12
-1.889092e-11
1.372622e-13
-2.227943e-11
-6.438979e-12
-2.44229e-11
-1.413676e-11
-2.274501e-11
-2.507317e-11
-4.746249e-12
1.134884e-11
-1.070621e-11
9.07547e-12
-1.610065e-11
4.964486e-12
-2.083766e-11
-7.948029e-13
-2.453291e-11
-8.141935e-12
-2.678342e-11
-1.679603e-11
-2.652443e-11
-2.713249e-11
-5.246054e-12
1.089253e-11
-1.168883e-11
8.410843e-12
-1.766844e-11
3.969829e-12
-2.290222e-11
-2.435242e-12
-2.692844e-11
-1.068964e-11
-2.928639e-11
-2.043452e-11
-3.116029e-11
-2.967428e-11
-5.752633e-12
9.708508e-12
-1.283433e-11
7.046057e-12
-1.941938e-11
1.944695e-12
-2.52147e-11
-5.097939e-12
-2.956924e-11
-1.44723e-11
-3.187549e-11
-2.564043e-11
-3.79862e-11
-3.146132e-11
-6.316127e-12
7.679076e-12
-1.407555e-11
4.915349e-12
-2.207763e-11
-4.47894e-13
-2.816116e-11
-9.729399e-12
-3.282897e-11
-1.999988e-11
-3.499794e-11
-3.308454e-11
-4.768213e-11
-3.374105e-11
-7.085074e-12
4.846292e-12
-1.582189e-11
1.944734e-12
-2.44281e-11
-4.094472e-12
-3.213767e-11
-1.536331e-11
-3.743226e-11
-2.767919e-11
-3.941344e-11
-4.361305e-11
-6.165654e-11
-3.68389e-11
-8.224291e-12
1.450505e-12
-1.852364e-11
-1.556804e-12
-2.9016e-11
-8.4058e-12
-4.054129e-11
-2.0198e-11
-4.515564e-11
-4.026445e-11
-4.658987e-11
-5.867328e-11
-8.147654e-11
-4.225289e-11
-9.898235e-12
-2.072719e-12
-2.250791e-11
-5.161027e-12
-3.570913e-11
-1.316133e-11
-4.837956e-11
-2.715744e-11
-6.204542e-11
-4.832392e-11
-5.96062e-11
-8.363604e-11
-1.086497e-10
-5.298591e-11
-1.23401e-11
-5.065323e-12
-2.84295e-11
-8.165135e-12
-4.590231e-11
-1.75503e-11
-6.255424e-11
-3.473731e-11
-7.579013e-11
-6.094985e-11
-8.039056e-11
-1.076636e-10
-1.427965e-10
-7.321592e-11
-1.579371e-11
-6.736545e-12
-3.686636e-11
-9.643252e-12
-6.04825e-11
-2.035086e-11
-8.37826e-11
-4.076201e-11
-1.03829e-10
-7.216042e-11
-1.284299e-10
-1.184141e-10
-2.013454e-10
-1.09441e-10
-2.046594e-11
-6.271457e-12
-4.810861e-11
-8.474059e-12
-7.979543e-11
-1.976146e-11
-1.121442e-10
-4.303938e-11
-1.41376e-10
-8.188959e-11
-1.632427e-10
-1.423328e-10
-2.598296e-10
-1.637301e-10
-2.64403e-11
-2.906873e-12
-6.185811e-11
-3.89536e-12
-1.036808e-10
-1.389801e-11
-1.495546e-10
-3.973185e-11
-1.957259e-10
-8.90504e-11
-2.352364e-10
-1.68238e-10
-2.862194e-10
-2.901916e-10
-3.203437e-11
2.91847e-12
-7.795714e-11
7.066149e-12
-1.326852e-10
-3.881151e-12
-1.99686e-10
-3.091784e-11
-2.721146e-10
-9.19208e-11
-3.348608e-10
-1.919047e-10
-3.449144e-10
-3.659966e-10
-3.654832e-11
9.332456e-12
-9.017848e-11
2.018579e-11
-1.729982e-10
1.762537e-11
-2.681118e-10
-2.404491e-11
-3.73792e-10
-8.710066e-11
-4.552676e-10
-2.058059e-10
-4.175592e-10
-4.528667e-10
-3.856412e-11
1.140168e-11
-1.041794e-10
2.980335e-11
-2.09568e-10
3.53349e-11
-3.668673e-10
9.55073e-12
-4.833552e-10
-9.859123e-11
-5.336619e-10
-2.367205e-10
-5.122113e-10
-4.624759e-10
-4.003594e-11
-1.252644e-13
-1.224567e-10
2.665348e-11
-2.572605e-10
4.176034e-11
-4.289449e-10
3.194343e-11
-5.87306e-10
-6.491165e-11
-5.452841e-10
-3.312498e-10
-6.002307e-10
-4.210498e-10
-4.627889e-11
-3.504564e-11
-1.500591e-10
9.649368e-13
-3.06272e-10
2.838058e-11
-4.503837e-10
1.912051e-11
-5.155448e-10
-8.580671e-11
-5.330191e-10
-3.101753e-10
-7.160749e-10
-2.618415e-10
-6.314944e-11
-9.446691e-11
-2.014468e-10
-3.891413e-11
-3.623242e-10
-5.421828e-12
-4.089515e-10
-6.277513e-11
-3.768655e-10
-1.441123e-10
-2.778169e-10
-3.327403e-10
-6.013851e-10
-4.79183e-11
-9.484596e-11
-1.777131e-10
-2.497262e-10
-9.150715e-11
-3.555384e-10
-5.467933e-11
-3.643042e-10
-1.045279e-10
-2.114488e-10
-2.395153e-10
3.352816e-11
-3.94025e-10
-5.85619e-10
5.40087e-10
-1.422675e-10
-2.752254e-10
-2.780194e-10
-1.605432e-10
-3.051014e-10
-1.092791e-10
-2.475601e-10
-1.238292e-10
-1.098299e-10
-2.319121e-10
2.488387e-10
-3.974713e-10
-4.521452e-10
1.070771e-09
-1.942058e-10
-3.648964e-10
-2.77733e-10
-2.298556e-10
-2.293027e-10
-1.519608e-10
-1.145848e-10
-1.312689e-10
6.773799e-11
-1.845331e-10
4.858036e-10
-2.391003e-10
-7.886015e-11
1.70079e-09
-2.315367e-10
-4.166955e-10
-2.717009e-10
-2.626447e-10
-1.806217e-10
-1.665467e-10
-4.622644e-11
-9.803726e-11
2.152195e-10
-5.436865e-11
8.453427e-10
1.495601e-10
7.2526e-10
2.115358e-09
-2.343076e-10
-4.129782e-10
-2.717996e-10
-2.250689e-10
-1.984308e-10
-1.113964e-10
-4.670912e-11
9.408073e-12
3.777644e-10
2.08422e-10
1.311057e-09
7.268069e-10
1.639507e-09
2.734122e-09
-1.762692e-10
-3.825568e-10
-1.920442e-10
-1.53776e-10
-1.642789e-10
4.796e-11
5.295966e-11
2.420725e-10
8.142066e-10
5.969554e-10
2.21735e-09
1.272902e-09
2.591907e-09
3.680523e-09
-1.379597e-10
-3.161369e-10
-1.352631e-10
-6.161944e-11
-4.881724e-11
1.953027e-10
2.711354e-10
4.981961e-10
1.165131e-09
9.622914e-10
2.534726e-09
1.677496e-09
2.719312e-09
4.626471e-09
-1.345991e-10
-2.011752e-10
-1.432758e-10
6.664374e-11
-4.786249e-11
3.767395e-10
3.604359e-10
7.65639e-10
1.382456e-09
1.305259e-09
2.840581e-09
2.014476e-09
2.84123e-09
4.709324e-09
-1.261281e-10
-6.479825e-11
-1.462609e-10
2.179652e-10
-4.026666e-11
5.742738e-10
4.351484e-10
1.038054e-09
1.577501e-09
1.630982e-09
3.174442e-09
2.314478e-09
3.01162e-09
5.0307e-09
-8.956916e-11
4.993596e-11
-9.009148e-11
3.539605e-10
4.716259e-11
7.556733e-10
5.870191e-10
1.289715e-09
1.843282e-09
1.930017e-09
3.586191e-09
2.607245e-09
3.267721e-09
5.575227e-09
-8.176904e-11
1.554942e-10
-5.709321e-11
4.616141e-10
1.080845e-10
9.011103e-10
6.465303e-10
1.50332e-09
1.862862e-09
2.207692e-09
3.539895e-09
2.935666e-09
3.666828e-09
5.434003e-09
-8.795275e-11
2.516683e-10
-3.102875e-11
5.306331e-10
1.768804e-10
9.802613e-10
6.983296e-10
1.625534e-09
1.80852e-09
2.388187e-09
3.375999e-09
3.149978e-09
3.901824e-09
5.154052e-09
-6.757591e-11
2.988161e-10
4.258384e-11
5.33037e-10
3.147418e-10
9.668365e-10
8.411095e-10
1.625189e-09
1.871911e-09
2.433114e-09
3.416876e-09
3.21545e-09
3.805383e-09
5.415574e-09
-6.066254e-11
2.929563e-10
8.837554e-11
4.672324e-10
4.15175e-10
8.596169e-10
9.539661e-10
1.499683e-09
1.903539e-09
2.318704e-09
3.406702e-09
3.139256e-09
3.470901e-09
5.836179e-09
-9.207185e-11
2.582708e-10
4.133974e-11
3.694314e-10
3.588047e-10
7.149359e-10
9.207497e-10
1.266095e-09
1.857728e-09
2.011201e-09
3.362487e-09
2.807118e-09
3.466328e-09
5.205093e-09
-1.336414e-10
2.020077e-10
-3.408561e-11
2.36106e-10
2.818112e-10
5.053751e-10
7.917001e-10
9.736768e-10
1.551679e-09
1.636166e-09
2.682337e-09
2.400033e-09
3.108922e-09
4.306493e-09
-1.395662e-10
1.222095e-10
-9.810907e-11
9.091871e-11
1.6273e-10
2.752131e-10
5.92817e-10
6.76248e-10
1.20398e-09
1.275531e-09
2.078018e-09
2.018129e-09
2.79092e-09
3.375688e-09
-1.324247e-10
4.37586e-11
-1.739954e-10
-3.294992e-11
-3.750759e-11
8.052997e-11
2.728063e-10
4.131719e-10
7.2308e-10
9.747917e-10
1.367861e-09
1.701216e-09
2.538258e-09
2.472572e-09
-1.176142e-10
-1.225041e-11
-2.462095e-10
-9.976635e-11
-2.41767e-10
-6.091889e-11
-7.638016e-11
2.083852e-10
2.264937e-10
7.403369e-10
7.278653e-10
1.427181e-09
2.312709e-09
1.569609e-09
-9.496523e-11
-4.49464e-11
-2.719289e-10
-1.101742e-10
-3.899343e-10
-1.273594e-10
-3.724667e-10
7.447121e-11
-1.162258e-10
4.703842e-10
2.843776e-10
1.13137e-09
2.035726e-09
9.105372e-10
-7.819356e-11
-5.216788e-11
-2.521694e-10
-9.020266e-11
-4.630821e-10
-1.152803e-10
-5.180373e-10
-3.355224e-11
-4.052173e-10
2.821671e-10
-1.29703e-10
8.695856e-10
1.794982e-09
2.960605e-10
-7.069084e-11
-3.460673e-11
-2.074679e-10
-5.709574e-11
-4.156488e-10
-6.437793e-11
-5.909562e-10
-2.457051e-11
-6.028176e-10
1.77817e-10
-4.647579e-10
6.837447e-10
1.318105e-09
5.657572e-11
-6.700901e-11
-3.152626e-13
-1.740396e-10
-1.174163e-11
-3.404104e-10
-6.46835e-12
-5.477145e-10
3.767955e-11
-6.989449e-10
1.886021e-10
-5.502379e-10
4.445867e-10
9.709597e-10
-2.361194e-10
-6.213856e-11
3.728837e-11
-1.463015e-10
3.365638e-11
-2.670558e-10
4.731524e-11
-4.437774e-10
1.052018e-10
-5.749809e-10
1.876851e-10
-5.895025e-10
3.489544e-10
6.804205e-10
-3.756473e-10
-5.367972e-11
6.976676e-11
-1.212744e-10
7.133974e-11
-2.127878e-10
9.421259e-11
-3.100161e-10
1.320489e-10
-4.249794e-10
2.060203e-10
-5.232625e-10
3.351295e-10
5.005661e-10
-4.472325e-10
-4.276013e-11
9.366341e-11
-9.821079e-11
9.975852e-11
-1.554567e-10
1.170957e-10
-2.214474e-10
1.529815e-10
-2.991798e-10
2.178768e-10
-3.549261e-10
3.024898e-10
4.313137e-10
-3.853865e-10
-3.228424e-11
1.089992e-10
-7.03412e-11
1.134228e-10
-1.126387e-10
1.299611e-10
-1.590199e-10
1.643278e-10
-1.9561e-10
2.098669e-10
-2.294154e-10
2.77621e-10
4.135031e-10
-2.909754e-10
-2.12805e-11
1.151097e-10
-4.795985e-11
1.188421e-10
-7.70867e-11
1.331339e-10
-1.041431e-10
1.614119e-10
-1.253672e-10
1.97564e-10
-1.388415e-10
2.509844e-10
3.489217e-10
-1.281022e-10
-1.299065e-11
1.143965e-10
-3.03947e-11
1.177396e-10
-5.001811e-11
1.303379e-10
-6.45892e-11
1.50193e-10
-7.598136e-11
1.809068e-10
-9.49447e-11
2.37619e-10
2.729006e-10
-5.588884e-11
-6.890228e-12
1.089172e-10
-1.760093e-11
1.122448e-10
-2.722218e-11
1.210302e-10
-3.516717e-11
1.368244e-10
-4.321076e-11
1.650027e-10
-3.001612e-11
1.978223e-10
2.24405e-10
-7.705707e-12
-2.500056e-12
1.003763e-10
-7.402749e-12
1.030574e-10
-1.193632e-11
1.097237e-10
-1.49429e-11
1.222522e-10
-1.635351e-11
1.464601e-10
-8.899729e-13
1.61746e-10
1.837619e-10
1.965825e-11
2.702506e-13
9.037178e-11
-9.839087e-13
9.21147e-11
-2.087415e-12
9.749569e-11
-5.792579e-12
1.109755e-10
4.178997e-12
1.204513e-10
1.586437e-11
1.343603e-10
1.502087e-10
3.415454e-11
2.364134e-12
7.959213e-11
3.117751e-12
8.092001e-11
4.247795e-12
8.518124e-11
7.515797e-12
9.528487e-11
1.406404e-11
1.015439e-10
2.445304e-11
1.117661e-10
1.227581e-10
4.037703e-11
3.452859e-12
6.8969e-11
5.322067e-12
7.013793e-11
5.889485e-12
7.502386e-11
1.212454e-11
7.89293e-11
1.868921e-11
8.51005e-11
2.818136e-11
9.267834e-11
1.003899e-10
4.173281e-11
3.988343e-12
5.894487e-11
5.576567e-12
6.085103e-11
9.874853e-12
6.269628e-11
1.452497e-11
6.61886e-11
2.058703e-11
7.103236e-11
2.902815e-11
7.657423e-11
8.20334e-11
4.046538e-11
4.194619e-12
4.972681e-11
7.269557e-12
5.122227e-11
1.089571e-11
5.248924e-11
1.522077e-11
5.520194e-11
2.083332e-11
5.88512e-11
2.822415e-11
6.29453e-11
6.699635e-11
3.768418e-11
3.858044e-12
4.168855e-11
7.35693e-12
4.216554e-11
1.094078e-11
4.339632e-11
1.504956e-11
4.552714e-11
2.012241e-11
4.830751e-11
2.651052e-11
5.137118e-11
5.430645e-11
3.454985e-11
4.167408e-12
3.410772e-11
7.238327e-12
3.439463e-11
1.060793e-11
3.536978e-11
1.440579e-11
3.702328e-11
1.890739e-11
3.91751e-11
2.434599e-11
4.152781e-11
4.386961e-11
3.078643e-11
4.026837e-12
2.732429e-11
6.929419e-12
2.74756e-11
1.008822e-11
2.824417e-11
1.354539e-11
2.953988e-11
1.751326e-11
3.12199e-11
2.213279e-11
3.308179e-11
3.574896e-11
2.656709e-11
3.871788e-12
2.125092e-11
6.569494e-12
2.132497e-11
9.490266e-12
2.191778e-11
1.260865e-11
2.293608e-11
1.607256e-11
2.426479e-11
2.003408e-11
2.570978e-11
2.769788e-11
2.460919e-11
3.698201e-12
1.582168e-11
6.201141e-12
1.583837e-11
8.883122e-12
1.629174e-11
1.166975e-11
1.710019e-11
1.46723e-11
1.816168e-11
1.798195e-11
1.931053e-11
2.073506e-11
2.173508e-11
3.530229e-12
1.095976e-11
5.849638e-12
1.092979e-11
8.302764e-12
1.127841e-11
1.078308e-11
1.192795e-11
1.336783e-11
1.279363e-11
1.609757e-11
1.374146e-11
1.471287e-11
1.911131e-11
3.375073e-12
6.593357e-12
5.522564e-12
6.527599e-12
7.769619e-12
6.794301e-12
9.97779e-12
7.325707e-12
1.22004e-11
8.048205e-12
1.434272e-11
8.883335e-12
9.449216e-12
1.680451e-11
3.23708e-12
2.658111e-12
5.23211e-12
2.564794e-12
7.294174e-12
2.771983e-12
9.262407e-12
3.218987e-12
1.117406e-11
3.835522e-12
1.304448e-11
4.429699e-12
5.054945e-12
1.483944e-11
3.118005e-12
-9.022702e-13
4.98041e-12
-1.014743e-12
6.881112e-12
-8.466647e-13
8.640877e-12
-4.541081e-13
1.027875e-11
9.723715e-14
1.180358e-11
5.136452e-13
1.246862e-12
1.316531e-11
3.019955e-12
-4.137685e-12
4.772213e-12
-4.261692e-12
6.537479e-12
-4.114167e-12
8.121826e-12
-3.748746e-12
9.546552e-12
-3.245624e-12
1.076324e-11
-2.923974e-12
-2.083721e-12
1.177012e-11
2.946193e-12
-7.094599e-12
4.614012e-12
-7.223449e-12
6.274269e-12
-7.081743e-12
7.736451e-12
-6.740463e-12
9.235003e-12
-6.546696e-12
9.939483e-12
-5.681914e-12
-4.986036e-12
1.063237e-11
2.898799e-12
-9.815155e-12
4.508874e-12
-9.942002e-12
6.090928e-12
-9.791114e-12
7.426592e-12
-9.438821e-12
8.51729e-12
-9.314173e-12
9.26113e-12
-8.31093e-12
-7.561478e-12
9.732603e-12
2.88058e-12
-1.233863e-11
4.461055e-12
-1.24557e-11
5.991954e-12
-1.227958e-11
7.241593e-12
-1.189213e-11
8.187249e-12
-1.177991e-11
8.790211e-12
-1.065954e-11
-9.829134e-12
9.05862e-12
2.895332e-12
-1.470316e-11
4.477304e-12
-1.480208e-11
5.985846e-12
-1.458391e-11
7.179369e-12
-1.414034e-11
8.024962e-12
-1.400714e-11
8.489818e-12
-1.275532e-11
-1.182807e-11
8.584065e-12
2.947957e-12
-1.694715e-11
4.564933e-12
-1.701661e-11
6.079366e-12
-1.673472e-11
7.270372e-12
-1.623807e-11
8.010636e-12
-1.599261e-11
8.352156e-12
-1.461948e-11
-1.358281e-11
8.2891e-12
3.046126e-12
-1.911161e-11
4.737715e-12
-1.913709e-11
6.314172e-12
-1.879107e-11
7.908905e-12
-1.862031e-11
8.17515e-12
-1.737525e-11
8.366999e-12
-1.623551e-11
-1.510907e-11
8.152992e-12
3.195944e-12
-2.123769e-11
5.003344e-12
-2.119759e-11
6.622869e-12
-2.073086e-11
7.810728e-12
-2.046841e-11
8.408883e-12
-1.896177e-11
8.523002e-12
-1.768518e-11
-1.641616e-11
8.156998e-12
3.409584e-12
-2.337158e-11
5.380849e-12
-2.323336e-11
7.092942e-12
-2.259534e-11
8.263324e-12
-2.215169e-11
8.831091e-12
-2.039885e-11
8.818963e-12
-1.892532e-11
-1.749551e-11
8.281422e-12
3.703932e-12
-2.556689e-11
5.897624e-12
-2.528516e-11
7.732126e-12
-2.440714e-11
8.916827e-12
-2.370942e-11
9.403342e-12
-2.165397e-11
9.237429e-12
-1.994437e-11
-1.833693e-11
8.501263e-12
4.106741e-12
-2.789278e-11
6.591824e-12
-2.739577e-11
8.57327e-12
-2.618e-11
9.758198e-12
-2.513126e-11
1.012707e-11
-2.270421e-11
9.763574e-12
-2.07187e-11
-1.892219e-11
8.787824e-12
4.658333e-12
-3.04394e-11
7.516402e-12
-2.961234e-11
9.656789e-12
-2.791592e-11
1.080684e-11
-2.639294e-11
1.099835e-11
-2.351326e-11
1.037439e-11
-2.121586e-11
-1.92283e-11
9.104253e-12
5.419714e-12
-3.332954e-11
8.74584e-12
-3.198878e-11
1.10401e-11
-2.96077e-11
1.207914e-11
-2.744488e-11
1.200257e-11
-2.403158e-11
1.103365e-11
-2.139801e-11
-1.92369e-11
9.40587e-12
6.489179e-12
-3.67433e-11
1.038097e-11
-3.457891e-11
1.280862e-11
-3.125052e-11
1.358477e-11
-2.818828e-11
1.310557e-11
-2.419391e-11
1.168837e-11
-2.123148e-11
-1.89429e-11
9.627812e-12
8.022426e-12
-4.095936e-11
1.259304e-11
-3.747191e-11
1.547628e-11
-3.324726e-11
1.534361e-11
-2.808538e-11
1.424889e-11
-2.390353e-11
1.225587e-11
-2.070082e-11
-1.827759e-11
9.654302e-12
1.025273e-11
-4.642453e-11
1.545623e-11
-4.068105e-11
1.753992e-11
-3.453115e-11
1.715664e-11
-2.800255e-11
1.53189e-11
-2.322943e-11
1.251453e-11
-1.965776e-11
-1.746412e-11
9.482021e-12
1.354851e-11
-5.397038e-11
1.922928e-11
-4.435888e-11
2.050709e-11
-3.548357e-11
1.905523e-11
-2.747097e-11
1.5983e-11
-2.18528e-11
1.258341e-11
-1.850596e-11
-1.656559e-11
9.044574e-12
1.85525e-11
-6.549793e-11
2.418213e-11
-4.892367e-11
2.392131e-11
-3.619077e-11
2.054289e-11
-2.602709e-11
1.649853e-11
-2.03737e-11
1.232534e-11
-1.727812e-11
-1.572642e-11
8.335747e-12
2.695093e-11
-9.007624e-11
3.102876e-11
-5.612315e-11
2.747992e-11
-3.588461e-11
2.211657e-11
-2.425755e-11
1.667654e-11
-1.869931e-11
1.175772e-11
-1.612909e-11
-1.51005e-11
7.403433e-12
4.703183e-11
-1.445603e-10
4.259609e-11
-6.593617e-11
3.24318e-11
-3.365882e-11
2.360095e-11
-2.105333e-11
1.655572e-11
-1.672563e-11
1.096152e-11
-1.516873e-11
-1.480001e-11
6.364487e-12
9.476188e-11
6.400775e-11
3.872715e-11
2.455142e-11
1.607484e-11
1.007001e-11
5.39793e-12
3.730797e-13
-1.591754e-11
-2.725838e-12
-1.657256e-11
-2.437748e-12
-1.731608e-11
-2.495942e-12
-2.771312e-12
-8.824205e-12
2.977295e-12
-2.997201e-12
-9.391727e-12
2.964759e-12
-2.897343e-12
-9.869149e-12
2.943691e-12
-3.126018e-12
-9.42897e-12
2.478564e-13
-1.624118e-11
-2.941543e-12
-1.701155e-11
-2.595758e-12
-1.784571e-11
-2.615206e-12
8.958228e-12
-2.967462e-12
-9.100948e-12
9.635876e-12
3.198757e-12
-3.19494e-12
-9.881348e-12
1.01945e-11
3.045091e-12
-2.58e-12
-1.065139e-11
1.063932e-11
1.444826e-12
1.502686e-12
-1.342536e-11
4.781594e-13
-1.620147e-11
-2.870184e-12
-1.712691e-11
-5.415801e-12
-1.792889e-11
-3.341121e-12
-9.513279e-12
9.369384e-12
9.285813e-12
-3.312797e-12
-9.646612e-12
1.011663e-11
-3.463374e-12
-1.022955e-11
1.092289e-11
3.517869e-12
-3.474992e-12
-1.096124e-11
1.386195e-11
3.379517e-12
-3.159628e-12
-1.368516e-11
9.49696e-13
-1.58065e-11
-2.425529e-12
-1.699986e-11
-2.519638e-12
-1.801649e-11
-2.398108e-12
-3.037808e-12
-9.411092e-12
1.029463e-11
3.384584e-12
-3.577729e-12
-1.034362e-11
1.08058e-11
3.778245e-12
-3.996025e-12
-1.05825e-11
1.258568e-11
4.331121e-12
-4.697763e-12
-1.174212e-11
1.442157e-12
-1.511246e-11
-1.939973e-12
-1.661075e-11
-2.335151e-12
-1.784183e-11
-2.183138e-12
9.411504e-12
-2.805299e-12
-9.328795e-12
1.036846e-11
3.162148e-12
-3.359345e-12
-1.040388e-11
1.03831e-11
3.505795e-12
-3.600732e-12
-1.028478e-11
1.100835e-11
3.704534e-12
-3.850419e-12
-1.04226e-11
1.81319e-12
-1.423162e-11
-1.492201e-12
-1.603875e-11
-2.093513e-12
-1.75318e-11
-1.930517e-12
9.347717e-12
-2.525367e-12
-9.263306e-12
1.047215e-11
-2.993374e-12
-1.056071e-11
2.855225e-12
1.034465e-11
3.014932e-12
-2.867562e-12
-1.049415e-11
1.098683e-11
2.476977e-12
-1.584976e-12
-1.154196e-11
1.969816e-12
-1.328404e-11
-1.189512e-12
-1.538045e-11
-1.888015e-12
-1.715451e-11
-1.736856e-12
-2.247291e-12
-9.231953e-12
9.275028e-12
1.063141e-11
1.889506e-12
-2.669119e-12
-1.004947e-11
1.067153e-11
2.712195e-12
-2.563998e-12
-1.082421e-11
1.214007e-11
2.233203e-12
-1.509202e-12
-1.251656e-11
1.862948e-12
-1.207542e-11
-1.10236e-12
-1.471498e-11
-1.777123e-12
-1.67545e-11
-1.643955e-12
9.227398e-12
-2.139994e-12
-9.153458e-12
1.004993e-11
-2.554881e-12
-1.007779e-11
2.404903e-12
1.093411e-11
2.584686e-12
-2.502663e-12
-1.102051e-11
1.255984e-11
2.322437e-12
-1.88782e-12
-1.260869e-11
1.730708e-12
-1.134391e-11
-1.258479e-12
-1.389939e-11
-1.772203e-12
-1.637598e-11
-1.661887e-12
-2.101047e-12
-9.066366e-12
9.126375e-12
1.010427e-11
2.354939e-12
-2.49898e-12
-1.012613e-11
1.110235e-11
2.531502e-12
-2.448911e-12
-1.1187e-11
1.270615e-11
2.230021e-12
-1.59745e-12
-1.294271e-11
1.051831e-12
-1.077837e-11
-1.484418e-12
-1.345372e-11
-1.879495e-12
-1.591901e-11
-1.790221e-12
9.024934e-12
-2.169453e-12
-8.987104e-12
1.014724e-11
2.405368e-12
-2.541736e-12
-1.01661e-11
1.126322e-11
2.57722e-12
-2.510392e-12
-1.132844e-11
1.308457e-11
2.32948e-12
-1.77394e-12
-1.320786e-11
1.738297e-13
-1.038847e-11
-2.144027e-12
-1.314538e-11
-2.034373e-12
-1.574533e-11
-1.963806e-12
8.938588e-12
-2.339177e-12
-8.874148e-12
1.018582e-11
2.548835e-12
-2.671789e-12
-1.020886e-11
1.138239e-11
2.703912e-12
-2.647476e-12
-1.143232e-11
1.325716e-11
2.497718e-12
-1.991346e-12
-1.328974e-11
-8.52095e-13
-1.016801e-11
-2.980011e-12
-1.29844e-11
-2.356053e-12
-1.56945e-11
-2.307657e-12
8.844573e-12
-2.552633e-12
-8.883666e-12
1.023701e-11
2.76745e-12
-2.871499e-12
-1.027322e-11
1.148692e-11
2.883139e-12
-2.807498e-12
-1.15504e-11
1.33521e-11
2.627348e-12
-2.028228e-12
-1.344174e-11
-1.987961e-12
-1.009984e-11
-3.955368e-12
-1.296699e-11
-2.756892e-12
-1.577225e-11
-2.726646e-12
8.86773e-12
-2.908398e-12
-8.946648e-12
1.033147e-11
3.077731e-12
-3.13848e-12
-1.040361e-11
1.162238e-11
3.112636e-12
-3.018043e-12
-1.169793e-11
1.35467e-11
2.810962e-12
-2.145092e-12
-1.366116e-11
-3.204326e-12
-1.016591e-11
-5.040758e-12
-1.308352e-11
-3.222887e-12
-1.597683e-11
-3.207962e-12
8.95175e-12
-3.331572e-12
-9.070502e-12
1.048928e-11
3.45374e-12
-3.472959e-12
-1.059456e-11
1.180132e-11
3.402819e-12
-3.251719e-12
-1.192332e-11
1.374106e-11
3.033613e-12
-2.521575e-12
-1.363759e-11
-4.478096e-12
-1.034778e-11
-6.21066e-12
-1.332243e-11
-3.744005e-12
-1.629829e-11
-3.7406e-12
9.097889e-12
-3.81527e-12
-9.252297e-12
1.071641e-11
3.896216e-12
-3.876449e-12
-1.085237e-11
1.210259e-11
3.749598e-12
-3.470326e-12
-1.234093e-11
1.365564e-11
2.830981e-12
-6.781431e-13
-1.523854e-11
-5.791218e-12
-1.063507e-11
-7.438697e-12
-1.367675e-11
-4.304128e-12
-1.67325e-11
-4.305929e-12
9.298817e-12
-4.345475e-12
-9.482029e-12
1.098581e-11
4.397988e-12
-4.365586e-12
-1.112541e-11
1.246656e-11
4.254375e-12
-4.074279e-12
-1.258995e-11
1.45481e-11
3.812476e-12
-3.012124e-12
-1.462988e-11
-7.129506e-12
-1.102455e-11
-8.699865e-12
-1.414707e-11
-4.883608e-12
-1.72797e-11
-4.890996e-12
9.551515e-12
-4.890434e-12
-9.769699e-12
1.127131e-11
4.985165e-12
-4.852275e-12
-1.151098e-11
1.273026e-11
4.703261e-12
-4.473382e-12
-1.288699e-11
1.477491e-11
4.121307e-12
-3.189406e-12
-1.493371e-11
-8.480635e-12
-1.152165e-11
-9.968876e-12
-1.474456e-11
-5.465407e-12
-1.796519e-11
-5.462618e-12
9.761474e-12
-5.448646e-12
-1.000164e-11
1.328759e-11
5.532686e-12
-5.320162e-12
-1.361743e-11
1.306381e-11
5.122041e-12
-4.843235e-12
-1.325041e-11
1.509993e-11
4.430579e-12
-3.404648e-12
-1.52947e-11
-9.838769e-12
-1.213896e-11
-1.123088e-11
-1.548608e-11
-6.037592e-12
-1.880525e-11
-6.022539e-12
1.013067e-11
-5.983979e-12
-1.040815e-11
1.388562e-11
5.944216e-12
-5.763208e-12
-1.417988e-11
1.345344e-11
5.515351e-12
-5.183973e-12
-1.367254e-11
1.548753e-11
4.712976e-12
-3.601671e-12
-1.571057e-11
-1.119846e-11
-1.288933e-11
-1.247094e-11
-1.639283e-11
-6.58573e-12
-1.98258e-11
-6.555724e-12
1.057671e-11
-6.489295e-12
-1.089385e-11
1.4491e-11
6.406774e-12
-6.164268e-12
-1.483546e-11
1.390721e-11
5.862369e-12
-5.475198e-12
-1.415827e-11
1.591282e-11
4.940635e-12
-3.746173e-12
-1.616071e-11
-1.256304e-11
-1.379718e-11
-1.367763e-11
-1.74945e-11
-7.099493e-12
-2.105775e-11
-7.049743e-12
1.11127e-11
-6.947977e-12
-1.147887e-11
1.519774e-11
6.806089e-12
-6.498632e-12
-1.559523e-11
1.442577e-11
6.135481e-12
-5.686733e-12
-1.471221e-11
1.639841e-11
5.083118e-12
-3.784005e-12
-1.666592e-11
-1.393501e-11
-1.489509e-11
-1.483554e-11
-1.882916e-11
-7.573673e-12
-2.2514e-11
-7.503778e-12
1.176252e-11
-7.346268e-12
-1.219378e-11
1.602068e-11
7.125999e-12
-6.735205e-12
-1.648754e-11
1.502165e-11
6.299314e-12
-5.779152e-12
-1.535482e-11
1.693729e-11
5.09883e-12
-3.688536e-12
-1.72378e-11
-1.531178e-11
-1.622431e-11
-1.589953e-11
-2.046109e-11
-8.095975e-12
-2.443501e-11
-7.528621e-12
1.258451e-11
-7.603283e-12
-1.327408e-11
1.69844e-11
7.320424e-12
-6.909624e-12
-1.745545e-11
1.571381e-11
6.320429e-12
-5.720889e-12
-1.609945e-11
1.755245e-11
4.960602e-12
-3.442655e-12
-1.788067e-11
-1.670066e-11
-1.7865e-11
-1.697381e-11
-2.235868e-11
-1.650344e-11
-2.639109e-11
-7.623323e-12
-1.48581e-11
1.416013e-11
1.370349e-11
-7.350619e-12
-1.522767e-11
1.65532e-11
-8.362221e-12
-1.572865e-11
1.661001e-11
6.259679e-12
-5.463813e-12
-1.714502e-11
1.822387e-11
4.606573e-12
-2.968425e-12
-1.858216e-11
-1.805563e-11
-1.977491e-11
-1.776332e-11
-2.475136e-11
-7.891622e-12
-2.928479e-11
-8.376441e-12
-7.822936e-12
-1.505004e-11
1.630431e-11
7.218392e-12
-6.610768e-12
-1.68524e-11
1.763309e-11
5.740562e-12
-4.905157e-12
-1.815085e-11
1.89464e-11
3.939904e-12
-2.159908e-12
-1.934703e-11
-1.947874e-11
-2.204065e-11
-1.865758e-11
-2.756189e-11
-8.528511e-12
-3.236403e-11
-8.230886e-12
1.588567e-11
-7.748748e-12
-1.666503e-11
1.750764e-11
6.966863e-12
-6.093794e-12
-1.825292e-11
1.87093e-11
4.999212e-12
-4.000968e-12
-1.931905e-11
1.976229e-11
2.897043e-12
-9.530327e-13
-2.022517e-11
-2.093148e-11
-2.482548e-11
-1.935884e-11
-3.095955e-11
-8.412451e-12
-3.613713e-11
-8.04913e-12
1.754298e-11
-7.385623e-12
-1.845228e-11
1.907807e-11
6.37535e-12
-5.243774e-12
-1.998152e-11
1.998842e-11
3.999007e-12
-2.6782e-12
-2.083293e-11
2.068721e-11
1.413777e-12
6.897067e-13
-2.120543e-11
-2.251143e-11
-2.987479e-11
-1.988635e-11
-1.720626e-11
-1.794561e-11
-8.188091e-12
-1.989812e-11
-7.760701e-12
-2.068176e-11
1.952436e-11
-6.806433e-12
-2.063341e-11
2.084128e-11
5.468777e-12
-4.140677e-12
-2.179691e-11