/*--------------------------------*- C++ -*----------------------------------*\
| =========                 |                                                 |
| \\      /  F ield         | OpenFOAM: The Open Source CFD Toolbox           |
|  \\    /   O peration     | Version:  2206                                  |
|   \\  /    A nd           | Website:  www.openfoam.com                      |
|    \\/     M anipulation  |                                                 |
\*---------------------------------------------------------------------------*/
FoamFile
{
    version     2.0;
    format      ascii;
    arch        "LSB;label=32;scalar=64";
    class       surfaceScalarField;
    location    "2";
    object      phi.a;
}
// * * * * * * * * * * * * * * * * * * * * * * * * * * * * * * * * * * * * * //

dimensions      [0 3 -1 0 0 0 0];

oriented        oriented;

internalField   nonuniform List<scalar> 
26037
(
-1.695635e-10
-4.127231e-11
-9.256748e-11
-2.247411e-11
-5.720617e-11
-9.099189e-12
-3.982535e-11
-4.172916e-12
-3.041768e-11
-2.533148e-12
-2.381992e-11
-1.799579e-12
-1.435219e-12
-1.869811e-11
-9.128011e-11
-6.220883e-11
-6.8577e-11
-3.90597e-11
-4.837499e-11
-1.798378e-11
-3.679289e-11
-9.224923e-12
-2.905429e-11
-5.623722e-12
-2.31126e-11
-3.801753e-12
-2.806923e-12
-1.828148e-11
-3.338578e-11
-2.076487e-11
-3.962957e-11
-2.173973e-11
-3.55037e-11
-1.630213e-11
-3.050878e-11
-1.007869e-11
-2.55055e-11
-6.875194e-12
-2.097314e-11
-4.932658e-12
-3.737849e-12
-1.69002e-11
-1.549057e-11
-6.704888e-12
-2.343804e-11
-1.141324e-11
-2.566724e-11
-1.146597e-11
-2.37443e-11
-9.317927e-12
-2.112938e-11
-6.722646e-12
-1.805444e-11
-5.232565e-12
-4.178524e-12
-1.48784e-11
-8.927715e-12
-2.782898e-12
-1.475477e-11
-6.298144e-12
-1.781597e-11
-7.669208e-12
-1.839636e-11
-7.214229e-12
-1.685567e-11
-6.351638e-12
-1.493752e-11
-4.992422e-12
-4.233969e-12
-1.2563e-11
-5.731657e-12
-1.345265e-12
-9.786046e-12
-3.656024e-12
-1.25362e-11
-5.1103e-12
-1.364763e-11
-5.411969e-12
-1.347044e-11
-5.223603e-12
-1.197572e-11
-4.814346e-12
-4.053096e-12
-1.021911e-11
-4.009393e-12
-7.558948e-13
-6.818393e-12
-2.259701e-12
-9.101617e-12
-3.382696e-12
-1.011236e-11
-4.155084e-12
-1.024921e-11
-4.23148e-12
-9.568145e-12
-4.158829e-12
-3.96603e-12
-8.000604e-12
-2.986007e-12
-4.796839e-13
-4.934485e-12
-1.494121e-12
-6.546959e-12
-2.388085e-12
-7.484043e-12
-3.161384e-12
-7.677912e-12
-3.428104e-12
-7.184571e-12
-3.570411e-12
-3.582656e-12
-6.103925e-12
-2.324428e-12
-3.341799e-13
-3.676643e-12
-1.051343e-12
-4.83758e-12
-1.761636e-12
-5.524935e-12
-2.463045e-12
-5.636915e-12
-2.820374e-12
-5.179151e-12
-3.089421e-12
-3.24399e-12
-4.205987e-12
-1.865486e-12
-2.507958e-13
-2.785453e-12
-7.840508e-13
-3.588667e-12
-1.35976e-12
-4.023493e-12
-1.983153e-12
-3.999473e-12
-2.378583e-12
-3.496983e-12
-2.721373e-12
-2.973815e-12
-2.539898e-12
-1.527561e-12
-2.001987e-13
-2.120618e-12
-6.171208e-13
-2.634778e-12
-1.098971e-12
-2.839637e-12
-1.656907e-12
-2.662304e-12
-2.068518e-12
-2.072775e-12
-2.456711e-12
-2.778848e-12
-1.078972e-12
-1.265997e-12
-1.685082e-13
-1.601002e-12
-5.104322e-13
-1.876872e-12
-9.293068e-13
-1.877045e-12
-1.439146e-12
-1.545313e-12
-1.860913e-12
-8.48317e-13
-2.281245e-12
-2.657198e-12
2.137933e-13
-1.053436e-12
-1.48369e-13
-1.176823e-12
-4.41794e-13
-1.251302e-12
-8.203936e-13
-1.068913e-12
-1.298882e-12
-5.879905e-13
-1.732818e-12
2.253082e-13
-2.180989e-12
-2.603263e-12
1.374035e-12
-8.733711e-13
-1.355962e-13
-8.16227e-13
-3.98317e-13
-7.154029e-13
-7.52447e-13
-3.705852e-13
-1.207522e-12
2.55357e-13
-1.661887e-12
1.188084e-12
-2.142467e-12
-2.610465e-12
2.433963e-12
-7.145644e-13
-1.277656e-13
-4.97805e-13
-3.724337e-13
-2.400612e-13
-7.148154e-13
2.280566e-13
-1.141581e-12
1.01951e-12
-1.662382e-12
2.073299e-12
-2.161189e-12
-2.673623e-12
3.422038e-12
-5.690674e-13
-1.232908e-13
-2.058018e-13
-3.591232e-13
1.993906e-13
-7.01695e-13
8.262455e-13
-1.140058e-12
1.735323e-12
-1.682017e-12
2.907446e-12
-2.225511e-12
-2.787997e-12
4.363549e-12
-4.306757e-13
-1.211981e-13
7.181583e-14
-3.548204e-13
6.164213e-13
-7.048376e-13
1.379661e-12
-1.162801e-12
2.421548e-12
-1.732437e-12
3.714893e-12
-2.330754e-12
-2.94965e-12
5.281859e-12
-2.945613e-13
-1.209256e-13
3.44895e-13
-3.577411e-13
1.026902e-12
-7.221427e-13
1.92486e-12
-1.208024e-12
3.100989e-12
-1.814112e-12
4.517896e-12
-2.475089e-12
-3.156846e-12
6.199204e-12
-1.561101e-13
-1.221812e-13
6.22508e-13
-3.668323e-13
1.444357e-12
-7.51958e-13
2.4798e-12
-1.272699e-12
3.791152e-12
-1.916059e-12
5.337677e-12
-2.648103e-12
-3.408505e-12
7.137662e-12
-1.080314e-14
-1.248491e-13
9.136627e-13
-3.820513e-13
1.882093e-12
-7.948247e-13
3.062203e-12
-1.360383e-12
4.503557e-12
-2.059918e-12
6.197543e-12
-2.851934e-12
-3.712979e-12
8.12108e-12
1.465445e-13
-1.29123e-13
1.228378e-12
-4.040759e-13
2.354593e-12
-8.520385e-13
3.689645e-12
-1.472887e-12
5.252981e-12
-2.245309e-12
7.120651e-12
-3.114354e-12
-4.076122e-12
9.175496e-12
3.2143e-13
-1.354103e-13
1.57799e-12
-4.340098e-13
2.878625e-12
-9.25419e-13
4.384311e-12
-1.611479e-12
6.108145e-12
-2.466927e-12
8.138789e-12
-3.428418e-12
-4.505918e-12
1.033334e-11
5.203219e-13
-1.441836e-13
1.975145e-12
-4.735601e-13
3.473347e-12
-1.018467e-12
5.171434e-12
-1.782545e-12
7.078529e-12
-2.735529e-12
9.28434e-12
-3.793542e-12
-5.002566e-12
1.163517e-11
7.508159e-13
-1.559644e-13
2.434859e-12
-5.246973e-13
4.160815e-12
-1.135072e-12
6.080642e-12
-1.993293e-12
8.201887e-12
-3.067927e-12
1.061676e-11
-4.291699e-12
-5.545445e-12
1.313104e-11
1.021502e-12
-1.710427e-13
2.974402e-12
-5.885997e-13
4.967086e-12
-1.278037e-12
7.145864e-12
-2.248606e-12
9.511143e-12
-3.465609e-12
1.206019e-11
-4.853368e-12
-6.263013e-12
1.486917e-11
1.342296e-12
-1.891521e-13
3.613391e-12
-6.646607e-13
5.921322e-12
-1.446884e-12
8.405167e-12
-2.548653e-12
1.105901e-11
-3.931815e-12
1.386112e-11
-5.509702e-12
-7.116061e-12
1.691538e-11
1.724012e-12
-2.090264e-13
4.373485e-12
-7.493148e-13
7.055956e-12
-1.636619e-12
9.901921e-12
-2.887797e-12
1.289719e-11
-4.462976e-12
1.600708e-11
-6.263986e-12
-8.08792e-12
1.933228e-11
2.178595e-12
-2.283907e-13
5.278525e-12
-8.335713e-13
8.40572e-12
-1.833782e-12
1.168242e-11
-3.249081e-12
1.508454e-11
-5.040925e-12
1.857202e-11
-7.114316e-12
-9.329406e-12
2.227156e-11
2.717211e-12
-2.399216e-13
6.352923e-12
-8.984251e-13
1.000783e-11
-2.011917e-12
1.379558e-11
-3.597073e-12
1.768085e-11
-5.622552e-12
2.160741e-11
-7.993383e-12
-1.056107e-11
2.548415e-11
3.357533e-12
-2.449571e-13
7.625858e-12
-8.922205e-13
1.190028e-11
-2.124724e-12
1.62921e-11
-3.873959e-12
2.074843e-11
-6.134602e-12
2.519671e-11
-8.823544e-12
-1.178294e-11
2.949951e-11
4.056581e-12
-2.213718e-13
9.103814e-12
-8.335066e-13
1.411608e-11
-2.103931e-12
1.921978e-11
-3.990827e-12
2.435401e-11
-6.469922e-12
2.942767e-11
-9.484601e-12
-1.291032e-11
3.429598e-11
4.900588e-12
-1.585799e-13
1.089396e-11
-7.59605e-13
1.6709e-11
-1.707577e-12
2.262391e-11
-3.773726e-12
2.855752e-11
-6.469417e-12
3.438324e-11
-9.791687e-12
-1.369568e-11
3.99279e-11
5.85296e-12
-3.980686e-14
1.264658e-11
-4.495947e-13
1.989806e-11
-1.46254e-12
2.656307e-11
-2.675266e-12
3.340502e-11
-5.883633e-12
4.013731e-11
-9.474391e-12
-1.384548e-11
4.653087e-11
6.903599e-12
1.538479e-13
1.47477e-11
1.147502e-13
2.269466e-11
-5.753801e-13
3.095768e-11
-1.276218e-12
3.891061e-11
-4.39494e-12
4.672668e-11
-8.133152e-12
-1.289449e-11
5.418348e-11
8.025039e-12
4.447428e-13
1.704762e-11
1.003423e-12
2.624586e-11
8.959646e-13
3.671484e-11
9.366851e-14
4.523619e-11
-4.147846e-13
5.414678e-11
-4.990857e-12
-1.021333e-11
6.285496e-11
9.186861e-12
8.631242e-13
1.948592e-11
2.345722e-12
3.005169e-11
3.263937e-12
4.097088e-11
3.364158e-12
5.374435e-11
2.584354e-12
6.247848e-11
2.711415e-12
-4.996706e-12
7.236442e-11
1.037955e-11
1.45495e-12
2.208035e-11
4.345126e-12
3.421742e-11
6.856749e-12
4.654603e-11
8.531781e-12
5.888545e-11
9.004663e-12
7.122297e-11
1.12622e-11
3.465582e-12
8.260692e-11
1.166377e-11
2.282265e-12
2.493407e-11
7.23851e-12
3.879251e-11
1.19846e-11
5.273925e-11
1.574643e-11
6.660173e-11
1.782655e-11
8.522257e-11
1.849512e-11
2.195399e-11
9.594521e-11
1.318385e-11
3.390973e-12
2.815867e-11
1.121691e-11
4.372239e-11
1.875651e-11
5.927987e-11
2.518523e-11
7.52431e-11
3.017574e-11
9.340298e-11
3.388146e-11
4.283622e-11
1.161798e-10
1.517076e-11
4.691664e-12
3.186697e-11
1.657924e-11
4.90389e-11
2.74096e-11
6.713479e-11
3.784239e-11
8.761498e-11
4.849489e-11
1.121602e-10
5.734822e-11
6.12783e-11
1.541798e-10
1.696658e-11
6.4108e-12
3.697906e-11
2.155877e-11
5.60696e-11
4.042746e-11
7.84942e-11
5.746519e-11
1.046348e-10
7.715589e-11
1.327517e-10
9.274581e-11
1.020866e-10
1.812185e-10
1.939795e-11
8.470352e-12
4.080008e-11
2.910278e-11
7.000713e-11
5.522007e-11
9.616606e-11
9.500619e-11
1.243494e-10
1.22378e-10
1.822408e-10
1.535838e-10
2.210803e-10
3.67656e-10
2.298389e-11
1.143433e-11
4.989001e-11
4.217701e-11
8.304985e-11
8.489772e-11
1.289801e-10
1.382539e-10
1.812737e-10
2.165324e-10
3.988037e-10
3.000058e-10
4.651129e-10
8.421169e-10
3.029863e-11
1.773534e-11
6.689456e-11
6.662011e-11
1.086101e-10
1.350609e-10
1.738433e-10
2.184221e-10
4.285018e-10
3.440226e-10
8.840676e-10
6.304596e-10
8.286868e-10
1.593393e-09
4.581219e-11
2.949774e-11
9.576211e-11
1.089913e-10
1.578049e-10
2.120549e-10
3.67918e-10
3.636863e-10
8.501554e-10
5.779292e-10
1.749463e-09
8.739559e-10
1.524522e-09
2.524702e-09
6.795689e-11
4.84548e-11
1.424932e-10
1.615531e-10
3.117955e-10
3.212386e-10
7.71502e-10
6.05132e-10
1.504167e-09
8.862924e-10
2.500645e-09
1.241431e-09
1.697252e-09
4.020078e-09
9.958389e-11
7.520098e-11
2.260044e-10
2.414901e-10
5.896594e-10
4.694417e-10
1.386072e-09
7.70842e-10
2.322006e-09
1.333579e-09
3.519209e-09
1.659504e-09
2.195279e-09
4.721977e-09
1.397943e-10
1.103038e-10
4.172594e-10
3.405136e-10
1.018643e-09
6.306358e-10
1.948547e-09
9.840723e-10
3.468102e-09
1.432525e-09
5.036946e-09
1.943147e-09
3.187082e-09
5.89691e-09
2.130558e-10
1.576097e-10
6.896279e-10
4.381378e-10
1.50848e-09
7.72508e-10
2.655392e-09
1.18887e-09
4.074405e-09
1.69545e-09
5.55217e-09
2.256228e-09
2.890014e-09
7.452676e-09
3.279139e-10
1.98458e-10
9.829891e-10
5.065527e-10
1.990933e-09
8.874032e-10
3.339368e-09
1.359218e-09
4.871167e-09
1.926813e-09
6.232816e-09
2.534868e-09
3.136986e-09
7.129505e-09
5.00681e-10
2.150511e-10
1.368425e-09
5.353189e-10
2.433859e-09
1.07523e-09
3.925502e-09
1.488658e-09
5.483268e-09
2.076427e-09
6.714957e-09
2.735675e-09
3.550508e-09
7.360969e-09
6.650661e-10
2.140556e-10
1.635165e-09
5.528892e-10
3.164927e-09
9.748169e-10
4.983957e-09
1.536178e-09
6.792211e-09
2.071851e-09
8.330057e-09
2.780862e-09
4.674607e-09
8.689596e-09
8.092246e-10
2.005643e-10
1.87267e-09
5.541957e-10
3.302719e-09
9.846424e-10
4.962716e-09
1.515093e-09
6.42958e-09
2.129508e-09
7.800685e-09
2.862308e-09
4.042421e-09
1.001006e-08
9.06945e-10
1.796746e-10
2.039234e-09
5.295613e-10
3.513076e-09
9.652923e-10
5.094842e-09
1.506788e-09
6.480967e-09
2.152645e-09
7.80279e-09
2.892439e-09
3.734484e-09
9.552171e-09
9.849623e-10
1.617613e-10
2.179119e-09
4.976976e-10
3.731451e-09
9.200553e-10
5.384843e-09
1.454554e-09
6.860294e-09
2.098404e-09
8.299293e-09
2.820442e-09
3.575271e-09
9.907774e-09
1.071773e-09
1.373309e-10
2.349436e-09
4.36313e-10
4.032411e-09
8.1522e-10
5.866665e-09
1.305398e-09
7.568708e-09
1.908893e-09
9.259996e-09
2.590243e-09
3.287918e-09
1.106318e-08
1.070331e-09
9.45924e-11
2.345454e-09
3.289887e-10
4.026692e-09
6.492429e-10
5.880134e-09
1.081218e-09
7.613603e-09
1.634802e-09
9.292199e-09
2.286364e-09
2.9604e-09
1.098427e-08
9.825982e-10
5.401477e-11
2.178161e-09
2.327258e-10
3.742125e-09
5.100462e-10
5.477334e-09
9.023021e-10
7.095853e-09
1.42126e-09
8.607587e-09
2.05666e-09
2.696568e-09
1.01409e-08
9.014996e-10
1.160081e-11
2.039237e-09
1.346139e-10
3.534142e-09
3.718336e-10
5.24339e-09
7.234852e-10
6.882253e-09
1.206764e-09
8.383727e-09
1.797889e-09
2.135354e-09
1.014763e-08
7.956477e-10
-3.827718e-11
1.864623e-09
1.410147e-11
3.308429e-09
1.864988e-10
5.084364e-09
4.377714e-10
6.881681e-09
8.966223e-10
8.56318e-09
1.390238e-09
1.008506e-09
1.083098e-08
6.394473e-10
-8.472669e-11
1.61302e-09
-1.186771e-10
3.104211e-09
-1.594848e-10
4.948325e-09
1.260171e-10
7.057084e-09
4.760611e-10
9.134163e-09
9.176765e-10
1.387499e-09
1.006503e-08
4.611587e-10
-1.160222e-10
1.325637e-09
-2.299234e-10
2.402141e-09
-1.9781e-10
3.907623e-09
-1.391298e-11
5.647207e-09
2.807269e-10
7.411207e-09
6.754132e-10
1.154652e-09
8.897979e-09
2.838566e-10
-1.103603e-10
9.404937e-10
-2.595973e-10
1.951705e-09
-2.779339e-10
3.288796e-09
-1.468609e-10
4.864691e-09
1.069913e-10
6.509987e-09
4.622888e-10
8.278608e-10
8.049612e-09
1.679675e-10
-9.075748e-11
6.380183e-10
-2.48215e-10
1.459244e-09
-3.191536e-10
2.592575e-09
-2.478166e-10
3.988115e-09
-5.835233e-11
5.512086e-09
2.425973e-10
1.528398e-10
7.509739e-09
9.937871e-11
-6.381606e-11
3.629089e-10
-2.04613e-10
9.639265e-10
-3.129501e-10
1.880376e-09
-3.142661e-10
3.298001e-09
-3.084132e-10
4.78619e-09
7.461773e-11
4.41641e-10
5.803884e-09
6.76143e-11
-4.063151e-11
1.777455e-10
-1.469231e-10
5.368695e-10
-2.664324e-10
1.30659e-09
-3.491561e-10
2.235578e-09
-2.372163e-10
3.40217e-09
-1.784095e-11
2.803298e-10
4.607059e-09
4.440128e-11
-2.42901e-11
1.028166e-10
-9.526407e-11
2.640443e-10
-1.930698e-10
7.197592e-10
-2.686074e-10
1.439985e-09
-2.455197e-10
2.397568e-09
-1.187455e-10
-1.838756e-11
3.731278e-09
2.889236e-11
-1.536664e-11
6.596672e-11
-5.82178e-11
1.203049e-10
-1.242536e-10
3.253222e-10
-2.021554e-10
7.948139e-10
-2.37948e-10
1.606329e-09
-2.17897e-10
-3.926984e-12
2.490931e-09
1.929486e-11
-1.134511e-11
4.460613e-11
-3.938679e-11
7.703766e-11
-7.874267e-11
1.360964e-10
-1.346685e-10
3.719099e-10
-1.990157e-10
8.383164e-10
-1.839129e-10
-1.069123e-10
1.563306e-09
1.538764e-11
-9.246783e-12
3.363479e-11
-2.986771e-11
5.709581e-11
-5.401134e-11
9.169257e-11
-9.019901e-11
1.464735e-10
-1.267267e-10
3.5905e-10
-1.554326e-10
-1.408323e-10
8.014598e-10
1.328486e-11
-7.427842e-12
2.838278e-11
-2.355033e-11
4.804828e-11
-4.15447e-11
6.72705e-11
-5.842948e-11
9.175181e-11
-8.066722e-11
1.515793e-10
-1.079345e-10
-1.197576e-10
3.391907e-10
1.178518e-11
-5.772549e-12
2.618663e-11
-1.861538e-11
3.98292e-11
-3.046381e-11
5.556312e-11
-4.151367e-11
7.713557e-11
-5.417902e-11
9.972203e-11
-6.549092e-11
-7.820588e-11
1.448321e-10
1.072089e-11
-4.404445e-12
2.304174e-11
-1.349318e-11
3.583407e-11
-2.211495e-11
4.993958e-11
-3.028631e-11
6.37487e-11
-3.550424e-11
8.195699e-11
-4.061683e-11
-5.294313e-11
1.156115e-10
9.637576e-12
-3.205379e-12
2.08484e-11
-9.491182e-12
3.264932e-11
-1.52859e-11
4.456419e-11
-2.058308e-11
5.644843e-11
-2.305155e-11
6.983686e-11
-2.466633e-11
-2.931632e-11
8.595514e-11
8.837947e-12
-2.241916e-12
1.905582e-11
-6.449867e-12
3.008263e-11
-1.021267e-11
4.062829e-11
-1.254456e-11
5.166614e-11
-1.378356e-11
6.676881e-11
-1.62158e-11
-9.898775e-12
7.449681e-11
8.112087e-12
-1.50147e-12
1.753371e-11
-4.248324e-12
2.7045e-11
-6.117249e-12
3.68658e-11
-7.001993e-12
4.815937e-11
-7.75431e-12
5.724772e-11
-5.981274e-12
-4.471845e-13
6.69164e-11
7.350367e-12
-9.4889e-13
1.578113e-11
-2.568999e-12
2.437936e-11
-3.321194e-12
3.330151e-11
-3.245135e-12
4.326512e-11
-3.281177e-12
5.148101e-11
7.672269e-13
5.279014e-12
6.039463e-11
6.575478e-12
-5.572489e-13
1.410877e-11
-1.350982e-12
2.18105e-11
-1.432202e-12
3.075707e-11
-1.381544e-12
3.797411e-11
1.107552e-12
4.584259e-11
4.293931e-12
8.468887e-12
5.376351e-11
5.744486e-12
-2.798214e-13
1.243561e-11
-5.526695e-13
1.924981e-11
-2.029607e-13
2.641693e-11
4.103985e-13
3.342311e-11
3.041013e-12
4.046543e-11
6.106387e-12
9.944589e-12
4.737414e-11
4.950396e-12
-1.005461e-13
1.085581e-11
-6.696811e-14
1.723271e-11
3.150221e-13
2.310523e-11
1.834329e-12
2.926251e-11
4.025604e-12
3.545144e-11
6.873814e-12
1.031557e-11
4.148694e-11
4.208845e-12
7.624135e-15
9.520775e-12
1.401886e-13
1.468742e-11
9.184733e-13
2.001756e-11
2.333155e-12
2.545611e-11
4.370971e-12
3.090504e-11
6.975306e-12
1.001774e-11
3.622469e-11
3.533937e-12
6.571882e-14
8.06725e-12
3.033888e-13
1.259973e-11
1.113093e-12
1.727526e-11
2.454798e-12
2.205384e-11
4.334699e-12
2.686744e-11
6.67628e-12
9.322602e-12
3.160591e-11
2.966825e-12
8.739499e-14
6.855976e-12
3.960571e-13
1.077809e-11
1.146794e-12
1.485852e-11
2.380606e-12
1.906049e-11
4.080048e-12
2.332797e-11
6.159235e-12
8.474062e-12
2.754511e-11
2.429771e-12
9.722456e-14
5.790382e-12
4.015007e-13
9.190148e-12
1.089646e-12
1.275396e-11
2.202409e-12
1.645831e-11
3.71506e-12
2.02587e-11
5.54234e-12
7.54532e-12
2.408037e-11
1.972348e-12
9.457014e-14
4.875873e-12
3.736607e-13
7.821539e-12
9.901795e-13
1.093983e-11
1.979384e-12
1.421528e-11
3.313502e-12
1.762027e-11
4.901496e-12
6.497691e-12
2.133645e-11
1.580075e-12
8.715339e-14
4.093132e-12
3.320582e-13
6.649639e-12
8.762947e-13
9.386009e-12
1.748313e-12
1.229416e-11
2.920552e-12
1.534621e-11
4.312131e-12
5.711844e-12
1.864751e-11
1.245726e-12
7.75431e-14
3.425737e-12
2.869594e-13
5.649601e-12
7.632176e-13
8.060307e-12
1.52851e-12
1.065619e-11
2.557582e-12
1.341986e-11
3.77886e-12
5.000498e-12
1.645435e-11
9.606757e-13
6.739313e-14
2.856493e-12
2.431884e-13
4.796479e-12
6.581024e-13
6.929438e-12
1.328947e-12
9.258555e-12
2.232224e-12
1.178592e-11
3.30082e-12
4.385014e-12
1.457929e-11
7.169174e-13
5.764712e-14
2.369303e-12
2.030601e-13
4.065941e-12
5.640987e-13
5.960498e-12
1.153188e-12
8.063808e-12
1.944571e-12
1.049989e-11
2.824956e-12
3.942045e-12
1.297185e-11
5.065685e-13
4.865174e-14
1.948956e-12
1.672413e-13
3.435428e-12
4.813458e-13
5.123204e-12
1.000087e-12
7.022241e-12
1.701052e-12
9.223262e-12
2.488243e-12
3.482279e-12
1.156571e-11
3.230241e-13
4.034117e-14
1.581853e-12
1.35311e-13
2.884242e-12
4.085553e-13
4.390984e-12
8.658171e-13
6.115119e-12
1.487589e-12
8.1433e-12
2.185553e-12
3.065336e-12
1.03324e-11
1.602027e-13
3.264238e-14
1.256108e-12
1.068475e-13
2.394947e-12
3.442938e-13
3.740143e-12
7.46796e-13
5.312126e-12
1.294632e-12
7.179629e-12
1.920329e-12
2.698772e-12
9.229583e-12
1.320256e-14
2.55885e-14
9.617478e-13
8.181932e-14
1.952101e-12
2.884039e-13
3.151638e-12
6.43118e-13
4.632122e-12
1.10936e-12
6.30682e-12
1.726567e-12
2.381414e-12
8.224662e-12
-1.226166e-13
1.927183e-14
6.894028e-13
6.032908e-14
1.541903e-12
2.409237e-13
2.603448e-12
5.570772e-13
3.936194e-12
9.808579e-13
5.49142e-12
1.530469e-12
2.10554e-12
7.291056e-12
-2.514124e-13
1.387992e-14
4.309431e-13
4.279987e-14
1.15271e-12
2.020448e-13
2.085164e-12
4.853118e-13
3.288286e-12
8.684272e-13
4.721533e-12
1.354858e-12
1.867388e-12
6.406973e-12
-3.768623e-13
9.755999e-15
1.792349e-13
3.038881e-14
7.740159e-13
1.736573e-13
1.581359e-12
4.309773e-13
2.658699e-12
7.812784e-13
3.975249e-12
1.212249e-12
1.669004e-12
5.55158e-12
-5.02492e-13
7.430974e-15
-7.278231e-14
2.459329e-14
3.950859e-13
1.573261e-13
1.078754e-12
3.932698e-13
2.031726e-12
7.193158e-13
3.234474e-12
1.104196e-12
1.512024e-12
4.705359e-12
-6.320265e-13
7.553826e-15
-3.326914e-13
2.801734e-14
4.185987e-15
1.590815e-13
5.637554e-13
3.928245e-13
1.390401e-12
6.896495e-13
2.48047e-12
1.036448e-12
1.399913e-12
3.848967e-12
-7.701091e-13
1.112722e-14
-6.096355e-13
4.395718e-14
-4.109634e-13
1.83773e-13
2.251823e-14
4.260343e-13
7.145696e-13
7.013553e-13
1.693129e-12
1.014743e-12
1.336611e-12
2.962567e-12
-9.223661e-13
1.969371e-14
-9.148078e-13
7.718014e-14
-8.664022e-13
2.373487e-13
-5.765108e-13
4.955638e-13
-1.454388e-14
7.557422e-13
8.513675e-13
1.043769e-12
1.326746e-12
2.02477e-12
-1.096525e-12
3.572337e-14
-1.262856e-12
1.357639e-13
-1.38301e-12
3.327187e-13
-1.251314e-12
6.211634e-13
-8.249707e-13
8.713507e-13
-7.156573e-14
1.134661e-12
1.37653e-12
1.011577e-12
-1.302998e-12
6.337139e-14
-1.674739e-12
2.322617e-13
-1.989909e-12
4.882996e-13
-2.0343e-12
8.230875e-13
-1.750772e-12
1.064737e-12
-1.107285e-12
1.299087e-12
1.492231e-12
-1.044577e-13
-1.558596e-12
1.097432e-13
-2.181968e-12
3.879462e-13
-2.728991e-12
7.333796e-13
-2.971688e-12
1.130915e-12
-2.836536e-12
1.35795e-12
-2.294721e-12
1.550465e-12
1.678931e-12
-1.354486e-12
-1.889827e-12
1.881156e-13
-2.833436e-12
6.415141e-13
-3.662923e-12
1.11653e-12
-4.129045e-12
1.588349e-12
-4.141587e-12
1.779533e-12
-3.681575e-12
1.902303e-12
1.938086e-12
-2.773068e-12
-2.341135e-12
3.268358e-13
-3.709454e-12
1.065488e-12
-4.893965e-12
1.720918e-12
-5.601416e-12
2.250837e-12
-5.744473e-12
2.36175e-12
-5.325146e-12
2.363496e-12
2.262615e-12
-4.390632e-12
-2.992438e-12
5.93143e-13
-4.952145e-12
1.80847e-12
-6.662621e-12
2.773958e-12
-7.535193e-12
3.11902e-12
-7.748295e-12
3.127344e-12
-7.283155e-12
2.928314e-12
2.392771e-12
-6.034155e-12
-4.000839e-12
1.164562e-12
-6.800253e-12
3.159919e-12
-8.978455e-12
4.351852e-12
-1.010896e-11
4.435148e-12
-1.026866e-11
4.094086e-12
-9.299104e-12
3.20128e-12
2.665729e-12
-7.990471e-12
-5.697028e-12
2.561117e-12
-9.724074e-12
5.726662e-12
-1.245807e-11
6.819236e-12
-1.35831e-11
6.185522e-12
-1.298653e-11
4.683412e-12
-1.186494e-11
3.670521e-12
2.834127e-12
-1.014875e-11
-8.841153e-12
6.373782e-12
-1.461534e-11
1.070459e-11
-1.764816e-11
1.05052e-11
-1.764881e-11
7.534506e-12
-1.662271e-11
5.465605e-12
-1.47568e-11
3.896519e-12
2.773721e-12
-1.244398e-11
-1.529165e-11
2.004597e-11
-2.311954e-11
2.073268e-11
-2.453329e-11
1.419584e-11
-2.332189e-11
8.858033e-12
-2.080452e-11
5.617535e-12
-1.782677e-11
3.604042e-12
2.339805e-12
-1.472277e-11
-3.261271e-11
6.067558e-11
-3.791612e-11
3.63886e-11
-3.469329e-11
1.661585e-11
-2.994515e-11
8.100607e-12
-2.51391e-11
4.418896e-12
-2.072686e-11
2.500022e-12
1.424524e-12
-1.673012e-11
-8.643378e-11
-6.607396e-11
-4.723493e-11
-3.622163e-11
-2.872519e-11
-2.290023e-11
-1.812908e-11
-1.446905e-11
-1.235453e-12
-1.099541e-11
-1.113663e-12
-4.147935e-12
-1.025055e-12
-4.154567e-12
-3.629436e-12
-3.551944e-13
3.224282e-12
-2.917203e-12
-3.666478e-13
2.723547e-12
-2.628056e-12
-3.576484e-13
2.631978e-12
-2.842001e-12
-3.641056e-13
-1.419836e-11
-2.229503e-12
-1.080368e-11
-1.873198e-12
-4.100766e-12
-1.635767e-12
-4.041613e-12
4.884979e-13
-3.599443e-12
-6.095867e-13
4.962393e-13
3.193448e-12
-2.880651e-12
-6.270656e-13
4.628163e-13
2.684622e-12
-2.586801e-12
-5.66764e-13
4.639567e-13
2.58682e-12
-2.793451e-12
-5.61644e-13
-1.324643e-11
-2.985577e-12
-1.010498e-11
-2.498971e-12
-7.63865e-12
-2.175515e-12
-2.987188e-12
-1.019282e-12
7.542939e-13
7.314007e-13
-2.886949e-12
-9.353772e-13
7.518316e-13
-2.693634e-12
-8.670451e-13
6.679151e-13
2.498322e-12
-2.399523e-12
-7.652423e-13
6.572436e-13
2.395019e-12
-2.593593e-12
-7.502912e-13
-1.177889e-11
-3.447733e-12
-8.975511e-12
-2.943081e-12
-3.413319e-12
-2.590702e-12
-3.254811e-12
-2.99917e-12
-1.128181e-12
9.752748e-13
2.63782e-12
-2.348387e-12
-1.079951e-12
8.583849e-13
2.167511e-12
-2.074066e-12
-9.472881e-13
8.398159e-13
2.068006e-12
-2.259432e-12
-9.25782e-13
-1.000961e-11
-3.648151e-12
-7.568007e-12
-3.21017e-12
-2.855733e-12
-2.88226e-12
-2.656257e-12
1.205921e-12
-2.491029e-12
-1.283082e-12
1.181736e-12
2.153662e-12
-1.882894e-12
-1.274058e-12
1.031641e-12
1.718032e-12
-1.632197e-12
-1.110814e-12
1.0077e-12
1.626509e-12
-1.812934e-12
-1.085396e-12
-8.123452e-12
-3.659632e-12
-6.00915e-12
-3.337394e-12
-2.201431e-12
-3.077312e-12
-1.979638e-12
1.351643e-12
-1.882975e-12
-1.411585e-12
1.356579e-12
-1.329419e-12
-1.42971e-12
1.577252e-12
1.184537e-12
1.179857e-12
-1.101094e-12
-1.253007e-12
1.158763e-12
1.095939e-12
-1.277223e-12
-1.227751e-12
-6.252397e-12
-3.561113e-12
-4.399418e-12
-3.370163e-12
-1.496854e-12
-3.199107e-12
-1.26513e-12
-1.209378e-12
-1.514894e-12
1.463573e-12
1.490578e-12
8.130169e-13
-7.092033e-13
-1.440927e-12
1.316621e-12
5.78003e-13
-5.05514e-13
-1.375582e-12
1.292604e-12
5.008379e-13
-6.77746e-13
-1.353537e-12
-4.470402e-12
-3.511333e-12
-2.811041e-12
-3.352814e-12
-7.756441e-13
-3.276054e-12
-5.41507e-13
1.552344e-12
-5.25641e-13
-1.585317e-12
1.482719e-12
-6.321823e-14
-1.528819e-12
2.496022e-13
1.430714e-12
-6.368421e-14
1.321387e-13
-1.482981e-12
1.411131e-12
-1.374605e-13
-3.511323e-14
-1.466203e-12
-2.830844e-12
-3.309053e-12
-1.282456e-12
-3.312638e-12
-6.010337e-14
-3.336872e-12
1.70452e-13
1.711317e-13
-1.642848e-12
1.61503e-12
1.572469e-12
-4.305699e-13
6.056883e-13
-1.614515e-12
1.533367e-12
-7.263345e-13
7.930935e-13
-1.582718e-12
1.519566e-12
-8.006216e-13
6.331863e-13
-1.571968e-12
-1.219285e-12
-3.143331e-12
2.469753e-13
-3.246175e-12
6.368423e-13
-3.300213e-12
8.601088e-13
1.67011e-12
8.570519e-13
-1.697819e-12
1.656052e-12
-1.107422e-12
1.276617e-12
-1.698148e-12
1.631896e-12
-1.395027e-12
1.462959e-12
-1.681716e-12
1.624277e-12
-1.474488e-12
1.312642e-12
-1.677219e-12
2.455061e-13
-3.029841e-12
1.693196e-12
-3.215201e-12
1.381381e-12
-3.346256e-12
1.615372e-12
1.727108e-12
1.523859e-12
-1.684111e-12
1.7417e-12
-1.771196e-12
1.939511e-12
-1.787578e-12
1.73307e-12
-2.05934e-12
2.131282e-12
-1.786838e-12
1.731746e-12
-2.14864e-12
1.992882e-12
-1.788427e-12
1.577722e-12
-2.974794e-12
3.046473e-12
-3.231029e-12
2.066365e-12
-3.430698e-12
2.293469e-12
1.708652e-12
2.279602e-12
-1.737959e-12
1.836574e-12
-2.521803e-12
2.58736e-12
-1.781399e-12
1.843643e-12
-2.713162e-12
2.791441e-12
-1.904186e-12
1.848336e-12
-2.816166e-12
2.66724e-12
-1.912069e-12
2.800718e-12
-2.979298e-12
4.314964e-12
-3.299227e-12
2.721349e-12
-3.562278e-12
2.940951e-12
1.772152e-12
2.943702e-12
-1.812483e-12
1.828237e-12
-3.191917e-12
3.362743e-12
-1.880936e-12
1.96924e-12
-3.487217e-12
3.438514e-12
-1.903686e-12
1.980236e-12
-3.473137e-12
3.331199e-12
-2.053772e-12
3.93838e-12
-3.041788e-12
5.515087e-12
-3.422141e-12
3.349537e-12
-3.7456e-12
3.563226e-12
1.858484e-12
3.584239e-12
-1.911318e-12
1.939177e-12
-3.843507e-12
4.023051e-12
-2.004015e-12
1.969741e-12
-4.154891e-12
4.241444e-12
-2.04235e-12
2.133484e-12
-4.27431e-12
3.978292e-12
-2.063978e-12
5.014248e-12
-3.160213e-12
6.665091e-12
-3.600022e-12
3.957326e-12
-3.98348e-12
4.167586e-12
1.970466e-12
4.20631e-12
-2.036757e-12
2.074927e-12
-4.479036e-12
4.66864e-12
-2.153057e-12
2.120896e-12
-4.809284e-12
4.903574e-12
-2.205887e-12
2.14773e-12
-4.940771e-12
4.795535e-12
-2.236402e-12
6.050487e-12
-3.332059e-12
7.784256e-12
-3.832991e-12
4.552412e-12
-4.277122e-12
4.762057e-12
2.109578e-12
4.817087e-12
-2.190205e-12
2.237831e-12
-5.104928e-12
5.30504e-12
-2.330037e-12
2.296952e-12
-5.454545e-12
5.555718e-12
-2.395158e-12
2.329878e-12
-5.596625e-12
5.448641e-12
-2.430619e-12
7.069215e-12
-3.555882e-12
8.892389e-12
-4.121243e-12
5.143863e-12
-4.62945e-12
5.356682e-12
2.277212e-12
5.424451e-12
-2.371248e-12
2.429643e-12
-5.721597e-12
5.94056e-12
-2.538148e-12
2.499984e-12
-6.098733e-12
6.206584e-12
-2.61242e-12
2.538191e-12
-6.25077e-12
6.100895e-12
-2.653272e-12
8.091381e-12
-3.831086e-12
1.000965e-11
-4.465917e-12
5.741791e-12
-5.041785e-12
5.959931e-12
2.47373e-12
6.041504e-12
-2.586051e-12
2.677452e-12
-6.332384e-12
6.584848e-12
-2.804525e-12
2.732421e-12
-6.750123e-12
6.86461e-12
-2.861169e-12
2.775468e-12
-6.911437e-12
6.758551e-12
-2.906274e-12
9.139273e-12
-4.15921e-12
1.115646e-11
-4.868722e-12
6.354118e-12
-5.515671e-12
6.581368e-12
2.704276e-12
6.670725e-12
-2.831002e-12
2.936749e-12
-6.976649e-12
7.245023e-12
-3.078665e-12
2.997634e-12
-7.418265e-12
7.53822e-12
-3.142405e-12
3.044255e-12
-7.587076e-12
7.430564e-12
-3.190559e-12
1.023596e-11
-4.545416e-12
1.235539e-11
-5.334609e-12
6.992108e-12
-6.055754e-12
7.231767e-12
2.965249e-12
7.325165e-12
-3.108613e-12
3.229887e-12
-7.647644e-12
7.930933e-12
-3.391616e-12
3.295433e-12
-8.112041e-12
8.236051e-12
-3.457836e-12
3.34384e-12
-8.28295e-12
8.120492e-12
-3.505799e-12
1.140854e-11
-4.997745e-12
1.363233e-11
-5.871872e-12
7.666855e-12
-6.668349e-12
7.922937e-12
3.260081e-12
8.015673e-12
-3.42155e-12
3.563099e-12
-8.354662e-12
8.653611e-12
-3.745936e-12
3.629323e-12
-8.842983e-12
8.971162e-12
-3.8115e-12
3.677366e-12
-9.014955e-12
8.82836e-12
-3.861274e-12
1.26904e-11
-5.528784e-12
1.501876e-11
-6.493795e-12
8.391662e-12
-7.362716e-12
8.669668e-12
3.591647e-12
8.753465e-12
-3.772011e-12
3.93914e-12
-9.108913e-12
9.424169e-12
-4.145395e-12
4.003093e-12
-9.622779e-12
9.756826e-12
-4.205916e-12
4.055726e-12
-9.801928e-12
9.592736e-12
-4.260738e-12
1.412247e-11
-6.154496e-12
1.655449e-11
-7.224562e-12
9.185029e-12
-8.174196e-12
9.497613e-12
3.96103e-12
9.556513e-12
-4.154204e-12
4.363458e-12
-9.925576e-12
1.024589e-11
-4.583831e-12
4.419092e-12
-1.046226e-11
1.060175e-11
-4.644319e-12
4.476069e-12
-1.064611e-11
1.041026e-11
-4.703524e-12
1.575828e-11
-6.905056e-12
1.83003e-11
-8.094543e-12
2.047933e-11
-9.144444e-12
1.090513e-11
-4.94139e-12
4.555769e-12
4.403089e-12
1.125893e-11
-5.035878e-12
4.756286e-12
1.109244e-11
-4.955468e-12
4.891495e-12
-1.137579e-11
1.152132e-11
-5.155142e-12
4.942351e-12
-1.156235e-11
1.129074e-11
-5.197129e-12
1.765618e-11
-7.804034e-12
2.031818e-11
-9.12918e-12
1.110624e-11
-1.028159e-11
1.149798e-11
1.148207e-11
-5.19328e-12
5.220558e-12
-1.186421e-11
1.216168e-11
-5.511439e-12
5.427162e-12
-1.240722e-11
1.25383e-11
-5.717488e-12
5.46654e-12
-1.257243e-11
1.225441e-11
-5.754078e-12
1.987788e-11
-8.87305e-12
2.266102e-11
-1.035856e-11
1.22675e-11
-1.161697e-11
1.272606e-11
5.482919e-12
1.263176e-11
-5.809277e-12
5.825874e-12
-1.301998e-11
1.331424e-11
-6.162799e-12
6.02708e-12
-1.354663e-11
1.366552e-11
-6.358133e-12
6.059041e-12
-1.368828e-11
1.331664e-11
-6.383525e-12
2.249701e-11
-1.011514e-11
2.540154e-11
-1.182145e-11
1.362108e-11
-1.320944e-11
1.415338e-11
6.163759e-12
1.396293e-11
-6.552632e-12
6.521694e-12
-1.433704e-11
1.460812e-11
-6.909439e-12
6.710353e-12
-1.47937e-11
1.490612e-11
-7.102559e-12
6.72739e-12
-1.491082e-11
1.447594e-11
-7.09197e-12
2.560525e-11
-1.144159e-11
2.861806e-11
-6.64014e-12
-6.931631e-12
1.520084e-11
-7.451497e-12
1.582314e-11
-7.646978e-12
6.974701e-12
1.550477e-11
-7.43869e-12
7.324682e-12
-1.584618e-11
1.607564e-11
-7.778679e-12
7.657744e-12
-1.608182e-11
1.62602e-11
-8.254112e-12
7.480295e-12
-1.623893e-11
1.572472e-11
-7.900753e-12
1.431402e-11
-1.304027e-11
1.504659e-11
1.499466e-11
-7.046602e-12
-1.574855e-11
1.639473e-11
-7.935929e-12
7.945329e-12
-1.691335e-11
1.730506e-11