/*--------------------------------*- C++ -*----------------------------------*\
| =========                 |                                                 |
| \\      /  F ield         | OpenFOAM: The Open Source CFD Toolbox           |
|  \\    /   O peration     | Version:  2206                                  |
|   \\  /    A nd           | Website:  www.openfoam.com                      |
|    \\/     M anipulation  |                                                 |
\*---------------------------------------------------------------------------*/
FoamFile
{
    version     2.0;
    format      ascii;
    arch        "LSB;label=32;scalar=64";
    class       volVectorField;
    location    "2";
    object      U;
}
// * * * * * * * * * * * * * * * * * * * * * * * * * * * * * * * * * * * * * //

dimensions      [0 1 -1 0 0 0 0];

internalField   nonuniform List<vector> 
13078
(
(3.545252e-08 -4.285096e-05 -7.974477e-28)
(-2.146709e-06 -8.119187e-06 2.390511e-30)
(-2.216147e-06 -6.314529e-06 1.025348e-27)
(-2.336656e-06 -4.792596e-06 0)
(-2.426767e-06 -4.616226e-06 2.157535e-28)
(-2.521052e-06 -4.111872e-06 1.53239e-28)
(-2.619042e-06 -3.706053e-06 1.056059e-28)
(-1.211287e-05 -2.026175e-05 0)
(-9.734582e-06 -6.145833e-06 -6.814003e-30)
(-4.565825e-06 -3.907024e-06 0)
(-3.532301e-06 -4.154341e-06 0)
(-3.18194e-06 -4.160199e-06 1.110359e-30)
(-3.051568e-06 -3.877637e-06 7.380825e-31)
(-3.021228e-06 -3.580494e-06 1.686721e-30)
(8.726695e-06 -3.475037e-06 1.058693e-27)
(-3.622978e-07 -2.368819e-06 -5.437517e-28)
(-2.930193e-06 -2.810203e-06 -2.965548e-28)
(-3.329234e-06 -3.169625e-06 -4.811676e-28)
(-3.331343e-06 -3.288192e-06 -1.857183e-28)
(-3.291435e-06 -3.263166e-06 0)
(-3.268749e-06 -3.150519e-06 5.597533e-34)
(7.229643e-06 -2.745616e-07 5.478509e-28)
(1.335114e-06 -4.152316e-07 -7.135847e-28)
(-1.468119e-06 -1.32931e-06 -3.920122e-28)
(-2.634496e-06 -1.929504e-06 -7.997704e-29)
(-3.058104e-06 -2.285421e-06 -5.125207e-31)
(-3.238372e-06 -2.478896e-06 0)
(-3.321409e-06 -2.548896e-06 -1.353917e-30)
(5.074786e-06 2.336659e-07 1.508844e-30)
(1.772025e-06 4.421698e-07 -2.351767e-28)
(-5.166958e-07 -2.126648e-07 -2.941315e-28)
(-1.857947e-06 -8.596362e-07 -1.14306e-28)
(-2.60645e-06 -1.36111e-06 1.497554e-28)
(-2.986222e-06 -1.699139e-06 2.685838e-33)
(-3.211008e-06 -1.90206e-06 -7.589606e-29)
(3.923733e-06 2.939585e-07 0)
(1.880895e-06 7.005226e-07 -5.211817e-30)
(7.884468e-08 3.514015e-07 6.829329e-30)
(-1.224856e-06 -1.492456e-07 -5.922197e-29)
(-2.083235e-06 -6.368987e-07 -1.345219e-29)
(-2.64702e-06 -1.027757e-06 8.930989e-29)
(-2.995514e-06 -1.304982e-06 1.363153e-28)
(3.074477e-06 2.404246e-07 0)
(1.7737e-06 6.96926e-07 -1.427055e-28)
(4.140575e-07 5.689704e-07 -1.743316e-29)
(-7.488512e-07 2.509131e-07 8.960027e-29)
(-1.63049e-06 -1.434529e-07 -2.012031e-29)
(-2.270412e-06 -5.097987e-07 -9.170714e-30)
(-2.742396e-06 -8.002268e-07 0)
(2.438741e-06 1.734185e-07 2.637272e-28)
(1.576906e-06 6.087808e-07 -1.133882e-28)
(5.509603e-07 6.088488e-07 -8.216556e-29)
(-4.321877e-07 4.285786e-07 0)
(-1.27337e-06 1.497472e-07 -2.038149e-29)
(-1.944616e-06 -1.445133e-07 -7.280471e-30)
(-2.473579e-06 -4.091879e-07 -5.469857e-30)
(1.956957e-06 1.163892e-07 -2.620516e-32)
(1.359436e-06 5.076468e-07 1.828907e-28)
(5.773932e-07 5.65889e-07 6.27103e-29)
(-2.455998e-07 4.865475e-07 -6.487866e-30)
(-1.016238e-06 3.068965e-07 -4.456435e-29)
(-1.682288e-06 8.954622e-08 -5.540614e-30)
(-2.246323e-06 -1.21714e-07 0)
(1.58764e-06 7.174726e-08 -1.670016e-28)
(1.15237e-06 4.148359e-07 1.487083e-28)
(5.419221e-07 4.937802e-07 5.668596e-29)
(-1.491307e-07 4.78054e-07 -6.91057e-29)
(-8.453681e-07 3.747767e-07 1.219602e-31)
(-1.488126e-06 2.276609e-07 0)
(-2.065923e-06 7.304718e-08 0)
(1.302555e-06 3.711117e-08 0)
(9.687626e-07 3.354823e-07 0)
(4.771324e-07 4.153699e-07 9.412606e-29)
(-1.122401e-07 4.363059e-07 -5.728418e-29)
(-7.421433e-07 3.875595e-07 -8.624556e-32)
(-1.356231e-06 2.983227e-07 0)
(-1.935792e-06 1.967821e-07 0)
(1.081961e-06 9.67189e-09 0)
(8.128209e-07 2.685843e-07 -1.00842e-28)
(4.021667e-07 3.397595e-07 7.798556e-29)
(-1.125469e-07 3.792955e-07 4.884299e-29)
(-6.892124e-07 3.673277e-07 -5.226572e-30)
(-1.276156e-06 3.234257e-07 0)
(-1.853758e-06 2.677716e-07 -7.781216e-29)
(9.123759e-07 -1.235531e-08 0)
(6.84581e-07 2.11998e-07 -8.366118e-29)
(3.279685e-07 2.694796e-07 9.576043e-31)
(-1.344618e-07 3.163066e-07 3.727447e-29)
(-6.715999e-07 3.284578e-07 -2.207099e-30)
(-1.238446e-06 3.177512e-07 -3.642487e-29)
(-1.81414e-06 3.001751e-07 3.23207e-32)
(7.84623e-07 -3.070975e-08 -7.991545e-29)
(5.825172e-07 1.630811e-07 0)
(2.606278e-07 2.049652e-07 2.217952e-31)
(-1.684241e-07 2.523096e-07 1.007428e-31)
(-6.793722e-07 2.782345e-07 5.407474e-30)
(-1.234456e-06 2.917587e-07 -3.886031e-29)
(-1.810683e-06 3.064252e-07 7.783709e-29)
(6.922669e-07 -4.65417e-08 -6.970294e-29)
(5.055338e-07 1.19603e-07 0)
(2.04907e-07 1.441277e-07 -8.717764e-31)
(-2.009001e-07 1.860278e-07 3.298389e-29)
(-6.961976e-07 2.243669e-07 2.931241e-29)
(-1.253916e-06 2.550194e-07 0)
(-1.837841e-06 2.952749e-07 -7.936296e-29)
(6.312633e-07 -6.03462e-08 0)
(4.515007e-07 8.035524e-08 -5.465695e-29)
(1.602185e-07 8.791532e-08 0)
(-2.389074e-07 1.246959e-07 2.070916e-29)
(-7.30579e-07 1.623478e-07 4.693889e-30)
(-1.294999e-06 2.096331e-07 6.854409e-30)
(-1.891852e-06 2.723497e-07 -7.171307e-29)
(5.985625e-07 -7.339308e-08 0)
(4.195074e-07 4.36494e-08 -1.002982e-28)
(1.293881e-07 3.479901e-08 -1.611762e-30)
(-2.720559e-07 6.339513e-08 -2.294497e-30)
(-7.724241e-07 1.019853e-07 0)
(-1.352385e-06 1.606228e-07 0)
(-1.969845e-06 2.430516e-07 0)
(5.916886e-07 -8.593835e-08 -5.612309e-29)
(4.090841e-07 8.408846e-09 -4.864378e-29)
(1.12231e-07 -1.656865e-08 -4.340521e-30)
(-3.012285e-07 3.110644e-09 -3.041047e-30)
(-8.203376e-07 4.217253e-08 0)
(-1.42447e-06 1.106028e-07 3.980808e-29)
(-2.070978e-06 2.117908e-07 -2.818907e-29)
(6.098359e-07 -9.793537e-08 -5.656434e-29)
(4.196537e-07 -2.58731e-08 -4.863335e-29)
(1.091357e-07 -6.696885e-08 -8.18941e-30)
(-3.254403e-07 -5.613237e-08 -7.583003e-30)
(-8.749204e-07 -1.639562e-08 0)
(-1.511317e-06 6.199383e-08 5.375182e-29)
(-2.196426e-06 1.819871e-07 -1.634978e-29)
(6.528085e-07 -1.097122e-07 -5.962838e-29)
(4.509122e-07 -5.980016e-08 -9.941574e-29)
(1.204883e-07 -1.172043e-07 -3.302076e-29)
(-3.422909e-07 -1.165999e-07 0)
(-9.263539e-07 -7.99009e-08 9.654668e-29)
(-1.600404e-06 1.86226e-08 1.526169e-28)
(-2.345375e-06 1.590102e-07 3.734555e-29)
(7.203872e-07 -1.212446e-07 -6.5108e-29)
(5.024793e-07 -9.310044e-08 -1.059819e-28)
(1.451594e-07 -1.658034e-07 -6.731178e-29)
(-3.55995e-07 -1.721457e-07 4.378905e-31)
(-9.860183e-07 -1.299837e-07 1.393844e-29)
(-1.719859e-06 -2.67862e-08 6.54145e-29)
(-2.525558e-06 1.437881e-07 -1.236571e-28)
(8.121979e-07 -1.325076e-07 0)
(5.737325e-07 -1.255121e-07 -5.661086e-29)
(1.824437e-07 -2.126283e-07 -3.520192e-29)
(-3.666743e-07 -2.254806e-07 -2.441939e-29)
(-1.055645e-06 -1.78476e-07 0)
(-1.860941e-06 -5.857472e-08 6.971745e-29)
(-2.739632e-06 1.427442e-07 4.748889e-31)
(9.274108e-07 -1.431272e-07 8.077402e-29)
(6.635147e-07 -1.560127e-07 0)
(2.30683e-07 -2.558509e-07 0)
(-3.767868e-07 -2.727975e-07 1.405217e-29)
(-1.138998e-06 -2.176362e-07 -5.053029e-30)
(-2.032232e-06 -7.475878e-08 0)
(-2.995519e-06 1.640603e-07 1.171553e-28)
(1.064163e-06 -1.523921e-07 1.834862e-28)
(7.695214e-07 -1.825741e-07 0)
(2.873032e-07 -2.922542e-07 0)
(-3.88893e-07 -3.104972e-07 2.270942e-30)
(-1.235446e-06 -2.464499e-07 -6.732011e-29)
(-2.221519e-06 -8.507041e-08 7.335307e-29)
(-3.282453e-06 2.159797e-07 0)
(1.218577e-06 -1.592109e-07 1.041202e-28)
(8.875121e-07 -2.019196e-07 4.33248e-30)
(3.47436e-07 -3.162874e-07 6.646508e-29)
(-4.095613e-07 -3.293753e-07 1.874308e-29)
(-1.356912e-06 -2.452676e-07 2.413245e-29)
(-2.452737e-06 -4.273842e-08 7.743848e-29)
(-3.64635e-06 2.984729e-07 0)
(1.384089e-06 -1.620231e-07 0)
(1.010974e-06 -2.098377e-07 -9.775437e-29)
(4.045174e-07 -3.218075e-07 6.810284e-29)
(-4.45431e-07 -3.233078e-07 0)
(-1.510355e-06 -2.145556e-07 7.712027e-29)
(-2.740777e-06 3.198623e-08 1.268973e-28)
(-4.087107e-06 4.387106e-07 7.270303e-29)
(1.550338e-06 -1.588671e-07 -1.295821e-28)
(1.130276e-06 -2.009142e-07 -1.086498e-28)
(4.494188e-07 -3.005858e-07 7.510487e-29)
(-5.052755e-07 -2.813055e-07 0)
(-1.704157e-06 -1.383614e-07 -6.024486e-29)
(-3.093056e-06 1.62657e-07 7.676645e-33)
(-4.619865e-06 6.491352e-07 8.090489e-29)
(1.702447e-06 -1.473458e-07 -1.402454e-28)
(1.232743e-06 -1.684822e-07 -1.167525e-28)
(4.700042e-07 -2.429619e-07 8.094963e-29)
(-6.006003e-07 -1.912133e-07 0)
(-1.949173e-06 -3.732965e-09 0)
(-3.514318e-06 3.563179e-07 1.04734e-28)
(-5.223795e-06 9.148655e-07 -9.160482e-28)
(1.819698e-06 -1.244316e-07 -1.488287e-28)
(1.300403e-06 -1.060311e-07 -1.284757e-28)
(4.50582e-07 -1.393422e-07 0)
(-7.465113e-07 -3.976752e-08 -3.533907e-29)
(-2.263069e-06 2.095802e-07 -7.634756e-29)
(-4.033512e-06 6.563768e-07 3.356738e-28)
(-5.970893e-06 1.348484e-06 3.000336e-28)
(1.877658e-06 -9.069772e-08 -1.455171e-28)
(1.319285e-06 -5.827975e-09 0)
(3.757996e-07 1.88522e-08 -9.912934e-29)
(-9.588759e-07 1.811433e-07 -2.017029e-29)
(-2.661967e-06 5.056093e-07 6.396701e-29)
(-4.666781e-06 1.046633e-06 3.0648e-28)
(-6.878684e-06 1.862461e-06 2.533882e-28)
(1.856532e-06 -4.22075e-08 0)
(1.249319e-06 1.249395e-07 0)
(2.246393e-07 2.324784e-07 -1.119474e-28)
(-1.255498e-06 4.736828e-07 0)
(-3.164598e-06 8.921275e-07 1.97911e-28)
(-5.429699e-06 1.551005e-06 1.993611e-28)
(-7.940065e-06 2.510547e-06 -3.111572e-28)
(1.725611e-06 1.305536e-08 -1.18665e-28)
(1.085539e-06 2.747931e-07 5.931333e-29)
(-9.182466e-09 4.958728e-07 6.110019e-30)
(-1.650487e-06 8.301845e-07 0)
(-3.798e-06 1.361749e-06 1.566895e-28)
(-6.367863e-06 2.180828e-06 0)
(-9.238797e-06 3.364921e-06 -6.781691e-28)
(1.467812e-06 7.598271e-08 -7.299644e-29)
(8.35063e-07 4.455026e-07 3.570418e-29)
(-3.495787e-07 7.394198e-07 -1.143731e-28)
(-2.138055e-06 1.20857e-06 -1.963639e-28)
(-4.583273e-06 1.86509e-06 3.758364e-28)
(-7.535108e-06 2.882726e-06 1.435791e-28)
(-1.087484e-05 4.358534e-06 -1.574529e-28)
(1.081095e-06 1.322246e-07 4.105477e-30)
(4.84421e-07 5.962631e-07 1.211378e-29)
(-7.546745e-07 9.705924e-07 -2.618196e-29)
(-2.757623e-06 1.50457e-06 -6.185269e-28)
(-5.538004e-06 2.300344e-06 1.041254e-28)
(-8.982051e-06 3.539781e-06 3.288165e-28)
(-1.294929e-05 5.397646e-06 7.148413e-28)
(5.955731e-07 1.645738e-07 -4.65738e-30)
(8.302705e-08 6.654856e-07 -1.389197e-29)
(-1.189975e-06 1.038402e-06 -3.028474e-28)
(-3.401367e-06 1.549759e-06 -1.566709e-27)
(-6.610979e-06 2.47507e-06 -1.674162e-27)
(-1.07287e-05 3.926455e-06 -1.222184e-27)
(-1.556715e-05 6.233692e-06 0)
(7.659333e-08 1.539832e-07 0)
(-2.788899e-07 6.002704e-07 0)
(-1.541255e-06 8.684358e-07 -3.337451e-28)
(-3.935128e-06 1.249231e-06 -2.323361e-28)
(-7.593114e-06 2.011135e-06 1.196345e-27)
(-1.267109e-05 3.647103e-06 7.00015e-28)
(-1.873233e-05 6.376579e-06 0)
(-3.701507e-07 7.649628e-08 -1.252047e-29)
(-4.571422e-07 3.259456e-07 3.849705e-29)
(-1.622047e-06 3.181489e-07 1.334674e-28)
(-4.18074e-06 3.645558e-07 0)
(-8.362509e-06 8.217569e-07 -2.309264e-27)
(-1.448592e-05 2.262527e-06 -5.763192e-28)
(-2.23259e-05 5.170166e-06 -1.238066e-27)
(-6.014208e-07 -8.199667e-08 2.99004e-28)
(-2.371775e-07 -2.004089e-07 4.645321e-29)
(-1.141569e-06 -7.076765e-07 6.383411e-28)
(-3.769743e-06 -1.31548e-06 0)
(-8.495046e-06 -1.608835e-06 -8.962646e-28)
(-1.571674e-05 -1.00062e-06 -7.571665e-27)
(-2.625562e-05 1.942702e-06 -8.394672e-27)
(-4.603547e-07 -3.114174e-07 3.458863e-28)
(6.353388e-07 -9.695092e-07 5.401018e-28)
(2.436155e-07 -2.2478e-06 7.746763e-28)
(-2.29957e-06 -3.912549e-06 -5.981666e-28)
(-7.665688e-06 -5.456689e-06 -1.574069e-27)
(-1.654193e-05 -5.781834e-06 -5.729687e-27)
(-3.018917e-05 -3.02486e-06 -4.388066e-27)
(1.798811e-07 -5.861436e-07 0)
(2.38927e-06 -1.891722e-06 -6.860452e-28)
(2.870654e-06 -4.296304e-06 -8.785968e-28)
(6.005075e-07 -7.592697e-06 3.752258e-28)
(-5.416824e-06 -1.094601e-05 1.333852e-27)
(-1.623341e-05 -1.275033e-05 -1.288678e-27)
(-3.332732e-05 -1.125889e-05 0)
(1.402233e-06 -7.793514e-07 -2.944145e-28)
(5.095191e-06 -2.935207e-06 -1.709421e-27)
(6.987294e-06 -6.709972e-06 -2.12209e-27)
(5.560243e-06 -1.222593e-05 -3.314911e-27)
(-5.033386e-07 -1.812618e-05 1.521632e-27)
(-1.305959e-05 -2.28869e-05 -6.41087e-27)
(-3.571316e-05 -2.495619e-05 -2.853092e-27)
(2.998565e-06 -8.012911e-07 -2.605412e-28)
(8.736869e-06 -3.642838e-06 -9.597525e-29)
(1.276458e-05 -9.502904e-06 0)
(1.378238e-05 -1.731981e-05 3.477683e-28)
(9.099918e-06 -2.73086e-05 -7.123218e-27)
(-5.936662e-06 -3.940984e-05 -5.846888e-27)
(-4.250865e-05 -5.791521e-05 -3.621234e-27)
(4.26614e-06 -6.584457e-07 2.124518e-28)
(1.291276e-05 -3.792509e-06 2.23419e-28)
(2.129909e-05 -1.112773e-05 4.594108e-28)
(2.701979e-05 -2.302536e-05 -1.253625e-27)
(2.382973e-05 -3.957243e-05 -8.549296e-27)
(-1.479006e-06 -7.147544e-05 -1.631531e-26)
(-6.434198e-05 -0.000125046 -4.696394e-30)
(4.171507e-06 -2.312667e-07 3.877252e-28)
(1.751376e-05 -2.804355e-06 0)
(3.30604e-05 -1.145478e-05 1.156393e-27)
(4.593315e-05 -2.822325e-05 2.00359e-27)
(3.927057e-05 -6.42113e-05 1.376685e-26)
(-8.981302e-06 -0.0001288866 -2.471119e-26)
(-0.0001009369 -0.0002287188 1.446175e-26)
(2.042264e-06 9.964721e-07 0)
(2.278361e-05 -2.937671e-07 7.106241e-28)
(4.795275e-05 -1.057335e-05 1.481369e-27)
(6.399908e-05 -3.980747e-05 4.102052e-30)
(4.42328e-05 -0.0001067756 -3.470616e-30)
(-2.506783e-05 -0.0002161544 -5.871489e-26)
(-0.0001454347 -0.0003515533 -1.040687e-25)
(-2.801458e-06 2.580998e-06 0)
(2.925132e-05 2.576071e-06 3.706206e-32)
(6.299612e-05 -1.412647e-05 4.097529e-27)
(7.037938e-05 -6.669698e-05 4.345076e-29)
(3.25759e-05 -0.0001705537 -1.26795e-26)
(-5.402904e-05 -0.0003167613 2.517291e-26)
(-0.0001833598 -0.0004968827 -4.624305e-28)
(-1.027486e-05 4.644912e-06 3.988838e-27)
(3.619844e-05 3.462476e-06 -3.5495e-28)
(7.108296e-05 -3.054275e-05 -1.463048e-27)
(6.220235e-05 -0.0001159897 -1.287251e-29)
(2.552476e-06 -0.0002503841 -1.813638e-30)
(-9.811874e-05 -0.0004288165 5.840896e-26)
(-0.0002346823 -0.0006344363 -1.459054e-26)
(-1.929109e-05 7.362985e-06 6.297091e-27)
(3.967439e-05 -2.5842e-06 -7.497348e-27)
(6.554688e-05 -6.350829e-05 4.162789e-27)
(3.824818e-05 -0.0001813532 7.18828e-27)
(-3.485656e-05 -0.0003536533 -1.855812e-29)
(-0.0001466095 -0.0005577852 -4.084913e-26)
(-0.000292499 -0.000792559 -1.356859e-25)
(-2.790632e-05 8.247705e-06 9.732996e-31)
(3.471014e-05 -2.036879e-05 -2.374509e-26)
(4.510875e-05 -0.0001110081 -1.858348e-26)
(5.338754e-06 -0.0002595069 1.373895e-26)
(-7.638767e-05 -0.0004591838 1.407247e-26)
(-0.0001895341 -0.0006997857 -5.424115e-26)
(-0.0003229145 -0.0009954369 5.754035e-26)
(-3.478217e-05 4.559377e-06 2.885882e-28)
(2.07615e-05 -5.066782e-05 -2.649328e-26)
(1.668548e-05 -0.0001694674 1.575138e-28)
(-2.777003e-05 -0.000347928 2.629929e-26)
(-0.0001082027 -0.0005754422 2.997812e-29)
(-0.0002050452 -0.0008620071 -4.709267e-26)
(-0.000299884 -0.001265872 1.089931e-25)
(-4.166965e-05 -6.88394e-06 7.484649e-27)
(2.339932e-06 -9.290323e-05 -9.395347e-28)
(-7.426048e-06 -0.000234361 2.870304e-26)
(-5.101287e-05 -0.0004404604 1.467954e-26)
(-0.0001199977 -0.000693395 1.098902e-29)
(-0.0001771108 -0.001051712 2.723827e-29)
(-0.0001881257 -0.001552889 4.39892e-26)
(-5.084666e-05 -2.39731e-05 5.965334e-27)
(-1.60156e-05 -0.0001373852 1.81746e-30)
(-2.347609e-05 -0.0003098273 -2.042657e-29)
(-6.322966e-05 -0.000534893 8.894748e-26)
(-0.0001103989 -0.0008193366 2.60556e-25)
(-0.0001201215 -0.001250596 3.741767e-25)
(-6.688557e-05 -0.001743565 9.213929e-26)
(-5.722573e-05 -4.385785e-05 -2.190902e-30)
(-3.026013e-05 -0.0001810633 3.81316e-30)
(-3.478074e-05 -0.0003721749 3.61878e-32)
(-6.494721e-05 -0.0006167987 -2.126752e-29)
(-8.757376e-05 -0.0009358149 2.637376e-26)
(-6.585876e-05 -0.001393691 3.232551e-26)
(-1.39198e-06 -0.00186173 -4.683386e-26)
(-5.39732e-05 -6.17206e-05 -1.026571e-30)
(-3.52133e-05 -0.0002202325 1.646559e-27)
(-3.634774e-05 -0.0004279035 -3.769316e-27)
(-5.265235e-05 -0.0006855547 2.62352e-32)
(-5.734279e-05 -0.001030229 3.075059e-26)
(-2.932057e-05 -0.001498487 6.728464e-28)
(1.730558e-05 -0.001944561 3.3596e-28)
(-4.075859e-05 -7.400772e-05 2.841312e-28)
(-3.015941e-05 -0.0002475441 -2.694316e-27)
(-2.883598e-05 -0.0004666009 -4.642586e-27)
(-3.31139e-05 -0.0007332002 5.574197e-27)
(-2.693518e-05 -0.001091184 6.666734e-27)
(-8.812555e-06 -0.001560267 -4.554562e-28)
(4.183136e-06 -0.002000292 -3.025267e-28)
(-2.495623e-05 -8.092654e-05 9.249328e-29)
(-2.133568e-05 -0.0002610444 -3.823016e-27)
(-1.778906e-05 -0.000483358 3.018388e-27)
(-1.143208e-05 -0.0007525665 -6.391123e-27)
(2.668196e-06 -0.001110753 2.188885e-26)
(1.233173e-05 -0.00157897 4.649794e-26)
(-3.657986e-07 -0.002035511 4.606358e-26)
(-9.130856e-06 -8.048129e-05 1.106829e-29)
(-1.07528e-05 -0.0002574183 -3.508504e-27)
(-4.90599e-06 -0.0004742343 4.251314e-29)
(1.143758e-05 -0.0007381261 -7.689387e-27)
(3.567838e-05 -0.001082798 1.74253e-27)
(5.189653e-05 -0.001544356 4.727915e-26)
(4.6642e-05 -0.002014595 6.992839e-26)
(5.961303e-06 -7.179261e-05 -4.69189e-31)
(-3.383871e-06 -0.0002349792 -2.2968e-30)
(2.308049e-06 -0.0004375207 5.810695e-27)
(2.643411e-05 -0.000686602 1.116012e-26)
(6.321646e-05 -0.001000332 -3.965506e-27)
(9.436593e-05 -0.001431179 8.996457e-27)
(0.0001090593 -0.001876603 -1.51598e-26)
(1.435459e-05 -5.863895e-05 2.360317e-27)
(-7.591022e-06 -0.0002003106 -1.516504e-27)
(-6.236992e-06 -0.0003813176 5.121174e-27)
(2.071399e-05 -0.0006086542 -1.176824e-26)
(6.674516e-05 -0.0008820839 -3.050965e-26)
(0.0001071657 -0.001261812 1.331782e-27)
(0.0001294118 -0.001670957 2.920082e-26)
(1.273545e-05 -4.272093e-05 3.243902e-27)
(-2.396713e-05 -0.0001588073 4.801502e-27)
(-3.012815e-05 -0.0003148955 1.221222e-26)
(-3.92583e-06 -0.0005163241 -9.156666e-27)
(4.581916e-05 -0.0007520882 -1.307447e-26)
(9.308122e-05 -0.001062608 4.258937e-26)
(0.0001187043 -0.001433007 4.497736e-26)
(5.533655e-06 -2.610915e-05 3.317239e-27)
(-4.522264e-05 -0.0001165119 9.211473e-27)
(-5.99684e-05 -0.0002491221 -1.852109e-26)
(-3.964179e-05 -0.0004196457 -7.15079e-26)
(3.883484e-06 -0.0006271524 -1.36627e-26)
(4.974644e-05 -0.0008774325 1.757919e-28)
(6.416915e-05 -0.001180377 1.28972e-25)
(-1.940621e-06 -1.103377e-05 4.441038e-27)
(-6.62134e-05 -7.429877e-05 2.173547e-27)
(-8.962758e-05 -0.0001806964 1.380037e-26)
(-8.226726e-05 -0.0003335631 -1.08418e-26)
(-4.908282e-05 -0.0005235994 -1.254871e-26)
(-8.876063e-06 -0.0007458992 2.422914e-27)
(3.072515e-06 -0.001011002 5.904038e-28)
(-7.861067e-06 -4.13082e-07 2.953194e-30)
(-8.236125e-05 -4.072563e-05 -1.43167e-26)
(-0.0001201848 -0.0001341915 2.887561e-27)
(-0.0001226012 -0.0002714104 1.718128e-26)
(-9.615541e-05 -0.0004464336 -2.388246e-26)
(-5.474672e-05 -0.0006534399 -3.122211e-26)
(-2.087604e-05 -0.0009012527 -3.747738e-26)
(-1.315193e-05 3.068848e-06 1.383728e-32)
(-8.863308e-05 -2.077926e-05 -1.11236e-26)
(-0.0001370914 -9.73598e-05 -4.76937e-27)
(-0.0001461574 -0.0002196905 -7.842748e-27)
(-0.0001202078 -0.000381067 -2.032706e-30)
(-7.111958e-05 -0.000575536 -2.842873e-26)
(-9.29377e-06 -0.0008095511 6.510028e-28)
(-1.694573e-05 1.979462e-06 1.99726e-27)
(-8.249122e-05 -1.158015e-05 -3.270744e-27)
(-0.0001344467 -6.856996e-05 9.504883e-32)
(-0.0001485179 -0.0001723578 -5.937705e-30)
(-0.0001234725 -0.0003206662 3.081081e-29)
(-6.594034e-05 -0.0005001832 8.441548e-26)
(2.081253e-05 -0.0007108967 1.378443e-25)
(-1.823992e-05 -3.810196e-07 6.222414e-28)
(-6.672234e-05 -9.516748e-06 -9.718203e-28)
(-0.000115313 -4.75854e-05 -1.427085e-27)
(-0.0001346331 -0.0001301281 -1.579451e-34)
(-0.0001132065 -0.0002534541 -1.495193e-26)
(-5.082174e-05 -0.0004133469 2.242991e-29)
(4.965288e-05 -0.0005942076 -1.638761e-28)
(-1.661619e-05 -2.001252e-06 0)
(-4.806342e-05 -1.122069e-05 1.639232e-32)
(-8.682667e-05 -3.67311e-05 -1.155419e-29)
(-0.0001097233 -9.392253e-05 7.976357e-27)
(-9.467576e-05 -0.0001924506 1.260383e-26)
(-3.30794e-05 -0.0003183238 -2.492431e-30)
(7.151714e-05 -0.0004638327 6.605926e-26)
(-1.243319e-05 -3.15203e-06 0)
(-3.16482e-05 -1.279478e-05 -7.741931e-28)
(-5.677876e-05 -3.238818e-05 -1.68253e-27)
(-7.746596e-05 -6.966359e-05 3.745689e-30)
(-6.844782e-05 -0.000135228 8.756763e-27)
(-1.621515e-05 -0.0002268694 -3.488185e-30)
(8.041266e-05 -0.0003279323 1.088763e-25)
(-6.455614e-06 -3.550984e-06 1.704416e-28)
(-1.811268e-05 -1.307237e-05 0)
(-3.143496e-05 -2.891889e-05 0)
(-4.328295e-05 -5.311206e-05 -4.555833e-27)
(-3.958592e-05 -9.196828e-05 -2.227592e-26)
(-2.038975e-06 -0.0001472984 6.636045e-30)
(7.204328e-05 -0.0002149761 8.456695e-26)
(5.260863e-07 -3.395179e-06 7.462902e-28)
(-7.108556e-06 -1.166418e-05 -2.640976e-28)
(-1.303684e-05 -2.401519e-05 -5.148089e-28)
(-1.60763e-05 -4.107008e-05 -6.967661e-27)
(-1.182554e-05 -6.169907e-05 -2.322264e-26)
(1.023619e-05 -9.080356e-05 -6.956589e-27)
(6.266273e-05 -0.0001255958 2.420849e-26)
(7.323727e-06 -2.923174e-06 0)
(2.186841e-06 -9.537264e-06 -1.624512e-27)
(-1.702576e-07 -1.856695e-05 0)
(1.48169e-06 -2.948559e-05 -1.278397e-27)
(8.228971e-06 -4.223877e-05 -1.838039e-27)
(2.379924e-05 -5.525937e-05 7.894285e-30)
(5.654205e-05 -6.764362e-05 -5.141319e-31)
(1.286352e-05 -2.240579e-06 0)
(9.447976e-06 -7.044603e-06 2.103032e-27)
(8.755932e-06 -1.286716e-05 -2.627087e-27)
(1.197811e-05 -2.000591e-05 0)
(1.992222e-05 -2.748071e-05 -2.663756e-27)
(3.37536e-05 -3.320293e-05 -1.39417e-26)
(5.529579e-05 -3.544296e-05 2.947953e-29)
(1.669509e-05 -1.470572e-06 0)
(1.452636e-05 -4.416368e-06 6.944944e-27)
(1.479555e-05 -8.065599e-06 -8.391419e-30)
(1.831232e-05 -1.213468e-05 5.660343e-27)
(2.581619e-05 -1.581599e-05 -1.893845e-27)
(3.765426e-05 -1.807359e-05 -6.094829e-27)
(5.482965e-05 -1.696567e-05 -1.186964e-26)
(1.883199e-05 -7.215568e-07 -2.187843e-27)
(1.756626e-05 -2.151985e-06 2.282712e-27)
(1.840389e-05 -3.995157e-06 4.217286e-30)
(2.183655e-05 -5.780012e-06 7.03272e-27)
(2.827942e-05 -7.016009e-06 0)
(3.80772e-05 -6.859078e-06 0)
(5.251205e-05 -3.521842e-06 1.526909e-26)
(1.95451e-05 -1.299406e-07 -2.202339e-27)
(1.889682e-05 -3.269749e-07 2.299539e-27)
(2.000567e-05 -7.874437e-07 -2.632281e-27)
(2.320942e-05 -1.012835e-06 -3.087334e-27)
(2.865339e-05 -5.659901e-07 0)
(3.660624e-05 1.227307e-06 0)
(4.805637e-05 5.620134e-06 4.513833e-27)
(1.917281e-05 2.982491e-07 2.097363e-27)
(1.893212e-05 1.009145e-06 2.095655e-27)
(2.013402e-05 1.566033e-06 -9.167919e-29)
(2.295972e-05 2.392622e-06 -2.881959e-27)
(2.754649e-05 3.924811e-06 1.017691e-27)
(3.425569e-05 6.855385e-06 8.669883e-27)
(4.244954e-05 1.170366e-05 -4.685813e-27)
(1.806068e-05 5.726154e-07 1.936191e-27)
(1.80781e-05 1.880927e-06 -1.797802e-29)
(1.923436e-05 3.086809e-06 6.173637e-29)
(2.166329e-05 4.581167e-06 8.435923e-29)
(2.548281e-05 6.757038e-06 0)
(3.070988e-05 1.005612e-05 2.912857e-27)
(3.677557e-05 1.482247e-05 -3.478162e-27)
(1.64953e-05 7.245277e-07 0)
(1.666781e-05 2.36302e-06 -2.480979e-29)
(1.772522e-05 3.937068e-06 -4.060855e-29)
(1.976796e-05 5.808378e-06 -3.62697e-27)
(2.29359e-05 8.243864e-06 5.932842e-28)
(2.684286e-05 1.15361e-05 -5.16329e-27)
(3.141167e-05 1.591084e-05 -2.855118e-27)
(1.471145e-05 7.822234e-07 -2.99282e-30)
(1.4966e-05 2.56256e-06 -8.016672e-30)
(1.591229e-05 4.291005e-06 0)
(1.765615e-05 6.307863e-06 -5.574719e-31)
(2.010226e-05 8.767155e-06 -1.893821e-27)
(2.314357e-05 1.183639e-05 -2.044829e-27)
(2.658615e-05 1.572304e-05 -4.132305e-29)
(1.287206e-05 7.778982e-07 -1.345985e-27)
(1.31607e-05 2.569283e-06 1.349616e-27)
(1.398134e-05 4.328096e-06 -2.919749e-27)
(1.543981e-05 6.303258e-06 2.837745e-27)
(1.737661e-05 8.640079e-06 -1.586578e-27)
(1.976352e-05 1.143411e-05 0)
(2.237817e-05 1.483311e-05 1.070868e-29)
(1.108349e-05 7.368254e-07 -1.150402e-27)
(1.136983e-05 2.468642e-06 1.164609e-27)
(1.210432e-05 4.145744e-06 -1.190281e-27)
(1.327619e-05 6.029346e-06 0)
(1.485311e-05 8.16728e-06 1.28734e-27)
(1.673991e-05 1.06664e-05 0)
(1.875271e-05 1.361767e-05 -1.393053e-27)
(9.410253e-06 6.738216e-07 0)
(9.688543e-06 2.290313e-06 0)
(1.030057e-05 3.860532e-06 1.989317e-27)
(1.127224e-05 5.585841e-06 0)
(1.256147e-05 7.518921e-06 2.109413e-27)
(1.406838e-05 9.735865e-06 1.087965e-27)
(1.563545e-05 1.230139e-05 -1.110591e-27)
(7.874992e-06 6.099437e-07 8.127201e-28)
(8.128422e-06 2.086304e-06 0)
(8.644856e-06 3.516014e-06 8.245275e-28)
(9.454363e-06 5.078267e-06 -8.379161e-28)
(1.051097e-05 6.808212e-06 8.583739e-28)
(1.172697e-05 8.759718e-06 1.751887e-27)
(1.296996e-05 1.097882e-05 8.833776e-28)
(6.496666e-06 5.383761e-07 6.693459e-28)
(6.710804e-06 1.885621e-06 6.684638e-28)
(7.149048e-06 3.166283e-06 0)
(7.82309e-06 4.565657e-06 -6.813789e-28)
(8.694446e-06 6.100835e-06 -1.670142e-30)
(9.686324e-06 7.808989e-06 1.404422e-27)
(1.068845e-05 9.715301e-06 2.821931e-29)
(5.25998e-06 4.729828e-07 5.411732e-28)
(5.439805e-06 1.690074e-06 5.388271e-28)
(5.808285e-06 2.832622e-06 -5.406378e-28)
(6.370464e-06 4.080084e-06 0)
(7.093286e-06 5.438369e-06 0)
(7.907096e-06 6.94116e-06 5.515232e-28)
(8.708874e-06 8.625753e-06 -5.917839e-28)
(4.157395e-06 4.131494e-07 4.275072e-28)
(4.305224e-06 1.511244e-06 4.245189e-28)
(4.613152e-06 2.526867e-06 -4.24346e-28)
(5.083157e-06 3.635676e-06 0)
(5.68589e-06 4.834693e-06 -3.682686e-30)
(6.361333e-06 6.148801e-06 -5.624037e-32)
(7.037903e-06 7.605747e-06 8.07063e-30)
(3.173983e-06 3.597068e-07 0)
(3.293652e-06 1.351073e-06 3.230781e-28)
(3.550216e-06 2.253304e-06 -3.217969e-28)
(3.944684e-06 3.237438e-06 0)
(4.450543e-06 4.294728e-06 3.242796e-28)
(5.016203e-06 5.443293e-06 1.055494e-29)
(5.579168e-06 6.704135e-06 6.699216e-30)
(2.295853e-06 3.127867e-07 -2.36551e-28)
(2.391367e-06 1.209897e-06 1.207031e-31)
(2.60522e-06 2.011663e-06 -2.304176e-28)
(2.937979e-06 2.88576e-06 1.532266e-30)
(3.366607e-06 3.818663e-06 1.959359e-30)
(3.846657e-06 4.824264e-06 2.219552e-28)
(4.32369e-06 5.916993e-06 0)
(1.510033e-06 2.718509e-07 -3.124293e-28)
(1.584946e-06 1.086648e-06 0)
(1.763713e-06 1.800292e-06 0)
(2.04647e-06 2.578244e-06 -1.495696e-28)
(2.411964e-06 3.404704e-06 -2.919838e-28)
(2.817786e-06 4.295736e-06 1.390564e-28)
(3.237804e-06 5.237169e-06 0)
(8.047425e-07 2.362264e-07 -8.42671e-29)
(8.624342e-07 9.792044e-07 1.920463e-31)
(1.012617e-06 1.615944e-06 5.491048e-31)
(1.255773e-06 2.310032e-06 1.704098e-30)
(1.57381e-06 3.042223e-06 -7.067698e-29)
(1.937967e-06 3.825728e-06 0)
(2.297184e-06 4.655586e-06 5.834765e-29)
(1.693386e-07 2.053025e-07 -3.293848e-32)
(2.127644e-07 8.857356e-07 1.644884e-29)
(3.401982e-07 1.455352e-06 1.411e-29)
(5.520352e-07 2.076297e-06 2.248202e-29)
(8.324828e-07 2.726596e-06 0)
(1.155422e-06 3.417659e-06 3.745049e-30)
(1.47782e-06 4.145077e-06 -2.133847e-32)
(-4.054842e-07 1.785107e-07 -3.875233e-29)
(-3.736693e-07 8.04766e-07 -8.405296e-29)
(-2.637386e-07 1.316097e-06 -8.823838e-29)
(-7.573291e-08 1.873603e-06 -4.448961e-29)
(1.766247e-07 2.453369e-06 1.882998e-30)
(4.688432e-07 3.064469e-06 -5.164136e-29)
(7.663014e-07 3.703609e-06 5.577291e-29)
(-9.28135e-07 1.555515e-07 -9.171883e-29)
(-9.055322e-07 7.353494e-07 -1.896134e-28)
(-8.087898e-07 1.196632e-06 -9.672401e-29)
(-6.393747e-07 1.700153e-06 0)
(-4.129546e-07 2.222587e-06 1.698176e-29)
(-1.382298e-07 2.761659e-06 1.635794e-29)
(1.433327e-07 3.322199e-06 1.24874e-30)
(-1.406265e-06 1.360747e-07 -1.400608e-28)
(-1.390606e-06 6.763052e-07 -1.430207e-28)
(-1.302742e-06 1.094532e-06 -2.284962e-30)
(-1.144441e-06 1.55064e-06 -2.080195e-30)
(-9.263667e-07 2.019294e-06 0)
(-6.703068e-07 2.501968e-06 -1.440096e-28)
(-4.014957e-07 2.992303e-06 -6.344914e-31)
(-1.84688e-06 1.198231e-07 -1.844669e-28)
(-1.835916e-06 6.267674e-07 -1.87136e-28)
(-1.753057e-06 1.008037e-06 -1.741955e-30)
(-1.601251e-06 1.422849e-06 -1.175518e-30)
(-1.391799e-06 1.844572e-06 0)
(-1.144391e-06 2.274813e-06 -1.846031e-28)
(-8.808619e-07 2.70707e-06 -1.642274e-30)
(-2.256586e-06 1.066915e-07 -1.696361e-32)
(-2.247826e-06 5.863348e-07 -4.557426e-28)
(-2.165717e-06 9.364281e-07 -1.020979e-30)
(-2.014813e-06 1.315627e-06 -1.361987e-30)
(-1.807274e-06 1.695648e-06 0)
(-1.561775e-06 2.078411e-06 0)
(-1.300186e-06 2.458679e-06 0)
(-2.641781e-06 9.662694e-08 0)
(-2.632232e-06 5.547505e-07 -2.659616e-28)
(-2.545914e-06 8.787318e-07 0)
(-2.390039e-06 1.226969e-06 2.638045e-28)
(-2.178005e-06 1.569558e-06 3.377438e-30)
(-1.92919e-06 1.908511e-06 2.900048e-30)
(-1.665315e-06 2.240472e-06 2.420608e-28)
(-3.0091e-06 8.974312e-08 -3.013383e-28)
(-2.995106e-06 5.3235e-07 0)
(-2.899727e-06 8.356211e-07 -2.943033e-30)
(-2.736675e-06 1.15758e-06 3.236602e-28)
(-2.508892e-06 1.464681e-06 -2.494662e-28)
(-2.250448e-06 1.760078e-06 0)
(-1.979787e-06 2.045448e-06 2.652714e-28)
(-3.365298e-06 8.612835e-08 -3.371383e-28)
(-3.341602e-06 5.188676e-07 0)
(-3.228629e-06 8.05047e-07 -1.776669e-30)
(-3.041453e-06 1.101106e-06 -2.308436e-30)
(-2.797302e-06 1.374847e-06 -6.265988e-28)
(-2.525133e-06 1.627513e-06 3.00355e-28)
(-2.244672e-06 1.866686e-06 -2.871432e-28)
(-3.717442e-06 8.607843e-08 0)
(-3.677115e-06 5.147083e-07 -3.729567e-28)
(-3.537617e-06 7.867319e-07 -2.168153e-30)
(-3.320706e-06 1.05786e-06 3.543898e-28)
(-3.049235e-06 1.296666e-06 -3.390427e-28)
(-2.754799e-06 1.506205e-06 3.226276e-28)
(-2.459929e-06 1.697224e-06 -4.689554e-32)
(-4.073462e-06 9.022469e-08 0)
(-4.006427e-06 5.210511e-07 -4.063344e-28)
(-3.827281e-06 7.813913e-07 3.96461e-28)
(-3.567307e-06 1.026096e-06 3.789738e-28)
(-3.257532e-06 1.225948e-06 -3.661979e-28)
(-2.934955e-06 1.388313e-06 -7.07637e-30)
(-2.623027e-06 1.527822e-06 3.22191e-28)
(-4.442899e-06 9.948214e-08 0)
(-4.334367e-06 5.39389e-07 0)
(-4.097421e-06 7.887312e-07 4.281442e-28)
(-3.777774e-06 1.002629e-06 -4.091156e-28)
(-3.417834e-06 1.156681e-06 -1.086461e-31)
(-3.060888e-06 1.265139e-06 0)
(-2.730516e-06 1.348029e-06 0)
(-4.837804e-06 1.151299e-07 -4.870726e-28)
(-4.665088e-06 5.714548e-07 4.796479e-28)
(-4.344587e-06 8.077351e-07 2.342383e-28)
(-3.944314e-06 9.820059e-07 -4.299267e-28)
(-3.521483e-06 1.079403e-06 1.301833e-31)
(-3.125548e-06 1.124729e-06 -1.057669e-29)
(-2.778106e-06 1.144931e-06 6.991367e-33)