/*--------------------------------*- C++ -*----------------------------------*\
| =========                 |                                                 |
| \\      /  F ield         | OpenFOAM: The Open Source CFD Toolbox           |
|  \\    /   O peration     | Version:  2206                                  |
|   \\  /    A nd           | Website:  www.openfoam.com                      |
|    \\/     M anipulation  |                                                 |
\*---------------------------------------------------------------------------*/
FoamFile
{
    version     2.0;
    format      ascii;
    arch        "LSB;label=32;scalar=64";
    class       volVectorField;
    location    "2";
    object      U.a;
}
// * * * * * * * * * * * * * * * * * * * * * * * * * * * * * * * * * * * * * //

dimensions      [0 1 -1 0 0 0 0];

internalField   nonuniform List<vector> 
13078
(
(6.289289e-06 -9.068981e-05 1.524768e-27)
(9.042597e-07 -4.667771e-05 1.124281e-32)
(-1.583709e-08 -2.786744e-05 -4.22059e-29)
(-1.513837e-07 -1.837052e-05 0)
(-2.015348e-07 -1.381971e-05 -1.14999e-29)
(-2.338144e-07 -1.076857e-05 -1.153808e-29)
(-2.554381e-07 -8.48699e-06 -1.156077e-29)
(-3.55506e-05 -3.886161e-05 0)
(-1.850715e-05 -3.223655e-05 -1.725884e-32)
(-6.870758e-06 -2.232e-05 0)
(-3.080908e-06 -1.660257e-05 0)
(-1.763571e-06 -1.305161e-05 1.089331e-33)
(-1.162409e-06 -1.038602e-05 6.575641e-34)
(-8.581057e-07 -8.267995e-06 1.534987e-33)
(-1.234942e-05 -1.032142e-05 1.527391e-31)
(-1.086379e-05 -1.566396e-05 4.893771e-31)
(-6.739224e-06 -1.518021e-05 1.256818e-29)
(-4.068794e-06 -1.331005e-05 2.306774e-29)
(-2.602119e-06 -1.122857e-05 1.152751e-29)
(-1.787872e-06 -9.311654e-06 0)
(-1.320294e-06 -7.590626e-06 -6.582457e-35)
(-3.685184e-06 -3.814198e-06 -3.044337e-31)
(-5.592364e-06 -8.242053e-06 1.094862e-30)
(-4.937663e-06 -1.001681e-05 2.503231e-30)
(-3.73598e-06 -9.98059e-06 1.554228e-30)
(-2.734481e-06 -9.091155e-06 -8.580047e-34)
(-2.040511e-06 -7.90245e-06 0)
(-1.580458e-06 -6.629493e-06 -1.315284e-33)
(-1.443764e-06 -2.07615e-06 -2.950827e-31)
(-3.022229e-06 -4.872641e-06 -4.687504e-31)
(-3.319964e-06 -6.627604e-06 1.090658e-30)
(-2.979858e-06 -7.250447e-06 2.053155e-31)
(-2.481027e-06 -7.091667e-06 -1.400714e-29)
(-2.020066e-06 -6.450485e-06 -2.032788e-35)
(-1.662208e-06 -5.559139e-06 1.158704e-29)
(-6.479766e-07 -1.343544e-06 0)
(-1.70094e-06 -3.117862e-06 7.397964e-31)
(-2.194721e-06 -4.511626e-06 -7.453442e-31)
(-2.248965e-06 -5.244196e-06 8.568555e-31)
(-2.085286e-06 -5.395817e-06 1.491285e-30)
(-1.852578e-06 -5.112281e-06 -1.170337e-29)
(-1.623514e-06 -4.5051e-06 -2.322258e-29)
(-3.367704e-07 -9.816164e-07 0)
(-1.015669e-06 -2.139162e-06 7.721449e-31)
(-1.46887e-06 -3.17114e-06 -1.109831e-29)
(-1.670194e-06 -3.8168e-06 -1.194997e-29)
(-1.69707e-06 -4.057236e-06 2.358166e-30)
(-1.628008e-06 -3.938585e-06 1.475668e-30)
(-1.521202e-06 -3.529293e-06 0)
(-1.982237e-07 -7.757602e-07 -1.314192e-30)
(-6.477254e-07 -1.548369e-06 7.96398e-31)
(-1.016881e-06 -2.294531e-06 8.302417e-31)
(-1.256686e-06 -2.805672e-06 0)
(-1.375639e-06 -3.028103e-06 1.852355e-30)
(-1.409627e-06 -2.96208e-06 1.478952e-30)
(-1.39525e-06 -2.645607e-06 1.475826e-30)
(-1.28362e-07 -6.454606e-07 3.231708e-32)
(-4.402611e-07 -1.163809e-06 -1.70471e-30)
(-7.337723e-07 -1.699625e-06 6.181278e-31)
(-9.681376e-07 -2.073214e-06 1.499821e-30)
(-1.128698e-06 -2.233853e-06 5.225915e-30)
(-1.224879e-06 -2.163882e-06 1.479731e-30)
(-1.275644e-06 -1.877969e-06 0)
(-8.985572e-08 -5.559036e-07 1.412189e-30)
(-3.182196e-07 -8.961549e-07 -1.733093e-30)
(-5.549886e-07 -1.273279e-06 -8.728188e-31)
(-7.716202e-07 -1.525444e-06 2.398745e-30)
(-9.484671e-07 -1.611347e-06 -3.849019e-32)
(-1.081414e-06 -1.508632e-06 0)
(-1.177526e-06 -1.219481e-06 0)
(-6.721442e-08 -4.902502e-07 0)
(-2.440936e-07 -6.988313e-07 0)
(-4.411733e-07 -9.528549e-07 -1.84019e-30)
(-6.401203e-07 -1.101571e-06 2.407515e-30)
(-8.225496e-07 -1.112439e-06 3.990818e-32)
(-9.780862e-07 -9.63783e-07 0)
(-1.106453e-06 -6.51634e-07 0)
(-5.34542e-08 -4.396063e-07 0)
(-1.98117e-07 -5.458691e-07 1.89743e-30)
(-3.687776e-07 -7.010565e-07 -1.852158e-30)
(-5.544575e-07 -7.617295e-07 -4.020461e-30)
(-7.393176e-07 -7.018403e-07 4.845946e-31)
(-9.104387e-07 -5.021856e-07 0)
(-1.063274e-06 -1.561137e-07 1.051729e-30)
(-4.503536e-08 -3.984439e-07 0)
(-1.695547e-07 -4.215967e-07 4.314486e-31)
(-3.237171e-07 -4.9487e-07 -1.481998e-30)
(-5.01546e-07 -4.793951e-07 -2.524454e-30)
(-6.89445e-07 -3.539652e-07 2.0601e-30)
(-8.734239e-07 -1.022065e-07 -1.980707e-30)
(-1.046754e-06 2.83576e-07 3.842113e-32)
(-3.994499e-08 -3.635471e-07 1.647282e-30)
(-1.524007e-07 -3.163178e-07 0)
(-2.972865e-07 -3.191873e-07 -1.48151e-30)
(-4.724079e-07 -2.363632e-07 -1.503245e-30)
(-6.657279e-07 -5.02111e-08 4.209106e-30)
(-8.62359e-07 2.531969e-07 -1.980771e-30)
(-1.054803e-06 6.816481e-07 1.941023e-30)
(-3.706682e-08 -3.327182e-07 1.65155e-30)
(-1.429465e-07 -2.235186e-07 0)
(-2.834431e-07 -1.638111e-07 -2.957841e-30)
(-4.56647e-07 -1.992926e-08 1.88862e-29)
(-6.571111e-07 2.229573e-07 2.62264e-29)
(-8.722933e-07 5.776436e-07 0)
(-1.085228e-06 1.050282e-06 -2.020899e-30)
(-3.573287e-08 -3.044263e-07 0)
(-1.393522e-07 -1.385369e-07 2.118461e-30)
(-2.811017e-07 -2.122107e-08 0)
(-4.61235e-07 1.786898e-07 9.031493e-31)
(-6.731674e-07 4.75014e-07 3.01837e-30)
(-9.037669e-07 8.816828e-07 2.975489e-30)
(-1.137023e-06 1.39977e-06 9.400756e-31)
(-3.546379e-08 -2.774547e-07 0)
(-1.397668e-07 -5.774726e-08 4.290591e-30)
(-2.856292e-07 1.144324e-07 -1.473793e-30)
(-4.745292e-07 3.685313e-07 -1.480849e-30)
(-7.016753e-07 7.179753e-07 0)
(-9.522169e-07 1.175307e-06 0)
(-1.208398e-06 1.73961e-06 0)
(-3.60514e-08 -2.509058e-07 2.411977e-30)
(-1.434976e-07 2.170602e-08 1.433099e-30)
(-2.964895e-07 2.479467e-07 -2.945799e-30)
(-4.977358e-07 5.556673e-07 -1.480156e-30)
(-7.433851e-07 9.583332e-07 0)
(-1.01705e-06 1.466832e-06 -7.104039e-31)
(-1.298768e-06 2.078564e-06 -5.918828e-30)
(-3.736522e-08 -2.238603e-07 2.406577e-30)
(-1.500992e-07 1.024935e-07 1.545191e-30)
(-3.130399e-07 3.837293e-07 -4.415815e-30)
(-5.299719e-07 7.461465e-07 -2.95884e-30)
(-7.976647e-07 1.203086e-06 0)
(-1.098077e-06 1.764142e-06 2.269971e-30)
(-1.408329e-06 2.425276e-06 -2.95988e-30)
(-3.93843e-08 -1.954466e-07 1.91469e-30)
(-1.594796e-07 1.872708e-07 4.609498e-30)
(-3.350998e-07 5.261402e-07 2.267109e-30)
(-5.703315e-07 9.458204e-07 0)
(-8.582421e-07 1.457306e-06 2.403562e-29)
(-1.187823e-06 2.072198e-06 3.019121e-29)
(-1.53689e-06 2.788642e-06 5.9391e-30)
(-4.217165e-08 -1.646208e-07 1.321836e-30)
(-1.720452e-07 2.79033e-07 5.451301e-30)
(-3.638378e-07 6.800368e-07 6.048159e-30)
(-6.229997e-07 1.161273e-06 5.199159e-30)
(-9.41834e-07 1.729686e-06 2.967795e-30)
(-1.30659e-06 2.402838e-06 3.377216e-30)
(-1.691547e-06 3.17899e-06 -5.356872e-30)
(-4.594768e-08 -1.303607e-07 0)
(-1.883595e-07 3.810427e-07 3.846721e-30)
(-3.998156e-07 8.509844e-07 3.778229e-30)
(-6.866247e-07 1.400334e-06 4.560989e-30)
(-1.03969e-06 2.035139e-06 0)
(-1.445708e-06 2.77302e-06 3.375648e-30)
(-1.873324e-06 3.609605e-06 6.059719e-32)
(-5.100904e-08 -9.136746e-08 -2.050798e-30)
(-2.092672e-07 4.970575e-07 0)
(-4.447947e-07 1.04516e-06 0)
(-7.646158e-07 1.671689e-06 2.870901e-30)
(-1.15829e-06 2.381526e-06 5.661417e-31)
(-1.611709e-06 3.191488e-06 0)
(-2.08866e-06 4.094769e-06 2.452608e-30)
(-5.765172e-08 -4.614145e-08 -4.132972e-30)
(-2.359218e-07 6.314827e-07 0)
(-5.008285e-07 1.269847e-06 0)
(-8.60138e-07 1.985353e-06 -5.28918e-30)
(-1.300977e-06 2.7814e-06 -7.703823e-30)
(-1.801071e-06 3.668255e-06 2.541171e-30)
(-2.334344e-06 4.645895e-06 0)
(-6.626892e-08 6.975821e-09 -2.080321e-30)
(-2.695515e-07 7.893896e-07 1.463974e-30)
(-5.703326e-07 1.533568e-06 -1.083061e-30)
(-9.774975e-07 2.353223e-06 2.931445e-30)
(-1.476969e-06 3.249655e-06 3.001574e-30)
(-2.041962e-06 4.224475e-06 2.497093e-30)
(-2.643747e-06 5.288715e-06 0)
(-7.702777e-08 6.995076e-08 0)
(-3.108286e-07 9.76506e-07 2.683214e-30)
(-6.546275e-07 1.845896e-06 -2.530153e-30)
(-1.118442e-06 2.788746e-06 0)
(-1.686472e-06 3.803862e-06 8.280533e-30)
(-2.327644e-06 4.889891e-06 1.184169e-29)
(-3.01172e-06 6.056128e-06 6.108984e-30)
(-8.99351e-08 1.449186e-07 2.244419e-30)
(-3.597799e-07 1.199201e-06 2.661753e-30)
(-7.539345e-07 2.217416e-06 -2.674711e-30)
(-1.283958e-06 3.306635e-06 0)
(-1.932494e-06 4.462796e-06 -5.862445e-30)
(-2.664426e-06 5.680906e-06 -3.861572e-35)
(-3.44677e-06 6.966091e-06 6.115586e-30)
(-1.044167e-07 2.342903e-07 2.224892e-30)
(-4.147917e-07 1.464349e-06 2.839293e-30)
(-8.660976e-07 2.659658e-06 -2.656786e-30)
(-1.471564e-06 3.922948e-06 0)
(-2.212915e-06 5.246974e-06 0)
(-3.050487e-06 6.621951e-06 2.597806e-30)
(-3.937866e-06 8.037819e-06 -5.13606e-29)
(-1.19607e-07 3.404353e-07 1.171087e-30)
(-4.725679e-07 1.779144e-06 1.363221e-30)
(-9.851055e-07 3.184661e-06 0)
(-1.673236e-06 4.654654e-06 -8.607862e-30)
(-2.519178e-06 6.178163e-06 -5.855033e-30)
(-3.481818e-06 7.739594e-06 1.111785e-29)
(-4.507667e-06 9.313814e-06 1.785784e-29)
(-1.30851e-07 4.650986e-07 2.304513e-30)
(-5.22281e-07 2.147728e-06 0)
(-1.098173e-06 3.804158e-06 3.557703e-32)
(-1.872318e-06 5.519011e-06 -5.677346e-30)
(-2.830155e-06 7.278773e-06 2.800008e-30)
(-3.930786e-06 9.062116e-06 5.434545e-30)
(-5.117228e-06 1.083639e-05 2.789125e-30)
(-1.378454e-07 6.057497e-07 0)
(-5.591366e-07 2.576471e-06 0)
(-1.188089e-06 4.528071e-06 6.06953e-30)
(-2.042825e-06 6.531816e-06 0)
(-3.1133e-06 8.570867e-06 5.721817e-30)
(-4.361513e-06 1.061866e-05 2.782795e-30)
(-5.728614e-06 1.26336e-05 -2.858791e-30)
(-1.329811e-07 7.707909e-07 -8.891097e-32)
(-5.581569e-07 3.065468e-06 -5.749012e-30)
(-1.216445e-06 5.355045e-06 -4.612503e-30)
(-2.143266e-06 7.704817e-06 0)
(-3.31936e-06 1.007398e-05 2.940435e-30)
(-4.718751e-06 1.243709e-05 0)
(-6.290137e-06 1.474455e-05 -1.463632e-29)
(-1.113641e-07 9.565804e-07 2.177764e-30)
(-5.061832e-07 3.610263e-06 -2.814505e-30)
(-1.152617e-06 6.281304e-06 -1.077735e-29)
(-2.105318e-06 9.030501e-06 -3.00215e-30)
(-3.375148e-06 1.179907e-05 9.192408e-30)
(-4.915979e-06 1.453927e-05 5.863032e-30)
(-6.705362e-06 1.720732e-05 -5.865887e-30)
(-6.48091e-08 1.160234e-06 1.123806e-30)
(-3.7859e-07 4.223819e-06 1.430315e-30)
(-9.594322e-07 7.308117e-06 2.825827e-30)
(-1.884764e-06 1.051356e-05 -1.510773e-29)
(-3.185837e-06 1.374643e-05 -8.414141e-30)
(-4.826864e-06 1.69329e-05 1.174747e-29)
(-6.823386e-06 2.003984e-05 2.348457e-29)
(1.546904e-08 1.375531e-06 -1.120584e-30)
(-1.421272e-07 4.8827e-06 -1.427172e-30)
(-5.745987e-07 8.443861e-06 -8.8446e-30)
(-1.361869e-06 1.21391e-05 -5.700558e-29)
(-2.570747e-06 1.588988e-05 -6.039549e-29)
(-4.258776e-06 1.960909e-05 -1.590895e-29)
(-6.422984e-06 2.32293e-05 0)
(1.404844e-07 1.594389e-06 0)
(2.451179e-07 5.569168e-06 0)
(9.280089e-08 9.658949e-06 -3.131094e-30)
(-3.97757e-07 1.388822e-05 8.223298e-30)
(-1.355121e-06 1.820901e-05 5.661979e-29)
(-2.912361e-06 2.252136e-05 4.451303e-29)
(-5.219e-06 2.672211e-05 0)
(3.260016e-07 1.811178e-06 -2.228177e-30)
(8.517568e-07 6.281032e-06 2.846116e-30)
(1.178615e-06 1.09695e-05 5.740249e-30)
(1.178925e-06 1.582575e-05 0)
(6.754558e-07 2.072342e-05 -8.020581e-30)
(-6.324981e-07 2.563689e-05 -1.24344e-29)
(-2.97304e-06 3.04043e-05 -2.530134e-29)
(5.95306e-07 2.036524e-06 5.058881e-30)
(1.77959e-06 7.054012e-06 2.84508e-30)
(2.84311e-06 1.241672e-05 3.681729e-30)
(3.557949e-06 1.794003e-05 0)
(3.647233e-06 2.343222e-05 7.716939e-30)
(2.78345e-06 2.886925e-05 -1.00268e-28)
(7.383606e-07 3.457066e-05 -1.676641e-28)
(9.751109e-07 2.305377e-06 5.053307e-30)
(3.121583e-06 7.948767e-06 6.691154e-30)
(5.190627e-06 1.401887e-05 3.760573e-30)
(6.814198e-06 2.016367e-05 -1.194712e-29)
(7.701862e-06 2.628163e-05 -2.701783e-29)
(7.690598e-06 3.283341e-05 -6.02918e-29)
(6.176501e-06 4.069362e-05 -1.027162e-28)
(1.486156e-06 2.64874e-06 0)
(4.912392e-06 8.986897e-06 -1.08158e-29)
(8.216938e-06 1.57206e-05 -4.343894e-30)
(1.10373e-05 2.255545e-05 6.833257e-30)
(1.339084e-05 2.996567e-05 -1.053262e-29)
(1.505442e-05 3.873831e-05 -2.580321e-29)
(1.446933e-05 4.923949e-05 0)
(2.127143e-06 3.074887e-06 -2.431549e-30)
(7.120285e-06 1.014752e-05 -3.226381e-29)
(1.200039e-05 1.75454e-05 -3.204327e-29)
(1.692532e-05 2.5768e-05 -1.5246e-29)
(2.225343e-05 3.548008e-05 -1.498849e-29)
(2.657845e-05 4.636669e-05 -5.682941e-29)
(2.711492e-05 5.775907e-05 5.734496e-29)
(2.917564e-06 3.610378e-06 -4.538525e-30)
(9.737437e-06 1.147936e-05 -3.153969e-30)
(1.729465e-05 2.012918e-05 0)
(2.644174e-05 3.087018e-05 8.303562e-30)
(3.634566e-05 4.299044e-05 -4.117194e-29)
(4.347524e-05 5.386885e-05 -2.662121e-29)
(4.388077e-05 6.212516e-05 6.07926e-29)
(3.830437e-06 4.185769e-06 2.668002e-30)
(1.353887e-05 1.36736e-05 8.150095e-30)
(2.642137e-05 2.503407e-05 1.315819e-29)
(4.258014e-05 3.88357e-05 -1.177223e-28)
(5.802907e-05 5.17206e-05 -2.083689e-28)
(6.598244e-05 5.932626e-05 -8.344773e-29)
(6.382399e-05 6.087247e-05 -4.696394e-30)
(5.371378e-06 5.266203e-06 3.350359e-30)
(2.059718e-05 1.819713e-05 0)
(4.255747e-05 3.359652e-05 3.970052e-29)
(6.821876e-05 5.023454e-05 5.758697e-29)
(8.860128e-05 6.126768e-05 1.058781e-28)
(9.495375e-05 6.255904e-05 -1.251198e-28)
(8.72477e-05 5.486279e-05 2.201754e-28)
(9.080205e-06 8.044391e-06 0)
(3.373408e-05 2.676931e-05 3.735789e-29)
(6.85057e-05 4.672633e-05 5.682353e-29)
(0.0001038385 6.447236e-05 4.102052e-30)
(0.000126497 7.092151e-05 -3.470616e-30)
(0.0001296583 6.386484e-05 -8.587849e-28)
(0.0001162811 4.196895e-05 -2.251978e-27)
(1.562083e-05 1.271784e-05 0)
(5.45185e-05 3.995568e-05 3.706206e-32)
(0.0001039293 6.425481e-05 1.369577e-28)
(0.0001454476 7.997906e-05 -7.436956e-30)
(0.0001656523 7.948706e-05 -1.565629e-28)
(0.0001659645 6.386094e-05 1.557502e-28)
(0.0001480249 2.25433e-05 -4.624305e-28)
(2.534083e-05 1.971281e-05 3.151267e-29)
(8.19299e-05 5.744515e-05 -1.546123e-29)
(0.0001420879 8.390472e-05 -3.408116e-29)
(0.0001820342 9.408166e-05 -1.287251e-29)
(0.0001969681 8.680377e-05 -1.813638e-30)
(0.0001953712 6.244039e-05 5.223478e-28)
(0.0001747576 -5.087916e-06 4.68883e-29)
(3.852718e-05 2.924467e-05 5.45232e-29)
(0.0001119367 7.641162e-05 -4.773747e-29)
(0.000172297 0.0001003772 5.849495e-29)
(0.0002029773 0.0001041796 5.141668e-29)
(0.0002142564 9.250664e-05 -1.855812e-29)
(0.0002132697 5.945149e-05 -4.820485e-28)
(0.0001875046 -5.174708e-05 -6.381418e-27)
(5.457149e-05 4.004017e-05 9.732996e-31)
(0.0001364476 9.104161e-05 -1.715133e-28)
(0.0001860268 0.0001088572 -7.782983e-29)
(0.0002083821 0.000108705 7.67966e-30)
(0.0002182617 9.453916e-05 1.124194e-28)
(0.00021415 3.877631e-05 -4.741945e-28)
(0.0001721279 -0.000166789 1.625987e-27)
(6.875852e-05 4.855826e-05 1.30395e-29)
(0.0001458016 9.619986e-05 -1.082522e-28)
(0.0001828355 0.0001086722 3.611424e-30)
(0.0002026032 0.0001066919 5.703608e-29)
(0.0002114235 8.551483e-05 2.997812e-29)
(0.000200942 -3.28267e-05 -1.043815e-27)
(0.0001418045 -0.0004147837 8.548242e-27)
(7.341465e-05 5.009597e-05 1.160539e-28)
(0.0001377731 9.060809e-05 1.055219e-28)
(0.0001680334 0.0001007109 9.006591e-29)
(0.0001871067 9.548558e-05 7.582775e-30)
(0.0001931284 4.767235e-05 1.098902e-29)
(0.0001792535 -0.0001926851 2.723827e-29)
(0.0001584304 -0.0007317819 3.939313e-27)
(6.438762e-05 4.311418e-05 3.506761e-29)
(0.0001172536 7.69072e-05 1.81746e-30)
(0.000145011 8.502986e-05 -2.042657e-29)
(0.00016123 7.044599e-05 7.092034e-28)
(0.0001647566 -3.642639e-05 8.584529e-27)
(0.000163455 -0.000403869 3.400418e-26)
(0.0001998533 -0.0009423523 1.175351e-26)
(4.782411e-05 3.247456e-05 -2.190902e-30)
(9.005374e-05 5.952843e-05 3.81316e-30)
(0.0001149349 6.340131e-05 3.61878e-32)
(0.0001284958 3.259434e-05 -2.126752e-29)
(0.0001369925 -0.0001424482 9.07497e-28)
(0.0001576229 -0.0005655066 3.891699e-27)
(0.0002119685 -0.001068101 -7.186872e-27)
(3.031326e-05 2.268271e-05 -1.026571e-30)
(6.065015e-05 4.270502e-05 1.445214e-29)
(8.112513e-05 4.137831e-05 -2.202883e-30)
(9.410738e-05 -4.243778e-06 2.62352e-32)
(0.0001103946 -0.0002242236 1.253392e-27)
(0.0001416758 -0.0006771211 5.815294e-28)
(0.0001835634 -0.00116118 3.3596e-28)
(1.57644e-05 1.609813e-05 4.508125e-30)
(3.346018e-05 3.041548e-05 -1.521514e-30)
(4.687461e-05 2.475007e-05 -1.660894e-29)
(5.777374e-05 -3.067912e-05 7.202122e-29)
(7.563473e-05 -0.0002732085 1.335499e-28)
(0.0001004284 -0.0007351144 -4.554562e-28)
(0.000120068 -0.001214238 -3.025267e-28)
(4.452936e-06 1.282463e-05 1.353548e-31)
(9.905189e-06 2.411222e-05 -1.58961e-29)
(1.445542e-05 1.654461e-05 2.366666e-29)
(2.022905e-05 -4.20231e-05 -1.523169e-28)
(3.407042e-05 -0.0002843535 1.487958e-27)
(4.790782e-05 -0.0007403349 5.280764e-27)
(4.512719e-05 -0.001228683 6.907589e-27)
(-5.475011e-06 1.256088e-05 -2.841932e-31)
(-1.233085e-05 2.415473e-05 -2.213661e-29)
(-1.80287e-05 1.752436e-05 4.531952e-30)
(-2.017811e-05 -3.656451e-05 -1.825687e-28)
(-1.249934e-05 -0.0002582227 9.510868e-29)
(-2.829628e-06 -0.0006979171 5.677736e-27)
(-1.03882e-05 -0.001197124 1.150258e-26)
(-1.644453e-05 1.501691e-05 -4.69189e-31)
(-3.728173e-05 3.028841e-05 -2.2968e-30)
(-5.425717e-05 2.733875e-05 4.729621e-29)
(-6.546134e-05 -1.575209e-05 1.899231e-28)
(-6.312139e-05 -0.0001968679 -9.989112e-29)
(-5.047587e-05 -0.0005973103 6.284747e-28)
(-5.071688e-05 -0.001073205 -1.553621e-27)
(-2.96934e-05 1.983474e-05 8.487604e-30)
(-6.668787e-05 4.144845e-05 -1.696625e-29)
(-9.514849e-05 4.393826e-05 1.952205e-29)
(-0.0001157907 1.484648e-05 -1.261128e-28)
(-0.0001205466 -0.0001125374 -1.045736e-27)
(-0.0001080358 -0.0004468566 -4.553554e-28)
(-0.0001003587 -0.0008958061 3.685229e-27)
(-4.439253e-05 2.622165e-05 2.268953e-29)
(-9.875619e-05 5.544017e-05 2.668284e-29)
(-0.000138434 6.33792e-05 5.01136e-29)
(-0.0001680268 4.698147e-05 -8.24901e-29)
(-0.000183085 -3.03363e-05 -3.133377e-28)
(-0.0001788491 -0.0002661985 3.01075e-27)
(-0.0001695615 -0.0006761325 7.555288e-27)
(-5.692691e-05 3.21491e-05 2.134069e-29)
(-0.0001283223 6.855556e-05 1.014434e-28)
(-0.0001792988 8.082829e-05 -2.141293e-28)
(-0.0002167861 7.321488e-05 -6.363531e-28)
(-0.0002420446 2.891866e-05 -1.539556e-28)
(-0.0002525548 -0.0001134489 1.757919e-28)
(-0.0002618045 -0.0004142062 1.43254e-26)
(-6.226659e-05 3.506584e-05 9.328398e-29)
(-0.0001483724 7.721149e-05 1.83862e-28)
(-0.0002086749 9.19919e-05 1.414721e-28)
(-0.0002511915 8.851943e-05 -9.141057e-29)
(-0.0002809276 6.01686e-05 2.276699e-29)
(-0.0003005704 -2.891697e-05 5.961521e-28)
(-0.0003211793 -0.0002493008 -1.113731e-28)
(-5.714818e-05 3.271083e-05 2.953194e-30)
(-0.0001508188 7.778403e-05 -8.436944e-29)
(-0.0002216054 9.529574e-05 3.326068e-29)
(-0.0002671182 9.384169e-05 7.132817e-29)
(-0.0002972806 7.25921e-05 -1.851286e-28)
(-0.000317539 1.069017e-05 -5.653835e-28)
(-0.0003306194 -0.0001577351 -1.821577e-27)
(-4.581318e-05 2.637463e-05 1.383728e-32)
(-0.0001352296 6.954762e-05 -1.125689e-28)
(-0.000213384 9.067626e-05 -8.485769e-29)
(-0.0002642022 9.204032e-05 -8.932127e-29)
(-0.0002941025 7.41168e-05 -2.032706e-30)
(-0.0003102592 2.568698e-05 -3.760652e-28)
(-0.0003108224 -0.0001052981 6.510028e-28)
(-3.312811e-05 1.87668e-05 1.90612e-29)
(-0.0001077243 5.539635e-05 -3.990808e-29)
(-0.0001850902 7.929476e-05 9.504883e-32)
(-0.0002409706 8.512496e-05 -5.937705e-30)
(-0.0002716146 7.047856e-05 3.081081e-29)
(-0.0002831434 3.03172e-05 2.261453e-27)
(-0.0002740849 -6.837302e-05 7.497527e-27)
(-2.178992e-05 1.224588e-05 1.210161e-30)
(-7.655864e-05 4.000905e-05 -4.979644e-29)
(-0.0001440117 6.387503e-05 -4.282945e-29)
(-0.0002008698 7.489434e-05 -1.579451e-34)
(-0.0002330389 6.595453e-05 -8.493426e-29)
(-0.0002426365 3.516273e-05 2.242991e-29)
(-0.0002314493 -3.35042e-05 -1.638761e-28)
(-1.30475e-05 7.561436e-06 0)
(-4.897488e-05 2.676246e-05 1.639232e-32)
(-0.0001005019 4.757844e-05 -1.155419e-29)
(-0.0001521211 6.240853e-05 1.965015e-28)
(-0.0001861555 6.065639e-05 2.579695e-28)
(-0.0001979621 4.156311e-05 -2.492431e-30)
(-0.0001885643 1.030251e-06 1.10278e-27)
(-7.616575e-06 4.648877e-06 0)
(-2.954396e-05 1.718986e-05 -3.371419e-29)
(-6.408487e-05 3.318549e-05 -6.004379e-29)
(-0.0001055285 4.880014e-05 3.745689e-30)
(-0.0001390033 5.413983e-05 7.55397e-29)
(-0.0001530986 4.588517e-05 -3.488185e-30)
(-0.0001481401 2.654462e-05 1.343057e-27)
(-5.189903e-06 3.278706e-06 2.683344e-30)
(-1.87859e-05 1.162532e-05 0)
(-3.948785e-05 2.278199e-05 0)
(-6.800591e-05 3.63345e-05 -1.186246e-28)
(-9.650256e-05 4.619324e-05 -2.975821e-28)
(-0.0001127214 4.745792e-05 6.636045e-30)
(-0.0001130839 4.194549e-05 6.903472e-28)
(-4.202523e-06 2.747266e-06 2.858707e-30)
(-1.377745e-05 9.186015e-06 -7.222969e-30)
(-2.561065e-05 1.681537e-05 -1.160919e-29)
(-4.223953e-05 2.688147e-05 -1.675112e-28)
(-6.240629e-05 3.776588e-05 -3.508111e-28)
(-7.847972e-05 4.565046e-05 -1.515358e-28)
(-8.381804e-05 4.959531e-05 3.481098e-29)
(-3.419637e-06 2.369366e-06 0)
(-1.075288e-05 7.944259e-06 -4.339967e-30)
(-1.833585e-05 1.396639e-05 0)
(-2.723304e-05 2.113666e-05 -2.491584e-29)
(-3.892244e-05 3.027063e-05 -4.084075e-29)
(-5.105146e-05 4.031631e-05 7.894285e-30)
(-5.823436e-05 5.000644e-05 -5.141319e-31)
(-2.667863e-06 2.037155e-06 0)
(-8.339529e-06 7.123406e-06 6.063611e-30)
(-1.374804e-05 1.250687e-05 -5.724971e-30)
(-1.888229e-05 1.816952e-05 0)
(-2.462663e-05 2.484706e-05 -4.93526e-29)
(-3.126157e-05 3.340662e-05 -1.818389e-28)
(-3.67517e-05 4.389777e-05 -8.44645e-30)
(-2.012576e-06 1.802524e-06 0)
(-6.138166e-06 6.414521e-06 1.621358e-29)
(-1.006222e-05 1.141857e-05 -2.241333e-31)
(-1.338706e-05 1.64457e-05 -1.139739e-29)
(-1.612723e-05 2.166425e-05 -3.198769e-29)
(-1.873918e-05 2.792405e-05 -1.541187e-29)
(-2.085398e-05 3.596717e-05 -2.958203e-28)
(-1.456557e-06 1.637121e-06 -3.873471e-30)
(-4.301114e-06 5.847976e-06 -5.082181e-31)
(-6.926102e-06 1.038669e-05 1.160043e-31)
(-9.067216e-06 1.506854e-05 1.861726e-29)
(-1.041523e-05 1.968978e-05 0)
(-1.100754e-05 2.451144e-05 0)
(-1.067836e-05 3.022533e-05 8.624782e-29)
(-1.009933e-06 1.508284e-06 -6.125134e-30)
(-2.867308e-06 5.37675e-06 2.058851e-30)
(-4.449675e-06 9.474799e-06 -5.19563e-30)
(-5.585964e-06 1.373098e-05 -5.52143e-30)
(-6.076939e-06 1.802928e-05 0)
(-5.657189e-06 2.233908e-05 0)
(-4.20062e-06 2.682798e-05 -1.415478e-29)
(-6.653019e-07 1.381653e-06 3.701063e-30)
(-1.80029e-06 4.944181e-06 -6.52464e-30)
(-2.612608e-06 8.637917e-06 -5.731722e-30)
(-2.986541e-06 1.247701e-05 -1.105577e-29)
(-2.785457e-06 1.64099e-05 3.564821e-29)
(-1.806353e-06 2.042717e-05 5.178132e-29)
(1.486144e-07 2.447874e-05 -1.935404e-29)
(-4.085461e-07 1.241445e-06 1.411851e-30)
(-1.026673e-06 4.494292e-06 -2.843019e-30)
(-1.315232e-06 7.819708e-06 5.709265e-30)
(-1.181518e-06 1.12629e-05 5.790782e-30)
(-5.090704e-07 1.483282e-05 0)
(8.041024e-07 1.8474e-05 -3.915328e-30)
(2.795614e-06 2.213174e-05 -5.759834e-30)
(-2.249855e-07 1.091106e-06 0)
(-4.852147e-07 4.022286e-06 -5.693251e-30)
(-4.349353e-07 6.993276e-06 -5.730497e-30)
(2.00599e-08 1.009331e-05 3.478822e-29)
(9.456007e-07 1.328085e-05 4.763569e-29)
(2.38564e-06 1.650936e-05 -2.204847e-29)
(4.292028e-06 1.973811e-05 -1.66877e-29)
(-9.860109e-08 9.339003e-07 -2.243878e-30)
(-1.231823e-07 3.544929e-06 -2.848413e-30)
(1.345991e-07 6.173719e-06 0)
(7.639739e-07 8.931003e-06 -2.73365e-31)
(1.803473e-06 1.175274e-05 -4.685392e-30)
(3.207548e-06 1.458489e-05 -4.65535e-30)
(4.968479e-06 1.741514e-05 -1.148409e-29)
(-1.859127e-08 7.794655e-07 -4.24447e-30)
(9.925845e-08 3.081897e-06 -3.178511e-30)
(4.723172e-07 5.403499e-06 -3.935937e-29)
(1.168738e-06 7.818126e-06 -1.82357e-29)
(2.205485e-06 1.028657e-05 -1.020042e-29)
(3.531804e-06 1.277359e-05 0)
(5.114398e-06 1.525187e-05 1.148318e-29)
(2.756317e-08 6.347148e-07 -7.580195e-31)
(2.220182e-07 2.659698e-06 6.790525e-30)
(6.483121e-07 4.684568e-06 -5.633954e-30)
(1.355001e-06 6.786741e-06 0)
(2.328903e-06 8.936752e-06 3.879308e-30)
(3.542593e-06 1.112004e-05 0)
(4.941602e-06 1.329961e-05 -3.712149e-30)
(5.124254e-08 5.026512e-07 0)
(2.786537e-07 2.269546e-06 0)
(7.103321e-07 4.02354e-06 7.849096e-30)
(1.377288e-06 5.844723e-06 0)
(2.274534e-06 7.724403e-06 7.309392e-30)
(3.366127e-06 9.64483e-06 3.514582e-30)
(4.594227e-06 1.157412e-05 -3.514028e-30)
(5.841136e-08 3.876933e-07 2.952886e-30)
(2.867392e-07 1.919041e-06 0)
(6.952986e-07 3.429924e-06 6.618139e-30)
(1.309367e-06 5.011215e-06 -5.751893e-31)
(2.120076e-06 6.655813e-06 3.459926e-30)
(3.090173e-06 8.349033e-06 6.624724e-30)
(4.165907e-06 1.0065e-05 3.308189e-30)
(5.849903e-08 2.834512e-07 4.030538e-30)
(2.732684e-07 1.611659e-06 4.949173e-30)
(6.438376e-07 2.911479e-06 0)
(1.195642e-06 4.284966e-06 2.443366e-30)
(1.916938e-06 5.725991e-06 5.789505e-30)
(2.770709e-06 7.223722e-06 4.130981e-31)
(3.707381e-06 8.757683e-06 -1.761504e-29)
(5.228401e-08 1.933142e-07 2.68821e-30)
(2.447279e-07 1.344289e-06 3.396957e-30)
(5.74702e-07 2.464192e-06 -3.181427e-30)
(1.063659e-06 3.658919e-06 0)
(1.698753e-06 4.924735e-06 0)
(2.444518e-06 6.255294e-06 2.966478e-30)
(3.258227e-06 7.644756e-06 4.47211e-29)
(4.461111e-08 1.162932e-07 2.623174e-30)
(2.123935e-07 1.115501e-06 3.114788e-30)
(5.017173e-07 2.0813e-06 -3.095726e-30)
(9.311609e-07 3.122899e-06 0)
(1.488018e-06 4.238772e-06 5.808546e-30)
(2.140968e-06 5.426352e-06 -1.487987e-36)
(2.859596e-06 6.693566e-06 -6.038859e-30)
(3.662077e-08 5.069766e-08 0)
(1.802806e-07 9.203855e-07 3.040054e-30)
(4.319219e-07 1.754733e-06 -2.857967e-30)
(8.074028e-07 2.665681e-06 0)
(1.295016e-06 3.653806e-06 -3.157537e-30)
(1.86675e-06 4.719441e-06 -1.172561e-29)
(2.494325e-06 5.873584e-06 -6.040512e-30)
(2.902268e-08 -5.192848e-09 -2.310854e-30)
(1.50636e-07 7.54057e-07 -1.460128e-30)
(3.685688e-07 1.476173e-06 -4.249499e-30)
(6.964642e-07 2.27571e-06 -2.91417e-30)
(1.123899e-06 3.155084e-06 -2.847687e-30)
(1.626456e-06 4.116994e-06 2.61319e-30)
(2.17692e-06 5.173493e-06 0)
(2.211089e-08 -5.296303e-08 -4.466388e-30)
(1.241568e-07 6.117976e-07 0)
(3.126236e-07 1.237742e-06 0)
(5.991764e-07 1.941927e-06 4.273714e-31)
(9.738381e-07 2.728407e-06 -2.019922e-30)
(1.415935e-06 3.608062e-06 2.591254e-30)
(1.901741e-06 4.580815e-06 0)
(1.605353e-08 -9.420423e-08 -2.160249e-30)
(1.010904e-07 4.890886e-07 -1.463811e-30)
(2.641662e-07 1.032109e-06 -1.462271e-30)
(5.155624e-07 1.65384e-06 -2.987454e-30)
(8.469192e-07 2.359473e-06 -5.366914e-30)
(1.245009e-06 3.166162e-06 0)
(1.6767e-06 4.06676e-06 2.39637e-30)
(1.070642e-08 -1.301667e-07 -5.828356e-31)
(8.09813e-08 3.820005e-07 2.39446e-31)
(2.220774e-07 8.52484e-07 8.853717e-31)
(4.429382e-07 1.402023e-06 4.588338e-30)
(7.360486e-07 2.036644e-06 0)
(1.088515e-06 2.773992e-06 3.311735e-30)
(1.471753e-06 3.609049e-06 6.01793e-32)
(5.948541e-09 -1.620728e-07 2.502259e-30)
(6.331451e-08 2.870334e-07 3.990239e-30)
(1.853555e-07 6.931305e-07 3.085018e-30)
(3.795912e-07 1.178546e-06 -7.088179e-31)
(6.395759e-07 1.74993e-06 -2.954226e-30)
(9.516815e-07 2.424733e-06 3.268874e-30)
(1.292568e-06 3.200312e-06 7.171283e-31)
(1.676203e-09 -1.908713e-07 1.887277e-30)
(4.777057e-08 2.013e-07 4.518268e-30)
(1.530464e-07 5.490887e-07 2.205672e-30)
(3.23207e-07 9.76411e-07 0)
(5.518764e-07 1.493863e-06 -2.393685e-29)
(8.293971e-07 2.112316e-06 -3.004488e-29)
(1.134814e-06 2.829282e-06 -5.906591e-30)
(-2.134629e-09 -2.174413e-07 1.173287e-30)
(3.421755e-08 1.220639e-07 2.927071e-30)
(1.252759e-07 4.158068e-07 4.406758e-30)
(2.761534e-07 7.891344e-07 2.950503e-30)
(4.83697e-07 1.255021e-06 0)
(7.318634e-07 1.822004e-06 2.09428e-30)
(9.990512e-07 2.485064e-06 2.945612e-30)
(-5.490781e-09 -2.426111e-07 1.145964e-30)
(2.251288e-08 4.691512e-08 2.777878e-30)
(1.013483e-07 2.893158e-07 2.940534e-30)
(2.349888e-07 6.114218e-07 1.476515e-30)
(4.195554e-07 1.026243e-06 0)
(6.405937e-07 1.543296e-06 5.024317e-30)
(8.794092e-07 2.158937e-06 5.893758e-30)
(-8.349182e-09 -2.670988e-07 5.862769e-31)
(1.285094e-08 -2.62996e-08 4.704242e-30)
(8.166918e-08 1.66217e-07 1.471512e-30)
(2.009497e-07 4.386663e-07 1.477688e-30)
(3.657443e-07 8.038524e-07 0)
(5.631747e-07 1.272781e-06 0)
(7.766992e-07 1.843372e-06 0)
(-1.054222e-08 -2.916054e-07 0)
(5.713183e-09 -9.962254e-08 1.927471e-30)
(6.693908e-08 4.304175e-08 0)
(1.748623e-07 2.660414e-07 -4.810581e-30)
(3.229261e-07 5.822714e-07 -3.011314e-30)
(4.999077e-07 1.003969e-06 -2.967159e-30)
(6.908787e-07 1.530865e-06 -4.693207e-30)
(-1.190441e-08 -3.168335e-07 1.484185e-30)
(1.583539e-09 -1.752451e-07 0)
(5.731281e-08 -8.390251e-08 2.954519e-30)
(1.545647e-07 8.913174e-08 -2.27733e-29)
(2.896327e-07 3.566688e-07 -2.210878e-29)
(4.510511e-07 7.299868e-07 0)
(6.223854e-07 1.213928e-06 -1.724018e-30)
(-1.215439e-08 -3.436925e-07 1.461807e-30)
(1.82313e-09 -2.558857e-07 0)
(5.673723e-08 -2.191087e-07 1.480153e-30)
(1.516927e-07 -9.966101e-08 1.501306e-30)
(2.775411e-07 1.171089e-07 3.649256e-30)
(4.207032e-07 4.42744e-07 -1.685064e-30)
(5.728292e-07 8.846444e-07 1.626822e-30)
(-1.086195e-08 -3.73256e-07 0)
(7.453422e-09 -3.448543e-07 3.128522e-30)
(6.516295e-08 -3.679351e-07 1.48094e-30)
(1.584089e-07 -3.06707e-07 -2.238949e-30)
(2.769269e-07 -1.439409e-07 1.76251e-30)
(4.07841e-07 1.339009e-07 -1.667932e-30)
(5.430045e-07 5.345453e-07 3.835475e-32)
(-7.334949e-09 -4.07062e-07 0)
(2.090862e-08 -4.465968e-07 1.623216e-30)
(8.675962e-08 -5.373574e-07 -1.567398e-30)
(1.827772e-07 -5.407893e-07 -7.150333e-31)
(2.968768e-07 -4.36107e-07 3.143679e-30)
(4.165946e-07 -2.071375e-07 2.958017e-30)
(5.34929e-07 1.536177e-07 -1.562924e-30)
(-4.322106e-10 -4.470624e-07 0)
(4.582632e-08 -5.673224e-07 0)
(1.269619e-07 -7.374897e-07 -1.541646e-30)
(2.306923e-07 -8.145034e-07 2.091226e-30)
(3.425073e-07 -7.728254e-07 3.988934e-32)
(4.507539e-07 -5.934237e-07 0)
(5.507435e-07 -2.6982e-07 0)
(1.183325e-08 -4.965789e-07 1.18187e-30)
(8.797045e-08 -7.167133e-07 -1.436165e-30)
(1.940751e-07 -9.831268e-07 -2.199847e-30)
(3.106297e-07 -1.145665e-06 5.69303e-31)
(4.205978e-07 -1.172317e-06 -3.848372e-32)
(5.147114e-07 -1.041532e-06 2.958376e-30)
(5.923251e-07 -7.495534e-07 8.596652e-36)
(3.280608e-08 -5.609562e-07 3.232821e-32)
(1.576433e-07 -9.101481e-07 -1.401454e-30)
(3.017778e-07 -1.297039e-06 -2.186027e-30)
(4.352324e-07 -1.560362e-06 -1.499959e-30)
(5.402334e-07 -1.65964e-06 1.548457e-30)