/*--------------------------------*- C++ -*----------------------------------*\
| =========                 |                                                 |
| \\      /  F ield         | OpenFOAM: The Open Source CFD Toolbox           |
|  \\    /   O peration     | Version:  2206                                  |
|   \\  /    A nd           | Website:  www.openfoam.com                      |
|    \\/     M anipulation  |                                                 |
\*---------------------------------------------------------------------------*/
FoamFile
{
    version     2.0;
    format      ascii;
    arch        "LSB;label=32;scalar=64";
    class       volVectorField;
    location    "2";
    object      U.a_0;
}
// * * * * * * * * * * * * * * * * * * * * * * * * * * * * * * * * * * * * * //

dimensions      [0 1 -1 0 0 0 0];

internalField   nonuniform List<vector> 
13078
(
(6.175869e-06 -8.98301e-05 1.506713e-27)
(8.826764e-07 -4.637194e-05 1.088887e-32)
(-1.83537e-08 -2.776655e-05 -4.19185e-29)
(-1.513738e-07 -1.833333e-05 0)
(-2.00971e-07 -1.37981e-05 -1.150462e-29)
(-2.329922e-07 -1.075604e-05 -1.154336e-29)
(-2.544669e-07 -8.47952e-06 -1.156656e-29)
(-3.52436e-05 -3.859816e-05 0)
(-1.835941e-05 -3.205919e-05 -1.707669e-32)
(-6.829707e-06 -2.225615e-05 0)
(-3.068161e-06 -1.657181e-05 0)
(-1.756831e-06 -1.303218e-05 1.034526e-33)
(-1.158453e-06 -1.037429e-05 6.314253e-34)
(-8.555338e-07 -8.260878e-06 1.487034e-33)
(-1.227513e-05 -1.028626e-05 1.536729e-31)
(-1.080238e-05 -1.561692e-05 4.825371e-31)
(-6.706943e-06 -1.514914e-05 1.255145e-29)
(-4.051081e-06 -1.328746e-05 2.307565e-29)
(-2.59204e-06 -1.121351e-05 1.153231e-29)
(-1.781902e-06 -9.302163e-06 0)
(-1.316587e-06 -7.584662e-06 -6.585923e-35)
(-3.66792e-06 -3.808517e-06 -2.983989e-31)
(-5.567521e-06 -8.230066e-06 1.079082e-30)
(-4.915251e-06 -1.000065e-05 2.488756e-30)
(-3.720151e-06 -9.96661e-06 1.547457e-30)
(-2.724162e-06 -9.081005e-06 -6.411597e-34)
(-2.033949e-06 -7.895711e-06 0)
(-1.576274e-06 -6.625055e-06 -1.225766e-33)
(-1.436457e-06 -2.074032e-06 -2.95099e-31)
(-3.00798e-06 -4.867054e-06 -4.79199e-31)
(-3.304911e-06 -6.61972e-06 1.070599e-30)
(-2.967406e-06 -7.242829e-06 1.860944e-31)
(-2.471879e-06 -7.085648e-06 -1.400427e-29)
(-2.013804e-06 -6.446286e-06 -2.076025e-35)
(-1.658041e-06 -5.556222e-06 1.159353e-29)
(-6.441051e-07 -1.342828e-06 0)
(-1.691994e-06 -3.115606e-06 7.399238e-31)
(-2.184163e-06 -4.508145e-06 -7.455526e-31)
(-2.239301e-06 -5.240572e-06 8.450141e-31)
(-2.077572e-06 -5.392804e-06 1.491991e-30)
(-1.846926e-06 -5.110087e-06 -1.170977e-29)
(-1.619587e-06 -4.503482e-06 -2.323732e-29)
(-3.340261e-07 -9.814723e-07 0)
(-1.009071e-06 -2.138502e-06 7.562234e-31)
(-1.460685e-06 -3.169926e-06 -1.111716e-29)
(-1.662265e-06 -3.815465e-06 -1.195478e-29)
(-1.690412e-06 -4.05614e-06 2.345655e-30)
(-1.622911e-06 -3.937835e-06 1.476558e-30)
(-1.517521e-06 -3.5287e-06 0)
(-1.957473e-07 -7.75848e-07 -1.283127e-30)
(-6.419299e-07 -1.548427e-06 7.77413e-31)
(-1.009652e-06 -2.294413e-06 8.119831e-31)
(-1.249536e-06 -2.805548e-06 0)
(-1.369497e-06 -3.02813e-06 1.820715e-30)
(-1.404817e-06 -2.962285e-06 1.479929e-30)
(-1.391709e-06 -2.645803e-06 1.476931e-30)
(-1.257876e-07 -6.456304e-07 3.232072e-32)
(-4.34437e-07 -1.164155e-06 -1.660046e-30)
(-7.265914e-07 -1.699992e-06 6.401204e-31)
(-9.610396e-07 -2.073695e-06 1.500563e-30)
(-1.122574e-06 -2.234518e-06 5.152327e-30)
(-1.220055e-06 -2.164717e-06 1.48081e-30)
(-1.272081e-06 -1.878782e-06 0)
(-8.699762e-08 -5.560912e-07 1.369588e-30)
(-3.11896e-07 -8.965933e-07 -1.681027e-30)
(-5.47287e-07 -1.273841e-06 -8.478019e-31)
(-7.640606e-07 -1.526222e-06 2.351418e-30)
(-9.419722e-07 -1.612395e-06 -3.851815e-32)
(-1.076318e-06 -1.509923e-06 0)
(-1.173792e-06 -1.220821e-06 0)
(-6.396163e-08 -4.904321e-07 0)
(-2.369812e-07 -6.992861e-07 0)
(-4.325824e-07 -9.534936e-07 -1.782294e-30)
(-6.317439e-07 -1.10252e-06 2.352646e-30)
(-8.153977e-07 -1.113766e-06 3.994061e-32)
(-9.725183e-07 -9.654701e-07 0)
(-1.102431e-06 -6.534817e-07 0)
(-4.972829e-08 -4.397778e-07 0)
(-1.900179e-07 -5.463226e-07 1.827992e-30)
(-3.590428e-07 -7.017437e-07 -1.785407e-30)
(-5.450129e-07 -7.628184e-07 -3.95831e-30)
(-7.313018e-07 -7.03431e-07 4.253465e-31)
(-9.042552e-07 -5.042744e-07 0)
(-1.058883e-06 -1.584959e-07 1.100881e-30)
(-4.077011e-08 -3.986086e-07 0)
(-1.603127e-07 -4.220574e-07 3.512118e-31)
(-3.126407e-07 -4.956183e-07 -1.482828e-30)
(-4.908382e-07 -4.806443e-07 -2.451896e-30)
(-6.804038e-07 -3.558517e-07 1.993614e-30)
(-8.665125e-07 -1.047421e-07 -1.92091e-30)
(-1.041932e-06 2.806063e-07 3.847229e-32)
(-3.507535e-08 -3.637118e-07 1.572607e-30)
(-1.4187e-07 -3.168045e-07 0)
(-2.846906e-07 -3.200263e-07 -1.482444e-30)
(-4.602625e-07 -2.378158e-07 -1.504547e-30)
(-6.555123e-07 -5.245144e-08 4.056497e-30)
(-8.546177e-07 2.501468e-07 -1.912201e-30)
(-1.049495e-06 6.780205e-07 1.880784e-30)
(-3.152228e-08 -3.328904e-07 1.566204e-30)
(-1.309728e-07 -2.240541e-07 0)
(-2.69144e-07 -1.647772e-07 -2.959937e-30)
(-4.428825e-07 -2.163588e-08 1.900084e-29)
(-6.455432e-07 2.202894e-07 2.616648e-29)
(-8.636095e-07 5.739909e-07 0)
(-1.079371e-06 1.04591e-06 -1.952136e-30)
(-2.943249e-08 -3.04615e-07 0)
(-1.257588e-07 -1.391503e-07 1.999593e-30)
(-2.648869e-07 -2.236365e-08 0)
(-4.456342e-07 1.766649e-07 1.014268e-30)
(-6.600775e-07 4.718311e-07 3.02251e-30)
(-8.940087e-07 8.773213e-07 2.980317e-30)
(-1.130529e-06 1.394541e-06 1.02404e-30)
(-2.831158e-08 -2.776727e-07 0)
(-1.243434e-07 -5.847991e-08 4.019636e-30)
(-2.672415e-07 1.130419e-07 -1.475129e-30)
(-4.568486e-07 3.66082e-07 -1.482689e-30)
(-6.868538e-07 7.141463e-07 0)
(-9.412046e-07 1.170086e-06 0)
(-1.201135e-06 1.733367e-06 0)
(-2.793315e-08 -2.511722e-07 2.285914e-30)
(-1.259912e-07 2.079466e-08 1.278409e-30)
(-2.756132e-07 2.462069e-07 -2.948823e-30)
(-4.776523e-07 5.526487e-07 -1.482236e-30)
(-7.265363e-07 9.536736e-07 0)
(-1.004529e-06 1.460534e-06 -8.327661e-31)
(-1.290534e-06 2.071076e-06 -5.932717e-30)
(-2.814585e-08 -2.24202e-07 2.263142e-30)
(-1.302066e-07 1.01321e-07 1.369313e-30)
(-2.892921e-07 3.815016e-07 -4.420941e-30)
(-5.070856e-07 7.42362e-07 -2.963544e-30)
(-7.784051e-07 1.197341e-06 0)
(-1.083692e-06 1.756459e-06 2.1373e-30)
(-1.398832e-06 2.416212e-06 -2.967736e-30)
(-2.890475e-08 -1.959001e-07 1.751486e-30)
(-1.368413e-07 1.85727e-07 4.210781e-30)
(-3.080237e-07 5.232416e-07 2.076284e-30)
(-5.441622e-07 9.410174e-07 0)
(-8.360772e-07 1.450163e-06 2.408715e-29)
(-1.171059e-06 2.062726e-06 3.026868e-29)
(-1.52573e-06 2.777554e-06 5.956896e-30)
(-3.024776e-08 -1.652335e-07 1.136174e-30)
(-1.462425e-07 2.769765e-07 4.99898e-30)
(-3.328967e-07 6.762349e-07 5.616793e-30)
(-5.929748e-07 1.155135e-06 5.001002e-30)
(-9.161697e-07 1.720761e-06 2.975331e-30)
(-1.286946e-06 2.391113e-06 3.205532e-30)
(-1.678256e-06 3.165349e-06 -5.217084e-30)
(-3.237225e-08 -1.311898e-07 0)
(-1.589207e-07 3.783036e-07 3.590966e-30)
(-3.644028e-07 8.460023e-07 3.534516e-30)
(-6.520975e-07 1.392485e-06 4.097493e-30)
(-1.009954e-06 2.023958e-06 0)
(-1.422652e-06 2.758517e-06 3.180483e-30)
(-1.857376e-06 3.592832e-06 6.084279e-32)
(-3.555845e-08 -9.247571e-08 -1.811601e-30)
(-1.756894e-07 4.934509e-07 0)
(-4.042723e-07 1.038701e-06 0)
(-7.249189e-07 1.661738e-06 2.878355e-30)
(-1.123854e-06 2.367629e-06 8.200539e-31)
(-1.584679e-06 3.173712e-06 0)
(-2.069534e-06 4.074334e-06 2.258464e-30)
(-4.009769e-08 -4.759221e-08 -3.589851e-30)
(-1.977081e-07 6.268243e-07 0)
(-4.5459e-07 1.261623e-06 0)
(-8.146724e-07 1.97294e-06 -4.999326e-30)
(-1.261328e-06 2.764406e-06 -7.161043e-30)
(-1.769592e-06 3.64687e-06 2.286679e-30)
(-2.311587e-06 4.621452e-06 0)
(-4.639827e-08 5.125438e-09 -1.772101e-30)
(-2.262659e-07 7.835155e-07 1.466152e-30)
(-5.178869e-07 1.523331e-06 -7.199853e-31)
(-9.258374e-07 2.338062e-06 2.941214e-30)
(-1.43182e-06 3.229304e-06 3.014103e-30)
(-2.005863e-06 4.199344e-06 2.211532e-30)
(-2.617504e-06 5.260335e-06 0)
(-5.466964e-08 6.765878e-08 0)
(-2.621719e-07 9.692964e-07 2.256768e-30)
(-5.957147e-07 1.833471e-06 -2.122178e-30)
(-1.060476e-06 2.770652e-06 0)
(-1.63593e-06 3.78004e-06 7.953008e-30)
(-2.287418e-06 4.861069e-06 1.19075e-29)
(-2.982748e-06 6.024241e-06 6.147549e-30)
(-6.499467e-08 1.421706e-07 1.8479e-30)
(-3.056833e-07 1.190614e-06 2.177921e-30)
(-6.886698e-07 2.202746e-06 -2.212413e-30)
(-1.22007e-06 3.285582e-06 0)
(-1.877257e-06 4.435598e-06 -5.893618e-30)
(-2.621145e-06 5.648776e-06 -8.92595e-35)
(-3.416588e-06 6.931654e-06 6.159276e-30)
(-7.691944e-08 2.311179e-07 1.775374e-30)
(-3.555196e-07 1.454463e-06 2.290914e-30)
(-7.951184e-07 2.642864e-06 -2.132335e-30)
(-1.402805e-06 3.899116e-06 0)
(-2.154442e-06 5.216715e-06 0)
(-3.00606e-06 6.587175e-06 2.181855e-30)
(-3.908901e-06 8.002287e-06 -5.135953e-29)
(-8.973178e-08 3.369414e-07 6.612083e-31)
(-4.087994e-07 1.768231e-06 7.372507e-31)
(-9.096885e-07 3.166124e-06 0)
(-1.601437e-06 4.628486e-06 -8.080395e-30)
(-2.459736e-06 6.145341e-06 -5.894742e-30)
(-3.438853e-06 7.702822e-06 1.022469e-29)
(-4.482942e-06 9.278343e-06 1.801953e-29)
(-9.902886e-08 4.614994e-07 1.729904e-30)
(-4.552073e-07 2.136361e-06 0)
(-1.020286e-06 3.784653e-06 -6.511479e-31)
(-1.800122e-06 5.491344e-06 -5.060708e-30)
(-2.772781e-06 7.244113e-06 2.213104e-30)
(-3.892328e-06 9.023758e-06 4.368279e-30)
(-5.099369e-06 1.080075e-05 2.313614e-30)
(-1.046176e-07 6.024171e-07 0)
(-4.903023e-07 2.565598e-06 0)
(-1.11028e-06 4.508936e-06 4.538956e-30)
(-1.973565e-06 6.504103e-06 0)
(-3.06175e-06 8.535645e-06 4.388975e-30)
(-4.331303e-06 1.05795e-05 2.176529e-30)
(-5.72086e-06 1.259769e-05 -2.320279e-30)
(-9.871408e-08 7.682406e-07 -8.192458e-31)
(-4.893727e-07 3.056548e-06 -4.853904e-30)
(-1.141489e-06 5.338395e-06 -3.747354e-30)
(-2.08045e-06 7.679317e-06 0)
(-3.277565e-06 1.004025e-05 2.182989e-30)
(-4.700772e-06 1.23986e-05 0)
(-6.296289e-06 1.4709e-05 -1.417747e-29)
(-7.646457e-08 9.555493e-07 1.35912e-30)
(-4.389298e-07 3.605321e-06 -1.802573e-30)
(-1.082873e-06 6.269997e-06 -7.823304e-30)
(-2.051607e-06 9.01042e-06 -1.087207e-30)
(-3.346001e-06 1.176966e-05 8.393986e-30)
(-4.913107e-06 1.450369e-05 5.938237e-30)
(-6.728519e-06 1.717368e-05 -5.952191e-30)
(-2.93551e-08 1.161599e-06 1.125336e-30)
(-3.131753e-07 4.225186e-06 1.436255e-30)
(-8.956808e-07 7.305653e-06 3.968311e-30)
(-1.840856e-06 1.050264e-05 -1.304313e-29)
(-3.16936e-06 1.372468e-05 -9.541913e-30)
(-4.838496e-06 1.690275e-05 1.191572e-29)
(-6.863008e-06 2.000996e-05 2.387351e-29)
(5.204772e-08 1.3802e-06 -1.122242e-30)
(-7.715235e-08 4.892817e-06 -1.433636e-30)
(-5.147195e-07 8.453646e-06 -7.65103e-30)
(-1.324538e-06 1.214123e-05 -5.630229e-29)
(-2.561469e-06 1.58792e-05 -6.113661e-29)
(-4.277693e-06 1.958619e-05 -1.506569e-29)
(-6.470911e-06 2.320382e-05 0)
(1.796996e-07 1.603126e-06 0)
(3.137364e-07 5.590139e-06 0)
(1.552315e-07 9.684054e-06 -1.750114e-30)
(-3.580031e-07 1.390701e-05 9.69114e-30)
(-1.340973e-06 1.821196e-05 5.872097e-29)
(-2.92168e-06 2.250584e-05 4.651682e-29)
(-5.254683e-06 2.669783e-05 0)
(3.704899e-07 1.824371e-06 -2.231881e-30)
(9.31421e-07 6.313965e-06 2.860215e-30)
(1.255319e-06 1.101149e-05 5.788879e-30)
(1.236605e-06 1.586234e-05 0)
(7.146318e-07 2.074062e-05 -5.116977e-30)
(-6.069401e-07 2.56262e-05 -1.267745e-29)
(-2.96047e-06 3.037427e-05 -2.59637e-29)
(6.487542e-07 2.053965e-06 3.662461e-30)
(1.880874e-06 7.098397e-06 2.860071e-30)
(2.950988e-06 1.247473e-05 1.970248e-30)
(3.656095e-06 1.799284e-05 0)
(3.738371e-06 2.346012e-05 9.582669e-30)
(2.88437e-06 2.887104e-05 -1.009289e-28)
(8.562255e-07 3.457022e-05 -1.738071e-28)
(1.041652e-06 2.326009e-06 3.526402e-30)
(3.256834e-06 8.001877e-06 4.789858e-30)
(5.349724e-06 1.4089e-05 1.868079e-30)
(6.978775e-06 2.02278e-05 -1.21391e-29)
(7.891933e-06 2.634224e-05 -2.777452e-29)
(7.941136e-06 3.291552e-05 -5.993457e-29)
(6.509907e-06 4.084135e-05 -1.078843e-28)
(1.568919e-06 2.670392e-06 0)
(5.092529e-06 9.04322e-06 -8.753072e-30)
(8.445147e-06 1.579442e-05 -2.229965e-30)
(1.13234e-05 2.266175e-05 7.028612e-30)
(1.378869e-05 3.014743e-05 -1.428113e-29)
(1.562154e-05 3.905494e-05 -2.726927e-29)
(1.520218e-05 4.9781e-05 0)
(2.226329e-06 3.094283e-06 -6.78635e-31)
(7.3469e-06 1.019644e-05 -2.793713e-29)
(1.235243e-05 1.76625e-05 -3.020611e-29)
(1.747512e-05 2.602985e-05 -8.619889e-30)
(2.310239e-05 3.596501e-05 -2.123075e-29)
(2.780013e-05 4.720538e-05 -5.399213e-29)
(2.860022e-05 5.913577e-05 -1.979447e-29)
(3.027925e-06 3.622303e-06 -2.69556e-30)
(1.004904e-05 1.156482e-05 -3.234554e-30)
(1.792e-05 2.041155e-05 0)
(2.75411e-05 3.147976e-05 8.851189e-30)
(3.810411e-05 4.406485e-05 -2.79192e-29)
(4.597643e-05 5.554385e-05 -2.835002e-31)
(4.685884e-05 6.451349e-05 -1.330911e-29)
(3.97464e-06 4.225295e-06 6.449339e-31)
(1.402944e-05 1.388402e-05 8.440996e-30)
(2.759499e-05 2.567648e-05 1.389002e-29)
(4.472277e-05 4.008769e-05 -1.435466e-28)
(6.141459e-05 5.369906e-05 -3.996971e-28)
(7.059415e-05 6.193771e-05 -1.779675e-29)
(6.915026e-05 6.382356e-05 -8.010818e-29)
(5.634557e-06 5.426466e-06 8.933848e-31)
(2.159036e-05 1.881552e-05 0)
(4.472818e-05 3.491155e-05 4.203498e-29)
(7.202692e-05 5.24841e-05 8.259642e-29)
(9.439789e-05 6.438166e-05 -2.565036e-29)
(0.0001024692 6.598122e-05 1.405937e-28)
(9.566857e-05 5.790376e-05 1.855229e-29)
(9.572687e-06 8.409214e-06 0)
(3.54659e-05 2.799752e-05 3.924875e-29)
(7.206603e-05 4.901971e-05 6.064758e-29)
(0.0001098257 6.80048e-05 5.499186e-29)
(0.0001351982 7.523982e-05 -3.760735e-29)
(0.0001405747 6.798149e-05 -8.567994e-28)
(0.0001286436 4.52913e-05 -3.015344e-27)
(1.640409e-05 1.336655e-05 0)
(5.713184e-05 4.202335e-05 6.196886e-31)
(0.0001091042 6.783823e-05 -9.59097e-30)
(0.0001538533 8.495856e-05 -1.039077e-28)
(0.0001773042 8.490679e-05 -1.945725e-29)
(0.0001801581 6.864207e-05 1.373733e-29)
(0.0001646911 2.67281e-05 -5.142526e-27)
(2.640599e-05 2.075753e-05 2.407259e-29)
(8.538027e-05 6.063003e-05 2.553247e-29)
(0.0001488109 8.903244e-05 3.689786e-29)
(0.0001926644 0.0001004904 -1.529551e-28)
(0.0002109265 9.31865e-05 -2.97317e-29)
(0.0002118571 6.791399e-05 -2.369092e-28)
(0.0001949603 1.624322e-06 -1.000338e-27)
(3.979362e-05 3.082493e-05 4.506383e-29)
(0.0001160951 8.097996e-05 -1.173346e-28)
(0.0001803788 0.0001071625 -5.848955e-29)
(0.0002150402 0.000111833 -4.964525e-30)
(0.0002292623 9.9668e-05 -2.600175e-28)
(0.0002307829 6.602264e-05 -1.479542e-27)
(0.0002099101 -3.933137e-05 -1.17123e-26)
(5.597802e-05 4.228337e-05 1.570792e-29)
(0.000141382 9.71711e-05 -4.333488e-29)
(0.0001951941 0.0001171846 -5.835137e-29)
(0.0002208626 0.0001173846 -2.837751e-31)
(0.00023327 0.0001022726 1.849013e-28)
(0.0002323955 4.819775e-05 -5.648052e-28)
(0.0001972855 -0.0001430939 -1.40141e-26)
(7.052325e-05 5.162208e-05 -7.19695e-29)
(0.0001519224 0.0001038933 6.360028e-30)
(0.0001925625 0.0001181309 3.543541e-29)
(0.0002146714 0.0001161639 -1.790702e-29)
(0.0002258179 9.432338e-05 3.684303e-28)
(0.0002198437 -1.680062e-05 1.765899e-27)
(0.0001660902 -0.0003819407 -5.008817e-27)
(7.61137e-05 5.418642e-05 3.965985e-29)
(0.0001449946 9.953306e-05 -6.678104e-30)
(0.0001776012 0.0001109338 -1.163577e-29)
(0.0001984833 0.0001057806 -9.506539e-29)
(0.0002070327 5.994543e-05 1.626835e-28)
(0.00019835 -0.0001696246 3.496297e-28)
(0.0001773648 -0.0007145091 -7.159139e-27)
(6.796501e-05 4.800833e-05 3.145754e-29)
(0.0001247175 8.651051e-05 1.81209e-29)
(0.0001541142 9.594647e-05 -2.601549e-28)
(0.0001719956 8.210215e-05 -6.638398e-28)
(0.0001780537 -1.923564e-05 -7.468836e-28)
(0.0001808643 -0.0003864994 2.906367e-28)
(0.0002216804 -0.0009503499 -2.436737e-26)
(5.144965e-05 3.755044e-05 -2.426366e-29)
(9.696211e-05 6.932859e-05 4.677953e-29)
(0.0001232656 7.492171e-05 5.089847e-30)
(0.0001381887 4.570435e-05 -2.592056e-28)
(0.0001484403 -0.000124161 1.172914e-27)
(0.000171347 -0.0005587437 5.558922e-27)
(0.0002347607 -0.001091066 -7.332173e-27)
(3.32356e-05 2.744033e-05 -1.003464e-29)
(6.619131e-05 5.215424e-05 2.00314e-29)
(8.79962e-05 5.292524e-05 2.332875e-29)
(0.0001019294 9.453639e-06 4.262746e-31)
(0.0001197423 -0.0002062359 -3.256363e-28)
(0.0001523642 -0.0006767684 2.299127e-27)
(0.0002019978 -0.001190876 3.905765e-27)
(1.755893e-05 2.036752e-05 4.706155e-30)
(3.691484e-05 3.917832e-05 2.827752e-29)
(5.129446e-05 3.567144e-05 4.334775e-29)
(6.269055e-05 -1.725127e-05 -4.912303e-30)
(8.160822e-05 -0.0002558836 -1.627308e-27)
(0.0001083622 -0.0007368237 -5.104418e-27)
(0.0001317104 -0.001244926 -3.337234e-27)
(4.899082e-06 1.670688e-05 -3.796246e-31)
(1.073643e-05 3.228446e-05 -1.484588e-30)
(1.548718e-05 2.674813e-05 -6.769694e-30)
(2.114194e-05 -2.930238e-05 1.235699e-29)
(3.499772e-05 -0.0002679833 1.55408e-27)
(5.017541e-05 -0.0007423473 2.499415e-27)
(4.79295e-05 -0.001259133 -1.237716e-27)
(-6.439057e-06 1.632907e-05 -4.615735e-30)
(-1.441504e-05 3.226787e-05 -8.607776e-30)
(-2.094245e-05 2.770958e-05 5.375844e-29)
(-2.403201e-05 -2.420901e-05 -1.749347e-28)
(-1.763975e-05 -0.0002422132 2.360731e-28)
(-7.745857e-06 -0.0006984519 5.499888e-27)
(-1.634532e-05 -0.001227501 3.417332e-27)
(-1.867713e-05 1.892976e-05 -5.690214e-30)
(-4.214756e-05 3.888365e-05 -2.945701e-29)
(-6.097166e-05 3.824499e-05 -1.997268e-29)
(-7.409386e-05 -2.94458e-06 2.711407e-30)
(-7.419747e-05 -0.0001796679 4.603047e-28)
(-6.158597e-05 -0.0005907498 -6.060369e-29)
(-6.440894e-05 -0.001094168 -1.904704e-29)
(-3.287512e-05 2.395683e-05 -1.648549e-29)
(-7.384478e-05 5.064424e-05 -2.380708e-29)
(-0.000105095 5.563316e-05 -4.939408e-29)
(-0.0001285547 2.832211e-05 1.361497e-28)
(-0.0001367968 -9.414831e-05 6.915792e-28)
(-0.0001265467 -0.0004279043 -2.446402e-27)
(-0.0001211375 -0.0008954178 -1.481524e-26)
(-4.806198e-05 3.040131e-05 -9.337817e-30)
(-0.000107469 6.495818e-05 -1.21992e-29)
(-0.0001508046 7.544805e-05 -6.10797e-29)
(-0.0001838172 6.055021e-05 -1.695419e-28)
(-0.0002032423 -1.287997e-05 -6.668411e-28)
(-0.0002039548 -0.0002384779 -2.244885e-27)
(-0.0001950625 -0.0006484655 1.313033e-26)
(-6.047928e-05 3.608755e-05 5.096088e-31)
(-0.0001376186 7.791561e-05 5.223187e-30)
(-0.0001931297 9.274953e-05 1.566752e-28)
(-0.0002345655 8.619925e-05 5.755761e-28)
(-0.0002644035 4.378383e-05 1.724407e-28)
(-0.0002801361 -8.836651e-05 1.627674e-27)
(-0.0002925987 -0.0003721695 8.344792e-27)
(-6.520147e-05 3.847778e-05 -1.055237e-28)
(-0.0001570584 8.58678e-05 -9.658972e-29)
(-0.0002227841 0.0001033414 -1.799219e-28)
(-0.0002700476 0.0001007396 1.187874e-28)
(-0.000304433 7.279698e-05 4.850834e-28)
(-0.000328919 -1.07991e-05 8.489975e-28)
(-0.0003526381 -0.0002142347 -1.438069e-27)
(-5.949505e-05 3.544168e-05 3.739064e-29)
(-0.0001581516 8.51582e-05 -1.792236e-30)
(-0.0002347994 0.0001055384 -1.027597e-28)
(-0.0002858809 0.0001050897 -9.80243e-29)
(-0.0003207355 8.351748e-05 -3.660086e-28)
(-0.0003451863 2.309906e-05 -1.003339e-27)
(-0.0003613222 -0.0001345468 -1.718777e-27)
(-4.781084e-05 2.84014e-05 2.19671e-31)
(-0.0001414307 7.533389e-05 -4.107226e-29)
(-0.0002248695 9.926223e-05 9.391479e-29)
(-0.0002814921 0.0001019463 3.657626e-29)
(-0.0003162893 8.363013e-05 -3.299748e-29)
(-0.0003365553 3.447003e-05 -5.953078e-29)
(-0.0003410731 -9.202022e-05 6.325e-27)
(-3.479482e-05 2.013236e-05 -1.529133e-30)
(-0.0001129704 5.958521e-05 -2.466112e-29)
(-0.0001947671 8.599008e-05 1.571977e-30)
(-0.0002558368 9.335829e-05 -6.800115e-29)
(-0.0002914277 7.850807e-05 3.575497e-28)
(-0.0003071131 3.68867e-05 2.550612e-27)
(-0.0003023699 -6.087408e-05 8.248668e-27)
(-2.304369e-05 1.308427e-05 -7.664552e-30)
(-8.067432e-05 4.279659e-05 1.667307e-29)
(-0.0001518226 6.875e-05 4.899471e-29)
(-0.0002130865 8.139527e-05 -2.597335e-33)
(-0.0002497303 7.259595e-05 4.321688e-28)
(-0.000263288 4.036656e-05 2.37884e-28)
(-0.0002560423 -2.935593e-05 -1.789597e-27)
(-1.38612e-05 8.029526e-06 0)
(-5.181761e-05 2.84403e-05 2.734793e-31)
(-0.0001062492 5.081373e-05 -1.776096e-28)
(-0.0001614838 6.71811e-05 -7.501693e-29)
(-0.0001993766 6.592882e-05 3.045671e-28)
(-0.0002145951 4.590756e-05 -3.92503e-29)
(-0.0002080351 3.7539e-06 -3.838082e-28)
(-8.056065e-06 4.865413e-06 0)
(-3.122985e-05 1.806752e-05 -3.57216e-29)
(-6.778596e-05 3.50714e-05 -6.40241e-29)
(-0.0001119949 5.193897e-05 5.501385e-29)
(-0.0001486147 5.80725e-05 9.851226e-29)
(-0.000165443 4.952566e-05 -2.110078e-30)
(-0.0001622469 2.907004e-05 1.679272e-27)
(-5.325339e-06 3.299766e-06 2.036181e-31)
(-1.962147e-05 1.197239e-05 0)
(-4.154469e-05 2.371116e-05 0)
(-7.190064e-05 3.811875e-05 -7.965645e-31)
(-0.0001026883 4.880287e-05 -2.974896e-29)
(-0.0001209897 5.039416e-05 7.435631e-29)
(-0.0001225295 4.469399e-05 6.797046e-28)
(-4.320274e-06 2.754521e-06 6.539315e-31)
(-1.420355e-05 9.294929e-06 -7.467356e-30)
(-2.661581e-05 1.718809e-05 -1.229245e-29)
(-4.423852e-05 2.771585e-05 -1.796603e-28)
(-6.580957e-05 3.920816e-05 -2.787664e-28)
(-8.333047e-05 4.767908e-05 -1.108501e-28)
(-8.953531e-05 5.213356e-05 1.10738e-31)
(-3.543165e-06 2.390654e-06 0)
(-1.104118e-05 7.998889e-06 -1.586919e-30)
(-1.882068e-05 1.409218e-05 0)
(-2.813411e-05 2.145255e-05 -2.643072e-29)
(-4.053058e-05 3.090357e-05 -4.403069e-29)
(-5.350972e-05 4.138134e-05 1.170904e-28)
(-6.127656e-05 5.165956e-05 -8.420467e-30)
(-2.773116e-06 2.06295e-06 0)
(-8.574317e-06 7.189433e-06 3.596725e-30)
(-1.404873e-05 1.25887e-05 -3.101732e-30)
(-1.92873e-05 1.828292e-05 0)
(-2.529779e-05 2.506373e-05 -5.227177e-29)
(-3.233612e-05 3.380318e-05 -1.868855e-28)
(-3.819294e-05 4.460027e-05 -1.28681e-28)
(-2.096654e-06 1.829827e-06 0)
(-6.31353e-06 6.485196e-06 9.347727e-30)
(-1.027269e-05 1.151143e-05 -2.27298e-31)
(-1.360473e-05 1.65289e-05 -1.660242e-29)
(-1.639226e-05 2.173764e-05 -3.317115e-29)
(-1.914326e-05 2.803097e-05 -1.163961e-29)
(-2.142508e-05 3.615824e-05 -3.143594e-28)
(-1.522327e-06 1.663535e-06 -2.206767e-30)
(-4.427611e-06 5.917001e-06 -2.626871e-30)
(-7.062608e-06 1.048018e-05 1.167086e-31)
(-9.190608e-06 1.516014e-05 1.46571e-29)
(-1.052254e-05 1.97509e-05 0)
(-1.113068e-05 2.454209e-05 0)
(-1.084231e-05 3.025931e-05 8.297543e-29)
(-1.062499e-06 1.531688e-06 -4.610556e-30)
(-2.960643e-06 5.438231e-06 1.475266e-31)
(-4.537402e-06 9.559731e-06 -3.331408e-30)
(-5.646902e-06 1.381858e-05 -3.702563e-30)
(-6.109179e-06 1.80977e-05 0)
(-5.665434e-06 2.237156e-05 0)
(-4.191362e-06 2.684026e-05 -1.684775e-29)
(-7.098658e-07 1.400623e-06 2.325345e-30)
(-1.875536e-06 4.994013e-06 -8.299861e-30)
(-2.67563e-06 8.707282e-06 -5.784944e-30)
(-3.016938e-06 1.255045e-05 -9.515413e-30)
(-2.779724e-06 1.647192e-05 3.621265e-29)
(-1.766598e-06 2.046839e-05 4.955927e-29)
(2.267169e-07 2.45048e-05 -1.83547e-29)
(-4.491848e-07 1.255335e-06 1.698019e-31)
(-1.09533e-06 4.530474e-06 -2.85839e-30)
(-1.371903e-06 7.869754e-06 5.759764e-30)
(-1.206037e-06 1.131588e-05 5.862609e-30)
(-4.954505e-07 1.487842e-05 0)
(8.559185e-07 1.85087e-05 -5.38107e-30)
(2.88805e-06 2.216406e-05 -4.62609e-30)
(-2.64292e-07 1.100024e-06 0)
(-5.54293e-07 4.044919e-06 -5.721307e-30)
(-4.96397e-07 7.023626e-06 -5.777761e-30)
(-1.318823e-08 1.012374e-05 3.783395e-29)
(9.483012e-07 1.330545e-05 4.827564e-29)
(2.425347e-06 1.652745e-05 -2.005216e-29)
(4.368671e-06 1.97576e-05 -1.594478e-29)
(-1.376911e-07 9.385087e-07 -2.247227e-30)
(-1.956614e-07 3.555783e-06 -2.861441e-30)
(6.381578e-08 6.186764e-06 0)
(7.157476e-07 8.941212e-06 -2.769311e-31)
(1.787125e-06 1.175686e-05 -3.628747e-30)
(3.224496e-06 1.458411e-05 -3.699561e-30)
(5.018058e-06 1.741636e-05 -1.169408e-29)
(-5.754502e-08 7.807366e-07 -3.365268e-30)
(2.335296e-08 3.083636e-06 -4.295757e-30)
(3.923937e-07 5.402995e-06 -3.743414e-29)
(1.105699e-06 7.812485e-06 -2.049523e-29)
(2.169386e-06 1.027437e-05 -9.347211e-30)
(3.525138e-06 1.275688e-05 0)
(5.136956e-06 1.523734e-05 1.16701e-29)
(-1.075556e-08 6.336949e-07 2.656391e-32)
(1.44209e-07 2.655177e-06 5.82978e-30)
(5.621359e-07 4.674898e-06 -4.706381e-30)
(1.280878e-06 6.770286e-06 0)
(2.277106e-06 8.913414e-06 3.069468e-30)
(3.516776e-06 1.109239e-05 0)
(4.942567e-06 1.327432e-05 -3.059171e-30)
(1.426309e-08 5.002741e-07 0)
(2.013318e-07 2.261374e-06 0)
(6.217921e-07 4.008565e-06 6.209902e-30)
(1.296901e-06 5.82219e-06 0)
(2.212704e-06 7.694792e-06 5.885845e-30)
(3.327354e-06 9.611023e-06 2.868117e-30)
(4.580342e-06 1.154265e-05 -2.940872e-30)
(2.328215e-08 3.846528e-07 2.337458e-30)
(2.122293e-07 1.909196e-06 0)
(6.080318e-07 3.412662e-06 5.911727e-30)
(1.227434e-06 4.986154e-06 1.220956e-31)
(2.05367e-06 6.623664e-06 2.833863e-30)
(3.044176e-06 8.312611e-06 5.489318e-30)
(4.142738e-06 1.003033e-05 2.802967e-30)
(2.58208e-08 2.802498e-07 3.487243e-30)
(2.032907e-07 1.601491e-06 4.287688e-30)
(5.606995e-07 2.89395e-06 0)
(1.115944e-06 4.259781e-06 3.074262e-30)
(1.850284e-06 5.693782e-06 5.832591e-30)
(2.721854e-06 7.186863e-06 -6.37157e-31)
(3.678694e-06 8.721219e-06 -1.779058e-29)
(2.247054e-08 1.902605e-07 2.208238e-30)
(1.804264e-07 1.334652e-06 2.811713e-30)
(4.97608e-07 2.447629e-06 -2.622205e-30)
(9.888057e-07 3.635076e-06 0)
(1.634879e-06 4.893965e-06 0)
(2.395837e-06 6.21927e-06 2.525141e-30)
(3.226602e-06 7.607092e-06 4.552287e-29)
(1.777682e-08 1.135522e-07 2.200531e-30)
(1.542808e-07 1.106846e-06 2.599367e-30)
(4.317094e-07 2.066376e-06 -2.6037e-30)
(8.627113e-07 3.101236e-06 0)
(1.428908e-06 4.210418e-06 5.842354e-30)
(2.094797e-06 5.392357e-06 5.217667e-35)
(2.827795e-06 6.656464e-06 -6.086196e-30)
(1.271363e-08 4.833865e-08 0)
(1.284194e-07 9.129056e-07 2.586721e-30)
(3.693467e-07 1.74175e-06 -2.424694e-30)
(7.460645e-07 2.646617e-06 0)
(1.241772e-06 3.628472e-06 -3.563309e-30)
(1.824672e-06 4.688467e-06 -1.179693e-29)
(2.464521e-06 5.838881e-06 -6.082291e-30)
(7.874173e-09 -7.159337e-09 -1.983767e-30)
(1.047699e-07 7.477801e-07 -1.46249e-30)
(3.132703e-07 1.465184e-06 -3.872557e-30)
(6.423025e-07 2.259363e-06 -2.924759e-30)
(1.076887e-06 3.133033e-06 -2.860611e-30)
(1.589242e-06 4.089604e-06 2.312795e-30)
(2.150417e-06 5.142345e-06 0)
(3.490208e-09 -5.456179e-08 -3.891594e-30)
(8.383324e-08 6.066506e-07 0)
(2.641237e-07 1.228645e-06 0)
(5.518242e-07 1.928201e-06 7.514791e-31)
(9.328985e-07 2.709611e-06 -1.425848e-30)
(1.383841e-06 3.584378e-06 2.324593e-30)
(1.879106e-06 4.553699e-06 0)
(-2.972871e-10 -9.548103e-08 -1.907891e-30)
(6.575927e-08 4.849404e-07 -1.465657e-30)
(2.218147e-07 1.024704e-06 -1.465305e-30)
(4.744091e-07 1.642502e-06 -2.995936e-30)
(8.115752e-07 2.343723e-06 -5.121388e-30)
(1.217672e-06 3.146072e-06 0)
(1.657896e-06 4.043675e-06 2.194998e-30)
(-3.635719e-09 -1.311764e-07 -5.830523e-31)
(5.006674e-08 3.786919e-07 -3.320509e-32)
(1.8516e-07 8.465215e-07 6.245001e-31)
(4.072637e-07 1.392757e-06 4.103313e-30)
(7.056634e-07 2.023593e-06 0)
(1.065338e-06 2.757172e-06 3.109224e-30)
(1.456208e-06 3.589604e-06 6.044414e-32)
(-6.631871e-09 -1.6287e-07 2.30824e-30)
(3.626113e-08 2.844007e-07 3.515731e-30)
(1.531661e-07 6.883439e-07 2.629931e-30)
(3.486552e-07 1.170995e-06 -9.279096e-31)
(6.134548e-07 1.739151e-06 -2.962373e-30)
(9.320493e-07 2.410715e-06 3.091721e-30)
(1.279733e-06 3.184e-06 8.817306e-31)
(-9.365418e-09 -1.915067e-07 1.717176e-30)
(2.407203e-08 1.991914e-07 4.103206e-30)
(1.249365e-07 5.452278e-07 2.007395e-30)
(2.96324e-07 9.702318e-07 0)
(5.294217e-07 1.484916e-06 -2.399263e-29)
(8.127676e-07 2.100617e-06 -3.012865e-29)
(1.124179e-06 2.81559e-06 -5.925796e-30)
(-1.183256e-08 -2.179575e-07 1.024267e-30)
(1.343263e-08 1.203517e-07 2.746067e-30)
(1.006839e-07 4.12662e-07 4.412295e-30)
(2.527303e-07 7.840417e-07 2.955581e-30)
(4.643021e-07 1.247562e-06 0)
(7.17741e-07 1.812209e-06 1.959106e-30)
(9.901717e-07 2.473526e-06 2.954083e-30)
(-1.401326e-08 -2.430411e-07 1.015749e-30)
(4.265139e-09 4.549873e-08 2.61967e-30)
(7.980001e-08 2.867194e-07 2.943797e-30)
(2.145329e-07 6.071836e-07 1.478758e-30)
(4.02717e-07 1.019987e-06 0)
(6.284629e-07 1.535036e-06 4.913551e-30)
(8.719044e-07 2.149154e-06 5.908724e-30)
(-1.583937e-08 -2.674668e-07 5.863932e-31)
(-3.17806e-09 -2.749587e-08 4.42781e-30)
(6.276731e-08 1.640398e-07 1.472953e-30)
(1.830506e-07 4.350985e-07 1.479672e-30)
(3.510744e-07 7.985621e-07 0)
(5.526816e-07 1.265766e-06 0)
(7.702845e-07 1.835032e-06 0)
(-1.71211e-08 -2.91929e-07 0)
(-8.364424e-09 -1.006542e-07 1.806925e-30)
(5.035337e-08 4.118767e-08 0)
(1.591848e-07 2.630041e-07 -4.705534e-30)
(3.101216e-07 5.777666e-07 -3.015772e-30)
(4.90794e-07 9.979853e-07 -2.972356e-30)
(6.853533e-07 1.523741e-06 -4.622268e-30)
(-1.767454e-08 -3.171256e-07 1.398318e-30)
(-1.076515e-08 -1.761525e-07 0)
(4.277315e-08 -8.550342e-08 2.956775e-30)
(1.408586e-07 8.651789e-08 -2.269948e-29)
(2.784788e-07 3.52817e-07 -2.222652e-29)
(4.431317e-07 7.2488e-07 0)
(6.176117e-07 1.207853e-06 -1.657774e-30)
(-1.720277e-08 -3.439614e-07 1.387415e-30)
(-8.982324e-09 -2.566966e-07 0)
(4.402178e-08 -2.20504e-07 1.481155e-30)
(1.397317e-07 -1.019147e-07 1.502703e-30)
(2.678622e-07 1.138175e-07 3.500345e-30)
(4.138392e-07 4.383979e-07 -1.619004e-30)
(5.687118e-07 8.79493e-07 1.569797e-30)
(-1.526264e-08 -3.735088e-07 0)
(-1.96771e-09 -3.455918e-07 3.05075e-30)
(5.408478e-08 -3.69164e-07 1.481831e-30)
(1.480066e-07 -3.086557e-07 -2.168516e-30)
(2.685382e-07 -1.467527e-07 1.698603e-30)
(4.019141e-07 1.302155e-07 -1.611285e-30)
(5.394721e-07 5.302138e-07 3.840936e-32)
(-1.115337e-08 -4.073063e-07 0)
(1.272967e-08 -4.47284e-07 1.555944e-30)
(7.714931e-08 -5.384581e-07 -1.503081e-30)
(1.737705e-07 -5.42488e-07 -6.536239e-31)
(2.896378e-07 -4.385127e-07 3.090324e-30)
(4.115066e-07 -2.102472e-07 2.961215e-30)
(5.319256e-07 1.500178e-07 -1.521511e-30)
(-3.729864e-09 -4.473057e-07 0)
(3.875274e-08 -5.679807e-07 0)
(1.186528e-07 -7.384958e-07 -1.486775e-30)
(2.229194e-07 -8.159995e-07 2.039823e-30)
(3.362843e-07 -7.74887e-07 3.992364e-32)
(4.464114e-07 -5.960308e-07 0)
(5.482172e-07 -2.727659e-07 0)
(8.993202e-09 -4.968261e-07 1.141805e-30)
(8.185351e-08 -7.173553e-07 -1.387417e-30)
(1.8688e-07 -9.840579e-07 -2.17723e-30)
(3.03906e-07 -1.146987e-06 5.250292e-31)
(4.152381e-07 -1.174075e-06 -3.851313e-32)
(5.110071e-07 -1.043692e-06 2.960916e-30)
(5.902152e-07 -7.519092e-07 9.234615e-36)
(3.034917e-08 -5.612047e-07 3.233188e-32)
(1.522945e-07 -9.107628e-07 -1.360541e-30)
(2.954537e-07 -1.297877e-06 -2.167112e-30)