/*--------------------------------*- C++ -*----------------------------------*\
| =========                 |                                                 |
| \\      /  F ield         | OpenFOAM: The Open Source CFD Toolbox           |
|  \\    /   O peration     | Version:  2206                                  |
|   \\  /    A nd           | Website:  www.openfoam.com                      |
|    \\/     M anipulation  |                                                 |
\*---------------------------------------------------------------------------*/
FoamFile
{
    version     2.0;
    format      ascii;
    arch        "LSB;label=32;scalar=64";
    class       volVectorField;
    location    "2";
    object      U.b;
}
// * * * * * * * * * * * * * * * * * * * * * * * * * * * * * * * * * * * * * //

dimensions      [0 1 -1 0 0 0 0];

internalField   nonuniform List<vector> 
13078
(
(-6.570569e-06 7.681931e-06 -3.250439e-27)
(-6.067747e-06 4.14354e-05 5.448296e-30)
(-5.260004e-06 2.350125e-05 2.502176e-27)
(-5.367027e-06 1.403625e-05 0)
(-5.506186e-06 8.120145e-06 5.302413e-28)
(-5.676972e-06 5.073001e-06 3.805977e-28)
(-5.86904e-06 2.867824e-06 2.667123e-28)
(1.854494e-05 4.067876e-06 0)
(2.393324e-06 2.992408e-05 -1.621037e-29)
(-1.361187e-06 2.169324e-05 0)
(-4.158691e-06 1.311987e-05 0)
(-5.145095e-06 8.146339e-06 2.645691e-30)
(-5.658514e-06 5.103611e-06 1.755693e-30)
(-5.995841e-06 2.865513e-06 4.004102e-30)
(3.810596e-05 6.068548e-06 2.534257e-27)
(1.42842e-05 1.6174e-05 -1.302808e-27)
(2.371605e-06 1.440764e-05 -7.268238e-28)
(-2.302481e-06 1.090862e-05 -1.181212e-27)
(-4.340935e-06 7.705061e-06 -4.588003e-28)
(-5.366656e-06 5.084962e-06 0)
(-5.948533e-06 2.956129e-06 1.420134e-33)
(2.251319e-05 4.681833e-06 1.315408e-27)
(1.100734e-05 1.051267e-05 -1.711429e-27)
(3.363359e-06 1.076837e-05 -9.413907e-28)
(-1.10471e-06 9.252162e-06 -1.932109e-28)
(-3.50627e-06 7.139473e-06 -1.221095e-30)
(-4.89198e-06 5.008146e-06 0)
(-5.716174e-06 3.064168e-06 -3.214488e-30)
(1.420578e-05 3.469188e-06 4.035732e-30)
(8.467947e-06 7.86513e-06 -5.62983e-28)
(3.388089e-06 8.722962e-06 -7.053583e-28)
(-2.994489e-07 8.018138e-06 -2.73379e-28)
(-2.780181e-06 6.576577e-06 3.765912e-28)
(-4.320212e-06 4.861137e-06 6.422294e-33)
(-5.341785e-06 3.1292e-06 -1.962517e-28)
(1.032663e-05 2.587357e-06 0)
(6.883726e-06 6.033747e-06 -1.352457e-29)
(3.246203e-06 7.126201e-06 1.738179e-29)
(1.979843e-07 6.929401e-06 -1.426922e-28)
(-2.080393e-06 5.955721e-06 -3.415366e-29)
(-3.744088e-06 4.61268e-06 2.28802e-28)
(-4.883325e-06 3.098237e-06 3.558322e-28)
(7.851259e-06 1.951653e-06 0)
(5.669539e-06 4.658017e-06 -3.430969e-28)
(3.037348e-06 5.779684e-06 -2.625885e-29)
(5.313222e-07 5.902857e-06 2.307007e-28)
(-1.538248e-06 5.278842e-06 -5.12628e-29)
(-3.157594e-06 4.225464e-06 -2.387371e-29)
(-4.422907e-06 2.955303e-06 0)
(6.130825e-06 1.502389e-06 6.348187e-28)
(4.683815e-06 3.621446e-06 -2.728579e-28)
(2.735309e-06 4.653896e-06 -1.97797e-28)
(7.134724e-07 4.922644e-06 0)
(-1.131675e-06 4.552666e-06 -5.118653e-29)
(-2.68349e-06 3.74684e-06 -1.937815e-29)
(-3.957568e-06 2.668555e-06 -1.502845e-29)
(4.876405e-06 1.18298e-06 -1.081363e-31)
(3.872751e-06 2.84187e-06 4.406821e-28)
(2.40411e-06 3.722206e-06 1.492172e-28)
(7.583944e-07 4.043435e-06 -1.758706e-29)
(-8.60422e-07 3.8272e-06 -1.135506e-28)
(-2.314039e-06 3.20187e-06 -1.523677e-29)
(-3.582214e-06 2.295322e-06 0)
(3.935985e-06 9.504022e-07 -4.027657e-28)
(3.205988e-06 2.245581e-06 3.587937e-28)
(2.070108e-06 2.9556e-06 1.368753e-28)
(7.15842e-07 3.26199e-06 -1.684638e-28)
(-7.025188e-07 3.126659e-06 3.442729e-31)
(-2.049867e-06 2.625793e-06 0)
(-3.288607e-06 1.851928e-06 0)
(3.220017e-06 7.753342e-07 0)
(2.662406e-06 1.779807e-06 0)
(1.756466e-06 2.321506e-06 2.27821e-28)
(6.212651e-07 2.573232e-06 -1.402276e-28)
(-6.307355e-07 2.465899e-06 -2.610393e-31)
(-1.878524e-06 2.04154e-06 0)
(-3.077217e-06 1.364463e-06 0)
(2.671302e-06 6.385666e-07 0)
(2.224464e-06 1.405863e-06 -2.443043e-28)
(1.476185e-06 1.789741e-06 1.892091e-28)
(5.014961e-07 1.964771e-06 1.222977e-28)
(-6.197886e-07 1.848726e-06 -1.313975e-29)
(-1.781289e-06 1.463768e-06 0)
(-2.941721e-06 8.511765e-07 -1.863546e-28)
(2.252509e-06 5.280708e-07 0)
(1.877242e-06 1.09671e-06 -2.010828e-28)
(1.23583e-06 1.334293e-06 4.356207e-30)
(3.756043e-07 1.42194e-06 9.257535e-29)
(-6.468746e-07 1.273996e-06 -8.119559e-30)
(-1.742622e-06 8.978041e-07 -8.399974e-29)
(-2.870325e-06 3.230212e-07 2.392442e-32)
(1.938779e-06 4.351661e-07 -1.940796e-28)
(1.60869e-06 8.324703e-07 0)
(1.037846e-06 9.351501e-07 2.594631e-30)
(2.539603e-07 9.313188e-07 2.329479e-30)
(-6.982771e-07 7.333151e-07 7.067884e-30)
(-1.748404e-06 3.45021e-07 -8.979917e-29)
(-2.851043e-06 -2.100153e-07 1.822971e-28)
(1.7131e-06 3.540135e-07 -1.695763e-28)
(1.410997e-06 5.986986e-07 0)
(8.852086e-07 5.731052e-07 2.034239e-30)
(1.544627e-07 4.722069e-07 5.257277e-29)
(-7.503554e-07 2.263199e-07 3.358835e-29)
(-1.781026e-06 -1.905995e-07 0)
(-2.873715e-06 -7.43894e-07 -1.858142e-28)
(1.564825e-06 2.812807e-07 0)
(1.276487e-06 3.859865e-07 -1.339304e-28)
(7.749985e-07 2.399475e-07 0)
(7.002273e-08 4.966989e-08 4.823013e-29)
(-8.101288e-07 -2.708844e-07 7.015498e-30)
(-1.835383e-06 -7.186277e-07 1.221212e-29)
(-2.930785e-06 -1.279411e-06 -1.717115e-28)
(1.485961e-06 2.122164e-07 0)
(1.20039e-06 1.852238e-07 -2.463297e-28)
(7.075207e-07 -7.613293e-08 -1.803958e-30)
(9.284884e-09 -3.605979e-07 -3.425078e-30)
(-8.704541e-07 -7.515343e-07 0)
(-1.905115e-06 -1.240903e-06 0)
(-3.017896e-06 -1.816803e-06 0)
(1.470272e-06 1.449498e-07 -1.380486e-28)
(1.180612e-06 -1.015699e-08 -1.185623e-28)
(6.815863e-07 -3.850435e-07 -6.283393e-30)
(-2.8179e-08 -7.646745e-07 -5.209928e-30)
(-9.269634e-07 -1.227265e-06 0)
(-1.987219e-06 -1.762688e-06 9.57742e-29)
(-3.133854e-06 -2.35765e-06 -5.884198e-29)
(1.51564e-06 7.830554e-08 -1.390984e-28)
(1.215145e-06 -2.050991e-07 -1.186929e-28)
(6.972285e-07 -6.947936e-07 -1.344605e-29)
(-4.124198e-08 -1.170905e-06 -1.400831e-29)
(-9.819664e-07 -1.706117e-06 0)
(-2.082107e-06 -2.289113e-06 1.248616e-28)
(-3.28118e-06 -2.905722e-06 -3.477992e-29)
(1.621563e-06 1.027674e-08 -1.457606e-28)
(1.303132e-06 -4.04757e-07 -2.446543e-28)
(7.551189e-07 -1.013378e-06 -8.217648e-29)
(-2.542781e-08 -1.592837e-06 0)
(-1.020732e-06 -2.209918e-06 1.97021e-28)
(-2.170308e-06 -2.818007e-06 3.217249e-28)
(-3.458207e-06 -3.46052e-06 8.057463e-29)
(1.787601e-06 -6.053901e-08 -1.580776e-28)
(1.444227e-06 -6.1266e-07 -2.61561e-28)
(8.541816e-07 -1.344041e-06 -1.695006e-28)
(1.500814e-08 -2.024931e-06 -6.177892e-30)
(-1.047244e-06 -2.706893e-06 2.914026e-29)
(-2.290728e-06 -3.382955e-06 1.511099e-28)
(-3.67354e-06 -4.034044e-06 -2.864926e-28)
(2.01316e-06 -1.35512e-07 0)
(1.637722e-06 -8.327349e-07 -1.410183e-28)
(9.935095e-07 -1.694201e-06 -8.949982e-29)
(7.789432e-08 -2.484538e-06 -6.468742e-29)
(-1.077753e-06 -3.245854e-06 0)
(-2.43453e-06 -3.970041e-06 1.613597e-28)
(-3.932084e-06 -4.629308e-06 1.045152e-30)
(2.296662e-06 -2.155625e-07 1.966833e-28)
(1.882022e-06 -1.067776e-06 0)
(1.171588e-06 -2.068091e-06 0)
(1.620961e-07 -2.974634e-06 2.958839e-29)
(-1.112265e-06 -3.819268e-06 -1.283946e-29)
(-2.613134e-06 -4.586686e-06 0)
(-4.24381e-06 -5.246562e-06 2.750437e-28)
(2.634046e-06 -3.010808e-07 4.460431e-28)
(2.173213e-06 -1.319072e-06 0)
(1.385115e-06 -2.468151e-06 0)
(2.658918e-07 -3.500532e-06 1.277557e-29)
(-1.14464e-06 -4.442133e-06 -1.499302e-28)
(-2.802342e-06 -5.270065e-06 1.711755e-28)
(-4.587611e-06 -5.882196e-06 0)
(3.016554e-06 -3.917679e-07 2.527343e-28)
(2.502845e-06 -1.585849e-06 8.337093e-30)
(1.625804e-06 -2.892967e-06 1.605535e-28)
(3.795694e-07 -4.056767e-06 4.071288e-29)
(-1.19055e-06 -5.088198e-06 5.341361e-29)
(-3.020227e-06 -5.937934e-06 1.809707e-28)
(-5.026594e-06 -6.571392e-06 0)
(3.428666e-06 -4.866298e-07 0)
(2.856247e-06 -1.866007e-06 -2.379681e-28)
(1.879786e-06 -3.341173e-06 1.664866e-28)
(4.896922e-07 -4.647386e-06 0)
(-1.266308e-06 -5.782912e-06 1.725121e-28)
(-3.311535e-06 -6.679383e-06 2.858507e-28)
(-5.567586e-06 -7.294758e-06 1.643827e-28)
(3.845523e-06 -5.83945e-07 -3.140429e-28)
(3.210378e-06 -2.155461e-06 -2.640396e-28)
(2.125522e-06 -3.807811e-06 1.83441e-28)
(5.766648e-07 -5.266571e-06 0)
(-1.387747e-06 -6.514245e-06 -1.356033e-28)
(-3.685231e-06 -7.461118e-06 1.833572e-32)
(-6.234905e-06 -8.047639e-06 1.8387e-28)
(4.230621e-06 -6.813335e-07 -3.395908e-28)
(3.53261e-06 -2.447823e-06 -2.83696e-28)
(2.330968e-06 -4.285821e-06 1.973992e-28)
(6.095493e-07 -5.907583e-06 0)
(-1.583701e-06 -7.279733e-06 0)
(-4.15514e-06 -8.30018e-06 2.458437e-28)
(-6.994315e-06 -8.892307e-06 -2.106585e-27)
(4.533043e-06 -7.748423e-07 -3.586984e-28)
(3.775279e-06 -2.737533e-06 -3.097168e-28)
(2.450202e-06 -4.769001e-06 0)
(5.411007e-07 -6.562301e-06 -7.248e-29)
(-1.908172e-06 -8.061221e-06 -1.740307e-28)
(-4.79574e-06 -9.129875e-06 7.840838e-28)
(-7.985696e-06 -9.619455e-06 6.885782e-28)
(4.687681e-06 -8.682897e-07 -3.523282e-28)
(3.889821e-06 -3.011852e-06 0)
(2.428689e-06 -5.253168e-06 -2.372422e-28)
(3.102635e-07 -7.235311e-06 -4.030685e-29)
(-2.428904e-06 -8.880129e-06 1.487276e-28)
(-5.683655e-06 -1.002782e-05 7.224142e-28)
(-9.304238e-06 -1.049479e-05 5.984674e-28)
(4.646607e-06 -9.486802e-07 0)
(3.773525e-06 -3.296861e-06 0)
(2.192167e-06 -5.750058e-06 -2.763112e-28)
(-1.616006e-07 -7.943373e-06 0)
(-3.235683e-06 -9.748486e-06 4.642322e-28)
(-6.905562e-06 -1.097735e-05 4.70964e-28)
(-1.098538e-05 -1.142957e-05 -7.357045e-28)
(4.325529e-06 -1.046914e-06 -2.845369e-28)
(3.379684e-06 -3.620219e-06 1.501224e-28)
(1.672163e-06 -6.271463e-06 2.10432e-29)
(-9.658383e-07 -8.721159e-06 0)
(-4.461262e-06 -1.071095e-05 3.697424e-28)
(-8.646391e-06 -1.198993e-05 0)
(-1.329942e-05 -1.230606e-05 -1.591926e-27)
(3.676679e-06 -1.155751e-06 -1.781461e-28)
(2.706989e-06 -3.971432e-06 8.946323e-29)
(7.687967e-07 -6.978655e-06 -2.586489e-28)
(-2.183541e-06 -9.659064e-06 -4.65017e-28)
(-6.257404e-06 -1.190069e-05 8.839046e-28)
(-1.115394e-05 -1.322303e-05 3.338605e-28)
(-1.661683e-05 -1.333614e-05 -3.662105e-28)
(2.683785e-06 -1.305574e-06 8.275714e-30)
(1.688835e-06 -4.466335e-06 2.702356e-29)
(-4.695134e-07 -7.855525e-06 -6.658041e-29)
(-3.970371e-06 -1.101249e-05 -1.456915e-27)
(-8.797567e-06 -1.356131e-05 2.600794e-28)
(-1.472356e-05 -1.496643e-05 7.66933e-28)
(-2.138614e-05 -1.476816e-05 1.667005e-27)
(1.406857e-06 -1.528966e-06 -9.603639e-30)
(3.972447e-07 -5.219914e-06 -3.128743e-29)
(-2.047033e-06 -9.275465e-06 -7.123163e-28)
(-6.235433e-06 -1.316508e-05 -3.664578e-27)
(-1.221093e-05 -1.611848e-05 -3.910917e-27)
(-1.967032e-05 -1.774742e-05 -2.889292e-27)
(-2.816303e-05 -1.717737e-05 0)
(-1.275559e-08 -1.860362e-06 0)
(-1.010229e-06 -6.334646e-06 0)
(-3.817539e-06 -1.137698e-05 -7.942992e-28)
(-8.852411e-06 -1.632017e-05 -5.667368e-28)
(-1.624324e-05 -2.04502e-05 2.776784e-27)
(-2.616397e-05 -2.244935e-05 1.606343e-27)
(-3.735267e-05 -2.165802e-05 0)
(-1.34374e-06 -2.349507e-06 -2.691455e-29)
(-2.284465e-06 -7.987812e-06 8.826848e-29)
(-5.525487e-06 -1.452724e-05 3.114879e-28)
(-1.163608e-05 -2.114209e-05 0)
(-2.090421e-05 -2.679517e-05 -5.502629e-27)
(-3.365e-05 -3.007229e-05 -1.356367e-27)
(-4.899841e-05 -2.960802e-05 -2.909522e-27)
(-2.27551e-06 -3.045575e-06 7.10201e-28)
(-3.054602e-06 -1.033484e-05 1.073738e-28)
(-6.700033e-06 -1.901567e-05 1.523665e-27)
(-1.39712e-05 -2.81226e-05 0)
(-2.535598e-05 -3.638118e-05 -2.151546e-27)
(-4.131855e-05 -4.233654e-05 -1.791108e-26)
(-6.344944e-05 -4.301394e-05 -1.973031e-26)
(-2.469631e-06 -3.974245e-06 8.229634e-28)
(-2.841357e-06 -1.344058e-05 1.286009e-27)
(-6.664197e-06 -2.496193e-05 1.851153e-27)
(-1.499767e-05 -3.745765e-05 -1.414939e-27)
(-2.901414e-05 -4.954726e-05 -3.723217e-27)
(-5.007791e-05 -5.922241e-05 -1.35757e-26)
(-8.025137e-05 -6.320918e-05 -1.028742e-26)
(-1.6505e-06 -5.118933e-06 0)
(-1.143058e-06 -1.71216e-05 -1.631355e-27)
(-4.601745e-06 -3.227354e-05 -2.100523e-27)
(-1.394981e-05 -4.962336e-05 8.888157e-28)
(-3.154724e-05 -6.778663e-05 3.201672e-27)
(-5.951343e-05 -8.397383e-05 -3.035595e-27)
(-9.90519e-05 -9.444946e-05 0)
(3.849954e-07 -6.187859e-06 -7.04143e-28)
(2.256856e-06 -2.127173e-05 -4.060096e-27)
(-2.60761e-08 -4.064349e-05 -5.046089e-27)
(-1.02912e-05 -6.521797e-05 -7.917117e-27)
(-3.211958e-05 -9.260197e-05 3.656477e-27)
(-6.786305e-05 -0.0001186367 -1.519595e-26)
(-0.0001220475 -0.0001386182 -6.852427e-27)
(3.112435e-06 -7.003125e-06 -6.204246e-28)
(7.333007e-06 -2.486027e-05 -2.262096e-28)
(6.421755e-06 -5.099262e-05 0)
(-3.884455e-06 -8.457165e-05 8.215104e-28)
(-2.876026e-05 -0.0001249948 -1.69643e-26)
(-7.42444e-05 -0.0001683596 -1.389291e-26)
(-0.0001611397 -0.0002227561 -8.677437e-27)
(4.879821e-06 -7.481449e-06 5.079291e-28)
(1.203343e-05 -2.832245e-05 5.257494e-28)
(1.412196e-05 -6.179624e-05 1.084682e-27)
(5.289589e-06 -0.000109415 -2.839927e-27)
(-2.373083e-05 -0.0001665324 -2.014891e-26)
(-9.474395e-05 -0.0002523078 -3.875573e-26)
(-0.0002402249 -0.000380183 -4.696394e-30)
(2.478523e-06 -7.988041e-06 9.300672e-28)
(1.318087e-05 -3.231608e-05 0)
(1.974446e-05 -7.462164e-05 2.722119e-27)
(1.478681e-05 -0.0001378758 4.723321e-27)
(-2.936073e-05 -0.0002387838 3.277266e-26)
(-0.000152653 -0.0003935259 -5.869705e-26)
(-0.0003589534 -0.0006175323 3.398812e-26)
(-7.899062e-06 -8.958949e-06 0)
(7.393372e-06 -3.832933e-05 1.65686e-27)
(1.912462e-05 -9.094345e-05 3.479476e-27)
(8.308089e-06 -0.0001855787 4.102052e-30)
(-7.019356e-05 -0.0003539455 -3.470616e-30)
(-0.0002388451 -0.0006030426 -1.386517e-25)
(-0.000504203 -0.0008910061 -2.436424e-25)
(-2.882688e-05 -1.173946e-05 0)
(-6.254933e-06 -4.995095e-05 3.706206e-32)
(5.589889e-06 -0.0001240514 9.651986e-27)
(-3.448862e-05 -0.0002715989 1.145393e-28)
(-0.0001523591 -0.0005180329 -3.008251e-26)
(-0.0003577846 -0.0008423045 5.971528e-26)
(-0.0006375525 -0.001208803 -4.624305e-28)
(-6.057294e-05 -1.663465e-05 9.577552e-27)
(-2.80533e-05 -7.238204e-05 -8.319245e-28)
(-2.841426e-05 -0.0001909147 -3.465418e-27)
(-0.0001049862 -0.0004090799 -1.287251e-29)
(-0.0002672368 -0.0007182974 -1.813638e-30)
(-0.0005028341 -0.001106248 1.382332e-25)
(-0.0007955648 -0.001496566 -3.464202e-26)
(-0.000100934 -2.353528e-05 1.511198e-26)
(-6.182225e-05 -0.0001135384 -1.796076e-26)
(-8.390221e-05 -0.0002929463 9.908758e-27)
(-0.0001912854 -0.0005792145 1.713278e-26)
(-0.0003800795 -0.0009719456 -1.855812e-29)
(-0.0006421948 -0.001407775 -9.643818e-26)
(-0.0009489794 -0.001805736 -3.125302e-25)
(-0.0001443297 -3.662965e-05 9.732996e-31)
(-0.0001081058 -0.0001767634 -5.683698e-26)
(-0.0001520428 -0.0004186108 -4.447383e-26)
(-0.0002772621 -0.0007719935 3.285049e-26)
(-0.0004842138 -0.001225595 3.339467e-26)
(-0.0007448357 -0.00171574 -1.282021e-25)
(-0.0009993176 -0.002127663 1.339392e-25)
(-0.0001808324 -5.750364e-05 6.772658e-28)
(-0.0001546608 -0.0002567126 -6.350957e-26)
(-0.0002156176 -0.0005583489 3.726929e-28)
(-0.0003480903 -0.0009800498 6.278759e-26)
(-0.0005501026 -0.00148925 2.997812e-29)
(-0.000762928 -0.002001416 -1.103702e-25)
(-0.0009036142 -0.002429198 2.46288e-25)
(-0.0002038297 -8.717175e-05 1.78674e-26)
(-0.0001875837 -0.0003502489 -2.405061e-27)
(-0.0002526081 -0.0007025808 6.868598e-26)
(-0.0003817548 -0.001184875 3.50585e-26)
(-0.000552523 -0.001717041 1.098902e-29)
(-0.0006667279 -0.002231948 2.723827e-29)
(-0.0006621995 -0.002676128 9.877572e-26)
(-0.000213009 -0.000118381 1.431065e-26)
(-0.0002027891 -0.0004377106 1.81746e-30)
(-0.0002587682 -0.0008612453 -2.042657e-29)
(-0.0003748587 -0.001375317 2.114533e-25)
(-0.0004905199 -0.001900909 6.086488e-25)
(-0.0005102032 -0.002415335 8.421105e-25)
(-0.0004325249 -0.002841847 2.023302e-25)
(-0.0002048623 -0.000151135 -2.190902e-30)
(-0.0001987337 -0.0005179601 3.81316e-30)
(-0.0002436415 -0.0009798254 3.61878e-32)
(-0.000333335 -0.001517783 -2.126752e-29)
(-0.0003978172 -0.002031869 6.155599e-26)
(-0.0003735045 -0.002533773 7.14676e-26)
(-0.0002939001 -0.002949761 -1.011882e-25)
(-0.0001722996 -0.0001802111 -1.026571e-30)
(-0.0001693416 -0.000588124 3.930136e-27)
(-0.0002000832 -0.001081995 -9.019975e-27)
(-0.0002560947 -0.001630006 2.62352e-32)
(-0.000288886 -0.002142832 7.146827e-26)
(-0.0002644114 -0.002627724 7.983918e-28)
(-0.0002103533 -0.003017255 3.3596e-28)
(-0.000120041 -0.0002003953 6.763465e-28)
(-0.0001191095 -0.0006361751 -6.459264e-27)
(-0.0001342758 -0.00115089 -1.108504e-26)
(-0.0001590054 -0.001706286 1.319545e-26)
(-0.0001683854 -0.002219223 1.567639e-26)
(-0.000158789 -0.002693114 -4.554562e-28)
(-0.0001541735 -0.003074436 -3.025267e-28)
(-6.618045e-05 -0.000212342 2.219558e-28)
(-6.499053e-05 -0.0006595118 -9.142947e-27)
(-6.266717e-05 -0.001179126 7.186465e-27)
(-5.526177e-05 -0.001736198 -1.502774e-26)
(-4.060126e-05 -0.002249457 4.999946e-26)
(-3.644991e-05 -0.0027289 1.030146e-25)
(-6.241891e-05 -0.003136036 9.947293e-26)
(-1.425445e-05 -0.000210878 2.697857e-29)
(-8.548546e-06 -0.0006507263 -8.378346e-27)
(1.334957e-05 -0.001158341 9.535041e-29)
(5.517787e-05 -0.001708737 -1.807507e-26)
(0.0001020058 -0.002218011 4.010572e-27)
(0.0001268581 -0.002703771 1.04263e-25)
(0.0001243604 -0.003128613 1.495487e-25)
(3.737454e-05 -0.0001935006 -4.69189e-31)
(4.396819e-05 -0.0006055328 -2.2968e-30)
(8.099848e-05 -0.001084208 1.382842e-26)
(0.000153544 -0.001614522 2.633412e-26)
(0.0002370641 -0.002105941 -9.284801e-27)
(0.0002926721 -0.002572847 2.045325e-26)
(0.0003267926 -0.002971426 -3.370148e-26)
(7.614382e-05 -0.0001687195 5.659395e-27)
(7.498065e-05 -0.0005381029 -3.611698e-27)
(0.0001174838 -0.0009730632 1.222015e-26)
(0.0002095405 -0.001471141 -2.787275e-26)
(0.0003243599 -0.001940574 -7.103646e-26)
(0.0004015948 -0.002376798 3.776865e-27)
(0.0004424272 -0.002726941 6.396058e-26)
(9.292546e-05 -0.000139495 7.765488e-27)
(8.055523e-05 -0.0004582315 1.147461e-26)
(0.0001206236 -0.0008414187 2.914074e-26)
(0.0002231211 -0.001295703 -2.171152e-26)
(0.0003606096 -0.001744646 -3.062366e-26)
(0.0004648246 -0.002151344 9.669549e-26)
(0.0005105259 -0.00246178 9.584282e-26)
(9.3283e-05 -0.0001079548 7.947566e-27)
(7.095748e-05 -0.0003752514 2.194804e-26)
(0.0001062065 -0.0007085983 -4.401466e-26)
(0.0002055038 -0.001101703 -1.695853e-25)
(0.0003421089 -0.001529448 -3.224129e-26)
(0.0004627888 -0.001921284 1.757919e-28)
(0.0005066507 -0.002220389 2.845951e-25)
(8.288445e-05 -7.585499e-05 1.055447e-26)
(4.869044e-05 -0.000286194 4.956227e-27)
(7.625214e-05 -0.0005606582 3.283259e-26)
(0.000151683 -0.0009181227 -2.573046e-26)
(0.0002700295 -0.001327101 -2.985214e-26)
(0.0003898628 -0.001725996 4.920053e-27)
(0.0004434653 -0.00204553 1.543544e-27)
(6.148928e-05 -4.702069e-05 2.953194e-30)
(1.341697e-05 -0.0002065312 -3.4229e-26)
(2.120398e-05 -0.0004541161 6.866697e-27)
(7.773696e-05 -0.0007777448 4.090012e-26)
(0.0001809669 -0.001161578 -5.653406e-26)
(0.000304903 -0.001562349 -7.317798e-26)
(0.0004003485 -0.001912373 -8.596623e-26)
(3.282257e-05 -2.973674e-05 1.383728e-32)
(-2.339672e-05 -0.0001472392 -2.653934e-26)
(-3.064648e-05 -0.0003597112 -1.130529e-26)
(1.766983e-05 -0.0006523227 -1.860326e-26)
(0.000119696 -0.001009035 -2.032706e-30)
(0.0002565803 -0.001399409 -6.68701e-26)
(0.000401109 -0.001768091 6.510028e-28)
(5.836909e-06 -2.165488e-05 4.782301e-27)
(-4.71327e-05 -0.0001054327 -7.798038e-27)
(-6.370815e-05 -0.0002751065 9.504883e-32)
(-2.003382e-05 -0.0005301888 -5.937705e-30)
(8.115723e-05 -0.0008609572 3.081081e-29)
(0.0002319958 -0.001227867 1.971057e-25)
(0.0004224038 -0.001585885 3.153505e-25)
(-1.324063e-05 -1.816283e-05 1.496808e-27)
(-5.29293e-05 -7.896476e-05 -2.264737e-27)
(-7.518075e-05 -0.0002034521 -3.362835e-27)
(-4.246262e-05 -0.0004154231 -1.579451e-34)
(5.249016e-05 -0.0006951123 -3.550907e-26)
(0.0002124332 -0.001028901 2.242991e-29)
(0.0004327048 -0.001358266 -1.638761e-28)
(-2.164323e-05 -1.547175e-05 0)
(-4.678481e-05 -6.450451e-05 1.639232e-32)
(-6.768967e-05 -0.000154713 -1.155419e-29)
(-5.066508e-05 -0.0003116843 1.881333e-26)
(3.194822e-05 -0.0005427951 2.969266e-26)
(0.0001934714 -0.0008128124 -2.492431e-30)
(0.0004261658 -0.001097722 1.546343e-25)
(-1.921543e-05 -1.413645e-05 0)
(-3.460006e-05 -5.48578e-05 -1.812951e-27)
(-4.655497e-05 -0.0001241487 -3.952955e-27)
(-3.835358e-05 -0.0002347734 3.745689e-30)
(2.932147e-05 -0.0003976365 2.07864e-26)
(0.0001720871 -0.0006020813 -3.488185e-30)
(0.000392387 -0.000811793 2.556591e-25)
(-8.235754e-06 -1.315651e-05 4.063827e-28)
(-1.71686e-05 -4.770686e-05 0)
(-2.016987e-05 -0.0001012426 0)
(-8.820491e-06 -0.0001777957 -1.074106e-26)
(3.934607e-05 -0.0002835707 -5.275548e-26)
(0.0001504259 -0.0004155748 6.636045e-30)
(0.0003250471 -0.0005660978 1.991968e-25)
(7.166975e-06 -1.202167e-05 1.79037e-27)
(2.238026e-06 -4.088615e-05 -6.241125e-28)
(4.544449e-06 -8.110638e-05 -1.218406e-27)
(2.038279e-05 -0.0001357622 -1.644384e-26)
(5.834831e-05 -0.000199693 -5.495416e-26)
(0.0001325772 -0.0002789764 -1.63409e-26)
(0.0002631766 -0.0003654106 5.729924e-26)
(2.239021e-05 -1.034542e-05 0)
(2.030798e-05 -3.401887e-05 -3.893446e-27)
(2.521692e-05 -6.403366e-05 0)
(4.148683e-05 -0.0001000121 -3.024737e-27)
(7.365474e-05 -0.0001428505 -4.331772e-27)
(0.0001271204 -0.0001871885 7.894285e-30)
(0.0002139171 -0.0002289589 -5.141319e-31)
(3.461785e-05 -8.232269e-06 0)
(3.43373e-05 -2.686931e-05 5.037233e-27)
(4.018913e-05 -4.83092e-05 -6.288563e-27)
(5.496388e-05 -7.318086e-05 0)
(8.175191e-05 -0.0001001068 -6.292307e-27)
(0.0001235782 -0.0001252303 -3.295224e-26)
(0.0001817447 -0.0001444361 8.15798e-29)
(4.287486e-05 -6.050988e-06 0)
(4.341461e-05 -1.955755e-05 1.663105e-26)
(4.94915e-05 -3.526119e-05 -1.979114e-29)
(6.245508e-05 -5.19341e-05 1.355849e-26)
(8.40437e-05 -6.784753e-05 -4.478548e-27)
(0.0001156352 -8.16792e-05 -1.450146e-26)
(0.0001589259 -8.977021e-05 -2.778843e-26)
(4.72088e-05 -4.020549e-06 -5.242478e-27)
(4.810996e-05 -1.332609e-05 5.471845e-27)
(5.373072e-05 -2.4053e-05 9.937196e-30)
(6.48476e-05 -3.479647e-05 1.679476e-26)
(8.199084e-05 -4.40859e-05 0)
(0.0001059825 -5.025799e-05 0)
(0.0001395248 -4.999145e-05 3.617576e-26)
(4.828826e-05 -2.420754e-06 -5.273417e-27)
(4.927827e-05 -8.289042e-06 5.506686e-27)
(5.408719e-05 -1.508914e-05 -6.293446e-27)
(6.325919e-05 -2.151913e-05 -7.373643e-27)
(7.684052e-05 -2.636629e-05 0)
(9.506444e-05 -2.79742e-05 0)
(0.0001200579 -2.36008e-05 1.075266e-26)
(4.691239e-05 -1.216671e-06 5.024924e-27)
(4.786523e-05 -4.482394e-06 5.029353e-27)
(5.181856e-05 -8.284632e-06 -2.113983e-28)
(5.902568e-05 -1.162493e-05 -6.872587e-27)
(6.960605e-05 -1.338754e-05 2.379434e-27)
(8.411359e-05 -1.19084e-05 2.058491e-26)
(0.0001007317 -5.897814e-06 -1.111525e-26)
(4.388747e-05 -3.626543e-07 4.641725e-27)
(4.473788e-05 -1.765896e-06 -3.909817e-29)
(4.785265e-05 -3.504438e-06 1.397622e-28)
(5.340759e-05 -4.703527e-06 1.935351e-28)
(6.150869e-05 -4.436349e-06 0)
(7.204063e-05 -1.57767e-06 6.94393e-27)
(8.358126e-05 4.754309e-06 -8.261223e-27)
(3.987853e-05 2.118705e-07 0)
(4.060466e-05 4.753362e-08 -5.148671e-29)
(4.301499e-05 -3.189974e-07 -8.917963e-29)
(4.720528e-05 -1.450248e-07 -8.71454e-27)
(5.340964e-05 1.263701e-06 1.349433e-27)
(6.063642e-05 4.664348e-06 -1.226715e-26)
(6.87612e-05 1.063986e-05 -6.764242e-27)
(3.542526e-05 5.700832e-07 -4.040313e-30)
(3.602399e-05 1.191597e-06 -1.522934e-29)
(3.788474e-05 1.669084e-06 0)
(4.112489e-05 2.663466e-06 -9.521889e-31)
(4.545849e-05 4.630098e-06 -4.511553e-27)
(5.068838e-05 8.038899e-06 -4.863656e-27)
(5.635654e-05 1.339279e-05 -8.241523e-29)
(3.090301e-05 7.757059e-07 -3.222762e-27)
(3.139e-05 1.85385e-06 3.237654e-27)
(3.279484e-05 2.830423e-06 -6.931159e-27)
(3.526731e-05 4.198578e-06 6.805699e-27)
(3.839907e-05 6.35855e-06 -3.770945e-27)
(4.219008e-05 9.583417e-06 0)
(4.615224e-05 1.425645e-05 9.642113e-30)
(2.654947e-05 8.796664e-07 -2.758623e-27)
(2.692914e-05 2.201979e-06 2.780609e-27)
(2.805893e-05 3.395331e-06 -2.84012e-27)
(2.983882e-05 4.977064e-06 0)
(3.220788e-05 7.101023e-06 3.065831e-27)
(3.497397e-05 1.003962e-05 0)
(3.777177e-05 1.405567e-05 -3.306293e-27)
(2.250344e-05 9.132879e-07 0)
(2.282277e-05 2.3193e-06 0)
(2.365703e-05 3.633509e-06 4.748935e-27)
(2.502002e-05 5.226156e-06 0)
(2.681619e-05 7.234184e-06 5.022324e-27)
(2.885504e-05 9.861642e-06 2.586285e-27)
(3.083977e-05 1.330287e-05 -2.63509e-27)
(1.881101e-05 9.208898e-07 1.945649e-27)
(1.907426e-05 2.319778e-06 0)
(1.97167e-05 3.635917e-06 1.963681e-27)
(2.077103e-05 5.171428e-06 -2.001319e-27)
(2.213839e-05 7.019395e-06 2.043044e-27)
(2.365976e-05 9.32713e-06 4.163182e-27)
(2.50932e-05 1.223717e-05 2.095239e-27)
(1.550464e-05 8.950548e-07 1.600223e-27)
(1.569699e-05 2.268046e-06 1.594667e-27)
(1.620952e-05 3.521174e-06 0)
(1.703142e-05 4.955655e-06 -1.631498e-27)
(1.808618e-05 6.620265e-06 -1.200713e-29)
(1.924099e-05 8.617599e-06 3.34421e-27)
(2.030106e-05 1.10339e-05 9.133119e-29)
(1.254671e-05 8.643014e-07 1.294634e-27)
(1.269191e-05 2.172775e-06 1.286265e-27)
(1.309782e-05 3.345786e-06 -1.289228e-27)
(1.374396e-05 4.665269e-06 0)
(1.456859e-05 6.150122e-06 0)
(1.545411e-05 7.888742e-06 1.3094e-27)
(1.621354e-05 9.976429e-06 -1.468149e-27)
(9.912349e-06 8.285355e-07 1.022041e-27)
(1.001882e-05 2.063701e-06 1.012799e-27)
(1.033984e-05 3.147482e-06 -1.011093e-27)
(1.085217e-05 4.348158e-06 0)
(1.150295e-05 5.66047e-06 -1.683485e-29)
(1.219202e-05 7.146907e-06 -1.339377e-31)
(1.279033e-05 8.861579e-06 2.749569e-29)
(7.564212e-06 7.921149e-07 0)
(7.640042e-06 1.952331e-06 7.698639e-28)
(7.893673e-06 2.947761e-06 -7.660455e-28)
(8.303834e-06 4.031875e-06 0)
(8.8232e-06 5.182863e-06 7.780139e-28)
(9.3673e-06 6.443323e-06 4.133642e-29)
(9.826069e-06 7.847554e-06 2.423799e-29)
(5.468018e-06 7.577619e-07 -5.643428e-28)
(5.519588e-06 1.846283e-06 2.327657e-30)
(5.720689e-06 2.757557e-06 -5.454511e-28)
(6.052513e-06 3.73341e-06 7.710487e-30)
(6.474351e-06 4.738191e-06 8.620533e-30)
(6.913897e-06 5.801368e-06 5.249797e-28)
(7.279074e-06 6.940544e-06 0)
(3.592266e-06 7.264033e-07 -7.433999e-28)
(3.624355e-06 1.749587e-06 0)
(3.784989e-06 2.583887e-06 0)
(4.057463e-06 3.462398e-06 -3.579882e-28)
(4.404779e-06 4.34185e-06 -6.937877e-28)
(4.754365e-06 5.245719e-06 3.275753e-28)
(5.07702e-06 6.140702e-06 0)
(1.908481e-06 6.986507e-07 -1.991723e-28)
(1.925366e-06 1.663468e-06 2.503833e-30)
(2.055175e-06 2.429199e-06 3.350858e-30)
(2.28429e-06 3.221806e-06 8.222973e-30)
(2.581059e-06 3.988308e-06 -1.611769e-28)
(2.895208e-06 4.736844e-06 0)
(3.151284e-06 5.46611e-06 1.353649e-28)
(3.91343e-07 6.747888e-07 7.36638e-31)
(3.967533e-07 1.589025e-06 3.907956e-29)
(5.047368e-07 2.295128e-06 3.253148e-29)
(7.036253e-07 3.013198e-06 4.734524e-29)
(9.66111e-07 3.682657e-06 0)
(1.247847e-06 4.306801e-06 4.343617e-30)
(1.486172e-06 4.882911e-06 -1.335462e-31)
(-9.812929e-07 6.551643e-07 -9.648899e-29)
(-9.837728e-07 1.527609e-06 -2.069762e-28)
(-8.893193e-07 2.183879e-06 -2.154503e-28)
(-7.084075e-07 2.839387e-06 -1.053232e-28)
(-4.6488e-07 3.428114e-06 8.585869e-30)
(-1.981292e-07 3.948173e-06 -1.27492e-28)
(4.191469e-08 4.396381e-06 1.315552e-28)
(-2.22945e-06 6.403867e-07 -2.22725e-28)
(-2.236523e-06 1.480983e-06 -4.606579e-28)
(-2.148623e-06 2.098656e-06 -2.345326e-28)
(-1.976888e-06 2.705797e-06 0)
(-1.749866e-06 3.232337e-06 7.368036e-29)
(-1.474827e-06 3.658607e-06 8.045486e-29)
(-1.221386e-06 4.00067e-06 1.109765e-29)
(-3.371448e-06 6.308461e-07 -3.377282e-28)
(-3.379953e-06 1.45014e-06 -3.46794e-28)
(-3.291981e-06 2.04e-06 -1.160657e-29)
(-3.118368e-06 2.608758e-06 -9.070393e-30)
(-2.880163e-06 3.078278e-06 0)
(-2.607069e-06 3.441176e-06 -3.45817e-28)
(-2.329241e-06 3.690479e-06 -5.562228e-30)
(-4.424082e-06 6.270849e-07 -4.442501e-28)
(-4.430699e-06 1.436371e-06 -4.522983e-28)
(-4.336277e-06 2.009229e-06 -8.264746e-30)
(-4.152732e-06 2.550338e-06 -4.860556e-30)
(-3.901624e-06 2.978456e-06 0)
(-3.609903e-06 3.285221e-06 -4.465261e-28)
(-3.303716e-06 3.461526e-06 -1.201494e-29)
(-5.403263e-06 6.29856e-07 -8.612711e-31)
(-5.404274e-06 1.44172e-06 -1.098637e-27)
(-5.296394e-06 2.009355e-06 -4.493093e-30)
(-5.093658e-06 2.534181e-06 -5.307772e-30)
(-4.818223e-06 2.931325e-06 0)
(-4.496852e-06 3.191184e-06 0)
(-4.158803e-06 3.305586e-06 0)
(-6.324579e-06 6.40014e-07 0)
(-6.315486e-06 1.468424e-06 -6.40004e-28)
(-6.18573e-06 2.042884e-06 0)
(-5.954031e-06 2.5622e-06 6.370516e-28)
(-5.64331e-06 2.937548e-06 1.222973e-29)
(-5.284356e-06 3.157901e-06 1.100407e-29)
(-4.908342e-06 3.217164e-06 5.816891e-28)
(-7.204178e-06 6.588155e-07 -7.251894e-28)
(-7.179312e-06 1.520348e-06 0)
(-7.019043e-06 2.116567e-06 -1.115864e-29)
(-6.754066e-06 2.642194e-06 8.050311e-28)
(-6.386487e-06 2.999925e-06 -5.644891e-28)
(-5.981845e-06 3.182874e-06 0)
(-5.561344e-06 3.189928e-06 6.327564e-28)
(-8.058674e-06 6.877461e-07 -8.11075e-28)
(-8.010013e-06 1.600653e-06 0)
(-7.805366e-06 2.231765e-06 -6.313643e-30)
(-7.4783e-06 2.76956e-06 -7.602039e-30)
(-7.057671e-06 3.117515e-06 -1.499843e-27)
(-6.593992e-06 3.263943e-06 7.175399e-28)
(-6.122568e-06 3.21833e-06 -6.845948e-28)
(-8.905632e-06 7.290198e-07 0)
(-8.821947e-06 1.714932e-06 -8.980914e-28)
(-8.556593e-06 2.39528e-06 -7.251647e-30)
(-8.154937e-06 2.953927e-06 8.499256e-28)
(-7.657826e-06 3.29271e-06 -8.112482e-28)
(-7.123098e-06 3.401657e-06 7.70551e-28)
(-6.59301e-06 3.297475e-06 -1.642296e-31)
(-9.765055e-06 7.863057e-07 0)
(-9.629981e-06 1.872222e-06 -9.759844e-28)
(-9.279944e-06 2.618545e-06 9.509558e-28)
(-8.778091e-06 3.203301e-06 9.065556e-28)
(-8.182382e-06 3.528828e-06 -8.779433e-28)
(-7.564164e-06 3.591972e-06 -2.093601e-29)
(-6.969434e-06 3.419188e-06 7.677851e-28)
(-1.066146e-05 8.645352e-07 0)
(-1.045077e-05 2.084777e-06 0)
(-9.982517e-06 2.914948e-06 1.02675e-27)
(-9.347627e-06 3.527576e-06 -9.804967e-28)
(-8.628023e-06 3.830134e-06 -3.144512e-31)
(-7.911192e-06 3.8322e-06 0)
(-7.246583e-06 3.574709e-06 0)
(-1.162658e-05 9.714319e-07 -1.170557e-27)
(-1.130234e-05 2.370275e-06 1.151442e-27)
(-1.066763e-05 3.302675e-06 5.636322e-28)
(-9.856699e-06 3.938474e-06 -1.028115e-27)
(-8.983481e-06 4.199299e-06 3.638819e-31)
(-8.15346e-06 4.11676e-06 -2.927126e-29)
(-7.416836e-06 3.752313e-06 1.660177e-32)
(-1.270302e-05 1.119083e-06 -6.847936e-32)