/*--------------------------------*- C++ -*----------------------------------*\
| =========                 |                                                 |
| \\      /  F ield         | OpenFOAM: The Open Source CFD Toolbox           |
|  \\    /   O peration     | Version:  2206                                  |
|   \\  /    A nd           | Website:  www.openfoam.com                      |
|    \\/     M anipulation  |                                                 |
\*---------------------------------------------------------------------------*/
FoamFile
{
    version     2.0;
    format      ascii;
    arch        "LSB;label=32;scalar=64";
    class       volVectorField;
    location    "2";
    object      U.b_0;
}
// * * * * * * * * * * * * * * * * * * * * * * * * * * * * * * * * * * * * * //

dimensions      [0 1 -1 0 0 0 0];

internalField   nonuniform List<vector> 
13078
(
(-6.428448e-06 7.101117e-06 -3.202226e-27)
(-6.036102e-06 4.139187e-05 5.317654e-30)
(-5.221759e-06 2.305012e-05 2.477744e-27)
(-5.329274e-06 1.359689e-05 0)
(-5.469212e-06 7.628801e-06 5.20005e-28)
(-5.641475e-06 4.505758e-06 3.692582e-28)
(-5.837256e-06 2.227105e-06 2.543768e-28)
(1.890593e-05 4.067031e-06 0)
(2.440832e-06 2.967851e-05 -1.618849e-29)
(-1.256906e-06 2.131962e-05 0)
(-4.035529e-06 1.270146e-05 0)
(-5.021736e-06 7.655292e-06 2.501789e-30)
(-5.542613e-06 4.532144e-06 1.686543e-30)
(-5.89125e-06 2.218113e-06 3.876605e-30)
(3.815434e-05 6.007324e-06 2.534902e-27)
(1.442865e-05 1.598069e-05 -1.309289e-27)
(2.57906e-06 1.410409e-05 -7.198572e-28)
(-2.080779e-06 1.050834e-05 -1.163938e-27)
(-4.126628e-06 7.210698e-06 -4.483433e-28)
(-5.166528e-06 4.502708e-06 0)
(-5.768069e-06 2.292498e-06 1.345047e-33)
(2.280765e-05 4.619138e-06 1.330789e-27)
(1.132848e-05 1.032721e-05 -1.743967e-27)
(3.696632e-06 1.047288e-05 -9.742439e-28)
(-7.796695e-07 8.848883e-06 -2.089988e-28)
(-3.194762e-06 6.631089e-06 -7.094533e-31)
(-4.602202e-06 4.406153e-06 0)
(-5.454933e-06 2.37486e-06 -3.002294e-30)
(1.466403e-05 3.405051e-06 3.99012e-30)
(8.931268e-06 7.67486e-06 -5.863154e-28)
(3.844685e-06 8.413927e-06 -7.501541e-28)
(1.391885e-07 7.596191e-06 -3.1687e-28)
(-2.365656e-06 6.049618e-06 3.839394e-28)
(-3.934734e-06 4.230894e-06 5.419849e-33)
(-4.993646e-06 2.404757e-06 -1.819184e-28)
(1.092538e-05 2.5203e-06 0)
(7.481334e-06 5.833986e-06 -1.324706e-29)
(3.831359e-06 6.79976e-06 1.693339e-29)
(7.601554e-07 6.481903e-06 -1.692153e-28)
(-1.551697e-06 5.394444e-06 -3.261759e-29)
(-3.257014e-06 3.946063e-06 2.147152e-28)
(-4.44171e-06 2.329241e-06 3.229384e-28)
(8.594808e-06 1.880641e-06 0)
(6.407615e-06 4.445453e-06 -3.784204e-28)
(3.757148e-06 5.430369e-06 -6.780087e-29)
(1.223127e-06 5.423908e-06 2.202975e-28)
(-8.878681e-07 4.675983e-06 -7.929936e-29)
(-2.557601e-06 3.508142e-06 -2.191157e-29)
(-3.881673e-06 2.132862e-06 0)
(7.027749e-06 1.426195e-06 7.208775e-28)
(5.572205e-06 3.392923e-06 -3.149703e-28)
(3.601022e-06 4.277756e-06 -2.383175e-28)
(1.543584e-06 4.404555e-06 0)
(-3.514565e-07 3.899817e-06 -1.216615e-28)
(-1.962598e-06 2.969369e-06 -1.720807e-29)
(-3.304787e-06 1.777065e-06 -1.255718e-29)
(5.938624e-06 1.1005e-06 -9.801814e-32)
(4.9235e-06 2.593319e-06 5.397282e-28)
(3.427576e-06 3.312819e-06 1.980328e-28)
(1.738693e-06 3.478251e-06 -1.595951e-29)
(6.116324e-08 3.114297e-06 -2.772002e-28)
(-1.461587e-06 2.354243e-06 -1.282207e-29)
(-2.810245e-06 1.323325e-06 0)
(5.178233e-06 8.598876e-07 -5.20923e-28)
(4.433946e-06 1.973401e-06 4.74321e-28)
(3.265966e-06 2.506432e-06 1.924181e-28)
(1.860513e-06 2.641625e-06 -2.724893e-28)
(3.744163e-07 2.344521e-06 2.817484e-31)
(-1.053821e-06 1.694512e-06 0)
(-2.387023e-06 7.846376e-07 0)
(4.659882e-06 6.755045e-07 0)
(4.085918e-06 1.479639e-06 0)
(3.141484e-06 1.826088e-06 3.564942e-28)
(1.948022e-06 1.888729e-06 -2.609255e-28)
(6.16357e-07 1.602263e-06 -1.880536e-31)
(-7.254313e-07 1.012824e-06 0)
(-2.033147e-06 1.865076e-07 0)
(4.330092e-06 5.282739e-07 0)
(3.864473e-06 1.073021e-06 -3.989092e-28)
(3.071769e-06 1.240784e-06 3.378605e-28)
(2.028397e-06 1.206033e-06 2.591463e-28)
(8.152752e-07 8.902619e-07 -1.452066e-28)
(-4.55347e-07 3.222809e-07 0)
(-1.739833e-06 -4.54133e-07 -7.608711e-29)
(4.154936e-06 4.055915e-07 0)
(3.757558e-06 7.268072e-07 -3.80205e-28)
(3.065278e-06 7.224073e-07 2.472119e-30)
(2.124561e-06 5.765016e-07 2.526347e-28)
(9.966228e-07 2.064756e-07 -1.565214e-28)
(-2.2352e-07 -3.719114e-07 5.013852e-29)
(-1.493429e-06 -1.127454e-06 1.422595e-31)
(4.113741e-06 2.984429e-07 -4.032026e-28)
(3.756269e-06 4.192983e-07 0)
(3.12676e-06 2.511234e-07 4.649403e-31)
(2.251254e-06 -1.352807e-08 -6.085389e-31)
(1.179407e-06 -4.574573e-07 -3.338268e-28)
(-1.31e-08 -1.07092e-06 6.441505e-29)
(-1.279995e-06 -1.828465e-06 4.679068e-29)
(4.192826e-06 1.993481e-07 -4.093898e-28)
(3.857805e-06 1.345249e-07 0)
(3.265435e-06 -1.930189e-07 -2.776571e-30)
(2.42924e-06 -5.867097e-07 3.086271e-28)
(1.393502e-06 -1.102616e-06 -9.776092e-29)
(1.951144e-07 -1.774259e-06 0)
(-1.085519e-06 -2.554474e-06 -3.069494e-29)
(4.384735e-06 1.06409e-07 0)
(4.060268e-06 -1.356172e-07 -4.01731e-28)
(3.482897e-06 -6.181525e-07 0)
(2.661484e-06 -1.133509e-06 2.986998e-28)
(1.627105e-06 -1.761977e-06 1.644999e-29)
(4.104555e-07 -2.494404e-06 2.343499e-29)
(-8.991469e-07 -3.30928e-06 1.88174e-29)
(4.688134e-06 1.59316e-08 0)
(4.362991e-06 -4.007842e-07 -8.589564e-28)
(3.783041e-06 -1.04049e-06 -4.902956e-30)
(2.95272e-06 -1.689476e-06 -7.69384e-30)
(1.896411e-06 -2.426412e-06 0)
(6.436779e-07 -3.235295e-06 0)
(-7.129288e-07 -4.096334e-06 0)
(5.103942e-06 -7.515452e-08 -4.960449e-28)
(4.768738e-06 -6.689014e-07 -4.696035e-28)
(4.170595e-06 -1.470227e-06 -1.332686e-29)
(3.310541e-06 -2.25945e-06 -1.005468e-29)
(2.210472e-06 -3.110803e-06 0)
(9.024547e-07 -4.005439e-06 -1.823676e-28)
(-5.216825e-07 -4.920939e-06 -9.178034e-29)
(5.636192e-06 -1.692734e-07 -5.480061e-28)
(5.282554e-06 -9.467027e-07 -5.192899e-28)
(4.651935e-06 -1.916972e-06 -2.543514e-29)
(3.742488e-06 -2.854093e-06 -2.500803e-29)
(2.571795e-06 -3.826245e-06 0)
(1.192819e-06 -4.812841e-06 -1.766212e-28)
(-3.234422e-07 -5.791118e-06 -5.347997e-29)
(6.291358e-06 -2.687008e-07 -6.128683e-28)
(5.911372e-06 -1.240575e-06 -1.156179e-27)
(5.235183e-06 -2.391104e-06 -5.200517e-28)
(4.260817e-06 -3.491125e-06 0)
(3.002207e-06 -4.604395e-06 3.168835e-28)
(1.546811e-06 -5.654807e-06 5.020863e-28)
(-1.107129e-07 -6.710467e-06 1.229574e-28)
(7.077596e-06 -3.751952e-07 -6.915881e-28)
(6.663065e-06 -1.555306e-06 -1.29956e-27)
(5.927092e-06 -2.897519e-06 -1.163192e-27)
(4.868694e-06 -4.163488e-06 -4.636758e-28)
(3.516467e-06 -5.396709e-06 4.692575e-29)
(1.916198e-06 -6.584665e-06 -2.351317e-28)
(1.125639e-07 -7.698692e-06 3.353167e-29)
(8.004119e-06 -4.907207e-07 0)
(7.546427e-06 -1.896705e-06 -7.30137e-28)
(6.735953e-06 -3.447561e-06 -6.530383e-28)
(5.571206e-06 -4.898273e-06 -1.140096e-27)
(4.087964e-06 -6.28077e-06 0)
(2.324368e-06 -7.583016e-06 -2.793373e-28)
(3.493663e-07 -8.763751e-06 1.631525e-30)
(9.080451e-06 -6.167683e-07 8.895817e-28)
(8.570745e-06 -2.269316e-06 0)
(7.671045e-06 -4.047951e-06 0)
(6.378628e-06 -5.699955e-06 4.737507e-29)
(4.732473e-06 -7.245422e-06 5.768774e-28)
(2.767377e-06 -8.663812e-06 0)
(5.996932e-07 -9.910859e-06 -1.727664e-28)
(1.031506e-05 -7.544042e-07 2.025793e-27)
(9.744322e-06 -2.676387e-06 0)
(8.740926e-06 -4.704384e-06 0)
(7.300893e-06 -6.578885e-06 6.902738e-28)
(5.470047e-06 -8.314759e-06 1.116917e-27)
(3.283689e-06 -9.888055e-06 -4.109497e-28)
(9.069652e-07 -1.113741e-05 0)
(1.171326e-05 -9.040484e-07 1.152967e-27)
(1.107237e-05 -3.119245e-06 1.351858e-29)
(9.950453e-06 -5.418635e-06 1.010486e-27)
(8.340434e-06 -7.53245e-06 6.420167e-29)
(6.296303e-06 -9.456769e-06 8.368377e-29)
(3.884911e-06 -1.113242e-05 -4.852729e-28)
(1.190401e-06 -1.25142e-05 0)
(1.327524e-05 -1.065488e-06 0)
(1.255559e-05 -3.598171e-06 -1.236001e-27)
(1.130067e-05 -6.193615e-06 1.125191e-27)
(9.498202e-06 -8.572607e-06 0)
(7.205724e-06 -1.071754e-05 -6.004273e-28)
(4.505334e-06 -1.254736e-05 4.450163e-28)
(1.466288e-06 -1.401304e-05 2.554215e-28)
(1.499348e-05 -1.237723e-06 -1.482002e-27)
(1.418821e-05 -4.111363e-06 -1.400929e-27)
(1.278691e-05 -7.028051e-06 1.274222e-27)
(1.077147e-05 -9.697533e-06 0)
(8.201145e-06 -1.208523e-05 -2.115061e-28)
(5.164163e-06 -1.408712e-05 -1.013357e-31)
(1.726992e-06 -1.563742e-05 2.872381e-28)
(1.685005e-05 -1.419089e-06 -1.669673e-27)
(1.595726e-05 -4.65399e-06 -1.577129e-27)
(1.439566e-05 -7.918667e-06 1.43991e-27)
(1.214728e-05 -1.090616e-05 0)
(9.270996e-06 -1.356558e-05 0)
(5.869251e-06 -1.578371e-05 -7.429696e-28)
(2.034771e-06 -1.749182e-05 -2.134466e-27)
(1.88145e-05 -1.60492e-06 -1.874803e-27)
(1.783626e-05 -5.222469e-06 -1.790975e-27)
(1.61015e-05 -8.863189e-06 0)
(1.359844e-05 -1.219586e-05 1.185653e-27)
(1.037859e-05 -1.514505e-05 -2.715001e-28)
(6.555263e-06 -1.755229e-05 -1.356641e-27)
(2.262562e-06 -1.924238e-05 1.084136e-27)
(2.083877e-05 -1.804986e-06 -2.073119e-27)
(1.980765e-05 -5.794393e-06 0)
(1.787546e-05 -9.857168e-06 -1.875948e-27)
(1.508887e-05 -1.357863e-05 1.437817e-27)
(1.148275e-05 -1.686549e-05 -1.263906e-27)
(7.170046e-06 -1.953857e-05 -1.849585e-27)
(2.295363e-06 -2.139331e-05 -5.371101e-28)
(2.291833e-05 -1.988141e-06 0)
(2.176475e-05 -6.420069e-06 0)
(1.9669e-05 -1.091524e-05 -3.933274e-27)
(1.656851e-05 -1.507319e-05 0)
(1.25268e-05 -1.873906e-05 -2.758571e-27)
(7.674075e-06 -2.170821e-05 -9.986147e-28)
(2.192449e-06 -2.376728e-05 5.64686e-28)
(2.496577e-05 -2.209781e-06 -2.514642e-27)
(2.368915e-05 -7.122953e-06 2.289059e-27)
(2.145537e-05 -1.201645e-05 2.077255e-27)
(1.798685e-05 -1.669875e-05 0)
(1.340992e-05 -2.080839e-05 -1.469478e-27)
(7.912297e-06 -2.407032e-05 0)
(1.69571e-06 -2.621441e-05 -4.844127e-28)
(2.695432e-05 -2.441746e-06 -2.695994e-27)
(2.564944e-05 -7.834105e-06 2.546012e-27)
(2.309839e-05 -1.340438e-05 6.8039e-27)
(1.932259e-05 -1.851449e-05 4.097175e-27)
(1.402448e-05 -2.319862e-05 -1.052813e-27)
(7.682469e-06 -2.680389e-05 5.22737e-28)
(4.747226e-07 -2.903332e-05 -5.845715e-28)
(2.886865e-05 -2.718234e-06 1.308138e-29)
(2.752492e-05 -8.706387e-06 4.182225e-29)
(2.476407e-05 -1.48951e-05 2.718782e-27)
(2.034936e-05 -2.084101e-05 3.460708e-27)
(1.424522e-05 -2.613848e-05 -2.484038e-27)
(6.748372e-06 -3.018363e-05 1.190959e-27)
(-1.837384e-06 -3.246381e-05 2.655824e-27)
(3.076722e-05 -3.065142e-06 -1.48337e-29)
(2.940066e-05 -9.840737e-06 -4.745894e-29)
(2.637195e-05 -1.698225e-05 2.223926e-27)
(2.122486e-05 -2.401901e-05 -1.996491e-27)
(1.403994e-05 -2.994831e-05 -5.721105e-27)
(4.88501e-06 -3.468287e-05 -8.368841e-28)
(-5.722704e-06 -3.706354e-05 0)
(3.276875e-05 -3.504002e-06 0)
(3.142347e-05 -1.128898e-05 0)
(2.809148e-05 -1.966576e-05 2.637414e-27)
(2.222113e-05 -2.802439e-05 3.060827e-27)
(1.355635e-05 -3.570675e-05 7.866765e-27)
(2.081535e-06 -4.109205e-05 6.455687e-27)
(-1.1462e-05 -4.390327e-05 0)
(3.505613e-05 -4.072418e-06 -3.865208e-29)
(3.379825e-05 -1.319645e-05 1.236951e-28)
(3.013264e-05 -2.329088e-05 4.342438e-28)
(2.334925e-05 -3.35972e-05 0)
(1.30282e-05 -4.312432e-05 1.675145e-27)
(-1.26755e-06 -5.051101e-05 -1.921536e-27)
(-1.892578e-05 -5.433904e-05 -4.286605e-27)
(3.785735e-05 -4.799796e-06 -3.691677e-27)
(3.682337e-05 -1.566295e-05 1.449858e-28)
(3.292562e-05 -2.806182e-05 -2.760632e-27)
(2.524483e-05 -4.114139e-05 0)
(1.313315e-05 -5.374058e-05 2.41467e-27)
(-4.196435e-06 -6.456317e-05 -1.784128e-26)
(-2.816882e-05 -7.011707e-05 -2.678206e-26)
(4.138248e-05 -5.689753e-06 -4.003614e-27)
(4.088262e-05 -1.868853e-05 -3.455203e-27)
(3.706983e-05 -3.399637e-05 -2.894549e-27)
(2.87097e-05 -5.066724e-05 -1.781025e-27)
(1.445223e-05 -6.745672e-05 -4.717656e-27)
(-7.386781e-06 -8.248569e-05 -1.101805e-26)
(-3.91155e-05 -9.265911e-05 -1.354779e-26)
(4.574578e-05 -6.721413e-06 0)
(4.634995e-05 -2.202019e-05 3.483402e-27)
(4.324978e-05 -4.092452e-05 3.097589e-27)
(3.43197e-05 -6.257671e-05 1.070541e-27)
(1.705821e-05 -8.578106e-05 -2.480836e-27)
(-1.095834e-05 -0.0001079901 -3.708627e-27)
(-5.146702e-05 -0.0001257361 0)
(5.101989e-05 -7.559076e-06 4.922424e-27)
(5.317268e-05 -2.564677e-05 6.936896e-27)
(5.16973e-05 -4.847578e-05 2.062286e-28)
(4.231866e-05 -7.738492e-05 3.408802e-27)
(2.134873e-05 -0.0001100015 -2.532949e-27)
(-1.373278e-05 -0.0001423145 -1.019891e-26)
(-6.78787e-05 -0.0001696413 -1.114273e-26)
(5.640411e-05 -8.091514e-06 5.314898e-27)
(6.121702e-05 -2.843843e-05 -2.521536e-28)
(6.130767e-05 -5.782879e-05 0)
(5.240124e-05 -9.553773e-05 9.698511e-28)
(2.877857e-05 -0.0001413542 -4.84831e-27)
(-1.586882e-05 -0.0001911874 1.007933e-28)
(-0.0001025699 -0.0002533452 5.010686e-29)
(6.001158e-05 -8.249972e-06 -5.656991e-27)
(6.799393e-05 -3.109752e-05 5.650945e-28)
(7.137278e-05 -6.749822e-05 1.172121e-27)
(6.403416e-05 -0.0001192836 -1.613452e-26)
(3.661825e-05 -0.0001819581 -4.445463e-26)
(-3.395655e-05 -0.0002751192 2.244869e-26)
(-0.0001803588 -0.0004124377 4.14869e-27)
(5.837378e-05 -8.466746e-06 -5.335659e-27)
(7.024884e-05 -3.435736e-05 0)
(7.824121e-05 -7.941535e-05 2.880353e-27)
(7.50322e-05 -0.0001468406 6.020854e-27)
(3.204323e-05 -0.0002544296 -8.621703e-27)
(-9.109925e-05 -0.0004180835 4.695554e-26)
(-0.0002997512 -0.0006539455 1.855229e-29)
(4.760719e-05 -9.268165e-06 0)
(6.440512e-05 -3.993081e-05 1.722487e-27)
(7.767852e-05 -9.515753e-05 3.646231e-27)
(6.862297e-05 -0.0001946182 1.184994e-26)
(-9.511602e-06 -0.0003708355 -1.783159e-26)
(-0.000178519 -0.0006309339 -1.44774e-25)
(-0.0004473632 -0.0009343402 -4.973734e-25)
(2.530955e-05 -1.203321e-05 0)
(4.961288e-05 -5.151648e-05 6.196886e-31)
(6.284895e-05 -0.000128462 -9.59097e-30)
(2.370032e-05 -0.0002821892 -1.890806e-26)
(-9.371449e-05 -0.0005378674 -1.945725e-29)
(-0.0003001159 -0.0008746937 1.373733e-29)
(-0.0005837378 -0.001263088 -6.546881e-25)
(-8.673482e-06 -1.704311e-05 3.762517e-27)
(2.553987e-05 -7.447239e-05 -4.051392e-27)
(2.594798e-05 -0.000197129 3.606878e-27)
(-5.033768e-05 -0.0004223114 -6.079098e-26)
(-0.0002124395 -0.0007412685 -2.97317e-29)
(-0.0004496113 -0.001143927 -7.608408e-26)
(-0.0007460844 -0.001560446 -1.080406e-25)
(-5.207571e-05 -2.433621e-05 1.82404e-26)
(-1.132706e-05 -0.000117213 -2.886971e-26)
(-3.332982e-05 -0.0003020548 -2.385234e-26)
(-0.0001413864 -0.0005961066 -4.964525e-30)
(-0.0003319535 -0.0009994681 -4.92927e-26)
(-0.0005975545 -0.0014516 -3.453033e-25)
(-0.0009113054 -0.001880576 -8.929062e-25)
(-9.928487e-05 -3.803764e-05 5.030846e-28)
(-6.158682e-05 -0.0001828677 -2.016634e-26)
(-0.0001060776 -0.0004321917 -3.353665e-26)
(-0.0002337169 -0.0007947152 -2.837751e-31)
(-0.0004451231 -0.001260258 7.725545e-26)
(-0.0007138393 -0.001769766 -1.076132e-25)
(-0.0009829892 -0.002214922 -6.193063e-25)
(-0.0001406405 -5.996022e-05 -2.163772e-26)
(-0.0001132446 -0.0002663848 6.360028e-30)
(-0.0001758474 -0.0005777346 1.744166e-26)
(-0.0003122458 -0.001010488 -3.232124e-26)
(-0.0005219189 -0.0015363 8.223742e-26)
(-0.0007491817 -0.00207331 1.049479e-25)
(-0.0009084436 -0.002527977 -1.266383e-25)
(-0.0001690406 -9.116521e-05 1.243459e-26)
(-0.0001517038 -0.000364566 -6.678104e-30)
(-0.0002192825 -0.0007282919 -1.163577e-29)
(-0.0003534499 -0.001225216 -6.459901e-26)
(-0.000535362 -0.001780526 5.256554e-27)
(-0.0006651755 -0.002320923 6.680135e-27)
(-0.0006713074 -0.002792371 -1.059523e-25)
(-0.0001838514 -0.0001236493 1.282518e-26)
(-0.0001723949 -0.0004561532 1.564852e-26)
(-0.0002306924 -0.0008936677 -1.213125e-25)
(-0.0003529023 -0.001428141 -1.529035e-25)
(-0.0004800425 -0.001980061 -4.357083e-26)
(-0.0005087115 -0.002520682 -4.419922e-26)
(-0.000424374 -0.002974526 -4.278335e-25)
(-0.0001812145 -0.0001576019 -1.187102e-26)
(-0.00017339 -0.0005397891 2.207227e-26)
(-0.000220416 -0.001018451 -5.682223e-27)
(-0.0003153764 -0.001581098 -4.092575e-26)
(-0.0003877611 -0.002120622 8.213181e-26)
(-0.000364744 -0.002649305 1.418745e-25)
(-0.0002696682 -0.003086609 -1.786208e-25)
(-0.0001531758 -0.0001877415 -8.943174e-27)
(-0.0001485907 -0.0006130243 1.387503e-26)
(-0.000180428 -0.001125489 1.538326e-26)
(-0.0002392639 -0.001699322 4.262746e-31)
(-0.000275084 -0.002235762 -2.351318e-26)
(-0.000248473 -0.002744769 5.381292e-26)
(-0.0001792831 -0.00314871 5.265794e-26)
(-0.0001036021 -0.0002090143 7.18623e-28)
(-0.0001017631 -0.0006632178 1.467565e-26)
(-0.0001169572 -0.001197315 1.821676e-26)
(-0.0001426463 -0.001778687 -4.912303e-30)
(-0.0001523358 -0.002313387 -6.812441e-26)
(-0.0001397753 -0.002807816 -1.081647e-25)
(-0.0001280198 -0.003199487 -5.197369e-26)
(-5.142699e-05 -0.0002217763 8.868486e-29)
(-4.987738e-05 -0.0006878248 -1.484588e-30)
(-4.725766e-05 -0.001226856 -6.769694e-30)
(-3.957873e-05 -0.001809762 1.235699e-29)
(-2.407768e-05 -0.002344734 5.321447e-26)
(-1.899988e-05 -0.002843946 5.472503e-26)
(-4.718956e-05 -0.003263639 -1.879552e-27)
(-1.339587e-06 -0.0002200555 -7.44986e-28)
(4.237272e-06 -0.0006783472 -3.068624e-27)
(2.696534e-05 -0.001205 1.726787e-26)
(7.080755e-05 -0.001780893 -2.204674e-26)
(0.0001205491 -0.002313543 4.774163e-27)
(0.0001456379 -0.002822482 1.110874e-25)
(0.0001360168 -0.003267299 5.494977e-26)
(4.751861e-05 -0.0002015252 -3.547231e-27)
(5.332681e-05 -0.0006301887 -1.260529e-26)
(9.194638e-05 -0.001125908 -2.844614e-27)
(0.0001685964 -0.00167981 2.711407e-30)
(0.0002589435 -0.00219614 2.919175e-26)
(0.0003188421 -0.002688381 -6.060369e-29)
(0.0003454819 -0.003111642 -1.904704e-29)
(8.097568e-05 -0.0001751202 -1.110525e-26)
(7.836624e-05 -0.0005582873 -1.031429e-26)
(0.0001226724 -0.001007268 -1.951183e-26)
(0.000219843 -0.001524659 1.949775e-26)
(0.0003445431 -0.002018542 5.128586e-26)
(0.0004310977 -0.002478498 -5.357873e-26)
(0.00046888 -0.002855004 -2.346896e-25)
(8.923069e-05 -0.0001440998 -5.513408e-28)
(7.483543e-05 -0.0004734385 -1.68841e-27)
(0.0001159983 -0.0008674392 -2.956505e-26)
(0.0002227911 -0.00133581 -3.509938e-26)
(0.0003688136 -0.001806198 -7.724594e-26)
(0.0004846449 -0.002234854 -6.395219e-26)
(0.0005366049 -0.002570023 2.343812e-25)
(7.871036e-05 -0.0001107571 -5.040362e-29)
(5.395704e-05 -0.0003857065 5.223187e-30)
(8.859041e-05 -0.0007275566 -7.954621e-27)
(0.0001893406 -0.001131427 1.233741e-25)
(0.0003291962 -0.001576465 3.757376e-26)
(0.0004582674 -0.001990668 1.284149e-25)
(0.0005103286 -0.002314902 2.331356e-25)
(5.629592e-05 -7.687397e-05 -9.111969e-27)
(1.921718e-05 -0.0002926529 -9.569608e-27)
(4.54016e-05 -0.00057531 -6.937206e-26)
(0.0001190141 -0.0009429497 2.624528e-26)
(0.0002357778 -0.00136706 9.987623e-26)
(0.0003570381 -0.001788876 8.086823e-26)
(0.000416185 -0.002141996 -9.025205e-26)
(2.326232e-05 -4.689767e-05 8.515861e-27)
(-2.807437e-05 -0.0002093547 -1.792236e-30)
(-2.24714e-05 -0.0004649296 -1.435619e-26)
(3.151201e-05 -0.0008003577 -2.271885e-26)
(0.0001315938 -0.001199882 -6.468057e-26)
(0.0002537435 -0.001625451 -8.357759e-26)
(0.000352803 -0.002018058 -8.487067e-26)
(-1.516352e-05 -2.916097e-05 1.01622e-29)
(-7.484626e-05 -0.0001484055 -7.872342e-27)
(-8.478235e-05 -0.0003674168 1.174654e-26)
(-3.89645e-05 -0.0006722222 -9.526227e-27)
(6.099853e-05 -0.001045854 -3.299748e-29)
(0.0001967858 -0.001460691 -5.953078e-29)
(0.0003463679 -0.00187384 3.958181e-25)
(-4.94403e-05 -2.10969e-05 -1.058395e-29)
(-0.0001058654 -0.0001058523 -1.570372e-27)
(-0.0001250671 -0.0002809617 1.571977e-30)
(-8.379938e-05 -0.0005470185 -2.108686e-26)
(1.671628e-05 -0.000894603 8.794815e-26)
(0.0001681978 -0.001284011 2.711823e-25)
(0.0003644915 -0.001677939 5.448109e-25)
(-7.365725e-05 -1.786159e-05 -5.291483e-27)
(-0.0001164526 -7.936567e-05 7.733816e-28)
(-0.0001414477 -0.0002081397 3.495703e-27)
(-0.0001107529 -0.0004291251 -2.597335e-33)
(-1.638846e-05 -0.0007233785 9.800925e-26)
(0.0001453442 -0.00107718 4.897706e-26)
(0.0003716829 -0.001434052 -1.459748e-25)
(-8.541534e-05 -1.537293e-05 0)
(-0.0001130777 -6.526411e-05 2.734793e-31)
(-0.0001366839 -0.0001588451 -1.055968e-26)
(-0.0001219769 -0.0003231161 -6.914632e-27)
(-4.042996e-05 -0.0005667036 5.288427e-26)
(0.0001232973 -0.000853086 -5.017581e-28)
(0.0003611453 -0.001159478 -6.596881e-26)
(-8.47936e-05 -1.431248e-05 0)
(-0.0001021019 -5.632291e-05 -1.875778e-27)
(-0.0001164598 -0.0001288393 -4.138769e-27)
(-0.0001109011 -0.0002454405 5.163148e-27)
(-4.445793e-05 -0.0004178667 1.198211e-26)
(9.959035e-05 -0.0006360237 -3.161205e-26)
(0.0003235386 -0.0008631546 2.037447e-25)
(-7.39609e-05 -1.374604e-05 -6.861991e-27)
(-8.431088e-05 -5.007332e-05 0)
(-8.931805e-05 -0.0001069679 0)
(-8.029533e-05 -0.0001887142 -7.965645e-31)
(-3.38148e-05 -0.0003022584 -2.974896e-29)
(7.693179e-05 -0.0004454595 2.378426e-26)
(0.0002539035 -0.0006112349 1.740255e-25)
(-5.725735e-05 -1.300532e-05 -5.282952e-27)
(-6.315594e-05 -4.431509e-05 -6.73777e-28)
(-6.245895e-05 -8.811869e-05 -1.324964e-27)
(-4.849664e-05 -0.0001478632 -1.766781e-26)
(-1.252318e-05 -0.0002185105 -2.61716e-26)
(6.069157e-05 -0.0003071784 -7.461194e-28)
(0.0001925095 -0.0004061868 4.175349e-26)
(-3.946382e-05 -1.174662e-05 0)
(-4.214615e-05 -3.85496e-05 2.865723e-27)
(-3.838169e-05 -7.251768e-05 0)
(-2.368094e-05 -0.0001134646 -3.398567e-27)
(7.077141e-06 -0.0001628757 -4.899326e-27)
(5.960056e-05 -0.00021544 1.310614e-26)
(0.0001467285 -0.0002675337 9.010266e-29)
(-2.379767e-05 -9.967771e-06 0)
(-2.430764e-05 -3.231715e-05 -1.231695e-27)
(-1.922527e-05 -5.792737e-05 3.479304e-29)
(-5.284762e-06 -8.792317e-05 0)
(2.079005e-05 -0.000121088 -7.416753e-27)
(6.223336e-05 -0.0001536599 -2.983073e-26)
(0.0001212439 -0.0001819292 -1.158484e-26)
(-1.153344e-05 -8.007986e-06 0)
(-1.099315e-05 -2.55299e-05 -7.797792e-28)
(-5.134233e-06 -4.568116e-05 -2.788187e-29)
(7.629166e-06 -6.738765e-05 1.288401e-27)
(2.915436e-05 -8.902664e-05 -5.623175e-27)
(6.133585e-05 -0.0001096973 -8.975963e-27)
(0.0001064829 -0.000125846 -3.489299e-26)
(-2.920335e-06 -6.068959e-06 1.343933e-28)
(-1.799354e-06 -1.957062e-05 8.447575e-29)
(3.995251e-06 -3.472488e-05 1.176234e-29)
(1.539326e-05 -5.026721e-05 6.750637e-27)
(3.316388e-05 -6.484997e-05 0)
(5.842356e-05 -7.687936e-05 0)
(9.418568e-05 -8.312737e-05 2.944516e-26)
(2.566799e-06 -4.470504e-06 -4.090595e-28)
(3.899612e-06 -1.45155e-05 6.636426e-28)
(9.13888e-06 -2.563438e-05 -1.585351e-27)
(1.894685e-05 -3.655264e-05 -2.777655e-27)
(3.363311e-05 -4.626043e-05 0)
(5.363733e-05 -5.313021e-05 0)
(8.092171e-05 -5.385562e-05 5.644725e-27)
(5.552634e-06 -3.207685e-06 6.329891e-28)
(6.907155e-06 -1.050728e-05 5.629752e-28)
(1.142037e-05 -1.836592e-05 -3.477156e-28)
(1.953317e-05 -2.591502e-05 -2.9977e-27)
(3.150406e-05 -3.205311e-05 3.80701e-27)
(4.785397e-05 -3.490778e-05 1.527427e-26)
(6.710114e-05 -3.346075e-05 -8.60234e-27)
(6.69346e-06 -2.244624e-06 7.017268e-28)
(7.959504e-06 -7.437546e-06 -7.824828e-29)
(1.173593e-05 -1.297615e-05 2.690074e-28)
(1.831891e-05 -1.801751e-05 3.763053e-28)
(2.790248e-05 -2.166364e-05 0)
(4.033618e-05 -2.26082e-05 3.350434e-27)
(5.441833e-05 -2.011135e-05 -5.425943e-27)
(6.597355e-06 -1.544157e-06 0)
(7.731779e-06 -5.213581e-06 -1.226982e-28)
(1.084927e-05 -9.089296e-06 -2.091892e-28)
(1.616033e-05 -1.246053e-05 -1.289765e-27)
(2.374371e-05 -1.437987e-05 2.938074e-27)
(3.291951e-05 -1.441345e-05 -7.347899e-27)
(4.33537e-05 -1.165775e-05 -4.931017e-27)
(5.753469e-06 -1.037236e-06 -1.472669e-29)
(6.752615e-06 -3.630137e-06 -4.81657e-29)
(9.317016e-06 -6.325988e-06 0)
(1.360488e-05 -8.474957e-06 -9.695874e-30)
(1.938372e-05 -9.591001e-06 -1.926447e-27)
(2.637743e-05 -9.12431e-06 -2.495936e-27)
(3.415942e-05 -6.51975e-06 -6.232655e-28)
(4.529701e-06 -6.859882e-07 -4.916846e-28)
(5.398855e-06 -2.533588e-06 4.981517e-28)
(7.505755e-06 -4.461783e-06 -2.298634e-27)
(1.091201e-05 -5.838469e-06 1.363703e-27)
(1.542184e-05 -6.429031e-06 -1.686757e-27)
(2.082504e-05 -5.766366e-06 0)
(2.671001e-05 -3.464738e-06 4.885853e-28)
(3.166151e-06 -4.411297e-07 -3.406035e-28)
(3.920728e-06 -1.77516e-06 4.645731e-28)
(5.64757e-06 -3.12459e-06 -6.172113e-28)
(8.364194e-06 -4.071104e-06 0)
(1.194666e-05 -4.345025e-06 1.085637e-27)
(1.61756e-05 -3.649618e-06 0)
(2.070338e-05 -1.696553e-06 -1.705174e-27)
(1.804761e-06 -2.671495e-07 0)
(2.440645e-06 -1.227049e-06 0)
(3.855985e-06 -2.230998e-06 8.026821e-28)
(6.059313e-06 -2.868157e-06 0)
(8.940653e-06 -2.97224e-06 1.558736e-27)
(1.230176e-05 -2.322457e-06 1.01091e-27)
(1.58508e-05 -7.033402e-07 -1.245326e-27)
(5.162781e-07 -1.435787e-07 8.845895e-29)
(1.042582e-06 -8.419123e-07 0)
(2.216529e-06 -1.595506e-06 2.681831e-28)
(4.022382e-06 -2.037259e-06 -3.173149e-28)
(6.363047e-06 -2.057346e-06 5.281398e-28)
(9.070539e-06 -1.486978e-06 1.412526e-27)
(1.190961e-05 -1.592251e-07 8.851011e-28)
(-6.675686e-07 -4.929199e-08 -2.580898e-29)
(-2.276208e-07 -5.579746e-07 1.996638e-29)
(7.471086e-07 -1.134855e-06 0)
(2.237316e-06 -1.452534e-06 -1.14586e-28)
(4.158523e-06 -1.440558e-06 9.503316e-29)
(6.364813e-06 -9.707462e-07 8.107169e-28)
(8.663211e-06 7.218159e-08 -3.431385e-28)
(-1.73677e-06 2.38599e-08 -1.331991e-28)
(-1.373601e-06 -3.384443e-07 -1.011709e-28)
(-5.613905e-07 -7.888346e-07 4.177267e-29)
(6.786993e-07 -1.025548e-06 0)
(2.2724e-06 -1.009212e-06 0)
(4.093238e-06 -6.394534e-07 2.58266e-28)
(5.973909e-06 1.702864e-07 4.315348e-28)
(-2.698699e-06 8.293802e-08 -2.279705e-28)
(-2.400812e-06 -1.641815e-07 -2.029454e-28)
(-1.722489e-06 -5.193494e-07 1.53698e-28)
(-6.834514e-07 -6.998578e-07 0)
(6.511856e-07 -6.892901e-07 6.641875e-29)
(2.175109e-06 -4.085691e-07 -7.011044e-33)
(3.775911e-06 2.009208e-07 -8.572502e-29)
(-3.566502e-06 1.318792e-07 0)
(-3.324054e-06 -2.137728e-08 -2.936684e-28)
(-2.75555e-06 -3.018437e-07 2.540599e-28)
(-1.879552e-06 -4.41814e-07 0)
(-7.532898e-07 -4.441081e-07 -1.843954e-28)
(5.319837e-07 -2.508789e-07 -1.330054e-28)
(1.877094e-06 1.779918e-07 -7.542412e-29)
(-4.353289e-06 1.73366e-07 3.922189e-28)
(-4.157395e-06 9.877319e-08 -3.352347e-30)
(-3.679076e-06 -1.206054e-07 3.367865e-28)
(-2.935498e-06 -2.29229e-07 -1.802114e-29)
(-1.976741e-06 -2.445118e-07 -2.29336e-29)
(-8.774455e-07 -1.255809e-07 -1.735946e-28)
(2.684608e-07 1.548464e-07 0)
(-5.071702e-06 2.093179e-07 9.27949e-28)
(-4.914595e-06 2.02407e-07 0)
(-4.510022e-06 3.501222e-08 0)
(-3.873652e-06 -4.747591e-08 3.992392e-28)
(-3.049386e-06 -7.514657e-08 6.897528e-28)
(-2.099442e-06 -2.342214e-08 -2.790759e-28)
(-1.104348e-06 1.41716e-07 0)
(-5.732848e-06 2.410609e-07 5.303488e-28)
(-5.607664e-06 2.938177e-07 -1.898843e-30)
(-5.262853e-06 1.725278e-07 -3.921634e-30)
(-4.712407e-06 1.147652e-07 -1.221239e-29)
(-3.993264e-06 8.129236e-08 4.042225e-28)
(-3.151599e-06 8.604878e-08 0)
(-2.283628e-06 1.437407e-07 -3.240063e-28)
(-6.346186e-06 2.697757e-07 9.157444e-32)
(-6.246858e-06 3.764159e-07 -5.864489e-28)
(-5.949655e-06 2.969715e-07 -5.679025e-28)
(-5.467524e-06 2.620477e-07 -1.070839e-27)
(-4.832612e-06 2.2287e-07 0)
(-4.08826e-06 1.871575e-07 -4.480124e-28)
(-3.305474e-06 1.674186e-07 5.037352e-31)
(-6.919782e-06 2.965994e-07 -6.505862e-28)
(-6.840757e-06 4.537188e-07 -1.288761e-27)
(-6.579992e-06 4.14105e-07 -1.256241e-27)
(-6.149632e-06 4.027716e-07 -6.077133e-28)
(-5.576295e-06 3.629939e-07 -1.080803e-29)
(-4.903553e-06 2.99094e-07 -5.205316e-28)
(-4.183683e-06 2.189462e-07 5.044404e-28)
(-7.461175e-06 3.228171e-07 -7.054479e-28)
(-7.397386e-06 5.294622e-07 -1.400916e-27)
(-7.163235e-06 5.298878e-07 -6.849139e-28)
(-6.770786e-06 5.44003e-07 0)
(-6.244198e-06 5.051189e-07 -5.729116e-29)
(-5.620912e-06 4.271629e-07 -1.163009e-28)
(-4.945949e-06 2.981905e-07 -3.50112e-29)
(-7.977691e-06 3.495663e-07 -7.578501e-28)
(-7.924383e-06 6.068291e-07 -7.540843e-28)
(-7.707737e-06 6.493054e-07 1.448877e-30)
(-7.339313e-06 6.932499e-07 2.903479e-30)
(-6.839362e-06 6.652569e-07 0)
(-6.248558e-06 5.683898e-07 -6.466219e-28)
(-5.609049e-06 4.056675e-07 1.475739e-29)
(-8.476481e-06 3.779752e-07 -8.088246e-28)
(-8.428897e-06 6.886387e-07 -8.05835e-28)
(-8.221526e-06 7.754021e-07 -6.029465e-31)
(-7.866681e-06 8.506344e-07 4.077609e-31)
(-7.386313e-06 8.364383e-07 0)
(-6.812082e-06 7.342995e-07 -6.905596e-28)
(-6.189499e-06 5.456659e-07 2.374291e-29)
(-8.964529e-06 4.094455e-07 -5.227691e-31)
(-8.918248e-06 7.78474e-07 -1.711895e-27)
(-8.711251e-06 9.13692e-07 -1.124265e-30)
(-8.357722e-06 1.024615e-06 -6.70575e-31)
(-7.880858e-06 1.028495e-06 0)
(-7.31056e-06 9.248594e-07 0)
(-6.694401e-06 7.146535e-07 0)
(-9.449372e-06 4.447346e-07 0)
(-9.400262e-06 8.794691e-07 -9.053985e-28)
(-9.183272e-06 1.069077e-06 0)
(-8.818009e-06 1.220036e-06 8.667949e-28)
(-8.330782e-06 1.245746e-06 1.993967e-30)
(-7.752929e-06 1.14235e-06 -1.1662e-30)
(-7.132232e-06 9.122291e-07 7.339217e-28)
(-9.941445e-06 4.846649e-07 -9.599854e-28)
(-9.882535e-06 9.958533e-07 0)
(-9.645346e-06 1.249467e-06 -5.945384e-30)
(-9.258513e-06 1.443561e-06 9.607715e-28)
(-8.740355e-06 1.494844e-06 -8.210296e-28)
(-8.143186e-06 1.3882e-06 0)
(-7.507354e-06 1.136711e-06 7.7422e-28)
(-1.045182e-05 5.32372e-07 -1.012682e-27)
(-1.037302e-05 1.132944e-06 0)
(-1.010069e-05 1.459962e-06 -4.012785e-30)
(-9.668636e-06 1.703543e-06 -4.429392e-30)
(-9.110229e-06 1.772468e-06 -1.817626e-27)
(-8.481147e-06 1.663015e-06 8.583015e-28)
(-7.820546e-06 1.386514e-06 -8.046589e-28)
(-1.0992e-05 5.904515e-07 0)
(-1.088198e-05 1.297681e-06 -1.06463e-27)
(-1.055707e-05 1.705935e-06 -5.217626e-30)
(-1.006443e-05 2.00182e-06 9.979542e-28)
(-9.445285e-06 2.09169e-06 -9.462781e-28)
(-8.765996e-06 1.971798e-06 8.896459e-28)
(-8.069349e-06 1.660603e-06 -3.733579e-32)
(-1.157763e-05 6.622195e-07 0)
(-1.141972e-05 1.498941e-06 -1.118565e-27)
(-1.101773e-05 2.001972e-06 1.086821e-27)
(-1.043567e-05 2.351158e-06 1.034288e-27)
(-9.73328e-06 2.454005e-06 -9.889444e-28)
(-8.988671e-06 2.312594e-06 -1.357978e-29)
(-8.247572e-06 1.95395e-06 8.519135e-28)
(-1.222927e-05 7.532313e-07 0)
(-1.199842e-05 1.749896e-06 0)
(-1.148489e-05 2.361959e-06 1.141242e-27)
(-1.07802e-05 2.763222e-06 -1.085867e-27)
(-9.967052e-06 2.865742e-06 -2.371217e-31)
(-9.139733e-06 2.684364e-06 0)
(-8.347408e-06 2.260177e-06 0)
(-1.297442e-05 8.713992e-07 -1.27438e-27)
(-1.26328e-05 2.069041e-06 1.252205e-27)
(-1.195892e-05 2.804765e-06 6.100601e-28)
(-1.108704e-05 3.250422e-06 -1.117687e-27)
(-1.013256e-05 3.331612e-06 2.980559e-31)