/*--------------------------------*- C++ -*----------------------------------*\
| =========                 |                                                 |
| \\      /  F ield         | OpenFOAM: The Open Source CFD Toolbox           |
|  \\    /   O peration     | Version:  2206                                  |
|   \\  /    A nd           | Website:  www.openfoam.com                      |
|    \\/     M anipulation  |                                                 |
\*---------------------------------------------------------------------------*/
FoamFile
{
    version     2.0;
    format      ascii;
    arch        "LSB;label=32;scalar=64";
    class       surfaceVectorField;
    location    "2";
    object      Ufa;
}
// * * * * * * * * * * * * * * * * * * * * * * * * * * * * * * * * * * * * * //

dimensions      [0 1 -1 0 0 0 0];

internalField   nonuniform List<vector> 
26037
(
(3.615165e-06 -6.834362e-05 8.729704e-24)
(-1.41784e-05 -6.493341e-05 7.673466e-28)
(4.444105e-07 -3.728802e-05 1.627647e-25)
(-8.722831e-06 -3.95053e-05 4.457211e-27)
(-8.375185e-08 -2.311437e-05 -2.107235e-29)
(-3.439332e-06 -2.509598e-05 -2.11202e-29)
(-1.764746e-07 -1.609547e-05 -5.750701e-30)
(-1.61603e-06 -1.748661e-05 0)
(-2.176787e-07 -1.229428e-05 1.999398e-27)
(-9.825589e-07 -1.343566e-05 -5.749468e-30)
(-2.446284e-07 -9.627845e-06 -1.154942e-29)
(-6.981177e-07 -1.057729e-05 -7.241611e-30)
(-5.56776e-07 -8.377493e-06 -5.779642e-30)
(-2.62227e-07 -7.557617e-06 6.453986e-28)
(-2.705768e-05 -3.550827e-05 -8.600225e-33)
(-2.391117e-05 -2.458905e-05 7.637559e-32)
(-1.272504e-05 -2.731064e-05 -8.682885e-33)
(-1.470359e-05 -2.400376e-05 2.344162e-31)
(-4.968832e-06 -1.945201e-05 0)
(-6.804468e-06 -1.877691e-05 6.236888e-30)
(-2.422052e-06 -1.482695e-05 5.448262e-34)
(-3.574589e-06 -1.495644e-05 1.153299e-29)
(-1.462983e-06 -1.171892e-05 8.734401e-34)
(-2.182777e-06 -1.21401e-05 2.620912e-29)
(-1.010255e-06 -9.327068e-06 1.096287e-33)
(-1.475124e-06 -9.84884e-06 3.287842e-34)
(-1.089198e-06 -7.929313e-06 -3.008219e-32)
(-7.741111e-07 -7.379065e-06 -5.786726e-30)
(-1.160701e-05 -1.298664e-05 3.209658e-31)
(-8.020617e-06 -7.067654e-06 7.806176e-26)
(-8.819702e-06 -1.542365e-05 6.475494e-30)
(-8.228485e-06 -1.195269e-05 -1.360742e-26)
(-5.399848e-06 -1.424222e-05 1.774629e-30)
(-5.84511e-06 -1.261804e-05 7.573783e-30)
(-3.335119e-06 -1.22689e-05 -7.457441e-28)
(-3.903542e-06 -1.165821e-05 1.239426e-29)
(-2.194982e-06 -1.027015e-05 5.763548e-30)
(-2.668245e-06 -1.015988e-05 -2.874611e-29)
(-1.554079e-06 -8.451176e-06 -3.291302e-35)
(-1.914172e-06 -8.607059e-06 0)
(-1.450373e-06 -7.11006e-06 -9.838108e-31)
(-1.180308e-06 -6.812521e-06 5.787241e-30)
(-4.638237e-06 -6.026051e-06 3.948208e-31)
(-2.565103e-06 -2.94513e-06 -2.997578e-31)
(-5.267527e-06 -9.122151e-06 1.793638e-30)
(-4.307479e-06 -6.557201e-06 -6.372958e-27)
(-4.334958e-06 -9.99845e-06 1.260355e-28)
(-4.128799e-06 -8.322109e-06 -1.310513e-27)
(-3.235639e-06 -9.536187e-06 7.773197e-31)
(-3.360689e-06 -8.625673e-06 8.912415e-28)
(-2.387483e-06 -8.496787e-06 -4.289857e-34)
(-2.608687e-06 -8.099029e-06 -6.950635e-30)
(-1.81048e-06 -7.265978e-06 -6.576568e-34)
(-2.030277e-06 -7.176474e-06 -1.016385e-35)
(-1.621329e-06 -6.094323e-06 5.79278e-30)
(-1.428665e-06 -5.989987e-06 -5.790995e-30)
(-2.232544e-06 -3.473227e-06 -1.181789e-28)
(-1.046022e-06 -1.709819e-06 -1.475274e-31)
(-3.169931e-06 -5.742948e-06 -1.972762e-28)
(-2.361646e-06 -3.995172e-06 1.355804e-31)
(-3.149164e-06 -6.940209e-06 6.46043e-31)
(-2.757368e-06 -5.56959e-06 1.726336e-31)
(-2.730647e-06 -7.171038e-06 -1.159976e-28)
(-2.614447e-06 -6.247421e-06 2.396778e-29)
(-2.250843e-06 -6.771459e-06 -3.374688e-28)
(-2.284584e-06 -6.24994e-06 -4.104343e-28)
(-1.841134e-06 -6.004798e-06 6.319863e-29)
(-1.936937e-06 -5.786397e-06 -5.807841e-30)
(-1.642858e-06 -5.032121e-06 -3.915708e-30)
(-1.530732e-06 -5.0514e-06 5.793426e-30)
(-1.174151e-06 -2.230001e-06 3.696825e-31)
(-4.924473e-07 -1.162567e-06 0)
(-1.94591e-06 -3.809119e-06 1.326382e-28)
(-1.358349e-06 -2.628484e-06 7.559717e-31)
(-2.221951e-06 -4.879218e-06 -1.951635e-28)
(-1.832101e-06 -3.841895e-06 -5.917885e-30)
(-2.167072e-06 -5.319965e-06 1.185579e-28)
(-1.960496e-06 -4.53275e-06 -5.526352e-30)
(-1.969084e-06 -5.254187e-06 -5.097417e-30)
(-1.8912e-06 -4.726622e-06 1.14919e-28)
(-1.738193e-06 -4.80906e-06 -2.402499e-28)
(-1.741085e-06 -4.529634e-06 -5.161026e-30)
(-1.572727e-06 -4.020785e-06 -1.169669e-29)
(-1.528044e-06 -4.10351e-06 -5.442057e-29)
(-6.760628e-07 -1.560023e-06 3.85894e-31)
(-2.675388e-07 -8.786801e-07 -6.571603e-31)
(-1.241112e-06 -2.652377e-06 -5.132751e-30)
(-8.31689e-07 -1.843692e-06 -8.161364e-28)
(-1.569223e-06 -3.492865e-06 -1.237031e-27)
(-1.242151e-06 -2.731396e-06 -3.716746e-28)
(-1.683691e-06 -3.937467e-06 -4.764219e-30)
(-1.463245e-06 -3.310761e-06 -5.969367e-30)
(-1.66253e-06 -3.997841e-06 7.208809e-29)
(-1.536326e-06 -3.542593e-06 2.105223e-30)
(-1.574676e-06 -3.73418e-06 7.388068e-31)
(-1.518797e-06 -3.450268e-06 1.47731e-30)
(-1.458659e-06 -3.090549e-06 7.327371e-31)
(-1.465012e-06 -3.207472e-06 1.412224e-33)
(-4.229125e-07 -1.161902e-06 -2.591881e-31)
(-1.633194e-07 -7.106045e-07 1.284024e-27)
(-8.321053e-07 -1.92096e-06 8.133017e-31)
(-5.440057e-07 -1.356066e-06 -4.543116e-31)
(-1.13556e-06 -2.5474e-06 4.193558e-31)
(-8.752887e-07 -1.996975e-06 7.241477e-31)
(-1.316577e-06 -2.917587e-06 9.326245e-31)
(-1.112394e-06 -2.439394e-06 7.500113e-31)
(-1.392642e-06 -2.99502e-06 1.665551e-30)
(-1.252149e-06 -2.630929e-06 1.713043e-28)
(-1.40244e-06 -2.803832e-06 4.72235e-29)
(-1.317235e-06 -2.562927e-06 1.479342e-30)
(-1.335433e-06 -2.26173e-06 7.378032e-31)
(-1.375865e-06 -2.382788e-06 -5.110003e-30)
(-2.842687e-07 -9.04527e-07 -8.35958e-31)
(-1.091276e-07 -6.006785e-07 -8.743921e-28)
(-5.868973e-07 -1.431439e-06 -5.442357e-31)
(-3.79252e-07 -1.029968e-06 7.797395e-28)
(-8.496784e-07 -1.884312e-06 9.498912e-29)
(-6.443784e-07 -1.486426e-06 1.961265e-28)
(-1.049001e-06 -2.154054e-06 3.376415e-30)
(-8.698748e-07 -1.799312e-06 1.949311e-30)
(-1.176816e-06 -2.198798e-06 6.702613e-29)
(-1.038568e-06 -1.922559e-06 1.192335e-28)
(-1.250257e-06 -2.020913e-06 7.399822e-31)
(-1.153131e-06 -1.836207e-06 7.397541e-31)
(-1.226572e-06 -1.548673e-06 0)
(-1.285949e-06 -1.641268e-06 -4.483034e-31)
(-2.040056e-07 -7.259538e-07 -1.600096e-31)
(-7.854861e-08 -5.230736e-07 7.060103e-31)
(-4.365063e-07 -1.084521e-06 -1.303311e-30)
(-2.811659e-07 -7.974805e-07 -8.66431e-31)
(-6.620982e-07 -1.397901e-06 7.447489e-31)
(-4.98081e-07 -1.113045e-06 -1.356572e-30)
(-8.607006e-07 -1.568661e-06 1.171072e-30)
(-7.05868e-07 -1.313493e-06 -1.004366e-28)
(-1.014979e-06 -1.559915e-06 -1.923387e-32)
(-8.854981e-07 -1.361858e-06 -6.820729e-29)
(-1.129462e-06 -1.364046e-06 0)
(-1.029738e-06 -1.236164e-06 0)
(-1.141979e-06 -9.355097e-07 0)
(-1.210727e-06 -9.900825e-07 1.030781e-30)
(-1.556285e-07 -5.944865e-07 0)
(-6.034484e-08 -4.64926e-07 0)
(-3.4255e-07 -8.257079e-07 -9.193164e-31)
(-2.211138e-07 -6.223415e-07 9.488286e-31)
(-5.395149e-07 -1.026322e-06 2.594978e-31)
(-4.049777e-07 -8.269393e-07 2.960257e-28)
(-7.320272e-07 -1.107001e-06 1.214726e-30)
(-5.972889e-07 -9.31639e-07 -8.066908e-31)
(-9.003641e-07 -1.038028e-06 1.994221e-32)
(-7.809272e-07 -9.071101e-07 1.96433e-29)
(-1.042259e-06 -8.077033e-07 0)
(-9.442547e-07 -7.329475e-07 0)
(-1.084856e-06 -4.038316e-07 5.259538e-31)
(-1.157546e-06 -4.188306e-07 4.6117e-31)
(-1.257641e-07 -4.926985e-07 9.484339e-31)
(-4.925313e-08 -4.190228e-07 0)
(-2.833734e-07 -6.233766e-07 2.425915e-32)
(-1.838431e-07 -4.837247e-07 -3.924124e-28)
(-4.605379e-07 -7.310037e-07 -2.923702e-30)
(-3.462505e-07 -5.979487e-07 -1.667051e-30)
(-6.476048e-07 -7.31515e-07 -5.021899e-29)
(-5.280031e-07 -6.205519e-07 1.335106e-28)
(-8.249299e-07 -6.019185e-07 2.421505e-31)
(-7.143784e-07 -5.278779e-07 1.27246e-30)
(-9.868432e-07 -3.291514e-07 5.257727e-31)
(-8.919263e-07 -3.021629e-07 -9.905173e-31)
(-1.05501e-06 6.377069e-08 -1.038096e-28)
(-1.12889e-06 8.694956e-08 4.998414e-29)
(-1.072759e-07 -4.099927e-07 2.156583e-31)
(-4.24972e-08 -3.809938e-07 8.23739e-31)
(-2.465674e-07 -4.581876e-07 -1.747411e-29)
(-1.609843e-07 -3.689501e-07 2.156936e-31)
(-4.115747e-07 -4.871943e-07 -1.997031e-30)
(-3.105055e-07 -4.070155e-07 -1.481754e-30)
(-5.962394e-07 -4.16152e-07 -2.140257e-31)
(-4.869794e-07 -3.578754e-07 -2.013833e-30)
(-7.814919e-07 -2.279776e-07 3.843164e-32)
(-6.775888e-07 -2.021106e-07 -2.120329e-29)
(-9.600734e-07 9.067558e-08 -9.713242e-31)
(-8.678898e-07 7.552525e-08 -3.283361e-29)
(-1.050777e-06 4.826505e-07 8.022574e-29)
(-1.124886e-06 5.411897e-07 1.92146e-32)
(-9.61553e-08 -3.399145e-07 8.238979e-31)
(-3.851199e-08 -3.481309e-07 -2.646056e-28)
(-2.247785e-07 -3.177423e-07 -7.400892e-31)
(-1.4768e-07 -2.699119e-07 0)
(-3.8381e-07 -2.782405e-07 -3.417117e-29)
(-2.903699e-07 -2.414933e-07 -2.219734e-30)
(-5.697763e-07 -1.425777e-07 1.373865e-30)
(-4.645412e-07 -1.282735e-07 8.679507e-30)
(-7.641472e-07 1.016785e-07 1.110899e-30)
(-6.614434e-07 8.570953e-08 -1.087139e-28)
(-9.585652e-07 4.674105e-07 -2.019298e-32)
(-8.673255e-07 4.15388e-07 -9.905826e-31)
(-1.070017e-06 8.660006e-07 -4.031854e-32)
(-1.144552e-06 9.564712e-07 -1.477467e-30)
(-8.99898e-08 -2.781086e-07 8.260376e-31)
(-3.640544e-08 -3.185705e-07 8.256569e-31)
(-2.131463e-07 -1.936794e-07 -1.4779e-30)
(-1.411552e-07 -1.810212e-07 1.059401e-30)
(-3.693701e-07 -9.240886e-08 -4.878379e-29)
(-2.822769e-07 -9.248529e-08 -1.478277e-30)
(-5.565235e-07 1.011073e-07 5.004855e-28)
(-4.589558e-07 7.988356e-08 1.446349e-28)
(-7.654547e-07 4.015624e-07 1.302148e-29)
(-6.651515e-07 3.491581e-07 1.46065e-29)
(-9.788027e-07 8.140764e-07 -1.01085e-30)
(-8.88034e-07 7.296978e-07 1.488083e-30)
(-1.11113e-06 1.225063e-06 -3.347296e-29)
(-1.186539e-06 1.343973e-06 -1.979719e-30)
(-8.75258e-08 -2.214795e-07 1.058889e-30)
(-3.560337e-08 -2.909389e-07 0)
(-2.102012e-07 -7.989671e-08 1.059615e-30)
(-1.395654e-07 -9.813586e-08 -2.451511e-28)
(-3.710242e-07 7.85927e-08 4.508521e-31)
(-2.833706e-07 4.661826e-08 -7.370355e-31)
(-5.656471e-07 3.246992e-07 5.394148e-29)
(-4.678888e-07 2.736616e-07 -2.89493e-31)
(-7.897386e-07 6.806101e-07 2.996693e-30)
(-6.874259e-07 5.965187e-07 1.508885e-30)
(-1.020492e-06 1.140958e-06 4.685714e-29)
(-9.279974e-07 1.028525e-06 1.487436e-30)
(-1.172718e-06 1.569729e-06 4.699294e-31)
(-1.250097e-06 1.713559e-06 1.948244e-30)
(-8.759811e-08 -1.676062e-07 2.14459e-30)
(-3.576244e-08 -2.641785e-07 1.20617e-30)
(-2.12672e-07 2.831359e-08 1.409428e-30)
(-1.416381e-07 -1.801424e-08 -2.354473e-28)
(-3.79966e-07 2.413453e-07 -2.177432e-29)
(-2.91065e-07 1.812021e-07 -2.209936e-30)
(-5.863115e-07 5.405159e-07 -7.520986e-31)
(-4.861383e-07 4.62119e-07 -1.480502e-30)
(-8.283941e-07 9.493007e-07 0)
(-7.225343e-07 8.381661e-07 0)
(-1.080418e-06 1.457718e-06 0)
(-9.846406e-07 1.321099e-06 -3.552735e-31)
(-1.253593e-06 1.909127e-06 -2.960107e-30)
(-1.33406e-06 2.074435e-06 -1.477962e-30)
(-8.975628e-08 -1.146131e-07 2.314518e-29)
(-3.671318e-08 -2.373812e-07 -2.008071e-28)
(-2.199656e-07 1.347853e-07 -1.102809e-30)
(-1.468044e-07 6.210677e-08 1.489155e-30)
(-3.9699e-07 4.01633e-07 -1.954867e-29)
(-3.047709e-07 3.158516e-07 -3.680956e-30)
(-6.185747e-07 7.537601e-07 -7.520427e-31)
(-5.138603e-07 6.509262e-07 -2.21965e-30)
(-8.81836e-07 1.215603e-06 -3.594035e-31)
(-7.705268e-07 1.080713e-06 0)
(-1.158035e-06 1.772985e-06 -3.385611e-29)
(-1.057556e-06 1.615457e-06 -1.26061e-29)
(-1.35356e-06 2.25196e-06 -4.439014e-30)
(-1.438154e-06 2.435314e-06 -1.846952e-29)
(-9.371272e-08 -6.070467e-08 2.453183e-29)
(-3.837969e-08 -2.096513e-07 2.160592e-30)
(-2.31539e-07 2.430575e-07 1.452521e-31)
(-1.547957e-07 1.448896e-07 -2.289906e-28)
(-4.213717e-07 5.647248e-07 -3.259098e-29)
(-3.240767e-07 4.549487e-07 -1.073689e-30)
(-6.616568e-07 9.709387e-07 -1.503311e-30)
(-5.501578e-07 8.459943e-07 -1.479257e-30)
(-9.495331e-07 1.486729e-06 1.147545e-30)
(-8.279082e-07 1.329993e-06 1.199867e-29)
(-1.253435e-06 2.095212e-06 -3.488689e-31)
(-1.142654e-06 1.917144e-06 1.613757e-29)
(-1.472593e-06 2.606916e-06 1.488545e-30)
(-1.562773e-06 2.804891e-06 -1.044155e-29)
(-9.941061e-08 -4.118683e-09 3.261615e-30)
(-4.078299e-08 -1.800313e-07 -2.024187e-28)
(-2.472563e-07 3.566384e-07 3.438749e-30)
(-1.657692e-07 2.331608e-07 -2.276338e-28)
(-4.526066e-07 7.357951e-07 1.134605e-30)
(-3.494766e-07 6.03106e-07 -1.886648e-28)
(-7.127546e-07 1.198852e-06 1.188991e-29)
(-5.966851e-07 1.053614e-06 2.601213e-30)
(-1.02239e-06 1.763563e-06 1.998189e-28)
(-9.00329e-07 1.594444e-06 1.342839e-29)
(-1.36406e-06 2.433921e-06 3.51e-29)
(-1.247314e-06 2.237817e-06 1.675996e-29)
(-1.614242e-06 2.983878e-06 2.893206e-31)
(-1.708668e-06 3.192623e-06 2.967926e-30)
(-1.07085e-07 5.71656e-08 -2.206426e-29)
(-4.406479e-08 -1.47488e-07 6.608026e-31)
(-2.679049e-07 4.79454e-07 1.334059e-31)
(-1.802095e-07 3.300476e-07 -2.28809e-28)
(-4.933614e-07 9.205547e-07 5.623847e-30)
(-3.818354e-07 7.655298e-07 -1.915654e-28)
(-7.820732e-07 1.444873e-06 1.957717e-29)
(-6.548241e-07 1.280835e-06 -1.384247e-28)
(-1.1207e-06 2.059786e-06 3.168563e-30)
(-9.908005e-07 1.882528e-06 1.482777e-30)
(-1.502035e-06 2.796896e-06 -1.057132e-30)
(-1.376167e-06 2.587978e-06 7.705735e-30)
(-1.78246e-06 3.394358e-06 -6.852417e-29)
(-1.881241e-06 3.608705e-06 6.864117e-31)
(-1.171273e-07 1.252885e-07 1.92265e-30)
(-4.848356e-08 -1.108605e-07 -1.0256e-30)
(-2.940464e-07 6.159158e-07 -4.059888e-30)
(-1.988211e-07 4.390627e-07 1.922931e-30)
(-5.431583e-07 1.125544e-06 4.16944e-30)
(-4.223153e-07 9.480959e-07 1.88865e-30)
(-8.628747e-07 1.71723e-06 2.284147e-30)
(-7.256343e-07 1.536048e-06 -1.427313e-28)
(-1.238476e-06 2.396407e-06 1.652716e-30)
(-1.099009e-06 2.208383e-06 2.831534e-31)
(-1.662972e-06 3.19807e-06 1.691331e-30)
(-1.528711e-06 2.982265e-06 1.687738e-30)
(-1.980963e-06 3.852126e-06 8.602167e-29)
(-2.082983e-06 4.066196e-06 4.142889e-30)
(-1.301082e-07 2.027786e-07 -1.025786e-30)
(-5.43354e-08 -6.87504e-08 1.847458e-28)
(-3.269838e-07 7.709912e-07 0)
(-2.226026e-07 5.642847e-07 0)
(-6.046344e-07 1.358287e-06 1.434815e-30)
(-4.728231e-07 1.157532e-06 0)
(-9.611356e-07 2.026034e-06 -2.125324e-30)
(-8.12394e-07 1.828565e-06 1.514948e-28)
(-1.380274e-06 2.778063e-06 2.889708e-31)
(-1.229647e-06 2.581492e-06 1.243019e-28)
(-1.853816e-06 3.649999e-06 1.244978e-30)
(-1.706198e-06 3.429382e-06 1.267976e-30)
(-2.210442e-06 4.367949e-06 1.236907e-30)
(-2.320995e-06 4.580954e-06 -5.800815e-31)
(-1.467525e-07 2.925881e-07 -2.067279e-30)
(-6.196492e-08 -1.957737e-08 1.547626e-28)
(-3.683212e-07 9.505249e-07 0)
(-2.527451e-07 7.104552e-07 7.321655e-31)
(-6.804035e-07 1.627439e-06 -2.643416e-30)
(-5.355936e-07 1.401743e-06 -5.416768e-31)
(-1.080295e-06 2.382897e-06 6.027092e-30)
(-9.18838e-07 2.169344e-06 -1.177626e-30)
(-1.547579e-06 3.218714e-06 -2.651897e-30)
(-1.389048e-06 3.015726e-06 1.279667e-29)
(-2.066587e-06 4.155007e-06 1.275927e-30)
(-1.922603e-06 3.948884e-06 1.802247e-28)
(-2.489395e-06 4.96804e-06 0)
(-2.600415e-06 5.173312e-06 -1.272078e-30)
(-1.678705e-07 3.980809e-07 -3.088645e-31)
(-7.165189e-08 3.84697e-08 -1.039944e-30)
(-4.198794e-07 1.161311e-06 -1.548733e-29)
(-2.901979e-07 8.829707e-07 2.073744e-30)
(-7.738245e-07 1.943208e-06 9.232993e-31)
(-6.124945e-07 1.689777e-06 9.953257e-29)
(-1.227101e-06 2.801191e-06 -2.369568e-29)
(-1.047994e-06 2.571055e-06 1.465249e-30)
(-1.758684e-06 3.735702e-06 2.750031e-30)
(-1.58176e-06 3.526862e-06 -1.450899e-29)
(-2.335566e-06 4.743686e-06 1.27879e-30)
(-2.184944e-06 4.557515e-06 7.174062e-30)
(-2.827792e-06 5.672552e-06 3.055531e-30)
(-2.943449e-06 5.861394e-06 -4.325893e-30)
(-1.938821e-07 5.231044e-07 1.341079e-30)
(-8.348337e-08 1.074433e-07 1.122469e-30)
(-4.826555e-07 1.411003e-06 7.763085e-32)
(-3.35311e-07 1.087882e-06 -1.780582e-29)
(-8.864297e-07 2.317098e-06 -1.265651e-30)
(-7.042957e-07 2.03171e-06 -2.602453e-30)
(-1.402311e-06 3.296029e-06 4.138142e-30)
(-1.201227e-06 3.047776e-06 0)
(-2.006401e-06 4.345743e-06 -9.825222e-29)
(-1.809526e-06 4.13345e-06 1.206441e-30)
(-2.660693e-06 5.457657e-06 -1.313456e-28)
(-2.496098e-06 5.285555e-06 5.918496e-30)
(-3.229253e-06 6.511142e-06 6.112285e-30)
(-3.350211e-06 6.672639e-06 -5.177012e-32)
(-2.248015e-07 6.719003e-07 2.453e-30)
(-9.717481e-08 1.896133e-07 1.089005e-28)
(-5.567741e-07 1.708077e-06 -5.353079e-33)
(-3.87286e-07 1.33179e-06 2.750533e-30)
(-1.018824e-06 2.76176e-06 -1.337974e-30)
(-8.100301e-07 2.438605e-06 -1.463335e-28)
(-1.608056e-06 3.884392e-06 -2.929687e-30)
(-1.37779e-06 3.614901e-06 0)
(-2.297705e-06 5.070565e-06 1.460183e-28)
(-2.072753e-06 4.855035e-06 -2.930105e-30)
(-3.045269e-06 6.306495e-06 -1.855768e-28)
(-2.857493e-06 6.151528e-06 1.299157e-30)
(-3.691701e-06 7.50061e-06 -2.255035e-29)
(-3.832559e-06 7.631866e-06 1.545083e-30)
(-2.594838e-07 8.489065e-07 2.531854e-30)
(-1.120079e-07 2.873823e-07 1.6978e-30)
(-6.403937e-07 2.06185e-06 9.187402e-32)
(-4.436769e-07 1.621773e-06 3.314815e-28)
(-1.168691e-06 3.290995e-06 -1.329006e-30)
(-9.256122e-07 2.922244e-06 -1.327965e-30)
(-1.842044e-06 4.584586e-06 0)
(-1.572428e-06 4.288938e-06 -4.305537e-30)
(-2.631068e-06 5.933388e-06 1.296939e-30)
(-2.3661e-06 5.712768e-06 -2.928765e-30)
(-3.486408e-06 7.317447e-06 -2.3909e-29)
(-3.266381e-06 7.181411e-06 7.36245e-28)
(-4.226014e-06 8.683151e-06 -1.171169e-27)
(-4.374114e-06 8.746496e-06 2.442319e-27)
(-2.958275e-07 1.058801e-06 -8.9365e-29)
(-1.252134e-07 4.027284e-07 5.236193e-28)
(-7.288589e-07 2.481943e-06 6.815513e-31)
(-4.973524e-07 1.962994e-06 6.832478e-31)
(-1.329018e-06 3.91931e-06 -4.302015e-30)
(-1.041625e-06 3.494411e-06 1.778858e-32)
(-2.095987e-06 5.41598e-06 1.608198e-28)
(-1.772797e-06 5.086996e-06 -7.47949e-28)
(-3.000191e-06 6.958333e-06 2.625981e-30)
(-2.674714e-06 6.728709e-06 -1.525628e-30)
(-3.992931e-06 8.52386e-06 -3.103947e-28)
(-3.706396e-06 8.401199e-06 9.691451e-28)
(-4.812823e-06 1.00761e-05 1.04437e-27)
(-5.009631e-06 1.007091e-05 -9.62887e-28)
(-3.253316e-07 1.301189e-06 1.159519e-30)
(-1.343408e-07 5.356263e-07 1.148963e-30)
(-8.10946e-07 2.977988e-06 1.783291e-32)
(-5.407115e-07 2.362387e-06 0)
(-1.485234e-06 4.661534e-06 5.924493e-29)
(-1.143112e-06 4.16615e-06 1.016152e-27)
(-2.350991e-06 6.398401e-06 -1.440845e-30)
(-1.957576e-06 6.025606e-06 -2.837602e-30)
(-3.380135e-06 8.169845e-06 4.116473e-30)
(-2.971759e-06 7.925117e-06 1.416447e-27)
(-4.522473e-06 9.946882e-06 4.115256e-30)
(-4.146219e-06 9.840776e-06 1.599116e-27)
(-5.422973e-06 1.173526e-05 -3.565723e-32)
(-5.70813e-06 1.167389e-05 4.89909e-30)
(-3.461869e-07 1.580423e-06 0)
(-1.353918e-07 6.883103e-07 -4.447635e-32)
(-8.746003e-07 3.555316e-06 3.044295e-30)
(-5.586175e-07 2.820558e-06 -2.869637e-30)
(-1.615722e-06 5.530536e-06 3.032884e-30)
(-1.202159e-06 4.939347e-06 1.37718e-27)
(-2.577812e-06 7.550817e-06 2.859568e-30)
(-2.092975e-06 7.117961e-06 0)
(-3.737027e-06 9.594076e-06 4.2532e-30)
(-3.216323e-06 9.322755e-06 2.204069e-27)
(-5.043803e-06 1.162418e-05 -3.279324e-32)
(-4.540167e-06 1.152838e-05 1.390632e-30)
(-6.009715e-06 1.369065e-05 -3.277808e-27)
(-6.423721e-06 1.357287e-05 -1.449326e-30)
(-3.438958e-07 1.909203e-06 -2.678287e-28)
(-1.221425e-07 8.637407e-07 1.052657e-27)
(-8.852794e-07 4.203209e-06 -5.184248e-30)
(-5.319889e-07 3.339384e-06 -1.603027e-27)
(-1.68217e-06 6.535765e-06 -2.294731e-30)
(-1.184513e-06 5.817845e-06 -3.469598e-27)
(-2.731769e-06 8.890257e-06 1.471357e-30)
(-2.12439e-06 8.362427e-06 -1.489219e-30)
(-4.018679e-06 1.125482e-05 1.47101e-30)
(-3.347176e-06 1.093635e-05 6.065777e-30)
(-5.503889e-06 1.358989e-05 -7.31298e-30)
(-4.817324e-06 1.348876e-05 2.933114e-30)
(-6.497771e-06 1.597676e-05 -1.024821e-29)
(-7.121518e-06 1.5826e-05 1.446101e-27)
(-3.084493e-07 2.281357e-06 -3.142727e-31)
(-8.805367e-08 1.058451e-06 1.650565e-30)
(-8.259154e-07 4.931379e-06 -6.753005e-30)
(-4.422715e-07 3.917422e-06 -6.894791e-31)
(-1.625747e-06 7.646573e-06 -6.916042e-30)
(-1.055123e-06 6.799229e-06 -2.28899e-27)
(-2.746313e-06 1.042796e-05 -4.077818e-28)
(-1.99459e-06 9.774566e-06 -6.266233e-27)
(-4.145845e-06 1.316957e-05 7.527112e-30)
(-3.280396e-06 1.277271e-05 4.330433e-27)
(-5.810094e-06 1.58723e-05 -7.066047e-28)
(-4.871261e-06 1.573673e-05 8.806819e-30)
(-6.764235e-06 1.862452e-05 8.819022e-30)
(-7.692839e-06 1.845702e-05 1.717219e-27)
(-2.21573e-07 2.690924e-06 1.687296e-28)
(-2.463579e-08 1.267929e-06 1.141246e-33)
(-6.682802e-07 5.76208e-06 2.126315e-30)
(-2.602719e-07 4.553423e-06 8.688047e-34)
(-1.412281e-06 8.876794e-06 -1.898323e-28)
(-7.668102e-07 7.876468e-06 -3.014281e-30)
(-2.543812e-06 1.215106e-05 9.007123e-28)
(-1.624278e-06 1.132313e-05 -3.597417e-29)
(-4.007818e-06 1.534238e-05 1.684688e-30)
(-2.881699e-06 1.480585e-05 -3.410612e-29)
(-5.824567e-06 1.848533e-05 -1.804955e-27)
(-4.542983e-06 1.826935e-05 -2.0636e-30)
(-6.622812e-06 2.163555e-05 1.173517e-29)
(-7.984918e-06 2.150548e-05 -2.141088e-27)
(-6.326864e-08 3.127936e-06 -2.050327e-28)
(7.801089e-08 1.485009e-06 -5.600455e-31)
(-3.580244e-07 6.660497e-06 -5.130079e-30)
(5.161181e-08 5.226109e-06 -7.132258e-31)
(-9.621165e-07 1.026274e-05 9.724945e-29)
(-2.404662e-07 9.052117e-06 -1.899425e-27)
(-1.962599e-06 1.400286e-05 4.105752e-27)
(-8.741736e-07 1.302375e-05 -3.642901e-27)
(-3.424721e-06 1.777124e-05 1.831709e-27)
(-1.963402e-06 1.704834e-05 -1.944482e-30)
(-5.342685e-06 2.142198e-05 -7.94123e-30)
(-3.594814e-06 2.104475e-05 -9.938627e-27)
(-5.820938e-06 2.497498e-05 0)
(-7.761305e-06 2.495671e-05 -1.351895e-30)
(1.927631e-07 3.580514e-06 0)
(2.33276e-07 1.702832e-06 -1.114598e-30)
(1.690261e-07 7.612292e-06 -1.564178e-30)
(5.485942e-07 5.925281e-06 1.423782e-30)
(-1.517978e-07 1.176769e-05 2.530352e-30)
(6.360725e-07 1.031463e-05 1.307314e-30)
(-8.678164e-07 1.600959e-05 -1.070114e-27)
(3.924784e-07 1.485923e-05 4.102143e-30)
(-2.128097e-06 2.034929e-05 -9.104518e-27)
(-3.240346e-07 1.948563e-05 -5.445682e-27)
(-4.085811e-06 2.465806e-05 2.186814e-29)
(-1.765675e-06 2.408805e-05 1.587678e-29)
(-4.095815e-06 2.856292e-05 -1.264854e-29)
(-6.723224e-06 2.873502e-05 2.081342e-30)
(5.886917e-07 4.044768e-06 -6.777362e-28)
(4.606868e-07 1.9239e-06 1.417008e-30)
(1.015054e-06 8.623421e-06 2.819515e-28)
(1.315886e-06 6.667714e-06 2.845598e-30)
(1.178769e-06 1.339514e-05 2.873025e-30)
(2.011347e-06 1.169353e-05 4.710391e-30)
(9.281924e-07 1.826469e-05 -3.994305e-30)
(2.369292e-06 1.688363e-05 0)
(4.275133e-08 2.309992e-05 -1.015569e-29)
(2.163307e-06 2.207957e-05 -2.068939e-27)
(-1.830908e-06 2.807749e-05 4.19908e-27)
(1.064802e-06 2.724285e-05 -5.607292e-29)
(-1.149666e-06 3.245019e-05 -9.520607e-29)
(-4.622781e-06 3.279429e-05 5.863349e-27)
(1.187027e-06 4.543836e-06 9.157657e-28)
(7.852136e-07 2.170983e-06 -2.031149e-27)
(2.310943e-06 9.733413e-06 3.263084e-30)
(2.450535e-06 7.501387e-06 4.768126e-30)
(3.200202e-06 1.517583e-05 1.842553e-30)
(4.017455e-06 1.321823e-05 -2.501317e-27)
(3.602486e-06 2.067962e-05 3.849524e-30)
(5.187148e-06 1.905261e-05 -5.977664e-30)
(3.225783e-06 2.608476e-05 -2.388715e-27)
(5.678461e-06 2.48596e-05 -9.682973e-30)
(1.768204e-06 3.169905e-05 3.605067e-26)
(5.283879e-06 3.088867e-05 -3.055605e-26)
(3.478557e-06 3.765347e-05 -1.349673e-28)
(-1.148919e-06 3.792596e-05 2.074647e-26)
(2.046728e-06 5.123276e-06 1.207192e-27)
(1.230282e-06 2.476853e-06 2.529615e-30)
(4.155845e-06 1.098319e-05 5.226233e-30)
(4.013558e-06 8.465891e-06 -4.275154e-27)
(6.00175e-06 1.708879e-05 -4.086858e-30)
(6.702955e-06 1.486933e-05 -2.897956e-31)
(7.257543e-06 2.321933e-05 -4.423027e-28)
(8.926951e-06 2.136027e-05 -2.551313e-30)
(7.696258e-06 2.954142e-05 -3.831866e-28)
(1.054899e-05 2.812514e-05 -1.876867e-29)
(6.963507e-06 3.660741e-05 1.103086e-26)
(1.137971e-05 3.579054e-05 -4.302079e-29)
(1.029503e-05 4.493506e-05 -5.174155e-29)
(4.013529e-06 4.583179e-05 2.60621e-26)
(3.186804e-06 5.795323e-06 -5.368507e-30)
(1.807972e-06 2.86272e-06 -1.220967e-30)
(6.568328e-06 1.236146e-05 -1.299779e-27)
(6.014755e-06 9.566422e-06 9.232239e-27)
(9.627452e-06 1.913921e-05 2.018525e-27)
(1.009366e-05 1.662582e-05 6.697037e-27)
(1.221299e-05 2.62579e-05 -1.841704e-30)
(1.397858e-05 2.416021e-05 -4.195936e-30)
(1.422034e-05 3.434053e-05 -7.219638e-27)
(1.782604e-05 3.272483e-05 3.831811e-26)
(1.477051e-05 4.383369e-05 -1.32825e-29)
(2.083149e-05 4.256131e-05 -4.135155e-29)
(2.093893e-05 5.359539e-05 2.931691e-29)
(1.192985e-05 5.603781e-05 -9.545049e-29)
(4.600426e-06 6.578989e-06 -1.720852e-29)
(2.522834e-06 3.342954e-06 -3.658206e-28)
(9.542433e-06 1.382003e-05 -1.491282e-26)
(8.439779e-06 1.081901e-05 -1.758714e-29)
(1.447781e-05 2.168317e-05 -2.359369e-29)
(1.464362e-05 1.883535e-05 -1.604581e-29)
(1.959133e-05 3.062979e-05 -1.511715e-29)
(2.162644e-05 2.828821e-05 -5.321435e-26)
(2.441358e-05 4.091846e-05 -1.112497e-26)
(2.929037e-05 3.922984e-05 -2.806099e-29)
(2.68452e-05 5.203099e-05 -5.585787e-32)
(3.503685e-05 5.012108e-05 -1.364964e-25)
(3.647687e-05 6.002173e-05 -4.192779e-23)
(2.384951e-05 6.700243e-05 5.050615e-23)
(6.320498e-06 7.537951e-06 -3.009532e-27)
(3.374481e-06 3.89828e-06 -9.328378e-31)
(1.346565e-05 1.574885e-05 -1.598026e-30)
(1.164203e-05 1.257852e-05 2.508403e-30)
(2.183448e-05 2.546419e-05 4.121017e-30)
(2.19165e-05 2.261259e-05 6.661968e-30)
(3.144346e-05 3.699479e-05 -1.668245e-29)
(3.449954e-05 3.484656e-05 1.781508e-25)
(3.991485e-05 4.843821e-05 -3.388766e-29)
(4.701314e-05 4.728386e-05 -4.313807e-25)
(4.377572e-05 6.326787e-05 1.698324e-29)
(5.679606e-05 5.676129e-05 -5.498152e-29)
(6.721147e-05 6.25411e-05 2.798081e-29)
(4.064005e-05 9.722195e-05 6.563892e-22)
(8.679969e-06 8.927547e-06 5.406398e-30)
(4.60183e-06 4.726223e-06 3.031928e-26)
(1.996305e-05 1.934409e-05 2.76836e-26)
(1.707049e-05 1.59359e-05 4.074337e-30)
(3.435961e-05 3.182286e-05 -5.113777e-29)
(3.451295e-05 2.932604e-05 2.646181e-29)
(5.024736e-05 4.523663e-05 -2.572474e-25)
(5.562283e-05 4.463221e-05 -2.858191e-29)
(6.219152e-05 6.105241e-05 -1.450173e-28)
(7.573974e-05 5.683043e-05 2.098037e-22)
(6.565201e-05 9.827788e-05 -4.403574e-29)
(9.571566e-05 6.236371e-05 -1.378785e-21)
(0.0001205698 6.172558e-05 1.073364e-28)
(6.028915e-05 0.00016844 -1.935412e-28)
(1.297308e-05 1.172752e-05 1.677649e-30)
(7.224833e-06 6.653219e-06 1.677878e-30)
(3.157108e-05 2.590274e-05 1.983885e-29)
(2.714543e-05 2.246706e-05 1.860669e-29)
(5.534621e-05 4.190188e-05 1.411783e-25)
(5.552992e-05 4.015672e-05 4.825498e-29)
(7.827626e-05 5.97629e-05 8.121058e-29)
(8.768556e-05 5.749199e-05 3.078122e-29)
(9.420815e-05 9.69578e-05 -8.771919e-30)
(0.0001211513 6.730032e-05 5.002587e-29)
(9.439752e-05 0.0001714409 5.054459e-29)
(0.0001622661 7.102509e-05 -4.913275e-28)
(0.0001958909 5.775928e-05 -9.854023e-28)
(8.358984e-05 0.0002768374 4.887811e-21)
(2.133525e-05 1.736259e-05 1.856983e-29)
(1.236938e-05 1.039184e-05 0)
(5.115503e-05 3.678393e-05 1.651833e-25)
(4.411271e-05 3.334912e-05 1.87377e-29)
(8.617993e-05 5.75391e-05 3.048916e-29)
(8.67116e-05 5.541526e-05 9.625803e-29)
(0.0001156111 9.717163e-05 3.273324e-31)
(0.0001351482 7.300278e-05 -1.590152e-30)
(0.0001308786 0.000170275 -4.200478e-28)
(0.0001846581 7.819904e-05 -8.014575e-29)
(0.000142423 0.0002782372 -1.73496e-20)
(0.000234535 7.141232e-05 -3.383327e-28)
(0.0003110082 6.304903e-05 -1.359389e-27)
(0.0001132189 0.0003986049 -8.114981e-21)
(3.491742e-05 2.624781e-05 1.838589e-32)
(2.049485e-05 1.622039e-05 1.57769e-29)
(7.914856e-05 5.209613e-05 6.828681e-29)
(6.836841e-05 4.878569e-05 -7.786951e-30)
(0.0001250958 8.785969e-05 3.126027e-22)
(0.0001286201 7.461562e-05 4.98861e-29)
(0.0001573855 0.0001654667 -1.770025e-21)
(0.0001959571 9.113017e-05 -1.015043e-29)
(0.0001701619 0.0002758526 -8.082476e-31)
(0.0002575918 8.988761e-05 -8.048264e-29)
(0.000170039 0.0004113438 -1.440209e-28)
(0.0003195187 7.419738e-05 6.386568e-21)
(0.0003850976 2.790422e-05 -1.997729e-28)
(0.0001836641 0.0005383625 1.638323e-27)
(5.360048e-05 3.858292e-05 7.031837e-26)
(3.194857e-05 2.448276e-05 4.699345e-25)
(0.0001120201 7.708316e-05 -3.314405e-23)
(9.940775e-05 6.710638e-05 -3.162186e-29)
(0.0001626502 0.000143039 -2.362631e-29)
(0.0001750247 9.334961e-05 1.234613e-29)
(0.0001968021 0.0002531715 -7.374698e-30)
(0.0002476049 0.0001033117 1.982437e-29)
(0.0002047253 0.0004008664 2.634121e-28)
(0.0003392085 0.0001091313 -1.015972e-29)
(0.0002010609 0.0005641153 1.113837e-20)
(0.0004058637 7.872278e-05 3.87583e-29)
(0.000485885 6.058512e-08 -1.396714e-20)
(0.0001676434 0.0006775356 -2.876765e-27)
(7.521617e-05 5.337376e-05 1.435901e-24)
(4.676205e-05 3.466039e-05 2.773151e-29)
(0.0001423276 0.0001171713 5.350377e-30)
(0.0001330048 8.434596e-05 -4.17904e-22)
(0.0001890719 0.0002176922 1.194942e-21)
(0.0002165574 0.0001072122 -9.716951e-30)
(0.0002141394 0.0003563641 1.703659e-29)
(0.0002942591 0.0001125484 2.948068e-29)
(0.0002414417 0.0005381304 -2.50091e-28)
(0.0003782733 0.0001054567 4.85024e-29)
(0.0002503852 0.00071415 -3.403776e-27)
(0.0004665381 6.74792e-05 -1.183202e-20)
(0.0006329717 -2.840911e-05 -2.380017e-27)
(0.0001827649 0.0007877282 -4.174225e-20)
(9.552479e-05 7.225649e-05 -8.525536e-29)
(6.405061e-05 4.447235e-05 7.007529e-30)
(0.0001617042 0.0001658464 -3.403178e-22)
(0.0001603561 9.500866e-05 -9.170267e-22)
(0.0001993684 0.0002970034 -3.509513e-29)
(0.0002449744 0.0001131358 -2.883531e-21)
(0.0002194516 0.0004704087 -3.825323e-21)
(0.0003310011 0.0001166958 5.969846e-21)
(0.0002311179 0.000668627 1.245266e-20)
(0.0004264117 0.0001050504 7.111898e-29)
(0.0002241698 0.000823083 5.505599e-28)
(0.0005240653 2.50161e-05 -1.498274e-20)
(0.0006147105 -0.0002555661 2.14316e-20)
(0.000228516 0.0008074315 4.226894e-27)
(0.0001073491 9.378963e-05 5.508825e-23)
(7.696325e-05 4.974759e-05 6.4284e-29)
(0.0001651404 0.0002116796 -5.23489e-29)
(0.0001732179 9.572823e-05 -1.502057e-21)
(0.0001953587 0.0003704424 3.033726e-29)
(0.0002599791 0.0001113486 4.032031e-21)
(0.000213838 0.0005730124 4.351145e-29)
(0.0003557777 0.0001131329 3.242059e-29)
(0.0002207548 0.0007733327 -5.06533e-28)
(0.000462391 8.593759e-05 2.052059e-29)
(0.0001991385 0.0008496131 3.731745e-27)
(0.0005707348 -8.446374e-05 -5.107439e-28)
(0.0006753257 -0.0005351292 2.496319e-20)