/*--------------------------------*- C++ -*----------------------------------*\
| =========                 |                                                 |
| \\      /  F ield         | OpenFOAM: The Open Source CFD Toolbox           |
|  \\    /   O peration     | Version:  2206                                  |
|   \\  /    A nd           | Website:  www.openfoam.com                      |
|    \\/     M anipulation  |                                                 |
\*---------------------------------------------------------------------------*/
FoamFile
{
    version     2.0;
    format      ascii;
    arch        "LSB;label=32;scalar=64";
    class       surfaceVectorField;
    location    "2";
    object      Ufa_0;
}
// * * * * * * * * * * * * * * * * * * * * * * * * * * * * * * * * * * * * * //

dimensions      [0 1 -1 0 0 0 0];

internalField   nonuniform List<vector> 
26037
(
(3.547423e-06 -6.776396e-05 8.645504e-24)
(-1.408303e-05 -6.436989e-05 7.582603e-28)
(4.32344e-07 -3.708497e-05 1.704419e-25)
(-8.660705e-06 -3.926331e-05 4.332467e-27)
(-8.500256e-08 -2.304533e-05 -2.092886e-29)
(-3.42011e-06 -2.50136e-05 -2.097638e-29)
(-1.761876e-07 -1.606606e-05 -5.753063e-30)
(-1.609653e-06 -1.745263e-05 0)
(-2.169857e-07 -1.22772e-05 1.996883e-27)
(-9.789077e-07 -1.341514e-05 -5.751857e-30)
(-2.437317e-07 -9.617846e-06 -1.155496e-29)
(-6.957287e-07 -1.056517e-05 -7.290944e-30)
(-5.550047e-07 -8.370199e-06 -5.782561e-30)
(-2.611997e-07 -7.551355e-06 6.611283e-28)
(-2.683004e-05 -3.528852e-05 -8.509457e-33)
(-2.372144e-05 -2.443979e-05 7.684251e-32)
(-1.263032e-05 -2.718969e-05 -8.591245e-33)
(-1.45988e-05 -2.389114e-05 2.311101e-31)
(-4.941985e-06 -1.940475e-05 0)
(-6.767775e-06 -1.872933e-05 6.228587e-30)
(-2.41231e-06 -1.480185e-05 5.174158e-34)
(-3.559362e-06 -1.492976e-05 1.153695e-29)
(-1.457635e-06 -1.170335e-05 8.329689e-34)
(-2.174369e-06 -1.212286e-05 2.585047e-29)
(-1.006991e-06 -9.317648e-06 1.05924e-33)
(-1.470162e-06 -9.838232e-06 3.157148e-34)
(-1.086059e-06 -7.922772e-06 -1.802784e-31)
(-7.718839e-07 -7.373074e-06 -5.789876e-30)
(-1.153916e-05 -1.294559e-05 3.180149e-31)
(-7.974769e-06 -7.04723e-06 7.649676e-26)
(-8.772727e-06 -1.538453e-05 6.463754e-30)
(-8.185337e-06 -1.192318e-05 -1.313334e-26)
(-5.374873e-06 -1.42154e-05 -8.588264e-31)
(-5.817723e-06 -1.259437e-05 7.558172e-30)
(-3.321225e-06 -1.225008e-05 -7.530993e-28)
(-3.886764e-06 -1.163989e-05 1.239489e-29)
(-2.186958e-06 -1.025788e-05 5.765949e-30)
(-2.658047e-06 -1.014728e-05 -2.827123e-29)
(-1.549241e-06 -8.443449e-06 -3.293035e-35)
(-1.907907e-06 -8.598944e-06 0)
(-1.446428e-06 -7.104858e-06 -7.894085e-31)
(-1.177215e-06 -6.807418e-06 5.790543e-30)
(-4.617186e-06 -6.017218e-06 3.899544e-31)
(-2.552812e-06 -2.94123e-06 -2.967488e-31)
(-5.243891e-06 -9.108097e-06 1.778505e-30)
(-4.28793e-06 -6.548415e-06 -6.306701e-27)
(-4.315848e-06 -9.983385e-06 1.253898e-28)
(-4.110066e-06 -8.310088e-06 -1.323661e-27)
(-3.222562e-06 -9.524122e-06 7.740399e-31)
(-3.346537e-06 -8.614849e-06 8.753081e-28)
(-2.379042e-06 -8.488343e-06 -3.205674e-34)
(-2.59895e-06 -8.090928e-06 -6.949102e-30)
(-1.805107e-06 -7.260391e-06 -6.128966e-34)
(-2.023865e-06 -7.171005e-06 -1.038003e-35)
(-1.617154e-06 -6.090646e-06 5.796072e-30)
(-1.425189e-06 -5.986071e-06 -5.7944e-30)
(-2.221767e-06 -3.469375e-06 -1.186561e-28)
(-1.040432e-06 -1.708403e-06 -1.475356e-31)
(-3.155283e-06 -5.736223e-06 -1.967038e-28)
(-2.350048e-06 -3.991252e-06 1.304203e-31)
(-3.135417e-06 -6.93246e-06 6.264052e-31)
(-2.744563e-06 -5.563907e-06 1.625006e-31)
(-2.719846e-06 -7.164219e-06 -1.144861e-28)
(-2.603389e-06 -6.2418e-06 1.871675e-29)
(-2.243137e-06 -6.76635e-06 -3.228529e-28)
(-2.276149e-06 -6.245413e-06 -3.987436e-28)
(-1.835919e-06 -6.001242e-06 5.100565e-29)
(-1.930978e-06 -5.783193e-06 -5.811017e-30)
(-1.638812e-06 -5.029853e-06 -4.398283e-30)
(-1.527247e-06 -5.048695e-06 5.796673e-30)
(-1.167744e-06 -2.228514e-06 3.697462e-31)
(-4.891401e-07 -1.162137e-06 0)
(-1.936164e-06 -3.806256e-06 1.321172e-28)
(-1.350577e-06 -2.627026e-06 7.480741e-31)
(-2.211841e-06 -4.875666e-06 -1.938648e-28)
(-1.822729e-06 -3.839546e-06 -5.927409e-30)
(-2.158384e-06 -5.316648e-06 1.171262e-28)
(-1.951697e-06 -4.530267e-06 -5.534688e-30)
(-1.9624e-06 -5.251584e-06 -5.10026e-30)
(-1.884015e-06 -4.724567e-06 9.609414e-29)
(-1.733402e-06 -4.807155e-06 -2.246585e-28)
(-1.735709e-06 -4.528157e-06 -5.163808e-30)
(-1.568922e-06 -4.019676e-06 -1.170411e-29)
(-1.524728e-06 -4.101879e-06 -3.892578e-29)
(-6.713923e-07 -1.559619e-06 3.779369e-31)
(-2.649294e-07 -8.78652e-07 -6.416265e-31)
(-1.233723e-06 -2.651442e-06 -5.150132e-30)
(-8.254932e-07 -1.843391e-06 -8.393745e-28)
(-1.561165e-06 -3.491591e-06 -1.227554e-27)
(-1.234446e-06 -2.730732e-06 -3.90331e-28)
(-1.676401e-06 -3.936253e-06 -4.772896e-30)
(-1.455707e-06 -3.310032e-06 -5.971769e-30)
(-1.656653e-06 -3.996919e-06 7.038386e-29)
(-1.529926e-06 -3.542059e-06 2.083147e-30)
(-1.570285e-06 -3.733509e-06 7.392522e-31)
(-1.513844e-06 -3.449995e-06 1.478244e-30)
(-1.455048e-06 -3.090348e-06 7.332853e-31)
(-1.461876e-06 -3.206728e-06 1.267521e-33)
(-4.18777e-07 -1.161972e-06 -2.531415e-31)
(-1.607952e-07 -7.107334e-07 1.334049e-27)
(-8.255936e-07 -1.920931e-06 7.946795e-31)
(-5.381973e-07 -1.356268e-06 -4.414683e-31)
(-1.12837e-06 -2.54728e-06 4.101334e-31)
(-8.680851e-07 -1.997099e-06 7.260217e-31)
(-1.309934e-06 -2.917541e-06 9.166946e-31)
(-1.105271e-06 -2.439573e-06 7.503824e-31)
(-1.387167e-06 -2.995138e-06 1.650229e-30)
(-1.246018e-06 -2.631275e-06 1.16591e-28)
(-1.398264e-06 -2.804035e-06 4.531199e-29)
(-1.312419e-06 -2.563447e-06 1.48037e-30)
(-1.331882e-06 -2.262235e-06 7.383552e-31)
(-1.372833e-06 -2.382771e-06 -5.114211e-30)
(-2.800699e-07 -9.047819e-07 -8.136305e-31)
(-1.064128e-07 -6.008573e-07 -9.348266e-28)
(-5.803953e-07 -1.431796e-06 -5.108983e-31)
(-3.731799e-07 -1.03036e-06 8.550647e-28)
(-8.425385e-07 -1.884737e-06 9.352276e-29)
(-6.369388e-07 -1.48689e-06 2.314383e-28)
(-1.042394e-06 -2.154629e-06 3.339721e-30)
(-8.625477e-07 -1.799942e-06 1.926017e-30)
(-1.171343e-06 -2.19955e-06 6.466579e-29)
(-1.03226e-06 -1.923416e-06 5.885274e-29)
(-1.246064e-06 -2.021738e-06 7.405216e-31)
(-1.148172e-06 -1.837271e-06 7.402933e-31)
(-1.222925e-06 -1.549749e-06 0)
(-1.282907e-06 -1.64186e-06 -4.420769e-31)
(-1.994152e-07 -7.262634e-07 -1.552909e-31)
(-7.549485e-08 -5.232584e-07 6.84712e-31)
(-4.294943e-07 -1.085022e-06 -1.264758e-30)
(-2.744499e-07 -7.979272e-07 -8.404017e-31)
(-6.544669e-07 -1.398571e-06 7.339967e-31)
(-4.899367e-07 -1.113645e-06 -1.315113e-30)
(-8.536774e-07 -1.569577e-06 1.14757e-30)
(-6.97902e-07 -1.314356e-06 -1.821525e-28)
(-1.009184e-06 -1.561087e-06 -1.924784e-32)
(-8.786764e-07 -1.363047e-06 4.226202e-30)
(-1.125046e-06 -1.365364e-06 0)
(-1.024408e-06 -1.237654e-06 0)
(-1.138103e-06 -9.371036e-07 0)
(-1.207564e-06 -9.912283e-07 1.03956e-30)
(-1.504464e-07 -5.948011e-07 0)
(-5.685748e-08 -4.651028e-07 0)
(-3.34699e-07 -8.262556e-07 -8.903929e-31)
(-2.135105e-07 -6.227957e-07 9.141054e-31)
(-5.310301e-07 -1.027115e-06 2.616531e-31)
(-3.958173e-07 -8.276024e-07 4.026582e-28)
(-7.242678e-07 -1.108143e-06 1.187516e-30)
(-5.883804e-07 -9.326579e-07 -8.030455e-31)
(-8.940047e-07 -1.039537e-06 1.995842e-32)
(-7.733453e-07 -9.085693e-07 -6.499139e-29)
(-1.037464e-06 -8.094729e-07 0)
(-9.383807e-07 -7.348355e-07 0)
(-1.080651e-06 -4.059466e-07 5.50534e-31)
(-1.15418e-06 -4.205266e-07 4.527286e-31)
(-1.198523e-07 -4.930068e-07 9.137251e-31)
(-4.525981e-08 -4.191911e-07 0)
(-2.744572e-07 -6.239483e-07 2.285694e-32)
(-1.751753e-07 -4.841819e-07 -5.094313e-28)
(-4.509464e-07 -7.318909e-07 -2.859224e-30)
(-3.358472e-07 -5.986665e-07 -1.634096e-30)
(-6.388801e-07 -7.328591e-07 -4.719431e-29)
(-5.179296e-07 -6.217211e-07 2.459238e-28)
(-8.178308e-07 -6.037605e-07 2.125444e-31)
(-7.058521e-07 -5.296167e-07 1.209592e-30)
(-9.815554e-07 -3.31389e-07 5.503445e-31)
(-8.853813e-07 -3.044752e-07 -9.606138e-31)
(-1.050405e-06 6.10947e-08 -3.071442e-29)
(-1.125265e-06 8.467143e-08 4.385575e-29)
(-1.005231e-07 -4.103007e-07 1.755522e-31)
(-3.793245e-08 -3.811586e-07 7.863969e-31)
(-2.364091e-07 -4.587934e-07 -1.568566e-29)
(-1.51101e-07 -3.694239e-07 1.755809e-31)
(-4.006805e-07 -4.881916e-07 -1.961603e-30)
(-2.986723e-07 -4.078093e-07 -1.482636e-30)
(-5.863715e-07 -4.177245e-07 -2.1154e-31)
(-4.755557e-07 -3.592265e-07 -1.978206e-30)
(-7.735164e-07 -2.301911e-07 3.512688e-32)
(-6.679636e-07 -2.041741e-07 -1.512337e-28)
(-9.542062e-07 8.792052e-08 -9.413947e-31)
(-8.605656e-07 7.273229e-08 6.182454e-29)
(-1.045714e-06 4.793517e-07 -1.032778e-29)
(-1.120964e-06 5.382769e-07 1.924019e-32)
(-8.8456e-08 -3.402349e-07 7.865486e-31)
(-3.330774e-08 -3.482995e-07 -3.872482e-28)
(-2.132161e-07 -3.184065e-07 -7.405558e-31)
(-1.364315e-07 -2.704232e-07 0)
(-3.714366e-07 -2.793842e-07 -3.208617e-29)
(-2.769259e-07 -2.42396e-07 -2.221249e-30)
(-5.586029e-07 -1.444293e-07 1.296355e-30)
(-4.515903e-07 -1.298531e-07 8.73611e-30)
(-7.551701e-07 9.902987e-08 1.068996e-30)
(-6.505587e-07 8.325629e-08 -2.683441e-28)
(-9.520403e-07 4.640687e-07 -1.601713e-32)
(-8.59116e-07 4.120365e-07 -9.562908e-31)
(-1.064437e-06 8.620003e-07 -3.604428e-32)
(-1.140299e-06 9.528586e-07 -1.484367e-30)
(-8.123172e-08 -2.784565e-07 7.83351e-31)
(-3.048627e-08 -3.187511e-07 7.8299e-31)
(-2.000107e-07 -1.944314e-07 -1.478948e-30)
(-1.283758e-07 -1.815958e-07 9.999574e-31)
(-3.553362e-07 -9.374387e-08 -4.479921e-29)
(-2.670234e-07 -9.353985e-08 -1.479325e-30)
(-5.438534e-07 9.891914e-08 4.473987e-28)
(-4.442716e-07 7.801686e-08 2.744211e-28)
(-7.55339e-07 3.983948e-07 1.299173e-29)
(-6.528254e-07 3.462321e-07 1.457866e-29)
(-9.715327e-07 8.1006e-07 -9.764545e-31)
(-8.788161e-07 7.256904e-07 1.490497e-30)
(-1.104957e-06 1.220262e-06 8.480771e-29)
(-1.181913e-06 1.33958e-06 -1.916089e-30)
(-7.758011e-08 -2.218738e-07 9.994745e-31)
(-2.888099e-08 -2.911424e-07 0)
(-1.952976e-07 -8.077607e-08 1.000159e-30)
(-1.250616e-07 -9.880907e-08 -4.457949e-28)
(-3.551159e-07 7.700746e-08 5.063227e-31)
(-2.660737e-07 4.535148e-08 -7.377035e-31)
(-5.512834e-07 3.221008e-07 4.631671e-29)
(-4.512518e-07 2.714242e-07 -2.34884e-31)
(-7.783329e-07 6.768275e-07 3.001181e-30)
(-6.734741e-07 5.930124e-07 1.510955e-30)
(-1.012367e-06 1.136159e-06 3.668315e-29)
(-9.176156e-07 1.023734e-06 1.48985e-30)
(-1.165843e-06 1.563993e-06 5.11902e-31)
(-1.245032e-06 1.708283e-06 1.993212e-30)
(-7.631168e-08 -1.680742e-07 2.009156e-30)
(-2.813165e-08 -2.644209e-07 1.143129e-30)
(-1.95767e-07 2.725032e-08 1.273234e-30)
(-1.251785e-07 -1.883651e-08 -4.640859e-28)
(-3.619314e-07 2.394234e-07 -1.839256e-29)
(-2.71438e-07 1.796366e-07 -2.212116e-30)
(-5.700379e-07 5.373843e-07 -7.530331e-31)
(-4.67261e-07 4.593848e-07 -1.482462e-30)
(-8.154993e-07 9.447635e-07 0)
(-7.067036e-07 8.339215e-07 0)
(-1.071282e-06 1.451981e-06 0)
(-9.728781e-07 1.315339e-06 -4.164669e-31)
(-1.245848e-06 1.902261e-06 -2.967053e-30)
(-1.328452e-06 2.068126e-06 -1.481327e-30)
(-7.694557e-08 -1.151937e-07 2.826439e-29)
(-2.804933e-08 -2.376855e-07 -4.158045e-28)
(-2.007749e-07 1.334576e-07 1.713659e-30)
(-1.281109e-07 6.106454e-08 1.323869e-30)
(-3.765097e-07 3.992516e-07 -1.571811e-29)
(-2.824645e-07 3.138675e-07 -3.685031e-30)
(-6.000825e-07 7.499306e-07 -7.530994e-31)
(-4.923807e-07 6.475244e-07 -2.223041e-30)
(-8.671768e-07 1.21011e-06 -4.213083e-31)
(-7.524777e-07 1.075511e-06 0)
(-1.14766e-06 1.766086e-06 -2.077995e-29)
(-1.044108e-06 1.608467e-06 -2.240531e-28)
(-1.344698e-06 2.243683e-06 -4.449887e-30)
(-1.431829e-06 2.42775e-06 -4.722589e-30)
(-7.91586e-08 -6.145236e-08 3.033401e-29)
(-2.853585e-08 -2.100492e-07 2.007271e-30)
(-2.097196e-07 2.41355e-07 3.435873e-30)
(-1.33537e-07 1.435311e-07 -5.273638e-28)
(-3.980541e-07 5.617163e-07 -2.39093e-29)
(-2.986712e-07 4.523851e-07 -1.171683e-30)
(-6.405546e-07 9.661859e-07 -1.5057e-30)
(-5.256362e-07 8.417002e-07 -1.481608e-30)
(-9.327377e-07 1.48e-06 1.080475e-30)
(-8.072036e-07 1.32355e-06 1.20244e-29)
(-1.241498e-06 2.086831e-06 -4.19039e-31)
(-1.127095e-06 1.908571e-06 1.610927e-29)
(-1.46227e-06 2.596839e-06 1.493512e-30)
(-1.555472e-06 2.795746e-06 5.022122e-30)
(-8.285383e-08 -5.106666e-09 2.980696e-30)
(-2.958765e-08 -1.805648e-07 -4.800598e-28)
(-2.224e-07 3.544145e-07 3.143938e-30)
(-1.415562e-07 2.313602e-07 -5.655469e-28)
(-4.259835e-07 7.319415e-07 1.039104e-30)
(-3.204751e-07 5.997552e-07 -5.093679e-28)
(-6.885663e-07 1.192888e-06 1.19154e-29)
(-5.685936e-07 1.048143e-06 2.502072e-30)
(-1.002916e-06 1.755254e-06 8.653119e-29)
(-8.764072e-07 1.586404e-06 1.345777e-29)
(-1.350126e-06 2.423625e-06 -6.012883e-30)
(-1.229114e-06 2.227216e-06 1.671263e-29)
(-1.602022e-06 2.971513e-06 3.68132e-31)
(-1.70003e-06 3.181448e-06 2.976819e-30)
(-8.822414e-08 5.584305e-08 -2.998712e-29)
(-3.132236e-08 -1.482093e-07 5.679878e-31)
(-2.39534e-07 4.765217e-07 -4.749079e-30)
(-1.525973e-07 3.276493e-07 -6.128818e-28)
(-4.628782e-07 9.155807e-07 5.309034e-30)
(-3.486665e-07 7.611372e-07 -5.59191e-28)
(-7.542239e-07 1.43734e-06 7.046902e-30)
(-6.225556e-07 1.273841e-06 -4.84946e-28)
(-1.097988e-06 2.049482e-06 3.088215e-30)
(-9.631058e-07 1.872474e-06 1.486542e-30)
(-1.485616e-06 2.784191e-06 -1.07068e-30)
(-1.354823e-06 2.574863e-06 -2.746545e-28)
(-1.767846e-06 3.37915e-06 1.885177e-28)
(-1.87082e-06 3.594952e-06 2.10001e-29)
(-9.562304e-08 1.235181e-07 1.79482e-30)
(-3.397873e-08 -1.118297e-07 -9.059784e-31)
(-2.616217e-07 6.120518e-07 -9.328454e-30)
(-1.673225e-07 4.358892e-07 1.795083e-30)
(-5.081881e-07 1.119124e-06 3.815883e-30)
(-3.843568e-07 9.423744e-07 1.766823e-30)
(-8.30739e-07 1.707713e-06 2.052027e-30)
(-6.885307e-07 1.527147e-06 -5.352785e-28)
(-1.21201e-06 2.383592e-06 1.557163e-30)
(-1.066931e-06 2.195843e-06 4.101466e-31)
(-1.643527e-06 3.182406e-06 1.595451e-30)
(-1.503676e-06 2.966125e-06 1.590161e-30)
(-1.963434e-06 3.833523e-06 -2.329525e-28)
(-2.070267e-06 4.04926e-06 4.083446e-30)
(-1.055975e-07 2.004367e-07 -9.061421e-31)
(-3.784236e-08 -7.003048e-08 5.903883e-28)
(-2.899352e-07 7.659543e-07 0)
(-1.867178e-07 5.601514e-07 0)
(-5.645246e-07 1.350076e-06 1.43854e-30)
(-4.294531e-07 1.150189e-06 0)
(-9.240653e-07 2.014107e-06 -1.895471e-29)
(-7.698224e-07 1.817382e-06 5.995419e-28)
(-1.349464e-06 2.76226e-06 4.18573e-31)
(-1.192615e-06 2.566046e-06 5.457124e-28)
(-1.830798e-06 3.630865e-06 1.146427e-30)
(-1.676957e-06 3.409805e-06 1.140991e-30)
(-2.189527e-06 4.345527e-06 1.138995e-30)
(-2.305494e-06 4.560297e-06 -7.730871e-31)
(-1.188726e-07 2.895511e-07 -1.795614e-30)
(-4.326303e-08 -2.122862e-08 6.134377e-28)
(-3.260968e-07 9.440792e-07 0)
(-2.120078e-07 7.05188e-07 7.332549e-31)
(-6.345513e-07 1.617115e-06 -2.498553e-30)
(-4.862632e-07 1.392511e-06 -3.600899e-31)
(-1.037734e-06 2.368189e-06 2.468973e-29)
(-8.70286e-07 2.155555e-06 -1.027857e-30)
(-1.511959e-06 3.199548e-06 -2.50226e-30)
(-1.346657e-06 2.997052e-06 4.464465e-28)
(-2.039451e-06 4.132089e-06 1.148146e-30)
(-1.8888e-06 3.925609e-06 -1.066722e-28)
(-2.464901e-06 4.941624e-06 0)
(-2.581829e-06 5.148649e-06 -1.178062e-30)
(-1.362969e-07 3.942385e-07 -1.536058e-31)
(-5.05493e-08 3.639774e-08 -8.858662e-31)
(-3.720156e-07 1.153251e-06 -2.257558e-29)
(-2.442408e-07 8.764277e-07 1.861558e-30)
(-7.217715e-07 1.930502e-06 1.1098e-30)
(-5.568285e-07 1.678444e-06 7.051431e-28)
(-1.178695e-06 2.783428e-06 -4.612298e-29)
(-9.931935e-07 2.554426e-06 1.470132e-30)
(-1.718048e-06 3.71296e-06 2.613928e-30)
(-1.533927e-06 3.504775e-06 -5.571102e-28)
(-2.304276e-06 4.716958e-06 1.132551e-30)
(-2.146791e-06 4.530537e-06 7.064362e-30)
(-2.800195e-06 5.642417e-06 3.07482e-30)
(-2.922008e-06 5.832966e-06 -4.236671e-30)
(-1.583798e-07 5.183761e-07 1.12794e-30)
(-5.984731e-08 1.049225e-07 9.241637e-31)
(-4.288729e-07 1.401181e-06 6.821951e-32)
(-2.839502e-07 1.079982e-06 -7.297664e-28)
(-8.279899e-07 2.301832e-06 -1.06157e-30)
(-6.422219e-07 2.018162e-06 -2.167309e-30)
(-1.348056e-06 3.275062e-06 3.974464e-30)
(-1.140314e-06 3.028201e-06 0)
(-1.961007e-06 4.319416e-06 -1.518195e-28)
(-1.75665e-06 4.107939e-06 1.027147e-30)
(-2.625946e-06 5.427329e-06 -2.016729e-28)
(-2.454357e-06 5.255077e-06 5.951362e-30)
(-3.199689e-06 6.477979e-06 6.153413e-30)
(-3.326731e-06 6.641082e-06 -5.404439e-32)
(-1.85289e-07 6.662579e-07 2.012842e-30)
(-7.097073e-08 1.866521e-07 -5.363264e-28)
(-4.970958e-07 1.696443e-06 -1.631959e-32)
(-3.306202e-07 1.322552e-06 2.234424e-30)
(-9.542469e-07 2.743892e-06 -1.106718e-30)
(-7.419252e-07 2.422872e-06 6.242e-28)
(-1.548491e-06 3.860258e-06 -2.945265e-30)
(-1.311483e-06 3.592457e-06 0)
(-2.248433e-06 5.040894e-06 2.055751e-28)
(-2.015914e-06 4.826305e-06 -2.945686e-30)
(-3.008365e-06 6.273227e-06 -2.607052e-28)
(-2.813654e-06 6.118073e-06 1.091113e-30)
(-3.66214e-06 7.465626e-06 -2.252792e-29)
(-3.808808e-06 7.598548e-06 1.705612e-30)
(-2.161114e-07 8.424076e-07 2.032944e-30)
(-8.333762e-08 2.84048e-07 1.218091e-30)
(-5.752694e-07 2.048503e-06 7.978901e-32)
(-3.821777e-07 1.611372e-06 -5.887329e-28)
(-1.098821e-06 3.270674e-06 -1.06666e-30)
(-8.524334e-07 2.904578e-06 -1.065824e-30)
(-1.778426e-06 4.557531e-06 0)
(-1.502167e-06 4.263936e-06 -4.041705e-30)
(-2.579608e-06 5.900862e-06 1.089278e-30)
(-2.30716e-06 5.681226e-06 -2.948629e-30)
(-3.449577e-06 7.28229e-06 -2.41201e-29)
(-3.2227e-06 7.145635e-06 1.39104e-28)
(-4.199197e-06 8.64765e-06 -1.030348e-27)
(-4.352905e-06 8.713559e-06 2.928758e-27)
(-2.490305e-07 1.051635e-06 -1.306514e-28)
(-9.438207e-08 3.991808e-07 -2.011931e-28)
(-6.592657e-07 2.467208e-06 3.685935e-31)
(-4.319606e-07 1.951853e-06 3.69511e-31)
(-1.255409e-06 3.896948e-06 -4.038399e-30)
(-9.649965e-07 3.475389e-06 -3.255751e-31)
(-2.030363e-06 5.386473e-06 2.307611e-28)
(-1.700822e-06 5.060077e-06 2.05952e-28)
(-2.948982e-06 6.923521e-06 2.159817e-30)
(-2.616328e-06 6.694966e-06 -1.839054e-30)
(-3.959054e-06 8.487719e-06 -4.026985e-28)
(-3.665707e-06 8.363632e-06 6.839418e-29)
(-4.791556e-06 1.004054e-05 1.457396e-28)
(-4.994716e-06 1.004028e-05 -1.401043e-27)
(-2.759944e-07 1.293767e-06 8.704037e-31)
(-1.018313e-07 5.321596e-07 8.624793e-31)
(-7.384522e-07 2.962529e-06 -3.263866e-31)
(-4.727821e-07 2.351266e-06 0)
(-1.410192e-06 4.637935e-06 9.240171e-29)
(-1.06529e-06 4.146828e-06 -1.296065e-28)
(-2.286202e-06 6.367225e-06 -1.425669e-30)
(-1.886874e-06 5.997915e-06 -2.529399e-30)
(-3.332213e-06 8.133321e-06 3.290034e-30)
(-2.917323e-06 7.890174e-06 3.649763e-28)
(-4.494288e-06 9.909861e-06 3.343604e-30)
(-4.111911e-06 9.802013e-06 5.665372e-28)
(-5.410192e-06 1.169948e-05 -4.008232e-33)
(-5.701278e-06 1.16447e-05 4.288497e-30)
(-2.953505e-07 1.573403e-06 0)
(-1.016649e-07 6.853677e-07 -4.098152e-31)
(-8.012646e-07 3.540289e-06 2.276605e-30)
(-4.898314e-07 2.810658e-06 -2.422842e-30)
(-1.54219e-06 5.507095e-06 2.268071e-30)
(-1.125801e-06 4.921445e-06 -1.544712e-29)
(-2.517403e-06 7.519336e-06 2.193459e-30)
(-2.026966e-06 7.091353e-06 0)
(-3.696141e-06 9.556867e-06 3.283425e-30)
(-3.169681e-06 9.288275e-06 1.010617e-27)
(-5.0248e-06 1.158663e-05 -6.77258e-32)
(-4.516102e-06 1.148955e-05 1.087666e-30)
(-6.008947e-06 1.365492e-05 -2.35772e-27)
(-6.427602e-06 1.354425e-05 -1.176315e-30)
(-2.925059e-07 1.903543e-06 -3.958621e-28)
(-8.757963e-08 8.61949e-07 1.450521e-28)
(-8.134288e-07 4.190439e-06 -4.304028e-30)
(-4.639971e-07 3.332463e-06 -6.034948e-28)
(-1.613315e-06 6.514652e-06 -1.864318e-30)
(-1.112188e-06 5.803862e-06 -1.175914e-27)
(-2.679472e-06 8.860618e-06 1.09234e-30)
(-2.066132e-06 8.339613e-06 -5.393101e-31)
(-3.988786e-06 1.121869e-05 1.092082e-30)
(-3.311738e-06 1.090478e-05 5.287847e-30)
(-5.497967e-06 1.355285e-05 -7.083717e-30)
(-4.806935e-06 1.345173e-05 2.970737e-30)
(-6.512462e-06 1.594216e-05 -1.006211e-29)
(-7.139902e-06 1.579801e-05 1.829735e-27)
(-2.573993e-07 2.278426e-06 -2.191315e-31)
(-5.289797e-08 1.058617e-06 1.242179e-30)
(-7.574303e-07 4.923287e-06 -4.780484e-30)
(-3.759636e-07 3.915636e-06 -1.81163e-31)
(-1.563966e-06 7.630899e-06 -4.478034e-30)
(-9.884233e-07 6.792381e-06 -1.332194e-27)
(-2.705002e-06 1.040315e-05 -5.396609e-28)
(-1.945834e-06 9.759076e-06 -3.236312e-27)
(-4.129841e-06 1.313706e-05 7.165663e-30)
(-3.257625e-06 1.274712e-05 2.589463e-27)
(-5.820229e-06 1.583767e-05 -8.31449e-28)
(-4.875683e-06 1.570387e-05 8.928572e-30)
(-6.795667e-06 1.859276e-05 8.970499e-30)
(-7.729332e-06 1.843108e-05 2.169657e-27)
(-1.711506e-07 2.692345e-06 2.404378e-28)
(1.136035e-08 1.270945e-06 1.076295e-33)
(-6.03695e-07 5.761531e-06 2.699097e-30)
(-1.951047e-07 4.559166e-06 6.038465e-34)
(-1.358241e-06 8.870181e-06 -2.305407e-28)
(-7.050267e-07 7.880132e-06 -1.846232e-30)
(-2.5138e-06 1.213463e-05 1.038182e-27)
(-1.583674e-06 1.131871e-05 -3.458755e-29)
(-4.005422e-06 1.53164e-05 1.206087e-30)
(-2.868835e-06 1.478956e-05 -3.504278e-29)
(-5.850187e-06 1.845528e-05 -2.054318e-27)
(-4.558307e-06 1.824282e-05 -1.558262e-30)
(-6.666634e-06 2.160787e-05 1.192952e-29)
(-8.039916e-06 2.148363e-05 -2.63492e-27)
(-1.250255e-08 3.135389e-06 -2.850444e-28)
(1.158907e-07 1.491711e-06 -5.608743e-31)
(-2.955934e-07 6.670446e-06 -4.537466e-30)
(1.183847e-07 5.241654e-06 -7.164561e-31)
(-9.133359e-07 1.026876e-05 6.873429e-29)
(-1.793362e-07 9.069569e-06 -7.348225e-28)
(-1.939208e-06 1.399862e-05 4.363054e-27)
(-8.356413e-07 1.30343e-05 -2.577374e-27)
(-3.429707e-06 1.775435e-05 2.077809e-27)
(-1.951735e-06 1.704446e-05 -1.265821e-30)
(-5.376131e-06 2.139775e-05 -7.520302e-30)
(-3.609076e-06 2.102547e-05 -6.647438e-27)
(-5.862807e-06 2.49501e-05 0)
(-7.827562e-06 2.493992e-05 -1.380162e-30)
(2.466693e-07 3.595432e-06 0)
(2.751154e-07 1.713797e-06 -1.116451e-30)
(2.345533e-07 7.635326e-06 -8.74292e-31)
(6.22717e-07 5.952235e-06 1.430835e-30)
(-1.00674e-07 1.178965e-05 3.954642e-30)
(7.056177e-07 1.034818e-05 2.021708e-30)
(-8.406344e-07 1.602061e-05 -9.099335e-28)
(4.411884e-07 1.488694e-05 4.834368e-30)
(-2.125598e-06 2.034307e-05 -9.219216e-27)
(-2.972061e-07 1.949581e-05 -4.274504e-27)
(-4.108542e-06 2.463804e-05 2.285256e-29)
(-1.757522e-06 2.407494e-05 1.675074e-29)
(-4.107475e-06 2.853576e-05 -1.297966e-29)
(-6.779435e-06 2.871754e-05 1.652908e-30)
(6.507555e-07 4.067899e-06 -8.708863e-28)
(5.096501e-07 1.939217e-06 7.166295e-31)
(1.093239e-06 8.660881e-06 2.97645e-28)
(1.406351e-06 6.706374e-06 2.860143e-30)
(1.245972e-06 1.343444e-05 2.897365e-30)
(2.103625e-06 1.174353e-05 3.878454e-30)
(9.766577e-07 1.829164e-05 -2.548291e-30)
(2.447185e-06 1.692834e-05 0)
(7.534011e-08 2.310364e-05 -8.774221e-30)
(2.228445e-06 2.210212e-05 2.099323e-28)
(-1.812e-06 2.805692e-05 3.967579e-27)
(1.127718e-06 2.723835e-05 -5.652354e-29)
(-1.085657e-06 3.243467e-05 -9.855964e-29)
(-4.629927e-06 3.278163e-05 6.180891e-27)
(1.264376e-06 4.574821e-06 1.127256e-27)
(8.45213e-07 2.19002e-06 -1.892116e-27)
(2.415522e-06 9.784611e-06 2.4155e-30)
(2.568798e-06 7.550134e-06 3.824969e-30)
(3.303218e-06 1.523125e-05 9.860278e-31)
(4.150946e-06 1.32823e-05 -3.004519e-27)
(3.697136e-06 2.072005e-05 4.780226e-30)
(5.318502e-06 1.911108e-05 -6.073717e-30)
(3.321695e-06 2.610002e-05 -1.351079e-27)
(5.819076e-06 2.490388e-05 -9.130905e-30)
(1.877548e-06 3.16999e-05 2.291112e-26)
(5.460825e-06 3.093136e-05 -2.22908e-26)
(3.704481e-06 3.772756e-05 -1.406195e-28)
(-1.034576e-06 3.796842e-05 1.881195e-26)
(2.147572e-06 5.160214e-06 1.441047e-27)
(1.304942e-06 2.497996e-06 1.765268e-30)
(4.303016e-06 1.104483e-05 3.329337e-30)
(4.171177e-06 8.520603e-06 -3.89872e-27)
(6.163585e-06 1.715598e-05 -5.129787e-30)
(6.896582e-06 1.494131e-05 -1.799998e-31)
(7.434855e-06 2.328183e-05 -1.704417e-27)
(9.152268e-06 2.144549e-05 -2.549507e-30)
(7.916417e-06 2.961298e-05 -3.035856e-27)
(1.084285e-05 2.824636e-05 -2.102246e-29)
(7.253848e-06 3.672149e-05 1.289607e-27)
(1.178844e-05 3.599007e-05 -4.357662e-29)
(1.082621e-05 4.527815e-05 -5.434491e-29)
(4.367668e-06 4.604133e-05 1.48502e-26)
(3.3179e-06 5.834284e-06 -4.344657e-30)
(1.899014e-06 2.883242e-06 -3.407667e-31)
(6.772554e-06 1.24266e-05 -1.57349e-27)
(6.218135e-06 9.619053e-06 6.130264e-27)
(9.884618e-06 1.922943e-05 2.788333e-27)
(1.038328e-05 1.672111e-05 7.776444e-27)
(1.255493e-05 2.640223e-05 -3.61647e-30)
(1.439629e-05 2.43442e-05 -7.882418e-31)
(1.47026e-05 3.459014e-05 -1.342354e-26)
(1.844942e-05 3.305827e-05 3.073695e-26)
(1.541806e-05 4.426038e-05 -1.403717e-29)
(2.172656e-05 4.313956e-05 -4.066106e-29)
(2.205685e-05 5.456392e-05 -1.011968e-29)
(1.267699e-05 5.670582e-05 -1.173862e-29)
(4.762732e-06 6.613141e-06 -1.418073e-29)
(2.627663e-06 3.358613e-06 -2.550406e-27)
(9.831308e-06 1.390296e-05 -1.830713e-26)
(8.709284e-06 1.088636e-05 -1.548252e-29)
(1.492934e-05 2.187346e-05 -1.934753e-29)
(1.51321e-05 1.903496e-05 -1.512585e-29)
(2.029083e-05 3.100394e-05 -1.492989e-29)
(2.244761e-05 2.872181e-05 -4.631136e-26)
(2.54487e-05 4.158099e-05 -2.062231e-26)
(3.059344e-05 4.000908e-05 -2.457006e-29)
(2.819798e-05 5.31382e-05 -3.698726e-29)
(3.689954e-05 5.137832e-05 -1.701193e-25)
(3.871614e-05 6.190628e-05 -4.215708e-23)
(2.523476e-05 6.887667e-05 5.100692e-29)
(6.531276e-06 7.586777e-06 -3.546285e-27)
(3.501843e-06 3.92402e-06 -1.02419e-30)
(1.393203e-05 1.593186e-05 -1.638857e-30)
(1.204336e-05 1.272658e-05 2.613901e-30)
(2.269511e-05 2.590978e-05 4.392802e-30)
(2.281957e-05 2.307726e-05 7.03249e-30)
(3.287569e-05 3.784024e-05 -9.71851e-30)
(3.612e-05 3.577684e-05 2.07474e-25)
(4.204513e-05 4.981442e-05 -1.408445e-29)
(4.957253e-05 4.880289e-05 -5.083362e-25)
(4.651868e-05 6.551088e-05 -6.78097e-30)
(6.035939e-05 5.890434e-05 9.338661e-23)
(7.140727e-05 6.521442e-05 5.932899e-22)
(4.351645e-05 0.0001014279 1.485897e-28)
(8.99719e-06 9.052827e-06 4.539196e-30)
(4.80567e-06 4.826148e-06 3.619653e-26)
(2.079424e-05 1.977077e-05 3.197771e-26)
(1.781267e-05 1.635036e-05 4.219762e-30)
(3.600929e-05 3.276625e-05 -6.345185e-29)
(3.618686e-05 3.030563e-05 2.799691e-29)
(5.300688e-05 4.685109e-05 -3.34866e-25)
(5.86133e-05 4.639151e-05 -2.855868e-29)
(6.620395e-05 6.357165e-05 -1.179461e-22)
(8.035078e-05 5.937876e-05 -2.12989e-28)
(7.064951e-05 0.0001025853 -4.898062e-29)
(0.0001018179 6.537819e-05 1.384854e-21)
(0.0001275979 6.473369e-05 -3.095546e-29)
(6.570168e-05 0.0001759733 -2.398752e-21)
(1.360073e-05 1.211723e-05 4.473509e-31)
(7.602769e-06 6.915621e-06 4.474119e-31)
(3.31527e-05 2.687062e-05 2.10054e-29)
(2.850717e-05 2.338924e-05 1.954846e-29)
(5.833297e-05 4.36849e-05 1.648288e-25)
(5.839604e-05 4.196061e-05 5.133362e-29)
(8.30605e-05 6.260313e-05 2.964372e-29)
(9.259239e-05 6.038495e-05 7.427922e-23)
(0.0001009528 0.000101601 5.685881e-29)
(0.0001284793 7.103315e-05 -6.000479e-22)
(0.0001024987 0.0001791619 7.850797e-29)
(0.0001719292 7.486235e-05 -3.572468e-28)
(0.0002066652 6.09747e-05 -1.46095e-27)
(9.2502e-05 0.0002889904 -6.884656e-28)
(2.24438e-05 1.815775e-05 1.950974e-29)
(1.300845e-05 1.089927e-05 0)
(5.380295e-05 3.854777e-05 1.856108e-25)
(4.628544e-05 3.499627e-05 1.997585e-29)
(9.095331e-05 6.053235e-05 5.782259e-29)
(9.107086e-05 5.83438e-05 2.608289e-29)
(0.0001229689 0.0001022759 8.835321e-30)
(0.0001423656 7.725184e-05 4.97384e-22)
(0.0001407641 0.0001785891 -4.365823e-28)
(0.0001949439 8.307592e-05 -2.851711e-29)
(0.0001547923 0.0002907581 -1.802678e-20)
(0.0002474462 7.589312e-05 -4.102226e-28)
(0.0003272954 6.709452e-05 -3.019207e-20)
(0.0001273226 0.0004184957 -7.819244e-28)
(3.660857e-05 2.76021e-05 3.074175e-31)
(2.142007e-05 1.706742e-05 1.2052e-29)
(8.303866e-05 5.49227e-05 -4.469899e-30)
(7.140579e-05 5.141745e-05 1.31964e-29)
(0.0001318964 9.276682e-05 -5.64384e-29)
(0.0001345945 7.898585e-05 1.407513e-29)
(0.0001674915 0.0001740861 -6.135749e-29)
(0.000205696 9.685033e-05 -2.934243e-21)
(0.000183235 0.0002891016 -2.903017e-30)
(0.0002706624 9.580219e-05 -2.450849e-29)
(0.0001858896 0.0004304541 -2.486615e-27)
(0.0003352574 7.934771e-05 -1.116699e-28)
(0.0004043709 3.344427e-05 -3.006401e-27)
(0.0002060577 0.0005684033 -4.584852e-20)
(5.585668e-05 4.06989e-05 7.695688e-26)
(3.311551e-05 2.579551e-05 5.203917e-25)
(0.0001171059 8.149825e-05 3.448759e-23)
(0.0001032183 7.098429e-05 -1.16158e-22)
(0.000171331 0.000150959 -5.668781e-29)
(0.0001824581 9.931001e-05 -1.093889e-29)
(0.000209366 0.0002659981 -9.169743e-29)
(0.0002590932 0.0001103607 -7.768911e-29)
(0.0002202682 0.0004197905 -1.345615e-28)
(0.0003547795 0.0001160511 -1.445138e-28)
(0.0002199541 0.0005914987 -6.170598e-28)
(0.0004235687 8.477193e-05 -9.3524e-21)
(0.0005082672 9.620735e-06 -1.401466e-20)
(0.0001942853 0.0007226001 3.190154e-27)
(7.792741e-05 5.647227e-05 -1.501109e-24)
(4.810054e-05 3.657245e-05 9.965084e-24)
(0.0001484539 0.0001240004 -8.792862e-29)
(0.000137569 8.969643e-05 -4.187236e-22)
(0.0001991908 0.0002295224 -3.179477e-29)
(0.0002252504 0.0001147723 -1.775072e-21)
(0.000227848 0.0003740581 -1.302739e-28)
(0.0003066907 0.0001207223 -2.616943e-30)
(0.0002587399 0.0005631854 -1.849411e-20)
(0.0003936488 0.000112926 7.632901e-21)
(0.0002721846 0.0007513798 -6.547306e-27)
(0.0004850089 7.55512e-05 -1.185635e-20)
(0.0006612125 -9.620742e-06 -8.070717e-20)
(0.0002119306 0.0008536991 -4.341242e-20)
(9.869471e-05 7.671468e-05 1.80228e-23)
(6.564224e-05 4.712635e-05 -1.140321e-22)
(0.0001687702 0.0001757102 -5.084107e-29)
(0.0001659226 0.0001019219 -1.850428e-29)
(0.0002102657 0.0003130361 -2.9332e-29)
(0.0002545479 0.0001220346 -1.148667e-29)
(0.0002334037 0.0004933594 9.213563e-29)
(0.0003435358 0.0001257814 -9.098211e-30)
(0.0002482581 0.0007011692 -1.890377e-28)
(0.0004415466 0.0001133346 2.768431e-28)
(0.0002468559 0.0008744718 -7.127063e-27)
(0.0005432141 3.776465e-05 6.063575e-28)
(0.00064076 -0.0002270987 -9.377524e-27)
(0.000258381 0.0008950064 2.32961e-26)
(0.0001112929 0.000100025 -3.281471e-29)
(7.920414e-05 5.332286e-05 -1.64398e-29)
(0.0001730918 0.000224623 2.088985e-29)
(0.0001799443 0.0001040302 -4.486e-32)
(0.0002063457 0.0003904296 2.825604e-21)
(0.0002698515 0.0001211955 1.22831e-29)
(0.0002273001 0.0006012561 1.751948e-28)
(0.0003678815 0.0001230296 -7.706762e-21)
(0.0002378967 0.0008155571 1.613609e-20)
(0.0004771476 9.649041e-05 2.659582e-28)
(0.0002216802 0.000917172 -1.606958e-27)
(0.0005905311 -6.492149e-05 1.061012e-27)