/*--------------------------------*- C++ -*----------------------------------*\
| =========                 |                                                 |
| \\      /  F ield         | OpenFOAM: The Open Source CFD Toolbox           |
|  \\    /   O peration     | Version:  2206                                  |
|   \\  /    A nd           | Website:  www.openfoam.com                      |
|    \\/     M anipulation  |                                                 |
\*---------------------------------------------------------------------------*/
FoamFile
{
    version     2.0;
    format      ascii;
    arch        "LSB;label=32;scalar=64";
    class       surfaceVectorField;
    location    "2";
    object      Ufb;
}
// * * * * * * * * * * * * * * * * * * * * * * * * * * * * * * * * * * * * * //

dimensions      [0 1 -1 0 0 0 0];

internalField   nonuniform List<vector> 
26037
(
(-5.476016e-06 5.945714e-05 7.448331e-22)
(2.416404e-05 6.520826e-06 -1.635798e-27)
(-5.670842e-06 3.219905e-05 5.900717e-24)
(3.940209e-06 3.572042e-05 1.867217e-24)
(-5.358922e-06 1.637702e-05 1.249274e-27)
(-1.827341e-06 2.260285e-05 1.252111e-27)
(-5.467188e-06 9.447593e-06 2.651553e-28)
(-4.726455e-06 1.357811e-05 0)
(-5.601635e-06 6.062998e-06 5.710346e-24)
(-5.368138e-06 8.133234e-06 2.664464e-28)
(-5.778286e-06 3.691657e-06 3.236535e-28)
(-5.694346e-06 5.088302e-06 -4.087994e-27)
(-5.94856e-06 2.866666e-06 1.353588e-28)
(-5.979306e-06 1.825532e-06 1.825825e-24)
(1.050596e-05 3.891483e-05 -8.077765e-30)
(4.783761e-05 5.758575e-06 1.267228e-27)
(5.338168e-07 2.608984e-05 -8.155404e-30)
(1.554736e-05 2.334595e-05 -6.553372e-28)
(-2.801235e-06 1.548783e-05 0)
(2.402856e-06 1.809024e-05 -3.606823e-28)
(-4.670498e-06 9.646659e-06 1.323236e-30)
(-2.632607e-06 1.201478e-05 -5.905611e-28)
(-5.410073e-06 6.186041e-06 2.200677e-30)
(-4.5604e-06 7.925771e-06 5.852713e-26)
(-5.831914e-06 3.734293e-06 2.879926e-30)
(-5.470612e-06 5.094302e-06 8.778524e-31)
(-5.972475e-06 2.91082e-06 -9.067134e-29)
(-6.136906e-06 1.816783e-06 8.569729e-29)
(2.62049e-05 1.845898e-05 6.167767e-28)
(2.588781e-05 5.215665e-06 9.327902e-23)
(8.381674e-06 1.671142e-05 -1.017357e-27)
(1.162426e-05 1.330684e-05 -2.152187e-23)
(2.932321e-08 1.276064e-05 1.153623e-24)
(3.267049e-06 1.261915e-05 -8.332954e-28)
(-3.325792e-06 9.112948e-06 -2.067321e-24)
(-1.33198e-06 1.008723e-05 -6.910358e-28)
(-4.857711e-06 6.187599e-06 -2.29392e-28)
(-3.769109e-06 7.422365e-06 -9.965519e-26)
(-5.660503e-06 3.866914e-06 7.10083e-34)
(-5.076131e-06 5.046583e-06 0)
(-5.82333e-06 3.010153e-06 -2.904989e-27)
(-6.145724e-06 1.950214e-06 -8.408816e-29)
(1.676482e-05 1.04292e-05 -1.97159e-28)
(1.607956e-05 3.991629e-06 6.59669e-28)
(7.215824e-06 1.188585e-05 -1.329367e-27)
(8.943919e-06 9.160085e-06 -1.672995e-23)
(1.122959e-06 1.055076e-05 3.494193e-25)
(3.288081e-06 9.741762e-06 -3.63801e-24)
(-2.301698e-06 8.347297e-06 -9.729435e-29)
(-5.894027e-07 8.644066e-06 2.420366e-24)
(-4.199411e-06 6.059978e-06 -6.105236e-31)
(-3.051488e-06 6.860246e-06 1.862456e-28)
(-5.305107e-06 3.98203e-06 -1.60728e-30)
(-4.571166e-06 4.934668e-06 3.211118e-33)
(-5.519655e-06 3.09669e-06 -9.973176e-29)
(-5.986733e-06 2.136073e-06 7.410478e-29)
(1.13392e-05 7.111841e-06 -4.657352e-25)
(1.161513e-05 3.003815e-06 2.017675e-30)
(5.948682e-06 9.13683e-06 -5.457612e-25)
(7.333534e-06 6.936733e-06 -2.882277e-28)
(1.536783e-06 8.879048e-06 -4.884204e-28)
(3.207653e-06 7.919664e-06 -3.439792e-28)
(-1.53846e-06 7.542593e-06 -3.15647e-25)
(-4.756076e-08 7.473945e-06 6.669771e-26)
(-3.547381e-06 5.817204e-06 -1.040284e-24)
(-2.377313e-06 6.270446e-06 -1.162875e-24)
(-4.830595e-06 4.017048e-06 2.342217e-25)
(-3.996283e-06 4.737875e-06 1.135469e-28)
(-5.103559e-06 3.113726e-06 5.870131e-27)
(-5.690038e-06 2.291233e-06 -9.81243e-29)
(8.606585e-06 5.120341e-06 -6.758343e-30)
(8.784919e-06 2.257847e-06 0)
(5.079673e-06 7.144904e-06 3.667061e-25)
(6.095126e-06 5.339017e-06 -1.78321e-28)
(1.71691e-06 7.44593e-06 -5.395475e-25)
(3.062201e-06 6.449858e-06 -4.421925e-30)
(-9.415632e-07 6.699735e-06 3.322158e-25)
(3.557938e-07 6.417421e-06 4.341515e-29)
(-2.910909e-06 5.425817e-06 9.715232e-29)
(-1.793786e-06 5.617909e-06 3.262011e-25)
(-4.311679e-06 3.925268e-06 -7.363721e-25)
(-3.417688e-06 4.421728e-06 1.033687e-28)
(-4.631564e-06 3.027321e-06 1.792247e-28)
(-5.303367e-06 2.35857e-06 -1.644134e-25)
(6.761159e-06 3.790515e-06 -1.714692e-28)
(6.823344e-06 1.720452e-06 3.174405e-28)
(4.36079e-06 5.595702e-06 -1.854874e-28)
(5.070163e-06 4.135562e-06 -2.247633e-24)
(1.793172e-06 6.171801e-06 -3.382256e-24)
(2.838713e-06 5.213148e-06 -9.927387e-25)
(-5.073835e-07 5.82393e-06 8.90946e-29)
(6.24918e-07 5.412406e-06 1.152419e-28)
(-2.347839e-06 4.909061e-06 2.027996e-25)
(-1.320332e-06 4.916263e-06 -5.122466e-29)
(-3.789223e-06 3.682729e-06 -1.195259e-29)
(-2.902916e-06 3.986766e-06 -2.162563e-29)
(-4.164383e-06 2.81391e-06 -7.461518e-30)
(-4.890996e-06 2.307208e-06 3.048661e-30)
(5.407689e-06 2.875048e-06 1.811057e-28)
(5.398812e-06 1.338489e-06 4.431188e-24)
(3.710877e-06 4.386747e-06 -2.353677e-28)
(4.208195e-06 3.228898e-06 8.395645e-29)
(1.735346e-06 5.047327e-06 -9.990743e-29)
(2.538339e-06 4.186691e-06 -2.42292e-29)
(-2.151831e-07 4.946014e-06 -2.577142e-29)
(7.322638e-07 4.4828e-06 -8.794713e-30)
(-1.907722e-06 4.302762e-06 -3.52736e-29)
(-9.847567e-07 4.190331e-06 4.719732e-25)
(-3.3202e-06 3.312681e-06 1.35585e-25)
(-2.482295e-06 3.474933e-06 -1.730718e-29)
(-3.754478e-06 2.482467e-06 -7.513107e-30)
(-4.485192e-06 2.123033e-06 3.036213e-29)
(4.374838e-06 2.230882e-06 2.202264e-28)
(4.334919e-06 1.063777e-06 -3.015334e-24)
(3.139211e-06 3.448515e-06 2.950682e-28)
(3.488526e-06 2.541684e-06 2.149223e-24)
(1.590542e-06 4.084354e-06 2.622478e-25)
(2.211527e-06 3.337857e-06 5.396625e-25)
(-5.661037e-08 4.112508e-06 -6.591772e-29)
(7.322734e-07 3.652445e-06 -9.303011e-29)
(-1.587371e-06 3.655843e-06 1.827343e-25)
(-7.733634e-07 3.477208e-06 3.390371e-25)
(-2.94779e-06 2.852532e-06 -7.619584e-30)
(-2.167917e-06 2.914322e-06 -7.617235e-30)
(-3.420806e-06 2.074127e-06 0)
(-4.126278e-06 1.82561e-06 -8.124437e-29)
(3.571185e-06 1.763093e-06 -2.209306e-29)
(3.526825e-06 8.607289e-07 -2.013588e-28)
(2.638645e-06 2.713034e-06 2.479261e-28)
(2.895323e-06 2.011094e-06 1.79373e-28)
(1.400777e-06 3.266028e-06 -1.409431e-29)
(1.891668e-06 2.637648e-06 1.823545e-28)
(1.644583e-09 3.343824e-06 -8.343258e-29)
(6.620553e-07 2.917254e-06 -2.682787e-25)
(-1.376329e-06 3.003063e-06 1.72036e-31)
(-6.615771e-07 2.79644e-06 -2.113656e-25)
(-2.6689e-06 2.338434e-06 0)
(-1.953266e-06 2.334045e-06 0)
(-3.170199e-06 1.608631e-06 0)
(-3.845497e-06 1.443896e-06 -8.042712e-29)
(2.941373e-06 1.411793e-06 0)
(2.907192e-06 7.053069e-07 0)
(2.209911e-06 2.127577e-06 1.138141e-28)
(2.412536e-06 1.591538e-06 -1.221668e-28)
(1.19554e-06 2.572373e-06 4.589045e-29)
(1.59726e-06 2.054813e-06 8.050847e-25)
(-9.267085e-09 2.644642e-06 -6.971309e-29)
(5.538688e-07 2.268588e-06 -8.956037e-30)
(-1.254766e-06 2.365597e-06 -1.30442e-31)
(-6.234489e-07 2.157344e-06 7.595011e-26)
(-2.477542e-06 1.795435e-06 0)
(-1.822817e-06 1.752889e-06 0)
(-2.998449e-06 1.108198e-06 -9.319317e-29)
(-3.638697e-06 1.003437e-06 7.328429e-29)
(2.448022e-06 1.138304e-06 -1.221159e-28)
(2.431636e-06 5.819951e-07 0)
(1.850714e-06 1.650693e-06 -2.773528e-29)
(2.025712e-06 1.250205e-06 -1.064424e-24)
(9.946895e-07 1.977947e-06 1.561425e-28)
(1.3391e-06 1.561282e-06 9.676938e-29)
(-6.330412e-08 2.011948e-06 -1.363977e-25)
(4.300109e-07 1.692879e-06 3.52459e-25)
(-1.200677e-06 1.753742e-06 -6.565894e-30)
(-6.345305e-07 1.561269e-06 -1.062929e-29)
(-2.361196e-06 1.238463e-06 -9.316109e-29)
(-1.755965e-06 1.180982e-06 -4.200682e-29)
(-2.89839e-06 5.873492e-07 -3.199649e-25)
(-3.50311e-06 5.232983e-07 1.459327e-25)
(2.065001e-06 9.163841e-07 -1.005107e-28)
(2.070966e-06 4.805145e-07 -9.705135e-29)
(1.556868e-06 1.252156e-06 -4.748645e-26)
(1.721746e-06 9.636561e-07 -1.005271e-28)
(8.109859e-07 1.461788e-06 4.794152e-29)
(1.121621e-06 1.134044e-06 3.475285e-30)
(-1.395115e-07 1.436337e-06 4.182922e-29)
(3.073174e-07 1.176214e-06 4.745097e-29)
(-1.194903e-06 1.168327e-06 -4.60834e-29)
(-6.734998e-07 1.003655e-06 -3.890864e-26)
(-2.306172e-06 6.855763e-07 -4.199545e-29)
(-1.742823e-06 6.214771e-07 -1.130192e-25)
(-2.85468e-06 5.669079e-08 2.519382e-25)
(-3.430622e-06 1.874039e-08 1.196472e-32)
(1.773852e-06 7.298279e-07 -9.707007e-29)
(1.804998e-06 3.936303e-07 -8.888694e-25)
(1.323558e-06 9.089221e-07 1.29615e-30)
(1.490972e-06 7.147346e-07 0)
(6.506847e-07 1.003122e-06 -9.015008e-26)
(9.467719e-07 7.534721e-07 2.314413e-30)
(-2.25378e-07 9.080577e-07 4.716047e-30)
(1.92576e-07 7.01388e-07 2.742163e-29)
(-1.223713e-06 6.12953e-07 -4.141679e-29)
(-7.316823e-07 4.807104e-07 -3.138726e-25)
(-2.299446e-06 1.352482e-07 4.622687e-29)
(-1.764798e-06 7.726037e-08 -4.490851e-29)
(-2.858609e-06 -4.768525e-07 -1.793853e-30)
(-3.411836e-06 -5.014198e-07 -5.586231e-29)
(1.562161e-06 5.669984e-07 -8.481512e-29)
(1.620141e-06 3.167634e-07 -8.477603e-29)
(1.148308e-06 6.027379e-07 1.016418e-30)
(1.327648e-06 4.915981e-07 -6.697598e-29)
(5.228736e-07 5.838729e-07 -1.568502e-25)
(8.171047e-07 4.058858e-07 1.016677e-30)
(-2.947739e-07 4.156066e-07 1.344103e-24)
(1.040387e-07 2.595142e-07 3.375416e-25)
(-1.269011e-06 8.052008e-08 1.667671e-29)
(-7.82786e-07 -2.276781e-08 2.028374e-29)
(-2.327409e-06 -4.072613e-07 -9.294386e-29)
(-1.808341e-06 -4.546794e-07 6.10745e-30)
(-2.899287e-06 -1.011586e-06 -1.248461e-25)
(-3.438112e-06 -1.030443e-06 -2.328184e-28)
(1.420765e-06 4.180595e-07 -6.694363e-29)
(1.508919e-06 2.459558e-07 0)
(1.025849e-06 3.235396e-07 -6.698948e-29)
(1.223241e-06 2.848854e-07 -6.456254e-25)
(4.231876e-07 1.965348e-07 2.407649e-29)
(7.293068e-07 8.134218e-08 -9.021491e-31)
(-3.63365e-07 -5.269952e-08 1.434448e-25)
(3.176598e-08 -1.559235e-07 2.238859e-29)
(-1.328249e-06 -4.384315e-07 9.642464e-30)
(-8.44098e-07 -5.114858e-07 3.507053e-30)
(-2.383377e-06 -9.460962e-07 1.375834e-25)
(-1.870672e-06 -9.798381e-07 6.104797e-30)
(-2.971611e-06 -1.548053e-06 -8.583597e-29)
(-3.502906e-06 -1.565863e-06 -7.25363e-29)
(1.343286e-06 2.810721e-07 -1.231243e-28)
(1.462681e-06 1.778208e-07 -6.903473e-29)
(9.540522e-07 6.029547e-08 -1.241105e-28)
(1.176109e-06 8.683405e-08 -6.12058e-25)
(3.589214e-07 -1.73395e-07 -5.783447e-26)
(6.828148e-07 -2.311562e-07 -4.044102e-30)
(-4.235114e-07 -5.05646e-07 -1.73954e-30)
(-1.778128e-08 -5.63057e-07 -4.317692e-30)
(-1.393625e-06 -9.481799e-07 0)
(-9.03155e-07 -9.896968e-07 0)
(-2.461843e-06 -1.483361e-06 0)
(-1.947148e-06 -1.501893e-06 4.789674e-29)
(-3.072966e-06 -2.087163e-06 -2.942788e-29)
(-3.602658e-06 -2.106236e-06 -1.608382e-29)
(1.325557e-06 1.487292e-07 5.224257e-26)
(1.477766e-06 1.108582e-07 -6.47385e-25)
(9.311932e-07 -1.957198e-07 -2.399274e-27)
(1.184197e-06 -1.083117e-07 -1.186276e-28)
(3.272258e-07 -5.36181e-07 -4.964402e-26)
(6.781423e-07 -5.404801e-07 -9.865449e-30)
(-4.701863e-07 -9.524502e-07 -2.647078e-30)
(-4.231798e-08 -9.681847e-07 -9.610019e-30)
(-1.463235e-06 -1.454749e-06 4.845354e-29)
(-9.563167e-07 -1.466815e-06 0)
(-2.560927e-06 -2.022628e-06 -9.795396e-26)
(-2.034454e-06 -2.025838e-06 8.458488e-27)
(-3.203304e-06 -2.631561e-06 -4.680819e-29)
(-3.737056e-06 -2.65129e-06 -5.527265e-26)
(1.365511e-06 1.565881e-08 5.076347e-26)
(1.553625e-06 4.35118e-08 -1.424301e-28)
(9.562803e-07 -4.519999e-07 2.701026e-27)
(1.245538e-06 -3.056261e-07 -5.79789e-25)
(3.285289e-07 -9.003362e-07 -8.322134e-26)
(7.146029e-07 -8.546761e-07 -4.781809e-29)
(-5.039052e-07 -1.402105e-06 -7.117263e-30)
(-4.288368e-08 -1.382348e-06 -7.00338e-30)
(-1.537931e-06 -1.963562e-06 6.312161e-29)
(-1.008399e-06 -1.958066e-06 9.835362e-29)
(-2.682442e-06 -2.570065e-06 4.492134e-29)
(-2.133569e-06 -2.552175e-06 2.226374e-28)
(-3.367286e-06 -3.182946e-06 2.288355e-29)
(-3.909119e-06 -3.202565e-06 -3.697176e-26)
(1.462472e-06 -1.205527e-07 -1.951899e-28)
(1.689783e-06 -2.592216e-08 -6.323274e-25)
(1.029219e-06 -7.149e-07 -1.634463e-28)
(1.360281e-06 -5.09417e-07 -5.720001e-25)
(3.652778e-07 -1.275529e-06 -4.112632e-29)
(7.936906e-07 -1.17929e-06 -4.672411e-25)
(-5.176491e-07 -1.870843e-06 9.746204e-29)
(-1.207102e-08 -1.809348e-06 -3.090886e-30)
(-1.592436e-06 -2.487341e-06 5.174411e-25)
(-1.033161e-06 -2.46009e-06 1.124964e-28)
(-2.820437e-06 -3.125145e-06 8.957022e-26)
(-2.229072e-06 -3.100888e-06 2.362631e-28)
(-3.561336e-06 -3.747155e-06 -1.030173e-28)
(-4.120697e-06 -3.760106e-06 4.026528e-29)
(1.616044e-06 -2.626109e-07 -4.781162e-26)
(1.885817e-06 -9.882615e-08 -7.902501e-29)
(1.149298e-06 -9.886298e-07 -1.365762e-26)
(1.527804e-06 -7.234136e-07 -5.629598e-25)
(4.348346e-07 -1.664163e-06 -8.787539e-29)
(9.129312e-07 -1.519716e-06 -4.659174e-25)
(-5.149128e-07 -2.348349e-06 4.353447e-26)
(3.889021e-08 -2.255167e-06 -3.221984e-25)
(-1.656933e-06 -3.025608e-06 8.89507e-29)
(-1.06505e-06 -2.9767e-06 1.455913e-29)
(-2.992742e-06 -3.701332e-06 -7.106349e-29)
(-2.360721e-06 -3.676442e-06 7.853024e-26)
(-3.796979e-06 -4.331472e-06 -2.465889e-25)
(-4.379557e-06 -4.331845e-06 6.847051e-27)
(1.825579e-06 -4.130875e-07 -7.04831e-29)
(2.140996e-06 -1.763254e-07 9.836099e-29)
(1.315712e-06 -1.278414e-06 -1.961622e-26)
(1.747227e-06 -9.509675e-07 -7.04934e-29)
(5.359363e-07 -2.076023e-06 -7.709897e-29)
(1.071941e-06 -1.881747e-06 -4.473891e-29)
(-4.989778e-07 -2.857387e-06 -3.23955e-29)
(1.124562e-07 -2.730032e-06 -3.216547e-25)
(-1.742024e-06 -3.59888e-06 7.900163e-29)
(-1.09782e-06 -3.532785e-06 -6.421601e-30)
(-3.195407e-06 -4.304221e-06 7.990681e-29)
(-2.518477e-06 -4.277999e-06 8.067574e-29)
(-4.080046e-06 -4.937463e-06 3.30355e-25)
(-4.693254e-06 -4.922949e-06 2.439903e-28)
(2.089489e-06 -5.739101e-07 9.837877e-29)
(2.452934e-06 -2.590464e-07 5.333672e-25)
(1.526907e-06 -1.587903e-06 0)
(2.016218e-06 -1.194088e-06 0)
(6.670812e-07 -2.515787e-06 1.478764e-29)
(1.268561e-06 -2.268698e-06 0)
(-4.740716e-07 -3.39992e-06 -9.435495e-27)
(2.063494e-07 -3.238054e-06 3.265939e-25)
(-1.847112e-06 -4.206337e-06 -6.553533e-30)
(-1.134771e-06 -4.13107e-06 2.682569e-25)
(-3.440961e-06 -4.932092e-06 1.39616e-28)
(-2.712813e-06 -4.928052e-06 8.541194e-29)
(-4.418173e-06 -5.561839e-06 1.387109e-28)
(-5.074908e-06 -5.536437e-06 2.653563e-28)
(2.403786e-06 -7.459058e-07 2.231071e-28)
(2.815837e-06 -3.469968e-07 4.076284e-25)
(1.779271e-06 -1.918882e-06 0)
(2.329377e-06 -1.452991e-06 4.169563e-30)
(8.257439e-07 -2.986671e-06 6.384949e-30)
(1.498263e-06 -2.681016e-06 8.029843e-29)
(-4.385834e-07 -3.983126e-06 3.191052e-26)
(3.183688e-07 -3.778966e-06 2.674845e-29)
(-1.96221e-06 -4.869714e-06 8.410751e-30)
(-1.166118e-06 -4.765364e-06 -6.379024e-26)
(-3.692662e-06 -5.607764e-06 8.594753e-29)
(-2.898305e-06 -5.606291e-06 5.91241e-25)
(-4.793217e-06 -6.226504e-06 0)
(-5.525987e-06 -6.171542e-06 -2.160822e-28)
(2.759866e-06 -9.284153e-07 1.305833e-28)
(3.218138e-06 -4.39484e-07 1.263408e-28)
(2.064439e-06 -2.270442e-06 -4.032701e-26)
(2.675539e-06 -1.726201e-06 -1.148458e-28)
(1.002925e-06 -3.486745e-06 1.006598e-28)
(1.749807e-06 -3.117306e-06 1.295823e-25)
(-4.05185e-07 -4.598335e-06 -6.75971e-26)
(4.335697e-07 -4.352231e-06 2.034987e-29)
(-2.103065e-06 -5.551227e-06 1.170157e-28)
(-1.226466e-06 -5.435581e-06 8.445684e-26)
(-3.999606e-06 -6.304117e-06 9.26772e-29)
(-3.158093e-06 -6.308614e-06 2.334631e-28)
(-5.283262e-06 -6.932108e-06 8.221932e-29)
(-6.080501e-06 -6.832176e-06 -3.209947e-28)
(3.142635e-06 -1.119542e-06 -1.189372e-28)
(3.640327e-06 -5.350987e-07 -1.570578e-28)
(2.368138e-06 -2.640276e-06 -3.58261e-29)
(3.036546e-06 -2.010578e-06 1.36485e-25)
(1.184981e-06 -4.015661e-06 8.328107e-29)
(2.006617e-06 -3.574331e-06 1.749663e-28)
(-3.880322e-07 -5.254218e-06 8.621179e-29)
(5.387202e-07 -4.956769e-06 0)
(-2.28715e-06 -6.289584e-06 -3.076872e-25)
(-1.318646e-06 -6.148258e-06 1.83977e-29)
(-4.410428e-06 -7.059574e-06 -4.184271e-25)
(-3.484468e-06 -7.069653e-06 1.428782e-28)
(-5.877716e-06 -7.669334e-06 1.74127e-28)
(-6.747695e-06 -7.531677e-06 -1.23963e-29)
(3.528149e-06 -1.31582e-06 -2.890516e-28)
(4.052423e-06 -6.317229e-07 6.153021e-25)
(2.668077e-06 -3.023649e-06 -4.039367e-29)
(3.384886e-06 -2.300821e-06 -2.738689e-28)
(1.35134e-06 -4.568227e-06 9.176295e-29)
(2.242829e-06 -4.046012e-06 -6.238758e-25)
(-4.05279e-07 -5.944161e-06 -6.776611e-29)
(6.094002e-07 -5.586245e-06 0)
(-2.534585e-06 -7.068307e-06 4.234362e-25)
(-1.467418e-06 -6.896112e-06 -6.777579e-29)
(-4.927133e-06 -7.85379e-06 -5.568184e-25)
(-3.902964e-06 -7.879783e-06 1.229569e-28)
(-6.607104e-06 -8.468382e-06 -9.584823e-28)
(-7.553576e-06 -8.25248e-06 -2.026163e-28)
(3.881987e-06 -1.512048e-06 -3.116651e-28)
(4.412177e-06 -7.260975e-07 -3.49148e-28)
(2.931805e-06 -3.413764e-06 -4.320272e-29)
(3.682047e-06 -2.590878e-06 1.206502e-24)
(1.470504e-06 -5.137184e-06 9.874519e-29)
(2.421012e-06 -4.525596e-06 9.866783e-29)
(-4.868352e-07 -6.6619e-06 0)
(6.091254e-07 -6.233039e-06 -3.625352e-29)
(-2.86808e-06 -7.888284e-06 1.22736e-28)
(-1.705772e-06 -7.668332e-06 -8.705246e-29)
(-5.551131e-06 -8.717345e-06 -9.097759e-28)
(-4.422213e-06 -8.712548e-06 2.290137e-24)
(-7.414475e-06 -9.255434e-06 -3.440607e-24)
(-8.445352e-06 -9.038643e-06 6.807712e-24)
(4.154827e-06 -1.70166e-06 -6.8734e-26)
(4.660039e-06 -8.1816e-07 2.147249e-24)
(3.112545e-06 -3.804736e-06 -1.54845e-28)
(3.875498e-06 -2.871456e-06 -1.552305e-28)
(1.495878e-06 -5.715819e-06 -3.622386e-29)
(2.488216e-06 -5.007949e-06 -1.186215e-28)
(-6.833456e-07 -7.398027e-06 4.49229e-25)
(4.818709e-07 -6.895456e-06 -2.413908e-24)
(-3.351843e-06 -8.722827e-06 3.047201e-28)
(-2.104207e-06 -8.467032e-06 -1.258125e-29)
(-6.386436e-06 -9.551493e-06 -9.23689e-25)
(-5.168274e-06 -9.575012e-06 3.065966e-24)
(-8.56786e-06 -1.005328e-05 3.316992e-24)
(-9.61103e-06 -9.736073e-06 -2.607995e-24)
(4.291829e-06 -1.879554e-06 -1.772744e-28)
(4.737349e-06 -9.042313e-07 -1.756605e-28)
(3.157208e-06 -4.18926e-06 -1.189172e-28)
(3.902382e-06 -3.149131e-06 0)
(1.36926e-06 -6.304226e-06 1.552313e-25)
(2.385717e-06 -5.496569e-06 3.237032e-24)
(-1.059182e-06 -8.16155e-06 5.416186e-29)
(1.618009e-07 -7.583882e-06 -2.014582e-29)
(-4.056306e-06 -9.606201e-06 4.353959e-28)
(-2.729513e-06 -9.308197e-06 4.418598e-24)
(-7.490965e-06 -1.047621e-05 6.606011e-28)
(-6.179259e-06 -1.049604e-05 4.954107e-24)
(-1.003051e-05 -1.095564e-05 -6.881316e-29)
(-1.11634e-05 -1.058697e-05 1.163025e-27)
(4.214982e-06 -2.053198e-06 0)
(4.567993e-06 -9.925972e-07 -1.423352e-28)
(2.980163e-06 -4.572971e-06 -1.385895e-28)
(3.671156e-06 -3.450861e-06 7.493406e-29)
(1.01424e-06 -6.917827e-06 -1.3807e-28)
(2.03469e-06 -6.002243e-06 4.348026e-24)
(-1.698633e-06 -8.970366e-06 2.320073e-28)
(-4.393166e-07 -8.323817e-06 0)
(-5.07078e-06 -1.054352e-05 4.675961e-28)
(-3.690821e-06 -1.021993e-05 6.786147e-24)
(-8.943789e-06 -1.145117e-05 -1.31257e-28)
(-7.583201e-06 -1.147222e-05 2.353525e-28)
(-1.191166e-05 -1.185504e-05 -9.950567e-24)
(-1.306255e-05 -1.149649e-05 -3.729811e-28)
(3.856518e-06 -2.250113e-06 -1.890243e-25)
(4.09768e-06 -1.095048e-06 4.248496e-24)
(2.530132e-06 -4.984662e-06 8.597922e-29)
(3.155849e-06 -3.789319e-06 -4.998063e-24)
(3.458807e-07 -7.581904e-06 1.046904e-29)
(1.347975e-06 -6.613857e-06 -1.078172e-23)
(-2.715866e-06 -9.872818e-06 1.850145e-28)
(-1.414249e-06 -9.175342e-06 -2.30672e-28)
(-6.554359e-06 -1.157423e-05 1.849708e-28)
(-5.139186e-06 -1.129125e-05 6.267705e-28)
(-1.097398e-05 -1.245769e-05 -7.953996e-28)
(-9.612346e-06 -1.258874e-05 1.670212e-28)
(-1.461509e-05 -1.280091e-05 -9.786635e-28)
(-1.569384e-05 -1.225188e-05 4.222956e-24)
(3.192828e-06 -2.467952e-06 -4.456112e-29)
(3.274494e-06 -1.224311e-06 -8.489626e-29)
(1.748109e-06 -5.494042e-06 -8.271638e-29)
(2.313254e-06 -4.211615e-06 5.820491e-29)
(-7.004188e-07 -8.40049e-06 -3.611351e-28)
(3.086294e-07 -7.410002e-06 -7.173485e-24)
(-4.241807e-06 -1.098951e-05 -1.030719e-24)
(-2.8548e-06 -1.031648e-05 -1.884376e-23)
(-8.708766e-06 -1.284197e-05 6.087821e-28)
(-7.226815e-06 -1.270994e-05 1.29155e-23)
(-1.388718e-05 -1.366471e-05 -2.009032e-24)
(-1.252577e-05 -1.40683e-05 5.505121e-28)
(-1.846518e-05 -1.401938e-05 6.510681e-28)
(-1.942944e-05 -1.311754e-05 5.114517e-24)
(2.186968e-06 -2.765919e-06 1.531594e-25)
(2.117852e-06 -1.412223e-06 -6.677053e-31)
(6.122679e-07 -6.181314e-06 -1.966063e-29)
(1.135475e-06 -4.837036e-06 -2.146272e-30)
(-2.18383e-06 -9.523857e-06 -6.38419e-25)
(-1.119637e-06 -8.556739e-06 -3.897192e-28)
(-6.417712e-06 -1.252601e-05 2.305689e-24)
(-4.8862e-06 -1.206357e-05 -2.556401e-27)
(-1.176892e-05 -1.462787e-05 5.139593e-28)
(-1.011552e-05 -1.479775e-05 -1.801451e-27)
(-1.805786e-05 -1.536847e-05 -5.230147e-24)
(-1.663774e-05 -1.631762e-05 -1.058913e-27)
(-2.401418e-05 -1.592461e-05 8.329976e-28)
(-2.481227e-05 -1.428146e-05 -6.55497e-24)
(9.028111e-07 -3.207499e-06 -2.13491e-25)
(7.285372e-07 -1.69243e-06 -4.799707e-30)
(-8.22922e-07 -7.231645e-06 -3.712688e-28)
(-2.43826e-07 -5.773142e-06 -1.563581e-29)
(-4.109653e-06 -1.130068e-05 5.698869e-25)
(-2.794782e-06 -1.031807e-05 -6.096622e-24)
(-9.218679e-06 -1.49282e-05 1.185032e-23)
(-7.292467e-06 -1.474213e-05 -1.163481e-23)
(-1.599241e-05 -1.742794e-05 5.028336e-24)
(-1.385872e-05 -1.824354e-05 -5.703029e-28)
(-2.393081e-05 -1.813144e-05 -1.44224e-27)
(-2.222935e-05 -2.001719e-05 -2.749476e-23)
(-3.183379e-05 -1.935515e-05 0)
(-3.259355e-05 -1.632812e-05 -1.205231e-28)
(-5.105614e-07 -3.857052e-06 0)
(-7.092813e-07 -2.107358e-06 -1.346343e-29)
(-2.412319e-06 -8.782346e-06 -3.968023e-28)
(-1.634689e-06 -7.160705e-06 4.415669e-29)
(-6.328673e-06 -1.393587e-05 -6.808337e-28)
(-4.575475e-06 -1.29463e-05 -2.410645e-28)
(-1.24865e-05 -1.87063e-05 -3.702119e-24)
(-1.001663e-05 -1.872109e-05 -2.827133e-28)
(-2.120595e-05 -2.209054e-05 -2.58159e-23)
(-1.819648e-05 -2.364224e-05 -1.799989e-23)
(-3.187023e-05 -2.29714e-05 7.891565e-28)
(-2.922288e-05 -2.620022e-05 1.165322e-28)
(-4.218968e-05 -2.556096e-05 -1.454515e-27)
(-4.34302e-05 -2.042965e-05 2.279313e-27)
(-1.812883e-06 -4.806041e-06 -9.301903e-25)
(-1.915272e-06 -2.705924e-06 3.418107e-28)
(-3.902852e-06 -1.109026e-05 8.515474e-25)
(-2.726966e-06 -9.166238e-06 9.782591e-29)
(-8.578335e-06 -1.791744e-05 1.559013e-28)
(-6.108399e-06 -1.677242e-05 9.179286e-28)
(-1.625609e-05 -2.43946e-05 -2.740348e-27)
(-1.274373e-05 -2.463053e-05 0)
(-2.708434e-05 -2.930561e-05 -3.496948e-27)
(-2.298715e-05 -3.158403e-05 -6.392986e-24)
(-4.15274e-05 -3.097785e-05 1.191501e-23)
(-3.722174e-05 -3.613683e-05 -9.581273e-27)
(-5.486626e-05 -3.609426e-05 -1.116908e-26)
(-5.768569e-05 -2.823841e-05 1.623833e-23)
(-2.663392e-06 -6.150003e-06 1.387269e-24)
(-2.550848e-06 -3.524446e-06 -7.944004e-24)
(-4.874449e-06 -1.438391e-05 8.149772e-28)
(-3.114774e-06 -1.190082e-05 6.96694e-28)
(-1.033271e-05 -2.361972e-05 7.625311e-28)
(-6.855544e-06 -2.20036e-05 -7.691912e-24)
(-1.965524e-05 -3.270653e-05 -1.073279e-27)
(-1.463464e-05 -3.280428e-05 -7.079555e-28)
(-3.315932e-05 -4.020061e-05 -9.502113e-24)
(-2.703665e-05 -4.296589e-05 -2.938853e-27)
(-5.240708e-05 -4.4038e-05 1.079601e-22)
(-4.488866e-05 -5.087114e-05 -3.88706e-23)
(-6.981355e-05 -5.290931e-05 -1.497646e-26)
(-7.639287e-05 -4.173965e-05 3.877839e-23)
(-2.652123e-06 -7.955291e-06 1.919967e-24)
(-2.276762e-06 -4.563692e-06 4.119639e-28)
(-4.750008e-06 -1.877732e-05 1.56851e-27)
(-2.292288e-06 -1.529891e-05 -1.322065e-23)
(-1.08274e-05 -3.118887e-05 2.194409e-28)
(-6.034439e-06 -2.86478e-05 -1.23776e-28)
(-2.200189e-05 -4.383635e-05 3.539999e-24)
(-1.471752e-05 -4.356274e-05 -2.623724e-28)
(-3.950517e-05 -5.516099e-05 8.334905e-24)
(-2.992113e-05 -5.864781e-05 -2.5802e-28)
(-6.460376e-05 -6.289663e-05 3.664382e-23)
(-5.36658e-05 -7.153274e-05 -8.297482e-27)
(-8.842072e-05 -7.855729e-05 -5.182116e-27)
(-9.986556e-05 -6.26408e-05 3.449838e-23)
(-1.386632e-06 -1.015458e-05 -8.097359e-28)
(-8.415219e-07 -5.670917e-06 -3.535751e-28)
(-2.870816e-06 -2.407955e-05 -3.275677e-24)
(2.241291e-07 -1.922575e-05 2.928104e-23)
(-9.273564e-06 -4.055901e-05 2.030148e-24)
(-2.723542e-06 -3.645912e-05 1.741671e-23)
(-2.273874e-05 -5.854411e-05 2.044182e-27)
(-1.212225e-05 -5.74133e-05 -3.509989e-27)
(-4.550104e-05 -7.651858e-05 6.895813e-24)
(-3.120065e-05 -8.015444e-05 2.809354e-23)
(-7.873888e-05 -9.09013e-05 -1.562607e-27)
(-6.284023e-05 -0.0001012818 -9.129586e-27)
(-0.0001084572 -0.0001168425 -3.50322e-27)
(-0.0001275808 -9.569077e-05 -3.691046e-26)
(1.317803e-06 -1.246883e-05 -2.366465e-27)
(1.735469e-06 -6.597056e-06 6.786891e-25)
(1.155223e-06 -2.969704e-05 -2.396688e-23)
(4.742977e-06 -2.308644e-05 -2.127117e-27)
(-5.172471e-06 -5.169636e-05 -6.490311e-27)
(3.469869e-06 -4.577954e-05 -2.526852e-27)
(-2.12055e-05 -7.825828e-05 -2.126128e-27)
(-6.408941e-06 -7.471444e-05 -6.377394e-23)
(-4.998641e-05 -0.0001066111 1.049954e-23)
(-2.992152e-05 -0.0001087328 -6.638768e-27)
(-9.484599e-05 -0.0001307539 -1.104711e-26)
(-6.945575e-05 -0.0001433959 -7.105155e-23)
(-0.0001312967 -0.0001800369 -4.56609e-22)
(-0.0001649 -0.0001430891 3.51692e-23)
(5.224254e-06 -1.426344e-05 -4.255838e-24)
(4.580646e-06 -7.198618e-06 -5.586833e-29)
(6.908675e-06 -3.516655e-05 -1.14614e-28)
(1.065548e-05 -2.652366e-05 1.504577e-28)
(1.407621e-06 -6.515878e-05 4.077116e-28)
(1.189214e-05 -5.634138e-05 5.491728e-28)
(-1.64372e-05 -0.0001044381 -8.160638e-27)
(2.31197e-06 -9.676959e-05 1.401135e-22)
(-5.152949e-05 -0.0001466572 -1.542672e-26)
(-2.338416e-05 -0.0001451582 -2.576347e-22)
(-0.0001174165 -0.0001861542 -1.129129e-26)
(-7.2845e-05 -0.0002093152 -2.630115e-26)
(-0.0001719431 -0.0002993765 -4.332155e-27)
(-0.0002363927 -0.0002213684 7.00404e-22)
(8.463248e-06 -1.506135e-05 5.168306e-28)
(5.546895e-06 -7.589323e-06 8.597335e-23)
(1.310601e-05 -4.079795e-05 2.180516e-23)
(1.52124e-05 -3.012131e-05 2.628289e-28)
(9.834867e-06 -8.176352e-05 -8.433098e-28)
(2.031214e-05 -6.797448e-05 1.905403e-27)
(-9.015931e-06 -0.0001359979 -6.945136e-23)
(1.397233e-05 -0.0001235784 1.005795e-27)
(-5.941577e-05 -0.0001961109 -2.958503e-26)
(-1.544884e-05 -0.0002010388 9.498e-22)
(-0.0001665732 -0.00026649 -1.936234e-26)
(-9.336679e-05 -0.0003186584 -2.635668e-21)
(-0.0002420207 -0.000493537 1.693078e-26)
(-0.0003569722 -0.000342815 -5.573035e-26)
(7.843005e-06 -1.561365e-05 4.657192e-28)
(5.926872e-07 -8.213004e-06 4.657826e-28)
(1.65012e-05 -4.796408e-05 1.360277e-27)
(1.442038e-05 -3.49773e-05 8.252254e-28)
(1.733335e-05 -0.0001009557 5.380165e-23)
(2.449259e-05 -8.238514e-05 3.100486e-27)
(-6.519484e-06 -0.0001733825 1.844481e-26)
(2.345878e-05 -0.0001608855 2.358127e-27)
(-8.694535e-05 -0.000264049 -1.262605e-26)
(-2.358636e-05 -0.0002953814 1.603154e-26)
(-0.0002537611 -0.0003785818 -1.154469e-26)
(-0.0001345507 -0.0004885509 -9.860629e-26)
(-0.0003243824 -0.0007406496 -1.01402e-25)
(-0.0004952258 -0.0005059532 4.378445e-21)
(-2.33872e-07 -1.777402e-05 8.235908e-28)
(-1.4842e-05 -1.012102e-05 0)
(1.332971e-05 -5.853522e-05 6.34075e-23)
(4.603656e-06 -4.374305e-05 8.302342e-28)
(1.392357e-05 -0.0001227877 1.743527e-27)
(1.987225e-05 -0.0001066324 6.517006e-27)
(-3.004979e-05 -0.0002218589 3.273324e-31)
(9.99903e-06 -0.0002261498 5.858087e-29)
(-0.0001490082 -0.0003549558 -6.753151e-26)
(-6.348785e-05 -0.0004324186 -1.506833e-26)
(-0.0003501692 -0.0005095887 -1.820625e-20)
(-0.0002032049 -0.0007173228 -3.68903e-26)
(-0.0003872784 -0.001017966 -1.223492e-25)
(-0.0006475479 -0.0006683147 -6.816057e-21)
(-1.759816e-05 -2.446519e-05 1.838589e-32)
(-4.111997e-05 -1.395317e-05 4.795024e-27)
(-1.02838e-07 -7.625916e-05 4.811169e-27)
(-1.317491e-05 -6.10017e-05 -4.199627e-28)
(-1.301215e-05 -0.0001594128 7.506745e-22)
(9.430302e-08 -0.0001572875 2.974245e-27)
(-9.170608e-05 -0.0002897756 -2.188226e-21)
(-3.468765e-05 -0.0003357692 5.093419e-29)
(-0.0002500421 -0.0004562952 1.470083e-26)
(-0.0001272321 -0.0006092369 -1.529377e-26)
(-0.0004806451 -0.0006515866 3.053362e-26)
(-0.0002818888 -0.0009625524 6.829591e-21)
(-0.0004815875 -0.001336349 -1.808898e-26)
(-0.0007466996 -0.0008217007 5.006528e-26)
(-4.430309e-05 -3.677366e-05 1.985408e-23)
(-7.808406e-05 -1.990468e-05 1.270244e-22)
(-2.800566e-05 -0.0001069208 -1.269841e-22)
(-3.842083e-05 -9.25497e-05 -9.408288e-27)
(-6.491191e-05 -0.0002208534 -1.763478e-27)
(-3.603946e-05 -0.0002407394 3.241786e-27)
(-0.0001772994 -0.00037784 -7.374698e-30)
(-9.496614e-05 -0.0004915896 8.707248e-27)
(-0.0003774732 -0.000572562 6.994512e-26)
(-0.0001910708 -0.0008254169 -1.015972e-29)
(-0.000633117 -0.0007810541 1.081081e-20)
(-0.0003743738 -0.001234258 2.524531e-26)
(-0.0005692528 -0.001619507 -1.378557e-20)
(-0.0009167846 -0.0009299964 -1.362065e-25)
(-8.134219e-05 -5.593243e-05 3.243264e-23)
(-0.0001217446 -3.002326e-05 7.551752e-27)
(-7.245698e-05 -0.0001525137 -4.033441e-27)
(-7.563663e-05 -0.0001445194 -4.434717e-22)
(-0.0001356749 -0.0002959189 1.447414e-21)
(-8.270578e-05 -0.0003533778 -1.730229e-26)
(-0.0002778304 -0.0004870391 8.70597e-27)
(-0.0001466837 -0.0006698608 2.501589e-26)
(-0.0004828679 -0.0007196602 -4.81842e-26)
(-0.0002731201 -0.001090029 1.708902e-26)
(-0.0007471407 -0.0009361315 -2.034601e-25)
(-0.0004480825 -0.001549337 -1.157951e-20)
(-0.0005506922 -0.00189108 -8.942384e-26)
(-0.001030302 -0.001042714 -3.341871e-20)
(-0.0001261512 -8.56295e-05 -2.841318e-26)
(-0.0001647545 -4.722545e-05 3.391829e-28)
(-0.0001294364 -0.0002095258 -4.551837e-22)
(-0.0001179799 -0.0002157439 -6.3833e-22)
(-0.0002121177 -0.0003778265 -5.829795e-27)
(-0.0001277454 -0.0004843896 -2.67033e-21)
(-0.0003740023 -0.0006052231 -4.078177e-21)
(-0.0001915091 -0.0008673681 5.763901e-21)
(-0.0005995114 -0.0008766119 1.227802e-20)
(-0.0003135528 -0.001343207 1.668003e-26)
(-0.0008412289 -0.001111707 -2.939121e-28)
(-0.0004605979 -0.001838701 -1.388368e-20)
(-0.000527728 -0.002247054 1.97535e-20)
(-0.0009867349 -0.001144854 7.087781e-26)
(-0.0001676248 -0.0001226817 8.846719e-23)
(-0.0001925896 -7.228489e-05 9.228493e-27)
(-0.0001841034 -0.0002733701 -3.158471e-26)
(-0.0001459724 -0.0003008581 -1.190828e-21)
(-0.0002789173 -0.0004730597 3.159592e-26)
(-0.0001580578 -0.0006233754 3.617979e-21)
(-0.0004420301 -0.0007431417 3.141887e-26)