/*--------------------------------*- C++ -*----------------------------------*\
| =========                 |                                                 |
| \\      /  F ield         | OpenFOAM: The Open Source CFD Toolbox           |
|  \\    /   O peration     | Version:  2206                                  |
|   \\  /    A nd           | Website:  www.openfoam.com                      |
|    \\/     M anipulation  |                                                 |
\*---------------------------------------------------------------------------*/
FoamFile
{
    version     2.0;
    format      ascii;
    arch        "LSB;label=32;scalar=64";
    class       surfaceVectorField;
    location    "2";
    object      Ufb_0;
}
// * * * * * * * * * * * * * * * * * * * * * * * * * * * * * * * * * * * * * //

dimensions      [0 1 -1 0 0 0 0];

internalField   nonuniform List<vector> 
26037
(
(-5.398467e-06 5.875032e-05 7.364411e-22)
(2.435685e-05 6.226094e-06 -1.611535e-27)
(-5.642167e-06 3.169036e-05 1.147638e-23)
(3.836898e-06 3.557649e-05 1.821278e-24)
(-5.320178e-06 1.597105e-05 1.237075e-27)
(-1.787583e-06 2.219033e-05 1.239885e-27)
(-5.429514e-06 8.99879e-06 2.600365e-28)
(-4.650183e-06 1.314921e-05 0)
(-5.565368e-06 5.535323e-06 5.692998e-24)
(-5.288733e-06 7.642038e-06 2.612563e-28)
(-5.744631e-06 3.08842e-06 3.118159e-28)
(-5.619361e-06 4.518947e-06 -4.208478e-27)
(-5.880913e-06 2.222606e-06 1.291273e-28)
(-5.948686e-06 1.152104e-06 1.84729e-24)
(1.071069e-05 3.868328e-05 -8.06686e-30)
(4.776484e-05 5.717723e-06 1.267551e-27)
(6.088703e-07 2.575285e-05 -8.144394e-30)
(1.560499e-05 2.312502e-05 -6.585458e-28)
(-2.6871e-06 1.511167e-05 0)
(2.553717e-06 1.775135e-05 -3.572252e-28)
(-4.547121e-06 9.198129e-06 1.251264e-30)
(-2.468623e-06 1.160542e-05 -5.819247e-28)
(-5.290441e-06 5.654854e-06 2.094152e-30)
(-4.394392e-06 7.433065e-06 5.762318e-26)
(-5.72167e-06 3.124765e-06 2.781602e-30)
(-5.314365e-06 4.517441e-06 8.432773e-31)
(-5.83118e-06 2.255305e-06 -4.872012e-28)
(-6.039745e-06 1.135161e-06 7.896781e-29)
(2.630127e-05 1.830784e-05 6.138606e-28)
(2.610833e-05 5.155476e-06 9.224342e-23)
(8.55734e-06 1.645447e-05 -1.017173e-27)
(1.188076e-05 1.31183e-05 -2.10226e-23)
(2.439288e-07 1.240882e-05 1.15621e-24)
(3.54138e-06 1.23198e-05 -8.460881e-28)
(-3.107819e-06 8.663995e-06 -2.084533e-24)
(-1.065166e-06 9.685452e-06 -6.901646e-28)
(-4.65052e-06 5.647898e-06 -2.241636e-28)
(-3.508325e-06 6.92099e-06 -9.828384e-26)
(-5.470231e-06 3.242697e-06 6.725384e-34)
(-4.832835e-06 4.454458e-06 0)
(-5.604035e-06 2.333683e-06 -2.40383e-27)
(-5.977835e-06 1.249335e-06 -7.69325e-29)
(1.707261e-05 1.029802e-05 -2.057245e-28)
(1.64698e-05 3.928723e-06 6.673357e-28)
(7.542984e-06 1.164183e-05 -1.362062e-27)
(9.342668e-06 8.972459e-06 -1.659278e-23)
(1.452101e-06 1.019943e-05 3.482479e-25)
(3.682393e-06 9.439471e-06 -3.664011e-24)
(-1.983507e-06 7.886779e-06 -1.049391e-28)
(-2.056844e-07 8.231609e-06 2.468509e-24)
(-3.898798e-06 5.503186e-06 -3.547128e-31)
(-2.691225e-06 6.342644e-06 1.901495e-28)
(-5.029631e-06 3.334605e-06 -1.50118e-30)
(-4.235353e-06 4.318549e-06 2.7099e-33)
(-5.216706e-06 2.389813e-06 -9.245908e-29)
(-5.742753e-06 1.405891e-06 6.663956e-29)
(1.179999e-05 6.980708e-06 -4.6447e-25)
(1.2144e-05 2.938232e-06 1.994871e-30)
(6.408665e-06 8.884749e-06 -5.439314e-25)
(7.863902e-06 6.741714e-06 -2.99754e-28)
(1.984356e-06 8.509994e-06 -5.325609e-28)
(3.728124e-06 7.601908e-06 -3.666007e-28)
(-1.111872e-06 7.066134e-06 -3.130199e-25)
(4.525806e-07 7.039214e-06 6.128697e-26)
(-3.147413e-06 5.235853e-06 -1.010134e-24)
(-1.90733e-06 5.72641e-06 -1.137531e-24)
(-4.463829e-06 3.337436e-06 2.099524e-25)
(-3.561298e-06 4.08958e-06 1.065558e-28)
(-4.710341e-06 2.367005e-06 4.793073e-27)
(-5.363849e-06 1.521655e-06 -9.095773e-29)
(9.204765e-06 4.984274e-06 -6.619671e-30)
(9.454653e-06 2.188758e-06 0)
(5.671101e-06 6.880094e-06 3.652871e-25)
(6.761512e-06 5.132799e-06 -1.958451e-28)
(2.290524e-06 7.056793e-06 -5.370774e-25)
(3.713381e-06 6.111933e-06 -2.540149e-29)
(-3.961435e-07 6.193138e-06 3.293986e-25)
(9.806207e-07 5.954171e-06 2.492654e-29)
(-2.403002e-06 4.808623e-06 9.088715e-29)
(-1.206273e-06 5.035769e-06 2.839434e-25)
(-3.847366e-06 3.204293e-06 -7.017831e-25)
(-2.875748e-06 3.729897e-06 9.724886e-29)
(-4.141527e-06 2.231798e-06 1.626568e-28)
(-4.888395e-06 1.54048e-06 -1.306901e-25)
(7.501971e-06 3.646851e-06 -1.891227e-28)
(7.641153e-06 1.646753e-06 3.604741e-28)
(5.089771e-06 5.313455e-06 -2.239043e-28)
(5.880898e-06 3.914921e-06 -2.300847e-24)
(2.49899e-06 5.75605e-06 -3.363696e-24)
(3.6297e-06 4.8503e-06 -1.035108e-24)
(1.636124e-07 5.281062e-06 6.983564e-29)
(1.382944e-06 4.913725e-06 1.100452e-28)
(-1.722664e-06 4.246351e-06 1.994222e-25)
(-6.067793e-07 4.288337e-06 -1.004836e-28)
(-3.218578e-06 2.909478e-06 -1.097023e-29)
(-2.244406e-06 3.239294e-06 -1.955951e-29)
(-3.568994e-06 1.957144e-06 -6.234546e-30)
(-4.380902e-06 1.431146e-06 2.72049e-30)
(6.300345e-06 2.721212e-06 2.030966e-28)
(6.375092e-06 1.25902e-06 4.570824e-24)
(4.587938e-06 4.082258e-06 -2.76685e-28)
(5.17481e-06 2.990245e-06 1.124321e-28)
(2.583433e-06 4.5982e-06 -1.203744e-28)
(3.479583e-06 3.793793e-06 -2.006603e-29)
(5.898015e-07 4.356068e-06 -6.125418e-29)
(1.634969e-06 3.941036e-06 -7.980828e-30)
(-1.15719e-06 3.584069e-06 -6.940608e-29)
(-1.366971e-07 3.507339e-06 3.524938e-25)
(-2.633366e-06 2.474892e-06 1.312988e-25)
(-1.698652e-06 2.662266e-06 -1.501477e-29)
(-3.04393e-06 1.550651e-06 -6.277652e-30)
(-3.87112e-06 1.1761e-06 2.077453e-29)
(5.431323e-06 2.063841e-06 2.69741e-28)
(5.483275e-06 9.771212e-07 -3.179919e-24)
(4.176328e-06 3.117995e-06 3.690195e-28)
(4.623806e-06 2.281156e-06 2.322072e-24)
(2.592654e-06 3.594388e-06 2.577212e-25)
(3.317727e-06 2.908442e-06 6.130195e-25)
(8.941137e-07 3.470326e-06 -1.475296e-28)
(1.790667e-06 3.059463e-06 -1.442323e-28)
(-7.0038e-07 2.871383e-06 1.772833e-25)
(2.228511e-07 2.72956e-06 2.109749e-25)
(-2.135587e-06 1.93649e-06 -6.412044e-30)
(-1.246231e-06 2.024764e-06 -6.410067e-30)
(-2.586934e-06 1.054368e-06 0)
(-3.398825e-06 7.928604e-07 -6.736787e-29)
(4.80629e-06 1.580649e-06 -2.344086e-29)
(4.863146e-06 7.653585e-07 -2.604304e-28)
(3.850564e-06 2.350401e-06 3.334859e-28)
(4.216306e-06 1.724726e-06 2.37129e-28)
(2.571322e-06 2.729409e-06 -3.744729e-29)
(3.177604e-06 2.165172e-06 2.744675e-28)
(1.112189e-06 2.637739e-06 -1.350903e-28)
(1.893458e-06 2.264596e-06 -4.466511e-25)
(-3.39872e-07 2.141407e-06 1.40792e-31)
(4.965493e-07 1.973388e-06 -4.801767e-26)
(-1.720087e-06 1.334773e-06 0)
(-8.823954e-07 1.353894e-06 0)
(-2.200339e-06 4.858873e-07 0)
(-2.995439e-06 3.117942e-07 -6.078787e-29)
(4.373063e-06 1.210624e-06 0)
(4.450796e-06 6.00001e-07 0)
(3.614189e-06 1.72711e-06 1.780962e-28)
(3.938904e-06 1.274808e-06 -1.994784e-28)
(2.551753e-06 1.97966e-06 5.129672e-29)
(3.081767e-06 1.532386e-06 1.050699e-24)
(1.277346e-06 1.864682e-06 -1.295672e-28)
(1.976423e-06 1.546741e-06 -8.720024e-31)
(-5.471148e-08 1.41439e-06 -9.397085e-32)
(7.130804e-07 1.246097e-06 -1.153194e-25)
(-1.378963e-06 6.874975e-07 0)
(-5.870224e-07 6.6763e-07 0)
(-1.879792e-06 -1.336118e-07 -3.805003e-29)
(-2.654341e-06 -2.44611e-07 5.446981e-29)
(4.097423e-06 9.145877e-07 -1.993955e-28)
(4.205838e-06 4.653287e-07 0)
(3.468525e-06 1.206218e-06 -3.08433e-29)
(3.779695e-06 8.985687e-07 -1.327128e-24)
(2.556319e-06 1.318107e-06 2.989611e-28)
(3.046213e-06 9.806308e-07 1.701422e-28)
(1.417313e-06 1.147451e-06 -1.297816e-25)
(2.061761e-06 8.904572e-07 6.080433e-25)
(1.797845e-07 6.99896e-07 -7.255932e-29)
(8.995677e-07 5.480474e-07 -1.508648e-28)
(-1.097275e-06 1.327713e-08 -3.803693e-29)
(-3.394241e-07 -2.487305e-08 2.507341e-29)
(-1.612954e-06 -7.907111e-07 -1.533358e-25)
(-2.370514e-06 -8.586002e-07 1.331664e-25)
(3.956374e-06 6.6747e-07 -1.900443e-28)
(4.101885e-06 3.505654e-07 -2.016252e-28)
(3.411768e-06 7.580036e-07 -4.323837e-26)
(3.728792e-06 5.718172e-07 -1.900754e-28)
(2.60066e-06 7.307812e-07 1.260668e-28)
(3.073875e-06 4.857873e-07 1.468377e-30)
(1.556292e-06 4.757324e-07 4.64367e-29)
(2.174013e-06 2.80719e-07 1.26009e-28)
(3.863536e-07 -2.126077e-09 -5.312675e-29)
(1.079915e-06 -1.257939e-07 -3.394083e-25)
(-8.581735e-07 -6.795874e-07 2.514488e-29)
(-1.206629e-07 -7.215729e-07 9.958273e-26)
(-1.385732e-06 -1.477989e-06 4.02845e-26)
(-2.133745e-06 -1.518259e-06 7.11447e-32)
(3.935123e-06 4.503955e-07 -2.016641e-28)
(4.124346e-06 2.475693e-07 -1.22951e-24)
(3.441826e-06 3.569791e-07 2.322612e-31)
(3.779556e-06 2.756769e-07 0)
(2.694324e-06 1.869153e-07 -8.587538e-26)
(3.17288e-06 2.802511e-08 -1.155944e-30)
(1.711662e-06 -1.635849e-07 -1.684389e-28)
(2.321366e-06 -3.00817e-07 1.538278e-28)
(5.826914e-07 -6.964692e-07 -1.344956e-28)
(1.270485e-06 -7.791676e-07 -6.474475e-25)
(-6.46274e-07 -1.388369e-06 5.56043e-29)
(8.415491e-08 -1.422808e-06 3.221393e-29)
(-1.184776e-06 -2.191622e-06 8.040431e-30)
(-1.93247e-06 -2.216364e-06 -7.180122e-29)
(4.025432e-06 2.56181e-07 -2.047599e-28)
(4.260602e-06 1.515553e-07 -2.046656e-28)
(3.561845e-06 -1.453199e-08 -1.387328e-30)
(3.933184e-06 -1.737832e-09 -2.008978e-28)
(2.850775e-06 -3.310623e-07 -1.475546e-25)
(3.352324e-06 -4.066365e-07 -1.387682e-30)
(1.914642e-06 -7.834134e-07 1.230537e-24)
(2.530441e-06 -8.621808e-07 6.554242e-25)
(7.90368e-07 -1.384201e-06 -4.853855e-29)
(1.499364e-06 -1.433392e-06 -4.05773e-29)
(-4.453002e-07 -2.111894e-06 -1.535355e-29)
(2.952424e-07 -2.134747e-06 1.172016e-29)
(-9.959401e-07 -2.932108e-06 1.522718e-25)
(-1.754703e-06 -2.948927e-06 -8.947684e-29)
(4.222617e-06 7.05484e-08 -2.008008e-28)
(4.508668e-06 5.983436e-08 0)
(3.771699e-06 -3.68888e-07 -2.009383e-28)
(4.185847e-06 -2.694174e-07 -1.097108e-24)
(3.07295e-06 -8.288064e-07 1.491109e-28)
(3.610658e-06 -8.30362e-07 -2.45194e-30)
(2.152083e-06 -1.394911e-06 1.246456e-25)
(2.789625e-06 -1.41242e-06 1.454203e-28)
(1.012212e-06 -2.080756e-06 1.998101e-29)
(1.748809e-06 -2.095041e-06 8.223364e-30)
(-2.447523e-07 -2.857317e-06 1.162095e-25)
(5.182848e-07 -2.865323e-06 1.171507e-29)
(-8.107505e-07 -3.703099e-06 9.406531e-30)
(-1.590761e-06 -3.716587e-06 2.980272e-29)
(4.525679e-06 -1.10661e-07 -4.293368e-28)
(4.867766e-06 -3.100696e-08 -2.480599e-28)
(4.073123e-06 -7.180792e-07 -4.320822e-28)
(4.539393e-06 -5.361233e-07 -1.127674e-24)
(3.368465e-06 -1.3256e-06 -5.034331e-26)
(3.953353e-06 -1.256478e-06 -9.11571e-30)
(2.433007e-06 -2.01312e-06 -3.907574e-30)
(3.112195e-06 -1.975407e-06 -8.874509e-30)
(1.262921e-06 -2.792789e-06 0)
(2.038708e-06 -2.769549e-06 0)
(-3.509814e-08 -3.629791e-06 0)
(7.625334e-07 -3.620931e-06 -9.120215e-29)
(-6.22799e-07 -4.508972e-06 -4.590091e-29)
(-1.433687e-06 -4.521339e-06 -2.409465e-29)
(4.936461e-06 -2.932246e-07 5.021099e-26)
(5.340617e-06 -1.237048e-07 -1.256871e-24)
(4.469772e-06 -1.071903e-06 2.963553e-27)
(4.997996e-06 -8.091753e-07 -4.944511e-28)
(3.741166e-06 -1.832502e-06 -4.114062e-26)
(4.386613e-06 -1.694807e-06 -1.938223e-29)
(2.76949e-06 -2.647911e-06 -5.108615e-30)
(3.506259e-06 -2.557776e-06 -1.753288e-29)
(1.548828e-06 -3.528993e-06 -9.226237e-29)
(2.377928e-06 -3.469366e-06 0)
(1.898357e-07 -4.436429e-06 -7.054492e-26)
(1.036421e-06 -4.409586e-06 -4.697895e-25)
(-4.278352e-07 -5.356363e-06 -7.262576e-29)
(-1.279441e-06 -5.36683e-06 -2.512734e-26)
(5.459499e-06 -4.820251e-07 4.83117e-26)
(5.932575e-06 -2.20609e-07 -5.804426e-28)
(4.967351e-06 -1.438899e-06 9.070541e-27)
(5.56753e-06 -1.095139e-06 -1.256866e-24)
(4.197835e-06 -2.360225e-06 -6.38878e-26)
(4.916716e-06 -2.155384e-06 -2.727925e-28)
(3.166663e-06 -3.311087e-06 -1.270594e-29)
(3.977347e-06 -3.173802e-06 -1.250263e-29)
(1.874821e-06 -4.297133e-06 -8.928782e-29)
(2.767123e-06 -4.215942e-06 1.581895e-28)
(4.336082e-07 -5.287445e-06 -1.149584e-28)
(1.345951e-06 -5.232136e-06 1.604714e-28)
(-2.258302e-07 -6.25108e-06 3.471761e-29)
(-1.126842e-06 -6.259084e-06 -3.141586e-27)
(6.101497e-06 -6.815515e-07 -8.844271e-28)
(6.651237e-06 -3.237222e-07 -1.42211e-24)
(5.573386e-06 -1.827375e-06 -8.382363e-28)
(6.255907e-06 -1.399582e-06 -1.339182e-24)
(4.748502e-06 -2.921243e-06 -2.602668e-28)
(5.553075e-06 -2.645763e-06 -1.199047e-24)
(3.638299e-06 -4.02382e-06 1.567555e-28)
(4.542337e-06 -3.828598e-06 -2.319835e-28)
(2.277782e-06 -5.114347e-06 2.689614e-25)
(3.249454e-06 -5.003877e-06 1.809652e-28)
(7.099666e-07 -6.186245e-06 8.319825e-27)
(1.718833e-06 -6.121444e-06 1.328105e-28)
(-6.745184e-09 -7.205105e-06 7.823034e-29)
(-9.727118e-07 -7.20327e-06 6.144508e-29)
(6.870469e-06 -8.95462e-07 -4.581867e-26)
(7.505315e-06 -4.349078e-07 -3.457337e-28)
(6.295188e-06 -2.243316e-06 -2.336962e-26)
(7.071187e-06 -1.727811e-06 -1.436589e-24)
(5.398156e-06 -3.519537e-06 -8.135886e-28)
(6.300981e-06 -3.174159e-06 -1.306359e-24)
(4.194058e-06 -4.773262e-06 1.403569e-26)
(5.193745e-06 -4.532268e-06 -1.120127e-24)
(2.73172e-06 -5.982625e-06 -9.138724e-29)
(3.782883e-06 -5.840024e-06 2.344516e-29)
(1.000473e-06 -7.152642e-06 -9.872974e-29)
(2.106757e-06 -7.084914e-06 -5.526891e-25)
(2.226304e-07 -8.23178e-06 3.513277e-25)
(-8.198512e-07 -8.213782e-06 4.989561e-26)
(7.775421e-06 -1.127521e-06 -3.649337e-28)
(8.504537e-06 -5.558752e-07 4.448782e-28)
(7.141305e-06 -2.694582e-06 -3.004668e-26)
(8.022793e-06 -2.084995e-06 -3.649871e-28)
(6.153838e-06 -4.170085e-06 -8.964622e-28)
(7.170615e-06 -3.749552e-06 -3.264389e-28)
(4.830751e-06 -5.594398e-06 -5.70961e-28)
(5.946254e-06 -5.30067e-06 -1.226213e-24)
(3.224432e-06 -6.935402e-06 -1.367634e-28)
(4.387899e-06 -6.764355e-06 2.885229e-28)
(1.320843e-06 -8.198113e-06 -1.365822e-28)
(2.534251e-06 -8.124268e-06 -1.396615e-28)
(4.644453e-07 -9.337666e-06 -4.223274e-25)
(-6.689911e-07 -9.302359e-06 1.075896e-28)
(8.825757e-06 -1.380871e-06 4.449586e-28)
(9.658284e-06 -6.878778e-07 1.696195e-24)
(8.121017e-06 -3.187109e-06 0)
(9.119867e-06 -2.474999e-06 0)
(7.025103e-06 -4.880253e-06 2.367704e-29)
(8.170889e-06 -4.378142e-06 0)
(5.556805e-06 -6.490151e-06 -4.809961e-26)
(6.807923e-06 -6.141198e-06 1.363439e-24)
(3.770249e-06 -7.972522e-06 2.944506e-28)
(5.071526e-06 -7.781694e-06 1.266355e-24)
(1.666841e-06 -9.323711e-06 -8.76986e-29)
(2.999819e-06 -9.276482e-06 -2.050528e-28)
(7.238944e-07 -1.052032e-05 -8.713008e-29)
(-5.255175e-07 -1.047976e-05 -1.833653e-28)
(1.002986e-05 -1.657687e-06 1.013285e-27)
(1.097406e-05 -8.316261e-07 1.726756e-24)
(9.242754e-06 -3.725289e-06 0)
(1.036995e-05 -2.900077e-06 6.760939e-30)
(8.02118e-06 -5.657193e-06 3.449837e-28)
(9.309895e-06 -5.063592e-06 5.053795e-28)
(6.386447e-06 -7.473824e-06 7.347596e-26)
(7.789339e-06 -7.057485e-06 3.771432e-28)
(4.391668e-06 -9.127236e-06 3.635078e-28)
(5.860778e-06 -8.887413e-06 9.700147e-25)
(2.097893e-06 -1.056572e-05 -2.063386e-28)
(3.582725e-06 -1.05161e-05 -1.823166e-25)
(1.042038e-06 -1.18279e-05 0)
(-3.784785e-07 -1.175354e-05 2.677705e-30)
(1.1393e-05 -1.958762e-06 5.834651e-28)
(1.245512e-05 -9.871803e-07 5.763637e-28)
(1.051155e-05 -4.31096e-06 -5.434762e-26)
(1.177629e-05 -3.360998e-06 -6.113949e-28)
(9.145713e-06 -6.502554e-06 5.375542e-28)
(1.059007e-05 -5.808265e-06 1.528087e-24)
(7.31872e-06 -8.53895e-06 -1.160538e-25)
(8.887153e-06 -8.054466e-06 3.209047e-29)
(5.093623e-06 -1.035285e-05 -2.000074e-28)
(6.723487e-06 -1.008885e-05 -1.181837e-24)
(2.569527e-06 -1.189465e-05 -2.485139e-28)
(4.17649e-06 -1.184158e-05 -1.966345e-29)
(1.31799e-06 -1.326469e-05 1.277542e-28)
(-2.644678e-07 -1.313639e-05 -1.150233e-28)
(1.291561e-05 -2.283773e-06 -6.177573e-28)
(1.409856e-05 -1.153885e-06 -7.411723e-28)
(1.192828e-05 -4.945045e-06 -5.590319e-29)
(1.333702e-05 -3.856963e-06 -1.50628e-24)
(1.039972e-05 -7.421381e-06 5.628508e-28)
(1.201098e-05 -6.612889e-06 1.199729e-27)
(8.352285e-06 -9.704589e-06 -3.000596e-28)
(1.010517e-05 -9.136939e-06 0)
(5.85784e-06 -1.17142e-05 -4.339069e-25)
(7.678536e-06 -1.1403e-05 -4.058951e-28)
(3.025007e-06 -1.337682e-05 -6.016641e-25)
(4.817871e-06 -1.331846e-05 2.223699e-28)
(1.592355e-06 -1.482563e-05 2.71331e-28)
(-1.719911e-07 -1.465911e-05 -1.944839e-29)
(1.459107e-05 -2.630691e-06 -1.441482e-27)
(1.589253e-05 -1.330326e-06 -1.266813e-24)
(1.348772e-05 -5.625916e-06 -6.391782e-29)
(1.504281e-05 -4.384585e-06 -1.489039e-27)
(1.177948e-05 -8.412712e-06 6.37406e-28)
(1.356432e-05 -7.475139e-06 1.168619e-24)
(9.486623e-06 -1.09679e-05 -1.056976e-28)
(1.14358e-05 -1.030344e-05 0)
(6.685166e-06 -1.319285e-05 5.642579e-25)
(8.716473e-06 -1.282679e-05 -1.057127e-28)
(3.489968e-06 -1.498769e-05 -7.58082e-25)
(5.496978e-06 -1.493669e-05 -3.716136e-28)
(1.853258e-06 -1.65645e-05 -9.205735e-28)
(-1.051891e-07 -1.630411e-05 1.734182e-28)
(1.640408e-05 -2.99513e-06 -1.623437e-27)
(1.781467e-05 -1.513227e-06 -1.772275e-27)
(1.517648e-05 -6.349755e-06 -6.895039e-29)
(1.687563e-05 -4.939659e-06 -9.163356e-25)
(1.327176e-05 -9.473997e-06 7.202872e-28)
(1.523222e-05 -8.392116e-06 7.197229e-28)
(1.070943e-05 -1.232922e-05 0)
(1.286165e-05 -1.155194e-05 5.930476e-28)
(7.571925e-06 -1.47995e-05 -3.709232e-28)
(9.823268e-06 -1.435575e-05 -1.35808e-28)
(3.984047e-06 -1.677662e-05 -1.426535e-27)
(6.23216e-06 -1.666794e-05 8.325463e-25)
(2.218798e-06 -1.837324e-05 -2.915058e-24)
(5.076797e-08 -1.813459e-05 7.873679e-24)
(1.832618e-05 -3.370296e-06 -5.432256e-26)
(1.982479e-05 -1.704972e-06 -5.408811e-26)
(1.696861e-05 -7.11376e-06 -8.954099e-28)
(1.880576e-05 -5.508677e-06 -8.976387e-28)
(1.485024e-05 -1.060324e-05 5.925625e-28)
(1.698303e-05 -9.360531e-06 -9.379771e-28)
(1.198876e-05 -1.378554e-05 6.012222e-25)
(1.434788e-05 -1.288726e-05 -1.679218e-25)
(8.467118e-06 -1.651055e-05 -8.137233e-28)
(1.094453e-05 -1.600484e-05 -7.67919e-28)
(4.41481e-06 -1.861574e-05 -1.151873e-24)
(6.884708e-06 -1.85447e-05 9.34988e-25)
(2.306768e-06 -2.031768e-05 1.182008e-24)
(1.3065e-08 -1.992121e-05 -3.515207e-24)
(2.032687e-05 -3.747489e-06 -1.043093e-27)
(2.189552e-05 -1.895955e-06 -1.033596e-27)
(1.883882e-05 -7.908087e-06 -9.40315e-28)
(2.079874e-05 -6.106789e-06 0)
(1.648185e-05 -1.180451e-05 2.241375e-25)
(1.878628e-05 -1.038532e-05 5.976821e-25)
(1.3286e-05 -1.535687e-05 8.764909e-29)
(1.585721e-05 -1.432439e-05 7.186372e-28)
(9.326451e-06 -1.839019e-05 -1.556567e-27)
(1.204968e-05 -1.779997e-05 1.914445e-24)
(4.736972e-06 -2.072178e-05 -1.195045e-27)
(7.48025e-06 -2.062052e-05 2.485552e-24)
(2.300284e-06 -2.257736e-05 1.394868e-29)
(-2.887201e-07 -2.214675e-05 -3.231407e-28)
(2.234794e-05 -4.14223e-06 0)
(2.396024e-05 -2.097885e-06 -1.257911e-27)
(2.07133e-05 -8.739107e-06 -1.972813e-27)
(2.2763e-05 -6.767954e-06 1.142591e-27)
(1.811735e-05 -1.309488e-05 -1.965418e-27)
(2.058833e-05 -1.146072e-05 1.32873e-24)
(1.454771e-05 -1.70635e-05 -1.378639e-27)
(1.732968e-05 -1.5882e-05 0)
(1.010038e-05 -2.044143e-05 -1.879128e-27)
(1.306033e-05 -1.976836e-05 3.941609e-24)
(4.9359e-06 -2.302409e-05 -2.184067e-28)
(7.922577e-06 -2.288208e-05 -4.990327e-28)
(2.125108e-06 -2.498218e-05 -7.763937e-24)
(-7.024802e-07 -2.460208e-05 2.862797e-28)
(2.433264e-05 -4.587224e-06 -1.542567e-25)
(2.599323e-05 -2.323701e-06 1.429391e-24)
(2.25776e-05 -9.62345e-06 2.183808e-27)
(2.472721e-05 -7.477075e-06 -2.290146e-24)
(1.971149e-05 -1.447915e-05 1.033439e-27)
(2.233823e-05 -1.270458e-05 -5.247068e-24)
(1.56954e-05 -1.895055e-05 -7.353086e-28)
(1.871815e-05 -1.759456e-05 2.032407e-27)
(1.066063e-05 -2.270337e-05 -7.351349e-28)
(1.385811e-05 -2.1994e-05 -1.261189e-27)
(4.803057e-06 -2.550019e-05 -2.42035e-28)
(8.007508e-06 -2.542468e-05 2.61511e-28)
(1.363947e-06 -2.760814e-05 -5.345252e-28)
(-1.601163e-06 -2.703732e-05 4.890084e-24)
(2.630312e-05 -5.05456e-06 -7.929351e-29)
(2.794133e-05 -2.578058e-06 -1.34089e-27)
(2.438735e-05 -1.063776e-05 4.652005e-27)
(2.664028e-05 -8.267392e-06 1.292374e-27)
(2.121941e-05 -1.605743e-05 5.459691e-27)
(2.404027e-05 -1.414953e-05 -4.432446e-24)
(1.664592e-05 -2.112398e-05 -1.268328e-24)
(1.998035e-05 -1.966804e-05 -1.192976e-23)
(1.084979e-05 -2.532362e-05 -2.647503e-28)
(1.434209e-05 -2.465399e-05 8.902198e-24)
(4.076854e-06 -2.83579e-05 -2.295152e-24)
(7.53769e-06 -2.84737e-05 8.570259e-28)
(-2.312636e-07 -3.072184e-05 1.036695e-27)
(-3.359265e-06 -2.983216e-05 5.833508e-24)
(2.819755e-05 -5.60783e-06 1.316437e-25)
(2.982841e-05 -2.891055e-06 -8.820039e-31)
(2.614779e-05 -1.183324e-05 1.376933e-27)
(2.848864e-05 -9.272124e-06 -2.840292e-30)
(2.260224e-05 -1.796175e-05 -8.074434e-25)
(2.562992e-05 -1.593544e-05 2.471146e-27)
(1.725503e-05 -2.376364e-05 2.480927e-24)
(2.092552e-05 -2.24099e-05 7.428513e-28)
(1.048669e-05 -2.856861e-05 -6.432543e-28)
(1.439832e-05 -2.800258e-05 -4.08397e-27)
(2.452491e-06 -3.187848e-05 -5.796138e-24)
(6.25481e-06 -3.240093e-05 1.782943e-28)
(-3.127971e-06 -3.472319e-05 1.327108e-27)
(-6.411063e-06 -3.317877e-05 -7.308582e-24)
(3.008481e-05 -6.298486e-06 -1.958808e-25)
(3.174616e-05 -3.286284e-06 -7.413586e-30)
(2.788871e-05 -1.339854e-05 1.086456e-27)
(3.041573e-05 -1.0565e-05 -2.371748e-29)
(2.383741e-05 -2.055993e-05 5.895186e-25)
(2.730274e-05 -1.832084e-05 -3.078539e-24)
(1.763976e-05 -2.72792e-05 1.25829e-23)
(2.19166e-05 -2.603162e-05 -8.198178e-24)
(9.400127e-06 -3.286376e-05 5.389949e-24)
(1.405935e-05 -3.279718e-05 1.066254e-27)
(-4.353926e-07 -3.660665e-05 -4.177452e-28)
(3.989906e-06 -3.780587e-05 -2.084618e-23)
(-7.815527e-06 -4.043014e-05 0)
(-1.143018e-05 -3.764604e-05 -1.996025e-28)
(3.209715e-05 -7.16471e-06 0)
(3.384176e-05 -3.793696e-06 -1.933488e-29)
(2.975927e-05 -1.540197e-05 1.317554e-27)
(3.257401e-05 -1.224593e-05 6.1879e-29)
(2.516385e-05 -2.391618e-05 2.848533e-27)
(2.91439e-05 -2.147725e-05 1.535149e-27)
(1.796178e-05 -3.213837e-05 -3.529184e-24)
(2.29395e-05 -3.080689e-05 1.526875e-27)
(7.821835e-06 -3.903472e-05 -2.608406e-23)
(1.361139e-05 -3.944978e-05 -1.407232e-23)
(-4.823703e-06 -4.351206e-05 3.171518e-27)
(9.556908e-07 -4.576324e-05 2.243165e-27)
(-1.440289e-05 -4.906298e-05 -2.14294e-27)
(-1.894981e-05 -4.442622e-05 1.124308e-27)
(3.442851e-05 -8.273058e-06 -9.237554e-25)
(3.63332e-05 -4.445959e-06 -1.865995e-27)
(3.196781e-05 -1.806127e-05 9.22487e-25)
(3.522202e-05 -1.443709e-05 1.343458e-28)
(2.674391e-05 -2.850155e-05 2.173414e-28)
(3.148289e-05 -2.568117e-05 -1.164122e-27)
(1.820516e-05 -3.875099e-05 8.34234e-28)
(2.427572e-05 -3.737349e-05 0)
(6.09823e-06 -4.762778e-05 -6.468626e-29)
(1.310223e-05 -4.843777e-05 -9.393793e-25)
(-1.032691e-05 -5.357023e-05 1.145456e-23)
(-2.60246e-06 -5.747807e-05 -9.830968e-27)
(-2.247441e-05 -6.200876e-05 -1.533261e-26)
(-2.913925e-05 -5.516315e-05 1.692939e-23)
(3.734214e-05 -9.679099e-06 1.412942e-24)
(3.945652e-05 -5.258141e-06 -7.307186e-24)
(3.487764e-05 -2.1535e-05 -1.306711e-27)
(3.868131e-05 -1.718924e-05 -1.655117e-27)
(2.908875e-05 -3.459584e-05 -1.381582e-27)
(3.480278e-05 -3.104561e-05 -8.700937e-24)
(1.919905e-05 -4.780771e-05 1.204536e-27)
(2.678681e-05 -4.592159e-05 -8.911241e-28)
(4.664399e-06 -5.983996e-05 -8.514918e-24)
(1.389524e-05 -6.060438e-05 -1.158171e-27)
(-1.619343e-05 -6.860974e-05 1.019727e-22)
(-4.988659e-06 -7.363029e-05 -3.629907e-23)
(-3.178543e-05 -8.121985e-05 -2.011952e-26)
(-4.280752e-05 -7.171222e-05 3.963421e-23)
(4.113615e-05 -1.140058e-05 2.002168e-24)
(4.340572e-05 -6.21779e-06 -2.004153e-27)
(3.89793e-05 -2.586131e-05 -3.174947e-27)
(4.33442e-05 -2.036993e-05 -1.166171e-23)
(3.289404e-05 -4.221706e-05 -2.338242e-27)
(3.977722e-05 -3.748902e-05 1.001412e-28)
(2.15865e-05 -5.926418e-05 2.196079e-24)
(3.130415e-05 -5.664171e-05 -3.543888e-28)
(3.577514e-06 -7.558691e-05 6.79976e-24)
(1.614611e-05 -7.659764e-05 -3.598357e-27)
(-2.265729e-05 -8.902512e-05 3.444261e-23)
(-8.040949e-06 -9.517333e-05 -7.357676e-27)
(-4.409656e-05 -0.0001089203 -6.824471e-27)
(-6.022643e-05 -9.549903e-05 3.203023e-23)
(4.60584e-05 -1.333632e-05 1.729014e-27)
(4.828212e-05 -7.15004e-06 2.471723e-27)
(4.480267e-05 -3.076257e-05 -3.765196e-24)
(4.954094e-05 -2.385187e-05 1.912734e-23)
(3.878822e-05 -5.121829e-05 2.776648e-24)
(4.716989e-05 -4.469362e-05 1.203243e-23)
(2.57008e-05 -7.381803e-05 -7.035166e-28)
(3.846422e-05 -6.996195e-05 2.238566e-27)
(3.08291e-06 -9.726259e-05 4.252024e-24)
(2.006404e-05 -9.783392e-05 3.812356e-23)
(-3.064942e-05 -0.000118207 -1.909058e-27)
(-1.117353e-05 -0.0001251052 -6.961143e-27)
(-5.712605e-05 -0.0001479641 -5.696582e-27)
(-8.064092e-05 -0.0001306575 -6.251543e-28)
(5.209233e-05 -1.522553e-05 5.920263e-27)
(5.386425e-05 -7.81484e-06 -6.798989e-24)
(5.247615e-05 -3.562556e-05 -2.723149e-23)
(5.734746e-05 -2.704544e-05 3.312303e-27)
(4.699946e-05 -6.151085e-05 1.817229e-27)
(5.703327e-05 -5.308556e-05 1.032699e-28)
(3.183665e-05 -9.280964e-05 4.35774e-28)
(4.832822e-05 -8.626085e-05 -9.146033e-23)
(3.816706e-06 -0.0001268601 7.509976e-24)
(2.596289e-05 -0.0001255823 -3.688929e-27)
(-4.069253e-05 -0.0001578626 -1.066823e-26)
(-1.257151e-05 -0.0001666001 -9.898436e-23)
(-7.448799e-05 -0.000210809 -4.756459e-22)
(-0.0001111781 -0.0001779324 1.407365e-26)
(5.881206e-05 -1.643237e-05 -4.670159e-24)
(5.904203e-05 -8.108273e-06 -1.747361e-28)
(6.128933e-05 -4.010856e-05 -1.277591e-28)
(6.588871e-05 -2.967691e-05 1.57218e-28)
(5.699922e-05 -7.377233e-05 4.813324e-28)
(6.836249e-05 -6.257349e-05 5.934427e-28)
(4.048626e-05 -0.0001178574 -1.968423e-27)
(6.028905e-05 -0.0001071296 1.803114e-22)
(6.432535e-06 -0.000165978 -2.370731e-27)
(3.612767e-05 -0.0001610051 -3.100958e-22)
(-5.89339e-05 -0.0002123254 7.550977e-29)
(-1.23728e-05 -0.0002320623 5.576633e-22)
(-0.0001129129 -0.0003308143 1.269538e-21)
(-0.0001785886 -0.0002547776 4.134628e-26)
(6.40099e-05 -1.657268e-05 -2.548957e-27)
(6.141389e-05 -8.185364e-06 1.022289e-22)
(6.971216e-05 -4.473332e-05 2.335265e-23)
(7.211663e-05 -3.249974e-05 2.82498e-28)
(6.782446e-05 -8.918472e-05 -7.329891e-27)
(7.861888e-05 -7.318922e-05 2.028325e-27)
(5.054921e-05 -0.0001481811 -8.692901e-23)
(7.395884e-05 -0.0001329491 -4.869082e-27)
(1.16641e-06 -0.0002148371 -2.975458e-22)
(4.66189e-05 -0.0002164067 -2.656837e-26)
(-0.0001062044 -0.0002918157 1.329042e-26)
(-3.192887e-05 -0.0003422986 2.659913e-21)
(-0.0001828584 -0.0005278956 2.091052e-27)
(-0.0002985884 -0.000375954 -2.376394e-21)
(6.43253e-05 -1.65432e-05 -2.671762e-27)
(5.664597e-05 -8.579336e-06 -2.672127e-27)
(7.428566e-05 -5.103972e-05 1.439348e-27)
(7.183365e-05 -3.67693e-05 8.57912e-28)
(7.670647e-05 -0.0001074004 5.823537e-23)
(8.343592e-05 -8.685698e-05 3.262977e-27)
(5.431042e-05 -0.0001847761 -1.142065e-27)
(8.440775e-05 -0.0001698372 5.766565e-22)
(-2.535647e-05 -0.0002825288 1.896203e-26)
(3.950771e-05 -0.0003114906 -1.300037e-21)
(-0.0001932502 -0.0004037493 2.307743e-26)
(-7.466622e-05 -0.0005149387 -4.874468e-26)
(-0.0002665701 -0.0007804648 -2.425383e-25)
(-0.0004390092 -0.0005398248 -1.125228e-25)
(5.602421e-05 -1.840913e-05 8.562127e-28)
(4.025686e-05 -1.040404e-05 0)
(7.111766e-05 -6.107083e-05 6.726884e-23)
(6.133099e-05 -4.52992e-05 8.634092e-28)
(7.336822e-05 -0.0001285606 7.743931e-27)
(7.82204e-05 -0.000110908 1.847185e-27)
(3.04739e-05 -0.0002331645 -2.944966e-27)
(7.04472e-05 -0.0002358577 1.102407e-21)
(-8.837824e-05 -0.0003725504 -7.965694e-26)
(-2.49364e-06 -0.0004506808 -8.910616e-27)
(-0.0002907172 -0.0005349593 -1.899004e-20)
(-0.0001465605 -0.0007477277 -7.04993e-26)
(-0.0003314413 -0.001066687 -3.073903e-20)
(-0.0005951847 -0.0007051177 -1.928748e-25)
(3.739845e-05 -2.513626e-05 3.074175e-31)
(1.211384e-05 -1.429004e-05 1.883713e-27)
(5.647106e-05 -7.870029e-05 -4.469899e-30)
(4.181633e-05 -6.281398e-05 -2.044956e-27)
(4.476471e-05 -0.0001652607 -9.396523e-27)
(5.647713e-05 -0.0001625756 1.831448e-27)
(-3.322345e-05 -0.0003016564 -9.391071e-27)
(2.323956e-05 -0.0003474868 -3.298607e-21)
(-0.0001917066 -0.0004731313 -2.903017e-30)
(-7.144772e-05 -0.0006307027 -2.450849e-29)
(-0.0004242901 -0.0006772344 -3.174613e-25)
(-0.0002281835 -0.000997735 -3.806068e-26)
(-0.0004303177 -0.001395626 -3.727822e-25)
(-0.0006946147 -0.0008649093 -3.805064e-20)
(8.443262e-06 -3.772928e-05 2.060394e-23)
(-2.756827e-05 -2.050012e-05 1.335531e-22)
(2.598095e-05 -0.0001100095 1.324404e-22)
(1.414345e-05 -9.539811e-05 -3.33602e-22)
(-1.037348e-05 -0.0002281964 -2.813725e-26)
(1.748516e-05 -0.0002483344 -1.016391e-26)
(-0.0001222815 -0.0003891401 -3.058493e-26)
(-4.331498e-05 -0.0005067278 -2.987605e-26)
(-0.0003231412 -0.000589008 -3.851248e-26)
(-0.0001408128 -0.0008508424 -2.458403e-26)
(-0.0005810724 -0.0008062873 -9.19969e-26)
(-0.0003257098 -0.001274949 -9.00789e-21)
(-0.0005239201 -0.001688601 -1.385582e-20)
(-0.0008712348 -0.0009769047 8.236118e-26)
(-3.166453e-05 -5.772704e-05 -3.357815e-23)
(-7.44875e-05 -3.110635e-05 5.739656e-23)
(-2.191233e-05 -0.0001573859 -2.636243e-26)
(-2.663691e-05 -0.0001493752 -4.668751e-22)
(-8.538698e-05 -0.0003043399 -1.195883e-26)
(-3.477677e-05 -0.0003647485 -1.656371e-21)
(-0.0002285992 -0.0004987134 -2.422039e-26)
(-0.0001018077 -0.0006898075 -2.616943e-30)
(-0.0004353787 -0.0007360782 -1.883776e-20)
(-0.0002309764 -0.001121318 7.472347e-21)
(-0.0007036547 -0.0009615001 -6.165033e-25)
(-0.0004100896 -0.001598447 -1.159745e-20)
(-0.0005187075 -0.001971293 -7.555943e-20)
(-0.0009981257 -0.001094827 -3.51926e-20)
(-8.036763e-05 -8.862803e-05 5.620297e-23)
(-0.0001217015 -4.912635e-05 8.276175e-23)
(-8.317821e-05 -0.0002167831 -2.684966e-26)
(-7.415453e-05 -0.0002236415 -1.008683e-26)
(-0.0001672921 -0.0003888427 -1.67768e-26)
(-8.631819e-05 -0.0005009777 -8.063087e-27)
(-0.0003324684 -0.0006190736 3.855535e-26)
(-0.0001539483 -0.0008941101 -1.616592e-26)
(-0.0005638772 -0.0008945287 -1.495346e-26)
(-0.0002807757 -0.001384153 7.975124e-26)
(-0.0008161097 -0.0011412 -3.572815e-25)
(-0.0004389553 -0.001901782 -8.027681e-28)
(-0.0005269621 -0.002340687 -3.656449e-25)
(-0.0009752985 -0.001201847 1.626561e-25)
(-0.000126818 -0.000127672 -1.081843e-26)
(-0.0001548901 -7.549184e-05 -4.688544e-27)
(-0.0001434844 -0.0002840151 8.71929e-27)
(-0.0001079357 -0.0003128606 -4.486e-32)
(-0.0002410248 -0.0004877391 3.168789e-21)
(-0.0001231824 -0.0006460113 8.857128e-27)
(-0.0004097659 -0.0007616353 2.493826e-26)
(-0.0001833837 -0.001106223 -7.138304e-21)
(-0.0006210836 -0.001062956 1.540693e-20)
(-0.0002859209 -0.001639979 4.389713e-26)
(-0.0008025373 -0.001287837 -1.034949e-26)