/*--------------------------------*- C++ -*----------------------------------*\
| =========                 |                                                 |
| \\      /  F ield         | OpenFOAM: The Open Source CFD Toolbox           |
|  \\    /   O peration     | Version:  v2006                                 |
|   \\  /    A nd           | Website:  www.openfoam.com                      |
|    \\/     M anipulation  |                                                 |
\*---------------------------------------------------------------------------*/
FoamFile
{
    version     2.0;
    format      ascii;
    class       volScalarField;
    location    "1620";
    object      p;
}
// * * * * * * * * * * * * * * * * * * * * * * * * * * * * * * * * * * * * * //

dimensions      [1 -1 -2 0 0 0 0];


internalField   nonuniform List<scalar> 
120
(
-2.21312
-6.87289
-11.5327
-16.1925
-20.8523
-25.5122
-30.1721
-34.832
-39.492
-44.1519
-48.8119
-53.4719
-58.132
-62.792
-67.4521
-72.1122
-76.7724
-81.4325
-86.0927
-90.753
-95.4132
-100.073
-104.734
-109.394
-114.055
-118.715
-123.375
-128.036
-132.696
-137.357
-142.017
-146.678
-151.338
-155.999
-160.66
-165.32
-169.981
-174.642
-179.303
-183.964
-188.624
-193.285
-197.946
-202.607
-207.268
-211.929
-216.59
-221.251
-225.912
-230.574
-235.235
-239.896
-244.557
-249.218
-253.88
-258.541
-263.202
-267.864
-272.525
-277.187
-281.848
-286.51
-291.171
-295.833
-300.495
-305.156
-309.818
-314.48
-319.141
-323.803
-328.465
-333.127
-337.789
-342.451
-347.113
-351.775
-356.437
-361.099
-365.761
-370.423
-375.085
-379.747
-384.409
-389.071
-393.733
-398.396
-403.058
-407.72
-412.382
-417.044
-421.705
-426.366
-431.027
-435.687
-440.346
-445.006
-449.666
-454.326
-458.985
-463.645
-468.305
-472.965
-477.624
-482.284
-486.944
-491.604
-496.263
-500.923
-505.583
-510.243
-514.902
-519.562
-524.222
-528.882
-533.541
-538.201
-542.861
-547.521
-552.18
-556.84
)
;

boundaryField
{
    inlet
    {
        type            cyclic;
    }
    outlet
    {
        type            cyclic;
    }
    top
    {
        type            calculated;
        value           uniform -559.17;
    }
    bottom
    {
        type            calculated;
        value           uniform 0.116757;
    }
    frontAndBackPlanes
    {
        type            empty;
    }
}


// ************************************************************************* //
