/*--------------------------------*- C++ -*----------------------------------*\
| =========                 |                                                 |
| \\      /  F ield         | OpenFOAM: The Open Source CFD Toolbox           |
|  \\    /   O peration     | Version:  v2006                                 |
|   \\  /    A nd           | Website:  www.openfoam.com                      |
|    \\/     M anipulation  |                                                 |
\*---------------------------------------------------------------------------*/
FoamFile
{
    version     2.0;
    format      ascii;
    class       volScalarField;
    location    "1620";
    object      p_p_total;
}
// * * * * * * * * * * * * * * * * * * * * * * * * * * * * * * * * * * * * * //

dimensions      [1 -1 -2 0 0 0 0];


internalField   nonuniform List<scalar> 
120
(
26.178
25.8837
25.5894
25.2952
25.001
24.7068
24.4127
24.1187
23.8246
23.5307
23.2367
22.9429
22.649
22.3552
22.0615
21.7678
21.4742
21.1806
20.887
20.5935
20.3001
20.0067
19.7133
19.42
19.1268
18.8336
18.5405
18.2474
17.9544
17.6614
17.3685
17.0757
16.7829
16.4901
16.1975
15.9049
15.6123
15.3198
15.0274
14.735
14.4427
14.1504
13.8583
13.5661
13.2741
12.9821
12.6902
12.3983
12.1066
11.8149
11.5232
11.2317
10.9402
10.6488
10.3574
10.0662
9.77502
9.48394
9.19293
8.90201
8.61119
8.32045
8.0298
7.73925
7.4488
7.15846
6.86821
6.57807
6.28805
5.99814
5.70834
5.41868
5.12914
4.83973
4.55047
4.26135
3.97239
3.68359
3.39496
3.10652
2.81827
2.53024
2.24244
1.95489
1.66759
1.38069
1.09457
0.808295
0.51385
0.202947
0
0
0
0
0
0
0
0
0
0
0
0
0
0
0
0
0
0
0
0
0
0
0
0
0
0
0
0
0
0
)
;

boundaryField
{
    inlet
    {
        type            cyclic;
    }
    outlet
    {
        type            cyclic;
    }
    top
    {
        type            calculated;
        value           uniform 0;
    }
    bottom
    {
        type            calculated;
        value           uniform 26.178;
    }
    frontAndBackPlanes
    {
        type            empty;
    }
}


// ************************************************************************* //
