/*--------------------------------*- C++ -*----------------------------------*\
| =========                 |                                                 |
| \\      /  F ield         | OpenFOAM: The Open Source CFD Toolbox           |
|  \\    /   O peration     | Version:  v2006                                 |
|   \\  /    A nd           | Website:  www.openfoam.com                      |
|    \\/     M anipulation  |                                                 |
\*---------------------------------------------------------------------------*/
FoamFile
{
    version     2.0;
    format      ascii;
    class       surfaceScalarField;
    location    "1620";
    object      phia;
}
// * * * * * * * * * * * * * * * * * * * * * * * * * * * * * * * * * * * * * //

dimensions      [0 3 -1 0 0 0 0];
oriented        oriented;


internalField   nonuniform List<scalar> 
119
(
-5.69021e-17
-1.14462e-16
-1.72686e-16
-2.31583e-16
-2.91161e-16
-3.51428e-16
-4.12395e-16
-4.74068e-16
-5.36457e-16
-5.99571e-16
-6.63418e-16
-7.28007e-16
-7.93347e-16
-8.59445e-16
-9.2631e-16
-9.93949e-16
-1.06237e-15
-1.13158e-15
-1.20158e-15
-1.27238e-15
-1.34399e-15
-1.4164e-15
-1.48962e-15
-1.56365e-15
-1.63849e-15
-1.71413e-15
-1.79058e-15
-1.86783e-15
-1.94587e-15
-2.02469e-15
-2.10429e-15
-2.18465e-15
-2.26576e-15
-2.34761e-15
-2.43018e-15
-2.51345e-15
-2.59741e-15
-2.68203e-15
-2.7673e-15
-2.85319e-15
-2.93969e-15
-3.02677e-15
-3.11441e-15
-3.20259e-15
-3.29129e-15
-3.38049e-15
-3.47016e-15
-3.56029e-15
-3.65087e-15
-3.74187e-15
-3.83328e-15
-3.92509e-15
-4.01729e-15
-4.10987e-15
-4.20282e-15
-4.29613e-15
-4.38981e-15
-4.48385e-15
-4.57826e-15
-4.67304e-15
-4.7682e-15
-4.86374e-15
-4.95969e-15
-5.05605e-15
-5.15285e-15
-5.2501e-15
-5.34782e-15
-5.44604e-15
-5.54479e-15
-5.64408e-15
-5.74394e-15
-5.84439e-15
-5.94545e-15
-6.04713e-15
-6.14945e-15
-6.25241e-15
-6.35602e-15
-6.46029e-15
-6.56524e-15
-6.67089e-15
-6.77731e-15
-6.88456e-15
-6.99274e-15
-7.10196e-15
-7.21239e-15
-7.32356e-15
-7.43216e-15
-7.54242e-15
-7.78178e-15
-1.68603e-14
-1.35289e-12
-6.90936e-11
-5.47064e-11
-8.19941e-11
-8.22717e-11
-8.22743e-11
-8.22764e-11
-8.22766e-11
-8.22766e-11
-8.22766e-11
-8.22766e-11
-8.22766e-11
-8.22766e-11
-8.22766e-11
-8.22766e-11
-8.22766e-11
-8.22766e-11
-8.22766e-11
-8.22766e-11
-8.22766e-11
-8.22766e-11
-8.22766e-11
-8.22766e-11
-8.22766e-11
-8.22766e-11
-8.22766e-11
-8.22766e-11
-8.22565e-11
-8.21697e-11
)
;

boundaryField
{
    inlet
    {
        type            cyclic;
        value           nonuniform List<scalar> 
120
(
-1.09581e-27
-3.28927e-27
-5.48706e-27
-7.66167e-27
-9.84636e-27
-1.2044e-26
-1.42576e-26
-1.64291e-26
-1.86224e-26
-2.0901e-26
-2.32071e-26
-2.55437e-26
-2.79743e-26
-3.04413e-26
-3.29476e-26
-3.5496e-26
-3.80896e-26
-4.07312e-26
-4.34238e-26
-4.61703e-26
-4.89735e-26
-5.18365e-26
-5.47618e-26
-5.77525e-26
-6.10539e-26
-6.44259e-26
-6.78713e-26
-7.12712e-26
-7.47493e-26
-7.83081e-26
-8.17071e-26
-8.49484e-26
-8.82766e-26
-9.16935e-26
-9.52006e-26
-9.87992e-26
-1.02733e-25
-1.07003e-25
-1.11126e-25
-1.15585e-25
-1.19655e-25
-1.24061e-25
-1.2832e-25
-1.32672e-25
-1.37116e-25
-1.41892e-25
-1.46273e-25
-1.50739e-25
-1.55046e-25
-1.59917e-25
-1.64863e-25
-1.69881e-25
-1.74966e-25
-1.80113e-25
-1.85315e-25
-1.9081e-25
-1.96347e-25
-2.01921e-25
-2.07524e-25
-2.12665e-25
-2.17818e-25
-2.22975e-25
-2.28128e-25
-2.33267e-25
-2.38383e-25
-2.42982e-25
-2.48022e-25
-2.53009e-25
-2.57932e-25
-2.62783e-25
-2.67551e-25
-2.71743e-25
-2.75833e-25
-2.7981e-25
-2.83664e-25
-2.87387e-25
-2.9097e-25
-2.94405e-25
-2.97683e-25
-3.00797e-25
-3.03739e-25
-3.06504e-25
-3.09084e-25
-3.11476e-25
-3.13674e-25
-3.15673e-25
-3.16517e-25
-3.17156e-25
-3.17588e-25
-3.17811e-25
-3.17897e-25
-3.22515e-25
-3.2944e-25
-3.36059e-25
-3.42082e-25
-3.47303e-25
-3.51538e-25
-3.54617e-25
-3.56388e-25
-3.56715e-25
-3.55479e-25
-3.52575e-25
-3.47918e-25
-3.4144e-25
-3.33096e-25
-3.22856e-25
-3.1072e-25
-2.96702e-25
-2.8084e-25
-2.63191e-25
-2.43835e-25
-2.22869e-25
-2.00414e-25
-1.76594e-25
-1.51564e-25
-1.25484e-25
-9.8529e-26
-7.08821e-26
-4.27354e-26
-1.42881e-26
)
;
    }
    outlet
    {
        type            cyclic;
        value           nonuniform List<scalar> 
120
(
1.09581e-27
3.28927e-27
5.48706e-27
7.66167e-27
9.84636e-27
1.2044e-26
1.42576e-26
1.64291e-26
1.86224e-26
2.0901e-26
2.32071e-26
2.55437e-26
2.79743e-26
3.04413e-26
3.29476e-26
3.5496e-26
3.80896e-26
4.07312e-26
4.34238e-26
4.61703e-26
4.89735e-26
5.18365e-26
5.47618e-26
5.77525e-26
6.10539e-26
6.44259e-26
6.78713e-26
7.12712e-26
7.47493e-26
7.83081e-26
8.17071e-26
8.49484e-26
8.82766e-26
9.16935e-26
9.52006e-26
9.87992e-26
1.02733e-25
1.07003e-25
1.11126e-25
1.15585e-25
1.19655e-25
1.24061e-25
1.2832e-25
1.32672e-25
1.37116e-25
1.41892e-25
1.46273e-25
1.50739e-25
1.55046e-25
1.59917e-25
1.64863e-25
1.69881e-25
1.74966e-25
1.80113e-25
1.85315e-25
1.9081e-25
1.96347e-25
2.01921e-25
2.07524e-25
2.12665e-25
2.17818e-25
2.22975e-25
2.28128e-25
2.33267e-25
2.38383e-25
2.42982e-25
2.48022e-25
2.53009e-25
2.57932e-25
2.62783e-25
2.67551e-25
2.71743e-25
2.75833e-25
2.7981e-25
2.83664e-25
2.87387e-25
2.9097e-25
2.94405e-25
2.97683e-25
3.00797e-25
3.03739e-25
3.06504e-25
3.09084e-25
3.11476e-25
3.13674e-25
3.15673e-25
3.16517e-25
3.17156e-25
3.17588e-25
3.17811e-25
3.17897e-25
3.22515e-25
3.2944e-25
3.36059e-25
3.42082e-25
3.47303e-25
3.51538e-25
3.54617e-25
3.56388e-25
3.56715e-25
3.55479e-25
3.52575e-25
3.47918e-25
3.4144e-25
3.33096e-25
3.22856e-25
3.1072e-25
2.96702e-25
2.8084e-25
2.63191e-25
2.43835e-25
2.22869e-25
2.00414e-25
1.76594e-25
1.51564e-25
1.25484e-25
9.8529e-26
7.08821e-26
4.27354e-26
1.42881e-26
)
;
    }
    top
    {
        type            fixedValue;
        value           uniform 0;
    }
    bottom
    {
        type            fixedValue;
        value           uniform 0;
    }
    frontAndBackPlanes
    {
        type            empty;
        value           nonuniform List<scalar> 0();
    }
}


// ************************************************************************* //
