/*--------------------------------*- C++ -*----------------------------------*\
| =========                 |                                                 |
| \\      /  F ield         | OpenFOAM: The Open Source CFD Toolbox           |
|  \\    /   O peration     | Version:  v2006                                 |
|   \\  /    A nd           | Website:  www.openfoam.com                      |
|    \\/     M anipulation  |                                                 |
\*---------------------------------------------------------------------------*/
FoamFile
{
    version     2.0;
    format      ascii;
    class       surfaceScalarField;
    location    "1620";
    object      phib;
}
// * * * * * * * * * * * * * * * * * * * * * * * * * * * * * * * * * * * * * //

dimensions      [0 3 -1 0 0 0 0];
oriented        oriented;


internalField   nonuniform List<scalar> 
119
(
8.53729e-17
1.71699e-16
2.58987e-16
3.47249e-16
4.36495e-16
5.26738e-16
6.17989e-16
7.10261e-16
8.03564e-16
8.9791e-16
9.93311e-16
1.08978e-15
1.18732e-15
1.28595e-15
1.38568e-15
1.48652e-15
1.58848e-15
1.69156e-15
1.79577e-15
1.90112e-15
2.00761e-15
2.11524e-15
2.22402e-15
2.33394e-15
2.445e-15
2.55719e-15
2.67052e-15
2.78496e-15
2.9005e-15
3.01713e-15
3.13484e-15
3.2536e-15
3.37339e-15
3.49419e-15
3.61596e-15
3.73868e-15
3.86232e-15
3.98685e-15
4.11223e-15
4.23842e-15
4.3654e-15
4.49312e-15
4.62155e-15
4.75065e-15
4.88038e-15
5.01071e-15
5.1416e-15
5.27302e-15
5.40494e-15
5.53732e-15
5.67014e-15
5.80337e-15
5.93698e-15
6.07096e-15
6.20528e-15
6.33992e-15
6.47487e-15
6.61013e-15
6.74567e-15
6.88149e-15
7.01759e-15
7.15396e-15
7.2906e-15
7.42752e-15
7.56472e-15
7.70221e-15
7.83997e-15
7.97804e-15
8.11638e-15
8.25501e-15
8.39391e-15
8.53307e-15
8.67244e-15
8.81198e-15
8.95162e-15
9.09128e-15
9.23085e-15
9.3702e-15
9.50918e-15
9.64762e-15
9.78531e-15
9.922e-15
1.00573e-14
1.01907e-14
1.03213e-14
1.04469e-14
1.05598e-14
1.06587e-14
1.08971e-14
1.58459e-14
3.32376e-13
2.59447e-13
1.90766e-15
5.87743e-20
7.1998e-20
9.16936e-20
1.07958e-19
1.30094e-19
1.41959e-19
1.58142e-19
1.62728e-19
1.73077e-19
1.71501e-19
1.81107e-19
1.84109e-19
1.98381e-19
1.99303e-19
2.06825e-19
2.00675e-19
2.01138e-19
1.88832e-19
1.87633e-19
1.80836e-19
1.85374e-19
1.79684e-19
1.80436e-19
1.7113e-19
1.68035e-19
1.54765e-19
)
;

boundaryField
{
    inlet
    {
        type            cyclic;
        value           nonuniform List<scalar> 
120
(
-1.0958e-27
-3.28927e-27
-5.48715e-27
-7.66167e-27
-9.84636e-27
-1.2044e-26
-1.42585e-26
-1.64291e-26
-1.86211e-26
-2.0901e-26
-2.32071e-26
-2.55418e-26
-2.79743e-26
-3.04413e-26
-3.29476e-26
-3.5496e-26
-3.80896e-26
-4.07312e-26
-4.34238e-26
-4.61703e-26
-4.89735e-26
-5.18365e-26
-5.47618e-26
-5.77353e-26
-6.10538e-26
-6.4426e-26
-6.78812e-26
-7.12712e-26
-7.47494e-26
-7.83308e-26
-8.17308e-26
-8.49485e-26
-8.82766e-26
-9.16935e-26
-9.52005e-26
-9.87707e-26
-1.02704e-25
-1.07033e-25
-1.11095e-25
-1.1565e-25
-1.19622e-25
-1.24096e-25
-1.2832e-25
-1.32672e-25
-1.37079e-25
-1.41969e-25
-1.46273e-25
-1.50779e-25
-1.54962e-25
-1.59916e-25
-1.64863e-25
-1.69881e-25
-1.74966e-25
-1.80113e-25
-1.85267e-25
-1.90809e-25
-1.96347e-25
-2.01922e-25
-2.07629e-25
-2.12665e-25
-2.17818e-25
-2.22975e-25
-2.28128e-25
-2.33267e-25
-2.38501e-25
-2.42862e-25
-2.48021e-25
-2.53009e-25
-2.57932e-25
-2.62784e-25
-2.67683e-25
-2.71744e-25
-2.75833e-25
-2.7981e-25
-2.83664e-25
-2.87387e-25
-2.9097e-25
-2.94405e-25
-2.97683e-25
-3.00796e-25
-3.03739e-25
-3.06504e-25
-3.09084e-25
-3.11476e-25
-3.13675e-25
-3.16006e-25
-3.16519e-25
-3.17156e-25
-3.17588e-25
-3.17812e-25
-3.17976e-25
-3.22528e-25
-3.29452e-25
-3.36064e-25
-3.42082e-25
-3.47303e-25
-3.51538e-25
-3.54617e-25
-3.56387e-25
-3.56715e-25
-3.55478e-25
-3.52575e-25
-3.47918e-25
-3.4144e-25
-3.33095e-25
-3.22857e-25
-3.10721e-25
-2.96703e-25
-2.8084e-25
-2.63192e-25
-2.43837e-25
-2.22872e-25
-2.00415e-25
-1.76597e-25
-1.51567e-25
-1.25487e-25
-9.85318e-26
-7.0885e-26
-4.27384e-26
-1.42897e-26
)
;
    }
    outlet
    {
        type            cyclic;
        value           nonuniform List<scalar> 
120
(
1.0958e-27
3.28927e-27
5.48715e-27
7.66167e-27
9.84636e-27
1.2044e-26
1.42585e-26
1.64291e-26
1.86211e-26
2.0901e-26
2.32071e-26
2.55418e-26
2.79743e-26
3.04413e-26
3.29476e-26
3.5496e-26
3.80896e-26
4.07312e-26
4.34238e-26
4.61703e-26
4.89735e-26
5.18365e-26
5.47618e-26
5.77353e-26
6.10538e-26
6.4426e-26
6.78812e-26
7.12712e-26
7.47494e-26
7.83308e-26
8.17308e-26
8.49485e-26
8.82766e-26
9.16935e-26
9.52005e-26
9.87707e-26
1.02704e-25
1.07033e-25
1.11095e-25
1.1565e-25
1.19622e-25
1.24096e-25
1.2832e-25
1.32672e-25
1.37079e-25
1.41969e-25
1.46273e-25
1.50779e-25
1.54962e-25
1.59916e-25
1.64863e-25
1.69881e-25
1.74966e-25
1.80113e-25
1.85267e-25
1.90809e-25
1.96347e-25
2.01922e-25
2.07629e-25
2.12665e-25
2.17818e-25
2.22975e-25
2.28128e-25
2.33267e-25
2.38501e-25
2.42862e-25
2.48021e-25
2.53009e-25
2.57932e-25
2.62784e-25
2.67683e-25
2.71744e-25
2.75833e-25
2.7981e-25
2.83664e-25
2.87387e-25
2.9097e-25
2.94405e-25
2.97683e-25
3.00796e-25
3.03739e-25
3.06504e-25
3.09084e-25
3.11476e-25
3.13675e-25
3.16006e-25
3.16519e-25
3.17156e-25
3.17588e-25
3.17812e-25
3.17976e-25
3.22528e-25
3.29452e-25
3.36064e-25
3.42082e-25
3.47303e-25
3.51538e-25
3.54617e-25
3.56387e-25
3.56715e-25
3.55478e-25
3.52575e-25
3.47918e-25
3.4144e-25
3.33095e-25
3.22857e-25
3.10721e-25
2.96703e-25
2.8084e-25
2.63192e-25
2.43837e-25
2.22872e-25
2.00415e-25
1.76597e-25
1.51567e-25
1.25487e-25
9.85318e-26
7.0885e-26
4.27384e-26
1.42897e-26
)
;
    }
    top
    {
        type            fixedValue;
        value           uniform 0;
    }
    bottom
    {
        type            fixedValue;
        value           uniform 0;
    }
    frontAndBackPlanes
    {
        type            empty;
        value           nonuniform List<scalar> 0();
    }
}


// ************************************************************************* //
