/*--------------------------------*- C++ -*----------------------------------*\
| =========                 |                                                 |
| \\      /  F ield         | OpenFOAM: The Open Source CFD Toolbox           |
|  \\    /   O peration     | Version:  v2006                                 |
|   \\  /    A nd           | Website:  www.openfoam.com                      |
|    \\/     M anipulation  |                                                 |
\*---------------------------------------------------------------------------*/
FoamFile
{
    version     2.0;
    format      ascii;
    class       volTensorField;
    location    "1620";
    object      Taua;
}
// * * * * * * * * * * * * * * * * * * * * * * * * * * * * * * * * * * * * * //

dimensions      [1 -1 -2 0 0 0 0];


internalField   nonuniform List<tensor> 
120
(
(0.00011075 0 0 1.53478e-14 -0.000221499 0 0 0 0.00011075)
(0.0001118 0 0 1.53694e-14 -0.0002236 0 0 0 0.0001118)
(0.000113218 0 0 1.53034e-14 -0.000226436 0 0 0 0.000113218)
(0.000114532 0 0 1.52575e-14 -0.000229063 0 0 0 0.000114532)
(0.000115846 0 0 1.53383e-14 -0.000231693 0 0 0 0.000115846)
(0.000117187 0 0 1.54393e-14 -0.000234374 0 0 0 0.000117187)
(0.000118545 0 0 1.53479e-14 -0.000237091 0 0 0 0.000118545)
(0.00011992 0 0 1.52768e-14 -0.000239841 0 0 0 0.00011992)
(0.000121312 0 0 1.56515e-14 -0.000242625 0 0 0 0.000121312)
(0.000122721 0 0 1.60465e-14 -0.000245442 0 0 0 0.000122721)
(0.000124147 0 0 1.62494e-14 -0.000248294 0 0 0 0.000124147)
(0.00012559 0 0 1.66854e-14 -0.00025118 0 0 0 0.00012559)
(0.000127049 0 0 1.71419e-14 -0.000254098 0 0 0 0.000127049)
(0.000128525 0 0 1.74063e-14 -0.000257049 0 0 0 0.000128525)
(0.000130015 0 0 1.76914e-14 -0.000260031 0 0 0 0.000130015)
(0.000131521 0 0 1.7997e-14 -0.000263042 0 0 0 0.000131521)
(0.000133041 0 0 1.83231e-14 -0.000266081 0 0 0 0.000133041)
(0.000134573 0 0 1.86698e-14 -0.000269145 0 0 0 0.000134573)
(0.000136116 0 0 1.90368e-14 -0.000272233 0 0 0 0.000136116)
(0.00013767 0 0 1.94242e-14 -0.00027534 0 0 0 0.00013767)
(0.000139232 0 0 1.98316e-14 -0.000278463 0 0 0 0.000139232)
(0.000140799 0 0 2.0259e-14 -0.000281599 0 0 0 0.000140799)
(0.000142371 0 0 2.07061e-14 -0.000284743 0 0 0 0.000142371)
(0.000143945 0 0 2.20221e-14 -0.00028789 0 0 0 0.000143945)
(0.000145518 0 0 2.33571e-14 -0.000291035 0 0 0 0.000145518)
(0.000147087 0 0 2.38611e-14 -0.000294173 0 0 0 0.000147087)
(0.000148649 0 0 2.39584e-14 -0.000297298 0 0 0 0.000148649)
(0.000150202 0 0 2.40731e-14 -0.000300405 0 0 0 0.000150202)
(0.000151743 0 0 2.46292e-14 -0.000303486 0 0 0 0.000151743)
(0.000153268 0 0 2.43522e-14 -0.000306536 0 0 0 0.000153268)
(0.000154774 0 0 2.32412e-14 -0.000309548 0 0 0 0.000154774)
(0.000156258 0 0 2.29934e-14 -0.000312517 0 0 0 0.000156258)
(0.000157718 0 0 2.36077e-14 -0.000315436 0 0 0 0.000157718)
(0.000159149 0 0 2.42339e-14 -0.000318299 0 0 0 0.000159149)
(0.00016055 0 0 2.487e-14 -0.000321101 0 0 0 0.00016055)
(0.000161918 2.30085e-18 0 2.63637e-14 -0.000323836 0 0 0 0.000161918)
(0.000163251 0 0 2.87145e-14 -0.000326501 0 0 0 0.000163251)
(0.000164546 0 0 2.93738e-14 -0.000329091 0 0 0 0.000164546)
(0.000165801 0 0 3.00361e-14 -0.000331603 0 0 0 0.000165801)
(0.000167017 0 0 2.9852e-14 -0.000334034 0 0 0 0.000167017)
(0.000168191 0 0 2.96674e-14 -0.000336382 0 0 0 0.000168191)
(0.000169323 0 0 3.03286e-14 -0.000338646 0 0 0 0.000169323)
(0.000170413 0 0 3.01366e-14 -0.000340827 0 0 0 0.000170413)
(0.000171462 0 0 3.07851e-14 -0.000342924 0 0 0 0.000171462)
(0.000172469 0 0 3.22713e-14 -0.000344939 0 0 0 0.000172469)
(0.000173437 0 0 3.2049e-14 -0.000346874 0 0 0 0.000173437)
(0.000174367 0 0 3.09629e-14 -0.000348733 0 0 0 0.000174367)
(0.00017526 0 0 3.0706e-14 -0.00035052 0 0 0 0.00017526)
(0.000176119 0 0 3.21222e-14 -0.000352238 0 0 0 0.000176119)
(0.000176947 0 0 3.43608e-14 -0.000353894 0 0 0 0.000176947)
(0.000177747 0 0 3.48764e-14 -0.000355494 0 0 0 0.000177747)
(0.000178522 0 0 3.53606e-14 -0.000357044 0 0 0 0.000178522)
(0.000179275 0 0 3.58101e-14 -0.00035855 0 0 0 0.000179275)
(0.000180011 0 0 3.62217e-14 -0.000360022 0 0 0 0.000180011)
(0.000180733 0 0 3.74389e-14 -0.000361466 0 0 0 0.000180733)
(0.000181446 0 0 3.86117e-14 -0.000362891 0 0 0 0.000181446)
(0.000182153 0 0 3.88903e-14 -0.000364307 0 0 0 0.000182153)
(0.000182861 0 0 3.91195e-14 -0.000365721 0 0 0 0.000182861)
(0.000183572 -4.60169e-18 0 3.76031e-14 -0.000367145 0 0 0 0.000183572)
(0.000184293 0 0 3.60282e-14 -0.000368587 0 0 0 0.000184293)
(0.000185029 0 0 3.60869e-14 -0.000370057 0 0 0 0.000185029)
(0.000185783 0 0 3.60855e-14 -0.000371566 0 0 0 0.000185783)
(0.000186562 0 0 3.60207e-14 -0.000373124 0 0 0 0.000186562)
(0.000187371 0 0 3.58906e-14 -0.000374742 0 0 0 0.000187371)
(0.000188214 0 0 3.40034e-14 -0.000376428 0 0 0 0.000188214)
(0.000189095 0 0 3.37375e-14 -0.000378191 0 0 0 0.000189095)
(0.000190019 0 0 3.50923e-14 -0.000380039 0 0 0 0.000190019)
(0.000190988 0 0 3.46871e-14 -0.000381977 0 0 0 0.000190988)
(0.000192004 0 0 3.42113e-14 -0.000384008 0 0 0 0.000192004)
(0.000193066 0 0 3.36647e-14 -0.000386133 0 0 0 0.000193066)
(0.000194173 0 0 3.13605e-14 -0.000388346 0 0 0 0.000194173)
(0.000195321 0 0 2.89867e-14 -0.000390642 0 0 0 0.000195321)
(0.000196504 0 0 2.82317e-14 -0.000393008 0 0 0 0.000196504)
(0.000197716 0 0 2.74097e-14 -0.000395432 0 0 0 0.000197716)
(0.00019895 0 0 2.65225e-14 -0.000397899 0 0 0 0.00019895)
(0.0002002 0 0 2.55723e-14 -0.000400399 0 0 0 0.0002002)
(0.000201465 0 0 2.45616e-14 -0.000402929 0 0 0 0.000201465)
(0.000202746 0 0 2.34932e-14 -0.000405491 0 0 0 0.000202746)
(0.000204055 0 0 2.23703e-14 -0.00040811 0 0 0 0.000204055)
(0.000205462 0 0 2.11962e-14 -0.000410924 0 0 0 0.000205462)
(0.000207053 0 0 1.99745e-14 -0.000414105 0 0 0 0.000207053)
(0.000208365 0 0 1.8709e-14 -0.000416729 0 0 0 0.000208365)
(0.000208562 0 0 1.74038e-14 -0.000417123 0 0 0 0.000208562)
(0.000213493 0 0 1.60627e-14 -0.000426985 0 0 0 0.000213493)
(0.000237472 0 0 1.46901e-14 -0.000474943 0 0 0 0.000237472)
(0.00021575 0 0 9.95196e-15 -0.0004315 0 0 0 0.00021575)
(-7.30906e-05 0 0 5.19078e-15 0.000146181 0 0 0 -7.30906e-05)
(3.89778e-05 0 0 3.74888e-15 -7.79555e-05 0 0 0 3.89778e-05)
(0.00372892 0 0 2.2921e-15 -0.00745783 0 0 0 0.00372892)
(0.00919985 0 0 1.08244e-15 -0.0183997 0 0 0 0.00919985)
(1.38312e-05 0 0 6.37261e-21 -2.76623e-05 0 0 0 1.38312e-05)
(4.35537e-07 0 0 2.99434e-22 -8.71074e-07 0 0 0 4.35537e-07)
(2.1305e-09 0 0 3.30578e-24 -4.26099e-09 0 0 0 2.1305e-09)
(5.55346e-19 0 0 1.15793e-33 -1.11069e-18 0 0 0 5.55346e-19)
(1.24816e-28 0 0 3.58197e-43 -2.49632e-28 0 0 0 1.24816e-28)
(-1.09499e-40 0 0 1.8963e-52 2.18997e-40 0 0 0 -1.09499e-40)
(-1.41487e-49 0 0 1.70037e-61 2.82974e-49 0 0 0 -1.41487e-49)
(1.27342e-58 0 0 1.71085e-70 -2.54685e-58 0 0 0 1.27342e-58)
(4.3351e-68 0 0 1.41242e-79 -8.6702e-68 0 0 0 4.3351e-68)
(-3.55046e-77 0 0 -1.3425e-88 7.10091e-77 0 0 0 -3.55046e-77)
(-2.29046e-86 0 0 -1.55416e-96 4.58093e-86 0 0 0 -2.29046e-86)
(1.62216e-95 0 0 -7.54913e-105 -3.24432e-95 0 0 0 1.62216e-95)
(1.59287e-104 0 0 -3.16493e-113 -3.18574e-104 0 0 0 1.59287e-104)
(-8.65834e-114 0 0 -1.21508e-121 1.73167e-113 0 0 0 -8.65834e-114)
(-1.28037e-122 0 0 -4.89902e-130 2.56074e-122 0 0 0 -1.28037e-122)
(5.62405e-132 0 0 -2.10849e-138 -1.12481e-131 0 0 0 5.62405e-132)
(1.39203e-140 0 0 -1.04698e-146 -2.78406e-140 0 0 0 1.39203e-140)
(-1.05042e-149 0 0 -5.51517e-155 2.10084e-149 0 0 0 -1.05042e-149)
(-1.75414e-158 0 0 -3.08169e-163 3.50828e-158 0 0 0 -1.75414e-158)
(1.39566e-166 0 0 -1.66209e-171 -2.79132e-166 0 0 0 1.39566e-166)
(8.49214e-175 0 0 -8.78334e-180 -1.69843e-174 0 0 0 8.49214e-175)
(3.14184e-183 0 0 -4.23337e-188 -6.28369e-183 0 0 0 3.14184e-183)
(3.52684e-192 0 0 -1.97008e-196 -7.05367e-192 0 0 0 3.52684e-192)
(-3.00368e-198 0 0 -8.65043e-205 6.00736e-198 0 0 0 -3.00368e-198)
(-2.18675e-206 0 0 -3.86533e-213 4.37349e-206 0 0 0 -2.18675e-206)
(-1.7056e-213 0 0 -1.70224e-221 3.4112e-213 0 0 0 -1.7056e-213)
(-4.02541e-219 0 0 -7.89036e-230 8.05082e-219 0 0 0 -4.02541e-219)
(-4.37229e-227 0 0 -3.73741e-238 8.74458e-227 0 0 0 -4.37229e-227)
(-1.5807e-234 0 0 -1.89199e-246 3.1614e-234 0 0 0 -1.5807e-234)
(-7.60429e-240 0 0 -9.49832e-255 1.52086e-239 0 0 0 -7.60429e-240)
)
;

boundaryField
{
    inlet
    {
        type            cyclic;
    }
    outlet
    {
        type            cyclic;
    }
    top
    {
        type            extrapolatedCalculated;
        value           uniform (-1.51941e-239 0 0 -9.5198e-255 3.03881e-239 0 0 0 -1.51941e-239);
    }
    bottom
    {
        type            extrapolatedCalculated;
        value           uniform (0.000110453 0 0 1.53413e-14 -0.000220906 0 0 0 0.000110453);
    }
    frontAndBackPlanes
    {
        type            empty;
    }
}


// ************************************************************************* //
