/*--------------------------------*- C++ -*----------------------------------*\
| =========                 |                                                 |
| \\      /  F ield         | OpenFOAM: The Open Source CFD Toolbox           |
|  \\    /   O peration     | Version:  v2006                                 |
|   \\  /    A nd           | Website:  www.openfoam.com                      |
|    \\/     M anipulation  |                                                 |
\*---------------------------------------------------------------------------*/
FoamFile
{
    version     2.0;
    format      ascii;
    class       volTensorField;
    location    "1620";
    object      Taub;
}
// * * * * * * * * * * * * * * * * * * * * * * * * * * * * * * * * * * * * * //

dimensions      [1 -1 -2 0 0 0 0];


internalField   nonuniform List<tensor> 
120
(
(-7.93868e-09 0 0 7.3081e-19 1.58774e-08 0 0 0 -7.93868e-09)
(-7.99618e-09 0 0 7.3182e-19 1.59924e-08 0 0 0 -7.99618e-09)
(-8.07914e-09 0 0 7.28628e-19 1.61583e-08 0 0 0 -8.07914e-09)
(-8.17073e-09 0 0 7.26397e-19 1.63415e-08 0 0 0 -8.17073e-09)
(-8.26198e-09 0 0 7.3022e-19 1.6524e-08 0 0 0 -8.26198e-09)
(-8.35386e-09 0 0 7.35138e-19 1.67077e-08 0 0 0 -8.35386e-09)
(-8.44673e-09 0 0 7.30604e-19 1.68935e-08 0 0 0 -8.44673e-09)
(-8.54071e-09 0 0 7.26832e-19 1.70814e-08 0 0 0 -8.54071e-09)
(-8.63576e-09 0 0 7.4498e-19 1.72715e-08 0 0 0 -8.63576e-09)
(-8.73187e-09 0 0 7.63952e-19 1.74637e-08 0 0 0 -8.73187e-09)
(-8.82902e-09 0 0 7.73059e-19 1.7658e-08 0 0 0 -8.82902e-09)
(-8.92719e-09 0 0 7.94069e-19 1.78544e-08 0 0 0 -8.92719e-09)
(-9.02637e-09 0 0 8.16054e-19 1.80527e-08 0 0 0 -9.02637e-09)
(-9.12653e-09 0 0 8.28294e-19 1.82531e-08 0 0 0 -9.12653e-09)
(-9.22762e-09 0 0 8.41811e-19 1.84552e-08 0 0 0 -9.22762e-09)
(-9.3296e-09 0 0 8.56305e-19 1.86592e-08 0 0 0 -9.3296e-09)
(-9.43238e-09 0 0 8.71775e-19 1.88648e-08 0 0 0 -9.43238e-09)
(-9.53584e-09 0 0 8.88216e-19 1.90717e-08 0 0 0 -9.53584e-09)
(-9.63988e-09 0 0 9.05626e-19 1.92798e-08 0 0 0 -9.63988e-09)
(-9.74439e-09 0 0 9.23998e-19 1.94888e-08 0 0 0 -9.74439e-09)
(-9.84925e-09 0 0 9.43325e-19 1.96985e-08 0 0 0 -9.84925e-09)
(-9.95433e-09 0 0 9.63584e-19 1.99087e-08 0 0 0 -9.95433e-09)
(-1.00595e-08 0 0 9.81943e-19 2.0119e-08 0 0 0 -1.00595e-08)
(-1.01645e-08 0 0 1.04733e-18 2.03291e-08 0 0 0 -1.01645e-08)
(-1.02693e-08 0 0 1.11361e-18 2.05386e-08 0 0 0 -1.02693e-08)
(-1.03735e-08 0 0 1.13631e-18 2.0747e-08 0 0 0 -1.03735e-08)
(-1.04769e-08 0 0 1.1392e-18 2.09538e-08 0 0 0 -1.04769e-08)
(-1.05794e-08 0 0 1.14294e-18 2.11588e-08 0 0 0 -1.05794e-08)
(-1.06807e-08 0 0 1.17471e-18 2.13613e-08 0 0 0 -1.06807e-08)
(-1.07805e-08 0 0 1.16161e-18 2.15611e-08 0 0 0 -1.07805e-08)
(-1.08788e-08 0 0 1.10103e-18 2.17576e-08 0 0 0 -1.08788e-08)
(-1.09753e-08 0 0 1.089e-18 2.19505e-08 0 0 0 -1.09753e-08)
(-1.10697e-08 0 0 1.12204e-18 2.21393e-08 0 0 0 -1.10697e-08)
(-1.11617e-08 0 0 1.15172e-18 2.23234e-08 0 0 0 -1.11617e-08)
(-1.12512e-08 0 0 1.17714e-18 2.25024e-08 0 0 0 -1.12512e-08)
(-1.13379e-08 -1.09333e-22 0 1.24791e-18 2.26758e-08 0 0 0 -1.13379e-08)
(-1.14218e-08 0 0 1.37412e-18 2.28436e-08 0 0 0 -1.14218e-08)
(-1.15026e-08 0 0 1.39533e-18 2.30053e-08 0 0 0 -1.15026e-08)
(-1.15804e-08 0 0 1.43266e-18 2.31607e-08 0 0 0 -1.15804e-08)
(-1.16549e-08 0 0 1.41775e-18 2.33097e-08 0 0 0 -1.16549e-08)
(-1.17261e-08 0 0 1.40417e-18 2.34521e-08 0 0 0 -1.17261e-08)
(-1.17938e-08 0 0 1.44599e-18 2.35876e-08 0 0 0 -1.17938e-08)
(-1.1858e-08 0 0 1.42551e-18 2.37161e-08 0 0 0 -1.1858e-08)
(-1.19188e-08 0 0 1.4557e-18 2.38376e-08 0 0 0 -1.19188e-08)
(-1.19762e-08 0 0 1.54518e-18 2.39523e-08 0 0 0 -1.19762e-08)
(-1.20302e-08 0 0 1.52792e-18 2.40604e-08 0 0 0 -1.20302e-08)
(-1.2081e-08 0 0 1.46385e-18 2.4162e-08 0 0 0 -1.2081e-08)
(-1.21287e-08 0 0 1.44367e-18 2.42575e-08 0 0 0 -1.21287e-08)
(-1.21735e-08 0 0 1.51792e-18 2.4347e-08 0 0 0 -1.21735e-08)
(-1.22153e-08 0 0 1.64463e-18 2.44307e-08 0 0 0 -1.22153e-08)
(-1.22544e-08 0 0 1.65514e-18 2.45087e-08 0 0 0 -1.22544e-08)
(-1.22908e-08 0 0 1.67788e-18 2.45816e-08 0 0 0 -1.22908e-08)
(-1.2325e-08 0 0 1.69899e-18 2.46499e-08 0 0 0 -1.2325e-08)
(-1.2357e-08 0 0 1.71035e-18 2.4714e-08 0 0 0 -1.2357e-08)
(-1.23872e-08 0 0 1.7759e-18 2.47744e-08 0 0 0 -1.23872e-08)
(-1.24159e-08 0 0 1.83932e-18 2.48317e-08 0 0 0 -1.24159e-08)
(-1.24431e-08 0 0 1.84442e-18 2.48862e-08 0 0 0 -1.24431e-08)
(-1.24691e-08 0 0 1.87241e-18 2.49383e-08 0 0 0 -1.24691e-08)
(-1.24941e-08 2.18172e-22 0 1.78281e-18 2.49881e-08 0 0 0 -1.24941e-08)
(-1.25182e-08 0 0 1.69046e-18 2.50364e-08 0 0 0 -1.25182e-08)
(-1.25418e-08 0 0 1.71039e-18 2.50836e-08 0 0 0 -1.25418e-08)
(-1.25652e-08 0 0 1.71016e-18 2.51303e-08 0 0 0 -1.25652e-08)
(-1.25885e-08 0 0 1.70693e-18 2.51769e-08 0 0 0 -1.25885e-08)
(-1.26119e-08 0 0 1.71998e-18 2.52239e-08 0 0 0 -1.26119e-08)
(-1.26357e-08 0 0 1.59073e-18 2.52713e-08 0 0 0 -1.26357e-08)
(-1.26595e-08 0 0 1.57825e-18 2.5319e-08 0 0 0 -1.26595e-08)
(-1.26834e-08 0 0 1.68171e-18 2.53669e-08 0 0 0 -1.26834e-08)
(-1.27073e-08 0 0 1.6424e-18 2.54146e-08 0 0 0 -1.27073e-08)
(-1.27309e-08 0 0 1.61958e-18 2.54619e-08 0 0 0 -1.27309e-08)
(-1.27538e-08 0 0 1.61518e-18 2.55076e-08 0 0 0 -1.27538e-08)
(-1.27753e-08 0 0 1.48394e-18 2.55506e-08 0 0 0 -1.27753e-08)
(-1.27946e-08 0 0 1.34946e-18 2.55892e-08 0 0 0 -1.27946e-08)
(-1.28105e-08 0 0 1.33521e-18 2.56209e-08 0 0 0 -1.28105e-08)
(-1.28213e-08 0 0 1.29613e-18 2.56426e-08 0 0 0 -1.28213e-08)
(-1.28254e-08 0 0 1.25386e-18 2.56508e-08 0 0 0 -1.28254e-08)
(-1.28209e-08 0 0 1.20862e-18 2.56419e-08 0 0 0 -1.28209e-08)
(-1.2806e-08 0 0 1.16053e-18 2.56119e-08 0 0 0 -1.2806e-08)
(-1.27785e-08 0 0 1.10971e-18 2.55569e-08 0 0 0 -1.27785e-08)
(-1.27361e-08 0 0 1.05633e-18 2.54721e-08 0 0 0 -1.27361e-08)
(-1.26739e-08 0 0 1.00053e-18 2.53478e-08 0 0 0 -1.26739e-08)
(-1.25853e-08 0 0 9.42502e-19 2.51707e-08 0 0 0 -1.25853e-08)
(-1.24862e-08 0 0 8.82418e-19 2.49724e-08 0 0 0 -1.24862e-08)
(-1.24039e-08 0 0 8.20469e-19 2.48078e-08 0 0 0 -1.24039e-08)
(-1.20443e-08 0 0 7.57107e-19 2.40886e-08 0 0 0 -1.20443e-08)
(-1.06579e-08 0 0 7.46673e-19 2.13159e-08 0 0 0 -1.06579e-08)
(-1.09459e-08 0 0 4.68305e-19 2.18919e-08 0 0 0 -1.09459e-08)
(-2.3188e-08 0 0 1.89212e-19 4.6376e-08 0 0 0 -2.3188e-08)
(-1.96016e-08 0 0 1.75802e-19 3.92031e-08 0 0 0 -1.96016e-08)
(3.30992e-07 0 0 1.07588e-19 -6.61985e-07 0 0 0 3.30992e-07)
(-7.58947e-07 0 0 6.33793e-20 1.51789e-06 0 0 0 -7.58947e-07)
(3.5554e-05 0 0 6.18494e-19 -7.1108e-05 0 0 0 3.5554e-05)
(-3.70342e-05 0 0 7.7918e-19 7.40684e-05 0 0 0 -3.70342e-05)
(-2.1299e-05 0 0 9.02492e-19 4.2598e-05 0 0 0 -2.1299e-05)
(3.9653e-05 0 0 8.41862e-19 -7.93061e-05 0 0 0 3.9653e-05)
(3.6647e-06 0 0 7.49132e-19 -7.3294e-06 0 0 0 3.6647e-06)
(-2.98449e-06 0 0 6.30338e-19 5.96898e-06 0 0 0 -2.98449e-06)
(-4.10654e-07 0 0 4.87535e-19 8.21309e-07 0 0 0 -4.10654e-07)
(2.17711e-07 0 0 3.23261e-19 -4.35422e-07 0 0 0 2.17711e-07)
(4.17276e-08 0 0 1.39855e-19 -8.34551e-08 0 0 0 4.17276e-08)
(-1.55003e-08 0 0 -6.05833e-20 3.10006e-08 0 0 0 -1.55003e-08)
(-3.96482e-09 0 0 -2.75952e-19 7.92964e-09 0 0 0 -3.96482e-09)
(1.04529e-09 0 0 -5.03982e-19 -2.09058e-09 0 0 0 1.04529e-09)
(3.63535e-10 0 0 -7.42212e-19 -7.27069e-10 0 0 0 3.63535e-10)
(-6.79306e-11 0 0 -9.88028e-19 1.35861e-10 0 0 0 -6.79306e-11)
(-3.14451e-11 0 0 -1.23871e-18 6.28902e-11 0 0 0 -3.14451e-11)
(3.84722e-12 0 0 -1.49145e-18 -7.69444e-12 0 0 0 3.84722e-12)
(2.24093e-12 0 0 -1.74342e-18 -4.48186e-12 0 0 0 2.24093e-12)
(-3.75804e-13 0 0 -1.99178e-18 7.51607e-13 0 0 0 -3.75804e-13)
(-1.21263e-13 0 0 -2.23375e-18 2.42525e-13 0 0 0 -1.21263e-13)
(2.05876e-13 0 0 -2.46659e-18 -4.11752e-13 0 0 0 2.05876e-13)
(2.56956e-13 0 0 -2.68766e-18 -5.13912e-13 0 0 0 2.56956e-13)
(2.13435e-13 0 0 -2.89447e-18 -4.2687e-13 0 0 0 2.13435e-13)
(8.74473e-14 0 0 -3.08468e-18 -1.74895e-13 0 0 0 8.74473e-14)
(1.17523e-14 0 0 -3.25613e-18 -2.35046e-14 0 0 0 1.17523e-14)
(4.47733e-14 0 0 -3.40687e-18 -8.95466e-14 0 0 0 4.47733e-14)
(1.57889e-13 0 0 -3.53521e-18 -3.15777e-13 0 0 0 1.57889e-13)
(2.27307e-13 0 0 -3.63968e-18 -4.54614e-13 0 0 0 2.27307e-13)
(-1.53067e-13 0 0 -3.71909e-18 3.06135e-13 0 0 0 -1.53067e-13)
(-2.15496e-13 0 0 -3.77255e-18 4.30992e-13 0 0 0 -2.15496e-13)
(6.71461e-12 0 0 -3.8014e-18 -1.34292e-11 0 0 0 6.71461e-12)
)
;

boundaryField
{
    inlet
    {
        type            cyclic;
    }
    outlet
    {
        type            cyclic;
    }
    top
    {
        type            extrapolatedCalculated;
        value           uniform (1.33249e-11 0 0 -3.8101e-18 -2.66499e-11 0 0 0 1.33249e-11);
    }
    bottom
    {
        type            extrapolatedCalculated;
        value           uniform (-7.9179e-09 0 0 7.305e-19 1.58358e-08 0 0 0 -7.9179e-09);
    }
    frontAndBackPlanes
    {
        type            empty;
    }
}


// ************************************************************************* //
