/*--------------------------------*- C++ -*----------------------------------*\
| =========                 |                                                 |
| \\      /  F ield         | OpenFOAM: The Open Source CFD Toolbox           |
|  \\    /   O peration     | Version:  v2006                                 |
|   \\  /    A nd           | Website:  www.openfoam.com                      |
|    \\/     M anipulation  |                                                 |
\*---------------------------------------------------------------------------*/
FoamFile
{
    version     2.0;
    format      ascii;
    class       volVectorField;
    location    "1620";
    object      Ua;
}
// * * * * * * * * * * * * * * * * * * * * * * * * * * * * * * * * * * * * * //

dimensions      [0 1 -1 0 0 0 0];


internalField   nonuniform List<vector> 
120
(
(3.65268e-21 -7.88951e-11 0)
(1.09642e-20 -2.37532e-10 0)
(1.82902e-20 -3.98324e-10 0)
(2.55389e-20 -5.61012e-10 0)
(3.28212e-20 -7.25557e-10 0)
(4.01468e-20 -8.92001e-10 0)
(4.75253e-20 -1.06038e-09 0)
(5.47638e-20 -1.2307e-09 0)
(6.20746e-20 -1.40301e-09 0)
(6.967e-20 -1.57731e-09 0)
(7.7357e-20 -1.75364e-09 0)
(8.51455e-20 -1.93201e-09 0)
(9.32478e-20 -2.11247e-09 0)
(1.01471e-19 -2.29501e-09 0)
(1.09825e-19 -2.47968e-09 0)
(1.1832e-19 -2.66648e-09 0)
(1.26965e-19 -2.85545e-09 0)
(1.35771e-19 -3.0466e-09 0)
(1.44746e-19 -3.23995e-09 0)
(1.53901e-19 -3.4355e-09 0)
(1.63245e-19 -3.63329e-09 0)
(1.72788e-19 -3.83331e-09 0)
(1.82539e-19 -4.03557e-09 0)
(1.92508e-19 -4.24008e-09 0)
(2.03513e-19 -4.44684e-09 0)
(2.14753e-19 -4.65585e-09 0)
(2.26238e-19 -4.86709e-09 0)
(2.37571e-19 -5.08056e-09 0)
(2.49164e-19 -5.29624e-09 0)
(2.61027e-19 -5.51411e-09 0)
(2.72357e-19 -5.73415e-09 0)
(2.83161e-19 -5.95632e-09 0)
(2.94255e-19 -6.1806e-09 0)
(3.05645e-19 -6.40694e-09 0)
(3.17335e-19 -6.63531e-09 0)
(3.29331e-19 -6.86566e-09 0)
(3.42444e-19 -7.09794e-09 0)
(3.56678e-19 -7.33209e-09 0)
(3.70419e-19 -7.56807e-09 0)
(3.85284e-19 -7.80581e-09 0)
(3.98849e-19 -8.04526e-09 0)
(4.13538e-19 -8.28635e-09 0)
(4.27734e-19 -8.52904e-09 0)
(4.4224e-19 -8.77325e-09 0)
(4.57053e-19 -9.01893e-09 0)
(4.72974e-19 -9.26602e-09 0)
(4.87576e-19 -9.51446e-09 0)
(5.02463e-19 -9.76421e-09 0)
(5.16819e-19 -1.00152e-08 0)
(5.33055e-19 -1.02674e-08 0)
(5.49544e-19 -1.05208e-08 0)
(5.66271e-19 -1.07753e-08 0)
(5.83221e-19 -1.10308e-08 0)
(6.00376e-19 -1.12875e-08 0)
(6.17718e-19 -1.15451e-08 0)
(6.36032e-19 -1.18038e-08 0)
(6.54491e-19 -1.20636e-08 0)
(6.7307e-19 -1.23243e-08 0)
(6.91747e-19 -1.2586e-08 0)
(7.08883e-19 -1.28488e-08 0)
(7.2606e-19 -1.31126e-08 0)
(7.43251e-19 -1.33774e-08 0)
(7.60427e-19 -1.36434e-08 0)
(7.77557e-19 -1.39105e-08 0)
(7.94608e-19 -1.41787e-08 0)
(8.09941e-19 -1.44482e-08 0)
(8.26739e-19 -1.4719e-08 0)
(8.43362e-19 -1.49911e-08 0)
(8.59775e-19 -1.52647e-08 0)
(8.75944e-19 -1.55397e-08 0)
(8.91836e-19 -1.58163e-08 0)
(9.05811e-19 -1.60945e-08 0)
(9.19443e-19 -1.63744e-08 0)
(9.32698e-19 -1.66559e-08 0)
(9.45547e-19 -1.69393e-08 0)
(9.57958e-19 -1.72244e-08 0)
(9.69902e-19 -1.75113e-08 0)
(9.8135e-19 -1.78e-08 0)
(9.92276e-19 -1.80905e-08 0)
(1.00266e-18 -1.8383e-08 0)
(1.01246e-18 -1.86776e-08 0)
(1.02168e-18 -1.89746e-08 0)
(1.03028e-18 -1.92729e-08 0)
(1.03825e-18 -1.95705e-08 0)
(1.04558e-18 -1.98829e-08 0)
(1.05224e-18 -2.02489e-08 0)
(1.05506e-18 -2.04993e-08 0)
(1.05719e-18 -2.00401e-08 0)
(1.05863e-18 -2.06107e-08 0)
(1.05937e-18 -3.06942e-08 0)
(1.05966e-18 -4.68959e-08 0)
(1.07505e-18 -0.000102134 0)
(1.09813e-18 -0.000167932 0)
(1.1202e-18 -0.00018942 0)
(1.14027e-18 -0.000228567 0)
(1.15768e-18 -0.000228601 0)
(1.17179e-18 -0.000228512 0)
(1.18206e-18 -0.00022854 0)
(1.18796e-18 -0.000228548 0)
(1.18905e-18 -0.000228547 0)
(1.18493e-18 -0.000228546 0)
(1.17525e-18 -0.000228546 0)
(1.15973e-18 -0.000228546 0)
(1.13813e-18 -0.000228546 0)
(1.11032e-18 -0.000228546 0)
(1.07619e-18 -0.000228546 0)
(1.03573e-18 -0.000228546 0)
(9.89006e-19 -0.000228546 0)
(9.36134e-19 -0.000228546 0)
(8.77303e-19 -0.000228546 0)
(8.12785e-19 -0.000228546 0)
(7.42898e-19 -0.000228546 0)
(6.68046e-19 -0.000228546 0)
(5.88647e-19 -0.000228546 0)
(5.05214e-19 -0.000228546 0)
(4.18281e-19 -0.000228546 0)
(3.2843e-19 -0.000228546 0)
(2.36274e-19 -0.000228518 0)
(1.42451e-19 -0.000228481 0)
(4.76271e-20 -0.000228045 0)
)
;

boundaryField
{
    inlet
    {
        type            cyclic;
    }
    outlet
    {
        type            cyclic;
    }
    top
    {
        type            fixedValue;
        value           uniform (0 0 0);
    }
    bottom
    {
        type            fixedValue;
        value           uniform (0 0 0);
    }
    frontAndBackPlanes
    {
        type            empty;
    }
}


// ************************************************************************* //
