/*--------------------------------*- C++ -*----------------------------------*\
| =========                 |                                                 |
| \\      /  F ield         | OpenFOAM: The Open Source CFD Toolbox           |
|  \\    /   O peration     | Version:  v2006                                 |
|   \\  /    A nd           | Website:  www.openfoam.com                      |
|    \\/     M anipulation  |                                                 |
\*---------------------------------------------------------------------------*/
FoamFile
{
    version     2.0;
    format      ascii;
    class       volVectorField;
    location    "1620";
    object      Ub;
}
// * * * * * * * * * * * * * * * * * * * * * * * * * * * * * * * * * * * * * //

dimensions      [0 1 -1 0 0 0 0];


internalField   nonuniform List<vector> 
120
(
(3.65268e-21 1.18774e-10 0)
(1.09642e-20 3.5757e-10 0)
(1.82905e-20 5.98591e-10 0)
(2.55389e-20 8.42388e-10 0)
(3.28212e-20 1.08893e-09 0)
(4.01468e-20 1.33823e-09 0)
(4.75282e-20 1.5903e-09 0)
(5.47638e-20 1.8452e-09 0)
(6.20705e-20 2.10295e-09 0)
(6.96699e-20 2.36357e-09 0)
(7.7357e-20 2.62711e-09 0)
(8.51395e-20 2.8936e-09 0)
(9.32478e-20 3.16306e-09 0)
(1.01471e-19 3.43553e-09 0)
(1.09825e-19 3.71104e-09 0)
(1.1832e-19 3.98961e-09 0)
(1.26965e-19 4.27127e-09 0)
(1.35771e-19 4.55604e-09 0)
(1.44746e-19 4.84395e-09 0)
(1.53901e-19 5.135e-09 0)
(1.63245e-19 5.42922e-09 0)
(1.72788e-19 5.72661e-09 0)
(1.82539e-19 6.02717e-09 0)
(1.92451e-19 6.33091e-09 0)
(2.03513e-19 6.63782e-09 0)
(2.14753e-19 6.9479e-09 0)
(2.26271e-19 7.26111e-09 0)
(2.37571e-19 7.57744e-09 0)
(2.49165e-19 7.89685e-09 0)
(2.61103e-19 8.21931e-09 0)
(2.72436e-19 8.54477e-09 0)
(2.83162e-19 8.87318e-09 0)
(2.94255e-19 9.20448e-09 0)
(3.05645e-19 9.53861e-09 0)
(3.17335e-19 9.87549e-09 0)
(3.29236e-19 1.02151e-08 0)
(3.42346e-19 1.05572e-08 0)
(3.56778e-19 1.09019e-08 0)
(3.70315e-19 1.12489e-08 0)
(3.85499e-19 1.15983e-08 0)
(3.98739e-19 1.19499e-08 0)
(4.13653e-19 1.23036e-08 0)
(4.27734e-19 1.26594e-08 0)
(4.42239e-19 1.3017e-08 0)
(4.56929e-19 1.33765e-08 0)
(4.73231e-19 1.37377e-08 0)
(4.87577e-19 1.41004e-08 0)
(5.02597e-19 1.44647e-08 0)
(5.16541e-19 1.48304e-08 0)
(5.33054e-19 1.51975e-08 0)
(5.49544e-19 1.55658e-08 0)
(5.66271e-19 1.59353e-08 0)
(5.83221e-19 1.63059e-08 0)
(6.00375e-19 1.66775e-08 0)
(6.17557e-19 1.70501e-08 0)
(6.36031e-19 1.74236e-08 0)
(6.54491e-19 1.7798e-08 0)
(6.73072e-19 1.81733e-08 0)
(6.92098e-19 1.85494e-08 0)
(7.08884e-19 1.89262e-08 0)
(7.2606e-19 1.93038e-08 0)
(7.43251e-19 1.96822e-08 0)
(7.60427e-19 2.00614e-08 0)
(7.77558e-19 2.04413e-08 0)
(7.95002e-19 2.08219e-08 0)
(8.0954e-19 2.12034e-08 0)
(8.26738e-19 2.15856e-08 0)
(8.43362e-19 2.19686e-08 0)
(8.59775e-19 2.23524e-08 0)
(8.75946e-19 2.2737e-08 0)
(8.92277e-19 2.31224e-08 0)
(9.05813e-19 2.35084e-08 0)
(9.19443e-19 2.38951e-08 0)
(9.32698e-19 2.42823e-08 0)
(9.45547e-19 2.46698e-08 0)
(9.57958e-19 2.50574e-08 0)
(9.69902e-19 2.54448e-08 0)
(9.8135e-19 2.58317e-08 0)
(9.92276e-19 2.62177e-08 0)
(1.00265e-18 2.66024e-08 0)
(1.01246e-18 2.69849e-08 0)
(1.02168e-18 2.73644e-08 0)
(1.03028e-18 2.77413e-08 0)
(1.03825e-18 2.81162e-08 0)
(1.04558e-18 2.84716e-08 0)
(1.05335e-18 2.87628e-08 0)
(1.05506e-18 2.91362e-08 0)
(1.05719e-18 3.0172e-08 0)
(1.05863e-18 3.03287e-08 0)
(1.05937e-18 1.00041e-08 0)
(1.05992e-18 7.67084e-08 0)
(1.07509e-18 -2.70081e-06 0)
(1.09817e-18 5.53145e-06 0)
(1.12021e-18 4.93884e-07 0)
(1.14027e-18 -4.17246e-07 0)
(1.15768e-18 -5.589e-08 0)
(1.17179e-18 3.04831e-08 0)
(1.18206e-18 5.71582e-09 0)
(1.18796e-18 -2.17762e-09 0)
(1.18905e-18 -5.441e-10 0)
(1.18493e-18 1.47716e-10 0)
(1.17525e-18 5.06975e-11 0)
(1.15973e-18 -9.09713e-12 0)
(1.13813e-18 -3.83946e-12 0)
(1.11032e-18 1.09374e-12 0)
(1.07619e-18 8.77893e-13 0)
(1.03574e-18 5.16583e-13 0)
(9.89009e-19 5.41711e-13 0)
(9.36135e-19 5.72961e-13 0)
(8.77308e-19 5.59903e-13 0)
(8.1279e-19 5.42076e-13 0)
(7.42908e-19 5.21355e-13 0)
(6.68049e-19 5.10056e-13 0)
(5.88655e-19 5.08236e-13 0)
(5.05222e-19 5.08293e-13 0)
(4.1829e-19 5.01519e-13 0)
(3.28439e-19 4.84607e-13 0)
(2.36283e-19 4.67419e-13 0)
(1.42461e-19 5.0757e-13 0)
(4.76323e-20 4.99747e-13 0)
)
;

boundaryField
{
    inlet
    {
        type            cyclic;
    }
    outlet
    {
        type            cyclic;
    }
    top
    {
        type            fixedValue;
        value           uniform (0 0 0);
    }
    bottom
    {
        type            fixedValue;
        value           uniform (0 0 0);
    }
    frontAndBackPlanes
    {
        type            empty;
    }
}


// ************************************************************************* //
