/*--------------------------------*- C++ -*----------------------------------*\
| =========                 |                                                 |
| \\      /  F ield         | OpenFOAM: The Open Source CFD Toolbox           |
|  \\    /   O peration     | Version:  v2006                                 |
|   \\  /    A nd           | Website:  www.openfoam.com                      |
|    \\/     M anipulation  |                                                 |
\*---------------------------------------------------------------------------*/
FoamFile
{
    version     2.0;
    format      ascii;
    class       volScalarField;
    location    "1220";
    object      p;
}
// * * * * * * * * * * * * * * * * * * * * * * * * * * * * * * * * * * * * * //

dimensions      [1 -1 -2 0 0 0 0];


internalField   nonuniform List<scalar> 
120
(
2.53108
-2.12906
-6.7896
-11.4505
-16.1119
-20.7736
-25.4358
-30.0984
-34.7614
-39.4249
-44.0887
-48.7531
-53.4179
-58.0831
-62.7488
-67.415
-72.0816
-76.7488
-81.4164
-86.0845
-90.7531
-95.4223
-100.092
-104.762
-109.433
-114.104
-118.776
-123.448
-128.121
-132.795
-137.469
-142.144
-146.819
-151.495
-156.172
-160.849
-165.527
-170.206
-174.885
-179.565
-184.246
-188.928
-193.61
-198.293
-202.977
-207.662
-212.347
-217.034
-221.721
-226.409
-231.098
-235.788
-240.479
-245.171
-249.864
-254.558
-259.254
-263.95
-268.648
-273.346
-278.046
-282.748
-287.45
-292.155
-296.86
-301.568
-306.277
-310.987
-315.7
-320.415
-325.132
-329.851
-334.572
-339.297
-344.024
-348.755
-353.489
-358.227
-362.969
-367.717
-372.478
-377.26
-382.04
-386.949
-391.861
-396.77
-401.676
-406.582
-411.487
-416.393
-421.3
-426.237
-431.011
-435.688
-440.347
-445.006
-449.666
-454.326
-458.985
-463.645
-468.305
-472.965
-477.624
-482.284
-486.944
-491.604
-496.263
-500.923
-505.583
-510.243
-514.902
-519.562
-524.222
-528.882
-533.541
-538.201
-542.861
-547.521
-552.18
-556.84
)
;

boundaryField
{
    inlet
    {
        type            cyclic;
    }
    outlet
    {
        type            cyclic;
    }
    top
    {
        type            calculated;
        value           uniform -559.17;
    }
    bottom
    {
        type            calculated;
        value           uniform 4.86096;
    }
    frontAndBackPlanes
    {
        type            empty;
    }
}


// ************************************************************************* //
