/*--------------------------------*- C++ -*----------------------------------*\
| =========                 |                                                 |
| \\      /  F ield         | OpenFOAM: The Open Source CFD Toolbox           |
|  \\    /   O peration     | Version:  v2006                                 |
|   \\  /    A nd           | Website:  www.openfoam.com                      |
|    \\/     M anipulation  |                                                 |
\*---------------------------------------------------------------------------*/
FoamFile
{
    version     2.0;
    format      ascii;
    class       volScalarField;
    location    "1220";
    object      p_p_total;
}
// * * * * * * * * * * * * * * * * * * * * * * * * * * * * * * * * * * * * * //

dimensions      [1 -1 -2 0 0 0 0];


internalField   nonuniform List<scalar> 
120
(
21.5513
21.2577
20.9644
20.6716
20.3792
20.0873
19.7957
19.5047
19.214
18.9238
18.6341
18.3449
18.0561
17.7678
17.4799
17.1926
16.9058
16.6194
16.3336
16.0483
15.7635
15.4793
15.1956
14.9124
14.6298
14.3478
14.0664
13.7855
13.5053
13.2256
12.9466
12.6682
12.3904
12.1133
11.8368
11.5611
11.286
11.0116
10.7379
10.4649
10.1927
9.92123
9.65052
9.3806
9.11147
8.84317
8.5757
8.30909
8.04336
7.77853
7.51463
7.25169
6.98972
6.72874
6.46879
6.20988
5.95203
5.69525
5.43958
5.18503
4.93163
4.67941
4.42841
4.17868
3.93027
3.68325
3.43769
3.19365
2.95116
2.71023
2.47077
2.23259
1.99534
1.75827
1.51996
1.27909
1.03895
0.80658
0.59722
0.421503
0.293265
0.152307
0
0
0
0
0
0
0
0
0
0
0
0
0
0
0
0
0
0
0
0
0
0
0
0
0
0
0
0
0
0
0
0
0
0
0
0
0
0
)
;

boundaryField
{
    inlet
    {
        type            cyclic;
    }
    outlet
    {
        type            cyclic;
    }
    top
    {
        type            calculated;
        value           uniform 0;
    }
    bottom
    {
        type            calculated;
        value           uniform 21.5513;
    }
    frontAndBackPlanes
    {
        type            empty;
    }
}


// ************************************************************************* //
