/*--------------------------------*- C++ -*----------------------------------*\
| =========                 |                                                 |
| \\      /  F ield         | OpenFOAM: The Open Source CFD Toolbox           |
|  \\    /   O peration     | Version:  v2006                                 |
|   \\  /    A nd           | Website:  www.openfoam.com                      |
|    \\/     M anipulation  |                                                 |
\*---------------------------------------------------------------------------*/
FoamFile
{
    version     2.0;
    format      ascii;
    class       surfaceScalarField;
    location    "1220";
    object      phia;
}
// * * * * * * * * * * * * * * * * * * * * * * * * * * * * * * * * * * * * * //

dimensions      [0 3 -1 0 0 0 0];
oriented        oriented;


internalField   nonuniform List<scalar> 
119
(
-9.88325e-16
-1.9905e-15
-3.00688e-15
-4.03784e-15
-5.08376e-15
-6.14503e-15
-7.22207e-15
-8.31528e-15
-9.42511e-15
-1.0552e-14
-1.16964e-14
-1.28588e-14
-1.40397e-14
-1.52397e-14
-1.64591e-14
-1.76987e-14
-1.8959e-14
-2.02405e-14
-2.15441e-14
-2.28703e-14
-2.42199e-14
-2.55936e-14
-2.69923e-14
-2.84168e-14
-2.98681e-14
-3.13471e-14
-3.28549e-14
-3.43924e-14
-3.59609e-14
-3.75615e-14
-3.91955e-14
-4.08641e-14
-4.25687e-14
-4.43108e-14
-4.60917e-14
-4.7913e-14
-4.97764e-14
-5.16836e-14
-5.36365e-14
-5.56369e-14
-5.76872e-14
-5.97896e-14
-6.19468e-14
-6.41617e-14
-6.64375e-14
-6.87776e-14
-7.1186e-14
-7.36668e-14
-7.62247e-14
-7.88645e-14
-8.15914e-14
-8.44109e-14
-8.73288e-14
-9.03511e-14
-9.34839e-14
-9.67341e-14
-1.00109e-13
-1.03617e-13
-1.07267e-13
-1.11073e-13
-1.15048e-13
-1.19211e-13
-1.23587e-13
-1.28204e-13
-1.33099e-13
-1.38315e-13
-1.439e-13
-1.4991e-13
-1.56402e-13
-1.63436e-13
-1.71072e-13
-1.79375e-13
-1.8843e-13
-1.98377e-13
-2.09489e-13
-2.22279e-13
-2.36665e-13
-2.52576e-13
-2.75117e-13
-3.1947e-13
-3.94886e-13
-4.99622e-13
-1.50313e-12
-1.9644e-12
-2.15152e-12
-2.23891e-12
-2.28398e-12
-2.30274e-12
-2.30949e-12
-2.44232e-12
-1.69884e-12
-1.5396e-11
-5.90131e-11
-8.57131e-11
-8.2345e-11
-8.21539e-11
-8.22712e-11
-8.22743e-11
-8.22769e-11
-8.22768e-11
-8.22766e-11
-8.22766e-11
-8.22766e-11
-8.22766e-11
-8.22766e-11
-8.22766e-11
-8.22766e-11
-8.22766e-11
-8.22766e-11
-8.22766e-11
-8.22766e-11
-8.22766e-11
-8.22766e-11
-8.22766e-11
-8.22766e-11
-8.22766e-11
-8.22766e-11
-8.22565e-11
-8.21697e-11
)
;

boundaryField
{
    inlet
    {
        type            cyclic;
        value           nonuniform List<scalar> 
120
(
-6.51382e-28
-1.95547e-27
-3.26264e-27
-4.54459e-27
-5.83376e-27
-7.13224e-27
-8.44216e-27
-9.70493e-27
-1.09834e-26
-1.23406e-26
-1.3718e-26
-1.51179e-26
-1.66033e-26
-1.8116e-26
-1.96583e-26
-2.12329e-26
-2.28421e-26
-2.44887e-26
-2.61754e-26
-2.79047e-26
-2.96797e-26
-3.1503e-26
-3.33776e-26
-3.53064e-26
-3.75351e-26
-3.98239e-26
-4.21761e-26
-4.44733e-26
-4.684e-26
-4.92792e-26
-5.15515e-26
-5.36601e-26
-5.58503e-26
-5.81252e-26
-6.04876e-26
-6.29376e-26
-6.57232e-26
-6.88495e-26
-7.18318e-26
-7.51567e-26
-7.80996e-26
-8.13894e-26
-8.45433e-26
-8.78053e-26
-9.11769e-26
-9.49016e-26
-9.82535e-26
-1.01718e-25
-1.05055e-25
-1.08991e-25
-1.13042e-25
-1.17209e-25
-1.21494e-25
-1.25897e-25
-1.3042e-25
-1.35307e-25
-1.40319e-25
-1.45457e-25
-1.50733e-25
-1.55658e-25
-1.60719e-25
-1.65928e-25
-1.71295e-25
-1.76832e-25
-1.82554e-25
-1.87992e-25
-1.94145e-25
-2.00555e-25
-2.07252e-25
-2.14267e-25
-2.21625e-25
-2.28837e-25
-2.36371e-25
-2.44164e-25
-2.52116e-25
-2.60143e-25
-2.68299e-25
-2.77034e-25
-2.88898e-25
-3.16369e-25
-4.1509e-25
-7.87887e-25
-3.3045e-24
-3.81246e-23
-4.78736e-23
-5.68432e-23
-4.77994e-23
-3.98663e-23
-3.29933e-23
-2.72193e-23
-2.26106e-23
-1.95551e-23
-1.91027e-23
-1.81897e-23
-1.71725e-23
-1.61897e-23
-1.52437e-23
-1.43329e-23
-1.34545e-23
-1.26079e-23
-1.17918e-23
-1.10057e-23
-1.02483e-23
-9.51883e-24
-8.81545e-24
-8.13685e-24
-7.4812e-24
-6.8467e-24
-6.23159e-24
-5.63396e-24
-5.05211e-24
-4.48426e-24
-3.9287e-24
-3.38392e-24
-2.84818e-24
-2.3201e-24
-1.79818e-24
-1.28101e-24
-7.67203e-25
-2.55438e-25
)
;
    }
    outlet
    {
        type            cyclic;
        value           nonuniform List<scalar> 
120
(
6.51382e-28
1.95547e-27
3.26264e-27
4.54459e-27
5.83376e-27
7.13224e-27
8.44216e-27
9.70493e-27
1.09834e-26
1.23406e-26
1.3718e-26
1.51179e-26
1.66033e-26
1.8116e-26
1.96583e-26
2.12329e-26
2.28421e-26
2.44887e-26
2.61754e-26
2.79047e-26
2.96797e-26
3.1503e-26
3.33776e-26
3.53064e-26
3.75351e-26
3.98239e-26
4.21761e-26
4.44733e-26
4.684e-26
4.92792e-26
5.15515e-26
5.36601e-26
5.58503e-26
5.81252e-26
6.04876e-26
6.29376e-26
6.57232e-26
6.88495e-26
7.18318e-26
7.51567e-26
7.80996e-26
8.13894e-26
8.45433e-26
8.78053e-26
9.11769e-26
9.49016e-26
9.82535e-26
1.01718e-25
1.05055e-25
1.08991e-25
1.13042e-25
1.17209e-25
1.21494e-25
1.25897e-25
1.3042e-25
1.35307e-25
1.40319e-25
1.45457e-25
1.50733e-25
1.55658e-25
1.60719e-25
1.65928e-25
1.71295e-25
1.76832e-25
1.82554e-25
1.87992e-25
1.94145e-25
2.00555e-25
2.07252e-25
2.14267e-25
2.21625e-25
2.28837e-25
2.36371e-25
2.44164e-25
2.52116e-25
2.60143e-25
2.68299e-25
2.77034e-25
2.88898e-25
3.16369e-25
4.1509e-25
7.87887e-25
3.3045e-24
3.81246e-23
4.78736e-23
5.68432e-23
4.77994e-23
3.98663e-23
3.29933e-23
2.72193e-23
2.26106e-23
1.95551e-23
1.91027e-23
1.81897e-23
1.71725e-23
1.61897e-23
1.52437e-23
1.43329e-23
1.34545e-23
1.26079e-23
1.17918e-23
1.10057e-23
1.02483e-23
9.51883e-24
8.81545e-24
8.13685e-24
7.4812e-24
6.8467e-24
6.23159e-24
5.63396e-24
5.05211e-24
4.48426e-24
3.9287e-24
3.38392e-24
2.84818e-24
2.3201e-24
1.79818e-24
1.28101e-24
7.67203e-25
2.55438e-25
)
;
    }
    top
    {
        type            fixedValue;
        value           uniform 0;
    }
    bottom
    {
        type            fixedValue;
        value           uniform 0;
    }
    frontAndBackPlanes
    {
        type            empty;
        value           nonuniform List<scalar> 0();
    }
}


// ************************************************************************* //
