/*--------------------------------*- C++ -*----------------------------------*\
| =========                 |                                                 |
| \\      /  F ield         | OpenFOAM: The Open Source CFD Toolbox           |
|  \\    /   O peration     | Version:  v2006                                 |
|   \\  /    A nd           | Website:  www.openfoam.com                      |
|    \\/     M anipulation  |                                                 |
\*---------------------------------------------------------------------------*/
FoamFile
{
    version     2.0;
    format      ascii;
    class       surfaceScalarField;
    location    "1220";
    object      phib;
}
// * * * * * * * * * * * * * * * * * * * * * * * * * * * * * * * * * * * * * //

dimensions      [0 3 -1 0 0 0 0];
oriented        oriented;


internalField   nonuniform List<scalar> 
119
(
1.47784e-15
2.97568e-15
4.49404e-15
6.03342e-15
7.59438e-15
9.17748e-15
1.07833e-14
1.24124e-14
1.40654e-14
1.57429e-14
1.74457e-14
1.91743e-14
2.09294e-14
2.27118e-14
2.45223e-14
2.63616e-14
2.82305e-14
3.01299e-14
3.20607e-14
3.40239e-14
3.60205e-14
3.80516e-14
4.01183e-14
4.22218e-14
4.43634e-14
4.65445e-14
4.87665e-14
5.10308e-14
5.33392e-14
5.56931e-14
5.80944e-14
6.05448e-14
6.30462e-14
6.56006e-14
6.821e-14
7.08765e-14
7.36023e-14
7.63899e-14
7.92418e-14
8.21607e-14
8.51497e-14
8.82119e-14
9.1351e-14
9.4571e-14
9.78762e-14
1.01271e-13
1.04762e-13
1.08354e-13
1.12054e-13
1.15868e-13
1.19803e-13
1.23867e-13
1.28068e-13
1.32414e-13
1.36913e-13
1.41574e-13
1.46407e-13
1.51423e-13
1.56635e-13
1.62059e-13
1.67715e-13
1.7363e-13
1.79834e-13
1.86369e-13
1.93284e-13
2.00638e-13
2.08498e-13
2.16936e-13
2.2603e-13
2.35858e-13
2.46495e-13
2.58021e-13
2.70538e-13
2.84216e-13
2.99405e-13
3.16773e-13
3.36128e-13
3.573e-13
3.87441e-13
4.47784e-13
5.50027e-13
6.50817e-13
1.73845e-12
2.09638e-12
2.2173e-12
2.27172e-12
2.2996e-12
2.31162e-12
2.31167e-12
2.376e-12
1.86614e-12
7.97664e-12
3.87203e-12
3.71505e-14
1.90996e-15
5.32765e-18
4.77294e-18
4.97063e-18
4.95475e-18
5.10123e-18
4.98031e-18
4.99386e-18
4.74715e-18
4.72444e-18
4.5803e-18
4.66222e-18
4.52343e-18
4.50875e-18
4.2768e-18
4.15547e-18
3.84278e-18
3.70181e-18
3.49066e-18
3.45448e-18
3.29249e-18
3.22969e-18
3.04645e-18
2.95623e-18
2.75095e-18
)
;

boundaryField
{
    inlet
    {
        type            cyclic;
        value           nonuniform List<scalar> 
120
(
-6.51382e-28
-1.95549e-27
-3.26623e-27
-4.54461e-27
-5.83376e-27
-7.13233e-27
-8.46179e-27
-9.7049e-27
-1.09573e-26
-1.23405e-26
-1.37179e-26
-1.50816e-26
-1.66032e-26
-1.8116e-26
-1.96583e-26
-2.12329e-26
-2.28421e-26
-2.44887e-26
-2.61754e-26
-2.79047e-26
-2.96797e-26
-3.1503e-26
-3.33762e-26
-3.49785e-26
-3.75336e-26
-3.98247e-26
-4.2366e-26
-4.44742e-26
-4.68419e-26
-4.97162e-26
-5.20075e-26
-5.36621e-26
-5.58503e-26
-5.81252e-26
-6.04851e-26
-6.23794e-26
-6.51461e-26
-6.94437e-26
-7.12179e-26
-7.64418e-26
-7.74392e-26
-8.208e-26
-8.45464e-26
-8.78019e-26
-9.04135e-26
-9.64932e-26
-9.82644e-26
-1.02564e-25
-1.03292e-25
-1.08983e-25
-1.13042e-25
-1.17209e-25
-1.21494e-25
-1.25892e-25
-1.29339e-25
-1.35303e-25
-1.40319e-25
-1.45468e-25
-1.53209e-25
-1.55669e-25
-1.60719e-25
-1.65928e-25
-1.71295e-25
-1.76846e-25
-1.85598e-25
-1.84831e-25
-1.94131e-25
-2.00555e-25
-2.07252e-25
-2.14285e-25
-2.25523e-25
-2.28855e-25
-2.36371e-25
-2.44164e-25
-2.52116e-25
-2.60143e-25
-2.68299e-25
-2.77039e-25
-2.88942e-25
-3.1665e-25
-4.16612e-25
-8.04225e-25
-3.56818e-24
-3.81237e-23
-4.78735e-23
-5.67575e-23
-4.77995e-23
-3.98664e-23
-3.29934e-23
-2.72194e-23
-2.26107e-23
-1.95552e-23
-1.91028e-23
-1.81883e-23
-1.717e-23
-1.61889e-23
-1.52439e-23
-1.4333e-23
-1.34547e-23
-1.2608e-23
-1.17919e-23
-1.10057e-23
-1.02485e-23
-9.51888e-24
-8.81557e-24
-8.13693e-24
-7.48127e-24
-6.84677e-24
-6.23164e-24
-5.63403e-24
-5.05218e-24
-4.48432e-24
-3.92879e-24
-3.38395e-24
-2.84825e-24
-2.32016e-24
-1.79824e-24
-1.28107e-24
-7.67261e-25
-2.55466e-25
)
;
    }
    outlet
    {
        type            cyclic;
        value           nonuniform List<scalar> 
120
(
6.51382e-28
1.95549e-27
3.26623e-27
4.54461e-27
5.83376e-27
7.13233e-27
8.46179e-27
9.7049e-27
1.09573e-26
1.23405e-26
1.37179e-26
1.50816e-26
1.66032e-26
1.8116e-26
1.96583e-26
2.12329e-26
2.28421e-26
2.44887e-26
2.61754e-26
2.79047e-26
2.96797e-26
3.1503e-26
3.33762e-26
3.49785e-26
3.75336e-26
3.98247e-26
4.2366e-26
4.44742e-26
4.68419e-26
4.97162e-26
5.20075e-26
5.36621e-26
5.58503e-26
5.81252e-26
6.04851e-26
6.23794e-26
6.51461e-26
6.94437e-26
7.12179e-26
7.64418e-26
7.74392e-26
8.208e-26
8.45464e-26
8.78019e-26
9.04135e-26
9.64932e-26
9.82644e-26
1.02564e-25
1.03292e-25
1.08983e-25
1.13042e-25
1.17209e-25
1.21494e-25
1.25892e-25
1.29339e-25
1.35303e-25
1.40319e-25
1.45468e-25
1.53209e-25
1.55669e-25
1.60719e-25
1.65928e-25
1.71295e-25
1.76846e-25
1.85598e-25
1.84831e-25
1.94131e-25
2.00555e-25
2.07252e-25
2.14285e-25
2.25523e-25
2.28855e-25
2.36371e-25
2.44164e-25
2.52116e-25
2.60143e-25
2.68299e-25
2.77039e-25
2.88942e-25
3.1665e-25
4.16612e-25
8.04225e-25
3.56818e-24
3.81237e-23
4.78735e-23
5.67575e-23
4.77995e-23
3.98664e-23
3.29934e-23
2.72194e-23
2.26107e-23
1.95552e-23
1.91028e-23
1.81883e-23
1.717e-23
1.61889e-23
1.52439e-23
1.4333e-23
1.34547e-23
1.2608e-23
1.17919e-23
1.10057e-23
1.02485e-23
9.51888e-24
8.81557e-24
8.13693e-24
7.48127e-24
6.84677e-24
6.23164e-24
5.63403e-24
5.05218e-24
4.48432e-24
3.92879e-24
3.38395e-24
2.84825e-24
2.32016e-24
1.79824e-24
1.28107e-24
7.67261e-25
2.55466e-25
)
;
    }
    top
    {
        type            fixedValue;
        value           uniform 0;
    }
    bottom
    {
        type            fixedValue;
        value           uniform 0;
    }
    frontAndBackPlanes
    {
        type            empty;
        value           nonuniform List<scalar> 0();
    }
}


// ************************************************************************* //
