/*--------------------------------*- C++ -*----------------------------------*\
| =========                 |                                                 |
| \\      /  F ield         | OpenFOAM: The Open Source CFD Toolbox           |
|  \\    /   O peration     | Version:  v2006                                 |
|   \\  /    A nd           | Website:  www.openfoam.com                      |
|    \\/     M anipulation  |                                                 |
\*---------------------------------------------------------------------------*/
FoamFile
{
    version     2.0;
    format      ascii;
    class       volTensorField;
    location    "1220";
    object      Taua;
}
// * * * * * * * * * * * * * * * * * * * * * * * * * * * * * * * * * * * * * //

dimensions      [1 -1 -2 0 0 0 0];


internalField   nonuniform List<tensor> 
120
(
(0.00192389 0 0 9.12399e-15 -0.00384778 0 0 0 0.00192389)
(0.00194656 0 0 9.13941e-15 -0.00389311 0 0 0 0.00194656)
(0.0019761 0 0 9.06193e-15 -0.0039522 0 0 0 0.0019761)
(0.0020048 0 0 8.99893e-15 -0.0040096 0 0 0 0.0020048)
(0.00203375 0 0 9.05679e-15 -0.00406751 0 0 0 0.00203375)
(0.00206357 0 0 9.12939e-15 -0.00412715 0 0 0 0.00206357)
(0.00209423 0 0 9.0044e-15 -0.00418846 0 0 0 0.00209423)
(0.0021257 0 0 8.89453e-15 -0.0042514 0 0 0 0.0021257)
(0.002158 0 0 9.22495e-15 -0.004316 0 0 0 0.002158)
(0.00219118 0 0 9.57099e-15 -0.00438235 0 0 0 0.00219118)
(0.00222525 0 0 9.72048e-15 -0.0044505 0 0 0 0.00222525)
(0.00226025 0 0 1.00986e-14 -0.0045205 0 0 0 0.00226025)
(0.00229621 0 0 1.04933e-14 -0.00459242 0 0 0 0.00229621)
(0.00233318 0 0 1.06925e-14 -0.00466635 0 0 0 0.00233318)
(0.00237119 0 0 1.0909e-14 -0.00474237 0 0 0 0.00237119)
(0.00241028 0 0 1.11432e-14 -0.00482057 0 0 0 0.00241028)
(0.00245053 0 0 1.13955e-14 -0.00490105 0 0 0 0.00245053)
(0.00249197 0 0 1.16664e-14 -0.00498394 0 0 0 0.00249197)
(0.00253468 0 0 1.19561e-14 -0.00506936 0 0 0 0.00253468)
(0.00257873 0 0 1.22651e-14 -0.00515745 0 0 0 0.00257873)
(0.00262419 0 0 1.25939e-14 -0.00524837 0 0 0 0.00262419)
(0.00267115 0 0 1.29427e-14 -0.0053423 0 0 0 0.00267115)
(0.0027197 0 0 1.3312e-14 -0.00543939 0 0 0 0.0027197)
(0.00276993 0 0 1.45511e-14 -0.00553985 0 0 0 0.00276993)
(0.00282194 0 0 1.58112e-14 -0.00564387 0 0 0 0.00282194)
(0.00287583 0 0 1.62435e-14 -0.00575166 0 0 0 0.00287583)
(0.0029317 0 0 1.62729e-14 -0.00586341 0 0 0 0.0029317)
(0.00298967 0 0 1.63238e-14 -0.00597934 0 0 0 0.00298967)
(0.00304983 0 0 1.68207e-14 -0.00609967 0 0 0 0.00304983)
(0.0031123 0 0 1.64904e-14 -0.00622459 0 0 0 0.0031123)
(0.00317717 0 0 1.53331e-14 -0.00635433 0 0 0 0.00317717)
(0.00324455 0 0 1.50457e-14 -0.0064891 0 0 0 0.00324455)
(0.00331455 0 0 1.56279e-14 -0.0066291 0 0 0 0.00331455)
(0.00338729 0 0 1.62305e-14 -0.00677459 0 0 0 0.00338729)
(0.0034629 0 0 1.68436e-14 -0.0069258 0 0 0 0.0034629)
(0.00354151 3.68135e-17 0 1.83246e-14 -0.00708302 0 0 0 0.00354151)
(0.00362329 0 0 2.06916e-14 -0.00724658 0 0 0 0.00362329)
(0.00370843 0 0 2.138e-14 -0.00741686 0 0 0 0.00370843)
(0.00379717 0 0 2.20751e-14 -0.00759435 0 0 0 0.00379717)
(0.00388979 0 0 2.19376e-14 -0.00777958 0 0 0 0.00388979)
(0.00398663 0 0 2.18145e-14 -0.00797325 0 0 0 0.00398663)
(0.00408807 0 0 2.2553e-14 -0.00817615 0 0 0 0.00408807)
(0.0041946 0 0 2.24557e-14 -0.0083892 0 0 0 0.0041946)
(0.00430674 0 0 2.32174e-14 -0.00861348 0 0 0 0.00430674)
(0.00442507 0 0 2.48369e-14 -0.00885015 0 0 0 0.00442507)
(0.00455025 0 0 2.47683e-14 -0.0091005 0 0 0 0.00455025)
(0.00468294 0 0 2.38588e-14 -0.00936588 0 0 0 0.00468294)
(0.00482383 0 0 2.38042e-14 -0.00964766 0 0 0 0.00482383)
(0.00497361 0 0 2.54525e-14 -0.00994721 0 0 0 0.00497361)
(0.0051329 0 0 2.79548e-14 -0.0102658 0 0 0 0.0051329)
(0.00530232 0 0 2.87662e-14 -0.0106046 0 0 0 0.00530232)
(0.00548239 0 0 2.95834e-14 -0.0109648 0 0 0 0.00548239)
(0.00567361 0 0 3.04078e-14 -0.0113472 0 0 0 0.00567361)
(0.00587648 0 0 3.12414e-14 -0.011753 0 0 0 0.00587648)
(0.00609158 0 0 3.29355e-14 -0.0121832 0 0 0 0.00609158)
(0.00631973 0 0 3.46442e-14 -0.0126395 0 0 0 0.00631973)
(0.00656217 0 0 3.55231e-14 -0.0131243 0 0 0 0.00656217)
(0.00682079 0 0 3.64488e-14 -0.0136416 0 0 0 0.00682079)
(0.00709846 -7.36271e-17 0 3.57044e-14 -0.0141969 0 0 0 0.00709846)
(0.00739936 0 0 3.49507e-14 -0.0147987 0 0 0 0.00739936)
(0.00772922 0 0 3.59432e-14 -0.0154584 0 0 0 0.00772922)
(0.00809565 0 0 3.70178e-14 -0.0161913 0 0 0 0.00809565)
(0.00850818 0 0 3.81659e-14 -0.0170164 0 0 0 0.00850818)
(0.00897811 0 0 3.94065e-14 -0.0179562 0 0 0 0.00897811)
(0.00951808 0 0 3.90578e-14 -0.0190362 0 0 0 0.00951808)
(0.0101412 0 0 4.0569e-14 -0.0202824 0 0 0 0.0101412)
(0.0108598 0 0 4.39707e-14 -0.0217197 0 0 0 0.0108598)
(0.0116842 0 0 4.58726e-14 -0.0233683 0 0 0 0.0116842)
(0.012621 0 0 4.79944e-14 -0.025242 0 0 0 0.012621)
(0.0136738 0 0 5.03081e-14 -0.0273476 0 0 0 0.0136738)
(0.0148448 0 0 5.09932e-14 -0.0296895 0 0 0 0.0148448)
(0.0161387 0 0 5.16105e-14 -0.0322773 0 0 0 0.0161387)
(0.0175834 0 0 5.36438e-14 -0.0351669 0 0 0 0.0175834)
(0.0193285 0 0 5.51055e-14 -0.0386569 0 0 0 0.0193285)
(0.0217523 0 0 5.59266e-14 -0.0435046 0 0 0 0.0217523)
(0.0249204 0 0 5.66406e-14 -0.0498408 0 0 0 0.0249204)
(0.0279676 0 0 5.9121e-14 -0.0559351 0 0 0 0.0279676)
(0.031697 0 0 7.20973e-14 -0.0633939 0 0 0 0.031697)
(0.0350772 0 0 1.11133e-13 -0.0701544 0 0 0 0.0350772)
(0.0242058 0 0 1.37385e-13 -0.0484115 0 0 0 0.0242058)
(0.0156938 0 0 1.67316e-13 -0.0313875 0 0 0 0.0156938)
(0.0072153 0 0 1.14212e-13 -0.0144306 0 0 0 0.0072153)
(4.21614e-07 0 0 7.19102e-17 -8.43229e-07 0 0 0 4.21614e-07)
(2.26003e-07 0 0 8.14756e-17 -4.52005e-07 0 0 0 2.26003e-07)
(3.71332e-07 0 0 3.34253e-17 -7.42663e-07 0 0 0 3.71332e-07)
(3.41041e-07 0 0 -1.31011e-19 -6.82082e-07 0 0 0 3.41041e-07)
(1.86534e-07 0 0 -2.98526e-17 -3.73069e-07 0 0 0 1.86534e-07)
(4.06636e-07 0 0 -2.59625e-17 -8.13272e-07 0 0 0 4.06636e-07)
(-1.97771e-06 0 0 -2.21731e-17 3.95541e-06 0 0 0 -1.97771e-06)
(-3.1921e-06 0 0 -1.81532e-17 6.38419e-06 0 0 0 -3.1921e-06)
(3.81598e-05 0 0 -1.30552e-17 -7.63196e-05 0 0 0 3.81598e-05)
(4.40011e-05 0 0 -6.87841e-18 -8.80023e-05 0 0 0 4.40011e-05)
(-2.53702e-06 0 0 -5.84599e-19 5.07404e-06 0 0 0 -2.53702e-06)
(2.30243e-09 0 0 -5.54016e-21 -4.60487e-09 0 0 0 2.30243e-09)
(1.18106e-09 0 0 -3.23762e-22 -2.36211e-09 0 0 0 1.18106e-09)
(2.21978e-14 0 0 -6.10876e-26 -4.43956e-14 0 0 0 2.21978e-14)
(-3.86965e-21 0 0 -1.50049e-32 7.7393e-21 0 0 0 -3.86965e-21)
(-1.05394e-28 0 0 -1.90865e-39 2.10789e-28 0 0 0 -1.05394e-28)
(3.57812e-36 0 0 -1.81823e-46 -7.15625e-36 0 0 0 3.57812e-36)
(8.97015e-44 0 0 -1.38215e-53 -1.79403e-43 0 0 0 8.97015e-44)
(-1.26138e-51 0 0 -9.17926e-61 2.52276e-51 0 0 0 -1.26138e-51)
(-3.18759e-59 0 0 -5.23299e-68 6.37518e-59 0 0 0 -3.18759e-59)
(2.41758e-67 0 0 -2.70094e-75 -4.83516e-67 0 0 0 2.41758e-67)
(6.85315e-75 0 0 -1.22181e-82 -1.37063e-74 0 0 0 6.85315e-75)
(-2.56834e-83 0 0 -5.26827e-90 5.13669e-83 0 0 0 -2.56834e-83)
(-1.2411e-90 0 0 -2.48475e-97 2.48219e-90 0 0 0 -1.2411e-90)
(4.34128e-99 0 0 -2.28765e-104 -8.68257e-99 0 0 0 4.34128e-99)
(2.08035e-105 0 0 -4.38096e-111 -4.1607e-105 0 0 0 2.08035e-105)
(7.83564e-113 0 0 -1.02126e-117 -1.56713e-112 0 0 0 7.83564e-113)
(1.33362e-119 0 0 -2.20359e-124 -2.66724e-119 0 0 0 1.33362e-119)
(4.83008e-126 0 0 -4.37424e-131 -9.66016e-126 0 0 0 4.83008e-126)
(8.09834e-133 0 0 -7.6172e-138 -1.61967e-132 0 0 0 8.09834e-133)
(9.16108e-140 0 0 -1.22539e-144 -1.83222e-139 0 0 0 9.16108e-140)
(-1.88296e-146 0 0 -1.80533e-151 3.76592e-146 0 0 0 -1.88296e-146)
(-5.71739e-153 0 0 -2.60118e-158 1.14348e-152 0 0 0 -5.71739e-153)
(-1.79113e-158 0 0 -3.5881e-165 3.58225e-158 0 0 0 -1.79113e-158)
(-1.32701e-162 0 0 -4.95015e-172 2.65403e-162 0 0 0 -1.32701e-162)
(-4.17416e-169 0 0 -6.59314e-179 8.34833e-169 0 0 0 -4.17416e-169)
(-4.00107e-175 0 0 -8.67841e-186 8.00214e-175 0 0 0 -4.00107e-175)
(-4.77118e-179 0 0 -1.06877e-192 9.54236e-179 0 0 0 -4.77118e-179)
)
;

boundaryField
{
    inlet
    {
        type            cyclic;
    }
    outlet
    {
        type            cyclic;
    }
    top
    {
        type            extrapolatedCalculated;
        value           uniform (-9.53326e-179 0 0 -1.06784e-192 1.90665e-178 0 0 0 -9.53326e-179);
    }
    bottom
    {
        type            extrapolatedCalculated;
        value           uniform (0.00191633 0 0 9.11936e-15 -0.00383266 0 0 0 0.00191633);
    }
    frontAndBackPlanes
    {
        type            empty;
    }
}


// ************************************************************************* //
