/*--------------------------------*- C++ -*----------------------------------*\
| =========                 |                                                 |
| \\      /  F ield         | OpenFOAM: The Open Source CFD Toolbox           |
|  \\    /   O peration     | Version:  v2006                                 |
|   \\  /    A nd           | Website:  www.openfoam.com                      |
|    \\/     M anipulation  |                                                 |
\*---------------------------------------------------------------------------*/
FoamFile
{
    version     2.0;
    format      ascii;
    class       volTensorField;
    location    "1220";
    object      Taub;
}
// * * * * * * * * * * * * * * * * * * * * * * * * * * * * * * * * * * * * * //

dimensions      [1 -1 -2 0 0 0 0];


internalField   nonuniform List<tensor> 
120
(
(-1.37427e-07 0 0 4.34108e-19 2.74855e-07 0 0 0 -1.37427e-07)
(-1.38643e-07 0 0 4.35413e-19 2.77285e-07 0 0 0 -1.38643e-07)
(-1.40444e-07 0 0 4.31104e-19 2.80888e-07 0 0 0 -1.40444e-07)
(-1.42402e-07 0 0 4.27484e-19 2.84804e-07 0 0 0 -1.42402e-07)
(-1.44396e-07 0 0 4.30821e-19 2.88792e-07 0 0 0 -1.44396e-07)
(-1.46437e-07 0 0 4.37506e-19 2.92873e-07 0 0 0 -1.46437e-07)
(-1.48528e-07 0 0 4.28247e-19 2.97056e-07 0 0 0 -1.48528e-07)
(-1.50674e-07 0 0 4.15394e-19 3.01348e-07 0 0 0 -1.50674e-07)
(-1.52876e-07 0 0 4.38687e-19 3.05752e-07 0 0 0 -1.52876e-07)
(-1.55136e-07 0 0 4.59453e-19 3.10273e-07 0 0 0 -1.55136e-07)
(-1.57456e-07 0 0 4.56191e-19 3.14912e-07 0 0 0 -1.57456e-07)
(-1.59837e-07 0 0 4.80157e-19 3.19675e-07 0 0 0 -1.59837e-07)
(-1.62283e-07 0 0 5.04926e-19 3.24565e-07 0 0 0 -1.62283e-07)
(-1.64794e-07 0 0 5.08354e-19 3.29588e-07 0 0 0 -1.64794e-07)
(-1.67375e-07 0 0 5.18586e-19 3.3475e-07 0 0 0 -1.67375e-07)
(-1.70028e-07 0 0 5.29684e-19 3.40056e-07 0 0 0 -1.70028e-07)
(-1.72757e-07 0 0 5.41639e-19 3.45514e-07 0 0 0 -1.72757e-07)
(-1.75565e-07 0 0 5.54472e-19 3.5113e-07 0 0 0 -1.75565e-07)
(-1.78457e-07 0 0 5.68202e-19 3.56914e-07 0 0 0 -1.78457e-07)
(-1.81438e-07 0 0 5.82846e-19 3.62875e-07 0 0 0 -1.81438e-07)
(-1.84512e-07 0 0 5.98424e-19 3.69024e-07 0 0 0 -1.84512e-07)
(-1.87685e-07 0 0 6.14715e-19 3.75371e-07 0 0 0 -1.87685e-07)
(-1.90964e-07 0 0 5.77917e-19 3.81927e-07 0 0 0 -1.90964e-07)
(-1.94353e-07 0 0 6.91266e-19 3.88707e-07 0 0 0 -1.94353e-07)
(-1.97861e-07 0 0 8.05734e-19 3.95721e-07 0 0 0 -1.97861e-07)
(-2.01492e-07 0 0 8.03365e-19 4.02984e-07 0 0 0 -2.01492e-07)
(-2.05254e-07 0 0 7.72877e-19 4.10508e-07 0 0 0 -2.05254e-07)
(-2.09154e-07 0 0 7.43972e-19 4.18308e-07 0 0 0 -2.09154e-07)
(-2.13199e-07 0 0 8.71245e-19 4.26397e-07 0 0 0 -2.13199e-07)
(-2.17394e-07 0 0 8.58466e-19 4.34788e-07 0 0 0 -2.17394e-07)
(-2.21748e-07 0 0 6.55708e-19 4.43495e-07 0 0 0 -2.21748e-07)
(-2.26266e-07 0 0 6.38515e-19 4.52532e-07 0 0 0 -2.26266e-07)
(-2.30956e-07 0 0 7.41516e-19 4.61912e-07 0 0 0 -2.30956e-07)
(-2.35824e-07 0 0 7.69967e-19 4.71649e-07 0 0 0 -2.35824e-07)
(-2.4088e-07 0 0 7.06683e-19 4.81759e-07 0 0 0 -2.4088e-07)
(-2.46131e-07 -3.49406e-21 0 7.74173e-19 4.92261e-07 0 0 0 -2.46131e-07)
(-2.51588e-07 0 0 1.17324e-18 5.03176e-07 0 0 0 -2.51588e-07)
(-2.57264e-07 0 0 1.00831e-18 5.14528e-07 0 0 0 -2.57264e-07)
(-2.63175e-07 0 0 1.16201e-18 5.26349e-07 0 0 0 -2.63175e-07)
(-2.69338e-07 0 0 1.03291e-18 5.38676e-07 0 0 0 -2.69338e-07)
(-2.75777e-07 0 0 9.35998e-19 5.51553e-07 0 0 0 -2.75777e-07)
(-2.82515e-07 0 0 1.17973e-18 5.65031e-07 0 0 0 -2.82515e-07)
(-2.89585e-07 0 0 9.49678e-19 5.7917e-07 0 0 0 -2.89585e-07)
(-2.97021e-07 0 0 9.73668e-19 5.94041e-07 0 0 0 -2.97021e-07)
(-3.0486e-07 0 0 1.44217e-18 6.09721e-07 0 0 0 -3.0486e-07)
(-3.13146e-07 0 0 1.30257e-18 6.26291e-07 0 0 0 -3.13146e-07)
(-3.2192e-07 0 0 1.00716e-18 6.43841e-07 0 0 0 -3.2192e-07)
(-3.31228e-07 0 0 8.33914e-19 6.62456e-07 0 0 0 -3.31228e-07)
(-3.41111e-07 0 0 1.06446e-18 6.82221e-07 0 0 0 -3.41111e-07)
(-3.51607e-07 0 0 1.61678e-18 7.03214e-07 0 0 0 -3.51607e-07)
(-3.62752e-07 0 0 1.36403e-18 7.25505e-07 0 0 0 -3.62752e-07)
(-3.74579e-07 0 0 1.40122e-18 7.49158e-07 0 0 0 -3.74579e-07)
(-3.87116e-07 0 0 1.43924e-18 7.74232e-07 0 0 0 -3.87116e-07)
(-4.00392e-07 0 0 1.30013e-18 8.00785e-07 0 0 0 -4.00392e-07)
(-4.14445e-07 0 0 1.55926e-18 8.2889e-07 0 0 0 -4.14445e-07)
(-4.29327e-07 0 0 1.81901e-18 8.58653e-07 0 0 0 -4.29327e-07)
(-4.45117e-07 0 0 1.68388e-18 8.90234e-07 0 0 0 -4.45117e-07)
(-4.61942e-07 0 0 2.13483e-18 9.23884e-07 0 0 0 -4.61942e-07)
(-4.79993e-07 6.96653e-21 0 1.68914e-18 9.59985e-07 0 0 0 -4.79993e-07)
(-4.99549e-07 0 0 1.24321e-18 9.99098e-07 0 0 0 -4.99549e-07)
(-5.20995e-07 0 0 1.69793e-18 1.04199e-06 0 0 0 -5.20995e-07)
(-5.4483e-07 0 0 1.75023e-18 1.08966e-06 0 0 0 -5.4483e-07)
(-5.71674e-07 0 0 1.80642e-18 1.14335e-06 0 0 0 -5.71674e-07)
(-6.02252e-07 0 0 2.36585e-18 1.2045e-06 0 0 0 -6.02252e-07)
(-6.37351e-07 0 0 1.32036e-18 1.2747e-06 0 0 0 -6.37351e-07)
(-6.77761e-07 0 0 1.4106e-18 1.35552e-06 0 0 0 -6.77761e-07)
(-7.24197e-07 0 0 2.59883e-18 1.44839e-06 0 0 0 -7.24197e-07)
(-7.77204e-07 0 0 2.168e-18 1.55441e-06 0 0 0 -7.77204e-07)
(-8.37084e-07 0 0 2.26804e-18 1.67417e-06 0 0 0 -8.37084e-07)
(-9.03899e-07 0 0 3.0171e-18 1.8078e-06 0 0 0 -9.03899e-07)
(-9.77708e-07 0 0 2.40491e-18 1.95542e-06 0 0 0 -9.77708e-07)
(-1.05944e-06 0 0 1.78986e-18 2.11888e-06 0 0 0 -1.05944e-06)
(-1.15248e-06 0 0 2.52479e-18 2.30496e-06 0 0 0 -1.15248e-06)
(-1.26349e-06 0 0 2.5954e-18 2.52697e-06 0 0 0 -1.26349e-06)
(-1.40514e-06 0 0 2.63264e-18 2.81028e-06 0 0 0 -1.40514e-06)
(-1.57374e-06 0 0 2.66453e-18 3.14749e-06 0 0 0 -1.57374e-06)
(-1.75791e-06 0 0 2.77993e-18 3.51583e-06 0 0 0 -1.75791e-06)
(-2.1691e-06 0 0 3.3933e-18 4.33819e-06 0 0 0 -2.1691e-06)
(-3.59502e-06 0 0 6.50416e-18 7.19004e-06 0 0 0 -3.59502e-06)
(-6.24295e-06 0 0 2.09392e-17 1.24859e-05 0 0 0 -6.24295e-06)
(-3.60078e-06 0 0 7.98747e-17 7.20155e-06 0 0 0 -3.60078e-06)
(-2.43876e-05 0 0 5.15288e-16 4.87751e-05 0 0 0 -2.43876e-05)
(-9.21801e-05 0 0 5.90995e-15 0.00018436 0 0 0 -9.21801e-05)
(-7.54007e-05 0 0 6.80967e-15 0.000150801 0 0 0 -7.54007e-05)
(5.28702e-06 0 0 2.82637e-15 -1.0574e-05 0 0 0 5.28702e-06)
(1.66833e-05 0 0 -1.11683e-17 -3.33667e-05 0 0 0 1.66833e-05)
(9.72251e-06 0 0 -2.54014e-15 -1.9445e-05 0 0 0 9.72251e-06)
(3.25755e-05 0 0 -2.2231e-15 -6.51511e-05 0 0 0 3.25755e-05)
(-0.000170395 0 0 -1.89876e-15 0.00034079 0 0 0 -0.000170395)
(-0.000278131 0 0 -1.55642e-15 0.000556261 0 0 0 -0.000278131)
(0.00334835 0 0 -1.13248e-15 -0.00669671 0 0 0 0.00334835)
(0.00175522 0 0 -5.61333e-16 -0.00351045 0 0 0 0.00175522)
(-0.00237695 0 0 -1.18978e-16 0.0047539 0 0 0 -0.00237695)
(-0.000652981 0 0 -1.29099e-16 0.00130596 0 0 0 -0.000652981)
(0.000457043 0 0 -1.33295e-16 -0.000914086 0 0 0 0.000457043)
(8.15311e-05 0 0 -1.28392e-16 -0.000163062 0 0 0 8.15311e-05)
(-3.20967e-05 0 0 -1.23709e-16 6.41934e-05 0 0 0 -3.20967e-05)
(-7.75123e-06 0 0 -1.19263e-16 1.55025e-05 0 0 0 -7.75123e-06)
(2.18645e-06 0 0 -1.14988e-16 -4.37291e-06 0 0 0 2.18645e-06)
(7.00237e-07 0 0 -1.10839e-16 -1.40047e-06 0 0 0 7.00237e-07)
(-1.41622e-07 0 0 -1.06801e-16 2.83244e-07 0 0 0 -1.41622e-07)
(-6.09462e-08 0 0 -1.02883e-16 1.21892e-07 0 0 0 -6.09462e-08)
(8.53411e-09 0 0 -9.91116e-17 -1.70682e-08 0 0 0 8.53411e-09)
(5.20626e-09 0 0 -9.55146e-17 -1.04125e-08 0 0 0 5.20626e-09)
(-4.28798e-10 0 0 -9.21182e-17 8.57596e-10 0 0 0 -4.28798e-10)
(-4.31088e-10 0 0 -8.89422e-17 8.62175e-10 0 0 0 -4.31088e-10)
(1.53038e-11 0 0 -8.59999e-17 -3.06076e-11 0 0 0 1.53038e-11)
(3.84381e-11 0 0 -8.32983e-17 -7.68761e-11 0 0 0 3.84381e-11)
(6.19647e-12 0 0 -8.08394e-17 -1.23929e-11 0 0 0 6.19647e-12)
(4.79411e-12 0 0 -7.86208e-17 -9.58822e-12 0 0 0 4.79411e-12)
(8.39524e-12 0 0 -7.66376e-17 -1.67905e-11 0 0 0 8.39524e-12)
(7.89992e-12 0 0 -7.48829e-17 -1.57998e-11 0 0 0 7.89992e-12)
(5.49873e-12 0 0 -7.33488e-17 -1.09975e-11 0 0 0 5.49873e-12)
(3.81136e-12 0 0 -7.20274e-17 -7.62272e-12 0 0 0 3.81136e-12)
(3.72872e-12 0 0 -7.09107e-17 -7.45745e-12 0 0 0 3.72872e-12)
(4.95737e-12 0 0 -6.99918e-17 -9.91473e-12 0 0 0 4.95737e-12)
(5.36779e-12 0 0 -6.92643e-17 -1.07356e-11 0 0 0 5.36779e-12)
(-2.31939e-12 0 0 -6.87233e-17 4.63879e-12 0 0 0 -2.31939e-12)
(-4.56826e-12 0 0 -6.83648e-17 9.13652e-12 0 0 0 -4.56826e-12)
(1.19568e-10 0 0 -6.81733e-17 -2.39136e-10 0 0 0 1.19568e-10)
)
;

boundaryField
{
    inlet
    {
        type            cyclic;
    }
    outlet
    {
        type            cyclic;
    }
    top
    {
        type            extrapolatedCalculated;
        value           uniform (2.38674e-10 0 0 -6.81159e-17 -4.77348e-10 0 0 0 2.38674e-10);
    }
    bottom
    {
        type            extrapolatedCalculated;
        value           uniform (-1.37038e-07 0 0 4.33885e-19 2.74075e-07 0 0 0 -1.37038e-07);
    }
    frontAndBackPlanes
    {
        type            empty;
    }
}


// ************************************************************************* //
