/*--------------------------------*- C++ -*----------------------------------*\
| =========                 |                                                 |
| \\      /  F ield         | OpenFOAM: The Open Source CFD Toolbox           |
|  \\    /   O peration     | Version:  v2006                                 |
|   \\  /    A nd           | Website:  www.openfoam.com                      |
|    \\/     M anipulation  |                                                 |
\*---------------------------------------------------------------------------*/
FoamFile
{
    version     2.0;
    format      ascii;
    class       volVectorField;
    location    "1220";
    object      Ua;
}
// * * * * * * * * * * * * * * * * * * * * * * * * * * * * * * * * * * * * * //

dimensions      [0 1 -1 0 0 0 0];


internalField   nonuniform List<vector> 
120
(
(2.17127e-21 -1.36881e-09 0)
(6.51824e-21 -4.12802e-09 0)
(1.08755e-20 -6.93039e-09 0)
(1.51486e-20 -9.77402e-09 0)
(1.94459e-20 -1.26584e-08 0)
(2.37741e-20 -1.55847e-08 0)
(2.81405e-20 -1.85543e-08 0)
(3.23498e-20 -2.15683e-08 0)
(3.66115e-20 -2.46277e-08 0)
(4.11354e-20 -2.7734e-08 0)
(4.57267e-20 -3.08882e-08 0)
(5.0393e-20 -3.40918e-08 0)
(5.53444e-20 -3.73461e-08 0)
(6.03866e-20 -4.06524e-08 0)
(6.55278e-20 -4.40123e-08 0)
(7.07762e-20 -4.74272e-08 0)
(7.61404e-20 -5.08988e-08 0)
(8.16291e-20 -5.44287e-08 0)
(8.72512e-20 -5.80187e-08 0)
(9.30158e-20 -6.16707e-08 0)
(9.89323e-20 -6.53865e-08 0)
(1.0501e-19 -6.91683e-08 0)
(1.11259e-19 -7.30184e-08 0)
(1.17688e-19 -7.69389e-08 0)
(1.25117e-19 -8.09324e-08 0)
(1.32746e-19 -8.50016e-08 0)
(1.40587e-19 -8.91491e-08 0)
(1.48244e-19 -9.33779e-08 0)
(1.56133e-19 -9.7691e-08 0)
(1.64264e-19 -1.02092e-07 0)
(1.71838e-19 -1.06583e-07 0)
(1.78867e-19 -1.11169e-07 0)
(1.86168e-19 -1.15853e-07 0)
(1.93751e-19 -1.20639e-07 0)
(2.01625e-19 -1.25531e-07 0)
(2.09792e-19 -1.30533e-07 0)
(2.19077e-19 -1.3565e-07 0)
(2.29498e-19 -1.40886e-07 0)
(2.39439e-19 -1.46245e-07 0)
(2.50522e-19 -1.51735e-07 0)
(2.60332e-19 -1.57359e-07 0)
(2.71298e-19 -1.63125e-07 0)
(2.81811e-19 -1.69039e-07 0)
(2.92684e-19 -1.7511e-07 0)
(3.03923e-19 -1.81344e-07 0)
(3.16339e-19 -1.87753e-07 0)
(3.27512e-19 -1.94345e-07 0)
(3.39061e-19 -2.01133e-07 0)
(3.50182e-19 -2.08127e-07 0)
(3.63302e-19 -2.15343e-07 0)
(3.76806e-19 -2.22793e-07 0)
(3.90698e-19 -2.30492e-07 0)
(4.04981e-19 -2.38457e-07 0)
(4.19658e-19 -2.46703e-07 0)
(4.34734e-19 -2.55247e-07 0)
(4.51025e-19 -2.64107e-07 0)
(4.67729e-19 -2.73303e-07 0)
(4.84857e-19 -2.82856e-07 0)
(5.02442e-19 -2.92791e-07 0)
(5.18861e-19 -3.03137e-07 0)
(5.35728e-19 -3.13932e-07 0)
(5.53092e-19 -3.25221e-07 0)
(5.70983e-19 -3.37062e-07 0)
(5.89441e-19 -3.4953e-07 0)
(6.08513e-19 -3.62714e-07 0)
(6.26639e-19 -3.76725e-07 0)
(6.47151e-19 -3.91689e-07 0)
(6.68515e-19 -4.07753e-07 0)
(6.90839e-19 -4.25072e-07 0)
(7.14224e-19 -4.43813e-07 0)
(7.38751e-19 -4.6414e-07 0)
(7.62789e-19 -4.86226e-07 0)
(7.87904e-19 -5.10251e-07 0)
(8.13879e-19 -5.36465e-07 0)
(8.40385e-19 -5.65475e-07 0)
(8.67142e-19 -5.98614e-07 0)
(8.94329e-19 -6.36676e-07 0)
(9.23448e-19 -6.78521e-07 0)
(9.62993e-19 -7.27239e-07 0)
(1.05456e-18 -8.02675e-07 0)
(1.38363e-18 -9.49575e-07 0)
(2.62629e-18 -1.24494e-06 0)
(1.1015e-17 -2.77495e-06 0)
(1.27082e-16 -3.43402e-06 0)
(1.59579e-16 -4.01124e-06 0)
(1.89477e-16 -5.51353e-06 0)
(1.59331e-16 -5.94127e-06 0)
(1.32888e-16 -6.57433e-06 0)
(1.09978e-16 -8.26027e-06 0)
(9.0731e-17 4.70604e-06 0)
(7.53688e-17 9.99685e-06 0)
(6.51837e-17 -0.000219314 0)
(6.36757e-17 -0.000214404 0)
(6.06323e-17 -0.000160058 0)
(5.72417e-17 -0.000222426 0)
(5.39656e-17 -0.000233016 0)
(5.08124e-17 -0.000229435 0)
(4.77764e-17 -0.000228227 0)
(4.48485e-17 -0.000228447 0)
(4.20263e-17 -0.000228567 0)
(3.93059e-17 -0.000228555 0)
(3.66856e-17 -0.000228545 0)
(3.41611e-17 -0.000228545 0)
(3.17294e-17 -0.000228546 0)
(2.93848e-17 -0.000228546 0)
(2.71228e-17 -0.000228546 0)
(2.49373e-17 -0.000228546 0)
(2.28223e-17 -0.000228546 0)
(2.0772e-17 -0.000228546 0)
(1.87799e-17 -0.000228546 0)
(1.68404e-17 -0.000228546 0)
(1.49475e-17 -0.000228546 0)
(1.30957e-17 -0.000228546 0)
(1.12797e-17 -0.000228546 0)
(9.49395e-18 -0.000228546 0)
(7.73367e-18 -0.000228546 0)
(5.99393e-18 -0.000228546 0)
(4.27002e-18 -0.000228518 0)
(2.55734e-18 -0.000228481 0)
(8.51459e-19 -0.000228045 0)
)
;

boundaryField
{
    inlet
    {
        type            cyclic;
    }
    outlet
    {
        type            cyclic;
    }
    top
    {
        type            fixedValue;
        value           uniform (0 0 0);
    }
    bottom
    {
        type            fixedValue;
        value           uniform (0 0 0);
    }
    frontAndBackPlanes
    {
        type            empty;
    }
}


// ************************************************************************* //
