/*--------------------------------*- C++ -*----------------------------------*\
| =========                 |                                                 |
| \\      /  F ield         | OpenFOAM: The Open Source CFD Toolbox           |
|  \\    /   O peration     | Version:  v2006                                 |
|   \\  /    A nd           | Website:  www.openfoam.com                      |
|    \\/     M anipulation  |                                                 |
\*---------------------------------------------------------------------------*/
FoamFile
{
    version     2.0;
    format      ascii;
    class       volVectorField;
    location    "1220";
    object      Ub;
}
// * * * * * * * * * * * * * * * * * * * * * * * * * * * * * * * * * * * * * //

dimensions      [0 1 -1 0 0 0 0];


internalField   nonuniform List<vector> 
120
(
(2.17127e-21 2.05732e-09 0)
(6.51829e-21 6.19535e-09 0)
(1.08874e-20 1.03834e-08 0)
(1.51487e-20 1.46301e-08 0)
(1.94459e-20 1.89363e-08 0)
(2.37744e-20 2.33033e-08 0)
(2.8206e-20 2.77325e-08 0)
(3.23497e-20 3.22257e-08 0)
(3.65244e-20 3.67844e-08 0)
(4.1135e-20 4.14104e-08 0)
(4.57262e-20 4.61055e-08 0)
(5.02721e-20 5.08715e-08 0)
(5.53439e-20 5.57103e-08 0)
(6.03866e-20 6.06239e-08 0)
(6.55278e-20 6.56143e-08 0)
(7.07762e-20 7.06836e-08 0)
(7.61404e-20 7.58342e-08 0)
(8.16291e-20 8.10683e-08 0)
(8.72512e-20 8.63884e-08 0)
(9.30158e-20 9.17971e-08 0)
(9.89323e-20 9.72972e-08 0)
(1.0501e-19 1.02892e-07 0)
(1.11254e-19 1.08583e-07 0)
(1.16595e-19 1.14376e-07 0)
(1.25112e-19 1.20272e-07 0)
(1.32749e-19 1.26277e-07 0)
(1.4122e-19 1.32392e-07 0)
(1.48247e-19 1.38624e-07 0)
(1.5614e-19 1.44976e-07 0)
(1.65721e-19 1.51452e-07 0)
(1.73358e-19 1.58057e-07 0)
(1.78874e-19 1.64796e-07 0)
(1.86168e-19 1.71674e-07 0)
(1.93751e-19 1.78697e-07 0)
(2.01617e-19 1.85869e-07 0)
(2.07931e-19 1.93198e-07 0)
(2.17154e-19 2.00688e-07 0)
(2.31479e-19 2.08346e-07 0)
(2.37393e-19 2.1618e-07 0)
(2.54806e-19 2.24196e-07 0)
(2.58131e-19 2.32402e-07 0)
(2.736e-19 2.40808e-07 0)
(2.81821e-19 2.49422e-07 0)
(2.92673e-19 2.58256e-07 0)
(3.01378e-19 2.6732e-07 0)
(3.21644e-19 2.76628e-07 0)
(3.27548e-19 2.86194e-07 0)
(3.41881e-19 2.96033e-07 0)
(3.44306e-19 3.06163e-07 0)
(3.63275e-19 3.16601e-07 0)
(3.76806e-19 3.27366e-07 0)
(3.90698e-19 3.3848e-07 0)
(4.04981e-19 3.49962e-07 0)
(4.19642e-19 3.61835e-07 0)
(4.31131e-19 3.74121e-07 0)
(4.51009e-19 3.86846e-07 0)
(4.67729e-19 4.00035e-07 0)
(4.84894e-19 4.13718e-07 0)
(5.10697e-19 4.27928e-07 0)
(5.18898e-19 4.42706e-07 0)
(5.35729e-19 4.58103e-07 0)
(5.53092e-19 4.74183e-07 0)
(5.70984e-19 4.91026e-07 0)
(5.89487e-19 5.08736e-07 0)
(6.18661e-19 5.27437e-07 0)
(6.16102e-19 5.47278e-07 0)
(6.47102e-19 5.68433e-07 0)
(6.68515e-19 5.91095e-07 0)
(6.90839e-19 6.1547e-07 0)
(7.14285e-19 6.41772e-07 0)
(7.51745e-19 6.70211e-07 0)
(7.6285e-19 7.01005e-07 0)
(7.87904e-19 7.3442e-07 0)
(8.13879e-19 7.70883e-07 0)
(8.40385e-19 8.11066e-07 0)
(8.67142e-19 8.56169e-07 0)
(8.94329e-19 9.06648e-07 0)
(9.23465e-19 9.63017e-07 0)
(9.63141e-19 1.03861e-06 0)
(1.0555e-18 1.18196e-06 0)
(1.38871e-18 1.41925e-06 0)
(2.68075e-18 1.40176e-06 0)
(1.18939e-17 2.91082e-06 0)
(1.27079e-16 7.22264e-06 0)
(1.59578e-16 7.81658e-06 0)
(1.89192e-16 6.87408e-06 0)
(1.59332e-16 6.71019e-06 0)
(1.32888e-16 6.22756e-06 0)
(1.09978e-16 4.54062e-06 0)
(9.07312e-17 1.7577e-05 0)
(7.53689e-17 2.30943e-05 0)
(6.5184e-17 -0.000209026 0)
(6.36759e-17 -8.65939e-05 0)
(6.06277e-17 6.405e-05 0)
(5.72333e-17 1.1165e-05 0)
(5.39629e-17 -4.50712e-06 0)
(5.08129e-17 -1.06619e-06 0)
(4.77766e-17 3.07994e-07 0)
(4.4849e-17 9.66397e-08 0)
(4.20265e-17 -2.00151e-08 0)
(3.93064e-17 -8.40908e-09 0)
(3.66858e-17 1.23089e-09 0)
(3.41615e-17 7.3399e-10 0)
(3.17296e-17 -4.93872e-11 0)
(2.93852e-17 -4.70469e-11 0)
(2.71231e-17 1.49405e-11 0)
(2.49376e-17 1.76243e-11 0)
(2.28226e-17 1.26447e-11 0)
(2.07721e-17 1.18579e-11 0)
(1.87801e-17 1.17151e-11 0)
(1.68406e-17 1.11387e-11 0)
(1.49477e-17 1.04556e-11 0)
(1.3096e-17 9.95352e-12 0)
(1.12798e-17 9.63073e-12 0)
(9.49416e-18 9.38175e-12 0)
(7.73387e-18 9.07135e-12 0)
(5.99413e-18 8.63805e-12 0)
(4.27022e-18 8.26608e-12 0)
(2.55754e-18 8.986e-12 0)
(8.51555e-19 8.9514e-12 0)
)
;

boundaryField
{
    inlet
    {
        type            cyclic;
    }
    outlet
    {
        type            cyclic;
    }
    top
    {
        type            fixedValue;
        value           uniform (0 0 0);
    }
    bottom
    {
        type            fixedValue;
        value           uniform (0 0 0);
    }
    frontAndBackPlanes
    {
        type            empty;
    }
}


// ************************************************************************* //
