/*--------------------------------*- C++ -*----------------------------------*\
| =========                 |                                                 |
| \\      /  F ield         | OpenFOAM: The Open Source CFD Toolbox           |
|  \\    /   O peration     | Version:  2206                                  |
|   \\  /    A nd           | Website:  www.openfoam.com                      |
|    \\/     M anipulation  |                                                 |
\*---------------------------------------------------------------------------*/
FoamFile
{
    version     2.0;
    format      ascii;
    arch        "LSB;label=32;scalar=64";
    class       volScalarField;
    location    "1440";
    object      pff;
}
// * * * * * * * * * * * * * * * * * * * * * * * * * * * * * * * * * * * * * //

dimensions      [1 -1 -2 0 0 0 0];

internalField   nonuniform List<scalar> 
120
(
25.3712
24.8366
24.8399
24.2601
24.2479
23.6796
23.6567
23.1006
23.0664
22.5231
22.4771
21.9471
21.8887
21.3726
21.3014
20.7995
20.7151
20.2277
20.1301
19.6573
19.5462
19.0881
18.9636
18.5202
18.3824
17.9533
17.8025
17.3875
17.224
16.8227
16.647
16.2588
16.0714
15.6958
15.4974
15.1337
14.925
14.5724
14.3541
14.0119
13.7848
13.4522
13.2172
12.8933
12.6511
12.3351
12.0868
11.7778
11.524
11.2213
10.963
10.6656
10.4035
10.1109
9.8457
9.55709
9.28948
9.00428
8.73484
8.4525
8.18175
7.90181
7.6302
7.35224
7.08014
6.80383
6.53156
6.25662
5.98442
5.71065
5.43872
5.16593
4.89442
4.62249
4.35152
4.08033
3.81
3.5395
3.2698
3.00011
2.7307
2.46248
2.19226
1.92714
1.65419
1.39329
1.11943
0.852682
0.599907
0.248256
0
0
0
0
0
0
0
0
0
0
0
0
0
0
0
0
0
0
0
0
0
0
0
0
0
0
0
0
0
0
)
;

boundaryField
{
    inlet
    {
        type            cyclic;
    }
    outlet
    {
        type            cyclic;
    }
    top
    {
        type            calculated;
        value           uniform 0;
    }
    bottom
    {
        type            calculated;
        value           uniform 25.3712;
    }
    frontAndBackPlanes
    {
        type            empty;
    }
}


// ************************************************************************* //
