/*--------------------------------*- C++ -*----------------------------------*\
| =========                 |                                                 |
| \\      /  F ield         | OpenFOAM: The Open Source CFD Toolbox           |
|  \\    /   O peration     | Version:  2206                                  |
|   \\  /    A nd           | Website:  www.openfoam.com                      |
|    \\/     M anipulation  |                                                 |
\*---------------------------------------------------------------------------*/
FoamFile
{
    version     2.0;
    format      ascii;
    arch        "LSB;label=32;scalar=64";
    class       surfaceScalarField;
    location    "1440";
    object      phi.b;
}
// * * * * * * * * * * * * * * * * * * * * * * * * * * * * * * * * * * * * * //

dimensions      [0 3 -1 0 0 0 0];

oriented        oriented;

internalField   nonuniform List<scalar> 
119
(
1.15214e-15
2.32786e-15
3.50265e-15
4.70169e-15
5.90012e-15
7.12069e-15
8.34082e-15
9.58087e-15
1.08208e-14
1.20783e-14
1.3336e-14
1.46088e-14
1.58824e-14
1.71686e-14
1.84563e-14
1.97542e-14
2.10546e-14
2.23626e-14
2.36744e-14
2.49913e-14
2.63133e-14
2.76384e-14
2.89699e-14
3.03023e-14
3.16429e-14
3.29825e-14
3.43318e-14
3.56786e-14
3.70368e-14
3.8391e-14
3.97581e-14
4.11201e-14
4.24965e-14
4.38667e-14
4.52525e-14
4.66313e-14
4.80269e-14
4.94146e-14
5.082e-14
5.2217e-14
5.36321e-14
5.50384e-14
5.64629e-14
5.78784e-14
5.93118e-14
6.0736e-14
6.21777e-14
6.36102e-14
6.50593e-14
6.64994e-14
6.7955e-14
6.94019e-14
7.0863e-14
7.23159e-14
7.37814e-14
7.52394e-14
7.67084e-14
7.81704e-14
7.9642e-14
8.11071e-14
8.258e-14
8.4047e-14
8.55201e-14
8.69877e-14
8.84596e-14
8.99261e-14
9.1395e-14
9.28583e-14
9.43219e-14
9.57792e-14
9.72345e-14
9.86822e-14
1.00125e-13
1.01558e-13
1.02984e-13
1.04397e-13
1.05797e-13
1.07183e-13
1.08548e-13
1.09902e-13
1.11217e-13
1.1253e-13
1.13782e-13
1.15011e-13
1.16187e-13
1.17106e-13
1.18149e-13
1.18074e-13
1.19392e-13
1.27927e-13
6.18073e-12
1.08898e-14
2.76168e-16
5.85586e-18
-3.57283e-20
-7.15915e-20
2.73228e-20
-6.60996e-20
-2.34332e-20
3.81983e-24
-4.78692e-20
8.7723e-20
-1.72019e-20
-1.4659e-20
1.03274e-19
-8.95527e-20
2.77007e-20
5.37375e-20
-1.08797e-19
5.65186e-20
-4.23377e-20
-4.84623e-20
3.90915e-20
-7.23915e-20
1.59828e-20
-5.69192e-20
2.23051e-20
-4.74301e-20
9.24723e-20
)
;

boundaryField
{
    inlet
    {
        type            cyclic;
        value           nonuniform List<scalar> 
120
(
-3.19945e-27
-9.60425e-27
-1.60257e-26
-2.24641e-26
-2.89374e-26
-3.5452e-26
-4.20324e-26
-4.86413e-26
-5.53143e-26
-6.21068e-26
-6.89668e-26
-7.58962e-26
-8.29887e-26
-9.01698e-26
-9.74769e-26
-1.0492e-25
-1.12508e-25
-1.20253e-25
-1.28163e-25
-1.36249e-25
-1.44522e-25
-1.52991e-25
-1.61668e-25
-1.70329e-25
-1.79698e-25
-1.89075e-25
-1.98836e-25
-2.08592e-25
-2.18759e-25
-2.29516e-25
-2.40276e-25
-2.51019e-25
-2.62402e-25
-2.74129e-25
-2.86212e-25
-2.98298e-25
-3.10806e-25
-3.24499e-25
-3.37048e-25
-3.52035e-25
-3.64981e-25
-3.80485e-25
-3.9516e-25
-4.10742e-25
-4.26358e-25
-4.4438e-25
-4.60512e-25
-4.78615e-25
-4.95214e-25
-5.14935e-25
-5.34177e-25
-5.53959e-25
-5.74283e-25
-5.95142e-25
-6.15948e-25
-6.38455e-25
-6.60879e-25
-6.83785e-25
-7.08407e-25
-7.3106e-25
-7.55354e-25
-7.79992e-25
-8.04918e-25
-8.30084e-25
-8.56813e-25
-8.79374e-25
-9.06259e-25
-9.31676e-25
-9.5695e-25
-9.82002e-25
-1.00827e-24
-1.03098e-24
-1.0547e-24
-1.07779e-24
-1.10015e-24
-1.12166e-24
-1.14221e-24
-1.1617e-24
-1.18003e-24
-1.19709e-24
-1.2128e-24
-1.22705e-24
-1.23977e-24
-1.25089e-24
-1.26035e-24
-1.27186e-24
-1.27398e-24
-1.27809e-24
-1.28043e-24
-1.28158e-24
-1.28412e-24
-1.38746e-24
-1.61191e-24
-1.831e-24
-2.04145e-24
-2.24028e-24
-2.42466e-24
-2.59195e-24
-2.73972e-24
-2.86578e-24
-2.96822e-24
-3.04542e-24
-3.09606e-24
-3.11915e-24
-3.11403e-24
-3.08036e-24
-3.01816e-24
-2.92775e-24
-2.80978e-24
-2.66523e-24
-2.49534e-24
-2.30165e-24
-2.08595e-24
-1.85025e-24
-1.5968e-24
-1.328e-24
-1.04643e-24
-7.54796e-25
-4.55891e-25
-1.52595e-25
)
;
    }
    outlet
    {
        type            cyclic;
        value           nonuniform List<scalar> 
120
(
3.19945e-27
9.60425e-27
1.60257e-26
2.24641e-26
2.89374e-26
3.5452e-26
4.20324e-26
4.86413e-26
5.53143e-26
6.21068e-26
6.89668e-26
7.58962e-26
8.29887e-26
9.01698e-26
9.74769e-26
1.0492e-25
1.12508e-25
1.20253e-25
1.28163e-25
1.36249e-25
1.44522e-25
1.52991e-25
1.61668e-25
1.70329e-25
1.79698e-25
1.89075e-25
1.98836e-25
2.08592e-25
2.18759e-25
2.29516e-25
2.40276e-25
2.51019e-25
2.62402e-25
2.74129e-25
2.86212e-25
2.98298e-25
3.10806e-25
3.24499e-25
3.37048e-25
3.52035e-25
3.64981e-25
3.80485e-25
3.9516e-25
4.10742e-25
4.26358e-25
4.4438e-25
4.60512e-25
4.78615e-25
4.95214e-25
5.14935e-25
5.34177e-25
5.53959e-25
5.74283e-25
5.95142e-25
6.15948e-25
6.38455e-25
6.60879e-25
6.83785e-25
7.08407e-25
7.3106e-25
7.55354e-25
7.79992e-25
8.04918e-25
8.30084e-25
8.56813e-25
8.79374e-25
9.06259e-25
9.31676e-25
9.5695e-25
9.82002e-25
1.00827e-24
1.03098e-24
1.0547e-24
1.07779e-24
1.10015e-24
1.12166e-24
1.14221e-24
1.1617e-24
1.18003e-24
1.19709e-24
1.2128e-24
1.22705e-24
1.23977e-24
1.25089e-24
1.26035e-24
1.27186e-24
1.27398e-24
1.27809e-24
1.28043e-24
1.28158e-24
1.28412e-24
1.38746e-24
1.61191e-24
1.831e-24
2.04145e-24
2.24028e-24
2.42466e-24
2.59195e-24
2.73972e-24
2.86578e-24
2.96822e-24
3.04542e-24
3.09606e-24
3.11915e-24
3.11403e-24
3.08036e-24
3.01816e-24
2.92775e-24
2.80978e-24
2.66523e-24
2.49534e-24
2.30165e-24
2.08595e-24
1.85025e-24
1.5968e-24
1.328e-24
1.04643e-24
7.54796e-25
4.55891e-25
1.52595e-25
)
;
    }
    top
    {
        type            fixedValue;
        value           uniform 0;
    }
    bottom
    {
        type            fixedValue;
        value           uniform 0;
    }
    frontAndBackPlanes
    {
        type            empty;
        value           nonuniform List<scalar> 0();
    }
}


// ************************************************************************* //
