/*--------------------------------*- C++ -*----------------------------------*\
| =========                 |                                                 |
| \\      /  F ield         | OpenFOAM: The Open Source CFD Toolbox           |
|  \\    /   O peration     | Version:  2206                                  |
|   \\  /    A nd           | Website:  www.openfoam.com                      |
|    \\/     M anipulation  |                                                 |
\*---------------------------------------------------------------------------*/
FoamFile
{
    version     2.0;
    format      ascii;
    arch        "LSB;label=32;scalar=64";
    class       surfaceScalarField;
    location    "1440";
    object      phi.a;
}
// * * * * * * * * * * * * * * * * * * * * * * * * * * * * * * * * * * * * * //

dimensions      [0 3 -1 0 0 0 0];

oriented        oriented;

internalField   nonuniform List<scalar> 
119
(
-7.68415e-16
-1.55283e-15
-2.33695e-15
-3.13758e-15
-3.93814e-15
-4.75386e-15
-5.56962e-15
-6.39907e-15
-7.22876e-15
-8.07059e-15
-8.91296e-15
-9.76584e-15
-1.06197e-14
-1.14823e-14
-1.23465e-14
-1.32179e-14
-1.40914e-14
-1.49705e-14
-1.58525e-14
-1.67386e-14
-1.76285e-14
-1.8521e-14
-1.94183e-14
-2.03169e-14
-2.12213e-14
-2.21259e-14
-2.30374e-14
-2.39479e-14
-2.48666e-14
-2.57833e-14
-2.67093e-14
-2.76326e-14
-2.85662e-14
-2.94964e-14
-3.04378e-14
-3.13753e-14
-3.23248e-14
-3.327e-14
-3.42277e-14
-3.51809e-14
-3.61469e-14
-3.71081e-14
-3.80823e-14
-3.90517e-14
-4.0034e-14
-4.10114e-14
-4.20014e-14
-4.29867e-14
-4.39841e-14
-4.49769e-14
-4.59813e-14
-4.69814e-14
-4.79924e-14
-4.89994e-14
-5.00164e-14
-5.103e-14
-5.20528e-14
-5.30727e-14
-5.41008e-14
-5.51267e-14
-5.61599e-14
-5.71914e-14
-5.82293e-14
-5.92661e-14
-6.03084e-14
-6.135e-14
-6.23961e-14
-6.34418e-14
-6.44912e-14
-6.55401e-14
-6.65917e-14
-6.76427e-14
-6.86953e-14
-6.97467e-14
-7.07986e-14
-7.18488e-14
-7.28974e-14
-7.39452e-14
-7.49873e-14
-7.60335e-14
-7.70656e-14
-7.81127e-14
-7.91352e-14
-8.01664e-14
-8.11899e-14
-8.20756e-14
-8.31094e-14
-8.34314e-14
-8.50652e-14
-1.30375e-13
-2.40917e-11
-5.94173e-11
-6.43068e-11
-6.89671e-11
-7.36678e-11
-7.81513e-11
-8.08024e-11
-8.15597e-11
-8.17392e-11
-8.18202e-11
-8.18787e-11
-8.19264e-11
-8.19645e-11
-8.19931e-11
-8.20127e-11
-8.20241e-11
-8.20296e-11
-8.20318e-11
-8.20326e-11
-8.20329e-11
-8.2033e-11
-8.20331e-11
-8.20331e-11
-8.2033e-11
-8.20328e-11
-8.20322e-11
-8.20288e-11
-8.19964e-11
-8.13325e-11
)
;

boundaryField
{
    inlet
    {
        type            cyclic;
        value           nonuniform List<scalar> 
120
(
-3.19945e-27
-9.60424e-27
-1.60228e-26
-2.24641e-26
-2.89374e-26
-3.5452e-26
-4.2017e-26
-4.86413e-26
-5.53347e-26
-6.21069e-26
-6.89669e-26
-7.59241e-26
-8.29888e-26
-9.01698e-26
-9.74769e-26
-1.0492e-25
-1.12508e-25
-1.20253e-25
-1.28163e-25
-1.36249e-25
-1.44522e-25
-1.52991e-25
-1.61669e-25
-1.70566e-25
-1.79699e-25
-1.89074e-25
-1.98702e-25
-2.08591e-25
-2.18757e-25
-2.29213e-25
-2.39962e-25
-2.51018e-25
-2.62402e-25
-2.74129e-25
-2.86214e-25
-2.98669e-25
-3.11185e-25
-3.24113e-25
-3.37444e-25
-3.51213e-25
-3.654e-25
-3.80051e-25
-3.95158e-25
-4.10744e-25
-4.26824e-25
-4.4342e-25
-4.60505e-25
-4.78115e-25
-4.96244e-25
-5.14939e-25
-5.34177e-25
-5.53959e-25
-5.74283e-25
-5.95145e-25
-6.16535e-25
-6.38457e-25
-6.60879e-25
-6.8378e-25
-7.07138e-25
-7.31055e-25
-7.55354e-25
-7.79992e-25
-8.04918e-25
-8.30077e-25
-8.55407e-25
-8.80803e-25
-9.06266e-25
-9.31676e-25
-9.5695e-25
-9.81995e-25
-1.00671e-24
-1.03097e-24
-1.0547e-24
-1.07779e-24
-1.10015e-24
-1.12166e-24
-1.14221e-24
-1.1617e-24
-1.18003e-24
-1.19709e-24
-1.2128e-24
-1.22705e-24
-1.23977e-24
-1.25089e-24
-1.26034e-24
-1.26807e-24
-1.27396e-24
-1.27809e-24
-1.28043e-24
-1.28156e-24
-1.28233e-24
-1.38716e-24
-1.49208e-24
-1.3732e-24
-1.23815e-24
-9.4514e-25
-5.79203e-25
-4.12299e-25
-3.57701e-25
-3.25074e-25
-2.94969e-25
-2.64375e-25
-2.34964e-25
-2.08667e-25
-1.87242e-25
-1.72321e-25
-1.63913e-25
-1.60091e-25
-1.58592e-25
-1.58003e-25
-1.57726e-25
-1.57567e-25
-1.57465e-25
-1.57401e-25
-1.57365e-25
-1.57354e-25
-1.57376e-25
-1.57488e-25
-1.57834e-25
-1.5519e-25
)
;
    }
    outlet
    {
        type            cyclic;
        value           nonuniform List<scalar> 
120
(
3.19945e-27
9.60424e-27
1.60228e-26
2.24641e-26
2.89374e-26
3.5452e-26
4.2017e-26
4.86413e-26
5.53347e-26
6.21069e-26
6.89669e-26
7.59241e-26
8.29888e-26
9.01698e-26
9.74769e-26
1.0492e-25
1.12508e-25
1.20253e-25
1.28163e-25
1.36249e-25
1.44522e-25
1.52991e-25
1.61669e-25
1.70566e-25
1.79699e-25
1.89074e-25
1.98702e-25
2.08591e-25
2.18757e-25
2.29213e-25
2.39962e-25
2.51018e-25
2.62402e-25
2.74129e-25
2.86214e-25
2.98669e-25
3.11185e-25
3.24113e-25
3.37444e-25
3.51213e-25
3.654e-25
3.80051e-25
3.95158e-25
4.10744e-25
4.26824e-25
4.4342e-25
4.60505e-25
4.78115e-25
4.96244e-25
5.14939e-25
5.34177e-25
5.53959e-25
5.74283e-25
5.95145e-25
6.16535e-25
6.38457e-25
6.60879e-25
6.8378e-25
7.07138e-25
7.31055e-25
7.55354e-25
7.79992e-25
8.04918e-25
8.30077e-25
8.55407e-25
8.80803e-25
9.06266e-25
9.31676e-25
9.5695e-25
9.81995e-25
1.00671e-24
1.03097e-24
1.0547e-24
1.07779e-24
1.10015e-24
1.12166e-24
1.14221e-24
1.1617e-24
1.18003e-24
1.19709e-24
1.2128e-24
1.22705e-24
1.23977e-24
1.25089e-24
1.26034e-24
1.26807e-24
1.27396e-24
1.27809e-24
1.28043e-24
1.28156e-24
1.28233e-24
1.38716e-24
1.49208e-24
1.3732e-24
1.23815e-24
9.4514e-25
5.79203e-25
4.12299e-25
3.57701e-25
3.25074e-25
2.94969e-25
2.64375e-25
2.34964e-25
2.08667e-25
1.87242e-25
1.72321e-25
1.63913e-25
1.60091e-25
1.58592e-25
1.58003e-25
1.57726e-25
1.57567e-25
1.57465e-25
1.57401e-25
1.57365e-25
1.57354e-25
1.57376e-25
1.57488e-25
1.57834e-25
1.5519e-25
)
;
    }
    top
    {
        type            fixedValue;
        value           uniform 0;
    }
    bottom
    {
        type            fixedValue;
        value           uniform 0;
    }
    frontAndBackPlanes
    {
        type            empty;
        value           nonuniform List<scalar> 0();
    }
}


// ************************************************************************* //
