/*--------------------------------*- C++ -*----------------------------------*\
| =========                 |                                                 |
| \\      /  F ield         | OpenFOAM: The Open Source CFD Toolbox           |
|  \\    /   O peration     | Version:  2206                                  |
|   \\  /    A nd           | Website:  www.openfoam.com                      |
|    \\/     M anipulation  |                                                 |
\*---------------------------------------------------------------------------*/
FoamFile
{
    version     2.0;
    format      ascii;
    arch        "LSB;label=32;scalar=64";
    class       volVectorField;
    location    "1440";
    object      U.a;
}
// * * * * * * * * * * * * * * * * * * * * * * * * * * * * * * * * * * * * * //

dimensions      [0 1 -1 0 0 0 0];

internalField   nonuniform List<vector> 
120
(
(1.06648e-20 1.46229e-08 0)
(3.20141e-20 -2.92342e-09 0)
(5.34092e-20 -5.70341e-09 0)
(7.48802e-20 -7.27935e-09 0)
(9.6458e-20 -1.01517e-08 0)
(1.18173e-19 -1.17265e-08 0)
(1.40057e-19 -1.46839e-08 0)
(1.62138e-19 -1.62581e-08 0)
(1.84449e-19 -1.92923e-08 0)
(2.07023e-19 -2.08672e-08 0)
(2.2989e-19 -2.39694e-08 0)
(2.5308e-19 -2.55467e-08 0)
(2.76629e-19 -2.87079e-08 0)
(3.00566e-19 -3.029e-08 0)
(3.24923e-19 -3.35009e-08 0)
(3.49732e-19 -3.50907e-08 0)
(3.75028e-19 -3.8342e-08 0)
(4.00842e-19 -3.99435e-08 0)
(4.27209e-19 -4.3226e-08 0)
(4.54163e-19 -4.48436e-08 0)
(4.81739e-19 -4.81486e-08 0)
(5.09971e-19 -4.97875e-08 0)
(5.38897e-19 -5.31068e-08 0)
(5.68553e-19 -5.47727e-08 0)
(5.98998e-19 -5.80987e-08 0)
(6.30247e-19 -5.97977e-08 0)
(6.6234e-19 -6.31236e-08 0)
(6.95304e-19 -6.4862e-08 0)
(7.29191e-19 -6.81818e-08 0)
(7.64042e-19 -6.99661e-08 0)
(7.99873e-19 -7.32745e-08 0)
(8.36725e-19 -7.51109e-08 0)
(8.74673e-19 -7.84035e-08 0)
(9.13764e-19 -8.02977e-08 0)
(9.54045e-19 -8.35709e-08 0)
(9.95563e-19 -8.55282e-08 0)
(1.03728e-18 -8.8779e-08 0)
(1.08038e-18 -9.08036e-08 0)
(1.12481e-18 -9.40296e-08 0)
(1.17071e-18 -9.61247e-08 0)
(1.218e-18 -9.93242e-08 0)
(1.26684e-18 -1.01492e-07 0)
(1.31719e-18 -1.04664e-07 0)
(1.36915e-18 -1.06905e-07 0)
(1.42275e-18 -1.10049e-07 0)
(1.47807e-18 -1.12363e-07 0)
(1.53502e-18 -1.15478e-07 0)
(1.59372e-18 -1.17864e-07 0)
(1.65415e-18 -1.20951e-07 0)
(1.71646e-18 -1.23405e-07 0)
(1.78059e-18 -1.26466e-07 0)
(1.84653e-18 -1.28986e-07 0)
(1.91428e-18 -1.32022e-07 0)
(1.98382e-18 -1.34603e-07 0)
(2.05512e-18 -1.37616e-07 0)
(2.12819e-18 -1.40253e-07 0)
(2.20293e-18 -1.43247e-07 0)
(2.27927e-18 -1.45936e-07 0)
(2.35713e-18 -1.48912e-07 0)
(2.43685e-18 -1.51648e-07 0)
(2.51785e-18 -1.54611e-07 0)
(2.59997e-18 -1.57388e-07 0)
(2.68306e-18 -1.60342e-07 0)
(2.76692e-18 -1.63155e-07 0)
(2.85136e-18 -1.66101e-07 0)
(2.93601e-18 -1.68946e-07 0)
(3.02089e-18 -1.71888e-07 0)
(3.10559e-18 -1.74758e-07 0)
(3.18983e-18 -1.77697e-07 0)
(3.27332e-18 -1.80588e-07 0)
(3.35572e-18 -1.83524e-07 0)
(3.43657e-18 -1.8643e-07 0)
(3.51566e-18 -1.89363e-07 0)
(3.59265e-18 -1.92278e-07 0)
(3.66717e-18 -1.95204e-07 0)
(3.73886e-18 -1.98122e-07 0)
(3.80737e-18 -2.01039e-07 0)
(3.87234e-18 -2.03948e-07 0)
(3.93344e-18 -2.0686e-07 0)
(3.99031e-18 -2.09737e-07 0)
(4.04265e-18 -2.12672e-07 0)
(4.09016e-18 -2.15471e-07 0)
(4.13257e-18 -2.18491e-07 0)
(4.16962e-18 -2.21151e-07 0)
(4.20112e-18 -2.2422e-07 0)
(4.2269e-18 -2.26841e-07 0)
(4.24655e-18 -2.29136e-07 0)
(4.2603e-18 -2.32604e-07 0)
(4.26809e-18 -2.30932e-07 0)
(4.27188e-18 -2.46439e-07 0)
(4.27443e-18 -4.45112e-07 0)
(4.62387e-18 -0.000106923 0)
(4.97361e-18 -0.000170699 0)
(4.57734e-18 -0.000185461 0)
(4.12717e-18 -0.000197824 0)
(3.15047e-18 -0.000211458 0)
(1.93068e-18 -0.00022271 0)
(1.37433e-18 -0.000226192 0)
(1.19234e-18 -0.000226918 0)
(1.08358e-18 -0.000227189 0)
(9.83231e-19 -0.000227368 0)
(8.81249e-19 -0.000227514 0)
(7.83214e-19 -0.000227633 0)
(6.95556e-19 -0.000227725 0)
(6.24141e-19 -0.000227792 0)
(5.74403e-19 -0.000227834 0)
(5.46378e-19 -0.000227856 0)
(5.33635e-19 -0.000227865 0)
(5.2864e-19 -0.000227868 0)
(5.26676e-19 -0.000227869 0)
(5.25752e-19 -0.000227869 0)
(5.25222e-19 -0.00022787 0)
(5.24884e-19 -0.00022787 0)
(5.2467e-19 -0.00022787 0)
(5.2455e-19 -0.000227869 0)
(5.24512e-19 -0.000227868 0)
(5.24586e-19 -0.000227866 0)
(5.24959e-19 -0.00022785 0)
(5.26113e-19 -0.000227686 0)
(5.17299e-19 -0.000224161 0)
)
;

boundaryField
{
    inlet
    {
        type            cyclic;
    }
    outlet
    {
        type            cyclic;
    }
    top
    {
        type            fixedValue;
        value           uniform (0 0 0);
    }
    bottom
    {
        type            fixedValue;
        value           uniform (0 0 0);
    }
    frontAndBackPlanes
    {
        type            empty;
    }
}


// ************************************************************************* //
