/*--------------------------------*- C++ -*----------------------------------*\
| =========                 |                                                 |
| \\      /  F ield         | OpenFOAM: The Open Source CFD Toolbox           |
|  \\    /   O peration     | Version:  2206                                  |
|   \\  /    A nd           | Website:  www.openfoam.com                      |
|    \\/     M anipulation  |                                                 |
\*---------------------------------------------------------------------------*/
FoamFile
{
    version     2.0;
    format      ascii;
    arch        "LSB;label=32;scalar=64";
    class       volVectorField;
    location    "1440";
    object      U.b;
}
// * * * * * * * * * * * * * * * * * * * * * * * * * * * * * * * * * * * * * //

dimensions      [0 1 -1 0 0 0 0];

internalField   nonuniform List<vector> 
120
(
(1.06648e-20 1.70183e-08 0)
(3.20142e-20 5.1489e-09 0)
(5.34188e-20 7.78475e-09 0)
(7.48802e-20 1.17165e-08 0)
(9.6458e-20 1.43981e-08 0)
(1.18173e-19 1.84317e-08 0)
(1.40108e-19 2.11236e-08 0)
(1.62138e-19 2.52604e-08 0)
(1.84381e-19 2.79633e-08 0)
(2.07023e-19 3.21927e-08 0)
(2.29889e-19 3.49063e-08 0)
(2.52987e-19 3.92172e-08 0)
(2.76629e-19 4.19417e-08 0)
(3.00566e-19 4.63225e-08 0)
(3.24923e-19 4.90591e-08 0)
(3.49732e-19 5.34987e-08 0)
(3.75028e-19 5.62497e-08 0)
(4.00842e-19 6.07369e-08 0)
(4.27209e-19 6.35055e-08 0)
(4.54163e-19 6.80296e-08 0)
(4.81739e-19 7.08198e-08 0)
(5.09971e-19 7.53708e-08 0)
(5.38894e-19 7.81878e-08 0)
(5.67763e-19 8.27564e-08 0)
(5.98994e-19 8.56058e-08 0)
(6.30249e-19 9.01836e-08 0)
(6.62788e-19 9.3072e-08 0)
(6.95306e-19 9.76519e-08 0)
(7.29195e-19 1.00586e-07 0)
(7.65053e-19 1.05162e-07 0)
(8.00919e-19 1.08149e-07 0)
(8.3673e-19 1.12715e-07 0)
(8.74673e-19 1.15761e-07 0)
(9.13763e-19 1.20313e-07 0)
(9.5404e-19 1.23424e-07 0)
(9.94326e-19 1.27958e-07 0)
(1.03602e-18 1.3114e-07 0)
(1.08166e-18 1.35653e-07 0)
(1.12349e-18 1.3891e-07 0)
(1.17345e-18 1.43399e-07 0)
(1.2166e-18 1.46733e-07 0)
(1.26828e-18 1.51197e-07 0)
(1.3172e-18 1.5461e-07 0)
(1.36914e-18 1.59046e-07 0)
(1.42119e-18 1.62538e-07 0)
(1.48127e-18 1.66945e-07 0)
(1.53504e-18 1.70513e-07 0)
(1.59538e-18 1.7489e-07 0)
(1.65071e-18 1.78533e-07 0)
(1.71645e-18 1.8288e-07 0)
(1.78059e-18 1.86591e-07 0)
(1.84653e-18 1.90908e-07 0)
(1.91428e-18 1.94684e-07 0)
(1.98381e-18 1.98971e-07 0)
(2.05316e-18 2.02805e-07 0)
(2.12818e-18 2.07064e-07 0)
(2.20293e-18 2.1095e-07 0)
(2.27928e-18 2.15181e-07 0)
(2.36136e-18 2.19111e-07 0)
(2.43687e-18 2.23317e-07 0)
(2.51785e-18 2.27284e-07 0)
(2.59997e-18 2.31466e-07 0)
(2.68306e-18 2.35463e-07 0)
(2.76695e-18 2.39621e-07 0)
(2.85604e-18 2.43638e-07 0)
(2.93125e-18 2.47774e-07 0)
(3.02086e-18 2.51803e-07 0)
(3.10559e-18 2.55913e-07 0)
(3.18983e-18 2.59945e-07 0)
(3.27334e-18 2.64027e-07 0)
(3.3609e-18 2.68049e-07 0)
(3.43659e-18 2.72096e-07 0)
(3.51566e-18 2.76096e-07 0)
(3.59265e-18 2.80097e-07 0)
(3.66717e-18 2.84058e-07 0)
(3.73886e-18 2.88001e-07 0)
(3.80737e-18 2.91901e-07 0)
(3.87234e-18 2.9577e-07 0)
(3.93344e-18 2.99574e-07 0)
(3.99031e-18 3.03365e-07 0)
(4.04265e-18 3.07017e-07 0)
(4.09016e-18 3.10735e-07 0)
(4.13257e-18 3.14157e-07 0)
(4.16962e-18 3.17727e-07 0)
(4.20118e-18 3.20888e-07 0)
(4.23955e-18 3.23674e-07 0)
(4.24661e-18 3.26767e-07 0)
(4.2603e-18 3.2653e-07 0)
(4.2681e-18 3.25915e-07 0)
(4.27193e-18 9.5063e-08 0)
(4.28041e-18 1.635e-06 0)
(4.62486e-18 4.80026e-05 0)
(5.37305e-18 3.02677e-06 0)
(6.10333e-18 -2.9583e-06 0)
(6.80484e-18 -6.40239e-07 0)
(7.46761e-18 1.41522e-07 0)
(8.08221e-18 6.68238e-08 0)
(8.63984e-18 -1.91313e-09 0)
(9.13239e-18 -5.3048e-09 0)
(9.5526e-18 -5.5273e-10 0)
(9.89407e-18 3.29289e-10 0)
(1.01514e-17 8.70857e-11 0)
(1.03202e-17 -1.33094e-11 0)
(1.03972e-17 -8.52069e-12 0)
(1.03801e-17 1.87812e-15 0)
(1.02679e-17 6.50249e-13 0)
(1.00605e-17 9.93538e-15 0)
(9.75915e-18 7.54806e-14 0)
(9.36594e-18 -8.75402e-14 0)
(8.88409e-18 -7.72328e-14 0)
(8.31779e-18 1.31377e-14 0)
(7.67216e-18 -1.23233e-13 0)
(6.95315e-18 -1.38284e-14 0)
(6.16751e-18 -3.76683e-14 0)
(5.32267e-18 -7.32159e-14 0)
(4.42668e-18 -5.59798e-14 0)
(3.48812e-18 -5.09998e-14 0)
(2.51599e-18 -3.70941e-14 0)
(1.51964e-18 7.40503e-14 0)
(5.08652e-19 4.77702e-14 0)
)
;

boundaryField
{
    inlet
    {
        type            cyclic;
    }
    outlet
    {
        type            cyclic;
    }
    top
    {
        type            fixedValue;
        value           uniform (0 0 0);
    }
    bottom
    {
        type            fixedValue;
        value           uniform (0 0 0);
    }
    frontAndBackPlanes
    {
        type            empty;
    }
}


// ************************************************************************* //
