/*--------------------------------*- C++ -*----------------------------------*\
| =========                 |                                                 |
| \\      /  F ield         | OpenFOAM: The Open Source CFD Toolbox           |
|  \\    /   O peration     | Version:  2206                                  |
|   \\  /    A nd           | Website:  www.openfoam.com                      |
|    \\/     M anipulation  |                                                 |
\*---------------------------------------------------------------------------*/
FoamFile
{
    version     2.0;
    format      ascii;
    arch        "LSB;label=32;scalar=64";
    class       volScalarField;
    location    "140";
    object      p_rbgh;
}
// * * * * * * * * * * * * * * * * * * * * * * * * * * * * * * * * * * * * * //

dimensions      [1 -1 -2 0 0 0 0];

internalField   nonuniform List<scalar> 
120
(
23.9399
23.9367
23.9295
23.9178
23.9006
23.8761
23.8434
23.8024
23.7574
23.7112
23.4678
23.2102
22.9602
22.7137
22.4681
22.2227
21.9774
21.7322
21.4869
21.2417
20.9964
20.7512
20.5059
20.2607
20.0154
19.7702
19.5249
19.2797
19.0344
18.7892
18.5439
18.2987
18.0534
17.8082
17.5629
17.3177
17.0724
16.8272
16.5819
16.3367
16.0914
15.8462
15.6009
15.3557
15.1104
14.8652
14.6199
14.3747
14.1294
13.8842
13.6389
13.3937
13.1484
12.9032
12.6579
12.4127
12.1674
11.9222
11.6769
11.4317
11.1864
10.9412
10.6959
10.4507
10.2054
9.96018
9.71493
9.46968
9.22443
8.97918
8.73393
8.48868
8.24343
7.99818
7.75293
7.50768
7.26243
7.01718
6.77193
6.52668
6.28143
6.03618
5.79093
5.54568
5.30043
5.05518
4.80993
4.56468
4.31943
4.07418
3.82893
3.58368
3.33843
3.09318
2.84793
2.60268
2.35743
2.11218
1.86693
1.62168
1.37641
1.13114
0.886254
0.642073
0.390228
0.113056
0.0122988
-0.00213392
-0.001238
7.58096e-05
0.000140184
1.78389e-05
-7.02435e-06
-2.16259e-06
1.54885e-07
1.55641e-07
-1.37745e-09
-1.64358e-08
-4.08191e-09
-3.03686e-12
)
;

boundaryField
{
    inlet
    {
        type            cyclic;
    }
    outlet
    {
        type            cyclic;
    }
    top
    {
        type            fixedValue;
        value           uniform 0;
    }
    bottom
    {
        type            fixedFluxPressure;
        gradient        uniform 0;
        value           uniform 23.9399;
    }
    frontAndBackPlanes
    {
        type            empty;
    }
}


// ************************************************************************* //
