/*--------------------------------*- C++ -*----------------------------------*\
| =========                 |                                                 |
| \\      /  F ield         | OpenFOAM: The Open Source CFD Toolbox           |
|  \\    /   O peration     | Version:  2206                                  |
|   \\  /    A nd           | Website:  www.openfoam.com                      |
|    \\/     M anipulation  |                                                 |
\*---------------------------------------------------------------------------*/
FoamFile
{
    version     2.0;
    format      ascii;
    arch        "LSB;label=32;scalar=64";
    class       surfaceScalarField;
    location    "140";
    object      phi.b;
}
// * * * * * * * * * * * * * * * * * * * * * * * * * * * * * * * * * * * * * //

dimensions      [0 3 -1 0 0 0 0];

oriented        oriented;

internalField   nonuniform List<scalar> 
119
(
1.34534e-14
3.00566e-14
4.90791e-14
7.3033e-14
1.0454e-13
1.41679e-13
1.79589e-13
1.99888e-13
2.15592e-13
1.48953e-12
2.0035e-12
2.19806e-12
2.28158e-12
2.31008e-12
2.31918e-12
2.32207e-12
2.32296e-12
2.32321e-12
2.32328e-12
2.3233e-12
2.32331e-12
2.32331e-12
2.32331e-12
2.32331e-12
2.32331e-12
2.32331e-12
2.32331e-12
2.32331e-12
2.32331e-12
2.32331e-12
2.32331e-12
2.32331e-12
2.32331e-12
2.32331e-12
2.32331e-12
2.32331e-12
2.32331e-12
2.32331e-12
2.32331e-12
2.32331e-12
2.32331e-12
2.32331e-12
2.32331e-12
2.32331e-12
2.32331e-12
2.32331e-12
2.32331e-12
2.32331e-12
2.32331e-12
2.32331e-12
2.32331e-12
2.32331e-12
2.32331e-12
2.32331e-12
2.32331e-12
2.32331e-12
2.32331e-12
2.32331e-12
2.32331e-12
2.32331e-12
2.32331e-12
2.32331e-12
2.32331e-12
2.32331e-12
2.32331e-12
2.32331e-12
2.32331e-12
2.32331e-12
2.32331e-12
2.32331e-12
2.32331e-12
2.32331e-12
2.32331e-12
2.32331e-12
2.32331e-12
2.32331e-12
2.32331e-12
2.32331e-12
2.32331e-12
2.32331e-12
2.32331e-12
2.32331e-12
2.32331e-12
2.32331e-12
2.32331e-12
2.32331e-12
2.32331e-12
2.32331e-12
2.32331e-12
2.32331e-12
2.32331e-12
2.32331e-12
2.32331e-12
2.32331e-12
2.32331e-12
2.32331e-12
2.32331e-12
2.32331e-12
2.32333e-12
2.32319e-12
2.32304e-12
2.32381e-12
2.33433e-12
2.36254e-12
1.87368e-12
8.74995e-12
4.64843e-12
3.78634e-15
1.47304e-16
1.9618e-17
-3.37921e-19
4.69185e-19
-1.69509e-19
-2.41528e-19
-1.75872e-19
-1.21817e-19
1.53881e-19
-1.18635e-19
2.90889e-19
)
;

boundaryField
{
    inlet
    {
        type            cyclic;
        value           nonuniform List<scalar> 
120
(
3.5935e-28
1.10002e-27
1.85043e-27
2.75408e-27
3.69962e-27
4.70692e-27
5.45314e-27
6.69918e-27
7.64309e-27
1.13664e-26
6.936e-25
1.1633e-24
6.68524e-25
4.04994e-25
2.97206e-25
2.75753e-25
2.97348e-25
3.36544e-25
3.74062e-25
4.03994e-25
4.32441e-25
4.62581e-25
4.90418e-25
5.2406e-25
-6.77076e-26
-6.65608e-25
-1.29647e-24
-1.65284e-24
-2.05171e-24
-2.50374e-24
-2.40039e-24
-1.74322e-24
-1.14395e-24
-5.88352e-25
-7.58427e-26
4.08578e-25
2.54349e-25
-5.52157e-25
-7.60226e-25
-1.66237e-24
-1.35433e-24
-1.73916e-24
-1.537e-24
-1.38518e-24
-1.25335e-24
-1.7922e-24
-1.12316e-24
-5.21463e-25
6.97849e-25
6.6203e-25
6.37298e-25
5.95853e-25
5.36605e-25
4.57372e-25
3.68684e-25
-3.59525e-25
-1.10792e-24
-1.8974e-24
-2.76329e-24
-2.46176e-24
-2.24925e-24
-2.10308e-24
-2.02786e-24
-2.02785e-24
-2.13445e-24
-1.07138e-24
-1.34117e-24
-1.66637e-24
-2.0761e-24
-2.5715e-24
-3.18158e-24
-2.65662e-24
-2.24785e-24
-1.92815e-24
-1.69917e-24
-1.56356e-24
-1.52487e-24
-1.58755e-24
-1.75695e-24
-2.0391e-24
-2.44043e-24
-2.9674e-24
-3.62597e-24
-4.42111e-24
-5.35676e-24
-6.49133e-24
-5.32344e-24
-4.35078e-24
-3.51116e-24
-2.79664e-24
-2.19795e-24
-1.70453e-24
-1.30507e-24
-9.88083e-25
-7.42628e-25
-5.58963e-25
-4.29836e-25
-3.32322e-25
-2.30479e-25
-1.1061e-25
-4.70957e-26
-1.51537e-26
-4.32456e-27
-1.19332e-27
-3.29885e-28
-7.34644e-29
-6.69435e-29
-5.65435e-29
-4.6671e-29
-3.82684e-29
-3.12369e-29
-2.53502e-29
-2.04181e-29
-1.62768e-29
-1.27804e-29
-9.8012e-30
-7.22552e-30
-4.95161e-30
-2.88682e-30
-9.44893e-31
)
;
    }
    outlet
    {
        type            cyclic;
        value           nonuniform List<scalar> 
120
(
-3.5935e-28
-1.10002e-27
-1.85043e-27
-2.75408e-27
-3.69962e-27
-4.70692e-27
-5.45314e-27
-6.69918e-27
-7.64309e-27
-1.13664e-26
-6.936e-25
-1.1633e-24
-6.68524e-25
-4.04994e-25
-2.97206e-25
-2.75753e-25
-2.97348e-25
-3.36544e-25
-3.74062e-25
-4.03994e-25
-4.32441e-25
-4.62581e-25
-4.90418e-25
-5.2406e-25
6.77076e-26
6.65608e-25
1.29647e-24
1.65284e-24
2.05171e-24
2.50374e-24
2.40039e-24
1.74322e-24
1.14395e-24
5.88352e-25
7.58427e-26
-4.08578e-25
-2.54349e-25
5.52157e-25
7.60226e-25
1.66237e-24
1.35433e-24
1.73916e-24
1.537e-24
1.38518e-24
1.25335e-24
1.7922e-24
1.12316e-24
5.21463e-25
-6.97849e-25
-6.6203e-25
-6.37298e-25
-5.95853e-25
-5.36605e-25
-4.57372e-25
-3.68684e-25
3.59525e-25
1.10792e-24
1.8974e-24
2.76329e-24
2.46176e-24
2.24925e-24
2.10308e-24
2.02786e-24
2.02785e-24
2.13445e-24
1.07138e-24
1.34117e-24
1.66637e-24
2.0761e-24
2.5715e-24
3.18158e-24
2.65662e-24
2.24785e-24
1.92815e-24
1.69917e-24
1.56356e-24
1.52487e-24
1.58755e-24
1.75695e-24
2.0391e-24
2.44043e-24
2.9674e-24
3.62597e-24
4.42111e-24
5.35676e-24
6.49133e-24
5.32344e-24
4.35078e-24
3.51116e-24
2.79664e-24
2.19795e-24
1.70453e-24
1.30507e-24
9.88083e-25
7.42628e-25
5.58963e-25
4.29836e-25
3.32322e-25
2.30479e-25
1.1061e-25
4.70957e-26
1.51537e-26
4.32456e-27
1.19332e-27
3.29885e-28
7.34644e-29
6.69435e-29
5.65435e-29
4.6671e-29
3.82684e-29
3.12369e-29
2.53502e-29
2.04181e-29
1.62768e-29
1.27804e-29
9.8012e-30
7.22552e-30
4.95161e-30
2.88682e-30
9.44893e-31
)
;
    }
    top
    {
        type            fixedValue;
        value           uniform 0;
    }
    bottom
    {
        type            fixedValue;
        value           uniform 0;
    }
    frontAndBackPlanes
    {
        type            empty;
        value           nonuniform List<scalar> 0();
    }
}


// ************************************************************************* //
