/*--------------------------------*- C++ -*----------------------------------*\
| =========                 |                                                 |
| \\      /  F ield         | OpenFOAM: The Open Source CFD Toolbox           |
|  \\    /   O peration     | Version:  2206                                  |
|   \\  /    A nd           | Website:  www.openfoam.com                      |
|    \\/     M anipulation  |                                                 |
\*---------------------------------------------------------------------------*/
FoamFile
{
    version     2.0;
    format      ascii;
    arch        "LSB;label=32;scalar=64";
    class       surfaceScalarField;
    location    "140";
    object      phi.a;
}
// * * * * * * * * * * * * * * * * * * * * * * * * * * * * * * * * * * * * * //

dimensions      [0 3 -1 0 0 0 0];

oriented        oriented;

internalField   nonuniform List<scalar> 
119
(
-9.3452e-15
-2.09227e-14
-3.42465e-14
-5.11332e-14
-7.34628e-14
-1.00046e-13
-1.2746e-13
-1.42516e-13
-1.59158e-13
-1.2214e-12
-1.83572e-12
-2.12631e-12
-2.25433e-12
-2.301e-12
-2.31637e-12
-2.32124e-12
-2.32272e-12
-2.32315e-12
-2.32326e-12
-2.3233e-12
-2.32331e-12
-2.32331e-12
-2.32331e-12
-2.32331e-12
-2.32331e-12
-2.32331e-12
-2.32331e-12
-2.32331e-12
-2.32331e-12
-2.32331e-12
-2.32331e-12
-2.32331e-12
-2.32331e-12
-2.32331e-12
-2.32331e-12
-2.32331e-12
-2.32331e-12
-2.32331e-12
-2.32331e-12
-2.32331e-12
-2.32331e-12
-2.32331e-12
-2.32331e-12
-2.32331e-12
-2.32331e-12
-2.32331e-12
-2.32331e-12
-2.32331e-12
-2.32331e-12
-2.32331e-12
-2.32331e-12
-2.32331e-12
-2.32331e-12
-2.32331e-12
-2.32331e-12
-2.32331e-12
-2.32331e-12
-2.32331e-12
-2.32331e-12
-2.32331e-12
-2.32331e-12
-2.32331e-12
-2.32331e-12
-2.32331e-12
-2.32331e-12
-2.32331e-12
-2.32331e-12
-2.32331e-12
-2.32331e-12
-2.32331e-12
-2.32331e-12
-2.32331e-12
-2.32331e-12
-2.32331e-12
-2.32331e-12
-2.32331e-12
-2.32331e-12
-2.32331e-12
-2.32331e-12
-2.32331e-12
-2.32331e-12
-2.32331e-12
-2.32331e-12
-2.32331e-12
-2.32331e-12
-2.32331e-12
-2.32331e-12
-2.32331e-12
-2.32331e-12
-2.32331e-12
-2.32331e-12
-2.32331e-12
-2.32331e-12
-2.32331e-12
-2.32331e-12
-2.32331e-12
-2.32331e-12
-2.32331e-12
-2.32335e-12
-2.32323e-12
-2.32296e-12
-2.32118e-12
-2.33544e-12
-2.45827e-12
-1.70354e-12
-1.78237e-11
-9.6428e-11
-9.68718e-11
-5.92075e-11
-7.58564e-11
-7.89302e-11
-8.14863e-11
-8.2391e-11
-8.23955e-11
-8.23957e-11
-8.23956e-11
-8.23947e-11
-8.23783e-11
-8.18336e-11
)
;

boundaryField
{
    inlet
    {
        type            cyclic;
        value           nonuniform List<scalar> 
120
(
3.59353e-28
1.10021e-27
1.89015e-27
2.75427e-27
3.69963e-27
4.70818e-27
5.78204e-27
6.69891e-27
7.20556e-27
7.42021e-27
6.93609e-25
1.16852e-24
6.68512e-25
4.0498e-25
2.97193e-25
2.75754e-25
2.97401e-25
3.36738e-25
3.74314e-25
4.04106e-25
4.32465e-25
4.62581e-25
4.90282e-25
5.07455e-25
-6.78435e-26
-6.65542e-25
-1.28817e-24
-1.65277e-24
-2.05158e-24
-2.487e-24
-2.38365e-24
-1.74308e-24
-1.14395e-24
-5.88354e-25
-7.59833e-26
3.91838e-25
2.37745e-25
-5.35824e-25
-7.76427e-25
-1.62943e-24
-1.37053e-24
-1.72269e-24
-1.53686e-24
-1.38531e-24
-1.26969e-24
-1.75913e-24
-1.12275e-24
-5.05128e-25
6.64776e-25
6.61759e-25
6.37295e-25
5.95852e-25
5.36603e-25
4.57236e-25
3.52079e-25
-3.59662e-25
-1.10792e-24
-1.89713e-24
-2.73009e-24
-2.46149e-24
-2.24925e-24
-2.10309e-24
-2.02786e-24
-2.02759e-24
-2.10152e-24
-1.10432e-24
-1.34144e-24
-1.66637e-24
-2.0761e-24
-2.57123e-24
-3.14837e-24
-2.65635e-24
-2.24785e-24
-1.92815e-24
-1.69917e-24
-1.56356e-24
-1.52487e-24
-1.58755e-24
-1.75695e-24
-2.0391e-24
-2.44044e-24
-2.96741e-24
-3.62597e-24
-4.42111e-24
-5.35623e-24
-6.42491e-24
-5.3229e-24
-4.35077e-24
-3.51116e-24
-2.79664e-24
-2.19795e-24
-1.70454e-24
-1.30507e-24
-9.88085e-25
-7.42632e-25
-5.58971e-25
-4.30049e-25
-3.32969e-25
-2.3149e-25
-1.10734e-25
-4.71332e-26
-1.51535e-26
-4.32509e-27
-1.19323e-27
-3.29864e-28
-7.34579e-29
-6.69486e-29
-5.62423e-29
-4.47897e-29
-2.83728e-29
-1.84615e-29
-5.34891e-30
-1.85718e-31
-1.59625e-31
-1.5802e-31
-1.5758e-31
-1.57452e-31
-1.57619e-31
-1.60268e-31
-1.7944e-31
)
;
    }
    outlet
    {
        type            cyclic;
        value           nonuniform List<scalar> 
120
(
-3.59353e-28
-1.10021e-27
-1.89015e-27
-2.75427e-27
-3.69963e-27
-4.70818e-27
-5.78204e-27
-6.69891e-27
-7.20556e-27
-7.42021e-27
-6.93609e-25
-1.16852e-24
-6.68512e-25
-4.0498e-25
-2.97193e-25
-2.75754e-25
-2.97401e-25
-3.36738e-25
-3.74314e-25
-4.04106e-25
-4.32465e-25
-4.62581e-25
-4.90282e-25
-5.07455e-25
6.78435e-26
6.65542e-25
1.28817e-24
1.65277e-24
2.05158e-24
2.487e-24
2.38365e-24
1.74308e-24
1.14395e-24
5.88354e-25
7.59833e-26
-3.91838e-25
-2.37745e-25
5.35824e-25
7.76427e-25
1.62943e-24
1.37053e-24
1.72269e-24
1.53686e-24
1.38531e-24
1.26969e-24
1.75913e-24
1.12275e-24
5.05128e-25
-6.64776e-25
-6.61759e-25
-6.37295e-25
-5.95852e-25
-5.36603e-25
-4.57236e-25
-3.52079e-25
3.59662e-25
1.10792e-24
1.89713e-24
2.73009e-24
2.46149e-24
2.24925e-24
2.10309e-24
2.02786e-24
2.02759e-24
2.10152e-24
1.10432e-24
1.34144e-24
1.66637e-24
2.0761e-24
2.57123e-24
3.14837e-24
2.65635e-24
2.24785e-24
1.92815e-24
1.69917e-24
1.56356e-24
1.52487e-24
1.58755e-24
1.75695e-24
2.0391e-24
2.44044e-24
2.96741e-24
3.62597e-24
4.42111e-24
5.35623e-24
6.42491e-24
5.3229e-24
4.35077e-24
3.51116e-24
2.79664e-24
2.19795e-24
1.70454e-24
1.30507e-24
9.88085e-25
7.42632e-25
5.58971e-25
4.30049e-25
3.32969e-25
2.3149e-25
1.10734e-25
4.71332e-26
1.51535e-26
4.32509e-27
1.19323e-27
3.29864e-28
7.34579e-29
6.69486e-29
5.62423e-29
4.47897e-29
2.83728e-29
1.84615e-29
5.34891e-30
1.85718e-31
1.59625e-31
1.5802e-31
1.5758e-31
1.57452e-31
1.57619e-31
1.60268e-31
1.7944e-31
)
;
    }
    top
    {
        type            fixedValue;
        value           uniform 0;
    }
    bottom
    {
        type            fixedValue;
        value           uniform 0;
    }
    frontAndBackPlanes
    {
        type            empty;
        value           nonuniform List<scalar> 0();
    }
}


// ************************************************************************* //
