/*--------------------------------*- C++ -*----------------------------------*\
| =========                 |                                                 |
| \\      /  F ield         | OpenFOAM: The Open Source CFD Toolbox           |
|  \\    /   O peration     | Version:  2206                                  |
|   \\  /    A nd           | Website:  www.openfoam.com                      |
|    \\/     M anipulation  |                                                 |
\*---------------------------------------------------------------------------*/
FoamFile
{
    version     2.0;
    format      ascii;
    arch        "LSB;label=32;scalar=64";
    class       volVectorField;
    location    "140";
    object      U.a;
}
// * * * * * * * * * * * * * * * * * * * * * * * * * * * * * * * * * * * * * //

dimensions      [0 1 -1 0 0 0 0];

internalField   nonuniform List<vector> 
120
(
(-1.19784e-21 1.58541e-09 0)
(-3.66737e-21 -3.76945e-08 0)
(-6.30051e-21 -7.85048e-08 0)
(-9.1809e-21 -1.11677e-07 0)
(-1.23321e-20 -1.72279e-07 0)
(-1.56939e-20 -2.35754e-07 0)
(-1.92735e-20 -3.20011e-07 0)
(-2.23297e-20 -3.88461e-07 0)
(-2.40185e-20 -4.03516e-07 0)
(-2.4734e-20 -3.87374e-07 0)
(-2.31203e-18 -2.68809e-05 0)
(-3.89508e-18 -3.09921e-06 0)
(-2.22837e-18 -4.57639e-06 0)
(-1.34993e-18 -5.96895e-06 0)
(-9.90642e-19 -6.32627e-06 0)
(-9.19179e-19 -6.41307e-06 0)
(-9.91338e-19 -6.44183e-06 0)
(-1.12246e-18 -6.45089e-06 0)
(-1.24771e-18 -6.45309e-06 0)
(-1.34702e-18 -6.45353e-06 0)
(-1.44155e-18 -6.45362e-06 0)
(-1.54194e-18 -6.45364e-06 0)
(-1.63427e-18 -6.45364e-06 0)
(-1.69152e-18 -6.45364e-06 0)
(2.26145e-19 -6.45364e-06 0)
(2.21847e-18 -6.45364e-06 0)
(4.29391e-18 -6.45364e-06 0)
(5.50925e-18 -6.45364e-06 0)
(6.83859e-18 -6.45364e-06 0)
(8.29e-18 -6.45364e-06 0)
(7.94549e-18 -6.45364e-06 0)
(5.81027e-18 -6.45364e-06 0)
(3.81317e-18 -6.45364e-06 0)
(1.96118e-18 -6.45364e-06 0)
(2.53278e-19 -6.45364e-06 0)
(-1.30613e-18 -6.45364e-06 0)
(-7.92483e-19 -6.45364e-06 0)
(1.78608e-18 -6.45364e-06 0)
(2.58809e-18 -6.45364e-06 0)
(5.43143e-18 -6.45364e-06 0)
(4.56845e-18 -6.45364e-06 0)
(5.74229e-18 -6.45364e-06 0)
(5.12288e-18 -6.45364e-06 0)
(4.6177e-18 -6.45364e-06 0)
(4.23228e-18 -6.45364e-06 0)
(5.86376e-18 -6.45364e-06 0)
(3.74251e-18 -6.45364e-06 0)
(1.68376e-18 -6.45364e-06 0)
(-2.21592e-18 -6.45364e-06 0)
(-2.20586e-18 -6.45364e-06 0)
(-2.12432e-18 -6.45364e-06 0)
(-1.98617e-18 -6.45364e-06 0)
(-1.78868e-18 -6.45364e-06 0)
(-1.52412e-18 -6.45364e-06 0)
(-1.1736e-18 -6.45364e-06 0)
(1.19887e-18 -6.45364e-06 0)
(3.69308e-18 -6.45364e-06 0)
(6.32375e-18 -6.45364e-06 0)
(9.10029e-18 -6.45364e-06 0)
(8.20497e-18 -6.45364e-06 0)
(7.49751e-18 -6.45364e-06 0)
(7.01028e-18 -6.45364e-06 0)
(6.75955e-18 -6.45364e-06 0)
(6.75862e-18 -6.45364e-06 0)
(7.00506e-18 -6.45364e-06 0)
(3.68106e-18 -6.45364e-06 0)
(4.47146e-18 -6.45364e-06 0)
(5.55457e-18 -6.45364e-06 0)
(6.92032e-18 -6.45364e-06 0)
(8.57077e-18 -6.45364e-06 0)
(1.04946e-17 -6.45364e-06 0)
(8.8545e-18 -6.45364e-06 0)
(7.49284e-18 -6.45364e-06 0)
(6.42716e-18 -6.45364e-06 0)
(5.66389e-18 -6.45364e-06 0)
(5.21187e-18 -6.45364e-06 0)
(5.0829e-18 -6.45364e-06 0)
(5.29185e-18 -6.45364e-06 0)
(5.85651e-18 -6.45364e-06 0)
(6.797e-18 -6.45364e-06 0)
(8.13479e-18 -6.45364e-06 0)
(9.89135e-18 -6.45364e-06 0)
(1.20866e-17 -6.45364e-06 0)
(1.4737e-17 -6.45364e-06 0)
(1.78541e-17 -6.45364e-06 0)
(2.14164e-17 -6.45364e-06 0)
(1.7743e-17 -6.45364e-06 0)
(1.45026e-17 -6.45364e-06 0)
(1.17039e-17 -6.45364e-06 0)
(9.32214e-18 -6.45364e-06 0)
(7.32651e-18 -6.45364e-06 0)
(5.68178e-18 -6.45364e-06 0)
(4.35024e-18 -6.45364e-06 0)
(3.29362e-18 -6.45364e-06 0)
(2.47544e-18 -6.45364e-06 0)
(1.86324e-18 -6.45364e-06 0)
(1.4335e-18 -6.45369e-06 0)
(1.1099e-18 -6.45372e-06 0)
(7.71633e-19 -6.45259e-06 0)
(3.69114e-19 -6.43932e-06 0)
(1.57111e-19 -6.48123e-06 0)
(5.05117e-20 -6.84105e-06 0)
(1.4417e-20 -6.70997e-06 0)
(3.97745e-21 3.81261e-06 0)
(1.09955e-21 1.16098e-05 0)
(2.4486e-22 -0.000250942 0)
(2.23162e-22 -0.000211517 0)
(1.87474e-22 -0.000379802 0)
(1.49299e-22 -0.000119087 0)
(9.45761e-23 -0.000206922 0)
(6.15383e-23 -0.000214674 0)
(1.78297e-23 -0.000223848 0)
(6.19059e-25 -0.000228852 0)
(5.32084e-25 -0.000228876 0)
(5.26735e-25 -0.000228877 0)
(5.25267e-25 -0.000228877 0)
(5.24839e-25 -0.000228876 0)
(5.25397e-25 -0.000228872 0)
(5.34228e-25 -0.000228785 0)
(5.98134e-25 -0.000225846 0)
)
;

boundaryField
{
    inlet
    {
        type            cyclic;
    }
    outlet
    {
        type            cyclic;
    }
    top
    {
        type            fixedValue;
        value           uniform (0 0 0);
    }
    bottom
    {
        type            fixedValue;
        value           uniform (0 0 0);
    }
    frontAndBackPlanes
    {
        type            empty;
    }
}


// ************************************************************************* //
