/*--------------------------------*- C++ -*----------------------------------*\
| =========                 |                                                 |
| \\      /  F ield         | OpenFOAM: The Open Source CFD Toolbox           |
|  \\    /   O peration     | Version:  2206                                  |
|   \\  /    A nd           | Website:  www.openfoam.com                      |
|    \\/     M anipulation  |                                                 |
\*---------------------------------------------------------------------------*/
FoamFile
{
    version     2.0;
    format      ascii;
    arch        "LSB;label=32;scalar=64";
    class       volVectorField;
    location    "140";
    object      U.b;
}
// * * * * * * * * * * * * * * * * * * * * * * * * * * * * * * * * * * * * * //

dimensions      [0 1 -1 0 0 0 0];

internalField   nonuniform List<vector> 
120
(
(-1.19783e-21 3.2839e-08 0)
(-3.66675e-21 6.48072e-08 0)
(-6.16811e-21 1.07389e-07 0)
(-9.18026e-21 1.76386e-07 0)
(-1.23321e-20 2.46298e-07 0)
(-1.56897e-20 3.46475e-07 0)
(-1.81771e-20 4.41226e-07 0)
(-2.23306e-20 5.13405e-07 0)
(-2.5477e-20 5.68281e-07 0)
(-3.78879e-20 3.17084e-06 0)
(-2.312e-18 -1.66114e-05 0)
(-3.87768e-18 8.43711e-06 0)
(-2.22841e-18 7.81625e-06 0)
(-1.34998e-18 6.77482e-06 0)
(-9.90687e-19 6.53074e-06 0)
(-9.19176e-19 6.479e-06 0)
(-9.91161e-19 6.4611e-06 0)
(-1.12181e-18 6.45524e-06 0)
(-1.24687e-18 6.45389e-06 0)
(-1.34665e-18 6.45366e-06 0)
(-1.44147e-18 6.45364e-06 0)
(-1.54194e-18 6.45364e-06 0)
(-1.63473e-18 6.45364e-06 0)
(-1.74687e-18 6.45364e-06 0)
(2.25692e-19 6.45364e-06 0)
(2.21869e-18 6.45364e-06 0)
(4.32158e-18 6.45364e-06 0)
(5.50947e-18 6.45364e-06 0)
(6.83904e-18 6.45364e-06 0)
(8.3458e-18 6.45365e-06 0)
(8.00129e-18 6.45364e-06 0)
(5.81073e-18 6.45364e-06 0)
(3.81317e-18 6.45364e-06 0)
(1.96117e-18 6.45364e-06 0)
(2.52809e-19 6.45364e-06 0)
(-1.36193e-18 6.45364e-06 0)
(-8.4783e-19 6.45364e-06 0)
(1.84052e-18 6.45364e-06 0)
(2.53409e-18 6.45364e-06 0)
(5.54123e-18 6.45364e-06 0)
(4.51445e-18 6.45364e-06 0)
(5.79719e-18 6.45364e-06 0)
(5.12332e-18 6.45364e-06 0)
(4.61725e-18 6.45364e-06 0)
(4.17784e-18 6.45365e-06 0)
(5.97401e-18 6.45364e-06 0)
(3.74385e-18 6.45364e-06 0)
(1.73821e-18 6.45364e-06 0)
(-2.32616e-18 6.45364e-06 0)
(-2.20677e-18 6.45364e-06 0)
(-2.12433e-18 6.45364e-06 0)
(-1.98618e-18 6.45364e-06 0)
(-1.78868e-18 6.45364e-06 0)
(-1.52457e-18 6.45364e-06 0)
(-1.22895e-18 6.45364e-06 0)
(1.19842e-18 6.45364e-06 0)
(3.69308e-18 6.45364e-06 0)
(6.32466e-18 6.45364e-06 0)
(9.21098e-18 6.45364e-06 0)
(8.20586e-18 6.45364e-06 0)
(7.49752e-18 6.45364e-06 0)
(7.01028e-18 6.45364e-06 0)
(6.75955e-18 6.45364e-06 0)
(6.75951e-18 6.45364e-06 0)
(7.11485e-18 6.45364e-06 0)
(3.57126e-18 6.45364e-06 0)
(4.47055e-18 6.45364e-06 0)
(5.55455e-18 6.45364e-06 0)
(6.92032e-18 6.45364e-06 0)
(8.57167e-18 6.45364e-06 0)
(1.06053e-17 6.45364e-06 0)
(8.8554e-18 6.45364e-06 0)
(7.49283e-18 6.45364e-06 0)
(6.42715e-18 6.45364e-06 0)
(5.66388e-18 6.45364e-06 0)
(5.21187e-18 6.45364e-06 0)
(5.08289e-18 6.45364e-06 0)
(5.29184e-18 6.45364e-06 0)
(5.8565e-18 6.45364e-06 0)
(6.79699e-18 6.45364e-06 0)
(8.13477e-18 6.45364e-06 0)
(9.89134e-18 6.45364e-06 0)
(1.20866e-17 6.45364e-06 0)
(1.4737e-17 6.45364e-06 0)
(1.78559e-17 6.45364e-06 0)
(2.16378e-17 6.45364e-06 0)
(1.77448e-17 6.45364e-06 0)
(1.45026e-17 6.45364e-06 0)
(1.17039e-17 6.45364e-06 0)
(9.32213e-18 6.45364e-06 0)
(7.3265e-18 6.45364e-06 0)
(5.68178e-18 6.45364e-06 0)
(4.35023e-18 6.45364e-06 0)
(3.29361e-18 6.45364e-06 0)
(2.47543e-18 6.45365e-06 0)
(1.86321e-18 6.45364e-06 0)
(1.43279e-18 6.45359e-06 0)
(1.10774e-18 6.45356e-06 0)
(7.68263e-19 6.45471e-06 0)
(3.68701e-19 6.468e-06 0)
(1.56986e-19 6.42536e-06 0)
(5.05124e-20 6.07294e-06 0)
(1.44152e-20 6.18953e-06 0)
(3.97774e-21 1.6642e-05 0)
(1.09962e-21 2.50338e-05 0)
(2.44881e-22 -0.000240894 0)
(2.23145e-22 -6.25658e-05 0)
(1.88478e-22 4.35575e-05 0)
(1.5557e-22 8.73501e-06 0)
(1.27561e-22 -2.68819e-06 0)
(1.04123e-22 -1.16472e-06 0)
(8.45005e-23 1.34305e-07 0)
(6.80605e-23 1.11359e-07 0)
(5.42559e-23 5.63719e-09 0)
(4.26014e-23 -6.44326e-09 0)
(3.26707e-23 -1.38531e-09 0)
(2.40851e-23 2.8495e-10 0)
(1.65054e-23 1.39341e-10 0)
(9.62272e-24 -8.07187e-12 0)
(3.14964e-24 -9.1175e-12 0)
)
;

boundaryField
{
    inlet
    {
        type            cyclic;
    }
    outlet
    {
        type            cyclic;
    }
    top
    {
        type            fixedValue;
        value           uniform (0 0 0);
    }
    bottom
    {
        type            fixedValue;
        value           uniform (0 0 0);
    }
    frontAndBackPlanes
    {
        type            empty;
    }
}


// ************************************************************************* //
