/*--------------------------------*- C++ -*----------------------------------*\
| =========                 |                                                 |
| \\      /  F ield         | OpenFOAM: The Open Source CFD Toolbox           |
|  \\    /   O peration     | Version:  2206                                  |
|   \\  /    A nd           | Website:  www.openfoam.com                      |
|    \\/     M anipulation  |                                                 |
\*---------------------------------------------------------------------------*/
FoamFile
{
    version     2.0;
    format      ascii;
    arch        "LSB;label=32;scalar=64";
    class       volScalarField;
    location    "1";
    object      nuEffb;
}
// * * * * * * * * * * * * * * * * * * * * * * * * * * * * * * * * * * * * * //

dimensions      [0 2 -1 0 0 0 0];

internalField   nonuniform List<scalar> 
120
(
1e-06
1e-06
1e-06
1e-06
1e-06
1e-06
1e-06
1e-06
1e-06
1e-06
1e-06
1e-06
1e-06
1e-06
1e-06
1e-06
1e-06
1e-06
1e-06
1e-06
1e-06
1e-06
1e-06
1e-06
1e-06
1e-06
1e-06
1e-06
1e-06
1e-06
1e-06
1e-06
1e-06
1e-06
1e-06
1e-06
1e-06
1e-06
1.00001e-06
1.00001e-06
1.00003e-06
1.00007e-06
1.00005e-06
1.0001e-06
1.00024e-06
1.00031e-06
1.00152e-06
1.07073e-06
2.5071e-06
2.57413e-05
6.3435e-05
7.92522e-05
9.89873e-05
0.000113311
0.000124522
0.000132382
0.000137187
0.000139122
0.00013839
0.00013519
0.000129714
0.000122152
0.000112689
0.000101506
8.878e-05
7.46516e-05
5.93164e-05
4.23828e-05
1.89938e-05
3.1145e-06
8.02073e-06
7.48955e-06
7.43808e-06
7.70325e-06
7.78944e-06
7.63915e-06
7.603e-06
7.71545e-06
7.70435e-06
7.62399e-06
7.66208e-06
7.68217e-06
7.62236e-06
7.63174e-06
7.64624e-06
7.60432e-06
7.61093e-06
7.61318e-06
7.58246e-06
7.59039e-06
7.58094e-06
7.56473e-06
7.57217e-06
7.55459e-06
7.5484e-06
7.54673e-06
7.5335e-06
7.53397e-06
7.52253e-06
7.51665e-06
7.51365e-06
7.50549e-06
7.5071e-06
7.4989e-06
7.49138e-06
7.4864e-06
7.48676e-06
7.48953e-06
7.4776e-06
7.4507e-06
7.43054e-06
7.47691e-06
7.54701e-06
7.50476e-06
7.37186e-06
7.35628e-06
7.45502e-06
7.51301e-06
7.27587e-06
1.08622e-05
)
;

boundaryField
{
    inlet
    {
        type            cyclic;
    }
    outlet
    {
        type            cyclic;
    }
    top
    {
        type            calculated;
        value           uniform 1e-06;
    }
    bottom
    {
        type            calculated;
        value           uniform 1e-06;
    }
    frontAndBackPlanes
    {
        type            empty;
    }
}


// ************************************************************************* //
