/*--------------------------------*- C++ -*----------------------------------*\
| =========                 |                                                 |
| \\      /  F ield         | OpenFOAM: The Open Source CFD Toolbox           |
|  \\    /   O peration     | Version:  2206                                  |
|   \\  /    A nd           | Website:  www.openfoam.com                      |
|    \\/     M anipulation  |                                                 |
\*---------------------------------------------------------------------------*/
FoamFile
{
    version     2.0;
    format      ascii;
    arch        "LSB;label=32;scalar=64";
    class       volScalarField;
    location    "1";
    object      nuEffa;
}
// * * * * * * * * * * * * * * * * * * * * * * * * * * * * * * * * * * * * * //

dimensions      [0 2 -1 0 0 0 0];

internalField   nonuniform List<scalar> 
120
(
1.98009e-07
2.04957e-07
2.05544e-07
2.1169e-07
2.34082e-07
2.73241e-07
3.29875e-07
3.86954e-07
3.92179e-07
2.92406e-07
1.38969e-07
4.52338e-08
2.73078e-08
2.72686e-08
2.72415e-08
2.72165e-08
2.71917e-08
2.71671e-08
2.71427e-08
2.71184e-08
5.54722e-08
5.55649e-07
2.69617e-06
7.87123e-06
1.66403e-05
2.9236e-05
4.62874e-05
6.84474e-05
9.59763e-05
0.000128789
0.000166651
0.00020959
0.000258345
0.000314104
0.000377999
0.000450594
0.000532027
0.000622916
0.000727127
0.000853091
0.000983093
0.00110122
0.00120654
0.00146484
0.0015438
0.00177597
0.00191875
0.00205094
0.000617464
4.97151e-05
5.58976e-05
0.000259235
0.000266262
8.99655e-17
8.40332e-35
9.19547e-47
1.47357e-58
1.32329e-69
2.71363e-80
4.88213e-91
9.85043e-102
2.14299e-112
4.07252e-123
7.10144e-134
1.03546e-144
1.46571e-155
2.68996e-166
4.61629e-177
6.67242e-188
1.28996e-198
1.43414e-203
1.00823e-209
5.12798e-211
4.24202e-216
2.23279e-217
9.38961e-220
2.29634e-221
9.58746e-223
4.01736e-224
1.62681e-225
6.38447e-227
2.4261e-228
8.91709e-230
3.16658e-231
1.08515e-232
3.58405e-234
1.13931e-235
3.48063e-237
1.02028e-238
2.86468e-240
7.68968e-242
1.96931e-243
4.80079e-245
1.11126e-246
2.4357e-248
5.03945e-250
9.80852e-252
1.78883e-253
3.04347e-255
4.8057e-257
7.00134e-259
9.34519e-261
1.13346e-262
1.23662e-264
1.19874e-266
1.0162e-268
7.38094e-271
4.46483e-273
2.15994e-275
7.83078e-278
1.89258e-280
2.28215e-283
1.74049e-291
6.50759e-300
1.82719e-308
6.40981e-317
3.7549e-321
0
0
0
)
;

boundaryField
{
    inlet
    {
        type            cyclic;
    }
    outlet
    {
        type            cyclic;
    }
    top
    {
        type            calculated;
        value           uniform 0;
    }
    bottom
    {
        type            calculated;
        value           uniform 1.98009e-07;
    }
    frontAndBackPlanes
    {
        type            empty;
    }
}


// ************************************************************************* //
