/*--------------------------------*- C++ -*----------------------------------*\
| =========                 |                                                 |
| \\      /  F ield         | OpenFOAM: The Open Source CFD Toolbox           |
|  \\    /   O peration     | Version:  2206                                  |
|   \\  /    A nd           | Website:  www.openfoam.com                      |
|    \\/     M anipulation  |                                                 |
\*---------------------------------------------------------------------------*/
FoamFile
{
    version     2.0;
    format      ascii;
    arch        "LSB;label=32;scalar=64";
    class       volScalarField;
    location    "1";
    object      pa;
}
// * * * * * * * * * * * * * * * * * * * * * * * * * * * * * * * * * * * * * //

dimensions      [1 -1 -2 0 0 0 0];

internalField   nonuniform List<scalar> 
120
(
4.15729e-08
4.48294e-08
4.52716e-08
4.83124e-08
5.94154e-08
8.14249e-08
1.19419e-07
1.65483e-07
1.71356e-07
9.60781e-08
2.18678e-08
2.32896e-09
8.51155e-10
8.49898e-10
8.4903e-10
8.48229e-10
8.47435e-10
8.46647e-10
8.45864e-10
8.45084e-10
3.53917e-09
3.5541e-07
8.37531e-06
7.14452e-05
0.000319588
0.000987391
0.00247737
0.00542293
0.0106839
0.0193324
0.0326916
0.052489
0.081156
0.122083
0.179786
0.259954
0.369697
0.518494
0.721649
1.00505
1.37008
1.81354
2.34964
3.36183
4.16022
5.6365
7.15284
9.00083
3.11776
0.120753
0.00255496
0.00308238
0.000472946
1.40772e-17
1.77557e-41
1.89848e-53
3.04217e-65
2.73209e-76
5.60235e-87
1.00793e-97
2.03364e-108
4.42415e-119
8.40769e-130
1.46607e-140
2.13769e-151
3.02588e-162
5.55328e-173
9.53001e-184
1.37747e-194
2.66301e-205
2.96066e-210
2.08139e-216
1.05861e-217
8.75716e-223
4.60931e-224
1.93836e-226
4.74047e-228
1.97919e-229
8.29323e-231
3.35828e-232
1.31796e-233
5.00825e-235
1.84077e-236
6.5368e-238
2.24009e-239
7.39855e-241
2.35187e-242
7.18501e-244
2.10615e-245
5.91348e-247
1.58735e-248
4.06516e-250
9.91006e-252
2.29392e-253
5.02788e-255
1.04026e-256
2.02471e-258
3.69256e-260
6.28239e-262
9.91999e-264
1.44522e-265
1.92904e-267
2.33969e-269
2.55262e-271
2.47443e-273
2.09762e-275
1.52356e-277
9.2162e-280
4.45849e-282
1.6164e-284
3.90661e-287
4.71071e-290
3.59264e-298
1.34327e-306
3.77159e-315
1.4822e-323
0
0
0
0
)
;

boundaryField
{
    inlet
    {
        type            cyclic;
    }
    outlet
    {
        type            cyclic;
    }
    top
    {
        type            slip;
    }
    bottom
    {
        type            zeroGradient;
    }
    frontAndBackPlanes
    {
        type            empty;
    }
}


// ************************************************************************* //
