/*--------------------------------*- C++ -*----------------------------------*\
| =========                 |                                                 |
| \\      /  F ield         | OpenFOAM: The Open Source CFD Toolbox           |
|  \\    /   O peration     | Version:  2206                                  |
|   \\  /    A nd           | Website:  www.openfoam.com                      |
|    \\/     M anipulation  |                                                 |
\*---------------------------------------------------------------------------*/
FoamFile
{
    version     2.0;
    format      ascii;
    arch        "LSB;label=32;scalar=64";
    class       volScalarField;
    location    "1";
    object      pff;
}
// * * * * * * * * * * * * * * * * * * * * * * * * * * * * * * * * * * * * * //

dimensions      [1 -1 -2 0 0 0 0];

internalField   nonuniform List<scalar> 
120
(
469.667
456.406
448.131
436.139
425.029
414.191
402.771
390.202
376.316
362.037
349.74
341.553
337.3
335.167
333.698
332.349
331.015
329.694
328.385
327.085
325.792
324.504
323.218
321.933
320.645
319.357
317.98
316.464
313.547
306.621
293.061
273.562
252.345
232.685
215.196
198.324
180.503
161.928
146.245
138.196
121.692
93.4522
63.4398
73.8956
42.0125
37.0075
23.2456
13.1699
0
0
0
0
0
0
0
0
0
0
0
0
0
0
0
0
0
0
0
0
0
0
0
0
0
0
0
0
0
0
0
0
0
0
0
0
0
0
0
0
0
0
0
0
0
0
0
0
0
0
0
0
0
0
0
0
0
0
0
0
0
0
0
0
0
0
0
0
0
0
0
0
)
;

boundaryField
{
    inlet
    {
        type            cyclic;
    }
    outlet
    {
        type            cyclic;
    }
    top
    {
        type            calculated;
        value           uniform 0;
    }
    bottom
    {
        type            calculated;
        value           uniform 469.667;
    }
    frontAndBackPlanes
    {
        type            empty;
    }
}


// ************************************************************************* //
