/*--------------------------------*- C++ -*----------------------------------*\
| =========                 |                                                 |
| \\      /  F ield         | OpenFOAM: The Open Source CFD Toolbox           |
|  \\    /   O peration     | Version:  2206                                  |
|   \\  /    A nd           | Website:  www.openfoam.com                      |
|    \\/     M anipulation  |                                                 |
\*---------------------------------------------------------------------------*/
FoamFile
{
    version     2.0;
    format      ascii;
    arch        "LSB;label=32;scalar=64";
    class       surfaceScalarField;
    location    "1";
    object      phi.a;
}
// * * * * * * * * * * * * * * * * * * * * * * * * * * * * * * * * * * * * * //

dimensions      [0 3 -1 0 0 0 0];

oriented        oriented;

internalField   nonuniform List<scalar> 
119
(
-9.30636e-12
-1.8806e-11
-2.84081e-11
-3.80801e-11
-4.80289e-11
-5.85042e-11
-6.9991e-11
-8.30813e-11
-9.78031e-11
-1.12505e-10
-1.24106e-10
-1.30911e-10
-1.34116e-10
-1.35784e-10
-1.37013e-10
-1.3804e-10
-1.38864e-10
-1.39487e-10
-1.39911e-10
-1.40138e-10
-1.40167e-10
-1.4e-10
-1.39638e-10
-1.39082e-10
-1.38331e-10
-1.37386e-10
-1.3625e-10
-1.34758e-10
-1.32201e-10
-1.27269e-10
-1.19113e-10
-1.08543e-10
-9.72712e-11
-8.62705e-11
-7.55303e-11
-6.4757e-11
-5.36074e-11
-4.10056e-11
-2.40035e-11
-1.6186e-12
1.78562e-11
2.68919e-11
2.98815e-11
3.1884e-11
3.28369e-11
3.29679e-11
2.99644e-11
-3.49748e-12
-1.6034e-09
-5.78778e-09
-7.08599e-09
-5.12634e-08
-8.02447e-07
-1.65788e-06
-1.79958e-06
-1.79985e-06
-1.79964e-06
-1.79981e-06
-1.79979e-06
-1.79978e-06
-1.79983e-06
-1.79979e-06
-1.79983e-06
-1.7998e-06
-1.79982e-06
-1.79981e-06
-1.79982e-06
-1.79981e-06
-1.79981e-06
-1.79981e-06
-1.79981e-06
-1.79981e-06
-1.79981e-06
-1.79981e-06
-1.79981e-06
-1.79981e-06
-1.79981e-06
-1.79981e-06
-1.79981e-06
-1.79981e-06
-1.79981e-06
-1.79981e-06
-1.79981e-06
-1.79981e-06
-1.79981e-06
-1.79981e-06
-1.79981e-06
-1.79981e-06
-1.79982e-06
-1.79981e-06
-1.79982e-06
-1.79981e-06
-1.79982e-06
-1.79981e-06
-1.79982e-06
-1.79981e-06
-1.79982e-06
-1.79981e-06
-1.79982e-06
-1.79981e-06
-1.79982e-06
-1.79981e-06
-1.79982e-06
-1.79981e-06
-1.79982e-06
-1.79981e-06
-1.79982e-06
-1.79981e-06
-1.79982e-06
-1.79981e-06
-1.79982e-06
-1.79981e-06
-1.79982e-06
-1.79981e-06
-1.79982e-06
-1.79981e-06
-1.79982e-06
-1.79981e-06
-1.79982e-06
)
;

boundaryField
{
    inlet
    {
        type            cyclic;
        value           nonuniform List<scalar> 
120
(
-1.04804e-12
-3.16732e-12
-5.27412e-12
-7.33414e-12
-9.37523e-12
-1.14355e-11
-1.35764e-11
-1.58865e-11
-1.84128e-11
-2.10008e-11
-2.31933e-11
-2.45748e-11
-2.52412e-11
-2.55685e-11
-2.58199e-11
-2.60748e-11
-2.63337e-11
-2.65967e-11
-2.68643e-11
-2.71366e-11
-2.7414e-11
-2.76968e-11
-2.79852e-11
-2.82795e-11
-2.858e-11
-2.8887e-11
-2.92009e-11
-2.95221e-11
-2.99282e-11
-3.06305e-11
-3.18979e-11
-3.3796e-11
-3.60691e-11
-3.84085e-11
-4.06871e-11
-4.29178e-11
-4.5161e-11
-4.75494e-11
-5.03832e-11
-5.38893e-11
-5.73281e-11
-5.93796e-11
-6.0224e-11
-6.0599e-11
-6.08639e-11
-6.10061e-11
-6.13417e-11
-7.18804e-11
-4.29564e-09
-4.50554e-08
-1.95803e-07
-3.795e-07
-7.26901e-07
-1.24353e-06
-1.34574e-06
-1.35185e-06
-1.35423e-06
-1.35684e-06
-1.35838e-06
-1.35974e-06
-1.3607e-06
-1.36143e-06
-1.36192e-06
-1.36225e-06
-1.36244e-06
-1.36256e-06
-1.36259e-06
-1.3626e-06
-1.36261e-06
-1.36265e-06
-1.36292e-06
-1.36314e-06
-1.3632e-06
-1.36323e-06
-1.36323e-06
-1.36326e-06
-1.36326e-06
-1.36326e-06
-1.36324e-06
-1.36323e-06
-1.36324e-06
-1.36325e-06
-1.36314e-06
-1.3631e-06
-1.36317e-06
-1.36317e-06
-1.36318e-06
-1.3632e-06
-1.36322e-06
-1.36328e-06
-1.36346e-06
-1.3636e-06
-1.36366e-06
-1.36369e-06
-1.36372e-06
-1.36379e-06
-1.36387e-06
-1.36395e-06
-1.364e-06
-1.36409e-06
-1.36422e-06
-1.3643e-06
-1.36434e-06
-1.36437e-06
-1.3644e-06
-1.36445e-06
-1.36447e-06
-1.36449e-06
-1.3645e-06
-1.36453e-06
-1.36456e-06
-1.36458e-06
-1.36463e-06
-1.36465e-06
-1.36466e-06
-1.36467e-06
-1.36467e-06
-1.36468e-06
-1.36468e-06
-1.36486e-06
)
;
    }
    outlet
    {
        type            cyclic;
        value           nonuniform List<scalar> 
120
(
1.04804e-12
3.16732e-12
5.27412e-12
7.33414e-12
9.37523e-12
1.14355e-11
1.35764e-11
1.58865e-11
1.84128e-11
2.10008e-11
2.31933e-11
2.45748e-11
2.52412e-11
2.55685e-11
2.58199e-11
2.60748e-11
2.63337e-11
2.65967e-11
2.68643e-11
2.71366e-11
2.7414e-11
2.76968e-11
2.79852e-11
2.82795e-11
2.858e-11
2.8887e-11
2.92009e-11
2.95221e-11
2.99282e-11
3.06305e-11
3.18979e-11
3.3796e-11
3.60691e-11
3.84085e-11
4.06871e-11
4.29178e-11
4.5161e-11
4.75494e-11
5.03832e-11
5.38893e-11
5.73281e-11
5.93796e-11
6.0224e-11
6.0599e-11
6.08639e-11
6.10061e-11
6.13417e-11
7.18804e-11
4.29564e-09
4.50554e-08
1.95803e-07
3.795e-07
7.26901e-07
1.24353e-06
1.34574e-06
1.35185e-06
1.35423e-06
1.35684e-06
1.35838e-06
1.35974e-06
1.3607e-06
1.36143e-06
1.36192e-06
1.36225e-06
1.36244e-06
1.36256e-06
1.36259e-06
1.3626e-06
1.36261e-06
1.36265e-06
1.36292e-06
1.36314e-06
1.3632e-06
1.36323e-06
1.36323e-06
1.36326e-06
1.36326e-06
1.36326e-06
1.36324e-06
1.36323e-06
1.36324e-06
1.36325e-06
1.36314e-06
1.3631e-06
1.36317e-06
1.36317e-06
1.36318e-06
1.3632e-06
1.36322e-06
1.36328e-06
1.36346e-06
1.3636e-06
1.36366e-06
1.36369e-06
1.36372e-06
1.36379e-06
1.36387e-06
1.36395e-06
1.364e-06
1.36409e-06
1.36422e-06
1.3643e-06
1.36434e-06
1.36437e-06
1.3644e-06
1.36445e-06
1.36447e-06
1.36449e-06
1.3645e-06
1.36453e-06
1.36456e-06
1.36458e-06
1.36463e-06
1.36465e-06
1.36466e-06
1.36467e-06
1.36467e-06
1.36468e-06
1.36468e-06
1.36486e-06
)
;
    }
    top
    {
        type            calculated;
        value           uniform -1.79981e-06;
    }
    bottom
    {
        type            fixedValue;
        value           uniform 0;
    }
    frontAndBackPlanes
    {
        type            empty;
        value           nonuniform List<scalar> 0();
    }
}


// ************************************************************************* //
