/*--------------------------------*- C++ -*----------------------------------*\
| =========                 |                                                 |
| \\      /  F ield         | OpenFOAM: The Open Source CFD Toolbox           |
|  \\    /   O peration     | Version:  2206                                  |
|   \\  /    A nd           | Website:  www.openfoam.com                      |
|    \\/     M anipulation  |                                                 |
\*---------------------------------------------------------------------------*/
FoamFile
{
    version     2.0;
    format      ascii;
    arch        "LSB;label=32;scalar=64";
    class       surfaceScalarField;
    location    "1";
    object      phi.b;
}
// * * * * * * * * * * * * * * * * * * * * * * * * * * * * * * * * * * * * * //

dimensions      [0 3 -1 0 0 0 0];

oriented        oriented;

internalField   nonuniform List<scalar> 
119
(
1.46322e-11
2.95579e-11
4.46346e-11
5.98076e-11
7.54037e-11
9.18126e-11
1.0979e-10
1.30257e-10
1.53251e-10
1.76191e-10
1.94272e-10
2.04869e-10
2.09853e-10
2.12446e-10
2.14356e-10
2.15948e-10
2.17224e-10
2.18186e-10
2.18836e-10
2.19177e-10
2.19209e-10
2.18935e-10
2.18356e-10
2.17472e-10
2.16285e-10
2.14794e-10
2.13003e-10
2.10649e-10
2.06601e-10
1.98789e-10
1.85887e-10
1.69195e-10
1.51434e-10
1.3414e-10
1.17293e-10
1.00422e-10
8.29978e-11
6.33799e-11
3.70534e-11
2.49486e-12
-2.74349e-11
-4.10952e-11
-4.55748e-11
-4.84596e-11
-4.96172e-11
-4.95635e-11
-4.46507e-11
4.63521e-12
1.03462e-09
8.14274e-10
1.84608e-11
7.04538e-12
5.47903e-12
-3.07816e-18
-1.99202e-18
1.80728e-18
4.22233e-18
2.34387e-18
-2.55989e-18
-5.47529e-18
-2.98996e-18
3.02828e-18
6.49337e-18
3.59817e-18
-3.14555e-18
-6.86379e-18
-3.78953e-18
2.84428e-18
6.0946e-18
3.22862e-18
-1.83576e-18
-3.61059e-18
-1.80213e-18
-1.22154e-19
-4.1596e-19
7.63217e-20
2.92395e-18
4.71572e-18
7.96522e-19
-5.44308e-18
-7.0455e-18
-1.28758e-19
5.34809e-18
6.30966e-18
-5.18519e-19
-1.60496e-18
-4.35298e-18
-2.96773e-18
1.33274e-18
8.59413e-19
9.30307e-18
-7.12588e-18
-1.30281e-20
1.2625e-18
-3.81982e-18
2.0627e-18
-8.698e-19
-2.90337e-20
5.1475e-18
-1.67832e-18
-3.74699e-18
2.64984e-18
-6.23908e-19
-4.59915e-18
2.33894e-18
5.10457e-18
-1.11347e-18
-1.67e-18
2.08832e-18
-2.05867e-18
-7.03428e-18
2.82112e-20
9.95859e-18
6.44779e-18
-5.56614e-18
-8.90255e-18
-1.30257e-18
4.38525e-18
1.98873e-18
)
;

boundaryField
{
    inlet
    {
        type            cyclic;
        value           nonuniform List<scalar> 
120
(
-3.81248e-08
-3.87392e-08
-3.87653e-08
-3.87962e-08
-3.88259e-08
-3.88559e-08
-3.88887e-08
-3.89261e-08
-3.89685e-08
-3.90122e-08
-3.90493e-08
-3.90732e-08
-3.90855e-08
-3.90919e-08
-3.90967e-08
-3.91013e-08
-3.91058e-08
-3.91103e-08
-3.91147e-08
-3.91192e-08
-3.91237e-08
-3.91282e-08
-3.91327e-08
-3.91372e-08
-3.91418e-08
-3.91464e-08
-3.91513e-08
-3.91567e-08
-3.91667e-08
-3.91905e-08
-3.92395e-08
-3.93159e-08
-3.94077e-08
-3.95014e-08
-3.95926e-08
-3.9688e-08
-3.97982e-08
-3.99251e-08
-4.00435e-08
-4.01109e-08
-4.02681e-08
-4.0595e-08
-4.10693e-08
-4.08935e-08
-4.159e-08
-4.17595e-08
-4.23709e-08
-4.45656e-08
-1.34177e-07
-6.14582e-07
-8.91243e-07
-1.01812e-06
-1.10327e-06
-1.16321e-06
-1.2079e-06
-1.24223e-06
-1.26915e-06
-1.29055e-06
-1.3077e-06
-1.3215e-06
-1.3326e-06
-1.34152e-06
-1.34863e-06
-1.35424e-06
-1.35859e-06
-1.36187e-06
-1.36426e-06
-1.36587e-06
-1.36681e-06
-1.36688e-06
-1.3667e-06
-1.36656e-06
-1.36643e-06
-1.36631e-06
-1.3662e-06
-1.36609e-06
-1.366e-06
-1.36591e-06
-1.36582e-06
-1.36574e-06
-1.36567e-06
-1.3656e-06
-1.36553e-06
-1.36547e-06
-1.36542e-06
-1.36536e-06
-1.36531e-06
-1.36526e-06
-1.36521e-06
-1.36517e-06
-1.36513e-06
-1.36509e-06
-1.36505e-06
-1.36501e-06
-1.36498e-06
-1.36495e-06
-1.36491e-06
-1.36488e-06
-1.36485e-06
-1.36483e-06
-1.3648e-06
-1.36477e-06
-1.36475e-06
-1.36472e-06
-1.3647e-06
-1.36468e-06
-1.36466e-06
-1.36464e-06
-1.36462e-06
-1.3646e-06
-1.36458e-06
-1.36456e-06
-1.36454e-06
-1.36453e-06
-1.36451e-06
-1.36449e-06
-1.36448e-06
-1.36446e-06
-1.36445e-06
-1.36449e-06
)
;
    }
    outlet
    {
        type            cyclic;
        value           nonuniform List<scalar> 
120
(
3.81248e-08
3.87392e-08
3.87653e-08
3.87962e-08
3.88259e-08
3.88559e-08
3.88887e-08
3.89261e-08
3.89685e-08
3.90122e-08
3.90493e-08
3.90732e-08
3.90855e-08
3.90919e-08
3.90967e-08
3.91013e-08
3.91058e-08
3.91103e-08
3.91147e-08
3.91192e-08
3.91237e-08
3.91282e-08
3.91327e-08
3.91372e-08
3.91418e-08
3.91464e-08
3.91513e-08
3.91567e-08
3.91667e-08
3.91905e-08
3.92395e-08
3.93159e-08
3.94077e-08
3.95014e-08
3.95926e-08
3.9688e-08
3.97982e-08
3.99251e-08
4.00435e-08
4.01109e-08
4.02681e-08
4.0595e-08
4.10693e-08
4.08935e-08
4.159e-08
4.17595e-08
4.23709e-08
4.45656e-08
1.34177e-07
6.14582e-07
8.91243e-07
1.01812e-06
1.10327e-06
1.16321e-06
1.2079e-06
1.24223e-06
1.26915e-06
1.29055e-06
1.3077e-06
1.3215e-06
1.3326e-06
1.34152e-06
1.34863e-06
1.35424e-06
1.35859e-06
1.36187e-06
1.36426e-06
1.36587e-06
1.36681e-06
1.36688e-06
1.3667e-06
1.36656e-06
1.36643e-06
1.36631e-06
1.3662e-06
1.36609e-06
1.366e-06
1.36591e-06
1.36582e-06
1.36574e-06
1.36567e-06
1.3656e-06
1.36553e-06
1.36547e-06
1.36542e-06
1.36536e-06
1.36531e-06
1.36526e-06
1.36521e-06
1.36517e-06
1.36513e-06
1.36509e-06
1.36505e-06
1.36501e-06
1.36498e-06
1.36495e-06
1.36491e-06
1.36488e-06
1.36485e-06
1.36483e-06
1.3648e-06
1.36477e-06
1.36475e-06
1.36472e-06
1.3647e-06
1.36468e-06
1.36466e-06
1.36464e-06
1.36462e-06
1.3646e-06
1.36458e-06
1.36456e-06
1.36454e-06
1.36453e-06
1.36451e-06
1.36449e-06
1.36448e-06
1.36446e-06
1.36445e-06
1.36449e-06
)
;
    }
    top
    {
        type            calculated;
        value           uniform -8.69974e-19;
    }
    bottom
    {
        type            fixedValue;
        value           uniform 0;
    }
    frontAndBackPlanes
    {
        type            empty;
        value           nonuniform List<scalar> 0();
    }
}


// ************************************************************************* //
