/*--------------------------------*- C++ -*----------------------------------*\
| =========                 |                                                 |
| \\      /  F ield         | OpenFOAM: The Open Source CFD Toolbox           |
|  \\    /   O peration     | Version:  2206                                  |
|   \\  /    A nd           | Website:  www.openfoam.com                      |
|    \\/     M anipulation  |                                                 |
\*---------------------------------------------------------------------------*/
FoamFile
{
    version     2.0;
    format      ascii;
    arch        "LSB;label=32;scalar=64";
    class       volTensorField;
    location    "1";
    object      Taua;
}
// * * * * * * * * * * * * * * * * * * * * * * * * * * * * * * * * * * * * * //

dimensions      [1 -1 -2 0 0 0 0];

internalField   nonuniform List<tensor> 
120
(
(38.034 0 0 31.2211 -76.0679 0 0 0 38.034)
(37.0015 0 0 29.4342 -74.0029 0 0 0 37.0015)
(36.3532 0 0 28.3959 -72.7063 0 0 0 36.3532)
(35.406 0 0 27.0229 -70.812 0 0 0 35.406)
(34.5314 0 0 25.6239 -69.0628 0 0 0 34.5314)
(33.6735 0 0 24.3089 -67.347 0 0 0 33.6735)
(32.7714 1.65932e-13 0 22.8572 -65.5427 0 0 0 32.7714)
(31.7854 0 0 21.1385 -63.5708 0 0 0 31.7854)
(30.7038 0 0 19.1995 -61.4076 0 0 0 30.7038)
(29.5957 7.80525e-14 0 17.3215 -59.1913 0 0 0 29.5957)
(28.6429 0 0 15.8843 -57.2858 0 0 0 28.6429)
(28.0056 0 0 15.169 -56.0111 0 0 0 28.0056)
(27.6416 0 0 15.4302 -55.2833 0 0 0 27.6416)
(27.2132 0 0 16.9961 -54.4264 0 0 0 27.2132)
(20.0669 0 0 14.8704 -40.1338 0 0 0 20.0669)
(16.7476 0 0 15.0908 -33.4953 0 0 0 16.7476)
(13.4467 0 0 15.3292 -26.8934 0 0 0 13.4467)
(10.1724 0 0 15.5851 -20.3448 0 0 0 10.1724)
(6.92158 0 0 15.8578 -13.8432 0 0 0 6.92158)
(3.69118 0 0 16.1471 -7.38236 0 0 0 3.69118)
(0.478293 0 0 16.4529 -0.956585 0 0 0 0.478293)
(-2.7199 0 0 16.7751 5.43981 0 0 0 -2.7199)
(-5.90612 0 0 17.114 11.8122 0 0 0 -5.90612)
(-9.08297 0 0 17.4702 18.1659 0 0 0 -9.08297)
(-12.2533 0 0 17.8444 24.5066 0 0 0 -12.2533)
(-15.4131 0 0 18.2376 30.8261 0 0 0 -15.4131)
(-18.5446 0 0 18.6511 37.0892 0 0 0 -18.5446)
(-24.3334 0 0 21.3613 48.6668 0 0 0 -24.3334)
(-25.4463 0 0 19.8517 50.8926 0 0 0 -25.4463)
(-24.9433 0 0 17.93 49.8866 0 0 0 -24.9433)
(-23.8522 0 0 16.6647 47.7045 0 0 0 -23.8522)
(-22.2496 0 0 15.8036 44.4991 0 0 0 -22.2496)
(-20.4995 0 0 15.0999 40.999 0 0 0 -20.4995)
(-18.8869 0 0 14.2714 37.7738 0 0 0 -18.8869)
(-17.4671 0 0 13.2006 34.9343 0 0 0 -17.4671)
(-16.1024 0 0 12.0364 32.2048 0 0 0 -16.1024)
(-14.6529 0 0 10.9571 29.3059 0 0 0 -14.6529)
(-13.1422 0 0 9.80285 26.2843 0 0 0 -13.1422)
(-11.8997 0 0 7.98836 23.7995 0 0 0 -11.8997)
(-11.2881 0 0 6.30213 22.5762 0 0 0 -11.2881)
(-9.95975 0 0 5.05529 19.9195 0 0 0 -9.95975)
(-7.64163 0 0 4.40856 15.2833 0 0 0 -7.64163)
(-5.17522 0 0 3.78804 10.3504 0 0 0 -5.17522)
(-6.07335 0 0 3.51351 12.1467 0 0 0 -6.07335)
(-3.43456 0 0 2.62085 6.86912 0 0 0 -3.43456)
(-1.61943 0 0 11.1911 3.23885 0 0 0 -1.61943)
(-0.0820505 0 0 8.20561 0.164101 0 0 0 -0.0820505)
(0.0608728 0 0 6.12754 -0.121746 0 0 0 0.0608728)
(-0.00143824 0 0 4.42699 0.00287649 0 0 0 -0.00143824)
(0.0181071 0 0 0.675985 -0.0362142 0 0 0 0.0181071)
(-0.000361474 0 0 0.0271016 0.000722948 0 0 0 -0.000361474)
(0.000698686 0 0 0.0105614 -0.00139737 0 0 0 0.000698686)
(0.000441164 0 0 0.000922724 -0.000882328 0 0 0 0.000441164)
(1.13718e-28 0 0 1.53049e-28 -2.27437e-28 0 0 0 1.13718e-28)
(1.45602e-59 0 0 1.73079e-59 -2.91204e-59 0 0 0 1.45602e-59)
(-1.20866e-86 0 0 1.66257e-84 2.41733e-86 0 0 0 -1.20866e-86)
(3.32499e-110 0 0 2.5084e-108 -6.64997e-110 0 0 0 3.32499e-110)
(3.16673e-133 0 0 1.67991e-130 -6.33346e-133 0 0 0 3.16673e-133)
(7.61506e-154 0 0 4.94602e-152 -1.52301e-153 0 0 0 7.61506e-154)
(-2.17295e-175 0 0 1.28551e-173 4.3459e-175 0 0 0 -2.17295e-175)
(1.11506e-196 0 0 3.80337e-195 -2.23012e-196 0 0 0 1.11506e-196)
(-3.80953e-218 0 0 1.29666e-216 7.61906e-218 0 0 0 -3.80953e-218)
(1.15756e-239 0 0 3.15504e-238 -2.31511e-239 0 0 0 1.15756e-239)
(-2.51303e-261 0 0 6.05078e-260 5.02606e-261 0 0 0 -2.51303e-261)
(3.6072e-283 0 0 7.59942e-282 -7.21439e-283 0 0 0 3.6072e-283)
(-3.97382e-305 0 0 7.46575e-304 7.94765e-305 0 0 0 -3.97382e-305)
(0 0 0 0 -0 0 0 0 0)
(-0 0 0 0 0 0 0 0 -0)
(0 0 0 0 -0 0 0 0 0)
(-0 0 0 0 0 0 0 0 -0)
(0 0 0 0 -0 0 0 0 0)
(0 0 0 0 -0 0 0 0 0)
(0 0 0 0 -0 0 0 0 0)
(0 0 0 0 -0 0 0 0 0)
(0 0 0 0 -0 0 0 0 0)
(0 0 0 0 -0 0 0 0 0)
(0 0 0 0 -0 0 0 0 0)
(0 0 0 -0 -0 0 0 0 0)
(0 0 0 -0 -0 0 0 0 0)
(0 0 0 0 -0 0 0 0 0)
(0 0 0 0 -0 0 0 0 0)
(-0 0 0 -0 0 0 0 0 -0)
(0 0 0 -0 -0 0 0 0 0)
(0 0 0 0 -0 0 0 0 0)
(0 0 0 0 -0 0 0 0 0)
(0 0 0 0 -0 0 0 0 0)
(0 0 0 0 -0 0 0 0 0)
(0 0 0 0 -0 0 0 0 0)
(0 0 0 0 -0 0 0 0 0)
(0 0 0 0 -0 0 0 0 0)
(0 0 0 0 -0 0 0 0 0)
(0 0 0 0 -0 0 0 0 0)
(0 0 0 0 -0 0 0 0 0)
(-0 0 0 0 0 0 0 0 -0)
(0 0 0 0 -0 0 0 0 0)
(0 0 0 0 -0 0 0 0 0)
(0 0 0 0 -0 0 0 0 0)
(0 0 0 0 -0 0 0 0 0)
(0 0 0 0 -0 0 0 0 0)
(-0 0 0 0 0 0 0 0 -0)
(-0 0 0 0 0 0 0 0 -0)
(0 0 0 0 -0 0 0 0 0)
(-0 0 0 0 0 0 0 0 -0)
(0 0 0 0 -0 0 0 0 0)
(0 0 0 0 -0 0 0 0 0)
(-0 0 0 0 0 0 0 0 -0)
(-0 0 0 0 0 0 0 0 -0)
(-0 0 0 0 0 0 0 0 -0)
(-0 0 0 0 0 0 0 0 -0)
(0 0 0 0 -0 0 0 0 0)
(0 0 0 0 -0 0 0 0 0)
(0 0 0 0 -0 0 0 0 0)
(-0 0 0 0 0 0 0 0 -0)
(-0 0 0 0 0 0 0 0 -0)
(0 0 0 0 -0 0 0 0 0)
(0 0 0 0 -0 0 0 0 0)
(-0 0 0 0 0 0 0 0 -0)
(-0 0 0 0 0 0 0 0 -0)
(-0 0 0 0 0 0 0 0 -0)
(0 0 0 0 -0 0 0 0 0)
)
;

boundaryField
{
    inlet
    {
        type            cyclic;
    }
    outlet
    {
        type            cyclic;
    }
    top
    {
        type            extrapolatedCalculated;
        value           uniform (0 0 0 0 0 0 0 0 0);
    }
    bottom
    {
        type            extrapolatedCalculated;
        value           uniform (38.0031 0 0 31.8814 -76.0062 0 0 0 38.0031);
    }
    frontAndBackPlanes
    {
        type            empty;
    }
}


// ************************************************************************* //
