/*--------------------------------*- C++ -*----------------------------------*\
| =========                 |                                                 |
| \\      /  F ield         | OpenFOAM: The Open Source CFD Toolbox           |
|  \\    /   O peration     | Version:  2206                                  |
|   \\  /    A nd           | Website:  www.openfoam.com                      |
|    \\/     M anipulation  |                                                 |
\*---------------------------------------------------------------------------*/
FoamFile
{
    version     2.0;
    format      ascii;
    arch        "LSB;label=32;scalar=64";
    class       volTensorField;
    location    "1";
    object      Taub;
}
// * * * * * * * * * * * * * * * * * * * * * * * * * * * * * * * * * * * * * //

dimensions      [1 -1 -2 0 0 0 0];

internalField   nonuniform List<tensor> 
120
(
(-3.74579e-07 0 0 0.00351017 7.49157e-07 0 0 0 -3.74579e-07)
(-3.75591e-07 0 0 2.92577e-05 7.51182e-07 0 0 0 -3.75591e-07)
(-3.83074e-07 0 0 2.60183e-06 7.66149e-07 0 0 0 -3.83074e-07)
(-3.87941e-07 0 0 2.76688e-06 7.75882e-07 0 0 0 -3.87941e-07)
(-3.9838e-07 0 0 2.73103e-06 7.96761e-07 0 0 0 -3.9838e-07)
(-4.21243e-07 0 0 2.87321e-06 8.42485e-07 0 0 0 -4.21243e-07)
(-4.63189e-07 -1.97022e-21 0 3.21041e-06 9.26377e-07 0 0 0 -4.63189e-07)
(-5.21437e-07 0 0 3.64802e-06 1.04287e-06 0 0 0 -5.21437e-07)
(-5.67804e-07 0 0 3.93992e-06 1.13561e-06 0 0 0 -5.67804e-07)
(-5.53483e-07 -1.97215e-21 0 3.69874e-06 1.10697e-06 0 0 0 -5.53483e-07)
(-4.44448e-07 0 0 2.79329e-06 8.88896e-07 0 0 0 -4.44448e-07)
(-2.79815e-07 0 0 1.65827e-06 5.59631e-07 0 0 0 -2.79815e-07)
(-1.45217e-07 0 0 8.56515e-07 2.90434e-07 0 0 0 -1.45217e-07)
(-7.65606e-08 0 0 5.14714e-07 1.53121e-07 0 0 0 -7.65606e-08)
(-5.0957e-08 0 0 4.27683e-07 1.01914e-07 0 0 0 -5.0957e-08)
(-4.04378e-08 0 0 4.14922e-07 8.08756e-08 0 0 0 -4.04378e-08)
(-3.24907e-08 0 0 4.12808e-07 6.49814e-08 0 0 0 -3.24907e-08)
(-2.45034e-08 0 0 4.1139e-07 4.90068e-08 0 0 0 -2.45034e-08)
(-1.65684e-08 0 0 4.10637e-07 3.31367e-08 0 0 0 -1.65684e-08)
(-8.68325e-09 0 0 4.10548e-07 1.73665e-08 0 0 0 -8.68325e-09)
(-8.41263e-10 0 0 4.1113e-07 1.68253e-09 0 0 0 -8.41263e-10)
(6.96431e-09 0 0 4.12395e-07 -1.39286e-08 0 0 0 6.96431e-09)
(1.47403e-08 0 0 4.14365e-07 -2.94805e-08 0 0 0 1.47403e-08)
(2.24927e-08 0 0 4.1708e-07 -4.49854e-08 0 0 0 2.24927e-08)
(3.02287e-08 0 0 4.20092e-07 -6.04573e-08 0 0 0 3.02287e-08)
(3.78472e-08 0 0 4.36714e-07 -7.56944e-08 0 0 0 3.78472e-08)
(4.74456e-08 0 0 4.72132e-07 -9.48913e-08 0 0 0 4.74456e-08)
(6.80687e-08 0 0 7.02878e-07 -1.36137e-07 0 0 0 6.80687e-08)
(1.15156e-07 0 0 1.54755e-06 -2.30311e-07 0 0 0 1.15156e-07)
(2.09415e-07 0 0 3.33718e-06 -4.18829e-07 0 0 0 2.09415e-07)
(3.11737e-07 0 0 5.75334e-06 -6.23474e-07 0 0 0 3.11737e-07)
(4.47409e-07 0 0 7.72158e-06 -8.94818e-07 0 0 0 4.47409e-07)
(3.24738e-07 0 0 8.52159e-06 -6.49476e-07 0 0 0 3.24738e-07)
(6.44272e-07 0 0 8.49752e-06 -1.28854e-06 0 0 0 6.44272e-07)
(2.1253e-07 0 0 8.58072e-06 -4.2506e-07 0 0 0 2.1253e-07)
(3.99714e-07 0 0 9.46888e-06 -7.99429e-07 0 0 0 3.99714e-07)
(9.82919e-07 0 0 1.09267e-05 -1.96584e-06 0 0 0 9.82919e-07)
(-4.20298e-07 0 0 1.13122e-05 8.40597e-07 0 0 0 -4.20298e-07)
(1.71182e-06 0 0 8.57975e-06 -3.42365e-06 0 0 0 1.71182e-06)
(-2.57333e-08 0 0 1.03777e-05 5.14666e-08 0 0 0 -2.57333e-08)
(1.76406e-06 0 0 2.23918e-05 -3.52812e-06 0 0 0 1.76406e-06)
(-1.0454e-06 0 0 3.71637e-05 2.0908e-06 0 0 0 -1.0454e-06)
(1.81226e-06 0 0 1.39008e-05 -3.62452e-06 0 0 0 1.81226e-06)
(-1.76763e-06 0 0 2.42085e-05 3.53525e-06 0 0 0 -1.76763e-06)
(1.94761e-06 0 0 4.05017e-05 -3.89521e-06 0 0 0 1.94761e-06)
(-1.89409e-06 0 0 3.65727e-05 3.78818e-06 0 0 0 -1.89409e-06)
(1.57756e-06 0 0 0.000132208 -3.15511e-06 0 0 0 1.57756e-06)
(-2.5089e-06 0 0 0.00465128 5.0178e-06 0 0 0 -2.5089e-06)
(-7.86345e-05 0 0 0.0767859 0.000157269 0 0 0 -7.86345e-05)
(0.000379921 0 0 1.73606 -0.000759841 0 0 0 0.000379921)
(0.00295084 0 0 2.99253 -0.00590168 0 0 0 0.00295084)
(0.000236176 0 0 1.97362 -0.000472352 0 0 0 0.000236176)
(1.22788e-05 0 0 1.68738 -2.45576e-05 0 0 0 1.22788e-05)
(-1.02503e-06 0 0 1.39288 2.05006e-06 0 0 0 -1.02503e-06)
(6.54069e-05 0 0 1.15596 -0.000130814 0 0 0 6.54069e-05)
(-6.83891e-05 0 0 0.95267 0.000136778 0 0 0 -6.83891e-05)
(5.93381e-05 0 0 0.778843 -0.000118676 0 0 0 5.93381e-05)
(-4.57801e-05 0 0 0.630015 9.15602e-05 0 0 0 -4.57801e-05)
(3.28584e-05 0 0 0.503099 -6.57167e-05 0 0 0 3.28584e-05)
(-2.24373e-05 0 0 0.395534 4.48746e-05 0 0 0 -2.24373e-05)
(1.47948e-05 0 0 0.305142 -2.95895e-05 0 0 0 1.47948e-05)
(-9.52143e-06 0 0 0.229998 1.90429e-05 0 0 0 -9.52143e-06)
(6.03703e-06 0 0 0.168381 -1.20741e-05 0 0 0 6.03703e-06)
(-3.80775e-06 0 0 0.11873 7.61549e-06 0 0 0 -3.80775e-06)
(2.41382e-06 0 0 0.0796261 -4.82763e-06 0 0 0 2.41382e-06)
(-1.54848e-06 0 0 0.0497239 3.09695e-06 0 0 0 -1.54848e-06)
(9.98963e-07 0 0 0.0278912 -1.99793e-06 0 0 0 9.98963e-07)
(-6.13501e-07 0 0 0.0127012 1.227e-06 0 0 0 -6.13501e-07)
(2.43359e-07 0 0 0.00224638 -4.86719e-07 0 0 0 2.43359e-07)
(-3.50263e-08 0 0 -3.69787e-05 7.00525e-08 0 0 0 -3.50263e-08)
(7.6754e-08 0 0 -0.000302097 -1.53508e-07 0 0 0 7.6754e-08)
(-5.91173e-08 0 0 -0.000238444 1.18235e-07 0 0 0 -5.91173e-08)
(4.72409e-08 0 0 -0.000215645 -9.44817e-08 0 0 0 4.72409e-08)
(-3.84975e-08 0 0 -0.000214181 7.6995e-08 0 0 0 -3.84975e-08)
(3.00042e-08 0 0 -0.00020267 -6.00084e-08 0 0 0 3.00042e-08)
(-2.22203e-08 0 0 -0.000180143 4.44405e-08 0 0 0 -2.22203e-08)
(1.63197e-08 0 0 -0.000165753 -3.26394e-08 0 0 0 1.63197e-08)
(-1.18937e-08 0 0 -0.000159406 2.37874e-08 0 0 0 -1.18937e-08)
(8.21116e-09 0 0 -0.000148425 -1.64223e-08 0 0 0 8.21116e-09)
(-5.24673e-09 0 0 -0.000135863 1.04935e-08 0 0 0 -5.24673e-09)
(2.9309e-09 0 0 -0.00012884 -5.8618e-09 0 0 0 2.9309e-09)
(-9.64336e-10 0 0 -0.000121787 1.92867e-09 0 0 0 -9.64336e-10)
(-6.78168e-10 0 0 -0.000112784 1.35634e-09 0 0 0 -6.78168e-10)
(2.07677e-09 0 0 -0.000106688 -4.15353e-09 0 0 0 2.07677e-09)
(-3.39553e-09 0 0 -0.000101225 6.79105e-09 0 0 0 -3.39553e-09)
(4.62561e-09 0 0 -9.46774e-05 -9.25123e-09 0 0 0 4.62561e-09)
(-5.82259e-09 0 0 -8.99089e-05 1.16452e-08 0 0 0 -5.82259e-09)
(6.9716e-09 0 0 -8.53898e-05 -1.39432e-08 0 0 0 6.9716e-09)
(-8.03959e-09 0 0 -8.04543e-05 1.60792e-08 0 0 0 -8.03959e-09)
(9.08918e-09 0 0 -7.67352e-05 -1.81784e-08 0 0 0 9.08918e-09)
(-1.00605e-08 0 0 -7.29136e-05 2.0121e-08 0 0 0 -1.00605e-08)
(1.09516e-08 0 0 -6.92304e-05 -2.19032e-08 0 0 0 1.09516e-08)
(-1.17973e-08 0 0 -6.62472e-05 2.35946e-08 0 0 0 -1.17973e-08)
(1.25244e-08 0 0 -6.30083e-05 -2.50489e-08 0 0 0 1.25244e-08)
(-1.31854e-08 0 0 -6.01835e-05 2.63709e-08 0 0 0 -1.31854e-08)
(1.37691e-08 0 0 -5.76131e-05 -2.75382e-08 0 0 0 1.37691e-08)
(-1.42474e-08 0 0 -5.50214e-05 2.84949e-08 0 0 0 -1.42474e-08)
(1.46684e-08 0 0 -5.2798e-05 -2.93367e-08 0 0 0 1.46684e-08)
(-1.49893e-08 0 0 -5.05344e-05 2.99787e-08 0 0 0 -1.49893e-08)
(1.52483e-08 0 0 -4.84845e-05 -3.04966e-08 0 0 0 1.52483e-08)
(-1.54443e-08 0 0 -4.65917e-05 3.08886e-08 0 0 0 -1.54443e-08)
(1.55703e-08 0 0 -4.47403e-05 -3.11405e-08 0 0 0 1.55703e-08)
(-1.5663e-08 0 0 -4.31133e-05 3.1326e-08 0 0 0 -1.5663e-08)
(1.56891e-08 0 0 -4.14567e-05 -3.13782e-08 0 0 0 1.56891e-08)
(-1.56779e-08 0 0 -3.9899e-05 3.13558e-08 0 0 0 -1.56779e-08)
(1.56369e-08 0 0 -3.84531e-05 -3.12738e-08 0 0 0 1.56369e-08)
(-1.55813e-08 0 0 -3.71392e-05 3.11625e-08 0 0 0 -1.55813e-08)
(1.55109e-08 0 0 -3.59144e-05 -3.10219e-08 0 0 0 1.55109e-08)
(-1.5395e-08 0 0 -3.46019e-05 3.079e-08 0 0 0 -1.5395e-08)
(1.52432e-08 0 0 -3.32148e-05 -3.04865e-08 0 0 0 1.52432e-08)
(-1.51001e-08 0 0 -3.19702e-05 3.02002e-08 0 0 0 -1.51001e-08)
(1.50869e-08 0 0 -3.1386e-05 -3.01738e-08 0 0 0 1.50869e-08)
(-1.51219e-08 0 0 -3.10171e-05 3.02437e-08 0 0 0 -1.51219e-08)
(1.49319e-08 0 0 -2.96874e-05 -2.98638e-08 0 0 0 1.49319e-08)
(-1.45762e-08 0 0 -2.77078e-05 2.91524e-08 0 0 0 -1.45762e-08)
(1.44774e-08 0 0 -2.6784e-05 -2.89548e-08 0 0 0 1.44774e-08)
(-1.46117e-08 0 0 -2.67621e-05 2.92233e-08 0 0 0 -1.46117e-08)
(1.46701e-08 0 0 -2.64149e-05 -2.93401e-08 0 0 0 1.46701e-08)
(-1.41641e-08 0 0 2.3953e-05 2.83282e-08 0 0 0 -1.41641e-08)
(2.11013e-08 0 0 5.46123e-05 -4.22026e-08 0 0 0 2.11013e-08)
)
;

boundaryField
{
    inlet
    {
        type            cyclic;
    }
    outlet
    {
        type            cyclic;
    }
    top
    {
        type            extrapolatedCalculated;
        value           uniform (0 0 0 0 0 0 0 0 0);
    }
    bottom
    {
        type            extrapolatedCalculated;
        value           uniform (-3.78858e-07 0 0 0.00696423 7.57716e-07 0 0 0 -3.78858e-07);
    }
    frontAndBackPlanes
    {
        type            empty;
    }
}


// ************************************************************************* //
