/*--------------------------------*- C++ -*----------------------------------*\
| =========                 |                                                 |
| \\      /  F ield         | OpenFOAM: The Open Source CFD Toolbox           |
|  \\    /   O peration     | Version:  2206                                  |
|   \\  /    A nd           | Website:  www.openfoam.com                      |
|    \\/     M anipulation  |                                                 |
\*---------------------------------------------------------------------------*/
FoamFile
{
    version     2.0;
    format      ascii;
    arch        "LSB;label=32;scalar=64";
    class       volScalarField;
    location    "1";
    object      Theta;
}
// * * * * * * * * * * * * * * * * * * * * * * * * * * * * * * * * * * * * * //

dimensions      [0 2 -2 0 0 0 0];

internalField   nonuniform List<scalar> 
120
(
4.5185e-14
4.90564e-14
4.97554e-14
5.3439e-14
6.61219e-14
9.11694e-14
1.34594e-13
1.87907e-13
1.96237e-13
1.1103e-13
2.54758e-14
2.72826e-15
1e-15
1e-15
1e-15
1e-15
1e-15
1e-15
1e-15
1e-15
4.19181e-15
4.21338e-13
9.93808e-12
8.48549e-11
3.79925e-10
1.17491e-09
2.9508e-09
6.46645e-09
1.27672e-08
2.3222e-08
3.96824e-08
6.47333e-08
1.01961e-07
1.56249e-07
2.34228e-07
3.44987e-07
5.01136e-07
7.20112e-07
1.0252e-06
1.44577e-06
2.02666e-06
2.84046e-06
3.99404e-06
5.53493e-06
7.69405e-06
1.06922e-05
1.48541e-05
2.07634e-05
3.40353e-05
6.27313e-05
0.000203596
0.00471658
0.0138528
0.000601618
1.09702e-15
1.04738e-15
1.04729e-15
1.04742e-15
1.04732e-15
1.04732e-15
1.04732e-15
1.04728e-15
1.04729e-15
1.04726e-15
1.04727e-15
1.04725e-15
1.04725e-15
1.04723e-15
1.04722e-15
1.04721e-15
1.04721e-15
1.0472e-15
1.04719e-15
1.04718e-15
1.04717e-15
1.04716e-15
1.04716e-15
1.04715e-15
1.04714e-15
1.04713e-15
1.04713e-15
1.04712e-15
1.04711e-15
1.04711e-15
1.0471e-15
1.04709e-15
1.04708e-15
1.04708e-15
1.04707e-15
1.04707e-15
1.04706e-15
1.04705e-15
1.04705e-15
1.04704e-15
1.04704e-15
1.04703e-15
1.04703e-15
1.04702e-15
1.04702e-15
1.04701e-15
1.04701e-15
1.047e-15
1.047e-15
1.04699e-15
1.04699e-15
1.04698e-15
1.04698e-15
1.04697e-15
1.04697e-15
1.04696e-15
1.04696e-15
1.04695e-15
1.04695e-15
1.04694e-15
1.04694e-15
1.04694e-15
1.04694e-15
1.04693e-15
1.04693e-15
1.04692e-15
)
;

boundaryField
{
    inlet
    {
        type            cyclic;
    }
    outlet
    {
        type            cyclic;
    }
    top
    {
        type            zeroGradient;
    }
    bottom
    {
        type            zeroGradient;
    }
    frontAndBackPlanes
    {
        type            empty;
    }
}


// ************************************************************************* //
