/*--------------------------------*- C++ -*----------------------------------*\
| =========                 |                                                 |
| \\      /  F ield         | OpenFOAM: The Open Source CFD Toolbox           |
|  \\    /   O peration     | Version:  2206                                  |
|   \\  /    A nd           | Website:  www.openfoam.com                      |
|    \\/     M anipulation  |                                                 |
\*---------------------------------------------------------------------------*/
FoamFile
{
    version     2.0;
    format      ascii;
    arch        "LSB;label=32;scalar=64";
    class       volVectorField;
    location    "1";
    object      U.a;
}
// * * * * * * * * * * * * * * * * * * * * * * * * * * * * * * * * * * * * * //

dimensions      [0 1 -1 0 0 0 0];

internalField   nonuniform List<vector> 
120
(
(3.75542e-07 -1.34296e-06 0)
(1.13494e-06 -4.1773e-06 0)
(1.88986e-06 -7.05386e-06 0)
(2.62802e-06 -9.91175e-06 0)
(3.35939e-06 -1.28301e-05 0)
(4.09765e-06 -1.58533e-05 0)
(4.86479e-06 -1.90861e-05 0)
(5.69255e-06 -2.27133e-05 0)
(6.5978e-06 -2.69037e-05 0)
(7.52514e-06 -3.15053e-05 0)
(8.31076e-06 -3.56841e-05 0)
(8.80579e-06 -3.84332e-05 0)
(9.04459e-06 -3.97485e-05 0)
(9.16188e-06 -4.03469e-05 0)
(9.25194e-06 -4.07445e-05 0)
(9.34329e-06 -4.10813e-05 0)
(9.43605e-06 -4.13575e-05 0)
(9.53031e-06 -4.15735e-05 0)
(9.62619e-06 -4.17298e-05 0)
(9.72378e-06 -4.18268e-05 0)
(9.82318e-06 -4.18649e-05 0)
(9.9245e-06 -4.18443e-05 0)
(1.00278e-05 -4.17653e-05 0)
(1.01333e-05 -4.16282e-05 0)
(1.0241e-05 -4.14329e-05 0)
(1.0351e-05 -4.11797e-05 0)
(1.04635e-05 -4.08688e-05 0)
(1.05785e-05 -4.0501e-05 0)
(1.07241e-05 -3.99782e-05 0)
(1.09757e-05 -3.89736e-05 0)
(1.14299e-05 -3.70327e-05 0)
(1.211e-05 -3.41032e-05 0)
(1.29245e-05 -3.07198e-05 0)
(1.37628e-05 -2.73717e-05 0)
(1.45793e-05 -2.415e-05 0)
(1.53786e-05 -2.09576e-05 0)
(1.61824e-05 -1.77161e-05 0)
(1.70382e-05 -1.42993e-05 0)
(1.80536e-05 -1.019e-05 0)
(1.931e-05 -4.14701e-06 0)
(2.05422e-05 3.18225e-06 0)
(2.12773e-05 7.48073e-06 0)
(2.15799e-05 8.57814e-06 0)
(2.17142e-05 9.27166e-06 0)
(2.18091e-05 9.76716e-06 0)
(2.18601e-05 9.84511e-06 0)
(2.19804e-05 9.8415e-06 0)
(2.57567e-05 9.962e-06 0)
(0.00153924 -3.53773e-05 0)
(0.0161446 2.56721e-05 0)
(0.0701615 -0.00554978 0)
(0.135985 0.00482087 0)
(0.260468 -0.0433188 0)
(0.445591 -0.439256 0)
(0.482215 -0.537607 0)
(0.484403 -0.537208 0)
(0.485258 -0.537541 0)
(0.48619 -0.53728 0)
(0.486742 -0.537549 0)
(0.487229 -0.537328 0)
(0.487577 -0.537507 0)
(0.487836 -0.537381 0)
(0.488014 -0.537468 0)
(0.48813 -0.537413 0)
(0.488199 -0.537445 0)
(0.48824 -0.537429 0)
(0.488253 -0.537437 0)
(0.488257 -0.537434 0)
(0.488261 -0.537435 0)
(0.488275 -0.537434 0)
(0.488369 -0.537434 0)
(0.488449 -0.537434 0)
(0.488471 -0.537434 0)
(0.488481 -0.537434 0)
(0.488482 -0.537435 0)
(0.488491 -0.537435 0)
(0.488491 -0.537435 0)
(0.488492 -0.537435 0)
(0.488487 -0.537435 0)
(0.488481 -0.537435 0)
(0.488487 -0.537435 0)
(0.488487 -0.537435 0)
(0.488448 -0.537435 0)
(0.488434 -0.537435 0)
(0.488459 -0.537435 0)
(0.488461 -0.537435 0)
(0.488463 -0.537435 0)
(0.488472 -0.537435 0)
(0.488478 -0.537435 0)
(0.4885 -0.537435 0)
(0.488565 -0.537435 0)
(0.488614 -0.537435 0)
(0.488635 -0.537435 0)
(0.488645 -0.537435 0)
(0.488657 -0.537435 0)
(0.488683 -0.537435 0)
(0.488713 -0.537435 0)
(0.48874 -0.537435 0)
(0.488757 -0.537435 0)
(0.488789 -0.537435 0)
(0.488837 -0.537435 0)
(0.488866 -0.537435 0)
(0.488881 -0.537435 0)
(0.488889 -0.537435 0)
(0.4889 -0.537435 0)
(0.488919 -0.537435 0)
(0.488928 -0.537435 0)
(0.488934 -0.537435 0)
(0.488938 -0.537435 0)
(0.488946 -0.537435 0)
(0.488958 -0.537435 0)
(0.488966 -0.537435 0)
(0.488982 -0.537435 0)
(0.488989 -0.537435 0)
(0.488994 -0.537435 0)
(0.488997 -0.537435 0)
(0.488999 -0.537435 0)
(0.489001 -0.537435 0)
(0.489003 -0.537435 0)
(0.489066 -0.537435 0)
)
;

boundaryField
{
    inlet
    {
        type            cyclic;
    }
    outlet
    {
        type            cyclic;
    }
    top
    {
        type            zeroGradient;
    }
    bottom
    {
        type            fixedValue;
        value           uniform (0 0 0);
    }
    frontAndBackPlanes
    {
        type            empty;
    }
}


// ************************************************************************* //
