/*--------------------------------*- C++ -*----------------------------------*\
| =========                 |                                                 |
| \\      /  F ield         | OpenFOAM: The Open Source CFD Toolbox           |
|  \\    /   O peration     | Version:  2206                                  |
|   \\  /    A nd           | Website:  www.openfoam.com                      |
|    \\/     M anipulation  |                                                 |
\*---------------------------------------------------------------------------*/
FoamFile
{
    version     2.0;
    format      ascii;
    arch        "LSB;label=32;scalar=64";
    class       volVectorField;
    location    "1";
    object      U.b;
}
// * * * * * * * * * * * * * * * * * * * * * * * * * * * * * * * * * * * * * //

dimensions      [0 1 -1 0 0 0 0];

internalField   nonuniform List<vector> 
120
(
(0.0136611 2.22952e-06 0)
(0.0138813 6.58783e-06 0)
(0.0138906 1.10684e-05 0)
(0.0139017 1.56013e-05 0)
(0.0139123 2.01941e-05 0)
(0.0139231 2.49704e-05 0)
(0.0139349 3.00986e-05 0)
(0.0139483 3.58583e-05 0)
(0.0139634 4.23521e-05 0)
(0.0139791 4.9197e-05 0)
(0.0139924 5.53497e-05 0)
(0.014001 5.96307e-05 0)
(0.0140054 6.19171e-05 0)
(0.0140077 6.30387e-05 0)
(0.0140094 6.37137e-05 0)
(0.014011 6.42344e-05 0)
(0.0140126 6.46626e-05 0)
(0.0140142 6.49967e-05 0)
(0.0140159 6.52375e-05 0)
(0.0140175 6.53855e-05 0)
(0.0140191 6.54412e-05 0)
(0.0140207 6.54052e-05 0)
(0.0140223 6.52778e-05 0)
(0.0140239 6.50594e-05 0)
(0.0140256 6.47502e-05 0)
(0.0140272 6.43504e-05 0)
(0.014029 6.38625e-05 0)
(0.0140309 6.32375e-05 0)
(0.0140345 6.2266e-05 0)
(0.014043 6.05369e-05 0)
(0.0140605 5.73559e-05 0)
(0.0140879 5.32307e-05 0)
(0.0141208 4.68767e-05 0)
(0.0141544 4.56306e-05 0)
(0.0141871 3.18099e-05 0)
(0.0142213 4.06641e-05 0)
(0.0142608 2.24765e-05 0)
(0.0143062 1.77338e-05 0)
(0.0143486 3.22712e-05 0)
(0.0143728 -2.21189e-05 0)
(0.0144291 3.287e-05 0)
(0.0145463 -6.31124e-05 0)
(0.0147162 5.70983e-05 0)
(0.0146532 -0.000104951 0)
(0.0149028 9.79674e-05 0)
(0.0149635 -0.000149717 0)
(0.0151826 0.000141444 0)
(0.0159691 -0.000185712 0)
(0.0480791 0.000194677 0)
(0.220221 0.000441796 0)
(0.319356 1.65773e-05 0)
(0.364818 1.40495e-05 0)
(0.39533 -1.06973e-05 0)
(0.41681 1.29145e-05 0)
(0.432823 -1.06145e-05 0)
(0.445124 8.10829e-06 0)
(0.454771 -5.88762e-06 0)
(0.462439 4.1506e-06 0)
(0.468583 -2.87667e-06 0)
(0.473527 1.9781e-06 0)
(0.477507 -1.35806e-06 0)
(0.480702 9.34475e-07 0)
(0.48325 -6.44842e-07 0)
(0.485259 4.44288e-07 0)
(0.486817 -3.01603e-07 0)
(0.487995 1.95511e-07 0)
(0.488849 -1.11807e-07 0)
(0.489429 4.14136e-08 0)
(0.489763 2.06418e-08 0)
(0.48979 -7.58215e-08 0)
(0.489727 1.23545e-07 0)
(0.489675 -1.63382e-07 0)
(0.48963 1.95768e-07 0)
(0.489586 -2.21495e-07 0)
(0.489545 2.41496e-07 0)
(0.489507 -2.5674e-07 0)
(0.489473 2.68111e-07 0)
(0.489441 -2.76381e-07 0)
(0.48941 2.82216e-07 0)
(0.489382 -2.86133e-07 0)
(0.489356 2.88513e-07 0)
(0.489331 -2.89633e-07 0)
(0.489307 2.89662e-07 0)
(0.489285 -2.88819e-07 0)
(0.489265 2.87172e-07 0)
(0.489245 -2.84755e-07 0)
(0.489227 2.81606e-07 0)
(0.489209 -2.77755e-07 0)
(0.489192 2.73227e-07 0)
(0.489177 -2.68054e-07 0)
(0.489162 2.6227e-07 0)
(0.489147 -2.55911e-07 0)
(0.489134 2.49023e-07 0)
(0.489121 -2.41655e-07 0)
(0.489108 2.33854e-07 0)
(0.489096 -2.25672e-07 0)
(0.489085 2.1716e-07 0)
(0.489074 -2.08368e-07 0)
(0.489064 1.99345e-07 0)
(0.489054 -1.90135e-07 0)
(0.489044 1.80783e-07 0)
(0.489035 -1.71328e-07 0)
(0.489026 1.61802e-07 0)
(0.489017 -1.52237e-07 0)
(0.489009 1.42658e-07 0)
(0.489001 -1.33088e-07 0)
(0.488993 1.23546e-07 0)
(0.488986 -1.14045e-07 0)
(0.488979 1.04597e-07 0)
(0.488972 -9.52069e-08 0)
(0.488965 8.58768e-08 0)
(0.488958 -7.66126e-08 0)
(0.488952 6.74139e-08 0)
(0.488946 -5.82788e-08 0)
(0.48894 4.92086e-08 0)
(0.488934 -4.01868e-08 0)
(0.488929 3.12011e-08 0)
(0.488924 -2.2253e-08 0)
(0.488918 1.33346e-08 0)
(0.488934 -4.44047e-09 0)
)
;

boundaryField
{
    inlet
    {
        type            cyclic;
    }
    outlet
    {
        type            cyclic;
    }
    top
    {
        type            zeroGradient;
    }
    bottom
    {
        type            fixedValue;
        value           uniform (0 0 0);
    }
    frontAndBackPlanes
    {
        type            empty;
    }
}


// ************************************************************************* //
