/*--------------------------------*- C++ -*----------------------------------*\
| =========                 |                                                 |
| \\      /  F ield         | OpenFOAM: The Open Source CFD Toolbox           |
|  \\    /   O peration     | Version:  2206                                  |
|   \\  /    A nd           | Website:  www.openfoam.com                      |
|    \\/     M anipulation  |                                                 |
\*---------------------------------------------------------------------------*/
FoamFile
{
    version     2.0;
    format      ascii;
    arch        "LSB;label=32;scalar=64";
    class       volScalarField;
    location    "14";
    object      alpha.a;
}
// * * * * * * * * * * * * * * * * * * * * * * * * * * * * * * * * * * * * * //

dimensions      [0 0 0 0 0 0 0];

internalField   nonuniform List<scalar> 
120
(
0.61246
0.612361
0.612314
0.612222
0.612152
0.61207
0.611989
0.611905
0.611819
0.61173
0.611639
0.611545
0.611448
0.611349
0.611246
0.611139
0.611028
0.610913
0.610794
0.610669
0.610537
0.610397
0.610248
0.610089
0.609921
0.609744
0.609541
0.609264
0.608821
0.608397
0.607884
0.607213
0.606242
0.60485
0.602699
0.598937
0.592339
0.58178
0.566663
0.54689
0.522402
0.493674
0.461883
0.42866
0.395687
0.364373
0.335675
0.310034
0.287421
0.267452
0.249518
0.232885
0.216775
0.200421
0.183132
0.164389
0.143988
0.122214
0.0999356
0.0784793
0.0592222
0.0431216
0.0304848
0.0210619
0.0143019
0.00958514
0.00635761
0.0041793
0.00272399
0.00175957
0.00112522
0.000711267
0.000443923
0.00027367
0.000167061
0.000100997
6.23687e-05
3.61557e-05
2.91044e-05
8.44491e-06
3.29716e-16
4.63597e-27
5.39288e-38
5.74259e-49
5.57489e-60
5.18272e-71
4.96637e-82
3.48862e-93
2.83559e-104
2.27835e-115
1.71635e-126
1.24595e-137
1.06317e-148
8.69371e-160
9.15697e-171
7.49928e-182
7.39086e-193
7.91112e-204
7.84061e-215
7.22982e-226
6.82811e-237
6.0594e-248
5.04947e-259
3.98439e-270
3.27967e-281
2.75659e-292
2.3635e-303
2.03205e-314
8.53251e-321
1.28754e-320
1.21046e-320
1.2154e-320
1.26925e-320
1.20305e-320
1.21046e-320
1.87103e-320
2.04049e-321
1.70601e-320
1.75196e-320
2.51973e-322
)
;

boundaryField
{
    inlet
    {
        type            cyclic;
    }
    outlet
    {
        type            cyclic;
    }
    top
    {
        type            fixedValue;
        value           uniform 0;
    }
    bottom
    {
        type            zeroGradient;
    }
    frontAndBackPlanes
    {
        type            empty;
    }
}


// ************************************************************************* //
