/*--------------------------------*- C++ -*----------------------------------*\
| =========                 |                                                 |
| \\      /  F ield         | OpenFOAM: The Open Source CFD Toolbox           |
|  \\    /   O peration     | Version:  2206                                  |
|   \\  /    A nd           | Website:  www.openfoam.com                      |
|    \\/     M anipulation  |                                                 |
\*---------------------------------------------------------------------------*/
FoamFile
{
    version     2.0;
    format      ascii;
    arch        "LSB;label=32;scalar=64";
    class       volScalarField;
    location    "14";
    object      nuEffb;
}
// * * * * * * * * * * * * * * * * * * * * * * * * * * * * * * * * * * * * * //

dimensions      [0 2 -1 0 0 0 0];

internalField   nonuniform List<scalar> 
120
(
1e-06
1e-06
1e-06
1e-06
1e-06
1e-06
1e-06
1e-06
1e-06
1e-06
1e-06
1e-06
1e-06
1e-06
1e-06
1e-06
1e-06
1e-06
1e-06
1e-06
1e-06
1e-06
1e-06
1e-06
1e-06
1e-06
1e-06
1e-06
1e-06
1e-06
1.00002e-06
1.00011e-06
1.00041e-06
1.00114e-06
1.00285e-06
1.00731e-06
1.0202e-06
1.0595e-06
1.17949e-06
1.53611e-06
2.58816e-06
5.67947e-06
1.38385e-05
3.14034e-05
6.21395e-05
0.000107793
0.000167986
0.000241038
0.00032484
0.00041735
0.000516749
0.000621427
0.000729905
0.00084077
0.000952657
0.00106429
0.00117462
0.001283
0.00138932
0.001494
0.00159774
0.00170114
0.00180449
0.00190772
0.00201053
0.00211251
0.00221324
0.00231238
0.00240964
0.00250478
0.00259763
0.00268805
0.00277592
0.00286115
0.00294366
0.00302337
0.0031002
0.0031741
0.00324499
0.00331279
0.00337746
0.00343892
0.0034971
0.00355192
0.00360328
0.00365112
0.00369532
0.00373581
0.00377246
0.00380518
0.00383383
0.00385829
0.00387842
0.00389407
0.00390508
0.00391126
0.00391242
0.00390835
0.00389882
0.00388355
0.00386227
0.00383465
0.00380032
0.00375888
0.00370985
0.00365268
0.00358676
0.00351133
0.00342553
0.00332827
0.00321825
0.00309383
0.00295288
0.00279257
0.00260905
0.00239629
0.00214704
0.00183519
0.00148726
0.000667117
)
;

boundaryField
{
    inlet
    {
        type            cyclic;
    }
    outlet
    {
        type            cyclic;
    }
    top
    {
        type            calculated;
        value           uniform 1e-06;
    }
    bottom
    {
        type            calculated;
        value           uniform 1e-06;
    }
    frontAndBackPlanes
    {
        type            empty;
    }
}


// ************************************************************************* //
