/*--------------------------------*- C++ -*----------------------------------*\
| =========                 |                                                 |
| \\      /  F ield         | OpenFOAM: The Open Source CFD Toolbox           |
|  \\    /   O peration     | Version:  2206                                  |
|   \\  /    A nd           | Website:  www.openfoam.com                      |
|    \\/     M anipulation  |                                                 |
\*---------------------------------------------------------------------------*/
FoamFile
{
    version     2.0;
    format      ascii;
    arch        "LSB;label=32;scalar=64";
    class       volScalarField;
    location    "14";
    object      p_rbgh;
}
// * * * * * * * * * * * * * * * * * * * * * * * * * * * * * * * * * * * * * //

dimensions      [1 -1 -2 0 0 0 0];

internalField   nonuniform List<scalar> 
120
(
10.4178
10.4178
10.4178
10.4178
10.4178
10.4178
10.4178
10.4179
10.4179
10.4179
10.4179
10.4179
10.4179
10.4179
10.4179
10.4179
10.4179
10.4179
10.4179
10.418
10.418
10.418
10.418
10.418
10.4181
10.4181
10.4181
10.4182
10.4183
10.4183
10.4184
10.4183
10.4183
10.4189
10.4197
10.4224
10.4228
10.4212
10.4213
10.4221
10.4224
10.4205
10.4112
10.381
10.3061
10.162
9.93678
9.63644
9.27795
8.87897
8.45041
7.99367
7.50131
6.9601
6.3557
5.6793
4.93511
4.1463
3.35486
2.61178
1.96102
1.42686
1.0118
0.702956
0.480545
0.324236
0.216372
0.14297
0.0935572
0.0605644
0.0386642
0.0242042
0.0147507
0.00868594
0.00491778
0.00272273
0.00146626
0.000849923
0.000128655
0.00258827
-0.00306231
0.000646799
-5.80207e-05
4.63573e-05
2.71829e-05
3.0132e-05
2.90843e-05
2.7379e-05
2.52345e-05
2.24505e-05
1.93343e-05
1.62633e-05
1.37047e-05
1.06771e-05
7.46859e-06
4.75902e-06
1.88813e-06
-7.88727e-07
-2.54599e-06
-3.74299e-06
-5.05587e-06
-6.35855e-06
-7.21052e-06
-7.89012e-06
-8.44787e-06
-9.17657e-06
-9.78042e-06
-9.8646e-06
-9.80881e-06
-9.4005e-06
-8.61202e-06
-7.86874e-06
-7.12112e-06
-6.28887e-06
-5.51207e-06
-4.73959e-06
-3.75029e-06
-2.58809e-06
-1.41009e-06
-4.18548e-07
)
;

boundaryField
{
    inlet
    {
        type            cyclic;
    }
    outlet
    {
        type            cyclic;
    }
    top
    {
        type            fixedValue;
        value           uniform 0;
    }
    bottom
    {
        type            fixedFluxPressure;
        gradient        uniform 0;
        value           uniform 10.4178;
    }
    frontAndBackPlanes
    {
        type            empty;
    }
}


// ************************************************************************* //
