/*--------------------------------*- C++ -*----------------------------------*\
| =========                 |                                                 |
| \\      /  F ield         | OpenFOAM: The Open Source CFD Toolbox           |
|  \\    /   O peration     | Version:  2206                                  |
|   \\  /    A nd           | Website:  www.openfoam.com                      |
|    \\/     M anipulation  |                                                 |
\*---------------------------------------------------------------------------*/
FoamFile
{
    version     2.0;
    format      ascii;
    arch        "LSB;label=32;scalar=64";
    class       volScalarField;
    location    "14";
    object      pa;
}
// * * * * * * * * * * * * * * * * * * * * * * * * * * * * * * * * * * * * * //

dimensions      [1 -1 -2 0 0 0 0];

internalField   nonuniform List<scalar> 
120
(
8.89177e-05
0.000328224
0.000972475
0.00233816
0.00490335
0.00932488
0.0165231
0.0277468
0.0446991
0.0696818
0.1058
0.157227
0.229562
0.330297
0.46944
0.660339
0.920765
1.27435
1.75246
2.39667
3.262
4.42099
5.96929
8.03338
10.7811
14.4324
19.2614
25.569
33.6238
44.2965
58.0707
75.476
96.1751
118.858
140.623
155.579
158.279
150.001
137.231
124.538
112.508
101.119
90.4152
80.4607
71.295
62.9208
55.3011
48.3652
42.0279
36.2078
30.8419
25.8921
21.3457
17.2134
13.5236
10.3126
7.61215
5.43378
3.75668
2.52526
1.65949
1.07228
0.684707
0.433759
0.273359
0.171733
0.107779
0.0677914
0.0429813
0.0277458
0.0185151
0.0130047
0.00973834
0.00776728
0.00650263
0.00558325
0.00493196
0.00405274
0.00428547
0.00162887
5.97086e-15
4.38531e-38
1.4311e-49
1.52312e-60
1.47669e-71
1.37206e-82
1.31335e-93
9.22123e-105
7.488e-116
6.01407e-127
4.52686e-138
3.28503e-149
2.80114e-160
2.28986e-171
2.41042e-182
1.97357e-193
1.94403e-204
2.08043e-215
2.06099e-226
1.9001e-237
1.79387e-248
1.59168e-259
1.32599e-270
1.04618e-281
8.60928e-293
7.23549e-304
6.20248e-315
0
0
0
0
0
0
0
0
0
0
0
0
0
)
;

boundaryField
{
    inlet
    {
        type            cyclic;
    }
    outlet
    {
        type            cyclic;
    }
    top
    {
        type            slip;
    }
    bottom
    {
        type            zeroGradient;
    }
    frontAndBackPlanes
    {
        type            empty;
    }
}


// ************************************************************************* //
