/*--------------------------------*- C++ -*----------------------------------*\
| =========                 |                                                 |
| \\      /  F ield         | OpenFOAM: The Open Source CFD Toolbox           |
|  \\    /   O peration     | Version:  2206                                  |
|   \\  /    A nd           | Website:  www.openfoam.com                      |
|    \\/     M anipulation  |                                                 |
\*---------------------------------------------------------------------------*/
FoamFile
{
    version     2.0;
    format      ascii;
    arch        "LSB;label=32;scalar=64";
    class       surfaceScalarField;
    location    "14";
    object      phi.a;
}
// * * * * * * * * * * * * * * * * * * * * * * * * * * * * * * * * * * * * * //

dimensions      [0 3 -1 0 0 0 0];

oriented        oriented;

internalField   nonuniform List<scalar> 
119
(
7.30747e-15
1.9716e-14
2.72278e-14
3.92985e-14
4.86233e-14
6.08304e-14
7.24098e-14
8.51286e-14
9.85409e-14
1.12884e-13
1.28261e-13
1.4484e-13
1.62815e-13
1.8242e-13
2.03964e-13
2.2789e-13
2.5484e-13
2.85687e-13
3.21525e-13
3.63555e-13
4.12835e-13
4.70148e-13
5.37184e-13
6.19617e-13
7.29266e-13
8.84626e-13
1.13492e-12
1.57002e-12
2.00194e-12
2.23435e-12
2.56915e-12
3.08942e-12
3.92668e-12
5.18241e-12
7.33717e-12
1.12942e-11
1.80131e-11
2.83603e-11
4.27445e-11
6.16556e-11
8.56143e-11
1.14706e-10
1.48431e-10
1.85716e-10
2.24997e-10
2.6438e-10
3.01886e-10
3.35764e-10
3.64742e-10
3.88164e-10
4.05959e-10
4.18531e-10
4.26573e-10
4.30916e-10
4.32392e-10
4.31751e-10
4.29668e-10
4.26912e-10
4.24755e-10
4.2559e-10
4.33586e-10
4.55271e-10
4.99671e-10
5.77168e-10
6.97023e-10
8.60709e-10
1.05092e-09
1.21641e-09
1.25759e-09
1.02144e-09
3.27957e-10
-9.80633e-10
-2.99973e-09
-5.75146e-09
-9.10088e-09
-1.41183e-08
-1.92908e-08
-3.18748e-08
-3.56388e-08
-5.6975e-07
-1.50513e-06
-1.77452e-06
-1.7759e-06
-1.77773e-06
-1.77921e-06
-1.78082e-06
-1.78209e-06
-1.78349e-06
-1.78459e-06
-1.78581e-06
-1.78675e-06
-1.7878e-06
-1.78861e-06
-1.78952e-06
-1.79021e-06
-1.79099e-06
-1.79157e-06
-1.79224e-06
-1.79273e-06
-1.79329e-06
-1.7937e-06
-1.79417e-06
-1.7945e-06
-1.79489e-06
-1.79515e-06
-1.79547e-06
-1.79568e-06
-1.79594e-06
-1.79609e-06
-1.79629e-06
-1.7964e-06
-1.79655e-06
-1.79661e-06
-1.79673e-06
-1.79673e-06
-1.79683e-06
-1.79682e-06
-1.79688e-06
-1.79686e-06
)
;

boundaryField
{
    inlet
    {
        type            cyclic;
        value           nonuniform List<scalar> 
120
(
-1.03622e-12
-3.08435e-12
-5.10805e-12
-7.10733e-12
-9.08218e-12
-1.10326e-11
-1.29586e-11
-1.48603e-11
-1.67375e-11
-1.85903e-11
-2.04187e-11
-2.22227e-11
-2.40023e-11
-2.57575e-11
-2.74884e-11
-2.91948e-11
-3.08769e-11
-3.25347e-11
-3.4168e-11
-3.5777e-11
-3.73616e-11
-3.89219e-11
-4.04578e-11
-4.19694e-11
-4.34567e-11
-4.49196e-11
-4.64693e-11
-4.8898e-11
-5.67972e-11
-1.13535e-10
-6.56818e-10
-3.55185e-09
-1.08944e-08
-2.26065e-08
-3.78304e-08
-5.64502e-08
-7.90216e-08
-1.06602e-07
-1.41072e-07
-1.8514e-07
-2.42097e-07
-3.15933e-07
-4.11234e-07
-5.32524e-07
-6.82932e-07
-8.62731e-07
-1.0687e-06
-1.29479e-06
-1.53358e-06
-1.77776e-06
-2.02106e-06
-2.25863e-06
-2.48697e-06
-2.70376e-06
-2.90759e-06
-3.09771e-06
-3.27394e-06
-3.43658e-06
-3.58648e-06
-3.72495e-06
-3.85371e-06
-3.97452e-06
-4.08898e-06
-4.19829e-06
-4.30327e-06
-4.40441e-06
-4.50202e-06
-4.59623e-06
-4.68714e-06
-4.7748e-06
-4.85926e-06
-4.94068e-06
-5.01965e-06
-5.09764e-06
-5.17741e-06
-5.26337e-06
-5.36034e-06
-5.47909e-06
-5.6114e-06
-5.8414e-06
-6.40814e-06
-6.60709e-06
-6.62868e-06
-6.63848e-06
-6.65439e-06
-6.66322e-06
-6.67752e-06
-6.68544e-06
-6.69826e-06
-6.70536e-06
-6.71681e-06
-6.72314e-06
-6.73333e-06
-6.73895e-06
-6.74796e-06
-6.75293e-06
-6.76083e-06
-6.76518e-06
-6.77206e-06
-6.77585e-06
-6.78176e-06
-6.78503e-06
-6.79002e-06
-6.79281e-06
-6.79695e-06
-6.79929e-06
-6.80263e-06
-6.80456e-06
-6.80717e-06
-6.80872e-06
-6.81066e-06
-6.81186e-06
-6.81318e-06
-6.81406e-06
-6.81486e-06
-6.81542e-06
-6.81585e-06
-6.81611e-06
-6.81626e-06
-6.81631e-06
)
;
    }
    outlet
    {
        type            cyclic;
        value           nonuniform List<scalar> 
120
(
1.03622e-12
3.08435e-12
5.10805e-12
7.10733e-12
9.08218e-12
1.10326e-11
1.29586e-11
1.48603e-11
1.67375e-11
1.85903e-11
2.04187e-11
2.22227e-11
2.40023e-11
2.57575e-11
2.74884e-11
2.91948e-11
3.08769e-11
3.25347e-11
3.4168e-11
3.5777e-11
3.73616e-11
3.89219e-11
4.04578e-11
4.19694e-11
4.34567e-11
4.49196e-11
4.64693e-11
4.8898e-11
5.67972e-11
1.13535e-10
6.56818e-10
3.55185e-09
1.08944e-08
2.26065e-08
3.78304e-08
5.64502e-08
7.90216e-08
1.06602e-07
1.41072e-07
1.8514e-07
2.42097e-07
3.15933e-07
4.11234e-07
5.32524e-07
6.82932e-07
8.62731e-07
1.0687e-06
1.29479e-06
1.53358e-06
1.77776e-06
2.02106e-06
2.25863e-06
2.48697e-06
2.70376e-06
2.90759e-06
3.09771e-06
3.27394e-06
3.43658e-06
3.58648e-06
3.72495e-06
3.85371e-06
3.97452e-06
4.08898e-06
4.19829e-06
4.30327e-06
4.40441e-06
4.50202e-06
4.59623e-06
4.68714e-06
4.7748e-06
4.85926e-06
4.94068e-06
5.01965e-06
5.09764e-06
5.17741e-06
5.26337e-06
5.36034e-06
5.47909e-06
5.6114e-06
5.8414e-06
6.40814e-06
6.60709e-06
6.62868e-06
6.63848e-06
6.65439e-06
6.66322e-06
6.67752e-06
6.68544e-06
6.69826e-06
6.70536e-06
6.71681e-06
6.72314e-06
6.73333e-06
6.73895e-06
6.74796e-06
6.75293e-06
6.76083e-06
6.76518e-06
6.77206e-06
6.77585e-06
6.78176e-06
6.78503e-06
6.79002e-06
6.79281e-06
6.79695e-06
6.79929e-06
6.80263e-06
6.80456e-06
6.80717e-06
6.80872e-06
6.81066e-06
6.81186e-06
6.81318e-06
6.81406e-06
6.81486e-06
6.81542e-06
6.81585e-06
6.81611e-06
6.81626e-06
6.81631e-06
)
;
    }
    top
    {
        type            calculated;
        value           uniform -1.79687e-06;
    }
    bottom
    {
        type            fixedValue;
        value           uniform 0;
    }
    frontAndBackPlanes
    {
        type            empty;
        value           nonuniform List<scalar> 0();
    }
}


// ************************************************************************* //
