/*--------------------------------*- C++ -*----------------------------------*\
| =========                 |                                                 |
| \\      /  F ield         | OpenFOAM: The Open Source CFD Toolbox           |
|  \\    /   O peration     | Version:  2206                                  |
|   \\  /    A nd           | Website:  www.openfoam.com                      |
|    \\/     M anipulation  |                                                 |
\*---------------------------------------------------------------------------*/
FoamFile
{
    version     2.0;
    format      ascii;
    arch        "LSB;label=32;scalar=64";
    class       volTensorField;
    location    "14";
    object      Taua;
}
// * * * * * * * * * * * * * * * * * * * * * * * * * * * * * * * * * * * * * //

dimensions      [1 -1 -2 0 0 0 0];

internalField   nonuniform List<tensor> 
120
(
(-0.380184 0 0 121.025 0.760369 0 0 0 -0.380184)
(0.0584815 0 0 119.594 -0.116963 0 0 0 0.0584815)
(-0.122568 0 0 118.159 0.245136 0 0 0 -0.122568)
(-0.196956 0 0 116.724 0.393912 0 0 0 -0.196956)
(-0.152149 0 0 115.29 0.304298 0 0 0 -0.152149)
(-0.199178 0 0 113.856 0.398356 0 0 0 -0.199178)
(-0.188932 -9.26787e-16 0 112.422 0.377864 0 0 0 -0.188932)
(-0.207522 0 0 110.988 0.415044 0 0 0 -0.207522)
(-0.218833 0 0 109.554 0.437665 0 0 0 -0.218833)
(-0.234008 -6.17859e-16 0 108.121 0.468016 0 0 0 -0.234008)
(-0.250875 0 0 106.688 0.501749 0 0 0 -0.250875)
(-0.270481 0 0 105.255 0.540963 0 0 0 -0.270481)
(-0.293238 0 0 103.822 0.586476 0 0 0 -0.293238)
(-0.319826 0 0 102.39 0.639652 0 0 0 -0.319826)
(-0.351433 0 0 100.958 0.702866 0 0 0 -0.351433)
(-0.390268 0 0 99.526 0.780536 0 0 0 -0.390268)
(-0.439556 0 0 98.0943 0.879112 0 0 0 -0.439556)
(-0.503092 0 0 96.6629 1.00618 0 0 0 -0.503092)
(-0.584441 0 0 95.2317 1.16888 0 0 0 -0.584441)
(-0.6854 0 0 93.8008 1.3708 0 0 0 -0.6854)
(-0.803544 0 0 92.3702 1.60709 0 0 0 -0.803544)
(-0.93444 0 0 90.9398 1.86888 0 0 0 -0.93444)
(-1.09284 0 0 89.5097 2.18568 0 0 0 -1.09284)
(-1.34383 0 0 88.08 2.68766 0 0 0 -1.34383)
(-1.78725 0 0 86.6505 3.5745 0 0 0 -1.78725)
(-2.52639 0 0 88.4857 5.05278 0 0 0 -2.52639)
(-3.44583 0 0 100.095 6.89165 0 0 0 -3.44583)
(-1.99006 0 0 93.4469 3.98013 0 0 0 -1.99006)
(-0.0281972 0 0 83.3194 0.0563943 0 0 0 -0.0281972)
(0.23318 0 0 74.9859 -0.46636 0 0 0 0.23318)
(0.0679243 0 0 69.0138 -0.135849 0 0 0 0.0679243)
(-0.0368172 0 0 68.1088 0.0736344 0 0 0 -0.0368172)
(-0.0507951 0 0 70.2869 0.10159 0 0 0 -0.0507951)
(-0.0688851 0 0 71.9839 0.13777 0 0 0 -0.0688851)
(-0.0327706 0 0 72.0293 0.0655412 0 0 0 -0.0327706)
(0.0827968 0 0 70.9125 -0.165594 0 0 0 0.0827968)
(0.0726321 0 0 69.8353 -0.145264 0 0 0 0.0726321)
(-0.0230669 0 0 68.6567 0.0461337 0 0 0 -0.0230669)
(-0.0355512 0 0 67.0671 0.0711025 0 0 0 -0.0355512)
(-0.0119 0 0 65.5894 0.0238 0 0 0 -0.0119)
(-0.00580289 0 0 64.1793 0.0116058 0 0 0 -0.00580289)
(-0.00561287 0 0 62.7301 0.0112257 0 0 0 -0.00561287)
(-0.00528238 0 0 61.0933 0.0105648 0 0 0 -0.00528238)
(-0.00451933 0 0 58.998 0.00903865 0 0 0 -0.00451933)
(-0.00371216 0 0 56.1525 0.00742432 0 0 0 -0.00371216)
(-0.00297137 0 0 52.4347 0.00594273 0 0 0 -0.00297137)
(-0.0023122 0 0 47.9629 0.00462441 0 0 0 -0.0023122)
(-0.00174134 0 0 43.008 0.00348268 0 0 0 -0.00174134)
(-0.00126271 0 0 37.8641 0.00252542 0 0 0 -0.00126271)
(-0.00087542 0 0 32.7716 0.00175084 0 0 0 -0.00087542)
(-0.000574255 0 0 27.8972 0.00114851 0 0 0 -0.000574255)
(-0.000350526 0 0 23.3456 0.000701052 0 0 0 -0.000350526)
(-0.000192956 0 0 19.1802 0.000385912 0 0 0 -0.000192956)
(-8.88878e-05 0 0 15.4394 0.000177776 0 0 0 -8.88878e-05)
(-2.548e-05 0 0 12.1481 5.096e-05 0 0 0 -2.548e-05)
(8.99498e-06 0 0 9.32137 -1.799e-05 0 0 0 8.99498e-06)
(2.37778e-05 0 0 6.96251 -4.75555e-05 0 0 0 2.37778e-05)
(2.46937e-05 0 0 5.05858 -4.93873e-05 0 0 0 2.46937e-05)
(1.45679e-05 0 0 3.5766 -2.91359e-05 0 0 0 1.45679e-05)
(-4.70102e-06 0 0 2.46501 9.40204e-06 0 0 0 -4.70102e-06)
(-3.00164e-05 0 0 1.66053 6.00327e-05 0 0 0 -3.00164e-05)
(-5.65565e-05 0 0 1.09704 0.000113113 0 0 0 -5.65565e-05)
(-7.87295e-05 0 0 0.713255 0.000157459 0 0 0 -7.87295e-05)
(-9.19448e-05 0 0 0.457764 0.00018389 0 0 0 -9.19448e-05)
(-9.36086e-05 0 0 0.290704 0.000187217 0 0 0 -9.36086e-05)
(-8.32171e-05 0 0 0.183013 0.000166434 0 0 0 -8.32171e-05)
(-6.24112e-05 0 0 0.114407 0.000124822 0 0 0 -6.24112e-05)
(-3.48052e-05 0 0 0.0711544 6.96103e-05 0 0 0 -3.48052e-05)
(-5.2778e-06 0 0 0.0441528 1.05556e-05 0 0 0 -5.2778e-06)
(2.09562e-05 0 0 0.0274621 -4.19123e-05 0 0 0 2.09562e-05)
(3.99038e-05 0 0 0.0172496 -7.98075e-05 0 0 0 3.99038e-05)
(5.00444e-05 0 0 0.0110631 -0.000100089 0 0 0 5.00444e-05)
(5.2323e-05 0 0 0.00734254 -0.000104646 0 0 0 5.2323e-05)
(4.78797e-05 0 0 0.005106 -9.57594e-05 0 0 0 4.78797e-05)
(4.74215e-05 0 0 0.003751 -9.48431e-05 0 0 0 4.74215e-05)
(3.14565e-05 0 0 0.00287699 -6.29131e-05 0 0 0 3.14565e-05)
(5.57856e-05 0 0 0.00237336 -0.000111571 0 0 0 5.57856e-05)
(7.08825e-06 0 0 0.00173291 -1.41765e-05 0 0 0 7.08825e-06)
(5.89104e-05 0 0 0.00219224 -0.000117821 0 0 0 5.89104e-05)
(0.000384864 0 0 0.000984881 -0.000769728 0 0 0 0.000384864)
(5.06281e-25 0 0 8.15437e-25 -1.01256e-24 0 0 0 5.06281e-25)
(2.67871e-53 0 0 3.35588e-53 -5.35742e-53 0 0 0 2.67871e-53)
(8.24081e-78 0 0 3.42356e-76 -1.64816e-77 0 0 0 8.24081e-78)
(1.26667e-99 0 0 3.17877e-98 -2.53333e-99 0 0 0 1.26667e-99)
(9.53512e-122 0 0 2.88023e-120 -1.90702e-121 0 0 0 9.53512e-122)
(8.99369e-144 0 0 2.32625e-142 -1.79874e-143 0 0 0 8.99369e-144)
(6.53221e-166 0 0 2.05199e-164 -1.30644e-165 0 0 0 6.53221e-166)
(3.54211e-188 0 0 9.44823e-187 -7.08421e-188 0 0 0 3.54211e-188)
(1.83441e-210 0 0 5.99075e-209 -3.66881e-210 0 0 0 1.83441e-210)
(1.31326e-232 0 0 3.60132e-231 -2.62652e-232 0 0 0 1.31326e-232)
(5.769e-255 0 0 1.95877e-253 -1.1538e-254 0 0 0 5.769e-255)
(3.39739e-277 0 0 9.58488e-276 -6.79477e-277 0 0 0 3.39739e-277)
(1.89575e-299 0 0 6.67807e-298 -3.79149e-299 0 0 0 1.89575e-299)
(1.46737e-321 0 0 4.246e-320 -2.93969e-321 0 0 0 1.46737e-321)
(0 0 0 0 -0 0 0 0 0)
(0 0 0 0 -0 0 0 0 0)
(0 0 0 0 -0 0 0 0 0)
(0 0 0 0 -0 0 0 0 0)
(0 0 0 0 -0 0 0 0 0)
(0 0 0 0 -0 0 0 0 0)
(0 0 0 0 -0 0 0 0 0)
(0 0 0 0 -0 0 0 0 0)
(0 0 0 0 -0 0 0 0 0)
(0 0 0 0 -0 0 0 0 0)
(0 0 0 0 -0 0 0 0 0)
(0 0 0 0 -0 0 0 0 0)
(0 0 0 0 -0 0 0 0 0)
(0 0 0 0 -0 0 0 0 0)
(0 0 0 0 -0 0 0 0 0)
(0 0 0 0 -0 0 0 0 0)
(0 0 0 0 -0 0 0 0 0)
(0 0 0 0 -0 0 0 0 0)
(0 0 0 0 -0 0 0 0 0)
(0 0 0 0 -0 0 0 0 0)
(0 0 0 0 -0 0 0 0 0)
(0 0 0 0 -0 0 0 0 0)
(-0 0 0 0 0 0 0 0 -0)
(0 0 0 0 -0 0 0 0 0)
(-0 0 0 0 0 0 0 0 -0)
(0 0 0 0 -0 0 0 0 0)
)
;

boundaryField
{
    inlet
    {
        type            cyclic;
    }
    outlet
    {
        type            cyclic;
    }
    top
    {
        type            extrapolatedCalculated;
        value           uniform (0 0 0 0 0 0 0 0 0);
    }
    bottom
    {
        type            extrapolatedCalculated;
        value           uniform (-0.808752 0 0 121.74 1.6175 0 0 0 -0.808752);
    }
    frontAndBackPlanes
    {
        type            empty;
    }
}


// ************************************************************************* //
