/*--------------------------------*- C++ -*----------------------------------*\
| =========                 |                                                 |
| \\      /  F ield         | OpenFOAM: The Open Source CFD Toolbox           |
|  \\    /   O peration     | Version:  2206                                  |
|   \\  /    A nd           | Website:  www.openfoam.com                      |
|    \\/     M anipulation  |                                                 |
\*---------------------------------------------------------------------------*/
FoamFile
{
    version     2.0;
    format      ascii;
    arch        "LSB;label=32;scalar=64";
    class       volTensorField;
    location    "14";
    object      Taub;
}
// * * * * * * * * * * * * * * * * * * * * * * * * * * * * * * * * * * * * * //

dimensions      [1 -1 -2 0 0 0 0];

internalField   nonuniform List<tensor> 
120
(
(2.66937e-10 0 0 0.00346768 -5.33874e-10 0 0 0 2.66937e-10)
(5.25461e-10 0 0 2.84384e-05 -1.05092e-09 0 0 0 5.25461e-10)
(3.20844e-10 0 0 2.25724e-06 -6.41687e-10 0 0 0 3.20844e-10)
(4.28993e-10 0 0 2.36824e-06 -8.57985e-10 0 0 0 4.28993e-10)
(4.37298e-10 0 0 2.25572e-06 -8.74595e-10 0 0 0 4.37298e-10)
(4.34308e-10 0 0 2.39498e-06 -8.68617e-10 0 0 0 4.34308e-10)
(5.04415e-10 2.87683e-24 0 2.41593e-06 -1.00883e-09 0 0 0 5.04415e-10)
(4.87426e-10 0 0 2.48572e-06 -9.74851e-10 0 0 0 4.87426e-10)
(5.44865e-10 0 0 2.54594e-06 -1.08973e-09 0 0 0 5.44865e-10)
(5.71778e-10 1.91916e-24 0 2.61305e-06 -1.14356e-09 0 0 0 5.71778e-10)
(6.13769e-10 0 0 2.68373e-06 -1.22754e-09 0 0 0 6.13769e-10)
(6.60489e-10 0 0 2.75938e-06 -1.32098e-09 0 0 0 6.60489e-10)
(7.16514e-10 0 0 2.84058e-06 -1.43303e-09 0 0 0 7.16514e-10)
(7.81836e-10 0 0 2.92821e-06 -1.56367e-09 0 0 0 7.81836e-10)
(8.58654e-10 0 0 3.02299e-06 -1.71731e-09 0 0 0 8.58654e-10)
(9.53708e-10 0 0 3.12575e-06 -1.90742e-09 0 0 0 9.53708e-10)
(1.0758e-09 0 0 3.23796e-06 -2.1516e-09 0 0 0 1.0758e-09)
(1.23164e-09 0 0 3.3621e-06 -2.46329e-09 0 0 0 1.23164e-09)
(1.43025e-09 0 0 3.50245e-06 -2.8605e-09 0 0 0 1.43025e-09)
(1.67254e-09 0 0 3.66635e-06 -3.34509e-09 0 0 0 1.67254e-09)
(1.96811e-09 0 0 3.86591e-06 -3.93622e-09 0 0 0 1.96811e-09)
(2.24613e-09 0 0 4.11077e-06 -4.49225e-09 0 0 0 2.24613e-09)
(2.76719e-09 0 0 4.38402e-06 -5.53438e-09 0 0 0 2.76719e-09)
(2.95649e-09 0 0 4.64311e-06 -5.91299e-09 0 0 0 2.95649e-09)
(4.98912e-09 0 0 4.89622e-06 -9.97824e-09 0 0 0 4.98912e-09)
(5.01146e-09 0 0 5.38562e-06 -1.00229e-08 0 0 0 5.01146e-09)
(1.19481e-08 0 0 6.82553e-06 -2.38963e-08 0 0 0 1.19481e-08)
(1.4035e-08 0 0 1.04587e-05 -2.80701e-08 0 0 0 1.4035e-08)
(2.15965e-08 0 0 1.516e-05 -4.31931e-08 0 0 0 2.15965e-08)
(3.56474e-09 0 0 4.13353e-05 -7.12948e-09 0 0 0 3.56474e-09)
(2.68972e-08 0 0 0.000175797 -5.37943e-08 0 0 0 2.68972e-08)
(1.59988e-08 0 0 0.000495308 -3.19976e-08 0 0 0 1.59988e-08)
(9.1628e-09 0 0 0.000914037 -1.83256e-08 0 0 0 9.1628e-09)
(4.08854e-08 0 0 0.00130166 -8.17708e-08 0 0 0 4.08854e-08)
(5.15618e-08 0 0 0.00167028 -1.03124e-07 0 0 0 5.15618e-08)
(1.92456e-07 0 0 0.00211193 -3.84912e-07 0 0 0 1.92456e-07)
(3.3816e-07 0 0 0.00272779 -6.76319e-07 0 0 0 3.3816e-07)
(3.34783e-07 0 0 0.00369869 -6.69565e-07 0 0 0 3.34783e-07)
(4.23713e-07 0 0 0.00552586 -8.47425e-07 0 0 0 4.23713e-07)
(7.82178e-07 0 0 0.00996231 -1.56436e-06 0 0 0 7.82178e-07)
(1.50211e-06 0 0 0.024456 -3.00423e-06 0 0 0 1.50211e-06)
(3.20577e-06 0 0 0.0830387 -6.41155e-06 0 0 0 3.20577e-06)
(6.58882e-06 0 0 0.311081 -1.31776e-05 0 0 0 6.58882e-06)
(1.21387e-05 0 0 0.995491 -2.42773e-05 0 0 0 1.21387e-05)
(1.84267e-05 0 0 2.49162 -3.68534e-05 0 0 0 1.84267e-05)
(2.06686e-05 0 0 4.98374 -4.13372e-05 0 0 0 2.06686e-05)
(1.27128e-05 0 0 8.36161 -2.54255e-05 0 0 0 1.27128e-05)
(-8.50384e-06 0 0 12.3164 1.70077e-05 0 0 0 -8.50384e-06)
(-4.40684e-05 0 0 16.5072 8.81368e-05 0 0 0 -4.40684e-05)
(-9.39663e-05 0 0 20.6613 0.000187933 0 0 0 -9.39663e-05)
(-0.000158371 0 0 24.5972 0.000316741 0 0 0 -0.000158371)
(-0.000238089 0 0 28.2067 0.000476179 0 0 0 -0.000238089)
(-0.000334277 0 0 31.4295 0.000668555 0 0 0 -0.000334277)
(-0.0004474 0 0 34.232 0.0008948 0 0 0 -0.0004474)
(-0.000575288 0 0 36.5953 0.00115058 0 0 0 -0.000575288)
(-0.000710168 0 0 38.5104 0.00142034 0 0 0 -0.000710168)
(-0.000835607 0 0 39.979 0.00167121 0 0 0 -0.000835607)
(-0.000926483 0 0 41.0168 0.00185297 0 0 0 -0.000926483)
(-0.000955964 0 0 41.6554 0.00191193 0 0 0 -0.000955964)
(-0.000908999 0 0 41.9423 0.001818 0 0 0 -0.000908999)
(-0.000793304 0 0 41.937 0.00158661 0 0 0 -0.000793304)
(-0.00063774 0 0 41.7037 0.00127548 0 0 0 -0.00063774)
(-0.00047892 0 0 41.3031 0.00095784 0 0 0 -0.00047892)
(-0.000346286 0 0 40.7857 0.000692573 0 0 0 -0.000346286)
(-0.000254874 0 0 40.19 0.000509749 0 0 0 -0.000254874)
(-0.000206595 0 0 39.5432 0.00041319 0 0 0 -0.000206595)
(-0.000193958 0 0 38.8636 0.000387917 0 0 0 -0.000193958)
(-0.000203142 0 0 38.1633 0.000406285 0 0 0 -0.000203142)
(-0.000217124 0 0 37.4504 0.000434247 0 0 0 -0.000217124)
(-0.000219171 0 0 36.7296 0.000438342 0 0 0 -0.000219171)
(-0.000197705 0 0 36.0043 0.00039541 0 0 0 -0.000197705)
(-0.000151996 0 0 35.2764 0.000303992 0 0 0 -0.000151996)
(-9.27705e-05 0 0 34.5471 0.000185541 0 0 0 -9.27705e-05)
(-3.53077e-05 0 0 33.8172 7.06154e-05 0 0 0 -3.53077e-05)
(3.52392e-06 0 0 33.087 -7.04785e-06 0 0 0 3.52392e-06)
(2.17904e-05 0 0 32.3569 -4.35808e-05 0 0 0 2.17904e-05)
(1.96186e-05 0 0 31.6268 -3.92372e-05 0 0 0 1.96186e-05)
(5.4973e-05 0 0 30.8972 -0.000109946 0 0 0 5.4973e-05)
(-7.6116e-05 0 0 30.1676 0.000152232 0 0 0 -7.6116e-05)
(-7.27029e-05 0 0 29.4387 0.000145406 0 0 0 -7.27029e-05)
(0.000232383 0 0 28.7098 -0.000464766 0 0 0 0.000232383)
(0.000127416 0 0 27.9812 -0.000254831 0 0 0 0.000127416)
(-4.25329e-05 0 0 27.253 8.50657e-05 0 0 0 -4.25329e-05)
(7.53853e-06 0 0 26.525 -1.50771e-05 0 0 0 7.53853e-06)
(-1.24419e-06 0 0 25.7972 2.48838e-06 0 0 0 -1.24419e-06)
(2.7884e-07 0 0 25.0697 -5.57681e-07 0 0 0 2.7884e-07)
(-5.99972e-08 0 0 24.3424 1.19994e-07 0 0 0 -5.99972e-08)
(-1.37545e-08 0 0 23.6153 2.75089e-08 0 0 0 -1.37545e-08)
(-1.0354e-08 0 0 22.8884 2.0708e-08 0 0 0 -1.0354e-08)
(-8.47355e-09 0 0 22.1616 1.69471e-08 0 0 0 -8.47355e-09)
(-9.61677e-10 0 0 21.4351 1.92335e-09 0 0 0 -9.61677e-10)
(-4.13125e-09 0 0 20.7086 8.2625e-09 0 0 0 -4.13125e-09)
(-1.4357e-08 0 0 19.9824 2.87139e-08 0 0 0 -1.4357e-08)
(-7.7144e-09 0 0 19.2562 1.54288e-08 0 0 0 -7.7144e-09)
(-3.69888e-09 0 0 18.5302 7.39775e-09 0 0 0 -3.69888e-09)
(-4.8121e-09 0 0 17.8042 9.6242e-09 0 0 0 -4.8121e-09)
(4.04685e-09 0 0 17.0784 -8.09371e-09 0 0 0 4.04685e-09)
(8.01147e-09 0 0 16.3526 -1.60229e-08 0 0 0 8.01147e-09)
(2.21641e-09 0 0 15.6269 -4.43282e-09 0 0 0 2.21641e-09)
(-6.60343e-10 0 0 14.9012 1.32069e-09 0 0 0 -6.60343e-10)
(4.2439e-09 0 0 14.1756 -8.4878e-09 0 0 0 4.2439e-09)
(7.35221e-09 0 0 13.45 -1.47044e-08 0 0 0 7.35221e-09)
(4.34466e-09 0 0 12.7244 -8.68932e-09 0 0 0 4.34466e-09)
(1.27396e-09 0 0 11.9988 -2.54793e-09 0 0 0 1.27396e-09)
(1.89071e-09 0 0 11.2731 -3.78143e-09 0 0 0 1.89071e-09)
(6.59684e-09 0 0 10.5474 -1.31937e-08 0 0 0 6.59684e-09)
(8.09636e-09 0 0 9.8217 -1.61927e-08 0 0 0 8.09636e-09)
(2.4582e-09 0 0 9.09587 -4.9164e-09 0 0 0 2.4582e-09)
(-1.88454e-10 0 0 8.36994 3.76907e-10 0 0 0 -1.88454e-10)
(8.84189e-10 0 0 7.64388 -1.76838e-09 0 0 0 8.84189e-10)
(3.00713e-10 0 0 6.91768 -6.01425e-10 0 0 0 3.00713e-10)
(5.43798e-12 0 0 6.1913 -1.0876e-11 0 0 0 5.43798e-12)
(-5.46245e-10 0 0 5.46472 1.09249e-09 0 0 0 -5.46245e-10)
(-1.29218e-09 0 0 4.73788 2.58437e-09 0 0 0 -1.29218e-09)
(9.78588e-10 0 0 4.0109 -1.95718e-09 0 0 0 9.78588e-10)
(3.78452e-09 0 0 3.2829 -7.56904e-09 0 0 0 3.78452e-09)
(2.9351e-09 0 0 2.55825 -5.8702e-09 0 0 0 2.9351e-09)
(2.65953e-10 0 0 1.81505 -5.31906e-10 0 0 0 2.65953e-10)
(-9.8015e-10 0 0 1.15804 1.9603e-09 0 0 0 -9.8015e-10)
(-2.75331e-10 0 0 0.226283 5.50661e-10 0 0 0 -2.75331e-10)
)
;

boundaryField
{
    inlet
    {
        type            cyclic;
    }
    outlet
    {
        type            cyclic;
    }
    top
    {
        type            extrapolatedCalculated;
        value           uniform (0 0 0 0 0 0 0 0 0);
    }
    bottom
    {
        type            extrapolatedCalculated;
        value           uniform (-1.54362e-10 0 0 0.00688036 3.08724e-10 0 0 0 -1.54362e-10);
    }
    frontAndBackPlanes
    {
        type            empty;
    }
}


// ************************************************************************* //
