/*--------------------------------*- C++ -*----------------------------------*\
| =========                 |                                                 |
| \\      /  F ield         | OpenFOAM: The Open Source CFD Toolbox           |
|  \\    /   O peration     | Version:  2206                                  |
|   \\  /    A nd           | Website:  www.openfoam.com                      |
|    \\/     M anipulation  |                                                 |
\*---------------------------------------------------------------------------*/
FoamFile
{
    version     2.0;
    format      ascii;
    arch        "LSB;label=32;scalar=64";
    class       volScalarField;
    location    "14";
    object      Theta;
}
// * * * * * * * * * * * * * * * * * * * * * * * * * * * * * * * * * * * * * //

dimensions      [0 2 -2 0 0 0 0];

internalField   nonuniform List<scalar> 
120
(
8.91541e-11
3.31418e-10
9.85189e-10
2.38388e-09
5.02381e-09
9.60899e-09
1.71222e-08
2.89203e-08
4.68666e-08
7.35059e-08
1.12303e-07
1.6796e-07
2.46846e-07
3.57568e-07
5.11737e-07
7.25001e-07
1.01842e-06
1.4203e-06
1.96868e-06
2.71463e-06
3.72672e-06
5.09694e-06
6.94882e-06
9.44805e-06
1.28166e-05
1.73519e-05
2.34556e-05
3.16816e-05
4.28176e-05
5.78785e-05
7.82397e-05
0.000105766
0.000142437
0.000190001
0.000251355
0.000332835
0.000446745
0.000614058
0.000866303
0.00124527
0.00180177
0.00259239
0.00366658
0.00504481
0.00669454
0.00851562
0.0103492
0.0120138
0.0133528
0.0142695
0.0147382
0.0147934
0.0145086
0.0139744
0.0132814
0.0125091
0.0117205
0.0109603
0.0102553
0.00961726
0.00904614
0.00853522
0.00807531
0.00765804
0.0072781
0.006935
0.00663531
0.00639644
0.0062532
0.00626971
0.00655671
0.00729587
0.00876156
0.0113422
0.0155607
0.022105
0.0316243
0.0448309
0.058892
0.0771504
0.00724365
3.78372e-15
1.06147e-15
1.06093e-15
1.05953e-15
1.05895e-15
1.05779e-15
1.05729e-15
1.05629e-15
1.05586e-15
1.055e-15
1.05463e-15
1.05388e-15
1.05357e-15
1.05293e-15
1.05267e-15
1.05212e-15
1.0519e-15
1.05144e-15
1.05126e-15
1.05087e-15
1.05072e-15
1.0504e-15
1.05028e-15
1.05002e-15
1.04992e-15
1.04971e-15
1.04963e-15
1.04947e-15
1.04942e-15
1.0493e-15
1.04926e-15
1.04918e-15
1.04916e-15
1.0491e-15
1.04911e-15
1.04906e-15
1.04907e-15
1.04904e-15
1.04906e-15
)
;

boundaryField
{
    inlet
    {
        type            cyclic;
    }
    outlet
    {
        type            cyclic;
    }
    top
    {
        type            zeroGradient;
    }
    bottom
    {
        type            zeroGradient;
    }
    frontAndBackPlanes
    {
        type            empty;
    }
}


// ************************************************************************* //
