/*--------------------------------*- C++ -*----------------------------------*\
| =========                 |                                                 |
| \\      /  F ield         | OpenFOAM: The Open Source CFD Toolbox           |
|  \\    /   O peration     | Version:  2206                                  |
|   \\  /    A nd           | Website:  www.openfoam.com                      |
|    \\/     M anipulation  |                                                 |
\*---------------------------------------------------------------------------*/
FoamFile
{
    version     2.0;
    format      ascii;
    arch        "LSB;label=32;scalar=64";
    class       volVectorField;
    location    "14";
    object      U.a;
}
// * * * * * * * * * * * * * * * * * * * * * * * * * * * * * * * * * * * * * //

dimensions      [0 1 -1 0 0 0 0];

internalField   nonuniform List<vector> 
120
(
(3.71306e-07 7.40008e-09 0)
(1.1052e-06 6.51467e-09 0)
(1.83035e-06 5.25966e-09 0)
(2.54674e-06 1.10007e-08 0)
(3.25439e-06 1.24682e-08 0)
(3.95328e-06 1.65693e-08 0)
(4.64343e-06 1.97582e-08 0)
(5.32482e-06 2.34842e-08 0)
(5.99748e-06 2.73534e-08 0)
(6.66139e-06 3.14935e-08 0)
(7.31655e-06 3.59181e-08 0)
(7.96298e-06 4.06755e-08 0)
(8.60066e-06 4.58177e-08 0)
(9.22961e-06 5.14079e-08 0)
(9.84982e-06 5.75233e-08 0)
(1.04613e-05 6.42703e-08 0)
(1.1064e-05 7.1807e-08 0)
(1.1658e-05 8.0358e-08 0)
(1.22433e-05 9.02201e-08 0)
(1.28199e-05 1.01748e-07 0)
(1.33877e-05 1.15306e-07 0)
(1.39468e-05 1.31158e-07 0)
(1.44971e-05 1.49506e-07 0)
(1.50388e-05 1.71155e-07 0)
(1.55717e-05 1.98689e-07 0)
(1.60959e-05 2.36567e-07 0)
(1.66512e-05 2.91153e-07 0)
(1.75215e-05 3.83798e-07 0)
(2.0352e-05 5.2759e-07 0)
(4.06826e-05 4.07312e-07 0)
(0.000235355 -1.47817e-06 0)
(0.00127272 -3.23047e-06 0)
(0.00390376 4.47085e-06 0)
(0.0081005 1.15725e-05 0)
(0.0135556 3.218e-05 0)
(0.0202276 2.81246e-05 0)
(0.0283155 -1.95204e-05 0)
(0.0381982 -2.79461e-05 0)
(0.0505497 2.88986e-06 0)
(0.0663405 1.68074e-05 0)
(0.0867498 2.25934e-05 0)
(0.113207 2.95199e-05 0)
(0.147356 3.88619e-05 0)
(0.190817 4.96515e-05 0)
(0.244713 6.12348e-05 0)
(0.30914 7.31178e-05 0)
(0.382944 8.47347e-05 0)
(0.463956 9.55081e-05 0)
(0.549521 0.000104968 0)
(0.637018 0.000112822 0)
(0.7242 0.000118967 0)
(0.809326 0.000123463 0)
(0.891147 0.000126487 0)
(0.968829 0.000128277 0)
(1.04187 0.00012909 0)
(1.10999 0.000129165 0)
(1.17314 0.00012871 0)
(1.23142 0.000127921 0)
(1.28513 0.00012707 0)
(1.33475 0.000126658 0)
(1.38089 0.000127617 0)
(1.42418 0.000131508 0)
(1.46519 0.000140656 0)
(1.50436 0.000158059 0)
(1.54197 0.000186924 0)
(1.57822 0.000229409 0)
(1.61319 0.000284074 0)
(1.64695 0.000341896 0)
(1.67953 0.000381419 0)
(1.71094 0.000364842 0)
(1.7412 0.000240229 0)
(1.77038 -4.7665e-05 0)
(1.79868 -0.000539716 0)
(1.82662 -0.00125 0)
(1.8552 -0.00212988 0)
(1.88601 -0.00350233 0)
(1.92075 -0.00428003 0)
(1.9633 -0.00895288 0)
(2.01071 -0.00538394 0)
(2.09313 -0.0194191 0)
(2.29621 -0.340075 0)
(2.3675 -0.530458 0)
(2.37523 -0.529312 0)
(2.37874 -0.53127 0)
(2.38445 -0.530413 0)
(2.38761 -0.532151 0)
(2.39273 -0.531374 0)
(2.39557 -0.532911 0)
(2.40016 -0.53221 0)
(2.40271 -0.533567 0)
(2.40681 -0.532937 0)
(2.40908 -0.53413 0)
(2.41273 -0.533567 0)
(2.41475 -0.534612 0)
(2.41797 -0.534111 0)
(2.41975 -0.535021 0)
(2.42259 -0.53458 0)
(2.42415 -0.535366 0)
(2.42661 -0.534979 0)
(2.42797 -0.535659 0)
(2.43008 -0.535312 0)
(2.43126 -0.535904 0)
(2.43304 -0.535591 0)
(2.43404 -0.536105 0)
(2.43553 -0.535823 0)
(2.43637 -0.536263 0)
(2.43757 -0.536014 0)
(2.43825 -0.536386 0)
(2.43919 -0.536167 0)
(2.43974 -0.536477 0)
(2.44044 -0.536288 0)
(2.44087 -0.53654 0)
(2.44134 -0.53638 0)
(2.44166 -0.536574 0)
(2.44194 -0.536455 0)
(2.44215 -0.536575 0)
(2.4423 -0.536514 0)
(2.44239 -0.536565 0)
(2.44245 -0.536549 0)
(2.44247 -0.536555 0)
)
;

boundaryField
{
    inlet
    {
        type            cyclic;
    }
    outlet
    {
        type            cyclic;
    }
    top
    {
        type            zeroGradient;
    }
    bottom
    {
        type            fixedValue;
        value           uniform (0 0 0);
    }
    frontAndBackPlanes
    {
        type            empty;
    }
}


// ************************************************************************* //
