/*--------------------------------*- C++ -*----------------------------------*\
| =========                 |                                                 |
| \\      /  F ield         | OpenFOAM: The Open Source CFD Toolbox           |
|  \\    /   O peration     | Version:  2206                                  |
|   \\  /    A nd           | Website:  www.openfoam.com                      |
|    \\/     M anipulation  |                                                 |
\*---------------------------------------------------------------------------*/
FoamFile
{
    version     2.0;
    format      ascii;
    arch        "LSB;label=32;scalar=64";
    class       volVectorField;
    location    "14";
    object      U.b;
}
// * * * * * * * * * * * * * * * * * * * * * * * * * * * * * * * * * * * * * //

dimensions      [0 1 -1 0 0 0 0];

internalField   nonuniform List<vector> 
120
(
(0.0135374 9.11141e-10 0)
(0.0137538 -7.21366e-09 0)
(0.0137612 -1.14921e-08 0)
(0.0137715 -1.47861e-08 0)
(0.0137798 -2.16146e-08 0)
(0.0137893 -2.51027e-08 0)
(0.0137986 -3.18585e-08 0)
(0.0138083 -3.69977e-08 0)
(0.0138181 -4.33504e-08 0)
(0.0138283 -4.98409e-08 0)
(0.0138387 -5.68249e-08 0)
(0.0138494 -6.43017e-08 0)
(0.0138603 -7.23826e-08 0)
(0.0138716 -8.11749e-08 0)
(0.0138833 -9.07894e-08 0)
(0.0138954 -1.01385e-07 0)
(0.0139078 -1.1323e-07 0)
(0.0139208 -1.26691e-07 0)
(0.0139342 -1.42194e-07 0)
(0.0139482 -1.60316e-07 0)
(0.0139629 -1.81502e-07 0)
(0.0139785 -2.06554e-07 0)
(0.0139951 -2.34254e-07 0)
(0.0140128 -2.71518e-07 0)
(0.0140314 -3.03633e-07 0)
(0.0140511 -3.88547e-07 0)
(0.0140735 -4.21133e-07 0)
(0.0141044 -6.68539e-07 0)
(0.0141551 -7.49796e-07 0)
(0.0142226 -1.1737e-06 0)
(0.0144771 -8.33088e-07 0)
(0.01559 -1.80133e-06 0)
(0.0183227 -1.20574e-06 0)
(0.0226671 -2.01417e-06 0)
(0.0283583 -2.1514e-06 0)
(0.0354531 -3.19828e-06 0)
(0.0443025 -6.51028e-06 0)
(0.0554575 -1.0638e-05 0)
(0.0697616 -1.34235e-05 0)
(0.0884321 -1.82233e-05 0)
(0.113417 -2.3706e-05 0)
(0.148776 -2.93424e-05 0)
(0.201489 -3.39064e-05 0)
(0.276186 -3.74383e-05 0)
(0.370715 -4.00968e-05 0)
(0.478559 -4.19282e-05 0)
(0.592566 -4.2857e-05 0)
(0.707085 -4.29705e-05 0)
(0.818443 -4.23891e-05 0)
(0.924591 -4.12285e-05 0)
(1.02456 -3.95769e-05 0)
(1.11804 -3.74919e-05 0)
(1.20503 -3.50069e-05 0)
(1.28572 -3.21417e-05 0)
(1.36034 -2.89175e-05 0)
(1.42915 -2.53774e-05 0)
(1.49241 -2.16108e-05 0)
(1.55042 -1.77734e-05 0)
(1.6035 -1.40834e-05 0)
(1.65202 -1.07784e-05 0)
(1.69641 -8.04219e-06 0)
(1.73712 -5.94926e-06 0)
(1.77455 -4.45736e-06 0)
(1.80912 -3.44444e-06 0)
(1.84116 -2.76073e-06 0)
(1.87098 -2.26767e-06 0)
(1.89881 -1.85724e-06 0)
(1.92487 -1.46068e-06 0)
(1.94936 -1.05004e-06 0)
(1.97241 -6.3395e-07 0)
(1.99416 -2.47994e-07 0)
(2.01473 6.32382e-08 0)
(2.03421 2.69762e-07 0)
(2.0527 3.69164e-07 0)
(2.07027 3.82707e-07 0)
(2.08699 3.58209e-07 0)
(2.10292 3.16754e-07 0)
(2.11811 3.00303e-07 0)
(2.13261 1.58277e-07 0)
(2.14646 5.14936e-07 0)
(2.15971 3.59085e-07 0)
(2.17239 -1.14622e-07 0)
(2.18453 2.00688e-08 0)
(2.19616 -3.33644e-09 0)
(2.20731 6.48978e-10 0)
(2.218 -1.77001e-10 0)
(2.22825 -4.9819e-11 0)
(2.23809 -2.84414e-11 0)
(2.24753 -1.61306e-11 0)
(2.25659 -3.32803e-12 0)
(2.26529 4.24508e-12 0)
(2.27364 -1.03284e-12 0)
(2.28166 1.40424e-11 0)
(2.28936 3.28382e-11 0)
(2.29674 3.21691e-11 0)
(2.30383 4.15051e-11 0)
(2.31063 4.34265e-11 0)
(2.31715 3.20407e-11 0)
(2.32339 2.46706e-11 0)
(2.32937 2.6839e-11 0)
(2.33509 2.62264e-11 0)
(2.34056 1.67849e-11 0)
(2.34579 8.68301e-12 0)
(2.35078 6.32436e-12 0)
(2.35553 5.58188e-12 0)
(2.36004 1.66108e-12 0)
(2.36433 -1.09433e-11 0)
(2.3684 -1.89931e-11 0)
(2.37223 -1.73489e-11 0)
(2.37585 -1.84897e-11 0)
(2.37924 -1.97797e-11 0)
(2.3824 -1.93447e-11 0)
(2.38534 -1.97958e-11 0)
(2.38805 -1.76521e-11 0)
(2.39052 -1.55619e-11 0)
(2.39274 -2.1084e-11 0)
(2.3947 -3.00127e-11 0)
(2.39637 -3.35925e-11 0)
(2.39771 -3.13387e-11 0)
(2.39875 -2.75624e-11 0)
)
;

boundaryField
{
    inlet
    {
        type            cyclic;
    }
    outlet
    {
        type            cyclic;
    }
    top
    {
        type            zeroGradient;
    }
    bottom
    {
        type            fixedValue;
        value           uniform (0 0 0);
    }
    frontAndBackPlanes
    {
        type            empty;
    }
}


// ************************************************************************* //
