/*--------------------------------*- C++ -*----------------------------------*\
| =========                 |                                                 |
| \\      /  F ield         | OpenFOAM: The Open Source CFD Toolbox           |
|  \\    /   O peration     | Version:  v2006                                 |
|   \\  /    A nd           | Website:  www.openfoam.com                      |
|    \\/     M anipulation  |                                                 |
\*---------------------------------------------------------------------------*/
FoamFile
{
    version     2.0;
    format      ascii;
    class       volScalarField;
    location    "1480";
    object      p;
}
// * * * * * * * * * * * * * * * * * * * * * * * * * * * * * * * * * * * * * //

dimensions      [1 -1 -2 0 0 0 0];


internalField   nonuniform List<scalar> 
120
(
-1.56777
-6.22767
-10.8877
-15.5479
-20.2083
-24.8688
-29.5294
-34.1902
-38.8512
-43.5124
-48.1737
-52.8351
-57.4967
-62.1585
-66.8205
-71.4826
-76.1449
-80.8074
-85.4701
-90.1329
-94.7959
-99.4591
-104.122
-108.786
-113.45
-118.114
-122.778
-127.442
-132.107
-136.771
-141.436
-146.101
-150.766
-155.432
-160.098
-164.763
-169.43
-174.096
-178.762
-183.429
-188.096
-192.763
-197.43
-202.098
-206.766
-211.434
-216.102
-220.771
-225.439
-230.108
-234.777
-239.447
-244.116
-248.786
-253.456
-258.126
-262.797
-267.468
-272.138
-276.81
-281.481
-286.153
-290.825
-295.497
-300.169
-304.842
-309.514
-314.187
-318.861
-323.534
-328.208
-332.882
-337.556
-342.23
-346.905
-351.579
-356.254
-360.929
-365.605
-370.28
-374.956
-379.631
-384.307
-388.983
-393.659
-398.336
-403.012
-407.688
-412.364
-417.04
-421.706
-426.367
-431.027
-435.687
-440.346
-445.006
-449.666
-454.326
-458.985
-463.645
-468.305
-472.965
-477.624
-482.284
-486.944
-491.604
-496.263
-500.923
-505.583
-510.243
-514.902
-519.562
-524.222
-528.882
-533.541
-538.201
-542.861
-547.521
-552.18
-556.84
)
;

boundaryField
{
    inlet
    {
        type            cyclic;
    }
    outlet
    {
        type            cyclic;
    }
    top
    {
        type            calculated;
        value           uniform -559.17;
    }
    bottom
    {
        type            calculated;
        value           uniform 0.762101;
    }
    frontAndBackPlanes
    {
        type            empty;
    }
}


// ************************************************************************* //
