/*--------------------------------*- C++ -*----------------------------------*\
| =========                 |                                                 |
| \\      /  F ield         | OpenFOAM: The Open Source CFD Toolbox           |
|  \\    /   O peration     | Version:  v2006                                 |
|   \\  /    A nd           | Website:  www.openfoam.com                      |
|    \\/     M anipulation  |                                                 |
\*---------------------------------------------------------------------------*/
FoamFile
{
    version     2.0;
    format      ascii;
    class       volScalarField;
    location    "1480";
    object      p_p_total;
}
// * * * * * * * * * * * * * * * * * * * * * * * * * * * * * * * * * * * * * //

dimensions      [1 -1 -2 0 0 0 0];


internalField   nonuniform List<scalar> 
120
(
25.678
25.3837
25.0897
24.7957
24.502
24.2083
23.9148
23.6214
23.3282
23.0352
22.7422
22.4495
22.1569
21.8644
21.5721
21.2799
20.9879
20.6961
20.4044
20.1129
19.8216
19.5304
19.2394
18.9485
18.6578
18.3673
18.077
17.7869
17.4969
17.2071
16.9175
16.628
16.3388
16.0497
15.7608
15.4721
15.1836
14.8953
14.6072
14.3193
14.0316
13.7441
13.4568
13.1697
12.8829
12.5962
12.3097
12.0235
11.7375
11.4517
11.1661
10.8808
10.5957
10.3108
10.0262
9.74177
9.45762
9.1737
8.89004
8.60663
8.32347
8.04056
7.75792
7.47554
7.19341
6.91156
6.62997
6.34864
6.06758
5.78679
5.50626
5.226
4.94601
4.66628
4.38682
4.10763
3.82871
3.55006
3.27169
2.99361
2.71581
2.43833
2.16115
1.88429
1.60774
1.33169
1.0564
0.777154
0.491939
0.179626
0
0
0
0
0
0
0
0
0
0
0
0
0
0
0
0
0
0
0
0
0
0
0
0
0
0
0
0
0
0
)
;

boundaryField
{
    inlet
    {
        type            cyclic;
    }
    outlet
    {
        type            cyclic;
    }
    top
    {
        type            calculated;
        value           uniform 0;
    }
    bottom
    {
        type            calculated;
        value           uniform 25.678;
    }
    frontAndBackPlanes
    {
        type            empty;
    }
}


// ************************************************************************* //
