/*--------------------------------*- C++ -*----------------------------------*\
| =========                 |                                                 |
| \\      /  F ield         | OpenFOAM: The Open Source CFD Toolbox           |
|  \\    /   O peration     | Version:  v2006                                 |
|   \\  /    A nd           | Website:  www.openfoam.com                      |
|    \\/     M anipulation  |                                                 |
\*---------------------------------------------------------------------------*/
FoamFile
{
    version     2.0;
    format      ascii;
    class       surfaceScalarField;
    location    "1480";
    object      phia;
}
// * * * * * * * * * * * * * * * * * * * * * * * * * * * * * * * * * * * * * //

dimensions      [0 3 -1 0 0 0 0];
oriented        oriented;


internalField   nonuniform List<scalar> 
119
(
-3.70032e-16
-7.44405e-16
-1.12315e-15
-1.50629e-15
-1.89388e-15
-2.28595e-15
-2.68254e-15
-3.08368e-15
-3.48942e-15
-3.89979e-15
-4.31483e-15
-4.73459e-15
-5.15911e-15
-5.58844e-15
-6.02261e-15
-6.46167e-15
-6.90567e-15
-7.35466e-15
-7.80869e-15
-8.2678e-15
-8.73205e-15
-9.20149e-15
-9.67618e-15
-1.01562e-14
-1.06415e-14
-1.11323e-14
-1.16285e-14
-1.21302e-14
-1.26375e-14
-1.31505e-14
-1.36692e-14
-1.41936e-14
-1.47237e-14
-1.52598e-14
-1.58017e-14
-1.63496e-14
-1.69034e-14
-1.74631e-14
-1.80289e-14
-1.86008e-14
-1.91786e-14
-1.97624e-14
-2.03522e-14
-2.0948e-14
-2.15496e-14
-2.21572e-14
-2.27704e-14
-2.33894e-14
-2.40139e-14
-2.46439e-14
-2.52793e-14
-2.59198e-14
-2.65654e-14
-2.72159e-14
-2.78711e-14
-2.85309e-14
-2.9195e-14
-2.98633e-14
-3.05357e-14
-3.12118e-14
-3.18916e-14
-3.25747e-14
-3.3261e-14
-3.39503e-14
-3.46422e-14
-3.53366e-14
-3.60332e-14
-3.67315e-14
-3.74314e-14
-3.81325e-14
-3.88342e-14
-3.95364e-14
-4.02384e-14
-4.09398e-14
-4.16404e-14
-4.23396e-14
-4.30371e-14
-4.37329e-14
-4.44268e-14
-4.51191e-14
-4.58097e-14
-4.64989e-14
-4.71864e-14
-4.78713e-14
-4.85516e-14
-4.92231e-14
-4.98869e-14
-5.06298e-14
-5.15097e-14
-9.02507e-14
-6.30188e-13
-3.63915e-11
-5.727e-11
-8.21934e-11
-8.22696e-11
-8.22747e-11
-8.22765e-11
-8.22766e-11
-8.22766e-11
-8.22766e-11
-8.22766e-11
-8.22766e-11
-8.22766e-11
-8.22766e-11
-8.22766e-11
-8.22766e-11
-8.22766e-11
-8.22766e-11
-8.22766e-11
-8.22766e-11
-8.22766e-11
-8.22766e-11
-8.22766e-11
-8.22766e-11
-8.22766e-11
-8.22766e-11
-8.22766e-11
-8.22565e-11
-8.21697e-11
)
;

boundaryField
{
    inlet
    {
        type            cyclic;
        value           nonuniform List<scalar> 
120
(
-9.25063e-28
-2.77684e-27
-4.63247e-27
-6.46412e-27
-8.30476e-27
-1.0157e-26
-1.20234e-26
-1.38458e-26
-1.56876e-26
-1.76123e-26
-1.95618e-26
-2.15388e-26
-2.36067e-26
-2.57077e-26
-2.78444e-26
-3.00198e-26
-3.22367e-26
-3.44982e-26
-3.68071e-26
-3.91666e-26
-4.15797e-26
-4.40498e-26
-4.658e-26
-4.91737e-26
-5.20777e-26
-5.5052e-26
-5.81003e-26
-6.11043e-26
-6.41896e-26
-6.73599e-26
-7.03755e-26
-7.32404e-26
-7.62022e-26
-7.92649e-26
-8.24327e-26
-8.57085e-26
-8.93412e-26
-9.3336e-26
-9.72086e-26
-1.0145e-25
-1.05334e-25
-1.09594e-25
-1.13747e-25
-1.18039e-25
-1.22475e-25
-1.273e-25
-1.31785e-25
-1.3642e-25
-1.40963e-25
-1.46145e-25
-1.51479e-25
-1.56964e-25
-1.626e-25
-1.68383e-25
-1.74311e-25
-1.80622e-25
-1.87069e-25
-1.93645e-25
-2.00344e-25
-2.06667e-25
-2.13091e-25
-2.19606e-25
-2.262e-25
-2.32858e-25
-2.39566e-25
-2.4582e-25
-2.52577e-25
-2.59332e-25
-2.66064e-25
-2.72753e-25
-2.79378e-25
-2.8543e-25
-2.91373e-25
-2.97185e-25
-3.02843e-25
-3.08323e-25
-3.13603e-25
-3.1866e-25
-3.23473e-25
-3.28021e-25
-3.32284e-25
-3.36243e-25
-3.39882e-25
-3.43184e-25
-3.46137e-25
-3.4873e-25
-3.49988e-25
-3.50871e-25
-3.51373e-25
-3.51622e-25
-3.51801e-25
-4.57893e-25
-6.23633e-25
-7.88584e-25
-9.47792e-25
-1.09933e-24
-1.24138e-24
-1.37222e-24
-1.49016e-24
-1.59374e-24
-1.68158e-24
-1.75258e-24
-1.80575e-24
-1.84036e-24
-1.85588e-24
-1.85199e-24
-1.82862e-24
-1.78591e-24
-1.72422e-24
-1.64414e-24
-1.54647e-24
-1.4322e-24
-1.30253e-24
-1.15884e-24
-1.00262e-24
-8.3558e-25
-6.595e-25
-4.7628e-25
-2.87901e-25
-9.64126e-26
)
;
    }
    outlet
    {
        type            cyclic;
        value           nonuniform List<scalar> 
120
(
9.25063e-28
2.77684e-27
4.63247e-27
6.46412e-27
8.30476e-27
1.0157e-26
1.20234e-26
1.38458e-26
1.56876e-26
1.76123e-26
1.95618e-26
2.15388e-26
2.36067e-26
2.57077e-26
2.78444e-26
3.00198e-26
3.22367e-26
3.44982e-26
3.68071e-26
3.91666e-26
4.15797e-26
4.40498e-26
4.658e-26
4.91737e-26
5.20777e-26
5.5052e-26
5.81003e-26
6.11043e-26
6.41896e-26
6.73599e-26
7.03755e-26
7.32404e-26
7.62022e-26
7.92649e-26
8.24327e-26
8.57085e-26
8.93412e-26
9.3336e-26
9.72086e-26
1.0145e-25
1.05334e-25
1.09594e-25
1.13747e-25
1.18039e-25
1.22475e-25
1.273e-25
1.31785e-25
1.3642e-25
1.40963e-25
1.46145e-25
1.51479e-25
1.56964e-25
1.626e-25
1.68383e-25
1.74311e-25
1.80622e-25
1.87069e-25
1.93645e-25
2.00344e-25
2.06667e-25
2.13091e-25
2.19606e-25
2.262e-25
2.32858e-25
2.39566e-25
2.4582e-25
2.52577e-25
2.59332e-25
2.66064e-25
2.72753e-25
2.79378e-25
2.8543e-25
2.91373e-25
2.97185e-25
3.02843e-25
3.08323e-25
3.13603e-25
3.1866e-25
3.23473e-25
3.28021e-25
3.32284e-25
3.36243e-25
3.39882e-25
3.43184e-25
3.46137e-25
3.4873e-25
3.49988e-25
3.50871e-25
3.51373e-25
3.51622e-25
3.51801e-25
4.57893e-25
6.23633e-25
7.88584e-25
9.47792e-25
1.09933e-24
1.24138e-24
1.37222e-24
1.49016e-24
1.59374e-24
1.68158e-24
1.75258e-24
1.80575e-24
1.84036e-24
1.85588e-24
1.85199e-24
1.82862e-24
1.78591e-24
1.72422e-24
1.64414e-24
1.54647e-24
1.4322e-24
1.30253e-24
1.15884e-24
1.00262e-24
8.3558e-25
6.595e-25
4.7628e-25
2.87901e-25
9.64126e-26
)
;
    }
    top
    {
        type            fixedValue;
        value           uniform 0;
    }
    bottom
    {
        type            fixedValue;
        value           uniform 0;
    }
    frontAndBackPlanes
    {
        type            empty;
        value           nonuniform List<scalar> 0();
    }
}


// ************************************************************************* //
