/*--------------------------------*- C++ -*----------------------------------*\
| =========                 |                                                 |
| \\      /  F ield         | OpenFOAM: The Open Source CFD Toolbox           |
|  \\    /   O peration     | Version:  v2006                                 |
|   \\  /    A nd           | Website:  www.openfoam.com                      |
|    \\/     M anipulation  |                                                 |
\*---------------------------------------------------------------------------*/
FoamFile
{
    version     2.0;
    format      ascii;
    class       surfaceScalarField;
    location    "1480";
    object      phib;
}
// * * * * * * * * * * * * * * * * * * * * * * * * * * * * * * * * * * * * * //

dimensions      [0 3 -1 0 0 0 0];
oriented        oriented;


internalField   nonuniform List<scalar> 
119
(
5.55009e-16
1.11631e-15
1.68393e-15
2.25792e-15
2.83832e-15
3.4252e-15
4.01858e-15
4.61853e-15
5.22508e-15
5.83831e-15
6.45823e-15
7.08493e-15
7.71843e-15
8.35881e-15
9.0061e-15
9.66039e-15
1.03217e-14
1.09902e-14
1.16658e-14
1.23486e-14
1.30387e-14
1.37361e-14
1.4441e-14
1.51533e-14
1.58732e-14
1.66007e-14
1.73359e-14
1.80789e-14
1.88296e-14
1.95883e-14
2.03548e-14
2.11294e-14
2.1912e-14
2.27027e-14
2.35016e-14
2.43086e-14
2.51238e-14
2.59472e-14
2.67787e-14
2.76185e-14
2.84665e-14
2.93226e-14
3.01867e-14
3.10587e-14
3.19386e-14
3.28261e-14
3.37212e-14
3.46237e-14
3.55334e-14
3.64501e-14
3.73735e-14
3.83033e-14
3.92393e-14
4.01812e-14
4.11285e-14
4.20812e-14
4.30387e-14
4.40008e-14
4.4967e-14
4.5937e-14
4.69103e-14
4.78865e-14
4.88652e-14
4.98459e-14
5.08281e-14
5.18113e-14
5.27947e-14
5.37778e-14
5.47598e-14
5.57399e-14
5.67172e-14
5.7691e-14
5.86599e-14
5.96231e-14
6.05793e-14
6.15273e-14
6.2466e-14
6.33942e-14
6.43106e-14
6.52142e-14
6.61032e-14
6.69755e-14
6.78272e-14
6.86526e-14
6.94418e-14
7.01786e-14
7.08424e-14
7.15077e-14
7.20584e-14
8.65466e-14
1.60264e-13
1.47271e-13
2.50779e-16
3.43313e-19
3.463e-19
3.8023e-19
4.02804e-19
4.50474e-19
4.6651e-19
4.98044e-19
4.94973e-19
5.08951e-19
4.88771e-19
4.991e-19
4.92425e-19
5.16579e-19
5.08266e-19
5.17295e-19
4.93782e-19
4.86327e-19
4.49361e-19
4.37947e-19
4.14872e-19
4.17931e-19
4.00374e-19
3.97424e-19
3.74464e-19
3.65033e-19
3.35906e-19
)
;

boundaryField
{
    inlet
    {
        type            cyclic;
        value           nonuniform List<scalar> 
120
(
-9.25062e-28
-2.77685e-27
-4.63374e-27
-6.46412e-27
-8.30476e-27
-1.0157e-26
-1.20306e-26
-1.38458e-26
-1.5678e-26
-1.76123e-26
-1.95617e-26
-2.15255e-26
-2.36067e-26
-2.57077e-26
-2.78444e-26
-3.00198e-26
-3.22367e-26
-3.44982e-26
-3.68071e-26
-3.91666e-26
-4.15797e-26
-4.40498e-26
-4.65795e-26
-4.90563e-26
-5.20772e-26
-5.50523e-26
-5.81676e-26
-6.11046e-26
-6.41903e-26
-6.75133e-26
-7.0535e-26
-7.32411e-26
-7.62022e-26
-7.92649e-26
-8.24318e-26
-8.55172e-26
-8.91443e-26
-9.35378e-26
-9.70012e-26
-1.01882e-25
-1.05113e-25
-1.09823e-25
-1.13748e-25
-1.18038e-25
-1.22226e-25
-1.27816e-25
-1.31789e-25
-1.36691e-25
-1.40403e-25
-1.46142e-25
-1.51479e-25
-1.56964e-25
-1.626e-25
-1.68381e-25
-1.73985e-25
-1.80621e-25
-1.87069e-25
-1.93648e-25
-2.01057e-25
-2.06671e-25
-2.13091e-25
-2.19606e-25
-2.262e-25
-2.32862e-25
-2.40371e-25
-2.45e-25
-2.52574e-25
-2.59332e-25
-2.66064e-25
-2.72757e-25
-2.80282e-25
-2.85434e-25
-2.91373e-25
-2.97185e-25
-3.02843e-25
-3.08323e-25
-3.13603e-25
-3.1866e-25
-3.23473e-25
-3.28021e-25
-3.32284e-25
-3.36243e-25
-3.39882e-25
-3.43184e-25
-3.46148e-25
-3.50996e-25
-3.49999e-25
-3.50871e-25
-3.51374e-25
-3.51631e-25
-3.53401e-25
-4.58094e-25
-6.24002e-25
-7.88689e-25
-9.4778e-25
-1.0993e-24
-1.24137e-24
-1.3722e-24
-1.49015e-24
-1.59372e-24
-1.68157e-24
-1.75256e-24
-1.80574e-24
-1.84035e-24
-1.85587e-24
-1.85199e-24
-1.82862e-24
-1.78591e-24
-1.72422e-24
-1.64414e-24
-1.54647e-24
-1.43221e-24
-1.30254e-24
-1.15884e-24
-1.00264e-24
-8.35597e-25
-6.59518e-25
-4.76299e-25
-2.87921e-25
-9.6423e-26
)
;
    }
    outlet
    {
        type            cyclic;
        value           nonuniform List<scalar> 
120
(
9.25062e-28
2.77685e-27
4.63374e-27
6.46412e-27
8.30476e-27
1.0157e-26
1.20306e-26
1.38458e-26
1.5678e-26
1.76123e-26
1.95617e-26
2.15255e-26
2.36067e-26
2.57077e-26
2.78444e-26
3.00198e-26
3.22367e-26
3.44982e-26
3.68071e-26
3.91666e-26
4.15797e-26
4.40498e-26
4.65795e-26
4.90563e-26
5.20772e-26
5.50523e-26
5.81676e-26
6.11046e-26
6.41903e-26
6.75133e-26
7.0535e-26
7.32411e-26
7.62022e-26
7.92649e-26
8.24318e-26
8.55172e-26
8.91443e-26
9.35378e-26
9.70012e-26
1.01882e-25
1.05113e-25
1.09823e-25
1.13748e-25
1.18038e-25
1.22226e-25
1.27816e-25
1.31789e-25
1.36691e-25
1.40403e-25
1.46142e-25
1.51479e-25
1.56964e-25
1.626e-25
1.68381e-25
1.73985e-25
1.80621e-25
1.87069e-25
1.93648e-25
2.01057e-25
2.06671e-25
2.13091e-25
2.19606e-25
2.262e-25
2.32862e-25
2.40371e-25
2.45e-25
2.52574e-25
2.59332e-25
2.66064e-25
2.72757e-25
2.80282e-25
2.85434e-25
2.91373e-25
2.97185e-25
3.02843e-25
3.08323e-25
3.13603e-25
3.1866e-25
3.23473e-25
3.28021e-25
3.32284e-25
3.36243e-25
3.39882e-25
3.43184e-25
3.46148e-25
3.50996e-25
3.49999e-25
3.50871e-25
3.51374e-25
3.51631e-25
3.53401e-25
4.58094e-25
6.24002e-25
7.88689e-25
9.4778e-25
1.0993e-24
1.24137e-24
1.3722e-24
1.49015e-24
1.59372e-24
1.68157e-24
1.75256e-24
1.80574e-24
1.84035e-24
1.85587e-24
1.85199e-24
1.82862e-24
1.78591e-24
1.72422e-24
1.64414e-24
1.54647e-24
1.43221e-24
1.30254e-24
1.15884e-24
1.00264e-24
8.35597e-25
6.59518e-25
4.76299e-25
2.87921e-25
9.6423e-26
)
;
    }
    top
    {
        type            fixedValue;
        value           uniform 0;
    }
    bottom
    {
        type            fixedValue;
        value           uniform 0;
    }
    frontAndBackPlanes
    {
        type            empty;
        value           nonuniform List<scalar> 0();
    }
}


// ************************************************************************* //
