/*--------------------------------*- C++ -*----------------------------------*\
| =========                 |                                                 |
| \\      /  F ield         | OpenFOAM: The Open Source CFD Toolbox           |
|  \\    /   O peration     | Version:  v2006                                 |
|   \\  /    A nd           | Website:  www.openfoam.com                      |
|    \\/     M anipulation  |                                                 |
\*---------------------------------------------------------------------------*/
FoamFile
{
    version     2.0;
    format      ascii;
    class       volTensorField;
    location    "1480";
    object      Taua;
}
// * * * * * * * * * * * * * * * * * * * * * * * * * * * * * * * * * * * * * //

dimensions      [1 -1 -2 0 0 0 0];


internalField   nonuniform List<tensor> 
120
(
(0.000720213 0 0 1.29567e-14 -0.00144043 0 0 0 0.000720213)
(0.000727131 0 0 1.29759e-14 -0.00145426 0 0 0 0.000727131)
(0.000736484 0 0 1.29055e-14 -0.00147297 0 0 0 0.000736484)
(0.000745076 0 0 1.2853e-14 -0.00149015 0 0 0 0.000745076)
(0.000753647 0 0 1.2925e-14 -0.00150729 0 0 0 0.000753647)
(0.000762351 0 0 1.30152e-14 -0.0015247 0 0 0 0.000762351)
(0.000771139 0 0 1.29108e-14 -0.00154228 0 0 0 0.000771139)
(0.000779997 0 0 1.28248e-14 -0.00155999 0 0 0 0.000779997)
(0.000788931 0 0 1.31829e-14 -0.00157786 0 0 0 0.000788931)
(0.000797942 0 0 1.35597e-14 -0.00159588 0 0 0 0.000797942)
(0.000807032 0 0 1.37425e-14 -0.00161406 0 0 0 0.000807032)
(0.000816203 0 0 1.41573e-14 -0.00163241 0 0 0 0.000816203)
(0.000825457 0 0 1.45913e-14 -0.00165091 0 0 0 0.000825457)
(0.000834795 0 0 1.4832e-14 -0.00166959 0 0 0 0.000834795)
(0.00084422 0 0 1.50925e-14 -0.00168844 0 0 0 0.00084422)
(0.000853734 0 0 1.53731e-14 -0.00170747 0 0 0 0.000853734)
(0.000863339 0 0 1.56742e-14 -0.00172668 0 0 0 0.000863339)
(0.000873036 0 0 1.59962e-14 -0.00174607 0 0 0 0.000873036)
(0.00088283 0 0 1.63394e-14 -0.00176566 0 0 0 0.00088283)
(0.000892721 0 0 1.67043e-14 -0.00178544 0 0 0 0.000892721)
(0.000902712 0 0 1.70913e-14 -0.00180542 0 0 0 0.000902712)
(0.000912805 0 0 1.75009e-14 -0.00182561 0 0 0 0.000912805)
(0.000923003 0 0 1.79336e-14 -0.00184601 0 0 0 0.000923003)
(0.000933307 0 0 1.92419e-14 -0.00186661 0 0 0 0.000933307)
(0.000943719 0 0 2.05742e-14 -0.00188744 0 0 0 0.000943719)
(0.00095424 0 0 2.10792e-14 -0.00190848 0 0 0 0.00095424)
(0.000964871 0 0 2.11831e-14 -0.00192974 0 0 0 0.000964871)
(0.000975613 0 0 2.13126e-14 -0.00195123 0 0 0 0.000975613)
(0.000986464 0 0 2.18944e-14 -0.00197293 0 0 0 0.000986464)
(0.000997425 0 0 2.16507e-14 -0.00199485 0 0 0 0.000997425)
(0.00100849 0 0 2.0582e-14 -0.00201698 0 0 0 0.00100849)
(0.00101966 0 0 2.03935e-14 -0.00203932 0 0 0 0.00101966)
(0.00103093 0 0 2.10857e-14 -0.00206186 0 0 0 0.00103093)
(0.00104229 0 0 2.18067e-14 -0.00208458 0 0 0 0.00104229)
(0.00105374 0 0 2.25526e-14 -0.00210747 0 0 0 0.00105374)
(0.00106526 1.84068e-17 0 2.41799e-14 -0.00213052 0 0 0 0.00106526)
(0.00107685 0 0 2.66962e-14 -0.00215369 0 0 0 0.00107685)
(0.00108848 0 0 2.75359e-14 -0.00217697 0 0 0 0.00108848)
(0.00110016 0 0 2.83995e-14 -0.00220032 0 0 0 0.00110016)
(0.00111185 0 0 2.84378e-14 -0.00222371 0 0 0 0.00111185)
(0.00112355 0 0 2.85027e-14 -0.0022471 0 0 0 0.00112355)
(0.00113523 0 0 2.94456e-14 -0.00227045 0 0 0 0.00113523)
(0.00114686 0 0 2.956e-14 -0.00229372 0 0 0 0.00114686)
(0.00115843 0 0 3.05493e-14 -0.00231686 0 0 0 0.00115843)
(0.00116991 0 0 3.24114e-14 -0.00233981 0 0 0 0.00116991)
(0.00118127 0 0 3.25856e-14 -0.00236253 0 0 0 0.00118127)
(0.00119248 0 0 3.19216e-14 -0.00238496 0 0 0 0.00119248)
(0.00120353 0 0 3.21219e-14 -0.00240706 0 0 0 0.00120353)
(0.00121438 0 0 3.40355e-14 -0.00242875 0 0 0 0.00121438)
(0.001225 0 0 3.68052e-14 -0.00245001 0 0 0 0.001225)
(0.00123539 0 0 3.78676e-14 -0.00247077 0 0 0 0.00123539)
(0.0012455 0 0 3.89229e-14 -0.002491 0 0 0 0.0012455)
(0.00125532 0 0 3.99654e-14 -0.00251064 0 0 0 0.00125532)
(0.00126484 0 0 4.09888e-14 -0.00252968 0 0 0 0.00126484)
(0.00127403 0 0 4.28389e-14 -0.00254806 0 0 0 0.00127403)
(0.00128289 0 0 4.46556e-14 -0.00256577 0 0 0 0.00128289)
(0.00129139 0 0 4.5578e-14 -0.00258279 0 0 0 0.00129139)
(0.00129954 0 0 4.64597e-14 -0.00259909 0 0 0 0.00129954)
(0.00130732 -3.68135e-17 0 4.55797e-14 -0.00261464 0 0 0 0.00130732)
(0.00131472 0 0 4.46172e-14 -0.00262944 0 0 0 0.00131472)
(0.00132172 0 0 4.52861e-14 -0.00264345 0 0 0 0.00132172)
(0.00132832 0 0 4.58802e-14 -0.00265664 0 0 0 0.00132832)
(0.00133449 0 0 4.63815e-14 -0.00266898 0 0 0 0.00133449)
(0.00134021 0 0 4.67813e-14 -0.00268043 0 0 0 0.00134021)
(0.00134546 0 0 4.53674e-14 -0.00269092 0 0 0 0.00134546)
(0.0013502 0 0 4.55394e-14 -0.00270039 0 0 0 0.0013502)
(0.00135438 0 0 4.72893e-14 -0.00270876 0 0 0 0.00135438)
(0.00135796 0 0 4.72019e-14 -0.00271592 0 0 0 0.00135796)
(0.00136089 0 0 4.69739e-14 -0.00272178 0 0 0 0.00136089)
(0.00136311 0 0 4.65991e-14 -0.00272623 0 0 0 0.00136311)
(0.00136458 0 0 4.43702e-14 -0.00272915 0 0 0 0.00136458)
(0.00136523 0 0 4.19856e-14 -0.00273045 0 0 0 0.00136523)
(0.00136504 0 0 4.11448e-14 -0.00273007 0 0 0 0.00136504)
(0.00136399 0 0 4.01438e-14 -0.00272799 0 0 0 0.00136399)
(0.00136214 0 0 3.89818e-14 -0.00272427 0 0 0 0.00136214)
(0.00135955 0 0 3.76598e-14 -0.00271911 0 0 0 0.00135955)
(0.0013564 0 0 3.61799e-14 -0.00271281 0 0 0 0.0013564)
(0.00135291 0 0 3.45458e-14 -0.00270582 0 0 0 0.00135291)
(0.00134935 0 0 3.27627e-14 -0.0026987 0 0 0 0.00134935)
(0.00134604 0 0 3.08373e-14 -0.00269208 0 0 0 0.00134604)
(0.0013431 0 0 2.87774e-14 -0.00268621 0 0 0 0.0013431)
(0.00133961 0 0 2.65927e-14 -0.00267921 0 0 0 0.00133961)
(0.00133462 0 0 2.42943e-14 -0.00266925 0 0 0 0.00133462)
(0.00133636 0 0 2.18949e-14 -0.00267271 0 0 0 0.00133636)
(0.00135211 0 0 1.94084e-14 -0.00270421 0 0 0 0.00135211)
(0.00126393 0 0 1.34781e-14 -0.00252787 0 0 0 0.00126393)
(0.000878093 0 0 7.49411e-15 -0.00175619 0 0 0 0.000878093)
(0.00157856 0 0 4.84598e-15 -0.00315712 0 0 0 0.00157856)
(0.0102899 0 0 2.62904e-15 -0.0205799 0 0 0 0.0102899)
(0.0101447 0 0 4.24065e-16 -0.0202894 0 0 0 0.0101447)
(7.44264e-06 0 0 1.4783e-19 -1.48853e-05 0 0 0 7.44264e-06)
(3.59289e-07 0 0 7.66108e-21 -7.18578e-07 0 0 0 3.59289e-07)
(4.27921e-10 0 0 1.01231e-23 -8.55842e-10 0 0 0 4.27921e-10)
(6.82671e-18 0 0 2.19197e-31 -1.36534e-17 0 0 0 6.82671e-18)
(1.90716e-26 0 0 1.68771e-39 -3.81432e-26 0 0 0 1.90716e-26)
(-6.02202e-37 0 0 1.10735e-47 1.2044e-36 0 0 0 -6.02202e-37)
(-7.9003e-46 0 0 6.76947e-56 1.58006e-45 0 0 0 -7.9003e-46)
(3.40396e-54 0 0 3.81691e-64 -6.80792e-54 0 0 0 3.40396e-54)
(3.69153e-63 0 0 2.17949e-72 -7.38306e-63 0 0 0 3.69153e-63)
(-9.30744e-72 0 0 1.23106e-80 1.86149e-71 0 0 0 -9.30744e-72)
(-1.73369e-80 0 0 7.53007e-89 3.46739e-80 0 0 0 -1.73369e-80)
(3.84031e-89 0 0 4.76435e-97 -7.68061e-89 0 0 0 3.84031e-89)
(1.19428e-97 0 0 3.0731e-105 -2.38855e-97 0 0 0 1.19428e-97)
(-2.10084e-106 0 0 1.62051e-113 4.20169e-106 0 0 0 -2.10084e-106)
(-9.61821e-115 0 0 3.62958e-122 1.92364e-114 0 0 0 -9.61821e-115)
(9.96381e-124 0 0 -8.22685e-130 -1.99276e-123 0 0 0 9.96381e-124)
(7.34321e-132 0 0 -2.06979e-137 -1.46864e-131 0 0 0 7.34321e-132)
(-4.68958e-142 0 0 -3.45044e-145 9.37917e-142 0 0 0 -4.68958e-142)
(1.58508e-148 0 0 -5.2833e-153 -3.17017e-148 0 0 0 1.58508e-148)
(4.9974e-156 0 0 -8.00947e-161 -9.99479e-156 0 0 0 4.9974e-156)
(1.23843e-163 0 0 -1.8805e-168 -2.47685e-163 0 0 0 1.23843e-163)
(5.51517e-171 0 0 -1.11298e-175 -1.10303e-170 0 0 0 5.51517e-171)
(2.62365e-178 0 0 -1.04674e-182 -5.2473e-178 0 0 0 2.62365e-178)
(-5.44685e-184 0 0 -9.85542e-190 1.08937e-183 0 0 0 -5.44685e-184)
(-8.15184e-191 0 0 -9.23196e-197 1.63037e-190 0 0 0 -8.15184e-191)
(-1.27235e-196 0 0 -8.22351e-204 2.54469e-196 0 0 0 -1.27235e-196)
(-5.65223e-201 0 0 -7.29046e-211 1.13045e-200 0 0 0 -5.65223e-201)
(-1.07536e-207 0 0 -6.12219e-218 2.15073e-207 0 0 0 -1.07536e-207)
(-6.25022e-214 0 0 -5.02142e-225 1.25004e-213 0 0 0 -6.25022e-214)
(-4.5083e-218 0 0 -3.79518e-232 9.0166e-218 0 0 0 -4.5083e-218)
)
;

boundaryField
{
    inlet
    {
        type            cyclic;
    }
    outlet
    {
        type            cyclic;
    }
    top
    {
        type            extrapolatedCalculated;
        value           uniform (-9.008e-218 0 0 -3.80839e-232 1.8016e-217 0 0 0 -9.008e-218);
    }
    bottom
    {
        type            extrapolatedCalculated;
        value           uniform (0.000718298 0 0 1.29509e-14 -0.0014366 0 0 0 0.000718298);
    }
    frontAndBackPlanes
    {
        type            empty;
    }
}


// ************************************************************************* //
