/*--------------------------------*- C++ -*----------------------------------*\
| =========                 |                                                 |
| \\      /  F ield         | OpenFOAM: The Open Source CFD Toolbox           |
|  \\    /   O peration     | Version:  v2006                                 |
|   \\  /    A nd           | Website:  www.openfoam.com                      |
|    \\/     M anipulation  |                                                 |
\*---------------------------------------------------------------------------*/
FoamFile
{
    version     2.0;
    format      ascii;
    class       volTensorField;
    location    "1480";
    object      Taub;
}
// * * * * * * * * * * * * * * * * * * * * * * * * * * * * * * * * * * * * * //

dimensions      [1 -1 -2 0 0 0 0];


internalField   nonuniform List<tensor> 
120
(
(-5.16082e-08 0 0 6.16905e-19 1.03216e-07 0 0 0 -5.16082e-08)
(-5.1988e-08 0 0 6.18003e-19 1.03976e-07 0 0 0 -5.1988e-08)
(-5.25316e-08 0 0 6.14408e-19 1.05063e-07 0 0 0 -5.25316e-08)
(-5.3131e-08 0 0 6.1167e-19 1.06262e-07 0 0 0 -5.3131e-08)
(-5.37255e-08 0 0 6.15283e-19 1.07451e-07 0 0 0 -5.37255e-08)
(-5.43213e-08 0 0 6.20735e-19 1.08643e-07 0 0 0 -5.43213e-08)
(-5.49211e-08 0 0 6.14533e-19 1.09842e-07 0 0 0 -5.49211e-08)
(-5.55258e-08 0 0 6.07626e-19 1.11052e-07 0 0 0 -5.55258e-08)
(-5.6135e-08 0 0 6.27423e-19 1.1227e-07 0 0 0 -5.6135e-08)
(-5.67485e-08 0 0 6.46912e-19 1.13497e-07 0 0 0 -5.67485e-08)
(-5.73664e-08 0 0 6.51791e-19 1.14733e-07 0 0 0 -5.73664e-08)
(-5.79888e-08 0 0 6.73695e-19 1.15978e-07 0 0 0 -5.79888e-08)
(-5.86162e-08 0 0 6.9652e-19 1.17232e-07 0 0 0 -5.86162e-08)
(-5.92484e-08 0 0 7.05734e-19 1.18497e-07 0 0 0 -5.92484e-08)
(-5.9886e-08 0 0 7.18079e-19 1.19772e-07 0 0 0 -5.9886e-08)
(-6.05292e-08 0 0 7.3139e-19 1.21058e-07 0 0 0 -6.05292e-08)
(-6.11778e-08 0 0 7.45674e-19 1.22356e-07 0 0 0 -6.11778e-08)
(-6.18313e-08 0 0 7.60946e-19 1.23663e-07 0 0 0 -6.18313e-08)
(-6.24898e-08 0 0 7.77227e-19 1.2498e-07 0 0 0 -6.24898e-08)
(-6.31535e-08 0 0 7.94537e-19 1.26307e-07 0 0 0 -6.31535e-08)
(-6.3823e-08 0 0 8.12896e-19 1.27646e-07 0 0 0 -6.3823e-08)
(-6.44984e-08 0 0 8.32243e-19 1.28997e-07 0 0 0 -6.44984e-08)
(-6.518e-08 0 0 8.33327e-19 1.3036e-07 0 0 0 -6.518e-08)
(-6.58684e-08 0 0 9.15015e-19 1.31737e-07 0 0 0 -6.58684e-08)
(-6.6563e-08 0 0 9.97884e-19 1.33126e-07 0 0 0 -6.6563e-08)
(-6.72632e-08 0 0 1.01355e-18 1.34526e-07 0 0 0 -6.72632e-08)
(-6.79685e-08 0 0 1.00713e-18 1.35937e-07 0 0 0 -6.79685e-08)
(-6.86794e-08 0 0 1.00212e-18 1.37359e-07 0 0 0 -6.86794e-08)
(-6.93961e-08 0 0 1.06628e-18 1.38792e-07 0 0 0 -6.93961e-08)
(-7.01185e-08 0 0 1.05558e-18 1.40237e-07 0 0 0 -7.01185e-08)
(-7.0847e-08 0 0 9.52877e-19 1.41694e-07 0 0 0 -7.0847e-08)
(-7.15815e-08 0 0 9.42719e-19 1.43163e-07 0 0 0 -7.15815e-08)
(-7.23212e-08 0 0 1.00196e-18 1.44642e-07 0 0 0 -7.23212e-08)
(-7.30643e-08 0 0 1.03612e-18 1.46129e-07 0 0 0 -7.30643e-08)
(-7.38097e-08 0 0 1.03982e-18 1.47619e-07 0 0 0 -7.38097e-08)
(-7.45573e-08 -8.74567e-22 0 1.11626e-18 1.49115e-07 0 0 0 -7.45573e-08)
(-7.53067e-08 0 0 1.33369e-18 1.50613e-07 0 0 0 -7.53067e-08)
(-7.60569e-08 0 0 1.30637e-18 1.52114e-07 0 0 0 -7.60569e-08)
(-7.68074e-08 0 0 1.38731e-18 1.53615e-07 0 0 0 -7.68074e-08)
(-7.75575e-08 0 0 1.34852e-18 1.55115e-07 0 0 0 -7.75575e-08)
(-7.83049e-08 0 0 1.32007e-18 1.5661e-07 0 0 0 -7.83049e-08)
(-7.90466e-08 0 0 1.43525e-18 1.58093e-07 0 0 0 -7.90466e-08)
(-7.97803e-08 0 0 1.36534e-18 1.59561e-07 0 0 0 -7.97803e-08)
(-8.05048e-08 0 0 1.40894e-18 1.6101e-07 0 0 0 -8.05048e-08)
(-8.12189e-08 0 0 1.62478e-18 1.62438e-07 0 0 0 -8.12189e-08)
(-8.19207e-08 0 0 1.58893e-18 1.63841e-07 0 0 0 -8.19207e-08)
(-8.26088e-08 0 0 1.47446e-18 1.65218e-07 0 0 0 -8.26088e-08)
(-8.3282e-08 0 0 1.43107e-18 1.66564e-07 0 0 0 -8.3282e-08)
(-8.39373e-08 0 0 1.56993e-18 1.67875e-07 0 0 0 -8.39373e-08)
(-8.45709e-08 0 0 1.83952e-18 1.69142e-07 0 0 0 -8.45709e-08)
(-8.51801e-08 0 0 1.79721e-18 1.7036e-07 0 0 0 -8.51801e-08)
(-8.57639e-08 0 0 1.84667e-18 1.71528e-07 0 0 0 -8.57639e-08)
(-8.63214e-08 0 0 1.89568e-18 1.72643e-07 0 0 0 -8.63214e-08)
(-8.6851e-08 0 0 1.89021e-18 1.73702e-07 0 0 0 -8.6851e-08)
(-8.73523e-08 0 0 2.03178e-18 1.74705e-07 0 0 0 -8.73523e-08)
(-8.78245e-08 0 0 2.17172e-18 1.75649e-07 0 0 0 -8.78245e-08)
(-8.82655e-08 0 0 2.16194e-18 1.76531e-07 0 0 0 -8.82655e-08)
(-8.86717e-08 0 0 2.32102e-18 1.77343e-07 0 0 0 -8.86717e-08)
(-8.90409e-08 1.74514e-21 0 2.16069e-18 1.78082e-07 0 0 0 -8.90409e-08)
(-8.93727e-08 0 0 1.99649e-18 1.78745e-07 0 0 0 -8.93727e-08)
(-8.96663e-08 0 0 2.14567e-18 1.79333e-07 0 0 0 -8.96663e-08)
(-8.992e-08 0 0 2.17405e-18 1.7984e-07 0 0 0 -8.992e-08)
(-9.01324e-08 0 0 2.19807e-18 1.80265e-07 0 0 0 -9.01324e-08)
(-9.03019e-08 0 0 2.34946e-18 1.80604e-07 0 0 0 -9.03019e-08)
(-9.0424e-08 0 0 2.01213e-18 1.80848e-07 0 0 0 -9.0424e-08)
(-9.04924e-08 0 0 2.0226e-18 1.80985e-07 0 0 0 -9.04924e-08)
(-9.05014e-08 0 0 2.37503e-18 1.81003e-07 0 0 0 -9.05014e-08)
(-9.04471e-08 0 0 2.23513e-18 1.80894e-07 0 0 0 -9.04471e-08)
(-9.03242e-08 0 0 2.22399e-18 1.80648e-07 0 0 0 -9.03242e-08)
(-9.01266e-08 0 0 2.35496e-18 1.80253e-07 0 0 0 -9.01266e-08)
(-8.98481e-08 0 0 2.09924e-18 1.79696e-07 0 0 0 -8.98481e-08)
(-8.94828e-08 0 0 1.83624e-18 1.78966e-07 0 0 0 -8.94828e-08)
(-8.90227e-08 0 0 1.94511e-18 1.78045e-07 0 0 0 -8.90227e-08)
(-8.8459e-08 0 0 1.898e-18 1.76918e-07 0 0 0 -8.8459e-08)
(-8.77859e-08 0 0 1.84261e-18 1.75572e-07 0 0 0 -8.77859e-08)
(-8.70012e-08 0 0 1.77965e-18 1.74002e-07 0 0 0 -8.70012e-08)
(-8.61042e-08 0 0 1.70923e-18 1.72208e-07 0 0 0 -8.61042e-08)
(-8.50934e-08 0 0 1.63154e-18 1.70187e-07 0 0 0 -8.50934e-08)
(-8.39639e-08 0 0 1.54683e-18 1.67928e-07 0 0 0 -8.39639e-08)
(-8.2697e-08 0 0 1.45541e-18 1.65394e-07 0 0 0 -8.2697e-08)
(-8.12518e-08 0 0 1.35767e-18 1.62504e-07 0 0 0 -8.12518e-08)
(-7.95777e-08 0 0 1.25407e-18 1.59155e-07 0 0 0 -7.95777e-08)
(-7.75344e-08 0 0 1.14515e-18 1.55069e-07 0 0 0 -7.75344e-08)
(-7.44152e-08 0 0 1.03327e-18 1.4883e-07 0 0 0 -7.44152e-08)
(-6.9281e-08 0 0 1.28726e-18 1.38562e-07 0 0 0 -6.9281e-08)
(-6.66104e-08 0 0 6.34169e-19 1.33221e-07 0 0 0 -6.66104e-08)
(-8.06895e-08 0 0 -2.05772e-20 1.61379e-07 0 0 0 -8.06895e-08)
(-3.04327e-08 0 0 2.25881e-19 6.08655e-08 0 0 0 -3.04327e-08)
(2.00681e-06 0 0 1.24716e-19 -4.01362e-06 0 0 0 2.00681e-06)
(-1.15747e-07 0 0 3.31714e-19 2.31494e-07 0 0 0 -1.15747e-07)
(2.45941e-05 0 0 1.4148e-17 -4.91883e-05 0 0 0 2.45941e-05)
(-2.03328e-05 0 0 1.84009e-17 4.06656e-05 0 0 0 -2.03328e-05)
(-1.36977e-05 0 0 2.20374e-17 2.73954e-05 0 0 0 -1.36977e-05)
(2.2919e-05 0 0 2.15825e-17 -4.5838e-05 0 0 0 2.2919e-05)
(2.08528e-06 0 0 2.07049e-17 -4.17055e-06 0 0 0 2.08528e-06)
(-1.74403e-06 0 0 1.957e-17 3.48805e-06 0 0 0 -1.74403e-06)
(-2.37978e-07 0 0 1.81909e-17 4.75956e-07 0 0 0 -2.37978e-07)
(1.29475e-07 0 0 1.65833e-17 -2.58951e-07 0 0 0 1.29475e-07)
(2.43965e-08 0 0 1.4766e-17 -4.87929e-08 0 0 0 2.43965e-08)
(-9.33234e-09 0 0 1.27599e-17 1.86647e-08 0 0 0 -9.33234e-09)
(-2.37979e-09 0 0 1.05884e-17 4.75958e-09 0 0 0 -2.37979e-09)
(6.43812e-10 0 0 8.27673e-18 -1.28762e-09 0 0 0 6.43812e-10)
(2.21558e-10 0 0 5.85173e-18 -4.43117e-10 0 0 0 2.21558e-10)
(-4.16954e-11 0 0 3.34164e-18 8.33908e-11 0 0 0 -4.16954e-11)
(-1.99946e-11 0 0 7.75638e-19 3.99892e-11 0 0 0 -1.99946e-11)
(2.09892e-12 0 0 -1.81648e-18 -4.19784e-12 0 0 0 2.09892e-12)
(1.51631e-12 0 0 -4.40465e-18 -3.03262e-12 0 0 0 1.51631e-12)
(-2.8283e-15 0 0 -6.95891e-18 5.6566e-15 0 0 0 -2.8283e-15)
(2.87569e-13 0 0 -9.44973e-18 -5.75137e-13 0 0 0 2.87569e-13)
(7.369e-13 0 0 -1.18484e-17 -1.4738e-12 0 0 0 7.369e-13)
(9.2611e-13 0 0 -1.41272e-17 -1.85222e-12 0 0 0 9.2611e-13)
(8.0374e-13 0 0 -1.62599e-17 -1.60748e-12 0 0 0 8.0374e-13)
(4.90916e-13 0 0 -1.82221e-17 -9.81833e-13 0 0 0 4.90916e-13)
(2.7293e-13 0 0 -1.99913e-17 -5.4586e-13 0 0 0 2.7293e-13)
(2.94217e-13 0 0 -2.15471e-17 -5.88434e-13 0 0 0 2.94217e-13)
(5.02568e-13 0 0 -2.28718e-17 -1.00514e-12 0 0 0 5.02568e-13)
(6.05452e-13 0 0 -2.39502e-17 -1.2109e-12 0 0 0 6.05452e-13)
(-2.92049e-13 0 0 -2.477e-17 5.84098e-13 0 0 0 -2.92049e-13)
(-5.60917e-13 0 0 -2.53219e-17 1.12183e-12 0 0 0 -5.60917e-13)
(1.47385e-11 0 0 -2.56197e-17 -2.9477e-11 0 0 0 1.47385e-11)
)
;

boundaryField
{
    inlet
    {
        type            cyclic;
    }
    outlet
    {
        type            cyclic;
    }
    top
    {
        type            extrapolatedCalculated;
        value           uniform (2.94368e-11 0 0 -2.57096e-17 -5.88736e-11 0 0 0 2.94368e-11);
    }
    bottom
    {
        type            extrapolatedCalculated;
        value           uniform (-5.14687e-08 0 0 6.16629e-19 1.02937e-07 0 0 0 -5.14687e-08);
    }
    frontAndBackPlanes
    {
        type            empty;
    }
}


// ************************************************************************* //
