/*--------------------------------*- C++ -*----------------------------------*\
| =========                 |                                                 |
| \\      /  F ield         | OpenFOAM: The Open Source CFD Toolbox           |
|  \\    /   O peration     | Version:  v2006                                 |
|   \\  /    A nd           | Website:  www.openfoam.com                      |
|    \\/     M anipulation  |                                                 |
\*---------------------------------------------------------------------------*/
FoamFile
{
    version     2.0;
    format      ascii;
    class       volVectorField;
    location    "1480";
    object      Ua;
}
// * * * * * * * * * * * * * * * * * * * * * * * * * * * * * * * * * * * * * //

dimensions      [0 1 -1 0 0 0 0];


internalField   nonuniform List<vector> 
120
(
(3.08354e-21 -5.1307e-10 0)
(9.25614e-21 -1.54468e-09 0)
(1.54416e-20 -2.59058e-09 0)
(2.15471e-20 -3.64892e-09 0)
(2.76825e-20 -4.71937e-09 0)
(3.38566e-20 -5.80219e-09 0)
(4.00779e-20 -6.89752e-09 0)
(4.61526e-20 -8.00545e-09 0)
(5.2292e-20 -9.12608e-09 0)
(5.87077e-20 -1.02595e-08 0)
(6.5206e-20 -1.14059e-08 0)
(7.17959e-20 -1.25653e-08 0)
(7.86891e-20 -1.37379e-08 0)
(8.56923e-20 -1.49238e-08 0)
(9.28148e-20 -1.6123e-08 0)
(1.00066e-19 -1.73358e-08 0)
(1.07456e-19 -1.85623e-08 0)
(1.14994e-19 -1.98025e-08 0)
(1.2269e-19 -2.10567e-08 0)
(1.30555e-19 -2.23249e-08 0)
(1.38599e-19 -2.36073e-08 0)
(1.46833e-19 -2.49041e-08 0)
(1.55267e-19 -2.62153e-08 0)
(1.63912e-19 -2.75412e-08 0)
(1.73592e-19 -2.88819e-08 0)
(1.83507e-19 -3.02375e-08 0)
(1.93668e-19 -3.16083e-08 0)
(2.03681e-19 -3.29943e-08 0)
(2.13965e-19 -3.43958e-08 0)
(2.24533e-19 -3.58128e-08 0)
(2.34585e-19 -3.72455e-08 0)
(2.44135e-19 -3.86942e-08 0)
(2.54007e-19 -4.01589e-08 0)
(2.64216e-19 -4.16397e-08 0)
(2.74776e-19 -4.31368e-08 0)
(2.85695e-19 -4.46504e-08 0)
(2.97804e-19 -4.61804e-08 0)
(3.1112e-19 -4.77271e-08 0)
(3.24029e-19 -4.92904e-08 0)
(3.38167e-19 -5.08704e-08 0)
(3.51112e-19 -5.24671e-08 0)
(3.65313e-19 -5.40805e-08 0)
(3.79156e-19 -5.57106e-08 0)
(3.93465e-19 -5.73573e-08 0)
(4.0825e-19 -5.90204e-08 0)
(4.24333e-19 -6.06999e-08 0)
(4.39284e-19 -6.23954e-08 0)
(4.54734e-19 -6.41069e-08 0)
(4.69876e-19 -6.58341e-08 0)
(4.87149e-19 -6.75766e-08 0)
(5.04929e-19 -6.93341e-08 0)
(5.23214e-19 -7.11063e-08 0)
(5.41998e-19 -7.28927e-08 0)
(5.61276e-19 -7.46929e-08 0)
(5.81035e-19 -7.65065e-08 0)
(6.02075e-19 -7.8333e-08 0)
(6.23564e-19 -8.01719e-08 0)
(6.45482e-19 -8.20227e-08 0)
(6.67812e-19 -8.38849e-08 0)
(6.88892e-19 -8.57579e-08 0)
(7.10304e-19 -8.76412e-08 0)
(7.32021e-19 -8.95342e-08 0)
(7.54e-19 -9.14364e-08 0)
(7.76194e-19 -9.33471e-08 0)
(7.98553e-19 -9.52656e-08 0)
(8.19401e-19 -9.71912e-08 0)
(8.41924e-19 -9.91233e-08 0)
(8.64438e-19 -1.01061e-07 0)
(8.86878e-19 -1.03003e-07 0)
(9.09175e-19 -1.04949e-07 0)
(9.31258e-19 -1.06898e-07 0)
(9.51433e-19 -1.08848e-07 0)
(9.71245e-19 -1.10798e-07 0)
(9.90618e-19 -1.12748e-07 0)
(1.00948e-18 -1.14696e-07 0)
(1.02774e-18 -1.1664e-07 0)
(1.04534e-18 -1.1858e-07 0)
(1.0622e-18 -1.20515e-07 0)
(1.07824e-18 -1.22445e-07 0)
(1.0934e-18 -1.24371e-07 0)
(1.10761e-18 -1.26291e-07 0)
(1.12081e-18 -1.28208e-07 0)
(1.13294e-18 -1.30119e-07 0)
(1.14395e-18 -1.32021e-07 0)
(1.15379e-18 -1.33937e-07 0)
(1.16243e-18 -1.35884e-07 0)
(1.16663e-18 -1.37548e-07 0)
(1.16957e-18 -1.38393e-07 0)
(1.17124e-18 -1.42058e-07 0)
(1.17207e-18 -1.67793e-07 0)
(1.17267e-18 -2.44471e-07 0)
(1.52631e-18 -5.3671e-05 0)
(2.07878e-18 -0.000127728 0)
(2.62861e-18 -0.00019346 0)
(3.15931e-18 -0.000228685 0)
(3.66443e-18 -0.000228575 0)
(4.13794e-18 -0.000228525 0)
(4.57407e-18 -0.000228543 0)
(4.9672e-18 -0.000228547 0)
(5.31246e-18 -0.000228546 0)
(5.60527e-18 -0.000228546 0)
(5.84193e-18 -0.000228546 0)
(6.01915e-18 -0.000228546 0)
(6.13453e-18 -0.000228546 0)
(6.18625e-18 -0.000228546 0)
(6.1733e-18 -0.000228546 0)
(6.09541e-18 -0.000228546 0)
(5.95302e-18 -0.000228546 0)
(5.74741e-18 -0.000228546 0)
(5.48047e-18 -0.000228546 0)
(5.15489e-18 -0.000228546 0)
(4.774e-18 -0.000228546 0)
(4.34176e-18 -0.000228546 0)
(3.8628e-18 -0.000228546 0)
(3.34208e-18 -0.000228546 0)
(2.78527e-18 -0.000228546 0)
(2.19833e-18 -0.000228546 0)
(1.5876e-18 -0.000228518 0)
(9.59669e-19 -0.000228481 0)
(3.21375e-19 -0.000228045 0)
)
;

boundaryField
{
    inlet
    {
        type            cyclic;
    }
    outlet
    {
        type            cyclic;
    }
    top
    {
        type            fixedValue;
        value           uniform (0 0 0);
    }
    bottom
    {
        type            fixedValue;
        value           uniform (0 0 0);
    }
    frontAndBackPlanes
    {
        type            empty;
    }
}


// ************************************************************************* //
