/*--------------------------------*- C++ -*----------------------------------*\
| =========                 |                                                 |
| \\      /  F ield         | OpenFOAM: The Open Source CFD Toolbox           |
|  \\    /   O peration     | Version:  v2006                                 |
|   \\  /    A nd           | Website:  www.openfoam.com                      |
|    \\/     M anipulation  |                                                 |
\*---------------------------------------------------------------------------*/
FoamFile
{
    version     2.0;
    format      ascii;
    class       volVectorField;
    location    "1480";
    object      Ub;
}
// * * * * * * * * * * * * * * * * * * * * * * * * * * * * * * * * * * * * * //

dimensions      [0 1 -1 0 0 0 0];


internalField   nonuniform List<vector> 
120
(
(3.08354e-21 7.7213e-10 0)
(9.25616e-21 2.32476e-09 0)
(1.54458e-20 3.89196e-09 0)
(2.15471e-20 5.47736e-09 0)
(2.76825e-20 7.08069e-09 0)
(3.38567e-20 8.70193e-09 0)
(4.01018e-20 1.03412e-08 0)
(4.61526e-20 1.19986e-08 0)
(5.22601e-20 1.36743e-08 0)
(5.87076e-20 1.53685e-08 0)
(6.52058e-20 1.70812e-08 0)
(7.17516e-20 1.88126e-08 0)
(7.86889e-20 2.05629e-08 0)
(8.56923e-20 2.23322e-08 0)
(9.28148e-20 2.41206e-08 0)
(1.00066e-19 2.59284e-08 0)
(1.07456e-19 2.77556e-08 0)
(1.14994e-19 2.96026e-08 0)
(1.2269e-19 3.14693e-08 0)
(1.30555e-19 3.3356e-08 0)
(1.38599e-19 3.52628e-08 0)
(1.46833e-19 3.719e-08 0)
(1.55265e-19 3.91376e-08 0)
(1.63521e-19 4.11059e-08 0)
(1.73591e-19 4.30952e-08 0)
(1.83508e-19 4.51055e-08 0)
(1.93892e-19 4.71371e-08 0)
(2.03682e-19 4.919e-08 0)
(2.13968e-19 5.12646e-08 0)
(2.25044e-19 5.33609e-08 0)
(2.35117e-19 5.54792e-08 0)
(2.44137e-19 5.76196e-08 0)
(2.54007e-19 5.97824e-08 0)
(2.64216e-19 6.19676e-08 0)
(2.74773e-19 6.41753e-08 0)
(2.85057e-19 6.64057e-08 0)
(2.97148e-19 6.86587e-08 0)
(3.11793e-19 7.09345e-08 0)
(3.23337e-19 7.3233e-08 0)
(3.39607e-19 7.55543e-08 0)
(3.50376e-19 7.78983e-08 0)
(3.66078e-19 8.02649e-08 0)
(3.79159e-19 8.2654e-08 0)
(3.93461e-19 8.50652e-08 0)
(4.07419e-19 8.74982e-08 0)
(4.26054e-19 8.99528e-08 0)
(4.39296e-19 9.24286e-08 0)
(4.55637e-19 9.49251e-08 0)
(4.68011e-19 9.74418e-08 0)
(4.87141e-19 9.99783e-08 0)
(5.04929e-19 1.02534e-07 0)
(5.23214e-19 1.05107e-07 0)
(5.41998e-19 1.07698e-07 0)
(5.61271e-19 1.10306e-07 0)
(5.7995e-19 1.1293e-07 0)
(6.0207e-19 1.15568e-07 0)
(6.23564e-19 1.18221e-07 0)
(6.45493e-19 1.20887e-07 0)
(6.70189e-19 1.23565e-07 0)
(6.88902e-19 1.26254e-07 0)
(7.10304e-19 1.28952e-07 0)
(7.32021e-19 1.31659e-07 0)
(7.54e-19 1.34374e-07 0)
(7.76206e-19 1.37095e-07 0)
(8.01235e-19 1.3982e-07 0)
(8.16666e-19 1.42549e-07 0)
(8.41912e-19 1.4528e-07 0)
(8.64438e-19 1.48011e-07 0)
(8.86878e-19 1.50739e-07 0)
(9.09189e-19 1.53463e-07 0)
(9.34274e-19 1.56181e-07 0)
(9.51447e-19 1.58889e-07 0)
(9.71245e-19 1.61586e-07 0)
(9.90618e-19 1.64267e-07 0)
(1.00948e-18 1.66931e-07 0)
(1.02774e-18 1.69574e-07 0)
(1.04534e-18 1.72191e-07 0)
(1.0622e-18 1.74781e-07 0)
(1.07824e-18 1.77339e-07 0)
(1.0934e-18 1.79862e-07 0)
(1.10761e-18 1.82345e-07 0)
(1.12081e-18 1.84783e-07 0)
(1.13294e-18 1.87167e-07 0)
(1.14395e-18 1.89483e-07 0)
(1.15383e-18 1.9168e-07 0)
(1.16999e-18 1.93687e-07 0)
(1.16666e-18 1.95725e-07 0)
(1.16957e-18 1.98591e-07 0)
(1.17125e-18 1.97576e-07 0)
(1.1721e-18 7.62949e-08 0)
(1.178e-18 2.04652e-07 0)
(1.52698e-18 -1.7744e-06 0)
(2.08001e-18 3.19476e-06 0)
(2.62896e-18 2.80464e-07 0)
(3.15927e-18 -2.43521e-07 0)
(3.66434e-18 -3.23664e-08 0)
(4.13789e-18 1.81158e-08 0)
(4.57399e-18 3.33479e-09 0)
(4.96716e-18 -1.30797e-09 0)
(5.31239e-18 -3.25137e-10 0)
(5.60524e-18 9.20539e-11 0)
(5.84188e-18 3.18764e-11 0)
(6.01913e-18 -4.52995e-12 0)
(6.1345e-18 -1.36153e-12 0)
(6.18623e-18 1.72514e-12 0)
(6.17329e-18 1.63803e-12 0)
(6.09539e-18 1.41026e-12 0)
(5.95303e-18 1.41056e-12 0)
(5.7474e-18 1.41069e-12 0)
(5.48048e-18 1.36742e-12 0)
(5.15491e-18 1.30014e-12 0)
(4.77403e-18 1.22848e-12 0)
(4.34181e-18 1.17956e-12 0)
(3.86281e-18 1.15484e-12 0)
(3.34212e-18 1.13862e-12 0)
(2.78532e-18 1.1107e-12 0)
(2.19839e-18 1.06322e-12 0)
(1.58766e-18 1.01987e-12 0)
(9.59736e-19 1.10703e-12 0)
(3.2141e-19 1.10402e-12 0)
)
;

boundaryField
{
    inlet
    {
        type            cyclic;
    }
    outlet
    {
        type            cyclic;
    }
    top
    {
        type            fixedValue;
        value           uniform (0 0 0);
    }
    bottom
    {
        type            fixedValue;
        value           uniform (0 0 0);
    }
    frontAndBackPlanes
    {
        type            empty;
    }
}


// ************************************************************************* //
