/*--------------------------------*- C++ -*----------------------------------*\
| =========                 |                                                 |
| \\      /  F ield         | OpenFOAM: The Open Source CFD Toolbox           |
|  \\    /   O peration     | Version:  2206                                  |
|   \\  /    A nd           | Website:  www.openfoam.com                      |
|    \\/     M anipulation  |                                                 |
\*---------------------------------------------------------------------------*/
FoamFile
{
    version     2.0;
    format      ascii;
    arch        "LSB;label=32;scalar=64";
    class       volScalarField;
    location    "1720";
    object      pff;
}
// * * * * * * * * * * * * * * * * * * * * * * * * * * * * * * * * * * * * * //

dimensions      [1 -1 -2 0 0 0 0];

internalField   nonuniform List<scalar> 
120
(
26.426
25.8926
25.8929
25.3156
25.2985
24.733
24.7041
24.1506
24.1099
23.5683
23.5158
22.9861
22.9218
22.404
22.3279
21.8221
21.7342
21.2403
21.1406
20.6585
20.5472
20.0769
19.954
19.4953
19.361
18.9138
18.7683
18.3324
18.1758
17.751
17.5836
17.1696
16.9917
16.5882
16.4001
16.0068
15.8089
15.4254
15.218
14.844
14.6276
14.2625
14.0376
13.6809
13.448
13.0993
12.859
12.5176
12.2704
11.9359
11.6823
11.354
11.0947
10.7722
10.5076
10.1902
9.92112
9.60828
9.33514
9.02633
8.74969
8.4444
8.1648
7.86251
7.58045
7.2807
6.99668
6.69899
6.41351
6.1174
5.83097
5.53595
5.24914
4.95461
4.66814
4.37332
4.08817
3.79197
3.50949
3.21036
2.93253
2.62823
2.35776
2.04539
1.78551
1.46235
1.21479
0.882731
0.638451
0.318469
0
0
0
0
0
0
0
0
0
0
0
0
0
0
0
0
0
0
0
0
0
0
0
0
0
0
0
0
0
0
)
;

boundaryField
{
    inlet
    {
        type            cyclic;
    }
    outlet
    {
        type            cyclic;
    }
    top
    {
        type            calculated;
        value           uniform 0;
    }
    bottom
    {
        type            calculated;
        value           uniform 26.426;
    }
    frontAndBackPlanes
    {
        type            empty;
    }
}


// ************************************************************************* //
