/*--------------------------------*- C++ -*----------------------------------*\
| =========                 |                                                 |
| \\      /  F ield         | OpenFOAM: The Open Source CFD Toolbox           |
|  \\    /   O peration     | Version:  2206                                  |
|   \\  /    A nd           | Website:  www.openfoam.com                      |
|    \\/     M anipulation  |                                                 |
\*---------------------------------------------------------------------------*/
FoamFile
{
    version     2.0;
    format      ascii;
    arch        "LSB;label=32;scalar=64";
    class       surfaceScalarField;
    location    "1720";
    object      phi.a;
}
// * * * * * * * * * * * * * * * * * * * * * * * * * * * * * * * * * * * * * //

dimensions      [0 3 -1 0 0 0 0];

oriented        oriented;

internalField   nonuniform List<scalar> 
119
(
-1.57596e-17
-3.18536e-17
-4.79294e-17
-6.437e-17
-8.08108e-17
-9.75932e-17
-1.14408e-16
-1.31517e-16
-1.48715e-16
-1.66132e-16
-1.83726e-16
-2.01429e-16
-2.19434e-16
-2.37399e-16
-2.55828e-16
-2.74029e-16
-2.92898e-16
-3.11307e-16
-3.30629e-16
-3.49219e-16
-3.69007e-16
-3.87749e-16
-4.08013e-16
-4.2688e-16
-4.47627e-16
-4.66594e-16
-4.87828e-16
-5.06871e-16
-5.28593e-16
-5.47693e-16
-5.69897e-16
-5.89039e-16
-6.11717e-16
-6.30891e-16
-6.54028e-16
-6.73229e-16
-6.9681e-16
-7.1604e-16
-7.40043e-16
-7.59311e-16
-7.83714e-16
-8.03035e-16
-8.27813e-16
-8.47213e-16
-8.72339e-16
-8.91849e-16
-9.17299e-16
-9.3696e-16
-9.62711e-16
-9.82567e-16
-1.0086e-15
-1.0287e-15
-1.05499e-15
-1.0754e-15
-1.10194e-15
-1.1227e-15
-1.14948e-15
-1.17064e-15
-1.19764e-15
-1.21924e-15
-1.24648e-15
-1.26853e-15
-1.29601e-15
-1.3185e-15
-1.34623e-15
-1.36908e-15
-1.39712e-15
-1.4202e-15
-1.44864e-15
-1.47168e-15
-1.50071e-15
-1.52331e-15
-1.55322e-15
-1.57477e-15
-1.60606e-15
-1.62565e-15
-1.65905e-15
-1.67551e-15
-1.71187e-15
-1.72402e-15
-1.76374e-15
-1.77153e-15
-1.81221e-15
-1.82124e-15
-1.849e-15
-1.8881e-15
-1.84217e-15
-2.04677e-15
-1.63065e-15
-5.76208e-15
-1.13892e-14
-1.25475e-14
-2.63448e-11
-6.4677e-11
-7.88782e-11
-8.14487e-11
-8.18902e-11
-8.19792e-11
-8.20011e-11
-8.20077e-11
-8.20101e-11
-8.20111e-11
-8.20116e-11
-8.20118e-11
-8.2012e-11
-8.20121e-11
-8.20122e-11
-8.20122e-11
-8.20123e-11
-8.20123e-11
-8.20122e-11
-8.20121e-11
-8.2012e-11
-8.20118e-11
-8.20115e-11
-8.20104e-11
-8.20052e-11
-8.19625e-11
-8.12096e-11
)
;

boundaryField
{
    inlet
    {
        type            cyclic;
        value           nonuniform List<scalar> 
120
(
-4.40921e-27
-1.32337e-26
-2.20722e-26
-3.09342e-26
-3.98289e-26
-4.87657e-26
-5.77537e-26
-6.68022e-26
-7.59202e-26
-8.51167e-26
-9.44005e-26
-1.03781e-25
-1.13265e-25
-1.22863e-25
-1.32582e-25
-1.42431e-25
-1.52416e-25
-1.62547e-25
-1.72829e-25
-1.83271e-25
-1.93878e-25
-2.04657e-25
-2.15614e-25
-2.26754e-25
-2.38083e-25
-2.49604e-25
-2.61323e-25
-2.73243e-25
-2.85366e-25
-2.97695e-25
-3.10232e-25
-3.22977e-25
-3.35932e-25
-3.49095e-25
-3.62466e-25
-3.76042e-25
-3.89486e-25
-4.03128e-25
-4.16965e-25
-4.30992e-25
-4.452e-25
-4.59584e-25
-4.74134e-25
-4.88842e-25
-5.03696e-25
-5.18687e-25
-5.33799e-25
-5.49022e-25
-5.64339e-25
-5.79736e-25
-5.95196e-25
-6.10702e-25
-6.26236e-25
-6.41777e-25
-6.57307e-25
-6.72803e-25
-6.88244e-25
-7.03607e-25
-7.18875e-25
-7.34197e-25
-7.49375e-25
-7.64379e-25
-7.79182e-25
-7.93761e-25
-8.08088e-25
-8.22138e-25
-8.35885e-25
-8.49302e-25
-8.62364e-25
-8.75044e-25
-8.87318e-25
-8.99159e-25
-9.10543e-25
-9.21447e-25
-9.31848e-25
-9.41722e-25
-9.51048e-25
-9.59807e-25
-9.67977e-25
-9.7554e-25
-9.8248e-25
-9.88779e-25
-9.94424e-25
-9.994e-25
-1.0037e-24
-1.0073e-24
-1.0102e-24
-1.0124e-24
-1.01388e-24
-1.01464e-24
-1.01494e-24
-1.01541e-24
-1.01551e-24
-6.97673e-25
-3.52088e-25
-2.14924e-25
-1.77829e-25
-1.67866e-25
-1.6487e-25
-1.6383e-25
-1.63413e-25
-1.63222e-25
-1.63122e-25
-1.63062e-25
-1.63021e-25
-1.6299e-25
-1.62965e-25
-1.62945e-25
-1.62928e-25
-1.62913e-25
-1.62902e-25
-1.62892e-25
-1.62883e-25
-1.62877e-25
-1.6287e-25
-1.62862e-25
-1.6284e-25
-1.62748e-25
-1.62089e-25
-1.53952e-25
)
;
    }
    outlet
    {
        type            cyclic;
        value           nonuniform List<scalar> 
120
(
4.40921e-27
1.32337e-26
2.20722e-26
3.09342e-26
3.98289e-26
4.87657e-26
5.77537e-26
6.68022e-26
7.59202e-26
8.51167e-26
9.44005e-26
1.03781e-25
1.13265e-25
1.22863e-25
1.32582e-25
1.42431e-25
1.52416e-25
1.62547e-25
1.72829e-25
1.83271e-25
1.93878e-25
2.04657e-25
2.15614e-25
2.26754e-25
2.38083e-25
2.49604e-25
2.61323e-25
2.73243e-25
2.85366e-25
2.97695e-25
3.10232e-25
3.22977e-25
3.35932e-25
3.49095e-25
3.62466e-25
3.76042e-25
3.89486e-25
4.03128e-25
4.16965e-25
4.30992e-25
4.452e-25
4.59584e-25
4.74134e-25
4.88842e-25
5.03696e-25
5.18687e-25
5.33799e-25
5.49022e-25
5.64339e-25
5.79736e-25
5.95196e-25
6.10702e-25
6.26236e-25
6.41777e-25
6.57307e-25
6.72803e-25
6.88244e-25
7.03607e-25
7.18875e-25
7.34197e-25
7.49375e-25
7.64379e-25
7.79182e-25
7.93761e-25
8.08088e-25
8.22138e-25
8.35885e-25
8.49302e-25
8.62364e-25
8.75044e-25
8.87318e-25
8.99159e-25
9.10543e-25
9.21447e-25
9.31848e-25
9.41722e-25
9.51048e-25
9.59807e-25
9.67977e-25
9.7554e-25
9.8248e-25
9.88779e-25
9.94424e-25
9.994e-25
1.0037e-24
1.0073e-24
1.0102e-24
1.0124e-24
1.01388e-24
1.01464e-24
1.01494e-24
1.01541e-24
1.01551e-24
6.97673e-25
3.52088e-25
2.14924e-25
1.77829e-25
1.67866e-25
1.6487e-25
1.6383e-25
1.63413e-25
1.63222e-25
1.63122e-25
1.63062e-25
1.63021e-25
1.6299e-25
1.62965e-25
1.62945e-25
1.62928e-25
1.62913e-25
1.62902e-25
1.62892e-25
1.62883e-25
1.62877e-25
1.6287e-25
1.62862e-25
1.6284e-25
1.62748e-25
1.62089e-25
1.53952e-25
)
;
    }
    top
    {
        type            fixedValue;
        value           uniform 0;
    }
    bottom
    {
        type            fixedValue;
        value           uniform 0;
    }
    frontAndBackPlanes
    {
        type            empty;
        value           nonuniform List<scalar> 0();
    }
}


// ************************************************************************* //
