/*--------------------------------*- C++ -*----------------------------------*\
| =========                 |                                                 |
| \\      /  F ield         | OpenFOAM: The Open Source CFD Toolbox           |
|  \\    /   O peration     | Version:  2206                                  |
|   \\  /    A nd           | Website:  www.openfoam.com                      |
|    \\/     M anipulation  |                                                 |
\*---------------------------------------------------------------------------*/
FoamFile
{
    version     2.0;
    format      ascii;
    arch        "LSB;label=32;scalar=64";
    class       volVectorField;
    location    "1720";
    object      U.a;
}
// * * * * * * * * * * * * * * * * * * * * * * * * * * * * * * * * * * * * * //

dimensions      [0 1 -1 0 0 0 0];

internalField   nonuniform List<vector> 
120
(
(1.46974e-20 1.55936e-08 0)
(4.41122e-20 2.87377e-10 0)
(7.3574e-20 -4.64313e-10 0)
(1.03114e-19 1.97925e-10 0)
(1.32763e-19 -5.55549e-10 0)
(1.62552e-19 1.06608e-10 0)
(1.92512e-19 -6.48792e-10 0)
(2.22674e-19 1.32011e-11 0)
(2.53067e-19 -7.43847e-10 0)
(2.83722e-19 -8.23424e-11 0)
(3.14668e-19 -8.40606e-10 0)
(3.45935e-19 -1.80093e-10 0)
(3.77551e-19 -9.38949e-10 0)
(4.09543e-19 -2.80129e-10 0)
(4.4194e-19 -1.03874e-09 0)
(4.74769e-19 -3.82534e-10 0)
(5.08054e-19 -1.13983e-09 0)
(5.41822e-19 -4.87393e-10 0)
(5.76097e-19 -1.24207e-09 0)
(6.10902e-19 -5.94784e-10 0)
(6.46259e-19 -1.34529e-09 0)
(6.82189e-19 -7.0478e-10 0)
(7.18712e-19 -1.44934e-09 0)
(7.55846e-19 -8.17439e-10 0)
(7.93609e-19 -1.55406e-09 0)
(8.32015e-19 -9.32803e-10 0)
(8.71078e-19 -1.65932e-09 0)
(9.1081e-19 -1.0509e-09 0)
(9.5122e-19 -1.76498e-09 0)
(9.92318e-19 -1.17172e-09 0)
(1.03411e-18 -1.87094e-09 0)
(1.07659e-18 -1.29524e-09 0)
(1.11977e-18 -1.9771e-09 0)
(1.16365e-18 -1.42142e-09 0)
(1.20822e-18 -2.08342e-09 0)
(1.25347e-18 -1.55018e-09 0)
(1.29829e-18 -2.18987e-09 0)
(1.34376e-18 -1.68142e-09 0)
(1.38988e-18 -2.29645e-09 0)
(1.43664e-18 -1.81504e-09 0)
(1.484e-18 -2.40322e-09 0)
(1.53195e-18 -1.95089e-09 0)
(1.58045e-18 -2.51028e-09 0)
(1.62947e-18 -2.08883e-09 0)
(1.67899e-18 -2.61775e-09 0)
(1.72896e-18 -2.22873e-09 0)
(1.77933e-18 -2.72583e-09 0)
(1.83007e-18 -2.37044e-09 0)
(1.88113e-18 -2.83473e-09 0)
(1.93245e-18 -2.51383e-09 0)
(1.98399e-18 -2.94471e-09 0)
(2.03567e-18 -2.65877e-09 0)
(2.08745e-18 -3.05607e-09 0)
(2.13926e-18 -2.80517e-09 0)
(2.19102e-18 -3.1691e-09 0)
(2.24268e-18 -2.95294e-09 0)
(2.29415e-18 -3.2841e-09 0)
(2.34536e-18 -3.10203e-09 0)
(2.39625e-18 -3.40135e-09 0)
(2.44732e-18 -3.25238e-09 0)
(2.49792e-18 -3.52105e-09 0)
(2.54793e-18 -3.40399e-09 0)
(2.59727e-18 -3.64328e-09 0)
(2.64587e-18 -3.55691e-09 0)
(2.69363e-18 -3.76793e-09 0)
(2.74046e-18 -3.71125e-09 0)
(2.78628e-18 -3.89462e-09 0)
(2.83101e-18 -3.8673e-09 0)
(2.87455e-18 -4.02255e-09 0)
(2.91681e-18 -4.02559e-09 0)
(2.95773e-18 -4.15029e-09 0)
(2.9972e-18 -4.18713e-09 0)
(3.03514e-18 -4.27555e-09 0)
(3.07149e-18 -4.35368e-09 0)
(3.10616e-18 -4.39481e-09 0)
(3.13907e-18 -4.52804e-09 0)
(3.17016e-18 -4.50303e-09 0)
(3.19936e-18 -4.71433e-09 0)
(3.22659e-18 -4.5936e-09 0)
(3.2518e-18 -4.9174e-09 0)
(3.27493e-18 -4.65983e-09 0)
(3.29593e-18 -5.13953e-09 0)
(3.31475e-18 -4.70155e-09 0)
(3.33133e-18 -5.36711e-09 0)
(3.34565e-18 -4.75049e-09 0)
(3.35767e-18 -5.52152e-09 0)
(3.36735e-18 -4.97002e-09 0)
(3.37467e-18 -5.25858e-09 0)
(3.3796e-18 -6.12681e-09 0)
(3.38215e-18 -2.93496e-09 0)
(3.38312e-18 -2.92315e-08 0)
(3.38471e-18 -3.3983e-08 0)
(3.38502e-18 -3.56758e-08 0)
(2.32558e-18 -0.000146324 0)
(1.17363e-18 -0.000212992 0)
(7.16413e-19 -0.00022522 0)
(5.92765e-19 -0.000227273 0)
(5.59553e-19 -0.000227673 0)
(5.49567e-19 -0.000227767 0)
(5.461e-19 -0.000227795 0)
(5.44711e-19 -0.000227804 0)
(5.44074e-19 -0.000227808 0)
(5.4374e-19 -0.000227809 0)
(5.4354e-19 -0.00022781 0)
(5.43403e-19 -0.000227811 0)
(5.43299e-19 -0.000227811 0)
(5.43217e-19 -0.000227812 0)
(5.43149e-19 -0.000227812 0)
(5.43092e-19 -0.000227812 0)
(5.43045e-19 -0.000227812 0)
(5.43005e-19 -0.000227812 0)
(5.42972e-19 -0.000227812 0)
(5.42945e-19 -0.000227811 0)
(5.42922e-19 -0.000227811 0)
(5.42901e-19 -0.00022781 0)
(5.42872e-19 -0.000227809 0)
(5.42801e-19 -0.000227804 0)
(5.42492e-19 -0.00022778 0)
(5.40295e-19 -0.000227567 0)
(5.13173e-19 -0.000223597 0)
)
;

boundaryField
{
    inlet
    {
        type            cyclic;
    }
    outlet
    {
        type            cyclic;
    }
    top
    {
        type            fixedValue;
        value           uniform (0 0 0);
    }
    bottom
    {
        type            fixedValue;
        value           uniform (0 0 0);
    }
    frontAndBackPlanes
    {
        type            empty;
    }
}


// ************************************************************************* //
