/*--------------------------------*- C++ -*----------------------------------*\
| =========                 |                                                 |
| \\      /  F ield         | OpenFOAM: The Open Source CFD Toolbox           |
|  \\    /   O peration     | Version:  2206                                  |
|   \\  /    A nd           | Website:  www.openfoam.com                      |
|    \\/     M anipulation  |                                                 |
\*---------------------------------------------------------------------------*/
FoamFile
{
    version     2.0;
    format      ascii;
    arch        "LSB;label=32;scalar=64";
    class       volVectorField;
    location    "1720";
    object      U.b;
}
// * * * * * * * * * * * * * * * * * * * * * * * * * * * * * * * * * * * * * //

dimensions      [0 1 -1 0 0 0 0];

internalField   nonuniform List<vector> 
120
(
(1.46974e-20 1.53773e-08 0)
(4.41122e-20 4.65403e-10 0)
(7.35742e-20 -1.94981e-10 0)
(1.03114e-19 5.80422e-10 0)
(1.32763e-19 -4.56601e-11 0)
(1.62552e-19 7.19935e-10 0)
(1.92513e-19 9.28251e-11 0)
(2.22674e-19 8.60726e-10 0)
(2.53066e-19 2.34283e-10 0)
(2.83722e-19 1.00412e-09 0)
(3.14668e-19 3.78747e-10 0)
(3.45933e-19 1.15e-09 0)
(3.77551e-19 5.26276e-10 0)
(4.09543e-19 1.2982e-09 0)
(4.4194e-19 6.76922e-10 0)
(4.74769e-19 1.44856e-09 0)
(5.08054e-19 8.30743e-10 0)
(5.41822e-19 1.60092e-09 0)
(5.76097e-19 9.87793e-10 0)
(6.10902e-19 1.75507e-09 0)
(6.46259e-19 1.14811e-09 0)
(6.82189e-19 1.91083e-09 0)
(7.18712e-19 1.31173e-09 0)
(7.55829e-19 2.06802e-09 0)
(7.93609e-19 1.47866e-09 0)
(8.32015e-19 2.22645e-09 0)
(8.71088e-19 1.64889e-09 0)
(9.1081e-19 2.38594e-09 0)
(9.51221e-19 1.82239e-09 0)
(9.92339e-19 2.54633e-09 0)
(1.03413e-18 1.99911e-09 0)
(1.07659e-18 2.70748e-09 0)
(1.11977e-18 2.17895e-09 0)
(1.16365e-18 2.86928e-09 0)
(1.20822e-18 2.36182e-09 0)
(1.25344e-18 3.03163e-09 0)
(1.29826e-18 2.54758e-09 0)
(1.34379e-18 3.19448e-09 0)
(1.38986e-18 2.73609e-09 0)
(1.4367e-18 3.35783e-09 0)
(1.48397e-18 2.92718e-09 0)
(1.53198e-18 3.5217e-09 0)
(1.58045e-18 3.12069e-09 0)
(1.62947e-18 3.68618e-09 0)
(1.67895e-18 3.31645e-09 0)
(1.72903e-18 3.85141e-09 0)
(1.77933e-18 3.51429e-09 0)
(1.83011e-18 4.01756e-09 0)
(1.88105e-18 3.71407e-09 0)
(1.93245e-18 4.18486e-09 0)
(1.98399e-18 3.91566e-09 0)
(2.03567e-18 4.35359e-09 0)
(2.08745e-18 4.11896e-09 0)
(2.13926e-18 4.52403e-09 0)
(2.19098e-18 4.32387e-09 0)
(2.24268e-18 4.69648e-09 0)
(2.29415e-18 4.53032e-09 0)
(2.34536e-18 4.87123e-09 0)
(2.39635e-18 4.73825e-09 0)
(2.44732e-18 5.04848e-09 0)
(2.49792e-18 4.94759e-09 0)
(2.54793e-18 5.22831e-09 0)
(2.59727e-18 5.15831e-09 0)
(2.64587e-18 5.41063e-09 0)
(2.69373e-18 5.37035e-09 0)
(2.74035e-18 5.59505e-09 0)
(2.78628e-18 5.58374e-09 0)
(2.83101e-18 5.78075e-09 0)
(2.87455e-18 5.79861e-09 0)
(2.91682e-18 5.96633e-09 0)
(2.95784e-18 6.01535e-09 0)
(2.9972e-18 6.14955e-09 0)
(3.03514e-18 6.23483e-09 0)
(3.07149e-18 6.32698e-09 0)
(3.10616e-18 6.45863e-09 0)
(3.13907e-18 6.49373e-09 0)
(3.17016e-18 6.68926e-09 0)
(3.19936e-18 6.64318e-09 0)
(3.22659e-18 6.92988e-09 0)
(3.2518e-18 6.76769e-09 0)
(3.27493e-18 7.18213e-09 0)
(3.29593e-18 6.86254e-09 0)
(3.31475e-18 7.43725e-09 0)
(3.33133e-18 6.94175e-09 0)
(3.34566e-18 7.64361e-09 0)
(3.35796e-18 7.10027e-09 0)
(3.36735e-18 7.57862e-09 0)
(3.37467e-18 7.80465e-09 0)
(3.3796e-18 6.18787e-09 0)
(3.38215e-18 6.33204e-09 0)
(3.38231e-18 2.8903e-10 0)
(3.33802e-18 2.17517e-08 0)
(3.24256e-18 1.92233e-09 0)
(3.14553e-18 -6.09652e-10 0)
(3.04691e-18 -2.93396e-10 0)
(2.94666e-18 1.23096e-11 0)
(2.84473e-18 2.34486e-11 0)
(2.74108e-18 2.27206e-12 0)
(2.63569e-18 -1.46384e-12 0)
(2.52854e-18 -3.55384e-13 0)
(2.4196e-18 7.31854e-14 0)
(2.30888e-18 3.70399e-14 0)
(2.19638e-18 -1.03977e-14 0)
(2.08211e-18 -1.63578e-14 0)
(1.96611e-18 -9.61209e-15 0)
(1.8484e-18 -4.15649e-15 0)
(1.72904e-18 6.04912e-16 0)
(1.60808e-18 6.20054e-15 0)
(1.48559e-18 9.17077e-15 0)
(1.36165e-18 8.54539e-15 0)
(1.23635e-18 4.28059e-15 0)
(1.10979e-18 -4.09296e-15 0)
(9.8207e-19 -1.07961e-14 0)
(8.53308e-19 -1.03239e-14 0)
(7.23628e-19 -3.13173e-15 0)
(5.93158e-19 6.5501e-15 0)
(4.62035e-19 1.14057e-14 0)
(3.30398e-19 7.56233e-15 0)
(1.98392e-19 -2.49346e-15 0)
(6.61627e-20 -8.19714e-15 0)
)
;

boundaryField
{
    inlet
    {
        type            cyclic;
    }
    outlet
    {
        type            cyclic;
    }
    top
    {
        type            fixedValue;
        value           uniform (0 0 0);
    }
    bottom
    {
        type            fixedValue;
        value           uniform (0 0 0);
    }
    frontAndBackPlanes
    {
        type            empty;
    }
}


// ************************************************************************* //
