/*--------------------------------*- C++ -*----------------------------------*\
| =========                 |                                                 |
| \\      /  F ield         | OpenFOAM: The Open Source CFD Toolbox           |
|  \\    /   O peration     | Version:  v2006                                 |
|   \\  /    A nd           | Website:  www.openfoam.com                      |
|    \\/     M anipulation  |                                                 |
\*---------------------------------------------------------------------------*/
FoamFile
{
    version     2.0;
    format      ascii;
    class       volScalarField;
    location    "140";
    object      nuEffb;
}
// * * * * * * * * * * * * * * * * * * * * * * * * * * * * * * * * * * * * * //

dimensions      [0 2 -1 0 0 0 0];


internalField   nonuniform List<scalar> 
120
(
0.000127252
0.000127031
0.000126781
0.000126488
0.000126139
0.000125738
0.000125277
0.000124739
0.000123782
0.000119078
0.000104234
9.79522e-05
9.58421e-05
9.51008e-05
9.48427e-05
9.47601e-05
9.47349e-05
9.47276e-05
9.47257e-05
9.47252e-05
9.47251e-05
9.4725e-05
9.4725e-05
9.4725e-05
9.4725e-05
9.4725e-05
9.4725e-05
9.4725e-05
9.4725e-05
9.4725e-05
9.4725e-05
9.4725e-05
9.4725e-05
9.4725e-05
9.4725e-05
9.4725e-05
9.4725e-05
9.4725e-05
9.4725e-05
9.4725e-05
9.4725e-05
9.4725e-05
9.4725e-05
9.4725e-05
9.4725e-05
9.4725e-05
9.4725e-05
9.4725e-05
9.4725e-05
9.4725e-05
9.4725e-05
9.4725e-05
9.4725e-05
9.4725e-05
9.4725e-05
9.4725e-05
9.4725e-05
9.4725e-05
9.4725e-05
9.4725e-05
9.4725e-05
9.4725e-05
9.4725e-05
9.4725e-05
9.4725e-05
9.4725e-05
9.4725e-05
9.4725e-05
9.4725e-05
9.4725e-05
9.4725e-05
9.4725e-05
9.4725e-05
9.4725e-05
9.4725e-05
9.4725e-05
9.4725e-05
9.4725e-05
9.4725e-05
9.4725e-05
9.4725e-05
9.4725e-05
9.4725e-05
9.4725e-05
9.4725e-05
9.4725e-05
9.4725e-05
9.47249e-05
9.47249e-05
9.47249e-05
9.47249e-05
9.47249e-05
9.47249e-05
9.47249e-05
9.47249e-05
9.47249e-05
9.47251e-05
9.47241e-05
9.47282e-05
9.47132e-05
9.47584e-05
9.46596e-05
9.48301e-05
9.46347e-05
8.99015e-05
0.000115854
2.8603e-05
2.10848e-05
2.10629e-05
2.105e-05
2.105e-05
2.105e-05
2.105e-05
2.105e-05
2.105e-05
2.105e-05
2.105e-05
2.105e-05
2.105e-05
2.105e-05
)
;

boundaryField
{
    inlet
    {
        type            cyclic;
    }
    outlet
    {
        type            cyclic;
    }
    top
    {
        type            calculated;
        value           uniform 2.105e-05;
    }
    bottom
    {
        type            calculated;
        value           uniform 0.000127252;
    }
    frontAndBackPlanes
    {
        type            empty;
    }
}


// ************************************************************************* //
