/*--------------------------------*- C++ -*----------------------------------*\
| =========                 |                                                 |
| \\      /  F ield         | OpenFOAM: The Open Source CFD Toolbox           |
|  \\    /   O peration     | Version:  v2006                                 |
|   \\  /    A nd           | Website:  www.openfoam.com                      |
|    \\/     M anipulation  |                                                 |
\*---------------------------------------------------------------------------*/
FoamFile
{
    version     2.0;
    format      ascii;
    class       volScalarField;
    location    "140";
    object      p;
}
// * * * * * * * * * * * * * * * * * * * * * * * * * * * * * * * * * * * * * //

dimensions      [1 -1 -2 0 0 0 0];


internalField   nonuniform List<scalar> 
120
(
21.5809
16.9177
12.2507
7.579
2.90177
-1.78207
-6.47257
-11.1683
-15.8664
-20.5638
-25.4606
-30.3762
-35.2846
-40.1907
-45.0961
-50.0012
-54.9062
-59.8112
-64.7162
-69.6212
-74.5262
-79.4312
-84.3362
-89.2412
-94.1462
-99.0512
-103.956
-108.861
-113.766
-118.671
-123.576
-128.481
-133.386
-138.291
-143.196
-148.101
-153.006
-157.911
-162.816
-167.721
-172.626
-177.531
-182.436
-187.341
-192.246
-197.151
-202.056
-206.961
-211.866
-216.771
-221.676
-226.581
-231.486
-236.391
-241.296
-246.201
-251.106
-256.011
-260.916
-265.821
-270.726
-275.631
-280.536
-285.441
-290.346
-295.251
-300.156
-305.061
-309.966
-314.871
-319.776
-324.681
-329.586
-334.491
-339.396
-344.301
-349.206
-354.111
-359.016
-363.921
-368.826
-373.731
-378.636
-383.541
-388.446
-393.351
-398.256
-403.161
-408.066
-412.971
-417.876
-422.781
-427.686
-432.591
-437.496
-442.401
-447.306
-452.211
-457.116
-462.021
-466.926
-471.831
-476.736
-481.642
-486.549
-491.486
-496.251
-500.926
-505.584
-510.243
-514.902
-519.562
-524.222
-528.882
-533.541
-538.201
-542.861
-547.521
-552.18
-556.84
)
;

boundaryField
{
    inlet
    {
        type            cyclic;
    }
    outlet
    {
        type            cyclic;
    }
    top
    {
        type            calculated;
        value           uniform -559.17;
    }
    bottom
    {
        type            calculated;
        value           uniform 23.9108;
    }
    frontAndBackPlanes
    {
        type            empty;
    }
}


// ************************************************************************* //
