/*--------------------------------*- C++ -*----------------------------------*\
| =========                 |                                                 |
| \\      /  F ield         | OpenFOAM: The Open Source CFD Toolbox           |
|  \\    /   O peration     | Version:  v2006                                 |
|   \\  /    A nd           | Website:  www.openfoam.com                      |
|    \\/     M anipulation  |                                                 |
\*---------------------------------------------------------------------------*/
FoamFile
{
    version     2.0;
    format      ascii;
    class       volScalarField;
    location    "140";
    object      p_rbgh;
}
// * * * * * * * * * * * * * * * * * * * * * * * * * * * * * * * * * * * * * //

dimensions      [1 -1 -2 0 0 0 0];


internalField   nonuniform List<scalar> 
120
(
23.9108
23.9074
23.9
23.8881
23.8706
23.8466
23.8158
23.7798
23.7415
23.7039
23.4668
23.2109
22.9623
22.7159
22.4703
22.225
21.9797
21.7344
21.4892
21.2439
20.9987
20.7534
20.5082
20.2629
20.0177
19.7724
19.5272
19.2819
19.0367
18.7914
18.5462
18.3009
18.0557
17.8104
17.5652
17.3199
17.0747
16.8294
16.5842
16.3389
16.0937
15.8484
15.6032
15.3579
15.1127
14.8674
14.6222
14.3769
14.1317
13.8864
13.6412
13.3959
13.1507
12.9054
12.6602
12.4149
12.1697
11.9244
11.6792
11.4339
11.1887
10.9434
10.6982
10.4529
10.2077
9.96243
9.71718
9.47193
9.22668
8.98143
8.73618
8.49093
8.24568
8.00043
7.75518
7.50993
7.26468
7.01943
6.77418
6.52893
6.28368
6.03843
5.79318
5.54793
5.30268
5.05743
4.81218
4.56693
4.32168
4.07643
3.83118
3.58593
3.34068
3.09543
2.85018
2.60493
2.35968
2.11443
1.86917
1.62393
1.37864
1.13347
0.888441
0.642197
0.395362
0.117171
0.012767
-0.00271605
-0.000766915
-0.000102407
4.00987e-05
9.49144e-06
-3.26088e-06
-5.79306e-07
4.75103e-07
2.88522e-07
1.4565e-07
1.04109e-07
6.32844e-08
1.6117e-08
)
;

boundaryField
{
    inlet
    {
        type            cyclic;
    }
    outlet
    {
        type            cyclic;
    }
    top
    {
        type            fixedValue;
        value           uniform 0;
    }
    bottom
    {
        type            fixedFluxPressure;
        gradient        uniform 0;
        value           uniform 23.9108;
    }
    frontAndBackPlanes
    {
        type            empty;
    }
}


// ************************************************************************* //
