/*--------------------------------*- C++ -*----------------------------------*\
| =========                 |                                                 |
| \\      /  F ield         | OpenFOAM: The Open Source CFD Toolbox           |
|  \\    /   O peration     | Version:  v2006                                 |
|   \\  /    A nd           | Website:  www.openfoam.com                      |
|    \\/     M anipulation  |                                                 |
\*---------------------------------------------------------------------------*/
FoamFile
{
    version     2.0;
    format      ascii;
    class       surfaceScalarField;
    location    "140";
    object      phia;
}
// * * * * * * * * * * * * * * * * * * * * * * * * * * * * * * * * * * * * * //

dimensions      [0 3 -1 0 0 0 0];
oriented        oriented;


internalField   nonuniform List<scalar> 
119
(
-9.85107e-15
-2.12859e-14
-3.49702e-14
-5.17832e-14
-7.2237e-14
-9.349e-14
-1.11363e-13
-1.21669e-13
-1.33479e-13
-1.18996e-12
-1.87112e-12
-2.15687e-12
-2.26458e-12
-2.3042e-12
-2.31739e-12
-2.32157e-12
-2.32283e-12
-2.32319e-12
-2.32328e-12
-2.3233e-12
-2.32331e-12
-2.32331e-12
-2.32331e-12
-2.32331e-12
-2.32331e-12
-2.32331e-12
-2.32331e-12
-2.32331e-12
-2.32331e-12
-2.32331e-12
-2.32331e-12
-2.32331e-12
-2.32331e-12
-2.32331e-12
-2.32331e-12
-2.32331e-12
-2.32331e-12
-2.32331e-12
-2.32331e-12
-2.32331e-12
-2.32331e-12
-2.32331e-12
-2.32331e-12
-2.32331e-12
-2.32331e-12
-2.32331e-12
-2.32331e-12
-2.32331e-12
-2.32331e-12
-2.32331e-12
-2.32331e-12
-2.32331e-12
-2.32331e-12
-2.32331e-12
-2.32331e-12
-2.32331e-12
-2.32331e-12
-2.32331e-12
-2.32331e-12
-2.32331e-12
-2.32331e-12
-2.32331e-12
-2.32331e-12
-2.32331e-12
-2.32331e-12
-2.32331e-12
-2.32331e-12
-2.32331e-12
-2.32331e-12
-2.32331e-12
-2.32331e-12
-2.32331e-12
-2.32331e-12
-2.32331e-12
-2.32331e-12
-2.32331e-12
-2.32331e-12
-2.32331e-12
-2.32331e-12
-2.32331e-12
-2.32331e-12
-2.32331e-12
-2.32331e-12
-2.32331e-12
-2.32331e-12
-2.32331e-12
-2.32331e-12
-2.32331e-12
-2.32331e-12
-2.32331e-12
-2.32331e-12
-2.32331e-12
-2.32331e-12
-2.32331e-12
-2.32331e-12
-2.3233e-12
-2.32334e-12
-2.32321e-12
-2.32368e-12
-2.32221e-12
-2.32511e-12
-2.32403e-12
-2.31351e-12
-2.4815e-12
-1.70196e-12
-1.76534e-11
-5.688e-11
-9.16325e-11
-9.15679e-11
-7.72172e-11
-8.22443e-11
-8.2274e-11
-8.2277e-11
-8.22767e-11
-8.22765e-11
-8.22765e-11
-8.22765e-11
-8.22564e-11
-8.21696e-11
)
;

boundaryField
{
    inlet
    {
        type            cyclic;
        value           nonuniform List<scalar> 
120
(
1.33952e-28
4.09618e-28
7.01965e-28
1.05052e-27
1.42091e-27
1.79762e-27
2.14589e-27
2.46465e-27
2.73237e-27
2.97355e-27
8.33356e-25
1.3327e-24
7.73642e-25
4.09769e-25
1.99454e-25
9.29257e-26
5.26654e-26
6.32897e-26
1.37972e-25
3.26045e-25
7.19279e-25
1.44561e-24
2.63549e-24
4.37968e-24
1.87778e-24
-3.61709e-25
-2.74268e-24
-3.33932e-24
-4.94873e-24
-7.90531e-24
-7.62383e-24
-3.98203e-24
-1.32725e-24
8.91155e-25
3.22188e-24
6.10253e-24
4.98035e-24
-2.95786e-25
-6.05369e-25
-5.92322e-24
-2.35618e-24
-4.37531e-24
-2.53782e-24
-1.61109e-24
-1.5523e-24
-7.12931e-24
-4.0244e-24
-1.49168e-24
5.69375e-24
3.72711e-24
2.39495e-24
1.78542e-24
1.92069e-24
2.76483e-24
4.23456e-24
1.35894e-24
-1.51952e-24
-4.92589e-24
-9.37519e-24
-5.68533e-24
-3.38658e-24
-2.30353e-24
-2.22228e-24
-2.91548e-24
-4.19538e-24
3.68408e-24
1.93029e-24
5.27194e-26
-2.21766e-24
-5.25616e-24
-9.47207e-24
-5.58405e-24
-3.01781e-24
-1.48513e-24
-6.65972e-25
-2.73917e-25
-1.08356e-25
-5.72132e-26
-8.11906e-26
-2.0729e-25
-5.46508e-25
-1.33603e-24
-2.98583e-24
-6.08352e-24
-1.1302e-23
-1.92856e-23
-1.1302e-23
-6.08347e-24
-2.98575e-24
-1.33579e-24
-5.45611e-25
-2.04032e-25
-7.0095e-26
-2.22073e-26
-6.51341e-27
-1.77528e-27
-4.51286e-28
-1.07369e-28
-2.39835e-29
-5.04637e-30
-1.00201e-30
-1.88748e-31
-3.35957e-32
-5.75233e-33
-9.86663e-34
-1.12173e-34
-9.52367e-35
-7.45917e-35
-5.63094e-35
-4.24829e-35
-3.20014e-35
-2.40313e-35
-1.79633e-35
-1.33412e-35
-9.80793e-36
-7.08888e-36
-4.96647e-36
-3.26751e-36
-1.85049e-36
-5.9446e-37
)
;
    }
    outlet
    {
        type            cyclic;
        value           nonuniform List<scalar> 
120
(
-1.33952e-28
-4.09618e-28
-7.01965e-28
-1.05052e-27
-1.42091e-27
-1.79762e-27
-2.14589e-27
-2.46465e-27
-2.73237e-27
-2.97355e-27
-8.33356e-25
-1.3327e-24
-7.73642e-25
-4.09769e-25
-1.99454e-25
-9.29257e-26
-5.26654e-26
-6.32897e-26
-1.37972e-25
-3.26045e-25
-7.19279e-25
-1.44561e-24
-2.63549e-24
-4.37968e-24
-1.87778e-24
3.61709e-25
2.74268e-24
3.33932e-24
4.94873e-24
7.90531e-24
7.62383e-24
3.98203e-24
1.32725e-24
-8.91155e-25
-3.22188e-24
-6.10253e-24
-4.98035e-24
2.95786e-25
6.05369e-25
5.92322e-24
2.35618e-24
4.37531e-24
2.53782e-24
1.61109e-24
1.5523e-24
7.12931e-24
4.0244e-24
1.49168e-24
-5.69375e-24
-3.72711e-24
-2.39495e-24
-1.78542e-24
-1.92069e-24
-2.76483e-24
-4.23456e-24
-1.35894e-24
1.51952e-24
4.92589e-24
9.37519e-24
5.68533e-24
3.38658e-24
2.30353e-24
2.22228e-24
2.91548e-24
4.19538e-24
-3.68408e-24
-1.93029e-24
-5.27194e-26
2.21766e-24
5.25616e-24
9.47207e-24
5.58405e-24
3.01781e-24
1.48513e-24
6.65972e-25
2.73917e-25
1.08356e-25
5.72132e-26
8.11906e-26
2.0729e-25
5.46508e-25
1.33603e-24
2.98583e-24
6.08352e-24
1.1302e-23
1.92856e-23
1.1302e-23
6.08347e-24
2.98575e-24
1.33579e-24
5.45611e-25
2.04032e-25
7.0095e-26
2.22073e-26
6.51341e-27
1.77528e-27
4.51286e-28
1.07369e-28
2.39835e-29
5.04637e-30
1.00201e-30
1.88748e-31
3.35957e-32
5.75233e-33
9.86663e-34
1.12173e-34
9.52367e-35
7.45917e-35
5.63094e-35
4.24829e-35
3.20014e-35
2.40313e-35
1.79633e-35
1.33412e-35
9.80793e-36
7.08888e-36
4.96647e-36
3.26751e-36
1.85049e-36
5.9446e-37
)
;
    }
    top
    {
        type            fixedValue;
        value           uniform 0;
    }
    bottom
    {
        type            fixedValue;
        value           uniform 0;
    }
    frontAndBackPlanes
    {
        type            empty;
        value           nonuniform List<scalar> 0();
    }
}


// ************************************************************************* //
