/*--------------------------------*- C++ -*----------------------------------*\
| =========                 |                                                 |
| \\      /  F ield         | OpenFOAM: The Open Source CFD Toolbox           |
|  \\    /   O peration     | Version:  v2006                                 |
|   \\  /    A nd           | Website:  www.openfoam.com                      |
|    \\/     M anipulation  |                                                 |
\*---------------------------------------------------------------------------*/
FoamFile
{
    version     2.0;
    format      ascii;
    class       surfaceScalarField;
    location    "140";
    object      phib;
}
// * * * * * * * * * * * * * * * * * * * * * * * * * * * * * * * * * * * * * //

dimensions      [0 3 -1 0 0 0 0];
oriented        oriented;


internalField   nonuniform List<scalar> 
119
(
1.41854e-14
3.05833e-14
5.0116e-14
7.39854e-14
1.02841e-13
1.32551e-13
1.57137e-13
1.70443e-13
1.81804e-13
1.458e-12
2.03122e-12
2.22024e-12
2.28749e-12
2.31191e-12
2.31979e-12
2.32228e-12
2.32303e-12
2.32324e-12
2.32329e-12
2.32331e-12
2.32331e-12
2.32331e-12
2.32331e-12
2.32331e-12
2.32331e-12
2.32331e-12
2.32331e-12
2.32331e-12
2.32331e-12
2.32331e-12
2.32331e-12
2.32331e-12
2.32331e-12
2.32331e-12
2.32331e-12
2.32331e-12
2.32331e-12
2.32331e-12
2.32331e-12
2.32331e-12
2.32331e-12
2.32331e-12
2.32331e-12
2.32331e-12
2.32331e-12
2.32331e-12
2.32331e-12
2.32331e-12
2.32331e-12
2.32331e-12
2.32331e-12
2.32331e-12
2.32331e-12
2.32331e-12
2.32331e-12
2.32331e-12
2.32331e-12
2.32331e-12
2.32331e-12
2.32331e-12
2.32331e-12
2.32331e-12
2.32331e-12
2.32331e-12
2.32331e-12
2.32331e-12
2.32331e-12
2.32331e-12
2.32331e-12
2.32331e-12
2.32331e-12
2.32331e-12
2.32331e-12
2.32331e-12
2.32331e-12
2.32331e-12
2.32331e-12
2.32331e-12
2.32331e-12
2.32331e-12
2.32331e-12
2.32331e-12
2.32331e-12
2.32331e-12
2.32332e-12
2.32332e-12
2.32332e-12
2.32332e-12
2.32332e-12
2.32332e-12
2.32332e-12
2.32332e-12
2.32332e-12
2.32332e-12
2.32332e-12
2.32331e-12
2.32334e-12
2.32325e-12
2.32355e-12
2.32256e-12
2.32461e-12
2.32466e-12
2.31375e-12
2.39746e-12
1.86529e-12
8.61053e-12
2.78823e-12
2.96898e-14
8.03755e-15
2.98417e-17
3.64411e-17
4.56919e-17
5.3021e-17
6.22984e-17
6.67203e-17
7.22107e-17
7.23913e-17
7.41107e-17
6.99194e-17
)
;

boundaryField
{
    inlet
    {
        type            cyclic;
        value           nonuniform List<scalar> 
120
(
1.33951e-28
4.09428e-28
6.61523e-28
1.05033e-27
1.4209e-27
1.79619e-27
1.84964e-27
2.46547e-27
3.10874e-27
7.4327e-27
8.33374e-25
1.32745e-24
7.73648e-25
4.09776e-25
1.99458e-25
9.29283e-26
5.26674e-26
6.32922e-26
1.37976e-25
3.26053e-25
7.19292e-25
1.44563e-24
2.63551e-24
4.35783e-24
1.87779e-24
-3.61712e-25
-2.73177e-24
-3.33936e-24
-4.94878e-24
-7.88349e-24
-7.60201e-24
-3.98207e-24
-1.32727e-24
8.91159e-25
3.2219e-24
6.08068e-24
4.95851e-24
-2.73913e-25
-6.27239e-25
-5.87951e-24
-2.37807e-24
-4.35348e-24
-2.53785e-24
-1.61113e-24
-1.5742e-24
-7.0856e-24
-4.02442e-24
-1.46982e-24
5.65003e-24
3.72713e-24
2.39498e-24
1.78545e-24
1.92072e-24
2.76485e-24
4.21271e-24
1.35894e-24
-1.51954e-24
-4.92593e-24
-9.3315e-24
-5.68538e-24
-3.38662e-24
-2.30357e-24
-2.22231e-24
-2.91549e-24
-4.15166e-24
3.64034e-24
1.93028e-24
5.2705e-26
-2.21769e-24
-5.2562e-24
-9.42838e-24
-5.58409e-24
-3.01785e-24
-1.48516e-24
-6.65989e-25
-2.73926e-25
-1.08361e-25
-5.72162e-26
-8.11945e-26
-2.07299e-25
-5.46525e-25
-1.33606e-24
-2.98589e-24
-6.08361e-24
-1.13021e-23
-1.91982e-23
-1.13021e-23
-6.08355e-24
-2.98581e-24
-1.33582e-24
-5.45629e-25
-2.0404e-25
-7.00984e-26
-2.22086e-26
-6.51385e-27
-1.77542e-27
-4.51325e-28
-1.07379e-28
-2.3986e-29
-5.04695e-30
-1.00214e-30
-1.88774e-31
-3.36007e-32
-5.75325e-33
-9.86812e-34
-1.12195e-34
-9.5244e-35
-7.45609e-35
-5.62788e-35
-4.24707e-35
-3.20031e-35
-2.40323e-35
-1.79646e-35
-1.33417e-35
-9.8087e-36
-7.08933e-36
-4.96671e-36
-3.26777e-36
-1.85069e-36
-5.94545e-37
)
;
    }
    outlet
    {
        type            cyclic;
        value           nonuniform List<scalar> 
120
(
-1.33951e-28
-4.09428e-28
-6.61523e-28
-1.05033e-27
-1.4209e-27
-1.79619e-27
-1.84964e-27
-2.46547e-27
-3.10874e-27
-7.4327e-27
-8.33374e-25
-1.32745e-24
-7.73648e-25
-4.09776e-25
-1.99458e-25
-9.29283e-26
-5.26674e-26
-6.32922e-26
-1.37976e-25
-3.26053e-25
-7.19292e-25
-1.44563e-24
-2.63551e-24
-4.35783e-24
-1.87779e-24
3.61712e-25
2.73177e-24
3.33936e-24
4.94878e-24
7.88349e-24
7.60201e-24
3.98207e-24
1.32727e-24
-8.91159e-25
-3.2219e-24
-6.08068e-24
-4.95851e-24
2.73913e-25
6.27239e-25
5.87951e-24
2.37807e-24
4.35348e-24
2.53785e-24
1.61113e-24
1.5742e-24
7.0856e-24
4.02442e-24
1.46982e-24
-5.65003e-24
-3.72713e-24
-2.39498e-24
-1.78545e-24
-1.92072e-24
-2.76485e-24
-4.21271e-24
-1.35894e-24
1.51954e-24
4.92593e-24
9.3315e-24
5.68538e-24
3.38662e-24
2.30357e-24
2.22231e-24
2.91549e-24
4.15166e-24
-3.64034e-24
-1.93028e-24
-5.2705e-26
2.21769e-24
5.2562e-24
9.42838e-24
5.58409e-24
3.01785e-24
1.48516e-24
6.65989e-25
2.73926e-25
1.08361e-25
5.72162e-26
8.11945e-26
2.07299e-25
5.46525e-25
1.33606e-24
2.98589e-24
6.08361e-24
1.13021e-23
1.91982e-23
1.13021e-23
6.08355e-24
2.98581e-24
1.33582e-24
5.45629e-25
2.0404e-25
7.00984e-26
2.22086e-26
6.51385e-27
1.77542e-27
4.51325e-28
1.07379e-28
2.3986e-29
5.04695e-30
1.00214e-30
1.88774e-31
3.36007e-32
5.75325e-33
9.86812e-34
1.12195e-34
9.5244e-35
7.45609e-35
5.62788e-35
4.24707e-35
3.20031e-35
2.40323e-35
1.79646e-35
1.33417e-35
9.8087e-36
7.08933e-36
4.96671e-36
3.26777e-36
1.85069e-36
5.94545e-37
)
;
    }
    top
    {
        type            fixedValue;
        value           uniform 0;
    }
    bottom
    {
        type            fixedValue;
        value           uniform 0;
    }
    frontAndBackPlanes
    {
        type            empty;
        value           nonuniform List<scalar> 0();
    }
}


// ************************************************************************* //
