/*--------------------------------*- C++ -*----------------------------------*\
| =========                 |                                                 |
| \\      /  F ield         | OpenFOAM: The Open Source CFD Toolbox           |
|  \\    /   O peration     | Version:  v2006                                 |
|   \\  /    A nd           | Website:  www.openfoam.com                      |
|    \\/     M anipulation  |                                                 |
\*---------------------------------------------------------------------------*/
FoamFile
{
    version     2.0;
    format      ascii;
    class       volTensorField;
    location    "140";
    object      Taua;
}
// * * * * * * * * * * * * * * * * * * * * * * * * * * * * * * * * * * * * * //

dimensions      [1 -1 -2 0 0 0 0];


internalField   nonuniform List<tensor> 
120
(
(0.0192438 0 0 -1.9025e-15 -0.0384876 0 0 0 0.0192438)
(0.0220239 0 0 -1.98805e-15 -0.0440479 0 0 0 0.0220239)
(0.0266924 0 0 -2.24318e-15 -0.0533849 0 0 0 0.0266924)
(0.0331699 0 0 -2.51629e-15 -0.0663399 0 0 0 0.0331699)
(0.0395993 0 0 -2.61484e-15 -0.0791986 0 0 0 0.0395993)
(0.0410337 0 0 -2.53746e-15 -0.0820675 0 0 0 0.0410337)
(0.0333504 0 0 -2.3346e-15 -0.0667008 0 0 0 0.0333504)
(0.0235307 0 0 -2.05267e-15 -0.0470615 0 0 0 0.0235307)
(0.0128798 0 0 -7.97824e-16 -0.0257595 0 0 0 0.0128798)
(4.86341e-06 0 0 -2.86152e-18 -9.72682e-06 0 0 0 4.86341e-06)
(5.01965e-07 0 0 -2.46808e-18 -1.00393e-06 0 0 0 5.01965e-07)
(-1.66745e-06 0 0 1.06741e-19 3.33489e-06 0 0 0 -1.66745e-06)
(5.28422e-07 0 0 1.62728e-18 -1.05684e-06 0 0 0 5.28422e-07)
(2.08454e-07 0 0 1.00739e-18 -4.16908e-07 0 0 0 2.08454e-07)
(5.3331e-08 0 0 5.54919e-19 -1.06662e-07 0 0 0 5.3331e-08)
(1.93082e-08 0 0 2.5694e-19 -3.86163e-08 0 0 0 1.93082e-08)
(6.29376e-09 0 0 5.18664e-20 -1.25875e-08 0 0 0 6.29376e-09)
(1.79991e-09 0 0 -1.49289e-19 -3.59982e-09 0 0 0 1.79991e-09)
(4.97842e-10 0 0 -4.59824e-19 -9.95684e-10 0 0 0 4.97842e-10)
(1.28948e-10 0 0 -1.01729e-18 -2.57896e-10 0 0 0 1.28948e-10)
(3.09788e-11 0 0 -1.95924e-18 -6.19576e-11 0 0 0 3.09788e-11)
(6.85529e-12 0 0 -3.35338e-18 -1.37106e-11 0 0 0 6.85529e-12)
(2.08923e-12 0 0 -5.13462e-18 -4.17846e-12 0 0 0 2.08923e-12)
(4.80709e-13 0 0 1.326e-18 -9.61418e-13 0 0 0 4.80709e-13)
(-1.45724e-14 0 0 8.29743e-18 2.91447e-14 0 0 0 -1.45724e-14)
(-6.43552e-13 0 0 8.08581e-18 1.2871e-12 0 0 0 -6.43552e-13)
(-2.39784e-13 0 0 5.21082e-18 4.79569e-13 0 0 0 -2.39784e-13)
(-1.90705e-13 0 0 3.86058e-18 3.81409e-13 0 0 0 -1.90705e-13)
(1.71728e-13 0 0 7.99048e-18 -3.43456e-13 0 0 0 1.71728e-13)
(1.81863e-13 0 0 4.68143e-18 -3.63725e-13 0 0 0 1.81863e-13)
(4.24077e-13 0 0 -6.86574e-18 -8.48154e-13 0 0 0 4.24077e-13)
(2.60799e-13 0 0 -1.1019e-17 -5.21598e-13 0 0 0 2.60799e-13)
(1.92802e-13 0 0 -8.52808e-18 -3.85603e-13 0 0 0 1.92802e-13)
(5.35041e-15 0 0 -7.96097e-18 -1.07008e-14 0 0 0 5.35041e-15)
(8.74811e-14 0 0 -9.1199e-18 -1.74962e-13 0 0 0 8.74811e-14)
(7.16836e-14 1.17803e-21 0 -3.07733e-18 -1.43367e-13 0 0 0 7.16836e-14)
(1.6133e-13 0 0 1.11971e-17 -3.2266e-13 0 0 0 1.6133e-13)
(1.58124e-13 0 0 9.77501e-18 -3.16248e-13 0 0 0 1.58124e-13)
(1.98719e-13 0 0 9.848e-18 -3.97439e-13 0 0 0 1.98719e-13)
(1.48604e-13 0 0 3.06392e-18 -2.97209e-13 0 0 0 1.48604e-13)
(1.20975e-13 0 0 -2.70883e-18 -2.4195e-13 0 0 0 1.20975e-13)
(7.09865e-14 0 0 3.17872e-19 -1.41973e-13 0 0 0 7.09865e-14)
(7.29392e-14 0 0 -4.83739e-18 -1.45878e-13 0 0 0 7.29392e-14)
(5.97568e-14 0 0 -1.72465e-18 -1.19514e-13 0 0 0 5.97568e-14)
(6.95053e-14 0 0 9.65687e-18 -1.39011e-13 0 0 0 6.95053e-14)
(6.40088e-14 0 0 4.32617e-18 -1.28018e-13 0 0 0 6.40088e-14)
(6.41385e-14 0 0 -9.86586e-18 -1.28277e-13 0 0 0 6.41385e-14)
(4.95937e-14 0 0 -1.70068e-17 -9.91873e-14 0 0 0 4.95937e-14)
(3.84308e-14 0 0 -9.13288e-18 -7.68616e-14 0 0 0 3.84308e-14)
(2.58092e-14 0 0 5.77291e-18 -5.16183e-14 0 0 0 2.58092e-14)
(2.13583e-14 0 0 3.39796e-18 -4.27166e-14 0 0 0 2.13583e-14)
(1.6399e-14 0 0 8.29948e-19 -3.2798e-14 0 0 0 1.6399e-14)
(1.46741e-14 0 0 -1.71397e-18 -2.93482e-14 0 0 0 1.46741e-14)
(1.23909e-14 0 0 -4.04927e-18 -2.47818e-14 0 0 0 1.23909e-14)
(8.83637e-15 0 0 2.4603e-18 -1.76727e-14 0 0 0 8.83637e-15)
(3.30853e-15 0 0 1.00696e-17 -6.61706e-15 0 0 0 3.30853e-15)
(-3.89805e-15 0 0 1.09985e-17 7.79611e-15 0 0 0 -3.89805e-15)
(-6.67368e-15 0 0 1.37474e-17 1.33474e-14 0 0 0 -6.67368e-15)
(-1.12114e-14 -1.17803e-21 0 1.32901e-18 2.24227e-14 0 0 0 -1.12114e-14)
(-1.01326e-14 0 0 -1.04801e-17 2.02653e-14 0 0 0 -1.01326e-14)
(-1.54354e-14 0 0 -5.91815e-18 3.08708e-14 0 0 0 -1.54354e-14)
(-1.05666e-14 0 0 -2.03753e-18 2.11332e-14 0 0 0 -1.05666e-14)
(-2.01819e-14 0 0 1.07091e-18 4.03639e-14 0 0 0 -2.01819e-14)
(-2.46745e-14 0 0 3.45294e-18 4.93491e-14 0 0 0 -2.46745e-14)
(-4.6919e-14 0 0 -1.15492e-17 9.38379e-14 0 0 0 -4.6919e-14)
(-3.63395e-14 0 0 -1.07199e-17 7.26789e-14 0 0 0 -3.63395e-14)
(-5.18359e-14 0 0 6.35488e-18 1.03672e-13 0 0 0 -5.18359e-14)
(-2.72365e-14 0 0 7.25893e-18 5.44729e-14 0 0 0 -2.72365e-14)
(-5.23209e-14 0 0 9.29054e-18 1.04642e-13 0 0 0 -5.23209e-14)
(-1.70309e-15 0 0 1.26952e-17 3.40619e-15 0 0 0 -1.70309e-15)
(-4.32231e-14 0 0 5.738e-19 8.64463e-14 0 0 0 -4.32231e-14)
(-3.38763e-14 0 0 -1.12949e-17 6.77527e-14 0 0 0 -3.38763e-14)
(-1.41812e-13 0 0 -7.1731e-18 2.83624e-13 0 0 0 -1.41812e-13)
(-5.56785e-14 0 0 -4.11572e-18 1.11357e-13 0 0 0 -5.56785e-14)
(-1.29042e-13 0 0 -2.11962e-18 2.58085e-13 0 0 0 -1.29042e-13)
(6.5761e-15 0 0 -9.75827e-19 -1.31522e-14 0 0 0 6.5761e-15)
(-1.20239e-13 0 0 -3.79231e-19 2.40478e-13 0 0 0 -1.20239e-13)
(1.50355e-13 0 0 -4.75402e-20 -3.00711e-13 0 0 0 1.50355e-13)
(-7.86007e-15 0 0 2.62635e-19 1.57201e-14 0 0 0 -7.86007e-15)
(7.73221e-14 0 0 8.14305e-19 -1.54644e-13 0 0 0 7.73221e-14)
(-3.72497e-13 0 0 1.97529e-18 7.44994e-13 0 0 0 -3.72497e-13)
(-2.62617e-14 0 0 4.26882e-18 5.25235e-14 0 0 0 -2.62617e-14)
(-2.8355e-13 0 0 8.30811e-18 5.67099e-13 0 0 0 -2.8355e-13)
(1.45677e-13 0 0 1.45533e-17 -2.91354e-13 0 0 0 1.45677e-13)
(-2.99665e-13 0 0 2.31036e-17 5.99329e-13 0 0 0 -2.99665e-13)
(5.76075e-13 0 0 -8.50833e-23 -1.15215e-12 0 0 0 5.76075e-13)
(2.36641e-13 0 0 -2.31037e-17 -4.73282e-13 0 0 0 2.36641e-13)
(4.20951e-13 0 0 -1.45534e-17 -8.41901e-13 0 0 0 4.20951e-13)
(-8.26464e-13 0 0 -8.30844e-18 1.65293e-12 0 0 0 -8.26464e-13)
(-1.11336e-13 0 0 -4.27024e-18 2.22672e-13 0 0 0 -1.11336e-13)
(-5.94351e-13 0 0 -1.98057e-18 1.1887e-12 0 0 0 -5.94351e-13)
(-6.57545e-13 0 0 -8.32153e-19 1.31509e-12 0 0 0 -6.57545e-13)
(-1.3518e-12 0 0 -3.18193e-19 2.70359e-12 0 0 0 -1.3518e-12)
(1.65453e-11 0 0 -1.11268e-19 -3.30905e-11 0 0 0 1.65453e-11)
(-2.98067e-11 0 0 -3.57561e-20 5.96135e-11 0 0 0 -2.98067e-11)
(-6.11283e-11 0 0 -1.06087e-20 1.22257e-10 0 0 0 -6.11283e-11)
(-9.89972e-11 0 0 -2.91885e-21 1.97994e-10 0 0 0 -9.89972e-11)
(3.37875e-09 0 0 -7.47776e-22 -6.75751e-09 0 0 0 3.37875e-09)
(-1.17988e-08 0 0 -1.79068e-22 2.35975e-08 0 0 0 -1.17988e-08)
(-2.35608e-09 0 0 -4.02143e-23 4.71215e-09 0 0 0 -2.35608e-09)
(6.67111e-08 0 0 -8.50276e-24 -1.33422e-07 0 0 0 6.67111e-08)
(3.3908e-07 0 0 -1.69398e-24 -6.78161e-07 0 0 0 3.3908e-07)
(-2.24917e-06 0 0 -3.20471e-25 4.49833e-06 0 0 0 -2.24917e-06)
(-3.15874e-06 0 0 -5.70309e-26 6.31748e-06 0 0 0 -3.15874e-06)
(4.18957e-05 0 0 -9.53623e-27 -8.37914e-05 0 0 0 4.18957e-05)
(4.08842e-05 0 0 -1.75564e-27 -8.17684e-05 0 0 0 4.08842e-05)
(-2.73947e-06 0 0 -1.22307e-29 5.47894e-06 0 0 0 -2.73947e-06)
(8.10061e-09 0 0 -6.43679e-32 -1.62012e-08 0 0 0 8.10061e-09)
(4.98626e-09 0 0 -1.96747e-32 -9.97252e-09 0 0 0 4.98626e-09)
(-7.57325e-14 0 0 -7.62841e-37 1.51465e-13 0 0 0 -7.57325e-14)
(-4.02383e-20 0 0 -6.9077e-43 8.04767e-20 0 0 0 -4.02383e-20)
(1.60653e-26 0 0 -3.97215e-49 -3.21305e-26 0 0 0 1.60653e-26)
(2.42506e-30 0 0 -6.42321e-52 -4.85012e-30 0 0 0 2.42506e-30)
(6.37634e-32 0 0 -5.62661e-53 -1.27527e-31 0 0 0 6.37634e-32)
(-1.65469e-33 0 0 -4.26034e-54 3.30938e-33 0 0 0 -1.65469e-33)
(-4.86012e-35 0 0 -2.72395e-55 9.72023e-35 0 0 0 -4.86012e-35)
(-9.80745e-36 0 0 -1.42556e-56 1.96149e-35 0 0 0 -9.80745e-36)
(-1.20366e-36 0 0 -5.8112e-58 2.40731e-36 0 0 0 -1.20366e-36)
(-2.96908e-37 0 0 -1.6784e-59 5.93816e-37 0 0 0 -2.96908e-37)
(-4.91948e-36 0 0 -2.63466e-61 9.83896e-36 0 0 0 -4.91948e-36)
)
;

boundaryField
{
    inlet
    {
        type            cyclic;
    }
    outlet
    {
        type            cyclic;
    }
    top
    {
        type            extrapolatedCalculated;
        value           uniform (-9.82958e-36 0 0 -2.56234e-61 1.96592e-35 0 0 0 -9.82958e-36);
    }
    bottom
    {
        type            extrapolatedCalculated;
        value           uniform (0.0183717 0 0 -1.87533e-15 -0.0367434 0 0 0 0.0183717);
    }
    frontAndBackPlanes
    {
        type            empty;
    }
}


// ************************************************************************* //
