/*--------------------------------*- C++ -*----------------------------------*\
| =========                 |                                                 |
| \\      /  F ield         | OpenFOAM: The Open Source CFD Toolbox           |
|  \\    /   O peration     | Version:  v2006                                 |
|   \\  /    A nd           | Website:  www.openfoam.com                      |
|    \\/     M anipulation  |                                                 |
\*---------------------------------------------------------------------------*/
FoamFile
{
    version     2.0;
    format      ascii;
    class       volTensorField;
    location    "140";
    object      Taub;
}
// * * * * * * * * * * * * * * * * * * * * * * * * * * * * * * * * * * * * * //

dimensions      [1 -1 -2 0 0 0 0];


internalField   nonuniform List<tensor> 
120
(
(-1.37916e-06 0 0 -8.96838e-20 2.75833e-06 0 0 0 -1.37916e-06)
(-1.54585e-06 0 0 -8.70305e-20 3.0917e-06 0 0 0 -1.54585e-06)
(-1.82844e-06 0 0 -1.05665e-19 3.65689e-06 0 0 0 -1.82844e-06)
(-2.18494e-06 0 0 -1.25112e-19 4.36989e-06 0 0 0 -2.18494e-06)
(-2.48512e-06 0 0 -1.22785e-19 4.97023e-06 0 0 0 -2.48512e-06)
(-2.4948e-06 0 0 -7.05147e-20 4.9896e-06 0 0 0 -2.4948e-06)
(-1.99536e-06 0 0 -1.09957e-19 3.99072e-06 0 0 0 -1.99536e-06)
(-1.22361e-06 0 0 -2.06595e-19 2.44723e-06 0 0 0 -1.22361e-06)
(-4.01566e-05 0 0 -8.13163e-19 8.03132e-05 0 0 0 -4.01566e-05)
(7.76855e-05 0 0 -1.34336e-16 -0.000155371 0 0 0 7.76855e-05)
(-8.83908e-05 0 0 -2.04646e-16 0.000176782 0 0 0 -8.83908e-05)
(-0.000177146 0 0 9.06446e-18 0.000354292 0 0 0 -0.000177146)
(2.92965e-05 0 0 1.38209e-16 -5.8593e-05 0 0 0 2.92965e-05)
(1.21961e-05 0 0 8.62395e-17 -2.43922e-05 0 0 0 1.21961e-05)
(2.64455e-06 0 0 4.75422e-17 -5.2891e-06 0 0 0 2.64455e-06)
(1.05856e-06 0 0 2.20187e-17 -2.11713e-06 0 0 0 1.05856e-06)
(3.59195e-07 0 0 4.44502e-18 -7.18389e-07 0 0 0 3.59195e-07)
(1.02724e-07 0 0 -1.27949e-17 -2.05449e-07 0 0 0 1.02724e-07)
(2.89834e-08 0 0 -3.94093e-17 -5.79668e-08 0 0 0 2.89834e-08)
(7.65226e-09 0 0 -8.71865e-17 -1.53045e-08 0 0 0 7.65226e-09)
(1.88192e-09 0 0 -1.67915e-16 -3.76384e-09 0 0 0 1.88192e-09)
(4.49834e-10 0 0 -2.87397e-16 -8.99668e-10 0 0 0 4.49834e-10)
(1.90403e-10 0 0 -4.36776e-16 -3.80805e-10 0 0 0 1.90403e-10)
(7.63605e-11 0 0 1.13644e-16 -1.52721e-10 0 0 0 7.63605e-11)
(2.25731e-11 0 0 7.07843e-16 -4.51461e-11 0 0 0 2.25731e-11)
(-5.56672e-11 0 0 6.91347e-16 1.11334e-10 0 0 0 -5.56672e-11)
(-3.94969e-11 0 0 4.46591e-16 7.89938e-11 0 0 0 -3.94969e-11)
(-4.61508e-11 0 0 3.3251e-16 9.23016e-11 0 0 0 -4.61508e-11)
(-1.52426e-11 0 0 6.81535e-16 3.04853e-11 0 0 0 -1.52426e-11)
(-1.04611e-11 0 0 3.97936e-16 2.09222e-11 0 0 0 -1.04611e-11)
(1.61325e-11 0 0 -5.85141e-16 -3.22651e-11 0 0 0 1.61325e-11)
(3.74965e-12 0 0 -9.41094e-16 -7.49929e-12 0 0 0 3.74965e-12)
(-3.50938e-12 0 0 -7.30893e-16 7.01875e-12 0 0 0 -3.50938e-12)
(-2.36843e-11 0 0 -6.82289e-16 4.73687e-11 0 0 0 -2.36843e-11)
(-1.9281e-11 0 0 -7.78332e-16 3.8562e-11 0 0 0 -1.9281e-11)
(-2.16222e-11 -1.00962e-19 0 -2.60459e-16 4.32444e-11 0 0 0 -2.16222e-11)
(-1.20106e-11 0 0 9.53071e-16 2.40212e-11 0 0 0 -1.20106e-11)
(-9.17106e-12 0 0 8.37757e-16 1.83421e-11 0 0 0 -9.17106e-12)
(-2.0582e-12 0 0 8.40734e-16 4.11641e-12 0 0 0 -2.0582e-12)
(-3.78703e-12 0 0 2.62592e-16 7.57406e-12 0 0 0 -3.78703e-12)
(-4.44014e-12 0 0 -2.28875e-16 8.88028e-12 0 0 0 -4.44014e-12)
(-7.81161e-12 0 0 2.3964e-17 1.56232e-11 0 0 0 -7.81161e-12)
(-6.70564e-12 0 0 -4.11301e-16 1.34113e-11 0 0 0 -6.70564e-12)
(-6.79279e-12 0 0 -1.4453e-16 1.35856e-11 0 0 0 -6.79279e-12)
(-4.49661e-12 0 0 8.21068e-16 8.99323e-12 0 0 0 -4.49661e-12)
(-3.38782e-12 0 0 3.67486e-16 6.77565e-12 0 0 0 -3.38782e-12)
(-1.82699e-12 0 0 -8.42262e-16 3.65398e-12 0 0 0 -1.82699e-12)
(-1.84217e-12 0 0 -1.45099e-15 3.68433e-12 0 0 0 -1.84217e-12)
(-1.84773e-12 0 0 -7.79445e-16 3.69545e-12 0 0 0 -1.84773e-12)
(-2.22091e-12 0 0 4.88196e-16 4.44183e-12 0 0 0 -2.22091e-12)
(-1.99239e-12 0 0 2.91216e-16 3.98479e-12 0 0 0 -1.99239e-12)
(-1.86649e-12 0 0 7.11297e-17 3.73298e-12 0 0 0 -1.86649e-12)
(-1.45873e-12 0 0 -1.46892e-16 2.91746e-12 0 0 0 -1.45873e-12)
(-1.11658e-12 0 0 -3.43755e-16 2.23315e-12 0 0 0 -1.11658e-12)
(-9.36176e-13 0 0 2.1086e-16 1.87235e-12 0 0 0 -9.36176e-13)
(-1.00613e-12 0 0 8.5973e-16 2.01226e-12 0 0 0 -1.00613e-12)
(-1.30392e-12 0 0 9.42612e-16 2.60784e-12 0 0 0 -1.30392e-12)
(-1.27623e-12 0 0 1.17165e-15 2.55245e-12 0 0 0 -1.27623e-12)
(-1.47689e-12 0 0 1.13904e-16 2.95378e-12 0 0 0 -1.47689e-12)
(-1.22322e-12 0 0 -8.9162e-16 2.44644e-12 0 0 0 -1.22322e-12)
(-1.57798e-12 0 0 -5.07208e-16 3.15597e-12 0 0 0 -1.57798e-12)
(-1.03488e-12 0 0 -1.74626e-16 2.06976e-12 0 0 0 -1.03488e-12)
(-1.81631e-12 0 0 9.17771e-17 3.63261e-12 0 0 0 -1.81631e-12)
(-2.12603e-12 0 0 2.89368e-16 4.25207e-12 0 0 0 -2.12603e-12)
(-4.04786e-12 0 0 -9.83252e-16 8.09572e-12 0 0 0 -4.04786e-12)
(-3.0813e-12 0 0 -9.12178e-16 6.16261e-12 0 0 0 -3.0813e-12)
(-4.64098e-12 0 0 5.38078e-16 9.28196e-12 0 0 0 -4.64098e-12)
(-2.73814e-12 0 0 6.22119e-16 5.47627e-12 0 0 0 -2.73814e-12)
(-5.46974e-12 0 0 7.96236e-16 1.09395e-11 0 0 0 -5.46974e-12)
(-1.47422e-12 0 0 1.08147e-15 2.94844e-12 0 0 0 -1.47422e-12)
(-5.93854e-12 0 0 4.91779e-17 1.18771e-11 0 0 0 -5.93854e-12)
(-5.76777e-12 0 0 -9.61459e-16 1.15355e-11 0 0 0 -5.76777e-12)
(-1.61378e-11 0 0 -6.14763e-16 3.22756e-11 0 0 0 -1.61378e-11)
(-9.01047e-12 0 0 -3.52736e-16 1.80209e-11 0 0 0 -9.01047e-12)
(-1.67397e-11 0 0 -1.81662e-16 3.34794e-11 0 0 0 -1.67397e-11)
(-5.96677e-12 0 0 -8.36337e-17 1.19335e-11 0 0 0 -5.96677e-12)
(-1.9323e-11 0 0 -3.25024e-17 3.8646e-11 0 0 0 -1.9323e-11)
(2.95855e-12 0 0 -4.07445e-18 -5.91709e-12 0 0 0 2.95855e-12)
(-1.42214e-11 0 0 2.25096e-17 2.84427e-11 0 0 0 -1.42214e-11)
(-9.50145e-12 0 0 6.97909e-17 1.90029e-11 0 0 0 -9.50145e-12)
(-5.26484e-11 0 0 1.69294e-16 1.05297e-10 0 0 0 -5.26484e-11)
(-2.27178e-11 0 0 3.65859e-16 4.54356e-11 0 0 0 -2.27178e-11)
(-4.73014e-11 0 0 7.12042e-16 9.46029e-11 0 0 0 -4.73014e-11)
(-9.64346e-12 0 0 1.24728e-15 1.92869e-11 0 0 0 -9.64346e-12)
(-5.0813e-11 0 0 1.96695e-15 1.01626e-10 0 0 0 -5.0813e-11)
(2.7955e-11 0 0 -6.58702e-21 -5.59101e-11 0 0 0 2.7955e-11)
(-5.12723e-12 0 0 -1.96695e-15 1.02545e-11 0 0 0 -5.12723e-12)
(7.54867e-12 0 0 -1.24729e-15 -1.50973e-11 0 0 0 7.54867e-12)
(-1.08309e-10 0 0 -7.12071e-16 2.16619e-10 0 0 0 -1.08309e-10)
(-4.26061e-11 0 0 -3.65981e-16 8.52122e-11 0 0 0 -4.26061e-11)
(-8.1529e-11 0 0 -1.69746e-16 1.63058e-10 0 0 0 -8.1529e-11)
(-7.51832e-11 0 0 -7.13207e-17 1.50366e-10 0 0 0 -7.51832e-11)
(-1.31063e-10 0 0 -2.72713e-17 2.62127e-10 0 0 0 -1.31063e-10)
(1.46216e-09 0 0 -9.53649e-18 -2.92432e-09 0 0 0 1.46216e-09)
(-2.63391e-09 0 0 -3.0646e-18 5.26782e-09 0 0 0 -2.63391e-09)
(-4.70484e-09 0 0 -9.09264e-19 9.40969e-09 0 0 0 -4.70484e-09)
(-1.09981e-08 0 0 -2.50175e-19 2.19963e-08 0 0 0 -1.09981e-08)
(2.99947e-07 0 0 -6.40927e-20 -5.99894e-07 0 0 0 2.99947e-07)
(-1.04507e-06 0 0 -1.53481e-20 2.09013e-06 0 0 0 -1.04507e-06)
(-8.87e-08 0 0 -3.447e-21 1.774e-07 0 0 0 -8.87e-08)
(5.36619e-06 0 0 -7.28727e-22 -1.07324e-05 0 0 0 5.36619e-06)
(2.96772e-05 0 0 -1.45227e-22 -5.93544e-05 0 0 0 2.96772e-05)
(-0.000191715 0 0 -2.74606e-23 0.000383431 0 0 0 -0.000191715)
(-0.000278306 0 0 -4.88981e-24 0.000556612 0 0 0 -0.000278306)
(0.00368479 0 0 -8.30145e-25 -0.00736957 0 0 0 0.00368479)
(0.00135145 0 0 -1.43035e-25 -0.0027029 0 0 0 0.00135145)
(-0.00243844 0 0 -3.09182e-27 0.00487689 0 0 0 -0.00243844)
(-0.00045596 0 0 -2.60043e-27 0.000911921 0 0 0 -0.00045596)
(0.000464457 0 0 -2.14002e-27 -0.000928915 0 0 0 0.000464457)
(5.40594e-05 0 0 -1.61818e-27 -0.000108119 0 0 0 5.40594e-05)
(-3.07661e-05 0 0 -1.22907e-27 6.15322e-05 0 0 0 -3.07661e-05)
(-7.23612e-06 0 0 -9.35782e-28 1.44722e-05 0 0 0 -7.23612e-06)
(2.38355e-06 0 0 -7.12616e-28 -4.7671e-06 0 0 0 2.38355e-06)
(5.95094e-07 0 0 -5.43658e-28 -1.19019e-06 0 0 0 5.95094e-07)
(-1.55897e-07 0 0 -4.16774e-28 3.11794e-07 0 0 0 -1.55897e-07)
(-5.56895e-08 0 0 -3.22759e-28 1.11379e-07 0 0 0 -5.56895e-08)
(1.00798e-08 0 0 -2.54739e-28 -2.01597e-08 0 0 0 1.00798e-08)
(4.73221e-09 0 0 -2.07709e-28 -9.46443e-09 0 0 0 4.73221e-09)
(-2.35236e-10 0 0 -1.78193e-28 4.70472e-10 0 0 0 -2.35236e-10)
(2.01791e-09 0 0 -1.62995e-28 -4.03582e-09 0 0 0 2.01791e-09)
)
;

boundaryField
{
    inlet
    {
        type            cyclic;
    }
    outlet
    {
        type            cyclic;
    }
    top
    {
        type            extrapolatedCalculated;
        value           uniform (4.09724e-09 0 0 -1.58526e-28 -8.19447e-09 0 0 0 4.09724e-09);
    }
    bottom
    {
        type            extrapolatedCalculated;
        value           uniform (-1.33134e-06 0 0 -8.84335e-20 2.66267e-06 0 0 0 -1.33134e-06);
    }
    frontAndBackPlanes
    {
        type            empty;
    }
}


// ************************************************************************* //
