/*--------------------------------*- C++ -*----------------------------------*\
| =========                 |                                                 |
| \\      /  F ield         | OpenFOAM: The Open Source CFD Toolbox           |
|  \\    /   O peration     | Version:  v2006                                 |
|   \\  /    A nd           | Website:  www.openfoam.com                      |
|    \\/     M anipulation  |                                                 |
\*---------------------------------------------------------------------------*/
FoamFile
{
    version     2.0;
    format      ascii;
    class       volVectorField;
    location    "140";
    object      Ua;
}
// * * * * * * * * * * * * * * * * * * * * * * * * * * * * * * * * * * * * * //

dimensions      [0 1 -1 0 0 0 0];


internalField   nonuniform List<vector> 
120
(
(-4.46508e-22 -1.31226e-08 0)
(-1.36539e-21 -4.18596e-08 0)
(-2.33988e-21 -7.60481e-08 0)
(-3.50175e-21 -1.18124e-07 0)
(-4.73635e-21 -1.70819e-07 0)
(-5.99207e-21 -2.31264e-07 0)
(-7.15298e-21 -2.88059e-07 0)
(-8.2155e-21 -3.26551e-07 0)
(-9.10791e-21 -3.55289e-07 0)
(-9.91182e-21 -4.08706e-07 0)
(-2.77785e-18 -1.44725e-05 0)
(-4.44232e-18 -3.11313e-06 0)
(-2.57881e-18 -5.14413e-06 0)
(-1.3659e-18 -6.11013e-06 0)
(-6.64845e-19 -6.33227e-06 0)
(-3.09752e-19 -6.41464e-06 0)
(-1.75551e-19 -6.44258e-06 0)
(-2.10966e-19 -6.4506e-06 0)
(-4.59907e-19 -6.45286e-06 0)
(-1.08682e-18 -6.45345e-06 0)
(-2.3976e-18 -6.4536e-06 0)
(-4.8187e-18 -6.45362e-06 0)
(-8.78498e-18 -6.45364e-06 0)
(-1.45989e-17 -6.45364e-06 0)
(-6.25927e-18 -6.45364e-06 0)
(1.2057e-18 -6.45364e-06 0)
(9.14226e-18 -6.45364e-06 0)
(1.11311e-17 -6.45363e-06 0)
(1.64958e-17 -6.45364e-06 0)
(2.6351e-17 -6.45363e-06 0)
(2.54128e-17 -6.45364e-06 0)
(1.32734e-17 -6.45364e-06 0)
(4.42417e-18 -6.45364e-06 0)
(-2.97052e-18 -6.45364e-06 0)
(-1.07396e-17 -6.45364e-06 0)
(-2.03418e-17 -6.45364e-06 0)
(-1.66012e-17 -6.45364e-06 0)
(9.85954e-19 -6.45364e-06 0)
(2.0179e-18 -6.45364e-06 0)
(1.97441e-17 -6.45364e-06 0)
(7.85393e-18 -6.45364e-06 0)
(1.45844e-17 -6.45364e-06 0)
(8.4594e-18 -6.45364e-06 0)
(5.37032e-18 -6.45364e-06 0)
(5.17435e-18 -6.45364e-06 0)
(2.37644e-17 -6.45364e-06 0)
(1.34147e-17 -6.45364e-06 0)
(4.97225e-18 -6.45364e-06 0)
(-1.89792e-17 -6.45364e-06 0)
(-1.24237e-17 -6.45364e-06 0)
(-7.98316e-18 -6.45364e-06 0)
(-5.95139e-18 -6.45364e-06 0)
(-6.40231e-18 -6.45364e-06 0)
(-9.2161e-18 -6.45364e-06 0)
(-1.41152e-17 -6.45364e-06 0)
(-4.52981e-18 -6.45364e-06 0)
(5.06507e-18 -6.45364e-06 0)
(1.64196e-17 -6.45364e-06 0)
(3.12506e-17 -6.45364e-06 0)
(1.89511e-17 -6.45364e-06 0)
(1.12886e-17 -6.45364e-06 0)
(7.67843e-18 -6.45364e-06 0)
(7.40759e-18 -6.45364e-06 0)
(9.71825e-18 -6.45364e-06 0)
(1.39846e-17 -6.45364e-06 0)
(-1.22803e-17 -6.45364e-06 0)
(-6.43431e-18 -6.45364e-06 0)
(-1.75731e-19 -6.45364e-06 0)
(7.39222e-18 -6.45364e-06 0)
(1.75205e-17 -6.45364e-06 0)
(3.15736e-17 -6.45364e-06 0)
(1.86135e-17 -6.45364e-06 0)
(1.00594e-17 -6.45364e-06 0)
(4.95044e-18 -6.45364e-06 0)
(2.21991e-18 -6.45364e-06 0)
(9.13055e-19 -6.45364e-06 0)
(3.61188e-19 -6.45364e-06 0)
(1.90711e-19 -6.45364e-06 0)
(2.70635e-19 -6.45364e-06 0)
(6.90968e-19 -6.45364e-06 0)
(1.82169e-18 -6.45364e-06 0)
(4.45343e-18 -6.45364e-06 0)
(9.95278e-18 -6.45364e-06 0)
(2.02784e-17 -6.45364e-06 0)
(3.76735e-17 -6.45364e-06 0)
(6.42853e-17 -6.45363e-06 0)
(3.76733e-17 -6.45365e-06 0)
(2.02782e-17 -6.45364e-06 0)
(9.9525e-18 -6.45365e-06 0)
(4.45262e-18 -6.45363e-06 0)
(1.8187e-18 -6.45365e-06 0)
(6.80106e-19 -6.45363e-06 0)
(2.3365e-19 -6.45365e-06 0)
(7.40245e-20 -6.45362e-06 0)
(2.17114e-20 -6.45374e-06 0)
(5.91761e-21 -6.45345e-06 0)
(1.50429e-21 -6.45339e-06 0)
(3.57896e-22 -6.45288e-06 0)
(7.99449e-23 -6.4727e-06 0)
(1.68212e-23 -6.38546e-06 0)
(3.34004e-24 -6.45923e-06 0)
(6.29161e-25 -6.76658e-06 0)
(1.11986e-25 -8.3977e-06 0)
(1.91744e-26 6.07664e-06 0)
(3.28888e-27 9.66331e-06 0)
(3.73909e-28 -0.000241713 0)
(3.17456e-28 -0.000197927 0)
(2.48639e-28 -0.000157538 0)
(1.87698e-28 -0.000246916 0)
(1.4161e-28 -0.000238913 0)
(1.06671e-28 -0.000222784 0)
(8.01043e-29 -0.000228165 0)
(5.98775e-29 -0.000228461 0)
(4.44705e-29 -0.000228569 0)
(3.26931e-29 -0.000228554 0)
(2.36296e-29 -0.000228544 0)
(1.65549e-29 -0.000228545 0)
(1.08917e-29 -0.000228518 0)
(6.1683e-30 -0.000228481 0)
(1.98153e-30 -0.000228045 0)
)
;

boundaryField
{
    inlet
    {
        type            cyclic;
    }
    outlet
    {
        type            cyclic;
    }
    top
    {
        type            fixedValue;
        value           uniform (0 0 0);
    }
    bottom
    {
        type            fixedValue;
        value           uniform (0 0 0);
    }
    frontAndBackPlanes
    {
        type            empty;
    }
}


// ************************************************************************* //
