/*--------------------------------*- C++ -*----------------------------------*\
| =========                 |                                                 |
| \\      /  F ield         | OpenFOAM: The Open Source CFD Toolbox           |
|  \\    /   O peration     | Version:  v2006                                 |
|   \\  /    A nd           | Website:  www.openfoam.com                      |
|    \\/     M anipulation  |                                                 |
\*---------------------------------------------------------------------------*/
FoamFile
{
    version     2.0;
    format      ascii;
    class       volVectorField;
    location    "140";
    object      Ub;
}
// * * * * * * * * * * * * * * * * * * * * * * * * * * * * * * * * * * * * * //

dimensions      [0 1 -1 0 0 0 0];


internalField   nonuniform List<vector> 
120
(
(-4.46503e-22 2.01659e-08 0)
(-1.36476e-21 6.33953e-08 0)
(-2.20508e-21 1.13874e-07 0)
(-3.50111e-21 1.74298e-07 0)
(-4.73632e-21 2.4649e-07 0)
(-5.98729e-21 3.25256e-07 0)
(-6.16546e-21 3.98178e-07 0)
(-8.21824e-21 4.46709e-07 0)
(-1.03625e-20 4.72751e-07 0)
(-2.47757e-20 2.89968e-06 0)
(-2.77791e-18 -4.32861e-06 0)
(-4.42483e-18 8.60112e-06 0)
(-2.57883e-18 7.34362e-06 0)
(-1.36592e-18 6.6559e-06 0)
(-6.64859e-19 6.5316e-06 0)
(-3.09761e-19 6.47966e-06 0)
(-1.75558e-19 6.46103e-06 0)
(-2.10974e-19 6.45571e-06 0)
(-4.59922e-19 6.45418e-06 0)
(-1.08684e-18 6.45378e-06 0)
(-2.39764e-18 6.45367e-06 0)
(-4.81876e-18 6.45365e-06 0)
(-8.78504e-18 6.45364e-06 0)
(-1.45261e-17 6.45364e-06 0)
(-6.25929e-18 6.45363e-06 0)
(1.20571e-18 6.45364e-06 0)
(9.10589e-18 6.45363e-06 0)
(1.11312e-17 6.45364e-06 0)
(1.64959e-17 6.45364e-06 0)
(2.62783e-17 6.45364e-06 0)
(2.534e-17 6.45364e-06 0)
(1.32736e-17 6.45364e-06 0)
(4.42423e-18 6.45364e-06 0)
(-2.97053e-18 6.45364e-06 0)
(-1.07397e-17 6.45364e-06 0)
(-2.02689e-17 6.45364e-06 0)
(-1.65284e-17 6.45364e-06 0)
(9.13044e-19 6.45364e-06 0)
(2.0908e-18 6.45364e-06 0)
(1.95984e-17 6.45364e-06 0)
(7.92691e-18 6.45364e-06 0)
(1.45116e-17 6.45364e-06 0)
(8.45951e-18 6.45364e-06 0)
(5.37044e-18 6.45364e-06 0)
(5.24734e-18 6.45364e-06 0)
(2.36187e-17 6.45364e-06 0)
(1.34147e-17 6.45364e-06 0)
(4.89939e-18 6.45364e-06 0)
(-1.88334e-17 6.45364e-06 0)
(-1.24238e-17 6.45364e-06 0)
(-7.98326e-18 6.45364e-06 0)
(-5.95149e-18 6.45364e-06 0)
(-6.4024e-18 6.45364e-06 0)
(-9.21617e-18 6.45364e-06 0)
(-1.40424e-17 6.45364e-06 0)
(-4.5298e-18 6.45364e-06 0)
(5.06514e-18 6.45364e-06 0)
(1.64198e-17 6.45364e-06 0)
(3.1105e-17 6.45364e-06 0)
(1.89513e-17 6.45364e-06 0)
(1.12887e-17 6.45364e-06 0)
(7.67856e-18 6.45364e-06 0)
(7.40769e-18 6.45364e-06 0)
(9.71831e-18 6.45364e-06 0)
(1.38389e-17 6.45364e-06 0)
(-1.21345e-17 6.45364e-06 0)
(-6.43427e-18 6.45364e-06 0)
(-1.75683e-19 6.45364e-06 0)
(7.39231e-18 6.45364e-06 0)
(1.75207e-17 6.45364e-06 0)
(3.14279e-17 6.45364e-06 0)
(1.86136e-17 6.45365e-06 0)
(1.00595e-17 6.45364e-06 0)
(4.95053e-18 6.45365e-06 0)
(2.21996e-18 6.45365e-06 0)
(9.13086e-19 6.45365e-06 0)
(3.61203e-19 6.45365e-06 0)
(1.90721e-19 6.45365e-06 0)
(2.70648e-19 6.45365e-06 0)
(6.90996e-19 6.45365e-06 0)
(1.82175e-18 6.45365e-06 0)
(4.45355e-18 6.45365e-06 0)
(9.95297e-18 6.45365e-06 0)
(2.02787e-17 6.45366e-06 0)
(3.76738e-17 6.45365e-06 0)
(6.39941e-17 6.45366e-06 0)
(3.76736e-17 6.45365e-06 0)
(2.02785e-17 6.45366e-06 0)
(9.95269e-18 6.45365e-06 0)
(4.45273e-18 6.45367e-06 0)
(1.81876e-18 6.45365e-06 0)
(6.80134e-19 6.45367e-06 0)
(2.33661e-19 6.45365e-06 0)
(7.40287e-20 6.45368e-06 0)
(2.17128e-20 6.45356e-06 0)
(5.91806e-21 6.45386e-06 0)
(1.50442e-21 6.45387e-06 0)
(3.57931e-22 6.45459e-06 0)
(7.99534e-23 6.43387e-06 0)
(1.68232e-23 6.52427e-06 0)
(3.34046e-24 6.43979e-06 0)
(6.29247e-25 6.16652e-06 0)
(1.12002e-25 4.46057e-06 0)
(1.91775e-26 1.89441e-05 0)
(3.28937e-27 2.3023e-05 0)
(3.73985e-28 -0.000231447 0)
(3.1748e-28 -6.12158e-05 0)
(2.48536e-28 6.53672e-05 0)
(1.87596e-28 7.10615e-06 0)
(1.41569e-28 -4.27967e-06 0)
(1.06677e-28 -1.00377e-06 0)
(8.01077e-29 3.35821e-07 0)
(5.9882e-29 8.17798e-08 0)
(4.44724e-29 -2.17569e-08 0)
(3.26957e-29 -7.4955e-09 0)
(2.36311e-29 1.63054e-09 0)
(1.65557e-29 8.5898e-10 0)
(1.08926e-29 1.18376e-10 0)
(6.16896e-30 1.49059e-10 0)
(1.98182e-30 1.53666e-10 0)
)
;

boundaryField
{
    inlet
    {
        type            cyclic;
    }
    outlet
    {
        type            cyclic;
    }
    top
    {
        type            fixedValue;
        value           uniform (0 0 0);
    }
    bottom
    {
        type            fixedValue;
        value           uniform (0 0 0);
    }
    frontAndBackPlanes
    {
        type            empty;
    }
}


// ************************************************************************* //
