/*--------------------------------*- C++ -*----------------------------------*\
| =========                 |                                                 |
| \\      /  F ield         | OpenFOAM: The Open Source CFD Toolbox           |
|  \\    /   O peration     | Version:  2206                                  |
|   \\  /    A nd           | Website:  www.openfoam.com                      |
|    \\/     M anipulation  |                                                 |
\*---------------------------------------------------------------------------*/
FoamFile
{
    version     2.0;
    format      ascii;
    arch        "LSB;label=32;scalar=64";
    class       volScalarField;
    location    "160";
    object      p_rbgh;
}
// * * * * * * * * * * * * * * * * * * * * * * * * * * * * * * * * * * * * * //

dimensions      [1 -1 -2 0 0 0 0];

internalField   nonuniform List<scalar> 
120
(
23.5211
23.5182
23.5118
23.5019
23.4883
23.4702
23.447
23.4177
23.3816
23.3397
23.29
23.1502
22.9375
22.6854
22.4379
22.192
21.9465
21.7012
21.4559
21.2106
20.9654
20.7201
20.4749
20.2296
19.9844
19.7391
19.4939
19.2486
19.0034
18.7581
18.5129
18.2676
18.0224
17.7771
17.5319
17.2866
17.0414
16.7961
16.5509
16.3056
16.0604
15.8151
15.5699
15.3246
15.0794
14.8341
14.5889
14.3436
14.0984
13.8531
13.6079
13.3626
13.1174
12.8721
12.6269
12.3816
12.1364
11.8911
11.6459
11.4006
11.1554
10.9101
10.6649
10.4196
10.1744
9.92914
9.68389
9.43864
9.19339
8.94814
8.70289
8.45764
8.21239
7.96714
7.72189
7.47664
7.23139
6.98614
6.74089
6.49564
6.25039
6.00514
5.75989
5.51464
5.26939
5.02414
4.77889
4.53364
4.28839
4.04314
3.79789
3.55264
3.30739
3.06214
2.81689
2.57164
2.32639
2.08114
1.83589
1.59064
1.34536
1.10009
0.855341
0.611115
0.357588
0.0829071
0.0112728
-0.0033092
-0.00127466
2.57238e-05
7.84575e-05
4.91051e-06
-5.96886e-06
-1.12391e-06
4.04892e-07
1.65242e-07
-3.34773e-09
-1.21255e-08
-1.86661e-09
4.02957e-10
)
;

boundaryField
{
    inlet
    {
        type            cyclic;
    }
    outlet
    {
        type            cyclic;
    }
    top
    {
        type            fixedValue;
        value           uniform 0;
    }
    bottom
    {
        type            fixedFluxPressure;
        gradient        uniform 0;
        value           uniform 23.5211;
    }
    frontAndBackPlanes
    {
        type            empty;
    }
}


// ************************************************************************* //
