/*--------------------------------*- C++ -*----------------------------------*\
| =========                 |                                                 |
| \\      /  F ield         | OpenFOAM: The Open Source CFD Toolbox           |
|  \\    /   O peration     | Version:  2206                                  |
|   \\  /    A nd           | Website:  www.openfoam.com                      |
|    \\/     M anipulation  |                                                 |
\*---------------------------------------------------------------------------*/
FoamFile
{
    version     2.0;
    format      ascii;
    arch        "LSB;label=32;scalar=64";
    class       surfaceScalarField;
    location    "160";
    object      phi.b;
}
// * * * * * * * * * * * * * * * * * * * * * * * * * * * * * * * * * * * * * //

dimensions      [0 3 -1 0 0 0 0];

oriented        oriented;

internalField   nonuniform List<scalar> 
119
(
1.22628e-14
2.64556e-14
4.10925e-14
5.73079e-14
7.63675e-14
9.85761e-14
1.26563e-13
1.57419e-13
1.85434e-13
2.19215e-13
7.67327e-13
1.54616e-12
2.13538e-12
2.25425e-12
2.30012e-12
2.31566e-12
2.32086e-12
2.32256e-12
2.32309e-12
2.32324e-12
2.32329e-12
2.3233e-12
2.32331e-12
2.32331e-12
2.32331e-12
2.32331e-12
2.32331e-12
2.32331e-12
2.32331e-12
2.32331e-12
2.32331e-12
2.32331e-12
2.32331e-12
2.32331e-12
2.32331e-12
2.32331e-12
2.32331e-12
2.32331e-12
2.32331e-12
2.32331e-12
2.32331e-12
2.32331e-12
2.32331e-12
2.32331e-12
2.32331e-12
2.32331e-12
2.32331e-12
2.32331e-12
2.32331e-12
2.32331e-12
2.32331e-12
2.32331e-12
2.32331e-12
2.32331e-12
2.32331e-12
2.32331e-12
2.32331e-12
2.32331e-12
2.32331e-12
2.32331e-12
2.32331e-12
2.32331e-12
2.32331e-12
2.32331e-12
2.32331e-12
2.32331e-12
2.32331e-12
2.32331e-12
2.32331e-12
2.32331e-12
2.32331e-12
2.32331e-12
2.32331e-12
2.32331e-12
2.32331e-12
2.32331e-12
2.32331e-12
2.32331e-12
2.32331e-12
2.32331e-12
2.32331e-12
2.32331e-12
2.32331e-12
2.32331e-12
2.32331e-12
2.32331e-12
2.32331e-12
2.32331e-12
2.32331e-12
2.32331e-12
2.32331e-12
2.32331e-12
2.32331e-12
2.32331e-12
2.32331e-12
2.32331e-12
2.32331e-12
2.32332e-12
2.32336e-12
2.32319e-12
2.32253e-12
2.32368e-12
2.33352e-12
2.38598e-12
2.10844e-12
9.8815e-12
7.44412e-13
6.86865e-15
2.23867e-16
1.07658e-17
-2.29388e-19
-4.05792e-19
-3.98644e-19
7.20742e-19
3.58798e-19
7.64711e-19
-1.71993e-18
-5.83423e-19
7.74447e-20
)
;

boundaryField
{
    inlet
    {
        type            cyclic;
        value           nonuniform List<scalar> 
120
(
4.71432e-28
1.41985e-27
2.34433e-27
3.34579e-27
4.30812e-27
5.23796e-27
5.87417e-27
6.87427e-27
7.90836e-27
8.29705e-27
1.37595e-26
5.72184e-25
7.30885e-25
4.73498e-25
3.39752e-25
2.98587e-25
3.09395e-25
3.44615e-25
3.86549e-25
4.22004e-25
4.43761e-25
4.56806e-25
4.64503e-25
4.78582e-25
-1.31719e-25
-7.46775e-25
-1.39307e-24
-1.76272e-24
-2.17238e-24
-2.63254e-24
-2.5347e-24
-1.88069e-24
-1.28264e-24
-7.26848e-25
-2.13249e-25
2.72716e-25
1.20197e-25
-6.84526e-25
-8.90635e-25
-1.79038e-24
-1.47916e-24
-1.85967e-24
-1.65184e-24
-1.49294e-24
-1.35281e-24
-1.88258e-24
-1.20437e-24
-5.94286e-25
6.31719e-25
5.99988e-25
5.75989e-25
5.31412e-25
4.64966e-25
3.74605e-25
2.71313e-25
-4.74256e-25
-1.24186e-24
-2.05141e-24
-2.93728e-24
-2.65477e-24
-2.45968e-24
-2.32884e-24
-2.26664e-24
-2.27731e-24
-2.39238e-24
-1.33583e-24
-1.61054e-24
-1.93947e-24
-2.35218e-24
-2.8503e-24
-3.46332e-24
-2.94209e-24
-2.53835e-24
-2.22549e-24
-2.00557e-24
-1.88153e-24
-1.85692e-24
-1.93597e-24
-2.12345e-24
-2.42451e-24
-2.84443e-24
-3.38829e-24
-4.06064e-24
-4.86508e-24
-5.8044e-24
-6.93617e-24
-5.75865e-24
-4.76962e-24
-3.90748e-24
-3.16529e-24
-2.53521e-24
-2.00841e-24
-1.5756e-24
-1.22763e-24
-9.56072e-25
-7.52941e-25
-6.08857e-25
-4.77402e-25
-3.02376e-25
-1.49048e-25
-6.60154e-26
-2.58965e-26
-8.97181e-27
-2.76806e-27
-8.41783e-28
-2.04672e-28
-1.87563e-28
-1.54604e-28
-1.2686e-28
-1.04074e-28
-8.52613e-29
-6.96353e-29
-5.65632e-29
-4.55316e-29
-3.612e-29
-2.79794e-29
-2.08148e-29
-1.43717e-29
-8.4246e-30
-2.76733e-30
)
;
    }
    outlet
    {
        type            cyclic;
        value           nonuniform List<scalar> 
120
(
-4.71432e-28
-1.41985e-27
-2.34433e-27
-3.34579e-27
-4.30812e-27
-5.23796e-27
-5.87417e-27
-6.87427e-27
-7.90836e-27
-8.29705e-27
-1.37595e-26
-5.72184e-25
-7.30885e-25
-4.73498e-25
-3.39752e-25
-2.98587e-25
-3.09395e-25
-3.44615e-25
-3.86549e-25
-4.22004e-25
-4.43761e-25
-4.56806e-25
-4.64503e-25
-4.78582e-25
1.31719e-25
7.46775e-25
1.39307e-24
1.76272e-24
2.17238e-24
2.63254e-24
2.5347e-24
1.88069e-24
1.28264e-24
7.26848e-25
2.13249e-25
-2.72716e-25
-1.20197e-25
6.84526e-25
8.90635e-25
1.79038e-24
1.47916e-24
1.85967e-24
1.65184e-24
1.49294e-24
1.35281e-24
1.88258e-24
1.20437e-24
5.94286e-25
-6.31719e-25
-5.99988e-25
-5.75989e-25
-5.31412e-25
-4.64966e-25
-3.74605e-25
-2.71313e-25
4.74256e-25
1.24186e-24
2.05141e-24
2.93728e-24
2.65477e-24
2.45968e-24
2.32884e-24
2.26664e-24
2.27731e-24
2.39238e-24
1.33583e-24
1.61054e-24
1.93947e-24
2.35218e-24
2.8503e-24
3.46332e-24
2.94209e-24
2.53835e-24
2.22549e-24
2.00557e-24
1.88153e-24
1.85692e-24
1.93597e-24
2.12345e-24
2.42451e-24
2.84443e-24
3.38829e-24
4.06064e-24
4.86508e-24
5.8044e-24
6.93617e-24
5.75865e-24
4.76962e-24
3.90748e-24
3.16529e-24
2.53521e-24
2.00841e-24
1.5756e-24
1.22763e-24
9.56072e-25
7.52941e-25
6.08857e-25
4.77402e-25
3.02376e-25
1.49048e-25
6.60154e-26
2.58965e-26
8.97181e-27
2.76806e-27
8.41783e-28
2.04672e-28
1.87563e-28
1.54604e-28
1.2686e-28
1.04074e-28
8.52613e-29
6.96353e-29
5.65632e-29
4.55316e-29
3.612e-29
2.79794e-29
2.08148e-29
1.43717e-29
8.4246e-30
2.76733e-30
)
;
    }
    top
    {
        type            fixedValue;
        value           uniform 0;
    }
    bottom
    {
        type            fixedValue;
        value           uniform 0;
    }
    frontAndBackPlanes
    {
        type            empty;
        value           nonuniform List<scalar> 0();
    }
}


// ************************************************************************* //
