/*--------------------------------*- C++ -*----------------------------------*\
| =========                 |                                                 |
| \\      /  F ield         | OpenFOAM: The Open Source CFD Toolbox           |
|  \\    /   O peration     | Version:  2206                                  |
|   \\  /    A nd           | Website:  www.openfoam.com                      |
|    \\/     M anipulation  |                                                 |
\*---------------------------------------------------------------------------*/
FoamFile
{
    version     2.0;
    format      ascii;
    arch        "LSB;label=32;scalar=64";
    class       surfaceScalarField;
    location    "160";
    object      phi.a;
}
// * * * * * * * * * * * * * * * * * * * * * * * * * * * * * * * * * * * * * //

dimensions      [0 3 -1 0 0 0 0];

oriented        oriented;

internalField   nonuniform List<scalar> 
119
(
-8.49614e-15
-1.83621e-14
-2.85781e-14
-3.99578e-14
-5.33933e-14
-6.91804e-14
-8.92193e-14
-1.11586e-13
-1.32104e-13
-1.56954e-13
-5.97945e-13
-1.36963e-12
-2.02871e-12
-2.21128e-12
-2.28457e-12
-2.31049e-12
-2.31921e-12
-2.32206e-12
-2.32294e-12
-2.3232e-12
-2.32328e-12
-2.3233e-12
-2.32331e-12
-2.32331e-12
-2.32331e-12
-2.32331e-12
-2.32331e-12
-2.32331e-12
-2.32331e-12
-2.32331e-12
-2.32331e-12
-2.32331e-12
-2.32331e-12
-2.32331e-12
-2.32331e-12
-2.32331e-12
-2.32331e-12
-2.32331e-12
-2.32331e-12
-2.32331e-12
-2.32331e-12
-2.32331e-12
-2.32331e-12
-2.32331e-12
-2.32331e-12
-2.32331e-12
-2.32331e-12
-2.32331e-12
-2.32331e-12
-2.32331e-12
-2.32331e-12
-2.32331e-12
-2.32331e-12
-2.32331e-12
-2.32331e-12
-2.32331e-12
-2.32331e-12
-2.32331e-12
-2.32331e-12
-2.32331e-12
-2.32331e-12
-2.32331e-12
-2.32331e-12
-2.32331e-12
-2.32331e-12
-2.32331e-12
-2.32331e-12
-2.32331e-12
-2.32331e-12
-2.32331e-12
-2.32331e-12
-2.32331e-12
-2.32331e-12
-2.32331e-12
-2.32331e-12
-2.32331e-12
-2.32331e-12
-2.32331e-12
-2.32331e-12
-2.32331e-12
-2.32331e-12
-2.32331e-12
-2.32331e-12
-2.32331e-12
-2.32331e-12
-2.32331e-12
-2.32331e-12
-2.32331e-12
-2.32331e-12
-2.32331e-12
-2.32331e-12
-2.32331e-12
-2.32331e-12
-2.32331e-12
-2.32331e-12
-2.32331e-12
-2.32331e-12
-2.32331e-12
-2.32341e-12
-2.3233e-12
-2.32203e-12
-2.31975e-12
-2.33432e-12
-2.52043e-12
-2.14468e-12
-2.69455e-11
-7.83054e-11
-7.46039e-11
-6.73562e-11
-7.6346e-11
-8.2159e-11
-8.2245e-11
-8.22959e-11
-8.23498e-11
-8.238e-11
-8.23856e-11
-8.23856e-11
-8.23805e-11
-8.19864e-11
)
;

boundaryField
{
    inlet
    {
        type            cyclic;
        value           nonuniform List<scalar> 
120
(
4.71435e-28
1.42001e-27
2.37855e-27
3.34596e-27
4.30813e-27
5.23906e-27
6.10371e-27
6.8736e-27
7.56017e-27
8.27315e-27
1.05097e-26
5.5979e-25
7.30895e-25
4.73492e-25
3.39746e-25
2.98584e-25
3.09402e-25
3.44649e-25
3.86649e-25
4.22184e-25
4.43869e-25
4.56834e-25
4.6437e-25
4.61978e-25
-1.31855e-25
-7.46709e-25
-1.38477e-24
-1.76265e-24
-2.17225e-24
-2.6158e-24
-2.51797e-24
-1.88056e-24
-1.28264e-24
-7.2685e-25
-2.1339e-25
2.55976e-25
1.03593e-25
-6.68193e-25
-9.06836e-25
-1.75744e-24
-1.49536e-24
-1.8432e-24
-1.65171e-24
-1.49307e-24
-1.36914e-24
-1.84951e-24
-1.20397e-24
-5.77951e-25
5.98645e-25
5.99717e-25
5.75986e-25
5.31411e-25
4.64965e-25
3.74469e-25
2.54708e-25
-4.74393e-25
-1.24186e-24
-2.05114e-24
-2.90407e-24
-2.65451e-24
-2.45968e-24
-2.32884e-24
-2.26664e-24
-2.27704e-24
-2.35944e-24
-1.36877e-24
-1.61081e-24
-1.93948e-24
-2.35218e-24
-2.85003e-24
-3.43012e-24
-2.94182e-24
-2.53835e-24
-2.22549e-24
-2.00558e-24
-1.88153e-24
-1.85692e-24
-1.93598e-24
-2.12345e-24
-2.42451e-24
-2.84443e-24
-3.38829e-24
-4.06064e-24
-4.86508e-24
-5.80386e-24
-6.86976e-24
-5.75811e-24
-4.76962e-24
-3.90748e-24
-3.16529e-24
-2.53521e-24
-2.00841e-24
-1.57561e-24
-1.22763e-24
-9.56083e-25
-7.52991e-25
-6.09354e-25
-4.78817e-25
-3.03274e-25
-1.49132e-25
-6.60347e-26
-2.58962e-26
-8.97214e-27
-2.76788e-27
-8.41734e-28
-2.04649e-28
-1.87586e-28
-1.53574e-28
-1.08894e-28
-5.35801e-29
-7.60031e-30
-6.46068e-30
-5.00478e-30
-2.57592e-30
-7.50639e-31
-3.38302e-31
-3.28633e-31
-3.26923e-31
-3.28004e-31
-3.72585e-31
)
;
    }
    outlet
    {
        type            cyclic;
        value           nonuniform List<scalar> 
120
(
-4.71435e-28
-1.42001e-27
-2.37855e-27
-3.34596e-27
-4.30813e-27
-5.23906e-27
-6.10371e-27
-6.8736e-27
-7.56017e-27
-8.27315e-27
-1.05097e-26
-5.5979e-25
-7.30895e-25
-4.73492e-25
-3.39746e-25
-2.98584e-25
-3.09402e-25
-3.44649e-25
-3.86649e-25
-4.22184e-25
-4.43869e-25
-4.56834e-25
-4.6437e-25
-4.61978e-25
1.31855e-25
7.46709e-25
1.38477e-24
1.76265e-24
2.17225e-24
2.6158e-24
2.51797e-24
1.88056e-24
1.28264e-24
7.2685e-25
2.1339e-25
-2.55976e-25
-1.03593e-25
6.68193e-25
9.06836e-25
1.75744e-24
1.49536e-24
1.8432e-24
1.65171e-24
1.49307e-24
1.36914e-24
1.84951e-24
1.20397e-24
5.77951e-25
-5.98645e-25
-5.99717e-25
-5.75986e-25
-5.31411e-25
-4.64965e-25
-3.74469e-25
-2.54708e-25
4.74393e-25
1.24186e-24
2.05114e-24
2.90407e-24
2.65451e-24
2.45968e-24
2.32884e-24
2.26664e-24
2.27704e-24
2.35944e-24
1.36877e-24
1.61081e-24
1.93948e-24
2.35218e-24
2.85003e-24
3.43012e-24
2.94182e-24
2.53835e-24
2.22549e-24
2.00558e-24
1.88153e-24
1.85692e-24
1.93598e-24
2.12345e-24
2.42451e-24
2.84443e-24
3.38829e-24
4.06064e-24
4.86508e-24
5.80386e-24
6.86976e-24
5.75811e-24
4.76962e-24
3.90748e-24
3.16529e-24
2.53521e-24
2.00841e-24
1.57561e-24
1.22763e-24
9.56083e-25
7.52991e-25
6.09354e-25
4.78817e-25
3.03274e-25
1.49132e-25
6.60347e-26
2.58962e-26
8.97214e-27
2.76788e-27
8.41734e-28
2.04649e-28
1.87586e-28
1.53574e-28
1.08894e-28
5.35801e-29
7.60031e-30
6.46068e-30
5.00478e-30
2.57592e-30
7.50639e-31
3.38302e-31
3.28633e-31
3.26923e-31
3.28004e-31
3.72585e-31
)
;
    }
    top
    {
        type            fixedValue;
        value           uniform 0;
    }
    bottom
    {
        type            fixedValue;
        value           uniform 0;
    }
    frontAndBackPlanes
    {
        type            empty;
        value           nonuniform List<scalar> 0();
    }
}


// ************************************************************************* //
