/*--------------------------------*- C++ -*----------------------------------*\
| =========                 |                                                 |
| \\      /  F ield         | OpenFOAM: The Open Source CFD Toolbox           |
|  \\    /   O peration     | Version:  2206                                  |
|   \\  /    A nd           | Website:  www.openfoam.com                      |
|    \\/     M anipulation  |                                                 |
\*---------------------------------------------------------------------------*/
FoamFile
{
    version     2.0;
    format      ascii;
    arch        "LSB;label=32;scalar=64";
    class       volVectorField;
    location    "160";
    object      U.a;
}
// * * * * * * * * * * * * * * * * * * * * * * * * * * * * * * * * * * * * * //

dimensions      [0 1 -1 0 0 0 0];

internalField   nonuniform List<vector> 
120
(
(-1.57145e-21 2.83232e-09 0)
(-4.73337e-21 -3.42334e-08 0)
(-7.92849e-21 -6.77725e-08 0)
(-1.11532e-20 -9.09715e-08 0)
(-1.43604e-20 -1.30972e-07 0)
(-1.74635e-20 -1.65614e-07 0)
(-2.03457e-20 -2.18639e-07 0)
(-2.2912e-20 -2.77001e-07 0)
(-2.52006e-20 -3.42982e-07 0)
(-2.75772e-20 -3.90684e-07 0)
(-3.50324e-20 -4.33052e-07 0)
(-1.86597e-18 -9.9708e-06 0)
(-2.43632e-18 -1.053e-05 0)
(-1.57831e-18 -3.71709e-06 0)
(-1.13249e-18 -5.61388e-06 0)
(-9.9528e-19 -6.22883e-06 0)
(-1.03134e-18 -6.37924e-06 0)
(-1.14883e-18 -6.42923e-06 0)
(-1.28883e-18 -6.44689e-06 0)
(-1.40728e-18 -6.45212e-06 0)
(-1.47956e-18 -6.45331e-06 0)
(-1.52278e-18 -6.45357e-06 0)
(-1.5479e-18 -6.45363e-06 0)
(-1.53993e-18 -6.45364e-06 0)
(4.39518e-19 -6.45364e-06 0)
(2.48903e-18 -6.45364e-06 0)
(4.61589e-18 -6.45364e-06 0)
(5.8755e-18 -6.45364e-06 0)
(7.24082e-18 -6.45364e-06 0)
(8.71934e-18 -6.45365e-06 0)
(8.39322e-18 -6.45364e-06 0)
(6.26852e-18 -6.45364e-06 0)
(4.27548e-18 -6.45364e-06 0)
(2.42283e-18 -6.45364e-06 0)
(7.11299e-19 -6.45364e-06 0)
(-8.53252e-19 -6.45364e-06 0)
(-3.4531e-19 -6.45364e-06 0)
(2.22731e-18 -6.45364e-06 0)
(3.02279e-18 -6.45364e-06 0)
(5.85813e-18 -6.45364e-06 0)
(4.98453e-18 -6.45364e-06 0)
(6.14401e-18 -6.45364e-06 0)
(5.5057e-18 -6.45364e-06 0)
(4.97691e-18 -6.45364e-06 0)
(4.56382e-18 -6.45364e-06 0)
(6.16503e-18 -6.45364e-06 0)
(4.01324e-18 -6.45364e-06 0)
(1.9265e-18 -6.45364e-06 0)
(-1.99548e-18 -6.45364e-06 0)
(-1.99906e-18 -6.45364e-06 0)
(-1.91995e-18 -6.45364e-06 0)
(-1.77137e-18 -6.45364e-06 0)
(-1.54988e-18 -6.45364e-06 0)
(-1.24823e-18 -6.45364e-06 0)
(-8.49026e-19 -6.45364e-06 0)
(1.58131e-18 -6.45364e-06 0)
(4.13955e-18 -6.45364e-06 0)
(6.83714e-18 -6.45364e-06 0)
(9.68025e-18 -6.45364e-06 0)
(8.84835e-18 -6.45364e-06 0)
(8.19892e-18 -6.45364e-06 0)
(7.7628e-18 -6.45364e-06 0)
(7.55546e-18 -6.45364e-06 0)
(7.59013e-18 -6.45364e-06 0)
(7.8648e-18 -6.45364e-06 0)
(4.56256e-18 -6.45364e-06 0)
(5.36937e-18 -6.45364e-06 0)
(6.46492e-18 -6.45364e-06 0)
(7.84061e-18 -6.45364e-06 0)
(9.5001e-18 -6.45364e-06 0)
(1.14337e-17 -6.45364e-06 0)
(9.80606e-18 -6.45364e-06 0)
(8.46116e-18 -6.45364e-06 0)
(7.41829e-18 -6.45364e-06 0)
(6.68526e-18 -6.45364e-06 0)
(6.27177e-18 -6.45364e-06 0)
(6.18975e-18 -6.45364e-06 0)
(6.45325e-18 -6.45364e-06 0)
(7.07818e-18 -6.45364e-06 0)
(8.08171e-18 -6.45364e-06 0)
(9.48143e-18 -6.45364e-06 0)
(1.12943e-17 -6.45364e-06 0)
(1.35355e-17 -6.45364e-06 0)
(1.62169e-17 -6.45364e-06 0)
(1.93462e-17 -6.45364e-06 0)
(2.28992e-17 -6.45364e-06 0)
(1.91937e-17 -6.45364e-06 0)
(1.58987e-17 -6.45365e-06 0)
(1.30249e-17 -6.45365e-06 0)
(1.0551e-17 -6.45364e-06 0)
(8.45071e-18 -6.45364e-06 0)
(6.69471e-18 -6.45364e-06 0)
(5.25202e-18 -6.45364e-06 0)
(4.09209e-18 -6.45364e-06 0)
(3.18694e-18 -6.45364e-06 0)
(2.50997e-18 -6.45365e-06 0)
(2.03118e-18 -6.45373e-06 0)
(1.59606e-18 -6.45391e-06 0)
(1.01091e-18 -6.45075e-06 0)
(4.97108e-19 -6.42467e-06 0)
(2.20116e-19 -6.51683e-06 0)
(8.63206e-20 -7.08604e-06 0)
(2.99071e-20 -6.09855e-06 0)
(9.22628e-21 7.63346e-06 0)
(2.80578e-21 7.11054e-06 0)
(6.82163e-22 -0.000342042 0)
(6.25288e-22 -0.000198325 0)
(5.11913e-22 -0.000180883 0)
(3.6298e-22 -0.000176868 0)
(1.786e-22 -0.000196369 0)
(2.53344e-23 -0.000228043 0)
(2.15356e-23 -0.000228398 0)
(1.66826e-23 -0.000228519 0)
(8.58641e-24 -0.000228681 0)
(2.50213e-24 -0.000228818 0)
(1.12767e-24 -0.000228848 0)
(1.09544e-24 -0.000228849 0)
(1.08974e-24 -0.000228849 0)
(1.09335e-24 -0.000228821 0)
(1.24195e-24 -0.000226659 0)
)
;

boundaryField
{
    inlet
    {
        type            cyclic;
    }
    outlet
    {
        type            cyclic;
    }
    top
    {
        type            fixedValue;
        value           uniform (0 0 0);
    }
    bottom
    {
        type            fixedValue;
        value           uniform (0 0 0);
    }
    frontAndBackPlanes
    {
        type            empty;
    }
}


// ************************************************************************* //
