/*--------------------------------*- C++ -*----------------------------------*\
| =========                 |                                                 |
| \\      /  F ield         | OpenFOAM: The Open Source CFD Toolbox           |
|  \\    /   O peration     | Version:  2206                                  |
|   \\  /    A nd           | Website:  www.openfoam.com                      |
|    \\/     M anipulation  |                                                 |
\*---------------------------------------------------------------------------*/
FoamFile
{
    version     2.0;
    format      ascii;
    arch        "LSB;label=32;scalar=64";
    class       volVectorField;
    location    "160";
    object      U.b;
}
// * * * * * * * * * * * * * * * * * * * * * * * * * * * * * * * * * * * * * //

dimensions      [0 1 -1 0 0 0 0];

internalField   nonuniform List<vector> 
120
(
(-1.57144e-21 3.12881e-08 0)
(-4.73283e-21 5.69095e-08 0)
(-7.81444e-21 9.08034e-08 0)
(-1.11526e-20 1.40972e-07 0)
(-1.43604e-20 1.83641e-07 0)
(-1.74599e-20 2.47296e-07 0)
(-1.95806e-20 3.12953e-07 0)
(-2.29142e-20 3.95373e-07 0)
(-2.63612e-20 4.71763e-07 0)
(-2.76568e-20 5.79382e-07 0)
(-4.5865e-20 1.55713e-06 0)
(-1.90728e-18 -4.29063e-06 0)
(-2.43628e-18 1.49601e-06 0)
(-1.57833e-18 8.39444e-06 0)
(-1.13251e-18 7.0118e-06 0)
(-9.9529e-19 6.5868e-06 0)
(-1.03132e-18 6.49854e-06 0)
(-1.14872e-18 6.46891e-06 0)
(-1.2885e-18 6.45773e-06 0)
(-1.40668e-18 6.45443e-06 0)
(-1.4792e-18 6.45375e-06 0)
(-1.52269e-18 6.45365e-06 0)
(-1.54834e-18 6.45364e-06 0)
(-1.59527e-18 6.45365e-06 0)
(4.39063e-19 6.45365e-06 0)
(2.48925e-18 6.45364e-06 0)
(4.64356e-18 6.45364e-06 0)
(5.87572e-18 6.45364e-06 0)
(7.24127e-18 6.45364e-06 0)
(8.77514e-18 6.45364e-06 0)
(8.44902e-18 6.45364e-06 0)
(6.26897e-18 6.45364e-06 0)
(4.27548e-18 6.45364e-06 0)
(2.42283e-18 6.45364e-06 0)
(7.1083e-19 6.45364e-06 0)
(-9.09053e-19 6.45365e-06 0)
(-4.00657e-19 6.45364e-06 0)
(2.28175e-18 6.45364e-06 0)
(2.96878e-18 6.45364e-06 0)
(5.96793e-18 6.45365e-06 0)
(4.93053e-18 6.45364e-06 0)
(6.19891e-18 6.45364e-06 0)
(5.50614e-18 6.45364e-06 0)
(4.97646e-18 6.45364e-06 0)
(4.50937e-18 6.45365e-06 0)
(6.27528e-18 6.45364e-06 0)
(4.01458e-18 6.45365e-06 0)
(1.98095e-18 6.45364e-06 0)
(-2.10573e-18 6.45364e-06 0)
(-1.99996e-18 6.45364e-06 0)
(-1.91996e-18 6.45364e-06 0)
(-1.77137e-18 6.45364e-06 0)
(-1.54989e-18 6.45364e-06 0)
(-1.24868e-18 6.45364e-06 0)
(-9.04378e-19 6.45364e-06 0)
(1.58085e-18 6.45364e-06 0)
(4.13954e-18 6.45365e-06 0)
(6.83804e-18 6.45364e-06 0)
(9.79094e-18 6.45364e-06 0)
(8.84924e-18 6.45364e-06 0)
(8.19892e-18 6.45364e-06 0)
(7.76279e-18 6.45364e-06 0)
(7.55546e-18 6.45364e-06 0)
(7.59102e-18 6.45365e-06 0)
(7.97459e-18 6.45364e-06 0)
(4.45276e-18 6.45364e-06 0)
(5.36846e-18 6.45364e-06 0)
(6.4649e-18 6.45364e-06 0)
(7.84061e-18 6.45364e-06 0)
(9.50099e-18 6.45364e-06 0)
(1.15444e-17 6.45364e-06 0)
(9.80696e-18 6.45364e-06 0)
(8.46116e-18 6.45364e-06 0)
(7.41828e-18 6.45364e-06 0)
(6.68525e-18 6.45364e-06 0)
(6.27176e-18 6.45364e-06 0)
(6.18974e-18 6.45364e-06 0)
(6.45324e-18 6.45364e-06 0)
(7.07817e-18 6.45364e-06 0)
(8.0817e-18 6.45364e-06 0)
(9.48142e-18 6.45364e-06 0)
(1.12943e-17 6.45364e-06 0)
(1.35355e-17 6.45364e-06 0)
(1.62169e-17 6.45364e-06 0)
(1.9348e-17 6.45364e-06 0)
(2.31206e-17 6.45364e-06 0)
(1.91955e-17 6.45364e-06 0)
(1.58987e-17 6.45364e-06 0)
(1.30249e-17 6.45364e-06 0)
(1.0551e-17 6.45364e-06 0)
(8.4507e-18 6.45364e-06 0)
(6.6947e-18 6.45364e-06 0)
(5.25201e-18 6.45364e-06 0)
(4.09209e-18 6.45364e-06 0)
(3.18691e-18 6.45365e-06 0)
(2.5098e-18 6.45364e-06 0)
(2.02952e-18 6.45355e-06 0)
(1.59134e-18 6.45336e-06 0)
(1.00792e-18 6.45653e-06 0)
(4.96828e-19 6.48288e-06 0)
(2.20051e-19 6.39023e-06 0)
(8.63216e-20 5.82322e-06 0)
(2.9906e-20 6.7887e-06 0)
(9.22685e-21 2.04274e-05 0)
(2.80594e-21 2.11799e-05 0)
(6.82239e-22 -0.000327237 0)
(6.25211e-22 -1.16708e-06 0)
(5.15345e-22 5.70831e-05 0)
(4.22866e-22 5.14445e-06 0)
(3.46912e-22 -3.27872e-06 0)
(2.84204e-22 -7.86498e-07 0)
(2.32118e-22 1.01494e-07 0)
(1.88544e-22 6.86889e-08 0)
(1.51772e-22 3.37096e-10 0)
(1.204e-22 -5.94397e-09 0)
(9.32646e-23 -7.22911e-10 0)
(6.93827e-23 3.98017e-10 0)
(4.79058e-23 1.09896e-10 0)
(2.8082e-23 -1.34823e-11 0)
(9.22442e-24 -6.73145e-12 0)
)
;

boundaryField
{
    inlet
    {
        type            cyclic;
    }
    outlet
    {
        type            cyclic;
    }
    top
    {
        type            fixedValue;
        value           uniform (0 0 0);
    }
    bottom
    {
        type            fixedValue;
        value           uniform (0 0 0);
    }
    frontAndBackPlanes
    {
        type            empty;
    }
}


// ************************************************************************* //
