/*--------------------------------*- C++ -*----------------------------------*\
| =========                 |                                                 |
| \\      /  F ield         | OpenFOAM: The Open Source CFD Toolbox           |
|  \\    /   O peration     | Version:  2206                                  |
|   \\  /    A nd           | Website:  www.openfoam.com                      |
|    \\/     M anipulation  |                                                 |
\*---------------------------------------------------------------------------*/
FoamFile
{
    version     2.0;
    format      ascii;
    arch        "LSB;label=32;scalar=64";
    class       volScalarField;
    location    "12";
    object      p_rbgh;
}
// * * * * * * * * * * * * * * * * * * * * * * * * * * * * * * * * * * * * * //

dimensions      [1 -1 -2 0 0 0 0];

internalField   nonuniform List<scalar> 
120
(
10.0965
10.0965
10.0965
10.0965
10.0965
10.0965
10.0965
10.0965
10.0965
10.0965
10.0965
10.0965
10.0965
10.0965
10.0965
10.0966
10.0966
10.0966
10.0966
10.0966
10.0966
10.0967
10.0967
10.0967
10.0968
10.0968
10.0968
10.0969
10.097
10.0971
10.0972
10.0973
10.0972
10.0978
10.0985
10.101
10.1026
10.1015
10.1016
10.1031
10.1046
10.1046
10.0988
10.0756
10.0122
9.88188
9.66925
9.37737
9.02261
8.62345
8.19212
7.73115
7.23396
6.68812
6.08045
5.40394
4.66542
3.89086
3.12368
2.4134
1.79976
1.30202
0.918929
0.635919
0.433171
0.291196
0.193469
0.127095
0.0825125
0.052825
0.0334162
0.0204628
0.0126605
0.00705927
0.00447462
0.00206567
0.00151515
0.000672349
7.83781e-05
0.00290894
-0.00262078
0.000545771
-4.91633e-05
3.80257e-05
1.96377e-05
2.05093e-05
1.787e-05
1.57607e-05
1.33945e-05
1.06199e-05
8.26164e-06
6.39982e-06
4.5235e-06
2.40731e-06
1.95412e-07
-1.66569e-06
-3.39167e-06
-4.46139e-06
-5.7065e-06
-6.81788e-06
-7.88972e-06
-8.83835e-06
-9.44033e-06
-9.89587e-06
-1.01012e-05
-1.03606e-05
-1.03404e-05
-1.02054e-05
-9.94855e-06
-9.55162e-06
-9.0859e-06
-8.45935e-06
-7.77271e-06
-6.90072e-06
-5.98383e-06
-4.90573e-06
-3.81072e-06
-2.73155e-06
-1.63887e-06
-5.30547e-07
)
;

boundaryField
{
    inlet
    {
        type            cyclic;
    }
    outlet
    {
        type            cyclic;
    }
    top
    {
        type            fixedValue;
        value           uniform 0;
    }
    bottom
    {
        type            fixedFluxPressure;
        gradient        uniform 0;
        value           uniform 10.0965;
    }
    frontAndBackPlanes
    {
        type            empty;
    }
}


// ************************************************************************* //
