/*--------------------------------*- C++ -*----------------------------------*\
| =========                 |                                                 |
| \\      /  F ield         | OpenFOAM: The Open Source CFD Toolbox           |
|  \\    /   O peration     | Version:  2206                                  |
|   \\  /    A nd           | Website:  www.openfoam.com                      |
|    \\/     M anipulation  |                                                 |
\*---------------------------------------------------------------------------*/
FoamFile
{
    version     2.0;
    format      ascii;
    arch        "LSB;label=32;scalar=64";
    class       volScalarField;
    location    "12";
    object      pa;
}
// * * * * * * * * * * * * * * * * * * * * * * * * * * * * * * * * * * * * * //

dimensions      [1 -1 -2 0 0 0 0];

internalField   nonuniform List<scalar> 
120
(
4.59334e-05
0.000206604
0.000679161
0.00174269
0.00381837
0.00749218
0.0135857
0.0232195
0.0379232
0.0597677
0.0915493
0.137031
0.201264
0.291013
0.41532
0.586253
0.819888
1.13761
1.56784
2.14824
2.92865
3.97484
5.37362
7.24025
9.72832
13.0396
17.4319
23.2116
30.6408
40.1039
52.7155
68.7655
88.3252
110.351
132.567
149.79
155.763
149.704
137.426
124.609
112.416
100.886
90.0384
79.9382
70.6354
62.1426
54.4305
47.4328
41.0637
35.2389
29.892
24.9812
20.4915
16.4319
12.8287
9.71549
7.11943
5.04534
3.46469
2.31542
1.51434
0.974804
0.620605
0.392189
0.246643
0.154666
0.0969202
0.0609008
0.0386104
0.02494
0.0167607
0.0117119
0.00904622
0.00688993
0.0063323
0.00469484
0.00528363
0.00319216
0.00559572
0.00129895
1.41215e-15
3.42711e-39
1.59865e-50
1.12109e-61
8.54071e-73
6.66989e-84
4.48398e-95
3.2021e-106
2.35589e-117
1.54651e-128
1.13241e-139
8.30156e-151
6.1664e-162
4.64676e-173
3.37085e-184
2.38327e-195
1.66361e-206
1.1346e-217
8.82978e-229
6.81726e-240
5.69975e-251
5.06946e-262
4.73192e-273
4.62474e-284
4.93091e-295
5.17673e-306
5.66553e-317
0
0
0
0
0
0
0
0
0
0
0
0
0
)
;

boundaryField
{
    inlet
    {
        type            cyclic;
    }
    outlet
    {
        type            cyclic;
    }
    top
    {
        type            slip;
    }
    bottom
    {
        type            zeroGradient;
    }
    frontAndBackPlanes
    {
        type            empty;
    }
}


// ************************************************************************* //
