/*--------------------------------*- C++ -*----------------------------------*\
| =========                 |                                                 |
| \\      /  F ield         | OpenFOAM: The Open Source CFD Toolbox           |
|  \\    /   O peration     | Version:  2206                                  |
|   \\  /    A nd           | Website:  www.openfoam.com                      |
|    \\/     M anipulation  |                                                 |
\*---------------------------------------------------------------------------*/
FoamFile
{
    version     2.0;
    format      ascii;
    arch        "LSB;label=32;scalar=64";
    class       surfaceScalarField;
    location    "12";
    object      phi.a;
}
// * * * * * * * * * * * * * * * * * * * * * * * * * * * * * * * * * * * * * //

dimensions      [0 3 -1 0 0 0 0];

oriented        oriented;

internalField   nonuniform List<scalar> 
119
(
1.07038e-14
2.78014e-14
3.98266e-14
5.64799e-14
7.06163e-14
8.79437e-14
1.05012e-13
1.23442e-13
1.42986e-13
1.6386e-13
1.86221e-13
2.10277e-13
2.3627e-13
2.64483e-13
2.95297e-13
3.29275e-13
3.67241e-13
4.10296e-13
4.59741e-13
5.16836e-13
5.82393e-13
6.56752e-13
7.41656e-13
8.44387e-13
9.79945e-13
1.16612e-12
1.44758e-12
1.97613e-12
3.04332e-12
3.50278e-12
4.07847e-12
4.91029e-12
6.27681e-12
8.31388e-12
1.16718e-11
1.78241e-11
2.86678e-11
4.58884e-11
7.0431e-11
1.03174e-10
1.45142e-10
1.96799e-10
2.57532e-10
3.25613e-10
3.98358e-10
4.72365e-10
5.43952e-10
6.09733e-10
6.67144e-10
7.14748e-10
7.52257e-10
7.8033e-10
8.0026e-10
8.13656e-10
8.22152e-10
8.2718e-10
8.2983e-10
8.30845e-10
8.30793e-10
8.30279e-10
8.29978e-10
8.30491e-10
8.32283e-10
8.35842e-10
8.41976e-10
8.5212e-10
8.68424e-10
8.93268e-10
9.29988e-10
9.62588e-10
1.02983e-09
9.70142e-10
1.01106e-09
7.63304e-10
3.92672e-10
-6.76732e-11
-8.11801e-10
-2.45605e-09
-1.23093e-10
-6.26696e-07
-1.55698e-06
-1.7752e-06
-1.77654e-06
-1.77833e-06
-1.77977e-06
-1.78134e-06
-1.78258e-06
-1.78395e-06
-1.78502e-06
-1.7862e-06
-1.78713e-06
-1.78815e-06
-1.78894e-06
-1.78982e-06
-1.7905e-06
-1.79125e-06
-1.79182e-06
-1.79247e-06
-1.79295e-06
-1.79349e-06
-1.79389e-06
-1.79435e-06
-1.79467e-06
-1.79505e-06
-1.79531e-06
-1.79562e-06
-1.79582e-06
-1.79607e-06
-1.79622e-06
-1.79641e-06
-1.79652e-06
-1.79667e-06
-1.79672e-06
-1.79685e-06
-1.79685e-06
-1.79694e-06
-1.79693e-06
-1.79698e-06
-1.79697e-06
)
;

boundaryField
{
    inlet
    {
        type            cyclic;
        value           nonuniform List<scalar> 
120
(
-1.02507e-12
-3.05089e-12
-5.05228e-12
-7.02925e-12
-8.98181e-12
-1.091e-11
-1.28137e-11
-1.46931e-11
-1.6548e-11
-1.83786e-11
-2.01848e-11
-2.19666e-11
-2.3724e-11
-2.54571e-11
-2.71658e-11
-2.88501e-11
-3.05101e-11
-3.21458e-11
-3.37571e-11
-3.53441e-11
-3.69068e-11
-3.84452e-11
-3.99592e-11
-4.14489e-11
-4.29144e-11
-4.43555e-11
-4.57724e-11
-4.7568e-11
-5.16237e-11
-7.15804e-11
-2.86373e-10
-1.93674e-09
-7.48869e-09
-1.7715e-08
-3.17471e-08
-4.91633e-08
-7.03488e-08
-9.62002e-08
-1.28368e-07
-1.69407e-07
-2.22516e-07
-2.91594e-07
-3.8124e-07
-4.96217e-07
-6.4019e-07
-8.1412e-07
-1.01534e-06
-1.23803e-06
-1.47466e-06
-1.71763e-06
-1.96031e-06
-2.19752e-06
-2.42554e-06
-2.64191e-06
-2.8451e-06
-3.03437e-06
-3.20956e-06
-3.37105e-06
-3.5198e-06
-3.65729e-06
-3.7853e-06
-3.90562e-06
-4.01979e-06
-4.12895e-06
-4.23386e-06
-4.33498e-06
-4.43257e-06
-4.52675e-06
-4.61758e-06
-4.70509e-06
-4.78911e-06
-4.87022e-06
-4.9482e-06
-5.02658e-06
-5.10541e-06
-5.19516e-06
-5.29135e-06
-5.41987e-06
-5.54991e-06
-5.78951e-06
-6.37372e-06
-6.52674e-06
-6.54821e-06
-6.55782e-06
-6.57357e-06
-6.58223e-06
-6.59639e-06
-6.60416e-06
-6.61686e-06
-6.62382e-06
-6.63517e-06
-6.64139e-06
-6.65147e-06
-6.657e-06
-6.66592e-06
-6.6708e-06
-6.67862e-06
-6.68292e-06
-6.68971e-06
-6.69346e-06
-6.69929e-06
-6.70252e-06
-6.70746e-06
-6.71021e-06
-6.7143e-06
-6.71661e-06
-6.71992e-06
-6.72182e-06
-6.72441e-06
-6.72593e-06
-6.72786e-06
-6.72904e-06
-6.73035e-06
-6.73122e-06
-6.73201e-06
-6.73256e-06
-6.73299e-06
-6.73325e-06
-6.7334e-06
-6.73345e-06
)
;
    }
    outlet
    {
        type            cyclic;
        value           nonuniform List<scalar> 
120
(
1.02507e-12
3.05089e-12
5.05228e-12
7.02925e-12
8.98181e-12
1.091e-11
1.28137e-11
1.46931e-11
1.6548e-11
1.83786e-11
2.01848e-11
2.19666e-11
2.3724e-11
2.54571e-11
2.71658e-11
2.88501e-11
3.05101e-11
3.21458e-11
3.37571e-11
3.53441e-11
3.69068e-11
3.84452e-11
3.99592e-11
4.14489e-11
4.29144e-11
4.43555e-11
4.57724e-11
4.7568e-11
5.16237e-11
7.15804e-11
2.86373e-10
1.93674e-09
7.48869e-09
1.7715e-08
3.17471e-08
4.91633e-08
7.03488e-08
9.62002e-08
1.28368e-07
1.69407e-07
2.22516e-07
2.91594e-07
3.8124e-07
4.96217e-07
6.4019e-07
8.1412e-07
1.01534e-06
1.23803e-06
1.47466e-06
1.71763e-06
1.96031e-06
2.19752e-06
2.42554e-06
2.64191e-06
2.8451e-06
3.03437e-06
3.20956e-06
3.37105e-06
3.5198e-06
3.65729e-06
3.7853e-06
3.90562e-06
4.01979e-06
4.12895e-06
4.23386e-06
4.33498e-06
4.43257e-06
4.52675e-06
4.61758e-06
4.70509e-06
4.78911e-06
4.87022e-06
4.9482e-06
5.02658e-06
5.10541e-06
5.19516e-06
5.29135e-06
5.41987e-06
5.54991e-06
5.78951e-06
6.37372e-06
6.52674e-06
6.54821e-06
6.55782e-06
6.57357e-06
6.58223e-06
6.59639e-06
6.60416e-06
6.61686e-06
6.62382e-06
6.63517e-06
6.64139e-06
6.65147e-06
6.657e-06
6.66592e-06
6.6708e-06
6.67862e-06
6.68292e-06
6.68971e-06
6.69346e-06
6.69929e-06
6.70252e-06
6.70746e-06
6.71021e-06
6.7143e-06
6.71661e-06
6.71992e-06
6.72182e-06
6.72441e-06
6.72593e-06
6.72786e-06
6.72904e-06
6.73035e-06
6.73122e-06
6.73201e-06
6.73256e-06
6.73299e-06
6.73325e-06
6.7334e-06
6.73345e-06
)
;
    }
    top
    {
        type            calculated;
        value           uniform -1.79698e-06;
    }
    bottom
    {
        type            fixedValue;
        value           uniform 0;
    }
    frontAndBackPlanes
    {
        type            empty;
        value           nonuniform List<scalar> 0();
    }
}


// ************************************************************************* //
