/*--------------------------------*- C++ -*----------------------------------*\
| =========                 |                                                 |
| \\      /  F ield         | OpenFOAM: The Open Source CFD Toolbox           |
|  \\    /   O peration     | Version:  2206                                  |
|   \\  /    A nd           | Website:  www.openfoam.com                      |
|    \\/     M anipulation  |                                                 |
\*---------------------------------------------------------------------------*/
FoamFile
{
    version     2.0;
    format      ascii;
    arch        "LSB;label=32;scalar=64";
    class       volTensorField;
    location    "12";
    object      Taua;
}
// * * * * * * * * * * * * * * * * * * * * * * * * * * * * * * * * * * * * * //

dimensions      [1 -1 -2 0 0 0 0];

internalField   nonuniform List<tensor> 
120
(
(-0.435605 0 0 119.715 0.871211 0 0 0 -0.435605)
(-0.0180301 0 0 118.283 0.0360602 0 0 0 -0.0180301)
(-0.196214 0 0 116.849 0.392429 0 0 0 -0.196214)
(-0.271732 0 0 115.414 0.543465 0 0 0 -0.271732)
(-0.23066 0 0 113.98 0.461321 0 0 0 -0.23066)
(-0.282729 0 0 112.547 0.565458 0 0 0 -0.282729)
(-0.2785 -1.23572e-15 0 111.113 0.557001 0 0 0 -0.2785)
(-0.300715 0 0 109.68 0.60143 0 0 0 -0.300715)
(-0.318888 0 0 108.248 0.637775 0 0 0 -0.318888)
(-0.340585 -2.47143e-15 0 106.815 0.68117 0 0 0 -0.340585)
(-0.36483 0 0 105.383 0.72966 0 0 0 -0.36483)
(-0.392495 0 0 103.951 0.784991 0 0 0 -0.392495)
(-0.424066 0 0 102.52 0.848132 0 0 0 -0.424066)
(-0.460288 0 0 101.089 0.920577 0 0 0 -0.460288)
(-0.502705 0 0 99.6582 1.00541 0 0 0 -0.502705)
(-0.554302 0 0 98.2278 1.1086 0 0 0 -0.554302)
(-0.619327 0 0 96.7978 1.23865 0 0 0 -0.619327)
(-0.70232 0 0 95.3681 1.40464 0 0 0 -0.70232)
(-0.806514 0 0 93.9387 1.61303 0 0 0 -0.806514)
(-0.931247 0 0 92.5098 1.86249 0 0 0 -0.931247)
(-1.06921 0 0 91.0812 2.13842 0 0 0 -1.06921)
(-1.21263 0 0 89.6529 2.42527 0 0 0 -1.21263)
(-1.38448 0 0 88.2251 2.76895 0 0 0 -1.38448)
(-1.67513 0 0 86.7976 3.35027 0 0 0 -1.67513)
(-2.21059 0 0 85.3706 4.42118 0 0 0 -2.21059)
(-3.03438 0 0 83.944 6.06875 0 0 0 -3.03438)
(-4.56586 0 0 94.356 9.13172 0 0 0 -4.56586)
(-4.65058 0 0 94.7121 9.30116 0 0 0 -4.65058)
(-1.85038 0 0 87.2205 3.70076 0 0 0 -1.85038)
(0.210316 0 0 76.0595 -0.420632 0 0 0 0.210316)
(0.13598 0 0 68.9121 -0.271959 0 0 0 0.13598)
(-0.0180888 0 0 66.0093 0.0361775 0 0 0 -0.0180888)
(-0.0519134 0 0 67.5964 0.103827 0 0 0 -0.0519134)
(-0.0684826 0 0 69.8007 0.136965 0 0 0 -0.0684826)
(-0.0566398 0 0 70.4644 0.11328 0 0 0 -0.0566398)
(0.0547005 0 0 69.5833 -0.109401 0 0 0 0.0547005)
(0.0883199 0 0 68.4566 -0.17664 0 0 0 0.0883199)
(-0.00727549 0 0 67.3954 0.014551 0 0 0 -0.00727549)
(-0.0449636 0 0 65.864 0.0899272 0 0 0 -0.0449636)
(-0.0230516 0 0 64.3595 0.0461031 0 0 0 -0.0230516)
(-0.0118696 0 0 62.9477 0.0237393 0 0 0 -0.0118696)
(-0.0104536 0 0 61.5252 0.0209072 0 0 0 -0.0104536)
(-0.00981605 0 0 59.9518 0.0196321 0 0 0 -0.00981605)
(-0.00849654 0 0 57.9706 0.0169931 0 0 0 -0.00849654)
(-0.00703111 0 0 55.2704 0.0140622 0 0 0 -0.00703111)
(-0.00566072 0 0 51.6857 0.0113214 0 0 0 -0.00566072)
(-0.00443602 0 0 47.3041 0.00887204 0 0 0 -0.00443602)
(-0.00337285 0 0 42.3932 0.00674571 0 0 0 -0.00337285)
(-0.00247882 0 0 37.2616 0.00495764 0 0 0 -0.00247882)
(-0.00175289 0 0 32.1671 0.00350577 0 0 0 -0.00175289)
(-0.00118622 0 0 27.2903 0.00237243 0 0 0 -0.00118622)
(-0.000763457 0 0 22.7445 0.00152691 0 0 0 -0.000763457)
(-0.000464144 0 0 18.5975 0.000928288 0 0 0 -0.000464144)
(-0.00026463 0 0 14.8895 0.00052926 0 0 0 -0.00026463)
(-0.000140326 0 0 11.6449 0.000280653 0 0 0 -0.000140326)
(-6.81003e-05 0 0 8.87677 0.000136201 0 0 0 -6.81003e-05)
(-2.87155e-05 0 0 6.5847 5.74311e-05 0 0 0 -2.87155e-05)
(-8.60352e-06 0 0 4.75056 1.7207e-05 0 0 0 -8.60352e-06)
(2.27657e-07 0 0 3.33577 -4.55314e-07 0 0 0 2.27657e-07)
(2.32473e-06 0 0 2.28418 -4.64945e-06 0 0 0 2.32473e-06)
(9.99846e-07 0 0 1.52972 -1.99969e-06 0 0 0 9.99846e-07)
(-1.18397e-06 0 0 1.00544 2.36793e-06 0 0 0 -1.18397e-06)
(-2.87657e-06 0 0 0.650814 5.75315e-06 0 0 0 -2.87657e-06)
(-3.84831e-06 0 0 0.416099 7.69662e-06 0 0 0 -3.84831e-06)
(-4.3098e-06 0 0 0.263368 8.6196e-06 0 0 0 -4.3098e-06)
(-4.60857e-06 0 0 0.165315 9.21713e-06 0 0 0 -4.60857e-06)
(-4.86243e-06 0 0 0.103065 9.72487e-06 0 0 0 -4.86243e-06)
(-7.63308e-06 0 0 0.0639316 1.52662e-05 0 0 0 -7.63308e-06)
(3.70781e-06 0 0 0.0395696 -7.41563e-06 0 0 0 3.70781e-06)
(-1.5751e-05 0 0 0.0245033 3.1502e-05 0 0 0 -1.5751e-05)
(1.31362e-05 0 0 0.0154109 -2.62723e-05 0 0 0 1.31362e-05)
(-1.57192e-05 0 0 0.00972978 3.14384e-05 0 0 0 -1.57192e-05)
(1.77099e-05 0 0 0.00664307 -3.54198e-05 0 0 0 1.77099e-05)
(-1.25602e-05 0 0 0.00436798 2.51203e-05 0 0 0 -1.25602e-05)
(2.1534e-05 0 0 0.00359461 -4.30681e-05 0 0 0 2.1534e-05)
(-1.37454e-05 0 0 0.00233319 2.74908e-05 0 0 0 -1.37454e-05)
(3.38383e-05 0 0 0.0025858 -6.76766e-05 0 0 0 3.38383e-05)
(-2.03323e-05 0 0 0.00127726 4.06646e-05 0 0 0 -2.03323e-05)
(3.9499e-05 0 0 0.0029523 -7.89979e-05 0 0 0 3.9499e-05)
(0.000283177 0 0 0.000659114 -0.000566355 0 0 0 0.000283177)
(5.46218e-26 0 0 8.31332e-26 -1.09244e-25 0 0 0 5.46218e-26)
(4.67189e-55 0 0 5.62333e-55 -9.34378e-55 0 0 0 4.67189e-55)
(1.00661e-79 0 0 4.23907e-78 -2.01323e-79 0 0 0 1.00661e-79)
(6.71342e-102 0 0 1.70322e-100 -1.34268e-101 0 0 0 6.71342e-102)
(3.12101e-124 0 0 9.52901e-123 -6.24201e-124 0 0 0 3.12101e-124)
(2.07383e-146 0 0 5.43678e-145 -4.14767e-146 0 0 0 2.07383e-146)
(7.45733e-169 0 0 2.36616e-167 -1.49147e-168 0 0 0 7.45733e-169)
(4.16472e-191 0 0 1.12686e-189 -8.32944e-191 0 0 0 4.16472e-191)
(1.78039e-213 0 0 5.86698e-212 -3.56078e-213 0 0 0 1.78039e-213)
(8.44561e-236 0 0 2.35541e-234 -1.68912e-235 0 0 0 8.44561e-236)
(3.54605e-258 0 0 1.21295e-256 -7.0921e-258 0 0 0 3.54605e-258)
(2.1093e-280 0 0 6.05467e-279 -4.2186e-280 0 0 0 2.1093e-280)
(9.02382e-303 0 0 3.20275e-301 -1.80476e-302 0 0 0 9.02382e-303)
(0 0 0 0 -0 0 0 0 0)
(0 0 0 0 -0 0 0 0 0)
(0 0 0 0 -0 0 0 0 0)
(0 0 0 0 -0 0 0 0 0)
(0 0 0 0 -0 0 0 0 0)
(0 0 0 0 -0 0 0 0 0)
(0 0 0 0 -0 0 0 0 0)
(0 0 0 0 -0 0 0 0 0)
(0 0 0 0 -0 0 0 0 0)
(0 0 0 0 -0 0 0 0 0)
(0 0 0 0 -0 0 0 0 0)
(0 0 0 0 -0 0 0 0 0)
(0 0 0 0 -0 0 0 0 0)
(0 0 0 0 -0 0 0 0 0)
(0 0 0 0 -0 0 0 0 0)
(0 0 0 0 -0 0 0 0 0)
(0 0 0 0 -0 0 0 0 0)
(0 0 0 0 -0 0 0 0 0)
(0 0 0 0 -0 0 0 0 0)
(0 0 0 0 -0 0 0 0 0)
(0 0 0 0 -0 0 0 0 0)
(0 0 0 0 -0 0 0 0 0)
(0 0 0 0 -0 0 0 0 0)
(-0 0 0 0 0 0 0 0 -0)
(0 0 0 0 -0 0 0 0 0)
(-0 0 0 0 0 0 0 0 -0)
(0 0 0 0 -0 0 0 0 0)
)
;

boundaryField
{
    inlet
    {
        type            cyclic;
    }
    outlet
    {
        type            cyclic;
    }
    top
    {
        type            extrapolatedCalculated;
        value           uniform (0 0 0 0 0 0 0 0 0);
    }
    bottom
    {
        type            extrapolatedCalculated;
        value           uniform (-0.844054 0 0 120.429 1.68811 0 0 0 -0.844054);
    }
    frontAndBackPlanes
    {
        type            empty;
    }
}


// ************************************************************************* //
