/*--------------------------------*- C++ -*----------------------------------*\
| =========                 |                                                 |
| \\      /  F ield         | OpenFOAM: The Open Source CFD Toolbox           |
|  \\    /   O peration     | Version:  2206                                  |
|   \\  /    A nd           | Website:  www.openfoam.com                      |
|    \\/     M anipulation  |                                                 |
\*---------------------------------------------------------------------------*/
FoamFile
{
    version     2.0;
    format      ascii;
    arch        "LSB;label=32;scalar=64";
    class       volTensorField;
    location    "12";
    object      Taub;
}
// * * * * * * * * * * * * * * * * * * * * * * * * * * * * * * * * * * * * * //

dimensions      [1 -1 -2 0 0 0 0];

internalField   nonuniform List<tensor> 
120
(
(3.99585e-10 0 0 0.00346758 -7.9917e-10 0 0 0 3.99585e-10)
(7.08081e-10 0 0 2.84328e-05 -1.41616e-09 0 0 0 7.08081e-10)
(5.05018e-10 0 0 2.25638e-06 -1.01004e-09 0 0 0 5.05018e-10)
(6.00196e-10 0 0 2.35988e-06 -1.20039e-09 0 0 0 6.00196e-10)
(6.31903e-10 0 0 2.25229e-06 -1.26381e-09 0 0 0 6.31903e-10)
(6.34932e-10 0 0 2.38463e-06 -1.26986e-09 0 0 0 6.34932e-10)
(7.24762e-10 1.91787e-24 0 2.41121e-06 -1.44952e-09 0 0 0 7.24762e-10)
(7.24345e-10 0 0 2.47671e-06 -1.44869e-09 0 0 0 7.24345e-10)
(7.86953e-10 0 0 2.53728e-06 -1.57391e-09 0 0 0 7.86953e-10)
(8.33084e-10 1.91914e-24 0 2.60324e-06 -1.66617e-09 0 0 0 8.33084e-10)
(8.92487e-10 0 0 2.67287e-06 -1.78497e-09 0 0 0 8.92487e-10)
(9.58194e-10 0 0 2.74718e-06 -1.91639e-09 0 0 0 9.58194e-10)
(1.03448e-09 0 0 2.8268e-06 -2.06895e-09 0 0 0 1.03448e-09)
(1.12419e-09 0 0 2.91243e-06 -2.24838e-09 0 0 0 1.12419e-09)
(1.2297e-09 0 0 3.00442e-06 -2.4594e-09 0 0 0 1.2297e-09)
(1.35659e-09 0 0 3.10311e-06 -2.71317e-09 0 0 0 1.35659e-09)
(1.51562e-09 0 0 3.20966e-06 -3.03124e-09 0 0 0 1.51562e-09)
(1.71829e-09 0 0 3.32659e-06 -3.43657e-09 0 0 0 1.71829e-09)
(1.97111e-09 0 0 3.45887e-06 -3.94223e-09 0 0 0 1.97111e-09)
(2.27278e-09 0 0 3.61548e-06 -4.54557e-09 0 0 0 2.27278e-09)
(2.59517e-09 0 0 3.80983e-06 -5.19033e-09 0 0 0 2.59517e-09)
(2.97687e-09 0 0 4.04683e-06 -5.95374e-09 0 0 0 2.97687e-09)
(3.30957e-09 0 0 4.29282e-06 -6.61914e-09 0 0 0 3.30957e-09)
(4.31823e-09 0 0 4.48634e-06 -8.63647e-09 0 0 0 4.31823e-09)
(4.7977e-09 0 0 4.64055e-06 -9.59539e-09 0 0 0 4.7977e-09)
(8.47782e-09 0 0 4.92175e-06 -1.69556e-08 0 0 0 8.47782e-09)
(9.31308e-09 0 0 5.77636e-06 -1.86262e-08 0 0 0 9.31308e-09)
(2.44404e-08 0 0 8.50912e-06 -4.88808e-08 0 0 0 2.44404e-08)
(3.69128e-08 0 0 1.3723e-05 -7.38257e-08 0 0 0 3.69128e-08)
(2.24833e-08 0 0 2.53417e-05 -4.49667e-08 0 0 0 2.24833e-08)
(2.99578e-08 0 0 0.000101909 -5.99156e-08 0 0 0 2.99578e-08)
(3.93462e-08 0 0 0.000352845 -7.86925e-08 0 0 0 3.93462e-08)
(1.72621e-08 0 0 0.000758067 -3.45242e-08 0 0 0 1.72621e-08)
(7.48316e-08 0 0 0.00116927 -1.49663e-07 0 0 0 7.48316e-08)
(8.66166e-08 0 0 0.00154226 -1.73233e-07 0 0 0 8.66166e-08)
(2.42226e-07 0 0 0.00195829 -4.84453e-07 0 0 0 2.42226e-07)
(5.54753e-07 0 0 0.00251849 -1.10951e-06 0 0 0 5.54753e-07)
(6.05026e-07 0 0 0.00337259 -1.21005e-06 0 0 0 6.05026e-07)
(7.62166e-07 0 0 0.00490404 -1.52433e-06 0 0 0 7.62166e-07)
(1.23708e-06 0 0 0.00839942 -2.47415e-06 0 0 0 1.23708e-06)
(2.29558e-06 0 0 0.0192136 -4.59117e-06 0 0 0 2.29558e-06)
(5.02152e-06 0 0 0.0625002 -1.0043e-05 0 0 0 5.02152e-06)
(1.05388e-05 0 0 0.239765 -2.10776e-05 0 0 0 1.05388e-05)
(2.01372e-05 0 0 0.81403 -4.02743e-05 0 0 0 2.01372e-05)
(3.22776e-05 0 0 2.15696 -6.45552e-05 0 0 0 3.22776e-05)
(3.90391e-05 0 0 4.50557 -7.80783e-05 0 0 0 3.90391e-05)
(2.84417e-05 0 0 7.7917 -5.68833e-05 0 0 0 2.84417e-05)
(-6.24237e-06 0 0 11.7124 1.24847e-05 0 0 0 -6.24237e-06)
(-6.77051e-05 0 0 15.9087 0.00013541 0 0 0 -6.77051e-05)
(-0.000156185 0 0 20.0857 0.00031237 0 0 0 -0.000156185)
(-0.00027211 0 0 24.0453 0.000544219 0 0 0 -0.00027211)
(-0.000417111 0 0 27.6697 0.000834221 0 0 0 -0.000417111)
(-0.000593506 0 0 30.894 0.00118701 0 0 0 -0.000593506)
(-0.000802361 0 0 33.6832 0.00160472 0 0 0 -0.000802361)
(-0.00103976 0 0 36.0192 0.00207952 0 0 0 -0.00103976)
(-0.00129128 0 0 37.8952 0.00258256 0 0 0 -0.00129128)
(-0.00152686 0 0 39.3165 0.00305372 0 0 0 -0.00152686)
(-0.00170195 0 0 40.3032 0.0034039 0 0 0 -0.00170195)
(-0.00177106 0 0 40.892 0.00354211 0 0 0 -0.00177106)
(-0.0017105 0 0 41.1349 0.00342099 0 0 0 -0.0017105)
(-0.00153407 0 0 41.0948 0.00306813 0 0 0 -0.00153407)
(-0.00128658 0 0 40.8373 0.00257316 0 0 0 -0.00128658)
(-0.00102053 0 0 40.4224 0.00204105 0 0 0 -0.00102053)
(-0.000775237 0 0 39.899 0.00155047 0 0 0 -0.000775237)
(-0.000570266 0 0 39.3034 0.00114053 0 0 0 -0.000570266)
(-0.000409726 0 0 38.6611 0.000819452 0 0 0 -0.000409726)
(-0.000289465 0 0 37.989 0.00057893 0 0 0 -0.000289465)
(-0.000202336 0 0 37.2985 0.000404671 0 0 0 -0.000202336)
(-0.00014141 0 0 36.5967 0.000282821 0 0 0 -0.00014141)
(-9.92944e-05 0 0 35.8882 0.000198589 0 0 0 -9.92944e-05)
(-7.15845e-05 0 0 35.1757 0.000143169 0 0 0 -7.15845e-05)
(-5.31369e-05 0 0 34.4616 0.000106274 0 0 0 -5.31369e-05)
(-3.76456e-05 0 0 33.7458 7.52912e-05 0 0 0 -3.76456e-05)
(-2.79894e-05 0 0 33.0307 5.59788e-05 0 0 0 -2.79894e-05)
(-2.00876e-05 0 0 32.3146 4.01751e-05 0 0 0 -2.00876e-05)
(-8.5741e-06 0 0 31.5999 1.71482e-05 0 0 0 -8.5741e-06)
(-1.48652e-05 0 0 30.8845 2.97305e-05 0 0 0 -1.48652e-05)
(3.10674e-05 0 0 30.1707 -6.21348e-05 0 0 0 3.10674e-05)
(-9.89457e-05 0 0 29.4563 0.000197891 0 0 0 -9.89457e-05)
(-0.000147469 0 0 28.7433 0.000294937 0 0 0 -0.000147469)
(0.000154273 0 0 28.0303 -0.000308546 0 0 0 0.000154273)
(0.000113599 0 0 27.3179 -0.000227198 0 0 0 0.000113599)
(-3.61529e-05 0 0 26.606 7.23057e-05 0 0 0 -3.61529e-05)
(6.36232e-06 0 0 25.8944 -1.27246e-05 0 0 0 6.36232e-06)
(-1.07609e-06 0 0 25.1833 2.15218e-06 0 0 0 -1.07609e-06)
(2.53816e-07 0 0 24.4726 -5.07632e-07 0 0 0 2.53816e-07)
(-3.26011e-08 0 0 23.7622 6.52022e-08 0 0 0 -3.26011e-08)
(-6.38021e-09 0 0 23.0522 1.27604e-08 0 0 0 -6.38021e-09)
(-3.91433e-09 0 0 22.3424 7.82865e-09 0 0 0 -3.91433e-09)
(5.2354e-09 0 0 21.633 -1.04708e-08 0 0 0 5.2354e-09)
(1.00068e-08 0 0 20.9239 -2.00136e-08 0 0 0 1.00068e-08)
(3.36246e-09 0 0 20.215 -6.72491e-09 0 0 0 3.36246e-09)
(-4.83254e-09 0 0 19.5063 9.66509e-09 0 0 0 -4.83254e-09)
(-3.61126e-09 0 0 18.7978 7.22252e-09 0 0 0 -3.61126e-09)
(2.93486e-09 0 0 18.0896 -5.86971e-09 0 0 0 2.93486e-09)
(7.88926e-09 0 0 17.3815 -1.57785e-08 0 0 0 7.88926e-09)
(7.37112e-09 0 0 16.6736 -1.47422e-08 0 0 0 7.37112e-09)
(2.28141e-09 0 0 15.9657 -4.56283e-09 0 0 0 2.28141e-09)
(-6.51117e-10 0 0 15.258 1.30223e-09 0 0 0 -6.51117e-10)
(-5.63916e-10 0 0 14.5504 1.12783e-09 0 0 0 -5.63916e-10)
(1.75288e-09 0 0 13.8428 -3.50576e-09 0 0 0 1.75288e-09)
(3.96265e-09 0 0 13.1353 -7.92529e-09 0 0 0 3.96265e-09)
(4.14806e-09 0 0 12.4278 -8.29613e-09 0 0 0 4.14806e-09)
(2.60074e-09 0 0 11.7202 -5.20147e-09 0 0 0 2.60074e-09)
(6.64063e-10 0 0 11.0126 -1.32813e-09 0 0 0 6.64063e-10)
(1.65824e-09 0 0 10.3049 -3.31648e-09 0 0 0 1.65824e-09)
(2.41123e-09 0 0 9.59706 -4.82247e-09 0 0 0 2.41123e-09)
(2.46598e-09 0 0 8.8891 -4.93196e-09 0 0 0 2.46598e-09)
(2.70765e-09 0 0 8.18094 -5.41529e-09 0 0 0 2.70765e-09)
(1.58244e-09 0 0 7.47256 -3.16488e-09 0 0 0 1.58244e-09)
(1.05098e-09 0 0 6.76392 -2.10197e-09 0 0 0 1.05098e-09)
(1.53791e-09 0 0 6.05495 -3.07582e-09 0 0 0 1.53791e-09)
(2.00999e-09 0 0 5.34561 -4.01999e-09 0 0 0 2.00999e-09)
(2.32664e-09 0 0 4.63581 -4.65328e-09 0 0 0 2.32664e-09)
(1.66491e-09 0 0 3.92564 -3.32982e-09 0 0 0 1.66491e-09)
(3.34369e-10 0 0 3.2142 -6.68738e-10 0 0 0 3.34369e-10)
(3.52541e-11 0 0 2.50572 -7.05083e-11 0 0 0 3.52541e-11)
(2.43661e-10 0 0 1.77863 -4.87323e-10 0 0 0 2.43661e-10)
(1.02763e-09 0 0 1.13567 -2.05526e-09 0 0 0 1.02763e-09)
(4.14145e-10 0 0 0.222051 -8.28291e-10 0 0 0 4.14145e-10)
)
;

boundaryField
{
    inlet
    {
        type            cyclic;
    }
    outlet
    {
        type            cyclic;
    }
    top
    {
        type            extrapolatedCalculated;
        value           uniform (0 0 0 0 0 0 0 0 0);
    }
    bottom
    {
        type            extrapolatedCalculated;
        value           uniform (-4.27176e-11 0 0 0.00688021 8.54352e-11 0 0 0 -4.27176e-11);
    }
    frontAndBackPlanes
    {
        type            empty;
    }
}


// ************************************************************************* //
