/*--------------------------------*- C++ -*----------------------------------*\
| =========                 |                                                 |
| \\      /  F ield         | OpenFOAM: The Open Source CFD Toolbox           |
|  \\    /   O peration     | Version:  2206                                  |
|   \\  /    A nd           | Website:  www.openfoam.com                      |
|    \\/     M anipulation  |                                                 |
\*---------------------------------------------------------------------------*/
FoamFile
{
    version     2.0;
    format      ascii;
    arch        "LSB;label=32;scalar=64";
    class       volScalarField;
    location    "12";
    object      Theta;
}
// * * * * * * * * * * * * * * * * * * * * * * * * * * * * * * * * * * * * * //

dimensions      [0 2 -2 0 0 0 0];

internalField   nonuniform List<scalar> 
120
(
4.60485e-11
2.08563e-10
6.87927e-10
1.77634e-09
3.91141e-09
7.71855e-09
1.40749e-08
2.41954e-08
3.97514e-08
6.30296e-08
9.71467e-08
1.46337e-07
2.16341e-07
3.14919e-07
4.52552e-07
6.43364e-07
9.06376e-07
1.26716e-06
1.7601e-06
2.43135e-06
3.34289e-06
4.57791e-06
6.24809e-06
8.50317e-06
1.15435e-05
1.56372e-05
2.1145e-05
2.85582e-05
3.85732e-05
5.21684e-05
7.05709e-05
9.54618e-05
0.000128919
0.000172786
0.000229395
0.000303858
0.000406611
0.000556153
0.00078139
0.00112191
0.00162691
0.00235309
0.003354
0.00465926
0.0062494
0.00803712
0.00987064
0.0115664
0.0129582
0.0139371
0.014467
0.0145761
0.0143359
0.0138373
0.0131726
0.0124235
0.0116545
0.0109113
0.0102207
0.0095941
0.00903125
0.00852547
0.00806807
0.0076515
0.00727144
0.00692869
0.00663144
0.0063995
0.00627168
0.00631846
0.00666158
0.00750066
0.00912009
0.0119561
0.0164663
0.0234403
0.0333288
0.0471838
0.0632372
0.0829133
0.00473364
1.65154e-15
1.0598e-15
1.05928e-15
1.05791e-15
1.05735e-15
1.05622e-15
1.05574e-15
1.05476e-15
1.05434e-15
1.0535e-15
1.05315e-15
1.05242e-15
1.05212e-15
1.0515e-15
1.05124e-15
1.05071e-15
1.0505e-15
1.05005e-15
1.04987e-15
1.0495e-15
1.04935e-15
1.04904e-15
1.04892e-15
1.04866e-15
1.04857e-15
1.04837e-15
1.04829e-15
1.04814e-15
1.04808e-15
1.04797e-15
1.04793e-15
1.04785e-15
1.04783e-15
1.04778e-15
1.04778e-15
1.04773e-15
1.04775e-15
1.04772e-15
1.04774e-15
)
;

boundaryField
{
    inlet
    {
        type            cyclic;
    }
    outlet
    {
        type            cyclic;
    }
    top
    {
        type            zeroGradient;
    }
    bottom
    {
        type            zeroGradient;
    }
    frontAndBackPlanes
    {
        type            empty;
    }
}


// ************************************************************************* //
