/*--------------------------------*- C++ -*----------------------------------*\
| =========                 |                                                 |
| \\      /  F ield         | OpenFOAM: The Open Source CFD Toolbox           |
|  \\    /   O peration     | Version:  2206                                  |
|   \\  /    A nd           | Website:  www.openfoam.com                      |
|    \\/     M anipulation  |                                                 |
\*---------------------------------------------------------------------------*/
FoamFile
{
    version     2.0;
    format      ascii;
    arch        "LSB;label=32;scalar=64";
    class       volVectorField;
    location    "12";
    object      U.a;
}
// * * * * * * * * * * * * * * * * * * * * * * * * * * * * * * * * * * * * * //

dimensions      [0 1 -1 0 0 0 0];

internalField   nonuniform List<vector> 
120
(
(3.67309e-07 7.7231e-09 0)
(1.09321e-06 8.22006e-09 0)
(1.81037e-06 8.383e-09 0)
(2.51877e-06 1.54015e-08 0)
(3.21842e-06 1.83284e-08 0)
(3.90933e-06 2.38437e-08 0)
(4.59149e-06 2.86763e-08 0)
(5.26491e-06 3.40368e-08 0)
(5.92959e-06 3.96824e-08 0)
(6.58553e-06 4.5708e-08 0)
(7.23274e-06 5.21478e-08 0)
(7.8712e-06 5.90608e-08 0)
(8.50094e-06 6.65131e-08 0)
(9.12195e-06 7.45816e-08 0)
(9.73422e-06 8.33596e-08 0)
(1.03378e-05 9.29805e-08 0)
(1.09326e-05 1.03647e-07 0)
(1.15187e-05 1.15648e-07 0)
(1.20961e-05 1.29352e-07 0)
(1.26647e-05 1.45166e-07 0)
(1.32247e-05 1.63435e-07 0)
(1.37759e-05 1.84299e-07 0)
(1.43184e-05 2.07817e-07 0)
(1.48523e-05 2.3497e-07 0)
(1.53774e-05 2.69126e-07 0)
(1.58938e-05 3.15876e-07 0)
(1.64015e-05 3.80182e-07 0)
(1.70449e-05 4.82982e-07 0)
(1.84982e-05 6.89041e-07 0)
(2.56491e-05 1.0306e-06 0)
(0.000102615 -8.74817e-09 0)
(0.000693986 -2.92575e-06 0)
(0.0026834 2.11291e-06 0)
(0.00634776 1.01004e-05 0)
(0.0113758 2.76978e-05 0)
(0.0176165 3.72741e-05 0)
(0.0252079 -4.92285e-06 0)
(0.0344711 -2.79611e-05 0)
(0.0459978 1.8101e-06 0)
(0.0607031 2.57627e-05 0)
(0.0797333 3.80591e-05 0)
(0.104486 5.05303e-05 0)
(0.136608 6.70497e-05 0)
(0.177808 8.65457e-05 0)
(0.229397 0.000107849 0)
(0.291721 0.000130019 0)
(0.363824 0.000152017 0)
(0.443619 0.000172753 0)
(0.528411 0.000191301 0)
(0.615473 0.00020705 0)
(0.70243 0.00021975 0)
(0.787429 0.000229473 0)
(0.869136 0.000236537 0)
(0.946665 0.000241396 0)
(1.01948 0.000244553 0)
(1.0873 0.00024648 0)
(1.15007 0.000247559 0)
(1.20794 0.000248058 0)
(1.26124 0.000248163 0)
(1.3105 0.000248037 0)
(1.35637 0.000247872 0)
(1.39949 0.000247863 0)
(1.4404 0.000248169 0)
(1.47951 0.000248924 0)
(1.51711 0.000250297 0)
(1.55334 0.000252548 0)
(1.58831 0.000256252 0)
(1.62206 0.000262274 0)
(1.6546 0.000279997 0)
(1.68596 0.00024431 0)
(1.71607 0.000398527 0)
(1.74513 9.29998e-05 0)
(1.77307 0.00067481 0)
(1.80116 -0.000355086 0)
(1.8294 0.00116077 0)
(1.86156 -0.00144075 0)
(1.89603 0.00233833 0)
(1.94208 -0.00460185 0)
(1.98868 0.00676296 0)
(2.07454 -0.00991805 0)
(2.28387 -0.373709 0)
(2.33871 -0.530628 0)
(2.3464 -0.529545 0)
(2.34984 -0.531421 0)
(2.35549 -0.53062 0)
(2.35859 -0.532281 0)
(2.36366 -0.531555 0)
(2.36645 -0.533024 0)
(2.371 -0.532369 0)
(2.37349 -0.533665 0)
(2.37756 -0.533074 0)
(2.37979 -0.534217 0)
(2.3834 -0.533685 0)
(2.38538 -0.53469 0)
(2.38858 -0.534211 0)
(2.39033 -0.535093 0)
(2.39313 -0.534663 0)
(2.39467 -0.535434 0)
(2.3971 -0.535048 0)
(2.39844 -0.53572 0)
(2.40053 -0.535374 0)
(2.40169 -0.535956 0)
(2.40346 -0.535648 0)
(2.40445 -0.536149 0)
(2.40591 -0.535875 0)
(2.40674 -0.536303 0)
(2.40793 -0.53606 0)
(2.40861 -0.536423 0)
(2.40954 -0.536209 0)
(2.41008 -0.536512 0)
(2.41077 -0.536326 0)
(2.41119 -0.536575 0)
(2.41166 -0.536416 0)
(2.41198 -0.536607 0)
(2.41226 -0.536488 0)
(2.41246 -0.536607 0)
(2.41261 -0.536547 0)
(2.4127 -0.536597 0)
(2.41276 -0.536581 0)
(2.41277 -0.536587 0)
)
;

boundaryField
{
    inlet
    {
        type            cyclic;
    }
    outlet
    {
        type            cyclic;
    }
    top
    {
        type            zeroGradient;
    }
    bottom
    {
        type            fixedValue;
        value           uniform (0 0 0);
    }
    frontAndBackPlanes
    {
        type            empty;
    }
}


// ************************************************************************* //
