/*--------------------------------*- C++ -*----------------------------------*\
| =========                 |                                                 |
| \\      /  F ield         | OpenFOAM: The Open Source CFD Toolbox           |
|  \\    /   O peration     | Version:  2206                                  |
|   \\  /    A nd           | Website:  www.openfoam.com                      |
|    \\/     M anipulation  |                                                 |
\*---------------------------------------------------------------------------*/
FoamFile
{
    version     2.0;
    format      ascii;
    arch        "LSB;label=32;scalar=64";
    class       volVectorField;
    location    "12";
    object      U.b;
}
// * * * * * * * * * * * * * * * * * * * * * * * * * * * * * * * * * * * * * //

dimensions      [0 1 -1 0 0 0 0];

internalField   nonuniform List<vector> 
120
(
(0.0135372 2.52147e-10 0)
(0.0137534 -9.6866e-09 0)
(0.0137609 -1.64618e-08 0)
(0.0137711 -2.16059e-08 0)
(0.0137794 -3.06242e-08 0)
(0.0137889 -3.65137e-08 0)
(0.0137982 -4.56003e-08 0)
(0.0138078 -5.3605e-08 0)
(0.0138177 -6.26781e-08 0)
(0.0138277 -7.21548e-08 0)
(0.0138381 -8.23108e-08 0)
(0.0138487 -9.31825e-08 0)
(0.0138597 -1.04881e-07 0)
(0.0138709 -1.17544e-07 0)
(0.0138825 -1.31348e-07 0)
(0.0138945 -1.46487e-07 0)
(0.0139069 -1.6327e-07 0)
(0.0139197 -1.82141e-07 0)
(0.0139329 -2.03679e-07 0)
(0.0139468 -2.28482e-07 0)
(0.0139613 -2.57095e-07 0)
(0.0139766 -2.89454e-07 0)
(0.013993 -3.27011e-07 0)
(0.0140102 -3.67155e-07 0)
(0.014028 -4.28352e-07 0)
(0.0140465 -4.79702e-07 0)
(0.0140665 -6.27145e-07 0)
(0.0140916 -6.97979e-07 0)
(0.014133 -1.19964e-06 0)
(0.0141987 -1.56181e-06 0)
(0.0143304 -1.72507e-06 0)
(0.0149916 -2.26106e-06 0)
(0.0170712 -2.64196e-06 0)
(0.0208656 -2.66234e-06 0)
(0.0260972 -4.37492e-06 0)
(0.032698 -4.65593e-06 0)
(0.0409484 -9.88588e-06 0)
(0.0513445 -1.69778e-05 0)
(0.0646527 -2.26432e-05 0)
(0.0819992 -3.12706e-05 0)
(0.105132 -4.05286e-05 0)
(0.137585 -5.11943e-05 0)
(0.186195 -6.00675e-05 0)
(0.256885 -6.69256e-05 0)
(0.348717 -7.21287e-05 0)
(0.455421 -7.58385e-05 0)
(0.569467 -7.78669e-05 0)
(0.68468 -7.83491e-05 0)
(0.796975 -7.75031e-05 0)
(0.90405 -7.55482e-05 0)
(1.00481 -7.26548e-05 0)
(1.09888 -6.89338e-05 0)
(1.18626 -6.44489e-05 0)
(1.26714 -5.92366e-05 0)
(1.34177 -5.3336e-05 0)
(1.41043 -4.68275e-05 0)
(1.47342 -3.98781e-05 0)
(1.53105 -3.27744e-05 0)
(1.58369 -2.59077e-05 0)
(1.63176 -1.96899e-05 0)
(1.67568 -1.44322e-05 0)
(1.71594 -1.02623e-05 0)
(1.75295 -7.129e-06 0)
(1.78713 -4.87048e-06 0)
(1.8188 -3.29078e-06 0)
(1.84827 -2.20907e-06 0)
(1.87578 -1.47917e-06 0)
(1.90155 -9.91192e-07 0)
(1.92574 -6.66033e-07 0)
(1.94853 -4.46572e-07 0)
(1.97003 -2.98465e-07 0)
(1.99036 -1.91195e-07 0)
(2.00962 -1.15343e-07 0)
(2.02789 -6.55914e-08 0)
(2.04525 -2.47512e-08 0)
(2.06177 -2.40041e-09 0)
(2.07751 1.50872e-09 0)
(2.09252 4.19996e-08 0)
(2.10685 -8.91233e-08 0)
(2.12054 3.24355e-07 0)
(2.13363 3.23083e-07 0)
(2.14616 -9.86227e-08 0)
(2.15815 1.71846e-08 0)
(2.16964 -2.88821e-09 0)
(2.18066 5.96571e-10 0)
(2.19122 -1.22559e-10 0)
(2.20135 -4.72195e-11 0)
(2.21107 -4.0857e-11 0)
(2.2204 -3.1403e-11 0)
(2.22935 -3.12477e-11 0)
(2.23795 -4.4145e-11 0)
(2.2462 -5.54201e-11 0)
(2.25412 -5.22158e-11 0)
(2.26173 -4.3881e-11 0)
(2.26902 -4.36276e-11 0)
(2.27602 -5.08408e-11 0)
(2.28274 -6.23066e-11 0)
(2.28918 -6.82876e-11 0)
(2.29535 -6.7712e-11 0)
(2.30126 -6.67411e-11 0)
(2.30691 -6.63675e-11 0)
(2.31232 -7.09434e-11 0)
(2.31749 -7.59354e-11 0)
(2.32241 -8.10491e-11 0)
(2.32711 -8.2341e-11 0)
(2.33157 -8.27062e-11 0)
(2.33581 -8.65435e-11 0)
(2.33983 -8.89289e-11 0)
(2.34362 -9.30437e-11 0)
(2.3472 -9.62444e-11 0)
(2.35055 -9.74437e-11 0)
(2.35368 -9.92662e-11 0)
(2.35659 -1.02043e-10 0)
(2.35926 -1.05564e-10 0)
(2.3617 -1.0975e-10 0)
(2.3639 -1.11465e-10 0)
(2.36584 -1.1104e-10 0)
(2.3675 -1.11617e-10 0)
(2.36882 -1.12267e-10 0)
(2.36985 -1.18001e-10 0)
)
;

boundaryField
{
    inlet
    {
        type            cyclic;
    }
    outlet
    {
        type            cyclic;
    }
    top
    {
        type            zeroGradient;
    }
    bottom
    {
        type            fixedValue;
        value           uniform (0 0 0);
    }
    frontAndBackPlanes
    {
        type            empty;
    }
}


// ************************************************************************* //
