/*--------------------------------*- C++ -*----------------------------------*\
| =========                 |                                                 |
| \\      /  F ield         | OpenFOAM: The Open Source CFD Toolbox           |
|  \\    /   O peration     | Version:  2206                                  |
|   \\  /    A nd           | Website:  www.openfoam.com                      |
|    \\/     M anipulation  |                                                 |
\*---------------------------------------------------------------------------*/
FoamFile
{
    version     2.0;
    format      ascii;
    arch        "LSB;label=32;scalar=64";
    class       volScalarField;
    location    "20";
    object      alpha.a;
}
// * * * * * * * * * * * * * * * * * * * * * * * * * * * * * * * * * * * * * //

dimensions      [0 0 0 0 0 0 0];

internalField   nonuniform List<scalar> 
344
(
0.585917
0.585857
0.585812
0.585748
0.585702
0.585636
0.585589
0.585521
0.585473
0.585403
0.585353
0.585281
0.58523
0.585156
0.585104
0.585027
0.584973
0.584893
0.584839
0.584756
0.584699
0.584614
0.584556
0.584467
0.584407
0.584315
0.584252
0.584157
0.584092
0.583992
0.583926
0.583822
0.583753
0.583644
0.583572
0.583458
0.583383
0.583264
0.583186
0.58306
0.582978
0.582846
0.582761
0.582621
0.582531
0.582383
0.582288
0.582131
0.58203
0.581862
0.581756
0.581576
0.581462
0.581268
0.581146
0.580937
0.580805
0.580577
0.580433
0.580182
0.580026
0.579747
0.579574
0.579261
0.579067
0.578711
0.578489
0.578074
0.577815
0.577319
0.577005
0.576387
0.575989
0.575165
0.574614
0.573368
0.572422
0.569623
0.196627
0.000255307
5.56321e-06
7.53272e-07
1.00788e-16
7.98218e-27
4.76617e-37
2.63893e-47
1.31993e-57
6.19572e-68
2.54403e-78
1.17806e-88
5.57207e-99
2.72692e-109
1.24136e-119
5.83066e-130
2.53436e-140
1.0266e-150
3.44687e-161
1.13995e-171
3.34709e-182
8.68804e-193
1.72805e-203
2.67284e-214
4.3328e-222
6.95479e-223
1.11e-223
8.88264e-225
2.13882e-227
2.32812e-237
1.62958e-247
2.27849e-256
1.32144e-264
4.53261e-273
1.05913e-281
2.15616e-290
3.72776e-299
5.71275e-308
2.92483e-315
2.94594e-315
3.19105e-315
2.87122e-315
2.41223e-315
2.35753e-315
2.21048e-315
2.01743e-315
1.83781e-315
1.54527e-315
1.2639e-315
1.34219e-315
1.18901e-315
1.19647e-315
1.00172e-315
1.35469e-315
1.25369e-315
7.0155e-316
1.75432e-316
0
0
0
0
0
0
0
0
0
0
0
0
0
0
0
0
0
0
0
0
0
0
0
0
0
0
0
0
0
0
0
0
0
0
0
0
0
0
0
0
0
0
0
0
0
0
0
0
0
0
0
0
0
0
0
0
0
0
0
0
0
0
0
0
0
0
0
0
0
0
0
0
0
0
0
0
0
0
0
0
0
0
0
0
0
0
0
0
0
0
0
0
0
0
0
0
0
0
0
0
0
0
0
0
0
0
0
0
0
0
0
0
0
0
0
0
0
0
0
0
0
0
0
0
0
0
0
0
0
0
0
0
0
0
0
0
0
0
0
0
0
0
0
0
0
0
0
0
0
0
0
0
0
0
0
0
0
0
0
0
0
0
0
0
0
0
0
0
0
0
0
0
0
0
0
0
0
0
0
0
0
0
0
0
0
0
0
0
0
0
0
0
0
0
0
0
0
0
0
0
0
0
0
0
0
0
0
0
0
)
;

boundaryField
{
    inlet
    {
        type            cyclic;
    }
    outlet
    {
        type            cyclic;
    }
    top
    {
        type            zeroGradient;
    }
    bottom
    {
        type            zeroGradient;
    }
    frontAndBackPlanes
    {
        type            empty;
    }
}


// ************************************************************************* //
