/*--------------------------------*- C++ -*----------------------------------*\
| =========                 |                                                 |
| \\      /  F ield         | OpenFOAM: The Open Source CFD Toolbox           |
|  \\    /   O peration     | Version:  2206                                  |
|   \\  /    A nd           | Website:  www.openfoam.com                      |
|    \\/     M anipulation  |                                                 |
\*---------------------------------------------------------------------------*/
FoamFile
{
    version     2.0;
    format      ascii;
    arch        "LSB;label=32;scalar=64";
    class       volScalarField;
    location    "20";
    object      muI;
}
// * * * * * * * * * * * * * * * * * * * * * * * * * * * * * * * * * * * * * //

dimensions      [0 0 0 0 0 0 0];

internalField   nonuniform List<scalar> 
344
(
0.630001
0.630001
0.63
0.63
0.63
0.63
0.63
0.63
0.63
0.63
0.63
0.63
0.63
0.63
0.63
0.63
0.63
0.63
0.63
0.63
0.63
0.63
0.63
0.63
0.63
0.63
0.63
0.63
0.63
0.63
0.63
0.63
0.63
0.63
0.63
0.63
0.63
0.63
0.63
0.63
0.63
0.63
0.63
0.63
0.63
0.63
0.63
0.63
0.63
0.63
0.63
0.63
0.63
0.63
0.63
0.63
0.63
0.63
0.63
0.63
0.63
0.63
0.63
0.63
0.63
0.63
0.63
0.63
0.63
0.63
0.63
0.63
0.63
0.63
0.63
0.63
0.63
0.63002
1.12772
1.12874
1.12472
1.12105
1.10612
1.01661
1.08518
0.851396
0.885943
0.756466
0.713264
0.630011
0.630011
0.630005
0.630003
0.630001
0.630001
0.630001
0.630002
0.630003
0.630006
0.630031
0.666265
0.866876
1.08078
1.12078
1.11911
0.630066
1.11745
1.11745
0.630006
0.630004
0.630004
0.630004
0.630004
0.630004
0.630004
0.630004
0.630004
0.630004
0.630004
0.630004
0.630004
0.630004
0.630004
0.630004
0.630006
1.11755
1.11756
0.630013
1.1176
1.11709
1.11565
1.11498
0.630006
1.11289
1.11289
0.630001
1.09132
1.09132
0.630004
1.103
1.10122
1.11426
1.11367
0.630007
1.11425
1.11425
0.630008
0.630027
1.05068
1.05068
0.630001
1.05091
1.05086
0.633785
0.6333
0.633719
0.633349
0.633906
1.11988
1.11988
0.630014
1.11896
1.11896
0.630005
0.63003
1.11703
1.11703
0.630017
1.11824
1.11768
1.11773
1.11712
0.630018
1.11824
1.11824
0.630031
0.630059
0.630043
0.630042
0.630042
0.630041
0.63004
0.630039
0.630039
0.630038
0.630037
0.630037
0.630044
0.920371
0.920385
0.63
0.927454
0.927441
0.630048
0.630048
0.630029
1.09221
1.09222
0.630001
1.0847
1.0847
0.630063
0.630067
0.63004
1.1121
1.1121
0.630005
1.11193
1.11193
0.630021
0.630017
0.630018
0.630017
0.630016
1.11987
1.11987
0.630031
1.11984
1.11984
0.63002
0.630016
0.630016
0.630016
0.630017
0.630013
1.11757
1.11757
0.63001
1.11771
1.11771
0.630009
0.630007
0.630007
0.630007
0.630007
0.630007
0.630007
0.630007
0.630006
0.630007
1.11883
1.11883
0.630009
1.11732
1.11732
0.630007
1.11552
1.11553
0.63001
1.11733
1.11733
0.63002
0.630017
0.630017
0.630017
0.630016
0.630018
0.630013
1.11665
1.11665
0.630011
1.11686
1.11612
1.11845
1.11787
0.630026
1.1189
1.11894
0.985587
0.991718
0.630001
0.96751
0.967503
0.63001
0.63004
0.972052
0.97206
0.63
0.966151
0.966144
0.630019
0.630016
1.11461
1.11461
0.630006
1.11369
1.11369
0.630022
0.630018
0.630018
0.630019
0.630015
1.11837
1.11837
0.630012
1.11835
1.11835
0.630021
0.630017
0.630017
0.630023
0.63001
1.10166
1.10166
0.630003
1.10204
1.10204
0.630022
0.630018
0.630019
0.630015
1.1179
1.1179
0.630012
1.11816
1.11816
0.630004
0.630003
0.630003
0.630003
0.630002
1.10729
1.10729
0.630003
1.10622
1.10622
0.630023
0.630019
0.630019
0.63002
0.630016
1.11776
1.11776
0.630012
1.11811
1.11811
0.630003
0.630002
0.630002
0.630001
0.630001
0.630001
0.63
0.63
)
;

boundaryField
{
    inlet
    {
        type            cyclic;
    }
    outlet
    {
        type            cyclic;
    }
    top
    {
        type            calculated;
        value           uniform 0.63;
    }
    bottom
    {
        type            calculated;
        value           uniform 0.630006;
    }
    frontAndBackPlanes
    {
        type            empty;
    }
}


// ************************************************************************* //
