/*--------------------------------*- C++ -*----------------------------------*\
| =========                 |                                                 |
| \\      /  F ield         | OpenFOAM: The Open Source CFD Toolbox           |
|  \\    /   O peration     | Version:  2206                                  |
|   \\  /    A nd           | Website:  www.openfoam.com                      |
|    \\/     M anipulation  |                                                 |
\*---------------------------------------------------------------------------*/
FoamFile
{
    version     2.0;
    format      ascii;
    arch        "LSB;label=32;scalar=64";
    class       volScalarField;
    location    "20";
    object      nuFra;
}
// * * * * * * * * * * * * * * * * * * * * * * * * * * * * * * * * * * * * * //

dimensions      [0 2 -1 0 0 0 0];

internalField   nonuniform List<scalar> 
344
(
0.01
0.01
0.01
0.01
0.01
0.01
0.01
0.01
0.01
0.01
0.01
0.01
0.01
0.01
0.01
0.01
0.01
0.01
0.01
0.01
0.01
0.01
0.01
0.01
0.01
0.01
0.01
0.01
0.01
0.01
0.01
0.01
0.01
0.01
0.01
0.01
0.01
0.01
0.01
0.01
0.01
0.01
0.01
0.01
0.01
0.01
0.01
0.01
0.01
0.01
0.01
0.01
0.01
0.01
0.01
0.01
0.01
0.01
0.01
0.01
0.01
0.01
0.01
0.01
0.01
0.01
0.01
0.01
0.01
0.01
0.01
0.01
0.01
0.01
0.01
0.01
0.01
0.01
2.78217e-11
1.54469e-11
6.47105e-11
1.10228e-10
2.99397e-10
1.60872e-09
5.76522e-10
5.78083e-09
4.55822e-09
1.20556e-08
1.92617e-08
0.000127505
0.000128425
0.000193088
0.000211193
0.00022824
0.000231274
0.000230561
0.000225577
0.000212368
0.000173939
5.26986e-05
4.59697e-08
5.19562e-09
6.36684e-10
1.13576e-10
1.34454e-10
2.57867e-05
1.55217e-10
1.55226e-10
0.000179609
0.000197967
0.000197952
0.000197932
0.000197959
0.000197949
0.000197965
0.00019796
0.000197969
0.000197965
0.000197969
0.000197966
0.000197977
0.000197872
0.00019762
0.000208413
0.000183784
1.53916e-10
1.53914e-10
0.000117286
1.53412e-10
1.59734e-10
1.77822e-10
1.86367e-10
0.00017944
2.12725e-10
2.12728e-10
0.000227735
4.93695e-10
4.93686e-10
0.000201479
3.39659e-10
3.62879e-10
1.95399e-10
2.02859e-10
0.000167551
1.95516e-10
1.95518e-10
0.000156189
6.11794e-05
1.06891e-09
1.06888e-09
0.000230284
1.06546e-09
1.06629e-09
4.48358e-07
5.1425e-07
4.56253e-07
5.06827e-07
4.34369e-07
1.24871e-10
1.24883e-10
0.00010714
1.36273e-10
1.36275e-10
0.000194939
5.50176e-05
1.60534e-10
1.60531e-10
9.12301e-05
1.45307e-10
1.52359e-10
1.51664e-10
1.59357e-10
8.90599e-05
1.45331e-10
1.45333e-10
5.32569e-05
2.84355e-05
3.88097e-05
3.959e-05
3.95296e-05
4.08627e-05
4.16188e-05
4.24598e-05
4.32872e-05
4.40717e-05
4.48004e-05
4.4994e-05
3.82472e-05
3.5851e-09
3.58475e-09
0.000231578
3.40751e-09
3.40784e-09
3.49596e-05
3.50658e-05
5.6042e-05
4.81758e-10
4.81753e-10
0.000227408
5.8302e-10
5.83032e-10
2.66804e-05
2.52337e-05
4.17034e-05
2.22819e-10
2.22817e-10
0.0001925
2.2493e-10
2.24932e-10
7.63915e-05
8.99933e-05
8.81826e-05
9.39772e-05
9.50659e-05
1.24963e-10
1.2496e-10
5.3022e-05
1.25327e-10
1.2533e-10
8.10657e-05
9.44971e-05
9.54097e-05
9.61513e-05
8.97434e-05
0.000113119
1.53738e-10
1.53736e-10
0.000134519
1.51963e-10
1.51965e-10
0.000148259
0.000167764
0.000168166
0.000168174
0.000168145
0.000168245
0.000168297
0.000165623
0.000179448
0.000162638
1.37949e-10
1.37947e-10
0.000147962
1.56831e-10
1.56833e-10
0.000170886
1.79445e-10
1.79442e-10
0.00014029
1.56776e-10
1.56778e-10
7.94835e-05
9.29154e-05
9.34713e-05
9.36605e-05
9.4861e-05
8.61253e-05
0.000114029
1.6532e-10
1.65318e-10
0.000125502
1.62632e-10
1.71998e-10
1.42759e-10
1.49919e-10
6.23436e-05
1.37032e-10
1.36564e-10
2.15972e-09
2.04562e-09
0.000231095
2.51325e-09
2.51339e-09
0.000139525
4.18764e-05
2.42188e-09
2.42172e-09
0.000231772
2.54095e-09
2.5411e-09
8.23527e-05
9.70767e-05
1.90972e-10
1.90971e-10
0.000183002
2.02647e-10
2.02649e-10
7.43168e-05
8.72591e-05
8.77699e-05
8.52272e-05
0.000100567
1.4371e-10
1.43708e-10
0.000120108
1.43944e-10
1.43945e-10
7.70152e-05
9.09021e-05
9.38591e-05
6.98987e-05
0.000135317
3.57202e-10
3.57198e-10
0.00021633
3.52199e-10
3.52203e-10
7.39565e-05
8.64254e-05
8.45648e-05
0.00010006
1.496e-10
1.49598e-10
0.000123278
1.46274e-10
1.46276e-10
0.000205373
0.000219427
0.000219099
0.000218949
0.000222657
2.84317e-10
2.84314e-10
0.000210392
2.97995e-10
2.97998e-10
7.16037e-05
8.4166e-05
8.49792e-05
8.12568e-05
9.86065e-05
1.51381e-10
1.51379e-10
0.000124196
1.46922e-10
1.46924e-10
0.000215553
0.000226556
0.000226704
0.000227712
0.000229267
0.000230997
0.000231873
0.000231805
)
;

boundaryField
{
    inlet
    {
        type            cyclic;
    }
    outlet
    {
        type            cyclic;
    }
    top
    {
        type            calculated;
        value           uniform 0.000231873;
    }
    bottom
    {
        type            calculated;
        value           uniform 0.01;
    }
    frontAndBackPlanes
    {
        type            empty;
    }
}


// ************************************************************************* //
