/*--------------------------------*- C++ -*----------------------------------*\
| =========                 |                                                 |
| \\      /  F ield         | OpenFOAM: The Open Source CFD Toolbox           |
|  \\    /   O peration     | Version:  2206                                  |
|   \\  /    A nd           | Website:  www.openfoam.com                      |
|    \\/     M anipulation  |                                                 |
\*---------------------------------------------------------------------------*/
FoamFile
{
    version     2.0;
    format      ascii;
    arch        "LSB;label=32;scalar=64";
    class       volScalarField;
    location    "20";
    object      p_rbgh;
}
// * * * * * * * * * * * * * * * * * * * * * * * * * * * * * * * * * * * * * //

dimensions      [1 -1 -2 0 0 0 0];

internalField   nonuniform List<scalar> 
344
(
0.0552065
0.0615039
0.0615856
0.0616025
0.0616063
0.0616087
0.0616068
0.0615968
0.0615763
0.0615403
0.0614846
0.0614032
0.0612913
0.061143
0.0609532
0.0607176
0.0604316
0.0600943
0.0597036
0.0592642
0.0587775
0.0582553
0.0577035
0.0571408
0.0565783
0.0560392
0.0555391
0.0551019
0.0547457
0.0544895
0.0543508
0.0543387
0.054466
0.0547286
0.0551311
0.0556569
0.0563
0.0570372
0.0578514
0.0587229
0.0596235
0.0605504
0.0614659
0.0623951
0.0632931
0.0642184
0.0651219
0.0660899
0.067074
0.0681704
0.0693379
0.0706531
0.0720917
0.0736737
0.0754023
0.0772041
0.0791199
0.0809563
0.0827948
0.0843233
0.0856515
0.0864033
0.0866818
0.0861867
0.0849713
0.0830264
0.0803716
0.0774404
0.0743899
0.0718344
0.0703329
0.069806
0.0709712
0.0729159
0.0744812
0.077994
0.0772786
0.0868946
0.166754
-0.127926
0.103886
-0.0795746
0.0574708
-0.0396662
0.0266456
-0.0178513
0.012235
-0.00871553
0.00644669
-0.00488704
0.00374175
-0.00286635
0.00218873
-0.00166527
0.00126312
-0.000955454
0.000720675
-0.000541926
0.000406264
-0.000303738
0.000226622
-0.000168882
0.000125811
-9.37606e-05
6.99405e-05
-5.22372e-05
3.90696e-05
-2.92611e-05
2.19429e-05
-1.64725e-05
1.23769e-05
-9.30545e-06
6.99925e-06
-5.2654e-06
3.96063e-06
-2.97771e-06
2.2364e-06
-1.67655e-06
1.25259e-06
-9.30477e-07
6.83693e-07
-4.92724e-07
3.45923e-07
-2.35308e-07
1.54687e-07
-9.74158e-08
5.85975e-08
-3.32571e-08
1.77976e-08
-8.86313e-09
4.15154e-09
-1.82801e-09
7.68316e-10
-3.28625e-10
1.20828e-10
-6.6388e-11
6.58929e-12
-2.53154e-11
-1.12107e-11
-1.57908e-11
-1.2693e-11
-1.28027e-11
-1.15653e-11
-1.0955e-11
-1.01385e-11
-9.43649e-12
-8.67312e-12
-7.96237e-12
-7.26286e-12
-6.59783e-12
-5.9553e-12
-5.36687e-12
-4.8199e-12
-4.28297e-12
-3.74796e-12
-3.23515e-12
-2.75064e-12
-2.2873e-12
-1.85506e-12
-1.46497e-12
-1.12553e-12
-8.16373e-13
-5.46333e-13
-3.17124e-13
-1.43757e-13
-1.75853e-15
6.75577e-14
1.39289e-13
2.43071e-13
2.61458e-13
2.25859e-13
2.13128e-13
1.87668e-13
1.67948e-13
1.46234e-13
1.27406e-13
1.10852e-13
9.39259e-14
7.75252e-14
6.19498e-14
4.78907e-14
3.4314e-14
2.20539e-14
1.08701e-14
1.53801e-15
-7.79469e-15
-1.64469e-14
-2.46181e-14
-3.18413e-14
-3.87185e-14
-4.47874e-14
-5.0233e-14
-5.46891e-14
-5.86495e-14
-6.17603e-14
-6.42015e-14
-6.5729e-14
-6.66571e-14
-6.66035e-14
-6.54782e-14
-6.97257e-14
-6.79461e-14
-6.65995e-14
-6.55583e-14
-6.45465e-14
-6.37096e-14
-6.29421e-14
-6.2318e-14
-6.18016e-14
-6.13395e-14
-6.09353e-14
-6.05965e-14
-6.02615e-14
-5.99759e-14
-5.969e-14
-5.94093e-14
-5.91203e-14
-5.88487e-14
-5.85825e-14
-5.83266e-14
-5.80352e-14
-5.77487e-14
-5.74158e-14
-5.70395e-14
-5.66119e-14
-5.61091e-14
-5.5515e-14
-5.48322e-14
-5.40842e-14
-5.31073e-14
-5.21288e-14
-5.11323e-14
-5.27338e-14
-5.17315e-14
-5.07418e-14
-4.97483e-14
-4.89804e-14
-4.82716e-14
-4.76486e-14
-4.71136e-14
-4.6655e-14
-4.62399e-14
-4.58664e-14
-4.55364e-14
-4.5206e-14
-4.49076e-14
-4.46045e-14
-4.4299e-14
-4.39877e-14
-4.36824e-14
-4.33797e-14
-4.30821e-14
-4.27525e-14
-4.24236e-14
-4.20514e-14
-4.16379e-14
-4.11811e-14
-4.06483e-14
-4.00278e-14
-3.93222e-14
-3.85567e-14
-3.75681e-14
-3.65806e-14
-3.55782e-14
-3.71694e-14
-3.61669e-14
-3.51793e-14
-3.41906e-14
-3.34251e-14
-3.27193e-14
-3.20987e-14
-3.15658e-14
-3.11088e-14
-3.06951e-14
-3.03228e-14
-2.99936e-14
-2.96639e-14
-2.93661e-14
-2.90632e-14
-2.87579e-14
-2.84466e-14
-2.81411e-14
-2.78381e-14
-2.75398e-14
-2.72097e-14
-2.68799e-14
-2.6507e-14
-2.60926e-14
-2.56349e-14
-2.5101e-14
-2.44794e-14
-2.37726e-14
-2.30062e-14
-2.20165e-14
-2.10282e-14
-2.00247e-14
-2.16118e-14
-2.0606e-14
-1.9613e-14
-1.86161e-14
-1.78404e-14
-1.71213e-14
-1.64855e-14
-1.59353e-14
-1.54607e-14
-1.5024e-14
-1.46267e-14
-1.42703e-14
-1.39164e-14
-1.35915e-14
-1.3267e-14
-1.29442e-14
-1.26172e-14
-1.22908e-14
-1.19681e-14
-1.16505e-14
-1.13316e-14
-1.10161e-14
-1.07005e-14
-1.03854e-14
-1.00679e-14
-9.75394e-15
-9.44069e-15
-9.12869e-15
-8.81455e-15
-8.50304e-15
-8.18774e-15
-7.8701e-15
-7.55313e-15
-7.24304e-15
-6.93348e-15
-6.62572e-15
-6.29026e-15
-5.95518e-15
-5.57954e-15
-5.16517e-15
-4.71071e-15
-4.1859e-15
-3.57467e-15
-2.8793e-15
-2.11772e-15
-1.13065e-15
-1.32876e-16
8.85754e-16
)
;

boundaryField
{
    inlet
    {
        type            cyclic;
    }
    outlet
    {
        type            cyclic;
    }
    top
    {
        type            fixedValue;
        value           uniform 0;
    }
    bottom
    {
        type            fixedFluxPressure;
        gradient        uniform 0;
        value           uniform 0.0552065;
    }
    frontAndBackPlanes
    {
        type            empty;
    }
}


// ************************************************************************* //
