/*--------------------------------*- C++ -*----------------------------------*\
| =========                 |                                                 |
| \\      /  F ield         | OpenFOAM: The Open Source CFD Toolbox           |
|  \\    /   O peration     | Version:  2206                                  |
|   \\  /    A nd           | Website:  www.openfoam.com                      |
|    \\/     M anipulation  |                                                 |
\*---------------------------------------------------------------------------*/
FoamFile
{
    version     2.0;
    format      ascii;
    arch        "LSB;label=32;scalar=64";
    class       surfaceScalarField;
    location    "20";
    object      phi.a;
}
// * * * * * * * * * * * * * * * * * * * * * * * * * * * * * * * * * * * * * //

dimensions      [0 3 -1 0 0 0 0];

oriented        oriented;

internalField   nonuniform List<scalar> 
343
(
9.79522e-18
1.68285e-17
1.90616e-17
1.88774e-17
8.31684e-18
-1.19823e-17
-4.91714e-17
-9.73764e-17
-1.68963e-16
-2.59996e-16
-3.79038e-16
-5.19936e-16
-6.8971e-16
-8.82476e-16
-1.09682e-15
-1.3326e-15
-1.57381e-15
-1.82475e-15
-2.0563e-15
-2.27945e-15
-2.45146e-15
-2.59243e-15
-2.6503e-15
-2.65245e-15
-2.54881e-15
-2.36807e-15
-2.07722e-15
-1.69797e-15
-1.22884e-15
-6.75358e-16
-7.67248e-17
5.83453e-16
1.22788e-15
1.89362e-15
2.4845e-15
3.04729e-15
3.50173e-15
3.87538e-15
4.15472e-15
4.30348e-15
4.43164e-15
4.38886e-15
4.45279e-15
4.31829e-15
4.44204e-15
4.35533e-15
4.65547e-15
4.75348e-15
5.28557e-15
5.65074e-15
6.36282e-15
6.97967e-15
7.68613e-15
8.41141e-15
8.79643e-15
9.35327e-15
9.01422e-15
9.01044e-15
7.55402e-15
6.53956e-15
3.76483e-15
1.39068e-15
-2.40206e-15
-6.00548e-15
-9.66339e-15
-1.32182e-14
-1.46993e-14
-1.53198e-14
-1.29165e-14
-7.68313e-15
-2.6719e-15
5.8191e-15
9.92214e-15
8.33528e-15
1.78204e-14
-4.44174e-15
2.72452e-14
7.52999e-14
-2.00995e-09
-5.02773e-09
-5.35985e-09
-5.14724e-09
-5.25033e-09
-5.27612e-09
-5.35187e-09
-5.36092e-09
-5.36894e-09
-5.37164e-09
-5.37317e-09
-5.37317e-09
-5.37317e-09
-5.37317e-09
-5.37317e-09
-5.37317e-09
-5.37317e-09
-5.37317e-09
-5.37317e-09
-5.37317e-09
-5.37317e-09
-5.37317e-09
-5.37256e-09
-5.36552e-09
-5.29398e-09
-4.87795e-09
-4.52699e-09
-4.52699e-09
-4.83052e-09
-5.13403e-09
-5.13403e-09
-5.13403e-09
-5.13403e-09
-5.13403e-09
-5.13403e-09
-5.13403e-09
-5.13403e-09
-5.13403e-09
-5.13403e-09
-5.13403e-09
-5.13403e-09
-5.13403e-09
-5.13403e-09
-5.13403e-09
-5.13403e-09
-5.13403e-09
-5.13403e-09
-4.82791e-09
-4.52178e-09
-4.52178e-09
-4.82892e-09
-5.12377e-09
-4.85925e-09
-4.60701e-09
-4.60701e-09
-4.82758e-09
-5.04815e-09
-5.04815e-09
-4.95495e-09
-4.86175e-09
-4.86175e-09
-4.99867e-09
-5.12661e-09
-4.88619e-09
-4.65473e-09
-4.65473e-09
-4.89501e-09
-5.13528e-09
-5.13528e-09
-5.13528e-09
-5.09384e-09
-5.0524e-09
-5.0524e-09
-5.09399e-09
-5.13554e-09
-5.13548e-09
-5.13543e-09
-5.13537e-09
-5.13532e-09
-5.13526e-09
-4.75714e-09
-4.37906e-09
-4.37906e-09
-4.72525e-09
-5.07144e-09
-5.07144e-09
-5.07144e-09
-4.77808e-09
-4.48471e-09
-4.48471e-09
-4.80917e-09
-5.11845e-09
-4.80773e-09
-4.51218e-09
-4.51218e-09
-4.83658e-09
-5.16098e-09
-5.16098e-09
-5.16098e-09
-5.16098e-09
-5.16098e-09
-5.16099e-09
-5.16099e-09
-5.16099e-09
-5.16099e-09
-5.16099e-09
-5.16099e-09
-5.16099e-09
-5.16099e-09
-5.16099e-09
-5.15017e-09
-5.13934e-09
-5.13934e-09
-5.15082e-09
-5.16229e-09
-5.16229e-09
-5.16229e-09
-5.16229e-09
-5.0667e-09
-4.97112e-09
-4.97112e-09
-5.04956e-09
-5.128e-09
-5.128e-09
-5.128e-09
-5.12799e-09
-4.91757e-09
-4.70714e-09
-4.70714e-09
-4.91556e-09
-5.12398e-09
-5.12398e-09
-5.12398e-09
-5.12398e-09
-5.12398e-09
-5.12398e-09
-4.74615e-09
-4.36831e-09
-4.36831e-09
-4.74504e-09
-5.12175e-09
-5.12175e-09
-5.12175e-09
-5.12175e-09
-5.12175e-09
-5.12175e-09
-5.12175e-09
-4.81527e-09
-4.50878e-09
-4.50878e-09
-4.81888e-09
-5.12898e-09
-5.12898e-09
-5.12898e-09
-5.12898e-09
-5.12898e-09
-5.12898e-09
-5.12898e-09
-5.12898e-09
-5.12898e-09
-5.12898e-09
-5.12898e-09
-4.78703e-09
-4.44508e-09
-4.44508e-09
-4.74545e-09
-5.04582e-09
-5.04582e-09
-4.78372e-09
-4.52162e-09
-4.52163e-09
-4.8221e-09
-5.12257e-09
-5.12257e-09
-5.12257e-09
-5.12257e-09
-5.12257e-09
-5.12257e-09
-5.12257e-09
-5.12257e-09
-4.8378e-09
-4.55302e-09
-4.55302e-09
-4.84256e-09
-5.11615e-09
-4.78584e-09
-4.47146e-09
-4.47146e-09
-4.81572e-09
-5.16117e-09
-5.14193e-09
-5.12149e-09
-5.12149e-09
-5.13772e-09
-5.15395e-09
-5.15395e-09
-5.15395e-09
-5.13702e-09
-5.1201e-09
-5.1201e-09
-5.13613e-09
-5.15216e-09
-5.15216e-09
-5.15216e-09
-4.90609e-09
-4.66002e-09
-4.66002e-09
-4.89172e-09
-5.12342e-09
-5.12342e-09
-5.12342e-09
-5.12342e-09
-5.12342e-09
-5.12342e-09
-4.79532e-09
-4.46721e-09
-4.46721e-09
-4.79478e-09
-5.12234e-09
-5.12234e-09
-5.12233e-09
-5.12233e-09
-5.12233e-09
-5.12233e-09
-4.9923e-09
-4.86227e-09
-4.86227e-09
-4.9942e-09
-5.12612e-09
-5.12612e-09
-5.12612e-09
-5.12612e-09
-5.12612e-09
-4.81106e-09
-4.49601e-09
-4.49601e-09
-4.8183e-09
-5.14059e-09
-5.14059e-09
-5.14059e-09
-5.14059e-09
-5.14059e-09
-5.14059e-09
-4.97639e-09
-4.81219e-09
-4.81219e-09
-4.9687e-09
-5.12521e-09
-5.12521e-09
-5.12521e-09
-5.12521e-09
-5.12521e-09
-5.12521e-09
-4.8139e-09
-4.50259e-09
-4.50259e-09
-4.82345e-09
-5.1443e-09
-5.1443e-09
-5.1443e-09
-5.1443e-09
-5.1443e-09
-5.1443e-09
-5.1443e-09
-5.1443e-09
)
;

boundaryField
{
    inlet
    {
        type            cyclic;
        value           nonuniform List<scalar> 
344
(
7.80829e-24
1.4994e-23
2.23834e-23
2.99811e-23
3.76925e-23
3.81109e-23
3.86968e-23
3.95774e-23
4.06211e-23
3.55897e-23
3.07489e-23
2.62412e-23
2.21109e-23
1.83836e-23
1.50547e-23
1.21055e-23
9.51147e-24
7.24591e-24
5.28102e-24
3.5883e-24
2.13907e-24
9.0499e-25
-1.408e-25
-1.02425e-24
-1.76876e-24
-2.39525e-24
-2.92169e-24
-3.3629e-24
-3.73032e-24
-4.03202e-24
-4.27266e-24
-4.45376e-24
-4.57387e-24
-4.62898e-24
-4.61296e-24
-4.51808e-24
-4.33552e-24
-4.05594e-24
-3.6703e-24
-3.17017e-24
-2.54829e-24
-1.79904e-24
-9.18719e-25
9.44475e-26
1.23981e-24
2.51552e-24
3.91847e-24
5.44447e-24
7.08936e-24
8.85344e-24
1.07458e-23
1.28249e-23
1.17045e-23
1.07474e-23
9.87393e-24
9.05391e-24
8.26887e-24
7.50775e-24
6.76273e-24
6.02884e-24
5.30369e-24
4.5879e-24
3.8824e-24
3.19047e-24
2.51535e-24
1.8616e-24
1.2338e-24
6.3656e-25
7.42175e-26
-4.49041e-25
-9.29852e-25
-1.36486e-24
-1.75172e-24
-2.08854e-24
-2.37382e-24
-2.60647e-24
-2.78583e-24
-2.91333e-24
-2.91265e-24
-2.69194e-24
-2.2289e-24
-5.65541e-24
-1.2927e-23
-1.1248e-23
-7.88527e-24
-6.11612e-24
-3.57552e-24
-1.43777e-24
-3.71483e-25
-3.71202e-25
-3.71005e-25
-3.70849e-25
-3.70744e-25
-3.70659e-25
-3.70589e-25
-3.70533e-25
-3.70489e-25
-3.70459e-25
-3.70441e-25
-3.70431e-25
-3.70419e-25
-3.62147e-25
-3.1683e-25
-1.55028e-25
6.09402e-29
6.25146e-29
6.40607e-29
5.60964e-26
5.61019e-26
5.62384e-26
5.65068e-26
5.69044e-26
5.74176e-26
5.80284e-26
5.87159e-26
5.94563e-26
6.0224e-26
6.09925e-26
6.17352e-26
6.24265e-26
6.30425e-26
6.35621e-26
6.39675e-26
6.42371e-26
6.43704e-26
6.4369e-26
-2.97044e-24
-2.97045e-24
-2.97044e-24
-8.91138e-25
-2.22132e-25
-1.33055e-26
-1.33051e-26
-1.3305e-26
-2.70128e-27
-2.70127e-27
-2.70126e-27
-1.46461e-27
-1.46461e-27
-1.4646e-27
8.04656e-28
4.01339e-27
1.09152e-26
1.09156e-26
1.09354e-26
6.95005e-24
6.95008e-24
6.9501e-24
6.94994e-24
1.54993e-23
4.01346e-24
-7.47242e-24
1.87671e-24
1.99296e-24
-1.59241e-24
-5.16713e-24
-5.19964e-24
-5.18925e-24
-5.18111e-24
-2.06302e-24
-2.06301e-24
-2.063e-24
-2.99907e-25
-2.99905e-25
-2.99904e-25
-2.99899e-25
-7.68666e-27
-7.68567e-27
-7.68542e-27
4.05875e-26
1.31883e-25
3.32762e-25
3.32766e-25
3.32821e-25
2.55046e-23
1.38671e-23
8.93094e-24
9.08239e-24
9.49582e-24
5.90638e-24
2.68724e-24
-1.35204e-24
-5.91668e-24
-8.86286e-24
-1.18825e-23
-1.60445e-23
-2.02378e-23
-2.25408e-23
-2.24555e-23
-2.38054e-23
-2.38051e-23
-2.3805e-23
-2.28202e-23
-2.27478e-23
-2.68112e-23
-2.99325e-23
-2.98866e-23
5.50895e-24
-5.97948e-24
-1.74679e-23
-2.79441e-24
-2.72507e-24
-6.53396e-24
-9.49796e-24
-9.45419e-24
9.60188e-24
-1.88597e-24
-1.33738e-23
6.2945e-24
6.42689e-24
3.1333e-24
-2.70297e-25
-4.01114e-24
-7.32273e-24
-7.45766e-24
9.60081e-24
-1.88762e-24
-1.3376e-23
6.28144e-24
6.30369e-24
6.87357e-24
3.01513e-24
-7.72224e-25
-4.0687e-24
-7.51123e-24
-7.45327e-24
-3.46829e-25
-3.46799e-25
-3.46742e-25
1.45819e-23
1.44099e-23
1.04819e-23
6.89148e-24
2.94023e-24
-7.97403e-25
-6.1445e-25
-4.31934e-25
-4.0604e-24
-7.54523e-24
-1.04623e-23
-2.20671e-23
-8.13254e-25
-8.13238e-25
-8.13222e-25
4.08685e-24
4.08687e-24
4.08685e-24
1.31235e-23
1.63574e-24
-9.85213e-24
7.64437e-24
7.64315e-24
7.60452e-24
7.2434e-24
4.31383e-24
1.45177e-24
-2.5691e-24
-5.98461e-24
-6.10355e-24
-6.27754e-26
-6.27447e-26
-6.27283e-26
-2.20218e-25
-6.75994e-25
-2.62825e-25
-2.62827e-25
-2.62809e-25
2.91684e-24
4.22095e-24
5.32204e-24
5.32207e-24
5.32212e-24
8.30666e-24
-3.11731e-24
-9.67257e-24
-9.47043e-24
-1.25553e-23
-1.25553e-23
-1.25552e-23
-1.30613e-23
-1.30614e-23
-1.30614e-23
-1.30612e-23
-3.93751e-26
-3.93484e-26
-3.93477e-26
-6.79047e-27
-6.79033e-27
-6.79021e-27
-6.79006e-27
-6.78991e-27
-6.78981e-27
-6.78975e-27
-6.84552e-31
-6.68508e-31
-6.68191e-31
-1.73065e-34
-1.70561e-34
-1.69616e-34
-1.68968e-34
-1.68471e-34
-1.68213e-34
-1.68204e-34
-2.21799e-38
-2.16337e-38
-2.16229e-38
-7.89175e-41
-7.87133e-41
-7.86391e-41
-7.85907e-41
-7.85651e-41
-7.85586e-41
3.80343e-43
3.74555e-43
3.94802e-43
-5.72925e-41
-5.73145e-41
-5.72817e-41
-5.72126e-41
-5.71193e-41
-5.70193e-41
-5.68456e-41
-6.41537e-39
-6.41561e-39
-6.41518e-39
3.29641e-38
3.29636e-38
3.29633e-38
3.29629e-38
3.29626e-38
3.29623e-38
3.29621e-38
2.41323e-40
2.41325e-40
2.39115e-40
-4.50272e-37
-4.50273e-37
-4.50274e-37
-4.50277e-37
-4.5028e-37
-4.50284e-37
-4.50287e-37
-4.50289e-37
-4.5029e-37
)
;
    }
    outlet
    {
        type            cyclic;
        value           nonuniform List<scalar> 
344
(
-7.80829e-24
-1.4994e-23
-2.23834e-23
-2.99811e-23
-3.76925e-23
-3.81109e-23
-3.86968e-23
-3.95774e-23
-4.06211e-23
-3.55897e-23
-3.07489e-23
-2.62412e-23
-2.21109e-23
-1.83836e-23
-1.50547e-23
-1.21055e-23
-9.51147e-24
-7.24591e-24
-5.28102e-24
-3.5883e-24
-2.13907e-24
-9.0499e-25
1.408e-25
1.02425e-24
1.76876e-24
2.39525e-24
2.92169e-24
3.3629e-24
3.73032e-24
4.03202e-24
4.27266e-24
4.45376e-24
4.57387e-24
4.62898e-24
4.61296e-24
4.51808e-24
4.33552e-24
4.05594e-24
3.6703e-24
3.17017e-24
2.54829e-24
1.79904e-24
9.18719e-25
-9.44475e-26
-1.23981e-24
-2.51552e-24
-3.91847e-24
-5.44447e-24
-7.08936e-24
-8.85344e-24
-1.07458e-23
-1.28249e-23
-1.17045e-23
-1.07474e-23
-9.87393e-24
-9.05391e-24
-8.26887e-24
-7.50775e-24
-6.76273e-24
-6.02884e-24
-5.30369e-24
-4.5879e-24
-3.8824e-24
-3.19047e-24
-2.51535e-24
-1.8616e-24
-1.2338e-24
-6.3656e-25
-7.42175e-26
4.49041e-25
9.29852e-25
1.36486e-24
1.75172e-24
2.08854e-24
2.37382e-24
2.60647e-24
2.78583e-24
2.91333e-24
2.91265e-24
2.69194e-24
2.2289e-24
5.65541e-24
1.2927e-23
1.1248e-23
7.88527e-24
6.11612e-24
3.57552e-24
1.43777e-24
3.71483e-25
3.71202e-25
3.71005e-25
3.70849e-25
3.70744e-25
3.70659e-25
3.70589e-25
3.70533e-25
3.70489e-25
3.70459e-25
3.70441e-25
3.70431e-25
3.70419e-25
3.62147e-25
3.1683e-25
1.55028e-25
-6.09402e-29
-6.25146e-29
-6.40607e-29
-5.60964e-26
-5.61019e-26
-5.62384e-26
-5.65068e-26
-5.69044e-26
-5.74176e-26
-5.80284e-26
-5.87159e-26
-5.94563e-26
-6.0224e-26
-6.09925e-26
-6.17352e-26
-6.24265e-26
-6.30425e-26
-6.35621e-26
-6.39675e-26
-6.42371e-26
-6.43704e-26
-6.4369e-26
2.97044e-24
2.97045e-24
2.97044e-24
8.91138e-25
2.22132e-25
1.33055e-26
1.33051e-26
1.3305e-26
2.70128e-27
2.70127e-27
2.70126e-27
1.46461e-27
1.46461e-27
1.4646e-27
-8.04656e-28
-4.01339e-27
-1.09152e-26
-1.09156e-26
-1.09354e-26
-6.95005e-24
-6.95008e-24
-6.9501e-24
-6.94994e-24
-1.54993e-23
-4.01346e-24
7.47242e-24
-1.87671e-24
-1.99296e-24
1.59241e-24
5.16713e-24
5.19964e-24
5.18925e-24
5.18111e-24
2.06302e-24
2.06301e-24
2.063e-24
2.99907e-25
2.99905e-25
2.99904e-25
2.99899e-25
7.68666e-27
7.68567e-27
7.68542e-27
-4.05875e-26
-1.31883e-25
-3.32762e-25
-3.32766e-25
-3.32821e-25
-2.55046e-23
-1.38671e-23
-8.93094e-24
-9.08239e-24
-9.49582e-24
-5.90638e-24
-2.68724e-24
1.35204e-24
5.91668e-24
8.86286e-24
1.18825e-23
1.60445e-23
2.02378e-23
2.25408e-23
2.24555e-23
2.38054e-23
2.38051e-23
2.3805e-23
2.28202e-23
2.27478e-23
2.68112e-23
2.99325e-23
2.98866e-23
-5.50895e-24
5.97948e-24
1.74679e-23
2.79441e-24
2.72507e-24
6.53396e-24
9.49796e-24
9.45419e-24
-9.60188e-24
1.88597e-24
1.33738e-23
-6.2945e-24
-6.42689e-24
-3.1333e-24
2.70297e-25
4.01114e-24
7.32273e-24
7.45766e-24
-9.60081e-24
1.88762e-24
1.3376e-23
-6.28144e-24
-6.30369e-24
-6.87357e-24
-3.01513e-24
7.72224e-25
4.0687e-24
7.51123e-24
7.45327e-24
3.46829e-25
3.46799e-25
3.46742e-25
-1.45819e-23
-1.44099e-23
-1.04819e-23
-6.89148e-24
-2.94023e-24
7.97403e-25
6.1445e-25
4.31934e-25
4.0604e-24
7.54523e-24
1.04623e-23
2.20671e-23
8.13254e-25
8.13238e-25
8.13222e-25
-4.08685e-24
-4.08687e-24
-4.08685e-24
-1.31235e-23
-1.63574e-24
9.85213e-24
-7.64437e-24
-7.64315e-24
-7.60452e-24
-7.2434e-24
-4.31383e-24
-1.45177e-24
2.5691e-24
5.98461e-24
6.10355e-24
6.27754e-26
6.27447e-26
6.27283e-26
2.20218e-25
6.75994e-25
2.62825e-25
2.62827e-25
2.62809e-25
-2.91684e-24
-4.22095e-24
-5.32204e-24
-5.32207e-24
-5.32212e-24
-8.30666e-24
3.11731e-24
9.67257e-24
9.47043e-24
1.25553e-23
1.25553e-23
1.25552e-23
1.30613e-23
1.30614e-23
1.30614e-23
1.30612e-23
3.93751e-26
3.93484e-26
3.93477e-26
6.79047e-27
6.79033e-27
6.79021e-27
6.79006e-27
6.78991e-27
6.78981e-27
6.78975e-27
6.84552e-31
6.68508e-31
6.68191e-31
1.73065e-34
1.70561e-34
1.69616e-34
1.68968e-34
1.68471e-34
1.68213e-34
1.68204e-34
2.21799e-38
2.16337e-38
2.16229e-38
7.89175e-41
7.87133e-41
7.86391e-41
7.85907e-41
7.85651e-41
7.85586e-41
-3.80343e-43
-3.74555e-43
-3.94802e-43
5.72925e-41
5.73145e-41
5.72817e-41
5.72126e-41
5.71193e-41
5.70193e-41
5.68456e-41
6.41537e-39
6.41561e-39
6.41518e-39
-3.29641e-38
-3.29636e-38
-3.29633e-38
-3.29629e-38
-3.29626e-38
-3.29623e-38
-3.29621e-38
-2.41323e-40
-2.41325e-40
-2.39115e-40
4.50272e-37
4.50273e-37
4.50274e-37
4.50277e-37
4.5028e-37
4.50284e-37
4.50287e-37
4.50289e-37
4.5029e-37
)
;
    }
    top
    {
        type            calculated;
        value           uniform -5.1443e-09;
    }
    bottom
    {
        type            fixedValue;
        value           uniform 0;
    }
    frontAndBackPlanes
    {
        type            empty;
        value           nonuniform List<scalar> 0();
    }
}


// ************************************************************************* //
