/*--------------------------------*- C++ -*----------------------------------*\
| =========                 |                                                 |
| \\      /  F ield         | OpenFOAM: The Open Source CFD Toolbox           |
|  \\    /   O peration     | Version:  2206                                  |
|   \\  /    A nd           | Website:  www.openfoam.com                      |
|    \\/     M anipulation  |                                                 |
\*---------------------------------------------------------------------------*/
FoamFile
{
    version     2.0;
    format      ascii;
    arch        "LSB;label=32;scalar=64";
    class       surfaceScalarField;
    location    "20";
    object      phi.b;
}
// * * * * * * * * * * * * * * * * * * * * * * * * * * * * * * * * * * * * * //

dimensions      [0 3 -1 0 0 0 0];

oriented        oriented;

internalField   nonuniform List<scalar> 
343
(
-1.36346e-17
-2.33646e-17
-2.63006e-17
-2.58497e-17
-1.06946e-17
1.81627e-17
7.0874e-17
1.39056e-16
2.40351e-16
3.68967e-16
5.37059e-16
7.35803e-16
9.75272e-16
1.24693e-15
1.54886e-15
1.88075e-15
2.22028e-15
2.57323e-15
2.89865e-15
3.21193e-15
3.45312e-15
3.65036e-15
3.73057e-15
3.73225e-15
3.5854e-15
3.3302e-15
2.92043e-15
2.38665e-15
1.7271e-15
9.495e-16
1.09083e-16
-8.1713e-16
-1.72048e-15
-2.65309e-15
-3.48007e-15
-4.26708e-15
-4.90174e-15
-5.4228e-15
-5.81144e-15
-6.01672e-15
-6.19367e-15
-6.1312e-15
-6.21768e-15
-6.02704e-15
-6.19678e-15
-6.07282e-15
-6.48794e-15
-6.62103e-15
-7.35812e-15
-7.86203e-15
-8.84752e-15
-9.69936e-15
-1.06743e-14
-1.16739e-14
-1.21999e-14
-1.29631e-14
-1.2484e-14
-1.24692e-14
-1.04454e-14
-9.03509e-15
-5.19703e-15
-1.91816e-15
3.30886e-15
8.26459e-15
1.32837e-14
1.81489e-14
2.01563e-14
2.09781e-14
1.76598e-14
1.04872e-14
3.6401e-15
-7.91146e-15
-1.34558e-14
-1.1272e-14
-2.40105e-14
5.95797e-15
-3.62666e-14
-4.67666e-14
2.19465e-10
6.55878e-13
1.69278e-14
1.9387e-15
7.86426e-20
8.26584e-20
9.47578e-20
9.68137e-20
9.97795e-20
9.38463e-20
1.11674e-19
1.1908e-19
1.27493e-19
1.21989e-19
1.28565e-19
1.21043e-19
1.14311e-19
9.58839e-20
9.51445e-20
8.50211e-20
7.55244e-20
5.81634e-20
4.55208e-20
2.91649e-20
1.29663e-20
1.44923e-20
-2.06064e-20
-3.45302e-20
-4.85327e-20
-5.72355e-20
-7.11984e-20
-7.86979e-20
-8.66546e-20
-8.79208e-20
-1.0182e-19
-1.07953e-19
-1.14618e-19
-1.12205e-19
-1.17756e-19
-1.141e-19
-1.11167e-19
-1.00901e-19
-1.08546e-19
-1.09153e-19
-1.10462e-19
-1.03341e-19
-1.03307e-19
-9.54379e-20
-8.79927e-20
-7.44193e-20
-6.98066e-20
-6.05357e-20
-5.15803e-20
-3.92894e-20
-2.82122e-20
-1.68266e-20
-5.79229e-21
-3.45659e-20
7.75554e-21
9.2362e-21
1.0438e-20
9.18843e-21
9.85015e-21
9.34423e-21
8.87878e-21
7.81389e-21
8.03083e-21
7.75315e-21
7.50572e-21
6.96313e-21
6.66245e-21
6.13215e-21
5.62201e-21
4.98153e-21
4.81216e-21
4.55684e-21
4.31828e-21
3.97513e-21
3.71827e-21
3.38124e-21
3.04845e-21
2.66083e-21
2.35141e-21
2.00446e-21
1.66027e-21
1.30114e-21
9.28924e-22
5.85489e-22
2.52762e-22
9.67447e-22
-1.01e-22
-1.17767e-22
-1.24183e-22
-8.83688e-23
-8.31815e-23
-6.72975e-23
-5.12387e-23
-3.55492e-23
-2.61275e-23
-1.71939e-23
-8.04463e-24
-4.39984e-24
3.64247e-24
6.60573e-24
9.84939e-24
8.90658e-24
1.44893e-23
1.65485e-23
1.88458e-23
1.77464e-23
1.93707e-23
1.81122e-23
1.70057e-23
1.37246e-23
1.36445e-23
1.19654e-23
1.03966e-23
7.69803e-24
5.50032e-24
3.05182e-24
7.04169e-25
9.2205e-24
-2.10917e-24
-2.29943e-24
-2.40906e-24
-1.99956e-24
-1.99831e-24
-1.80868e-24
-1.62049e-24
-1.3754e-24
-1.29865e-24
-1.1835e-24
-1.06846e-24
-9.83414e-25
-8.72501e-25
-7.97038e-25
-7.1963e-25
-6.66918e-25
-5.95775e-25
-5.4844e-25
-4.99144e-25
-4.84829e-25
-4.41489e-25
-4.30604e-25
-4.175e-25
-4.13864e-25
-4.04975e-25
-4.0064e-25
-3.93667e-25
-3.79244e-25
-4.03989e-25
-3.92426e-25
-3.70903e-25
1.33003e-24
-3.57935e-25
-3.64494e-25
-3.61236e-25
-3.162e-25
-3.16667e-25
-3.00505e-25
-2.82453e-25
-2.57844e-25
-2.49899e-25
-2.36882e-25
-2.2262e-25
-2.22476e-25
-2.09542e-25
-2.11194e-25
-2.11486e-25
-2.13364e-25
-2.11104e-25
-2.10454e-25
-2.08441e-25
-2.21087e-25
-2.20851e-25
-2.3487e-25
-2.4763e-25
-2.55389e-25
-2.79606e-25
-2.97463e-25
-3.13401e-25
-3.12806e-25
-3.57937e-25
-3.60851e-25
-3.53517e-25
1.36099e-24
-3.53434e-25
-3.60679e-25
-3.57678e-25
-3.12447e-25
-3.12956e-25
-2.96914e-25
-2.78955e-25
-2.54617e-25
-2.4677e-25
-2.339e-25
-2.19773e-25
-2.19877e-25
-2.07116e-25
-2.08994e-25
-2.09509e-25
-2.1163e-25
-2.09586e-25
-2.09146e-25
-2.07342e-25
-2.20167e-25
-2.20144e-25
-2.34329e-25
-2.47259e-25
-2.55106e-25
-2.79617e-25
-2.97662e-25
-3.13796e-25
-3.13199e-25
-3.58633e-25
-3.61452e-25
-3.53991e-25
1.36631e-24
-3.52178e-25
-3.57775e-25
-3.53097e-25
-3.0555e-25
-3.04455e-25
-2.86008e-25
-2.65729e-25
-2.37862e-25
-2.29383e-25
-2.14039e-25
-1.97582e-25
-1.92723e-25
-1.78009e-25
-1.73876e-25
-1.68869e-25
-1.66806e-25
-1.58767e-25
-1.52393e-25
-1.4525e-25
-1.45299e-25
-1.39429e-25
-1.39448e-25
-1.39077e-25
-1.44105e-25
-1.39197e-25
-1.39704e-25
-1.39819e-25
-1.45887e-25
-1.45944e-25
-1.53334e-25
-1.59943e-25
-1.68458e-25
-1.70513e-25
-1.75927e-25
-1.80442e-25
-1.96139e-25
-2.014e-25
-2.19071e-25
-2.356e-25
-2.45721e-25
-2.75556e-25
-2.98347e-25
-3.19306e-25
-3.2214e-25
-3.75002e-25
-3.80252e-25
-3.75663e-25
)
;

boundaryField
{
    inlet
    {
        type            cyclic;
        value           nonuniform List<scalar> 
344
(
7.76866e-24
1.49843e-23
2.23833e-23
2.99807e-23
3.76921e-23
3.81106e-23
3.86967e-23
3.95771e-23
4.06203e-23
3.55896e-23
3.07488e-23
2.6241e-23
2.21109e-23
1.83834e-23
1.50543e-23
1.2105e-23
9.51134e-24
7.24578e-24
5.28091e-24
3.5882e-24
2.13897e-24
9.04087e-25
-1.40871e-25
-1.02431e-24
-1.76881e-24
-2.39529e-24
-2.92172e-24
-3.36293e-24
-3.73035e-24
-4.03204e-24
-4.27269e-24
-4.45379e-24
-4.5739e-24
-4.62902e-24
-4.613e-24
-4.51812e-24
-4.33459e-24
-4.05599e-24
-3.67035e-24
-3.17023e-24
-2.54836e-24
-1.79911e-24
-9.18785e-25
9.58019e-26
1.24045e-24
2.51545e-24
3.9184e-24
5.4444e-24
7.08928e-24
8.85336e-24
1.07448e-23
1.28072e-23
1.17044e-23
1.07461e-23
9.87391e-24
9.0539e-24
8.26888e-24
7.50775e-24
6.76274e-24
6.02885e-24
5.30269e-24
4.5879e-24
3.88232e-24
3.19027e-24
2.51535e-24
1.8616e-24
1.2338e-24
6.37157e-25
7.36192e-26
-4.49051e-25
-9.30449e-25
-1.36489e-24
-1.75173e-24
-2.08855e-24
-2.37383e-24
-2.60635e-24
-2.78583e-24
-2.9104e-24
-2.82113e-24
-2.75305e-24
-2.4349e-24
-1.79633e-24
4.51e-24
2.39838e-24
7.10185e-25
-1.02711e-23
-8.47844e-24
-7.00671e-24
-6.1088e-24
-1.12146e-23
-8.7261e-24
-6.74518e-24
-2.90411e-24
5.60735e-25
1.09152e-24
1.46979e-24
1.78312e-24
9.65158e-25
1.80414e-25
7.142e-26
5.63855e-27
-2.45933e-26
-3.05727e-26
-2.16477e-26
-4.27944e-27
1.80577e-26
4.42722e-26
7.46913e-26
1.09794e-25
7.98896e-26
5.56599e-26
3.72188e-26
2.39009e-26
1.48104e-26
9.00723e-27
5.61826e-27
3.91147e-27
3.32744e-27
3.46491e-27
-7.55068e-29
-2.24259e-28
-2.28974e-28
-1.53426e-28
-3.01464e-29
1.24917e-28
3.07418e-28
5.20162e-28
4.21864e-28
3.6213e-28
3.39633e-28
2.07079e-28
1.04263e-28
5.93789e-29
3.12324e-29
1.49426e-29
6.28748e-30
2.1344e-30
3.99819e-31
-1.7273e-31
-2.6632e-31
-2.09158e-31
-1.34174e-31
-7.39365e-32
-3.82683e-32
-2.1141e-32
-1.33124e-32
-8.95344e-33
-6.36191e-33
-4.51171e-33
-2.93123e-33
-1.50413e-33
-1.93861e-34
7.82193e-34
1.49852e-33
2.22801e-33
3.16948e-33
4.34949e-33
5.49848e-33
6.38052e-33
6.84027e-33
6.82146e-33
6.44175e-33
5.76558e-33
4.93906e-33
3.94213e-33
2.99248e-33
2.14096e-33
1.42603e-33
8.65868e-34
4.59733e-34
1.93174e-34
7.93669e-35
1.65385e-34
1.54953e-34
3.2293e-34
4.25256e-34
6.30674e-34
7.75594e-34
9.26296e-34
1.11878e-33
1.20695e-33
1.30662e-33
1.40872e-33
1.388e-33
1.42824e-33
1.36341e-33
1.3118e-33
1.27474e-33
1.14905e-33
1.04368e-33
9.52662e-34
7.65062e-34
6.73821e-34
5.32806e-34
4.06865e-34
3.00102e-34
2.2573e-34
1.41979e-34
9.0918e-35
6.43622e-35
4.1602e-35
2.49175e-35
1.28956e-35
-2.12696e-36
-1.21201e-35
-1.53487e-35
-1.75131e-35
-2.09695e-35
-1.74786e-35
-1.74034e-35
-1.30974e-35
-1.32031e-35
-1.08946e-35
-8.78391e-36
-7.8176e-36
-4.89617e-36
-3.91101e-36
-4.38358e-36
-3.24768e-36
-2.36907e-36
-2.58868e-36
-1.97004e-36
-2.15903e-36
-1.93143e-36
-1.16077e-36
-1.18672e-36
-1.10723e-36
-9.03244e-37
-5.43021e-37
-3.44273e-37
-4.00846e-39
3.13485e-37
3.07714e-37
5.47187e-37
7.78266e-37
8.6714e-37
9.20067e-37
8.61646e-37
9.2353e-37
8.2883e-37
7.99948e-37
6.7064e-37
5.9155e-37
4.79894e-37
3.78645e-37
3.00688e-37
2.372e-37
2.66412e-37
3.23315e-37
3.59433e-37
4.97824e-37
6.95877e-37
9.18479e-37
1.17105e-36
1.40974e-36
1.70502e-36
1.87272e-36
2.18756e-36
2.32233e-36
2.41833e-36
2.77491e-36
2.96611e-36
3.06661e-36
3.31847e-36
3.35261e-36
3.51976e-36
2.99229e-36
3.43999e-36
3.26491e-36
2.86669e-36
2.7504e-36
2.32148e-36
2.04654e-36
1.72901e-36
1.48067e-36
1.26027e-36
1.04464e-36
8.97197e-37
7.32213e-37
5.68557e-37
4.59054e-37
3.50568e-37
3.00666e-37
1.71321e-37
1.60442e-37
1.23668e-37
9.75172e-38
7.59382e-38
5.75359e-38
4.19571e-38
2.92046e-38
1.92924e-38
1.20498e-38
7.09788e-39
3.93502e-39
2.04861e-39
9.98303e-40
4.52928e-40
1.89487e-40
7.17555e-41
2.36494e-41
6.20681e-42
1.23635e-42
1.28234e-42
4.31135e-42
1.15749e-41
2.76978e-41
6.27562e-41
1.36767e-40
2.87528e-40
5.83006e-40
1.13913e-39
2.14256e-39
3.87532e-39
6.73383e-39
1.12303e-38
1.79605e-38
2.75245e-38
4.03927e-38
5.67319e-38
7.62249e-38
9.79482e-38
1.20389e-37
1.41661e-37
1.59474e-37
1.67314e-37
2.38526e-37
1.63154e-37
1.49264e-37
1.2111e-37
8.17854e-38
2.8667e-38
-4.30807e-38
-1.40454e-37
-2.72207e-37
-4.47431e-37
-6.73064e-37
-9.50566e-37
-1.27226e-36
-1.61825e-36
-1.95583e-36
-2.24579e-36
-2.44551e-36
-2.3778e-36
)
;
    }
    outlet
    {
        type            cyclic;
        value           nonuniform List<scalar> 
344
(
-7.76866e-24
-1.49843e-23
-2.23833e-23
-2.99807e-23
-3.76921e-23
-3.81106e-23
-3.86967e-23
-3.95771e-23
-4.06203e-23
-3.55896e-23
-3.07488e-23
-2.6241e-23
-2.21109e-23
-1.83834e-23
-1.50543e-23
-1.2105e-23
-9.51134e-24
-7.24578e-24
-5.28091e-24
-3.5882e-24
-2.13897e-24
-9.04087e-25
1.40871e-25
1.02431e-24
1.76881e-24
2.39529e-24
2.92172e-24
3.36293e-24
3.73035e-24
4.03204e-24
4.27269e-24
4.45379e-24
4.5739e-24
4.62902e-24
4.613e-24
4.51812e-24
4.33459e-24
4.05599e-24
3.67035e-24
3.17023e-24
2.54836e-24
1.79911e-24
9.18785e-25
-9.58019e-26
-1.24045e-24
-2.51545e-24
-3.9184e-24
-5.4444e-24
-7.08928e-24
-8.85336e-24
-1.07448e-23
-1.28072e-23
-1.17044e-23
-1.07461e-23
-9.87391e-24
-9.0539e-24
-8.26888e-24
-7.50775e-24
-6.76274e-24
-6.02885e-24
-5.30269e-24
-4.5879e-24
-3.88232e-24
-3.19027e-24
-2.51535e-24
-1.8616e-24
-1.2338e-24
-6.37157e-25
-7.36192e-26
4.49051e-25
9.30449e-25
1.36489e-24
1.75173e-24
2.08855e-24
2.37383e-24
2.60635e-24
2.78583e-24
2.9104e-24
2.82113e-24
2.75305e-24
2.4349e-24
1.79633e-24
-4.51e-24
-2.39838e-24
-7.10185e-25
1.02711e-23
8.47844e-24
7.00671e-24
6.1088e-24
1.12146e-23
8.7261e-24
6.74518e-24
2.90411e-24
-5.60735e-25
-1.09152e-24
-1.46979e-24
-1.78312e-24
-9.65158e-25
-1.80414e-25
-7.142e-26
-5.63855e-27
2.45933e-26
3.05727e-26
2.16477e-26
4.27944e-27
-1.80577e-26
-4.42722e-26
-7.46913e-26
-1.09794e-25
-7.98896e-26
-5.56599e-26
-3.72188e-26
-2.39009e-26
-1.48104e-26
-9.00723e-27
-5.61826e-27
-3.91147e-27
-3.32744e-27
-3.46491e-27
7.55068e-29
2.24259e-28
2.28974e-28
1.53426e-28
3.01464e-29
-1.24917e-28
-3.07418e-28
-5.20162e-28
-4.21864e-28
-3.6213e-28
-3.39633e-28
-2.07079e-28
-1.04263e-28
-5.93789e-29
-3.12324e-29
-1.49426e-29
-6.28748e-30
-2.1344e-30
-3.99819e-31
1.7273e-31
2.6632e-31
2.09158e-31
1.34174e-31
7.39365e-32
3.82683e-32
2.1141e-32
1.33124e-32
8.95344e-33
6.36191e-33
4.51171e-33
2.93123e-33
1.50413e-33
1.93861e-34
-7.82193e-34
-1.49852e-33
-2.22801e-33
-3.16948e-33
-4.34949e-33
-5.49848e-33
-6.38052e-33
-6.84027e-33
-6.82146e-33
-6.44175e-33
-5.76558e-33
-4.93906e-33
-3.94213e-33
-2.99248e-33
-2.14096e-33
-1.42603e-33
-8.65868e-34
-4.59733e-34
-1.93174e-34
-7.93669e-35
-1.65385e-34
-1.54953e-34
-3.2293e-34
-4.25256e-34
-6.30674e-34
-7.75594e-34
-9.26296e-34
-1.11878e-33
-1.20695e-33
-1.30662e-33
-1.40872e-33
-1.388e-33
-1.42824e-33
-1.36341e-33
-1.3118e-33
-1.27474e-33
-1.14905e-33
-1.04368e-33
-9.52662e-34
-7.65062e-34
-6.73821e-34
-5.32806e-34
-4.06865e-34
-3.00102e-34
-2.2573e-34
-1.41979e-34
-9.0918e-35
-6.43622e-35
-4.1602e-35
-2.49175e-35
-1.28956e-35
2.12696e-36
1.21201e-35
1.53487e-35
1.75131e-35
2.09695e-35
1.74786e-35
1.74034e-35
1.30974e-35
1.32031e-35
1.08946e-35
8.78391e-36
7.8176e-36
4.89617e-36
3.91101e-36
4.38358e-36
3.24768e-36
2.36907e-36
2.58868e-36
1.97004e-36
2.15903e-36
1.93143e-36
1.16077e-36
1.18672e-36
1.10723e-36
9.03244e-37
5.43021e-37
3.44273e-37
4.00846e-39
-3.13485e-37
-3.07714e-37
-5.47187e-37
-7.78266e-37
-8.6714e-37
-9.20067e-37
-8.61646e-37
-9.2353e-37
-8.2883e-37
-7.99948e-37
-6.7064e-37
-5.9155e-37
-4.79894e-37
-3.78645e-37
-3.00688e-37
-2.372e-37
-2.66412e-37
-3.23315e-37
-3.59433e-37
-4.97824e-37
-6.95877e-37
-9.18479e-37
-1.17105e-36
-1.40974e-36
-1.70502e-36
-1.87272e-36
-2.18756e-36
-2.32233e-36
-2.41833e-36
-2.77491e-36
-2.96611e-36
-3.06661e-36
-3.31847e-36
-3.35261e-36
-3.51976e-36
-2.99229e-36
-3.43999e-36
-3.26491e-36
-2.86669e-36
-2.7504e-36
-2.32148e-36
-2.04654e-36
-1.72901e-36
-1.48067e-36
-1.26027e-36
-1.04464e-36
-8.97197e-37
-7.32213e-37
-5.68557e-37
-4.59054e-37
-3.50568e-37
-3.00666e-37
-1.71321e-37
-1.60442e-37
-1.23668e-37
-9.75172e-38
-7.59382e-38
-5.75359e-38
-4.19571e-38
-2.92046e-38
-1.92924e-38
-1.20498e-38
-7.09788e-39
-3.93502e-39
-2.04861e-39
-9.98303e-40
-4.52928e-40
-1.89487e-40
-7.17555e-41
-2.36494e-41
-6.20681e-42
-1.23635e-42
-1.28234e-42
-4.31135e-42
-1.15749e-41
-2.76978e-41
-6.27562e-41
-1.36767e-40
-2.87528e-40
-5.83006e-40
-1.13913e-39
-2.14256e-39
-3.87532e-39
-6.73383e-39
-1.12303e-38
-1.79605e-38
-2.75245e-38
-4.03927e-38
-5.67319e-38
-7.62249e-38
-9.79482e-38
-1.20389e-37
-1.41661e-37
-1.59474e-37
-1.67314e-37
-2.38526e-37
-1.63154e-37
-1.49264e-37
-1.2111e-37
-8.17854e-38
-2.8667e-38
4.30807e-38
1.40454e-37
2.72207e-37
4.47431e-37
6.73064e-37
9.50566e-37
1.27226e-36
1.61825e-36
1.95583e-36
2.24579e-36
2.44551e-36
2.3778e-36
)
;
    }
    top
    {
        type            calculated;
        value           uniform 1.45053e-24;
    }
    bottom
    {
        type            fixedValue;
        value           uniform 0;
    }
    frontAndBackPlanes
    {
        type            empty;
        value           nonuniform List<scalar> 0();
    }
}


// ************************************************************************* //
