/*--------------------------------*- C++ -*----------------------------------*\
| =========                 |                                                 |
| \\      /  F ield         | OpenFOAM: The Open Source CFD Toolbox           |
|  \\    /   O peration     | Version:  2206                                  |
|   \\  /    A nd           | Website:  www.openfoam.com                      |
|    \\/     M anipulation  |                                                 |
\*---------------------------------------------------------------------------*/
FoamFile
{
    version     2.0;
    format      ascii;
    arch        "LSB;label=32;scalar=64";
    class       volVectorField;
    location    "20";
    object      U.a;
}
// * * * * * * * * * * * * * * * * * * * * * * * * * * * * * * * * * * * * * //

dimensions      [0 1 -1 0 0 0 0];

internalField   nonuniform List<vector> 
344
(
(-1.73518e-17 1.05678e-05 0)
(-3.33201e-17 -1.04708e-07 0)
(-4.97409e-17 9.97911e-08 0)
(-6.66246e-17 -9.95406e-08 0)
(-8.37611e-17 9.98207e-08 0)
(-8.4691e-17 -9.96906e-08 0)
(-8.5993e-17 9.95073e-08 0)
(-8.79498e-17 -1.00265e-07 0)
(-9.02692e-17 9.87648e-08 0)
(-7.90881e-17 -1.01369e-07 0)
(-6.83308e-17 9.73612e-08 0)
(-5.83137e-17 -1.03207e-07 0)
(-4.91353e-17 9.51882e-08 0)
(-4.08523e-17 -1.05827e-07 0)
(-3.3455e-17 9.22131e-08 0)
(-2.69011e-17 -1.09134e-07 0)
(-2.11366e-17 8.8572e-08 0)
(-1.6102e-17 -1.12855e-07 0)
(-1.17356e-17 8.46941e-08 0)
(-7.974e-18 -1.16426e-07 0)
(-4.75348e-18 8.12421e-08 0)
(-2.01109e-18 -1.19077e-07 0)
(3.12889e-19 7.90558e-08 0)
(2.27611e-18 -1.19964e-07 0)
(3.93059e-18 7.90112e-08 0)
(5.32277e-18 -1.18358e-07 0)
(6.49264e-18 8.17912e-08 0)
(7.4731e-18 -1.13863e-07 0)
(8.28961e-18 8.764e-08 0)
(8.96004e-18 -1.0662e-07 0)
(9.49481e-18 9.61853e-08 0)
(9.89725e-18 -9.73824e-08 0)
(1.01642e-17 1.06385e-07 0)
(1.02866e-17 -8.74426e-08 0)
(1.0251e-17 1.16676e-07 0)
(1.00402e-17 -7.83322e-08 0)
(9.63449e-18 1.25378e-07 0)
(9.01321e-18 -7.1326e-08 0)
(8.15621e-18 1.31152e-07 0)
(7.04482e-18 -6.70125e-08 0)
(5.66287e-18 1.33434e-07 0)
(3.99788e-18 -6.50123e-08 0)
(2.0416e-18 1.32728e-07 0)
(-2.09883e-19 -6.39746e-08 0)
(-2.75513e-18 1.30572e-07 0)
(-5.59005e-18 -6.198e-08 0)
(-8.70771e-18 1.2912e-07 0)
(-1.20988e-17 -5.72351e-08 0)
(-1.57541e-17 1.30504e-07 0)
(-1.96743e-17 -4.88994e-08 0)
(-2.38796e-17 1.36025e-07 0)
(-2.84997e-17 -3.78063e-08 0)
(-2.601e-17 1.45482e-07 0)
(-2.3883e-17 -2.68612e-08 0)
(-2.19421e-17 1.56708e-07 0)
(-2.01198e-17 -2.09822e-08 0)
(-1.83753e-17 1.65467e-07 0)
(-1.66839e-17 -2.64168e-08 0)
(-1.50283e-17 1.65721e-07 0)
(-1.33974e-17 -4.92359e-08 0)
(-1.1786e-17 1.50483e-07 0)
(-1.01953e-17 -9.24798e-08 0)
(-8.62754e-18 1.14235e-07 0)
(-7.08993e-18 -1.51367e-07 0)
(-5.58966e-18 5.8767e-08 0)
(-4.13689e-18 -2.07917e-07 0)
(-2.74177e-18 3.62414e-09 0)
(-1.41458e-18 -2.30568e-07 0)
(-1.64928e-19 -6.40682e-09 0)
(9.97868e-19 -1.93346e-07 0)
(2.06634e-18 7.4688e-08 0)
(3.03302e-18 -1.16597e-07 0)
(3.89271e-18 2.072e-07 0)
(4.64119e-18 -5.34367e-08 0)
(5.27516e-18 1.80677e-07 0)
(5.79216e-18 9.93351e-08 0)
(6.19072e-18 -1.80555e-07 0)
(6.47406e-18 5.47159e-07 0)
(6.47255e-18 1.36407e-05 0)
(5.98208e-18 -0.0258314 0)
(4.95312e-18 -0.0472823 0)
(1.25676e-17 -0.0378003 0)
(2.87266e-17 -0.0409899 0)
(2.49955e-17 -0.040122 0)
(1.75228e-17 -0.0413047 0)
(1.35914e-17 -0.0413095 0)
(7.94559e-18 -0.0414201 0)
(3.19504e-18 -0.0414354 0)
(8.25519e-19 -0.0414597 0)
(8.24892e-19 -0.0414597 0)
(8.24456e-19 -0.0414597 0)
(8.2411e-19 -0.0414597 0)
(8.23875e-19 -0.0414597 0)
(8.23686e-19 -0.0414597 0)
(8.23531e-19 -0.0414597 0)
(8.23406e-19 -0.0414597 0)
(8.23309e-19 -0.0414597 0)
(8.23243e-19 -0.0414597 0)
(8.23202e-19 -0.0414597 0)
(8.2318e-19 -0.0414597 0)
(8.23154e-19 -0.0414597 0)
(8.0477e-19 -0.0414502 0)
(7.04066e-19 -0.0413511 0)
(3.44506e-19 -0.0403458 0)
(-1.35423e-22 -0.0349306 0)
(-1.38921e-22 -0.0349303 0)
(-1.42357e-22 -0.0349306 0)
(-1.24659e-19 -0.0396144 0)
(-1.24671e-19 -0.0396144 0)
(-1.24974e-19 -0.0396144 0)
(-1.25571e-19 -0.0396144 0)
(-1.26454e-19 -0.0396144 0)
(-1.27595e-19 -0.0396144 0)
(-1.28952e-19 -0.0396144 0)
(-1.3048e-19 -0.0396144 0)
(-1.32125e-19 -0.0396144 0)
(-1.33831e-19 -0.0396144 0)
(-1.35539e-19 -0.0396144 0)
(-1.37189e-19 -0.0396144 0)
(-1.38726e-19 -0.0396144 0)
(-1.40094e-19 -0.0396144 0)
(-1.41249e-19 -0.0396144 0)
(-1.4215e-19 -0.0396144 0)
(-1.42749e-19 -0.0396144 0)
(-1.43045e-19 -0.0396144 0)
(-1.43042e-19 -0.0396144 0)
(6.60097e-18 -0.0348903 0)
(6.60101e-18 -0.0348902 0)
(6.60097e-18 -0.0348903 0)
(1.98031e-18 -0.03963 0)
(4.93627e-19 -0.0394405 0)
(2.95678e-20 -0.035548 0)
(2.95669e-20 -0.0355479 0)
(2.95668e-20 -0.035548 0)
(6.00285e-21 -0.0389518 0)
(6.00282e-21 -0.0389518 0)
(6.00279e-21 -0.0389518 0)
(3.25469e-21 -0.0375135 0)
(3.25469e-21 -0.0375135 0)
(3.25466e-21 -0.0375135 0)
(-1.78812e-21 -0.0396264 0)
(-8.91865e-21 -0.039488 0)
(-2.4256e-20 -0.0359162 0)
(-2.4257e-20 -0.0359161 0)
(-2.43009e-20 -0.0359162 0)
(-1.54446e-17 -0.0396241 0)
(-1.54446e-17 -0.0396241 0)
(-1.54447e-17 -0.0396241 0)
(-1.54443e-17 -0.0396241 0)
(-3.44429e-17 -0.0389846 0)
(-8.91881e-18 -0.0389845 0)
(1.66054e-17 -0.0389846 0)
(-4.17046e-18 -0.0396263 0)
(-4.4288e-18 -0.0396258 0)
(3.53869e-18 -0.0396254 0)
(1.14825e-17 -0.039625 0)
(1.15548e-17 -0.0396245 0)
(1.15317e-17 -0.0396242 0)
(1.15136e-17 -0.0396236 0)
(4.58449e-18 -0.0337891 0)
(4.58446e-18 -0.033789 0)
(4.58443e-18 -0.0337891 0)
(6.66461e-19 -0.0391315 0)
(6.66457e-19 -0.0391315 0)
(6.66453e-19 -0.0391315 0)
(6.66443e-19 -0.0391315 0)
(1.70815e-20 -0.0346043 0)
(1.70793e-20 -0.0346042 0)
(1.70787e-20 -0.0346043 0)
(-9.01945e-20 -0.0396113 0)
(-2.93074e-19 -0.0393772 0)
(-7.3947e-19 -0.0348162 0)
(-7.39479e-19 -0.0348161 0)
(-7.39603e-19 -0.0348162 0)
(-5.6677e-17 -0.0398224 0)
(-3.08158e-17 -0.0398224 0)
(-1.98465e-17 -0.0398224 0)
(-2.01831e-17 -0.0398224 0)
(-2.11018e-17 -0.0398224 0)
(-1.31253e-17 -0.0398224 0)
(-5.97164e-18 -0.0398224 0)
(3.00454e-18 -0.0398224 0)
(1.31482e-17 -0.0398224 0)
(1.96952e-17 -0.0398224 0)
(2.64056e-17 -0.0398224 0)
(3.56545e-17 -0.0398224 0)
(4.49729e-17 -0.0398224 0)
(5.00907e-17 -0.0398225 0)
(4.9901e-17 -0.0398225 0)
(5.29008e-17 -0.0396554 0)
(5.29002e-17 -0.0396554 0)
(5.29e-17 -0.0396554 0)
(5.07115e-17 -0.0398325 0)
(5.05507e-17 -0.0398325 0)
(5.95805e-17 -0.0398325 0)
(6.65166e-17 -0.0398325 0)
(6.64147e-17 -0.0398325 0)
(-1.22421e-17 -0.0383574 0)
(1.32877e-17 -0.0383574 0)
(3.88176e-17 -0.0383574 0)
(6.2098e-18 -0.0395679 0)
(6.0557e-18 -0.0395679 0)
(1.45199e-17 -0.0395679 0)
(2.11066e-17 -0.0395679 0)
(2.10093e-17 -0.0395679 0)
(-2.13375e-17 -0.0363205 0)
(4.19105e-18 -0.0363205 0)
(2.97196e-17 -0.0363205 0)
(-1.39878e-17 -0.0395369 0)
(-1.4282e-17 -0.0395369 0)
(-6.9629e-18 -0.0395369 0)
(6.00659e-19 -0.0395369 0)
(8.91365e-18 -0.0395369 0)
(1.62727e-17 -0.0395369 0)
(1.65726e-17 -0.0395369 0)
(-2.13351e-17 -0.0337062 0)
(4.1947e-18 -0.033706 0)
(2.97244e-17 -0.0337062 0)
(-1.39588e-17 -0.0395197 0)
(-1.40082e-17 -0.0395197 0)
(-1.52746e-17 -0.0395197 0)
(-6.7003e-18 -0.0395197 0)
(1.71605e-18 -0.0395197 0)
(9.04155e-18 -0.0395197 0)
(1.66916e-17 -0.0395197 0)
(1.65628e-17 -0.0395196 0)
(7.70731e-19 -0.03479 0)
(7.70665e-19 -0.03479 0)
(7.70538e-19 -0.03479 0)
(-3.24041e-17 -0.0395754 0)
(-3.20221e-17 -0.0395754 0)
(-2.32932e-17 -0.0395754 0)
(-1.53144e-17 -0.0395754 0)
(-6.53384e-18 -0.0395754 0)
(1.77201e-18 -0.0395754 0)
(1.36544e-18 -0.0395754 0)
(9.59853e-19 -0.0395754 0)
(9.02311e-18 -0.0395754 0)
(1.67672e-17 -0.0395754 0)
(2.32495e-17 -0.0395754 0)
(4.90379e-17 -0.0395754 0)
(1.80723e-18 -0.0342985 0)
(1.8072e-18 -0.0342985 0)
(1.80716e-18 -0.0342985 0)
(-9.08189e-18 -0.0389338 0)
(-9.08193e-18 -0.0389338 0)
(-9.0819e-18 -0.0389338 0)
(-2.91634e-17 -0.0348891 0)
(-3.63498e-18 -0.0348891 0)
(2.18936e-17 -0.0348891 0)
(-1.69875e-17 -0.039526 0)
(-1.69848e-17 -0.039526 0)
(-1.68989e-17 -0.039526 0)
(-1.60965e-17 -0.039526 0)
(-9.58629e-18 -0.039526 0)
(-3.22615e-18 -0.039526 0)
(5.7091e-18 -0.039526 0)
(1.32991e-17 -0.039526 0)
(1.35634e-17 -0.039526 0)
(1.39501e-19 -0.0351314 0)
(1.39433e-19 -0.0351313 0)
(1.39396e-19 -0.0351314 0)
(4.89372e-19 -0.0395995 0)
(1.50221e-18 -0.0393534 0)
(5.84055e-19 -0.0345021 0)
(5.84059e-19 -0.034502 0)
(5.8402e-19 -0.0345021 0)
(-6.48187e-18 -0.0398146 0)
(-9.37988e-18 -0.0398331 0)
(-1.18268e-17 -0.0395176 0)
(-1.18268e-17 -0.0395176 0)
(-1.18269e-17 -0.0395176 0)
(-1.84592e-17 -0.0397681 0)
(6.92735e-18 -0.0397681 0)
(2.14946e-17 -0.0397681 0)
(2.10454e-17 -0.0397681 0)
(2.79008e-17 -0.039507 0)
(2.79007e-17 -0.039507 0)
(2.79004e-17 -0.039507 0)
(2.90251e-17 -0.0397543 0)
(2.90254e-17 -0.0397543 0)
(2.90253e-17 -0.0397543 0)
(2.9025e-17 -0.0397543 0)
(8.75003e-20 -0.0359569 0)
(8.74409e-20 -0.0359569 0)
(8.74394e-20 -0.0359569 0)
(1.50899e-20 -0.0395326 0)
(1.50896e-20 -0.0395326 0)
(1.50894e-20 -0.0395326 0)
(1.5089e-20 -0.0395326 0)
(1.50887e-20 -0.0395326 0)
(1.50885e-20 -0.0395326 0)
(1.50883e-20 -0.0395326 0)
(1.52123e-24 -0.0344693 0)
(1.48557e-24 -0.0344692 0)
(1.48487e-24 -0.0344693 0)
(3.84589e-28 -0.0395242 0)
(3.79025e-28 -0.0395242 0)
(3.76926e-28 -0.0395242 0)
(3.75484e-28 -0.0395242 0)
(3.74379e-28 -0.0395242 0)
(3.73807e-28 -0.0395242 0)
(3.73787e-28 -0.0395242 0)
(4.92887e-32 -0.0375175 0)
(4.80748e-32 -0.0375175 0)
(4.80509e-32 -0.0375175 0)
(1.75372e-34 -0.0395534 0)
(1.74918e-34 -0.0395534 0)
(1.74753e-34 -0.0395534 0)
(1.74646e-34 -0.0395534 0)
(1.74589e-34 -0.0395534 0)
(1.74575e-34 -0.0395534 0)
(-8.45207e-37 -0.0346915 0)
(-8.32345e-37 -0.0346914 0)
(-8.77338e-37 -0.0346915 0)
(1.27317e-34 -0.039665 0)
(1.27365e-34 -0.039665 0)
(1.27293e-34 -0.039665 0)
(1.27139e-34 -0.039665 0)
(1.26932e-34 -0.039665 0)
(1.2671e-34 -0.039665 0)
(1.26324e-34 -0.039665 0)
(1.42564e-32 -0.0371311 0)
(1.42569e-32 -0.0371311 0)
(1.42559e-32 -0.0371311 0)
(-7.32536e-32 -0.0395464 0)
(-7.32525e-32 -0.0395464 0)
(-7.32518e-32 -0.0395464 0)
(-7.3251e-32 -0.0395464 0)
(-7.32502e-32 -0.0395464 0)
(-7.32495e-32 -0.0395464 0)
(-7.32491e-32 -0.0395464 0)
(-5.36273e-34 -0.0347423 0)
(-5.36278e-34 -0.0347422 0)
(-5.31367e-34 -0.0347423 0)
(1.0006e-30 -0.0396937 0)
(1.00061e-30 -0.0396937 0)
(1.00061e-30 -0.0396937 0)
(1.00062e-30 -0.0396937 0)
(1.00062e-30 -0.0396937 0)
(1.00063e-30 -0.0396937 0)
(1.00064e-30 -0.0396937 0)
(1.00064e-30 -0.0396937 0)
(1.00064e-30 -0.0396937 0)
)
;

boundaryField
{
    inlet
    {
        type            cyclic;
    }
    outlet
    {
        type            cyclic;
    }
    top
    {
        type            zeroGradient;
    }
    bottom
    {
        type            fixedValue;
        value           uniform (0 0 0);
    }
    frontAndBackPlanes
    {
        type            empty;
    }
}


// ************************************************************************* //
