/*--------------------------------*- C++ -*----------------------------------*\
| =========                 |                                                 |
| \\      /  F ield         | OpenFOAM: The Open Source CFD Toolbox           |
|  \\    /   O peration     | Version:  2206                                  |
|   \\  /    A nd           | Website:  www.openfoam.com                      |
|    \\/     M anipulation  |                                                 |
\*---------------------------------------------------------------------------*/
FoamFile
{
    version     2.0;
    format      ascii;
    arch        "LSB;label=32;scalar=64";
    class       volVectorField;
    location    "20";
    object      U.b;
}
// * * * * * * * * * * * * * * * * * * * * * * * * * * * * * * * * * * * * * //

dimensions      [0 1 -1 0 0 0 0];

internalField   nonuniform List<vector> 
344
(
(-1.72637e-17 1.01432e-05 0)
(-3.32984e-17 -3.38911e-07 0)
(-4.97406e-17 9.64115e-08 0)
(-6.66239e-17 -9.88762e-08 0)
(-8.37603e-17 9.801e-08 0)
(-8.46903e-17 -9.80622e-08 0)
(-8.59926e-17 9.84902e-08 0)
(-8.79492e-17 -9.7308e-08 0)
(-9.02673e-17 9.9658e-08 0)
(-7.90879e-17 -9.57882e-08 0)
(-6.83306e-17 1.01725e-07 0)
(-5.83134e-17 -9.32579e-08 0)
(-4.91354e-17 1.04863e-07 0)
(-4.0852e-17 -8.96219e-08 0)
(-3.3454e-17 1.09048e-07 0)
(-2.69e-17 -8.49666e-08 0)
(-2.11363e-17 1.14033e-07 0)
(-1.61017e-17 -7.9687e-08 0)
(-1.17353e-17 1.19221e-07 0)
(-7.97378e-18 -7.45579e-08 0)
(-4.75327e-18 1.23672e-07 0)
(-2.00908e-18 -7.06404e-08 0)
(3.13046e-19 1.26242e-07 0)
(2.27623e-18 -6.91373e-08 0)
(3.93069e-18 1.25809e-07 0)
(5.32286e-18 -7.11279e-08 0)
(6.49272e-18 1.21563e-07 0)
(7.47317e-18 -7.72453e-08 0)
(8.28967e-18 1.13305e-07 0)
(8.96009e-18 -8.7377e-08 0)
(9.49487e-18 1.01656e-07 0)
(9.89731e-18 -1.00515e-07 0)
(1.01642e-17 8.80687e-08 0)
(1.02867e-17 -1.14827e-07 0)
(1.02511e-17 7.45642e-08 0)
(1.00403e-17 -1.28058e-07 0)
(9.63243e-18 6.31709e-08 0)
(9.01332e-18 -1.38142e-07 0)
(8.15634e-18 5.52774e-08 0)
(7.04496e-18 -1.43829e-07 0)
(5.66302e-18 5.11187e-08 0)
(3.99803e-18 -1.45171e-07 0)
(2.04174e-18 4.95405e-08 0)
(-2.12893e-19 -1.43661e-07 0)
(-2.75655e-18 4.82661e-08 0)
(-5.58989e-18 -1.41891e-07 0)
(-8.70755e-18 4.46278e-08 0)
(-1.20987e-17 -1.42768e-07 0)
(-1.5754e-17 3.6618e-08 0)
(-1.96741e-17 -1.48487e-07 0)
(-2.38772e-17 2.39743e-08 0)
(-2.84604e-17 -1.59516e-07 0)
(-2.60097e-17 8.97614e-09 0)
(-2.38802e-17 -1.7385e-07 0)
(-2.1942e-17 -3.27177e-09 0)
(-2.01198e-17 -1.86709e-07 0)
(-1.83753e-17 -5.27898e-09 0)
(-1.66839e-17 -1.90794e-07 0)
(-1.50283e-17 1.14625e-08 0)
(-1.33974e-17 -1.77268e-07 0)
(-1.17838e-17 5.37115e-08 0)
(-1.01953e-17 -1.38263e-07 0)
(-8.62737e-18 1.21458e-07 0)
(-7.08948e-18 -7.26401e-08 0)
(-5.58967e-18 2.00765e-07 0)
(-4.13689e-18 3.43266e-09 0)
(-2.74178e-18 2.58305e-07 0)
(-1.4159e-18 4.60574e-08 0)
(-1.63598e-19 2.51258e-07 0)
(9.9789e-19 -2.93907e-09 0)
(2.06767e-18 1.6788e-07 0)
(3.03309e-18 -1.43268e-07 0)
(3.89273e-18 6.07562e-08 0)
(4.64122e-18 -2.1828e-07 0)
(5.27519e-18 -5.74102e-08 0)
(5.79189e-18 -3.98836e-08 0)
(6.19073e-18 -5.17448e-07 0)
(6.46756e-18 -2.80238e-06 0)
(6.26918e-18 0.000360791 0)
(6.11788e-18 0.0112049 0)
(5.41088e-18 -0.00824087 0)
(3.99184e-18 0.00592341 0)
(-1.00222e-17 -0.00417611 0)
(-5.32972e-18 0.00292357 0)
(-1.57819e-18 -0.00205966 0)
(2.28247e-17 0.00147568 0)
(1.8841e-17 -0.00107997 0)
(1.55705e-17 0.00080545 0)
(1.35751e-17 -0.000608232 0)
(2.49214e-17 0.000461888 0)
(1.93913e-17 -0.00035101 0)
(1.49893e-17 0.000266275 0)
(6.45359e-18 -0.000201472 0)
(-1.24608e-18 0.000152044 0)
(-2.4256e-18 -0.000114467 0)
(-3.2662e-18 8.59853e-05 0)
(-3.96248e-18 -6.446e-05 0)
(-2.1448e-18 4.8239e-05 0)
(-4.00919e-19 -3.60517e-05 0)
(-1.58711e-19 2.69212e-05 0)
(-1.25301e-20 -2.00976e-05 0)
(5.46518e-20 1.5007e-05 0)
(6.79394e-20 -1.1213e-05 0)
(4.81061e-20 8.38573e-06 0)
(9.50987e-21 -6.2779e-06 0)
(-4.01282e-20 4.7049e-06 0)
(-9.83828e-20 -3.52957e-06 0)
(-1.65981e-19 2.65017e-06 0)
(-2.43987e-19 -1.99134e-06 0)
(-1.77532e-19 1.49715e-06 0)
(-1.23689e-19 -1.1261e-06 0)
(-8.27084e-20 8.47259e-07 0)
(-5.31132e-20 -6.37608e-07 0)
(-3.2912e-20 4.79917e-07 0)
(-2.00161e-20 -3.61306e-07 0)
(-1.2485e-20 2.72106e-07 0)
(-8.69217e-21 -2.05077e-07 0)
(-7.39431e-21 1.54772e-07 0)
(-7.6998e-21 -1.17118e-07 0)
(1.67793e-22 8.90515e-08 0)
(4.98354e-22 -6.83015e-08 0)
(5.08832e-22 5.30271e-08 0)
(3.40946e-22 -4.02831e-08 0)
(6.6992e-23 2.98226e-08 0)
(-2.77594e-22 -2.14185e-08 0)
(-6.8315e-22 1.48296e-08 0)
(-1.15591e-21 -9.82813e-09 0)
(-9.37476e-22 6.17437e-09 0)
(-8.04733e-22 -3.64066e-09 0)
(-7.5474e-22 1.99128e-09 0)
(-4.60176e-22 -1.0052e-09 0)
(-2.31697e-22 4.68405e-10 0)
(-1.31953e-22 -2.05849e-10 0)
(-6.94052e-23 8.65778e-11 0)
(-3.32057e-23 -3.59486e-11 0)
(-1.39722e-23 1.45839e-11 0)
(-4.74311e-24 -6.25734e-12 0)
(-8.88487e-25 2.67533e-12 0)
(3.83843e-25 -9.89298e-13 0)
(5.91823e-25 5.17216e-13 0)
(4.64797e-25 -1.10957e-13 0)
(2.98164e-25 1.51861e-13 0)
(1.64303e-25 3.96637e-14 0)
(8.50408e-26 7.64184e-14 0)
(4.69799e-26 5.42087e-14 0)
(2.95831e-26 6.45347e-14 0)
(1.98965e-26 5.79821e-14 0)
(1.41376e-26 5.62959e-14 0)
(1.0026e-26 5.21585e-14 0)
(6.51385e-27 4.98245e-14 0)
(3.34252e-27 4.57311e-14 0)
(4.30801e-28 4.03239e-14 0)
(-1.73821e-27 3.69714e-14 0)
(-3.33004e-27 3.67133e-14 0)
(-4.95114e-27 3.4254e-14 0)
(-7.04328e-27 3.20374e-14 0)
(-9.66554e-27 2.95115e-14 0)
(-1.22188e-26 2.76516e-14 0)
(-1.41789e-26 2.4892e-14 0)
(-1.52006e-26 2.1992e-14 0)
(-1.51588e-26 1.9047e-14 0)
(-1.4315e-26 1.71744e-14 0)
(-1.28124e-26 1.38692e-14 0)
(-1.09757e-26 1.19067e-14 0)
(-8.76029e-27 7.61022e-15 0)
(-6.64995e-27 7.87652e-15 0)
(-4.75769e-27 -6.48574e-16 0)
(-3.16896e-27 6.89825e-15 0)
(-1.92415e-27 5.42165e-15 0)
(-1.02163e-27 -4.61383e-15 0)
(-4.29275e-28 9.26308e-16 0)
(-1.76371e-28 -1.67248e-15 0)
(-3.67522e-28 -2.72291e-16 0)
(-3.44341e-28 -7.70547e-16 0)
(-7.17623e-28 -3.97511e-16 0)
(-9.45012e-28 -3.48441e-16 0)
(-1.4015e-27 -1.93e-16 0)
(-1.72354e-27 -2.07841e-16 0)
(-2.05844e-27 -7.64694e-17 0)
(-2.48618e-27 -5.47857e-17 0)
(-2.68211e-27 4.65965e-18 0)
(-2.90359e-27 3.75509e-17 0)
(-3.13048e-27 6.17183e-17 0)
(-3.08444e-27 7.5754e-17 0)
(-3.17387e-27 9.77209e-17 0)
(-3.0298e-27 1.12365e-16 0)
(-2.91511e-27 1.41196e-16 0)
(-2.83276e-27 1.40454e-16 0)
(-2.55346e-27 1.45938e-16 0)
(-2.31929e-27 1.43485e-16 0)
(-2.11703e-27 1.36849e-16 0)
(-1.70014e-27 1.17567e-16 0)
(-1.49738e-27 1.07904e-16 0)
(-1.18401e-27 9.5042e-17 0)
(-9.04144e-28 9.19271e-17 0)
(-6.66894e-28 6.14353e-17 0)
(-5.01622e-28 7.02141e-17 0)
(-3.15509e-28 -7.34756e-18 0)
(-2.0204e-28 6.36106e-17 0)
(-1.43027e-28 1.58123e-17 0)
(-9.2449e-29 5.93295e-18 0)
(-5.53722e-29 3.06873e-17 0)
(-2.86569e-29 -5.72343e-17 0)
(4.72657e-30 8.04262e-19 0)
(2.69336e-29 -2.30028e-17 0)
(3.41083e-29 -1.11596e-17 0)
(3.89179e-29 -1.46608e-17 0)
(4.65988e-29 -1.09819e-17 0)
(3.88414e-29 -1.09141e-17 0)
(3.86742e-29 -8.97436e-18 0)
(2.91052e-29 -9.03161e-18 0)
(2.93403e-29 -7.75468e-18 0)
(2.42101e-29 -7.23169e-18 0)
(1.95198e-29 -6.39853e-18 0)
(1.73724e-29 -5.82783e-18 0)
(1.08804e-29 -5.37835e-18 0)
(8.69114e-30 -4.92052e-18 0)
(9.74129e-30 -4.36498e-18 0)
(7.21706e-30 -4.0502e-18 0)
(5.2646e-30 -3.78663e-18 0)
(5.75261e-30 -3.56864e-18 0)
(4.37787e-30 -3.36242e-18 0)
(4.79784e-30 -3.26472e-18 0)
(4.29206e-30 -3.22181e-18 0)
(2.57948e-30 -3.15645e-18 0)
(2.63716e-30 -3.10773e-18 0)
(2.4605e-30 -3.04979e-18 0)
(2.00721e-30 -2.96772e-18 0)
(1.20671e-30 -3.05826e-18 0)
(7.65051e-31 -2.76354e-18 0)
(8.9077e-33 -4.35817e-18 0)
(-6.96634e-31 4.82011e-18 0)
(-6.8381e-31 4.88014e-18 0)
(-1.21597e-30 -4.21352e-18 0)
(-1.72948e-30 -2.47759e-18 0)
(-1.92698e-30 -2.66259e-18 0)
(-2.04459e-30 -2.42168e-18 0)
(-1.91477e-30 -2.37984e-18 0)
(-2.05229e-30 -2.23119e-18 0)
(-1.84184e-30 -2.09407e-18 0)
(-1.77766e-30 -1.9742e-18 0)
(-1.49031e-30 -1.86925e-18 0)
(-1.31455e-30 -1.77176e-18 0)
(-1.06643e-30 -1.7172e-18 0)
(-8.41432e-31 -1.66918e-18 0)
(-6.68195e-31 -1.62218e-18 0)
(-5.2711e-31 -1.62254e-18 0)
(-5.92026e-31 -1.64855e-18 0)
(-7.18478e-31 -1.64756e-18 0)
(-7.98741e-31 -1.61769e-18 0)
(-1.10628e-30 -1.61572e-18 0)
(-1.54639e-30 -1.6592e-18 0)
(-2.04106e-30 -1.70465e-18 0)
(-2.60233e-30 -1.75843e-18 0)
(-3.13277e-30 -1.8509e-18 0)
(-3.78893e-30 -1.95828e-18 0)
(-4.1616e-30 -2.07051e-18 0)
(-4.86125e-30 -2.21709e-18 0)
(-5.16073e-30 -2.33508e-18 0)
(-5.37406e-30 -2.43885e-18 0)
(-6.16646e-30 -2.5404e-18 0)
(-6.59135e-30 -2.67752e-18 0)
(-6.81469e-30 -3.84424e-18 0)
(-7.37438e-30 4.84069e-18 0)
(-7.45026e-30 4.84093e-18 0)
(-7.82168e-30 -3.84318e-18 0)
(-6.64954e-30 -2.67599e-18 0)
(-7.64443e-30 -2.53789e-18 0)
(-7.25536e-30 -2.43583e-18 0)
(-6.37041e-30 -2.33117e-18 0)
(-6.112e-30 -2.21277e-18 0)
(-5.15884e-30 -2.06473e-18 0)
(-4.54786e-30 -1.95193e-18 0)
(-3.84225e-30 -1.84391e-18 0)
(-3.29038e-30 -1.75083e-18 0)
(-2.80059e-30 -1.69556e-18 0)
(-2.32142e-30 -1.6495e-18 0)
(-1.99377e-30 -1.60486e-18 0)
(-1.62714e-30 -1.60664e-18 0)
(-1.26346e-30 -1.63412e-18 0)
(-1.02012e-30 -1.63441e-18 0)
(-7.79041e-31 -1.60752e-18 0)
(-6.68146e-31 -1.60632e-18 0)
(-3.80713e-31 -1.65149e-18 0)
(-3.56537e-31 -1.69811e-18 0)
(-2.74818e-31 -1.75392e-18 0)
(-2.16705e-31 -1.84745e-18 0)
(-1.68752e-31 -1.9557e-18 0)
(-1.27858e-31 -2.06915e-18 0)
(-9.32379e-32 -2.21826e-18 0)
(-6.48991e-32 -2.33724e-18 0)
(-4.28719e-32 -2.44206e-18 0)
(-2.67773e-32 -2.54427e-18 0)
(-1.57731e-32 -2.68355e-18 0)
(-8.74449e-33 -3.84791e-18 0)
(-4.55246e-33 4.85928e-18 0)
(-2.21845e-33 4.86649e-18 0)
(-1.00651e-33 -3.82691e-18 0)
(-4.21082e-34 -2.64765e-18 0)
(-1.59457e-34 -2.49366e-18 0)
(-5.25543e-35 -2.37637e-18 0)
(-1.37929e-35 -2.25624e-18 0)
(-2.74745e-36 -2.11939e-18 0)
(-2.84964e-36 -1.94934e-18 0)
(-9.58078e-36 -1.82021e-18 0)
(-2.5722e-35 -1.69999e-18 0)
(-6.15506e-35 -1.58862e-18 0)
(-1.39458e-34 -1.50466e-18 0)
(-3.03926e-34 -1.43288e-18 0)
(-6.38952e-34 -1.35642e-18 0)
(-1.29557e-33 -1.31907e-18 0)
(-2.53139e-33 -1.29952e-18 0)
(-4.76125e-33 -1.26068e-18 0)
(-8.61182e-33 -1.19614e-18 0)
(-1.49641e-32 -1.14897e-18 0)
(-2.49561e-32 -1.12017e-18 0)
(-3.99123e-32 -1.09878e-18 0)
(-6.11656e-32 -1.07577e-18 0)
(-8.97617e-32 -1.07513e-18 0)
(-1.26071e-31 -1.09209e-18 0)
(-1.69389e-31 -1.09258e-18 0)
(-2.17663e-31 -1.07654e-18 0)
(-2.67532e-31 -1.07832e-18 0)
(-3.14803e-31 -1.10249e-18 0)
(-3.54386e-31 -1.12514e-18 0)
(-3.71808e-31 -1.15526e-18 0)
(-5.30059e-31 -1.20443e-18 0)
(-3.62564e-31 -1.27127e-18 0)
(-3.31697e-31 -1.31204e-18 0)
(-2.69134e-31 -1.33341e-18 0)
(-1.81745e-31 -1.37394e-18 0)
(-6.37044e-32 -1.45538e-18 0)
(9.57348e-32 -1.53261e-18 0)
(3.12119e-31 -1.62323e-18 0)
(6.04905e-31 -1.74347e-18 0)
(9.94292e-31 -1.87422e-18 0)
(1.4957e-30 -2.01722e-18 0)
(2.11237e-30 -2.20618e-18 0)
(2.82725e-30 -2.36059e-18 0)
(3.59612e-30 -2.50148e-18 0)
(4.3463e-30 -2.63488e-18 0)
(4.99065e-30 -2.84279e-18 0)
(5.43446e-30 -3.93652e-18 0)
(5.284e-30 5.03929e-18 0)
)
;

boundaryField
{
    inlet
    {
        type            cyclic;
    }
    outlet
    {
        type            cyclic;
    }
    top
    {
        type            zeroGradient;
    }
    bottom
    {
        type            fixedValue;
        value           uniform (0 0 0);
    }
    frontAndBackPlanes
    {
        type            empty;
    }
}


// ************************************************************************* //
