/*--------------------------------*- C++ -*----------------------------------*\
| =========                 |                                                 |
| \\      /  F ield         | OpenFOAM: The Open Source CFD Toolbox           |
|  \\    /   O peration     | Version:  2206                                  |
|   \\  /    A nd           | Website:  www.openfoam.com                      |
|    \\/     M anipulation  |                                                 |
\*---------------------------------------------------------------------------*/
FoamFile
{
    version     2.0;
    format      ascii;
    arch        "LSB;label=32;scalar=64";
    class       volScalarField;
    location    "1380";
    object      pff;
}
// * * * * * * * * * * * * * * * * * * * * * * * * * * * * * * * * * * * * * //

dimensions      [1 -1 -2 0 0 0 0];

internalField   nonuniform List<scalar> 
120
(
24.4029
23.8686
23.8719
23.2926
23.2805
22.7129
22.6901
22.1351
22.1008
21.5592
21.5127
20.9851
20.926
20.4129
20.3407
19.8426
19.7568
19.274
19.1746
18.7072
18.5941
18.1421
18.0154
17.5788
17.4387
17.0172
16.864
16.4573
16.2914
15.8991
15.7212
15.3427
15.1533
14.7879
14.5878
14.2348
14.0249
13.6835
13.4646
13.134
12.907
12.5862
12.3521
12.0403
11.7999
11.4961
11.2505
10.9539
10.7038
10.4135
10.1599
9.87511
9.61878
9.33878
9.08047
8.80468
8.54513
8.27304
8.01294
7.74422
7.48424
7.21866
6.95946
6.69695
6.43915
6.17972
5.92387
5.6676
5.41416
5.1611
4.91034
4.66043
4.41239
4.16538
3.91982
3.67522
3.43167
3.18872
2.94655
2.70425
2.4629
2.21986
1.97878
1.73349
1.49012
1.24374
0.971543
0.760809
0.503912
0.266171
0
0
0
0
0
0
0
0
0
0
0
0
0
0
0
0
0
0
0
0
0
0
0
0
0
0
0
0
0
0
)
;

boundaryField
{
    inlet
    {
        type            cyclic;
    }
    outlet
    {
        type            cyclic;
    }
    top
    {
        type            calculated;
        value           uniform 0;
    }
    bottom
    {
        type            calculated;
        value           uniform 24.4029;
    }
    frontAndBackPlanes
    {
        type            empty;
    }
}


// ************************************************************************* //
