/*--------------------------------*- C++ -*----------------------------------*\
| =========                 |                                                 |
| \\      /  F ield         | OpenFOAM: The Open Source CFD Toolbox           |
|  \\    /   O peration     | Version:  2206                                  |
|   \\  /    A nd           | Website:  www.openfoam.com                      |
|    \\/     M anipulation  |                                                 |
\*---------------------------------------------------------------------------*/
FoamFile
{
    version     2.0;
    format      ascii;
    arch        "LSB;label=32;scalar=64";
    class       surfaceScalarField;
    location    "1380";
    object      phi.a;
}
// * * * * * * * * * * * * * * * * * * * * * * * * * * * * * * * * * * * * * //

dimensions      [0 3 -1 0 0 0 0];

oriented        oriented;

internalField   nonuniform List<scalar> 
119
(
-8.62115e-16
-1.74329e-15
-2.62518e-15
-3.52768e-15
-4.43226e-15
-5.35694e-15
-6.28502e-15
-7.23261e-15
-8.18506e-15
-9.15635e-15
-1.01341e-14
-1.113e-14
-1.21342e-14
-1.31557e-14
-1.41873e-14
-1.52357e-14
-1.62961e-14
-1.73726e-14
-1.84633e-14
-1.95695e-14
-2.0692e-14
-2.18295e-14
-2.29856e-14
-2.41564e-14
-2.53481e-14
-2.65542e-14
-2.77835e-14
-2.90272e-14
-3.02964e-14
-3.158e-14
-3.28914e-14
-3.42175e-14
-3.55734e-14
-3.69443e-14
-3.8347e-14
-3.97651e-14
-4.12167e-14
-4.26841e-14
-4.41865e-14
-4.57052e-14
-4.72598e-14
-4.88312e-14
-5.04392e-14
-5.20647e-14
-5.3727e-14
-5.54075e-14
-5.71252e-14
-5.88621e-14
-6.06366e-14
-6.24322e-14
-6.42666e-14
-6.61254e-14
-6.80259e-14
-6.99563e-14
-7.19341e-14
-7.39508e-14
-7.60245e-14
-7.8151e-14
-8.03495e-14
-8.26204e-14
-8.49845e-14
-8.74471e-14
-9.00303e-14
-9.27437e-14
-9.56097e-14
-9.86403e-14
-1.01856e-13
-1.05269e-13
-1.08894e-13
-1.12739e-13
-1.1681e-13
-1.21106e-13
-1.25623e-13
-1.30346e-13
-1.35259e-13
-1.40339e-13
-1.4556e-13
-1.50891e-13
-1.56313e-13
-1.61793e-13
-1.67329e-13
-1.72907e-13
-1.78545e-13
-1.84339e-13
-1.90249e-13
-1.97278e-13
-2.05144e-13
-2.11735e-13
-2.17851e-13
-3.47858e-13
-1.08406e-12
-1.62393e-12
-2.67619e-11
-6.3533e-11
-7.71683e-11
-7.9866e-11
-8.06064e-11
-8.09574e-11
-8.12069e-11
-8.14219e-11
-8.16117e-11
-8.17676e-11
-8.18821e-11
-8.19566e-11
-8.19999e-11
-8.20223e-11
-8.20326e-11
-8.20368e-11
-8.20384e-11
-8.20389e-11
-8.20391e-11
-8.20391e-11
-8.20392e-11
-8.20391e-11
-8.20389e-11
-8.20384e-11
-8.20353e-11
-8.20049e-11
-8.13579e-11
)
;

boundaryField
{
    inlet
    {
        type            cyclic;
        value           nonuniform List<scalar> 
120
(
-2.95907e-27
-8.88291e-27
-1.482e-26
-2.07792e-26
-2.67695e-26
-3.27996e-26
-3.88787e-26
-4.50151e-26
-5.12183e-26
-5.7498e-26
-6.38626e-26
-7.03214e-26
-7.68842e-26
-8.35596e-26
-9.03568e-26
-9.72852e-26
-1.04354e-25
-1.11573e-25
-1.18953e-25
-1.26501e-25
-1.34229e-25
-1.42146e-25
-1.50263e-25
-1.58589e-25
-1.67142e-25
-1.75926e-25
-1.84951e-25
-1.94224e-25
-2.03759e-25
-2.13569e-25
-2.23654e-25
-2.34026e-25
-2.44707e-25
-2.55711e-25
-2.67053e-25
-2.78747e-25
-2.90487e-25
-3.02625e-25
-3.15143e-25
-3.28081e-25
-3.41412e-25
-3.55196e-25
-3.69421e-25
-3.84121e-25
-3.99314e-25
-4.15036e-25
-4.31259e-25
-4.48037e-25
-4.65375e-25
-4.8335e-25
-5.01949e-25
-5.21193e-25
-5.41107e-25
-5.61711e-25
-5.83026e-25
-6.05092e-25
-6.27904e-25
-6.51474e-25
-6.75815e-25
-7.01045e-25
-7.27035e-25
-7.53781e-25
-7.81262e-25
-8.09449e-25
-8.383e-25
-8.67703e-25
-8.97708e-25
-9.28172e-25
-9.58996e-25
-9.90066e-25
-1.02125e-24
-1.05234e-24
-1.08323e-24
-1.11375e-24
-1.14372e-24
-1.17294e-24
-1.20121e-24
-1.22833e-24
-1.25408e-24
-1.27827e-24
-1.30072e-24
-1.32123e-24
-1.33963e-24
-1.35579e-24
-1.36954e-24
-1.38079e-24
-1.38921e-24
-1.39493e-24
-1.39792e-24
-1.39904e-24
-1.40063e-24
-1.69894e-24
-1.80153e-24
-2.49172e-24
-2.38272e-24
-2.10163e-24
-1.90713e-24
-1.74196e-24
-1.5647e-24
-1.35346e-24
-1.10657e-24
-8.46837e-25
-6.1027e-25
-4.24611e-25
-2.9778e-25
-2.21631e-25
-1.81411e-25
-1.62845e-25
-1.55337e-25
-1.52531e-25
-1.51397e-25
-1.50831e-25
-1.50496e-25
-1.50286e-25
-1.50163e-25
-1.5011e-25
-1.5014e-25
-1.50407e-25
-1.51661e-25
-1.54336e-25
)
;
    }
    outlet
    {
        type            cyclic;
        value           nonuniform List<scalar> 
120
(
2.95907e-27
8.88291e-27
1.482e-26
2.07792e-26
2.67695e-26
3.27996e-26
3.88787e-26
4.50151e-26
5.12183e-26
5.7498e-26
6.38626e-26
7.03214e-26
7.68842e-26
8.35596e-26
9.03568e-26
9.72852e-26
1.04354e-25
1.11573e-25
1.18953e-25
1.26501e-25
1.34229e-25
1.42146e-25
1.50263e-25
1.58589e-25
1.67142e-25
1.75926e-25
1.84951e-25
1.94224e-25
2.03759e-25
2.13569e-25
2.23654e-25
2.34026e-25
2.44707e-25
2.55711e-25
2.67053e-25
2.78747e-25
2.90487e-25
3.02625e-25
3.15143e-25
3.28081e-25
3.41412e-25
3.55196e-25
3.69421e-25
3.84121e-25
3.99314e-25
4.15036e-25
4.31259e-25
4.48037e-25
4.65375e-25
4.8335e-25
5.01949e-25
5.21193e-25
5.41107e-25
5.61711e-25
5.83026e-25
6.05092e-25
6.27904e-25
6.51474e-25
6.75815e-25
7.01045e-25
7.27035e-25
7.53781e-25
7.81262e-25
8.09449e-25
8.383e-25
8.67703e-25
8.97708e-25
9.28172e-25
9.58996e-25
9.90066e-25
1.02125e-24
1.05234e-24
1.08323e-24
1.11375e-24
1.14372e-24
1.17294e-24
1.20121e-24
1.22833e-24
1.25408e-24
1.27827e-24
1.30072e-24
1.32123e-24
1.33963e-24
1.35579e-24
1.36954e-24
1.38079e-24
1.38921e-24
1.39493e-24
1.39792e-24
1.39904e-24
1.40063e-24
1.69894e-24
1.80153e-24
2.49172e-24
2.38272e-24
2.10163e-24
1.90713e-24
1.74196e-24
1.5647e-24
1.35346e-24
1.10657e-24
8.46837e-25
6.1027e-25
4.24611e-25
2.9778e-25
2.21631e-25
1.81411e-25
1.62845e-25
1.55337e-25
1.52531e-25
1.51397e-25
1.50831e-25
1.50496e-25
1.50286e-25
1.50163e-25
1.5011e-25
1.5014e-25
1.50407e-25
1.51661e-25
1.54336e-25
)
;
    }
    top
    {
        type            fixedValue;
        value           uniform 0;
    }
    bottom
    {
        type            fixedValue;
        value           uniform 0;
    }
    frontAndBackPlanes
    {
        type            empty;
        value           nonuniform List<scalar> 0();
    }
}


// ************************************************************************* //
