/*--------------------------------*- C++ -*----------------------------------*\
| =========                 |                                                 |
| \\      /  F ield         | OpenFOAM: The Open Source CFD Toolbox           |
|  \\    /   O peration     | Version:  2206                                  |
|   \\  /    A nd           | Website:  www.openfoam.com                      |
|    \\/     M anipulation  |                                                 |
\*---------------------------------------------------------------------------*/
FoamFile
{
    version     2.0;
    format      ascii;
    arch        "LSB;label=32;scalar=64";
    class       surfaceScalarField;
    location    "1380";
    object      phi.b;
}
// * * * * * * * * * * * * * * * * * * * * * * * * * * * * * * * * * * * * * //

dimensions      [0 3 -1 0 0 0 0];

oriented        oriented;

internalField   nonuniform List<scalar> 
119
(
1.29175e-15
2.6116e-15
3.93194e-15
5.28257e-15
6.63572e-15
8.01831e-15
9.40537e-15
1.08209e-14
1.22432e-14
1.36929e-14
1.51516e-14
1.66366e-14
1.81332e-14
1.9655e-14
2.11912e-14
2.27514e-14
2.43288e-14
2.59293e-14
2.75501e-14
2.9193e-14
3.08594e-14
3.2547e-14
3.42614e-14
3.59964e-14
3.77617e-14
3.95471e-14
4.1366e-14
4.32049e-14
4.50807e-14
4.69763e-14
4.89122e-14
5.0868e-14
5.2867e-14
5.48864e-14
5.69517e-14
5.90379e-14
6.11723e-14
6.33281e-14
6.5534e-14
6.77619e-14
7.00411e-14
7.23429e-14
7.46967e-14
7.70737e-14
7.95031e-14
8.19564e-14
8.44622e-14
8.69932e-14
8.95771e-14
9.21886e-14
9.48544e-14
9.75523e-14
1.00308e-13
1.03104e-13
1.05966e-13
1.08881e-13
1.11875e-13
1.14941e-13
1.18108e-13
1.21376e-13
1.24775e-13
1.28312e-13
1.32018e-13
1.35908e-13
1.40013e-13
1.4435e-13
1.48948e-13
1.53823e-13
1.58996e-13
1.64475e-13
1.7027e-13
1.76376e-13
1.82783e-13
1.8947e-13
1.9641e-13
2.03563e-13
2.10892e-13
2.18346e-13
2.2589e-13
2.33473e-13
2.4108e-13
2.48685e-13
2.56296e-13
2.64031e-13
2.71803e-13
2.80941e-13
2.91088e-13
2.99046e-13
3.05527e-13
3.60007e-13
3.00964e-13
1.50001e-16
3.05015e-17
-1.3975e-19
-1.58495e-19
-4.67764e-20
1.5007e-19
3.4409e-19
2.69961e-19
-1.32027e-20
-1.36018e-19
-9.874e-20
-1.61437e-19
-1.98269e-19
-4.56992e-20
1.12568e-19
2.14301e-19
2.43559e-19
5.37985e-20
-1.72598e-19
-2.35177e-19
-1.49202e-19
3.79969e-20
1.38041e-19
1.50038e-19
1.75073e-20
-3.38789e-20
-7.46833e-20
-1.01278e-21
)
;

boundaryField
{
    inlet
    {
        type            cyclic;
        value           nonuniform List<scalar> 
120
(
-2.95907e-27
-8.88292e-27
-1.48233e-26
-2.07793e-26
-2.67695e-26
-3.27997e-26
-3.8896e-26
-4.5015e-26
-5.11953e-26
-5.74979e-26
-6.38625e-26
-7.02897e-26
-7.68841e-26
-8.35596e-26
-9.03568e-26
-9.72852e-26
-1.04354e-25
-1.11573e-25
-1.18953e-25
-1.26501e-25
-1.34229e-25
-1.42146e-25
-1.50262e-25
-1.58308e-25
-1.67141e-25
-1.75927e-25
-1.85113e-25
-1.94225e-25
-2.03761e-25
-2.13938e-25
-2.24038e-25
-2.34027e-25
-2.44707e-25
-2.55711e-25
-2.67051e-25
-2.7828e-25
-2.90007e-25
-3.03118e-25
-3.14634e-25
-3.29142e-25
-3.40868e-25
-3.55764e-25
-3.69424e-25
-3.84118e-25
-3.98693e-25
-4.16327e-25
-4.31268e-25
-4.48718e-25
-4.63963e-25
-4.83344e-25
-5.01949e-25
-5.21193e-25
-5.41107e-25
-5.61707e-25
-5.82187e-25
-6.05088e-25
-6.27904e-25
-6.51482e-25
-6.77687e-25
-7.01053e-25
-7.27035e-25
-7.53781e-25
-7.81262e-25
-8.09459e-25
-8.40506e-25
-8.65428e-25
-8.97698e-25
-9.28172e-25
-9.58996e-25
-9.90078e-25
-1.02394e-24
-1.05235e-24
-1.08323e-24
-1.11375e-24
-1.14372e-24
-1.17294e-24
-1.20121e-24
-1.22833e-24
-1.25408e-24
-1.27827e-24
-1.30072e-24
-1.32123e-24
-1.33963e-24
-1.35579e-24
-1.36959e-24
-1.38979e-24
-1.38925e-24
-1.39493e-24
-1.39792e-24
-1.39909e-24
-1.40616e-24
-1.7838e-24
-2.65572e-24
-3.49936e-24
-4.29647e-24
-5.03098e-24
-5.68914e-24
-6.26001e-24
-6.7356e-24
-7.11101e-24
-7.38425e-24
-7.55606e-24
-7.62947e-24
-7.60945e-24
-7.50239e-24
-7.31571e-24
-7.05734e-24
-6.73543e-24
-6.35803e-24
-5.9328e-24
-5.46689e-24
-4.96684e-24
-4.43847e-24
-3.88696e-24
-3.31681e-24
-2.73195e-24
-2.13578e-24
-1.53126e-24
-9.21036e-25
-3.0748e-25
)
;
    }
    outlet
    {
        type            cyclic;
        value           nonuniform List<scalar> 
120
(
2.95907e-27
8.88292e-27
1.48233e-26
2.07793e-26
2.67695e-26
3.27997e-26
3.8896e-26
4.5015e-26
5.11953e-26
5.74979e-26
6.38625e-26
7.02897e-26
7.68841e-26
8.35596e-26
9.03568e-26
9.72852e-26
1.04354e-25
1.11573e-25
1.18953e-25
1.26501e-25
1.34229e-25
1.42146e-25
1.50262e-25
1.58308e-25
1.67141e-25
1.75927e-25
1.85113e-25
1.94225e-25
2.03761e-25
2.13938e-25
2.24038e-25
2.34027e-25
2.44707e-25
2.55711e-25
2.67051e-25
2.7828e-25
2.90007e-25
3.03118e-25
3.14634e-25
3.29142e-25
3.40868e-25
3.55764e-25
3.69424e-25
3.84118e-25
3.98693e-25
4.16327e-25
4.31268e-25
4.48718e-25
4.63963e-25
4.83344e-25
5.01949e-25
5.21193e-25
5.41107e-25
5.61707e-25
5.82187e-25
6.05088e-25
6.27904e-25
6.51482e-25
6.77687e-25
7.01053e-25
7.27035e-25
7.53781e-25
7.81262e-25
8.09459e-25
8.40506e-25
8.65428e-25
8.97698e-25
9.28172e-25
9.58996e-25
9.90078e-25
1.02394e-24
1.05235e-24
1.08323e-24
1.11375e-24
1.14372e-24
1.17294e-24
1.20121e-24
1.22833e-24
1.25408e-24
1.27827e-24
1.30072e-24
1.32123e-24
1.33963e-24
1.35579e-24
1.36959e-24
1.38979e-24
1.38925e-24
1.39493e-24
1.39792e-24
1.39909e-24
1.40616e-24
1.7838e-24
2.65572e-24
3.49936e-24
4.29647e-24
5.03098e-24
5.68914e-24
6.26001e-24
6.7356e-24
7.11101e-24
7.38425e-24
7.55606e-24
7.62947e-24
7.60945e-24
7.50239e-24
7.31571e-24
7.05734e-24
6.73543e-24
6.35803e-24
5.9328e-24
5.46689e-24
4.96684e-24
4.43847e-24
3.88696e-24
3.31681e-24
2.73195e-24
2.13578e-24
1.53126e-24
9.21036e-25
3.0748e-25
)
;
    }
    top
    {
        type            fixedValue;
        value           uniform 0;
    }
    bottom
    {
        type            fixedValue;
        value           uniform 0;
    }
    frontAndBackPlanes
    {
        type            empty;
        value           nonuniform List<scalar> 0();
    }
}


// ************************************************************************* //
