/*--------------------------------*- C++ -*----------------------------------*\
| =========                 |                                                 |
| \\      /  F ield         | OpenFOAM: The Open Source CFD Toolbox           |
|  \\    /   O peration     | Version:  2206                                  |
|   \\  /    A nd           | Website:  www.openfoam.com                      |
|    \\/     M anipulation  |                                                 |
\*---------------------------------------------------------------------------*/
FoamFile
{
    version     2.0;
    format      ascii;
    arch        "LSB;label=32;scalar=64";
    class       volVectorField;
    location    "1380";
    object      U.a;
}
// * * * * * * * * * * * * * * * * * * * * * * * * * * * * * * * * * * * * * //

dimensions      [0 1 -1 0 0 0 0];

internalField   nonuniform List<vector> 
120
(
(9.86356e-21 1.44905e-08 0)
(2.96097e-20 -3.3153e-09 0)
(4.94001e-20 -6.36964e-09 0)
(6.92641e-20 -8.21427e-09 0)
(8.92316e-20 -1.13839e-08 0)
(1.09332e-19 -1.32392e-08 0)
(1.29596e-19 -1.65215e-08 0)
(1.5005e-19 -1.83948e-08 0)
(1.70728e-19 -2.17863e-08 0)
(1.9166e-19 -2.36858e-08 0)
(2.12875e-19 -2.71827e-08 0)
(2.34405e-19 -2.91175e-08 0)
(2.56281e-19 -3.27158e-08 0)
(2.78532e-19 -3.46957e-08 0)
(3.01189e-19 -3.83913e-08 0)
(3.24284e-19 -4.04268e-08 0)
(3.47847e-19 -4.42157e-08 0)
(3.71912e-19 -4.6318e-08 0)
(3.96508e-19 -5.01964e-08 0)
(4.2167e-19 -5.23773e-08 0)
(4.4743e-19 -5.63417e-08 0)
(4.73821e-19 -5.86135e-08 0)
(5.00876e-19 -6.26611e-08 0)
(5.28629e-19 -6.50366e-08 0)
(5.57141e-19 -6.91651e-08 0)
(5.86421e-19 -7.16573e-08 0)
(6.16505e-19 -7.58653e-08 0)
(6.47413e-19 -7.84873e-08 0)
(6.79197e-19 -8.27741e-08 0)
(7.11895e-19 -8.5539e-08 0)
(7.45513e-19 -8.99049e-08 0)
(7.80086e-19 -9.28251e-08 0)
(8.15691e-19 -9.72711e-08 0)
(8.52371e-19 -1.00359e-07 0)
(8.90178e-19 -1.04887e-07 0)
(9.29157e-19 -1.08152e-07 0)
(9.6829e-19 -1.12764e-07 0)
(1.00875e-18 -1.16217e-07 0)
(1.05048e-18 -1.20916e-07 0)
(1.0936e-18 -1.24564e-07 0)
(1.13804e-18 -1.29353e-07 0)
(1.18399e-18 -1.33201e-07 0)
(1.2314e-18 -1.38083e-07 0)
(1.2804e-18 -1.42135e-07 0)
(1.33105e-18 -1.47112e-07 0)
(1.38345e-18 -1.51371e-07 0)
(1.43753e-18 -1.56448e-07 0)
(1.49346e-18 -1.60914e-07 0)
(1.55125e-18 -1.66097e-07 0)
(1.61117e-18 -1.70773e-07 0)
(1.67316e-18 -1.76072e-07 0)
(1.73731e-18 -1.80965e-07 0)
(1.80369e-18 -1.86398e-07 0)
(1.87237e-18 -1.91523e-07 0)
(1.94342e-18 -1.97122e-07 0)
(2.01697e-18 -2.02511e-07 0)
(2.09301e-18 -2.08325e-07 0)
(2.17158e-18 -2.14032e-07 0)
(2.25272e-18 -2.20139e-07 0)
(2.33682e-18 -2.26246e-07 0)
(2.42345e-18 -2.32755e-07 0)
(2.5126e-18 -2.39379e-07 0)
(2.60421e-18 -2.46435e-07 0)
(2.69816e-18 -2.5373e-07 0)
(2.79433e-18 -2.61509e-07 0)
(2.89234e-18 -2.69652e-07 0)
(2.99236e-18 -2.78345e-07 0)
(3.09391e-18 -2.87518e-07 0)
(3.19665e-18 -2.97304e-07 0)
(3.30022e-18 -3.07659e-07 0)
(3.40417e-18 -3.18664e-07 0)
(3.50779e-18 -3.30277e-07 0)
(3.61076e-18 -3.42531e-07 0)
(3.71251e-18 -3.55369e-07 0)
(3.81241e-18 -3.68771e-07 0)
(3.90981e-18 -3.82666e-07 0)
(4.00404e-18 -3.96991e-07 0)
(4.09442e-18 -4.11673e-07 0)
(4.18026e-18 -4.26613e-07 0)
(4.26091e-18 -4.41793e-07 0)
(4.33572e-18 -4.57061e-07 0)
(4.40409e-18 -4.72545e-07 0)
(4.46545e-18 -4.88052e-07 0)
(4.51929e-18 -5.03866e-07 0)
(4.56515e-18 -5.20245e-07 0)
(4.60263e-18 -5.36679e-07 0)
(4.63069e-18 -5.593e-07 0)
(4.64978e-18 -5.80436e-07 0)
(4.65973e-18 -5.95912e-07 0)
(4.66346e-18 -6.27537e-07 0)
(4.66877e-18 -1.4612e-06 0)
(5.66313e-18 -3.83721e-06 0)
(6.00511e-18 -4.02828e-06 0)
(8.30575e-18 -0.000144666 0)
(7.94241e-18 -0.000208325 0)
(7.00543e-18 -0.000220389 0)
(6.35709e-18 -0.00022331 0)
(5.80653e-18 -0.000224503 0)
(5.21568e-18 -0.000225261 0)
(4.51154e-18 -0.000225889 0)
(3.68856e-18 -0.000226455 0)
(2.82279e-18 -0.000226943 0)
(2.03423e-18 -0.000227321 0)
(1.41537e-18 -0.000227579 0)
(9.92599e-19 -0.000227735 0)
(7.3877e-19 -0.000227819 0)
(6.04705e-19 -0.00022786 0)
(5.42815e-19 -0.000227877 0)
(5.17791e-19 -0.000227883 0)
(5.08436e-19 -0.000227885 0)
(5.04657e-19 -0.000227886 0)
(5.0277e-19 -0.000227886 0)
(5.01652e-19 -0.000227887 0)
(5.00954e-19 -0.000227887 0)
(5.00544e-19 -0.000227886 0)
(5.00365e-19 -0.000227886 0)
(5.00465e-19 -0.000227883 0)
(5.01357e-19 -0.000227869 0)
(5.05536e-19 -0.000227714 0)
(5.14454e-19 -0.000224274 0)
)
;

boundaryField
{
    inlet
    {
        type            cyclic;
    }
    outlet
    {
        type            cyclic;
    }
    top
    {
        type            fixedValue;
        value           uniform (0 0 0);
    }
    bottom
    {
        type            fixedValue;
        value           uniform (0 0 0);
    }
    frontAndBackPlanes
    {
        type            empty;
    }
}


// ************************************************************************* //
