/*--------------------------------*- C++ -*----------------------------------*\
| =========                 |                                                 |
| \\      /  F ield         | OpenFOAM: The Open Source CFD Toolbox           |
|  \\    /   O peration     | Version:  2206                                  |
|   \\  /    A nd           | Website:  www.openfoam.com                      |
|    \\/     M anipulation  |                                                 |
\*---------------------------------------------------------------------------*/
FoamFile
{
    version     2.0;
    format      ascii;
    arch        "LSB;label=32;scalar=64";
    class       volVectorField;
    location    "1380";
    object      U.b;
}
// * * * * * * * * * * * * * * * * * * * * * * * * * * * * * * * * * * * * * //

dimensions      [0 1 -1 0 0 0 0];

internalField   nonuniform List<vector> 
120
(
(9.86356e-21 1.72096e-08 0)
(2.96097e-20 5.74006e-09 0)
(4.9411e-20 8.77287e-09 0)
(6.92642e-20 1.31273e-08 0)
(8.92316e-20 1.62211e-08 0)
(1.09332e-19 2.07122e-08 0)
(1.29653e-19 2.38406e-08 0)
(1.5005e-19 2.84773e-08 0)
(1.70651e-19 3.16507e-08 0)
(1.9166e-19 3.64302e-08 0)
(2.12875e-19 3.96584e-08 0)
(2.34299e-19 4.45776e-08 0)
(2.5628e-19 4.7871e-08 0)
(2.78532e-19 5.29266e-08 0)
(3.01189e-19 5.62972e-08 0)
(3.24284e-19 6.14862e-08 0)
(3.47847e-19 6.49464e-08 0)
(3.71912e-19 7.02657e-08 0)
(3.96508e-19 7.3829e-08 0)
(4.2167e-19 7.92764e-08 0)
(4.4743e-19 8.29573e-08 0)
(4.73821e-19 8.85307e-08 0)
(5.00872e-19 9.23441e-08 0)
(5.27694e-19 9.80423e-08 0)
(5.57137e-19 1.02004e-07 0)
(5.86424e-19 1.07827e-07 0)
(6.17043e-19 1.11953e-07 0)
(6.47415e-19 1.17901e-07 0)
(6.79203e-19 1.22207e-07 0)
(7.13127e-19 1.28282e-07 0)
(7.46795e-19 1.32786e-07 0)
(7.80092e-19 1.3899e-07 0)
(8.15691e-19 1.43705e-07 0)
(8.52371e-19 1.50042e-07 0)
(8.90171e-19 1.54984e-07 0)
(9.276e-19 1.61457e-07 0)
(9.66689e-19 1.66638e-07 0)
(1.01039e-18 1.73251e-07 0)
(1.04878e-18 1.78683e-07 0)
(1.09714e-18 1.85439e-07 0)
(1.13623e-18 1.91129e-07 0)
(1.18588e-18 1.98032e-07 0)
(1.23141e-18 2.03987e-07 0)
(1.28039e-18 2.11039e-07 0)
(1.32898e-18 2.17262e-07 0)
(1.38776e-18 2.24467e-07 0)
(1.43756e-18 2.30959e-07 0)
(1.49573e-18 2.38322e-07 0)
(1.54654e-18 2.45087e-07 0)
(1.61115e-18 2.52616e-07 0)
(1.67316e-18 2.59658e-07 0)
(1.73731e-18 2.67372e-07 0)
(1.80369e-18 2.74709e-07 0)
(1.87236e-18 2.82638e-07 0)
(1.94062e-18 2.90303e-07 0)
(2.01696e-18 2.98503e-07 0)
(2.09301e-18 3.06558e-07 0)
(2.17161e-18 3.15117e-07 0)
(2.25896e-18 3.2366e-07 0)
(2.33684e-18 3.3271e-07 0)
(2.42345e-18 3.41885e-07 0)
(2.5126e-18 3.51605e-07 0)
(2.60421e-18 3.61607e-07 0)
(2.6982e-18 3.72225e-07 0)
(2.80169e-18 3.8329e-07 0)
(2.88476e-18 3.95065e-07 0)
(2.99233e-18 4.0745e-07 0)
(3.09391e-18 4.20641e-07 0)
(3.19665e-18 4.34578e-07 0)
(3.30026e-18 4.49393e-07 0)
(3.41315e-18 4.65035e-07 0)
(3.50783e-18 4.81569e-07 0)
(3.61076e-18 4.98928e-07 0)
(3.71251e-18 5.17105e-07 0)
(3.81241e-18 5.36004e-07 0)
(3.90981e-18 5.55555e-07 0)
(4.00404e-18 5.7564e-07 0)
(4.09442e-18 5.96135e-07 0)
(4.18026e-18 6.16943e-07 0)
(4.26091e-18 6.379e-07 0)
(4.33572e-18 6.58991e-07 0)
(4.40409e-18 6.80059e-07 0)
(4.46545e-18 7.01175e-07 0)
(4.51929e-18 7.22522e-07 0)
(4.56529e-18 7.43791e-07 0)
(4.63262e-18 7.68276e-07 0)
(4.63083e-18 7.94155e-07 0)
(4.64978e-18 8.16403e-07 0)
(4.65974e-18 8.37966e-07 0)
(4.66362e-18 4.58897e-07 0)
(4.68719e-18 2.60855e-07 0)
(5.946e-18 2.2997e-06 0)
(8.85241e-18 1.12708e-07 0)
(1.16645e-17 -1.48051e-07 0)
(1.43216e-17 -2.98211e-08 0)
(1.67699e-17 7.63341e-09 0)
(1.89638e-17 3.33159e-09 0)
(2.08667e-17 -1.43623e-10 0)
(2.2452e-17 -2.80742e-10 0)
(2.37034e-17 -2.70248e-11 0)
(2.46142e-17 1.81475e-11 0)
(2.51869e-17 4.3288e-12 0)
(2.54316e-17 -1.18979e-12 0)
(2.53648e-17 -1.03548e-12 0)
(2.5008e-17 -4.03148e-13 0)
(2.43857e-17 1.27542e-13 0)
(2.35245e-17 5.32687e-13 0)
(2.24514e-17 7.37575e-13 0)
(2.11934e-17 4.74426e-13 0)
(1.9776e-17 -1.94805e-13 0)
(1.8223e-17 -6.65287e-13 0)
(1.65561e-17 -6.1783e-13 0)
(1.47949e-17 -1.67943e-13 0)
(1.29565e-17 2.96863e-13 0)
(1.1056e-17 4.65829e-13 0)
(9.1065e-18 2.64612e-13 0)
(7.11926e-18 -3.51722e-14 0)
(5.10421e-18 -1.82477e-13 0)
(3.07012e-18 -1.27357e-13 0)
(1.02493e-18 -3.00049e-14 0)
)
;

boundaryField
{
    inlet
    {
        type            cyclic;
    }
    outlet
    {
        type            cyclic;
    }
    top
    {
        type            fixedValue;
        value           uniform (0 0 0);
    }
    bottom
    {
        type            fixedValue;
        value           uniform (0 0 0);
    }
    frontAndBackPlanes
    {
        type            empty;
    }
}


// ************************************************************************* //
