/*--------------------------------*- C++ -*----------------------------------*\
| =========                 |                                                 |
| \\      /  F ield         | OpenFOAM: The Open Source CFD Toolbox           |
|  \\    /   O peration     | Version:  v2006                                 |
|   \\  /    A nd           | Website:  www.openfoam.com                      |
|    \\/     M anipulation  |                                                 |
\*---------------------------------------------------------------------------*/
FoamFile
{
    version     2.0;
    format      ascii;
    class       volScalarField;
    location    "280";
    object      nuEffb;
}
// * * * * * * * * * * * * * * * * * * * * * * * * * * * * * * * * * * * * * //

dimensions      [0 2 -1 0 0 0 0];


internalField   nonuniform List<scalar> 
120
(
0.000128533
0.000128427
0.000128314
0.000128196
0.00012807
0.000127935
0.000127792
0.000127637
0.000127468
0.000127284
0.00012708
0.000126851
0.000126587
0.000126276
0.00012591
0.000125502
0.000125061
0.000124563
0.000123642
0.000115625
0.000102897
9.7728e-05
9.58987e-05
9.51813e-05
9.48978e-05
9.47892e-05
9.47482e-05
9.47332e-05
9.47278e-05
9.4726e-05
9.47254e-05
9.47252e-05
9.47251e-05
9.47251e-05
9.47251e-05
9.47251e-05
9.47251e-05
9.47251e-05
9.47251e-05
9.47251e-05
9.47251e-05
9.47251e-05
9.47251e-05
9.4725e-05
9.4725e-05
9.4725e-05
9.4725e-05
9.4725e-05
9.4725e-05
9.4725e-05
9.4725e-05
9.4725e-05
9.4725e-05
9.4725e-05
9.4725e-05
9.4725e-05
9.4725e-05
9.4725e-05
9.4725e-05
9.4725e-05
9.4725e-05
9.4725e-05
9.4725e-05
9.4725e-05
9.4725e-05
9.4725e-05
9.4725e-05
9.4725e-05
9.4725e-05
9.4725e-05
9.4725e-05
9.4725e-05
9.4725e-05
9.4725e-05
9.4725e-05
9.4725e-05
9.4725e-05
9.4725e-05
9.4725e-05
9.4725e-05
9.4725e-05
9.4725e-05
9.4725e-05
9.4725e-05
9.4725e-05
9.4725e-05
9.4725e-05
9.47249e-05
9.47249e-05
9.47249e-05
9.47249e-05
9.47249e-05
9.47249e-05
9.47249e-05
9.47249e-05
9.4725e-05
9.4725e-05
9.47233e-05
9.47342e-05
9.4676e-05
9.49115e-05
9.42589e-05
9.31488e-05
0.000106717
4.00053e-05
2.10538e-05
2.10501e-05
2.105e-05
2.105e-05
2.105e-05
2.105e-05
2.105e-05
2.105e-05
2.105e-05
2.105e-05
2.105e-05
2.105e-05
2.105e-05
2.105e-05
2.105e-05
)
;

boundaryField
{
    inlet
    {
        type            cyclic;
    }
    outlet
    {
        type            cyclic;
    }
    top
    {
        type            calculated;
        value           uniform 2.105e-05;
    }
    bottom
    {
        type            calculated;
        value           uniform 0.000128533;
    }
    frontAndBackPlanes
    {
        type            empty;
    }
}


// ************************************************************************* //
