/*--------------------------------*- C++ -*----------------------------------*\
| =========                 |                                                 |
| \\      /  F ield         | OpenFOAM: The Open Source CFD Toolbox           |
|  \\    /   O peration     | Version:  v2006                                 |
|   \\  /    A nd           | Website:  www.openfoam.com                      |
|    \\/     M anipulation  |                                                 |
\*---------------------------------------------------------------------------*/
FoamFile
{
    version     2.0;
    format      ascii;
    class       volScalarField;
    location    "280";
    object      p;
}
// * * * * * * * * * * * * * * * * * * * * * * * * * * * * * * * * * * * * * //

dimensions      [1 -1 -2 0 0 0 0];


internalField   nonuniform List<scalar> 
120
(
18.9676
14.3062
9.64309
4.97818
0.311349
-4.35749
-9.02845
-13.7017
-18.3772
-23.0554
-27.7363
-32.4203
-37.1079
-41.7998
-46.4969
-51.201
-55.9136
-60.6342
-65.3593
-70.08
-74.9759
-79.8899
-84.7981
-89.7043
-94.6098
-99.5149
-104.42
-109.325
-114.23
-119.135
-124.04
-128.945
-133.85
-138.755
-143.66
-148.565
-153.47
-158.375
-163.28
-168.185
-173.09
-177.995
-182.9
-187.805
-192.71
-197.615
-202.52
-207.425
-212.33
-217.235
-222.14
-227.045
-231.95
-236.855
-241.76
-246.665
-251.57
-256.475
-261.38
-266.285
-271.19
-276.095
-281
-285.905
-290.81
-295.715
-300.62
-305.525
-310.43
-315.335
-320.24
-325.145
-330.05
-334.955
-339.86
-344.765
-349.67
-354.575
-359.48
-364.385
-369.29
-374.195
-379.1
-384.005
-388.91
-393.815
-398.72
-403.625
-408.53
-413.435
-418.34
-423.245
-428.15
-433.055
-437.96
-442.865
-447.77
-452.675
-457.58
-462.485
-467.39
-472.295
-477.201
-482.129
-486.931
-491.604
-496.264
-500.923
-505.583
-510.243
-514.902
-519.562
-524.222
-528.882
-533.541
-538.201
-542.861
-547.521
-552.18
-556.84
)
;

boundaryField
{
    inlet
    {
        type            cyclic;
    }
    outlet
    {
        type            cyclic;
    }
    top
    {
        type            calculated;
        value           uniform -559.17;
    }
    bottom
    {
        type            calculated;
        value           uniform 21.2975;
    }
    frontAndBackPlanes
    {
        type            empty;
    }
}


// ************************************************************************* //
