/*--------------------------------*- C++ -*----------------------------------*\
| =========                 |                                                 |
| \\      /  F ield         | OpenFOAM: The Open Source CFD Toolbox           |
|  \\    /   O peration     | Version:  v2006                                 |
|   \\  /    A nd           | Website:  www.openfoam.com                      |
|    \\/     M anipulation  |                                                 |
\*---------------------------------------------------------------------------*/
FoamFile
{
    version     2.0;
    format      ascii;
    class       volScalarField;
    location    "280";
    object      p_rbgh;
}
// * * * * * * * * * * * * * * * * * * * * * * * * * * * * * * * * * * * * * //

dimensions      [1 -1 -2 0 0 0 0];


internalField   nonuniform List<scalar> 
120
(
21.2975
21.2958
21.2925
21.2873
21.2802
21.2711
21.2599
21.2465
21.2306
21.2122
21.1911
21.1668
21.139
21.1069
21.0694
21.0251
20.9723
20.9115
20.8461
20.7851
20.549
20.2947
20.0463
19.7998
19.5541
19.3087
19.0634
18.8181
18.5729
18.3276
18.0824
17.8371
17.5919
17.3466
17.1013
16.8561
16.6108
16.3656
16.1203
15.8751
15.6298
15.3846
15.1393
14.8941
14.6488
14.4036
14.1583
13.9131
13.6678
13.4226
13.1773
12.9321
12.6868
12.4416
12.1963
11.9511
11.7058
11.4606
11.2153
10.9701
10.7248
10.4796
10.2343
9.9891
9.74385
9.4986
9.25335
9.0081
8.76285
8.5176
8.27235
8.0271
7.78185
7.5366
7.29135
7.0461
6.80085
6.5556
6.31035
6.0651
5.81985
5.5746
5.32935
5.0841
4.83885
4.5936
4.34835
4.1031
3.85785
3.6126
3.36735
3.1221
2.87685
2.6316
2.38635
2.1411
1.89585
1.65061
1.40534
1.16015
0.914893
0.669349
0.422988
0.155389
0.012811
-0.000209649
-0.000519917
-0.000108137
2.50597e-05
9.76463e-06
-1.55174e-06
-8.25721e-07
1.01637e-07
8.51415e-08
9.80984e-09
7.19578e-09
1.20764e-08
1.1565e-08
9.65818e-09
6.53597e-09
)
;

boundaryField
{
    inlet
    {
        type            cyclic;
    }
    outlet
    {
        type            cyclic;
    }
    top
    {
        type            fixedValue;
        value           uniform 0;
    }
    bottom
    {
        type            fixedFluxPressure;
        gradient        uniform 0;
        value           uniform 21.2975;
    }
    frontAndBackPlanes
    {
        type            empty;
    }
}


// ************************************************************************* //
