/*--------------------------------*- C++ -*----------------------------------*\
| =========                 |                                                 |
| \\      /  F ield         | OpenFOAM: The Open Source CFD Toolbox           |
|  \\    /   O peration     | Version:  v2006                                 |
|   \\  /    A nd           | Website:  www.openfoam.com                      |
|    \\/     M anipulation  |                                                 |
\*---------------------------------------------------------------------------*/
FoamFile
{
    version     2.0;
    format      ascii;
    class       surfaceScalarField;
    location    "280";
    object      phia;
}
// * * * * * * * * * * * * * * * * * * * * * * * * * * * * * * * * * * * * * //

dimensions      [0 3 -1 0 0 0 0];
oriented        oriented;


internalField   nonuniform List<scalar> 
119
(
-4.52171e-15
-9.3055e-15
-1.43746e-14
-1.97555e-14
-2.54769e-14
-3.15709e-14
-3.80787e-14
-4.5063e-14
-5.26284e-14
-6.09535e-14
-7.03461e-14
-8.13365e-14
-9.47646e-14
-1.11747e-13
-1.33984e-13
-1.61673e-13
-1.89496e-13
-2.08779e-13
-2.31128e-13
-1.29079e-12
-1.92204e-12
-2.16342e-12
-2.25937e-12
-2.29868e-12
-2.31398e-12
-2.31986e-12
-2.32207e-12
-2.32287e-12
-2.32316e-12
-2.32325e-12
-2.32328e-12
-2.32329e-12
-2.3233e-12
-2.3233e-12
-2.3233e-12
-2.3233e-12
-2.3233e-12
-2.3233e-12
-2.3233e-12
-2.3233e-12
-2.32331e-12
-2.32331e-12
-2.32331e-12
-2.32331e-12
-2.32331e-12
-2.32331e-12
-2.32331e-12
-2.32331e-12
-2.32331e-12
-2.32331e-12
-2.32331e-12
-2.32331e-12
-2.32331e-12
-2.32331e-12
-2.32331e-12
-2.32331e-12
-2.32331e-12
-2.32331e-12
-2.32331e-12
-2.32331e-12
-2.32331e-12
-2.32331e-12
-2.32331e-12
-2.32331e-12
-2.32331e-12
-2.32331e-12
-2.32331e-12
-2.32331e-12
-2.32331e-12
-2.32331e-12
-2.32331e-12
-2.32331e-12
-2.32331e-12
-2.32331e-12
-2.32331e-12
-2.32331e-12
-2.32331e-12
-2.32331e-12
-2.32331e-12
-2.32331e-12
-2.32331e-12
-2.32331e-12
-2.32331e-12
-2.32332e-12
-2.32332e-12
-2.32332e-12
-2.32332e-12
-2.32332e-12
-2.32332e-12
-2.32332e-12
-2.32332e-12
-2.32332e-12
-2.32332e-12
-2.32332e-12
-2.32332e-12
-2.32332e-12
-2.3234e-12
-2.32287e-12
-2.3252e-12
-2.31874e-12
-2.32985e-12
-2.38126e-12
-1.85991e-12
-1.05879e-11
-2.77526e-11
-1.01488e-10
-8.22219e-11
-8.22848e-11
-8.22738e-11
-8.22748e-11
-8.22767e-11
-8.22767e-11
-8.22766e-11
-8.22766e-11
-8.22766e-11
-8.22766e-11
-8.22765e-11
-8.22565e-11
-8.21697e-11
)
;

boundaryField
{
    inlet
    {
        type            cyclic;
        value           nonuniform List<scalar> 
120
(
1.19777e-28
3.59321e-28
5.98874e-28
8.68912e-28
1.1392e-27
1.41001e-27
1.68177e-27
2.01659e-27
2.35447e-27
2.63618e-27
2.92956e-27
3.24507e-27
3.53447e-27
3.88496e-27
4.31922e-27
4.88254e-27
5.63034e-27
6.43989e-27
7.16258e-27
8.22427e-27
1.56161e-24
2.60495e-24
3.81357e-24
5.26307e-24
2.1164e-24
-1.05508e-24
-4.50315e-24
-6.09561e-24
-8.41234e-24
-1.16052e-23
-1.09962e-23
-6.50997e-24
-2.68814e-24
7.24699e-25
3.96597e-24
7.24214e-24
5.92868e-24
-1.22638e-26
-1.2156e-24
-7.39148e-24
-4.46862e-24
-6.86765e-24
-5.18598e-24
-4.23932e-24
-3.97576e-24
-9.10239e-24
-5.26993e-24
-1.81202e-24
6.3095e-24
5.09343e-24
4.21683e-24
3.75627e-24
3.75405e-24
4.16698e-24
4.88929e-24
9.82806e-25
-3.06404e-24
-7.53691e-24
-1.27168e-23
-9.30307e-24
-6.86242e-24
-5.35483e-24
-4.71268e-24
-4.8263e-24
-5.6219e-24
2.51027e-24
6.56354e-25
-1.69128e-24
-4.65979e-24
-8.36342e-24
-1.29511e-23
-9.00747e-24
-6.00085e-24
-3.81276e-24
-2.31984e-24
-1.38219e-24
-8.76646e-25
-7.25303e-25
-9.16875e-25
-1.52126e-24
-2.69677e-24
-4.6867e-24
-7.79988e-24
-1.23716e-23
-1.87079e-23
-2.7111e-23
-1.87071e-23
-1.23693e-23
-7.7937e-24
-4.67134e-24
-2.66025e-24
-1.43847e-24
-7.384e-25
-3.59889e-25
-1.6663e-25
-7.33433e-26
-3.07182e-26
-1.22547e-26
-4.66211e-27
-1.69352e-27
-5.87211e-28
-1.96647e-28
-6.28662e-29
-2.06398e-29
-1.68964e-29
-1.47681e-29
-1.22613e-29
-1.01055e-29
-8.27402e-30
-6.73091e-30
-5.43984e-30
-4.36681e-30
-3.47785e-30
-2.74202e-30
-2.13075e-30
-1.61886e-30
-1.18392e-30
-8.06225e-31
-4.67939e-31
-1.52723e-31
)
;
    }
    outlet
    {
        type            cyclic;
        value           nonuniform List<scalar> 
120
(
-1.19777e-28
-3.59321e-28
-5.98874e-28
-8.68912e-28
-1.1392e-27
-1.41001e-27
-1.68177e-27
-2.01659e-27
-2.35447e-27
-2.63618e-27
-2.92956e-27
-3.24507e-27
-3.53447e-27
-3.88496e-27
-4.31922e-27
-4.88254e-27
-5.63034e-27
-6.43989e-27
-7.16258e-27
-8.22427e-27
-1.56161e-24
-2.60495e-24
-3.81357e-24
-5.26307e-24
-2.1164e-24
1.05508e-24
4.50315e-24
6.09561e-24
8.41234e-24
1.16052e-23
1.09962e-23
6.50997e-24
2.68814e-24
-7.24699e-25
-3.96597e-24
-7.24214e-24
-5.92868e-24
1.22638e-26
1.2156e-24
7.39148e-24
4.46862e-24
6.86765e-24
5.18598e-24
4.23932e-24
3.97576e-24
9.10239e-24
5.26993e-24
1.81202e-24
-6.3095e-24
-5.09343e-24
-4.21683e-24
-3.75627e-24
-3.75405e-24
-4.16698e-24
-4.88929e-24
-9.82806e-25
3.06404e-24
7.53691e-24
1.27168e-23
9.30307e-24
6.86242e-24
5.35483e-24
4.71268e-24
4.8263e-24
5.6219e-24
-2.51027e-24
-6.56354e-25
1.69128e-24
4.65979e-24
8.36342e-24
1.29511e-23
9.00747e-24
6.00085e-24
3.81276e-24
2.31984e-24
1.38219e-24
8.76646e-25
7.25303e-25
9.16875e-25
1.52126e-24
2.69677e-24
4.6867e-24
7.79988e-24
1.23716e-23
1.87079e-23
2.7111e-23
1.87071e-23
1.23693e-23
7.7937e-24
4.67134e-24
2.66025e-24
1.43847e-24
7.384e-25
3.59889e-25
1.6663e-25
7.33433e-26
3.07182e-26
1.22547e-26
4.66211e-27
1.69352e-27
5.87211e-28
1.96647e-28
6.28662e-29
2.06398e-29
1.68964e-29
1.47681e-29
1.22613e-29
1.01055e-29
8.27402e-30
6.73091e-30
5.43984e-30
4.36681e-30
3.47785e-30
2.74202e-30
2.13075e-30
1.61886e-30
1.18392e-30
8.06225e-31
4.67939e-31
1.52723e-31
)
;
    }
    top
    {
        type            fixedValue;
        value           uniform 0;
    }
    bottom
    {
        type            fixedValue;
        value           uniform 0;
    }
    frontAndBackPlanes
    {
        type            empty;
        value           nonuniform List<scalar> 0();
    }
}


// ************************************************************************* //
