/*--------------------------------*- C++ -*----------------------------------*\
| =========                 |                                                 |
| \\      /  F ield         | OpenFOAM: The Open Source CFD Toolbox           |
|  \\    /   O peration     | Version:  v2006                                 |
|   \\  /    A nd           | Website:  www.openfoam.com                      |
|    \\/     M anipulation  |                                                 |
\*---------------------------------------------------------------------------*/
FoamFile
{
    version     2.0;
    format      ascii;
    class       surfaceScalarField;
    location    "280";
    object      phib;
}
// * * * * * * * * * * * * * * * * * * * * * * * * * * * * * * * * * * * * * //

dimensions      [0 3 -1 0 0 0 0];
oriented        oriented;


internalField   nonuniform List<scalar> 
119
(
6.59488e-15
1.35582e-14
2.09212e-14
2.87198e-14
3.69918e-14
4.57802e-14
5.51391e-14
6.51536e-14
7.59655e-14
8.78214e-14
1.01146e-13
1.16675e-13
1.35566e-13
1.59344e-13
1.90344e-13
2.28747e-13
2.66903e-13
2.92048e-13
3.09e-13
1.54111e-12
2.06669e-12
2.22459e-12
2.28436e-12
2.30851e-12
2.31772e-12
2.32125e-12
2.32258e-12
2.32306e-12
2.32323e-12
2.32328e-12
2.3233e-12
2.32331e-12
2.32331e-12
2.32331e-12
2.32331e-12
2.32331e-12
2.32331e-12
2.32331e-12
2.32331e-12
2.32331e-12
2.32331e-12
2.32331e-12
2.32331e-12
2.32331e-12
2.32331e-12
2.32331e-12
2.32331e-12
2.32331e-12
2.32331e-12
2.32331e-12
2.32331e-12
2.32331e-12
2.32331e-12
2.32331e-12
2.32331e-12
2.32331e-12
2.32331e-12
2.32331e-12
2.32331e-12
2.32331e-12
2.32331e-12
2.32331e-12
2.32331e-12
2.32331e-12
2.32331e-12
2.32331e-12
2.32331e-12
2.32331e-12
2.32331e-12
2.32331e-12
2.32331e-12
2.32331e-12
2.32331e-12
2.32331e-12
2.32331e-12
2.32331e-12
2.32331e-12
2.32331e-12
2.32331e-12
2.32331e-12
2.32331e-12
2.32331e-12
2.32331e-12
2.32331e-12
2.32331e-12
2.32332e-12
2.32332e-12
2.32332e-12
2.32332e-12
2.32332e-12
2.32332e-12
2.32332e-12
2.32332e-12
2.32332e-12
2.32332e-12
2.32332e-12
2.32338e-12
2.32299e-12
2.32457e-12
2.32091e-12
2.32541e-12
2.34819e-12
1.98377e-12
6.24854e-12
3.16411e-12
2.73701e-15
8.71589e-17
1.11902e-17
1.34966e-17
1.62957e-17
1.78799e-17
2.05886e-17
2.23426e-17
2.52069e-17
2.61374e-17
2.7713e-17
2.73124e-17
2.76906e-17
2.59485e-17
)
;

boundaryField
{
    inlet
    {
        type            cyclic;
        value           nonuniform List<scalar> 
120
(
1.19777e-28
3.59243e-28
5.81665e-28
8.68833e-28
1.1392e-27
1.40954e-27
1.58014e-27
2.01678e-27
2.4969e-27
2.63685e-27
2.9306e-27
3.4652e-27
3.53551e-27
3.88496e-27
4.3194e-27
4.88326e-27
5.63136e-27
6.44192e-27
7.2157e-27
1.75165e-26
1.56159e-24
2.60496e-24
3.81358e-24
5.24134e-24
2.1164e-24
-1.05509e-24
-4.49224e-24
-6.09564e-24
-8.41237e-24
-1.15833e-23
-1.09744e-23
-6.50999e-24
-2.68816e-24
7.2469e-25
3.96597e-24
7.22027e-24
5.90681e-24
9.60029e-27
-1.23747e-24
-7.34776e-24
-4.49051e-24
-6.84581e-24
-5.18601e-24
-4.23935e-24
-3.99765e-24
-9.05867e-24
-5.26994e-24
-1.79016e-24
6.26577e-24
5.09344e-24
4.21685e-24
3.75629e-24
3.75406e-24
4.16699e-24
4.86743e-24
9.82799e-25
-3.06406e-24
-7.53693e-24
-1.26731e-23
-9.3031e-24
-6.86246e-24
-5.35487e-24
-4.71271e-24
-4.82632e-24
-5.57819e-24
2.46652e-24
6.56328e-25
-1.6913e-24
-4.65982e-24
-8.36345e-24
-1.29074e-23
-9.0075e-24
-6.00089e-24
-3.81279e-24
-2.31986e-24
-1.3822e-24
-8.7666e-25
-7.25316e-25
-9.16891e-25
-1.52128e-24
-2.6968e-24
-4.68674e-24
-7.79993e-24
-1.23717e-23
-1.8708e-23
-2.70236e-23
-1.87072e-23
-1.23693e-23
-7.79376e-24
-4.67139e-24
-2.66028e-24
-1.43849e-24
-7.38413e-25
-3.59897e-25
-1.66634e-25
-7.33453e-26
-3.07191e-26
-1.22551e-26
-4.6623e-27
-1.69359e-27
-5.87239e-28
-1.96658e-28
-6.28697e-29
-2.06407e-29
-1.6897e-29
-1.47653e-29
-1.22564e-29
-1.01047e-29
-8.27439e-30
-6.73107e-30
-5.44011e-30
-4.36693e-30
-3.47803e-30
-2.74213e-30
-2.13085e-30
-1.61891e-30
-1.18399e-30
-8.06278e-31
-4.67983e-31
-1.52743e-31
)
;
    }
    outlet
    {
        type            cyclic;
        value           nonuniform List<scalar> 
120
(
-1.19777e-28
-3.59243e-28
-5.81665e-28
-8.68833e-28
-1.1392e-27
-1.40954e-27
-1.58014e-27
-2.01678e-27
-2.4969e-27
-2.63685e-27
-2.9306e-27
-3.4652e-27
-3.53551e-27
-3.88496e-27
-4.3194e-27
-4.88326e-27
-5.63136e-27
-6.44192e-27
-7.2157e-27
-1.75165e-26
-1.56159e-24
-2.60496e-24
-3.81358e-24
-5.24134e-24
-2.1164e-24
1.05509e-24
4.49224e-24
6.09564e-24
8.41237e-24
1.15833e-23
1.09744e-23
6.50999e-24
2.68816e-24
-7.2469e-25
-3.96597e-24
-7.22027e-24
-5.90681e-24
-9.60029e-27
1.23747e-24
7.34776e-24
4.49051e-24
6.84581e-24
5.18601e-24
4.23935e-24
3.99765e-24
9.05867e-24
5.26994e-24
1.79016e-24
-6.26577e-24
-5.09344e-24
-4.21685e-24
-3.75629e-24
-3.75406e-24
-4.16699e-24
-4.86743e-24
-9.82799e-25
3.06406e-24
7.53693e-24
1.26731e-23
9.3031e-24
6.86246e-24
5.35487e-24
4.71271e-24
4.82632e-24
5.57819e-24
-2.46652e-24
-6.56328e-25
1.6913e-24
4.65982e-24
8.36345e-24
1.29074e-23
9.0075e-24
6.00089e-24
3.81279e-24
2.31986e-24
1.3822e-24
8.7666e-25
7.25316e-25
9.16891e-25
1.52128e-24
2.6968e-24
4.68674e-24
7.79993e-24
1.23717e-23
1.8708e-23
2.70236e-23
1.87072e-23
1.23693e-23
7.79376e-24
4.67139e-24
2.66028e-24
1.43849e-24
7.38413e-25
3.59897e-25
1.66634e-25
7.33453e-26
3.07191e-26
1.22551e-26
4.6623e-27
1.69359e-27
5.87239e-28
1.96658e-28
6.28697e-29
2.06407e-29
1.6897e-29
1.47653e-29
1.22564e-29
1.01047e-29
8.27439e-30
6.73107e-30
5.44011e-30
4.36693e-30
3.47803e-30
2.74213e-30
2.13085e-30
1.61891e-30
1.18399e-30
8.06278e-31
4.67983e-31
1.52743e-31
)
;
    }
    top
    {
        type            fixedValue;
        value           uniform 0;
    }
    bottom
    {
        type            fixedValue;
        value           uniform 0;
    }
    frontAndBackPlanes
    {
        type            empty;
        value           nonuniform List<scalar> 0();
    }
}


// ************************************************************************* //
