/*--------------------------------*- C++ -*----------------------------------*\
| =========                 |                                                 |
| \\      /  F ield         | OpenFOAM: The Open Source CFD Toolbox           |
|  \\    /   O peration     | Version:  v2006                                 |
|   \\  /    A nd           | Website:  www.openfoam.com                      |
|    \\/     M anipulation  |                                                 |
\*---------------------------------------------------------------------------*/
FoamFile
{
    version     2.0;
    format      ascii;
    class       volTensorField;
    location    "280";
    object      Taua;
}
// * * * * * * * * * * * * * * * * * * * * * * * * * * * * * * * * * * * * * //

dimensions      [1 -1 -2 0 0 0 0];


internalField   nonuniform List<tensor> 
120
(
(0.00882548 0 0 -1.67685e-15 -0.017651 0 0 0 0.00882548)
(0.00926475 0 0 -1.67684e-15 -0.0185295 0 0 0 0.00926475)
(0.00985354 0 0 -1.78357e-15 -0.0197071 0 0 0 0.00985354)
(0.010465 0 0 -1.89114e-15 -0.0209301 0 0 0 0.010465)
(0.0111249 0 0 -1.89385e-15 -0.0222497 0 0 0 0.0111249)
(0.011849 0 0 -1.89899e-15 -0.0236981 0 0 0 0.011849)
(0.0126544 0 0 -2.12302e-15 -0.0253088 0 0 0 0.0126544)
(0.0135813 0 0 -2.35445e-15 -0.0271626 0 0 0 0.0135813)
(0.0147093 0 0 -2.16857e-15 -0.0294186 0 0 0 0.0147093)
(0.0161813 0 0 -2.01284e-15 -0.0323626 0 0 0 0.0161813)
(0.0182495 0 0 -2.13111e-15 -0.036499 0 0 0 0.0182495)
(0.0213445 0 0 -2.11717e-15 -0.042689 0 0 0 0.0213445)
(0.026199 0 0 -2.23962e-15 -0.0523979 0 0 0 0.026199)
(0.033518 0 0 -2.74661e-15 -0.067036 0 0 0 0.033518)
(0.043228 0 0 -3.49152e-15 -0.0864561 0 0 0 0.043228)
(0.0451675 0 0 -3.93157e-15 -0.0903349 0 0 0 0.0451675)
(0.0329665 0 0 -3.4322e-15 -0.0659329 0 0 0 0.0329665)
(0.0229107 0 0 -2.83086e-15 -0.0458215 0 0 0 0.0229107)
(0.0112641 0 0 -1.23165e-15 -0.0225282 0 0 0 0.0112641)
(1.79117e-06 0 0 -3.0582e-18 -3.58235e-06 0 0 0 1.79117e-06)
(5.18992e-07 0 0 -4.78307e-18 -1.03798e-06 0 0 0 5.18992e-07)
(-7.69552e-07 0 0 -4.01964e-18 1.5391e-06 0 0 0 -7.69552e-07)
(4.50244e-07 0 0 -4.68846e-18 -9.00488e-07 0 0 0 4.50244e-07)
(1.57317e-07 0 0 2.97921e-18 -3.14635e-07 0 0 0 1.57317e-07)
(5.34123e-08 0 0 1.10697e-17 -1.06825e-07 0 0 0 5.34123e-08)
(2.2808e-08 0 0 1.15893e-17 -4.56161e-08 0 0 0 2.2808e-08)
(8.81724e-09 0 0 8.82231e-18 -1.76345e-08 0 0 0 8.81724e-09)
(3.26041e-09 0 0 6.84145e-18 -6.52082e-09 0 0 0 3.26041e-09)
(1.18806e-09 0 0 9.64192e-18 -2.37613e-09 0 0 0 1.18806e-09)
(4.17711e-10 0 0 4.52187e-18 -8.35422e-10 0 0 0 4.17711e-10)
(1.42584e-10 0 0 -8.91664e-18 -2.85169e-10 0 0 0 1.42584e-10)
(4.6684e-11 0 0 -1.45392e-17 -9.33681e-11 0 0 0 4.6684e-11)
(1.50594e-11 0 0 -1.26607e-17 -3.01189e-11 0 0 0 1.50594e-11)
(4.54429e-12 0 0 -1.16447e-17 -9.08858e-12 0 0 0 4.54429e-12)
(2.1005e-12 0 0 -1.14055e-17 -4.20099e-12 0 0 0 2.1005e-12)
(7.0327e-13 1.17803e-21 0 -3.43474e-18 -1.40654e-12 0 0 0 7.0327e-13)
(7.79447e-13 0 0 1.26952e-17 -1.55889e-12 0 0 0 7.79447e-13)
(6.25439e-13 0 0 1.25025e-17 -1.25088e-12 0 0 0 6.25439e-13)
(1.03838e-12 0 0 1.29136e-17 -2.07677e-12 0 0 0 1.03838e-12)
(6.29135e-13 0 0 5.69279e-18 -1.25827e-12 0 0 0 6.29135e-13)
(6.66096e-13 0 0 -9.16704e-19 -1.33219e-12 0 0 0 6.66096e-13)
(4.61126e-13 0 0 1.25538e-18 -9.22252e-13 0 0 0 4.61126e-13)
(6.62699e-13 0 0 -4.59957e-18 -1.3254e-12 0 0 0 6.62699e-13)
(4.38931e-13 0 0 -2.11789e-18 -8.77861e-13 0 0 0 4.38931e-13)
(5.11364e-13 0 0 8.51036e-18 -1.02273e-12 0 0 0 5.11364e-13)
(4.18035e-13 0 0 2.2648e-18 -8.3607e-13 0 0 0 4.18035e-13)
(4.91406e-13 0 0 -1.27581e-17 -9.82813e-13 0 0 0 4.91406e-13)
(3.55901e-13 0 0 -2.0264e-17 -7.11801e-13 0 0 0 3.55901e-13)
(3.41576e-13 0 0 -1.20845e-17 -6.83151e-13 0 0 0 3.41576e-13)
(2.658e-13 0 0 3.66216e-18 -5.31599e-13 0 0 0 2.658e-13)
(2.83416e-13 0 0 2.34002e-18 -5.66831e-13 0 0 0 2.83416e-13)
(2.12415e-13 0 0 8.09875e-19 -4.24831e-13 0 0 0 2.12415e-13)
(2.07894e-13 0 0 -7.18742e-19 -4.15787e-13 0 0 0 2.07894e-13)
(1.71279e-13 0 0 -1.98668e-18 -3.42559e-13 0 0 0 1.71279e-13)
(1.68255e-13 0 0 5.57231e-18 -3.3651e-13 0 0 0 1.68255e-13)
(1.32617e-13 0 0 1.39183e-17 -2.65234e-13 0 0 0 1.32617e-13)
(1.17818e-13 0 0 1.49095e-17 -2.35637e-13 0 0 0 1.17818e-13)
(9.70481e-14 0 0 1.68923e-17 -1.94096e-13 0 0 0 9.70481e-14)
(9.10121e-14 -1.17803e-21 0 3.09077e-18 -1.82024e-13 0 0 0 9.10121e-14)
(7.53137e-14 0 0 -1.02451e-17 -1.50627e-13 0 0 0 7.53137e-14)
(6.93529e-14 0 0 -6.90941e-18 -1.38706e-13 0 0 0 6.93529e-14)
(6.35e-14 0 0 -3.76205e-18 -1.27e-13 0 0 0 6.35e-14)
(6.05645e-14 0 0 -9.24932e-19 -1.21129e-13 0 0 0 6.05645e-14)
(5.71061e-14 0 0 1.59114e-18 -1.14212e-13 0 0 0 5.71061e-14)
(5.12328e-14 0 0 -1.2839e-17 -1.02466e-13 0 0 0 5.12328e-14)
(5.32341e-14 0 0 -1.09869e-17 -1.06468e-13 0 0 0 5.32341e-14)
(5.12493e-14 0 0 7.35272e-18 -1.02499e-13 0 0 0 5.12493e-14)
(6.18655e-14 0 0 9.30325e-18 -1.23731e-13 0 0 0 6.18655e-14)
(6.20136e-14 0 0 1.16762e-17 -1.24027e-13 0 0 0 6.20136e-14)
(8.38105e-14 0 0 1.45099e-17 -1.67621e-13 0 0 0 8.38105e-14)
(8.79931e-14 0 0 1.12709e-18 -1.75986e-13 0 0 0 8.79931e-14)
(1.12852e-13 0 0 -1.2163e-17 -2.25705e-13 0 0 0 1.12852e-13)
(9.94276e-14 0 0 -9.09075e-18 -1.98855e-13 0 0 0 9.94276e-14)
(1.3202e-13 0 0 -6.44178e-18 -2.64041e-13 0 0 0 1.3202e-13)
(1.20768e-13 0 0 -4.2535e-18 -2.41536e-13 0 0 0 1.20768e-13)
(1.84155e-13 0 0 -2.52558e-18 -3.6831e-13 0 0 0 1.84155e-13)
(1.68492e-13 0 0 -1.14955e-18 -3.36984e-13 0 0 0 1.68492e-13)
(2.69766e-13 0 0 7.04003e-20 -5.39531e-13 0 0 0 2.69766e-13)
(2.62968e-13 0 0 1.39293e-18 -5.25936e-13 0 0 0 2.62968e-13)
(3.59533e-13 0 0 3.11482e-18 -7.19065e-13 0 0 0 3.59533e-13)
(2.64544e-13 0 0 5.53951e-18 -5.29089e-13 0 0 0 2.64544e-13)
(3.80594e-13 0 0 8.93043e-18 -7.61188e-13 0 0 0 3.80594e-13)
(2.98354e-13 0 0 1.34486e-17 -5.96707e-13 0 0 0 2.98354e-13)
(4.90712e-13 0 0 1.90891e-17 -9.81423e-13 0 0 0 4.90712e-13)
(3.60085e-13 0 0 2.57938e-17 -7.20171e-13 0 0 0 3.60085e-13)
(6.82071e-13 0 0 -1.4316e-21 -1.36414e-12 0 0 0 6.82071e-13)
(5.50256e-13 0 0 -2.5798e-17 -1.10051e-12 0 0 0 5.50256e-13)
(9.44122e-13 0 0 -1.90985e-17 -1.88824e-12 0 0 0 9.44122e-13)
(1.08527e-13 0 0 -1.34713e-17 -2.17054e-13 0 0 0 1.08527e-13)
(1.06818e-12 0 0 -8.98352e-18 -2.13636e-12 0 0 0 1.06818e-12)
(-2.53324e-12 0 0 -5.65752e-18 5.06648e-12 0 0 0 -2.53324e-12)
(1.58974e-11 0 0 -3.36324e-18 -3.17949e-11 0 0 0 1.58974e-11)
(-4.652e-12 0 0 -1.88752e-18 9.304e-12 0 0 0 -4.652e-12)
(-1.4624e-10 0 0 -1.0006e-18 2.92481e-10 0 0 0 -1.4624e-10)
(1.21452e-10 0 0 -5.01455e-19 -2.42903e-10 0 0 0 1.21452e-10)
(1.71123e-09 0 0 -2.37846e-19 -3.42246e-09 0 0 0 1.71123e-09)
(-2.11285e-09 0 0 -1.06905e-19 4.22571e-09 0 0 0 -2.11285e-09)
(-2.04446e-08 0 0 -4.55976e-20 4.08892e-08 0 0 0 -2.04446e-08)
(2.67322e-08 0 0 -1.84832e-20 -5.34645e-08 0 0 0 2.67322e-08)
(3.98788e-07 0 0 -7.12871e-21 -7.97575e-07 0 0 0 3.98788e-07)
(-1.41726e-06 0 0 -2.62284e-21 2.83451e-06 0 0 0 -1.41726e-06)
(-2.93556e-06 0 0 -9.14691e-22 5.87112e-06 0 0 0 -2.93556e-06)
(2.57601e-05 0 0 -3.04683e-22 -5.15202e-05 0 0 0 2.57601e-05)
(3.05049e-05 0 0 -8.65016e-23 -6.10099e-05 0 0 0 3.05049e-05)
(1.12353e-06 0 0 -4.20538e-24 -2.24706e-06 0 0 0 1.12353e-06)
(1.64631e-09 0 0 -8.42077e-28 -3.29261e-09 0 0 0 1.64631e-09)
(4.57068e-11 0 0 -3.13939e-29 -9.14137e-11 0 0 0 4.57068e-11)
(-4.99486e-18 0 0 -1.32566e-35 9.98971e-18 0 0 0 -4.99486e-18)
(-2.62139e-25 0 0 -3.54616e-42 5.24278e-25 0 0 0 -2.62139e-25)
(-2.92659e-32 0 0 -7.93712e-49 5.85318e-32 0 0 0 -2.92659e-32)
(1.21745e-39 0 0 -1.77858e-55 -2.4349e-39 0 0 0 1.21745e-39)
(1.878e-46 0 0 -4.0433e-62 -3.75601e-46 0 0 0 1.878e-46)
(-6.02445e-54 0 0 -1.10677e-68 1.20489e-53 0 0 0 -6.02445e-54)
(-7.92849e-58 0 0 -1.39569e-72 1.5857e-57 0 0 0 -7.92849e-58)
(1.89216e-60 0 0 -5.85617e-74 -3.78432e-60 0 0 0 1.89216e-60)
(1.25792e-61 0 0 -2.08243e-75 -2.51583e-61 0 0 0 1.25792e-61)
(-2.07589e-61 0 0 -6.05566e-77 4.15177e-61 0 0 0 -2.07589e-61)
(-1.24597e-62 0 0 -1.3655e-78 2.49195e-62 0 0 0 -1.24597e-62)
(-1.56417e-63 0 0 -2.16181e-80 3.12833e-63 0 0 0 -1.56417e-63)
(-1.35442e-62 0 0 -1.84138e-82 2.70884e-62 0 0 0 -1.35442e-62)
)
;

boundaryField
{
    inlet
    {
        type            cyclic;
    }
    outlet
    {
        type            cyclic;
    }
    top
    {
        type            extrapolatedCalculated;
        value           uniform (-2.70625e-62 0 0 -1.81239e-82 5.41251e-62 0 0 0 -2.70625e-62);
    }
    bottom
    {
        type            extrapolatedCalculated;
        value           uniform (0.00867841 0 0 -1.67688e-15 -0.0173568 0 0 0 0.00867841);
    }
    frontAndBackPlanes
    {
        type            empty;
    }
}


// ************************************************************************* //
