/*--------------------------------*- C++ -*----------------------------------*\
| =========                 |                                                 |
| \\      /  F ield         | OpenFOAM: The Open Source CFD Toolbox           |
|  \\    /   O peration     | Version:  v2006                                 |
|   \\  /    A nd           | Website:  www.openfoam.com                      |
|    \\/     M anipulation  |                                                 |
\*---------------------------------------------------------------------------*/
FoamFile
{
    version     2.0;
    format      ascii;
    class       volTensorField;
    location    "280";
    object      Taub;
}
// * * * * * * * * * * * * * * * * * * * * * * * * * * * * * * * * * * * * * //

dimensions      [1 -1 -2 0 0 0 0];


internalField   nonuniform List<tensor> 
120
(
(-6.18806e-07 0 0 -7.92927e-20 1.23761e-06 0 0 0 -6.18806e-07)
(-6.42823e-07 0 0 -7.64385e-20 1.28565e-06 0 0 0 -6.42823e-07)
(-6.7799e-07 0 0 -8.43113e-20 1.35598e-06 0 0 0 -6.7799e-07)
(-7.17821e-07 0 0 -9.22185e-20 1.43564e-06 0 0 0 -7.17821e-07)
(-7.61355e-07 0 0 -8.94103e-20 1.52271e-06 0 0 0 -7.61355e-07)
(-8.08947e-07 0 0 -7.28906e-20 1.61789e-06 0 0 0 -8.08947e-07)
(-8.62115e-07 0 0 -1.00347e-19 1.72423e-06 0 0 0 -8.62115e-07)
(-9.24037e-07 0 0 -1.51443e-19 1.84807e-06 0 0 0 -9.24037e-07)
(-1.00072e-06 0 0 -1.02393e-19 2.00144e-06 0 0 0 -1.00072e-06)
(-1.1028e-06 0 0 -7.1587e-20 2.20561e-06 0 0 0 -1.1028e-06)
(-1.24859e-06 0 0 -1.36663e-19 2.49718e-06 0 0 0 -1.24859e-06)
(-1.46553e-06 0 0 -9.97475e-20 2.93105e-06 0 0 0 -1.46553e-06)
(-1.78032e-06 0 0 -6.91757e-20 3.56063e-06 0 0 0 -1.78032e-06)
(-2.23964e-06 0 0 -1.29088e-19 4.47929e-06 0 0 0 -2.23964e-06)
(-2.83981e-06 0 0 -1.64256e-19 5.67961e-06 0 0 0 -2.83981e-06)
(-3.261e-06 0 0 -2.15657e-19 6.522e-06 0 0 0 -3.261e-06)
(-2.96691e-06 0 0 -2.55942e-19 5.93382e-06 0 0 0 -2.96691e-06)
(-1.203e-06 0 0 -2.59852e-19 2.406e-06 0 0 0 -1.203e-06)
(-4.08925e-05 0 0 -1.81236e-18 8.1785e-05 0 0 0 -4.08925e-05)
(-6.90854e-07 0 0 -2.49216e-16 1.38171e-06 0 0 0 -6.90854e-07)
(-7.73545e-05 0 0 -3.99397e-16 0.000154709 0 0 0 -7.73545e-05)
(-9.50289e-05 0 0 -3.41503e-16 0.000190058 0 0 0 -9.50289e-05)
(2.45101e-05 0 0 -3.97144e-16 -4.90203e-05 0 0 0 2.45101e-05)
(7.92695e-06 0 0 2.54981e-16 -1.58539e-05 0 0 0 7.92695e-06)
(2.39979e-06 0 0 9.44962e-16 -4.79957e-06 0 0 0 2.39979e-06)
(1.13056e-06 0 0 9.91412e-16 -2.26113e-06 0 0 0 1.13056e-06)
(4.45584e-07 0 0 7.56053e-16 -8.91168e-07 0 0 0 4.45584e-07)
(1.66263e-07 0 0 5.87964e-16 -3.32527e-07 0 0 0 1.66263e-07)
(6.19353e-08 0 0 8.23061e-16 -1.23871e-07 0 0 0 6.19353e-08)
(2.21977e-08 0 0 3.8426e-16 -4.43954e-08 0 0 0 2.21977e-08)
(7.74229e-09 0 0 -7.60908e-16 -1.54846e-08 0 0 0 7.74229e-09)
(2.55997e-09 0 0 -1.24278e-15 -5.11995e-09 0 0 0 2.55997e-09)
(8.19139e-10 0 0 -1.08507e-15 -1.63828e-09 0 0 0 8.19139e-10)
(2.10356e-10 0 0 -9.97995e-16 -4.20712e-10 0 0 0 2.10356e-10)
(9.04724e-11 0 0 -9.74216e-16 -1.80945e-10 0 0 0 9.04724e-11)
(-1.19484e-11 -1.00962e-19 0 -2.91091e-16 2.38968e-11 0 0 0 -1.19484e-11)
(-6.20254e-13 0 0 1.08147e-15 1.24051e-12 0 0 0 -6.20254e-13)
(-1.45699e-11 0 0 1.07151e-15 2.91399e-11 0 0 0 -1.45699e-11)
(2.28594e-11 0 0 1.10347e-15 -4.57188e-11 0 0 0 2.28594e-11)
(-1.7647e-11 0 0 4.87895e-16 3.5294e-11 0 0 0 -1.7647e-11)
(-1.61777e-11 0 0 -7.52836e-17 3.23553e-11 0 0 0 -1.61777e-11)
(-3.34442e-11 0 0 1.04312e-16 6.68885e-11 0 0 0 -3.34442e-11)
(-1.00459e-11 0 0 -3.90919e-16 2.00919e-11 0 0 0 -1.00459e-11)
(-2.54372e-11 0 0 -1.78231e-16 5.08744e-11 0 0 0 -2.54372e-11)
(-1.35547e-11 0 0 7.22807e-16 2.71094e-11 0 0 0 -1.35547e-11)
(-1.69347e-11 0 0 1.90819e-16 3.38695e-11 0 0 0 -1.69347e-11)
(-5.25101e-12 0 0 -1.09014e-15 1.0502e-11 0 0 0 -5.25101e-12)
(-1.37285e-11 0 0 -1.73014e-15 2.74569e-11 0 0 0 -1.37285e-11)
(-1.12081e-11 0 0 -1.03241e-15 2.24162e-11 0 0 0 -1.12081e-11)
(-1.39094e-11 0 0 3.07299e-16 2.78188e-11 0 0 0 -1.39094e-11)
(-7.65928e-12 0 0 2.00546e-16 1.53186e-11 0 0 0 -7.65928e-12)
(-9.93778e-12 0 0 6.94093e-17 1.98756e-11 0 0 0 -9.93778e-12)
(-6.55314e-12 0 0 -6.15974e-17 1.31063e-11 0 0 0 -6.55314e-12)
(-6.5902e-12 0 0 -1.66984e-16 1.31804e-11 0 0 0 -6.5902e-12)
(-3.98931e-12 0 0 4.77569e-16 7.97861e-12 0 0 0 -3.98931e-12)
(-4.89608e-12 0 0 1.18957e-15 9.79216e-12 0 0 0 -4.89608e-12)
(-4.18928e-12 0 0 1.2778e-15 8.37855e-12 0 0 0 -4.18928e-12)
(-4.21264e-12 0 0 1.44117e-15 8.42528e-12 0 0 0 -4.21264e-12)
(-3.05705e-12 1.00962e-19 0 2.64892e-16 6.11411e-12 0 0 0 -3.05705e-12)
(-3.08786e-12 0 0 -8.71485e-16 6.17573e-12 0 0 0 -3.08786e-12)
(-2.51512e-12 0 0 -5.92161e-16 5.03024e-12 0 0 0 -2.51512e-12)
(-2.23326e-12 0 0 -3.22422e-16 4.46653e-12 0 0 0 -2.23326e-12)
(-1.96798e-12 0 0 -7.92721e-17 3.93596e-12 0 0 0 -1.96798e-12)
(-2.03266e-12 0 0 1.29806e-16 4.06533e-12 0 0 0 -2.03266e-12)
(-2.53942e-12 0 0 -1.09379e-15 5.07885e-12 0 0 0 -2.53942e-12)
(-2.53012e-12 0 0 -9.35061e-16 5.06023e-12 0 0 0 -2.53012e-12)
(-3.08198e-12 0 0 6.23595e-16 6.16396e-12 0 0 0 -3.08198e-12)
(-2.71378e-12 0 0 7.97322e-16 5.42755e-12 0 0 0 -2.71378e-12)
(-3.55805e-12 0 0 1.0007e-15 7.11611e-12 0 0 0 -3.55805e-12)
(-2.78011e-12 0 0 1.23699e-15 5.56021e-12 0 0 0 -2.78011e-12)
(-4.04707e-12 0 0 9.65963e-17 8.09414e-12 0 0 0 -4.04707e-12)
(-3.88715e-12 0 0 -1.03585e-15 7.77431e-12 0 0 0 -3.88715e-12)
(-7.55252e-12 0 0 -7.7911e-16 1.5105e-11 0 0 0 -7.55252e-12)
(-7.25057e-12 0 0 -5.52085e-16 1.45011e-11 0 0 0 -7.25057e-12)
(-1.11344e-11 0 0 -3.64542e-16 2.22688e-11 0 0 0 -1.11344e-11)
(-8.44715e-12 0 0 -2.16453e-16 1.68943e-11 0 0 0 -8.44715e-12)
(-1.33635e-11 0 0 -9.85208e-17 2.67269e-11 0 0 0 -1.33635e-11)
(-8.39039e-12 0 0 6.03386e-18 1.67808e-11 0 0 0 -8.39039e-12)
(-1.45477e-11 0 0 1.1938e-16 2.90955e-11 0 0 0 -1.45477e-11)
(-1.25798e-11 0 0 2.66954e-16 2.51596e-11 0 0 0 -1.25798e-11)
(-2.85089e-11 0 0 4.74759e-16 5.70178e-11 0 0 0 -2.85089e-11)
(-2.4536e-11 0 0 7.65374e-16 4.9072e-11 0 0 0 -2.4536e-11)
(-3.7801e-11 0 0 1.1526e-15 7.5602e-11 0 0 0 -3.7801e-11)
(-2.54676e-11 0 0 1.636e-15 5.09352e-11 0 0 0 -2.54676e-11)
(-4.2786e-11 0 0 2.19751e-15 8.5572e-11 0 0 0 -4.2786e-11)
(-1.99615e-11 0 0 -1.2191e-19 3.99231e-11 0 0 0 -1.99615e-11)
(-4.21435e-11 0 0 -2.19786e-15 8.4287e-11 0 0 0 -4.21435e-11)
(-2.011e-11 0 0 -1.63681e-15 4.022e-11 0 0 0 -2.011e-11)
(-1.10088e-10 0 0 -1.15455e-15 2.20175e-10 0 0 0 -1.10088e-10)
(-2.60114e-11 0 0 -7.69924e-16 5.20229e-11 0 0 0 -2.60114e-11)
(-3.57496e-10 0 0 -4.84873e-16 7.14992e-10 0 0 0 -3.57496e-10)
(1.26769e-09 0 0 -2.88245e-16 -2.53539e-09 0 0 0 1.26769e-09)
(-5.32234e-10 0 0 -1.61769e-16 1.06447e-09 0 0 0 -5.32234e-10)
(-1.28227e-08 0 0 -8.57561e-17 2.56455e-08 0 0 0 -1.28227e-08)
(1.07789e-08 0 0 -4.29773e-17 -2.15578e-08 0 0 0 1.07789e-08)
(1.45987e-07 0 0 -2.03847e-17 -2.91975e-07 0 0 0 1.45987e-07)
(-1.81254e-07 0 0 -9.16239e-18 3.62508e-07 0 0 0 -1.81254e-07)
(-1.72828e-06 0 0 -3.90801e-18 3.45657e-06 0 0 0 -1.72828e-06)
(2.06647e-06 0 0 -1.58408e-18 -4.13295e-06 0 0 0 2.06647e-06)
(3.50503e-05 0 0 -6.11069e-19 -7.01006e-05 0 0 0 3.50503e-05)
(-0.000122593 0 0 -2.2467e-19 0.000245187 0 0 0 -0.000122593)
(-0.000250208 0 0 -7.85069e-20 0.000500416 0 0 0 -0.000250208)
(0.00223814 0 0 -2.62407e-20 -0.00447628 0 0 0 0.00223814)
(0.00167674 0 0 -7.18334e-21 -0.00335348 0 0 0 0.00167674)
(-0.00172776 0 0 -5.92001e-22 0.00345551 0 0 0 -0.00172776)
(-0.000646676 0 0 -3.09369e-22 0.00129335 0 0 0 -0.000646676)
(0.000254622 0 0 -3.10671e-22 -0.000509244 0 0 0 0.000254622)
(7.71593e-05 0 0 -2.65437e-22 -0.000154319 0 0 0 7.71593e-05)
(-1.67081e-05 0 0 -2.24881e-22 3.34162e-05 0 0 0 -1.67081e-05)
(-6.87692e-06 0 0 -1.88928e-22 1.37538e-05 0 0 0 -6.87692e-06)
(1.03483e-06 0 0 -1.5759e-22 -2.06966e-06 0 0 0 1.03483e-06)
(5.90635e-07 0 0 -1.30789e-22 -1.18127e-06 0 0 0 5.90635e-07)
(-5.64033e-08 0 0 -1.08306e-22 1.12807e-07 0 0 0 -5.64033e-08)
(-4.95536e-08 0 0 -8.98009e-23 9.91073e-08 0 0 0 -4.95536e-08)
(2.3002e-09 0 0 -7.48721e-23 -4.6004e-09 0 0 0 2.3002e-09)
(4.0465e-09 0 0 -6.31161e-23 -8.093e-09 0 0 0 4.0465e-09)
(1.58552e-12 0 0 -5.41687e-23 -3.17104e-12 0 0 0 1.58552e-12)
(-3.85707e-10 0 0 -4.77277e-23 7.71413e-10 0 0 0 -3.85707e-10)
(-7.51851e-11 0 0 -4.35635e-23 1.5037e-10 0 0 0 -7.51851e-11)
(1.15324e-09 0 0 -4.13765e-23 -2.30649e-09 0 0 0 1.15324e-09)
)
;

boundaryField
{
    inlet
    {
        type            cyclic;
    }
    outlet
    {
        type            cyclic;
    }
    top
    {
        type            extrapolatedCalculated;
        value           uniform (2.26123e-09 0 0 -4.07263e-23 -4.52247e-09 0 0 0 2.26123e-09);
    }
    bottom
    {
        type            extrapolatedCalculated;
        value           uniform (-6.10916e-07 0 0 -7.93071e-20 1.22183e-06 0 0 0 -6.10916e-07);
    }
    frontAndBackPlanes
    {
        type            empty;
    }
}


// ************************************************************************* //
