/*--------------------------------*- C++ -*----------------------------------*\
| =========                 |                                                 |
| \\      /  F ield         | OpenFOAM: The Open Source CFD Toolbox           |
|  \\    /   O peration     | Version:  v2006                                 |
|   \\  /    A nd           | Website:  www.openfoam.com                      |
|    \\/     M anipulation  |                                                 |
\*---------------------------------------------------------------------------*/
FoamFile
{
    version     2.0;
    format      ascii;
    class       volVectorField;
    location    "280";
    object      Ua;
}
// * * * * * * * * * * * * * * * * * * * * * * * * * * * * * * * * * * * * * //

dimensions      [0 1 -1 0 0 0 0];


internalField   nonuniform List<vector> 
120
(
(-3.99257e-22 -6.19886e-09 0)
(-1.19774e-21 -1.90168e-08 0)
(-1.99625e-21 -3.26696e-08 0)
(-2.89637e-21 -4.71697e-08 0)
(-3.79734e-21 -6.25696e-08 0)
(-4.70004e-21 -7.8955e-08 0)
(-5.6059e-21 -9.6424e-08 0)
(-6.72196e-21 -1.1511e-07 0)
(-7.84823e-21 -1.35228e-07 0)
(-8.78727e-21 -1.57137e-07 0)
(-9.76522e-21 -1.8146e-07 0)
(-1.08169e-20 -2.09278e-07 0)
(-1.17816e-20 -2.42444e-07 0)
(-1.29499e-20 -2.84132e-07 0)
(-1.43974e-20 -3.3821e-07 0)
(-1.62751e-20 -4.07641e-07 0)
(-1.87678e-20 -4.88837e-07 0)
(-2.14663e-20 -5.57226e-07 0)
(-2.38753e-20 -6.12844e-07 0)
(-2.74142e-20 -7.20418e-07 0)
(-5.20537e-18 -9.71717e-06 0)
(-8.68318e-18 -3.53803e-06 0)
(-1.27119e-17 -5.40584e-06 0)
(-1.75436e-17 -6.09068e-06 0)
(-7.05467e-18 -6.30203e-06 0)
(3.51695e-18 -6.39553e-06 0)
(1.50105e-17 -6.43231e-06 0)
(2.03187e-17 -6.44591e-06 0)
(2.80411e-17 -6.45094e-06 0)
(3.86839e-17 -6.4527e-06 0)
(3.66542e-17 -6.45332e-06 0)
(2.16999e-17 -6.45351e-06 0)
(8.96048e-18 -6.45359e-06 0)
(-2.41566e-18 -6.4536e-06 0)
(-1.32199e-17 -6.45362e-06 0)
(-2.41405e-17 -6.45361e-06 0)
(-1.97623e-17 -6.45362e-06 0)
(4.08793e-20 -6.45362e-06 0)
(4.052e-18 -6.45362e-06 0)
(2.46383e-17 -6.45362e-06 0)
(1.48954e-17 -6.45363e-06 0)
(2.28922e-17 -6.45363e-06 0)
(1.72866e-17 -6.45363e-06 0)
(1.41311e-17 -6.45363e-06 0)
(1.32525e-17 -6.45363e-06 0)
(3.03413e-17 -6.45363e-06 0)
(1.75664e-17 -6.45364e-06 0)
(6.04007e-18 -6.45364e-06 0)
(-2.10317e-17 -6.45364e-06 0)
(-1.69781e-17 -6.45364e-06 0)
(-1.40561e-17 -6.45364e-06 0)
(-1.25209e-17 -6.45364e-06 0)
(-1.25135e-17 -6.45364e-06 0)
(-1.38899e-17 -6.45364e-06 0)
(-1.62976e-17 -6.45364e-06 0)
(-3.27602e-18 -6.45364e-06 0)
(1.02135e-17 -6.45364e-06 0)
(2.5123e-17 -6.45364e-06 0)
(4.23893e-17 -6.45364e-06 0)
(3.10102e-17 -6.45364e-06 0)
(2.28747e-17 -6.45364e-06 0)
(1.78494e-17 -6.45364e-06 0)
(1.57089e-17 -6.45364e-06 0)
(1.60877e-17 -6.45364e-06 0)
(1.87397e-17 -6.45364e-06 0)
(-8.36758e-18 -6.45364e-06 0)
(-2.18785e-18 -6.45364e-06 0)
(5.6376e-18 -6.45364e-06 0)
(1.55326e-17 -6.45364e-06 0)
(2.78781e-17 -6.45364e-06 0)
(4.31704e-17 -6.45364e-06 0)
(3.00249e-17 -6.45364e-06 0)
(2.00028e-17 -6.45365e-06 0)
(1.27092e-17 -6.45365e-06 0)
(7.73279e-18 -6.45365e-06 0)
(4.60729e-18 -6.45365e-06 0)
(2.92215e-18 -6.45365e-06 0)
(2.41768e-18 -6.45365e-06 0)
(3.05625e-18 -6.45365e-06 0)
(5.07087e-18 -6.45365e-06 0)
(8.98924e-18 -6.45365e-06 0)
(1.56223e-17 -6.45365e-06 0)
(2.59996e-17 -6.45365e-06 0)
(4.12388e-17 -6.45365e-06 0)
(6.23598e-17 -6.45366e-06 0)
(9.03699e-17 -6.45365e-06 0)
(6.2357e-17 -6.45366e-06 0)
(4.12308e-17 -6.45366e-06 0)
(2.5979e-17 -6.45366e-06 0)
(1.55711e-17 -6.45366e-06 0)
(8.86751e-18 -6.45367e-06 0)
(4.79491e-18 -6.45364e-06 0)
(2.46133e-18 -6.45376e-06 0)
(1.19963e-18 -6.45362e-06 0)
(5.55434e-19 -6.45293e-06 0)
(2.44478e-19 -6.45431e-06 0)
(1.02394e-19 -6.4627e-06 0)
(4.08489e-20 -6.44224e-06 0)
(1.55404e-20 -6.34588e-06 0)
(5.64507e-21 -6.59498e-06 0)
(1.95737e-21 -8.62542e-06 0)
(6.55491e-22 1.4934e-06 0)
(2.09554e-22 8.20261e-06 0)
(6.87992e-23 -0.000147316 0)
(5.63214e-23 -0.000153911 0)
(4.92271e-23 -0.000163003 0)
(4.08709e-23 -0.00024453 0)
(3.36849e-23 -0.000230887 0)
(2.75801e-23 -0.000229507 0)
(2.24364e-23 -0.000228393 0)
(1.81328e-23 -0.000228462 0)
(1.4556e-23 -0.000228555 0)
(1.15928e-23 -0.000228553 0)
(9.14005e-24 -0.000228546 0)
(7.10252e-24 -0.000228545 0)
(5.39619e-24 -0.000228546 0)
(3.94641e-24 -0.000228546 0)
(2.68742e-24 -0.000228518 0)
(1.5598e-24 -0.000228481 0)
(5.09077e-25 -0.000228045 0)
)
;

boundaryField
{
    inlet
    {
        type            cyclic;
    }
    outlet
    {
        type            cyclic;
    }
    top
    {
        type            fixedValue;
        value           uniform (0 0 0);
    }
    bottom
    {
        type            fixedValue;
        value           uniform (0 0 0);
    }
    frontAndBackPlanes
    {
        type            empty;
    }
}


// ************************************************************************* //
