/*--------------------------------*- C++ -*----------------------------------*\
| =========                 |                                                 |
| \\      /  F ield         | OpenFOAM: The Open Source CFD Toolbox           |
|  \\    /   O peration     | Version:  v2006                                 |
|   \\  /    A nd           | Website:  www.openfoam.com                      |
|    \\/     M anipulation  |                                                 |
\*---------------------------------------------------------------------------*/
FoamFile
{
    version     2.0;
    format      ascii;
    class       volVectorField;
    location    "280";
    object      Ub;
}
// * * * * * * * * * * * * * * * * * * * * * * * * * * * * * * * * * * * * * //

dimensions      [0 1 -1 0 0 0 0];


internalField   nonuniform List<vector> 
120
(
(-3.99255e-22 9.22659e-09 0)
(-1.19748e-21 2.81565e-08 0)
(-1.93888e-21 4.80699e-08 0)
(-2.89611e-21 6.91352e-08 0)
(-3.79733e-21 9.14678e-08 0)
(-4.69847e-21 1.15178e-07 0)
(-5.26713e-21 1.40404e-07 0)
(-6.72259e-21 1.67348e-07 0)
(-8.32299e-21 1.9634e-07 0)
(-8.7895e-21 2.27949e-07 0)
(-9.76866e-21 2.63152e-07 0)
(-1.15507e-20 3.03629e-07 0)
(-1.1785e-20 3.52028e-07 0)
(-1.29499e-20 4.11661e-07 0)
(-1.4398e-20 4.88031e-07 0)
(-1.62775e-20 5.84257e-07 0)
(-1.87712e-20 6.86415e-07 0)
(-2.14731e-20 7.64938e-07 0)
(-2.40523e-20 7.59763e-07 0)
(-5.83883e-20 3.26371e-06 0)
(-5.20532e-18 8.02852e-07 0)
(-8.68319e-18 8.27502e-06 0)
(-1.27119e-17 7.06937e-06 0)
(-1.74711e-17 6.64795e-06 0)
(-7.05466e-18 6.54174e-06 0)
(3.51698e-18 6.48805e-06 0)
(1.49741e-17 6.46638e-06 0)
(2.03188e-17 6.45835e-06 0)
(2.80412e-17 6.4553e-06 0)
(3.86111e-17 6.45422e-06 0)
(3.65814e-17 6.45382e-06 0)
(2.17e-17 6.4537e-06 0)
(8.96054e-18 6.45365e-06 0)
(-2.41563e-18 6.45365e-06 0)
(-1.32199e-17 6.45363e-06 0)
(-2.40676e-17 6.45364e-06 0)
(-1.96894e-17 6.45363e-06 0)
(-3.2001e-20 6.45364e-06 0)
(4.12489e-18 6.45363e-06 0)
(2.44925e-17 6.45364e-06 0)
(1.49684e-17 6.45363e-06 0)
(2.28194e-17 6.45364e-06 0)
(1.72867e-17 6.45364e-06 0)
(1.41312e-17 6.45364e-06 0)
(1.33255e-17 6.45364e-06 0)
(3.01956e-17 6.45364e-06 0)
(1.75665e-17 6.45364e-06 0)
(5.96721e-18 6.45364e-06 0)
(-2.08859e-17 6.45364e-06 0)
(-1.69781e-17 6.45364e-06 0)
(-1.40562e-17 6.45364e-06 0)
(-1.2521e-17 6.45364e-06 0)
(-1.25135e-17 6.45364e-06 0)
(-1.389e-17 6.45364e-06 0)
(-1.62248e-17 6.45364e-06 0)
(-3.276e-18 6.45364e-06 0)
(1.02135e-17 6.45364e-06 0)
(2.51231e-17 6.45364e-06 0)
(4.22436e-17 6.45364e-06 0)
(3.10103e-17 6.45364e-06 0)
(2.28749e-17 6.45364e-06 0)
(1.78496e-17 6.45364e-06 0)
(1.5709e-17 6.45364e-06 0)
(1.60877e-17 6.45364e-06 0)
(1.8594e-17 6.45364e-06 0)
(-8.22173e-18 6.45364e-06 0)
(-2.18776e-18 6.45364e-06 0)
(5.63767e-18 6.45364e-06 0)
(1.55327e-17 6.45364e-06 0)
(2.78782e-17 6.45364e-06 0)
(4.30248e-17 6.45364e-06 0)
(3.0025e-17 6.45364e-06 0)
(2.0003e-17 6.45364e-06 0)
(1.27093e-17 6.45364e-06 0)
(7.73286e-18 6.45364e-06 0)
(4.60735e-18 6.45365e-06 0)
(2.9222e-18 6.45365e-06 0)
(2.41772e-18 6.45365e-06 0)
(3.0563e-18 6.45365e-06 0)
(5.07095e-18 6.45365e-06 0)
(8.98935e-18 6.45365e-06 0)
(1.56225e-17 6.45365e-06 0)
(2.59998e-17 6.45365e-06 0)
(4.1239e-17 6.45365e-06 0)
(6.236e-17 6.45365e-06 0)
(9.00786e-17 6.45365e-06 0)
(6.23573e-17 6.45365e-06 0)
(4.12311e-17 6.45366e-06 0)
(2.59792e-17 6.45365e-06 0)
(1.55713e-17 6.45367e-06 0)
(8.86762e-18 6.45365e-06 0)
(4.79498e-18 6.45369e-06 0)
(2.46138e-18 6.45357e-06 0)
(1.19966e-18 6.45372e-06 0)
(5.55447e-19 6.45443e-06 0)
(2.44484e-19 6.45301e-06 0)
(1.02397e-19 6.44469e-06 0)
(4.08503e-20 6.46509e-06 0)
(1.5541e-20 6.55993e-06 0)
(5.64532e-21 6.32731e-06 0)
(1.95746e-21 4.22251e-06 0)
(6.55525e-22 1.44955e-05 0)
(2.09566e-22 2.09346e-05 0)
(6.88023e-23 -0.000135634 0)
(5.63232e-23 -8.63754e-05 0)
(4.92178e-23 3.58386e-05 0)
(4.08548e-23 1.06255e-05 0)
(3.36823e-23 -2.35933e-06 0)
(2.75813e-23 -9.49857e-07 0)
(2.24369e-23 1.47201e-07 0)
(1.81337e-23 8.18098e-08 0)
(1.45564e-23 -8.04271e-09 0)
(1.15934e-23 -6.79659e-09 0)
(9.14044e-24 4.18838e-10 0)
(7.10283e-24 6.37389e-10 0)
(5.39636e-24 7.37656e-11 0)
(3.94662e-24 3.03379e-11 0)
(2.68759e-24 7.35277e-11 0)
(1.55994e-24 8.82012e-11 0)
(5.09143e-25 8.48069e-11 0)
)
;

boundaryField
{
    inlet
    {
        type            cyclic;
    }
    outlet
    {
        type            cyclic;
    }
    top
    {
        type            fixedValue;
        value           uniform (0 0 0);
    }
    bottom
    {
        type            fixedValue;
        value           uniform (0 0 0);
    }
    frontAndBackPlanes
    {
        type            empty;
    }
}


// ************************************************************************* //
