/*--------------------------------*- C++ -*----------------------------------*\
| =========                 |                                                 |
| \\      /  F ield         | OpenFOAM: The Open Source CFD Toolbox           |
|  \\    /   O peration     | Version:  v2006                                 |
|   \\  /    A nd           | Website:  www.openfoam.com                      |
|    \\/     M anipulation  |                                                 |
\*---------------------------------------------------------------------------*/
FoamFile
{
    version     2.0;
    format      ascii;
    class       volScalarField;
    location    "1300";
    object      p;
}
// * * * * * * * * * * * * * * * * * * * * * * * * * * * * * * * * * * * * * //

dimensions      [1 -1 -2 0 0 0 0];


internalField   nonuniform List<scalar> 
120
(
1.14899
-3.51113
-8.17162
-12.8325
-17.4937
-22.1554
-26.8174
-31.4798
-36.1426
-40.8058
-45.4695
-50.1335
-54.798
-59.4629
-64.1282
-68.7939
-73.4601
-78.1268
-82.7939
-87.4615
-92.1295
-96.798
-101.467
-106.136
-110.806
-115.477
-120.148
-124.819
-129.491
-134.164
-138.837
-143.511
-148.185
-152.86
-157.535
-162.211
-166.888
-171.565
-176.243
-180.921
-185.601
-190.28
-194.961
-199.642
-204.324
-209.006
-213.69
-218.374
-223.059
-227.744
-232.431
-237.118
-241.806
-246.495
-251.185
-255.876
-260.567
-265.26
-269.954
-274.648
-279.344
-284.041
-288.739
-293.438
-298.139
-302.84
-307.543
-312.248
-316.953
-321.66
-326.369
-331.08
-335.792
-340.506
-345.222
-349.94
-354.661
-359.383
-364.108
-368.836
-373.567
-378.302
-383.04
-387.784
-392.537
-397.299
-402.067
-406.825
-411.727
-416.643
-421.585
-426.355
-431.028
-435.687
-440.346
-445.006
-449.666
-454.326
-458.985
-463.645
-468.305
-472.965
-477.624
-482.284
-486.944
-491.604
-496.263
-500.923
-505.583
-510.243
-514.902
-519.562
-524.222
-528.882
-533.541
-538.201
-542.861
-547.521
-552.18
-556.84
)
;

boundaryField
{
    inlet
    {
        type            cyclic;
    }
    outlet
    {
        type            cyclic;
    }
    top
    {
        type            calculated;
        value           uniform -559.17;
    }
    bottom
    {
        type            calculated;
        value           uniform 3.47887;
    }
    frontAndBackPlanes
    {
        type            empty;
    }
}


// ************************************************************************* //
