/*--------------------------------*- C++ -*----------------------------------*\
| =========                 |                                                 |
| \\      /  F ield         | OpenFOAM: The Open Source CFD Toolbox           |
|  \\    /   O peration     | Version:  v2006                                 |
|   \\  /    A nd           | Website:  www.openfoam.com                      |
|    \\/     M anipulation  |                                                 |
\*---------------------------------------------------------------------------*/
FoamFile
{
    version     2.0;
    format      ascii;
    class       volScalarField;
    location    "1300";
    object      pff;
}
// * * * * * * * * * * * * * * * * * * * * * * * * * * * * * * * * * * * * * //

dimensions      [1 -1 -2 0 0 0 0];


internalField   nonuniform List<scalar> 
120
(
22.9253
22.6315
22.3381
22.0451
21.7525
21.4603
21.1685
20.8772
20.5862
20.2957
20.0056
19.7159
19.4267
19.1379
18.8496
18.5617
18.2743
17.9874
17.7009
17.4149
17.1294
16.8444
16.5599
16.276
15.9925
15.7096
15.4271
15.1453
14.8639
14.5832
14.303
14.0234
13.7443
13.4659
13.1881
12.9108
12.6342
12.3583
12.0829
11.8083
11.5343
11.261
10.9883
10.7164
10.4452
10.1747
9.90502
9.63607
9.36789
9.10051
8.83395
8.56822
8.30336
8.03937
7.77627
7.51409
7.25285
6.99256
6.73324
6.47491
6.2176
5.96132
5.70611
5.45198
5.19899
4.94716
4.69654
4.44719
4.19916
3.95251
3.70727
3.46347
3.22111
2.98017
2.74056
2.50215
2.26473
2.02801
1.79142
1.55393
1.31461
1.07389
0.843829
0.641692
0.476969
0.341086
0.172239
0
0
0
2.16896e-06
0
0
0
0
0
0
0
0
0
0
0
0
0
0
0
0
0
0
0
0
0
0
0
0
0
0
0
0
0
)
;

boundaryField
{
    inlet
    {
        type            cyclic;
    }
    outlet
    {
        type            cyclic;
    }
    top
    {
        type            calculated;
        value           uniform 0;
    }
    bottom
    {
        type            calculated;
        value           uniform 22.9253;
    }
    frontAndBackPlanes
    {
        type            empty;
    }
}


// ************************************************************************* //
