/*--------------------------------*- C++ -*----------------------------------*\
| =========                 |                                                 |
| \\      /  F ield         | OpenFOAM: The Open Source CFD Toolbox           |
|  \\    /   O peration     | Version:  v2006                                 |
|   \\  /    A nd           | Website:  www.openfoam.com                      |
|    \\/     M anipulation  |                                                 |
\*---------------------------------------------------------------------------*/
FoamFile
{
    version     2.0;
    format      ascii;
    class       surfaceScalarField;
    location    "1300";
    object      phia;
}
// * * * * * * * * * * * * * * * * * * * * * * * * * * * * * * * * * * * * * //

dimensions      [0 3 -1 0 0 0 0];
oriented        oriented;


internalField   nonuniform List<scalar> 
119
(
-9.26213e-16
-1.86465e-15
-2.81559e-15
-3.77936e-15
-4.75625e-15
-5.74661e-15
-6.75076e-15
-7.76904e-15
-8.80181e-15
-9.84944e-15
-1.09123e-14
-1.19908e-14
-1.30853e-14
-1.41962e-14
-1.53241e-14
-1.64692e-14
-1.76322e-14
-1.88134e-14
-2.00134e-14
-2.12329e-14
-2.24722e-14
-2.3732e-14
-2.50131e-14
-2.63159e-14
-2.76413e-14
-2.899e-14
-3.03627e-14
-3.17604e-14
-3.31838e-14
-3.46338e-14
-3.61114e-14
-3.76175e-14
-3.91532e-14
-4.07196e-14
-4.23177e-14
-4.39487e-14
-4.56138e-14
-4.73143e-14
-4.90515e-14
-5.08269e-14
-5.2642e-14
-5.44985e-14
-5.63981e-14
-5.83428e-14
-6.03347e-14
-6.23762e-14
-6.44697e-14
-6.6618e-14
-6.88241e-14
-7.10911e-14
-7.34226e-14
-7.58219e-14
-7.82931e-14
-8.084e-14
-8.34669e-14
-8.61782e-14
-8.89785e-14
-9.18728e-14
-9.48666e-14
-9.79662e-14
-1.01179e-13
-1.04513e-13
-1.07979e-13
-1.11588e-13
-1.15357e-13
-1.19303e-13
-1.23446e-13
-1.2781e-13
-1.32421e-13
-1.3731e-13
-1.42503e-13
-1.48033e-13
-1.53929e-13
-1.60222e-13
-1.66944e-13
-1.74141e-13
-1.81881e-13
-1.90285e-13
-1.99578e-13
-2.10196e-13
-2.22884e-13
-2.37963e-13
-2.58533e-13
-2.86981e-13
-3.21979e-13
-3.48996e-13
-3.84472e-13
-1.33983e-12
-2.02474e-12
-1.51596e-12
-1.61332e-11
-4.97675e-11
-1.15738e-10
-8.20176e-11
-8.23042e-11
-8.2273e-11
-8.22748e-11
-8.22769e-11
-8.22767e-11
-8.22766e-11
-8.22766e-11
-8.22766e-11
-8.22766e-11
-8.22766e-11
-8.22766e-11
-8.22766e-11
-8.22766e-11
-8.22766e-11
-8.22766e-11
-8.22766e-11
-8.22766e-11
-8.22766e-11
-8.22766e-11
-8.22766e-11
-8.22766e-11
-8.22766e-11
-8.22766e-11
-8.22565e-11
-8.21697e-11
)
;

boundaryField
{
    inlet
    {
        type            cyclic;
        value           nonuniform List<scalar> 
120
(
-7.29757e-28
-2.19077e-27
-3.65526e-27
-5.09518e-27
-6.54324e-27
-8.00178e-27
-9.47315e-27
-1.0899e-26
-1.23424e-26
-1.38665e-26
-1.54129e-26
-1.69842e-26
-1.86435e-26
-2.03324e-26
-2.20536e-26
-2.38095e-26
-2.56026e-26
-2.74355e-26
-2.93108e-26
-3.1231e-26
-3.31987e-26
-3.52166e-26
-3.72871e-26
-3.9413e-26
-4.18395e-26
-4.43266e-26
-4.68769e-26
-4.93717e-26
-5.19349e-26
-5.45692e-26
-5.70345e-26
-5.93335e-26
-6.17114e-26
-6.41707e-26
-6.67142e-26
-6.93417e-26
-7.23012e-26
-7.55979e-26
-7.87471e-26
-8.22365e-26
-8.5342e-26
-8.87937e-26
-9.21103e-26
-9.55377e-26
-9.90798e-26
-1.02983e-25
-1.06525e-25
-1.10194e-25
-1.13756e-25
-1.17942e-25
-1.22275e-25
-1.26762e-25
-1.31412e-25
-1.36235e-25
-1.41241e-25
-1.46686e-25
-1.5234e-25
-1.58218e-25
-1.64344e-25
-1.70247e-25
-1.76424e-25
-1.82905e-25
-1.89716e-25
-1.96885e-25
-2.04438e-25
-2.11923e-25
-2.20341e-25
-2.29241e-25
-2.38654e-25
-2.48612e-25
-2.59146e-25
-2.69792e-25
-2.81054e-25
-2.92933e-25
-3.0541e-25
-3.18435e-25
-3.31921e-25
-3.45751e-25
-3.59801e-25
-3.74001e-25
-3.88442e-25
-4.03502e-25
-4.19914e-25
-4.42172e-25
-4.78893e-25
-5.28394e-25
-5.76715e-25
-6.37587e-25
-2.9845e-23
-2.90818e-23
-2.60758e-23
-2.56005e-23
-2.44495e-23
-2.31689e-23
-2.19251e-23
-2.07207e-23
-1.95567e-23
-1.84306e-23
-1.73416e-23
-1.62881e-23
-1.52693e-23
-1.42837e-23
-1.33304e-23
-1.24074e-23
-1.15137e-23
-1.06474e-23
-9.80645e-24
-8.98919e-24
-8.19364e-24
-7.41771e-24
-6.65961e-24
-5.91738e-24
-5.18913e-24
-4.4732e-24
-3.76761e-24
-3.0708e-24
-2.38108e-24
-1.69684e-24
-1.01648e-24
-3.38483e-25
)
;
    }
    outlet
    {
        type            cyclic;
        value           nonuniform List<scalar> 
120
(
7.29757e-28
2.19077e-27
3.65526e-27
5.09518e-27
6.54324e-27
8.00178e-27
9.47315e-27
1.0899e-26
1.23424e-26
1.38665e-26
1.54129e-26
1.69842e-26
1.86435e-26
2.03324e-26
2.20536e-26
2.38095e-26
2.56026e-26
2.74355e-26
2.93108e-26
3.1231e-26
3.31987e-26
3.52166e-26
3.72871e-26
3.9413e-26
4.18395e-26
4.43266e-26
4.68769e-26
4.93717e-26
5.19349e-26
5.45692e-26
5.70345e-26
5.93335e-26
6.17114e-26
6.41707e-26
6.67142e-26
6.93417e-26
7.23012e-26
7.55979e-26
7.87471e-26
8.22365e-26
8.5342e-26
8.87937e-26
9.21103e-26
9.55377e-26
9.90798e-26
1.02983e-25
1.06525e-25
1.10194e-25
1.13756e-25
1.17942e-25
1.22275e-25
1.26762e-25
1.31412e-25
1.36235e-25
1.41241e-25
1.46686e-25
1.5234e-25
1.58218e-25
1.64344e-25
1.70247e-25
1.76424e-25
1.82905e-25
1.89716e-25
1.96885e-25
2.04438e-25
2.11923e-25
2.20341e-25
2.29241e-25
2.38654e-25
2.48612e-25
2.59146e-25
2.69792e-25
2.81054e-25
2.92933e-25
3.0541e-25
3.18435e-25
3.31921e-25
3.45751e-25
3.59801e-25
3.74001e-25
3.88442e-25
4.03502e-25
4.19914e-25
4.42172e-25
4.78893e-25
5.28394e-25
5.76715e-25
6.37587e-25
2.9845e-23
2.90818e-23
2.60758e-23
2.56005e-23
2.44495e-23
2.31689e-23
2.19251e-23
2.07207e-23
1.95567e-23
1.84306e-23
1.73416e-23
1.62881e-23
1.52693e-23
1.42837e-23
1.33304e-23
1.24074e-23
1.15137e-23
1.06474e-23
9.80645e-24
8.98919e-24
8.19364e-24
7.41771e-24
6.65961e-24
5.91738e-24
5.18913e-24
4.4732e-24
3.76761e-24
3.0708e-24
2.38108e-24
1.69684e-24
1.01648e-24
3.38483e-25
)
;
    }
    top
    {
        type            fixedValue;
        value           uniform 0;
    }
    bottom
    {
        type            fixedValue;
        value           uniform 0;
    }
    frontAndBackPlanes
    {
        type            empty;
        value           nonuniform List<scalar> 0();
    }
}


// ************************************************************************* //
