/*--------------------------------*- C++ -*----------------------------------*\
| =========                 |                                                 |
| \\      /  F ield         | OpenFOAM: The Open Source CFD Toolbox           |
|  \\    /   O peration     | Version:  v2006                                 |
|   \\  /    A nd           | Website:  www.openfoam.com                      |
|    \\/     M anipulation  |                                                 |
\*---------------------------------------------------------------------------*/
FoamFile
{
    version     2.0;
    format      ascii;
    class       surfaceScalarField;
    location    "1300";
    object      phib;
}
// * * * * * * * * * * * * * * * * * * * * * * * * * * * * * * * * * * * * * //

dimensions      [0 3 -1 0 0 0 0];
oriented        oriented;


internalField   nonuniform List<scalar> 
119
(
1.38644e-15
2.79056e-15
4.21275e-15
5.65347e-15
7.11315e-15
8.59226e-15
1.00913e-14
1.16106e-14
1.31509e-14
1.47126e-14
1.62961e-14
1.79022e-14
1.95313e-14
2.1184e-14
2.2861e-14
2.45628e-14
2.62902e-14
2.80438e-14
2.98244e-14
3.16326e-14
3.34694e-14
3.53355e-14
3.72319e-14
3.91595e-14
4.11192e-14
4.31122e-14
4.51395e-14
4.72023e-14
4.93017e-14
5.1439e-14
5.36156e-14
5.58327e-14
5.80919e-14
6.03945e-14
6.27422e-14
6.51364e-14
6.7579e-14
7.00716e-14
7.26161e-14
7.52144e-14
7.78688e-14
8.05816e-14
8.3355e-14
8.61919e-14
8.90952e-14
9.20681e-14
9.5114e-14
9.82368e-14
1.01441e-13
1.0473e-13
1.08109e-13
1.11583e-13
1.15158e-13
1.18838e-13
1.22629e-13
1.26538e-13
1.3057e-13
1.34733e-13
1.39033e-13
1.4348e-13
1.48082e-13
1.52852e-13
1.57802e-13
1.62951e-13
1.68318e-13
1.73928e-13
1.79809e-13
1.85994e-13
1.92517e-13
1.99419e-13
2.06739e-13
2.14515e-13
2.22787e-13
2.31591e-13
2.40969e-13
2.50975e-13
2.61694e-13
2.73281e-13
2.86034e-13
3.00536e-13
3.17786e-13
3.38174e-13
3.6604e-13
4.04699e-13
4.52123e-13
4.86934e-13
5.1087e-13
1.59176e-12
2.11966e-12
1.73374e-12
8.30995e-12
2.88882e-12
8.67339e-15
7.79299e-17
5.15935e-18
4.59599e-18
4.03389e-18
3.91081e-18
3.6351e-18
3.58243e-18
3.32472e-18
3.22336e-18
2.91895e-18
2.82462e-18
2.64483e-18
2.67053e-18
2.53431e-18
2.51546e-18
2.33573e-18
2.25585e-18
2.03074e-18
1.94511e-18
1.80479e-18
1.80349e-18
1.70492e-18
1.68589e-18
1.57266e-18
1.53118e-18
1.39501e-18
)
;

boundaryField
{
    inlet
    {
        type            cyclic;
        value           nonuniform List<scalar> 
120
(
-7.29757e-28
-2.19078e-27
-3.65862e-27
-5.0952e-27
-6.54324e-27
-8.00186e-27
-9.49151e-27
-1.0899e-26
-1.2318e-26
-1.38664e-26
-1.54128e-26
-1.69504e-26
-1.86433e-26
-2.03324e-26
-2.20536e-26
-2.38095e-26
-2.56026e-26
-2.74355e-26
-2.93108e-26
-3.1231e-26
-3.31987e-26
-3.52166e-26
-3.72858e-26
-3.9109e-26
-4.18382e-26
-4.43274e-26
-4.70527e-26
-4.93725e-26
-5.19367e-26
-5.49726e-26
-5.74551e-26
-5.93354e-26
-6.17114e-26
-6.41707e-26
-6.67119e-26
-6.8829e-26
-7.17715e-26
-7.61427e-26
-7.81848e-26
-8.34125e-26
-8.47383e-26
-8.94243e-26
-9.21131e-26
-9.55346e-26
-9.83852e-26
-1.04429e-25
-1.06534e-25
-1.10961e-25
-1.12161e-25
-1.17935e-25
-1.22275e-25
-1.26762e-25
-1.31412e-25
-1.36231e-25
-1.40273e-25
-1.46681e-25
-1.5234e-25
-1.58228e-25
-1.66542e-25
-1.70256e-25
-1.76424e-25
-1.82905e-25
-1.89717e-25
-1.96897e-25
-2.0709e-25
-2.09182e-25
-2.20329e-25
-2.29241e-25
-2.38654e-25
-2.48627e-25
-2.6242e-25
-2.69807e-25
-2.81054e-25
-2.92933e-25
-3.0541e-25
-3.18435e-25
-3.31921e-25
-3.45751e-25
-3.59801e-25
-3.74001e-25
-3.88442e-25
-4.03502e-25
-4.19932e-25
-4.42236e-25
-4.79062e-25
-5.43875e-25
-5.78065e-25
-8.1018e-25
-2.9844e-23
-2.90817e-23
-2.60759e-23
-2.56007e-23
-2.44477e-23
-2.31668e-23
-2.19241e-23
-2.07209e-23
-1.95568e-23
-1.84307e-23
-1.73416e-23
-1.62883e-23
-1.52694e-23
-1.42839e-23
-1.33304e-23
-1.24076e-23
-1.15139e-23
-1.06474e-23
-9.80656e-24
-8.98929e-24
-8.19369e-24
-7.4178e-24
-6.6597e-24
-5.91747e-24
-5.18925e-24
-4.47324e-24
-3.76769e-24
-3.07088e-24
-2.38116e-24
-1.69692e-24
-1.01656e-24
-3.38521e-25
)
;
    }
    outlet
    {
        type            cyclic;
        value           nonuniform List<scalar> 
120
(
7.29757e-28
2.19078e-27
3.65862e-27
5.0952e-27
6.54324e-27
8.00186e-27
9.49151e-27
1.0899e-26
1.2318e-26
1.38664e-26
1.54128e-26
1.69504e-26
1.86433e-26
2.03324e-26
2.20536e-26
2.38095e-26
2.56026e-26
2.74355e-26
2.93108e-26
3.1231e-26
3.31987e-26
3.52166e-26
3.72858e-26
3.9109e-26
4.18382e-26
4.43274e-26
4.70527e-26
4.93725e-26
5.19367e-26
5.49726e-26
5.74551e-26
5.93354e-26
6.17114e-26
6.41707e-26
6.67119e-26
6.8829e-26
7.17715e-26
7.61427e-26
7.81848e-26
8.34125e-26
8.47383e-26
8.94243e-26
9.21131e-26
9.55346e-26
9.83852e-26
1.04429e-25
1.06534e-25
1.10961e-25
1.12161e-25
1.17935e-25
1.22275e-25
1.26762e-25
1.31412e-25
1.36231e-25
1.40273e-25
1.46681e-25
1.5234e-25
1.58228e-25
1.66542e-25
1.70256e-25
1.76424e-25
1.82905e-25
1.89717e-25
1.96897e-25
2.0709e-25
2.09182e-25
2.20329e-25
2.29241e-25
2.38654e-25
2.48627e-25
2.6242e-25
2.69807e-25
2.81054e-25
2.92933e-25
3.0541e-25
3.18435e-25
3.31921e-25
3.45751e-25
3.59801e-25
3.74001e-25
3.88442e-25
4.03502e-25
4.19932e-25
4.42236e-25
4.79062e-25
5.43875e-25
5.78065e-25
8.1018e-25
2.9844e-23
2.90817e-23
2.60759e-23
2.56007e-23
2.44477e-23
2.31668e-23
2.19241e-23
2.07209e-23
1.95568e-23
1.84307e-23
1.73416e-23
1.62883e-23
1.52694e-23
1.42839e-23
1.33304e-23
1.24076e-23
1.15139e-23
1.06474e-23
9.80656e-24
8.98929e-24
8.19369e-24
7.4178e-24
6.6597e-24
5.91747e-24
5.18925e-24
4.47324e-24
3.76769e-24
3.07088e-24
2.38116e-24
1.69692e-24
1.01656e-24
3.38521e-25
)
;
    }
    top
    {
        type            fixedValue;
        value           uniform 0;
    }
    bottom
    {
        type            fixedValue;
        value           uniform 0;
    }
    frontAndBackPlanes
    {
        type            empty;
        value           nonuniform List<scalar> 0();
    }
}


// ************************************************************************* //
