/*--------------------------------*- C++ -*----------------------------------*\
| =========                 |                                                 |
| \\      /  F ield         | OpenFOAM: The Open Source CFD Toolbox           |
|  \\    /   O peration     | Version:  v2006                                 |
|   \\  /    A nd           | Website:  www.openfoam.com                      |
|    \\/     M anipulation  |                                                 |
\*---------------------------------------------------------------------------*/
FoamFile
{
    version     2.0;
    format      ascii;
    class       volTensorField;
    location    "1300";
    object      Taua;
}
// * * * * * * * * * * * * * * * * * * * * * * * * * * * * * * * * * * * * * //

dimensions      [1 -1 -2 0 0 0 0];


internalField   nonuniform List<tensor> 
120
(
(0.00180288 0 0 1.02218e-14 -0.00360576 0 0 0 0.00180288)
(0.00182285 0 0 1.02393e-14 -0.0036457 0 0 0 0.00182285)
(0.00184888 0 0 1.01655e-14 -0.00369776 0 0 0 0.00184888)
(0.00187413 0 0 1.0108e-14 -0.00374825 0 0 0 0.00187413)
(0.00189954 0 0 1.01731e-14 -0.00379909 0 0 0 0.00189954)
(0.00192568 0 0 1.02547e-14 -0.00385136 0 0 0 0.00192568)
(0.00195251 0 0 1.01402e-14 -0.00390501 0 0 0 0.00195251)
(0.00198 0 0 1.00423e-14 -0.00395999 0 0 0 0.00198)
(0.00200817 0 0 1.03862e-14 -0.00401634 0 0 0 0.00200817)
(0.00203706 0 0 1.07469e-14 -0.00407411 0 0 0 0.00203706)
(0.00206668 0 0 1.09121e-14 -0.00413335 0 0 0 0.00206668)
(0.00209705 0 0 1.13068e-14 -0.0041941 0 0 0 0.00209705)
(0.00212821 0 0 1.17187e-14 -0.00425642 0 0 0 0.00212821)
(0.00216018 0 0 1.19355e-14 -0.00432036 0 0 0 0.00216018)
(0.00219299 0 0 1.21697e-14 -0.00438598 0 0 0 0.00219299)
(0.00222668 0 0 1.24216e-14 -0.00445336 0 0 0 0.00222668)
(0.00226129 0 0 1.26912e-14 -0.00452258 0 0 0 0.00226129)
(0.00229686 0 0 1.29787e-14 -0.00459371 0 0 0 0.00229686)
(0.00233343 0 0 1.32842e-14 -0.00466686 0 0 0 0.00233343)
(0.00237106 0 0 1.36077e-14 -0.00474213 0 0 0 0.00237106)
(0.00240981 0 0 1.39494e-14 -0.00481962 0 0 0 0.00240981)
(0.00244973 0 0 1.43093e-14 -0.00489945 0 0 0 0.00244973)
(0.00249088 0 0 1.46876e-14 -0.00498176 0 0 0 0.00249088)
(0.00253334 0 0 1.59334e-14 -0.00506667 0 0 0 0.00253334)
(0.00257716 0 0 1.71976e-14 -0.00515433 0 0 0 0.00257716)
(0.00262244 0 0 1.76309e-14 -0.00524488 0 0 0 0.00262244)
(0.00266923 0 0 1.76578e-14 -0.00533846 0 0 0 0.00266923)
(0.00271762 0 0 1.77031e-14 -0.00543523 0 0 0 0.00271762)
(0.00276767 0 0 1.81912e-14 -0.00553535 0 0 0 0.00276767)
(0.00281948 0 0 1.78485e-14 -0.00563895 0 0 0 0.00281948)
(0.0028731 0 0 1.66752e-14 -0.0057462 0 0 0 0.0028731)
(0.00292863 0 0 1.63691e-14 -0.00585725 0 0 0 0.00292863)
(0.00298613 0 0 1.69302e-14 -0.00597227 0 0 0 0.00298613)
(0.0030457 0 0 1.75097e-14 -0.00609141 0 0 0 0.0030457)
(0.00310742 0 0 1.80985e-14 -0.00621485 0 0 0 0.00310742)
(0.00317139 3.68135e-17 0 1.95546e-14 -0.00634279 0 0 0 0.00317139)
(0.00323772 0 0 2.18965e-14 -0.00647544 0 0 0 0.00323772)
(0.00330652 0 0 2.25608e-14 -0.00661304 0 0 0 0.00330652)
(0.00337794 0 0 2.32353e-14 -0.00675589 0 0 0 0.00337794)
(0.00345216 0 0 2.3082e-14 -0.00690432 0 0 0 0.00345216)
(0.00352936 0 0 2.29501e-14 -0.00705872 0 0 0 0.00352936)
(0.00360978 0 0 2.36892e-14 -0.00721956 0 0 0 0.00360978)
(0.00369368 0 0 2.36041e-14 -0.00738736 0 0 0 0.00369368)
(0.00378137 0 0 2.43931e-14 -0.00756274 0 0 0 0.00378137)
(0.00387318 0 0 2.60581e-14 -0.00774637 0 0 0 0.00387318)
(0.0039695 0 0 2.60569e-14 -0.00793901 0 0 0 0.0039695)
(0.00407073 0 0 2.52405e-14 -0.00814146 0 0 0 0.00407073)
(0.00417729 0 0 2.53093e-14 -0.00835458 0 0 0 0.00417729)
(0.00428961 0 0 2.71156e-14 -0.00857923 0 0 0 0.00428961)
(0.00440814 0 0 2.98156e-14 -0.00881627 0 0 0 0.00440814)
(0.00453328 0 0 3.08701e-14 -0.00906656 0 0 0 0.00453328)
(0.00466545 0 0 3.19811e-14 -0.00933089 0 0 0 0.00466545)
(0.00480502 0 0 3.3156e-14 -0.00961003 0 0 0 0.00480502)
(0.00495235 0 0 3.44026e-14 -0.00990471 0 0 0 0.00495235)
(0.00510783 0 0 3.6578e-14 -0.0102157 0 0 0 0.00510783)
(0.00527186 0 0 3.88436e-14 -0.0105437 0 0 0 0.00527186)
(0.00544494 0 0 4.03623e-14 -0.0108899 0 0 0 0.00544494)
(0.00562778 0 0 4.20172e-14 -0.0112556 0 0 0 0.00562778)
(0.00582134 -7.36271e-17 0 4.21006e-14 -0.0116427 0 0 0 0.00582134)
(0.006027 0 0 4.22772e-14 -0.012054 0 0 0 0.006027)
(0.00624666 0 0 4.4305e-14 -0.0124933 0 0 0 0.00624666)
(0.00648288 0 0 4.65251e-14 -0.0129658 0 0 0 0.00648288)
(0.006739 0 0 4.89282e-14 -0.013478 0 0 0 0.006739)
(0.00701914 0 0 5.15268e-14 -0.0140383 0 0 0 0.00701914)
(0.0073282 0 0 5.26332e-14 -0.0146564 0 0 0 0.0073282)
(0.00767172 0 0 5.56597e-14 -0.0153434 0 0 0 0.00767172)
(0.00805559 0 0 6.0613e-14 -0.0161112 0 0 0 0.00805559)
(0.00848562 0 0 6.40938e-14 -0.0169712 0 0 0 0.00848562)
(0.00896702 0 0 6.78011e-14 -0.017934 0 0 0 0.00896702)
(0.00950383 0 0 7.17236e-14 -0.0190077 0 0 0 0.00950383)
(0.0100985 0 0 7.41281e-14 -0.0201969 0 0 0 0.0100985)
(0.0107517 0 0 7.66759e-14 -0.0215033 0 0 0 0.0107517)
(0.0114631 0 0 8.09948e-14 -0.0229263 0 0 0 0.0114631)
(0.0122339 0 0 8.52492e-14 -0.0244677 0 0 0 0.0122339)
(0.0130706 0 0 8.92565e-14 -0.0261413 0 0 0 0.0130706)
(0.0139935 0 0 9.27871e-14 -0.0279869 0 0 0 0.0139935)
(0.0150458 0 0 9.56062e-14 -0.0300916 0 0 0 0.0150458)
(0.0163265 0 0 9.75806e-14 -0.0326529 0 0 0 0.0163265)
(0.0180755 0 0 9.88765e-14 -0.036151 0 0 0 0.0180755)
(0.0207112 0 0 1.00243e-13 -0.0414223 0 0 0 0.0207112)
(0.0245858 0 0 1.03253e-13 -0.0491717 0 0 0 0.0245858)
(0.0301231 0 0 1.10151e-13 -0.0602463 0 0 0 0.0301231)
(0.039489 0 0 1.35344e-13 -0.078978 0 0 0 0.039489)
(0.0361859 0 0 1.3609e-13 -0.0723717 0 0 0 0.0361859)
(0.0262953 0 0 1.2374e-13 -0.0525907 0 0 0 0.0262953)
(0.0182934 0 0 1.01036e-13 -0.0365868 0 0 0 0.0182934)
(0.00901805 0 0 3.69571e-14 -0.0180361 0 0 0 0.00901805)
(-1.18012e-06 0 0 5.73325e-17 2.36024e-06 0 0 0 -1.18012e-06)
(-2.83975e-06 0 0 5.2391e-17 5.6795e-06 0 0 0 -2.83975e-06)
(4.03198e-05 0 0 -6.55177e-18 -8.06397e-05 0 0 0 4.03198e-05)
(3.9754e-05 0 0 -6.97091e-18 -7.9508e-05 0 0 0 3.9754e-05)
(-1.41501e-06 0 0 -6.23691e-19 2.83002e-06 0 0 0 -1.41501e-06)
(4.25808e-09 0 0 -1.25953e-21 -8.51617e-09 0 0 0 4.25808e-09)
(2.59346e-11 0 0 -1.54474e-23 -5.18691e-11 0 0 0 2.59346e-11)
(-6.88409e-18 0 0 -4.53862e-30 1.37682e-17 0 0 0 -6.88409e-18)
(-7.32203e-26 0 0 -4.13708e-37 1.46441e-25 0 0 0 -7.32203e-26)
(-8.67238e-34 0 0 -2.17048e-44 1.73448e-33 0 0 0 -8.67238e-34)
(1.1574e-41 0 0 -7.9881e-52 -2.3148e-41 0 0 0 1.1574e-41)
(1.99516e-49 0 0 -4.95944e-59 -3.99032e-49 0 0 0 1.99516e-49)
(-1.16866e-56 0 0 -1.10795e-65 2.33731e-56 0 0 0 -1.16866e-56)
(-1.20076e-63 0 0 -3.11911e-72 2.40152e-63 0 0 0 -1.20076e-63)
(5.26073e-71 0 0 -7.28023e-79 -1.05215e-70 0 0 0 5.26073e-71)
(5.28517e-78 0 0 -1.46472e-85 -1.05703e-77 0 0 0 5.28517e-78)
(-1.04826e-85 0 0 -2.41233e-92 2.09652e-85 0 0 0 -1.04826e-85)
(-1.14167e-92 0 0 -3.53045e-99 2.28333e-92 0 0 0 -1.14167e-92)
(1.0454e-100 0 0 -4.49374e-106 -2.0908e-100 0 0 0 1.0454e-100)
(1.65591e-107 0 0 -5.41444e-113 -3.31182e-107 0 0 0 1.65591e-107)
(1.47563e-115 0 0 -5.82617e-120 -2.95125e-115 0 0 0 1.47563e-115)
(9.69126e-123 0 0 -5.88349e-127 -1.93825e-122 0 0 0 9.69126e-123)
(2.70673e-129 0 0 -5.2244e-134 -5.41347e-129 0 0 0 2.70673e-129)
(2.62401e-136 0 0 -4.26154e-141 -5.24802e-136 0 0 0 2.62401e-136)
(1.56698e-143 0 0 -2.98087e-148 -3.13397e-143 0 0 0 1.56698e-143)
(6.54198e-151 0 0 -1.91846e-155 -1.3084e-150 0 0 0 6.54198e-151)
(-1.08948e-157 0 0 -1.10925e-162 2.17895e-157 0 0 0 -1.08948e-157)
(-1.18765e-164 0 0 -6.35834e-170 2.37529e-164 0 0 0 -1.18765e-164)
(-1.36668e-170 0 0 -3.58944e-177 2.73336e-170 0 0 0 -1.36668e-170)
(-4.73339e-175 0 0 -2.33468e-184 9.46678e-175 0 0 0 -4.73339e-175)
(-8.87592e-182 0 0 -1.85565e-191 1.77518e-181 0 0 0 -8.87592e-182)
(-6.53503e-188 0 0 -1.87742e-198 1.30701e-187 0 0 0 -6.53503e-188)
(-6.83938e-192 0 0 -2.02992e-205 1.36788e-191 0 0 0 -6.83938e-192)
)
;

boundaryField
{
    inlet
    {
        type            cyclic;
    }
    outlet
    {
        type            cyclic;
    }
    top
    {
        type            extrapolatedCalculated;
        value           uniform (-1.36657e-191 0 0 -2.02837e-205 2.73314e-191 0 0 0 -1.36657e-191);
    }
    bottom
    {
        type            extrapolatedCalculated;
        value           uniform (0.00179622 0 0 1.02166e-14 -0.00359244 0 0 0 0.00179622);
    }
    frontAndBackPlanes
    {
        type            empty;
    }
}


// ************************************************************************* //
