/*--------------------------------*- C++ -*----------------------------------*\
| =========                 |                                                 |
| \\      /  F ield         | OpenFOAM: The Open Source CFD Toolbox           |
|  \\    /   O peration     | Version:  v2006                                 |
|   \\  /    A nd           | Website:  www.openfoam.com                      |
|    \\/     M anipulation  |                                                 |
\*---------------------------------------------------------------------------*/
FoamFile
{
    version     2.0;
    format      ascii;
    class       volTensorField;
    location    "1300";
    object      Taub;
}
// * * * * * * * * * * * * * * * * * * * * * * * * * * * * * * * * * * * * * //

dimensions      [1 -1 -2 0 0 0 0];


internalField   nonuniform List<tensor> 
120
(
(-1.28925e-07 0 0 4.86466e-19 2.57851e-07 0 0 0 -1.28925e-07)
(-1.29993e-07 0 0 4.87826e-19 2.59987e-07 0 0 0 -1.29993e-07)
(-1.31582e-07 0 0 4.83729e-19 2.63164e-07 0 0 0 -1.31582e-07)
(-1.33308e-07 0 0 4.80407e-19 2.66616e-07 0 0 0 -1.33308e-07)
(-1.35061e-07 0 0 4.84051e-19 2.70122e-07 0 0 0 -1.35061e-07)
(-1.36852e-07 0 0 4.90951e-19 2.73705e-07 0 0 0 -1.36852e-07)
(-1.38685e-07 0 0 4.82402e-19 2.77371e-07 0 0 0 -1.38685e-07)
(-1.40563e-07 0 0 4.70613e-19 2.81126e-07 0 0 0 -1.40563e-07)
(-1.42487e-07 0 0 4.94054e-19 2.84974e-07 0 0 0 -1.42487e-07)
(-1.44458e-07 0 0 5.15238e-19 2.88916e-07 0 0 0 -1.44458e-07)
(-1.46478e-07 0 0 5.13406e-19 2.92956e-07 0 0 0 -1.46478e-07)
(-1.48548e-07 0 0 5.37763e-19 2.97097e-07 0 0 0 -1.48548e-07)
(-1.50671e-07 0 0 5.62952e-19 3.01341e-07 0 0 0 -1.50671e-07)
(-1.52847e-07 0 0 5.67619e-19 3.05694e-07 0 0 0 -1.52847e-07)
(-1.55079e-07 0 0 5.78698e-19 3.10158e-07 0 0 0 -1.55079e-07)
(-1.5737e-07 0 0 5.90637e-19 3.14739e-07 0 0 0 -1.5737e-07)
(-1.59721e-07 0 0 6.03419e-19 3.19442e-07 0 0 0 -1.59721e-07)
(-1.62136e-07 0 0 6.17047e-19 3.24272e-07 0 0 0 -1.62136e-07)
(-1.64618e-07 0 0 6.31528e-19 3.29236e-07 0 0 0 -1.64618e-07)
(-1.6717e-07 0 0 6.46865e-19 3.3434e-07 0 0 0 -1.6717e-07)
(-1.69795e-07 0 0 6.63062e-19 3.39591e-07 0 0 0 -1.69795e-07)
(-1.72499e-07 0 0 6.79902e-19 3.44997e-07 0 0 0 -1.72499e-07)
(-1.75284e-07 0 0 6.47481e-19 3.50568e-07 0 0 0 -1.75284e-07)
(-1.78156e-07 0 0 7.5721e-19 3.56311e-07 0 0 0 -1.78156e-07)
(-1.81118e-07 0 0 8.67921e-19 3.62236e-07 0 0 0 -1.81118e-07)
(-1.84176e-07 0 0 8.67205e-19 3.68352e-07 0 0 0 -1.84176e-07)
(-1.87334e-07 0 0 8.38975e-19 3.74668e-07 0 0 0 -1.87334e-07)
(-1.90598e-07 0 0 8.1213e-19 3.81195e-07 0 0 0 -1.90598e-07)
(-1.93971e-07 0 0 9.31124e-19 3.87943e-07 0 0 0 -1.93971e-07)
(-1.9746e-07 0 0 9.17472e-19 3.9492e-07 0 0 0 -1.9746e-07)
(-2.01069e-07 0 0 7.25284e-19 4.02137e-07 0 0 0 -2.01069e-07)
(-2.04802e-07 0 0 7.07517e-19 4.09605e-07 0 0 0 -2.04802e-07)
(-2.08666e-07 0 0 8.03707e-19 4.17333e-07 0 0 0 -2.08666e-07)
(-2.12665e-07 0 0 8.31084e-19 4.25331e-07 0 0 0 -2.12665e-07)
(-2.16805e-07 0 0 7.74139e-19 4.3361e-07 0 0 0 -2.16805e-07)
(-2.21092e-07 -1.74783e-21 0 8.40773e-19 4.42183e-07 0 0 0 -2.21092e-07)
(-2.25532e-07 0 0 1.21523e-18 4.51064e-07 0 0 0 -2.25532e-07)
(-2.30134e-07 0 0 1.06552e-18 4.60268e-07 0 0 0 -2.30134e-07)
(-2.34908e-07 0 0 1.20771e-18 4.69815e-07 0 0 0 -2.34908e-07)
(-2.39863e-07 0 0 1.0886e-18 4.79727e-07 0 0 0 -2.39863e-07)
(-2.45014e-07 0 0 9.98532e-19 4.90029e-07 0 0 0 -2.45014e-07)
(-2.50375e-07 0 0 1.2248e-18 5.0075e-07 0 0 0 -2.50375e-07)
(-2.55963e-07 0 0 1.0147e-18 5.11925e-07 0 0 0 -2.55963e-07)
(-2.61798e-07 0 0 1.04144e-18 5.23595e-07 0 0 0 -2.61798e-07)
(-2.67902e-07 0 0 1.47674e-18 5.35805e-07 0 0 0 -2.67902e-07)
(-2.74301e-07 0 0 1.35286e-18 5.48602e-07 0 0 0 -2.74301e-07)
(-2.8102e-07 0 0 1.08425e-18 5.6204e-07 0 0 0 -2.8102e-07)
(-2.88087e-07 0 0 9.33787e-19 5.76174e-07 0 0 0 -2.88087e-07)
(-2.95529e-07 0 0 1.15726e-18 5.91057e-07 0 0 0 -2.95529e-07)
(-3.03373e-07 0 0 1.67823e-18 6.06745e-07 0 0 0 -3.03373e-07)
(-3.11645e-07 0 0 1.46453e-18 6.23289e-07 0 0 0 -3.11645e-07)
(-3.2037e-07 0 0 1.51583e-18 6.40739e-07 0 0 0 -3.2037e-07)
(-3.29571e-07 0 0 1.57059e-18 6.59142e-07 0 0 0 -3.29571e-07)
(-3.39271e-07 0 0 1.46963e-18 6.78542e-07 0 0 0 -3.39271e-07)
(-3.49492e-07 0 0 1.73302e-18 6.98983e-07 0 0 0 -3.49492e-07)
(-3.60259e-07 0 0 2.0006e-18 7.20518e-07 0 0 0 -3.60259e-07)
(-3.71604e-07 0 0 1.91414e-18 7.43208e-07 0 0 0 -3.71604e-07)
(-3.8357e-07 0 0 2.35408e-18 7.67141e-07 0 0 0 -3.8357e-07)
(-3.96221e-07 0 0 1.99348e-18 7.92443e-07 0 0 0 -3.96221e-07)
(-4.09649e-07 0 0 1.63743e-18 8.19297e-07 0 0 0 -4.09649e-07)
(-4.2398e-07 0 0 2.09556e-18 8.47959e-07 0 0 0 -4.2398e-07)
(-4.39384e-07 0 0 2.20191e-18 8.78767e-07 0 0 0 -4.39384e-07)
(-4.56081e-07 0 0 2.31722e-18 9.12162e-07 0 0 0 -4.56081e-07)
(-4.74341e-07 0 0 2.87676e-18 9.48682e-07 0 0 0 -4.74341e-07)
(-4.94479e-07 0 0 2.03382e-18 9.88958e-07 0 0 0 -4.94479e-07)
(-5.16842e-07 0 0 2.19129e-18 1.03368e-06 0 0 0 -5.16842e-07)
(-5.41797e-07 0 0 3.31946e-18 1.08359e-06 0 0 0 -5.41797e-07)
(-5.69693e-07 0 0 3.03187e-18 1.13939e-06 0 0 0 -5.69693e-07)
(-6.00833e-07 0 0 3.20679e-18 1.20167e-06 0 0 0 -6.00833e-07)
(-6.35427e-07 0 0 3.93018e-18 1.27085e-06 0 0 0 -6.35427e-07)
(-6.73574e-07 0 0 3.50157e-18 1.34715e-06 0 0 0 -6.73574e-07)
(-7.15262e-07 0 0 3.07987e-18 1.43052e-06 0 0 0 -7.15262e-07)
(-7.60426e-07 0 0 3.82128e-18 1.52085e-06 0 0 0 -7.60426e-07)
(-8.09111e-07 0 0 4.02338e-18 1.61822e-06 0 0 0 -8.09111e-07)
(-8.61795e-07 0 0 4.21113e-18 1.72359e-06 0 0 0 -8.61795e-07)
(-9.20013e-07 0 0 4.37614e-18 1.84003e-06 0 0 0 -9.20013e-07)
(-9.87511e-07 0 0 4.50735e-18 1.97502e-06 0 0 0 -9.87511e-07)
(-1.07193e-06 0 0 4.59847e-18 2.14385e-06 0 0 0 -1.07193e-06)
(-1.18724e-06 0 0 4.65732e-18 2.37447e-06 0 0 0 -1.18724e-06)
(-1.35838e-06 0 0 4.71913e-18 2.71675e-06 0 0 0 -1.35838e-06)
(-1.59224e-06 0 0 4.85782e-18 3.18449e-06 0 0 0 -1.59224e-06)
(-1.99262e-06 0 0 5.18143e-18 3.98523e-06 0 0 0 -1.99262e-06)
(-2.69853e-06 0 0 6.3678e-18 5.39706e-06 0 0 0 -2.69853e-06)
(-3.46973e-06 0 0 9.71172e-18 6.93946e-06 0 0 0 -3.46973e-06)
(-3.54921e-06 0 0 1.66768e-17 7.09842e-06 0 0 0 -3.54921e-06)
(-6.29711e-07 0 0 1.62264e-17 1.25942e-06 0 0 0 -6.29711e-07)
(-3.60591e-05 0 0 4.35566e-17 7.21183e-05 0 0 0 -3.60591e-05)
(-0.000226966 0 0 4.68039e-15 0.000453932 0 0 0 -0.000226966)
(-0.000349564 0 0 4.36388e-15 0.000699127 0 0 0 -0.000349564)
(0.00347911 0 0 -5.63046e-16 -0.00695822 0 0 0 0.00347911)
(0.00143994 0 0 -5.62904e-16 -0.00287988 0 0 0 0.00143994)
(-0.00233197 0 0 -1.38264e-16 0.00466393 0 0 0 -0.00233197)
(-0.000474134 0 0 -1.62299e-16 0.000948267 0 0 0 -0.000474134)
(0.000408998 0 0 -1.6822e-16 -0.000817995 0 0 0 0.000408998)
(6.01367e-05 0 0 -1.63039e-16 -0.000120273 0 0 0 6.01367e-05)
(-2.96836e-05 0 0 -1.57802e-16 5.93671e-05 0 0 0 -2.96836e-05)
(-5.98976e-06 0 0 -1.52655e-16 1.19795e-05 0 0 0 -5.98976e-06)
(2.08552e-06 0 0 -1.47655e-16 -4.17104e-06 0 0 0 2.08552e-06)
(5.59766e-07 0 0 -1.42815e-16 -1.11953e-06 0 0 0 5.59766e-07)
(-1.40669e-07 0 0 -1.38133e-16 2.81337e-07 0 0 0 -1.40669e-07)
(-5.00663e-08 0 0 -1.33608e-16 1.00133e-07 0 0 0 -5.00663e-08)
(9.00024e-09 0 0 -1.29249e-16 -1.80005e-08 0 0 0 9.00024e-09)
(4.38937e-09 0 0 -1.25069e-16 -8.77874e-09 0 0 0 4.38937e-09)
(-5.04329e-10 0 0 -1.2109e-16 1.00866e-09 0 0 0 -5.04329e-10)
(-3.68342e-10 0 0 -1.1733e-16 7.36685e-10 0 0 0 -3.68342e-10)
(2.52866e-11 0 0 -1.13805e-16 -5.05732e-11 0 0 0 2.52866e-11)
(3.29036e-11 0 0 -1.1053e-16 -6.58072e-11 0 0 0 3.29036e-11)
(2.79656e-12 0 0 -1.07511e-16 -5.59311e-12 0 0 0 2.79656e-12)
(1.8124e-12 0 0 -1.04752e-16 -3.62479e-12 0 0 0 1.8124e-12)
(5.2919e-12 0 0 -1.02253e-16 -1.05838e-11 0 0 0 5.2919e-12)
(6.13187e-12 0 0 -1.0001e-16 -1.22637e-11 0 0 0 6.13187e-12)
(5.14209e-12 0 0 -9.80175e-17 -1.02842e-11 0 0 0 5.14209e-12)
(3.33295e-12 0 0 -9.62696e-17 -6.6659e-12 0 0 0 3.33295e-12)
(2.04177e-12 0 0 -9.47591e-17 -4.08353e-12 0 0 0 2.04177e-12)
(1.87769e-12 0 0 -9.34792e-17 -3.75537e-12 0 0 0 1.87769e-12)
(2.48085e-12 0 0 -9.24234e-17 -4.9617e-12 0 0 0 2.48085e-12)
(2.66394e-12 0 0 -9.1586e-17 -5.32789e-12 0 0 0 2.66394e-12)
(-4.55784e-13 0 0 -9.09622e-17 9.11568e-13 0 0 0 -4.55784e-13)
(-7.77135e-13 0 0 -9.05485e-17 1.55427e-12 0 0 0 -7.77135e-13)
(6.00203e-11 0 0 -9.03274e-17 -1.20041e-10 0 0 0 6.00203e-11)
)
;

boundaryField
{
    inlet
    {
        type            cyclic;
    }
    outlet
    {
        type            cyclic;
    }
    top
    {
        type            extrapolatedCalculated;
        value           uniform (1.18209e-10 0 0 -9.0261e-17 -2.36418e-10 0 0 0 1.18209e-10);
    }
    bottom
    {
        type            extrapolatedCalculated;
        value           uniform (-1.28584e-07 0 0 4.86214e-19 2.57169e-07 0 0 0 -1.28584e-07);
    }
    frontAndBackPlanes
    {
        type            empty;
    }
}


// ************************************************************************* //
