/*--------------------------------*- C++ -*----------------------------------*\
| =========                 |                                                 |
| \\      /  F ield         | OpenFOAM: The Open Source CFD Toolbox           |
|  \\    /   O peration     | Version:  v2006                                 |
|   \\  /    A nd           | Website:  www.openfoam.com                      |
|    \\/     M anipulation  |                                                 |
\*---------------------------------------------------------------------------*/
FoamFile
{
    version     2.0;
    format      ascii;
    class       volVectorField;
    location    "1300";
    object      Ua;
}
// * * * * * * * * * * * * * * * * * * * * * * * * * * * * * * * * * * * * * //

dimensions      [0 1 -1 0 0 0 0];


internalField   nonuniform List<vector> 
120
(
(2.43252e-21 -1.28301e-09 0)
(7.30256e-21 -3.86807e-09 0)
(1.21842e-20 -6.49116e-09 0)
(1.69839e-20 -9.15058e-09 0)
(2.18108e-20 -1.18458e-08 0)
(2.66726e-20 -1.45778e-08 0)
(3.15772e-20 -1.73477e-08 0)
(3.63299e-20 -2.01564e-08 0)
(4.11413e-20 -2.30049e-08 0)
(4.62216e-20 -2.58941e-08 0)
(5.13765e-20 -2.8825e-08 0)
(5.6614e-20 -3.17988e-08 0)
(6.21448e-20 -3.48166e-08 0)
(6.77747e-20 -3.78794e-08 0)
(7.3512e-20 -4.09885e-08 0)
(7.93649e-20 -4.41451e-08 0)
(8.53421e-20 -4.73505e-08 0)
(9.14518e-20 -5.06059e-08 0)
(9.77028e-20 -5.39129e-08 0)
(1.04103e-19 -5.72729e-08 0)
(1.10662e-19 -6.06874e-08 0)
(1.17389e-19 -6.4158e-08 0)
(1.2429e-19 -6.76866e-08 0)
(1.31377e-19 -7.12748e-08 0)
(1.39465e-19 -7.49247e-08 0)
(1.47755e-19 -7.86382e-08 0)
(1.56256e-19 -8.24174e-08 0)
(1.64572e-19 -8.62645e-08 0)
(1.73116e-19 -9.0182e-08 0)
(1.81897e-19 -9.41722e-08 0)
(1.90115e-19 -9.82376e-08 0)
(1.97778e-19 -1.02381e-07 0)
(2.05705e-19 -1.06605e-07 0)
(2.13902e-19 -1.10913e-07 0)
(2.22381e-19 -1.15307e-07 0)
(2.31139e-19 -1.19791e-07 0)
(2.41004e-19 -1.24368e-07 0)
(2.51993e-19 -1.29042e-07 0)
(2.6249e-19 -1.33815e-07 0)
(2.74122e-19 -1.38693e-07 0)
(2.84473e-19 -1.43679e-07 0)
(2.95979e-19 -1.48777e-07 0)
(3.07034e-19 -1.53992e-07 0)
(3.18459e-19 -1.5933e-07 0)
(3.30266e-19 -1.64796e-07 0)
(3.43276e-19 -1.70397e-07 0)
(3.55082e-19 -1.76138e-07 0)
(3.67315e-19 -1.82027e-07 0)
(3.79186e-19 -1.88073e-07 0)
(3.93139e-19 -1.94283e-07 0)
(4.07582e-19 -2.00668e-07 0)
(4.22539e-19 -2.07235e-07 0)
(4.3804e-19 -2.13997e-07 0)
(4.54116e-19 -2.20964e-07 0)
(4.70804e-19 -2.28147e-07 0)
(4.88953e-19 -2.35558e-07 0)
(5.07798e-19 -2.43209e-07 0)
(5.27393e-19 -2.51115e-07 0)
(5.47815e-19 -2.59289e-07 0)
(5.67489e-19 -2.67747e-07 0)
(5.88079e-19 -2.76509e-07 0)
(6.09684e-19 -2.85595e-07 0)
(6.32388e-19 -2.95031e-07 0)
(6.56282e-19 -3.04849e-07 0)
(6.81461e-19 -3.15086e-07 0)
(7.06409e-19 -3.25787e-07 0)
(7.34471e-19 -3.37005e-07 0)
(7.64135e-19 -3.48803e-07 0)
(7.95512e-19 -3.6125e-07 0)
(8.28708e-19 -3.74423e-07 0)
(8.63821e-19 -3.88403e-07 0)
(8.99306e-19 -4.03276e-07 0)
(9.36845e-19 -4.19122e-07 0)
(9.76444e-19 -4.36027e-07 0)
(1.01803e-18 -4.54076e-07 0)
(1.06145e-18 -4.73372e-07 0)
(1.1064e-18 -4.94058e-07 0)
(1.1525e-18 -5.1636e-07 0)
(1.19934e-18 -5.40705e-07 0)
(1.24667e-18 -5.68004e-07 0)
(1.29481e-18 -5.99879e-07 0)
(1.34501e-18 -6.38249e-07 0)
(1.39971e-18 -6.85945e-07 0)
(1.47391e-18 -7.51075e-07 0)
(1.59631e-18 -8.42769e-07 0)
(1.76131e-18 -9.343e-07 0)
(1.92238e-18 -1.01988e-06 0)
(2.12529e-18 -1.20075e-06 0)
(9.94832e-17 5.00462e-06 0)
(9.69392e-17 1.42169e-05 0)
(8.69193e-17 -0.00022695 0)
(8.5335e-17 -0.000184314 0)
(8.14985e-17 -0.000190054 0)
(7.72298e-17 -0.000266517 0)
(7.30836e-17 -0.000232437 0)
(6.90689e-17 -0.000229382 0)
(6.51889e-17 -0.000228246 0)
(6.14352e-17 -0.000228467 0)
(5.78053e-17 -0.000228567 0)
(5.42936e-17 -0.000228553 0)
(5.08978e-17 -0.000228545 0)
(4.76124e-17 -0.000228545 0)
(4.44345e-17 -0.000228546 0)
(4.13582e-17 -0.000228546 0)
(3.83791e-17 -0.000228546 0)
(3.54912e-17 -0.000228546 0)
(3.26882e-17 -0.000228546 0)
(2.9964e-17 -0.000228546 0)
(2.73121e-17 -0.000228546 0)
(2.47257e-17 -0.000228546 0)
(2.21987e-17 -0.000228546 0)
(1.97246e-17 -0.000228546 0)
(1.72971e-17 -0.000228546 0)
(1.49107e-17 -0.000228546 0)
(1.25587e-17 -0.000228546 0)
(1.0236e-17 -0.000228546 0)
(7.93695e-18 -0.000228546 0)
(5.65614e-18 -0.000228518 0)
(3.38827e-18 -0.000228481 0)
(1.12828e-18 -0.000228045 0)
)
;

boundaryField
{
    inlet
    {
        type            cyclic;
    }
    outlet
    {
        type            cyclic;
    }
    top
    {
        type            fixedValue;
        value           uniform (0 0 0);
    }
    bottom
    {
        type            fixedValue;
        value           uniform (0 0 0);
    }
    frontAndBackPlanes
    {
        type            empty;
    }
}


// ************************************************************************* //
