/*--------------------------------*- C++ -*----------------------------------*\
| =========                 |                                                 |
| \\      /  F ield         | OpenFOAM: The Open Source CFD Toolbox           |
|  \\    /   O peration     | Version:  v2006                                 |
|   \\  /    A nd           | Website:  www.openfoam.com                      |
|    \\/     M anipulation  |                                                 |
\*---------------------------------------------------------------------------*/
FoamFile
{
    version     2.0;
    format      ascii;
    class       volVectorField;
    location    "1300";
    object      Ub;
}
// * * * * * * * * * * * * * * * * * * * * * * * * * * * * * * * * * * * * * //

dimensions      [0 1 -1 0 0 0 0];


internalField   nonuniform List<vector> 
120
(
(2.43252e-21 1.92992e-09 0)
(7.3026e-21 5.81022e-09 0)
(1.21954e-20 9.73459e-09 0)
(1.6984e-20 1.37107e-08 0)
(2.18108e-20 1.77391e-08 0)
(2.66729e-20 2.1821e-08 0)
(3.16384e-20 2.59574e-08 0)
(3.63299e-20 3.01498e-08 0)
(4.10599e-20 3.43995e-08 0)
(4.62212e-20 3.87079e-08 0)
(5.1376e-20 4.30765e-08 0)
(5.65012e-20 4.75068e-08 0)
(6.21443e-20 5.20003e-08 0)
(6.77747e-20 5.65586e-08 0)
(7.3512e-20 6.11834e-08 0)
(7.93649e-20 6.58764e-08 0)
(8.53421e-20 7.06395e-08 0)
(9.14518e-20 7.54744e-08 0)
(9.77028e-20 8.03832e-08 0)
(1.04103e-19 8.53679e-08 0)
(1.10662e-19 9.04308e-08 0)
(1.17389e-19 9.5574e-08 0)
(1.24286e-19 1.008e-07 0)
(1.30363e-19 1.06111e-07 0)
(1.39461e-19 1.11511e-07 0)
(1.47758e-19 1.17001e-07 0)
(1.56842e-19 1.22585e-07 0)
(1.64575e-19 1.28266e-07 0)
(1.73122e-19 1.34048e-07 0)
(1.83242e-19 1.39933e-07 0)
(1.91517e-19 1.45925e-07 0)
(1.97785e-19 1.52027e-07 0)
(2.05705e-19 1.58245e-07 0)
(2.13902e-19 1.64581e-07 0)
(2.22373e-19 1.71041e-07 0)
(2.2943e-19 1.77627e-07 0)
(2.39238e-19 1.84346e-07 0)
(2.53809e-19 1.91201e-07 0)
(2.60616e-19 1.98197e-07 0)
(2.78042e-19 2.05341e-07 0)
(2.82461e-19 2.12637e-07 0)
(2.98081e-19 2.20092e-07 0)
(3.07044e-19 2.27713e-07 0)
(3.18449e-19 2.35506e-07 0)
(3.27951e-19 2.4348e-07 0)
(3.48097e-19 2.51642e-07 0)
(3.55115e-19 2.60003e-07 0)
(3.69871e-19 2.68572e-07 0)
(3.73869e-19 2.7736e-07 0)
(3.93115e-19 2.8638e-07 0)
(4.07582e-19 2.95643e-07 0)
(4.22539e-19 3.05164e-07 0)
(4.3804e-19 3.14955e-07 0)
(4.54102e-19 3.25033e-07 0)
(4.67578e-19 3.35412e-07 0)
(4.88938e-19 3.46109e-07 0)
(5.07798e-19 3.5714e-07 0)
(5.27426e-19 3.68524e-07 0)
(5.55139e-19 3.80281e-07 0)
(5.67522e-19 3.92432e-07 0)
(5.88079e-19 4.05003e-07 0)
(6.09684e-19 4.18024e-07 0)
(6.32388e-19 4.31529e-07 0)
(6.56322e-19 4.45562e-07 0)
(6.90299e-19 4.60175e-07 0)
(6.97272e-19 4.7543e-07 0)
(7.34429e-19 4.91401e-07 0)
(7.64135e-19 5.0817e-07 0)
(7.95513e-19 5.25834e-07 0)
(8.28758e-19 5.44494e-07 0)
(8.74732e-19 5.64258e-07 0)
(8.99356e-19 5.85236e-07 0)
(9.36845e-19 6.07533e-07 0)
(9.76444e-19 6.31256e-07 0)
(1.01803e-18 6.56515e-07 0)
(1.06145e-18 6.83445e-07 0)
(1.1064e-18 7.1225e-07 0)
(1.1525e-18 7.43292e-07 0)
(1.19934e-18 7.7724e-07 0)
(1.24667e-18 8.15307e-07 0)
(1.29481e-18 8.59681e-07 0)
(1.34501e-18 9.12002e-07 0)
(1.39977e-18 9.8078e-07 0)
(1.47412e-18 1.07615e-06 0)
(1.59687e-18 1.19204e-06 0)
(1.81292e-18 1.29246e-06 0)
(1.92688e-18 1.23046e-06 0)
(2.7006e-18 3.49711e-06 0)
(9.94801e-17 1.54224e-05 0)
(9.69388e-17 2.61436e-05 0)
(8.69196e-17 -0.000217415 0)
(8.53355e-17 -6.29025e-05 0)
(8.14922e-17 5.7197e-05 0)
(7.72225e-17 8.20014e-06 0)
(7.30803e-17 -4.16004e-06 0)
(6.90695e-17 -8.21497e-07 0)
(6.51892e-17 2.9305e-07 0)
(6.14358e-17 7.70794e-08 0)
(5.78055e-17 -1.98174e-08 0)
(5.42942e-17 -6.89602e-09 0)
(5.0898e-17 1.28551e-09 0)
(4.76129e-17 6.14856e-10 0)
(4.44348e-17 -6.46996e-11 0)
(4.13587e-17 -4.36322e-11 0)
(3.83795e-17 1.09592e-11 0)
(3.54915e-17 1.16261e-11 0)
(3.26885e-17 7.16571e-12 0)
(2.99643e-17 6.68993e-12 0)
(2.73123e-17 6.74617e-12 0)
(2.4726e-17 6.41804e-12 0)
(2.2199e-17 5.95229e-12 0)
(1.97249e-17 5.49814e-12 0)
(1.72975e-17 5.18088e-12 0)
(1.49108e-17 4.99814e-12 0)
(1.2559e-17 4.87458e-12 0)
(1.02363e-17 4.71645e-12 0)
(7.93721e-18 4.5024e-12 0)
(5.65639e-18 4.31681e-12 0)
(3.38853e-18 4.57078e-12 0)
(1.1284e-18 4.43339e-12 0)
)
;

boundaryField
{
    inlet
    {
        type            cyclic;
    }
    outlet
    {
        type            cyclic;
    }
    top
    {
        type            fixedValue;
        value           uniform (0 0 0);
    }
    bottom
    {
        type            fixedValue;
        value           uniform (0 0 0);
    }
    frontAndBackPlanes
    {
        type            empty;
    }
}


// ************************************************************************* //
