/*--------------------------------*- C++ -*----------------------------------*\
| =========                 |                                                 |
| \\      /  F ield         | OpenFOAM: The Open Source CFD Toolbox           |
|  \\    /   O peration     | Version:  2206                                  |
|   \\  /    A nd           | Website:  www.openfoam.com                      |
|    \\/     M anipulation  |                                                 |
\*---------------------------------------------------------------------------*/
FoamFile
{
    version     2.0;
    format      ascii;
    arch        "LSB;label=32;scalar=64";
    class       volScalarField;
    location    "280";
    object      p_rbgh;
}
// * * * * * * * * * * * * * * * * * * * * * * * * * * * * * * * * * * * * * //

dimensions      [1 -1 -2 0 0 0 0];

internalField   nonuniform List<scalar> 
120
(
21.3348
21.3331
21.3298
21.3246
21.3176
21.3085
21.2972
21.2837
21.2679
21.2494
21.2282
21.2039
21.1762
21.1442
21.1069
21.063
21.0101
20.9455
20.874
20.8088
20.5689
20.3128
20.0632
19.8166
19.5708
19.3254
19.0801
18.8348
18.5895
18.3443
18.099
17.8538
17.6085
17.3633
17.118
16.8728
16.6275
16.3823
16.137
15.8918
15.6465
15.4013
15.156
14.9108
14.6655
14.4203
14.175
13.9298
13.6845
13.4393
13.194
12.9488
12.7035
12.4583
12.213
11.9678
11.7225
11.4773
11.232
10.9868
10.7415
10.4963
10.251
10.0058
9.76054
9.51529
9.27004
9.02479
8.77953
8.53428
8.28903
8.04378
7.79853
7.55328
7.30803
7.06278
6.81753
6.57228
6.32703
6.08178
5.83653
5.59128
5.34603
5.10078
4.85553
4.61028
4.36503
4.11978
3.87453
3.62928
3.38403
3.13878
2.89353
2.64828
2.40303
2.15778
1.91253
1.66729
1.42203
1.17676
0.931712
0.687238
0.437987
0.167439
0.0273994
-0.000722071
-0.00190837
-0.000195862
0.000117095
2.99895e-05
-4.78467e-06
-2.8041e-06
6.50925e-08
2.88501e-07
9.4084e-08
4.0175e-08
3.64741e-08
2.84772e-08
1.42994e-08
1.21177e-09
)
;

boundaryField
{
    inlet
    {
        type            cyclic;
    }
    outlet
    {
        type            cyclic;
    }
    top
    {
        type            fixedValue;
        value           uniform 0;
    }
    bottom
    {
        type            fixedFluxPressure;
        gradient        uniform 0;
        value           uniform 21.3348;
    }
    frontAndBackPlanes
    {
        type            empty;
    }
}


// ************************************************************************* //
