/*--------------------------------*- C++ -*----------------------------------*\
| =========                 |                                                 |
| \\      /  F ield         | OpenFOAM: The Open Source CFD Toolbox           |
|  \\    /   O peration     | Version:  2206                                  |
|   \\  /    A nd           | Website:  www.openfoam.com                      |
|    \\/     M anipulation  |                                                 |
\*---------------------------------------------------------------------------*/
FoamFile
{
    version     2.0;
    format      ascii;
    arch        "LSB;label=32;scalar=64";
    class       surfaceScalarField;
    location    "280";
    object      phi.b;
}
// * * * * * * * * * * * * * * * * * * * * * * * * * * * * * * * * * * * * * //

dimensions      [0 3 -1 0 0 0 0];

oriented        oriented;

internalField   nonuniform List<scalar> 
119
(
6.47284e-15
1.35973e-14
2.08129e-14
2.87432e-14
3.69825e-14
4.58517e-14
5.53131e-14
6.53157e-14
7.62825e-14
8.79683e-14
1.01297e-13
1.16256e-13
1.34812e-13
1.58678e-13
1.88986e-13
2.30016e-13
2.83863e-13
3.18906e-13
3.26589e-13
1.55624e-12
2.03661e-12
2.20514e-12
2.27889e-12
2.30649e-12
2.31689e-12
2.32091e-12
2.32244e-12
2.323e-12
2.3232e-12
2.32327e-12
2.3233e-12
2.32331e-12
2.32331e-12
2.32331e-12
2.32331e-12
2.32331e-12
2.32331e-12
2.32331e-12
2.32331e-12
2.32331e-12
2.32331e-12
2.32331e-12
2.32331e-12
2.32331e-12
2.32331e-12
2.32331e-12
2.32331e-12
2.32331e-12
2.32331e-12
2.32331e-12
2.32331e-12
2.32331e-12
2.32331e-12
2.32331e-12
2.32331e-12
2.32331e-12
2.32331e-12
2.32331e-12
2.32331e-12
2.32331e-12
2.32331e-12
2.32331e-12
2.32331e-12
2.32331e-12
2.32331e-12
2.32331e-12
2.32331e-12
2.32331e-12
2.32331e-12
2.32331e-12
2.32331e-12
2.32331e-12
2.32331e-12
2.32331e-12
2.32331e-12
2.32331e-12
2.32331e-12
2.32331e-12
2.32331e-12
2.32331e-12
2.32331e-12
2.32331e-12
2.32331e-12
2.32331e-12
2.32331e-12
2.32331e-12
2.32331e-12
2.32331e-12
2.32331e-12
2.32331e-12
2.32331e-12
2.32331e-12
2.32331e-12
2.32331e-12
2.32331e-12
2.32331e-12
2.32331e-12
2.32327e-12
2.32322e-12
2.32375e-12
2.32922e-12
2.33672e-12
1.96425e-12
6.33517e-12
6.01674e-12
3.08302e-14
2.0213e-15
2.7603e-16
4.09199e-18
2.42571e-18
-2.01925e-18
-2.65794e-18
-3.97383e-18
-2.11397e-18
-2.047e-18
-2.40167e-18
-2.87023e-18
1.07976e-18
3.20033e-18
)
;

boundaryField
{
    inlet
    {
        type            cyclic;
        value           nonuniform List<scalar> 
120
(
4.29434e-28
1.28663e-27
2.12304e-27
2.9883e-27
3.8282e-27
4.65714e-27
5.37222e-27
6.27826e-27
7.20625e-27
7.82277e-27
8.55654e-27
9.4846e-27
9.95437e-27
1.06534e-26
1.14044e-26
1.2242e-26
1.34154e-26
1.49602e-26
1.57057e-26
1.87465e-26
4.75256e-25
7.80196e-25
1.4172e-24
2.71996e-24
2.65851e-25
-1.54503e-24
-3.21336e-24
-3.24314e-24
-3.59634e-24
-4.07142e-24
-3.66344e-24
-2.84404e-24
-2.17447e-24
-1.57293e-24
-1.02847e-24
-5.20605e-25
-6.55638e-25
-1.44412e-24
-1.63323e-24
-2.51405e-24
-2.18147e-24
-2.53813e-24
-2.30436e-24
-2.11829e-24
-1.95103e-24
-2.45535e-24
-1.75531e-24
-1.12912e-24
1.05163e-25
7.1999e-26
3.53527e-26
-3.4039e-26
-1.3776e-25
-2.77437e-25
-4.4098e-25
-1.25602e-24
-2.10015e-24
-2.99084e-24
-3.95991e-24
-3.76027e-24
-3.64558e-24
-3.59097e-24
-3.59962e-24
-3.67507e-24
-3.84875e-24
-2.845e-24
-3.16752e-24
-3.54043e-24
-3.99472e-24
-4.53357e-24
-5.18807e-24
-4.71055e-24
-4.35401e-24
-4.09271e-24
-3.9291e-24
-3.86586e-24
-3.9056e-24
-4.0509e-24
-4.30413e-24
-4.6675e-24
-5.14288e-24
-5.73178e-24
-6.43526e-24
-7.25385e-24
-8.188e-24
-9.29395e-24
-8.06983e-24
-7.01466e-24
-6.06948e-24
-5.2313e-24
-4.49722e-24
-3.86405e-24
-3.32832e-24
-2.88639e-24
-2.53412e-24
-2.2648e-24
-1.94942e-24
-1.33994e-24
-8.47349e-25
-4.95449e-25
-2.7901e-25
-1.48572e-25
-7.55499e-26
-3.90679e-26
-3.52758e-26
-3.19033e-26
-2.76473e-26
-2.3802e-26
-2.03819e-26
-1.73554e-26
-1.46862e-26
-1.23356e-26
-1.02647e-26
-8.43473e-27
-6.80837e-27
-5.34993e-27
-4.02561e-27
-2.8034e-27
-1.65291e-27
-5.44927e-28
)
;
    }
    outlet
    {
        type            cyclic;
        value           nonuniform List<scalar> 
120
(
-4.29434e-28
-1.28663e-27
-2.12304e-27
-2.9883e-27
-3.8282e-27
-4.65714e-27
-5.37222e-27
-6.27826e-27
-7.20625e-27
-7.82277e-27
-8.55654e-27
-9.4846e-27
-9.95437e-27
-1.06534e-26
-1.14044e-26
-1.2242e-26
-1.34154e-26
-1.49602e-26
-1.57057e-26
-1.87465e-26
-4.75256e-25
-7.80196e-25
-1.4172e-24
-2.71996e-24
-2.65851e-25
1.54503e-24
3.21336e-24
3.24314e-24
3.59634e-24
4.07142e-24
3.66344e-24
2.84404e-24
2.17447e-24
1.57293e-24
1.02847e-24
5.20605e-25
6.55638e-25
1.44412e-24
1.63323e-24
2.51405e-24
2.18147e-24
2.53813e-24
2.30436e-24
2.11829e-24
1.95103e-24
2.45535e-24
1.75531e-24
1.12912e-24
-1.05163e-25
-7.1999e-26
-3.53527e-26
3.4039e-26
1.3776e-25
2.77437e-25
4.4098e-25
1.25602e-24
2.10015e-24
2.99084e-24
3.95991e-24
3.76027e-24
3.64558e-24
3.59097e-24
3.59962e-24
3.67507e-24
3.84875e-24
2.845e-24
3.16752e-24
3.54043e-24
3.99472e-24
4.53357e-24
5.18807e-24
4.71055e-24
4.35401e-24
4.09271e-24
3.9291e-24
3.86586e-24
3.9056e-24
4.0509e-24
4.30413e-24
4.6675e-24
5.14288e-24
5.73178e-24
6.43526e-24
7.25385e-24
8.188e-24
9.29395e-24
8.06983e-24
7.01466e-24
6.06948e-24
5.2313e-24
4.49722e-24
3.86405e-24
3.32832e-24
2.88639e-24
2.53412e-24
2.2648e-24
1.94942e-24
1.33994e-24
8.47349e-25
4.95449e-25
2.7901e-25
1.48572e-25
7.55499e-26
3.90679e-26
3.52758e-26
3.19033e-26
2.76473e-26
2.3802e-26
2.03819e-26
1.73554e-26
1.46862e-26
1.23356e-26
1.02647e-26
8.43473e-27
6.80837e-27
5.34993e-27
4.02561e-27
2.8034e-27
1.65291e-27
5.44927e-28
)
;
    }
    top
    {
        type            fixedValue;
        value           uniform 0;
    }
    bottom
    {
        type            fixedValue;
        value           uniform 0;
    }
    frontAndBackPlanes
    {
        type            empty;
        value           nonuniform List<scalar> 0();
    }
}


// ************************************************************************* //
