/*--------------------------------*- C++ -*----------------------------------*\
| =========                 |                                                 |
| \\      /  F ield         | OpenFOAM: The Open Source CFD Toolbox           |
|  \\    /   O peration     | Version:  2206                                  |
|   \\  /    A nd           | Website:  www.openfoam.com                      |
|    \\/     M anipulation  |                                                 |
\*---------------------------------------------------------------------------*/
FoamFile
{
    version     2.0;
    format      ascii;
    arch        "LSB;label=32;scalar=64";
    class       surfaceScalarField;
    location    "280";
    object      phi.a;
}
// * * * * * * * * * * * * * * * * * * * * * * * * * * * * * * * * * * * * * //

dimensions      [0 3 -1 0 0 0 0];

oriented        oriented;

internalField   nonuniform List<scalar> 
119
(
-4.43949e-15
-9.33455e-15
-1.43033e-14
-1.97764e-14
-2.54755e-14
-3.16274e-14
-3.8205e-14
-4.51845e-14
-5.28557e-14
-6.10676e-14
-7.04602e-14
-8.10571e-14
-9.42495e-14
-1.11308e-13
-1.33101e-13
-1.62769e-13
-2.01882e-13
-2.27794e-13
-2.45779e-13
-1.30897e-12
-1.8828e-12
-2.13638e-12
-2.25014e-12
-2.29527e-12
-2.31263e-12
-2.31932e-12
-2.32186e-12
-2.32279e-12
-2.32313e-12
-2.32324e-12
-2.32329e-12
-2.3233e-12
-2.32331e-12
-2.32331e-12
-2.32331e-12
-2.32331e-12
-2.32331e-12
-2.32331e-12
-2.32331e-12
-2.32331e-12
-2.32331e-12
-2.32331e-12
-2.32331e-12
-2.32331e-12
-2.32331e-12
-2.32331e-12
-2.32331e-12
-2.32331e-12
-2.32331e-12
-2.32331e-12
-2.32331e-12
-2.32331e-12
-2.32331e-12
-2.32331e-12
-2.32331e-12
-2.32331e-12
-2.32331e-12
-2.32331e-12
-2.32331e-12
-2.32331e-12
-2.32331e-12
-2.32331e-12
-2.32331e-12
-2.32331e-12
-2.32331e-12
-2.32331e-12
-2.32331e-12
-2.32331e-12
-2.32331e-12
-2.32331e-12
-2.32331e-12
-2.32331e-12
-2.32331e-12
-2.32331e-12
-2.32331e-12
-2.32331e-12
-2.32331e-12
-2.32331e-12
-2.32331e-12
-2.32331e-12
-2.32331e-12
-2.32331e-12
-2.32331e-12
-2.32331e-12
-2.32331e-12
-2.32331e-12
-2.32331e-12
-2.32331e-12
-2.32331e-12
-2.32331e-12
-2.32331e-12
-2.32331e-12
-2.32331e-12
-2.32331e-12
-2.32331e-12
-2.32331e-12
-2.32331e-12
-2.32331e-12
-2.32329e-12
-2.32242e-12
-2.32808e-12
-2.38415e-12
-1.84143e-12
-1.06762e-11
-5.31854e-11
-8.13995e-11
-8.03473e-11
-8.18481e-11
-8.18613e-11
-8.18787e-11
-8.19088e-11
-8.1958e-11
-8.20458e-11
-8.21779e-11
-8.22888e-11
-8.2325e-11
-8.2325e-11
-8.23225e-11
-8.20675e-11
)
;

boundaryField
{
    inlet
    {
        type            cyclic;
        value           nonuniform List<scalar> 
120
(
4.29435e-28
1.28671e-27
2.14032e-27
2.98838e-27
3.82821e-27
4.65761e-27
5.47428e-27
6.27807e-27
7.06312e-27
7.8221e-27
8.55551e-27
9.26425e-27
9.95333e-27
1.06534e-26
1.14044e-26
1.22406e-26
1.34129e-26
1.49621e-26
1.56914e-26
1.59219e-26
4.75262e-25
7.80184e-25
1.41719e-24
2.74137e-24
2.65513e-25
-1.54565e-24
-3.22276e-24
-3.24366e-24
-3.5985e-24
-4.06113e-24
-3.64631e-24
-2.84327e-24
-2.1744e-24
-1.57293e-24
-1.02861e-24
-5.37345e-25
-6.72242e-25
-1.42778e-24
-1.64943e-24
-2.48111e-24
-2.19767e-24
-2.52166e-24
-2.30423e-24
-2.11843e-24
-1.96736e-24
-2.42227e-24
-1.75491e-24
-1.11279e-24
7.20887e-26
7.17279e-26
3.53496e-26
-3.404e-26
-1.37762e-25
-2.77574e-25
-4.57586e-25
-1.25616e-24
-2.10015e-24
-2.99056e-24
-3.9267e-24
-3.76e-24
-3.64558e-24
-3.59097e-24
-3.59962e-24
-3.6748e-24
-3.81581e-24
-2.87794e-24
-3.16779e-24
-3.54044e-24
-3.99472e-24
-4.5333e-24
-5.15487e-24
-4.71028e-24
-4.35401e-24
-4.09272e-24
-3.92911e-24
-3.86586e-24
-3.90561e-24
-4.0509e-24
-4.30414e-24
-4.6675e-24
-5.14289e-24
-5.73179e-24
-6.43526e-24
-7.25385e-24
-8.18746e-24
-9.22753e-24
-8.06929e-24
-7.01466e-24
-6.06949e-24
-5.2313e-24
-4.49722e-24
-3.86405e-24
-3.32832e-24
-2.88641e-24
-2.5342e-24
-2.26613e-24
-1.95357e-24
-1.34077e-24
-8.49006e-25
-4.95471e-25
-2.79017e-25
-1.4857e-25
-7.55488e-26
-3.9067e-26
-3.52752e-26
-3.19078e-26
-2.53667e-26
-5.27432e-27
-5.14563e-27
-5.01912e-27
-4.71589e-27
-4.23324e-27
-3.54443e-27
-2.34512e-27
-7.95729e-28
-4.51618e-29
-4.19472e-29
-4.13166e-29
-4.10407e-29
-4.68975e-29
)
;
    }
    outlet
    {
        type            cyclic;
        value           nonuniform List<scalar> 
120
(
-4.29435e-28
-1.28671e-27
-2.14032e-27
-2.98838e-27
-3.82821e-27
-4.65761e-27
-5.47428e-27
-6.27807e-27
-7.06312e-27
-7.8221e-27
-8.55551e-27
-9.26425e-27
-9.95333e-27
-1.06534e-26
-1.14044e-26
-1.22406e-26
-1.34129e-26
-1.49621e-26
-1.56914e-26
-1.59219e-26
-4.75262e-25
-7.80184e-25
-1.41719e-24
-2.74137e-24
-2.65513e-25
1.54565e-24
3.22276e-24
3.24366e-24
3.5985e-24
4.06113e-24
3.64631e-24
2.84327e-24
2.1744e-24
1.57293e-24
1.02861e-24
5.37345e-25
6.72242e-25
1.42778e-24
1.64943e-24
2.48111e-24
2.19767e-24
2.52166e-24
2.30423e-24
2.11843e-24
1.96736e-24
2.42227e-24
1.75491e-24
1.11279e-24
-7.20887e-26
-7.17279e-26
-3.53496e-26
3.404e-26
1.37762e-25
2.77574e-25
4.57586e-25
1.25616e-24
2.10015e-24
2.99056e-24
3.9267e-24
3.76e-24
3.64558e-24
3.59097e-24
3.59962e-24
3.6748e-24
3.81581e-24
2.87794e-24
3.16779e-24
3.54044e-24
3.99472e-24
4.5333e-24
5.15487e-24
4.71028e-24
4.35401e-24
4.09272e-24
3.92911e-24
3.86586e-24
3.90561e-24
4.0509e-24
4.30414e-24
4.6675e-24
5.14289e-24
5.73179e-24
6.43526e-24
7.25385e-24
8.18746e-24
9.22753e-24
8.06929e-24
7.01466e-24
6.06949e-24
5.2313e-24
4.49722e-24
3.86405e-24
3.32832e-24
2.88641e-24
2.5342e-24
2.26613e-24
1.95357e-24
1.34077e-24
8.49006e-25
4.95471e-25
2.79017e-25
1.4857e-25
7.55488e-26
3.9067e-26
3.52752e-26
3.19078e-26
2.53667e-26
5.27432e-27
5.14563e-27
5.01912e-27
4.71589e-27
4.23324e-27
3.54443e-27
2.34512e-27
7.95729e-28
4.51618e-29
4.19472e-29
4.13166e-29
4.10407e-29
4.68975e-29
)
;
    }
    top
    {
        type            fixedValue;
        value           uniform 0;
    }
    bottom
    {
        type            fixedValue;
        value           uniform 0;
    }
    frontAndBackPlanes
    {
        type            empty;
        value           nonuniform List<scalar> 0();
    }
}


// ************************************************************************* //
