/*--------------------------------*- C++ -*----------------------------------*\
| =========                 |                                                 |
| \\      /  F ield         | OpenFOAM: The Open Source CFD Toolbox           |
|  \\    /   O peration     | Version:  2206                                  |
|   \\  /    A nd           | Website:  www.openfoam.com                      |
|    \\/     M anipulation  |                                                 |
\*---------------------------------------------------------------------------*/
FoamFile
{
    version     2.0;
    format      ascii;
    arch        "LSB;label=32;scalar=64";
    class       volVectorField;
    location    "280";
    object      U.a;
}
// * * * * * * * * * * * * * * * * * * * * * * * * * * * * * * * * * * * * * //

dimensions      [0 1 -1 0 0 0 0];

internalField   nonuniform List<vector> 
120
(
(-1.43145e-21 9.05023e-09 0)
(-4.28904e-21 -1.78923e-08 0)
(-7.13442e-21 -3.39653e-08 0)
(-9.96127e-21 -4.54857e-08 0)
(-1.27607e-20 -6.43785e-08 0)
(-1.55254e-20 -7.71421e-08 0)
(-1.82476e-20 -9.85567e-08 0)
(-2.09269e-20 -1.13686e-07 0)
(-2.35437e-20 -1.37325e-07 0)
(-2.60737e-20 -1.56309e-07 0)
(-2.85184e-20 -1.82931e-07 0)
(-3.08808e-20 -2.08493e-07 0)
(-3.31778e-20 -2.4177e-07 0)
(-3.55114e-20 -2.81759e-07 0)
(-3.80147e-20 -3.36522e-07 0)
(-4.08021e-20 -4.02714e-07 0)
(-4.47098e-20 -5.00898e-07 0)
(-4.98738e-20 -6.21251e-07 0)
(-5.23047e-20 -6.45707e-07 0)
(-5.3073e-20 -6.3481e-07 0)
(-1.58421e-18 -2.20671e-05 0)
(-2.60061e-18 -3.32392e-06 0)
(-4.72397e-18 -4.92922e-06 0)
(-9.13791e-18 -5.99738e-06 0)
(-8.85044e-19 -6.29346e-06 0)
(5.15216e-18 -6.39046e-06 0)
(1.07425e-17 -6.43049e-06 0)
(1.08122e-17 -6.44604e-06 0)
(1.1995e-17 -6.45145e-06 0)
(1.35371e-17 -6.45305e-06 0)
(1.21544e-17 -6.45347e-06 0)
(9.47757e-18 -6.45359e-06 0)
(7.24801e-18 -6.45362e-06 0)
(5.2431e-18 -6.45364e-06 0)
(3.42871e-18 -6.45364e-06 0)
(1.79115e-18 -6.45364e-06 0)
(2.24081e-18 -6.45364e-06 0)
(4.75928e-18 -6.45364e-06 0)
(5.49809e-18 -6.45364e-06 0)
(8.27038e-18 -6.45364e-06 0)
(7.32556e-18 -6.45364e-06 0)
(8.40553e-18 -6.45364e-06 0)
(7.68077e-18 -6.45364e-06 0)
(7.06142e-18 -6.45364e-06 0)
(6.55788e-18 -6.45364e-06 0)
(8.07425e-18 -6.45364e-06 0)
(5.84969e-18 -6.45364e-06 0)
(3.70928e-18 -6.45364e-06 0)
(-2.40296e-19 -6.45364e-06 0)
(-2.39093e-19 -6.45364e-06 0)
(-1.17832e-19 -6.45364e-06 0)
(1.13467e-19 -6.45364e-06 0)
(4.59207e-19 -6.45364e-06 0)
(9.25247e-19 -6.45364e-06 0)
(1.52529e-18 -6.45364e-06 0)
(4.1872e-18 -6.45364e-06 0)
(7.00051e-18 -6.45364e-06 0)
(9.96855e-18 -6.45364e-06 0)
(1.3089e-17 -6.45364e-06 0)
(1.25333e-17 -6.45364e-06 0)
(1.21519e-17 -6.45364e-06 0)
(1.19699e-17 -6.45364e-06 0)
(1.19987e-17 -6.45364e-06 0)
(1.22493e-17 -6.45364e-06 0)
(1.27194e-17 -6.45364e-06 0)
(9.59312e-18 -6.45364e-06 0)
(1.05593e-17 -6.45364e-06 0)
(1.18015e-17 -6.45364e-06 0)
(1.33157e-17 -6.45364e-06 0)
(1.5111e-17 -6.45364e-06 0)
(1.71829e-17 -6.45364e-06 0)
(1.57009e-17 -6.45364e-06 0)
(1.45134e-17 -6.45364e-06 0)
(1.36424e-17 -6.45364e-06 0)
(1.3097e-17 -6.45365e-06 0)
(1.28862e-17 -6.45364e-06 0)
(1.30187e-17 -6.45364e-06 0)
(1.3503e-17 -6.45365e-06 0)
(1.43471e-17 -6.45365e-06 0)
(1.55583e-17 -6.45365e-06 0)
(1.7143e-17 -6.45365e-06 0)
(1.9106e-17 -6.45365e-06 0)
(2.14509e-17 -6.45364e-06 0)
(2.41795e-17 -6.45365e-06 0)
(2.72915e-17 -6.45365e-06 0)
(3.07584e-17 -6.45364e-06 0)
(2.68976e-17 -6.45364e-06 0)
(2.33822e-17 -6.45364e-06 0)
(2.02316e-17 -6.45364e-06 0)
(1.74377e-17 -6.45364e-06 0)
(1.49907e-17 -6.45364e-06 0)
(1.28802e-17 -6.45364e-06 0)
(1.10944e-17 -6.45364e-06 0)
(9.62138e-18 -6.45364e-06 0)
(8.44734e-18 -6.45367e-06 0)
(7.55377e-18 -6.45374e-06 0)
(6.51189e-18 -6.45341e-06 0)
(4.46924e-18 -6.4457e-06 0)
(2.83002e-18 -6.44834e-06 0)
(1.65157e-18 -6.6829e-06 0)
(9.30055e-19 -6.89158e-06 0)
(4.95233e-19 -7.89538e-07 0)
(2.51829e-19 1.16897e-05 0)
(1.30223e-19 -0.000158906 0)
(1.17584e-19 -0.000236369 0)
(1.06359e-19 -0.000171303 0)
(8.45556e-20 -0.000205933 0)
(1.75811e-20 -0.000227343 0)
(1.71521e-20 -0.000227376 0)
(1.67304e-20 -0.000227409 0)
(1.57196e-20 -0.000227472 0)
(1.41108e-20 -0.000227576 0)
(1.18148e-20 -0.000227746 0)
(7.81708e-21 -0.000228064 0)
(2.65243e-21 -0.00022848 0)
(1.50539e-22 -0.00022868 0)
(1.39824e-22 -0.000228681 0)
(1.37722e-22 -0.00022868 0)
(1.36802e-22 -0.000228667 0)
(1.56325e-22 -0.000227264 0)
)
;

boundaryField
{
    inlet
    {
        type            cyclic;
    }
    outlet
    {
        type            cyclic;
    }
    top
    {
        type            fixedValue;
        value           uniform (0 0 0);
    }
    bottom
    {
        type            fixedValue;
        value           uniform (0 0 0);
    }
    frontAndBackPlanes
    {
        type            empty;
    }
}


// ************************************************************************* //
