/*--------------------------------*- C++ -*----------------------------------*\
| =========                 |                                                 |
| \\      /  F ield         | OpenFOAM: The Open Source CFD Toolbox           |
|  \\    /   O peration     | Version:  2206                                  |
|   \\  /    A nd           | Website:  www.openfoam.com                      |
|    \\/     M anipulation  |                                                 |
\*---------------------------------------------------------------------------*/
FoamFile
{
    version     2.0;
    format      ascii;
    arch        "LSB;label=32;scalar=64";
    class       volVectorField;
    location    "280";
    object      U.b;
}
// * * * * * * * * * * * * * * * * * * * * * * * * * * * * * * * * * * * * * //

dimensions      [0 1 -1 0 0 0 0];

internalField   nonuniform List<vector> 
120
(
(-1.43145e-21 2.39009e-08 0)
(-4.28877e-21 2.91512e-08 0)
(-7.0768e-21 4.65216e-08 0)
(-9.961e-21 7.07503e-08 0)
(-1.27607e-20 8.95513e-08 0)
(-1.55238e-20 1.17334e-07 0)
(-1.79074e-20 1.3867e-07 0)
(-2.09275e-20 1.69784e-07 0)
(-2.40208e-20 1.952e-07 0)
(-2.60759e-20 2.30072e-07 0)
(-2.85218e-20 2.62271e-07 0)
(-3.16153e-20 3.03935e-07 0)
(-3.31812e-20 3.49866e-07 0)
(-3.55114e-20 4.10693e-07 0)
(-3.80147e-20 4.84818e-07 0)
(-4.08067e-20 5.88866e-07 0)
(-4.47179e-20 7.18295e-07 0)
(-4.98674e-20 8.12235e-07 0)
(-5.23523e-20 8.19006e-07 0)
(-6.24882e-20 3.55496e-06 0)
(-1.58419e-18 -1.14367e-05 0)
(-2.60065e-18 8.32002e-06 0)
(-4.724e-18 7.46453e-06 0)
(-9.06655e-18 6.71869e-06 0)
(-8.86171e-19 6.54163e-06 0)
(5.1501e-18 6.48962e-06 0)
(1.07112e-17 6.46685e-06 0)
(1.08105e-17 6.45773e-06 0)
(1.19878e-17 6.45462e-06 0)
(1.35714e-17 6.45381e-06 0)
(1.22115e-17 6.45366e-06 0)
(9.48015e-18 6.45364e-06 0)
(7.24822e-18 6.45364e-06 0)
(5.24311e-18 6.45364e-06 0)
(3.42824e-18 6.45364e-06 0)
(1.73535e-18 6.45365e-06 0)
(2.18546e-18 6.45365e-06 0)
(4.81372e-18 6.45364e-06 0)
(5.44409e-18 6.45364e-06 0)
(8.38018e-18 6.45364e-06 0)
(7.27157e-18 6.45364e-06 0)
(8.46043e-18 6.45364e-06 0)
(7.68122e-18 6.45364e-06 0)
(7.06098e-18 6.45364e-06 0)
(6.50343e-18 6.45364e-06 0)
(8.1845e-18 6.45364e-06 0)
(5.85103e-18 6.45364e-06 0)
(3.76373e-18 6.45364e-06 0)
(-3.50542e-19 6.45364e-06 0)
(-2.39997e-19 6.45364e-06 0)
(-1.17842e-19 6.45364e-06 0)
(1.13463e-19 6.45364e-06 0)
(4.592e-19 6.45364e-06 0)
(9.24791e-19 6.45364e-06 0)
(1.46993e-18 6.45364e-06 0)
(4.18674e-18 6.45364e-06 0)
(7.00051e-18 6.45364e-06 0)
(9.96945e-18 6.45364e-06 0)
(1.31997e-17 6.45364e-06 0)
(1.25342e-17 6.45364e-06 0)
(1.21519e-17 6.45364e-06 0)
(1.19699e-17 6.45364e-06 0)
(1.19987e-17 6.45364e-06 0)
(1.22502e-17 6.45364e-06 0)
(1.28292e-17 6.45364e-06 0)
(9.48332e-18 6.45364e-06 0)
(1.05584e-17 6.45364e-06 0)
(1.18014e-17 6.45364e-06 0)
(1.33157e-17 6.45365e-06 0)
(1.51119e-17 6.45364e-06 0)
(1.72936e-17 6.45364e-06 0)
(1.57018e-17 6.45365e-06 0)
(1.45134e-17 6.45365e-06 0)
(1.36424e-17 6.45364e-06 0)
(1.3097e-17 6.45364e-06 0)
(1.28862e-17 6.45365e-06 0)
(1.30187e-17 6.45365e-06 0)
(1.3503e-17 6.45365e-06 0)
(1.43471e-17 6.45365e-06 0)
(1.55583e-17 6.45365e-06 0)
(1.71429e-17 6.45365e-06 0)
(1.91059e-17 6.45364e-06 0)
(2.14509e-17 6.45364e-06 0)
(2.41795e-17 6.45365e-06 0)
(2.72933e-17 6.45365e-06 0)
(3.09798e-17 6.45365e-06 0)
(2.68994e-17 6.45364e-06 0)
(2.33822e-17 6.45364e-06 0)
(2.02316e-17 6.45364e-06 0)
(1.74377e-17 6.45364e-06 0)
(1.49907e-17 6.45364e-06 0)
(1.28802e-17 6.45364e-06 0)
(1.10944e-17 6.45365e-06 0)
(9.62131e-18 6.45365e-06 0)
(8.44706e-18 6.45361e-06 0)
(7.54933e-18 6.45354e-06 0)
(6.49805e-18 6.45386e-06 0)
(4.46646e-18 6.46151e-06 0)
(2.8245e-18 6.45888e-06 0)
(1.6515e-18 6.2296e-06 0)
(9.30035e-19 6.01681e-06 0)
(4.9524e-19 1.20394e-05 0)
(2.51833e-19 2.46324e-05 0)
(1.30226e-19 -0.0001476 0)
(1.17586e-19 -0.000143526 0)
(1.06344e-19 5.94574e-05 0)
(9.21578e-20 1.76269e-05 0)
(7.93401e-20 -2.03578e-06 0)
(6.79396e-20 -1.58505e-06 0)
(5.78514e-20 -5.48267e-08 0)
(4.8954e-20 1.11305e-07 0)
(4.11188e-20 1.86959e-08 0)
(3.42157e-20 -5.8987e-09 0)
(2.81158e-20 -2.1996e-09 0)
(2.26946e-20 1.41038e-10 0)
(1.78331e-20 1.80203e-10 0)
(1.34187e-20 7.45749e-12 0)
(9.34468e-21 -1.65209e-11 0)
(5.50971e-21 -4.2199e-12 0)
(1.81642e-21 -4.00915e-12 0)
)
;

boundaryField
{
    inlet
    {
        type            cyclic;
    }
    outlet
    {
        type            cyclic;
    }
    top
    {
        type            fixedValue;
        value           uniform (0 0 0);
    }
    bottom
    {
        type            fixedValue;
        value           uniform (0 0 0);
    }
    frontAndBackPlanes
    {
        type            empty;
    }
}


// ************************************************************************* //
