/*--------------------------------*- C++ -*----------------------------------*\
| =========                 |                                                 |
| \\      /  F ield         | OpenFOAM: The Open Source CFD Toolbox           |
|  \\    /   O peration     | Version:  2206                                  |
|   \\  /    A nd           | Website:  www.openfoam.com                      |
|    \\/     M anipulation  |                                                 |
\*---------------------------------------------------------------------------*/
FoamFile
{
    version     2.0;
    format      ascii;
    arch        "LSB;label=32;scalar=64";
    class       volScalarField;
    location    "1340";
    object      pff;
}
// * * * * * * * * * * * * * * * * * * * * * * * * * * * * * * * * * * * * * //

dimensions      [1 -1 -2 0 0 0 0];

internalField   nonuniform List<scalar> 
120
(
23.7175
23.1833
23.1866
22.6076
22.5953
22.0283
22.0051
21.4511
21.4162
20.8758
20.8285
20.3025
20.2422
19.7312
19.6574
19.1618
19.0743
18.5943
18.4928
18.0288
17.9132
17.465
17.3356
16.9032
16.7601
16.3431
16.1868
15.7849
15.6158
15.2286
15.0473
14.674
14.4813
14.1214
13.918
13.5706
13.3575
13.0217
12.7999
12.4748
12.2453
11.93
11.6937
11.3874
11.1454
10.847
10.6003
10.3091
10.0586
9.77368
9.52039
9.24093
8.98563
8.71099
8.45442
8.18398
7.92682
7.66005
7.40288
7.13936
6.88268
6.62207
6.36632
6.10838
5.85393
5.5985
5.34563
5.09262
4.8416
4.59097
4.34199
4.09377
3.84702
3.60133
3.35702
3.11404
2.87242
2.63231
2.39358
2.15622
1.91999
1.68449
1.44886
1.20557
0.963187
0.720496
0.514882
0.335633
0.157266
0
0
0
0
0
0
0
0
0
0
0
0
0
0
0
0
0
0
0
0
0
0
0
0
0
0
0
0
0
0
0
)
;

boundaryField
{
    inlet
    {
        type            cyclic;
    }
    outlet
    {
        type            cyclic;
    }
    top
    {
        type            calculated;
        value           uniform 0;
    }
    bottom
    {
        type            calculated;
        value           uniform 23.7175;
    }
    frontAndBackPlanes
    {
        type            empty;
    }
}


// ************************************************************************* //
