/*--------------------------------*- C++ -*----------------------------------*\
| =========                 |                                                 |
| \\      /  F ield         | OpenFOAM: The Open Source CFD Toolbox           |
|  \\    /   O peration     | Version:  2206                                  |
|   \\  /    A nd           | Website:  www.openfoam.com                      |
|    \\/     M anipulation  |                                                 |
\*---------------------------------------------------------------------------*/
FoamFile
{
    version     2.0;
    format      ascii;
    arch        "LSB;label=32;scalar=64";
    class       surfaceScalarField;
    location    "1340";
    object      phi.a;
}
// * * * * * * * * * * * * * * * * * * * * * * * * * * * * * * * * * * * * * //

dimensions      [0 3 -1 0 0 0 0];

oriented        oriented;

internalField   nonuniform List<scalar> 
119
(
-8.94658e-16
-1.80968e-15
-2.72564e-15
-3.66375e-15
-4.60443e-15
-5.56688e-15
-6.53349e-15
-7.5214e-15
-8.51524e-15
-9.52985e-15
-1.05523e-14
-1.1595e-14
-1.26475e-14
-1.37198e-14
-1.48041e-14
-1.59075e-14
-1.70254e-14
-1.81618e-14
-1.9315e-14
-2.04863e-14
-2.1677e-14
-2.28853e-14
-2.41155e-14
-2.5363e-14
-2.66351e-14
-2.79243e-14
-2.92406e-14
-3.05741e-14
-3.19374e-14
-3.33181e-14
-3.47312e-14
-3.61623e-14
-3.76284e-14
-3.91135e-14
-4.06364e-14
-4.21797e-14
-4.37635e-14
-4.53696e-14
-4.70193e-14
-4.86935e-14
-5.04144e-14
-5.21629e-14
-5.39612e-14
-5.57905e-14
-5.76728e-14
-5.95901e-14
-6.15635e-14
-6.35763e-14
-6.56484e-14
-6.77644e-14
-6.9943e-14
-7.21704e-14
-7.44638e-14
-7.68113e-14
-7.92287e-14
-8.17063e-14
-8.42587e-14
-8.68786e-14
-8.95795e-14
-9.23569e-14
-9.52236e-14
-9.8178e-14
-1.01232e-13
-1.04388e-13
-1.07658e-13
-1.11045e-13
-1.14564e-13
-1.18221e-13
-1.22033e-13
-1.26012e-13
-1.30179e-13
-1.34557e-13
-1.39177e-13
-1.44078e-13
-1.49308e-13
-1.54928e-13
-1.61014e-13
-1.67652e-13
-1.74947e-13
-1.83022e-13
-1.92013e-13
-2.02072e-13
-2.13616e-13
-2.27227e-13
-2.43163e-13
-2.60224e-13
-2.74995e-13
-2.8607e-13
-3.16293e-13
-1.37631e-12
-2.95677e-11
-7.89056e-11
-7.5027e-11
-7.06941e-11
-7.16411e-11
-7.53912e-11
-7.89809e-11
-8.04731e-11
-8.09576e-11
-8.11917e-11
-8.13773e-11
-8.15597e-11
-8.17316e-11
-8.18697e-11
-8.1961e-11
-8.20105e-11
-8.20324e-11
-8.20403e-11
-8.20426e-11
-8.20433e-11
-8.20435e-11
-8.20436e-11
-8.20436e-11
-8.20436e-11
-8.20434e-11
-8.20428e-11
-8.20396e-11
-8.20084e-11
-8.13523e-11
)
;

boundaryField
{
    inlet
    {
        type            cyclic;
        value           nonuniform List<scalar> 
120
(
-2.8033e-27
-8.41546e-27
-1.40406e-26
-1.96872e-26
-2.5364e-26
-3.10799e-26
-3.68434e-26
-4.26628e-26
-4.85475e-26
-5.45069e-26
-6.05494e-26
-6.6684e-26
-7.29205e-26
-7.92671e-26
-8.57332e-26
-9.23279e-26
-9.90607e-26
-1.05941e-25
-1.12978e-25
-1.20182e-25
-1.27561e-25
-1.35127e-25
-1.42889e-25
-1.50856e-25
-1.59048e-25
-1.67465e-25
-1.76118e-25
-1.85013e-25
-1.94165e-25
-2.03584e-25
-2.1327e-25
-2.23233e-25
-2.33495e-25
-2.44063e-25
-2.54946e-25
-2.66175e-25
-2.77469e-25
-2.89152e-25
-3.01183e-25
-3.13606e-25
-3.26393e-25
-3.39604e-25
-3.53222e-25
-3.67279e-25
-3.81791e-25
-3.96794e-25
-4.12251e-25
-4.28221e-25
-4.44704e-25
-4.61785e-25
-4.79449e-25
-4.97722e-25
-5.16635e-25
-5.36219e-25
-5.56508e-25
-5.77561e-25
-5.99393e-25
-6.2204e-25
-6.4555e-25
-6.70073e-25
-6.95531e-25
-7.21972e-25
-7.49436e-25
-7.77959e-25
-8.07572e-25
-8.38232e-25
-8.70082e-25
-9.03054e-25
-9.37129e-25
-9.72267e-25
-1.0084e-24
-1.04536e-24
-1.08307e-24
-1.12138e-24
-1.16003e-24
-1.19876e-24
-1.23723e-24
-1.27503e-24
-1.31173e-24
-1.34685e-24
-1.37988e-24
-1.41036e-24
-1.43785e-24
-1.46196e-24
-1.48239e-24
-1.49888e-24
-1.51093e-24
-1.51866e-24
-1.52319e-24
-1.5269e-24
-1.49862e-23
-1.51999e-23
-1.53562e-23
-1.518e-23
-1.44924e-23
-1.22821e-23
-8.10948e-24
-5.67196e-24
-4.68977e-24
-4.11597e-24
-3.56426e-24
-2.89971e-24
-2.12649e-24
-1.3755e-24
-7.91563e-25
-4.27904e-25
-2.46373e-25
-1.74039e-25
-1.50603e-25
-1.43773e-25
-1.41507e-25
-1.40487e-25
-1.39908e-25
-1.39548e-25
-1.39332e-25
-1.3922e-25
-1.39214e-25
-1.39475e-25
-1.40822e-25
-1.44268e-25
)
;
    }
    outlet
    {
        type            cyclic;
        value           nonuniform List<scalar> 
120
(
2.8033e-27
8.41546e-27
1.40406e-26
1.96872e-26
2.5364e-26
3.10799e-26
3.68434e-26
4.26628e-26
4.85475e-26
5.45069e-26
6.05494e-26
6.6684e-26
7.29205e-26
7.92671e-26
8.57332e-26
9.23279e-26
9.90607e-26
1.05941e-25
1.12978e-25
1.20182e-25
1.27561e-25
1.35127e-25
1.42889e-25
1.50856e-25
1.59048e-25
1.67465e-25
1.76118e-25
1.85013e-25
1.94165e-25
2.03584e-25
2.1327e-25
2.23233e-25
2.33495e-25
2.44063e-25
2.54946e-25
2.66175e-25
2.77469e-25
2.89152e-25
3.01183e-25
3.13606e-25
3.26393e-25
3.39604e-25
3.53222e-25
3.67279e-25
3.81791e-25
3.96794e-25
4.12251e-25
4.28221e-25
4.44704e-25
4.61785e-25
4.79449e-25
4.97722e-25
5.16635e-25
5.36219e-25
5.56508e-25
5.77561e-25
5.99393e-25
6.2204e-25
6.4555e-25
6.70073e-25
6.95531e-25
7.21972e-25
7.49436e-25
7.77959e-25
8.07572e-25
8.38232e-25
8.70082e-25
9.03054e-25
9.37129e-25
9.72267e-25
1.0084e-24
1.04536e-24
1.08307e-24
1.12138e-24
1.16003e-24
1.19876e-24
1.23723e-24
1.27503e-24
1.31173e-24
1.34685e-24
1.37988e-24
1.41036e-24
1.43785e-24
1.46196e-24
1.48239e-24
1.49888e-24
1.51093e-24
1.51866e-24
1.52319e-24
1.5269e-24
1.49862e-23
1.51999e-23
1.53562e-23
1.518e-23
1.44924e-23
1.22821e-23
8.10948e-24
5.67196e-24
4.68977e-24
4.11597e-24
3.56426e-24
2.89971e-24
2.12649e-24
1.3755e-24
7.91563e-25
4.27904e-25
2.46373e-25
1.74039e-25
1.50603e-25
1.43773e-25
1.41507e-25
1.40487e-25
1.39908e-25
1.39548e-25
1.39332e-25
1.3922e-25
1.39214e-25
1.39475e-25
1.40822e-25
1.44268e-25
)
;
    }
    top
    {
        type            fixedValue;
        value           uniform 0;
    }
    bottom
    {
        type            fixedValue;
        value           uniform 0;
    }
    frontAndBackPlanes
    {
        type            empty;
        value           nonuniform List<scalar> 0();
    }
}


// ************************************************************************* //
