/*--------------------------------*- C++ -*----------------------------------*\
| =========                 |                                                 |
| \\      /  F ield         | OpenFOAM: The Open Source CFD Toolbox           |
|  \\    /   O peration     | Version:  2206                                  |
|   \\  /    A nd           | Website:  www.openfoam.com                      |
|    \\/     M anipulation  |                                                 |
\*---------------------------------------------------------------------------*/
FoamFile
{
    version     2.0;
    format      ascii;
    arch        "LSB;label=32;scalar=64";
    class       surfaceScalarField;
    location    "1340";
    object      phi.b;
}
// * * * * * * * * * * * * * * * * * * * * * * * * * * * * * * * * * * * * * //

dimensions      [0 3 -1 0 0 0 0];

oriented        oriented;

internalField   nonuniform List<scalar> 
119
(
1.33994e-15
2.7098e-15
4.08038e-15
5.48345e-15
6.88979e-15
8.32808e-15
9.772e-15
1.1247e-14
1.27302e-14
1.42436e-14
1.57679e-14
1.73217e-14
1.88895e-14
2.04858e-14
2.20993e-14
2.37403e-14
2.5402e-14
2.70903e-14
2.8803e-14
3.05412e-14
3.23074e-14
3.40986e-14
3.59215e-14
3.77689e-14
3.96518e-14
4.15585e-14
4.35046e-14
4.54746e-14
4.74876e-14
4.95247e-14
5.16087e-14
5.37175e-14
5.58771e-14
5.80627e-14
6.03028e-14
6.2571e-14
6.48976e-14
6.72547e-14
6.96743e-14
7.2128e-14
7.46486e-14
7.7207e-14
7.98368e-14
8.25095e-14
8.52579e-14
8.80544e-14
9.09312e-14
9.38619e-14
9.6877e-14
9.99527e-14
1.03117e-13
1.06348e-13
1.09673e-13
1.13072e-13
1.16569e-13
1.20148e-13
1.23832e-13
1.27608e-13
1.31497e-13
1.35491e-13
1.39608e-13
1.43844e-13
1.48219e-13
1.52732e-13
1.574e-13
1.62229e-13
1.67237e-13
1.72434e-13
1.7784e-13
1.83473e-13
1.8936e-13
1.95534e-13
2.02034e-13
2.08915e-13
2.16242e-13
2.24098e-13
2.32585e-13
2.4182e-13
2.51941e-13
2.6311e-13
2.75502e-13
2.89304e-13
3.0505e-13
3.23495e-13
3.4488e-13
3.67442e-13
3.86294e-13
3.98872e-13
4.1249e-13
1.52718e-12
9.99242e-12
1.5898e-13
1.30834e-15
2.93948e-17
6.62882e-19
6.88703e-20
-3.36086e-19
-5.80982e-19
-6.23098e-19
-3.18872e-19
1.36573e-19
4.53238e-19
6.58964e-19
6.79991e-19
3.21418e-19
-2.64115e-19
-6.63049e-19
-5.47075e-19
-1.50096e-19
1.29492e-19
6.68068e-19
2.52726e-19
3.28482e-20
-8.69472e-20
-6.80172e-19
2.62828e-20
-5.82474e-19
3.4717e-19
-3.45888e-19
)
;

boundaryField
{
    inlet
    {
        type            cyclic;
        value           nonuniform List<scalar> 
120
(
-2.8033e-27
-8.41547e-27
-1.40439e-26
-1.96872e-26
-2.5364e-26
-3.10799e-26
-3.68614e-26
-4.26628e-26
-4.85236e-26
-5.45068e-26
-6.05493e-26
-6.6651e-26
-7.29203e-26
-7.92671e-26
-8.57332e-26
-9.23279e-26
-9.90607e-26
-1.05941e-25
-1.12978e-25
-1.20182e-25
-1.27561e-25
-1.35127e-25
-1.42888e-25
-1.50562e-25
-1.59046e-25
-1.67465e-25
-1.76288e-25
-1.85014e-25
-1.94166e-25
-2.03973e-25
-2.13675e-25
-2.23235e-25
-2.33495e-25
-2.44063e-25
-2.54944e-25
-2.6568e-25
-2.7696e-25
-2.89676e-25
-3.00643e-25
-3.14736e-25
-3.25814e-25
-3.40209e-25
-3.53225e-25
-3.67276e-25
-3.81126e-25
-3.98179e-25
-4.12261e-25
-4.28954e-25
-4.43179e-25
-4.61778e-25
-4.79449e-25
-4.97722e-25
-5.16635e-25
-5.36215e-25
-5.55587e-25
-5.77557e-25
-5.99393e-25
-6.2205e-25
-6.47632e-25
-6.70082e-25
-6.95531e-25
-7.21972e-25
-7.49436e-25
-7.7797e-25
-8.10054e-25
-8.35672e-25
-8.7007e-25
-9.03054e-25
-9.37129e-25
-9.72281e-25
-1.01141e-24
-1.04537e-24
-1.08307e-24
-1.12138e-24
-1.16003e-24
-1.19876e-24
-1.23723e-24
-1.27503e-24
-1.31173e-24
-1.34685e-24
-1.37988e-24
-1.41036e-24
-1.43785e-24
-1.46196e-24
-1.48245e-24
-1.5105e-24
-1.51099e-24
-1.51867e-24
-1.52365e-24
-1.61553e-24
-1.49857e-23
-1.51995e-23
-1.54447e-23
-1.55054e-23
-1.5408e-23
-1.51776e-23
-1.48374e-23
-1.44077e-23
-1.39067e-23
-1.33501e-23
-1.27512e-23
-1.21213e-23
-1.14696e-23
-1.08035e-23
-1.0129e-23
-9.4505e-24
-8.77146e-24
-8.0943e-24
-7.42069e-24
-6.7517e-24
-6.08791e-24
-5.42951e-24
-4.77645e-24
-4.12842e-24
-3.485e-24
-2.84562e-24
-2.20963e-24
-1.57633e-24
-9.4499e-25
-3.14826e-25
)
;
    }
    outlet
    {
        type            cyclic;
        value           nonuniform List<scalar> 
120
(
2.8033e-27
8.41547e-27
1.40439e-26
1.96872e-26
2.5364e-26
3.10799e-26
3.68614e-26
4.26628e-26
4.85236e-26
5.45068e-26
6.05493e-26
6.6651e-26
7.29203e-26
7.92671e-26
8.57332e-26
9.23279e-26
9.90607e-26
1.05941e-25
1.12978e-25
1.20182e-25
1.27561e-25
1.35127e-25
1.42888e-25
1.50562e-25
1.59046e-25
1.67465e-25
1.76288e-25
1.85014e-25
1.94166e-25
2.03973e-25
2.13675e-25
2.23235e-25
2.33495e-25
2.44063e-25
2.54944e-25
2.6568e-25
2.7696e-25
2.89676e-25
3.00643e-25
3.14736e-25
3.25814e-25
3.40209e-25
3.53225e-25
3.67276e-25
3.81126e-25
3.98179e-25
4.12261e-25
4.28954e-25
4.43179e-25
4.61778e-25
4.79449e-25
4.97722e-25
5.16635e-25
5.36215e-25
5.55587e-25
5.77557e-25
5.99393e-25
6.2205e-25
6.47632e-25
6.70082e-25
6.95531e-25
7.21972e-25
7.49436e-25
7.7797e-25
8.10054e-25
8.35672e-25
8.7007e-25
9.03054e-25
9.37129e-25
9.72281e-25
1.01141e-24
1.04537e-24
1.08307e-24
1.12138e-24
1.16003e-24
1.19876e-24
1.23723e-24
1.27503e-24
1.31173e-24
1.34685e-24
1.37988e-24
1.41036e-24
1.43785e-24
1.46196e-24
1.48245e-24
1.5105e-24
1.51099e-24
1.51867e-24
1.52365e-24
1.61553e-24
1.49857e-23
1.51995e-23
1.54447e-23
1.55054e-23
1.5408e-23
1.51776e-23
1.48374e-23
1.44077e-23
1.39067e-23
1.33501e-23
1.27512e-23
1.21213e-23
1.14696e-23
1.08035e-23
1.0129e-23
9.4505e-24
8.77146e-24
8.0943e-24
7.42069e-24
6.7517e-24
6.08791e-24
5.42951e-24
4.77645e-24
4.12842e-24
3.485e-24
2.84562e-24
2.20963e-24
1.57633e-24
9.4499e-25
3.14826e-25
)
;
    }
    top
    {
        type            fixedValue;
        value           uniform 0;
    }
    bottom
    {
        type            fixedValue;
        value           uniform 0;
    }
    frontAndBackPlanes
    {
        type            empty;
        value           nonuniform List<scalar> 0();
    }
}


// ************************************************************************* //
