/*--------------------------------*- C++ -*----------------------------------*\
| =========                 |                                                 |
| \\      /  F ield         | OpenFOAM: The Open Source CFD Toolbox           |
|  \\    /   O peration     | Version:  2206                                  |
|   \\  /    A nd           | Website:  www.openfoam.com                      |
|    \\/     M anipulation  |                                                 |
\*---------------------------------------------------------------------------*/
FoamFile
{
    version     2.0;
    format      ascii;
    arch        "LSB;label=32;scalar=64";
    class       volVectorField;
    location    "1340";
    object      U.a;
}
// * * * * * * * * * * * * * * * * * * * * * * * * * * * * * * * * * * * * * //

dimensions      [0 1 -1 0 0 0 0];

internalField   nonuniform List<vector> 
120
(
(9.34433e-21 1.44397e-08 0)
(2.80515e-20 -3.44816e-09 0)
(4.68019e-20 -6.60558e-09 0)
(6.56239e-20 -8.53641e-09 0)
(8.45468e-20 -1.18177e-08 0)
(1.036e-19 -1.37619e-08 0)
(1.22811e-19 -1.71651e-08 0)
(1.42209e-19 -1.91315e-08 0)
(1.61825e-19 -2.26539e-08 0)
(1.8169e-19 -2.46524e-08 0)
(2.01831e-19 -2.8291e-08 0)
(2.2228e-19 -3.03324e-08 0)
(2.43068e-19 -3.40839e-08 0)
(2.64224e-19 -3.61798e-08 0)
(2.85777e-19 -4.00409e-08 0)
(3.0776e-19 -4.22037e-08 0)
(3.30202e-19 -4.6171e-08 0)
(3.53136e-19 -4.8414e-08 0)
(3.76593e-19 -5.24843e-08 0)
(4.00605e-19 -5.4821e-08 0)
(4.25205e-19 -5.89914e-08 0)
(4.50424e-19 -6.14359e-08 0)
(4.76296e-19 -6.5704e-08 0)
(5.02854e-19 -6.82706e-08 0)
(5.30158e-19 -7.26344e-08 0)
(5.58215e-19 -7.53379e-08 0)
(5.87059e-19 -7.97963e-08 0)
(6.16709e-19 -8.26512e-08 0)
(6.47215e-19 -8.72043e-08 0)
(6.78612e-19 -9.02252e-08 0)
(7.10899e-19 -9.48744e-08 0)
(7.4411e-19 -9.80761e-08 0)
(7.78316e-19 -1.02824e-07 0)
(8.13542e-19 -1.06222e-07 0)
(8.4982e-19 -1.11075e-07 0)
(8.8725e-19 -1.14683e-07 0)
(9.24898e-19 -1.19648e-07 0)
(9.63839e-19 -1.23483e-07 0)
(1.00394e-18 -1.2857e-07 0)
(1.04535e-18 -1.32648e-07 0)
(1.08798e-18 -1.37871e-07 0)
(1.13201e-18 -1.42209e-07 0)
(1.17741e-18 -1.47584e-07 0)
(1.22426e-18 -1.52199e-07 0)
(1.27264e-18 -1.57746e-07 0)
(1.32265e-18 -1.62657e-07 0)
(1.37417e-18 -1.68397e-07 0)
(1.4274e-18 -1.73621e-07 0)
(1.48235e-18 -1.79579e-07 0)
(1.53928e-18 -1.85134e-07 0)
(1.59816e-18 -1.91334e-07 0)
(1.65907e-18 -1.97238e-07 0)
(1.72212e-18 -2.03707e-07 0)
(1.7874e-18 -2.0998e-07 0)
(1.85503e-18 -2.16748e-07 0)
(1.9252e-18 -2.2341e-07 0)
(1.99798e-18 -2.30512e-07 0)
(2.07347e-18 -2.3759e-07 0)
(2.15183e-18 -2.45067e-07 0)
(2.23358e-18 -2.52596e-07 0)
(2.31844e-18 -2.60496e-07 0)
(2.40657e-18 -2.68522e-07 0)
(2.49812e-18 -2.76909e-07 0)
(2.5932e-18 -2.85491e-07 0)
(2.69191e-18 -2.94441e-07 0)
(2.79411e-18 -3.03655e-07 0)
(2.90027e-18 -3.1326e-07 0)
(3.01018e-18 -3.23202e-07 0)
(3.12376e-18 -3.33579e-07 0)
(3.24089e-18 -3.44377e-07 0)
(3.36134e-18 -3.55685e-07 0)
(3.48452e-18 -3.67528e-07 0)
(3.61025e-18 -3.80007e-07 0)
(3.73792e-18 -3.93195e-07 0)
(3.86678e-18 -4.07231e-07 0)
(3.99588e-18 -4.22251e-07 0)
(4.1241e-18 -4.38454e-07 0)
(4.25011e-18 -4.56059e-07 0)
(4.37244e-18 -4.75329e-07 0)
(4.48948e-18 -4.96586e-07 0)
(4.59961e-18 -5.20183e-07 0)
(4.70121e-18 -5.46537e-07 0)
(4.79283e-18 -5.76061e-07 0)
(4.87321e-18 -6.1066e-07 0)
(4.9413e-18 -6.51678e-07 0)
(4.99625e-18 -6.99227e-07 0)
(5.03645e-18 -7.46543e-07 0)
(5.06219e-18 -7.81116e-07 0)
(5.0773e-18 -8.04194e-07 0)
(5.08968e-18 -8.41566e-07 0)
(4.99541e-17 -0.000380476 0)
(5.06663e-17 -0.000200966 0)
(5.11872e-17 -0.000201886 0)
(5.06002e-17 -0.000197312 0)
(4.83079e-17 -0.000195415 0)
(4.09405e-17 -0.000202657 0)
(2.70316e-17 -0.000216201 0)
(1.89065e-17 -0.000222577 0)
(1.56326e-17 -0.000224495 0)
(1.37199e-17 -0.000225269 0)
(1.18809e-17 -0.000225796 0)
(9.66569e-18 -0.0002263 0)
(7.08829e-18 -0.000226809 0)
(4.585e-18 -0.000227255 0)
(2.63854e-18 -0.000227576 0)
(1.42635e-18 -0.000227763 0)
(8.21243e-19 -0.000227851 0)
(5.80131e-19 -0.000227885 0)
(5.02012e-19 -0.000227895 0)
(4.79245e-19 -0.000227898 0)
(4.71691e-19 -0.000227899 0)
(4.68291e-19 -0.000227899 0)
(4.66359e-19 -0.000227899 0)
(4.65161e-19 -0.000227899 0)
(4.64439e-19 -0.000227899 0)
(4.64065e-19 -0.000227898 0)
(4.64048e-19 -0.000227895 0)
(4.64918e-19 -0.00022788 0)
(4.69408e-19 -0.000227722 0)
(4.80894e-19 -0.000224236 0)
)
;

boundaryField
{
    inlet
    {
        type            cyclic;
    }
    outlet
    {
        type            cyclic;
    }
    top
    {
        type            fixedValue;
        value           uniform (0 0 0);
    }
    bottom
    {
        type            fixedValue;
        value           uniform (0 0 0);
    }
    frontAndBackPlanes
    {
        type            empty;
    }
}


// ************************************************************************* //
