/*--------------------------------*- C++ -*----------------------------------*\
| =========                 |                                                 |
| \\      /  F ield         | OpenFOAM: The Open Source CFD Toolbox           |
|  \\    /   O peration     | Version:  2206                                  |
|   \\  /    A nd           | Website:  www.openfoam.com                      |
|    \\/     M anipulation  |                                                 |
\*---------------------------------------------------------------------------*/
FoamFile
{
    version     2.0;
    format      ascii;
    arch        "LSB;label=32;scalar=64";
    class       volVectorField;
    location    "1340";
    object      U.b;
}
// * * * * * * * * * * * * * * * * * * * * * * * * * * * * * * * * * * * * * //

dimensions      [0 1 -1 0 0 0 0];

internalField   nonuniform List<vector> 
120
(
(9.34433e-21 1.72706e-08 0)
(2.80516e-20 5.94802e-09 0)
(4.68132e-20 9.11091e-09 0)
(6.5624e-20 1.36191e-08 0)
(8.45468e-20 1.68468e-08 0)
(1.036e-19 2.15038e-08 0)
(1.22871e-19 2.47723e-08 0)
(1.42209e-19 2.95885e-08 0)
(1.61745e-19 3.29099e-08 0)
(1.81689e-19 3.78831e-08 0)
(2.01831e-19 4.12692e-08 0)
(2.2217e-19 4.63978e-08 0)
(2.43068e-19 4.98621e-08 0)
(2.64224e-19 5.51445e-08 0)
(2.85777e-19 5.87011e-08 0)
(3.0776e-19 6.41352e-08 0)
(3.30202e-19 6.77991e-08 0)
(3.53136e-19 7.33832e-08 0)
(3.76593e-19 7.71706e-08 0)
(4.00605e-19 8.29032e-08 0)
(4.25205e-19 8.68305e-08 0)
(4.50424e-19 9.27104e-08 0)
(4.76292e-19 9.67952e-08 0)
(5.01874e-19 1.02822e-07 0)
(5.30154e-19 1.07083e-07 0)
(5.58218e-19 1.13257e-07 0)
(5.87625e-19 1.1771e-07 0)
(6.16712e-19 1.24034e-07 0)
(6.47221e-19 1.28698e-07 0)
(6.7991e-19 1.35173e-07 0)
(7.12251e-19 1.40068e-07 0)
(7.44116e-19 1.46699e-07 0)
(7.78316e-19 1.51844e-07 0)
(8.13542e-19 1.58639e-07 0)
(8.49813e-19 1.64052e-07 0)
(8.856e-19 1.71021e-07 0)
(9.232e-19 1.76725e-07 0)
(9.65586e-19 1.8388e-07 0)
(1.00214e-18 1.89895e-07 0)
(1.04912e-18 1.97254e-07 0)
(1.08605e-18 2.03605e-07 0)
(1.13403e-18 2.11188e-07 0)
(1.17742e-18 2.17897e-07 0)
(1.22425e-18 2.25729e-07 0)
(1.27042e-18 2.32823e-07 0)
(1.32726e-18 2.40931e-07 0)
(1.3742e-18 2.48436e-07 0)
(1.42985e-18 2.5685e-07 0)
(1.47726e-18 2.6479e-07 0)
(1.53926e-18 2.73542e-07 0)
(1.59816e-18 2.81943e-07 0)
(1.65907e-18 2.91068e-07 0)
(1.72212e-18 2.99957e-07 0)
(1.78738e-18 3.09491e-07 0)
(1.85196e-18 3.18896e-07 0)
(1.92519e-18 3.28879e-07 0)
(1.99798e-18 3.38832e-07 0)
(2.0735e-18 3.49313e-07 0)
(2.15877e-18 3.59858e-07 0)
(2.23361e-18 3.70897e-07 0)
(2.31844e-18 3.82088e-07 0)
(2.40657e-18 3.93757e-07 0)
(2.49812e-18 4.05665e-07 0)
(2.59323e-18 4.18057e-07 0)
(2.70018e-18 4.30774e-07 0)
(2.78557e-18 4.43999e-07 0)
(2.90023e-18 4.57641e-07 0)
(3.01018e-18 4.71839e-07 0)
(3.12376e-18 4.86554e-07 0)
(3.24094e-18 5.01906e-07 0)
(3.37135e-18 5.17906e-07 0)
(3.48457e-18 5.34677e-07 0)
(3.61025e-18 5.52289e-07 0)
(3.73792e-18 5.709e-07 0)
(3.86678e-18 5.90655e-07 0)
(3.99588e-18 6.11778e-07 0)
(4.1241e-18 6.34513e-07 0)
(4.25011e-18 6.59166e-07 0)
(4.37244e-18 6.86098e-07 0)
(4.48948e-18 7.15711e-07 0)
(4.59961e-18 7.48474e-07 0)
(4.70121e-18 7.8486e-07 0)
(4.79283e-18 8.26136e-07 0)
(4.87321e-18 8.73791e-07 0)
(4.94149e-18 9.28678e-07 0)
(5.03499e-18 9.88304e-07 0)
(5.03664e-18 1.04173e-06 0)
(5.06222e-18 1.11618e-06 0)
(5.07884e-18 1.42877e-06 0)
(5.38509e-18 2.89319e-06 0)
(4.99523e-17 -0.000363974 0)
(5.06649e-17 8.57487e-06 0)
(5.14823e-17 5.72648e-05 0)
(5.16848e-17 4.4618e-06 0)
(5.13599e-17 -3.49607e-06 0)
(5.05922e-17 -8.08673e-07 0)
(4.9458e-17 1.57155e-07 0)
(4.80258e-17 8.09645e-08 0)
(4.63558e-17 -1.15831e-09 0)
(4.45004e-17 -6.21736e-09 0)
(4.25041e-17 -7.28317e-10 0)
(4.04044e-17 3.71622e-10 0)
(3.8232e-17 1.07009e-10 0)
(3.60118e-17 -1.19427e-11 0)
(3.37633e-17 -8.447e-12 0)
(3.15017e-17 -2.11887e-13 0)
(2.92382e-17 -6.18665e-13 0)
(2.6981e-17 -1.62627e-12 0)
(2.47356e-17 -1.04529e-12 0)
(2.25057e-17 -2.7217e-14 0)
(2.0293e-17 1.1667e-12 0)
(1.80984e-17 1.34161e-12 0)
(1.59215e-17 4.01059e-13 0)
(1.37614e-17 -1.0843e-13 0)
(1.16167e-17 -1.12481e-12 0)
(9.48538e-18 -9.30214e-13 0)
(7.36542e-18 -7.67803e-13 0)
(5.25444e-18 -2.91491e-13 0)
(3.14997e-18 -2.61727e-14 0)
(1.04942e-18 2.54718e-13 0)
)
;

boundaryField
{
    inlet
    {
        type            cyclic;
    }
    outlet
    {
        type            cyclic;
    }
    top
    {
        type            fixedValue;
        value           uniform (0 0 0);
    }
    bottom
    {
        type            fixedValue;
        value           uniform (0 0 0);
    }
    frontAndBackPlanes
    {
        type            empty;
    }
}


// ************************************************************************* //
