/*--------------------------------*- C++ -*----------------------------------*\
| =========                 |                                                 |
| \\      /  F ield         | OpenFOAM: The Open Source CFD Toolbox           |
|  \\    /   O peration     | Version:  2206                                  |
|   \\  /    A nd           | Website:  www.openfoam.com                      |
|    \\/     M anipulation  |                                                 |
\*---------------------------------------------------------------------------*/
FoamFile
{
    version     2.0;
    format      ascii;
    arch        "LSB;label=32;scalar=64";
    class       volScalarField;
    location    "1100";
    object      alpha.a;
}
// * * * * * * * * * * * * * * * * * * * * * * * * * * * * * * * * * * * * * //

dimensions      [0 0 0 0 0 0 0];

internalField   nonuniform List<scalar> 
120
(
0.59888
0.598766
0.598766
0.59864
0.598636
0.598509
0.598503
0.598374
0.598364
0.598236
0.598222
0.598093
0.598075
0.597946
0.597923
0.597794
0.597765
0.597637
0.597603
0.597474
0.597434
0.597306
0.597259
0.597131
0.597077
0.596949
0.596887
0.59676
0.59669
0.596562
0.596485
0.596356
0.59627
0.596139
0.596045
0.595912
0.595809
0.595673
0.595561
0.595421
0.595299
0.595154
0.595022
0.594871
0.594728
0.59457
0.594415
0.594247
0.59408
0.5939
0.593718
0.593525
0.593327
0.593117
0.5929
0.59267
0.592429
0.592174
0.591906
0.591619
0.591315
0.590988
0.590636
0.590253
0.589833
0.589365
0.588838
0.58822
0.587464
0.586569
0.585529
0.584218
0.582997
0.582309
0.552463
0.526982
0.5123
0.505827
0.502755
0.50132
0.500636
0.500306
0.500147
0.50007
0.500034
0.500017
0.500009
0.499994
0.499969
0.500193
0.500687
0.499089
0.476039
0.461618
0.00611919
0.000118511
6.24748e-06
1.06261e-08
1.18052e-16
3.20304e-25
1.24918e-33
1.12277e-41
1.61309e-49
3.47645e-57
7.82392e-65
1.57844e-72
2.69463e-80
3.66108e-88
6.47541e-96
1.37852e-103
2.86651e-111
4.32106e-119
4.76733e-127
6.6936e-135
1.57269e-142
2.82945e-150
6.0383e-158
1.74903e-165
3.99148e-173
1.18432e-180
)
;

boundaryField
{
    inlet
    {
        type            cyclic;
    }
    outlet
    {
        type            cyclic;
    }
    top
    {
        type            zeroGradient;
    }
    bottom
    {
        type            zeroGradient;
    }
    frontAndBackPlanes
    {
        type            empty;
    }
}


// ************************************************************************* //
