/*--------------------------------*- C++ -*----------------------------------*\
| =========                 |                                                 |
| \\      /  F ield         | OpenFOAM: The Open Source CFD Toolbox           |
|  \\    /   O peration     | Version:  2206                                  |
|   \\  /    A nd           | Website:  www.openfoam.com                      |
|    \\/     M anipulation  |                                                 |
\*---------------------------------------------------------------------------*/
FoamFile
{
    version     2.0;
    format      ascii;
    arch        "LSB;label=32;scalar=64";
    class       volScalarField;
    location    "1100";
    object      nuFra;
}
// * * * * * * * * * * * * * * * * * * * * * * * * * * * * * * * * * * * * * //

dimensions      [0 2 -1 0 0 0 0];

internalField   nonuniform List<scalar> 
120
(
1
1
1
1
1
1
1
1
1
1
1
1
1
1
1
1
1
1
1
1
1
1
1
1
1
1
1
1
1
1
1
1
1
1
1
1
1
1
1
1
1
1
1
1
1
1
1
1
1
1
1
1
1
1
1
1
1
1
1
1
1
1
1
1
1
1
1
1
1
1
0.961789
0.305897
0.259584
1
1.45097e-08
8.71828e-08
2.00132e-08
8.82299e-08
1.96421e-07
5.38619e-07
1.15725e-06
2.31993e-06
4.77084e-06
9.46015e-06
2.14922e-05
0.000291245
7.56999e-06
3.09095e-06
2.7797e-07
2.27725e-07
1.42311e-08
6.62565e-08
5.8375e-10
1.1237e-09
1.23255e-09
8.14242e-08
1.95551e-08
1.30816e-08
1.40842e-08
2.4869e-08
2.53504e-08
2.58105e-08
3.93914e-08
8.96128e-08
2.20153e-07
4.5667e-07
8.35951e-07
1.56027e-06
3.34077e-06
8.79453e-06
2.86179e-05
9.89881e-05
0.000234837
0.000304546
0.000247159
9.85684e-05
1.68516e-05
1.51223e-06
6.42997e-08
4.76292e-10
)
;

boundaryField
{
    inlet
    {
        type            cyclic;
    }
    outlet
    {
        type            cyclic;
    }
    top
    {
        type            calculated;
        value           uniform 2.39853e-10;
    }
    bottom
    {
        type            calculated;
        value           uniform 1;
    }
    frontAndBackPlanes
    {
        type            empty;
    }
}


// ************************************************************************* //
