/*--------------------------------*- C++ -*----------------------------------*\
| =========                 |                                                 |
| \\      /  F ield         | OpenFOAM: The Open Source CFD Toolbox           |
|  \\    /   O peration     | Version:  2206                                  |
|   \\  /    A nd           | Website:  www.openfoam.com                      |
|    \\/     M anipulation  |                                                 |
\*---------------------------------------------------------------------------*/
FoamFile
{
    version     2.0;
    format      ascii;
    arch        "LSB;label=32;scalar=64";
    class       volScalarField;
    location    "1100";
    object      pff;
}
// * * * * * * * * * * * * * * * * * * * * * * * * * * * * * * * * * * * * * //

dimensions      [1 -1 -2 0 0 0 0];

internalField   nonuniform List<scalar> 
120
(
19.5885
19.0555
19.058
18.4814
18.4672
17.9044
17.8777
17.3299
17.2895
16.7579
16.7029
16.1885
16.1179
15.6214
15.5348
15.0568
14.9537
14.4945
14.3749
13.9345
13.7985
13.3768
13.2247
12.8212
12.6537
12.2679
12.0858
11.7167
11.521
11.1677
10.9597
10.6209
10.4019
10.0764
9.84776
9.5342
9.2975
8.99453
8.75123
8.45753
8.2091
7.92342
7.67126
7.39243
7.13782
6.86479
6.60887
6.34074
6.08448
5.82053
5.56474
5.30441
5.04975
4.79269
4.53974
4.28582
4.03507
3.78432
3.53621
3.28875
3.04353
2.7993
2.55688
2.3154
2.07489
1.83476
1.59447
1.34985
1.0971
0.853473
0.631931
0.42549
0.288668
0.229602
0
0
0
0
0
0
0
0
0
0
0
0
0
0
0
0
0
0
0
0
0
0
0
0
0
0
0
0
0
0
0
0
0
0
0
0
0
0
0
0
0
0
0
0
0
0
)
;

boundaryField
{
    inlet
    {
        type            cyclic;
    }
    outlet
    {
        type            cyclic;
    }
    top
    {
        type            calculated;
        value           uniform 0;
    }
    bottom
    {
        type            calculated;
        value           uniform 19.5885;
    }
    frontAndBackPlanes
    {
        type            empty;
    }
}


// ************************************************************************* //
