/*--------------------------------*- C++ -*----------------------------------*\
| =========                 |                                                 |
| \\      /  F ield         | OpenFOAM: The Open Source CFD Toolbox           |
|  \\    /   O peration     | Version:  2206                                  |
|   \\  /    A nd           | Website:  www.openfoam.com                      |
|    \\/     M anipulation  |                                                 |
\*---------------------------------------------------------------------------*/
FoamFile
{
    version     2.0;
    format      ascii;
    arch        "LSB;label=32;scalar=64";
    class       surfaceScalarField;
    location    "1100";
    object      phi.b;
}
// * * * * * * * * * * * * * * * * * * * * * * * * * * * * * * * * * * * * * //

dimensions      [0 3 -1 0 0 0 0];

oriented        oriented;

internalField   nonuniform List<scalar> 
119
(
1.63299e-15
3.30999e-15
4.98819e-15
6.71448e-15
8.4459e-15
1.02246e-14
1.20121e-14
1.38457e-14
1.56929e-14
1.75852e-14
1.94959e-14
2.14502e-14
2.34282e-14
2.54486e-14
2.74989e-14
2.95902e-14
3.17174e-14
3.38843e-14
3.60938e-14
3.8342e-14
4.06397e-14
4.29755e-14
4.53677e-14
4.77976e-14
5.02909e-14
5.28225e-14
5.54245e-14
5.80657e-14
6.0784e-14
6.3544e-14
6.63882e-14
6.92777e-14
7.22588e-14
7.52906e-14
7.84217e-14
8.16114e-14
8.49092e-14
8.8275e-14
9.17591e-14
9.53236e-14
9.90168e-14
1.02804e-13
1.06732e-13
1.10769e-13
1.14959e-13
1.19274e-13
1.23754e-13
1.28379e-13
1.33184e-13
1.38158e-13
1.43335e-13
1.48716e-13
1.54337e-13
1.60215e-13
1.66393e-13
1.72905e-13
1.79805e-13
1.87141e-13
1.94973e-13
2.03356e-13
2.12347e-13
2.21994e-13
2.32346e-13
2.43452e-13
2.55392e-13
2.68278e-13
2.82476e-13
2.991e-13
3.19435e-13
3.43062e-13
3.78418e-13
4.50459e-13
5.06835e-13
5.00019e-13
1.60716e-12
2.04038e-12
2.19111e-12
2.26272e-12
2.29452e-12
2.3094e-12
2.31659e-12
2.32008e-12
2.32175e-12
2.32256e-12
2.32294e-12
2.32312e-12
2.32327e-12
2.32324e-12
2.32228e-12
2.32362e-12
2.32989e-12
2.36141e-12
2.45555e-12
9.55001e-12
2.39111e-13
4.4782e-15
2.17178e-16
-8.72639e-19
-7.8564e-19
6.19292e-19
1.24026e-18
1.6064e-18
1.3655e-18
-4.77919e-19
-1.74085e-18
-1.07863e-18
-9.44271e-19
-1.419e-19
4.31801e-19
1.13035e-18
1.82245e-18
-7.42698e-20
-2.17186e-18
-3.56347e-18
-3.45107e-18
-1.99475e-18
-2.95459e-19
1.43878e-18
1.52259e-18
)
;

boundaryField
{
    inlet
    {
        type            cyclic;
        value           nonuniform List<scalar> 
120
(
-2.01967e-27
-6.06256e-27
-1.01178e-26
-1.41784e-26
-1.82625e-26
-2.23718e-26
-2.6534e-26
-3.0688e-26
-3.48779e-26
-3.91765e-26
-4.35015e-26
-4.78484e-26
-5.23473e-26
-5.68823e-26
-6.15012e-26
-6.6212e-26
-7.10226e-26
-7.59412e-26
-8.09765e-26
-8.6137e-26
-9.14318e-26
-9.68702e-26
-1.0246e-25
-1.07843e-25
-1.14151e-25
-1.20273e-25
-1.26802e-25
-1.33097e-25
-1.39824e-25
-1.47272e-25
-1.54469e-25
-1.61358e-25
-1.69026e-25
-1.76971e-25
-1.85203e-25
-1.93113e-25
-2.01717e-25
-2.12068e-25
-2.19993e-25
-2.31907e-25
-2.3969e-25
-2.51731e-25
-2.6179e-25
-2.73084e-25
-2.83955e-25
-2.99005e-25
-3.0988e-25
-3.24147e-25
-3.34862e-25
-3.51413e-25
-3.66502e-25
-3.82225e-25
-3.98613e-25
-4.15679e-25
-4.32143e-25
-4.51971e-25
-4.71217e-25
-4.91197e-25
-5.14962e-25
-5.33317e-25
-5.55439e-25
-5.78283e-25
-6.01802e-25
-6.2594e-25
-6.5451e-25
-6.7092e-25
-6.99638e-25
-7.23328e-25
-7.45636e-25
-7.67151e-25
-7.97788e-25
-8.44308e-25
-9.80033e-25
-1.03294e-24
-1.13226e-24
-1.46747e-23
-1.62606e-23
-1.70295e-23
-1.79407e-23
-1.90631e-23
-2.03967e-23
-2.19491e-23
-2.3756e-23
-2.5965e-23
-2.89654e-23
-3.06403e-23
-2.8709e-23
-2.43896e-23
-2.13028e-23
-1.87138e-23
-1.64757e-23
-1.45418e-23
-1.3013e-23
-1.19909e-23
-1.1757e-23
-1.12045e-23
-1.06594e-23
-1.01258e-23
-9.60273e-24
-9.08937e-24
-8.58515e-24
-8.08953e-24
-7.60209e-24
-7.12245e-24
-6.65026e-24
-6.18518e-24
-5.72689e-24
-5.27505e-24
-4.82929e-24
-4.38924e-24
-3.9545e-24
-3.52465e-24
-3.09923e-24
-2.67778e-24
-2.25981e-24
-1.84482e-24
-1.43228e-24
-1.02167e-24
-6.12429e-25
-2.04024e-25
)
;
    }
    outlet
    {
        type            cyclic;
        value           nonuniform List<scalar> 
120
(
2.01967e-27
6.06256e-27
1.01178e-26
1.41784e-26
1.82625e-26
2.23718e-26
2.6534e-26
3.0688e-26
3.48779e-26
3.91765e-26
4.35015e-26
4.78484e-26
5.23473e-26
5.68823e-26
6.15012e-26
6.6212e-26
7.10226e-26
7.59412e-26
8.09765e-26
8.6137e-26
9.14318e-26
9.68702e-26
1.0246e-25
1.07843e-25
1.14151e-25
1.20273e-25
1.26802e-25
1.33097e-25
1.39824e-25
1.47272e-25
1.54469e-25
1.61358e-25
1.69026e-25
1.76971e-25
1.85203e-25
1.93113e-25
2.01717e-25
2.12068e-25
2.19993e-25
2.31907e-25
2.3969e-25
2.51731e-25
2.6179e-25
2.73084e-25
2.83955e-25
2.99005e-25
3.0988e-25
3.24147e-25
3.34862e-25
3.51413e-25
3.66502e-25
3.82225e-25
3.98613e-25
4.15679e-25
4.32143e-25
4.51971e-25
4.71217e-25
4.91197e-25
5.14962e-25
5.33317e-25
5.55439e-25
5.78283e-25
6.01802e-25
6.2594e-25
6.5451e-25
6.7092e-25
6.99638e-25
7.23328e-25
7.45636e-25
7.67151e-25
7.97788e-25
8.44308e-25
9.80033e-25
1.03294e-24
1.13226e-24
1.46747e-23
1.62606e-23
1.70295e-23
1.79407e-23
1.90631e-23
2.03967e-23
2.19491e-23
2.3756e-23
2.5965e-23
2.89654e-23
3.06403e-23
2.8709e-23
2.43896e-23
2.13028e-23
1.87138e-23
1.64757e-23
1.45418e-23
1.3013e-23
1.19909e-23
1.1757e-23
1.12045e-23
1.06594e-23
1.01258e-23
9.60273e-24
9.08937e-24
8.58515e-24
8.08953e-24
7.60209e-24
7.12245e-24
6.65026e-24
6.18518e-24
5.72689e-24
5.27505e-24
4.82929e-24
4.38924e-24
3.9545e-24
3.52465e-24
3.09923e-24
2.67778e-24
2.25981e-24
1.84482e-24
1.43228e-24
1.02167e-24
6.12429e-25
2.04024e-25
)
;
    }
    top
    {
        type            fixedValue;
        value           uniform 0;
    }
    bottom
    {
        type            fixedValue;
        value           uniform 0;
    }
    frontAndBackPlanes
    {
        type            empty;
        value           nonuniform List<scalar> 0();
    }
}


// ************************************************************************* //
