/*--------------------------------*- C++ -*----------------------------------*\
| =========                 |                                                 |
| \\      /  F ield         | OpenFOAM: The Open Source CFD Toolbox           |
|  \\    /   O peration     | Version:  2206                                  |
|   \\  /    A nd           | Website:  www.openfoam.com                      |
|    \\/     M anipulation  |                                                 |
\*---------------------------------------------------------------------------*/
FoamFile
{
    version     2.0;
    format      ascii;
    arch        "LSB;label=32;scalar=64";
    class       surfaceScalarField;
    location    "1100";
    object      phi.a;
}
// * * * * * * * * * * * * * * * * * * * * * * * * * * * * * * * * * * * * * //

dimensions      [0 3 -1 0 0 0 0];

oriented        oriented;

internalField   nonuniform List<scalar> 
119
(
-1.09398e-15
-2.21798e-15
-3.34343e-15
-4.50172e-15
-5.66405e-15
-6.85879e-15
-8.06021e-15
-9.29343e-15
-1.05363e-14
-1.18103e-14
-1.30974e-14
-1.44147e-14
-1.57489e-14
-1.71124e-14
-1.84969e-14
-1.99099e-14
-2.13482e-14
-2.28144e-14
-2.43103e-14
-2.58336e-14
-2.73913e-14
-2.89762e-14
-3.06003e-14
-3.22515e-14
-3.39468e-14
-3.56696e-14
-3.74413e-14
-3.92416e-14
-4.10956e-14
-4.298e-14
-4.4923e-14
-4.68991e-14
-4.89391e-14
-5.10163e-14
-5.3163e-14
-5.53524e-14
-5.76176e-14
-5.99326e-14
-6.23307e-14
-6.47872e-14
-6.73346e-14
-6.99505e-14
-7.26656e-14
-7.54604e-14
-7.83632e-14
-8.13579e-14
-8.44701e-14
-8.7688e-14
-9.10353e-14
-9.4506e-14
-9.81234e-14
-1.0189e-13
-1.0583e-13
-1.09958e-13
-1.14304e-13
-1.18894e-13
-1.23765e-13
-1.28954e-13
-1.34506e-13
-1.4046e-13
-1.46862e-13
-1.5375e-13
-1.61164e-13
-1.69149e-13
-1.7777e-13
-1.87124e-13
-1.97494e-13
-2.0971e-13
-2.24732e-13
-2.42319e-13
-2.6859e-13
-3.21394e-13
-3.63039e-13
-3.81249e-13
-1.3706e-12
-1.88614e-12
-2.11309e-12
-2.22422e-12
-2.2759e-12
-2.30038e-12
-2.31223e-12
-2.31797e-12
-2.32074e-12
-2.32208e-12
-2.3227e-12
-2.323e-12
-2.32325e-12
-2.32342e-12
-2.32153e-12
-2.31954e-12
-2.33093e-12
-2.48188e-12
-2.78208e-12
-3.12849e-11
-7.64272e-11
-7.18147e-11
-6.98539e-11
-7.27981e-11
-7.56622e-11
-7.73863e-11
-7.88913e-11
-8.03192e-11
-8.12793e-11
-8.17199e-11
-8.18995e-11
-8.19846e-11
-8.20306e-11
-8.20552e-11
-8.20667e-11
-8.20711e-11
-8.20724e-11
-8.20728e-11
-8.20729e-11
-8.20729e-11
-8.20728e-11
-8.20724e-11
-8.20701e-11
-8.20445e-11
-8.14413e-11
)
;

boundaryField
{
    inlet
    {
        type            cyclic;
        value           nonuniform List<scalar> 
120
(
-2.01967e-27
-6.06255e-27
-1.01137e-26
-1.41784e-26
-1.82625e-26
-2.23717e-26
-2.65118e-26
-3.06881e-26
-3.49073e-26
-3.91766e-26
-4.35017e-26
-4.78893e-26
-5.23475e-26
-5.68823e-26
-6.15012e-26
-6.6212e-26
-7.10226e-26
-7.59412e-26
-8.09765e-26
-8.6137e-26
-9.14318e-26
-9.68702e-26
-1.02462e-25
-1.08216e-25
-1.14153e-25
-1.20272e-25
-1.26585e-25
-1.33096e-25
-1.39821e-25
-1.46772e-25
-1.53947e-25
-1.61356e-25
-1.69026e-25
-1.76971e-25
-1.85206e-25
-1.93759e-25
-2.02384e-25
-2.1138e-25
-2.20705e-25
-2.30412e-25
-2.4046e-25
-2.50925e-25
-2.61787e-25
-2.73088e-25
-2.84853e-25
-2.97128e-25
-3.09867e-25
-3.23144e-25
-3.3696e-25
-3.51422e-25
-3.66502e-25
-3.82225e-25
-3.98613e-25
-4.15685e-25
-4.33458e-25
-4.51977e-25
-4.71217e-25
-4.91182e-25
-5.11879e-25
-5.33303e-25
-5.55439e-25
-5.78283e-25
-6.01802e-25
-6.25921e-25
-6.50491e-25
-6.75146e-25
-6.99659e-25
-7.23328e-25
-7.45636e-25
-7.67121e-25
-7.91843e-25
-8.43933e-25
-9.80394e-25
-1.03254e-24
-1.04682e-24
-1.46751e-23
-1.62606e-23
-1.70295e-23
-1.79407e-23
-1.90632e-23
-2.0397e-23
-2.19497e-23
-2.37574e-23
-2.5969e-23
-2.89914e-23
-3.05898e-23
-2.87468e-23
-2.43923e-23
-2.13037e-23
-1.87139e-23
-1.64758e-23
-1.45418e-23
-1.3013e-23
-1.19909e-23
-1.17538e-23
-1.11594e-23
-1.06311e-23
-9.20619e-24
-7.70046e-24
-6.53584e-24
-5.24316e-24
-3.489e-24
-1.84465e-24
-9.36292e-25
-5.34634e-25
-3.33222e-25
-2.14321e-25
-1.4245e-25
-1.03926e-25
-8.72485e-26
-8.15813e-26
-7.99071e-26
-7.93215e-26
-7.90504e-26
-7.89053e-26
-7.88314e-26
-7.88161e-26
-7.89365e-26
-7.969e-26
-8.22698e-26
)
;
    }
    outlet
    {
        type            cyclic;
        value           nonuniform List<scalar> 
120
(
2.01967e-27
6.06255e-27
1.01137e-26
1.41784e-26
1.82625e-26
2.23717e-26
2.65118e-26
3.06881e-26
3.49073e-26
3.91766e-26
4.35017e-26
4.78893e-26
5.23475e-26
5.68823e-26
6.15012e-26
6.6212e-26
7.10226e-26
7.59412e-26
8.09765e-26
8.6137e-26
9.14318e-26
9.68702e-26
1.02462e-25
1.08216e-25
1.14153e-25
1.20272e-25
1.26585e-25
1.33096e-25
1.39821e-25
1.46772e-25
1.53947e-25
1.61356e-25
1.69026e-25
1.76971e-25
1.85206e-25
1.93759e-25
2.02384e-25
2.1138e-25
2.20705e-25
2.30412e-25
2.4046e-25
2.50925e-25
2.61787e-25
2.73088e-25
2.84853e-25
2.97128e-25
3.09867e-25
3.23144e-25
3.3696e-25
3.51422e-25
3.66502e-25
3.82225e-25
3.98613e-25
4.15685e-25
4.33458e-25
4.51977e-25
4.71217e-25
4.91182e-25
5.11879e-25
5.33303e-25
5.55439e-25
5.78283e-25
6.01802e-25
6.25921e-25
6.50491e-25
6.75146e-25
6.99659e-25
7.23328e-25
7.45636e-25
7.67121e-25
7.91843e-25
8.43933e-25
9.80394e-25
1.03254e-24
1.04682e-24
1.46751e-23
1.62606e-23
1.70295e-23
1.79407e-23
1.90632e-23
2.0397e-23
2.19497e-23
2.37574e-23
2.5969e-23
2.89914e-23
3.05898e-23
2.87468e-23
2.43923e-23
2.13037e-23
1.87139e-23
1.64758e-23
1.45418e-23
1.3013e-23
1.19909e-23
1.17538e-23
1.11594e-23
1.06311e-23
9.20619e-24
7.70046e-24
6.53584e-24
5.24316e-24
3.489e-24
1.84465e-24
9.36292e-25
5.34634e-25
3.33222e-25
2.14321e-25
1.4245e-25
1.03926e-25
8.72485e-26
8.15813e-26
7.99071e-26
7.93215e-26
7.90504e-26
7.89053e-26
7.88314e-26
7.88161e-26
7.89365e-26
7.969e-26
8.22698e-26
)
;
    }
    top
    {
        type            fixedValue;
        value           uniform 0;
    }
    bottom
    {
        type            fixedValue;
        value           uniform 0;
    }
    frontAndBackPlanes
    {
        type            empty;
        value           nonuniform List<scalar> 0();
    }
}


// ************************************************************************* //
