/*--------------------------------*- C++ -*----------------------------------*\
| =========                 |                                                 |
| \\      /  F ield         | OpenFOAM: The Open Source CFD Toolbox           |
|  \\    /   O peration     | Version:  2206                                  |
|   \\  /    A nd           | Website:  www.openfoam.com                      |
|    \\/     M anipulation  |                                                 |
\*---------------------------------------------------------------------------*/
FoamFile
{
    version     2.0;
    format      ascii;
    arch        "LSB;label=32;scalar=64";
    class       volVectorField;
    location    "1100";
    object      U.a;
}
// * * * * * * * * * * * * * * * * * * * * * * * * * * * * * * * * * * * * * //

dimensions      [0 1 -1 0 0 0 0];

internalField   nonuniform List<vector> 
120
(
(6.73224e-21 1.41236e-08 0)
(2.02085e-20 -4.25919e-09 0)
(3.37122e-20 -8.06289e-09 0)
(4.72614e-20 -1.0511e-08 0)
(6.08751e-20 -1.44985e-08 0)
(7.45724e-20 -1.69676e-08 0)
(8.83726e-20 -2.11366e-08 0)
(1.02294e-19 -2.36415e-08 0)
(1.16358e-19 -2.79885e-08 0)
(1.30589e-19 -3.0546e-08 0)
(1.45006e-19 -3.50667e-08 0)
(1.59631e-19 -3.7696e-08 0)
(1.74492e-19 -4.23855e-08 0)
(1.89608e-19 -4.51075e-08 0)
(2.05004e-19 -4.99611e-08 0)
(2.20707e-19 -5.27986e-08 0)
(2.36742e-19 -5.78115e-08 0)
(2.53137e-19 -6.07888e-08 0)
(2.69922e-19 -6.59569e-08 0)
(2.87123e-19 -6.90996e-08 0)
(3.04773e-19 -7.44195e-08 0)
(3.22901e-19 -7.7754e-08 0)
(3.41539e-19 -8.3224e-08 0)
(3.6072e-19 -8.6777e-08 0)
(3.80509e-19 -9.2397e-08 0)
(4.00908e-19 -9.61956e-08 0)
(4.21951e-19 -1.01968e-07 0)
(4.43654e-19 -1.06039e-07 0)
(4.66071e-19 -1.11969e-07 0)
(4.8924e-19 -1.16339e-07 0)
(5.13155e-19 -1.22437e-07 0)
(5.37853e-19 -1.27135e-07 0)
(5.6342e-19 -1.33415e-07 0)
(5.89903e-19 -1.38469e-07 0)
(6.17352e-19 -1.44953e-07 0)
(6.45862e-19 -1.50396e-07 0)
(6.74612e-19 -1.57115e-07 0)
(7.04599e-19 -1.62981e-07 0)
(7.35685e-19 -1.69976e-07 0)
(7.68042e-19 -1.76305e-07 0)
(8.01532e-19 -1.83622e-07 0)
(8.36415e-19 -1.90457e-07 0)
(8.72622e-19 -1.98154e-07 0)
(9.10295e-19 -2.05542e-07 0)
(9.4951e-19 -2.1368e-07 0)
(9.90426e-19 -2.21669e-07 0)
(1.03289e-18 -2.30317e-07 0)
(1.07715e-18 -2.38959e-07 0)
(1.1232e-18 -2.48194e-07 0)
(1.17141e-18 -2.57555e-07 0)
(1.22167e-18 -2.67475e-07 0)
(1.27408e-18 -2.77652e-07 0)
(1.32871e-18 -2.88398e-07 0)
(1.38562e-18 -2.99544e-07 0)
(1.44486e-18 -3.11329e-07 0)
(1.50659e-18 -3.23689e-07 0)
(1.57072e-18 -3.36825e-07 0)
(1.63727e-18 -3.50752e-07 0)
(1.70626e-18 -3.65653e-07 0)
(1.77768e-18 -3.81592e-07 0)
(1.85146e-18 -3.98733e-07 0)
(1.92761e-18 -4.17156e-07 0)
(2.00601e-18 -4.37001e-07 0)
(2.0864e-18 -4.58344e-07 0)
(2.1683e-18 -4.8136e-07 0)
(2.25049e-18 -5.06241e-07 0)
(2.3322e-18 -5.33318e-07 0)
(2.41109e-18 -5.63839e-07 0)
(2.48545e-18 -6.0117e-07 0)
(2.55707e-18 -6.47308e-07 0)
(2.63948e-18 -6.98684e-07 0)
(2.81311e-18 -7.91426e-07 0)
(3.26798e-18 -9.94632e-07 0)
(3.4418e-18 -1.02617e-06 0)
(3.48941e-18 -1.01742e-06 0)
(4.8917e-17 -1.61999e-05 0)
(5.4202e-17 -3.48066e-06 0)
(5.67651e-17 -5.09254e-06 0)
(5.98025e-17 -5.9277e-06 0)
(6.35439e-17 -6.2081e-06 0)
(6.79899e-17 -6.33303e-06 0)
(7.31656e-17 -6.39604e-06 0)
(7.91915e-17 -6.42678e-06 0)
(8.65632e-17 -6.44164e-06 0)
(9.6638e-17 -6.44979e-06 0)
(1.01966e-16 -6.45175e-06 0)
(9.58228e-17 -6.45004e-06 0)
(8.13078e-17 -6.42328e-06 0)
(7.10123e-17 -6.52003e-06 0)
(6.23795e-17 -7.19913e-06 0)
(5.49192e-17 -5.56289e-06 0)
(4.84725e-17 7.9531e-06 0)
(4.33766e-17 -2.64592e-06 0)
(3.99695e-17 -0.000361198 0)
(3.91792e-17 -0.000193931 0)
(3.71979e-17 -0.000187655 0)
(3.54371e-17 -0.000190766 0)
(3.06873e-17 -0.00019712 0)
(2.56682e-17 -0.0002074 0)
(2.17861e-17 -0.000212958 0)
(1.74772e-17 -0.000216963 0)
(1.163e-17 -0.000221321 0)
(6.14882e-18 -0.000224897 0)
(3.12097e-18 -0.000226655 0)
(1.78211e-18 -0.000227345 0)
(1.11074e-18 -0.000227653 0)
(7.14404e-19 -0.000227817 0)
(4.74832e-19 -0.000227908 0)
(3.4642e-19 -0.000227954 0)
(2.90828e-19 -0.000227972 0)
(2.71938e-19 -0.000227978 0)
(2.66357e-19 -0.00022798 0)
(2.64405e-19 -0.00022798 0)
(2.63501e-19 -0.00022798 0)
(2.63018e-19 -0.00022798 0)
(2.62771e-19 -0.00022798 0)
(2.6272e-19 -0.000227978 0)
(2.63122e-19 -0.000227967 0)
(2.65633e-19 -0.000227836 0)
(2.74233e-19 -0.000224616 0)
)
;

boundaryField
{
    inlet
    {
        type            cyclic;
    }
    outlet
    {
        type            cyclic;
    }
    top
    {
        type            fixedValue;
        value           uniform (0 0 0);
    }
    bottom
    {
        type            fixedValue;
        value           uniform (0 0 0);
    }
    frontAndBackPlanes
    {
        type            empty;
    }
}


// ************************************************************************* //
