/*--------------------------------*- C++ -*----------------------------------*\
| =========                 |                                                 |
| \\      /  F ield         | OpenFOAM: The Open Source CFD Toolbox           |
|  \\    /   O peration     | Version:  2206                                  |
|   \\  /    A nd           | Website:  www.openfoam.com                      |
|    \\/     M anipulation  |                                                 |
\*---------------------------------------------------------------------------*/
FoamFile
{
    version     2.0;
    format      ascii;
    arch        "LSB;label=32;scalar=64";
    class       volVectorField;
    location    "1100";
    object      U.b;
}
// * * * * * * * * * * * * * * * * * * * * * * * * * * * * * * * * * * * * * //

dimensions      [0 1 -1 0 0 0 0];

internalField   nonuniform List<vector> 
120
(
(6.73225e-21 1.7637e-08 0)
(2.02085e-20 7.22221e-09 0)
(3.3726e-20 1.11708e-08 0)
(4.72614e-20 1.66388e-08 0)
(6.08751e-20 2.06685e-08 0)
(7.45727e-20 2.63627e-08 0)
(8.84465e-20 3.04551e-08 0)
(1.02293e-19 3.63855e-08 0)
(1.1626e-19 4.05603e-08 0)
(1.30588e-19 4.67262e-08 0)
(1.45005e-19 5.10057e-08 0)
(1.59495e-19 5.7405e-08 0)
(1.74491e-19 6.18116e-08 0)
(1.89608e-19 6.84414e-08 0)
(2.05004e-19 7.30023e-08 0)
(2.20707e-19 7.98618e-08 0)
(2.36742e-19 8.4605e-08 0)
(2.53137e-19 9.16916e-08 0)
(2.69922e-19 9.66466e-08 0)
(2.87123e-19 1.0396e-07 0)
(3.04773e-19 1.09159e-07 0)
(3.22901e-19 1.167e-07 0)
(3.41533e-19 1.22176e-07 0)
(3.59477e-19 1.29948e-07 0)
(3.80504e-19 1.35734e-07 0)
(4.00911e-19 1.43741e-07 0)
(4.22673e-19 1.49873e-07 0)
(4.43657e-19 1.58124e-07 0)
(4.66079e-19 1.64634e-07 0)
(4.90907e-19 1.73141e-07 0)
(5.14896e-19 1.80068e-07 0)
(5.3786e-19 1.8885e-07 0)
(5.6342e-19 1.96229e-07 0)
(5.89903e-19 2.05313e-07 0)
(6.17342e-19 2.13188e-07 0)
(6.43709e-19 2.22609e-07 0)
(6.72388e-19 2.31026e-07 0)
(7.06893e-19 2.40833e-07 0)
(7.33311e-19 2.49844e-07 0)
(7.73022e-19 2.60096e-07 0)
(7.98968e-19 2.69762e-07 0)
(8.39103e-19 2.80529e-07 0)
(8.72634e-19 2.90912e-07 0)
(9.10281e-19 3.02273e-07 0)
(9.46517e-19 3.13441e-07 0)
(9.96684e-19 3.25483e-07 0)
(1.03293e-18 3.37505e-07 0)
(1.08049e-18 3.50321e-07 0)
(1.11621e-18 3.6328e-07 0)
(1.17138e-18 3.76985e-07 0)
(1.22167e-18 3.90989e-07 0)
(1.27408e-18 4.05741e-07 0)
(1.32871e-18 4.20964e-07 0)
(1.3856e-18 4.37e-07 0)
(1.44048e-18 4.53714e-07 0)
(1.50657e-18 4.71392e-07 0)
(1.57072e-18 4.9001e-07 0)
(1.63732e-18 5.09825e-07 0)
(1.71654e-18 5.30891e-07 0)
(1.77772e-18 5.53445e-07 0)
(1.85146e-18 5.77574e-07 0)
(1.92761e-18 6.03479e-07 0)
(2.00601e-18 6.31244e-07 0)
(2.08647e-18 6.61056e-07 0)
(2.1817e-18 6.93061e-07 0)
(2.2364e-18 7.27547e-07 0)
(2.33213e-18 7.65321e-07 0)
(2.41109e-18 8.08702e-07 0)
(2.48545e-18 8.6038e-07 0)
(2.55717e-18 9.20374e-07 0)
(2.65929e-18 1.01081e-06 0)
(2.81436e-18 1.17796e-06 0)
(3.26678e-18 1.28704e-06 0)
(3.44314e-18 1.21791e-06 0)
(3.77419e-18 3.94211e-06 0)
(4.89156e-17 -5.47914e-06 0)
(5.42019e-17 8.09011e-06 0)
(5.67651e-17 7.18139e-06 0)
(5.98024e-17 6.68437e-06 0)
(6.35435e-17 6.55742e-06 0)
(6.79891e-17 6.50567e-06 0)
(7.31636e-17 6.47822e-06 0)
(7.91868e-17 6.46466e-06 0)
(8.655e-17 6.45806e-06 0)
(9.65515e-17 6.45394e-06 0)
(1.02134e-16 6.4537e-06 0)
(9.56965e-17 6.45639e-06 0)
(8.12986e-17 6.48382e-06 0)
(7.10093e-17 6.38843e-06 0)
(6.23793e-17 5.70491e-06 0)
(5.49191e-17 7.31693e-06 0)
(4.84726e-17 2.07079e-05 0)
(4.33766e-17 1.15003e-05 0)
(3.99697e-17 -0.000339478 0)
(3.91899e-17 1.51649e-05 0)
(3.73483e-17 5.10398e-05 0)
(3.55314e-17 3.68622e-06 0)
(3.37527e-17 -3.17517e-06 0)
(3.20091e-17 -7.06923e-07 0)
(3.02979e-17 1.46614e-07 0)
(2.86172e-17 7.21396e-08 0)
(2.69651e-17 -1.49798e-09 0)
(2.53403e-17 -5.59877e-09 0)
(2.37415e-17 -6.22272e-10 0)
(2.21675e-17 3.35608e-10 0)
(2.06173e-17 8.91018e-11 0)
(1.90896e-17 -1.59816e-11 0)
(1.75835e-17 -1.02975e-11 0)
(1.60976e-17 2.14518e-13 0)
(1.46308e-17 2.83455e-12 0)
(1.31817e-17 4.29734e-12 0)
(1.17488e-17 2.51512e-12 0)
(1.03308e-17 -3.08122e-12 0)
(8.92593e-18 -8.20206e-12 0)
(7.53271e-18 -9.98431e-12 0)
(6.1494e-18 -7.65966e-12 0)
(4.77427e-18 -2.96425e-12 0)
(3.40555e-18 7.58524e-13 0)
(2.04143e-18 1.0439e-12 0)
(6.80079e-19 -2.69187e-12 0)
)
;

boundaryField
{
    inlet
    {
        type            cyclic;
    }
    outlet
    {
        type            cyclic;
    }
    top
    {
        type            fixedValue;
        value           uniform (0 0 0);
    }
    bottom
    {
        type            fixedValue;
        value           uniform (0 0 0);
    }
    frontAndBackPlanes
    {
        type            empty;
    }
}


// ************************************************************************* //
