/*--------------------------------*- C++ -*----------------------------------*\
| =========                 |                                                 |
| \\      /  F ield         | OpenFOAM: The Open Source CFD Toolbox           |
|  \\    /   O peration     | Version:  2206                                  |
|   \\  /    A nd           | Website:  www.openfoam.com                      |
|    \\/     M anipulation  |                                                 |
\*---------------------------------------------------------------------------*/
FoamFile
{
    version     2.0;
    format      ascii;
    arch        "LSB;label=32;scalar=64";
    class       volScalarField;
    location    "1320";
    object      pff;
}
// * * * * * * * * * * * * * * * * * * * * * * * * * * * * * * * * * * * * * //

dimensions      [1 -1 -2 0 0 0 0];

internalField   nonuniform List<scalar> 
120
(
23.3745
22.8404
22.8436
22.2648
22.2524
21.6857
21.6622
21.1086
21.0733
20.5336
20.4857
19.9606
19.8995
19.3895
19.3149
18.8205
18.7319
18.2534
18.1506
17.6882
17.5712
17.1248
16.9939
16.5634
16.4186
16.0039
15.8457
15.4461
15.2751
14.8903
14.707
14.3363
14.1416
13.7842
13.5789
13.234
13.019
12.6858
12.4622
12.1396
11.9083
11.5955
11.3577
11.0536
10.8102
10.514
10.2662
9.97692
9.72555
9.44243
9.18846
8.91072
8.65501
8.38198
8.12527
7.85636
7.59934
7.33406
7.07731
6.81527
6.5593
6.30023
6.0455
5.78923
5.53614
5.28261
5.03154
4.78076
4.53201
4.28401
4.0378
3.79259
3.54895
3.30643
3.06522
2.82519
2.58614
2.34826
2.11098
1.87446
1.63856
1.4005
1.15601
0.912346
0.693594
0.482763
0.309591
0.182608
0
0
0
0
0
0
0
0
0
0
0
0
0
0
0
0
0
0
0
0
0
0
0
0
0
0
0
0
0
0
0
0
)
;

boundaryField
{
    inlet
    {
        type            cyclic;
    }
    outlet
    {
        type            cyclic;
    }
    top
    {
        type            calculated;
        value           uniform 0;
    }
    bottom
    {
        type            calculated;
        value           uniform 23.3745;
    }
    frontAndBackPlanes
    {
        type            empty;
    }
}


// ************************************************************************* //
