/*--------------------------------*- C++ -*----------------------------------*\
| =========                 |                                                 |
| \\      /  F ield         | OpenFOAM: The Open Source CFD Toolbox           |
|  \\    /   O peration     | Version:  2206                                  |
|   \\  /    A nd           | Website:  www.openfoam.com                      |
|    \\/     M anipulation  |                                                 |
\*---------------------------------------------------------------------------*/
FoamFile
{
    version     2.0;
    format      ascii;
    arch        "LSB;label=32;scalar=64";
    class       surfaceScalarField;
    location    "1320";
    object      phi.b;
}
// * * * * * * * * * * * * * * * * * * * * * * * * * * * * * * * * * * * * * //

dimensions      [0 3 -1 0 0 0 0];

oriented        oriented;

internalField   nonuniform List<scalar> 
119
(
1.36029e-15
2.75152e-15
4.14365e-15
5.56932e-15
6.99835e-15
8.46026e-15
9.92807e-15
1.14281e-14
1.29369e-14
1.44769e-14
1.60284e-14
1.76101e-14
1.92064e-14
2.08321e-14
2.24759e-14
2.41478e-14
2.58412e-14
2.75619e-14
2.93079e-14
3.10803e-14
3.28818e-14
3.47087e-14
3.65687e-14
3.84538e-14
4.0376e-14
4.2323e-14
4.43111e-14
4.63241e-14
4.83824e-14
5.04658e-14
5.25982e-14
5.47566e-14
5.69683e-14
5.92072e-14
6.15029e-14
6.38278e-14
6.62136e-14
6.86309e-14
7.11129e-14
7.36299e-14
7.6216e-14
7.88412e-14
8.15399e-14
8.42835e-14
8.71055e-14
8.99786e-14
9.29357e-14
9.59513e-14
9.90567e-14
1.02229e-13
1.05498e-13
1.08843e-13
1.12291e-13
1.15825e-13
1.1947e-13
1.23212e-13
1.27073e-13
1.31046e-13
1.35151e-13
1.39384e-13
1.43768e-13
1.48304e-13
1.53016e-13
1.57913e-13
1.63019e-13
1.68351e-13
1.73933e-13
1.79786e-13
1.85934e-13
1.92396e-13
1.99196e-13
2.06351e-13
2.13882e-13
2.21814e-13
2.30181e-13
2.39034e-13
2.48458e-13
2.58577e-13
2.696e-13
2.81794e-13
2.95599e-13
3.11982e-13
3.32247e-13
3.55993e-13
3.83347e-13
4.16755e-13
4.43497e-13
4.66498e-13
1.61139e-12
1.6551e-12
1.01282e-11
1.79162e-13
1.35198e-16
2.17639e-16
2.73026e-17
-1.35806e-20
1.48119e-19
2.54142e-19
1.94024e-19
2.3274e-20
-1.57404e-19
-3.00253e-19
-2.65846e-19
-4.64721e-21
2.28215e-19
2.69355e-19
2.09428e-19
4.49702e-20
-1.41464e-19
-1.95454e-19
-2.06681e-19
-1.17657e-19
6.90608e-20
1.48685e-19
2.11423e-19
9.1208e-20
1.015e-20
-7.72243e-20
-6.48586e-20
)
;

boundaryField
{
    inlet
    {
        type            cyclic;
        value           nonuniform List<scalar> 
120
(
-2.7271e-27
-8.18678e-27
-1.36626e-26
-1.91527e-26
-2.4676e-26
-3.02378e-26
-3.58646e-26
-4.15099e-26
-4.72136e-26
-5.30393e-26
-5.89228e-26
-6.48636e-26
-7.09719e-26
-7.71558e-26
-8.34575e-26
-8.98863e-26
-9.64517e-26
-1.03163e-25
-1.1003e-25
-1.17062e-25
-1.24268e-25
-1.31659e-25
-1.39244e-25
-1.46735e-25
-1.55046e-25
-1.63285e-25
-1.71928e-25
-1.80467e-25
-1.89434e-25
-1.9906e-25
-2.08573e-25
-2.17934e-25
-2.28005e-25
-2.3839e-25
-2.49098e-25
-2.59642e-25
-2.70702e-25
-2.83208e-25
-2.93929e-25
-3.07834e-25
-3.18647e-25
-3.3283e-25
-3.45583e-25
-3.59368e-25
-3.7292e-25
-3.89714e-25
-4.03437e-25
-4.19792e-25
-4.3358e-25
-4.51795e-25
-4.69009e-25
-4.86785e-25
-5.05156e-25
-5.24146e-25
-5.42858e-25
-5.64165e-25
-5.85265e-25
-6.07141e-25
-6.31957e-25
-6.53493e-25
-6.78061e-25
-7.03616e-25
-7.30209e-25
-7.57913e-25
-7.89324e-25
-8.14109e-25
-8.48107e-25
-8.80807e-25
-9.14874e-25
-9.50372e-25
-9.90442e-25
-1.0256e-24
-1.06533e-24
-1.10648e-24
-1.14895e-24
-1.1926e-24
-1.23723e-24
-1.28256e-24
-1.32822e-24
-1.37374e-24
-1.41854e-24
-1.46194e-24
-1.50311e-24
-1.54109e-24
-1.57494e-24
-1.62109e-24
-1.64283e-24
-1.66342e-24
-1.75637e-24
-1.7724e-23
-2.01804e-23
-1.99471e-23
-1.91998e-23
-1.84008e-23
-1.75949e-23
-1.67875e-23
-1.59831e-23
-1.51852e-23
-1.43963e-23
-1.36182e-23
-1.28521e-23
-1.20986e-23
-1.13582e-23
-1.06308e-23
-9.9164e-24
-9.21452e-24
-8.52468e-24
-7.84625e-24
-7.17853e-24
-6.52074e-24
-5.87209e-24
-5.23172e-24
-4.59878e-24
-3.97238e-24
-3.35166e-24
-2.73573e-24
-2.12372e-24
-1.51476e-24
-9.07962e-25
-3.02468e-25
)
;
    }
    outlet
    {
        type            cyclic;
        value           nonuniform List<scalar> 
120
(
2.7271e-27
8.18678e-27
1.36626e-26
1.91527e-26
2.4676e-26
3.02378e-26
3.58646e-26
4.15099e-26
4.72136e-26
5.30393e-26
5.89228e-26
6.48636e-26
7.09719e-26
7.71558e-26
8.34575e-26
8.98863e-26
9.64517e-26
1.03163e-25
1.1003e-25
1.17062e-25
1.24268e-25
1.31659e-25
1.39244e-25
1.46735e-25
1.55046e-25
1.63285e-25
1.71928e-25
1.80467e-25
1.89434e-25
1.9906e-25
2.08573e-25
2.17934e-25
2.28005e-25
2.3839e-25
2.49098e-25
2.59642e-25
2.70702e-25
2.83208e-25
2.93929e-25
3.07834e-25
3.18647e-25
3.3283e-25
3.45583e-25
3.59368e-25
3.7292e-25
3.89714e-25
4.03437e-25
4.19792e-25
4.3358e-25
4.51795e-25
4.69009e-25
4.86785e-25
5.05156e-25
5.24146e-25
5.42858e-25
5.64165e-25
5.85265e-25
6.07141e-25
6.31957e-25
6.53493e-25
6.78061e-25
7.03616e-25
7.30209e-25
7.57913e-25
7.89324e-25
8.14109e-25
8.48107e-25
8.80807e-25
9.14874e-25
9.50372e-25
9.90442e-25
1.0256e-24
1.06533e-24
1.10648e-24
1.14895e-24
1.1926e-24
1.23723e-24
1.28256e-24
1.32822e-24
1.37374e-24
1.41854e-24
1.46194e-24
1.50311e-24
1.54109e-24
1.57494e-24
1.62109e-24
1.64283e-24
1.66342e-24
1.75637e-24
1.7724e-23
2.01804e-23
1.99471e-23
1.91998e-23
1.84008e-23
1.75949e-23
1.67875e-23
1.59831e-23
1.51852e-23
1.43963e-23
1.36182e-23
1.28521e-23
1.20986e-23
1.13582e-23
1.06308e-23
9.9164e-24
9.21452e-24
8.52468e-24
7.84625e-24
7.17853e-24
6.52074e-24
5.87209e-24
5.23172e-24
4.59878e-24
3.97238e-24
3.35166e-24
2.73573e-24
2.12372e-24
1.51476e-24
9.07962e-25
3.02468e-25
)
;
    }
    top
    {
        type            fixedValue;
        value           uniform 0;
    }
    bottom
    {
        type            fixedValue;
        value           uniform 0;
    }
    frontAndBackPlanes
    {
        type            empty;
        value           nonuniform List<scalar> 0();
    }
}


// ************************************************************************* //
