/*--------------------------------*- C++ -*----------------------------------*\
| =========                 |                                                 |
| \\      /  F ield         | OpenFOAM: The Open Source CFD Toolbox           |
|  \\    /   O peration     | Version:  2206                                  |
|   \\  /    A nd           | Website:  www.openfoam.com                      |
|    \\/     M anipulation  |                                                 |
\*---------------------------------------------------------------------------*/
FoamFile
{
    version     2.0;
    format      ascii;
    arch        "LSB;label=32;scalar=64";
    class       surfaceScalarField;
    location    "1320";
    object      phi.a;
}
// * * * * * * * * * * * * * * * * * * * * * * * * * * * * * * * * * * * * * //

dimensions      [0 3 -1 0 0 0 0];

oriented        oriented;

internalField   nonuniform List<scalar> 
119
(
-9.08543e-16
-1.83808e-15
-2.76861e-15
-3.72201e-15
-4.67813e-15
-5.65673e-15
-6.63973e-15
-7.64475e-15
-8.65598e-15
-9.6887e-15
-1.07296e-14
-1.17914e-14
-1.28636e-14
-1.3956e-14
-1.5061e-14
-1.61856e-14
-1.73252e-14
-1.84839e-14
-1.96601e-14
-2.08548e-14
-2.20696e-14
-2.33026e-14
-2.45584e-14
-2.5832e-14
-2.71313e-14
-2.84483e-14
-2.97937e-14
-3.1157e-14
-3.25515e-14
-3.39643e-14
-3.5411e-14
-3.68766e-14
-3.8379e-14
-3.99012e-14
-4.14628e-14
-4.30457e-14
-4.46708e-14
-4.6319e-14
-4.80122e-14
-4.9731e-14
-5.14978e-14
-5.32932e-14
-5.51401e-14
-5.70194e-14
-5.89537e-14
-6.0925e-14
-6.29555e-14
-6.50283e-14
-6.71646e-14
-6.93493e-14
-7.16021e-14
-7.39099e-14
-7.62909e-14
-7.87341e-14
-8.12562e-14
-8.38487e-14
-8.65271e-14
-8.92858e-14
-9.21397e-14
-9.50868e-14
-9.81423e-14
-1.01308e-13
-1.04602e-13
-1.08029e-13
-1.11608e-13
-1.1535e-13
-1.19274e-13
-1.23394e-13
-1.2773e-13
-1.32296e-13
-1.37109e-13
-1.42184e-13
-1.47539e-13
-1.53194e-13
-1.59175e-13
-1.65524e-13
-1.72305e-13
-1.79613e-13
-1.87603e-13
-1.96477e-13
-2.06567e-13
-2.18596e-13
-2.33541e-13
-2.51166e-13
-2.7168e-13
-2.96964e-13
-3.17965e-13
-3.43839e-13
-1.38272e-12
-1.46248e-12
-2.46628e-11
-1.30275e-11
-7.04413e-12
-7.06607e-11
-8.07791e-11
-8.06744e-11
-8.06774e-11
-8.06903e-11
-8.0729e-11
-8.08413e-11
-8.10471e-11
-8.13266e-11
-8.16146e-11
-8.18328e-11
-8.19574e-11
-8.20141e-11
-8.20357e-11
-8.20428e-11
-8.20449e-11
-8.20455e-11
-8.20457e-11
-8.20458e-11
-8.20458e-11
-8.20457e-11
-8.20455e-11
-8.2045e-11
-8.20418e-11
-8.20107e-11
-8.13584e-11
)
;

boundaryField
{
    inlet
    {
        type            cyclic;
        value           nonuniform List<scalar> 
120
(
-2.7271e-27
-8.18677e-27
-1.36592e-26
-1.91527e-26
-2.4676e-26
-3.02377e-26
-3.58463e-26
-4.15099e-26
-4.72378e-26
-5.30394e-26
-5.89229e-26
-6.48972e-26
-7.09721e-26
-7.71558e-26
-8.34575e-26
-8.98863e-26
-9.64517e-26
-1.03163e-25
-1.1003e-25
-1.17062e-25
-1.24268e-25
-1.31659e-25
-1.39245e-25
-1.47035e-25
-1.55047e-25
-1.63284e-25
-1.71755e-25
-1.80466e-25
-1.89432e-25
-1.98663e-25
-2.08159e-25
-2.17932e-25
-2.28005e-25
-2.3839e-25
-2.49101e-25
-2.60147e-25
-2.71222e-25
-2.82673e-25
-2.9448e-25
-3.06681e-25
-3.19239e-25
-3.32212e-25
-3.4558e-25
-3.59371e-25
-3.736e-25
-3.88298e-25
-4.03428e-25
-4.19042e-25
-4.3514e-25
-4.51802e-25
-4.69009e-25
-4.86785e-25
-5.05156e-25
-5.24151e-25
-5.43802e-25
-5.64169e-25
-5.85265e-25
-6.07132e-25
-6.29819e-25
-6.53483e-25
-6.78061e-25
-7.03616e-25
-7.30209e-25
-7.57902e-25
-7.86755e-25
-8.16764e-25
-8.48119e-25
-8.80807e-25
-9.14874e-25
-9.50358e-25
-9.87285e-25
-1.02559e-24
-1.06533e-24
-1.10648e-24
-1.14895e-24
-1.1926e-24
-1.23723e-24
-1.28256e-24
-1.32822e-24
-1.37374e-24
-1.41854e-24
-1.46194e-24
-1.50311e-24
-1.54109e-24
-1.57485e-24
-1.60797e-24
-1.64277e-24
-1.66297e-24
-1.67004e-24
-1.77243e-23
-2.01805e-23
-1.99477e-23
-1.8968e-23
-1.56418e-23
-7.61782e-24
-7.5146e-24
-7.00869e-24
-6.97236e-24
-6.91356e-24
-6.6227e-24
-5.90514e-24
-4.73112e-24
-3.20985e-24
-1.8117e-24
-8.91249e-25
-4.25496e-25
-2.32597e-25
-1.64467e-25
-1.43311e-25
-1.37055e-25
-1.3491e-25
-1.33925e-25
-1.33364e-25
-1.33017e-25
-1.3281e-25
-1.32703e-25
-1.327e-25
-1.32951e-25
-1.3424e-25
-1.37583e-25
)
;
    }
    outlet
    {
        type            cyclic;
        value           nonuniform List<scalar> 
120
(
2.7271e-27
8.18677e-27
1.36592e-26
1.91527e-26
2.4676e-26
3.02377e-26
3.58463e-26
4.15099e-26
4.72378e-26
5.30394e-26
5.89229e-26
6.48972e-26
7.09721e-26
7.71558e-26
8.34575e-26
8.98863e-26
9.64517e-26
1.03163e-25
1.1003e-25
1.17062e-25
1.24268e-25
1.31659e-25
1.39245e-25
1.47035e-25
1.55047e-25
1.63284e-25
1.71755e-25
1.80466e-25
1.89432e-25
1.98663e-25
2.08159e-25
2.17932e-25
2.28005e-25
2.3839e-25
2.49101e-25
2.60147e-25
2.71222e-25
2.82673e-25
2.9448e-25
3.06681e-25
3.19239e-25
3.32212e-25
3.4558e-25
3.59371e-25
3.736e-25
3.88298e-25
4.03428e-25
4.19042e-25
4.3514e-25
4.51802e-25
4.69009e-25
4.86785e-25
5.05156e-25
5.24151e-25
5.43802e-25
5.64169e-25
5.85265e-25
6.07132e-25
6.29819e-25
6.53483e-25
6.78061e-25
7.03616e-25
7.30209e-25
7.57902e-25
7.86755e-25
8.16764e-25
8.48119e-25
8.80807e-25
9.14874e-25
9.50358e-25
9.87285e-25
1.02559e-24
1.06533e-24
1.10648e-24
1.14895e-24
1.1926e-24
1.23723e-24
1.28256e-24
1.32822e-24
1.37374e-24
1.41854e-24
1.46194e-24
1.50311e-24
1.54109e-24
1.57485e-24
1.60797e-24
1.64277e-24
1.66297e-24
1.67004e-24
1.77243e-23
2.01805e-23
1.99477e-23
1.8968e-23
1.56418e-23
7.61782e-24
7.5146e-24
7.00869e-24
6.97236e-24
6.91356e-24
6.6227e-24
5.90514e-24
4.73112e-24
3.20985e-24
1.8117e-24
8.91249e-25
4.25496e-25
2.32597e-25
1.64467e-25
1.43311e-25
1.37055e-25
1.3491e-25
1.33925e-25
1.33364e-25
1.33017e-25
1.3281e-25
1.32703e-25
1.327e-25
1.32951e-25
1.3424e-25
1.37583e-25
)
;
    }
    top
    {
        type            fixedValue;
        value           uniform 0;
    }
    bottom
    {
        type            fixedValue;
        value           uniform 0;
    }
    frontAndBackPlanes
    {
        type            empty;
        value           nonuniform List<scalar> 0();
    }
}


// ************************************************************************* //
