/*--------------------------------*- C++ -*----------------------------------*\
| =========                 |                                                 |
| \\      /  F ield         | OpenFOAM: The Open Source CFD Toolbox           |
|  \\    /   O peration     | Version:  2206                                  |
|   \\  /    A nd           | Website:  www.openfoam.com                      |
|    \\/     M anipulation  |                                                 |
\*---------------------------------------------------------------------------*/
FoamFile
{
    version     2.0;
    format      ascii;
    arch        "LSB;label=32;scalar=64";
    class       volVectorField;
    location    "1320";
    object      U.a;
}
// * * * * * * * * * * * * * * * * * * * * * * * * * * * * * * * * * * * * * //

dimensions      [0 1 -1 0 0 0 0];

internalField   nonuniform List<vector> 
120
(
(9.09032e-21 1.44174e-08 0)
(2.72892e-20 -3.50456e-09 0)
(4.55306e-20 -6.70696e-09 0)
(6.38424e-20 -8.67374e-09 0)
(8.22535e-20 -1.20041e-08 0)
(1.00792e-19 -1.39849e-08 0)
(1.19488e-19 -1.74413e-08 0)
(1.38366e-19 -1.94455e-08 0)
(1.57459e-19 -2.30252e-08 0)
(1.76798e-19 -2.50631e-08 0)
(1.9641e-19 -2.87628e-08 0)
(2.16324e-19 -3.08456e-08 0)
(2.36574e-19 -3.46621e-08 0)
(2.57186e-19 -3.68017e-08 0)
(2.78192e-19 -4.07311e-08 0)
(2.99621e-19 -4.29404e-08 0)
(3.21506e-19 -4.69792e-08 0)
(3.43877e-19 -4.92716e-08 0)
(3.66766e-19 -5.34163e-08 0)
(3.90206e-19 -5.5806e-08 0)
(4.14228e-19 -6.00535e-08 0)
(4.38865e-19 -6.25552e-08 0)
(4.6415e-19 -6.69031e-08 0)
(4.90116e-19 -6.95321e-08 0)
(5.16824e-19 -7.39787e-08 0)
(5.4428e-19 -7.67504e-08 0)
(5.72517e-19 -8.12951e-08 0)
(6.01554e-19 -8.42253e-08 0)
(6.3144e-19 -8.88686e-08 0)
(6.6221e-19 -9.19729e-08 0)
(6.93864e-19 -9.67168e-08 0)
(7.26441e-19 -1.00011e-07 0)
(7.60016e-19 -1.04859e-07 0)
(7.94633e-19 -1.08358e-07 0)
(8.30336e-19 -1.13315e-07 0)
(8.67158e-19 -1.17034e-07 0)
(9.04073e-19 -1.22108e-07 0)
(9.42244e-19 -1.26063e-07 0)
(9.816e-19 -1.31264e-07 0)
(1.02227e-18 -1.3547e-07 0)
(1.06413e-18 -1.40812e-07 0)
(1.10737e-18 -1.45287e-07 0)
(1.15193e-18 -1.50786e-07 0)
(1.1979e-18 -1.55547e-07 0)
(1.24533e-18 -1.61226e-07 0)
(1.29433e-18 -1.66294e-07 0)
(1.34476e-18 -1.72177e-07 0)
(1.39681e-18 -1.77574e-07 0)
(1.45047e-18 -1.83692e-07 0)
(1.50601e-18 -1.89443e-07 0)
(1.56336e-18 -1.95829e-07 0)
(1.62262e-18 -2.01959e-07 0)
(1.68385e-18 -2.0865e-07 0)
(1.74717e-18 -2.15187e-07 0)
(1.81267e-18 -2.22223e-07 0)
(1.88056e-18 -2.29199e-07 0)
(1.95088e-18 -2.36625e-07 0)
(2.02377e-18 -2.44079e-07 0)
(2.0994e-18 -2.51951e-07 0)
(2.17828e-18 -2.59934e-07 0)
(2.2602e-18 -2.68324e-07 0)
(2.34539e-18 -2.76909e-07 0)
(2.43403e-18 -2.85913e-07 0)
(2.52634e-18 -2.95204e-07 0)
(2.62252e-18 -3.04952e-07 0)
(2.72255e-18 -3.15087e-07 0)
(2.82706e-18 -3.2574e-07 0)
(2.93602e-18 -3.36888e-07 0)
(3.04958e-18 -3.48631e-07 0)
(3.16786e-18 -3.60975e-07 0)
(3.29095e-18 -3.73997e-07 0)
(3.41862e-18 -3.87714e-07 0)
(3.55111e-18 -4.02194e-07 0)
(3.68826e-18 -4.17464e-07 0)
(3.82982e-18 -4.33607e-07 0)
(3.97532e-18 -4.50692e-07 0)
(4.1241e-18 -4.68879e-07 0)
(4.2752e-18 -4.88361e-07 0)
(4.42739e-18 -5.09477e-07 0)
(4.57912e-18 -5.32746e-07 0)
(4.72847e-18 -5.58771e-07 0)
(4.87315e-18 -5.88791e-07 0)
(5.01037e-18 -6.25577e-07 0)
(5.13696e-18 -6.7183e-07 0)
(5.2495e-18 -7.23482e-07 0)
(5.35989e-18 -7.85638e-07 0)
(5.4759e-18 -8.64307e-07 0)
(5.54324e-18 -9.02781e-07 0)
(5.5668e-18 -9.09754e-07 0)
(5.9081e-17 1.66152e-06 0)
(6.72683e-17 -0.000317403 0)
(6.64922e-17 -0.000205287 0)
(6.32268e-17 0.000169581 0)
(5.21393e-17 -0.000165364 0)
(2.53927e-17 -0.000224709 0)
(2.50487e-17 -0.000224106 0)
(2.33623e-17 -0.000224086 0)
(2.32412e-17 -0.000224122 0)
(2.30452e-17 -0.000224158 0)
(2.20757e-17 -0.000224336 0)
(1.96838e-17 -0.000224782 0)
(1.57704e-17 -0.00022548 0)
(1.06995e-17 -0.000226334 0)
(6.03901e-18 -0.00022708 0)
(2.97083e-18 -0.000227547 0)
(1.41832e-18 -0.000227772 0)
(7.75325e-19 -0.000227862 0)
(5.48224e-19 -0.000227892 0)
(4.77704e-19 -0.000227901 0)
(4.5685e-19 -0.000227904 0)
(4.49699e-19 -0.000227905 0)
(4.46418e-19 -0.000227905 0)
(4.44547e-19 -0.000227905 0)
(4.43391e-19 -0.000227905 0)
(4.42699e-19 -0.000227905 0)
(4.42344e-19 -0.000227904 0)
(4.42332e-19 -0.000227901 0)
(4.43169e-19 -0.000227886 0)
(4.47468e-19 -0.000227729 0)
(4.58612e-19 -0.000224262 0)
)
;

boundaryField
{
    inlet
    {
        type            cyclic;
    }
    outlet
    {
        type            cyclic;
    }
    top
    {
        type            fixedValue;
        value           uniform (0 0 0);
    }
    bottom
    {
        type            fixedValue;
        value           uniform (0 0 0);
    }
    frontAndBackPlanes
    {
        type            empty;
    }
}


// ************************************************************************* //
