/*--------------------------------*- C++ -*----------------------------------*\
| =========                 |                                                 |
| \\      /  F ield         | OpenFOAM: The Open Source CFD Toolbox           |
|  \\    /   O peration     | Version:  2206                                  |
|   \\  /    A nd           | Website:  www.openfoam.com                      |
|    \\/     M anipulation  |                                                 |
\*---------------------------------------------------------------------------*/
FoamFile
{
    version     2.0;
    format      ascii;
    arch        "LSB;label=32;scalar=64";
    class       volVectorField;
    location    "1320";
    object      U.b;
}
// * * * * * * * * * * * * * * * * * * * * * * * * * * * * * * * * * * * * * //

dimensions      [0 1 -1 0 0 0 0];

internalField   nonuniform List<vector> 
120
(
(9.09033e-21 1.72958e-08 0)
(2.72893e-20 6.03661e-09 0)
(4.5542e-20 9.25432e-09 0)
(6.38424e-20 1.38296e-08 0)
(8.22535e-20 1.71135e-08 0)
(1.00793e-19 2.18425e-08 0)
(1.19549e-19 2.51685e-08 0)
(1.38366e-19 3.00619e-08 0)
(1.57379e-19 3.34436e-08 0)
(1.76798e-19 3.85001e-08 0)
(1.96409e-19 4.19495e-08 0)
(2.16212e-19 4.71664e-08 0)
(2.36573e-19 5.06968e-08 0)
(2.57186e-19 5.60724e-08 0)
(2.78192e-19 5.96989e-08 0)
(2.99621e-19 6.52311e-08 0)
(3.21506e-19 6.89688e-08 0)
(3.43877e-19 7.4655e-08 0)
(3.66766e-19 7.85207e-08 0)
(3.90206e-19 8.436e-08 0)
(4.14228e-19 8.83711e-08 0)
(4.38865e-19 9.43619e-08 0)
(4.64146e-19 9.85361e-08 0)
(4.89118e-19 1.04678e-07 0)
(5.1682e-19 1.09035e-07 0)
(5.44282e-19 1.1533e-07 0)
(5.73093e-19 1.19888e-07 0)
(6.01556e-19 1.26338e-07 0)
(6.31445e-19 1.31118e-07 0)
(6.63532e-19 1.37726e-07 0)
(6.95243e-19 1.42748e-07 0)
(7.26447e-19 1.49519e-07 0)
(7.60016e-19 1.54802e-07 0)
(7.94633e-19 1.61745e-07 0)
(8.30328e-19 1.6731e-07 0)
(8.65475e-19 1.74433e-07 0)
(9.0234e-19 1.803e-07 0)
(9.44026e-19 1.87618e-07 0)
(9.79762e-19 1.93808e-07 0)
(1.02611e-18 2.01336e-07 0)
(1.06216e-18 2.07872e-07 0)
(1.10943e-18 2.15631e-07 0)
(1.15194e-18 2.22538e-07 0)
(1.19789e-18 2.30554e-07 0)
(1.24307e-18 2.3786e-07 0)
(1.29905e-18 2.46166e-07 0)
(1.34479e-18 2.53899e-07 0)
(1.39931e-18 2.62532e-07 0)
(1.44527e-18 2.70727e-07 0)
(1.50598e-18 2.79728e-07 0)
(1.56336e-18 2.88422e-07 0)
(1.62262e-18 2.97838e-07 0)
(1.68385e-18 3.07069e-07 0)
(1.74715e-18 3.16951e-07 0)
(1.80953e-18 3.26761e-07 0)
(1.88055e-18 3.37164e-07 0)
(1.95088e-18 3.47601e-07 0)
(2.0238e-18 3.58593e-07 0)
(2.10652e-18 3.69721e-07 0)
(2.17831e-18 3.81385e-07 0)
(2.2602e-18 3.9329e-07 0)
(2.34539e-18 4.0574e-07 0)
(2.43403e-18 4.18543e-07 0)
(2.52638e-18 4.31934e-07 0)
(2.63108e-18 4.45803e-07 0)
(2.7137e-18 4.60333e-07 0)
(2.82702e-18 4.75478e-07 0)
(2.93602e-18 4.91384e-07 0)
(3.04958e-18 5.08045e-07 0)
(3.16791e-18 5.25575e-07 0)
(3.30147e-18 5.4399e-07 0)
(3.41867e-18 5.63381e-07 0)
(3.55111e-18 5.83775e-07 0)
(3.68826e-18 6.05261e-07 0)
(3.82982e-18 6.27899e-07 0)
(3.97532e-18 6.51835e-07 0)
(4.1241e-18 6.77244e-07 0)
(4.2752e-18 7.04435e-07 0)
(4.42739e-18 7.33882e-07 0)
(4.57912e-18 7.66209e-07 0)
(4.72847e-18 8.02497e-07 0)
(4.87314e-18 8.4488e-07 0)
(5.01037e-18 8.96216e-07 0)
(5.13696e-18 9.56397e-07 0)
(5.24979e-18 1.02777e-06 0)
(5.40362e-18 1.11345e-06 0)
(5.4761e-18 1.17992e-06 0)
(5.54474e-18 1.23067e-06 0)
(5.85457e-18 3.52484e-06 0)
(5.908e-17 1.23334e-05 0)
(6.72681e-17 -0.000306335 0)
(6.64904e-17 -1.3387e-05 0)
(6.39994e-17 4.9135e-05 0)
(6.13359e-17 5.63264e-06 0)
(5.86496e-17 -3.90123e-06 0)
(5.59582e-17 -9.57703e-07 0)
(5.3277e-17 1.58719e-07 0)
(5.06174e-17 8.49233e-08 0)
(4.79878e-17 1.86204e-09 0)
(4.5394e-17 -5.44791e-09 0)
(4.28402e-17 -8.28296e-10 0)
(4.03286e-17 3.40602e-10 0)
(3.78605e-17 1.10228e-10 0)
(3.54361e-17 -1.48773e-11 0)
(3.30547e-17 -1.05865e-11 0)
(3.07151e-17 2.20401e-13 0)
(2.84156e-17 1.38656e-12 0)
(2.61542e-17 4.70626e-13 0)
(2.39284e-17 -1.7612e-13 0)
(2.17358e-17 -4.76421e-13 0)
(1.95736e-17 -5.51856e-13 0)
(1.74391e-17 -4.21998e-13 0)
(1.53293e-17 -7.23787e-14 0)
(1.32413e-17 2.91663e-13 0)
(1.11722e-17 4.75967e-13 0)
(9.11911e-18 4.23424e-13 0)
(7.07908e-18 1.41184e-13 0)
(5.04919e-18 -8.54509e-14 0)
(3.02654e-18 -1.99111e-13 0)
(1.00823e-18 -1.7118e-13 0)
)
;

boundaryField
{
    inlet
    {
        type            cyclic;
    }
    outlet
    {
        type            cyclic;
    }
    top
    {
        type            fixedValue;
        value           uniform (0 0 0);
    }
    bottom
    {
        type            fixedValue;
        value           uniform (0 0 0);
    }
    frontAndBackPlanes
    {
        type            empty;
    }
}


// ************************************************************************* //
