/*--------------------------------*- C++ -*----------------------------------*\
| =========                 |                                                 |
| \\      /  F ield         | OpenFOAM: The Open Source CFD Toolbox           |
|  \\    /   O peration     | Version:  v2006                                 |
|   \\  /    A nd           | Website:  www.openfoam.com                      |
|    \\/     M anipulation  |                                                 |
\*---------------------------------------------------------------------------*/
FoamFile
{
    version     2.0;
    format      ascii;
    class       volScalarField;
    location    "200";
    object      p;
}
// * * * * * * * * * * * * * * * * * * * * * * * * * * * * * * * * * * * * * //

dimensions      [1 -1 -2 0 0 0 0];


internalField   nonuniform List<scalar> 
120
(
20.4499
15.7879
11.1235
6.4564
1.78631
-2.88712
-7.56429
-12.2457
-16.9318
-21.6233
-26.3201
-31.0211
-35.725
-40.4438
-45.2887
-50.2028
-55.1124
-60.0191
-64.9246
-69.8298
-74.7349
-79.6399
-84.5449
-89.4499
-94.3549
-99.2599
-104.165
-109.07
-113.975
-118.88
-123.785
-128.69
-133.595
-138.5
-143.405
-148.31
-153.215
-158.12
-163.025
-167.93
-172.835
-177.74
-182.645
-187.55
-192.455
-197.36
-202.265
-207.17
-212.075
-216.98
-221.885
-226.79
-231.695
-236.6
-241.505
-246.41
-251.315
-256.22
-261.125
-266.03
-270.935
-275.84
-280.745
-285.65
-290.555
-295.46
-300.365
-305.27
-310.175
-315.08
-319.985
-324.89
-329.795
-334.7
-339.605
-344.51
-349.415
-354.32
-359.225
-364.13
-369.035
-373.94
-378.845
-383.75
-388.655
-393.56
-398.465
-403.37
-408.275
-413.18
-418.085
-422.99
-427.895
-432.8
-437.705
-442.61
-447.515
-452.42
-457.325
-462.23
-467.135
-472.04
-476.945
-481.851
-486.776
-491.591
-496.263
-500.924
-505.583
-510.243
-514.902
-519.562
-524.222
-528.882
-533.541
-538.201
-542.861
-547.521
-552.18
-556.84
)
;

boundaryField
{
    inlet
    {
        type            cyclic;
    }
    outlet
    {
        type            cyclic;
    }
    top
    {
        type            calculated;
        value           uniform -559.17;
    }
    bottom
    {
        type            calculated;
        value           uniform 22.7798;
    }
    frontAndBackPlanes
    {
        type            empty;
    }
}


// ************************************************************************* //
