/*--------------------------------*- C++ -*----------------------------------*\
| =========                 |                                                 |
| \\      /  F ield         | OpenFOAM: The Open Source CFD Toolbox           |
|  \\    /   O peration     | Version:  v2006                                 |
|   \\  /    A nd           | Website:  www.openfoam.com                      |
|    \\/     M anipulation  |                                                 |
\*---------------------------------------------------------------------------*/
FoamFile
{
    version     2.0;
    format      ascii;
    class       volScalarField;
    location    "200";
    object      p_rbgh;
}
// * * * * * * * * * * * * * * * * * * * * * * * * * * * * * * * * * * * * * //

dimensions      [1 -1 -2 0 0 0 0];


internalField   nonuniform List<scalar> 
120
(
22.7798
22.7775
22.7729
22.7655
22.7552
22.7415
22.7241
22.7025
22.6761
22.6443
22.6073
22.566
22.5219
22.4628
22.2777
22.0234
21.7735
21.5266
21.2808
21.0353
20.79
20.5447
20.2995
20.0542
19.809
19.5637
19.3185
19.0732
18.828
18.5827
18.3375
18.0922
17.847
17.6017
17.3565
17.1112
16.866
16.6207
16.3755
16.1302
15.885
15.6397
15.3945
15.1492
14.904
14.6587
14.4135
14.1682
13.923
13.6777
13.4325
13.1872
12.942
12.6967
12.4515
12.2062
11.961
11.7157
11.4705
11.2252
10.98
10.7347
10.4895
10.2442
9.99898
9.75373
9.50848
9.26323
9.01798
8.77273
8.52748
8.28223
8.03698
7.79173
7.54648
7.30123
7.05598
6.81073
6.56548
6.32023
6.07498
5.82973
5.58448
5.33923
5.09398
4.84873
4.60348
4.35823
4.11298
3.86773
3.62248
3.37723
3.13198
2.88673
2.64148
2.39623
2.15098
1.90573
1.66049
1.41522
1.17002
0.924742
0.679355
0.432919
0.167729
0.0122981
-8.67331e-06
-0.000585406
-0.00013333
2.81206e-05
1.22607e-05
-1.57994e-06
-1.03971e-06
9.87059e-08
1.00481e-07
9.47432e-09
3.78324e-09
9.98114e-09
9.10101e-09
5.26863e-09
)
;

boundaryField
{
    inlet
    {
        type            cyclic;
    }
    outlet
    {
        type            cyclic;
    }
    top
    {
        type            fixedValue;
        value           uniform 0;
    }
    bottom
    {
        type            fixedFluxPressure;
        gradient        uniform 0;
        value           uniform 22.7798;
    }
    frontAndBackPlanes
    {
        type            empty;
    }
}


// ************************************************************************* //
