/*--------------------------------*- C++ -*----------------------------------*\
| =========                 |                                                 |
| \\      /  F ield         | OpenFOAM: The Open Source CFD Toolbox           |
|  \\    /   O peration     | Version:  v2006                                 |
|   \\  /    A nd           | Website:  www.openfoam.com                      |
|    \\/     M anipulation  |                                                 |
\*---------------------------------------------------------------------------*/
FoamFile
{
    version     2.0;
    format      ascii;
    class       surfaceScalarField;
    location    "200";
    object      phia;
}
// * * * * * * * * * * * * * * * * * * * * * * * * * * * * * * * * * * * * * //

dimensions      [0 3 -1 0 0 0 0];
oriented        oriented;


internalField   nonuniform List<scalar> 
119
(
-6.29253e-15
-1.32124e-14
-2.09269e-14
-2.9617e-14
-3.9456e-14
-5.0626e-14
-6.33753e-14
-7.81251e-14
-9.50946e-14
-1.12693e-13
-1.27579e-13
-1.39646e-13
-1.95014e-13
-8.37611e-13
-1.73962e-12
-2.09999e-12
-2.23767e-12
-2.2922e-12
-2.3124e-12
-2.3196e-12
-2.3221e-12
-2.32293e-12
-2.32319e-12
-2.32327e-12
-2.32329e-12
-2.3233e-12
-2.3233e-12
-2.3233e-12
-2.3233e-12
-2.3233e-12
-2.3233e-12
-2.3233e-12
-2.3233e-12
-2.3233e-12
-2.3233e-12
-2.32331e-12
-2.32331e-12
-2.32331e-12
-2.32331e-12
-2.32331e-12
-2.32331e-12
-2.32331e-12
-2.32331e-12
-2.32331e-12
-2.32331e-12
-2.32331e-12
-2.32331e-12
-2.32331e-12
-2.32331e-12
-2.32331e-12
-2.32331e-12
-2.32331e-12
-2.32331e-12
-2.32331e-12
-2.32331e-12
-2.32331e-12
-2.32331e-12
-2.32331e-12
-2.32331e-12
-2.32331e-12
-2.32331e-12
-2.32331e-12
-2.32331e-12
-2.32331e-12
-2.32331e-12
-2.32331e-12
-2.32331e-12
-2.32331e-12
-2.32331e-12
-2.32331e-12
-2.32331e-12
-2.32331e-12
-2.32331e-12
-2.32331e-12
-2.32331e-12
-2.32331e-12
-2.32331e-12
-2.32331e-12
-2.32331e-12
-2.32331e-12
-2.32331e-12
-2.32331e-12
-2.32331e-12
-2.32331e-12
-2.32331e-12
-2.32331e-12
-2.32331e-12
-2.32331e-12
-2.32331e-12
-2.32331e-12
-2.32331e-12
-2.32331e-12
-2.32332e-12
-2.32331e-12
-2.32332e-12
-2.3233e-12
-2.32334e-12
-2.32334e-12
-2.32297e-12
-2.32511e-12
-2.31812e-12
-2.33279e-12
-2.36561e-12
-1.92282e-12
-9.432e-12
-4.43605e-11
2.19996e-11
-8.20421e-11
-8.23815e-11
-8.22816e-11
-8.22744e-11
-8.22767e-11
-8.22768e-11
-8.22766e-11
-8.22766e-11
-8.22766e-11
-8.22765e-11
-8.22565e-11
-8.21697e-11
)
;

boundaryField
{
    inlet
    {
        type            cyclic;
        value           nonuniform List<scalar> 
120
(
1.99109e-28
5.95388e-28
9.87229e-28
1.40268e-27
1.80808e-27
2.20041e-27
2.576e-27
2.99468e-27
3.38395e-27
3.66815e-27
3.90167e-27
4.07398e-27
4.1794e-27
4.84217e-27
1.77658e-25
1.77511e-25
1.4586e-25
1.84696e-25
3.30759e-25
6.36192e-25
1.1755e-24
2.03115e-24
3.26385e-24
4.89555e-24
2.09412e-24
-6.04571e-25
-3.52566e-24
-4.63701e-24
-6.62263e-24
-9.71639e-24
-9.27508e-24
-5.19364e-24
-1.92081e-24
9.33612e-25
3.74601e-24
6.82385e-24
5.57484e-24
-8.20552e-26
-8.78544e-25
-6.63506e-24
-3.36587e-24
-5.5345e-24
-3.74681e-24
-2.81505e-24
-2.6894e-24
-8.08216e-24
-4.63342e-24
-1.63352e-24
6.02795e-24
4.42735e-24
3.29908e-24
2.74856e-24
2.82737e-24
3.49237e-24
4.62542e-24
1.24924e-24
-2.22299e-24
-6.17669e-24
-1.09858e-23
-7.40271e-24
-4.9925e-24
-3.66921e-24
-3.29699e-24
-3.69261e-24
-4.71047e-24
3.32209e-24
1.52913e-24
-6.06612e-25
-3.2779e-24
-6.70258e-24
-1.11308e-23
-7.20412e-24
-4.38418e-24
-2.49305e-24
-1.32552e-24
-6.66911e-25
-3.40639e-25
-2.3451e-25
-3.12655e-25
-6.25101e-25
-1.32213e-24
-2.66958e-24
-5.04917e-24
-8.92321e-24
-1.47526e-23
-2.29698e-23
-1.47525e-23
-8.92293e-24
-5.04838e-24
-2.6672e-24
-1.31511e-24
-6.0535e-25
-2.60393e-25
-1.0483e-25
-3.95697e-26
-1.4033e-26
-4.68552e-27
-1.47616e-27
-4.39735e-28
-1.24135e-28
-3.32762e-29
-8.46374e-30
-2.07791e-30
-4.81533e-31
-1.10971e-31
-8.23019e-32
-6.96495e-32
-5.46436e-32
-4.26125e-32
-3.30612e-32
-2.55449e-32
-1.96376e-32
-1.5007e-32
-1.13776e-32
-8.52595e-33
-6.26945e-33
-4.45855e-33
-2.969e-33
-1.6961e-33
-5.4794e-34
)
;
    }
    outlet
    {
        type            cyclic;
        value           nonuniform List<scalar> 
120
(
-1.99109e-28
-5.95388e-28
-9.87229e-28
-1.40268e-27
-1.80808e-27
-2.20041e-27
-2.576e-27
-2.99468e-27
-3.38395e-27
-3.66815e-27
-3.90167e-27
-4.07398e-27
-4.1794e-27
-4.84217e-27
-1.77658e-25
-1.77511e-25
-1.4586e-25
-1.84696e-25
-3.30759e-25
-6.36192e-25
-1.1755e-24
-2.03115e-24
-3.26385e-24
-4.89555e-24
-2.09412e-24
6.04571e-25
3.52566e-24
4.63701e-24
6.62263e-24
9.71639e-24
9.27508e-24
5.19364e-24
1.92081e-24
-9.33612e-25
-3.74601e-24
-6.82385e-24
-5.57484e-24
8.20552e-26
8.78544e-25
6.63506e-24
3.36587e-24
5.5345e-24
3.74681e-24
2.81505e-24
2.6894e-24
8.08216e-24
4.63342e-24
1.63352e-24
-6.02795e-24
-4.42735e-24
-3.29908e-24
-2.74856e-24
-2.82737e-24
-3.49237e-24
-4.62542e-24
-1.24924e-24
2.22299e-24
6.17669e-24
1.09858e-23
7.40271e-24
4.9925e-24
3.66921e-24
3.29699e-24
3.69261e-24
4.71047e-24
-3.32209e-24
-1.52913e-24
6.06612e-25
3.2779e-24
6.70258e-24
1.11308e-23
7.20412e-24
4.38418e-24
2.49305e-24
1.32552e-24
6.66911e-25
3.40639e-25
2.3451e-25
3.12655e-25
6.25101e-25
1.32213e-24
2.66958e-24
5.04917e-24
8.92321e-24
1.47526e-23
2.29698e-23
1.47525e-23
8.92293e-24
5.04838e-24
2.6672e-24
1.31511e-24
6.0535e-25
2.60393e-25
1.0483e-25
3.95697e-26
1.4033e-26
4.68552e-27
1.47616e-27
4.39735e-28
1.24135e-28
3.32762e-29
8.46374e-30
2.07791e-30
4.81533e-31
1.10971e-31
8.23019e-32
6.96495e-32
5.46436e-32
4.26125e-32
3.30612e-32
2.55449e-32
1.96376e-32
1.5007e-32
1.13776e-32
8.52595e-33
6.26945e-33
4.45855e-33
2.969e-33
1.6961e-33
5.4794e-34
)
;
    }
    top
    {
        type            fixedValue;
        value           uniform 0;
    }
    bottom
    {
        type            fixedValue;
        value           uniform 0;
    }
    frontAndBackPlanes
    {
        type            empty;
        value           nonuniform List<scalar> 0();
    }
}


// ************************************************************************* //
