/*--------------------------------*- C++ -*----------------------------------*\
| =========                 |                                                 |
| \\      /  F ield         | OpenFOAM: The Open Source CFD Toolbox           |
|  \\    /   O peration     | Version:  v2006                                 |
|   \\  /    A nd           | Website:  www.openfoam.com                      |
|    \\/     M anipulation  |                                                 |
\*---------------------------------------------------------------------------*/
FoamFile
{
    version     2.0;
    format      ascii;
    class       surfaceScalarField;
    location    "200";
    object      phib;
}
// * * * * * * * * * * * * * * * * * * * * * * * * * * * * * * * * * * * * * //

dimensions      [0 3 -1 0 0 0 0];
oriented        oriented;


internalField   nonuniform List<scalar> 
119
(
9.12335e-15
1.91284e-14
3.02486e-14
4.27351e-14
5.68216e-14
7.27498e-14
9.08425e-14
1.11655e-13
1.3543e-13
1.59827e-13
1.8004e-13
1.9566e-13
2.70157e-13
1.05838e-12
1.92893e-12
2.18406e-12
2.27094e-12
2.30465e-12
2.31681e-12
2.32111e-12
2.32261e-12
2.3231e-12
2.32325e-12
2.3233e-12
2.32331e-12
2.32332e-12
2.32332e-12
2.32332e-12
2.32332e-12
2.32331e-12
2.32331e-12
2.32331e-12
2.32331e-12
2.32331e-12
2.32331e-12
2.32331e-12
2.32331e-12
2.32331e-12
2.32331e-12
2.32331e-12
2.32331e-12
2.32331e-12
2.32331e-12
2.32331e-12
2.32331e-12
2.32331e-12
2.32331e-12
2.32331e-12
2.32331e-12
2.32331e-12
2.32331e-12
2.32331e-12
2.32331e-12
2.32331e-12
2.32331e-12
2.32331e-12
2.32331e-12
2.32331e-12
2.32331e-12
2.32331e-12
2.32331e-12
2.32331e-12
2.32331e-12
2.32331e-12
2.32331e-12
2.32331e-12
2.32331e-12
2.32331e-12
2.32331e-12
2.32331e-12
2.32331e-12
2.32331e-12
2.32331e-12
2.32331e-12
2.32331e-12
2.32331e-12
2.32331e-12
2.32331e-12
2.32332e-12
2.32332e-12
2.32332e-12
2.32332e-12
2.32332e-12
2.32332e-12
2.32332e-12
2.32332e-12
2.32332e-12
2.32332e-12
2.32332e-12
2.32332e-12
2.32332e-12
2.32332e-12
2.32332e-12
2.32332e-12
2.32333e-12
2.32331e-12
2.32334e-12
2.32334e-12
2.32306e-12
2.3245e-12
2.32047e-12
2.32764e-12
2.33977e-12
2.02669e-12
5.74424e-12
5.68075e-12
-8.22428e-16
2.90958e-16
7.95142e-18
1.0321e-17
1.18958e-17
1.45569e-17
1.64647e-17
1.93766e-17
2.03944e-17
2.20676e-17
2.1723e-17
2.21987e-17
2.04029e-17
)
;

boundaryField
{
    inlet
    {
        type            cyclic;
        value           nonuniform List<scalar> 
120
(
1.99109e-28
5.95273e-28
9.62541e-28
1.40257e-27
1.80807e-27
2.19964e-27
2.41047e-27
2.99509e-27
3.63546e-27
3.66938e-27
3.90353e-27
4.45716e-27
4.18814e-27
5.74464e-27
1.79826e-25
1.7751e-25
1.45863e-25
1.84701e-25
3.30765e-25
6.36201e-25
1.17551e-24
2.03116e-24
3.26387e-24
4.8737e-24
2.09412e-24
-6.04577e-25
-3.51474e-24
-4.63704e-24
-6.62267e-24
-9.69456e-24
-9.25325e-24
-5.19367e-24
-1.92083e-24
9.33609e-25
3.74601e-24
6.802e-24
5.55298e-24
-6.01863e-26
-9.00412e-25
-6.59135e-24
-3.38776e-24
-5.51266e-24
-3.74684e-24
-2.81509e-24
-2.71129e-24
-8.03845e-24
-4.63343e-24
-1.61166e-24
5.98422e-24
4.42736e-24
3.29911e-24
2.74859e-24
2.82739e-24
3.49238e-24
4.60356e-24
1.24924e-24
-2.223e-24
-6.17672e-24
-1.09421e-23
-7.40275e-24
-4.99254e-24
-3.66925e-24
-3.29702e-24
-3.69263e-24
-4.66676e-24
3.27835e-24
1.52911e-24
-6.06633e-25
-3.27793e-24
-6.70262e-24
-1.10871e-23
-7.20416e-24
-4.38422e-24
-2.49308e-24
-1.32554e-24
-6.66924e-25
-3.40648e-25
-2.34517e-25
-3.12665e-25
-6.25116e-25
-1.32216e-24
-2.66962e-24
-5.04923e-24
-8.92329e-24
-1.47527e-23
-2.28825e-23
-1.47526e-23
-8.92301e-24
-5.04844e-24
-2.66724e-24
-1.31513e-24
-6.05364e-25
-2.60401e-25
-1.04833e-25
-3.95713e-26
-1.40336e-26
-4.68577e-27
-1.47625e-27
-4.39764e-28
-1.24143e-28
-3.32788e-29
-8.46446e-30
-2.0781e-30
-4.81579e-31
-1.10981e-31
-8.23021e-32
-6.96299e-32
-5.46351e-32
-4.2597e-32
-3.30632e-32
-2.55457e-32
-1.96388e-32
-1.50077e-32
-1.13782e-32
-8.52643e-33
-6.26981e-33
-4.45874e-33
-2.96922e-33
-1.69627e-33
-5.48015e-34
)
;
    }
    outlet
    {
        type            cyclic;
        value           nonuniform List<scalar> 
120
(
-1.99109e-28
-5.95273e-28
-9.62541e-28
-1.40257e-27
-1.80807e-27
-2.19964e-27
-2.41047e-27
-2.99509e-27
-3.63546e-27
-3.66938e-27
-3.90353e-27
-4.45716e-27
-4.18814e-27
-5.74464e-27
-1.79826e-25
-1.7751e-25
-1.45863e-25
-1.84701e-25
-3.30765e-25
-6.36201e-25
-1.17551e-24
-2.03116e-24
-3.26387e-24
-4.8737e-24
-2.09412e-24
6.04577e-25
3.51474e-24
4.63704e-24
6.62267e-24
9.69456e-24
9.25325e-24
5.19367e-24
1.92083e-24
-9.33609e-25
-3.74601e-24
-6.802e-24
-5.55298e-24
6.01863e-26
9.00412e-25
6.59135e-24
3.38776e-24
5.51266e-24
3.74684e-24
2.81509e-24
2.71129e-24
8.03845e-24
4.63343e-24
1.61166e-24
-5.98422e-24
-4.42736e-24
-3.29911e-24
-2.74859e-24
-2.82739e-24
-3.49238e-24
-4.60356e-24
-1.24924e-24
2.223e-24
6.17672e-24
1.09421e-23
7.40275e-24
4.99254e-24
3.66925e-24
3.29702e-24
3.69263e-24
4.66676e-24
-3.27835e-24
-1.52911e-24
6.06633e-25
3.27793e-24
6.70262e-24
1.10871e-23
7.20416e-24
4.38422e-24
2.49308e-24
1.32554e-24
6.66924e-25
3.40648e-25
2.34517e-25
3.12665e-25
6.25116e-25
1.32216e-24
2.66962e-24
5.04923e-24
8.92329e-24
1.47527e-23
2.28825e-23
1.47526e-23
8.92301e-24
5.04844e-24
2.66724e-24
1.31513e-24
6.05364e-25
2.60401e-25
1.04833e-25
3.95713e-26
1.40336e-26
4.68577e-27
1.47625e-27
4.39764e-28
1.24143e-28
3.32788e-29
8.46446e-30
2.0781e-30
4.81579e-31
1.10981e-31
8.23021e-32
6.96299e-32
5.46351e-32
4.2597e-32
3.30632e-32
2.55457e-32
1.96388e-32
1.50077e-32
1.13782e-32
8.52643e-33
6.26981e-33
4.45874e-33
2.96922e-33
1.69627e-33
5.48015e-34
)
;
    }
    top
    {
        type            fixedValue;
        value           uniform 0;
    }
    bottom
    {
        type            fixedValue;
        value           uniform 0;
    }
    frontAndBackPlanes
    {
        type            empty;
        value           nonuniform List<scalar> 0();
    }
}


// ************************************************************************* //
