/*--------------------------------*- C++ -*----------------------------------*\
| =========                 |                                                 |
| \\      /  F ield         | OpenFOAM: The Open Source CFD Toolbox           |
|  \\    /   O peration     | Version:  v2006                                 |
|   \\  /    A nd           | Website:  www.openfoam.com                      |
|    \\/     M anipulation  |                                                 |
\*---------------------------------------------------------------------------*/
FoamFile
{
    version     2.0;
    format      ascii;
    class       volTensorField;
    location    "200";
    object      Taua;
}
// * * * * * * * * * * * * * * * * * * * * * * * * * * * * * * * * * * * * * //

dimensions      [1 -1 -2 0 0 0 0];


internalField   nonuniform List<tensor> 
120
(
(0.0122954 0 0 -2.78074e-15 -0.0245908 0 0 0 0.0122954)
(0.0133855 0 0 -2.75842e-15 -0.0267709 0 0 0 0.0133855)
(0.0149948 0 0 -2.82553e-15 -0.0299895 0 0 0 0.0149948)
(0.016895 0 0 -2.87297e-15 -0.0337901 0 0 0 0.016895)
(0.0191057 0 0 -2.79206e-15 -0.0382114 0 0 0 0.0191057)
(0.0216712 0 0 -2.68773e-15 -0.0433425 0 0 0 0.0216712)
(0.0248578 0 0 -2.77992e-15 -0.0497156 0 0 0 0.0248578)
(0.028996 0 0 -2.82785e-15 -0.057992 0 0 0 0.028996)
(0.0330616 0 0 -2.35717e-15 -0.0661232 0 0 0 0.0330616)
(0.0337177 0 0 -1.812e-15 -0.0674353 0 0 0 0.0337177)
(0.0286496 0 0 -1.42038e-15 -0.0572991 0 0 0 0.0286496)
(0.0279051 0 0 -9.72053e-16 -0.0558103 0 0 0 0.0279051)
(0.0161322 0 0 -5.2929e-16 -0.0322644 0 0 0 0.0161322)
(0.00376874 0 0 -4.73564e-16 -0.00753747 0 0 0 0.00376874)
(4.0616e-07 0 0 -3.24743e-19 -8.1232e-07 0 0 0 4.0616e-07)
(-1.72764e-06 0 0 5.72329e-20 3.45527e-06 0 0 0 -1.72764e-06)
(5.64035e-07 0 0 -1.27099e-20 -1.12807e-06 0 0 0 5.64035e-07)
(2.88479e-07 0 0 -3.24868e-19 -5.76958e-07 0 0 0 2.88479e-07)
(7.52541e-08 0 0 -7.91233e-19 -1.50508e-07 0 0 0 7.52541e-08)
(2.89324e-08 0 0 -1.47901e-18 -5.78648e-08 0 0 0 2.89324e-08)
(1.09707e-08 0 0 -2.44156e-18 -2.19414e-08 0 0 0 1.09707e-08)
(3.69586e-09 0 0 -3.6548e-18 -7.39173e-09 0 0 0 3.69586e-09)
(1.21203e-09 0 0 -5.01279e-18 -2.42405e-09 0 0 0 1.21203e-09)
(3.80793e-10 0 0 2.04704e-18 -7.61586e-10 0 0 0 3.80793e-10)
(1.12884e-10 0 0 9.62523e-18 -2.25767e-10 0 0 0 1.12884e-10)
(3.11761e-11 0 0 9.83462e-18 -6.23523e-11 0 0 0 3.11761e-11)
(9.51602e-12 0 0 7.05677e-18 -1.9032e-11 0 0 0 9.51602e-12)
(2.38588e-12 0 0 5.41971e-18 -4.77177e-12 0 0 0 2.38588e-12)
(1.11389e-12 0 0 8.88891e-18 -2.22779e-12 0 0 0 1.11389e-12)
(3.90756e-13 0 0 4.64177e-18 -7.81512e-13 0 0 0 3.90756e-13)
(1.14774e-12 0 0 -7.91481e-18 -2.29549e-12 0 0 0 1.14774e-12)
(3.08282e-13 0 0 -1.287e-17 -6.16563e-13 0 0 0 3.08282e-13)
(3.1259e-13 0 0 -1.07227e-17 -6.2518e-13 0 0 0 3.1259e-13)
(4.93687e-14 0 0 -9.91694e-18 -9.87375e-14 0 0 0 4.93687e-14)
(7.68459e-13 0 0 -1.03079e-17 -1.53692e-12 0 0 0 7.68459e-13)
(5.11093e-13 1.17803e-21 0 -3.20046e-18 -1.02219e-12 0 0 0 5.11093e-13)
(6.88992e-13 0 0 1.20853e-17 -1.37798e-12 0 0 0 6.88992e-13)
(5.0707e-13 0 0 1.12934e-17 -1.01414e-12 0 0 0 5.0707e-13)
(7.06729e-13 0 0 1.14678e-17 -1.41346e-12 0 0 0 7.06729e-13)
(4.16449e-13 0 0 4.35282e-18 -8.32898e-13 0 0 0 4.16449e-13)
(3.82525e-13 0 0 -1.92599e-18 -7.65051e-13 0 0 0 3.82525e-13)
(2.67126e-13 0 0 6.66637e-19 -5.34251e-13 0 0 0 2.67126e-13)
(4.20406e-13 0 0 -4.75903e-18 -8.40813e-13 0 0 0 4.20406e-13)
(3.34854e-13 0 0 -1.85046e-18 -6.69708e-13 0 0 0 3.34854e-13)
(3.58065e-13 0 0 9.21745e-18 -7.16131e-13 0 0 0 3.58065e-13)
(2.87485e-13 0 0 3.40203e-18 -5.7497e-13 0 0 0 2.87485e-13)
(2.98008e-13 0 0 -1.12851e-17 -5.96017e-13 0 0 0 2.98008e-13)
(2.13916e-13 0 0 -1.86574e-17 -4.27832e-13 0 0 0 2.13916e-13)
(1.81635e-13 0 0 -1.06065e-17 -3.63269e-13 0 0 0 1.81635e-13)
(1.41294e-13 0 0 4.77551e-18 -2.82587e-13 0 0 0 1.41294e-13)
(1.53521e-13 0 0 2.93788e-18 -3.07042e-13 0 0 0 1.53521e-13)
(1.27982e-13 0 0 8.25495e-19 -2.55965e-13 0 0 0 1.27982e-13)
(1.20628e-13 0 0 -1.30166e-18 -2.41257e-13 0 0 0 1.20628e-13)
(9.93337e-14 0 0 -3.14659e-18 -1.98667e-13 0 0 0 9.93337e-14)
(8.91355e-14 0 0 3.92546e-18 -1.78271e-13 0 0 0 8.91355e-14)
(6.66033e-14 0 0 1.19847e-17 -1.33207e-13 0 0 0 6.66033e-14)
(4.99096e-14 0 0 1.29954e-17 -9.98192e-14 0 0 0 4.99096e-14)
(3.84853e-14 0 0 1.53349e-17 -7.69706e-14 0 0 0 3.84853e-14)
(3.43719e-14 -1.17803e-21 0 2.14553e-18 -6.87439e-14 0 0 0 3.43719e-14)
(3.11244e-14 0 0 -1.04883e-17 -6.22489e-14 0 0 0 3.11244e-14)
(2.49068e-14 0 0 -6.53362e-18 -4.98135e-14 0 0 0 2.49068e-14)
(2.45639e-14 0 0 -2.96714e-18 -4.91277e-14 0 0 0 2.45639e-14)
(1.58237e-14 0 0 4.09396e-20 -3.16475e-14 0 0 0 1.58237e-14)
(1.03186e-14 0 0 2.4736e-18 -2.06373e-14 0 0 0 1.03186e-14)
(-9.54354e-15 0 0 -1.22757e-17 1.90871e-14 0 0 0 -9.54354e-15)
(-3.15403e-15 0 0 -1.09193e-17 6.30805e-15 0 0 0 -3.15403e-15)
(-1.12214e-14 0 0 6.87524e-18 2.24427e-14 0 0 0 -1.12214e-14)
(1.55551e-14 0 0 8.4123e-18 -3.11101e-14 0 0 0 1.55551e-14)
(7.88624e-16 0 0 1.06679e-17 -1.57725e-15 0 0 0 7.88624e-16)
(4.21742e-14 0 0 1.37426e-17 -8.43485e-14 0 0 0 4.21742e-14)
(1.53933e-14 0 0 8.77691e-19 -3.07866e-14 0 0 0 1.53933e-14)
(3.26311e-14 0 0 -1.18066e-17 -6.52622e-14 0 0 0 3.26311e-14)
(-5.17898e-14 0 0 -8.24438e-18 1.0358e-13 0 0 0 -5.17898e-14)
(1.56186e-14 0 0 -5.35266e-18 -3.12372e-14 0 0 0 1.56186e-14)
(-2.79773e-14 0 0 -3.19574e-18 5.59546e-14 0 0 0 -2.79773e-14)
(1.09166e-13 0 0 -1.72354e-18 -2.18332e-13 0 0 0 1.09166e-13)
(1.8695e-14 0 0 -7.56702e-19 -3.739e-14 0 0 0 1.8695e-14)
(2.29821e-13 0 0 -4.89714e-20 -4.59642e-13 0 0 0 2.29821e-13)
(1.11788e-13 0 0 6.83534e-19 -2.23576e-13 0 0 0 1.11788e-13)
(2.05843e-13 0 0 1.76658e-18 -4.11686e-13 0 0 0 2.05843e-13)
(-1.48884e-13 0 0 3.57783e-18 2.97768e-13 0 0 0 -1.48884e-13)
(1.25095e-13 0 0 6.52231e-18 -2.50191e-13 0 0 0 1.25095e-13)
(-3.36539e-14 0 0 1.09439e-17 6.73079e-14 0 0 0 -3.36539e-14)
(3.64188e-13 0 0 1.69811e-17 -7.28376e-13 0 0 0 3.64188e-13)
(3.54497e-15 0 0 2.45816e-17 -7.08993e-15 0 0 0 3.54497e-15)
(6.29699e-13 0 0 -2.02926e-22 -1.2594e-12 0 0 0 6.29699e-13)
(3.29748e-13 0 0 -2.45821e-17 -6.59495e-13 0 0 0 3.29748e-13)
(4.86827e-13 0 0 -1.69822e-17 -9.73653e-13 0 0 0 4.86827e-13)
(-4.6875e-13 0 0 -1.09475e-17 9.37499e-13 0 0 0 -4.6875e-13)
(3.23649e-13 0 0 -6.53322e-18 -6.47298e-13 0 0 0 3.23649e-13)
(-1.35496e-12 0 0 -3.60823e-18 2.70992e-12 0 0 0 -1.35496e-12)
(2.74161e-12 0 0 -1.84575e-18 -5.48322e-12 0 0 0 2.74161e-12)
(-1.51386e-12 0 0 -8.75909e-19 3.02772e-12 0 0 0 -1.51386e-12)
(4.10391e-11 0 0 -3.86441e-19 -8.20782e-11 0 0 0 4.10391e-11)
(-2.58512e-10 0 0 -1.58894e-19 5.17024e-10 0 0 0 -2.58512e-10)
(3.82394e-10 0 0 -6.10472e-20 -7.64788e-10 0 0 0 3.82394e-10)
(1.02271e-09 0 0 -2.19745e-20 -2.04543e-09 0 0 0 1.02271e-09)
(-2.27159e-10 0 0 -7.43008e-21 4.54319e-10 0 0 0 -2.27159e-10)
(-2.33846e-08 0 0 -2.36606e-21 4.67691e-08 0 0 0 -2.33846e-08)
(2.32749e-08 0 0 -7.11325e-22 -4.65498e-08 0 0 0 2.32749e-08)
(4.00946e-07 0 0 -2.02364e-22 -8.01892e-07 0 0 0 4.00946e-07)
(-1.2868e-06 0 0 -5.46683e-23 2.57361e-06 0 0 0 -1.2868e-06)
(-2.97299e-06 0 0 -1.39197e-23 5.94597e-06 0 0 0 -2.97299e-06)
(2.27051e-05 0 0 -3.41645e-24 -4.54101e-05 0 0 0 2.27051e-05)
(3.51249e-05 0 0 -7.40616e-25 -7.02498e-05 0 0 0 3.51249e-05)
(-7.04144e-06 0 0 -3.28266e-26 1.40829e-05 0 0 0 -7.04144e-06)
(-2.66202e-09 0 0 -6.59629e-30 5.32404e-09 0 0 0 -2.66202e-09)
(4.61197e-10 0 0 -6.573e-31 -9.22395e-10 0 0 0 4.61197e-10)
(1.8088e-17 0 0 -2.43241e-38 -3.6176e-17 0 0 0 1.8088e-17)
(-8.03354e-26 0 0 -5.2112e-45 1.60671e-25 0 0 0 -8.03354e-26)
(-1.05018e-31 0 0 -1.04993e-50 2.10037e-31 0 0 0 -1.05018e-31)
(3.94119e-38 0 0 -2.70859e-56 -7.88238e-38 0 0 0 3.94119e-38)
(3.12738e-41 0 0 -2.25984e-59 -6.25475e-41 0 0 0 3.12738e-41)
(-1.8605e-43 0 0 -1.442e-60 3.72101e-43 0 0 0 -1.8605e-43)
(-1.46465e-44 0 0 -7.96118e-62 2.92931e-44 0 0 0 -1.46465e-44)
(1.73685e-47 0 0 -3.71005e-63 -3.4737e-47 0 0 0 1.73685e-47)
(-1.16125e-46 0 0 -1.41462e-64 2.3225e-46 0 0 0 -1.16125e-46)
(-9.91551e-48 0 0 -4.1971e-66 1.9831e-47 0 0 0 -9.91551e-48)
(-1.71942e-48 0 0 -8.80296e-68 3.43884e-48 0 0 0 -1.71942e-48)
(-2.03687e-47 0 0 -1.00122e-69 4.07374e-47 0 0 0 -2.03687e-47)
)
;

boundaryField
{
    inlet
    {
        type            cyclic;
    }
    outlet
    {
        type            cyclic;
    }
    top
    {
        type            extrapolatedCalculated;
        value           uniform (-4.06985e-47 0 0 -9.77891e-70 8.13971e-47 0 0 0 -4.06985e-47);
    }
    bottom
    {
        type            extrapolatedCalculated;
        value           uniform (0.0119415 0 0 -2.78753e-15 -0.023883 0 0 0 0.0119415);
    }
    frontAndBackPlanes
    {
        type            empty;
    }
}


// ************************************************************************* //
