/*--------------------------------*- C++ -*----------------------------------*\
| =========                 |                                                 |
| \\      /  F ield         | OpenFOAM: The Open Source CFD Toolbox           |
|  \\    /   O peration     | Version:  v2006                                 |
|   \\  /    A nd           | Website:  www.openfoam.com                      |
|    \\/     M anipulation  |                                                 |
\*---------------------------------------------------------------------------*/
FoamFile
{
    version     2.0;
    format      ascii;
    class       volTensorField;
    location    "200";
    object      Taub;
}
// * * * * * * * * * * * * * * * * * * * * * * * * * * * * * * * * * * * * * //

dimensions      [1 -1 -2 0 0 0 0];


internalField   nonuniform List<tensor> 
120
(
(-8.68113e-07 0 0 -1.31311e-19 1.73623e-06 0 0 0 -8.68113e-07)
(-9.30027e-07 0 0 -1.26152e-19 1.86005e-06 0 0 0 -9.30027e-07)
(-1.02962e-06 0 0 -1.33351e-19 2.05924e-06 0 0 0 -1.02962e-06)
(-1.15378e-06 0 0 -1.39611e-19 2.30757e-06 0 0 0 -1.15378e-06)
(-1.30099e-06 0 0 -1.31551e-19 2.60197e-06 0 0 0 -1.30099e-06)
(-1.4727e-06 0 0 -9.93727e-20 2.9454e-06 0 0 0 -1.4727e-06)
(-1.67279e-06 0 0 -1.31145e-19 3.34559e-06 0 0 0 -1.67279e-06)
(-1.89685e-06 0 0 -2.01829e-19 3.79369e-06 0 0 0 -1.89685e-06)
(-2.0778e-06 0 0 -1.11009e-19 4.1556e-06 0 0 0 -2.0778e-06)
(-2.06068e-06 0 0 -4.40927e-20 4.12135e-06 0 0 0 -2.06068e-06)
(-1.78621e-06 0 0 -1.2943e-19 3.57242e-06 0 0 0 -1.78621e-06)
(-3.77041e-06 0 0 -4.66972e-20 7.54082e-06 0 0 0 -3.77041e-06)
(-2.53323e-05 0 0 -2.10778e-19 5.06646e-05 0 0 0 -2.53323e-05)
(0.00011584 0 0 -2.86569e-17 -0.00023168 0 0 0 0.00011584)
(-0.000101434 0 0 -2.68307e-17 0.000202867 0 0 0 -0.000101434)
(-0.000214728 0 0 5.17443e-18 0.000429455 0 0 0 -0.000214728)
(2.75238e-05 0 0 -1.08485e-18 -5.50476e-05 0 0 0 2.75238e-05)
(1.6936e-05 0 0 -2.77936e-17 -3.38719e-05 0 0 0 1.6936e-05)
(3.54447e-06 0 0 -6.77697e-17 -7.08894e-06 0 0 0 3.54447e-06)
(1.46092e-06 0 0 -1.2673e-16 -2.92183e-06 0 0 0 1.46092e-06)
(5.88013e-07 0 0 -2.09237e-16 -1.17603e-06 0 0 0 5.88013e-07)
(1.99125e-07 0 0 -3.13223e-16 -3.9825e-07 0 0 0 1.99125e-07)
(6.66285e-08 0 0 -4.2633e-16 -1.33257e-07 0 0 0 6.66285e-08)
(2.14005e-08 0 0 1.7544e-16 -4.28011e-08 0 0 0 2.14005e-08)
(6.445e-09 0 0 8.21639e-16 -1.289e-08 0 0 0 6.445e-09)
(1.78917e-09 0 0 8.41225e-16 -3.57834e-09 0 0 0 1.78917e-09)
(6.07166e-10 0 0 6.04795e-16 -1.21433e-09 0 0 0 6.07166e-10)
(1.75298e-10 0 0 4.66131e-16 -3.50597e-10 0 0 0 1.75298e-10)
(1.13362e-10 0 0 7.58533e-16 -2.26724e-10 0 0 0 1.13362e-10)
(5.31098e-11 0 0 3.94537e-16 -1.0622e-10 0 0 0 5.31098e-11)
(1.10524e-10 0 0 -6.75049e-16 -2.21048e-10 0 0 0 1.10524e-10)
(1.29478e-11 0 0 -1.09973e-15 -2.58955e-11 0 0 0 1.29478e-11)
(-8.354e-12 0 0 -9.18978e-16 1.6708e-11 0 0 0 -8.354e-12)
(-4.43168e-11 0 0 -8.4992e-16 8.86336e-11 0 0 0 -4.43168e-11)
(2.13914e-11 0 0 -8.80148e-16 -4.27829e-11 0 0 0 2.13914e-11)
(3.98161e-12 -1.00962e-19 0 -2.71012e-16 -7.96322e-12 0 0 0 3.98161e-12)
(2.60305e-11 0 0 1.0292e-15 -5.20611e-11 0 0 0 2.60305e-11)
(1.29615e-11 0 0 9.67888e-16 -2.59231e-11 0 0 0 1.29615e-11)
(3.1697e-11 0 0 9.79552e-16 -6.33939e-11 0 0 0 3.1697e-11)
(3.0431e-12 0 0 3.73055e-16 -6.0862e-12 0 0 0 3.0431e-12)
(-2.69564e-12 0 0 -1.61783e-16 5.39129e-12 0 0 0 -2.69564e-12)
(-1.33411e-11 0 0 5.38551e-17 2.66823e-11 0 0 0 -1.33411e-11)
(3.81871e-12 0 0 -4.04585e-16 -7.63742e-12 0 0 0 3.81871e-12)
(8.40534e-13 0 0 -1.55312e-16 -1.68107e-12 0 0 0 8.40534e-13)
(7.63743e-12 0 0 7.83407e-16 -1.52749e-11 0 0 0 7.63743e-12)
(4.91898e-12 0 0 2.88284e-16 -9.83796e-12 0 0 0 4.91898e-12)
(8.40167e-12 0 0 -9.63898e-16 -1.68033e-11 0 0 0 8.40167e-12)
(2.21433e-12 0 0 -1.59245e-15 -4.42866e-12 0 0 0 2.21433e-12)
(3.35999e-13 0 0 -9.0574e-16 -6.71997e-13 0 0 0 3.35999e-13)
(-2.00509e-12 0 0 4.02717e-16 4.01017e-12 0 0 0 -2.00509e-12)
(9.49333e-13 0 0 2.51785e-16 -1.89867e-12 0 0 0 9.49333e-13)
(6.35178e-13 0 0 7.07478e-17 -1.27036e-12 0 0 0 6.35178e-13)
(1.79294e-12 0 0 -1.11555e-16 -3.58587e-12 0 0 0 1.79294e-12)
(1.28654e-12 0 0 -2.66392e-16 -2.57308e-12 0 0 0 1.28654e-12)
(1.36347e-12 0 0 3.36429e-16 -2.72694e-12 0 0 0 1.36347e-12)
(-4.51521e-14 0 0 1.02386e-15 9.03043e-14 0 0 0 -4.51521e-14)
(-1.12589e-12 0 0 1.11375e-15 2.25178e-12 0 0 0 -1.12589e-12)
(-1.78918e-12 0 0 1.3077e-15 3.57836e-12 0 0 0 -1.78918e-12)
(-1.80375e-12 1.00962e-19 0 1.83882e-16 3.60749e-12 0 0 0 -1.80375e-12)
(-1.8097e-12 0 0 -8.92323e-16 3.61941e-12 0 0 0 -1.8097e-12)
(-2.25638e-12 0 0 -5.59955e-16 4.51275e-12 0 0 0 -2.25638e-12)
(-2.39761e-12 0 0 -2.54297e-16 4.79523e-12 0 0 0 -2.39761e-12)
(-3.58385e-12 0 0 3.50568e-18 7.1677e-12 0 0 0 -3.58385e-12)
(-4.67695e-12 0 0 2.05435e-16 9.35389e-12 0 0 0 -4.67695e-12)
(-7.20715e-12 0 0 -1.04552e-15 1.44143e-11 0 0 0 -7.20715e-12)
(-7.36437e-12 0 0 -9.29264e-16 1.47287e-11 0 0 0 -7.36437e-12)
(-8.94715e-12 0 0 5.82674e-16 1.78943e-11 0 0 0 -8.94715e-12)
(-7.48241e-12 0 0 7.20966e-16 1.49648e-11 0 0 0 -7.48241e-12)
(-1.01727e-11 0 0 9.14283e-16 2.03453e-11 0 0 0 -1.01727e-11)
(-8.19161e-12 0 0 1.17123e-15 1.63832e-11 0 0 0 -8.19161e-12)
(-1.31837e-11 0 0 7.52223e-17 2.63675e-11 0 0 0 -1.31837e-11)
(-1.45782e-11 0 0 -1.00531e-15 2.91564e-11 0 0 0 -1.45782e-11)
(-2.5267e-11 0 0 -7.06574e-16 5.05341e-11 0 0 0 -2.5267e-11)
(-2.15024e-11 0 0 -4.58745e-16 4.30048e-11 0 0 0 -2.15024e-11)
(-2.76799e-11 0 0 -2.73889e-16 5.53598e-11 0 0 0 -2.76799e-11)
(-1.73673e-11 0 0 -1.47715e-16 3.47347e-11 0 0 0 -1.73673e-11)
(-2.85951e-11 0 0 -6.4853e-17 5.71903e-11 0 0 0 -2.85951e-11)
(-1.33827e-11 0 0 -4.19696e-18 2.67654e-11 0 0 0 -1.33827e-11)
(-3.05301e-11 0 0 5.85825e-17 6.10602e-11 0 0 0 -3.05301e-11)
(-2.95518e-11 0 0 1.51405e-16 5.91035e-11 0 0 0 -2.95518e-11)
(-6.84922e-11 0 0 3.06637e-16 1.36984e-10 0 0 0 -6.84922e-11)
(-4.63406e-11 0 0 5.5899e-16 9.26811e-11 0 0 0 -4.63406e-11)
(-6.10913e-11 0 0 9.37934e-16 1.22183e-10 0 0 0 -6.10913e-11)
(-2.40279e-11 0 0 1.45534e-15 4.80558e-11 0 0 0 -2.40279e-11)
(-5.67657e-11 0 0 2.09361e-15 1.13531e-10 0 0 0 -5.67657e-11)
(-1.32288e-12 0 0 -1.66419e-20 2.64575e-12 0 0 0 -1.32288e-12)
(-3.54691e-11 0 0 -2.09366e-15 7.09383e-11 0 0 0 -3.54691e-11)
(-3.14776e-11 0 0 -1.45544e-15 6.29551e-11 0 0 0 -3.14776e-11)
(-1.25106e-10 0 0 -9.38248e-16 2.50212e-10 0 0 0 -1.25106e-10)
(-4.75581e-11 0 0 -5.59925e-16 9.51161e-11 0 0 0 -4.75581e-11)
(-1.82829e-10 0 0 -3.09243e-16 3.65658e-10 0 0 0 -1.82829e-10)
(2.10314e-10 0 0 -1.5819e-16 -4.20627e-10 0 0 0 2.10314e-10)
(-2.20473e-10 0 0 -7.50702e-17 4.40945e-10 0 0 0 -2.20473e-10)
(3.74649e-09 0 0 -3.31203e-17 -7.49298e-09 0 0 0 3.74649e-09)
(-2.29504e-08 0 0 -1.36182e-17 4.59008e-08 0 0 0 -2.29504e-08)
(3.47922e-08 0 0 -5.23217e-18 -6.95844e-08 0 0 0 3.47922e-08)
(8.37244e-08 0 0 -1.88337e-18 -1.67449e-07 0 0 0 8.37244e-08)
(-1.23786e-08 0 0 -6.36818e-19 2.47573e-08 0 0 0 -1.23786e-08)
(-1.9946e-06 0 0 -2.02791e-19 3.98919e-06 0 0 0 -1.9946e-06)
(1.79559e-06 0 0 -6.09662e-20 -3.59118e-06 0 0 0 1.79559e-06)
(3.52297e-05 0 0 -1.73468e-20 -7.04593e-05 0 0 0 3.52297e-05)
(-0.000111696 0 0 -4.68292e-21 0.000223391 0 0 0 -0.000111696)
(-0.000252363 0 0 -1.19494e-21 0.000504727 0 0 0 -0.000252363)
(0.00196646 0 0 -2.93808e-22 -0.00393292 0 0 0 0.00196646)
(0.00193027 0 0 -6.18822e-23 -0.00386054 0 0 0 0.00193027)
(-0.00148554 0 0 -4.32047e-24 0.00297109 0 0 0 -0.00148554)
(-0.000784239 0 0 -1.84455e-24 0.00156848 0 0 0 -0.000784239)
(0.000178566 0 0 -1.802e-24 -0.000357133 0 0 0 0.000178566)
(0.00010242 0 0 -1.43795e-24 -0.00020484 0 0 0 0.00010242)
(-1.76108e-05 0 0 -1.13661e-24 3.52216e-05 0 0 0 -1.76108e-05)
(-8.59709e-06 0 0 -8.94844e-25 1.71942e-05 0 0 0 -8.59709e-06)
(1.04599e-06 0 0 -7.02446e-25 -2.09199e-06 0 0 0 1.04599e-06)
(7.4081e-07 0 0 -5.5064e-25 -1.48162e-06 0 0 0 7.4081e-07)
(-5.32034e-08 0 0 -4.32034e-25 1.06407e-07 0 0 0 -5.32034e-08)
(-6.08225e-08 0 0 -3.40518e-25 1.21645e-07 0 0 0 -6.08225e-08)
(1.49159e-09 0 0 -2.71145e-25 -2.98317e-09 0 0 0 1.49159e-09)
(4.93801e-09 0 0 -2.20012e-25 -9.87602e-09 0 0 0 4.93801e-09)
(6.97147e-11 0 0 -1.84142e-25 -1.39429e-10 0 0 0 6.97147e-11)
(-3.97578e-10 0 0 -1.61394e-25 7.95155e-10 0 0 0 -3.97578e-10)
(8.65408e-10 0 0 -1.496e-25 -1.73082e-09 0 0 0 8.65408e-10)
)
;

boundaryField
{
    inlet
    {
        type            cyclic;
    }
    outlet
    {
        type            cyclic;
    }
    top
    {
        type            extrapolatedCalculated;
        value           uniform (1.77797e-09 0 0 -1.46119e-25 -3.55595e-09 0 0 0 1.77797e-09);
    }
    bottom
    {
        type            extrapolatedCalculated;
        value           uniform (-8.49366e-07 0 0 -1.3165e-19 1.69873e-06 0 0 0 -8.49366e-07);
    }
    frontAndBackPlanes
    {
        type            empty;
    }
}


// ************************************************************************* //
