/*--------------------------------*- C++ -*----------------------------------*\
| =========                 |                                                 |
| \\      /  F ield         | OpenFOAM: The Open Source CFD Toolbox           |
|  \\    /   O peration     | Version:  v2006                                 |
|   \\  /    A nd           | Website:  www.openfoam.com                      |
|    \\/     M anipulation  |                                                 |
\*---------------------------------------------------------------------------*/
FoamFile
{
    version     2.0;
    format      ascii;
    class       volVectorField;
    location    "200";
    object      Ua;
}
// * * * * * * * * * * * * * * * * * * * * * * * * * * * * * * * * * * * * * //

dimensions      [0 1 -1 0 0 0 0];


internalField   nonuniform List<vector> 
120
(
(-6.63698e-22 -8.52963e-09 0)
(-1.98463e-21 -2.66001e-08 0)
(-3.29076e-21 -4.67738e-08 0)
(-4.67561e-21 -6.94423e-08 0)
(-6.02692e-21 -9.50453e-08 0)
(-7.33471e-21 -1.2403e-07 0)
(-8.58666e-21 -1.56963e-07 0)
(-9.98226e-21 -1.95052e-07 0)
(-1.12798e-20 -2.39809e-07 0)
(-1.22272e-20 -2.89514e-07 0)
(-1.30056e-20 -3.36145e-07 0)
(-1.35799e-20 -3.7137e-07 0)
(-1.39313e-20 -4.15874e-07 0)
(-1.61406e-20 -6.05507e-07 0)
(-5.92195e-19 -1.42217e-05 0)
(-5.91703e-19 -2.7651e-06 0)
(-4.862e-19 -4.623e-06 0)
(-6.15655e-19 -5.95388e-06 0)
(-1.10253e-18 -6.26489e-06 0)
(-2.12064e-18 -6.3833e-06 0)
(-3.91833e-18 -6.43014e-06 0)
(-6.7705e-18 -6.44598e-06 0)
(-1.08795e-17 -6.45125e-06 0)
(-1.63185e-17 -6.4529e-06 0)
(-6.9804e-18 -6.45343e-06 0)
(2.01524e-18 -6.45355e-06 0)
(1.17522e-17 -6.45361e-06 0)
(1.54567e-17 -6.4536e-06 0)
(2.20754e-17 -6.45362e-06 0)
(3.2388e-17 -6.45361e-06 0)
(3.09169e-17 -6.45362e-06 0)
(1.73121e-17 -6.45362e-06 0)
(6.4027e-18 -6.45363e-06 0)
(-3.11204e-18 -6.45362e-06 0)
(-1.24867e-17 -6.45363e-06 0)
(-2.27462e-17 -6.45362e-06 0)
(-1.85828e-17 -6.45363e-06 0)
(2.73517e-19 -6.45363e-06 0)
(2.92848e-18 -6.45363e-06 0)
(2.21169e-17 -6.45363e-06 0)
(1.12196e-17 -6.45363e-06 0)
(1.84483e-17 -6.45363e-06 0)
(1.24894e-17 -6.45364e-06 0)
(9.38351e-18 -6.45364e-06 0)
(8.96467e-18 -6.45364e-06 0)
(2.69405e-17 -6.45364e-06 0)
(1.54447e-17 -6.45364e-06 0)
(5.44507e-18 -6.45364e-06 0)
(-2.00932e-17 -6.45364e-06 0)
(-1.47578e-17 -6.45364e-06 0)
(-1.09969e-17 -6.45364e-06 0)
(-9.16187e-18 -6.45364e-06 0)
(-9.42457e-18 -6.45364e-06 0)
(-1.16412e-17 -6.45364e-06 0)
(-1.54181e-17 -6.45364e-06 0)
(-4.16415e-18 -6.45364e-06 0)
(7.40995e-18 -6.45364e-06 0)
(2.0589e-17 -6.45364e-06 0)
(3.66193e-17 -6.45364e-06 0)
(2.46757e-17 -6.45364e-06 0)
(1.66417e-17 -6.45364e-06 0)
(1.22307e-17 -6.45364e-06 0)
(1.099e-17 -6.45364e-06 0)
(1.23087e-17 -6.45364e-06 0)
(1.57016e-17 -6.45364e-06 0)
(-1.10736e-17 -6.45364e-06 0)
(-5.09711e-18 -6.45364e-06 0)
(2.02204e-18 -6.45364e-06 0)
(1.09263e-17 -6.45364e-06 0)
(2.23419e-17 -6.45364e-06 0)
(3.71027e-17 -6.45364e-06 0)
(2.40137e-17 -6.45364e-06 0)
(1.46139e-17 -6.45364e-06 0)
(8.31016e-18 -6.45364e-06 0)
(4.41839e-18 -6.45364e-06 0)
(2.22304e-18 -6.45364e-06 0)
(1.13546e-18 -6.45364e-06 0)
(7.81698e-19 -6.45364e-06 0)
(1.04218e-18 -6.45365e-06 0)
(2.08367e-18 -6.45364e-06 0)
(4.40711e-18 -6.45365e-06 0)
(8.89858e-18 -6.45364e-06 0)
(1.68306e-17 -6.45365e-06 0)
(2.9744e-17 -6.45364e-06 0)
(4.91754e-17 -6.45365e-06 0)
(7.65661e-17 -6.45364e-06 0)
(4.9175e-17 -6.45365e-06 0)
(2.97431e-17 -6.45364e-06 0)
(1.68279e-17 -6.45366e-06 0)
(8.89066e-18 -6.45364e-06 0)
(4.38369e-18 -6.45366e-06 0)
(2.01783e-18 -6.45363e-06 0)
(8.67978e-19 -6.45367e-06 0)
(3.49432e-19 -6.45363e-06 0)
(1.31899e-19 -6.45391e-06 0)
(4.67766e-20 -6.45215e-06 0)
(1.56184e-20 -6.45609e-06 0)
(4.92054e-21 -6.45799e-06 0)
(1.46578e-21 -6.4548e-06 0)
(4.13782e-22 -6.32437e-06 0)
(1.10921e-22 -6.58779e-06 0)
(2.82125e-23 -8.61616e-06 0)
(6.92637e-24 7.55768e-07 0)
(1.60511e-24 8.43236e-06 0)
(3.69905e-25 -0.000129963 0)
(2.7434e-25 -0.000180909 0)
(2.32165e-25 -4.13258e-05 0)
(1.82145e-25 -6.92909e-05 0)
(1.42042e-25 -0.000231032 0)
(1.10204e-25 -0.000229783 0)
(8.51495e-26 -0.000228401 0)
(6.54586e-26 -0.00022844 0)
(5.00233e-26 -0.000228554 0)
(3.79255e-26 -0.000228555 0)
(2.84198e-26 -0.000228546 0)
(2.08982e-26 -0.000228545 0)
(1.48618e-26 -0.000228546 0)
(9.89667e-27 -0.000228518 0)
(5.65366e-27 -0.000228481 0)
(1.82647e-27 -0.000228045 0)
)
;

boundaryField
{
    inlet
    {
        type            cyclic;
    }
    outlet
    {
        type            cyclic;
    }
    top
    {
        type            fixedValue;
        value           uniform (0 0 0);
    }
    bottom
    {
        type            fixedValue;
        value           uniform (0 0 0);
    }
    frontAndBackPlanes
    {
        type            empty;
    }
}


// ************************************************************************* //
