/*--------------------------------*- C++ -*----------------------------------*\
| =========                 |                                                 |
| \\      /  F ield         | OpenFOAM: The Open Source CFD Toolbox           |
|  \\    /   O peration     | Version:  v2006                                 |
|   \\  /    A nd           | Website:  www.openfoam.com                      |
|    \\/     M anipulation  |                                                 |
\*---------------------------------------------------------------------------*/
FoamFile
{
    version     2.0;
    format      ascii;
    class       volVectorField;
    location    "200";
    object      Ub;
}
// * * * * * * * * * * * * * * * * * * * * * * * * * * * * * * * * * * * * * //

dimensions      [0 1 -1 0 0 0 0];


internalField   nonuniform List<vector> 
120
(
(-6.63695e-22 1.28458e-08 0)
(-1.98424e-21 3.96716e-08 0)
(-3.20847e-21 6.91281e-08 0)
(-4.67522e-21 1.02004e-07 0)
(-6.0269e-21 1.39005e-07 0)
(-7.33212e-21 1.80831e-07 0)
(-8.0349e-21 2.28281e-07 0)
(-9.98362e-21 2.82293e-07 0)
(-1.21182e-20 3.43408e-07 0)
(-1.22313e-20 4.08503e-07 0)
(-1.30118e-20 4.68694e-07 0)
(-1.48572e-20 5.17222e-07 0)
(-1.39605e-20 6.98492e-07 0)
(-1.91488e-20 2.06457e-06 0)
(-5.99418e-19 -6.40133e-06 0)
(-5.91701e-19 8.55818e-06 0)
(-4.86209e-19 7.69256e-06 0)
(-6.15668e-19 6.73392e-06 0)
(-1.10255e-18 6.56586e-06 0)
(-2.12067e-18 6.49778e-06 0)
(-3.91837e-18 6.46848e-06 0)
(-6.77054e-18 6.45858e-06 0)
(-1.08796e-17 6.4552e-06 0)
(-1.62457e-17 6.45414e-06 0)
(-6.9804e-18 6.45378e-06 0)
(2.01526e-18 6.45371e-06 0)
(1.17158e-17 6.45366e-06 0)
(1.54568e-17 6.45367e-06 0)
(2.20756e-17 6.45365e-06 0)
(3.23152e-17 6.45366e-06 0)
(3.08442e-17 6.45364e-06 0)
(1.73122e-17 6.45365e-06 0)
(6.40276e-18 6.45364e-06 0)
(-3.11203e-18 6.45365e-06 0)
(-1.24867e-17 6.45365e-06 0)
(-2.26733e-17 6.45365e-06 0)
(-1.85099e-17 6.45364e-06 0)
(2.00621e-19 6.45365e-06 0)
(3.00137e-18 6.45364e-06 0)
(2.19712e-17 6.45365e-06 0)
(1.12925e-17 6.45364e-06 0)
(1.83755e-17 6.45365e-06 0)
(1.24895e-17 6.45364e-06 0)
(9.38363e-18 6.45365e-06 0)
(9.03765e-18 6.45364e-06 0)
(2.67948e-17 6.45364e-06 0)
(1.54448e-17 6.45364e-06 0)
(5.3722e-18 6.45364e-06 0)
(-1.99474e-17 6.45364e-06 0)
(-1.47579e-17 6.45364e-06 0)
(-1.0997e-17 6.45364e-06 0)
(-9.16195e-18 6.45364e-06 0)
(-9.42465e-18 6.45364e-06 0)
(-1.16413e-17 6.45364e-06 0)
(-1.53452e-17 6.45364e-06 0)
(-4.16413e-18 6.45364e-06 0)
(7.41001e-18 6.45364e-06 0)
(2.05891e-17 6.45364e-06 0)
(3.64737e-17 6.45364e-06 0)
(2.46758e-17 6.45364e-06 0)
(1.66418e-17 6.45364e-06 0)
(1.22308e-17 6.45364e-06 0)
(1.09901e-17 6.45364e-06 0)
(1.23088e-17 6.45364e-06 0)
(1.55559e-17 6.45364e-06 0)
(-1.09278e-17 6.45365e-06 0)
(-5.09704e-18 6.45365e-06 0)
(2.02211e-18 6.45365e-06 0)
(1.09264e-17 6.45365e-06 0)
(2.23421e-17 6.45365e-06 0)
(3.6957e-17 6.45365e-06 0)
(2.40139e-17 6.45365e-06 0)
(1.46141e-17 6.45365e-06 0)
(8.31025e-18 6.45365e-06 0)
(4.41846e-18 6.45365e-06 0)
(2.22308e-18 6.45365e-06 0)
(1.13549e-18 6.45365e-06 0)
(7.81723e-19 6.45365e-06 0)
(1.04222e-18 6.45365e-06 0)
(2.08372e-18 6.45365e-06 0)
(4.40719e-18 6.45365e-06 0)
(8.89872e-18 6.45366e-06 0)
(1.68308e-17 6.45366e-06 0)
(2.97443e-17 6.45366e-06 0)
(4.91757e-17 6.45366e-06 0)
(7.62749e-17 6.45367e-06 0)
(4.91753e-17 6.45366e-06 0)
(2.97434e-17 6.45367e-06 0)
(1.68281e-17 6.45366e-06 0)
(8.8908e-18 6.45368e-06 0)
(4.38377e-18 6.45366e-06 0)
(2.01788e-18 6.45369e-06 0)
(8.68003e-19 6.45365e-06 0)
(3.49444e-19 6.4537e-06 0)
(1.31904e-19 6.4534e-06 0)
(4.67787e-20 6.45524e-06 0)
(1.56192e-20 6.45108e-06 0)
(4.92083e-21 6.44965e-06 0)
(1.46588e-21 6.4519e-06 0)
(4.13811e-22 6.58264e-06 0)
(1.10929e-22 6.33219e-06 0)
(2.82149e-23 4.23332e-06 0)
(6.927e-24 1.37741e-05 0)
(1.60526e-24 2.10926e-05 0)
(3.69937e-25 -0.000117886 0)
(2.7434e-25 -0.000103453 0)
(2.321e-25 2.42951e-05 0)
(1.82117e-25 1.41779e-05 0)
(1.4199e-25 -2.49271e-06 0)
(1.10211e-25 -1.18697e-06 0)
(8.51525e-26 1.49235e-07 0)
(6.54628e-26 1.02759e-07 0)
(5.00258e-26 -7.68413e-09 0)
(3.79274e-26 -8.37668e-09 0)
(2.84214e-26 2.9737e-10 0)
(2.08994e-26 7.47833e-10 0)
(1.48625e-26 7.36036e-11 0)
(9.89741e-27 7.03824e-12 0)
(5.65424e-27 6.31451e-11 0)
(1.82672e-27 6.66823e-11 0)
)
;

boundaryField
{
    inlet
    {
        type            cyclic;
    }
    outlet
    {
        type            cyclic;
    }
    top
    {
        type            fixedValue;
        value           uniform (0 0 0);
    }
    bottom
    {
        type            fixedValue;
        value           uniform (0 0 0);
    }
    frontAndBackPlanes
    {
        type            empty;
    }
}


// ************************************************************************* //
