/*--------------------------------*- C++ -*----------------------------------*\
| =========                 |                                                 |
| \\      /  F ield         | OpenFOAM: The Open Source CFD Toolbox           |
|  \\    /   O peration     | Version:  v2006                                 |
|   \\  /    A nd           | Website:  www.openfoam.com                      |
|    \\/     M anipulation  |                                                 |
\*---------------------------------------------------------------------------*/
FoamFile
{
    version     2.0;
    format      ascii;
    class       volScalarField;
    location    "1240";
    object      p;
}
// * * * * * * * * * * * * * * * * * * * * * * * * * * * * * * * * * * * * * //

dimensions      [1 -1 -2 0 0 0 0];


internalField   nonuniform List<scalar> 
120
(
2.20875
-2.45139
-7.11191
-11.7728
-16.4341
-21.0959
-25.758
-30.4205
-35.0835
-39.7469
-44.4107
-49.075
-53.7397
-58.4048
-63.0704
-67.7365
-72.403
-77.07
-81.7375
-86.4055
-91.074
-95.743
-100.412
-105.082
-109.753
-114.424
-119.096
-123.768
-128.441
-133.114
-137.788
-142.462
-147.137
-151.813
-156.489
-161.166
-165.844
-170.522
-175.201
-179.881
-184.561
-189.242
-193.924
-198.607
-203.29
-207.974
-212.659
-217.345
-222.031
-226.719
-231.407
-236.097
-240.787
-245.478
-250.17
-254.863
-259.558
-264.253
-268.95
-273.647
-278.346
-283.046
-287.748
-292.45
-297.155
-301.86
-306.568
-311.277
-315.987
-320.7
-325.415
-330.131
-334.85
-339.571
-344.294
-349.021
-353.75
-358.483
-363.221
-367.964
-372.716
-377.474
-382.236
-386.991
-391.892
-396.807
-401.717
-406.624
-411.529
-416.437
-421.343
-426.283
-431.02
-435.688
-440.347
-445.006
-449.666
-454.326
-458.985
-463.645
-468.305
-472.965
-477.624
-482.284
-486.944
-491.604
-496.263
-500.923
-505.583
-510.243
-514.902
-519.562
-524.222
-528.882
-533.541
-538.201
-542.861
-547.521
-552.18
-556.84
)
;

boundaryField
{
    inlet
    {
        type            cyclic;
    }
    outlet
    {
        type            cyclic;
    }
    top
    {
        type            calculated;
        value           uniform -559.17;
    }
    bottom
    {
        type            calculated;
        value           uniform 4.53862;
    }
    frontAndBackPlanes
    {
        type            empty;
    }
}


// ************************************************************************* //
