/*--------------------------------*- C++ -*----------------------------------*\
| =========                 |                                                 |
| \\      /  F ield         | OpenFOAM: The Open Source CFD Toolbox           |
|  \\    /   O peration     | Version:  v2006                                 |
|   \\  /    A nd           | Website:  www.openfoam.com                      |
|    \\/     M anipulation  |                                                 |
\*---------------------------------------------------------------------------*/
FoamFile
{
    version     2.0;
    format      ascii;
    class       volScalarField;
    location    "1240";
    object      pff;
}
// * * * * * * * * * * * * * * * * * * * * * * * * * * * * * * * * * * * * * //

dimensions      [1 -1 -2 0 0 0 0];


internalField   nonuniform List<scalar> 
120
(
21.8951
21.6014
21.3081
21.0153
20.7228
20.4308
20.1392
19.8481
19.5573
19.2671
18.9772
18.6879
18.399
18.1106
17.8226
17.5351
17.2481
16.9616
16.6756
16.3902
16.1052
15.8208
15.5368
15.2535
14.9707
14.6884
14.4067
14.1256
13.8451
13.5651
13.2858
13.0071
12.729
12.4515
12.1747
11.8985
11.623
11.3482
11.0741
10.8006
10.5279
10.256
9.98476
9.7143
9.44463
9.17577
8.90772
8.64051
8.37415
8.10867
7.84409
7.58041
7.31767
7.05588
6.79505
6.53521
6.27639
6.0186
5.76188
5.50627
5.2518
4.99853
4.74649
4.49573
4.2463
3.99825
3.75159
3.50633
3.26246
3.01993
2.77864
2.5385
2.29933
2.06093
1.82285
1.58429
1.34438
1.10247
0.873165
0.67095
0.501456
0.351998
0.174567
0
0
0
0
0
0
0
0
0
0
0
0
0
0
0
0
0
0
0
0
0
0
0
0
0
0
0
0
0
0
0
0
0
0
0
0
0
)
;

boundaryField
{
    inlet
    {
        type            cyclic;
    }
    outlet
    {
        type            cyclic;
    }
    top
    {
        type            calculated;
        value           uniform 0;
    }
    bottom
    {
        type            calculated;
        value           uniform 21.8951;
    }
    frontAndBackPlanes
    {
        type            empty;
    }
}


// ************************************************************************* //
