/*--------------------------------*- C++ -*----------------------------------*\
| =========                 |                                                 |
| \\      /  F ield         | OpenFOAM: The Open Source CFD Toolbox           |
|  \\    /   O peration     | Version:  v2006                                 |
|   \\  /    A nd           | Website:  www.openfoam.com                      |
|    \\/     M anipulation  |                                                 |
\*---------------------------------------------------------------------------*/
FoamFile
{
    version     2.0;
    format      ascii;
    class       surfaceScalarField;
    location    "1240";
    object      phia;
}
// * * * * * * * * * * * * * * * * * * * * * * * * * * * * * * * * * * * * * //

dimensions      [0 3 -1 0 0 0 0];
oriented        oriented;


internalField   nonuniform List<scalar> 
119
(
-9.7228e-16
-1.95796e-15
-2.95738e-15
-3.97088e-15
-4.99881e-15
-6.04154e-15
-7.09944e-15
-8.17292e-15
-9.26238e-15
-1.03682e-14
-1.1491e-14
-1.2631e-14
-1.37888e-14
-1.49649e-14
-1.61598e-14
-1.7374e-14
-1.86082e-14
-1.98629e-14
-2.11388e-14
-2.24365e-14
-2.37568e-14
-2.51004e-14
-2.6468e-14
-2.78605e-14
-2.92786e-14
-3.07234e-14
-3.21957e-14
-3.36964e-14
-3.52266e-14
-3.67873e-14
-3.83795e-14
-4.00045e-14
-4.16634e-14
-4.33576e-14
-4.50883e-14
-4.6857e-14
-4.86653e-14
-5.05149e-14
-5.24077e-14
-5.43456e-14
-5.63307e-14
-5.83656e-14
-6.04526e-14
-6.25946e-14
-6.47944e-14
-6.70551e-14
-6.938e-14
-7.17726e-14
-7.42363e-14
-7.6775e-14
-7.93926e-14
-8.20934e-14
-8.48819e-14
-8.77633e-14
-9.07433e-14
-9.38285e-14
-9.70269e-14
-1.00348e-13
-1.03802e-13
-1.07403e-13
-1.11166e-13
-1.15109e-13
-1.1925e-13
-1.23612e-13
-1.28218e-13
-1.3309e-13
-1.38253e-13
-1.4373e-13
-1.49545e-13
-1.55729e-13
-1.62318e-13
-1.69372e-13
-1.76987e-13
-1.8533e-13
-1.9469e-13
-2.0557e-13
-2.18736e-13
-2.34881e-13
-2.56045e-13
-2.82246e-13
-3.09534e-13
-3.29224e-13
-3.56313e-13
-1.2905e-12
-1.86422e-12
-2.10647e-12
-2.21703e-12
-2.28132e-12
-2.26821e-12
-2.55433e-12
-1.94739e-12
-2.4904e-11
-3.04468e-11
-1.54244e-10
-8.20671e-11
-8.22997e-11
-8.22751e-11
-8.22755e-11
-8.2277e-11
-8.22767e-11
-8.22766e-11
-8.22766e-11
-8.22766e-11
-8.22766e-11
-8.22766e-11
-8.22766e-11
-8.22766e-11
-8.22766e-11
-8.22766e-11
-8.22766e-11
-8.22766e-11
-8.22766e-11
-8.22766e-11
-8.22766e-11
-8.22766e-11
-8.22766e-11
-8.22766e-11
-8.22565e-11
-8.21697e-11
)
;

boundaryField
{
    inlet
    {
        type            cyclic;
        value           nonuniform List<scalar> 
120
(
-6.70022e-28
-2.01145e-27
-3.35608e-27
-4.67569e-27
-6.00282e-27
-7.33963e-27
-8.68832e-27
-9.99039e-27
-1.13088e-26
-1.27065e-26
-1.41252e-26
-1.55671e-26
-1.70954e-26
-1.86517e-26
-2.02387e-26
-2.18587e-26
-2.35144e-26
-2.52083e-26
-2.69431e-26
-2.87216e-26
-3.05465e-26
-3.24205e-26
-3.43464e-26
-3.63272e-26
-3.86083e-26
-4.09499e-26
-4.33551e-26
-4.57054e-26
-4.8125e-26
-5.06167e-26
-5.29411e-26
-5.51008e-26
-5.73412e-26
-5.96651e-26
-6.2075e-26
-6.45708e-26
-6.74002e-26
-7.05683e-26
-7.359e-26
-7.69521e-26
-7.99296e-26
-8.32515e-26
-8.64351e-26
-8.97244e-26
-9.31214e-26
-9.68697e-26
-1.00244e-25
-1.03731e-25
-1.0709e-25
-1.11049e-25
-1.15127e-25
-1.19324e-25
-1.23645e-25
-1.28091e-25
-1.32667e-25
-1.37619e-25
-1.42709e-25
-1.47945e-25
-1.53338e-25
-1.58406e-25
-1.63638e-25
-1.69053e-25
-1.74665e-25
-1.80491e-25
-1.8655e-25
-1.92379e-25
-1.98978e-25
-2.05886e-25
-2.13128e-25
-2.20728e-25
-2.28704e-25
-2.36581e-25
-2.44878e-25
-2.53654e-25
-2.63046e-25
-2.73315e-25
-2.84879e-25
-2.9826e-25
-3.13886e-25
-3.34133e-25
-3.61652e-25
-3.90601e-25
-4.16031e-25
-4.54776e-25
-4.28727e-23
-5.67232e-23
-4.82183e-23
-4.03533e-23
-3.35082e-23
-2.77873e-23
-2.3276e-23
-2.03053e-23
-1.99453e-23
-1.89854e-23
-1.79973e-23
-1.70345e-23
-1.60975e-23
-1.51857e-23
-1.42988e-23
-1.34371e-23
-1.26003e-23
-1.17883e-23
-1.10005e-23
-1.02364e-23
-9.495e-24
-8.77566e-24
-8.07701e-24
-7.39814e-24
-6.73759e-24
-6.09407e-24
-5.46621e-24
-4.85255e-24
-4.2516e-24
-3.662e-24
-3.08206e-24
-2.5104e-24
-1.9455e-24
-1.38585e-24
-8.29942e-25
-2.76315e-25
)
;
    }
    outlet
    {
        type            cyclic;
        value           nonuniform List<scalar> 
120
(
6.70022e-28
2.01145e-27
3.35608e-27
4.67569e-27
6.00282e-27
7.33963e-27
8.68832e-27
9.99039e-27
1.13088e-26
1.27065e-26
1.41252e-26
1.55671e-26
1.70954e-26
1.86517e-26
2.02387e-26
2.18587e-26
2.35144e-26
2.52083e-26
2.69431e-26
2.87216e-26
3.05465e-26
3.24205e-26
3.43464e-26
3.63272e-26
3.86083e-26
4.09499e-26
4.33551e-26
4.57054e-26
4.8125e-26
5.06167e-26
5.29411e-26
5.51008e-26
5.73412e-26
5.96651e-26
6.2075e-26
6.45708e-26
6.74002e-26
7.05683e-26
7.359e-26
7.69521e-26
7.99296e-26
8.32515e-26
8.64351e-26
8.97244e-26
9.31214e-26
9.68697e-26
1.00244e-25
1.03731e-25
1.0709e-25
1.11049e-25
1.15127e-25
1.19324e-25
1.23645e-25
1.28091e-25
1.32667e-25
1.37619e-25
1.42709e-25
1.47945e-25
1.53338e-25
1.58406e-25
1.63638e-25
1.69053e-25
1.74665e-25
1.80491e-25
1.8655e-25
1.92379e-25
1.98978e-25
2.05886e-25
2.13128e-25
2.20728e-25
2.28704e-25
2.36581e-25
2.44878e-25
2.53654e-25
2.63046e-25
2.73315e-25
2.84879e-25
2.9826e-25
3.13886e-25
3.34133e-25
3.61652e-25
3.90601e-25
4.16031e-25
4.54776e-25
4.28727e-23
5.67232e-23
4.82183e-23
4.03533e-23
3.35082e-23
2.77873e-23
2.3276e-23
2.03053e-23
1.99453e-23
1.89854e-23
1.79973e-23
1.70345e-23
1.60975e-23
1.51857e-23
1.42988e-23
1.34371e-23
1.26003e-23
1.17883e-23
1.10005e-23
1.02364e-23
9.495e-24
8.77566e-24
8.07701e-24
7.39814e-24
6.73759e-24
6.09407e-24
5.46621e-24
4.85255e-24
4.2516e-24
3.662e-24
3.08206e-24
2.5104e-24
1.9455e-24
1.38585e-24
8.29942e-25
2.76315e-25
)
;
    }
    top
    {
        type            fixedValue;
        value           uniform 0;
    }
    bottom
    {
        type            fixedValue;
        value           uniform 0;
    }
    frontAndBackPlanes
    {
        type            empty;
        value           nonuniform List<scalar> 0();
    }
}


// ************************************************************************* //
