/*--------------------------------*- C++ -*----------------------------------*\
| =========                 |                                                 |
| \\      /  F ield         | OpenFOAM: The Open Source CFD Toolbox           |
|  \\    /   O peration     | Version:  v2006                                 |
|   \\  /    A nd           | Website:  www.openfoam.com                      |
|    \\/     M anipulation  |                                                 |
\*---------------------------------------------------------------------------*/
FoamFile
{
    version     2.0;
    format      ascii;
    class       surfaceScalarField;
    location    "1240";
    object      phib;
}
// * * * * * * * * * * * * * * * * * * * * * * * * * * * * * * * * * * * * * //

dimensions      [0 3 -1 0 0 0 0];
oriented        oriented;


internalField   nonuniform List<scalar> 
119
(
1.45425e-15
2.92786e-15
4.42131e-15
5.93508e-15
7.46966e-15
9.02558e-15
1.06034e-14
1.22036e-14
1.38268e-14
1.54736e-14
1.71447e-14
1.88406e-14
2.05621e-14
2.23097e-14
2.40844e-14
2.58869e-14
2.77178e-14
2.95782e-14
3.14689e-14
3.33909e-14
3.5345e-14
3.73324e-14
3.93542e-14
4.14114e-14
4.35053e-14
4.5637e-14
4.78079e-14
5.00193e-14
5.22726e-14
5.45692e-14
5.69106e-14
5.92985e-14
6.17344e-14
6.42202e-14
6.67577e-14
6.9349e-14
7.19961e-14
7.47016e-14
7.74678e-14
8.02977e-14
8.31941e-14
8.61604e-14
8.92001e-14
9.23169e-14
9.55148e-14
9.87982e-14
1.02171e-13
1.05639e-13
1.09207e-13
1.12879e-13
1.16661e-13
1.20558e-13
1.24578e-13
1.28726e-13
1.33011e-13
1.37442e-13
1.42028e-13
1.46784e-13
1.51724e-13
1.56866e-13
1.62231e-13
1.67843e-13
1.73729e-13
1.79918e-13
1.8644e-13
1.93328e-13
2.00611e-13
2.0832e-13
2.16486e-13
2.25144e-13
2.34342e-13
2.44155e-13
2.54711e-13
2.66231e-13
2.79103e-13
2.94009e-13
3.1198e-13
3.33934e-13
3.62712e-13
3.98271e-13
4.34873e-13
4.59466e-13
4.76465e-13
1.55175e-12
2.02783e-12
2.18828e-12
2.25821e-12
2.29932e-12
2.28462e-12
2.43637e-12
1.98705e-12
9.82297e-12
4.5331e-13
2.76536e-15
5.80007e-18
4.77537e-18
4.53137e-18
4.70401e-18
4.67423e-18
4.83296e-18
4.72184e-18
4.75776e-18
4.52027e-18
4.51248e-18
4.36995e-18
4.45684e-18
4.31189e-18
4.29241e-18
4.05066e-18
3.9188e-18
3.59434e-18
3.43391e-18
3.20548e-18
3.14459e-18
2.97307e-18
2.89567e-18
2.71672e-18
2.62348e-18
2.4373e-18
)
;

boundaryField
{
    inlet
    {
        type            cyclic;
        value           nonuniform List<scalar> 
120
(
-6.70022e-28
-2.01146e-27
-3.35961e-27
-4.67571e-27
-6.00282e-27
-7.33972e-27
-8.70763e-27
-9.99036e-27
-1.12831e-26
-1.27064e-26
-1.4125e-26
-1.55315e-26
-1.70952e-26
-1.86517e-26
-2.02387e-26
-2.18587e-26
-2.35144e-26
-2.52083e-26
-2.69431e-26
-2.87216e-26
-3.05465e-26
-3.24204e-26
-3.4345e-26
-3.60056e-26
-3.86069e-26
-4.09507e-26
-4.35413e-26
-4.57062e-26
-4.81268e-26
-5.10448e-26
-5.33877e-26
-5.51028e-26
-5.73412e-26
-5.96651e-26
-6.20725e-26
-6.40246e-26
-6.68357e-26
-7.11493e-26
-7.299e-26
-7.8208e-26
-7.92844e-26
-8.3926e-26
-8.64381e-26
-8.97211e-26
-9.23765e-26
-9.84222e-26
-1.00255e-25
-1.04556e-25
-1.05372e-25
-1.11042e-25
-1.15127e-25
-1.19324e-25
-1.23645e-25
-1.28087e-25
-1.31617e-25
-1.37614e-25
-1.42709e-25
-1.47956e-25
-1.55737e-25
-1.58417e-25
-1.63638e-25
-1.69053e-25
-1.74665e-25
-1.80504e-25
-1.89486e-25
-1.89334e-25
-1.98964e-25
-2.05886e-25
-2.13128e-25
-2.20745e-25
-2.32415e-25
-2.36599e-25
-2.44878e-25
-2.53654e-25
-2.63046e-25
-2.73315e-25
-2.84879e-25
-2.9826e-25
-3.13898e-25
-3.3417e-25
-3.61694e-25
-3.90678e-25
-4.17541e-25
-7.07296e-25
-4.28717e-23
-5.66401e-23
-4.82183e-23
-4.03533e-23
-3.35083e-23
-2.77874e-23
-2.3276e-23
-2.03054e-23
-1.99453e-23
-1.8983e-23
-1.79964e-23
-1.70346e-23
-1.60977e-23
-1.51858e-23
-1.42989e-23
-1.34372e-23
-1.26005e-23
-1.17884e-23
-1.10006e-23
-1.02364e-23
-9.49513e-24
-8.77571e-24
-8.07713e-24
-7.3982e-24
-6.73765e-24
-6.09415e-24
-5.46628e-24
-4.85262e-24
-4.2517e-24
-3.66203e-24
-3.08212e-24
-2.51047e-24
-1.94556e-24
-1.38591e-24
-8.30005e-25
-2.76346e-25
)
;
    }
    outlet
    {
        type            cyclic;
        value           nonuniform List<scalar> 
120
(
6.70022e-28
2.01146e-27
3.35961e-27
4.67571e-27
6.00282e-27
7.33972e-27
8.70763e-27
9.99036e-27
1.12831e-26
1.27064e-26
1.4125e-26
1.55315e-26
1.70952e-26
1.86517e-26
2.02387e-26
2.18587e-26
2.35144e-26
2.52083e-26
2.69431e-26
2.87216e-26
3.05465e-26
3.24204e-26
3.4345e-26
3.60056e-26
3.86069e-26
4.09507e-26
4.35413e-26
4.57062e-26
4.81268e-26
5.10448e-26
5.33877e-26
5.51028e-26
5.73412e-26
5.96651e-26
6.20725e-26
6.40246e-26
6.68357e-26
7.11493e-26
7.299e-26
7.8208e-26
7.92844e-26
8.3926e-26
8.64381e-26
8.97211e-26
9.23765e-26
9.84222e-26
1.00255e-25
1.04556e-25
1.05372e-25
1.11042e-25
1.15127e-25
1.19324e-25
1.23645e-25
1.28087e-25
1.31617e-25
1.37614e-25
1.42709e-25
1.47956e-25
1.55737e-25
1.58417e-25
1.63638e-25
1.69053e-25
1.74665e-25
1.80504e-25
1.89486e-25
1.89334e-25
1.98964e-25
2.05886e-25
2.13128e-25
2.20745e-25
2.32415e-25
2.36599e-25
2.44878e-25
2.53654e-25
2.63046e-25
2.73315e-25
2.84879e-25
2.9826e-25
3.13898e-25
3.3417e-25
3.61694e-25
3.90678e-25
4.17541e-25
7.07296e-25
4.28717e-23
5.66401e-23
4.82183e-23
4.03533e-23
3.35083e-23
2.77874e-23
2.3276e-23
2.03054e-23
1.99453e-23
1.8983e-23
1.79964e-23
1.70346e-23
1.60977e-23
1.51858e-23
1.42989e-23
1.34372e-23
1.26005e-23
1.17884e-23
1.10006e-23
1.02364e-23
9.49513e-24
8.77571e-24
8.07713e-24
7.3982e-24
6.73765e-24
6.09415e-24
5.46628e-24
4.85262e-24
4.2517e-24
3.66203e-24
3.08212e-24
2.51047e-24
1.94556e-24
1.38591e-24
8.30005e-25
2.76346e-25
)
;
    }
    top
    {
        type            fixedValue;
        value           uniform 0;
    }
    bottom
    {
        type            fixedValue;
        value           uniform 0;
    }
    frontAndBackPlanes
    {
        type            empty;
        value           nonuniform List<scalar> 0();
    }
}


// ************************************************************************* //
