/*--------------------------------*- C++ -*----------------------------------*\
| =========                 |                                                 |
| \\      /  F ield         | OpenFOAM: The Open Source CFD Toolbox           |
|  \\    /   O peration     | Version:  v2006                                 |
|   \\  /    A nd           | Website:  www.openfoam.com                      |
|    \\/     M anipulation  |                                                 |
\*---------------------------------------------------------------------------*/
FoamFile
{
    version     2.0;
    format      ascii;
    class       volTensorField;
    location    "1240";
    object      Taua;
}
// * * * * * * * * * * * * * * * * * * * * * * * * * * * * * * * * * * * * * //

dimensions      [1 -1 -2 0 0 0 0];


internalField   nonuniform List<tensor> 
120
(
(0.00189263 0 0 9.38514e-15 -0.00378526 0 0 0 0.00189263)
(0.00191456 0 0 9.40119e-15 -0.00382911 0 0 0 0.00191456)
(0.00194312 0 0 9.32487e-15 -0.00388624 0 0 0 0.00194312)
(0.00197084 0 0 9.26362e-15 -0.00394168 0 0 0 0.00197084)
(0.00199877 0 0 9.3238e-15 -0.00399754 0 0 0 0.00199877)
(0.00202751 0 0 9.39925e-15 -0.00405503 0 0 0 0.00202751)
(0.00205704 0 0 9.27765e-15 -0.00411407 0 0 0 0.00205704)
(0.00208732 0 0 9.17165e-15 -0.00417464 0 0 0 0.00208732)
(0.0021184 0 0 9.50646e-15 -0.00423679 0 0 0 0.0021184)
(0.0021503 0 0 9.85732e-15 -0.00430059 0 0 0 0.0021503)
(0.00218305 0 0 1.0012e-14 -0.0043661 0 0 0 0.00218305)
(0.0022167 0 0 1.03957e-14 -0.0044334 0 0 0 0.0022167)
(0.00225128 0 0 1.07963e-14 -0.00450256 0 0 0 0.00225128)
(0.00228683 0 0 1.10016e-14 -0.00457367 0 0 0 0.00228683)
(0.0023234 0 0 1.12243e-14 -0.00464681 0 0 0 0.0023234)
(0.00236104 0 0 1.14649e-14 -0.00472209 0 0 0 0.00236104)
(0.0023998 0 0 1.17236e-14 -0.0047996 0 0 0 0.0023998)
(0.00243974 0 0 1.20008e-14 -0.00487947 0 0 0 0.00243974)
(0.00248091 0 0 1.22967e-14 -0.00496181 0 0 0 0.00248091)
(0.00252338 0 0 1.26116e-14 -0.00504676 0 0 0 0.00252338)
(0.00256721 0 0 1.29459e-14 -0.00513443 0 0 0 0.00256721)
(0.00261248 0 0 1.32998e-14 -0.00522496 0 0 0 0.00261248)
(0.00265925 0 0 1.36736e-14 -0.0053185 0 0 0 0.00265925)
(0.00270759 0 0 1.49165e-14 -0.00541518 0 0 0 0.00270759)
(0.00275757 0 0 1.61796e-14 -0.00551514 0 0 0 0.00275757)
(0.00280926 0 0 1.66139e-14 -0.00561852 0 0 0 0.00280926)
(0.00286274 0 0 1.6644e-14 -0.00572548 0 0 0 0.00286274)
(0.00291808 0 0 1.66946e-14 -0.00583615 0 0 0 0.00291808)
(0.00297535 0 0 1.71898e-14 -0.00595071 0 0 0 0.00297535)
(0.00303465 0 0 1.68564e-14 -0.00606931 0 0 0 0.00303465)
(0.00309607 0 0 1.56942e-14 -0.00619214 0 0 0 0.00309607)
(0.00315971 0 0 1.54006e-14 -0.00631941 0 0 0 0.00315971)
(0.00322569 0 0 1.5975e-14 -0.00645137 0 0 0 0.00322569)
(0.00329415 0 0 1.65681e-14 -0.00658829 0 0 0 0.00329415)
(0.00336525 0 0 1.71699e-14 -0.0067305 0 0 0 0.00336525)
(0.00343919 7.36271e-17 0 1.86382e-14 -0.00687838 0 0 0 0.00343919)
(0.00351618 0 0 2.09914e-14 -0.00703236 0 0 0 0.00351618)
(0.00359647 0 0 2.16645e-14 -0.00719294 0 0 0 0.00359647)
(0.00368034 0 0 2.23433e-14 -0.00736068 0 0 0 0.00368034)
(0.0037681 0 0 2.21885e-14 -0.0075362 0 0 0 0.0037681)
(0.00386008 0 0 2.20479e-14 -0.00772016 0 0 0 0.00386008)
(0.00395664 0 0 2.27693e-14 -0.00791327 0 0 0 0.00395664)
(0.00405813 0 0 2.26553e-14 -0.00811626 0 0 0 0.00405813)
(0.00416493 0 0 2.3402e-14 -0.00832985 0 0 0 0.00416493)
(0.00427738 0 0 2.50085e-14 -0.00855477 0 0 0 0.00427738)
(0.00439585 0 0 2.49301e-14 -0.0087917 0 0 0 0.00439585)
(0.00452066 0 0 2.40148e-14 -0.00904132 0 0 0 0.00452066)
(0.00465213 0 0 2.39597e-14 -0.00930425 0 0 0 0.00465213)
(0.00479057 0 0 2.56136e-14 -0.00958113 0 0 0 0.00479057)
(0.00493632 0 0 2.81292e-14 -0.00987265 0 0 0 0.00493632)
(0.0050898 0 0 2.89632e-14 -0.0101796 0 0 0 0.0050898)
(0.0052515 0 0 2.98138e-14 -0.010503 0 0 0 0.0052515)
(0.00542214 0 0 3.06839e-14 -0.0108443 0 0 0 0.00542214)
(0.00560267 0 0 3.15772e-14 -0.0112053 0 0 0 0.00560267)
(0.00579442 0 0 3.33465e-14 -0.0115888 0 0 0 0.00579442)
(0.00599914 0 0 3.51482e-14 -0.0119983 0 0 0 0.00599914)
(0.00621913 0 0 3.61407e-14 -0.0124383 0 0 0 0.00621913)
(0.00645724 0 0 3.72002e-14 -0.0129145 0 0 0 0.00645724)
(0.00671689 -7.36271e-17 0 3.66144e-14 -0.0134338 0 0 0 0.00671689)
(0.00700201 0 0 3.60513e-14 -0.014004 0 0 0 0.00700201)
(0.00731685 0 0 3.72646e-14 -0.0146337 0 0 0 0.00731685)
(0.00766578 0 0 3.85925e-14 -0.0153316 0 0 0 0.00766578)
(0.0080529 0 0 4.00311e-14 -0.0161058 0 0 0 0.0080529)
(0.0084817 0 0 4.15984e-14 -0.0169634 0 0 0 0.0084817)
(0.0089547 0 0 4.16111e-14 -0.0179094 0 0 0 0.0089547)
(0.00947328 0 0 4.34987e-14 -0.0189466 0 0 0 0.00947328)
(0.0100378 0 0 4.72726e-14 -0.0200756 0 0 0 0.0100378)
(0.0106486 0 0 4.95246e-14 -0.0212971 0 0 0 0.0106486)
(0.0113076 0 0 5.19474e-14 -0.0226152 0 0 0 0.0113076)
(0.0120224 0 0 5.4516e-14 -0.0240448 0 0 0 0.0120224)
(0.012812 0 0 5.54868e-14 -0.025624 0 0 0 0.012812)
(0.0137156 0 0 5.66084e-14 -0.0274312 0 0 0 0.0137156)
(0.0148048 0 0 5.97546e-14 -0.0296097 0 0 0 0.0148048)
(0.0162127 0 0 6.35874e-14 -0.0324254 0 0 0 0.0162127)
(0.0181944 0 0 6.88137e-14 -0.0363887 0 0 0 0.0181944)
(0.0211709 0 0 7.64184e-14 -0.0423419 0 0 0 0.0211709)
(0.025672 0 0 8.73073e-14 -0.0513441 0 0 0 0.025672)
(0.0319643 0 0 1.01522e-13 -0.0639287 0 0 0 0.0319643)
(0.04061 0 0 1.25556e-13 -0.0812201 0 0 0 0.04061)
(0.037405 0 0 1.23983e-13 -0.07481 0 0 0 0.037405)
(0.027521 0 0 1.06052e-13 -0.0550419 0 0 0 0.027521)
(0.0191361 0 0 8.20962e-14 -0.0382721 0 0 0 0.0191361)
(0.00951893 0 0 3.32711e-14 -0.0190379 0 0 0 0.00951893)
(1.53361e-06 0 0 8.36243e-17 -3.06721e-06 0 0 0 1.53361e-06)
(4.31091e-07 0 0 1.04212e-16 -8.62183e-07 0 0 0 4.31091e-07)
(-6.3589e-07 0 0 9.59584e-18 1.27178e-06 0 0 0 -6.3589e-07)
(6.17939e-07 0 0 -2.90008e-17 -1.23588e-06 0 0 0 6.17939e-07)
(2.84405e-07 0 0 -2.58987e-17 -5.6881e-07 0 0 0 2.84405e-07)
(-2.73096e-06 0 0 -2.20298e-17 5.46192e-06 0 0 0 -2.73096e-06)
(-2.79776e-06 0 0 -1.80034e-17 5.59552e-06 0 0 0 -2.79776e-06)
(5.47702e-05 0 0 -1.24037e-17 -0.00010954 0 0 0 5.47702e-05)
(2.63624e-05 0 0 -6.2533e-18 -5.27248e-05 0 0 0 2.63624e-05)
(-1.19002e-06 0 0 -1.35375e-19 2.38005e-06 0 0 0 -1.19002e-06)
(2.43349e-09 0 0 -2.43776e-22 -4.86698e-09 0 0 0 2.43349e-09)
(1.52956e-13 0 0 -1.11465e-25 -3.05912e-13 0 0 0 1.52956e-13)
(-5.01823e-17 0 0 -9.84238e-30 1.00365e-16 0 0 0 -5.01823e-17)
(-1.49076e-24 0 0 -6.5636e-36 2.98151e-24 0 0 0 -1.49076e-24)
(-4.96426e-32 0 0 -2.18691e-42 9.92851e-32 0 0 0 -4.96426e-32)
(9.84559e-39 0 0 -5.17823e-49 -1.96912e-38 0 0 0 9.84559e-39)
(2.54984e-46 0 0 -9.38316e-56 -5.09968e-46 0 0 0 2.54984e-46)
(-2.15123e-53 0 0 -1.43664e-62 4.30247e-53 0 0 0 -2.15123e-53)
(-5.31732e-61 0 0 -1.83323e-69 1.06346e-60 0 0 0 -5.31732e-61)
(2.3148e-68 0 0 -2.06131e-76 -4.6296e-68 0 0 0 2.3148e-68)
(5.83297e-76 0 0 -1.97382e-83 -1.16659e-75 0 0 0 5.83297e-76)
(-1.38026e-83 0 0 -1.71358e-90 2.76052e-83 0 0 0 -1.38026e-83)
(-3.78604e-91 0 0 -1.32792e-97 7.57209e-91 0 0 0 -3.78604e-91)
(5.48598e-99 0 0 -9.75091e-105 -1.0972e-98 0 0 0 5.48598e-99)
(2.01977e-106 0 0 -6.5177e-112 -4.03954e-106 0 0 0 2.01977e-106)
(1.50767e-114 0 0 -4.14758e-119 -3.01534e-114 0 0 0 1.50767e-114)
(1.76841e-121 0 0 -2.50601e-126 -3.53682e-121 0 0 0 1.76841e-121)
(1.91068e-128 0 0 -1.70489e-133 -3.82136e-128 0 0 0 1.91068e-128)
(1.67834e-135 0 0 -1.57957e-140 -3.35669e-135 0 0 0 1.67834e-135)
(1.6888e-142 0 0 -2.1097e-147 -3.37761e-142 0 0 0 1.6888e-142)
(-2.65952e-149 0 0 -3.15421e-154 5.31904e-149 0 0 0 -2.65952e-149)
(-9.27404e-156 0 0 -4.79391e-161 1.85481e-155 0 0 0 -9.27404e-156)
(-3.16188e-161 0 0 -6.86044e-168 6.32377e-161 0 0 0 -3.16188e-161)
(-2.35733e-165 0 0 -9.51677e-175 4.71466e-165 0 0 0 -2.35733e-165)
(-7.2702e-172 0 0 -1.24255e-181 1.45404e-171 0 0 0 -7.2702e-172)
(-6.77038e-178 0 0 -1.58874e-188 1.35408e-177 0 0 0 -6.77038e-178)
(-7.93479e-182 0 0 -1.92276e-195 1.58696e-181 0 0 0 -7.93479e-182)
)
;

boundaryField
{
    inlet
    {
        type            cyclic;
    }
    outlet
    {
        type            cyclic;
    }
    top
    {
        type            extrapolatedCalculated;
        value           uniform (-1.58544e-181 0 0 -1.92103e-195 3.17089e-181 0 0 0 -1.58544e-181);
    }
    bottom
    {
        type            extrapolatedCalculated;
        value           uniform (0.00188531 0 0 9.38032e-15 -0.00377061 0 0 0 0.00188531);
    }
    frontAndBackPlanes
    {
        type            empty;
    }
}


// ************************************************************************* //
