/*--------------------------------*- C++ -*----------------------------------*\
| =========                 |                                                 |
| \\      /  F ield         | OpenFOAM: The Open Source CFD Toolbox           |
|  \\    /   O peration     | Version:  v2006                                 |
|   \\  /    A nd           | Website:  www.openfoam.com                      |
|    \\/     M anipulation  |                                                 |
\*---------------------------------------------------------------------------*/
FoamFile
{
    version     2.0;
    format      ascii;
    class       volTensorField;
    location    "1240";
    object      Taub;
}
// * * * * * * * * * * * * * * * * * * * * * * * * * * * * * * * * * * * * * //

dimensions      [1 -1 -2 0 0 0 0];


internalField   nonuniform List<tensor> 
120
(
(-1.35232e-07 0 0 4.46563e-19 2.70464e-07 0 0 0 -1.35232e-07)
(-1.36406e-07 0 0 4.47887e-19 2.72813e-07 0 0 0 -1.36406e-07)
(-1.38148e-07 0 0 4.43643e-19 2.76297e-07 0 0 0 -1.38148e-07)
(-1.4004e-07 0 0 4.40115e-19 2.8008e-07 0 0 0 -1.4004e-07)
(-1.41965e-07 0 0 4.43552e-19 2.83929e-07 0 0 0 -1.41965e-07)
(-1.43932e-07 0 0 4.50318e-19 2.87864e-07 0 0 0 -1.43932e-07)
(-1.45947e-07 0 0 4.41274e-19 2.91893e-07 0 0 0 -1.45947e-07)
(-1.48013e-07 0 0 4.28734e-19 2.96025e-07 0 0 0 -1.48013e-07)
(-1.50132e-07 0 0 4.52108e-19 3.00263e-07 0 0 0 -1.50132e-07)
(-1.52306e-07 0 0 4.7303e-19 3.04611e-07 0 0 0 -1.52306e-07)
(-1.54537e-07 0 0 4.70195e-19 3.09073e-07 0 0 0 -1.54537e-07)
(-1.56827e-07 0 0 4.94321e-19 3.13654e-07 0 0 0 -1.56827e-07)
(-1.59179e-07 0 0 5.19264e-19 3.18358e-07 0 0 0 -1.59179e-07)
(-1.61596e-07 0 0 5.23088e-19 3.23192e-07 0 0 0 -1.61596e-07)
(-1.6408e-07 0 0 5.33618e-19 3.28161e-07 0 0 0 -1.6408e-07)
(-1.66636e-07 0 0 5.45019e-19 3.33272e-07 0 0 0 -1.66636e-07)
(-1.69266e-07 0 0 5.57279e-19 3.38532e-07 0 0 0 -1.69266e-07)
(-1.71974e-07 0 0 5.70413e-19 3.43948e-07 0 0 0 -1.71974e-07)
(-1.74764e-07 0 0 5.84437e-19 3.49527e-07 0 0 0 -1.74764e-07)
(-1.77639e-07 0 0 5.99363e-19 3.55279e-07 0 0 0 -1.77639e-07)
(-1.80606e-07 0 0 6.15205e-19 3.61211e-07 0 0 0 -1.80606e-07)
(-1.83667e-07 0 0 6.31743e-19 3.67333e-07 0 0 0 -1.83667e-07)
(-1.86827e-07 0 0 5.96205e-19 3.73654e-07 0 0 0 -1.86827e-07)
(-1.90091e-07 0 0 7.08691e-19 3.80183e-07 0 0 0 -1.90091e-07)
(-1.93464e-07 0 0 8.22255e-19 3.86928e-07 0 0 0 -1.93464e-07)
(-1.96949e-07 0 0 8.20405e-19 3.93898e-07 0 0 0 -1.96949e-07)
(-2.00552e-07 0 0 7.90584e-19 4.01103e-07 0 0 0 -2.00552e-07)
(-2.04276e-07 0 0 7.62275e-19 4.08553e-07 0 0 0 -2.04276e-07)
(-2.08128e-07 0 0 8.87391e-19 4.16257e-07 0 0 0 -2.08128e-07)
(-2.12113e-07 0 0 8.74386e-19 4.24227e-07 0 0 0 -2.12113e-07)
(-2.16237e-07 0 0 6.74396e-19 4.32474e-07 0 0 0 -2.16237e-07)
(-2.20506e-07 0 0 6.56989e-19 4.41012e-07 0 0 0 -2.20506e-07)
(-2.24929e-07 0 0 7.58084e-19 4.49858e-07 0 0 0 -2.24929e-07)
(-2.29514e-07 0 0 7.86092e-19 4.59028e-07 0 0 0 -2.29514e-07)
(-2.34272e-07 0 0 7.24265e-19 4.68543e-07 0 0 0 -2.34272e-07)
(-2.39214e-07 -3.49447e-21 0 7.91241e-19 4.78429e-07 0 0 0 -2.39214e-07)
(-2.44357e-07 0 0 1.18341e-18 4.88714e-07 0 0 0 -2.44357e-07)
(-2.49716e-07 0 0 1.02213e-18 4.99432e-07 0 0 0 -2.49716e-07)
(-2.55309e-07 0 0 1.17221e-18 5.10618e-07 0 0 0 -2.55309e-07)
(-2.61157e-07 0 0 1.04519e-18 5.22315e-07 0 0 0 -2.61157e-07)
(-2.67282e-07 0 0 9.49377e-19 5.34564e-07 0 0 0 -2.67282e-07)
(-2.73705e-07 0 0 1.18761e-18 5.4741e-07 0 0 0 -2.73705e-07)
(-2.80449e-07 0 0 9.61974e-19 5.60899e-07 0 0 0 -2.80449e-07)
(-2.87539e-07 0 0 9.85644e-19 5.75078e-07 0 0 0 -2.87539e-07)
(-2.94997e-07 0 0 1.44402e-18 5.89993e-07 0 0 0 -2.94997e-07)
(-3.02843e-07 0 0 1.30732e-18 6.05687e-07 0 0 0 -3.02843e-07)
(-3.11101e-07 0 0 1.01767e-18 6.22201e-07 0 0 0 -3.11101e-07)
(-3.19787e-07 0 0 8.48931e-19 6.39575e-07 0 0 0 -3.19787e-07)
(-3.28923e-07 0 0 1.07584e-18 6.57845e-07 0 0 0 -3.28923e-07)
(-3.38526e-07 0 0 1.61785e-18 6.77052e-07 0 0 0 -3.38526e-07)
(-3.48623e-07 0 0 1.37357e-18 6.97246e-07 0 0 0 -3.48623e-07)
(-3.59247e-07 0 0 1.41239e-18 7.18493e-07 0 0 0 -3.59247e-07)
(-3.70443e-07 0 0 1.45262e-18 7.40885e-07 0 0 0 -3.70443e-07)
(-3.82275e-07 0 0 1.32139e-18 7.64549e-07 0 0 0 -3.82275e-07)
(-3.94831e-07 0 0 1.57904e-18 7.89662e-07 0 0 0 -3.94831e-07)
(-4.08228e-07 0 0 1.83814e-18 8.16456e-07 0 0 0 -4.08228e-07)
(-4.22616e-07 0 0 1.7134e-18 8.45232e-07 0 0 0 -4.22616e-07)
(-4.38181e-07 0 0 2.15799e-18 8.76362e-07 0 0 0 -4.38181e-07)
(-4.55143e-07 0 0 1.7326e-18 9.10286e-07 0 0 0 -4.55143e-07)
(-4.73756e-07 0 0 1.30846e-18 9.47511e-07 0 0 0 -4.73756e-07)
(-4.94287e-07 0 0 1.76093e-18 9.88574e-07 0 0 0 -4.94287e-07)
(-5.17006e-07 0 0 1.82517e-18 1.03401e-06 0 0 0 -5.17006e-07)
(-5.42158e-07 0 0 1.89503e-18 1.08432e-06 0 0 0 -5.42158e-07)
(-5.6994e-07 0 0 2.45225e-18 1.13988e-06 0 0 0 -5.6994e-07)
(-6.00476e-07 0 0 1.4606e-18 1.20095e-06 0 0 0 -6.00476e-07)
(-6.3381e-07 0 0 1.56748e-18 1.26762e-06 0 0 0 -6.3381e-07)
(-6.69928e-07 0 0 2.73666e-18 1.33986e-06 0 0 0 -6.69928e-07)
(-7.08828e-07 0 0 2.34118e-18 1.41766e-06 0 0 0 -7.08828e-07)
(-7.50656e-07 0 0 2.45542e-18 1.50131e-06 0 0 0 -7.50656e-07)
(-7.95966e-07 0 0 3.18612e-18 1.59193e-06 0 0 0 -7.95966e-07)
(-8.46134e-07 0 0 2.61803e-18 1.69227e-06 0 0 0 -8.46134e-07)
(-9.04046e-07 0 0 2.05733e-18 1.80809e-06 0 0 0 -9.04046e-07)
(-9.75175e-07 0 0 2.81444e-18 1.95035e-06 0 0 0 -9.75175e-07)
(-1.06923e-06 0 0 2.99671e-18 2.13846e-06 0 0 0 -1.06923e-06)
(-1.20263e-06 0 0 3.2415e-18 2.40527e-06 0 0 0 -1.20263e-06)
(-1.39893e-06 0 0 3.59781e-18 2.79786e-06 0 0 0 -1.39893e-06)
(-1.6723e-06 0 0 4.10794e-18 3.34461e-06 0 0 0 -1.6723e-06)
(-2.08957e-06 0 0 4.7753e-18 4.17913e-06 0 0 0 -2.08957e-06)
(-2.65281e-06 0 0 5.90437e-18 5.30562e-06 0 0 0 -2.65281e-06)
(-3.04099e-06 0 0 7.85131e-18 6.08197e-06 0 0 0 -3.04099e-06)
(-2.79224e-06 0 0 9.27317e-18 5.58448e-06 0 0 0 -2.79224e-06)
(-6.6098e-07 0 0 9.15414e-18 1.32196e-06 0 0 0 -6.6098e-07)
(-3.5734e-05 0 0 5.17879e-17 7.1468e-05 0 0 0 -3.5734e-05)
(-4.75021e-06 0 0 6.81131e-15 9.50043e-06 0 0 0 -4.75021e-06)
(-7.30262e-05 0 0 8.66065e-15 0.000146052 0 0 0 -7.30262e-05)
(-8.46269e-05 0 0 8.13366e-16 0.000169254 0 0 0 -8.46269e-05)
(3.66015e-05 0 0 -2.45945e-15 -7.3203e-05 0 0 0 3.66015e-05)
(1.65147e-05 0 0 -2.21366e-15 -3.30294e-05 0 0 0 1.65147e-05)
(-0.000233875 0 0 -1.88653e-15 0.00046775 0 0 0 -0.000233875)
(-0.000259201 0 0 -1.53926e-15 0.000518402 0 0 0 -0.000259201)
(0.00480643 0 0 -1.08931e-15 -0.00961287 0 0 0 0.00480643)
(0.000401277 0 0 -5.19761e-16 -0.000802555 0 0 0 0.000401277)
(-0.00259252 0 0 -9.46009e-17 0.00518504 0 0 0 -0.00259252)
(-3.34294e-05 0 0 -1.29925e-16 6.68588e-05 0 0 0 -3.34294e-05)
(0.000384137 0 0 -1.29882e-16 -0.000768275 0 0 0 0.000384137)
(1.89936e-05 0 0 -1.26565e-16 -3.79873e-05 0 0 0 1.89936e-05)
(-2.93472e-05 0 0 -1.23239e-16 5.86944e-05 0 0 0 -2.93472e-05)
(-2.68737e-06 0 0 -1.19901e-16 5.37475e-06 0 0 0 -2.68737e-06)
(2.18776e-06 0 0 -1.16556e-16 -4.37552e-06 0 0 0 2.18776e-06)
(3.00859e-07 0 0 -1.13218e-16 -6.01719e-07 0 0 0 3.00859e-07)
(-1.59324e-07 0 0 -1.09906e-16 3.18648e-07 0 0 0 -1.59324e-07)
(-3.01839e-08 0 0 -1.06643e-16 6.03677e-08 0 0 0 -3.01839e-08)
(1.12356e-08 0 0 -1.03451e-16 -2.24712e-08 0 0 0 1.12356e-08)
(2.89001e-09 0 0 -1.00353e-16 -5.78001e-09 0 0 0 2.89001e-09)
(-7.56924e-10 0 0 -9.73704e-17 1.51385e-09 0 0 0 -7.56924e-10)
(-2.62144e-10 0 0 -9.45215e-17 5.24287e-10 0 0 0 -2.62144e-10)
(4.9822e-11 0 0 -9.18226e-17 -9.9644e-11 0 0 0 4.9822e-11)
(2.69558e-11 0 0 -8.92871e-17 -5.39117e-11 0 0 0 2.69558e-11)
(3.16793e-12 0 0 -8.69259e-17 -6.33586e-12 0 0 0 3.16793e-12)
(5.86764e-12 0 0 -8.47474e-17 -1.17353e-11 0 0 0 5.86764e-12)
(9.05443e-12 0 0 -8.27579e-17 -1.81089e-11 0 0 0 9.05443e-12)
(8.39729e-12 0 0 -8.09619e-17 -1.67946e-11 0 0 0 8.39729e-12)
(6.24158e-12 0 0 -7.93627e-17 -1.24832e-11 0 0 0 6.24158e-12)
(4.64473e-12 0 0 -7.79622e-17 -9.28947e-12 0 0 0 4.64473e-12)
(4.36753e-12 0 0 -7.67615e-17 -8.73505e-12 0 0 0 4.36753e-12)
(5.07229e-12 0 0 -7.57611e-17 -1.01446e-11 0 0 0 5.07229e-12)
(5.40453e-12 0 0 -7.49611e-17 -1.08091e-11 0 0 0 5.40453e-12)
(-3.39296e-13 0 0 -7.43614e-17 6.78592e-13 0 0 0 -3.39296e-13)
(2.97178e-14 0 0 -7.39617e-17 -5.94357e-14 0 0 0 2.97178e-14)
(1.00837e-10 0 0 -7.37475e-17 -2.01674e-10 0 0 0 1.00837e-10)
)
;

boundaryField
{
    inlet
    {
        type            cyclic;
    }
    outlet
    {
        type            cyclic;
    }
    top
    {
        type            extrapolatedCalculated;
        value           uniform (1.95633e-10 0 0 -7.36831e-17 -3.91266e-10 0 0 0 1.95633e-10);
    }
    bottom
    {
        type            extrapolatedCalculated;
        value           uniform (-1.34856e-07 0 0 4.46331e-19 2.69712e-07 0 0 0 -1.34856e-07);
    }
    frontAndBackPlanes
    {
        type            empty;
    }
}


// ************************************************************************* //
