/*--------------------------------*- C++ -*----------------------------------*\
| =========                 |                                                 |
| \\      /  F ield         | OpenFOAM: The Open Source CFD Toolbox           |
|  \\    /   O peration     | Version:  v2006                                 |
|   \\  /    A nd           | Website:  www.openfoam.com                      |
|    \\/     M anipulation  |                                                 |
\*---------------------------------------------------------------------------*/
FoamFile
{
    version     2.0;
    format      ascii;
    class       volVectorField;
    location    "1240";
    object      Ua;
}
// * * * * * * * * * * * * * * * * * * * * * * * * * * * * * * * * * * * * * //

dimensions      [0 1 -1 0 0 0 0];


internalField   nonuniform List<vector> 
120
(
(2.23341e-21 -1.34665e-09 0)
(6.70482e-21 -4.06086e-09 0)
(1.11869e-20 -6.8168e-09 0)
(1.55856e-20 -9.61263e-09 0)
(2.00094e-20 -1.24478e-08 0)
(2.44654e-20 -1.53234e-08 0)
(2.89611e-20 -1.82407e-08 0)
(3.33013e-20 -2.12006e-08 0)
(3.7696e-20 -2.42044e-08 0)
(4.23551e-20 -2.72532e-08 0)
(4.70839e-20 -3.03481e-08 0)
(5.18903e-20 -3.34905e-08 0)
(5.69846e-20 -3.66816e-08 0)
(6.21725e-20 -3.99227e-08 0)
(6.74622e-20 -4.32154e-08 0)
(7.28623e-20 -4.6561e-08 0)
(7.83812e-20 -4.99612e-08 0)
(8.40276e-20 -5.34176e-08 0)
(8.98105e-20 -5.69319e-08 0)
(9.57387e-20 -6.05059e-08 0)
(1.01822e-19 -6.41415e-08 0)
(1.08068e-19 -6.78408e-08 0)
(1.14488e-19 -7.16057e-08 0)
(1.21091e-19 -7.54386e-08 0)
(1.28694e-19 -7.93417e-08 0)
(1.365e-19 -8.33174e-08 0)
(1.44517e-19 -8.73682e-08 0)
(1.52351e-19 -9.14966e-08 0)
(1.60417e-19 -9.57055e-08 0)
(1.68722e-19 -9.99977e-08 0)
(1.7647e-19 -1.04376e-07 0)
(1.83669e-19 -1.08844e-07 0)
(1.91137e-19 -1.13404e-07 0)
(1.98884e-19 -1.1806e-07 0)
(2.06917e-19 -1.22816e-07 0)
(2.15236e-19 -1.27675e-07 0)
(2.24667e-19 -1.32642e-07 0)
(2.35228e-19 -1.37721e-07 0)
(2.453e-19 -1.42917e-07 0)
(2.56507e-19 -1.48236e-07 0)
(2.66432e-19 -1.53683e-07 0)
(2.77505e-19 -1.59265e-07 0)
(2.88117e-19 -1.64988e-07 0)
(2.99081e-19 -1.7086e-07 0)
(3.10405e-19 -1.76888e-07 0)
(3.22899e-19 -1.83081e-07 0)
(3.34147e-19 -1.89447e-07 0)
(3.4577e-19 -1.95997e-07 0)
(3.56966e-19 -2.02739e-07 0)
(3.70164e-19 -2.09684e-07 0)
(3.83756e-19 -2.16843e-07 0)
(3.97748e-19 -2.24227e-07 0)
(4.1215e-19 -2.31847e-07 0)
(4.26971e-19 -2.39718e-07 0)
(4.42223e-19 -2.47855e-07 0)
(4.5873e-19 -2.56274e-07 0)
(4.75698e-19 -2.64995e-07 0)
(4.93149e-19 -2.74043e-07 0)
(5.11127e-19 -2.83445e-07 0)
(5.2802e-19 -2.93234e-07 0)
(5.45461e-19 -3.0345e-07 0)
(5.6351e-19 -3.14139e-07 0)
(5.82216e-19 -3.25352e-07 0)
(6.01635e-19 -3.37147e-07 0)
(6.21833e-19 -3.49586e-07 0)
(6.41265e-19 -3.62732e-07 0)
(6.63261e-19 -3.76652e-07 0)
(6.86286e-19 -3.91412e-07 0)
(7.10427e-19 -4.07077e-07 0)
(7.3576e-19 -4.23719e-07 0)
(7.62347e-19 -4.41427e-07 0)
(7.88604e-19 -4.60325e-07 0)
(8.1626e-19 -4.80614e-07 0)
(8.45513e-19 -5.02624e-07 0)
(8.76819e-19 -5.26936e-07 0)
(9.1105e-19 -5.54608e-07 0)
(9.49598e-19 -5.87424e-07 0)
(9.942e-19 -6.27957e-07 0)
(1.04629e-18 -6.78751e-07 0)
(1.11378e-18 -7.43985e-07 0)
(1.20551e-18 -8.2286e-07 0)
(1.302e-18 -8.90522e-07 0)
(1.38677e-18 -9.49614e-07 0)
(1.51592e-18 -1.07413e-06 0)
(1.42909e-16 -8.73584e-06 0)
(1.89077e-16 -3.40177e-06 0)
(1.60728e-16 -5.19343e-06 0)
(1.34511e-16 -6.88981e-06 0)
(1.11694e-16 -6.80881e-06 0)
(9.26244e-17 8.68775e-06 0)
(7.75866e-17 9.09235e-06 0)
(6.76842e-17 -0.000321693 0)
(6.64843e-17 -0.000131322 0)
(6.32846e-17 -0.000205665 0)
(5.99911e-17 -0.000325775 0)
(5.67816e-17 -0.000232436 0)
(5.36584e-17 -0.000228912 0)
(5.06189e-17 -0.000228237 0)
(4.76627e-17 -0.000228504 0)
(4.47904e-17 -0.000228569 0)
(4.20011e-17 -0.00022855 0)
(3.92945e-17 -0.000228544 0)
(3.66683e-17 -0.000228546 0)
(3.41213e-17 -0.000228546 0)
(3.165e-17 -0.000228546 0)
(2.92522e-17 -0.000228546 0)
(2.69234e-17 -0.000228546 0)
(2.46605e-17 -0.000228546 0)
(2.24586e-17 -0.000228546 0)
(2.03136e-17 -0.000228546 0)
(1.82207e-17 -0.000228546 0)
(1.61752e-17 -0.000228546 0)
(1.4172e-17 -0.000228546 0)
(1.22067e-17 -0.000228546 0)
(1.02735e-17 -0.000228546 0)
(8.36801e-18 -0.000228546 0)
(6.485e-18 -0.000228546 0)
(4.61949e-18 -0.000228518 0)
(2.76647e-18 -0.000228481 0)
(9.2105e-19 -0.000228045 0)
)
;

boundaryField
{
    inlet
    {
        type            cyclic;
    }
    outlet
    {
        type            cyclic;
    }
    top
    {
        type            fixedValue;
        value           uniform (0 0 0);
    }
    bottom
    {
        type            fixedValue;
        value           uniform (0 0 0);
    }
    frontAndBackPlanes
    {
        type            empty;
    }
}


// ************************************************************************* //
