/*--------------------------------*- C++ -*----------------------------------*\
| =========                 |                                                 |
| \\      /  F ield         | OpenFOAM: The Open Source CFD Toolbox           |
|  \\    /   O peration     | Version:  v2006                                 |
|   \\  /    A nd           | Website:  www.openfoam.com                      |
|    \\/     M anipulation  |                                                 |
\*---------------------------------------------------------------------------*/
FoamFile
{
    version     2.0;
    format      ascii;
    class       volVectorField;
    location    "1240";
    object      Ub;
}
// * * * * * * * * * * * * * * * * * * * * * * * * * * * * * * * * * * * * * //

dimensions      [0 1 -1 0 0 0 0];


internalField   nonuniform List<vector> 
120
(
(2.23341e-21 2.02443e-09 0)
(6.70487e-21 6.09587e-09 0)
(1.11987e-20 1.02157e-08 0)
(1.55857e-20 1.43922e-08 0)
(2.00094e-20 1.86261e-08 0)
(2.44657e-20 2.29187e-08 0)
(2.90254e-20 2.72713e-08 0)
(3.33012e-20 3.16854e-08 0)
(3.76103e-20 3.61627e-08 0)
(4.23547e-20 4.07046e-08 0)
(4.70834e-20 4.5313e-08 0)
(5.17715e-20 4.99896e-08 0)
(5.6984e-20 5.47362e-08 0)
(6.21725e-20 5.95547e-08 0)
(6.74622e-20 6.44472e-08 0)
(7.28623e-20 6.94157e-08 0)
(7.83812e-20 7.44624e-08 0)
(8.40276e-20 7.95896e-08 0)
(8.98105e-20 8.47998e-08 0)
(9.57387e-20 9.00955e-08 0)
(1.01822e-19 9.54794e-08 0)
(1.08068e-19 1.00954e-07 0)
(1.14483e-19 1.06523e-07 0)
(1.20019e-19 1.12189e-07 0)
(1.2869e-19 1.17954e-07 0)
(1.36502e-19 1.23824e-07 0)
(1.45138e-19 1.298e-07 0)
(1.52354e-19 1.35887e-07 0)
(1.60423e-19 1.42089e-07 0)
(1.70149e-19 1.48408e-07 0)
(1.77959e-19 1.54851e-07 0)
(1.83676e-19 1.6142e-07 0)
(1.91137e-19 1.6812e-07 0)
(1.98884e-19 1.74956e-07 0)
(2.06908e-19 1.81934e-07 0)
(2.13415e-19 1.89058e-07 0)
(2.22786e-19 1.96334e-07 0)
(2.37164e-19 2.03769e-07 0)
(2.433e-19 2.1137e-07 0)
(2.60693e-19 2.19143e-07 0)
(2.64281e-19 2.27097e-07 0)
(2.79753e-19 2.35241e-07 0)
(2.88127e-19 2.43584e-07 0)
(2.9907e-19 2.52136e-07 0)
(3.07922e-19 2.60908e-07 0)
(3.28074e-19 2.69912e-07 0)
(3.34183e-19 2.79159e-07 0)
(3.48519e-19 2.88662e-07 0)
(3.5124e-19 2.98435e-07 0)
(3.70138e-19 3.08491e-07 0)
(3.83756e-19 3.18846e-07 0)
(3.97748e-19 3.29514e-07 0)
(4.1215e-19 3.40512e-07 0)
(4.26955e-19 3.51859e-07 0)
(4.38722e-19 3.63574e-07 0)
(4.58714e-19 3.75682e-07 0)
(4.75698e-19 3.8821e-07 0)
(4.93186e-19 4.0119e-07 0)
(5.19122e-19 4.14662e-07 0)
(5.28056e-19 4.28671e-07 0)
(5.45461e-19 4.43271e-07 0)
(5.6351e-19 4.58526e-07 0)
(5.82216e-19 4.74505e-07 0)
(6.0168e-19 4.91286e-07 0)
(6.3162e-19 5.08952e-07 0)
(6.31112e-19 5.27587e-07 0)
(6.63214e-19 5.47277e-07 0)
(6.86286e-19 5.68106e-07 0)
(7.10427e-19 5.9016e-07 0)
(7.35817e-19 6.13533e-07 0)
(7.74718e-19 6.38344e-07 0)
(7.88662e-19 6.64771e-07 0)
(8.1626e-19 6.93108e-07 0)
(8.45513e-19 7.23866e-07 0)
(8.76819e-19 7.57931e-07 0)
(9.1105e-19 7.96811e-07 0)
(9.49598e-19 8.42827e-07 0)
(9.942e-19 8.9836e-07 0)
(1.04633e-18 9.69806e-07 0)
(1.1139e-18 1.0597e-06 0)
(1.20565e-18 1.15493e-06 0)
(1.30226e-18 1.22985e-06 0)
(1.3918e-18 1.19525e-06 0)
(2.35765e-18 3.41454e-06 0)
(1.42906e-16 1.49133e-06 0)
(1.888e-16 8.13076e-06 0)
(1.60728e-16 7.05423e-06 0)
(1.34511e-16 5.70697e-06 0)
(1.11694e-16 5.9568e-06 0)
(9.26246e-17 2.12851e-05 0)
(7.75868e-17 2.31872e-05 0)
(6.76845e-17 -0.000308848 0)
(6.64844e-17 -2.52733e-06 0)
(6.32768e-17 5.35311e-05 0)
(5.99879e-17 2.48726e-06 0)
(5.67819e-17 -4.09674e-06 0)
(5.36589e-17 -3.62141e-07 0)
(5.06192e-17 3.05894e-07 0)
(4.76631e-17 4.1016e-08 0)
(4.47907e-17 -2.23106e-08 0)
(4.20015e-17 -4.11853e-09 0)
(3.92947e-17 1.59105e-09 0)
(3.66687e-17 4.0961e-10 0)
(3.41215e-17 -9.45011e-11 0)
(3.16504e-17 -2.39454e-11 0)
(2.92524e-17 1.90518e-11 0)
(2.69238e-17 1.5381e-11 0)
(2.46607e-17 1.15775e-11 0)
(2.24588e-17 1.13372e-11 0)
(2.03138e-17 1.11023e-11 0)
(1.82209e-17 1.04569e-11 0)
(1.61754e-17 9.74396e-12 0)
(1.41723e-17 9.19715e-12 0)
(1.22068e-17 8.8076e-12 0)
(1.02737e-17 8.50036e-12 0)
(8.36823e-18 8.15239e-12 0)
(6.48522e-18 7.73942e-12 0)
(4.6197e-18 7.34161e-12 0)
(2.76668e-18 7.79032e-12 0)
(9.21154e-19 7.33715e-12 0)
)
;

boundaryField
{
    inlet
    {
        type            cyclic;
    }
    outlet
    {
        type            cyclic;
    }
    top
    {
        type            fixedValue;
        value           uniform (0 0 0);
    }
    bottom
    {
        type            fixedValue;
        value           uniform (0 0 0);
    }
    frontAndBackPlanes
    {
        type            empty;
    }
}


// ************************************************************************* //
