/*--------------------------------*- C++ -*----------------------------------*\
| =========                 |                                                 |
| \\      /  F ield         | OpenFOAM: The Open Source CFD Toolbox           |
|  \\    /   O peration     | Version:  v2006                                 |
|   \\  /    A nd           | Website:  www.openfoam.com                      |
|    \\/     M anipulation  |                                                 |
\*---------------------------------------------------------------------------*/
FoamFile
{
    version     2.0;
    format      ascii;
    class       volScalarField;
    location    "1640";
    object      p;
}
// * * * * * * * * * * * * * * * * * * * * * * * * * * * * * * * * * * * * * //

dimensions      [1 -1 -2 0 0 0 0];


internalField   nonuniform List<scalar> 
120
(
-2.24171
-6.90147
-11.5613
-16.2211
-20.8809
-25.5407
-30.2006
-34.8605
-39.5204
-44.1803
-48.8402
-53.5002
-58.1601
-62.8201
-67.4802
-72.1402
-76.8002
-81.4603
-86.1204
-90.7805
-95.4407
-100.101
-104.761
-109.421
-114.081
-118.742
-123.402
-128.062
-132.723
-137.383
-142.043
-146.704
-151.364
-156.024
-160.685
-165.345
-170.006
-174.666
-179.327
-183.987
-188.648
-193.309
-197.969
-202.63
-207.291
-211.951
-216.612
-221.273
-225.933
-230.594
-235.255
-239.916
-244.577
-249.238
-253.899
-258.559
-263.22
-267.881
-272.542
-277.203
-281.865
-286.526
-291.187
-295.848
-300.509
-305.17
-309.831
-314.493
-319.154
-323.815
-328.477
-333.138
-337.799
-342.461
-347.122
-351.783
-356.445
-361.106
-365.768
-370.429
-375.091
-379.753
-384.414
-389.076
-393.737
-398.399
-403.061
-407.722
-412.384
-417.045
-421.706
-426.367
-431.027
-435.687
-440.346
-445.006
-449.666
-454.326
-458.985
-463.645
-468.305
-472.965
-477.624
-482.284
-486.944
-491.604
-496.263
-500.923
-505.583
-510.243
-514.902
-519.562
-524.222
-528.882
-533.541
-538.201
-542.861
-547.521
-552.18
-556.84
)
;

boundaryField
{
    inlet
    {
        type            cyclic;
    }
    outlet
    {
        type            cyclic;
    }
    top
    {
        type            calculated;
        value           uniform -559.17;
    }
    bottom
    {
        type            calculated;
        value           uniform 0.0881696;
    }
    frontAndBackPlanes
    {
        type            empty;
    }
}


// ************************************************************************* //
