/*--------------------------------*- C++ -*----------------------------------*\
| =========                 |                                                 |
| \\      /  F ield         | OpenFOAM: The Open Source CFD Toolbox           |
|  \\    /   O peration     | Version:  v2006                                 |
|   \\  /    A nd           | Website:  www.openfoam.com                      |
|    \\/     M anipulation  |                                                 |
\*---------------------------------------------------------------------------*/
FoamFile
{
    version     2.0;
    format      ascii;
    class       volScalarField;
    location    "1640";
    object      p_p_total;
}
// * * * * * * * * * * * * * * * * * * * * * * * * * * * * * * * * * * * * * //

dimensions      [1 -1 -2 0 0 0 0];


internalField   nonuniform List<scalar> 
120
(
26.1995
25.9052
25.6109
25.3166
25.0224
24.7283
24.4341
24.14
23.846
23.552
23.258
22.9641
22.6702
22.3763
22.0825
21.7888
21.495
21.2013
20.9077
20.6141
20.3206
20.0271
19.7336
19.4402
19.1468
18.8535
18.5602
18.267
17.9738
17.6807
17.3876
17.0946
16.8016
16.5087
16.2158
15.923
15.6302
15.3375
15.0449
14.7523
14.4597
14.1673
13.8748
13.5825
13.2902
12.9979
12.7058
12.4137
12.1216
11.8296
11.5377
11.2459
10.9541
10.6624
10.3708
10.0793
9.78781
9.49642
9.20511
8.91389
8.62275
8.33169
8.04073
7.74986
7.45908
7.16839
6.87781
6.58733
6.29695
6.00669
5.71654
5.42651
5.1366
4.84682
4.55717
4.26767
3.97831
3.68911
3.40008
3.11122
2.82256
2.5341
2.24587
1.95788
1.67015
1.3828
1.09617
0.809475
0.515791
0.208984
0
0
0
0
0
0
0
0
0
0
0
0
0
0
0
0
0
0
0
0
0
0
0
0
0
0
0
0
0
0
)
;

boundaryField
{
    inlet
    {
        type            cyclic;
    }
    outlet
    {
        type            cyclic;
    }
    top
    {
        type            calculated;
        value           uniform 0;
    }
    bottom
    {
        type            calculated;
        value           uniform 26.1995;
    }
    frontAndBackPlanes
    {
        type            empty;
    }
}


// ************************************************************************* //
