/*--------------------------------*- C++ -*----------------------------------*\
| =========                 |                                                 |
| \\      /  F ield         | OpenFOAM: The Open Source CFD Toolbox           |
|  \\    /   O peration     | Version:  v2006                                 |
|   \\  /    A nd           | Website:  www.openfoam.com                      |
|    \\/     M anipulation  |                                                 |
\*---------------------------------------------------------------------------*/
FoamFile
{
    version     2.0;
    format      ascii;
    class       surfaceScalarField;
    location    "1640";
    object      phia;
}
// * * * * * * * * * * * * * * * * * * * * * * * * * * * * * * * * * * * * * //

dimensions      [0 3 -1 0 0 0 0];
oriented        oriented;


internalField   nonuniform List<scalar> 
119
(
-4.46486e-17
-8.97982e-17
-1.35447e-16
-1.81591e-16
-2.28224e-16
-2.75341e-16
-3.22936e-16
-3.71005e-16
-4.19541e-16
-4.68539e-16
-5.17995e-16
-5.67902e-16
-6.18257e-16
-6.69054e-16
-7.20291e-16
-7.71963e-16
-8.24066e-16
-8.76599e-16
-9.2956e-16
-9.82945e-16
-1.03676e-15
-1.09099e-15
-1.14565e-15
-1.20073e-15
-1.25624e-15
-1.31218e-15
-1.36854e-15
-1.42534e-15
-1.48258e-15
-1.54025e-15
-1.59837e-15
-1.65694e-15
-1.71596e-15
-1.77543e-15
-1.83537e-15
-1.89578e-15
-1.95667e-15
-2.01803e-15
-2.07989e-15
-2.14224e-15
-2.20509e-15
-2.26844e-15
-2.33231e-15
-2.3967e-15
-2.46162e-15
-2.52707e-15
-2.59307e-15
-2.65961e-15
-2.7267e-15
-2.79435e-15
-2.86257e-15
-2.93135e-15
-3.00071e-15
-3.07064e-15
-3.14115e-15
-3.21225e-15
-3.28393e-15
-3.3562e-15
-3.42905e-15
-3.50248e-15
-3.5765e-15
-3.6511e-15
-3.72627e-15
-3.802e-15
-3.8783e-15
-3.95514e-15
-4.03253e-15
-4.11044e-15
-4.18887e-15
-4.2678e-15
-4.34721e-15
-4.4271e-15
-4.50742e-15
-4.58817e-15
-4.6693e-15
-4.75076e-15
-4.83248e-15
-4.91441e-15
-4.99643e-15
-5.07847e-15
-5.16044e-15
-5.24232e-15
-5.32415e-15
-5.40618e-15
-5.48896e-15
-5.57284e-15
-5.65601e-15
-5.74637e-15
-5.97655e-15
-1.33708e-14
-1.72426e-12
-4.03611e-11
-6.05228e-11
-8.2184e-11
-8.22702e-11
-8.22749e-11
-8.22765e-11
-8.22766e-11
-8.22766e-11
-8.22766e-11
-8.22766e-11
-8.22766e-11
-8.22766e-11
-8.22766e-11
-8.22766e-11
-8.22766e-11
-8.22766e-11
-8.22766e-11
-8.22766e-11
-8.22766e-11
-8.22766e-11
-8.22766e-11
-8.22766e-11
-8.22766e-11
-8.22766e-11
-8.22766e-11
-8.22766e-11
-8.22565e-11
-8.21697e-11
)
;

boundaryField
{
    inlet
    {
        type            cyclic;
        value           nonuniform List<scalar> 
120
(
-1.12154e-27
-3.36649e-27
-5.61577e-27
-7.84191e-27
-1.00782e-26
-1.23275e-26
-1.45927e-26
-1.68161e-26
-1.90611e-26
-2.13916e-26
-2.37497e-26
-2.61382e-26
-2.86208e-26
-3.11397e-26
-3.36977e-26
-3.62978e-26
-3.89428e-26
-4.16356e-26
-4.4379e-26
-4.71758e-26
-5.00289e-26
-5.29408e-26
-5.59144e-26
-5.89522e-26
-6.22996e-26
-6.57163e-26
-6.92047e-26
-7.26459e-26
-7.61634e-26
-7.97592e-26
-8.31928e-26
-8.6466e-26
-8.9823e-26
-9.32653e-26
-9.67942e-26
-1.00411e-25
-1.04358e-25
-1.08637e-25
-1.12764e-25
-1.17222e-25
-1.21285e-25
-1.25679e-25
-1.29919e-25
-1.34246e-25
-1.38658e-25
-1.43395e-25
-1.4773e-25
-1.52143e-25
-1.56389e-25
-1.61192e-25
-1.66062e-25
-1.70996e-25
-1.75989e-25
-1.81037e-25
-1.86132e-25
-1.91512e-25
-1.96928e-25
-2.02373e-25
-2.0784e-25
-2.12839e-25
-2.17845e-25
-2.2285e-25
-2.27846e-25
-2.32824e-25
-2.37775e-25
-2.42207e-25
-2.47078e-25
-2.51894e-25
-2.56647e-25
-2.61328e-25
-2.65927e-25
-2.69954e-25
-2.73881e-25
-2.77699e-25
-2.814e-25
-2.84975e-25
-2.88417e-25
-2.91717e-25
-2.94869e-25
-2.97865e-25
-3.00698e-25
-3.03363e-25
-3.05855e-25
-3.08167e-25
-3.10296e-25
-3.12238e-25
-3.13036e-25
-3.1364e-25
-3.14048e-25
-3.14258e-25
-3.1434e-25
-3.15963e-25
-3.18243e-25
-3.20224e-25
-3.21737e-25
-3.22645e-25
-3.22822e-25
-3.22151e-25
-3.20525e-25
-3.17847e-25
-3.14033e-25
-3.09007e-25
-3.02709e-25
-2.9509e-25
-2.86121e-25
-2.75779e-25
-2.64068e-25
-2.50994e-25
-2.36592e-25
-2.20899e-25
-2.03976e-25
-1.85891e-25
-1.66733e-25
-1.46592e-25
-1.25579e-25
-1.0381e-25
-8.14106e-26
-5.85133e-26
-3.52562e-26
-1.1783e-26
)
;
    }
    outlet
    {
        type            cyclic;
        value           nonuniform List<scalar> 
120
(
1.12154e-27
3.36649e-27
5.61577e-27
7.84191e-27
1.00782e-26
1.23275e-26
1.45927e-26
1.68161e-26
1.90611e-26
2.13916e-26
2.37497e-26
2.61382e-26
2.86208e-26
3.11397e-26
3.36977e-26
3.62978e-26
3.89428e-26
4.16356e-26
4.4379e-26
4.71758e-26
5.00289e-26
5.29408e-26
5.59144e-26
5.89522e-26
6.22996e-26
6.57163e-26
6.92047e-26
7.26459e-26
7.61634e-26
7.97592e-26
8.31928e-26
8.6466e-26
8.9823e-26
9.32653e-26
9.67942e-26
1.00411e-25
1.04358e-25
1.08637e-25
1.12764e-25
1.17222e-25
1.21285e-25
1.25679e-25
1.29919e-25
1.34246e-25
1.38658e-25
1.43395e-25
1.4773e-25
1.52143e-25
1.56389e-25
1.61192e-25
1.66062e-25
1.70996e-25
1.75989e-25
1.81037e-25
1.86132e-25
1.91512e-25
1.96928e-25
2.02373e-25
2.0784e-25
2.12839e-25
2.17845e-25
2.2285e-25
2.27846e-25
2.32824e-25
2.37775e-25
2.42207e-25
2.47078e-25
2.51894e-25
2.56647e-25
2.61328e-25
2.65927e-25
2.69954e-25
2.73881e-25
2.77699e-25
2.814e-25
2.84975e-25
2.88417e-25
2.91717e-25
2.94869e-25
2.97865e-25
3.00698e-25
3.03363e-25
3.05855e-25
3.08167e-25
3.10296e-25
3.12238e-25
3.13036e-25
3.1364e-25
3.14048e-25
3.14258e-25
3.1434e-25
3.15963e-25
3.18243e-25
3.20224e-25
3.21737e-25
3.22645e-25
3.22822e-25
3.22151e-25
3.20525e-25
3.17847e-25
3.14033e-25
3.09007e-25
3.02709e-25
2.9509e-25
2.86121e-25
2.75779e-25
2.64068e-25
2.50994e-25
2.36592e-25
2.20899e-25
2.03976e-25
1.85891e-25
1.66733e-25
1.46592e-25
1.25579e-25
1.0381e-25
8.14106e-26
5.85133e-26
3.52562e-26
1.1783e-26
)
;
    }
    top
    {
        type            fixedValue;
        value           uniform 0;
    }
    bottom
    {
        type            fixedValue;
        value           uniform 0;
    }
    frontAndBackPlanes
    {
        type            empty;
        value           nonuniform List<scalar> 0();
    }
}


// ************************************************************************* //
