/*--------------------------------*- C++ -*----------------------------------*\
| =========                 |                                                 |
| \\      /  F ield         | OpenFOAM: The Open Source CFD Toolbox           |
|  \\    /   O peration     | Version:  v2006                                 |
|   \\  /    A nd           | Website:  www.openfoam.com                      |
|    \\/     M anipulation  |                                                 |
\*---------------------------------------------------------------------------*/
FoamFile
{
    version     2.0;
    format      ascii;
    class       surfaceScalarField;
    location    "1640";
    object      phib;
}
// * * * * * * * * * * * * * * * * * * * * * * * * * * * * * * * * * * * * * //

dimensions      [0 3 -1 0 0 0 0];
oriented        oriented;


internalField   nonuniform List<scalar> 
119
(
6.699e-17
1.34705e-16
2.03143e-16
2.72294e-16
3.42151e-16
4.12703e-16
4.83943e-16
5.55861e-16
6.28448e-16
7.01694e-16
7.75591e-16
8.50131e-16
9.25304e-16
1.0011e-15
1.07752e-15
1.15455e-15
1.23219e-15
1.31043e-15
1.38926e-15
1.46869e-15
1.54871e-15
1.62931e-15
1.7105e-15
1.79228e-15
1.87464e-15
1.95759e-15
2.04113e-15
2.12526e-15
2.20998e-15
2.2953e-15
2.38121e-15
2.46774e-15
2.55487e-15
2.64262e-15
2.73099e-15
2.81999e-15
2.90962e-15
2.99989e-15
3.09081e-15
3.18238e-15
3.2746e-15
3.3675e-15
3.46106e-15
3.5553e-15
3.65023e-15
3.74584e-15
3.84214e-15
3.93915e-15
4.03685e-15
4.13527e-15
4.23438e-15
4.33421e-15
4.43473e-15
4.53597e-15
4.6379e-15
4.74053e-15
4.84385e-15
4.94786e-15
5.05254e-15
5.15788e-15
5.26385e-15
5.37045e-15
5.47765e-15
5.58543e-15
5.69375e-15
5.80259e-15
5.9119e-15
6.02165e-15
6.13178e-15
6.24224e-15
6.35298e-15
6.46393e-15
6.57502e-15
6.68614e-15
6.79718e-15
6.908e-15
7.01841e-15
7.1282e-15
7.23709e-15
7.34481e-15
7.45102e-15
7.5554e-15
7.65766e-15
7.75759e-15
7.85519e-15
7.94974e-15
8.03638e-15
8.12091e-15
8.3709e-15
1.25779e-14
4.22987e-13
1.33353e-13
3.33059e-16
3.97195e-20
4.6598e-20
5.76062e-20
6.66373e-20
7.93436e-20
8.60944e-20
9.54912e-20
9.81495e-20
1.04283e-19
1.035e-19
1.09434e-19
1.11524e-19
1.20362e-19
1.21217e-19
1.26072e-19
1.22672e-19
1.2334e-19
1.1623e-19
1.16019e-19
1.12313e-19
1.15625e-19
1.12409e-19
1.1321e-19
1.07549e-19
1.05807e-19
9.74645e-20
)
;

boundaryField
{
    inlet
    {
        type            cyclic;
        value           nonuniform List<scalar> 
120
(
-1.12154e-27
-3.36649e-27
-5.61581e-27
-7.84191e-27
-1.00782e-26
-1.23275e-26
-1.45934e-26
-1.68161e-26
-1.90602e-26
-2.13916e-26
-2.37497e-26
-2.61368e-26
-2.86208e-26
-3.11397e-26
-3.36977e-26
-3.62978e-26
-3.89428e-26
-4.16356e-26
-4.4379e-26
-4.71758e-26
-5.00289e-26
-5.29408e-26
-5.59143e-26
-5.89392e-26
-6.22995e-26
-6.57163e-26
-6.92122e-26
-7.26459e-26
-7.61635e-26
-7.97763e-26
-8.32106e-26
-8.64661e-26
-8.9823e-26
-9.32653e-26
-9.67941e-26
-1.00389e-25
-1.04336e-25
-1.0866e-25
-1.12741e-25
-1.1727e-25
-1.2126e-25
-1.25705e-25
-1.29919e-25
-1.34246e-25
-1.3863e-25
-1.43453e-25
-1.4773e-25
-1.52173e-25
-1.56327e-25
-1.61191e-25
-1.66062e-25
-1.70996e-25
-1.75989e-25
-1.81036e-25
-1.86096e-25
-1.91512e-25
-1.96928e-25
-2.02373e-25
-2.07919e-25
-2.1284e-25
-2.17845e-25
-2.2285e-25
-2.27846e-25
-2.32824e-25
-2.37863e-25
-2.42117e-25
-2.47077e-25
-2.51894e-25
-2.56647e-25
-2.61329e-25
-2.66027e-25
-2.69955e-25
-2.73881e-25
-2.77699e-25
-2.814e-25
-2.84975e-25
-2.88417e-25
-2.91717e-25
-2.94869e-25
-2.97865e-25
-3.00698e-25
-3.03363e-25
-3.05855e-25
-3.08167e-25
-3.10297e-25
-3.12491e-25
-3.13037e-25
-3.1364e-25
-3.14048e-25
-3.14259e-25
-3.1437e-25
-3.15966e-25
-3.18248e-25
-3.20226e-25
-3.21737e-25
-3.22645e-25
-3.22822e-25
-3.2215e-25
-3.20525e-25
-3.17848e-25
-3.14033e-25
-3.09008e-25
-3.02709e-25
-2.95091e-25
-2.86121e-25
-2.75781e-25
-2.64068e-25
-2.50996e-25
-2.36593e-25
-2.20901e-25
-2.03977e-25
-1.85894e-25
-1.66734e-25
-1.46594e-25
-1.25581e-25
-1.03812e-25
-8.1413e-26
-5.85157e-26
-3.52588e-26
-1.17843e-26
)
;
    }
    outlet
    {
        type            cyclic;
        value           nonuniform List<scalar> 
120
(
1.12154e-27
3.36649e-27
5.61581e-27
7.84191e-27
1.00782e-26
1.23275e-26
1.45934e-26
1.68161e-26
1.90602e-26
2.13916e-26
2.37497e-26
2.61368e-26
2.86208e-26
3.11397e-26
3.36977e-26
3.62978e-26
3.89428e-26
4.16356e-26
4.4379e-26
4.71758e-26
5.00289e-26
5.29408e-26
5.59143e-26
5.89392e-26
6.22995e-26
6.57163e-26
6.92122e-26
7.26459e-26
7.61635e-26
7.97763e-26
8.32106e-26
8.64661e-26
8.9823e-26
9.32653e-26
9.67941e-26
1.00389e-25
1.04336e-25
1.0866e-25
1.12741e-25
1.1727e-25
1.2126e-25
1.25705e-25
1.29919e-25
1.34246e-25
1.3863e-25
1.43453e-25
1.4773e-25
1.52173e-25
1.56327e-25
1.61191e-25
1.66062e-25
1.70996e-25
1.75989e-25
1.81036e-25
1.86096e-25
1.91512e-25
1.96928e-25
2.02373e-25
2.07919e-25
2.1284e-25
2.17845e-25
2.2285e-25
2.27846e-25
2.32824e-25
2.37863e-25
2.42117e-25
2.47077e-25
2.51894e-25
2.56647e-25
2.61329e-25
2.66027e-25
2.69955e-25
2.73881e-25
2.77699e-25
2.814e-25
2.84975e-25
2.88417e-25
2.91717e-25
2.94869e-25
2.97865e-25
3.00698e-25
3.03363e-25
3.05855e-25
3.08167e-25
3.10297e-25
3.12491e-25
3.13037e-25
3.1364e-25
3.14048e-25
3.14259e-25
3.1437e-25
3.15966e-25
3.18248e-25
3.20226e-25
3.21737e-25
3.22645e-25
3.22822e-25
3.2215e-25
3.20525e-25
3.17848e-25
3.14033e-25
3.09008e-25
3.02709e-25
2.95091e-25
2.86121e-25
2.75781e-25
2.64068e-25
2.50996e-25
2.36593e-25
2.20901e-25
2.03977e-25
1.85894e-25
1.66734e-25
1.46594e-25
1.25581e-25
1.03812e-25
8.1413e-26
5.85157e-26
3.52588e-26
1.17843e-26
)
;
    }
    top
    {
        type            fixedValue;
        value           uniform 0;
    }
    bottom
    {
        type            fixedValue;
        value           uniform 0;
    }
    frontAndBackPlanes
    {
        type            empty;
        value           nonuniform List<scalar> 0();
    }
}


// ************************************************************************* //
