/*--------------------------------*- C++ -*----------------------------------*\
| =========                 |                                                 |
| \\      /  F ield         | OpenFOAM: The Open Source CFD Toolbox           |
|  \\    /   O peration     | Version:  v2006                                 |
|   \\  /    A nd           | Website:  www.openfoam.com                      |
|    \\/     M anipulation  |                                                 |
\*---------------------------------------------------------------------------*/
FoamFile
{
    version     2.0;
    format      ascii;
    class       volTensorField;
    location    "1640";
    object      Taua;
}
// * * * * * * * * * * * * * * * * * * * * * * * * * * * * * * * * * * * * * //

dimensions      [1 -1 -2 0 0 0 0];


internalField   nonuniform List<tensor> 
120
(
(8.69059e-05 0 0 1.57081e-14 -0.000173812 0 0 0 8.69059e-05)
(8.76917e-05 0 0 1.57298e-14 -0.000175383 0 0 0 8.76917e-05)
(8.87636e-05 0 0 1.5664e-14 -0.000177527 0 0 0 8.87636e-05)
(8.97317e-05 0 0 1.56185e-14 -0.000179463 0 0 0 8.97317e-05)
(9.06755e-05 0 0 1.56996e-14 -0.000181351 0 0 0 9.06755e-05)
(9.16157e-05 0 0 1.5801e-14 -0.000183231 0 0 0 9.16157e-05)
(9.25467e-05 0 0 1.571e-14 -0.000185093 0 0 0 9.25467e-05)
(9.34666e-05 0 0 1.56394e-14 -0.000186933 0 0 0 9.34666e-05)
(9.43757e-05 0 0 1.60144e-14 -0.000188751 0 0 0 9.43757e-05)
(9.52746e-05 0 0 1.64098e-14 -0.000190549 0 0 0 9.52746e-05)
(9.61633e-05 0 0 1.66129e-14 -0.000192327 0 0 0 9.61633e-05)
(9.70423e-05 0 0 1.70489e-14 -0.000194085 0 0 0 9.70423e-05)
(9.79121e-05 0 0 1.75052e-14 -0.000195824 0 0 0 9.79121e-05)
(9.87733e-05 0 0 1.77693e-14 -0.000197547 0 0 0 9.87733e-05)
(9.96266e-05 0 0 1.80535e-14 -0.000199253 0 0 0 9.96266e-05)
(0.000100473 0 0 1.83579e-14 -0.000200946 0 0 0 0.000100473)
(0.000101313 0 0 1.86824e-14 -0.000202626 0 0 0 0.000101313)
(0.000102148 0 0 1.90267e-14 -0.000204295 0 0 0 0.000102148)
(0.000102978 0 0 1.93908e-14 -0.000205957 0 0 0 0.000102978)
(0.000103806 0 0 1.97744e-14 -0.000207612 0 0 0 0.000103806)
(0.000104631 0 0 2.01774e-14 -0.000209262 0 0 0 0.000104631)
(0.000105456 0 0 2.05993e-14 -0.000210911 0 0 0 0.000105456)
(0.00010628 0 0 2.10399e-14 -0.000212561 0 0 0 0.00010628)
(0.000107106 0 0 2.23482e-14 -0.000214212 0 0 0 0.000107106)
(0.000107934 0 0 2.36743e-14 -0.000215869 0 0 0 0.000107934)
(0.000108766 0 0 2.41681e-14 -0.000217532 0 0 0 0.000108766)
(0.000109602 0 0 2.42537e-14 -0.000219203 0 0 0 0.000109602)
(0.000110443 0 0 2.43553e-14 -0.000220886 0 0 0 0.000110443)
(0.00011129 0 0 2.48966e-14 -0.000222581 0 0 0 0.00011129)
(0.000112145 0 0 2.4603e-14 -0.00022429 0 0 0 0.000112145)
(0.000113007 0 0 2.34737e-14 -0.000226015 0 0 0 0.000113007)
(0.000113879 0 0 2.32057e-14 -0.000227757 0 0 0 0.000113879)
(0.000114759 0 0 2.37976e-14 -0.000229519 0 0 0 0.000114759)
(0.00011565 0 0 2.43993e-14 -0.0002313 0 0 0 0.00011565)
(0.000116551 0 0 2.50089e-14 -0.000233102 0 0 0 0.000116551)
(0.000117464 2.30085e-18 0 2.64739e-14 -0.000234927 0 0 0 0.000117464)
(0.000118388 0 0 2.87933e-14 -0.000236775 0 0 0 0.000118388)
(0.000119324 0 0 2.94192e-14 -0.000238647 0 0 0 0.000119324)
(0.000120272 0 0 3.0046e-14 -0.000240544 0 0 0 0.000120272)
(0.000121233 0 0 2.98244e-14 -0.000242465 0 0 0 0.000121233)
(0.000122206 0 0 2.96e-14 -0.000244413 0 0 0 0.000122206)
(0.000123193 0 0 3.02192e-14 -0.000246386 0 0 0 0.000123193)
(0.000124193 0 0 2.99833e-14 -0.000248385 0 0 0 0.000124193)
(0.000125205 0 0 3.05859e-14 -0.00025041 0 0 0 0.000125205)
(0.000126231 0 0 3.20241e-14 -0.000252462 0 0 0 0.000126231)
(0.000127269 0 0 3.17527e-14 -0.000254539 0 0 0 0.000127269)
(0.00012832 0 0 3.06162e-14 -0.00025664 0 0 0 0.00012832)
(0.000129383 0 0 3.03075e-14 -0.000258766 0 0 0 0.000129383)
(0.000130458 0 0 3.16703e-14 -0.000260916 0 0 0 0.000130458)
(0.000131544 0 0 3.38547e-14 -0.000263087 0 0 0 0.000131544)
(0.00013264 0 0 3.43161e-14 -0.000265279 0 0 0 0.00013264)
(0.000133745 0 0 3.47459e-14 -0.000267491 0 0 0 0.000133745)
(0.00013486 0 0 3.51413e-14 -0.000269719 0 0 0 0.00013486)
(0.000135982 0 0 3.54992e-14 -0.000271963 0 0 0 0.000135982)
(0.00013711 0 0 3.66634e-14 -0.000274219 0 0 0 0.00013711)
(0.000138243 0 0 3.77845e-14 -0.000276486 0 0 0 0.000138243)
(0.000139379 0 0 3.80135e-14 -0.000278759 0 0 0 0.000139379)
(0.000140518 0 0 3.81947e-14 -0.000281036 0 0 0 0.000140518)
(0.000141656 -2.30085e-18 0 3.66335e-14 -0.000283312 0 0 0 0.000141656)
(0.000142792 0 0 3.50177e-14 -0.000285584 0 0 0 0.000142792)
(0.000143923 0 0 3.50382e-14 -0.000287847 0 0 0 0.000143923)
(0.000145048 0 0 3.50018e-14 -0.000290096 0 0 0 0.000145048)
(0.000146163 0 0 3.49063e-14 -0.000292325 0 0 0 0.000146163)
(0.000147265 0 0 3.47501e-14 -0.00029453 0 0 0 0.000147265)
(0.000148352 0 0 3.28425e-14 -0.000296705 0 0 0 0.000148352)
(0.000149422 0 0 3.25606e-14 -0.000298844 0 0 0 0.000149422)
(0.000150471 0 0 3.39041e-14 -0.000300942 0 0 0 0.000150471)
(0.000151498 0 0 3.34942e-14 -0.000302995 0 0 0 0.000151498)
(0.000152499 0 0 3.30196e-14 -0.000304998 0 0 0 0.000152499)
(0.000153473 0 0 3.24804e-14 -0.000306947 0 0 0 0.000153473)
(0.000154417 0 0 3.01904e-14 -0.000308834 0 0 0 0.000154417)
(0.000155326 0 0 2.7837e-14 -0.000310652 0 0 0 0.000155326)
(0.000156192 0 0 2.71075e-14 -0.000312384 0 0 0 0.000156192)
(0.000157004 0 0 2.6317e-14 -0.000314008 0 0 0 0.000157004)
(0.000157746 0 0 2.54671e-14 -0.000315491 0 0 0 0.000157746)
(0.000158393 0 0 2.45596e-14 -0.000316786 0 0 0 0.000158393)
(0.000158919 0 0 2.35968e-14 -0.000317838 0 0 0 0.000158919)
(0.000159291 0 0 2.25811e-14 -0.000318582 0 0 0 0.000159291)
(0.000159484 0 0 2.15153e-14 -0.000318968 0 0 0 0.000159484)
(0.000159532 0 0 2.04024e-14 -0.000319064 0 0 0 0.000159532)
(0.000159504 0 0 1.92456e-14 -0.000319009 0 0 0 0.000159504)
(0.00015906 0 0 1.80481e-14 -0.000318119 0 0 0 0.00015906)
(0.000157642 0 0 1.68136e-14 -0.000315284 0 0 0 0.000157642)
(0.000160498 0 0 1.55458e-14 -0.000320995 0 0 0 0.000160498)
(0.000180143 0 0 1.42483e-14 -0.000360287 0 0 0 0.000180143)
(0.000162436 0 0 9.5877e-15 -0.000324871 0 0 0 0.000162436)
(-7.69623e-05 0 0 4.90531e-15 0.000153925 0 0 0 -7.69623e-05)
(2.62692e-05 0 0 3.54253e-15 -5.25384e-05 0 0 0 2.62692e-05)
(0.00314925 0 0 2.16559e-15 -0.0062985 0 0 0 0.00314925)
(0.0080364 0 0 1.02192e-15 -0.0160728 0 0 0 0.0080364)
(8.16761e-06 0 0 2.31171e-21 -1.63352e-05 0 0 0 8.16761e-06)
(3.17118e-07 0 0 8.98237e-23 -6.34237e-07 0 0 0 3.17118e-07)
(5.31152e-10 0 0 1.6413e-25 -1.0623e-09 0 0 0 5.31152e-10)
(4.79992e-19 0 0 1.84661e-34 -9.59984e-19 0 0 0 4.79992e-19)
(1.24228e-28 0 0 9.89323e-44 -2.48457e-28 0 0 0 1.24228e-28)
(-4.50574e-40 0 0 3.46258e-53 9.01148e-40 0 0 0 -4.50574e-40)
(-4.18323e-50 0 0 -1.34541e-62 8.36647e-50 0 0 0 -4.18323e-50)
(5.55785e-59 0 0 -5.74415e-71 -1.11157e-58 0 0 0 5.55785e-59)
(6.75197e-69 0 0 -1.18774e-79 -1.35039e-68 0 0 0 6.75197e-69)
(-5.42328e-78 0 0 -2.31241e-88 1.08466e-77 0 0 0 -5.42328e-78)
(-1.4975e-87 0 0 -4.95568e-97 2.99499e-87 0 0 0 -1.4975e-87)
(1.07682e-96 0 0 -1.10554e-105 -2.15363e-96 0 0 0 1.07682e-96)
(5.10363e-106 0 0 -2.66231e-114 -1.02073e-105 0 0 0 5.10363e-106)
(-3.02583e-115 0 0 -6.56089e-123 6.05166e-115 0 0 0 -3.02583e-115)
(-2.35292e-124 0 0 -1.80204e-131 4.70585e-124 0 0 0 -2.35292e-124)
(1.14581e-133 0 0 -5.37497e-140 -2.29162e-133 0 0 0 1.14581e-133)
(1.44211e-142 0 0 -1.83978e-148 -2.88422e-142 0 0 0 1.44211e-142)
(-9.15633e-152 0 0 -6.70406e-157 1.83127e-151 0 0 0 -9.15633e-152)
(-1.5417e-160 0 0 -2.69018e-165 3.08339e-160 0 0 0 -1.5417e-160)
(5.40728e-169 0 0 -1.11986e-173 -1.08146e-168 0 0 0 5.40728e-169)
(3.28135e-177 0 0 -5.00538e-182 -6.5627e-177 0 0 0 3.28135e-177)
(1.01252e-185 0 0 -2.22606e-190 -2.02504e-185 0 0 0 1.01252e-185)
(1.01408e-195 0 0 -1.02138e-198 -2.02816e-195 0 0 0 1.01408e-195)
(-1.89382e-200 0 0 -4.58614e-207 3.78763e-200 0 0 0 -1.89382e-200)
(-1.42711e-208 0 0 -2.10822e-215 2.85423e-208 0 0 0 -1.42711e-208)
(-1.119e-215 0 0 -9.2991e-224 2.238e-215 0 0 0 -1.119e-215)
(-2.5081e-221 0 0 -4.07838e-232 5.0162e-221 0 0 0 -2.5081e-221)
(-2.39356e-229 0 0 -1.69252e-240 4.78712e-229 0 0 0 -2.39356e-229)
(-7.08455e-237 0 0 -7.00182e-249 1.41691e-236 0 0 0 -7.08455e-237)
(-2.69311e-242 0 0 -2.77491e-257 5.38623e-242 0 0 0 -2.69311e-242)
)
;

boundaryField
{
    inlet
    {
        type            cyclic;
    }
    outlet
    {
        type            cyclic;
    }
    top
    {
        type            extrapolatedCalculated;
        value           uniform (-5.38109e-242 0 0 -2.78038e-257 1.07622e-241 0 0 0 -5.38109e-242);
    }
    bottom
    {
        type            extrapolatedCalculated;
        value           uniform (8.66957e-05 0 0 1.57016e-14 -0.000173391 0 0 0 8.66957e-05);
    }
    frontAndBackPlanes
    {
        type            empty;
    }
}


// ************************************************************************* //
