/*--------------------------------*- C++ -*----------------------------------*\
| =========                 |                                                 |
| \\      /  F ield         | OpenFOAM: The Open Source CFD Toolbox           |
|  \\    /   O peration     | Version:  v2006                                 |
|   \\  /    A nd           | Website:  www.openfoam.com                      |
|    \\/     M anipulation  |                                                 |
\*---------------------------------------------------------------------------*/
FoamFile
{
    version     2.0;
    format      ascii;
    class       volTensorField;
    location    "1640";
    object      Taub;
}
// * * * * * * * * * * * * * * * * * * * * * * * * * * * * * * * * * * * * * //

dimensions      [1 -1 -2 0 0 0 0];


internalField   nonuniform List<tensor> 
120
(
(-6.22999e-09 0 0 7.4797e-19 1.246e-08 0 0 0 -6.22999e-09)
(-6.13801e-09 0 0 7.48976e-19 1.2276e-08 0 0 0 -6.13801e-09)
(-6.46608e-09 0 0 7.458e-19 1.29322e-08 0 0 0 -6.46608e-09)
(-6.40119e-09 0 0 7.4359e-19 1.28024e-08 0 0 0 -6.40119e-09)
(-6.46614e-09 0 0 7.47422e-19 1.29323e-08 0 0 0 -6.46614e-09)
(-6.53044e-09 0 0 7.52318e-19 1.30609e-08 0 0 0 -6.53044e-09)
(-6.59369e-09 0 0 7.47846e-19 1.31874e-08 0 0 0 -6.59369e-09)
(-6.65611e-09 0 0 7.44189e-19 1.33122e-08 0 0 0 -6.65611e-09)
(-6.71769e-09 0 0 7.62261e-19 1.34354e-08 0 0 0 -6.71769e-09)
(-6.77841e-09 0 0 7.81193e-19 1.35568e-08 0 0 0 -6.77841e-09)
(-6.83828e-09 0 0 7.90439e-19 1.36766e-08 0 0 0 -6.83828e-09)
(-6.89735e-09 0 0 8.11374e-19 1.37947e-08 0 0 0 -6.89735e-09)
(-6.95565e-09 0 0 8.33274e-19 1.39113e-08 0 0 0 -6.95565e-09)
(-7.01323e-09 0 0 8.45567e-19 1.40265e-08 0 0 0 -7.01323e-09)
(-7.07015e-09 0 0 8.59045e-19 1.41403e-08 0 0 0 -7.07015e-09)
(-7.12646e-09 0 0 8.73481e-19 1.42529e-08 0 0 0 -7.12646e-09)
(-7.18222e-09 0 0 8.88869e-19 1.43644e-08 0 0 0 -7.18222e-09)
(-7.23746e-09 0 0 9.05201e-19 1.44749e-08 0 0 0 -7.23746e-09)
(-7.29223e-09 0 0 9.2247e-19 1.45845e-08 0 0 0 -7.29223e-09)
(-7.34663e-09 0 0 9.40666e-19 1.46933e-08 0 0 0 -7.34663e-09)
(-7.40074e-09 0 0 9.59776e-19 1.48015e-08 0 0 0 -7.40074e-09)
(-7.45464e-09 0 0 9.79777e-19 1.49093e-08 0 0 0 -7.45464e-09)
(-7.50841e-09 0 0 9.98524e-19 1.50168e-08 0 0 0 -7.50841e-09)
(-7.56216e-09 0 0 1.06284e-18 1.51243e-08 0 0 0 -7.56216e-09)
(-7.61592e-09 0 0 1.128e-18 1.52318e-08 0 0 0 -7.61592e-09)
(-7.66972e-09 0 0 1.1505e-18 1.53394e-08 0 0 0 -7.66972e-09)
(-7.7236e-09 0 0 1.15324e-18 1.54472e-08 0 0 0 -7.7236e-09)
(-7.77765e-09 0 0 1.15677e-18 1.55553e-08 0 0 0 -7.77765e-09)
(-7.83196e-09 0 0 1.18649e-18 1.56639e-08 0 0 0 -7.83196e-09)
(-7.88657e-09 0 0 1.17256e-18 1.57731e-08 0 0 0 -7.88657e-09)
(-7.94156e-09 0 0 1.11303e-18 1.58831e-08 0 0 0 -7.94156e-09)
(-7.99701e-09 0 0 1.10008e-18 1.5994e-08 0 0 0 -7.99701e-09)
(-8.05292e-09 0 0 1.13108e-18 1.61058e-08 0 0 0 -8.05292e-09)
(-8.10926e-09 0 0 1.15959e-18 1.62185e-08 0 0 0 -8.10926e-09)
(-8.16604e-09 0 0 1.18495e-18 1.63321e-08 0 0 0 -8.16604e-09)
(-8.22331e-09 -1.09334e-22 0 1.25439e-18 1.64466e-08 0 0 0 -8.22331e-09)
(-8.28113e-09 0 0 1.37539e-18 1.65623e-08 0 0 0 -8.28113e-09)
(-8.33951e-09 0 0 1.39756e-18 1.6679e-08 0 0 0 -8.33951e-09)
(-8.39849e-09 0 0 1.43167e-18 1.6797e-08 0 0 0 -8.39849e-09)
(-8.45812e-09 0 0 1.41653e-18 1.69162e-08 0 0 0 -8.45812e-09)
(-8.51835e-09 0 0 1.40226e-18 1.70367e-08 0 0 0 -8.51835e-09)
(-8.57909e-09 0 0 1.43938e-18 1.71582e-08 0 0 0 -8.57909e-09)
(-8.64031e-09 0 0 1.41971e-18 1.72806e-08 0 0 0 -8.64031e-09)
(-8.702e-09 0 0 1.44785e-18 1.7404e-08 0 0 0 -8.702e-09)
(-8.7642e-09 0 0 1.53012e-18 1.75284e-08 0 0 0 -8.7642e-09)
(-8.82685e-09 0 0 1.51224e-18 1.76537e-08 0 0 0 -8.82685e-09)
(-8.88997e-09 0 0 1.44898e-18 1.77799e-08 0 0 0 -8.88997e-09)
(-8.95354e-09 0 0 1.42838e-18 1.79071e-08 0 0 0 -8.95354e-09)
(-9.01744e-09 0 0 1.49824e-18 1.80349e-08 0 0 0 -9.01744e-09)
(-9.0815e-09 0 0 1.61702e-18 1.8163e-08 0 0 0 -9.0815e-09)
(-9.1456e-09 0 0 1.62854e-18 1.82912e-08 0 0 0 -9.1456e-09)
(-9.20969e-09 0 0 1.64872e-18 1.84194e-08 0 0 0 -9.20969e-09)
(-9.27371e-09 0 0 1.66727e-18 1.85474e-08 0 0 0 -9.27371e-09)
(-9.33754e-09 0 0 1.67816e-18 1.86751e-08 0 0 0 -9.33754e-09)
(-9.40108e-09 0 0 1.73912e-18 1.88022e-08 0 0 0 -9.40108e-09)
(-9.46425e-09 0 0 1.79803e-18 1.89285e-08 0 0 0 -9.46425e-09)
(-9.52681e-09 0 0 1.80282e-18 1.90536e-08 0 0 0 -9.52681e-09)
(-9.58846e-09 0 0 1.82409e-18 1.91769e-08 0 0 0 -9.58846e-09)
(-9.64893e-09 2.18173e-22 0 1.73685e-18 1.92979e-08 0 0 0 -9.64893e-09)
(-9.70806e-09 0 0 1.64705e-18 1.94161e-08 0 0 0 -9.70806e-09)
(-9.76564e-09 0 0 1.66071e-18 1.95313e-08 0 0 0 -9.76564e-09)
(-9.82139e-09 0 0 1.65881e-18 1.96428e-08 0 0 0 -9.82139e-09)
(-9.87507e-09 0 0 1.65411e-18 1.97501e-08 0 0 0 -9.87507e-09)
(-9.9264e-09 0 0 1.66102e-18 1.98528e-08 0 0 0 -9.9264e-09)
(-9.97498e-09 0 0 1.54078e-18 1.995e-08 0 0 0 -9.97498e-09)
(-1.00203e-08 0 0 1.52747e-18 2.00406e-08 0 0 0 -1.00203e-08)
(-1.00619e-08 0 0 1.62044e-18 2.01239e-08 0 0 0 -1.00619e-08)
(-1.00995e-08 0 0 1.5859e-18 2.0199e-08 0 0 0 -1.00995e-08)
(-1.01326e-08 0 0 1.56315e-18 2.02653e-08 0 0 0 -1.01326e-08)
(-1.01608e-08 0 0 1.55371e-18 2.03216e-08 0 0 0 -1.01608e-08)
(-1.01834e-08 0 0 1.42858e-18 2.03669e-08 0 0 0 -1.01834e-08)
(-1.01997e-08 0 0 1.30049e-18 2.03994e-08 0 0 0 -1.01997e-08)
(-1.02085e-08 0 0 1.28207e-18 2.04169e-08 0 0 0 -1.02085e-08)
(-1.0208e-08 0 0 1.24447e-18 2.04159e-08 0 0 0 -1.0208e-08)
(-1.0196e-08 0 0 1.20397e-18 2.03921e-08 0 0 0 -1.0196e-08)
(-1.017e-08 0 0 1.16076e-18 2.03401e-08 0 0 0 -1.017e-08)
(-1.01267e-08 0 0 1.11494e-18 2.02534e-08 0 0 0 -1.01267e-08)
(-1.00624e-08 0 0 1.06663e-18 2.01248e-08 0 0 0 -1.00624e-08)
(-9.97347e-09 0 0 1.01596e-18 1.99469e-08 0 0 0 -9.97347e-09)
(-9.85499e-09 0 0 9.6307e-19 1.971e-08 0 0 0 -9.85499e-09)
(-9.70281e-09 0 0 9.08113e-19 1.94056e-08 0 0 0 -9.70281e-09)
(-9.53571e-09 0 0 8.5125e-19 1.90714e-08 0 0 0 -9.53571e-09)
(-9.38919e-09 0 0 7.92653e-19 1.87784e-08 0 0 0 -9.38919e-09)
(-9.03893e-09 0 0 7.3269e-19 1.80779e-08 0 0 0 -9.03893e-09)
(-7.89442e-09 0 0 7.12571e-19 1.57888e-08 0 0 0 -7.89442e-09)
(-8.2882e-09 0 0 4.51166e-19 1.65764e-08 0 0 0 -8.2882e-09)
(-1.90784e-08 0 0 1.89076e-19 3.81568e-08 0 0 0 -1.90784e-08)
(-1.75141e-08 0 0 1.66175e-19 3.50282e-08 0 0 0 -1.75141e-08)
(3.00308e-07 0 0 1.01618e-19 -6.00617e-07 0 0 0 3.00308e-07)
(-1.47582e-06 0 0 5.2654e-20 2.95165e-06 0 0 0 -1.47582e-06)
(-8.68705e-06 0 0 2.2406e-19 1.73741e-05 0 0 0 -8.68705e-06)
(-1.98553e-05 0 0 2.62755e-19 3.97106e-05 0 0 0 -1.98553e-05)
(3.88441e-06 0 0 2.83922e-19 -7.76882e-06 0 0 0 3.88441e-06)
(2.188e-05 0 0 2.32596e-19 -4.37599e-05 0 0 0 2.188e-05)
(6.74614e-07 0 0 1.61278e-19 -1.34923e-06 0 0 0 6.74614e-07)
(-1.71221e-06 0 0 7.23137e-20 3.42443e-06 0 0 0 -1.71221e-06)
(-1.28647e-07 0 0 -3.29687e-20 2.57294e-07 0 0 0 -1.28647e-07)
(1.3164e-07 0 0 -1.5313e-19 -2.63279e-07 0 0 0 1.3164e-07)
(1.59462e-08 0 0 -2.86825e-19 -3.18924e-08 0 0 0 1.59462e-08)
(-9.82573e-09 0 0 -4.327e-19 1.96515e-08 0 0 0 -9.82573e-09)
(-1.74275e-09 0 0 -5.8926e-19 3.48549e-09 0 0 0 -1.74275e-09)
(7.10557e-10 0 0 -7.5484e-19 -1.42111e-09 0 0 0 7.10557e-10)
(1.73517e-10 0 0 -9.27637e-19 -3.47033e-10 0 0 0 1.73517e-10)
(-4.9211e-11 0 0 -1.10575e-18 9.84221e-11 0 0 0 -4.9211e-11)
(-1.63713e-11 0 0 -1.28721e-18 3.27426e-11 0 0 0 -1.63713e-11)
(3.01412e-12 0 0 -1.47e-18 -6.02825e-12 0 0 0 3.01412e-12)
(1.25476e-12 0 0 -1.6521e-18 -2.50951e-12 0 0 0 1.25476e-12)
(-2.42079e-13 0 0 -1.83147e-18 4.84158e-13 0 0 0 -2.42079e-13)
(-1.1217e-13 0 0 -2.00612e-18 2.2434e-13 0 0 0 -1.1217e-13)
(1.02939e-13 0 0 -2.17409e-18 -2.05879e-13 0 0 0 1.02939e-13)
(1.5086e-13 0 0 -2.33351e-18 -3.01721e-13 0 0 0 1.5086e-13)
(1.11779e-13 0 0 -2.48259e-18 -2.23557e-13 0 0 0 1.11779e-13)
(3.41111e-14 0 0 -2.61966e-18 -6.82223e-14 0 0 0 3.41111e-14)
(-1.0956e-14 0 0 -2.74317e-18 2.19119e-14 0 0 0 -1.0956e-14)
(1.35872e-14 0 0 -2.85175e-18 -2.71745e-14 0 0 0 1.35872e-14)
(9.30993e-14 0 0 -2.94417e-18 -1.86199e-13 0 0 0 9.30993e-14)
(1.448e-13 0 0 -3.01939e-18 -2.896e-13 0 0 0 1.448e-13)
(-1.1403e-13 0 0 -3.07656e-18 2.28061e-13 0 0 0 -1.1403e-13)
(-1.71555e-13 0 0 -3.11504e-18 3.4311e-13 0 0 0 -1.71555e-13)
(4.26115e-12 0 0 -3.13581e-18 -8.52231e-12 0 0 0 4.26115e-12)
)
;

boundaryField
{
    inlet
    {
        type            cyclic;
    }
    outlet
    {
        type            cyclic;
    }
    top
    {
        type            extrapolatedCalculated;
        value           uniform (8.48962e-12 0 0 -3.14208e-18 -1.69792e-11 0 0 0 8.48962e-12);
    }
    bottom
    {
        type            extrapolatedCalculated;
        value           uniform (-6.7473e-09 0 0 7.47659e-19 1.34946e-08 0 0 0 -6.7473e-09);
    }
    frontAndBackPlanes
    {
        type            empty;
    }
}


// ************************************************************************* //
