/*--------------------------------*- C++ -*----------------------------------*\
| =========                 |                                                 |
| \\      /  F ield         | OpenFOAM: The Open Source CFD Toolbox           |
|  \\    /   O peration     | Version:  v2006                                 |
|   \\  /    A nd           | Website:  www.openfoam.com                      |
|    \\/     M anipulation  |                                                 |
\*---------------------------------------------------------------------------*/
FoamFile
{
    version     2.0;
    format      ascii;
    class       volVectorField;
    location    "1640";
    object      Ua;
}
// * * * * * * * * * * * * * * * * * * * * * * * * * * * * * * * * * * * * * //

dimensions      [0 1 -1 0 0 0 0];


internalField   nonuniform List<vector> 
120
(
(3.73847e-21 -6.19255e-11 0)
(1.12216e-20 -1.86377e-10 0)
(1.87192e-20 -3.12473e-10 0)
(2.61397e-20 -4.39987e-10 0)
(3.3594e-20 -5.68849e-10 0)
(4.10917e-20 -6.9906e-10 0)
(4.86425e-20 -8.30608e-10 0)
(5.60536e-20 -9.63479e-10 0)
(6.35372e-20 -1.09766e-09 0)
(7.13054e-20 -1.23312e-09 0)
(7.91655e-20 -1.36987e-09 0)
(8.71272e-20 -1.50788e-09 0)
(9.54026e-20 -1.64713e-09 0)
(1.03799e-19 -1.78762e-09 0)
(1.12326e-19 -1.92934e-09 0)
(1.20993e-19 -2.07227e-09 0)
(1.29809e-19 -2.21641e-09 0)
(1.38785e-19 -2.36174e-09 0)
(1.4793e-19 -2.50826e-09 0)
(1.57253e-19 -2.65596e-09 0)
(1.66763e-19 -2.80484e-09 0)
(1.76469e-19 -2.95491e-09 0)
(1.86381e-19 -3.10615e-09 0)
(1.96507e-19 -3.25856e-09 0)
(2.07665e-19 -3.41216e-09 0)
(2.19054e-19 -3.56695e-09 0)
(2.30682e-19 -3.72292e-09 0)
(2.42153e-19 -3.8801e-09 0)
(2.53878e-19 -4.03847e-09 0)
(2.65864e-19 -4.19807e-09 0)
(2.77309e-19 -4.35889e-09 0)
(2.8822e-19 -4.52095e-09 0)
(2.9941e-19 -4.68425e-09 0)
(3.10884e-19 -4.84883e-09 0)
(3.22647e-19 -5.01468e-09 0)
(3.34702e-19 -5.18183e-09 0)
(3.47861e-19 -5.35029e-09 0)
(3.62125e-19 -5.52008e-09 0)
(3.75879e-19 -5.69122e-09 0)
(3.9074e-19 -5.86372e-09 0)
(4.04283e-19 -6.0376e-09 0)
(4.1893e-19 -6.21288e-09 0)
(4.33063e-19 -6.38958e-09 0)
(4.47486e-19 -6.56771e-09 0)
(4.62193e-19 -6.7473e-09 0)
(4.77985e-19 -6.92837e-09 0)
(4.92433e-19 -7.11093e-09 0)
(5.07143e-19 -7.295e-09 0)
(5.21297e-19 -7.4806e-09 0)
(5.37305e-19 -7.66774e-09 0)
(5.5354e-19 -7.85644e-09 0)
(5.69987e-19 -8.04671e-09 0)
(5.86631e-19 -8.23857e-09 0)
(6.03455e-19 -8.43202e-09 0)
(6.2044e-19 -8.62708e-09 0)
(6.38373e-19 -8.82376e-09 0)
(6.56425e-19 -9.02206e-09 0)
(6.74576e-19 -9.22199e-09 0)
(6.92801e-19 -9.42354e-09 0)
(7.09465e-19 -9.62672e-09 0)
(7.26152e-19 -9.83152e-09 0)
(7.42835e-19 -1.00379e-08 0)
(7.59487e-19 -1.02459e-08 0)
(7.76079e-19 -1.04555e-08 0)
(7.92582e-19 -1.06667e-08 0)
(8.07357e-19 -1.08794e-08 0)
(8.23592e-19 -1.10936e-08 0)
(8.39647e-19 -1.13093e-08 0)
(8.55491e-19 -1.15265e-08 0)
(8.71094e-19 -1.1745e-08 0)
(8.86425e-19 -1.1965e-08 0)
(8.99847e-19 -1.21862e-08 0)
(9.12936e-19 -1.24088e-08 0)
(9.25664e-19 -1.26325e-08 0)
(9.38e-19 -1.28573e-08 0)
(9.49918e-19 -1.30832e-08 0)
(9.6139e-19 -1.33099e-08 0)
(9.72391e-19 -1.35372e-08 0)
(9.82896e-19 -1.3765e-08 0)
(9.92882e-19 -1.39929e-08 0)
(1.00233e-18 -1.42208e-08 0)
(1.01121e-18 -1.44486e-08 0)
(1.01952e-18 -1.46753e-08 0)
(1.02722e-18 -1.4899e-08 0)
(1.03432e-18 -1.51338e-08 0)
(1.04079e-18 -1.54137e-08 0)
(1.04345e-18 -1.55979e-08 0)
(1.04547e-18 -1.51938e-08 0)
(1.04683e-18 -1.5673e-08 0)
(1.04753e-18 -2.41917e-08 0)
(1.0478e-18 -3.86341e-08 0)
(1.05321e-18 -6.02608e-05 0)
(1.06081e-18 -0.000137836 0)
(1.06741e-18 -0.00019816 0)
(1.07246e-18 -0.000228666 0)
(1.07548e-18 -0.000228559 0)
(1.07607e-18 -0.000228525 0)
(1.07384e-18 -0.000228544 0)
(1.06842e-18 -0.000228548 0)
(1.05949e-18 -0.000228546 0)
(1.04678e-18 -0.000228546 0)
(1.03002e-18 -0.000228546 0)
(1.00903e-18 -0.000228546 0)
(9.83634e-19 -0.000228546 0)
(9.53736e-19 -0.000228546 0)
(9.19264e-19 -0.000228546 0)
(8.80226e-19 -0.000228546 0)
(8.36648e-19 -0.000228546 0)
(7.88641e-19 -0.000228546 0)
(7.36331e-19 -0.000228546 0)
(6.79918e-19 -0.000228546 0)
(6.19637e-19 -0.000228546 0)
(5.55777e-19 -0.000228546 0)
(4.88639e-19 -0.000228546 0)
(4.18596e-19 -0.000228546 0)
(3.46033e-19 -0.000228546 0)
(2.71369e-19 -0.000228546 0)
(1.95044e-19 -0.000228518 0)
(1.17521e-19 -0.000228481 0)
(3.92766e-20 -0.000228045 0)
)
;

boundaryField
{
    inlet
    {
        type            cyclic;
    }
    outlet
    {
        type            cyclic;
    }
    top
    {
        type            fixedValue;
        value           uniform (0 0 0);
    }
    bottom
    {
        type            fixedValue;
        value           uniform (0 0 0);
    }
    frontAndBackPlanes
    {
        type            empty;
    }
}


// ************************************************************************* //
