/*--------------------------------*- C++ -*----------------------------------*\
| =========                 |                                                 |
| \\      /  F ield         | OpenFOAM: The Open Source CFD Toolbox           |
|  \\    /   O peration     | Version:  v2006                                 |
|   \\  /    A nd           | Website:  www.openfoam.com                      |
|    \\/     M anipulation  |                                                 |
\*---------------------------------------------------------------------------*/
FoamFile
{
    version     2.0;
    format      ascii;
    class       volVectorField;
    location    "1640";
    object      Ub;
}
// * * * * * * * * * * * * * * * * * * * * * * * * * * * * * * * * * * * * * //

dimensions      [0 1 -1 0 0 0 0];


internalField   nonuniform List<vector> 
120
(
(3.73847e-21 1.01214e-10 0)
(1.12216e-20 2.72602e-10 0)
(1.87194e-20 4.69529e-10 0)
(2.61397e-20 6.60622e-10 0)
(3.3594e-20 8.53673e-10 0)
(4.10917e-20 1.04868e-09 0)
(4.86446e-20 1.24561e-09 0)
(5.60536e-20 1.44443e-09 0)
(6.35341e-20 1.64513e-09 0)
(7.13054e-20 1.84767e-09 0)
(7.91655e-20 2.05203e-09 0)
(8.71227e-20 2.25819e-09 0)
(9.54026e-20 2.46612e-09 0)
(1.03799e-19 2.6758e-09 0)
(1.12326e-19 2.8872e-09 0)
(1.20993e-19 3.10032e-09 0)
(1.29809e-19 3.31514e-09 0)
(1.38785e-19 3.53163e-09 0)
(1.4793e-19 3.74978e-09 0)
(1.57253e-19 3.96959e-09 0)
(1.66763e-19 4.19104e-09 0)
(1.76469e-19 4.41412e-09 0)
(1.86381e-19 4.63883e-09 0)
(1.96464e-19 4.86517e-09 0)
(2.07665e-19 5.09314e-09 0)
(2.19054e-19 5.32274e-09 0)
(2.30707e-19 5.55397e-09 0)
(2.42153e-19 5.78684e-09 0)
(2.53878e-19 6.02135e-09 0)
(2.65921e-19 6.25751e-09 0)
(2.77369e-19 6.49533e-09 0)
(2.8822e-19 6.73483e-09 0)
(2.9941e-19 6.97602e-09 0)
(3.10884e-19 7.21892e-09 0)
(3.22647e-19 7.46353e-09 0)
(3.34631e-19 7.70987e-09 0)
(3.47788e-19 7.95797e-09 0)
(3.62199e-19 8.20782e-09 0)
(3.75802e-19 8.45947e-09 0)
(3.909e-19 8.71291e-09 0)
(4.04201e-19 8.96818e-09 0)
(4.19015e-19 9.22529e-09 0)
(4.33064e-19 9.48426e-09 0)
(4.47485e-19 9.7451e-09 0)
(4.62101e-19 1.00078e-08 0)
(4.78175e-19 1.02725e-08 0)
(4.92434e-19 1.0539e-08 0)
(5.07243e-19 1.08075e-08 0)
(5.21092e-19 1.10779e-08 0)
(5.37304e-19 1.13503e-08 0)
(5.5354e-19 1.16246e-08 0)
(5.69987e-19 1.19009e-08 0)
(5.86631e-19 1.21791e-08 0)
(6.03455e-19 1.24593e-08 0)
(6.20321e-19 1.27415e-08 0)
(6.38372e-19 1.30256e-08 0)
(6.56425e-19 1.33116e-08 0)
(6.74577e-19 1.35996e-08 0)
(6.93062e-19 1.38894e-08 0)
(7.09466e-19 1.4181e-08 0)
(7.26152e-19 1.44745e-08 0)
(7.42835e-19 1.47697e-08 0)
(7.59487e-19 1.50666e-08 0)
(7.7608e-19 1.53651e-08 0)
(7.92876e-19 1.56652e-08 0)
(8.07057e-19 1.59668e-08 0)
(8.23591e-19 1.62697e-08 0)
(8.39647e-19 1.65738e-08 0)
(8.55491e-19 1.68791e-08 0)
(8.71096e-19 1.71854e-08 0)
(8.86756e-19 1.74925e-08 0)
(8.99848e-19 1.78003e-08 0)
(9.12936e-19 1.81085e-08 0)
(9.25664e-19 1.8417e-08 0)
(9.38e-19 1.87253e-08 0)
(9.49918e-19 1.90332e-08 0)
(9.6139e-19 1.93401e-08 0)
(9.72391e-19 1.96455e-08 0)
(9.82896e-19 1.99487e-08 0)
(9.92882e-19 2.0249e-08 0)
(1.00233e-18 2.05452e-08 0)
(1.01121e-18 2.08365e-08 0)
(1.01952e-18 2.11229e-08 0)
(1.02722e-18 2.14055e-08 0)
(1.03432e-18 2.1671e-08 0)
(1.04164e-18 2.18845e-08 0)
(1.04346e-18 2.21742e-08 0)
(1.04547e-18 2.30439e-08 0)
(1.04683e-18 2.32397e-08 0)
(1.04753e-18 4.74586e-09 0)
(1.0479e-18 1.1342e-07 0)
(1.05322e-18 6.66778e-07 0)
(1.06083e-18 3.04391e-06 0)
(1.06742e-18 8.40602e-08 0)
(1.07246e-18 -2.3849e-07 0)
(1.07548e-18 -1.71446e-08 0)
(1.07607e-18 1.83744e-08 0)
(1.07383e-18 2.15488e-09 0)
(1.06842e-18 -1.37407e-09 0)
(1.05949e-18 -2.37354e-10 0)
(1.04678e-18 9.99785e-11 0)
(1.03003e-18 2.40903e-11 0)
(1.00903e-18 -6.61844e-12 0)
(9.83637e-19 -1.94042e-12 0)
(9.53736e-19 7.64139e-13 0)
(9.19269e-19 5.15584e-13 0)
(8.80227e-19 3.11964e-13 0)
(8.36654e-19 3.27347e-13 0)
(7.88642e-19 3.48281e-13 0)
(7.36335e-19 3.44174e-13 0)
(6.79924e-19 3.32838e-13 0)
(6.19645e-19 3.21542e-13 0)
(5.55779e-19 3.16069e-13 0)
(4.88646e-19 3.16425e-13 0)
(4.18603e-19 3.17712e-13 0)
(3.46041e-19 3.14387e-13 0)
(2.71377e-19 3.03746e-13 0)
(1.95052e-19 2.92664e-13 0)
(1.17529e-19 3.20853e-13 0)
(3.92809e-20 3.184e-13 0)
)
;

boundaryField
{
    inlet
    {
        type            cyclic;
    }
    outlet
    {
        type            cyclic;
    }
    top
    {
        type            fixedValue;
        value           uniform (0 0 0);
    }
    bottom
    {
        type            fixedValue;
        value           uniform (0 0 0);
    }
    frontAndBackPlanes
    {
        type            empty;
    }
}


// ************************************************************************* //
