/*--------------------------------*- C++ -*----------------------------------*\
| =========                 |                                                 |
| \\      /  F ield         | OpenFOAM: The Open Source CFD Toolbox           |
|  \\    /   O peration     | Version:  2206                                  |
|   \\  /    A nd           | Website:  www.openfoam.com                      |
|    \\/     M anipulation  |                                                 |
\*---------------------------------------------------------------------------*/
FoamFile
{
    version     2.0;
    format      ascii;
    arch        "LSB;label=32;scalar=64";
    class       volScalarField;
    location    "1.6";
    object      alpha.a;
}
// * * * * * * * * * * * * * * * * * * * * * * * * * * * * * * * * * * * * * //

dimensions      [0 0 0 0 0 0 0];

internalField   nonuniform List<scalar> 
13078
(
0.4099823
0.5614579
0.5809626
0.5811613
0.580588
0.5798583
0.5790038
0.5648776
0.5809681
0.581833
0.5812756
0.5806229
0.5798823
0.5790251
0.5826147
0.5825783
0.5820012
0.5813596
0.5806773
0.5799186
0.5790539
0.5833713
0.5827057
0.5820728
0.5814279
0.5807282
0.5799564
0.5790852
0.5834049
0.5827442
0.5821176
0.581465
0.5807691
0.5799916
0.5791158
0.5833743
0.582747
0.5821369
0.5814878
0.5807893
0.5800207
0.5791445
0.583344
0.5827386
0.5821447
0.5815022
0.5808029
0.5800332
0.579169
0.5833226
0.582728
0.5821472
0.5815092
0.5808105
0.5800416
0.5791776
0.5833077
0.5827187
0.5821445
0.5815107
0.5808144
0.580047
0.5791837
0.5832972
0.5827113
0.5821411
0.5815105
0.5808162
0.5800503
0.579188
0.5832896
0.5827055
0.5821379
0.5815095
0.580817
0.5800525
0.5791913
0.5832837
0.5827011
0.5821352
0.5815084
0.5808172
0.5800541
0.5791939
0.5832792
0.5826976
0.5821329
0.5815073
0.5808173
0.5800553
0.5791961
0.5832755
0.5826948
0.582131
0.5815066
0.5808175
0.5800563
0.5791981
0.5832725
0.5826926
0.5821298
0.5815098
0.5808232
0.5800579
0.5792
0.5832699
0.5826908
0.5821289
0.5815139
0.5808273
0.5800594
0.5792021
0.5832675
0.5826891
0.5821279
0.5815141
0.5808281
0.5800607
0.5792042
0.5832653
0.5826876
0.5821271
0.5815141
0.5808289
0.5800621
0.5792065
0.5832632
0.5826862
0.5821264
0.5815143
0.5808299
0.580064
0.5792089
0.583261
0.582685
0.582126
0.581515
0.5808368
0.5800743
0.5792123
0.5832589
0.5826837
0.5821255
0.5815158
0.5808447
0.580082
0.5792159
0.5832565
0.5826823
0.5821249
0.5815161
0.5808469
0.5800848
0.579219
0.583254
0.5826808
0.5821243
0.5815166
0.5808484
0.5800878
0.5792231
0.5832512
0.5826791
0.5821236
0.5815171
0.5808509
0.5800991
0.5792395
0.583248
0.5826771
0.5821226
0.5815175
0.5808533
0.5801115
0.5792517
0.5832444
0.5826748
0.5821215
0.5815178
0.580855
0.5801163
0.5792574
0.58324
0.582672
0.58212
0.5815178
0.5808567
0.58012
0.5792634
0.5832352
0.5826687
0.582118
0.5815175
0.5808584
0.5801244
0.5792815
0.5832295
0.5826647
0.5821155
0.5815168
0.5808599
0.5801289
0.5793005
0.5832245
0.5826617
0.5821128
0.5815157
0.5808608
0.580132
0.5793084
0.5832185
0.5826573
0.5821091
0.5815139
0.5808613
0.5801348
0.5793149
0.5832103
0.5826539
0.5821094
0.5815123
0.5808611
0.5801371
0.5793208
0.5832007
0.5826498
0.5821117
0.5815176
0.5808617
0.580139
0.5793248
0.5831901
0.5826434
0.5821123
0.5815187
0.5808619
0.5801409
0.5793285
0.583179
0.5826364
0.5821099
0.5815252
0.5808736
0.580145
0.5793323
0.5831677
0.5826306
0.5821085
0.5815344
0.5808931
0.5801664
0.5793399
0.5831575
0.5826271
0.5821099
0.5815422
0.5809131
0.5801823
0.5793504
0.58315
0.5826281
0.5821169
0.5815537
0.5809306
0.5802166
0.5793899
0.5831475
0.582636
0.5821319
0.5815754
0.5809608
0.5802679
0.5794377
0.5831544
0.5826576
0.5821632
0.5816239
0.5810318
0.5803681
0.5795605
0.5831741
0.5827055
0.5822454
0.5817394
0.5812045
0.5805938
0.5798252
0.5832217
0.5828056
0.5824259
0.5820297
0.5815865
0.5810934
0.5805848
0.5833251
0.5830212
0.5827853
0.5825573
0.5823314
0.5821302
0.5818631
0.5835383
0.5834031
0.5833722
0.5833554
0.583439
0.5834446
0.5830972
0.5839228
0.5839919
0.5841448
0.5844161
0.5845639
0.5844928
0.5843401
0.5845263
0.584717
0.5850577
0.5854815
0.5855029
0.5854237
0.5853913
0.5853429
0.5854694
0.5859348
0.5862557
0.5863994
0.586364
0.586337
0.5862476
0.5862494
0.5867337
0.5868957
0.5871935
0.587195
0.5874293
0.5871406
0.5869978
0.587381
0.587568
0.587834
0.5879866
0.5882872
0.5879597
0.5876521
0.5879476
0.5881481
0.5884762
0.5887272
0.5888605
0.5887114
0.5883025
0.5884145
0.5885882
0.5889454
0.5892124
0.5894627
0.5893613
0.5888626
0.5889333
0.5891142
0.589432
0.5896225
0.5899241
0.5898504
0.5892886
0.5892988
0.5893365
0.5896218
0.5897765
0.5901036
0.5901715
0.5895826
0.5895588
0.5895386
0.5897563
0.5898894
0.5900358
0.5903803
0.5897868
0.5897374
0.5896768
0.5898409
0.5899704
0.5900335
0.5905068
0.5899028
0.589841
0.5897512
0.5898762
0.5899846
0.5899828
0.590468
0.5898571
0.5897878
0.5896868
0.5898002
0.5898962
0.5898873
0.5903013
0.5897187
0.5896684
0.5895942
0.5897377
0.5898349
0.5898659
0.590044
0.5894856
0.5894668
0.5894275
0.5896068
0.5896892
0.5897659
0.5896357
0.5891122
0.589125
0.5891194
0.5893289
0.5894017
0.5896554
0.5890556
0.5886095
0.5886582
0.5887527
0.5889897
0.5891121
0.5893288
0.5883345
0.5880056
0.5881553
0.588287
0.5885274
0.5886631
0.588762
0.5875337
0.5873415
0.5876504
0.5877604
0.58794
0.5880339
0.5879949
0.5866873
0.5866421
0.5870367
0.5871341
0.5872381
0.5872062
0.5873836
0.5858343
0.585862
0.5863461
0.5864363
0.5866031
0.5864606
0.586507
0.5850374
0.5850726
0.5855003
0.5857907
0.5858327
0.5855943
0.585344
0.5843727
0.584399
0.5846034
0.5849654
0.5849137
0.5846954
0.5845051
0.5838849
0.5838272
0.5837922
0.5838866
0.5839496
0.5838035
0.5835199
0.5835466
0.5833664
0.5832122
0.5830085
0.5828903
0.5827734
0.582255
0.5833394
0.5830297
0.5827594
0.5824384
0.5820508
0.5816374
0.5811573
0.5832309
0.5828172
0.5824366
0.5820238
0.5815359
0.5809365
0.5802592
0.5831783
0.5827133
0.5822581
0.5817561
0.5812138
0.5805836
0.5797857
0.5831561
0.5826635
0.5821743
0.5816365
0.5810432
0.5803747
0.5795671
0.5831482
0.5826412
0.5821405
0.5815834
0.580967
0.5802757
0.5794456
0.5831499
0.5826322
0.5821236
0.5815613
0.5809365
0.5802233
0.5793985
0.583157
0.5826298
0.5821147
0.581547
0.5809137
0.5801872
0.5793591
0.5831669
0.5826323
0.5821115
0.5815391
0.580894
0.5801661
0.5793483
0.5831779
0.5826378
0.5821128
0.5815298
0.5808798
0.5801525
0.5793415
0.583189
0.5826442
0.5821149
0.5815229
0.5808675
0.580148
0.5793368
0.5831996
0.5826507
0.5821142
0.5815214
0.5808669
0.5801453
0.5793322
0.5832096
0.5826547
0.5821116
0.5815156
0.5808656
0.5801427
0.579327
0.583218
0.5826582
0.582111
0.5815169
0.5808652
0.5801395
0.5793202
0.5832241
0.5826624
0.5821146
0.5815182
0.5808642
0.580136
0.5793129
0.5832293
0.5826654
0.582117
0.581519
0.5808627
0.5801322
0.5793043
0.583235
0.5826693
0.5821193
0.5815194
0.5808608
0.5801272
0.5792844
0.58324
0.5826726
0.5821211
0.5815193
0.5808587
0.5801224
0.579266
0.5832443
0.5826753
0.5821225
0.581519
0.5808567
0.5801183
0.5792596
0.5832479
0.5826775
0.5821234
0.5815185
0.5808546
0.5801132
0.5792535
0.5832511
0.5826793
0.5821241
0.581518
0.580852
0.5801003
0.5792408
0.5832539
0.582681
0.5821248
0.5815174
0.5808494
0.580089
0.5792244
0.5832564
0.5826824
0.5821253
0.5815168
0.5808478
0.5800857
0.5792202
0.5832587
0.5826837
0.5821258
0.5815162
0.5808453
0.5800828
0.5792168
0.5832607
0.5826849
0.5821261
0.5815152
0.5808371
0.5800747
0.579213
0.5832627
0.5826861
0.5821264
0.5815142
0.58083
0.5800643
0.5792093
0.5832647
0.5826872
0.5821268
0.581514
0.5808289
0.5800622
0.5792069
0.5832666
0.5826884
0.5821274
0.5815138
0.580828
0.5800609
0.5792047
0.5832687
0.5826898
0.5821282
0.5815134
0.5808271
0.5800595
0.5792024
0.5832709
0.5826913
0.5821288
0.5815091
0.5808228
0.580058
0.5792003
0.5832733
0.582693
0.5821296
0.5815057
0.5808171
0.5800563
0.5791984
0.5832763
0.5826952
0.5821311
0.5815063
0.5808168
0.5800553
0.5791965
0.5832798
0.5826981
0.582133
0.5815072
0.5808169
0.5800544
0.5791947
0.5832844
0.5827016
0.5821353
0.5815083
0.5808169
0.5800533
0.5791927
0.5832902
0.582706
0.582138
0.5815094
0.5808167
0.5800519
0.5791902
0.5832978
0.5827117
0.5821412
0.5815103
0.580816
0.5800498
0.579187
0.5833081
0.5827191
0.5821444
0.5815105
0.5808142
0.5800464
0.5791826
0.5833228
0.5827283
0.5821445
0.5815071
0.5808102
0.580041
0.5791762
0.583344
0.5827389
0.5821429
0.5814995
0.5808023
0.5800326
0.5791544
0.5833741
0.5827477
0.5821377
0.5814882
0.58079
0.5800085
0.5791287
0.5834046
0.5827452
0.5821188
0.5814675
0.5807591
0.5799786
0.5791004
0.5833722
0.5827071
0.5820795
0.5814203
0.5807178
0.5799441
0.5790698
0.5826699
0.582599
0.5819963
0.5813528
0.5806683
0.5799064
0.5790382
0.5660466
0.5812711
0.5818995
0.5812723
0.58061
0.5798669
0.5790072
0.577993
0.5767257
0.5750369
0.573433
0.5705841
0.5661209
0.5559916
0.5780159
0.5767544
0.5750732
0.573475
0.570636
0.5661928
0.5564048
0.5780431
0.5767848
0.5751125
0.5729187
0.5706855
0.5662623
0.5566333
0.578072
0.5768159
0.5751477
0.5735654
0.5707373
0.5663316
0.5568413
0.5781006
0.5768475
0.5751857
0.5736125
0.5707889
0.5664004
0.5569903
0.5781284
0.5768791
0.5752239
0.5736577
0.5708395
0.5664684
0.5571322
0.5781549
0.5769098
0.5752614
0.5737008
0.5708529
0.5665359
0.5572678
0.5781783
0.5769398
0.5752982
0.5737428
0.5708658
0.5666026
0.5573984
0.5781852
0.5769669
0.575333
0.5737851
0.5709059
0.5666622
0.5575249
0.5781903
0.5769742
0.5753651
0.5738269
0.5709453
0.5667215
0.5576473
0.5781944
0.5769795
0.5753733
0.5738674
0.5709846
0.5667807
0.5577655
0.578198
0.5769844
0.5753795
0.5738752
0.571024
0.56684
0.5578828
0.5782012
0.5769891
0.5753857
0.5738823
0.5710296
0.5669006
0.5579955
0.5782043
0.5769936
0.575392
0.5738898
0.571036
0.5669101
0.5580994
0.5782074
0.5769984
0.5753985
0.5738974
0.5710429
0.5669218
0.5580538
0.5782106
0.5770034
0.5754052
0.5739055
0.5710506
0.5669347
0.5580256
0.5782139
0.5770085
0.5754122
0.5739143
0.5710621
0.5669481
0.5580067
0.5782173
0.5770137
0.5754198
0.573928
0.5711809
0.5669628
0.5579698
0.578221
0.577019
0.5754276
0.5739378
0.571198
0.5669778
0.5579375
0.5782249
0.5770247
0.5754359
0.5739481
0.5712105
0.5669937
0.5578972
0.5782291
0.5770307
0.5754445
0.5739591
0.5712236
0.5670103
0.5578353
0.5782337
0.5770371
0.5754534
0.573971
0.5712375
0.567028
0.5577866
0.5782385
0.577044
0.5754633
0.5739814
0.5712554
0.5670465
0.5577333
0.5782451
0.5770516
0.5754745
0.573431
0.5713735
0.5670774
0.557678
0.5782518
0.5770595
0.5754857
0.574
0.5714307
0.5671021
0.5576194
0.5782579
0.5770678
0.5754974
0.5740261
0.5714531
0.5671248
0.5575549
0.5782659
0.5770777
0.5755111
0.5740434
0.5714756
0.5671513
0.557476
0.5782922
0.577089
0.5755245
0.5740607
0.5715064
0.5673912
0.5573925
0.5783092
0.5774193
0.5759531
0.5740742
0.5715347
0.5674803
0.557318
0.5783192
0.5774352
0.5759773
0.574094
0.5715608
0.5675137
0.5572342
0.5783544
0.5774755
0.5759916
0.5741135
0.5715881
0.5676922
0.5571608
0.5783743
0.5775096
0.5760057
0.5741341
0.5716176
0.5678786
0.5570853
0.5783849
0.5775643
0.5760254
0.574155
0.571648
0.56793
0.5570226
0.5783909
0.5775825
0.5760842
0.5741752
0.5716783
0.5679932
0.5579381
0.5783963
0.5775914
0.5761424
0.5741965
0.5717073
0.5680476
0.5580732
0.5784024
0.5775984
0.5762226
0.5742266
0.5717284
0.5680893
0.562223
0.5784101
0.5776057
0.5762404
0.5743193
0.5717281
0.5681179
0.5597108
0.5784259
0.5776144
0.5762574
0.5743952
0.5716712
0.5679976
0.5614628
0.5784535
0.5776201
0.576244
0.57436
0.5715117
0.5674398
0.5619572
0.5785093
0.5775807
0.5761181
0.5741682
0.5714869
0.567222
0.5604734
0.5787906
0.5777216
0.5764086
0.5750822
0.5729449
0.5689068
0.5610542
0.5798648
0.5789363
0.5785229
0.5772082
0.5747536
0.5716462
0.5635245
0.5813661
0.5803779
0.5801044
0.5788916
0.5765322
0.5724611
0.5640562
0.5825481
0.5814347
0.5814304
0.5803782
0.5781898
0.5732939
0.5653237
0.5837576
0.582719
0.5828553
0.581574
0.5791995
0.5749735
0.5679044
0.5849835
0.5837989
0.5841385
0.5828748
0.5804635
0.5772451
0.5697725
0.5863062
0.5851996
0.5854208
0.5839449
0.5823169
0.5780965
0.5729129
0.5871606
0.5863124
0.5860954
0.5850702
0.5827755
0.5799313
0.573784
0.5882572
0.5872144
0.5870495
0.5857954
0.5834222
0.5798063
0.5744565
0.5890236
0.5882703
0.5878335
0.5862985
0.5841527
0.5806309
0.5757568
0.5895735
0.588925
0.5884412
0.5868406
0.5843254
0.5808978
0.5762029
0.5899678
0.5895262
0.5887324
0.5873886
0.5853299
0.5819356
0.5770524
0.5900796
0.589896
0.5888351
0.5875101
0.5856728
0.5826401
0.5778731
0.5901876
0.5899234
0.5888865
0.5873346
0.5854932
0.5824443
0.5761965
0.5902016
0.5899238
0.5887122
0.5870439
0.5851865
0.5841808
0.5815494
0.5901457
0.5897955
0.588452
0.5867679
0.5847972
0.5825415
0.5900261
0.5896601
0.5882909
0.5865627
0.5844765
0.5821844
0.5899671
0.5897391
0.5882475
0.5863732
0.5843878
0.5817019
0.5898239
0.5896564
0.5880774
0.5865911
0.5846144
0.5823292
0.578117
0.5895536
0.589515
0.588
0.5864051
0.5846957
0.5813683
0.5760477
0.589261
0.5893678
0.5877274
0.5859863
0.583934
0.5809458
0.5757175
0.5887392
0.5890474
0.5873333
0.585857
0.5837307
0.5803605
0.5757078
0.5880805
0.5884771
0.5868431
0.5853035
0.5832628
0.5796252
0.575157
0.5872655
0.5877369
0.5862025
0.5848728
0.5820476
0.5790682
0.5746055
0.5860757
0.5868162
0.5853774
0.5835443
0.5817466
0.5776884
0.5697512
0.5851444
0.5857371
0.5841045
0.5830892
0.5803551
0.5768678
0.569551
0.5839865
0.584435
0.5834092
0.5814849
0.5795341
0.5745686
0.5665116
0.5827802
0.5831819
0.5817803
0.5806322
0.5775103
0.5733352
0.5641326
0.5817181
0.5817816
0.5803737
0.5787895
0.5763981
0.5720899
0.5650457
0.5803864
0.5803937
0.5793436
0.5774507
0.5748194
0.5700217
0.5622167
0.5792728
0.578744
0.578026
0.5765149
0.5737216
0.5697375
0.5626264
0.5786821
0.5776721
0.5761341
0.5747545
0.5723774
0.568941
0.5609526
0.5785235
0.5775677
0.575963
0.5737205
0.5711815
0.5672827
0.5590916
0.5784659
0.5776119
0.5761782
0.5741781
0.5711758
0.5669281
0.5615494
0.5784362
0.5776143
0.5762583
0.5743957
0.5715007
0.5677012
0.5626692
0.5784208
0.5776025
0.5762548
0.5743426
0.5717123
0.5681589
0.5609807
0.5784132
0.5775938
0.5762412
0.5742921
0.5717341
0.5681132
0.5599076
0.5784068
0.5775863
0.5762014
0.5742157
0.571723
0.5680718
0.5582185
0.5784003
0.577578
0.5761195
0.5741913
0.571697
0.5680173
0.5579018
0.5783932
0.5775666
0.5760456
0.5741707
0.5716665
0.5679612
0.5576334
0.5783816
0.5775282
0.5760222
0.5741489
0.5716352
0.5679032
0.5569834
0.5783602
0.5774876
0.5760037
0.5741271
0.5716046
0.567828
0.557074
0.5783242
0.577437
0.5759883
0.5741063
0.5715756
0.5675426
0.5571479
0.5783132
0.5774223
0.5759721
0.574087
0.5715488
0.5674965
0.5572423
0.5782951
0.5770917
0.5755268
0.5740619
0.5715223
0.5674615
0.5573272
0.5782686
0.5770803
0.5755136
0.5740458
0.5714909
0.5672448
0.5574126
0.5782602
0.5770701
0.5755001
0.5740298
0.5714651
0.5671376
0.5574995
0.5782537
0.5770615
0.5754878
0.5740148
0.5714427
0.567114
0.5575708
0.5782467
0.5770532
0.5754761
0.5740004
0.5714177
0.5670921
0.5576415
0.5782399
0.5770456
0.5754654
0.5739865
0.5712955
0.5670614
0.5577006
0.5782349
0.5770385
0.5754552
0.5739735
0.5712454
0.5670381
0.5577581
0.5782302
0.5770318
0.5754457
0.5739617
0.5712312
0.5670201
0.5578156
0.5782258
0.5770256
0.5754369
0.5739504
0.5712175
0.5670031
0.5578653
0.5782216
0.5770199
0.5754284
0.5739398
0.5712048
0.5669868
0.5579132
0.5782179
0.5770145
0.5754206
0.5739297
0.5711928
0.5669713
0.5579531
0.5782143
0.5770091
0.575413
0.5739176
0.5711313
0.5669563
0.5579862
0.578211
0.5770039
0.5754059
0.5739066
0.5710551
0.5669422
0.5580178
0.5782079
0.5769991
0.5753992
0.5738979
0.5710473
0.5669288
0.5580477
0.5782049
0.5769944
0.5753929
0.5738895
0.57104
0.5669162
0.5580675
0.578202
0.57699
0.5753867
0.5738815
0.5710333
0.5669047
0.5580326
0.5781991
0.5769857
0.5753807
0.5738737
0.5710269
0.5668697
0.5579198
0.5781961
0.5769811
0.5753748
0.573866
0.5710047
0.5668104
0.5578031
0.5781927
0.5769764
0.5753669
0.5738416
0.5709657
0.5667509
0.5576821
0.5781886
0.5769699
0.5753354
0.5737997
0.5709264
0.5666916
0.5575603
0.5781828
0.5769438
0.5753014
0.5737571
0.5708871
0.5666319
0.5574352
0.5781611
0.5769149
0.5752653
0.573714
0.5708493
0.5665689
0.5573065
0.5781363
0.5768851
0.5752284
0.5736729
0.570864
0.5665016
0.5571739
0.57811
0.5768543
0.5751908
0.5736289
0.570815
0.5664338
0.5570367
0.5780821
0.5768226
0.5751526
0.5735849
0.5707643
0.5663656
0.5568935
0.5780527
0.5767904
0.5751142
0.5735408
0.5707132
0.5662968
0.5567235
0.5780233
0.5767586
0.5750759
0.5734973
0.5706616
0.5662273
0.556502
0.5779945
0.5767264
0.5750375
0.5734545
0.5706099
0.5661569
0.5561994
0.003268459
0
4.540641e-16
1.158794e-21
3.828506e-28
6.51684e-34
5.402794e-40
3.39274e-46
5.132774e-53
6.339233e-60
1.098379e-66
1.983771e-73
4.648298e-80
1.388542e-86
2.448178e-92
4.972611e-99
2.500975e-105
1.180737e-111
0.008117044
3.394336e-11
1.094554e-16
2.879834e-22
1.280405e-28
2.406789e-34
2.269381e-40
1.649101e-46
3.099077e-53
6.315058e-60
1.547898e-66
3.175062e-73
6.794904e-80
1.294676e-86
1.482339e-92
5.564185e-100
4.370105e-107
7.469681e-114
0.008776717
1.870395e-10
2.22112e-16
2.942589e-22
1.382427e-28
1.975858e-34
1.80411e-40
1.352273e-46
2.765503e-53
6.517884e-60
1.863748e-66
5.297959e-73
1.372905e-79
2.995523e-86
3.669752e-92
1.270376e-99
9.837472e-107
9.945068e-114
0.009397453
1.948105e-10
3.410415e-16
5.345863e-22
2.631798e-28
3.691853e-34
3.310496e-40
2.585295e-46
4.790132e-53
1.295656e-59
3.98428e-66
1.21177e-72
3.445799e-79
8.703304e-86
1.145666e-91
4.215322e-99
4.074989e-106
4.466929e-113
0.01019266
2.142945e-10
4.633021e-16
7.931909e-22
4.966404e-28
7.004882e-34
6.840666e-40
5.462256e-46
1.170301e-52
3.168655e-59
1.128462e-65
3.624106e-72
1.099158e-78
3.175212e-85
0
8.599892e-98
2.057198e-105
2.562555e-112
0.01115178
2.571216e-10
5.856432e-16
1.150692e-21
8.99027e-28
1.329774e-33
1.393248e-39
1.18942e-45
2.626419e-52
8.727196e-59
3.456905e-65
1.349838e-71
4.238513e-78
1.405013e-84
1.204429e-91
2.367107e-97
1.354425e-104
1.964076e-111
0.01225795
2.715589e-10
7.504506e-16
1.682071e-21
1.617298e-27
2.561345e-33
2.85767e-39
2.678197e-45
6.720582e-52
2.583205e-58
1.172896e-64
4.981553e-71
1.907608e-77
6.659759e-84
2.929209e-90
1.364071e-96
9.786037e-104
1.594825e-110
0.01349612
2.897712e-10
9.716268e-16
2.418008e-21
2.833987e-27
4.701028e-33
6.04813e-39
6.179494e-45
1.711326e-51
8.436095e-58
4.224175e-64
2.049839e-70
8.690596e-77
3.655404e-83
1.752615e-89
8.538506e-96
7.098686e-103
1.376245e-109
0.01485436
3.728648e-10
1.278717e-15
3.531701e-21
5.089838e-27
9.003897e-33
1.26624e-38
1.468281e-44
4.796762e-51
2.663114e-57
1.607115e-63
8.788555e-70
4.371736e-76
2.027165e-82
1.10353e-88
5.746894e-95
6.078741e-102
1.355438e-108
0.01631849
4.495653e-10
1.732346e-15
5.251457e-21
9.213822e-27
1.779278e-32
2.781487e-38
3.63548e-44
1.456216e-50
9.164445e-57
6.440966e-63
4.049422e-69
2.446172e-75
1.230105e-81
7.768946e-88
4.42306e-94
5.581605e-101
1.402573e-107
0.01788878
1.298764e-09
2.362153e-15
8.006643e-21
1.728658e-26
3.700907e-32
6.269694e-38
9.388139e-44
4.443498e-50
3.307367e-56
2.695343e-62
2.020269e-68
1.361473e-74
8.069614e-81
5.581812e-87
3.5831e-93
4.819552e-100
1.394661e-106
0.01868453
3.092321e-09
3.363211e-15
1.269076e-20
3.384612e-26
7.842638e-32
1.55213e-37
2.631093e-43
1.447118e-49
1.322786e-55
1.206939e-61
1.0362e-67
8.016888e-74
5.385021e-80
4.258354e-86
2.874414e-92
5.1978e-99
1.639967e-105
0.01939198
6.266321e-10
4.756622e-15
2.151639e-20
7.220158e-26
1.857725e-31
4.222648e-37
7.984462e-43
5.028653e-49
5.385759e-55
5.66451e-61
5.71779e-67
5.028777e-73
3.833153e-79
3.558189e-85
2.549095e-91
5.178059e-98
1.933996e-104
0.02081
1.406212e-09
8.264492e-15
4.326589e-20
2.106744e-25
5.828894e-31
1.432531e-36
3.017447e-42
2.230891e-48
2.599772e-54
3.287018e-60
3.538488e-66
3.453535e-72
3.041833e-78
3.119944e-84
2.647386e-90
6.1565e-97
2.519858e-103
0.02503826
2.497997e-09
2.235102e-14
1.413979e-19
6.809664e-25
2.355112e-30
6.734267e-36
1.633564e-41
1.462184e-47
2.090303e-53
2.938224e-59
3.768248e-65
4.335454e-71
4.386953e-77
4.980162e-83
4.176513e-89
1.277572e-95
5.907568e-102
0.0260386
0
1.339806e-14
8.052962e-20
3.847876e-25
1.444806e-30
4.906854e-36
1.540244e-41
1.772827e-47
3.339582e-53
5.651033e-59
8.562198e-65
1.156775e-70
1.328408e-76
1.819791e-82
1.693243e-88
6.047822e-95
3.372705e-101
0.02747583
2.174436e-09
0
1.088083e-19
5.9003e-25
2.218642e-30
6.772473e-36
1.979276e-41
2.524316e-47
5.76989e-53
1.317198e-58
2.675223e-64
4.634232e-70
6.887725e-76
1.220109e-81
1.328301e-87
6.537969e-94
4.558246e-100
0.02914085
2.495739e-09
3.470502e-14
0
1.037064e-24
4.837198e-30
1.810481e-35
5.191208e-41
5.751295e-47
1.296067e-52
3.151138e-58
6.990924e-64
1.370527e-69
2.304109e-75
4.617816e-81
5.892422e-87
3.005137e-93
2.372364e-99
0.03093383
2.662199e-09
4.693589e-14
4.469781e-19
0
1.115485e-29
4.179478e-35
1.517726e-40
1.977293e-46
4.502056e-52
1.19311e-57
3.148632e-63
7.144392e-69
1.395587e-74
3.204408e-80
4.204014e-86
2.620111e-92
2.257221e-98
0.03268864
3.162967e-09
6.437609e-14
7.71962e-19
9.703834e-24
0
1.796568e-34
5.938036e-40
9.904866e-46
2.321233e-51
5.346897e-57
1.22256e-62
2.622975e-68
5.264272e-74
3.89543e-79
1.845002e-85
1.250812e-91
1.23012e-97
0.03439538
4.102405e-09
7.660487e-14
9.72214e-19
1.399376e-23
9.353084e-29
0
1.652076e-39
2.389303e-45
8.538653e-51
2.685974e-56
7.110518e-62
1.633347e-67
3.467605e-73
8.927811e-78
9.626925e-85
9.619689e-91
1.302663e-96
0.03613905
5.727956e-09
1.073755e-13
1.390414e-18
2.320339e-23
1.781572e-28
1.191979e-33
0
1.309233e-44
2.901372e-50
1.201453e-55
4.129272e-61
1.161923e-66
2.762844e-72
1.626754e-77
7.18459e-84
8.736064e-90
1.00248e-95
0.03797361
7.328045e-09
1.609333e-13
2.393036e-18
4.498981e-23
3.875516e-28
2.956146e-33
1.906092e-38
0
2.079273e-49
5.921343e-55
2.425878e-60
8.263316e-66
2.358512e-71
1.511449e-76
8.531821e-83
1.151654e-88
1.485691e-94
0.03988951
9.657244e-09
2.407689e-13
4.175574e-18
8.917398e-23
8.464917e-28
7.149279e-33
5.230504e-38
1.973294e-43
0
3.963514e-54
1.393563e-59
5.448493e-65
1.788255e-70
1.348049e-75
9.077113e-82
1.512186e-87
2.267342e-93
0.04195708
1.18871e-08
3.533257e-13
7.05811e-18
1.739868e-22
1.847587e-27
1.75219e-32
1.421524e-37
5.971419e-43
3.964308e-48
0
9.367616e-59
2.469951e-64
1.051021e-69
9.498061e-75
7.849621e-81
1.487951e-86
2.64984e-92
0.04407018
1.446507e-08
5.041032e-13
1.159474e-17
3.33557e-22
4.017182e-27
4.236732e-32
3.888564e-37
1.852912e-42
1.395958e-47
1.005362e-52
0
1.500066e-63
1.913325e-68
0
2.334077e-80
9.630568e-86
2.555698e-91
0.04633065
1.825682e-08
7.220412e-13
1.906614e-17
6.412017e-22
8.677688e-27
1.020957e-31
1.043342e-36
5.547434e-42
4.759896e-47
3.902136e-52
2.50933e-57
6.398386e-63
6.368824e-68
1.861408e-73
3.961195e-79
1.088376e-84
2.684821e-90
0.04873228
2.201564e-08
1.029359e-12
3.17239e-17
1.252753e-21
1.955837e-26
2.630342e-31
3.06954e-36
1.852779e-41
1.834965e-46
1.696992e-51
1.36382e-56
8.610606e-62
5.969848e-68
1.620034e-72
3.708584e-78
1.167304e-83
3.464857e-89
0.05122945
2.785923e-08
1.475772e-12
5.339963e-17
2.462714e-21
4.345498e-26
6.595274e-31
8.725531e-36
5.770107e-41
6.307402e-46
6.555512e-51
5.918087e-56
4.675367e-61
1.246376e-65
1.653054e-71
4.021316e-77
1.111857e-82
4.69524e-88
0.05393464
3.414555e-08
2.095759e-12
8.999305e-17
5.107508e-21
9.9146e-26
1.713208e-30
2.576789e-35
1.963747e-40
2.451389e-45
2.914194e-50
3.036647e-55
2.79978e-60
2.95194e-64
1.173195e-70
5.57054e-77
4.506569e-82
1.216614e-86
0.05676044
4.154293e-08
2.936048e-12
1.442225e-16
3.117401e-20
1.620517e-25
3.363053e-30
5.49372e-35
7.471721e-40
6.759811e-45
9.302183e-50
1.128766e-54
1.195811e-59
2.321519e-64
6.069518e-70
3.631064e-75
2.067108e-80
6.051002e-85
0.05973063
4.745078e-08
3.657613e-12
2.207324e-16
8.643219e-21
3.695813e-25
7.915324e-30
1.060406e-34
1.457465e-38
2.712633e-44
4.076317e-49
5.419609e-54
7.735182e-59
1.027347e-63
4.276322e-69
3.665158e-74
2.803859e-79
1.99562e-83
0.0629288
5.233011e-08
4.250006e-12
2.165989e-16
1.235482e-20
6.836713e-25
1.892204e-29
3.700391e-34
7.843651e-39
9.490847e-44
1.766015e-48
2.860431e-53
7.907754e-58
0
2.346042e-68
1.697247e-73
2.496804e-78
0
0.06661596
4.874026e-08
4.801507e-12
2.219043e-16
1.445065e-20
9.470433e-25
2.989629e-29
6.476377e-34
1.570347e-38
2.18941e-43
4.737115e-48
8.769676e-53
2.13355e-57
2.487599e-62
2.517499e-67
3.551676e-72
1.478449e-76
3.151931e-83
0.07883099
1.206977e-07
1.19836e-11
1.407532e-15
1.741471e-23
1.914642e-24
6.340862e-29
1.498854e-33
0
1.471746e-42
1.92154e-47
4.227742e-52
4.03911e-56
2.461064e-61
2.439156e-66
4.179995e-71
1.740068e-75
7.20578e-81
0.08489818
1.462252e-07
2.214667e-11
3.77825e-15
2.356181e-19
1.2085e-23
4.778615e-28
0
5.822248e-37
1.115012e-41
2.718029e-46
6.596812e-51
5.310645e-55
6.762875e-60
5.004362e-65
2.34909e-69
0
1.233646e-79
0.09506053
1.193285e-07
2.682322e-11
5.241735e-15
4.031676e-19
2.90167e-23
1.367755e-27
3.356005e-32
1.405538e-36
4.118292e-41
1.207386e-45
4.818273e-50
1.656978e-54
3.257678e-59
8.984434e-64
5.925104e-68
3.725397e-73
5.152633e-78
0.189754
1.027613e-07
5.756859e-11
1.783626e-14
1.357444e-18
1.01521e-22
4.607614e-27
1.395153e-31
6.938725e-36
2.421813e-40
8.808939e-45
6.055325e-49
2.295095e-54
4.355399e-58
2.285668e-62
1.018407e-66
4.188326e-72
9.870539e-77
0.3247732
0
6.449001e-11
2.067399e-14
1.83919e-18
1.486521e-22
8.784304e-27
2.43083e-31
1.515551e-35
8.347573e-40
4.754962e-44
5.305901e-48
1.059708e-52
3.848372e-57
2.094641e-61
0
7.210366e-71
1.592629e-75
0.4359312
1.110156e-05
1.015508e-10
6.278727e-14
3.333629e-18
2.044703e-22
9.795287e-27
7.050319e-31
5.216108e-35
2.983401e-39
1.404743e-43
3.2229e-47
1.357874e-52
2.87111e-57
3.694173e-61
4.238626e-66
7.464659e-71
1.952207e-75
0.5040385
0.0004119368
5.346862e-09
5.380737e-13
3.291459e-17
3.906251e-21
3.22949e-25
2.445104e-29
1.816683e-33
1.018152e-37
4.989902e-42
1.839929e-46
6.110641e-51
3.309478e-55
0
4.188853e-65
3.976186e-70
7.77035e-75
0.5235548
2.740425e-06
8.626039e-09
2.48778e-12
2.978947e-16
4.780036e-20
5.477141e-24
4.755949e-28
4.586589e-32
3.525845e-36
3.082635e-40
1.083582e-44
5.305526e-49
4.482664e-53
4.522988e-58
1.252662e-63
3.310597e-68
4.447226e-73
0.5311703
0
2.575484e-10
1.06079e-13
3.750672e-17
9.714721e-21
3.372074e-24
8.229354e-28
1.960358e-31
4.03445e-35
5.897836e-39
7.235895e-43
4.055315e-47
2.58231e-53
2.504945e-55
6.057667e-60
4.021144e-64
2.911586e-68
0.5436728
0.0001899489
6.036561e-09
1.54576e-12
9.400183e-16
4.31674e-19
3.088434e-22
1.540219e-25
6.887582e-29
2.302444e-32
4.80909e-36
9.167698e-40
2.32233e-43
8.386632e-48
3.485633e-52
2.19817e-56
0
2.96124e-65
0.554107
0.001085638
3.963046e-09
1.495786e-12
2.98786e-15
3.684426e-18
4.77005e-21
3.94113e-24
3.540773e-27
1.496711e-30
7.560232e-35
9.408238e-38
9.599989e-42
1.904066e-45
1.641677e-49
5.60416e-53
1.440511e-57
1.306315e-62
0.5585115
0.002130216
2.186454e-08
3.166206e-11
1.121304e-13
1.618699e-16
2.453803e-19
2.734181e-22
2.179828e-25
2.239612e-28
1.333008e-31
5.698096e-35
1.39196e-38
2.833472e-42
4.156511e-46
5.357317e-50
3.166755e-54
2.322994e-59
0.5502604
0.005100927
1.748697e-06
3.720912e-09
1.123579e-11
2.812671e-14
4.496658e-17
5.865051e-20
5.773798e-23
5.212984e-26
4.157626e-29
1.304935e-32
4.802743e-36
1.51726e-39
8.646344e-44
0
1.613398e-52
4.381669e-57
0.5562004
0.04634682
6.666578e-05
1.187944e-07
3.705315e-10
1.642379e-12
2.756083e-15
4.466217e-18
5.730654e-21
6.444989e-24
3.347307e-27
9.445449e-31
7.644904e-34
8.798555e-38
0
1.086974e-45
0
1.430239e-54
0.5636367
0.1420261
0.0007288888
5.078792e-06
3.781666e-08
2.312499e-10
3.878476e-13
5.779481e-16
9.362705e-19
7.419987e-22
4.209433e-25
4.137823e-28
1.093357e-31
0
1.816161e-39
0
2.560551e-48
0
0.5603162
0.25513
0.002260375
6.91909e-05
0
1.030733e-21
1.425441e-24
2.380617e-28
4.990667e-33
3.648031e-35
4.005827e-40
3.660313e-43
0
1.339944e-52
0.5588502
0.5422816
0
3.164047e-29
7.446636e-33
1.454281e-36
0
3.250889e-44
0
1.612995e-53
0.5625849
0
0
4.345827e-36
0
9.689204e-46
4.344366e-50
3.790516e-54
6.179046e-32
1.430044e-36
1.079508e-41
1.688837e-45
0
2.14127e-55
3.866923e-37
8.478276e-42
8.976995e-46
3.358209e-49
9.486235e-54
0
0
1.857055e-46
1.340029e-51
2.019578e-55
3.023508e-41
3.023794e-45
6.819157e-49
5.54802e-53
5.660635e-57
5.033942e-44
2.083432e-47
1.397373e-51
8.289903e-56
8.551723e-60
9.020557e-46
1.681837e-49
0
7.647626e-58
1.235126e-62
2.044757e-46
1.226389e-51
1.76177e-57
0
6.000498e-65
0
5.860523e-43
1.740068e-48
8.844786e-55
3.008866e-61
4.212652e-67
0.5634985
0
0
1.557586e-45
0
0
6.610072e-66
0.5629069
0.5414917
0
5.31199e-36
2.694483e-41
0
9.032286e-53
6.195644e-61
5.846478e-66
0.5644089
0.3890517
0.001344618
0
9.709213e-28
1.589844e-32
4.22272e-37
0
2.333682e-47
0
4.883012e-58
3.826611e-64
0.5564106
0.1748903
0.00139246
1.588391e-05
2.026757e-07
8.89452e-10
1.285476e-12
9.027483e-16
2.767877e-19
1.12759e-22
5.309699e-26
2.042921e-30
6.201989e-35
6.053258e-41
6.257935e-47
7.085382e-52
1.42695e-57
2.653502e-63
0.5489548
0.09560297
0.0003333017
1.200344e-06
2.80495e-09
6.604298e-12
7.163104e-15
6.238982e-18
3.407272e-21
1.327901e-24
4.493593e-28
2.29509e-32
1.343625e-37
2.710579e-41
4.529139e-48
5.069518e-53
2.985463e-58
1.397076e-62
0.5486032
0.03359105
3.458661e-05
2.315869e-08
3.822525e-11
5.955427e-14
5.48573e-17
3.984571e-20
2.073193e-23
3.588662e-27
1.093642e-30
2.363253e-34
4.025529e-39
4.929176e-44
3.609077e-48
2.172933e-53
5.752058e-58
0
0.5460173
0.007937373
3.248694e-07
6.728391e-10
9.062256e-13
9.145815e-16
6.55713e-19
3.567462e-22
1.335154e-25
5.442336e-29
3.348259e-33
1.155946e-36
2.544663e-41
2.614253e-45
1.788051e-51
4.098905e-55
6.695713e-61
3.11905e-65
0.5448194
0.003970835
1.000718e-08
2.023253e-12
5.122256e-15
4.241406e-18
3.457896e-21
1.660635e-24
5.003833e-28
1.477197e-31
2.075037e-35
2.931694e-39
0
1.74731e-47
5.494464e-52
1.899761e-57
4.723663e-62
0
0.5446482
0.002162056
1.244928e-07
9.430646e-12
1.476326e-15
2.173601e-19
3.588726e-23
7.172126e-27
1.703321e-30
3.197926e-34
4.306662e-38
4.244859e-42
3.222156e-46
1.404289e-50
7.997965e-55
7.41658e-60
7.53952e-65
7.197232e-70
0.537422
0.001102171
8.096646e-08
1.036841e-12
3.56997e-17
2.476752e-21
2.226778e-25
2.391848e-29
3.292201e-33
4.089879e-37
6.260552e-41
4.270544e-45
4.904299e-49
0
6.419412e-58
4.959505e-63
1.486539e-68
1.859933e-73
0.525919
0.0004754119
7.899295e-09
4.575346e-14
2.929771e-19
2.246638e-24
2.921513e-28