/*--------------------------------*- C++ -*----------------------------------*\
| =========                 |                                                 |
| \\      /  F ield         | OpenFOAM: The Open Source CFD Toolbox           |
|  \\    /   O peration     | Version:  2206                                  |
|   \\  /    A nd           | Website:  www.openfoam.com                      |
|    \\/     M anipulation  |                                                 |
\*---------------------------------------------------------------------------*/
FoamFile
{
    version     2.0;
    format      ascii;
    arch        "LSB;label=32;scalar=64";
    class       volScalarField;
    location    "1.6";
    object      alpha.a_0;
}
// * * * * * * * * * * * * * * * * * * * * * * * * * * * * * * * * * * * * * //

dimensions      [0 0 0 0 0 0 0];

internalField   nonuniform List<scalar> 
13078
(
0.4121573
0.5617597
0.5809756
0.5811633
0.5805887
0.5798589
0.5790043
0.5651501
0.5809938
0.5818359
0.5812765
0.5806236
0.5798828
0.5790255
0.5826265
0.5825809
0.5820021
0.5813603
0.5806778
0.5799191
0.5790544
0.5833714
0.5827061
0.5820732
0.5814283
0.5807286
0.5799568
0.5790856
0.5834041
0.582744
0.5821177
0.5814652
0.5807693
0.5799919
0.5791161
0.5833736
0.5827467
0.5821368
0.5814879
0.5807894
0.580021
0.5791447
0.5833434
0.5827384
0.5821446
0.5815022
0.580803
0.5800334
0.5791692
0.5833221
0.5827278
0.5821471
0.5815092
0.5808106
0.5800418
0.5791778
0.5833073
0.5827185
0.5821444
0.5815107
0.5808144
0.5800471
0.5791839
0.5832969
0.5827111
0.582141
0.5815105
0.5808163
0.5800505
0.5791882
0.5832893
0.5827054
0.5821379
0.5815095
0.5808171
0.5800527
0.5791915
0.5832835
0.5827011
0.5821352
0.5815084
0.5808173
0.5800542
0.5791941
0.583279
0.5826976
0.5821329
0.5815074
0.5808174
0.5800554
0.5791963
0.5832753
0.5826948
0.582131
0.5815066
0.5808176
0.5800565
0.5791983
0.5832723
0.5826926
0.5821298
0.5815099
0.5808233
0.5800581
0.5792003
0.5832697
0.5826908
0.582129
0.581514
0.5808274
0.5800595
0.5792023
0.5832674
0.5826891
0.582128
0.5815142
0.5808282
0.5800609
0.5792045
0.5832652
0.5826877
0.5821272
0.5815143
0.580829
0.5800623
0.5792068
0.5832631
0.5826863
0.5821265
0.5815144
0.58083
0.5800642
0.5792092
0.583261
0.5826851
0.5821261
0.5815151
0.580837
0.5800745
0.5792126
0.5832589
0.5826838
0.5821256
0.581516
0.5808449
0.5800822
0.5792162
0.5832565
0.5826824
0.582125
0.5815163
0.5808471
0.580085
0.5792193
0.583254
0.582681
0.5821245
0.5815168
0.5808487
0.5800881
0.5792234
0.5832512
0.5826792
0.5821238
0.5815173
0.5808511
0.5800994
0.5792398
0.583248
0.5826773
0.5821228
0.5815178
0.5808536
0.5801119
0.5792521
0.5832444
0.582675
0.5821218
0.5815181
0.5808554
0.5801167
0.5792579
0.5832401
0.5826722
0.5821203
0.5815181
0.5808571
0.5801204
0.5792639
0.5832353
0.5826689
0.5821183
0.5815178
0.5808588
0.5801249
0.579282
0.5832297
0.582665
0.5821158
0.5815172
0.5808603
0.5801294
0.5793011
0.5832247
0.582662
0.5821132
0.5815161
0.5808613
0.5801325
0.579309
0.5832187
0.5826576
0.5821095
0.5815143
0.5808618
0.5801354
0.5793156
0.5832104
0.5826542
0.5821098
0.5815127
0.5808616
0.5801377
0.5793216
0.5832009
0.5826501
0.582112
0.581518
0.5808623
0.5801397
0.5793256
0.5831902
0.5826436
0.5821126
0.5815191
0.5808623
0.5801415
0.5793293
0.583179
0.5826366
0.5821101
0.5815254
0.5808739
0.5801455
0.5793331
0.5831677
0.5826306
0.5821085
0.5815344
0.5808932
0.5801667
0.5793405
0.5831572
0.5826269
0.5821096
0.581542
0.5809129
0.5801822
0.5793507
0.5831495
0.5826276
0.5821162
0.581553
0.5809299
0.580216
0.5793896
0.5831466
0.582635
0.5821307
0.5815741
0.5809594
0.5802664
0.5794363
0.5831531
0.5826561
0.5821614
0.5816217
0.5810291
0.5803641
0.579555
0.5831722
0.5827033
0.5822424
0.5817349
0.5811956
0.5805766
0.5797977
0.5832188
0.5828017
0.5824186
0.5820129
0.581551
0.5810334
0.5805054
0.5833198
0.583011
0.5827604
0.5825018
0.5822413
0.582024
0.5817554
0.5835251
0.5833718
0.5833037
0.5832508
0.5833214
0.5833337
0.5829951
0.583887
0.5839185
0.5840347
0.5842989
0.5844582
0.5843911
0.5842348
0.5844483
0.5846054
0.584941
0.5853765
0.585405
0.5853204
0.5852753
0.5852183
0.5853461
0.585828
0.5861577
0.586296
0.5862498
0.5862099
0.5860911
0.5861241
0.586628
0.5867938
0.5870804
0.587072
0.58729
0.5869685
0.5868668
0.587268
0.5874557
0.5877128
0.5878553
0.5881428
0.5877824
0.5875113
0.5878226
0.5880253
0.5883471
0.5885898
0.5887161
0.5885333
0.5881489
0.5882772
0.5884565
0.5888114
0.5890721
0.5893167
0.5891832
0.5886972
0.5887821
0.5889723
0.5892928
0.589481
0.5897772
0.5896735
0.5891145
0.5891337
0.5891873
0.5894798
0.5896349
0.5899585
0.5899968
0.589403
0.5893846
0.5893825
0.5896112
0.5897467
0.5898944
0.5902073
0.589604
0.5895574
0.5895162
0.5896938
0.5898279
0.5898945
0.5903341
0.5897186
0.5896581
0.5895884
0.5897286
0.5898433
0.5898465
0.5902964
0.5896749
0.5896074
0.5895265
0.589655
0.5897576
0.5897536
0.5901303
0.5895402
0.5894936
0.5894384
0.5895953
0.5896976
0.5897321
0.5898724
0.5893127
0.5893007
0.5892785
0.5894685
0.5895542
0.5896335
0.5894638
0.5889477
0.5889709
0.58898
0.5891968
0.5892717
0.5895237
0.588885
0.5884562
0.5885207
0.5886238
0.5888631
0.5889839
0.5891967
0.5881666
0.5878649
0.5880315
0.5881677
0.588406
0.588537
0.5886329
0.5873713
0.5872124
0.5875383
0.5876517
0.5878264
0.5879141
0.587871
0.5865379
0.5865209
0.586934
0.5870355
0.5871338
0.5870947
0.5872607
0.5857111
0.5857456
0.5862456
0.5863456
0.5865062
0.5863566
0.5863896
0.5849535
0.5849655
0.5853949
0.5856972
0.5857418
0.5854995
0.5852409
0.5843293
0.5843191
0.5844977
0.5848602
0.5848216
0.584607
0.5844104
0.583867
0.5837868
0.583715
0.5837829
0.5838461
0.5837079
0.5834296
0.5835393
0.5833515
0.5831768
0.5829401
0.5827944
0.5826702
0.5821613
0.5833358
0.5830243
0.5827482
0.582412
0.581998
0.5815611
0.5810674
0.5832286
0.5828146
0.5824328
0.5820163
0.58152
0.5809055
0.5802104
0.5831767
0.5827115
0.582256
0.5817535
0.5812095
0.5805759
0.5797731
0.583155
0.5826624
0.5821729
0.5816349
0.5810415
0.5803727
0.5795646
0.5831476
0.5826405
0.5821397
0.5815825
0.5809661
0.5802749
0.5794449
0.5831496
0.5826319
0.5821232
0.5815609
0.5809361
0.5802231
0.5793985
0.5831569
0.5826298
0.5821146
0.5815469
0.5809137
0.5801874
0.5793596
0.583167
0.5826324
0.5821116
0.5815393
0.5808943
0.5801666
0.5793491
0.5831781
0.5826381
0.5821131
0.5815302
0.5808803
0.5801531
0.5793423
0.5831892
0.5826445
0.5821152
0.5815234
0.5808681
0.5801487
0.5793377
0.5831998
0.5826511
0.5821146
0.5815219
0.5808675
0.580146
0.579333
0.5832098
0.5826551
0.582112
0.581516
0.5808661
0.5801433
0.5793278
0.5832182
0.5826585
0.5821114
0.5815174
0.5808657
0.5801401
0.5793209
0.5832243
0.5826628
0.5821149
0.5815186
0.5808647
0.5801365
0.5793135
0.5832294
0.5826657
0.5821173
0.5815194
0.5808632
0.5801327
0.5793049
0.5832351
0.5826697
0.5821196
0.5815198
0.5808612
0.5801277
0.5792849
0.5832401
0.5826728
0.5821214
0.5815197
0.5808591
0.5801228
0.5792664
0.5832444
0.5826756
0.5821228
0.5815193
0.580857
0.5801187
0.57926
0.583248
0.5826777
0.5821236
0.5815187
0.5808549
0.5801135
0.5792539
0.5832512
0.5826795
0.5821243
0.5815183
0.5808523
0.5801006
0.5792412
0.5832539
0.5826812
0.5821249
0.5815176
0.5808497
0.5800893
0.5792247
0.5832564
0.5826825
0.5821254
0.5815169
0.580848
0.580086
0.5792205
0.5832586
0.5826838
0.5821259
0.5815164
0.5808455
0.580083
0.5792171
0.5832607
0.5826851
0.5821262
0.5815153
0.5808372
0.580075
0.5792133
0.5832627
0.5826861
0.5821265
0.5815144
0.5808302
0.5800645
0.5792096
0.5832646
0.5826873
0.5821268
0.5815141
0.5808291
0.5800624
0.5792072
0.5832665
0.5826885
0.5821274
0.5815139
0.5808282
0.580061
0.5792049
0.5832686
0.5826899
0.5821282
0.5815135
0.5808273
0.5800597
0.5792027
0.5832708
0.5826913
0.5821288
0.5815091
0.580823
0.5800582
0.5792005
0.5832732
0.582693
0.5821297
0.5815058
0.5808172
0.5800564
0.5791986
0.5832761
0.5826952
0.5821311
0.5815064
0.5808169
0.5800555
0.5791967
0.5832796
0.5826981
0.582133
0.5815073
0.580817
0.5800546
0.5791949
0.5832842
0.5827015
0.5821353
0.5815083
0.580817
0.5800535
0.5791929
0.58329
0.5827059
0.582138
0.5815094
0.5808167
0.580052
0.5791904
0.5832975
0.5827115
0.5821411
0.5815103
0.580816
0.5800499
0.5791872
0.5833078
0.582719
0.5821443
0.5815105
0.5808143
0.5800466
0.5791828
0.5833223
0.5827281
0.5821443
0.5815071
0.5808103
0.5800412
0.5791764
0.5833435
0.5827386
0.5821428
0.5814995
0.5808024
0.5800328
0.5791547
0.5833733
0.5827474
0.5821376
0.5814883
0.5807901
0.5800088
0.579129
0.5834038
0.582745
0.5821189
0.5814677
0.5807593
0.5799789
0.5791007
0.5833722
0.5827074
0.5820798
0.5814206
0.5807182
0.5799445
0.5790701
0.5826795
0.5826013
0.5819971
0.5813534
0.5806688
0.5799069
0.5790386
0.5662903
0.5812905
0.5819014
0.5812731
0.5806106
0.5798674
0.5790076
0.5779934
0.576726
0.5750371
0.5734331
0.5705842
0.5661209
0.5559936
0.5780163
0.5767547
0.5750735
0.5734752
0.5706361
0.5661929
0.5564064
0.5780434
0.5767852
0.5751127
0.5729188
0.5706856
0.5662624
0.5566351
0.5780723
0.5768163
0.575148
0.5735656
0.5707374
0.5663317
0.5568432
0.5781009
0.5768478
0.5751859
0.5736127
0.570789
0.5664005
0.5569924
0.5781287
0.5768794
0.5752241
0.5736579
0.5708397
0.5664686
0.5571346
0.5781552
0.5769101
0.5752616
0.573701
0.5708531
0.5665362
0.5572706
0.5781785
0.5769401
0.5752985
0.573743
0.570866
0.566603
0.5574017
0.5781855
0.5769672
0.5753333
0.5737853
0.5709062
0.5666626
0.5575286
0.5781906
0.5769745
0.5753653
0.5738272
0.5709456
0.566722
0.5576516
0.5781947
0.5769798
0.5753736
0.5738677
0.5709849
0.5667813
0.5577704
0.5781983
0.5769847
0.5753798
0.5738755
0.5710244
0.5668406
0.5578882
0.5782015
0.5769894
0.575386
0.5738826
0.5710299
0.5669013
0.5580015
0.5782046
0.576994
0.5753923
0.5738901
0.5710364
0.5669108
0.558106
0.5782077
0.5769988
0.5753989
0.5738978
0.5710434
0.5669226
0.5580606
0.5782109
0.5770037
0.5754056
0.5739059
0.5710511
0.5669355
0.558033
0.5782142
0.5770089
0.5754126
0.5739147
0.5710627
0.566949
0.5580146
0.5782177
0.5770141
0.5754202
0.5739284
0.5711815
0.5669638
0.5579782
0.5782213
0.5770194
0.575428
0.5739383
0.5711986
0.5669789
0.5579465
0.5782253
0.5770251
0.5754363
0.5739486
0.5712111
0.5669948
0.5579067
0.5782295
0.5770311
0.5754449
0.5739596
0.5712243
0.5670116
0.5578454
0.5782341
0.5770375
0.5754539
0.5739715
0.5712383
0.5670293
0.5577973
0.5782389
0.5770445
0.5754638
0.573982
0.5712562
0.5670479
0.5577447
0.5782455
0.5770521
0.575475
0.5734317
0.5713743
0.5670788
0.5576901
0.5782522
0.57706
0.5754863
0.5740008
0.5714316
0.5671037
0.5576321
0.5782584
0.5770683
0.575498
0.5740267
0.571454
0.5671265
0.5575683
0.5782664
0.5770783
0.5755118
0.5740441
0.5714766
0.5671531
0.5574901
0.5782927
0.5770897
0.5755252
0.5740615
0.5715074
0.5673931
0.5574073
0.5783098
0.5774201
0.575954
0.5740751
0.5715359
0.5674823
0.5573337
0.5783199
0.5774359
0.5759782
0.5740949
0.5715621
0.5675159
0.5572508
0.5783552
0.5774763
0.5759925
0.5741146
0.5715896
0.5676942
0.5571782
0.5783752
0.5775106
0.5760068
0.5741353
0.5716192
0.5678811
0.5571035
0.5783859
0.5775655
0.5760266
0.5741564
0.5716497
0.5679327
0.5570421
0.578392
0.5775838
0.5760855
0.5741768
0.5716802
0.5679961
0.5579568
0.5783974
0.5775928
0.5761439
0.5741983
0.5717096
0.5680509
0.5580921
0.5784033
0.5775999
0.5762242
0.5742287
0.571731
0.5680929
0.5622316
0.5784108
0.577607
0.576242
0.5743215
0.5717312
0.5681223
0.5597301
0.5784262
0.5776155
0.5762587
0.574397
0.5716745
0.5680024
0.5614804
0.5784527
0.5776205
0.5762445
0.5743611
0.5715114
0.5674382
0.5619616
0.5785023
0.5775798
0.5761138
0.5741583
0.5714737
0.5672127
0.5604656
0.5787512
0.5776964
0.576361
0.5750414
0.5729169
0.56889
0.5610646
0.5797771
0.578857
0.5784489
0.5771476
0.5747058
0.5716038
0.5634912
0.581268
0.5803012
0.5800192
0.578809
0.5764595
0.5723925
0.5639757
0.5824509
0.581344
0.5813245
0.5802734
0.5780909
0.5732146
0.565251
0.5836457
0.5826057
0.582731
0.5814547
0.579082
0.5748737
0.5678291
0.5848566
0.5836711
0.5840005
0.5827349
0.5803369
0.57713
0.5696761
0.5861647
0.5850569
0.5852688
0.5837989
0.5821781
0.5779824
0.5728071
0.5870151
0.5861643
0.585941
0.5849149
0.582634
0.5798009
0.5736805
0.5881051
0.5870637
0.5868902
0.5856326
0.5832672
0.5796671
0.5743424
0.5888722
0.5881153
0.5876718
0.586133
0.5839917
0.5804856
0.5756389
0.5894222
0.5887737
0.5882835
0.5866803
0.5841718
0.58076
0.5760868
0.5898185
0.5893761
0.5885793
0.5872351
0.5851797
0.5818025
0.576949
0.5899352
0.5897509
0.5886915
0.5873639
0.5855356
0.5825199
0.5777841
0.5900458
0.5897845
0.588753
0.5872064
0.5853734
0.5823456
0.5761013
0.5900651
0.5897911
0.5885905
0.5869345
0.5850994
0.5841559
0.5816593
0.590014
0.5896683
0.5883399
0.586674
0.5847247
0.5824966
0.5898969
0.589537
0.5881824
0.5864725
0.584408
0.5821462
0.5898359
0.5896145
0.5881341
0.5862732
0.5843056
0.5816406
0.5896923
0.5895286
0.5879589
0.5864766
0.5845094
0.5822416
0.578071
0.5894234
0.5893845
0.5878699
0.5862767
0.5845752
0.5812657
0.5759739
0.5891287
0.5892345
0.5875964
0.585852
0.583806
0.5808344
0.5756394
0.5886077
0.5889145
0.5872028
0.5857241
0.5836009
0.5802554
0.5756308
0.5879525
0.5883441
0.5867096
0.5851739
0.5831405
0.5795235
0.5750869
0.5871379
0.5876054
0.5860748
0.5847476
0.5819382
0.5789733
0.5745438
0.5859557
0.5866896
0.5852506
0.5834284
0.581645
0.577613
0.5696718
0.5850293
0.585612
0.5839882
0.5829719
0.5802674
0.5768014
0.5695034
0.5838847
0.5843207
0.5832966
0.5813863
0.5794406
0.574505
0.566452
0.582693
0.5830786
0.5816844
0.5805415
0.577438
0.5732667
0.5640874
0.5816334
0.5816944
0.5802948
0.5787142
0.5763297
0.5720392
0.5650161
0.5802987
0.5803071
0.5792749
0.5773926
0.5747678
0.5699925
0.5622128
0.5792096
0.5786525
0.5779617
0.5764625
0.5736845
0.5697279
0.5626308
0.578662
0.5776347
0.5760868
0.5747163
0.572361
0.5689328
0.5609707
0.5785207
0.577564
0.5759558
0.5737106
0.5711743
0.5672819
0.5591028
0.5784658
0.5776119
0.5761788
0.5741781
0.5711742
0.5669279
0.5615594
0.5784368
0.577615
0.5762598
0.574398
0.5715044
0.567705
0.5626864
0.5784217
0.5776036
0.5762565
0.574345
0.5717157
0.5681637
0.5610047
0.5784143
0.5775951
0.576243
0.5742943
0.5717371
0.5681176
0.5599257
0.5784079
0.5775876
0.5762031
0.5742177
0.5717256
0.5680755
0.5582409
0.5784014
0.5775792
0.576121
0.5741932
0.5716993
0.5680207
0.5579224
0.5783942
0.5775678
0.576047
0.5741722
0.5716685
0.5679643
0.5576527
0.5783825
0.5775291
0.5760233
0.5741503
0.5716369
0.567906
0.5570033
0.578361
0.5774886
0.5760047
0.5741283
0.5716062
0.5678306
0.5570925
0.5783249
0.5774378
0.5759892
0.5741073
0.571577
0.567545
0.5571654
0.5783139
0.577423
0.5759729
0.574088
0.5715501
0.5674986
0.5572586
0.5782956
0.5770923
0.5755276
0.5740627
0.5715235
0.5674635
0.5573425
0.5782691
0.5770809
0.5755142
0.5740465
0.5714919
0.5672466
0.5574269
0.5782606
0.5770706
0.5755007
0.5740305
0.571466
0.5671393
0.5575129
0.5782541
0.5770619
0.5754884
0.5740154
0.5714435
0.5671156
0.5575833
0.5782471
0.5770536
0.5754766
0.574001
0.5714185
0.5670935
0.5576532
0.5782403
0.577046
0.5754658
0.5739871
0.5712963
0.5670628
0.5577116
0.5782353
0.5770389
0.5754556
0.5739741
0.5712461
0.5670393
0.5577685
0.5782306
0.5770322
0.5754461
0.5739622
0.5712319
0.5670213
0.5578254
0.5782261
0.577026
0.5754373
0.5739508
0.5712182
0.5670042
0.5578744
0.5782219
0.5770202
0.5754288
0.5739403
0.5712054
0.5669878
0.5579218
0.5782182
0.5770148
0.575421
0.5739301
0.5711934
0.5669723
0.5579611
0.5782146
0.5770095
0.5754134
0.573918
0.5711319
0.5669572
0.5579937
0.5782113
0.5770042
0.5754063
0.573907
0.5710556
0.566943
0.5580249
0.5782081
0.5769994
0.5753996
0.5738983
0.5710478
0.5669296
0.5580543
0.5782052
0.5769947
0.5753932
0.5738898
0.5710404
0.5669169
0.5580738
0.5782023
0.5769903
0.5753869
0.5738818
0.5710336
0.5669054
0.5580383
0.5781994
0.5769859
0.575381
0.573874
0.5710272
0.5668703
0.5579251
0.5781963
0.5769814
0.5753751
0.5738663
0.571005
0.5668109
0.5578079
0.5781929
0.5769767
0.5753672
0.5738418
0.570966
0.5667514
0.5576865
0.5781888
0.5769702
0.5753357
0.5737999
0.5709267
0.566692
0.5575642
0.5781831
0.576944
0.5753016
0.5737574
0.5708873
0.5666322
0.5574386
0.5781613
0.5769151
0.5752655
0.5737143
0.5708494
0.5665692
0.5573095
0.5781365
0.5768854
0.5752286
0.5736731
0.5708641
0.5665018
0.5571766
0.5781102
0.5768545
0.575191
0.5736291
0.5708152
0.566434
0.557039
0.5780824
0.5768228
0.5751528
0.5735851
0.5707644
0.5663658
0.5568956
0.5780531
0.5767907
0.5751144
0.5735409
0.5707133
0.5662969
0.5567254
0.5780237
0.5767589
0.5750761
0.5734975
0.5706617
0.5662274
0.5565038
0.5779949
0.5767267
0.5750378
0.5734546
0.57061
0.566157
0.5562015
0.00327785
0
4.849381e-16
1.236149e-21
4.238308e-28
6.995234e-34
5.749562e-40
3.577202e-46
5.443701e-53
6.730693e-60
1.165498e-66
2.104584e-73
4.947393e-80
1.480243e-86
2.583694e-92
5.314822e-99
2.674083e-105
1.262429e-111
0.008124178
3.621267e-11
1.166644e-16
3.077415e-22
1.41412e-28
2.59116e-34
2.425263e-40
1.75048e-46
3.304725e-53
6.737715e-60
1.648737e-66
3.383841e-73
7.231497e-80
1.377117e-86
1.554964e-92
5.904291e-100
4.646497e-107
7.958692e-114
0.008775704
1.995842e-10
2.363941e-16
3.132574e-22
1.500824e-28
2.110129e-34
1.915756e-40
1.427993e-46
2.938233e-53
6.935899e-60
1.982893e-66
5.632547e-73
1.458802e-79
3.182323e-86
3.84732e-92
1.345715e-99
1.043481e-106
1.054081e-113
0.009396456
2.083355e-10
3.634533e-16
5.694372e-22
2.857141e-28
3.943716e-34
3.514362e-40
2.727732e-46
5.091933e-53
1.378649e-59
4.237822e-66
1.288142e-72
3.659296e-79
9.23857e-86
1.202374e-91
4.444073e-99
4.315872e-106
4.730281e-113
0.01019183
2.293026e-10
4.936961e-16
8.451922e-22
5.371876e-28
7.477942e-34
7.25873e-40
5.762654e-46
1.242019e-52
3.370411e-59
1.199756e-65
3.850873e-72
1.167193e-78
3.371168e-85
0
8.945355e-98
2.176901e-105
2.713305e-112
0.01115128
2.744488e-10
6.24192e-16
1.226193e-21
9.698204e-28
1.418466e-33
1.477926e-39
1.25464e-45
2.788362e-52
9.281094e-59
3.672676e-65
1.432952e-71
4.500627e-78
1.489865e-84
1.281644e-91
2.489224e-97
1.432759e-104
2.077135e-111
0.01225791
2.906088e-10
7.999269e-16
1.792186e-21
1.739662e-27
2.729879e-33
3.030838e-39
2.825369e-45
7.134103e-52
2.746898e-58
1.246351e-64
5.29e-71
2.024316e-77
7.063858e-84
3.09644e-90
1.431384e-96
1.035182e-103
1.686375e-110
0.01349682
3.109736e-10
1.03562e-15
2.576152e-21
3.042675e-27
5.008215e-33
6.411763e-39
6.518293e-45
1.818386e-51
8.966546e-58
4.487899e-64
2.175766e-70
9.222741e-77
3.875444e-83
1.851982e-89
8.958658e-96
7.511584e-103
1.455185e-109
0.01485598
3.988435e-10
1.362898e-15
3.762575e-21
5.453057e-27
9.586523e-33
1.34187e-38
1.548941e-44
5.096714e-51
2.831214e-57
1.707308e-63
9.331514e-70
4.639737e-76
2.149248e-82
1.165882e-88
6.027874e-95
6.428604e-102
1.432982e-108
0.01632362
4.803724e-10
1.845999e-15
5.594567e-21
9.856184e-27
1.893006e-32
2.94658e-38
3.834408e-44
1.546216e-50
9.740888e-57
6.842099e-63
4.299228e-69
2.594723e-75
1.304154e-81
8.205652e-88
4.639399e-94
5.90176e-101
1.48177e-107
0.01790313
1.386018e-09
2.517105e-15
8.529345e-21
1.845983e-26
3.934162e-32
6.638889e-38
9.90264e-44
4.718858e-50
3.516076e-56
2.862614e-62
2.144402e-68
1.443851e-74
8.552828e-81
5.894879e-87
3.75606e-93
5.09672e-100
1.473439e-106
0.01874152
3.307581e-09
3.583973e-15
1.351799e-20
3.608929e-26
8.332502e-32
1.642868e-37
2.774275e-43
1.536392e-49
1.405228e-55
1.281724e-61
1.099578e-67
8.502605e-74
5.707853e-80
4.496366e-86
3.015369e-92
5.494119e-99
1.732464e-105
0.01945415
6.812278e-10
5.069241e-15
2.291609e-20
7.691243e-26
1.97272e-31
4.467778e-37
8.423556e-43
5.339683e-49
5.720634e-55
6.015846e-61
6.066471e-67
5.33095e-73
4.061444e-79
3.755592e-85
2.674125e-91
5.474464e-98
2.042832e-104
0.02090364
1.548084e-09
8.798511e-15
4.602731e-20
2.230824e-25
6.165549e-31
1.511373e-36
3.178596e-42
2.364971e-48
2.759138e-54
3.48549e-60
3.750634e-66
3.658168e-72
3.219416e-78
3.288645e-84
2.772521e-90
6.497332e-97
2.657523e-103
0.02513007
2.637072e-09
2.38471e-14
1.508391e-19
7.254826e-25
2.501826e-30
7.131535e-36
1.724862e-41
1.552202e-47
2.218949e-53
3.118791e-59
4.002897e-65
4.603662e-71
4.655934e-77
5.264796e-83
4.39308e-89
1.354005e-95
6.256791e-102
0.02612797
0
1.412665e-14
8.602149e-20
4.105561e-25
1.537774e-30
5.210251e-36
1.630316e-41
1.888678e-47
3.557987e-53
6.017228e-59
9.107529e-65
1.229207e-70
1.410514e-76
1.924098e-82
1.781209e-88
6.404148e-95
3.567499e-101
0.02756924
2.346802e-09
0
1.116986e-19
6.266412e-25
2.351069e-30
7.157806e-36
2.088289e-41
2.68654e-47
6.143248e-53
1.401551e-58
2.844663e-64
4.924298e-70
7.314302e-76
1.289819e-81
1.399322e-87
6.92828e-94
4.82814e-100
0.02924203
2.684109e-09
3.702275e-14
0
1.082042e-24
5.128488e-30
1.913717e-35
5.472362e-41
6.113529e-47
1.378639e-52
3.350044e-58
7.426732e-64
1.454693e-69
2.443429e-75
4.875602e-81
6.19584e-87
3.180339e-93
2.509666e-99
0.0310437
2.864999e-09
5.009343e-14
4.765119e-19
0
1.15783e-29
4.42259e-35
1.601603e-40
2.099407e-46
4.785067e-52
1.268163e-57
3.346357e-63
7.59354e-69
1.483049e-74
3.387034e-80
4.432292e-86
2.779267e-92
2.392434e-98
0.0328076
3.404399e-09
6.873386e-14
8.241321e-19
1.029671e-23
0
1.870739e-34
6.277358e-40
1.053026e-45
2.467954e-51
5.679505e-57
1.297973e-62
2.784259e-68
5.58465e-74
3.964351e-79
1.920239e-85
1.324761e-91
1.303295e-97
0.03452402
4.412003e-09
8.17403e-14
1.037071e-18
1.483752e-23
9.904281e-29
0
1.700382e-39
2.537972e-45
9.074702e-51
2.853357e-56
7.547938e-62
1.732479e-67
3.67434e-73
9.186599e-78
9.66647e-85
1.020031e-90
1.381244e-96
0.03627806
6.14937e-09
1.145455e-13
1.482772e-18
2.457839e-23
1.885743e-28
1.259306e-33
0
1.346229e-44
3.085035e-50
1.276659e-55
4.383723e-61
1.232334e-66
2.92662e-72
1.70462e-77
7.602431e-84
9.232597e-90
1.058767e-95
0.03812376
7.869154e-09
1.716929e-13
2.551595e-18
4.763643e-23
4.10021e-28
3.123506e-33
2.011939e-38
0
2.119288e-49
6.289755e-55
2.575778e-60
8.767083e-66
2.499504e-71
1.584051e-76
9.016042e-83
1.216792e-88
1.568035e-94
0.0400516
1.035961e-08
2.569025e-13
4.452236e-18
9.441335e-23
8.955743e-28
7.553949e-33
5.523171e-38
2.096184e-43
0
4.090251e-54
1.482089e-59
5.791458e-65
1.897426e-70
1.413971e-75
9.608553e-82
1.600317e-87
2.397257e-93
0.04213192
1.275557e-08
3.770473e-13
7.526578e-18
1.841804e-22
1.95433e-27
1.85094e-32
1.500898e-37
6.345652e-43
4.213387e-48
0
9.502851e-59
2.621167e-64
1.111916e-69
1.000275e-74
8.301206e-81
1.576094e-86
2.804064e-92
0.04425877
1.552933e-08
5.379432e-13
1.236591e-17
3.530794e-22
4.249126e-27
4.475426e-32
4.105237e-37
1.968915e-42
1.484117e-47
1.067889e-52
0
1.570103e-63
2.018494e-68
0
2.469764e-80
1.020413e-85
2.707736e-91
0.04653412
1.958607e-08
7.705011e-13
2.033481e-17
6.785473e-22
9.176617e-27
1.07824e-31
1.101252e-36
5.893402e-42
5.059302e-47
4.145314e-52
2.659033e-57
6.641876e-63
6.653328e-68
1.963063e-73
4.192646e-79
1.151266e-84
2.837521e-90
0.04895187
2.363794e-08
1.098535e-12
3.383479e-17
1.325518e-21
2.067812e-26
2.777453e-31
3.239676e-36
1.968705e-41
1.950559e-46
1.802989e-51
1.448087e-56
9.12146e-62
6.200115e-68
1.706796e-72
3.930307e-78
1.235998e-83
3.662306e-89
0.05146667
2.989459e-08
1.575023e-12
5.69528e-17
2.605221e-21
4.593761e-26
6.963663e-31
9.208428e-36
6.12912e-41
6.70208e-46
6.960442e-51
6.279126e-56
4.95521e-61
1.26212e-65
1.648947e-71
4.130724e-77
1.179462e-82
4.828718e-88
0.05419131
3.665455e-08
2.23697e-12
9.596455e-17
5.395355e-21
1.047647e-25
1.807889e-30
2.715801e-35
2.085691e-40
2.604943e-45
3.095013e-50
3.222925e-55
2.968348e-60
3.036179e-64
1.195655e-70
5.805853e-77
4.583303e-82
1.257536e-86
0.05703882
4.460163e-08
3.134731e-12
1.540818e-16
3.208744e-20
1.714454e-25
3.553252e-30
5.810014e-35
7.733141e-40
7.19137e-45
9.88992e-50
1.199233e-54
1.269009e-59
2.438429e-64
6.436306e-70
3.838533e-75
2.194157e-80
6.158553e-85
0.06003236
5.098771e-08
3.907796e-12
2.352308e-16
9.257543e-21
3.902711e-25
8.350644e-30
1.122085e-34
1.506472e-38
2.882931e-44
4.329384e-49
5.751274e-54
8.151078e-59
1.098969e-63
4.542586e-69
3.892223e-74
2.980579e-79
2.055033e-83
0.06325694
5.632734e-08
4.545198e-12
2.321665e-16
1.316911e-20
7.239715e-25
2.001156e-29
3.919944e-34
8.303052e-39
1.010525e-43
1.879208e-48
3.041311e-53
8.347688e-58
0
2.465401e-68
1.785099e-73
2.596601e-78
0
0.06697788
5.237735e-08
5.132447e-12
2.387593e-16
1.544378e-20
1.002427e-24
3.158579e-29
6.851064e-34
1.660803e-38
2.329853e-43
5.037634e-48
9.318294e-53
2.250533e-57
2.617014e-62
2.664326e-67
3.75318e-72
1.512924e-76
3.573821e-83
0.07925218
1.297838e-07
1.277494e-11
1.489675e-15
0
2.002763e-24
6.659737e-29
1.57077e-33
0
1.521226e-42
2.028785e-47
4.458448e-52
4.02904e-56
2.540255e-61
2.575715e-66
4.408064e-71
1.819799e-75
7.402225e-81
0.08536588
1.576622e-07
2.36549e-11
4.00601e-15
2.496667e-19
1.275111e-23
5.038173e-28
0
6.11849e-37
1.183314e-41
2.885675e-46
6.989121e-51
5.550478e-55
6.961007e-60
5.2613e-65
2.448697e-69
0
1.298876e-79
0.09556235
1.301867e-07
2.873942e-11
5.567834e-15
4.279459e-19
3.066403e-23
1.444373e-27
3.560485e-32
1.489381e-36
4.369943e-41
1.28216e-45
5.07405e-50
1.78287e-54
3.476534e-59
9.58402e-64
6.225467e-68
3.933214e-73
5.470599e-78
0.1905272
1.191063e-07
6.075985e-11
1.873387e-14
1.426782e-18
1.064184e-22
4.829754e-27
1.471296e-31
7.310281e-36
2.555046e-40
9.309297e-45
6.356765e-49
2.402887e-54
4.571173e-58
2.331869e-62
1.076095e-66
4.510031e-72
1.053733e-76
0.3253004
0
6.944107e-11
2.200543e-14
1.961179e-18
1.579261e-22
9.307581e-27
2.589926e-31
1.610325e-35
8.890322e-40
5.067536e-44
5.537594e-48
1.135116e-52
4.118429e-57
2.222999e-61
0
7.72223e-71
1.704073e-75
0.4362389
1.035712e-05
1.054331e-10
6.564382e-14
3.489035e-18
2.120748e-22
1.010983e-26
7.293736e-31
5.402807e-35
3.102533e-39
1.469038e-43
3.311843e-47
1.363343e-52
2.913686e-57
3.665418e-61
4.302184e-66
7.719698e-71
2.01677e-75
0.5043548
0.0004267785
5.651042e-09
5.639011e-13
3.439301e-17
4.058691e-21
3.359957e-25
2.5485e-29
1.889282e-33
1.058971e-37
5.162224e-42
1.96856e-46
6.360532e-51
3.395976e-55
0
4.425157e-65
4.184289e-70
8.178916e-75
0.5233196
7.051383e-06
9.228895e-09
2.643289e-12
3.157517e-16
5.045145e-20
5.730441e-24
4.963281e-28
4.783038e-32
3.697327e-36
3.238638e-40
1.151186e-44
5.574391e-49
4.565032e-53
4.537472e-58
1.103983e-63
2.567753e-68
3.025453e-73
0.5310692
0
2.739711e-10
1.118154e-13
3.879946e-17
9.875378e-21
3.367473e-24
8.109889e-28
1.914817e-31
3.897345e-35
5.606706e-39
6.78862e-43
3.611417e-47
7.947695e-54
2.334669e-55
5.306985e-60
3.690271e-64
2.643379e-68
0.5435356
0.0001939534
6.01701e-09
1.576701e-12
9.448846e-16
4.278785e-19
3.050352e-22
1.515993e-25
6.755278e-29
2.256581e-32
4.492643e-36
8.815912e-40
2.189088e-43
8.227249e-48
3.479797e-52
2.109585e-56
0
2.82961e-65
0.5540291
0.001078508
3.981318e-09
1.538233e-12
3.017551e-15
3.664332e-18
4.711279e-21
3.8708e-24
3.490592e-27
1.469566e-30
4.284224e-35
8.804482e-38
9.261467e-42
1.740767e-45
1.534624e-49
5.079667e-53
1.29991e-57
1.387197e-62
0.5584167
0.002089067
2.259235e-08
3.072232e-11
1.072157e-13
1.538298e-16
2.329889e-19
2.615083e-22
2.086462e-25
2.144271e-28
1.299703e-31
5.55352e-35
1.345036e-38
2.784903e-42
4.207168e-46
5.411713e-50
3.062565e-54
2.30285e-59
0.5502253
0.005030106
1.716414e-06
3.592606e-09
1.080683e-11
2.713941e-14
4.276623e-17
5.586887e-20
5.483146e-23
4.93164e-26
4.050843e-29
1.181511e-32
4.720424e-36
1.475264e-39
8.445712e-44
0
1.539811e-52
4.463357e-57
0.5557517
0.04539142
6.253593e-05
1.131033e-07
3.487619e-10
1.530362e-12
2.574338e-15
4.232379e-18
5.472051e-21
6.224473e-24
3.246597e-27
9.073139e-31
7.404468e-34
8.553083e-38
0
9.800123e-46
0
1.368604e-54
0.563542
0.1395761
0.0007290007
4.857648e-06
3.584704e-08
2.156697e-10
3.528282e-13
5.398688e-16
8.919527e-19
7.095693e-22
3.88749e-25
4.096773e-28
1.094099e-31
0
1.802476e-39
0
2.497746e-48
0
0.5601764
0.2515336
0.002262609
6.806761e-05
0
6.918572e-22
1.370517e-24
2.099361e-28
2.540663e-33
3.632572e-35
4.265785e-40
3.691352e-43
4.416559e-50
1.356777e-52
0.5586461
0.5418002
0
3.413058e-29
7.057133e-33
1.479631e-36
0
3.281635e-44
0
1.565314e-53
0.5624666
0
6.458559e-35
4.368216e-36
0
9.996799e-46
4.594153e-50
3.881991e-54
6.377216e-32
1.525869e-36
1.110316e-41
1.721294e-45
0
2.241861e-55
3.949844e-37
9.270833e-42
9.283488e-46
3.475155e-49
9.599934e-54
0
0
1.93005e-46
1.517082e-51
2.101466e-55
3.182179e-41
3.257449e-45
7.24297e-49
5.895441e-53
5.877247e-57
5.591367e-44
2.249407e-47
1.516018e-51
8.852467e-56
8.946513e-60
9.391147e-46
1.753864e-49
0
7.341088e-58
1.224379e-62
1.098788e-46
1.243335e-51
1.842994e-57
0
5.797032e-65
0
8.904245e-43
1.182951e-48
4.65331e-55
1.219031e-61
3.106305e-67
0.563458
3.12795e-35
0
6.28597e-46
0
0
0
0.5628204
0.5413904
9.658691e-31
5.378823e-36
1.168541e-41
5.514048e-48
6.114075e-53
8.344908e-60
5.661335e-66
0.5643884
0.3847137
0.001300134
0
0
1.630326e-32
2.182717e-37
0
1.947976e-47
0
2.649201e-58
1.905432e-64
0.556293
0.1719626
0.001359042
1.527594e-05
1.970726e-07
8.240088e-10
1.132975e-12
7.801527e-16
1.986384e-19
9.418498e-23
4.628393e-26
1.331505e-30
4.470727e-35
1.513463e-41
6.922409e-47
2.931684e-52
7.18907e-58
1.796706e-63
0.5485975
0.09410994
0.0003170885
1.119795e-06
2.596525e-09
6.049028e-12
6.392894e-15
5.558352e-18
2.837057e-21
1.145342e-24
3.745764e-28
1.382703e-32
6.751325e-38
2.484027e-41
7.425902e-49
8.188779e-53
2.404829e-58
1.045578e-62
0.5482809
0.0329141
3.227002e-05
2.150897e-08
3.574881e-11
5.52482e-14
4.955876e-17
3.557869e-20
1.809357e-23
2.633261e-27
9.853834e-31
1.999332e-34
2.861121e-39
2.392741e-44
3.340056e-48
1.867764e-53
3.636921e-58
0
0.5457366
0.007712832
1.952755e-07
6.573693e-10
8.512568e-13
8.596244e-16
5.988172e-19
3.210803e-22
1.172524e-25
4.813616e-29
3.037625e-33
1.019235e-36
2.089244e-41
2.115078e-45
3.922914e-52
3.655476e-55
0
2.183986e-65
0.5445624
0.003878886
1.017468e-08
1.928182e-12
4.903797e-15
4.034919e-18
3.24308e-21
1.529864e-24
4.48e-28
1.301971e-31
1.842135e-35
2.479327e-39
0
1.501789e-47
4.141621e-52
1.586809e-57
3.259868e-62
0
0.5444604
0.002141207
1.14238e-07
8.505438e-12
1.332546e-15
1.895161e-19
3.167006e-23
6.490347e-27
1.554093e-30
2.879574e-34
3.784593e-38
3.607271e-42
2.816174e-46
1.292566e-50
6.172784e-55
5.053405e-60
5.687357e-65
4.645821e-70
0.5372513
0.001108566
7.612675e-08
8.235593e-13
3.121857e-17
2.148708e-21
1.956349e-25
2.163204e-29
3.024442e-33
3.762037e-37
5.782569e-41
4.239613e-45
4.085843e-49
0
5.249683e-58
3.495248e-63
9.035511e-69
1.218271e-73
0.5254638
0.0004720482
7.338137e-09
3.709999e-14
2.287145e-19