/*--------------------------------*- C++ -*----------------------------------*\
| =========                 |                                                 |
| \\      /  F ield         | OpenFOAM: The Open Source CFD Toolbox           |
|  \\    /   O peration     | Version:  2206                                  |
|   \\  /    A nd           | Website:  www.openfoam.com                      |
|    \\/     M anipulation  |                                                 |
\*---------------------------------------------------------------------------*/
FoamFile
{
    version     2.0;
    format      ascii;
    arch        "LSB;label=32;scalar=64";
    class       volScalarField;
    location    "1.6";
    object      alpha.b;
}
// * * * * * * * * * * * * * * * * * * * * * * * * * * * * * * * * * * * * * //

dimensions      [0 0 0 0 0 0 0];

internalField   nonuniform List<scalar> 
13078
(
0.5900177
0.4385421
0.4190374
0.4188387
0.419412
0.4201417
0.4209962
0.4351224
0.4190319
0.418167
0.4187244
0.4193771
0.4201177
0.4209749
0.4173853
0.4174217
0.4179988
0.4186404
0.4193227
0.4200814
0.4209461
0.4166287
0.4172943
0.4179272
0.4185721
0.4192718
0.4200436
0.4209148
0.4165951
0.4172558
0.4178824
0.418535
0.4192309
0.4200084
0.4208842
0.4166257
0.417253
0.4178631
0.4185122
0.4192107
0.4199793
0.4208555
0.416656
0.4172614
0.4178553
0.4184978
0.4191971
0.4199668
0.420831
0.4166774
0.417272
0.4178528
0.4184908
0.4191895
0.4199584
0.4208224
0.4166923
0.4172813
0.4178555
0.4184893
0.4191856
0.419953
0.4208163
0.4167028
0.4172887
0.4178589
0.4184895
0.4191838
0.4199497
0.420812
0.4167104
0.4172945
0.4178621
0.4184905
0.419183
0.4199475
0.4208087
0.4167163
0.4172989
0.4178648
0.4184916
0.4191828
0.4199459
0.4208061
0.4167208
0.4173024
0.4178671
0.4184927
0.4191827
0.4199447
0.4208039
0.4167245
0.4173052
0.417869
0.4184934
0.4191825
0.4199437
0.4208019
0.4167275
0.4173074
0.4178702
0.4184902
0.4191768
0.4199421
0.4208
0.4167301
0.4173092
0.4178711
0.4184861
0.4191727
0.4199406
0.4207979
0.4167325
0.4173109
0.4178721
0.4184859
0.4191719
0.4199393
0.4207958
0.4167347
0.4173124
0.4178729
0.4184859
0.4191711
0.4199379
0.4207935
0.4167368
0.4173138
0.4178736
0.4184857
0.4191701
0.419936
0.4207911
0.416739
0.417315
0.417874
0.418485
0.4191632
0.4199257
0.4207877
0.4167411
0.4173163
0.4178745
0.4184842
0.4191553
0.419918
0.4207841
0.4167435
0.4173177
0.4178751
0.4184839
0.4191531
0.4199152
0.420781
0.416746
0.4173192
0.4178757
0.4184834
0.4191516
0.4199122
0.4207769
0.4167488
0.4173209
0.4178764
0.4184829
0.4191491
0.4199009
0.4207605
0.416752
0.4173229
0.4178774
0.4184825
0.4191467
0.4198885
0.4207483
0.4167556
0.4173252
0.4178785
0.4184822
0.419145
0.4198837
0.4207426
0.41676
0.417328
0.41788
0.4184822
0.4191433
0.41988
0.4207366
0.4167648
0.4173313
0.417882
0.4184825
0.4191416
0.4198756
0.4207185
0.4167705
0.4173353
0.4178845
0.4184832
0.4191401
0.4198711
0.4206995
0.4167755
0.4173383
0.4178872
0.4184843
0.4191392
0.419868
0.4206916
0.4167815
0.4173427
0.4178909
0.4184861
0.4191387
0.4198652
0.4206851
0.4167897
0.4173461
0.4178906
0.4184877
0.4191389
0.4198629
0.4206792
0.4167993
0.4173502
0.4178883
0.4184824
0.4191383
0.419861
0.4206752
0.4168099
0.4173566
0.4178877
0.4184813
0.4191381
0.4198591
0.4206715
0.416821
0.4173636
0.4178901
0.4184748
0.4191264
0.419855
0.4206677
0.4168323
0.4173694
0.4178915
0.4184656
0.4191069
0.4198336
0.4206601
0.4168425
0.4173729
0.4178901
0.4184578
0.4190869
0.4198177
0.4206496
0.41685
0.4173719
0.4178831
0.4184463
0.4190694
0.4197834
0.4206101
0.4168525
0.417364
0.4178681
0.4184246
0.4190392
0.4197321
0.4205623
0.4168456
0.4173424
0.4178368
0.4183761
0.4189682
0.4196319
0.4204395
0.4168259
0.4172945
0.4177546
0.4182606
0.4187955
0.4194062
0.4201748
0.4167783
0.4171944
0.4175741
0.4179703
0.4184135
0.4189066
0.4194152
0.4166749
0.4169788
0.4172147
0.4174427
0.4176686
0.4178698
0.4181369
0.4164617
0.4165969
0.4166278
0.4166446
0.416561
0.4165554
0.4169028
0.4160772
0.4160081
0.4158552
0.4155839
0.4154361
0.4155072
0.4156599
0.4154737
0.415283
0.4149423
0.4145185
0.4144971
0.4145763
0.4146087
0.4146571
0.4145306
0.4140652
0.4137443
0.4136006
0.413636
0.413663
0.4137524
0.4137506
0.4132663
0.4131043
0.4128065
0.412805
0.4125707
0.4128594
0.4130022
0.412619
0.412432
0.412166
0.4120134
0.4117128
0.4120403
0.4123479
0.4120524
0.4118519
0.4115238
0.4112728
0.4111395
0.4112886
0.4116975
0.4115855
0.4114118
0.4110546
0.4107876
0.4105373
0.4106387
0.4111374
0.4110667
0.4108858
0.410568
0.4103775
0.4100759
0.4101496
0.4107114
0.4107012
0.4106635
0.4103782
0.4102235
0.4098964
0.4098285
0.4104174
0.4104412
0.4104614
0.4102437
0.4101106
0.4099642
0.4096197
0.4102132
0.4102626
0.4103232
0.4101591
0.4100296
0.4099665
0.4094932
0.4100972
0.410159
0.4102488
0.4101238
0.4100154
0.4100172
0.409532
0.4101429
0.4102122
0.4103132
0.4101998
0.4101038
0.4101127
0.4096987
0.4102813
0.4103316
0.4104058
0.4102623
0.4101651
0.4101341
0.409956
0.4105144
0.4105332
0.4105725
0.4103932
0.4103108
0.4102341
0.4103643
0.4108878
0.410875
0.4108806
0.4106711
0.4105983
0.4103446
0.4109444
0.4113905
0.4113418
0.4112473
0.4110103
0.4108879
0.4106712
0.4116655
0.4119944
0.4118447
0.411713
0.4114726
0.4113369
0.411238
0.4124663
0.4126585
0.4123496
0.4122396
0.41206
0.4119661
0.4120051
0.4133127
0.4133579
0.4129633
0.4128659
0.4127619
0.4127938
0.4126164
0.4141657
0.414138
0.4136539
0.4135637
0.4133969
0.4135394
0.413493
0.4149626
0.4149274
0.4144997
0.4142093
0.4141673
0.4144057
0.414656
0.4156273
0.415601
0.4153966
0.4150346
0.4150863
0.4153046
0.4154949
0.4161151
0.4161728
0.4162078
0.4161134
0.4160504
0.4161965
0.4164801
0.4164534
0.4166336
0.4167878
0.4169915
0.4171097
0.4172266
0.417745
0.4166606
0.4169703
0.4172406
0.4175616
0.4179492
0.4183626
0.4188427
0.4167691
0.4171828
0.4175634
0.4179762
0.4184641
0.4190635
0.4197408
0.4168217
0.4172867
0.4177419
0.4182439
0.4187862
0.4194164
0.4202143
0.4168439
0.4173365
0.4178257
0.4183635
0.4189568
0.4196253
0.4204329
0.4168518
0.4173588
0.4178595
0.4184166
0.419033
0.4197243
0.4205544
0.4168501
0.4173678
0.4178764
0.4184387
0.4190635
0.4197767
0.4206015
0.416843
0.4173702
0.4178853
0.418453
0.4190863
0.4198128
0.4206409
0.4168331
0.4173677
0.4178885
0.4184609
0.419106
0.4198339
0.4206517
0.4168221
0.4173622
0.4178872
0.4184702
0.4191202
0.4198475
0.4206585
0.416811
0.4173558
0.4178851
0.4184771
0.4191325
0.419852
0.4206632
0.4168004
0.4173493
0.4178858
0.4184786
0.4191331
0.4198547
0.4206678
0.4167904
0.4173453
0.4178884
0.4184844
0.4191344
0.4198573
0.420673
0.416782
0.4173418
0.417889
0.4184831
0.4191348
0.4198605
0.4206798
0.4167759
0.4173376
0.4178854
0.4184818
0.4191358
0.419864
0.4206871
0.4167707
0.4173346
0.417883
0.418481
0.4191373
0.4198678
0.4206957
0.416765
0.4173307
0.4178807
0.4184806
0.4191392
0.4198728
0.4207156
0.41676
0.4173274
0.4178789
0.4184807
0.4191413
0.4198776
0.420734
0.4167557
0.4173247
0.4178775
0.418481
0.4191433
0.4198817
0.4207404
0.4167521
0.4173225
0.4178766
0.4184815
0.4191454
0.4198868
0.4207465
0.4167489
0.4173207
0.4178759
0.418482
0.419148
0.4198997
0.4207592
0.4167461
0.417319
0.4178752
0.4184826
0.4191506
0.419911
0.4207756
0.4167436
0.4173176
0.4178747
0.4184832
0.4191522
0.4199143
0.4207798
0.4167413
0.4173163
0.4178742
0.4184838
0.4191547
0.4199172
0.4207832
0.4167393
0.4173151
0.4178739
0.4184848
0.4191629
0.4199253
0.420787
0.4167373
0.4173139
0.4178736
0.4184858
0.41917
0.4199357
0.4207907
0.4167353
0.4173128
0.4178732
0.418486
0.4191711
0.4199378
0.4207931
0.4167334
0.4173116
0.4178726
0.4184862
0.419172
0.4199391
0.4207953
0.4167313
0.4173102
0.4178718
0.4184866
0.4191729
0.4199405
0.4207976
0.4167291
0.4173087
0.4178712
0.4184909
0.4191772
0.419942
0.4207997
0.4167267
0.417307
0.4178704
0.4184943
0.4191829
0.4199437
0.4208016
0.4167237
0.4173048
0.4178689
0.4184937
0.4191832
0.4199447
0.4208035
0.4167202
0.4173019
0.417867
0.4184928
0.4191831
0.4199456
0.4208053
0.4167156
0.4172984
0.4178647
0.4184917
0.4191831
0.4199467
0.4208073
0.4167098
0.417294
0.417862
0.4184906
0.4191833
0.4199481
0.4208098
0.4167022
0.4172883
0.4178588
0.4184897
0.419184
0.4199502
0.420813
0.4166919
0.4172809
0.4178556
0.4184895
0.4191858
0.4199536
0.4208174
0.4166772
0.4172717
0.4178555
0.4184929
0.4191898
0.419959
0.4208238
0.416656
0.4172611
0.4178571
0.4185005
0.4191977
0.4199674
0.4208456
0.4166259
0.4172523
0.4178623
0.4185118
0.41921
0.4199915
0.4208713
0.4165954
0.4172548
0.4178812
0.4185325
0.4192409
0.4200214
0.4208996
0.4166278
0.4172929
0.4179205
0.4185797
0.4192822
0.4200559
0.4209302
0.4173301
0.417401
0.4180037
0.4186472
0.4193317
0.4200936
0.4209618
0.4339534
0.4187289
0.4181005
0.4187277
0.41939
0.4201331
0.4209928
0.422007
0.4232743
0.4249631
0.426567
0.4294159
0.4338791
0.4440084
0.4219841
0.4232456
0.4249268
0.426525
0.429364
0.4338072
0.4435952
0.4219569
0.4232152
0.4248875
0.4270813
0.4293145
0.4337377
0.4433667
0.421928
0.4231841
0.4248523
0.4264346
0.4292627
0.4336684
0.4431587
0.4218994
0.4231525
0.4248143
0.4263875
0.4292111
0.4335996
0.4430097
0.4218716
0.4231209
0.4247761
0.4263423
0.4291605
0.4335316
0.4428678
0.4218451
0.4230902
0.4247386
0.4262992
0.4291471
0.4334641
0.4427322
0.4218217
0.4230602
0.4247018
0.4262572
0.4291342
0.4333974
0.4426016
0.4218148
0.4230331
0.424667
0.4262149
0.4290941
0.4333378
0.4424751
0.4218097
0.4230258
0.4246349
0.4261731
0.4290547
0.4332785
0.4423527
0.4218056
0.4230205
0.4246267
0.4261326
0.4290154
0.4332193
0.4422345
0.421802
0.4230156
0.4246205
0.4261248
0.428976
0.43316
0.4421172
0.4217988
0.4230109
0.4246143
0.4261177
0.4289704
0.4330994
0.4420045
0.4217957
0.4230064
0.424608
0.4261102
0.428964
0.4330899
0.4419006
0.4217926
0.4230016
0.4246015
0.4261026
0.4289571
0.4330782
0.4419462
0.4217894
0.4229966
0.4245948
0.4260945
0.4289494
0.4330653
0.4419744
0.4217861
0.4229915
0.4245878
0.4260857
0.4289379
0.4330519
0.4419933
0.4217827
0.4229863
0.4245802
0.426072
0.4288191
0.4330372
0.4420302
0.421779
0.422981
0.4245724
0.4260622
0.428802
0.4330222
0.4420625
0.4217751
0.4229753
0.4245641
0.4260519
0.4287895
0.4330063
0.4421028
0.4217709
0.4229693
0.4245555
0.4260409
0.4287764
0.4329897
0.4421647
0.4217663
0.4229629
0.4245466
0.426029
0.4287625
0.432972
0.4422134
0.4217615
0.422956
0.4245367
0.4260186
0.4287446
0.4329535
0.4422667
0.4217549
0.4229484
0.4245255
0.426569
0.4286265
0.4329226
0.442322
0.4217482
0.4229405
0.4245143
0.426
0.4285693
0.4328979
0.4423806
0.4217421
0.4229322
0.4245026
0.4259739
0.4285469
0.4328752
0.4424451
0.4217341
0.4229223
0.4244889
0.4259566
0.4285244
0.4328487
0.442524
0.4217078
0.422911
0.4244755
0.4259393
0.4284936
0.4326088
0.4426075
0.4216908
0.4225807
0.4240469
0.4259258
0.4284653
0.4325197
0.442682
0.4216808
0.4225648
0.4240227
0.425906
0.4284392
0.4324863
0.4427658
0.4216456
0.4225245
0.4240084
0.4258865
0.4284119
0.4323078
0.4428392
0.4216257
0.4224904
0.4239943
0.4258659
0.4283824
0.4321214
0.4429147
0.4216151
0.4224357
0.4239746
0.425845
0.428352
0.43207
0.4429774
0.4216091
0.4224175
0.4239158
0.4258248
0.4283217
0.4320068
0.4420619
0.4216037
0.4224086
0.4238576
0.4258035
0.4282927
0.4319524
0.4419268
0.4215976
0.4224016
0.4237774
0.4257734
0.4282716
0.4319107
0.437777
0.4215899
0.4223943
0.4237596
0.4256807
0.4282719
0.4318821
0.4402892
0.4215741
0.4223856
0.4237426
0.4256048
0.4283288
0.4320024
0.4385372
0.4215465
0.4223799
0.423756
0.42564
0.4284883
0.4325602
0.4380428
0.4214907
0.4224193
0.4238819
0.4258318
0.4285131
0.432778
0.4395266
0.4212094
0.4222784
0.4235914
0.4249178
0.4270551
0.4310932
0.4389458
0.4201352
0.4210637
0.4214771
0.4227918
0.4252464
0.4283538
0.4364755
0.4186339
0.4196221
0.4198956
0.4211084
0.4234678
0.4275389
0.4359438
0.4174519
0.4185653
0.4185696
0.4196218
0.4218102
0.4267061
0.4346763
0.4162424
0.417281
0.4171447
0.418426
0.4208005
0.4250265
0.4320956
0.4150165
0.4162011
0.4158615
0.4171252
0.4195365
0.4227549
0.4302275
0.4136938
0.4148004
0.4145792
0.4160551
0.4176831
0.4219035
0.4270871
0.4128394
0.4136876
0.4139046
0.4149298
0.4172245
0.4200687
0.426216
0.4117428
0.4127856
0.4129505
0.4142046
0.4165778
0.4201937
0.4255435
0.4109764
0.4117297
0.4121665
0.4137015
0.4158473
0.4193691
0.4242432
0.4104265
0.411075
0.4115588
0.4131594
0.4156746
0.4191022
0.4237971
0.4100322
0.4104738
0.4112676
0.4126114
0.4146701
0.4180644
0.4229476
0.4099204
0.410104
0.4111649
0.4124899
0.4143272
0.4173599
0.4221269
0.4098124
0.4100766
0.4111135
0.4126654
0.4145068
0.4175557
0.4238035
0.4097984
0.4100762
0.4112878
0.4129561
0.4148135
0.4158192
0.4184506
0.4098543
0.4102045
0.411548
0.4132321
0.4152028
0.4174585
0.4099739
0.4103399
0.4117091
0.4134373
0.4155235
0.4178156
0.4100329
0.4102609
0.4117525
0.4136268
0.4156122
0.4182981
0.4101761
0.4103436
0.4119226
0.4134089
0.4153856
0.4176708
0.421883
0.4104464
0.410485
0.412
0.4135949
0.4153043
0.4186317
0.4239523
0.410739
0.4106322
0.4122726
0.4140137
0.416066
0.4190542
0.4242825
0.4112608
0.4109526
0.4126667
0.414143
0.4162693
0.4196395
0.4242922
0.4119195
0.4115229
0.4131569
0.4146965
0.4167372
0.4203748
0.424843
0.4127345
0.4122631
0.4137975
0.4151272
0.4179524
0.4209318
0.4253945
0.4139243
0.4131838
0.4146226
0.4164557
0.4182534
0.4223116
0.4302488
0.4148556
0.4142629
0.4158955
0.4169108
0.4196449
0.4231322
0.430449
0.4160135
0.415565
0.4165908
0.4185151
0.4204659
0.4254314
0.4334884
0.4172198
0.4168181
0.4182197
0.4193678
0.4224897
0.4266648
0.4358674
0.4182819
0.4182184
0.4196263
0.4212105
0.4236019
0.4279101
0.4349543
0.4196136
0.4196063
0.4206564
0.4225493
0.4251806
0.4299783
0.4377833
0.4207272
0.421256
0.421974
0.4234851
0.4262784
0.4302625
0.4373736
0.4213179
0.4223279
0.4238659
0.4252455
0.4276226
0.431059
0.4390474
0.4214765
0.4224323
0.424037
0.4262795
0.4288185
0.4327173
0.4409084
0.4215341
0.4223881
0.4238218
0.4258219
0.4288242
0.4330719
0.4384506
0.4215638
0.4223857
0.4237417
0.4256043
0.4284993
0.4322988
0.4373308
0.4215792
0.4223975
0.4237452
0.4256574
0.4282877
0.4318411
0.4390193
0.4215868
0.4224062
0.4237588
0.4257079
0.4282659
0.4318868
0.4400924
0.4215932
0.4224137
0.4237986
0.4257843
0.428277
0.4319282
0.4417815
0.4215997
0.422422
0.4238805
0.4258087
0.428303
0.4319827
0.4420982
0.4216068
0.4224334
0.4239544
0.4258293
0.4283335
0.4320388
0.4423666
0.4216184
0.4224718
0.4239778
0.4258511
0.4283648
0.4320968
0.4430166
0.4216398
0.4225124
0.4239963
0.4258729
0.4283954
0.432172
0.442926
0.4216758
0.422563
0.4240117
0.4258937
0.4284244
0.4324574
0.4428521
0.4216868
0.4225777
0.4240279
0.425913
0.4284512
0.4325035
0.4427577
0.4217049
0.4229083
0.4244732
0.4259381
0.4284777
0.4325385
0.4426728
0.4217314
0.4229197
0.4244864
0.4259542
0.4285091
0.4327552
0.4425874
0.4217398
0.4229299
0.4244999
0.4259702
0.4285349
0.4328624
0.4425005
0.4217463
0.4229385
0.4245122
0.4259852
0.4285573
0.432886
0.4424292
0.4217533
0.4229468
0.4245239
0.4259996
0.4285823
0.4329079
0.4423585
0.4217601
0.4229544
0.4245346
0.4260135
0.4287045
0.4329386
0.4422994
0.4217651
0.4229615
0.4245448
0.4260265
0.4287546
0.4329619
0.4422419
0.4217698
0.4229682
0.4245543
0.4260383
0.4287688
0.4329799
0.4421844
0.4217742
0.4229744
0.4245631
0.4260496
0.4287825
0.4329969
0.4421347
0.4217784
0.4229801
0.4245716
0.4260602
0.4287952
0.4330132
0.4420868
0.4217821
0.4229855
0.4245794
0.4260703
0.4288072
0.4330287
0.4420469
0.4217857
0.4229909
0.424587
0.4260824
0.4288687
0.4330437
0.4420138
0.421789
0.4229961
0.4245941
0.4260934
0.4289449
0.4330578
0.4419822
0.4217921
0.4230009
0.4246008
0.4261021
0.4289527
0.4330712
0.4419523
0.4217951
0.4230056
0.4246071
0.4261105
0.42896
0.4330838
0.4419325
0.421798
0.42301
0.4246133
0.4261185
0.4289667
0.4330953
0.4419674
0.4218009
0.4230143
0.4246193
0.4261263
0.4289731
0.4331303
0.4420802
0.4218039
0.4230189
0.4246252
0.426134
0.4289953
0.4331896
0.4421969
0.4218073
0.4230236
0.4246331
0.4261584
0.4290343
0.4332491
0.4423179
0.4218114
0.4230301
0.4246646
0.4262003
0.4290736
0.4333084
0.4424397
0.4218172
0.4230562
0.4246986
0.4262429
0.4291129
0.4333681
0.4425648
0.4218389
0.4230851
0.4247347
0.426286
0.4291507
0.4334311
0.4426935
0.4218637
0.4231149
0.4247716
0.4263271
0.429136
0.4334984
0.4428261
0.42189
0.4231457
0.4248092
0.4263711
0.429185
0.4335662
0.4429633
0.4219179
0.4231774
0.4248474
0.4264151
0.4292357
0.4336344
0.4431065
0.4219473
0.4232096
0.4248858
0.4264592
0.4292868
0.4337032
0.4432765
0.4219767
0.4232414
0.4249241
0.4265027
0.4293384
0.4337727
0.443498
0.4220055
0.4232736
0.4249625
0.4265455
0.4293901
0.4338431
0.4438006
0.9967315
1
1
1
1
1
1
1
1
1
1
1
1
1
1
1
1
1
0.991883
1
1
1
1
1
1
1
1
1
1
1
1
1
1
1
1
1
0.9912233
1
1
1
1
1
1
1
1
1
1
1
1
1
1
1
1
1
0.9906025
1
1
1
1
1
1
1
1
1
1
1
1
1
1
1
1
1
0.9898073
1
1
1
1
1
1
1
1
1
1
1
1
1
1
1
1
1
0.9888482
1
1
1
1
1
1
1
1
1
1
1
1
1
1
1
1
1
0.987742
1
1
1
1
1
1
1
1
1
1
1
1
1
1
1
1
1
0.9865039
1
1
1
1
1
1
1
1
1
1
1
1
1
1
1
1
1
0.9851456
1
1
1
1
1
1
1
1
1
1
1
1
1
1
1
1
1
0.9836815
1
1
1
1
1
1
1
1
1
1
1
1
1
1
1
1
1
0.9821112
1
1
1
1
1
1
1
1
1
1
1
1
1
1
1
1
1
0.9813155
1
1
1
1
1
1
1
1
1
1
1
1
1
1
1
1
1
0.980608
1
1
1
1
1
1
1
1
1
1
1
1
1
1
1
1
1
0.97919
1
1
1
1
1
1
1
1
1
1
1
1
1
1
1
1
1
0.9749617
1
1
1
1
1
1
1
1
1
1
1
1
1
1
1
1
1
0.9739614
1
1
1
1
1
1
1
1
1
1
1
1
1
1
1
1
1
0.9725242
1
1
1
1
1
1
1
1
1
1
1
1
1
1
1
1
1
0.9708591
1
1
1
1
1
1
1
1
1
1
1
1
1
1
1
1
1
0.9690662
1
1
1
1
1
1
1
1
1
1
1
1
1
1
1
1
1
0.9673114
1
1
1
1
1
1
1
1
1
1
1
1
1
1
1
1
1
0.9656046
1
1
1
1
1
1
1
1
1
1
1
1
1
1
1
1
1
0.9638609
1
1
1
1
1
1
1
1
1
1
1
1
1
1
1
1
1
0.9620264
1
1
1
1
1
1
1
1
1
1
1
1
1
1
1
1
1
0.9601105
1
1
1
1
1
1
1
1
1
1
1
1
1
1
1
1
1
0.9580429
1
1
1
1
1
1
1
1
1
1
1
1
1
1
1
1
1
0.9559298
1
1
1
1
1
1
1
1
1
1
1
1
1
1
1
1
1
0.9536694
1
1
1
1
1
1
1
1
1
1
1
1
1
1
1
1
1
0.9512677
1
1
1
1
1
1
1
1
1
1
1
1
1
1
1
1
1
0.9487705
1
1
1
1
1
1
1
1
1
1
1
1
1
1
1
1
1
0.9460654
1
1
1
1
1
1
1
1
1
1
1
1
1
1
1
1
1
0.9432396
1
1
1
1
1
1
1
1
1
1
1
1
1
1
1
1
1
0.9402694
1
1
1
1
1
1
1
1
1
1
1
1
1
1
1
1
1
0.9370712
0.9999999
1
1
1
1
1
1
1
1
1
1
1
1
1
1
1
1
0.933384
1
1
1
1
1
1
1
1
1
1
1
1
1
1
1
1
1
0.921169
0.9999999
1
1
1
1
1
1
1
1
1
1
1
1
1
1
1
1
0.9151018
0.9999999
1
1
1
1
1
1
1
1
1
1
1
1
1
1
1
1
0.9049395
0.9999999
1
1
1
1
1
1
1
1
1
1
1
1
1
1
1
1
0.810246
0.9999999
1
1
1
1
1
1
1
1
1
1
1
1
1
1
1
1
0.6752268
1
1
1
1
1
1
1
1
1
1
1
1
1
1
1
1
1
0.5640688
0.9999889
1
1
1
1
1
1
1
1
1
1
1
1
1
1
1
1
0.4959615
0.9995881
1
1
1
1
1
1
1
1
1
1
1
1
1
1
1
1
0.4764452
0.9999973
1
1
1
1
1
1
1
1
1
1
1
1
1
1
1
1
0.4688297
1
1
1
1
1
1
1
1
1
1
1
1
1
1
1
1
1
0.4563272
0.9998101
1
1
1
1
1
1
1
1
1
1
1
1
1
1
1
1
0.445893
0.9989144
1
1
1
1
1
1
1
1
1
1
1
1
1
1
1
1
0.4414885
0.9978698
1
1
1
1
1
1
1
1
1
1
1
1
1
1
1
1
0.4497396
0.9948991
0.9999983
1
1
1
1
1
1
1
1
1
1
1
1
1
1
1
0.4437996
0.9536532
0.9999333
0.9999999
1
1
1
1
1
1
1
1
1
1
1
1
1
1
0.4363633
0.8579739
0.9992711
0.9999949
1
1
1
1
1
1
1
1
1
1
1
1
1
1
0.4396838
0.74487
0.9977396
0.9999308
1
1
1
1
1
1
1
1
1
1
0.4411498
0.4577184
1
1
1
1
1
1
1
1
0.4374151
1
1
1
1
1
1
1
1
1
1
1
1
1
1
1
1
1
1
1
1
1
1
1
1
1
1
1
1
1
1
1
1
1
1
1
1
1
1
1
1
1
1
1
1
1
1
1
1
1
0.4365015
1
1
1
1
1
1
0.4370931
0.4585083
1
1
1
1
1
1
1
0.4355911
0.6109483
0.9986554
1
1
1
1
1
1
1
1
1
0.4435894
0.8251097
0.9986075
0.9999841
0.9999998
1
1
1
1
1
1
1
1
1
1
1
1
1
0.4510452
0.904397
0.9996667
0.9999988
1
1
1
1
1
1
1
1
1
1
1
1
1
1
0.4513968
0.9664089
0.9999654
1
1
1
1
1
1
1
1
1
1
1
1
1
1
1
0.4539827
0.9920626
0.9999997
1
1
1
1
1
1
1
1
1
1
1
1
1
1
1
0.4551806
0.9960292
1
1
1
1
1
1
1
1
1
1
1
1
1
1
1
1
0.4553518
0.9978379
0.9999999
1
1
1
1
1
1
1
1
1
1
1
1
1
1
1
0.462578
0.9988978
0.9999999
1
1
1
1
1
1
1
1
1
1
1
1
1
1
1
0.474081
0.9995246
1
1
1
1
1
1
1
1
1
1
1
1
1
1
1
1
0.4839042
0.9993932
1
1
1
1
1
1
1
1
1
1
1
1
1
1
1
1
0.5098997
0.99943
1
1
1
1
1
1
1
1
1
1
1
1
1
1
1
1
0.6088388
0.9999981
1
1
1
1
1
1
1
1
1
1
1
1
1
1
1
1
0.6687299
1
1
1
1
1
1
1
1
1
1
1
1
1
1
1
1
1
0.8835836
0.9999999
1
1
1
1
1
1
1
1
1
1
1
1
1
1
1
1
0.8996148
0.9999999
1
1
1
1
1
1
1
1
1
1
1
1
1
1
1
1
0.9145048
0.9999999
1
1
1
1
1
1
1
1
1
1
1
1
1
1
1
1
0.9258079
0.9999998
1
1
1
1
1
1
1
1
1
1
1
1
1
1
1
1
0.9361787
1
1
1
1
1
1
1
1
1
1
1
1
1
1
1
1
1
0.9392105
1
1
1
1
1
1
1
1
1
1
1
1
1
1
1
1
1
0.9420452
1
1
1
1
1
1
1
1
1
1
1
1
1
1
1
1
1
0.944799
1
1
1
1
1
1
1
1
1
1
1
1
1
1
1
1
1
0.9474592
1
1
1
1
1
1
1
1
1
1
1
1
1
1
1
1
1
0.9499657
1
1
1
1
1
1
1
1
1
1
1
1
1
1
1
1
1
0.952346
1
1
1
1
1
1
1
1
1
1
1
1
1
1
1
1
1
0.954642
1
1
1
1
1
1
1
1
1
1
1
1
1
1
1
1
1
0.9568925
1
1
1
1
1
1
1
1
1
1
1
1
1
1
1
1
1
0.9588454
1
1
1
1
1
1
1
1
1
1
1
1
1
1
1
1
1
0.96094
1
1
1
1
1
1
1
1
1
1
1
1
1
1
1
1
1
0.9627937
1
1
1
1
1
1
1
1
1
1
1
1
1
1
1
1
1
0.9645901
1
1
1
1
1
1
1
1
1
1
1
1
1
1
1
1
1
0.9662631
1
1
1
1
1
1
1
1
1
1
1
1
1
1
1
1
1
0.9679791
1
1
1
1
1
1
1
1
1
1
1
1
1
1
1
1
1
0.9698532
1
1
1
1
1
1
1
1
1
1
1
1
1
1
1
1
1
0.971616
1
1
1
1
1
1
1
1
1
1
1
1
1
1
1
1
1
0.9732788
1
1
1
1
1
1
1
1
1
1
1
1
1
1
1
1
1
0.9742802
1
1
1
1
1
1
1
1
1
1
1
1
1
1
1
1
1
0.9782369
1
1
1
1
1
1
1
1
1
1
1
1
1
1
1
1
1
0.9804051
1
1
1
1
1
1
1
1
1
1
1
1
1
1
1
1
1
0.9811859
1
1
1
1
1
1
1
1
1
1
1
1
1
1
1
1
1
0.9819554
1
1
1
1
1
1
1
1
1
1
1
1
1
1
1
1
1
0.9826279
1
1
1
1
1
1
1
1
1
1
1
1
1
1
1
1
1
0.9839041
1
1
1
1
1
1
1
1
1
1
1
1
1
1
1
1
1
0.9853214
1
1
1
1
1
1
1
1
1
1
1
1
1
1
1
1
1
0.9866391
1
1
1
1
1
1
1
1
1
1
1
1
1
1
1
1
1
0.9878453
1
1
1
1
1
1
1
1
1
1
1
1
1
1
1
1
1
0.9889288
1
1
1
1
1
1
1
1
1
1
1
1
1
1
1
1
1
0.9898765
1
1
1
1
1
1
1
1
1
1
1
1
1
1
1
1
1
0.9906774
1
1
1
1
1
1
1
1
1
1
1
1
1
1
1
1
1
0.9913338
1
1
1
1
1
1
1
1
1
1
1
1
1
1
1
1
1
0.9936031
1
1
1
1
1
1
1
1
1
1
1
1
1
1
1
1
1
1
1
1
1
1
1
1
1
1
1
1
1
1
1
1
1
1
1
1
1
1
1
1
1
1
1
1
1
1
1
1
1
1
1
1
1
1
1
1
1
1
1
1
1
1
1
1
1
1
1
1
1
1
1
1
1
1
1
1
1
1
1
1
1
1
1
1
1
1
1
1
1
1
1
1
1
1
1
1
1
1
1
1
1
1
1
1
1
1
1
1
1
1
1
1
1
1
1
1
1
1
1
1
1
1
1
1
1
1
1
1
1
1
1
1
1
1
1
1
1
1
1
1
1
1
1
1
1
1
1
1
1
1
1
1
1
1
1
1
1
1
1
1
1
1
1
1
1
1
1
1
1
1
1
1
1
1
1
1
1
1
1
1
1
1
1
1
1
1
1
1
1
1
1
1
1
1
1
1
1
1
1
1
1
1
1
1
1
1
1
1
1
1
1
1
1
1
1
1
1
1
1
1
1
1
1
1
1
1
1
1
1
1
1
1
1
1
1
1
1
1
1
1
1
1
1
1
1
1
1
1
1
1
1
1
1
1
1
1
1
1
1
1
1
1
1
1
1
1
1
1
1
1
1
1
1
1
1
1
1
1
1
1
1
1
1
1
1
1
1
1
1
1
1
1
1
1
1
1
1
1
1
1
1
1
1
1
1
1
1
1
1
1
1
1
1
1
1
1
1
1
1
1
1
1
1
1
1
1
1
1
1
1
1
1
1
1
1
1
1
1
1
1
1
1
1
1
1
1
1
1
1
1
1
1
1
1
1
1
1
1
1
1
1
1
1
1
1
1
1
1
1
1
1
1
1
1
1
1
1
1
1
1
1
1
1
1
1
1
1
1
1
1
1
1
1
1
1
1
1
1
1
1
1
1
1
1
1
1
1
1
1
1
1
1
1
1
1
1
1
1
1
1
1
1
1
1
1
1
1
1
1
1
1
1
1
1
1
1
1
1
1
1
1
1
1
1
1
1
1
1
1
1
1
1
1
1
1
1
1
1
1
1
1
1
1
1
1
1
1
1
1
1
1
1
1
1
1
1
1
1
1
1
1
1
1
1
1
1
1
1
1
1
1
1
1
1
1
1
1
1
1
1
1
1
1
1
1
1
1
1
1
1
1
1
1
1
1
1
1
1
1
1
1
1
1
1
1
1
1
1
1
1
1
1
1
1
1
1
1
1
1
1
1
1
1
1
1
1
1
1
1
1
1
1
1
1
1
1
1
1
1
1
1
1
1
1
1
1
1
1
1
1
1
1
1
1
1
1
1
1
1
1
1
1
1
1
1
1
1
1
1
1
1
1
1
1
1
1
1
1
1
1
1
1
1
1
1
1
1
1
1
1
1
1
1
1
1
1
1
1
1
1
1
1
1
1
1
1
1
1
1
1
1
1
1
1
1
1
1
1
1
1
1
1
1
1
1
1
1
1
1
1
1
1
1
1
1
1
1
1
1
1
1
1
1
1
1
1
1
1
1
1
1
1
1
1
1
1
1
1
1
1
1
1
1
1
1
1
1
1
1
1
1
1
1
1
1
1
1
1
1
1
1
1
1
1
1
1
1
1
1
1
1
1
1
1
1
1
1
1
1
1
1
1
1
1
1
1
1
1
1
1
1
1
1
1
1
1
1
1
1
1
1
1
1
1
1
1
1
1
1
1
1
1
1
1
1
1
1
1
1
1
1
1
1
1
1
1
1
1
1
1
1
1
1
1
1
1
1
1
1
1
1
1
1
1
1
1
1
1
1
1
1
1
1
1
1
1
1
1
1
1
1
1
1
1
1
1
1
1
1
1
1
1
1
1
1
1
1
1
1
1
1
1
1
1
1
1
1
1
1
1
1
1
1
1
1
1
1
1
1
1
1
1
1
1
1
1
1
1
1
1
1
1
1
1
1
1
1
1
1
1
1
1
1
1
1
1
1
1
1
1
1
1
1
1
1
1
1
1
1
1
1
1
1
1
1
1
1
1
1
1
1
1
1
1
1
1
1
1
1
1
1
1
1
1
1
1
1
1
1
1
1
1
1
1
1
1
1
1
1
1
1
1
1
1
1
1
1
1
1
1
1
1
1
1
1
1
1
1
1
1
1
1
1
1
1
1
1
1
1
1
1
1
1
1
1
1
1
1
1
1
1
1
1
1
1
1
1
1
1
1
1
1
1
1
1
1
1
1
1
1
1
1
1
1
1
1
1
1
1
1
1
1
1
1
1
1
1
1
1
1
1
1
1
1
1
1
1
1
1
1
1
1
1
1
1
1
1
1
1
1
1
1
1
1
1
1
1
1
1
1
1
1
1
1
1
1
1
1
1
1
1
1
1
1
1
1
1
1
1
1
1
1
1
1
1
1
1
1
1
1
1
1
1
1
1
1
1
1
1
1
1
1
1
1
1
1
1
1
1
1
1
1
1
1
1
1
1
1
1
1
1
1
1
1
1
1
1
1
1
1
1
1
1
1
1
1
1
1
1
1
1
1
1
1
1
1
1
1
1
1
1
1
1
1
1
1
1
1
1
1
1
1
1
1
1
1
1
1
1
1
1
1
1
1
1
1
1
1
1
1
1
1
1
1
1
1
1
1
1
1
1
1
1
1
1
1
1
1
1
1
1
1
1
1
1
1
1
1
1
1
1
1
1
1
1
1
1
1
1
1
1
1
1
1
1
1
1
1
1
1
1
1
1
1
1
1
1
1
1
1
1
1
1
1
1
1
1
1
1
1
1
1
1
1
1
1
1
1
1
1
1
1
1
1
1
1
1
1
1
1
1
1
1
1
1
1
1
1
1
0.4244596
0.4270919
0.4234197
0.4205674
0.422075
0.4182433
0.4174835
0.418017
0.4178592
0.4175676
0.418137
0.4187677
0.4180638
0.4193603
0.422418
0.4170395
0.4199954
0.4247658
0.4271569
0.4259394
0.4230875
0.9999997
0.9999984
0.9999839
1
1
0.9999996
1
1
1
1
1
1
1
1
1
1
1
1
0.9996135
0.9994247
0.9992436
0.9999934
1
1
1
1
0.7986551
0.4520289
1
1
0.4494674
0.4335983
1
1
1
1
1
1
1
1
1
1
1
1
1
1
1
1
1
1
1
1
1
1
1
1
1
1
1
1
1
1
1
1
0.4521141
0.4372234
1
1
1
0.7949671
0.4562117
1
1
1
0.9995622
0.9995867
0.9972481
0.9999956
0.999941
1
1
1
1
1
0.9999987
0.9999997
0.9999934
1
1
1
1
1
1
1
1
1
1
1
1
1
1
1
0.4278583
0.4278335
0.426546
0.4313524
0.4313252
0.4293899
0.437473
0.4374189
0.4338421
0.5007819
0.4918606
0.4437824
0.4278066
0.4277855
0.4265024
0.4312987
0.4312731
0.4293396
0.4373633
0.4373098
0.4337715
0.485121
0.4845288
0.4434792
0.4312477
0.4312221
0.4292935
0.4372553
0.4372024
0.4337031
0.4839938
0.4835162
0.4432559
0.4277023
0.4276788
0.4264202
0.4311955
0.4311693
0.4292358
0.437149
0.4370956
0.4336335
0.4831004
0.4827498
0.4430832
0.4276545
0.4276302
0.4263743
0.431143
0.4311181
0.4291854
0.4370426
0.4369899
0.4335651
0.4824637
0.4822399
0.4429375
0.4310922
0.4310672
0.4291368
0.4369392
0.4368955
0.4334978
0.4820744
0.4819653
0.4427992
0.4275792
0.4275835
0.4262882
0.4310449
0.431022
0.4291512
0.4368517
0.4368079
0.4334305
0.481908
0.4819005
0.442666
0.4309969
0.4309725
0.4291132
0.4367641
0.4367206
0.4333672
0.4819387
0.482021
0.4425374
0.427523
0.4275026
0.4262023
0.4309472
0.4309232
0.4290737
0.4366766
0.4366335
0.4333074
0.4821442
0.482305
0.4424133
0.4274821
0.427462
0.4261601
0.4308982
0.4308762
0.4290348
0.4365898
0.4365467
0.4332483
0.4825
0.4827283
0.4422929
0.4274417
0.4274224
0.4261354
0.4308536
0.4308316
0.4289956
0.436503
0.4364599
0.4331892
0.4829713
0.4828914
0.4421751
0.42742
0.4274165
0.4261273
0.4308089
0.430786
0.4289729
0.4364162
0.4363732
0.43313
0.4826952
0.4825285
0.4420596
0.4274126
0.4274094
0.4261192
0.4307826
0.4307792
0.4289666
0.4363297
0.4362841
0.4330956
0.4823765
0.4822422
0.4419507
0.4274054
0.4274019
0.426111
0.4307748
0.4307709
0.4289602
0.4362788
0.4362703
0.4330839
0.4827528
0.481201
0.4419184
0.4273979
0.427394
0.4261033
0.4307661
0.4307618
0.4289533
0.4362607
0.4362521
0.4330715
0.4799151
0.4794949
0.4419416
0.4273904
0.4273857
0.4260949
0.430757
0.4307521
0.4289461
0.4362416
0.4362328
0.4330587
0.4794307
0.4791488
0.441975
0.4273797
0.4273303
0.4260831
0.4307474
0.4307368
0.4288685
0.4362224
0.4362128
0.433045
0.4788362
0.4785693
0.4420096
0.4272798
0.4272682
0.4260706
0.4307272
0.4307217
0.4288075
0.4362024
0.4361914
0.4330301
0.4782646
0.4779843
0.4420439
0.4272615
0.4272559
0.4260606
0.4307158
0.43071
0.4287957
0.4361807
0.4361694
0.4330144
0.4776793
0.4773912
0.4420818
0.4272493
0.427243
0.4260505
0.4307038
0.4306977
0.4287832
0.4361575
0.4361461
0.432998
0.477148
0.4769036
0.4421312
0.4272367
0.4272294
0.4260396
0.4306913
0.4306846
0.4287699
0.4361335
0.4361219
0.4329802
0.4766686
0.4764447
0.4421804
0.4272226
0.4272143
0.4260278
0.4306775
0.4306705
0.4287551
0.4361083
0.4360964
0.4329624
0.476205
0.4759887
0.4422352
0.4272049
0.4272088
0.4260048
0.4306617
0.4306022
0.4287046
0.4360831
0.4360697
0.4329398
0.4757383
0.4755185
0.4422901
0.4305085
0.4304608
0.4285864
0.4360557
0.4360411
0.4329094
0.4752739
0.4750318
0.4423498
0.427157
0.4271586
0.4259903
0.4304478
0.4304369
0.4285578
0.4360265
0.4360114
0.4328868
0.4747883
0.4745604
0.4424147
0.4271512
0.4271422
0.425972
0.4304256
0.4304141
0.4285358
0.4359956
0.4359798
0.432863
0.4743206
0.4740815
0.4424848
0.4271325
0.4271228
0.4259562
0.4303977
0.4303373
0.42851
0.4359634
0.4359389
0.4327562
0.4738403
0.4735973
0.4425668
0.427113
0.4271019
0.4259405
0.430229
0.4301684
0.4284798
0.43591
0.4358866
0.4325393
0.4733514
0.4731109
0.4426469
0.4232443
0.4232476
0.4225811
0.4249063
0.4249078
0.4240304
0.4270913
0.4270796
0.4259159
0.4301468
0.4301302
0.4284522
0.4358693
0.4358521
0.4325035
0.4728734
0.472626
0.4427239
0.4232434
0.4232382
0.4225679
0.4249016
0.4248938
0.4240159
0.4270681
0.4270565
0.4258959
0.4301137
0.430097
0.4284254
0.4358353
0.4358092
0.4324571
0.4723783
0.4721355
0.442811
0.4232297
0.4232217
0.4225183
0.4248854
0.4248771
0.4240011
0.4270439
0.4270321
0.425876
0.4300743
0.4300516
0.4283967
0.4355659
0.4354021
0.4321731
0.4718949
0.4716458
0.4428753
0.4232117
0.4231737
0.4224778
0.4248681
0.4248599
0.4239838
0.4270187
0.4270065
0.4258556
0.4300318
0.4300129
0.4283673
0.4353578
0.4353349
0.4320959
0.4714065
0.4711631
0.4429557
0.4231532
0.4231369
0.422441
0.4248515
0.4248436
0.4239623
0.4269942
0.4269818
0.4258353
0.4299936
0.4299743
0.4283382
0.4352923
0.4350222
0.4320374
0.4709041
0.4705925
0.4422882
0.423101
0.4230701
0.4224307
0.4248318
0.4248207
0.4238884
0.4269709
0.4269584
0.4258161
0.429956
0.4299366
0.4283079
0.4348392
0.4347672
0.4319808
0.4702319
0.4693039
0.4420378
0.4230533
0.4230456
0.4224228
0.4247858
0.4247355
0.423807
0.4269479
0.4269385
0.4257919
0.4299178
0.4298998
0.4282809
0.4347193
0.4346654
0.4319257
0.4684532
0.4682624
0.4418327
0.42304
0.4230348
0.4224153
0.4247047
0.4246524
0.4237671
0.4269324
0.426922
0.4257116
0.4298877
0.4298827
0.4282676
0.4346279
0.4345814
0.431898
0.4666013
0.4646739
0.4401377
0.4230289
0.4230226
0.4224056
0.4246106
0.4245841
0.4237514
0.4269191
0.4269178
0.4256555
0.4298918
0.4299098
0.4282817
0.4344531
0.4342724
0.4318989
0.4643781
0.4646084
0.4397987
0.4230153
0.4230095
0.4223932
0.4245763
0.4245827
0.4237413
0.4268809
0.426912
0.4255868
0.430018
0.4302231
0.4284573
0.4341865
0.4343784
0.4322453
0.4529286
0.4509831
0.4376125
0.4230146
0.4230445
0.4223981
0.4246224
0.4247091
0.4238233
0.4269387
0.4269749
0.4257443
0.4303762
0.4305313
0.4285636
0.4349472
0.4357755
0.4328706
0.4505299
0.4493005
0.4387395
0.423107
0.4231009
0.4224452
0.4247807
0.4247719
0.4238799
0.4270094
0.4267138
0.4257157
0.4302684
0.429507
0.4279152
0.4362682
0.4359711
0.4322267
0.4478747
0.4464821
0.4401476
0.4229328
0.4223023
0.4218418
0.4242317
0.4231077
0.4226728
0.4258189
0.4248119
0.4238023
0.4287034
0.427976
0.4262083
0.4345302
0.4328664
0.4295612
0.4449039
0.4433796
0.4374843
0.4212215
0.4202241
0.4199882
0.4220238
0.4212036
0.4205903
0.4239898
0.4229907
0.4218835
0.4268382