/*--------------------------------*- C++ -*----------------------------------*\
| =========                 |                                                 |
| \\      /  F ield         | OpenFOAM: The Open Source CFD Toolbox           |
|  \\    /   O peration     | Version:  2206                                  |
|   \\  /    A nd           | Website:  www.openfoam.com                      |
|    \\/     M anipulation  |                                                 |
\*---------------------------------------------------------------------------*/
FoamFile
{
    version     2.0;
    format      ascii;
    arch        "LSB;label=32;scalar=64";
    class       volScalarField;
    location    "1.6";
    object      ddt0(omega.b);
}
// * * * * * * * * * * * * * * * * * * * * * * * * * * * * * * * * * * * * * //

dimensions      [0 0 -2 0 0 0 0];

internalField   nonuniform List<scalar> 
13078
(
1.877841e-08
-0.176492
-0.2371492
-0.2388598
-0.2394981
-0.2401667
-0.2409296
-1.117107e-08
-0.1894443
-0.2375383
-0.2388854
-0.239487
-0.2401554
-0.2409152
1.091173e-08
-0.1946064
-0.237618
-0.2388781
-0.2394798
-0.2401453
-0.2409019
1.120545e-08
-0.1964131
-0.2376538
-0.238876
-0.2394735
-0.2401357
-0.240889
1.49064e-08
-0.1970475
-0.2376759
-0.2388809
-0.2394676
-0.2401261
-0.2408763
1.470177e-08
-0.1974279
-0.2376888
-0.2388846
-0.2394691
-0.2401168
-0.2408634
8.963177e-09
-0.1976661
-0.2376864
-0.2388835
-0.23947
-0.2401163
-0.240851
5.314306e-10
-0.1978222
-0.237678
-0.2388814
-0.2394699
-0.240116
-0.2408491
-9.095887e-09
-0.1979518
-0.2376802
-0.2388804
-0.2394691
-0.240115
-0.2408476
-1.877353e-08
-0.1980506
-0.2376809
-0.2388789
-0.2394678
-0.2401135
-0.2408458
-2.790654e-08
-0.1981347
-0.237681
-0.2388772
-0.2394661
-0.2401116
-0.2408435
-3.662906e-08
-0.198211
-0.2376807
-0.2388754
-0.2394642
-0.2401095
-0.240841
-4.520646e-08
-0.1982893
-0.2376804
-0.2388735
-0.2394623
-0.2401072
-0.2408382
-5.390642e-08
-0.1983729
-0.2376801
-0.2388713
-0.2394598
-0.2401046
-0.2408352
-6.298871e-08
-0.1984663
-0.2376792
-0.2388663
-0.2394531
-0.2401016
-0.240832
-7.2734e-08
-0.1985722
-0.2376783
-0.2388599
-0.2394471
-0.2400986
-0.2408287
-8.343911e-08
-0.1986955
-0.2376785
-0.2388574
-0.2394443
-0.2400956
-0.2408252
-9.546826e-08
-0.1988385
-0.2376791
-0.2388549
-0.2394415
-0.2400926
-0.2408216
-1.092543e-07
-0.1990035
-0.2376798
-0.2388524
-0.2394384
-0.2400888
-0.2408177
-1.253446e-07
-0.1991935
-0.237681
-0.2388495
-0.2394309
-0.2400785
-0.240813
-1.444484e-07
-0.19941
-0.2376825
-0.2388462
-0.2394213
-0.2400692
-0.2408082
-1.675068e-07
-0.1996557
-0.2376844
-0.2388431
-0.2394172
-0.2400648
-0.2408036
-1.957827e-07
-0.1999317
-0.2376866
-0.2388398
-0.2394132
-0.2400598
-0.2407978
-2.310025e-07
-0.2002383
-0.2376891
-0.2388362
-0.2394083
-0.2400487
-0.2407825
-2.755184e-07
-0.2005747
-0.237692
-0.2388322
-0.239403
-0.2400339
-0.2407681
-3.325983e-07
-0.2009387
-0.2376948
-0.2388277
-0.2393976
-0.2400272
-0.2407607
-4.068105e-07
-0.201327
-0.2376976
-0.2388228
-0.2393917
-0.2400202
-0.2407526
-5.049257e-07
-0.2016767
-0.2376995
-0.2388172
-0.239385
-0.2400119
-0.2407352
-6.360052e-07
-0.202103
-0.2377019
-0.238811
-0.2393774
-0.2400023
-0.240711
-8.213262e-07
-0.2016214
-0.2376937
-0.2388038
-0.2393689
-0.2399924
-0.240699
-1.073345e-06
-0.2023855
-0.2376976
-0.2387956
-0.2393592
-0.239981
-0.2406844
-1.405582e-06
-0.2020514
-0.2376871
-0.2387853
-0.2393482
-0.2399681
-0.240668
-1.85608e-06
-0.2014986
-0.2376493
-0.2387729
-0.2393351
-0.2399537
-0.2406509
-2.476231e-06
-0.2014359
-0.2376065
-0.2387599
-0.2393201
-0.2399368
-0.2406314
-3.32561e-06
-0.2011893
-0.2375859
-0.238744
-0.2393082
-0.239916
-0.2406091
-4.45662e-06
-0.2006458
-0.237557
-0.2387155
-0.2392823
-0.2398964
-0.2405837
-5.931396e-06
-0.1997886
-0.2375233
-0.238705
-0.2392442
-0.2398829
-0.2405569
-7.801639e-06
-0.198603
-0.237482
-0.2386967
-0.2392304
-0.2398552
-0.2405368
-1.010211e-05
-0.1969085
-0.2374342
-0.2386885
-0.2392168
-0.2397924
-0.2405256
-1.292484e-05
-0.1933028
-0.2373678
-0.23867
-0.239193
-0.2397547
-0.2403945
-1.621339e-05
-0.1925169
-0.2372874
-0.2386241
-0.2391276
-0.2395624
-0.2398731
-1.923052e-05
-0.1908639
-0.2371765
-0.2385591
-0.2388576
-0.2391689
-0.2404298
-2.15122e-05
-0.190391
-0.236999
-0.2383045
-0.238714
-0.2402713
-0.2425959
-2.206542e-05
-0.1866877
-0.2367818
-0.2385163
-0.2399779
-0.2425198
-0.2449157
-1.945118e-05
-0.1656138
-0.2363877
-0.2396731
-0.242067
-0.2444851
-0.247095
-1.313191e-05
-0.1175768
-0.2360854
-0.2417205
-0.2438697
-0.2459215
-0.248581
-4.504123e-06
-0.03923125
-0.2359882
-0.2432873
-0.2451208
-0.2471907
-0.2495158
0.0009424689
0.0338467
-0.2355119
-0.2442395
-0.2460609
-0.2479555
-0.2506603
0.01242566
0.0864755
-0.2346246
-0.2451025
-0.246876
-0.2488107
-0.2512406
0.0418621
0.1187972
-0.2334446
-0.2459179
-0.247775
-0.2495804
-0.2516174
0.09262174
0.1478875
-0.2313389
-0.2463714
-0.2487411
-0.2504686
-0.2526959
0.1646804
0.1721064
-0.2301536
-0.2468612
-0.2492903
-0.2505122
-0.2526538
0.2306892
0.1866356
-0.2283043
-0.2462925
-0.2491339
-0.2512286
-0.2528907
0.278784
0.1889747
-0.2274435
-0.2462839
-0.2490947
-0.25103
-0.2520555
0.3136094
0.1887041
-0.2271017
-0.2463573
-0.2491052
-0.2509505
-0.2520662
0.3441377
0.1911669
-0.2270285
-0.246498
-0.2490341
-0.2508015
-0.2521053
0.3457553
0.1867833
-0.2275519
-0.246539
-0.2487562
-0.2502873
-0.2515145
0.3156472
0.1780743
-0.2283135
-0.2467258
-0.2489975
-0.2506191
-0.2519725
0.2808839
0.1726883
-0.2289796
-0.2466348
-0.2488543
-0.2504483
-0.2517469
0.2341848
0.1634889
-0.2299606
-0.2462486
-0.2481814
-0.2494422
-0.2510876
0.168956
0.1421336
-0.2317286
-0.24585
-0.2471624
-0.2484397
-0.2502122
0.09686446
0.1118327
-0.2330962
-0.2454065
-0.2468331
-0.2482138
-0.2499483
0.04421646
0.07205915
-0.2349048
-0.2444057
-0.2457917
-0.2472503
-0.2488243
0.01387502
0.02656145
-0.2357879
-0.2435345
-0.2448506
-0.2463286
-0.2484408
0.001073932
-0.03702336
-0.236467
-0.2427365
-0.2441927
-0.2457566
-0.2478561
-6.484571e-06
-0.1073239
-0.2367133
-0.241853
-0.243409
-0.2449094
-0.2465925
-1.553834e-05
-0.1629735
-0.2366501
-0.2404931
-0.2422304
-0.2437765
-0.2458776
-2.253218e-05
-0.1870507
-0.2368824
-0.2390671
-0.2407249
-0.2425886
-0.2446268
-2.590156e-05
-0.1962154
-0.2370662
-0.2384616
-0.2393566
-0.2410508
-0.2427478
-2.655538e-05
-0.1971815
-0.2371789
-0.2384093
-0.2388777
-0.2397741
-0.2411393
-2.534883e-05
-0.1971293
-0.2373166
-0.238514
-0.2389939
-0.2395008
-0.2402529
-2.298551e-05
-0.1978313
-0.2374022
-0.2385923
-0.2391031
-0.2396547
-0.2402637
-1.984639e-05
-0.1978368
-0.2374468
-0.2386557
-0.2391757
-0.2397337
-0.2404582
-1.675988e-05
-0.1994205
-0.2374745
-0.2386809
-0.2392025
-0.2397812
-0.2405235
-1.393172e-05
-0.1998938
-0.237502
-0.2386898
-0.2392215
-0.2398561
-0.2405402
-1.137469e-05
-0.2001891
-0.2375229
-0.2387001
-0.2392528
-0.2398871
-0.2405599
-9.153165e-06
-0.2003424
-0.2375384
-0.238714
-0.2392878
-0.2398972
-0.2405906
-7.263772e-06
-0.2000922
-0.2375519
-0.238744
-0.2393086
-0.2399209
-0.2406177
-5.735517e-06
-0.2001612
-0.2375648
-0.2387608
-0.2393231
-0.2399424
-0.2406403
-4.517133e-06
-0.1999301
-0.2376031
-0.2387743
-0.2393386
-0.2399597
-0.2406599
-3.547194e-06
-0.2003713
-0.2376433
-0.2387867
-0.2393521
-0.2399742
-0.2406767
-2.785917e-06
-0.2006527
-0.2376499
-0.2387973
-0.2393632
-0.2399869
-0.2406926
-2.169689e-06
-0.2000544
-0.2376478
-0.2388055
-0.2393727
-0.239998
-0.2407067
-1.701587e-06
-0.20046
-0.2376576
-0.2388126
-0.239381
-0.2400075
-0.2407179
-1.352658e-06
-0.2001217
-0.237658
-0.2388187
-0.2393883
-0.2400165
-0.2407412
-1.08159e-06
-0.1998706
-0.2376592
-0.2388242
-0.2393946
-0.2400244
-0.2407583
-8.699707e-07
-0.1995975
-0.2376596
-0.238829
-0.2394003
-0.240031
-0.2407658
-7.034115e-07
-0.1993509
-0.23766
-0.2388333
-0.2394054
-0.2400374
-0.2407727
-5.715261e-07
-0.1991293
-0.2376602
-0.2388371
-0.2394105
-0.2400516
-0.2407864
-4.664089e-07
-0.1989322
-0.2376606
-0.2388406
-0.239415
-0.2400625
-0.2408014
-3.820047e-07
-0.1987589
-0.2376611
-0.2388439
-0.2394189
-0.2400672
-0.2408068
-3.136979e-07
-0.1986082
-0.2376616
-0.2388469
-0.2394228
-0.2400714
-0.2408111
-2.579534e-07
-0.1984789
-0.2376624
-0.23885
-0.2394321
-0.2400803
-0.2408156
-2.12068e-07
-0.1983687
-0.2376634
-0.2388528
-0.2394395
-0.2400904
-0.24082
-1.739744e-07
-0.1982765
-0.2376644
-0.2388552
-0.2394424
-0.240094
-0.2408236
-1.421557e-07
-0.1981997
-0.2376656
-0.2388575
-0.2394451
-0.2400968
-0.240827
-1.158083e-07
-0.198137
-0.2376668
-0.23886
-0.2394478
-0.2400996
-0.2408303
-9.363839e-08
-0.1980866
-0.2376692
-0.2388662
-0.2394536
-0.2401025
-0.2408334
-7.445142e-08
-0.198045
-0.2376714
-0.2388712
-0.2394602
-0.2401054
-0.2408364
-5.756719e-08
-0.1980109
-0.2376729
-0.2388734
-0.2394626
-0.2401079
-0.2408393
-4.244168e-08
-0.1979793
-0.2376743
-0.2388753
-0.2394645
-0.2401101
-0.240842
-2.862695e-08
-0.197949
-0.2376758
-0.238877
-0.2394664
-0.2401123
-0.2408445
-1.578783e-08
-0.197915
-0.2376769
-0.2388788
-0.2394681
-0.2401142
-0.2408468
-4.021647e-09
-0.1978711
-0.2376777
-0.2388804
-0.2394697
-0.2401159
-0.2408488
6.032156e-09
-0.1978068
-0.2376774
-0.2388819
-0.2394708
-0.2401173
-0.2408506
1.371646e-08
-0.1977333
-0.2376884
-0.2388848
-0.2394717
-0.2401181
-0.2408528
1.770143e-08
-0.1976059
-0.2376947
-0.2388873
-0.2394718
-0.2401193
-0.2408656
1.605954e-08
-0.1973823
-0.237688
-0.2388858
-0.2394715
-0.2401294
-0.2408789
9.454043e-09
-0.197039
-0.2376756
-0.2388833
-0.2394787
-0.2401395
-0.2408919
3.750413e-09
-0.1964102
-0.2376571
-0.2388866
-0.2394855
-0.2401491
-0.2409046
2.673732e-09
-0.1950105
-0.2376602
-0.2388898
-0.2394923
-0.2401587
-0.2409173
-1.580487e-08
-0.1922373
-0.2376244
-0.2389043
-0.2395007
-0.2401688
-0.2409305
-0.2418231
-0.2429471
-0.2444507
-0.2458833
-0.2484292
-0.252414
-0.2654606
-0.2418053
-0.2429234
-0.2444194
-0.2458443
-0.2483825
-0.2523441
-0.2552206
-0.2417883
-0.2429005
-0.2443887
-0.2463426
-0.2483366
-0.2522793
-0.2548962
-0.2417717
-0.2428778
-0.2443578
-0.245767
-0.2482892
-0.2522142
-0.2546701
-0.2417557
-0.2428552
-0.2443271
-0.2457304
-0.2482429
-0.2521489
-0.2544875
-0.2417395
-0.2428326
-0.2442964
-0.2456926
-0.2481963
-0.2520834
-0.2542988
-0.2417232
-0.2428098
-0.2442656
-0.2456554
-0.2481821
-0.2520178
-0.2541042
-0.2417076
-0.2427869
-0.2442346
-0.2456187
-0.2481687
-0.2519525
-0.2539057
-0.2417042
-0.2427651
-0.244205
-0.2455808
-0.2481309
-0.2518933
-0.2537005
-0.2417015
-0.2427595
-0.2441768
-0.2455426
-0.2480927
-0.2518336
-0.2535156
-0.2416986
-0.2427551
-0.2441687
-0.2455053
-0.2480541
-0.2517726
-0.2533039
-0.2416953
-0.2427503
-0.2441621
-0.2454957
-0.2480152
-0.2517117
-0.2544789
-0.2416917
-0.2427452
-0.2441551
-0.245487
-0.248006
-0.2516508
-0.25565
-0.2416879
-0.2427398
-0.2441478
-0.2454778
-0.247996
-0.2516332
-0.2558781
-0.2416839
-0.2427341
-0.2441401
-0.2454681
-0.2479855
-0.2516155
-0.2581838
-0.2416796
-0.2427281
-0.244132
-0.2454579
-0.2479742
-0.2515965
-0.2588904
-0.2416752
-0.2427217
-0.2441235
-0.2454472
-0.2479588
-0.2515761
-0.2588644
-0.2416705
-0.2427152
-0.2441145
-0.2454323
-0.2478457
-0.2515544
-0.2589657
-0.2416656
-0.2427086
-0.2441052
-0.2454206
-0.2478282
-0.2515317
-0.2590467
-0.2416604
-0.2427017
-0.2440952
-0.2454081
-0.2478115
-0.2515075
-0.2590975
-0.2416549
-0.2426943
-0.2440848
-0.2453949
-0.247794
-0.251482
-0.2591013
-0.2416491
-0.2426864
-0.2440736
-0.245381
-0.2477755
-0.2514543
-0.2590756
-0.2416428
-0.242678
-0.2440618
-0.2453666
-0.2477536
-0.2514246
-0.2590196
-0.2416353
-0.2426691
-0.2440482
-0.2458409
-0.2476474
-0.2513837
-0.2589759
-0.2416272
-0.2426595
-0.2440357
-0.2453292
-0.247584
-0.2513469
-0.258947
-0.2416193
-0.2426492
-0.2440217
-0.2453157
-0.2475568
-0.2513097
-0.2589087
-0.2416092
-0.2426377
-0.2440057
-0.2452967
-0.2475276
-0.2512649
-0.2588866
-0.2415848
-0.2426246
-0.243991
-0.2452752
-0.2474905
-0.2510385
-0.2588502
-0.2415635
-0.2423302
-0.2435926
-0.2452498
-0.2474536
-0.2509356
-0.2588085
-0.2415534
-0.2423235
-0.2435827
-0.2452237
-0.2474167
-0.2508779
-0.2587553
-0.2415142
-0.2422873
-0.2435621
-0.2451954
-0.2473761
-0.250712
-0.2586684
-0.241479
-0.2422386
-0.2435384
-0.2451637
-0.247331
-0.2504999
-0.2585482
-0.2414571
-0.2421944
-0.2435056
-0.2451277
-0.2472799
-0.2504149
-0.2584461
-0.241433
-0.2421616
-0.2434408
-0.2450865
-0.2472213
-0.2502986
-0.2572116
-0.2414051
-0.2421414
-0.243382
-0.245036
-0.2471533
-0.2501844
-0.256093
-0.2413751
-0.2421209
-0.2432525
-0.2449697
-0.247072
-0.2500514
-0.2552744
-0.2413425
-0.242106
-0.2431992
-0.2448099
-0.2469652
-0.2498931
-0.2544722
-0.2413089
-0.2421035
-0.2431494
-0.2446054
-0.2468185
-0.2497629
-0.2515785
-0.2412681
-0.2421039
-0.2430832
-0.2445751
-0.2466789
-0.2500734
-0.2514892
-0.2410664
-0.2421403
-0.243277
-0.2453618
-0.2477054
-0.2514521
-0.2545713
-0.240919
-0.2424828
-0.2440142
-0.2472345
-0.2503095
-0.2535454
-0.2589576
-0.2424635
-0.2438168
-0.2475915
-0.2508156
-0.2532371
-0.2555774
-0.2596636
-0.2451923
-0.2466769
-0.2502639
-0.2532794
-0.2557528
-0.2565844
-0.2594364
-0.2476137
-0.2489266
-0.2527383
-0.2559604
-0.2579656
-0.2585163
-0.2623482
-0.2496523
-0.2513202
-0.2548912
-0.2575888
-0.2594973
-0.2608915
-0.2659211
-0.2512149
-0.2530742
-0.2567501
-0.2591536
-0.2605867
-0.2626677
-0.2680938
-0.2525862
-0.2547305
-0.25832
-0.260053
-0.2619024
-0.2628475
-0.2679655
-0.2532482
-0.2557591
-0.2585962
-0.2606317
-0.2619581
-0.2636321
-0.2650541
-0.2539272
-0.2559563
-0.2589821
-0.2612541
-0.2619365
-0.2634386
-0.2650931
-0.2542238
-0.2565836
-0.2597578
-0.2616727
-0.2626729
-0.2633143
-0.2641345
-0.2555916
-0.2563476
-0.2591741
-0.2609348
-0.2619386
-0.2625058
-0.263354
-0.2552189
-0.2562222
-0.2591349
-0.2597203
-0.2616399
-0.2624436
-0.2634702
-0.2546107
-0.2562682
-0.2585598
-0.2599009
-0.2598163
-0.2614894
-0.2623311
-0.2539134
-0.2569607
-0.2570107
-0.2575735
-0.2576295
-0.2575249
-0.2580538
-0.2537883
-0.2566326
-0.2565984
-0.2565288
-0.2560561
-0.2555855
-0.2565168
-0.2537656
-0.2562313
-0.256197
-0.2555752
-0.2542258
-0.2528713
-0.2535605
-0.2552697
-0.2556919
-0.2559595
-0.2545667
-0.2525256
-0.2537138
-0.2542595
-0.2554472
-0.2552239
-0.2538436
-0.2523099
-0.253412
-0.2541587
-0.2550943
-0.2555569
-0.2552727
-0.2556195
-0.2554994
-0.253014
-0.2551031
-0.2560518
-0.2563758
-0.2576304
-0.2576614
-0.2615993
-0.2525028
-0.254537
-0.255474
-0.2577904
-0.2582725
-0.2598349
-0.260605
-0.2522439
-0.254515
-0.2566291
-0.2570459
-0.2589088
-0.2589902
-0.2608094
-0.2511177
-0.2532255
-0.2565626
-0.2572794
-0.258285
-0.2594359
-0.2615914
-0.2507993
-0.2533902
-0.2554775
-0.2572365
-0.2576739
-0.2595098
-0.261148
-0.2498884
-0.2524747
-0.2552742
-0.2561043
-0.257935
-0.2575082
-0.258954
-0.2491008
-0.2519643
-0.2537822
-0.2565632
-0.256586
-0.25818
-0.2608829
-0.2479473
-0.250511
-0.2532385
-0.2543494
-0.2569099
-0.2563617
-0.2622326
-0.2465049
-0.2494484
-0.2512642
-0.253743
-0.2544758
-0.2567314
-0.260214
-0.2450169
-0.2476079
-0.2493637
-0.2517425
-0.2536898
-0.2547999
-0.2602992
-0.2429684
-0.2456191
-0.2479731
-0.2497276
-0.2524258
-0.252498
-0.2572811
-0.2414762
-0.2431528
-0.245669
-0.248567
-0.2505677
-0.2517875
-0.2568031
-0.2412443
-0.2423595
-0.2435293
-0.2466766
-0.2488708
-0.2519159
-0.2563388
-0.2412003
-0.2421639
-0.2433645
-0.2450874
-0.2478921
-0.2514032
-0.2548206
-0.2412666
-0.2421608
-0.2430913
-0.2446368
-0.24733
-0.2506099
-0.254072
-0.2413109
-0.2421629
-0.2431586
-0.244628
-0.2468507
-0.2502305
-0.2537337
-0.2413513
-0.2421752
-0.2432092
-0.2450369
-0.2470016
-0.2501022
-0.2544415
-0.2413869
-0.2421782
-0.2432625
-0.2449518
-0.2471117
-0.2501394
-0.2559784
-0.2414179
-0.2421835
-0.243324
-0.2450451
-0.2471867
-0.250249
-0.2563699
-0.2414462
-0.2421847
-0.243432
-0.2451035
-0.2472498
-0.2503505
-0.2573054
-0.24147
-0.2422322
-0.2435115
-0.2451431
-0.2473041
-0.2504587
-0.2586011
-0.2414912
-0.242262
-0.2435441
-0.2451771
-0.2473517
-0.250535
-0.259191
-0.2415254
-0.242276
-0.2435709
-0.2452073
-0.2473938
-0.2506153
-0.2592029
-0.2415644
-0.2423339
-0.2435907
-0.2452341
-0.247432
-0.2509137
-0.2592583
-0.2415728
-0.2423638
-0.2436083
-0.2452576
-0.2474666
-0.2509623
-0.25925
-0.2415929
-0.2426355
-0.2440062
-0.245281
-0.2474992
-0.251013
-0.2592285
-0.2416167
-0.2426478
-0.2440193
-0.2453027
-0.2475355
-0.2512202
-0.2592154
-0.241626
-0.2426583
-0.2440337
-0.2453206
-0.2475651
-0.2513303
-0.2591968
-0.2416332
-0.2426677
-0.2440469
-0.2453373
-0.2475911
-0.2513649
-0.2591964
-0.2416406
-0.2426765
-0.2440593
-0.2453532
-0.2476172
-0.2513973
-0.2591721
-0.2416476
-0.2426846
-0.2440708
-0.2453681
-0.2477319
-0.2514352
-0.2591907
-0.2416533
-0.2426923
-0.2440817
-0.2453822
-0.2477808
-0.2514667
-0.2591818
-0.2416587
-0.2426996
-0.244092
-0.2453956
-0.2477985
-0.2514929
-0.2591789
-0.2416638
-0.2427064
-0.2441017
-0.2454083
-0.2478154
-0.2515173
-0.2591664
-0.2416687
-0.2427129
-0.244111
-0.2454203
-0.2478312
-0.2515403
-0.259126
-0.2416733
-0.2427191
-0.2441197
-0.2454316
-0.2478461
-0.2515617
-0.2590762
-0.2416776
-0.2427252
-0.2441282
-0.2454447
-0.2479063
-0.2515822
-0.2589582
-0.2416817
-0.2427311
-0.2441362
-0.2454566
-0.2479767
-0.2516016
-0.2587747
-0.2416858
-0.2427368
-0.2441439
-0.2454665
-0.2479874
-0.25162
-0.2584637
-0.2416896
-0.2427423
-0.2441513
-0.2454759
-0.2479977
-0.2516372
-0.2575619
-0.2416933
-0.2427474
-0.2441583
-0.2454848
-0.2480072
-0.251654
-0.2567591
-0.2416967
-0.2427523
-0.2441649
-0.2454934
-0.2480164
-0.2516919
-0.2559834
-0.2416999
-0.242757
-0.2441712
-0.2455014
-0.2480396
-0.2517505
-0.2550052
-0.2417029
-0.2427613
-0.2441791
-0.2455245
-0.2480774
-0.2518095
-0.2536085
-0.2417057
-0.2427668
-0.2442071
-0.2455624
-0.2481154
-0.2518697
-0.2537814
-0.2417091
-0.2427886
-0.2442367
-0.2456004
-0.2481531
-0.2519287
-0.2539313
-0.2417249
-0.2428117
-0.2442675
-0.2456381
-0.2481891
-0.25199
-0.2541092
-0.2417415
-0.2428345
-0.2442983
-0.2456739
-0.248177
-0.2520548
-0.2542869
-0.2417578
-0.2428571
-0.2443288
-0.2457117
-0.2482218
-0.2521196
-0.2544629
-0.2417738
-0.2428795
-0.2443593
-0.2457495
-0.2482679
-0.2521842
-0.2546343
-0.2417902
-0.242902
-0.2443898
-0.2457874
-0.2483139
-0.2522487
-0.2548189
-0.2418068
-0.2429244
-0.2444203
-0.2458252
-0.24836
-0.2523128
-0.2550381
-0.2418236
-0.2429473
-0.2444508
-0.2458633
-0.248406
-0.2523762
-0.2580999
-1.61208
-1.444729
-1.559562
-1.559822
-1.559823
-1.559823
-1.559823
-1.559823
-1.559823
-1.559823
-1.559823
-1.559823
-1.559823
-1.559823
-1.559823
-1.559823
-1.559823
-1.559823
-1.638476
-1.56502
-1.559818
-1.559822
-1.559822
-1.559822
-1.559822
-1.559822
-1.559822
-1.559822
-1.559822
-1.559822
-1.559822
-1.559822
-1.559822
-1.559822
-1.559822
-1.559822
-1.632678
-1.550867
-1.559813
-1.559823
-1.559823
-1.559823
-1.559823
-1.559823
-1.559823
-1.559823
-1.559823
-1.559823
-1.559823
-1.559823
-1.559823
-1.559823
-1.559823
-1.559823
-1.633815
-1.551273
-1.559813
-1.559823
-1.559823
-1.559823
-1.559823
-1.559823
-1.559823
-1.559823
-1.559823
-1.559823
-1.559823
-1.559823
-1.559823
-1.559823
-1.559823
-1.559823
-1.636581
-1.551906
-1.559813
-1.559823
-1.559823
-1.559823
-1.559823
-1.559823
-1.559823
-1.559823
-1.559823
-1.559823
-1.559823
-1.559823
-1.559823
-1.559823
-1.559823
-1.559823
-1.640691
-1.551869
-1.559813
-1.559823
-1.559823
-1.559823
-1.559823
-1.559823
-1.559823
-1.559823
-1.559823
-1.559823
-1.559823
-1.559823
-1.559823
-1.559823
-1.559823
-1.559823
-1.645509
-1.551627
-1.559813
-1.559823
-1.559823
-1.559823
-1.559823
-1.559823
-1.559823
-1.559823
-1.559823
-1.559823
-1.559823
-1.559823
-1.559823
-1.559823
-1.559823
-1.559823
-1.650333
-1.550428
-1.559813
-1.559823
-1.559823
-1.559823
-1.559823
-1.559823
-1.559823
-1.559823
-1.559823
-1.559823
-1.559823
-1.559823
-1.559823
-1.559823
-1.559823
-1.559823
-1.653996
-1.54789
-1.559812
-1.559823
-1.559823
-1.559823
-1.559823
-1.559823
-1.559823
-1.559823
-1.559823
-1.559823
-1.559823
-1.559823
-1.559823
-1.559823
-1.559823
-1.559823
-1.656109
-1.542614
-1.559811
-1.559823
-1.559822
-1.559823
-1.559823
-1.559823
-1.559823
-1.559823
-1.559823
-1.559823
-1.559823
-1.559823
-1.559823
-1.559823
-1.559823
-1.559823
-1.713228
-1.531972
-1.559809
-1.559823
-1.559822
-1.559823
-1.559823
-1.559823
-1.559823
-1.559823
-1.559823
-1.559823
-1.559823
-1.559823
-1.559823
-1.559823
-1.559823
-1.559823
-1.910817
-1.538523
-1.559808
-1.559823
-1.559822
-1.559823
-1.559823
-1.559823
-1.559823
-1.559823
-1.559823
-1.559823
-1.559823
-1.559823
-1.559823
-1.559823
-1.559823
-1.559823
-1.881014
-1.543509
-1.559808
-1.559823
-1.559822
-1.559823
-1.559823
-1.559823
-1.559823
-1.559823
-1.559823
-1.559823
-1.559823
-1.559823
-1.559823
-1.559823
-1.559823
-1.559823
-2.02256
-1.545775
-1.559807
-1.559823
-1.559823
-1.559823
-1.559823
-1.559823
-1.559823
-1.559823
-1.559823
-1.559823
-1.559823
-1.559823
-1.559823
-1.559823
-1.559823
-1.559823
-1.731235
-1.549555
-1.559801
-1.559822
-1.559823
-1.559823
-1.559823
-1.559823
-1.559823
-1.559823
-1.559823
-1.559823
-1.559823
-1.559823
-1.559823
-1.559823
-1.559823
-1.559823
-1.663933
-1.543418
-1.559417
-1.559822
-1.559823
-1.559823
-1.559823
-1.559823
-1.559823
-1.559823
-1.559823
-1.559823
-1.559823
-1.559823
-1.559823
-1.559823
-1.559823
-1.559823
-1.616705
-1.55193
-1.559878
-1.559725
-1.559822
-1.559823
-1.559823
-1.559823
-1.559823
-1.559823
-1.559823
-1.559823
-1.559823
-1.559823
-1.559823
-1.559823
-1.559823
-1.559823
-1.579338
-1.550566
-1.559859
-1.559842
-1.559797
-1.559823
-1.559823
-1.559823
-1.559823
-1.559823
-1.559823
-1.559823
-1.559823
-1.559823
-1.559823
-1.559823
-1.559823
-1.559823
-1.5413
-1.550446
-1.559809
-1.559839
-1.559835
-1.559819
-1.559823
-1.559823
-1.559823
-1.559823
-1.559823
-1.559823
-1.559823
-1.559823
-1.559823
-1.559823
-1.559823
-1.559823
-1.5021
-1.549211
-1.559804
-1.559825
-1.559824
-1.559824
-1.559822
-1.559823
-1.559823
-1.559823
-1.559823
-1.559823
-1.559823
-1.559823
-1.559823
-1.559823
-1.559823
-1.559823
-1.460373
-1.548813
-1.559804
-1.559823
-1.559823
-1.559823
-1.559823
-1.559823
-1.559823
-1.559823
-1.559823
-1.559823
-1.559823
-1.559823
-1.559823
-1.559823
-1.559823
-1.559823
-1.425027
-1.548069
-1.559804
-1.559823
-1.559823
-1.559823
-1.559823
-1.559822
-1.559823
-1.559823
-1.559823
-1.559823
-1.559823
-1.559823
-1.559823
-1.559823
-1.559823
-1.559823
-1.391778
-1.548785
-1.559805
-1.559823
-1.559823
-1.559823
-1.559823
-1.559823
-1.559823
-1.559823
-1.559823
-1.559823
-1.559823
-1.559823
-1.559823
-1.559823
-1.559823
-1.559823
-1.358552
-1.548906
-1.559805
-1.559823
-1.559822
-1.559823
-1.559823
-1.559823
-1.559823
-1.559823
-1.559823
-1.559823
-1.559823
-1.559823
-1.559823
-1.559823
-1.559823
-1.559823
-1.326799
-1.549003
-1.559805
-1.559823
-1.559822
-1.559823
-1.559823
-1.559823
-1.559823
-1.559823
-1.559823
-1.559823
-1.559823
-1.559823
-1.559823
-1.559823
-1.559823
-1.559823
-1.295838
-1.549617
-1.559805
-1.559822
-1.559821
-1.559823
-1.559823
-1.559823
-1.559823
-1.559823
-1.559823
-1.559823
-1.559823
-1.559823
-1.559823
-1.559823
-1.559823
-1.559823
-1.262359
-1.550271
-1.559805
-1.559822
-1.55982
-1.559823
-1.559823
-1.559823
-1.559823
-1.559823
-1.559823
-1.559823
-1.559823
-1.559823
-1.559823
-1.559823
-1.559823
-1.559823
-1.230131
-1.551063
-1.559805
-1.559822
-1.559818
-1.559822
-1.559822
-1.559823
-1.559822
-1.559823
-1.559823
-1.559823
-1.559823
-1.559823
-1.559823
-1.559823
-1.559823
-1.559823
-1.198241
-1.552236
-1.559804
-1.559823
-1.559813
-1.559822
-1.559822
-1.559822
-1.559822
-1.559823
-1.559823
-1.559823
-1.559823
-1.559823
-1.559823
-1.559823
-1.559823
-1.559823
-1.166246
-1.553874
-1.559802
-1.559902
-1.559837
-1.559825
-1.559821
-1.559822
-1.559822
-1.559823
-1.559823
-1.559823
-1.559823
-1.559823
-1.559823
-1.559823
-1.559823
-1.559823
-1.132519
-1.555813
-1.55975
-1.549944
-1.552357
-1.559722
-1.559818
-1.559791
-1.55981
-1.559822
-1.559823
-1.559823
-1.559823
-1.559823
-1.559823
-1.559823
-1.559823
-1.559823
-1.099596
-1.554868
-1.559701
-1.556405
-1.55989
-1.559748
-1.559815
-1.559459
-1.559522
-1.559816
-1.559823
-1.559823
-1.559823
-1.559823
-1.559823
-1.559823
-1.559823
-1.559823
-1.06546
-1.538312
-1.55963
-1.551688
-1.555964
-1.559817
-1.559809
-1.559815
-1.559845
-1.559823
-1.559823
-1.559823
-1.559823
-1.559823
-1.559823
-1.559823
-1.559823
-1.559823
-1.025988
-1.529397
-1.558634
-1.53409
-1.523791
-1.560038
-1.559802
-1.559798
-1.559821
-1.559823
-1.559823
-1.559823
-1.559823
-1.559823
-1.559823
-1.559823
-1.559823
-1.559823
-0.9416669
-1.587875
-1.555275
-1.536625
-1.548024
-1.535487
-1.55976
-1.559764
-1.559581
-1.559706
-1.559822
-1.559823
-1.559823
-1.559823
-1.559823
-1.559823
-1.55982
-1.559823
-0.8835903
-1.483343
-1.548559
-1.562589
-1.558608
-1.564634
-1.559536
-1.557903
-1.559032
-1.559799
-1.559822
-1.559821
-1.559824
-1.559823
-1.559823
-1.559822
-1.559822
-1.559823
-0.8131828
-1.38848
-1.551941
-1.550389
-1.556324
-1.5581
-1.558663
-1.559652
-1.559915
-1.559774
-1.559869
-1.559833
-1.559844
-1.559824
-1.559822
-1.559823
-1.559826
-1.559823
-0.5871026
-1.404063
-1.44649
-1.493413
-1.55236
-1.559257
-1.559809
-1.5597
-1.55962
-1.559745
-1.559875
-1.559956
-1.560088
-1.55995
-1.559844
-1.559822
-1.559823
-1.559823
-0.509179
-1.3317
-1.510008
-1.542716
-1.560539
-1.562565
-1.56176
-1.558158
-1.559313
-1.560559
-1.55986
-1.560377
-1.560174
-1.560423
-1.560741
-1.559986
-1.559837
-1.559822
-1.671404
-1.816899
-1.467605
-1.492173
-1.567786
-1.565835
-1.563486
-1.563337
-1.559408
-1.560573
-1.558836
-1.556409
-1.558357
-1.558498
-1.558922
-1.560657
-1.560629
-1.559865
-0.3755667
-1.845269
-1.381851
-1.569813
-1.571425
-1.567685
-1.564795
-1.565344
-1.558903
-1.559867
-1.556993
-1.553753
-1.555764
-1.555176
-1.555118
-1.557753
-1.559584
-1.561008
-0.2553533
-1.515887
-1.578515
-1.569366
-1.57419
-1.554981
-1.564728
-1.565987
-1.55834
-1.558307
-1.55418
-1.555659
-1.552269
-1.550297
-1.553048
-1.553342
-1.555099
-1.557757
-0.3955745
-1.732314
-1.467248
-1.573853
-1.571645
-1.585617
-1.565512
-1.565856
-1.557314
-1.555907
-1.551494
-1.552751
-1.547403
-1.546625
-1.548038
-1.54817
-1.549504
-1.5533
-0.5231891
-2.061094
-1.54306
-1.57828
-1.559937
-1.575565
-1.564111
-1.565213
-1.556249
-1.552502
-1.547758
-1.54677
-1.543065
-1.546177
-1.542687
-1.54229
-1.545069
-1.547146
-0.5438218
-2.453941
-1.51187
-1.458459
-1.542755
-1.575764
-1.561828
-1.563882
-1.555221
-1.547691
-1.549036
-1.541554
-1.53889
-1.539031
-1.536701
-1.538427
-1.538741
-1.541616
-0.4886253
-3.008845
-1.253472
-1.528442
-1.565337
-1.566579
-1.561371
-1.561812
-1.553196
-1.545099
-1.547366
-1.5375
-1.540245
-1.532998
-1.532916
-1.531775
-1.534747
-1.535355
-0.3432367
-3.698275
-1.692695
-1.357438
-1.470852
-1.5477
-1.560029
-1.558251
-1.549668
-1.543659
-1.538395
-1.53726
-1.531104
-1.530154
-1.527063
-1.528798
-1.527567
-1.529975
-0.3404004
-4.589151
-1.877175
-1.268902
-1.536173
-1.549214
-1.556158
-1.554268
-1.549162
-1.545549
-1.533916
-1.539603
-1.528309
-1.525264
-1.523389
-1.520882
-1.521759
-1.523927
-0.2048921
-3.195033
-3.038765
-1.292637
-1.364246
-1.479048
-1.556313
-1.553541
-1.520014
-1.538491
-1.541765
-1.52822
-1.527833
-1.524569
-1.518361
-1.52014
-1.516384
-1.5183
-0.2367134
-2.798368
-4.24387
-2.073034
-1.558176
-1.520277
-1.509818
-1.527358
-1.528109
-1.520263
-1.515218
-1.515166
-1.518837
-1.512599
-0.2899277
-1.184431
-1.50709
-1.488828
-1.524371
-1.514909
-1.516649
-1.509972
-1.511241
-1.514046
-0.2835686
-1.479023
-1.510581
-1.516916
-1.513324
-1.512935
-1.50852
-1.507134
-1.497822
-1.519178
-1.511942
-1.508118
-1.504695
-1.503391
-1.530224
-1.50638
-1.508433
-1.503589
-1.502224
-1.547952
-1.496273
-1.504667
-1.501431
-1.49937
-1.520836
-1.507807
-1.505255
-1.500916
-1.499156
-1.51646
-1.511861
-1.504305
-1.49975
-1.497815
-1.444651
-1.508968
-1.502162
-1.4974
-1.49537
-1.51256
-1.504608
-1.500361
-1.499082
-1.495516
-1.584487
-1.48265
-1.50191
-1.496795
-1.497891
-1.500018
-0.2629339
-1.524341
-1.509052
-1.504851
-1.499197
-1.496188
-1.494272
-0.2574482
-0.8227285
-1.483387
-1.505446
-1.506651
-1.500232
-1.50168
-1.498657
-1.496831
-0.2557049
-2.326693
-2.023725
-1.382405
-1.475172
-1.530417
-1.49145
-1.499314
-1.505901
-1.499173
-1.497744
-1.501545
-0.2089355
-3.361364
-3.715704
-1.551944
-1.105668
-1.482695
-1.544137
-1.533897
-1.637146
-1.554079
-1.539299
-1.512798
-1.512685
-1.499101
-1.502611
-1.495508
-1.502096
-1.500244
-0.5233679
-4.522341
-2.527751
-1.058304
-1.372921
-1.520721
-1.539308
-1.535515
-1.538384
-1.521036
-1.519053
-1.510775
-1.511596
-1.505449
-1.497342
-1.505968
-1.499422
-1.507353
-0.6577346
-4.094532
-1.602184
-1.258206
-1.465972
-1.507451
-1.535734
-1.535163
-1.524494
-1.529793
-1.514069
-1.523609
-1.50471
-1.506614
-1.508547
-1.501804
-1.509113
-1.506616
-0.4350971
-4.241112
-1.54686
-1.240968
-1.502179
-1.543877
-1.535683
-1.536551
-1.528919
-1.524022
-1.520921
-1.514653
-1.509664
-1.513232
-1.506086
-1.513859
-1.507635
-1.515706
-0.6132242
-3.32033
-1.311105
-1.448264
-1.437648
-1.548995
-1.536745
-1.53794
-1.531079
-1.518102
-1.52255
-1.51263
-1.518569
-1.50987
-1.518085
-1.511078
-1.517108
-1.517845
-0.6840701
-2.522341
-1.536847
-1.538817
-1.544388
-1.552558
-1.537973
-1.539498
-1.53194
-1.522927
-1.523819
-1.518751
-1.517816
-1.517839
-1.513954
-1.519087
-1.523624
-1.525823
-0.6456514
-2.200187
-1.434682
-1.536277
-1.523234
-1.554049
-1.540056
-1.541485
-1.533813
-1.52608
-1.531032
-1.525174
-1.519884
-1.527251
-1.521247
-1.530211
-1.527977
-1.535716
-0.6654993
-2.122159
-1.511148
-1.547047
-1.557493
-1.543054
-1.541576
-1.543703
-1.536334
-1.532495
-1.535789
-1.532053
-1.527575
-1.528358
-1.529917
-1.529403
-1.536514
-1.540236
-0.5270208
-2.197466
-1.615361
-1.506973
-1.551942
-1.541978
-1.544617
-1.546153
-1.539231
-1.538298
-1.531794
-1.538449
-1.534264
-1.534113
-1.539223
-1.539224
-1.546044
-1.54994
-0.6583087
-2.173893
-1.423963
-1.543889
-1.551807
-1.549055
-1.547354
-1.548713
-1.542635
-1.54327
-1.53603
-1.540834
-1.54123
-1.54184
-1.544697
-1.548096
-1.554101
-1.558859
-0.657193
-1.632803
-1.473347
-1.534745
-1.555171
-1.553332
-1.550217
-1.550292
-1.54627
-1.548095
-1.545671
-1.547054
-1.548268
-1.549498
-1.552726
-1.557935
-1.559529
-1.559747
-0.63301
-1.674924
-1.481804
-1.554477