/*--------------------------------*- C++ -*----------------------------------*\
| =========                 |                                                 |
| \\      /  F ield         | OpenFOAM: The Open Source CFD Toolbox           |
|  \\    /   O peration     | Version:  2206                                  |
|   \\  /    A nd           | Website:  www.openfoam.com                      |
|    \\/     M anipulation  |                                                 |
\*---------------------------------------------------------------------------*/
FoamFile
{
    version     2.0;
    format      ascii;
    arch        "LSB;label=32;scalar=64";
    class       volVectorField;
    location    "1.6";
    object      ddt0(U.b);
}
// * * * * * * * * * * * * * * * * * * * * * * * * * * * * * * * * * * * * * //

dimensions      [0 1 -2 0 0 0 0];

internalField   nonuniform List<vector> 
13078
(
(6.387037e-05 0.0001204124 -1.008815e-26)
(4.440631e-05 -4.195659e-05 -3.942501e-29)
(4.433193e-05 -7.459715e-05 -1.897901e-27)
(4.672349e-05 -0.0001487064 0)
(4.683328e-05 -0.0002025203 -4.608819e-27)
(4.681149e-05 -0.0002465076 -5.758318e-27)
(4.634447e-05 -0.0002843852 -6.688998e-27)
(8.617867e-05 -2.878907e-05 0)
(0.0001023977 -1.740191e-05 -1.218035e-28)
(9.594617e-05 -8.111595e-05 0)
(8.999352e-05 -0.0001515041 0)
(8.834376e-05 -0.0002033583 -7.661981e-29)
(8.498312e-05 -0.0002477193 -3.688257e-29)
(8.158719e-05 -0.0002863014 -7.10759e-29)
(0.0002277583 -1.186323e-05 1.30161e-26)
(0.0001755327 -4.802732e-05 -9.932655e-27)
(0.0001479602 -0.0001036546 2.125282e-27)
(0.0001377639 -0.0001581431 6.984481e-27)
(0.0001319252 -0.0002063416 4.819436e-27)
(0.0001245153 -0.0002523166 0)
(0.0001174609 -0.0002921832 -3.938654e-32)
(0.0002363397 -1.954735e-05 1.237436e-26)
(0.0002150489 -6.372891e-05 -2.25246e-26)
(0.0001999364 -0.0001159322 -2.049313e-26)
(0.0001880248 -0.0001662729 -9.356972e-27)
(0.000177252 -0.0002154803 2.903535e-28)
(0.000165795 -0.0002613725 0)
(0.000154138 -0.0003024307 1.265743e-28)
(0.0002713385 -2.371736e-05 -1.707103e-29)
(0.0002630806 -7.335285e-05 -1.356548e-26)
(0.0002512294 -0.000126198 -2.550528e-26)
(0.0002382214 -0.000178228 -2.442518e-26)
(0.0002232694 -0.0002268782 5.187521e-27)
(0.0002087611 -0.0002746428 -5.664784e-31)
(0.0001923338 -0.0003175052 7.171344e-27)
(0.0003247245 -2.570854e-05 0)
(0.0003175299 -8.021314e-05 1.168963e-28)
(0.0003057586 -0.0001370288 -2.013436e-28)
(0.0002912818 -0.0001919255 -1.44553e-26)
(0.0002737357 -0.0002437129 7.337203e-28)
(0.0002537574 -0.0002916155 -6.848783e-27)
(0.0002329707 -0.0003375185 -1.631659e-26)
(0.0003852331 -3.000276e-05 0)
(0.0003773989 -9.009341e-05 -1.88047e-26)
(0.0003646556 -0.0001500052 -2.152023e-26)
(0.0003487425 -0.0002078894 -4.849601e-27)
(0.0003277557 -0.0002637572 -1.527719e-26)
(0.0003036834 -0.0003155317 9.456378e-28)
(0.0002761636 -0.0003624358 0)
(0.0004488378 -3.305177e-05 4.478676e-26)
(0.0004423248 -9.91527e-05 -2.191853e-26)
(0.0004292168 -0.0001640694 -2.115313e-26)
(0.000410258 -0.0002275109 0)
(0.0003858422 -0.0002880653 -3.758082e-26)
(0.0003571742 -0.0003441062 1.034618e-27)
(0.0003245783 -0.0003948028 1.187619e-27)
(0.0005211448 -3.592897e-05 4.772917e-30)
(0.0005141696 -0.0001087646 5.075477e-26)
(0.0004995604 -0.0001806957 2.506076e-26)
(0.0004776388 -0.0002503688 7.55013e-28)
(0.0004489323 -0.0003167681 -8.614023e-26)
(0.0004154294 -0.0003779695 1.139941e-27)
(0.0003769594 -0.0004329729 0)
(0.000601704 -4.000564e-05 -5.967285e-26)
(0.0005939055 -0.0001206353 5.847091e-26)
(0.0005770172 -0.0002001185 2.823783e-26)
(0.0005516631 -0.0002772909 -5.333414e-26)
(0.0005182794 -0.0003503539 -2.919745e-29)
(0.0004793841 -0.0004173231 0)
(0.0004344181 -0.0004775567 0)
(0.0006907044 -4.440482e-05 0)
(0.0006817633 -0.0001343112 0)
(0.0006625752 -0.0002228702 6.466466e-26)
(0.0006334624 -0.0003082705 -6.11123e-26)
(0.0005951425 -0.0003890456 3.377085e-29)
(0.0005500329 -0.0004630133 0)
(0.0004976678 -0.0005295123 0)
(0.0007899215 -5.004694e-05 0)
(0.0007794355 -0.0001503361 -7.639101e-26)
(0.000757784 -0.0002486115 7.38294e-26)
(0.0007245487 -0.0003437589 6.865944e-26)
(0.0006804989 -0.0004335965 -6.675433e-26)
(0.0006284485 -0.0005158794 0)
(0.0005681706 -0.0005895231 5.747421e-26)
(0.0009004553 -5.624553e-05 0)
(0.0008888374 -0.0001684381 -8.750674e-26)
(0.000864136 -0.0002780532 -8.456094e-28)
(0.0008262231 -0.0003843844 7.938029e-26)
(0.0007756774 -0.0004848 -7.438446e-26)
(0.0007163031 -0.0005765896 6.827725e-26)
(0.0006481666 -0.0006594375 5.412242e-29)
(0.001024415 -6.318918e-05 -1.009108e-25)
(0.001011233 -0.0001889266 0)
(0.0009831072 -0.0003115539 -9.463753e-28)
(0.0009395977 -0.000430841 -1.310516e-27)
(0.0008830203 -0.0005431235 -1.690787e-25)
(0.0008152887 -0.0006459993 7.762212e-26)
(0.0007379994 -0.0007394717 -6.973133e-26)
(0.001163649 -7.108005e-05 -1.145274e-25)
(0.001148507 -0.0002122457 0)
(0.001116628 -0.0003500289 -2.120643e-27)
(0.001066736 -0.0004840907 1.222643e-25)
(0.001005355 -0.0006077915 -6.761078e-26)
(0.000926783 -0.0007251027 0)
(0.0008390787 -0.0008304183 7.90685e-26)
(0.001320094 -8.007963e-05 0)
(0.001302803 -0.0002386473 -1.270613e-25)
(0.001266896 -0.0003928066 0)
(0.001212464 -0.0005418036 1.200452e-25)
(0.001140698 -0.0006834157 4.150401e-27)
(0.001052017 -0.0008150508 4.961989e-27)
(0.0009528868 -0.0009334427 9.54384e-26)
(0.001495796 -9.017347e-05 0)
(0.001476582 -0.0002684447 -2.878349e-25)
(0.001435885 -0.0004416245 -1.343034e-27)
(0.001374634 -0.0006089803 -1.855123e-27)
(0.001293147 -0.0007684644 0)
(0.001192982 -0.0009165769 0)
(0.001080962 -0.001049688 0)
(0.001693672 -0.0001010911 -1.661695e-25)
(0.001672119 -0.0003017052 -1.633458e-25)
(0.001626081 -0.0004968603 -3.02546e-27)
(0.001556937 -0.0006849837 -2.086746e-27)
(0.001464789 -0.000864362 0)
(0.001351825 -0.001031112 -1.341431e-25)
(0.00122515 -0.001181002 -1.439212e-26)
(0.001916882 -0.0001134574 -1.880037e-25)
(0.00189206 -0.000339206 -1.846596e-25)
(0.001840164 -0.0005590607 -5.102844e-27)
(0.001762167 -0.0007706756 -4.694839e-27)
(0.001657742 -0.0009723028 0)
(0.001531476 -0.001159748 -1.448576e-25)
(0.001387601 -0.001329004 -8.09591e-27)
(0.002168326 -0.0001275137 -2.127295e-25)
(0.002139784 -0.0003815121 -4.163289e-25)
(0.00208132 -0.0006290746 -2.010667e-25)
(0.001993662 -0.0008676748 0)
(0.001875019 -0.001096376 5.061743e-26)
(0.001737681 -0.001301762 7.665978e-26)
(0.001571042 -0.001495278 1.817177e-26)
(0.002451487 -0.0001433635 -2.406584e-25)
(0.002418793 -0.0004290631 -4.696989e-25)
(0.002352875 -0.0007074834 -4.522399e-25)
(0.002254636 -0.000975165 -2.10399e-25)
(0.002125217 -0.001228909 7.475888e-27)
(0.00196598 -0.001466394 -1.825698e-25)
(0.001777595 -0.001683198 1.559951e-25)
(0.002770358 -0.0001612009 0)
(0.002732973 -0.0004825177 -2.641513e-25)
(0.002658664 -0.0007957593 -2.541883e-25)
(0.002548132 -0.001097083 -4.887234e-25)
(0.002403302 -0.001382391 0)
(0.002223026 -0.001650233 -2.064476e-25)
(0.00201069 -0.001894459 2.482277e-28)
(0.003129364 -0.0001811968 3.066153e-25)
(0.003086694 -0.0005424312 0)
(0.003003097 -0.0008946808 0)
(0.002878934 -0.00123369 7.294781e-27)
(0.002716208 -0.001554763 2.677573e-25)
(0.002512228 -0.001856044 0)
(0.002275155 -0.002130862 -2.125165e-25)
(0.003533378 -0.0002035531 6.921725e-25)
(0.003484759 -0.0006093999 0)
(0.003390929 -0.001005289 0)
(0.003251836 -0.001386727 3.030284e-25)
(0.003069874 -0.001749416 5.731854e-25)
(0.00283957 -0.002093476 -2.673806e-25)
(0.002581331 -0.002391855 0)
(0.003987721 -0.0002284667 3.904635e-25)
(0.003932409 -0.0006840134 2.066929e-27)
(0.003827331 -0.0011285 3.718446e-25)
(0.003671776 -0.001556908 9.42505e-27)
(0.003469157 -0.001963378 1.220469e-26)
(0.003219052 -0.002343993 -3.03162e-25)
(0.002920511 -0.002694156 0)
(0.00449816 -0.000256139 0)
(0.004435374 -0.0007668959 -4.299162e-25)
(0.004318044 -0.001265535 4.155956e-25)
(0.004144524 -0.001746867 0)
(0.003918524 -0.002204722 -3.455218e-25)
(0.003640598 -0.002633976 6.37878e-26)
(0.003304059 -0.003032026 3.673672e-26)
(0.005070865 -0.0002867359 -4.960008e-25)
(0.004999887 -0.0008585497 -4.845628e-25)
(0.00486938 -0.001417192 4.680314e-25)
(0.004676666 -0.001957295 0)
(0.004425689 -0.002472238 -2.987866e-26)
(0.004116716 -0.002956426 -5.317846e-29)
(0.003739814 -0.003407985 4.125991e-26)
(0.005712066 -0.0003204379 -5.586242e-25)
(0.005632895 -0.0009590881 -5.453074e-25)
(0.0054881 -0.001584158 5.274791e-25)
(0.005274904 -0.002189442 0)
(0.004997365 -0.002767976 0)
(0.004656414 -0.00331586 -4.37644e-25)
(0.004239252 -0.003837744 4.284626e-26)
(0.006427762 -0.0003567317 -6.29318e-25)
(0.006342045 -0.001068694 -6.171551e-25)
(0.006181669 -0.001767154 0)
(0.00594643 -0.002444439 5.371348e-25)
(0.005640063 -0.003092374 -3.7376e-26)
(0.005263247 -0.003702661 -9.443984e-25)
(0.004810456 -0.004264174 1.540167e-25)
(0.007223312 -0.0003966763 -7.059223e-25)
(0.007137588 -0.001181326 0)
(0.006957928 -0.001965551 -6.790168e-25)
(0.006701099 -0.002724361 6.221889e-25)
(0.006364284 -0.003452233 -6.015388e-25)
(0.005947037 -0.004144424 -1.116392e-24)
(0.005442335 -0.004792136 -5.058264e-25)
(0.008115382 -0.0004341654 0)
(0.00801564 -0.001309577 0)
(0.00782599 -0.002178671 -1.500374e-24)
(0.007547407 -0.003027354 0)
(0.007181375 -0.003846228 -1.357261e-24)
(0.0067273 -0.004629859 -6.313329e-25)
(0.006175847 -0.00537426 5.737177e-25)
(0.009099887 -0.0004791524 -8.92214e-25)
(0.00898631 -0.001450149 8.612337e-25)
(0.008801867 -0.002394005 8.343135e-25)
(0.008499378 -0.003348075 0)
(0.008100821 -0.004270022 -7.655119e-25)
(0.007611985 -0.005154914 0)
(0.007017261 -0.005994827 5.082241e-25)
(0.01017246 -0.0005254449 -9.940262e-25)
(0.01007305 -0.001584323 9.752915e-25)
(0.009865585 -0.002650287 2.828468e-24)
(0.009579196 -0.003675023 1.843252e-24)
(0.009137885 -0.004722145 -8.043559e-25)
(0.00861483 -0.005723256 6.875156e-26)
(0.007974681 -0.006684132 -8.028961e-26)
(0.01136002 -0.0005745714 1.676667e-27)
(0.01126122 -0.001728559 5.19203e-27)
(0.01106484 -0.002880959 1.096832e-24)
(0.01075354 -0.004040867 1.974307e-24)
(0.01030777 -0.005198331 -1.096356e-24)
(0.009756392 -0.006331717 1.519137e-25)
(0.009075665 -0.007432182 3.576178e-25)
(0.01267937 -0.0006254146 -1.819629e-27)
(0.01256661 -0.00188064 -5.643316e-27)
(0.01237466 -0.003135476 1.152065e-24)
(0.0120491 -0.004421528 7.20081e-25)
(0.01164378 -0.005652238 -6.295131e-25)
(0.01106714 -0.006953533 8.664752e-25)
(0.01034754 -0.008224577 0)
(0.01409086 -0.000669056 0)
(0.01397681 -0.002013849 0)
(0.01380354 -0.003362288 1.327355e-24)
(0.01352215 -0.00473747 1.400263e-24)
(0.01309607 -0.006168991 1.90728e-24)
(0.01259478 -0.007546949 1.837684e-24)
(0.01182399 -0.009042049 0)
(0.01559438 -0.0007058038 -4.065122e-27)
(0.0154832 -0.002128015 1.224685e-26)
(0.0153344 -0.003562554 4.241401e-26)
(0.01509989 -0.005028453 0)
(0.01474387 -0.006550256 2.7948e-24)
(0.01425085 -0.008156505 -1.926444e-25)
(0.01354323 -0.009844998 -4.694478e-25)
(0.01717342 -0.0007326537 -1.670781e-24)
(0.01707307 -0.002214049 1.318504e-26)
(0.01696211 -0.003721359 -1.630516e-24)
(0.01678954 -0.00528304 0)
(0.01652141 -0.006929299 1.730789e-24)
(0.01607967 -0.008727035 2.614306e-25)
(0.01558453 -0.0105287 -2.308728e-24)
(0.01880266 -0.0007466404 -1.830053e-24)
(0.01872916 -0.002259803 -1.798442e-24)
(0.0186668 -0.003817059 -1.796566e-24)
(0.0185787 -0.005443757 -1.268395e-25)
(0.01843967 -0.007174332 -3.358316e-25)
(0.0181767 -0.009031935 1.081863e-24)
(0.01777277 -0.01114083 -1.042136e-24)
(0.0204579 -0.0007507186 0)
(0.02042719 -0.002250559 1.941927e-24)
(0.02042804 -0.003837059 1.963075e-24)
(0.02045143 -0.005503414 6.407752e-26)
(0.02049876 -0.00730672 -2.11892e-24)
(0.02051901 -0.009292346 -2.154196e-25)
(0.02040731 -0.01164516 0)
(0.02214093 -0.0007349048 2.162286e-24)
(0.02212455 -0.002239161 4.195002e-24)
(0.02226534 -0.003741624 1.99286e-24)
(0.02250209 -0.005377489 4.305414e-24)
(0.02298069 -0.007144181 -2.35953e-24)
(0.02374731 -0.009122336 2.068799e-24)
(0.02410138 -0.01172522 1.613416e-22)
(0.02384246 -0.0007090996 2.324332e-24)
(0.02392535 -0.002122348 -1.187726e-26)
(0.02425898 -0.003503938 0)
(0.02515239 -0.004802621 5.084948e-26)
(0.02640654 -0.006374932 5.163606e-24)
(0.02741208 -0.008947517 1.142989e-22)
(0.02767764 -0.01270932 -9.582918e-24)
(0.0256134 -0.000630056 -2.504669e-24)
(0.02596098 -0.001777939 1.577095e-26)
(0.02691117 -0.002672093 2.027564e-26)
(0.02830119 -0.003771158 -5.697023e-24)
(0.02975695 -0.005951828 -1.247971e-22)
(0.03058933 -0.009536066 -1.594686e-22)
(0.03054757 -0.01332091 -1.229996e-22)
(0.02769252 -0.0003186869 -2.725334e-24)
(0.02843779 -0.0008131227 0)
(0.02986376 -0.001454317 -3.507547e-26)
(0.03148715 -0.003138145 -1.449446e-22)
(0.03246892 -0.00612264 -2.321788e-22)
(0.03266783 -0.009497349 -7.660252e-22)
(0.03206755 -0.01344014 -1.497549e-22)
(0.03003725 0.0002818855 0)
(0.03103236 0.0003124975 -8.028856e-26)
(0.03263598 -0.0006549836 -7.339192e-23)
(0.03357915 -0.002867083 -1.595741e-22)
(0.03355938 -0.005826463 2.067856e-23)
(0.0330936 -0.009340612 4.607543e-23)
(0.03240005 -0.01399008 3.532077e-22)
(0.03251633 0.000444653 0)
(0.03340636 0.0008068184 1.365371e-23)
(0.03391784 -0.0002790777 4.57801e-23)
(0.03386975 -0.002492396 8.514559e-23)
(0.03369547 -0.005663674 4.420101e-23)
(0.03322658 -0.009479088 -3.628133e-23)
(0.03185507 -0.01479752 -1.462678e-22)
(0.03450616 0.0002276705 -3.548827e-24)
(0.03430209 0.0009826651 -7.22159e-23)
(0.03375786 2.017477e-05 5.686119e-23)
(0.03338328 -0.002183085 2.133431e-23)
(0.03314785 -0.005314054 3.674492e-22)
(0.0328224 -0.009867208 -1.776602e-22)
(0.03159189 -0.01501841 -2.142494e-22)
(0.03518347 0.0002752847 -4.91744e-23)
(0.03408175 0.0008126987 -1.533765e-22)
(0.03311871 -2.236571e-05 -8.497052e-23)
(0.03257573 -0.002170251 -9.21462e-23)
(0.03218106 -0.005359447 2.906403e-22)
(0.03151997 -0.009980005 -4.06065e-22)
(0.03070892 -0.01606183 -4.741333e-22)
(0.03410446 0.0003731571 -2.691049e-23)
(0.03305801 0.0005738577 -1.084963e-23)
(0.03194205 -0.0002407975 -5.941659e-25)
(0.03139868 -0.00225035 -1.822927e-22)
(0.03110109 -0.005632308 2.349402e-23)
(0.0297566 -0.01039788 8.711358e-23)
(0.02837692 -0.01781579 -2.541283e-22)
(0.03193236 0.0004324111 8.501151e-23)
(0.03111565 0.000320709 6.598253e-23)
(0.02993187 -0.0004146731 -5.320206e-23)
(0.02927641 -0.002210341 -6.193431e-23)
(0.02881084 -0.006365331 3.531832e-24)
(0.02779794 -0.01191392 1.815313e-22)
(0.02587403 -0.01952133 8.628556e-23)
(0.02898159 0.0003135691 5.673825e-23)
(0.02839073 -4.619478e-05 -1.941251e-23)
(0.02712465 -0.0007868613 1.236908e-22)
(0.02626573 -0.002638661 7.771014e-23)
(0.02554322 -0.00668284 -4.68012e-23)
(0.02537224 -0.01275105 -3.760525e-23)
(0.0232804 -0.0210634 -1.127352e-22)
(0.02523573 2.573652e-05 -8.192411e-24)
(0.02496954 -0.0005820901 -3.911848e-23)
(0.02380596 -0.001171692 2.302589e-22)
(0.02261466 -0.003045988 -6.619393e-23)
(0.02172785 -0.006675557 -3.797994e-22)
(0.02158701 -0.01363587 1.06169e-22)
(0.02032432 -0.02227656 2.885185e-22)
(0.02075092 -0.0002235863 -1.113094e-23)
(0.02080761 -0.0009563332 -4.695706e-23)
(0.01972625 -0.001784842 -2.170869e-23)
(0.01840711 -0.003865975 1.239653e-22)
(0.01760679 -0.007093033 2.719444e-23)
(0.01747736 -0.01351832 -6.074777e-23)
(0.01689725 -0.02285453 1.167596e-22)
(0.01570483 -0.0003960882 -2.953052e-24)
(0.01582378 -0.001310444 1.451957e-23)
(0.014834 -0.002440731 -4.082978e-23)
(0.01397686 -0.004408633 -5.387774e-24)
(0.01347549 -0.007061577 -2.970937e-23)
(0.01355345 -0.0135166 1.383646e-23)
(0.01300279 -0.02326448 9.175557e-23)
(0.01004148 -0.0006196915 4.568919e-25)
(0.01019283 -0.001782667 2.882448e-23)
(0.009760368 -0.002633861 2.775018e-23)
(0.009498325 -0.004462673 -6.088012e-23)
(0.008974462 -0.00716003 -8.65806e-23)
(0.00899454 -0.01349819 -1.009212e-23)
(0.008931134 -0.0232063 5.161206e-23)
(0.004025127 -0.0005697424 -7.77081e-25)
(0.004213888 -0.001558723 -5.011335e-24)
(0.004274225 -0.002315184 -4.366993e-24)
(0.004229568 -0.004579786 5.164205e-24)
(0.003918833 -0.007357209 -1.366494e-24)
(0.003901182 -0.01342737 -1.681517e-23)
(0.004464576 -0.02288561 -7.300068e-23)
(-0.002030113 -0.0005922941 -2.744459e-24)
(-0.001969336 -0.001526816 7.369656e-24)
(-0.001741922 -0.002191126 -1.164735e-23)
(-0.001590636 -0.004463218 -6.23223e-23)
(-0.0015366 -0.007270244 -4.8421e-23)
(-0.001440665 -0.01331474 1.614609e-23)
(-0.0006111756 -0.02253243 1.853073e-23)
(-0.00811145 -0.0005080944 -1.862691e-23)
(-0.008091833 -0.001317105 1.403045e-24)
(-0.007675345 -0.001964602 -3.147176e-23)
(-0.007279913 -0.00428388 5.078989e-23)
(-0.006946747 -0.007107847 3.351652e-23)
(-0.006578284 -0.01314648 4.686333e-23)
(-0.005742557 -0.02214991 -9.595166e-23)
(-0.01388328 -0.0002856361 3.050731e-23)
(-0.01385388 -0.001053024 -5.48341e-24)
(-0.01321374 -0.001742806 -8.28678e-23)
(-0.01253428 -0.003891561 -3.225405e-23)
(-0.01191042 -0.006602063 2.38339e-23)
(-0.01158754 -0.01274525 4.307456e-23)
(-0.01056923 -0.02179942 -4.751825e-23)
(-0.01931269 -5.613628e-05 6.397426e-23)
(-0.01920575 -0.0006611547 -9.355544e-23)
(-0.01836793 -0.001266775 -7.03386e-23)
(-0.01762028 -0.003291019 -4.88293e-23)
(-0.01669983 -0.006342998 6.58835e-23)
(-0.01640005 -0.01238615 -6.043652e-23)
(-0.01531442 -0.02125574 -3.415857e-22)
(-0.0241956 0.0001724596 -3.798048e-23)
(-0.02387597 -0.0003019679 -5.252334e-23)
(-0.02303544 -0.000911262 -1.741741e-22)
(-0.02233832 -0.002610188 -3.416908e-22)
(-0.02158411 -0.005735216 -1.131377e-22)
(-0.02110206 -0.0120518 1.107127e-22)
(-0.02005451 -0.02053918 -1.080715e-22)
(-0.0281759 0.0003548855 -1.655255e-22)
(-0.02756243 0.0001464344 -6.550201e-23)
(-0.02648044 -0.0007092709 -1.300912e-22)
(-0.02587729 -0.002431311 -1.367814e-23)
(-0.02552747 -0.005577343 8.721976e-23)
(-0.02526187 -0.01152568 -3.242211e-23)
(-0.02385616 -0.0195462 1.739574e-23)
(-0.03123838 0.0004492943 -1.653073e-22)
(-0.03035941 0.0007408644 -6.772596e-23)
(-0.02920582 -0.0002730759 8.446311e-23)
(-0.02862584 -0.002295348 2.97482e-22)
(-0.02828551 -0.005668117 -5.64451e-24)
(-0.02828557 -0.01106696 -3.649293e-22)
(-0.02664533 -0.01823214 -8.745453e-23)
(-0.0335793 0.0005419793 1.358591e-22)
(-0.0325291 0.001147622 -7.134293e-23)
(-0.03150025 0.000102029 -1.515126e-23)
(-0.0309129 -0.00208812 1.934719e-22)
(-0.03068781 -0.005789904 -5.583551e-23)
(-0.03050172 -0.01064261 1.380073e-23)
(-0.02912242 -0.01721894 6.788776e-23)
(-0.03455245 0.0005338067 1.334526e-22)
(-0.03402651 0.001354798 -2.695311e-23)
(-0.03328278 0.0004155378 6.720983e-23)
(-0.03280797 -0.002069683 1.815049e-22)
(-0.03266024 -0.005942041 1.208458e-22)
(-0.03202032 -0.01040901 2.1203e-22)
(-0.031831 -0.01633575 4.922794e-23)
(-0.0336402 0.0005311844 -3.413386e-24)
(-0.03443609 0.001332989 4.864659e-24)
(-0.03457419 0.0004125061 1.397644e-22)
(-0.03428951 -0.002158935 -2.013508e-22)
(-0.03413178 -0.005678577 2.168978e-22)
(-0.03355242 -0.01075392 9.29716e-23)
(-0.03336488 -0.01672269 -8.55607e-23)
(-0.03180065 0.0005583173 0)
(-0.03307323 0.0008827039 -5.954991e-24)
(-0.03465843 0.0001369565 9.849448e-23)
(-0.03523946 -0.002247348 4.22127e-23)
(-0.03506667 -0.005868451 1.108806e-23)
(-0.03469837 -0.01066853 -5.372432e-23)
(-0.03327577 -0.01677002 -1.952486e-22)
(-0.03046485 1.991651e-05 0)
(-0.0312113 5.696072e-05 4.224749e-26)
(-0.03266504 -0.0006479741 -6.721212e-24)
(-0.03449532 -0.002495799 6.847753e-23)
(-0.03518193 -0.005828134 -7.102495e-23)
(-0.03485428 -0.01012867 1.111248e-22)
(-0.03359997 -0.01570149 -1.536257e-22)
(-0.02880757 -0.0004381238 -2.841668e-24)
(-0.02932264 -0.001110337 0)
(-0.03048887 -0.001776846 0)
(-0.03185445 -0.003281355 -4.189463e-23)
(-0.03327497 -0.005912452 -1.252812e-22)
(-0.03405722 -0.009717441 1.892739e-22)
(-0.0335358 -0.01476405 -1.659324e-22)
(-0.02715826 -0.0006093518 -2.671632e-24)
(-0.02736404 -0.00181949 -1.824307e-26)
(-0.02811335 -0.003016163 -3.044411e-26)
(-0.02923494 -0.004386993 -2.320902e-25)
(-0.03054851 -0.006345629 -1.176967e-22)
(-0.03143056 -0.009531198 1.774793e-22)
(-0.03161843 -0.01373494 -3.489016e-22)
(-0.02550333 -0.0007051898 0)
(-0.0256084 -0.002149731 2.503817e-24)
(-0.02593666 -0.003690783 0)
(-0.02656071 -0.005294752 -1.144076e-25)
(-0.02737101 -0.007224122 -1.565874e-25)
(-0.02821979 -0.009741754 5.17136e-23)
(-0.02861969 -0.01310338 -2.925985e-22)
(-0.02381098 -0.0007584642 0)
(-0.0238335 -0.002329103 -2.313575e-24)
(-0.02400557 -0.003954718 2.3275e-24)
(-0.02421239 -0.005775246 0)
(-0.02450108 -0.00779051 -3.450664e-25)
(-0.02489103 -0.01006198 1.455664e-24)
(-0.02499231 -0.01292077 -4.102552e-23)
(-0.02205657 -0.0007943734 0)
(-0.02204551 -0.002394949 -6.433621e-24)
(-0.02207109 -0.004099464 -2.776491e-27)
(-0.02208649 -0.005933406 -4.501928e-24)
(-0.02211013 -0.007897664 -3.635899e-25)
(-0.02200934 -0.01014997 2.08292e-24)
(-0.02161346 -0.01276645 -2.097138e-24)
(-0.02029223 -0.0007989152 1.989606e-24)
(-0.02022814 -0.002423182 -1.995755e-24)
(-0.02016717 -0.004105045 5.510155e-28)
(-0.02006748 -0.00587858 -3.766411e-24)
(-0.01987808 -0.007779446 0)
(-0.0195343 -0.009837838 0)
(-0.01897676 -0.0121066 -2.811268e-24)
(-0.01854122 -0.0007879376 1.811859e-24)
(-0.01844221 -0.002386252 -1.807639e-24)
(-0.01831479 -0.004024997 1.767782e-24)
(-0.01812408 -0.005709209 1.737625e-24)
(-0.01779272 -0.007517011 0)
(-0.01726489 -0.009467025 0)
(-0.01664712 -0.01137962 -1.952763e-24)
(-0.0168375 -0.0007614188 -1.649345e-24)
(-0.01671772 -0.002303194 -1.676038e-24)
(-0.01655173 -0.003852989 -4.5158e-26)
(-0.01627486 -0.005460669 1.49217e-24)
(-0.01584491 -0.007138005 4.711857e-25)
(-0.0152906 -0.008821442 -2.2212e-24)
(-0.01448823 -0.01062796 1.079298e-24)
(-0.01521272 -0.0007218488 -1.493395e-24)
(-0.01508787 -0.002178027 -1.314333e-26)
(-0.01488499 -0.003645052 4.347584e-26)
(-0.01456075 -0.005138495 6.182088e-26)
(-0.01408765 -0.006677212 0)
(-0.01348636 -0.008202974 -1.4154e-24)
(-0.01266228 -0.009781204 1.173223e-24)
(-0.01368507 -0.0006781601 0)
(-0.01355969 -0.00203635 -2.421047e-26)
(-0.01333522 -0.003407087 -4.104925e-26)
(-0.01296618 -0.004807225 2.850013e-24)
(-0.01251955 -0.006145963 5.450816e-25)
(-0.01186607 -0.007554496 2.031642e-24)
(-0.01108492 -0.008917639 8.081379e-25)
(-0.01226991 -0.0006265404 -3.675112e-27)
(-0.01214209 -0.001884967 -1.140491e-26)
(-0.01191115 -0.003140401 0)
(-0.01155959 -0.004401589 -3.141742e-27)
(-0.01106604 -0.005659999 1.042452e-24)
(-0.01045697 -0.006888541 9.755207e-25)
(-0.009713553 -0.008076802 -1.952137e-25)
(-0.01096835 -0.0005756875 1.071107e-24)
(-0.01084126 -0.001733341 -1.075984e-24)
(-0.01060114 -0.002895618 1.862037e-24)
(-0.01028167 -0.004011403 -2.15768e-24)
(-0.009795116 -0.005148956 8.592216e-25)
(-0.009220886 -0.006234784 0)
(-0.00852037 -0.007275082 1.759943e-25)
(-0.00977932 -0.0005258866 9.591602e-25)
(-0.009648519 -0.00158861 -9.244578e-25)
(-0.009440923 -0.002618375 8.942502e-25)
(-0.009106125 -0.003656375 0)
(-0.00866792 -0.00465844 -8.174693e-25)
(-0.008131737 -0.005617833 0)
(-0.007482363 -0.006529747 6.927561e-25)
(-0.008701956 -0.0004754782 0)
(-0.008588491 -0.001432782 0)
(-0.00837783 -0.002380575 -1.604663e-24)
(-0.008069969 -0.003304245 0)
(-0.007668388 -0.004194207 -1.445812e-24)
(-0.007171289 -0.005045536 -6.706625e-25)
(-0.006570041 -0.005854548 6.073451e-25)
(-0.00772762 -0.0004332549 -7.546166e-25)
(-0.007630586 -0.00129042 0)
(-0.007432148 -0.002144355 -6.98693e-25)
(-0.007150038 -0.00296999 6.980947e-25)
(-0.00678121 -0.003762286 -6.391092e-25)
(-0.00632519 -0.004513997 -1.182738e-24)
(-0.005773462 -0.005216871 -5.337019e-25)
(-0.006859644 -0.0003882584 -6.684463e-25)
(-0.006764097 -0.00116456 -6.502726e-25)
(-0.006587427 -0.001925768 0)
(-0.006330701 -0.002662225 6.339519e-25)
(-0.005995418 -0.003366485 4.088701e-26)
(-0.005583307 -0.004028927 -1.09341e-24)
(-0.005088221 -0.00463761 -1.685741e-25)
(-0.006080091 -0.0003485338 -5.934926e-25)
(-0.005993142 -0.001043766 -5.789882e-25)
(-0.005834179 -0.001724012 5.593663e-25)
(-0.005601353 -0.002381673 0)
(-0.005298092 -0.003009798 0)
(-0.004925433 -0.003603926 -4.605861e-25)
(-0.004469707 -0.004168838 7.950031e-25)
(-0.005383348 -0.0003116507 -5.25257e-25)
(-0.005305398 -0.000933251 -5.128057e-25)
(-0.00516256 -0.001540278 4.946808e-25)
(-0.004952313 -0.00212648 0)
(-0.004678372 -0.002684868 3.258663e-26)
(-0.004340944 -0.003209247 5.584446e-29)
(-0.003929357 -0.003697256 -4.493184e-26)
(-0.004761813 -0.0002781145 0)
(-0.004692834 -0.000832631 -4.533559e-25)
(-0.004564684 -0.001373706 4.376873e-25)
(-0.004375624 -0.001895493 0)
(-0.004129206 -0.002391373 -4.19175e-25)
(-0.003825953 -0.00285575 -6.941859e-26)
(-0.00345861 -0.003285612 -3.994989e-26)
(-0.004208465 -0.000247787 4.105023e-25)
(-0.004147739 -0.0007417511 -2.250564e-27)
(-0.004033161 -0.001223437 3.827483e-25)
(-0.003863888 -0.001687278 -1.025306e-26)
(-0.003643167 -0.002126968 -1.262627e-26)
(-0.003370416 -0.00253826 -3.150124e-25)
(-0.003044371 -0.00291624 0)
(-0.003716479 -0.0002205005 7.246963e-25)
(-0.00366317 -0.0006600297 0)
(-0.003561031 -0.001088504 0)
(-0.003409857 -0.001500953 3.337171e-25)
(-0.003211826 -0.001892759 6.179954e-25)
(-0.002960816 -0.002263962 -2.763719e-25)
(-0.002678483 -0.002585233 0)
(-0.003279498 -0.0001960329 3.195766e-25)
(-0.00323279 -0.0005867521 -1.783069e-27)
(-0.003141964 -0.0009674996 -2.951852e-27)
(-0.003007218 -0.001333559 -8.317257e-27)
(-0.002830304 -0.001679877 2.567287e-25)
(-0.002608002 -0.00200435 0)
(-0.002349065 -0.00229978 -2.167377e-25)
(-0.002891658 -0.0001741601 -2.635543e-28)
(-0.002850828 -0.0005212503 -2.77592e-25)
(-0.00277028 -0.0008593856 -2.68065e-25)
(-0.002650543 -0.001184278 -5.04255e-25)
(-0.002493274 -0.00149154 0)
(-0.00229687 -0.001779521 -2.107525e-25)
(-0.002065005 -0.002041589 2.672429e-28)
(-0.002547612 -0.0001546517 -2.477829e-25)
(-0.002511999 -0.0004628469 -4.853619e-25)
(-0.002440755 -0.0007629935 -4.697349e-25)
(-0.00233457 -0.00105117 -2.28314e-25)
(-0.002194229 -0.001323984 -8.074404e-27)
(-0.002020792 -0.001578872 -1.851281e-25)
(-0.001815066 -0.001811073 1.781941e-25)
(-0.002242504 -0.0001373 -2.181183e-25)
(-0.002211501 -0.0004108998 -4.264033e-25)
(-0.00214855 -0.0006774345 -2.055522e-25)
(-0.002054057 -0.0009338921 0)
(-0.001925622 -0.001179356 -5.474255e-26)
(-0.001776031 -0.001399345 -8.274627e-26)
(-0.00159403 -0.001606142 -1.955595e-26)
(-0.001971966 -0.0001218508 -1.91853e-25)
(-0.001945046 -0.000364636 -1.867835e-25)
(-0.001889459 -0.0006010746 5.500315e-27)
(-0.001805648 -0.0008281285 5.056613e-27)
(-0.001692756 -0.001044107 0)
(-0.001555459 -0.001244478 -1.447897e-25)
(-0.001398225 -0.001424901 8.693926e-27)
(-0.001732074 -0.0001081019 -1.683216e-25)
(-0.001708828 -0.000323498 -1.639878e-25)
(-0.001659857 -0.0005332966 3.255338e-27)
(-0.001585814 -0.0007347844 2.243588e-27)
(-0.001486399 -0.0009265906 0)
(-0.001363759 -0.001104471 -1.199306e-25)
(-0.001225356 -0.001263787 1.542541e-26)
(-0.001519412 -9.582944e-05 1.455662e-28)
(-0.001499493 -0.0002869154 -2.878575e-25)
(-0.001456344 -0.0004731776 1.442688e-27)
(-0.001390898 -0.0006520941 1.991093e-27)
(-0.001303194 -0.0008223737 0)
(-0.00119469 -0.000980086 0)
(-0.00107245 -0.001121181 0)
(-0.001331358 -8.498941e-05 0)
(-0.001313861 -0.0002545489 -1.261212e-25)
(-0.001275805 -0.0004199468 0)
(-0.001217713 -0.0005790618 1.116122e-25)
(-0.001140682 -0.0007301492 -4.445918e-27)
(-0.001044976 -0.0008701518 -5.309801e-27)
(-0.0009371127 -0.0009952797 7.982686e-26)
(-0.001164582 -7.542689e-05 -1.126323e-25)
(-0.001148981 -0.0002261139 0)
(-0.001115276 -0.0003734792 2.26975e-27)
(-0.001062373 -0.0005163964 7.925183e-26)
(-0.0009964722 -0.0006483825 -1.236807e-25)
(-0.0009121631 -0.0007732023 0)
(-0.0008171797 -0.0008844392 7.462514e-26)
(-0.001016389 -6.694445e-05 -9.812061e-26)
(-0.001002444 -0.000200967 0)
(-0.0009727244 -0.0003320757 1.011931e-27)
(-0.0009266519 -0.0004587244 1.399468e-27)
(-0.0008664874 -0.0005783747 -1.614187e-25)
(-0.0007940543 -0.0006883033 7.328672e-26)
(-0.0007107292 -0.0007871848 -6.475751e-26)
(-0.000884327 -5.937455e-05 0)
(-0.0008722517 -0.0001788117 -8.275781e-26)
(-0.0008460272 -0.0002958872 9.027656e-28)
(-0.0008056174 -0.000408836 7.516195e-26)
(-0.0007522666 -0.0005156682 -6.986614e-26)
(-0.000689053 -0.0006135996 6.333433e-26)
(-0.0006159697 -0.0007019421 5.75152e-29)
(-0.000766614 -5.305955e-05 0)
(-0.000756252 -0.0001596058 -7.203495e-26)
(-0.0007331234 -0.000264 6.928051e-26)
(-0.0006974585 -0.0003649851 6.59477e-26)
(-0.0006506197 -0.0004605742 -5.88652e-26)
(-0.0005953104 -0.0005482101 3.336515e-27)
(-0.0005313328 -0.0006273768 4.793702e-26)
(-0.0006617253 -4.752505e-05 0)
(-0.0006523849 -0.000142899 0)
(-0.0006319525 -0.0002361021 5.951497e-26)
(-0.0006008648 -0.0003265644 -5.569824e-26)
(-0.000559806 -0.0004124798 3.560884e-29)
(-0.0005114258 -0.0004911377 0)
(-0.0004555396 -0.0005622725 0)
(-0.0005679101 -4.262233e-05 -5.429351e-26)
(-0.0005592654 -0.0001282074 5.295816e-26)
(-0.0005411582 -0.0002120832 2.475425e-26)
(-0.0005141463 -0.0002933839 -4.831696e-26)
(-0.0004783871 -0.0003704871 -3.068855e-29)
(-0.000436197 -0.0004414324 2.678548e-27)
(-0.0003875226 -0.0005055988 7.52303e-31)
(-0.0004835871 -3.841361e-05 4.801267e-30)
(-0.000475522 -0.0001155904 4.483976e-26)
(-0.00045958 -0.0001912493 2.08887e-26)
(-0.0004358878 -0.000264728 -8.023335e-28)
(-0.0004049388 -0.0003343218 -7.492837e-26)
(-0.0003685526 -0.0003984012 -1.206565e-27)
(-0.0003263124 -0.0004565277 0)
(-0.0004069886 -3.489209e-05 3.859236e-26)
(-0.00039983 -0.0001047294 -1.87675e-26)
(-0.0003857131 -0.0001733433 -1.792499e-26)
(-0.0003652049 -0.0002400237 0)
(-0.0003384469 -0.0003033927 -3.064972e-26)
(-0.0003072063 -0.000361556 -1.091888e-27)
(-0.0002711467 -0.0004144201 -1.251195e-27)
(-0.0003371786 -3.176138e-05 0)
(-0.0003310381 -9.529354e-05 -1.544503e-26)
(-0.000318042 -0.000158407 -1.096851e-26)
(-0.000300924 -0.0002189058 5.174466e-27)
(-0.0002778861 -0.000277025 -1.331363e-26)
(-0.0002512763 -0.0003304853 -9.953406e-28)
(-0.0002206432 -0.0003787885 0)
(-0.0002736991 -2.888256e-05 0)
(-0.0002676936 -8.700431e-05 -1.300453e-28)
(-0.0002566044 -0.0001450433 2.161461e-28)
(-0.0002412419 -0.0002016464 -1.087557e-26)