/*--------------------------------*- C++ -*----------------------------------*\
| =========                 |                                                 |
| \\      /  F ield         | OpenFOAM: The Open Source CFD Toolbox           |
|  \\    /   O peration     | Version:  2206                                  |
|   \\  /    A nd           | Website:  www.openfoam.com                      |
|    \\/     M anipulation  |                                                 |
\*---------------------------------------------------------------------------*/
FoamFile
{
    version     2.0;
    format      ascii;
    arch        "LSB;label=32;scalar=64";
    class       volScalarField;
    location    "1.6";
    object      ddt0(k.b);
}
// * * * * * * * * * * * * * * * * * * * * * * * * * * * * * * * * * * * * * //

dimensions      [0 2 -3 0 0 0 0];

internalField   nonuniform List<scalar> 
13078
(
1.722309e-13
-2.404857e-10
-2.46638e-10
-2.479403e-10
-2.497278e-10
-2.517535e-10
-2.541004e-10
-8.121433e-14
-2.260493e-10
-2.462893e-10
-2.478842e-10
-2.49674e-10
-2.517086e-10
-2.540513e-10
1.08944e-13
-2.256941e-10
-2.462068e-10
-2.477951e-10
-2.496111e-10
-2.516553e-10
-2.539977e-10
1.130504e-13
-2.25802e-10
-2.461594e-10
-2.47731e-10
-2.49553e-10
-2.516017e-10
-2.539427e-10
1.480112e-13
-2.258288e-10
-2.461365e-10
-2.477079e-10
-2.495046e-10
-2.515505e-10
-2.538887e-10
1.602793e-13
-2.258387e-10
-2.461263e-10
-2.47695e-10
-2.494898e-10
-2.515054e-10
-2.538361e-10
1.364332e-13
-2.258207e-10
-2.461174e-10
-2.476801e-10
-2.494797e-10
-2.514933e-10
-2.537885e-10
9.64289e-14
-2.257869e-10
-2.461086e-10
-2.4767e-10
-2.494729e-10
-2.514853e-10
-2.537769e-10
5.090281e-14
-2.257573e-10
-2.461061e-10
-2.476665e-10
-2.494681e-10
-2.514786e-10
-2.537686e-10
8.116294e-15
-2.257185e-10
-2.461041e-10
-2.476638e-10
-2.49464e-10
-2.514727e-10
-2.537611e-10
-2.732685e-14
-2.256737e-10
-2.461018e-10
-2.476613e-10
-2.4946e-10
-2.514672e-10
-2.537537e-10
-5.58831e-14
-2.256238e-10
-2.460989e-10
-2.476587e-10
-2.494561e-10
-2.514617e-10
-2.537466e-10
-7.862082e-14
-2.255701e-10
-2.460957e-10
-2.476558e-10
-2.494524e-10
-2.514563e-10
-2.537393e-10
-9.643886e-14
-2.255123e-10
-2.460918e-10
-2.47652e-10
-2.494474e-10
-2.514505e-10
-2.537316e-10
-1.10025e-13
-2.25451e-10
-2.460873e-10
-2.476395e-10
-2.494289e-10
-2.514431e-10
-2.537239e-10
-1.198999e-13
-2.253864e-10
-2.460819e-10
-2.476235e-10
-2.494134e-10
-2.51436e-10
-2.537156e-10
-1.264203e-13
-2.253193e-10
-2.460768e-10
-2.476182e-10
-2.494072e-10
-2.514293e-10
-2.537071e-10
-1.299083e-13
-2.252492e-10
-2.460712e-10
-2.476133e-10
-2.494012e-10
-2.514223e-10
-2.536982e-10
-1.306503e-13
-2.25176e-10
-2.460649e-10
-2.476083e-10
-2.493943e-10
-2.514133e-10
-2.536887e-10
-1.290345e-13
-2.251002e-10
-2.460579e-10
-2.476018e-10
-2.493733e-10
-2.513834e-10
-2.536767e-10
-1.256864e-13
-2.250219e-10
-2.460504e-10
-2.475947e-10
-2.493471e-10
-2.51358e-10
-2.536644e-10
-1.216627e-13
-2.249412e-10
-2.460424e-10
-2.475883e-10
-2.493373e-10
-2.513472e-10
-2.53653e-10
-1.18768e-13
-2.248583e-10
-2.460334e-10
-2.475812e-10
-2.493282e-10
-2.513348e-10
-2.536386e-10
-1.200414e-13
-2.247739e-10
-2.460238e-10
-2.475736e-10
-2.493169e-10
-2.513026e-10
-2.535926e-10
-1.304904e-13
-2.246881e-10
-2.460136e-10
-2.475653e-10
-2.493045e-10
-2.512625e-10
-2.53553e-10
-1.582209e-13
-2.246017e-10
-2.460022e-10
-2.475561e-10
-2.492925e-10
-2.512452e-10
-2.535338e-10
-2.162738e-13
-2.245172e-10
-2.459901e-10
-2.47546e-10
-2.492794e-10
-2.512284e-10
-2.535123e-10
-3.265353e-13
-2.244197e-10
-2.45977e-10
-2.47535e-10
-2.492648e-10
-2.512085e-10
-2.534611e-10
-5.192142e-13
-2.243466e-10
-2.459632e-10
-2.475228e-10
-2.492485e-10
-2.511858e-10
-2.533975e-10
-8.761978e-13
-2.240409e-10
-2.459458e-10
-2.475092e-10
-2.492306e-10
-2.511632e-10
-2.53366e-10
-1.410033e-12
-2.237598e-10
-2.459313e-10
-2.474942e-10
-2.492107e-10
-2.511378e-10
-2.533321e-10
-2.250915e-12
-2.232448e-10
-2.45917e-10
-2.474755e-10
-2.491889e-10
-2.511095e-10
-2.532936e-10
-3.5387e-12
-2.225757e-10
-2.458706e-10
-2.474372e-10
-2.491629e-10
-2.510781e-10
-2.532545e-10
-5.518913e-12
-2.22413e-10
-2.458394e-10
-2.474025e-10
-2.491334e-10
-2.510435e-10
-2.532114e-10
-8.477703e-12
-2.222362e-10
-2.458219e-10
-2.473633e-10
-2.490697e-10
-2.510009e-10
-2.531644e-10
-1.269368e-11
-2.220255e-10
-2.45805e-10
-2.473176e-10
-2.48996e-10
-2.509129e-10
-2.531102e-10
-1.849837e-11
-2.217792e-10
-2.457903e-10
-2.47283e-10
-2.489302e-10
-2.508323e-10
-2.530485e-10
-2.61804e-11
-2.214904e-10
-2.457756e-10
-2.472501e-10
-2.488838e-10
-2.507476e-10
-2.529191e-10
-3.592491e-11
-2.211398e-10
-2.457586e-10
-2.472102e-10
-2.48825e-10
-2.50642e-10
-2.527762e-10
-4.802663e-11
-2.203281e-10
-2.45723e-10
-2.471346e-10
-2.487092e-10
-2.504883e-10
-2.525689e-10
-6.192955e-11
-2.190428e-10
-2.456176e-10
-2.469548e-10
-2.484719e-10
-2.502419e-10
-2.52406e-10
-7.432866e-11
-2.175138e-10
-2.453142e-10
-2.465689e-10
-2.481601e-10
-2.502012e-10
-2.530194e-10
-8.200911e-11
-2.164236e-10
-2.449088e-10
-2.462037e-10
-2.481441e-10
-2.510607e-10
-2.546033e-10
-7.864221e-11
-2.151455e-10
-2.446734e-10
-2.46326e-10
-2.490167e-10
-2.524183e-10
-2.562105e-10
-5.526716e-11
-2.138602e-10
-2.45084e-10
-2.471682e-10
-2.502479e-10
-2.535955e-10
-2.572534e-10
-8.777774e-12
-2.132874e-10
-2.462207e-10
-2.480938e-10
-2.510378e-10
-2.540994e-10
-2.576711e-10
4.99949e-11
-2.139396e-10
-2.475607e-10
-2.485982e-10
-2.511852e-10
-2.541207e-10
-2.573828e-10
1.028475e-10
-2.162483e-10
-2.485754e-10
-2.486815e-10
-2.510474e-10
-2.536568e-10
-2.57044e-10
1.335373e-10
-2.18815e-10
-2.492208e-10
-2.485543e-10
-2.507613e-10
-2.534379e-10
-2.56568e-10
1.390646e-10
-2.210737e-10
-2.496478e-10
-2.484225e-10
-2.505155e-10
-2.529117e-10
-2.556749e-10
1.247894e-10
-2.223247e-10
-2.500224e-10
-2.482968e-10
-2.502398e-10
-2.523725e-10
-2.547676e-10
9.760965e-11
-2.224275e-10
-2.503144e-10
-2.483357e-10
-2.501299e-10
-2.520909e-10
-2.542946e-10
6.322808e-11
-2.232078e-10
-2.506613e-10
-2.480866e-10
-2.499193e-10
-2.520289e-10
-2.538037e-10
3.014664e-11
-2.232643e-10
-2.50548e-10
-2.477945e-10
-2.49707e-10
-2.517822e-10
-2.534487e-10
2.689105e-12
-2.231153e-10
-2.504915e-10
-2.476336e-10
-2.495921e-10
-2.516505e-10
-2.53398e-10
-1.052245e-11
-2.231416e-10
-2.504727e-10
-2.47501e-10
-2.49435e-10
-2.514699e-10
-2.532179e-10
1.340306e-11
-2.224885e-10
-2.501472e-10
-2.471936e-10
-2.490912e-10
-2.510854e-10
-2.527901e-10
4.468395e-11
-2.215614e-10
-2.499117e-10
-2.471486e-10
-2.490143e-10
-2.509528e-10
-2.525775e-10
7.386343e-11
-2.208904e-10
-2.497574e-10
-2.471558e-10
-2.489055e-10
-2.507667e-10
-2.521771e-10
1.004331e-10
-2.197713e-10
-2.494396e-10
-2.470255e-10
-2.485862e-10
-2.503703e-10
-2.519541e-10
1.236661e-10
-2.180779e-10
-2.486692e-10
-2.468124e-10
-2.484231e-10
-2.502163e-10
-2.521975e-10
1.417533e-10
-2.175273e-10
-2.485068e-10
-2.471159e-10
-2.487076e-10
-2.504186e-10
-2.523468e-10
1.5181e-10
-2.158923e-10
-2.480143e-10
-2.46987e-10
-2.486199e-10
-2.50472e-10
-2.526445e-10
1.38043e-10
-2.133795e-10
-2.474464e-10
-2.469801e-10
-2.486455e-10
-2.506792e-10
-2.533803e-10
9.586029e-11
-2.110461e-10
-2.467685e-10
-2.470824e-10
-2.489909e-10
-2.511617e-10
-2.538758e-10
3.429749e-11
-2.095974e-10
-2.458776e-10
-2.471862e-10
-2.492887e-10
-2.515144e-10
-2.540167e-10
-2.6123e-11
-2.102329e-10
-2.448583e-10
-2.468129e-10
-2.49195e-10
-2.516062e-10
-2.544976e-10
-7.407556e-11
-2.119397e-10
-2.441679e-10
-2.461395e-10
-2.486072e-10
-2.513832e-10
-2.544011e-10
-1.005435e-10
-2.13967e-10
-2.441779e-10
-2.457337e-10
-2.478767e-10
-2.505582e-10
-2.536354e-10
-1.105058e-10
-2.156025e-10
-2.446467e-10
-2.459296e-10
-2.475769e-10
-2.498341e-10
-2.525826e-10
-1.09257e-10
-2.169005e-10
-2.451485e-10
-2.464347e-10
-2.479233e-10
-2.497392e-10
-2.520115e-10
-1.009996e-10
-2.183958e-10
-2.45486e-10
-2.468712e-10
-2.483579e-10
-2.500894e-10
-2.521572e-10
-8.823885e-11
-2.196215e-10
-2.456295e-10
-2.47081e-10
-2.486483e-10
-2.504248e-10
-2.524891e-10
-7.487494e-11
-2.205193e-10
-2.456925e-10
-2.471734e-10
-2.487941e-10
-2.506048e-10
-2.527351e-10
-6.22545e-11
-2.21036e-10
-2.457346e-10
-2.472249e-10
-2.488644e-10
-2.507238e-10
-2.528946e-10
-5.06878e-11
-2.215977e-10
-2.457742e-10
-2.472706e-10
-2.489291e-10
-2.508289e-10
-2.530371e-10
-4.058323e-11
-2.220379e-10
-2.458035e-10
-2.473085e-10
-2.489958e-10
-2.50928e-10
-2.531053e-10
-3.200252e-11
-2.223513e-10
-2.458298e-10
-2.473571e-10
-2.490659e-10
-2.509981e-10
-2.531622e-10
-2.506561e-11
-2.226346e-10
-2.458549e-10
-2.47399e-10
-2.491305e-10
-2.510419e-10
-2.532124e-10
-1.956556e-11
-2.228161e-10
-2.458897e-10
-2.474354e-10
-2.491615e-10
-2.510786e-10
-2.532575e-10
-1.522136e-11
-2.23494e-10
-2.459365e-10
-2.47475e-10
-2.491888e-10
-2.511111e-10
-2.532979e-10
-1.184235e-11
-2.240075e-10
-2.459537e-10
-2.474943e-10
-2.492115e-10
-2.511402e-10
-2.533368e-10
-9.157595e-12
-2.242624e-10
-2.459679e-10
-2.475099e-10
-2.492318e-10
-2.51166e-10
-2.533707e-10
-7.112656e-12
-2.245721e-10
-2.459847e-10
-2.475238e-10
-2.492501e-10
-2.511887e-10
-2.534021e-10
-5.606265e-12
-2.246304e-10
-2.459974e-10
-2.47536e-10
-2.492664e-10
-2.512113e-10
-2.534651e-10
-4.446473e-12
-2.24713e-10
-2.46009e-10
-2.475472e-10
-2.492809e-10
-2.512309e-10
-2.535164e-10
-3.549173e-12
-2.247812e-10
-2.460196e-10
-2.475573e-10
-2.492939e-10
-2.512476e-10
-2.535376e-10
-2.848358e-12
-2.248516e-10
-2.460295e-10
-2.475664e-10
-2.493059e-10
-2.512649e-10
-2.535566e-10
-2.296993e-12
-2.249219e-10
-2.460382e-10
-2.475745e-10
-2.493182e-10
-2.513046e-10
-2.535956e-10
-1.859745e-12
-2.249916e-10
-2.460464e-10
-2.475821e-10
-2.493294e-10
-2.513367e-10
-2.536415e-10
-1.509885e-12
-2.25061e-10
-2.46054e-10
-2.475892e-10
-2.493384e-10
-2.513489e-10
-2.536555e-10
-1.227272e-12
-2.251291e-10
-2.460607e-10
-2.475956e-10
-2.493483e-10
-2.513597e-10
-2.536668e-10
-9.966755e-13
-2.251962e-10
-2.460671e-10
-2.476026e-10
-2.493742e-10
-2.513849e-10
-2.53679e-10
-8.065697e-13
-2.252617e-10
-2.460731e-10
-2.47609e-10
-2.493952e-10
-2.514148e-10
-2.536908e-10
-6.482031e-13
-2.253257e-10
-2.460785e-10
-2.476139e-10
-2.49402e-10
-2.514236e-10
-2.537e-10
-5.153883e-13
-2.253877e-10
-2.460833e-10
-2.476188e-10
-2.49408e-10
-2.514303e-10
-2.537087e-10
-4.056419e-13
-2.254477e-10
-2.460877e-10
-2.476241e-10
-2.494141e-10
-2.51437e-10
-2.537171e-10
-3.130424e-13
-2.255061e-10
-2.460925e-10
-2.4764e-10
-2.494295e-10
-2.51444e-10
-2.537252e-10
-2.317761e-13
-2.255619e-10
-2.460966e-10
-2.476526e-10
-2.49448e-10
-2.514513e-10
-2.537327e-10
-1.587925e-13
-2.256151e-10
-2.460999e-10
-2.476564e-10
-2.494529e-10
-2.51457e-10
-2.537402e-10
-9.171155e-14
-2.256651e-10
-2.461028e-10
-2.476593e-10
-2.494567e-10
-2.514621e-10
-2.537471e-10
-2.842929e-14
-2.257124e-10
-2.461053e-10
-2.476619e-10
-2.494603e-10
-2.514673e-10
-2.537538e-10
3.24903e-14
-2.25756e-10
-2.461074e-10
-2.476644e-10
-2.49464e-10
-2.514724e-10
-2.537607e-10
8.973744e-14
-2.257953e-10
-2.461092e-10
-2.476668e-10
-2.494675e-10
-2.514776e-10
-2.537676e-10
1.383196e-13
-2.258273e-10
-2.461111e-10
-2.476696e-10
-2.494713e-10
-2.514833e-10
-2.53775e-10
1.731535e-13
-2.258666e-10
-2.461187e-10
-2.476782e-10
-2.494765e-10
-2.514897e-10
-2.537853e-10
1.844537e-13
-2.258936e-10
-2.46125e-10
-2.476901e-10
-2.494837e-10
-2.514996e-10
-2.538314e-10
1.581682e-13
-2.258956e-10
-2.46129e-10
-2.476972e-10
-2.49494e-10
-2.515418e-10
-2.538822e-10
9.843115e-14
-2.258847e-10
-2.461385e-10
-2.477104e-10
-2.49536e-10
-2.515895e-10
-2.539346e-10
4.826694e-14
-2.258291e-10
-2.461598e-10
-2.477584e-10
-2.495866e-10
-2.516403e-10
-2.539887e-10
3.684517e-14
-2.258974e-10
-2.462338e-10
-2.478243e-10
-2.496446e-10
-2.516938e-10
-2.540437e-10
-1.218249e-13
-2.274407e-10
-2.463185e-10
-2.479238e-10
-2.497133e-10
-2.5175e-10
-2.540991e-10
-2.568814e-10
-2.6041e-10
-2.651768e-10
-2.697894e-10
-2.781328e-10
-2.900443e-10
-4.588825e-10
-2.568233e-10
-2.603334e-10
-2.650745e-10
-2.696649e-10
-2.77978e-10
-2.91095e-10
-1.088715e-10
-2.567628e-10
-2.602571e-10
-2.649759e-10
-2.712715e-10
-2.778348e-10
-2.90873e-10
-1.069804e-10
-2.567017e-10
-2.601804e-10
-2.648728e-10
-2.694154e-10
-2.776717e-10
-2.906519e-10
-1.07888e-10
-2.566421e-10
-2.601037e-10
-2.647731e-10
-2.69288e-10
-2.775179e-10
-2.904315e-10
-1.093499e-10
-2.565829e-10
-2.60027e-10
-2.646719e-10
-2.691634e-10
-2.773652e-10
-2.902123e-10
-1.111209e-10
-2.565248e-10
-2.599507e-10
-2.645712e-10
-2.690423e-10
-2.773214e-10
-2.899952e-10
-1.131478e-10
-2.564711e-10
-2.598749e-10
-2.64471e-10
-2.689235e-10
-2.772806e-10
-2.897804e-10
-1.154716e-10
-2.564579e-10
-2.598044e-10
-2.643754e-10
-2.688017e-10
-2.771582e-10
-2.895848e-10
-1.179291e-10
-2.56448e-10
-2.597864e-10
-2.642857e-10
-2.686802e-10
-2.770363e-10
-2.893893e-10
-1.217517e-10
-2.564385e-10
-2.597728e-10
-2.642615e-10
-2.68562e-10
-2.769143e-10
-2.891915e-10
-1.284328e-10
-2.564288e-10
-2.597587e-10
-2.642425e-10
-2.685346e-10
-2.767918e-10
-2.889943e-10
-2.270357e-10
-2.564189e-10
-2.597443e-10
-2.642228e-10
-2.685101e-10
-2.767679e-10
-2.888001e-10
-3.130918e-10
-2.564086e-10
-2.597296e-10
-2.642023e-10
-2.684845e-10
-2.767415e-10
-2.88745e-10
-3.49922e-10
-2.563981e-10
-2.597141e-10
-2.641809e-10
-2.684576e-10
-2.767136e-10
-2.887406e-10
-4.536825e-10
-2.563871e-10
-2.596979e-10
-2.641586e-10
-2.684296e-10
-2.766838e-10
-2.887234e-10
-4.713033e-10
-2.563756e-10
-2.596808e-10
-2.641354e-10
-2.683998e-10
-2.766418e-10
-2.887052e-10
-4.501826e-10
-2.563636e-10
-2.596635e-10
-2.641108e-10
-2.683565e-10
-2.762742e-10
-2.886823e-10
-4.395144e-10
-2.56351e-10
-2.596461e-10
-2.640855e-10
-2.68324e-10
-2.762229e-10
-2.886505e-10
-4.31914e-10
-2.563375e-10
-2.596278e-10
-2.640587e-10
-2.682899e-10
-2.76178e-10
-2.886172e-10
-4.223787e-10
-2.563235e-10
-2.596083e-10
-2.640307e-10
-2.68254e-10
-2.76131e-10
-2.885812e-10
-4.108904e-10
-2.563084e-10
-2.595876e-10
-2.640013e-10
-2.682161e-10
-2.760817e-10
-2.885294e-10
-4.035112e-10
-2.562925e-10
-2.595656e-10
-2.639688e-10
-2.681766e-10
-2.760223e-10
-2.884699e-10
-3.96366e-10
-2.562724e-10
-2.595421e-10
-2.639369e-10
-2.697266e-10
-2.756864e-10
-2.883581e-10
1.834089e-09
-2.562513e-10
-2.595172e-10
-2.63899e-10
-2.680932e-10
-2.754937e-10
-2.882375e-10
1.555293e-09
-2.562312e-10
-2.594906e-10
-2.638621e-10
-2.680408e-10
-2.754206e-10
-2.881158e-10
1.847194e-09
-2.562054e-10
-2.594605e-10
-2.638209e-10
-2.679893e-10
-2.753429e-10
-2.879922e-10
1.659055e-09
-2.561323e-10
-2.594269e-10
-2.637749e-10
-2.679333e-10
-2.752402e-10
-2.87254e-10
1.484479e-09
-2.56072e-10
-2.5851e-10
-2.625406e-10
-2.678639e-10
-2.751429e-10
-2.869538e-10
1.359741e-09
-2.560339e-10
-2.58475e-10
-2.624976e-10
-2.678007e-10
-2.750493e-10
-2.868417e-10
8.642456e-10
-2.559307e-10
-2.583498e-10
-2.624458e-10
-2.6773e-10
-2.749479e-10
-2.855162e-10
-2.642547e-10
-2.558473e-10
-2.582422e-10
-2.623883e-10
-2.67652e-10
-2.748367e-10
-2.849738e-10
-1.749569e-10
-2.557917e-10
-2.580494e-10
-2.623149e-10
-2.675655e-10
-2.747148e-10
-2.848954e-10
-1.701941e-10
-2.557378e-10
-2.579755e-10
-2.621176e-10
-2.674699e-10
-2.7458e-10
-2.847811e-10
-1.83011e-10
-2.556791e-10
-2.578921e-10
-2.61871e-10
-2.6736e-10
-2.744305e-10
-2.850196e-10
5.241385e-10
-2.556151e-10
-2.578065e-10
-2.616182e-10
-2.672094e-10
-2.742661e-10
-2.847069e-10
-2.924523e-10
-2.555483e-10
-2.577124e-10
-2.615021e-10
-2.667889e-10
-2.740698e-10
-2.844899e-10
-2.919338e-10
-2.554684e-10
-2.576092e-10
-2.613892e-10
-2.664602e-10
-2.737931e-10
-2.842689e-10
-2.361044e-10
-2.553628e-10
-2.57487e-10
-2.612902e-10
-2.662009e-10
-2.737717e-10
-2.850212e-10
-1.121e-10
-2.551698e-10
-2.572953e-10
-2.614558e-10
-2.670959e-10
-2.748529e-10
-2.859679e-10
-4.951568e-11
-2.553817e-10
-2.577511e-10
-2.630615e-10
-2.698285e-10
-2.774956e-10
-2.869555e-10
-1.322543e-10
-2.568173e-10
-2.598793e-10
-2.660566e-10
-2.729713e-10
-2.799003e-10
-2.871748e-10
-2.685607e-10
-2.59042e-10
-2.620055e-10
-2.681278e-10
-2.746564e-10
-2.81194e-10
-2.862538e-10
-2.608628e-10
-2.607067e-10
-2.635852e-10
-2.701512e-10
-2.765414e-10
-2.822354e-10
-2.87382e-10
-3.042011e-10
-2.616374e-10
-2.650419e-10
-2.712555e-10
-2.777656e-10
-2.817522e-10
-2.889074e-10
-3.166314e-10
-2.618004e-10
-2.657146e-10
-2.725988e-10
-2.777904e-10
-2.821151e-10
-2.885734e-10
-3.235423e-10
-2.62039e-10
-2.663862e-10
-2.728716e-10
-2.779812e-10
-2.821584e-10
-2.879879e-10
-3.381691e-10
-2.615758e-10
-2.660769e-10
-2.723369e-10
-2.77284e-10
-2.822268e-10
-2.873807e-10
-2.973758e-10
-2.606427e-10
-2.651871e-10
-2.713092e-10
-2.763637e-10
-2.811514e-10
-2.870422e-10
-2.92356e-10
-2.597003e-10
-2.645283e-10
-2.7074e-10
-2.754507e-10
-2.801484e-10
-2.849384e-10
-2.860875e-10
-2.5874e-10
-2.630232e-10
-2.687546e-10
-2.732292e-10
-2.780862e-10
-2.826225e-10
-2.880562e-10
-2.578574e-10
-2.620852e-10
-2.67236e-10
-2.704111e-10
-2.75118e-10
-2.808312e-10
-2.868917e-10
-2.568062e-10
-2.607095e-10
-2.65784e-10
-2.690335e-10
-2.729041e-10
-2.778596e-10
-2.103614e-10
-2.565023e-10
-2.600734e-10
-2.644677e-10
-2.677213e-10
-2.704248e-10
-2.739271e-10
-2.75493e-10
-2.562024e-10
-2.594232e-10
-2.638808e-10
-2.664237e-10
-2.686361e-10
-2.676024e-10
-2.711682e-10
-2.559486e-10
-2.589436e-10
-2.631897e-10
-2.655864e-10
-2.658849e-10
-2.652389e-10
-2.554774e-10
-2.582374e-10
-2.624437e-10
-2.65056e-10
-2.651832e-10
-2.648383e-10
-2.552387e-10
-2.577463e-10
-2.62247e-10
-2.645966e-10
-2.650754e-10
-2.641481e-10
-2.549105e-10
-2.574818e-10
-2.618752e-10
-2.642174e-10
-2.671965e-10
-2.69982e-10
-2.75425e-10
-2.547942e-10
-2.572539e-10
-2.624803e-10
-2.654045e-10
-2.686031e-10
-2.740615e-10
-2.067127e-10
-2.553635e-10
-2.58024e-10
-2.634189e-10
-2.671209e-10
-2.705248e-10
-2.757205e-10
-2.894832e-10
-2.557445e-10
-2.586068e-10
-2.640762e-10
-2.681333e-10
-2.73246e-10
-2.773476e-10
-2.482199e-10
-2.561739e-10
-2.59364e-10
-2.665014e-10
-2.699483e-10
-2.738826e-10
-2.796575e-10
-2.828957e-10
-2.5701e-10
-2.605818e-10
-2.66219e-10
-2.703266e-10
-2.754279e-10
-2.809096e-10
-2.849718e-10
-2.576019e-10
-2.610418e-10
-2.6696e-10
-2.713472e-10
-2.765224e-10
-2.800801e-10
-2.753251e-10
-2.579447e-10
-2.621043e-10
-2.669997e-10
-2.726283e-10
-2.758918e-10
-2.812669e-10
-3.154258e-10
-2.579733e-10
-2.616365e-10
-2.674607e-10
-2.719234e-10
-2.768715e-10
-2.806748e-10
-2.62994e-10
-2.579396e-10
-2.619947e-10
-2.665187e-10
-2.720562e-10
-2.756235e-10
-2.82438e-10
-3.221897e-10
-2.574863e-10
-2.613067e-10
-2.655941e-10
-2.712304e-10
-2.761581e-10
-2.824628e-10
-3.278897e-10
-2.562753e-10
-2.603005e-10
-2.651256e-10
-2.701798e-10
-2.763225e-10
-2.81049e-10
-6.352431e-10
-2.550146e-10
-2.584767e-10
-2.635982e-10
-2.698696e-10
-2.759276e-10
-2.817723e-10
-3.059423e-10
-2.547793e-10
-2.570502e-10
-2.616438e-10
-2.684245e-10
-2.752255e-10
-2.836926e-10
-3.359314e-10
-2.550537e-10
-2.572404e-10
-2.611142e-10
-2.663676e-10
-2.736204e-10
-2.842931e-10
-2.362497e-10
-2.553198e-10
-2.573872e-10
-2.61204e-10
-2.661999e-10
-2.734348e-10
-2.847819e-10
-1.926839e-10
-2.554473e-10
-2.575356e-10
-2.613252e-10
-2.662936e-10
-2.738474e-10
-2.846539e-10
-2.739323e-10
-2.555391e-10
-2.576504e-10
-2.614482e-10
-2.665914e-10
-2.740289e-10
-2.844958e-10
-3.031551e-10
-2.55613e-10
-2.577568e-10
-2.615679e-10
-2.670073e-10
-2.742416e-10
-2.847434e-10
2.11657e-10
-2.556813e-10
-2.578534e-10
-2.617465e-10
-2.673255e-10
-2.744047e-10
-2.849925e-10
-3.653041e-10
-2.557428e-10
-2.579437e-10
-2.619966e-10
-2.67446e-10
-2.745549e-10
-2.852669e-10
-2.788546e-10
-2.557982e-10
-2.580069e-10
-2.622835e-10
-2.675446e-10
-2.746912e-10
-2.851902e-10
-2.292056e-10
-2.558546e-10
-2.581566e-10
-2.623681e-10
-2.676336e-10
-2.748146e-10
-2.850833e-10
-2.546348e-10
-2.559375e-10
-2.582806e-10
-2.624328e-10
-2.677137e-10
-2.749268e-10
-2.853214e-10
-2.752073e-10
-2.560414e-10
-2.584519e-10
-2.624863e-10
-2.67786e-10
-2.750301e-10
-2.867422e-10
-3.265906e-10
-2.560788e-10
-2.584902e-10
-2.625355e-10
-2.678518e-10
-2.75124e-10
-2.869807e-10
8.281195e-10
-2.561384e-10
-2.594357e-10
-2.637874e-10
-2.679175e-10
-2.752142e-10
-2.870934e-10
1.26903e-09
-2.562112e-10
-2.594689e-10
-2.638325e-10
-2.679729e-10
-2.753182e-10
-2.877673e-10
1.427348e-09
-2.562366e-10
-2.594982e-10
-2.638729e-10
-2.680253e-10
-2.754038e-10
-2.881186e-10
1.609322e-09
-2.562562e-10
-2.595242e-10
-2.639101e-10
-2.68074e-10
-2.754775e-10
-2.882193e-10
1.815959e-09
-2.562768e-10
-2.595487e-10
-2.639452e-10
-2.681201e-10
-2.755539e-10
-2.883644e-10
-3.266926e-10
-2.562965e-10
-2.595714e-10
-2.639777e-10
-2.681636e-10
-2.759187e-10
-2.884628e-10
-3.338174e-10
-2.56312e-10
-2.595928e-10
-2.640085e-10
-2.682045e-10
-2.76071e-10
-2.885397e-10
-3.972622e-10
-2.563267e-10
-2.596132e-10
-2.640376e-10
-2.682428e-10
-2.761206e-10
-2.885934e-10
-4.031801e-10
-2.563406e-10
-2.596322e-10
-2.64065e-10
-2.682793e-10
-2.761681e-10
-2.886411e-10
-4.094193e-10
-2.563539e-10
-2.596502e-10
-2.640914e-10
-2.683137e-10
-2.762127e-10
-2.886794e-10
-4.172272e-10
-2.563662e-10
-2.596673e-10
-2.641161e-10
-2.683462e-10
-2.76255e-10
-2.887091e-10
-4.270526e-10
-2.563779e-10
-2.596842e-10
-2.641402e-10
-2.683852e-10
-2.764475e-10
-2.887354e-10
-4.34618e-10
-2.563891e-10
-2.597009e-10
-2.64163e-10
-2.684202e-10
-2.766777e-10
-2.887568e-10
-4.404192e-10
-2.563999e-10
-2.597167e-10
-2.641848e-10
-2.684487e-10
-2.767072e-10
-2.88777e-10
-4.394935e-10
-2.564102e-10
-2.597319e-10
-2.642057e-10
-2.68476e-10
-2.767354e-10
-2.887759e-10
-4.199027e-10
-2.564201e-10
-2.597462e-10
-2.642258e-10
-2.68502e-10
-2.767618e-10
-2.888065e-10
-3.745416e-10
-2.564295e-10
-2.597601e-10
-2.642449e-10
-2.685271e-10
-2.767872e-10
-2.889249e-10
-3.200072e-10
-2.564388e-10
-2.597738e-10
-2.642634e-10
-2.685509e-10
-2.768592e-10
-2.891133e-10
-2.477631e-10
-2.564479e-10
-2.597869e-10
-2.642871e-10
-2.686234e-10
-2.769797e-10
-2.893059e-10
-1.417427e-10
-2.564572e-10
-2.598043e-10
-2.643762e-10
-2.687445e-10
-2.771012e-10
-2.895028e-10
-1.281497e-10
-2.564695e-10
-2.59874e-10
-2.64471e-10
-2.688664e-10
-2.772226e-10
-2.896973e-10
-1.229956e-10
-2.565222e-10
-2.599491e-10
-2.645704e-10
-2.689888e-10
-2.773392e-10
-2.899001e-10
-1.196314e-10
-2.565794e-10
-2.600246e-10
-2.646706e-10
-2.69105e-10
-2.772962e-10
-2.901149e-10
-1.166646e-10
-2.566376e-10
-2.601008e-10
-2.647712e-10
-2.692288e-10
-2.774436e-10
-2.903311e-10
-1.140432e-10
-2.566966e-10
-2.601774e-10
-2.648722e-10
-2.693526e-10
-2.775959e-10
-2.90549e-10
-1.116622e-10
-2.567577e-10
-2.602546e-10
-2.649734e-10
-2.694771e-10
-2.777487e-10
-2.907676e-10
-1.09549e-10
-2.568193e-10
-2.603315e-10
-2.650748e-10
-2.696011e-10
-2.779021e-10
-2.90987e-10
-1.076537e-10
-2.568809e-10
-2.604096e-10
-2.651762e-10
-2.697252e-10
-2.780556e-10
-2.91148e-10
-1.364096e-10
-1.638146e-07
-1.626798e-07
-1.610509e-07
-1.610478e-07
-1.610478e-07
-1.610478e-07
-1.610478e-07
-1.610478e-07
-1.610478e-07
-1.610478e-07
-1.610478e-07
-1.610478e-07
-1.610478e-07
-1.610478e-07
-1.610478e-07
-1.610478e-07
-1.610478e-07
-1.610478e-07
-1.733329e-07
-1.613349e-07
-1.610481e-07
-1.610477e-07
-1.610477e-07
-1.610477e-07
-1.610477e-07
-1.610477e-07
-1.610477e-07
-1.610477e-07
-1.610477e-07
-1.610477e-07
-1.610477e-07
-1.610477e-07
-1.610477e-07
-1.610477e-07
-1.610477e-07
-1.610477e-07
-1.76708e-07
-1.616795e-07
-1.610484e-07
-1.610478e-07
-1.610478e-07
-1.610478e-07
-1.610478e-07
-1.610478e-07
-1.610478e-07
-1.610478e-07
-1.610478e-07
-1.610478e-07
-1.610478e-07
-1.610478e-07
-1.610478e-07
-1.610478e-07
-1.610478e-07
-1.610478e-07
-1.770743e-07
-1.61678e-07
-1.610485e-07
-1.610478e-07
-1.610478e-07
-1.610478e-07
-1.610478e-07
-1.610478e-07
-1.610478e-07
-1.610478e-07
-1.610478e-07
-1.610478e-07
-1.610478e-07
-1.610478e-07
-1.610478e-07
-1.610478e-07
-1.610478e-07
-1.610478e-07
-1.774086e-07
-1.616652e-07
-1.610485e-07
-1.610478e-07
-1.610478e-07
-1.610478e-07
-1.610478e-07
-1.610478e-07
-1.610478e-07
-1.610478e-07
-1.610478e-07
-1.610478e-07
-1.610478e-07
-1.610478e-07
-1.610478e-07
-1.610478e-07
-1.610478e-07
-1.610478e-07
-1.777838e-07
-1.616663e-07
-1.610485e-07
-1.610478e-07
-1.610478e-07
-1.610478e-07
-1.610478e-07
-1.610478e-07
-1.610478e-07
-1.610478e-07
-1.610478e-07
-1.610478e-07
-1.610478e-07
-1.610478e-07
-1.610478e-07
-1.610478e-07
-1.610478e-07
-1.610478e-07
-1.781348e-07
-1.616795e-07
-1.610485e-07
-1.610478e-07
-1.610478e-07
-1.610478e-07
-1.610478e-07
-1.610478e-07
-1.610478e-07
-1.610478e-07
-1.610478e-07
-1.610478e-07
-1.610478e-07
-1.610478e-07
-1.610478e-07
-1.610478e-07
-1.610478e-07
-1.610478e-07
-1.783632e-07
-1.6172e-07
-1.610486e-07
-1.610478e-07
-1.610478e-07
-1.610478e-07
-1.610478e-07
-1.610478e-07
-1.610478e-07
-1.610478e-07
-1.610478e-07
-1.610478e-07
-1.610478e-07
-1.610478e-07
-1.610478e-07
-1.610478e-07
-1.610478e-07
-1.610478e-07
-1.78313e-07
-1.61787e-07
-1.610486e-07
-1.610478e-07
-1.610478e-07
-1.610478e-07
-1.610478e-07
-1.610478e-07
-1.610478e-07
-1.610478e-07
-1.610478e-07
-1.610478e-07
-1.610478e-07
-1.610478e-07
-1.610478e-07
-1.610478e-07
-1.610478e-07
-1.610478e-07
-1.777915e-07
-1.618911e-07
-1.610487e-07
-1.610478e-07
-1.610478e-07
-1.610478e-07
-1.610478e-07
-1.610478e-07
-1.610478e-07
-1.610478e-07
-1.610478e-07
-1.610478e-07
-1.610478e-07
-1.610478e-07
-1.610478e-07
-1.610478e-07
-1.610478e-07
-1.610478e-07
-1.813976e-07
-1.620472e-07
-1.610488e-07
-1.610478e-07
-1.610478e-07
-1.610478e-07
-1.610478e-07
-1.610478e-07
-1.610478e-07
-1.610478e-07
-1.610478e-07
-1.610478e-07
-1.610478e-07
-1.610478e-07
-1.610478e-07
-1.610478e-07
-1.610478e-07
-1.610478e-07
-1.963623e-07
-1.620714e-07
-1.610489e-07
-1.610478e-07
-1.610478e-07
-1.610478e-07
-1.610478e-07
-1.610478e-07
-1.610478e-07
-1.610478e-07
-1.610478e-07
-1.610478e-07
-1.610478e-07
-1.610478e-07
-1.610478e-07
-1.610478e-07
-1.610478e-07
-1.610478e-07
-1.890155e-07
-1.619966e-07
-1.610489e-07
-1.610478e-07
-1.610478e-07
-1.610478e-07
-1.610478e-07
-1.610478e-07
-1.610478e-07
-1.610478e-07
-1.610478e-07
-1.610478e-07
-1.610478e-07
-1.610478e-07
-1.610478e-07
-1.610478e-07
-1.610478e-07
-1.610478e-07
-2.025421e-07
-1.620229e-07
-1.610489e-07
-1.610478e-07
-1.610478e-07
-1.610478e-07
-1.610478e-07
-1.610478e-07
-1.610478e-07
-1.610478e-07
-1.610478e-07
-1.610478e-07
-1.610478e-07
-1.610478e-07
-1.610478e-07
-1.610478e-07
-1.610478e-07
-1.610478e-07
-1.563136e-07
-1.620682e-07
-1.610494e-07
-1.610478e-07
-1.610478e-07
-1.610478e-07
-1.610478e-07
-1.610478e-07
-1.610478e-07
-1.610478e-07
-1.610478e-07
-1.610478e-07
-1.610478e-07
-1.610478e-07
-1.610478e-07
-1.610478e-07
-1.610478e-07
-1.610478e-07
-1.430889e-07
-1.626317e-07
-1.610531e-07
-1.610478e-07
-1.610478e-07
-1.610478e-07
-1.610478e-07
-1.610478e-07
-1.610478e-07
-1.610478e-07
-1.610478e-07
-1.610478e-07
-1.610478e-07
-1.610478e-07
-1.610478e-07
-1.610478e-07
-1.610478e-07
-1.610478e-07
-1.338375e-07
-1.622819e-07
-1.61052e-07
-1.610489e-07
-1.610478e-07
-1.610478e-07
-1.610478e-07
-1.610478e-07
-1.610478e-07
-1.610478e-07
-1.610478e-07
-1.610478e-07
-1.610478e-07
-1.610478e-07
-1.610478e-07
-1.610478e-07
-1.610478e-07
-1.610478e-07
-1.258923e-07
-1.624286e-07
-1.610503e-07
-1.610484e-07
-1.610482e-07
-1.610478e-07
-1.610478e-07
-1.610478e-07
-1.610478e-07
-1.610478e-07
-1.610478e-07
-1.610478e-07
-1.610478e-07
-1.610478e-07
-1.610478e-07
-1.610478e-07
-1.610478e-07
-1.610478e-07
-1.179447e-07
-1.625217e-07
-1.6105e-07
-1.610479e-07
-1.61048e-07
-1.610479e-07
-1.610478e-07
-1.610478e-07
-1.610478e-07
-1.610478e-07
-1.610478e-07
-1.610478e-07
-1.610478e-07
-1.610478e-07
-1.610478e-07
-1.610478e-07
-1.610478e-07
-1.610478e-07
-1.103337e-07
-1.626268e-07
-1.610502e-07
-1.610477e-07
-1.610478e-07
-1.610479e-07
-1.610478e-07
-1.610478e-07
-1.610478e-07
-1.610478e-07
-1.610478e-07
-1.610478e-07
-1.610478e-07
-1.610478e-07
-1.610478e-07
-1.610478e-07
-1.610478e-07
-1.610478e-07
-1.030324e-07
-1.627043e-07
-1.610504e-07
-1.610478e-07
-1.610478e-07
-1.610478e-07
-1.610478e-07
-1.610478e-07
-1.610478e-07
-1.610478e-07
-1.610478e-07
-1.610478e-07
-1.610478e-07
-1.610478e-07
-1.610478e-07
-1.610478e-07
-1.610478e-07
-1.610478e-07
-9.6606e-08
-1.627749e-07
-1.610506e-07
-1.610478e-07
-1.610478e-07
-1.610478e-07
-1.610478e-07
-1.610478e-07
-1.610478e-07
-1.610478e-07
-1.610478e-07
-1.610478e-07
-1.610478e-07
-1.610478e-07
-1.610478e-07
-1.610478e-07
-1.610478e-07
-1.610478e-07
-9.086836e-08
-1.628109e-07
-1.610507e-07
-1.610478e-07
-1.610478e-07
-1.610478e-07
-1.610478e-07
-1.610478e-07
-1.610478e-07
-1.610478e-07
-1.610478e-07
-1.610478e-07
-1.610478e-07
-1.610478e-07
-1.610478e-07
-1.610478e-07
-1.610478e-07
-1.610478e-07
-8.168911e-08
-1.628734e-07
-1.610509e-07
-1.610478e-07
-1.610478e-07
-1.610478e-07
-1.610478e-07
-1.610478e-07
-1.610478e-07
-1.610478e-07
-1.610478e-07
-1.610478e-07
-1.610478e-07
-1.610478e-07
-1.610478e-07
-1.610478e-07
-1.610478e-07
-1.610478e-07
-7.655593e-08
-1.629243e-07
-1.610511e-07
-1.610478e-07
-1.610478e-07
-1.610478e-07
-1.610478e-07
-1.610478e-07
-1.610478e-07
-1.610478e-07
-1.610478e-07
-1.610478e-07
-1.610478e-07
-1.610478e-07
-1.610478e-07
-1.610478e-07
-1.610478e-07
-1.610478e-07
-7.075918e-08
-1.629546e-07
-1.610513e-07
-1.610478e-07
-1.610478e-07
-1.610478e-07
-1.610478e-07
-1.610478e-07
-1.610478e-07
-1.610478e-07
-1.610478e-07
-1.610478e-07
-1.610478e-07
-1.610478e-07
-1.610478e-07
-1.610478e-07
-1.610478e-07
-1.610478e-07
-6.604367e-08
-1.629906e-07
-1.610515e-07
-1.610478e-07
-1.610478e-07
-1.610478e-07
-1.610478e-07
-1.610478e-07
-1.610478e-07
-1.610478e-07
-1.610478e-07
-1.610478e-07
-1.610478e-07
-1.610478e-07
-1.610478e-07
-1.610478e-07
-1.610478e-07
-1.610478e-07
-6.125284e-08
-1.630284e-07
-1.610517e-07
-1.610478e-07
-1.610478e-07
-1.610478e-07
-1.610478e-07
-1.610478e-07
-1.610478e-07
-1.610478e-07
-1.610478e-07
-1.610478e-07
-1.610478e-07
-1.610478e-07
-1.610478e-07
-1.610478e-07
-1.610478e-07
-1.610478e-07
-5.676597e-08
-1.630162e-07
-1.610519e-07
-1.610477e-07
-1.610478e-07
-1.610478e-07
-1.610478e-07
-1.610478e-07
-1.610478e-07
-1.610478e-07
-1.610478e-07
-1.610478e-07
-1.610478e-07
-1.610478e-07
-1.610478e-07
-1.610478e-07
-1.610478e-07
-1.610478e-07
-5.291439e-08
-1.629807e-07
-1.61052e-07
-1.610426e-07
-1.610433e-07
-1.610477e-07
-1.610478e-07
-1.610478e-07
-1.610478e-07