/*--------------------------------*- C++ -*----------------------------------*\
| =========                 |                                                 |
| \\      /  F ield         | OpenFOAM: The Open Source CFD Toolbox           |
|  \\    /   O peration     | Version:  2206                                  |
|   \\  /    A nd           | Website:  www.openfoam.com                      |
|    \\/     M anipulation  |                                                 |
\*---------------------------------------------------------------------------*/
FoamFile
{
    version     2.0;
    format      ascii;
    arch        "LSB;label=32;scalar=64";
    class       volScalarField;
    location    "1.6";
    object      ddt0(alpha.a);
}
// * * * * * * * * * * * * * * * * * * * * * * * * * * * * * * * * * * * * * //

dimensions      [0 0 -1 0 0 0 0];

internalField   nonuniform List<scalar> 
13078
(
-0.4132912
-0.05679925
-0.002433239
-0.0003766418
-0.0001318225
-0.0001112644
-9.164493e-05
-0.0513314
-0.004829508
-0.0005361972
-0.0001726137
-0.0001287102
-0.000104742
-8.931475e-05
-0.002213646
-0.0004984753
-0.0001563268
-0.0001176287
-0.0001027712
-9.029651e-05
-8.143348e-05
-2.574291e-05
-6.223971e-05
-7.385819e-05
-7.4122e-05
-7.506547e-05
-7.367786e-05
-7.150331e-05
0.0001541823
3.327255e-05
-1.806223e-05
-4.033954e-05
-5.077076e-05
-5.735818e-05
-6.13121e-05
0.0001376873
5.086696e-05
9.067467e-06
-1.664258e-05
-3.395937e-05
-4.433825e-05
-5.21049e-05
0.0001074924
4.827167e-05
1.919436e-05
-4.15968e-06
-2.203953e-05
-3.57241e-05
-4.527059e-05
8.51439e-05
3.909318e-05
2.025091e-05
3.796084e-07
-1.594859e-05
-2.988984e-05
-4.125498e-05
6.916142e-05
2.981447e-05
1.760301e-05
1.175699e-06
-1.3468e-05
-2.68755e-05
-3.853659e-05
5.778315e-05
2.167016e-05
1.325504e-05
-1.648356e-07
-1.3139e-05
-2.586997e-05
-3.765486e-05
4.942414e-05
1.486037e-05
9.026005e-06
-2.410308e-06
-1.420237e-05
-2.646854e-05
-3.811407e-05
4.284011e-05
9.323507e-06
5.066491e-06
-5.0318e-06
-1.610097e-05
-2.781353e-05
-3.926175e-05
3.754532e-05
4.872949e-06
1.472255e-06
-7.921623e-06
-1.831522e-05
-2.942901e-05
-4.056148e-05
3.323033e-05
1.080479e-06
-2.000806e-06
-1.107118e-05
-2.09017e-05
-3.129517e-05
-4.223646e-05
2.949073e-05
-2.484143e-06
-5.214683e-06
-1.292218e-05
-2.235393e-05
-3.320133e-05
-4.449688e-05
2.600014e-05
-5.884382e-06
-8.161318e-06
-1.599863e-05
-2.539174e-05
-3.569269e-05
-4.709528e-05
2.260144e-05
-8.868753e-06
-1.091126e-05
-1.843915e-05
-2.796935e-05
-3.836618e-05
-4.948184e-05
1.939611e-05
-1.163927e-05
-1.365833e-05
-2.12716e-05
-3.081101e-05
-4.081414e-05
-5.159913e-05
1.633207e-05
-1.461468e-05
-1.668874e-05
-2.433114e-05
-3.389474e-05
-4.371845e-05
-5.405198e-05
1.315333e-05
-1.791661e-05
-2.000888e-05
-2.728506e-05
-3.520732e-05
-4.49923e-05
-5.655296e-05
9.575119e-06
-2.140325e-05
-2.33789e-05
-3.041138e-05
-3.945109e-05
-4.930235e-05
-5.91753e-05
5.59613e-06
-2.5066e-05
-2.689497e-05
-3.396437e-05
-4.259686e-05
-5.234449e-05
-6.242263e-05
1.569454e-06
-2.897091e-05
-3.093371e-05
-3.803327e-05
-4.65321e-05
-5.68898e-05
-6.748129e-05
-2.54008e-06
-3.323492e-05
-3.53284e-05
-4.257997e-05
-5.094155e-05
-5.921028e-05
-6.995885e-05
-7.145415e-06
-3.79178e-05
-4.008377e-05
-4.746251e-05
-5.622428e-05
-6.670876e-05
-7.739705e-05
-1.206243e-05
-4.278016e-05
-4.530272e-05
-5.287397e-05
-6.190679e-05
-7.173062e-05
-8.25679e-05
-1.68785e-05
-4.782964e-05
-5.078857e-05
-5.880847e-05
-6.817356e-05
-7.815737e-05
-9.045272e-05
-2.15537e-05
-5.312518e-05
-5.636199e-05
-6.485836e-05
-7.5101e-05
-8.535118e-05
-9.502208e-05
-2.626238e-05
-5.837295e-05
-6.179996e-05
-7.115244e-05
-8.211431e-05
-9.358429e-05
-0.0001086979
-2.999562e-05
-6.139221e-05
-6.647995e-05
-7.686436e-05
-8.925708e-05
-0.0001028449
-0.0001170695
-3.274344e-05
-6.487873e-05
-7.0137e-05
-8.166104e-05
-9.543164e-05
-0.0001110655
-0.0001289895
-3.278923e-05
-6.335481e-05
-6.950487e-05
-8.364656e-05
-9.946057e-05
-0.0001182231
-0.000140394
-2.95982e-05
-5.964619e-05
-6.523969e-05
-7.857714e-05
-9.814208e-05
-0.0001215806
-0.0001494299
-2.203065e-05
-4.96819e-05
-5.503033e-05
-6.898533e-05
-9.023161e-05
-0.0001167167
-0.0001519702
-7.799296e-06
-3.174606e-05
-3.298648e-05
-4.44647e-05
-6.60957e-05
-9.976556e-05
-0.0001422893
1.437787e-05
-2.687921e-06
1.453596e-06
-9.425522e-06
-2.468413e-05
-5.552023e-05
-0.0001114002
4.734096e-05
4.066351e-05
5.330606e-05
5.114141e-05
3.501396e-05
6.931653e-06
-5.047061e-05
9.404479e-05
0.0001021698
0.000126105
0.0001357774
0.0001306688
0.0001097441
6.166145e-05
0.0001584056
0.0001828378
0.000224023
0.0002489056
0.0002610874
0.0002641333
0.0002635634
0.0002461347
0.0002916065
0.0003428708
0.0004049875
0.0005168036
0.000735532
0.001025541
0.0003594768
0.0004216891
0.0005483393
0.0008348301
0.001611718
0.003148654
0.004739702
0.0005271038
0.0006983611
0.001295883
0.002990686
0.006465029
0.01037597
0.0107976
0.000941122
0.001813654
0.004406805
0.01009903
0.01603632
0.01507506
0.009204771
0.002326854
0.005540376
0.01250229
0.01909547
0.01776795
0.009148579
0.000623524
0.006296741
0.01341993
0.02052631
0.01827431
0.008732008
0.0005279379
-0.005712102
0.01410156
0.02101814
0.02003771
0.009464647
0.0001176609
-0.005920708
-0.009801537
0.02312537
0.0224882
0.01307131
0.002167279
-0.005548381
-0.01038364
-0.01353072
0.02947037
0.0195627
0.006779992
-0.002705696
-0.009195221
-0.01309528
-0.0174825
0.03170334
0.0159464
0.002818684
-0.006198819
-0.01226015
-0.01669056
-0.020688
0.03071773
0.01364691
0.0006909984
-0.008699913
-0.01528611
-0.0199797
-0.02318598
0.02736627
0.01215416
0.0005245046
-0.01042181
-0.01770878
-0.0227071
-0.0260511
0.02305203
0.01105207
-0.0005915379
-0.01244245
-0.02000155
-0.02478727
-0.02862933
0.01892327
0.01013708
-0.001308603
-0.01266301
-0.02093604
-0.02622531
-0.02996773
0.0157998
0.009752955
-0.0009763236
-0.01270506
-0.02152403
-0.02699199
-0.03029672
0.01336606
0.009243224
-0.000951251
-0.01284881
-0.02199415
-0.0276424
-0.0311228
0.01150549
0.008805289
-0.0009715662
-0.01281488
-0.02205135
-0.02779544
-0.03132549
0.01160796
0.009160602
-0.0004461045
-0.01208816
-0.02117049
-0.02684162
-0.03030642
0.01338065
0.009414933
-0.0005472177
-0.01198159
-0.02073536
-0.02616561
-0.02941688
0.01563286
0.009573246
-0.0008266242
-0.01175256
-0.01985443
-0.02481829
-0.02761337
0.01865438
0.01017113
-0.000527594
-0.01059974
-0.01776303
-0.02218285
-0.02550233
0.02244879
0.01113294
0.0008980379
-0.009267358
-0.01590308
-0.02026349
-0.02365571
0.0262049
0.01210765
0.001242603
-0.008605621
-0.01453789
-0.01833356
-0.02058008
0.02828621
0.01320491
0.001571719
-0.006412977
-0.01150809
-0.01472897
-0.01653562
0.02750719
0.01564695
0.004224741
-0.003553335
-0.008160896
-0.01096968
-0.01397897
0.02298994
0.01880957
0.008688708
0.000208086
-0.005447301
-0.008565596
-0.01130626
0.01537092
0.01959392
0.01465371
0.005128705
-0.002051059
-0.005696126
-0.007266853
0.007758157
0.01482982
0.01839251
0.01210261
0.004173758
-0.001089256
-0.004613308
0.003162444
0.007267829
0.01415881
0.01672073
0.01188882
0.00515272
-0.0007310136
0.001295981
0.002628754
0.006363771
0.01227822
0.01490579
0.01142776
0.006041453
0.0006525532
0.0009650493
0.001999516
0.00477271
0.009181285
0.01117706
0.01011275
0.0004223057
0.0004836405
0.0007040924
0.001358177
0.002890237
0.005264118
0.006548836
0.0002905696
0.0003335051
0.0003934241
0.0004911244
0.0007867854
0.001423007
0.002114751
0.0001913296
0.000222641
0.0002619265
0.0002864341
0.0003245046
0.0003835175
0.0004743926
0.0001138629
0.0001279921
0.0001573305
0.0001729251
0.0001689246
0.0001487105
0.0001205227
5.677158e-05
5.715979e-05
7.497037e-05
7.834469e-05
6.602605e-05
4.258707e-05
-6.852747e-06
1.593374e-05
5.414528e-06
1.342124e-05
7.154305e-06
-1.022046e-05
-3.898665e-05
-9.453508e-05
-1.222023e-05
-3.101064e-05
-2.931149e-05
-4.1223e-05
-5.982521e-05
-9.112396e-05
-0.0001391744
-3.017545e-05
-5.439177e-05
-5.598875e-05
-6.806483e-05
-8.793447e-05
-0.0001195077
-0.0001591622
-4.096474e-05
-6.792058e-05
-7.260953e-05
-8.605259e-05
-0.0001051621
-0.0001288781
-0.0001613309
-4.590331e-05
-7.524042e-05
-7.848101e-05
-9.060693e-05
-0.0001083749
-0.0001282835
-0.0001534499
-4.657663e-05
-7.586363e-05
-8.003771e-05
-9.202819e-05
-0.0001058766
-0.0001219923
-0.0001412128
-4.503769e-05
-7.467735e-05
-7.797342e-05
-8.7457e-05
-9.893154e-05
-0.0001126073
-0.0001276962
-4.049106e-05
-6.990805e-05
-7.250176e-05
-8.127737e-05
-9.108152e-05
-0.0001026439
-0.0001149399
-3.565503e-05
-6.548749e-05
-6.689037e-05
-7.412669e-05
-8.364527e-05
-9.303337e-05
-0.0001047654
-2.993832e-05
-5.908768e-05
-6.033108e-05
-6.721076e-05
-7.597607e-05
-8.442445e-05
-9.318072e-05
-2.392699e-05
-5.357373e-05
-5.405032e-05
-6.079261e-05
-6.842178e-05
-7.70313e-05
-8.781576e-05
-1.850041e-05
-4.779795e-05
-4.821558e-05
-5.467794e-05
-6.155208e-05
-7.006491e-05
-7.980635e-05
-1.341034e-05
-4.221119e-05
-4.267708e-05
-4.840397e-05
-5.576126e-05
-6.438722e-05
-7.391194e-05
-7.849361e-06
-3.701575e-05
-3.74546e-05
-4.306502e-05
-5.056018e-05
-5.81188e-05
-6.717758e-05
-2.812659e-06
-3.250854e-05
-3.259913e-05
-3.886382e-05
-4.596397e-05
-5.551013e-05
-6.413632e-05
1.433309e-06
-2.80418e-05
-2.82654e-05
-3.468296e-05
-4.23298e-05
-5.106088e-05
-5.965857e-05
5.437681e-06
-2.41458e-05
-2.470862e-05
-3.116982e-05
-3.893111e-05
-4.770587e-05
-5.664483e-05
9.450539e-06
-2.069845e-05
-2.16661e-05
-2.781432e-05
-3.523644e-05
-4.416154e-05
-5.408149e-05
1.294464e-05
-1.732233e-05
-1.846981e-05
-2.484316e-05
-3.340727e-05
-4.239106e-05
-5.169976e-05
1.626111e-05
-1.445199e-05
-1.54923e-05
-2.199993e-05
-3.052369e-05
-3.944736e-05
-4.961193e-05
1.937051e-05
-1.156411e-05
-1.256254e-05
-1.95442e-05
-2.796898e-05
-3.734265e-05
-4.773019e-05
2.263851e-05
-8.556946e-06
-9.703751e-06
-1.703193e-05
-2.567916e-05
-3.537312e-05
-4.569444e-05
2.579662e-05
-5.206981e-06
-6.865761e-06
-1.4269e-05
-2.322812e-05
-3.334119e-05
-4.360316e-05
2.933404e-05
-1.8914e-06
-4.041606e-06
-1.220778e-05
-2.143163e-05
-3.133763e-05
-4.161273e-05
3.336834e-05
1.609241e-06
-1.017696e-06
-9.402285e-06
-1.881197e-05
-2.916932e-05
-3.969333e-05
3.780325e-05
5.311136e-06
2.249984e-06
-6.5926e-06
-1.642769e-05
-2.710074e-05
-3.781987e-05
4.28059e-05
9.577856e-06
5.961242e-06
-3.687616e-06
-1.424648e-05
-2.537055e-05
-3.629896e-05
4.901854e-05
1.493257e-05
9.99178e-06
-9.706683e-07
-1.255578e-05
-2.425561e-05
-3.532302e-05
5.725941e-05
2.163119e-05
1.42327e-05
1.178564e-06
-1.155378e-05
-2.397543e-05
-3.521575e-05
6.842686e-05
2.980319e-05
1.820154e-05
2.467692e-06
-1.184334e-05
-2.495996e-05
-3.63837e-05
8.418445e-05
3.926781e-05
2.089043e-05
1.867057e-06
-1.428777e-05
-2.800038e-05
-3.85197e-05
0.0001064332
4.845583e-05
1.976127e-05
-2.981482e-06
-2.050274e-05
-3.285794e-05
-4.291055e-05
0.000135789
5.156887e-05
1.091105e-05
-1.458523e-05
-3.017506e-05
-4.173888e-05
-4.986667e-05
0.0001545865
3.536565e-05
-1.504739e-05
-3.466767e-05
-4.72813e-05
-5.466915e-05
-5.871008e-05
-6.338963e-06
-5.505346e-05
-6.30223e-05
-6.869544e-05
-7.105899e-05
-7.026422e-05
-6.886949e-05
-0.001803076
-0.0004239556
-0.0001471721
-0.0001104069
-9.712507e-05
-8.665729e-05
-7.872788e-05
-0.04580259
-0.003631477
-0.0003556067
-0.0001422963
-0.0001234094
-0.0001027844
-8.827401e-05
-7.843348e-05
-6.299428e-05
-4.636575e-05
-3.079274e-05
-1.485369e-05
-1.414262e-05
-0.0003709604
-7.738652e-05
-6.318251e-05
-4.709159e-05
-3.285642e-05
-1.575132e-05
-1.636937e-05
-0.0002966953
-7.325684e-05
-6.08883e-05
-4.423959e-05
-2.955541e-05
-1.755171e-05
-2.074107e-05
-0.0003249109
-6.756899e-05
-5.842824e-05
-4.566096e-05
-4.147732e-05
-2.228935e-05
-2.668545e-05
-0.0003600858
-6.151289e-05
-5.584576e-05
-4.53292e-05
-3.147312e-05
-2.524165e-05
-3.417702e-05
-0.0004072293
-5.617051e-05
-5.349633e-05
-4.522732e-05
-3.150818e-05
-2.987914e-05
-4.304602e-05
-0.0004666587
-5.160283e-05
-5.165078e-05
-4.522527e-05
-3.360385e-05
-3.667523e-05
-5.312835e-05
-0.0005369484
-4.857643e-05
-5.030193e-05
-4.603775e-05
-3.648411e-05
-4.086905e-05
-6.384317e-05
-0.0006172766
-4.747348e-05
-5.03934e-05
-4.772582e-05
-3.980838e-05
-4.63242e-05
-7.503217e-05
-0.0007069287
-4.714899e-05
-5.174868e-05
-4.991374e-05
-4.331248e-05
-5.283644e-05
-8.681855e-05
-0.0008042443
-4.795184e-05
-5.306414e-05
-5.258987e-05
-4.751905e-05
-5.978437e-05
-9.898311e-05
-0.0009166214
-4.91399e-05
-5.484489e-05
-5.564306e-05
-5.2046e-05
-6.662282e-05
-0.0001113186
-0.00102204
-5.059304e-05
-5.714204e-05
-5.89051e-05
-5.652036e-05
-7.436443e-05
-0.0001229928
-0.001118373
-5.259532e-05
-5.983168e-05
-6.24001e-05
-6.174899e-05
-8.197196e-05
-0.0001370491
-0.001243113
-5.502843e-05
-6.269496e-05
-6.615846e-05
-6.696802e-05
-8.947891e-05
-0.0001503486
-0.001297165
-5.756519e-05
-6.54627e-05
-6.982921e-05
-7.187372e-05
-9.683889e-05
-0.0001635431
-0.001394664
-5.987841e-05
-6.815098e-05
-7.341529e-05
-7.696086e-05
-0.0001085379
-0.0001769577
-0.001491074
-6.210257e-05
-7.086853e-05
-7.683698e-05
-8.089254e-05
-0.0001163506
-0.0001903118
-0.001590653
-6.439045e-05
-7.366144e-05
-8.023769e-05
-8.430335e-05
-0.0001185231
-0.000203916
-0.001689766
-6.694341e-05
-7.65017e-05
-8.36606e-05
-8.925739e-05
-0.0001258652
-0.0002179486
-0.001793658
-7.00392e-05
-7.960328e-05
-8.775576e-05
-9.395071e-05
-0.0001332649
-0.0002323742
-0.001902935
-7.346513e-05
-8.327475e-05
-9.222271e-05
-9.858025e-05
-0.0001406133
-0.0002470929
-0.002015147
-7.739331e-05
-8.757809e-05
-9.747128e-05
-0.0001055282
-0.0001501923
-0.0002628393
-0.002134757
-8.151988e-05
-9.23766e-05
-0.0001035295
-0.0001240071
-0.0001477102
-0.0002784609
-0.002259161
-8.680248e-05
-9.806257e-05
-0.0001089511
-0.000149018
-0.000165975
-0.0002943542
-0.002384345
-9.332603e-05
-0.0001055829
-0.0001174915
-0.0001235308
-0.0001748815
-0.0003138782
-0.002517099
-0.0001026432
-0.0001144683
-0.0001272385
-0.0001347122
-0.0001879106
-0.0003417414
-0.002651433
-0.0001088604
-0.0001230289
-0.0001383022
-0.0001476959
-0.0002030982
-0.0003505379
-0.002792639
-0.0001230347
-0.0001512599
-0.0001803864
-0.0001717036
-0.0002216875
-0.0003788131
-0.002942497
-0.0001370486
-0.000143164
-0.0001609266
-0.0001863646
-0.0002434099
-0.0004099659
-0.003105286
-0.0001447557
-0.0001551289
-0.000180145
-0.000208159
-0.0002691397
-0.0003856167
-0.003252151
-0.0001689201
-0.0001858484
-0.000204267
-0.0002342213
-0.0002980535
-0.000470326
-0.003412324
-0.0001846326
-0.0002149429
-0.0002309137
-0.0002657911
-0.0003332099
-0.0005106923
-0.003664285
-0.0001976373
-0.0002378648
-0.000247508
-0.0003036749
-0.0003759397
-0.0005594333
-0.003495542
-0.0001999672
-0.0002624445
-0.0002873351
-0.0003474064
-0.0004280137
-0.0006122042
-0.003531634
-0.0001823545
-0.0002734082
-0.0003156084
-0.0004025214
-0.0004928057
-0.0006923728
-0.001711101
-0.0001332379
-0.0002551348
-0.0003093958
-0.0004218067
-0.0005849775
-0.0008348727
-0.003610642
-4.358643e-05
-0.0001922145
-0.0002509897
-0.0003538776
-0.000642517
-0.0009353986
-0.003663442
0.000159224
-6.868164e-05
-9.790694e-05
-0.0002293779
-0.001463385
-0.003538679
-0.006304153
0.001303816
0.0001897741
-0.000693099
-0.002901865
-0.00527676
-0.008844732
-0.01096362
0.005176306
0.0006235172
0.0003462698
-0.004280702
-0.008976726
-0.01541555
-0.02166591
0.008032011
0.003179052
-0.002128056
-0.00799236
-0.01229098
-0.01474588
-0.01790078
0.002189688
-0.004605866
-0.007623652
-0.0112125
-0.01425181
-0.0146904
-0.01516053
-0.004291612
-0.009354777
-0.01002881
-0.01387871
-0.01587025
-0.01851883
-0.02270591
-0.009802065
-0.01295725
-0.01351964
-0.01465616
-0.01842661
-0.01990153
-0.0209133
-0.0128906
-0.01513268
-0.01461108
-0.018
-0.01804068
-0.02198353
-0.02091516
-0.01649863
-0.01898498
-0.01845864
-0.01810607
-0.02163289
-0.02207845
-0.02291862
-0.0190363
-0.02107458
-0.01941587
-0.02042743
-0.02047537
-0.02301757
-0.02187443
-0.02272529
-0.02209346
-0.02194121
-0.02176642
-0.02002648
-0.01999504
-0.02093323
-0.02501763
-0.0260005
-0.02452051
-0.02400229
-0.02052177
-0.01817246
-0.01830144
-0.02790827
-0.02752787
-0.02672498
-0.0241855
-0.02044359
-0.01727563
-0.01615855
-0.02976638
-0.0295548
-0.02750155
-0.02352262
-0.02023902
-0.01785818
-0.0158822
-0.03047215
-0.03088169
-0.02823207
-0.02561517
-0.02062268
-0.01626441
-0.01682471
-0.03217015
-0.03176429
-0.03043714
-0.02731236
-0.02373663
-0.0186402
-0.01102144
-0.03322938
-0.03281767
-0.031684
-0.0294436
-0.02715865
-0.03093887
-0.04826601
-0.03343162
-0.03328838
-0.03312687
-0.03163676
-0.02887934
-0.02549847
-0.03237113
-0.03244546
-0.03224276
-0.03089186
-0.02831874
-0.02561726
-0.03124966
-0.03145005
-0.03028135
-0.02817008
-0.02491492
-0.02056942
-0.02885363
-0.02889712
-0.02649343
-0.02428049
-0.01970145
-0.0156836
-0.01531546
-0.02599823
-0.02639696
-0.02483629
-0.020472
-0.01648393
-0.01229831
-0.009735839
-0.02423252
-0.02442152
-0.02108857
-0.01809897
-0.01214146
-0.01061514
-0.01133205
-0.02137268
-0.02128974
-0.01899213
-0.01656425
-0.0145149
-0.01099779
-0.01148941
-0.0175648
-0.01843582
-0.01882153
-0.01551028
-0.0127157
-0.01189373
-0.01281119
-0.01548077
-0.01592546
-0.01475315
-0.01434914
-0.01292533
-0.01257891
-0.01371591
-0.01145317
-0.01130364
-0.01355056
-0.01179667
-0.01343689
-0.01222658
-0.009751735
-0.008722441
-0.009357065
-0.009406141
-0.01207585
-0.01125617
-0.01504107
-0.01314084
-0.006293614
-0.005022319
-0.00756538
-0.008098927
-0.01133445
-0.009871916
-0.009106553
-0.003274177
-0.004031302
-0.005117511
-0.00727635
-0.007993636
-0.01046016
-0.006974102
0.0007646469
-0.001068988
-0.002814599
-0.005100274
-0.0063489
-0.007152752
-0.01056366
0.006494086
0.003029986
-0.00261965
-0.003389292
-0.007049404
-0.00713651
-0.01234773
0.006580234
0.008689478
0.00228352
-0.001915198
-0.003845602
-0.007324016
-0.01306047
0.002408563
0.002871986
0.003081143
-0.001587315
-0.004096164
-0.007723741
-0.01279125
0.0005279485
8.562146e-05
-0.0009662365
-0.00176545
-0.002554715
-0.005230582
-0.006989192
3.013597e-05
7.233886e-06
-0.0001302956
-0.0006526585
-0.001972206
-0.003299181
-0.003919965
-0.0001043044
-0.0001325419
-0.0002837508
-0.0004482851
-0.0007165053
-0.001316057
-0.003747269
-0.0001727321
-0.0002146061
-0.000340933
-0.0004662238
-0.0006380881
-0.0009165659
-0.004509749
-0.0002059529
-0.0002487367
-0.0003467099
-0.0004208909
-0.0005702733
-0.00082586
-0.003396521
-0.0002121237
-0.000250376
-0.0003201359
-0.0003935806
-0.0004938897
-0.0007094085
-0.004216097
-0.0002023878
-0.0002354635
-0.0002935835
-0.0003432427
-0.000430997
-0.0006394689
-0.00387817
-0.0001848743
-0.0002127562
-0.0002570993
-0.0002977953
-0.0003786489
-0.0005761699
-0.003634507
-0.0001657138
-0.0001819876
-0.0002197232
-0.0002593841
-0.0003340944
-0.0005240009
-0.003732679
-0.0001420395
-0.0001710806
-0.0001921941
-0.0002273649
-0.0002970021
-0.0004934114
-0.00347026
-0.0001317698
-0.0001522633
-0.0001692367
-0.0002007118
-0.0002652329
-0.0004504186
-0.003285809
-0.0001178803
-0.0001344444
-0.0001525881
-0.0001780744
-0.0002376201
-0.0004050131
-0.003060521
-0.0001050593
-0.0001197002
-0.0001358197
-0.0001608307
-0.0002140051
-0.0003723509
-0.002861127
-9.797286e-05
-0.0001102837
-0.0001215415
-0.0001442646
-0.0001938107
-0.0003450509
-0.002680797
-8.944477e-05
-0.0001001222
-0.0001103118
-0.0001303497
-0.0001774284
-0.0003204737
-0.00251314
-8.228231e-05
-9.236275e-05
-0.0001015
-0.0001194991
-0.0001643085
-0.0002976048
-0.002361731
-7.685334e-05
-8.618216e-05
-9.464015e-05
-0.0001128521
-0.0001557373
-0.0002775638
-0.002214448
-7.281654e-05
-8.17326e-05
-8.994949e-05
-0.0001059969
-0.0001436078
-0.0002609412
-0.002079768
-6.929095e-05
-7.83417e-05
-8.564518e-05
-9.963735e-05
-0.000137878
-0.0002438908
-0.00194991
-6.635876e-05
-7.499851e-05
-8.146244e-05
-9.470767e-05
-0.0001295992
-0.0002277413
-0.00182927
-6.380676e-05
-7.224689e-05
-7.818841e-05
-8.953422e-05
-0.00012188
-0.0002124789
-0.001712863
-6.160286e-05
-6.972384e-05
-7.466153e-05
-8.532852e-05
-0.0001144909
-0.0001981385
-0.001606544
-5.952018e-05
-6.704695e-05
-7.152752e-05
-8.092837e-05
-0.0001074531
-0.000184441
-0.001508812
-5.72931e-05
-6.45761e-05
-6.84172e-05
-7.615538e-05
-9.680277e-05
-0.0001714799
-0.001414121
-5.518399e-05
-6.219832e-05
-6.515924e-05
-7.291637e-05
-9.379566e-05
-0.0001586466
-0.001322339
-5.311448e-05
-5.972416e-05
-6.215177e-05
-6.895884e-05
-8.692449e-05
-0.0001462083
-0.0012276
-5.112945e-05
-5.724808e-05
-5.888532e-05
-6.462943e-05
-8.008576e-05
-0.000134023
-0.001185915
-4.906361e-05
-5.46912e-05
-5.561039e-05
-6.057272e-05
-7.316726e-05
-0.0001217792
-0.001083399
-4.70482e-05
-5.225539e-05
-5.237887e-05
-5.745072e-05
-6.631708e-05
-0.0001100463
-0.000994326
-4.543455e-05
-5.024775e-05
-4.964903e-05
-5.352117e-05
-5.949354e-05
-9.910401e-05
-0.0009082995
-4.441856e-05
-4.872801e-05
-4.686947e-05
-4.921916e-05
-5.314104e-05
-8.811556e-05
-0.0008349967
-4.407202e-05
-4.726117e-05
-4.435723e-05
-4.634228e-05
-4.691013e-05
-7.720151e-05
-0.0007261595
-4.433746e-05
-4.665793e-05
-4.265688e-05
-4.345068e-05
-4.100529e-05
-6.667445e-05
-0.0006438603
-4.597875e-05
-4.703677e-05
-4.159778e-05
-4.134845e-05
-3.537543e-05
-5.664853e-05
-0.0005683015
-4.917113e-05
-4.812488e-05
-4.09744e-05
-3.982321e-05
-3.057015e-05
-4.700411e-05
-0.0005005429
-5.350149e-05
-5.023557e-05
-4.135083e-05
-3.874385e-05
-2.642996e-05
-3.824271e-05
-0.0004419136
-5.924121e-05
-5.322532e-05
-4.206677e-05
-3.692786e-05
-2.247752e-05
-3.052852e-05
-0.0003938631
-6.531867e-05
-5.637273e-05
-4.30121e-05
-3.570259e-05
-1.930123e-05
-2.419144e-05
-0.0003580526
-7.110208e-05
-5.927186e-05
-4.427127e-05
-3.510359e-05
-1.700667e-05
-1.960507e-05
-0.0003387707
-7.656137e-05
-6.194519e-05
-4.632527e-05
-3.347895e-05
-1.563793e-05
-1.695363e-05
-0.0003973563
-0.001798265
1.547221e-11
-6.0671e-15
-1.519314e-20
-8.147458e-27
-9.426592e-33
-6.804908e-39
-3.606144e-45
-6.098744e-52
-7.683508e-59
-1.317366e-65
-2.371443e-72
-5.871322e-79
-1.800515e-85
-2.643891e-91
-6.720483e-98
-3.399899e-104
-1.604429e-110
-0.001349931
-4.463047e-10
-1.415859e-15
-3.88196e-21
-2.657395e-27
-3.631916e-33
-3.059595e-39
-1.982875e-45
-4.036367e-52
-8.30052e-59
-1.979598e-65
-4.10128e-72
-8.573065e-79
-1.618789e-85
-1.414666e-91
-6.669863e-99
-5.424238e-106
-9.597376e-113
5.564493e-05
-2.464921e-09
-2.804636e-15
-3.731118e-21
-2.342821e-27
-2.641255e-33
-2.189961e-39
-1.481087e-45
-3.390031e-52
-8.208499e-59
-2.33962e-65
-6.568182e-72
-1.685713e-78
-3.666744e-85
-3.4602e-91
-1.477514e-98
-1.172219e-105
-1.16907e-112
4.712869e-05
-2.659077e-09
-4.402009e-15
-6.84464e-21
-4.458725e-27
-4.954678e-33
-3.999435e-39
-2.785478e-45
-5.925482e-52
-1.630145e-58
-4.980145e-65
-1.49967e-71
-4.191029e-78
-1.050712e-84
-1.104933e-90
-4.49205e-98
-4.7254e-105
-5.168383e-112
9.442305e-06
-2.950808e-09
-5.969309e-15
-1.021432e-20
-8.013764e-27
-9.304347e-33
-8.199073e-39
-5.874527e-45
-1.406338e-51
-3.962848e-58
-1.399951e-64
-4.452977e-71
-1.335974e-77
-3.846676e-84
5.766921e-94
-6.744767e-97
-2.34853e-104
-2.958882e-111
-6.163358e-05
-3.404661e-09
-7.571893e-15
-1.483039e-20
-1.397869e-26
-1.743785e-32
-1.66047e-38
-1.27553e-44
-3.177825e-51
-1.087965e-57
-4.237108e-64
-1.631317e-70
-5.147174e-77
-1.665329e-83
-1.531772e-90
-2.386594e-96
-1.536599e-103
-2.218359e-110
-0.0001602945
-3.745668e-09
-9.718405e-15
-2.162683e-20
-2.413614e-26
-3.311909e-32
-3.395298e-38
-2.878496e-44
-8.11515e-51
-3.215321e-57
-1.442472e-63
-6.055686e-70
-2.291285e-76
-7.933476e-83
-3.277881e-89
-1.315755e-95
-1.110079e-102
-1.796384e-109
-0.0003094461
-4.172444e-09
-1.257004e-14
-3.106034e-20
-4.113465e-26
-6.035966e-32
-7.127836e-38
-6.626794e-44
-2.102016e-50
-1.041694e-56
-5.179014e-63
-2.472421e-69
-1.045044e-75
-4.319069e-82
-1.947749e-88
-8.213248e-95
-8.105143e-102
-1.549163e-108
-0.0004978453
-5.108441e-09
-1.653553e-14
-4.534461e-20
-7.153452e-26
-1.14453e-31
-1.482499e-37
-1.577799e-43
-5.889466e-50
-3.301907e-56
-1.967655e-62
-1.066307e-68
-5.263267e-75
-2.397019e-81
-1.222398e-87
-5.493324e-94
-6.86602e-101
-1.521469e-107
-0.001153864
-6.057418e-09
-2.232239e-14
-6.73884e-20
-1.264322e-25
-2.233419e-31
-3.235736e-37
-3.891361e-43
-1.766572e-49
-1.1323e-55
-7.877951e-62
-4.906058e-68
-2.916254e-74
-1.454004e-80
-8.560385e-87
-4.228552e-93
-6.281884e-100
-1.553611e-106
-0.002517321
-1.715448e-08
-3.043453e-14
-1.026593e-19
-2.307606e-25
-4.578736e-31
-7.236098e-37
-1.006543e-42
-5.405185e-49
-4.099731e-55
-3.285199e-61
-2.437524e-67
-1.617331e-73
-9.486701e-80
-6.137875e-86
-3.380042e-92
-5.442245e-99
-1.546335e-105
-0.01082621
-4.245904e-08
-4.335857e-14
-1.624639e-19
-4.409443e-25
-9.614598e-31
-1.77806e-36
-2.801189e-42
-1.752492e-48
-1.618928e-54
-1.468815e-60
-1.244591e-66
-9.53651e-73
-6.338375e-79
-4.6665e-85
-2.756475e-91
-5.815378e-98
-1.815382e-104
-0.01180683
-1.079729e-08
-6.140656e-14
-2.749072e-19
-9.250526e-25
-2.255353e-30
-4.799703e-36
-8.587308e-42
-6.107477e-48
-6.577329e-54
-6.901836e-60
-6.847556e-66
-5.933274e-72
-4.482526e-78
-3.869827e-84
-2.445815e-90
-5.819151e-97
-2.136288e-103
-0.01787989
-2.802793e-08
-1.049097e-13
-5.424559e-19
-2.435256e-24
-6.606473e-30
-1.545666e-35
-3.153701e-41
-2.632143e-47
-3.130441e-53
-3.897671e-59
-4.166964e-65
-4.019632e-71
-3.487843e-77
-3.308716e-83
-2.448242e-89
-6.692992e-96
-2.70356e-102
-0.01747292
-2.762395e-08
-2.938621e-13
-1.854398e-18
-8.739319e-24
-2.876943e-29
-7.780787e-35
-1.785885e-40
-1.766817e-46
-2.526133e-52
-3.545672e-58
-4.608125e-64
-5.266429e-70
-5.28078e-76
-5.57899e-82
-4.236097e-88
-1.500235e-94
-6.854703e-101
-0.0169577
-1.034112e-11
-1.437834e-13
-1.078748e-18
-5.060536e-24
-1.823174e-29
-5.942315e-35
-1.76182e-40
-2.275212e-46
-4.289732e-52
-7.193434e-58
-1.071084e-63
-1.422244e-69
-1.612179e-75
-2.044882e-81
-1.721749e-87
-6.995956e-94
-3.824197e-100
-0.01769643
-3.39845e-08
-1.107999e-15
-5.782827e-19
-7.179442e-24
-2.596052e-29
-7.545864e-35
-2.132611e-40
-3.185739e-46
-7.334284e-52
-1.656838e-57
-3.327658e-63
-5.696572e-69
-8.377239e-75
-1.366243e-80
-1.390145e-86
-7.661219e-93
-5.297554e-99
-0.01915354
-3.710094e-08
-4.554895e-13
-7.316699e-21
-8.939202e-24
-5.704621e-29
-2.021251e-34
-5.499603e-40
-7.113837e-46
-1.622087e-51
-3.907003e-57
-8.55944e-63
-1.652826e-68
-2.735813e-74
-5.053082e-80
-5.938064e-86
-3.439348e-92
-2.694947e-98
-0.02078316
-3.995014e-08
-6.205566e-13
-5.803618e-18
-2.540862e-25
-8.396881e-29
-4.759941e-34
-1.641561e-39
-2.397729e-45
-5.559953e-51
-1.474339e-56
-3.883319e-62
-8.821991e-68
-1.717835e-73
-3.580913e-79
-4.469069e-85
-3.124535e-91
-2.653989e-97
-0.02248431
-4.756396e-08
-8.56384e-13
-1.025216e-17
-1.161765e-22
-1.592372e-30
-1.460318e-33
-6.638437e-39
-1.228061e-44
-2.882411e-50
-6.533846e-56
-1.481315e-61
-3.168066e-67
-6.292418e-73
-1.390677e-78
-1.469506e-84
-1.451845e-90
-1.436727e-96
-0.02429581
-6.097948e-08
-1.009144e-12
-1.274338e-17
-1.653185e-22
-1.079542e-27
3.738566e-36
-9.518733e-39
-2.919354e-44
-1.053014e-49
-3.288244e-55
-8.592509e-61
-1.947134e-66
-4.059272e-72
-4.992071e-77
-9.065129e-85
-1.140275e-89
-1.54303e-95
-0.02623106
-8.29616e-08
-1.408912e-12
-1.814792e-17
-2.693303e-22
-2.039945e-27
-1.317872e-32
1.814621e-41
-7.332512e-44
-3.608364e-49
-1.47752e-54
-4.998688e-60
-1.383087e-65
-3.216386e-71
-1.520759e-76
-8.198603e-83
-9.749343e-89
-1.105278e-94
-0.02830921
-1.065321e-07
-2.11433e-12
-3.115417e-17
-5.183432e-22
-4.399427e-27
-3.275332e-32
-2.071414e-37
-6.276956e-45
-8.04224e-49
-7.237646e-54
-2.944783e-59
-9.895552e-65
-2.769103e-70
-1.418704e-75
-9.506102e-82
-1.27913e-87
-1.616912e-93
-0.03053285
-1.382299e-07
-3.170447e-12
-5.435732e-17
-1.026041e-21
-9.610147e-27
-7.919905e-32
-5.727259e-37
-2.412566e-42
1.577708e-49
-2.515228e-53
-1.739267e-58
-6.737946e-64
-2.144113e-69
-1.288139e-74
-1.043477e-80
-1.730533e-86
-2.550874e-92
-0.03290152
-1.709354e-07
-4.66146e-12
-9.204368e-17
-1.996048e-21
-2.089862e-26
-1.932421e-31
-1.553253e-36
-7.348042e-42
-4.892702e-47
-4.398501e-54
-2.747503e-58
-2.970141e-63
-1.197637e-68
-9.835244e-74
-8.853109e-80
-1.730768e-85
-3.028099e-91
-0.03545194
-2.094904e-07
-6.649684e-12
-1.515234e-16
-3.822552e-21
-4.540738e-26
-4.670841e-31
-4.239672e-36
-2.27756e-41
-1.731653e-46
-1.228054e-51
-1.516446e-58
-1.362795e-62
-2.054993e-67
-1.733369e-118
-2.669459e-79
-1.126662e-84
-2.986163e-90
-0.03821014
-2.615967e-07
-9.522208e-12
-2.492764e-16
-7.311596e-21
-9.766956e-26
-1.120938e-30
-1.133195e-35
-6.793213e-41
-5.881473e-46
-4.776762e-51
-2.939731e-56
-4.70138e-62
-5.559958e-67
-1.991876e-72
-4.545649e-78
-1.235162e-83
-2.998645e-89
-0.04118896
-3.193369e-07
-1.359277e-11
-4.147605e-16
-1.424531e-20
-2.191806e-25
-2.878625e-30
-3.329334e-35
-2.276507e-40
-2.27069e-45
-2.082079e-50
-1.655025e-55
-1.003079e-60
-4.449698e-67
-1.698846e-71
-4.355936e-77
-1.349277e-82
-3.877998e-88
-0.04444092
-4.005479e-07
-1.950257e-11
-6.981561e-16
-2.789748e-20
-4.859441e-25
-7.20866e-30
-9.449784e-35
-7.048966e-40
-7.752875e-45
-7.953409e-50
-7.090377e-55
-5.495222e-60
-3.239713e-65
6.875965e-72
-2.174019e-76
-1.3276e-81
-2.634128e-87
-0.04802524
-4.93787e-07
-2.774839e-11
-1.173289e-15
-5.638813e-20
-1.099358e-24
-1.852431e-29
-2.720529e-34
-2.394738e-39
-3.016554e-44
-3.551994e-49
-3.658615e-54
-3.309561e-59
-1.603792e-63
-4.457955e-70
-4.531767e-76
-1.535657e-81
-7.976159e-86
-0.05201674
-6.019554e-07
-3.903935e-11
-1.938691e-15
-1.761128e-19
-1.838809e-24
-3.721361e-29
-6.187903e-34
-5.177977e-39
-8.479896e-44
-1.154842e-48
-1.384375e-53
-1.437608e-58
-2.282728e-63
-7.19729e-69
-4.07298e-74
-2.498747e-79
-2.177838e-84
-0.05630073
-6.962356e-07
-4.917104e-11
-2.846404e-15
-1.202895e-19
-4.050028e-24
-8.518433e-29
-1.20975e-33
-9.444008e-38
-3.346514e-43
-4.972371e-48
-6.515835e-53
-8.173717e-58
-1.397285e-62
-5.231271e-68
-4.458951e-73
-3.474531e-78
-1.146782e-82
-0.06114096
-7.870882e-07
-5.803623e-11
-3.060494e-15
-1.598637e-19
-7.88806e-24
-2.131781e-28
-4.300407e-33
-8.999656e-38
-1.207564e-42
-2.224437e-47
-3.5538e-52
-8.605133e-57
-2.712323e-70
-2.339917e-67
-1.724777e-72
-1.95848e-77
2.144627e-153
-0.06733731
-7.179024e-07
-6.507206e-11
-3.321565e-15
-1.94992e-19
-1.083987e-23
-3.306076e-28
-7.340366e-33
-1.771969e-37
-2.761153e-42
-5.906459e-47
-1.078088e-51
-2.294004e-56
-2.536042e-61