/*--------------------------------*- C++ -*----------------------------------*\
| =========                 |                                                 |
| \\      /  F ield         | OpenFOAM: The Open Source CFD Toolbox           |
|  \\    /   O peration     | Version:  2206                                  |
|   \\  /    A nd           | Website:  www.openfoam.com                      |
|    \\/     M anipulation  |                                                 |
\*---------------------------------------------------------------------------*/
FoamFile
{
    version     2.0;
    format      ascii;
    arch        "LSB;label=32;scalar=64";
    class       surfaceVectorField;
    location    "1.6";
    object      ddtCorrDdt0(Ufa);
}
// * * * * * * * * * * * * * * * * * * * * * * * * * * * * * * * * * * * * * //

dimensions      [0 1 -2 0 0 0 0];

internalField   nonuniform List<vector> 
26037
(
(2.413064e-05 -0.0002214945 1.951455e-23)
(-3.28616e-05 -0.0002317203 5.190302e-27)
(3.0277e-06 -6.008119e-05 -8.453412e-25)
(-1.922346e-05 -7.273855e-05 4.827972e-26)
(5.823544e-07 -2.339853e-05 -3.896615e-29)
(-4.490789e-06 -2.672716e-05 -3.905464e-29)
(1.866751e-07 -1.297694e-05 -1.089554e-30)
(-1.16115e-06 -1.380877e-05 0)
(5.607861e-08 -1.012784e-05 1.698994e-27)
(-6.069688e-07 -1.081203e-05 -1.104458e-30)
(-1.725932e-08 -8.427363e-06 -2.862324e-30)
(-3.921571e-07 -8.983397e-06 -1.56167e-29)
(-2.926798e-07 -7.677886e-06 -1.543212e-30)
(-6.456232e-08 -7.174812e-06 6.643277e-27)
(-7.796245e-05 -8.144562e-05 -9.93409e-32)
(-6.695461e-05 -5.920164e-05 4.599349e-30)
(-2.717365e-05 -3.938879e-05 -1.002957e-31)
(-3.009833e-05 -3.659824e-05 -2.564777e-30)
(-6.234816e-06 -1.713362e-05 0)
(-8.50528e-06 -1.667616e-05 3.314525e-30)
(-1.954897e-06 -1.164733e-05 -1.503938e-32)
(-3.096813e-06 -1.160618e-05 1.693481e-30)
(-1.055004e-06 -9.667872e-06 -2.215262e-32)
(-1.692201e-06 -9.82308e-06 -8.262511e-29)
(-6.674474e-07 -8.235182e-06 -2.051972e-32)
(-1.056886e-06 -8.478142e-06 -7.117996e-33)
(-7.183613e-07 -7.387945e-06 -2.155102e-29)
(-4.691488e-07 -7.083255e-06 -1.695222e-30)
(-1.950082e-05 -1.408296e-05 2.12233e-30)
(-1.365386e-05 -7.295113e-06 2.766131e-25)
(-1.150958e-05 -1.386579e-05 8.077208e-31)
(-1.050294e-05 -1.060095e-05 -6.083308e-26)
(-5.341913e-06 -1.110613e-05 -2.085517e-26)
(-5.716403e-06 -9.661968e-06 -1.081152e-30)
(-2.83375e-06 -9.783348e-06 -3.442559e-27)
(-3.304572e-06 -9.154349e-06 -2.80268e-31)
(-1.693662e-06 -8.633967e-06 1.136209e-30)
(-2.068408e-06 -8.391554e-06 4.877315e-29)
(-1.107598e-06 -7.632228e-06 -9.019475e-36)
(-1.386599e-06 -7.604409e-06 0)
(-9.681468e-07 -6.830416e-06 3.427134e-29)
(-7.679038e-07 -6.715824e-06 1.756884e-30)
(-4.64302e-06 -3.795902e-06 -2.69909e-30)
(-2.637172e-06 -1.729413e-06 2.240993e-30)
(-4.738995e-06 -6.39261e-06 -9.431249e-30)
(-3.655958e-06 -4.323273e-06 -2.032846e-26)
(-3.659755e-06 -7.685174e-06 -4.587307e-28)
(-3.314545e-06 -6.26152e-06 -2.35854e-26)
(-2.537514e-06 -7.753439e-06 -1.9427e-30)
(-2.521676e-06 -6.911172e-06 -3.726099e-27)
(-1.761115e-06 -7.362951e-06 6.147345e-32)
(-1.861385e-06 -6.907984e-06 1.062751e-30)
(-1.246909e-06 -6.803951e-06 2.598744e-32)
(-1.370707e-06 -6.593155e-06 -1.209974e-34)
(-1.008533e-06 -6.133118e-06 1.674866e-30)
(-8.973098e-07 -6.161884e-06 -1.781319e-30)
(-1.647126e-06 -2.251968e-06 -4.501758e-28)
(-6.267478e-07 -9.640842e-07 -3.415603e-33)
(-2.232782e-06 -4.176907e-06 -7.994e-29)
(-1.367226e-06 -2.789469e-06 -3.007733e-30)
(-2.169494e-06 -5.483895e-06 -1.113527e-29)
(-1.618951e-06 -4.322018e-06 -5.775934e-30)
(-1.840635e-06 -6.053947e-06 6.682877e-28)
(-1.548961e-06 -5.213728e-06 -8.976548e-27)
(-1.469372e-06 -6.133977e-06 7.194375e-27)
(-1.352078e-06 -5.590511e-06 4.49684e-27)
(-1.131938e-06 -5.923641e-06 -7.06388e-27)
(-1.108641e-06 -5.614657e-06 -1.585841e-30)
(-8.693251e-07 -5.412337e-06 -1.948112e-28)
(-8.57411e-07 -5.533183e-06 1.648876e-30)
(-3.445472e-07 -1.497498e-06 2.870334e-32)
(1.161621e-07 -6.328675e-07 0)
(-7.50107e-07 -2.922746e-06 -1.447908e-28)
(-1.068586e-07 -1.941307e-06 -4.268851e-30)
(-9.971407e-07 -4.056245e-06 4.618239e-28)
(-4.211807e-07 -3.14352e-06 -5.02081e-30)
(-1.057655e-06 -4.746891e-06 -6.681891e-28)
(-6.402679e-07 -4.006642e-06 -4.42337e-30)
(-9.877019e-07 -5.064562e-06 -1.421498e-30)
(-7.239571e-07 -4.51693e-06 -8.948537e-27)
(-8.443106e-07 -5.101334e-06 8.378752e-27)
(-6.9809e-07 -4.746596e-06 -1.389256e-30)
(-6.033185e-07 -4.74818e-06 -3.759732e-30)
(-6.826574e-07 -4.9181e-06 7.840195e-27)
(3.546448e-07 -1.073063e-06 -4.295314e-30)
(4.874482e-07 -4.531788e-07 8.231022e-30)
(2.25405e-07 -2.154152e-06 -9.269363e-30)
(6.950055e-07 -1.431144e-06 -1.419574e-26)
(-6.13981e-08 -3.093176e-06 3.238895e-27)
(4.832395e-07 -2.381082e-06 -1.053789e-26)
(-3.045777e-07 -3.777492e-06 -4.597051e-30)
(1.655081e-07 -3.151771e-06 -1.167082e-30)
(-4.320325e-07 -4.197229e-06 -8.201499e-28)
(-8.595073e-08 -3.698065e-06 -1.19302e-29)
(-4.539069e-07 -4.389882e-06 2.21752e-31)
(-2.172131e-07 -4.030135e-06 4.635306e-31)
(-2.56473e-07 -4.175404e-06 2.732301e-31)
(-4.152788e-07 -4.369587e-06 -8.335053e-32)
(8.290028e-07 -8.083364e-07 3.197997e-30)
(7.463339e-07 -3.419659e-07 2.984676e-26)
(9.534131e-07 -1.656303e-06 -9.888023e-30)
(1.296183e-06 -1.10476e-06 6.682594e-30)
(7.118055e-07 -2.436733e-06 -4.901444e-30)
(1.213101e-06 -1.878403e-06 9.277222e-31)
(3.834012e-07 -3.077032e-06 -8.569782e-30)
(8.722506e-07 -2.557393e-06 1.80973e-31)
(1.297417e-07 -3.532499e-06 -8.263664e-30)
(5.228708e-07 -3.095265e-06 -2.527845e-26)
(-1.769872e-08 -3.815371e-06 -9.9594e-28)
(2.770227e-07 -3.480772e-06 5.082741e-31)
(1.31614e-07 -3.716007e-06 2.751192e-31)
(-9.027961e-08 -3.912337e-06 -2.105299e-30)
(1.21487e-06 -6.353347e-07 1.171408e-29)
(9.704218e-07 -2.695347e-07 -2.675231e-26)
(1.557411e-06 -1.326744e-06 1.749717e-29)
(1.810464e-06 -8.907624e-07 3.805861e-26)
(1.378458e-06 -1.992851e-06 -6.419021e-28)
(1.849277e-06 -1.544511e-06 1.738338e-26)
(1.01047e-06 -2.580807e-06 -1.959558e-29)
(1.509938e-06 -2.149201e-06 -1.224424e-29)
(6.711171e-07 -3.045266e-06 -1.043979e-27)
(1.095641e-06 -2.667737e-06 -3.271421e-26)
(4.273786e-07 -3.38297e-06 2.66245e-31)
(7.629041e-07 -3.082808e-06 2.661629e-31)
(5.297778e-07 -3.380806e-06 0)
(2.620724e-07 -3.560007e-06 3.501341e-30)
(1.567277e-06 -5.215841e-07 2.479125e-30)
(1.186494e-06 -2.222355e-07 -1.106127e-29)
(2.103954e-06 -1.108778e-06 2.008507e-29)
(2.29229e-06 -7.517716e-07 1.354684e-29)
(1.986035e-06 -1.6952e-06 -5.682712e-30)
(2.44073e-06 -1.326548e-06 2.153975e-29)
(1.593561e-06 -2.24139e-06 -1.2339e-29)
(2.106625e-06 -1.879137e-06 -3.992252e-26)
(1.188616e-06 -2.707129e-06 -6.862361e-33)
(1.640665e-06 -2.381769e-06 3.596132e-26)
(8.665339e-07 -3.082302e-06 0)
(1.235888e-06 -2.817262e-06 0)
(9.275002e-07 -3.162708e-06 0)
(6.221616e-07 -3.317745e-06 4.789168e-30)
(1.912983e-06 -4.48813e-07 0)
(1.407905e-06 -1.928053e-07 0)
(2.630799e-06 -9.699836e-07 1.499523e-29)
(2.771798e-06 -6.665214e-07 -1.781079e-29)
(2.566969e-06 -1.505271e-06 1.04413e-30)
(3.020332e-06 -1.193405e-06 4.844876e-26)
(2.151991e-06 -2.024824e-06 -1.41807e-29)
(2.687279e-06 -1.715218e-06 1.819149e-30)
(1.689258e-06 -2.493859e-06 7.930733e-33)
(2.171767e-06 -2.211387e-06 -4.155286e-26)
(1.298279e-06 -2.899461e-06 0)
(1.700905e-06 -2.666778e-06 0)
(1.32385e-06 -3.052544e-06 1.308009e-29)
(9.82987e-07 -3.181305e-06 -4.646626e-30)
(2.268426e-06 -4.065039e-07 -1.780338e-29)
(1.642199e-06 -1.769388e-07 0)
(3.16343e-06 -8.904199e-07 -6.549767e-31)
(3.269609e-06 -6.219653e-07 -5.685864e-26)
(3.146646e-06 -1.398403e-06 3.331073e-29)
(3.612234e-06 -1.125533e-06 1.698167e-29)
(2.705112e-06 -1.907276e-06 1.209109e-27)
(3.273355e-06 -1.636128e-06 5.154182e-26)
(2.184931e-06 -2.386416e-06 -1.542952e-29)
(2.705116e-06 -2.137802e-06 -3.269049e-29)
(1.728194e-06 -2.821833e-06 1.307558e-29)
(2.168008e-06 -2.617211e-06 1.568308e-29)
(1.724153e-06 -3.0415e-06 3.905319e-26)
(1.345724e-06 -3.143984e-06 -3.338164e-27)
(2.645295e-06 -3.879172e-07 -2.043704e-29)
(1.895702e-06 -1.717024e-07 -1.888413e-29)
(3.720673e-06 -8.575427e-07 6.474029e-28)
(3.800501e-06 -6.09734e-07 -2.044038e-29)
(3.745408e-06 -1.358429e-06 1.826318e-29)
(4.235015e-06 -1.110439e-06 -4.232293e-31)
(3.271212e-06 -1.872443e-06 1.151541e-30)
(3.883226e-06 -1.627569e-06 1.837453e-29)
(2.689974e-06 -2.370899e-06 -1.550256e-30)
(3.257484e-06 -2.147965e-06 -6.143424e-26)
(2.165962e-06 -2.839074e-06 1.569581e-29)
(2.650119e-06 -2.658085e-06 5.067058e-26)
(2.136831e-06 -3.122472e-06 -4.571463e-26)
(1.715909e-06 -3.199492e-06 1.251172e-32)
(3.053067e-06 -3.88569e-07 -1.888777e-29)
(2.173858e-06 -1.752896e-07 -6.120207e-26)
(4.31737e-06 -8.631394e-07 -2.232157e-31)
(4.377071e-06 -6.245802e-07 0)
(4.379759e-06 -1.374691e-06 9.079253e-28)
(4.904083e-06 -1.139983e-06 -7.22873e-31)
(3.867566e-06 -1.909001e-06 -3.996499e-29)
(4.533778e-06 -1.678457e-06 2.850029e-29)
(3.219774e-06 -2.43784e-06 -2.144209e-29)
(3.848377e-06 -2.23129e-06 -7.709551e-26)
(2.623281e-06 -2.943949e-06 1.95684e-30)
(3.161014e-06 -2.7821e-06 1.786741e-29)
(2.572163e-06 -3.2904e-06 2.159004e-30)
(2.10167e-06 -3.343157e-06 -3.286625e-30)
(3.500303e-06 -4.057981e-07 -2.145971e-29)
(2.482048e-06 -1.867096e-07 -2.144982e-29)
(4.966737e-06 -9.020094e-07 -4.9909e-31)
(5.011503e-06 -6.633998e-07 -2.97966e-29)
(5.06529e-06 -1.439725e-06 1.692297e-27)
(5.635005e-06 -1.208473e-06 -4.992173e-31)
(4.518679e-06 -2.004058e-06 -2.365784e-26)
(5.245445e-06 -1.780799e-06 6.11398e-26)
(3.791522e-06 -2.581007e-06 -1.574306e-29)
(4.493529e-06 -2.382058e-06 -1.484371e-29)
(3.112492e-06 -3.131565e-06 1.807214e-29)
(3.712515e-06 -2.984304e-06 1.156431e-30)
(3.040523e-06 -3.542129e-06 5.907545e-26)
(2.512383e-06 -3.571803e-06 3.37316e-29)
(3.995979e-06 -4.381619e-07 -2.978221e-29)
(2.825905e-06 -2.05708e-07 0)
(5.68308e-06 -9.706789e-07 -2.980261e-29)
(5.71699e-06 -7.252843e-07 -9.729064e-26)
(5.818214e-06 -1.548042e-06 2.801433e-29)
(6.444452e-06 -1.31461e-06 -3.152898e-31)
(5.2283e-06 -2.155013e-06 -3.337332e-27)
(6.023519e-06 -1.934669e-06 2.760857e-29)
(4.410338e-06 -2.794019e-06 2.145222e-30)
(5.193128e-06 -2.597845e-06 9.869948e-31)
(3.642992e-06 -3.398506e-06 -4.729569e-27)
(4.315698e-06 -3.262195e-06 1.155928e-30)
(3.553568e-06 -3.8769e-06 2.182421e-29)
(2.957685e-06 -3.88371e-06 2.327239e-29)
(4.550001e-06 -4.859002e-07 -6.751149e-29)
(3.211375e-06 -2.323581e-07 -3.119334e-29)
(6.482423e-06 -1.070278e-06 -6.787295e-29)
(6.507384e-06 -8.107027e-07 -1.073878e-25)
(6.65422e-06 -1.702233e-06 1.479696e-27)
(7.350579e-06 -1.46014e-06 -1.025162e-30)
(6.004682e-06 -2.369849e-06 -4.421332e-31)
(6.891521e-06 -2.144785e-06 -9.247232e-31)
(5.092168e-06 -3.077009e-06 0)
(5.969681e-06 -2.881333e-06 0)
(4.228838e-06 -3.744796e-06 0)
(4.988113e-06 -3.618657e-06 -3.110563e-29)
(4.12659e-06 -4.298319e-06 -3.306786e-30)
(3.449833e-06 -4.279815e-06 -1.617511e-30)
(5.17221e-06 -5.493538e-07 2.439649e-27)
(3.644922e-06 -2.669152e-07 -1.008916e-25)
(7.380041e-06 -1.201823e-06 1.206978e-27)
(7.395764e-06 -9.206611e-07 -8.171888e-29)
(7.593021e-06 -1.904046e-06 1.669856e-27)
(8.369023e-06 -1.646703e-06 -1.907014e-30)
(6.875653e-06 -2.647263e-06 -4.973541e-31)
(7.867283e-06 -2.41207e-06 -1.590526e-30)
(5.858261e-06 -3.435485e-06 -3.146723e-29)
(6.843643e-06 -3.23688e-06 0)
(4.888766e-06 -4.176937e-06 6.052319e-27)
(5.751016e-06 -4.062258e-06 -1.028107e-25)
(4.778499e-06 -4.815862e-06 -5.165394e-30)
(4.00475e-06 -4.766619e-06 6.403285e-27)
(5.872329e-06 -6.294342e-07 2.752917e-27)
(4.133092e-06 -3.101389e-07 -7.525006e-29)
(8.389841e-06 -1.367082e-06 1.434064e-27)
(8.395796e-06 -1.05729e-06 -1.389974e-25)
(8.649096e-06 -2.156235e-06 3.765467e-27)
(9.515175e-06 -1.877428e-06 -4.820923e-29)
(7.85678e-06 -2.991489e-06 -1.118739e-30)
(8.964968e-06 -2.740181e-06 -1.100838e-30)
(6.728862e-06 -3.877347e-06 -3.404548e-29)
(7.83404e-06 -3.667993e-06 1.197425e-29)
(5.644025e-06 -4.707014e-06 -3.548496e-29)
(6.631789e-06 -4.602056e-06 -1.589654e-29)
(5.530835e-06 -5.444454e-06 2.327494e-30)
(4.64158e-06 -5.356956e-06 7.191041e-27)
(6.660852e-06 -7.280586e-07 -1.377552e-28)
(4.683151e-06 -3.633505e-07 -1.280051e-25)
(9.526886e-06 -1.569428e-06 -1.448471e-28)
(9.522927e-06 -1.224332e-06 -1.563123e-25)
(9.837583e-06 -2.463158e-06 -4.704664e-29)
(1.080765e-05 -2.157805e-06 -1.491917e-25)
(8.963518e-06 -3.407749e-06 1.186571e-29)
(1.020387e-05 -3.13532e-06 -4.896654e-29)
(7.742975e-06 -4.402428e-06 -5.114796e-26)
(8.969592e-06 -4.18326e-06 1.367178e-29)
(6.521222e-06 -5.352674e-06 -1.904714e-26)
(7.653418e-06 -5.256526e-06 -2.51964e-29)
(6.403839e-06 -6.204643e-06 4.010504e-29)
(5.382184e-06 -6.069981e-06 4.186365e-30)
(7.549992e-06 -8.484044e-07 -3.750751e-27)
(5.303148e-06 -4.285051e-07 -4.519959e-29)
(1.081008e-05 -1.814755e-06 -2.16195e-27)
(1.079492e-05 -1.427742e-06 -1.764318e-25)
(1.118042e-05 -2.832375e-06 -1.546987e-28)
(1.226955e-05 -2.498277e-06 -1.701154e-25)
(1.021849e-05 -3.905611e-06 -5.415888e-27)
(1.160909e-05 -3.613685e-06 -1.620336e-25)
(8.895998e-06 -5.026801e-06 -4.059145e-29)
(1.024854e-05 -4.802917e-06 1.748402e-30)
(7.524834e-06 -6.126734e-06 -6.081302e-30)
(8.807709e-06 -6.04226e-06 -1.3568e-25)
(7.421196e-06 -7.12594e-06 1.252414e-25)
(6.24729e-06 -6.932989e-06 9.386572e-27)
(8.553399e-06 -9.951894e-07 -6.209246e-29)
(6.001641e-06 -5.079323e-07 5.763879e-29)
(1.226162e-05 -2.113568e-06 -2.305915e-27)
(1.223044e-05 -1.674961e-06 -6.210153e-29)
(1.270591e-05 -3.282765e-06 -1.731092e-28)
(1.392485e-05 -2.912596e-06 -5.943621e-29)
(1.164818e-05 -4.512651e-06 -1.138639e-28)
(1.32095e-05 -4.197659e-06 -1.82412e-25)
(1.019521e-05 -5.798741e-06 -4.787263e-29)
(1.170988e-05 -5.564948e-06 6.235879e-29)
(8.688121e-06 -7.06543e-06 -4.804103e-29)
(1.013595e-05 -6.997053e-06 -4.888709e-29)
(8.622192e-06 -8.251084e-06 -1.557393e-25)
(7.273986e-06 -7.991156e-06 -3.153037e-29)
(9.684565e-06 -1.173428e-06 5.76492e-29)
(6.787411e-06 -6.042717e-07 1.82437e-25)
(1.390173e-05 -2.476518e-06 0)
(1.384733e-05 -1.974278e-06 0)
(1.443705e-05 -3.830996e-06 1.702316e-30)
(1.579444e-05 -3.41497e-06 0)
(1.328143e-05 -5.252418e-06 -7.191449e-27)
(1.502561e-05 -4.906463e-06 2.068396e-25)
(1.169081e-05 -6.739535e-06 6.363995e-29)
(1.337814e-05 -6.488768e-06 1.976028e-25)
(1.005377e-05 -8.209978e-06 -4.989528e-29)
(1.167267e-05 -8.142292e-06 -6.296984e-29)
(1.005002e-05 -9.607736e-06 -4.957183e-29)
(8.505269e-06 -9.294411e-06 -9.803999e-29)
(1.095671e-05 -1.38903e-06 1.301827e-28)
(7.669162e-06 -7.20702e-07 2.042814e-25)
(1.574906e-05 -2.915491e-06 0)
(1.566269e-05 -2.335345e-06 4.885754e-31)
(1.63927e-05 -4.49425e-06 7.049063e-29)
(1.789799e-05 -4.021363e-06 8.710783e-29)
(1.513369e-05 -6.145713e-06 7.874383e-27)
(1.707662e-05 -5.760885e-06 7.270328e-29)
(1.339944e-05 -7.870146e-06 7.276271e-29)
(1.527141e-05 -7.594703e-06 2.012885e-25)
(1.16782e-05 -9.562794e-06 -6.336471e-29)
(1.345238e-05 -9.498121e-06 -1.357143e-25)
(1.171395e-05 -1.120249e-05 0)
(9.962565e-06 -1.084416e-05 4.84847e-29)
(1.238234e-05 -1.648884e-06 7.395263e-29)
(8.654747e-06 -8.607165e-07 7.342044e-29)
(1.782163e-05 -3.444206e-06 -2.951512e-27)
(1.769166e-05 -2.768685e-06 -1.008347e-28)
(1.859264e-05 -5.29217e-06 8.932403e-29)
(2.025253e-05 -4.749646e-06 2.712468e-25)
(1.722475e-05 -7.21377e-06 -9.431156e-27)
(1.938023e-05 -6.785822e-06 2.201273e-30)
(1.533763e-05 -9.206508e-06 -6.74379e-29)
(1.740395e-05 -8.909957e-06 -2.518689e-25)
(1.351074e-05 -1.11133e-05 -7.218348e-29)
(1.542405e-05 -1.106572e-05 -5.553753e-29)
(1.351822e-05 -1.297004e-05 8.755719e-30)
(1.157027e-05 -1.254307e-05 4.685215e-29)
(1.397201e-05 -1.960099e-06 -1.012582e-28)
(9.750511e-06 -1.027593e-06 -9.339187e-29)
(2.01337e-05 -4.077327e-06 -4.000888e-30)
(1.994483e-05 -3.284222e-06 -3.118445e-25)
(2.105221e-05 -6.247783e-06 9.742524e-29)
(2.286618e-05 -5.616039e-06 2.071221e-28)
(1.957165e-05 -8.487409e-06 -7.992947e-29)
(2.193991e-05 -8.001585e-06 0)
(1.750487e-05 -1.077031e-05 -2.228564e-26)
(1.97737e-05 -1.045208e-05 -8.689131e-29)
(1.548899e-05 -1.288353e-05 -2.988617e-26)
(1.757586e-05 -1.285223e-05 1.483532e-29)
(1.538874e-05 -1.481711e-05 1.860259e-29)
(1.327487e-05 -1.434177e-05 -1.089292e-30)
(1.573196e-05 -2.328703e-06 -2.076181e-28)
(1.095859e-05 -1.224145e-06 -2.775549e-25)
(2.26897e-05 -4.826324e-06 -4.613626e-30)
(2.242461e-05 -3.890481e-06 -2.429786e-28)
(2.376736e-05 -7.374552e-06 1.097882e-28)
(2.573308e-05 -6.633464e-06 3.381269e-25)
(2.21556e-05 -9.971969e-06 -6.944045e-30)
(2.473555e-05 -9.420017e-06 0)
(1.986119e-05 -1.253662e-05 2.407768e-26)
(2.233765e-05 -1.221705e-05 -6.945037e-30)
(1.754514e-05 -1.474451e-05 -3.103569e-26)
(1.982931e-05 -1.479357e-05 -1.013577e-28)
(1.716157e-05 -1.654497e-05 1.960775e-29)
(1.486379e-05 -1.595928e-05 8.068229e-29)
(1.765866e-05 -2.759486e-06 -2.339001e-28)
(1.227489e-05 -1.45308e-06 -2.237427e-28)
(2.548234e-05 -5.701522e-06 -5.005776e-30)
(2.512361e-05 -4.596213e-06 -3.974703e-25)
(2.671625e-05 -8.683853e-06 1.238288e-28)
(2.883307e-05 -7.815837e-06 1.237318e-28)
(2.493284e-05 -1.167105e-05 0)
(2.773192e-05 -1.105963e-05 1.253947e-28)
(2.232402e-05 -1.44773e-05 -1.011709e-28)
(2.504795e-05 -1.42285e-05 -8.701102e-30)
(1.951872e-05 -1.656481e-05 -9.351129e-29)
(2.212942e-05 -1.691607e-05 -2.761983e-25)
(1.87842e-05 -1.817687e-05 6.991947e-26)
(1.604765e-05 -1.698793e-05 1.823162e-25)
(1.974086e-05 -3.257884e-06 -1.896847e-26)
(1.366917e-05 -1.715171e-06 -3.069755e-25)
(2.849136e-05 -6.715444e-06 -1.459434e-28)
(2.800681e-05 -5.40541e-06 -1.463067e-28)
(2.986538e-05 -1.01968e-05 1.252922e-28)
(3.212734e-05 -9.17993e-06 -1.598729e-28)
(2.786376e-05 -1.362338e-05 2.656523e-26)
(3.088038e-05 -1.295345e-05 4.202741e-25)
(2.486892e-05 -1.667263e-05 -2.262121e-28)
(2.786889e-05 -1.656334e-05 -1.48362e-28)
(2.142537e-05 -1.851202e-05 -3.646503e-26)
(2.451242e-05 -1.942394e-05 -4.179619e-25)
(2.044612e-05 -2.023653e-05 -4.395168e-25)
(1.672485e-05 -1.763135e-05 -1.958545e-25)
(2.189947e-05 -3.816396e-06 -1.335616e-28)
(1.511143e-05 -2.007983e-06 -1.323456e-28)
(3.167242e-05 -7.882381e-06 -1.602713e-28)
(3.103189e-05 -6.329238e-06 0)
(3.316163e-05 -1.194296e-05 1.174808e-26)
(3.554491e-05 -1.074142e-05 -4.905078e-25)
(3.090524e-05 -1.589956e-05 5.88481e-30)
(3.409823e-05 -1.512926e-05 1.452913e-28)
(2.753257e-05 -1.932267e-05 -3.969745e-28)
(3.072311e-05 -1.928092e-05 -4.552315e-25)
(2.356362e-05 -2.11557e-05 -3.748947e-28)
(2.696777e-05 -2.247477e-05 -4.733533e-25)
(2.234557e-05 -2.315954e-05 1.510809e-29)
(1.8004e-05 -1.956787e-05 -3.062359e-28)
(2.411904e-05 -4.444787e-06 0)
(1.662115e-05 -2.338372e-06 -1.66477e-28)
(3.493725e-05 -9.205938e-06 -3.556496e-28)
(3.407029e-05 -7.361462e-06 2.045481e-28)
(3.650214e-05 -1.393682e-05 -3.543164e-28)
(3.895318e-05 -1.248867e-05 -5.798665e-25)
(3.393754e-05 -1.851633e-05 -3.15113e-28)
(3.723898e-05 -1.75921e-05 0)
(3.01809e-05 -2.244011e-05 -4.610471e-28)
(3.343905e-05 -2.237876e-05 -5.053143e-25)
(2.578096e-05 -2.448659e-05 -1.406757e-29)
(2.929576e-05 -2.603353e-05 -1.456032e-28)
(2.424133e-05 -2.681203e-05 4.500104e-25)
(1.96318e-05 -2.263447e-05 1.339706e-28)
(2.642995e-05 -5.166443e-06 -5.788834e-26)
(1.818479e-05 -2.708478e-06 -3.266369e-25)
(3.811257e-05 -1.064453e-05 4.04131e-28)
(3.698658e-05 -8.483556e-06 3.603967e-25)
(3.97215e-05 -1.617395e-05 1.982059e-28)
(4.214256e-05 -1.440376e-05 8.805737e-25)
(3.676507e-05 -2.146575e-05 -1.781774e-28)
(4.007381e-05 -2.03024e-05 4.370074e-28)
(3.257827e-05 -2.597839e-05 -1.781353e-28)
(3.574875e-05 -2.582518e-05 -3.659613e-28)
(2.778242e-05 -2.836563e-05 1.164834e-28)
(3.118418e-05 -3.002513e-05 1.586332e-29)
(2.572634e-05 -3.099316e-05 9.810642e-29)
(2.118633e-05 -2.645224e-05 1.42149e-25)
(2.866152e-05 -5.949403e-06 4.378169e-29)
(1.969669e-05 -3.108763e-06 -1.848601e-28)
(4.098449e-05 -1.21895e-05 8.99683e-28)
(3.960959e-05 -9.679399e-06 2.306349e-28)
(4.253595e-05 -1.854292e-05 1.116843e-27)
(4.473909e-05 -1.642691e-05 2.892135e-25)
(3.907462e-05 -2.471736e-05 -4.713144e-26)
(4.219278e-05 -2.322878e-05 1.141457e-24)
(3.438226e-05 -2.988115e-05 -1.719949e-28)
(3.724605e-05 -2.956067e-05 -6.728997e-25)
(2.915832e-05 -3.266176e-05 -3.598618e-26)
(3.222848e-05 -3.437097e-05 5.081962e-29)
(2.635435e-05 -3.557606e-05 6.32906e-29)
(2.205003e-05 -3.066043e-05 1.694493e-25)
(3.063361e-05 -6.781907e-06 3.100167e-26)
(2.107067e-05 -3.53977e-06 -2.315561e-32)
(4.333309e-05 -1.386303e-05 2.582938e-28)
(4.175132e-05 -1.096545e-05 -9.409776e-32)
(4.444138e-05 -2.100314e-05 -9.74713e-27)
(4.633656e-05 -1.853086e-05 5.262914e-28)
(4.033419e-05 -2.81502e-05 3.960548e-26)
(4.29783e-05 -2.623231e-05 6.469508e-28)
(3.511732e-05 -3.406553e-05 -2.219842e-28)
(3.74193e-05 -3.34605e-05 -4.079806e-28)
(2.945938e-05 -3.729266e-05 -6.248033e-26)
(3.193844e-05 -3.899947e-05 2.371959e-28)
(2.563374e-05 -4.047468e-05 8.15456e-29)
(2.182376e-05 -3.522086e-05 -1.743695e-25)
(3.218707e-05 -7.665883e-06 -3.364927e-26)
(2.220706e-05 -4.005068e-06 -3.315812e-31)
(4.476302e-05 -1.561691e-05 2.668276e-28)
(4.311033e-05 -1.234103e-05 -1.299338e-30)
(4.495176e-05 -2.362082e-05 -2.204745e-26)
(4.657166e-05 -2.077162e-05 3.492869e-25)
(4.007262e-05 -3.159448e-05 3.82601e-26)
(4.187027e-05 -2.934958e-05 2.619722e-25)
(3.423844e-05 -3.847079e-05 7.682453e-26)
(3.558341e-05 -3.759529e-05 3.022651e-28)
(2.814774e-05 -4.219513e-05 2.021116e-28)
(2.982282e-05 -4.401292e-05 1.201397e-24)
(2.307301e-05 -4.578332e-05 0)
(1.993737e-05 -4.003305e-05 -1.179433e-29)
(3.312976e-05 -8.618258e-06 0)
(2.301779e-05 -4.546101e-06 -7.304086e-31)
(4.493115e-05 -1.748422e-05 3.060575e-28)
(4.3472e-05 -1.394914e-05 2.779342e-30)
(4.355484e-05 -2.639685e-05 6.310808e-28)
(4.516436e-05 -2.341152e-05 3.157284e-28)
(3.749065e-05 -3.522214e-05 8.505613e-26)
(3.858234e-05 -3.305427e-05 3.240558e-28)
(3.11732e-05 -4.318908e-05 4.884528e-26)
(3.126271e-05 -4.268876e-05 1.73601e-25)
(2.470968e-05 -4.767339e-05 4.288726e-28)
(2.558233e-05 -5.051594e-05 3.883372e-28)
(1.864839e-05 -5.254011e-05 -1.071048e-28)
(1.585449e-05 -4.522493e-05 -2.104697e-28)
(3.335846e-05 -9.810498e-06 -7.747895e-26)
(2.350205e-05 -5.324689e-06 -3.039396e-28)
(4.37207e-05 -1.986689e-05 -5.214819e-28)
(4.294892e-05 -1.633945e-05 5.750364e-30)
(4.022444e-05 -3.003972e-05 9.595809e-30)
(4.246629e-05 -2.752048e-05 -3.621581e-28)
(3.248918e-05 -4.035505e-05 6.442082e-28)
(3.378408e-05 -3.925319e-05 0)
(2.586592e-05 -4.977255e-05 6.239055e-28)
(2.556635e-05 -5.146281e-05 4.978327e-25)
(1.944079e-05 -5.540711e-05 -5.240048e-26)
(2.082244e-05 -6.162495e-05 2.101928e-29)
(1.42501e-05 -6.466848e-05 -6.361856e-28)
(9.75423e-06 -5.212433e-05 2.075394e-25)
(3.308871e-05 -1.178218e-05 8.187695e-26)
(2.388885e-05 -6.781721e-06 -6.20453e-26)
(4.170926e-05 -2.397999e-05 -3.682637e-28)
(4.243563e-05 -2.090661e-05 -4.069531e-28)
(3.605394e-05 -3.671173e-05 -3.718635e-28)
(4.022045e-05 -3.565685e-05 -1.99971e-25)
(2.691358e-05 -5.029675e-05 3.929591e-28)
(3.025096e-05 -5.199064e-05 -2.811218e-29)
(2.067316e-05 -6.304357e-05 2.088239e-25)
(2.179802e-05 -7.049192e-05 3.189004e-28)
(1.557482e-05 -7.107075e-05 -1.150779e-24)
(2.107426e-05 -8.552942e-05 3.808027e-25)
(1.532679e-05 -9.264857e-05 -8.105069e-28)
(4.330174e-06 -6.606175e-05 5.564493e-25)
(3.322122e-05 -1.5823e-05 8.692781e-26)
(2.483365e-05 -9.825673e-06 -3.301706e-28)
(4.095707e-05 -3.257015e-05 -8.167579e-28)
(4.444172e-05 -3.02192e-05 -1.048883e-25)
(3.443711e-05 -5.090343e-05 -4.352358e-28)
(4.257638e-05 -5.25858e-05 3.653117e-29)
(2.516219e-05 -7.210852e-05 -8.915194e-26)
(3.450181e-05 -7.774717e-05 -9.560554e-30)
(2.221136e-05 -9.242316e-05 -2.027472e-25)
(2.484689e-05 -0.0001113901 -6.212781e-28)
(2.094543e-05 -0.0001063891 -7.741484e-25)
(2.622131e-05 -0.0001450043 1.1106e-28)
(2.597625e-05 -0.0001711947 -2.775884e-28)
(7.37221e-06 -0.0001008804 -2.245122e-26)
(3.597421e-05 -2.40763e-05 4.397348e-28)
(2.83997e-05 -1.546557e-05 3.810743e-28)
(4.607573e-05 -5.028777e-05 -8.608465e-27)
(5.480206e-05 -4.703302e-05 -2.216522e-27)
(4.266133e-05 -7.94033e-05 5.607354e-26)
(5.560522e-05 -8.520863e-05 1.421522e-24)
(3.424778e-05 -0.0001169239 -5.277831e-28)
(4.516846e-05 -0.0001360188 1.550801e-27)
(2.902902e-05 -0.0001636602 -7.964335e-25)
(2.503313e-05 -0.0002144802 -2.206655e-23)
(3.18627e-05 -0.0002089871 -1.279387e-28)
(9.682383e-07 -0.000342373 1.752174e-27)
(7.058387e-07 -0.0004893265 1.292976e-25)
(2.592527e-05 -0.0002228445 6.620955e-26)
(4.699915e-05 -3.807876e-05 1.318102e-27)
(4.042678e-05 -2.34574e-05 4.15083e-25)
(6.444319e-05 -8.196606e-05 -3.01564e-25)
(7.104995e-05 -8.262091e-05 9.106337e-28)
(5.832856e-05 -0.0001421682 2.007556e-27)
(4.952949e-05 -0.0001753081 4.680641e-28)
(3.659989e-05 -0.0002333605 3.360341e-29)
(-1.775534e-05 -0.0003438282 1.023046e-22)
(-8.304118e-07 -0.0003920521 -3.416615e-24)
(-0.0001345264 -0.0006671874 8.160698e-27)
(-2.449425e-05 -0.0006134023 1.276475e-25)
(-0.0002167716 -0.00113833 3.331688e-22)
(-0.0001208913 -0.001512196 4.984739e-20)
(-3.847234e-05 -0.0007985082 4.603731e-20)
(6.428522e-05 -6.744787e-05 -8.928352e-26)
(4.26356e-05 -5.249126e-05 -2.306153e-28)
(5.663667e-05 -0.0001746854 -2.551066e-29)
(4.042288e-05 -0.0002056125 9.498077e-29)
(-2.561483e-05 -0.0003781562 1.523677e-28)
(-0.000107409 -0.0005327752 2.927658e-28)
(-0.0001856937 -0.0007822886 9.924094e-27)
(-0.0004125312 -0.001179732 -5.634055e-22)
(-0.000338942 -0.001409917 1.644645e-25)
(-0.000593226 -0.001993447 6.362347e-22)
(-0.0002990891 -0.001963858 1.295085e-20)
(-0.0003088045 -0.002480489 2.032218e-20)
(0.0001141244 -0.002520587 -5.13868e-19)
(-8.990939e-05 -0.00195294 9.336026e-19)
(1.934921e-05 -0.0001901905 -5.323587e-28)
(1.155717e-06 -0.0001625801 -2.409695e-23)
(-0.0001188682 -0.0005584963 -1.894919e-24)
(-0.0001704475 -0.0006534093 1.198692e-28)
(-0.0004800379 -0.001321751 -1.82426e-26)
(-0.0006425145 -0.001639741 1.149192e-27)
(-0.0008121134 -0.002400422 -1.74883e-22)
(-0.0009582684 -0.002789328 -1.809025e-25)
(-0.0005589683 -0.00300987 1.13378e-20)
(-0.00052831 -0.003240553 -7.296482e-20)
(9.519543e-05 -0.002530821 -2.678099e-20)
(0.0002312796 -0.002974978 3.964507e-19)
(0.000659669 -0.002494594 2.058213e-18)
(0.0004607745 -0.001207937 1.815165e-18)
(-0.0001855443 -0.0006256873 -1.493701e-27)
(-0.0001465789 -0.0004932055 -1.493905e-27)
(-0.0006839988 -0.001733309 8.581817e-28)
(-0.0007048798 -0.00178296 7.125495e-28)
(-0.001104218 -0.003072837 6.246955e-23)
(-0.00114713 -0.003182181 -7.36415e-26)
(-0.0006940103 -0.003554633 1.77228e-20)
(-0.0007001683 -0.003586194 2.088165e-20)
(0.0002670252 -0.002745036 4.989118e-19)
(0.000253186 -0.003050981 -1.713971e-19)
(0.0008081093 -0.001206655 3.155203e-19)
(0.0009294673 -0.002424621 -4.648217e-19)
(0.000956097 -0.002062367 -2.151867e-19)
(0.0008015917 0.0006268477 2.515097e-19)
(-0.0006581503 -0.001651305 7.111381e-28)
(-0.0004476596 -0.001129939 0)
(-0.001167818 -0.003232238 6.302862e-23)
(-0.001106548 -0.00301031 5.319075e-26)
(-0.0007580222 -0.003660135 1.207547e-20)
(-0.0008052235 -0.003576134 1.173396e-20)
(0.0002110065 -0.002705059 -3.620463e-20)
(0.0001292791 -0.002931561 -2.770688e-19)
(0.0008391823 -0.001200099 -1.896161e-19)
(0.0007532375 -0.002278926 -5.316158e-19)
(0.001136727 0.0004861201 -6.695611e-18)
(0.0009606372 -0.001969076 -1.41699e-18)
(0.001255301 -0.00175756 -2.30201e-18)
(0.000879389 0.002623125 -8.077397e-18)
(-0.0008919755 -0.002473806 5.217536e-26)
(-0.0006612654 -0.001619136 -1.3263e-26)
(-0.0007494041 -0.00333738 1.710329e-22)
(-0.0007714222 -0.003008389 -1.321786e-21)
(8.437212e-05 -0.002630825 -2.208659e-19)
(-7.293331e-06 -0.002622436 -1.491741e-19)
(0.000681373 -0.001181754 -3.976275e-20)
(0.0006123273 -0.002022306 -1.095291e-18)
(0.0008852665 0.0004341032 -1.194649e-18)
(0.0008016496 -0.001793933 -1.446255e-18)
(0.0009453833 0.002325865 -6.363838e-18)
(0.0008087758 -0.001764657 1.231978e-18)
(0.0007873037 -0.001707988 -4.457519e-19)
(0.001272455 0.004661911 6.437627e-17)
(-0.000549355 -0.002133567 3.141849e-23)
(-0.0004517388 -0.001345909 2.122897e-22)
(-4.474733e-05 -0.002225214 9.560206e-22)
(-7.227657e-05 -0.001904431 9.021042e-20)
(0.000471566 -0.001237824 -2.492948e-19)
(0.0003963621 -0.00161484 4.069117e-19)
(0.0007231467 0.0001774868 -5.113153e-19)
(0.0005643023 -0.001492458 -2.217006e-18)
(0.0007546659 0.002015886 5.630765e-18)
(0.0008330945 -0.001525467 -1.02875e-17)
(0.000795594 0.004300386 -7.061784e-18)
(0.0006777982 -0.001650987 1.997721e-18)
(0.0007223276 -0.001556234 1.405625e-17)
(0.0008409711 0.007168588 1.236369e-17)
(1.897036e-05 -0.001093426 5.345186e-22)
(9.542108e-05 -0.0004470665 -3.802361e-21)
(0.0003670614 -0.0008900696 1.865397e-19)
(0.0004377826 -0.0006920809 -5.511667e-20)
(0.0004915876 6.564209e-05 -1.798175e-19)
(0.0004762404 -0.0009208112 2.249048e-19)
(0.0005264352 0.001526484 6.7719e-18)
(0.000406376 -0.001191252 -2.730887e-19)
(0.0007487559 0.003570561 -1.38472e-17)
(0.0003901792 -0.001424161 -3.49466e-18)
(0.0009821652 0.006198444 1.44781e-17)
(0.0004209712 -0.001522262 5.244972e-19)
(0.001547503 -0.001115338 2.286738e-17)
(0.0008853398 0.009730931 2.388438e-18)
(0.0005083763 4.10901e-05 -5.979243e-21)
(0.000617032 0.0004819088 -5.360608e-20)
(0.0005401765 0.0003645425 7.590969e-20)
(0.0007224109 0.0002869964 -5.451674e-19)
(0.0004030002 0.001294213 5.921533e-19)
(0.0004655807 -0.0003991093 9.278695e-19)
(0.0003432647 0.002956171 3.624445e-18)
(0.0002722117 -0.0009588212 -6.212044e-18)
(0.0004344218 0.00532198 -1.215739e-17)
(0.0002194087 -0.001281815 -1.390474e-18)
(0.0006694788 0.008355045 -1.653355e-18)
(0.0002662293 -0.001331763 -1.266329e-17)
(0.000552538 -0.001015017 1.576621e-17)
(0.001408524 0.01211512 -1.935399e-18)
(0.0008215473 0.001042482 -2.421987e-20)
(0.0009081971 0.001113572 -3.714579e-21)
(0.000630631 0.001530894 3.434729e-19)
(0.0008864366 0.001075368 -4.689232e-19)
(0.0003286522 0.002486713 1.687908e-18)
(0.0004727958 9.440279e-05 3.726023e-20)
(0.0002114175 0.004345468 2.400734e-19)
(0.0001936053 -0.0007135943 -6.602044e-19)
(0.0002954427 0.007081016 2.709768e-18)
(0.0001351315 -0.00110592 2.140665e-18)
(0.0005333147 0.01056387 -1.70898e-17)
(0.0002157365 -0.00111088 -4.265814e-18)