/*--------------------------------*- C++ -*----------------------------------*\
| =========                 |                                                 |
| \\      /  F ield         | OpenFOAM: The Open Source CFD Toolbox           |
|  \\    /   O peration     | Version:  2206                                  |
|   \\  /    A nd           | Website:  www.openfoam.com                      |
|    \\/     M anipulation  |                                                 |
\*---------------------------------------------------------------------------*/
FoamFile
{
    version     2.0;
    format      ascii;
    arch        "LSB;label=32;scalar=64";
    class       surfaceVectorField;
    location    "1.6";
    object      ddtCorrDdt0(Ufb);
}
// * * * * * * * * * * * * * * * * * * * * * * * * * * * * * * * * * * * * * //

dimensions      [0 1 -2 0 0 0 0];

internalField   nonuniform List<vector> 
26037
(
(5.649203e-05 0.0001356904 2.050184e-21)
(8.758016e-05 4.673584e-05 -5.076907e-27)
(4.516114e-05 -2.521236e-05 -7.046148e-22)
(0.0001087305 -2.974724e-05 1.142457e-23)
(4.532618e-05 -0.0001223995 -9.475746e-28)
(7.504022e-05 -7.783777e-05 -9.497264e-28)
(4.670336e-05 -0.0001796177 -2.304711e-27)
(6.910739e-05 -0.0001501049 0)
(4.683036e-05 -0.0002240915 -4.534059e-24)
(6.74043e-05 -0.0002029393 -2.342745e-27)
(4.66017e-05 -0.0002641937 -6.22367e-27)
(6.572211e-05 -0.0002471135 -3.105651e-26)
(6.381922e-05 -0.0002853433 -3.380052e-27)
(4.604074e-05 -0.0003009463 1.770737e-23)
(9.428237e-05 2.683132e-05 -6.069572e-29)
(0.0002461431 -1.717081e-05 6.508561e-27)
(9.914783e-05 -5.090442e-05 -6.127909e-29)
(0.0001547138 -3.205873e-05 -4.995415e-27)
(9.280315e-05 -0.0001246431 0)
(0.0001214435 -9.230267e-05 1.05466e-27)
(8.910142e-05 -0.0001810156 -3.832121e-29)
(0.000118883 -0.0001548196 3.491975e-27)
(8.666761e-05 -0.0002253153 -5.675051e-29)
(0.000109233 -0.0002048503 -2.87583e-25)
(8.330391e-05 -0.000266017 -5.397966e-29)
(0.0001043824 -0.0002500181 -1.844141e-29)
(9.942458e-05 -0.0002892423 -3.199165e-26)
(7.908474e-05 -0.0003033182 -3.728738e-27)
(0.0002016658 -1.65752e-05 1.548015e-27)
(0.0002176048 -1.622663e-05 3.047677e-22)
(0.000161867 -7.685726e-05 -3.956876e-27)
(0.0001889786 -5.610282e-05 -1.330534e-22)
(0.0001427887 -0.0001340173 -3.243782e-23)
(0.0001700765 -0.0001099053 -9.098351e-27)
(0.0001348355 -0.0001826634 -4.379652e-24)
(0.0001645242 -0.0001621745 -1.122992e-27)
(0.0001282032 -0.0002302312 2.409632e-27)
(0.0001544297 -0.000210911 1.045148e-25)
(0.0001209817 -0.0002725844 -1.969371e-32)
(0.0001448345 -0.0002568447 0)
(0.0001356089 -0.000297307 6.137746e-26)
(0.0001126988 -0.0003103143 3.873077e-27)
(0.0002257015 -3.903365e-05 -5.065305e-27)
(0.0002478928 -2.185125e-05 6.178144e-27)
(0.0002075514 -8.885998e-05 -2.151667e-26)
(0.0002343747 -6.871096e-05 -9.892945e-23)
(0.0001939608 -0.0001425151 -8.753213e-25)
(0.0002230167 -0.0001211781 -1.065822e-22)
(0.0001826276 -0.0001916698 -4.537247e-27)
(0.0002126076 -0.0001722182 -6.896765e-24)
(0.0001715034 -0.0002394878 1.451711e-28)
(0.0002001966 -0.0002211357 2.72028e-27)
(0.0001599418 -0.0002832082 6.328858e-29)
(0.0001868301 -0.0002680079 -2.832366e-31)
(0.0001727792 -0.0003099681 3.64891e-27)
(0.0001471525 -0.0003217615 -3.918618e-27)
(0.0002672123 -4.780182e-05 -2.382522e-25)
(0.0002974273 -2.47358e-05 -8.534706e-30)
(0.0002572016 -9.930363e-05 -1.902304e-25)
(0.0002869672 -7.690649e-05 -6.723641e-27)
(0.000244696 -0.0001531383 -2.496286e-26)
(0.0002772179 -0.0001316707 -1.285299e-26)
(0.0002307503 -0.0002034318 1.150143e-24)
(0.000263772 -0.0001851133 -2.046991e-23)
(0.0002159995 -0.000252071 1.435537e-23)
(0.0002484681 -0.0002352285 -3.138842e-24)
(0.0002005204 -0.0002974998 -1.525168e-23)
(0.0002307097 -0.0002830659 -3.399014e-27)
(0.0002119863 -0.0003275124 -4.331871e-25)
(0.000182967 -0.0003379388 3.585615e-27)
(0.0003211298 -5.179295e-05 5.841409e-29)
(0.0003517834 -2.797821e-05 0)
(0.0003116894 -0.0001090356 -4.095085e-25)
(0.0003462208 -8.52004e-05 -9.344491e-27)
(0.0002984899 -0.0001652807 8.875454e-25)
(0.0003344738 -0.0001435442 -1.085267e-26)
(0.0002825015 -0.0002188891 -1.365823e-24)
(0.0003186989 -0.0001999303 -9.667607e-27)
(0.0002637574 -0.0002688897 -3.052576e-27)
(0.0002998441 -0.000253767 -1.881386e-23)
(0.0002433469 -0.0003161607 1.735865e-23)
(0.0002780447 -0.0003035059 -2.979474e-27)
(0.0002539645 -0.000349886 -8.218298e-27)
(0.0002209904 -0.0003592222 1.744774e-23)
(0.0003813176 -6.043078e-05 -9.398002e-27)
(0.0004149723 -3.160812e-05 2.239558e-26)
(0.0003710592 -0.0001202817 -2.015553e-26)
(0.0004084311 -9.467882e-05 -3.041771e-23)
(0.0003567127 -0.0001795591 7.146454e-24)
(0.0003958285 -0.0001571066 -2.559004e-23)
(0.000338199 -0.0002372209 -1.008649e-26)
(0.0003781123 -0.0002177771 -2.422521e-27)
(0.0003157136 -0.0002912143 -2.02619e-24)
(0.000355615 -0.0002759588 -2.643066e-26)
(0.000289938 -0.0003406635 4.734423e-28)
(0.0003293432 -0.0003298608 9.901336e-28)
(0.0002995788 -0.0003785278 5.896439e-28)
(0.0002616194 -0.0003857192 -1.960009e-28)
(0.0004455819 -6.672268e-05 1.144332e-26)
(0.0004844193 -3.45135e-05 2.438632e-23)
(0.0004357773 -0.0001320983 -2.153624e-26)
(0.0004763059 -0.0001040346 1.442264e-26)
(0.0004198315 -0.0001965368 -1.068446e-26)
(0.0004626344 -0.000172453 1.961899e-27)
(0.0003979629 -0.0002593987 -1.892121e-26)
(0.0004423221 -0.0002390217 3.775572e-28)
(0.0003714973 -0.0003177211 -1.826249e-26)
(0.0004160535 -0.000302471 -5.606503e-23)
(0.0003408752 -0.000371088 -2.115539e-24)
(0.0003850003 -0.000361089 1.087286e-27)
(0.0003496199 -0.0004139323 5.937207e-28)
(0.0003061724 -0.000418743 -4.619416e-27)
(0.0005176581 -7.25844e-05 2.53728e-26)
(0.0005597626 -3.803538e-05 -7.053834e-23)
(0.00050687 -0.0001455884 3.791821e-26)
(0.0005520172 -0.0001147807 8.569364e-23)
(0.0004887164 -0.0002167499 -2.046803e-24)
(0.0005364589 -0.0001904799 3.875476e-23)
(0.0004631779 -0.0002858181 -4.300852e-26)
(0.0005129562 -0.000263916 -2.629124e-26)
(0.000432168 -0.0003490621 -2.2076e-24)
(0.0004818217 -0.0003336348 -7.495312e-23)
(0.0003961935 -0.0004071713 5.700604e-28)
(0.0004458736 -0.0003977079 5.698847e-28)
(0.0004043578 -0.0004553175 0)
(0.0003554917 -0.0004590169 7.963496e-27)
(0.0005978055 -8.096799e-05 -6.175709e-28)
(0.000643659 -4.231168e-05 -2.983286e-26)
(0.0005854667 -0.0001617658 4.336686e-26)
(0.0006357752 -0.0001275576 2.923157e-26)
(0.0005644786 -0.0002399173 -1.209401e-26)
(0.000617592 -0.000211584 4.645378e-26)
(0.0005348448 -0.0003155201 -2.648362e-26)
(0.0005904055 -0.0002928926 -8.923272e-23)
(0.0004988171 -0.0003855187 -1.459021e-29)
(0.0005547897 -0.0003697812 8.071154e-23)
(0.0004569003 -0.0004493337 0)
(0.000512964 -0.0004402398 0)
(0.0004645461 -0.0005035953 0)
(0.0004093494 -0.0005060692 1.072543e-26)
(0.0006862342 -9.096302e-05 0)
(0.0007378165 -4.733267e-05 0)
(0.000672176 -0.0001797355 3.230496e-26)
(0.0007277948 -0.0001424406 -3.820007e-26)
(0.0006481822 -0.0002664043 2.491701e-27)
(0.0007076113 -0.0002358474 1.088698e-22)
(0.0006141544 -0.0003504677 -3.030719e-26)
(0.0006766061 -0.0003261417 3.777962e-27)
(0.0005725705 -0.0004278416 1.687538e-29)
(0.000635614 -0.0004114166 -9.276917e-23)
(0.0005238498 -0.0004982881 0)
(0.0005872541 -0.0004895296 0)
(0.0005309769 -0.0005595974 2.874199e-26)
(0.0004687548 -0.0005606496 -1.038944e-26)
(0.0007846797 -0.0001007472 -3.818418e-26)
(0.0008420791 -5.32823e-05 0)
(0.0007686178 -0.0002004504 -1.345832e-27)
(0.0008311495 -0.0001595148 -1.269581e-22)
(0.000741357 -0.0002971144 7.127448e-26)
(0.0008080621 -0.0002634553 3.648654e-26)
(0.0007023499 -0.0003906758 2.130838e-24)
(0.0007726344 -0.0003642204 1.138287e-22)
(0.0006544538 -0.0004766517 -3.335694e-26)
(0.0007255844 -0.0004593089 -7.056994e-26)
(0.0005983092 -0.0005548609 2.873209e-26)
(0.0006699387 -0.0005463385 3.414427e-26)
(0.0006060112 -0.0006245711 9.080913e-23)
(0.0005352569 -0.0006251115 -7.272329e-24)
(0.0008946478 -0.0001128782 -4.373998e-26)
(0.0009588908 -5.987597e-05 -5.046141e-26)
(0.0008764963 -0.0002242417 1.302578e-24)
(0.000946624 -0.0001788314 -4.374714e-26)
(0.0008454018 -0.0003322234 3.879058e-26)
(0.0009203496 -0.0002949457 -8.96e-28)
(0.0008007467 -0.0004367478 1.889122e-27)
(0.0008800076 -0.0004077719 3.903359e-26)
(0.0007459674 -0.0005325912 -3.008957e-27)
(0.0008260325 -0.0005141015 -1.388762e-22)
(0.0006822343 -0.0006205153 3.417181e-26)
(0.000763049 -0.0006114142 1.157448e-22)
(0.0006905431 -0.0006995639 -1.06959e-22)
(0.0006103674 -0.0006994677 2.706689e-29)
(0.001017825 -0.0001266559 -5.047114e-26)
(0.001090004 -6.731923e-05 -1.715646e-22)
(0.000997181 -0.0002513239 -4.727624e-28)
(0.001075962 -0.0002007609 0)
(0.000961607 -0.0003720918 2.064555e-24)
(0.001046045 -0.0003309593 -1.533555e-27)
(0.0009110989 -0.0004881816 -8.580948e-26)
(0.0009995567 -0.0004576294 6.040433e-26)
(0.000849113 -0.0005969502 -4.559804e-26)
(0.0009401001 -0.0005754717 -1.589157e-22)
(0.0007766419 -0.0006957592 3.95737e-27)
(0.0008678414 -0.0006856777 3.881878e-26)
(0.000785656 -0.0007850714 4.682866e-27)
(0.0006948633 -0.0007844298 -6.901954e-27)
(0.00115608 -0.0001422719 -5.728189e-26)
(0.001237363 -7.579156e-05 -5.72555e-26)
(0.001132577 -0.0002821583 -1.05959e-27)
(0.001221189 -0.0002256512 -6.354088e-26)
(0.001091872 -0.0004178462 3.435136e-24)
(0.001187521 -0.0003716142 -1.05986e-27)
(0.001036097 -0.0005481075 -4.861981e-23)
(0.001136428 -0.00051325 1.497026e-22)
(0.0009657794 -0.000670195 -3.356893e-26)
(0.001069011 -0.0006458937 -3.168108e-26)
(0.0008829033 -0.0007812479 3.954989e-26)
(0.0009858386 -0.0007702444 2.481559e-27)
(0.0008927413 -0.0008820767 1.366858e-22)
(0.0007900637 -0.0008809256 7.414896e-26)
(0.001311451 -0.0001597061 -6.351019e-26)
(0.001402891 -8.536964e-05 0)
(0.001284854 -0.0003169563 -6.35537e-26)
(0.001384564 -0.0002537866 -2.187033e-22)
(0.001239719 -0.0004693199 5.992659e-26)
(0.001346499 -0.00041744 -6.716436e-28)
(0.001177093 -0.0006148112 -8.300739e-24)
(0.001289003 -0.0005756135 5.906217e-26)
(0.00109586 -0.0007532205 4.56067e-27)
(0.001212546 -0.0007262127 2.074789e-27)
(0.001002399 -0.0008781202 -9.854275e-24)
(0.001118475 -0.0008660064 2.480481e-27)
(0.001013316 -0.0009917328 4.77082e-26)
(0.000897411 -0.0009902115 5.088698e-26)
(0.001486192 -0.0001791925 -1.438701e-25)
(0.001588757 -9.59271e-05 -8.309731e-26)
(0.001456238 -0.0003563372 -1.446401e-25)
(0.001568747 -0.0002853444 -2.391592e-22)
(0.001405291 -0.0005277245 3.254512e-24)
(0.001525499 -0.0004695002 -2.184407e-27)
(0.001334522 -0.0006911445 -9.421865e-28)
(0.001460551 -0.0006472284 -1.970959e-27)
(0.001242475 -0.0008470237 0)
(0.001374063 -0.0008167204 0)
(0.00113691 -0.0009875159 0)
(0.00126781 -0.0009740685 -6.708505e-26)
(0.001148944 -0.00111554 -7.197743e-27)
(0.001018229 -0.001113443 -3.554692e-27)
(0.001682898 -0.0002021914 -6.975484e-25)
(0.001798651 -0.0001076094 -2.831883e-22)
(0.001649106 -0.0004010112 2.191906e-24)
(0.001775654 -0.0003207732 -1.740046e-25)
(0.001591545 -0.0005936596 3.679856e-24)
(0.001726901 -0.0005282605 -4.064363e-27)
(0.001511596 -0.0007773884 -1.060241e-27)
(0.001653617 -0.0007281153 -3.391059e-27)
(0.001407628 -0.0009527531 -6.786491e-26)
(0.001555862 -0.0009186743 0)
(0.001288415 -0.001111018 1.260836e-23)
(0.001436181 -0.001095674 -2.289872e-22)
(0.001301743 -0.001255227 -1.124329e-26)
(0.001154225 -0.001252731 1.396426e-23)
(0.001904474 -0.0002276104 -1.035095e-24)
(0.002035168 -0.0001208717 -2.003687e-25)
(0.001866118 -0.0004512604 2.701703e-24)
(0.002008635 -0.0003607281 -3.11631e-22)
(0.001801206 -0.0006679591 8.315889e-24)
(0.001953679 -0.0005944166 -1.031042e-25)
(0.001710782 -0.0008746218 -2.385327e-27)
(0.001871046 -0.0008195081 -2.34716e-27)
(0.001593888 -0.001071283 -7.323029e-26)
(0.001760354 -0.001034612 2.526842e-26)
(0.00145941 -0.001250239 -7.637441e-26)
(0.001626723 -0.001230635 -3.483692e-26)
(0.001473866 -0.001412369 5.034787e-27)
(0.001307551 -0.001409715 1.564194e-23)
(0.002154059 -0.0002560503 -3.14493e-25)
(0.00230152 -0.0001358857 -3.591677e-22)
(0.002110559 -0.0005077378 -3.087387e-25)
(0.002271104 -0.0004057135 -3.505496e-22)
(0.002037523 -0.0007516623 -1.006265e-25)
(0.002209226 -0.0006686792 -3.367977e-22)
(0.001934952 -0.0009847631 2.503936e-26)
(0.002116903 -0.0009218038 -1.052656e-25)
(0.001806437 -0.001204102 -1.103966e-22)
(0.001995015 -0.001163394 2.889653e-26)
(0.001653503 -0.001406631 -3.706883e-23)
(0.00184508 -0.001384691 -5.318949e-26)
(0.001668382 -0.001589553 8.710532e-26)
(0.00148053 -0.001586504 9.080916e-27)
(0.002435144 -0.0002880181 8.407581e-25)
(0.002601464 -0.0001528002 -1.203082e-25)
(0.002385842 -0.0005711042 -4.181782e-24)
(0.002566646 -0.0004562837 -3.958332e-22)
(0.002303767 -0.0008452981 -3.31373e-25)
(0.002496806 -0.0007520886 -3.838141e-22)
(0.002190049 -0.001106624 -1.267345e-23)
(0.002392779 -0.001036564 -3.682504e-22)
(0.002047087 -0.001352573 -8.571714e-26)
(0.00225642 -0.001306094 3.735121e-27)
(0.001870309 -0.001583034 -1.06784e-26)
(0.002087146 -0.001558851 -3.008336e-22)
(0.001887359 -0.001789192 2.862437e-22)
(0.001675475 -0.001785811 1.974672e-23)
(0.00275167 -0.0003239323 -1.320269e-25)
(0.002939218 -0.0001717984 1.533377e-25)
(0.002695827 -0.0006423155 -4.437144e-24)
(0.002899442 -0.0005130455 -1.320462e-25)
(0.002603409 -0.0009508473 -3.714052e-25)
(0.002820792 -0.0008457611 -1.270629e-25)
(0.002475812 -0.001245148 -2.44753e-25)
(0.002703854 -0.001165894 -4.144678e-22)
(0.002315002 -0.001521722 -1.010766e-25)
(0.002550673 -0.001469057 1.339177e-25)
(0.002115113 -0.001781428 -1.014292e-25)
(0.002359511 -0.001753721 -1.032185e-25)
(0.002134616 -0.002013047 -3.476068e-22)
(0.001895465 -0.002010227 -6.962664e-26)
(0.003108035 -0.0003641783 1.533655e-25)
(0.003319413 -0.0001930675 5.140178e-22)
(0.003044905 -0.0007221096 0)
(0.003274051 -0.0005765749 0)
(0.002941028 -0.001069129 3.645775e-27)
(0.003185657 -0.0009506113 0)
(0.002797678 -0.00140034 -1.635189e-23)
(0.003054394 -0.001310802 4.710445e-22)
(0.0026163 -0.001711538 1.366691e-25)
(0.002882269 -0.001652657 4.591412e-22)
(0.002391834 -0.002002897 -1.078763e-25)
(0.002666307 -0.001975179 -1.334157e-25)
(0.002415551 -0.00226083 -1.07177e-25)
(0.002144272 -0.002262542 -2.140071e-25)
(0.003509075 -0.0004091604 3.462191e-25)
(0.003747151 -0.0002168088 5.767913e-22)
(0.003437855 -0.0008112969 0)
(0.003695501 -0.0006474676 1.033717e-27)
(0.003321397 -0.001201434 1.514469e-25)
(0.003596414 -0.001067617 1.859725e-25)
(0.003160937 -0.00157438 1.732703e-23)
(0.003449636 -0.001472494 1.561824e-25)
(0.002956257 -0.001926359 1.586925e-25)
(0.00325851 -0.00185706 4.765361e-22)
(0.002710558 -0.002251996 -1.342523e-25)
(0.003022345 -0.002220324 -3.678155e-22)
(0.002740949 -0.002544128 0)
(0.002427766 -0.002546241 1.063746e-25)
(0.003960072 -0.0004592744 1.963409e-25)
(0.004227961 -0.0002432221 1.951911e-25)
(0.003879882 -0.0009106561 -5.611512e-24)
(0.004169244 -0.0007263314 -2.139778e-25)
(0.003749568 -0.001348795 1.907154e-25)
(0.004058382 -0.001197854 6.154409e-22)
(0.003570488 -0.00176771 -1.986066e-23)
(0.003894243 -0.001652683 4.711004e-27)
(0.003344404 -0.002162024 -1.450423e-25)
(0.003680382 -0.002084807 -5.779388e-22)
(0.00307328 -0.002528332 -1.552528e-25)
(0.003417485 -0.002489786 -1.195037e-25)
(0.003100564 -0.002864071 1.837461e-26)
(0.002744434 -0.002865244 1.025016e-25)
(0.004466775 -0.000514913 -2.148735e-25)
(0.004767847 -0.0002724916 -2.480578e-25)
(0.004376722 -0.001021045 -7.338721e-27)
(0.004701276 -0.0008137317 -7.050785e-22)
(0.004231301 -0.001512825 2.078921e-25)
(0.004577712 -0.001342327 4.418212e-25)
(0.004031545 -0.001983957 -1.726723e-25)
(0.004395021 -0.001852997 0)
(0.003779791 -0.002428872 -5.182757e-23)
(0.004157055 -0.002339349 -1.876421e-25)
(0.003476654 -0.002842835 -7.820755e-23)
(0.003864302 -0.002796041 3.185474e-26)
(0.00350841 -0.003221106 3.899848e-26)
(0.003104344 -0.003226131 -3.003457e-27)
(0.005035386 -0.0005763515 -4.902842e-25)
(0.00537313 -0.0003047802 -7.918129e-22)
(0.004934648 -0.001143122 -8.466638e-27)
(0.005298014 -0.0009099767 -5.149384e-25)
(0.004773042 -0.001694426 2.34124e-25)
(0.005160861 -0.001501785 7.713293e-22)
(0.004551201 -0.002223594 -1.49315e-26)
(0.004958376 -0.002074426 0)
(0.004271459 -0.00272466 5.617941e-23)
(0.004694604 -0.002621113 -1.493364e-26)
(0.003933132 -0.003192327 -8.356748e-23)
(0.004369648 -0.003137119 -2.188946e-25)
(0.003973175 -0.0036236 4.205109e-26)
(0.003518103 -0.00362769 1.744383e-25)
(0.005672504 -0.0006433408 -5.51971e-25)
(0.006050309 -0.000339899 -5.939838e-25)
(0.005560499 -0.001277307 -9.035275e-27)
(0.005966601 -0.00101526 -8.999472e-22)
(0.005381522 -0.001894556 2.638613e-25)
(0.005814888 -0.001676937 2.636546e-25)
(0.005136161 -0.002488094 0)
(0.005591293 -0.002318156 2.686676e-25)
(0.004827084 -0.003051946 -2.184912e-25)
(0.005300275 -0.002931311 -1.869597e-26)
(0.004451382 -0.00358256 -2.016055e-25)
(0.004944524 -0.003510343 -6.694242e-22)
(0.004521644 -0.00405378 2.750746e-22)
(0.004014004 -0.004074431 3.951741e-22)
(0.006384963 -0.0007142832 2.075868e-24)
(0.006804101 -0.0003781299 -9.15626e-22)
(0.006261834 -0.001423794 -3.085509e-25)
(0.00671555 -0.001126447 -3.093189e-25)
(0.006064069 -0.002114103 2.684478e-25)
(0.006547603 -0.00186778 -3.395096e-25)
(0.005793273 -0.002778685 5.442099e-23)
(0.006301232 -0.002585854 9.739006e-22)
(0.005451692 -0.003410484 -4.905971e-25)
(0.005979965 -0.003273708 -3.195802e-25)
(0.005037522 -0.003999473 -8.908703e-23)
(0.00558279 -0.003924936 -9.647906e-22)
(0.005102922 -0.004529853 -1.016194e-21)
(0.004548572 -0.004532115 -3.881921e-22)
(0.007180678 -0.0007905464 -3.551859e-25)
(0.007647439 -0.0004169157 -3.519521e-25)
(0.007047506 -0.001581046 -3.403558e-25)
(0.007552405 -0.001247434 0)
(0.006829493 -0.002350772 1.505774e-23)
(0.007366175 -0.002073859 -1.111349e-21)
(0.006532727 -0.003097555 1.063916e-26)
(0.007100367 -0.002877451 3.109771e-25)
(0.006155703 -0.003810879 -8.588084e-25)
(0.006748558 -0.003650819 -1.050487e-21)
(0.005695217 -0.004482861 -8.118989e-25)
(0.00631163 -0.00438877 -1.102976e-21)
(0.005782579 -0.005084833 3.410313e-26)
(0.005142014 -0.005106801 -6.785673e-25)
(0.008066043 -0.0008724724 0)
(0.008581151 -0.0004583709 -4.463164e-25)
(0.007920496 -0.00175044 -7.52543e-25)
(0.008477481 -0.001381526 4.298875e-25)
(0.007686572 -0.002612291 -7.497221e-25)
(0.008283005 -0.002287755 -1.217599e-21)
(0.007364425 -0.003445714 -6.783127e-25)
(0.007993793 -0.003189555 0)
(0.006954405 -0.004247848 -9.945178e-25)
(0.007614272 -0.00405993 -1.162392e-21)
(0.006451975 -0.005014166 -2.991936e-26)
(0.007143448 -0.004894132 -3.154928e-25)
(0.006571565 -0.005686483 1.096789e-21)
(0.005844207 -0.005736651 2.908585e-25)
(0.00904354 -0.0009632125 6.116332e-24)
(0.009615257 -0.0005036974 -9.329112e-22)
(0.008894529 -0.001924899 8.478563e-25)
(0.009511243 -0.001519014 9.388241e-22)
(0.008649784 -0.002882891 4.15073e-25)
(0.009309893 -0.002524072 1.989998e-21)
(0.008299869 -0.003821623 -3.830526e-25)
(0.00900168 -0.003512628 9.143466e-25)
(0.007856457 -0.004722689 -3.829621e-25)
(0.008588406 -0.004498063 -7.849299e-25)
(0.007314735 -0.005585845 2.539322e-25)
(0.008081879 -0.005441233 3.439452e-26)
(0.007464709 -0.006341591 2.13773e-25)
(0.006663495 -0.006404094 1.968347e-22)
(0.01012283 -0.001057532 -1.098383e-26)
(0.01075367 -0.0005508843 -4.959667e-25)
(0.009970425 -0.002113537 1.89189e-24)
(0.0106501 -0.00165769 4.896439e-25)
(0.009723141 -0.0031657 2.339191e-24)
(0.01045255 -0.002767831 7.843331e-22)
(0.009356292 -0.004218377 -7.609807e-23)
(0.01013985 -0.003861304 2.387956e-21)
(0.008876173 -0.005234245 -3.676428e-25)
(0.009688878 -0.004962598 -1.458215e-21)
(0.008294841 -0.006216491 -6.837175e-23)
(0.009151131 -0.006029909 1.103548e-25)
(0.008487459 -0.007060757 1.388085e-25)
(0.007588854 -0.007152052 1.730287e-22)
(0.01131065 -0.001156434 -6.873775e-24)
(0.01200213 -0.0006012521 -7.221288e-29)
(0.01116326 -0.002306482 5.496384e-25)
(0.01189415 -0.001805995 -2.283069e-28)
(0.0109124 -0.003459322 -5.387317e-23)
(0.01170172 -0.003009572 1.124472e-24)
(0.01052771 -0.004629711 2.676186e-23)
(0.01137821 -0.004232481 1.349663e-24)
(0.0100315 -0.005776715 -4.711052e-25)
(0.01092908 -0.005425577 -8.656171e-25)
(0.009416107 -0.006893189 -1.203013e-22)
(0.01036722 -0.006645195 5.087515e-25)
(0.00966914 -0.007831367 1.787006e-25)
(0.0086623 -0.007973882 -1.54756e-22)
(0.01262302 -0.001258257 7.356958e-24)
(0.01336419 -0.0006487857 -9.094141e-28)
(0.01247077 -0.002509341 5.723043e-25)
(0.0132513 -0.001948735 -2.820233e-27)
(0.01221443 -0.003766084 -1.159736e-23)
(0.0130699 -0.003250371 8.828004e-22)
(0.01184752 -0.005036616 1.41031e-22)
(0.01277415 -0.004582719 8.724998e-22)
(0.01135191 -0.006319445 9.223262e-23)
(0.01233814 -0.005913648 6.376556e-25)
(0.0107066 -0.007603477 4.325161e-25)
(0.01176573 -0.007250144 2.333915e-21)
(0.0110342 -0.008636563 0)
(0.009911441 -0.008852547 -2.839655e-26)
(0.01403387 -0.001345965 0)
(0.01482525 -0.000688771 -2.033491e-27)
(0.01389025 -0.002688402 6.630971e-25)
(0.01471119 -0.002072359 6.12654e-27)
(0.01366327 -0.004043794 1.363708e-24)
(0.01454827 -0.003463969 6.84488e-25)
(0.01331309 -0.005431131 9.677279e-23)
(0.01429303 -0.004884638 6.98513e-25)
(0.01284737 -0.006850906 8.387197e-23)
(0.01391482 -0.006363839 7.807173e-22)
(0.01220243 -0.008322328 9.028085e-25)
(0.01338383 -0.00785857 8.167249e-25)
(0.01262017 -0.009448044 -2.346843e-25)
(0.01137188 -0.009775966 -5.023408e-25)
(0.01553882 -0.001419875 8.967368e-24)
(0.01637141 -0.000720237 -8.378016e-25)
(0.01540887 -0.002843231 7.643413e-24)
(0.01626323 -0.00217221 1.271618e-26)
(0.01521729 -0.004290333 2.122844e-26)
(0.01612996 -0.003643373 -7.94537e-25)
(0.0149227 -0.005775252 1.39183e-24)
(0.01592043 -0.005157583 0)
(0.01450536 -0.007328401 1.349676e-24)
(0.01561448 -0.006741389 8.484907e-22)
(0.01388894 -0.008996484 -2.56375e-22)
(0.01513341 -0.008443103 3.29544e-26)
(0.01446869 -0.01018676 -1.372594e-24)
(0.01308786 -0.01071082 5.883864e-23)
(0.01712328 -0.001473862 -3.507275e-24)
(0.01798255 -0.0007401101 -2.559747e-22)
(0.01701766 -0.002961816 -8.080363e-25)
(0.01788998 -0.002237801 -8.926325e-25)
(0.01687599 -0.0044903 -8.160057e-25)
(0.01780292 -0.003770147 -5.339393e-22)
(0.01665597 -0.006086729 8.63388e-25)
(0.01767 -0.00536453 -6.34633e-26)
(0.01630636 -0.007777362 3.0295e-22)
(0.01746753 -0.007053085 6.955434e-25)
(0.015836 -0.009593094 -2.240645e-21)
(0.01712605 -0.008883998 9.529337e-22)
(0.0166263 -0.01084463 -1.671086e-24)
(0.01511607 -0.01159268 6.403545e-23)
(0.01876599 -0.001496034 1.375654e-23)
(0.01962977 -0.0007486391 -9.160991e-25)
(0.01869803 -0.003029774 -1.797504e-24)
(0.01957114 -0.00225552 -1.72563e-22)
(0.01862291 -0.004614208 -9.623846e-25)
(0.01953839 -0.003827737 8.238949e-26)
(0.01850951 -0.006285523 -2.35049e-22)
(0.01949906 -0.005474865 -3.132385e-26)
(0.01830914 -0.008076413 -2.306026e-22)
(0.01942584 -0.007243813 -1.228084e-24)
(0.01798273 -0.01004474 2.060511e-24)
(0.01925682 -0.009169246 4.322166e-25)
(0.01892716 -0.0114116 -5.249586e-25)
(0.01740583 -0.01231779 -1.051508e-21)
(0.02044273 -0.001489344 9.638912e-25)
(0.02130356 -0.0007427388 1.085761e-24)
(0.02042771 -0.003035104 -5.200283e-23)
(0.02127638 -0.002244709 -1.429263e-22)
(0.02043988 -0.004653703 8.779279e-23)
(0.02131203 -0.003792061 1.222783e-21)
(0.02047546 -0.006369266 -1.026418e-24)
(0.02138962 -0.005447379 2.182741e-24)
(0.02050942 -0.008257005 -4.163053e-22)
(0.02152844 -0.007241605 -9.416734e-21)
(0.02046706 -0.01032963 -1.108897e-25)
(0.02159779 -0.009246667 9.292843e-25)
(0.02165097 -0.01173759 8.248386e-23)
(0.02028667 -0.01279968 1.350005e-22)
(0.02213286 -0.001471606 3.169162e-24)
(0.02297496 -0.0007232703 8.128332e-22)
(0.02219459 -0.002978875 -1.177745e-22)
(0.02298371 -0.002183886 2.073967e-24)
(0.02238455 -0.004555431 3.15615e-24)
(0.02312274 -0.003638253 9.979336e-25)
(0.02274187 -0.00623502 9.705273e-25)
(0.02342549 -0.005127423 3.427092e-20)
(0.02336394 -0.00810727 -2.601541e-22)
(0.02401438 -0.006814415 1.396514e-24)
(0.02392823 -0.01016085 8.127045e-23)
(0.02450156 -0.009117561 4.799935e-20)
(0.02552671 -0.01224722 -3.404419e-18)
(0.02388954 -0.01324474 2.980938e-19)
(0.02388381 -0.001416834 7.767374e-24)
(0.02465338 -0.000675192 -9.179233e-26)
(0.02408973 -0.002824806 -6.017869e-27)
(0.02475275 -0.001963906 1.972134e-27)
(0.02470045 -0.0041962 2.523635e-26)
(0.02515683 -0.003117056 1.026552e-26)
(0.02578577 -0.005596083 2.632882e-24)
(0.02616376 -0.004358116 -4.856083e-20)
(0.02691694 -0.007241911 5.980389e-23)
(0.02749406 -0.006217431 4.969295e-20)
(0.02755445 -0.01048224 6.824912e-20)
(0.02911263 -0.009231793 -1.29154e-18)
(0.02963625 -0.01297563 1.299139e-18)
(0.02751359 -0.0144465 1.54257e-18)
(0.0257868 -0.001265698 -1.245668e-24)
(0.026426 -0.0004920232 -1.046353e-20)
(0.02643406 -0.002325927 -5.279032e-22)
(0.02681008 -0.001325097 7.884099e-27)
(0.0275947 -0.003167392 -2.788388e-24)
(0.02807343 -0.002085278 -7.467585e-27)
(0.02905935 -0.004212579 -2.530876e-20)
(0.02985924 -0.00345416 -7.650208e-23)
(0.03019533 -0.007286595 2.498549e-20)
(0.03185056 -0.005932727 2.65091e-18)
(0.03058871 -0.01112596 6.950548e-20)
(0.03191849 -0.009486949 4.578022e-18)
(0.03036885 -0.01346278 3.485178e-18)
(0.03021886 -0.01422651 2.74372e-18)
(0.02806329 -0.0008444691 -1.364676e-24)
(0.02858283 -4.096926e-05 -1.364862e-24)
(0.02915055 -0.001108356 -1.752765e-26)
(0.02965786 -0.0002583358 -3.998899e-26)
(0.0306825 -0.001492933 8.226726e-21)
(0.03143154 -0.001040806 -3.668365e-23)
(0.031983 -0.004073994 -8.074562e-21)
(0.03321357 -0.002950183 2.113907e-18)
(0.03261204 -0.007387967 1.325945e-18)
(0.03315164 -0.0059581 -1.239351e-19)
(0.03243034 -0.01039604 7.310048e-19)
(0.03198238 -0.009560406 1.139593e-18)
(0.03125579 -0.01381046 -1.3692e-19)
(0.03118621 -0.01401472 2.905829e-19)
(0.03053291 0.0003890638 -3.990978e-26)
(0.03127972 0.0003634616 0)
(0.03184386 0.0006460438 8.393184e-21)
(0.03257916 0.0005937917 6.771911e-24)
(0.03311864 -0.001194488 1.670408e-19)
(0.03376143 -0.0004289887 7.122682e-19)
(0.03358945 -0.004023683 -1.041495e-19)
(0.03368732 -0.002681119 -6.586637e-19)
(0.03340062 -0.006334161 -7.693251e-19)
(0.03260691 -0.005818738 -9.263481e-19)
(0.03304117 -0.008989166 -8.473712e-18)
(0.03179289 -0.009532272 -2.151882e-18)
(0.03203628 -0.01442735 -2.551698e-18)
(0.03150615 -0.01218512 -8.354268e-18)
(0.03296235 0.001522649 6.773386e-24)
(0.03394651 0.0003645944 -1.776729e-24)
(0.03368026 0.0009897548 2.877965e-20)
(0.03415276 0.0009155515 1.334524e-19)
(0.03391679 -0.001067569 -3.093664e-19)
(0.03380706 -0.0001252874 -8.141076e-19)
(0.03383627 -0.003012458 -9.606445e-20)
(0.0328561 -0.002429259 -9.86414e-19)
(0.03356966 -0.005288976 -1.245294e-18)
(0.03256554 -0.005561408 -1.922792e-18)
(0.03279004 -0.008230127 -6.66229e-18)
(0.03231014 -0.009733922 2.279686e-18)
(0.03096148 -0.01500516 -4.651621e-19)
(0.03211518 -0.01098456 6.685992e-17)
(0.03440963 0.00177271 2.971875e-21)
(0.03518046 0.0002743379 1.584426e-20)
(0.03404207 0.0009572439 -2.082453e-19)
(0.03424229 0.0009026768 1.242885e-18)
(0.03361053 -0.0002571398 -5.719574e-19)
(0.03299478 -2.243345e-05 8.714263e-19)
(0.03340599 -0.001726024 -3.9237e-19)
(0.03204807 -0.002233 -3.149918e-18)
(0.03317198 -0.003707328 6.150967e-18)
(0.03224381 -0.005393675 -1.223289e-17)
(0.03254419 -0.005799109 -7.299718e-18)
(0.03139697 -0.01000194 2.097951e-18)
(0.03163348 -0.01552368 1.464914e-17)
(0.03117734 -0.01020517 1.244515e-17)
(0.03463889 0.001281896 2.082814e-20)
(0.034768 0.0003331123 -4.102331e-20)
(0.03362208 0.001062708 5.75735e-19)
(0.03343163 0.000688334 2.505811e-19)
(0.03290704 0.0005053312 -7.636239e-20)
(0.03197805 -0.0001564874 3.994101e-19)
(0.03251928 -0.0006148693 8.241439e-18)
(0.03116201 -0.002251057 -3.878996e-19)
(0.03227602 -0.002287777 -1.479383e-17)
(0.03067503 -0.005563419 -3.750836e-18)
(0.031829 -0.004945577 1.532191e-17)
(0.0302398 -0.01024232 8.177993e-19)
(0.03141712 -0.01666044 2.340289e-17)
(0.02980738 -0.008750538 2.292181e-18)
(0.03359033 0.0007392184 -2.6919e-20)
(0.03314768 0.0004126188 -4.806484e-19)
(0.03253328 0.001200027 1.846182e-19)
(0.03196481 0.0004467688 -1.048927e-18)
(0.03175107 0.001297123 9.238368e-19)
(0.03038103 -0.0003502857 1.294835e-18)
(0.03141013 0.0005686905 4.279356e-18)
(0.02950422 -0.002272243 -6.619162e-18)
(0.03071372 -0.001615063 -1.286015e-17)
(0.0295672 -0.006023716 -1.492896e-18)
(0.02959626 -0.00449921 -1.669584e-18)
(0.02879981 -0.01118575 -1.308333e-17)
(0.02755624 -0.01872965 1.622855e-17)
(0.02817079 -0.007533643 -2.113357e-18)
(0.03153731 0.0003828801 -2.194027e-19)
(0.03062577 0.0003860531 -1.2596e-19)
(0.03056716 0.001396707 1.116257e-18)
(0.02975448 0.0001499659 -8.348172e-19)
(0.02969684 0.002161257 2.156399e-18)
(0.02794175 -0.000625972 6.072564e-20)
(0.02922444 0.00183218 3.377018e-19)
(0.02695744 -0.002467151 -8.25715e-19)
(0.02862507 0.0001405176 2.771526e-18)
(0.02719647 -0.006523704 2.207441e-18)
(0.02735212 -0.003367251 -1.73877e-17)
(0.0273259 -0.0123155 -4.286453e-18)
(0.02548912 -0.02031781 -7.928115e-18)
(0.02534707 -0.007496267 5.593856e-17)
(0.02870591 0.0001061275 1.740513e-18)
(0.02730045 0.0001792781 -1.80829e-19)
(0.02784414 0.001529588 2.307289e-18)
(0.02655254 -0.0003090896 1.860902e-18)
(0.02680182 0.002618099 -2.872603e-18)
(0.02523925 -0.0009892159 -1.490896e-17)
(0.02608902 0.002214856 6.627294e-19)
(0.02415993 -0.00284558 -1.073176e-18)
(0.02577582 0.0003979179 1.237711e-18)
(0.02430747 -0.006643864 4.619618e-18)
(0.02486151 -0.002438289 -6.991227e-18)
(0.02429717 -0.0131622 1.016942e-17)
(0.02371954 -0.02159182 -3.35662e-18)
(0.0229273 -0.007156175 2.369264e-17)
(0.02512627 -0.000103962 -5.508519e-21)
(0.02319241 -8.890182e-05 3.865991e-19)
(0.02445691 0.001490737 -1.207673e-18)
(0.02257028 -0.0007657022 9.618892e-19)
(0.02347102 0.003075682 -7.144118e-18)
(0.02105542 -0.001491837 -1.679017e-18)
(0.02262575 0.002691249 2.581249e-18)
(0.020664 -0.003443509 -7.926713e-18)
(0.02240985 0.0008636721 5.276684e-17)
(0.02050759 -0.006866479 -3.899047e-18)
(0.02212223 -0.002324432 -2.519072e-17)
(0.02053321 -0.01357971 -3.444846e-18)
(0.02123991 -0.02218706 -4.337209e-17)