/*--------------------------------*- C++ -*----------------------------------*\
| =========                 |                                                 |
| \\      /  F ield         | OpenFOAM: The Open Source CFD Toolbox           |
|  \\    /   O peration     | Version:  2206                                  |
|   \\  /    A nd           | Website:  www.openfoam.com                      |
|    \\/     M anipulation  |                                                 |
\*---------------------------------------------------------------------------*/
FoamFile
{
    version     2.0;
    format      ascii;
    arch        "LSB;label=32;scalar=64";
    class       volVectorField;
    location    "1.6";
    object      ddtCorrDdt0(U.a);
}
// * * * * * * * * * * * * * * * * * * * * * * * * * * * * * * * * * * * * * //

dimensions      [0 1 -2 0 0 0 0];

internalField   nonuniform List<vector> 
13078
(
(4.294196e-05 -0.0003557571 1.031347e-26)
(5.155821e-06 -8.821832e-05 -5.856347e-32)
(8.941376e-07 -3.197664e-05 -7.804548e-29)
(2.721958e-07 -1.480729e-05 0)
(1.012629e-07 -1.114248e-05 -2.178823e-30)
(1.090322e-08 -9.112943e-06 -2.665029e-30)
(-4.539606e-08 -7.740537e-06 -3.059607e-30)
(-0.0001114651 -0.000106121 0)
(-4.423249e-05 -5.705095e-05 -1.993562e-31)
(-9.901207e-06 -2.146913e-05 0)
(-2.595131e-06 -1.281013e-05 0)
(-1.314974e-06 -1.048157e-05 -3.006988e-32)
(-7.950458e-07 -8.85385e-06 -1.42359e-32)
(-5.398306e-07 -7.615234e-06 -2.680322e-32)
(-2.315105e-05 -1.231447e-05 9.197974e-30)
(-1.584659e-05 -1.588084e-05 -4.96108e-30)
(-7.095368e-06 -1.18107e-05 6.679217e-30)
(-3.599279e-06 -1.040205e-05 3.38722e-30)
(-2.068916e-06 -9.164576e-06 2.272499e-30)
(-1.318418e-06 -8.102429e-06 0)
(-8.967609e-07 -7.160654e-06 -1.803855e-35)
(-4.132138e-06 -2.275696e-06 4.489182e-30)
(-5.154478e-06 -5.321814e-06 -9.895453e-30)
(-4.317081e-06 -7.480502e-06 -8.959858e-30)
(-3.006491e-06 -7.887182e-06 -4.004983e-30)
(-2.067753e-06 -7.618505e-06 1.229517e-31)
(-1.454481e-06 -7.10638e-06 0)
(-1.03932e-06 -6.500179e-06 5.197371e-32)
(-1.139048e-06 -1.183093e-06 -6.831852e-33)
(-2.155789e-06 -3.324849e-06 -6.073488e-30)
(-2.310989e-06 -5.04263e-06 -1.145409e-29)
(-2.029234e-06 -5.920518e-06 -1.081924e-29)
(-1.651724e-06 -6.186552e-06 2.016983e-30)
(-1.286523e-06 -6.079921e-06 -2.419971e-34)
(-9.773329e-07 -5.766046e-06 3.297804e-30)
(-1.124193e-07 -7.450366e-07 0)
(-5.769476e-07 -2.254122e-06 5.744016e-32)
(-9.259803e-07 -3.601398e-06 -9.806322e-32)
(-1.067735e-06 -4.506765e-06 -6.49725e-30)
(-1.047586e-06 -4.985674e-06 3.477561e-31)
(-9.276591e-07 -5.142366e-06 -3.195384e-30)
(-7.607179e-07 -5.058627e-06 -7.464561e-30)
(3.45154e-07 -5.207017e-07 0)
(3.64143e-07 -1.628496e-06 -8.594602e-30)
(8.524236e-08 -2.684906e-06 -9.951057e-30)
(-2.089267e-07 -3.503308e-06 -2.33636e-30)
(-3.993818e-07 -4.048019e-06 -6.837807e-30)
(-4.646641e-07 -4.345098e-06 4.4292e-31)
(-4.431178e-07 -4.433131e-06 0)
(6.310717e-07 -3.856162e-07 1.646043e-29)
(1.027042e-06 -1.233843e-06 -1.007176e-29)
(8.796265e-07 -2.07921e-06 -9.703891e-30)
(5.40527e-07 -2.800833e-06 0)
(2.284497e-07 -3.348173e-06 -1.702108e-29)
(3.114471e-08 -3.71522e-06 4.841357e-31)
(-6.655387e-08 -3.914012e-06 5.503204e-31)
(8.629817e-07 -2.982688e-07 1.813594e-33)
(1.56695e-06 -9.756448e-07 2.343278e-29)
(1.547856e-06 -1.677679e-06 1.15519e-29)
(1.20533e-06 -2.313948e-06 3.618975e-31)
(8.184255e-07 -2.842371e-06 -3.926492e-29)
(5.2398e-07 -3.246344e-06 5.32406e-31)
(3.307504e-07 -3.518024e-06 0)
(1.079104e-06 -2.407547e-07 -2.212519e-29)
(2.055722e-06 -8.058279e-07 2.709728e-29)
(2.152266e-06 -1.411311e-06 1.306128e-29)
(1.816062e-06 -1.984396e-06 -2.484883e-29)
(1.374345e-06 -2.493086e-06 -1.373273e-32)
(1.003106e-06 -2.919271e-06 0)
(7.299216e-07 -3.243589e-06 0)
(1.295635e-06 -2.036466e-07 0)
(2.530685e-06 -6.976532e-07 0)
(2.731083e-06 -1.24173e-06 3.001586e-29)
(2.39908e-06 -1.773795e-06 -2.859445e-29)
(1.908629e-06 -2.270411e-06 1.587091e-32)
(1.470152e-06 -2.715225e-06 0)
(1.126354e-06 -3.081804e-06 0)
(1.521971e-06 -1.818889e-07 0)
(3.015321e-06 -6.352951e-07 -3.561731e-29)
(3.311796e-06 -1.144999e-06 3.436795e-29)
(2.977612e-06 -1.656536e-06 3.222862e-29)
(2.436812e-06 -2.152298e-06 -3.087775e-29)
(1.933359e-06 -2.618275e-06 0)
(1.522963e-06 -3.02323e-06 2.615573e-29)
(1.764617e-06 -1.718933e-07 0)
(3.526508e-06 -6.08526e-07 -4.088659e-29)
(3.915185e-06 -1.105965e-06 -3.996184e-31)
(3.571549e-06 -1.615589e-06 3.737496e-29)
(2.975598e-06 -2.123214e-06 -3.450271e-29)
(2.404712e-06 -2.616061e-06 3.136097e-29)
(1.927133e-06 -3.059691e-06 2.501819e-32)
(2.029289e-06 -1.713988e-07 -3.776376e-29)
(4.07748e-06 -6.108093e-07 0)
(4.557693e-06 -1.114786e-06 -4.46833e-31)
(4.197561e-06 -1.639402e-06 -6.246827e-31)
(3.542381e-06 -2.172596e-06 -7.873278e-29)
(2.897854e-06 -2.699995e-06 3.572771e-29)
(2.348625e-06 -3.185142e-06 -3.182501e-29)
(2.321271e-06 -1.79048e-07 -4.290578e-29)
(4.680081e-06 -6.381924e-07 0)
(5.253791e-06 -1.165029e-06 -9.988692e-31)
(4.873831e-06 -1.717435e-06 5.769373e-29)
(4.161057e-06 -2.29039e-06 -3.170791e-29)
(3.427136e-06 -2.864117e-06 0)
(2.798107e-06 -3.395517e-06 3.612997e-29)
(2.646016e-06 -1.942177e-07 0)
(5.346806e-06 -6.884187e-07 -5.958362e-29)
(6.0196e-06 -1.251716e-06 0)
(5.616188e-06 -1.843397e-06 5.611844e-29)
(4.828877e-06 -2.473257e-06 1.974381e-30)
(4.000939e-06 -3.104297e-06 2.312336e-30)
(3.285649e-06 -3.688562e-06 4.365848e-29)
(3.009382e-06 -2.170211e-07 0)
(6.091628e-06 -7.619261e-07 -1.350674e-28)
(6.8735e-06 -1.377284e-06 -6.304608e-31)
(6.434419e-06 -2.025666e-06 -8.705407e-31)
(5.561185e-06 -2.722147e-06 0)
(4.633881e-06 -3.419867e-06 0)
(3.824509e-06 -4.065019e-06 0)
(3.417555e-06 -2.474822e-07 -6.237726e-29)
(6.928046e-06 -8.592236e-07 -7.669328e-29)
(7.83237e-06 -1.54274e-06 -1.419713e-30)
(7.353094e-06 -2.263642e-06 -9.788827e-31)
(6.38253e-06 -3.040214e-06 0)
(5.346261e-06 -3.81718e-06 -6.219874e-29)
(4.432107e-06 -4.531354e-06 -6.612024e-30)
(3.876953e-06 -2.861042e-07 -7.059635e-29)
(7.869076e-06 -9.817959e-07 -8.674267e-29)
(8.911e-06 -1.750364e-06 -2.394117e-30)
(8.38655e-06 -2.560191e-06 -2.201919e-30)
(7.309631e-06 -3.433226e-06 0)
(6.16083e-06 -4.307204e-06 -6.734573e-29)
(5.128784e-06 -5.100059e-06 -3.719429e-30)
(4.394464e-06 -3.338909e-07 -7.990222e-29)
(8.928842e-06 -1.132431e-06 -1.956493e-28)
(1.012539e-05 -2.00414e-06 -9.400616e-29)
(9.549249e-06 -2.919846e-06 0)
(8.3652e-06 -3.903187e-06 2.39867e-29)
(7.116052e-06 -4.90052e-06 3.624288e-29)
(5.937942e-06 -5.788791e-06 8.377311e-30)
(4.977734e-06 -3.924823e-07 -9.041498e-29)
(1.01241e-05 -1.315821e-06 -2.208141e-28)
(1.14966e-05 -2.311052e-06 -2.114754e-28)
(1.086397e-05 -3.350223e-06 -9.78716e-29)
(9.570239e-06 -4.459238e-06 3.499447e-30)
(8.195317e-06 -5.610814e-06 -8.641379e-29)
(6.874733e-06 -6.619978e-06 7.181263e-29)
(5.635199e-06 -4.641476e-07 0)
(1.147374e-05 -1.539185e-06 -1.242308e-28)
(1.305013e-05 -2.685011e-06 -1.189017e-28)
(1.236141e-05 -3.876632e-06 -2.273636e-28)
(1.093268e-05 -5.145743e-06 0)
(9.426444e-06 -6.473017e-06 -9.777917e-29)
(7.973317e-06 -7.631326e-06 1.148023e-31)
(6.375527e-06 -5.512751e-07 1.152549e-28)
(1.299609e-05 -1.810173e-06 0)
(1.480811e-05 -3.139601e-06 0)
(1.406567e-05 -4.518081e-06 3.406141e-30)
(1.249467e-05 -5.983508e-06 1.246812e-28)
(1.085276e-05 -7.520512e-06 0)
(9.278807e-06 -8.87078e-06 -9.82938e-29)
(7.207651e-06 -6.567581e-07 2.602656e-28)
(1.470862e-05 -2.13773e-06 0)
(1.679035e-05 -3.689658e-06 0)
(1.59947e-05 -5.294123e-06 1.410439e-28)
(1.427064e-05 -6.993402e-06 2.663168e-28)
(1.250393e-05 -8.76606e-06 -1.261989e-28)
(1.08459e-05 -1.035696e-05 0)
(8.139998e-06 -7.840549e-07 1.468715e-28)
(1.662796e-05 -2.532197e-06 9.769126e-31)
(1.901631e-05 -4.352266e-06 1.741686e-28)
(1.816862e-05 -6.226795e-06 4.403968e-30)
(1.627991e-05 -8.194498e-06 5.671125e-30)
(1.439016e-05 -1.021671e-05 -1.409527e-28)
(1.258777e-05 -1.204344e-05 0)
(9.179901e-06 -9.366987e-07 0)
(1.876786e-05 -3.004289e-06 -2.025962e-28)
(2.150071e-05 -5.146079e-06 1.947621e-28)
(2.060333e-05 -7.343818e-06 0)
(1.853895e-05 -9.624258e-06 -1.59941e-28)
(1.646659e-05 -1.191248e-05 2.970703e-29)
(1.445869e-05 -1.389518e-05 1.750548e-29)
(1.033264e-05 -1.117705e-06 -1.867405e-28)
(2.113573e-05 -3.563129e-06 -2.285131e-28)
(2.424499e-05 -6.084895e-06 2.194748e-28)
(2.328932e-05 -8.658146e-06 0)
(2.102074e-05 -1.127857e-05 -1.389537e-29)
(1.86969e-05 -1.379057e-05 -2.468378e-32)
(1.633098e-05 -1.573792e-05 1.969954e-29)
(1.159719e-05 -1.32971e-06 -2.103957e-28)
(2.372948e-05 -4.216743e-06 -2.574409e-28)
(2.7236e-05 -7.180743e-06 2.475434e-28)
(2.619605e-05 -1.018046e-05 0)
(2.366835e-05 -1.315398e-05 0)
(2.097568e-05 -1.579534e-05 -2.026481e-28)
(1.800989e-05 -1.735498e-05 1.95155e-29)
(1.29659e-05 -1.575448e-06 -2.370801e-28)
(2.653575e-05 -4.974356e-06 -2.919121e-28)
(3.044665e-05 -8.449431e-06 0)
(2.928362e-05 -1.193713e-05 2.506959e-28)
(2.644247e-05 -1.530117e-05 -1.739478e-29)
(2.329342e-05 -1.803354e-05 -4.352968e-28)
(1.954417e-05 -1.89799e-05 7.175932e-29)
(1.438753e-05 -1.854105e-06 -2.6545e-28)
(2.950635e-05 -5.837097e-06 0)
(3.382774e-05 -9.909157e-06 -3.197446e-28)
(3.249551e-05 -1.39678e-05 2.906923e-28)
(2.931339e-05 -1.782326e-05 -2.792153e-28)
(2.574966e-05 -2.081179e-05 -5.148774e-28)
(2.136635e-05 -2.14887e-05 -2.341859e-28)
(1.584576e-05 -2.16008e-06 0)
(3.257519e-05 -6.818397e-06 0)
(3.728456e-05 -1.157199e-05 -7.090724e-28)
(3.572074e-05 -1.62885e-05 0)
(3.215273e-05 -2.073596e-05 -6.305214e-28)
(2.820676e-05 -2.413482e-05 -2.913666e-28)
(2.334629e-05 -2.482812e-05 2.642567e-28)
(1.741327e-05 -2.515385e-06 -3.327978e-28)
(3.558956e-05 -7.90487e-06 4.097903e-28)
(4.066688e-05 -1.341331e-05 3.984018e-28)
(3.878561e-05 -1.889553e-05 0)
(3.474774e-05 -2.401865e-05 -3.560788e-28)
(3.040654e-05 -2.792877e-05 0)
(2.51547e-05 -2.878885e-05 2.331318e-28)
(1.897029e-05 -2.90038e-06 -3.704931e-28)
(3.838452e-05 -9.054763e-06 4.594189e-28)
(4.364113e-05 -1.539384e-05 1.349543e-27)
(4.141591e-05 -2.172929e-05 8.809732e-28)
(3.67779e-05 -2.763064e-05 -3.758479e-28)
(3.198846e-05 -3.211749e-05 3.170936e-29)
(2.632465e-05 -3.319293e-05 -3.674076e-29)
(2.043582e-05 -3.316072e-06 6.176794e-31)
(4.084772e-05 -1.030145e-05 2.414259e-30)
(4.583102e-05 -1.74411e-05 5.154645e-28)
(4.299153e-05 -2.471548e-05 9.46775e-28)
(3.774555e-05 -3.148871e-05 -5.149237e-28)
(3.249858e-05 -3.662007e-05 6.990953e-29)
(2.641689e-05 -3.795401e-05 1.6319e-28)
(2.171789e-05 -3.762377e-06 -6.634542e-31)
(4.267211e-05 -1.162757e-05 -2.599989e-30)
(4.686049e-05 -1.96175e-05 5.371001e-28)
(4.298269e-05 -2.775939e-05 3.447563e-28)
(3.712664e-05 -3.547509e-05 -2.985509e-28)
(3.141782e-05 -4.138201e-05 4.048975e-28)
(2.488869e-05 -4.298991e-05 0)
(2.270938e-05 -4.246559e-06 0)
(4.356536e-05 -1.305257e-05 0)
(4.629934e-05 -2.192197e-05 6.126507e-28)
(4.079504e-05 -3.09027e-05 6.496134e-28)
(3.406477e-05 -3.97167e-05 9.042452e-28)
(2.823915e-05 -4.671471e-05 8.729785e-28)
(2.130164e-05 -4.857603e-05 0)
(2.333698e-05 -4.844536e-06 -1.460149e-30)
(4.339415e-05 -1.484369e-05 5.555857e-30)
(4.404778e-05 -2.489803e-05 1.917224e-29)
(3.639334e-05 -3.519501e-05 0)
(2.855364e-05 -4.556991e-05 1.293573e-27)
(2.299725e-05 -5.426917e-05 -9.080255e-29)
(1.605114e-05 -5.650141e-05 -2.142457e-28)
(2.367464e-05 -5.803808e-06 -6.061443e-28)
(4.251602e-05 -1.783282e-05 5.944677e-30)
(4.090124e-05 -3.013881e-05 -7.430454e-28)
(3.119767e-05 -4.330431e-05 0)
(2.260939e-05 -5.733894e-05 7.877446e-28)
(1.864028e-05 -6.907208e-05 1.342673e-28)
(1.246288e-05 -7.312759e-05 -1.073537e-27)
(2.410571e-05 -7.758888e-06 -6.595682e-28)
(4.236402e-05 -2.397968e-05 -8.198471e-28)
(3.954939e-05 -4.116816e-05 -8.136672e-28)
(2.931639e-05 -6.066425e-05 -5.618576e-29)
(2.099867e-05 -8.359509e-05 -1.481909e-28)
(2.343551e-05 -0.0001013777 4.71776e-28)
(1.824847e-05 -0.0001118909 -5.510624e-28)
(2.556063e-05 -1.189753e-05 0)
(4.653968e-05 -3.650495e-05 8.859228e-28)
(4.561381e-05 -6.401334e-05 8.875124e-28)
(3.971005e-05 -9.480745e-05 3.700889e-29)
(2.877485e-05 -0.0001391347 -1.093614e-27)
(2.928242e-05 -0.0001884748 -2.485399e-28)
(3.458828e-05 -0.0002312879 0)
(3.120882e-05 -1.900367e-05 7.589074e-28)
(6.308653e-05 -5.758934e-05 1.88783e-27)
(6.581913e-05 -0.0001067338 9.347175e-28)
(5.092687e-05 -0.0001772851 3.067458e-27)
(2.229021e-05 -0.0002896466 -2.995858e-27)
(-2.401155e-05 -0.0004953384 3.743817e-27)
(-2.50297e-05 -0.0007354745 2.529053e-25)
(4.964081e-05 -2.789916e-05 8.432186e-28)
(7.898969e-05 -0.0001072291 -5.03495e-29)
(3.367839e-05 -0.0002440356 0)
(-8.57923e-05 -0.0005142544 3.070102e-28)
(-0.0002836132 -0.001045182 1.935007e-26)
(-0.0003941835 -0.001779031 3.091856e-25)
(-0.0002061338 -0.002282525 6.643915e-25)
(3.583181e-05 -7.703589e-05 -1.303006e-27)
(2.834671e-06 -0.0003035753 2.397803e-28)
(-0.000241214 -0.0008140404 5.782478e-28)
(-0.0007273361 -0.001845797 -3.773335e-26)
(-0.0008985868 -0.002972101 -5.538249e-25)
(-0.000232517 -0.00318466 -8.833084e-25)
(0.0004013261 -0.002759444 1.404569e-25)
(-3.244984e-05 -0.0002479841 -2.983005e-27)
(-0.0003390828 -0.001002772 0)
(-0.001029281 -0.00246048 1.717351e-27)
(-0.001179727 -0.003701154 -3.192894e-25)
(-0.0001896526 -0.003514064 -4.961816e-25)
(0.0006716724 -0.002760143 -3.302988e-24)
(0.000848956 -0.002234108 -3.673374e-25)
(-0.0002569062 -0.0007388895 0)
(-0.001064044 -0.002568441 1.430633e-27)
(-0.001271257 -0.003905494 -1.491219e-25)
(-0.00024492 -0.003473237 -1.009871e-24)
(0.0006561434 -0.00260922 -3.59752e-25)
(0.0009512348 -0.002125672 -1.057197e-24)
(0.000852244 -0.00190434 5.57954e-25)
(-0.0006312489 -0.001517149 0)
(-0.001156865 -0.003454817 1.051745e-25)
(-0.0003399801 -0.00323745 -8.242041e-25)
(0.0005007232 -0.002376402 -9.944249e-25)
(0.0008103021 -0.001953195 -4.382404e-26)
(0.0008260215 -0.001834087 -3.346003e-25)
(0.0006867231 -0.0017828 1.327104e-24)
(-0.0006956103 -0.001721147 -2.649143e-26)
(-0.000402771 -0.002571141 -1.009012e-25)
(0.0003126158 -0.002029584 3.41238e-25)
(0.0006104006 -0.001682086 -2.209209e-25)
(0.0006514525 -0.00164296 8.364539e-25)
(0.0006029477 -0.00171284 -3.396408e-25)
(0.0004960016 -0.001676492 -1.470372e-25)
(-0.0002171806 -0.0009718125 -1.941941e-25)
(0.0002553938 -0.001239891 -5.031832e-25)
(0.0004724948 -0.001203327 -1.130212e-25)
(0.0004650838 -0.001313969 5.845723e-26)
(0.0004175249 -0.001498315 5.752786e-25)
(0.000381585 -0.001622635 -3.18631e-25)
(0.0003457611 -0.001494489 -4.751772e-26)
(0.0004033856 7.667104e-05 -1.844804e-25)
(0.0006133936 -0.0001457337 -1.289556e-25)
(0.0004526895 -0.0006410994 1.236158e-25)
(0.0002826851 -0.001075219 -2.114625e-25)
(0.000203539 -0.001368657 9.827815e-28)
(0.0002007831 -0.001454486 -8.696623e-26)
(0.0002348798 -0.001209889 -5.434978e-27)
(0.000828031 0.0008866969 3.224815e-25)
(0.0008138856 0.0007186715 3.579994e-25)
(0.0004221325 -0.0001618688 4.746201e-26)
(0.0001473222 -0.0008532812 -7.062664e-26)
(4.885505e-05 -0.001213883 5.983458e-26)
(7.116224e-05 -0.001237564 1.203802e-25)
(0.0001413053 -0.0009066053 2.049653e-25)
(0.000985315 0.00134235 4.897659e-25)
(0.0009322891 0.001442121 3.94999e-25)
(0.0004173597 0.0003490959 2.557657e-25)
(6.604905e-05 -0.0005896192 7.009916e-26)
(-5.060184e-05 -0.001024976 -4.83267e-26)
(-2.015539e-05 -0.00102356 7.207823e-26)
(7.091471e-05 -0.0006441371 3.902876e-26)
(0.0009373576 0.001509606 -2.719919e-26)
(0.0009632911 0.001985088 -1.210173e-25)
(0.0004219208 0.0008642089 2.396914e-25)
(4.24313e-05 -0.00024214 -1.536785e-25)
(-0.0001000446 -0.0007872538 3.389769e-26)
(-8.136482e-05 -0.0008260225 4.597632e-25)
(2.324161e-05 -0.0004502661 2.666256e-25)
(0.0007825393 0.00151857 -5.589465e-27)
(0.000904508 0.00234025 -1.570074e-25)
(0.0004387314 0.001416321 -7.75158e-26)
(5.606179e-05 0.0001839902 3.939335e-26)
(-0.000111697 -0.0005217399 -1.154329e-25)
(-0.0001140959 -0.0006451978 -1.366418e-25)
(-5.567468e-06 -0.0002878916 -6.337251e-26)
(0.0005886732 0.001464634 -2.420128e-27)
(0.0007618625 0.002540757 -7.737848e-27)
(0.0004103144 0.001834949 -1.309948e-25)
(6.836857e-05 0.0005540858 2.663381e-26)
(-9.474747e-05 -0.000282228 -4.834137e-27)
(-0.000107599 -0.000483403 -2.900733e-27)
(-1.495645e-05 -0.0001559341 -7.098766e-26)
(0.0003906042 0.001401441 4.04474e-27)
(0.0005592104 0.002638322 5.178426e-27)
(0.0003381634 0.00213623 -6.526196e-26)
(8.357878e-05 0.0008572703 -1.565102e-26)
(-5.213312e-05 -7.496909e-05 -1.768654e-26)
(-7.197429e-05 -0.0003448288 5.494226e-26)
(-6.206063e-06 -4.481751e-05 1.629147e-25)
(0.0001984623 0.001360132 1.535779e-26)
(0.0003226189 0.002685558 2.355378e-26)
(0.0002305078 0.00231613 -2.608796e-26)
(8.973513e-05 0.001064062 1.210923e-26)
(1.204489e-06 8.161391e-05 2.324426e-26)
(-2.449567e-05 -0.0002384581 1.370657e-25)
(-1.103683e-06 2.553437e-05 -6.929269e-26)
(1.041218e-05 0.001358842 -4.156998e-27)
(6.315049e-05 0.002693392 -1.216686e-26)
(8.402482e-05 0.00234365 1.737448e-27)
(6.316073e-05 0.001113129 -8.807607e-27)
(3.465363e-05 0.0001358027 1.981084e-26)
(1.104075e-05 -0.0001946789 2.376325e-25)
(-5.636573e-06 5.142237e-05 -7.02672e-26)
(-0.0001795563 0.001396019 -3.576945e-26)
(-0.0001974067 0.002651322 1.751976e-26)
(-7.172177e-05 0.002205821 -8.25575e-26)
(2.017644e-05 0.0009938616 5.357508e-26)
(5.036839e-05 8.091656e-05 -2.026342e-26)
(3.629976e-05 -0.000214892 2.128151e-26)
(-8.813427e-06 3.472044e-05 -8.856507e-26)
(-0.0003741678 0.001441773 7.895982e-26)
(-0.0004279848 0.002536117 -3.946999e-27)
(-0.0001974186 0.001938735 -1.217357e-25)
(-1.598568e-05 0.000774566 1.679817e-26)
(5.377338e-05 -3.44826e-05 5.336898e-26)
(4.35399e-05 -0.0002776295 8.512526e-26)
(-1.748585e-05 -1.826744e-05 -8.226204e-26)
(-0.000556187 0.001447302 1.74213e-25)
(-0.0006091227 0.002294155 -2.479419e-25)
(-0.0002973217 0.001556681 -1.131028e-25)
(-7.111598e-05 0.0004870593 -1.28315e-25)
(1.600303e-05 -0.0001955794 9.256082e-26)
(6.020364e-06 -0.0003825234 -4.091725e-26)
(-5.564567e-05 -0.0001067838 -5.961188e-25)
(-0.0006841302 0.001345738 -2.062492e-25)
(-0.0007259755 0.001872317 -3.279417e-25)
(-0.000389446 0.001045268 -2.438611e-25)
(-0.0001582952 0.0001307409 -3.919598e-25)
(-7.174062e-05 -0.0004030986 2.208889e-25)
(-8.059324e-05 -0.0005260075 5.742315e-25)
(-0.0001227883 -0.0002470679 5.756637e-26)
(-0.0006867831 0.001026733 -6.780006e-25)
(-0.0007559525 0.00123399 -9.770341e-26)
(-0.0004747501 0.0005234429 -7.431584e-26)
(-0.0002630144 -0.0001728456 5.4715e-26)
(-0.0001852679 -0.0005821173 -1.293828e-25)
(-0.0001946613 -0.0006818167 -1.61195e-25)
(-0.0002189551 -0.0004282601 1.199922e-25)
(-0.0004797277 0.0003834795 -6.059914e-25)
(-0.0006833406 0.0004158038 -3.643017e-25)
(-0.0005465243 8.206246e-06 -1.428868e-26)
(-0.0004029539 -0.0004156716 3.47631e-25)
(-0.0003431288 -0.0007288932 -1.088827e-25)
(-0.0003509198 -0.0008504605 -4.011463e-25)
(-0.0003671655 -0.000664155 -2.077507e-26)
(-6.828981e-05 -0.0005135869 4.777128e-25)
(-0.0004903228 -0.0005620821 -3.10535e-25)
(-0.0006142755 -0.0005394543 -1.48075e-25)
(-0.0005914364 -0.0006717881 3.142346e-25)
(-0.0005673583 -0.0008735019 -1.156406e-26)
(-0.0005657194 -0.001030009 -1.148547e-25)
(-0.0005640329 -0.0009355064 -9.427388e-25)
(0.000360604 -0.001294702 3.327904e-25)
(-7.677934e-05 -0.001729631 -3.138356e-25)
(-0.0005904958 -0.001249874 -2.016468e-25)
(-0.0007817084 -0.001013716 8.148414e-26)
(-0.0008300818 -0.001047573 4.498067e-25)
(-0.0008225975 -0.001179153 3.757154e-25)
(-0.0007706258 -0.001178636 -4.427728e-25)
(0.0004844883 -0.001388423 -1.881495e-26)
(0.0005595729 -0.002745765 -2.455557e-26)
(-0.0002494774 -0.002239132 4.802016e-25)
(-0.0008345594 -0.00155532 -6.277876e-25)
(-0.001048459 -0.001299944 7.372838e-25)
(-0.001072738 -0.001304546 -2.306819e-26)
(-0.0009731658 -0.001340645 -4.813723e-25)
(0.0002726147 -0.0008408828 0)
(0.0008457719 -0.002589792 6.374558e-26)
(0.0005418154 -0.003196687 -3.927638e-25)
(-0.0004501354 -0.002434126 -4.140161e-25)
(-0.001066493 -0.001779685 -3.187785e-26)
(-0.001251167 -0.001518115 -6.722256e-25)
(-0.001161489 -0.001453112 -7.014132e-25)
(6.237246e-05 -0.0003421268 0)
(0.0004247615 -0.001315608 -1.218695e-27)
(0.0009040496 -0.002700273 -1.92212e-26)
(0.0004798387 -0.003161077 2.328314e-25)
(-0.0005706242 -0.002536415 1.337151e-25)
(-0.001189245 -0.001928859 -1.390874e-25)
(-0.00124585 -0.001622083 -2.624079e-24)
(-3.812191e-05 -0.0001074727 -1.828085e-27)
(4.849129e-05 -0.0004553807 0)
(0.0003771619 -0.001177658 0)
(0.0007607958 -0.00228072 -1.512767e-25)
(0.0003821004 -0.002835867 -2.571285e-25)
(-0.0005396864 -0.002485464 1.608726e-24)
(-0.001033881 -0.001955429 -3.613096e-25)
(-5.334499e-05 -3.793348e-05 -1.044292e-27)
(-6.452419e-05 -0.0001584322 -1.039099e-28)
(4.069271e-06 -0.0003725578 -2.667291e-28)
(0.0002082542 -0.0008192452 -4.651549e-27)
(0.0004344938 -0.001549553 -2.129384e-25)
(0.000208247 -0.002091582 4.619042e-25)
(-0.0003388116 -0.002101663 -1.32671e-24)
(-3.737562e-05 -2.269613e-05 0)
(-7.16128e-05 -7.379572e-05 1.156129e-27)
(-7.023808e-05 -0.0001427592 0)
(-3.555936e-05 -0.0002522081 -3.797585e-28)
(5.966988e-05 -0.0004869936 -8.958115e-28)
(9.546298e-05 -0.00082021 1.817769e-25)
(9.700472e-06 -0.001147782 9.060459e-26)
(-2.920874e-05 -1.354589e-05 0)
(-5.357444e-05 -4.329604e-05 -9.980852e-28)
(-5.468913e-05 -7.672555e-05 1.030888e-27)
(-4.841183e-05 -0.0001193182 0)
(-4.042951e-05 -0.0001760721 -5.537185e-28)
(-3.042161e-05 -0.0002563329 3.829217e-28)
(-3.111015e-05 -0.0003571853 -1.142927e-25)
(-2.580387e-05 -8.629596e-06 0)
(-4.537268e-05 -2.703445e-05 -2.782286e-27)
(-4.17473e-05 -4.775082e-05 -1.201747e-30)
(-3.116087e-05 -7.21529e-05 -1.931735e-27)
(-3.002249e-05 -9.492803e-05 -1.98123e-28)
(-2.10623e-05 -0.0001274322 9.556568e-28)
(-1.474059e-05 -0.0001486846 -1.603238e-27)
(-2.470937e-05 -6.189874e-06 6.788307e-28)
(-4.347505e-05 -1.911433e-05 -8.613875e-28)
(-4.01569e-05 -3.278476e-05 2.398591e-31)
(-2.816393e-05 -4.808013e-05 -1.620573e-27)
(-1.843593e-05 -6.399405e-05 0)
(-1.146069e-05 -7.991809e-05 0)
(-6.604681e-06 -8.348094e-05 -1.249566e-27)
(-2.429013e-05 -4.998131e-06 6.203761e-28)
(-4.397647e-05 -1.535446e-05 -7.828738e-28)
(-4.27287e-05 -2.584896e-05 7.661788e-28)
(-3.247209e-05 -3.680055e-05 7.510091e-28)
(-2.224599e-05 -4.798709e-05 0)
(-1.482936e-05 -5.759122e-05 0)
(-7.371043e-06 -5.954119e-05 -8.721576e-28)
(-2.376555e-05 -4.343779e-06 -5.673107e-28)
(-4.448694e-05 -1.337193e-05 -7.308345e-28)
(-4.546095e-05 -2.242803e-05 -1.96812e-29)
(-3.756776e-05 -3.160494e-05 6.471096e-28)
(-2.876508e-05 -4.068507e-05 2.081624e-28)
(-2.154701e-05 -4.798317e-05 -1.000383e-27)
(-1.348899e-05 -4.932344e-05 4.711598e-28)
(-2.29074e-05 -3.867627e-06 -5.161094e-28)
(-4.408004e-05 -1.196664e-05 -5.755359e-30)
(-4.686616e-05 -2.015393e-05 1.894528e-29)
(-4.109023e-05 -2.842734e-05 2.708825e-29)
(-3.366086e-05 -3.648973e-05 0)
(-2.68197e-05 -4.262099e-05 -6.291054e-28)
(-1.915603e-05 -4.384994e-05 5.078883e-28)
(-2.176043e-05 -3.446347e-06 0)
(-4.269213e-05 -1.0709e-05 -1.06285e-29)
(-4.670721e-05 -1.812973e-05 -1.800768e-29)
(-4.247311e-05 -2.570986e-05 1.278576e-27)
(-3.60703e-05 -3.285387e-05 2.449522e-28)
(-2.971206e-05 -3.817066e-05 8.915368e-28)
(-2.26658e-05 -3.925327e-05 3.503651e-28)
(-2.037206e-05 -3.037022e-06 -1.281199e-30)
(-4.054653e-05 -9.487256e-06 -5.017275e-30)
(-4.521432e-05 -1.611126e-05 0)
(-4.197604e-05 -2.288488e-05 -1.41864e-30)
(-3.626428e-05 -2.917119e-05 4.624001e-28)
(-3.056209e-05 -3.382923e-05 4.261878e-28)
(-2.411336e-05 -3.472118e-05 -8.423579e-29)
(-1.884119e-05 -2.649569e-06 3.757435e-28)
(-3.790285e-05 -8.319028e-06 -4.780259e-28)
(-4.277194e-05 -1.418404e-05 8.393369e-28)
(-4.014024e-05 -2.006408e-05 -9.747889e-28)
(-3.509795e-05 -2.553294e-05 3.80127e-28)
(-2.995828e-05 -2.961067e-05 0)
(-2.40358e-05 -3.030908e-05 7.616062e-29)
(-1.725262e-05 -2.28806e-06 3.384047e-28)
(-3.502324e-05 -7.233071e-06 -4.164703e-28)
(-3.968756e-05 -1.230534e-05 4.046921e-28)
(-3.740834e-05 -1.737175e-05 0)
(-3.301568e-05 -2.210655e-05 -3.612005e-28)
(-2.83918e-05 -2.565494e-05 0)
(-2.295602e-05 -2.618957e-05 3.030241e-28)
(-1.56733e-05 -1.952077e-06 0)
(-3.198105e-05 -6.200849e-06 0)
(-3.627802e-05 -1.05525e-05 -7.21319e-28)
(-3.433927e-05 -1.489038e-05 0)
(-3.045481e-05 -1.898638e-05 -6.40365e-28)
(-2.627471e-05 -2.206343e-05 -2.956134e-28)
(-2.128098e-05 -2.247326e-05 2.677991e-28)
(-1.42129e-05 -1.660825e-06 -2.705492e-28)
(-2.891655e-05 -5.266116e-06 0)
(-3.284275e-05 -8.968389e-06 -3.140966e-28)
(-3.116257e-05 -1.268037e-05 3.116477e-28)
(-2.769755e-05 -1.621808e-05 -2.838568e-28)
(-2.393737e-05 -1.892026e-05 -5.228784e-28)
(-1.945665e-05 -1.935098e-05 -2.374576e-28)
(-1.279568e-05 -1.395556e-06 -2.409691e-28)
(-2.596893e-05 -4.444245e-06 -2.944564e-28)
(-2.951015e-05 -7.579338e-06 0)
(-2.802836e-05 -1.074962e-05 2.836786e-28)
(-2.493558e-05 -1.382663e-05 1.808201e-29)
(-2.162101e-05 -1.630648e-05 -4.84726e-28)
(-1.780121e-05 -1.704044e-05 -7.476438e-29)
(-1.143618e-05 -1.16293e-06 -2.146319e-28)
(-2.319793e-05 -3.725679e-06 -2.625597e-28)
(-2.636365e-05 -6.376074e-06 2.523188e-28)
(-2.503427e-05 -9.08575e-06 0)
(-2.228479e-05 -1.180131e-05 0)
(-1.945401e-05 -1.422122e-05 -2.058662e-28)
(-1.644198e-05 -1.559969e-05 3.618003e-28)
(-1.018321e-05 -9.631006e-07 -1.905025e-28)
(-2.064583e-05 -3.109013e-06 -2.330469e-28)
(-2.344473e-05 -5.342587e-06 2.236881e-28)
(-2.222914e-05 -7.65165e-06 0)
(-1.976627e-05 -1.004135e-05 1.446227e-29)
(-1.732776e-05 -1.236048e-05 2.508896e-32)
(-1.493304e-05 -1.415218e-05 -2.050597e-29)
(-9.043102e-06 -7.942008e-07 0)
(-1.832298e-05 -2.585891e-06 -2.065289e-28)
(-2.077628e-05 -4.463405e-06 1.984085e-28)
(-1.964764e-05 -6.421415e-06 0)
(-1.74134e-05 -8.495752e-06 -1.880579e-28)
(-1.524516e-05 -1.061474e-05 -3.093281e-29)
(-1.321761e-05 -1.245969e-05 -1.823087e-29)
(-8.016689e-06 -6.533576e-07 1.496737e-28)
(-1.62289e-05 -2.148295e-06 -1.018283e-30)
(-1.836839e-05 -3.726689e-06 1.739571e-28)
(-1.731649e-05 -5.383646e-06 -4.587933e-30)
(-1.527954e-05 -7.166348e-06 -5.620631e-30)
(-1.330782e-05 -9.037065e-06 -1.427568e-28)
(-1.148729e-05 -1.073096e-05 0)
(-7.097939e-06 -5.369832e-07 2.649467e-28)
(-1.435484e-05 -1.786321e-06 0)
(-1.621751e-05 -3.117896e-06 0)
(-1.524284e-05 -4.524776e-06 1.512754e-28)
(-1.339074e-05 -6.056999e-06 2.800766e-28)
(-1.155432e-05 -7.691683e-06 -1.275544e-28)
(-9.87731e-06 -9.150127e-06 0)
(-6.278671e-06 -4.417031e-07 1.171591e-28)
(-1.26863e-05 -1.489189e-06 -8.086671e-31)
(-1.430763e-05 -2.617904e-06 -1.331687e-30)
(-1.341008e-05 -3.817101e-06 -3.73197e-30)
(-1.172968e-05 -5.132206e-06 1.170401e-28)
(-1.003089e-05 -6.546304e-06 0)
(-8.447759e-06 -7.784617e-06 -9.868938e-29)
(-5.550628e-06 -3.643683e-07 -9.549486e-32)
(-1.120599e-05 -1.246643e-06 -1.27753e-28)
(-1.261845e-05 -2.20943e-06 -1.227725e-28)
(-1.179714e-05 -3.237972e-06 -2.29928e-28)
(-1.027598e-05 -4.371501e-06 0)
(-8.724831e-06 -5.59132e-06 -9.827287e-29)
(-7.273378e-06 -6.663464e-06 1.192661e-31)
(-4.905163e-06 -3.016831e-07 -9.137507e-29)
(-9.895975e-06 -1.049328e-06 -2.240262e-28)
(-1.112971e-05 -1.877541e-06 -2.157646e-28)
(-1.038544e-05 -2.767961e-06 -1.043878e-28)
(-9.0146e-06 -3.753604e-06 -3.643656e-30)
(-7.604759e-06 -4.809364e-06 -8.656388e-29)
(-6.293005e-06 -5.749551e-06 8.124535e-29)
(-4.333321e-06 -2.510006e-07 -8.06904e-29)
(-8.738154e-06 -8.891783e-07 -1.974079e-28)
(-9.819467e-06 -1.608611e-06 -9.472139e-29)
(-9.151026e-06 -2.388031e-06 0)
(-7.904089e-06 -3.257538e-06 -2.501158e-29)
(-6.628468e-06 -4.167647e-06 -3.774583e-29)
(-5.462264e-06 -4.996223e-06 -8.710698e-30)
(-3.826468e-06 -2.102625e-07 -7.1213e-29)
(-7.713524e-06 -7.591927e-07 -8.675151e-29)
(-8.66227e-06 -1.388495e-06 2.494132e-30)
(-8.063219e-06 -2.073273e-06 2.292037e-30)
(-6.936535e-06 -2.840591e-06 0)
(-5.769458e-06 -3.63375e-06 -6.695897e-29)
(-4.750387e-06 -4.372332e-06 3.863904e-30)
(-3.376994e-06 -1.776644e-07 -6.270504e-29)
(-6.805417e-06 -6.544336e-07 -7.641498e-29)
(-7.637162e-06 -1.209913e-06 1.478299e-30)
(-7.099732e-06 -1.815517e-06 1.018373e-30)
(-6.091501e-06 -2.49433e-06 0)
(-5.043987e-06 -3.196227e-06 -5.560429e-29)
(-4.144529e-06 -3.860245e-06 6.862583e-30)
(-2.97802e-06 -1.523478e-07 5.310576e-32)
(-5.999927e-06 -5.720422e-07 -1.345721e-28)
(-6.728528e-06 -1.068414e-06 6.561376e-31)
(-6.246967e-06 -1.609736e-06 9.050819e-31)
(-5.347451e-06 -2.215651e-06 0)
(-4.415389e-06 -2.843876e-06 0)
(-3.622486e-06 -3.443014e-06 0)
(-2.623271e-06 -1.336633e-07 0)
(-5.284155e-06 -5.101682e-07 -5.914627e-29)
(-5.92198e-06 -9.613932e-07 0)
(-5.49111e-06 -1.452438e-06 5.228044e-29)
(-4.688354e-06 -1.997653e-06 -2.049867e-30)
(-3.861859e-06 -2.564499e-06 -2.398188e-30)
(-3.164493e-06 -3.107067e-06 3.708857e-29)
(-2.306924e-06 -1.213416e-07 -4.237523e-29)
(-4.645251e-06 -4.677475e-07 0)
(-5.201645e-06 -8.870418e-07 1.038055e-30)
(-4.808984e-06 -1.342879e-06 3.785662e-29)
(-4.091221e-06 -1.835998e-06 -5.823422e-29)
(-3.364192e-06 -2.350385e-06 0)
(-2.753929e-06 -2.844361e-06 3.47396e-29)
(-2.023426e-06 -1.148689e-07 -3.703168e-29)
(-4.070317e-06 -4.435223e-07 0)
(-4.5506e-06 -8.422335e-07 4.643346e-31)
(-4.191911e-06 -1.272229e-06 6.482689e-31)
(-3.541999e-06 -1.728294e-06 -7.619258e-29)
(-2.908646e-06 -2.200396e-06 3.433391e-29)
(-2.378314e-06 -2.652449e-06 -3.029687e-29)
(-1.76737e-06 -1.146741e-07 0)
(-3.547968e-06 -4.388727e-07 -3.920968e-29)
(-3.954503e-06 -8.299446e-07 4.151332e-31)
(-3.625743e-06 -1.245008e-06 3.600474e-29)
(-3.043821e-06 -1.676882e-06 -3.306072e-29)
(-2.487675e-06 -2.117305e-06 2.981258e-29)
(-2.028129e-06 -2.532248e-06 2.583496e-32)
(-1.534066e-06 -1.218422e-07 0)
(-3.067856e-06 -4.567492e-07 -3.424749e-29)
(-3.401099e-06 -8.547082e-07 3.293817e-29)
(-3.095126e-06 -1.268478e-06 3.170239e-29)
(-2.575321e-06 -1.688409e-06 -2.801039e-29)
(-2.088136e-06 -2.104814e-06 1.511224e-30)
(-1.693049e-06 -2.486293e-06 2.270423e-29)
(-1.319069e-06 -1.377791e-07 0)
(-2.619352e-06 -5.01357e-07 0)
(-2.876945e-06 -9.230284e-07 2.842017e-29)
(-2.586052e-06 -1.350306e-06 -2.691021e-29)
(-2.121299e-06 -1.769662e-06 1.637078e-32)
(-1.697441e-06 -2.168651e-06 0)
(-1.36335e-06 -2.518993e-06 0)
(-1.117362e-06 -1.645741e-07 -2.07869e-29)