/*--------------------------------*- C++ -*----------------------------------*\
| =========                 |                                                 |
| \\      /  F ield         | OpenFOAM: The Open Source CFD Toolbox           |
|  \\    /   O peration     | Version:  2206                                  |
|   \\  /    A nd           | Website:  www.openfoam.com                      |
|    \\/     M anipulation  |                                                 |
\*---------------------------------------------------------------------------*/
FoamFile
{
    version     2.0;
    format      ascii;
    arch        "LSB;label=32;scalar=64";
    class       volVectorField;
    location    "1.6";
    object      ddtCorrDdt0(U.b);
}
// * * * * * * * * * * * * * * * * * * * * * * * * * * * * * * * * * * * * * //

dimensions      [0 1 -2 0 0 0 0];

internalField   nonuniform List<vector> 
13078
(
(6.387037e-05 0.0001204124 -1.008815e-26)
(4.440631e-05 -4.195659e-05 -3.942501e-29)
(4.433193e-05 -7.459715e-05 -1.897901e-27)
(4.672349e-05 -0.0001487064 0)
(4.683328e-05 -0.0002025203 -4.608819e-27)
(4.681149e-05 -0.0002465076 -5.758318e-27)
(4.634447e-05 -0.0002843852 -6.688998e-27)
(8.617867e-05 -2.878907e-05 0)
(0.0001023977 -1.740191e-05 -1.218035e-28)
(9.594617e-05 -8.111595e-05 0)
(8.999352e-05 -0.0001515041 0)
(8.834376e-05 -0.0002033583 -7.661981e-29)
(8.498312e-05 -0.0002477193 -3.688257e-29)
(8.158719e-05 -0.0002863014 -7.10759e-29)
(0.0002277583 -1.186323e-05 1.30161e-26)
(0.0001755327 -4.802732e-05 -9.932655e-27)
(0.0001479602 -0.0001036546 2.125282e-27)
(0.0001377639 -0.0001581431 6.984481e-27)
(0.0001319252 -0.0002063416 4.819436e-27)
(0.0001245153 -0.0002523166 0)
(0.0001174609 -0.0002921832 -3.938654e-32)
(0.0002363397 -1.954735e-05 1.237436e-26)
(0.0002150489 -6.372891e-05 -2.25246e-26)
(0.0001999364 -0.0001159322 -2.049313e-26)
(0.0001880248 -0.0001662729 -9.356972e-27)
(0.000177252 -0.0002154803 2.903535e-28)
(0.000165795 -0.0002613725 0)
(0.000154138 -0.0003024307 1.265743e-28)
(0.0002713385 -2.371736e-05 -1.707103e-29)
(0.0002630806 -7.335285e-05 -1.356548e-26)
(0.0002512294 -0.000126198 -2.550528e-26)
(0.0002382214 -0.000178228 -2.442518e-26)
(0.0002232694 -0.0002268782 5.187521e-27)
(0.0002087611 -0.0002746428 -5.664784e-31)
(0.0001923338 -0.0003175052 7.171344e-27)
(0.0003247245 -2.570854e-05 0)
(0.0003175299 -8.021314e-05 1.168963e-28)
(0.0003057586 -0.0001370288 -2.013436e-28)
(0.0002912818 -0.0001919255 -1.44553e-26)
(0.0002737357 -0.0002437129 7.337203e-28)
(0.0002537574 -0.0002916155 -6.848783e-27)
(0.0002329707 -0.0003375185 -1.631659e-26)
(0.0003852331 -3.000276e-05 0)
(0.0003773989 -9.009341e-05 -1.88047e-26)
(0.0003646556 -0.0001500052 -2.152023e-26)
(0.0003487425 -0.0002078894 -4.849601e-27)
(0.0003277557 -0.0002637572 -1.527719e-26)
(0.0003036834 -0.0003155317 9.456378e-28)
(0.0002761636 -0.0003624358 0)
(0.0004488378 -3.305177e-05 4.478676e-26)
(0.0004423248 -9.91527e-05 -2.191853e-26)
(0.0004292168 -0.0001640694 -2.115313e-26)
(0.000410258 -0.0002275109 0)
(0.0003858422 -0.0002880653 -3.758082e-26)
(0.0003571742 -0.0003441062 1.034618e-27)
(0.0003245783 -0.0003948028 1.187619e-27)
(0.0005211448 -3.592897e-05 4.772917e-30)
(0.0005141696 -0.0001087646 5.075477e-26)
(0.0004995604 -0.0001806957 2.506076e-26)
(0.0004776388 -0.0002503688 7.55013e-28)
(0.0004489323 -0.0003167681 -8.614023e-26)
(0.0004154294 -0.0003779695 1.139941e-27)
(0.0003769594 -0.0004329729 0)
(0.000601704 -4.000564e-05 -5.967285e-26)
(0.0005939055 -0.0001206353 5.847091e-26)
(0.0005770172 -0.0002001185 2.823783e-26)
(0.0005516631 -0.0002772909 -5.333414e-26)
(0.0005182794 -0.0003503539 -2.919745e-29)
(0.0004793841 -0.0004173231 0)
(0.0004344181 -0.0004775567 0)
(0.0006907044 -4.440482e-05 0)
(0.0006817633 -0.0001343112 0)
(0.0006625752 -0.0002228702 6.466466e-26)
(0.0006334624 -0.0003082705 -6.11123e-26)
(0.0005951425 -0.0003890456 3.377085e-29)
(0.0005500329 -0.0004630133 0)
(0.0004976678 -0.0005295123 0)
(0.0007899215 -5.004694e-05 0)
(0.0007794355 -0.0001503361 -7.639101e-26)
(0.000757784 -0.0002486115 7.38294e-26)
(0.0007245487 -0.0003437589 6.865944e-26)
(0.0006804989 -0.0004335965 -6.675433e-26)
(0.0006284485 -0.0005158794 0)
(0.0005681706 -0.0005895231 5.747421e-26)
(0.0009004553 -5.624553e-05 0)
(0.0008888374 -0.0001684381 -8.750674e-26)
(0.000864136 -0.0002780532 -8.456094e-28)
(0.0008262231 -0.0003843844 7.938029e-26)
(0.0007756774 -0.0004848 -7.438446e-26)
(0.0007163031 -0.0005765896 6.827725e-26)
(0.0006481666 -0.0006594375 5.412242e-29)
(0.001024415 -6.318918e-05 -1.009108e-25)
(0.001011233 -0.0001889266 0)
(0.0009831072 -0.0003115539 -9.463753e-28)
(0.0009395977 -0.000430841 -1.310516e-27)
(0.0008830203 -0.0005431235 -1.690787e-25)
(0.0008152887 -0.0006459993 7.762212e-26)
(0.0007379994 -0.0007394717 -6.973133e-26)
(0.001163649 -7.108005e-05 -1.145274e-25)
(0.001148507 -0.0002122457 0)
(0.001116628 -0.0003500289 -2.120643e-27)
(0.001066736 -0.0004840907 1.222643e-25)
(0.001005355 -0.0006077915 -6.761078e-26)
(0.000926783 -0.0007251027 0)
(0.0008390787 -0.0008304183 7.90685e-26)
(0.001320094 -8.007963e-05 0)
(0.001302803 -0.0002386473 -1.270613e-25)
(0.001266896 -0.0003928066 0)
(0.001212464 -0.0005418036 1.200452e-25)
(0.001140698 -0.0006834157 4.150401e-27)
(0.001052017 -0.0008150508 4.961989e-27)
(0.0009528868 -0.0009334427 9.54384e-26)
(0.001495796 -9.017347e-05 0)
(0.001476582 -0.0002684447 -2.878349e-25)
(0.001435885 -0.0004416245 -1.343034e-27)
(0.001374634 -0.0006089803 -1.855123e-27)
(0.001293147 -0.0007684644 0)
(0.001192982 -0.0009165769 0)
(0.001080962 -0.001049688 0)
(0.001693672 -0.0001010911 -1.661695e-25)
(0.001672119 -0.0003017052 -1.633458e-25)
(0.001626081 -0.0004968603 -3.02546e-27)
(0.001556937 -0.0006849837 -2.086746e-27)
(0.001464789 -0.000864362 0)
(0.001351825 -0.001031112 -1.341431e-25)
(0.00122515 -0.001181002 -1.439212e-26)
(0.001916882 -0.0001134574 -1.880037e-25)
(0.00189206 -0.000339206 -1.846596e-25)
(0.001840164 -0.0005590607 -5.102844e-27)
(0.001762167 -0.0007706756 -4.694839e-27)
(0.001657742 -0.0009723028 0)
(0.001531476 -0.001159748 -1.448576e-25)
(0.001387601 -0.001329004 -8.09591e-27)
(0.002168326 -0.0001275137 -2.127295e-25)
(0.002139784 -0.0003815121 -4.163289e-25)
(0.00208132 -0.0006290746 -2.010667e-25)
(0.001993662 -0.0008676748 0)
(0.001875019 -0.001096376 5.061743e-26)
(0.001737681 -0.001301762 7.665978e-26)
(0.001571042 -0.001495278 1.817177e-26)
(0.002451487 -0.0001433635 -2.406584e-25)
(0.002418793 -0.0004290631 -4.696989e-25)
(0.002352875 -0.0007074834 -4.522399e-25)
(0.002254636 -0.000975165 -2.10399e-25)
(0.002125217 -0.001228909 7.475888e-27)
(0.00196598 -0.001466394 -1.825698e-25)
(0.001777595 -0.001683198 1.559951e-25)
(0.002770358 -0.0001612009 0)
(0.002732973 -0.0004825177 -2.641513e-25)
(0.002658664 -0.0007957593 -2.541883e-25)
(0.002548132 -0.001097083 -4.887234e-25)
(0.002403302 -0.001382391 0)
(0.002223026 -0.001650233 -2.064476e-25)
(0.00201069 -0.001894459 2.482277e-28)
(0.003129364 -0.0001811968 3.066153e-25)
(0.003086694 -0.0005424312 0)
(0.003003097 -0.0008946808 0)
(0.002878934 -0.00123369 7.294781e-27)
(0.002716208 -0.001554763 2.677573e-25)
(0.002512228 -0.001856044 0)
(0.002275155 -0.002130862 -2.125165e-25)
(0.003533378 -0.0002035531 6.921725e-25)
(0.003484759 -0.0006093999 0)
(0.003390929 -0.001005289 0)
(0.003251836 -0.001386727 3.030284e-25)
(0.003069874 -0.001749416 5.731854e-25)
(0.00283957 -0.002093476 -2.673806e-25)
(0.002581331 -0.002391855 0)
(0.003987721 -0.0002284667 3.904635e-25)
(0.003932409 -0.0006840134 2.066929e-27)
(0.003827331 -0.0011285 3.718446e-25)
(0.003671776 -0.001556908 9.42505e-27)
(0.003469157 -0.001963378 1.220469e-26)
(0.003219052 -0.002343993 -3.03162e-25)
(0.002920511 -0.002694156 0)
(0.00449816 -0.000256139 0)
(0.004435374 -0.0007668959 -4.299162e-25)
(0.004318044 -0.001265535 4.155956e-25)
(0.004144524 -0.001746867 0)
(0.003918524 -0.002204722 -3.455218e-25)
(0.003640598 -0.002633976 6.37878e-26)
(0.003304059 -0.003032026 3.673672e-26)
(0.005070865 -0.0002867359 -4.960008e-25)
(0.004999887 -0.0008585497 -4.845628e-25)
(0.00486938 -0.001417192 4.680314e-25)
(0.004676666 -0.001957295 0)
(0.004425689 -0.002472238 -2.987866e-26)
(0.004116716 -0.002956426 -5.317846e-29)
(0.003739814 -0.003407985 4.125991e-26)
(0.005712066 -0.0003204379 -5.586242e-25)
(0.005632895 -0.0009590881 -5.453074e-25)
(0.0054881 -0.001584158 5.274791e-25)
(0.005274904 -0.002189442 0)
(0.004997365 -0.002767976 0)
(0.004656414 -0.00331586 -4.37644e-25)
(0.004239252 -0.003837744 4.284626e-26)
(0.006427762 -0.0003567317 -6.29318e-25)
(0.006342045 -0.001068694 -6.171551e-25)
(0.006181669 -0.001767154 0)
(0.00594643 -0.002444439 5.371348e-25)
(0.005640063 -0.003092374 -3.7376e-26)
(0.005263247 -0.003702661 -9.443984e-25)
(0.004810456 -0.004264174 1.540167e-25)
(0.007223312 -0.0003966763 -7.059223e-25)
(0.007137588 -0.001181326 0)
(0.006957928 -0.001965551 -6.790168e-25)
(0.006701099 -0.002724361 6.221889e-25)
(0.006364284 -0.003452233 -6.015388e-25)
(0.005947037 -0.004144424 -1.116392e-24)
(0.005442335 -0.004792136 -5.058264e-25)
(0.008115382 -0.0004341654 0)
(0.00801564 -0.001309577 0)
(0.00782599 -0.002178671 -1.500374e-24)
(0.007547407 -0.003027354 0)
(0.007181375 -0.003846228 -1.357261e-24)
(0.0067273 -0.004629859 -6.313329e-25)
(0.006175847 -0.00537426 5.737177e-25)
(0.009099887 -0.0004791524 -8.92214e-25)
(0.00898631 -0.001450149 8.612337e-25)
(0.008801867 -0.002394005 8.343135e-25)
(0.008499378 -0.003348075 0)
(0.008100821 -0.004270022 -7.655119e-25)
(0.007611985 -0.005154914 0)
(0.007017261 -0.005994827 5.082241e-25)
(0.01017246 -0.0005254449 -9.940262e-25)
(0.01007305 -0.001584323 9.752915e-25)
(0.009865585 -0.002650287 2.828468e-24)
(0.009579196 -0.003675023 1.843252e-24)
(0.009137885 -0.004722145 -8.043559e-25)
(0.00861483 -0.005723256 6.875156e-26)
(0.007974681 -0.006684132 -8.028961e-26)
(0.01136002 -0.0005745714 1.676667e-27)
(0.01126122 -0.001728559 5.19203e-27)
(0.01106484 -0.002880959 1.096832e-24)
(0.01075354 -0.004040867 1.974307e-24)
(0.01030777 -0.005198331 -1.096356e-24)
(0.009756392 -0.006331717 1.519137e-25)
(0.009075665 -0.007432182 3.576178e-25)
(0.01267937 -0.0006254146 -1.819629e-27)
(0.01256661 -0.00188064 -5.643316e-27)
(0.01237466 -0.003135476 1.152065e-24)
(0.0120491 -0.004421528 7.20081e-25)
(0.01164378 -0.005652238 -6.295131e-25)
(0.01106714 -0.006953533 8.664752e-25)
(0.01034754 -0.008224577 0)
(0.01409086 -0.000669056 0)
(0.01397681 -0.002013849 0)
(0.01380354 -0.003362288 1.327355e-24)
(0.01352215 -0.00473747 1.400263e-24)
(0.01309607 -0.006168991 1.90728e-24)
(0.01259478 -0.007546949 1.837684e-24)
(0.01182399 -0.009042049 0)
(0.01559438 -0.0007058038 -4.065122e-27)
(0.0154832 -0.002128015 1.224685e-26)
(0.0153344 -0.003562554 4.241401e-26)
(0.01509989 -0.005028453 0)
(0.01474387 -0.006550256 2.7948e-24)
(0.01425085 -0.008156505 -1.926444e-25)
(0.01354323 -0.009844998 -4.694478e-25)
(0.01717342 -0.0007326537 -1.670781e-24)
(0.01707307 -0.002214049 1.318504e-26)
(0.01696211 -0.003721359 -1.630516e-24)
(0.01678954 -0.00528304 0)
(0.01652141 -0.006929299 1.730789e-24)
(0.01607967 -0.008727035 2.614306e-25)
(0.01558453 -0.0105287 -2.308728e-24)
(0.01880266 -0.0007466404 -1.830053e-24)
(0.01872916 -0.002259803 -1.798442e-24)
(0.0186668 -0.003817059 -1.796566e-24)
(0.0185787 -0.005443757 -1.268395e-25)
(0.01843967 -0.007174332 -3.358316e-25)
(0.0181767 -0.009031935 1.081863e-24)
(0.01777277 -0.01114083 -1.042136e-24)
(0.0204579 -0.0007507186 0)
(0.02042719 -0.002250559 1.941927e-24)
(0.02042804 -0.003837059 1.963075e-24)
(0.02045143 -0.005503414 6.407752e-26)
(0.02049876 -0.00730672 -2.11892e-24)
(0.02051901 -0.009292346 -2.154196e-25)
(0.02040731 -0.01164516 0)
(0.02214093 -0.0007349048 2.162286e-24)
(0.02212455 -0.002239161 4.195002e-24)
(0.02226534 -0.003741624 1.99286e-24)
(0.02250209 -0.005377489 4.305414e-24)
(0.02298069 -0.007144181 -2.35953e-24)
(0.02374731 -0.009122336 2.068799e-24)
(0.02410176 -0.01172524 1.613384e-22)
(0.02384246 -0.0007090996 2.324332e-24)
(0.02392535 -0.002122348 -1.187726e-26)
(0.02425898 -0.003503938 0)
(0.02515239 -0.004802621 5.084948e-26)
(0.02640654 -0.006374932 5.163606e-24)
(0.02741295 -0.008947446 1.142963e-22)
(0.02768297 -0.01270911 -9.595183e-24)
(0.0256134 -0.000630056 -2.504669e-24)
(0.02596098 -0.001777939 1.577095e-26)
(0.02691117 -0.002672093 2.027564e-26)
(0.02830119 -0.003771158 -5.697023e-24)
(0.02975793 -0.005951665 -1.247934e-22)
(0.03059635 -0.009535004 -1.594483e-22)
(0.03056535 -0.01332037 -1.22968e-22)
(0.02769252 -0.0003186869 -2.725334e-24)
(0.02843779 -0.0008131227 0)
(0.02986376 -0.001454317 -3.507547e-26)
(0.03148794 -0.003137967 -1.449417e-22)
(0.03247585 -0.006120959 -2.321426e-22)
(0.0326882 -0.009494208 -7.65767e-22)
(0.03210142 -0.01344137 -1.496758e-22)
(0.03003725 0.0002818855 0)
(0.03103236 0.0003124975 -8.028856e-26)
(0.03263637 -0.0006548769 -7.339124e-23)
(0.03358571 -0.002864921 -1.595544e-22)
(0.03357954 -0.005821036 2.067812e-23)
(0.03312849 -0.009336917 4.608918e-23)
(0.03244894 -0.01399626 3.531942e-22)
(0.03251633 0.000444653 0)
(0.03340636 0.0008068184 1.365371e-23)
(0.03392155 -0.0002776086 4.577901e-23)
(0.03388845 -0.002485088 8.516197e-23)
(0.03373019 -0.005654572 4.419756e-23)
(0.03327531 -0.009477153 -3.624107e-23)
(0.03191486 -0.01481396 -1.457978e-22)
(0.03450616 0.0002276705 -3.548827e-24)
(0.03430374 0.0009832784 -7.22145e-23)
(0.0337705 2.618825e-05 5.686105e-23)
(0.03341328 -0.002170432 2.144136e-23)
(0.03319514 -0.005302938 3.672828e-22)
(0.03288197 -0.00987015 -1.775392e-22)
(0.03165941 -0.01504841 -2.140128e-22)
(0.03518362 0.0002753085 -4.91742e-23)
(0.03408915 0.0008159975 -1.533685e-22)
(0.0331421 -9.984866e-06 -8.496205e-23)
(0.03261525 -0.002153229 -9.206202e-23)
(0.03223583 -0.005349291 2.905022e-22)
(0.0315832 -0.009990814 -4.055595e-22)
(0.03078039 -0.01610992 -4.735146e-22)
(0.03410653 0.0003735083 -2.690675e-23)
(0.03307356 0.0005814856 -1.083937e-23)
(0.03197356 -0.0002229097 -5.988093e-25)
(0.03144489 -0.00223047 -1.821208e-22)
(0.03115896 -0.005624968 2.342333e-23)
(0.02982135 -0.01041964 8.693099e-23)
(0.0284445 -0.01788433 -2.534677e-22)
(0.03193857 0.0004335077 8.500755e-23)
(0.0311376 0.0003320307 6.600283e-23)
(0.02996762 -0.0003932961 -5.315501e-23)
(0.02932449 -0.002189915 -6.183008e-23)
(0.02886804 -0.006362992 3.56523e-24)
(0.02785875 -0.01194844 1.813509e-22)
(0.02593186 -0.01960838 8.619881e-23)
(0.02899414 0.0003159276 5.673258e-23)
(0.02841689 -3.219583e-05 -1.937985e-23)
(0.02715946 -0.0007650756 1.237197e-22)
(0.02631098 -0.002619585 7.764717e-23)
(0.02559441 -0.006687614 -4.686037e-23)
(0.02542315 -0.01280008 -3.759574e-23)
(0.02332607 -0.02117229 -1.12472e-22)
(0.02525377 2.930331e-05 -8.181063e-24)
(0.02499624 -0.0005667261 -3.91085e-23)
(0.02383868 -0.001148865 2.302502e-22)
(0.02265355 -0.003029241 -6.591934e-23)
(0.02176849 -0.006688853 -3.792803e-22)
(0.02162356 -0.01369855 1.059873e-22)
(0.02035393 -0.02240684 2.880447e-22)
(0.02077014 -0.0002192243 -1.113082e-23)
(0.02083065 -0.0009408259 -4.693678e-23)
(0.01975238 -0.001762817 -2.166569e-23)
(0.01843434 -0.003853125 1.239255e-22)
(0.01763282 -0.007113501 2.722451e-23)
(0.0174981 -0.01359337 -6.062149e-23)
(0.01690883 -0.02300415 1.165958e-22)
(0.0157201 -0.0003914669 -2.958708e-24)
(0.01583948 -0.0012957 1.451945e-23)
(0.01484986 -0.00242056 -4.079426e-23)
(0.01399138 -0.004399632 -5.362719e-24)
(0.01348685 -0.007088853 -2.96564e-23)
(0.01355886 -0.01360216 1.386113e-23)
(0.01299888 -0.02342556 9.162139e-23)
(0.01004941 -0.0006149502 4.531658e-25)
(0.0101992 -0.001768572 2.88021e-23)
(0.009764453 -0.002615214 2.773885e-23)
(0.009498973 -0.004456787 -6.081927e-23)
(0.00897093 -0.007192858 -8.647362e-23)
(0.008985216 -0.01359204 -1.010973e-23)
(0.008914096 -0.0233785 5.147785e-23)
(0.004022868 -0.0005648621 -7.767957e-25)
(0.004209154 -0.001545285 -5.002114e-24)
(0.004265043 -0.002298012 -4.354311e-24)
(0.004215363 -0.00457611 5.182987e-24)
(0.003899659 -0.007393045 -1.353929e-24)
(0.003877085 -0.01352517 -1.686047e-23)
(0.004435551 -0.02306236 -7.288407e-23)
(-0.002043388 -0.0005876594 -2.743546e-24)
(-0.001985115 -0.001514217 7.371607e-24)
(-0.001763757 -0.00217525 -1.163122e-23)
(-0.001618461 -0.004460806 -6.223304e-23)
(-0.00156974 -0.007306385 -4.837682e-23)
(-0.001477642 -0.01341102 1.602563e-23)
(-0.000649768 -0.02270496 1.844462e-23)
(-0.008132612 -0.0005038401 -1.86284e-23)
(-0.008116668 -0.001304903 1.419977e-24)
(-0.007707779 -0.00194927 -3.143305e-23)
(-0.007319478 -0.004281484 5.075955e-23)
(-0.006992105 -0.00714264 3.34844e-23)
(-0.006626616 -0.01323918 4.684962e-23)
(-0.00578974 -0.02231548 -9.576977e-23)
(-0.0139091 -0.0002816704 3.049309e-23)
(-0.01388535 -0.001040836 -5.479864e-24)
(-0.0132544 -0.001727386 -8.279607e-23)
(-0.01258336 -0.003888305 -3.219093e-23)
(-0.01196584 -0.006633433 2.38508e-23)
(-0.01164518 -0.01283023 4.3041e-23)
(-0.0106237 -0.02195121 -4.750483e-23)
(-0.01933878 -5.26363e-05 6.396229e-23)
(-0.01924005 -0.0006493637 -9.353877e-23)
(-0.01841287 -0.00125155 -7.028196e-23)
(-0.01767435 -0.003286272 -4.880289e-23)
(-0.01676059 -0.006368609 6.587137e-23)
(-0.01646273 -0.01245897 -6.031842e-23)
(-0.01537512 -0.02139152 -3.410017e-22)
(-0.02421664 0.0001751495 -3.797482e-23)
(-0.02390862 -0.000291048 -5.251114e-23)
(-0.02307809 -0.0008968313 -1.740181e-22)
(-0.02239343 -0.002603585 -3.415565e-22)
(-0.02164758 -0.005755482 -1.133016e-22)
(-0.02116919 -0.01211417 1.105378e-22)
(-0.02012147 -0.02065734 -1.078048e-22)
(-0.02818867 0.0003565601 -1.655167e-22)
(-0.02759041 0.0001560275 -6.54864e-23)
(-0.02652068 -0.0006954084 -1.300064e-22)
(-0.02593291 -0.002422923 -1.364052e-23)
(-0.02559317 -0.005592064 8.722287e-23)
(-0.02533243 -0.0115775 -3.234927e-23)
(-0.02392591 -0.01964472 1.75071e-23)
(-0.0312441 0.0004500301 -1.653042e-22)
(-0.03038135 0.0007484007 -6.771908e-23)
(-0.02924294 -0.0002601635 8.443197e-23)
(-0.02867687 -0.00228643 2.973523e-22)
(-0.0283474 -0.005676737 -5.662682e-24)
(-0.0283528 -0.01110538 -3.647202e-22)
(-0.02671214 -0.01830866 -8.731076e-23)
(-0.03358084 0.0005421703 1.358577e-22)
(-0.03254312 0.001152212 -7.131286e-23)
(-0.03152927 0.0001119243 -1.512518e-23)
(-0.0309557 -0.002079705 1.934422e-22)
(-0.03074135 -0.005793456 -5.577837e-23)
(-0.03056084 -0.01066844 1.380302e-23)
(-0.02918655 -0.01727906 6.777591e-23)
(-0.03455255 0.0005338178 1.334525e-22)
(-0.03403246 0.001356502 -2.69464e-23)
(-0.03330194 0.0004216957 6.718867e-23)
(-0.03284008 -0.002062722 1.814634e-22)
(-0.03270515 -0.00594221 1.208032e-22)
(-0.03207224 -0.0104255 2.119312e-22)
(-0.03188957 -0.01637894 4.921605e-23)
(-0.0336402 0.0005311844 -3.413386e-24)
(-0.03443716 0.001333217 4.865007e-24)
(-0.0345834 0.0004150817 1.39745e-22)
(-0.03431198 -0.002153921 -2.013204e-22)
(-0.03416699 -0.005676686 2.168104e-22)
(-0.03359512 -0.01076284 9.291083e-23)
(-0.03341104 -0.01674882 -8.548797e-23)
(-0.03180065 0.0005583173 0)
(-0.03307323 0.0008827039 -5.954991e-24)
(-0.0346609 0.0001374456 9.849309e-23)
(-0.03525219 -0.002244818 4.219912e-23)
(-0.03508925 -0.005866499 1.107186e-23)
(-0.03472889 -0.01067205 -5.375408e-23)
(-0.03331299 -0.01678525 -1.951721e-22)
(-0.03046485 1.991651e-05 0)
(-0.0312113 5.696072e-05 4.224749e-26)
(-0.03266527 -0.0006479568 -6.721059e-24)
(-0.03449921 -0.002495311 6.847472e-23)
(-0.03519338 -0.005827122 -7.101809e-23)
(-0.03487413 -0.01012963 1.110992e-22)
(-0.03362755 -0.01570865 -1.535629e-22)
(-0.02880757 -0.0004381238 -2.841668e-24)
(-0.02932264 -0.001110337 0)
(-0.03048887 -0.001776846 0)
(-0.03185488 -0.00328135 -4.189408e-23)
(-0.03327867 -0.005912311 -1.25274e-22)
(-0.03406767 -0.009717599 1.892245e-22)
(-0.03355168 -0.0147668 -1.658906e-22)
(-0.02715826 -0.0006093518 -2.671632e-24)
(-0.02736404 -0.00181949 -1.824307e-26)
(-0.02811335 -0.003016163 -3.044411e-26)
(-0.02923494 -0.004386993 -2.320902e-25)
(-0.03054902 -0.006345659 -1.176953e-22)
(-0.03143369 -0.009531359 1.774652e-22)
(-0.03162598 -0.01373593 -3.488638e-22)
(-0.02550333 -0.0007051898 0)
(-0.0256084 -0.002149731 2.503817e-24)
(-0.02593666 -0.003690783 0)
(-0.02656071 -0.005294752 -1.144076e-25)
(-0.02737101 -0.007224122 -1.565874e-25)
(-0.02822015 -0.009741807 5.171317e-23)
(-0.02862189 -0.01310373 -2.92584e-22)
(-0.02381098 -0.0007584642 0)
(-0.0238335 -0.002329103 -2.313575e-24)
(-0.02400557 -0.003954718 2.3275e-24)
(-0.02421239 -0.005775246 0)
(-0.02450108 -0.00779051 -3.450664e-25)
(-0.02489103 -0.01006198 1.455664e-24)
(-0.02499247 -0.01292081 -4.10251e-23)
(-0.02205657 -0.0007943734 0)
(-0.02204551 -0.002394949 -6.433621e-24)
(-0.02207109 -0.004099464 -2.776491e-27)
(-0.02208649 -0.005933406 -4.501928e-24)
(-0.02211013 -0.007897664 -3.635899e-25)
(-0.02200934 -0.01014997 2.08292e-24)
(-0.02161346 -0.01276645 -2.097138e-24)
(-0.02029223 -0.0007989152 1.989606e-24)
(-0.02022814 -0.002423182 -1.995755e-24)
(-0.02016717 -0.004105045 5.510155e-28)
(-0.02006748 -0.00587858 -3.766411e-24)
(-0.01987808 -0.007779446 0)
(-0.0195343 -0.009837838 0)
(-0.01897676 -0.0121066 -2.811268e-24)
(-0.01854122 -0.0007879376 1.811859e-24)
(-0.01844221 -0.002386252 -1.807639e-24)
(-0.01831479 -0.004024997 1.767782e-24)
(-0.01812408 -0.005709209 1.737625e-24)
(-0.01779272 -0.007517011 0)
(-0.01726489 -0.009467025 0)
(-0.01664712 -0.01137962 -1.952763e-24)
(-0.0168375 -0.0007614188 -1.649345e-24)
(-0.01671772 -0.002303194 -1.676038e-24)
(-0.01655173 -0.003852989 -4.5158e-26)
(-0.01627486 -0.005460669 1.49217e-24)
(-0.01584491 -0.007138005 4.711857e-25)
(-0.0152906 -0.008821442 -2.2212e-24)
(-0.01448823 -0.01062796 1.079298e-24)
(-0.01521272 -0.0007218488 -1.493395e-24)
(-0.01508787 -0.002178027 -1.314333e-26)
(-0.01488499 -0.003645052 4.347584e-26)
(-0.01456075 -0.005138495 6.182088e-26)
(-0.01408765 -0.006677212 0)
(-0.01348636 -0.008202974 -1.4154e-24)
(-0.01266228 -0.009781204 1.173223e-24)
(-0.01368507 -0.0006781601 0)
(-0.01355969 -0.00203635 -2.421047e-26)
(-0.01333522 -0.003407087 -4.104925e-26)
(-0.01296618 -0.004807225 2.850013e-24)
(-0.01251955 -0.006145963 5.450816e-25)
(-0.01186607 -0.007554496 2.031642e-24)
(-0.01108492 -0.008917639 8.081379e-25)
(-0.01226991 -0.0006265404 -3.675112e-27)
(-0.01214209 -0.001884967 -1.140491e-26)
(-0.01191115 -0.003140401 0)
(-0.01155959 -0.004401589 -3.141742e-27)
(-0.01106604 -0.005659999 1.042452e-24)
(-0.01045697 -0.006888541 9.755207e-25)
(-0.009713553 -0.008076802 -1.952137e-25)
(-0.01096835 -0.0005756875 1.071107e-24)
(-0.01084126 -0.001733341 -1.075984e-24)
(-0.01060114 -0.002895618 1.862037e-24)
(-0.01028167 -0.004011403 -2.15768e-24)
(-0.009795116 -0.005148956 8.592216e-25)
(-0.009220886 -0.006234784 0)
(-0.00852037 -0.007275082 1.759943e-25)
(-0.00977932 -0.0005258866 9.591602e-25)
(-0.009648519 -0.00158861 -9.244578e-25)
(-0.009440923 -0.002618375 8.942502e-25)
(-0.009106125 -0.003656375 0)
(-0.00866792 -0.00465844 -8.174693e-25)
(-0.008131737 -0.005617833 0)
(-0.007482363 -0.006529747 6.927561e-25)
(-0.008701956 -0.0004754782 0)
(-0.008588491 -0.001432782 0)
(-0.00837783 -0.002380575 -1.604663e-24)
(-0.008069969 -0.003304245 0)
(-0.007668388 -0.004194207 -1.445812e-24)
(-0.007171289 -0.005045536 -6.706625e-25)
(-0.006570041 -0.005854548 6.073451e-25)
(-0.00772762 -0.0004332549 -7.546166e-25)
(-0.007630586 -0.00129042 0)
(-0.007432148 -0.002144355 -6.98693e-25)
(-0.007150038 -0.00296999 6.980947e-25)
(-0.00678121 -0.003762286 -6.391092e-25)
(-0.00632519 -0.004513997 -1.182738e-24)
(-0.005773462 -0.005216871 -5.337019e-25)
(-0.006859644 -0.0003882584 -6.684463e-25)
(-0.006764097 -0.00116456 -6.502726e-25)
(-0.006587427 -0.001925768 0)
(-0.006330701 -0.002662225 6.339519e-25)
(-0.005995418 -0.003366485 4.088701e-26)
(-0.005583307 -0.004028927 -1.09341e-24)
(-0.005088221 -0.00463761 -1.685741e-25)
(-0.006080091 -0.0003485338 -5.934926e-25)
(-0.005993142 -0.001043766 -5.789882e-25)
(-0.005834179 -0.001724012 5.593663e-25)
(-0.005601353 -0.002381673 0)
(-0.005298092 -0.003009798 0)
(-0.004925433 -0.003603926 -4.605861e-25)
(-0.004469707 -0.004168838 7.950031e-25)
(-0.005383348 -0.0003116507 -5.25257e-25)
(-0.005305398 -0.000933251 -5.128057e-25)
(-0.00516256 -0.001540278 4.946808e-25)
(-0.004952313 -0.00212648 0)
(-0.004678372 -0.002684868 3.258663e-26)
(-0.004340944 -0.003209247 5.584446e-29)
(-0.003929357 -0.003697256 -4.493184e-26)
(-0.004761813 -0.0002781145 0)
(-0.004692834 -0.000832631 -4.533559e-25)
(-0.004564684 -0.001373706 4.376873e-25)
(-0.004375624 -0.001895493 0)
(-0.004129206 -0.002391373 -4.19175e-25)
(-0.003825953 -0.00285575 -6.941859e-26)
(-0.00345861 -0.003285612 -3.994989e-26)
(-0.004208465 -0.000247787 4.105023e-25)
(-0.004147739 -0.0007417511 -2.250564e-27)
(-0.004033161 -0.001223437 3.827483e-25)
(-0.003863888 -0.001687278 -1.025306e-26)
(-0.003643167 -0.002126968 -1.262627e-26)
(-0.003370416 -0.00253826 -3.150124e-25)
(-0.003044371 -0.00291624 0)
(-0.003716479 -0.0002205005 7.246963e-25)
(-0.00366317 -0.0006600297 0)
(-0.003561031 -0.001088504 0)
(-0.003409857 -0.001500953 3.337171e-25)
(-0.003211826 -0.001892759 6.179954e-25)
(-0.002960816 -0.002263962 -2.763719e-25)
(-0.002678483 -0.002585233 0)
(-0.003279498 -0.0001960329 3.195766e-25)
(-0.00323279 -0.0005867521 -1.783069e-27)
(-0.003141964 -0.0009674996 -2.951852e-27)
(-0.003007218 -0.001333559 -8.317257e-27)
(-0.002830304 -0.001679877 2.567287e-25)
(-0.002608002 -0.00200435 0)
(-0.002349065 -0.00229978 -2.167377e-25)
(-0.002891658 -0.0001741601 -2.635543e-28)
(-0.002850828 -0.0005212503 -2.77592e-25)
(-0.00277028 -0.0008593856 -2.68065e-25)
(-0.002650543 -0.001184278 -5.04255e-25)
(-0.002493274 -0.00149154 0)
(-0.00229687 -0.001779521 -2.107525e-25)
(-0.002065005 -0.002041589 2.672429e-28)
(-0.002547612 -0.0001546517 -2.477829e-25)
(-0.002511999 -0.0004628469 -4.853619e-25)
(-0.002440755 -0.0007629935 -4.697349e-25)
(-0.00233457 -0.00105117 -2.28314e-25)
(-0.002194229 -0.001323984 -8.074404e-27)
(-0.002020792 -0.001578872 -1.851281e-25)
(-0.001815066 -0.001811073 1.781941e-25)
(-0.002242504 -0.0001373 -2.181183e-25)
(-0.002211501 -0.0004108998 -4.264033e-25)
(-0.00214855 -0.0006774345 -2.055522e-25)
(-0.002054057 -0.0009338921 0)
(-0.001925622 -0.001179356 -5.474255e-26)
(-0.001776031 -0.001399345 -8.274627e-26)
(-0.00159403 -0.001606142 -1.955595e-26)
(-0.001971966 -0.0001218508 -1.91853e-25)
(-0.001945046 -0.000364636 -1.867835e-25)
(-0.001889459 -0.0006010746 5.500315e-27)
(-0.001805648 -0.0008281285 5.056613e-27)
(-0.001692756 -0.001044107 0)
(-0.001555459 -0.001244478 -1.447897e-25)
(-0.001398225 -0.001424901 8.693926e-27)
(-0.001732074 -0.0001081019 -1.683216e-25)
(-0.001708828 -0.000323498 -1.639878e-25)
(-0.001659857 -0.0005332966 3.255338e-27)
(-0.001585814 -0.0007347844 2.243588e-27)
(-0.001486399 -0.0009265906 0)
(-0.001363759 -0.001104471 -1.199306e-25)
(-0.001225356 -0.001263787 1.542541e-26)
(-0.001519412 -9.582944e-05 1.455662e-28)
(-0.001499493 -0.0002869154 -2.878575e-25)
(-0.001456344 -0.0004731776 1.442688e-27)
(-0.001390898 -0.0006520941 1.991093e-27)
(-0.001303194 -0.0008223737 0)
(-0.00119469 -0.000980086 0)
(-0.00107245 -0.001121181 0)
(-0.001331358 -8.498941e-05 0)
(-0.001313861 -0.0002545489 -1.261212e-25)
(-0.001275805 -0.0004199468 0)
(-0.001217713 -0.0005790618 1.116122e-25)
(-0.001140682 -0.0007301492 -4.445918e-27)
(-0.001044976 -0.0008701518 -5.309801e-27)
(-0.0009371127 -0.0009952797 7.982686e-26)
(-0.001164582 -7.542689e-05 -1.126323e-25)
(-0.001148981 -0.0002261139 0)
(-0.001115276 -0.0003734792 2.26975e-27)
(-0.001062373 -0.0005163964 7.925183e-26)
(-0.0009964722 -0.0006483825 -1.236807e-25)
(-0.0009121631 -0.0007732023 0)
(-0.0008171797 -0.0008844392 7.462514e-26)
(-0.001016389 -6.694445e-05 -9.812061e-26)
(-0.001002444 -0.000200967 0)
(-0.0009727244 -0.0003320757 1.011931e-27)
(-0.0009266519 -0.0004587244 1.399468e-27)
(-0.0008664874 -0.0005783747 -1.614187e-25)
(-0.0007940543 -0.0006883033 7.328672e-26)
(-0.0007107292 -0.0007871848 -6.475751e-26)
(-0.000884327 -5.937455e-05 0)
(-0.0008722517 -0.0001788117 -8.275781e-26)
(-0.0008460272 -0.0002958872 9.027656e-28)
(-0.0008056174 -0.000408836 7.516195e-26)
(-0.0007522666 -0.0005156682 -6.986614e-26)
(-0.000689053 -0.0006135996 6.333433e-26)
(-0.0006159697 -0.0007019421 5.75152e-29)
(-0.000766614 -5.305955e-05 0)
(-0.000756252 -0.0001596058 -7.203495e-26)
(-0.0007331234 -0.000264 6.928051e-26)
(-0.0006974585 -0.0003649851 6.59477e-26)
(-0.0006506197 -0.0004605742 -5.88652e-26)
(-0.0005953104 -0.0005482101 3.336515e-27)
(-0.0005313328 -0.0006273768 4.793702e-26)
(-0.0006617253 -4.752505e-05 0)
(-0.0006523849 -0.000142899 0)
(-0.0006319525 -0.0002361021 5.951497e-26)
(-0.0006008648 -0.0003265644 -5.569824e-26)
(-0.000559806 -0.0004124798 3.560884e-29)
(-0.0005114258 -0.0004911377 0)
(-0.0004555396 -0.0005622725 0)
(-0.0005679101 -4.262233e-05 -5.429351e-26)
(-0.0005592654 -0.0001282074 5.295816e-26)
(-0.0005411582 -0.0002120832 2.475425e-26)
(-0.0005141463 -0.0002933839 -4.831696e-26)
(-0.0004783871 -0.0003704871 -3.068855e-29)
(-0.000436197 -0.0004414324 2.678548e-27)
(-0.0003875226 -0.0005055988 7.52303e-31)
(-0.0004835871 -3.841361e-05 4.801267e-30)
(-0.000475522 -0.0001155904 4.483976e-26)
(-0.00045958 -0.0001912493 2.08887e-26)
(-0.0004358878 -0.000264728 -8.023335e-28)
(-0.0004049388 -0.0003343218 -7.492837e-26)
(-0.0003685526 -0.0003984012 -1.206565e-27)
(-0.0003263124 -0.0004565277 0)
(-0.0004069886 -3.489209e-05 3.859236e-26)
(-0.00039983 -0.0001047294 -1.87675e-26)
(-0.0003857131 -0.0001733433 -1.792499e-26)
(-0.0003652049 -0.0002400237 0)
(-0.0003384469 -0.0003033927 -3.064972e-26)
(-0.0003072063 -0.000361556 -1.091888e-27)
(-0.0002711467 -0.0004144201 -1.251195e-27)
(-0.0003371786 -3.176138e-05 0)
(-0.0003310381 -9.529354e-05 -1.544503e-26)
(-0.000318042 -0.000158407 -1.096851e-26)
(-0.000300924 -0.0002189058 5.174466e-27)
(-0.0002778861 -0.000277025 -1.331363e-26)
(-0.0002512763 -0.0003304853 -9.953406e-28)
(-0.0002206432 -0.0003787885 0)
(-0.0002736991 -2.888256e-05 0)
(-0.0002676936 -8.700431e-05 -1.300453e-28)
(-0.0002566044 -0.0001450433 2.161461e-28)
(-0.0002412419 -0.0002016464 -1.087557e-26)