/*--------------------------------*- C++ -*----------------------------------*\
| =========                 |                                                 |
| \\      /  F ield         | OpenFOAM: The Open Source CFD Toolbox           |
|  \\    /   O peration     | Version:  2206                                  |
|   \\  /    A nd           | Website:  www.openfoam.com                      |
|    \\/     M anipulation  |                                                 |
\*---------------------------------------------------------------------------*/
FoamFile
{
    version     2.0;
    format      ascii;
    arch        "LSB;label=32;scalar=64";
    class       volScalarField;
    location    "1.6";
    object      k.b;
}
// * * * * * * * * * * * * * * * * * * * * * * * * * * * * * * * * * * * * * //

dimensions      [0 2 -2 0 0 0 0];

internalField   nonuniform List<scalar> 
13078
(
2.705149e-13
1.271667e-10
1.471016e-10
1.480888e-10
1.491425e-10
1.503698e-10
1.517993e-10
9.804595e-14
1.14357e-10
1.46483e-10
1.480102e-10
1.49103e-10
1.50339e-10
1.517678e-10
1.372601e-13
1.139019e-10
1.463611e-10
1.479337e-10
1.490509e-10
1.50299e-10
1.517308e-10
1.155927e-13
1.141507e-10
1.463204e-10
1.478751e-10
1.490025e-10
1.502583e-10
1.516922e-10
1.05005e-13
1.142402e-10
1.462975e-10
1.478486e-10
1.489629e-10
1.502198e-10
1.516544e-10
1.017922e-13
1.142903e-10
1.46289e-10
1.47833e-10
1.489474e-10
1.501868e-10
1.516181e-10
1.017454e-13
1.142973e-10
1.462779e-10
1.478202e-10
1.489369e-10
1.501758e-10
1.51586e-10
1.033348e-13
1.142782e-10
1.462664e-10
1.478126e-10
1.489306e-10
1.501686e-10
1.51577e-10
1.059005e-13
1.142579e-10
1.462679e-10
1.478106e-10
1.489269e-10
1.501634e-10
1.515707e-10
1.090524e-13
1.142229e-10
1.462688e-10
1.478096e-10
1.489243e-10
1.501594e-10
1.515655e-10
1.126054e-13
1.14178e-10
1.462691e-10
1.47809e-10
1.489223e-10
1.50156e-10
1.515609e-10
1.165927e-13
1.141254e-10
1.462687e-10
1.478084e-10
1.489206e-10
1.501531e-10
1.515568e-10
1.211035e-13
1.140669e-10
1.462677e-10
1.478077e-10
1.489191e-10
1.501503e-10
1.515528e-10
1.262556e-13
1.140028e-10
1.462661e-10
1.478065e-10
1.489169e-10
1.501474e-10
1.515486e-10
1.321897e-13
1.139341e-10
1.462634e-10
1.477995e-10
1.489063e-10
1.501436e-10
1.515446e-10
1.390744e-13
1.13861e-10
1.462599e-10
1.477905e-10
1.488977e-10
1.5014e-10
1.515402e-10
1.471151e-13
1.137842e-10
1.462573e-10
1.477882e-10
1.488948e-10
1.501367e-10
1.515358e-10
1.565701e-13
1.137035e-10
1.462542e-10
1.477862e-10
1.48892e-10
1.501332e-10
1.515311e-10
1.677501e-13
1.136187e-10
1.462508e-10
1.47784e-10
1.488886e-10
1.501287e-10
1.515262e-10
1.810544e-13
1.135302e-10
1.462471e-10
1.47781e-10
1.488764e-10
1.50111e-10
1.515197e-10
1.969724e-13
1.134376e-10
1.462431e-10
1.477776e-10
1.488616e-10
1.500966e-10
1.515131e-10
2.161367e-13
1.133411e-10
1.46239e-10
1.477748e-10
1.488565e-10
1.500909e-10
1.515071e-10
2.393382e-13
1.132403e-10
1.462344e-10
1.477716e-10
1.488521e-10
1.500844e-10
1.514995e-10
2.675949e-13
1.131352e-10
1.462297e-10
1.477683e-10
1.488463e-10
1.500655e-10
1.51472e-10
3.022017e-13
1.130257e-10
1.462248e-10
1.477647e-10
1.488401e-10
1.500426e-10
1.514496e-10
3.448167e-13
1.129113e-10
1.462194e-10
1.477607e-10
1.488343e-10
1.500333e-10
1.514391e-10
3.975711e-13
1.127942e-10
1.462138e-10
1.477564e-10
1.488281e-10
1.500247e-10
1.514276e-10
4.631453e-13
1.126564e-10
1.462073e-10
1.477519e-10
1.488212e-10
1.500145e-10
1.513974e-10
5.450229e-13
1.125418e-10
1.462015e-10
1.477471e-10
1.488137e-10
1.50003e-10
1.513617e-10
6.478423e-13
1.121565e-10
1.461866e-10
1.477416e-10
1.488057e-10
1.499921e-10
1.513448e-10
7.754135e-13
1.117761e-10
1.461833e-10
1.47736e-10
1.48797e-10
1.499801e-10
1.513278e-10
9.373808e-13
1.11104e-10
1.461737e-10
1.477288e-10
1.487877e-10
1.499669e-10
1.513088e-10
1.14012e-12
1.102483e-10
1.461179e-10
1.477084e-10
1.487762e-10
1.499524e-10
1.512901e-10
1.395342e-12
1.099776e-10
1.460775e-10
1.47691e-10
1.487634e-10
1.499367e-10
1.512698e-10
1.714702e-12
1.096978e-10
1.460604e-10
1.476696e-10
1.487257e-10
1.499166e-10
1.512478e-10
2.106751e-12
1.093846e-10
1.46039e-10
1.476472e-10
1.48683e-10
1.498632e-10
1.512208e-10
2.579847e-12
1.090453e-10
1.460156e-10
1.476271e-10
1.486488e-10
1.498144e-10
1.511886e-10
3.138312e-12
1.086861e-10
1.45988e-10
1.476057e-10
1.486197e-10
1.497587e-10
1.511023e-10
3.779612e-12
1.083161e-10
1.45955e-10
1.475769e-10
1.485794e-10
1.496977e-10
1.510034e-10
4.495645e-12
1.075558e-10
1.459007e-10
1.475216e-10
1.484956e-10
1.495852e-10
1.50847e-10
5.262858e-12
1.062195e-10
1.457969e-10
1.473935e-10
1.483174e-10
1.493784e-10
1.506677e-10
6.031123e-12
1.048042e-10
1.45534e-10
1.470912e-10
1.480185e-10
1.491096e-10
1.504485e-10
6.744153e-12
1.04048e-10
1.451598e-10
1.467006e-10
1.476335e-10
1.488669e-10
1.502747e-10
7.331702e-12
1.031551e-10
1.44748e-10
1.463951e-10
1.473572e-10
1.485519e-10
1.501204e-10
7.713384e-12
1.018061e-10
1.444041e-10
1.461495e-10
1.471702e-10
1.483236e-10
1.496816e-10
7.915092e-12
9.994574e-11
1.44085e-10
1.458238e-10
1.468502e-10
1.479291e-10
1.491479e-10
7.865912e-12
9.794303e-11
1.437067e-10
1.454867e-10
1.462807e-10
1.472893e-10
1.484329e-10
7.295871e-12
9.666047e-11
1.432248e-10
1.450731e-10
1.456961e-10
1.465231e-10
1.475535e-10
6.33103e-12
9.541352e-11
1.426986e-10
1.445443e-10
1.451593e-10
1.459558e-10
1.468521e-10
5.176603e-12
9.428467e-11
1.422003e-10
1.440746e-10
1.446223e-10
1.452736e-10
1.461387e-10
4.027661e-12
9.236213e-11
1.416945e-10
1.437018e-10
1.441975e-10
1.447437e-10
1.453872e-10
2.989757e-12
8.962091e-11
1.411613e-10
1.433172e-10
1.438076e-10
1.443521e-10
1.449321e-10
2.082775e-12
8.81369e-11
1.406322e-10
1.430648e-10
1.436008e-10
1.442396e-10
1.446147e-10
1.338398e-12
8.723419e-11
1.402569e-10
1.427943e-10
1.434045e-10
1.440222e-10
1.444466e-10
7.959467e-13
8.659753e-11
1.400361e-10
1.426398e-10
1.433091e-10
1.439247e-10
1.444622e-10
6.384998e-13
8.613645e-11
1.398972e-10
1.425591e-10
1.432629e-10
1.439037e-10
1.444903e-10
1.028445e-12
8.613249e-11
1.398345e-10
1.424708e-10
1.431586e-10
1.437928e-10
1.443868e-10
1.440516e-12
8.661648e-11
1.399443e-10
1.424894e-10
1.43129e-10
1.43723e-10
1.442482e-10
1.792086e-12
8.727278e-11
1.401505e-10
1.425969e-10
1.431609e-10
1.437326e-10
1.441134e-10
2.173926e-12
8.816372e-11
1.404623e-10
1.427609e-10
1.432237e-10
1.437847e-10
1.441001e-10
2.641528e-12
8.963043e-11
1.409193e-10
1.429075e-10
1.433435e-10
1.438495e-10
1.443744e-10
3.347289e-12
9.235022e-11
1.415044e-10
1.433787e-10
1.437743e-10
1.442159e-10
1.447493e-10
4.486585e-12
9.428186e-11
1.420096e-10
1.436978e-10
1.441239e-10
1.446433e-10
1.453682e-10
5.700099e-12
9.540221e-11
1.425032e-10
1.441421e-10
1.446158e-10
1.452621e-10
1.460602e-10
6.778089e-12
9.664626e-11
1.430506e-10
1.446809e-10
1.451785e-10
1.459113e-10
1.467829e-10
7.490322e-12
9.791817e-11
1.435801e-10
1.451696e-10
1.458186e-10
1.466561e-10
1.476123e-10
7.754423e-12
9.990728e-11
1.440127e-10
1.455755e-10
1.464255e-10
1.473302e-10
1.483642e-10
7.934314e-12
1.017586e-10
1.443464e-10
1.459805e-10
1.468281e-10
1.478216e-10
1.490025e-10
7.789553e-12
1.031123e-10
1.446944e-10
1.4629e-10
1.471615e-10
1.481607e-10
1.495434e-10
7.376891e-12
1.040167e-10
1.451146e-10
1.466305e-10
1.475185e-10
1.486073e-10
1.498249e-10
6.771052e-12
1.047772e-10
1.454966e-10
1.470369e-10
1.479325e-10
1.489797e-10
1.501939e-10
6.050395e-12
1.059722e-10
1.457535e-10
1.473507e-10
1.482609e-10
1.493135e-10
1.505817e-10
5.283838e-12
1.070756e-10
1.458642e-10
1.474923e-10
1.484631e-10
1.49556e-10
1.508121e-10
4.52888e-12
1.077736e-10
1.459202e-10
1.475563e-10
1.485645e-10
1.496786e-10
1.509811e-10
3.822307e-12
1.081928e-10
1.459624e-10
1.475911e-10
1.486092e-10
1.497439e-10
1.510853e-10
3.184713e-12
1.087559e-10
1.460023e-10
1.476194e-10
1.486452e-10
1.498092e-10
1.511764e-10
2.62822e-12
1.092326e-10
1.460282e-10
1.476399e-10
1.486809e-10
1.498708e-10
1.512108e-10
2.155165e-12
1.096159e-10
1.460489e-10
1.476634e-10
1.487203e-10
1.499092e-10
1.512382e-10
1.760439e-12
1.099635e-10
1.460686e-10
1.476859e-10
1.487577e-10
1.499299e-10
1.512621e-10
1.436433e-12
1.102316e-10
1.461094e-10
1.477043e-10
1.487714e-10
1.499469e-10
1.512839e-10
1.172989e-12
1.110927e-10
1.461667e-10
1.477254e-10
1.487838e-10
1.499623e-10
1.513038e-10
9.611413e-13
1.117654e-10
1.461767e-10
1.477331e-10
1.487937e-10
1.499763e-10
1.513237e-10
7.93826e-13
1.121476e-10
1.461804e-10
1.477392e-10
1.488029e-10
1.49989e-10
1.513413e-10
6.589971e-13
1.125334e-10
1.46196e-10
1.47745e-10
1.488115e-10
1.500005e-10
1.513588e-10
5.517298e-13
1.12649e-10
1.462023e-10
1.477501e-10
1.488193e-10
1.500123e-10
1.513949e-10
4.661738e-13
1.127875e-10
1.462093e-10
1.47755e-10
1.488264e-10
1.500228e-10
1.514255e-10
3.977817e-13
1.129052e-10
1.462154e-10
1.477595e-10
1.488329e-10
1.500317e-10
1.514374e-10
3.429767e-13
1.130203e-10
1.462213e-10
1.477636e-10
1.488389e-10
1.500414e-10
1.514482e-10
2.988891e-13
1.131305e-10
1.462266e-10
1.477673e-10
1.488453e-10
1.500644e-10
1.514708e-10
2.632675e-13
1.132361e-10
1.462317e-10
1.477708e-10
1.488512e-10
1.500834e-10
1.514984e-10
2.343423e-13
1.133376e-10
1.462365e-10
1.477741e-10
1.488558e-10
1.500901e-10
1.515062e-10
2.10725e-13
1.134347e-10
1.462409e-10
1.477771e-10
1.488611e-10
1.50096e-10
1.515123e-10
1.913368e-13
1.13528e-10
1.462452e-10
1.477806e-10
1.488761e-10
1.501106e-10
1.515192e-10
1.753234e-13
1.136173e-10
1.462493e-10
1.477838e-10
1.488883e-10
1.501284e-10
1.515258e-10
1.620272e-13
1.13703e-10
1.462531e-10
1.47786e-10
1.488917e-10
1.50133e-10
1.515308e-10
1.509412e-13
1.137846e-10
1.462564e-10
1.477881e-10
1.488946e-10
1.501364e-10
1.515354e-10
1.417601e-13
1.138626e-10
1.462594e-10
1.477906e-10
1.488976e-10
1.501398e-10
1.5154e-10
1.340826e-13
1.139372e-10
1.462632e-10
1.477997e-10
1.489063e-10
1.501435e-10
1.515444e-10
1.275547e-13
1.140076e-10
1.462664e-10
1.478068e-10
1.48917e-10
1.501474e-10
1.515484e-10
1.219571e-13
1.140738e-10
1.462683e-10
1.478082e-10
1.489192e-10
1.501502e-10
1.515524e-10
1.171204e-13
1.141351e-10
1.462698e-10
1.47809e-10
1.489208e-10
1.501528e-10
1.515562e-10
1.1291e-13
1.141916e-10
1.462708e-10
1.478096e-10
1.489223e-10
1.501555e-10
1.5156e-10
1.092366e-13
1.14242e-10
1.462712e-10
1.478102e-10
1.48924e-10
1.501583e-10
1.515641e-10
1.061297e-13
1.142849e-10
1.462708e-10
1.478108e-10
1.489258e-10
1.501614e-10
1.515684e-10
1.037797e-13
1.143165e-10
1.462697e-10
1.478118e-10
1.489281e-10
1.501654e-10
1.515736e-10
1.024228e-13
1.143516e-10
1.462805e-10
1.478172e-10
1.489322e-10
1.501706e-10
1.515811e-10
1.025576e-13
1.143665e-10
1.462888e-10
1.478258e-10
1.489388e-10
1.501788e-10
1.516114e-10
1.050174e-13
1.143442e-10
1.462899e-10
1.478337e-10
1.489488e-10
1.502082e-10
1.516456e-10
1.105484e-13
1.142946e-10
1.462979e-10
1.478486e-10
1.489812e-10
1.502428e-10
1.516816e-10
1.22358e-13
1.14171e-10
1.463192e-10
1.478909e-10
1.49022e-10
1.502809e-10
1.517196e-10
1.452198e-13
1.141389e-10
1.463997e-10
1.4795e-10
1.490698e-10
1.503216e-10
1.517584e-10
1.05724e-13
1.159098e-10
1.464974e-10
1.480294e-10
1.491261e-10
1.503643e-10
1.517971e-10
1.53498e-10
1.556545e-10
1.58567e-10
1.613922e-10
1.665103e-10
1.754163e-10
1.604701e-09
1.534616e-10
1.556071e-10
1.585037e-10
1.613166e-10
1.664151e-10
1.749259e-10
5.426868e-10
1.534223e-10
1.55559e-10
1.584432e-10
1.622973e-10
1.663301e-10
1.747881e-10
5.415705e-10
1.533819e-10
1.555104e-10
1.583786e-10
1.611644e-10
1.662279e-10
1.746504e-10
5.391103e-10
1.533423e-10
1.554617e-10
1.583171e-10
1.61083e-10
1.661332e-10
1.745133e-10
5.364006e-10
1.533032e-10
1.55413e-10
1.582541e-10
1.610058e-10
1.660399e-10
1.743772e-10
5.334584e-10
1.532653e-10
1.553649e-10
1.581917e-10
1.609314e-10
1.660141e-10
1.742431e-10
5.303332e-10
1.532308e-10
1.553174e-10
1.5813e-10
1.608585e-10
1.659902e-10
1.741106e-10
5.270499e-10
1.532218e-10
1.552736e-10
1.580711e-10
1.607842e-10
1.659161e-10
1.739895e-10
5.236039e-10
1.532153e-10
1.552625e-10
1.580164e-10
1.607103e-10
1.658427e-10
1.738691e-10
5.199205e-10
1.532094e-10
1.552543e-10
1.580021e-10
1.606387e-10
1.657697e-10
1.737496e-10
5.156372e-10
1.532037e-10
1.55246e-10
1.579911e-10
1.606232e-10
1.656965e-10
1.736306e-10
5.073408e-10
1.531981e-10
1.552379e-10
1.579799e-10
1.606094e-10
1.656839e-10
1.735092e-10
4.919837e-10
1.531924e-10
1.552296e-10
1.579683e-10
1.60595e-10
1.6567e-10
1.734905e-10
4.848462e-10
1.531866e-10
1.552209e-10
1.579563e-10
1.605801e-10
1.656552e-10
1.734521e-10
4.264749e-10
1.531806e-10
1.552119e-10
1.579439e-10
1.605645e-10
1.656394e-10
1.734148e-10
3.872994e-10
1.531744e-10
1.552025e-10
1.579311e-10
1.605479e-10
1.656165e-10
1.733728e-10
3.563453e-10
1.531679e-10
1.55193e-10
1.579174e-10
1.60523e-10
1.653928e-10
1.73327e-10
3.275991e-10
1.531611e-10
1.551835e-10
1.579034e-10
1.605049e-10
1.653635e-10
1.73281e-10
3.046582e-10
1.531539e-10
1.551735e-10
1.578887e-10
1.604861e-10
1.653394e-10
1.732311e-10
2.810007e-10
1.531463e-10
1.55163e-10
1.578734e-10
1.604664e-10
1.653142e-10
1.731772e-10
2.576338e-10
1.531382e-10
1.551518e-10
1.578575e-10
1.604455e-10
1.652879e-10
1.731249e-10
2.424174e-10
1.531297e-10
1.551398e-10
1.578393e-10
1.604244e-10
1.652557e-10
1.730711e-10
2.294754e-10
1.531186e-10
1.551271e-10
1.578237e-10
1.613803e-10
1.650546e-10
1.729978e-10
3.218084e-10
1.531071e-10
1.551136e-10
1.578011e-10
1.603852e-10
1.649417e-10
1.729401e-10
3.842841e-10
1.530964e-10
1.550994e-10
1.577818e-10
1.6035e-10
1.649025e-10
1.728861e-10
4.517054e-10
1.530825e-10
1.550832e-10
1.577596e-10
1.603219e-10
1.648613e-10
1.728239e-10
4.586112e-10
1.530389e-10
1.550647e-10
1.577343e-10
1.60292e-10
1.64805e-10
1.723565e-10
4.607959e-10
1.530038e-10
1.545062e-10
1.569862e-10
1.602559e-10
1.647536e-10
1.721764e-10
4.437917e-10
1.529829e-10
1.54482e-10
1.569582e-10
1.602235e-10
1.647059e-10
1.721072e-10
3.685095e-10
1.52923e-10
1.544081e-10
1.569316e-10
1.601875e-10
1.646552e-10
1.719021e-10
8.09901e-10
1.528788e-10
1.543486e-10
1.569029e-10
1.601484e-10
1.646002e-10
1.7162e-10
7.50633e-10
1.528497e-10
1.542323e-10
1.568657e-10
1.601062e-10
1.645416e-10
1.714717e-10
6.153502e-10
1.528243e-10
1.541929e-10
1.567506e-10
1.600611e-10
1.644792e-10
1.713101e-10
4.455639e-10
1.527963e-10
1.541506e-10
1.56608e-10
1.600104e-10
1.644126e-10
1.710813e-10
2.124067e-10
1.527651e-10
1.541056e-10
1.56468e-10
1.599383e-10
1.643453e-10
1.709621e-10
1.877867e-10
1.527315e-10
1.540536e-10
1.56415e-10
1.597016e-10
1.642728e-10
1.708581e-10
1.821055e-10
1.526873e-10
1.539921e-10
1.563544e-10
1.594914e-10
1.641947e-10
1.708499e-10
1.964969e-10
1.526227e-10
1.539192e-10
1.563077e-10
1.594036e-10
1.64172e-10
1.712613e-10
2.066713e-10
1.524897e-10
1.538118e-10
1.563539e-10
1.596729e-10
1.642197e-10
1.713452e-10
2.374337e-10
1.52324e-10
1.538093e-10
1.566109e-10
1.599937e-10
1.642258e-10
1.703338e-10
2.118178e-10
1.522343e-10
1.538611e-10
1.564673e-10
1.599121e-10
1.640119e-10
1.686615e-10
1.959578e-10
1.52203e-10
1.538195e-10
1.563246e-10
1.595431e-10
1.633645e-10
1.674687e-10
1.926021e-10
1.520582e-10
1.53691e-10
1.562814e-10
1.593095e-10
1.626747e-10
1.670886e-10
1.781282e-10
1.516108e-10
1.533497e-10
1.557511e-10
1.590396e-10
1.616089e-10
1.665281e-10
1.761182e-10
1.508361e-10
1.528606e-10
1.555011e-10
1.581618e-10
1.609771e-10
1.64887e-10
1.756349e-10
1.501363e-10
1.52213e-10
1.547694e-10
1.57604e-10
1.599306e-10
1.641284e-10
1.738803e-10
1.493953e-10
1.514134e-10
1.541152e-10
1.565861e-10
1.596386e-10
1.62832e-10
1.7042e-10
1.483383e-10
1.504988e-10
1.53057e-10
1.556399e-10
1.587338e-10
1.626873e-10
1.701478e-10
1.474886e-10
1.495734e-10
1.522802e-10
1.548244e-10
1.577142e-10
1.61278e-10
1.696776e-10
1.467028e-10
1.486023e-10
1.511331e-10
1.536107e-10
1.566789e-10
1.59926e-10
1.654157e-10
1.46165e-10
1.47892e-10
1.503757e-10
1.524022e-10
1.550621e-10
1.586838e-10
1.635474e-10
1.45722e-10
1.472171e-10
1.497475e-10
1.517349e-10
1.539959e-10
1.575287e-10
1.682034e-10
1.45483e-10
1.468175e-10
1.491855e-10
1.512473e-10
1.532906e-10
1.561207e-10
1.597781e-10
1.45405e-10
1.465425e-10
1.490447e-10
1.50935e-10
1.528302e-10
1.530729e-10
1.55965e-10
1.454314e-10
1.464589e-10
1.489026e-10
1.508944e-10
1.521227e-10
1.529468e-10
1.453332e-10
1.462834e-10
1.488715e-10
1.509809e-10
1.522397e-10
1.532696e-10
1.451863e-10
1.460374e-10
1.486536e-10
1.506963e-10
1.518964e-10
1.52861e-10
1.450778e-10
1.459695e-10
1.486265e-10
1.503542e-10
1.524313e-10
1.544553e-10
1.561069e-10
1.451614e-10
1.459417e-10
1.488718e-10
1.507865e-10
1.528148e-10
1.565156e-10
1.697739e-10
1.455088e-10
1.463403e-10
1.493743e-10
1.516425e-10
1.538712e-10
1.571113e-10
1.630795e-10
1.45926e-10
1.467884e-10
1.496367e-10
1.520362e-10
1.549919e-10
1.581219e-10
1.660045e-10
1.465796e-10
1.475881e-10
1.5093e-10
1.531339e-10
1.556772e-10
1.593566e-10
1.65729e-10
1.474043e-10
1.48476e-10
1.513647e-10
1.536283e-10
1.569432e-10
1.603532e-10
1.675729e-10
1.483758e-10
1.493086e-10
1.521907e-10
1.548699e-10
1.577554e-10
1.611963e-10
1.738418e-10
1.491171e-10
1.504168e-10
1.530522e-10
1.557493e-10
1.584406e-10
1.618226e-10
1.608334e-10
1.498606e-10
1.510286e-10
1.537754e-10
1.56492e-10
1.592733e-10
1.629329e-10
1.735964e-10
1.506727e-10
1.519764e-10
1.543708e-10
1.571531e-10
1.599187e-10
1.64311e-10
1.658561e-10
1.512178e-10
1.525897e-10
1.549207e-10
1.579038e-10
1.609259e-10
1.654111e-10
1.644794e-10
1.515986e-10
1.530781e-10
1.55458e-10
1.584227e-10
1.620089e-10
1.66158e-10
1.996116e-11
1.518171e-10
1.533575e-10
1.557655e-10
1.58966e-10
1.627786e-10
1.671298e-10
1.810422e-10
1.521491e-10
1.534074e-10
1.560852e-10
1.594646e-10
1.634673e-10
1.686388e-10
1.938411e-10
1.524303e-10
1.537506e-10
1.56195e-10
1.594838e-10
1.637787e-10
1.702862e-10
2.006757e-10
1.525963e-10
1.538418e-10
1.562751e-10
1.594294e-10
1.639452e-10
1.711375e-10
2.12689e-10
1.526693e-10
1.539285e-10
1.563081e-10
1.594092e-10
1.642199e-10
1.709782e-10
2.025348e-10
1.527172e-10
1.539964e-10
1.563637e-10
1.595158e-10
1.642072e-10
1.707387e-10
1.888471e-10
1.52753e-10
1.54059e-10
1.564222e-10
1.597799e-10
1.642853e-10
1.70869e-10
1.910889e-10
1.527861e-10
1.541142e-10
1.565195e-10
1.599632e-10
1.643542e-10
1.709863e-10
1.899647e-10
1.528158e-10
1.541664e-10
1.566628e-10
1.600217e-10
1.64425e-10
1.710983e-10
1.81993e-10
1.528427e-10
1.541931e-10
1.568298e-10
1.600708e-10
1.644929e-10
1.713124e-10
5.804426e-10
1.52873e-10
1.542836e-10
1.568756e-10
1.601169e-10
1.645565e-10
1.715318e-10
7.382124e-10
1.529181e-10
1.543623e-10
1.569103e-10
1.601593e-10
1.646156e-10
1.716543e-10
7.845716e-10
1.529789e-10
1.544622e-10
1.569392e-10
1.601983e-10
1.646706e-10
1.720631e-10
2.23705e-10
1.530006e-10
1.544814e-10
1.569666e-10
1.60234e-10
1.647212e-10
1.721259e-10
3.652977e-10
1.530362e-10
1.550614e-10
1.577301e-10
1.602731e-10
1.647704e-10
1.722013e-10
4.330031e-10
1.530801e-10
1.550803e-10
1.577559e-10
1.603033e-10
1.648292e-10
1.726297e-10
4.451636e-10
1.530944e-10
1.55097e-10
1.577788e-10
1.603325e-10
1.648772e-10
1.72848e-10
4.437656e-10
1.531054e-10
1.551116e-10
1.577997e-10
1.603598e-10
1.649183e-10
1.72904e-10
4.382716e-10
1.531172e-10
1.551255e-10
1.578196e-10
1.603857e-10
1.649618e-10
1.729571e-10
2.175864e-10
1.531285e-10
1.551383e-10
1.578381e-10
1.604105e-10
1.651815e-10
1.730294e-10
2.259108e-10
1.531371e-10
1.551504e-10
1.578556e-10
1.604337e-10
1.652717e-10
1.730896e-10
2.324694e-10
1.531454e-10
1.551619e-10
1.578721e-10
1.604553e-10
1.652992e-10
1.731427e-10
2.470214e-10
1.531532e-10
1.551727e-10
1.578877e-10
1.604761e-10
1.653256e-10
1.731947e-10
2.630439e-10
1.531606e-10
1.551828e-10
1.579027e-10
1.604955e-10
1.653504e-10
1.732458e-10
2.831727e-10
1.531675e-10
1.551925e-10
1.579167e-10
1.605141e-10
1.65374e-10
1.732956e-10
3.075608e-10
1.53174e-10
1.552021e-10
1.579305e-10
1.605368e-10
1.6549e-10
1.733427e-10
3.336362e-10
1.531803e-10
1.552115e-10
1.579435e-10
1.605571e-10
1.656308e-10
1.733876e-10
3.620873e-10
1.531863e-10
1.552205e-10
1.579559e-10
1.605733e-10
1.656469e-10
1.734285e-10
3.917346e-10
1.53192e-10
1.552291e-10
1.579678e-10
1.60589e-10
1.656624e-10
1.734708e-10
4.436429e-10
1.531975e-10
1.552373e-10
1.579793e-10
1.606039e-10
1.656768e-10
1.734999e-10
4.722333e-10
1.532029e-10
1.552452e-10
1.579904e-10
1.606185e-10
1.656908e-10
1.735701e-10
4.900508e-10
1.532083e-10
1.552532e-10
1.580011e-10
1.606324e-10
1.657334e-10
1.736893e-10
5.053453e-10
1.532137e-10
1.552611e-10
1.580152e-10
1.606761e-10
1.658058e-10
1.738087e-10
5.154551e-10
1.532196e-10
1.552717e-10
1.580695e-10
1.607498e-10
1.65879e-10
1.739287e-10
5.198693e-10
1.532277e-10
1.553147e-10
1.581277e-10
1.608242e-10
1.659525e-10
1.740495e-10
5.23663e-10
1.53261e-10
1.553614e-10
1.581889e-10
1.608993e-10
1.660232e-10
1.74176e-10
5.271646e-10
1.532978e-10
1.554088e-10
1.582509e-10
1.609707e-10
1.659959e-10
1.743097e-10
5.30497e-10
1.533358e-10
1.55457e-10
1.583134e-10
1.61047e-10
1.660861e-10
1.744447e-10
5.336799e-10
1.533748e-10
1.555058e-10
1.583764e-10
1.611235e-10
1.661795e-10
1.745813e-10
5.367026e-10
1.534154e-10
1.555551e-10
1.584397e-10
1.612004e-10
1.662735e-10
1.747186e-10
5.395586e-10
1.534564e-10
1.556042e-10
1.58503e-10
1.612768e-10
1.663679e-10
1.748565e-10
5.421263e-10
1.53497e-10
1.556539e-10
1.585663e-10
1.613532e-10
1.664626e-10
1.750046e-10
5.728323e-10
2.988975e-07
3.831574e-07
3.839434e-07
3.839443e-07
3.839443e-07
3.839443e-07
3.839443e-07
3.839443e-07
3.839443e-07
3.839443e-07
3.839443e-07
3.839443e-07
3.839443e-07
3.839443e-07
3.839443e-07
3.839442e-07
3.839442e-07
3.839442e-07
3.126436e-07
3.83668e-07
3.839446e-07
3.839448e-07
3.839448e-07
3.839448e-07
3.839448e-07
3.839448e-07
3.839448e-07
3.839448e-07
3.839448e-07
3.839448e-07
3.839448e-07
3.839448e-07
3.839448e-07
3.839448e-07
3.839448e-07
3.839448e-07
3.090522e-07
3.835802e-07
3.839446e-07
3.839448e-07
3.839448e-07
3.839448e-07
3.839448e-07
3.839448e-07
3.839448e-07
3.839448e-07
3.839448e-07
3.839448e-07
3.839448e-07
3.839448e-07
3.839448e-07
3.839448e-07
3.839448e-07
3.839448e-07
3.059875e-07
3.835723e-07
3.839446e-07
3.839448e-07
3.839448e-07
3.839448e-07
3.839448e-07
3.839448e-07
3.839448e-07
3.839448e-07
3.839448e-07
3.839448e-07
3.839448e-07
3.839448e-07
3.839448e-07
3.839448e-07
3.839448e-07
3.839448e-07
3.023999e-07
3.835664e-07
3.839445e-07
3.839448e-07
3.839448e-07
3.839448e-07
3.839448e-07
3.839448e-07
3.839448e-07
3.839448e-07
3.839448e-07
3.839448e-07
3.839448e-07
3.839448e-07
3.839448e-07
3.839448e-07
3.839448e-07
3.839448e-07
2.982736e-07
3.835565e-07
3.839445e-07
3.839448e-07
3.839448e-07
3.839448e-07
3.839448e-07
3.839448e-07
3.839448e-07
3.839448e-07
3.839448e-07
3.839448e-07
3.839448e-07
3.839448e-07
3.839448e-07
3.839448e-07
3.839448e-07
3.839448e-07
2.936782e-07
3.835437e-07
3.839445e-07
3.839448e-07
3.839448e-07
3.839448e-07
3.839448e-07
3.839448e-07
3.839448e-07
3.839448e-07
3.839448e-07
3.839448e-07
3.839448e-07
3.839448e-07
3.839448e-07
3.839448e-07
3.839448e-07
3.839448e-07
2.886838e-07
3.835279e-07
3.839445e-07
3.839448e-07
3.839448e-07
3.839448e-07
3.839448e-07
3.839448e-07
3.839448e-07
3.839448e-07
3.839448e-07
3.839448e-07
3.839448e-07
3.839448e-07
3.839448e-07
3.839448e-07
3.839448e-07
3.839448e-07
2.833612e-07
3.83508e-07
3.839445e-07
3.839448e-07
3.839448e-07
3.839448e-07
3.839448e-07
3.839448e-07
3.839448e-07
3.839448e-07
3.839448e-07
3.839448e-07
3.839448e-07
3.839448e-07
3.839448e-07
3.839448e-07
3.839448e-07
3.839448e-07
2.777996e-07
3.834838e-07
3.839445e-07
3.839448e-07
3.839448e-07
3.839448e-07
3.839448e-07
3.839448e-07
3.839448e-07
3.839448e-07
3.839448e-07
3.839448e-07
3.839448e-07
3.839448e-07
3.839448e-07
3.839448e-07
3.839448e-07
3.839448e-07
2.719591e-07
3.834515e-07
3.839445e-07
3.839448e-07
3.839448e-07
3.839448e-07
3.839448e-07
3.839448e-07
3.839448e-07
3.839448e-07
3.839448e-07
3.839448e-07
3.839448e-07
3.839448e-07
3.839448e-07
3.839448e-07
3.839448e-07
3.839448e-07
2.641071e-07
3.834153e-07
3.839444e-07
3.839448e-07
3.839448e-07
3.839448e-07
3.839448e-07
3.839448e-07
3.839448e-07
3.839448e-07
3.839448e-07
3.839448e-07
3.839448e-07
3.839448e-07
3.839448e-07
3.839448e-07
3.839448e-07
3.839448e-07
2.563075e-07
3.833829e-07
3.839444e-07
3.839448e-07
3.839448e-07
3.839448e-07
3.839448e-07
3.839448e-07
3.839448e-07
3.839448e-07
3.839448e-07
3.839448e-07
3.839448e-07
3.839448e-07
3.839448e-07
3.839448e-07
3.839448e-07
3.839448e-07
2.479673e-07
3.833331e-07
3.839444e-07
3.839448e-07
3.839448e-07
3.839448e-07
3.839448e-07
3.839448e-07
3.839448e-07
3.839448e-07
3.839448e-07
3.839448e-07
3.839448e-07
3.839448e-07
3.839448e-07
3.839448e-07
3.839448e-07
3.839448e-07
2.076368e-07
3.831512e-07
3.839442e-07
3.839448e-07
3.839448e-07
3.839448e-07
3.839448e-07
3.839448e-07
3.839448e-07
3.839448e-07
3.839448e-07
3.839448e-07
3.839448e-07
3.839448e-07
3.839448e-07
3.839448e-07
3.839448e-07
3.839448e-07
1.953282e-07
3.828394e-07
3.839444e-07
3.839448e-07
3.839448e-07
3.839448e-07
3.839448e-07
3.839448e-07
3.839448e-07
3.839448e-07
3.839448e-07
3.839448e-07
3.839448e-07
3.839448e-07
3.839448e-07
3.839448e-07
3.839448e-07
3.839448e-07
1.841232e-07
3.830077e-07
3.839416e-07
3.83945e-07
3.839448e-07
3.839448e-07
3.839448e-07
3.839448e-07
3.839448e-07
3.839448e-07
3.839448e-07
3.839448e-07
3.839448e-07
3.839448e-07
3.839448e-07
3.839448e-07
3.839448e-07
3.839448e-07
1.724443e-07
3.829199e-07
3.839429e-07
3.839439e-07
3.839449e-07
3.839448e-07
3.839448e-07
3.839448e-07
3.839448e-07
3.839448e-07
3.839448e-07
3.839448e-07
3.839448e-07
3.839448e-07
3.839448e-07
3.839448e-07
3.839448e-07
3.839448e-07
1.61302e-07
3.828271e-07
3.839438e-07
3.839443e-07
3.839443e-07
3.839448e-07
3.839448e-07
3.839448e-07
3.839448e-07
3.839448e-07
3.839448e-07
3.839448e-07
3.839448e-07
3.839448e-07
3.839448e-07
3.839448e-07
3.839448e-07
3.839448e-07
1.510465e-07
3.827276e-07
3.839438e-07
3.839448e-07
3.839447e-07
3.839447e-07
3.839448e-07
3.839448e-07
3.839448e-07
3.839448e-07
3.839448e-07
3.839448e-07
3.839448e-07
3.839448e-07
3.839448e-07
3.839448e-07
3.839448e-07
3.839448e-07
1.41479e-07
3.826227e-07
3.839437e-07
3.839448e-07
3.839448e-07
3.839447e-07
3.839448e-07
3.839448e-07
3.839448e-07
3.839448e-07
3.839448e-07
3.839448e-07
3.839448e-07
3.839448e-07
3.839448e-07
3.839448e-07
3.839448e-07
3.839448e-07
1.329021e-07
3.825147e-07
3.839436e-07
3.839448e-07
3.839448e-07
3.839448e-07
3.839448e-07
3.839448e-07
3.839448e-07
3.839448e-07
3.839448e-07
3.839448e-07
3.839448e-07
3.839448e-07
3.839448e-07
3.839448e-07
3.839448e-07
3.839448e-07
1.250576e-07
3.824254e-07
3.839435e-07
3.839448e-07
3.839448e-07
3.839448e-07
3.839448e-07
3.839448e-07
3.839448e-07
3.839448e-07
3.839448e-07
3.839448e-07
3.839448e-07
3.839448e-07
3.839448e-07
3.839448e-07
3.839448e-07
3.839448e-07
1.176612e-07
3.823204e-07
3.839434e-07
3.839448e-07
3.839448e-07
3.839448e-07
3.839448e-07
3.839448e-07
3.839448e-07
3.839448e-07
3.839448e-07
3.839448e-07
3.839448e-07
3.839448e-07
3.839448e-07
3.839448e-07
3.839448e-07
3.839448e-07
1.102019e-07
3.821962e-07
3.839433e-07
3.839448e-07
3.839448e-07
3.839448e-07
3.839448e-07
3.839448e-07
3.839448e-07
3.839448e-07
3.839448e-07
3.839448e-07
3.839448e-07
3.839448e-07
3.839448e-07
3.839448e-07
3.839448e-07
3.839448e-07
1.032599e-07
3.820844e-07
3.839431e-07
3.839448e-07
3.839448e-07
3.839448e-07
3.839448e-07
3.839448e-07
3.839448e-07
3.839448e-07
3.839448e-07
3.839448e-07
3.839448e-07
3.839448e-07
3.839448e-07
3.839448e-07
3.839448e-07
3.839448e-07
9.638582e-08
3.819793e-07
3.83943e-07
3.839448e-07
3.839448e-07
3.839448e-07
3.839448e-07
3.839448e-07
3.839448e-07
3.839448e-07
3.839448e-07
3.839448e-07
3.839448e-07
3.839448e-07
3.839448e-07
3.839448e-07
3.839448e-07
3.839448e-07
8.955562e-08
3.818597e-07
3.839429e-07
3.839448e-07
3.839448e-07
3.839448e-07
3.839448e-07
3.839448e-07
3.839448e-07
3.839448e-07
3.839448e-07
3.839448e-07
3.839448e-07
3.839448e-07
3.839448e-07
3.839448e-07
3.839448e-07
3.839448e-07
8.310544e-08
3.817292e-07
3.839427e-07
3.839448e-07
3.839448e-07
3.839448e-07
3.839448e-07
3.839448e-07
3.839448e-07
3.839448e-07
3.839448e-07
3.839448e-07
3.839448e-07
3.839448e-07
3.839448e-07
3.839448e-07
3.839448e-07
3.839448e-07
7.665302e-08
3.816328e-07
3.839425e-07
3.839435e-07
3.839434e-07
3.839447e-07
3.839448e-07
3.839448e-07
3.839448e-07
3.839448e-07
3.839448e-07
3.839448e-07
3.839448e-07
3.839448e-07
3.839448e-07
3.839448e-07
3.839448e-07
3.839448e-07
7.160969e-08
3.815766e-07
3.839423e-07
3.838982e-07
3.839042e-07
3.839442e-07
3.839448e-07
3.839449e-07
3.839447e-07
3.839448e-07
3.839448e-07
3.839448e-07
3.839448e-07
3.839448e-07
3.839448e-07
3.839448e-07
3.839448e-07
3.839448e-07
6.57436e-08
3.816407e-07
3.839424e-07
3.838558e-07
3.83896e-07
3.839428e-07
3.839448e-07
3.839428e-07
3.839429e-07
3.839447e-07
3.839448e-07
3.839448e-07
3.839448e-07
3.839448e-07
3.839448e-07
3.839448e-07
3.839448e-07
3.839448e-07
5.961048e-08
3.819116e-07
3.839446e-07
3.83929e-07
3.839561e-07
3.839447e-07
3.839447e-07
3.839445e-07
3.839446e-07
3.839448e-07
3.839448e-07
3.839448e-07
3.839448e-07
3.839448e-07
3.839448e-07
3.839448e-07
3.839448e-07
3.839448e-07
5.325959e-08
3.830158e-07
3.83938e-07
3.838171e-07
3.837961e-07
3.839395e-07
3.839446e-07
3.839447e-07
3.839448e-07
3.839448e-07
3.839448e-07
3.839448e-07
3.839448e-07
3.839448e-07
3.839448e-07
3.839448e-07
3.839448e-07
3.839448e-07
3.961136e-08
3.805811e-07
3.839112e-07
3.835318e-07
3.836553e-07
3.836338e-07
3.83944e-07
3.839447e-07
3.839436e-07
3.839444e-07
3.839448e-07
3.839448e-07
3.839448e-07
3.839448e-07
3.839448e-07
3.839448e-07
3.839448e-07
3.839448e-07
3.343064e-08
3.809668e-07
3.838886e-07
3.839336e-07
3.838088e-07
3.839036e-07
3.839437e-07
3.839371e-07
3.83936e-07
3.839442e-07
3.839448e-07
3.839448e-07
3.839448e-07
3.839448e-07
3.839448e-07
3.839448e-07
3.839447e-07
3.839448e-07
2.696132e-08
3.817656e-07
3.838649e-07
3.839439e-07
3.839497e-07
3.839763e-07
3.839584e-07
3.839411e-07
3.839419e-07
3.839437e-07
3.839429e-07
3.839442e-07
3.839445e-07
3.839448e-07
3.839448e-07
3.839448e-07
3.839447e-07
3.839448e-07
5.399235e-08
3.768661e-07
3.837432e-07
3.841126e-07
3.844295e-07
3.844157e-07
3.842375e-07
3.840335e-07
3.83972e-07
3.840258e-07
3.839526e-07
3.839098e-07
3.839401e-07
3.839422e-07
3.839446e-07
3.839447e-07
3.839447e-07
3.839448e-07
6.504301e-08
3.797222e-07