/*--------------------------------*- C++ -*----------------------------------*\
| =========                 |                                                 |
| \\      /  F ield         | OpenFOAM: The Open Source CFD Toolbox           |
|  \\    /   O peration     | Version:  2206                                  |
|   \\  /    A nd           | Website:  www.openfoam.com                      |
|    \\/     M anipulation  |                                                 |
\*---------------------------------------------------------------------------*/
FoamFile
{
    version     2.0;
    format      ascii;
    arch        "LSB;label=32;scalar=64";
    class       volScalarField;
    location    "1.6";
    object      k.b_0;
}
// * * * * * * * * * * * * * * * * * * * * * * * * * * * * * * * * * * * * * //

dimensions      [0 2 -2 0 0 0 0];

internalField   nonuniform List<scalar> 
13078
(
2.69483e-13
1.284239e-10
1.483917e-10
1.493856e-10
1.504487e-10
1.516866e-10
1.531283e-10
9.850717e-14
1.155389e-10
1.477712e-10
1.493068e-10
1.504089e-10
1.516556e-10
1.530966e-10
1.367339e-13
1.15082e-10
1.476489e-10
1.492298e-10
1.503565e-10
1.516153e-10
1.530594e-10
1.150696e-13
1.153313e-10
1.476079e-10
1.491708e-10
1.503078e-10
1.515743e-10
1.530205e-10
1.043138e-13
1.15421e-10
1.475849e-10
1.491443e-10
1.502679e-10
1.515355e-10
1.529824e-10
1.010377e-13
1.154711e-10
1.475763e-10
1.491286e-10
1.502523e-10
1.515022e-10
1.529458e-10
1.011038e-13
1.154781e-10
1.475652e-10
1.491157e-10
1.502418e-10
1.514913e-10
1.529134e-10
1.028844e-13
1.154588e-10
1.475537e-10
1.491081e-10
1.502355e-10
1.51484e-10
1.529044e-10
1.056674e-13
1.154383e-10
1.475551e-10
1.49106e-10
1.502317e-10
1.514787e-10
1.52898e-10
1.090222e-13
1.154031e-10
1.475561e-10
1.49105e-10
1.502291e-10
1.514747e-10
1.528928e-10
1.127414e-13
1.15358e-10
1.475563e-10
1.491043e-10
1.502271e-10
1.514713e-10
1.528882e-10
1.168599e-13
1.153051e-10
1.475559e-10
1.491038e-10
1.502254e-10
1.514683e-10
1.52884e-10
1.214722e-13
1.152463e-10
1.475548e-10
1.49103e-10
1.502238e-10
1.514655e-10
1.528799e-10
1.267003e-13
1.151819e-10
1.475533e-10
1.491018e-10
1.502216e-10
1.514626e-10
1.528758e-10
1.32688e-13
1.151129e-10
1.475506e-10
1.490947e-10
1.502109e-10
1.514588e-10
1.528717e-10
1.396061e-13
1.150394e-10
1.475471e-10
1.490857e-10
1.502023e-10
1.514552e-10
1.528673e-10
1.476614e-13
1.149623e-10
1.475443e-10
1.490834e-10
1.501993e-10
1.514518e-10
1.528628e-10
1.571134e-13
1.148813e-10
1.475413e-10
1.490813e-10
1.501964e-10
1.514483e-10
1.528581e-10
1.682734e-13
1.14796e-10
1.475379e-10
1.490791e-10
1.501931e-10
1.514437e-10
1.528531e-10
1.81542e-13
1.147071e-10
1.47534e-10
1.49076e-10
1.501808e-10
1.514259e-10
1.528466e-10
1.974106e-13
1.146141e-10
1.4753e-10
1.490726e-10
1.501658e-10
1.514113e-10
1.528399e-10
2.16516e-13
1.145172e-10
1.475259e-10
1.490698e-10
1.501607e-10
1.514056e-10
1.528339e-10
2.396566e-13
1.144159e-10
1.475213e-10
1.490666e-10
1.501562e-10
1.51399e-10
1.528261e-10
2.678637e-13
1.143105e-10
1.475165e-10
1.490632e-10
1.501504e-10
1.513799e-10
1.527984e-10
3.024548e-13
1.142004e-10
1.475116e-10
1.490595e-10
1.50144e-10
1.513569e-10
1.527758e-10
3.451257e-13
1.140856e-10
1.475061e-10
1.490555e-10
1.501382e-10
1.513475e-10
1.527652e-10
3.98069e-13
1.139681e-10
1.475005e-10
1.490512e-10
1.501319e-10
1.513388e-10
1.527536e-10
4.640698e-13
1.138298e-10
1.474939e-10
1.490467e-10
1.50125e-10
1.513285e-10
1.527231e-10
5.467562e-13
1.137147e-10
1.47488e-10
1.490417e-10
1.501174e-10
1.513168e-10
1.526871e-10
6.511651e-13
1.133278e-10
1.47473e-10
1.490362e-10
1.501093e-10
1.513058e-10
1.5267e-10
7.811528e-13
1.129459e-10
1.474697e-10
1.490305e-10
1.501005e-10
1.512936e-10
1.526528e-10
9.470163e-13
1.122712e-10
1.4746e-10
1.490232e-10
1.500911e-10
1.512803e-10
1.526336e-10
1.155804e-12
1.114119e-10
1.474039e-10
1.490027e-10
1.500795e-10
1.512657e-10
1.526147e-10
1.420427e-12
1.111404e-10
1.473633e-10
1.48985e-10
1.500665e-10
1.512498e-10
1.525942e-10
1.753934e-12
1.108596e-10
1.473461e-10
1.489634e-10
1.500284e-10
1.512295e-10
1.525719e-10
2.166228e-12
1.105453e-10
1.473246e-10
1.489408e-10
1.499854e-10
1.511756e-10
1.525447e-10
2.66728e-12
1.102047e-10
1.473012e-10
1.489205e-10
1.499508e-10
1.511264e-10
1.525122e-10
3.262807e-12
1.09844e-10
1.472735e-10
1.48899e-10
1.499215e-10
1.510702e-10
1.524252e-10
3.951146e-12
1.094722e-10
1.472404e-10
1.488699e-10
1.498809e-10
1.510087e-10
1.523255e-10
4.725499e-12
1.087077e-10
1.47186e-10
1.488142e-10
1.497965e-10
1.508954e-10
1.52168e-10
5.559405e-12
1.073646e-10
1.470816e-10
1.486852e-10
1.49617e-10
1.506873e-10
1.519874e-10
6.386714e-12
1.059413e-10
1.468171e-10
1.483809e-10
1.493166e-10
1.504172e-10
1.517662e-10
7.134735e-12
1.051794e-10
1.464408e-10
1.479885e-10
1.489305e-10
1.501731e-10
1.515906e-10
7.700859e-12
1.042799e-10
1.46028e-10
1.476829e-10
1.486534e-10
1.498555e-10
1.514344e-10
7.958978e-12
1.029245e-10
1.456859e-10
1.474366e-10
1.484634e-10
1.496243e-10
1.509917e-10
7.919621e-12
1.010616e-10
1.453699e-10
1.471071e-10
1.481382e-10
1.492235e-10
1.50452e-10
7.567189e-12
9.906158e-11
1.449919e-10
1.467649e-10
1.475608e-10
1.485752e-10
1.497278e-10
6.722533e-12
9.778828e-11
1.445076e-10
1.463446e-10
1.469684e-10
1.478009e-10
1.488384e-10
5.594973e-12
9.655079e-11
1.439779e-10
1.45808e-10
1.464241e-10
1.472258e-10
1.481292e-10
4.408594e-12
9.543026e-11
1.434764e-10
1.453319e-10
1.4588e-10
1.465351e-10
1.474081e-10
3.334721e-12
9.351121e-11
1.429696e-10
1.449542e-10
1.454494e-10
1.459983e-10
1.46648e-10
2.445491e-12
9.076813e-11
1.424333e-10
1.445647e-10
1.450549e-10
1.456023e-10
1.46187e-10
1.729945e-12
8.928638e-11
1.419018e-10
1.443091e-10
1.448451e-10
1.454876e-10
1.458658e-10
1.16954e-12
8.838298e-11
1.415243e-10
1.440355e-10
1.446463e-10
1.452677e-10
1.456964e-10
7.75933e-13
8.774479e-11
1.413019e-10
1.438789e-10
1.445493e-10
1.451687e-10
1.457112e-10
6.919781e-13
8.728341e-11
1.411623e-10
1.43797e-10
1.44502e-10
1.451469e-10
1.457387e-10
9.605881e-13
8.727657e-11
1.410991e-10
1.437087e-10
1.443977e-10
1.450359e-10
1.45635e-10
1.200046e-12
8.775632e-11
1.412088e-10
1.437282e-10
1.443689e-10
1.449666e-10
1.454965e-10
1.381673e-12
8.840995e-11
1.414159e-10
1.438376e-10
1.444023e-10
1.449776e-10
1.453623e-10
1.605483e-12
8.929663e-11
1.417291e-10
1.440047e-10
1.444676e-10
1.450322e-10
1.453508e-10
1.93822e-12
9.075675e-11
1.421877e-10
1.441543e-10
1.445902e-10
1.450991e-10
1.456285e-10
2.549136e-12
9.347611e-11
1.427755e-10
1.446302e-10
1.450255e-10
1.454695e-10
1.460088e-10
3.646027e-12
9.540175e-11
1.432813e-10
1.44954e-10
1.453804e-10
1.459034e-10
1.466357e-10
4.942745e-12
9.651222e-11
1.437775e-10
1.454044e-10
1.45879e-10
1.465301e-10
1.47335e-10
6.24641e-12
9.774749e-11
1.443275e-10
1.459504e-10
1.464488e-10
1.471867e-10
1.48065e-10
7.27703e-12
9.901405e-11
1.448589e-10
1.464453e-10
1.470964e-10
1.479394e-10
1.48904e-10
7.849536e-12
1.010068e-10
1.452913e-10
1.468555e-10
1.477105e-10
1.486216e-10
1.49664e-10
8.272383e-12
1.028668e-10
1.456234e-10
1.472638e-10
1.481175e-10
1.491184e-10
1.503082e-10
8.26142e-12
1.042308e-10
1.459716e-10
1.475748e-10
1.484536e-10
1.494597e-10
1.508532e-10
7.899595e-12
1.051437e-10
1.463942e-10
1.479168e-10
1.488127e-10
1.499096e-10
1.511362e-10
7.289169e-12
1.059111e-10
1.467788e-10
1.483258e-10
1.492293e-10
1.502853e-10
1.515084e-10
6.529739e-12
1.071139e-10
1.470375e-10
1.48642e-10
1.4956e-10
1.506216e-10
1.519003e-10
5.702889e-12
1.082237e-10
1.471489e-10
1.487847e-10
1.497637e-10
1.508659e-10
1.521328e-10
4.884484e-12
1.089264e-10
1.472053e-10
1.488491e-10
1.498658e-10
1.509893e-10
1.52303e-10
4.117867e-12
1.093483e-10
1.472477e-10
1.488842e-10
1.499108e-10
1.510553e-10
1.52408e-10
3.42524e-12
1.099143e-10
1.472878e-10
1.489127e-10
1.499472e-10
1.511212e-10
1.524999e-10
2.820686e-12
1.103934e-10
1.473139e-10
1.489335e-10
1.499832e-10
1.511832e-10
1.525347e-10
2.306852e-12
1.107783e-10
1.473347e-10
1.489572e-10
1.50023e-10
1.512221e-10
1.525624e-10
1.879152e-12
1.111274e-10
1.473545e-10
1.489799e-10
1.500608e-10
1.51243e-10
1.525865e-10
1.529008e-12
1.113964e-10
1.473955e-10
1.489984e-10
1.500746e-10
1.512602e-10
1.526085e-10
1.244931e-12
1.122611e-10
1.47453e-10
1.490198e-10
1.500871e-10
1.512757e-10
1.526287e-10
1.017046e-12
1.129365e-10
1.474631e-10
1.490276e-10
1.500972e-10
1.512899e-10
1.526488e-10
8.370264e-13
1.133201e-10
1.47467e-10
1.490338e-10
1.501065e-10
1.513027e-10
1.526666e-10
6.925076e-13
1.137075e-10
1.474826e-10
1.490397e-10
1.501152e-10
1.513143e-10
1.526842e-10
5.781052e-13
1.138234e-10
1.47489e-10
1.490449e-10
1.501231e-10
1.513263e-10
1.527206e-10
4.870609e-13
1.139623e-10
1.474961e-10
1.490498e-10
1.501303e-10
1.513369e-10
1.527515e-10
4.144278e-13
1.140804e-10
1.475022e-10
1.490543e-10
1.501368e-10
1.513459e-10
1.527636e-10
3.563149e-13
1.141959e-10
1.475081e-10
1.490585e-10
1.501429e-10
1.513556e-10
1.527744e-10
3.096283e-13
1.143065e-10
1.475135e-10
1.490622e-10
1.501494e-10
1.513789e-10
1.527972e-10
2.719484e-13
1.144125e-10
1.475186e-10
1.490658e-10
1.501553e-10
1.51398e-10
1.528251e-10
2.413785e-13
1.145143e-10
1.475235e-10
1.490691e-10
1.501599e-10
1.514047e-10
1.528329e-10
2.164344e-13
1.146118e-10
1.475279e-10
1.490721e-10
1.501653e-10
1.514107e-10
1.528391e-10
1.95965e-13
1.147055e-10
1.475323e-10
1.490757e-10
1.501804e-10
1.514254e-10
1.528461e-10
1.790612e-13
1.147951e-10
1.475364e-10
1.490789e-10
1.501928e-10
1.514434e-10
1.528528e-10
1.650241e-13
1.148811e-10
1.475402e-10
1.490811e-10
1.501962e-10
1.51448e-10
1.528577e-10
1.533174e-13
1.149631e-10
1.475435e-10
1.490833e-10
1.501992e-10
1.514515e-10
1.528624e-10
1.436245e-13
1.150414e-10
1.475465e-10
1.490858e-10
1.502022e-10
1.51455e-10
1.52867e-10
1.355157e-13
1.151163e-10
1.475504e-10
1.49095e-10
1.502109e-10
1.514587e-10
1.528715e-10
1.286091e-13
1.15187e-10
1.475536e-10
1.491022e-10
1.502217e-10
1.514626e-10
1.528756e-10
1.226709e-13
1.152535e-10
1.475556e-10
1.491035e-10
1.50224e-10
1.514654e-10
1.528796e-10
1.175203e-13
1.153151e-10
1.47557e-10
1.491044e-10
1.502255e-10
1.514681e-10
1.528834e-10
1.130126e-13
1.153718e-10
1.47558e-10
1.49105e-10
1.502271e-10
1.514708e-10
1.528872e-10
1.090519e-13
1.154224e-10
1.475584e-10
1.491056e-10
1.502288e-10
1.514736e-10
1.528914e-10
1.056743e-13
1.154655e-10
1.475581e-10
1.491062e-10
1.502306e-10
1.514768e-10
1.528958e-10
1.030946e-13
1.154972e-10
1.47557e-10
1.491072e-10
1.50233e-10
1.514808e-10
1.52901e-10
1.015742e-13
1.155326e-10
1.475678e-10
1.491127e-10
1.502371e-10
1.51486e-10
1.529085e-10
1.016601e-13
1.155476e-10
1.475761e-10
1.491213e-10
1.502437e-10
1.514942e-10
1.52939e-10
1.042547e-13
1.155254e-10
1.475773e-10
1.491293e-10
1.502538e-10
1.515239e-10
1.529735e-10
1.100838e-13
1.154757e-10
1.475854e-10
1.491443e-10
1.502864e-10
1.515588e-10
1.530098e-10
1.221372e-13
1.153518e-10
1.476067e-10
1.491868e-10
1.503274e-10
1.515971e-10
1.530481e-10
1.450324e-13
1.153201e-10
1.476876e-10
1.492462e-10
1.503755e-10
1.516381e-10
1.530871e-10
1.063698e-13
1.17099e-10
1.477857e-10
1.493261e-10
1.504322e-10
1.516811e-10
1.531261e-10
1.548416e-10
1.570166e-10
1.59954e-10
1.628034e-10
1.679651e-10
1.769333e-10
1.607139e-09
1.54805e-10
1.569688e-10
1.598902e-10
1.627271e-10
1.678691e-10
1.764485e-10
5.432489e-10
1.547653e-10
1.569203e-10
1.598292e-10
1.637162e-10
1.677834e-10
1.763095e-10
5.421223e-10
1.547246e-10
1.568713e-10
1.597641e-10
1.625735e-10
1.676802e-10
1.761707e-10
5.396669e-10
1.546846e-10
1.568222e-10
1.59702e-10
1.624915e-10
1.675848e-10
1.760324e-10
5.369649e-10
1.546453e-10
1.567731e-10
1.596385e-10
1.624137e-10
1.674907e-10
1.758952e-10
5.340321e-10
1.54607e-10
1.567246e-10
1.595755e-10
1.623386e-10
1.674647e-10
1.7576e-10
5.309176e-10
1.545723e-10
1.566767e-10
1.595133e-10
1.622651e-10
1.674406e-10
1.756263e-10
5.276464e-10
1.545632e-10
1.566325e-10
1.59454e-10
1.621901e-10
1.673658e-10
1.755042e-10
5.242135e-10
1.545566e-10
1.566213e-10
1.593987e-10
1.621156e-10
1.672917e-10
1.753828e-10
5.205508e-10
1.545507e-10
1.56613e-10
1.593843e-10
1.620434e-10
1.672181e-10
1.752622e-10
5.163017e-10
1.545449e-10
1.566047e-10
1.593732e-10
1.620277e-10
1.671442e-10
1.751422e-10
5.085367e-10
1.545393e-10
1.565965e-10
1.593619e-10
1.620138e-10
1.671316e-10
1.750198e-10
4.936274e-10
1.545335e-10
1.565881e-10
1.593502e-10
1.619993e-10
1.671175e-10
1.750008e-10
4.866909e-10
1.545277e-10
1.565793e-10
1.593381e-10
1.619842e-10
1.671026e-10
1.749623e-10
4.288489e-10
1.545216e-10
1.565703e-10
1.593256e-10
1.619685e-10
1.670866e-10
1.74925e-10
3.897638e-10
1.545153e-10
1.565608e-10
1.593126e-10
1.619518e-10
1.670635e-10
1.748829e-10
3.586984e-10
1.545088e-10
1.565512e-10
1.592988e-10
1.619266e-10
1.668378e-10
1.748369e-10
3.298962e-10
1.545019e-10
1.565416e-10
1.592847e-10
1.619083e-10
1.668083e-10
1.747908e-10
3.069153e-10
1.544946e-10
1.565315e-10
1.592698e-10
1.618894e-10
1.667839e-10
1.747407e-10
2.832078e-10
1.54487e-10
1.565208e-10
1.592544e-10
1.618695e-10
1.667585e-10
1.746867e-10
2.597809e-10
1.544788e-10
1.565095e-10
1.592383e-10
1.618484e-10
1.667319e-10
1.746341e-10
2.445259e-10
1.544702e-10
1.564975e-10
1.5922e-10
1.618271e-10
1.666994e-10
1.7458e-10
2.315466e-10
1.54459e-10
1.564846e-10
1.592042e-10
1.627911e-10
1.664965e-10
1.745061e-10
3.122363e-10
1.544474e-10
1.56471e-10
1.591814e-10
1.617874e-10
1.663827e-10
1.744477e-10
3.761599e-10
1.544366e-10
1.564567e-10
1.59162e-10
1.61752e-10
1.663431e-10
1.74393e-10
4.420472e-10
1.544226e-10
1.564403e-10
1.591395e-10
1.617236e-10
1.663014e-10
1.743302e-10
4.499326e-10
1.543786e-10
1.564216e-10
1.59114e-10
1.616935e-10
1.662447e-10
1.738589e-10
4.530265e-10
1.543432e-10
1.558583e-10
1.583594e-10
1.616569e-10
1.661927e-10
1.736773e-10
4.366717e-10
1.54322e-10
1.558339e-10
1.583312e-10
1.616242e-10
1.661446e-10
1.736075e-10
3.63982e-10
1.542616e-10
1.557594e-10
1.583043e-10
1.615879e-10
1.660933e-10
1.733954e-10
8.112752e-10
1.54217e-10
1.556993e-10
1.582753e-10
1.615484e-10
1.660377e-10
1.731105e-10
7.515361e-10
1.541876e-10
1.555821e-10
1.582377e-10
1.615057e-10
1.659785e-10
1.729618e-10
6.162295e-10
1.541619e-10
1.555422e-10
1.581216e-10
1.6146e-10
1.659153e-10
1.727995e-10
4.465091e-10
1.541336e-10
1.554995e-10
1.579777e-10
1.614088e-10
1.65848e-10
1.725721e-10
2.096565e-10
1.54102e-10
1.55454e-10
1.578364e-10
1.613359e-10
1.657798e-10
1.724512e-10
1.893138e-10
1.540681e-10
1.554015e-10
1.577828e-10
1.61097e-10
1.657063e-10
1.723461e-10
1.836286e-10
1.540235e-10
1.553395e-10
1.577216e-10
1.608851e-10
1.656267e-10
1.723368e-10
1.977201e-10
1.539584e-10
1.55266e-10
1.576744e-10
1.60796e-10
1.656016e-10
1.727459e-10
2.072199e-10
1.538244e-10
1.551576e-10
1.577193e-10
1.610628e-10
1.656453e-10
1.72824e-10
2.376509e-10
1.536567e-10
1.551515e-10
1.579743e-10
1.613871e-10
1.656553e-10
1.718051e-10
2.124468e-10
1.535654e-10
1.552033e-10
1.578353e-10
1.613108e-10
1.654433e-10
1.701277e-10
1.973107e-10
1.535345e-10
1.551625e-10
1.576925e-10
1.609397e-10
1.647924e-10
1.689225e-10
1.939115e-10
1.533897e-10
1.550318e-10
1.576506e-10
1.607058e-10
1.640983e-10
1.685392e-10
1.796583e-10
1.529357e-10
1.546871e-10
1.571162e-10
1.604373e-10
1.630213e-10
1.679787e-10
1.777149e-10
1.52154e-10
1.541947e-10
1.568682e-10
1.595494e-10
1.623896e-10
1.663289e-10
1.772619e-10
1.514469e-10
1.535416e-10
1.561289e-10
1.58991e-10
1.61335e-10
1.655678e-10
1.755753e-10
1.506993e-10
1.527364e-10
1.554702e-10
1.57964e-10
1.610445e-10
1.642627e-10
1.719093e-10
1.496312e-10
1.518156e-10
1.544023e-10
1.570095e-10
1.601313e-10
1.641183e-10
1.7161e-10
1.48774e-10
1.508807e-10
1.536187e-10
1.561858e-10
1.591046e-10
1.626995e-10
1.711104e-10
1.479797e-10
1.499012e-10
1.524599e-10
1.549621e-10
1.580611e-10
1.613393e-10
1.668644e-10
1.474357e-10
1.491839e-10
1.51695e-10
1.537424e-10
1.564308e-10
1.600886e-10
1.649936e-10
1.469876e-10
1.485015e-10
1.51061e-10
1.530671e-10
1.553564e-10
1.589243e-10
1.692504e-10
1.467455e-10
1.480992e-10
1.504919e-10
1.525753e-10
1.546388e-10
1.574987e-10
1.611745e-10
1.466659e-10
1.47821e-10
1.503494e-10
1.522583e-10
1.541733e-10
1.544212e-10
1.573419e-10
1.466918e-10
1.477357e-10
1.502043e-10
1.522145e-10
1.534535e-10
1.542862e-10
1.465932e-10
1.475587e-10
1.501714e-10
1.523002e-10
1.535686e-10
1.546084e-10
1.464461e-10
1.473111e-10
1.499539e-10
1.520144e-10
1.532257e-10
1.54197e-10
1.463389e-10
1.472445e-10
1.499286e-10
1.516718e-10
1.537725e-10
1.558203e-10
1.575127e-10
1.46426e-10
1.47218e-10
1.501762e-10
1.521116e-10
1.541633e-10
1.579019e-10
1.708193e-10
1.467779e-10
1.476224e-10
1.506882e-10
1.529778e-10
1.552333e-10
1.585059e-10
1.645491e-10
1.472009e-10
1.480775e-10
1.509568e-10
1.533791e-10
1.563639e-10
1.595259e-10
1.672614e-10
1.478624e-10
1.488846e-10
1.522617e-10
1.544881e-10
1.570569e-10
1.607718e-10
1.67167e-10
1.48694e-10
1.497822e-10
1.527017e-10
1.549871e-10
1.583336e-10
1.617757e-10
1.69024e-10
1.496757e-10
1.506244e-10
1.535332e-10
1.562396e-10
1.591526e-10
1.626206e-10
1.752458e-10
1.504236e-10
1.517409e-10
1.544033e-10
1.571246e-10
1.598413e-10
1.63251e-10
1.624305e-10
1.511739e-10
1.523589e-10
1.551323e-10
1.578744e-10
1.606771e-10
1.643665e-10
1.7493e-10
1.519937e-10
1.533128e-10
1.557306e-10
1.585394e-10
1.613269e-10
1.65751e-10
1.675136e-10
1.525426e-10
1.539308e-10
1.562836e-10
1.592931e-10
1.623405e-10
1.668615e-10
1.661634e-10
1.529243e-10
1.544199e-10
1.568215e-10
1.598139e-10
1.634278e-10
1.676075e-10
2.318693e-11
1.531432e-10
1.546968e-10
1.571294e-10
1.603594e-10
1.642045e-10
1.68589e-10
1.826128e-10
1.534798e-10
1.547459e-10
1.57445e-10
1.60855e-10
1.648954e-10
1.701074e-10
1.955824e-10
1.537644e-10
1.550952e-10
1.575573e-10
1.608713e-10
1.652035e-10
1.717643e-10
2.018835e-10
1.539317e-10
1.551881e-10
1.576413e-10
1.608207e-10
1.653717e-10
1.726214e-10
2.136719e-10
1.540054e-10
1.552756e-10
1.576749e-10
1.60802e-10
1.656522e-10
1.724661e-10
2.039473e-10
1.540538e-10
1.553441e-10
1.577312e-10
1.609101e-10
1.656404e-10
1.722267e-10
1.904315e-10
1.540899e-10
1.554072e-10
1.577903e-10
1.611765e-10
1.657197e-10
1.723583e-10
1.89962e-10
1.541234e-10
1.554629e-10
1.578885e-10
1.613614e-10
1.657895e-10
1.724769e-10
1.918725e-10
1.541535e-10
1.555155e-10
1.580332e-10
1.614205e-10
1.658611e-10
1.725903e-10
1.834493e-10
1.541806e-10
1.555426e-10
1.582017e-10
1.614702e-10
1.659297e-10
1.728041e-10
5.81611e-10
1.542113e-10
1.556338e-10
1.582479e-10
1.615167e-10
1.659939e-10
1.730228e-10
7.395126e-10
1.542567e-10
1.557132e-10
1.582829e-10
1.615596e-10
1.660536e-10
1.731465e-10
7.859815e-10
1.543181e-10
1.558141e-10
1.583121e-10
1.61599e-10
1.661092e-10
1.735628e-10
2.254085e-10
1.5434e-10
1.558335e-10
1.583398e-10
1.61635e-10
1.661602e-10
1.736269e-10
3.609379e-10
1.543759e-10
1.564183e-10
1.591099e-10
1.616744e-10
1.662099e-10
1.737029e-10
4.263346e-10
1.544202e-10
1.564374e-10
1.591359e-10
1.617049e-10
1.662693e-10
1.741348e-10
4.376713e-10
1.544346e-10
1.564542e-10
1.591589e-10
1.617344e-10
1.663177e-10
1.743549e-10
4.353266e-10
1.544458e-10
1.56469e-10
1.591801e-10
1.617619e-10
1.663592e-10
1.744115e-10
4.287572e-10
1.544576e-10
1.56483e-10
1.592002e-10
1.617881e-10
1.664031e-10
1.744654e-10
2.192829e-10
1.54469e-10
1.56496e-10
1.592188e-10
1.618131e-10
1.666247e-10
1.745382e-10
2.27651e-10
1.544778e-10
1.565082e-10
1.592365e-10
1.618365e-10
1.667157e-10
1.745988e-10
2.34545e-10
1.544861e-10
1.565198e-10
1.592531e-10
1.618584e-10
1.667434e-10
1.746522e-10
2.491276e-10
1.54494e-10
1.565307e-10
1.592689e-10
1.618793e-10
1.667701e-10
1.747045e-10
2.651824e-10
1.545015e-10
1.565409e-10
1.59284e-10
1.61899e-10
1.667951e-10
1.747557e-10
2.853518e-10
1.545084e-10
1.565507e-10
1.592982e-10
1.619177e-10
1.66819e-10
1.748057e-10
3.097913e-10
1.54515e-10
1.565604e-10
1.593121e-10
1.619406e-10
1.66936e-10
1.748529e-10
3.359063e-10
1.545213e-10
1.565699e-10
1.593252e-10
1.61961e-10
1.670779e-10
1.748979e-10
3.643881e-10
1.545274e-10
1.565789e-10
1.593377e-10
1.619775e-10
1.670942e-10
1.749389e-10
3.94031e-10
1.545331e-10
1.565876e-10
1.593498e-10
1.619933e-10
1.671098e-10
1.749812e-10
4.458395e-10
1.545388e-10
1.565959e-10
1.593614e-10
1.620083e-10
1.671244e-10
1.750105e-10
4.741944e-10
1.545441e-10
1.566039e-10
1.593725e-10
1.62023e-10
1.671385e-10
1.750813e-10
4.917281e-10
1.545496e-10
1.56612e-10
1.593833e-10
1.620371e-10
1.671815e-10
1.752015e-10
5.066473e-10
1.545551e-10
1.566199e-10
1.593975e-10
1.620811e-10
1.672546e-10
1.753219e-10
5.161974e-10
1.54561e-10
1.566306e-10
1.594523e-10
1.621555e-10
1.673284e-10
1.754429e-10
5.205327e-10
1.545691e-10
1.566739e-10
1.595111e-10
1.622306e-10
1.674025e-10
1.755648e-10
5.242988e-10
1.546028e-10
1.567211e-10
1.595727e-10
1.623063e-10
1.674738e-10
1.756924e-10
5.27782e-10
1.546399e-10
1.567688e-10
1.596352e-10
1.623783e-10
1.674463e-10
1.758272e-10
5.310995e-10
1.546781e-10
1.568174e-10
1.596983e-10
1.624552e-10
1.675372e-10
1.759633e-10
5.342687e-10
1.547174e-10
1.568666e-10
1.597618e-10
1.625323e-10
1.676315e-10
1.761011e-10
5.372788e-10
1.547584e-10
1.569164e-10
1.598256e-10
1.626099e-10
1.677262e-10
1.762395e-10
5.401237e-10
1.547996e-10
1.569658e-10
1.598894e-10
1.62687e-10
1.678215e-10
1.763785e-10
5.426819e-10
1.548406e-10
1.57016e-10
1.599533e-10
1.62764e-10
1.679169e-10
1.765274e-10
5.735434e-10
2.997567e-07
3.840118e-07
3.847893e-07
3.847901e-07
3.847901e-07
3.847901e-07
3.847901e-07
3.847901e-07
3.847901e-07
3.847901e-07
3.847901e-07
3.847901e-07
3.847901e-07
3.847901e-07
3.847901e-07
3.847901e-07
3.847901e-07
3.847901e-07
3.135535e-07
3.845153e-07
3.847904e-07
3.847906e-07
3.847906e-07
3.847906e-07
3.847906e-07
3.847906e-07
3.847906e-07
3.847906e-07
3.847906e-07
3.847906e-07
3.847906e-07
3.847906e-07
3.847906e-07
3.847906e-07
3.847906e-07
3.847906e-07
3.099799e-07
3.844294e-07
3.847904e-07
3.847906e-07
3.847906e-07
3.847906e-07
3.847906e-07
3.847906e-07
3.847906e-07
3.847906e-07
3.847906e-07
3.847906e-07
3.847906e-07
3.847906e-07
3.847906e-07
3.847906e-07
3.847906e-07
3.847906e-07
3.06917e-07
3.844215e-07
3.847904e-07
3.847906e-07
3.847906e-07
3.847906e-07
3.847906e-07
3.847906e-07
3.847906e-07
3.847906e-07
3.847906e-07
3.847906e-07
3.847906e-07
3.847906e-07
3.847906e-07
3.847906e-07
3.847906e-07
3.847906e-07
3.033312e-07
3.844155e-07
3.847904e-07
3.847906e-07
3.847906e-07
3.847906e-07
3.847906e-07
3.847906e-07
3.847906e-07
3.847906e-07
3.847906e-07
3.847906e-07
3.847906e-07
3.847906e-07
3.847906e-07
3.847906e-07
3.847906e-07
3.847906e-07
2.992068e-07
3.844056e-07
3.847904e-07
3.847906e-07
3.847906e-07
3.847906e-07
3.847906e-07
3.847906e-07
3.847906e-07
3.847906e-07
3.847906e-07
3.847906e-07
3.847906e-07
3.847906e-07
3.847906e-07
3.847906e-07
3.847906e-07
3.847906e-07
2.946132e-07
3.843929e-07
3.847904e-07
3.847906e-07
3.847906e-07
3.847906e-07
3.847906e-07
3.847906e-07
3.847906e-07
3.847906e-07
3.847906e-07
3.847906e-07
3.847906e-07
3.847906e-07
3.847906e-07
3.847906e-07
3.847906e-07
3.847906e-07
2.896199e-07
3.843773e-07
3.847904e-07
3.847906e-07
3.847906e-07
3.847906e-07
3.847906e-07
3.847906e-07
3.847906e-07
3.847906e-07
3.847906e-07
3.847906e-07
3.847906e-07
3.847906e-07
3.847906e-07
3.847906e-07
3.847906e-07
3.847906e-07
2.84297e-07
3.843578e-07
3.847904e-07
3.847906e-07
3.847906e-07
3.847906e-07
3.847906e-07
3.847906e-07
3.847906e-07
3.847906e-07
3.847906e-07
3.847906e-07
3.847906e-07
3.847906e-07
3.847906e-07
3.847906e-07
3.847906e-07
3.847906e-07
2.787325e-07
3.843341e-07
3.847903e-07
3.847906e-07
3.847906e-07
3.847906e-07
3.847906e-07
3.847906e-07
3.847906e-07
3.847906e-07
3.847906e-07
3.847906e-07
3.847906e-07
3.847906e-07
3.847906e-07
3.847906e-07
3.847906e-07
3.847906e-07
2.729145e-07
3.843026e-07
3.847903e-07
3.847906e-07
3.847906e-07
3.847906e-07
3.847906e-07
3.847906e-07
3.847906e-07
3.847906e-07
3.847906e-07
3.847906e-07
3.847906e-07
3.847906e-07
3.847906e-07
3.847906e-07
3.847906e-07
3.847906e-07
2.651368e-07
3.842665e-07
3.847903e-07
3.847906e-07
3.847906e-07
3.847906e-07
3.847906e-07
3.847906e-07
3.847906e-07
3.847906e-07
3.847906e-07
3.847906e-07
3.847906e-07
3.847906e-07
3.847906e-07
3.847906e-07
3.847906e-07
3.847906e-07
2.572987e-07
3.842337e-07
3.847903e-07
3.847906e-07
3.847906e-07
3.847906e-07
3.847906e-07
3.847906e-07
3.847906e-07
3.847906e-07
3.847906e-07
3.847906e-07
3.847906e-07
3.847906e-07
3.847906e-07
3.847906e-07
3.847906e-07
3.847906e-07
2.490287e-07
3.84184e-07
3.847902e-07
3.847906e-07
3.847906e-07
3.847906e-07
3.847906e-07
3.847906e-07
3.847906e-07
3.847906e-07
3.847906e-07
3.847906e-07
3.847906e-07
3.847906e-07
3.847906e-07
3.847906e-07
3.847906e-07
3.847906e-07
2.084559e-07
3.840025e-07
3.847901e-07
3.847906e-07
3.847906e-07
3.847906e-07
3.847906e-07
3.847906e-07
3.847906e-07
3.847906e-07
3.847906e-07
3.847906e-07
3.847906e-07
3.847906e-07
3.847906e-07
3.847906e-07
3.847906e-07
3.847906e-07
1.960787e-07
3.836935e-07
3.847902e-07
3.847906e-07
3.847906e-07
3.847906e-07
3.847906e-07
3.847906e-07
3.847906e-07
3.847906e-07
3.847906e-07
3.847906e-07
3.847906e-07
3.847906e-07
3.847906e-07
3.847906e-07
3.847906e-07
3.847906e-07
1.848254e-07
3.838601e-07
3.847875e-07
3.847909e-07
3.847906e-07
3.847906e-07
3.847906e-07
3.847906e-07
3.847906e-07
3.847906e-07
3.847906e-07
3.847906e-07
3.847906e-07
3.847906e-07
3.847906e-07
3.847906e-07
3.847906e-07
3.847906e-07
1.731048e-07
3.83773e-07
3.847888e-07
3.847897e-07
3.847908e-07
3.847906e-07
3.847906e-07
3.847906e-07
3.847906e-07
3.847906e-07
3.847906e-07
3.847906e-07
3.847906e-07
3.847906e-07
3.847906e-07
3.847906e-07
3.847906e-07
3.847906e-07
1.619208e-07
3.836807e-07
3.847897e-07
3.847902e-07
3.847901e-07
3.847907e-07
3.847906e-07
3.847906e-07
3.847906e-07
3.847906e-07
3.847906e-07
3.847906e-07
3.847906e-07
3.847906e-07
3.847906e-07
3.847906e-07
3.847906e-07
3.847906e-07
1.516253e-07
3.835818e-07
3.847896e-07
3.847906e-07
3.847905e-07
3.847905e-07
3.847906e-07
3.847906e-07
3.847906e-07
3.847906e-07
3.847906e-07
3.847906e-07
3.847906e-07
3.847906e-07
3.847906e-07
3.847906e-07
3.847906e-07
3.847906e-07
1.420195e-07
3.834772e-07
3.847895e-07
3.847906e-07
3.847906e-07
3.847906e-07
3.847906e-07
3.847906e-07
3.847906e-07
3.847906e-07
3.847906e-07
3.847906e-07
3.847906e-07
3.847906e-07
3.847906e-07
3.847906e-07
3.847906e-07
3.847906e-07
1.334089e-07
3.833696e-07
3.847894e-07
3.847906e-07
3.847906e-07
3.847906e-07
3.847906e-07
3.847906e-07
3.847906e-07
3.847906e-07
3.847906e-07
3.847906e-07
3.847906e-07
3.847906e-07
3.847906e-07
3.847906e-07
3.847906e-07
3.847906e-07
1.255343e-07
3.832805e-07
3.847894e-07
3.847906e-07
3.847906e-07
3.847906e-07
3.847906e-07
3.847906e-07
3.847906e-07
3.847906e-07
3.847906e-07
3.847906e-07
3.847906e-07
3.847906e-07
3.847906e-07
3.847906e-07
3.847906e-07
3.847906e-07
1.180897e-07
3.831758e-07
3.847893e-07
3.847906e-07
3.847906e-07
3.847906e-07
3.847906e-07
3.847906e-07
3.847906e-07
3.847906e-07
3.847906e-07
3.847906e-07
3.847906e-07
3.847906e-07
3.847906e-07
3.847906e-07
3.847906e-07
3.847906e-07
1.106034e-07
3.830519e-07
3.847891e-07
3.847906e-07
3.847906e-07
3.847906e-07
3.847906e-07
3.847906e-07
3.847906e-07
3.847906e-07
3.847906e-07
3.847906e-07
3.847906e-07
3.847906e-07
3.847906e-07
3.847906e-07
3.847906e-07
3.847906e-07
1.03631e-07
3.829402e-07
3.84789e-07
3.847906e-07
3.847906e-07
3.847906e-07
3.847906e-07
3.847906e-07
3.847906e-07
3.847906e-07
3.847906e-07
3.847906e-07
3.847906e-07
3.847906e-07
3.847906e-07
3.847906e-07
3.847906e-07
3.847906e-07
9.673212e-08
3.828353e-07
3.847889e-07
3.847906e-07
3.847906e-07
3.847906e-07
3.847906e-07
3.847906e-07
3.847906e-07
3.847906e-07
3.847906e-07
3.847906e-07
3.847906e-07
3.847906e-07
3.847906e-07
3.847906e-07
3.847906e-07
3.847906e-07
8.987679e-08
3.827159e-07
3.847887e-07
3.847906e-07
3.847906e-07
3.847906e-07
3.847906e-07
3.847906e-07
3.847906e-07
3.847906e-07
3.847906e-07
3.847906e-07
3.847906e-07
3.847906e-07
3.847906e-07
3.847906e-07
3.847906e-07
3.847906e-07
8.340304e-08
3.825853e-07
3.847885e-07
3.847906e-07
3.847906e-07
3.847906e-07
3.847906e-07
3.847906e-07
3.847906e-07
3.847906e-07
3.847906e-07
3.847906e-07
3.847906e-07
3.847906e-07
3.847906e-07
3.847906e-07
3.847906e-07
3.847906e-07
7.693041e-08
3.824887e-07
3.847884e-07
3.847893e-07
3.847892e-07
3.847906e-07
3.847906e-07
3.847906e-07
3.847906e-07
3.847906e-07
3.847906e-07
3.847906e-07
3.847906e-07
3.847906e-07
3.847906e-07
3.847906e-07
3.847906e-07
3.847906e-07
7.186985e-08
3.824316e-07
3.847882e-07
3.84745e-07
3.847507e-07
3.8479e-07
3.847906e-07
3.847907e-07
3.847906e-07
3.847906e-07
3.847906e-07
3.847906e-07
3.847906e-07
3.847906e-07
3.847906e-07
3.847906e-07
3.847906e-07
3.847906e-07
6.598096e-08
3.824936e-07
3.847883e-07
3.84702e-07
3.84742e-07
3.847887e-07
3.847906e-07
3.847886e-07
3.847888e-07
3.847905e-07
3.847906e-07
3.847906e-07
3.847906e-07
3.847906e-07
3.847906e-07
3.847906e-07
3.847906e-07
3.847906e-07
5.982245e-08
3.827606e-07
3.847904e-07
3.847756e-07
3.848023e-07
3.847905e-07
3.847906e-07
3.847904e-07
3.847904e-07
3.847906e-07
3.847906e-07
3.847906e-07
3.847906e-07
3.847906e-07
3.847906e-07
3.847906e-07
3.847906e-07
3.847906e-07
5.344341e-08
3.83864e-07
3.84784e-07
3.846655e-07
3.846446e-07
3.847853e-07
3.847905e-07
3.847906e-07
3.847906e-07
3.847906e-07
3.847906e-07
3.847906e-07
3.847906e-07
3.847906e-07
3.847906e-07
3.847906e-07
3.847906e-07
3.847906e-07
3.973869e-08
3.814352e-07
3.847575e-07
3.8438e-07
3.845024e-07
3.844829e-07
3.847898e-07
3.847905e-07
3.847895e-07
3.847903e-07
3.847906e-07
3.847906e-07
3.847906e-07
3.847906e-07
3.847906e-07
3.847906e-07
3.847907e-07
3.847906e-07
3.353144e-08
3.818176e-07
3.847353e-07
3.847792e-07
3.846547e-07
3.847491e-07
3.847895e-07
3.847831e-07
3.847819e-07
3.8479e-07
3.847907e-07
3.847906e-07
3.847906e-07
3.847906e-07
3.847906e-07
3.847906e-07
3.847906e-07
3.847906e-07
2.702173e-08
3.825905e-07
3.847112e-07
3.847897e-07
3.847951e-07
3.848211e-07
3.848037e-07
3.847869e-07
3.847877e-07
3.847896e-07
3.847888e-07
3.847901e-07
3.847904e-07
3.847907e-07
3.847906e-07
3.847906e-07
3.847906e-07
3.847906e-07
5.433234e-08
3.777922e-07
3.845894e-07
3.849522e-07
3.852634e-07
3.852503e-07
3.850763e-07
3.848773e-07
3.848172e-07
3.848698e-07
3.847983e-07
3.847566e-07
3.84786e-07
3.847881e-07
3.847905e-07
3.847906e-07
3.847906e-07
3.847906e-07
6.542923e-08
3.804211e-07
3.850172e-07