/*--------------------------------*- C++ -*----------------------------------*\
| =========                 |                                                 |
| \\      /  F ield         | OpenFOAM: The Open Source CFD Toolbox           |
|  \\    /   O peration     | Version:  2206                                  |
|   \\  /    A nd           | Website:  www.openfoam.com                      |
|    \\/     M anipulation  |                                                 |
\*---------------------------------------------------------------------------*/
FoamFile
{
    version     2.0;
    format      ascii;
    arch        "LSB;label=32;scalar=64";
    class       volScalarField;
    location    "1.6";
    object      muEff;
}
// * * * * * * * * * * * * * * * * * * * * * * * * * * * * * * * * * * * * * //

dimensions      [1 -1 -1 0 0 0 0];

internalField   nonuniform List<scalar> 
13078
(
0.004025038
0.0368053
0.0368053
0.0368053
0.0368053
0.0368053
0.0368053
0.0368053
0.0368053
0.0368053
0.0368053
0.0368053
0.0368053
0.0368053
0.0368053
0.0368053
0.0368053
0.0368053
0.0368053
0.0368053
0.0368053
0.0368053
0.0368053
0.0368053
0.0368053
0.0368053
0.0368053
0.0368053
0.0368053
0.0368053
0.0368053
0.0368053
0.0368053
0.0368053
0.0368053
0.0368053
0.0368053
0.0368053
0.0368053
0.0368053
0.0368053
0.0368053
0.0368053
0.0368053
0.0368053
0.0368053
0.0368053
0.0368053
0.0368053
0.0368053
0.0368053
0.0368053
0.0368053
0.0368053
0.0368053
0.0368053
0.0368053
0.0368053
0.0368053
0.0368053
0.0368053
0.0368053
0.0368053
0.0368053
0.0368053
0.0368053
0.0368053
0.0368053
0.0368053
0.0368053
0.0368053
0.0368053
0.0368053
0.0368053
0.0368053
0.0368053
0.0368053
0.0368053
0.0368053
0.0368053
0.0368053
0.0368053
0.0368053
0.0368053
0.0368053
0.0368053
0.0368053
0.0368053
0.0368053
0.0368053
0.0368053
0.0368053
0.0368053
0.0368053
0.0368053
0.0368053
0.0368053
0.0368053
0.0368053
0.0368053
0.0368053
0.0368053
0.0368053
0.0368053
0.0368053
0.0368053
0.0368053
0.0368053
0.0368053
0.0368053
0.0368053
0.0368053
0.0368053
0.0368053
0.0368053
0.0368053
0.0368053
0.0368053
0.0368053
0.0368053
0.0368053
0.0368053
0.0368053
0.0368053
0.0368053
0.0368053
0.0368053
0.0368053
0.0368053
0.0368053
0.0368053
0.0368053
0.0368053
0.0368053
0.0368053
0.0368053
0.0368053
0.0368053
0.0368053
0.0368053
0.0368053
0.0368053
0.0368053
0.0368053
0.0368053
0.0368053
0.0368053
0.0368053
0.0368053
0.0368053
0.0368053
0.0368053
0.0368053
0.0368053
0.0368053
0.0368053
0.0368053
0.0368053
0.0368053
0.0368053
0.0368053
0.0368053
0.0368053
0.0368053
0.0368053
0.0368053
0.0368053
0.0368053
0.0368053
0.0368053
0.0368053
0.0368053
0.0368053
0.0368053
0.0368053
0.0368053
0.0368053
0.0368053
0.0368053
0.0368053
0.0368053
0.0368053
0.0368053
0.0368053
0.0368053
0.0368053
0.0368053
0.0368053
0.0368053
0.0368053
0.0368053
0.0368053
0.0368053
0.0368053
0.0368053
0.0368053
0.0368053
0.0368053
0.0368053
0.0368053
0.0368053
0.0368053
0.0368053
0.0368053
0.0368053
0.0368053
0.0368053
0.0368053
0.0368053
0.0368053
0.0368053
0.0368053
0.0368053
0.0368053
0.0368053
0.0368053
0.0368053
0.0368053
0.0368053
0.0368053
0.0368053
0.0368053
0.0368053
0.0368053
0.0368053
0.0368053
0.0368053
0.0368053
0.0368053
0.0368053
0.0368053
0.0368053
0.0368053
0.0368053
0.0368053
0.0368053
0.0368053
0.0368053
0.0368053
0.0368053
0.0368053
0.0368053
0.0368053
0.0368053
0.0368053
0.0368053
0.0368053
0.0368053
0.0368053
0.0368053
0.0368053
0.0368053
0.0368053
0.0368053
0.0368053
0.0368053
0.0368053
0.0368053
0.0368053
0.0368053
0.0368053
0.0368053
0.0368053
0.0368053
0.0368053
0.0368053
0.0368053
0.0368053
0.0368053
0.0368053
0.0368053
0.0368053
0.0368053
0.0368053
0.0368053
0.0368053
0.0368053
0.0368053
0.0368053
0.0368053
0.0368053
0.0368053
0.0368053
0.0368053
0.0368053
0.0368053
0.0368053
0.0368053
0.0368053
0.0368053
0.0368053
0.0368053
0.0368053
0.0368053
0.0368053
0.0368053
0.0368053
0.0368053
0.0368053
0.0368053
0.0368053
0.0368053
0.0368053
0.0368053
0.0368053
0.0368053
0.0368053
0.0368053
0.0368053
0.0368053
0.0368053
0.0368053
0.0368053
0.0368053
0.0368053
0.0368053
0.0368053
0.0368053
0.0368053
0.0368053
0.0368053
0.0368053
0.0368053
0.0368053
0.0368053
0.0368053
0.0368053
0.0368053
0.0368053
0.0368053
0.0368053
0.0368053
0.0368053
0.0368053
0.0368053
0.0368053
0.0368053
0.0368053
0.0368053
0.0368053
0.0368053
0.0368053
0.0368053
0.0368053
0.0368053
0.0368053
0.0368053
0.0368053
0.0368053
0.0368053
0.0368053
0.0368053
0.0368053
0.0368053
0.0368053
0.0368053
0.0368053
0.0368053
0.0368053
0.0368053
0.0368053
0.0368053
0.0368053
0.0368053
0.0368053
0.0368053
0.0368053
0.0368053
0.0368053
0.0368053
0.0368053
0.0368053
0.0368053
0.0368053
0.0368053
0.0368053
0.0368053
0.0368053
0.0368053
0.0368053
0.0368053
0.0368053
0.0368053
0.0368053
0.0368053
0.0368053
0.0368053
0.0368053
0.0368053
0.0368053
0.0368053
0.0368053
0.0368053
0.0368053
0.0368053
0.0368053
0.0368053
0.0368053
0.0368053
0.0368053
0.0368053
0.0368053
0.0368053
0.0368053
0.0368053
0.0368053
0.0368053
0.0368053
0.0368053
0.0368053
0.0368053
0.0368053
0.0368053
0.0368053
0.0368053
0.0368053
0.0368053
0.0368053
0.0368053
0.0368053
0.0368053
0.0368053
0.0368053
0.0368053
0.0368053
0.0368053
0.0368053
0.0368053
0.0368053
0.0368053
0.0368053
0.0368053
0.0368053
0.0368053
0.0368053
0.0368053
0.0368053
0.0368053
0.0368053
0.0368053
0.0368053
0.0368053
0.0368053
0.0368053
0.0368053
0.0368053
0.0368053
0.0368053
0.0368053
0.0368053
0.0368053
0.0368053
0.0368053
0.0368053
0.0368053
0.0368053
0.0368053
0.0368053
0.0368053
0.0368053
0.0368053
0.0368053
0.0368053
0.0368053
0.0368053
0.0368053
0.0368053
0.0368053
0.0368053
0.0368053
0.0368053
0.0368053
0.0368053
0.0368053
0.0368053
0.0368053
0.0368053
0.0368053
0.0368053
0.0368053
0.0368053
0.0368053
0.0368053
0.0368053
0.0368053
0.0368053
0.0368053
0.0368053
0.0368053
0.0368053
0.0368053
0.0368053
0.0368053
0.0368053
0.0368053
0.0368053
0.0368053
0.0368053
0.0368053
0.0368053
0.0368053
0.0368053
0.0368053
0.0368053
0.0368053
0.0368053
0.0368053
0.0368053
0.0368053
0.0368053
0.0368053
0.0368053
0.0368053
0.0368053
0.0368053
0.0368053
0.0368053
0.0368053
0.0368053
0.0368053
0.0368053
0.0368053
0.0368053
0.0368053
0.0368053
0.0368053
0.0368053
0.0368053
0.0368053
0.0368053
0.0368053
0.0368053
0.0368053
0.0368053
0.0368053
0.0368053
0.0368053
0.0368053
0.0368053
0.0368053
0.0368053
0.0368053
0.0368053
0.0368053
0.0368053
0.0368053
0.0368053
0.0368053
0.0368053
0.0368053
0.0368053
0.0368053
0.0368053
0.0368053
0.0368053
0.0368053
0.0368053
0.0368053
0.0368053
0.0368053
0.0368053
0.0368053
0.0368053
0.0368053
0.0368053
0.0368053
0.0368053
0.0368053
0.0368053
0.0368053
0.0368053
0.0368053
0.0368053
0.0368053
0.0368053
0.0368053
0.0368053
0.0368053
0.0368053
0.0368053
0.0368053
0.0368053
0.0368053
0.0368053
0.0368053
0.0368053
0.0368053
0.0368053
0.0368053
0.0368053
0.0368053
0.0368053
0.0368053
0.0368053
0.0368053
0.0368053
0.0368053
0.0368053
0.0368053
0.0368053
0.0368053
0.0368053
0.0368053
0.0368053
0.0368053
0.0368053
0.0368053
0.0368053
0.0368053
0.0368053
0.0368053
0.0368053
0.0368053
0.0368053
0.0368053
0.0368053
0.0368053
0.0368053
0.0368053
0.0368053
0.0368053
0.0368053
0.0368053
0.0368053
0.0368053
0.0368053
0.0368053
0.0368053
0.0368053
0.0368053
0.0368053
0.0368053
0.0368053
0.0368053
0.0368053
0.0368053
0.0368053
0.0368053
0.0368053
0.0368053
0.0368053
0.0368053
0.0368053
0.0368053
0.0368053
0.0368053
0.0368053
0.0368053
0.0368053
0.0368053
0.0368053
0.0368053
0.0368053
0.0368053
0.0368053
0.0368053
0.0368053
0.0368053
0.0368053
0.0368053
0.0368053
0.0368053
0.0368053
0.0368053
0.0368053
0.0368053
0.0368053
0.0368053
0.0368053
0.0368053
0.0368053
0.0368053
0.0368053
0.0368053
0.0368053
0.0368053
0.0368053
0.0368053
0.0368053
0.0368053
0.0368053
0.0368053
0.0368053
0.0368053
0.0368053
0.0368053
0.0368053
0.0368053
0.0368053
0.0368053
0.0368053
0.0368053
0.0368053
0.0368053
0.0368053
0.0368053
0.0368053
0.0368053
0.0368053
0.0368053
0.0368053
0.0368053
0.0368053
0.0368053
0.0368053
0.0368053
0.0368053
0.0368053
0.0368053
0.0368053
0.0368053
0.0368053
0.0368053
0.0368053
0.0368053
0.0368053
0.0368053
0.0368053
0.0368053
0.0368053
0.0368053
0.0368053
0.0368053
0.0368053
0.0368053
0.0368053
0.0368053
0.0368053
0.0368053
0.0368053
0.0368053
0.0368053
0.0368053
0.0368053
0.0368053
0.0368053
0.0368053
0.0368053
0.0368053
0.0368053
0.0368053
0.0368053
0.0368053
0.0368053
0.0368053
0.0368053
0.0368053
0.0368053
0.0368053
0.0368053
0.0368053
0.0368053
0.0368053
0.0368053
0.0368053
0.0368053
0.0368053
0.0368053
0.0368053
0.0368053
0.0368053
0.0368053
0.0368053
0.0368053
0.0368053
0.0368053
0.0368053
0.0368053
0.0368053
0.0368053
0.0368053
0.0368053
0.0368053
0.0368053
0.0368053
0.0368053
0.0368053
0.0368053
0.0368053
0.0368053
0.0368053
0.0368053
0.0368053
0.0368053
0.0368053
0.0368053
0.0368053
0.0368053
0.0368053
0.0368053
0.0368053
0.0368053
0.0368053
0.0368053
0.0368053
0.0368053
0.0368053
0.0368053
0.0368053
0.0368053
0.0368053
0.0368053
0.0368053
0.0368053
0.0368053
0.0368053
0.0368053
0.0368053
0.0368053
0.0368053
0.0368053
0.0368053
0.0368053
0.0368053
0.0368053
0.0368053
0.0368053
0.0368053
0.0368053
0.0368053
0.0368053
0.0368053
0.0368053
0.0368053
0.0368053
0.0368053
0.0368053
0.0368053
0.0368053
0.0368053
0.0368053
0.0368053
0.0368053
0.0368053
0.0368053
0.0368053
0.0368053
0.0368053
0.0368053
0.0368053
0.0368053
0.0368053
0.0368053
0.0368053
0.0368053
0.0368053
0.0368053
0.0368053
0.0368053
0.0368053
0.0368053
0.0368053
0.0368053
0.0368053
0.0368053
0.0368053
0.0368053
0.0368053
0.0368053
0.0368053
0.0368053
0.0368053
0.0368053
0.0368053
0.0368053
0.0368053
0.0368053
0.0368053
0.0368053
0.0368053
0.0368053
0.0368053
0.0368053
0.0368053
0.0368053
0.0368053
0.0368053
0.0368053
0.0368053
0.0368053
0.0368053
0.0368053
0.0368053
0.0368053
0.0368053
0.0368053
0.0368053
0.0368053
0.0368053
0.0368053
0.0368053
0.0368053
0.0368053
0.0368053
0.0368053
0.0368053
0.0368053
0.0368053
0.0368053
0.0368053
0.0368053
0.0368053
0.0368053
0.0368053
0.0368053
0.0368053
0.0368053
0.0368053
0.0368053
0.0368053
0.0368053
0.0368053
0.0368053
0.0368053
0.0368053
0.0368053
0.0368053
0.0368053
0.0368053
0.0368053
0.0368053
0.0368053
0.0368053
0.0368053
0.0368053
0.0368053
0.0368053
0.0368053
0.0368053
0.0368053
0.0368053
0.0368053
0.0368053
0.0368053
0.0368053
0.0368053
0.0368053
0.0368053
0.0368053
0.0368053
0.0368053
0.0368053
0.0368053
0.0368053
0.0368053
0.0368053
0.0368053
0.0368053
0.0368053
0.0368053
0.0368053
0.0368053
0.0368053
0.0368053
0.0368053
0.0368053
0.0368053
0.0368053
0.0368053
0.0368053
0.0368053
0.0368053
0.0368053
0.0368053
0.0368053
0.0368053
0.0368053
0.0368053
0.0368053
0.0368053
0.0368053
0.0368053
0.0368053
0.0368053
0.0368053
0.0368053
0.0368053
0.0368053
0.0368053
0.0368053
0.0368053
0.0368053
0.0368053
0.0368053
0.0368053
0.0368053
0.0368053
0.0368053
0.0368053
0.0368053
0.0368053
0.0368053
0.0368053
0.0368053
0.0368053
0.0368053
0.0368053
0.0368053
0.0368053
0.0368053
0.0368053
0.0368053
0.0368053
0.0368053
0.0368053
0.0368053
0.0368053
0.0368053
0.0368053
0.0368053
0.0368053
0.0368053
0.0368053
0.0368053
0.0368053
0.0368053
0.0368053
0.0368053
0.0368053
0.0368053
0.0368053
0.0368053
0.0368053
0.0368053
0.0368053
0.0368053
0.0368053
0.0368053
0.0368053
0.0368053
0.0368053
0.0368053
0.0368053
0.0368053
0.0368053
0.0368053
0.0368053
0.0368053
0.0368053
0.0368053
0.0368053
0.0368053
0.0368053
0.0368053
0.0368053
0.0368053
0.0368053
0.0368053
0.0368053
0.0368053
0.0368053
0.0368053
0.0368053
0.0368053
0.0368053
0.0368053
0.0368053
0.0368053
0.0368053
0.0368053
0.0368053
0.0368053
0.0368053
0.0368053
0.0368053
0.0368053
0.0368053
0.0368053
0.0368053
0.0368053
0.0368053
0.0368053
0.0368053
0.0368053
0.0368053
0.0368053
0.0368053
0.0368053
0.0368053
0.0368053
0.0368053
0.0368053
0.0368053
0.0368053
0.0368053
0.0368053
0.0368053
0.0368053
0.0368053
0.0368053
0.0368053
0.0368053
0.0368053
0.0368053
0.0368053
0.0368053
0.0368053
0.0368053
0.0368053
0.0368053
0.0368053
0.0368053
0.0368053
0.0368053
0.0368053
0.0368053
0.0368053
0.0368053
0.0368053
0.0368053
0.0368053
0.0368053
0.0368053
0.0368053
0.0368053
0.0368053
0.0368053
0.0368053
0.0368053
0.0368053
0.0368053
0.0368053
0.0368053
0.0368053
0.0368053
0.0368053
0.0368053
0.0368053
0.0368053
0.0368053
0.0368053
0.0368053
0.0368053
0.0368053
0.0368053
0.0368053
0.0368053
0.0368053
0.0368053
0.0368053
0.0368053
0.0368053
0.0368053
0.0368053
0.0368053
0.0368053
0.0368053
0.0368053
0.0368053
0.0368053
0.0368053
0.0368053
0.0368053
0.0368053
0.0368053
0.0368053
0.0368053
0.0368053
0.0368053
0.0368053
0.0368053
0.0368053
0.0368053
0.0368053
0.0368053
0.0368053
0.0368053
0.0368053
0.0368053
0.0368053
0.0368053
0.0368053
0.0368053
0.0368053
0.0368053
0.0368053
0.0368053
0.0368053
0.0368053
0.0368053
0.0368053
0.0368053
0.0368053
0.0368053
0.0368053
0.0368053
0.0368053
0.0368053
0.0368053
0.0368053
0.0368053
0.0368053
0.0368053
0.0368053
0.0368053
0.0368053
0.0368053
0.0368053
0.0368053
0.0368053
0.0368053
0.0368053
0.0368053
0.0368053
0.0368053
0.0368053
0.0368053
0.0368053
0.0368053
0.0368053
0.0368053
0.0368053
0.0368053
0.0368053
0.0368053
0.0368053
0.0368053
0.0368053
0.0368053
0.0368053
0.0368053
0.0368053
0.0368053
0.0368053
0.0368053
0.0368053
0.0368053
0.0368053
0.0368053
0.0368053
0.0368053
0.0368053
0.0368053
0.0368053
0.0368053
0.0368053
0.0368053
0.0368053
0.0368053
0.0368053
0.0368053
0.0368053
0.0368053
0.0368053
0.0368053
0.0368053
0.0368053
0.0368053
0.0368053
0.0368053
0.0368053
0.0368053
0.0368053
0.0368053
0.0368053
0.0368053
0.0368053
0.0368053
0.0368053
0.0368053
0.0368053
0.0368053
0.0368053
0.0368053
0.0368053
0.0368053
0.0368053
0.0368053
0.0368053
0.0368053
0.0368053
0.0368053
0.0368053
0.0368053
0.0368053
0.0368053
0.0368053
0.0368053
0.0368053
0.0368053
0.0368053
0.0368053
0.0368053
0.0368053
0.0368053
0.0368053
0.0368053
0.0368053
0.0368053
0.0368053
0.0368053
0.0368053
0.0368053
0.0368053
0.0368053
0.0368053
0.0368053
0.0368053
0.0368053
0.0368053
0.0368053
0.0368053
0.0368053
0.0368053
0.0368053
0.0368053
0.0368053
0.0368053
0.0368053
0.0368053
0.0368053
0.0368053
0.0368053
0.0368053
0.0368053
0.0368053
0.0368053
0.0368053
0.0368053
0.0368053
0.0368053
0.0368053
0.0368053
0.0368053
0.0368053
0.0368053
0.0368053
0.0368053
0.0368053
0.0368053
0.0368053
0.0368053
0.0368053
0.0368053
0.0368053
0.0368053
0.0368053
0.0368053
0.0368053
0.0368053
0.0368053
0.0368053
0.0368053
0.0368053
0.0368053
0.0368053
0.0368053
0.0368053
0.0368053
0.0368053
0.0368053
0.0368053
0.0368053
0.0368053
0.0368053
0.0368053
0.0368053
0.0368053
0.0368053
0.0368053
0.0368053
0.0368053
0.0368053
0.0368053
0.0368053
0.0368053
0.0368053
0.0368053
0.0368053
0.0368053
0.0368053
0.0368053
0.0368053
0.0368053
0.0368053
0.0368053
0.0368053
0.0368053
0.0368053
0.0368053
0.0368053
0.0368053
0.0368053
0.0368053
0.0368053
0.0368053
0.0368053
0.0368053
0.0368053
0.0368053
0.0368053
0.0368053
0.0368053
0.0368053
0.0368053
0.0368053
0.0368053
0.0368053
0.0368053
0.0368053
0.0368053
0.0368053
0.0368053
0.0368053
0.0368053
0.0368053
0.0368053
0.0368053
0.0368053
0.0368053
0.0368053
0.0368053
0.0368053
0.0368053
0.0368053
0.0368053
0.0368053
0.0368053
0.0368053
0.0368053
0.0368053
0.0368053
0.0368053
0.0368053
0.0368053
0.0368053
0.0368053
0.0368053
0.0368053
0.0368053
0.0368053
0.0368053
0.0368053
0.0368053
0.0368053
0.0368053
0.0368053
0.0368053
0.0368053
0.0368053
0.0368053
0.0368053
0.0368053
0.0368053
0.0368053
0.0368053
0.0368053
0.0368053
0.0368053
0.0368053
0.0368053
0.0368053
0.0368053
0.0368053
0.0368053
0.0368053
0.0368053
0.0368053
0.0368053
0.0368053
0.0368053
0.0368053
0.0368053
0.0368053
0.0368053
0.0368053
0.0368053
0.0368053
0.0368053
0.0368053
0.0368053
0.0368053
0.0368053
0.0368053
0.0368053
0.0368053
0.0368053
0.0368053
0.0368053
0.0368053
0.0368053
0.0368053
0.0368053
0.0368053
0.0368053
0.0368053
0.0368053
0.0368053
0.0368053
0.0368053
0.0368053
0.0368053
0.0368053
0.0368053
0.0368053
0.0368053
0.0368053
0.0368053
0.0368053
0.0368053
0.0368053
0.0368053
0.0368053
0.0368053
0.0368053
0.0368053
0.0368053
0.0368053
0.0368053
0.0368053
0.0368053
0.0368053
0.0368053
0.0368053
0.0368053
0.0368053
0.0368053
0.0368053
0.0368053
0.0368053
0.0368053
0.0368053
0.0368053
0.0368053
0.0368053
0.0368053
0.0368053
0.0368053
0.0368053
0.0368053
0.0368053
0.0368053
0.0368053
0.0368053
0.0368053
0.0368053
0.0368053
0.0368053
0.0368053
0.0368053
0.0368053
0.0368053
0.0368053
0.0368053
0.0368053
0.0368053
0.0368053
0.0368053
0.0368053
0.0368053
0.0368053
0.0368053
0.0368053
0.0368053
0.0368053
0.0368053
0.0368053
0.0368053
0.0368053
0.0368053
0.0368053
0.0368053
0.0368053
0.0368053
0.0368053
0.00100845
0.001002537
0.001007124
0.00101681
0.001032486
0.001056776
0.001091856
0.001134284
0.001206857
0.00127016
0.001292759
0.001305075
0.00131503
0.00132304
0.001330073
0.001335519
0.001340302
0.001344452
0.001020814
0.001015244
0.001012977
0.001020424
0.001033832
0.001055386
0.001086393
0.001131345
0.001220252
0.001281532
0.001299696
0.001313751
0.001324837
0.001333867
0.001341598
0.001347852
0.001352912
0.001357223
0.001022516
0.001014542
0.001025192
0.001033668
0.001046422
0.001067899
0.001089378
0.001147783
0.001243254
0.001291345
0.001311632
0.001325871
0.001337596
0.001347003
0.001355225
0.001362364
0.001367366
0.001371937
0.001024114
0.001022655
0.001031841
0.001048199
0.001063892
0.001082974
0.001099395
0.00114964
0.00125652
0.001304387
0.001329672
0.001341447
0.001353041
0.001362523
0.001370448
0.001378663
0.001383539
0.001388076
0.001026166
0.001029087
0.001044307
0.001059259
0.001077016
0.001096317
0.001113793
0.0011491
0.001245439
0.001326736
0.001353707
0.001360211
0.001371496
0.001380945
0.001385475
0.001395752
0.001401441
0.001405513
0.001028648
0.001026764
0.001057912
0.001069745
0.001088528
0.001108372
0.001131585
0.00114987
0.001219912
0.001348184
0.001380296
0.001383897
0.001392692
0.00140104
0.001411071
0.001414382
0.001420877
0.001425083
0.00103152
0.001024093
0.001071478
0.001080272
0.001098379
0.001118005
0.001151893
0.001150074
0.001196147
0.001352975
0.001410227
0.00141368
0.001415756
0.001423643
0.001432433
0.001435627
0.001443142
0.001446718
0.001034747
0.001019819
0.001076395
0.001087988
0.001102993
0.001128361
0.001175181
0.001150908
0.001178873
0.001339657
0.001440406
0.001449752
0.001440413
0.001448281
0.001457379
0.00145988
0.001467444
0.001470779
0.001038303
0.001014695
0.00103441
0.00105879
0.001097409
0.001130128
0.001198364
0.001155016
0.001169101
0.001317809
0.001464429
0.001495313
0.001467266
0.001474833
0.001484959
0.001486238
0.001494565
0.00149748
0.001042152
0.001009621
0.001019915
0.001031102
0.001053108
0.001121563
0.001224811
0.001168893
0.001168098
0.001296364
0.001466054
0.001551952
0.00149539
0.001504167
0.001515522
0.00151596
0.001525349
0.001527988
0.001046296
0.001005641
0.001013499
0.001022886
0.001036617
0.001074409
0.001209822
0.001209478
0.001178252
0.001280685
0.001439335
0.001590712
0.001526567
0.001535559
0.001547828
0.001549531
0.0015609
0.001562968
0.001048404
0.001006324
0.001012672
0.001020256
0.001031034
0.001056902
0.001110012
0.001382638
0.001206559
0.001272775
0.001404302
0.001599439
0.001566873
0.001569031
0.001585384
0.001587935
0.001602227
0.001603698
0.001050282
0.001007047
0.001012249
0.001018595
0.00102794
0.001047643
0.001084427
0.001212723
0.00125315
0.001273281
0.001375197
0.001585375
0.001620041
0.001602768
0.001626063
0.00163623
0.001651637
0.00165252
0.001054065
0.001010929
0.001015001
0.001018281
0.001025404
0.001041642
0.001071662
0.001105773
0.001548129
0.001294443
0.001358622
0.001565524
0.001691993
0.001640409
0.001675603
0.001697782
0.001712699
0.001712747
0.001065456
0.001009474
0.001013877
0.001017757
0.001024433
0.00103745
0.00106191
0.001084074
0.001435318
0.001368178
0.001355626
0.001543364
0.001778527
0.001687871
0.00173966
0.001780332
0.001791239
0.001789616
0.001068173
0.001012105
0.001016052
0.00101823
0.001024081
0.001035043
0.001055509
0.001072431
0.001173056
0.001337551
0.00135214
0.001528769
0.001872601
0.001768491
0.0018198
0.001907033
0.001894444
0.001890349
0.001072095
0.001011919
0.001017093
0.001019558
0.001024045
0.001033396
0.001051588
0.001068384
0.001119994
0.001464859
0.001369545
0.001521945
0.001984494
0.001874307
0.001931822
0.002149739
0.002021742
0.002024623
0.001076663
0.001014604
0.00101901
0.001020368
0.001024743
0.001032328
0.001048903
0.001065906
0.001103292
0.001684795
0.001410636
0.001520566
0.001990759
0.002077529
0.00217385
0.002632711
0.002105163
0.002195344
0.00108161
0.001015727
0.001022964
0.001021194
0.001025058
0.001032573
0.001047092
0.001064517
0.001095651
0.001591038
0.001437076
0.001515139
0.001966876
0.002335663
0.002529646
0.003181032
0.002052253
0.002403914
0.001086481
0.001015423
0.001024799
0.001023589
0.001025226
0.001033746
0.001046498
0.001063274
0.001091233
0.001591097
0.001416765
0.001498112
0.001868766
0.0019918
0.002524227
0.003168947
0.002548598
0.002689939
0.001091246
0.001015014
0.001025701
0.001024606
0.001027358
0.001032153
0.001049896
0.001063657
0.001096075
0.001575328
0.001420584
0.001475843
0.001738122
0.001720872
0.002446618
0.001521869
0.00323729
0.003170172
0.001096143
0.001015244
0.001026041
0.001025105
0.001028086
0.001034061
0.001046609
0.001072089
0.00110413
0.001547568
0.001402427
0.001448133
0.001645329
0.001438178
0.001497858
0.001363175
0.001968016
0.003902884
0.001101327
0.001015179
0.001025431
0.001025182
0.001028323
0.001034561
0.001048637
0.001070453
0.001141862
0.001444193
0.00137471
0.00141667
0.001595878
0.001365212
0.001294426
0.00149173
0.00187226
0.00355404
0.001106775
0.001015149
0.001024928
0.001025016
0.001028198
0.001034757
0.00104982
0.001075937
0.001171206
0.001433557
0.001345517
0.001390677
0.001562157
0.001402857
0.00132141
0.001294491
0.004554459
0.003063923
0.001112694
0.001015435
0.001024288
0.001024589
0.001027729
0.001034631
0.001049988
0.001075464
0.001223783
0.001375409
0.001302427
0.001353852
0.001484668
0.001423535
0.001257961
0.001682669
0.002156638
0.002642687
0.001118788
0.001015553
0.00102312
0.001023794
0.001026792
0.001033942
0.001048202
0.00107555
0.001156095
0.0012753
0.001296647
0.00130085
0.001377811
0.00138357
0.001394686
0.001570228
0.001871578
0.001924421
0.001125355
0.001015771
0.001021967
0.001022888
0.001025631
0.00103357
0.001044654
0.001064153
0.001112698
0.001191668
0.001227073
0.001256952
0.001309172
0.001342706
0.001572536
0.001547529
0.00158452
0.001582226
0.00113239
0.001016101
0.001020646
0.001021888
0.001025097
0.001031326
0.001039783
0.001054998
0.001084417
0.001141043
0.00117986
0.001213774
0.001243922
0.001297865
0.001377793
0.00141252
0.001436833
0.001450924
0.001139766
0.001016786
0.001018988
0.001021285
0.001024108
0.001027646
0.001034573
0.001047634
0.001068338
0.0011091
0.001142271
0.001174703
0.001206371
0.001247235
0.001308458
0.001326953
0.001343794
0.001363817
0.00114783
0.001017688
0.00101681
0.001023227
0.001017596
0.001023271
0.001030361
0.001040175
0.001059377
0.001088262
0.001112669
0.001141712
0.001168676
0.001222593
0.00122806
0.00125853
0.001271435
0.001244407
0.001156336
0.001019975
0.001012455
0.001014733
0.001014968
0.00101965
0.001029226
0.001031126
0.00104752
0.001064699
0.001090471
0.001117157
0.001143442
0.001179853
0.00119566
0.001213916
0.001230756
0.001201688
0.001165368
0.001020634
0.001010057
0.001014391
0.001013261
0.001021671
0.001028833
0.001034769
0.001036817
0.001056828
0.001077872
0.001099817
0.00112405
0.001153239
0.00116593
0.001177272
0.001183804
0.001192538
0.001175199
0.001016235
0.001008749
0.001006707
0.001015727
0.001019663
0.001024823
0.001028127
0.001031434
0.001051463
0.001065702
0.001086492
0.001098574
0.001128109
0.001136142
0.00114689
0.001144191
0.001192202
0.001186674
0.001009105
0.001009591
0.001005943
0.001008942
0.001025058
0.001022867
0.001026207
0.001029997
0.001040454
0.001055662
0.00107187
0.001084439
0.001107953
0.00111695
0.001124022
0.001105078
0.001156907
0.001225798
0.001011782
0.00101297
0.001006588
0.001005222
0.001020028
0.00101601
0.001023305
0.001021113
0.001044261
0.001049325
0.001059259
0.001069145
0.001090626
0.00109806
0.001106044
0.001136718
0.001100107
0.001245893
0.001005198
0.001005368
0.001005564
0.00100704
0.001021592
0.001022139
0.00101231
0.001039948
0.001032152
0.001039869
0.001047246
0.001064864
0.001068476
0.001079987
0.001079883
0.001102113
0.001098583
0.001280573
0.001002559
0.001003423
0.001005162
0.001008459
0.001014407
0.001016601
0.00101878
0.001022395
0.001027833
0.001033747
0.001041176
0.001054973
0.001062807
0.001068638
0.001062247
0.001086269
0.001089006
0.001681574
0.001001281
0.001003273
0.001007014
0.001008771
0.001010636
0.001013447
0.001015432
0.001019414
0.00102456
0.00102979
0.001036189
0.001049044
0.001052541
0.001057326
0.001077621
0.001063756
0.001073871
0.002690686
0.001000734
0.001003646
0.00100413
0.001006366
0.00100923
0.00101148
0.00101385
0.001016777
0.001021561
0.001026962
0.001033714
0.001044731
0.001048212
0.00105103
0.001054261
0.001057674
0.001063998
0.004603072
0.001001395
0.001001601
0.00100356
0.001006532
0.001009212
0.001010224
0.001012552
0.001015575
0.001019604
0.001024309
0.001032199
0.001036438
0.001040814
0.001041232
0.001050636
0.001052103
0.001055934
0.0368053
0.001001635
0.001002804
0.001002867
0.001005334
0.001007775
0.001009059
0.001011971
0.001014612
0.001018019
0.001022513
0.001028171
0.001033143
0.001034613
0.001044333
0.001042836
0.001047995
0.001051066
0.0368053
0.00100035
0.001003942
0.001004057
0.001005218
0.00100675
0.001008312
0.001011174
0.001013619
0.001016714
0.001019208
0.001025926
0.001026457
0.001025445
0.001035753
0.001037953
0.001042538
0.001043408
0.0368053
0.001000269
0.00100297
0.001003782
0.001004771
0.001006154
0.001008542
0.001010606
0.001012396
0.001015188
0.001015387
0.001021452
0.001023419
0.001026249
0.001031186
0.001033275
0.001034408
0.001043386
0.0368053
0.001000742
0.001003313
0.001003205
0.00100416
0.001006214
0.001007966
0.001009579
0.001011179
0.001013008
0.001016075
0.001017658
0.001016046
0.001025068
0.001024951
0.001026825
0.001034299
0.001036843
0.0368053
0.001002953
0.00100292
0.001002125
0.001003962
0.001006449
0.001006859
0.001008268
0.001009472
0.001010137
0.001014195
0.001014331
0.00101561
0.001019773
0.001020599
0.001026249
0.00102899
0.001027988
0.0368053
0.001005564
0.001001401
0.001001932
0.001003221
0.001005036
0.001005828
0.001006889
0.001008151
0.00100851
0.00101102
0.001011609
0.001015608
0.001016988
0.001017347
0.001021203
0.001023347
0.001032441
0.0368053
0.00101309
0.001000685
0.001002874
0.001003051
0.001003596
0.001004805
0.001005684
0.001006931
0.001007216
0.001009864
0.001009297
0.001012796
0.001011644
0.001018713
0.001018661
0.001020797
0.001022802
0.0368053
0.001125662
0.00100113
0.001001848
0.001002581
0.001003051
0.001004003
0.001004572
0.001005455
0.001005868
0.001007372
0.001009135
0.001008466
0.001014311
0.001014223
0.00101691
0.001019422
0.001023743
0.0368053
0.001459905
0.001002921
0.001001383
0.001001817
0.001002681
0.001003332
0.001003519
0.001004413
0.001004799
0.001005967
0.001007083
0.001009606
0.00101021
0.001011114
0.001015212
0.001017077
0.001020718
0.0368053
0.002078149
0.001006246
0.001001195
0.00100277
0.001005831
0.001004438
0.001006698
0.001007518
0.001008026
0.00101076
0.001012905
0.001014945
0.001018433
0.0368053
0.0368053
0.001003619
0.001005099
0.001005769
0.001007863
0.00100937
0.001011901
0.001013543
0.001016706
0.0368053
0.001003481
0.001005777
0.001006656
0.001008597
0.00101153
0.001012892
0.00101598
0.001004574
0.001006628
0.001006892
0.001010335
0.001011601
0.001014568
0.001005567
0.001007278
0.001008281
0.001011029
0.001013825
0.001006249
0.001005673
0.001007815
0.001011132
0.001012928
0.001003799
0.00100646
0.001008332
0.001010106
0.0010126
0.0010038
0.001006048
0.001007865
0.00100998
0.001012285
0.001003918
0.001006008
0.001007888
0.001009787
0.001012182
0.001004369
0.001006049
0.001007874
0.00100991
0.001012349
0.001003595
0.00100483
0.001006247
0.001007591
0.001010376
0.001012299
0.0368053
0.001004422
0.001005701
0.001006692
0.001008408
0.001010714
0.001012533
0.0368053
0.0368053
0.001004251
0.001005392
0.001005484
0.001007411
0.001009211
0.001011979
0.00101407
0.0368053
0.003576669
0.001004192
0.001003072
0.001004513
0.001004169
0.001004816
0.001007371
0.001007654
0.001010114
0.00101098
0.001014396
0.0368053
0.001607538
0.001004133
0.001001004
0.001001593
0.001002423
0.00100281
0.001003065
0.001003056
0.001003861
0.00100479
0.001005048
0.00100654
0.001006659
0.001010056
0.001009811
0.001012651
0.001014334
0.0368053
0.001282898
0.001002339
0.001001316
0.001001954
0.00100259
0.00100321
0.001003498
0.001003948
0.001004677
0.001005256
0.001006104
0.001007996
0.001008167
0.001008971
0.001012703
0.001013778
0.001016244
0.0368053
0.001089192
0.001000858
0.001002256
0.001003004
0.001003037
0.001003825
0.001004244
0.001004619
0.001005743
0.0010056
0.001007679
0.001007292
0.001011386
0.001010675
0.001012783
0.001015413
0.001019312
0.0368053
0.001020353
0.001000726
0.001002426
0.001002826
0.0010034
0.00100438
0.001005022
0.001005698
0.001006492
0.001007206
0.001007974
0.001009342
0.001009678
0.00101362
0.001015114
0.001015787
0.001016941
0.0368053
0.00101022
0.001001515
0.001001744
0.001002646
0.001004575
0.001005137
0.001005866
0.001006707
0.001007304
0.001009239
0.001009088
0.001011812
0.001011346
0.001014108
0.001014836
0.001017834
0.001024743
0.0368053
0.001005693
0.001003753
0.001002641
0.001003765
0.001005282
0.001005919
0.001006851
0.001007724
0.001007955
0.001009078
0.001010494
0.001013986
0.001012965
0.001014552
0.001018585
0.001019392
0.001020659
0.0368053
0.001003051
0.001003787
0.001002993
0.001003901
0.001005785
0.001006579
0.00100761
0.001008684
0.001009494
0.001012455
0.001011615
0.001012643
0.001016987
0.001016299
0.001018966
0.001023251
0.001023949
0.0368053
0.001001535
0.001005451
0.00100399
0.001004802
0.001005333
0.001006709
0.001007983
0.001009289
0.001010572
0.001011886
0.001014402
0.001015216
0.001019235
0.001019759
0.001021468
0.001023251
0.00102851
0.0368053
0.001002056
0.001003109
0.001003502
0.001004688
0.001006167
0.00100656