/*--------------------------------*- C++ -*----------------------------------*\
| =========                 |                                                 |
| \\      /  F ield         | OpenFOAM: The Open Source CFD Toolbox           |
|  \\    /   O peration     | Version:  2206                                  |
|   \\  /    A nd           | Website:  www.openfoam.com                      |
|    \\/     M anipulation  |                                                 |
\*---------------------------------------------------------------------------*/
FoamFile
{
    version     2.0;
    format      ascii;
    arch        "LSB;label=32;scalar=64";
    class       volScalarField;
    location    "1.6";
    object      muI;
}
// * * * * * * * * * * * * * * * * * * * * * * * * * * * * * * * * * * * * * //

dimensions      [0 0 0 0 0 0 0];

internalField   nonuniform List<scalar> 
13078
(
0.7298046
0.6300072
0.6300009
0.6300004
0.6300002
0.6300002
0.6300001
0.630006
0.6300015
0.6300008
0.6300004
0.6300002
0.6300002
0.6300001
0.6300011
0.6300007
0.6300004
0.6300002
0.6300002
0.6300001
0.6300001
0.6300004
0.6300003
0.6300002
0.6300002
0.6300001
0.6300001
0.6300001
0.6300002
0.6300002
0.6300001
0.6300001
0.6300001
0.6300001
0.6300001
0.6300001
0.6300001
0.6300001
0.6300001
0.6300001
0.6300001
0.6300001
0.6300001
0.6300001
0.6300001
0.6300001
0.6300001
0.6300001
0.6300001
0.6300001
0.63
0.63
0.63
0.63
0.63
0.63
0.63
0.63
0.63
0.63
0.63
0.63
0.63
0.63
0.63
0.63
0.63
0.63
0.63
0.63
0.63
0.63
0.63
0.63
0.63
0.63
0.63
0.63
0.63
0.63
0.63
0.63
0.63
0.63
0.63
0.63
0.63
0.63
0.63
0.63
0.63
0.63
0.63
0.63
0.63
0.63
0.63
0.63
0.63
0.63
0.63
0.63
0.63
0.63
0.63
0.63
0.63
0.63
0.63
0.63
0.63
0.63
0.63
0.63
0.63
0.63
0.63
0.63
0.63
0.63
0.63
0.63
0.63
0.63
0.63
0.63
0.63
0.63
0.63
0.63
0.63
0.63
0.63
0.63
0.63
0.63
0.63
0.63
0.63
0.63
0.63
0.63
0.63
0.63
0.63
0.63
0.63
0.63
0.63
0.63
0.63
0.63
0.63
0.63
0.63
0.63
0.63
0.63
0.63
0.63
0.63
0.63
0.63
0.63
0.63
0.63
0.63
0.63
0.63
0.63
0.63
0.63
0.63
0.63
0.6300001
0.63
0.63
0.63
0.63
0.63
0.63
0.6300001
0.63
0.63
0.63
0.63
0.63
0.6300001
0.6300001
0.63
0.63
0.63
0.63
0.63
0.6300001
0.6300001
0.63
0.63
0.63
0.63
0.6300001
0.6300001
0.6300001
0.63
0.63
0.63
0.63
0.6300001
0.6300001
0.6300001
0.63
0.63
0.63
0.6300001
0.6300001
0.6300001
0.6300001
0.63
0.63
0.6300001
0.6300001
0.6300001
0.6300001
0.6300001
0.63
0.6300001
0.6300001
0.6300001
0.6300001
0.6300001
0.6300001
0.63
0.6300001
0.6300001
0.6300001
0.6300001
0.6300001
0.6300001
0.63
0.6300001
0.6300001
0.6300001
0.6300001
0.6300001
0.6300001
0.6300001
0.6300001
0.6300001
0.6300001
0.6300001
0.6300001
0.6300001
0.6300001
0.6300001
0.6300001
0.6300001
0.6300001
0.6300001
0.6300001
0.6300001
0.6300001
0.6300001
0.6300002
0.6300002
0.6300002
0.6300002
0.6300002
0.6300002
0.6300002
0.6300002
0.6300003
0.6300003
0.6300003
0.6300002
0.6300003
0.6300003
0.6300004
0.6300005
0.6300007
0.630001
0.6300003
0.6300004
0.6300005
0.6300007
0.6300014
0.6300027
0.6300045
0.6300005
0.6300006
0.6300011
0.6300025
0.6300052
0.6300086
0.6300108
0.6300008
0.6300015
0.6300035
0.6300075
0.6300117
0.6300127
0.6300114
0.6300018
0.6300041
0.6300087
0.6300127
0.6300129
0.6300104
0.630008
0.6300045
0.6300088
0.6300127
0.6300123
0.6300092
0.6300073
0.6300061
0.6300091
0.6300123
0.630012
0.630009
0.6300067
0.6300057
0.6300055
0.6300135
0.6300125
0.6300094
0.6300069
0.6300058
0.6300053
0.6300052
0.6300159
0.6300115
0.6300079
0.6300061
0.6300055
0.6300052
0.6300049
0.6300163
0.6300109
0.6300075
0.6300059
0.6300053
0.6300049
0.6300045
0.6300156
0.6300108
0.6300077
0.630006
0.6300052
0.6300047
0.6300042
0.6300142
0.630011
0.6300083
0.6300062
0.6300051
0.6300045
0.630004
0.6300126
0.6300111
0.6300088
0.6300065
0.6300051
0.6300045
0.630004
0.6300112
0.630011
0.6300092
0.6300069
0.6300054
0.6300046
0.6300042
0.6300101
0.6300108
0.6300096
0.6300073
0.6300056
0.6300048
0.6300044
0.6300093
0.6300106
0.6300097
0.6300075
0.6300058
0.6300049
0.6300046
0.6300088
0.6300104
0.6300098
0.6300077
0.6300059
0.630005
0.6300047
0.6300088
0.6300104
0.6300097
0.6300077
0.6300059
0.6300051
0.6300047
0.6300092
0.6300104
0.6300096
0.6300075
0.6300058
0.630005
0.6300046
0.6300099
0.6300105
0.6300093
0.6300072
0.6300057
0.6300049
0.6300046
0.6300109
0.6300106
0.6300089
0.6300069
0.6300056
0.6300049
0.6300045
0.6300122
0.6300105
0.6300084
0.6300066
0.6300055
0.630005
0.6300045
0.6300135
0.6300103
0.6300079
0.6300062
0.6300055
0.6300051
0.6300047
0.6300144
0.6300102
0.6300074
0.6300061
0.6300056
0.6300054
0.6300051
0.6300144
0.6300105
0.6300074
0.6300061
0.6300057
0.6300057
0.6300056
0.6300128
0.6300112
0.6300082
0.6300064
0.6300059
0.6300059
0.630006
0.6300094
0.6300114
0.6300101
0.6300076
0.6300063
0.6300059
0.6300061
0.6300053
0.6300093
0.6300116
0.6300101
0.6300077
0.6300065
0.6300062
0.6300024
0.6300051
0.6300095
0.6300117
0.6300105
0.6300086
0.6300071
0.6300011
0.6300021
0.6300047
0.6300088
0.6300115
0.6300112
0.6300095
0.6300006
0.6300009
0.6300017
0.6300038
0.6300072
0.6300098
0.6300109
0.6300004
0.6300005
0.6300007
0.6300012
0.6300025
0.6300046
0.6300069
0.6300003
0.6300003
0.6300004
0.6300005
0.6300008
0.6300013
0.6300022
0.6300002
0.6300002
0.6300003
0.6300003
0.6300004
0.6300004
0.6300006
0.6300002
0.6300002
0.6300002
0.6300002
0.6300002
0.6300003
0.6300003
0.6300001
0.6300001
0.6300001
0.6300002
0.6300002
0.6300002
0.6300002
0.6300001
0.6300001
0.6300001
0.6300001
0.6300001
0.6300001
0.6300001
0.6300001
0.6300001
0.6300001
0.6300001
0.6300001
0.6300001
0.6300001
0.6300001
0.6300001
0.6300001
0.6300001
0.6300001
0.6300001
0.6300001
0.6300001
0.6300001
0.6300001
0.6300001
0.6300001
0.6300001
0.6300001
0.6300001
0.6300001
0.6300001
0.6300001
0.6300001
0.6300001
0.6300001
0.63
0.6300001
0.6300001
0.6300001
0.6300001
0.6300001
0.6300001
0.63
0.6300001
0.6300001
0.6300001
0.6300001
0.6300001
0.6300001
0.63
0.6300001
0.6300001
0.6300001
0.6300001
0.6300001
0.6300001
0.63
0.6300001
0.6300001
0.6300001
0.6300001
0.6300001
0.6300001
0.63
0.63
0.63
0.63
0.6300001
0.6300001
0.6300001
0.63
0.63
0.63
0.63
0.6300001
0.6300001
0.6300001
0.63
0.63
0.63
0.63
0.63
0.6300001
0.6300001
0.63
0.63
0.63
0.63
0.63
0.63
0.6300001
0.63
0.63
0.63
0.63
0.63
0.63
0.6300001
0.63
0.63
0.63
0.63
0.63
0.63
0.63
0.63
0.63
0.63
0.63
0.63
0.63
0.63
0.63
0.63
0.63
0.63
0.63
0.63
0.63
0.63
0.63
0.63
0.63
0.63
0.63
0.63
0.63
0.63
0.63
0.63
0.63
0.63
0.63
0.63
0.63
0.63
0.63
0.63
0.63
0.63
0.63
0.63
0.63
0.63
0.63
0.63
0.63
0.63
0.63
0.63
0.63
0.63
0.63
0.63
0.63
0.63
0.63
0.63
0.63
0.63
0.63
0.63
0.63
0.63
0.63
0.63
0.63
0.63
0.63
0.63
0.63
0.63
0.63
0.63
0.63
0.63
0.63
0.63
0.63
0.63
0.63
0.63
0.63
0.63
0.63
0.63
0.63
0.63
0.63
0.63
0.63
0.63
0.63
0.63
0.63
0.63
0.63
0.63
0.63
0.63
0.63
0.63
0.63
0.63
0.63
0.63
0.63
0.63
0.63
0.63
0.6300001
0.63
0.63
0.63
0.63
0.63
0.63
0.6300001
0.6300001
0.6300001
0.6300001
0.6300001
0.6300001
0.6300001
0.6300001
0.6300001
0.6300001
0.6300001
0.6300001
0.6300001
0.6300001
0.6300002
0.6300002
0.6300001
0.6300001
0.6300001
0.6300001
0.6300001
0.6300004
0.6300003
0.6300002
0.6300002
0.6300001
0.6300001
0.6300001
0.6300011
0.6300007
0.6300004
0.6300002
0.6300002
0.6300001
0.6300001
0.6300055
0.6300014
0.6300007
0.6300003
0.6300002
0.6300002
0.6300001
0.6300001
0.6300001
0.6300001
0.6300001
0.63
0.63
0.6300001
0.6300001
0.6300001
0.6300001
0.6300001
0.63
0.63
0.6300001
0.6300001
0.6300001
0.6300001
0.6300001
0.63
0.63
0.6300001
0.6300001
0.6300001
0.6300001
0.6300001
0.63
0.63
0.6300001
0.6300001
0.6300001
0.6300001
0.6300001
0.63
0.63
0.6300001
0.6300001
0.6300001
0.6300001
0.6300001
0.63
0.63
0.6300001
0.6300001
0.6300001
0.6300001
0.63
0.63
0.63
0.6300001
0.6300001
0.6300001
0.6300001
0.63
0.63
0.63
0.6300001
0.63
0.6300001
0.6300001
0.63
0.63
0.63
0.6300001
0.63
0.63
0.63
0.63
0.63
0.63
0.6300001
0.63
0.63
0.63
0.63
0.63
0.63
0.6300001
0.63
0.63
0.63
0.63
0.63
0.63
0.6300001
0.63
0.63
0.63
0.63
0.63
0.63
0.6300001
0.63
0.63
0.63
0.63
0.63
0.63
0.6300001
0.63
0.63
0.63
0.63
0.63
0.63
0.6300001
0.63
0.63
0.63
0.63
0.63
0.63
0.6300001
0.63
0.63
0.63
0.63
0.63
0.63
0.6300001
0.63
0.63
0.63
0.63
0.63
0.63
0.6300001
0.63
0.63
0.63
0.63
0.63
0.63
0.6300001
0.63
0.63
0.63
0.63
0.63
0.63
0.6300001
0.63
0.6300001
0.63
0.63
0.63
0.63
0.6300001
0.6300001
0.6300001
0.6300001
0.63
0.63
0.63
0.6300001
0.6300001
0.6300001
0.6300001
0.63
0.63
0.6300001
0.6300001
0.6300001
0.6300001
0.6300001
0.6300001
0.63
0.6300001
0.6300001
0.6300001
0.6300001
0.6300001
0.63
0.6300001
0.6300001
0.6300001
0.6300001
0.6300001
0.6300001
0.6300001
0.6300001
0.6300001
0.6300001
0.6300001
0.6300001
0.6300001
0.6300001
0.6300001
0.6300001
0.6300001
0.6300001
0.6300001
0.6300001
0.6300001
0.6300001
0.6300001
0.6300002
0.6300001
0.6300001
0.6300001
0.6300001
0.6300001
0.6300001
0.6300002
0.6300001
0.6300001
0.6300001
0.6300001
0.6300001
0.6300001
0.6300002
0.6300001
0.6300001
0.6300001
0.6300001
0.6300001
0.6300001
0.6300001
0.6300001
0.6300001
0.6300001
0.6300001
0.6300001
0.6300001
0.6300001
0.6300001
0.6300001
0.6300001
0.6300001
0.6300001
0.6300001
0.6300002
0.6300001
0.6300001
0.6300001
0.6300001
0.6300001
0.6300001
0.6300002
0.6300001
0.6300001
0.6300001
0.6300001
0.6300001
0.6300001
0.6300002
0.6300001
0.6300001
0.6300001
0.6300002
0.6300002
0.6300002
0.6300057
0.6300001
0.6300001
0.6300001
0.6300002
0.6300003
0.6300004
0.6300003
0.6300001
0.6300001
0.6300001
0.6300002
0.6300004
0.6300006
0.6300013
0.6300003
0.6300002
0.6300001
0.6300001
0.6300003
0.6300007
0.6300031
0.6300014
0.6300005
0.6300005
0.6300007
0.6300008
0.6300023
0.6300175
0.6300065
0.6300046
0.6300077
0.6300076
0.630007
0.6300086
0.6300416
0.6300116
0.6300113
0.6300096
0.6300088
0.6300103
0.6300145
0.630018
0.6300093
0.6300072
0.6300068
0.6300071
0.6300082
0.6300119
0.6300161
0.6300065
0.6300054
0.630006
0.6300054
0.6300052
0.6300043
0.6300088
0.6300055
0.6300049
0.6300055
0.6300055
0.6300055
0.6300058
0.6300068
0.6300054
0.6300046
0.6300055
0.6300055
0.6300059
0.6300064
0.6300091
0.6300049
0.6300041
0.6300049
0.6300049
0.6300047
0.6300061
0.6300091
0.6300044
0.6300037
0.6300042
0.6300043
0.6300047
0.6300058
0.6300138
0.630004
0.6300033
0.6300039
0.6300044
0.6300054
0.6300077
0.6300134
0.6300037
0.6300031
0.6300037
0.6300042
0.6300056
0.6300077
0.6300107
0.6300035
0.6300032
0.6300037
0.6300044
0.6300054
0.6300075
0.6300112
0.6300037
0.6300035
0.6300041
0.630005
0.6300059
0.630007
0.6300097
0.630004
0.630004
0.6300047
0.6300056
0.6300064
0.6300071
0.6300069
0.6300043
0.6300044
0.6300053
0.6300066
0.6300078
0.6300085
0.6300175
0.6300045
0.6300049
0.630006
0.6300078
0.6300105
0.6300127
0.630018
0.6300046
0.6300051
0.6300065
0.6300088
0.630013
0.6300201
0.6300046
0.6300051
0.6300066
0.630009
0.6300135
0.6300211
0.6300045
0.6300048
0.6300062
0.6300082
0.6300111
0.6300158
0.6300043
0.6300045
0.6300057
0.6300071
0.6300089
0.6300095
0.6300126
0.6300042
0.6300042
0.6300052
0.6300064
0.6300073
0.6300075
0.6300058
0.6300041
0.6300041
0.6300049
0.6300058
0.6300069
0.6300071
0.6300072
0.6300043
0.6300042
0.6300047
0.6300053
0.6300059
0.630006
0.6300071
0.6300048
0.6300046
0.6300047
0.6300052
0.6300059
0.630006
0.6300064
0.6300052
0.6300051
0.6300051
0.6300052
0.6300054
0.6300075
0.6300111
0.6300058
0.6300059
0.6300057
0.6300052
0.6300055
0.6300079
0.6300197
0.6300062
0.6300066
0.630006
0.6300061
0.6300054
0.6300068
0.6300065
0.6300064
0.6300072
0.6300066
0.6300064
0.6300068
0.6300067
0.6300103
0.6300065
0.6300073
0.6300068
0.6300067
0.6300064
0.6300071
0.6300095
0.6300078
0.6300075
0.6300069
0.6300072
0.6300078
0.6300092
0.630009
0.6300103
0.6300088
0.6300061
0.6300051
0.6300041
0.6300034
0.6300083
0.6300088
0.6300122
0.6300079
0.6300061
0.6300064
0.6300071
0.6300067
0.6300032
0.6300054
0.6300076
0.630007
0.6300065
0.6300084
0.6300144
0.6300007
0.6300006
0.6300007
0.630001
0.630001
0.6300014
0.6300092
0.6300002
0.6300002
0.6300002
0.6300001
0.6300002
0.6300007
0.6300016
0.6300002
0.6300001
0.6300001
0.6300002
0.6300003
0.6300005
0.6300008
0.6300001
0.6300001
0.6300001
0.6300002
0.6300003
0.6300004
0.6300003
0.6300001
0.6300001
0.6300001
0.6300002
0.6300002
0.6300002
0.6300005
0.6300001
0.6300001
0.6300001
0.6300001
0.6300001
0.6300001
0.6300003
0.6300001
0.6300001
0.6300001
0.6300001
0.6300001
0.6300001
0.6300001
0.6300001
0.6300001
0.6300001
0.6300001
0.6300001
0.6300001
0.6300006
0.6300001
0.6300001
0.6300001
0.6300001
0.6300001
0.6300001
0.6300002
0.6300001
0.6300001
0.6300001
0.6300001
0.6300001
0.6300001
0.6300002
0.6300001
0.6300001
0.6300001
0.6300001
0.6300001
0.6300001
0.6300002
0.6300001
0.6300001
0.6300001
0.6300001
0.6300001
0.6300001
0.6300002
0.6300001
0.6300001
0.6300001
0.6300001
0.6300001
0.6300001
0.6300002
0.6300001
0.6300001
0.6300001
0.6300001
0.6300001
0.6300001
0.6300002
0.6300001
0.6300001
0.6300001
0.6300001
0.6300001
0.6300001
0.6300002
0.6300001
0.6300001
0.6300001
0.6300001
0.6300001
0.6300001
0.6300001
0.6300001
0.6300001
0.6300001
0.6300001
0.6300001
0.6300001
0.6300001
0.6300001
0.6300001
0.6300001
0.6300001
0.6300001
0.6300001
0.6300001
0.6300001
0.6300001
0.6300001
0.6300001
0.63
0.6300001
0.6300001
0.63
0.6300001
0.63
0.63
0.63
0.63
0.6300001
0.63
0.63
0.63
0.63
0.63
0.63
0.6300001
0.63
0.63
0.63
0.63
0.63
0.63
0.6300001
0.63
0.63
0.63
0.63
0.63
0.63
0.6300001
0.63
0.63
0.63
0.63
0.63
0.63
0.6300001
0.63
0.63
0.63
0.63
0.63
0.63
0.6300001
0.63
0.63
0.63
0.63
0.63
0.63
0.6300001
0.63
0.63
0.63
0.63
0.63
0.63
0.63
0.63
0.63
0.63
0.63
0.63
0.63
0.6300001
0.63
0.63
0.63
0.63
0.63
0.63
0.6300001
0.63
0.63
0.63
0.63
0.63
0.63
0.6300001
0.63
0.63
0.63
0.63
0.63
0.63
0.6300001
0.63
0.63
0.63
0.63
0.63
0.63
0.6300001
0.63
0.6300001
0.63
0.63
0.63
0.63
0.6300001
0.6300001
0.6300001
0.6300001
0.6300001
0.63
0.63
0.6300001
0.6300001
0.6300001
0.6300001
0.6300001
0.63
0.63
0.6300001
0.6300001
0.6300001
0.6300001
0.6300001
0.63
0.63
0.6300001
0.6300001
0.6300001
0.6300001
0.6300001
0.63
0.63
0.6300001
0.6300001
0.6300001
0.6300001
0.6300001
0.63
0.63
0.6300001
0.6300001
0.6300001
0.6300001
0.6300001
0.63
0.63
0.6300001
0.6300001
0.6300001
0.6300001
0.6300001
0.63
0.63
0.6300001
1.123366
1.063842
0.9702455
0.850911
0.7645018
0.7119722
0.6820127
0.6659858
0.653539
0.6480777
0.6466944
0.646026
0.6455236
0.6451416
0.6448215
0.6445826
0.6443792
0.6442071
1.122852
0.8650898
0.8885362
0.8233187
0.7599762
0.7138695
0.6851662
0.6667721
0.6521251
0.6473541
0.6463112
0.6455864
0.6450585
0.6446543
0.644325
0.6440693
0.6438689
0.6437027
1.122665
0.8719551
0.7952458
0.760512
0.7285233
0.6993603
0.683398
0.6627665
0.6500558
0.6467747
0.6456915
0.6450111
0.6444936
0.6441035
0.6437793
0.6435096
0.6433269
0.6431642
1.122647
0.8091852
0.7667766
0.7252355
0.7034381
0.6873399
0.6782055
0.662368
0.6490292
0.6460619
0.6448393
0.6443313
0.6438639
0.6435037
0.6432168
0.6429319
0.6427685
0.6426201
1.122646
0.7773697
0.7327333
0.7087815
0.6915625
0.6796913
0.6722856
0.6624828
0.6498792
0.6449716
0.643838
0.6435898
0.6431797
0.6428549
0.6427048
0.6423769
0.6422025
0.6420807
1.122643
0.7875699
0.7104809
0.6976281
0.6838897
0.6743366
0.6667067
0.6623192
0.6521588
0.644056
0.6428767
0.6427567
0.6424727
0.6422146
0.6419183
0.6418236
0.6416422
0.6415277
1.122639
0.8010293
0.6960779
0.6891816
0.6786859
0.6708176
0.6618974
0.6622762
0.6548062
0.6438665
0.6419427
0.6418436
0.6417848
0.6415666
0.6413328
0.6412502
0.6410604
0.6409723
1.122634
0.8274999
0.6920387
0.6842072
0.6765773
0.6676063
0.6577275
0.6621013
0.6571642
0.6444063
0.6411287
0.6408987
0.6411286
0.6409343
0.6407179
0.6406599
0.6404883
0.6404143
1.122629
0.8704306
0.7581194
0.7093653
0.6791536
0.6671077
0.6545329
0.661267
0.6587075
0.6453889
0.640556
0.6399009
0.6404923
0.6403259
0.6401113
0.6400848
0.6399158
0.639858
1.122634
0.931056
0.8268283
0.7694744
0.717174
0.6696545
0.6516817
0.6587423
0.6588759
0.646493
0.6405194
0.6388892
0.6398994
0.6397279
0.6395146
0.6395065
0.6393374
0.6392909
1.122807
0.9971705
0.882792
0.8078294
0.7514756
0.6936097
0.6532107
0.6532483
0.6572574
0.647406
0.6411557
0.6383082
0.6393159
0.6391601
0.6389558
0.6389282
0.638748
0.638716
1.122893
0.9844016
0.8919883
0.8244626
0.7697302
0.711804
0.6736956
0.6427984
0.6535725
0.647906
0.6421167
0.6381877
0.6386562
0.6386235
0.6383835
0.6383473
0.6381499
0.6381302
1.122998
0.9715582
0.8968942
0.8364695
0.7822468
0.7262414
0.686396
0.6528982
0.6492799
0.6478732
0.6430506
0.6383836
0.6379167
0.6381427
0.6378408
0.6377159
0.6375341
0.637524
1.123041
0.9132381
0.8674284
0.8388934
0.7941674
0.7385626
0.6959174
0.6753918
0.6389509
0.6465997
0.6436496
0.6386767
0.6370962
0.6376658
0.6372678
0.6370375
0.6368907
0.6368902
1.123039
0.9331612
0.8787743
0.8430394
0.7992007
0.7491339
0.7056342
0.6866222
0.6412581
0.6432977
0.6437638
0.6390291
0.6363097
0.6371386
0.6366403
0.6362951
0.6362086
0.6362213
1.12309
0.8986014
0.857579
0.839289
0.8010952
0.7561454
0.7136989
0.6952551
0.6580623
0.6444955
0.6438991
0.6392772
0.6356312
0.6363919
0.6359929
0.6354179
0.635494
0.6355192
1.123076
0.9008389
0.8485082
0.8293532
0.8012921
0.7614088
0.7195249
0.6988964
0.6701592
0.6405463
0.6432488
0.639398
0.6349926
0.6356202
0.6352741
0.6342764
0.634811
0.6347975
1.123038
0.8713298
0.8333493
0.8236975
0.7975652
0.7650526
0.7239915
0.7013316
0.6764469
0.6371705
0.6419309
0.6394228
0.6349611
0.6345624
0.6341887
0.633013
0.6344485
0.6341135
1.123012
0.8605541
0.8073707
0.8182201
0.7959276
0.7642
0.7272581
0.7027707
0.6800245
0.6383036
0.6412131
0.6395216
0.6350834
0.6336821
0.6332158
0.6322563
0.6346718
0.6335033
1.122992
0.8633907
0.7972708
0.8038097
0.79507
0.7602571
0.7283777
0.7041089
0.682354
0.6383028
0.6417564
0.6398456
0.635656
0.6349559
0.6332272
0.6322688
0.6331765
0.6329111
1.122975
0.8673007
0.7926856
0.7982815
0.7848374
0.7656686
0.7222898
0.7036915
0.6798118
0.6385295
0.6416503
0.6403041
0.6366541
0.6368128
0.6334001
0.6393994
0.6321996
0.6322676
1.122958
0.8650845
0.7910153
0.7956888
0.7816114
0.7592353
0.7281676
0.6955482
0.6760849
0.6389601
0.6421728
0.6409379
0.6376075
0.641185
0.6398506
0.6434797
0.6350774
0.6316956
1.12294
0.8657109
0.7940351
0.7952944
0.7805854
0.7576438
0.7244582
0.6969864
0.6641051
0.6410344
0.6430674
0.6417591
0.6382364
0.643405
0.6466007
0.6399727
0.6356334
0.631927
1.122919
0.8659982
0.7965996
0.7961466
0.7811242
0.7570306
0.7224183
0.6923936
0.6583606
0.6413036
0.6441637
0.6425366
0.6387285
0.6421599
0.6452178
0.646597
0.631385
0.6323842
1.122895
0.8632781
0.7999756
0.7983761
0.783177
0.7574242
0.722135
0.6927654
0.6517801
0.6430432
0.6461651
0.6438324
0.6401173
0.6415695
0.648924
0.6371928
0.6342509
0.6329948
1.12287
0.8621661
0.8064727
0.8026671
0.7874381
0.7596195
0.7252317
0.6926975
0.6610549
0.6477433
0.6464774
0.6462492
0.6429608
0.6427675
0.6424101
0.6386054
0.6356378
0.6353163
1.122841
0.8601467
0.8133373
0.8078164
0.7930302
0.7608328
0.7320199
0.7031586
0.6726847
0.6553776
0.6514683
0.6489975
0.6458153
0.644279
0.6385709
0.6389607
0.6383959
0.6384288
1.122808
0.8571402
0.8218203
0.8138251
0.7957292
0.7686475
0.7430198
0.7144161
0.6864022
0.6642989
0.6570176
0.652787
0.6500015
0.6464106
0.6429615
0.6418767
0.6412193
0.6408705
1.122774
0.851117
0.8335164
0.8176323
0.8009487
0.7835446
0.7576065
0.7262586
0.6989403
0.6740498
0.664009
0.6578021
0.6535937
0.6497363
0.6458516
0.6449618
0.6442342
0.643456
1.122735
0.8436006
0.8509074
0.8058583
0.8443452
0.8056077
0.7722865
0.7420512
0.7086359
0.6840459
0.6726952
0.6641403
0.6587786
0.6518952
0.6513765
0.6488828
0.6479935
0.6499622
1.122693
0.8264115
0.8944911
0.8700499
0.8677438
0.828699
0.7767992
0.7693864
0.7264676
0.7025792
0.6827781
0.6711052
0.6637373
0.6570186
0.6548671
0.6527721
0.6511296
0.654134
1.122646
0.8219027
0.9249197
0.8734778
0.8853875
0.815179
0.7784231
0.7569932
0.7509053
0.7119023
0.6909186
0.6780086
0.6688799
0.6616224
0.6592465
0.6574058
0.6564467
0.6552645
1.122599
0.8559452
0.9439286
0.9775113
0.8605513
0.8286084
0.7971458
0.7814302
0.7682504
0.7197233
0.7015388
0.6851056
0.6785929
0.6676782
0.6655057
0.6629617
0.6635656
0.6553081
1.122533
0.9385745
0.9314864
0.9914388
0.9410121
0.7959302
0.807935
0.7902107
0.773702
0.7413707
0.7134859
0.695737
0.6863881
0.6745036
0.6711757
0.6688883
0.6756823
0.6608971
1.122284
0.9025023
0.8886099
0.9796329
1.005321
0.8260369
0.8579652
0.8054131
0.8187458
0.7328286
0.7232622
0.7087816
0.6981818
0.6826913
0.6788387
0.6752793
0.6653597
0.6778745
1.122021
1.005807
1.002458
0.9986495
0.9716837
0.8156788
0.8122869
0.8961767
0.7426089
0.7656701
0.7428051
0.7269715
0.7024058
0.6988093
0.6893827
0.6894563
0.676965
0.6785887
1.121833
1.063323
1.043284
1.006508
0.9483986
0.8733063
0.8527183
0.8350684
0.8107311
0.782717
0.7602539
0.7396471
0.7144505
0.704625
0.6986564
0.7052513
0.6852423
0.6836123
1.119608
1.095214
1.046668
0.9721321
0.9435925
0.9170826
0.8833545
0.8632992
0.8303948
0.7985257
0.7745206
0.7527121
0.7237476
0.7180378
0.7112438
0.691106
0.7035851
0.6940488
1.117811
1.109699
1.038309
1.027785
0.9836462
0.936731
0.9062261
0.8790551
0.8511925
0.8158735
0.7866509
0.7603619
0.7318614
0.7252128
0.7204183
0.7154704
0.7107892
0.7033241
1.117315
1.09297
1.086954
1.040213
0.9806464
0.9369862
0.9226331
0.893362
0.8619581
0.8290235
0.7998629
0.7655043
0.7519879
0.7405055
0.739516
0.7210599
0.7187144
0.7131108
0.6545513
1.113228
1.057507
1.056025
1.003112
0.959308
0.9392548
0.9002105
0.871247
0.8409467
0.8100244
0.7812398
0.7622563
0.7574809
0.7326798
0.735873
0.7256025
0.720361
0.6336775
1.120398
1.03182
1.029356
1.005409
0.9767621
0.9506936
0.9100893
0.8815102
0.8517409
0.8318892
0.7915767
0.7890142
0.7939645
0.7539957
0.7477624
0.736533
0.734631
0.6304164
1.12246
1.053624
1.03531
1.014387
0.9875112
0.947097
0.9174853
0.8951732
0.8656211
0.8637255
0.8165643
0.8047646
0.7900118
0.7691636
0.7618139
0.7581272
0.7346789
0.630006
1.122505
1.045777
1.048222
1.027136
0.9864063
0.9562116
0.9316525
0.910018
0.888185
0.8573785
0.8438402
0.8576363
0.7958806
0.7964834
0.7872842
0.7584706
0.7508299
0.6300271
1.123412
1.054796
1.073825
1.031386
0.9821323
0.9748322
0.9513924
0.9331948
0.9238151
0.8754724
0.8740781
0.8616389
0.8278273
0.8221416
0.7900072
0.7777695
0.7820351
0.6300019
1.123806
1.092087
1.078608
1.047852
1.009023
0.993619
0.9743217
0.953236
0.9475974
0.9120565
0.9046241
0.8616503
0.8493904
0.8463836
0.8181613
0.8051724
0.7646566
0.6302383
1.123472
1.111158
1.055868
1.051765
1.039426
1.013685
0.9963443
0.9735881
0.9686684
0.9276092
0.9357446
0.8905769
0.904188
0.8355795
0.8359682
0.8208175
0.8083187
0.6309903
1.115679
1.103553
1.08072
1.062796
1.051757
1.030513
1.018477
1.000754
0.992854
0.9660107
0.9381188
0.9482854
0.8742848
0.8751855
0.8500584
0.8303318
0.8029529
0.6300458
1.118072
1.100043
1.092874
1.081498
1.060415
1.04534
1.041137
1.021799
1.013807
0.9909916
0.9709378
0.9312748
0.9228209
0.9108448
0.8653898
0.8486411
0.8213408
0.6300544
1.119823
1.114027
1.102011
1.058301
0.9935618
1.021277
0.9776821
0.9635603
0.9552449
0.9154437
0.8893401
0.8679641
0.8377133
0.630128
0.6306941
1.038903
1.007773
0.9947374
0.9578743
0.9346741
0.9010533
0.8823192
0.8518081
0.6300701
1.041979
0.9945696
0.9784307
0.9462593
0.9056055
0.8894877
0.8582375
1.018438
0.9789218
0.9742554
0.9211183
0.9047232
0.8716947
0.9985999
0.9676015
0.9511779
0.9119485
0.8793222
0.9857734
0.9965646
0.9586644
0.9106221
0.8890862
1.034941
0.9819297
0.9503716
0.92425
0.8928126
1.034929
0.9894908
0.9578423
0.9259967
0.8964786
1.032351
0.9902217
0.9574663
0.9287026
0.8976968
1.022719
0.9894607
0.9576934
0.9269648
0.8957182
1.039443
1.01319
0.9858177
0.9623474
0.9205555
0.8963096
0.6300407
1.021609
0.9960193
0.9777899
0.9491945
0.9160539
0.893582
0.6300469
0.6318831
1.025213
1.001977
1.000206
0.9653633
0.9370076
0.9001175
0.8767638
0.6300236
1.122012
1.107299
1.051272
1.019693
1.026958
1.013466
0.9660323
0.9613062
0.924131
0.912574
0.8734202
0.6301372
1.118041
1.112132
1.103543
1.087163
1.066572
1.05738
1.051448
1.051655
1.033587
1.013995
1.008784
0.9804887
0.9783711
0.9249374
0.9283545
0.8922199
0.8740537
0.6319185
1.109863
1.089398
1.094375
1.07806
1.062574
1.048119
1.041607
1.031699
1.016311
1.004659
0.9884367
0.9557337
0.9529897
0.9405706
0.8916272
0.8798156
0.8558599
0.6321466
1.117594
1.108703
1.07063
1.052857
1.052075
1.034364
1.025348
1.017512
0.9952132
0.9979629
0.9609003
0.9673765
0.9074061
0.9165668
0.8907222
0.8634781
0.8311341
0.6305907
1.122857
1.109957
1.066501
1.056999
1.043796
1.022476
1.009301
0.9960711
0.9813582
0.9688355
0.9560828
0.9350787
0.9302464
0.8815027
0.8663278
0.8600021
0.8497901
0.6301988
1.123565
1.089147
1.083342
1.061248
1.018415
1.007003
0.9928869
0.9775163
0.9671593
0.9365981
0.9388232
0.9021403
0.9079036
0.8763644
0.8690313
0.8424225
0.7975634
0.630031
1.122446
1.035948
1.061353
1.035688
1.004138
0.9918886
0.9749737
0.9601558
0.9563857
0.938979
0.9189725
0.8776366
0.8886648
0.8718498
0.8365486
0.8305548
0.8217375
0.6300894
1.121852
1.035199
1.053108
1.032721
0.9944235
0.9797988
0.962042
0.9449107
0.9328762
0.8944892
0.9045492
0.8923217
0.8494016
0.8553735
0.8336798
0.8057207
0.8018152
0.6334719
1.120328
1.000843
1.030794
1.01375
1.003139
0.977485
0.9559384
0.935857
0.9179326
0.9012379
0.8733584
0.8653565
0.8316964
0.8279232
0.8164629
0.8057209
0.779785
0.6395656
1.115046
1.050437
1.041505
1.01609
0.9872749
0.980129
0.9525936
0.9289307
0.905723
0.8884295
0.8626191
0.8523806
0.8468505
0.8055397
0.8018364
0.788542
0.7813382
0.6805464
1.105706
1.090012
1.072802
1.026102
0.9798513
0.9673677
0.9430498
0.9209527
0.8965492
0.8743675
0.8429923
0.8319394
0.8275176
0.8018263
0.7908363
0.7808296
0.7739794
1.11818
1.108854
1.046149
1.029774
0.9942264
0.9593012
0.9486727
0.930029
0.9108449
0.8862709
0.8614706
0.8323925
0.8235059
0.8067109
0.8027081
0.781277
0.7769433
0.7687411
1.117643
1.112177
1.043082
1.019934
0.9741581
0.9392097
0.9243009
0.9100022
0.8931198
0.8721342
0.8480056
0.8263831
0.8076802
0.7940389
0.7890541
0.7856383
0.7713094
0.7597955
1.121752
1.094298
1.047895
0.9779897
0.9337015
0.9058887
0.89048
0.8886215
0.863753
0.8504243
0.8328176
0.8158559
0.8057786
0.7893175
0.778816
0.750761
0.7676054
0.7522282
1.121783
1.064012
1.038123
0.9948772
0.9446843
0.8441637
0.8541184
0.866323
0.8303477
0.8223718
0.8174075
0.8024925
0.7836578
0.7736323
0.764954
0.7538558
0.739148
0.7399094
1.122317
1.057485
1.005758
0.9985645
0.97528
0.7482081
0.7718588
0.8577301
0.8316486
0.7938773
0.8050841
0.7904754
0.7673016
0.7692465
0.7562522
0.7540062
0.7495136
0.7325348
1.122607
1.050309
0.8676493
0.9977831
0.9825922
0.812829
0.8407885
0.7771154
0.7770982
0.7538812
0.7795501
0.7713089
0.7581052
0.7539665
0.7452183
0.7395246
0.7257821
0.7323343
1.122726
1.050017
0.9584063
1.005101
0.9444816
0.8100127
0.7997095
0.7526397
0.7630437
0.7429124
0.7534983
0.7530486
0.7472423
0.7416426
0.7350797
0.7293182
0.7222134
0.7150665
1.122703
1.01643
0.9582521
0.9787582
0.8824256
0.8210231
0.7780293
0.7514649
0.7521329
0.7299513
0.7368175
0.7379481
0.7373108
0.7373204
0.727822
0.7220588
0.719286
0.7119591
1.122722
0.9889699
0.9371123
0.9088276
0.8986818
0.7876948
0.7505683
0.7307344
0.7369182
0.7196444
0.7235936
0.7261884
0.7275009
0.7232721
0.7193376
0.7148861
0.711161
0.7049697
1.12275
0.9792746
0.9189824
0.8932787
0.8578957
0.8102374
0.7462582
0.7260541
0.7251866
0.7149961
0.7151444
0.7170317
0.7189844
0.7152948
0.7126671
0.7083546
0.7037896
0.6970477
1.122778
0.9684382
0.8775909
0.8319269
0.822369
0.8015946
0.7502285
0.7163117
0.7023762
0.7011602
0.7056185
0.7087411
0.7107167
0.7085671
0.7068096
0.7024541
0.6991287
0.6996315
1.122804
0.9609841
0.855732
0.8354248
0.8094771
0.7800457
0.7436303
0.7104887
0.6907623
0.6910255
0.6968888
0.7011941
0.7029092
0.7003757
0.7013388
0.6968253
0.6939781
0.6918434
1.122827
0.9553979
0.8419425
0.8344826
0.8140523
0.774751
0.7360048
0.7059888
0.6842253
0.6842909
0.6903122
0.6946648
0.6965748
0.6940492
0.6969362
0.6922251
0.6893468
0.6862726
1.122848
0.950224
0.8304029
0.8306191
0.8138482
0.7796336
0.7310701
0.7011804
0.6798293
0.6801165
0.6854959
0.6897551
0.6900912
0.6873715
0.68753
0.6869126
0.685233
0.6830235
1.122869
0.9452636
0.8225162
0.8265975
0.8117009
0.7838753
0.7330604
0.6982004
0.6773529
0.6778305
0.6831946
0.6836457
0.685279
0.6875482
0.6896713
0.6841737
0.6815867
0.6793515
1.122882
0.9425358
0.8122254
0.8215755
0.8086698
0.783059
0.7407231
0.6963914
0.6760494
0.678056
0.6769266
0.6795945
0.6810829
0.6826797
0.6812582
0.6795504
0.6779513
0.6760339
1.1229
0.9344782
0.8057153
0.8181522
0.8057415
0.7818313
0.7454443
0.6994243
0.6774622
0.6717607
0.6745419
0.6758645
0.6773622
0.6788069
0.6780574
0.6762811
0.6748011
0.6730081
1.122912
0.9316866
0.8005152
0.814625
0.8032054
0.7810196
0.7479217
0.7095682
0.6719635
0.6706694
0.6711455
0.6723768
0.6739336
0.6752893
0.6747946
0.6732479
0.6718718
0.6703038
1.122922
0.9266164
0.7948776
0.8116113
0.8015882
0.7817209
0.7490321
0.7142022
0.6771725
0.6671992
0.667811
0.6690481
0.6706367
0.6721338
0.671535
0.6703752
0.6691674
0.6678876
1.122929
0.9213096
0.7914553
0.81007
0.8023328
0.7737421
0.7580187
0.7179068
0.6793437
0.6642213
0.6646722
0.6659393
0.6676282
0.6691978
0.6695123
0.6684256
0.6667654
0.6655864
1.122936
0.9181842
0.7937624
0.8120975
0.7833806
0.7989229
0.7525303
0.7184956
0.6804014
0.6613443
0.661722
0.6630958
0.664963
0.6666032
0.6651447
0.6665052
0.6644599
0.6634631
1.122948
0.9120191
0.7994035
0.7774426
0.8347809
0.7835866
0.7530037
0.7175336
0.6784482
0.6584443
0.6589619
0.6605393
0.6626528
0.6642714
0.6632605
0.6640731
0.6623996
0.6615136
1.12296
0.9122698
0.7442068
0.8644136
0.8108318
0.7857502
0.7512794
0.7143904
0.6727302
0.6556638
0.6564058
0.6582107
0.6606007
0.6621687
0.661229
0.661902
0.6604872
0.6597249
1.122993
0.9138537
0.8849332
0.830408
0.8142759
0.7849419
0.7478586
0.7078282
0.6634068
0.6533437
0.6542022
0.6562296
0.6586919
0.6601172
0.6593051
0.6599571
0.6587226
0.6580784
1.123013
0.9075374
0.8276562
0.8375775
0.8164592
0.7826592
0.7415045
0.6961437
0.654583
0.651519
0.6523842
0.6545711
0.6569243
0.6582381
0.6575247
0.6581691
0.6571067
0.6565553
1.122939
0.899773
0.8510395
0.8449914
0.8171759
0.7770707
0.73111
0.6752902
0.6496317
0.6495836
0.6508256
0.6532665
0.6554549
0.6565014
0.655902
0.656513
0.6556127
0.6551708
1.122964
0.8905765
0.8699043
0.8492637
0.8144676