/*--------------------------------*- C++ -*----------------------------------*\
| =========                 |                                                 |
| \\      /  F ield         | OpenFOAM: The Open Source CFD Toolbox           |
|  \\    /   O peration     | Version:  2206                                  |
|   \\  /    A nd           | Website:  www.openfoam.com                      |
|    \\/     M anipulation  |                                                 |
\*---------------------------------------------------------------------------*/
FoamFile
{
    version     2.0;
    format      ascii;
    arch        "LSB;label=32;scalar=64";
    class       volScalarField;
    location    "1.6";
    object      nuEffb;
}
// * * * * * * * * * * * * * * * * * * * * * * * * * * * * * * * * * * * * * //

dimensions      [0 2 -1 0 0 0 0];

internalField   nonuniform List<scalar> 
13078
(
6.744338e-06
3.37624e-05
5.157837e-05
5.184278e-05
5.108624e-05
5.015156e-05
4.909512e-05
3.603677e-05
5.15856e-05
5.275504e-05
5.199606e-05
5.113182e-05
5.018179e-05
4.912095e-05
5.385337e-05
5.380133e-05
5.298798e-05
5.210919e-05
5.120281e-05
5.022764e-05
4.915602e-05
5.495624e-05
5.398402e-05
5.308762e-05
5.220143e-05
5.126945e-05
5.027544e-05
4.919413e-05
5.500624e-05
5.403937e-05
5.315015e-05
5.225167e-05
5.132309e-05
5.032007e-05
4.923137e-05
5.496076e-05
5.404336e-05
5.317715e-05
5.228265e-05
5.134961e-05
5.035699e-05
4.926633e-05
5.491574e-05
5.40313e-05
5.318817e-05
5.230217e-05
5.136756e-05
5.037282e-05
4.929629e-05
5.488408e-05
5.401605e-05
5.31916e-05
5.231163e-05
5.137755e-05
5.03835e-05
4.930683e-05
5.486202e-05
5.400264e-05
5.318789e-05
5.231369e-05
5.138261e-05
5.039029e-05
4.931427e-05
5.484649e-05
5.399195e-05
5.318307e-05
5.231341e-05
5.138505e-05
5.039457e-05
4.931951e-05
5.483527e-05
5.398359e-05
5.317861e-05
5.231214e-05
5.138608e-05
5.039738e-05
4.932355e-05
5.482653e-05
5.397738e-05
5.31748e-05
5.231056e-05
5.138641e-05
5.039936e-05
4.93267e-05
5.481986e-05
5.397235e-05
5.317158e-05
5.230915e-05
5.138643e-05
5.040084e-05
4.932936e-05
5.481439e-05
5.396836e-05
5.3169e-05
5.230812e-05
5.138675e-05
5.040217e-05
4.933184e-05
5.480993e-05
5.396513e-05
5.316722e-05
5.23125e-05
5.139422e-05
5.040424e-05
4.933421e-05
5.48061e-05
5.396252e-05
5.316602e-05
5.231807e-05
5.139961e-05
5.040606e-05
4.933674e-05
5.480264e-05
5.396005e-05
5.316463e-05
5.231831e-05
5.140066e-05
5.04077e-05
4.933938e-05
5.479937e-05
5.395795e-05
5.316348e-05
5.23184e-05
5.140169e-05
5.040949e-05
4.934218e-05
5.479622e-05
5.395596e-05
5.316257e-05
5.231858e-05
5.140303e-05
5.041194e-05
4.934507e-05
5.479306e-05
5.395419e-05
5.316192e-05
5.231957e-05
5.141218e-05
5.042501e-05
4.93493e-05
5.478991e-05
5.395227e-05
5.316127e-05
5.232072e-05
5.142255e-05
5.043482e-05
4.935363e-05
5.47864e-05
5.395028e-05
5.316041e-05
5.232112e-05
5.142542e-05
5.043838e-05
4.935745e-05
5.478268e-05
5.394818e-05
5.315961e-05
5.232179e-05
5.142749e-05
5.044221e-05
4.936243e-05
5.477852e-05
5.394569e-05
5.31586e-05
5.232243e-05
5.143067e-05
5.045667e-05
4.938253e-05
5.477378e-05
5.394289e-05
5.315725e-05
5.232301e-05
5.143387e-05
5.047247e-05
4.93975e-05
5.476845e-05
5.393955e-05
5.31557e-05
5.232337e-05
5.143619e-05
5.047854e-05
4.940454e-05
5.476209e-05
5.393547e-05
5.315356e-05
5.232339e-05
5.143841e-05
5.048326e-05
4.941185e-05
5.475489e-05
5.393075e-05
5.315081e-05
5.232296e-05
5.144068e-05
5.048893e-05
4.943408e-05
5.474658e-05
5.392501e-05
5.314726e-05
5.232203e-05
5.14426e-05
5.049461e-05
4.945743e-05
5.473919e-05
5.392071e-05
5.314357e-05
5.232048e-05
5.144377e-05
5.049855e-05
4.94671e-05
5.473033e-05
5.391443e-05
5.313836e-05
5.231806e-05
5.144439e-05
5.050211e-05
4.947516e-05
5.471818e-05
5.390951e-05
5.313876e-05
5.231588e-05
5.144416e-05
5.050504e-05
4.948244e-05
5.470413e-05
5.390375e-05
5.314196e-05
5.232312e-05
5.144503e-05
5.050755e-05
4.948735e-05
5.468852e-05
5.389449e-05
5.31428e-05
5.232465e-05
5.144519e-05
5.050992e-05
4.949182e-05
5.467213e-05
5.388456e-05
5.31395e-05
5.233347e-05
5.146068e-05
5.051519e-05
4.949658e-05
5.465561e-05
5.387615e-05
5.313752e-05
5.234596e-05
5.148635e-05
5.054252e-05
4.950594e-05
5.464049e-05
5.387118e-05
5.31395e-05
5.235662e-05
5.151288e-05
5.056278e-05
4.951887e-05
5.462958e-05
5.387266e-05
5.314922e-05
5.237223e-05
5.153599e-05
5.060667e-05
4.956751e-05
5.462587e-05
5.388394e-05
5.317016e-05
5.240182e-05
5.1576e-05
5.06724e-05
4.962655e-05
5.463599e-05
5.391491e-05
5.321402e-05
5.24679e-05
5.167022e-05
5.080137e-05
4.97788e-05
5.466501e-05
5.398372e-05
5.332943e-05
5.262622e-05
5.190056e-05
5.109387e-05
5.010986e-05
5.473503e-05
5.412785e-05
5.358439e-05
5.302759e-05
5.241695e-05
5.17522e-05
5.108218e-05
5.488775e-05
5.444102e-05
5.409866e-05
5.377134e-05
5.345061e-05
5.316789e-05
5.279652e-05
5.520525e-05
5.500361e-05
5.495764e-05
5.493274e-05
5.505693e-05
5.506538e-05
5.455214e-05
5.578605e-05
5.589172e-05
5.612653e-05
5.654774e-05
5.677952e-05
5.666785e-05
5.642914e-05
5.672031e-05
5.702144e-05
5.75666e-05
5.825805e-05
5.829326e-05
5.816284e-05
5.810968e-05
5.803028e-05
5.823806e-05
5.901423e-05
5.956044e-05
5.980811e-05
5.974697e-05
5.970036e-05
5.954668e-05
5.954972e-05
6.039125e-05
6.067752e-05
6.121037e-05
6.121305e-05
6.163835e-05
6.111519e-05
6.085924e-05
6.155024e-05
6.189265e-05
6.23856e-05
6.267154e-05
6.324205e-05
6.262095e-05
6.204772e-05
6.259833e-05
6.297698e-05
6.360563e-05
6.409429e-05
6.435648e-05
6.406328e-05
6.327127e-05
6.348651e-05
6.382269e-05
6.452465e-05
6.505852e-05
6.556625e-05
6.535974e-05
6.436072e-05
6.450073e-05
6.486129e-05
6.550361e-05
6.589429e-05
6.652165e-05
6.636727e-05
6.521235e-05
6.523297e-05
6.530947e-05
6.589293e-05
6.621332e-05
6.690008e-05
6.704433e-05
6.581214e-05
6.576318e-05
6.57217e-05
6.617123e-05
6.644886e-05
6.67566e-05
6.749129e-05
6.623468e-05
6.613213e-05
6.600654e-05
6.634743e-05
6.661882e-05
6.67518e-05
6.77649e-05
6.647698e-05
6.634761e-05
6.616072e-05
6.642125e-05
6.664865e-05
6.664506e-05
6.768084e-05
6.638126e-05
6.623681e-05
6.602723e-05
6.626254e-05
6.646306e-05
6.644448e-05
6.732162e-05
6.609335e-05
6.598908e-05
6.583605e-05
6.613267e-05
6.633498e-05
6.639964e-05
6.67741e-05
6.561313e-05
6.557478e-05
6.549447e-05
6.586207e-05
6.603212e-05
6.619134e-05
6.592159e-05
6.485714e-05
6.488283e-05
6.487159e-05
6.529394e-05
6.5442e-05
6.596234e-05
6.474407e-05
6.38642e-05
6.395924e-05
6.414437e-05
6.46127e-05
6.485711e-05
6.529372e-05
6.333265e-05
6.270742e-05
6.299064e-05
6.324164e-05
6.37047e-05
6.396875e-05
6.416262e-05
6.182953e-05
6.147827e-05
6.204457e-05
6.224849e-05
6.258396e-05
6.276079e-05
6.268713e-05
6.030961e-05
6.02304e-05
6.092885e-05
6.110336e-05
6.129096e-05
6.123324e-05
6.155504e-05
5.884513e-05
5.889174e-05
5.971606e-05
5.987197e-05
6.016225e-05
5.991399e-05
5.999468e-05
5.753381e-05
5.759068e-05
5.828898e-05
5.877194e-05
5.884244e-05
5.844464e-05
5.8032e-05
5.647991e-05
5.652094e-05
5.684177e-05
5.741801e-05
5.733505e-05
5.69873e-05
5.668711e-05
5.572842e-05
5.564073e-05
5.558763e-05
5.5731e-05
5.582702e-05
5.560466e-05
5.517763e-05
5.521763e-05
5.494897e-05
5.472101e-05
5.442249e-05
5.425058e-05
5.408141e-05
5.334295e-05
5.490897e-05
5.445338e-05
5.406129e-05
5.360217e-05
5.305691e-05
5.248638e-05
5.18375e-05
5.474855e-05
5.414471e-05
5.35996e-05
5.301941e-05
5.234799e-05
5.154372e-05
5.066126e-05
5.467109e-05
5.399489e-05
5.33473e-05
5.264914e-05
5.191303e-05
5.108055e-05
5.006025e-05
5.463846e-05
5.392341e-05
5.32296e-05
5.248514e-05
5.168538e-05
5.080992e-05
4.978699e-05
5.462686e-05
5.389137e-05
5.318226e-05
5.241275e-05
5.158413e-05
5.068248e-05
4.963628e-05
5.462941e-05
5.387845e-05
5.315857e-05
5.238258e-05
5.15438e-05
5.061532e-05
4.957813e-05
5.463983e-05
5.387503e-05
5.314619e-05
5.23631e-05
5.151358e-05
5.056908e-05
4.952952e-05
5.465442e-05
5.387858e-05
5.314164e-05
5.235237e-05
5.148755e-05
5.054214e-05
4.951629e-05
5.467059e-05
5.38865e-05
5.314351e-05
5.233976e-05
5.146886e-05
5.052471e-05
4.950784e-05
5.468682e-05
5.389566e-05
5.31464e-05
5.233033e-05
5.145269e-05
5.051899e-05
4.950209e-05
5.470245e-05
5.390497e-05
5.314544e-05
5.232832e-05
5.145182e-05
5.051559e-05
4.949642e-05
5.471715e-05
5.391068e-05
5.314183e-05
5.232034e-05
5.14501e-05
5.051216e-05
4.949007e-05
5.47296e-05
5.391567e-05
5.314095e-05
5.232217e-05
5.144957e-05
5.050817e-05
4.948171e-05
5.473862e-05
5.392183e-05
5.314595e-05
5.232395e-05
5.14483e-05
5.050363e-05
4.947263e-05
5.474617e-05
5.392604e-05
5.314932e-05
5.232498e-05
5.144633e-05
5.049885e-05
4.946211e-05
5.475459e-05
5.393173e-05
5.315256e-05
5.232559e-05
5.144377e-05
5.049248e-05
4.94377e-05
5.476195e-05
5.393635e-05
5.315507e-05
5.232548e-05
5.144107e-05
5.048632e-05
4.941502e-05
5.476841e-05
5.394035e-05
5.315706e-05
5.232502e-05
5.143839e-05
5.04811e-05
4.940717e-05
5.47737e-05
5.394343e-05
5.315832e-05
5.23243e-05
5.143567e-05
5.047459e-05
4.939971e-05
5.477845e-05
5.394607e-05
5.315931e-05
5.232371e-05
5.143221e-05
5.045819e-05
4.93842e-05
5.478253e-05
5.394853e-05
5.316022e-05
5.232282e-05
5.142882e-05
5.044381e-05
4.9364e-05
5.478625e-05
5.395047e-05
5.316093e-05
5.232196e-05
5.142661e-05
5.043961e-05
4.935888e-05
5.478956e-05
5.395236e-05
5.316167e-05
5.232127e-05
5.142334e-05
5.043584e-05
4.93548e-05
5.479261e-05
5.395412e-05
5.316205e-05
5.231981e-05
5.14125e-05
5.04256e-05
4.935011e-05
5.479557e-05
5.395572e-05
5.316249e-05
5.231855e-05
5.140325e-05
5.041235e-05
4.934561e-05
5.479843e-05
5.395739e-05
5.316303e-05
5.231824e-05
5.140179e-05
5.040972e-05
4.934266e-05
5.480132e-05
5.39591e-05
5.316389e-05
5.231795e-05
5.140062e-05
5.040796e-05
4.93399e-05
5.48044e-05
5.396113e-05
5.316501e-05
5.231743e-05
5.139944e-05
5.040628e-05
4.933716e-05
5.480764e-05
5.396319e-05
5.316581e-05
5.23115e-05
5.139377e-05
5.04043e-05
4.933452e-05
5.481123e-05
5.396573e-05
5.316706e-05
5.230697e-05
5.138623e-05
5.040214e-05
4.933221e-05
5.48156e-05
5.396886e-05
5.316909e-05
5.230778e-05
5.138589e-05
5.040092e-05
4.932991e-05
5.48208e-05
5.397302e-05
5.317177e-05
5.230901e-05
5.138595e-05
5.039977e-05
4.932769e-05
5.482756e-05
5.397803e-05
5.317496e-05
5.231045e-05
5.138594e-05
5.03984e-05
4.932522e-05
5.483619e-05
5.398435e-05
5.317878e-05
5.231193e-05
5.138564e-05
5.039658e-05
4.932218e-05
5.484739e-05
5.399251e-05
5.318319e-05
5.231317e-05
5.138472e-05
5.039392e-05
4.931834e-05
5.486266e-05
5.400324e-05
5.318766e-05
5.231351e-05
5.138247e-05
5.038961e-05
4.931295e-05
5.488438e-05
5.40165e-05
5.318778e-05
5.23089e-05
5.137714e-05
5.038276e-05
4.930508e-05
5.491584e-05
5.403167e-05
5.318565e-05
5.229846e-05
5.136674e-05
5.037204e-05
4.92785e-05
5.496039e-05
5.404439e-05
5.317832e-05
5.228319e-05
5.135053e-05
5.034151e-05
4.924708e-05
5.500579e-05
5.404075e-05
5.315186e-05
5.225508e-05
5.130998e-05
5.030353e-05
4.921263e-05
5.495765e-05
5.398604e-05
5.309693e-05
5.219112e-05
5.125584e-05
5.025989e-05
4.917529e-05
5.393249e-05
5.383097e-05
5.298117e-05
5.209994e-05
5.119105e-05
5.021226e-05
4.913695e-05
3.687602e-05
5.198995e-05
5.284681e-05
5.199163e-05
5.111495e-05
5.016239e-05
4.909922e-05
4.789574e-05
4.646383e-05
4.467017e-05
4.307699e-05
4.04824e-05
3.693052e-05
3.060497e-05
4.792228e-05
4.649543e-05
4.470746e-05
4.311751e-05
4.052715e-05
3.698342e-05
3.082565e-05
4.79539e-05
4.652896e-05
4.474779e-05
4.258726e-05
4.056998e-05
3.703462e-05
3.094885e-05
4.798753e-05
4.656328e-05
4.478411e-05
4.32047e-05
4.061485e-05
3.708582e-05
3.106173e-05
4.802086e-05
4.659817e-05
4.482323e-05
4.325034e-05
4.065964e-05
3.713677e-05
3.114302e-05
4.805333e-05
4.663306e-05
4.486266e-05
4.329417e-05
4.070365e-05
3.718729e-05
3.122078e-05
4.808429e-05
4.666715e-05
4.490149e-05
4.333598e-05
4.071532e-05
3.723754e-05
3.129542e-05
4.811163e-05
4.670039e-05
4.493963e-05
4.337686e-05
4.072655e-05
3.728728e-05
3.136759e-05
4.811979e-05
4.673051e-05
4.497574e-05
4.341806e-05
4.076156e-05
3.73318e-05
3.143776e-05
4.812577e-05
4.673858e-05
4.500901e-05
4.345893e-05
4.079595e-05
3.737627e-05
3.150592e-05
4.813056e-05
4.674446e-05
4.501756e-05
4.34985e-05
4.083029e-05
3.742071e-05
3.157198e-05
4.813478e-05
4.674994e-05
4.502399e-05
4.350613e-05
4.086486e-05
3.746527e-05
3.163779e-05
4.813851e-05
4.675511e-05
4.503045e-05
4.351308e-05
4.08697e-05
3.751099e-05
3.170123e-05
4.814213e-05
4.67602e-05
4.503701e-05
4.35204e-05
4.087535e-05
3.751811e-05
3.175989e-05
4.814571e-05
4.676552e-05
4.504381e-05
4.352792e-05
4.088144e-05
3.752699e-05
3.17341e-05
4.814948e-05
4.677102e-05
4.505081e-05
4.353584e-05
4.088814e-05
3.753668e-05
3.171819e-05
4.815333e-05
4.677675e-05
4.505804e-05
4.354446e-05
4.089825e-05
3.754685e-05
3.170751e-05
4.815739e-05
4.678256e-05
4.506593e-05
4.355786e-05
4.100275e-05
3.755795e-05
3.168673e-05
4.816164e-05
4.678843e-05
4.507408e-05
4.356751e-05
4.101784e-05
3.75693e-05
3.166856e-05
4.816628e-05
4.679474e-05
4.508272e-05
4.35776e-05
4.102887e-05
3.758131e-05
3.164588e-05
4.817118e-05
4.680143e-05
4.50917e-05
4.358838e-05
4.104047e-05
3.759393e-05
3.16111e-05
4.817661e-05
4.680855e-05
4.510099e-05
4.360011e-05
4.105278e-05
3.760734e-05
3.158381e-05
4.818223e-05
4.681627e-05
4.511129e-05
4.361032e-05
4.106856e-05
3.762138e-05
3.1554e-05
4.818993e-05
4.682473e-05
4.512302e-05
4.307511e-05
4.117327e-05
3.764478e-05
3.152308e-05
4.819777e-05
4.683352e-05
4.51347e-05
4.362858e-05
4.12241e-05
3.766358e-05
3.149039e-05
4.820497e-05
4.684276e-05
4.514696e-05
4.365426e-05
4.124404e-05
3.768085e-05
3.145448e-05
4.821432e-05
4.685386e-05
4.516126e-05
4.367132e-05
4.126415e-05
3.770098e-05
3.14106e-05
4.824523e-05
4.686648e-05
4.517526e-05
4.368839e-05
4.129157e-05
3.78844e-05
3.136431e-05
4.826525e-05
4.723791e-05
4.562769e-05
4.37017e-05
4.131688e-05
3.795294e-05
3.132314e-05
4.8277e-05
4.725591e-05
4.565353e-05
4.37212e-05
4.134022e-05
3.797867e-05
3.127692e-05
4.83185e-05
4.730168e-05
4.566872e-05
4.374047e-05
4.136469e-05
3.811673e-05
3.123653e-05
4.834201e-05
4.734039e-05
4.568383e-05
4.376088e-05
4.139108e-05
3.826185e-05
3.119506e-05
4.835454e-05
4.740271e-05
4.570485e-05
4.378158e-05
4.141834e-05
3.830206e-05
3.116068e-05
4.836163e-05
4.742347e-05
4.576771e-05
4.380155e-05
4.144554e-05
3.835153e-05
3.166889e-05
4.836801e-05
4.743358e-05
4.583009e-05
4.382264e-05
4.147166e-05
3.839429e-05
3.174509e-05
4.837512e-05
4.744157e-05
4.591627e-05
4.385255e-05
4.149067e-05
3.842707e-05
3.424931e-05
4.838427e-05
4.744985e-05
4.593548e-05
4.394471e-05
4.149039e-05
3.844962e-05
3.269441e-05
4.840297e-05
4.745986e-05
4.595386e-05
4.402043e-05
4.143921e-05
3.8355e-05
3.376551e-05
4.843561e-05
4.746637e-05
4.593934e-05
4.398529e-05
4.129633e-05
3.792173e-05
3.407879e-05
4.85018e-05
4.742132e-05
4.580403e-05
4.379465e-05
4.127416e-05
3.775489e-05
3.315333e-05
4.88377e-05
4.758254e-05
4.611742e-05
4.471664e-05
4.261196e-05
3.908006e-05
3.351037e-05
5.01598e-05
4.901337e-05
4.851797e-05
4.699992e-05
4.438129e-05
4.141671e-05
3.510596e-05
5.211787e-05
5.081396e-05
5.046337e-05
4.895936e-05
4.625191e-05
4.215972e-05
3.546667e-05
5.375828e-05
5.221062e-05
5.220477e-05
5.081441e-05
4.812508e-05
4.294362e-05
3.635311e-05
5.553513e-05
5.400309e-05
5.419983e-05
5.239991e-05
4.933351e-05
4.460524e-05
3.828205e-05
5.744714e-05
5.559776e-05
5.611691e-05
5.422809e-05
5.092457e-05
4.704141e-05
3.979301e-05
5.964731e-05
5.779652e-05
5.815812e-05
5.581981e-05
5.343014e-05
4.801612e-05
4.258181e-05
6.115113e-05
5.9658e-05
5.928651e-05
5.758682e-05
5.408449e-05
5.024369e-05
4.341702e-05
6.318475e-05
6.124803e-05
6.095176e-05
5.87799e-05
5.503194e-05
5.008617e-05
4.408181e-05
6.468027e-05
6.320977e-05
6.238465e-05
5.963406e-05
5.613875e-05
5.114218e-05
4.541953e-05
6.579347e-05
6.448413e-05
6.353801e-05
6.057991e-05
5.640623e-05
5.149261e-05
4.589507e-05
6.661336e-05
6.569627e-05
6.410445e-05
6.156407e-05
5.800898e-05
5.289687e-05
4.682564e-05
6.684928e-05
6.646266e-05
6.430652e-05
6.178619e-05
5.85751e-05
5.388984e-05
4.775696e-05
6.707856e-05
6.652007e-05
6.440792e-05
6.146588e-05
5.827737e-05
5.361052e-05
4.588818e-05
6.710834e-05
6.652103e-05
6.406494e-05
6.094163e-05
5.777513e-05
5.618216e-05
5.236633e-05
6.698947e-05
6.625285e-05
6.355881e-05
6.045157e-05
5.714891e-05
5.374875e-05
6.673616e-05
6.597198e-05
6.324913e-05
6.00917e-05
5.664219e-05
5.324377e-05
6.661195e-05
6.613553e-05
6.316607e-05
5.976273e-05
5.650355e-05
5.257472e-05
6.631209e-05
6.596431e-05
6.284285e-05
6.014125e-05
5.685919e-05
5.34475e-05
4.804009e-05
6.575251e-05
6.567332e-05
6.269678e-05
5.981792e-05
5.698775e-05
5.212093e-05
4.572867e-05
6.515653e-05
6.537299e-05
6.218715e-05
5.910137e-05
5.580322e-05
5.155603e-05
4.537804e-05
6.411783e-05
6.472765e-05
6.146341e-05
5.888329e-05
5.549456e-05
5.07916e-05
4.536781e-05
6.284869e-05
6.360723e-05
6.058427e-05
5.79658e-05
5.47956e-05
4.985944e-05
4.479369e-05
6.13404e-05
6.220479e-05
5.946935e-05
5.726968e-05
5.305256e-05
4.917344e-05
4.423154e-05
5.925297e-05
6.053668e-05
5.808682e-05
5.521425e-05
5.263608e-05
4.754451e-05
3.977522e-05
5.770691e-05
5.868238e-05
5.606446e-05
5.454035e-05
5.078464e-05
4.662057e-05
3.960841e-05
5.588336e-05
5.657718e-05
5.501261e-05
5.227864e-05
4.974609e-05
4.419438e-05
3.721942e-05
5.409119e-05
5.467649e-05
5.268242e-05
5.114389e-05
4.734125e-05
4.298312e-05
3.551904e-05
5.259691e-05
5.26842e-05
5.080853e-05
4.883641e-05
4.610602e-05
4.181842e-05
3.615541e-05
5.082496e-05
5.083439e-05
4.951047e-05
4.727352e-05
4.444802e-05
4.000244e-05
3.424524e-05
4.942337e-05
4.878174e-05
4.793401e-05
4.6233e-05
4.335625e-05
3.976372e-05
3.451092e-05
4.870764e-05
4.752584e-05
4.582122e-05
4.438219e-05
4.208236e-05
3.910776e-05
3.344741e-05
4.851862e-05
4.74065e-05
4.563822e-05
4.335515e-05
4.100333e-05
3.780122e-05
3.232974e-05
4.845033e-05
4.745695e-05
4.586851e-05
4.380439e-05
4.099831e-05
3.753175e-05
3.382006e-05
4.841516e-05
4.745967e-05
4.595478e-05
4.402093e-05
4.128656e-05
3.812371e-05
3.453885e-05
4.839687e-05
4.744623e-05
4.595097e-05
4.396796e-05
4.14762e-05
3.848195e-05
3.346477e-05
4.838797e-05
4.743629e-05
4.593639e-05
4.391767e-05
4.149578e-05
3.84459e-05
3.281179e-05
4.838032e-05
4.742777e-05
4.589348e-05
4.384167e-05
4.148581e-05
3.84133e-05
3.182736e-05
4.837273e-05
4.741826e-05
4.58055e-05
4.381756e-05
4.14624e-05
3.837047e-05
3.164844e-05
4.836433e-05
4.740534e-05
4.57264e-05
4.379707e-05
4.143496e-05
3.83265e-05
3.149817e-05
4.835064e-05
4.736151e-05
4.570137e-05
4.377552e-05
4.140686e-05
3.828109e-05
3.113926e-05
4.832542e-05
4.731546e-05
4.568162e-05
4.3754e-05
4.137947e-05
3.822238e-05
3.118887e-05
4.82829e-05
4.725795e-05
4.566524e-05
4.373337e-05
4.135346e-05
3.800097e-05
3.122943e-05
4.827003e-05
4.724129e-05
4.564796e-05
4.371437e-05
4.13295e-05
3.796535e-05
3.128138e-05
4.824865e-05
4.686944e-05
4.517774e-05
4.368952e-05
4.130583e-05
3.793844e-05
3.132822e-05
4.82175e-05
4.68568e-05
4.516386e-05
4.367365e-05
4.127775e-05
3.777228e-05
3.137549e-05
4.820764e-05
4.684536e-05
4.514976e-05
4.365797e-05
4.125474e-05
3.769059e-05
3.142368e-05
4.820004e-05
4.683572e-05
4.513694e-05
4.364316e-05
4.123476e-05
3.767261e-05
3.146328e-05
4.81918e-05
4.68265e-05
4.512473e-05
4.362904e-05
4.121253e-05
3.765594e-05
3.150267e-05
4.818382e-05
4.681803e-05
4.51135e-05
4.361533e-05
4.110407e-05
3.763263e-05
3.153566e-05
4.817802e-05
4.681014e-05
4.510287e-05
4.360259e-05
4.105973e-05
3.761495e-05
3.156787e-05
4.817248e-05
4.680264e-05
4.509297e-05
4.359094e-05
4.104716e-05
3.760134e-05
3.160008e-05
4.816728e-05
4.679577e-05
4.508376e-05
4.357981e-05
4.103512e-05
3.758842e-05
3.162797e-05
4.81624e-05
4.678938e-05
4.507497e-05
4.356947e-05
4.10239e-05
3.757608e-05
3.16549e-05
4.815806e-05
4.678335e-05
4.506684e-05
4.355956e-05
4.10133e-05
3.756441e-05
3.167732e-05
4.815389e-05
4.677741e-05
4.50589e-05
4.35477e-05
4.095912e-05
3.755303e-05
3.169595e-05
4.814998e-05
4.677163e-05
4.505153e-05
4.353692e-05
4.089215e-05
3.754235e-05
3.171381e-05
4.814628e-05
4.676623e-05
4.504458e-05
4.352837e-05
4.088531e-05
3.753226e-05
3.173069e-05
4.814283e-05
4.676108e-05
4.503792e-05
4.35201e-05
4.087882e-05
3.752278e-05
3.174187e-05
4.813943e-05
4.675619e-05
4.503147e-05
4.351233e-05
4.087295e-05
3.751409e-05
3.172213e-05
4.813607e-05
4.675133e-05
4.50253e-05
4.350466e-05
4.086736e-05
3.74877e-05
3.165859e-05
4.813248e-05
4.674629e-05
4.501918e-05
4.349712e-05
4.08479e-05
3.7443e-05
3.159307e-05
4.812854e-05
4.674104e-05
4.501096e-05
4.347325e-05
4.081377e-05
3.739834e-05
3.152534e-05
4.81237e-05
4.67338e-05
4.497824e-05
4.34323e-05
4.077947e-05
3.735381e-05
3.145746e-05
4.811697e-05
4.670479e-05
4.494294e-05
4.339082e-05
4.074512e-05
3.730916e-05
3.138798e-05
4.809152e-05
4.667272e-05
4.490555e-05
4.334888e-05
4.071215e-05
3.72621e-05
3.13168e-05
4.806253e-05
4.663974e-05
4.486735e-05
4.330887e-05
4.072495e-05
3.721197e-05
3.124374e-05
4.803183e-05
4.660562e-05
4.482849e-05
4.326618e-05
4.068237e-05
3.716159e-05
3.116841e-05
4.799934e-05
4.657058e-05
4.478913e-05
4.322357e-05
4.063829e-05
3.711102e-05
3.109015e-05
4.796515e-05
4.653507e-05
4.474957e-05
4.31809e-05
4.059392e-05
3.70601e-05
3.09977e-05
4.793097e-05
4.650004e-05
4.471019e-05
4.3139e-05
4.054932e-05
3.700886e-05
3.087791e-05
4.789749e-05
4.646462e-05
4.467084e-05
4.30977e-05
4.050462e-05
3.695701e-05
3.071558e-05
1.01152e-06
1e-06
1e-06
1e-06
1e-06
1e-06
1e-06
1e-06
1e-06
1e-06
1e-06
1e-06
1e-06
1e-06
1e-06
1e-06
1e-06
1e-06
1.028911e-06
1e-06
1e-06
1e-06
1e-06
1e-06
1e-06
1e-06
1e-06
1e-06
1e-06
1e-06
1e-06
1e-06
1e-06
1e-06
1e-06
1e-06
1.031306e-06
1e-06
1e-06
1e-06
1e-06
1e-06
1e-06
1e-06
1e-06
1e-06
1e-06
1e-06
1e-06
1e-06
1e-06
1e-06
1e-06
1e-06
1.033565e-06
1e-06
1e-06
1e-06
1e-06
1e-06
1e-06
1e-06
1e-06
1e-06
1e-06
1e-06
1e-06
1e-06
1e-06
1e-06
1e-06
1e-06
1.036468e-06
1e-06
1e-06
1e-06
1e-06
1e-06
1e-06
1e-06
1e-06
1e-06
1e-06
1e-06
1e-06
1e-06
1e-06
1e-06
1e-06
1e-06
1.039984e-06
1e-06
1e-06
1e-06
1e-06
1e-06
1e-06
1e-06
1e-06
1e-06
1e-06
1e-06
1e-06
1e-06
1e-06
1e-06
1e-06
1e-06
1.044056e-06
1e-06
1e-06
1e-06
1e-06
1e-06
1e-06
1e-06
1e-06
1e-06
1e-06
1e-06
1e-06
1e-06
1e-06
1e-06
1e-06
1e-06
1.048638e-06
1e-06
1e-06
1e-06
1e-06
1e-06
1e-06
1e-06
1e-06
1e-06
1e-06
1e-06
1e-06
1e-06
1e-06
1e-06
1e-06
1e-06
1.053692e-06
1e-06
1e-06
1e-06
1e-06
1e-06
1e-06
1e-06
1e-06
1e-06
1e-06
1e-06
1e-06
1e-06
1e-06
1e-06
1e-06
1e-06
1.059174e-06
1e-06
1e-06
1e-06
1e-06
1e-06
1e-06
1e-06
1e-06
1e-06
1e-06
1e-06
1e-06
1e-06
1e-06
1e-06
1e-06
1e-06
1.065093e-06
1e-06
1e-06
1e-06
1e-06
1e-06
1e-06
1e-06
1e-06
1e-06
1e-06
1e-06
1e-06
1e-06
1e-06
1e-06
1e-06
1e-06
1.068108e-06
1e-06
1e-06
1e-06
1e-06
1e-06
1e-06
1e-06
1e-06
1e-06
1e-06
1e-06
1e-06
1e-06
1e-06
1e-06
1e-06
1e-06
1.070797e-06
1e-06
1e-06
1e-06
1e-06
1e-06
1e-06
1e-06
1e-06
1e-06
1e-06
1e-06
1e-06
1e-06
1e-06
1e-06
1e-06
1e-06
1.076213e-06
1e-06
1e-06
1e-06
1e-06
1e-06
1e-06
1e-06
1e-06
1e-06
1e-06
1e-06
1e-06
1e-06
1e-06
1e-06
1e-06
1e-06
1.092564e-06
1e-06
1e-06
1e-06
1e-06
1e-06
1e-06
1e-06
1e-06
1e-06
1e-06
1e-06
1e-06
1e-06
1e-06
1e-06
1e-06
1e-06
1.096477e-06
1e-06
1e-06
1e-06
1e-06
1e-06
1e-06
1e-06
1e-06
1e-06
1e-06
1e-06
1e-06
1e-06
1e-06
1e-06
1e-06
1e-06
1.10213e-06
1e-06
1e-06
1e-06
1e-06
1e-06
1e-06
1e-06
1e-06
1e-06
1e-06
1e-06
1e-06
1e-06
1e-06
1e-06
1e-06
1e-06
1.108724e-06
1e-06
1e-06
1e-06
1e-06
1e-06
1e-06
1e-06
1e-06
1e-06
1e-06
1e-06
1e-06
1e-06
1e-06
1e-06
1e-06
1e-06
1.11588e-06
1e-06
1e-06
1e-06
1e-06
1e-06
1e-06
1e-06
1e-06
1e-06
1e-06
1e-06
1e-06
1e-06
1e-06
1e-06
1e-06
1e-06
1.122939e-06
1e-06
1e-06
1e-06
1e-06
1e-06
1e-06
1e-06
1e-06
1e-06
1e-06
1e-06
1e-06
1e-06
1e-06
1e-06
1e-06
1e-06
1.129858e-06
1e-06
1e-06
1e-06
1e-06
1e-06
1e-06
1e-06
1e-06
1e-06
1e-06
1e-06
1e-06
1e-06
1e-06
1e-06
1e-06
1e-06
1.136982e-06
1e-06
1e-06
1e-06
1e-06
1e-06
1e-06
1e-06
1e-06
1e-06
1e-06
1e-06
1e-06
1e-06
1e-06
1e-06
1e-06
1e-06
1.144537e-06
1e-06
1e-06
1e-06
1e-06
1e-06
1e-06
1e-06
1e-06
1e-06
1e-06
1e-06
1e-06
1e-06
1e-06
1e-06
1e-06
1e-06
1.152495e-06
1e-06
1e-06
1e-06
1e-06
1e-06
1e-06
1e-06
1e-06
1e-06
1e-06
1e-06
1e-06
1e-06
1e-06
1e-06
1e-06
1e-06
1.16116e-06
1e-06
1e-06
1e-06
1e-06
1e-06
1e-06
1e-06
1e-06
1e-06
1e-06
1e-06
1e-06
1e-06
1e-06
1e-06
1e-06
1e-06
1.1701e-06
1e-06
1e-06
1e-06
1e-06
1e-06
1e-06
1e-06
1e-06
1e-06
1e-06
1e-06
1e-06
1e-06
1e-06
1e-06
1e-06
1e-06
1.179759e-06
1e-06
1e-06
1e-06
1e-06
1e-06
1e-06
1e-06
1e-06
1e-06
1e-06
1e-06
1e-06
1e-06
1e-06
1e-06
1e-06
1e-06
1.190131e-06
1e-06
1e-06
1e-06
1e-06
1e-06
1e-06
1e-06
1e-06
1e-06
1e-06
1e-06
1e-06
1e-06
1e-06
1e-06
1e-06
1e-06
1.201037e-06
1e-06
1e-06
1e-06
1e-06
1e-06
1e-06
1e-06
1e-06
1e-06
1e-06
1e-06
1e-06
1e-06
1e-06
1e-06
1e-06
1e-06
1.212994e-06
1e-06
1e-06
1e-06
1e-06
1e-06
1e-06
1e-06
1e-06
1e-06
1e-06
1e-06
1e-06
1e-06
1e-06
1e-06
1e-06
1e-06
1.225643e-06
1e-06
1e-06
1e-06
1e-06
1e-06
1e-06
1e-06
1e-06
1e-06
1e-06
1e-06
1e-06
1e-06
1e-06
1e-06
1e-06
1e-06
1.239119e-06
1e-06
1e-06
1e-06
1e-06
1e-06
1e-06
1e-06
1e-06
1e-06
1e-06
1e-06
1e-06
1e-06
1e-06
1e-06
1e-06
1e-06
1.253838e-06
1e-06
1e-06
1e-06
1e-06
1e-06
1e-06
1e-06
1e-06
1e-06
1e-06
1e-06
1e-06
1e-06
1e-06
1e-06
1e-06
1e-06
1.271083e-06
1e-06
1e-06
1e-06
1e-06
1e-06
1e-06
1e-06
1e-06
1e-06
1e-06
1e-06
1e-06
1e-06
1e-06
1e-06
1e-06
1e-06
1.330399e-06
1e-06
1e-06
1e-06
1e-06
1e-06
1e-06
1e-06
1e-06
1e-06
1e-06
1e-06
1e-06
1e-06
1e-06
1e-06
1e-06
1e-06
1.361169e-06
1.000001e-06
1e-06
1e-06
1e-06
1e-06
1e-06
1e-06
1e-06
1e-06
1e-06
1e-06
1e-06
1e-06
1e-06
1e-06
1e-06
1e-06
1.41477e-06
1e-06
1e-06
1e-06
1e-06
1e-06
1e-06
1e-06
1e-06
1e-06
1e-06
1e-06
1e-06
1e-06
1e-06
1e-06
1e-06
1e-06
2.074929e-06
1e-06
1e-06
1e-06
1e-06
1e-06
1e-06
1e-06
1e-06
1e-06
1e-06
1e-06
1e-06
1e-06
1e-06
1e-06
1e-06
1e-06
3.984215e-06
1e-06
1e-06
1e-06
1e-06
1e-06
1e-06
1e-06
1e-06
1e-06
1e-06
1e-06
1e-06
1e-06
1e-06
1e-06
1e-06
1e-06
8.159674e-06
1.000039e-06
1e-06
1e-06
1e-06
1e-06
1e-06
1e-06
1e-06
1e-06
1e-06
1e-06
1e-06
1e-06
1e-06
1e-06
1e-06
1e-06
1.514399e-05
1.001443e-06
1e-06
1e-06
1e-06
1e-06
1e-06
1e-06
1e-06
1e-06
1e-06
1e-06
1e-06
1e-06
1e-06
1e-06
1e-06
1e-06
1.902424e-05
1.00001e-06
1e-06
1e-06
1e-06
1e-06
1e-06
1e-06
1e-06
1e-06
1e-06
1e-06
1e-06
1e-06
1e-06
1e-06
1e-06
1e-06
2.099978e-05
1e-06
1e-06
1e-06
1e-06
1e-06
1e-06
1e-06
1e-06
1e-06
1e-06
1e-06
1e-06
1e-06
1e-06
1e-06
1e-06
1e-06
2.508139e-05
1.000665e-06
1e-06
1e-06
1e-06
1e-06
1e-06
1e-06
1e-06
1e-06
1e-06
1e-06
1e-06
1e-06
1e-06
1e-06
1e-06
1e-06
2.963191e-05
1.003809e-06
1e-06
1e-06
1e-06
1e-06
1e-06
1e-06
1e-06
1e-06
1e-06
1e-06
1e-06
1e-06
1e-06
1e-06
1e-06
1e-06
3.199444e-05
1.00749e-06
1e-06
1e-06
1e-06
1e-06
1e-06
1e-06
1e-06
1e-06
1e-06
1e-06
1e-06
1e-06
1e-06
1e-06
1e-06
1e-06
2.780209e-05
1.01805e-06
1.000006e-06
1e-06
1e-06
1e-06
1e-06
1e-06
1e-06
1e-06
1e-06
1e-06
1e-06
1e-06
1e-06
1e-06
1e-06
1e-06
3.071614e-05
1.179829e-06
1.000233e-06
1e-06
1e-06
1e-06
1e-06
1e-06
1e-06
1e-06
1e-06
1e-06
1e-06
1e-06
1e-06
1e-06
1e-06
1e-06
3.518155e-05
1.701075e-06
1.002555e-06
1.000018e-06
1e-06
1e-06
1e-06
1e-06
1e-06
1e-06
1e-06
1e-06
1e-06
1e-06
1e-06
1e-06
1e-06
1e-06
3.305779e-05
2.78946e-06
1.00795e-06
1.000242e-06
1e-06
1e-06
1e-06
1e-06
1e-06
1e-06
1e-06
1e-06
1e-06
1e-06
3.21895e-05
2.456395e-05
1e-06
1e-06
1e-06
1e-06
1e-06
1e-06
1e-06
1e-06
3.448385e-05
1e-06
1e-06
1e-06
1e-06
1e-06
1e-06
1e-06
1e-06
1e-06
1e-06
1e-06
1e-06
1e-06
1e-06
1e-06
1e-06
1e-06
1e-06
1e-06
1e-06
1e-06
1e-06
1e-06
1e-06
1e-06
1e-06
1e-06
1e-06
1e-06
1e-06
1e-06
1e-06
1e-06
1e-06
1e-06
1e-06
1e-06
1e-06
1e-06
1e-06
1e-06
1e-06
1e-06
1e-06
1e-06
1e-06
1e-06
1e-06
1e-06
3.508845e-05
1e-06
1e-06
1e-06
1e-06
1e-06
1e-06
3.469491e-05
2.427806e-05
1e-06
1e-06
1e-06
1e-06
1e-06
1e-06
1e-06
3.570952e-05
5.853825e-06
1.00472e-06
1e-06
1e-06
1e-06
1e-06
1e-06
1e-06
1e-06
1e-06
1e-06
3.082873e-05
1.947753e-06
1.004888e-06
1.000056e-06
1.000001e-06
1e-06
1e-06
1e-06
1e-06
1e-06
1e-06
1e-06
1e-06
1e-06
1e-06
1e-06
1e-06
1e-06
2.722427e-05
1.417706e-06
1.001167e-06
1.000004e-06
1e-06
1e-06
1e-06
1e-06
1e-06
1e-06
1e-06
1e-06
1e-06
1e-06
1e-06
1e-06
1e-06
1e-06
2.707212e-05
1.126591e-06
1.000121e-06
1e-06
1e-06
1e-06
1e-06
1e-06
1e-06
1e-06
1e-06
1e-06
1e-06
1e-06
1e-06
1e-06
1e-06
1e-06
2.599603e-05
1.02826e-06
1.000001e-06
1e-06
1e-06
1e-06
1e-06
1e-06
1e-06
1e-06
1e-06
1e-06
1e-06
1e-06
1e-06
1e-06
1e-06
1e-06
2.55218e-05
1.014017e-06
1e-06
1e-06
1e-06
1e-06
1e-06
1e-06
1e-06
1e-06
1e-06
1e-06
1e-06
1e-06
1e-06
1e-06
1e-06
1e-06
2.545524e-05
1.007602e-06
1e-06
1e-06
1e-06
1e-06
1e-06
1e-06
1e-06
1e-06
1e-06
1e-06
1e-06
1e-06
1e-06
1e-06
1e-06
1e-06
2.288972e-05
1.003867e-06
1e-06
1e-06
1e-06
1e-06
1e-06
1e-06
1e-06
1e-06
1e-06
1e-06
1e-06
1e-06
1e-06
1e-06
1e-06
1e-06
1.960361e-05
1.001666e-06
1e-06
1e-06
1e-06
1e-06
1e-06
1e-06
1e-06
1e-06
1e-06
1e-06
1e-06
1e-06
1e-06
1e-06
1e-06
1e-06
1.736846e-05
1.002126e-06
1e-06
1e-06
1e-06
1e-06
1e-06
1e-06
1e-06
1e-06
1e-06
1e-06
1e-06
1e-06
1e-06
1e-06
1e-06
1e-06
1.30941e-05
1.001997e-06
1e-06
1e-06
1e-06
1e-06
1e-06
1e-06
1e-06
1e-06
1e-06
1e-06
1e-06
1e-06
1e-06
1e-06
1e-06
1e-06
5.935431e-06
1.000007e-06
1e-06
1e-06
1e-06
1e-06
1e-06
1e-06
1e-06
1e-06
1e-06
1e-06
1e-06
1e-06
1e-06
1e-06
1e-06
1e-06
4.130509e-06
1e-06
1e-06
1e-06
1e-06
1e-06
1e-06
1e-06
1e-06
1e-06
1e-06
1e-06
1e-06
1e-06
1e-06
1e-06
1e-06
1e-06
1.536539e-06
1e-06
1e-06
1e-06
1e-06
1e-06
1e-06
1e-06
1e-06
1e-06
1e-06
1e-06
1e-06
1e-06
1e-06
1e-06
1e-06
1e-06
1.443934e-06
1e-06
1e-06
1e-06
1e-06
1e-06
1e-06
1e-06
1e-06
1e-06
1e-06
1e-06
1e-06
1e-06
1e-06
1e-06
1e-06
1e-06
1.364245e-06
1e-06
1e-06
1e-06
1e-06
1e-06
1e-06
1e-06
1e-06
1e-06
1e-06
1e-06
1e-06
1e-06
1e-06
1e-06
1e-06
1e-06
1.307468e-06
1.000001e-06
1e-06
1e-06
1e-06
1e-06
1e-06
1e-06
1e-06
1e-06
1e-06
1e-06
1e-06
1e-06
1e-06
1e-06
1e-06
1e-06
1.257985e-06
1e-06
1e-06
1e-06
1e-06
1e-06
1e-06
1e-06
1e-06
1e-06
1e-06
1e-06
1e-06
1e-06
1e-06
1e-06
1e-06
1e-06
1.243968e-06
1e-06
1e-06
1e-06
1e-06
1e-06
1e-06
1e-06
1e-06
1e-06
1e-06
1e-06
1e-06
1e-06
1e-06
1e-06
1e-06
1e-06
1.23104e-06
1e-06
1e-06
1e-06
1e-06
1e-06
1e-06
1e-06
1e-06
1e-06
1e-06
1e-06
1e-06
1e-06
1e-06
1e-06
1e-06
1e-06
1.218642e-06
1e-06
1e-06
1e-06
1e-06
1e-06
1e-06
1e-06
1e-06
1e-06
1e-06
1e-06
1e-06
1e-06
1e-06
1e-06
1e-06
1e-06
1.206815e-06
1e-06
1e-06
1e-06
1e-06
1e-06
1e-06
1e-06
1e-06