/*--------------------------------*- C++ -*----------------------------------*\
| =========                 |                                                 |
| \\      /  F ield         | OpenFOAM: The Open Source CFD Toolbox           |
|  \\    /   O peration     | Version:  2206                                  |
|   \\  /    A nd           | Website:  www.openfoam.com                      |
|    \\/     M anipulation  |                                                 |
\*---------------------------------------------------------------------------*/
FoamFile
{
    version     2.0;
    format      ascii;
    arch        "LSB;label=32;scalar=64";
    class       volScalarField;
    location    "1.6";
    object      nuFra;
}
// * * * * * * * * * * * * * * * * * * * * * * * * * * * * * * * * * * * * * //

dimensions      [0 2 -1 0 0 0 0];

internalField   nonuniform List<scalar> 
13078
(
1.684216e-08
2.045031
49.84168
100
100
100
100
2.968358
31.65842
66.58929
100
100
100
100
46.88768
77.80775
100
100
100
100
100
100
100
100
100
100
100
100
100
100
100
100
100
100
100
100
100
100
100
100
100
100
100
100
100
100
100
100
100
100
100
100
100
100
100
100
100
100
100
100
100
100
100
100
100
100
100
100
100
100
100
100
100
100
100
100
100
100
100
100
100
100
100
100
100
100
100
100
100
100
100
100
100
100
100
100
100
100
100
100
100
100
100
100
100
100
100
100
100
100
100
100
100
100
100
100
100
100
100
100
100
100
100
100
100
100
100
100
100
100
100
100
100
100
100
100
100
100
100
100
100
100
100
100
100
100
100
100
100
100
100
100
100
100
100
100
100
100
100
100
100
100
100
100
100
100
100
100
100
100
100
100
100
100
100
100
100
100
100
100
100
100
100
100
100
100
100
100
100
100
100
100
100
100
100
100
100
100
100
100
100
100
100
100
100
100
100
100
100
100
100
100
100
100
100
100
100
100
100
100
100
100
100
100
100
100
100
100
100
100
100
100
100
100
100
100
100
100
100
100
100
100
100
100
100
100
100
100
100
100
100
100
100
100
100
100
100
100
100
100
100
100
100
100
100
100
100
100
100
100
100
100
100
100
100
100
100
100
66.2821
43.26469
100
100
100
68.75319
34.21742
16.75205
9.638734
100
89.16877
47.86797
20.59553
9.51059
5.546564
4.250169
71.40603
36.94179
15.49882
7.069072
4.431983
4.024869
4.393616
31.27206
13.54585
6.433845
4.397387
4.337872
5.392165
6.878497
12.81785
6.599506
4.63854
4.913958
6.587452
8.340951
9.785639
6.639556
4.996523
5.253512
7.265452
9.711653
11.32427
11.66248
4.769901
5.195678
7.159861
10.03631
12.09427
13.04126
13.47955
4.343354
5.981029
9.054332
11.92931
13.50636
14.21388
15.43861
4.526223
6.704404
10.04124
12.84245
14.64039
16.0272
17.89266
5.057691
7.098417
10.23699
13.27965
15.84584
17.90205
20.1573
5.894585
7.358345
9.854849
13.28287
16.70259
19.27081
22.14021
6.960487
7.598687
9.702564
13.31124
17.21333
19.99005
23.00852
8.172174
7.946342
9.475185
12.67062
16.7305
19.68188
22.3103
9.316588
8.28077
9.35832
12.27131
16.28654
19.1238
20.89387
10.27968
8.592479
9.329385
11.98275
15.85408
18.71436
20.20477
10.94576
8.817616
9.361251
11.84246
15.58226
18.42849
19.78044
10.96119
8.821355
9.343617
11.7587
15.3905
18.16422
19.515
10.33466
8.690308
9.420224
11.94005
15.5625
18.24804
19.7448
9.383351
8.464429
9.550702
12.21776
15.75476
18.26236
19.96529
8.228791
8.16297
9.685058
12.43196
15.65127
17.91787
20.17864
7.035978
7.865187
9.880804
12.74077
15.49199
17.33996
19.44293
6.001837
7.635677
10.17028
12.96108
15.05481
16.26142
17.69318
5.270757
7.35957
10.42028
12.74997
14.06647
14.69606
15.35783
4.945074
6.79757
9.871334
12.18041
13.00325
13.05286
13.40635
5.212007
5.986516
8.425389
10.96013
12.05947
11.91838
11.77255
6.689441
5.533516
6.480315
8.755083
10.58943
11.05461
10.61764
11.338
6.475662
5.258468
6.232935
8.061044
9.414734
9.703053
24.3719
11.24565
6.07679
4.940958
5.568639
6.712493
7.934774
53.11705
26.79045
11.62888
6.176764
4.707693
4.79968
5.434128
94.63802
63.41263
31.80751
13.86051
7.045775
5.033313
4.397721
100
100
79.18461
42.08609
19.96729
10.20498
6.539518
100
100
100
100
63.21321
34.77925
20.24713
100
100
100
100
100
100
77.07145
100
100
100
100
100
100
100
100
100
100
100
100
100
100
100
100
100
100
100
100
100
100
100
100
100
100
100
100
100
100
100
100
100
100
100
100
100
100
100
100
100
100
100
100
100
100
100
100
100
100
100
100
100
100
100
100
100
100
100
100
100
100
100
100
100
100
100
100
100
100
100
100
100
100
100
100
100
100
100
100
100
100
100
100
100
100
100
100
100
100
100
100
100
100
100
100
100
100
100
100
100
100
100
100
100
100
100
100
100
100
100
100
100
100
100
100
100
100
100
100
100
100
100
100
100
100
100
100
100
100
100
100
100
100
100
100
100
100
100
100
100
100
100
100
100
100
100
100
100
100
100
100
100
100
100
100
100
100
100
100
100
100
100
100
100
100
100
100
100
100
100
100
100
100
100
100
100
100
100
100
100
100
100
100
100
100
100
100
100
100
100
100
100
100
100
100
100
100
100
100
100
100
100
100
100
100
100
100
100
100
100
100
100
100
100
100
100
100
100
100
100
100
100
100
100
100
100
100
100
100
100
100
100
100
100
100
100
100
100
100
100
100
100
100
100
100
100
100
100
100
100
100
100
100
100
100
100
100
100
47.96283
79.76317
100
100
100
100
100
3.452468
33.75944
68.93824
100
100
100
100
100
100
100
100
100
100
100
100
100
100
100
100
100
100
100
100
100
100
100
100
100
100
100
100
100
100
100
100
100
100
100
100
100
100
100
100
100
100
100
100
100
100
100
100
100
100
100
100
100
100
100
100
100
100
100
100
100
100
100
100
100
100
100
100
100
100
100
100
100
100
100
100
100
100
100
100
100
100
100
100
100
100
100
100
100
100
100
100
100
100
100
100
100
100
100
100
100
100
100
100
100
100
100
100
100
100
100
100
100
100
100
100
100
100
100
100
100
100
100
100
100
100
100
100
100
100
100
100
100
100
100
100
100
100
100
100
100
100
100
100
100
100
100
100
100
100
100
100
100
100
100
100
100
100
100
100
100
100
100
100
100
100
100
100
100
100
100
100
100
100
100
100
100
100
100
100
100
100
100
100
100
97.17485
100
100
100
100
100
100
84.72034
100
100
100
100
100
100
77.27436
100
100
100
100
100
100
74.40012
100
100
100
100
100
100
76.06153
100
100
100
100
100
100
81.88882
100
100
100
100
100
100
96.47359
100
100
100
100
100
100
71.19582
100
100
100
100
100
100
81.61379
100
100
100
100
100
100
67.91522
100
100
100
100
100
98.91737
2.69825
100
100
100
100
87.51443
56.13498
39.24552
100
100
100
100
71.22781
32.86045
11.74155
100
100
100
100
100
28.73068
4.887671
28.2511
77.88815
75.41775
45.74852
32.13997
8.642372
0.8022004
6.24379
8.358975
4.559674
4.231113
4.040079
2.58594
0.3489871
3.776636
3.656662
4.166659
4.175127
3.062293
1.806882
0.9203734
5.207591
6.291532
6.594721
5.763488
4.27927
2.300934
1.056502
8.072421
9.061875
8.142144
8.432207
7.550391
6.695028
2.073993
10.4099
10.95139
9.852326
8.90941
7.686889
5.508286
3.084427
11.64873
12.44591
10.63984
9.879781
7.738981
5.783791
2.569416
14.16786
15.59732
13.17918
11.89943
11.11003
6.356228
3.096308
16.7308
18.86663
16.14756
14.54524
11.44945
7.527909
2.151322
20.35329
22.45797
18.81829
15.25852
10.43327
5.673037
2.305924
23.26397
25.69077
21.15108
16.42571
10.53787
5.96311
3.149455
25.41048
26.87486
22.05248
16.50764
11.00717
6.282936
3.076531
25.25415
25.64935
20.26293
15.15641
10.94881
7.203206
3.767605
23.26581
23.09572
18.01371
13.50485
10.34932
7.449623
5.549399
21.96841
20.6965
15.931
11.28071
8.390924
6.146445
1.978459
21.07561
18.92111
13.93777
9.381061
6.076159
4.653827
2.728089
20.51725
17.81615
12.54072
8.127549
4.760999
2.620325
20.3002
17.83633
12.32756
7.869001
4.480596
2.429279
20.66464
18.7838
12.96797
8.525375
5.420075
3.140503
21.07775
19.97102
13.83696
9.961925
6.861971
5.449305
3.095037
21.39898
21.13074
15.15186
10.875
8.44034
6.486837
5.908995
21.14311
21.64177
15.72623
11.64321
8.418002
6.626903
4.623835
19.39788
20.30703
15.99829
12.54722
9.66141
7.500626
4.694928
16.64816
17.65126
15.25256
12.40319
9.406433
7.226589
5.09415
14.22142
15.08735
13.35439
11.94747
9.471227
5.562679
2.825465
11.7122
12.22628
11.43489
10.79642
8.992556
4.82639
1.188754
10.1783
10.03338
9.760951
8.928126
8.426052
5.273861
3.542574
9.145355
8.346534
8.428635
7.605376
6.329929
4.671511
1.892399
8.279497
7.563101
7.361161
6.922999
5.823464
4.080427
1.809183
6.407344
6.700792
6.580343
5.69231
4.481952
2.919535
1.996989
4.419814
5.17172
6.897707
7.290285
7.802052
6.917787
1.862816
4.793258
3.345813
4.919578
5.749439
4.622795
3.306207
2.352634
12.62685
7.007891
4.509932
4.539711
4.17524
2.660631
1.001834
60.45137
62.51877
50.63326
28.47319
24.99704
14.21131
1.424897
100
100
100
100
100
29.75413
9.447854
100
100
100
100
86.33089
37.95219
20.52917
100
100
100
100
99.84946
57.29194
42.13291
100
100
100
100
100
95.9556
29.34567
100
100
100
100
100
100
36.20683
100
100
100
100
100
100
100
100
100
100
100
100
100
21.67562
100
100
100
100
100
100
74.7837
100
100
100
100
100
100
65.15102
100
100
100
100
100
100
62.33621
100
100
100
100
100
100
61.69785
100
100
100
100
100
100
64.06446
100
100
100
100
100
100
69.19203
100
100
100
100
100
100
77.10234
100
100
100
100
100
100
89.02172
100
100
100
100
100
100
100
100
100
100
100
100
100
100
100
100
100
100
100
100
100
100
100
100
100
100
100
100
100
100
100
100
100
100
100
100
100
100
100
100
100
100
100
100
100
100
100
100
100
100
100
100
100
100
100
100
100
100
100
100
100
100
100
100
100
100
100
100
100
100
100
100
100
100
100
100
100
100
100
100
100
100
100
100
100
100
100
100
100
100
100
100
100
100
100
100
100
100
100
100
100
100
100
100
100
100
100
100
100
100
100
100
100
100
100
100
100
100
100
100
100
100
100
100
100
100
100
100
100
100
100
100
100
100
100
100
100
100
100
100
100
100
100
100
100
100
100
100
100
100
100
100
100
100
100
100
100
100
100
100
100
100
100
100
100
100
100
100
8.693676e-11
9.336764e-10
2.621875e-09
6.186987e-09
1.195654e-08
2.089639e-08
3.380793e-08
4.942371e-08
7.613437e-08
9.943311e-08
1.077507e-07
1.122838e-07
1.159476e-07
1.18896e-07
1.214842e-07
1.234887e-07
1.25249e-07
1.267768e-07
9.372326e-11
5.610423e-09
4.776123e-09
7.517114e-09
1.245189e-08
2.038516e-08
3.179732e-08
4.834192e-08
8.10644e-08
1.036186e-07
1.103042e-07
1.154771e-07
1.195573e-07
1.228808e-07
1.257261e-07
1.280281e-07
1.298905e-07
1.31477e-07
9.620204e-11
5.352099e-09
9.271853e-09
1.239155e-08
1.708578e-08
2.499042e-08
3.289571e-08
5.439196e-08
8.953034e-08
1.072305e-07
1.14697e-07
1.199378e-07
1.242533e-07
1.277153e-07
1.307416e-07
1.333691e-07
1.352102e-07
1.368924e-07
9.643482e-11
8.338153e-09
1.171927e-08
1.773994e-08
2.35156e-08
3.0539e-08
3.658269e-08
5.507538e-08
9.441311e-08
1.120307e-07
1.213367e-07
1.256706e-07
1.299376e-07
1.334277e-07
1.363446e-07
1.39368e-07
1.411627e-07
1.428325e-07
9.644708e-11
1.070555e-08
1.630747e-08
2.181047e-08
2.834603e-08
3.544959e-08
4.188177e-08
5.487675e-08
9.033444e-08
1.202563e-07
1.30183e-07
1.325766e-07
1.367303e-07
1.402081e-07
1.418751e-07
1.456577e-07
1.477514e-07
1.492503e-07
9.648334e-11
9.850482e-09
2.13148e-08
2.566989e-08
3.25831e-08
3.988668e-08
4.843011e-08
5.516027e-08
8.09394e-08
1.281502e-07
1.399691e-07
1.412944e-07
1.445316e-07
1.476041e-07
1.512958e-07
1.525145e-07
1.54905e-07
1.56453e-07
9.654811e-11
8.867575e-09
2.630772e-08
2.954446e-08
3.620882e-08
4.343216e-08
5.59045e-08
5.523514e-08
7.219254e-08
1.299134e-07
1.509853e-07
1.522561e-07
1.530202e-07
1.55923e-07
1.591583e-07
1.603338e-07
1.630999e-07
1.644159e-07
9.661297e-11
7.294511e-09
2.811728e-08
3.238422e-08
3.790671e-08
4.724348e-08
6.4476e-08
5.55423e-08
6.583491e-08
1.250118e-07
1.620927e-07
1.655326e-07
1.620952e-07
1.649912e-07
1.683397e-07
1.692603e-07
1.720443e-07
1.732716e-07
9.667628e-11
5.408383e-09
1.266473e-08
2.163785e-08
3.585179e-08
4.789402e-08
7.300833e-08
5.7054e-08
6.223824e-08
1.169704e-07
1.709346e-07
1.823013e-07
1.719785e-07
1.747635e-07
1.784906e-07
1.789613e-07
1.820261e-07
1.830991e-07
9.660418e-11
3.541024e-09
7.329698e-09
1.144736e-08
1.954673e-08
4.47416e-08
8.274251e-08
6.216167e-08
6.186906e-08
1.090776e-07
1.715327e-07
2.031477e-07
1.823299e-07
1.855603e-07
1.897395e-07
1.899005e-07
1.933562e-07
1.943274e-07
9.432579e-11
2.076184e-09
4.968524e-09
8.423091e-09
1.347688e-08
2.738649e-08
7.722559e-08
7.709912e-08
6.56062e-08
1.033069e-07
1.616984e-07
2.174133e-07
1.938047e-07
1.971142e-07
2.016299e-07
2.022565e-07
2.06441e-07
2.072021e-07
9.318833e-11
2.327571e-09
4.663858e-09
7.455367e-09
1.142209e-08
2.094284e-08
4.049026e-08
1.408309e-07
7.602479e-08
1.003956e-07
1.488047e-07
2.206252e-07
2.086395e-07
2.094336e-07
2.154523e-07
2.163914e-07
2.216515e-07
2.22193e-07
9.180172e-11
2.593843e-09
4.508425e-09
6.84411e-09
1.028339e-08
1.75352e-08
3.107358e-08
7.829342e-08
9.317255e-08
1.005818e-07
1.380922e-07
2.154492e-07
2.282078e-07
2.218504e-07
2.304242e-07
2.341663e-07
2.39837e-07
2.40162e-07
9.123187e-11
4.022396e-09
5.521009e-09
6.728274e-09
9.350128e-09
1.532636e-08
2.637544e-08
3.893011e-08
2.017405e-07
1.083708e-07
1.319918e-07
2.081427e-07
2.546903e-07
2.357045e-07
2.486576e-07
2.568208e-07
2.623111e-07
2.623285e-07
9.125188e-11
3.487093e-09
5.107466e-09
6.535517e-09
8.992652e-09
1.378371e-08
2.278619e-08
3.094385e-08
1.6022e-07
1.355092e-07
1.308892e-07
1.999866e-07
2.865391e-07
2.531732e-07
2.722341e-07
2.872035e-07
2.91218e-07
2.906204e-07
9.058051e-11
4.455427e-09
5.908159e-09
6.709595e-09
8.863107e-09
1.289753e-08
2.043018e-08
2.665837e-08
6.369395e-08
1.242365e-07
1.296062e-07
1.946149e-07
3.211635e-07
2.828455e-07
3.017298e-07
3.338361e-07
3.292028e-07
3.276955e-07
9.077052e-11
4.386787e-09
6.291056e-09
7.198511e-09
8.849796e-09
1.229159e-08
1.898708e-08
2.51691e-08
4.416414e-08
1.710929e-07
1.360122e-07
1.921035e-07
3.623461e-07
3.217913e-07
3.429597e-07
4.231649e-07
3.760552e-07
3.771154e-07
9.127107e-11
5.375115e-09
6.9968e-09
7.496592e-09
9.106647e-09
1.189839e-08
1.799905e-08
2.425676e-08
3.801677e-08
2.52041e-07
1.511359e-07
1.915957e-07
3.646516e-07
3.965877e-07
4.320392e-07
6.009242e-07
4.067584e-07
4.399501e-07
9.160577e-11
5.788239e-09
8.452098e-09
7.800492e-09
9.22285e-09
1.198858e-08
1.733243e-08
2.374585e-08
3.520468e-08
2.175334e-07
1.608673e-07
1.895986e-07
3.558615e-07
4.915949e-07
5.629907e-07
8.027353e-07
3.872847e-07
5.167147e-07
9.187002e-11
5.676346e-09
9.127381e-09
8.681999e-09
9.284553e-09
1.24202e-08
1.711383e-08
2.328829e-08
3.35787e-08
2.175551e-07
1.533916e-07
1.833315e-07
3.197519e-07
3.650351e-07
5.609963e-07
7.982874e-07
5.699663e-07
6.219871e-07
9.210042e-11
5.525853e-09
9.459245e-09
9.056469e-09
1.006925e-08
1.183389e-08
1.836449e-08
2.342926e-08
3.536061e-08
2.117511e-07
1.547971e-07
1.751353e-07
2.716678e-07
2.653192e-07
5.324323e-07
1.920754e-07
8.234414e-07
7.987382e-07
9.231973e-11
5.610628e-09
9.584458e-09
9.239972e-09
1.033695e-08
1.253612e-08
1.715449e-08
2.653246e-08
3.832543e-08
2.015339e-07
1.481144e-07
1.649366e-07
2.375152e-07
1.612729e-07
1.832382e-07
1.336676e-07
3.562811e-07
1.068415e-06
9.255936e-11
5.58653e-09
9.359796e-09
9.268352e-09
1.042434e-08
1.272019e-08
1.790108e-08
2.593036e-08
5.221257e-08
1.634866e-07
1.379132e-07
1.533565e-07
2.193145e-07
1.344175e-07
1.083642e-07
1.809827e-07
3.21038e-07
9.400222e-07
9.283565e-11
5.575513e-09
9.174908e-09
9.207189e-09
1.037831e-08
1.279228e-08
1.833645e-08
2.794898e-08
6.30128e-08
1.595718e-07
1.271685e-07
1.437899e-07
2.069035e-07
1.482726e-07
1.182959e-07
1.083883e-07
1.308229e-06
7.596329e-07
9.31578e-11
5.680743e-09
8.939345e-09
9.049874e-09
1.020573e-08
1.274593e-08
1.839839e-08
2.777476e-08
8.236402e-08
1.381706e-07
1.113093e-07
1.302364e-07
1.783836e-07
1.558835e-07
9.494344e-08
2.512583e-07
4.257039e-07
6.045957e-07
9.349206e-11
5.724364e-09
8.509278e-09
8.757603e-09
9.860868e-09
1.249234e-08
1.774072e-08
2.78064e-08
5.745124e-08
1.013249e-07
1.09182e-07
1.107288e-07
1.390544e-07
1.411741e-07
1.452655e-07
2.098743e-07
3.207869e-07
3.402359e-07
9.387734e-11
5.804503e-09
8.085118e-09
8.423913e-09
9.433707e-09
1.235565e-08
1.643498e-08
2.361154e-08
4.147866e-08
7.054385e-08
8.35748e-08
9.457206e-08
1.137917e-07
1.261341e-07
2.107236e-07
2.015196e-07
2.151342e-07
2.142901e-07
9.43014e-11
5.926073e-09
7.59899e-09
8.056069e-09
9.237073e-09
1.152964e-08
1.464213e-08
2.024205e-08
3.107005e-08
5.191115e-08
6.619792e-08
7.868034e-08
8.977631e-08
1.096302e-07
1.390478e-07
1.518291e-07
1.607777e-07
1.65964e-07
9.47593e-11
6.178156e-09
6.988516e-09
7.834045e-09
8.873036e-09
1.017528e-08
1.272456e-08
1.753173e-08
2.515207e-08
4.015459e-08
5.236325e-08
6.430004e-08
7.595535e-08
9.099575e-08
1.13529e-07
1.203358e-07
1.265344e-07
1.339039e-07
9.527111e-11
6.509927e-09
6.187143e-09
8.548707e-09
6.476159e-09
8.564858e-09
1.117428e-08
1.478637e-08
2.185393e-08
3.248497e-08
4.146816e-08
5.215753e-08
6.208174e-08
8.192587e-08
8.393821e-08
9.51527e-08
9.990264e-08
8.99547e-08
9.583013e-11
7.351643e-09
4.583973e-09
5.422533e-09
5.509061e-09
7.232215e-09
1.075663e-08
1.145608e-08
1.748973e-08
2.381268e-08
3.3298e-08
4.311982e-08
5.279419e-08
6.619553e-08
7.201339e-08
7.873254e-08
8.49304e-08
7.423204e-08
9.644787e-11
7.594458e-09
3.701636e-09
5.296476e-09
4.8807e-09
7.976174e-09
1.061217e-08
1.27967e-08
1.355056e-08
2.091568e-08
2.866104e-08
3.673807e-08
4.565692e-08
5.640019e-08
6.107121e-08
6.524534e-08
6.764974e-08
7.086414e-08
9.707727e-11
5.975166e-09
3.220013e-09
2.468653e-09
5.788353e-09
7.2369e-09
9.136211e-09
1.03523e-08
1.156948e-08
1.894117e-08
2.418196e-08
3.18338e-08
3.628063e-08
4.715102e-08
5.010763e-08
5.406314e-08
5.307004e-08
7.074037e-08
9.793909e-11
3.351028e-09
3.529952e-09
2.187471e-09
3.290953e-09
9.222663e-09
8.416437e-09
9.645633e-09
1.104063e-08
1.488914e-08
2.048669e-08
2.645196e-08
3.107813e-08
3.973229e-08
4.304385e-08
4.564683e-08
3.867445e-08
5.775027e-08
1.012446e-10
4.336354e-09
4.773701e-09
2.424787e-09
1.922059e-09
7.371437e-09
5.89244e-09
8.577434e-09
7.77064e-09
1.629056e-08
1.815409e-08
2.181044e-08
2.544898e-08
3.33551e-08
3.609146e-08
3.902995e-08
5.031935e-08
3.684459e-08
1.047173e-10
1.913011e-09
1.97566e-09
2.047862e-09
2.591169e-09
7.946943e-09
8.148147e-09
4.530863e-09
1.470303e-08
1.183374e-08
1.46739e-08
1.738915e-08
2.38735e-08
2.520291e-08
2.943959e-08
2.940136e-08
3.758313e-08
3.628385e-08
1.072177e-10
9.416724e-10
1.259861e-09
1.899998e-09
3.113211e-09
5.302713e-09
6.10999e-09
6.91217e-09
8.242713e-09
1.024403e-08
1.242056e-08
1.515494e-08
2.023308e-08
2.311613e-08
2.526244e-08
2.291034e-08
3.175162e-08
3.275877e-08
1.36773e-10
4.713236e-10
1.204757e-09
2.581636e-09
3.228137e-09
3.914554e-09
4.949362e-09
5.679918e-09
7.145246e-09
9.039452e-09
1.096446e-08
1.331938e-08
1.805063e-08
1.933772e-08
2.109887e-08
2.856865e-08
2.346543e-08
2.71886e-08
1.607562e-10
2.70283e-10
1.341937e-09
1.519977e-09
2.342846e-09
3.39695e-09
4.225236e-09
5.097634e-09
6.174922e-09
7.935598e-09
9.923265e-09
1.24084e-08
1.646353e-08
1.774461e-08
1.878186e-08
1.997107e-08
2.122704e-08
2.355465e-08
1.673941e-10
5.031341e-10
5.893105e-10
1.310369e-09
2.403967e-09
3.390567e-09
3.762831e-09
4.619858e-09
5.732563e-09
7.215472e-09
8.947073e-09
1.185104e-08
1.341125e-08
1.502156e-08
1.51755e-08
1.863689e-08
1.917677e-08
2.058685e-08
4.026906e-05
2.223688e-10
1.032067e-09
1.05534e-09
1.963353e-09
2.861795e-09
3.334188e-09
4.405972e-09
5.378169e-09
6.631983e-09
8.28616e-09
1.036847e-08
1.219831e-08
1.273928e-08
1.631697e-08
1.576607e-08
1.766477e-08
1.879491e-08
0.0006698616
1.26252e-10
1.450996e-09
1.493013e-09
1.920418e-09
2.484237e-09
3.059255e-09
4.112477e-09
5.01245e-09
6.151495e-09
7.069678e-09
9.542102e-09
9.737667e-09
9.364965e-09
1.315906e-08
1.396883e-08
1.565618e-08
1.597647e-08
0.008346661
9.890623e-11
1.093282e-09
1.392062e-09
1.755955e-09
2.265179e-09
3.144075e-09
3.903392e-09
4.562416e-09
5.589979e-09
5.663291e-09
7.895505e-09
8.619513e-09
9.660846e-09
1.147818e-08
1.224685e-08
1.266383e-08
1.596828e-08
1.019957
9.831145e-11
1.219205e-09
1.179652e-09
1.53116e-09
2.28726e-09
2.931872e-09
3.525685e-09
4.114534e-09
4.787682e-09
5.916338e-09
6.49904e-09
5.905824e-09
9.22622e-09
9.183174e-09
9.873025e-09
1.262402e-08
1.356035e-08
0.3749571
8.633066e-11
1.074728e-09
7.822324e-10
1.458362e-09
2.373597e-09
2.524605e-09
3.042941e-09
3.486235e-09
3.731104e-09
5.224494e-09
5.274708e-09
5.745171e-09
7.277434e-09
7.58134e-09
9.661194e-09
1.066995e-08
1.030119e-08
6.649302
8.112787e-11
5.156881e-10
7.111454e-10
1.18561e-09
1.85356e-09
2.144849e-09
2.535337e-09
3.000159e-09
3.132187e-09
4.056011e-09
4.27274e-09
5.74472e-09
6.252616e-09
6.384751e-09
7.803841e-09
8.593022e-09
1.194014e-08
0.03535632
8.553548e-11
2.504275e-10
1.05781e-09
1.12285e-09
1.323395e-09
1.768622e-09
2.092075e-09
2.5508e-09
2.655765e-09
3.630605e-09
3.421696e-09
4.70946e-09
4.285753e-09
6.887245e-09
6.86837e-09
7.654429e-09
8.392302e-09
0.01140592
1.893377e-10
3.547017e-10
6.800648e-10
9.497925e-10
1.122964e-09
1.473242e-09
1.682746e-09
2.007844e-09
2.159764e-09
2.713401e-09
3.36234e-09
3.115889e-09
5.267236e-09
5.234789e-09
6.22369e-09
7.148452e-09
8.738608e-09
0.3638828
1.572565e-10
4.034957e-10
5.044944e-10
6.686504e-10
9.866702e-10
1.226308e-09
1.295122e-09
1.624066e-09
1.766417e-09
2.19626e-09
2.607072e-09
3.535394e-09
3.757776e-09
4.090717e-09
5.59887e-09
6.285251e-09
7.625434e-09
0.2566139
1.339012e-10
2.115775e-10
3.760895e-10
1.019625e-09
2.145962e-09
1.633249e-09
2.465109e-09
2.767141e-09
2.953955e-09
3.960245e-09
4.749759e-09
5.500734e-09
6.784373e-09
0.1010822
0.008318072
1.332078e-09
1.876592e-09
2.123125e-09
2.89412e-09
3.448689e-09
4.38026e-09
4.984683e-09
6.148632e-09
0.2244831
1.281266e-09
2.126377e-09
2.449597e-09
3.16404e-09
4.243585e-09
4.744933e-09
5.881385e-09
1.68345e-09
2.439447e-09
2.536732e-09
3.803786e-09
4.26979e-09
5.361671e-09
2.04881e-09
2.678821e-09
3.047944e-09
4.059096e-09
5.088298e-09
2.299952e-09
2.087833e-09
2.87628e-09
4.097123e-09
4.75807e-09
1.398263e-09
2.377728e-09
3.066791e-09
3.719482e-09
4.63741e-09
1.398452e-09
2.225862e-09
2.894844e-09
3.673073e-09
4.521412e-09
1.441978e-09
2.211425e-09
2.903357e-09
3.602016e-09
4.483439e-09
1.607923e-09
2.226458e-09
2.898214e-09
3.647533e-09
4.545255e-09
1.323126e-09
1.777571e-09
2.299062e-09
2.793956e-09
3.819087e-09
4.526699e-09
0.4060641
1.62741e-09
2.098339e-09
2.462872e-09
3.094433e-09
3.943185e-09
4.612845e-09
0.3413267
0.002953967
1.564443e-09
1.984716e-09
2.018233e-09
2.727543e-09
3.390032e-09
4.408816e-09
5.178411e-09
0.7342118
1.04847e-10
3.031073e-10
1.130709e-09
1.661197e-09
1.534239e-09
1.772577e-09
2.712929e-09
2.817092e-09
3.722659e-09
4.041263e-09
5.298571e-09
0.08323248
1.57674e-10
2.372095e-10
3.548527e-10
5.862937e-10
8.918422e-10
1.034058e-09
1.127902e-09
1.124597e-09
1.421074e-09
1.763022e-09
1.857955e-09
2.4072e-09
2.450831e-09
3.701166e-09
3.6111e-09
4.656412e-09
5.275591e-09
0.004121347
2.680456e-10
5.541295e-10
4.83201e-10
7.192418e-10
9.532312e-10
1.181317e-09
1.287389e-09
1.453054e-09
1.721388e-09
1.934397e-09
2.246761e-09
2.942776e-09
3.005854e-09
3.30178e-09
4.675487e-09
5.071098e-09
5.978684e-09
0.00362141
1.63648e-10
2.838813e-10
8.302431e-10
1.10545e-09
1.117902e-09
1.407961e-09
1.562093e-09
1.699924e-09
2.11391e-09
2.06099e-09
2.82614e-09
2.683699e-09
4.190526e-09
3.92889e-09
4.704747e-09
5.672933e-09
7.10774e-09
0.01164329
9.365787e-11
2.667682e-10
8.929221e-10
1.040038e-09
1.251495e-09
1.612181e-09
1.848465e-09
2.097341e-09
2.389396e-09
2.652163e-09
2.93481e-09
3.438469e-09
3.561922e-09
5.012708e-09
5.562902e-09
5.810289e-09
6.235292e-09
0.03270727
8.431375e-11
5.577329e-10
6.417114e-10
9.737442e-10
1.683848e-09
1.890827e-09
2.159122e-09
2.468549e-09
2.688411e-09
3.400277e-09
3.344866e-09
4.347288e-09
4.175965e-09
5.192623e-09
5.460579e-09
6.563779e-09
9.106772e-09
0.2077956
9.90972e-11
1.38135e-09
9.721123e-10
1.385718e-09
1.944142e-09
2.178648e-09
2.521633e-09
2.84278e-09
2.927905e-09
3.34101e-09
3.862377e-09
5.147494e-09
4.771896e-09
5.355968e-09
6.840296e-09
7.137107e-09
7.603551e-09
0.05161786
1.069592e-10
1.393914e-09
1.101464e-09
1.43572e-09
2.129213e-09
2.421374e-09
2.80073e-09
3.19635e-09
3.494359e-09
4.584032e-09
4.274973e-09
4.653142e-09
6.252132e-09
5.998808e-09
6.980431e-09
8.557573e-09
8.814561e-09
0.0007892572
1.271829e-10
2.006142e-09
1.468441e-09
1.767447e-09
1.962862e-09
2.4692e-09
2.938103e-09
3.418869e-09
3.891021e-09
4.374644e-09
5.300818e-09
5.60015e-09
7.079371e-09
7.272444e-09
7.901373e-09
8.55756e-09
1.049327e-08
0.0001832157
1.978439e-10
1.144071e-09
1.289058e-09
1.725345e-09
2.269895e-09
2.414585e-09
3.015023e-09
3.596071e-09
4.240106e-09
4.779632e-09
5.70655e-09
6.124296e-09
6.364022e-09
8.569251e-09
8.813142e-09
9.774337e-09
1.036011e-08
9.356384e-06
3.249918e-10
5.453312e-10
7.975592e-10
1.549028e-09
2.420292e-09
2.683888e-09
3.241281e-09
3.808282e-09
4.519201e-09
5.264247e-09
6.53767e-09
7.067158e-09
7.293587e-09
8.813817e-09
9.598019e-09
1.040344e-08
1.101472e-08
1.558161e-10
2.818138e-10
1.21318e-09
1.485864e-09
2.133039e-09
2.861948e-09
3.106737e-09
3.567548e-09
4.090713e-09
4.851146e-09
5.751829e-09
7.044452e-09
7.506963e-09
8.494062e-09
8.754873e-09
1.036531e-08
1.07437e-08
1.152028e-08
1.630041e-10
2.365967e-10
1.263177e-09
1.656936e-09
2.538782e-09
3.335304e-09
3.718123e-09
4.114992e-09
4.627587e-09
5.345527e-09
6.313079e-09
7.353142e-09
8.432515e-09
9.359519e-09
9.734578e-09
1.000439e-08
1.126801e-08
1.247236e-08
1.082905e-10
4.842799e-10
1.184918e-09
2.458728e-09
3.473344e-09
4.235204e-09
4.712605e-09
4.773317e-09
5.662219e-09
6.207908e-09
7.02323e-09
7.93662e-09
8.553837e-09
9.714215e-09
1.057766e-08
1.35693e-08
1.163466e-08
1.338065e-08
1.078781e-10
9.310565e-10
1.345029e-09
2.120415e-09
3.201795e-09
6.484372e-09
6.051081e-09
5.563085e-09
7.147642e-09
7.568723e-09
7.846929e-09
8.769234e-09
1.016593e-08
1.104715e-08
1.190877e-08
1.317638e-08
1.523343e-08
1.511398e-08
1.007981e-10
1.032414e-09
1.913925e-09
2.049485e-09
2.515209e-09
1.390823e-08
1.121516e-08
5.902006e-09
7.081777e-09
9.371347e-09
8.598749e-09
9.625448e-09
1.166556e-08
1.146995e-08
1.288474e-08
1.315775e-08
1.373317e-08
1.634278e-08
9.696948e-11
1.146114e-09
5.512639e-09
2.064434e-09
2.364235e-09
8.115536e-09
6.63934e-09
1.072827e-08
1.072981e-08
1.317322e-08
1.051364e-08
1.126805e-08
1.266638e-08
1.316267e-08
1.432339e-08
1.517414e-08
1.762816e-08
1.637857e-08
9.539012e-11
1.1508e-09
2.882102e-09
1.926141e-09
3.206674e-09
8.28688e-09
8.957604e-09
1.332852e-08
1.211265e-08
1.465801e-08
1.32208e-08
1.327705e-08
1.404012e-08
1.484794e-08
1.589991e-08
1.693393e-08
1.83812e-08
2.00741e-08
9.570224e-11
1.71926e-09
2.885582e-09
2.442826e-09
4.981042e-09
7.643025e-09
1.064693e-08
1.347826e-08
1.339278e-08
1.681466e-08
1.560922e-08
1.542496e-08
1.552837e-08
1.55268e-08
1.722171e-08
1.841512e-08
1.904264e-08
2.089999e-08
9.544421e-11
2.236178e-09
3.387417e-09
4.149027e-09
4.452942e-09
9.84065e-09
1.359441e-08
1.666914e-08
1.559266e-08
1.895942e-08
1.808335e-08
1.754588e-08
1.728461e-08
1.815197e-08
1.903062e-08
2.012042e-08
2.112211e-08
2.300247e-08
9.507164e-11
2.432167e-09
3.862106e-09
4.622512e-09
5.895267e-09
8.273034e-09
1.417668e-08
1.7573e-08
1.775001e-08
2.009215e-08
2.005416e-08
1.958155e-08
1.91132e-08
2.001573e-08
2.070649e-08
2.193831e-08
2.339598e-08
2.59053e-08
9.469855e-11
2.66073e-09
5.14911e-09
7.067787e-09
7.568878e-09
8.829396e-09
1.363887e-08
1.975946e-08
2.388391e-08
2.431896e-08
2.279123e-08
2.182253e-08
2.124762e-08
2.187451e-08
2.241261e-08
2.385653e-08
2.507932e-08
2.488709e-08
9.435885e-11
2.824271e-09
5.983969e-09
6.894778e-09
8.320016e-09
1.047074e-08
1.455243e-08
2.131257e-08
2.873847e-08
2.860828e-08
2.597042e-08
2.430664e-08
2.369772e-08
2.460748e-08
2.425412e-08
2.599655e-08
2.722028e-08
2.821067e-08
9.405432e-11
2.950453e-09
6.585871e-09
6.940866e-09
8.042592e-09
1.094317e-08
1.574403e-08
2.267227e-08
3.237296e-08
3.233217e-08
2.896372e-08
2.691538e-08
2.610006e-08
2.718839e-08
2.595095e-08
2.802866e-08
2.945827e-08
3.114479e-08
9.377781e-11
3.070248e-09
7.144834e-09
7.133839e-09
8.054699e-09
1.050639e-08
1.660744e-08
2.431162e-08
3.534773e-08
3.51376e-08
3.160018e-08
2.924715e-08
2.907557e-08
3.052136e-08
3.043341e-08
3.077881e-08
3.17572e-08
3.313761e-08
9.35024e-11
3.187876e-09
7.560821e-09
7.341842e-09
8.183594e-09
1.0148e-08
1.624957e-08
2.544162e-08
3.726472e-08
3.687971e-08
3.302669e-08
3.273749e-08
3.172961e-08
3.042334e-08
2.929026e-08
3.240507e-08
3.40982e-08
3.570272e-08
9.3324e-11
3.253764e-09
8.151858e-09
7.61248e-09
8.370303e-09
1.021553e-08
1.498807e-08
2.617635e-08
3.835591e-08
3.670054e-08
3.761499e-08
3.552138e-08
3.444767e-08
3.336277e-08
3.432531e-08
3.555416e-08
3.67835e-08
3.836928e-08
9.309589e-11
3.453645e-09
8.557916e-09
7.804355e-09
8.556226e-09
1.031837e-08
1.42913e-08
2.496596e-08
3.717594e-08
4.242373e-08
3.969702e-08
3.851576e-08
3.725711e-08
3.61158e-08
3.669939e-08
3.815748e-08
3.946006e-08
4.115739e-08
9.29308e-11
3.524808e-09
8.902489e-09
8.008739e-09
8.721871e-09
1.038722e-08
1.394712e-08
2.157843e-08
4.221279e-08
4.359488e-08
4.307632e-08
4.178901e-08
4.026409e-08
3.902109e-08
3.946599e-08
4.092233e-08
4.230793e-08
4.400139e-08
9.279757e-11
3.656709e-09
9.298471e-09
8.189031e-09
8.829828e-09
1.032769e-08
1.37973e-08
2.029784e-08
3.741217e-08
4.777339e-08
4.698132e-08
4.545513e-08
4.363093e-08
4.203715e-08
4.266098e-08
4.39214e-08
4.531303e-08
4.688394e-08
9.270506e-11
3.798594e-09
9.551237e-09
8.283347e-09
8.779894e-09
1.103688e-08
1.267644e-08
1.936915e-08
3.570862e-08
5.203133e-08
5.133983e-08
4.948903e-08
4.721521e-08
4.527699e-08
4.4907e-08
4.621088e-08
4.835082e-08
4.999137e-08
9.261196e-11
3.884076e-09
9.379768e-09
8.159579e-09
1.018885e-08
9.011872e-09
1.334234e-08
1.922854e-08
3.493149e-08
5.691056e-08
5.621967e-08
5.383952e-08
5.090323e-08
4.857026e-08
5.063418e-08
4.870384e-08
5.166327e-08
5.323615e-08
9.245469e-11
4.057079e-09
8.978663e-09
1.069904e-08
6.926232e-09
1.017181e-08
1.328268e-08
1.945924e-08
3.639288e-08
6.282416e-08
6.168206e-08
5.843986e-08
5.458525e-08
5.195363e-08
5.35673e-08
5.226261e-08
5.502051e-08
5.659878e-08
9.230105e-11
4.049926e-09
1.446857e-08
5.636562e-09
8.23655e-09
9.995377e-09
1.350216e-08
2.024874e-08
4.143313e-08
6.974555e-08
6.775617e-08
6.335331e-08
5.832027e-08
5.54235e-08
5.712467e-08
5.589623e-08
5.854145e-08
6.007098e-08
9.185725e-11
4.004973e-09
4.895966e-09
7.144574e-09
8.029349e-09