/*--------------------------------*- C++ -*----------------------------------*\
| =========                 |                                                 |
| \\      /  F ield         | OpenFOAM: The Open Source CFD Toolbox           |
|  \\    /   O peration     | Version:  2206                                  |
|   \\  /    A nd           | Website:  www.openfoam.com                      |
|    \\/     M anipulation  |                                                 |
\*---------------------------------------------------------------------------*/
FoamFile
{
    version     2.0;
    format      ascii;
    arch        "LSB;label=32;scalar=64";
    class       volScalarField;
    location    "1.6";
    object      omega.b_0;
}
// * * * * * * * * * * * * * * * * * * * * * * * * * * * * * * * * * * * * * //

dimensions      [0 0 -1 0 0 0 0];

internalField   nonuniform List<scalar> 
13078
(
6.495683
0.4797116
0.3989902
0.3988358
0.3998026
0.4009328
0.4022414
6.57947
0.4668213
0.3983984
0.3987626
0.399766
0.4009045
0.4022126
6.585492
0.4647694
0.3983031
0.3986912
0.3997177
0.4008677
0.4021788
6.591679
0.4638394
0.3982462
0.3986368
0.3996728
0.4008301
0.4021435
6.598133
0.4635185
0.3982141
0.398612
0.3996361
0.4007946
0.402109
6.604802
0.463367
0.3981993
0.3985973
0.3996217
0.4007642
0.4020758
6.611848
0.4633469
0.398197
0.3985852
0.399612
0.4007541
0.4020463
6.619131
0.4633995
0.3982002
0.3985784
0.3996061
0.4007475
0.4020381
6.626655
0.4634551
0.3982003
0.3985764
0.3996027
0.4007426
0.4020323
6.634488
0.4635452
0.3982019
0.3985755
0.3996003
0.4007389
0.4020276
6.642682
0.4636585
0.3982037
0.3985749
0.3995984
0.4007359
0.4020234
6.651186
0.4637891
0.3982054
0.3985744
0.3995969
0.4007331
0.4020196
6.660084
0.4639342
0.398207
0.3985738
0.3995954
0.4007306
0.4020159
6.669375
0.4640927
0.3982084
0.3985727
0.3995934
0.4007279
0.4020121
6.679072
0.4642629
0.3982101
0.3985663
0.3995836
0.4007244
0.4020084
6.689206
0.4644446
0.3982116
0.3985582
0.3995757
0.4007211
0.4020045
6.69983
0.464637
0.3982128
0.3985561
0.399573
0.400718
0.4020004
6.710875
0.46484
0.3982141
0.3985542
0.3995704
0.4007149
0.4019961
6.722538
0.4650555
0.3982153
0.3985523
0.3995673
0.4007107
0.4019916
6.734686
0.4652824
0.3982164
0.3985495
0.3995561
0.4006945
0.4019857
6.747501
0.4655232
0.3982176
0.3985464
0.3995423
0.4006812
0.4019797
6.760848
0.4657777
0.3982189
0.3985439
0.3995376
0.400676
0.4019742
6.774919
0.4660478
0.3982201
0.3985411
0.3995335
0.4006702
0.4019672
6.789678
0.4663353
0.3982216
0.398538
0.3995282
0.4006528
0.4019423
6.805169
0.4666418
0.3982232
0.3985348
0.3995225
0.4006316
0.4019219
6.821431
0.4669699
0.3982249
0.3985312
0.3995172
0.4006232
0.4019125
6.838694
0.4673162
0.3982269
0.3985275
0.3995116
0.4006154
0.4019024
6.860782
0.467725
0.3982301
0.3985235
0.3995054
0.400606
0.4018749
6.889512
0.4680922
0.3982321
0.3985193
0.3994987
0.4005955
0.4018414
6.964901
0.4690923
0.3982473
0.3985148
0.3994916
0.4005859
0.4018269
7.077898
0.4701911
0.3982402
0.3985098
0.3994839
0.4005753
0.4018111
7.116327
0.4719622
0.3982168
0.3985028
0.3994755
0.4005638
0.4017944
7.153721
0.4742195
0.3982635
0.398488
0.3994647
0.4005512
0.4017785
7.186841
0.4750514
0.3982829
0.3984775
0.3994527
0.4005366
0.401761
7.221337
0.4759114
0.398289
0.3984599
0.3994334
0.4005167
0.4017407
7.257501
0.4768349
0.3982978
0.3984303
0.3993973
0.4004838
0.4017142
7.2953
0.4777847
0.3983052
0.3984152
0.3993502
0.4004605
0.4016849
7.335032
0.4787185
0.398309
0.3983995
0.3993237
0.4004129
0.4016403
7.385165
0.4795561
0.398307
0.398376
0.3992878
0.4003206
0.4015985
7.498022
0.4811024
0.3982989
0.3983244
0.3992141
0.4002165
0.4014817
7.673721
0.4843198
0.3981881
0.3982012
0.3990487
0.4000355
0.4012961
7.748891
0.4872944
0.3980877
0.3979601
0.3987857
0.399945
0.4016944
7.810543
0.4879986
0.3978116
0.3976386
0.3986755
0.4003447
0.4025946
7.878358
0.4884303
0.3974856
0.3974239
0.3990362
0.4011964
0.4034845
7.986776
0.489731
0.3973125
0.397715
0.3996498
0.4019281
0.4042784
8.166373
0.4936051
0.3974339
0.398314
0.4002636
0.4023214
0.4046602
8.255055
0.5000032
0.3980022
0.3987559
0.4006537
0.4026123
0.4046237
8.326957
0.5067406
0.3985535
0.3989761
0.4007715
0.4026079
0.4046599
8.399091
0.5149226
0.399006
0.3991258
0.4007324
0.4025149
0.4043973
8.475508
0.523015
0.3993418
0.3992284
0.4007905
0.402367
0.4039869
8.590867
0.5335344
0.3995561
0.3992874
0.4007559
0.4021856
0.4036285
8.865548
0.5472222
0.3999661
0.3994784
0.4008249
0.402079
0.4033208
8.982681
0.5557104
0.4003295
0.3992851
0.4006717
0.4020119
0.4031465
9.041531
0.5601507
0.4003381
0.3991707
0.4006245
0.4020249
0.4030938
9.075759
0.5629392
0.4003069
0.3990597
0.4005299
0.401892
0.4029217
9.092147
0.5652447
0.4002718
0.398907
0.4003187
0.4015987
0.4026125
9.091648
0.5640336
0.4001094
0.3987731
0.4001857
0.401437
0.4023796
9.075112
0.5598407
0.4000257
0.3988535
0.4002749
0.4015563
0.4024985
9.040857
0.5553266
0.3999626
0.3988993
0.4002566
0.4015198
0.4024463
8.981558
0.5489364
0.3997432
0.3988109
0.4000587
0.4012322
0.4023258
8.864191
0.5389583
0.3992075
0.3988001
0.4000758
0.4012793
0.4024423
8.589578
0.5249015
0.3989168
0.3988119
0.400135
0.401374
0.4025907
8.474754
0.5140751
0.3986975
0.3986323
0.3999804
0.4012842
0.4026019
8.398626
0.5061466
0.3983503
0.3984576
0.3998002
0.401251
0.4029051
8.326914
0.4990964
0.3979483
0.3982931
0.3998543
0.401467
0.4031823
8.255055
0.4943861
0.397533
0.3981888
0.3998185
0.4014166
0.403075
8.166373
0.4900542
0.3971549
0.3978544
0.3994725
0.4011762
0.4031949
7.986776
0.4874032
0.3971513
0.3974191
0.399011
0.4009398
0.4029465
7.878358
0.4868236
0.3973754
0.3972966
0.3986423
0.4004284
0.4023588
7.810543
0.4868245
0.3977304
0.397553
0.3984944
0.3998772
0.4017706
7.749105
0.4864752
0.3980363
0.3978974
0.3987014
0.3997862
0.4012924
7.678124
0.4843766
0.398179
0.3981608
0.3990049
0.3999814
0.4011914
7.53547
0.4820115
0.3982871
0.3983031
0.399191
0.4001875
0.401443
7.439012
0.4808179
0.3983079
0.3983635
0.3992716
0.4003021
0.401578
7.388639
0.4800355
0.3983117
0.3983875
0.3993114
0.4004026
0.4016267
7.344496
0.4787115
0.3983011
0.398407
0.3993546
0.4004553
0.4016738
7.300795
0.4775153
0.3983025
0.3984245
0.3993978
0.4004803
0.4017062
7.237691
0.4764427
0.3982986
0.398455
0.3994257
0.4005102
0.4017329
7.19073
0.4754874
0.3982906
0.3984735
0.3994475
0.4005306
0.4017543
7.154754
0.4746791
0.3982719
0.3984846
0.3994603
0.4005463
0.401773
7.116392
0.4724052
0.3982243
0.3985
0.3994719
0.4005596
0.4017899
7.077898
0.4706204
0.3982482
0.3985073
0.3994809
0.4005719
0.4018074
6.964901
0.4694672
0.398255
0.3985129
0.3994891
0.4005832
0.4018238
6.889512
0.4684702
0.3982394
0.3985177
0.3994967
0.4005933
0.4018388
6.860782
0.4680756
0.3982369
0.3985221
0.3995037
0.400604
0.4018727
6.838694
0.46764
0.3982332
0.3985264
0.3995101
0.4006137
0.4019006
6.821431
0.4672652
0.3982306
0.3985303
0.399516
0.4006217
0.4019109
6.805169
0.4669094
0.3982285
0.398534
0.3995214
0.4006305
0.4019207
6.789678
0.4665765
0.3982264
0.3985373
0.3995273
0.4006518
0.4019413
6.774919
0.4662642
0.3982245
0.3985405
0.3995327
0.4006693
0.4019663
6.760848
0.4659711
0.3982228
0.3985434
0.3995369
0.4006753
0.4019733
6.747501
0.4656952
0.398221
0.3985461
0.3995419
0.4006807
0.401979
6.734686
0.4654348
0.3982195
0.3985493
0.3995557
0.4006941
0.4019853
6.722538
0.4651898
0.3982181
0.3985521
0.3995671
0.4007104
0.4019913
6.710875
0.4649577
0.3982167
0.3985541
0.3995702
0.4007146
0.4019958
6.69983
0.4647394
0.3982152
0.3985561
0.3995729
0.4007178
0.4020001
6.689206
0.4645326
0.3982137
0.3985584
0.3995756
0.4007209
0.4020042
6.679072
0.4643374
0.3982121
0.3985666
0.3995836
0.4007243
0.4020083
6.669375
0.4641539
0.3982104
0.398573
0.3995935
0.4007279
0.402012
6.660084
0.4639822
0.3982089
0.3985742
0.3995956
0.4007305
0.4020156
6.651186
0.463823
0.3982072
0.398575
0.399597
0.4007329
0.402019
6.642682
0.4636768
0.3982054
0.3985756
0.3995984
0.4007353
0.4020225
6.634488
0.4635454
0.3982035
0.3985761
0.3996
0.4007379
0.4020263
6.626655
0.4634322
0.3982017
0.3985766
0.3996016
0.4007408
0.4020303
6.619131
0.4633453
0.3982008
0.3985776
0.3996038
0.4007445
0.402035
6.611848
0.4632482
0.3981956
0.3985823
0.3996076
0.4007493
0.4020418
6.604802
0.463203
0.3981934
0.3985905
0.3996137
0.4007568
0.4020695
6.598133
0.4632564
0.3981989
0.398598
0.399623
0.4007839
0.4021008
6.591679
0.4634045
0.3982133
0.3986119
0.399653
0.4008158
0.4021338
6.585492
0.4638103
0.398242
0.3986511
0.3996908
0.4008508
0.4021685
6.57947
0.4642235
0.3982836
0.398706
0.3997352
0.4008884
0.402204
6.495683
0.4629267
0.3983611
0.39878
0.3997874
0.4009277
0.4022394
0.4037856
0.4057291
0.4083251
0.4108117
0.4152419
0.4222888
0.4419193
0.4037526
0.4056866
0.4082691
0.4107456
0.4151605
0.4221726
0.4465501
0.403717
0.4056434
0.4082153
0.4116028
0.4150873
0.4220589
0.4460412
0.4036803
0.4055998
0.4081582
0.4106128
0.415
0.4219457
0.4455778
0.4036444
0.405556
0.4081036
0.4105409
0.4149189
0.4218328
0.4451954
0.403609
0.4055123
0.4080478
0.4104733
0.4148389
0.4217209
0.4448265
0.4035745
0.405469
0.4079924
0.410408
0.4148168
0.4216106
0.4444693
0.4035432
0.4054263
0.4079376
0.4103441
0.4147962
0.4215015
0.4441209
0.4035351
0.405387
0.4078854
0.4102789
0.4147325
0.4214019
0.443779
0.4035291
0.405377
0.4078367
0.410214
0.4146695
0.4213029
0.4434418
0.4035238
0.4053696
0.407824
0.4101512
0.4146068
0.4212045
0.4431029
0.4035186
0.4053622
0.4078143
0.4101376
0.4145438
0.4211062
0.442733
0.4035135
0.4053548
0.4078043
0.4101254
0.4145331
0.4210062
0.4422538
0.4035083
0.4053474
0.407794
0.4101128
0.4145211
0.4209867
0.441891
0.4035031
0.4053396
0.4077834
0.4100997
0.4145084
0.4209645
0.441301
0.4034976
0.4053315
0.4077723
0.410086
0.4144948
0.4209406
0.4406386
0.403492
0.405323
0.4077609
0.4100715
0.414475
0.4209155
0.440098
0.4034861
0.4053145
0.4077488
0.4100496
0.414283
0.4208889
0.4395523
0.4034799
0.405306
0.4077364
0.4100337
0.4142578
0.4208617
0.439089
0.4034734
0.405297
0.4077233
0.4100172
0.414237
0.4208331
0.4385805
0.4034666
0.4052875
0.4077097
0.4099999
0.4142154
0.4208032
0.4380665
0.4034592
0.4052774
0.4076955
0.4099816
0.4141928
0.4207719
0.4377032
0.4034515
0.4052668
0.4076794
0.409964
0.414165
0.4207392
0.4373751
0.4034414
0.4052554
0.4076653
0.4108035
0.4139917
0.4206888
0.4370851
0.403431
0.4052433
0.4076455
0.4099297
0.4138946
0.4206478
0.4368501
0.4034213
0.4052306
0.4076292
0.4098983
0.4138607
0.4206093
0.4366221
0.4034087
0.405216
0.4076091
0.4098733
0.4138254
0.4205628
0.4364427
0.4033693
0.4051992
0.4075904
0.4098473
0.4137771
0.420181
0.4362703
0.4033383
0.404699
0.4069221
0.4098185
0.413733
0.420035
0.4361376
0.4033252
0.4046803
0.4068964
0.409788
0.4136922
0.4199793
0.4360386
0.4032668
0.4046193
0.4068733
0.4097571
0.4136492
0.4197219
0.4359156
0.4032242
0.4045572
0.4068482
0.4097237
0.4136025
0.4194166
0.4358246
0.4032007
0.4044805
0.4068126
0.4096879
0.4135532
0.4193373
0.4357633
0.4031781
0.4044442
0.4067172
0.40965
0.413501
0.4192213
0.4339822
0.4031535
0.4044201
0.4066322
0.4096044
0.4134466
0.4191286
0.4340525
0.4031268
0.4043988
0.4064723
0.4095448
0.413394
0.419048
0.4303072
0.4030964
0.4043803
0.4064159
0.4093594
0.4133563
0.4189682
0.4319999
0.4030563
0.4043671
0.4063769
0.4092923
0.4132992
0.4190626
0.4314844
0.4030096
0.4043567
0.4063649
0.4091944
0.4136131
0.4202053
0.4303831
0.4029566
0.4044057
0.4066876
0.4101426
0.4150906
0.4219291
0.4312034
0.4033024
0.4049336
0.4080028
0.4119067
0.4163975
0.4227808
0.4331169
0.4040897
0.4060204
0.4094827
0.4132519
0.4173526
0.4222401
0.432569
0.4051665
0.4071538
0.4103606
0.4139069
0.4179246
0.4220997
0.4319156
0.4061557
0.4081733
0.4112992
0.4146969
0.4182439
0.4226405
0.4321713
0.4068447
0.4090615
0.4118503
0.415045
0.4185243
0.4229971
0.4320206
0.4071171
0.4094892
0.412215
0.4152161
0.4183301
0.4223362
0.4317283
0.4071179
0.4096876
0.4123636
0.4150048
0.4177797
0.4216783
0.4292262
0.4069087
0.4094788
0.4119361
0.4145483
0.4173215
0.4206428
0.4261193
0.4065214
0.4088058
0.4115001
0.4142381
0.416687
0.4202899
0.4252003
0.405981
0.4083981
0.4112043
0.4139137
0.4163156
0.4193855
0.4242996
0.405651
0.407613
0.4102188
0.4127797
0.4155026
0.4184137
0.422292
0.4050383
0.406879
0.4091162
0.4109621
0.4137327
0.4173118
0.4215652
0.404405
0.4060462
0.4083996
0.4104914
0.4123715
0.4154436
0.4195563
0.4043956
0.4060164
0.4080594
0.4097892
0.4115609
0.4136981
0.4171624
0.4041514
0.4058243
0.4076262
0.409497
0.4106826
0.4107327
0.4150699
0.4037486
0.4055239
0.407396
0.4088761
0.409874
0.4107546
0.4034913
0.4051572
0.4065175
0.4081988
0.4090684
0.4098825
0.4036333
0.4050621
0.4068814
0.4085215
0.4094749
0.4108076
0.4035946
0.4049422
0.4067142
0.4083144
0.410022
0.4113944
0.4145595
0.4035689
0.4049436
0.4068776
0.4088739
0.4106852
0.4136453
0.4182089
0.4039773
0.4052964
0.4072761
0.4095768
0.4116755
0.4148098
0.4194159
0.404302
0.405704
0.4083139
0.4101861
0.4130744
0.4158345
0.4200561
0.4043102
0.4056645
0.4091409
0.4112161
0.4134175
0.4166323
0.4210867
0.4048117
0.4064128
0.4091315
0.4115317
0.4141022
0.4171578
0.4219631
0.4050889
0.4065961
0.4096034
0.4119457
0.4145403
0.4173097
0.4234622
0.4052528
0.4070564
0.4097343
0.4125214
0.4148937
0.4183513
0.4247704
0.4053024
0.4070111
0.4098433
0.4124638
0.4156339
0.41894
0.4273462
0.4050893
0.4071535
0.409719
0.4125225
0.4156789
0.42019
0.4282093
0.4047214
0.406799
0.4093395
0.412549
0.4158766
0.4201657
0.4284074
0.4040478
0.4062903
0.4090396
0.4119768
0.4161635
0.4199843
0.4290911
0.4033325
0.4055102
0.4082225
0.4118576
0.4157517
0.4199499
0.4293995
0.4029889
0.4049702
0.4075787
0.4114641
0.4153669
0.4207966
0.430986
0.4029093
0.4044654
0.4068018
0.4101184
0.4144725
0.4209567
0.4309232
0.4029841
0.4044029
0.4063729
0.4093073
0.4140531
0.4204148
0.4292647
0.4030395
0.4043995
0.4063448
0.4091221
0.4133971
0.4194291
0.4292931
0.403083
0.4044152
0.4063844
0.4094551
0.4133011
0.4189166
0.4311022
0.4031159
0.4044233
0.4064341
0.4094263
0.413347
0.4189603
0.4316864
0.4031444
0.4044332
0.4065131
0.4095591
0.4133991
0.4190521
0.4338307
0.4031705
0.404442
0.4066578
0.4096169
0.4134564
0.4191495
0.4340955
0.4031945
0.4044877
0.4067838
0.4096584
0.4135126
0.4192637
0.4346368
0.403219
0.4045419
0.4068226
0.4096969
0.4135658
0.419356
0.4357659
0.4032625
0.4045844
0.4068549
0.409733
0.4136156
0.4194608
0.435815
0.4033219
0.4046734
0.4068801
0.4097665
0.4136624
0.4199294
0.4359385
0.4033354
0.4047049
0.406904
0.4097968
0.4137055
0.4199955
0.4360408
0.4033668
0.4051963
0.407587
0.4098331
0.4137475
0.4200554
0.4361415
0.4034066
0.4052135
0.4076059
0.4098603
0.4137984
0.4204058
0.4362968
0.4034196
0.4052285
0.407626
0.4098849
0.4138391
0.4205817
0.4364727
0.4034295
0.4052415
0.4076445
0.4099081
0.4138744
0.4206225
0.4366683
0.4034402
0.4052539
0.4076621
0.4099303
0.4139118
0.4206611
0.4368864
0.4034504
0.4052654
0.4076784
0.4099517
0.4141014
0.4207117
0.4371565
0.4034583
0.4052763
0.407694
0.4099718
0.414179
0.4207521
0.4374267
0.4034657
0.4052866
0.4077086
0.4099907
0.4142026
0.4207847
0.4377706
0.4034728
0.4052962
0.4077224
0.4100087
0.4142253
0.4208158
0.4381375
0.4034795
0.4053054
0.4077357
0.4100258
0.4142466
0.4208455
0.4385731
0.4034857
0.4053141
0.4077482
0.410042
0.4142669
0.4208739
0.4391072
0.4034917
0.4053227
0.4077604
0.4100619
0.4143664
0.4209013
0.4396341
0.4034973
0.4053312
0.407772
0.4100796
0.4144874
0.4209275
0.4401603
0.4035028
0.4053392
0.407783
0.4100939
0.4145013
0.4209524
0.4406831
0.403508
0.405347
0.4077936
0.4101077
0.4145146
0.4209759
0.4413878
0.403513
0.4053543
0.4078038
0.4101207
0.414527
0.4209978
0.4418616
0.4035179
0.4053615
0.4078136
0.4101335
0.414539
0.4210578
0.4423946
0.4035228
0.4053686
0.4078232
0.4101457
0.4145756
0.4211559
0.4428839
0.4035277
0.4053757
0.4078356
0.4101841
0.4146378
0.4212543
0.4432895
0.4035331
0.4053852
0.4078839
0.4102488
0.4147007
0.421353
0.4436321
0.4035404
0.4054239
0.4079356
0.4103141
0.4147638
0.4214523
0.443976
0.4035706
0.4054659
0.4079899
0.4103799
0.4148244
0.4215563
0.4443224
0.403604
0.4055084
0.4080449
0.4104426
0.4148012
0.4216663
0.4446751
0.4036384
0.4055517
0.4081003
0.4105094
0.4148785
0.4217773
0.4450363
0.4036738
0.4055956
0.4081562
0.4105765
0.4149586
0.4218895
0.4454081
0.4037107
0.4056399
0.4082123
0.4106438
0.4150392
0.4220023
0.4458193
0.4037478
0.4056839
0.4082684
0.4107108
0.4151201
0.4221157
0.4462996
0.4037847
0.4057286
0.4083245
0.4107776
0.4152011
0.4222311
0.4468612
4.143802
4.712498
4.650423
4.650367
4.650367
4.650367
4.650367
4.650367
4.650367
4.650367
4.650367
4.650367
4.650367
4.650367
4.650367
4.650367
4.650367
4.650367
4.431773
4.65651
4.650376
4.650372
4.650372
4.650372
4.650372
4.650372
4.650372
4.650372
4.650372
4.650372
4.650372
4.650372
4.650372
4.650372
4.650372
4.650372
4.406614
4.65829
4.650376
4.650372
4.650372
4.650372
4.650372
4.650372
4.650372
4.650372
4.650372
4.650372
4.650372
4.650372
4.650372
4.650372
4.650372
4.650372
4.391753
4.658041
4.650376
4.650372
4.650372
4.650372
4.650372
4.650372
4.650372
4.650372
4.650372
4.650372
4.650372
4.650372
4.650372
4.650372
4.650372
4.650372
4.375073
4.657882
4.650376
4.650372
4.650372
4.650372
4.650372
4.650372
4.650372
4.650372
4.650372
4.650372
4.650372
4.650372
4.650372
4.650372
4.650372
4.650372
4.355934
4.657948
4.650376
4.650372
4.650372
4.650372
4.650372
4.650372
4.650372
4.650372
4.650372
4.650372
4.650372
4.650372
4.650372
4.650372
4.650372
4.650372
4.334517
4.658076
4.650376
4.650372
4.650372
4.650372
4.650372
4.650372
4.650372
4.650372
4.650372
4.650372
4.650372
4.650372
4.650372
4.650372
4.650372
4.650372
4.311089
4.658263
4.650376
4.650372
4.650372
4.650372
4.650372
4.650372
4.650372
4.650372
4.650372
4.650372
4.650372
4.650372
4.650372
4.650372
4.650372
4.650372
4.285996
4.658578
4.650376
4.650372
4.650372
4.650372
4.650372
4.650372
4.650372
4.650372
4.650372
4.650372
4.650372
4.650372
4.650372
4.650372
4.650372
4.650372
4.259835
4.659145
4.650376
4.650372
4.650372
4.650372
4.650372
4.650372
4.650372
4.650372
4.650372
4.650372
4.650372
4.650372
4.650372
4.650372
4.650372
4.650372
4.232004
4.660376
4.650376
4.650372
4.650372
4.650372
4.650372
4.650372
4.650372
4.650372
4.650372
4.650372
4.650372
4.650372
4.650372
4.650372
4.650372
4.650372
4.183641
4.661819
4.650377
4.650372
4.650372
4.650372
4.650372
4.650372
4.650372
4.650372
4.650372
4.650372
4.650372
4.650372
4.650372
4.650372
4.650372
4.650372
4.135712
4.662599
4.650377
4.650372
4.650372
4.650372
4.650372
4.650372
4.650372
4.650372
4.650372
4.650372
4.650372
4.650372
4.650372
4.650372
4.650372
4.650372
4.086482
4.663568
4.650377
4.650372
4.650372
4.650372
4.650372
4.650372
4.650372
4.650372
4.650372
4.650372
4.650372
4.650372
4.650372
4.650372
4.650372
4.650372
3.827438
4.665401
4.650379
4.650372
4.650373
4.650372
4.650372
4.650372
4.650372
4.650372
4.650372
4.650372
4.650372
4.650372
4.650372
4.650372
4.650372
4.650372
3.754812
4.674995
4.650392
4.650372
4.650373
4.650372
4.650372
4.650372
4.650372
4.650372
4.650372
4.650372
4.650372
4.650372
4.650372
4.650372
4.650372
4.650372
3.682173
4.665712
4.650487
4.650371
4.650373
4.650372
4.650372
4.650372
4.650372
4.650372
4.650372
4.650372
4.650372
4.650372
4.650372
4.650372
4.650372
4.650372
3.600266
4.665553
4.65043
4.650406
4.65037
4.650372
4.650372
4.650372
4.650372
4.650372
4.650372
4.650372
4.650372
4.650372
4.650372
4.650372
4.650372
4.650372
3.519925
4.665122
4.650381
4.650391
4.650391
4.650372
4.650372
4.650372
4.650372
4.650372
4.650372
4.650372
4.650372
4.650372
4.650372
4.650372
4.650372
4.650372
3.440227
4.665011
4.650379
4.650373
4.650378
4.650377
4.650372
4.650372
4.650372
4.650372
4.650372
4.650372
4.650372
4.650372
4.650372
4.650372
4.650372
4.650372
3.361864
4.66466
4.650379
4.650372
4.650372
4.650374
4.650373
4.650372
4.650372
4.650372
4.650372
4.650372
4.650372
4.650372
4.650372
4.650372
4.650372
4.650372
3.289663
4.664615
4.650379
4.650372
4.650372
4.650372
4.650373
4.650373
4.650372
4.650372
4.650372
4.650372
4.650372
4.650372
4.650372
4.650372
4.650372
4.650372
3.221112
4.664217
4.650378
4.650372
4.650372
4.650372
4.650372
4.650372
4.650372
4.650372
4.650372
4.650372
4.650372
4.650372
4.650372
4.650372
4.650372
4.650372
3.152548
4.664155
4.650378
4.650372
4.650372
4.650372
4.650372
4.650372
4.650372
4.650372
4.650372
4.650372
4.650372
4.650372
4.650372
4.650372
4.650372
4.650372
3.085512
4.66403
4.650378
4.650372
4.650372
4.650372
4.650372
4.650372
4.650372
4.650372
4.650372
4.650372
4.650372
4.650372
4.650372
4.650372
4.650372
4.650372
3.019111
4.664053
4.650378
4.650372
4.650373
4.650372
4.650372
4.650372
4.650372
4.650372
4.650372
4.650372
4.650372
4.650372
4.650372
4.650372
4.650372
4.650372
2.950346
4.663757
4.650378
4.650372
4.650373
4.650372
4.650372
4.650372
4.650372
4.650372
4.650372
4.650372
4.650372
4.650372
4.650372
4.650372
4.650372
4.650372
2.882738
4.663619
4.650378
4.650372
4.650373
4.650372
4.650372
4.650372
4.650372
4.650372
4.650372
4.650372
4.650372
4.650372
4.650372
4.650372
4.650372
4.650372
2.815936
4.663614
4.650378
4.650373
4.650375
4.650372
4.650372
4.650372
4.650372
4.650372
4.650372
4.650372
4.650372
4.650372
4.650372
4.650372
4.650372
4.650372
2.748074
4.663173
4.650379
4.650401
4.650412
4.650373
4.650373
4.650372
4.650373
4.650372
4.650372
4.650372
4.650372
4.650372
4.650372
4.650372
4.650372
4.650372
2.67873
4.662502
4.650392
4.653076
4.652927
4.650398
4.650374
4.650371
4.650379
4.650372
4.650372
4.650372
4.650372
4.650372
4.650372
4.650372
4.650372
4.650372
2.611842
4.662046
4.650415
4.655805
4.652879
4.650453
4.650375
4.650519
4.650485
4.650377
4.650372
4.650372
4.650372
4.650372
4.650372
4.650372
4.650372
4.650372
2.546305
4.665168
4.650418
4.652997
4.650264
4.65038
4.650378
4.650391
4.650382
4.650373
4.650372
4.650372
4.650372
4.650373
4.650372
4.650372
4.650372
4.650373
2.474133
4.670502
4.650638
4.657939
4.661699
4.650563
4.650384
4.65038
4.650373
4.650372
4.650372
4.650372
4.650372
4.650372
4.650372
4.650372
4.650373
4.650373
2.284274
4.659315
4.651791
4.675306
4.659092
4.667794
4.650402
4.65039
4.650449
4.650399
4.650372
4.650372
4.650373
4.650373
4.650372
4.650372
4.650372
4.650373
2.218255
4.674522
4.654921
4.650646
4.658659
4.652021
4.650457
4.650919
4.650851
4.650418
4.650373
4.650372
4.650373
4.650373
4.650372
4.650373
4.650376
4.650372
2.125983
4.770812
4.65722
4.651614
4.651364
4.650848
4.650646
4.650387
4.650473
4.650364
4.650348
4.650363
4.650389
4.650373
4.650372
4.650373
4.650375
4.650372
1.249597
4.718971
4.704416
4.676476
4.659141
4.656479
4.654045
4.651392
4.650623
4.651296
4.650448
4.649969
4.650356
4.65034
4.650369
4.650377
4.650374
4.650372
0.5103934
4.791349
4.708398
4.684598
4.667098
4.662615
4.657346
4.652324
4.650435
4.652037
4.649736
4.648204
4.648959
4.649237
4.649873
4.650354
4.650372
4.650372
1.065879
5.022355
4.781177
4.694756
4.671612
4.668161
4.660259
4.658484
4.649906
4.652071
4.648079
4.643251
4.645862
4.645123
4.645072
4.648675
4.650136
4.65036
0.06585295
4.577613
4.806638
4.680891
4.676891
4.673092
4.662644
4.660364
4.649377
4.651463
4.645687
4.640942
4.641774
4.63976
4.64038
4.642893
4.645487
4.648987
0.2367225
4.591263
4.742848
4.689998
4.680696
4.67914
4.66452
4.661566
4.648872
4.650185
4.642554
4.641868
4.636901
4.631703
4.635638
4.635775
4.637903
4.642027
0.4263505
4.712419
4.783819
4.685821
4.68387
4.680075
4.665858
4.662103
4.648467
4.648212
4.6386
4.6378
4.631313
4.629277
4.628781
4.627805
4.629286
4.635853
0.4322754
4.735844
4.773386
4.685367
4.691995
4.678912
4.666656
4.661901
4.648058
4.645577
4.634317
4.633611
4.625038
4.625514
4.621216
4.61918
4.624148
4.62491
0.3927349
4.616273
4.872165
4.706595
4.688362
4.679359
4.667226
4.660956
4.648195
4.642525
4.636788
4.628278
4.620248
4.618871
4.613049
4.61496
4.613101
4.618335
0.3910784
4.374296
4.876653
4.764316
4.705937
4.680488
4.666496
4.659354
4.647909
4.638384
4.635751
4.622896
4.621119
4.611679
4.608798
4.605089
4.608422
4.607792
0.4156003
4.036941
5.003375
4.798807
4.698281
4.681806
4.665019
4.655236
4.647401
4.63385
4.632113
4.620133
4.615294
4.608298
4.60195
4.601156
4.597743
4.601687
0.4549953
2.998058
4.879552
4.784457
4.710582
4.684968
4.663469
4.653658
4.647175
4.637652
4.625364
4.624438
4.611798
4.604187
4.596957
4.592669
4.591124
4.591853
0.4642025
1.787899
4.635885
4.886908
4.82555
4.680796
4.660459
4.653912
4.641034
4.639266
4.629514
4.618312
4.611453
4.602857
4.591414
4.590899
4.584351
4.585131
0.4556734
1.193825
4.126013
4.858959
4.730377
4.706255
4.643524
4.621933
4.610708
4.600681
4.591841
4.585699
4.584227
4.577714
0.4257231
0.04812573
4.669316
4.635009
4.614368
4.600522
4.590508
4.579777
4.576943
4.577347
0.4253963
4.702025
4.6194
4.598768
4.587701
4.581915
4.573436
4.569218
4.619353
4.596356
4.588424
4.57755
4.569112
4.564605
4.615934
4.589692
4.577396
4.568317
4.563174
4.666039
4.59569
4.574464
4.565197
4.559402
4.627173
4.589654
4.574239
4.564274
4.558734
4.600464
4.586043
4.572216
4.562382
4.556699
4.57612
4.585024
4.570033
4.560199
4.554681
4.651043
4.583259
4.566201
4.560232
4.555059
4.662192
4.605021
4.579003
4.566978
4.558694
4.558128
0.4272566
4.623135
4.590279
4.577455
4.565437
4.558038
4.554873
0.4306249
0.5869565
4.648364
4.602545
4.583194
4.572131
4.564936
4.559931
4.557724
0.4356953
1.059016
3.837381
4.687098
4.665838
4.607935
4.598359
4.588719
4.573742
4.564919
4.559763
4.561591
0.4592126
1.375392
4.514122
4.839891
4.758359
4.661045
4.643579
4.643501
4.698563
4.638028
4.616059
4.596052
4.587082
4.580177
4.571884
4.565037
4.564252
4.56437
0.4787263
2.338706
4.906793
4.802197
4.700396
4.653587
4.637944
4.62987
4.624665
4.616062
4.599588
4.595269
4.587595
4.575047
4.57051
4.569587
4.566342
4.571086
0.4705713
3.395641
4.834386
4.746179
4.67808
4.661605
4.635269
4.6245
4.618778
4.612141
4.599803
4.594457
4.584238
4.580626
4.574434
4.571156
4.57468
4.575795
0.3872113
4.094174
4.99105
4.764721
4.660475
4.647408
4.633442
4.625862
4.615171
4.606218
4.601205
4.589539
4.587787
4.581895
4.580055
4.58008
4.579197
4.586895
0.3546165
4.379949
4.783738
4.77746
4.680218
4.644416
4.631787
4.62557
4.613659
4.602807
4.602763
4.594208
4.591624
4.586936
4.586803
4.584726
4.590965
4.594322
0.3508898
4.551459
4.756792
4.666689
4.652557
4.643485
4.63123
4.626145
4.612885
4.610057
4.603021
4.599018
4.592564
4.594083
4.587831
4.596345
4.599273
4.607177
0.3645037
4.708585
4.747473
4.652558
4.659125
4.64346
4.631488
4.62751
4.61426
4.614067
4.608788
4.60544
4.600863
4.603397
4.602506
4.607119
4.611303
4.619354
0.335014
4.764254
4.761021
4.655957
4.651419
4.654868
4.632762
4.629704
4.61721
4.618696
4.614004
4.612734
4.60931
4.606716
4.613132
4.612684
4.62362
4.629673
0.1022799
4.649807
4.833734
4.669917
4.650477
4.651754
4.634865
4.632634
4.621647
4.624335
4.615513
4.62114
4.618999
4.619383
4.624473
4.628451
4.636024
4.643013
0.001376588
4.513998
4.830332
4.655522
4.651545
4.647993
4.637792
4.636249
4.627355
4.630595
4.622729
4.626072
4.628951
4.630419
4.633545
4.640549
4.646657
4.650087
0.1510397
4.942352
4.726261
4.656541
4.651474
4.648473
4.641349
4.637666
4.634138
4.637185
4.635485
4.636676
4.6389
4.641475
4.645518
4.649722
4.6502
4.650335
0.4725146
5.030472
4.703651
4.653778
4.652204
4.649236
4.645162
4.642039
4.641614
4.643892
4.643811
4.646311
4.648259
4.649839
4.650191
4.650326
4.65036
4.650371
1.756285
4.809372
4.693923
4.65928
4.651542
4.650393
4.649177
4.648651
4.649044
4.649847
4.650139
4.650327
4.650302
4.650326
4.650356
4.650373
4.650373
4.650372
1.992731
4.665803
4.655102
4.652351
4.651433
4.650501
4.650509
4.650375
4.650333
4.650359
4.65035
4.650362
4.650374
4.65037
4.650372
4.650373
4.650378
4.650372
2.11976
4.705319
4.65119
4.650822
4.659794
4.649034
4.65046
4.650825
4.650734
4.650445
4.650371
4.650372
4.650373
4.650372
4.650372
4.650372
4.650381
4.650372
2.253801
4.822645
4.653532
4.691248
4.664074
4.663342
4.650399
4.650393
4.650426
4.650418
4.650372
4.650372
4.650373
4.650372
4.650372
4.650372
4.650373
4.650372
2.476267
4.780582
4.652493
4.669992
4.667008
4.65084
4.650382
4.650383
4.650374
4.650373
4.650372
4.650372
4.650372
4.650373
4.650372
4.650372
4.650373
4.650373
2.553198
4.677979
4.650703
4.652961
4.651501
4.650382
4.650376
4.650374
4.650361
4.650372
4.650372
4.650372
4.650372
4.650373
4.650372
4.650372
4.650372
4.650373
2.62708
4.680902
4.650399
4.656055
4.652896
4.650397
4.650374
4.650663
4.650576
4.650374
4.650372
4.650372
4.650372
4.650372
4.650372
4.650372
4.650372
4.650372
2.700486
4.680478
4.650408
4.654268
4.655218
4.650392
4.650373
4.65039
4.650377
4.650372
4.650372
4.650372
4.650372
4.650372
4.650372
4.650372
4.650372
4.650372
2.77344
4.678407
4.650387
4.650458
4.650494
4.650373
4.650373
4.650373
4.650373
4.650372
4.650372
4.650372
4.650372
4.650372
4.650372
4.650372
4.650372
4.650372
2.84302
4.676784
4.650382
4.650374
4.650379
4.650373
4.650372
4.650372
4.650372
4.650372
4.650372
4.650372
4.650372
4.650372
4.650372
4.650372
4.650372
4.650372
2.91459
4.675292
4.650381
4.650372
4.650375
4.650372
4.650372
4.650372
4.650372
4.650372
4.650372
4.650372
4.650372
4.650372
4.650372
4.650372
4.650372
4.650372
2.984704
4.673993
4.650381
4.650372
4.650374
4.650372
4.650372
4.650372
4.650372
4.650372
4.650372
4.650372
4.650372
4.650372
4.650372
4.650372
4.650372
4.650372
3.052637
4.672618
4.65038
4.650372
4.650373
4.650372
4.650372
4.650372
4.650372
4.650372
4.650372
4.650372
4.650372
4.650372
4.650372
4.650372
4.650372
4.650372
3.119913
4.671688
4.65038
4.650372
4.650373
4.650372
4.650372
4.650372
4.650372
4.650372
4.650372
4.650372
4.650372
4.650372
4.650372
4.650372
4.650372
4.650372
3.190057
4.670491
4.65038
4.650372
4.650373
4.650372
4.650372
4.650372
4.650372
4.650372
4.650372
4.650372
4.650372
4.650372
4.650372
4.650372
4.650372
4.650372
3.257694
4.669958
4.65038
4.650372
4.650372
4.650372
4.650372
4.650373
4.650372
4.650372
4.650372
4.650372
4.650372
4.650372
4.650372
4.650372
4.650372
4.650372
3.328131
4.669393
4.65038
4.650372
4.650372
4.650372
4.650373
4.650373
4.650372
4.650372
4.650372
4.650372
4.650372
4.650372
4.650372
4.650372
4.650372
4.650372
3.398516
4.669205
4.65038
4.650372
4.650372
4.650375
4.650374
4.650372
4.650372
4.650372
4.650372
4.650372
4.650372
4.650372
4.650372
4.650372
4.650372
4.650372
3.474479
4.668364
4.65038
4.650373
4.650384
4.650379