/*--------------------------------*- C++ -*----------------------------------*\
| =========                 |                                                 |
| \\      /  F ield         | OpenFOAM: The Open Source CFD Toolbox           |
|  \\    /   O peration     | Version:  2206                                  |
|   \\  /    A nd           | Website:  www.openfoam.com                      |
|    \\/     M anipulation  |                                                 |
\*---------------------------------------------------------------------------*/
FoamFile
{
    version     2.0;
    format      ascii;
    arch        "LSB;label=32;scalar=64";
    class       volScalarField;
    location    "1.6";
    object      omega.b;
}
// * * * * * * * * * * * * * * * * * * * * * * * * * * * * * * * * * * * * * //

dimensions      [0 0 -1 0 0 0 0];

internalField   nonuniform List<scalar> 
13078
(
6.495683
0.4787884
0.3977462
0.3975828
0.3985463
0.3996729
0.4009775
6.57947
0.4658286
0.3971523
0.3975095
0.3985097
0.3996447
0.4009488
6.585492
0.4637492
0.3970567
0.3974381
0.3984615
0.3996079
0.4009151
6.591679
0.4628097
0.3969996
0.3973837
0.3984166
0.3995704
0.4008799
6.598133
0.4624854
0.3969673
0.3973589
0.3983799
0.399535
0.4008454
6.604802
0.4623319
0.3969524
0.3973442
0.3983655
0.3995046
0.4008123
6.611848
0.4623106
0.3969502
0.3973321
0.3983558
0.3994945
0.4007829
6.619131
0.4623623
0.3969534
0.3973253
0.3983499
0.3994879
0.4007747
6.626655
0.4624172
0.3969535
0.3973233
0.3983465
0.399483
0.4007689
6.634488
0.4625068
0.3969551
0.3973224
0.3983441
0.3994794
0.4007642
6.642682
0.4626196
0.3969569
0.3973218
0.3983422
0.3994763
0.40076
6.651186
0.4627499
0.3969586
0.3973214
0.3983407
0.3994736
0.4007562
6.660084
0.4628946
0.3969602
0.3973207
0.3983393
0.399471
0.4007525
6.669375
0.4630525
0.3969617
0.3973196
0.3983373
0.3994684
0.4007488
6.679072
0.4632222
0.3969633
0.3973133
0.3983275
0.3994649
0.4007451
6.689206
0.4634034
0.3969648
0.3973052
0.3983196
0.3994616
0.4007411
6.69983
0.4635951
0.3969661
0.3973031
0.3983169
0.3994586
0.4007371
6.710875
0.4637973
0.3969673
0.3973013
0.3983143
0.3994554
0.4007328
6.722538
0.4640119
0.3969685
0.3972993
0.3983113
0.3994512
0.4007283
6.734686
0.4642378
0.3969696
0.3972966
0.3983001
0.3994351
0.4007225
6.747501
0.4644775
0.3969708
0.3972935
0.3982863
0.3994219
0.4007165
6.760848
0.4647307
0.3969721
0.397291
0.3982817
0.3994167
0.400711
6.774919
0.4649993
0.3969733
0.3972882
0.3982777
0.3994109
0.400704
6.789678
0.4652851
0.3969747
0.3972852
0.3982723
0.3993935
0.4006793
6.805169
0.4655898
0.3969764
0.3972819
0.3982666
0.3993725
0.4006589
6.821431
0.4659159
0.396978
0.3972784
0.3982614
0.3993641
0.4006495
6.838694
0.4662601
0.39698
0.3972747
0.3982558
0.3993563
0.4006394
6.860782
0.466667
0.3969832
0.3972708
0.3982496
0.3993469
0.4006121
6.889512
0.4670319
0.3969852
0.3972666
0.3982429
0.3993366
0.4005787
6.964901
0.4680345
0.3970004
0.3972621
0.3982359
0.399327
0.4005642
7.077898
0.4691291
0.3969933
0.3972571
0.3982283
0.3993164
0.4005486
7.116327
0.4709019
0.3969699
0.3972502
0.3982199
0.399305
0.4005319
7.153721
0.473162
0.3970169
0.3972354
0.3982092
0.3992925
0.4005161
7.186841
0.473994
0.3970364
0.397225
0.3981973
0.3992779
0.4004987
7.221337
0.4748552
0.3970427
0.3972075
0.398178
0.3992582
0.4004785
7.257501
0.4757815
0.3970516
0.397178
0.398142
0.3992254
0.4004522
7.2953
0.4767357
0.3970592
0.3971631
0.3980952
0.3992021
0.400423
7.335032
0.4776757
0.3970632
0.3971474
0.3980688
0.3991547
0.4003785
7.385165
0.4785223
0.3970615
0.3971239
0.3980329
0.3990627
0.4003368
7.498022
0.4800878
0.3970537
0.3970724
0.3979594
0.3989588
0.4002207
7.673721
0.4833091
0.3969434
0.3969494
0.3977943
0.3987789
0.4000394
7.748891
0.4862919
0.3968435
0.3967087
0.397533
0.3986936
0.4004489
7.810542
0.4869983
0.3965684
0.3963887
0.3974266
0.3991035
0.4013646
7.878358
0.4874513
0.3962437
0.3961753
0.397795
0.3999694
0.4022702
7.986775
0.48887
0.3960738
0.3964736
0.3984228
0.4007155
0.4030781
8.166373
0.4930044
0.3962045
0.3970854
0.3990526
0.4011256
0.4034746
8.255055
0.4998177
0.3967916
0.3975401
0.3994604
0.401434
0.4034547
8.326969
0.5069438
0.3973671
0.3977753
0.3995931
0.4014416
0.4035082
8.399242
0.5154139
0.3978435
0.3979403
0.3995666
0.4013631
0.403258
8.475981
0.5236903
0.3982016
0.398055
0.3996365
0.4012276
0.4028544
8.591898
0.5343807
0.3984359
0.3981242
0.3996091
0.4010535
0.4025018
8.867333
0.5482124
0.3988658
0.398327
0.3996872
0.400955
0.4022044
8.985151
0.556792
0.3992514
0.3981424
0.3995403
0.4008897
0.402033
9.044491
0.5612542
0.3992697
0.3980328
0.3994976
0.4009075
0.4019833
9.079084
0.5640492
0.3992443
0.397925
0.3994059
0.4007772
0.4018126
9.095787
0.566373
0.3992117
0.3977728
0.3991955
0.4004842
0.4015019
9.095272
0.5651351
0.3990429
0.3976343
0.399059
0.4003198
0.4012664
9.078416
0.5608902
0.3989518
0.3977103
0.3991436
0.4004341
0.4013799
9.043795
0.55634
0.3988801
0.3977513
0.3991202
0.400392
0.4013214
8.983992
0.5498892
0.3986462
0.3976543
0.3989139
0.4000967
0.4011959
8.865933
0.5397829
0.3980845
0.3976336
0.3989259
0.400141
0.4013107
8.590567
0.5255522
0.3977759
0.3976388
0.3989783
0.4002283
0.4014472
8.475203
0.5145043
0.3975379
0.3974492
0.3988128
0.400126
0.4014459
8.398762
0.506326
0.3971701
0.3972618
0.3986188
0.400078
0.4017413
8.326925
0.4989319
0.396747
0.3970827
0.3986615
0.4002829
0.4020078
8.255055
0.4938434
0.3963123
0.3969674
0.3986134
0.4002202
0.4018821
8.166373
0.4892107
0.3959204
0.3966232
0.398252
0.3999644
0.4019901
7.986775
0.4864263
0.3959097
0.3961766
0.3977783
0.3997167
0.4017309
7.878358
0.4857945
0.3961318
0.3960475
0.3973994
0.3991954
0.4011307
7.810543
0.4857896
0.3964862
0.3963024
0.3972438
0.3986319
0.4005326
7.749105
0.4854403
0.3967914
0.3966462
0.3974477
0.3985319
0.4000423
7.678124
0.483338
0.3969337
0.3969092
0.3977507
0.3987243
0.399932
7.53547
0.4809727
0.3970415
0.3970511
0.3979364
0.3989299
0.4001816
7.439012
0.4797704
0.3970622
0.3971114
0.3980168
0.3990443
0.4003163
7.388639
0.4789853
0.3970658
0.3971354
0.3980565
0.3991444
0.4003649
7.344496
0.4776598
0.3970551
0.3971549
0.3980996
0.3991969
0.4004119
7.300795
0.4764628
0.3970564
0.3971723
0.3981426
0.3992219
0.4004441
7.237691
0.4753917
0.3970524
0.3972026
0.3981704
0.3992516
0.4004707
7.19073
0.4744361
0.3970443
0.397221
0.3981921
0.3992719
0.400492
7.154754
0.4736292
0.3970255
0.397232
0.3982048
0.3992875
0.4005106
7.116392
0.4713531
0.3969776
0.3972474
0.3982163
0.3993008
0.4005274
7.077898
0.469567
0.3970016
0.3972547
0.3982253
0.399313
0.4005448
6.964901
0.4684171
0.3970083
0.3972602
0.3982334
0.3993242
0.4005612
6.889512
0.4674181
0.3969927
0.3972649
0.3982409
0.3993342
0.400576
6.860782
0.4670253
0.3969902
0.3972693
0.3982479
0.399345
0.4006099
6.838694
0.4665912
0.3969865
0.3972735
0.3982543
0.3993546
0.4006376
6.821431
0.4662179
0.3969839
0.3972775
0.3982601
0.3993626
0.4006479
6.805169
0.4658636
0.3969818
0.3972812
0.3982656
0.3993713
0.4006576
6.789678
0.4655319
0.3969797
0.3972844
0.3982714
0.3993926
0.4006782
6.774919
0.4652207
0.3969778
0.3972876
0.3982768
0.39941
0.4007031
6.760848
0.4649285
0.3969761
0.3972905
0.398281
0.3994159
0.4007101
6.747501
0.4646535
0.3969743
0.3972932
0.3982859
0.3994213
0.4007158
6.734686
0.4643938
0.3969728
0.3972963
0.3982997
0.3994347
0.400722
6.722538
0.4641495
0.3969714
0.3972992
0.398311
0.3994509
0.400728
6.710875
0.4639179
0.39697
0.3973012
0.3983141
0.3994552
0.4007325
6.69983
0.4637
0.3969685
0.3973031
0.3983168
0.3994583
0.4007367
6.689206
0.4634936
0.396967
0.3973054
0.3983196
0.3994614
0.4007409
6.679072
0.4632986
0.3969654
0.3973135
0.3983275
0.3994648
0.4007449
6.669375
0.4631154
0.3969637
0.39732
0.3983374
0.3994683
0.4007486
6.660084
0.4629439
0.3969622
0.3973212
0.3983394
0.3994709
0.4007522
6.651186
0.4627849
0.3969604
0.3973219
0.3983408
0.3994733
0.4007556
6.642682
0.4626389
0.3969587
0.3973225
0.3983423
0.3994758
0.4007591
6.634488
0.4625077
0.3969568
0.397323
0.3983438
0.3994783
0.4007628
6.626655
0.4623947
0.396955
0.3973235
0.3983454
0.3994812
0.4007668
6.619131
0.4623082
0.396954
0.3973245
0.3983476
0.3994849
0.4007716
6.611848
0.4622115
0.3969488
0.3973292
0.3983514
0.3994897
0.4007784
6.604802
0.4621669
0.3969465
0.3973373
0.3983575
0.3994972
0.400806
6.598133
0.4622216
0.396952
0.3973448
0.3983668
0.3995243
0.4008372
6.591679
0.4623714
0.3969666
0.3973588
0.3983968
0.3995561
0.4008701
6.585492
0.4627806
0.3969954
0.3973979
0.3984346
0.3995911
0.4009048
6.57947
0.4632012
0.3970369
0.3974529
0.3984788
0.3996286
0.4009402
6.495683
0.4619192
0.3971146
0.3975267
0.398531
0.3996678
0.4009755
0.402517
0.4044546
0.4070428
0.4095219
0.4139387
0.4209647
0.4405267
0.4024842
0.4044122
0.4069869
0.409456
0.4138575
0.4208488
0.4452114
0.4024486
0.4043692
0.4069333
0.4103106
0.4137846
0.4207355
0.4447043
0.402412
0.4043257
0.4068764
0.4093235
0.4136975
0.4206226
0.444242
0.4023762
0.404282
0.4068219
0.4092519
0.4136167
0.4205101
0.4438606
0.4023408
0.4042384
0.4067662
0.4091845
0.4135369
0.4203985
0.4434926
0.4023065
0.4041953
0.406711
0.4091194
0.4135149
0.4202885
0.4431365
0.4022753
0.4041527
0.4066564
0.4090556
0.4134943
0.4201798
0.4427891
0.4022672
0.4041135
0.4066043
0.4089906
0.4134309
0.4200805
0.4424483
0.4022612
0.4041035
0.4065558
0.408926
0.413368
0.4199818
0.4421121
0.4022559
0.4040962
0.4065432
0.4088633
0.4133056
0.4198837
0.4417743
0.4022507
0.4040888
0.4065335
0.4088497
0.4132428
0.4197858
0.441398
0.4022456
0.4040814
0.4065235
0.4088377
0.4132321
0.4196861
0.4409127
0.4022405
0.404074
0.4065133
0.4088251
0.4132202
0.4196667
0.4405486
0.4022353
0.4040663
0.4065027
0.408812
0.4132075
0.4196446
0.4399466
0.4022298
0.4040582
0.4064917
0.4087984
0.413194
0.4196207
0.4392806
0.4022242
0.4040498
0.4064803
0.4087839
0.4131743
0.4195958
0.4387401
0.4022183
0.4040413
0.4064682
0.4087621
0.4129829
0.4195693
0.4381939
0.4022122
0.4040328
0.4064559
0.4087463
0.4129577
0.4195422
0.4377302
0.4022057
0.4040238
0.4064428
0.4087299
0.4129371
0.4195137
0.4372214
0.4021989
0.4040144
0.4064293
0.4087126
0.4129155
0.419484
0.4367074
0.4021916
0.4040044
0.4064152
0.4086944
0.412893
0.4194528
0.4363443
0.4021839
0.4039937
0.4063992
0.4086768
0.4128653
0.4194203
0.4360164
0.4021738
0.4039824
0.4063851
0.4095139
0.4126926
0.4193701
0.4357267
0.4021635
0.4039703
0.4063654
0.4086427
0.4125959
0.4193293
0.4354919
0.4021539
0.4039578
0.4063491
0.4086114
0.4125621
0.419291
0.435264
0.4021412
0.4039432
0.4063291
0.4085866
0.412527
0.4192447
0.4350848
0.402102
0.4039265
0.4063105
0.4085607
0.4124788
0.4188641
0.4349126
0.4020711
0.4034278
0.4056443
0.408532
0.4124349
0.4187187
0.4347801
0.4020581
0.4034092
0.4056186
0.4085017
0.4123943
0.4186633
0.4346814
0.4019999
0.4033483
0.4055957
0.4084709
0.4123516
0.4184067
0.4345589
0.4019575
0.4032865
0.4055707
0.4084376
0.4123051
0.4181026
0.4344685
0.4019341
0.40321
0.4055353
0.408402
0.412256
0.4180237
0.4344077
0.4019116
0.4031739
0.4054402
0.4083643
0.4122042
0.4179083
0.4326331
0.4018872
0.4031499
0.4053555
0.408319
0.4121501
0.4178162
0.4327093
0.4018606
0.4031288
0.4051963
0.4082598
0.4120979
0.4177363
0.4289685
0.4018303
0.4031103
0.4051401
0.4080752
0.4120608
0.4176573
0.4306653
0.4017905
0.4030971
0.4051014
0.4080092
0.4120045
0.4177524
0.4301663
0.401744
0.4030867
0.4050898
0.4079115
0.412325
0.4189085
0.4290861
0.4016923
0.4031355
0.4054172
0.4088739
0.4138216
0.420652
0.4299157
0.4020471
0.4036774
0.4067557
0.4106561
0.4151399
0.4215241
0.4318313
0.4028504
0.4047867
0.4082458
0.4120112
0.4161069
0.4209887
0.4313047
0.4039426
0.4059324
0.4091385
0.4126816
0.4166922
0.4208631
0.4306763
0.4049426
0.4069682
0.4100884
0.4134844
0.4170257
0.4214171
0.4309425
0.4056518
0.4078736
0.410655
0.4138374
0.4173217
0.4217821
0.4307687
0.4059382
0.4083109
0.4110237
0.414028
0.4171266
0.4211308
0.4304814
0.4059555
0.4085255
0.4111887
0.4138167
0.416592
0.4204708
0.4279927
0.4057551
0.4083229
0.4107647
0.4133726
0.4161307
0.4194463
0.4248939
0.4053823
0.4076537
0.4103395
0.4130695
0.4155042
0.4190894
0.4239781
0.4048479
0.4072603
0.4100509
0.4127529
0.4151351
0.4181828
0.4230744
0.4045209
0.4064788
0.4090733
0.4116193
0.4143199
0.4172062
0.4210606
0.4039155
0.405752
0.40797
0.4097998
0.4125478
0.4161032
0.4203225
0.4032845
0.4049205
0.4072521
0.4093302
0.4111871
0.4142226
0.418311
0.4032834
0.4048857
0.4069209
0.4086338
0.410387
0.4124918
0.4159218
0.40304
0.404695
0.4064862
0.4083414
0.4095058
0.4095295
0.4138332
0.4026347
0.4043947
0.4062566
0.4077222
0.4087015
0.4095563
0.4023729
0.4040272
0.4053747
0.4070372
0.4078891
0.4086821
0.4025116
0.4039346
0.4057364
0.4073611
0.4082971
0.4096064
0.402466
0.4038081
0.4055606
0.4071482
0.4088343
0.4101785
0.4133153
0.4024307
0.4037972
0.4057216
0.4076996
0.4094848
0.4124166
0.4169317
0.402837
0.4041478
0.4061101
0.4083912
0.4104624
0.4135721
0.4181536
0.4031523
0.4045439
0.407134
0.4089981
0.4118684
0.4145981
0.4187922
0.4031501
0.404501
0.4079635
0.410021
0.4122027
0.415395
0.4198188
0.4036456
0.4052386
0.4079406
0.4103298
0.4128826
0.4159174
0.4206932
0.4039075
0.4054063
0.4084087
0.4107337
0.4133157
0.4160635
0.4222014
0.4040621
0.4058613
0.4085245
0.4113095
0.4136581
0.4171068
0.4234928
0.4040991
0.4057998
0.4086268
0.4112345
0.4144017
0.4176834
0.426054
0.4038719
0.405936
0.4084916
0.4112875
0.4144307
0.4189383
0.4269099
0.403495
0.4055683
0.4081008
0.4113048
0.4146228
0.4188974
0.4271093
0.4028128
0.405054
0.4078
0.410724
0.414907
0.4187116
0.427794
0.4020868
0.4042684
0.4069729
0.4106007
0.4144815
0.4186655
0.4281025
0.4017288
0.4037151
0.4063244
0.4102053
0.4140905
0.4195128
0.4296791
0.4016441
0.4031975
0.4055343
0.4088474
0.4131882
0.41966
0.4296048
0.4017184
0.4031326
0.4050978
0.4080266
0.4127649
0.4191139
0.4279414
0.4017737
0.4031292
0.4050693
0.4078389
0.4121023
0.4181189
0.4279647
0.401817
0.4031449
0.4051087
0.4081698
0.4120054
0.4176046
0.4297679
0.4018497
0.4031529
0.4051581
0.4081414
0.4120507
0.4176482
0.4303439
0.4018779
0.4031628
0.4052367
0.4082737
0.4121024
0.4177394
0.4324861
0.401904
0.4031716
0.4053809
0.4083312
0.4121595
0.4178363
0.432746
0.4019278
0.403217
0.4055065
0.4083725
0.4122154
0.4179499
0.4332804
0.4019522
0.4032711
0.4055451
0.4084108
0.4122683
0.4180418
0.4344064
0.4019956
0.4033135
0.4055772
0.4084467
0.4123178
0.4181461
0.4344554
0.4020547
0.4034022
0.4056023
0.4084801
0.4123645
0.4186132
0.4345786
0.4020682
0.4034336
0.4056261
0.4085103
0.4124073
0.418679
0.434681
0.4020995
0.4039235
0.406307
0.4085464
0.4124492
0.4187387
0.4347818
0.4021391
0.4039406
0.4063258
0.4085735
0.4124999
0.419088
0.4349372
0.4021521
0.4039555
0.4063459
0.408598
0.4125405
0.4192633
0.4351131
0.402162
0.4039686
0.4063643
0.4086211
0.4125756
0.4193039
0.4353087
0.4021726
0.4039809
0.4063818
0.4086433
0.4126129
0.4193423
0.4355269
0.4021828
0.4039924
0.4063981
0.4086645
0.4128019
0.4193928
0.435797
0.4021906
0.4040032
0.4064136
0.4086846
0.4128792
0.419433
0.4360672
0.4021981
0.4040135
0.4064282
0.4087034
0.4129027
0.4194654
0.4364112
0.4022051
0.4040231
0.406442
0.4087214
0.4129253
0.4194964
0.4367781
0.4022118
0.4040322
0.4064552
0.4087383
0.4129465
0.419526
0.437214
0.402218
0.4040408
0.4064676
0.4087545
0.4129668
0.4195543
0.4377483
0.4022239
0.4040494
0.4064798
0.4087743
0.413066
0.4195815
0.4382758
0.4022295
0.4040579
0.4064913
0.408792
0.4131866
0.4196076
0.4388029
0.402235
0.4040659
0.4065023
0.4088062
0.4132004
0.4196325
0.4393274
0.4022401
0.4040736
0.4065129
0.4088199
0.4132137
0.4196558
0.4400367
0.4022452
0.4040809
0.406523
0.408833
0.413226
0.4196777
0.4405147
0.40225
0.404088
0.4065328
0.4088457
0.4132379
0.4197375
0.4410517
0.4022549
0.4040952
0.4065423
0.4088579
0.4132745
0.4198353
0.4415462
0.4022598
0.4041022
0.4065547
0.4088961
0.4133365
0.4199334
0.4419592
0.4022651
0.4041117
0.4066029
0.4089606
0.4133991
0.4200318
0.442301
0.4022724
0.4041502
0.4066544
0.4090257
0.413462
0.4201308
0.4426441
0.4023026
0.4041921
0.4067085
0.4090914
0.4135225
0.4202345
0.4429895
0.4023359
0.4042346
0.4067633
0.4091538
0.4134993
0.4203441
0.4433413
0.4023702
0.4042777
0.4068186
0.4092205
0.4135764
0.4204547
0.4437016
0.4024055
0.4043215
0.4068743
0.4092873
0.4136562
0.4205666
0.4440725
0.4024423
0.4043657
0.4069303
0.4093545
0.4137366
0.420679
0.4444828
0.4024794
0.4044096
0.4069862
0.4094212
0.4138172
0.4207921
0.4449618
0.4025161
0.4044541
0.4070422
0.4094879
0.4138981
0.4209072
0.4455073
4.135254
4.704908
4.64223
4.642173
4.642172
4.642172
4.642172
4.642172
4.642172
4.642172
4.642172
4.642172
4.642172
4.642172
4.642172
4.642172
4.642172
4.642172
4.423177
4.648287
4.642182
4.642178
4.642178
4.642178
4.642178
4.642178
4.642178
4.642178
4.642178
4.642178
4.642178
4.642178
4.642178
4.642178
4.642178
4.642178
4.398042
4.650142
4.642181
4.642178
4.642178
4.642178
4.642178
4.642178
4.642178
4.642178
4.642178
4.642178
4.642178
4.642178
4.642178
4.642178
4.642178
4.642178
4.383174
4.649892
4.642181
4.642178
4.642178
4.642178
4.642178
4.642178
4.642178
4.642178
4.642178
4.642178
4.642178
4.642178
4.642178
4.642178
4.642178
4.642178
4.366479
4.649729
4.642181
4.642178
4.642178
4.642178
4.642178
4.642178
4.642178
4.642178
4.642178
4.642178
4.642178
4.642178
4.642178
4.642178
4.642178
4.642178
4.347319
4.649795
4.642181
4.642178
4.642178
4.642178
4.642178
4.642178
4.642178
4.642178
4.642178
4.642178
4.642178
4.642178
4.642178
4.642178
4.642178
4.642178
4.325876
4.649924
4.642181
4.642178
4.642178
4.642178
4.642178
4.642178
4.642178
4.642178
4.642178
4.642178
4.642178
4.642178
4.642178
4.642178
4.642178
4.642178
4.302424
4.650118
4.642182
4.642178
4.642178
4.642178
4.642178
4.642178
4.642178
4.642178
4.642178
4.642178
4.642178
4.642178
4.642178
4.642178
4.642178
4.642178
4.27731
4.650447
4.642182
4.642178
4.642178
4.642178
4.642178
4.642178
4.642178
4.642178
4.642178
4.642178
4.642178
4.642178
4.642178
4.642178
4.642178
4.642178
4.251138
4.651042
4.642182
4.642178
4.642178
4.642178
4.642178
4.642178
4.642178
4.642178
4.642178
4.642178
4.642178
4.642178
4.642178
4.642178
4.642178
4.642178
4.222968
4.652329
4.642182
4.642178
4.642178
4.642178
4.642178
4.642178
4.642178
4.642178
4.642178
4.642178
4.642178
4.642178
4.642178
4.642178
4.642178
4.642178
4.173608
4.653735
4.642182
4.642178
4.642178
4.642178
4.642178
4.642178
4.642178
4.642178
4.642178
4.642178
4.642178
4.642178
4.642178
4.642178
4.642178
4.642178
4.125834
4.654489
4.642183
4.642178
4.642178
4.642178
4.642178
4.642178
4.642178
4.642178
4.642178
4.642178
4.642178
4.642178
4.642178
4.642178
4.642178
4.642178
4.075869
4.655447
4.642183
4.642178
4.642178
4.642178
4.642178
4.642178
4.642178
4.642178
4.642178
4.642178
4.642178
4.642178
4.642178
4.642178
4.642178
4.642178
3.818351
4.657259
4.642184
4.642178
4.642178
4.642178
4.642178
4.642178
4.642178
4.642178
4.642178
4.642178
4.642178
4.642178
4.642178
4.642178
4.642178
4.642178
3.746072
4.666886
4.6422
4.642178
4.642178
4.642178
4.642178
4.642178
4.642178
4.642178
4.642178
4.642178
4.642178
4.642178
4.642178
4.642178
4.642178
4.642178
3.673678
4.657558
4.642293
4.642177
4.642178
4.642178
4.642178
4.642178
4.642178
4.642178
4.642178
4.642178
4.642178
4.642178
4.642178
4.642178
4.642178
4.642178
3.591966
4.657406
4.642236
4.642212
4.642176
4.642178
4.642178
4.642178
4.642178
4.642178
4.642178
4.642178
4.642178
4.642178
4.642178
4.642178
4.642178
4.642178
3.511824
4.656976
4.642187
4.642197
4.642196
4.642178
4.642178
4.642178
4.642178
4.642178
4.642178
4.642178
4.642178
4.642178
4.642178
4.642178
4.642178
4.642178
3.432332
4.656872
4.642185
4.642179
4.642183
4.642182
4.642178
4.642178
4.642178
4.642178
4.642178
4.642178
4.642178
4.642178
4.642178
4.642178
4.642178
4.642178
3.354187
4.656523
4.642185
4.642178
4.642178
4.64218
4.642179
4.642178
4.642178
4.642178
4.642178
4.642178
4.642178
4.642178
4.642178
4.642178
4.642178
4.642178
3.28217
4.656482
4.642184
4.642178
4.642178
4.642178
4.642179
4.642178
4.642178
4.642178
4.642178
4.642178
4.642178
4.642178
4.642178
4.642178
4.642178
4.642178
3.213794
4.65608
4.642184
4.642178
4.642178
4.642178
4.642178
4.642178
4.642178
4.642178
4.642178
4.642178
4.642178
4.642178
4.642178
4.642178
4.642178
4.642178
3.145403
4.656018
4.642184
4.642178
4.642178
4.642178
4.642178
4.642178
4.642178
4.642178
4.642178
4.642178
4.642178
4.642178
4.642178
4.642178
4.642178
4.642178
3.078532
4.655892
4.642184
4.642178
4.642178
4.642178
4.642178
4.642178
4.642178
4.642178
4.642178
4.642178
4.642178
4.642178
4.642178
4.642178
4.642178
4.642178
3.012294
4.655912
4.642184
4.642178
4.642178
4.642178
4.642178
4.642178
4.642178
4.642178
4.642178
4.642178
4.642178
4.642178
4.642178
4.642178
4.642178
4.642178
2.943703
4.655612
4.642184
4.642178
4.642178
4.642178
4.642178
4.642178
4.642178
4.642178
4.642178
4.642178
4.642178
4.642178
4.642178
4.642178
4.642178
4.642178
2.876263
4.65547
4.642184
4.642178
4.642179
4.642178
4.642178
4.642178
4.642178
4.642178
4.642178
4.642178
4.642178
4.642178
4.642178
4.642178
4.642178
4.642178
2.809627
4.655459
4.642184
4.642178
4.64218
4.642178
4.642178
4.642178
4.642178
4.642178
4.642178
4.642178
4.642178
4.642178
4.642178
4.642178
4.642178
4.642178
2.741934
4.65501
4.642184
4.642207
4.642218
4.642179
4.642178
4.642178
4.642178
4.642178
4.642178
4.642178
4.642178
4.642178
4.642178
4.642178
4.642178
4.642178
2.672766
4.654329
4.642198
4.644934
4.644773
4.642204
4.642179
4.642177
4.642184
4.642178
4.642178
4.642178
4.642178
4.642178
4.642178
4.642178
4.642178
4.642178
2.60605
4.653879
4.642221
4.647629
4.644684
4.642259
4.642181
4.642327
4.642293
4.642183
4.642178
4.642178
4.642178
4.642178
4.642178
4.642178
4.642178
4.642178
2.54069
4.657089
4.642225
4.644846
4.64209
4.642186
4.642183
4.642196
4.642188
4.642178
4.642178
4.642178
4.642178
4.642178
4.642178
4.642178
4.642178
4.642179
2.468729
4.662465
4.64245
4.649882
4.653696
4.642368
4.64219
4.642186
4.642179
4.642178
4.642178
4.642178
4.642178
4.642178
4.642178
4.642178
4.642178
4.642178
2.279312
4.650973
4.643621
4.667232
4.650962
4.659725
4.642208
4.642196
4.642256
4.642205
4.642178
4.642178
4.642179
4.642178
4.642178
4.642178
4.642178
4.642178
2.213614
4.666732
4.646786
4.642437
4.65047
4.643801
4.642264
4.642735
4.642661
4.642223
4.642178
4.642178
4.642178
4.642179
4.642178
4.642178
4.642182
4.642178
2.121704
4.763518
4.649067
4.643471
4.643189
4.642669
4.64246
4.642192
4.642278
4.64217
4.642154
4.642168
4.642195
4.642179
4.642178
4.642179
4.64218
4.642178
1.246538
4.71171
4.696946
4.668752
4.651139
4.648434
4.645941
4.643224
4.642436
4.643125
4.642255
4.641763
4.64216
4.642145
4.642174
4.642183
4.642179
4.642178
0.5077579
4.784722
4.700792
4.676869
4.659251
4.654707
4.649326
4.644196
4.642256
4.643894
4.641534
4.63996
4.640729
4.641011
4.641663
4.642159
4.642178
4.642178
1.057196
5.013401
4.773998
4.687496
4.663898
4.660377
4.652316
4.650513
4.641732
4.643944
4.639857
4.634912
4.637577
4.636811
4.636749
4.640434
4.641934
4.642166
0.06391961
4.56876
4.800125
4.673391
4.669306
4.665418
4.654768
4.652442
4.641208
4.643337
4.637427
4.632575
4.633415
4.631346
4.631974
4.634528
4.637172
4.640754
0.2354111
4.584545
4.735484
4.682644
4.673215
4.671629
4.656702
4.653683
4.640706
4.642044
4.63424
4.633539
4.62845
4.623124
4.627145
4.627268
4.629431
4.633636
0.4243638
4.704605
4.777213
4.678441
4.676487
4.672495
4.658075
4.65424
4.640303
4.640039
4.63021
4.629393
4.622757
4.620676
4.620151
4.61914
4.620641
4.627345
0.429654
4.72624
4.766523
4.678004
4.684723
4.671421
4.658901
4.654039
4.639893
4.637358
4.62585
4.625121
4.616353
4.616838
4.612433
4.610343
4.615417
4.616171
0.3900179
4.604662
4.865659
4.699942
4.681194
4.671867
4.659481
4.653075
4.640038
4.634243
4.628371
4.619684
4.611478
4.610063
4.604102
4.606055
4.604134
4.609475
0.3886676
4.359726
4.871511
4.75736
4.698618
4.67301
4.658733
4.651437
4.639749
4.63001
4.627317
4.614175
4.612373
4.602722
4.599778
4.595974
4.599373
4.598713
0.4139389
4.018628
4.99569
4.792783
4.691409
4.674341
4.657223
4.647216
4.639231
4.625375
4.623598
4.611365
4.60643
4.599272
4.592785
4.591971
4.588472
4.592495
0.4533846
2.975075
4.8709
4.778905
4.703258
4.677404
4.655634
4.645605
4.638985
4.629275
4.616711
4.615749
4.602839
4.595071
4.587687
4.583306
4.58172
4.582454
0.4632961
1.771908
4.621075
4.880961
4.819058
4.673492
4.652549
4.64583
4.63291
4.630879
4.620892
4.609488
4.602473
4.593709
4.58203
4.581505
4.574813
4.575597
0.4545851
1.1793
4.10451
4.848771
4.722065
4.697949
4.635145
4.613181
4.601705
4.591469
4.582475
4.576196
4.57469
4.568032
0.4243274
0.04173638
4.660879
4.626463
4.605367
4.591301
4.581098
4.570151
4.567251
4.567663
0.4240162
4.69351
4.610508
4.589537
4.57822
4.572327
4.563675
4.559358
4.610558
4.587176
4.578975
4.567867
4.559247
4.554646
4.606682
4.58024
4.567699
4.558443
4.55319
4.65673
4.586311
4.56471
4.555247
4.549336
4.618013
4.580182
4.564468
4.554306
4.54865
4.591305
4.576517
4.562407
4.552371
4.546568
4.567309
4.57545
4.560162
4.550135
4.544503
4.641699
4.573653
4.556244
4.550162
4.54489
4.652683
4.595766
4.569293
4.557047
4.54858
4.54801
0.4259562
4.613903
4.580758
4.567668
4.555463
4.547909
4.544685
0.429355
0.5827285
4.639487
4.59324
4.573571
4.562283
4.554937
4.549846
4.547597
0.434439
1.046823
3.827321
4.679057
4.657128
4.598618
4.588992
4.579069
4.563907
4.55493
4.549653
4.551528
0.4582136
1.357903
4.494934
4.831908
4.75261
4.65313
4.635169
4.634978
4.689276
4.628956
4.606927
4.586695
4.577496
4.570467
4.561997
4.55504
4.554242
4.554369
0.4760999
2.315537
4.893928
4.796834
4.693207
4.645417
4.629467
4.621206
4.615795
4.607043
4.590262
4.585896
4.578002
4.565217
4.560614
4.559679
4.556365
4.561217
0.4671747
3.374795
4.826352
4.739798
4.670307
4.653456
4.626732
4.615703
4.609887
4.60308
4.590519
4.585025
4.574606
4.570928
4.564607
4.561267
4.564882
4.566021
0.3849783
4.071694
4.983318
4.758325
4.652503
4.639041
4.624846
4.6171
4.606185
4.597035
4.59193
4.579998
4.578254
4.572211
4.570357
4.570382
4.569486
4.57736
0.351445
4.362967
4.777101
4.76986
4.672561
4.63602
4.623148
4.616791
4.604627
4.593552
4.593488
4.58479
4.582131
4.577381
4.577239
4.575123
4.581512
4.584938
0.3473768
4.538548
4.749013
4.658531
4.644323
4.635065
4.622572
4.617374
4.603827
4.600968
4.593746
4.589706
4.583099
4.584681
4.578278
4.587001
4.589981
4.598075
0.3611663
4.697451
4.740262
4.644362
4.650999
4.635037
4.622831
4.618765
4.605228
4.605067
4.599658
4.596259
4.591593
4.594178
4.593293
4.597995
4.602285
4.610508
0.331547
4.753451
4.753179
4.647841
4.643115
4.646509
4.624134
4.621008
4.608243
4.609791
4.60498
4.603705
4.600225
4.597556
4.604145
4.603675
4.614869
4.621051
0.09952731
4.63847
4.825287
4.662
4.642213
4.643414
4.626282
4.624005
4.612782
4.615548
4.606535
4.612291
4.610122
4.610522
4.615723
4.619805
4.627538
4.634686
0.4838858
4.502722
4.822835
4.647405
4.643299
4.639659
4.629276
4.627705
4.618623
4.621945
4.613919
4.61733
4.620291
4.621801
4.624992
4.632164
4.638401
4.641898
0.1475939
4.933921
4.718493
4.648472
4.643235
4.640167
4.632917
4.629155
4.625566
4.628686
4.626967
4.628183
4.630461
4.633101
4.637235
4.641527
4.642007
4.642141
0.4692043
5.021733
4.695848
4.645571
4.643984
4.640972
4.636826
4.633642
4.633217
4.635548
4.635476
4.638033
4.640028
4.641643
4.641999
4.642133
4.642166
4.642177
1.752648
4.801758
4.685991
4.651189
4.643334
4.642178
4.640943
4.640415
4.640821
4.641641
4.641943
4.642134
4.642108
4.642132
4.642162
4.642178
4.642178
4.642178
1.988108
4.657588
4.64691
4.644175
4.643239
4.642306
4.642315
4.642182
4.642142
4.642165
4.642156
4.642168
4.64218
4.642176
4.642177
4.642179
4.642184
4.642178
2.114934
4.697359
4.643018
4.642631
4.651778
4.640867
4.642266
4.642635
4.642541
4.642253
4.642177
4.642178
4.642179
4.642178
4.642178
4.642178
4.642187
4.642178
2.248234
4.814899
4.645353
4.683308
4.655874
4.655197
4.642205
4.642199
4.642232
4.642224
4.642178
4.642178
4.642178
4.642178
4.642178
4.642178
4.642178
4.642178
2.470705
4.772505
4.64432
4.661868
4.658984
4.64264
4.642188
4.642188
4.64218
4.642179
4.642178
4.642178
4.642178
4.642178
4.642178
4.642178
4.642178
4.642179
2.547354
4.66989
4.64251
4.644791
4.643301
4.642188
4.642182
4.642181
4.642168
4.642178
4.642178
4.642178
4.642178
4.642178
4.642178
4.642178
4.642178
4.642178
2.621072
4.672879
4.642204
4.64797
4.644756
4.642204
4.64218
4.642469
4.642383
4.64218
4.642178
4.642178
4.642178
4.642178
4.642178
4.642178
4.642178
4.642178
2.694316
4.672457
4.642214
4.646095
4.647024
4.642198
4.642179
4.642196
4.642182
4.642178
4.642178
4.642178
4.642178
4.642178
4.642178
4.642178
4.642178
4.642178
2.767112
4.67038
4.642193
4.642262
4.642298
4.642179
4.642178
4.642178
4.642178
4.642178
4.642178
4.642178
4.642178
4.642178
4.642178
4.642178
4.642178
4.642178
2.836551
4.668752
4.642188
4.642179
4.642184
4.642178
4.642178
4.642178
4.642178
4.642178
4.642178
4.642178
4.642178
4.642178
4.642178
4.642178
4.642178
4.642178
2.90797
4.667252
4.642187
4.642178
4.642181
4.642178
4.642178
4.642178
4.642178
4.642178
4.642178
4.642178
4.642178
4.642178
4.642178
4.642178
4.642178
4.642178
2.977934
4.665949
4.642187
4.642178
4.642179
4.642178
4.642178
4.642178
4.642178
4.642178
4.642178
4.642178
4.642178
4.642178
4.642178
4.642178
4.642178
4.642178
3.045726
4.664563
4.642186
4.642178
4.642179
4.642178
4.642178
4.642178
4.642178
4.642178
4.642178
4.642178
4.642178
4.642178
4.642178
4.642178
4.642178
4.642178
3.112864
4.663633
4.642186
4.642178
4.642178
4.642178
4.642178
4.642178
4.642178
4.642178
4.642178
4.642178
4.642178
4.642178
4.642178
4.642178
4.642178
4.642178
3.182853
4.662424
4.642186
4.642178
4.642178
4.642178
4.642178
4.642178
4.642178
4.642178
4.642178
4.642178
4.642178
4.642178
4.642178
4.642178
4.642178
4.642178
3.250348
4.661886
4.642186
4.642178
4.642178
4.642178
4.642178
4.642178
4.642178
4.642178
4.642178
4.642178
4.642178
4.642178
4.642178
4.642178
4.642178
4.642178
3.320626
4.661316
4.642186
4.642178
4.642178
4.642178
4.642179
4.642178
4.642178
4.642178
4.642178
4.642178
4.642178
4.642178
4.642178
4.642178
4.642178
4.642178
3.390857
4.661126
4.642186
4.642178
4.642178
4.642181
4.642179
4.642178
4.642178
4.642178
4.642178
4.642178
4.642178
4.642178
4.642178
4.642178
4.642178
4.642178
3.466638
4.66028
4.642186
4.642179
4.642189
4.642184
4.642178