/*--------------------------------*- C++ -*----------------------------------*\
| =========                 |                                                 |
| \\      /  F ield         | OpenFOAM: The Open Source CFD Toolbox           |
|  \\    /   O peration     | Version:  2206                                  |
|   \\  /    A nd           | Website:  www.openfoam.com                      |
|    \\/     M anipulation  |                                                 |
\*---------------------------------------------------------------------------*/
FoamFile
{
    version     2.0;
    format      ascii;
    arch        "LSB;label=32;scalar=64";
    class       volScalarField;
    location    "1.6";
    object      p_hyd;
}
// * * * * * * * * * * * * * * * * * * * * * * * * * * * * * * * * * * * * * //

dimensions      [1 -1 -2 0 0 0 0];

internalField   nonuniform List<scalar> 
13078
(
946.5728
876.7093
806.5678
736.3887
666.3133
596.2445
526.1759
946.7927
878.1317
808.0182
737.6609
667.5794
597.5168
527.4537
946.8084
878.3722
809.2744
738.931
668.8443
598.7873
528.7304
946.8244
878.4191
809.43
740.1079
670.107
600.0567
530.0057
946.8411
878.4678
809.4993
740.2759
671.2847
601.3242
531.2796
946.8584
878.5186
809.5867
740.3844
671.4764
602.5085
532.5522
946.8766
878.5805
809.8936
740.8064
671.6177
602.7241
533.743
946.8954
878.6489
810.2933
741.1541
671.7572
602.8642
533.9829
946.9147
878.7065
810.406
741.279
671.8804
603.009
534.15
946.9349
878.7658
810.5022
741.3939
672.0076
603.1595
534.3234
946.9559
878.8274
810.6018
741.5128
672.1397
603.3159
534.5036
946.9776
878.8915
810.7056
741.6367
672.2772
603.4784
534.6912
947.0004
878.9581
810.8136
741.7661
672.4209
603.6477
534.8864
947.0241
879.0278
810.9266
741.9253
672.6029
603.8258
535.0895
947.0487
879.1004
811.0607
742.4315
673.2725
604.0509
535.3025
947.0745
879.1764
811.2079
743.0832
673.8295
604.2757
535.5242
947.1014
879.2553
811.3376
743.2903
674.0446
604.4788
535.7547
947.1293
879.3378
811.4721
743.4737
674.2466
604.6901
535.9954
947.1587
879.4239
811.6127
743.6655
674.491
604.9558
536.2492
947.1892
879.5138
811.76
743.8904
675.2209
605.8972
536.5673
947.2213
879.6079
811.9143
744.1362
676.155
606.686
536.8867
947.2547
879.7065
812.0753
744.3584
676.4749
607.0064
537.1808
947.2898
879.8095
812.2439
744.5897
676.766
607.3541
537.545
947.3264
879.9174
812.4206
744.8327
677.1029
608.3413
538.795
947.3648
880.0305
812.6056
745.0879
677.4713
609.6001
539.8484
947.4049
880.149
812.7998
745.3548
677.8097
610.0575
540.2948
947.4473
880.2735
813.0032
745.635
678.1631
610.4806
540.7781
947.5014
880.4184
813.2174
745.929
678.5353
610.9675
542.0883
947.5713
880.5804
813.4429
746.2379
678.927
611.4989
543.7523
947.7527
880.9557
813.708
746.5631
679.3377
611.9949
544.3961
948.0191
881.295
814.0072
746.907
679.7693
612.5151
545.0543
948.1083
881.7694
814.7739
747.3575
680.2269
613.0634
545.7716
948.1944
882.4283
815.8357
748.4858
680.7688
613.6404
546.4451
948.2701
882.7082
816.8801
749.4347
681.3815
614.252
547.1514
948.3483
882.9433
817.335
750.5679
682.9739
615.0536
547.9017
948.4298
883.1872
817.7857
752.0939
685.0496
617.06
548.7895
948.5143
883.4405
818.2111
752.8069
687.0214
618.7346
549.7904
948.6024
883.7043
818.6507
753.4287
687.9372
620.6579
552.2833
948.7125
884.0132
819.1094
754.0722
688.8487
623.1688
554.4229
948.9564
884.604
819.6548
754.742
689.7159
624.3845
556.8681
949.3254
885.3618
820.7537
755.5415
690.6165
625.5933
560.0691
949.4794
886.2559
822.0574
757.1788
691.6893
626.7473
561.6432
949.6041
886.6984
823.5086
759.0623
693.8967
628.114
563.0855
949.7395
887.1087
824.2587
761.1057
696.3975
630.925
564.7587
949.9524
887.7276
824.9871
762.2258
699.0701
634.085
568.2859
950.2957
888.3968
826.3433
763.8908
700.6064
637.4238
572.1821
950.4611
889.2655
827.8782
765.4949
702.7926
639.3815
576.327
950.5921
889.7004
828.6796
767.3942
704.9161
642.6376
579.8611
950.7103
890.0724
829.3387
768.4817
707.4066
646.0932
583.0941
950.818
890.4287
829.957
769.3517
708.6791
647.869
586.6763
950.9722
891.1641
831.0884
770.2228
709.7936
649.3516
588.7673
951.3793
892.1329
832.0339
772.1945
712.3058
652.4478
592.317
951.5175
892.5364
833.4738
774.2702
715.1132
655.8226
595.3468
951.5741
892.719
833.8519
774.9626
716.0628
657.1195
597.8282
951.6003
892.8603
834.1187
775.375
716.6289
657.8782
599.0891
951.6013
893.0086
834.4158
775.823
717.23
658.6369
600.0426
951.6013
893.0086
834.4158
775.823
717.23
658.6369
600.0426
951.6003
892.8603
834.1187
775.375
716.6289
657.8782
599.0891
951.5741
892.719
833.8519
774.9626
716.0628
657.1195
597.8282
951.5175
892.5364
833.4738
774.2702
715.1132
655.8226
595.3468
951.3793
892.1329
832.0339
772.1945
712.3058
652.4478
592.317
950.9722
891.1641
831.0884
770.2228
709.7936
649.3516
588.7673
950.818
890.4287
829.957
769.3517
708.6791
647.869
586.6763
950.7103
890.0724
829.3387
768.4817
707.4066
646.0932
583.0949
950.5921
889.7004
828.6796
767.3942
704.9161
642.6383
579.8882
950.4611
889.2655
827.8782
765.4949
702.7926
639.384
576.3759
950.2957
888.3968
826.3433
763.8908
700.6088
637.4863
572.844
949.9524
887.7276
824.9872
762.2277
699.1212
634.6536
569.5493
949.7395
887.1087
824.2601
761.1455
696.8581
631.997
565.9453
949.6041
886.6993
823.5378
759.4203
694.7783
629.4889
563.8905
949.4799
886.2748
822.3178
757.8542
692.8007
627.648
562.1478
949.3345
885.5297
821.235
756.386
691.3341
626.0346
560.1323
949.0362
884.901
820.2579
755.2899
690.0635
624.4357
556.8714
948.8296
884.3736
819.6733
754.4386
688.8987
623.1709
554.4229
948.7201
884.0339
818.9942
753.6611
687.9161
620.6332
552.2816
948.6233
883.6326
818.3724
752.8031
686.4232
618.3461
549.7546
948.5265
883.3054
817.8094
752.0765
684.6809
616.4372
548.7381
948.3853
883.0173
817.3443
750.5674
682.9455
615.0117
547.8992
948.2789
882.7194
816.8808
749.4347
681.3809
614.251
547.1514
948.1968
882.4328
815.8359
748.4858
680.7688
613.6404
546.4451
948.1085
881.7696
814.7739
747.3575
680.2269
613.0634
545.7716
948.0191
881.295
814.0072
746.907
679.7693
612.5151
545.0543
947.7527
880.9557
813.708
746.5631
679.3377
611.9949
544.3961
947.5713
880.5804
813.4429
746.2379
678.927
611.4989
543.7523
947.5014
880.4184
813.2174
745.929
678.5353
610.9675
542.0883
947.4473
880.2735
813.0032
745.635
678.1631
610.4806
540.7781
947.4049
880.149
812.7998
745.3548
677.8097
610.0575
540.2948
947.3648
880.0305
812.6056
745.0879
677.4713
609.6001
539.8484
947.3264
879.9174
812.4206
744.8327
677.1029
608.3413
538.795
947.2898
879.8095
812.2439
744.5897
676.766
607.3541
537.545
947.2547
879.7065
812.0753
744.3584
676.4749
607.0064
537.1808
947.2213
879.6079
811.9143
744.1362
676.155
606.686
536.8867
947.1892
879.5138
811.76
743.8904
675.2209
605.8972
536.5673
947.1587
879.4239
811.6127
743.6655
674.491
604.9558
536.2492
947.1293
879.3378
811.4721
743.4737
674.2466
604.6901
535.9954
947.1014
879.2553
811.3376
743.2903
674.0446
604.4788
535.7547
947.0745
879.1764
811.2079
743.0832
673.8295
604.2757
535.5242
947.0487
879.1004
811.0607
742.4315
673.2725
604.0509
535.3025
947.0241
879.0278
810.9266
741.9253
672.6029
603.8258
535.0895
947.0004
878.9581
810.8136
741.7661
672.4209
603.6477
534.8864
946.9776
878.8915
810.7056
741.6367
672.2772
603.4784
534.6912
946.9559
878.8274
810.6018
741.5128
672.1397
603.3159
534.5036
946.9349
878.7658
810.5022
741.3939
672.0076
603.1595
534.3234
946.9147
878.7065
810.406
741.279
671.8804
603.009
534.15
946.8954
878.6489
810.2933
741.1541
671.7572
602.8642
533.9829
946.8766
878.5805
809.8936
740.8064
671.6177
602.7241
533.743
946.8584
878.5186
809.5867
740.3844
671.4764
602.5085
532.5522
946.8411
878.4678
809.4993
740.2759
671.2847
601.3242
531.2796
946.8244
878.4191
809.43
740.1079
670.107
600.0567
530.0057
946.8084
878.3722
809.2744
738.931
668.8443
598.7873
528.7304
946.7927
878.1317
808.0182
737.6609
667.5794
597.5168
527.4537
946.5728
876.7093
806.5678
736.3887
666.3133
596.2445
526.1759
456.1069
386.0379
315.9685
263.0919
192.9733
122.839
52.76795
457.3902
387.3258
317.2606
264.387
194.0497
123.6944
53.62503
458.6722
388.6128
318.5523
248.4624
195.1248
124.5495
54.482
459.9532
389.8991
319.8432
266.9975
196.2013
125.4043
55.33878
461.2331
391.1843
321.1334
268.2856
197.2766
126.2588
56.19517
462.5116
392.4686
322.4227
269.575
198.3505
127.1131
57.05133
463.789
393.7518
323.71
270.834
198.6622
127.966
57.90743
464.9866
395.0337
324.9971
272.0742
198.9598
128.8186
58.76317
465.2519
396.2379
326.2834
273.3524
199.8207
129.6714
59.61872
465.4471
396.5292
327.4935
274.6299
200.6819
130.5238
60.47388
465.6498
396.7531
327.8141
275.8717
201.5425
131.3756
61.3288
465.8608
396.9858
328.0671
276.1667
202.4182
132.2272
62.18312
466.0803
397.2281
328.3305
276.4396
202.5986
133.0949
63.03724
466.309
397.4802
328.6047
276.7238
202.8016
133.2929
63.90719
466.547
397.7432
328.8901
277.0197
203.0128
133.5132
64.12498
466.7955
398.0171
329.1879
277.3279
203.2329
133.7425
64.36546
467.0545
398.3031
329.499
277.6518
203.5377
133.9815
64.61598
467.3253
398.6016
329.8257
278.1163
206.3024
134.234
64.87719
467.6081
398.9138
330.1648
278.4732
206.6729
134.4944
65.14983
467.9054
399.2402
330.5193
278.8433
207.0004
134.7662
65.4345
468.2163
399.5818
330.8906
279.2305
207.3425
135.0504
65.73213
468.5405
399.9398
331.2797
279.6382
207.6986
135.3479
66.04353
468.8836
400.3152
331.6875
280.066
208.1173
135.662
66.36946
469.3101
400.7108
332.1143
263.4274
210.7331
136.1313
66.71124
469.7409
401.1257
332.5703
280.9892
212.1145
136.5168
67.06998
470.1418
401.5605
333.043
281.4823
212.6346
136.8816
67.4467
470.6341
402.0205
333.5409
282.0009
213.1838
137.3259
67.84284
472.2248
402.5356
334.0674
282.5474
213.8954
140.5154
68.26338
473.5319
420.0064
351.5964
283.1235
214.5562
141.8574
68.70346
474.1677
420.5235
352.1598
283.7313
215.2034
142.4213
69.16698
476.5126
422.7063
352.7561
284.3732
215.8894
144.826
69.784
478.2322
424.5794
353.3888
285.0514
216.6156
147.8432
70.41594
479.1144
428.0802
354.2234
285.7688
217.382
148.6515
71.10404
479.9207
429.0886
356.8323
286.5302
218.1941
149.7284
76.08951
480.7693
430.0928
359.8388
287.4034
219.0552
150.6451
76.97548
481.6685
431.0578
363.4807
288.5153
219.9689
151.6161
80.04467
482.6193
432.0743
364.8276
293.1293
220.9652
152.6504
83.9247
483.7361
433.1451
366.0209
296.0848
223.2139
153.8027
85.1958
484.9889
434.2733
367.2789
299.938
227.156
155.6732
86.58761
488.0086
435.4579
368.6037
301.5317
231.2886
157.6175
87.90599
490.8772
436.799
369.9986
303.0785
235.6988
160.524
89.37799
494.7969
441.8469
373.9255
306.3169
237.6819
165.9725
91.71649
496.1989
444.5538
378.1378
310.9613
239.7913
170.5398
94.9001
497.7594
445.8467
380.1384
313.9944
244.5931
174.5051
101.0813
501.8453
452.4781
387.3437
318.1779
249.8301
177.1678
106.3742
507.2536
456.9798
391.5326
324.5409
252.9014
184.1241
112.2503
511.4758
461.6489
395.859
327.6803
260.029
189.4805
117.7197
514.999
465.9238
400.5043
334.307
265.6973
196.3054
126.0378
519.7604
470.4576
406.7528
341.2236
273.237
203.8572
132.6944
523.4438
474.0467
410.4775
347.6541
281.0712
212.5464
142.3923
527.9325
481.4068
416.7379
353.1984
288.4435
221.9951
151.668
530.7532
483.981
423.2698
360.7082
297.7884
231.2223
161.7707
535.4238
489.3765
428.7483
366.5839
305.1107
239.6672
174.0562
538.6878
493.6134
433.6146
373.0832
311.2614
249.262
182.9342
540.1949
495.8529
436.917
377.5497
316.241
252.899
198.6829
541.5191
497.41
438.7093
379.5196
318.5735
255.5217
541.5191
498.0465
439.4174
380.2669
319.3111
256.4601
540.1949
496.8108
438.0136
378.7303
317.2308
254.3951
538.6878
494.7405
435.5166
374.9908
314.4259
252.685
192.6753
535.4238
491.8849
430.7304
370.4892
308.3514
244.6614
175.5642
530.7532
486.194
425.8117
363.7188
300.78
236.6379
167.8436
527.9325
482.8596
421.5981
357.9944
292.5466
226.9338
157.9585
523.4438
477.6217
412.0638
349.5412
284.5957
217.0656
146.9779
519.7615
471.7558
409.0486
344.3475
277.3215
208.1957
137.5588
515.2923
469.068
403.6052
337.8708
269.3435
199.4853
128.2238
511.5687
463.3199
398.8231
330.884
263.6967
193.3424
122.0638
508
460.4519
393.6527
326.0404
256.2217
187.5798
113.9834
503.2059
454.722
388.8398
321.4433
251.3507
180.3259
108.9561
499.1423
450.0868
384.0473
315.27
246.9006
175.8315
104.0888
496.1539
445.7908
379.6352
312.8123
242.4234
173.206
97.68486
494.4554
443.6687
377.1702
308.7056
238.6718
167.6872
93.20893
491.2317
439.8016
372.3991
304.0266
236.6574
163.524
90.15752
488.0177
436.1765
369.3513
302.298
234.7033
158.9636
88.63628
484.9889
434.8604
367.9334
300.786
229.2293
156.7839
87.23709
483.736
433.7037
366.6429
299.032
224.0446
154.4114
85.95716
482.6183
432.6033
365.4177
293.8545
221.941
153.2216
84.49731
481.6671
431.5606
364.152
291.1004
220.4496
152.1264
83.23658
480.7692
430.5687
361.9678
287.9253
219.5057
151.1223
77.51163
479.9207
429.6285
358.5693
286.9312
218.6189
150.1827
76.57414
479.1144
428.5905
354.6728
286.1435
217.7826
149.1684
73.84693
478.2322
426.0923
353.8111
285.4057
216.9936
148.2409
70.6924
476.5126
424.1145
353.0676
284.7081
216.2487
147.3422
70.14598
474.1677
420.8851
352.4535
284.0483
215.541
142.8145
69.41369
473.5319
420.2694
351.8748
283.4235
214.8756
142.135
68.93225
472.2248
402.5356
334.0674
282.832
214.2442
141.552
68.48113
470.6341
402.0205
333.5409
282.271
213.5132
138.5624
68.0503
470.1418
401.5605
333.043
281.7387
212.905
137.0728
67.64234
469.7409
401.1256
332.5687
281.2328
212.3718
136.6971
67.25619
469.3101
400.7107
332.1156
280.7474
211.8238
136.3399
66.88874
468.8836
400.3152
331.6874
280.2875
209.0333
135.8784
66.53871
468.5405
399.9398
331.2795
279.8464
207.8838
135.502
66.20478
468.2163
399.5818
330.8906
279.4312
207.5184
135.1977
65.88616
467.9054
399.2402
330.5193
279.0348
207.166
134.9069
65.58192
467.6081
398.9138
330.1648
278.6564
206.8335
134.6289
65.29083
467.3253
398.6016
329.8257
278.2947
206.5145
134.3629
65.01231
467.0545
398.3031
329.499
277.8739
205.0581
134.1069
64.74552
466.7955
398.0171
329.1879
277.4873
203.3479
133.861
64.48957
466.547
397.7432
328.8901
277.1725
203.1218
133.6269
64.24423
466.309
397.4802
328.6047
276.8703
202.9064
133.4021
64.00856
466.0803
397.2281
328.3305
276.5806
202.6993
133.1863
63.46423
465.8608
396.9858
328.0671
276.3022
202.5004
132.6526
62.61032
465.6498
396.7531
327.8141
276.0345
201.9724
131.8015
61.75592
465.4471
396.5292
327.4935
275.2622
201.1123
130.9498
60.90117
465.2519
396.2379
326.2834
273.9838
200.2515
130.0975
60.04625
464.9866
395.0337
324.9971
272.7048
199.3899
129.245
59.19085
463.789
393.7518
323.71
271.4267
198.5612
128.392
58.33533
462.5116
392.4686
322.4227
270.2066
198.8507
127.5399
57.47954
461.2331
391.1843
321.1334
268.9154
197.814
126.686
56.62332
459.9532
389.8991
319.8432
267.6224
196.7391
125.8316
55.76687
458.6722
388.6128
318.5523
266.3286
195.6637
124.977
54.91029
457.3902
387.3258
317.2606
265.0344
194.5878
124.122
54.05358
456.1069
386.0379
315.9685
263.7395
193.5115
123.2667
53.1966
-17.49773
-88.34741
-159.1973
-230.0472
-300.9222
-371.8756
-442.8362
-513.794
-584.7193
-655.5706
-726.4204
-797.2701
-868.1199
-938.9695
-1009.883
-1080.781
-1151.63
-1222.479
-16.63912
-87.48745
-158.3364
-229.1859
-300.1716
-371.533
-442.9299
-514.3129
-585.546
-656.4024
-727.2516
-798.1002
-868.9485
-939.7966
-1010.934
-1082.053
-1152.899
-1223.743
-15.78046
-86.62757
-157.4756
-228.3246
-299.4209
-371.1904
-443.0237
-514.8318
-586.3726
-657.2343
-728.0827
-798.9304
-869.7773
-940.6238
-1011.984
-1083.324
-1154.166
-1225.007
-14.92201
-85.76774
-156.6147
-227.4634
-298.6702
-370.8477
-443.1171
-515.3507
-587.1991
-658.066
-728.9138
-799.7603
-870.6056
-941.4505
-1013.034
-1084.595
-1155.434
-1226.27
-14.06353
-84.90797
-155.754
-226.602
-297.9195
-370.5051
-443.2109
-515.8696
-588.0258
-658.8978
-729.7448
-800.5901
-871.4338
-942.2769
-1013.811
-1085.856
-1156.7
-1227.532
-13.20545
-84.04841
-154.8932
-225.7408
-297.1689
-370.1625
-443.3045
-516.3885
-588.8524
-659.7297
-730.5758
-801.42
-872.2619
-943.1022
-1014.019
-1087.079
-1157.966
-1228.793
-12.34745
-83.18873
-154.0325
-224.8796
-296.4182
-369.82
-443.3982
-516.9074
-589.679
-660.5614
-731.4068
-802.2496
-873.0899
-943.9278
-1014.839
-1088.336
-1159.232
-1230.053
-11.48961
-82.32918
-153.1718
-224.0184
-295.6675
-369.4772
-443.4919
-517.4262
-590.5055
-661.3933
-732.2376
-803.0791
-873.9175
-944.7533
-1015.674
-1089.593
-1160.495
-1231.311
-10.63204
-81.46989
-152.3112
-223.1572
-294.9169
-369.1347
-443.5855
-517.9451
-591.3321
-662.2249
-733.0684
-803.9084
-874.7449
-945.5783
-1016.508
-1090.851
-1161.759
-1232.569
-9.774579
-80.6106
-151.4508
-222.2959
-294.1662
-368.792
-443.6792
-518.464
-592.1588
-663.0567
-733.8991
-804.7376
-875.5724
-946.4031
-1017.342
-1092.107
-1163.021
-1233.826
-8.917236
-79.75136
-150.5902
-221.4348
-293.4155
-368.4495
-443.7727
-518.9829
-592.9854
-663.8884
-734.7298
-805.5668
-876.3994
-947.2275
-1018.175
-1093.363
-1164.283
-1235.081
-8.060203
-78.89241
-149.7297
-220.5736
-292.6648
-368.1068
-443.8664
-519.5019
-593.812
-664.7202
-735.5604
-806.3957
-877.2261
-948.0515
-1019.008
-1094.617
-1165.543
-1236.335
-7.203417
-78.03343
-148.8692
-219.7124
-291.9142
-367.7642
-443.9602
-520.0208
-594.6384
-665.5517
-736.3908
-807.2244
-878.0525
-948.8751
-1019.84
-1095.871
-1166.802
-1237.588
-6.346888
-77.17468
-148.0089
-218.8512
-291.1635
-367.4216
-444.0538
-520.5397
-595.4651
-666.3833
-737.2214
-808.053
-878.8785
-949.6981
-1020.672
-1097.124
-1168.06
-1238.839
-5.472142
-76.31609
-147.1486
-217.99
-290.4128
-367.0791
-444.1474
-521.0586
-596.2917
-667.2149
-738.0515
-808.8813
-879.7043
-950.5207
-1021.502
-1098.376
-1169.317
-1240.088
-5.235833
-75.43291
-146.2885
-217.129
-289.6622
-366.7364
-444.241
-521.5775
-597.1183
-668.0465
-738.8816
-809.7094
-880.5298
-951.3427
-1022.332
-1099.626
-1170.571
-1241.335
-4.974941
-75.17711
-145.3978
-216.2679
-288.9115
-366.3937
-444.3347
-522.0964
-597.9448
-668.8778
-739.7118
-810.5374
-881.3547
-952.164
-1023.161
-1100.876
-1171.825
-1242.58
-4.703193
-74.89606
-145.1227
-215.3705
-288.1607
-366.0511
-444.4285
-522.6152
-598.7713
-669.7092
-740.5416
-811.365
-882.1792
-952.9848
-1023.99
-1102.124
-1173.077
-1243.823
-4.41948
-74.60285
-144.8215
-215.0768
-287.3599
-365.7086
-444.522
-523.1341
-599.5979
-670.5406
-741.3714
-812.1923
-883.0032
-953.8047
-1024.817
-1103.37
-1174.326
-1245.064
-4.123539
-74.29689
-144.5074
-214.756
-287.1195
-365.2884
-444.6157
-523.653
-600.4245
-671.3719
-742.201
-813.0192
-883.8267
-954.6241
-1025.715
-1104.618
-1175.574
-1246.301
-3.814124
-73.97741
-144.1795
-214.4215
-286.8233
-365.2329
-444.6108
-524.1719
-601.2511
-672.2032
-743.0304
-813.8458
-884.6497
-955.4466
-1029.863
-1106.024
-1176.819
-1247.536
-3.490592
-73.64349
-143.8369
-214.072
-286.5142
-365.0897
-444.7688
-524.5798
-602.0776
-673.0344
-743.8596
-814.672
-885.4719
-956.265
-1031.837
-1107.335
-1178.062
-1248.768
-3.151959
-73.29389
-143.4785
-213.7069
-286.1914
-364.9405
-444.8102
-524.9581
-602.7955
-673.8654
-744.6886
-815.4978
-886.2935
-957.0815
-1032.872
-1108.585
-1179.302
-1249.997
-2.796917
-72.92786
-143.1033
-213.3251
-285.8541
-364.7846
-444.8532
-525.1972
-603.3287
-674.5942
-745.5172
-816.3231
-887.1141
-957.8969
-1033.906
-1109.833
-1180.539
-1251.221
-2.424551
-72.54385
-142.7102
-212.9251
-285.5012
-364.6216
-444.8984
-525.4467
-603.726
-675.1424
-746.2495
-817.1477
-887.9341
-958.711
-1034.94
-1111.078
-1181.772
-1252.442
-2.033342
-72.14075
-142.2978
-212.5057
-285.1315
-364.451
-444.9454
-525.7073
-604.1407
-675.5592
-746.8092
-817.8847
-888.7529
-959.6878
-1038.321
-1112.323
-1183.002
-1253.657
-1.622152
-71.71727
-141.8647
-212.0657
-284.744
-364.2724
-444.9945
-525.9795
-604.5734
-675.9938
-747.2404
-818.4502
-889.4922
-960.6441
-1042.579
-1113.565
-1184.227
-1254.868
-1.189549
-71.27145
-141.409
-211.6033
-284.3371
-364.0851
-445.0461
-526.2644
-605.0257
-676.4475
-747.6902
-818.894
-890.0609
-961.3911
-1043.82
-1114.801
-1185.448
-1256.073
-0.733443
-70.80203
-140.9293
-211.117
-283.9095
-363.8884
-445.1001
-526.5629
-605.5144
-676.9356
-748.1724
-819.3681
-890.5252
-962.0858
-1044.985
-1116.032
-1186.664
-1257.277
-0.2525233
-70.30671
-140.4235
-210.6045
-283.4599
-363.6815
-445.1568
-526.8758
-605.9947
-677.4171
-748.6491
-819.8377
-890.9911
-967.2306
-1046.074
-1117.183
-1187.874
-1258.382
0.2557307
-69.78363
-139.8897
-210.0906
-283.6461
-363.4644
-445.2165
-527.2031
-606.4855
-677.9359
-749.1608
-820.3397
-891.4826
-969.1634
-1046.884
-1118.055
-1188.831
-1259.29
0.7931382
-69.23032
-139.3252
-209.6208
-284.9206
-363.2372
-445.2792
-527.4417
-605.1218
-678.4776
-749.696
-820.8634
-891.998
-969.8909
-1047.637
-1118.783
-1189.54
-1264.496
1.362214
-68.6443
-138.7274
-209.0487
-284.4988
-362.9953
-445.3452
-527.7615
-604.8323
-679.0467
-750.2561
-821.4105
-892.8058
-975.0655
-1048.423
-1119.534
-1190.379
-1267.903
1.992351
-68.02197
-138.0943
-209.6361
-284.076
-362.7394
-445.415
-528.1404
-605.3605
-679.6454
-750.843
-821.9815
-893.4388
-977.7443
-1049.234
-1120.311
-1191.549
-1273.354
3.858184
-67.30031
-137.4229
-210.3203
-284.8886
-362.5426
-445.4887
-528.5377
-605.0918
-680.2418
-751.4582
-822.5786
-894.2292
-978.6175
-1050.072
-1121.119
-1198.3
-1274.748
4.772147
-66.5951
-136.7066
-209.7298
-285.7607
-362.3273
-445.565
-527.4502
-603.4132
-680.7756
-752.1038
-823.2103
-901.386
-979.8617
-1050.941
-1122.154
-1202.036
-1275.799
5.686362
-65.84483
-135.9429
-209.054
-285.27
-362.0267
-445.6461
-526.471
-603.8193
-681.4671
-752.7818
-823.8719
-902.5153
-980.8143
-1051.839
-1123.376
-1206.901
-1276.871
9.695297
-65.00314
-135.1276
-208.3326
-284.745
-361.7068
-445.7337
-526.8555
-604.3815
-682.1993
-753.4947
-824.9343
-910.1629
-981.8034
-1052.784
-1130.839
-1208.368
-1277.965
13.25766
-62.70409
-134.2544
-207.5608
-284.1841
-361.3655
-445.8272
-527.2658
-604.9771
-682.9726
-754.2443
-825.7928
-911.4461
-982.8224
-1054.115
-1138.535
-1209.551
-1279.08
16.45345
-61.55467
-133.3198
-206.7337
-283.5836
-361.0007
-445.9266
-527.7023
-605.6094
-683.7908
-755.0397
-832.3801
-912.8451
-983.8826
-1059.342
-1140.151
-1210.744
-1280.214
20.47098
-60.34951
-132.3157
-205.8451
-282.9391
-360.61
-446.0329
-528.1679
-606.2816
-684.6571
-755.8801
-835.2092
-914.1191
-985.2146
-1066.325
-1141.673
-1211.957
-1281.358
22.08738
-56.58429
-131.1549
-204.8887
-282.2495
-360.288
-446.1469
-528.6652
-606.9972
-685.5755
-757.1733
-843.8166
-915.3502
-990.9528
-1072.131
-1143.006
-1213.182
-1282.756
23.94853
-52.3619
-129.9376
-203.8571
-281.6874
-363.3061
-446.2729
-529.1977
-607.7604
-686.5494
-758.3556
-845.4155
-916.6256
-995.4624
-1073.842
-1144.35
-1214.67
-1289.217
25.94437
-47.30298
-126.7525
-202.7408
-280.8907
-363.0602
-446.4048
-529.7694
-608.5779
-687.5917
-767.3998
-847.2548
-918.5912
-1004.256
-1075.354
-1145.97
-1221.44
-1293.145
29.72446
-43.68511
-123.9318
-201.4349
-280.0188
-362.6919
-446.5469
-530.3862
-611.7116
-689.0497
-772.6618
-848.7756
-927.778
-1006.576
-1077.144
-1153.03
-1225.575
-1297.329
35.81295
-39.21951
-119.098
-196.2237
-278.8726
-362.1849
-446.6992
-531.0429
-614.6002
-690.6925
-779.3256
-850.8915
-937.4232
-1008.321
-1082.91
-1157.692
-1231.541
-1304.371
43.89852
-35.41127
-111.6728
-194.3697
-277.7107
-357.6881
-446.8506
-531.6939
-615.6994
-696.6452
-781.4894
-858.8137
-939.8749
-1013.055
-1089.216
-1165.259
-1237.772
-1308.856
51.10145
-27.72044
-106.1942
-189.1737
-274.8913
-356.972
-446.9935
-534.5351
-617.0725
-705.6357
-786.2476
-867.6625
-945.1979
-1021.396
-1097.444
-1170.353
-1244.806
-1315.779
60.35055
-18.14662
-98.39739
-183.7693
-267.5591
-356.3771
-447.149
-537.24
-625.2827
-709.8934
-792.6301
-875.8294
-953.9822
-1030.1
-1105.533
-1177.662
-1249.595
-1321.672
69.89266
-8.041846
-91.23427
-173.4091
-635.2279
-717.5723
-802.147
-884.0474
-963.223
-1038.7
-1113.376
-1184.832
-1257.692
-1327.413
80.21818
4.528944
-817.4415
-897.2192
-972.2036
-1046.926
-1120.366
-1193.165
-1263.913
-1334.467
88.21693
-909.7053
-982.5397
-1057.943
-1128.501
-1201.172
-1271.115
-1338.378
-992.9518
-1066.347
-1137.119
-1206.99
-1274.883
-1344.385
-1075.407
-1144.099
-1213.088
-1281.532
-1348.262
-1078.155
-1148.516
-1217.598
-1284.645
-1351.152
-1082.082
-1150.117
-1219.04
-1286.385
-1352.787
-1083.977
-1150.754
-1219.723
-1287.095
-1353.486
-1079.143
-1149.031
-1217.491
-1285.739
-1352.159
-1078.739
-1147.287
-1214.995
-1282.258
-1349.997
-1003.556
-1071.574
-1140.027
-1210.838
-1278.3
-1346.404
97.44705
-984.9962
-1060.877
-1133.591
-1204.146
-1273.33
-1340.738
84.82393
14.47601
-901.1092
-976.5502
-1051.655
-1125.535
-1196.723
-1268.222
-1336.693
75.06665
-2.380585
-84.94108
-729.039
-805.6027
-891.6817
-967.8555
-1042.759
-1117.027
-1188.026
-1260.621
-1330.563
65.02947
-14.65475
-95.02059
-177.0387
-268.8628
-356.0308
-447.26
-537.2374
-625.2723
-713.3663
-798.8722
-879.5534
-958.4754
-1034.492
-1109.483
-1181.564
-1253.586
-1324.653
55.40312
-21.57394
-102.2821
-186.9638
-270.0487
-356.6492
-447.0628
-536.7873
-619.678
-708.5119
-789.4003
-870.8078
-949.7187
-1025.655
-1101.449
-1173.893
-1248.226
-1318.829
47.17084
-31.92703
-109.376
-191.4403
-277.1994
-357.3179
-446.9237
-532.0835
-616.3367
-699.6675
-782.6403
-864.7122
-941.2406
-1017.35
-1093.242
-1168.916
-1241.197
-1312.332
39.96418
-37.89547
-115.031
-195.2084
-278.2852
-359.8365
-446.7754
-531.3748
-615.1559
-693.8524
-780.3198
-854.2483
-938.7382
-1009.453
-1085.476
-1161.27
-1236.48
-1305.639
32.68968
-40.48442
-120.5139
-198.976
-279.4484
-362.495
-446.6218
-530.7115
-613.9577
-689.9519
-778.2027
-849.7976
-931.9139
-1007.45
-1080.439
-1156.353
-1226.656
-1301.04
27.88405
-46.12853
-124.5666
-202.1445
-280.4654
-362.8795
-446.4744
-530.0711
-609.1199
-688.1452
-768.4363
-848.0075
-923.7792
-1005.484
-1076.12
-1149.194
-1224.596
-1294.087
24.97039
-48.53053
-127.4586
-203.3079
-281.2987
-363.2318
-446.3377
-529.4784
-608.1612
-687.0632
-763.4286
-846.2949
-917.5144
-999.1504
-1074.595
-1145.034
-1217.731
-1292.226
22.97924
-53.67837
-130.4836
-204.3825
-281.9714
-361.8044
-446.2087
-528.9268
-607.3725
-686.0552
-757.6445
-844.7171
-915.9795
-994.4469
-1073.089
-1143.676
-1213.806
-1285.676
21.32761
-57.29415
-131.6896
-205.3757
-282.5989
-360.4058
-446.0886
-528.4122
-606.6336
-685.1095
-756.5397
-838.938
-914.7258
-986.1686
-1071.047
-1142.339
-1212.568
-1282.04
19.71108
-59.75912
-132.8245
-206.2973
-283.267
-360.8086
-445.9788
-527.9313
-605.9403
-684.2177
-755.4507
-834.4368
-913.5244
-984.4365
-1062.792
-1141.006
-1211.349
-1280.884
15.09556
-60.99964
-133.7925
-207.1544
-283.889
-361.1859
-445.8759
-527.4806
-605.2886
-683.3759
-754.6364
-828.3576
-912.09
-983.3457
-1054.832
-1139.375
-1210.144
-1279.743
13.62017
-63.11387
-134.6968
-207.9529
-284.4691
-361.5388
-445.7795
-527.0576
-604.675
-682.5805
-753.8647
-825.3022
-910.898
-982.3081
-1053.47
-1134.133
-1208.96
-1278.616
7.267836
-65.37229
-135.5419
-208.6991
-285.0115
-361.8691
-445.6891
-526.6594
-604.0963
-681.8282
-753.1338
-824.4158
-905.8318
-981.3036
-1052.304
-1127.61
-1207.6
-1277.472
6.256026
-66.15154
-136.3307
-209.3971
-285.5199
-362.1793
-445.604
-526.3574
-603.5542
-681.1155
-752.4387
-823.5331
-901.9338
-980.3372
-1051.386
-1122.731
-1206.147
-1276.338
5.189682
-66.88088
-137.0702
-210.0507
-285.9249
-362.468
-445.5269
-528.6656
-603.9272
-680.4911
-751.7771
-822.8912
-898.2576
-979.2089
-1050.503
-1121.537
-1199.039
-1275.273
3.254733
-67.62615
-137.7636
-209.9434
-283.9288
-362.6087
-445.4511
-528.3375
-605.5981
-679.9552
-751.1468
-822.2767
-893.7322
-978.1743
-1049.649
-1120.712
-1195.439
-1274.056
1.66368
-68.33783
-138.4154
-209.2887
-284.2908
-362.8689
-445.3794
-527.9485
-605.0928
-679.3423
-750.546
-821.6928
-893.1534
-977.2396
-1048.826
-1119.919
-1190.915
-1271.168
1.073819
-68.94145
-139.0305
-209.3269
-284.7294
-363.1178
-445.3116
-527.5814
-604.6197
-678.7581
-749.9728
-821.1339
-892.3683
-971.6801
-1048.026
-1119.155
-1189.906
-1266.125
0.5208449
-69.5107
-139.6111
-209.8702
-284.5735
-363.3524
-445.2471
-527.3387
-606.1374
-678.2039
-749.4253
-820.5987
-891.7351
-969.4809
-1047.257
-1118.415
-1189.182
-1261.372
-0.001599278
-70.04854
-140.1601
-210.3385
-283.2561
-363.574
-445.186
-527.0379
-606.2507
-677.6733
-748.9021
-820.0859
-891.2349
-968.796
-1046.514
-1117.659
-1188.47
-1258.846
-0.4959574
-70.55751
-140.6797
-210.864
-283.6874
-363.786
-445.1281
-526.7173
-605.7438
-677.1663
-748.4015
-819.5944
-890.75
-964.0797
-1045.529
-1116.646
-1187.269
-1257.868
-0.964358
-71.03972
-141.1721
-211.3632
-284.1258
-363.9877
-445.0726
-526.4118
-605.2597
-676.6817
-747.9223
-819.1227
-890.2852
-961.7151
-1044.438
-1115.417
-1186.057
-1256.676
-1.408454
-71.49707
-141.6395
-211.8372
-284.5429
-364.1796
-445.0198
-526.1203
-604.7971
-676.2181
-747.4631
-818.6698
-889.8099
-961.0548
-1043.202
-1114.183
-1184.839
-1255.471
-1.830236
-71.93148
-142.0837
-212.2882
-284.9399
-364.3627
-444.9695
-525.8418
-604.3546
-675.7742
-747.0226
-818.2052
-889.1619
-960.2277
-1041.802
-1112.946
-1183.615
-1254.263
-2.231131
-72.34466
-142.5063
-212.7177
-285.3184
-364.5373
-444.9213
-525.5754
-603.931
-675.3487
-746.5998
-817.5881
-888.3435
-959.124
-1035.585
-1111.7
-1182.387
-1253.05
-2.61267
-72.73788
-142.9091
-213.1271
-285.6795
-364.7039
-444.8755
-525.3207
-603.5251
-674.9406
-745.9582
-816.7355
-887.5243
-958.3041
-1034.422
-1110.456
-1181.156
-1251.832
-2.976181
-73.11283
-143.293
-213.5179
-286.0247
-364.8633
-444.8313
-525.0764
-603.1359
-674.3059
-745.103
-815.9106
-886.704
-957.4894
-1033.389
-1109.209
-1179.921
-1250.609
-3.32296
-73.47059
-143.6595
-213.8914
-286.3545
-365.0159
-444.7892
-524.842
-602.5139
-673.45
-744.2741
-815.0849
-885.8827
-956.6733
-1032.355
-1107.96
-1178.682
-1249.383
-3.654043
-73.81222
-144.0098
-214.2485
-286.6703
-365.162
-444.7488
-524.4493
-601.6642
-672.6187
-743.4451
-814.259
-885.0609
-955.8562
-1031.276
-1106.707
-1177.441
-1248.153
-3.970355
-74.13883
-144.345
-214.5903
-286.9729
-365.302
-444.6743
-523.9124
-600.8378
-671.7875
-742.6157
-813.4325
-884.2383
-955.0351
-1027.364
-1105.293
-1176.197
-1246.919
-4.273011
-74.45149
-144.6659
-214.918
-287.263
-365.5435
-444.5688
-523.3934
-600.0112
-670.9564
-741.7862
-812.6056
-883.4151
-954.2146