/*--------------------------------*- C++ -*----------------------------------*\
| =========                 |                                                 |
| \\      /  F ield         | OpenFOAM: The Open Source CFD Toolbox           |
|  \\    /   O peration     | Version:  2206                                  |
|   \\  /    A nd           | Website:  www.openfoam.com                      |
|    \\/     M anipulation  |                                                 |
\*---------------------------------------------------------------------------*/
FoamFile
{
    version     2.0;
    format      ascii;
    arch        "LSB;label=32;scalar=64";
    class       volScalarField;
    location    "1.6";
    object      p_rbgh;
}
// * * * * * * * * * * * * * * * * * * * * * * * * * * * * * * * * * * * * * //

dimensions      [1 -1 -2 0 0 0 0];

internalField   nonuniform List<scalar> 
13078
(
7.751425
5.080556
1.453839
-0.5306602
-1.613297
-2.234647
-2.532386
6.953797
3.622832
0.8816427
-0.785163
-1.797209
-2.389082
-2.66851
2.872213
1.428137
-0.0667732
-1.27862
-2.117661
-2.626481
-2.859814
0.5520487
-0.1656294
-1.069862
-1.898708
-2.54029
-2.941229
-3.108875
-1.01392
-1.44624
-2.033632
-2.599874
-3.044942
-3.327791
-3.417918
-2.340165
-2.605082
-2.981188
-3.352947
-3.636787
-3.789175
-3.790388
-3.566074
-3.721267
-3.944079
-4.161174
-4.304935
-4.336222
-4.233628
-4.760222
-4.838557
-4.947199
-5.032851
-5.04904
-4.965756
-4.757129
-5.965961
-5.986427
-6.002098
-5.975363
-5.874387
-5.678236
-5.362491
-7.21581
-7.189429
-7.126215
-6.999327
-6.787636
-6.479051
-6.051427
-8.536963
-8.469579
-8.336227
-8.116358
-7.797273
-7.375127
-6.830212
-9.954002
-9.848535
-9.649428
-9.339876
-8.91388
-8.375248
-7.706613
-11.49084
-11.348
-11.08441
-10.68531
-10.15028
-9.490228
-8.690043
-13.17161
-12.99051
-12.66133
-12.17037
-11.52239
-10.73302
-9.791668
-15.02149
-14.80002
-14.40241
-13.82035
-13.06001
-12.11971
-11.02465
-17.06731
-16.80248
-16.33258
-15.66278
-14.76752
-13.66696
-12.40445
-19.33801
-19.02581
-18.47687
-17.69915
-16.66271
-15.39482
-13.94904
-21.86518
-21.50082
-20.86549
-19.9689
-18.77828
-17.3272
-15.67923
-24.68342
-24.26135
-23.53111
-22.50406
-21.14452
-19.49309
-17.6191
-27.83073
-27.34464
-26.50988
-25.33994
-23.81042
-21.95606
-19.79872
-31.34878
-30.79172
-29.84205
-28.51693
-26.8236
-24.70914
-22.24679
-35.28317
-34.64741
-33.57114
-32.07309
-30.16432
-27.77685
-24.99861
-39.6836
-38.96084
-37.7456
-36.05788
-33.90976
-31.2241
-28.10116
-44.60403
-43.78545
-42.41842
-40.52369
-38.11529
-35.13907
-31.67282
-50.10261
-49.17908
-47.64734
-45.52865
-42.84191
-39.59712
-35.67877
-56.2414
-55.20366
-53.49441
-51.13448
-48.14207
-44.53047
-40.14686
-63.08597
-61.9251
-60.02645
-57.40966
-54.09065
-50.07925
-45.19657
-70.70492
-69.41401
-67.31439
-64.4278
-60.76483
-56.33307
-50.99702
-79.1693
-77.74159
-75.43236
-72.2672
-68.2486
-63.38758
-57.67797
-88.55808
-87.00951
-84.46081
-81.00992
-76.62817
-71.31039
-65.04243
-98.95442
-97.25265
-94.4777
-90.74351
-86.00334
-80.22859
-73.38696
-110.3714
-108.5617
-105.6399
-101.574
-96.48004
-90.27066
-82.88598
-122.8926
-121.0397
-117.9805
-113.7191
-108.1788
-101.5666
-93.65746
-136.5573
-134.6071
-131.5622
-127.0688
-121.2089
-114.2634
-105.9058
-151.396
-149.3538
-146.2478
-141.7684
-135.9275
-128.5608
-119.8465
-167.4188
-165.3097
-162.2033
-158.0015
-152.2613
-144.9433
-135.736
-184.6124
-182.4644
-179.4139
-175.4032
-170.2401
-163.025
-153.8011
-202.9432
-200.7856
-197.8602
-194.132
-189.4527
-183.0536
-174.8108
-222.3682
-220.232
-217.4825
-214.1589
-210.1789
-205.2513
-198.0216
-242.8937
-240.8279
-238.2132
-235.3512
-232.2257
-228.6917
-223.6944
-264.5203
-262.5276
-260.1312
-257.6013
-255.5145
-253.9894
-252.8065
-287.1917
-285.3321
-283.1926
-281.4303
-281.1724
-284.0445
-289.521
-311.2655
-309.3661
-308.2578
-309.3696
-315.6198
-328.2093
-343.3889
-337.6139
-336.3373
-338.8037
-349.3591
-368.9889
-393.5375
-414.6373
-368.3899
-370.4304
-382.4503
-408.119
-442.3852
-474.871
-498.4443
-407.4482
-417.339
-444.0599
-484.2011
-526.9958
-564.4238
-588.2786
-458.5398
-478.9345
-519.7479
-570.1327
-617.7799
-655.9475
-680.3545
-522.3271
-551.4977
-601.5649
-658.4759
-710.1539
-749.5308
-771.1739
-595.6298
-629.9967
-684.8545
-744.987
-799.1194
-839.6986
-858.6258
-673.2446
-709.0518
-765.4097
-826.9331
-881.4583
-920.5279
-937.3441
-750.3728
-785.4573
-840.2511
-901.5102
-955.4818
-992.2355
-1004.89
-821.1235
-854.0382
-907.6415
-968.1815
-1021.311
-1056.014
-1063.802
-879.8586
-909.6034
-960.7955
-1019.655
-1071.271
-1103.948
-1108.596
-923.3145
-950.1306
-998.3368
-1054.815
-1104.278
-1134.221
-1136.461
-949.8061
-974.5232
-1020.366
-1074.838
-1122.414
-1150.136
-1149.786
-958.0504
-981.446
-1025.662
-1078.556
-1124.658
-1150.923
-1148.962
-946.3609
-969.0968
-1012.331
-1064.039
-1108.866
-1134.01
-1131.135
-915.6482
-938.8345
-982.1245
-1033.288
-1077.368
-1102.005
-1099.148
-868.4145
-893.048
-937.3064
-988.5664
-1032.535
-1057.654
-1055.81
-806.6417
-833.3559
-878.9596
-930.4174
-974.3625
-1000.406
-999.0434
-733.2804
-762.1699
-808.0097
-858.6025
-901.9136
-928.1167
-929.0734
-652.5309
-682.528
-728.4174
-778.0384
-820.1305
-846.0396
-850.4122
-570.6727
-600.0908
-645.8507
-694.2609
-735.2207
-761.7242
-768.7987
-493.1644
-519.5096
-562.0677
-607.7302
-647.0011
-673.7623
-681.556
-424.2358
-443.8879
-480.1054
-521.5036
-557.3741
-582.2703
-591.8699
-367.2572
-378.0379
-404.112
-438.1394
-469.5677
-492.5326
-504.1099
-322.6573
-325.3017
-338.3253
-361.7995
-387.776
-409.8458
-421.3093
-287.6962
-286.1571
-288.6521
-299.4157
-316.8315
-333.9624
-344.9691
-259.1058
-256.4552
-254.351
-255.2715
-261.0191
-270.3872
-278.0508
-234.5295
-231.9196
-228.7232
-225.4142
-223.5482
-224.5343
-226.7356
-212.6397
-210.2583
-206.8615
-202.7813
-198.5439
-194.9095
-191.8478
-192.8141
-190.5023
-187.2197
-183.1462
-178.532
-173.4753
-167.8898
-174.6844
-172.4846
-169.3231
-165.3408
-160.5912
-155.0431
-148.0772
-158.1204
-156.0328
-153.0306
-149.0667
-144.21
-138.4616
-130.8384
-142.963
-140.995
-138.0569
-134.1742
-129.3051
-123.0712
-115.4852
-129.0638
-127.1909
-124.3521
-120.5534
-115.6361
-109.3412
-101.6984
-116.3311
-114.5687
-111.8473
-108.1827
-103.2258
-97.09071
-89.89839
-104.6768
-103.0411
-100.4622
-96.7854
-92.0591
-86.22967
-79.51889
-94.04874
-92.52988
-90.1078
-86.56326
-81.99861
-76.66166
-70.37164
-84.37627
-82.9688
-80.6126
-77.3382
-73.1246
-68.15259
-62.29985
-75.58922
-74.24327
-72.04094
-68.98128
-65.17012
-60.57167
-55.17062
-67.62874
-66.38201
-64.32411
-61.55242
-58.05193
-53.82179
-48.85895
-60.4144
-59.2917
-57.42251
-54.88887
-51.68413
-47.81894
-43.29775
-53.92283
-52.89686
-51.21694
-48.91189
-45.9935
-42.48005
-38.37776
-48.08634
-47.16484
-45.64746
-43.55821
-40.91211
-37.72231
-33.90247
-42.8441
-42.01998
-40.6549
-38.76989
-36.38178
-33.50319
-30.015
-38.14299
-37.40977
-36.18604
-34.49244
-32.34593
-29.75995
-26.63188
-33.93312
-33.28347
-32.19079
-30.6751
-28.75271
-26.43354
-23.63976
-30.16773
-29.59441
-28.62249
-27.27087
-25.5516
-23.4293
-20.95905
-26.80301
-26.29913
-25.438
-24.23736
-22.70725
-20.79547
-18.57251
-23.79824
-23.35728
-22.59729
-21.53461
-20.17798
-18.48104
-16.50512
-21.11577
-20.73166
-20.06365
-19.12653
-17.92593
-16.42543
-14.67565
-18.72103
-18.38816
-17.80356
-16.97909
-15.89819
-14.58413
-13.05217
-16.58231
-16.29564
-15.78687
-15.06602
-14.10837
-12.94084
-11.61075
-14.67067
-14.42566
-13.98572
-13.35941
-12.52369
-11.50023
-10.33187
-12.95975
-12.75239
-12.37509
-11.83491
-11.11046
-10.21871
-9.195085
-11.42556
-11.25238
-10.93239
-10.47043
-9.847848
-9.076428
-8.184057
-10.04622
-9.904345
-9.636786
-9.239049
-8.71354
-8.057129
-7.284732
-8.801726
-8.688968
-8.470998
-8.139483
-7.695499
-7.147252
-6.485083
-7.673572
-7.588368
-7.417842
-7.152801
-6.79054
-6.335616
-5.774904
-6.644426
-6.586068
-6.462084
-6.261859
-5.978627
-5.61164
-5.145784
-5.697739
-5.666577
-5.5899
-5.454628
-5.249176
-4.967005
-4.59086
-4.817195
-4.814985
-4.788528
-4.720693
-4.593826
-4.39502
-4.10467
-3.986152
-4.016454
-4.046095
-4.051086
-4.005909
-3.890591
-3.683065
-3.186303
-3.255976
-3.351384
-3.438171
-3.480434
-3.450182
-3.32315
-2.396479
-2.517103
-2.692685
-2.875748
-3.014001
-3.071706
-3.025057
-1.589811
-1.781019
-2.062865
-2.359728
-2.604846
-2.756537
-2.788962
-0.728226
-1.02277
-1.447366
-1.885839
-2.254751
-2.508546
-2.61088
0.251322
-0.2037071
-0.8290101
-1.452437
-1.972229
-2.322369
-2.488139
1.481562
0.7507534
-0.1865009
-1.072079
-1.751393
-2.197035
-2.419699
3.462944
2.014918
0.4752595
-0.7448289
-1.600019
-2.136498
-2.404941
7.168718
3.805782
1.11984
-0.5307607
-1.546467
-2.149372
-2.444061
-2.578597
-2.421221
-2.103882
-1.761564
-1.279663
-0.7674003
-0.251161
-2.700099
-2.529353
-2.199707
-1.842111
-1.34941
-0.8348162
-0.3683576
-2.860935
-2.666204
-2.314081
-1.846429
-1.431602
-0.9038838
-0.4222937
-3.065508
-2.837204
-2.458878
-2.057808
-1.523413
-0.9706248
-0.4611307
-3.317829
-3.04423
-2.625877
-2.195544
-1.626475
-1.040495
-0.4996156
-3.623023
-3.293102
-2.824917
-2.355012
-1.743207
-1.116477
-0.5395467
-3.98629
-3.589016
-3.059721
-2.540523
-1.867388
-1.199229
-0.5807536
-4.415254
-3.936781
-3.333981
-2.754759
-2.006398
-1.287334
-0.6211802
-4.916506
-4.343312
-3.651644
-3.00091
-2.165736
-1.376163
-0.6552914
-5.495503
-4.812117
-4.01911
-3.28201
-2.338916
-1.455583
-0.6672263
-6.15535
-5.352441
-4.437726
-3.604907
-2.530406
-1.516091
-0.5475275
-6.903331
-5.969082
-4.921261
-3.972919
-2.757608
-1.603564
-0.4806581
-7.747906
-6.669943
-5.475651
-4.400786
-3.027367
-1.743955
-0.5213074
-8.698789
-7.46342
-6.108019
-4.894416
-3.349783
-1.911381
-0.5153481
-9.767174
-8.358737
-6.825364
-5.458991
-3.726398
-2.128018
-0.6297714
-10.96618
-9.366479
-7.635427
-6.099324
-4.156107
-2.373671
-0.7040385
-12.3112
-10.49926
-8.547715
-6.821639
-4.643225
-2.647959
-0.7866373
-13.82028
-11.7722
-9.574442
-7.639846
-5.276721
-2.953506
-0.8691346
-15.5145
-13.20314
-10.72959
-8.556554
-5.904204
-3.295664
-0.9610881
-17.41845
-14.8132
-12.03062
-9.588673
-6.608653
-3.680028
-1.063346
-19.56059
-16.62717
-13.49806
-10.75267
-7.402947
-4.112725
-1.177365
-21.97363
-18.67406
-15.15651
-12.06698
-8.300092
-4.601404
-1.305965
-24.69513
-20.98744
-17.03884
-13.54511
-9.318507
-5.155615
-1.45248
-27.77288
-23.60325
-19.16041
-14.51021
-10.64185
-5.796975
-1.62062
-31.25064
-26.57257
-21.60728
-17.18376
-12.05555
-6.521251
-1.814533
-35.18032
-29.92783
-24.33637
-19.37754
-13.61498
-7.350598
-2.038278
-39.64663
-33.73928
-27.46181
-21.87988
-15.39527
-8.307915
-2.29686
-44.88704
-38.07012
-31.03625
-24.75026
-17.45769
-9.705275
-2.59867
-50.85605
-43.67951
-36.09184
-28.06069
-19.8429
-11.12743
-2.950452
-57.45387
-49.40732
-40.92596
-31.92047
-22.61329
-12.69047
-3.363237
-65.25051
-56.34511
-46.53596
-36.40484
-25.85463
-14.78983
-3.871279
-74.27281
-64.2102
-53.062
-41.66691
-29.69211
-17.49896
-4.464378
-84.36376
-73.78685
-60.76094
-47.90777
-34.28178
-20.26666
-5.17024
-95.96331
-84.32447
-70.40829
-55.40424
-39.86724
-23.72738
-6.850974
-109.3892
-96.66076
-81.92837
-64.55871
-46.8015
-28.03099
-8.162262
-124.9553
-111.1407
-96.19582
-75.97166
-55.62867
-33.62512
-9.933776
-143.0218
-128.2537
-112.6041
-91.83941
-67.20059
-41.40693
-14.04648
-164.0121
-148.5301
-132.5739
-111.0098
-83.33519
-52.69441
-19.34244
-188.2321
-172.5369
-157.1277
-136.4387
-106.5233
-69.64562
-27.80726
-216.7261
-200.807
-187.2398
-167.2514
-136.381
-92.24793
-39.96652
-249.5542
-234.2133
-223.0714
-203.749
-172.588
-120.2874
-55.63985
-293.4978
-278.8255
-269.8939
-249.1712
-211.2963
-153.3503
-75.31189
-353.8272
-337.0014
-327.8789
-302.4126
-253.8603
-187.2435
-93.62223
-425.8774
-404.5167
-390.6385
-358.9611
-302.9883
-223.6875
-120.3185
-507.5923
-483.6903
-464.4984
-419.8815
-354.4518
-258.5157
-144.7948
-594.8508
-565.0612
-537.4755
-485.9736
-402.7082
-300.4002
-168.9488
-683.3498
-647.9355
-610.9813
-546.1326
-458.3491
-338.7298
-191.6487
-767.2836
-728.8991
-682.5286
-610.4056
-508.1963
-379.3107
-220.3993
-850.439
-805.3385
-752.8
-670.1604
-557.0196
-418.0014
-252.9563
-924.5981
-873.7321
-810.2982
-721.7441
-600.3678
-453.7193
-287.5062
-988.6625
-940.4254
-864.4907
-762.1658
-633.0648
-482.1881
-310.3439
-1039.616
-986.0972
-907.437
-794.9707
-657.9425
-496.4964
-319.9972
-1080.199
-1025.777
-936.6699
-812.3489
-663.3388
-488.759
-311.3035
-1105.056
-1050.211
-953.0812
-818.4568
-649.4766
-457.8234
-256.2437
-1115.016
-1059.442
-955.8785
-811.0323
-622.0641
-389.3422
-180.5598
-1112.328
-1057.489
-949.3723
-796.283
-590.9059
-323.5344
-1094.006
-1042.76
-934.642
-781.7066
-576.4503
-309.2377
-1062.716
-1016.245
-912.3754
-768.1222
-578.8967
-347.987
-1021.692
-980.2351
-883.6377
-749.6262
-587.2368
-402.8564
-229.9254
-967.1258
-934.7734
-842.7829
-724.5065
-580.343
-422.6858
-255.9864
-900.474
-872.8691
-794.0777
-685.7206
-557.644
-418.6092
-267.7915
-829.4844
-809.9109
-740.5998
-642.3709
-524.1239
-395.1396
-253.9508
-750.0703
-736.6797
-668.185
-585.8086
-481.5324
-360.0898
-226.1411
-666.8734
-656.6798
-605.4305
-530.9689
-434.2233
-319.6455
-189.51
-580.68
-580.7924
-534.3483
-468.9755
-381.6997
-274.3954
-147.7429
-498.5982
-499.3766
-463.3396
-405.5665
-331.9738
-237.0006
-123.8484
-418.9431
-425.2838
-394.4798
-346.6202
-281.0827
-201.1342
-100.9086
-344.8205
-352.714
-329.9036
-292.0414
-236.8872
-167.6224
-86.55274
-279.748
-288.0954
-271.5629
-240.6717
-197.8575
-141.225
-74.6983
-226.0013
-232.9778
-221.3015
-199.0124
-164.1251
-119.2813
-60.85962
-187.0528
-189.7777
-179.7901
-162.0298
-134.11
-96.64909
-48.42082
-160.4003
-159.103
-147.6261
-131.7902
-109.5927
-77.02153
-35.61577
-139.6121
-136.4551
-124.8058
-109.3962
-88.89649
-58.46882
-24.27378
-121.5024
-117.819
-105.648
-90.47024
-69.91482
-44.44243
-16.09309
-106.2561
-101.9412
-89.76208
-74.94176
-54.63661
-33.37237
-9.897412
-93.03645
-88.4287
-76.68019
-61.61445
-44.18693
-25.96507
-6.725002
-81.6037
-76.92224
-65.81825
-51.68604
-36.46998
-20.77566
-4.638368
-71.68127
-67.09644
-56.55161
-43.50469
-30.62113
-17.07811
-2.731531
-63.05306
-58.67509
-48.58061
-37.33479
-26.01295
-14.30568
-2.126903
-55.53949
-51.39755
-41.7503
-32.26326
-22.2849
-12.06573
-1.344165
-48.95478
-44.83578
-36.44727
-28.01531
-19.21372
-10.28299
-0.7663843
-43.02518
-39.32425
-31.91614
-24.41841
-16.64284
-8.797029
-0.5307567
-37.8759
-34.34343
-28.02435
-21.34555
-14.46662
-7.167901
-0.3214124
-33.51255
-30.29933
-24.6521
-18.69944
-12.60973
-6.178193
-0.1736926
-29.54966
-24.72157
-19.75905
-16.40045
-11.01543
-5.341754
-0.05868177
-26.06517
-21.8748
-17.44
-14.43101
-9.634569
-4.463474
0.03020728
-23.09747
-19.36728
-15.40982
-12.71993
-8.453227
-3.814603
0.09764809
-20.48797
-17.16082
-13.63123
-11.22795
-7.432274
-3.323819
0.1476454
-18.18346
-15.21914
-12.07198
-9.924638
-6.543741
-2.901862
0.1838433
-16.14745
-13.50937
-10.7039
-8.784747
-5.660027
-2.53306
0.2099583
-14.35148
-12.00249
-9.501953
-7.786633
-4.974356
-2.217098
0.2267133
-12.7632
-10.67305
-8.444542
-6.911026
-4.40447
-1.946307
0.2360826
-11.35737
-9.49904
-7.513224
-6.141859
-3.905942
-1.712002
0.2393108
-10.11201
-8.461299
-6.692119
-5.465455
-3.469583
-1.509231
0.2375573
-9.007918
-7.543303
-5.967654
-4.870087
-3.087274
-1.333885
0.2316588
-8.028526
-6.730936
-5.328238
-4.343354
-2.726931
-1.182647
0.2215317
-7.159643
-6.012262
-4.764576
-3.882292
-2.405652
-1.051849
0.2085178
-6.389159
-5.377209
-4.268548
-3.478269
-2.15676
-0.9390727
0.1996176
-5.706885
-4.81748
-3.833873
-3.125557
-1.942189
-0.8456737
0.1819472
-5.104325
-4.326328
-3.45558
-2.820366
-1.760314
-0.7725473
0.1574426
-4.574564
-3.898299
-3.129768
-2.559812
-1.609808
-0.7139972
0.1361295
-4.111964
-3.528928
-2.853258
-2.341906
-1.489018
-0.6719717
0.1173784
-3.711956
-3.214325
-2.623689
-2.161957
-1.399438
-0.6646375
0.08384694
-3.370846
-2.952081
-2.431498
-2.01552
-1.338401
-0.696381
-0.1330552
-3.087425
-2.735554
-2.277123
-1.899053
-1.291342
-0.7127395
-0.1948886
-2.858423
-2.564353
-2.156677
-1.807792
-1.252586
-0.7140232
-0.2192241
-2.681755
-2.435372
-2.068057
-1.74022
-1.231319
-0.7122127
-0.2383034
-2.554413
-2.346668
-2.00963
-1.694639
-1.211177
-0.7130463
-0.2554184
-2.474458
-2.295972
-1.979463
-1.670418
-1.202669
-0.7182498
-0.2723985
-2.439492
-2.280557
-1.975242
-1.665916
-1.2052
-0.7271671
-0.2891545
-2.446865
-2.297452
-1.994604
-1.679353
-1.217279
-0.7365364
-0.3022081
-2.494038
-2.343927
-2.035752
-1.709799
-1.2391
-0.7420479
-0.2697566
-0.2360187
-0.2145249
-0.2105677
-0.2079206
-0.2063822
-0.2049475
-0.2031532
-0.2010374
-0.198587
-0.1959323
-0.1929705
-0.1896987
-0.1861313
-0.1822842
-0.1781831
-0.1738275
-0.1692463
-0.1644577
-0.2474242
-0.2403391
-0.2360165
-0.2332956
-0.2313993
-0.2296451
-0.2275558
-0.22521
-0.2225207
-0.2195427
-0.2162105
-0.2125345
-0.2085289
-0.2042112
-0.199622
-0.1947466
-0.1896051
-0.1842321
-0.2606538
-0.2621521
-0.260239
-0.2581943
-0.2564025
-0.2544853
-0.252238
-0.2496831
-0.2467812
-0.2434633
-0.239751
-0.2356567
-0.2311968
-0.2263906
-0.2212923
-0.2158746
-0.2101529
-0.2041758
-0.2829825
-0.2856185
-0.2844899
-0.2832301
-0.2816747
-0.2796042
-0.2772175
-0.2744613
-0.2713877
-0.2677284
-0.2636265
-0.2590983
-0.2541656
-0.248851
-0.2432194
-0.2372349
-0.2309109
-0.2243079
-0.3070142
-0.3101815
-0.3096118
-0.3087658
-0.3073393
-0.3051474
-0.3025488
-0.2995848
-0.2963502
-0.2923781
-0.2878744
-0.2828937
-0.2774672
-0.2716215
-0.2654005
-0.2588513
-0.2519003
-0.2446465
-0.3319297
-0.3356288
-0.3354027
-0.3348013
-0.3334838
-0.3312229
-0.3283251
-0.325168
-0.3217241
-0.3174595
-0.3125353
-0.3070801
-0.3011348
-0.2947322
-0.2879034
-0.2807447
-0.2731418
-0.2652104
-0.3578157
-0.361717
-0.3618218
-0.3614771
-0.3602511
-0.3579108
-0.3547011
-0.3513172
-0.3476024
-0.3430204
-0.3376517
-0.3316957
-0.3252022
-0.3182131
-0.3107641
-0.3029431
-0.2946555
-0.2860164
-0.3859722
-0.3893935
-0.3894255
-0.3891242
-0.3878724
-0.3853274
-0.3818695
-0.3781374
-0.3740675
-0.3691114
-0.3632674
-0.3567783
-0.3497037
-0.3420947
-0.3339906
-0.3254679
-0.3164618
-0.307082
-0.4200866
-0.4238617
-0.4222126
-0.4191457
-0.416813
-0.4137452
-0.4098403
-0.4056803
-0.4011807
-0.3957809
-0.3894241
-0.3823654
-0.3746736
-0.3664081
-0.3576117
-0.3483418
-0.3385798
-0.3284228
-0.4647162
-0.4668013
-0.4618075
-0.454996
-0.4489084
-0.4434206
-0.4388239
-0.4340254
-0.4289944
-0.4230728
-0.4161615
-0.4084949
-0.4001468
-0.3911839
-0.3816541
-0.3715874
-0.3610282
-0.350054
-0.5350509
-0.51719
-0.5059209
-0.4943091
-0.4839704
-0.4755501
-0.4693247
-0.4632425
-0.4575503
-0.4510286
-0.4435173
-0.4352044
-0.4261579
-0.4164532
-0.4061448
-0.3952262
-0.3838247
-0.3719893
-0.5755528
-0.560833
-0.5492327
-0.5340461
-0.5200111
-0.5094873
-0.5017558
-0.4932534
-0.4868898
-0.4796976
-0.4715363
-0.4625322
-0.4527425
-0.4422467
-0.4311101
-0.4192797
-0.4069862
-0.3942412
-0.5941941
-0.5880031
-0.5841302
-0.5697668
-0.5570934
-0.5437457
-0.5354973
-0.5248426
-0.5171131
-0.5091374
-0.5002669
-0.490519
-0.4799363
-0.468596
-0.4565768
-0.4437681
-0.4305279
-0.4168205
-0.6215643
-0.6105684
-0.611492
-0.6022588
-0.5905874
-0.5787238
-0.569593
-0.5581704
-0.5481421
-0.5393851
-0.5297554
-0.519207
-0.5077754
-0.4955329
-0.4825714
-0.4687113
-0.4544644
-0.4397361
-0.6223134
-0.6294205
-0.6352498
-0.6306028
-0.6238174
-0.6129503
-0.6043825
-0.5921623
-0.5802182
-0.5705161
-0.5600525
-0.5486408
-0.5362982
-0.5230907
-0.5091209
-0.4941282
-0.478808
-0.4629948
-0.6411908
-0.6547647
-0.6640998
-0.6627856
-0.6579019
-0.6484771
-0.6392214
-0.6269015
-0.6133213
-0.6025632
-0.5912045
-0.5788667
-0.5655464
-0.5513042
-0.5362522
-0.5200365
-0.5035695
-0.486601
-0.6742185
-0.6882973
-0.6974139
-0.6976323
-0.6937888
-0.685284
-0.6744345
-0.6623598
-0.6474866
-0.6355158
-0.6232657
-0.6099427
-0.5955664
-0.5802101
-0.5639923
-0.5464521
-0.5287568
-0.510555
-0.7144188
-0.7238126
-0.732581
-0.7330061
-0.7317974
-0.7237095
-0.7117752
-0.6984351
-0.6828094
-0.6695559
-0.656332
-0.641935
-0.6264094
-0.6098455
-0.5923674
-0.5733886
-0.5543744
-0.5348539
-0.7548845
-0.7627085
-0.7722468
-0.7724459
-0.7706447
-0.7631711
-0.7509219
-0.736224
-0.7193198
-0.7048389
-0.6905052
-0.6749146
-0.6581271
-0.6402478
-0.621402
-0.6008562
-0.5804232
-0.5594895
-0.7961662
-0.8056293
-0.8142998
-0.8145256
-0.8124633
-0.8045615
-0.7909394
-0.7754481
-0.7570924
-0.7414516
-0.7258674
-0.7089476
-0.6907686
-0.6714515
-0.6511166
-0.6288592
-0.6068981
-0.5844482
-0.8393905
-0.8504236
-0.8590202
-0.8585206
-0.8544912
-0.8486684
-0.8332278
-0.8159258
-0.7961736
-0.7794565
-0.7624871
-0.7440941
-0.7243825
-0.7034847
-0.6811659
-0.6573781
-0.6337888
-0.6097083
-0.8844834
-0.8962055
-0.9061936
-0.9048054
-0.8996193
-0.8939688
-0.8757717
-0.8575379
-0.8366612
-0.8189368
-0.8004353
-0.7804121
-0.7590092
-0.7363751
-0.7119492
-0.6864392
-0.661075
-0.635241
-0.9318049
-0.9438985
-0.9555046
-0.9533428
-0.9469043
-0.9388935
-0.9212257
-0.9022039
-0.8791283
-0.8600202
-0.8397802
-0.8179552
-0.7946819
-0.7701429
-0.7436353
-0.7160194
-0.6887294
-0.6610086
-0.9817676
-0.9941072
-1.007193
-1.004356
-0.9965804
-0.9853142
-0.9686399
-0.9484608
-0.9243806
-0.9028882
-0.8805699
-0.856784
-0.8314438
-0.8048037
-0.7760073
-0.7460876
-0.7167114
-0.6869571
-1.034628
-1.047455
-1.061739
-1.058216
-1.049071
-1.034795
-1.017879
-0.996869
-0.9720363
-0.9483233
-0.9230188
-0.8969308
-0.8693167
-0.8403556
-0.8090458
-0.7766069
-0.7449678
-0.71302
-1.090907
-1.104572
-1.119473
-1.115427
-1.105132
-1.088946
-1.069815
-1.045703
-1.021491
-0.9957129
-0.9678984
-0.9385213
-0.9083286
-0.876768
-0.841862
-0.8075263
-0.7734289
-0.7391145
-1.15094
-1.165696
-1.181177
-1.176333
-1.165264
-1.146648
-1.123368
-1.097562
-1.072879
-1.045082
-1.014665
-0.9823099
-0.9485858
-0.9140494
-0.8752228
-0.8387569
-0.8020057
-0.7651398
-1.215073
-1.232234
-1.246632
-1.241429
-1.22956
-1.208006
-1.180659
-1.15228
-1.126958
-1.096691
-1.063358
-1.027861
-0.990673
-0.95235
-0.9097173
-0.8702297
-0.8305929
-0.790978
-1.283809
-1.303124
-1.316793
-1.311125
-1.29771
-1.272298
-1.240212
-1.21096
-1.184172
-1.150628
-1.113946
-1.074944
-1.034179
-0.9920027
-0.9447105
-0.9018271
-0.8590572
-0.8164787
-1.357684
-1.379112
-1.392108
-1.385323
-1.369135
-1.339801
-1.303607
-1.273008
-1.243852
-1.207198
-1.166641
-1.123655
-1.078882
-1.030968
-0.9805061
-0.9334994
-0.88723
-0.841763
-1.437464
-1.460481
-1.473186
-1.462446
-1.443715
-1.410823
-1.371279
-1.339527
-1.305055
-1.266474
-1.221428
-1.173873
-1.124619
-1.071201
-1.016728
-0.9654955
-0.9153184
-0.8666945
-1.523441
-1.548157
-1.560437
-1.548811
-1.524988
-1.486454
-1.448006
-1.411539
-1.372704
-1.328386
-1.278172
-1.225567
-1.171315
-1.112459
-1.052901
-0.9973046
-0.9430758
-0.8883051
-1.615061
-1.642809
-1.653691
-1.640688
-1.616247
-1.572381
-1.531171
-1.491836
-1.444854
-1.392705
-1.336831
-1.27864
-1.21861
-1.150987
-1.08872
-1.028372
-0.969706
-0.908873
-1.715841
-1.745721
-1.755502
-1.74125
-1.713039
-1.666132
-1.621617
-1.574891
-1.519648
-1.459989
-1.397608
-1.332978
-1.2666
-1.190764
-1.123842
-1.058333
-0.9946917
-0.9260928
-1.800065
-1.85886
-1.868856
-1.851736
-1.819512
-1.765366
-1.714306
-1.65948
-1.597271
-1.52914
-1.460374
-1.388406
-1.31481
-1.230973
-1.157874
-1.086764
-1.013477
-0.9434673
-1.905628
-1.984191
-1.994891
-1.974327
-1.932067
-1.870824
-1.810383
-1.748828
-1.680892
-1.603163
-1.525162
-1.444616
-1.357401
-1.269823
-1.190285
-1.11293
-1.031378
-0.9582972
-2.000436
-2.120242
-2.130486
-2.105795
-2.056039
-1.991567
-1.922756
-1.848486
-1.768984
-1.68033
-1.591285
-1.501223
-1.403779
-1.307267
-1.22045
-1.136295
-1.044447
-0.9696999
-2.077175
-2.281173
-2.282863
-2.251157
-2.193458
-2.119683
-2.044521
-1.957603
-1.862219
-1.759028
-1.658486
-1.557237
-1.441096
-1.342299
-1.247594
-1.149383
-1.056515
-0.9770362
-2.110484
-2.465836
-2.457783
-2.413135
-2.345676
-2.275138
-2.176481
-2.071499
-1.959108
-1.840149
-1.726479
-1.612723
-1.482435
-1.374033
-1.270417
-1.156038
-1.064048
-0.9794949
-2.391267
-2.697997
-2.667996
-2.60389
-2.525606
-2.438349
-2.318222
-2.191499
-2.060348
-1.923101
-1.794443
-1.658494
-1.520465
-1.401642
-1.282805
-1.163833
-1.065847
-0.9762038
-0.6350271
-2.999893
-2.907997
-2.827329
-2.72587
-2.615819
-2.469545
-2.318459
-2.164927
-2.007179
-1.86133
-1.705081
-1.554235
-1.423549
-1.285501
-1.164805
-1.06086
-0.9661881
-2.683024
-3.393083
-3.16451
-3.066792
-2.946877
-2.805232
-2.630141
-2.450811
-2.272408
-2.091127
-1.925251
-1.73524
-1.582135
-1.430458
-1.279919
-1.158239
-1.048044
-0.9480749
-3.857967
-3.71293
-3.425606
-3.326619
-3.17663
-2.997691
-2.799557
-2.588832
-2.381868
-2.173524
-1.985431
-1.77088
-1.602042
-1.429183
-1.271241
-1.142205
-1.025523
-0.9128335
-4.793919
-4.022659
-3.755046
-3.607403
-3.425808
-3.213326
-2.98004
-2.732495
-2.492039
-2.252663
-2.018917
-1.796586
-1.609933
-1.404883
-1.251445
-1.114231
-0.9820476
-0.8702969
-6.370627
-4.314965
-4.073655
-3.922977
-3.701659
-3.448716
-3.17251
-2.881056
-2.594991
-2.324889
-2.04914
-1.81065
-1.583652
-1.379333
-1.216748
-1.060269
-0.929381
-0.8148137
-9.836475
-4.675919
-4.476925
-4.277393
-4.011055
-3.708181
-3.377712
-3.033448
-2.691822
-2.387166
-2.055499
-1.80646
-1.532942
-1.337149
-1.154033
-0.9936709
-0.8569856
-0.7397863
-22.45687
-5.157162
-4.999814
-4.681354
-4.358195
-4.013264
-3.596712
-3.188321
-2.787443
-2.416599
-2.056343
-1.758426
-1.479617
-1.262641
-1.066912
-0.8993869
-0.766214
-0.6540816
-44.10662
-5.286138
-5.507934
-5.167285
-4.764173
-4.337553
-3.831574
-3.334017
-2.86994
-2.404048
-2.017772
-1.670875
-1.384786
-1.146958
-0.946023
-0.7889611
-0.6523822
-0.5460853
-79.33945
-4.533597
-6.082293
-5.715699
-5.279627
-4.698283
-4.078848
-3.470407
-2.888334
-2.37619
-1.931133
-1.541683
-1.236287
-0.9919355
-0.7931156
-0.6454224
-0.5248612
-0.4229009
-108.7932
-2.132837
-6.749475
-6.394288
-2.84756
-2.272901
-1.76492
-1.358035
-1.034743
-0.7938664
-0.6077967
-0.47467
-0.3633148
-0.2839202
-133.4176
-6.247918
-1.534161
-1.070364
-0.7737146
-0.5522764
-0.3887956
-0.2707557
-0.1865939
-0.1215565
-136.8269
-0.7203662
-0.4337849
-0.2387562
-0.1275287
-0.03703697
0.01350458
0.04016237
-0.006888561
0.1084301
0.1689283
0.2026301
0.2129953
0.2250009
0.4888173
0.4828174
0.4627931
0.4348333
0.405048
0.8929158
0.7986424
0.7171021
0.6453597
0.5786593
1.261078
1.089243
0.9478338
0.8333891
0.7381398
1.565086
1.344273
1.160277
1.012957
0.8920288
1.791306
1.532746
1.322003
1.148778
1.01153
1.898293
1.635611
1.424644
1.248152
1.09781
2.195142
1.929482
1.692117
1.480179
1.308116
1.157772
-117.6335
2.151656
1.902413
1.686554
1.49739
1.333594
1.193657
-106.6759
-5.225885
2.171468
2.00049
1.821097
1.643334
1.480565
1.33107
1.200327
-85.15112
8.644399
-0.7785248
2.018852
2.053763
1.966742
1.849476
1.715993
1.574327
1.438921
1.308378
1.190959
-56.54549
2.349021
-0.3962675
-0.09392845
0.3250753
0.7536623
1.139445
1.458197
1.681395
1.773309
1.808207
1.774075
1.699988
1.601157
1.492175
1.379232
1.269847
1.165972
-24.62266
0.7909293
-0.1334879
0.1614895
0.4493524
0.7559819
1.053532
1.30022
1.463155
1.572666
1.610301
1.601733
1.557111
1.487735
1.403043
1.31254
1.219745
1.130669
-6.197909
0.4738102
0.1557469
0.3446465
0.5560453
0.7659083
0.9891159
1.171452
1.310931
1.40066
1.447756
1.455615
1.427154
1.378145
1.314775
1.241384
1.165103
1.089425
-0.4477397
0.5633079
0.3818532
0.4731045
0.6182537
0.775873
0.9410992
1.083045
1.196007
1.269649
1.317362
1.325283
1.314179
1.277114
1.228779
1.17106
1.107433
1.043536
-0.742963
0.3920575
0.4723089
0.5524408
0.6580313
0.7802261
0.9025931
1.013539
1.104189
1.162451
1.208399
1.21653
1.211871
1.186847
1.149322
1.102245
1.050256
0.9957324
-0.1696021
0.3635701
0.5144178
0.5918003
0.6800265
0.7758542
0.8697398
0.9564449
1.024942
1.076349
1.110948
1.124917
1.122621
1.105563
1.07491
1.037446
0.9937514
0.947982
0.1233029
0.3623381
0.5694651
0.6238066
0.6930469
0.7680527
0.8408415
0.9081154
0.9623613
1.004169
1.031675
1.04552
1.042217
1.030864
1.007693
0.976002
0.9402189
0.9005337
1.895105
0.450366
0.6004426
0.6451386
0.7004038
0.7567202
0.8146989
0.8666159
0.9089847
0.9422576
0.9612276
0.9764272
0.9738276
0.965039
0.946227
0.9194463
0.8885957
0.8553534
2.566491
0.5545973
0.6241874
0.6643099
0.7047025
0.7457362
0.7904341
0.8299188
0.8626056
0.8884282
0.9032239
0.9133426
0.913055
0.9036722
0.8898305
0.8670062
0.840248
0.8112476
2.645481
0.6421939
0.6744466
0.6869702
0.7073933
0.7352922
0.7677321
0.7968629
0.8213865
0.8409136
0.8517046
0.8590289
0.8585168
0.8498953
0.83723
0.818312
0.7948694
0.7693418
1.127865
0.7031676
0.7031303
0.7062108
0.7086228
0.7240245
0.7458927
0.7663737
0.7840956
0.7981705
0.8056062
0.809324
0.8090534
0.8010426
0.7885469
0.772983
0.7522428
0.7296001
1.347415
0.7403552
0.7189769
0.7129135
0.7045854
0.7105204
0.7239213
0.7374602
0.7496162
0.7591446
0.7636119
0.7645731
0.7639954
0.7562087
0.7446445
0.7301527
0.7121934
0.6919344
0.9139747
0.7314884
0.7063071
0.7039854
0.6930324
0.6935458
0.7010145
0.709313
0.7170403
0.7228951
0.7248943
0.7242421
0.7215352
0.7147976
0.7039215
0.6909035
0.674443
0.6562163
0.8300807
0.7172097
0.6913007
0.6891196
0.6761002
0.6732619
0.6770111
0.6817401
0.6857569
0.688725
0.6887838
0.686732
0.6832338
0.6763011
0.6659555
0.6530889
0.6388903
0.6223068
0.757057
0.7054408
0.676971
0.670944
0.656595
0.6514583
0.6526494
0.6549393
0.6556552
0.6561312
0.6547531
0.6516437
0.6475663
0.6401917
0.6303498
0.6182619
0.6049365
0.5900416
0.6698115
0.6631572
0.650282
0.6441237
0.6382316
0.6308067
0.6279742
0.6275655
0.6266826
0.6250073
0.6224231
0.6184215
0.6128563
0.6063521
0.5967819
0.5853434
0.5730587
0.5592379
0.659151
0.6393932
0.6231254
0.6185951
0.6133394
0.6066399
0.6022661
0.6000834
0.5978979
0.595061
0.5914732
0.5867856
0.580841
0.5742124
0.564936
0.5540573
0.5420615
0.5295987
0.633922
0.6165257
0.5965545
0.5923731
0.5868306
0.5804537
0.5757093
0.5725486
0.5695428
0.5659248
0.5616389
0.5564637
0.5502734
0.5431479
0.5345554
0.5241824
0.5128632
0.5013052
0.6105247
0.5948941
0.5703164
0.5642767
0.5590758
0.5534252
0.548736
0.5450241
0.5418753
0.5375109
0.5327307
0.5272268
0.5208652
0.5138667
0.5054427
0.4955364
0.4848458
0.4739768