/*--------------------------------*- C++ -*----------------------------------*\
| =========                 |                                                 |
| \\      /  F ield         | OpenFOAM: The Open Source CFD Toolbox           |
|  \\    /   O peration     | Version:  2206                                  |
|   \\  /    A nd           | Website:  www.openfoam.com                      |
|    \\/     M anipulation  |                                                 |
\*---------------------------------------------------------------------------*/
FoamFile
{
    version     2.0;
    format      ascii;
    arch        "LSB;label=32;scalar=64";
    class       volScalarField;
    location    "1.6";
    object      pff;
}
// * * * * * * * * * * * * * * * * * * * * * * * * * * * * * * * * * * * * * //

dimensions      [1 -1 -2 0 0 0 0];

internalField   nonuniform List<scalar> 
13078
(
0
66.83326
678.1175
696.7845
644.4297
584.1021
521.3941
96.4927
678.6228
764.3377
707.7908
647.4926
585.9809
522.861
852.4463
848.0983
782.3917
716.0024
652.2863
588.8385
524.8575
948.8331
863.4408
790.217
722.753
656.8123
591.8301
527.0338
953.3992
868.1323
795.1591
726.4513
660.473
594.6334
529.1676
949.2454
868.4714
797.3009
728.7389
662.289
596.961
531.1768
945.1477
867.447
798.1761
730.1832
663.5202
597.9613
532.9035
942.2746
866.1528
798.449
730.8847
664.2064
598.6363
533.5122
940.2768
865.0165
798.1536
731.0371
664.5539
599.0665
533.9421
938.8723
864.1114
797.771
731.0167
664.7215
599.3374
534.2449
937.8578
863.4044
797.4165
730.9222
664.7923
599.5151
534.4789
937.0693
862.8793
797.1138
730.8049
664.815
599.6407
534.6606
936.467
862.4539
796.8581
730.7005
664.8168
599.7343
534.8148
935.9741
862.1164
796.6537
730.6246
664.8383
599.8188
534.9581
935.5717
861.844
796.5123
730.949
665.3524
599.9498
535.0954
935.2271
861.6237
796.4176
731.3618
665.7231
600.0653
535.2421
934.9153
861.415
796.307
731.3796
665.7953
600.1695
535.3947
934.6207
861.2374
796.2158
731.3865
665.8667
600.2829
535.557
934.3364
861.0699
796.1434
731.3998
665.9589
600.4383
535.7244
934.0527
860.9207
796.092
731.4729
666.5889
601.2679
535.9698
933.7689
860.7587
796.0409
731.5583
667.3039
601.8905
536.2208
933.4531
860.5908
795.9725
731.5883
667.5019
602.117
536.4423
933.1181
860.4134
795.9092
731.6375
667.6442
602.3609
536.7311
932.7441
860.2032
795.8287
731.6855
667.8638
603.2804
537.8989
932.3182
859.9675
795.7218
731.7281
668.0849
604.2874
538.7696
931.8392
859.6854
795.5989
731.7548
668.2445
604.674
539.1797
931.2676
859.3422
795.4293
731.7564
668.3982
604.9754
539.6053
930.6214
858.9446
795.2111
731.7243
668.555
605.337
540.9026
929.8755
858.4607
794.9298
731.6555
668.6877
605.6996
542.267
929.2126
858.0986
794.6378
731.5405
668.7684
605.9516
542.8331
928.4192
857.5704
794.2252
731.3612
668.8113
606.179
543.3053
927.3306
857.1568
794.2572
731.1996
668.795
606.3665
543.732
926.0743
856.6723
794.5101
731.7367
668.855
606.527
544.0203
924.6788
855.8946
794.5767
731.8502
668.8663
606.6782
544.2824
923.2166
855.0605
794.3152
732.5046
669.9372
607.015
544.5615
921.7436
854.3553
794.1589
733.4322
671.7146
608.7656
545.1115
920.3984
853.9382
794.316
734.2246
673.5554
610.0657
545.8714
919.4273
854.0624
795.0853
735.3868
675.1629
612.89
548.7382
919.0977
855.0085
796.7458
737.5932
677.952
617.1391
552.2342
919.9981
857.6112
800.2323
742.5392
684.5567
625.544
561.3304
922.5821
863.4149
809.4648
754.4965
700.9173
644.9412
581.519
928.8404
875.6739
830.1603
785.4947
738.7233
690.3446
644.1571
942.6069
902.7853
873.1805
845.6002
819.2496
796.5658
767.5281
971.7462
953.1592
948.9607
946.6938
958.0461
958.8223
912.564
1026.896
1037.192
1060.362
1102.954
1126.963
1115.344
1090.827
1120.791
1152.463
1211.606
1290.057
1294.157
1279.022
1272.893
1263.782
1287.733
1380.412
1448.746
1480.604
1472.688
1466.676
1446.992
1447.38
1557.808
1596.862
1671.621
1672.004
1733.655
1658.067
1622.051
1720.737
1771.373
1846.343
1890.97
1982.572
1883.013
1794.691
1879.464
1939.584
2042.763
2125.939
2171.663
2120.582
1987.356
2022.885
2079.384
2201.4
2297.951
2392.868
2353.893
2172.408
2197.151
2261.898
2380.992
2455.832
2579.912
2548.927
2326.388
2330.22
2344.484
2455.569
2518.323
2657.133
2687.046
2439.941
2430.511
2422.543
2510.007
2565.265
2627.641
2781.441
2522.551
2502.3
2477.678
2544.966
2599.567
2626.659
2840.512
2570.915
2545.001
2507.932
2559.726
2605.625
2604.896
2822.259
2551.722
2522.974
2481.72
2528.075
2568.117
2564.385
2745.303
2494.676
2474.269
2444.558
2502.408
2542.484
2555.399
2631.224
2401.787
2394.49
2379.263
2449.59
2482.677
2513.977
2461.131
2261.144
2265.813
2263.769
2341.582
2369.359
2469.056
2240.684
2086.447
2102.687
2134.613
2217.098
2261.14
2341.542
1997.438
1896.63
1941.781
1982.505
2059.414
2104.319
2137.781
1761.952
1710.242
1794.216
1825.242
1877.211
1905.074
1893.429
1546.812
1536.2
1631.785
1656.389
1683.165
1674.89
1721.439
1359.783
1365.444
1468.698
1488.907
1527.118
1494.391
1504.965
1207.982
1214.273
1293.659
1350.931
1359.457
1311.902
1263.979
1096.005
1100.204
1133.481
1195.253
1186.198
1148.837
1117.342
1021.315
1012.871
1007.783
1021.565
1030.878
1009.412
969.1836
972.8967
948.1712
927.5845
901.1635
886.2209
871.709
810.552
944.533
903.8689
869.9957
831.6192
787.7988
743.9272
696.4078
930.0523
877.1171
831.4081
784.8535
733.5829
675.7008
616.4176
923.1235
864.3602
810.9023
756.2404
701.8117
644.0481
578.4577
920.2174
858.3262
801.4739
743.8341
685.6238
626.1041
561.8232
919.1858
855.6323
797.7067
738.4095
678.52
617.7926
552.8122
919.4125
854.5476
795.8264
736.1581
675.7063
613.4477
549.3658
920.3395
854.261
794.845
734.7067
673.6045
610.471
546.4981
921.6378
854.5588
794.4852
733.9087
671.7982
608.7415
545.7199
923.0794
855.2234
794.633
732.9715
670.5035
607.6245
545.223
924.5277
855.9929
794.8619
732.2716
669.3843
607.2585
544.885
925.9243
856.7747
794.7856
732.122
669.3247
607.0411
544.5525
927.2391
857.2549
794.5004
731.5301
669.2054
606.8215
544.1797
928.3534
857.6752
794.4307
731.666
669.1687
606.5663
543.6892
929.1616
858.1935
794.8265
731.7977
669.0814
606.2762
543.1569
929.8386
858.5479
795.093
731.8741
668.9452
605.9704
542.5411
930.5947
859.0264
795.35
731.92
668.7681
605.5638
541.1136
931.2553
859.4162
795.5492
731.9117
668.5815
605.1705
539.7905
931.8356
859.7528
795.7064
731.8775
668.3967
604.8376
539.3327
932.3112
860.0128
795.8067
731.8242
668.2088
604.4226
538.8981
932.7377
860.2355
795.8847
731.7801
667.9702
603.3772
537.9959
933.105
860.4429
795.9569
731.7139
667.7361
602.4625
536.8225
933.4391
860.6063
796.0133
731.6503
667.5837
602.1953
536.5255
933.7376
860.7658
796.0723
731.5992
667.3579
601.9555
536.2889
934.0119
860.9147
796.102
731.491
666.6112
601.305
536.0168
934.2779
861.0495
796.1373
731.3976
665.9739
600.4644
535.7561
934.536
861.1904
796.1801
731.3743
665.8731
600.2973
535.5851
934.7965
861.335
796.2482
731.3531
665.7928
600.1856
535.4247
935.074
861.5061
796.3368
731.3146
665.7117
600.0791
535.2662
935.3657
861.6798
796.4006
730.8748
665.3213
599.954
535.1136
935.6892
861.8946
796.4999
730.5389
664.8026
599.8169
534.9796
936.0832
862.1593
796.6609
730.599
664.7793
599.7396
534.8465
936.5522
862.5103
796.8732
730.6903
664.7834
599.6669
534.7182
937.1625
862.934
797.1267
730.7967
664.7826
599.58
534.5753
937.9415
863.4682
797.4302
730.9063
664.7621
599.4643
534.3991
938.953
864.1587
797.7802
730.9985
664.699
599.2958
534.1775
940.3344
865.0671
798.1354
731.0239
664.5441
599.0234
533.8657
942.3018
866.1912
798.1448
730.6818
664.1784
598.59
533.4111
945.1572
867.4785
797.9758
729.9092
663.4637
597.9115
531.8777
949.2122
868.5587
797.3932
728.7791
662.3518
595.9843
530.0699
953.3582
868.2493
795.2942
726.7026
659.5765
593.5932
528.0928
948.9619
863.611
790.951
721.9961
655.8857
590.8555
525.9569
859.0913
850.5726
781.8593
715.3282
651.4902
587.8789
523.7708
109.7289
707.3496
771.4102
707.4713
646.3573
584.7749
521.6268
456.7901
388.1357
313.9333
257.8709
183.7439
110.6353
38.0431
458.1474
389.557
315.3519
259.1908
184.8601
111.5207
39.66309
459.7687
391.0695
316.8919
242.3336
185.9332
112.383
40.59072
461.4982
392.6222
318.2838
262.0491
187.0627
113.2504
41.45542
463.2172
394.2059
319.7884
263.5549
188.1959
114.119
42.08701
464.8963
395.7947
321.3104
265.0076
189.3144
114.9854
42.69818
466.5021
397.3519
322.8151
266.3996
189.6117
115.8522
43.29137
467.9241
398.8747
324.2986
267.7656
189.8984
116.7154
43.87104
468.3492
400.2586
325.7078
269.1484
190.794
117.4922
44.44049
468.6607
400.6304
327.0107
270.5255
191.6771
118.2722
44.99911
468.9103
400.901
327.3462
271.8642
192.562
119.0557
45.54575
469.1307
401.1537
327.5986
272.1229
193.4561
119.8454
46.09549
469.3254
401.3922
327.8523
272.3587
193.5817
120.66
46.63029
469.5142
401.6267
328.11
272.607
193.7281
120.7873
47.12913
469.7012
401.8724
328.3775
272.8626
193.8863
120.9461
46.90933
469.8981
402.1264
328.6533
273.1319
194.0603
121.1197
46.77413
470.0992
402.3909
328.9379
273.4255
194.3231
121.3019
46.68346
470.3111
402.6594
329.2491
273.8819
197.0553
121.5012
46.50763
470.5336
402.9307
329.5704
274.211
197.4525
121.7053
46.35423
470.7762
403.2227
329.9113
274.5555
197.743
121.9214
46.16335
471.0329
403.5325
330.2663
274.9241
198.0492
122.1489
45.87186
471.3172
403.8622
330.6335
275.3254
198.3744
122.3909
45.6442
471.6113
404.2201
331.0415
275.6749
198.7918
122.6447
45.3964
472.0149
404.6126
331.5063
257.8096
201.579
123.0688
45.1406
472.4262
405.021
331.9695
276.3012
202.9432
123.4102
44.87128
472.804
405.4503
332.4561
277.184
203.4805
123.7246
44.57699
473.2947
405.9665
333.0249
277.7716
204.0232
124.0919
44.21937
474.9211
406.5538
333.5822
278.3609
204.7654
127.4775
43.84456
475.9763
424.1508
351.9959
278.8207
205.4521
128.761
43.51333
476.5969
425.0183
353.0712
279.4956
206.0872
129.2454
43.14375
478.7934
427.2317
353.7047
280.1637
206.7544
131.8697
42.82281
480.0409
429.11
354.3357
280.873
207.4759
134.673
42.49531
480.707
432.1486
355.2151
281.5934
208.2235
135.458
42.22524
481.0844
433.1642
357.8547
282.2902
208.9717
136.4288
46.35701
481.424
433.6599
360.4893
283.0271
209.6918
137.2724
47.00292
481.8026
434.0514
364.1544
284.0752
210.2172
137.9217
72.47925
482.2902
434.458
364.9752
287.3237
210.2096
138.3698
55.65608
483.2884
434.9498
365.7624
290.0147
208.7972
136.4971
66.86816
485.0341
435.2695
365.1404
288.7636
204.8944
128.1752
70.46103
488.5898
433.0589
359.3867
282.0493
204.294
125.0795
60.263
506.9544
441.0115
372.8238
315.7021
243.099
151.37
64.04968
584.6138
516.7738
489.4619
412.8082
303.1138
208.1788
83.31592
716.6356
626.3689
603.7071
513.7388
378.7108
229.3824
88.24238
844.514
723.4282
722.9988
626.3987
468.6248
253.5637
101.3252
1002.773
865.0549
881.8476
737.4506
535.0551
311.4755
135.0669
1198.445
1008.752
1059.405
884.2805
633.6571
414.7681
167.2112
1459.857
1237.259
1278.476
1030.176
817.5905
462.9723
242.1648
1663.175
1461.23
1414.148
1213.845
871.9718
589.8415
269.1134
1973.217
1677.008
1634.999
1351.891
955.7534
580.0555
292.2108
2229.205
1977.297
1846.196
1458.158
1061.579
648.1907
343.4266
2436.342
2194.206
2031.46
1583.46
1088.497
672.1484
363.2503
2598.459
2417.67
2127.697
1722.761
1261.347
775.2902
404.6551
2646.66
2568.036
2162.891
1755.505
1327.35
855.5043
449.7441
2694.184
2579.592
2180.725
1708.441
1292.305
832.3046
362.9565
2700.407
2579.786
2120.869
1633.576
1234.855
1065.911
734.947
2675.638
2526.153
2034.931
1565.974
1166.082
843.7226
2623.46
2470.935
1983.731
1517.76
1112.689
802.604
2598.173
2502.969
1970.173
1474.724
1098.423
750.5904
2537.924
2469.44
1918.115
1524.328
1135.311
818.9976
464.2112
2428.459
2413.276
1894.951
1481.877
1148.885
716.8586
356.2133
2316.037
2356.38
1815.865
1391.139
1028.563
676.5588
341.7386
2130.013
2237.725
1708.082
1364.417
998.9161
624.9041
341.3233
1919.046
2043.031
1584.056
1256.422
934.2812
566.1957
318.6517
1690.278
1818.559
1437.168
1179.103
787.4565
525.8513
297.6226
1409.957
1577.552
1270.264
972.5822
755.2462
439.125
166.8006
1227.21
1340.161
1054.197
911.5226
624.4482
395.2253
162.9899
1036.374
1105.981
953.9823
728.4428
559.3658
296.2722
115.5391
872.5429
923.6058
758.7775
648.3059
429.1518
254.8332
88.97636
752.2711
758.9134
626.013
506.8826
372.3281
219.441
98.28333
627.0909
627.7099
545.3777
425.869
305.5867
172.1042
72.43059
540.2772
503.8576
458.7482
377.8784
267.0763
166.5357
75.66353
499.7798
438.2015
360.1138
303.1474
227.0985
151.9625
63.36878
489.497
432.3337
352.4337
267.0393
197.0706
125.9331
52.19614
485.8233
434.8066
362.1196
282.3894
196.9386
121.0312
67.48314
483.9398
434.9403
365.8015
290.0325
204.6295
132.0034
76.00991
482.9625
434.2801
365.6385
288.1481
209.8172
139.0142
63.55595
482.4877
433.7929
365.0143
286.3678
210.3588
138.2958
56.80716
482.0797
433.3751
363.1823
283.6937
210.0827
137.6485
47.70809
481.6754
432.9091
359.4487
282.8497
209.4361
136.8019
46.18489
481.2283
432.2773
356.1183
282.1338
208.6803
135.9369
44.93525
480.4996
430.138
355.0691
281.3823
207.9085
135.0483
42.0576
479.16
427.8994
354.2434
280.6335
207.1584
133.906
42.44656
476.9085
425.1171
353.5594
279.9172
206.448
129.6665
42.76663
476.2291
424.3136
352.8395
279.2589
205.7952
128.9945
43.1793
475.1013
406.6919
333.681
278.3999
205.1519
128.4886
43.55412
473.4619
406.1032
333.1283
277.8522
204.3911
125.3993
43.93483
472.9441
405.571
332.5676
277.3119
203.7691
123.9022
44.32577
472.5453
405.1233
332.0582
276.8024
203.2304
123.5745
44.64894
472.113
404.6949
331.5737
276.3172
202.632
123.2714
44.97229
471.6945
404.3017
331.1287
275.8467
199.7335
122.8485
45.24457
471.3907
403.9361
330.7081
275.4101
198.558
122.5284
45.51158
471.1008
403.5888
330.3165
275.0116
198.2258
122.2825
45.7798
470.8285
403.2706
329.9525
274.6311
197.9079
122.0495
46.01307
470.5731
402.975
329.6054
274.2781
197.6121
121.8273
46.23919
470.3463
402.6961
329.2847
273.9398
197.333
121.6173
46.42817
470.1283
402.4214
328.9719
273.5358
195.911
121.4128
46.5856
469.9242
402.1542
328.6815
273.1687
194.1645
121.2213
46.73693
469.7307
401.9052
328.4078
272.8781
193.9866
121.0404
46.88033
469.5505
401.6675
328.146
272.597
193.8182
120.8707
46.97549
469.3734
401.4419
327.8924
272.333
193.666
120.7153
46.80758
469.1981
401.2175
327.6499
272.0729
193.5209
120.2445
46.27026
469.0104
400.9856
327.4097
271.8173
193.017
119.4502
45.7213
468.805
400.7435
327.0871
271.0093
192.136
118.6607
45.15922
468.5528
400.4102
325.8054
269.6275
191.2535
117.8778
44.60133
468.2022
399.0766
324.4275
268.2338
190.373
117.0966
44.0359
466.8782
397.6068
322.9729
266.83
189.531
116.2778
43.46244
465.3733
396.0996
321.4919
265.4966
189.8575
115.4105
42.87996
463.7839
394.5447
319.9912
264.0794
188.7728
114.5441
42.28584
462.1066
392.9533
318.4766
262.6708
187.655
113.6794
41.67535
460.3467
391.3455
316.96
261.2665
186.5354
112.814
40.9632
458.5923
389.7646
315.4562
259.8928
185.4151
111.9485
40.05453
456.8794
388.1714
313.9588
258.5446
184.2975
111.078
38.84847
0
0
0
0
0
0
0
0
0
0
0
0
0
0
0
0
0
0
0
0
0
0
0
0
0
0
0
0
0
0
0
0
0
0
0
0
0
0
0
0
0
0
0
0
0
0
0
0
0
0
0
0
0
0
0
0
0
0
0
0
0
0
0
0
0
0
0
0
0
0
0
0
0
0
0
0
0
0
0
0
0
0
0
0
0
0
0
0
0
0
0
0
0
0
0
0
0
0
0
0
0
0
0
0
0
0
0
0
0
0
0
0
0
0
0
0
0
0
0
0
0
0
0
0
0
0
0
0
0
0
0
0
0
0
0
0
0
0
0
0
0
0
0
0
0
0
0
0
0
0
0
0
0
0
0
0
0
0
0
0
0
0
0
0
0
0
0
0
0
0
0
0
0
0
0
0
0
0
0
0
0
0
0
0
0
0
0
0
0
0
0
0
0
0
0
0
0
0
0
0
0
0
0
0
0
0
0
0
0
0
0
0
0
0
0
0
0
0
0
0
0
0
0
0
0
0
0
0
0
0
0
0
0
0
0
0
0
0
0
0
0
0
0
0
0
0
0
0
0
0
0
0
0
0
0
0
0
0
0
0
0
0
0
0
0
0
0
0
0
0
0
0
0
0
0
0
0
0
0
0
0
0
0
0
0
0
0
0
0
0
0
0
0
0
0
0
0
0
0
0
0
0
0
0
0
0
0
0
0
0
0
0
0
0
0
0
0
0
0
0
0
0
0
0
0
0
0
0
0
0
0
0
0
0
0
0
0
0
0
0
0
0
0
0
0
0
0
0
0
0
0
0
0
0
0
0
0
0
0
0
0
0
0
0
0
0
0
0
0
0
0
0
0
0
0
0
0
0
0
0
0
0
0
0
0
0
0
0
0
0
0
0
0
0
0
0
0
0
0
0
0
0
0
0
0
0
0
0
0
0
0
0
0
0
0
0
0
0
0
0
0
0
0
0
0
0
0
0
0
0
0
0
0
0
0
0
0
0
0
0
0
0
0
0
0
0
0
0
0
0
0
0
0
0
0
0
0
0
0
0
0
0
0
0
0
0
0
0
0
0
0
0
0
0
0
0
0
0
0
0
0
0
0
0
0
0
0
0
0
0
0
0
0
0
0
0
0
0
0
0
0
0
0
0
0
0
0
0
0
0
0
0
0
0
0
0
0
0
0
0
0
0
0
0
0
0
0
0
0
0
0
0
0
0
0
0
0
0
0
0
0
0
0
0
0
0
0
0
0
0
0
0
0
0
0
0
0
0
0
0
0
0
0
0
0
0
0
0
0
0
0
0
0
0
0
0
0
0
0
0
0
0
0
0
0
0
0
0
0
0
0
0
0
0
0
0
0
0
0
0
0
0
0
0
0
0
0
0
0
0
0
0
0
0
0
0
0
0
0
0
0
0
0
0
0
0
0
0
0
0
0
0
0
0
0
0
0
0
0
0
0
0
0
0
0
0
0
0
0
0
0
0
0
0
0
0
0
0
0
0
0
0
0
0
0
0
0
0
0
0
0
0
0
0
0
0
0
0
0
0
0
0
0
0
0
0
0
0
0
0
0
0
0
0
0
0
0
0
0
0
0
0
0
0
0
0
0
0
0
0
0
0
0
0
0
0
0
0
0
0
0.3046809
0
0
0
0
0
0
0
0
0
0
0
0
0
0
0
0
0
1.852027
0
0
0
0
0
0
0
0
0
0
0
0
0
0
0
0
0
3.67672
0
0
0
0
0
0
0
0
0
0
0
0
0
0
0
0
0
11.55131
0
0
0
0
0
0
0
0
0
0
0
0
0
0
0
0
0
31.50598
0
0
0
0
0
0
0
0
0
0
0
0
0
0
0
0
0
49.16573
0
0
0
0
0
0
0
0
0
0
0
0
0
0
0
0
0
21.60751
0
0
0
0
0
0
0
0
0
0
0
0
0
0
0
0
0
38.85259
0
0
0
0
0
0
0
0
0
0
0
0
0
0
0
0
0
84.32999
0
0
0
0
0
0
0
0
0
0
0
0
0
0
0
0
0
59.28014
0
0
0
0
0
0
0
0
0
0
0
0
0
50.91138
10.14626
0
0
0
0
0
0
0
0
75.32911
0
0
0
0
0
0
0
0
0
0
0
0
0
0
0
0
0
0
0
0
0
0
0
0
0
0
0
0
0
0
0
0
0
0
0
0
0
0
0
0
0
0
0
0
0
0
0
0
0
83.08249
0
0
0
0
0
0
77.96808
9.428992
0
0
0
0
0
0
0
91.6861
0
0
0
0
0
0
0
0
0
0
0
39.68609
0
0
0
0
0
0
0
0
0
0
0
0
0
0
0
0
0
19.05125
0
0
0
0
0
0
0
0
0
0
0
0
0
0
0
0
0
18.41907
0
0
0
0
0
0
0
0
0
0
0
0
0
0
0
0
0
14.3998
0
0
0
0
0
0
0
0
0
0
0
0
0
0
0
0
0
12.86214
0
0
0
0
0
0
0
0
0
0
0
0
0
0
0
0
0
12.65699
0
0
0
0
0
0
0
0
0
0
0
0
0
0
0
0
0
6.484235
0
0
0
0
0
0
0
0
0
0
0
0
0
0
0
0
0
2.291228
0
0
0
0
0
0
0
0
0
0
0
0
0
0
0
0
0
0.9424714
0
0
0
0
0
0
0
0
0
0
0
0
0
0
0
0
0
0.07217038
0
0
0
0
0
0
0
0
0
0
0
0
0
0
0
0
0
0
0
0
0
0
0
0
0
0
0
0
0
0
0
0
0
0
0
0
0
0
0
0
0
0
0
0
0
0
0
0
0
0
0
0
0
0
0
0
0
0
0
0
0
0
0
0
0
0
0
0
0
0
0
0
0
0
0
0
0
0
0
0
0
0
0
0
0
0
0
0
0
0
0
0
0
0
0
0
0
0
0
0
0
0
0
0
0
0
0
0
0
0
0
0
0
0
0
0
0
0
0
0
0
0
0
0
0
0
0
0
0
0
0
0
0
0
0
0
0
0
0
0
0
0
0
0
0
0
0
0
0
0
0
0
0
0
0
0
0
0
0
0
0
0
0
0
0
0
0
0
0
0
0
0
0
0
0
0
0
0
0
0
0
0
0
0
0
0
0
0
0
0
0
0
0
0
0
0
0
0
0
0
0
0
0
0
0
0
0
0
0
0
0
0
0
0
0
0
0
0
0
0
0
0
0
0
0
0
0
0
0
0
0
0
0
0
0
0
0
0
0
0
0
0
0
0
0
0
0
0
0
0
0
0
0
0
0
0
0
0
0
0
0
0
0
0
0
0
0
0
0
0
0
0
0
0
0
0
0
0
0
0
0
0
0
0
0
0
0
0
0
0
0
0
0
0
0
0
0
0
0
0
0
0
0
0
0
0
0
0
0
0
0
0
0
0
0
0
0
0
0
0
0
0
0
0
0
0
0
0
0
0
0
0
0
0
0
0
0
0
0
0
0
0
0
0
0
0
0
0
0
0
0
0
0
0
0
0
0
0
0
0
0
0
0
0
0
0
0
0
0
0
0
0
0
0
0
0
0
0
0
0
0
0
0
0
0
0
0
0
0
0
0
0
0
0
0
0
0
0
0
0
0
0
0
0
0
0
0
0
0
0
0
0
0
0
0
0
0
0
0
0
0
0
0
0
0
0
0
0
0
0
0
0
0
0
0
0
0
0
0
0
0
0
0
0
0
0
0
0
0
0
0
0
0
0
0
0
0
0
0
0
0
0
0
0
0
0
0
0
0
0
0
0
0
0
0
0
0
0
0
0
0
0
0
0
0
0
0
0
0
0
0
0
0
0
0
0
0
0
0
0
0
0
0
0
0
0
0
0
0
0
0
0
0
0
0
0
0
0
0
0
0
0
0
0
0
0
0
0
0
0
0
0
0
0
0
0
0
0
0
0
0
0
0
0
0
0
0
0
0
0
0
0
0
0
0
0
0
0
0
0
0
0
0
0
0
0
0
0
0
0
0
0
0
0
0
0
0
0
0
0
0
0
0
0
0
0
0
0
0
0
0
0
0
0
0
0
0
0
0
0
0
0
0
0
0
0
0
0
0
0
0
0
0
0
0
0
0
0
0
0
0
0
0
0
0
0
0
0
0
0
0
0
0
0
0
0
0
0
0
0
0
0
0
0
0
0
0
0
0
0
0
0
0
0
0
0
0
0
0
0
0
0
0
0
0
0
0
0
0
0
0
0
0
0
0
0
0
0
0
0
0
0
0
0
0
0
0
0
0
0
0
0
0
0
0
0
0
0
0
0
0
0
0
0
0
0
0
0
0
0
0
0
0
0
0
0
0
0
0
0
0
0
0
0
0
0
0
0
0
0
0
0
0
0
0
0
0
0
0
0
0
0
0
0
0
0
0
0
0
0
0
0
0
0
0
0
0
0
0
0
0
0
0
0
0
0
0
0
0
0
0
0
0
0
0
0
0
0
0
0
0
0
0
0
0
0
0
0
0
0
0
0
0
0
0
0
0
0
0
0
0
0
0
0
0
0
0
0
0
0
0
0
0
0
0
0
0
0
0
0
0
0
0
0
0
0
0
0
0
0
0
0
0
0
0
0
0
0
0
0
0
0
0
0
0
0
0
0
0
0
0
0
0
0
0
0
0
0
0
0
0
0
0
0
0
0
0
0
0
0
0
0
0
0
0
0
0
0
0
0
0
0
0
0
0
0
0
0
0
0
0
0
0
0
0
0
0
0
0
0
0
0
0
0
0
0
0
0
0
0
0
0
0
0
0
0
0
0
0
0
0
0
0
0
0
0
0
0
0
0
0
0
0
0
0
0
0
0
0
0
0
0
0
0
0
0
0
0
0
0
0
0
0
0
0
0
0
0
0
0
0
0
0
0
0
0
0
0
0
0
0
0
0
0
0
0
0
0
0
0
0
0
0
0
0
0
0
0
0
0
0
0
0
0
0
0
0
0
0
0
0
0
0
0
0
0
0
0
0
0
0
0
0
0
0
0
0
0
0
0
0
0
0
0
0
0
0
0
0
0
0
0
0
0
0
0
0
0
0
0
0
0
0
0
0
0
0
0
0
0
0
0
0
0
0
0
0
0
0
0
0
0
0
0
0
0
0
0
0
0
0
0
0
0
0
0
0
0
0
0
0
0
0
0
0
0
0
0
0
0
0
0
0
0
0
0
0
0
0
0
0
0
0
0
0
0
0
0
0
0
0
0
0
0
0
0
0
0
0
0
0
0
0
0
0
0
0
0
0
0
0
0
0
0
0
0
0
0
0
0
0
0
0
0
0
0
0
0
0
0
0
0
0
0
0
0
0
0
0
0
0
0
0
0
0
0
0
0
0
0
0
0
0
0
0
0
0
0
0
0
0
0
0
0
0
0
0
0
0
0
0
0
0
0
0
0
0
0
0
0
0
0
0
0
0
0
0
0
0
0
0
0
0
0
0
0
0
0
0
0
0
0
0
0
0
0
0
0
0
0
0
0
0
0
0
0
0
0
0
0
0
0
0
0
0
0
0
0
0
0
0
0
0
0
0
0
0
0
0
0
0
0
0
0
0
0
0
0
0
0
0
0
0
0
0
0
0
0
0
0
0
0
0
0
0
0
0
0
0
0
0
0
0
0
0
0
0
0
0
0
0
0
0
0
0
0
0
0
0
0
0
0
0
0
0
0
0
0
0
0
0
0
0
0
0
0
0
0
0
0
0
0
0
0
0
0
0
0
0
0
0
0
0
0
0
0
0
0
0
0
0
0
0
0
0
0
0
0
0
0
0
0
0
0
0
0
0
0
0
0
0
0
0
0
0
0
0
0
0
0
0
0
0
0
0
0
0
0
0
0
0
0
0
0
0
0
0
0
0
0
0
0
0
0
0
0
0
0
0
0
0
0
0
0
0
0
0
0
0
0
0
0
0
0
0
0
0
0
0
0
0
0
0
0
0
0
0
0
0
0
0
0
0
0
0
0
0
0
0
0
0
0
0
0
0
0
0
0
0
0
0
0
0
0
0
0
0
0
0
0
0
0
0
0
0
0
0
0
0
0
0
0
0
0
0
0
0
0
0
0
0
0
0
0
0
0
0
0
0
0
0
0
0
0
0
0
0
0
0
0
0
0
0
0
0
0
0
0
0
0
0
0
0
0
0
0
0
0
0
0
0
0
0
0
0
0
0
0
0
0
0
0
0
0
0
0
0
0
0
0
0
0
0
0
0
0
0
0
0
0
0
0
0
0
0
0
0
0
0
0
0
0
0
0
0
0
0
0
0
0
0
0
0
0
0
0
0
0
0
0
0
0
0
0
0
0
0
0
0
0
0
0
0
0
0
0
0
0
0
0
0
0
0
0
0
0
0
0
0
0
0
0
0
0
0
0
0
0
0
0
0
0
0
0
0
0
0
0
0
0
0
0
0
0
0
0
0
0
0
0
0
0
0
0
0
0
0
0
0
0
0
0
0
0
0
0
0
0
0
0
0
0
0
0
0
0
0
0
0
0
0
0
0
0
0
0
0
0
0
0
0
0
0
0
0
0
0
0
0
0
0
0
0
0
0
0
0
0
0
0
0
0
0
0
0
0
0
0
0
0
0
0
0
0
0
0
0
0
0
0
0
0
0
0
0
0
0
0
0
0
0
0
0
0
0
0
0
0
0
0
0
0
0
0
0
0
0
0
0
0
0
0
0
0
0
0
0
0
0
0
0
0
0
0
0
0
0
0
0
0
0
0
0
0
0
0
0
0
0
0
0
0
0
0
0
0
0
0
0
0
0
0
0
0
0
0
0
0
0
0
0
0
0
0
0
0
0
0
0
0
0
0
0
0
0
0
0
0
0
0
0
0
0
0
0
0
0
0
0
0
0
0
0
0
0
0
0
0
0
0
0
0
0
0
0
0
0
0
0
0
0
0
0
0
0
0
0
0
0
0
0
0
0
0
0
0
0
0
0
0
0
0
0
0
0
0
0
0
0
0
0
0
0
0
0
0
0
0
0
0
0
0
0
0
0
0
0
0
0
0
0
0
0
0
0
0
0
0
0
0
0
0
0
0
0
0
0
0
0
0
0
0
0
0
0
0
0
0
0
0
0
0
0
0
0
0
0
0
0
0
0
334.2478
242.0254
381.0306
551.8643
452.7765
756.3016
840.7702
780.4069
797.7388
830.9151
767.517
703.5916
775.357
648.9668
433.1342
895.0548
595.6737
321.7262
240.1387
278.3582
397.4857
0
0
0
0
0
0
0
0
0
0
0
0
0
0
0
0
0
0
0
0
0
0
0
0
0
0
0
17.3378
0
0
22.18506
114.1363
0
0
0
0
0
0
0
0
0
0
0
0
0
0
0
0
0
0
0
0
0
0
0
0
0
0
0
0
0
0
0
0
17.19739
76.88819
0
0
0
0
11.67682
0
0
0
0
0
0
0
0
0
0
0
0
0
0
0
0
0
0
0
0
0
0
0
0
0
0
0
0
0
0
0
220.7971
221.4509
258.5298
146.9556
147.4113
184.3027
74.86469
75.2981
111.0906
0.189345
0.4508578
38.91993
222.1622
222.7225
259.9016
147.8573
148.2901
185.3876
75.74673
76.18084
111.9631
0.843203
0.8901861
40.13114
148.7213
149.1564
186.3904
76.62602
77.0612
112.8161
0.934794
0.9764394
41.04871
224.9463
225.5762
262.5096
149.61
150.058
187.6534
77.50237
77.94643
113.6906
1.014153
1.047055
41.77439
226.2344
226.8924
263.9782
150.511
150.9396
188.7638
78.39025
78.83436
114.5575
1.074668
1.096751
42.39704
151.3866
151.8199
189.8409
79.26456
79.63703
115.4184
1.11338
1.124467
42.99713
228.2795
228.1624
266.7588
152.2084
152.608
189.5201
80.01204
80.3891
116.286
1.130336
1.131107
43.58427
153.0464
153.475
190.3661
80.76812
81.14653
117.1083
1.127191
1.118787
44.15902
229.8195
230.3814
269.5639
153.9201
154.3446
191.2506
81.53153
81.91031
117.8912
1.106336
1.090282
44.72169
230.9463
231.5043
270.955
154.7883
155.1779
192.124
82.29664
82.67981
118.6706
1.071121
1.049103
45.27497
232.067
232.6035
271.772
155.5815
155.9742
193.01
83.06972
83.45633
119.456
1.026146
1.033645
45.82305
232.671
232.7706
272.0405
156.3809
156.7935
193.525
83.84997
84.23967
120.2473
1.05227
1.068352
46.36796
232.8774
232.9679
272.3101
156.8537
156.9157
193.6685
84.63609
85.05425
120.7111
1.083217
1.096526
46.88784
233.0786
233.1758
272.5805
156.9949
157.0648
193.8152
85.10249
85.18123
120.8681
1.046766
1.205244
47.04323
233.2892
233.3972
272.8388
157.1521
157.229
193.9708
85.2691
85.34861
121.036
1.354113
1.406559
46.93165
233.4999
233.6297
273.1183
157.316
157.4037
194.1356
85.44565
85.52681
121.2099
1.414733
1.451245
46.77135
233.7997
235.1893
273.5117
157.4891
157.6802
195.9158
85.62217
85.71184
121.3954
1.492812
1.529225
46.60593
236.6191
236.9478
273.9297
157.8544
157.9554
197.3264
85.80792
85.90957
121.5982
1.571854
1.612122
46.44227
237.1397
237.2983
274.2633
158.0615
158.1666
197.5998
86.00925
86.11426
121.8115
1.657084
1.70069
46.26245
237.4863
237.668
274.6024
158.2794
158.3906
197.8896
86.2255
86.33132
122.0358
1.738385
1.777099
46.02961
237.8465
238.055
274.9686
158.508
158.6304
198.1996
86.4492
86.55829
122.2783
1.815126
1.852098
45.79835
238.2507
238.489
275.3648
158.7593
158.8872
198.5456
86.68506
86.79692
122.5221
1.892516
1.929747
45.54268
238.757
238.6447
276.1404
159.0469
160.1393
199.7304
86.92224
87.04824
122.8329
1.973745
2.013201
45.28765
161.8761
162.7677
202.5344
87.17968
87.3177
123.2509
2.058014
2.103339
45.0124
240.1368
240.0914
276.6314
163.012
163.2176
203.2199
87.45587
87.59893
123.5641
2.149955
2.194491
44.71542
240.3032
240.5636
277.2482
163.431
163.647
203.7481
87.74928
87.89888
123.8927
2.242368
2.291129
44.39642
240.8462
241.1274
277.7855
163.9576
165.1045
204.3699
88.05597
88.28945
125.385
2.341398
2.393165
44.02711
241.4125
241.7345
278.3195
167.1821
168.3568
205.0999
88.56669
88.79134
128.4774
2.446687
2.500219
43.66891
389.6218
389.4564
424.1307
316.1555
316.0944
352.7268
242.0423
242.3852
279.1594
168.7788
169.1026
205.7714
88.95795
89.12395
128.9958
2.554233
2.61173
43.3279
389.6646
389.9246
424.8526
316.3375
316.6462
353.3701
242.7189
243.0578
279.8444
169.4257
169.7543
206.4236
89.28722
89.53976
129.6711
2.670588
2.729604
42.94565
390.3446
390.7453
427.5699
316.9762
317.3043
354.0287
243.4296
243.776
280.5266
170.2008
170.6485
207.1258
91.93858
93.59263
133.8894
2.789363
2.85261
42.66602
391.2423
393.1407
429.8068
317.6565
317.9836
354.8004
244.1691
244.5284
281.228
171.0409
171.4154
207.8478
94.04554
94.28034
135.0618
2.914733
2.979313
42.31874
394.1713
394.9896
431.8518
318.3125
318.628
355.7628
244.8911
245.2557
281.9266
171.7992
172.1839
208.5654
94.71908
97.55563
135.9575
3.049635
3.136428
45.29656
396.7998
398.369
432.4242
319.0933
319.534
359.0909
245.5809
245.9499
282.5926
172.5509
172.9396
209.3157
99.53043
100.3187
136.8317
3.240005
3.522725
46.4713
399.2239
399.6163
432.8647
320.926
322.9391
362.7986
246.2622
246.542
283.4299
173.3171
173.6783
209.9853
100.8479
101.446
137.6881
3.803818
3.869913
47.45852
399.902
400.1712
433.2873
324.1821
326.2978
364.6319
246.7216
247.0321
286.2364
173.9227
174.0242
210.3173
101.8652
102.3873
138.1193
4.497185
5.35657
56.53986
400.4719
400.7959
433.8251
328.0031
329.092
365.3532
247.1199
247.1587
288.2165
173.8409
173.4785
209.9641
103.8424
105.9297
138.1067
5.502621
5.38855
58.57301
401.1675
401.466
434.5221
329.412
329.1491
365.8207
248.2613
247.3302
290.6575
171.3142
167.2968
205.6469
106.9388
104.6995
132.8024
15.91323
19.16518
73.75926
401.205
399.6731
434.2497
327.5242
324.0041
362.0517
246.5349
245.4602
285.0909
164.3633
161.4512
203.0801
98.35936
89.86836
123.7879
20.01958
22.54727
65.45593
396.4979
396.806
431.6162
321.127
321.4797
359.4754
244.4423
253.3259
286.0911
166.4226
181.799
219.3076
85.20033
87.98188
133.0818
25.91101
29.71864
56.4816
405.422
439.6528
466.7038
343.9232
396.4626
419.1597
282.4959
319.8838
363.0116
199.759
217.7269
269.3658
102.9649
123.8457
180.6542
34.77144
40.53775
74.77482
506.1513
577.6969
596.2452
455.7936
507.3421
550.1869
354.5346
402.4323
464.181
249.5436
279.6475
341.5978
140.8757
153.7863
220.4903
47.03109
50.60669
90.78871
628.8625
684.7632
740.1144
557.9619
614.0134
662.3683
461.0481
507.1603
568.7161
301.9584
322.2162
424.3614
164.5975
176.0133
236.8804
51.73526
55.42349
88.31819
750.9445
819.3592
897.0952
661.3268
743.0246
785.6314
542.8987
589.1329
660.4162
345.1721
397.0214
493.9522
187.27
209.6176
280.408
56.46679
65.60339
114.0097
908.1709
990.1894
1089.376
828.6405
895.6742
951.3377
626.9368
718.447
829.3355
457.4196
499.3811
574.643
238.3317
270.6201
370.0829
91.6892
104.1857
142.5395
1088.459
1198.367
1345.442
959.6934
1044.84
1191.02
816.9365
880.7521
959.3392
542.3561
577.4215
736.655
315.0202
357.7659
440.5102
128.6739
125.4951
180.8571
1291.432
1420.568
1578.158
1178.667
1289.544
1330.312
924.8144
985.5333
1152.475
664.2025
726.7542
848.017
382.8859
401.3837
538.9819
146.6813
105.8434
258.2451
1572.265
1675.048
1857.311
1351.011
1426.149
1542.395
1082.937
1112.824
1233.949
732.5197
728.1162
947.2562
436.7158
446.1172
586.8145
68.82324
102.634
254.4785
1784.066
1868.306
2125.395
1511.798
1551.21
1721.307
1107.184
1218.085
1404.135
782.2779
807.5637
961.2751
457.8015
448.5599
626.1002
102.6746
169.0043
347.466
1958.876
2105.983
2442.112
1638.119
1712.949
1851.257
1243.188
1256.335
1489.058
799.6565
871.5298
1105.635
478.7438
498.9135
665.2094
192.8084
235.7137
382.1826
2257.527
2244.115
2609.839
1853.172
1901.637
2038.299
1396.469
1394.958
1651.875
924.8899
979.9073
1185.292
520.6329
553.5267
739.6666
198.9815
268.7427
412.986
2312.007
2382.598
2692.864
1876.179
1999.329
2134.857
1449.268
1443.693
1670.468
982.3138
1022.616
1271.424
583.671
592.6499
824.3864
252.7786
282.0077
400.3076
2394.233
2450.773
2676.119
2002.857
1975.165
2178.368
1519.698
1485.768
1749.866
1009.029
1058.375
1372.293
632.569
633.5402
829.9091
2427.018
2352.925
2642.518
1983.742
1962.609
2113.546
1435.765
1516.848
1722.632
1055.745
1120.286
1306.716
651.5911
737.6825
926.2775
2326.564
2274.308
2586.576
1879.036
1871.04
2084.219
1447.259
1446.668
1584.259
926.3576
1020.383
1196.068
2287.529
2227.47
2500.339
1810.013
1769.746
2006.156
1359.038
1349.45
1537.609
1021.612
1023.261
1137.862
2203.231
2207.198
2470.635
1741.377
1733.152
1979.686
1323.975
1290.636
1502.364
999.7264
954.6938
1101.646
2174.835
2179.895
2452.605
1746.98
1739.394
1992.429
1327.489
1320.636
1490.36
919.4312
816.9334
1083.54
2179.372
2184.206
2370.762
1755.441
1758.965
1929.987
1315.394
1227.762
1475.43
960.6725
901.3612
1093.061
620.0466
554.8517
712.2068
2164.609
2117.207
2326.241
1693.027
1680.905
1858.825
1262.371
1263.762
1454.36
890.3362
848.6071
1089.367
521.5116
542.2727
700.7957
2049.589
1982.752
2130.188
1677.063
1563.237
1799.609
1199.461
1178.41
1381.866
841.323
798.7982
1024.162
487.6734
485.9011
656.115
218.5153
217.0562
347.6785
1902.569
1855.591
1877.718
1543.141
1522.909
1684.809
1150.281
1148.053
1345.812
797.5077
762.9948
951.4266
461.7599
429.8752
614.3972
193.2743
166.1345
304.8325
1769.763
1661.283
1681.772
1444.08
1378.903
1533.412
1055.89
1064.22
1174.87
740.599
665.3947
882.6059
422.7305
401.1377
546.691
205.721
182.5168
294.5463
1565.919
1455.29
1398.714
1273.363
1245.786
1339.255
1012.239
889.4617
1119.781
674.6079
643.9001
802.3361
379.8581
381.4853
464.5994
135.4148
56.59708
232.6945
1361.076
1274.309
1198.282
1168.773
1031.675
1168.946