/*--------------------------------*- C++ -*----------------------------------*\
| =========                 |                                                 |
| \\      /  F ield         | OpenFOAM: The Open Source CFD Toolbox           |
|  \\    /   O peration     | Version:  2206                                  |
|   \\  /    A nd           | Website:  www.openfoam.com                      |
|    \\/     M anipulation  |                                                 |
\*---------------------------------------------------------------------------*/
FoamFile
{
    version     2.0;
    format      ascii;
    arch        "LSB;label=32;scalar=64";
    class       surfaceScalarField;
    location    "1.6";
    object      phi.b;
}
// * * * * * * * * * * * * * * * * * * * * * * * * * * * * * * * * * * * * * //

dimensions      [0 3 -1 0 0 0 0];

oriented        oriented;

internalField   nonuniform List<scalar> 
26037
(
1.707972e-10
3.437773e-11
8.903042e-11
4.419572e-11
3.472658e-11
1.053338e-11
1.2453e-11
-1.350903e-12
1.304788e-12
-3.717232e-12
-6.751298e-12
-4.781336e-12
-5.59708e-12
-1.321848e-11
7.913341e-11
1.248656e-10
5.732317e-11
5.447406e-11
2.925297e-11
1.969077e-11
1.221385e-11
5.446808e-12
1.282721e-12
1.345964e-13
-6.904395e-12
-2.433175e-12
-3.98717e-12
-1.349828e-11
3.917272e-11
7.328319e-11
3.410794e-11
4.215916e-11
2.184158e-11
2.28005e-11
1.040354e-11
1.035302e-11
8.246713e-13
3.963331e-12
-7.048714e-12
3.793878e-13
-1.88788e-12
-1.367251e-11
2.142541e-11
5.300613e-11
2.239597e-11
3.726268e-11
1.645767e-11
2.442873e-11
8.112458e-12
1.43755e-11
-2.736693e-14
7.814072e-12
-7.413113e-12
3.627476e-12
7.219207e-13
-1.394985e-11
1.39234e-11
4.580618e-11
1.569283e-11
3.613285e-11
1.190684e-11
2.669865e-11
5.630404e-12
1.807873e-11
-1.291892e-12
1.172472e-11
-8.171639e-12
7.28597e-12
3.803312e-12
-1.455862e-11
9.019597e-12
4.253624e-11
1.050118e-11
3.632785e-11
7.815279e-12
2.928124e-11
2.697288e-12
2.189529e-11
-3.45366e-12
1.580076e-11
-9.464695e-12
1.08163e-11
7.264644e-12
-1.565353e-11
5.505359e-12
4.157365e-11
6.177174e-12
3.737153e-11
4.278144e-12
3.167268e-11
-5.164993e-13
2.610221e-11
-6.049237e-12
1.9969e-11
-1.20159e-11
1.484419e-11
1.030165e-11
-1.733133e-11
2.913e-12
4.226695e-11
2.497025e-12
3.9239e-11
1.293378e-13
3.47038e-11
-4.010477e-12
3.001065e-11
-9.14198e-12
2.416139e-11
-1.479543e-11
1.898339e-11
1.412167e-11
-2.056478e-11
9.136553e-13
4.428812e-11
-6.355604e-13
4.192693e-11
-3.454459e-12
3.814892e-11
-7.622844e-12
3.409535e-11
-1.263212e-11
2.846906e-11
-1.814429e-11
2.325124e-11
1.810851e-11
-2.380931e-11
-7.160342e-13
4.745775e-11
-3.383261e-12
4.544849e-11
-6.85609e-12
4.214119e-11
-1.1333e-11
3.852242e-11
-1.645423e-11
3.300669e-11
-2.19999e-11
2.771667e-11
2.229933e-11
-2.768956e-11
-2.125482e-12
5.168228e-11
-5.908663e-12
4.98445e-11
-1.015976e-11
4.678338e-11
-1.51468e-11
4.343243e-11
-2.057898e-11
3.789938e-11
-2.632629e-11
3.247451e-11
2.675891e-11
-3.216943e-11
-3.428371e-12
5.693938e-11
-8.319903e-12
5.514609e-11
-1.344477e-11
5.217038e-11
-1.909807e-11
4.895186e-11
-2.500978e-11
4.327208e-11
-3.111258e-11
3.763028e-11
3.156527e-11
-3.723273e-11
-4.689135e-12
6.324184e-11
-1.070869e-11
6.140439e-11
-1.679008e-11
5.839209e-11
-2.323595e-11
5.519337e-11
-2.97788e-11
4.925147e-11
-3.637413e-11
4.329015e-11
3.680315e-11
-4.288693e-11
-5.95899e-12
7.063519e-11
-1.315032e-11
6.868622e-11
-2.026982e-11
6.553748e-11
-2.754414e-11
6.218115e-11
-3.493541e-11
5.603205e-11
-4.214985e-11
4.955972e-11
4.256611e-11
-4.916917e-11
-7.276746e-12
7.91909e-11
-1.57101e-11
7.707866e-11
-2.392524e-11
7.367422e-11
-3.129388e-11
6.91972e-11
-4.04486e-11
6.452503e-11
-4.84937e-11
5.664438e-11
4.896248e-11
-5.613854e-11
-8.668563e-12
8.899728e-11
-1.84243e-11
8.667198e-11
-2.790657e-11
8.297842e-11
-3.720969e-11
7.808762e-11
-4.663957e-11
7.324217e-11
-5.549792e-11
6.451929e-11
5.610058e-11
-6.388417e-11
-1.016473e-11
1.001663e-10
-2.135668e-11
9.75851e-11
-3.220042e-11
9.354433e-11
-4.282157e-11
8.821461e-11
-5.336835e-11
8.301493e-11
-6.324086e-11
7.337765e-11
6.410777e-11
-7.250109e-11
-1.178594e-11
1.128261e-10
-2.454191e-11
1.099477e-10
-3.687639e-11
1.055027e-10
-4.889405e-11
9.96596e-11
-6.075965e-11
9.404705e-11
-7.181889e-11
8.338935e-11
7.312188e-11
-8.20943e-11
-1.355011e-11
1.271184e-10
-2.801584e-11
1.239033e-10
-4.199199e-11
1.190013e-10
-5.555795e-11
1.125688e-10
-6.87304e-11
1.063134e-10
-8.132298e-11
9.488405e-11
8.329795e-11
-9.277488e-11
-1.547299e-11
1.431976e-10
-3.181083e-11
1.396096e-10
-4.760402e-11
1.342101e-10
-6.282836e-11
1.270493e-10
-7.584293e-11
1.183697e-10
-9.168566e-11
1.095636e-10
9.496986e-11
-1.046473e-10
-1.756492e-11
1.612254e-10
-3.594131e-11
1.57225e-10
-5.370726e-11
1.512759e-10
-7.089573e-11
1.433966e-10
-8.72901e-11
1.337643e-10
-1.034449e-10
1.244962e-10
1.080736e-10
-1.178613e-10
-1.983814e-11
1.81374e-10
-4.044268e-11
1.769285e-10
-6.039351e-11
1.703985e-10
-7.972113e-11
1.617689e-10
-9.8275e-11
1.512202e-10
-1.163043e-10
1.412222e-10
1.229527e-10
-1.32536e-10
-2.229607e-11
2.038176e-10
-4.53211e-11
1.989005e-10
-6.766354e-11
1.917711e-10
-8.934114e-11
1.823639e-10
-1.10162e-10
1.708329e-10
-1.301285e-10
1.597836e-10
1.401952e-10
-1.48797e-10
-2.493556e-11
2.287269e-10
-5.057325e-11
2.233206e-10
-7.552137e-11
2.15593e-10
-9.980909e-11
2.054255e-10
-1.231053e-10
1.92796e-10
-1.427174e-10
1.779084e-10
1.624885e-10
-1.665617e-10
-2.774254e-11
2.562594e-10
-5.617346e-11
2.503562e-10
-8.392566e-11
2.420465e-10
-1.11016e-10
2.31126e-10
-1.372099e-10
2.17508e-10
-1.621162e-10
2.012627e-10
1.852509e-10
-1.865511e-10
-3.069471e-11
2.865524e-10
-6.208762e-11
2.801653e-10
-9.28555e-11
2.713279e-10
-1.230446e-10
2.597416e-10
-1.524534e-10
2.452563e-10
-1.808143e-10
2.279026e-10
2.11097e-10
-2.084975e-10
-3.373752e-11
3.196932e-10
-6.824135e-11
3.128904e-10
-1.022064e-10
3.03608e-10
-1.357335e-10
2.91496e-10
-1.686468e-10
2.763114e-10
-2.00652e-10
2.579925e-10
2.402716e-10
-2.318699e-10
-3.660256e-11
3.555087e-10
-7.451031e-11
3.488264e-10
-1.118139e-10
3.390259e-10
-1.488963e-10
3.265972e-10
-1.856478e-10
3.109885e-10
-2.216174e-10
2.918247e-10
2.692075e-10
-2.528018e-10
-3.953937e-11
3.940829e-10
-8.074856e-11
3.878806e-10
-1.214591e-10
3.776595e-10
-1.622384e-10
3.651875e-10
-2.029627e-10
3.494083e-10
-2.431396e-10
3.296063e-10
3.051241e-10
-2.81503e-10
-3.885946e-11
4.318365e-10
-8.616937e-11
4.32886e-10
-1.308289e-10
4.200856e-10
-1.755206e-10
4.075072e-10
-2.207701e-10
3.921315e-10
-2.66394e-10
3.725562e-10
3.478227e-10
-3.118991e-10
-4.450039e-11
4.751621e-10
-9.133548e-11
4.773396e-10
-1.394875e-10
4.659064e-10
-1.881233e-10
4.536467e-10
-2.381035e-10
4.39407e-10
-2.896253e-10
4.211454e-10
3.971811e-10
-3.421628e-10
-4.673538e-11
5.207351e-10
-8.764712e-11
5.159281e-10
-1.448341e-10
5.207664e-10
-1.991576e-10
5.05458e-10
-2.538727e-10
4.913425e-10
-3.113388e-10
4.754946e-10
4.536302e-10
-3.713011e-10
-4.834402e-11
5.680683e-10
-9.737253e-11
5.628928e-10
-1.384907e-10
5.598115e-10
-2.064133e-10
5.710449e-10
-2.669607e-10
5.49238e-10
-3.30878e-10
5.362838e-10
5.184874e-10
-3.994909e-10
-4.887048e-11
6.162688e-10
-9.936496e-11
6.117926e-10
-1.512409e-10
6.10202e-10
-2.102938e-10
6.28326e-10
-2.756682e-10
6.124285e-10
-3.461006e-10
6.039007e-10
5.928956e-10
-4.242279e-10
-4.833746e-11
6.645407e-10
-9.827056e-11
6.609359e-10
-1.500157e-10
6.614051e-10
-1.895993e-10
6.67179e-10
-2.734208e-10
6.950778e-10
-3.539582e-10
6.824764e-10
6.773758e-10
-4.416107e-10
-4.642845e-11
7.118582e-10
-9.404354e-11
7.090271e-10
-1.441935e-10
7.125253e-10
-1.975596e-10
7.21551e-10
-2.406613e-10
7.38826e-10
-3.48236e-10
7.898379e-10
7.746308e-10
-4.473085e-10
-4.313265e-11
7.572897e-10
-8.669759e-11
7.549215e-10
-1.32256e-10
7.612602e-10
-1.832042e-10
7.760184e-10
-2.424939e-10
8.015055e-10
-3.268855e-10
8.77093e-10
8.836264e-10
-4.351136e-10
-3.851492e-11
8.001013e-10
-7.63204e-11
7.97642e-10
-1.147677e-10
8.05964e-10
-1.577346e-10
8.260291e-10
-2.089121e-10
8.599542e-10
-2.402678e-10
9.153141e-10
1.040569e-09
-3.920467e-10
-3.174675e-11
8.389067e-10
-6.357914e-11
8.378669e-10
-9.239345e-11
8.451226e-10
-1.227891e-10
8.681547e-10
-1.605912e-10
9.104596e-10
-2.12027e-10
9.80281e-10
1.156105e-09
-3.127789e-10
-1.845777e-11
8.682558e-10
-4.781779e-11
8.804024e-10
-6.784695e-11
8.806923e-10
-8.155622e-11
9.007223e-10
-9.648255e-11
9.501864e-10
-1.198541e-10
1.039295e-09
1.19089e-09
-1.039155e-10
-2.334251e-11
9.075538e-10
-2.119958e-11
8.976652e-10
-4.039288e-11
9.267087e-10
-3.480648e-11
9.374997e-10
-1.195489e-11
1.008682e-09
6.096126e-12
1.170909e-09
1.428157e-09
-6.759744e-12
-2.610354e-11
9.580723e-10
-3.24373e-11
9.386532e-10
1.47985e-11
9.501143e-10
4.582333e-11
1.069848e-09
1.279064e-10
1.238103e-09
2.052626e-10
1.57048e-09
1.962728e-09
2.406501e-10
-3.133066e-11
1.037065e-09
-1.969211e-11
1.024162e-09
6.343639e-11
1.097757e-09
2.891622e-10
1.340628e-09
4.14112e-10
1.855935e-09
5.287852e-10
2.199556e-09
2.533305e-09
6.175613e-10
-1.952023e-11
1.181414e-09
6.920578e-11
1.222731e-09
2.89515e-10
1.449802e-09
5.730464e-10
1.856795e-09
9.799833e-10
2.304578e-09
9.968971e-10
2.893369e-09
2.9597e-09
1.101824e-09
7.59094e-11
1.433793e-09
3.331106e-10
1.584782e-09
7.076882e-10
1.909235e-09
1.029292e-09
2.329626e-09
1.30057e-09
2.65858e-09
1.80521e-09
2.948482e-09
3.560961e-09
1.715588e-09
2.849856e-10
1.80614e-09
7.972446e-10
1.939094e-09
1.299681e-09
2.246543e-09
1.555587e-09
2.720611e-09
1.807882e-09
2.899948e-09
2.112828e-09
3.099303e-09
3.335981e-09
2.849443e-09
6.036041e-10
2.179456e-09
1.19471e-09
2.235976e-09
1.681934e-09
2.439031e-09
2.247224e-09
2.690484e-09
2.419061e-09
3.20539e-09
2.761033e-09
3.205995e-09
3.45034e-09
3.113951e-09
9.008991e-10
2.448945e-09
1.597007e-09
2.397805e-09
2.134624e-09
2.511208e-09
2.597195e-09
2.706946e-09
3.340536e-09
2.940463e-09
3.875862e-09
3.151923e-09
3.920179e-09
3.90047e-09
1.118414e-09
2.569588e-09
1.9404e-09
2.422293e-09
2.580274e-09
2.475182e-09
3.112664e-09
2.657832e-09
3.615567e-09
2.881625e-09
4.10934e-09
3.087128e-09
3.32127e-09
5.167735e-09
1.258897e-09
2.538169e-09
2.215415e-09
2.334215e-09
2.974472e-09
2.355259e-09
3.608313e-09
2.522352e-09
4.170247e-09
2.751813e-09
4.688108e-09
2.96799e-09
3.136867e-09
5.254018e-09
1.419492e-09
2.297655e-09
2.599426e-09
2.090688e-09
3.332969e-09
2.345769e-09
4.038313e-09
2.337335e-09
4.675133e-09
2.534472e-09
5.261534e-09
2.751148e-09
2.99007e-09
5.748344e-09
1.44528e-09
1.939669e-09
2.700627e-09
1.771245e-09
4.061075e-09
1.773448e-09
5.036901e-09
1.953185e-09
5.9298e-09
2.099928e-09
6.73018e-09
2.341491e-09
3.354949e-09
6.706359e-09
1.485413e-09
1.466849e-09
2.819164e-09
1.378077e-09
3.985677e-09
1.391714e-09
4.961983e-09
1.545218e-09
5.715176e-09
1.761595e-09
6.376083e-09
2.008378e-09
2.484911e-09
7.542503e-09
1.497074e-09
9.251011e-10
2.902304e-09
9.235889e-10
4.119099e-09
9.958751e-10
5.069785e-09
1.181808e-09
5.80518e-09
1.434581e-09
6.4069e-09
1.713077e-09
2.009303e-09
7.128049e-09
1.510525e-09
3.287188e-10
2.9847e-09
4.09006e-10
4.291379e-09
5.443106e-10
5.321652e-09
7.684041e-10
6.123288e-09
1.054313e-09
6.765387e-09
1.374336e-09
1.704702e-09
7.293746e-09
1.552502e-09
-3.32063e-10
3.121751e-09
-1.850122e-10
4.557966e-09
2.450029e-12
5.733494e-09
2.500419e-10
6.681513e-09
5.561314e-10
7.465405e-09
9.084218e-10
1.301655e-09
8.094007e-09
1.532402e-09
-9.767192e-10
3.091281e-09
-7.746284e-10
4.51875e-09
-5.368857e-10
5.685161e-09
-2.631985e-10
6.628634e-09
5.980612e-11
7.411529e-09
4.413962e-10
8.937411e-10
8.04474e-09
1.460361e-09
-1.531589e-09
2.897623e-09
-1.271254e-09
4.177378e-09
-9.831562e-10
5.199927e-09
-6.831374e-10
6.010429e-09
-3.38122e-10
6.675494e-09
7.25429e-11
5.441762e-10
7.24482e-09
1.41814e-09
-2.009027e-09
2.759092e-09
-1.695878e-09
3.933912e-09
-1.375504e-09
4.87827e-09
-1.064541e-09
5.635847e-09
-7.007665e-10
6.277604e-09
-2.739247e-10
1.660165e-11
7.040684e-09
1.371317e-09
-2.391277e-09
2.615316e-09
-2.045995e-09
3.723496e-09
-1.74611e-09
4.684307e-09
-1.483208e-09
5.459277e-09
-1.072521e-09
6.163337e-09
-6.592315e-10
-8.541333e-10
7.318389e-09
1.295784e-09
-2.63735e-09
2.432293e-09
-2.307476e-09
3.691269e-09
-2.276815e-09
4.631146e-09
-1.865184e-09
5.523276e-09
-1.522249e-09
6.352101e-09
-1.11042e-09
-6.427133e-10
6.466411e-09
1.235396e-09
-2.749778e-09
2.279664e-09
-2.486872e-09
2.939506e-09
-2.282169e-09
3.622832e-09
-2.072171e-09
4.295832e-09
-1.80092e-09
4.959438e-09
-1.421923e-09
-9.215124e-10
5.560579e-09
1.036301e-09
-2.647929e-09
1.847861e-09
-2.501793e-09
2.523116e-09
-2.383149e-09
3.135385e-09
-2.23472e-09
3.735373e-09
-2.002281e-09
4.340719e-09
-1.652448e-09
-1.235352e-09
5.012455e-09
8.439446e-10
-2.398015e-09
1.517124e-09
-2.390674e-09
2.080865e-09
-2.392091e-09
2.597004e-09
-2.313917e-09
3.136975e-09
-2.138262e-09
3.718911e-09
-1.838372e-09
-1.87498e-09
4.786788e-09
5.833861e-10
-2.035595e-09
1.128958e-09
-2.135378e-09
1.604807e-09
-2.278648e-09
2.055409e-09
-2.319593e-09
2.769743e-09
-2.42134e-09
3.365156e-09
-2.001845e-09
-1.686403e-09
3.627345e-09
2.952073e-10
-1.64715e-09
7.119131e-10
-1.766098e-09
1.135143e-09
-2.020379e-09
1.654965e-09
-2.308694e-09
1.909748e-09
-2.234585e-09
2.355459e-09
-2.050046e-09
-1.777879e-09
2.859094e-09
6.534332e-11
-1.330707e-09
3.495828e-10
-1.403271e-09
7.300543e-10
-1.619943e-09
1.004065e-09
-1.912519e-09
1.312944e-09
-2.048355e-09
1.708881e-09
-2.023806e-09
-2.020583e-09
2.386853e-09
-3.669532e-11
-1.126573e-09
3.541514e-11
-1.117443e-09
2.376276e-10
-1.209931e-09
4.993742e-10
-1.44717e-09
8.001095e-10
-1.707261e-09
1.267478e-09
-1.937808e-09
-1.804324e-09
1.51544e-09
-7.100758e-11
-9.880061e-10
-9.124773e-11
-9.582946e-10
-2.854588e-11
-9.628374e-10
1.196468e-10
-1.050615e-09
4.082136e-10
-1.287158e-09
6.06553e-10
-1.456789e-09
-1.592989e-09
9.435785e-10
-6.710275e-11
-8.891895e-10
-1.127587e-10
-8.620174e-10
-1.234103e-10
-8.464513e-10
-5.882149e-11
-8.726998e-10
1.415639e-11
-9.192247e-10
1.555839e-10
-1.050468e-09
-1.215842e-09
3.697795e-10
-5.860702e-11
-8.113147e-10
-1.050977e-10
-7.920527e-10
-1.242897e-10
-7.899899e-10
-1.490056e-10
-7.74893e-10
-1.395556e-10
-7.858254e-10
-9.078069e-11
-8.443213e-10
-9.276512e-10
-2.18737e-11
-5.237343e-11
-7.459468e-10
-8.89823e-11
-7.400477e-10
-1.345837e-10
-7.251774e-10
-1.649127e-10
-7.195424e-10
-1.785202e-10
-7.316626e-10
-2.031041e-10
-7.500758e-10
-8.003638e-10
-2.260139e-10
-4.49266e-11
-6.9247e-10
-9.380231e-11
-6.808136e-10
-1.347633e-10
-6.717614e-10
-1.65728e-10
-6.742808e-10
-2.050425e-10
-6.75495e-10
-2.434498e-10
-6.91536e-10
-7.619814e-10
-2.562937e-10
-4.752891e-11
-6.397507e-10
-9.336487e-11
-6.287407e-10
-1.347919e-10
-6.224276e-10
-1.75854e-10
-6.240548e-10
-2.187395e-10
-6.230752e-10
-2.657934e-10
-6.349426e-10
-6.823648e-10
-3.357968e-10
-4.71532e-11
-5.898346e-10
-9.172551e-11
-5.809749e-10
-1.322735e-10
-5.774757e-10
-1.794332e-10
-5.718079e-10
-2.252524e-10
-5.721224e-10
-2.57417e-10
-5.979502e-10
-5.831181e-10
-3.533583e-10
-4.564148e-11
-5.431702e-10
-8.828913e-11
-5.373591e-10
-1.343266e-10
-5.296971e-10
-1.798449e-10
-5.243007e-10
-2.200837e-10
-5.300028e-10
-2.857879e-10
-5.309362e-10
-5.131643e-10
-3.561066e-10
-4.404569e-11
-4.993089e-10
-8.816224e-11
-4.938628e-10
-1.322705e-10
-4.857366e-10
-1.763943e-10
-4.802871e-10
-2.181209e-10
-4.88686e-10
-2.836082e-10
-4.666222e-10
-4.529699e-10
-3.462622e-10
-4.145336e-11
-4.588322e-10
-8.523778e-11
-4.517495e-10
-1.278589e-10
-4.445033e-10
-1.601289e-10
-4.495588e-10
-2.203576e-10
-4.30343e-10
-2.736677e-10
-4.158112e-10
-4.002766e-10
-3.298483e-10
-4.042242e-11
-4.198589e-10
-8.156256e-11
-4.129202e-10
-1.221639e-10
-4.060375e-10
-1.65923e-10
-4.081606e-10
-2.120485e-10
-3.868441e-10
-2.592372e-10
-3.717247e-10
-3.537787e-10
-3.09551e-10
-3.828144e-11
-3.832577e-10
-7.673066e-11
-3.771219e-10
-1.083857e-10
-3.769588e-10
-1.574219e-10
-3.618576e-10
-1.996694e-10
-3.475147e-10
-2.425355e-10
-3.321114e-10
-3.130136e-10
-2.870172e-10
-3.588926e-11
-3.491118e-10
-6.724335e-11
-3.485771e-10
-1.0935e-10
-3.375666e-10
-1.482535e-10
-3.25742e-10
-1.862037e-10
-3.124992e-10
-2.248234e-10
-2.966335e-10
-2.772396e-10
-2.639953e-10
-3.335098e-11
-3.174442e-10
-6.817036e-11
-3.165516e-10
-1.031756e-10
-3.051946e-10
-1.376828e-10
-2.939244e-10
-1.722381e-10
-2.807319e-10
-2.069656e-10
-2.648066e-10
-2.456738e-10
-2.41556e-10
-2.860479e-11
-2.903912e-10
-6.326815e-11
-2.845354e-10
-9.538799e-11
-2.755474e-10
-1.268936e-10
-2.649307e-10
-1.581292e-10
-2.520637e-10
-1.889688e-10
-2.365821e-10
-2.18181e-10
-2.191091e-10
-2.870501e-11
-2.630473e-10
-5.858493e-11
-2.571048e-10
-8.762811e-11
-2.487778e-10
-1.16248e-10
-2.386051e-10
-1.443408e-10
-2.262935e-10
-1.715718e-10
-2.116811e-10
-1.94974e-10
-1.970821e-10
-2.630194e-11
-2.378824e-10
-5.358189e-11
-2.32051e-10
-8.004214e-11
-2.243685e-10
-1.059871e-10
-2.14725e-10
-1.313353e-10
-2.030273e-10
-1.557594e-10
-1.893325e-10
-1.766948e-10
-1.761669e-10
-2.405792e-11
-2.147332e-10
-4.874706e-11
-2.093642e-10
-7.273826e-11
-2.022045e-10
-9.614546e-11
-1.931593e-10
-1.188512e-10
-1.821828e-10
-1.406606e-10
-1.693828e-10
-1.576519e-10
-1.616428e-10
-2.175091e-11
-1.93663e-10
-4.412273e-11
-1.887745e-10
-6.578895e-11
-1.821494e-10
-8.683599e-11
-1.737443e-10
-1.071359e-10
-1.63544e-10
-1.265183e-10
-1.516709e-10
-1.406524e-10
-1.452598e-10
-1.955448e-11
-1.745689e-10
-3.975423e-11
-1.701469e-10
-5.925146e-11
-1.640614e-10
-7.812036e-11
-1.56317e-10
-9.62113e-11
-1.469351e-10
-1.132453e-10
-1.361431e-10
-1.255763e-10
-1.299064e-10
-1.749122e-11
-1.573294e-10
-3.566374e-11
-1.533512e-10
-5.315802e-11
-1.477928e-10
-7.006137e-11
-1.406875e-10
-8.613098e-11
-1.321995e-10
-9.910396e-11
-1.246166e-10
-1.103082e-10
-1.158445e-10
-1.556614e-11
-1.418198e-10
-3.185529e-11
-1.382598e-10
-4.749706e-11
-1.332123e-10
-6.25732e-11
-1.267392e-10
-7.696392e-11
-1.190206e-10
-9.066473e-11
-1.122874e-10
-9.887672e-11
-1.034558e-10
-1.378238e-11
-1.279129e-10
-2.833448e-11
-1.247417e-10
-4.228146e-11
-1.201791e-10
-5.571488e-11
-1.143052e-10
-6.854607e-11
-1.072944e-10
-8.097278e-11
-1.011376e-10
-8.905603e-11
-9.209135e-11
-1.213796e-11
-1.154824e-10
-2.509573e-11
-1.126685e-10
-3.749765e-11
-1.085585e-10
-4.943602e-11
-1.032515e-10
-6.075174e-11
-9.698881e-11
-7.193607e-11
-9.11559e-11
-8.041264e-11
-8.184805e-11
-1.062756e-11
-1.044067e-10
-2.21292e-11
-1.019147e-10
-3.3137e-11
-9.821293e-11
-4.368171e-11
-9.349406e-11
-5.226622e-11
-8.937609e-11
-6.364869e-11
-8.092246e-11
-7.268017e-11
-7.263576e-11
-9.241198e-12
-9.45718e-11
-1.940721e-11
-9.236986e-11
-2.913289e-11
-8.904093e-11
-3.854451e-11
-8.478369e-11
-4.765576e-11
-8.118828e-11
-5.642031e-11
-7.324722e-11
-6.598066e-11
-6.436779e-11
-7.970819e-12
-8.586915e-11
-1.69183e-11
-8.392361e-11
-2.548667e-11
-8.092415e-11
-3.382198e-11
-7.706759e-11
-4.206821e-11
-7.379638e-11
-4.97624e-11
-6.659711e-11
-6.005001e-11
-5.693241e-11
-6.804717e-12
-7.819893e-11
-1.463841e-11
-7.64758e-11
-2.215641e-11
-7.37606e-11
-2.951947e-11
-7.02477e-11
-3.686171e-11
-6.725214e-11
-4.375563e-11
-6.071784e-11
-5.478266e-11
-5.02581e-11
-5.729618e-12
-7.147142e-11
-1.254151e-11
-6.993564e-11
-1.910007e-11
-6.745961e-11
-2.55232e-11
-6.428874e-11
-3.212185e-11
-6.139206e-11
-3.833683e-11
-5.548861e-11
-5.008328e-11
-4.426759e-11
-4.730753e-12
-6.560766e-11
-1.060163e-11
-6.422078e-11
-1.625031e-11
-6.197348e-11
-2.100969e-11
-5.993646e-11
-2.773485e-11
-5.535459e-11
-3.343792e-11
-5.074694e-11
-4.586161e-11
-3.888899e-11
-3.786928e-12
-6.054475e-11
-8.774956e-12
-5.926732e-11
-1.366817e-11
-5.714484e-11
-1.868752e-11
-5.525996e-11
-2.388615e-11
-5.078984e-11
-2.9005e-11
-4.65685e-11
-4.204041e-11
-3.405679e-11
-2.880272e-12
-5.623115e-11
-7.035055e-12
-5.501456e-11
-1.119533e-11
-5.294291e-11
-1.566008e-11
-5.105599e-11
-2.025449e-11
-4.677598e-11
-2.496744e-11
-4.277597e-11
-3.853601e-11
-2.970838e-11
-1.983052e-12
-5.263411e-11
-5.334938e-12
-5.141679e-11
-8.814256e-12
-4.930944e-11
-1.272163e-11
-4.733431e-11
-1.688599e-11
-4.315408e-11
-2.128479e-11
-3.929026e-11
-3.527546e-11
-2.579987e-11
-1.062355e-12
-4.974189e-11
-3.620889e-12
-4.844114e-11
-6.469325e-12
-4.618528e-11
-9.900084e-12
-4.401843e-11
-1.373917e-11
-3.983212e-11
-1.792262e-11
-3.603078e-11
-3.219096e-11
-2.229908e-11
-7.616981e-14
-4.75653e-11
-1.826686e-12
-4.607063e-11
-4.095582e-12
-4.351127e-11
-7.149992e-12
-4.102038e-11
-1.078099e-11
-3.671687e-11
-1.486263e-11
-3.291382e-11
-2.921821e-11
-1.919481e-11
1.057677e-12
-4.616856e-11
1.340906e-13
-4.428469e-11
-1.626551e-12
-4.121596e-11
-4.431506e-12
-3.824207e-11
-7.997225e-12
-3.370835e-11
-1.210754e-11
-2.985621e-11
-2.629686e-11
-1.650045e-11
2.42228e-12
-4.56562e-11
2.372656e-12
-4.308647e-11
1.047461e-12
-3.924408e-11
-1.721568e-12
-3.552596e-11
-5.397603e-12
-3.070293e-11
-9.684827e-12
-2.678129e-11
-2.337902e-11
-1.425512e-11
4.172075e-12
-4.622578e-11
5.046744e-12
-4.249843e-11
4.412313e-12
-3.793506e-11
1.023194e-12
-3.232956e-11
-3.02158e-12
-2.756226e-11
-7.651178e-12
-2.363607e-11
-2.111198e-11
-1.17966e-11
6.527504e-12
-4.822009e-11
8.23359e-12
-4.247655e-11
7.008388e-12
-3.619688e-11
3.603468e-12
-2.946753e-11
-9.702544e-13
-2.432412e-11
-5.577893e-12
-2.087778e-11
-1.814459e-11
-1.075783e-11
9.800916e-12
-5.228752e-11
1.214149e-11
-4.311942e-11
1.032359e-11
-3.442667e-11
6.074759e-12
-2.647046e-11
9.714848e-13
-2.116874e-11
-4.706398e-12
-1.759706e-11
-1.528756e-11
-1.024418e-11
1.444871e-11
-6.00259e-11
1.693415e-11
-4.491983e-11
1.388278e-11
-3.283071e-11
8.333559e-12
-2.329303e-11
1.943341e-12
-1.767414e-11
-4.361916e-12
-1.444509e-11
-1.264741e-11
-1.023882e-11
2.159735e-11
-8.038033e-11
2.319589e-11
-5.031814e-11
1.770014e-11
-3.124911e-11
1.008815e-11
-1.98243e-11
2.448926e-12
-1.421054e-11
-4.504166e-12
-1.152576e-11
-1.033269e-11
-1.067318e-11
3.848336e-11
-1.316815e-10
3.414643e-11
-6.233655e-11
2.272406e-11
-2.870468e-11
1.177646e-11
-1.520324e-11
2.565703e-12
-1.056453e-11
-5.031454e-12
-8.874558e-12
-8.401383e-12
-1.141596e-11
7.598327e-11
5.672158e-11
2.980952e-11
1.304967e-11
2.244917e-12
-5.815417e-12
-1.229054e-11
-1.864054e-11
-6.368545e-12
-2.307607e-11
-7.151039e-12
-1.323279e-11
-7.932614e-12
-1.325471e-11
-1.380846e-11
-4.490963e-12
1.426979e-11
-1.456979e-11
-4.930496e-12
1.488232e-11
-1.527501e-11
-5.110432e-12
1.602546e-11
-1.705387e-11
-3.83544e-12
-1.901497e-11
-5.165357e-12
-2.34882e-11
-6.237635e-12
-1.351623e-11
-7.374163e-12
-1.319659e-11
4.311732e-12
-1.400902e-11
-4.292424e-12
4.842126e-12
1.444678e-11
-1.465678e-11
-4.803691e-12
4.932659e-12
1.474365e-11
-1.457821e-11
-5.009204e-12
4.069048e-12
1.389759e-11
-1.143018e-11
-5.678692e-12
-1.931607e-11
-3.555122e-12
-2.398014e-11
-4.950392e-12
-2.766611e-11
-6.157266e-12
-1.464143e-11
-4.049938e-12
4.111472e-12
4.033982e-12
-1.46703e-11
-3.977929e-12
4.795232e-12
-1.48272e-11
-4.788477e-12
5.126248e-12
1.487475e-11
-1.471293e-11
-5.207405e-12
6.293347e-12
1.431049e-11
-1.318484e-11
-6.497869e-12
-1.963864e-11
-1.514978e-12
-2.429854e-11
-3.433608e-12
-1.356816e-11
-5.274189e-12
-1.402357e-11
-1.451116e-11
-3.482627e-12
4.729346e-12
1.495781e-11
-1.514778e-11
-4.708464e-12
5.241297e-12
1.523292e-11
-1.515505e-11
-5.236253e-12
6.574386e-12
1.490058e-11
-1.391917e-11
-6.610018e-12
-2.027131e-11
9.76685e-13
-2.506446e-11
-1.498399e-12
-1.435693e-11
-3.804882e-12
-1.438455e-11
3.273148e-12
-1.49239e-11
-3.051778e-12
4.644802e-12
1.536141e-11
-1.559053e-11
-4.56472e-12
5.203457e-12
1.570265e-11
-1.566404e-11
-5.153377e-12
6.628067e-12
1.545232e-11
-1.447001e-11
-6.63873e-12
-2.134047e-11
3.856356e-12
-2.618851e-11
7.889499e-13
-1.491224e-11
-2.091183e-12
-1.497694e-11
2.722938e-12
-1.546066e-11
-2.472896e-12
4.466118e-12
-1.616763e-11
-4.353386e-12
1.592146e-11
5.093388e-12
1.628906e-11
-1.625886e-11
-5.029974e-12
6.645523e-12
1.605326e-11
-1.504081e-11
-6.653316e-12
-2.295604e-11
7.046745e-12
-2.782121e-11
3.367193e-12
-1.570721e-11
-1.552517e-13
-1.583136e-11
-1.618504e-11
-1.846068e-12
2.065472e-12
4.193726e-12
1.601172e-11
-1.688874e-11
-3.41743e-12
4.968897e-12
1.70299e-11
-1.697873e-11
-4.920088e-12
6.669813e-12
1.674518e-11
-1.566355e-11
-6.704311e-12
-2.519468e-11
9.521081e-12
-3.007275e-11
6.200025e-12
-1.681398e-11
1.991292e-12
-1.700538e-11
1.369285e-12
-1.7283e-11
-1.122774e-12
3.210063e-12
-1.792652e-11
-3.042911e-12
1.76825e-11
4.895262e-12
1.798802e-11
-1.786675e-11
-4.908894e-12
6.772837e-12
1.754696e-11
-1.633174e-11
-6.889024e-12
-2.928614e-11
1.304817e-11
-3.301751e-11
8.059798e-12
-1.828119e-11
4.371961e-12
-1.855639e-11
-1.871136e-11
-3.289174e-13
5.661093e-13
2.880917e-12
1.909226e-11
-1.929661e-11
-2.734148e-12
4.979783e-12
1.927277e-11
-1.899956e-11
-5.13533e-12
7.081978e-12
1.846372e-11
-1.700891e-11
-7.377726e-12
-3.320635e-11
1.67949e-11
-3.81199e-11
1.123646e-11
-2.015708e-11
5.602479e-12
-2.051843e-11
-3.322491e-13
-2.058579e-11
5.935933e-13
2.573792e-12
2.099854e-11
-2.122784e-11
-2.383851e-12
5.401337e-12
2.116978e-11
-2.068608e-11
-5.755278e-12
8.045466e-12
1.950689e-11
-1.663484e-11
-9.741311e-12
-3.783112e-11
2.081033e-11
-4.290072e-11
1.469508e-11
-2.322004e-11
8.442238e-12
-2.374951e-11
-1.410945e-12
-2.291931e-11
9.636466e-13
2.091289e-12
2.345703e-11
-2.389792e-11
-1.672151e-12
5.995046e-12
2.420824e-11
-2.441797e-11
-5.635134e-12
1.387687e-11
2.459227e-11
-2.392996e-11
-1.296848e-11
-4.312681e-11
2.514311e-11
-4.841333e-11
1.846196e-11
-2.604997e-11
1.159717e-11
-2.665689e-11
-1.896372e-12
-2.649539e-11
2.211053e-12
1.118711e-12
2.713106e-11
-2.681727e-11
-1.438728e-12
4.80328e-12
2.736708e-11
-2.788694e-11
-4.11456e-12
7.709893e-12
2.839019e-11
-2.719426e-11
-7.151026e-12
-4.909841e-11
2.985084e-11
-5.464049e-11
2.255356e-11
-2.922397e-11
1.502951e-11
-2.991354e-11
-3.27067e-12
-2.967335e-11
3.605051e-12
8.744205e-13
3.032937e-11
-3.087115e-11
-3.214354e-13
3.608813e-12
3.125894e-11
-3.048157e-11
-4.200089e-12
7.140581e-12
3.023349e-11
-2.789919e-11
-7.664236e-12
-5.578172e-11
3.499906e-11
-6.162779e-11
2.7004e-11
-3.277074e-11
1.872489e-11
-3.355281e-11
-4.764326e-12
-3.32024e-11
5.095829e-12
-2.667179e-13
3.385947e-11
-3.441576e-11
8.528158e-13
3.80233e-12
3.487276e-11
-3.537125e-11
-3.090559e-12
9.635177e-12
3.651236e-11
-3.885696e-11
-4.892003e-12
-6.325149e-11
4.067641e-11
-6.946568e-11
3.186927e-11
-3.674809e-11
2.271075e-11
-3.764302e-11
-6.347524e-12
-3.714384e-11
6.658833e-12
-1.431907e-12
3.77644e-11
-3.825041e-11
1.96868e-12
2.744107e-12
3.852931e-11
-3.853917e-11
-2.495351e-12
6.787903e-12
3.810851e-11
-3.574163e-11
-6.984229e-12
-7.160092e-11
4.698024e-11
-7.827596e-11
3.723903e-11
-4.123794e-11
2.705886e-11
-4.226429e-11
-8.011554e-12
-4.160406e-11
8.310888e-12
-2.520783e-12
4.220549e-11
-4.266378e-11
3.054789e-12
2.281172e-12
4.289782e-11
-4.287246e-11
-2.032727e-12
7.480545e-12
4.252966e-11
-4.0546e-11
-7.05072e-12
-8.094534e-11
5.403146e-11
-8.818908e-11
4.322182e-11
-4.632174e-11
3.188851e-11
-4.750885e-11
-9.794947e-12
-4.664617e-11
1.007137e-11
-3.634323e-12
4.726278e-11
-4.773511e-11
4.205781e-12
1.814202e-12
4.796809e-11
-4.789716e-11
-1.570279e-12
7.49236e-12
4.738995e-11
-4.468535e-11
-7.576299e-12
-9.139558e-11
6.19584e-11
-9.932582e-11
4.993739e-11
-5.205824e-11
3.727849e-11
-5.339847e-11
-1.189683e-11
-5.240656e-11
1.222119e-11
-3.177404e-12
5.31716e-11
-5.355153e-11
3.704249e-12
1.324252e-12
5.379404e-11
-5.371925e-11
-1.035301e-12
7.640955e-12
5.318035e-11
-5.023975e-11
-7.690529e-12
-1.030881e-10
7.091413e-11
-1.118424e-10
5.752552e-11
-5.854781e-11
4.33736e-11
-6.00528e-11
-1.408279e-11
-5.892598e-11
1.446169e-11
-4.350351e-12
5.970035e-11
-6.015379e-11
4.98647e-12
7.314158e-13
6.039636e-11
-6.030134e-11
-4.085416e-13
7.746887e-12
5.968731e-11
-5.642894e-11
-7.820287e-12
-1.161511e-10
8.107586e-11
-1.258909e-10
6.614834e-11
-6.585211e-11
5.030931e-11
-6.755429e-11
-1.657529e-11
-6.625715e-11
1.701181e-11
-5.711814e-12
6.71163e-11
-6.760218e-11
6.428675e-12
6.906963e-14
6.786367e-11
-6.775007e-11
2.967346e-13
7.907852e-12
6.704596e-11
-6.343771e-11
-7.99999e-12
-1.307399e-10
9.262061e-11
-1.416547e-10
7.599148e-11
-7.408821e-11
5.826175e-11
-7.601572e-11
-1.940652e-11
-7.452629e-11
1.991007e-11
-7.253709e-12
7.547271e-11
-7.601194e-11
8.078619e-12
-6.84837e-13
7.630223e-11
-7.617786e-11
1.109561e-12
8.086697e-12
7.538768e-11
-7.139877e-11
-8.183801e-12
-1.470109e-10
1.057567e-10
-1.593152e-10
8.725955e-11
-8.343204e-11
6.759666e-11
-8.564423e-11
-2.26155e-11
-8.383636e-11
2.311937e-11
-9.024603e-12
8.488591e-11
-8.549566e-11
9.981904e-12
-1.56118e-12
8.582948e-11
-8.569977e-11
2.059097e-12
8.259157e-12
8.481694e-11
-8.040934e-11
-8.356601e-12
-1.651051e-10
1.207019e-10
-1.788883e-10
1.000323e-10
-9.472791e-11
7.746054e-11
-9.43878e-11
-2.597917e-11
-9.390435e-11
2.526903e-11
-1.109609e-11
9.544411e-11
-9.616271e-11
1.222537e-11
-2.598906e-12
9.656539e-11
-9.647159e-11
3.218354e-12
8.432532e-12
9.549433e-11
-9.062921e-11
-8.521681e-12
-1.853006e-10
1.380395e-10
-2.013171e-10
1.150528e-10
-2.153651e-10
9.129863e-11
-1.091378e-10
3.04594e-11
-2.623728e-11
-2.802777e-11
-1.120249e-10
3.032486e-11
-1.578281e-11
-1.110737e-10
1.818419e-11
-3.746023e-12
1.090464e-10
-1.087513e-10
4.264204e-12
8.601478e-12
1.076312e-10
-1.022554e-10
-8.681856e-12
-2.075397e-10
1.575496e-10
-2.249217e-10
1.313872e-10
-1.1437e-10
1.028261e-10
-1.223746e-10
-1.206748e-10
3.696271e-11
-2.160019e-11
1.212276e-10
-1.222869e-10
2.312241e-11
-5.082746e-12
1.226933e-10
-1.226271e-10
5.928389e-12
8.769332e-12
1.214158e-10
-1.154511e-10
-8.865496e-12
-2.328141e-10
1.80272e-10
-2.533279e-10
1.507798e-10
-1.335082e-10
1.19617e-10
-1.369302e-10
-4.147159e-11
-1.347282e-10
4.289383e-11
-2.508292e-11
1.366498e-10
-1.382034e-10
2.715192e-11
-6.81266e-12
1.386279e-10
-1.385668e-10
7.770595e-12
8.951019e-12
1.372047e-10
-1.305821e-10
-9.049347e-12
-2.611037e-10
2.07732e-10
-2.842656e-10
1.727205e-10
-1.498851e-10
1.386625e-10
-1.53788e-10
-4.831615e-11
-1.514511e-10
5.009677e-11
-2.955294e-11
1.539911e-10
-1.559514e-10
3.206579e-11
-8.80441e-12
1.56725e-10
-1.566993e-10
9.906737e-12
9.118946e-12
1.552614e-10
-1.479092e-10
-9.17857e-12
-2.936179e-10
2.464518e-10
-3.18002e-10
9.656041e-11
9.923533e-11
-1.68239e-10