/*--------------------------------*- C++ -*----------------------------------*\
| =========                 |                                                 |
| \\      /  F ield         | OpenFOAM: The Open Source CFD Toolbox           |
|  \\    /   O peration     | Version:  2206                                  |
|   \\  /    A nd           | Website:  www.openfoam.com                      |
|    \\/     M anipulation  |                                                 |
\*---------------------------------------------------------------------------*/
FoamFile
{
    version     2.0;
    format      ascii;
    arch        "LSB;label=32;scalar=64";
    class       surfaceScalarField;
    location    "1.6";
    object      phi.a;
}
// * * * * * * * * * * * * * * * * * * * * * * * * * * * * * * * * * * * * * //

dimensions      [0 3 -1 0 0 0 0];

oriented        oriented;

internalField   nonuniform List<scalar> 
26037
(
-1.754313e-10
-4.377657e-11
-9.077769e-11
-2.257154e-11
-5.386668e-11
-8.296684e-12
-3.604353e-11
-3.493921e-12
-2.667441e-11
-1.904651e-12
-2.017193e-11
-1.173062e-12
-7.9364e-13
-1.5186e-11
-9.420314e-11
-6.402062e-11
-6.677052e-11
-3.793052e-11
-4.502749e-11
-1.637059e-11
-3.319673e-11
-8.007042e-12
-2.543449e-11
-4.595986e-12
-1.954712e-11
-2.856641e-12
-1.893826e-12
-1.483405e-11
-3.217542e-11
-2.002156e-11
-3.744376e-11
-2.011153e-11
-3.267865e-11
-1.461771e-11
-2.735277e-11
-8.679397e-12
-2.220586e-11
-5.627151e-12
-1.765111e-11
-3.768245e-12
-2.612455e-12
-1.365131e-11
-1.472462e-11
-6.075466e-12
-2.186851e-11
-1.019231e-11
-2.340162e-11
-1.003273e-11
-2.110519e-11
-7.90165e-12
-1.825077e-11
-5.413802e-12
-1.508292e-11
-3.956845e-12
-2.914414e-12
-1.193051e-11
-8.441957e-12
-2.446773e-12
-1.365088e-11
-5.46803e-12
-1.608989e-11
-6.535186e-12
-1.620459e-11
-5.962281e-12
-1.443081e-11
-5.034723e-12
-1.237244e-11
-3.693995e-12
-2.900076e-12
-9.983272e-12
-5.398576e-12
-1.164557e-12
-8.986811e-12
-3.098319e-12
-1.122471e-11
-4.243297e-12
-1.191599e-11
-4.352899e-12
-1.14413e-11
-4.025291e-12
-9.83618e-12
-3.508046e-12
-2.703959e-12
-8.043491e-12
-3.770286e-12
-6.456825e-13
-6.230837e-12
-1.877873e-12
-8.097998e-12
-2.742455e-12
-8.774402e-12
-3.264864e-12
-8.650445e-12
-3.170703e-12
-7.813885e-12
-2.939175e-12
-2.606261e-12
-6.242911e-12
-2.818139e-12
-4.078251e-13
-4.511735e-12
-1.230736e-12
-5.826341e-12
-1.910784e-12
-6.488541e-12
-2.440728e-12
-6.472201e-12
-2.508729e-12
-5.853731e-12
-2.452652e-12
-2.280172e-12
-4.742973e-12
-2.218447e-12
-2.884322e-13
-3.392734e-12
-8.754154e-13
-4.340577e-12
-1.414471e-12
-4.827925e-12
-1.891925e-12
-4.788286e-12
-2.035025e-12
-4.24767e-12
-2.076683e-12
-2.00823e-12
-3.272086e-12
-1.816408e-12
-2.261139e-13
-2.625275e-12
-6.79037e-13
-3.28826e-12
-1.122293e-12
-3.593428e-12
-1.544323e-12
-3.477025e-12
-1.717008e-12
-2.938878e-12
-1.809882e-12
-1.805669e-12
-2.016008e-12
-1.531595e-12
-1.943826e-13
-2.073494e-12
-5.742559e-13
-2.512167e-12
-9.586274e-13
-2.651938e-12
-1.337515e-12
-2.439694e-12
-1.520532e-12
-1.863663e-12
-1.639353e-12
-1.673617e-12
-9.453039e-13
-1.319707e-12
-1.806104e-13
-1.658354e-12
-5.253359e-13
-1.917291e-12
-8.786976e-13
-1.911828e-12
-1.230139e-12
-1.600223e-12
-1.41759e-12
-9.663757e-13
-1.549742e-12
-1.607081e-12
-2.390691e-14
-1.153726e-12
-1.781738e-13
-1.331365e-12
-5.126856e-13
-1.442614e-12
-8.556793e-13
-1.309857e-12
-1.194439e-12
-9.018007e-13
-1.387098e-12
-2.012729e-13
-1.527204e-12
-1.599125e-12
7.814986e-13
-1.017479e-12
-1.834106e-13
-1.06175e-12
-5.252078e-13
-1.047639e-12
-8.724938e-13
-8.044992e-13
-1.204824e-12
-3.02347e-13
-1.40975e-12
4.680953e-13
-1.559249e-12
-1.642949e-12
1.499876e-12
-9.001126e-13
-1.942618e-13
-8.292508e-13
-5.566681e-13
-7.058986e-13
-9.20226e-13
-3.936348e-13
-1.23226e-12
2.28845e-13
-1.508827e-12
1.071079e-12
-1.642702e-12
-1.733886e-12
2.155854e-12
-7.942639e-13
-2.093888e-13
-6.193722e-13
-6.029903e-13
-3.935022e-13
-9.952882e-13
3.656746e-14
-1.328845e-12
7.198082e-13
-1.623414e-12
1.6301e-12
-1.767622e-12
-1.867885e-12
2.770377e-12
-6.946267e-13
-2.280044e-13
-4.221022e-13
-6.612914e-13
-1.010846e-13
-1.090016e-12
4.196956e-13
-1.45192e-12
1.184734e-12
-1.76736e-12
2.164903e-12
-1.929434e-12
-2.041185e-12
3.361937e-12
-5.975329e-13
-2.496533e-13
-2.299023e-13
-7.301814e-13
1.839892e-13
-1.202876e-12
7.926342e-13
-1.600071e-12
1.640848e-12
-1.942461e-12
2.69176e-12
-2.125984e-12
-2.251219e-12
3.946845e-12
-4.999806e-13
-2.739763e-13
-3.68486e-14
-8.083949e-13
4.706145e-13
-1.331835e-12
1.168002e-12
-1.769533e-12
2.097428e-12
-2.136051e-12
3.22416e-12
-2.348264e-12
-2.494117e-12
4.539638e-12
-3.996809e-13
-3.005029e-13
1.616364e-13
-8.948642e-13
7.654994e-13
-1.475641e-12
1.553225e-12
-1.959195e-12
2.532162e-12
-2.332763e-12
3.773109e-12
-2.62219e-12
-2.773102e-12
5.153583e-12
-2.945494e-13
-3.287651e-13
3.694507e-13
-9.882872e-13
1.074429e-12
-1.632053e-12
1.960527e-12
-2.169141e-12
3.035316e-12
-2.584658e-12
4.351295e-12
-2.910182e-12
-3.081915e-12
5.799067e-12
-1.834337e-13
-3.581783e-13
5.892714e-13
-1.086798e-12
1.401028e-12
-1.797479e-12
2.389407e-12
-2.390417e-12
3.559146e-12
-2.848794e-12
4.964032e-12
-3.210661e-12
-3.412031e-12
6.485041e-12
-6.557945e-14
-3.879778e-13
8.224521e-13
-1.188221e-12
1.747779e-12
-1.968518e-12
2.844848e-12
-2.619088e-12
4.115502e-12
-3.120746e-12
5.611497e-12
-3.508403e-12
-3.745914e-12
7.216425e-12
5.916152e-14
-4.17272e-13
1.069319e-12
-1.290066e-12
2.115051e-12
-2.141036e-12
3.327841e-12
-2.849833e-12
4.705426e-12
-3.39478e-12
6.26778e-12
-3.796679e-12
-4.078585e-12
7.99365e-12
1.900945e-13
-4.450354e-13
1.328761e-12
-1.389279e-12
2.501622e-12
-2.309759e-12
3.837151e-12
-3.074509e-12
5.330933e-12
-3.66194e-12
6.971887e-12
-4.097897e-12
-4.404706e-12
8.81614e-12
3.256108e-13
-4.702923e-13
1.597664e-12
-1.482782e-12
2.90308e-12
-2.468758e-12
4.366354e-12
-3.283086e-12
5.980187e-12
-3.903643e-12
7.727529e-12
-4.360988e-12
-4.684618e-12
9.679555e-12
4.626909e-13
-4.923684e-13
1.870494e-12
-1.568296e-12
3.311908e-12
-2.613685e-12
4.907204e-12
-3.468209e-12
6.645926e-12
-4.109677e-12
8.509088e-12
-4.57424e-12
-4.889166e-12
1.057437e-11
5.963016e-13
-5.112743e-13
2.138754e-12
-1.646271e-12
3.716156e-12
-2.742886e-12
5.446148e-12
-3.625596e-12
7.315785e-12
-4.272266e-12
9.308172e-12
-4.730404e-12
-5.067955e-12
1.152396e-11
7.205849e-13
-5.260867e-13
2.389277e-12
-1.714939e-12
4.09799e-12
-2.858425e-12
5.962247e-12
-3.755606e-12
7.967966e-12
-4.38662e-12
1.009934e-11
-4.813028e-12
-5.128983e-12
1.236899e-11
8.165132e-13
-5.372162e-13
2.601672e-12
-1.790873e-12
4.430483e-12
-2.975003e-12
6.422617e-12
-3.869844e-12
8.563405e-12
-4.457569e-12
1.084021e-11
-4.812378e-12
-5.047214e-12
1.326634e-11
8.82407e-13
-5.640936e-13
2.746457e-12
-1.885677e-12
4.672895e-12
-3.111214e-12
6.777879e-12
-3.99663e-12
9.048321e-12
-4.512275e-12
1.147613e-11
-4.74869e-12
-4.852809e-12
1.409899e-11
8.945329e-13
-6.130135e-13
2.762595e-12
-2.027969e-12
4.765484e-12
-3.32277e-12
6.960611e-12
-4.190266e-12
9.3421e-12
-4.608394e-12
1.191278e-11
-4.670391e-12
-4.551754e-12
1.470904e-11
8.273295e-13
-7.042237e-13
2.636182e-12
-2.294447e-12
4.610447e-12
-3.688238e-12
6.877987e-12
-4.579038e-12
9.339193e-12
-4.864515e-12
1.202895e-11
-4.682123e-12
-4.221919e-12
1.500664e-11
6.502245e-13
-8.634293e-13
2.313708e-12
-2.752949e-12
4.165629e-12
-4.350658e-12
6.418219e-12
-5.347468e-12
8.905776e-12
-5.472116e-12
1.16695e-11
-4.978373e-12
-4.036747e-12
1.479456e-11
3.241427e-13
-1.13044e-12
1.711695e-12
-3.513938e-12
3.347121e-12
-5.477885e-12
5.345554e-12
-6.624367e-12
7.866015e-12
-6.840237e-12
1.065291e-11
-5.900486e-12
-4.313886e-12
1.3863e-11
-1.985877e-13
-1.558747e-12
7.360974e-13
-4.731409e-12
2.001994e-12
-7.325824e-12
3.702393e-12
-8.857089e-12
5.849278e-12
-9.162475e-12
8.746291e-12
-8.205187e-12
-5.590046e-12
1.197591e-11
-9.815106e-13
-2.212435e-12
-7.34959e-13
-6.590851e-12
-3.822419e-14
-1.019483e-11
1.207815e-12
-1.245883e-11
3.020341e-12
-1.314582e-11
5.679402e-12
-1.249555e-11
-8.696063e-12
8.859619e-12
-2.11576e-12
-3.158368e-12
-2.879095e-12
-9.293777e-12
-3.039193e-12
-1.442461e-11
-2.501252e-12
-1.79043e-11
-1.273084e-12
-1.937618e-11
1.656181e-13
-1.853191e-11
-1.576065e-11
4.066029e-12
-3.75881e-12
-4.429815e-12
-5.985588e-12
-1.302053e-11
-7.432948e-12
-2.030328e-11
-8.029571e-12
-2.559273e-11
-7.697658e-12
-2.863903e-11
-6.343794e-12
-2.931243e-11
-2.912618e-11
-3.116449e-12
-6.260437e-12
-5.929613e-12
-1.06137e-11
-1.803066e-11
-1.392062e-11
-2.802258e-11
-1.640975e-11
-3.648055e-11
-1.85148e-11
-4.413421e-11
-2.038598e-11
-5.280026e-11
-6.270721e-11
-2.30389e-11
-9.504913e-12
-7.771305e-12
-1.821046e-11
-2.309878e-11
-2.461419e-11
-4.064165e-11
-3.239379e-11
-5.881314e-11
-4.517738e-11
-8.94749e-11
-6.670579e-11
-1.386762e-10
-1.909612e-10
-8.040257e-11
-1.467565e-11
-1.04157e-11
-2.916113e-11
-3.31565e-11
-5.274016e-11
-6.72632e-11
-8.793662e-11
-1.402147e-10
-1.599492e-10
-2.404492e-10
-2.425945e-10
-3.554764e-10
-4.004684e-10
-2.24734e-10
-2.664829e-11
-1.753283e-11
-6.435021e-11
-6.440633e-11
-1.406771e-10
-1.552512e-10
-3.138601e-10
-3.212626e-10
-4.714743e-10
-5.65795e-10
-4.790281e-10
-6.119483e-10
-5.478072e-10
-2.221126e-10
-6.680157e-11
-3.923084e-11
-1.829597e-10
-1.523647e-10
-3.989027e-10
-3.462667e-10
-6.711235e-10
-5.83505e-10
-8.398414e-10
-7.461511e-10
-4.821365e-10
-8.165601e-10
-5.592389e-10
1.084131e-10
-1.825466e-10
-8.939999e-11
-4.523464e-10
-3.216955e-10
-7.874061e-10
-5.85785e-10
-9.322929e-10
-7.83388e-10
-7.315048e-10
-8.113623e-10
-2.287127e-10
-7.106006e-10
-4.531606e-10
6.860349e-10
-3.815223e-10
-1.728263e-10
-8.307176e-10
-4.846187e-10
-1.144319e-09
-7.381076e-10
-9.295447e-10
-9.066923e-10
-4.036039e-10
-7.794944e-10
3.92168e-10
-5.82435e-10
-2.871774e-10
1.557915e-09
-5.988096e-10
-2.626696e-10
-1.051695e-09
-6.04739e-10
-1.125895e-09
-7.804249e-10
-7.824503e-10
-7.959995e-10
6.818041e-11
-6.956044e-10
1.117574e-09
-4.053163e-10
-4.626277e-11
2.366524e-09
-7.599288e-10
-3.205781e-10
-1.113711e-09
-6.442257e-10
-9.434232e-10
-7.431755e-10
-3.513622e-10
-6.775976e-10
6.517931e-10
-4.996329e-10
2.006344e-09
-2.271739e-10
4.565962e-10
3.402512e-09
-8.11727e-10
-3.240784e-10
-1.014995e-09
-6.104813e-10
-6.551951e-10
-6.52234e-10
1.433449e-10
-5.307764e-10
1.276928e-09
-2.973015e-10
2.683023e-09
1.92238e-11
4.605628e-10
4.792976e-09
-7.460564e-10
-2.826836e-10
-8.255481e-10
-5.246701e-10
-3.228923e-10
-5.304855e-10
6.416536e-10
-3.628378e-10
1.958796e-09
-8.124841e-11
3.53843e-09
2.814862e-10
7.035889e-10
5.380862e-09
-5.830569e-10
-1.979348e-10
-5.742793e-10
-3.712476e-10
7.867565e-13
-3.863074e-10
1.101558e-09
-1.83518e-10
2.587955e-09
1.321094e-10
4.355629e-09
5.312402e-10
1.026866e-09
6.268609e-09
-3.168416e-10
-1.204311e-10
-1.820235e-10
-2.205874e-10
4.651174e-10
-1.659692e-10
1.794884e-09
5.152418e-11
3.645533e-09
3.373487e-10
5.878269e-09
7.275438e-10
1.948704e-09
7.632512e-09
-7.898892e-11
-5.422558e-11
1.692805e-10
-8.345542e-11
9.187575e-10
9.089132e-12
2.209554e-09
2.362765e-10
3.914545e-09
5.547256e-10
5.948587e-09
9.430642e-10
1.639201e-09
8.926174e-09
9.823478e-11
-3.661546e-12
4.248248e-10
3.214593e-11
1.223372e-09
1.632641e-10
2.530131e-09
4.139063e-10
4.242337e-09
7.548416e-10
6.244474e-09
1.153644e-09
1.61802e-09
8.721931e-09
2.304142e-10
3.900741e-11
6.187311e-10
1.392302e-10
1.469001e-09
3.104705e-10
2.843187e-09
5.813406e-10
4.656568e-09
9.318042e-10
6.781916e-09
1.335943e-09
1.773394e-09
9.145347e-09
3.406091e-10
7.286495e-11
7.908798e-10
2.289966e-10
1.716856e-09
4.343818e-10
3.212074e-09
7.117407e-10
5.214484e-09
1.049604e-09
7.604213e-09
1.43249e-09
1.84521e-09
1.026945e-08
3.431574e-10
9.383825e-11
7.958351e-10
2.883366e-10
1.720878e-09
5.200866e-10
3.208703e-09
7.989907e-10
5.197517e-09
1.121449e-09
7.568334e-09
1.4819e-09
1.869981e-09
1.020926e-08
2.366369e-10
1.196786e-10
6.366026e-10
3.547353e-10
1.495625e-09
6.140537e-10
2.866989e-09
9.030655e-10
4.667395e-09
1.226035e-09
6.773111e-09
1.583618e-09
1.93983e-09
9.107422e-09
1.089627e-10
1.525091e-10
4.578574e-10
4.259206e-10
1.275369e-09
7.06122e-10
2.583094e-09
1.000779e-09
4.280846e-09
1.326634e-09
6.257423e-09
1.675502e-09
1.804848e-09
8.668089e-09
-5.977023e-11
1.867279e-10
2.214186e-10
4.83969e-10
9.945625e-10
7.694444e-10
2.277034e-09
1.043617e-09
3.947654e-09
1.367754e-09
5.923217e-09
1.684455e-09
1.359356e-09
8.719528e-09
-2.839619e-10
2.210666e-10
-1.04456e-10
5.302535e-10
5.566735e-10
8.308981e-10
1.852097e-09
1.069636e-09
3.625194e-09
1.349887e-09
5.751822e-09
1.651718e-09
1.941782e-09
7.482786e-09
-5.332337e-10
2.574855e-10
-4.739556e-10
5.767942e-10
1.352507e-10
8.431065e-10
1.23853e-09
1.096587e-09
2.695866e-09
1.368582e-09
4.408592e-09
1.663315e-09
1.975203e-09
6.253087e-09
-6.686727e-10
2.616023e-10
-6.928326e-10
5.81955e-10
-1.585468e-10
8.357139e-10
8.091687e-10
1.080186e-09
2.101031e-09
1.341555e-09
3.62639e-09
1.62532e-09
1.879899e-09
5.365247e-09
-6.949281e-10
2.284355e-10
-8.462795e-10
5.419951e-10
-4.627107e-10
7.926402e-10
3.396203e-10
1.025222e-09
1.451492e-09
1.271201e-09
2.802254e-09
1.53049e-09
1.591e-09
4.71426e-09
-5.994357e-10
1.655817e-10
-9.022139e-10
4.504085e-10
-7.202577e-10
7.07405e-10
-1.264892e-10
9.431258e-10
8.460697e-10
1.209045e-09
2.139523e-09
1.409472e-09
1.644949e-09
3.516918e-09
-4.129971e-10
9.617962e-11
-7.95652e-10
3.148218e-10
-8.62239e-10
5.732087e-10
-5.154294e-10
8.771561e-10
3.228622e-10
1.052881e-09
1.358749e-09
1.2561e-09
1.463963e-09
2.57267e-09
-2.208054e-10
4.701607e-11
-5.486844e-10
1.846879e-10
-8.210868e-10
3.886305e-10
-6.286719e-10
6.36286e-10
-1.122669e-10
8.592023e-10
6.751316e-10
1.062698e-09
1.248121e-09
1.782514e-09
-9.439289e-11
2.298982e-11
-2.492349e-10
8.562011e-11
-4.860434e-10
2.018718e-10
-5.969455e-10
3.890458e-10
-3.943371e-10
6.107737e-10
1.203762e-10
8.573297e-10
9.837587e-10
1.020936e-09
-3.797458e-11
1.326589e-11
-9.477623e-11
4.398224e-11
-2.063997e-10
9.318182e-11
-3.698152e-10
1.875378e-10
-4.405452e-10
3.568399e-10
-1.194179e-10
5.0552e-10
6.734755e-10
4.337915e-10
-1.885341e-11
9.741381e-12
-3.980829e-11
2.921518e-11
-7.367966e-11
5.203793e-11
-1.484417e-10
8.938514e-11
-2.175532e-10
1.432061e-10
-1.640031e-10
2.307835e-10
3.429073e-10
1.194798e-10
-1.170891e-11
7.819007e-12
-2.185295e-11
2.28349e-11
-3.424332e-11
3.814666e-11
-4.76217e-11
5.088248e-11
-7.398691e-11
6.75553e-11
-9.277981e-11
9.283038e-11
1.216372e-10
1.423869e-11
-7.512374e-12
6.112667e-12
-1.380303e-11
1.825299e-11
-1.768859e-11
2.851061e-11
-2.107988e-11
3.666777e-11
-2.551224e-11
4.326736e-11
-2.901596e-11
4.66416e-11
4.916235e-11
-1.820488e-11
-4.684885e-12
4.721797e-12
-7.520542e-12
1.376844e-11
-9.275193e-12
2.149436e-11
-1.0201e-11
2.755743e-11
-9.097458e-12
3.036458e-11
-7.415857e-12
3.088053e-11
2.98877e-11
-6.027548e-12
-2.537242e-12
3.572095e-12
-3.551592e-12
1.039148e-11
-3.744317e-12
1.614191e-11
-2.916103e-12
2.033557e-11
-1.16066e-12
2.201581e-11
1.538031e-12
2.168636e-11
1.91298e-11
5.926242e-12
-1.100452e-12
2.713394e-12
-8.706019e-13
7.940107e-12
-1.0258e-13
1.232991e-11
1.625003e-12
1.512852e-11
3.902238e-12
1.629859e-11
6.446032e-12
1.602933e-11
1.265708e-11
1.10673e-11
-1.16197e-13
2.110716e-12
9.52229e-13
6.238222e-12
2.550053e-12
9.594486e-12
4.672949e-12
1.175151e-11
7.209171e-12
1.266736e-11
1.074765e-11
1.193321e-11
9.695466e-12
1.450748e-11
5.51612e-13
1.701914e-12
2.234215e-12
5.057363e-12
4.242705e-12
7.800356e-12
6.668127e-12
9.579488e-12
9.54862e-12
1.0345e-11
1.299101e-11
9.708626e-12
8.343486e-12
1.663659e-11
9.777835e-13
1.432693e-12
3.021238e-12
4.26556e-12
5.292339e-12
6.629673e-12
7.862412e-12
8.286623e-12
1.098959e-11
8.830446e-12
1.423421e-11
8.62438e-12
7.839428e-12
1.775628e-11
1.229787e-12
1.24986e-12
3.463983e-12
3.739842e-12
5.865402e-12
5.863256e-12
8.650443e-12
7.36997e-12
1.159763e-11
8.019342e-12
1.472172e-11
8.07774e-12
7.717471e-12
1.807402e-11
1.33854e-12
1.123653e-12
3.647029e-12
3.381918e-12
6.07542e-12
5.380725e-12
8.824625e-12
6.743218e-12
1.166922e-11
7.505063e-12
1.464732e-11
7.766921e-12
7.704374e-12
1.778943e-11
1.347043e-12
1.034199e-12
3.643964e-12
3.145522e-12
6.08621e-12
4.980863e-12
8.668239e-12
6.31561e-12
1.136919e-11
7.132739e-12
1.417312e-11
7.529445e-12
7.657355e-12
1.708771e-11
1.283932e-12
9.654775e-13
3.545419e-12
2.933636e-12
5.843969e-12
4.661181e-12
8.279244e-12
5.952497e-12
1.082147e-11
6.798882e-12
1.344058e-11
7.281133e-12
7.521898e-12
1.614232e-11
1.171268e-12
9.14459e-13
3.311325e-12
2.733532e-12
5.467798e-12
4.361132e-12
7.748549e-12
5.606279e-12
1.012387e-11
6.457968e-12
1.256198e-11
6.985536e-12
7.293929e-12
1.505229e-11
1.041715e-12
8.571545e-13
3.022238e-12
2.549176e-12
5.020234e-12
4.0708e-12
7.139012e-12
5.255513e-12
9.350497e-12
6.08941e-12
1.162284e-11
6.628297e-12
6.953908e-12
1.39468e-11
8.83332e-13
7.971972e-13
2.703896e-12
2.361267e-12
4.53895e-12
3.777354e-12
6.495381e-12
4.892236e-12
8.548356e-12
5.691565e-12
1.066537e-11
6.222559e-12
6.556783e-12
1.289843e-11
7.200524e-13
7.366681e-13
2.376478e-12
2.174094e-12
4.048213e-12
3.480553e-12
5.845852e-12
4.517523e-12
7.74915e-12
5.270127e-12
9.728289e-12
5.779452e-12
6.113193e-12
1.185072e-11
5.565389e-13
6.760178e-13
2.051642e-12
1.987311e-12
3.563564e-12
3.182643e-12
5.208209e-12
4.135863e-12
6.969875e-12
4.832613e-12
8.822051e-12
5.307959e-12
5.613902e-12
1.08288e-11
3.977232e-13
6.159185e-13
1.736842e-12
1.803048e-12
3.095262e-12
2.887712e-12
4.593825e-12
3.754464e-12
6.220362e-12
4.388664e-12
7.954024e-12
4.82004e-12
5.089169e-12
9.847423e-12
2.463225e-13
5.573234e-13
1.437032e-12
1.624279e-12
2.649884e-12
2.601269e-12
4.009787e-12
3.382928e-12
5.505975e-12
3.956757e-12
7.138209e-12
4.376228e-12
4.567349e-12
8.920297e-12
1.035453e-13
5.012024e-13
1.154922e-12
1.453855e-12
2.23149e-12
2.328135e-12
3.461701e-12
3.028361e-12
4.840638e-12
3.543167e-12
6.414126e-12
3.925327e-12
4.081433e-12
8.055998e-12
-2.984026e-14
4.482381e-13
8.913609e-13
1.293623e-12
1.8408e-12
2.071564e-12
2.950558e-12
2.694685e-12
4.219279e-12
3.152861e-12
5.696415e-12
3.487675e-12
3.618222e-12
7.251428e-12
-1.542073e-13
3.988938e-13
6.458797e-13
1.145006e-12
1.477286e-12
1.833661e-12
2.474876e-12
2.384201e-12
3.640754e-12
2.788354e-12
5.024364e-12
3.076991e-12
3.190986e-12
6.505711e-12
-2.701281e-13
3.53531e-13
4.170929e-13
1.00914e-12
1.138134e-12
1.616744e-12
2.029228e-12
2.104257e-12
3.092261e-12
2.491038e-12
4.397911e-12
2.69211e-12
2.805786e-12
5.81208e-12
-3.789528e-13
3.123522e-13
2.021109e-13
8.865334e-13
8.195464e-13
1.421873e-12
1.614451e-12
1.853126e-12
2.626501e-12
2.203593e-12
3.812365e-12
2.373002e-12
2.467569e-12
5.161266e-12
-4.825636e-13
2.754343e-13
-2.699559e-15
7.773103e-13
5.161062e-13
1.248972e-12
1.218238e-12
1.630664e-12
2.146225e-12
1.942821e-12
3.254508e-12
2.088788e-12
2.171123e-12
4.543195e-12
-5.829932e-13
2.428389e-13
-2.012597e-13
6.817915e-13
2.221256e-13
1.098669e-12
8.343846e-13
1.438772e-12
1.677657e-12
1.71951e-12
2.714573e-12
1.846114e-12
1.918355e-12
3.945536e-12
-6.826454e-13
2.147408e-13
-3.983634e-13
6.003043e-13
-6.978881e-14
9.707951e-13
4.523235e-13
1.276144e-12
1.213497e-12
1.529482e-12
2.180575e-12
1.644598e-12
1.709526e-12
3.354925e-12
-7.844438e-13
1.913807e-13
-6.000075e-13
5.342109e-13
-3.698073e-13
8.7041e-13
4.326247e-14
1.177379e-12
7.395513e-13
1.36137e-12
1.638444e-12
1.48646e-12
1.546046e-12
2.756911e-12
-8.924176e-13
1.733016e-13
-8.138053e-13
4.854266e-13
-6.847528e-13
7.983257e-13
-3.385186e-13
1.096019e-12
2.442388e-13
1.263003e-12
1.071887e-12
1.37781e-12
1.429678e-12
2.135766e-12
-1.011701e-12
1.61563e-13
-1.050038e-12
4.571778e-13
-1.032482e-12
7.589972e-13
-7.873339e-13
1.052882e-12
-2.941053e-13
1.210626e-12
4.630601e-13
1.318996e-12
1.362974e-12
1.473902e-12
-1.149673e-12
1.581745e-13
-1.322406e-12
4.55883e-13
-1.431127e-12
7.627496e-13
-1.299818e-12
1.065976e-12
-8.986408e-13
1.218189e-12
-2.113335e-13
1.318934e-12
1.350822e-12
7.508677e-13
-1.316489e-12
1.667683e-13
-1.651082e-12
4.922521e-13
-1.908193e-12
8.251256e-13
-1.904815e-12
1.152467e-12
-1.600414e-12
1.299718e-12
-9.797483e-13
1.387839e-12
1.399101e-12
-5.751224e-14
-1.528838e-12
1.937514e-13
-2.066842e-12
5.85e-13
-2.50386e-12
9.71847e-13
-2.645944e-12
1.338609e-12
-2.441009e-12
1.475195e-12
-1.878108e-12
1.538593e-12
1.513829e-12
-9.796464e-13
-1.813078e-12
2.512598e-13
-2.617665e-12
7.687387e-13
-3.278633e-12
1.246561e-12
-3.585676e-12
1.664384e-12
-3.476525e-12
1.771747e-12
-2.951405e-12
1.785571e-12
1.699229e-12
-2.048168e-12
-2.213582e-12
3.651247e-13
-3.382164e-12
1.109002e-12
-4.330771e-12
1.725131e-12
-4.814755e-12
2.181725e-12
-4.781901e-12
2.221618e-12
-4.254703e-12
2.140754e-12
1.953174e-12
-3.294281e-12
-2.809389e-12
5.962014e-13
-4.498266e-12
1.741412e-12
-5.88522e-12
2.617488e-12
-6.472096e-12
2.897468e-12
-6.45584e-12
2.851454e-12
-5.84571e-12
2.60473e-12
2.075793e-12
-4.595283e-12
-3.753573e-12
1.104472e-12
-6.195994e-12
2.933145e-12
-7.962229e-12
3.999995e-12
-8.729076e-12
4.039935e-12
-8.61097e-12
3.68537e-12
-7.529263e-12
2.856164e-12
2.325026e-12
-6.167298e-12
-5.365009e-12
2.363982e-12
-8.924907e-12
5.258143e-12
-1.114131e-11
6.228315e-12
-1.183411e-11
5.611885e-12
-1.09933e-11
4.232701e-12
-9.701818e-12
3.289661e-12
2.507092e-12
-7.936574e-12
-8.37062e-12
5.930427e-12
-1.353452e-11
9.904281e-12
-1.594336e-11
9.650785e-12
-1.553669e-11
6.883029e-12
-1.421195e-11
4.974309e-12
-1.219266e-11
3.538271e-12
2.513586e-12
-9.851383e-12
-1.456489e-11
1.964909e-11
-2.161025e-11
1.963453e-11
-2.238985e-11
1.319812e-11
-2.073583e-11
8.173411e-12
-1.796144e-11
5.184144e-12
-1.487415e-11
3.352232e-12
2.213507e-12
-1.178041e-11
-3.151536e-11
6.319909e-11
-3.589119e-11
3.580685e-11
-3.197341e-11
1.55967e-11
-2.686234e-11
7.568531e-12
-2.18865e-11
4.189667e-12
-1.743433e-11
2.45852e-12
1.504799e-12
-1.349866e-11
-8.923725e-11
-6.4351e-11
-4.401609e-11
-3.270285e-11
-2.515004e-11
-1.936424e-11
-1.470395e-11
-1.114389e-11
-5.743108e-13
-7.89791e-12
-4.34315e-13
-2.722227e-12
-3.321694e-13
-2.728305e-12
-2.270952e-12
-6.405916e-14
1.939439e-12
-1.708335e-12
-6.709831e-14
1.576716e-12
-1.529238e-12
-5.959803e-14
1.563137e-12
-1.78134e-12
-6.275987e-14
-1.092869e-11
-1.323115e-12
-7.757202e-12
-9.619977e-13
-2.691195e-12
-7.159026e-13
-2.650375e-12
1.39143e-13
-2.252351e-12
-2.028e-13
1.339522e-13
1.919247e-12
-1.68299e-12
-2.01975e-13
1.088087e-13
1.548678e-12
-1.498672e-12
-1.569347e-13
1.07752e-13
1.52858e-12
-1.74058e-12
-1.499972e-13
-1.014851e-11
-1.871814e-12
-7.21732e-12
-1.381382e-12
-4.995634e-12
-1.046253e-12
-1.782751e-12
-4.455105e-13
2.885926e-13
2.678916e-13
-1.712424e-12
-3.63465e-13
2.642934e-13
-1.554769e-12
-3.17997e-13
2.028675e-13
1.418921e-12
-1.366851e-12
-2.460108e-13
1.906836e-13
1.39196e-12
-1.593796e-12
-2.298628e-13
-8.948182e-12
-2.17768e-12
-6.330848e-12
-1.655275e-12
-2.183125e-12
-1.278426e-12
-2.066838e-12
-1.821074e-12
-5.051904e-13
3.658852e-13
1.527346e-12
-1.311152e-12
-4.126324e-13
2.864224e-13
1.188436e-12
-1.140506e-12
-3.244485e-13
2.671173e-13
1.163338e-12
-1.357044e-12
-3.024176e-13
-7.51811e-12
-2.274198e-12
-5.242468e-12
-1.79208e-12
-1.770444e-12
-1.418028e-12
-1.627418e-12
5.3673e-13
-1.452902e-12
-5.71143e-13
4.591839e-13
1.18356e-12
-9.865839e-13
-4.992617e-13
3.601179e-13
8.782682e-13
-8.36415e-13
-3.929889e-13
3.357208e-13
8.586088e-13
-1.047468e-12
-3.66942e-13
-6.018022e-12
-2.227691e-12
-4.057003e-12
-1.826499e-12
-1.295459e-12
-1.49214e-12
-1.138747e-12
6.00623e-13
-1.021269e-12
-6.249083e-13
5.326964e-13
-6.063473e-13
-5.599969e-13
7.820372e-13
4.228282e-13
5.112063e-13
-4.747902e-13
-4.497679e-13
3.958118e-13
4.96436e-13
-6.81263e-13
-4.223401e-13
-4.558344e-12
-2.106209e-12
-2.854858e-12
-1.797092e-12
-7.920258e-13
-1.519015e-12
-6.306199e-13
-5.516865e-13
-6.620372e-13
6.443599e-13
5.817227e-13
2.913796e-13
-1.867148e-13
-5.60892e-13
4.741336e-13
1.045651e-13
-7.28057e-14
-4.960032e-13
4.467545e-13
9.389226e-14
-2.752927e-13
-4.692574e-13
-3.198142e-12
-2.040928e-12
-1.691901e-12
-1.739257e-12
-2.849131e-13
-1.519977e-12
-1.242707e-13
6.721436e-13
-7.784955e-14
-6.80075e-13
5.736717e-13
2.496679e-13
-5.888044e-13
-1.235569e-13
5.158134e-13
-3.251443e-13
3.539731e-13
-5.342979e-13
4.901934e-13
-3.34359e-13
1.562254e-13
-5.100488e-13
-1.980406e-12
-1.863569e-12
-5.96204e-13
-1.676242e-12
2.096773e-13
-1.515621e-12
3.653096e-13
3.961831e-13
-6.920098e-13
6.863982e-13
6.027737e-13
-5.798458e-13
6.9478e-13
-6.160519e-13
5.521287e-13
-7.646845e-13
7.926799e-13
-5.697711e-13
5.295226e-13
-7.760226e-13
6.016814e-13
-5.492399e-13
-8.060376e-13
-1.725874e-12
4.762683e-13
-1.597071e-12
6.828213e-13
-1.446267e-12
8.309791e-13
6.977269e-13
8.555685e-13
-7.04115e-13
6.29225e-13
-1.027673e-12
1.135922e-12
-6.42845e-13
5.876223e-13
-1.203685e-12
1.233527e-12
-6.059131e-13
5.69601e-13
-1.221962e-12
1.053028e-12
-5.907732e-13
2.337635e-13
-1.636915e-12
1.469391e-12
-1.54963e-12
1.181067e-12
-1.436545e-12
1.333898e-12
7.117292e-13
1.294781e-12
-6.689341e-13
6.572649e-13
-1.460452e-12
1.566004e-12
-6.728383e-13
6.248187e-13
-1.634457e-12
1.668529e-12
-6.444554e-13
6.127704e-13
-1.664129e-12
1.502226e-12
-6.33945e-13
1.155259e-12
-1.598438e-12
2.377068e-12
-1.539956e-12
1.628961e-12
-1.453993e-12
1.774433e-12
6.727833e-13
1.787277e-12
-6.796072e-13
6.89898e-13
-1.947943e-12
1.979916e-12
-6.333435e-13
6.650169e-13
-2.052445e-12
2.09239e-12
-6.870826e-13
6.547255e-13
-2.096102e-12
1.942943e-12
-6.775047e-13
1.980276e-12
-1.608961e-12
3.208038e-12
-1.570117e-12
2.048205e-12
-1.503389e-12
2.185866e-12
6.893493e-13
2.208476e-12
-7.028779e-13
6.473173e-13
-2.369297e-12
2.473243e-12
-6.644376e-13
7.112521e-13
-2.544778e-12
2.500523e-12
-6.462245e-13
7.028599e-13
-2.513533e-12
2.368368e-12
-7.311442e-13
2.729865e-12
-1.665756e-12
3.976051e-12
-1.640492e-12
2.441215e-12
-1.586995e-12
2.572083e-12
7.197155e-13
2.605552e-12
-7.407513e-13
6.843914e-13
-2.769554e-12
2.877271e-12
-7.079596e-13
6.689514e-13
-2.95343e-12
3.001743e-12
-6.950675e-13
7.623603e-13
-3.016029e-12
2.770175e-12
-6.931715e-13
3.423719e-12
-1.766427e-12
4.695618e-12
-1.750563e-12
2.812542e-12
-1.706462e-12
2.938324e-12
7.655333e-13
2.981743e-12
-7.947739e-13
7.347986e-13
-3.149731e-12
3.261269e-12
-7.657985e-13
7.242879e-13
-3.341922e-12
3.395272e-12
-7.57078e-13
7.251102e-13
-3.412545e-12
3.266581e-12
-7.59526e-13
4.079705e-12
-1.908662e-12
5.381493e-12
-1.900132e-12
3.167708e-12
-1.862639e-12
3.290405e-12
8.279574e-13
3.342012e-12
-8.661064e-13
8.005911e-13
-3.514111e-12
3.62881e-12
-8.39827e-13
7.931775e-13
-3.712941e-12
3.769528e-12
-8.333973e-13
7.964341e-13
-3.788188e-12
3.638442e-12
-8.373256e-13
4.714876e-12
-2.090881e-12
6.048571e-12
-2.089255e-12
3.513353e-12
-2.058261e-12
3.635758e-12
9.080949e-13
3.692337e-12
-9.544755e-13
8.835558e-13
-3.86904e-12
3.986548e-12
-9.269095e-13
8.774033e-13
-4.073246e-12
4.132519e-12
-9.259528e-13
8.821313e-13
-4.152135e-12
3.99945e-12
-9.314045e-13
5.344762e-12
-2.311637e-12
6.712035e-12
-2.318311e-12
3.857149e-12
-2.294517e-12
3.980881e-12
1.010969e-12
4.041909e-12
-1.070278e-12
9.038789e-13
-4.211173e-12
4.341364e-12
-9.593052e-13
9.791363e-13
-4.429734e-12
4.491602e-12
-1.038206e-12
9.851101e-13
-4.511717e-12
4.354786e-12
-1.044439e-12
5.984684e-12
-2.569564e-12
7.386737e-12
-2.586962e-12
4.205118e-12
-2.572172e-12
4.333331e-12
1.132851e-12
4.393309e-12
-1.201236e-12
1.021339e-12
-4.560107e-12
4.699525e-12
-1.089687e-12
1.10229e-12
-4.790201e-12
4.854227e-12
-1.171966e-12
1.108604e-12
-4.874901e-12
4.713443e-12
-1.178698e-12
6.648434e-12
-2.863812e-12
8.08803e-12
-2.894966e-12
4.566254e-12
-2.892807e-12
4.70168e-12
1.274657e-12
4.757551e-12
-1.35451e-12
1.164608e-12
-4.92758e-12
5.06979e-12
-1.246492e-12
1.247348e-12
-5.162555e-12
5.228792e-12
-1.329252e-12
1.254364e-12
-5.249521e-12
5.083036e-12
-1.336745e-12
7.348523e-12
-3.191184e-12
8.830287e-12
-3.240153e-12
4.948717e-12
-3.255446e-12
5.094451e-12
1.439749e-12
5.143352e-12
-1.531912e-12
1.33563e-12
-5.316001e-12
5.460975e-12
-1.432596e-12
1.417467e-12
-5.555438e-12
5.623696e-12
-1.513045e-12
1.425495e-12
-5.644209e-12
5.471132e-12
-1.521756e-12
8.094883e-12
-3.544888e-12
9.624718e-12
-3.616772e-12
5.36035e-12
-3.653302e-12
5.519066e-12
1.629386e-12
5.559571e-12
-1.733214e-12
1.53716e-12
-5.735594e-12
5.882917e-12
-1.650501e-12
1.615272e-12
-5.978416e-12
6.047856e-12
-1.725261e-12
1.62491e-12
-6.067714e-12
5.88814e-12
-1.735455e-12
8.891652e-12
-3.912697e-12
1.047366e-11
-4.017439e-12
5.804484e-12
-4.087579e-12
5.976371e-12
1.839918e-12
6.011905e-12
-1.94163e-12
1.771922e-12
-6.193347e-12
6.342119e-12
-1.897624e-12
1.842098e-12
-6.440091e-12
6.510171e-12
-1.965555e-12
1.853094e-12
-6.528377e-12
6.341825e-12
-1.978319e-12
9.74105e-12
-4.286822e-12
1.137725e-11
-4.430125e-12
1.269689e-11
-4.554419e-12
6.721439e-12
-2.341004e-12
2.095444e-12
2.057095e-12
6.908424e-12
-2.324327e-12
2.050414e-12
6.868774e-12
-2.21399e-12
2.096237e-12
-6.944617e-12
7.015433e-12
-2.23462e-12
2.109653e-12
-7.032314e-12
6.838277e-12
-2.248483e-12
1.064685e-11
-4.646808e-12
1.236683e-11
-4.831797e-12
6.801451e-12
-5.015181e-12
7.000214e-12
7.027475e-12
-2.469919e-12
2.348502e-12
-7.228428e-12
7.375235e-12
-2.486205e-12
2.376726e-12
-7.495234e-12
7.567048e-12
-2.523714e-12
2.392352e-12
-7.583545e-12
7.381205e-12
-2.541459e-12
1.160137e-11
-4.967342e-12
1.340775e-11
-5.19965e-12
7.354395e-12
-5.442796e-12
7.569119e-12
2.584895e-12
7.594778e-12
-2.708302e-12
2.630411e-12
-7.808684e-12
7.966174e-12
-2.775914e-12
2.67528e-12
-8.096271e-12
8.172763e-12
-2.831448e-12
2.693813e-12
-8.185523e-12
7.966488e-12
-2.850819e-12
1.260974e-11
-5.216257e-12
1.451923e-11
-5.524513e-12
7.949357e-12
-5.835464e-12
8.18297e-12
2.829613e-12
8.208638e-12
-2.949376e-12
2.919334e-12
-8.442757e-12
8.617415e-12
-3.061357e-12
2.989983e-12
-8.759466e-12
8.849592e-12
-3.152209e-12
3.012931e-12
-8.861364e-12
8.600238e-12
-3.179203e-12
1.370047e-11
-5.302824e-12
1.57386e-11
-2.89811e-12
-2.937836e-12
8.597715e-12
-3.074712e-12
8.851502e-12
-3.118271e-12
3.061222e-12
8.87646e-12
-3.166026e-12
3.201887e-12
-9.136759e-12
9.340862e-12
-3.337875e-12
3.29767e-12
-9.519459e-12
9.606359e-12
-3.42851e-12
3.346354e-12
-9.624475e-12