/*--------------------------------*- C++ -*----------------------------------*\
| =========                 |                                                 |
| \\      /  F ield         | OpenFOAM: The Open Source CFD Toolbox           |
|  \\    /   O peration     | Version:  2206                                  |
|   \\  /    A nd           | Website:  www.openfoam.com                      |
|    \\/     M anipulation  |                                                 |
\*---------------------------------------------------------------------------*/
FoamFile
{
    version     2.0;
    format      ascii;
    arch        "LSB;label=32;scalar=64";
    class       volVectorField;
    location    "1.6";
    object      U;
}
// * * * * * * * * * * * * * * * * * * * * * * * * * * * * * * * * * * * * * //

dimensions      [0 1 -1 0 0 0 0];

internalField   nonuniform List<vector> 
13078
(
(-1.944574e-07 -1.792438e-05 -1.954854e-27)
(-5.615814e-07 -1.594407e-05 9.489891e-31)
(-6.79399e-07 -5.457002e-06 1.032559e-27)
(-7.89654e-07 -5.259153e-06 0)
(-8.724748e-07 -5.800846e-06 1.52425e-28)
(-9.604632e-07 -5.741576e-06 7.793371e-29)
(-1.056163e-06 -5.704851e-06 2.193591e-29)
(-1.688523e-05 -2.41215e-05 0)
(-6.029326e-06 -8.501274e-06 -9.744942e-30)
(-1.919424e-06 -4.492751e-06 0)
(-1.405045e-06 -5.065661e-06 0)
(-1.187229e-06 -5.480184e-06 -1.859918e-31)
(-1.110053e-06 -5.583767e-06 1.047297e-31)
(-1.116567e-06 -5.644804e-06 4.494832e-31)
(9.881162e-06 -4.00281e-06 1.122392e-27)
(2.225703e-06 -3.382547e-06 -6.468026e-28)
(-3.84066e-07 -3.74378e-06 -2.533834e-28)
(-8.956202e-07 -4.327155e-06 -3.722919e-28)
(-9.750905e-07 -4.785388e-06 -1.180942e-28)
(-9.948281e-07 -5.118269e-06 0)
(-1.029792e-06 -5.354129e-06 6.639668e-35)
(9.14232e-06 -6.315821e-07 6.376969e-28)
(3.843663e-06 -1.257871e-06 -9.196856e-28)
(1.239252e-06 -2.398292e-06 -6.0304e-28)
(8.555868e-08 -3.277573e-06 -1.833739e-28)
(-3.668038e-07 -3.980633e-06 2.930129e-30)
(-5.994923e-07 -4.531909e-06 0)
(-7.524215e-07 -4.952805e-06 2.769e-31)
(7.573049e-06 -7.977614e-08 1.229288e-30)
(4.60932e-06 -3.777742e-07 -3.641828e-28)
(2.494434e-06 -1.40026e-06 -5.510274e-28)
(1.202205e-06 -2.407247e-06 -3.735703e-28)
(4.321542e-07 -3.269072e-06 1.963748e-28)
(2.609183e-09 -3.990504e-06 -3.868705e-33)
(-3.049603e-07 -4.561145e-06 1.061146e-29)
(7.036241e-06 -1.862069e-08 0)
(5.189164e-06 -1.602668e-07 -3.63458e-30)
(3.5038e-06 -9.674516e-07 4.243959e-30)
(2.238504e-06 -1.900933e-06 -2.089048e-28)
(1.35423e-06 -2.803867e-06 -4.45676e-30)
(7.151387e-07 -3.591544e-06 6.909632e-30)
(2.676342e-07 -4.26881e-06 -5.5541e-29)
(6.828627e-06 -8.794251e-08 0)
(5.638333e-06 -2.346528e-07 -3.297847e-28)
(4.337814e-06 -9.013518e-07 -2.418233e-28)
(3.191136e-06 -1.718979e-06 3.152765e-29)
(2.257156e-06 -2.591981e-06 -1.800422e-28)
(1.521637e-06 -3.407658e-06 1.836715e-30)
(9.076888e-07 -4.115396e-06 0)
(6.878098e-06 -1.803926e-07 7.123286e-28)
(6.071921e-06 -4.117226e-07 -3.343437e-28)
(5.062697e-06 -1.02458e-06 -2.973941e-28)
(4.051268e-06 -1.786336e-06 0)
(3.126737e-06 -2.612303e-06 -4.142922e-28)
(2.329125e-06 -3.414944e-06 4.427562e-30)
(1.625562e-06 -4.149782e-06 7.842029e-30)
(7.14495e-06 -2.706767e-07 2.566593e-32)
(6.562353e-06 -6.198959e-07 6.987767e-28)
(5.754884e-06 -1.257136e-06 3.197536e-28)
(4.861509e-06 -2.000828e-06 1.943825e-30)
(3.969241e-06 -2.803574e-06 -9.477042e-28)
(3.137684e-06 -3.598316e-06 7.053205e-30)
(2.356667e-06 -4.342202e-06 0)
(7.603079e-06 -3.555752e-07 -7.74781e-28)
(7.148431e-06 -8.381833e-07 7.466654e-28)
(6.471994e-06 -1.54398e-06 3.473483e-28)
(5.668548e-06 -2.312604e-06 -6.23121e-28)
(4.80648e-06 -3.124159e-06 -1.946389e-31)
(3.952958e-06 -3.927509e-06 0)
(3.10913e-06 -4.6873e-06 0)
(8.237362e-06 -4.37784e-07 0)
(7.853418e-06 -1.06152e-06 0)
(7.256776e-06 -1.864003e-06 7.636325e-28)
(6.510704e-06 -2.693767e-06 -6.954947e-28)
(5.666266e-06 -3.545262e-06 2.737471e-31)
(4.790934e-06 -4.379257e-06 0)
(3.890273e-06 -5.168485e-06 0)
(9.042086e-06 -5.193446e-07 0)
(8.693628e-06 -1.291604e-06 -8.917419e-28)
(8.138275e-06 -2.21169e-06 8.464799e-28)
(7.420282e-06 -3.130877e-06 7.694419e-28)
(6.576411e-06 -4.050322e-06 -7.137114e-28)
(5.671847e-06 -4.938031e-06 0)
(4.713004e-06 -5.773467e-06 5.527188e-28)
(1.001876e-05 -6.027419e-07 0)
(9.681949e-06 -1.532535e-06 -9.940044e-28)
(9.13965e-06 -2.587771e-06 -7.803744e-30)
(8.424229e-06 -3.619558e-06 8.741755e-28)
(7.563319e-06 -4.631939e-06 -7.954379e-28)
(6.616868e-06 -5.596018e-06 7.023823e-28)
(5.592762e-06 -6.495487e-06 5.963967e-31)
(1.117388e-05 -6.90316e-07 -1.130146e-27)
(1.083188e-05 -1.789005e-06 0)
(1.028104e-05 -2.996038e-06 -9.476426e-30)
(9.544023e-06 -4.16051e-06 -1.331811e-29)
(8.653316e-06 -5.287634e-06 -1.803982e-27)
(7.646748e-06 -6.351825e-06 8.033636e-28)
(6.546375e-06 -7.333549e-06 -6.923087e-28)
(1.251837e-05 -7.839719e-07 -1.265671e-27)
(1.215906e-05 -2.06592e-06 0)
(1.158464e-05 -3.44452e-06 -2.23888e-29)
(1.080679e-05 -4.769923e-06 1.321889e-27)
(9.889737e-06 -6.007965e-06 -7.128937e-28)
(8.786537e-06 -7.205069e-06 0)
(7.592879e-06 -8.291016e-06 7.950464e-28)
(1.406659e-05 -8.850478e-07 0)
(1.367965e-05 -2.365621e-06 -1.390318e-27)
(1.306782e-05 -3.928615e-06 0)
(1.225115e-05 -5.412176e-06 1.296726e-27)
(1.124768e-05 -6.835203e-06 4.653608e-29)
(1.005293e-05 -8.1693e-06 5.696615e-29)
(8.751943e-06 -9.377679e-06 9.790301e-28)
(1.583635e-05 -9.953049e-07 0)
(1.541321e-05 -2.694186e-06 -3.131143e-27)
(1.475083e-05 -4.465214e-06 -1.504629e-29)
(1.387048e-05 -6.142742e-06 -2.086007e-29)
(1.277814e-05 -7.750337e-06 0)
(1.147312e-05 -9.250167e-06 0)
(1.004578e-05 -1.060424e-05 0)
(1.784868e-05 -1.116114e-06 -1.80118e-27)
(1.738188e-05 -3.054849e-06 -1.770048e-27)
(1.665835e-05 -5.056187e-06 -3.441283e-29)
(1.569821e-05 -6.952219e-06 -2.380243e-29)
(1.450293e-05 -8.766188e-06 0)
(1.307293e-05 -1.045806e-05 -1.419557e-27)
(1.149838e-05 -1.198346e-05 -1.724703e-28)
(2.012729e-05 -1.248566e-06 -2.03106e-27)
(1.961008e-05 -3.451118e-06 -1.995443e-27)
(1.881592e-05 -5.707392e-06 -5.858931e-29)
(1.776282e-05 -7.847617e-06 -5.402945e-29)
(1.644428e-05 -9.892064e-06 0)
(1.488661e-05 -1.180051e-05 -1.530804e-27)
(1.313587e-05 -1.352993e-05 -9.731002e-29)
(2.269825e-05 -1.39378e-06 -2.292045e-27)
(2.212459e-05 -3.886156e-06 -4.487896e-27)
(2.125247e-05 -6.425022e-06 -2.165599e-27)
(2.009981e-05 -8.844445e-06 0)
(1.864049e-05 -1.117226e-05 5.938649e-28)
(1.698633e-05 -1.326509e-05 9.110038e-28)
(1.499391e-05 -1.525326e-05 2.186965e-28)
(2.558944e-05 -1.552273e-06 -2.586519e-27)
(2.495358e-05 -4.361497e-06 -5.051932e-27)
(2.399569e-05 -7.20853e-06 -4.862972e-27)
(2.273559e-05 -9.921254e-06 -2.255755e-27)
(2.117152e-05 -1.250352e-05 8.733138e-29)
(1.930435e-05 -1.493992e-05 -1.941699e-27)
(1.70971e-05 -1.718015e-05 1.628093e-27)
(2.883061e-05 -1.725117e-06 0)
(2.812757e-05 -4.880612e-06 -2.833666e-27)
(2.707778e-05 -8.068239e-06 -2.72846e-27)
(2.569847e-05 -1.11164e-05 -5.250325e-27)
(2.399118e-05 -1.402184e-05 0)
(2.192989e-05 -1.678051e-05 -2.204639e-27)
(1.949179e-05 -1.932284e-05 2.958551e-30)
(3.245266e-05 -1.91244e-06 3.274907e-27)
(3.167908e-05 -5.444368e-06 0)
(3.053451e-05 -9.004602e-06 0)
(2.903157e-05 -1.242258e-05 8.394039e-29)
(2.716588e-05 -1.569125e-05 2.884575e-27)
(2.489109e-05 -1.880303e-05 0)
(2.223443e-05 -2.168764e-05 -2.270253e-27)
(3.648677e-05 -2.114021e-06 7.362762e-27)
(3.564103e-05 -6.052207e-06 0)
(3.440219e-05 -1.00178e-05 0)
(3.27774e-05 -1.384475e-05 3.244725e-27)
(3.075918e-05 -1.75361e-05 6.155318e-27)
(2.825818e-05 -2.110418e-05 -2.878717e-27)
(2.545508e-05 -2.425599e-05 0)
(4.096293e-05 -2.328973e-06 4.132233e-27)
(4.004547e-05 -6.701534e-06 2.32667e-29)
(3.871616e-05 -1.11032e-05 3.965651e-27)
(3.697351e-05 -1.536976e-05 1.065454e-28)
(3.481095e-05 -1.949218e-05 1.394581e-28)
(3.217768e-05 -2.344022e-05 -3.274681e-27)
(2.903025e-05 -2.717876e-05 0)
(4.590862e-05 -2.555623e-06 0)
(4.492325e-05 -7.388292e-06 -4.539182e-27)
(4.351256e-05 -1.22575e-05 4.410972e-27)
(4.166367e-05 -1.700647e-05 0)
(3.936103e-05 -2.163065e-05 -3.702331e-27)
(3.654993e-05 -2.609228e-05 7.315797e-28)
(3.31265e-05 -3.03831e-05 4.292146e-28)
(5.13464e-05 -2.7909e-06 -5.175054e-27)
(5.03022e-05 -8.104249e-06 -5.080794e-27)
(4.882626e-05 -1.346802e-05 4.939899e-27)
(4.689517e-05 -1.873473e-05 0)
(4.448053e-05 -2.390671e-05 -3.323781e-28)
(4.150637e-05 -2.894701e-05 -5.78224e-31)
(3.782472e-05 -3.385776e-05 4.766183e-28)
(5.728969e-05 -3.03031e-06 -5.773332e-27)
(5.620672e-05 -8.834102e-06 -5.669216e-27)
(5.468615e-05 -1.471507e-05 5.528749e-27)
(5.270845e-05 -2.05305e-05 0)
(5.022679e-05 -2.629769e-05 0)
(4.715207e-05 -3.200996e-05 -4.758575e-27)
(4.326118e-05 -3.773315e-05 3.383055e-28)
(6.374189e-05 -3.262291e-06 -6.431163e-27)
(6.264903e-05 -9.560717e-06 -6.349924e-27)
(6.111194e-05 -1.597265e-05 0)
(5.913576e-05 -2.235674e-05 5.657808e-27)
(5.663855e-05 -2.874292e-05 -3.987821e-28)
(5.351096e-05 -3.508483e-05 -1.028151e-26)
(4.956491e-05 -4.127313e-05 1.722936e-27)
(7.067994e-05 -3.501097e-06 -7.118217e-27)
(6.966513e-05 -1.022233e-05 0)
(6.812483e-05 -1.719265e-05 -6.979854e-27)
(6.621065e-05 -2.417681e-05 6.506166e-27)
(6.378017e-05 -3.124919e-05 -6.408844e-27)
(6.067226e-05 -3.840729e-05 -1.216296e-26)
(5.662719e-05 -4.559451e-05 -5.646878e-27)
(7.816029e-05 -3.675047e-06 0)
(7.711486e-05 -1.088063e-05 0)
(7.571841e-05 -1.833176e-05 -1.524057e-26)
(7.395401e-05 -2.591646e-05 0)
(7.171662e-05 -3.369925e-05 -1.438346e-26)
(6.880897e-05 -4.173571e-05 -6.876401e-27)
(6.491583e-05 -5.005225e-05 6.444408e-27)
(8.605552e-05 -3.869654e-06 -8.69457e-27)
(8.498537e-05 -1.149633e-05 8.486163e-27)
(8.391499e-05 -1.922877e-05 8.354723e-27)
(8.239946e-05 -2.743109e-05 0)
(8.046191e-05 -3.595338e-05 -8.056911e-27)
(7.796188e-05 -4.487319e-05 0)
(7.446972e-05 -5.424559e-05 5.882108e-27)
(9.431274e-05 -3.996875e-06 -9.503148e-27)
(9.338758e-05 -1.185026e-05 9.416879e-27)
(9.236431e-05 -2.009357e-05 2.781229e-26)
(9.159319e-05 -2.851901e-05 1.857051e-26)
(9.002857e-05 -3.783784e-05 -8.471582e-27)
(8.818126e-05 -4.770738e-05 6.492998e-28)
(8.535413e-05 -5.834449e-05 -7.945056e-28)
(0.0001028029 -4.073908e-06 1.303022e-29)
(0.0001019772 -1.205689e-05 4.050627e-29)
(0.0001013588 -2.037465e-05 1.050061e-26)
(0.0001009818 -2.930319e-05 1.971733e-26)
(0.0001003757 -3.913272e-05 -1.108073e-26)
(9.951066e-05 -4.995459e-05 1.347068e-27)
(9.779929e-05 -6.195294e-05 3.353866e-27)
(0.0001114002 -4.086161e-06 -1.27565e-29)
(0.0001106352 -1.208052e-05 -3.987593e-29)
(0.0001104167 -2.044562e-05 1.091387e-26)
(0.0001105326 -2.955993e-05 8.108571e-27)
(0.0001115058 -3.935582e-05 -4.752782e-27)
(0.0001120022 -5.112685e-05 9.746935e-27)
(0.000111867 -6.454429e-05 0)
(0.0001199363 -4.011914e-06 0)
(0.0001191648 -1.180745e-05 0)
(0.0001193673 -1.989608e-05 1.214137e-26)
(0.000120455 -2.866352e-05 1.294694e-26)
(0.0001222341 -3.882015e-05 1.671792e-26)
(0.0001256409 -5.055194e-05 1.717861e-26)
(0.0001275289 -6.545292e-05 0)
(0.0001282276 -3.857514e-06 -2.195683e-29)
(0.0001273151 -1.125847e-05 6.527491e-29)
(0.0001278244 -1.881343e-05 2.317515e-28)
(0.0001298021 -2.69187e-05 0)
(0.0001332594 -3.628671e-05 2.718692e-26)
(0.0001387247 -4.82243e-05 -1.209308e-27)
(0.0001445563 -6.37707e-05 -3.265853e-27)
(0.000136114 -3.64113e-06 -1.375435e-26)
(0.0001348477 -1.047656e-05 5.99813e-29)
(0.0001354435 -1.722239e-05 -1.399621e-26)
(0.0001381273 -2.430269e-05 0)
(0.0001431761 -3.25848e-05 1.557538e-26)
(0.0001507126 -4.344317e-05 1.002996e-26)
(0.0001626361 -5.818523e-05 -1.226911e-26)
(0.0001435062 -3.413015e-06 -1.455028e-26)
(0.0001415897 -9.599066e-06 -1.456948e-26)
(0.000141862 -1.53102e-05 -1.486659e-26)
(0.0001448382 -2.086149e-05 -4.158474e-28)
(0.0001512207 -2.710169e-05 -1.126113e-27)
(0.0001617718 -3.527478e-05 1.469415e-26)
(0.0001782801 -4.837743e-05 -4.330778e-27)
(0.0001505328 -3.313798e-06 0)
(0.0001475407 -8.927767e-06 1.528713e-26)
(0.0001468746 -1.358159e-05 1.564795e-26)
(0.0001495086 -1.72569e-05 1.298141e-28)
(0.0001568227 -2.067362e-05 -1.734776e-26)
(0.000170427 -2.545957e-05 -3.973484e-28)
(0.0001921627 -3.476179e-05 0)
(0.0001577546 -3.483366e-06 1.614347e-26)
(0.0001529476 -9.210357e-06 3.227302e-26)
(0.0001510021 -1.27635e-05 1.639149e-26)
(0.0001530045 -1.435834e-05 3.41442e-26)
(0.0001624714 -1.414844e-05 -1.8481e-26)
(0.0001831185 -1.530447e-05 2.14539e-26)
(0.0002156078 -2.476127e-05 9.1909e-30)
(0.0001661753 -4.204895e-06 1.706759e-26)
(0.0001594656 -1.065863e-05 -1.396406e-29)
(0.0001563173 -1.364453e-05 0)
(0.0001607216 -1.290103e-05 8.196211e-29)
(0.0001752114 -1.238663e-05 4.582142e-26)
(0.0002007185 -2.458003e-05 5.946385e-26)
(0.0002304239 -6.541843e-05 -3.396234e-26)
(0.0001781155 -5.642265e-06 -1.840773e-26)
(0.000169568 -1.349881e-05 -3.237237e-29)
(0.000167465 -1.653579e-05 -2.188185e-28)
(0.0001735685 -1.992648e-05 -4.465704e-26)
(0.0001870304 -4.06969e-05 1.483704e-25)
(0.0002040584 -9.134316e-05 4.24758e-26)
(0.0002328935 -0.0001742851 -4.890001e-26)
(0.0001972617 -7.719806e-06 -2.082538e-26)
(0.0001860866 -1.780709e-05 0)
(0.0001818642 -2.724257e-05 -1.841741e-27)
(0.0001804075 -5.675394e-05 -3.789079e-27)
(0.0001874638 -0.0001106553 1.476252e-25)
(0.000214898 -0.0001854115 5.401171e-26)
(0.00023851 -0.0002959161 1.283216e-28)
(0.0002281272 -9.890346e-06 0)
(0.0002047848 -2.849241e-05 -2.012526e-27)
(0.0001888301 -5.815535e-05 -4.546462e-27)
(0.0001900094 -0.0001056226 5.131261e-26)
(0.0002053773 -0.0001755062 1.446756e-31)
(0.0002156409 -0.0002826562 3.442195e-27)
(0.0002253104 -0.0004185755 2.868701e-26)
(0.0002695695 -1.560604e-05 0)
(0.0002191697 -4.922701e-05 -4.017679e-26)
(0.0001988506 -8.949277e-05 -1.5668e-30)
(0.0002036585 -0.0001450079 6.055463e-26)
(0.0002078188 -0.0002392747 4.660727e-26)
(0.0002033208 -0.0003789797 -1.158572e-25)
(0.0001915909 -0.0005563472 3.015806e-26)
(0.0003124172 -2.77206e-05 -4.246709e-26)
(0.0002379658 -6.335606e-05 -4.442418e-26)
(0.0002121104 -0.0001075911 4.774244e-26)
(0.0002018671 -0.0001844971 -2.265437e-26)
(0.0001922396 -0.0003095044 8.865144e-26)
(0.0001736495 -0.0004800534 1.621239e-26)
(0.0001520272 -0.000688615 6.495515e-26)
(0.0003498497 -3.935884e-05 -4.946144e-26)
(0.0002524781 -6.912321e-05 -4.683975e-26)
(0.0002114438 -0.0001264632 6.090569e-26)
(0.0001886602 -0.0002298581 -1.220014e-26)
(0.0001634907 -0.0003884902 -4.452307e-29)
(0.0001343002 -0.0005862756 1.867245e-30)
(0.0001013572 -0.0008213417 6.189572e-26)
(0.0003764859 -4.336632e-05 -8.386706e-28)
(0.0002568575 -7.411642e-05 -1.22949e-25)
(0.0001974353 -0.0001525595 -6.695083e-26)
(0.0001628308 -0.0002814994 2.541954e-26)
(0.0001309915 -0.0004639006 2.14904e-26)
(9.21042e-05 -0.000690472 3.100882e-26)
(4.375548e-05 -0.0009562279 6.917779e-26)
(0.0003868571 -3.932741e-05 5.548169e-26)
(0.0002489372 -8.170701e-05 -6.38705e-26)
(0.0001722626 -0.0001835843 -8.288331e-26)
(0.0001287781 -0.0003346485 1.961151e-26)
(9.092999e-05 -0.0005391639 -2.106594e-26)
(4.571541e-05 -0.0007873914 5.450988e-26)
(-1.157373e-05 -0.001071367 9.937014e-26)
(0.0003757887 -2.93833e-05 4.734707e-26)
(0.0002310384 -8.794638e-05 -9.926189e-27)
(0.000142277 -0.0002142422 -1.081403e-25)
(9.012232e-05 -0.0003840704 -2.729888e-28)
(4.695407e-05 -0.0006082915 5.0012e-26)
(-3.218111e-06 -0.0008758512 4.673475e-26)
(-6.572522e-05 -0.001176707 8.343369e-26)
(0.0003366328 -2.236575e-05 1.738548e-29)
(0.0001996374 -9.279049e-05 2.688255e-30)
(0.0001071357 -0.0002361606 -6.386733e-26)
(4.643732e-05 -0.0004251206 5.730355e-26)
(-4.730648e-07 -0.0006659923 1.403144e-25)
(-5.279879e-05 -0.0009511118 8.851712e-26)
(-0.0001163121 -0.001267332 9.350925e-26)
(0.0002707506 -1.710842e-05 7.707666e-28)
(0.0001518391 -9.542161e-05 1.476067e-26)
(6.252202e-05 -0.000252334 -2.208579e-26)
(3.196752e-06 -0.0004546247 2.332775e-26)
(-4.317718e-05 -0.0007072161 -2.240124e-28)
(-9.27766e-05 -0.001006975 -2.16973e-26)
(-0.0001541316 -0.001349364 5.433705e-26)
(0.0001843867 -1.431834e-05 -6.968339e-30)
(9.026366e-05 -9.734283e-05 -3.30609e-31)
(1.265913e-05 -0.0002630572 -5.415828e-27)
(-3.968178e-05 -0.0004761882 -5.492063e-27)
(-8.028851e-05 -0.0007393948 9.269803e-27)
(-0.0001225727 -0.001050021 -1.599411e-26)
(-0.0001751141 -0.001404322 6.168933e-27)
(8.43841e-05 -1.292211e-05 1.400211e-30)
(1.869383e-05 -9.851446e-05 -2.928463e-27)
(-3.903978e-05 -0.0002687508 3.25063e-30)
(-8.01896e-05 -0.0004895468 1.051339e-26)
(-0.0001122479 -0.0007613399 -3.825686e-30)
(-0.0001441728 -0.001080132 -8.799397e-27)
(-0.0001822613 -0.00144331 1.547528e-27)
(-2.690747e-05 -1.203269e-05 6.176435e-28)
(-6.151188e-05 -9.897973e-05 1.445656e-27)
(-9.459894e-05 -0.0002710158 5.029063e-27)
(-0.0001207523 -0.0004958093 5.065889e-27)
(-0.0001417585 -0.000771813 7.409008e-27)
(-0.0001609122 -0.001094099 7.250663e-27)
(-0.0001798755 -0.001461014 4.143407e-27)
(-0.0001413487 -1.375817e-05 2.227994e-28)
(-0.0001438908 -0.0001019589 -7.145248e-27)
(-0.0001500908 -0.0002737362 4.50812e-28)
(-0.0001590964 -0.0004983584 4.979603e-27)
(-0.0001670924 -0.0007739892 1.452495e-26)
(-0.0001717644 -0.001095158 1.327083e-26)
(-0.0001704214 -0.001458845 -2.485928e-29)
(-0.0002444793 -1.720502e-05 1.335156e-26)
(-0.0002166812 -0.0001070568 -3.148145e-27)
(-0.0001980153 -0.0002773554 -3.441382e-27)
(-0.0001915775 -0.0004977843 -8.300806e-27)
(-0.0001879947 -0.0007680886 5.877329e-27)
(-0.0001796625 -0.001083319 3.894629e-27)
(-0.0001607017 -0.001437856 -1.173524e-26)
(-0.0003310437 -2.096658e-05 1.864692e-26)
(-0.0002756002 -0.000110995 -1.846659e-26)
(-0.0002372901 -0.0002769987 -1.319129e-26)
(-0.0002193532 -0.0004898095 -1.309904e-26)
(-0.0002071541 -0.0007510633 1.786837e-26)
(-0.0001889682 -0.001056332 -1.719606e-26)
(-0.0001565853 -0.00139893 -1.581947e-26)
(-0.0003984814 -2.610841e-05 -2.311115e-26)
(-0.0003189714 -0.0001135516 -1.902471e-26)
(-0.0002680339 -0.0002709297 5.135625e-27)
(-0.0002413785 -0.0004730529 -1.024677e-30)
(-0.0002216763 -0.0007232531 -1.55298e-26)
(-0.0001955625 -0.001016368 -2.098002e-26)
(-0.0001543142 -0.001345192 -2.05446e-26)
(-0.0004404992 -3.282841e-05 -2.642804e-26)
(-0.0003430457 -0.0001138466 -2.197174e-29)
(-0.0002849877 -0.0002587337 1.111399e-25)
(-0.000252143 -0.000446656 -4.367059e-26)
(-0.0002286272 -0.0006846181 -3.340659e-26)
(-0.0001992099 -0.0009624059 4.994575e-26)
(-0.0001576352 -0.001266123 4.262723e-26)
(-0.0004527099 -3.965598e-05 5.666681e-26)
(-0.0003471242 -0.0001101859 1.768768e-26)
(-0.0002890161 -0.0002386285 1.526072e-25)
(-0.0002595408 -0.0004094892 6.902159e-26)
(-0.0002371545 -0.0006313364 -5.823481e-26)
(-0.0002082492 -0.0008916075 4.767217e-26)
(-0.000166836 -0.001179286 5.340188e-26)
(-0.00043742 -4.576339e-05 5.716704e-26)
(-0.0003382642 -0.0001034186 5.227585e-26)
(-0.0002886777 -0.0002116405 5.041438e-29)
(-0.0002645155 -0.0003641449 1.343219e-25)
(-0.0002431105 -0.0005651544 -6.239732e-26)
(-0.000213694 -0.0008045189 -2.857629e-29)
(-0.0001718057 -0.00107345 -3.275929e-27)
(-0.000404136 -4.285844e-05 5.264024e-26)
(-0.0003206033 -9.421163e-05 1.737443e-28)
(-0.0002826675 -0.0001828793 -2.386078e-30)
(-0.0002617382 -0.0003132981 1.567608e-28)
(-0.0002401794 -0.0004898914 -8.040578e-26)
(-0.000209789 -0.0007046072 -1.038158e-26)
(-0.000169172 -0.0009517918 1.366795e-25)
(-0.0003595262 -3.178426e-05 -5.824505e-28)
(-0.0002933021 -8.35993e-05 -5.386167e-26)
(-0.0002659623 -0.0001554588 4.938453e-26)
(-0.0002504667 -0.0002612518 -8.963487e-26)
(-0.0002290776 -0.0004119762 -1.278059e-26)
(-0.0002019412 -0.0005947387 1.103365e-25)
(-0.0001712658 -0.0008083131 1.841427e-25)
(-0.0003098206 -1.947248e-05 -3.686829e-26)
(-0.000262289 -6.676501e-05 1.149086e-27)
(-0.0002404493 -0.0001286741 3.81572e-26)
(-0.0002300533 -0.0002117929 -1.591849e-26)
(-0.0002196362 -0.0003288936 -2.338895e-30)
(-0.0001981672 -0.0004828085 1.532629e-28)
(-0.0001716696 -0.0006657798 5.005327e-26)
(-0.0002606884 -1.386029e-05 0)
(-0.0002322782 -4.570404e-05 -3.451908e-31)
(-0.0002123427 -9.495164e-05 -1.913623e-29)
(-0.0002066765 -0.0001614278 -1.249289e-26)
(-0.0002024338 -0.0002522958 -5.697486e-26)
(-0.0001902687 -0.0003750024 -2.851747e-26)
(-0.0001678678 -0.0005236537 1.131728e-26)
(-0.0002192008 -1.198241e-05 0)
(-0.0002044096 -3.175396e-05 6.17222e-28)
(-0.0001934583 -5.710258e-05 1.934839e-27)
(-0.0001830686 -0.0001070302 -4.047923e-26)
(-0.0001781575 -0.0001779201 -4.811208e-26)
(-0.0001729222 -0.0002712361 -1.052403e-25)
(-0.0001667355 -0.0003813923 1.734243e-28)
(-0.000189196 -9.852132e-06 -1.966746e-26)
(-0.0001778246 -2.616027e-05 0)
(-0.0001722344 -3.835269e-05 0)
(-0.0001692395 -5.899747e-05 -3.071473e-26)
(-0.0001608011 -0.0001036122 -4.706789e-27)
(-0.0001594916 -0.0001677102 -1.262538e-25)
(-0.0001588209 -0.0002547429 1.018391e-26)
(-0.0001677309 -7.913128e-06 -1.728438e-26)
(-0.0001581694 -2.160183e-05 -1.283912e-28)
(-0.0001513881 -3.193702e-05 -1.478119e-28)
(-0.0001501668 -3.959291e-05 3.212699e-28)
(-0.0001547923 -5.106813e-05 1.44846e-27)
(-0.0001550545 -8.326293e-05 -6.03348e-26)
(-0.0001567503 -0.0001391776 -6.543719e-26)
(-0.0001514228 -6.508461e-06 0)
(-0.0001436078 -1.808217e-05 1.541329e-26)
(-0.0001372052 -2.745113e-05 0)
(-0.000134194 -3.363513e-05 -4.342194e-28)
(-0.0001362394 -3.847083e-05 -3.863995e-28)
(-0.0001458725 -4.575589e-05 -1.960634e-26)
(-0.0001590009 -6.468626e-05 -4.581455e-26)
(-0.0001383049 -5.535442e-06 0)
(-0.0001321391 -1.558893e-05 -1.397042e-26)
(-0.0001272497 -2.381562e-05 1.397385e-26)
(-0.0001241796 -3.062925e-05 0)
(-0.0001244412 -3.59738e-05 -1.201627e-27)
(-0.0001305326 -4.041178e-05 1.24384e-26)
(-0.0001426477 -4.775866e-05 -1.702613e-27)
(-0.0001269806 -4.936457e-06 0)
(-0.000122413 -1.379536e-05 -3.85462e-26)
(-0.0001187952 -2.172904e-05 -1.412313e-29)
(-0.0001167076 -2.86994e-05 -2.673289e-26)
(-0.0001171312 -3.480327e-05 -1.446064e-27)
(-0.0001204833 -4.130639e-05 1.331659e-26)
(-0.0001277755 -4.957799e-05 -6.977765e-27)
(-0.000116929 -4.489687e-06 1.189876e-26)
(-0.0001134135 -1.277689e-05 -1.194582e-26)
(-0.0001107911 -2.039356e-05 2.10385e-30)
(-0.0001094966 -2.746649e-05 -2.314654e-26)
(-0.0001098222 -3.444141e-05 0)
(-0.0001121644 -4.202933e-05 0)
(-0.000117617 -5.15182e-05 -2.13702e-26)
(-0.0001076923 -4.186346e-06 1.090559e-26)
(-0.0001049268 -1.203191e-05 -1.091995e-26)
(-0.0001028872 -1.949732e-05 1.078779e-26)
(-0.0001018892 -2.665131e-05 1.077453e-26)
(-0.0001019011 -3.417968e-05 0)
(-0.0001031459 -4.266055e-05 0)
(-0.0001067606 -5.23437e-05 -1.29484e-26)
(-9.90513e-05 -3.941954e-06 -1.003862e-26)
(-9.679871e-05 -1.141758e-05 -1.022364e-26)
(-9.510912e-05 -1.863352e-05 -2.347672e-28)
(-9.400009e-05 -2.58966e-05 9.482275e-27)
(-9.352922e-05 -3.35556e-05 2.395446e-27)
(-9.418231e-05 -4.182719e-05 -1.602453e-26)
(-9.491751e-05 -5.189599e-05 8.161997e-27)
(-9.093422e-05 -3.713753e-06 -9.226455e-27)
(-8.904696e-05 -1.080275e-05 -7.26064e-29)
(-8.744559e-05 -1.783908e-05 2.375867e-28)
(-8.61765e-05 -2.494487e-05 3.383483e-28)
(-8.528954e-05 -3.250072e-05 0)
(-8.487376e-05 -4.062709e-05 -9.537453e-27)
(-8.403617e-05 -5.002292e-05 8.473577e-27)
(-8.329323e-05 -3.516247e-06 0)
(-8.163382e-05 -1.022391e-05 -1.389694e-28)
(-8.003416e-05 -1.701258e-05 -2.350457e-28)
(-7.848213e-05 -2.398405e-05 1.830874e-26)
(-7.74245e-05 -3.095013e-05 3.152228e-27)
(-7.587355e-05 -3.883798e-05 1.434377e-26)
(-7.416698e-05 -4.730723e-05 6.122297e-27)
(-7.612986e-05 -3.303124e-06 -2.218233e-29)
(-7.458114e-05 -9.641576e-06 -6.818528e-29)
(-7.297011e-05 -1.60447e-05 0)
(-7.139576e-05 -2.257805e-05 -1.936037e-29)
(-6.962271e-05 -2.940939e-05 7.135113e-27)
(-6.769219e-05 -3.656557e-05 6.895643e-27)
(-6.532046e-05 -4.415294e-05 -1.266769e-27)
(-6.941473e-05 -3.105183e-06 7.007814e-27)
(-6.793543e-05 -9.076548e-06 -7.084843e-27)
(-6.624748e-05 -1.519196e-05 1.251644e-26)
(-6.467513e-05 -2.117665e-05 -1.455226e-26)
(-6.255323e-05 -2.75548e-05 6.014689e-27)
(-6.029864e-05 -3.404171e-05 0)
(-5.748694e-05 -4.078782e-05 1.183579e-27)
(-6.313279e-05 -2.912089e-06 6.402977e-27)
(-6.166352e-05 -8.529384e-06 -6.223577e-27)
(-6.011615e-05 -1.410214e-05 6.09205e-27)
(-5.823762e-05 -1.98376e-05 0)
(-5.610134e-05 -2.560619e-05 -5.77991e-27)
(-5.364512e-05 -3.145197e-05 0)
(-5.061268e-05 -3.741974e-05 5.187628e-27)
(-5.729714e-05 -2.702403e-06 0)
(-5.594555e-05 -7.88301e-06 0)
(-5.430411e-05 -1.316035e-05 -1.113932e-26)
(-5.241896e-05 -1.839398e-05 0)
(-5.025039e-05 -2.362351e-05 -1.03842e-26)
(-4.768963e-05 -2.888606e-05 -4.930294e-27)
(-4.454756e-05 -3.420776e-05 4.591003e-27)
(-5.188234e-05 -2.532761e-06 -5.24532e-27)
(-5.063967e-05 -7.281944e-06 0)
(-4.900583e-05 -1.215503e-05 -4.944272e-27)
(-4.713962e-05 -1.692955e-05 4.999959e-27)
(-4.496614e-05 -2.165908e-05 -4.66115e-27)
(-4.239372e-05 -2.634386e-05 -8.806848e-27)
(-3.926057e-05 -3.095233e-05 -4.074089e-27)
(-4.693702e-05 -2.333047e-06 -4.738313e-27)
(-4.570814e-05 -6.729673e-06 -4.64094e-27)
(-4.416515e-05 -1.116995e-05 0)
(-4.235067e-05 -1.550472e-05 4.61565e-27)
(-4.022703e-05 -1.976057e-05 2.928039e-28)
(-3.773266e-05 -2.39088e-05 -8.234365e-27)
(-3.474855e-05 -2.788139e-05 -1.248016e-27)
(-4.238877e-05 -2.150805e-06 -4.289072e-27)
(-4.122675e-05 -6.165207e-06 -4.210411e-27)
(-3.976505e-05 -1.02105e-05 4.10201e-27)
(-3.802276e-05 -1.414009e-05 0)
(-3.598254e-05 -1.797407e-05 0)
(-3.359272e-05 -2.171155e-05 -3.520859e-27)
(-3.070946e-05 -2.540311e-05 6.094174e-27)
(-3.823099e-05 -1.971276e-06 -3.869027e-27)
(-3.714794e-05 -5.621683e-06 -3.79933e-27)
(-3.577492e-05 -9.293782e-06 3.693328e-27)
(-3.412328e-05 -1.284002e-05 0)
(-3.218516e-05 -1.627141e-05 2.419299e-28)
(-2.991467e-05 -1.956631e-05 4.323944e-31)
(-2.721315e-05 -2.272887e-05 -3.433361e-28)
(-3.444723e-05 -1.8e-06 0)
(-3.345087e-05 -5.103238e-06 -3.422283e-27)
(-3.217143e-05 -8.425857e-06 3.327438e-27)
(-3.062407e-05 -1.161528e-05 0)
(-2.880719e-05 -1.467872e-05 -3.246536e-27)
(-2.668749e-05 -1.759453e-05 -5.289056e-28)
(-2.419545e-05 -2.036002e-05 -3.090626e-28)
(-3.101869e-05 -1.638194e-06 3.141924e-27)
(-3.011017e-05 -4.615047e-06 -1.712397e-29)
(-2.892837e-05 -7.611938e-06 2.964847e-27)
(-2.749367e-05 -1.047187e-05 -7.754167e-29)
(-2.580854e-05 -1.319945e-05 -9.619814e-29)
(-2.384019e-05 -1.577853e-05 -2.520094e-27)
(-2.156093e-05 -1.818867e-05 0)
(-2.792365e-05 -1.486657e-06 5.657629e-27)
(-2.710134e-05 -4.158912e-06 0)
(-2.601799e-05 -6.854823e-06 0)
(-2.469768e-05 -9.41614e-06 2.652732e-27)
(-2.31414e-05 -1.185597e-05 4.963537e-27)
(-2.128908e-05 -1.418694e-05 -2.25091e-27)
(-1.926455e-05 -1.620708e-05 0)
(-2.51394e-05 -1.345707e-06 2.546988e-27)
(-2.439978e-05 -3.73518e-06 -1.386899e-29)
(-2.341308e-05 -6.152798e-06 -2.272939e-29)
(-2.220522e-05 -8.437142e-06 -6.401723e-29)
(-2.077832e-05 -1.05941e-05 2.109103e-27)
(-1.910026e-05 -1.262078e-05 0)
(-1.71943e-05 -1.447391e-05 -1.829227e-27)
(-2.264294e-05 -1.215341e-06 -2.136264e-30)
(-2.198163e-05 -3.34404e-06 -2.271397e-27)
(-2.10883e-05 -5.506877e-06 -2.205681e-27)
(-1.999059e-05 -7.541516e-06 -4.182756e-27)
(-1.869407e-05 -9.456427e-06 0)
(-1.718116e-05 -1.125075e-05 -1.790699e-27)
(-1.543946e-05 -1.288078e-05 2.145191e-30)
(-2.041148e-05 -1.095449e-06 -2.066854e-27)
(-1.982317e-05 -2.984948e-06 -4.067646e-27)
(-1.901808e-05 -4.915443e-06 -3.958182e-27)
(-1.802448e-05 -6.723949e-06 -1.934356e-27)
(-1.684472e-05 -8.423879e-06 -6.306668e-29)
(-1.548134e-05 -1.000593e-05 -1.611845e-27)
(-1.391071e-05 -1.143954e-05 1.566996e-27)
(-1.842294e-05 -9.85685e-07 -1.866979e-27)
(-1.790148e-05 -2.656645e-06 -3.667647e-27)
(-1.717779e-05 -4.377281e-06 -1.778357e-27)
(-1.627789e-05 -5.988535e-06 0)
(-1.518723e-05 -7.520327e-06 -4.253762e-28)
(-1.398448e-05 -8.873782e-06 -6.537773e-28)
(-1.257087e-05 -1.014577e-05 -1.576449e-28)
(-1.665632e-05 -8.852371e-07 -1.689708e-27)
(-1.619525e-05 -2.356541e-06 -1.653999e-27)
(-1.554508e-05 -3.884906e-06 4.248257e-29)
(-1.473079e-05 -5.308275e-06 3.902858e-29)
(-1.375042e-05 -6.650674e-06 0)
(-1.262565e-05 -7.886778e-06 -1.334097e-27)
(-1.138801e-05 -8.990805e-06 7.022826e-29)
(-1.509206e-05 -7.937204e-07 -1.530723e-27)
(-1.468498e-05 -2.08352e-06 -1.49973e-27)
(-1.410115e-05 -3.438797e-06 2.492194e-29)
(-1.336609e-05 -4.698453e-06 1.717415e-29)
(-1.248343e-05 -5.888375e-06 0)
(-1.145637e-05 -6.983186e-06 -1.155086e-27)
(-1.034703e-05 -7.955897e-06 1.245999e-28)
(-1.371191e-05 -7.103432e-07 1.187864e-30)
(-1.33521e-05 -1.835355e-06 -2.729345e-27)
(-1.282606e-05 -3.034454e-06 1.087861e-29)
(-1.215916e-05 -4.147823e-06 1.503181e-29)
(-1.135833e-05 -5.201583e-06 0)
(-1.04256e-05 -6.171583e-06 0)
(-9.423494e-06 -7.034986e-06 0)
(-1.249923e-05 -6.343595e-07 0)
(-1.217967e-05 -1.609593e-06 -1.245785e-27)
(-1.170221e-05 -2.667814e-06 0)
(-1.109044e-05 -3.651648e-06 1.129353e-27)
(-1.03603e-05 -4.583893e-06 -3.347928e-29)
(-9.510394e-06 -5.446957e-06 -4.109826e-29)
(-8.600056e-06 -6.218513e-06 8.627585e-28)
(-1.143931e-05 -5.647991e-07 -1.159203e-27)
(-1.115244e-05 -1.403897e-06 0)
(-1.071308e-05 -2.337405e-06 1.611488e-29)
(-1.013862e-05 -3.21628e-06 9.087138e-28)
(-9.475812e-06 -4.026138e-06 -1.213615e-27)
(-8.693467e-06 -4.802572e-06 0)
(-7.860477e-06 -5.498331e-06 8.323333e-28)
(-1.051963e-05 -5.004717e-07 -1.065949e-27)
(-1.025685e-05 -1.214109e-06 0)
(-9.844272e-06 -2.031631e-06 6.813161e-30)
(-9.305613e-06 -2.803168e-06 9.550344e-30)
(-8.666666e-06 -3.542539e-06 -1.817501e-27)
(-7.955357e-06 -4.234748e-06 8.399466e-28)
(-7.189074e-06 -4.867514e-06 -7.627797e-28)
(-9.730003e-06 -4.40427e-07 0)
(-9.481951e-06 -1.038592e-06 -9.668233e-28)
(-9.084624e-06 -1.753635e-06 5.600306e-30)
(-8.567666e-06 -2.437238e-06 8.907164e-28)
(-7.953171e-06 -3.102894e-06 -8.359767e-28)
(-7.284954e-06 -3.73368e-06 7.710317e-28)
(-6.571665e-06 -4.319495e-06 4.431023e-31)
(-9.062695e-06 -3.833801e-07 0)
(-8.817034e-06 -8.737227e-07 -9.032981e-28)
(-8.418958e-06 -1.497104e-06 8.725668e-28)
(-7.905067e-06 -2.106138e-06 8.313896e-28)
(-7.303816e-06 -2.713202e-06 -7.633223e-28)
(-6.663772e-06 -3.299569e-06 2.203279e-29)
(-5.993766e-06 -3.852117e-06 6.414552e-28)
(-8.512987e-06 -3.275499e-07 0)
(-8.253314e-06 -7.158317e-07 0)
(-7.834245e-06 -1.258609e-06 8.157987e-28)
(-7.303619e-06 -1.808214e-06 -7.683756e-28)