/*--------------------------------*- C++ -*----------------------------------*\
| =========                 |                                                 |
| \\      /  F ield         | OpenFOAM: The Open Source CFD Toolbox           |
|  \\    /   O peration     | Version:  2206                                  |
|   \\  /    A nd           | Website:  www.openfoam.com                      |
|    \\/     M anipulation  |                                                 |
\*---------------------------------------------------------------------------*/
FoamFile
{
    version     2.0;
    format      ascii;
    arch        "LSB;label=32;scalar=64";
    class       volVectorField;
    location    "1.6";
    object      U.a;
}
// * * * * * * * * * * * * * * * * * * * * * * * * * * * * * * * * * * * * * //

dimensions      [0 1 -1 0 0 0 0];

internalField   nonuniform List<vector> 
13078
(
(6.589322e-06 -9.523708e-05 1.536892e-27)
(6.306661e-07 -4.644424e-05 4.339668e-33)
(2.146235e-08 -2.669648e-05 -4.120916e-29)
(-3.374176e-08 -1.684472e-05 0)
(-5.177681e-08 -1.229281e-05 -1.155656e-29)
(-6.042779e-08 -9.274574e-06 -1.160333e-29)
(-6.334628e-08 -7.037467e-06 -1.163149e-29)
(-3.720178e-05 -4.130306e-05 0)
(-1.83288e-05 -3.204963e-05 -2.429836e-32)
(-6.295903e-06 -2.106588e-05 0)
(-2.671766e-06 -1.517075e-05 0)
(-1.425063e-06 -1.159014e-05 -2.539592e-35)
(-8.489608e-07 -8.932805e-06 1.16384e-34)
(-5.51633e-07 -6.84932e-06 4.868514e-34)
(-1.209178e-05 -1.004558e-05 2.304309e-31)
(-1.016634e-05 -1.499685e-05 3.681831e-31)
(-6.085407e-06 -1.414301e-05 1.259287e-29)
(-3.533096e-06 -1.208758e-05 2.316762e-29)
(-2.142177e-06 -9.918445e-06 1.158727e-29)
(-1.367117e-06 -7.970333e-06 0)
(-9.17347e-07 -6.260946e-06 -6.624056e-35)
(-3.365862e-06 -3.669356e-06 -2.423291e-31)
(-5.033046e-06 -7.790872e-06 9.14743e-31)
(-4.34971e-06 -9.244143e-06 2.321405e-30)
(-3.186477e-06 -8.989187e-06 1.465897e-30)
(-2.224915e-06 -7.968929e-06 2.061631e-33)
(-1.556704e-06 -6.71593e-06 0)
(-1.109151e-06 -5.430991e-06 4.853187e-35)
(-1.269444e-06 -1.995737e-06 -2.95264e-31)
(-2.636238e-06 -4.575126e-06 -5.795219e-31)
(-2.842977e-06 -6.064039e-06 8.677085e-31)
(-2.476292e-06 -6.470548e-06 -1.831168e-32)
(-1.97391e-06 -6.163168e-06 -1.396946e-29)
(-1.512907e-06 -5.437426e-06 -2.583729e-35)
(-1.151518e-06 -4.517129e-06 1.165949e-29)
(-5.590823e-07 -1.291978e-06 0)
(-1.444151e-06 -2.910295e-06 7.412171e-31)
(-1.82637e-06 -4.095668e-06 -7.47689e-31)
(-1.815181e-06 -4.640694e-06 7.276246e-31)
(-1.61183e-06 -4.649894e-06 1.499163e-30)
(-1.351156e-06 -4.275763e-06 -1.177389e-29)
(-1.097945e-06 -3.630831e-06 -2.338284e-29)
(-2.847654e-07 -9.454804e-07 0)
(-8.413132e-07 -1.9893e-06 6.102643e-31)
(-1.189423e-06 -2.863449e-06 -1.129439e-29)
(-1.308933e-06 -3.35816e-06 -1.200164e-29)
(-1.271522e-06 -3.475419e-06 2.221282e-30)
(-1.150317e-06 -3.273858e-06 1.485107e-30)
(-9.985923e-07 -2.825546e-06 0)
(-1.64551e-07 -7.513846e-07 -1.003176e-30)
(-5.270507e-07 -1.442193e-06 6.051962e-31)
(-8.06715e-07 -2.071621e-06 6.442094e-31)
(-9.611672e-07 -2.467224e-06 0)
(-1.001683e-06 -2.591542e-06 1.514867e-30)
(-9.650502e-07 -2.458701e-06 1.488959e-30)
(-8.864983e-07 -2.111154e-06 1.487033e-30)
(-1.061042e-07 -6.317883e-07 3.235238e-32)
(-3.573662e-07 -1.095087e-06 -1.258089e-30)
(-5.778316e-07 -1.547354e-06 8.401429e-31)
(-7.299485e-07 -1.837724e-06 1.50724e-30)
(-8.047581e-07 -1.926814e-06 4.452826e-30)
(-8.167299e-07 -1.809595e-06 1.490452e-30)
(-7.866783e-07 -1.506303e-06 0)
(-7.620227e-08 -5.524759e-07 9.904215e-31)
(-2.646129e-07 -8.614734e-07 -1.215346e-30)
(-4.435084e-07 -1.183296e-06 -6.218719e-31)
(-5.835184e-07 -1.381069e-06 1.917038e-30)
(-6.709979e-07 -1.421159e-06 -3.876252e-32)
(-7.093815e-07 -1.292033e-06 0)
(-7.102081e-07 -1.00178e-06 0)
(-6.096547e-08 -4.966046e-07 0)
(-2.152375e-07 -6.957063e-07 0)
(-3.680725e-07 -9.193402e-07 -1.262303e-30)
(-4.965663e-07 -1.039497e-06 1.85268e-30)
(-5.876179e-07 -1.02879e-06 4.021699e-32)
(-6.39971e-07 -8.746926e-07 0)
(-6.598724e-07 -5.791282e-07 0)
(-5.407404e-08 -4.552045e-07 0)
(-1.916819e-07 -5.721673e-07 1.212956e-30)
(-3.304137e-07 -7.19473e-07 -1.189056e-30)
(-4.514477e-07 -7.749967e-07 -3.394135e-30)
(-5.432766e-07 -7.162265e-07 -1.208426e-31)
(-6.032043e-07 -5.317539e-07 0)
(-6.348637e-07 -2.20711e-07 1.578829e-30)
(-5.232854e-08 -4.227726e-07 0)
(-1.8448e-07 -4.754263e-07 -3.560581e-31)
(-3.180686e-07 -5.614397e-07 -1.489577e-30)
(-4.363662e-07 -5.623285e-07 -1.797139e-30)
(-5.292414e-07 -4.593786e-07 1.382559e-30)
(-5.938554e-07 -2.42971e-07 -1.357347e-30)
(-6.330925e-07 8.888241e-08 3.889106e-32)
(-5.396016e-08 -3.961221e-07 9.198229e-31)
(-1.884245e-07 -3.960115e-07 0)
(-3.234946e-07 -4.3075e-07 -1.489887e-30)
(-4.434741e-07 -3.84344e-07 -1.514914e-30)
(-5.390976e-07 -2.410271e-07 2.661517e-30)
(-6.074347e-07 7.263829e-09 -1.270488e-30)
(-6.521607e-07 3.625183e-07 1.298257e-30)
(-5.802524e-08 -3.731084e-07 8.237745e-31)
(-2.004205e-07 -3.276602e-07 0)
(-3.416243e-07 -3.178241e-07 -2.976375e-30)
(-4.63777e-07 -2.292422e-07 2.000213e-29)
(-5.63416e-07 -4.892909e-08 2.558567e-29)
(-6.394794e-07 2.310874e-07 0)
(-6.899137e-07 6.108394e-07 -1.29156e-30)
(-6.397225e-08 -3.523006e-07 0)
(-2.190744e-07 -2.660654e-07 9.654003e-31)
(-3.721339e-07 -2.157815e-07 0)
(-5.051103e-07 -8.909431e-08 1.997095e-30)
(-6.115408e-07 1.254817e-07 3.054509e-30)
(-6.910133e-07 4.374983e-07 3.017753e-30)
(-7.455548e-07 8.424748e-07 1.815755e-30)
(-7.139412e-08 -3.326378e-07 0)
(-2.428053e-07 -2.081417e-07 1.676061e-30)
(-4.106739e-07 -1.198286e-07 -1.485308e-30)
(-5.552224e-07 4.331909e-08 -1.496706e-30)
(-6.711536e-07 2.919953e-07 0)
(-7.577236e-07 6.346679e-07 0)
(-8.174268e-07 1.065015e-06 0)
(-8.014377e-08 -3.134507e-07 1.207381e-30)
(-2.711452e-07 -1.517093e-07 -5.068741e-32)
(-4.570421e-07 -2.627438e-08 -2.971542e-30)
(-6.161376e-07 1.726301e-07 -1.497868e-30)
(-7.436941e-07 4.552953e-07 0)
(-8.389987e-07 8.286764e-07 -1.943452e-30)
(-9.047785e-07 1.284865e-06 -6.038381e-30)
(-9.009365e-08 -2.94141e-07 1.044978e-30)
(-3.036661e-07 -9.503584e-08 -1.314627e-31)
(-5.106045e-07 6.776551e-08 -4.458909e-30)
(-6.869324e-07 3.028163e-07 -2.998421e-30)
(-8.283062e-07 6.198387e-07 0)
(-9.341758e-07 1.024455e-06 9.281969e-31)
(-1.006988e-06 1.507608e-06 -3.026929e-30)
(-1.011212e-07 -2.742738e-07 3.768704e-31)
(-3.399766e-07 -3.676432e-08 8.333919e-31)
(-5.706876e-07 1.64508e-07 4.443472e-31)
(-7.660283e-07 4.368156e-07 0)
(-9.186928e-07 7.878553e-07 2.446208e-29)
(-1.036096e-06 1.223786e-06 3.083847e-29)
(-1.122097e-06 1.737998e-06 6.089685e-30)
(-1.130518e-07 -2.534088e-07 -4.131002e-31)
(-3.79795e-07 2.428445e-08 1.199594e-30)
(-6.372729e-07 2.658256e-07 1.953598e-30)
(-8.559091e-07 5.772698e-07 3.285529e-30)
(-1.029213e-06 9.628636e-07 3.0299e-30)
(-1.160026e-06 1.432217e-06 1.649573e-30)
(-1.253711e-06 1.98002e-06 -3.892246e-30)
(-1.257143e-07 -2.313727e-07 0)
(-4.225189e-07 8.884835e-08 1.461876e-30)
(-7.087925e-07 3.730663e-07 1.480987e-30)
(-9.516608e-07 7.259173e-07 1.343621e-31)
(-1.143771e-06 1.1508e-06 0)
(-1.290441e-06 1.656941e-06 1.418666e-30)
(-1.396716e-06 2.237661e-06 6.266218e-32)
(-1.388758e-07 -2.080002e-07 1.415498e-31)
(-4.673861e-07 1.573349e-07 0)
(-7.841948e-07 4.868987e-07 0)
(-1.052627e-06 8.839175e-07 2.929842e-30)
(-1.264725e-06 1.350819e-06 3.009005e-30)
(-1.428182e-06 1.896145e-06 0)
(-1.548789e-06 2.511955e-06 4.51774e-31)
(-1.521758e-07 -1.832544e-07 7.879326e-31)
(-5.13516e-07 2.298343e-07 0)
(-8.619644e-07 6.074733e-07 0)
(-1.156677e-06 1.051412e-06 -2.548542e-30)
(-1.388426e-06 1.563056e-06 -2.460097e-30)
(-1.562857e-06 2.146538e-06 1.657019e-32)
(-1.697544e-06 2.798116e-06 0)
(-1.652747e-07 -1.573107e-07 6.76625e-31)
(-5.598542e-07 3.059794e-07 1.480174e-30)
(-9.40443e-07 7.343254e-07 2.231353e-30)
(-1.261876e-06 1.227911e-06 3.00523e-30)
(-1.51536e-06 1.786987e-06 3.097752e-30)
(-1.709955e-06 2.409124e-06 -3.224131e-31)
(-1.858085e-06 3.09981e-06 0)
(-1.776814e-07 -1.304613e-07 0)
(-6.049949e-07 3.848018e-07 -1.112658e-30)
(-1.01703e-06 8.659674e-07 1.156676e-30)
(-1.363542e-06 1.411501e-06 0)
(-1.635461e-06 2.020218e-06 5.116087e-30)
(-1.843521e-06 2.688325e-06 1.234492e-29)
(-2.005048e-06 3.421959e-06 6.412001e-30)
(-1.89063e-07 -1.033195e-07 -1.197617e-30)
(-6.477902e-07 4.646022e-07 -1.581805e-30)
(-1.089471e-06 9.997788e-07 1.449469e-30)
(-1.45826e-06 1.598834e-06 0)
(-1.74481e-06 2.259162e-06 -6.088444e-30)
(-1.962285e-06 2.975813e-06 -5.286153e-34)
(-2.134375e-06 3.755561e-06 6.451819e-30)
(-1.991496e-07 -7.665643e-08 -1.610238e-30)
(-6.872929e-07 5.427448e-07 -1.893803e-30)
(-1.156171e-06 1.131671e-06 1.954992e-30)
(-1.543205e-06 1.784786e-06 0)
(-1.838951e-06 2.498335e-06 0)
(-2.059198e-06 3.266299e-06 -1.45321e-30)
(-2.229828e-06 4.090963e-06 -5.026984e-29)
(-2.08405e-07 -5.174149e-08 -3.095629e-30)
(-7.24054e-07 6.152692e-07 -3.936736e-30)
(-1.216871e-06 1.25537e-06 0)
(-1.616971e-06 1.961563e-06 -3.827831e-30)
(-1.91536e-06 2.729174e-06 -6.1214e-30)
(-2.133687e-06 3.551598e-06 2.328624e-30)
(-2.308501e-06 4.425161e-06 1.903188e-29)
(-2.151184e-07 -2.987302e-08 -2.408405e-30)
(-7.558738e-07 6.749984e-07 0)
(-1.272441e-06 1.36143e-06 -5.778856e-30)
(-1.680135e-06 2.117263e-06 -2.0696e-31)
(-1.971336e-06 2.937624e-06 -2.585039e-30)
(-2.17332e-06 3.815804e-06 -4.865129e-30)
(-2.331148e-06 4.750264e-06 -2.099986e-30)
(-2.250169e-07 -1.693164e-08 0)
(-7.951736e-07 7.13904e-07 0)
(-1.331533e-06 1.435972e-06 -6.727071e-30)
(-1.739514e-06 2.234012e-06 0)
(-2.011535e-06 3.102976e-06 -6.389142e-30)
(-2.180069e-06 4.036537e-06 -3.05174e-30)
(-2.298682e-06 5.036175e-06 2.696039e-30)
(-2.394102e-07 -1.48213e-08 -5.799918e-30)
(-8.419307e-07 7.192634e-07 1.407856e-30)
(-1.398965e-06 1.456423e-06 2.502768e-30)
(-1.808312e-06 2.287052e-06 0)
(-2.049657e-06 3.196074e-06 -3.873202e-30)
(-2.164339e-06 4.179709e-06 0)
(-2.218208e-06 5.242945e-06 -9.262966e-30)
(-2.660937e-07 -2.880067e-08 -4.06937e-30)
(-9.227433e-07 6.764487e-07 5.046071e-30)
(-1.507601e-06 1.400772e-06 1.293866e-29)
(-1.911145e-06 2.237094e-06 1.296215e-29)
(-2.113893e-06 3.178037e-06 1.830931e-30)
(-2.149498e-06 4.200426e-06 6.271264e-30)
(-2.097025e-06 5.320833e-06 -6.376354e-30)
(-3.128926e-07 -6.537934e-08 1.12973e-30)
(-1.061585e-06 5.749141e-07 1.453495e-30)
(-1.705973e-06 1.245911e-06 1.161278e-29)
(-2.118278e-06 2.057245e-06 2.230261e-30)
(-2.265454e-06 3.000872e-06 -1.773725e-29)
(-2.189556e-06 4.042086e-06 1.256453e-29)
(-1.976084e-06 5.203419e-06 2.558714e-29)
(-3.92677e-07 -1.320988e-07 -1.125923e-30)
(-1.291921e-06 3.882244e-07 -1.448127e-30)
(-2.042167e-06 9.649127e-07 4.486631e-31)
(-2.486433e-06 1.70111e-06 -4.875151e-29)
(-2.588693e-06 2.592593e-06 -6.29083e-29)
(-2.379048e-06 3.635611e-06 -6.80145e-30)
(-1.943645e-06 4.814469e-06 0)
(-5.246148e-07 -2.38642e-07 0)
(-1.669628e-06 8.853568e-08 0)
(-2.609854e-06 5.07135e-07 7.114588e-30)
(-3.16312e-06 1.10368e-06 1.908844e-29)
(-3.24938e-06 1.895052e-06 6.962245e-29)
(-2.888507e-06 2.876867e-06 5.834338e-29)
(-2.156713e-06 4.065552e-06 0)
(-7.32752e-07 -3.977183e-07 -2.234095e-30)
(-2.263175e-06 -3.607674e-07 2.865811e-30)
(-3.517417e-06 -1.851107e-07 5.811464e-30)
(-4.283094e-06 2.131893e-07 0)
(-4.463117e-06 8.253513e-07 1.630053e-29)
(-3.972948e-06 1.704839e-06 -1.28877e-29)
(-2.875742e-06 2.850864e-06 -2.576566e-29)
(-1.044783e-06 -6.27185e-07 -4.068139e-30)
(-3.153623e-06 -1.012313e-06 2.85262e-30)
(-4.899708e-06 -1.197215e-06 -8.242998e-30)
(-6.035298e-06 -1.100163e-06 0)
(-6.421174e-06 -7.346969e-07 2.098693e-29)
(-5.892355e-06 -4.582643e-08 -7.682693e-29)
(-4.48172e-06 9.536589e-07 -1.283374e-28)
(-1.486469e-06 -9.539379e-07 -4.581116e-30)
(-4.419992e-06 -1.949576e-06 -5.667061e-30)
(-6.892576e-06 -2.668131e-06 -8.943336e-30)
(-8.62315e-06 -3.03454e-06 -1.149234e-29)
(-9.445646e-06 -3.082175e-06 -2.323583e-29)
(-9.084329e-06 -2.728152e-06 -2.643381e-29)
(-7.376169e-06 -1.892647e-06 -5.51733e-29)
(-2.065661e-06 -1.41808e-06 0)
(-6.101065e-06 -3.307103e-06 2.301639e-30)
(-9.575407e-06 -4.826984e-06 9.188627e-30)
(-1.214434e-05 -5.900983e-06 5.877105e-30)
(-1.376435e-05 -6.713263e-06 -2.487317e-29)
(-1.443884e-05 -7.487701e-06 -1.743609e-29)
(-1.352443e-05 -7.978758e-06 0)
(-2.767812e-06 -2.087303e-06 7.969321e-30)
(-8.16242e-06 -5.286578e-06 -4.018565e-30)
(-1.289631e-05 -8.036903e-06 -1.408024e-29)
(-1.719464e-05 -1.075262e-05 3.055045e-29)
(-2.161264e-05 -1.425569e-05 -5.471081e-29)
(-2.751397e-05 -2.066946e-05 1.267464e-29)
(-3.428762e-05 -3.106412e-05 9.1909e-30)
(-3.558937e-06 -3.084348e-06 6.602411e-30)
(-1.060983e-05 -8.314943e-06 -3.415842e-30)
(-1.828355e-05 -1.417878e-05 0)
(-2.925752e-05 -2.365354e-05 1.2678e-29)
(-4.886308e-05 -4.337143e-05 2.293694e-28)
(-8.040766e-05 -8.072796e-05 4.30054e-28)
(-0.0001144479 -0.0001334437 -6.058632e-28)
(-4.842424e-06 -5.071372e-06 -1.33885e-29)
(-1.623653e-05 -1.56307e-05 1.277389e-29)
(-3.531214e-05 -3.428317e-05 2.639211e-29)
(-7.294197e-05 -7.420275e-05 -7.724231e-28)
(-0.0001360822 -0.0001482455 1.023317e-27)
(-0.0001999931 -0.0002379834 5.715256e-28)
(-0.0002342177 -0.0003166283 -6.91019e-28)
(-9.106967e-06 -1.122391e-05 -3.173812e-29)
(-3.522733e-05 -4.053051e-05 0)
(-8.828616e-05 -0.0001013095 1.158087e-28)
(-0.0001768842 -0.0002081516 1.533722e-28)
(-0.0002641421 -0.0003283821 3.66563e-28)
(-0.0003126024 -0.0004187941 -9.053595e-28)
(-0.0003237205 -0.0004798293 1.283216e-28)
(-2.188983e-05 -2.954048e-05 0)
(-8.497113e-05 -0.0001096734 1.164873e-28)
(-0.0001856638 -0.000239194 1.338625e-28)
(-0.0002896311 -0.0003793386 6.597112e-28)
(-0.0003547373 -0.0004851127 1.446756e-31)
(-0.0003845139 -0.000561162 -9.295912e-28)
(-0.0003880717 -0.0006167737 1.103816e-28)
(-5.029525e-05 -7.010672e-05 0)
(-0.0001620161 -0.0002262059 -4.97345e-28)
(-0.0002781407 -0.0003931016 -1.5668e-30)
(-0.0003597636 -0.0005177963 5.752718e-28)
(-0.0004073723 -0.0006038708 5.504621e-28)
(-0.0004316864 -0.0006761903 -2.718855e-28)
(-0.0004364101 -0.000740281 2.691004e-29)
(-9.033937e-05 -0.0001263211 -4.621027e-28)
(-0.0002293744 -0.000339179 -6.839534e-28)
(-0.0003319041 -0.0005064967 5.345252e-28)
(-0.0003955594 -0.0006202474 2.130291e-29)
(-0.0004376092 -0.000704728 3.778026e-28)
(-0.0004624001 -0.0007806754 -9.688852e-29)
(-0.0004723933 -0.0008568271 3.354267e-28)
(-0.0001240496 -0.0001748954 -6.119519e-28)
(-0.0002686735 -0.000418936 -6.718658e-28)
(-0.0003566623 -0.0005852063 4.24744e-28)
(-0.000411922 -0.0007006066 -6.445004e-30)
(-0.0004521484 -0.0007953417 -4.452307e-29)
(-0.0004801207 -0.0008824989 1.867245e-30)
(-0.0004951326 -0.0009644815 2.955483e-28)
(-0.0001384107 -0.0001999366 1.672948e-28)
(-0.0002806142 -0.0004642416 -1.09397e-27)
(-0.0003617754 -0.0006428773 -4.774945e-28)
(-0.0004143588 -0.000769419 -6.627778e-31)
(-0.0004531263 -0.0008750782 -5.218651e-29)
(-0.0004831035 -0.0009718247 -1.238536e-28)
(-0.0005026889 -0.001059388 6.009453e-29)
(-0.0001337933 -0.0002007687 5.732233e-28)
(-0.0002726359 -0.0004824805 -4.118049e-28)
(-0.000351696 -0.000684248 -4.37799e-28)
(-0.00040286 -0.0008281807 3.398998e-28)
(-0.0004409567 -0.0009437728 2.094925e-29)
(-0.0004716748 -0.001043816 1.908225e-28)
(-0.0004957162 -0.001134101 3.447574e-28)
(-0.0001160658 -0.0001854354 5.525186e-28)
(-0.0002479613 -0.0004763914 1.094798e-28)
(-0.0003277915 -0.0007072992 -6.517726e-28)
(-0.0003789178 -0.0008734402 2.781865e-29)
(-0.0004154007 -0.0009986489 1.915841e-28)
(-0.0004462809 -0.001102795 1.532006e-28)
(-0.0004750293 -0.001193823 2.647423e-28)
(-9.108482e-05 -0.0001624567 1.738548e-29)
(-0.0002101817 -0.0004559466 2.688255e-30)
(-0.0002894672 -0.0007158018 -7.311064e-28)
(-0.000337856 -0.0009011571 -2.231997e-28)
(-0.0003721737 -0.001036383 -8.783499e-29)
(-0.0004024189 -0.001146439 -4.744908e-28)
(-0.0004346454 -0.001239261 -1.11355e-28)
(-6.66911e-05 -0.0001418592 -2.9131e-29)
(-0.0001671204 -0.0004294339 1.393589e-28)
(-0.0002382087 -0.0007026647 -1.210677e-28)
(-0.0002822389 -0.0009078861 3.980073e-30)
(-0.0003132593 -0.001055474 2.190541e-30)
(-0.0003412561 -0.001172187 8.592407e-30)
(-0.000374031 -0.001271183 5.11168e-28)
(-4.612222e-05 -0.0001259322 -6.968339e-30)
(-0.000124667 -0.0004049336 -4.518808e-31)
(-0.0001850345 -0.0006886884 7.462378e-30)
(-0.0002236743 -0.0009078198 9.202059e-30)
(-0.0002503205 -0.001065047 3.798251e-29)
(-0.000274439 -0.001186163 -5.227772e-29)
(-0.0003011253 -0.001290387 1.005577e-29)
(-2.944228e-05 -0.0001149054 1.400211e-30)
(-8.399298e-05 -0.0003852523 -1.996976e-29)
(-0.0001290143 -0.0006740591 3.25063e-30)
(-0.0001591517 -0.0009028169 -1.458552e-29)
(-0.0001800811 -0.001067718 5.16023e-32)
(-0.0001987003 -0.001192559 2.346134e-29)
(-0.0002186043 -0.001299363 1.593349e-30)
(-1.43041e-05 -0.0001084738 -1.434575e-29)
(-4.32851e-05 -0.0003722588 -1.680599e-29)
(-6.923062e-05 -0.0006618758 -1.305772e-29)
(-8.770948e-05 -0.0008950194 -7.428603e-30)
(-0.000100682 -0.001064231 -2.656323e-29)
(-0.0001115179 -0.00119125 -7.298834e-29)
(-0.0001223227 -0.001299214 5.751093e-29)
(6.186574e-08 -0.0001080445 -1.228418e-30)
(-3.390849e-06 -0.0003701822 -4.667664e-30)
(-8.748003e-06 -0.0006576643 1.612927e-30)
(-1.393392e-05 -0.0008895717 -8.268679e-30)
(-1.759398e-05 -0.001058618 -5.699219e-29)
(-1.95213e-05 -0.001185846 -1.63355e-28)
(-2.0047e-05 -0.001293854 -1.196849e-29)
(1.429176e-05 -0.0001143611 6.749758e-29)
(3.555675e-05 -0.0003805522 -7.595151e-29)
(4.951906e-05 -0.000662636 -1.153923e-28)
(5.667511e-05 -0.000887379 -8.390421e-29)
(6.140504e-05 -0.001051604 8.954611e-29)
(6.711173e-05 -0.001176995 6.545567e-29)
(7.502671e-05 -0.001284005 -4.401282e-29)
(3.074169e-05 -0.0001252608 1.230835e-28)
(7.623797e-05 -0.0003970679 -1.65028e-28)
(0.0001067096 -0.0006693009 -1.406242e-28)
(0.0001235561 -0.0008820416 -1.11816e-28)
(0.0001344519 -0.001038841 9.712908e-29)
(0.0001451633 -0.001161727 -6.731454e-29)
(0.000158515 -0.001267506 -5.87197e-29)
(5.055495e-05 -0.0001400546 -1.438042e-28)
(0.0001180691 -0.0004159436 -2.554283e-28)
(0.0001610713 -0.0006730914 -1.127729e-29)
(0.0001851204 -0.0008703788 -1.024677e-30)
(0.0002011389 -0.001018585 5.785534e-29)
(0.0002155108 -0.001139637 -8.60685e-29)
(0.0002341448 -0.001243531 -5.920238e-28)
(7.219246e-05 -0.0001581722 -2.17583e-28)
(0.0001576579 -0.0004343465 -2.197174e-29)
(0.0002104913 -0.0006740443 7.758478e-28)
(0.0002416041 -0.0008511014 4.572884e-29)
(0.0002632065 -0.0009881502 8.684043e-29)
(0.0002814433 -0.001104449 2.507464e-28)
(0.0003011034 -0.001205266 -1.879769e-29)
(9.253593e-05 -0.000176727 4.837142e-28)
(0.0001914634 -0.0004469878 -1.310301e-28)
(0.0002491982 -0.0006571444 7.720676e-28)
(0.000286711 -0.0008125874 3.487066e-28)
(0.0003136785 -0.0009376497 -2.798571e-28)
(0.0003355303 -0.00104836 3.492817e-28)
(0.0003540814 -0.001150422 3.130305e-28)
(0.0001045402 -0.0001831861 4.509698e-28)
(0.0002132421 -0.0004398698 5.847689e-28)
(0.0002758063 -0.0006225143 -3.855815e-30)
(0.0003174916 -0.000756674 7.541329e-28)
(0.0003490018 -0.0008709847 -2.819536e-28)
(0.000373749 -0.0009769029 -2.857629e-29)
(0.000390962 -0.001079557 2.227409e-28)
(0.0001019455 -0.0001678999 5.747113e-28)
(0.0002181625 -0.0004052068 1.177735e-28)
(0.0002881249 -0.0005698417 -2.386078e-30)
(0.000334706 -0.000688296 7.703719e-29)
(0.0003697762 -0.0007908283 -2.599115e-28)
(0.0003975625 -0.0008911122 8.925362e-29)
(0.0004164134 -0.0009891997 1.246176e-28)
(8.205606e-05 -0.0001284208 2.61831e-29)
(0.00020131 -0.0003402497 -4.374807e-28)
(0.0002835114 -0.0004991204 4.724779e-28)
(0.0003368689 -0.0006103456 -2.480431e-28)
(0.0003769193 -0.0007009921 -5.762716e-28)
(0.0004071995 -0.0007865791 9.284587e-29)
(0.0004276774 -0.0008729074 1.151732e-27)
(5.182648e-05 -7.746714e-05 -3.247103e-28)
(0.0001572376 -0.0002433397 1.915587e-29)
(0.0002555941 -0.0004037925 6.191253e-28)
(0.0003224953 -0.0005182186 1.506247e-28)
(0.0003687966 -0.0005997925 -2.338895e-30)
(0.0003997982 -0.0006713371 4.22902e-29)
(0.0004185799 -0.0007454033 7.022568e-28)
(2.600442e-05 -3.681831e-05 0)
(9.587303e-05 -0.0001347169 -3.451908e-31)
(0.0001948687 -0.0002741497 -1.913623e-29)
(0.0002824231 -0.0003992492 1.596152e-28)
(0.0003397458 -0.0004867946 -4.96443e-28)
(0.0003737384 -0.000556584 -8.542135e-28)
(0.0003905283 -0.0006149788 -2.537828e-28)
(1.198435e-05 -1.541343e-05 0)
(4.593244e-05 -5.662061e-05 -7.543604e-29)
(0.000110626 -0.0001354819 -1.27586e-28)
(0.0002026179 -0.0002493735 -4.992501e-28)
(0.0002790932 -0.00035314 -6.270598e-28)
(0.0003249032 -0.0004293231 -1.052237e-27)
(0.0003459296 -0.0004814534 1.734243e-28)
(6.321541e-06 -6.89494e-06 -1.848962e-29)
(2.206392e-05 -2.253621e-05 0)
(4.988896e-05 -5.094702e-05 0)
(0.0001039263 -0.0001089735 -3.515147e-30)
(0.0001788583 -0.0001954043 2.961013e-28)
(0.0002413982 -0.0002763069 -1.604869e-27)
(0.0002750881 -0.000335838 -4.472448e-28)
(4.365351e-06 -3.825234e-06 -9.532829e-30)
(1.349463e-05 -1.081498e-05 -8.691219e-30)
(2.520283e-05 -2.002355e-05 -1.51037e-29)
(4.430597e-05 -3.666487e-05 -2.480811e-28)
(7.908675e-05 -7.001269e-05 -2.629541e-28)
(0.0001283958 -0.0001221845 -3.113057e-28)
(0.0001704756 -0.0001777107 -1.354187e-27)
(3.588241e-06 -2.548324e-06 0)
(1.044817e-05 -6.536801e-06 1.003654e-29)
(1.704897e-05 -1.027994e-05 0)
(2.404921e-05 -1.446285e-05 -2.421471e-29)
(3.40725e-05 -2.172586e-05 -4.517301e-29)
(4.933136e-05 -3.501454e-05 -6.495338e-29)
(6.863955e-05 -5.53068e-05 -3.052578e-28)
(2.846606e-06 -1.703453e-06 0)
(8.352525e-06 -4.113038e-06 -6.815389e-30)
(1.321343e-05 -6.024175e-06 8.132397e-30)
(1.711387e-05 -7.40345e-06 0)
(2.031982e-05 -8.612178e-06 -3.658588e-29)
(2.303087e-05 -9.952671e-06 -9.165567e-29)
(2.527788e-05 -1.19588e-05 -8.756975e-29)
(2.196757e-06 -1.121766e-06 0)
(6.446083e-06 -2.414459e-06 -2.03613e-29)
(1.011689e-05 -3.315107e-06 -2.280023e-31)
(1.288368e-05 -3.728699e-06 -3.655657e-29)
(1.445324e-05 -3.588273e-06 -2.467742e-29)
(1.487343e-05 -3.093756e-06 8.290626e-30)
(1.374623e-05 -2.09499e-06 -1.341261e-28)
(1.666866e-06 -7.141842e-07 5.061134e-30)
(4.900505e-06 -1.235572e-06 -1.192229e-29)
(7.632756e-06 -1.467115e-06 1.140207e-31)
(9.584477e-06 -1.305978e-06 -5.637675e-30)
(1.056479e-05 -7.503879e-07 0)
(1.049272e-05 1.317602e-07 0)
(8.977048e-06 1.536326e-06 1.838087e-29)
(1.263263e-06 -4.268411e-07 2.224184e-30)
(3.736619e-06 -4.187742e-07 -8.589365e-30)
(5.790623e-06 -2.009319e-07 5.633382e-30)
(7.180807e-06 3.179385e-07 5.646947e-30)
(7.777575e-06 1.126423e-06 0)
(7.469738e-06 2.23406e-06 0)
(6.23944e-06 3.620982e-06 -2.609115e-29)
(9.743458e-07 -2.263774e-07 -4.067525e-30)
(2.90936e-06 1.471993e-07 -1.651084e-29)
(4.499035e-06 6.659251e-07 -5.839607e-30)
(5.53615e-06 1.41553e-06 -1.05747e-30)
(5.926019e-06 2.390855e-06 3.667556e-29)
(5.632083e-06 3.598787e-06 3.089226e-29)
(4.697389e-06 5.014643e-06 -8.407873e-30)
(7.758697e-07 -9.011106e-08 -5.769106e-30)
(2.341489e-06 5.299749e-07 -2.886092e-30)
(3.626995e-06 1.245763e-06 5.845817e-30)
(4.457787e-06 2.137694e-06 5.988353e-30)
(4.767047e-06 3.223448e-06 0)
(4.568537e-06 4.478587e-06 -1.4192e-29)
(3.953682e-06 5.863798e-06 3.857162e-30)
(6.429889e-07 -2.084349e-09 0)
(1.957785e-06 7.748769e-07 -5.784417e-30)
(3.04726e-06 1.609781e-06 -5.884656e-30)
(3.762786e-06 2.600239e-06 5.303284e-29)
(4.070071e-06 3.732029e-06 4.969558e-29)
(4.000081e-06 4.985965e-06 -6.12612e-30)
(3.644458e-06 6.326337e-06 -9.45107e-30)
(5.543478e-07 4.861658e-08 -2.256416e-30)
(1.701681e-06 9.154371e-07 -2.896898e-30)
(2.667813e-06 1.811469e-06 0)
(3.334342e-06 2.842663e-06 -2.888878e-31)
(3.66455e-06 3.987305e-06 2.75036e-30)
(3.70418e-06 5.198312e-06 2.587048e-30)
(3.542691e-06 6.485087e-06 -1.24451e-29)
(4.927979e-07 7.16507e-08 1.208569e-30)
(1.522821e-06 9.76932e-07 -1.014301e-29)
(2.408348e-06 1.899813e-06 -2.642223e-29)
(3.041708e-06 2.925244e-06 -3.280419e-29)
(3.404074e-06 4.035383e-06 -3.96085e-30)
(3.533648e-06 5.196857e-06 0)
(3.511747e-06 6.414383e-06 1.240869e-29)
(4.485594e-07 7.41998e-08 4.199235e-30)
(1.396216e-06 9.86276e-07 6.056561e-31)
(2.227087e-06 1.897978e-06 4.84808e-31)
(2.840345e-06 2.891898e-06 0)
(3.219186e-06 3.944303e-06 -1.903517e-30)
(3.409084e-06 5.043109e-06 0)
(3.477567e-06 6.182114e-06 1.594499e-30)
(4.153877e-07 6.208755e-08 0)
(1.299128e-06 9.512333e-07 0)
(2.080902e-06 1.827071e-06 -3.0995e-30)
(2.668086e-06 2.76679e-06 0)
(3.057974e-06 3.758956e-06 -2.925996e-30)
(3.286162e-06 4.789037e-06 -1.381627e-30)
(3.407927e-06 5.848751e-06 1.112919e-30)
(3.873024e-07 4.083315e-08 -1.083423e-30)
(1.208274e-06 8.861448e-07 0)
(1.942105e-06 1.708248e-06 1.810565e-30)
(2.506658e-06 2.588295e-06 4.24837e-30)
(2.898323e-06 3.515585e-06 -1.069223e-30)
(3.147494e-06 4.476125e-06 -1.97925e-30)
(3.301474e-06 5.459971e-06 -7.453422e-31)
(3.621901e-07 1.149027e-08 4.100081e-31)
(1.126182e-06 8.036519e-07 4.89818e-31)
(1.809733e-06 1.563854e-06 0)
(2.346088e-06 2.379717e-06 6.826098e-30)
(2.729836e-06 3.241172e-06 6.029484e-30)
(2.985722e-06 4.13545e-06 -7.452427e-30)
(3.153201e-06 5.052094e-06 -1.865379e-29)
(3.34904e-07 -2.014806e-08 -5.539031e-31)
(1.041307e-06 7.109847e-07 -5.944345e-31)
(1.676715e-06 1.406845e-06 6.936423e-31)
(2.181438e-06 2.157416e-06 0)
(2.549343e-06 2.95426e-06 0)
(2.799588e-06 3.786337e-06 -3.7902e-31)
(2.960143e-06 4.650711e-06 5.030466e-29)
(3.079305e-07 -5.270529e-08 -2.665467e-31)
(9.570725e-07 6.152232e-07 -4.392596e-31)
(1.543086e-06 1.245951e-06 3.459043e-31)
(2.012876e-06 1.931923e-06 0)
(2.360062e-06 2.666584e-06 6.009888e-30)
(2.601344e-06 3.440911e-06 4.014666e-34)
(2.762186e-06 4.257548e-06 -6.333558e-30)
(2.810177e-07 -8.505315e-08 0)
(8.732504e-07 5.198992e-07 -1.154771e-31)
(1.409451e-06 1.08669e-06 1.960129e-31)
(1.841883e-06 1.710002e-06 0)
(2.164359e-06 2.385223e-06 -6.10293e-30)
(2.390866e-06 3.105134e-06 -1.216885e-29)
(2.540406e-06 3.872137e-06 -6.305466e-30)
(2.544279e-07 -1.164775e-07 -3.165743e-32)
(7.907561e-07 4.273974e-07 -1.474708e-30)
(1.277344e-06 9.325822e-07 -1.572434e-30)
(1.671137e-06 1.495972e-06 -2.979806e-30)
(1.966296e-06 2.114716e-06 -2.928533e-30)
(2.174655e-06 2.78329e-06 3.403784e-31)
(2.310042e-06 3.503591e-06 0)
(2.284605e-07 -1.464521e-07 -4.338073e-31)
(7.105732e-07 3.392454e-07 0)
(1.148726e-06 7.859574e-07 0)
(1.503871e-06 1.292741e-06 2.760806e-30)
(1.7694e-06 1.85824e-06 2.342624e-30)
(1.952946e-06 2.483584e-06 5.779835e-31)
(2.074581e-06 3.161169e-06 0)
(2.035915e-07 -1.747708e-07 -3.810432e-31)
(6.341021e-07 2.561924e-07 -1.475747e-30)
(1.026031e-06 6.48209e-07 -1.481836e-30)
(1.344432e-06 1.102011e-06 -3.042229e-30)
(1.583415e-06 1.617585e-06 -3.55205e-30)
(1.752432e-06 2.201033e-06 0)
(1.859109e-06 2.839978e-06 8.395255e-31)
(1.801097e-07 -2.012052e-07 -5.84276e-31)
(5.621693e-07 1.786009e-07 -1.695254e-30)
(9.106299e-07 5.19584e-07 -9.787624e-31)
(1.194166e-06 9.240915e-07 1.081969e-30)
(1.407205e-06 1.393303e-06 0)
(1.556585e-06 1.934289e-06 1.792728e-30)
(1.649035e-06 2.536397e-06 6.195853e-32)
(1.58239e-07 -2.258844e-07 1.128775e-30)
(4.953171e-07 1.063036e-07 6.201339e-31)
(8.035288e-07 3.998992e-07 -1.661967e-31)
(1.054552e-06 7.587317e-07 -2.285664e-30)
(1.243535e-06 1.185011e-06 -3.008552e-30)
(1.374571e-06 1.686538e-06 1.948787e-30)
(1.454805e-06 2.254619e-06 1.958098e-30)
(1.380881e-07 -2.488985e-07 6.844422e-31)
(4.339965e-07 3.895164e-08 1.575105e-30)
(7.051775e-07 2.883887e-07 7.924381e-31)
(9.254602e-07 6.046217e-07 0)
(1.088867e-06 9.936883e-07 -2.431201e-29)
(1.204431e-06 1.459509e-06 -3.061037e-29)
(1.277604e-06 1.993101e-06 -6.036995e-30)
(1.197635e-07 -2.704725e-07 1.23047e-31)
(3.784977e-07 -2.429384e-08 1.648449e-30)
(6.166597e-07 1.836414e-07 4.444624e-30)
(8.112049e-07 4.599028e-07 2.98515e-30)
(9.590367e-07 8.12979e-07 0)
(1.060893e-06 1.245903e-06 1.105808e-30)
(1.12167e-06 1.747758e-06 3.003626e-30)
(1.032764e-07 -2.909975e-07 2.335815e-31)
(3.287413e-07 -8.450579e-08 1.66737e-30)
(5.374871e-07 8.387237e-08 2.963118e-30)
(7.087522e-07 3.221166e-07 1.492e-30)
(8.389827e-07 6.394261e-07 0)
(9.286262e-07 1.040125e-06 4.221351e-30)
(9.828112e-07 1.514663e-06 5.997185e-30)
(8.859254e-08 -3.108598e-07 5.87104e-31)
(2.847108e-07 -1.428905e-07 2.781643e-30)
(4.67756e-07 -1.277335e-08 1.481605e-30)
(6.19024e-07 1.88773e-07 1.491543e-30)
(7.341677e-07 4.713384e-07 0)
(8.136846e-07 8.408708e-07 0)
(8.622812e-07 1.289463e-06 0)
(7.575425e-08 -3.305433e-07 0)
(2.464832e-07 -2.008312e-07 1.099623e-30)
(4.075561e-07 -1.086539e-07 0)
(5.421112e-07 5.654702e-08 -4.0854e-30)
(6.445859e-07 3.04992e-07 -3.042815e-30)
(7.158522e-07 6.438709e-07 -3.003872e-30)
(7.598366e-07 1.06706e-06 -4.189695e-30)
(6.477254e-08 -3.505954e-07 9.040366e-31)
(2.140403e-07 -2.60052e-07 0)
(3.562847e-07 -2.067043e-07 2.970776e-30)
(4.748021e-07 -7.79798e-08 -2.228154e-29)
(5.675795e-07 1.36885e-07 -2.292268e-29)
(6.346208e-07 4.439715e-07 0)
(6.752635e-07 8.418423e-07 -1.264707e-30)
(5.576105e-08 -3.718298e-07 9.697917e-31)
(1.882616e-07 -3.228905e-07 0)
(3.172434e-07 -3.106138e-07 1.487502e-30)
(4.284005e-07 -2.209633e-07 1.511519e-30)
(5.142374e-07 -4.119701e-08 2.659861e-30)
(5.731791e-07 2.344811e-07 -1.243802e-30)
(6.093531e-07 6.074489e-07 1.2428e-30)
(4.895055e-08 -3.952236e-07 0)
(1.695744e-07 -3.923721e-07 2.629832e-30)
(2.894048e-07 -4.252828e-07 1.4876e-30)
(3.936645e-07 -3.781737e-07 -1.787362e-30)
(4.742372e-07 -2.360483e-07 1.351884e-30)
(5.294322e-07 8.319576e-09 -1.302697e-30)
(5.620648e-07 3.568269e-07 3.875867e-32)
(4.484547e-08 -4.222616e-07 0)
(1.597609e-07 -4.727231e-07 1.207458e-30)
(2.75901e-07 -5.572013e-07 -1.170686e-30)
(3.773827e-07 -5.577232e-07 -3.35668e-31)
(4.549778e-07 -4.563359e-07 2.817447e-30)
(5.065588e-07 -2.438803e-07 2.982374e-30)
(5.347711e-07 8.13314e-08 -1.307721e-30)
(4.440478e-08 -4.548681e-07 0)
(1.617914e-07 -5.69983e-07 0)
(2.811156e-07 -7.160394e-07 -1.220575e-30)
(3.842944e-07 -7.714367e-07 1.792174e-30)
(4.605337e-07 -7.144259e-07 4.015523e-32)
(5.076696e-07 -5.339578e-07 0)
(5.292877e-07 -2.294512e-07 0)
(4.937523e-08 -4.963763e-07 9.607178e-31)
(1.806185e-07 -6.937276e-07 -1.168898e-30)
(3.121324e-07 -9.161299e-07 -2.078376e-30)
(4.216635e-07 -1.03626e-06 3.284605e-31)
(4.968046e-07 -1.027404e-06 -3.871908e-32)
(5.367607e-07 -8.772822e-07 2.978966e-30)