/*--------------------------------*- C++ -*----------------------------------*\
| =========                 |                                                 |
| \\      /  F ield         | OpenFOAM: The Open Source CFD Toolbox           |
|  \\    /   O peration     | Version:  2206                                  |
|   \\  /    A nd           | Website:  www.openfoam.com                      |
|    \\/     M anipulation  |                                                 |
\*---------------------------------------------------------------------------*/
FoamFile
{
    version     2.0;
    format      ascii;
    arch        "LSB;label=32;scalar=64";
    class       volVectorField;
    location    "1.6";
    object      U.a_0;
}
// * * * * * * * * * * * * * * * * * * * * * * * * * * * * * * * * * * * * * //

dimensions      [0 1 -1 0 0 0 0];

internalField   nonuniform List<vector> 
13078
(
(6.361996e-06 -9.324855e-05 1.479623e-27)
(6.03886e-07 -4.595392e-05 4.169974e-33)
(1.717622e-08 -2.652208e-05 -4.079141e-29)
(-3.505175e-08 -1.676562e-05 0)
(-5.223967e-08 -1.223379e-05 -1.155206e-29)
(-6.041713e-08 -9.226568e-06 -1.159768e-29)
(-6.303978e-08 -6.996814e-06 -1.162484e-29)
(-3.658108e-05 -4.071545e-05 0)
(-1.808163e-05 -3.173248e-05 -2.356763e-32)
(-6.24099e-06 -2.094968e-05 0)
(-2.657502e-06 -1.510244e-05 0)
(-1.417973e-06 -1.153469e-05 2.786778e-36)
(-8.447223e-07 -8.886189e-06 1.290424e-34)
(-5.487512e-07 -6.809331e-06 5.082426e-34)
(-1.196292e-05 -9.978553e-06 2.041723e-31)
(-1.007851e-05 -1.491061e-05 3.771927e-31)
(-6.046599e-06 -1.407971e-05 1.255968e-29)
(-3.513559e-06 -1.203233e-05 2.316097e-29)
(-2.131129e-06 -9.870073e-06 1.158257e-29)
(-1.360155e-06 -7.927711e-06 0)
(-9.126133e-07 -6.223353e-06 -6.62017e-35)
(-3.342779e-06 -3.657189e-06 -2.512035e-31)
(-5.004732e-06 -7.763053e-06 9.323378e-31)
(-4.326057e-06 -9.204441e-06 2.336926e-30)
(-3.170256e-06 -8.947497e-06 1.472484e-30)
(-2.213955e-06 -7.928811e-06 1.862457e-33)
(-1.549067e-06 -6.678577e-06 0)
(-1.103689e-06 -5.396875e-06 -3.141304e-35)
(-1.262738e-06 -1.989434e-06 -2.952513e-31)
(-2.624042e-06 -4.557584e-06 -5.683546e-31)
(-2.830253e-06 -6.037412e-06 8.884025e-31)
(-2.46541e-06 -6.439377e-06 8.733528e-34)
(-1.965211e-06 -6.130642e-06 -1.397196e-29)
(-1.50618e-06 -5.40548e-06 -2.541813e-35)
(-1.146395e-06 -4.486872e-06 1.165234e-29)
(-5.579038e-07 -1.288038e-06 0)
(-1.440432e-06 -2.898424e-06 7.411017e-31)
(-1.821099e-06 -4.076729e-06 -7.474906e-31)
(-1.809436e-06 -4.617014e-06 7.395572e-31)
(-1.606331e-06 -4.623696e-06 1.498438e-30)
(-1.346322e-06 -4.248744e-06 -1.176713e-29)
(-1.093964e-06 -3.604293e-06 -2.336693e-29)
(-2.859518e-07 -9.427334e-07 0)
(-8.425321e-07 -1.980743e-06 6.266583e-31)
(-1.189477e-06 -2.849349e-06 -1.127528e-29)
(-1.3077e-06 -3.339757e-06 -1.199683e-29)
(-1.269425e-06 -3.454142e-06 2.234019e-30)
(-1.147911e-06 -3.251025e-06 1.484174e-30)
(-9.962774e-07 -2.8023e-06 0)
(-1.671475e-07 -7.493449e-07 -1.035124e-30)
(-5.316571e-07 -1.435708e-06 6.24691e-31)
(-8.108871e-07 -2.060694e-06 6.629477e-31)
(-9.638432e-07 -2.4525e-06 0)
(-1.002874e-06 -2.573931e-06 1.547404e-30)
(-9.652463e-07 -2.439173e-06 1.487945e-30)
(-8.861568e-07 -2.090647e-06 1.485871e-30)
(-1.098014e-07 -6.302029e-07 3.234876e-32)
(-3.646772e-07 -1.08995e-06 -1.303907e-30)
(-5.854348e-07 -1.538525e-06 8.17577e-31)
(-7.360814e-07 -1.825546e-06 1.506495e-30)
(-8.090411e-07 -1.91185e-06 4.529059e-30)
(-8.195178e-07 -1.792527e-06 1.489343e-30)
(-7.884248e-07 -1.487889e-06 0)
(-8.090117e-08 -5.511892e-07 1.033998e-30)
(-2.743406e-07 -8.572229e-07 -1.268619e-30)
(-4.541968e-07 -1.17586e-06 -6.475254e-31)
(-5.928234e-07 -1.370615e-06 1.965793e-30)
(-6.781975e-07 -1.408024e-06 -3.873433e-32)
(-7.146941e-07 -1.276683e-06 0)
(-7.140575e-07 -9.848214e-07 0)
(-6.665408e-08 -4.955089e-07 0)
(-2.272947e-07 -6.920201e-07 0)
(-3.817051e-07 -9.127907e-07 -1.321599e-30)
(-5.088974e-07 -1.030147e-06 1.909177e-30)
(-5.97623e-07 -1.016822e-06 4.018457e-32)
(-6.477486e-07 -8.604171e-07 0)
(-6.65814e-07 -5.630363e-07 0)
(-6.078744e-08 -4.542206e-07 0)
(-2.061027e-07 -5.688068e-07 1.283536e-30)
(-3.469914e-07 -7.134293e-07 -1.257205e-30)
(-4.66779e-07 -7.662611e-07 -3.458066e-30)
(-5.560567e-07 -7.048791e-07 -5.934713e-32)
(-6.134294e-07 -5.179931e-07 0)
(-6.429003e-07 -2.049468e-07 1.526157e-30)
(-6.013409e-08 -4.218383e-07 0)
(-2.013824e-07 -4.72205e-07 -2.749027e-31)
(-3.37699e-07 -5.555997e-07 -1.488774e-30)
(-4.547746e-07 -5.538084e-07 -1.871502e-30)
(-5.448516e-07 -4.481861e-07 1.451485e-30)
(-6.065719e-07 -2.292295e-07 -1.420321e-30)
(-6.432647e-07 1.048142e-07 3.884016e-32)
(-6.295162e-08 -3.951872e-07 9.94773e-31)
(-2.079939e-07 -3.92777e-07 0)
(-3.463707e-07 -4.24863e-07 -1.488994e-30)
(-4.651237e-07 -3.757006e-07 -1.513664e-30)
(-5.576782e-07 -2.295808e-07 2.81905e-30)
(-6.227553e-07 2.143535e-08 -1.342404e-30)
(-6.645595e-07 3.790806e-07 1.362847e-30)
(-6.832094e-08 -3.721298e-07 9.089198e-31)
(-2.229014e-07 -3.242805e-07 0)
(-3.68016e-07 -3.116718e-07 -2.974393e-30)
(-4.889302e-07 -2.201901e-07 1.988713e-29)
(-5.852256e-07 -3.687632e-08 2.564924e-29)
(-6.575887e-07 2.461042e-07 0)
(-7.046846e-07 6.284731e-07 -1.364995e-30)
(-7.571562e-08 -3.512383e-07 0)
(-2.447719e-07 -2.624196e-07 1.083657e-30)
(-4.023925e-07 -2.091684e-07 0)
(-5.341152e-07 -7.937183e-08 1.885255e-30)
(-6.368484e-07 1.384852e-07 3.050595e-30)
(-7.121481e-07 4.537594e-07 3.013161e-30)
(-7.628976e-07 8.616103e-07 1.727137e-30)
(-8.475526e-08 -3.314511e-07 0)
(-2.72091e-07 -2.041077e-07 1.943768e-30)
(-4.452351e-07 -1.125525e-07 -1.484069e-30)
(-5.884638e-07 5.400355e-08 -1.494992e-30)
(-7.00299e-07 3.063005e-07 0)
(-7.821972e-07 6.525714e-07 0)
(-8.376112e-07 1.086087e-06 0)
(-9.532061e-08 -3.120982e-07 1.330749e-30)
(-3.044575e-07 -1.471617e-07 1.010495e-31)
(-4.964293e-07 -1.812699e-08 -2.968766e-30)
(-6.541276e-07 1.845667e-07 -1.49595e-30)
(-7.771405e-07 4.712659e-07 0)
(-8.672254e-07 8.486508e-07 -1.818695e-30)
(-9.281644e-07 1.308343e-06 -6.025365e-30)
(-1.073128e-07 -2.925792e-07 1.184323e-30)
(-3.41507e-07 -8.984163e-08 3.981819e-32)
(-5.554188e-07 7.700639e-08 -4.454249e-30)
(-7.302634e-07 3.16314e-07 -2.994126e-30)
(-8.666063e-07 6.378689e-07 0)
(-9.666794e-07 1.046981e-06 1.063033e-30)
(-1.034039e-06 1.534026e-06 -3.019643e-30)
(-1.206404e-07 -2.724539e-07 5.342329e-31)
(-3.829166e-07 -3.077515e-08 1.218876e-30)
(-6.216128e-07 1.750876e-07 6.299168e-31)
(-8.153779e-07 4.522124e-07 0)
(-9.625359e-07 8.083561e-07 2.44155e-29)
(-1.073591e-06 1.249393e-06 3.076796e-29)
(-1.153393e-06 1.767978e-06 6.073347e-30)
(-1.351633e-07 -2.512729e-07 -2.354493e-31)
(-4.284856e-07 3.124263e-08 1.633634e-30)
(-6.950993e-07 2.780282e-07 2.370052e-30)
(-9.120725e-07 5.949518e-07 3.478864e-30)
(-1.079407e-06 9.863218e-07 3.023116e-30)
(-1.203193e-06 1.461535e-06 1.821515e-30)
(-1.289931e-06 2.014318e-06 -4.036685e-30)
(-1.507476e-07 -2.288506e-07 0)
(-4.777026e-07 9.698702e-08 1.705486e-30)
(-7.74434e-07 3.872453e-07 1.714561e-30)
(-1.01557e-06 7.463864e-07 5.820635e-31)
(-1.201121e-06 1.177891e-06 0)
(-1.340083e-06 1.690779e-06 1.61257e-30)
(-1.43871e-06 2.277226e-06 6.243935e-32)
(-1.671988e-07 -2.05009e-07 -8.383722e-32)
(-5.298937e-07 1.669063e-07 0)
(-8.586779e-07 5.034798e-07 0)
(-1.125343e-06 9.077771e-07 2.923289e-30)
(-1.330264e-06 1.382327e-06 2.763526e-30)
(-1.485313e-06 1.935461e-06 0)
(-1.597597e-06 2.557933e-06 6.474421e-31)
(-1.841957e-07 -1.796957e-07 2.80167e-31)
(-5.842611e-07 2.411378e-07 0)
(-9.464148e-07 6.269601e-07 0)
(-1.239358e-06 1.079368e-06 -2.824906e-30)
(-1.463275e-06 1.599877e-06 -2.983519e-30)
(-1.628661e-06 2.192335e-06 2.652486e-31)
(-1.754434e-06 2.851669e-06 0)
(-2.014339e-07 -1.530679e-07 3.907385e-31)
(-6.398273e-07 3.193685e-07 1.47831e-30)
(-1.03608e-06 7.573084e-07 1.891994e-30)
(-1.355774e-06 1.260778e-06 2.996796e-30)
(-1.600724e-06 1.830106e-06 3.086877e-30)
(-1.785646e-06 2.462454e-06 -4.540448e-32)
(-1.923907e-06 3.161854e-06 0)
(-2.184511e-07 -1.253994e-07 0)
(-6.95246e-07 4.006841e-07 -7.192974e-31)
(-1.125136e-06 8.931271e-07 7.780839e-31)
(-1.469967e-06 1.450213e-06 0)
(-1.732559e-06 2.070744e-06 5.428985e-30)
(-1.929939e-06 2.750285e-06 1.228797e-29)
(-2.080298e-06 3.493126e-06 6.37838e-30)
(-2.349322e-07 -9.728779e-08 -8.356434e-31)
(-7.493939e-07 4.834321e-07 -1.139129e-30)
(-1.211325e-06 1.031865e-06 1.023883e-30)
(-1.578462e-06 1.644388e-06 0)
(-1.854716e-06 2.318174e-06 -6.061903e-30)
(-2.060074e-06 3.047169e-06 -4.803975e-34)
(-2.21885e-06 3.835555e-06 6.414047e-30)
(-2.50593e-07 -6.949031e-08 -1.20315e-30)
(-8.012946e-07 5.650195e-07 -1.396152e-30)
(-1.292974e-06 1.1695e-06 1.476137e-30)
(-1.678277e-06 1.838243e-06 0)
(-1.962459e-06 2.566925e-06 0)
(-2.168526e-06 3.347618e-06 -1.058206e-30)
(-2.322493e-06 4.178589e-06 -5.031549e-29)
(-2.658515e-07 -4.326109e-08 -2.637576e-30)
(-8.514059e-07 6.415368e-07 -3.373642e-30)
(-1.369667e-06 1.299847e-06 0)
(-1.767798e-06 2.024143e-06 -4.312631e-30)
(-2.053088e-06 2.808748e-06 -6.088277e-30)
(-2.254745e-06 3.644127e-06 3.174837e-30)
(-2.408779e-06 4.520783e-06 1.889493e-29)
(-2.787405e-07 -1.99065e-08 -1.89615e-30)
(-8.972279e-07 7.058124e-07 0)
(-1.441986e-06 1.413559e-06 -5.163171e-30)
(-1.847297e-06 2.190404e-06 -7.673614e-31)
(-2.123742e-06 3.030133e-06 -2.04609e-30)
(-2.306731e-06 3.922268e-06 -3.868698e-30)
(-2.440225e-06 4.858046e-06 -1.645276e-30)
(-2.949187e-07 -5.326738e-09 0)
(-9.509133e-07 7.49881e-07 0)
(-1.518068e-06 1.496815e-06 -5.363949e-30)
(-1.922982e-06 2.319242e-06 0)
(-2.178409e-06 3.210493e-06 -5.175572e-30)
(-2.325813e-06 4.15984e-06 -2.489908e-30)
(-2.417406e-06 5.160565e-06 2.185025e-30)
(-3.159765e-07 -1.324418e-09 -5.159063e-30)
(-1.011643e-06 7.609425e-07 6.200633e-31)
(-1.601834e-06 1.526887e-06 1.737753e-30)
(-2.007023e-06 2.385841e-06 0)
(-2.229615e-06 3.320548e-06 -3.189356e-30)
(-2.321013e-06 4.322373e-06 0)
(-2.345605e-06 5.387293e-06 -9.713118e-30)
(-3.491363e-07 -1.325303e-08 -3.356155e-30)
(-1.105226e-06 7.241955e-07 4.162908e-30)
(-1.724695e-06 1.481562e-06 1.034683e-29)
(-2.122563e-06 2.350576e-06 1.127308e-29)
(-2.303793e-06 3.321154e-06 2.552247e-30)
(-2.31375e-06 4.364518e-06 6.210768e-30)
(-2.229641e-06 5.487457e-06 -6.30623e-30)
(-4.017915e-07 -4.762514e-08 1.128549e-30)
(-1.254985e-06 6.29249e-07 1.448875e-30)
(-1.933315e-06 1.337514e-06 1.062089e-29)
(-2.337089e-06 2.186297e-06 4.124353e-31)
(-2.459636e-06 3.163981e-06 -1.674931e-29)
(-2.355638e-06 4.22931e-06 1.243073e-29)
(-2.108097e-06 5.394186e-06 2.527471e-29)
(-4.863513e-07 -1.119736e-07 -1.124657e-30)
(-1.492742e-06 4.496028e-07 -1.443163e-30)
(-2.273782e-06 1.068144e-06 -5.886629e-31)
(-2.704726e-06 1.846392e-06 -4.941856e-29)
(-2.778904e-06 2.776798e-06 -6.233533e-29)
(-2.538579e-06 3.847764e-06 -7.579608e-30)
(-2.066567e-06 5.031217e-06 0)
(-6.215198e-07 -2.158563e-07 0)
(-1.873152e-06 1.578169e-07 0)
(-2.837955e-06 6.23379e-07 5.927229e-30)
(-3.370672e-06 1.267052e-06 1.783051e-29)
(-3.424424e-06 2.103304e-06 6.787652e-29)
(-3.031396e-06 3.118601e-06 5.665895e-29)
(-2.260361e-06 4.312579e-06 0)
(-8.311641e-07 -3.713984e-07 -2.231317e-30)
(-2.464543e-06 -2.807572e-07 2.855245e-30)
(-3.734442e-06 -5.068524e-08 5.774953e-30)
(-4.470377e-06 4.032018e-07 0)
(-4.613327e-06 1.069788e-06 1.377516e-29)
(-4.091509e-06 1.991583e-06 -1.271178e-29)
(-2.953363e-06 3.143754e-06 -2.534773e-29)
(-1.143746e-06 -5.94818e-07 -2.883497e-30)
(-3.350853e-06 -9.13465e-07 2.841385e-30)
(-5.10366e-06 -1.029637e-06 -6.790571e-30)
(-6.201632e-06 -8.593949e-07 0)
(-6.548285e-06 -4.183422e-07 1.944108e-29)
(-5.994526e-06 3.295227e-07 -7.71159e-29)
(-4.544391e-06 1.34239e-06 -1.262349e-28)
(-1.587769e-06 -9.094874e-07 -3.287925e-30)
(-4.61983e-06 -1.812785e-06 -4.061711e-30)
(-7.096383e-06 -2.432804e-06 -7.34801e-30)
(-8.789268e-06 -2.689706e-06 -1.138762e-29)
(-9.574482e-06 -2.613695e-06 -2.295806e-29)
(-9.212511e-06 -2.16703e-06 -2.738105e-29)
(-7.468962e-06 -1.295879e-06 -5.399171e-29)
(-2.176833e-06 -1.349772e-06 0)
(-6.326499e-06 -3.095345e-06 5.614555e-31)
(-9.816056e-06 -4.457989e-06 7.445221e-30)
(-1.236869e-05 -5.364748e-06 5.784872e-30)
(-1.39387e-05 -5.951644e-06 -2.254938e-29)
(-1.459669e-05 -6.482228e-06 -1.665381e-29)
(-1.366402e-05 -6.781724e-06 0)
(-2.906181e-06 -1.976705e-06 6.472397e-30)
(-8.45551e-06 -4.942455e-06 -7.761014e-30)
(-1.322427e-05 -7.427994e-06 -1.583812e-29)
(-1.745187e-05 -9.779379e-06 2.362411e-29)
(-2.16948e-05 -1.271472e-05 -4.678031e-29)
(-2.728989e-05 -1.809815e-05 4.034559e-30)
(-3.387235e-05 -2.731718e-05 1.444524e-28)
(-3.757132e-06 -2.908749e-06 4.889433e-30)
(-1.094878e-05 -7.695555e-06 -3.241377e-30)
(-1.845372e-05 -1.287194e-05 0)
(-2.870143e-05 -2.087162e-05 1.134931e-29)
(-4.702548e-05 -3.777832e-05 1.75684e-28)
(-7.775127e-05 -7.154122e-05 4.496699e-28)
(-0.0001125533 -0.0001220749 4.147566e-28)
(-4.970842e-06 -4.642316e-06 -1.029454e-29)
(-1.612461e-05 -1.396763e-05 1.163111e-29)
(-3.381073e-05 -2.983511e-05 2.357068e-29)
(-6.859412e-05 -6.428084e-05 -6.526218e-28)
(-0.000130679 -0.000132915 1.827141e-28)
(-0.0001978849 -0.0002220979 -4.902521e-28)
(-0.0002352848 -0.0003030867 4.633214e-29)
(-8.79246e-06 -9.848357e-06 -2.348001e-29)
(-3.303159e-05 -3.498359e-05 0)
(-8.224679e-05 -8.809551e-05 1.0811e-28)
(-0.0001701131 -0.000189134 1.536713e-28)
(-0.000262406 -0.0003108131 -8.907139e-28)
(-0.0003151923 -0.0004050744 -2.125716e-27)
(-0.0003272992 -0.0004686944 1.082538e-27)
(-2.016924e-05 -2.546905e-05 0)
(-7.873686e-05 -9.600499e-05 1.098117e-28)
(-0.0001785332 -0.0002192863 1.370481e-28)
(-0.0002878407 -0.0003619722 -1.712103e-30)
(-0.0003575233 -0.0004719766 -1.224234e-28)
(-0.0003888321 -0.0005503495 -1.047343e-29)
(-0.00039193 -0.0006070458 2.867287e-27)
(-4.640806e-05 -6.210831e-05 0)
(-0.0001554365 -0.0002087686 -6.335568e-32)
(-0.0002759145 -0.0003770459 2.604847e-28)
(-0.0003619078 -0.0005058479 3.132481e-29)
(-0.0004111897 -0.0005938208 -5.657243e-29)
(-0.0004356151 -0.0006666328 -4.977266e-28)
(-0.0004396091 -0.0007310259 1.895417e-27)
(-8.617208e-05 -0.0001178163 -3.86816e-28)
(-0.0002267795 -0.0003267087 -1.956147e-29)
(-0.000333116 -0.0004964826 -7.183735e-28)
(-0.0003984263 -0.0006116308 -1.450826e-28)
(-0.0004407598 -0.0006960962 -3.431811e-29)
(-0.0004653129 -0.0007716353 -3.60203e-28)
(-0.0004747496 -0.000848101 -2.547436e-28)
(-0.0001224497 -0.0001705673 3.201892e-29)
(-0.0002695065 -0.0004132575 1.671364e-28)
(-0.0003588046 -0.0005792658 -4.962622e-28)
(-0.0004141642 -0.0006937661 -1.707704e-29)
(-0.0004541842 -0.0007873934 -3.818314e-28)
(-0.0004819697 -0.0008739444 2.997622e-29)
(-0.0004968021 -0.0009567805 2.742891e-29)
(-0.0001400448 -0.0002009527 1.302329e-27)
(-0.0002833617 -0.0004640921 5.966104e-28)
(-0.0003639046 -0.0006397743 -4.526559e-28)
(-0.0004157353 -0.0007637868 6.166632e-30)
(-0.0004541284 -0.0008678214 -2.920439e-28)
(-0.0004840951 -0.0009642129 -2.620556e-28)
(-0.0005038525 -0.001053248 -2.347583e-31)
(-0.0001376172 -0.0002057474 -7.852482e-29)
(-0.0002764732 -0.0004866847 1.008801e-27)
(-0.0003537189 -0.0006836198 -4.040823e-28)
(-0.0004035817 -0.0008237376 2.92276e-28)
(-0.0004412074 -0.0009373948 3.792086e-34)
(-0.0004720484 -0.001037415 -2.235035e-28)
(-0.0004964596 -0.001129588 -2.789153e-30)
(-0.0001207327 -0.0001925375 -3.004024e-28)
(-0.0002524462 -0.0004842127 6.752585e-28)
(-0.000329816 -0.0007093682 7.033091e-28)
(-0.0003792426 -0.000870462 2.578211e-28)
(-0.0004151636 -0.0009933563 -2.017018e-28)
(-0.0004462031 -0.001097596 -1.609671e-28)
(-0.0004754403 -0.001190723 9.140852e-29)
(-9.556782e-05 -0.0001702406 1.617455e-28)
(-0.0002148775 -0.0004664366 -1.903703e-29)
(-0.0002915547 -0.0007206001 4.189597e-28)
(-0.0003380814 -0.0009001169 -3.470564e-30)
(-0.0003716972 -0.001032456 -1.083221e-28)
(-0.0004020383 -0.001142382 5.800112e-29)
(-0.0004348154 -0.001237268 -7.496124e-31)
(-7.044713e-05 -0.0001495726 -1.178807e-28)
(-0.0001715707 -0.0004416293 -1.381404e-28)
(-0.0002404297 -0.0007103584 -1.169049e-28)
(-0.0002825709 -0.0009091902 5.846181e-29)
(-0.0003127457 -0.001053048 -6.963084e-29)
(-0.0003407268 -0.00116917 -1.789595e-28)
(-0.0003740581 -0.001270122 3.229352e-28)
(-4.895364e-05 -0.0001333 -6.7526e-29)
(-0.0001284419 -0.0004180471 -7.341414e-30)
(-0.0001871473 -0.0006985622 1.163696e-29)
(-0.0002240901 -0.0009111532 5.463508e-29)
(-0.0002499035 -0.001063974 3.511314e-29)
(-0.0002739461 -0.001184077 3.956952e-29)
(-0.0003011117 -0.001290104 -1.174134e-28)
(-3.133699e-05 -0.000121914 1.287763e-29)
(-8.679495e-05 -0.0003987937 -2.915257e-30)
(-0.0001307841 -0.0006854896 2.874006e-29)
(-0.0001596502 -0.000907808 1.644547e-29)
(-0.0001798819 -0.001067826 2.497172e-29)
(-0.0001983848 -0.001191291 1.736005e-30)
(-0.0002186186 -0.001299733 1.576989e-31)
(-1.529246e-05 -0.0001152588 -1.913263e-29)
(-4.494926e-05 -0.0003859963 1.171716e-29)
(-7.04764e-05 -0.0006742299 6.205937e-30)
(-8.824231e-05 -0.0009011378 -1.199718e-29)
(-0.0001007483 -0.001065229 -1.388384e-31)
(-0.0001114381 -0.001190609 4.430485e-29)
(-0.0001223502 -0.001300018 -1.44113e-28)
(-3.746557e-08 -0.0001148268 -2.976954e-29)
(-3.805634e-06 -0.0003839673 7.624005e-30)
(-9.27471e-06 -0.000670162 1.917505e-29)
(-1.432942e-05 -0.0008959461 -1.421353e-29)
(-1.781536e-05 -0.001059901 -1.698797e-29)
(-1.961089e-05 -0.001185436 4.393941e-29)
(-2.00383e-05 -0.0012948 -1.601129e-28)
(1.50886e-05 -0.0001213579 -1.062951e-29)
(3.639951e-05 -0.000394179 -1.688861e-29)
(4.976518e-05 -0.0006744271 -1.293916e-29)
(5.650779e-05 -0.0008930815 -3.15926e-29)
(6.112363e-05 -0.001052529 3.710504e-30)
(6.692269e-05 -0.001176403 -4.781789e-29)
(7.508219e-05 -0.001284801 -3.931737e-29)
(3.245327e-05 -0.0001325418 1.342756e-28)
(7.819687e-05 -0.0004101971 -1.538541e-28)
(0.0001075824 -0.0006797156 5.695332e-30)
(0.0001235818 -0.0008865215 -1.792956e-29)
(0.0001341695 -0.001039068 1.360587e-28)
(0.0001449589 -0.001160721 -5.779558e-30)
(0.0001586358 -0.001267938 -5.464285e-29)
(5.312205e-05 -0.0001474543 1.452366e-28)
(0.0001209001 -0.000427949 -3.551497e-28)
(0.0001624356 -0.0006815191 3.868398e-29)
(0.0001854243 -0.0008732634 2.396347e-29)
(0.000201052 -0.001017873 9.00437e-29)
(0.000215496 -0.001138005 6.699412e-30)
(0.0002344563 -0.001243433 -2.620431e-28)
(7.534112e-05 -0.000165187 -2.029344e-29)
(0.0001610311 -0.0004443114 -2.753731e-28)
(0.0002123008 -0.0006797948 -5.323258e-29)
(0.0002423442 -0.0008520156 4.367511e-29)
(0.0002635623 -0.0009862419 2.896365e-28)
(0.0002818641 -0.001101979 5.262008e-28)
(0.0003017564 -0.00120437 2.823352e-28)
(9.563706e-05 -0.0001822905 -4.514255e-28)
(0.0001949446 -0.0004537749 -5.133567e-28)
(0.0002514383 -0.0006601393 2.463057e-30)
(0.000288004 -0.0008118047 3.405612e-28)
(0.000314629 -0.0009346806 -5.083465e-29)
(0.0003365399 -0.001044959 1.779771e-28)
(0.0003552359 -0.001148489 -1.413287e-28)
(0.0001065477 -0.0001856284 -1.076402e-27)
(0.0002163233 -0.0004425343 5.381198e-29)
(0.0002784092 -0.0006228119 -1.660551e-29)
(0.000319504 -0.0007545608 6.692354e-28)
(0.0003507597 -0.0008671632 3.310974e-28)
(0.0003755483 -0.0009725367 -2.62067e-28)
(0.0003928447 -0.001076341 -2.631614e-29)
(0.000101821 -0.0001658075 -7.312835e-29)
(0.0002202097 -0.0004029266 1.086282e-27)
(0.0002910283 -0.0005673331 -3.820123e-29)
(0.0003376514 -0.0006848476 7.251577e-28)
(0.0003726481 -0.0007862141 3.718486e-28)
(0.0004004145 -0.0008857468 -2.410019e-30)
(0.0004192323 -0.0009845266 3.00713e-28)
(7.967874e-05 -0.0001221452 -3.389589e-29)
(0.0002011839 -0.0003319986 1.030283e-27)
(0.0002862049 -0.0004930382 -5.198357e-28)
(0.0003407015 -0.0006051809 8.773236e-28)
(0.0003810621 -0.000695499 -6.276676e-29)
(0.0004112979 -0.0007803992 7.450384e-28)
(0.0004314729 -0.0008668882 7.413787e-28)
(4.879519e-05 -7.030869e-05 -2.682512e-28)
(0.0001538123 -0.0002296747 3.877984e-28)
(0.000256436 -0.0003927406 -5.694764e-28)
(0.0003264551 -0.0005104042 6.027221e-28)
(0.0003739488 -0.0005930937 -3.718472e-29)
(0.0004051004 -0.0006645488 4.236842e-28)
(0.0004233339 -0.0007385136 -8.35039e-30)
(2.420267e-05 -3.227689e-05 0)
(9.088454e-05 -0.0001212306 -5.438696e-30)
(0.0001915563 -0.0002580424 -4.632672e-28)
(0.0002842711 -0.0003871034 -3.08429e-28)
(0.0003448195 -0.000477818 4.306176e-29)
(0.0003798032 -0.0005488551 7.800066e-29)
(0.000396125 -0.0006075922 8.246948e-28)
(1.148459e-05 -1.354555e-05 0)
(4.326414e-05 -4.948303e-05 -6.922541e-29)
(0.0001053729 -0.000121327 -1.243393e-28)
(0.0001996346 -0.0002333899 -1.728434e-28)
(0.0002814447 -0.0003405079 -6.598915e-28)
(0.000330395 -0.0004197507 -7.545028e-28)
(0.0003517586 -0.0004734071 1.16016e-27)
(6.399405e-06 -6.268588e-06 -1.378959e-29)
(2.162021e-05 -2.002142e-05 0)
(4.757993e-05 -4.455142e-05 0)
(9.948128e-05 -9.700219e-05 -2.377274e-28)
(0.0001763006 -0.0001811079 -8.320026e-29)
(0.0002433987 -0.0002640985 1.279606e-28)
(0.0002795785 -0.0003263695 1.716423e-27)
(4.583985e-06 -3.599307e-06 -7.199175e-30)
(1.378934e-05 -9.951855e-06 -8.173916e-30)
(2.503237e-05 -1.794137e-05 -1.374833e-29)
(4.296744e-05 -3.22196e-05 -2.265411e-28)
(7.644714e-05 -6.193285e-05 -6.644928e-28)
(0.0001267348 -0.0001117203 -3.199366e-28)
(0.0001714122 -0.0001675512 -1.1262e-27)
(3.756639e-06 -2.416358e-06 0)
(1.081722e-05 -6.12891e-06 7.485137e-30)
(1.741028e-05 -9.491196e-06 0)
(2.419399e-05 -1.308403e-05 -2.256187e-29)
(3.375264e-05 -1.918135e-05 -4.16668e-29)
(4.865676e-05 -3.083069e-05 2.243063e-28)
(6.816204e-05 -4.963491e-05 1.629936e-28)
(2.975606e-06 -1.623676e-06 0)
(8.619734e-06 -3.863307e-06 -4.672352e-30)
(1.351166e-05 -5.590527e-06 5.877002e-30)
(1.736849e-05 -6.730277e-06 0)
(2.053239e-05 -7.641296e-06 -3.496541e-29)
(2.319531e-05 -8.601591e-06 -9.191859e-29)
(2.540346e-05 -1.017183e-05 -5.530628e-29)
(2.307496e-06 -1.07145e-06 0)
(6.664394e-06 -2.257673e-06 -1.435695e-29)
(1.033995e-05 -3.041123e-06 -2.255975e-31)
(1.306424e-05 -3.317085e-06 -3.237057e-29)
(1.461102e-05 -3.041318e-06 -2.425602e-29)
(1.499428e-05 -2.392783e-06 6.044566e-30)
(1.382348e-05 -1.305157e-06 -1.303477e-28)
(1.771654e-06 -6.791583e-07 3.591402e-30)
(5.105029e-06 -1.127641e-06 -1.005809e-29)
(7.838045e-06 -1.281813e-06 1.135788e-31)
(9.743298e-06 -1.035483e-06 -2.083565e-30)
(1.067742e-05 -3.92128e-07 0)
(1.056684e-05 5.707944e-07 0)
(9.008364e-06 1.989426e-06 2.132769e-29)
(1.366578e-06 -3.993772e-07 8.76662e-31)
(3.942283e-06 -3.348986e-07 -6.88901e-30)
(6.00373e-06 -5.917995e-08 3.962645e-30)
(7.352688e-06 5.197943e-07 4.000902e-30)
(7.901498e-06 1.387922e-06 0)
(7.552387e-06 2.543043e-06 0)
(6.275235e-06 3.934676e-06 -2.4163e-29)
(1.076429e-06 -2.029187e-07 -2.832799e-30)
(3.118203e-06 2.187034e-07 -1.492255e-29)
(4.724714e-06 7.859744e-07 -5.799057e-30)
(5.730272e-06 1.584516e-06 -2.479574e-30)
(6.077604e-06 2.606731e-06 3.624306e-29)
(5.743687e-06 3.849757e-06 3.313588e-29)
(4.762656e-06 5.267683e-06 -9.467748e-30)
(8.753466e-07 -6.934044e-08 -4.644305e-30)
(2.549878e-06 5.934345e-07 -2.874108e-30)
(3.860216e-06 1.352433e-06 5.80632e-30)
(4.668876e-06 2.28752e-06 5.931638e-30)
(4.941857e-06 3.414003e-06 0)
(4.706072e-06 4.698175e-06 -1.281129e-29)
(4.048116e-06 6.085723e-06 2.731213e-30)
(7.383751e-07 1.642863e-08 0)
(2.160954e-06 8.315751e-07 -5.762157e-30)
(3.280452e-06 1.705396e-06 -5.846867e-30)
(3.98081e-06 2.734972e-06 5.025145e-29)
(4.25713e-06 3.902699e-06 4.917979e-29)
(4.153058e-06 5.181621e-06 -8.095632e-30)
(3.757941e-06 6.524053e-06 -1.023371e-29)
(6.443112e-07 6.497203e-08 -2.253724e-30)
(1.895658e-06 9.6571e-07 -2.886326e-30)
(2.89422e-06 1.896438e-06 0)
(3.550166e-06 2.962572e-06 -2.858643e-31)
(3.853256e-06 4.138826e-06 1.736689e-30)
(3.862328e-06 5.371607e-06 1.649117e-30)
(3.664692e-06 6.659767e-06 -1.226599e-29)
(5.764384e-07 8.594819e-08 3.874178e-31)
(1.704754e-06 1.021037e-06 -9.099715e-30)
(2.622982e-06 1.974625e-06 -2.826243e-29)
(3.248546e-06 3.030498e-06 -3.067939e-29)
(3.587214e-06 4.168139e-06 -4.796991e-30)
(3.689221e-06 5.348587e-06 0)
(3.634186e-06 6.566798e-06 1.22468e-29)
(5.254231e-07 8.656585e-08 3.459012e-30)
(1.564735e-06 1.024639e-06 1.516436e-30)
(2.426684e-06 1.962984e-06 -4.004946e-31)
(3.033678e-06 2.983185e-06 0)
(3.391856e-06 4.059372e-06 -1.11005e-30)
(3.556911e-06 5.174611e-06 0)
(3.595021e-06 6.313705e-06 9.227891e-31)
(4.853967e-07 7.266028e-08 0)
(1.453331e-06 9.841686e-07 0)
(2.263797e-06 1.8829e-06 -1.519711e-30)
(2.845924e-06 2.84515e-06 0)
(3.217516e-06 3.857883e-06 -1.516386e-30)
(3.423275e-06 4.902187e-06 -7.280423e-31)
(3.517203e-06 5.961601e-06 5.172985e-31)
(4.509133e-07 4.984271e-08 -4.899226e-31)
(1.347939e-06 9.141506e-07 0)
(2.107933e-06 1.755756e-06 2.500316e-30)
(2.668254e-06 2.655116e-06 3.563534e-30)
(3.043638e-06 3.600219e-06 -4.42738e-31)
(3.272717e-06 4.573324e-06 -8.196533e-31)
(3.401753e-06 5.557286e-06 -2.153991e-31)
(4.195524e-07 1.908157e-08 9.396307e-31)
(1.251809e-06 8.273155e-07 1.136761e-30)
(1.958904e-06 1.60406e-06 0)
(2.491592e-06 2.436469e-06 6.201602e-30)
(2.860883e-06 3.313515e-06 5.991016e-30)
(3.099171e-06 4.219521e-06 -6.375883e-30)
(3.245413e-06 5.138219e-06 -1.84942e-29)
(3.862256e-07 -1.380641e-08 -8.113648e-32)
(1.153632e-06 7.30847e-07 -1.614872e-32)
(1.810087e-06 1.440723e-06 1.369898e-31)
(2.311537e-06 2.205499e-06 0)
(2.66668e-06 3.016214e-06 0)
(2.901967e-06 3.859947e-06 8.078459e-32)
(3.045549e-06 4.729757e-06 4.951126e-29)
(3.536619e-07 -4.743854e-08 1.54219e-31)
(1.057099e-06 6.318206e-07 7.556196e-32)
(1.661765e-06 1.274391e-06 -1.491694e-31)
(2.128518e-06 1.972534e-06 0)
(2.464354e-06 2.719523e-06 5.978995e-30)
(2.692868e-06 3.505254e-06 3.453323e-34)
(2.840179e-06 4.329774e-06 -6.289569e-30)
(3.216488e-07 -8.069687e-08 0)
(9.620558e-07 5.337228e-07 3.423147e-31)
(1.514671e-06 1.110494e-06 -2.446602e-31)
(1.944189e-06 1.744181e-06 0)
(2.256415e-06 2.430202e-06 -5.683375e-30)
(2.47169e-06 3.160713e-06 -1.210251e-29)
(2.609889e-06 3.936233e-06 -6.266293e-30)
(2.904606e-07 -1.128824e-07 -3.644794e-31)
(8.694317e-07 4.388956e-07 -1.472534e-30)
(1.3704e-06 9.524863e-07 -1.960478e-30)
(1.761365e-06 1.52469e-06 -2.969979e-30)
(2.04718e-06 2.152774e-06 -2.916478e-30)
(2.245392e-06 2.830802e-06 6.629964e-31)
(2.370742e-06 3.559128e-06 0)
(2.603739e-07 -1.434877e-07 -1.02532e-30)
(7.80177e-07 3.488156e-07 0)
(1.230904e-06 8.026265e-07 0)
(1.583325e-06 1.316906e-06 2.421254e-30)
(1.840323e-06 1.890445e-06 1.710703e-30)
(2.014417e-06 2.524069e-06 8.676866e-31)
(2.126963e-06 3.20871e-06 0)
(2.318306e-07 -1.72324e-07 -6.437705e-31)
(6.956272e-07 2.641781e-07 -1.474014e-30)
(1.098547e-06 6.622153e-07 -1.478975e-30)
(1.414353e-06 1.122412e-06 -3.034198e-30)
(1.645562e-06 1.644891e-06 -3.818309e-30)
(1.805836e-06 2.235527e-06 0)
(1.904067e-06 2.880534e-06 1.067332e-30)
(2.050839e-07 -1.991793e-07 -5.840711e-31)
(6.165276e-07 1.852923e-07 -1.40718e-30)
(9.745996e-07 5.314122e-07 -7.011883e-31)
(1.255695e-06 9.414051e-07 1.604123e-30)
(1.461672e-06 1.41657e-06 0)
(1.603077e-06 1.963766e-06 2.018809e-30)
(1.687823e-06 2.571144e-06 6.169927e-32)
(1.803198e-07 -2.242006e-07 1.335779e-30)
(5.433341e-07 1.119414e-07 1.128229e-30)
(8.599651e-07 4.099556e-07 3.244931e-31)
(1.108729e-06 7.735334e-07 -2.047551e-30)
(1.291323e-06 1.204982e-06 -3.000659e-30)
(1.415124e-06 1.711895e-06 2.149383e-30)
(1.488405e-06 2.284602e-06 1.768377e-30)
(1.576061e-07 -2.474922e-07 8.682857e-31)
(4.764099e-07 4.373326e-08 2.025517e-30)
(7.549816e-07 2.970068e-07 1.009237e-30)
(9.731964e-07 6.173841e-07 0)
(1.130757e-06 1.010996e-06 -2.425786e-29)
(1.23981e-06 1.481493e-06 -3.052846e-29)
(1.306803e-06 2.019161e-06 -6.018024e-30)
(1.370104e-07 -2.692899e-07 2.862987e-31)
(4.159531e-07 -2.020703e-08 1.847689e-30)
(6.60608e-07 1.910838e-07 4.439205e-30)
(8.532722e-07 4.709838e-07 2.980159e-30)
(9.958043e-07 8.28073e-07 0)
(1.091744e-06 1.265095e-06 1.2634e-30)
(1.147103e-06 1.770576e-06 2.995177e-30)
(1.185096e-07 -2.899944e-07 3.782991e-31)
(3.618028e-07 -8.097908e-08 1.844092e-30)
(5.762498e-07 9.036163e-08 2.959894e-30)
(7.458072e-07 3.318237e-07 1.489775e-30)
(8.712898e-07 6.526856e-07 0)
(9.556317e-07 1.057018e-06 4.353984e-30)
(1.005025e-06 1.534817e-06 5.982114e-30)
(1.020384e-07 -3.099969e-07 5.86988e-31)
(3.138749e-07 -1.398049e-07 3.095221e-30)
(5.019219e-07 -7.040419e-09 1.480168e-30)
(6.516427e-07 1.97382e-07 1.489557e-30)
(7.625467e-07 4.831207e-07 0)
(8.373459e-07 8.559086e-07 0)
(8.817149e-07 1.307446e-06 0)
(8.761092e-08 -3.29785e-07 0)
(2.721831e-07 -1.980783e-07 1.238617e-30)
(4.376383e-07 -1.034957e-07 0)
(5.707921e-07 6.431217e-08 -4.209747e-30)
(6.694829e-07 3.156179e-07 -3.038291e-30)
(7.365651e-07 6.574369e-07 -2.99857e-30)
(7.76829e-07 1.083297e-06 -4.281701e-30)
(7.521134e-08 -3.499076e-07 1.004326e-30)
(2.366454e-07 -2.575293e-07 0)
(3.827136e-07 -2.019502e-07 2.968485e-30)
(4.999237e-07 -7.081013e-08 -2.237418e-29)
(5.893247e-07 1.466563e-07 -2.27848e-29)
(6.526848e-07 4.564119e-07 0)
(6.900673e-07 8.567172e-07 -1.351293e-30)
(6.49276e-08 -3.71181e-07 1.058343e-30)
(2.080795e-07 -3.205011e-07 0)
(3.403711e-07 -3.061045e-07 1.486473e-30)
(4.503078e-07 -2.14174e-07 1.510079e-30)
(5.330945e-07 -3.199276e-08 2.846324e-30)
(5.888214e-07 2.461341e-07 -1.328944e-30)
(6.221552e-07 6.21331e-07 1.319291e-30)
(5.696584e-08 -3.945801e-07 0)
(1.868564e-07 -3.900124e-07 2.72501e-30)
(3.095105e-07 -4.208455e-07 1.486676e-30)
(4.126258e-07 -3.715354e-07 -1.875755e-30)
(4.904648e-07 -2.271207e-07 1.433859e-30)
(5.428321e-07 1.953275e-08 -1.377643e-30)
(5.729998e-07 3.700897e-07 3.870037e-32)
(5.180847e-08 -4.215852e-07 0)
(1.74707e-07 -4.702751e-07 1.291629e-30)
(2.931983e-07 -5.526405e-07 -1.252031e-30)
(3.935817e-07 -5.509692e-07 -4.1447e-31)
(4.687281e-07 -4.473564e-07 2.888089e-30)
(5.178294e-07 -2.327377e-07 2.978979e-30)
(5.439204e-07 9.436218e-08 -1.366848e-30)
(5.039358e-08 -4.541123e-07 0)
(1.745497e-07 -5.673062e-07 0)
(2.95749e-07 -7.111263e-07 -1.291869e-30)
(3.978414e-07 -7.642605e-07 1.860222e-30)
(4.71883e-07 -7.050288e-07 4.011818e-32)
(5.168599e-07 -5.224856e-07 0)
(5.366818e-07 -2.162413e-07 0)
(5.444419e-08 -4.954837e-07 1.013395e-30)
(1.912751e-07 -6.9065e-07 -1.233432e-30)
(3.241658e-07 -9.105868e-07 -2.108856e-30)
(4.325855e-07 -1.028297e-06 3.887144e-31)