/*--------------------------------*- C++ -*----------------------------------*\
| =========                 |                                                 |
| \\      /  F ield         | OpenFOAM: The Open Source CFD Toolbox           |
|  \\    /   O peration     | Version:  2206                                  |
|   \\  /    A nd           | Website:  www.openfoam.com                      |
|    \\/     M anipulation  |                                                 |
\*---------------------------------------------------------------------------*/
FoamFile
{
    version     2.0;
    format      ascii;
    arch        "LSB;label=32;scalar=64";
    class       volVectorField;
    location    "1.6";
    object      U.b;
}
// * * * * * * * * * * * * * * * * * * * * * * * * * * * * * * * * * * * * * //

dimensions      [0 1 -1 0 0 0 0];

internalField   nonuniform List<vector> 
13078
(
(-4.908265e-06 3.579746e-05 -4.381145e-27)
(-2.087995e-06 2.310476e-05 2.158407e-30)
(-1.651089e-06 2.398987e-05 2.521255e-27)
(-1.838523e-06 1.081645e-05 0)
(-2.008559e-06 3.185915e-06 3.79423e-28)
(-2.202646e-06 -8.655107e-07 2.015082e-28)
(-2.421603e-06 -3.87208e-06 6.810177e-29)
(9.48979e-06 -1.816319e-06 0)
(1.102332e-05 2.414742e-05 -2.322216e-29)
(4.169962e-06 1.856692e-05 0)
(3.534239e-07 8.962282e-06 0)
(-8.579496e-07 2.978981e-06 -4.434602e-31)
(-1.470435e-06 -9.611388e-07 2.49126e-31)
(-1.893599e-06 -3.988066e-06 1.06705e-30)
(4.055248e-05 4.432094e-06 2.688781e-27)
(1.952077e-05 1.282705e-05 -1.550032e-27)
(7.554205e-06 1.07356e-05 -6.237158e-28)
(2.767003e-06 6.449628e-06 -9.214608e-28)
(6.410887e-07 2.322858e-06 -2.976769e-28)
(-4.808869e-07 -1.181021e-06 0)
(-1.184472e-06 -4.106712e-06 2.488526e-34)
(2.665651e-05 3.621965e-06 1.530951e-27)
(1.623902e-05 7.864749e-06 -2.205203e-27)
(9.023341e-06 7.136344e-06 -1.446164e-27)
(4.63066e-06 4.656284e-06 -4.401302e-28)
(2.206843e-06 1.543507e-06 6.985759e-30)
(7.221351e-07 -1.516421e-06 0)
(-2.616414e-07 -4.294928e-06 6.577861e-31)
(1.995619e-05 2.60336e-06 3.36429e-30)
(1.472855e-05 5.484296e-06 -8.719952e-28)
(9.929542e-06 5.096466e-06 -1.319827e-27)
(6.312689e-06 3.237842e-06 -8.925409e-28)
(3.765324e-06 7.401779e-07 4.877689e-28)
(2.095393e-06 -1.992442e-06 -9.175339e-33)
(8.598607e-07 -4.621708e-06 9.169409e-30)
(1.767149e-05 1.76438e-06 0)
(1.445343e-05 3.680497e-06 -9.745938e-30)
(1.092941e-05 3.390555e-06 1.119796e-29)
(7.870761e-06 1.905737e-06 -5.001717e-28)
(5.463514e-06 -2.463175e-07 -1.27083e-29)
(3.568836e-06 -2.646589e-06 3.271289e-29)
(2.146825e-06 -5.14674e-06 -9.979424e-29)
(1.678781e-05 1.112663e-06 0)
(1.468767e-05 2.215851e-06 -7.912073e-28)
(1.203821e-05 1.832189e-06 -5.629899e-28)
(9.443977e-06 5.586628e-07 9.201153e-29)
(7.146185e-06 -1.367966e-06 -4.325705e-28)
(5.211981e-06 -3.592455e-06 2.322334e-30)
(3.53121e-06 -5.890552e-06 0)
(1.673737e-05 6.18961e-07 1.710949e-27)
(1.528751e-05 1.027349e-06 -8.021059e-28)
(1.323989e-05 4.341439e-07 -7.126172e-28)
(1.101624e-05 -8.402157e-07 0)
(8.846894e-06 -2.641069e-06 -9.904161e-28)
(6.879002e-06 -4.735696e-06 8.486327e-30)
(5.082909e-06 -6.955544e-06 1.658841e-29)
(1.729536e-05 2.348262e-07 1.630588e-32)
(1.62255e-05 4.369142e-08 1.676351e-27)
(1.457745e-05 -8.528133e-07 7.640548e-28)
(1.26311e-05 -2.22747e-06 2.550481e-30)
(1.058399e-05 -4.018393e-06 -2.266992e-27)
(8.599595e-06 -6.068932e-06 1.473658e-29)
(6.682959e-06 -8.245347e-06 0)
(1.835248e-05 -7.995515e-08 -1.8607e-27)
(1.750017e-05 -8.056605e-07 1.791023e-27)
(1.610634e-05 -2.046468e-06 8.321238e-28)
(1.435608e-05 -3.607016e-06 -1.49164e-27)
(1.239601e-05 -5.483818e-06 -4.106194e-31)
(1.039276e-05 -7.567728e-06 0)
(8.365907e-06 -9.759894e-06 0)
(1.985293e-05 -3.554499e-07 0)
(1.91204e-05 -1.572338e-06 0)
(1.787921e-05 -3.180044e-06 1.829233e-27)
(1.624759e-05 -4.992443e-06 -1.664487e-27)
(1.43316e-05 -7.032068e-06 5.973248e-31)
(1.229237e-05 -9.219936e-06 0)
(1.015299e-05 -1.148517e-05 0)
(2.177411e-05 -6.091224e-07 0)
(2.110076e-05 -2.296199e-06 -2.138632e-27)
(1.993616e-05 -4.290525e-06 2.027383e-27)
(1.835832e-05 -6.404453e-06 1.843324e-27)
(1.644141e-05 -8.670025e-06 -1.702458e-27)
(1.433932e-05 -1.102424e-05 0)
(1.207376e-05 -1.341623e-05 1.311303e-27)
(2.411514e-05 -8.546429e-07 0)
(2.345888e-05 -3.008623e-06 -2.381479e-27)
(2.231525e-05 -5.410664e-06 -1.660004e-29)
(2.073627e-05 -7.867665e-06 2.091364e-27)
(1.877633e-05 -1.041341e-05 -1.899508e-27)
(1.657679e-05 -1.299e-05 1.674434e-27)
(1.416205e-05 -1.555824e-05 1.363749e-30)
(2.688912e-05 -1.102089e-06 -2.713262e-27)
(2.621985e-05 -3.734081e-06 0)
(2.505415e-05 -6.569727e-06 -2.060243e-29)
(2.342189e-05 -9.407583e-06 -2.971893e-29)
(2.139029e-05 -1.228019e-05 -4.307259e-27)
(1.904802e-05 -1.513545e-05 1.914782e-27)
(1.645455e-05 -1.792653e-05 -1.647e-27)
(3.012092e-05 -1.359037e-06 -3.038319e-27)
(2.94168e-05 -4.493077e-06 0)
(2.819896e-05 -7.80028e-06 -4.9432e-29)
(2.646773e-05 -1.107939e-05 3.130915e-27)
(2.437392e-05 -1.426497e-05 -1.736151e-27)
(2.180651e-05 -1.747649e-05 0)
(1.899353e-05 -2.054376e-05 1.891147e-27)
(3.384421e-05 -1.630699e-06 0)
(3.308651e-05 -5.297239e-06 -3.332973e-27)
(3.17908e-05 -9.100898e-06 0)
(2.99768e-05 -1.280895e-05 3.095836e-27)
(2.768042e-05 -1.648028e-05 1.067864e-28)
(2.489342e-05 -2.005778e-05 1.314845e-28)
(2.182466e-05 -2.344508e-05 2.324105e-27)
(3.810116e-05 -1.922788e-06 0)
(3.727362e-05 -6.165436e-06 -7.505482e-27)
(3.587197e-05 -1.051867e-05 -3.393779e-29)
(3.391596e-05 -1.473869e-05 -4.776675e-29)
(3.141424e-05 -1.889424e-05 0)
(2.836755e-05 -2.290405e-05 0)
(2.499844e-05 -2.666638e-05 0)
(4.294201e-05 -2.239527e-06 -4.323816e-27)
(4.203057e-05 -7.108464e-06 -4.241472e-27)
(4.050133e-05 -1.206322e-05 -7.82128e-29)
(3.836808e-05 -1.685268e-05 -5.479612e-29)
(3.562957e-05 -2.154403e-05 0)
(3.228953e-05 -2.604847e-05 -3.377713e-27)
(2.857086e-05 -3.024681e-05 -4.015577e-28)
(4.842347e-05 -2.584376e-06 -4.875186e-27)
(4.741521e-05 -8.137142e-06 -4.781453e-27)
(4.573909e-05 -1.375258e-05 -1.339967e-28)
(4.340001e-05 -1.91732e-05 -1.249405e-28)
(4.037832e-05 -2.445805e-05 0)
(3.674009e-05 -2.951583e-05 -3.64661e-27)
(3.260318e-05 -3.422875e-05 -2.270884e-28)
(5.460787e-05 -2.960622e-06 -5.500482e-27)
(5.349121e-05 -9.260951e-06 -1.075538e-26)
(5.165357e-05 -1.560467e-05 -5.183039e-27)
(4.909439e-05 -2.174142e-05 0)
(4.574376e-05 -2.774546e-05 1.38289e-27)
(4.188203e-05 -3.327963e-05 2.126841e-27)
(3.717751e-05 -3.864164e-05 5.113487e-28)
(6.156191e-05 -3.370126e-06 -6.205959e-27)
(6.032565e-05 -1.048521e-05 -1.210744e-26)
(5.831097e-05 -1.762078e-05 -1.164012e-26)
(5.551778e-05 -2.450976e-05 -5.394866e-27)
(5.193621e-05 -3.116458e-05 2.041522e-28)
(4.757418e-05 -3.755668e-05 -4.626275e-27)
(4.235727e-05 -4.355441e-05 3.874546e-27)
(6.935666e-05 -3.815698e-06 0)
(6.79908e-05 -1.181925e-05 -6.79223e-27)
(6.578612e-05 -1.982748e-05 -6.531429e-27)
(6.273093e-05 -2.757223e-05 -1.254625e-26)
(5.882226e-05 -3.504752e-05 0)
(5.400721e-05 -4.225061e-05 -5.252159e-27)
(4.82455e-05 -4.900158e-05 6.944839e-30)
(7.806591e-05 -4.297876e-06 7.858082e-27)
(7.65635e-05 -1.326573e-05 0)
(7.416322e-05 -2.22268e-05 0)
(7.0836e-05 -3.091304e-05 1.965111e-28)
(6.65642e-05 -3.930767e-05 6.877769e-27)
(6.124985e-05 -4.739791e-05 0)
(5.497336e-05 -5.499975e-05 -5.396006e-27)
(8.776396e-05 -4.816182e-06 1.766604e-26)
(8.612135e-05 -1.482343e-05 0)
(8.352699e-05 -2.481936e-05 0)
(7.993165e-05 -3.454423e-05 7.757083e-27)
(7.530888e-05 -4.400344e-05 1.468868e-26)
(6.945637e-05 -5.322537e-05 -6.85573e-27)
(6.283471e-05 -6.15e-05 0)
(9.852221e-05 -5.368233e-06 9.914381e-27)
(9.673968e-05 -1.648561e-05 5.368561e-29)
(9.395965e-05 -2.759341e-05 9.48688e-27)
(9.010488e-05 -3.843366e-05 2.504235e-28)
(8.515193e-05 -4.898083e-05 3.284262e-28)
(7.899633e-05 -5.915328e-05 -7.798485e-27)
(7.155476e-05 -6.886379e-05 0)
(0.0001104058 -5.949606e-06 0)
(0.0001084904 -1.824119e-05 -1.087529e-26)
(0.0001055441 -3.053901e-05 1.055402e-26)
(0.0001014538 -4.259985e-05 0)
(9.617436e-05 -5.440624e-05 -8.840145e-27)
(8.959476e-05 -6.58559e-05 1.725283e-27)
(8.149386e-05 -7.692423e-05 1.011308e-27)
(0.0001234684 -6.552069e-06 -1.241567e-26)
(0.0001214384 -2.006805e-05 -1.217237e-26)
(0.0001183604 -3.362211e-05 1.181932e-26)
(0.0001140865 -4.699001e-05 0)
(0.0001085405 -6.016787e-05 -7.845564e-28)
(0.0001015641 -7.305262e-05 -1.376387e-30)
(9.283976e-05 -8.564318e-05 1.123936e-27)
(0.0001377416 -7.163755e-06 -1.385048e-26)
(0.0001356409 -2.192585e-05 -1.35818e-26)
(0.0001324756 -3.67899e-05 1.322768e-26)
(0.0001280958 -5.153951e-05 0)
(0.000122381 -6.620405e-05 0)
(0.0001151452 -8.074968e-05 -1.133129e-26)
(0.0001058971 -9.532021e-05 8.733295e-28)
(0.0001532341 -7.755142e-06 -1.542661e-26)
(0.0001511276 -2.376797e-05 -1.52099e-26)
(0.0001479363 -3.997138e-05 0)
(0.0001435567 -5.614901e-05 1.352512e-26)
(0.0001377847 -7.235811e-05 -9.429458e-28)
(0.0001303942 -8.846813e-05 -2.449052e-26)
(0.0001209943 -0.0001041994 4.069202e-27)
(0.0001698886 -8.358635e-06 -1.707589e-26)
(0.0001679825 -2.54365e-05 0)
(0.0001647946 -4.30383e-05 -1.669468e-26)
(0.00016055 -6.071441e-05 1.554726e-26)
(0.0001549014 -7.862672e-05 -1.528691e-26)
(0.000147506 -9.674698e-05 -2.896182e-26)
(0.0001378151 -0.0001149212 -1.341995e-26)
(0.0001878479 -8.793991e-06 0)
(0.000185886 -2.70679e-05 0)
(0.0001830466 -4.586759e-05 -3.646085e-26)
(0.0001791351 -6.503338e-05 0)
(0.0001738924 -8.470143e-05 -3.430785e-26)
(0.0001668957 -0.00010498 -1.637342e-26)
(0.0001574753 -0.0001259131 1.531513e-26)
(0.0002068073 -9.263687e-06 -2.085269e-26)
(0.0002048082 -2.855044e-05 2.033167e-26)
(0.0002027548 -4.804264e-05 1.998912e-26)
(0.0001994109 -6.872611e-05 0)
(0.0001948101 -9.02084e-05 -1.921716e-26)
(0.0001886746 -0.000112651 0)
(0.0001800773 -0.0001361678 1.399516e-26)
(0.0002266509 -9.54915e-06 -2.279461e-26)
(0.0002250514 -2.933842e-05 2.255645e-26)
(0.0002231264 -5.003485e-05 6.653634e-26)
(0.0002215256 -7.125728e-05 4.435782e-26)
(0.000217724 -9.46796e-05 -2.021444e-26)
(0.000212995 -0.0001194305 1.537799e-27)
(0.0002057858 -0.00014602 -1.879863e-27)
(0.0002470799 -9.682542e-06 2.968108e-29)
(0.0002458226 -2.969129e-05 9.502522e-29)
(0.0002449268 -5.049182e-05 2.511166e-26)
(0.0002442491 -7.288144e-05 4.71133e-26)
(0.0002426207 -9.75235e-05 -2.641235e-26)
(0.0002400351 -0.0001245646 3.191021e-27)
(0.0002352051 -0.0001544374 7.93741e-27)
(0.0002678108 -9.618334e-06 -2.902898e-29)
(0.0002668847 -2.948679e-05 -9.352086e-29)
(0.0002670689 -5.026992e-05 2.611598e-26)
(0.0002675872 -7.300122e-05 1.944423e-26)
(0.000269631 -9.749277e-05 -1.125255e-26)
(0.0002700513 -0.0001267962 2.32244e-26)
(0.000268604 -0.0001600633 0)
(0.0002884667 -9.290897e-06 0)
(0.0002878448 -2.841376e-05 0)
(0.0002892773 -4.831705e-05 2.904398e-26)
(0.000292245 -7.003048e-05 3.091255e-26)
(0.0002961574 -9.525247e-05 3.979289e-26)
(0.0003032552 -0.000124385 4.083704e-26)
(0.0003061341 -0.0001611949 0)
(0.0003086416 -8.697724e-06 -4.95487e-29)
(0.0003081986 -2.6471e-05 1.523942e-28)
(0.0003107801 -4.47622e-05 5.4648e-28)
(0.0003161441 -6.462463e-05 0)
(0.0003241621 -8.772922e-05 6.484921e-26)
(0.0003359308 -0.0001172257 -2.862745e-27)
(0.0003476108 -0.000155527 -7.728347e-27)
(0.0003279915 -7.857471e-06 -3.299022e-26)
(0.0003274899 -2.368812e-05 1.397298e-28)
(0.0003309435 -3.954567e-05 -3.348163e-26)
(0.0003384835 -5.654939e-05 0)
(0.0003505538 -7.673667e-05 3.713749e-26)
(0.000367169 -0.0001034262 2.399937e-26)
(0.0003928407 -0.000139649 -2.899302e-26)
(0.0003463408 -6.853093e-06 -3.48987e-26)
(0.0003454179 -2.027768e-05 -3.490042e-26)
(0.0003490919 -3.292185e-05 -3.556477e-26)
(0.0003581367 -4.563947e-05 -9.778673e-28)
(0.0003739705 -6.040263e-05 -2.655154e-27)
(0.0003979755 -8.026957e-05 3.504493e-26)
(0.0004340715 -0.0001124227 -1.022157e-26)
(0.0003640135 -5.965848e-06 0)
(0.0003620421 -1.677486e-05 3.66265e-26)
(0.000364853 -2.57792e-05 3.743712e-26)
(0.0003742374 -3.304382e-05 3.021106e-28)
(0.0003933955 -4.003408e-05 -4.137143e-26)
(0.000426104 -5.031539e-05 -9.227827e-28)
(0.0004756949 -7.168122e-05 0)
(0.0003823388 -5.436576e-06 3.871838e-26)
(0.0003779199 -1.468948e-05 7.734432e-26)
(0.0003794355 -1.93512e-05 3.925676e-26)
(0.0003897268 -1.937336e-05 8.159132e-26)
(0.0004179432 -1.39996e-05 -4.4053e-26)
(0.0004747021 -7.877586e-06 5.113548e-26)
(0.0005604539 -1.606359e-05 9.1909e-30)
(0.000403694 -5.772941e-06 4.094201e-26)
(0.0003970547 -1.393268e-05 -2.869955e-29)
(0.0003998478 -1.289936e-05 0)
(0.0004252703 2.071987e-06 1.784412e-28)
(0.0004866704 3.068163e-05 1.091935e-25)
(0.0005906875 5.330653e-05 1.413536e-25)
(0.0007078205 2.874711e-05 -8.013679e-26)
(0.0004342478 -6.441487e-06 -4.415893e-26)
(0.0004293606 -1.0518e-05 -9.549604e-29)
(0.0004507138 8.254604e-06 -5.613405e-28)
(0.0005175834 5.581813e-05 -1.058997e-25)
(0.0006375276 0.000109252 3.53808e-25)
(0.0007669385 0.0001129399 1.008522e-25)
(0.0008829073 2.379414e-05 -1.159858e-25)
(0.0004864217 -2.809917e-06 -4.996104e-26)
(0.0004960152 1.401485e-05 0)
(0.0005601351 7.646772e-05 -4.58275e-27)
(0.0006806614 0.0001552221 -9.309013e-27)
(0.0008199868 0.0001942948 3.538768e-25)
(0.0009537368 0.0001414739 1.309308e-25)
(0.001024869 -3.868762e-05 1.283216e-28)
(0.000579001 1.768665e-05 0)
(0.0006115441 8.546943e-05 -5.001233e-27)
(0.0007148754 0.0001961466 -1.112083e-26)
(0.0008645053 0.0002792914 1.225434e-25)
(0.0009935198 0.0002601439 1.446756e-31)
(0.001059877 0.0001091171 9.591974e-27)
(0.001087611 -0.0001399459 6.886042e-26)
(0.0007195844 6.107048e-05 0)
(0.0007558778 0.0001999586 -9.60453e-26)
(0.0008713957 0.0003385877 -1.5668e-30)
(0.0009994573 0.0003815324 1.452717e-25)
(0.001076814 0.00027574 1.116654e-25)
(0.001100015 4.071171e-05 -2.790753e-25)
(0.001078274 -0.0002966487 7.270063e-26)
(0.000880961 0.0001114669 -1.017626e-25)
(0.0008980216 0.0003262072 -1.062014e-25)
(0.0009819336 0.0004568916 1.145453e-25)
(0.001048391 0.00043294 -5.478471e-26)
(0.001085234 0.0002508402 2.138051e-25)
(0.001075304 -5.389632e-05 3.933216e-26)
(0.001037097 -0.0004501866 1.565489e-25)
(0.00102132 0.0001526836 -1.186765e-25)
(0.0009909058 0.0004265317 -1.122557e-25)
(0.001018011 0.000524836 1.467733e-25)
(0.001041905 0.0004389325 -2.952367e-26)
(0.001039202 0.0001902327 -4.452307e-29)
(0.001008284 -0.0001649124 1.867245e-30)
(0.0009506555 -0.0006175352 1.496037e-25)
(0.001108737 0.0001792974 -2.269287e-27)
(0.001020763 0.0004803663 -2.961409e-25)
(0.000993496 0.0005454292 -1.615785e-25)
(0.0009851194 0.0004136116 6.163423e-26)
(0.0009640645 0.0001225238 5.22146e-26)
(0.0009129863 -0.0002889519 7.543843e-26)
(0.0008245576 -0.0008088249 1.679385e-25)
(0.001129798 0.0001910407 1.338332e-25)
(0.0009922503 0.0004894501 -1.543078e-25)
(0.0009198866 0.0005308007 -2.005228e-25)
(0.0008879877 0.0003701437 4.713247e-26)
(0.0008515244 3.942401e-05 -5.122004e-26)
(0.0007863472 -0.0004203252 1.322663e-25)
(0.0006818462 -0.000981516 2.412006e-25)
(0.001079821 0.000193987 1.14328e-25)
(0.0009155135 0.000467129 -2.426684e-26)
(0.0008143005 0.0004906464 -2.61809e-25)
(0.0007611566 0.0003160485 -7.033402e-28)
(0.0007094006 -4.90005e-05 1.21393e-25)
(0.0006322882 -0.0005503346 1.135489e-25)
(0.0005219666 -0.001152131 2.028503e-25)
(0.0009505063 0.0001786971 1.738548e-29)
(0.0007866117 0.0004273497 2.688255e-30)
(0.0006753469 0.0004510192 -1.543223e-25)
(0.0005974242 0.0002574044 1.397835e-25)
(0.0005331589 -0.0001342408 3.418829e-25)
(0.0004495286 -0.0006704699 2.163785e-25)
(0.0003416335 -0.001307715 2.281893e-25)
(0.0007560371 0.0001623 1.921127e-27)
(0.0006094823 0.0003838191 3.573933e-26)
(0.0004940285 0.0003938274 -5.36021e-26)
(0.0004128209 0.0001958433 5.679933e-26)
(0.0003448705 -0.000206847 -5.490154e-28)
(0.0002644613 -0.0007694508 -5.290376e-26)
(0.0001624446 -0.001461917 1.31827e-25)
(0.0005163298 0.0001464107 -6.968339e-30)
(0.000399021 0.0003445248 -1.563968e-31)
(0.0002966268 0.0003483205 -1.320586e-26)
(0.0002245834 0.0001437568 -1.339343e-26)
(0.0001641453 -0.0002712453 2.254124e-26)
(9.58668e-05 -0.0008541989 -3.89243e-26)
(6.245832e-06 -0.0015683 1.503302e-26)
(0.0002484408 0.0001340652 1.400211e-30)
(0.0001663325 0.0003137447 -7.110168e-27)
(9.029535e-05 0.0003138651 3.25063e-30)
(3.328707e-05 0.000104365 2.564319e-26)
(-1.469859e-05 -0.000320744 -9.401529e-30)
(-6.571607e-05 -0.0009183665 -2.149415e-26)
(-0.0001299555 -0.001650482 3.772474e-27)
(-4.508208e-05 0.0001270396 1.528999e-27)
(-8.773012e-05 0.0002941176 3.549329e-27)
(-0.0001310806 0.0002910715 1.228003e-26)
(-0.0001682527 7.807332e-05 1.235901e-26)
(-0.0002008382 -0.0003512324 1.81035e-26)
(-0.0002319873 -0.0009543065 1.77889e-26)
(-0.0002626895 -0.001693832 1.002269e-26)
(-0.0003452362 0.000122185 5.458053e-28)
(-0.0003459542 0.0002837931 -1.741465e-26)
(-0.0003533082 0.0002782612 1.096654e-27)
(-0.0003677186 6.38788e-05 1.214799e-26)
(-0.0003820467 -0.0003647394 3.549139e-26)
(-0.0003907519 -0.0009647123 3.259466e-26)
(-0.000386713 -0.00169616 -4.340081e-29)
(-0.0006173214 0.0001227792 3.249149e-26)
(-0.0005792361 0.0002860525 -7.563969e-27)
(-0.0005537353 0.0002763133 -8.221007e-27)
(-0.0005482203 6.191231e-05 -2.010531e-26)
(-0.0005464981 -0.0003605453 1.419707e-26)
(-0.0005345343 -0.00094861 9.401144e-27)
(-0.0004997326 -0.001659129 -2.854987e-26)
(-0.0008517565 0.0001291427 4.530803e-26)
(-0.0007808285 0.0002997965 -4.474706e-26)
(-0.0007312245 0.0002862911 -3.193017e-26)
(-0.0007116418 7.328813e-05 -3.174381e-26)
(-0.0006979351 -0.0003376172 4.34001e-26)
(-0.0006691744 -0.00090486 -4.18131e-26)
(-0.0006095838 -0.00158787 -3.847765e-26)
(-0.001043683 0.0001376163 -5.611199e-26)
(-0.0009455799 0.0003200042 -4.593525e-26)
(-0.0008832978 0.0003057018 1.251541e-26)
(-0.0008528913 9.663161e-05 -1.024677e-30)
(-0.0008284323 -0.0002994398 -3.789868e-26)
(-0.0007856462 -0.0008394188 -5.097267e-26)
(-0.0007125206 -0.001491277 -4.921599e-26)
(-0.001175401 0.0001468418 -6.399862e-26)
(-0.001059442 0.0003447182 -2.197174e-29)
(-0.000994052 0.0003356042 2.690783e-25)
(-0.0009590046 0.0001323591 -1.062561e-25)
(-0.0009334392 -0.0002496478 -8.140364e-26)
(-0.0008883483 -0.0007587505 1.211962e-25)
(-0.0008159426 -0.001353456 1.038259e-25)
(-0.001231952 0.00015624 1.369613e-25)
(-0.001115806 0.0003705036 4.311886e-26)
(-0.00105764 0.0003590541 3.694428e-25)
(-0.001040067 0.0001664884 1.671466e-25)
(-0.001025009 -0.000193218 -1.411275e-25)
(-0.0009864506 -0.0006672799 1.153958e-25)
(-0.0009126242 -0.001220611 1.294082e-25)
(-0.00120941 0.0001499871 1.379557e-25)
(-0.001123229 0.0003754562 1.258483e-25)
(-0.001093139 0.0003739069 1.277563e-28)
(-0.001094326 0.0001955129 3.247593e-25)
(-0.001087955 -0.0001287862 -1.510255e-25)
(-0.001052201 -0.0005584606 -2.857629e-29)
(-0.0009749619 -0.001064734 -8.26907e-27)
(-0.001122506 0.0001346348 1.26546e-25)
(-0.001085226 0.0003471561 2.531785e-28)
(-0.001094062 0.0003671966 -2.386078e-30)
(-0.001109938 0.000219984 2.701351e-28)
(-0.001107966 -6.174726e-05 -1.944297e-25)
(-0.001073757 -0.0004393006 -2.527653e-26)
(-0.001002787 -0.0008985395 3.310734e-25)
(-0.000984141 0.0001049075 -1.443358e-27)
(-0.0009930072 0.0002794723 -1.294384e-25)
(-0.00104483 0.0003316747 1.187164e-25)
(-0.001083313 0.0002337657 -2.163861e-25)
(-0.001088977 -1.867462e-06 -3.00983e-26)
(-0.001065794 -0.0003226802 2.666784e-25)
(-0.001020819 -0.0007166911 4.437008e-25)
(-0.0008196907 6.229161e-05 -8.838946e-26)
(-0.0008538468 0.000182216 2.742355e-27)
(-0.0009411339 0.0002599434 9.11815e-26)
(-0.001011489 0.000221566 -3.864406e-26)
(-0.001051964 5.428827e-05 -2.338895e-30)
(-0.001043149 -0.0002163997 3.100779e-28)
(-0.001004888 -0.0005533802 1.19719e-25)
(-0.0006637789 1.841873e-05 0)
(-0.0006937094 7.946179e-05 -3.451908e-31)
(-0.0007854269 0.0001572407 -1.913623e-29)
(-0.0008960319 0.0001737666 -3.032581e-26)
(-0.0009664394 7.814516e-05 -1.365607e-25)
(-0.0009843182 -0.000119359 -6.746378e-26)
(-0.000953402 -0.0003951806 2.75951e-26)
(-0.0005435955 -7.16808e-06 0)
(-0.0005556014 3.130179e-06 1.588916e-27)
(-0.0006199811 5.283594e-05 4.827692e-27)
(-0.0007242606 9.270463e-05 -9.657878e-26)
(-0.000819934 6.801058e-05 -1.147599e-25)
(-0.0008712274 -4.94857e-05 -2.513862e-25)
(-0.0008850177 -0.0002411991 1.734243e-28)
(-0.0004631609 -1.399584e-05 -4.720016e-26)
(-0.0004577066 -3.123465e-05 0)
(-0.0004830521 -2.072942e-05 0)
(-0.000551161 1.087553e-05 -7.365302e-26)
(-0.0006354585 2.466276e-05 -1.169808e-26)
(-0.0007194461 -1.602448e-05 -3.003608e-25)
(-0.0007636055 -0.0001417121 2.500167e-26)
(-0.0004086717 -1.363632e-05 -4.146976e-26)
(-0.000398199 -3.668457e-05 -2.95762e-28)
(-0.0003980324 -4.857655e-05 -3.331654e-28)
(-0.0004214283 -4.36771e-05 1.115433e-27)
(-0.0004805004 -2.468529e-05 3.831836e-27)
(-0.0005491273 -2.915143e-05 -1.437837e-25)
(-0.0006107865 -8.571177e-05 -1.543544e-25)
(-0.0003683468 -1.205032e-05 0)
(-0.0003588288 -3.421141e-05 3.693212e-26)
(-0.000352366 -5.14023e-05 0)
(-0.0003545446 -6.033217e-05 -1.005143e-27)
(-0.0003729204 -6.174118e-05 -8.605989e-28)
(-0.0004164783 -6.064634e-05 -4.669603e-26)
(-0.0004736963 -7.765264e-05 -1.087276e-25)
(-0.000335791 -1.08968e-05 0)
(-0.0003283263 -3.161425e-05 -3.346968e-26)
(-0.0003230304 -4.861373e-05 3.343958e-26)
(-0.0003207117 -6.293516e-05 0)
(-0.0003253482 -7.394771e-05 -2.818532e-27)
(-0.0003431052 -8.257528e-05 2.978331e-26)
(-0.0003743409 -9.715309e-05 -3.930951e-27)
(-0.000307697 -1.027313e-05 0)
(-0.0003023194 -2.968479e-05 -9.233398e-26)
(-0.000298414 -4.738596e-05 -3.348379e-29)
(-0.0002968739 -6.341532e-05 -6.384788e-26)
(-0.0002996232 -7.809476e-05 -3.417359e-27)
(-0.0003076923 -9.415747e-05 3.172301e-26)
(-0.0003228632 -0.0001150333 -1.641173e-26)
(-0.0002828367 -9.771365e-06 2.853726e-26)
(-0.0002785822 -2.888881e-05 -2.860577e-26)
(-0.0002757733 -4.676092e-05 4.875979e-30)
(-0.0002750148 -6.382864e-05 -5.531153e-26)
(-0.0002767322 -8.115222e-05 0)
(-0.00028174 -0.0001003177 0)
(-0.0002920399 -0.0001246174 -5.083966e-26)
(-0.0002601151 -9.445682e-06 2.61588e-26)
(-0.0002566175 -2.824347e-05 -2.615187e-26)
(-0.000254281 -4.637819e-05 2.58079e-26)
(-0.0002534787 -6.413415e-05 2.574151e-26)
(-0.0002539457 -8.312358e-05 0)
(-0.0002560411 -0.0001047147 0)
(-0.0002624234 -0.0001294377 -3.07495e-26)
(-0.0002389856 -9.139989e-06 -2.407682e-26)
(-0.0002359866 -2.756149e-05 -2.447234e-26)
(-0.0002338634 -4.551768e-05 -5.536635e-28)
(-0.000232331 -6.385376e-05 2.266178e-26)
(-0.0002313884 -8.338253e-05 5.665039e-27)
(-0.0002321272 -0.0001046065 -3.821334e-26)
(-0.0002321195 -0.0001302804 1.94153e-26)
(-0.0002192405 -8.78338e-06 -2.212658e-26)
(-0.0002166224 -2.662289e-05 -1.699338e-28)
(-0.0002143081 -4.442394e-05 5.603978e-28)
(-0.0002121318 -6.258178e-05 8.002322e-28)
(-0.0002101108 -8.201551e-05 0)
(-0.0002084736 -0.0001029584 -2.26976e-26)
(-0.0002052214 -0.0001269937 2.013862e-26)
(-0.0002007288 -8.432931e-06 0)
(-0.0001983277 -2.557823e-05 -3.248957e-28)
(-0.0001957658 -4.295334e-05 -5.542649e-28)
(-0.0001927743 -6.092709e-05 4.36779e-26)
(-0.0001903719 -7.901787e-05 7.452183e-27)
(-0.0001862443 -9.939466e-05 3.41727e-26)
(-0.0001813309 -0.0001211727 1.45671e-26)
(-0.000183424 -7.992775e-06 -5.006204e-29)
(-0.0001810748 -2.437956e-05 -1.593303e-28)
(-0.0001783339 -4.091837e-05 0)
(-0.000175242 -5.790311e-05 -4.586243e-29)
(-0.0001711901 -7.569323e-05 1.701972e-26)
(-0.0001663471 -9.427455e-05 1.642041e-26)
(-0.0001601587 -0.0001138916 -2.994223e-27)
(-0.0001672314 -7.550304e-06 1.681167e-26)
(-0.0001649043 -2.311195e-05 -1.696165e-26)
(-0.0001618849 -3.900077e-05 2.998864e-26)
(-0.000158775 -5.466885e-05 -3.472861e-26)
(-0.0001539619 -7.13349e-05 1.43558e-26)
(-0.0001485006 -8.826063e-05 0)
(-0.0001414927 -0.0001057934 2.796482e-27)
(-0.0001521014 -7.090766e-06 1.535671e-26)
(-0.000149701 -2.181417e-05 -1.491314e-26)
(-0.0001469592 -3.639005e-05 1.45775e-26)
(-0.0001431101 -5.142195e-05 0)
(-0.0001383118 -6.655931e-05 -1.378747e-26)
(-0.0001324804 -8.187945e-05 0)
(-0.0001251027 -9.746575e-05 1.232954e-26)
(-0.0001380563 -6.570853e-06 0)
(-0.0001358658 -2.021665e-05 0)
(-0.0001328473 -3.403753e-05 -2.665185e-26)
(-0.000128967 -4.779863e-05 0)
(-0.0001241287 -6.157196e-05 -2.477126e-26)
(-0.0001181251 -7.541641e-05 -1.174079e-26)
(-0.0001105873 -8.936978e-05 1.091176e-26)
(-0.000125027 -6.134176e-06 -1.258395e-26)
(-0.0001230268 -1.868575e-05 0)
(-0.0001199763 -3.146658e-05 -1.183417e-26)
(-0.0001161276 -4.405135e-05 1.194195e-26)
(-0.0001112997 -5.654768e-05 -1.111938e-26)
(-0.0001053191 -6.892855e-05 -2.097274e-26)
(-9.78712e-05 -8.109437e-05 -9.683342e-27)
(-0.0001131276 -5.613994e-06 -1.136968e-26)
(-0.0001110963 -1.724739e-05 -1.112111e-26)
(-0.0001082088 -2.890832e-05 0)
(-0.000104461 -4.035684e-05 1.102005e-26)
(-9.975894e-05 -5.16376e-05 6.902311e-28)
(-9.399334e-05 -6.26576e-05 -1.960151e-26)
(-8.693983e-05 -7.32313e-05 -2.940867e-27)
(-0.0001021777 -5.132519e-06 -1.029057e-26)
(-0.0001002406 -1.576562e-05 -1.008808e-26)
(-9.749455e-05 -2.639377e-05 9.815255e-27)
(-9.389039e-05 -3.678707e-05 0)
(-8.938166e-05 -4.697744e-05 0)
(-8.387502e-05 -5.694131e-05 -8.385015e-27)
(-7.706924e-05 -6.67843e-05 1.441599e-26)
(-9.216475e-05 -4.656244e-06 -9.283211e-27)
(-9.035015e-05 -1.432965e-05 -9.103341e-27)
(-8.776032e-05 -2.397603e-05 8.837791e-27)
(-8.433796e-05 -3.336707e-05 0)
(-8.005899e-05 -4.251625e-05 5.688749e-28)
(-7.48403e-05 -5.135415e-05 1.029256e-30)
(-6.848315e-05 -5.988372e-05 -8.073207e-28)
(-8.304898e-05 -4.200046e-06 0)
(-8.137475e-05 -1.295435e-05 -8.200367e-27)
(-7.895113e-05 -2.167727e-05 7.962438e-27)
(-7.573859e-05 -3.013202e-05 0)
(-7.172815e-05 -3.832626e-05 -7.737189e-27)
(-6.686282e-05 -4.619366e-05 -1.242841e-27)
(-6.100436e-05 -5.372194e-05 -7.258873e-28)
(-7.478567e-05 -3.76785e-06 7.539116e-27)
(-7.325493e-05 -1.165545e-05 -3.897391e-29)
(-7.100646e-05 -1.951489e-05 7.09722e-27)
(-6.802085e-05 -2.710229e-05 -1.811522e-28)
(-6.429911e-05 -3.442194e-05 -2.254518e-28)
(-5.978215e-05 -4.142343e-05 -6.002311e-27)
(-5.442477e-05 -4.805301e-05 0)
(-6.732329e-05 -3.362309e-06 1.357624e-26)
(-6.593342e-05 -1.043941e-05 0)
(-6.386271e-05 -1.749885e-05 0)
(-6.110708e-05 -2.429709e-05 6.335104e-27)
(-5.76626e-05 -3.086101e-05 1.183872e-26)
(-5.339843e-05 -3.721763e-05 -5.361389e-27)
(-4.86412e-05 -4.28705e-05 0)
(-6.060799e-05 -2.984482e-06 6.112138e-27)
(-5.93533e-05 -9.308127e-06 -3.117303e-29)
(-5.74582e-05 -1.5627e-05 -5.232847e-29)
(-5.492947e-05 -2.169261e-05 -1.487472e-28)
(-5.17667e-05 -2.751677e-05 5.036773e-27)
(-4.790736e-05 -3.309648e-05 0)
(-4.342252e-05 -3.830757e-05 -4.348429e-27)
(-5.45851e-05 -2.634681e-06 -4.30836e-30)
(-5.345857e-05 -8.26255e-06 -5.440483e-27)
(-5.173416e-05 -1.390211e-05 -5.276968e-27)
(-4.942855e-05 -1.930517e-05 -9.996541e-27)
(-4.654977e-05 -2.449164e-05 0)
(-4.30662e-05 -2.946507e-05 -4.266917e-27)
(-3.896245e-05 -3.410314e-05 5.012844e-30)
(-4.920025e-05 -2.312467e-06 -4.96114e-27)
(-4.819314e-05 -7.301151e-06 -9.74802e-27)
(-4.663087e-05 -1.232006e-05 -9.471954e-27)
(-4.453629e-05 -1.712173e-05 -4.61912e-27)
(-4.191059e-05 -2.173944e-05 -1.462925e-28)
(-3.876646e-05 -2.615815e-05 -3.841175e-27)
(-3.506167e-05 -3.028983e-05 3.721305e-27)
(-4.440061e-05 -2.016878e-06 -4.480928e-27)
(-4.350277e-05 -6.42043e-06 -8.790875e-27)
(-4.208995e-05 -1.087687e-05 -4.256831e-27)
(-4.018321e-05 -1.515021e-05 0)
(-3.774113e-05 -1.931826e-05 -9.811338e-28)
(-3.496609e-05 -2.314794e-05 -1.514605e-27)
(-3.163329e-05 -2.685492e-05 -3.663332e-28)
(-4.013602e-05 -1.745658e-06 -4.054784e-27)
(-3.933681e-05 -5.613005e-06 -3.965742e-27)
(-3.805948e-05 -9.552669e-06 9.547201e-29)
(-3.632745e-05 -1.332355e-05 8.911337e-29)
(-3.413282e-05 -1.699281e-05 0)
(-3.15311e-05 -2.050191e-05 -3.178436e-27)
(-2.860731e-05 -2.377221e-05 1.627615e-28)
(-3.635953e-05 -1.497334e-06 -3.673456e-27)
(-3.56484e-05 -4.874712e-06 -3.596107e-27)
(-3.449381e-05 -8.346123e-06 5.551213e-29)
(-3.292401e-05 -1.167487e-05 3.896554e-29)
(-3.094377e-05 -1.493369e-05 0)
(-2.856382e-05 -1.806583e-05 -2.756442e-27)
(-2.594215e-05 -2.099179e-05 2.878524e-28)
(-3.302731e-05 -1.269466e-06 2.028697e-30)
(-3.239306e-05 -4.198528e-06 -6.544188e-27)
(-3.134533e-05 -7.243878e-06 2.396932e-29)
(-2.991528e-05 -1.01738e-05 3.38469e-29)
(-2.811437e-05 -1.30623e-05 0)
(-2.59504e-05 -1.585787e-05 0)
(-2.358137e-05 -1.849319e-05 0)
(-3.009954e-05 -1.059589e-06 0)
(-2.953029e-05 -3.576646e-06 -2.98681e-27)
(-2.857207e-05 -6.232925e-06 0)
(-2.725461e-05 -8.804418e-06 2.704337e-27)
(-2.560922e-05 -1.135818e-05 -7.565359e-29)
(-2.36358e-05 -1.386016e-05 -9.371765e-29)
(-2.148338e-05 -1.624666e-05 2.05606e-27)
(-2.754088e-05 -8.646074e-07 -2.782935e-27)
(-2.702354e-05 -3.001057e-06 0)
(-2.613362e-05 -5.305644e-06 3.44257e-29)
(-2.488638e-05 -7.577067e-06 2.202367e-27)
(-2.33922e-05 -9.794531e-06 -2.863469e-27)
(-2.157818e-05 -1.204952e-05 0)
(-1.96093e-05 -1.422512e-05 1.97972e-27)
(-2.532151e-05 -6.805261e-07 -2.559267e-27)
(-2.484155e-05 -2.458532e-06 0)
(-2.400014e-05 -4.429157e-06 1.423227e-29)
(-2.283121e-05 -6.39119e-06 2.072044e-29)
(-2.138767e-05 -8.393977e-06 -4.339504e-27)
(-1.973558e-05 -1.040797e-05 2.001859e-27)
(-1.792296e-05 -1.240334e-05 -1.814393e-27)
(-2.341733e-05 -5.036969e-07 0)
(-2.295867e-05 -1.940927e-06 -2.3205e-27)
(-2.214354e-05 -3.604155e-06 1.13297e-29)
(-2.101964e-05 -5.298353e-06 2.13087e-27)
(-1.963012e-05 -7.075174e-06 -1.996173e-27)
(-1.80787e-05 -8.902378e-06 1.837831e-27)
(-1.639057e-05 -1.075601e-05 9.996433e-31)
(-2.181044e-05 -3.28958e-07 0)
(-2.135175e-05 -1.433657e-06 -2.166301e-27)
(-2.053182e-05 -2.806489e-06 2.089776e-27)
(-1.941376e-05 -4.257702e-06 1.987095e-27)
(-1.805434e-05 -5.840298e-06 -1.82488e-27)
(-1.656787e-05 -7.520273e-06 4.834637e-29)
(-1.497962e-05 -9.2661e-06 1.526151e-27)
(-2.049092e-05 -1.493403e-07 0)
(-2.000389e-05 -9.194899e-07 0)
(-1.913991e-05 -2.014474e-06 1.954004e-27)
(-1.798623e-05 -3.248852e-06 -1.83855e-27)
(-1.66223e-05 -4.673609e-06 4.319792e-31)
(-1.517087e-05 -6.245853e-06 0)
(-1.366116e-05 -7.920286e-06 0)
(-1.94577e-05 4.410288e-08 -1.97212e-27)
(-1.890416e-05 -3.765953e-07 1.927625e-27)
(-1.79432e-05 -1.203081e-06 9.183138e-28)
(-1.670377e-05 -2.250654e-06 -1.724877e-27)
(-1.529665e-05 -3.559784e-06 -2.948055e-31)