/*--------------------------------*- C++ -*----------------------------------*\
| =========                 |                                                 |
| \\      /  F ield         | OpenFOAM: The Open Source CFD Toolbox           |
|  \\    /   O peration     | Version:  2206                                  |
|   \\  /    A nd           | Website:  www.openfoam.com                      |
|    \\/     M anipulation  |                                                 |
\*---------------------------------------------------------------------------*/
FoamFile
{
    version     2.0;
    format      ascii;
    arch        "LSB;label=32;scalar=64";
    class       volVectorField;
    location    "1.6";
    object      U.b_0;
}
// * * * * * * * * * * * * * * * * * * * * * * * * * * * * * * * * * * * * * //

dimensions      [0 1 -1 0 0 0 0];

internalField   nonuniform List<vector> 
13078
(
(-4.640246e-06 3.488491e-05 -4.315869e-27)
(-2.001054e-06 2.299164e-05 2.054208e-30)
(-1.576656e-06 2.387039e-05 2.505723e-27)
(-1.764487e-06 1.092479e-05 0)
(-1.936169e-06 3.421048e-06 3.829348e-28)
(-2.133097e-06 -5.683057e-07 2.066196e-28)
(-2.357218e-06 -3.520186e-06 7.46228e-29)
(9.586014e-06 -1.701475e-06 0)
(1.093631e-05 2.402857e-05 -2.297436e-29)
(4.138455e-06 1.853955e-05 0)
(3.591807e-07 9.101814e-06 0)
(-8.463928e-07 3.213e-06 -4.646704e-31)
(-1.458368e-06 -6.673334e-07 2.374575e-31)
(-1.877477e-06 -3.639404e-06 1.039778e-30)
(4.01181e-05 4.426663e-06 2.661917e-27)
(1.930911e-05 1.283292e-05 -1.536375e-27)
(7.464525e-06 1.081948e-05 -6.236833e-28)
(2.709501e-06 6.61581e-06 -9.254651e-28)
(5.938914e-07 2.55977e-06 -3.014482e-28)
(-5.231608e-07 -8.83371e-07 0)
(-1.216532e-06 -3.754584e-06 2.859448e-34)
(2.639379e-05 3.632747e-06 1.518734e-27)
(1.605206e-05 7.915537e-06 -2.187842e-27)
(8.881474e-06 7.253755e-06 -1.434008e-27)
(4.51181e-06 4.836003e-06 -4.357151e-28)
(2.10309e-06 1.787691e-06 6.866003e-30)
(6.280703e-07 -1.212373e-06 0)
(-3.425555e-07 -3.935159e-06 6.171814e-31)
(1.97099e-05 2.622999e-06 3.371001e-30)
(1.450688e-05 5.5526e-06 -8.628393e-28)
(9.729755e-06 5.226153e-06 -1.303798e-27)
(6.132988e-06 3.430294e-06 -8.784006e-28)
(3.603699e-06 9.937181e-07 4.868614e-28)
(1.948714e-06 -1.677944e-06 -8.882504e-33)
(7.293764e-07 -4.250529e-06 2.314114e-30)
(1.737749e-05 1.788347e-06 0)
(1.417341e-05 3.759049e-06 -9.826112e-30)
(1.06677e-05 3.531779e-06 1.134796e-29)
(7.628838e-06 2.110648e-06 -4.909597e-28)
(5.240517e-06 2.197344e-08 -1.332969e-29)
(3.36775e-06 -2.31804e-06 3.882217e-29)
(1.965915e-06 -4.760092e-06 -8.486071e-29)
(1.643353e-05 1.140785e-06 0)
(1.434291e-05 2.304429e-06 -7.777511e-28)
(1.171028e-05 1.986366e-06 -5.476267e-28)
(9.134478e-06 7.77261e-07 9.595401e-29)
(6.861126e-06 -1.082444e-06 -4.225323e-28)
(4.95206e-06 -3.24254e-06 1.485424e-30)
(3.298336e-06 -5.484008e-06 0)
(1.631592e-05 6.506626e-07 1.677589e-27)
(1.487241e-05 1.125756e-06 -7.859109e-28)
(1.283908e-05 6.007935e-07 -6.971269e-28)
(1.063754e-05 -6.02611e-07 0)
(8.496836e-06 -2.332189e-06 -9.640283e-28)
(6.557068e-06 -4.361741e-06 7.582296e-30)
(4.792617e-06 -6.521127e-06 1.552953e-29)
(1.679889e-05 2.698765e-07 1.264429e-32)
(1.573365e-05 1.510648e-07 1.637913e-27)
(1.410098e-05 -6.694466e-07 7.451958e-28)
(1.218037e-05 -1.96652e-06 1.920798e-30)
(1.01625e-05 -3.683863e-06 -2.203865e-27)
(8.211014e-06 -5.665663e-06 1.375431e-29)
(6.331152e-06 -7.77732e-06 0)
(1.777318e-05 -4.119e-08 -1.814587e-27)
(1.692653e-05 -6.85612e-07 1.746164e-27)
(1.554944e-05 -1.843204e-06 8.105869e-28)
(1.382541e-05 -3.321885e-06 -1.451211e-27)
(1.189767e-05 -5.119584e-06 -3.862572e-31)
(9.932222e-06 -7.129086e-06 0)
(7.947583e-06 -9.251741e-06 0)
(1.918485e-05 -3.10532e-07 0)
(1.845721e-05 -1.437984e-06 0)
(1.723268e-05 -2.956507e-06 1.779168e-27)
(1.562979e-05 -4.679368e-06 -1.617282e-27)
(1.375048e-05 -6.632961e-06 5.694274e-31)
(1.175382e-05 -8.740183e-06 0)
(9.662391e-06 -1.093024e-05 0)
(2.100883e-05 -5.598271e-07 0)
(2.033801e-05 -2.147705e-06 -2.07889e-27)
(1.919175e-05 -4.043296e-06 1.969668e-27)
(1.764586e-05 -6.059326e-06 1.789696e-27)
(1.576998e-05 -8.230944e-06 -1.649981e-27)
(1.371569e-05 -1.049729e-05 0)
(1.150425e-05 -1.280761e-05 1.265082e-27)
(2.324102e-05 -8.002653e-07 0)
(2.258745e-05 -2.84432e-06 -2.312802e-27)
(2.146351e-05 -5.137001e-06 -1.592887e-29)
(1.992001e-05 -7.486251e-06 2.028879e-27)
(1.800598e-05 -9.928877e-06 -1.840508e-27)
(1.585995e-05 -1.240932e-05 1.619686e-27)
(1.350588e-05 -1.488825e-05 1.319333e-30)
(2.589458e-05 -1.041874e-06 -2.633987e-27)
(2.522819e-05 -3.552025e-06 0)
(2.4084e-05 -6.266548e-06 -1.986137e-29)
(2.249137e-05 -8.985311e-06 -2.868574e-29)
(2.051091e-05 -1.174443e-05 -4.172523e-27)
(1.822863e-05 -1.449398e-05 1.85211e-27)
(1.570322e-05 -1.718697e-05 -1.589686e-27)
(2.899292e-05 -1.292206e-06 -2.948445e-27)
(2.829194e-05 -4.291063e-06 0)
(2.709784e-05 -7.464013e-06 -4.779878e-29)
(2.541112e-05 -1.061112e-05 3.034498e-27)
(2.337262e-05 -1.36734e-05 -1.681685e-27)
(2.087377e-05 -1.67667e-05 0)
(1.813736e-05 -1.972561e-05 1.825872e-27)
(3.256802e-05 -1.556398e-06 0)
(3.18138e-05 -5.072739e-06 -3.233479e-27)
(3.054434e-05 -8.727509e-06 0)
(2.877782e-05 -1.229035e-05 3.001077e-27)
(2.654612e-05 -1.582273e-05 1.036005e-28)
(2.38356e-05 -1.927008e-05 1.276639e-28)
(2.085274e-05 -2.253809e-05 2.245585e-27)
(3.66602e-05 -1.840128e-06 0)
(3.583646e-05 -5.915726e-06 -7.281067e-27)
(3.446405e-05 -1.010341e-05 -3.293244e-29)
(3.256055e-05 -1.416238e-05 -4.63699e-29)
(3.013237e-05 -1.81636e-05 0)
(2.717145e-05 -2.20291e-05 0)
(2.38986e-05 -2.565947e-05 0)
(4.131755e-05 -2.147618e-06 -4.19496e-27)
(4.041035e-05 -6.830642e-06 -4.114833e-27)
(3.891372e-05 -1.160113e-05 -7.59817e-29)
(3.683909e-05 -1.621156e-05 -5.324834e-29)
(3.418361e-05 -2.073139e-05 0)
(3.094007e-05 -2.507559e-05 -3.270442e-27)
(2.73293e-05 -2.912765e-05 -3.908037e-28)
(4.659438e-05 -2.482098e-06 -4.730322e-27)
(4.559111e-05 -7.827857e-06 -4.639188e-27)
(4.395143e-05 -1.323816e-05 -1.302886e-28)
(4.167783e-05 -1.845958e-05 -1.215093e-28)
(3.874982e-05 -2.355353e-05 0)
(3.522009e-05 -2.843349e-05 -3.531261e-27)
(3.120432e-05 -3.298376e-05 -2.211346e-28)
(5.255047e-05 -2.846678e-06 -5.33772e-27)
(5.143978e-05 -8.916353e-06 -1.043684e-26)
(4.964303e-05 -1.50316e-05 -5.028589e-27)
(4.715713e-05 -2.094667e-05 0)
(4.391189e-05 -2.673713e-05 1.346512e-27)
(4.016899e-05 -3.207824e-05 2.071607e-27)
(3.560324e-05 -3.72562e-05 4.981899e-28)
(5.924953e-05 -3.243086e-06 -6.023204e-27)
(5.802047e-05 -1.010096e-05 -1.175073e-26)
(5.60518e-05 -1.698181e-05 -1.129532e-26)
(5.334052e-05 -2.362395e-05 -5.233199e-27)
(4.987198e-05 -3.004335e-05 1.988169e-28)
(4.564968e-05 -3.621461e-05 -4.483354e-27)
(4.058841e-05 -4.200913e-05 3.748887e-27)
(6.675929e-05 -3.673973e-06 0)
(6.540213e-05 -1.139059e-05 -6.593134e-27)
(6.324919e-05 -1.911457e-05 -6.339118e-27)
(6.028569e-05 -2.65837e-05 -1.217457e-26)
(5.650213e-05 -3.379676e-05 0)
(5.184688e-05 -4.075307e-05 -5.092131e-27)
(4.626071e-05 -4.727749e-05 6.768394e-30)
(7.51498e-05 -4.139708e-06 7.628767e-27)
(7.365791e-05 -1.278736e-05 0)
(7.131574e-05 -2.143128e-05 0)
(6.809113e-05 -2.981002e-05 1.914384e-28)
(6.395877e-05 -3.791213e-05 6.674771e-27)
(5.882552e-05 -4.572652e-05 0)
(5.274733e-05 -5.307589e-05 -5.229914e-27)
(8.44911e-05 -4.639598e-06 1.715229e-26)
(8.286128e-05 -1.428942e-05 0)
(8.03322e-05 -2.393144e-05 0)
(7.685179e-05 -3.331318e-05 7.530073e-27)
(7.23845e-05 -4.244581e-05 1.425616e-26)
(6.673481e-05 -5.135617e-05 -6.652559e-27)
(6.033233e-05 -5.935772e-05 0)
(9.484986e-05 -5.171054e-06 9.626682e-27)
(9.308292e-05 -1.588943e-05 5.229278e-29)
(9.03762e-05 -2.660226e-05 9.212807e-27)
(8.665006e-05 -3.705941e-05 2.439928e-28)
(8.186998e-05 -4.724228e-05 3.200844e-28)
(7.593089e-05 -5.707089e-05 -7.570133e-27)
(6.87482e-05 -6.646339e-05 0)
(0.000106286 -5.729438e-06 0)
(0.0001043896 -1.757574e-05 -1.056131e-26)
(0.0001015256 -2.943299e-05 1.024988e-26)
(9.757879e-05 -4.10661e-05 0)
(9.249142e-05 -5.246453e-05 -8.582775e-27)
(8.614943e-05 -6.352911e-05 1.682002e-27)
(7.834514e-05 -7.423789e-05 9.863355e-28)
(0.0001188471 -6.306253e-06 -1.205496e-26)
(0.0001168408 -1.93255e-05 -1.182092e-26)
(0.0001138552 -3.238865e-05 1.147934e-26)
(0.0001097411 -4.528001e-05 0)
(0.0001044079 -5.800289e-05 -7.644886e-28)
(9.769314e-05 -7.04568e-05 -1.337138e-30)
(8.930254e-05 -8.264051e-05 1.096092e-27)
(0.0001325587 -6.889331e-06 -1.344641e-26)
(0.0001304871 -2.109779e-05 -1.318875e-26)
(0.0001274261 -3.541509e-05 1.284724e-26)
(0.0001232248 -4.963457e-05 0)
(0.0001177466 -6.379337e-05 0)
(0.0001107996 -7.785942e-05 -1.101002e-26)
(0.0001019183 -9.196595e-05 8.148611e-28)
(0.0001474216 -7.449004e-06 -1.49733e-26)
(0.0001453512 -2.284458e-05 -1.47677e-26)
(0.0001422785 -3.843937e-05 0)
(0.0001380987 -5.40276e-05 1.313789e-26)
(0.0001325917 -6.967492e-05 -9.182008e-28)
(0.0001255241 -8.525615e-05 -2.380174e-26)
(0.0001165197 -0.0001004954 3.967124e-27)
(0.0001633741 -8.017752e-06 -1.65688e-26)
(0.0001615054 -2.441465e-05 0)
(0.000158455 -4.133379e-05 -1.621126e-26)
(0.0001544346 -5.835205e-05 1.510288e-26)
(0.0001490827 -7.563686e-05 -1.485697e-26)
(0.0001420505 -9.316149e-05 -2.815977e-26)
(0.0001328018 -0.0001107701 -1.305392e-26)
(0.0001805423 -8.418584e-06 0)
(0.0001786285 -2.592828e-05 0)
(0.0001759427 -4.397031e-05 -3.539578e-26)
(0.000172282 -6.240363e-05 0)
(0.0001673684 -8.137019e-05 -3.334513e-26)
(0.0001607764 -0.0001009794 -1.592459e-26)
(0.0001518472 -0.0001212755 1.490555e-26)
(0.0001986249 -8.850484e-06 -2.021359e-26)
(0.0001966816 -2.729022e-05 1.971818e-26)
(0.0001947848 -4.595547e-05 1.939769e-26)
(0.0001917242 -6.581131e-05 0)
(0.0001874867 -8.65021e-05 -1.867698e-26)
(0.0001817989 -0.0001081869 0)
(0.0001737487 -0.0001309835 1.363046e-26)
(0.0002175011 -9.094873e-06 -2.208139e-26)
(0.0002159455 -2.796164e-05 2.186146e-26)
(0.0002141981 -4.772377e-05 6.452977e-26)
(0.0002128833 -6.805407e-05 4.305896e-26)
(0.0002094858 -9.057004e-05 -1.96452e-26)
(0.0002052466 -0.0001144532 1.492335e-27)
(0.0001986462 -0.0001402098 -1.826663e-27)
(0.0002368627 -9.187295e-06 2.857947e-29)
(0.0002356451 -2.819345e-05 9.15961e-29)
(0.0002349048 -4.798324e-05 2.43325e-26)
(0.0002345436 -6.934945e-05 4.571353e-26)
(0.0002333351 -9.297779e-05 -2.56434e-26)
(0.0002312708 -0.0001190267 3.089834e-27)
(0.0002271044 -0.0001479265 7.697918e-27)
(0.0002564272 -9.086053e-06 -2.785888e-29)
(0.0002555403 -2.787851e-05 -8.987173e-29)
(0.0002558583 -4.757804e-05 2.529047e-26)
(0.0002566845 -6.917452e-05 1.89038e-26)
(0.0002591163 -9.256271e-05 -1.083791e-26)
(0.0002600836 -0.0001206881 2.260343e-26)
(0.0002593406 -0.0001527838 0)
(0.000275837 -8.73007e-06 0)
(0.0002752494 -2.671836e-05 0)
(0.0002767806 -4.547451e-05 2.809309e-26)
(0.0002799677 -6.598751e-05 2.991389e-26)
(0.000284259 -8.990556e-05 3.84663e-26)
(0.000291825 -0.0001177439 3.954978e-26)
(0.0002954346 -0.0001531002 0)
(0.0002947041 -8.121083e-06 -4.711464e-29)
(0.0002942856 -2.472544e-05 1.45055e-28)
(0.0002969168 -4.182562e-05 5.207615e-28)
(0.0003024007 -6.042927e-05 0)
(0.0003106373 -8.213844e-05 6.279632e-26)
(0.0003228261 -0.000110046 -2.734378e-27)
(0.0003351416 -0.0001465932 -7.399593e-27)
(0.0003127107 -7.280628e-06 -3.180104e-26)
(0.0003122201 -2.193883e-05 1.323064e-28)
(0.0003156628 -3.659395e-05 -3.231164e-26)
(0.0003232023 -5.230713e-05 0)
(0.000335288 -7.102257e-05 3.587135e-26)
(0.0003521275 -9.587159e-05 2.363572e-26)
(0.0003781363 -0.0001300575 -2.739532e-26)
(0.000329699 -6.290245e-06 -3.360391e-26)
(0.0003287775 -1.856604e-05 -3.362767e-26)
(0.0003323834 -3.002735e-05 -3.428337e-26)
(0.0003412921 -4.14747e-05 -9.1308e-28)
(0.0003568775 -5.475215e-05 -2.475941e-27)
(0.0003806242 -7.268265e-05 3.408172e-26)
(0.0004167281 -0.0001022646 -9.511534e-27)
(0.0003459922 -5.414681e-06 0)
(0.0003440118 -1.512026e-05 3.525875e-26)
(0.0003467262 -2.297915e-05 3.605224e-26)
(0.0003558011 -2.907146e-05 2.745816e-28)
(0.0003742729 -3.465265e-05 -3.98166e-26)
(0.0004058994 -4.296836e-05 -8.163018e-28)
(0.0004546352 -6.125753e-05 0)
(0.000362839 -4.880322e-06 3.720018e-26)
(0.0003584103 -1.300905e-05 7.438506e-26)
(0.0003596916 -1.668267e-05 3.779523e-26)
(0.0003691623 -1.583447e-05 7.84082e-26)
(0.0003951695 -9.469619e-06 -4.218717e-26)
(0.0004487183 -1.206531e-06 4.900271e-26)
(0.0005320366 -5.259724e-06 -1.735122e-27)
(0.0003823127 -5.169705e-06 3.927209e-26)
(0.0003755197 -1.225426e-05 -2.492505e-29)
(0.00037726 -1.067393e-05 0)
(0.0003993795 4.177334e-06 1.729092e-28)
(0.0004558869 3.376425e-05 1.03477e-25)
(0.0005557083 6.107813e-05 1.309889e-25)
(0.0006706949 4.366914e-05 -8.971935e-27)
(0.000409855 -5.855879e-06 -4.220098e-26)
(0.0004038997 -9.476185e-06 -8.204338e-29)
(0.0004213226 8.250127e-06 -4.971162e-28)
(0.000482659 5.58477e-05 -9.992216e-26)
(0.0005973379 0.0001134834 1.810604e-25)
(0.0007231479 0.0001243416 -9.729153e-26)
(0.0008383184 4.21832e-05 4.633214e-29)
(0.0004562934 -3.020819e-06 -4.738124e-26)
(0.0004627064 1.210217e-05 0)
(0.0005211987 7.351655e-05 -4.15627e-27)
(0.0006363556 0.000155447 -8.798966e-27)
(0.0007722972 0.0002007296 1.174989e-25)
(0.0009060416 0.0001545966 -9.867471e-26)
(0.0009786076 -1.899668e-05 2.989919e-25)
(0.0005390861 1.511314e-05 0)
(0.0005686958 8.029481e-05 -4.514679e-27)
(0.0006675791 0.0001924815 -1.049813e-26)
(0.0008147113 0.0002805124 -1.712103e-30)
(0.0009448597 0.0002682067 3.945391e-26)
(0.001012473 0.0001224511 3.629183e-26)
(0.00104073 -0.0001219813 9.096898e-25)
(0.0006682352 5.775333e-05 0)
(0.0007048954 0.0001938606 -6.335568e-32)
(0.0008200244 0.0003351605 -7.585894e-26)
(0.0009501231 0.0003841848 -9.489142e-26)
(0.001028618 0.0002835976 4.635819e-26)
(0.001051006 5.185521e-05 -1.186177e-25)
(0.001029199 -0.000281133 4.975844e-25)
(0.0008211926 0.0001102833 -9.560918e-26)
(0.0008424103 0.0003214196 1.254732e-26)
(0.0009305456 0.0004553295 -8.625668e-26)
(0.000999315 0.0004356997 2.707458e-26)
(0.001035526 0.0002558321 -5.070584e-26)
(0.001023487 -4.637425e-05 -1.567848e-25)
(0.0009841408 -0.0004381715 7.166227e-26)
(0.000957966 0.0001531511 -1.991414e-27)
(0.0009337911 0.0004251149 -2.673259e-26)
(0.0009662745 0.0005250688 -1.994182e-25)
(0.0009914434 0.0004399797 -8.878813e-26)
(0.0009871793 0.0001913921 -2.056312e-25)
(0.0009539912 -0.0001619261 2.997622e-29)
(0.0008945956 -0.0006096649 2.742891e-29)
(0.001045599 0.0001800919 2.476097e-25)
(0.000963255 0.000482023 1.462504e-25)
(0.0009409961 0.0005461547 -1.264657e-25)
(0.0009334252 0.0004119771 6.166632e-30)
(0.0009101865 0.0001197339 -1.462151e-25)
(0.0008568616 -0.0002903733 -1.412555e-25)
(0.000766769 -0.0008053748 -2.347583e-31)
(0.001069024 0.0001916728 2.483092e-27)
(0.0009351947 0.0004925873 2.928936e-25)
(0.0008674465 0.0005309215 -1.022226e-25)
(0.0008364011 0.0003653755 1.352814e-25)
(0.0007977864 3.227339e-05 3.792086e-34)
(0.0007296783 -0.0004264139 -1.266649e-25)
(0.0006226131 -0.0009830061 -2.789153e-30)
(0.001022924 0.0001947205 -6.032285e-26)
(0.0008602248 0.0004703819 2.294617e-25)
(0.0007633383 0.0004895179 3.150771e-25)
(0.0007113865 0.0003079378 1.200217e-25)
(0.0006576749 -6.091619e-05 -1.163221e-25)
(0.0005771142 -0.0005618713 -1.082001e-25)
(0.0004634446 -0.001159577 -3.102203e-27)
(0.0008991107 0.0001797149 5.149229e-26)
(0.0007349991 0.0004302829 2.353578e-26)
(0.000627322 0.000447896 1.972327e-25)
(0.0005512604 0.0002457911 1.209964e-25)
(0.0004856398 -0.000151516 -1.894686e-25)
(0.0003982826 -0.0006884348 -2.285549e-25)
(0.0002854657 -0.001322908 -7.496124e-31)
(0.0007118942 0.0001636077 -4.048676e-26)
(0.0005638614 0.0003861608 -3.901423e-26)
(0.0004512971 0.0003893617 -9.548399e-27)
(0.000371956 0.000181468 1.193168e-25)
(0.0003036129 -0.0002288122 8.497598e-26)
(0.000219698 -0.0007947205 9.887028e-27)
(0.0001126596 -0.001486433 2.841024e-26)
(0.0004810033 0.0001478835 -2.75417e-26)
(0.0003618251 0.0003461437 -7.341414e-30)
(0.0002616439 0.0003422504 1.163696e-29)
(0.0001913264 0.0001273132 9.935474e-27)
(0.0001305888 -0.0002967902 -2.931286e-26)
(5.899563e-05 -0.0008857593 -7.595405e-27)
(-3.439074e-05 -0.001601312 -1.567753e-26)
(0.0002232226 0.0001355624 6.678029e-27)
(0.0001396285 0.0003149126 -2.915257e-30)
(6.467134e-05 0.0003067 1.140013e-26)
(8.766132e-06 8.565571e-05 -2.52413e-26)
(-3.956477e-05 -0.0003501854 -1.821151e-26)
(-9.295901e-05 -0.0009550558 1.736005e-30)
(-0.0001597087 -0.001689517 1.576989e-31)
(-5.913761e-05 0.0001283851 6.5941e-28)
(-0.0001027448 0.0002944906 -4.394441e-27)
(-0.0001459848 0.0002824279 -2.673856e-26)
(-0.0001827399 5.777383e-05 1.185388e-26)
(-0.0002151764 -0.0003825152 5.602703e-30)
(-0.0002466906 -0.0009933757 -5.312174e-27)
(-0.0002792449 -0.001735962 -2.251738e-26)
(-0.0003475257 0.0001234934 -6.931668e-27)
(-0.0003484564 0.0002840317 -4.794091e-27)
(-0.0003560349 0.0002693998 -2.3891e-26)
(-0.0003703056 4.323259e-05 1.083232e-26)
(-0.0003840452 -0.000396151 -9.715081e-27)
(-0.0003921753 -0.001003236 -5.827897e-27)
(-0.0003883553 -0.00173799 -3.16134e-26)
(-0.0006079347 0.0001240334 -1.757102e-26)
(-0.0005692428 0.0002866088 4.333746e-27)
(-0.0005445341 0.0002681876 2.401709e-26)
(-0.0005392867 4.248623e-05 3.579374e-26)
(-0.0005365611 -0.0003904261 3.276087e-26)
(-0.0005228479 -0.0009847673 4.998606e-27)
(-0.000486706 -0.001697675 3.386776e-27)
(-0.000831255 0.0001301836 4.364752e-26)
(-0.0007595687 0.0003006571 -4.161341e-26)
(-0.0007115552 0.0002792031 6.113516e-27)
(-0.0006927016 5.576935e-05 1.203341e-26)
(-0.0006777569 -0.0003642737 9.342381e-26)
(-0.0006459316 -0.0009370726 -5.779558e-30)
(-0.0005831853 -0.001621385 1.996458e-26)
(-0.001012846 0.0001383223 5.667067e-26)
(-0.0009144913 0.0003210887 -1.128866e-25)
(-0.0008546108 0.000299715 -3.772774e-26)
(-0.0008250233 8.132402e-05 -2.450948e-26)
(-0.0007991429 -0.0003221135 5.203305e-26)
(-0.0007526924 -0.0008658918 6.699412e-30)
(-0.0006751673 -0.001517597 1.267905e-25)
(-0.00113529 0.0001471309 4.036105e-27)
(-0.001020189 0.0003457756 -3.106831e-26)
(-0.0009576174 0.00033046 1.334416e-25)
(-0.0009231958 0.0001195644 -1.234069e-27)
(-0.000895843 -0.0002679151 -2.390059e-25)
(-0.0008467056 -0.0007787179 3.77731e-26)
(-0.00076904 -0.001370672 2.084455e-25)
(-0.001184042 0.0001562231 -1.328351e-25)
(-0.001070359 0.0003713611 -1.349104e-25)
(-0.001015763 0.0003558513 2.463057e-30)
(-0.0009983767 0.0001571502 1.379649e-25)
(-0.0009809594 -0.0002059788 3.851655e-26)
(-0.0009381664 -0.0006796336 1.522436e-25)
(-0.0008595608 -0.001229313 -2.114825e-27)
(-0.001155544 0.0001499134 -2.643921e-25)
(-0.001073571 0.0003752754 -2.624561e-26)
(-0.001047494 0.0003714399 -2.557953e-26)
(-0.001048922 0.0001894363 2.919599e-25)
(-0.001039935 -0.0001363787 1.465429e-25)
(-0.001000221 -0.0005642374 -1.426934e-25)
(-0.0009190967 -0.001065384 -1.405551e-25)
(-0.001064834 0.0001344386 1.819566e-27)
(-0.001032618 0.0003447438 2.708415e-25)
(-0.001045769 0.0003648279 -3.820123e-29)
(-0.00106215 0.0002169457 2.973456e-25)
(-0.00105768 -6.44477e-05 1.505261e-25)
(-0.001019991 -0.0004392958 1.594248e-28)
(-0.0009464153 -0.0008926639 1.3791e-25)
(-0.0009259897 0.0001037108 -1.455635e-27)
(-0.000938661 0.0002743642 2.526198e-25)
(-0.0009943258 0.0003284379 -1.362202e-25)
(-0.001033954 0.0002331297 2.6996e-25)
(-0.001037876 -1.403723e-08 -6.276676e-29)
(-0.001012008 -0.0003173165 2.967318e-25)
(-0.0009643786 -0.0007051054 2.86052e-25)
(-0.000765487 5.924512e-05 -8.306948e-26)
(-0.0008002759 0.0001756029 1.026236e-25)
(-0.0008883773 0.0002553063 -1.211177e-25)
(-0.0009602973 0.0002221978 1.365839e-25)
(-0.001000225 5.950436e-05 -3.718472e-29)
(-0.0009901268 -0.0002063865 1.457476e-25)
(-0.0009498987 -0.0005365719 -8.35039e-30)
(-0.0006170277 1.505496e-05 0)
(-0.0006447065 7.31136e-05 -5.438696e-30)
(-0.0007329809 0.0001522814 4.444456e-26)
(-0.0008425653 0.0001738837 6.057685e-26)
(-0.00091358 8.486001e-05 4.306176e-29)
(-0.0009315193 -0.0001063249 7.800066e-29)
(-0.0009005152 -0.0003745996 2.68526e-25)
(-0.0005045156 -8.486521e-06 0)
(-0.0005131346 -1.053796e-06 1.293848e-27)
(-0.0005724766 4.847013e-05 4.340343e-27)
(-0.0006720545 9.207146e-05 8.467329e-27)
(-0.0007658233 7.38008e-05 -9.923483e-26)
(-0.0008174135 -3.561331e-05 9.384557e-26)
(-0.0008329305 -0.0002190958 5.60241e-25)
(-0.0004293069 -1.394074e-05 -4.430554e-26)
(-0.0004219433 -3.197516e-05 0)
(-0.0004425349 -2.310853e-05 0)
(-0.0005052273 9.947548e-06 5.773328e-27)
(-0.0005849525 2.916824e-05 -9.326584e-26)
(-0.0006661741 -4.129239e-06 -1.258025e-25)
(-0.0007113321 -0.00012018 1.799499e-25)
(-0.0003777199 -1.32123e-05 -3.886759e-26)
(-0.0003666107 -3.569898e-05 -3.01002e-28)
(-0.0003641336 -4.771728e-05 -3.585674e-28)
(-0.0003830747 -4.298091e-05 5.036915e-28)
(-0.0004369495 -2.161052e-05 8.210168e-27)
(-0.0005015665 -1.979389e-05 4.991956e-27)
(-0.0005613114 -6.736204e-05 -1.453063e-25)
(-0.0003392468 -1.152824e-05 0)
(-0.0003294261 -3.26937e-05 3.448025e-26)
(-0.000322092 -4.898066e-05 0)
(-0.0003222007 -5.71717e-05 -9.990257e-28)
(-0.0003370489 -5.716399e-05 -8.584927e-28)
(-0.0003765783 -5.246558e-05 4.366437e-26)
(-0.0004309765 -6.309093e-05 -5.026993e-26)
(-0.0003082323 -1.031228e-05 0)
(-0.0003005741 -2.978767e-05 -3.115411e-26)
(-0.0002947832 -4.549282e-05 3.108001e-26)
(-0.0002916101 -5.833274e-05 0)
(-0.0002946672 -6.751209e-05 -2.657936e-27)
(-0.0003100869 -7.344919e-05 2.747741e-26)
(-0.0003394215 -8.356347e-05 3.303097e-26)
(-0.0002817243 -9.590797e-06 0)
(-0.0002761944 -2.759758e-05 -8.575292e-26)
(-0.0002719786 -4.375696e-05 -3.138549e-29)
(-0.0002699704 -5.803646e-05 -5.9175e-26)
(-0.0002719478 -7.065377e-05 -3.173628e-27)
(-0.0002791402 -8.394904e-05 2.931599e-26)
(-0.000293867 -0.0001009988 -1.471004e-26)
(-0.00025856 -9.013794e-06 2.647339e-26)
(-0.0002542269 -2.657047e-05 -2.653397e-26)
(-0.0002512397 -4.278211e-05 4.602909e-30)
(-0.0002502505 -5.800723e-05 -5.122019e-26)
(-0.0002516723 -7.318916e-05 0)
(-0.0002564794 -8.973617e-05 0)
(-0.0002669068 -0.0001107863 -4.732292e-26)
(-0.0002376351 -8.64326e-06 2.424724e-26)
(-0.0002341163 -2.579662e-05 -2.424156e-26)
(-0.0002317324 -4.220685e-05 2.391428e-26)
(-0.0002308986 -5.811867e-05 2.384791e-26)
(-0.0002314158 -7.499772e-05 0)
(-0.0002338123 -9.409575e-05 0)
(-0.0002405772 -0.0001161598 -2.854667e-26)
(-0.0002183466 -8.323893e-06 -2.231461e-26)
(-0.0002153719 -2.507618e-05 -2.268702e-26)
(-0.0002132951 -4.132462e-05 -5.137763e-28)
(-0.0002119124 -5.783398e-05 2.101272e-26)
(-0.0002112879 -7.534832e-05 5.235551e-27)
(-0.0002124871 -9.442278e-05 -3.557518e-26)
(-0.000213245 -0.0001176829 1.812324e-26)
(-0.0002004276 -7.979736e-06 -2.051459e-26)
(-0.0001978599 -2.41848e-05 -1.57759e-28)
(-0.000195674 -4.031722e-05 5.198984e-28)
(-0.0001937738 -5.673043e-05 7.417872e-28)
(-0.0001922215 -7.429932e-05 0)
(-0.0001911729 -9.33297e-05 -2.112185e-26)
(-0.0001887983 -0.0001153129 1.87917e-26)
(-0.0001836821 -7.658984e-06 0)
(-0.0001813461 -2.324375e-05 -3.017616e-28)
(-0.0001789676 -3.90273e-05 -5.147402e-28)
(-0.0001763667 -5.533847e-05 4.058969e-26)
(-0.0001744382 -7.180541e-05 6.921154e-27)
(-0.000171009 -9.043758e-05 3.185693e-26)
(-0.0001669759 -0.0001104729 1.361611e-26)
(-0.0001680445 -7.264911e-06 -4.647856e-29)
(-0.0001657736 -2.21789e-05 -1.48127e-28)
(-0.0001632486 -3.72302e-05 0)
(-0.0001605573 -5.270149e-05 -4.266043e-29)
(-0.0001570504 -6.897185e-05 1.58554e-26)
(-0.0001528855 -8.604616e-05 1.531845e-26)
(-0.0001475579 -0.000104166 -2.794639e-27)
(-0.0001534042 -6.874507e-06 1.562764e-26)
(-0.0001511641 -2.106679e-05 -1.577549e-26)
(-0.0001483924 -3.556652e-05 2.790598e-26)
(-0.0001456512 -4.989412e-05 -3.235193e-26)
(-0.0001413837 -6.518334e-05 1.338438e-26)
(-0.0001365786 -8.077396e-05 0)
(-0.0001303903 -9.700281e-05 2.615614e-27)
(-0.0001397018 -6.469185e-06 1.428943e-26)
(-0.000137403 -1.992385e-05 -1.38838e-26)
(-0.0001348799 -3.325885e-05 1.357987e-26)
(-0.0001314162 -4.70369e-05 0)
(-0.0001271184 -6.095867e-05 -1.286457e-26)
(-0.0001219058 -7.510003e-05 0)
(-0.00011529 -8.954671e-05 1.152894e-26)
(-0.000126959 -6.00295e-06 0)
(-0.0001248578 -1.849603e-05 0)
(-0.0001220631 -3.117002e-05 -2.485042e-26)
(-0.0001185354 -4.381167e-05 0)
(-0.0001141609 -5.650065e-05 -2.312659e-26)
(-0.0001087333 -6.929707e-05 -1.096947e-26)
(-0.0001019009 -8.223877e-05 1.020306e-26)
(-0.0001151139 -5.61447e-06 -1.173184e-26)
(-0.0001131882 -1.713023e-05 0)
(-0.0001103465 -2.887179e-05 -1.104226e-26)
(-0.000106821 -4.044789e-05 1.114959e-26)
(-0.0001024213 -5.197184e-05 -1.038609e-26)
(-9.697062e-05 -6.342059e-05 -1.959983e-26)
(-9.017275e-05 -7.469592e-05 -9.054275e-27)
(-0.0001042735 -5.145186e-06 -1.060896e-26)
(-0.000102317 -1.58351e-05 -1.038125e-26)
(-9.96147e-05 -2.656476e-05 0)
(-9.616157e-05 -3.710747e-05 1.029577e-26)
(-9.185001e-05 -4.751768e-05 6.474408e-28)
(-8.656499e-05 -5.771126e-05 -1.832601e-26)
(-8.010051e-05 -6.751168e-05 -2.762744e-27)
(-9.427865e-05 -4.71e-06 -9.609755e-27)
(-9.240758e-05 -1.449367e-05 -9.423867e-27)
(-8.982831e-05 -2.428379e-05 9.171269e-27)
(-8.649246e-05 -3.386214e-05 0)
(-8.233851e-05 -4.327009e-05 0)
(-7.726862e-05 -5.248721e-05 -7.83984e-27)
(-7.101332e-05 -6.160633e-05 1.351538e-26)
(-8.512178e-05 -4.27655e-06 -8.675365e-27)
(-8.336526e-05 -1.318618e-05 -8.509665e-27)
(-8.092592e-05 -2.207971e-05 8.262899e-27)
(-7.774742e-05 -3.073898e-05 0)
(-7.379145e-05 -3.918679e-05 5.341585e-28)
(-6.897236e-05 -4.735869e-05 9.628276e-31)
(-6.311842e-05 -5.525802e-05 -7.590025e-28)
(-7.677263e-05 -3.859414e-06 0)
(-7.514899e-05 -1.192845e-05 -7.670416e-27)
(-7.286131e-05 -1.997601e-05 7.448795e-27)
(-6.986989e-05 -2.777508e-05 0)
(-6.615317e-05 -3.534246e-05 -7.241016e-27)
(-6.165201e-05 -4.26171e-05 -1.168021e-27)
(-5.624463e-05 -4.959008e-05 -6.826536e-28)
(-6.919473e-05 -3.46269e-06 7.054823e-27)
(-6.7708e-05 -1.073636e-05 -3.656528e-29)
(-6.5582e-05 -1.799101e-05 6.642953e-27)
(-6.279601e-05 -2.499229e-05 -1.70082e-28)
(-5.934e-05 -3.175362e-05 -2.117877e-28)
(-5.51552e-05 -3.822807e-05 -5.618256e-27)
(-5.019663e-05 -4.436861e-05 0)
(-6.23445e-05 -3.089231e-06 1.271219e-26)
(-6.099288e-05 -9.616959e-06 0)
(-5.903209e-05 -1.61354e-05 0)
(-5.645592e-05 -2.240986e-05 5.933428e-27)
(-5.325152e-05 -2.847455e-05 1.108711e-26)
(-4.929774e-05 -3.435495e-05 -5.020438e-27)
(-4.488271e-05 -3.959102e-05 0)
(-5.617553e-05 -2.740306e-06 5.726805e-27)
(-5.495403e-05 -8.572749e-06 -2.923488e-29)
(-5.31573e-05 -1.440807e-05 -4.91023e-29)
(-5.078945e-05 -2.000597e-05 -1.396267e-28)
(-4.784254e-05 -2.538556e-05 4.718616e-27)
(-4.426017e-05 -3.054632e-05 0)
(-4.008769e-05 -3.537383e-05 -4.071831e-27)
(-5.063998e-05 -2.416458e-06 -4.021133e-30)
(-4.954219e-05 -7.605369e-06 -5.101511e-27)
(-4.790561e-05 -1.281292e-05 -4.948121e-27)
(-4.574397e-05 -1.779838e-05 -9.372777e-27)
(-4.305871e-05 -2.258816e-05 0)
(-3.982024e-05 -2.718837e-05 -3.999343e-27)
(-3.599495e-05 -3.148451e-05 4.713618e-30)
(-4.568976e-05 -2.117508e-06 -4.654893e-27)
(-4.470751e-05 -6.71406e-06 -9.147197e-27)
(-4.322342e-05 -1.134722e-05 -8.887808e-27)
(-4.125742e-05 -1.57764e-05 -4.333768e-27)
(-3.880609e-05 -2.003974e-05 -1.372828e-28)
(-3.587764e-05 -2.412632e-05 -3.602454e-27)
(-3.242017e-05 -2.795335e-05 3.488373e-27)
(-4.12777e-05 -1.842722e-06 -4.2077e-27)
(-4.040133e-05 -5.896015e-06 -8.25566e-27)
(-3.905799e-05 -1.000787e-05 -3.997468e-27)
(-3.726632e-05 -1.394798e-05 0)
(-3.498586e-05 -1.77958e-05 -9.200515e-28)
(-3.23957e-05 -2.133694e-05 -1.421947e-27)
(-2.928289e-05 -2.477028e-05 -3.442935e-28)
(-3.735878e-05 -1.590096e-06 -3.810992e-27)
(-3.657811e-05 -5.144591e-06 -3.727758e-27)
(-3.536256e-05 -8.776454e-06 8.926662e-29)
(-3.373322e-05 -1.224988e-05 8.338888e-29)
(-3.168179e-05 -1.563497e-05 0)
(-2.92496e-05 -1.887977e-05 -2.985631e-27)
(-2.651721e-05 -2.190974e-05 1.528719e-28)
(-3.389063e-05 -1.358365e-06 -3.456228e-27)
(-3.319552e-05 -4.456288e-06 -3.383891e-27)
(-3.209587e-05 -7.652717e-06 5.180731e-29)
(-3.061764e-05 -1.071572e-05 3.640365e-29)
(-2.876416e-05 -1.372067e-05 0)
(-2.653559e-05 -1.661634e-05 -2.592297e-27)
(-2.408384e-05 -1.932798e-05 2.701443e-28)
(-3.08335e-05 -1.145323e-06 1.863073e-30)
(-3.021307e-05 -3.824763e-06 -6.165505e-27)
(-2.921426e-05 -6.624475e-06 2.231365e-29)
(-2.786588e-05 -9.316916e-06 3.155418e-29)
(-2.617727e-05 -1.197854e-05 0)
(-2.41479e-05 -1.456279e-05 0)
(-2.193019e-05 -1.700646e-05 0)
(-2.815113e-05 -9.486425e-07 0)
(-2.759385e-05 -3.242735e-06 -2.817933e-27)
(-2.667923e-05 -5.679666e-06 0)
(-2.543513e-05 -8.038598e-06 2.551781e-27)
(-2.388869e-05 -1.038968e-05 -7.048541e-29)
(-2.203503e-05 -1.270268e-05 -8.753207e-29)
(-2.001747e-05 -1.491761e-05 1.938156e-27)
(-2.581158e-05 -7.653492e-07 -2.629668e-27)
(-2.530454e-05 -2.702537e-06 0)
(-2.445374e-05 -4.810928e-06 3.178375e-29)
(-2.327446e-05 -6.890519e-06 2.087439e-27)
(-2.186524e-05 -8.929733e-06 -2.696624e-27)
(-2.015805e-05 -1.10148e-05 0)
(-1.830927e-05 -1.303636e-05 1.868533e-27)
(-2.378798e-05 -5.915247e-07 -2.422954e-27)
(-2.331681e-05 -2.191446e-06 0)
(-2.251058e-05 -3.986925e-06 1.304619e-29)
(-2.140168e-05 -5.777719e-06 1.907395e-29)
(-2.003637e-05 -7.618018e-06 -4.106384e-27)
(-1.847742e-05 -9.481487e-06 1.893491e-27)
(-1.677148e-05 -1.133901e-05 -1.715434e-27)
(-2.205806e-05 -4.236346e-07 0)
(-2.160813e-05 -1.701785e-06 -2.202157e-27)
(-2.082447e-05 -3.208776e-06 1.026726e-29)
(-1.975374e-05 -4.749349e-06 2.021326e-27)
(-1.843422e-05 -6.380278e-06 -1.892591e-27)
(-1.696544e-05 -8.072474e-06 1.7416e-27)
(-1.537225e-05 -9.802162e-06 9.302543e-31)
(-2.060673e-05 -2.579178e-07 0)
(-2.015737e-05 -1.220277e-06 -2.060679e-27)
(-1.936569e-05 -2.452504e-06 1.987372e-27)
(-1.829463e-05 -3.765947e-06 1.888542e-27)
(-1.699767e-05 -5.2176e-06 -1.734546e-27)
(-1.558476e-05 -6.776077e-06 4.436514e-29)
(-1.408093e-05 -8.41015e-06 1.44827e-27)
(-1.942683e-05 -8.672512e-08 0)
(-1.894899e-05 -7.296495e-07 0)
(-1.811037e-05 -1.697241e-06 1.863171e-27)
(-1.699941e-05 -2.807716e-06 -1.752328e-27)
(-1.569104e-05 -4.114981e-06 3.888814e-31)
(-1.430494e-05 -5.577531e-06 0)
(-1.28702e-05 -7.15091e-06 0)
(-1.851982e-05 9.902715e-08 -1.887363e-27)
(-1.797366e-05 -2.075726e-07 1.844467e-27)
(-1.703605e-05 -9.191348e-07 8.787985e-28)