/*--------------------------------*- C++ -*----------------------------------*\
| =========                 |                                                 |
| \\      /  F ield         | OpenFOAM: The Open Source CFD Toolbox           |
|  \\    /   O peration     | Version:  2206                                  |
|   \\  /    A nd           | Website:  www.openfoam.com                      |
|    \\/     M anipulation  |                                                 |
\*---------------------------------------------------------------------------*/
FoamFile
{
    version     2.0;
    format      ascii;
    arch        "LSB;label=32;scalar=64";
    class       surfaceVectorField;
    location    "1.6";
    object      Ufa;
}
// * * * * * * * * * * * * * * * * * * * * * * * * * * * * * * * * * * * * * //

dimensions      [0 1 -1 0 0 0 0];

internalField   nonuniform List<vector> 
26037
(
(3.624513e-06 -7.070589e-05 4.514036e-24)
(-1.505369e-05 -6.844178e-05 7.734479e-28)
(3.266556e-07 -3.656445e-05 -3.010045e-25)
(-8.760796e-06 -3.929495e-05 8.047933e-27)
(-6.235884e-09 -2.176641e-05 -2.05747e-29)
(-3.132722e-06 -2.388347e-05 -2.062142e-29)
(-4.277477e-08 -1.456923e-05 -5.779033e-30)
(-1.352581e-06 -1.600779e-05 0)
(-5.610644e-08 -1.078385e-05 2.258539e-27)
(-7.384169e-07 -1.194148e-05 -5.778354e-30)
(-6.188919e-08 -8.156102e-06 -1.161741e-29)
(-4.546993e-07 -9.103691e-06 -7.073727e-30)
(-3.074949e-07 -6.943394e-06 -5.815531e-30)
(-6.286381e-08 -6.140905e-06 7.858554e-28)
(-2.779719e-05 -3.66454e-05 -1.210808e-32)
(-2.459462e-05 -2.567128e-05 1.152245e-31)
(-1.234964e-05 -2.659217e-05 -1.222446e-32)
(-1.426917e-05 -2.357837e-05 1.706697e-31)
(-4.477142e-06 -1.810876e-05 0)
(-6.190594e-06 -1.763044e-05 6.249144e-30)
(-2.048238e-06 -1.338032e-05 -1.270171e-35)
(-3.102189e-06 -1.362928e-05 1.158293e-29)
(-1.137005e-06 -1.026159e-05 4.549643e-35)
(-1.783559e-06 -1.07543e-05 2.41521e-29)
(-7.00295e-07 -7.891137e-06 3.016223e-34)
(-1.108027e-06 -8.451573e-06 5.819237e-35)
(-7.344922e-07 -6.555135e-06 -1.159382e-30)
(-4.672543e-07 -5.990613e-06 -5.82459e-30)
(-1.112959e-05 -1.251585e-05 2.992692e-31)
(-7.731969e-06 -6.857312e-06 7.458715e-26)
(-8.143876e-06 -1.457311e-05 6.426602e-30)
(-7.600288e-06 -1.139356e-05 -1.739506e-26)
(-4.805274e-06 -1.311208e-05 7.117706e-29)
(-5.224024e-06 -1.17121e-05 7.495999e-30)
(-2.837316e-06 -1.100259e-05 -8.24756e-28)
(-3.361014e-06 -1.055037e-05 1.240076e-29)
(-1.754635e-06 -8.944441e-06 5.79343e-30)
(-2.183505e-06 -8.943703e-06 -2.018025e-29)
(-1.142228e-06 -7.115688e-06 -3.312102e-35)
(-1.4619e-06 -7.343138e-06 0)
(-1.013252e-06 -5.845968e-06 1.020445e-30)
(-7.803237e-07 -5.506168e-06 5.826377e-30)
(-4.198985e-06 -5.728186e-06 3.358815e-31)
(-2.318278e-06 -2.832505e-06 -2.687987e-31)
(-4.694002e-06 -8.511482e-06 1.612672e-30)
(-3.834863e-06 -6.182861e-06 -7.000371e-27)
(-3.76629e-06 -9.11609e-06 1.17935e-28)
(-3.596362e-06 -7.654002e-06 -2.544182e-27)
(-2.706088e-06 -8.47944e-06 7.345766e-31)
(-2.834002e-06 -7.739236e-06 4.985296e-28)
(-1.890797e-06 -7.342426e-06 1.030776e-33)
(-2.10035e-06 -7.072928e-06 -6.930468e-30)
(-1.332923e-06 -6.073482e-06 2.426648e-35)
(-1.534805e-06 -6.076684e-06 -1.291853e-35)
(-1.130339e-06 -4.974066e-06 5.829689e-30)
(-9.588765e-07 -4.806717e-06 -5.829722e-30)
(-1.952449e-06 -3.284325e-06 -1.185781e-28)
(-9.144092e-07 -1.643831e-06 -1.476181e-31)
(-2.738799e-06 -5.313464e-06 -1.882356e-28)
(-2.04027e-06 -3.742636e-06 8.091036e-32)
(-2.658829e-06 -6.268019e-06 4.227534e-31)
(-2.334716e-06 -5.079831e-06 5.998947e-32)
(-2.225307e-06 -6.316918e-06 -9.280911e-29)
(-2.145784e-06 -5.555713e-06 -3.136692e-28)
(-1.743706e-06 -5.800753e-06 -1.359389e-28)
(-1.794187e-06 -5.412062e-06 -1.423794e-28)
(-1.33221e-06 -4.97728e-06 -1.143479e-28)
(-1.432635e-06 -4.860947e-06 -5.842842e-30)
(-1.124738e-06 -4.073981e-06 -1.026581e-29)
(-1.016149e-06 -4.017923e-06 5.829653e-30)
(-1.001358e-06 -2.100462e-06 3.703925e-31)
(-4.219998e-07 -1.118717e-06 0)
(-1.633774e-06 -3.498177e-06 1.258457e-28)
(-1.142786e-06 -2.449771e-06 6.757366e-31)
(-1.820753e-06 -4.36913e-06 -1.749779e-28)
(-1.508178e-06 -3.480029e-06 -6.017028e-30)
(-1.713439e-06 -4.645223e-06 9.628223e-29)
(-1.562875e-06 -4.001451e-06 -5.616924e-30)
(-1.481663e-06 -4.463045e-06 -5.128691e-30)
(-1.441709e-06 -4.06274e-06 -1.689192e-28)
(-1.224713e-06 -3.953711e-06 -2.734767e-29)
(-1.251454e-06 -3.778397e-06 -5.191856e-30)
(-1.048636e-06 -3.23115e-06 -1.177741e-29)
(-9.907385e-07 -3.233894e-06 1.404328e-28)
(-5.629106e-07 -1.467027e-06 3.049911e-31)
(-2.247082e-07 -8.484252e-07 -5.016371e-31)
(-1.014478e-06 -2.424012e-06 -5.311648e-30)
(-6.841911e-07 -1.715679e-06 -1.039076e-27)
(-1.248994e-06 -3.109944e-06 -1.091076e-27)
(-9.974686e-07 -2.466235e-06 -6.026583e-28)
(-1.290145e-06 -3.416984e-06 -4.858684e-30)
(-1.134901e-06 -2.912274e-06 -5.995177e-30)
(-1.210904e-06 -3.374577e-06 4.788189e-29)
(-1.136592e-06 -3.033415e-06 1.868022e-30)
(-1.074555e-06 -3.049988e-06 7.435325e-31)
(-1.057678e-06 -2.866226e-06 1.487033e-30)
(-9.429393e-07 -2.470855e-06 7.383009e-31)
(-9.218851e-07 -2.506987e-06 -4.488972e-34)
(-3.457508e-07 -1.09661e-06 -1.992118e-31)
(-1.353661e-07 -6.915817e-07 1.760631e-27)
(-6.667327e-07 -1.756488e-06 6.246819e-31)
(-4.422378e-07 -1.26862e-06 -3.265622e-31)
(-8.83153e-07 -2.267325e-06 3.253908e-31)
(-6.922587e-07 -1.809397e-06 7.422104e-31)
(-9.81566e-07 -2.529759e-06 7.627057e-31)
(-8.455593e-07 -2.152433e-06 7.53721e-31)
(-9.833565e-07 -2.52505e-06 1.501906e-30)
(-9.032192e-07 -2.259137e-06 -4.475504e-28)
(-9.257803e-07 -2.284938e-06 2.200929e-29)
(-8.908885e-07 -2.134105e-06 1.489705e-30)
(-8.365887e-07 -1.808683e-06 7.434055e-31)
(-8.379564e-07 -1.852091e-06 -5.152028e-30)
(-2.317007e-07 -8.63308e-07 -6.12691e-31)
(-9.118642e-08 -5.921296e-07 -1.465532e-27)
(-4.675092e-07 -1.320985e-06 -2.098262e-31)
(-3.1102e-07 -9.782684e-07 1.505294e-27)
(-6.530615e-07 -1.690898e-06 7.833534e-29)
(-5.106883e-07 -1.365303e-06 5.652214e-28)
(-7.676252e-07 -1.882547e-06 2.990741e-30)
(-6.567481e-07 -1.609383e-06 1.712151e-30)
(-8.107473e-07 -1.86814e-06 4.260492e-29)
(-7.378828e-07 -1.673954e-06 -5.667293e-28)
(-8.017064e-07 -1.657957e-06 7.453433e-31)
(-7.630583e-07 -1.550775e-06 7.451136e-31)
(-7.484466e-07 -1.254002e-06 0)
(-7.591759e-07 -1.277466e-06 -3.739758e-31)
(-1.703811e-07 -7.068712e-07 -1.121521e-31)
(-6.861411e-08 -5.245382e-07 4.951516e-31)
(-3.539868e-07 -1.022221e-06 -9.188538e-31)
(-2.399565e-07 -7.785802e-07 -6.07592e-31)
(-5.127339e-07 -1.281037e-06 6.334479e-31)
(-4.05813e-07 -1.051301e-06 -9.421318e-31)
(-6.275832e-07 -1.401227e-06 9.31871e-31)
(-5.400612e-07 -1.210272e-06 -9.039674e-28)
(-6.902009e-07 -1.356533e-06 -1.936995e-32)
(-6.29319e-07 -1.224948e-06 7.02454e-28)
(-7.097947e-07 -1.146917e-06 0)
(-6.746844e-07 -1.083331e-06 0)
(-6.850477e-07 -7.90419e-07 0)
(-6.9743e-07 -7.865755e-07 1.129912e-30)
(-1.380792e-07 -5.960672e-07 0)
(-5.754946e-08 -4.759037e-07 0)
(-2.915903e-07 -8.074105e-07 -6.306171e-31)
(-2.034927e-07 -6.339308e-07 6.065505e-31)
(-4.315884e-07 -9.787033e-07 2.774683e-31)
(-3.492701e-07 -8.193946e-07 1.247977e-27)
(-5.424376e-07 -1.034077e-06 9.395697e-31)
(-4.740304e-07 -9.072393e-07 -7.709051e-31)
(-6.1381e-07 -9.516764e-07 2.009652e-32)
(-5.654642e-07 -8.724868e-07 -8.457525e-28)
(-6.4992e-07 -7.269257e-07 0)
(-6.216014e-07 -7.031966e-07 0)
(-6.473802e-07 -3.998897e-07 7.895489e-31)
(-6.571408e-07 -3.679459e-07 3.645527e-31)
(-1.228576e-07 -5.136064e-07 6.062981e-31)
(-5.32314e-08 -4.389878e-07 0)
(-2.609877e-07 -6.457476e-07 1.298947e-32)
(-1.881159e-07 -5.237916e-07 -1.503356e-27)
(-3.902268e-07 -7.468896e-07 -2.278774e-30)
(-3.24272e-07 -6.404463e-07 -1.339338e-30)
(-4.977184e-07 -7.453657e-07 -2.47833e-29)
(-4.439343e-07 -6.686561e-07 1.150831e-27)
(-5.732586e-07 -6.239216e-07 -6.038471e-32)
(-5.362819e-07 -5.877852e-07 6.309658e-31)
(-6.190312e-07 -3.762542e-07 7.89277e-31)
(-5.98549e-07 -3.873394e-07 -6.787856e-31)
(-6.339949e-07 -6.588717e-08 7.120239e-28)
(-6.38863e-07 -7.488793e-09 -1.551171e-29)
(-1.18384e-07 -4.490248e-07 -1.779746e-31)
(-5.317583e-08 -4.094471e-07 4.599661e-31)
(-2.51215e-07 -5.183929e-07 -3.349602e-30)
(-1.8649e-07 -4.357148e-07 -1.780037e-31)
(-3.765144e-07 -5.618638e-07 -1.64153e-30)
(-3.208165e-07 -4.960864e-07 -1.489732e-30)
(-4.831715e-07 -5.104351e-07 -1.947007e-31)
(-4.399506e-07 -4.733351e-07 -1.656022e-30)
(-5.615686e-07 -3.511007e-07 1.174862e-32)
(-5.341973e-07 -3.502202e-07 -1.195038e-27)
(-6.134704e-07 -7.70736e-08 -6.593532e-31)
(-6.006693e-07 -1.178334e-07 9.696098e-28)
(-6.426484e-07 2.257259e-07 -8.341739e-28)
(-6.416119e-07 3.078135e-07 1.944962e-32)
(-1.211713e-07 -3.959947e-07 4.600548e-31)
(-5.60263e-08 -3.846152e-07 -1.41485e-27)
(-2.558989e-07 -4.133686e-07 -7.442738e-31)
(-1.944638e-07 -3.618328e-07 0)
(-3.827738e-07 -4.078131e-07 -1.284715e-29)
(-3.325983e-07 -3.742843e-07 -2.23319e-30)
(-4.916363e-07 -3.121542e-07 5.886078e-31)
(-4.536459e-07 -3.068859e-07 9.230976e-30)
(-5.733022e-07 -1.167519e-07 6.934382e-31)
(-5.512371e-07 -1.454464e-07 -1.63691e-27)
(-6.297941e-07 1.848574e-07 1.367566e-32)
(-6.234825e-07 1.191521e-07 -6.353704e-31)
(-6.710644e-07 4.867017e-07 3.100089e-33)
(-6.638753e-07 5.892731e-07 -1.535662e-30)
(-1.292002e-07 -3.503127e-07 4.120182e-31)
(-6.103497e-08 -3.627047e-07 4.118283e-31)
(-2.709737e-07 -3.227527e-07 -1.487161e-30)
(-2.097923e-07 -2.968598e-07 4.827778e-31)
(-4.022246e-07 -2.738705e-07 -1.180818e-29)
(-3.569254e-07 -2.667823e-07 -1.48754e-30)
(-5.1342e-07 -1.394037e-07 5.041542e-29)
(-4.845799e-07 -1.588144e-07 1.341455e-27)
(-6.017138e-07 9.204632e-08 1.270335e-29)
(-5.875499e-07 3.839343e-08 1.430467e-29)
(-6.647065e-07 4.210271e-07 -6.460355e-31)
(-6.652842e-07 3.343149e-07 1.509219e-30)
(-7.177674e-07 7.266805e-07 1.144217e-27)
(-7.041632e-07 8.465479e-07 -1.292163e-30)
(-1.414983e-07 -3.091109e-07 4.825447e-31)
(-6.772264e-08 -3.424697e-07 0)
(-2.955764e-07 -2.409449e-07 4.828752e-31)
(-2.309893e-07 -2.371011e-07 -2.018439e-27)
(-4.385157e-07 -1.525398e-07 9.969499e-31)
(-3.914528e-07 -1.67798e-07 -7.427937e-31)
(-5.575452e-07 1.66168e-08 -6.545325e-30)
(-5.302213e-07 -2.285372e-08 2.492517e-31)
(-6.517153e-07 2.83197e-07 3.035928e-30)
(-6.413932e-07 2.087526e-07 1.526951e-30)
(-7.183067e-07 6.401369e-07 -4.278984e-29)
(-7.244112e-07 5.361019e-07 1.508564e-30)
(-7.815305e-07 9.53769e-07 9.076682e-31)
(-7.618034e-07 1.087813e-06 2.412358e-30)
(-1.570714e-07 -2.703159e-07 8.377549e-31)
(-7.581217e-08 -3.230449e-07 6.037814e-31)
(-3.267096e-07 -1.640168e-07 9.594149e-32)
(-2.570297e-07 -1.799233e-07 -2.215512e-27)
(-4.828615e-07 -3.83583e-08 5.973199e-30)
(-4.339125e-07 -7.304488e-08 -2.228566e-30)
(-6.12274e-07 1.656889e-07 -7.601523e-31)
(-5.85734e-07 1.079862e-07 -1.497287e-30)
(-7.14939e-07 4.652931e-07 0)
(-7.074726e-07 3.736506e-07 0)
(-7.876011e-07 8.500037e-07 0)
(-7.984108e-07 7.316898e-07 -9.719215e-31)
(-8.611491e-07 1.174964e-06 -3.019897e-30)
(-8.356856e-07 1.320342e-06 -1.507268e-30)
(-1.756121e-07 -2.325038e-07 6.727267e-29)
(-8.516606e-08 -3.037967e-07 -1.983511e-27)
(-3.640597e-07 -8.903412e-08 2.34326e-29)
(-2.874658e-07 -1.233702e-07 -9.108237e-32)
(-5.364929e-07 7.304671e-08 1.065602e-29)
(-4.838841e-07 2.075252e-08 -3.715377e-30)
(-6.788848e-07 3.116653e-07 -7.610419e-31)
(-6.515951e-07 2.377341e-07 -2.248298e-30)
(-7.919101e-07 6.441695e-07 -9.8322e-31)
(-7.860499e-07 5.375663e-07 0)
(-8.719183e-07 1.056944e-06 7.736752e-29)
(-8.866278e-07 9.265434e-07 -2.108014e-27)
(-9.559364e-07 1.39626e-06 -4.532309e-30)
(-9.253297e-07 1.550527e-06 1.049152e-28)
(-1.96843e-07 -1.945089e-07 7.377296e-29)
(-9.565928e-08 -2.842083e-07 7.108682e-31)
(-4.070966e-07 -1.368828e-08 2.68661e-29)
(-3.218875e-07 -6.589787e-08 -2.673429e-27)
(-5.986594e-07 1.851315e-07 3.248484e-29)
(-5.407134e-07 1.161434e-07 -2.006794e-30)
(-7.564778e-07 4.587501e-07 -1.523421e-30)
(-7.265447e-07 3.698205e-07 -1.499044e-30)
(-8.818269e-07 8.24359e-07 4.69234e-31)
(-8.734785e-07 7.0371e-07 1.221157e-29)
(-9.706366e-07 1.26635e-06 -1.052326e-30)
(-9.848682e-07 1.123453e-06 1.578368e-29)
(-1.064579e-06 1.622773e-06 1.530287e-30)
(-1.030324e-06 1.784087e-06 1.259818e-28)
(-2.205063e-07 -1.554359e-07 6.0505e-31)
(-1.07143e-07 -2.638425e-07 -2.369246e-27)
(-4.552883e-07 6.380813e-08 6.389435e-31)
(-3.599582e-07 -6.237305e-09 -2.915024e-27)
(-6.682675e-07 3.005195e-07 2.223795e-31)
(-6.040542e-07 2.151751e-07 -2.819798e-27)
(-8.415482e-07 6.104563e-07 1.210087e-29)
(-8.110573e-07 5.070839e-07 1.643796e-30)
(-9.771669e-07 1.004941e-06 -5.965056e-28)
(-9.743825e-07 8.759663e-07 1.367141e-29)
(-1.079517e-06 1.483341e-06 -3.029246e-28)
(-1.09824e-06 1.328186e-06 1.621762e-29)
(-1.187981e-06 1.859045e-06 1.097135e-30)
(-1.149516e-06 2.02629e-06 3.043177e-30)
(-2.463751e-07 -1.144744e-07 -8.84017e-29)
(-1.194445e-07 -2.423922e-07 -2.06514e-31)
(-5.084849e-07 1.449799e-07 -3.583645e-29)
(-4.012359e-07 5.656886e-08 -3.187108e-27)
(-7.465427e-07 4.214553e-07 2.619269e-30)
(-6.731143e-07 3.194544e-07 -3.128515e-27)
(-9.423745e-07 7.696272e-07 -5.880404e-29)
(-9.038694e-07 6.5161e-07 -3.04534e-27)
(-1.093361e-06 1.192986e-06 2.353027e-30)
(-1.086602e-06 1.0569e-06 1.513806e-30)
(-1.207591e-06 1.710282e-06 -1.164041e-30)
(-1.225318e-06 1.544604e-06 -2.715378e-27)
(-1.325297e-06 2.108874e-06 2.647e-27)
(-1.284897e-06 2.281176e-06 1.712597e-28)
(-2.740616e-07 -7.116942e-08 7.306682e-31)
(-1.323616e-07 -2.196878e-07 7.078879e-32)
(-5.656e-07 2.308702e-07 -3.945946e-29)
(-4.450386e-07 1.230949e-07 7.30775e-31)
(-8.301744e-07 5.493888e-07 8.079649e-31)
(-7.465832e-07 4.299923e-07 7.403113e-31)
(-1.047562e-06 9.379882e-07 6.728862e-32)
(-1.002236e-06 8.049349e-07 -3.364115e-27)
(-1.215581e-06 1.398566e-06 6.945783e-31)
(-1.204343e-06 1.250835e-06 1.504942e-30)
(-1.344438e-06 1.95193e-06 7.297054e-31)
(-1.359387e-06 1.776544e-06 7.09297e-31)
(-1.472812e-06 2.37477e-06 -3.301332e-27)
(-1.432781e-06 2.552449e-06 3.475944e-30)
(-3.030688e-07 -2.523407e-08 7.080159e-32)
(-1.455971e-07 -1.95629e-07 2.999359e-27)
(-6.257272e-07 3.220168e-07 0)
(-4.905436e-07 1.935877e-07 0)
(-9.183514e-07 6.852903e-07 1.464272e-30)
(-8.231767e-07 5.471966e-07 0)
(-1.158505e-06 1.116957e-06 -8.683922e-29)
(-1.104754e-06 9.67684e-07 3.733421e-27)
(-1.344751e-06 1.617753e-06 1.535861e-30)
(-1.326674e-06 1.456949e-06 3.779605e-27)
(-1.489404e-06 2.208677e-06 2.293267e-31)
(-1.495458e-06 2.021079e-06 8.268077e-33)
(-1.622641e-06 2.653792e-06 2.278401e-31)
(-1.590561e-06 2.841962e-06 -2.576455e-30)
(-3.327764e-07 2.339536e-08 3.941175e-31)
(-1.588011e-07 -1.702842e-07 3.190986e-27)
(-6.876693e-07 4.185412e-07 0)
(-5.36784e-07 2.679108e-07 7.402677e-31)
(-1.009255e-06 8.293128e-07 -1.273705e-30)
(-9.013077e-07 6.709113e-07 1.115978e-30)
(-1.272413e-06 1.306896e-06 8.382328e-29)
(-1.209385e-06 1.139683e-06 2.291832e-31)
(-1.47444e-06 1.850751e-06 -1.238824e-30)
(-1.452032e-06 1.675112e-06 3.627475e-27)
(-1.62992e-06 2.470888e-06 8.319923e-33)
(-1.637131e-06 2.279017e-06 -2.511033e-27)
(-1.778103e-06 2.9493e-06 0)
(-1.749541e-06 3.150689e-06 -2.604653e-31)
(-3.624873e-07 7.44475e-08 1.078243e-30)
(-1.715576e-07 -1.43888e-07 3.38242e-31)
(-7.500693e-07 5.200261e-07 -4.577821e-29)
(-5.825289e-07 3.453945e-07 1.834393e-31)
(-1.101088e-06 9.80975e-07 2.618119e-30)
(-9.788478e-07 8.001596e-07 4.291345e-27)
(-1.388552e-06 1.507258e-06 -1.069933e-28)
(-1.312828e-06 1.31973e-06 1.50213e-30)
(-1.612389e-06 2.097149e-06 1.392401e-30)
(-1.575538e-06 1.903641e-06 -4.485675e-27)
(-1.782226e-06 2.746027e-06 -1.651115e-31)
(-1.776907e-06 2.548859e-06 6.017584e-30)
(-1.931702e-06 3.260931e-06 3.207091e-30)
(-1.916194e-06 3.476239e-06 -3.315335e-30)
(-3.912538e-07 1.27293e-07 -5.561099e-31)
(-1.834543e-07 -1.168924e-07 -5.989473e-31)
(-8.109256e-07 6.252463e-07 2.153028e-32)
(-6.265015e-07 4.24706e-07 -4.439383e-27)
(-1.190207e-06 1.138578e-06 5.786004e-31)
(-1.053367e-06 9.328865e-07 1.303116e-30)
(-1.499432e-06 1.715662e-06 2.556731e-30)
(-1.411027e-06 1.505192e-06 0)
(-1.739278e-06 2.353538e-06 -2.476864e-28)
(-1.690271e-06 2.139728e-06 -4.882408e-31)
(-1.922162e-06 3.045427e-06 -3.785701e-28)
(-1.903046e-06 2.832119e-06 6.169766e-30)
(-2.069841e-06 3.588762e-06 6.431912e-30)
(-2.071077e-06 3.819185e-06 -7.455108e-32)
(-4.183313e-07 1.807707e-07 -1.389631e-30)
(-1.941883e-07 -8.999063e-08 -3.488491e-27)
(-8.685375e-07 7.320425e-07 -6.680709e-32)
(-6.676515e-07 5.03671e-07 -1.737821e-30)
(-1.27378e-06 1.299138e-06 7.250701e-31)
(-1.122942e-06 1.065739e-06 4.756418e-27)
(-1.60146e-06 1.928787e-06 -3.042627e-30)
(-1.500865e-06 1.691836e-06 0)
(-1.853323e-06 2.616701e-06 2.400966e-28)
(-1.792025e-06 2.378787e-06 -3.043062e-30)
(-2.046058e-06 3.355323e-06 -3.587506e-28)
(-2.010891e-06 3.121079e-06 -7.270224e-31)
(-2.182115e-06 3.92283e-06 -2.18378e-29)
(-2.208568e-06 4.175545e-06 3.224876e-30)
(-4.430315e-07 2.330764e-07 -1.75191e-30)
(-2.038567e-07 -6.419964e-08 -2.3532e-30)
(-9.216791e-07 8.371086e-07 3.016003e-32)
(-7.057884e-07 5.790057e-07 -4.812257e-27)
(-1.349599e-06 1.458053e-06 9.779473e-31)
(-1.186644e-06 1.193533e-06 9.771812e-31)
(-1.691001e-06 2.141341e-06 0)
(-1.580225e-06 1.8732e-06 -1.91463e-30)
(-1.948908e-06 2.881705e-06 -7.255067e-31)
(-1.877302e-06 2.613796e-06 -3.062006e-30)
(-2.143019e-06 3.671403e-06 -2.543414e-29)
(-2.096601e-06 3.409105e-06 -4.937311e-27)
(-2.269651e-06 4.259981e-06 1.440628e-27)
(-2.309937e-06 4.528325e-06 1.485669e-27)
(-4.658492e-07 2.815762e-07 -3.944751e-28)
(-2.118256e-07 -4.081864e-08 -2.855459e-27)
(-9.704837e-07 9.353163e-07 -1.968198e-30)
(-7.400473e-07 6.450538e-07 -1.973097e-30)
(-1.416832e-06 1.608293e-06 -1.913063e-30)
(-1.244777e-06 1.308392e-06 -2.889438e-30)
(-1.766088e-06 2.345144e-06 1.25021e-28)
(-1.648696e-06 2.039434e-06 5.624571e-27)
(-2.024454e-06 3.140078e-06 -1.899091e-30)
(-1.94351e-06 2.833435e-06 -4.35245e-30)
(-2.220786e-06 3.986768e-06 -3.432075e-28)
(-2.153691e-06 3.683759e-06 -7.560641e-27)
(-2.320052e-06 4.587914e-06 -9.040728e-27)
(-2.396399e-06 4.887601e-06 -3.127714e-27)
(-4.837884e-07 3.206771e-07 -1.211793e-30)
(-2.20135e-07 -2.338714e-08 -1.20076e-30)
(-1.014802e-06 1.019039e-06 -2.89664e-30)
(-7.756506e-07 6.944695e-07 0)
(-1.476281e-06 1.739328e-06 1.395552e-29)
(-1.302114e-06 1.398696e-06 -5.37723e-27)
(-1.82566e-06 2.527227e-06 -1.395389e-30)
(-1.709971e-06 2.175651e-06 -1.034409e-31)
(-2.072266e-06 3.376428e-06 -3.724389e-30)
(-1.991604e-06 3.020328e-06 -6.851935e-27)
(-2.25203e-06 4.281796e-06 -3.486134e-30)
(-2.176891e-06 3.926214e-06 -8.373303e-27)
(-2.315147e-06 4.893248e-06 2.987266e-31)
(-2.417867e-06 5.248547e-06 -1.72013e-30)
(-5.069765e-07 3.44854e-07 0)
(-2.322781e-07 -1.587987e-08 -2.90132e-30)
(-1.064195e-06 1.076077e-06 -3.374098e-30)
(-8.185708e-07 7.165746e-07 7.027358e-31)
(-1.53565e-06 1.835246e-06 -3.361451e-30)
(-1.365203e-06 1.446133e-06 -5.786463e-27)
(-1.875461e-06 2.668308e-06 -3.193074e-30)
(-1.774052e-06 2.260505e-06 0)
(-2.09575e-06 3.569492e-06 -4.721456e-30)
(-2.030768e-06 3.149535e-06 -7.049513e-27)
(-2.239266e-06 4.535457e-06 -1.83153e-31)
(-2.172399e-06 4.10815e-06 -1.52503e-30)
(-2.258597e-06 5.139701e-06 9.059523e-27)
(-2.369508e-06 5.576168e-06 1.366815e-30)
(-5.382987e-07 3.497326e-07 -1.03285e-27)
(-2.527981e-07 -2.181751e-08 -1.690664e-27)
(-1.118737e-06 1.085613e-06 1.95195e-30)
(-8.825967e-07 6.977347e-07 1.521457e-27)
(-1.604661e-06 1.87384e-06 1.245133e-30)
(-1.453312e-06 1.428612e-06 5.786394e-27)
(-1.929078e-06 2.741942e-06 -1.938102e-30)
(-1.859519e-06 2.262257e-06 6.429883e-30)
(-2.106967e-06 3.687684e-06 -1.937644e-30)
(-2.081955e-06 3.187046e-06 -1.021723e-30)
(-2.191254e-06 4.710993e-06 -4.628206e-30)
(-2.157142e-06 4.190059e-06 3.137341e-30)
(-2.157864e-06 5.281898e-06 -7.818707e-30)
(-2.260758e-06 5.826423e-06 1.257782e-27)
(-5.938787e-07 3.236415e-07 4.80868e-31)
(-2.895261e-07 -4.709921e-08 -1.468734e-30)
(-1.212019e-06 1.034789e-06 8.949822e-30)
(-9.922737e-07 6.256173e-07 3.247569e-30)
(-1.708005e-06 1.816214e-06 1.295033e-29)
(-1.607669e-06 1.32266e-06 4.362036e-28)
(-2.013489e-06 2.712099e-06 1.556043e-28)
(-2.015199e-06 2.14685e-06 1.126044e-26)
(-2.131702e-06 3.689523e-06 4.051908e-30)
(-2.189879e-06 3.089445e-06 -9.009389e-27)
(-2.123278e-06 4.760379e-06 5.767621e-28)
(-2.169785e-06 4.121198e-06 9.419571e-30)
(-2.036849e-06 5.262067e-06 9.615936e-30)
(-2.08401e-06 5.948334e-06 1.089942e-27)
(-6.869368e-07 2.548957e-07 4.98851e-28)
(-3.528043e-07 -9.875322e-08 1.431412e-33)
(-1.382968e-06 9.096356e-07 6.520355e-30)
(-1.176826e-06 4.815223e-07 1.970517e-33)
(-1.90775e-06 1.643122e-06 7.911263e-28)
(-1.874249e-06 1.105291e-06 6.026041e-30)
(-2.192827e-06 2.535402e-06 -1.772682e-27)
(-2.301634e-06 1.879879e-06 -2.316026e-29)
(-2.227436e-06 3.522567e-06 -2.559272e-30)
(-2.425448e-06 2.799061e-06 -4.006321e-29)
(-2.082878e-06 4.622635e-06 2.188888e-27)
(-2.284502e-06 3.839079e-06 2.893542e-30)
(-1.960215e-06 5.008803e-06 1.278582e-29)
(-1.867347e-06 5.868458e-06 -6.65636e-29)
(-8.419553e-07 1.282451e-07 -4.922188e-28)
(-4.586504e-07 -1.85392e-07 -5.627137e-31)
(-1.666456e-06 6.762031e-07 -5.012169e-31)
(-1.480847e-06 2.38306e-07 -7.236979e-31)
(-2.260846e-06 1.327505e-06 -1.130765e-27)
(-2.326319e-06 7.357581e-07 -1.002934e-27)
(-2.537236e-06 2.144375e-06 -1.057972e-26)
(-2.828635e-06 1.398955e-06 -1.824145e-27)
(-2.48263e-06 3.120499e-06 -2.579651e-27)
(-2.918774e-06 2.244154e-06 3.292936e-30)
(-2.160981e-06 4.226293e-06 -3.395061e-30)
(-2.6306e-06 3.261549e-06 1.753998e-26)
(-2.050555e-06 4.440141e-06 0)
(-1.688825e-06 5.504066e-06 -1.508027e-30)
(-1.096699e-06 -7.481947e-08 0)
(-6.286826e-07 -3.182129e-07 -1.117559e-30)
(-2.13933e-06 2.977253e-07 3.554184e-30)
(-1.966497e-06 -1.362261e-07 1.433635e-30)
(-2.885718e-06 8.047825e-07 1.30849e-29)
(-3.063863e-06 1.608023e-07 6.462624e-30)
(-3.205467e-06 1.492617e-06 3.973508e-27)
(-3.724333e-06 6.5741e-07 9.522154e-30)
(-3.070226e-06 2.382881e-06 1.951305e-26)
(-3.865522e-06 1.351952e-06 -4.079156e-27)
(-2.51622e-06 3.481917e-06 2.866265e-29)
(-3.434082e-06 2.287478e-06 2.252454e-29)
(-2.516659e-06 3.458275e-06 -1.288066e-29)
(-1.694912e-06 4.762836e-06 -3.314754e-30)
(-1.497415e-06 -3.789485e-07 -7.930208e-28)
(-8.887733e-07 -5.124987e-07 -3.151534e-30)
(-2.889788e-06 -2.729539e-07 2.952771e-28)
(-2.708539e-06 -6.86697e-07 2.859212e-30)
(-3.899867e-06 1.400977e-08 2.908669e-30)
(-4.208871e-06 -6.9145e-07 -1.219852e-30)
(-4.372744e-06 5.183923e-07 8.117778e-30)
(-5.159718e-06 -4.439423e-07 0)
(-4.225996e-06 1.251441e-06 2.181239e-30)
(-5.443332e-06 4.432704e-08 -3.300952e-27)
(-3.411145e-06 2.292387e-06 -7.941659e-27)
(-4.926336e-06 8.350814e-07 -4.465473e-29)
(-3.664817e-06 1.919236e-06 -7.613171e-29)
(-2.139337e-06 3.539218e-06 -4.265323e-27)
(-2.098452e-06 -8.193756e-07 6.092742e-28)
(-1.265618e-06 -7.905998e-07 2.96077e-27)
(-4.025997e-06 -1.104674e-06 -2.690943e-30)
(-3.786722e-06 -1.48094e-06 -1.40724e-30)
(-5.466981e-06 -1.148588e-06 -4.12528e-30)
(-5.896552e-06 -1.933066e-06 6.016599e-27)
(-6.227785e-06 -9.17503e-07 1.046914e-29)
(-7.329919e-06 -2.068002e-06 -5.750117e-30)
(-6.163148e-06 -3.978955e-07 7.206812e-27)
(-7.93598e-06 -1.910616e-06 -1.165857e-30)
(-5.192013e-06 4.514308e-07 -8.695629e-26)
(-7.518175e-06 -1.412204e-06 -8.303971e-27)
(-5.939562e-06 -4.793492e-07 -9.15043e-29)
(-3.375248e-06 1.672369e-06 -1.281787e-26)
(-2.951014e-06 -1.450862e-06 3.621989e-28)
(-1.775694e-06 -1.185735e-06 -2.293242e-30)
(-5.655973e-06 -2.308825e-06 -7.304786e-30)
(-5.257342e-06 -2.625808e-06 2.570291e-27)
(-7.757155e-06 -2.851129e-06 -1.02168e-29)
(-8.23324e-06 -3.74705e-06 1.184736e-31)
(-9.033944e-06 -3.058088e-06 -2.546388e-27)
(-1.038464e-05 -4.468607e-06 -2.80242e-30)
(-9.265868e-06 -2.905386e-06 -6.80005e-27)
(-1.160683e-05 -4.899171e-06 -2.405515e-29)
(-8.264027e-06 -2.325395e-06 -3.216178e-26)
(-1.176738e-05 -5.111736e-06 -2.192798e-29)
(-1.043285e-05 -4.913719e-06 -2.779262e-29)
(-5.835246e-06 -1.110908e-06 -3.074746e-26)
(-4.068666e-06 -2.355702e-06 1.142437e-30)
(-2.418305e-06 -1.754126e-06 4.001678e-30)
(-7.842086e-06 -4.0689e-06 8.95256e-28)
(-7.130393e-06 -4.295518e-06 2.768935e-27)
(-1.086018e-05 -5.364221e-06 -5.675042e-28)
(-1.122307e-05 -6.419365e-06 1.080385e-26)
(-1.29536e-05 -6.306673e-06 -9.48391e-30)
(-1.46684e-05 -8.324611e-06 1.820212e-29)
(-1.410065e-05 -7.098618e-06 -8.280202e-27)
(-1.769747e-05 -1.048754e-05 -2.790543e-25)
(-1.399506e-05 -7.722668e-06 -8.975425e-30)
(-2.101893e-05 -1.409559e-05 -2.34652e-30)
(-2.422548e-05 -1.978802e-05 4.698853e-30)
(-1.166573e-05 -7.454088e-06 -4.785884e-29)
(-5.439952e-06 -3.672153e-06 2.031299e-30)
(-3.164215e-06 -2.586449e-06 1.674994e-26)
(-1.051199e-05 -6.652025e-06 7.745411e-27)
(-9.397325e-06 -6.813498e-06 -3.714682e-30)
(-1.505852e-05 -9.403743e-06 8.370468e-30)
(-1.558959e-05 -1.110362e-05 -7.050746e-30)
(-1.940526e-05 -1.250725e-05 -1.211106e-29)
(-2.317259e-05 -1.71266e-05 1.744179e-24)
(-2.45601e-05 -1.74615e-05 2.554074e-26)
(-3.530638e-05 -2.879928e-05 8.71207e-29)
(-3.088224e-05 -2.582929e-05 1.094223e-29)
(-5.424196e-05 -5.074478e-05 1.145009e-23)
(-7.423542e-05 -8.241474e-05 -2.994279e-28)
(-3.562758e-05 -3.411608e-05 -3.618391e-28)
(-7.077143e-06 -5.694721e-06 1.161123e-27)
(-4.203141e-06 -4.07868e-06 -3.399769e-30)
(-1.439552e-05 -1.120968e-05 -1.73071e-30)
(-1.343573e-05 -1.198005e-05 4.693835e-30)
(-2.373023e-05 -1.888989e-05 6.292029e-30)
(-2.694163e-05 -2.436041e-05 1.336228e-29)
(-3.915918e-05 -3.363956e-05 1.22111e-28)
(-5.123262e-05 -4.890725e-05 -1.467051e-23)
(-6.465734e-05 -6.210074e-05 3.29849e-28)
(-9.218377e-05 -9.498417e-05 3.806558e-23)
(-9.729769e-05 -0.0001018299 -5.458985e-23)
(-0.0001389718 -0.0001591406 -5.05604e-23)
(-0.0001648932 -0.0002245163 4.263687e-22)
(-0.0001235546 -0.0001307454 -4.679596e-28)
(-1.053398e-05 -1.034922e-05 -3.199552e-31)
(-6.985911e-06 -8.149514e-06 -4.825717e-25)
(-2.574913e-05 -2.495082e-05 -9.648353e-26)
(-2.578189e-05 -2.808645e-05 6.385833e-30)
(-5.379923e-05 -5.397099e-05 -3.660316e-28)
(-6.205518e-05 -6.789247e-05 7.120971e-29)
(-0.0001042873 -0.000111063 4.311127e-24)
(-0.000126162 -0.0001423447 -3.016584e-28)
(-0.0001683855 -0.0001883415 7.940338e-28)
(-0.0001982737 -0.0002379435 -1.499345e-22)
(-0.0002163047 -0.0002401186 -6.096862e-29)
(-0.0002435304 -0.0003254503 -1.518173e-28)
(-0.0002459706 -0.0003951592 -2.826111e-28)
(-0.0002305836 -0.0002395576 1.742463e-28)
(-2.214804e-05 -2.588678e-05 -1.589246e-29)
(-1.553572e-05 -2.03712e-05 -1.589462e-29)
(-6.17424e-05 -7.102625e-05 5.787104e-29)
(-6.017264e-05 -7.498196e-05 5.801836e-29)
(-0.0001324467 -0.0001547103 -1.54169e-24)
(-0.000137171 -0.0001702146 1.248283e-28)
(-0.0002195123 -0.0002628666 2.577385e-28)
(-0.0002321607 -0.0002938752 4.072041e-28)
(-0.0002857622 -0.0003392075 -2.656859e-21)
(-0.0003005085 -0.0004076401 1.793236e-28)
(-0.0003145246 -0.0003411333 -3.789394e-28)
(-0.0003102757 -0.0004838856 -9.174608e-28)
(-0.0002865285 -0.0005399277 1.195689e-28)
(-0.0003066448 -0.0002800073 2.698141e-28)
(-5.3248e-05 -6.953375e-05 5.790344e-29)
(-3.627775e-05 -4.992223e-05 0)
(-0.0001354235 -0.000174771 -2.095642e-24)
(-0.0001235626 -0.0001678286 -1.897673e-28)
(-0.0002376058 -0.0003072259 3.967118e-28)
(-0.0002305053 -0.0003148893 6.720695e-29)
(-0.0003215963 -0.0004032715 3.305268e-28)
(-0.0003161648 -0.0004470085 -3.722664e-22)
(-0.0003660866 -0.000423024 -4.532467e-28)
(-0.0003532455 -0.0005424489 2.75895e-28)
(-0.0003666169 -0.0003746826 -1.649214e-20)
(-0.0003465043 -0.0006147112 2.840176e-21)
(-0.0002768817 -0.0006549242 6.872838e-29)
(-0.0003607062 -0.0002712721 1.534733e-20)
(-0.0001057195 -0.0001478114 -2.467248e-28)
(-7.043981e-05 -9.825693e-05 -2.313528e-28)
(-0.0002199236 -0.000309352 -2.501087e-28)
(-0.0001959343 -0.0002832363 4.165822e-24)
(-0.000318192 -0.0004395422 2.853973e-28)
(-0.0003015438 -0.0004505769 2.714339e-28)
(-0.0003818002 -0.0004783834 5.62755e-28)
(-0.0003534175 -0.0005658584 2.986114e-28)
(-0.0004142287 -0.0004441606 4.084253e-21)
(-0.0003669097 -0.0006485234 -2.560927e-21)
(-0.0004191057 -0.0003581294 1.444396e-20)
(-0.0003481828 -0.0007205475 -1.84289e-28)
(-0.000296504 -0.0007863316 1.860727e-28)
(-0.000367285 -0.0002290563 -4.10592e-20)
(-0.0001597837 -0.0002326397 -5.021578e-27)
(-0.0001071604 -0.0001506224 2.177007e-24)
(-0.0002805524 -0.0004162457 -6.759452e-23)
(-0.0002471482 -0.0003789939 -6.778998e-28)
(-0.0003623545 -0.0005101782 1.080513e-21)
(-0.000331545 -0.0005451318 -6.046469e-22)
(-0.0004088667 -0.0005064483 1.988083e-28)
(-0.0003646125 -0.0006581849 7.185531e-30)
(-0.0004400478 -0.0004319972 -6.429396e-21)
(-0.0003447099 -0.0007351638 1.672168e-28)
(-0.0004480501 -0.0003128346 1.185741e-28)
(-0.0003268326 -0.0008169132 -4.932532e-29)
(-0.000268029 -0.0008892833 -1.000708e-20)
(-0.0004324103 -0.0001599036 1.072683e-28)
(-0.0001963809 -0.0002960611 -6.419183e-28)
(-0.0001309559 -0.0001874051 -2.220585e-28)
(-0.0003124505 -0.0004739343 -2.916693e-22)
(-0.0002682238 -0.0004411611 3.057578e-22)
(-0.0003824624 -0.0005316025 1.151766e-21)
(-0.0003325435 -0.000612213 -2.686423e-29)
(-0.000425015 -0.0005005564 -2.518336e-29)
(-0.0003504008 -0.000730773 -3.54389e-30)
(-0.0004373091 -0.0004021243 -2.132482e-29)
(-0.0003381604 -0.0008276646 -4.844794e-29)
(-0.0004363571 -0.0002607835 1.475062e-28)
(-0.0003044051 -0.000915567 -6.344052e-29)
(-0.0001632328 -0.0009510873 1.778538e-28)
(-0.0004453663 -7.152952e-05 1.530323e-28)
(-0.0002095806 -0.0003251935 1.822966e-23)
(-0.0001342621 -0.0002002198 3.703271e-28)
(-0.0003206647 -0.0004897377 3.303077e-22)
(-0.0002627844 -0.0004723533 6.627692e-22)
(-0.0003853343 -0.0005254789 -2.388041e-28)
(-0.0003135911 -0.0006604172 2.071355e-21)
(-0.0004259432 -0.0004707352 -7.291944e-21)
(-0.0003197448 -0.0007923789 1.697269e-28)
(-0.0004498732 -0.000355175 -8.797148e-29)
(-0.0002983816 -0.0008987986 -1.553618e-29)
(-0.0004568758 -0.0001935925 -3.382682e-20)
(-0.0002577178 -0.0009923532 3.431961e-29)
(-0.000184806 -0.001070721 -1.495728e-20)
(-0.0004073832 2.165521e-05 9.784109e-29)
(-0.0002032362 -0.0003206083 -5.467519e-23)
(-0.0001206652 -0.0001928283 -2.067217e-22)
(-0.0003111865 -0.0004780229 1.085272e-21)