/*--------------------------------*- C++ -*----------------------------------*\
| =========                 |                                                 |
| \\      /  F ield         | OpenFOAM: The Open Source CFD Toolbox           |
|  \\    /   O peration     | Version:  2206                                  |
|   \\  /    A nd           | Website:  www.openfoam.com                      |
|    \\/     M anipulation  |                                                 |
\*---------------------------------------------------------------------------*/
FoamFile
{
    version     2.0;
    format      ascii;
    arch        "LSB;label=32;scalar=64";
    class       surfaceVectorField;
    location    "1.6";
    object      Ufa_0;
}
// * * * * * * * * * * * * * * * * * * * * * * * * * * * * * * * * * * * * * //

dimensions      [0 1 -1 0 0 0 0];

internalField   nonuniform List<vector> 
26037
(
(3.496995e-06 -6.947024e-05 4.383124e-24)
(-1.486442e-05 -6.714931e-05 7.446271e-28)
(3.11105e-07 -3.62323e-05 -2.937245e-25)
(-8.652387e-06 -3.889063e-05 7.767151e-27)
(-9.030009e-09 -2.163964e-05 -2.036613e-29)
(-3.107487e-06 -2.373815e-05 -2.041238e-29)
(-4.366095e-08 -1.450016e-05 -5.776786e-30)
(-1.346105e-06 -1.593408e-05 0)
(-5.633249e-08 -1.073034e-05 2.234638e-27)
(-7.351027e-07 -1.188424e-05 -5.776094e-30)
(-6.17306e-08 -8.111772e-06 -1.161126e-29)
(-4.525748e-07 -9.05638e-06 -7.08173e-30)
(-3.059007e-07 -6.903073e-06 -5.812194e-30)
(-6.245648e-08 -6.103273e-06 7.610173e-28)
(-2.736263e-05 -3.619381e-05 -1.174395e-32)
(-2.422157e-05 -2.534404e-05 1.020942e-31)
(-1.2198e-05 -2.637481e-05 -1.185682e-32)
(-1.410129e-05 -2.337593e-05 1.75513e-31)
(-4.442628e-06 -1.801655e-05 0)
(-6.143689e-06 -1.754049e-05 6.232671e-30)
(-2.037562e-06 -1.331844e-05 1.3938e-36)
(-3.085291e-06 -1.35675e-05 1.157961e-29)
(-1.131341e-06 -1.021056e-05 6.591671e-35)
(-1.77449e-06 -1.070239e-05 2.410691e-29)
(-6.967349e-07 -7.847834e-06 3.186472e-34)
(-1.102427e-06 -8.406954e-06 6.452161e-35)
(-7.306844e-07 -6.516344e-06 -1.120541e-30)
(-4.647393e-07 -5.953464e-06 -5.820795e-30)
(-1.102123e-05 -1.24393e-05 2.906351e-31)
(-7.655907e-06 -6.817715e-06 7.260734e-26)
(-8.080342e-06 -1.449824e-05 6.414696e-30)
(-7.542194e-06 -1.133654e-05 -1.686537e-26)
(-4.776131e-06 -1.305282e-05 1.337821e-28)
(-5.192736e-06 -1.166052e-05 7.486978e-30)
(-2.822025e-06 -1.095078e-05 -8.168417e-28)
(-3.343123e-06 -1.050185e-05 1.240068e-29)
(-1.74563e-06 -8.898942e-06 5.79108e-30)
(-2.172501e-06 -8.899459e-06 -2.034123e-29)
(-1.13638e-06 -7.075581e-06 -3.310159e-35)
(-1.4546e-06 -7.30315e-06 0)
(-1.008154e-06 -5.810114e-06 9.548893e-31)
(-7.762564e-07 -5.470959e-06 5.822497e-30)
(-4.173287e-06 -5.708205e-06 3.402343e-31)
(-2.303373e-06 -2.823269e-06 -2.732292e-31)
(-4.668001e-06 -8.477768e-06 1.629237e-30)
(-3.814603e-06 -6.160182e-06 -6.890892e-27)
(-3.746365e-06 -9.07539e-06 1.183049e-28)
(-3.578172e-06 -7.620837e-06 -2.502204e-27)
(-2.692495e-06 -8.438534e-06 7.377732e-31)
(-2.820431e-06 -7.702766e-06 5.025475e-28)
(-1.881499e-06 -7.303689e-06 9.311924e-34)
(-2.090511e-06 -7.036577e-06 -6.931812e-30)
(-1.326374e-06 -6.037746e-06 -1.570687e-35)
(-1.527622e-06 -6.042034e-06 -1.270895e-35)
(-1.125047e-06 -4.94188e-06 5.826075e-30)
(-9.541437e-07 -4.774425e-06 -5.825787e-30)
(-1.942999e-06 -3.272409e-06 -1.17322e-28)
(-9.104651e-07 -1.638709e-06 -1.476117e-31)
(-2.72634e-06 -5.291415e-06 -1.879547e-28)
(-2.032311e-06 -3.72793e-06 8.643579e-32)
(-2.64703e-06 -6.23911e-06 4.426896e-31)
(-2.325718e-06 -5.057048e-06 7.043539e-32)
(-2.215516e-06 -6.285069e-06 -9.415936e-29)
(-2.13747e-06 -5.528286e-06 -2.97373e-28)
(-1.735991e-06 -5.768516e-06 -1.511483e-28)
(-1.787076e-06 -5.382678e-06 -1.515222e-28)
(-1.326284e-06 -4.946178e-06 -1.015307e-28)
(-1.426847e-06 -4.831446e-06 -5.839487e-30)
(-1.120186e-06 -4.045584e-06 -9.928455e-30)
(-1.011634e-06 -3.98894e-06 5.826079e-30)
(-9.989105e-07 -2.092562e-06 3.703348e-31)
(-4.220025e-07 -1.115373e-06 0)
(-1.629285e-06 -3.4828e-06 1.257839e-28)
(-1.141535e-06 -2.439558e-06 6.838764e-31)
(-1.815244e-06 -4.347811e-06 -1.756206e-28)
(-1.505567e-06 -3.463508e-06 -6.007377e-30)
(-1.707817e-06 -4.620283e-06 9.722426e-29)
(-1.559377e-06 -3.980401e-06 -5.608544e-30)
(-1.476496e-06 -4.436436e-06 -5.125677e-30)
(-1.43791e-06 -4.039003e-06 -1.572992e-28)
(-1.220305e-06 -3.926931e-06 -4.256794e-29)
(-1.247825e-06 -3.753456e-06 -5.188914e-30)
(-1.045481e-06 -3.206246e-06 -1.17694e-29)
(-9.871426e-07 -3.208152e-06 1.258978e-28)
(-5.641133e-07 -1.46138e-06 3.131843e-31)
(-2.265984e-07 -8.460318e-07 -5.176129e-31)
(-1.015118e-06 -2.412698e-06 -5.293899e-30)
(-6.871028e-07 -1.708158e-06 -1.010306e-27)
(-1.248407e-06 -3.093698e-06 -1.099662e-27)
(-9.995874e-07 -2.453727e-06 -5.76085e-28)
(-1.288478e-06 -3.397136e-06 -4.849896e-30)
(-1.135623e-06 -2.895712e-06 -5.992777e-30)
(-1.208653e-06 -3.35252e-06 4.99983e-29)
(-1.136138e-06 -3.013971e-06 1.890661e-30)
(-1.072194e-06 -3.026947e-06 7.430656e-31)
(-1.056573e-06 -2.845046e-06 1.48606e-30)
(-9.416035e-07 -2.448969e-06 7.377242e-31)
(-9.196904e-07 -2.48414e-06 -2.947675e-34)
(-3.493519e-07 -1.092351e-06 -2.054457e-31)
(-1.385116e-07 -6.897691e-07 1.703994e-27)
(-6.711222e-07 -1.747784e-06 6.437988e-31)
(-4.48195e-07 -1.262809e-06 -3.39728e-31)
(-8.865847e-07 -2.254517e-06 3.348555e-31)
(-6.981461e-07 -1.799519e-06 7.402894e-31)
(-9.834945e-07 -2.51358e-06 7.790876e-31)
(-8.499623e-07 -2.138982e-06 7.533485e-31)
(-9.840499e-07 -2.506479e-06 1.517658e-30)
(-9.059552e-07 -2.24285e-06 -3.926e-28)
(-9.257077e-07 -2.26492e-06 2.373633e-29)
(-8.923795e-07 -2.115807e-06 1.488644e-30)
(-8.372903e-07 -1.789223e-06 7.428248e-31)
(-8.37463e-07 -1.831666e-06 -5.147534e-30)
(-2.372043e-07 -8.599503e-07 -6.355957e-31)
(-9.538307e-08 -5.906935e-07 -1.404724e-27)
(-4.749662e-07 -1.314003e-06 -2.440277e-31)
(-3.195381e-07 -9.735748e-07 1.446343e-27)
(-6.599375e-07 -1.680412e-06 7.930321e-29)
(-5.198323e-07 -1.357171e-06 5.232811e-28)
(-7.728264e-07 -1.868964e-06 3.028766e-30)
(-6.644654e-07 -1.598068e-06 1.736158e-30)
(-8.142823e-07 -1.852122e-06 4.428466e-29)
(-7.43623e-07 -1.659904e-06 -5.097844e-28)
(-8.039737e-07 -1.640215e-06 7.447891e-31)
(-7.671074e-07 -1.534566e-06 7.445595e-31)
(-7.512435e-07 -1.236316e-06 0)
(-7.605296e-07 -1.258918e-06 -3.80767e-31)
(-1.775937e-07 -7.041065e-07 -1.169866e-31)
(-7.380652e-08 -5.23347e-07 5.169373e-31)
(-3.641944e-07 -1.016378e-06 -9.583284e-31)
(-2.508467e-07 -7.746118e-07 -6.342249e-31)
(-5.227382e-07 -1.272109e-06 6.445843e-31)
(-4.179718e-07 -1.044308e-06 -9.84609e-31)
(-6.358276e-07 -1.389422e-06 9.560816e-31)
(-5.508776e-07 -1.20037e-06 -8.309474e-28)
(-6.964564e-07 -1.342288e-06 -1.935586e-32)
(-6.379198e-07 -1.212397e-06 6.320263e-28)
(-7.143758e-07 -1.130761e-06 0)
(-6.812281e-07 -1.068518e-06 0)
(-6.899421e-07 -7.738938e-07 0)
(-7.006762e-07 -7.693256e-07 1.120354e-30)
(-1.469512e-07 -5.936806e-07 0)
(-6.374846e-08 -4.748638e-07 0)
(-3.044346e-07 -8.022935e-07 -6.6024e-31)
(-2.167297e-07 -6.304074e-07 6.418445e-31)
(-4.445777e-07 -9.707684e-07 2.754096e-31)
(-3.643734e-07 -8.13098e-07 1.156287e-27)
(-5.535969e-07 -1.023406e-06 9.67587e-31)
(-4.878596e-07 -8.981963e-07 -7.746267e-31)
(-6.227007e-07 -9.385525e-07 2.008032e-32)
(-5.768551e-07 -8.608292e-07 -7.647447e-28)
(-6.567797e-07 -7.117402e-07 0)
(-6.306011e-07 -6.891784e-07 0)
(-6.543678e-07 -3.839616e-07 7.632082e-31)
(-6.62287e-07 -3.51442e-07 3.738761e-31)
(-1.334235e-07 -5.114387e-07 6.415775e-31)
(-6.048879e-08 -4.380286e-07 0)
(-2.764861e-07 -6.41046e-07 1.426496e-32)
(-2.037751e-07 -5.205006e-07 -1.391897e-27)
(-4.061886e-07 -7.395145e-07 -2.344839e-30)
(-3.423738e-07 -6.345044e-07 -1.373006e-30)
(-5.117642e-07 -7.353123e-07 -2.716027e-29)
(-4.608019e-07 -6.600282e-07 1.05129e-27)
(-5.847604e-07 -6.113648e-07 -2.965559e-32)
(-5.50475e-07 -5.765152e-07 6.96177e-31)
(-6.281622e-07 -3.614898e-07 7.629455e-31)
(-6.100179e-07 -3.735881e-07 -7.102778e-31)
(-6.430977e-07 -5.00391e-08 6.360135e-28)
(-6.459203e-07 8.78534e-09 -9.706137e-30)
(-1.307366e-07 -4.469521e-07 -1.374093e-31)
(-6.157197e-08 -4.085125e-07 4.974456e-31)
(-2.694802e-07 -5.138625e-07 -4.531782e-30)
(-2.047231e-07 -4.324869e-07 -1.374318e-31)
(-3.955411e-07 -5.546984e-07 -1.677864e-30)
(-3.42067e-07 -4.902228e-07 -1.488884e-30)
(-5.001697e-07 -5.005661e-07 -1.96852e-31)
(-4.599769e-07 -4.647532e-07 -1.692577e-30)
(-5.75731e-07 -3.386306e-07 1.468339e-32)
(-5.512898e-07 -3.389007e-07 -1.083395e-27)
(-6.24915e-07 -6.22348e-08 -6.908712e-31)
(-6.146858e-07 -1.038768e-07 8.727458e-28)
(-6.53932e-07 2.419731e-07 -7.472605e-28)
(-6.5062e-07 3.243398e-07 1.942416e-32)
(-1.354501e-07 -3.939155e-07 4.975415e-31)
(-6.56672e-08 -3.836584e-07 -1.297264e-27)
(-2.771201e-07 -4.088079e-07 -7.438279e-31)
(-2.154857e-07 -3.585255e-07 0)
(-4.050438e-07 -4.005627e-07 -1.480984e-29)
(-3.572291e-07 -3.682644e-07 -2.231752e-30)
(-5.117401e-07 -3.020968e-07 6.685722e-31)
(-4.770425e-07 -2.980383e-07 9.174169e-30)
(-5.902511e-07 -1.039389e-07 7.361255e-31)
(-5.714207e-07 -1.336982e-07 -1.482596e-27)
(-6.43654e-07 2.002268e-07 1.000151e-32)
(-6.401944e-07 1.337463e-07 -6.713357e-31)
(-6.846471e-07 5.037999e-07 -1.335861e-33)
(-6.749151e-07 6.065081e-07 -1.529323e-30)
(-1.455865e-07 -3.481398e-07 4.546044e-31)
(-7.205147e-08 -3.616841e-07 4.543949e-31)
(-2.954086e-07 -3.179864e-07 -1.48617e-30)
(-2.338779e-07 -2.933469e-07 5.419158e-31)
(-4.280019e-07 -2.662783e-07 -1.510571e-29)
(-3.852478e-07 -2.603994e-07 -1.486549e-30)
(-5.369073e-07 -1.288541e-07 9.925451e-29)
(-5.116659e-07 -1.494253e-07 1.222604e-27)
(-6.216603e-07 1.055949e-07 1.273491e-29)
(-6.111072e-07 5.092243e-08 1.433445e-29)
(-6.81146e-07 4.37356e-07 -6.827677e-31)
(-6.849036e-07 3.499541e-07 1.506923e-30)
(-7.338218e-07 7.450653e-07 1.032886e-27)
(-7.173637e-07 8.649309e-07 -1.361114e-30)
(-1.602165e-07 -3.067637e-07 5.416541e-31)
(-8.027146e-08 -3.41345e-07 0)
(-3.235537e-07 -2.358145e-07 5.420251e-31)
(-2.584768e-07 -2.33261e-07 -1.833285e-27)
(-4.681485e-07 -1.443727e-07 9.411194e-31)
(-4.23859e-07 -1.608532e-07 -7.421742e-31)
(-5.847285e-07 2.795846e-08 4.556171e-31)
(-5.613418e-07 -1.264982e-08 1.942194e-31)
(-6.749134e-07 2.978507e-07 3.031672e-30)
(-6.686163e-07 2.224073e-07 1.524995e-30)
(-7.375439e-07 6.578398e-07 -3.387666e-29)
(-7.472124e-07 5.531846e-07 1.506268e-30)
(-8.002914e-07 9.738734e-07 8.633694e-31)
(-7.773446e-07 1.107775e-06 2.365164e-30)
(-1.783922e-07 -2.677133e-07 9.715642e-31)
(-9.007728e-08 -3.217751e-07 6.654749e-31)
(-3.586321e-07 -1.583607e-07 2.304618e-31)
(-2.883242e-07 -1.756322e-07 -2.007216e-27)
(-5.167636e-07 -2.937782e-08 3.052538e-30)
(-4.708825e-07 -6.533287e-08 -2.226559e-30)
(-6.434998e-07 1.781581e-07 -7.592818e-31)
(-6.213458e-07 1.19297e-07 -1.495471e-30)
(-7.417215e-07 4.814221e-07 0)
(-7.387645e-07 3.887889e-07 0)
(-8.099283e-07 8.694971e-07 0)
(-8.247575e-07 7.506291e-07 -9.095305e-31)
(-8.829312e-07 1.19724e-06 -3.013388e-30)
(-8.538124e-07 1.342319e-06 -1.504055e-30)
(-1.998536e-07 -2.295624e-07 6.222198e-29)
(-1.013597e-07 -3.023394e-07 -1.790359e-27)
(-4.004083e-07 -8.268532e-08 2.096616e-29)
(-3.230373e-07 -1.18499e-07 7.042831e-32)
(-5.751824e-07 8.308896e-08 7.343284e-30)
(-5.259801e-07 2.944701e-08 -3.711658e-30)
(-7.146397e-07 3.255896e-07 -7.600675e-31)
(-6.92251e-07 2.504516e-07 -2.245192e-30)
(-8.227158e-07 6.621701e-07 -9.201037e-31)
(-8.219185e-07 5.545671e-07 0)
(-8.977224e-07 1.078677e-06 6.603775e-29)
(-9.16988e-07 9.477935e-07 -1.91545e-27)
(-9.811512e-07 1.421209e-06 -4.522159e-30)
(-9.463702e-07 1.574988e-06 9.336678e-29)
(-2.243694e-07 -1.911406e-07 6.81366e-29)
(-1.140236e-07 -2.825173e-07 8.592234e-31)
(-4.484228e-07 -6.46925e-09 2.405803e-29)
(-3.622721e-07 -6.030579e-08 -2.407644e-27)
(-6.427329e-07 1.96501e-07 2.507762e-29)
(-5.885777e-07 1.260541e-07 -1.911661e-30)
(-7.97334e-07 4.744811e-07 -1.521239e-30)
(-7.728797e-07 3.842681e-07 -1.496898e-30)
(-9.171966e-07 8.446667e-07 5.373983e-31)
(-9.145408e-07 7.229739e-07 1.218831e-29)
(-1.00041e-06 1.29083e-06 -9.813603e-31)
(-1.019844e-06 1.147509e-06 1.581654e-29)
(-1.093747e-06 1.650972e-06 1.525764e-30)
(-1.054705e-06 1.811572e-06 1.130448e-28)
(-2.517318e-07 -1.515422e-07 8.764329e-31)
(-1.279528e-07 -2.618642e-07 -2.123087e-27)
(-5.022193e-07 7.20942e-08 9.245084e-31)
(-4.057671e-07 2.368285e-10 -2.615105e-27)
(-7.184056e-07 3.135086e-07 3.152503e-31)
(-6.58424e-07 2.265667e-07 -2.53295e-27)
(-8.881738e-07 6.283808e-07 1.207782e-29)
(-8.638098e-07 5.236243e-07 1.740525e-30)
(-1.017848e-06 1.02799e-06 -4.918705e-28)
(-1.021418e-06 8.979563e-07 1.364487e-29)
(-1.113882e-06 1.511162e-06 -2.676605e-28)
(-1.13857e-06 1.355652e-06 1.626856e-29)
(-1.221735e-06 1.891185e-06 1.016726e-30)
(-1.177778e-06 2.057437e-06 3.035013e-30)
(-2.817714e-07 -1.099395e-07 -8.084503e-29)
(-1.430107e-07 -2.400627e-07 -1.177041e-31)
(-5.617416e-07 1.545622e-07 -3.167734e-29)
(-4.531658e-07 6.411781e-08 -2.848777e-27)
(-8.035379e-07 4.364003e-07 2.924212e-30)
(-7.348415e-07 3.326458e-07 -2.802066e-27)
(-9.955594e-07 7.90195e-07 -4.841388e-29)
(-9.638995e-07 6.706863e-07 -2.733381e-27)
(-1.140108e-06 1.219323e-06 2.433885e-30)
(-1.14037e-06 1.082176e-06 1.510417e-30)
(-1.24723e-06 1.742134e-06 -1.152728e-30)
(-1.271716e-06 1.576183e-06 -2.452302e-27)
(-1.364399e-06 2.145806e-06 2.411722e-27)
(-1.3177e-06 2.316781e-06 1.54595e-28)
(-3.141646e-07 -6.585265e-08 8.524282e-31)
(-1.590328e-07 -2.169307e-07 -4.192684e-32)
(-6.260105e-07 2.420311e-07 -3.506391e-29)
(-5.038762e-07 1.319505e-07 8.525527e-31)
(-8.949501e-07 5.667158e-07 1.148557e-30)
(-8.166379e-07 4.453731e-07 8.570699e-31)
(-1.108197e-06 9.617678e-07 2.914978e-31)
(-1.070542e-06 8.271001e-07 -3.015606e-27)
(-1.269157e-06 1.428967e-06 7.895132e-31)
(-1.26578e-06 1.280136e-06 1.382166e-30)
(-1.390194e-06 1.988686e-06 8.249767e-31)
(-1.412766e-06 1.813122e-06 8.062436e-31)
(-1.518206e-06 2.417541e-06 -3.012066e-27)
(-1.470972e-06 2.593532e-06 3.540103e-30)
(-3.484777e-07 -1.896815e-08 -4.193442e-32)
(-1.757607e-07 -1.923535e-07 2.647964e-27)
(-6.942201e-07 3.350953e-07 0)
(-5.571608e-07 2.040259e-07 0)
(-9.919515e-07 7.055139e-07 1.460997e-30)
(-9.02635e-07 5.652315e-07 0)
(-1.227638e-06 1.144641e-06 -7.284489e-29)
(-1.182445e-06 9.935929e-07 3.340313e-27)
(-1.406173e-06 1.653091e-06 1.410563e-30)
(-1.396859e-06 1.491114e-06 3.411112e-27)
(-1.54231e-06 2.251382e-06 3.286505e-31)
(-1.556909e-06 2.06363e-06 1.323519e-31)
(-1.675445e-06 2.703526e-06 3.2652e-31)
(-1.63517e-06 2.889747e-06 -2.380753e-30)
(-3.841515e-07 3.080918e-08 1.401373e-31)
(-1.928819e-07 -1.663829e-07 2.796817e-27)
(-7.652643e-07 4.339387e-07 0)
(-6.12133e-07 2.80258e-07 7.393352e-31)
(-1.092821e-06 8.530378e-07 -1.411826e-30)
(-9.913419e-07 6.921473e-07 9.462525e-31)
(-1.351183e-06 1.339285e-06 6.805774e-29)
(-1.297666e-06 1.170096e-06 8.682411e-32)
(-1.544829e-06 1.892003e-06 -1.381514e-30)
(-1.532134e-06 1.715085e-06 3.236526e-27)
(-1.691286e-06 2.520556e-06 1.331819e-31)
(-1.707917e-06 2.328615e-06 -2.244962e-27)
(-1.83946e-06 3.007109e-06 0)
(-1.801643e-06 3.206309e-06 -3.576191e-31)
(-4.205449e-07 8.324401e-08 9.343122e-31)
(-2.100122e-07 -1.392349e-07 1.953285e-31)
(-8.378708e-07 5.382147e-07 -4.015201e-29)
(-6.676297e-07 3.600313e-07 3.792358e-31)
(-1.195856e-06 1.008904e-06 2.444149e-30)
(-1.080709e-06 8.252322e-07 3.771279e-27)
(-1.478184e-06 1.545256e-06 -8.839652e-29)
(-1.41298e-06 1.355521e-06 1.497914e-30)
(-1.692929e-06 2.145366e-06 1.52507e-30)
(-1.66676e-06 1.950465e-06 -3.99912e-27)
(-1.853103e-06 2.803619e-06 -2.325216e-32)
(-1.857957e-06 2.606508e-06 6.127447e-30)
(-2.00223e-06 3.327538e-06 3.190275e-30)
(-1.976481e-06 3.540325e-06 -3.409378e-30)
(-4.567545e-07 1.377433e-07 -3.595072e-31)
(-2.26763e-07 -1.113447e-07 -4.179184e-31)
(-9.101003e-07 6.4677e-07 2.907723e-32)
(-7.224164e-07 4.420633e-07 -3.839706e-27)
(-1.297473e-06 1.171518e-06 3.892185e-31)
(-1.168336e-06 9.625111e-07 9.010196e-31)
(-1.601196e-06 1.760285e-06 2.7131e-30)
(-1.52433e-06 1.547327e-06 0)
(-1.831047e-06 2.409777e-06 -2.063608e-28)
(-1.793763e-06 2.194499e-06 -3.185742e-31)
(-2.003143e-06 3.11188e-06 -3.204214e-28)
(-1.99514e-06 2.898779e-06 6.141327e-30)
(-2.149692e-06 3.664343e-06 6.396215e-30)
(-2.139848e-06 3.891973e-06 -7.241739e-32)
(-4.920563e-07 1.931767e-07 -9.873233e-31)
(-2.428326e-07 -8.339078e-08 -2.946314e-27)
(-9.802622e-07 7.575033e-07 -5.807905e-32)
(-7.754393e-07 5.242245e-07 -1.267654e-30)
(-1.394809e-06 1.337962e-06 5.121786e-31)
(-1.252258e-06 1.100698e-06 4.11049e-27)
(-1.716517e-06 1.981074e-06 -3.029363e-30)
(-1.62849e-06 1.741344e-06 0)
(-1.957183e-06 2.681881e-06 1.964747e-28)
(-1.908721e-06 2.442591e-06 -3.029796e-30)
(-2.137366e-06 3.430894e-06 -3.017905e-28)
(-2.114438e-06 3.197418e-06 -5.294543e-31)
(-2.270662e-06 4.006631e-06 -2.18795e-29)
(-2.284991e-06 4.255847e-06 3.065983e-30)
(-5.257299e-07 2.477662e-07 -1.299576e-30)
(-2.58289e-07 -5.637523e-08 -1.920621e-30)
(-1.047079e-06 8.67165e-07 3.966823e-32)
(-8.264486e-07 6.032784e-07 -4.049619e-27)
(-1.485536e-06 1.5037e-06 7.384091e-31)
(-1.331429e-06 1.234689e-06 7.378306e-31)
(-1.820293e-06 2.20237e-06 0)
(-1.723161e-06 1.931221e-06 -2.15712e-30)
(-2.065337e-06 2.956658e-06 -5.283029e-31)
(-2.007908e-06 2.687881e-06 -3.045437e-30)
(-2.244162e-06 3.755824e-06 -2.525561e-29)
(-2.211789e-06 3.496036e-06 -4.431266e-27)
(-2.366165e-06 4.35165e-06 1.371468e-27)
(-2.39196e-06 4.613277e-06 1.179802e-27)
(-5.58197e-07 2.989091e-07 -3.57903e-28)
(-2.723443e-07 -3.159472e-08 -2.264058e-27)
(-1.110559e-06 9.706968e-07 -1.686675e-30)
(-8.743622e-07 6.735906e-07 -1.690874e-30)
(-1.568644e-06 1.661826e-06 -2.155355e-30)
(-1.405928e-06 1.356697e-06 -2.581594e-30)
(-1.910369e-06 2.416227e-06 7.208366e-29)
(-1.807675e-06 2.107298e-06 4.829649e-27)
(-2.153852e-06 3.226137e-06 -1.459683e-30)
(-2.088563e-06 2.919481e-06 -4.066303e-30)
(-2.33149e-06 4.08085e-06 -2.817928e-28)
(-2.280909e-06 3.78326e-06 -6.76572e-27)
(-2.424715e-06 4.689625e-06 -8.185345e-27)
(-2.482035e-06 4.976084e-06 -2.703249e-27)
(-5.860319e-07 3.409691e-07 -9.540507e-31)
(-2.868914e-07 -1.259818e-08 -9.453647e-31)
(-1.170287e-06 1.060547e-06 -2.588029e-30)
(-9.241852e-07 7.278701e-07 0)
(-1.644635e-06 1.801973e-06 -1.102565e-29)
(-1.480134e-06 1.455184e-06 -4.438687e-27)
(-1.985449e-06 2.610057e-06 -1.406397e-30)
(-1.885269e-06 2.25484e-06 -3.835359e-31)
(-2.215181e-06 3.475922e-06 -2.956838e-30)
(-2.151227e-06 3.120346e-06 -5.970226e-27)
(-2.373305e-06 4.388927e-06 -2.759863e-30)
(-2.316451e-06 4.041102e-06 -7.496445e-27)
(-2.42903e-06 5.009337e-06 2.70433e-31)
(-2.509476e-06 5.346208e-06 -1.125331e-30)
(-6.193279e-07 3.684745e-07 0)
(-3.054972e-07 -3.327484e-09 -2.580742e-30)
(-1.235381e-06 1.124535e-06 -2.690397e-30)
(-9.812659e-07 7.553993e-07 3.095065e-31)
(-1.720651e-06 1.908301e-06 -2.680312e-30)
(-1.559834e-06 1.511763e-06 -4.578554e-27)
(-2.050635e-06 2.764688e-06 -2.586573e-30)
(-1.96511e-06 2.352513e-06 0)
(-2.252066e-06 3.684908e-06 -3.833556e-30)
(-2.204164e-06 3.265536e-06 -6.034272e-27)
(-2.371525e-06 4.659312e-06 -1.567547e-31)
(-2.323588e-06 4.241141e-06 -1.244269e-30)
(-2.381644e-06 5.274086e-06 8.200533e-27)
(-2.46905e-06 5.689087e-06 1.107745e-30)
(-6.610719e-07 3.771652e-07 -9.181393e-28)
(-3.325873e-07 -7.29355e-09 -9.43106e-28)
(-1.304925e-06 1.141602e-06 1.175476e-30)
(-1.058712e-06 7.424656e-07 7.361386e-28)
(-1.80544e-06 1.958551e-06 8.645366e-31)
(-1.663266e-06 1.504237e-06 3.817395e-27)
(-2.118405e-06 2.853596e-06 -1.595914e-30)
(-2.064499e-06 2.368336e-06 5.59202e-30)
(-2.275289e-06 3.821259e-06 -1.595537e-30)
(-2.266854e-06 3.320841e-06 -3.191463e-31)
(-2.3333e-06 4.854511e-06 -4.853123e-30)
(-2.317578e-06 4.343445e-06 3.107077e-30)
(-2.287843e-06 5.437393e-06 -8.00855e-30)
(-2.367674e-06 5.958562e-06 9.947427e-28)
(-7.265597e-07 3.552169e-07 3.972047e-31)
(-3.754809e-07 -3.044667e-08 -1.112866e-30)
(-1.411621e-06 1.098878e-06 7.221535e-30)
(-1.180201e-06 6.766635e-07 2.804219e-30)
(-1.92228e-06 1.913248e-06 1.080682e-29)
(-1.829913e-06 1.408905e-06 -3.772434e-28)
(-2.214045e-06 2.840558e-06 2.475426e-28)
(-2.230293e-06 2.268147e-06 8.500336e-27)
(-2.308772e-06 3.843143e-06 4.382175e-30)
(-2.381887e-06 3.242559e-06 -7.598919e-27)
(-2.271722e-06 4.925748e-06 6.408982e-28)
(-2.33492e-06 4.296864e-06 9.322406e-30)
(-2.169128e-06 5.440772e-06 9.494657e-30)
(-2.194691e-06 6.10184e-06 7.654289e-28)
(-8.280443e-07 2.908782e-07 4.378465e-28)
(-4.440752e-07 -7.981187e-08 1.474355e-33)
(-1.593296e-06 9.825581e-07 6.023339e-30)
(-1.373917e-06 5.393821e-07 2.144737e-33)
(-2.130916e-06 1.753057e-06 8.165943e-28)
(-2.103708e-06 1.202715e-06 5.01141e-30)
(-2.399162e-06 2.681716e-06 -1.886139e-27)
(-2.520161e-06 2.017016e-06 -2.440496e-29)
(-2.407542e-06 3.697766e-06 -2.133206e-30)
(-2.617618e-06 2.972601e-06 -3.928037e-29)
(-2.231935e-06 4.811639e-06 2.293405e-27)
(-2.447268e-06 4.038755e-06 2.437965e-30)
(-2.087636e-06 5.212571e-06 1.26297e-29)
(-1.975831e-06 6.045072e-06 2.895504e-28)
(-9.891622e-07 1.689302e-07 -4.266098e-28)
(-5.539255e-07 -1.639349e-07 -5.620811e-31)
(-1.88265e-06 7.584759e-07 -1.016582e-30)
(-1.683e-06 3.036392e-07 -7.212173e-31)
(-2.485904e-06 1.451423e-06 -1.073328e-27)
(-2.556155e-06 8.455047e-07 -1.905599e-27)
(-2.741574e-06 2.309003e-06 -1.074574e-26)
(-3.04148e-06 1.553387e-06 -2.526259e-27)
(-2.65732e-06 3.318858e-06 -2.739538e-27)
(-3.101371e-06 2.440375e-06 2.70758e-30)
(-2.302177e-06 4.440758e-06 -3.783493e-30)
(-2.781863e-06 3.488289e-06 1.476439e-26)
(-2.163788e-06 4.672026e-06 0)
(-1.786353e-06 5.705373e-06 -1.485297e-30)
(-1.246874e-06 -2.885756e-08 0)
(-7.263292e-07 -2.936584e-07 -1.116169e-30)
(-2.355131e-06 3.904686e-07 2.961023e-30)
(-2.168925e-06 -6.157638e-08 1.428349e-30)
(-3.103573e-06 9.445162e-07 1.186236e-29)
(-3.286402e-06 2.86144e-07 5.851044e-30)
(-3.397059e-06 1.678005e-06 3.766943e-27)
(-3.921709e-06 8.34134e-07 8.894643e-30)
(-3.229309e-06 2.607753e-06 1.95215e-26)
(-4.027938e-06 1.578577e-06 -4.920915e-27)
(-2.639146e-06 3.72636e-06 2.783513e-29)
(-3.564678e-06 2.551852e-06 2.177559e-29)
(-2.607229e-06 3.728234e-06 -1.267173e-29)
(-1.770445e-06 4.991963e-06 -2.910888e-30)
(-1.647268e-06 -3.258604e-07 -6.440858e-28)
(-9.87453e-07 -4.831533e-07 -2.557555e-30)
(-3.098978e-06 -1.657585e-07 2.931111e-28)
(-2.907825e-06 -5.972621e-07 2.848312e-30)
(-4.102036e-06 1.761943e-07 2.890395e-30)
(-4.419342e-06 -5.404379e-07 -5.11461e-31)
(-4.541564e-06 7.354878e-07 6.860126e-30)
(-5.3365e-06 -2.285327e-07 0)
(-4.360896e-06 1.516327e-06 9.625708e-31)
(-5.581954e-06 3.247708e-07 -4.321501e-27)
(-3.508743e-06 2.582267e-06 -7.828783e-27)
(-5.036717e-06 1.165851e-06 -4.470978e-29)
(-3.734997e-06 2.259195e-06 -7.488663e-29)
(-2.18395e-06 3.808016e-06 -4.625896e-27)
(-2.246514e-06 -7.538518e-07 4.546363e-28)
(-1.365746e-06 -7.521891e-07 3.146809e-27)
(-4.226586e-06 -9.714894e-07 -1.970907e-30)
(-3.985249e-06 -1.36312e-06 -6.101791e-31)
(-5.652142e-06 -9.444582e-07 -3.3984e-30)
(-6.100425e-06 -1.731594e-06 6.302124e-27)
(-6.374553e-06 -6.390561e-07 9.698004e-30)
(-7.496138e-06 -1.775164e-06 -5.697724e-30)
(-6.278091e-06 -5.282236e-08 6.52729e-27)
(-8.063945e-06 -1.518055e-06 -1.798194e-30)
(-5.274578e-06 8.333904e-07 -8.43776e-26)
(-7.633556e-06 -9.422181e-07 -1.00622e-26)
(-6.017245e-06 1.413389e-08 -8.986544e-29)
(-3.394963e-06 2.021599e-06 -1.368373e-26)
(-3.101509e-06 -1.360374e-06 2.040095e-28)
(-1.881926e-06 -1.129369e-06 -1.645889e-30)
(-5.857794e-06 -2.122778e-06 -5.704446e-30)
(-5.469923e-06 -2.451673e-06 2.862603e-27)
(-7.942134e-06 -2.561104e-06 -9.366167e-30)
(-8.455456e-06 -3.44492e-06 4.520215e-32)
(-9.181442e-06 -2.651527e-06 -2.258733e-27)
(-1.057987e-05 -4.028013e-06 -2.796238e-30)
(-9.39438e-06 -2.390913e-06 -5.757949e-27)
(-1.175832e-05 -4.283996e-06 -2.275356e-29)
(-8.375217e-06 -1.747264e-06 -2.990876e-26)
(-1.190994e-05 -4.328059e-06 -2.200912e-29)
(-1.054769e-05 -4.018901e-06 -2.719741e-29)
(-5.871915e-06 -5.768855e-07 -3.023441e-26)
(-4.236553e-06 -2.216255e-06 2.786829e-31)
(-2.543134e-06 -1.664582e-06 3.25002e-30)
(-8.075144e-06 -3.778344e-06 8.705303e-28)
(-7.389595e-06 -4.017664e-06 1.462124e-27)
(-1.109268e-05 -4.911601e-06 -6.45146e-28)
(-1.150693e-05 -5.931346e-06 6.274068e-27)
(-1.315297e-05 -5.65792e-06 -8.369242e-30)
(-1.490874e-05 -7.570045e-06 1.469606e-29)
(-1.426678e-05 -6.215693e-06 -5.316662e-27)
(-1.782406e-05 -9.335854e-06 -2.063609e-25)
(-1.414407e-05 -6.62499e-06 -8.572739e-30)
(-2.097988e-05 -1.230501e-05 -6.286124e-30)
(-2.406918e-05 -1.728636e-05 7.385132e-29)
(-1.174957e-05 -6.309656e-06 3.412051e-30)
(-5.65496e-06 -3.445951e-06 -5.779127e-31)
(-3.332477e-06 -2.443308e-06 1.420336e-26)
(-1.082239e-05 -6.176489e-06 7.905796e-27)
(-9.713286e-06 -6.330572e-06 -5.482292e-30)
(-1.53509e-05 -8.611586e-06 4.012679e-30)
(-1.583775e-05 -1.014616e-05 -7.931013e-30)
(-1.95749e-05 -1.125009e-05 -1.160361e-29)
(-2.302306e-05 -1.525954e-05 1.297912e-24)
(-2.448932e-05 -1.540685e-05 3.519395e-26)
(-3.441303e-05 -2.523385e-05 6.428848e-29)
(-3.056314e-05 -2.267701e-05 7.386212e-29)
(-5.277199e-05 -4.486061e-05 1.017972e-23)
(-7.304671e-05 -7.484053e-05 2.800831e-28)
(-3.505341e-05 -2.991884e-05 4.93874e-23)
(-7.345571e-06 -5.297736e-06 1.295675e-27)
(-4.365987e-06 -3.776235e-06 -2.707658e-30)
(-1.46512e-05 -1.025103e-05 -1.642313e-30)
(-1.354699e-05 -1.083774e-05 4.20847e-30)
(-2.353992e-05 -1.684992e-05 5.63261e-30)
(-2.625659e-05 -2.14625e-05 1.193379e-29)
(-3.795589e-05 -2.943682e-05 9.434124e-29)
(-4.875536e-05 -4.255772e-05 -1.220513e-23)
(-6.240984e-05 -5.471558e-05 3.128639e-28)
(-8.856838e-05 -8.460021e-05 3.591254e-23)
(-9.502214e-05 -9.159563e-05 4.322448e-28)
(-0.0001365863 -0.0001466088 -5.065897e-23)
(-0.0001643369 -0.0002120456 2.300797e-28)
(-0.0001221977 -0.0001194548 6.364392e-22)
(-1.054234e-05 -9.303321e-06 6.576847e-31)
(-6.89035e-06 -7.246855e-06 -3.701928e-25)
(-2.494429e-05 -2.18958e-05 -8.018626e-26)
(-2.461688e-05 -2.448028e-05 5.814541e-30)
(-5.089939e-05 -4.682763e-05 -3.086137e-28)
(-5.825224e-05 -5.904872e-05 6.594371e-29)
(-9.941633e-05 -9.8471e-05 4.885296e-24)
(-0.0001205883 -0.0001277981 -2.426242e-28)
(-0.0001646553 -0.00017278 -1.58809e-28)
(-0.0001947318 -0.0002214988 -3.532543e-28)
(-0.000215793 -0.0002255874 -2.214471e-28)
(-0.0002435419 -0.0003106075 1.048869e-21)
(-0.0002476766 -0.0003827646 5.628305e-28)
(-0.0002319161 -0.0002279662 -4.920695e-28)
(-2.089427e-05 -2.242272e-05 -1.175731e-29)
(-1.450908e-05 -1.764907e-05 -1.175892e-29)
(-5.762587e-05 -6.163672e-05 5.402393e-29)
(-5.594504e-05 -6.538835e-05 5.469344e-29)
(-0.0001260428 -0.000138627 -1.784527e-24)
(-0.0001306078 -0.0001536581 1.225674e-28)
(-0.0002152064 -0.0002446075 -3.575929e-28)
(-0.0002279116 -0.0002756867 7.577692e-29)
(-0.0002861869 -0.0003236887 -2.646032e-21)
(-0.0003008987 -0.00039232 -4.981237e-28)
(-0.0003176462 -0.0003292383 -2.246453e-21)
(-0.0003131715 -0.0004715308 -1.069379e-27)
(-0.0002890236 -0.0005293625 -6.230365e-21)
(-0.0003096843 -0.0002709992 3.480756e-28)
(-4.928358e-05 -6.067601e-05 5.458511e-29)
(-3.345469e-05 -4.387759e-05 0)
(-0.0001287403 -0.0001580037 -2.37733e-24)
(-0.0001171757 -0.0001522817 5.499258e-29)
(-0.0002331442 -0.0002886283 6.768893e-29)
(-0.0002258105 -0.0002968789 1.978008e-28)
(-0.0003220925 -0.0003881369 -6.195639e-29)
(-0.0003161554 -0.0004323021 1.459203e-29)
(-0.0003696435 -0.0004114808 -2.039345e-21)
(-0.0003559965 -0.0005308164 -8.942756e-29)
(-0.00037082 -0.000365349 1.419266e-27)
(-0.0003494706 -0.0006044437 -2.605359e-28)
(-0.0002786181 -0.0006451309 -2.311784e-20)
(-0.0003638889 -0.0002640983 9.836799e-28)
(-0.0001004968 -0.0001351543 -3.142973e-32)
(-6.642315e-05 -9.00057e-05 -1.936604e-28)
(-0.0002155154 -0.0002926464 1.298663e-28)
(-0.0001913887 -0.000268308 -9.907272e-30)
(-0.0003181409 -0.0004255848 6.149295e-22)
(-0.0003009816 -0.0004375914 -2.379866e-28)
(-0.0003848032 -0.0004677752 -1.301935e-29)
(-0.0003555294 -0.000555524 -5.67747e-29)
(-0.0004181511 -0.0004353032 -4.064377e-21)
(-0.0003693812 -0.0006390821 -4.562655e-29)
(-0.0004228105 -0.0003503705 6.639575e-28)
(-0.000349724 -0.0007111041 4.680132e-21)
(-0.0002963614 -0.0007771033 7.861673e-28)
(-0.0003701467 -0.000222921 4.088462e-20)
(-0.0001564017 -0.0002222147 -1.615313e-25)
(-0.000104299 -0.0001442088 1.173104e-24)
(-0.0002798591 -0.0004050335 -6.725611e-23)
(-0.0002462331 -0.0003699223 7.393807e-29)
(-0.0003643898 -0.0005010916 -5.377843e-22)
(-0.0003329587 -0.0005371436 6.171247e-22)
(-0.0004119224 -0.0004985431 -8.993365e-29)
(-0.0003663929 -0.0006504156 -7.995757e-29)
(-0.0004431686 -0.0004246412 6.398554e-21)
(-0.0003458437 -0.0007266654 -2.075981e-28)
(-0.0004508697 -0.0003063357 -1.047413e-20)
(-0.0003265914 -0.0008078843 -1.722843e-28)
(-0.0002661555 -0.000880716 -1.173907e-28)
(-0.0004346231 -0.000155699 -3.035731e-20)
(-0.0001959966 -0.0002910861 2.222264e-24)
(-0.0001309784 -0.0001857512 -1.306788e-23)
(-0.0003139394 -0.0004682485 2.903549e-22)
(-0.0002698853 -0.0004382407 3.820796e-28)
(-0.0003846707 -0.000525748 1.14618e-21)
(-0.0003341461 -0.0006076564 -4.744356e-28)
(-0.000427216 -0.0004943488 5.054341e-21)
(-0.0003509572 -0.0007244552 -5.415104e-30)
(-0.0004394382 -0.0003958157 -1.759052e-28)
(-0.0003374321 -0.0008199127 5.552774e-21)
(-0.0004384415 -0.0002555193 2.871302e-29)
(-0.000302357 -0.0009072581 -1.21723e-28)
(-0.0001603001 -0.0009434265 1.360098e-29)
(-0.0004471672 -6.950844e-05 -1.930676e-28)
(-0.00021177 -0.0003256351 9.490075e-28)
(-0.0001369551 -0.0002032152 -8.953746e-23)
(-0.0003231067 -0.0004884091 -3.287376e-22)
(-0.0002658031 -0.0004743602 -6.758072e-22)
(-0.0003871139 -0.000521985 -2.22989e-28)
(-0.0003148184 -0.0006584916 2.111736e-21)
(-0.0004272113 -0.0004659634 -1.428629e-28)
(-0.0003190445 -0.0007872211 1.493116e-28)
(-0.000451045 -0.0003503801 -2.770704e-28)
(-0.0002960733 -0.0008917842 -1.456933e-28)
(-0.000458276 -0.0001903975 -1.341485e-28)
(-0.0002540455 -0.0009850623 1.076982e-20)
(-0.0001799109 -0.001064951 -1.550166e-30)
(-0.0004090835 2.152578e-05 1.310667e-28)
(-0.0002070646 -0.0003252466 -5.45368e-23)
(-0.000124819 -0.0001988571 2.110182e-22)
(-0.0003141237 -0.0004803045 -1.080106e-21)