/*--------------------------------*- C++ -*----------------------------------*\
| =========                 |                                                 |
| \\      /  F ield         | OpenFOAM: The Open Source CFD Toolbox           |
|  \\    /   O peration     | Version:  2206                                  |
|   \\  /    A nd           | Website:  www.openfoam.com                      |
|    \\/     M anipulation  |                                                 |
\*---------------------------------------------------------------------------*/
FoamFile
{
    version     2.0;
    format      ascii;
    arch        "LSB;label=32;scalar=64";
    class       surfaceVectorField;
    location    "1.6";
    object      Ufb;
}
// * * * * * * * * * * * * * * * * * * * * * * * * * * * * * * * * * * * * * //

dimensions      [0 1 -1 0 0 0 0];

internalField   nonuniform List<vector> 
26037
(
(-2.552606e-06 6.881459e-05 8.38421e-22)
(1.308097e-05 1.748938e-05 -2.204831e-27)
(-1.573934e-06 3.58907e-05 -2.631553e-22)
(1.717478e-05 2.362761e-05 4.100943e-24)
(-1.808176e-06 1.406674e-05 1.258799e-27)
(4.006844e-06 2.128962e-05 1.261658e-27)
(-1.959747e-06 5.070684e-06 1.897363e-28)
(-5.288181e-07 9.889505e-06 0)
(-2.116774e-06 5.674319e-07 6.343517e-24)
(-1.446311e-06 3.082446e-06 1.894919e-28)
(-2.318137e-06 -2.686255e-06 1.348032e-28)
(-1.85941e-06 -9.133282e-07 -3.577419e-27)
(-2.176149e-06 -3.930076e-06 3.458457e-29)
(-2.547222e-06 -5.297888e-06 2.263305e-24)
(1.026247e-05 3.078888e-05 -1.15718e-29)
(4.96635e-05 2.179902e-06 1.344496e-27)
(7.654374e-06 2.290018e-05 -1.168302e-29)
(2.101976e-05 1.872502e-05 -7.816761e-28)
(2.217253e-06 1.177782e-05 0)
(7.488495e-06 1.469133e-05 -3.095156e-28)
(-2.716856e-07 4.942131e-06 -2.217956e-31)
(2.111432e-06 7.706459e-06 -4.606954e-28)
(-1.173013e-06 5.406704e-07 -9.715535e-32)
(5.134949e-08 2.650984e-06 5.126024e-26)
(-1.68742e-06 -2.760058e-06 6.580983e-31)
(-9.460047e-07 -1.071068e-06 1.245638e-31)
(-1.549505e-06 -4.047392e-06 -3.36706e-27)
(-2.078934e-06 -5.419754e-06 -2.279901e-29)
(3.004534e-05 1.523035e-05 5.70537e-28)
(2.906662e-05 3.863339e-06 9.573059e-23)
(1.359155e-05 1.326947e-05 -1.09096e-27)
(1.641438e-05 1.029369e-05 -3.087742e-23)
(5.155816e-06 8.726954e-06 1.507358e-24)
(8.549382e-06 8.961057e-06 -1.031828e-27)
(1.699588e-06 4.173197e-06 -2.269725e-24)
(4.016969e-06 5.560262e-06 -6.826586e-28)
(7.559151e-08 3.319787e-07 -1.488331e-28)
(1.540521e-06 1.933259e-06 -7.516031e-26)
(-8.362852e-07 -2.834365e-06 1.244291e-34)
(1.482956e-07 -1.348705e-06 0)
(-7.322344e-07 -4.200825e-06 2.953379e-27)
(-1.4539e-06 -5.501957e-06 2.818752e-29)
(2.145189e-05 8.327795e-06 -3.360754e-28)
(2.102352e-05 3.02868e-06 7.670959e-28)
(1.265997e-05 8.709733e-06 -1.828599e-27)
(1.459716e-05 6.642361e-06 -1.868971e-23)
(6.820722e-06 6.406763e-06 3.306394e-25)
(9.306733e-06 6.108895e-06 -7.045281e-24)
(3.421864e-06 3.214884e-06 -2.167547e-28)
(5.534561e-06 3.954926e-06 1.446265e-24)
(1.463484e-06 -3.852929e-08 3.492744e-30)
(3.038926e-06 1.144951e-06 2.455456e-28)
(2.284239e-07 -3.001731e-06 3.289004e-31)
(1.412485e-06 -1.754427e-06 -4.587628e-33)
(2.838978e-07 -4.458326e-06 4.913538e-30)
(-6.358357e-07 -5.629498e-06 -3.725998e-29)
(1.734452e-05 5.410081e-06 -4.405035e-25)
(1.819205e-05 2.16051e-06 1.681986e-30)
(1.234858e-05 6.099721e-06 -5.215354e-25)
(1.422556e-05 4.568837e-06 -4.408296e-28)
(8.113688e-06 4.631743e-06 -1.105246e-27)
(1.027683e-05 4.236662e-06 -6.542977e-28)
(5.040326e-06 2.189e-06 -2.569539e-25)
(7.050393e-06 2.570284e-06 -8.6425e-25)
(2.932321e-06 -5.771808e-07 -5.0467e-25)
(4.629316e-06 2.51307e-07 -4.417637e-25)
(1.477151e-06 -3.331766e-06 -2.639904e-25)
(2.836876e-06 -2.317055e-06 1.622924e-29)
(1.483922e-06 -4.88424e-06 -1.254439e-26)
(3.700518e-07 -5.894418e-06 4.584631e-30)
(1.606379e-05 3.502121e-06 -4.870128e-30)
(1.692276e-05 1.42675e-06 0)
(1.270566e-05 4.07694e-06 3.480911e-25)
(1.436844e-05 2.94053e-06 -4.00501e-28)
(9.394798e-06 3.02487e-06 -4.896626e-25)
(1.137395e-05 2.607024e-06 -2.756775e-28)
(6.666671e-06 1.042176e-06 2.748447e-25)
(8.603463e-06 1.232305e-06 -2.050144e-28)
(4.517568e-06 -1.355847e-06 9.972606e-30)
(6.282723e-06 -8.078804e-07 -4.612373e-25)
(2.859021e-06 -3.880373e-06 -1.571738e-25)
(4.390539e-06 -3.11592e-06 1.76264e-29)
(2.832451e-06 -5.515912e-06 -5.026412e-29)
(1.540958e-06 -6.359155e-06 4.007695e-25)
(1.573847e-05 2.134311e-06 -3.954208e-28)
(1.656858e-05 8.582096e-07 8.555584e-28)
(1.33703e-05 2.38293e-06 -6.776817e-28)
(1.485054e-05 1.616244e-06 -2.897382e-24)
(1.074949e-05 1.490027e-06 -2.993342e-24)
(1.25606e-05 1.12781e-06 -1.694891e-24)
(8.290513e-06 -2.247629e-07 -1.714411e-28)
(1.019231e-05 -1.432749e-07 4.596251e-29)
(6.179034e-06 -2.372768e-06 1.389249e-25)
(7.971484e-06 -2.005582e-06 -7.115346e-28)
(4.372782e-06 -4.702899e-06 1.162698e-30)
(6.025973e-06 -4.164872e-06 5.404738e-30)
(4.301552e-06 -6.419315e-06 8.236023e-30)
(2.828969e-06 -7.061621e-06 -2.320625e-30)
(1.60128e-05 1.1251e-06 4.547684e-28)
(1.687149e-05 4.210929e-07 6.131106e-24)
(1.426504e-05 9.570891e-07 -7.574096e-28)
(1.56452e-05 5.311469e-07 4.372764e-28)
(1.213994e-05 2.043555e-08 -3.599436e-28)
(1.383735e-05 -2.122953e-07 2.597705e-29)
(9.924286e-06 -1.580691e-06 -4.986551e-28)
(1.177635e-05 -1.536272e-06 1.275412e-30)
(7.862604e-06 -3.583966e-06 -4.906904e-28)
(9.684911e-06 -3.33102e-06 -1.284294e-24)
(5.981208e-06 -5.7935e-06 6.716479e-26)
(7.715303e-06 -5.403306e-06 1.161187e-29)
(5.860776e-06 -7.601347e-06 8.292967e-30)
(4.240849e-06 -8.050067e-06 -9.097056e-29)
(1.676069e-05 3.462318e-07 8.379533e-28)
(1.770308e-05 7.249443e-08 -5.118144e-24)
(1.54023e-05 -2.644453e-07 1.220574e-27)
(1.676333e-05 -3.849684e-07 4.213142e-24)
(1.361514e-05 -1.368436e-06 2.121857e-25)
(1.52667e-05 -1.452653e-06 1.589896e-24)
(1.160032e-05 -2.993152e-06 -1.140472e-27)
(1.344016e-05 -2.919974e-06 -7.445909e-28)
(9.591405e-06 -4.951216e-06 1.190714e-25)
(1.145147e-05 -4.75275e-06 -1.619844e-24)
(7.641541e-06 -7.107343e-06 7.369454e-30)
(9.465452e-06 -6.819619e-06 7.367182e-30)
(7.497067e-06 -9.003754e-06 0)
(5.757575e-06 -9.324774e-06 1.309715e-28)
(1.792653e-05 -2.891142e-07 -3.535165e-29)
(1.899381e-05 -2.222562e-07 -9.302387e-28)
(1.680393e-05 -1.337016e-06 1.311969e-27)
(1.821339e-05 -1.192968e-06 8.953923e-28)
(1.524115e-05 -2.697885e-06 -3.168207e-28)
(1.691475e-05 -2.616448e-06 1.330748e-27)
(1.336894e-05 -4.445081e-06 -7.404847e-28)
(1.524068e-05 -4.302919e-06 -2.529076e-24)
(1.139396e-05 -6.449123e-06 -2.051899e-31)
(1.331624e-05 -6.259999e-06 1.998355e-24)
(9.379601e-06 -8.620423e-06 0)
(1.130363e-05 -8.395481e-06 0)
(9.225503e-06 -1.062396e-05 0)
(7.350529e-06 -1.084919e-05 2.029302e-28)
(1.948685e-05 -8.391089e-07 0)
(2.070809e-05 -4.867917e-07 0)
(1.850039e-05 -2.323719e-06 9.138425e-28)
(2.001409e-05 -1.938299e-06 -1.069444e-27)
(1.707283e-05 -3.990369e-06 1.022482e-28)
(1.882457e-05 -3.738746e-06 3.519895e-24)
(1.528247e-05 -5.938435e-06 -8.256254e-28)
(1.723348e-05 -5.702136e-06 8.953707e-29)
(1.331151e-05 -8.066321e-06 2.984846e-31)
(1.532927e-05 -7.853558e-06 -2.406081e-24)
(1.122294e-05 -1.03189e-05 0)
(1.326798e-05 -1.012414e-05 0)
(1.107205e-05 -1.245245e-05 6.55763e-28)
(9.049661e-06 -1.260966e-05 -2.031753e-28)
(2.14376e-05 -1.34795e-06 -1.068999e-27)
(2.28385e-05 -7.365245e-07 0)
(2.051899e-05 -3.266603e-06 -5.742774e-29)
(2.218012e-05 -2.656675e-06 -4.23323e-24)
(1.915652e-05 -5.276591e-06 1.936424e-27)
(2.103622e-05 -4.854404e-06 1.005245e-27)
(1.739253e-05 -7.486575e-06 -7.673136e-26)
(1.946937e-05 -7.140283e-06 3.222925e-24)
(1.538982e-05 -9.804512e-06 -8.507135e-28)
(1.754123e-05 -9.544733e-06 -1.800997e-27)
(1.320679e-05 -1.219853e-05 6.555372e-28)
(1.540092e-05 -1.20096e-05 8.373553e-28)
(1.306876e-05 -1.448935e-05 2.069495e-24)
(1.087997e-05 -1.460021e-05 -3.500426e-26)
(2.378717e-05 -1.840905e-06 -1.190375e-27)
(2.539172e-05 -9.833059e-07 -1.356792e-27)
(2.288758e-05 -4.201641e-06 -1.014111e-26)
(2.473396e-05 -3.375961e-06 -1.19057e-27)
(2.153521e-05 -6.587581e-06 1.024855e-27)
(2.358771e-05 -5.994418e-06 -1.860154e-29)
(1.974862e-05 -9.10949e-06 8.012736e-29)
(2.19946e-05 -8.642261e-06 1.030789e-27)
(1.767593e-05 -1.167641e-05 -1.114184e-28)
(2.000317e-05 -1.135014e-05 -3.355819e-24)
(1.536966e-05 -1.426592e-05 8.380489e-28)
(1.77461e-05 -1.406566e-05 2.794122e-24)
(1.525061e-05 -1.674492e-05 -2.430465e-24)
(1.286953e-05 -1.68242e-05 6.820179e-31)
(2.655464e-05 -2.337837e-06 -1.357054e-27)
(2.838756e-05 -1.235946e-06 -5.00002e-24)
(2.563752e-05 -5.158333e-06 -1.029196e-29)
(2.77046e-05 -4.118668e-06 0)
(2.424773e-05 -7.953332e-06 -2.39175e-26)
(2.65179e-05 -7.189781e-06 -3.501836e-29)
(2.239874e-05 -1.082606e-05 -2.184166e-27)
(2.485011e-05 -1.024763e-05 1.548743e-27)
(2.021793e-05 -1.370314e-05 -1.192953e-27)
(2.277015e-05 -1.327249e-05 -4.389606e-24)
(1.775147e-05 -1.653716e-05 1.341806e-28)
(2.034623e-05 -1.630915e-05 9.575813e-28)
(1.765577e-05 -1.923818e-05 1.224132e-28)
(1.504978e-05 -1.929637e-05 -2.151259e-28)
(2.976902e-05 -2.853957e-06 -1.519643e-27)
(3.185623e-05 -1.5008e-06 -1.518942e-27)
(2.880827e-05 -6.162523e-06 -2.469894e-29)
(3.112942e-05 -4.900765e-06 -1.666754e-27)
(2.734014e-05 -9.410752e-06 -4.052893e-26)
(2.988108e-05 -8.455888e-06 -2.470524e-29)
(2.542468e-05 -1.266047e-05 1.245128e-25)
(2.813406e-05 -1.195285e-05 4.104478e-24)
(2.308116e-05 -1.589944e-05 -8.620037e-28)
(2.592378e-05 -1.538028e-05 -8.134212e-28)
(2.03994e-05 -1.903358e-05 9.459476e-28)
(2.325963e-05 -1.877142e-05 6.575719e-29)
(2.033015e-05 -2.199802e-05 3.329056e-24)
(1.74582e-05 -2.204125e-05 1.733623e-27)
(3.346553e-05 -3.399678e-06 -1.665949e-27)
(3.583506e-05 -1.783363e-06 0)
(3.243885e-05 -7.227426e-06 -1.667091e-27)
(3.504583e-05 -5.73764e-06 -5.722965e-24)
(3.088524e-05 -1.095368e-05 1.545441e-27)
(3.370258e-05 -9.815706e-06 -1.697209e-29)
(2.884537e-05 -1.463694e-05 -4.806431e-26)
(3.182779e-05 -1.377964e-05 1.523186e-27)
(2.62715e-05 -1.830621e-05 1.192716e-28)
(2.943518e-05 -1.769427e-05 5.338259e-29)
(2.335765e-05 -2.179059e-05 -9.655912e-26)
(2.652788e-05 -2.148585e-05 6.572862e-29)
(2.332035e-05 -2.505999e-05 1.161785e-27)
(2.013744e-05 -2.509355e-05 1.25138e-27)
(3.768757e-05 -3.986624e-06 -3.751506e-27)
(4.037094e-05 -2.08859e-06 -2.162234e-27)
(3.657299e-05 -8.379365e-06 -3.771044e-27)
(3.950477e-05 -6.64404e-06 -6.286994e-24)
(3.489511e-05 -1.264097e-05 1.908545e-26)
(3.804423e-05 -1.129765e-05 -5.607951e-29)
(3.268472e-05 -1.681856e-05 -2.425994e-29)
(3.60068e-05 -1.580206e-05 -5.128218e-29)
(2.98732e-05 -2.09535e-05 0)
(3.339551e-05 -2.022706e-05 0)
(2.668136e-05 -2.484181e-05 0)
(3.020986e-05 -2.448207e-05 -1.689196e-27)
(2.66796e-05 -2.846159e-05 -2.008259e-28)
(2.313615e-05 -2.849196e-05 -1.009448e-28)
(4.248649e-05 -4.623211e-06 2.789806e-26)
(4.551762e-05 -2.420306e-06 -7.056841e-24)
(4.126616e-05 -9.631724e-06 5.818356e-26)
(4.456101e-05 -7.630799e-06 -4.511511e-27)
(3.943594e-05 -1.448155e-05 3.417946e-26)
(4.296283e-05 -1.29155e-05 -1.061104e-28)
(3.702081e-05 -1.921062e-05 -2.7841e-29)
(4.073366e-05 -1.802019e-05 -8.98755e-29)
(3.393967e-05 -2.386668e-05 -1.708833e-27)
(3.786785e-05 -2.300965e-05 0)
(3.042828e-05 -2.822401e-05 1.911184e-25)
(3.437322e-05 -2.778847e-05 -5.928244e-24)
(3.046724e-05 -3.224358e-05 -3.143031e-28)
(2.650881e-05 -3.227824e-05 2.850734e-25)
(4.791955e-05 -5.316527e-06 2.304721e-26)
(5.133483e-05 -2.781894e-06 -5.187886e-27)
(4.657737e-05 -1.099883e-05 6.850844e-26)
(5.027534e-05 -8.708061e-06 -7.607056e-24)
(4.45709e-05 -1.64973e-05 9.739552e-26)
(4.852143e-05 -1.468728e-05 -2.659019e-27)
(4.191334e-05 -2.184029e-05 -6.347908e-29)
(4.607347e-05 -2.046574e-05 -6.246335e-29)
(3.853883e-05 -2.706301e-05 -1.843481e-27)
(4.290752e-05 -2.610862e-05 6.903438e-28)
(3.466817e-05 -3.197752e-05 -1.93429e-27)
(3.910497e-05 -3.13945e-05 -7.79119e-28)
(3.474615e-05 -3.644121e-05 1.420418e-28)
(3.031619e-05 -3.649716e-05 3.382083e-25)
(5.404977e-05 -6.072806e-06 -8.126998e-27)
(5.788749e-05 -3.175902e-06 -8.45569e-24)
(5.257263e-05 -1.249341e-05 -7.970269e-27)
(5.671434e-05 -9.883186e-06 -8.314117e-24)
(5.037506e-05 -1.871115e-05 -2.593921e-27)
(5.479307e-05 -1.662236e-05 -8.096505e-24)
(4.743667e-05 -2.475923e-05 6.840858e-28)
(5.21294e-05 -2.3135e-05 -2.699127e-27)
(4.381771e-05 -3.058312e-05 -1.652242e-24)
(4.871436e-05 -2.947407e-05 7.89419e-28)
(3.950593e-05 -3.612755e-05 -7.276374e-25)
(4.45514e-05 -3.543414e-05 -1.255825e-27)
(3.960738e-05 -4.110649e-05 2.193481e-27)
(3.463265e-05 -4.119257e-05 2.555345e-28)
(6.094403e-05 -6.896352e-06 -2.850225e-26)
(6.524421e-05 -3.6047e-06 -3.102438e-27)
(5.931856e-05 -1.4122e-05 -1.026639e-25)
(6.394589e-05 -1.116358e-05 -9.101642e-24)
(5.691484e-05 -2.111964e-05 -8.518875e-27)
(6.183874e-05 -1.873508e-05 -8.986284e-24)
(5.37306e-05 -2.790107e-05 -1.864361e-25)
(5.891839e-05 -2.605155e-05 -8.816306e-24)
(4.979642e-05 -3.44227e-05 -2.164552e-27)
(5.518644e-05 -3.311701e-05 1.01999e-28)
(4.492504e-05 -4.072358e-05 -3.103578e-28)
(5.060318e-05 -3.991733e-05 -7.667471e-24)
(4.511971e-05 -4.62877e-05 7.663656e-24)
(3.953002e-05 -4.64209e-05 4.578233e-25)
(6.867401e-05 -7.792128e-06 -3.394861e-27)
(7.347832e-05 -4.069919e-06 3.929813e-27)
(6.688875e-05 -1.589844e-05 -1.055485e-25)
(7.204641e-05 -1.255519e-05 -3.395358e-27)
(6.425901e-05 -2.376208e-05 -9.537542e-27)
(6.974527e-05 -2.103946e-05 -3.264912e-27)
(6.077941e-05 -3.139e-05 -6.283171e-27)
(6.655637e-05 -2.925457e-05 -9.726618e-24)
(5.646417e-05 -3.871947e-05 -2.571454e-27)
(6.247283e-05 -3.718926e-05 3.439888e-27)
(5.107925e-05 -4.581292e-05 -2.580104e-27)
(5.742637e-05 -4.483877e-05 -2.625945e-27)
(5.138661e-05 -5.201107e-05 -9.325892e-24)
(4.510261e-05 -5.223641e-05 -1.680125e-27)
(7.731501e-05 -8.761794e-06 3.930523e-27)
(8.266433e-05 -4.571553e-06 1.077979e-23)
(7.536368e-05 -1.782614e-05 0)
(8.109324e-05 -1.405867e-05 0)
(7.250014e-05 -2.663885e-05 9.821205e-29)
(7.859531e-05 -2.353688e-05 0)
(6.870316e-05 -3.52017e-05 -2.503657e-25)
(7.513158e-05 -3.274226e-05 1.081413e-23)
(6.396162e-05 -4.34358e-05 3.51056e-27)
(7.067503e-05 -4.166932e-05 1.114799e-23)
(5.806292e-05 -5.138421e-05 -2.739087e-27)
(6.511615e-05 -5.032204e-05 -3.420824e-27)
(5.856263e-05 -5.823798e-05 -2.721331e-27)
(5.145691e-05 -5.869025e-05 -5.449235e-27)
(8.694299e-05 -9.804224e-06 8.836411e-27)
(9.287616e-05 -5.10814e-06 1.150155e-23)
(8.482452e-05 -1.990403e-05 0)
(9.11641e-05 -1.567004e-05 2.684935e-29)
(8.172989e-05 -2.97527e-05 3.87682e-27)
(8.847514e-05 -2.622165e-05 4.744721e-27)
(7.762266e-05 -3.935725e-05 2.417291e-25)
(8.474999e-05 -3.650387e-05 4.002619e-27)
(7.242215e-05 -4.866096e-05 4.064878e-27)
(7.997659e-05 -4.650745e-05 1.100219e-23)
(6.615134e-05 -5.753111e-05 -3.442275e-27)
(7.406138e-05 -5.622709e-05 -8.816939e-24)
(6.692004e-05 -6.521165e-05 0)
(5.8771e-05 -6.583555e-05 2.694617e-27)
(9.76313e-05 -1.091454e-05 4.985956e-27)
(0.0001041827 -5.676203e-06 4.956158e-27)
(9.535006e-05 -2.212339e-05 -1.064924e-25)
(0.0001023322 -1.738036e-05 -5.412148e-27)
(9.203287e-05 -3.308824e-05 4.870705e-27)
(9.946352e-05 -2.908312e-05 1.241792e-23)
(8.762927e-05 -4.380869e-05 -2.696184e-25)
(9.548251e-05 -4.053376e-05 1.251713e-28)
(8.208191e-05 -5.41919e-05 -3.723785e-27)
(9.035666e-05 -5.171077e-05 -1.316727e-23)
(7.536345e-05 -6.414699e-05 -3.993694e-27)
(8.399424e-05 -6.252397e-05 -3.031842e-27)
(7.621273e-05 -7.291992e-05 5.058261e-28)
(6.699886e-05 -7.370275e-05 2.576639e-27)
(0.0001094485 -1.208393e-05 -5.435507e-27)
(0.0001166455 -6.269311e-06 -6.209273e-27)
(0.0001070176 -2.447109e-05 -1.65158e-28)
(0.0001146675 -1.917297e-05 -1.281547e-23)
(0.0001034996 -3.663936e-05 5.279405e-27)
(0.0001116464 -3.209903e-05 1.118685e-26)
(9.881498e-05 -4.859901e-05 -4.417805e-27)
(0.0001074504 -4.481378e-05 0)
(9.289052e-05 -6.026358e-05 -7.518222e-25)
(0.0001020217 -5.73064e-05 -4.810868e-27)
(8.564902e-05 -7.15187e-05 -1.422462e-24)
(9.523099e-05 -6.947453e-05 8.616134e-28)
(8.68132e-05 -8.131244e-05 1.067626e-27)
(7.646024e-05 -8.244606e-05 -9.27939e-29)
(0.0001224538 -1.329557e-05 -1.229407e-26)
(0.0001303101 -6.877135e-06 -1.275641e-23)
(0.0001198999 -2.691919e-05 -1.815894e-28)
(0.0001282293 -2.101652e-05 -1.287717e-26)
(0.0001162242 -4.036526e-05 5.912393e-27)
(0.0001250978 -3.522595e-05 1.383904e-23)
(0.0001113145 -5.366319e-05 -3.920726e-28)
(0.0001207501 -4.928551e-05 0)
(0.0001050587 -6.673407e-05 7.112463e-25)
(0.0001150921 -6.320782e-05 -3.921287e-28)
(9.731526e-05 -7.945445e-05 -1.417144e-24)
(0.000107939 -7.692501e-05 -5.667525e-27)
(9.895061e-05 -9.050206e-05 9.989472e-28)
(8.745098e-05 -9.192992e-05 4.590393e-27)
(0.0001366921 -1.45196e-05 -1.371625e-26)
(0.000145203 -7.478611e-06 -1.463883e-26)
(0.0001340584 -2.94232e-05 -1.800869e-28)
(0.0001430643 -2.286793e-05 -1.381861e-23)
(0.0001302866 -4.420553e-05 6.616896e-27)
(0.000139877 -3.840179e-05 6.611712e-27)
(0.0001252396 -5.893138e-05 0)
(0.0001354693 -5.386666e-05 6.765081e-27)
(0.0001187681 -7.354909e-05 -5.657079e-27)
(0.0001297032 -6.930439e-05 -4.71674e-28)
(0.0001106011 -8.800645e-05 -5.33583e-27)
(0.0001224173 -8.46332e-05 -1.544661e-23)
(0.0001133607 -9.98206e-05 7.275859e-24)
(0.000100771 -0.0001021642 3.930289e-24)
(0.0001521825 -1.570854e-05 -6.843492e-26)
(0.0001612996 -8.074115e-06 -1.109441e-23)
(0.0001495317 -3.19253e-05 -7.604294e-27)
(0.0001591988 -2.462291e-05 -7.623223e-27)
(0.0001457474 -4.807427e-05 6.759547e-27)
(0.0001560164 -4.152729e-05 -8.347366e-27)
(0.000140672 -6.429118e-05 2.232122e-25)
(0.0001516712 -5.845639e-05 1.655629e-23)
(0.0001340912 -8.050914e-05 -1.27092e-26)
(0.000145903 -7.552009e-05 -8.11805e-27)
(0.0001257091 -9.653104e-05 -1.181138e-24)
(0.0001384293 -9.263952e-05 -2.249691e-23)
(0.0001287753 -0.0001096036 -2.724097e-23)
(0.000115249 -0.0001119557 -7.648557e-24)
(0.0001689421 -1.679159e-05 -8.59176e-27)
(0.0001786566 -8.591692e-06 -8.513537e-27)
(0.0001663844 -3.430101e-05 -8.368172e-27)
(0.0001766552 -2.627555e-05 0)
(0.0001626725 -5.18558e-05 -5.307534e-26)
(0.0001735667 -4.447696e-05 -1.527937e-23)
(0.0001577272 -6.964963e-05 1.380938e-28)
(0.0001694485 -6.290011e-05 7.770699e-27)
(0.0001512058 -8.76999e-05 -2.212019e-26)
(0.0001639282 -8.169444e-05 -2.032081e-23)
(0.0001426723 -0.0001059127 -2.121099e-26)
(0.0001566245 -0.0001008996 -2.491373e-23)
(0.0001469192 -0.0001204612 9.517804e-28)
(0.0001315675 -0.0001240801 -1.828571e-26)
(0.0001868778 -1.779213e-05 0)
(0.0001970866 -9.044579e-06 -1.043124e-26)
(0.0001844621 -3.64381e-05 -1.828767e-26)
(0.0001951425 -2.782274e-05 1.014862e-26)
(0.00018109 -5.538454e-05 -1.821912e-26)
(0.0001924983 -4.697391e-05 -1.504078e-23)
(0.0001765155 -7.476889e-05 -1.714589e-26)
(0.0001888223 -6.690802e-05 0)
(0.0001703968 -9.474053e-05 -2.534609e-26)
(0.0001838698 -8.748691e-05 -2.091166e-23)
(0.0001621948 -0.0001153492 -5.583831e-28)
(0.0001771933 -0.0001088538 -8.182207e-27)
(0.0001681303 -0.0001310863 2.838124e-23)
(0.0001510179 -0.0001365678 7.764332e-27)
(0.0002058159 -1.873331e-05 -2.526039e-25)
(0.0002165681 -9.417379e-06 -7.339842e-24)
(0.0002037897 -3.815443e-05 2.016145e-26)
(0.0002148184 -2.89576e-05 7.351592e-24)
(0.0002010759 -5.827858e-05 9.944637e-27)
(0.0002127203 -4.905636e-05 1.81003e-23)
(0.0001971096 -7.932753e-05 -9.616029e-27)
(0.0002098833 -7.001708e-05 2.200373e-26)
(0.0001917456 -0.0001012088 -9.613757e-27)
(0.0002057314 -9.247857e-05 -1.97157e-26)
(0.0001843805 -0.0001242362 6.992631e-27)
(0.0002001619 -0.0001160852 7.693185e-28)
(0.0001920723 -0.0001411489 6.052411e-27)
(0.0001740966 -0.0001482756 -4.732355e-25)
(0.0002258527 -1.931678e-05 -1.563024e-28)
(0.0002367657 -9.622896e-06 -1.137769e-26)
(0.0002241004 -3.940181e-05 4.430932e-26)
(0.0002353372 -2.952243e-05 1.13119e-26)
(0.0002223415 -6.027038e-05 5.552208e-26)
(0.0002340013 -5.027341e-05 5.332359e-24)
(0.0002196086 -8.285661e-05 1.172606e-24)
(0.0002325493 -7.210827e-05 3.1573e-23)
(0.0002153616 -0.000106679 -9.33435e-27)
(0.0002295874 -9.614233e-05 -2.512705e-23)
(0.0002093962 -0.0001323387 1.971284e-24)
(0.0002257834 -0.0001220469 2.36485e-27)
(0.0002194954 -0.0001502939 3.032012e-27)
(0.00020035 -0.0001598927 -3.00478e-24)
(0.000246452 -1.958119e-05 1.260087e-25)
(0.0002574205 -9.652465e-06 3.13761e-31)
(0.0002453766 -3.98869e-05 1.257186e-26)
(0.0002562921 -2.95935e-05 7.058218e-31)
(0.0002445979 -6.11219e-05 1.727366e-24)
(0.0002558491 -5.039139e-05 2.561424e-26)
(0.0002434303 -8.474348e-05 -6.420456e-24)
(0.0002558172 -7.294653e-05 3.333324e-26)
(0.0002413305 -0.0001104891 -1.15842e-26)
(0.0002554125 -9.754981e-05 -1.891956e-26)
(0.0002376281 -0.0001388132 7.098044e-24)
(0.0002541464 -0.0001257384 1.319529e-26)
(0.0002508268 -0.0001573218 3.966301e-27)
(0.000230935 -0.0001702696 7.294274e-24)
(0.0002673483 -1.944592e-05 -1.278125e-25)
(0.0002782138 -9.449427e-06 -1.45081e-29)
(0.0002669778 -3.960382e-05 1.299071e-26)
(0.0002774189 -2.894658e-05 -4.673682e-29)
(0.0002673285 -6.094989e-05 -2.609367e-24)
(0.0002782048 -4.929108e-05 -7.973259e-25)
(0.0002686373 -8.443731e-05 -2.94584e-23)
(0.0002800248 -7.150107e-05 1.483929e-24)
(0.0002698581 -0.0001114151 -9.347315e-24)
(0.0002826885 -9.639408e-05 1.424547e-26)
(0.0002693365 -0.0001425075 1.159286e-26)
(0.0002854231 -0.0001256822 4.270002e-23)
(0.0002861436 -0.0001607102 0)
(0.0002663434 -0.000177855 -6.315285e-28)
(0.0002881561 -1.877758e-05 0)
(0.0002987187 -8.982145e-06 -2.478568e-29)
(0.0002885616 -3.810948e-05 1.450929e-26)
(0.0002981725 -2.743128e-05 7.623588e-29)
(0.0002907612 -5.856527e-05 2.997568e-26)
(0.0003001659 -4.652937e-05 1.478644e-26)
(0.0002941801 -8.145297e-05 9.970321e-24)
(0.000304337 -6.731354e-05 1.542054e-26)
(0.0002997633 -0.0001083155 5.571217e-23)
(0.0003104484 -9.142762e-05 -3.103684e-24)
(0.0003047401 -0.0001417964 2.006222e-26)
(0.0003189714 -0.0001208684 1.886242e-26)
(0.0003254915 -0.0001584613 -3.863521e-27)
(0.0003069407 -0.0001809708 -1.485607e-26)
(0.0003084202 -1.756991e-05 -2.080751e-26)
(0.0003185453 -8.259901e-06 -1.652737e-26)
(0.0003094893 -3.540519e-05 1.05545e-24)
(0.0003180777 -2.506158e-05 1.460588e-28)
(0.0003134634 -5.413792e-05 2.735162e-28)
(0.0003211242 -4.21337e-05 -1.647746e-26)
(0.0003201469 -7.516253e-05 3.229536e-26)
(0.0003275753 -6.056636e-05 0)
(0.0003298813 -0.0001003261 3.209474e-26)
(0.0003375113 -8.221621e-05 -5.919961e-24)
(0.0003419523 -0.0001343253 -2.618346e-23)
(0.0003520228 -0.0001103007 1.048321e-26)
(0.0003686812 -0.0001478199 -1.816999e-26)
(0.0003528242 -0.0001771374 -2.623871e-23)
(0.0003277406 -1.585968e-05 -2.551179e-25)
(0.0003374014 -7.336321e-06 1.034448e-23)
(0.0003292159 -3.151285e-05 -1.665808e-26)
(0.0003367093 -2.196283e-05 -1.738043e-26)
(0.0003347137 -4.756076e-05 -1.675617e-26)
(0.0003404145 -3.620219e-05 1.734749e-23)
(0.0003445157 -6.556047e-05 1.85257e-26)
(0.0003488741 -5.104996e-05 -4.892695e-28)
(0.000358691 -8.790862e-05 1.92493e-23)
(0.000362984 -6.850519e-05 1.720391e-26)
(0.0003801485 -0.0001182666 -2.484417e-22)
(0.0003834782 -9.158367e-05 -2.681075e-23)
(0.0004125969 -0.0001260722 -1.954289e-26)
(0.0004038588 -0.0001627849 -7.199475e-23)
(0.0003458791 -1.379194e-05 -6.445826e-25)
(0.0003552612 -6.402227e-06 -1.74698e-26)
(0.0003472537 -2.672927e-05 -3.523251e-26)
(0.0003538881 -1.851708e-05 8.416372e-24)
(0.0003536124 -3.904902e-05 -1.828544e-26)
(0.0003573759 -2.931994e-05 9.19377e-28)
(0.0003660535 -5.221405e-05 -8.312699e-24)
(0.000366809 -3.929085e-05 -3.374954e-28)
(0.0003859372 -6.859382e-05 -1.764502e-23)
(0.000384063 -5.018301e-05 -2.202868e-26)
(0.0004153856 -9.200611e-05 -7.713353e-23)
(0.0004111003 -6.534074e-05 1.703321e-26)
(0.0004526075 -9.248795e-05 -5.148946e-27)
(0.000455373 -0.0001330332 -1.146134e-22)
(0.0003630286 -1.182438e-05 1.817986e-26)
(0.0003728805 -5.724023e-06 1.944187e-26)
(0.0003634469 -2.173387e-05 2.341602e-24)
(0.0003699081 -1.573957e-05 5.575942e-24)
(0.0003695437 -2.972109e-05 -1.582646e-24)
(0.000371884 -2.260778e-05 9.069931e-24)
(0.0003838096 -3.635926e-05 -2.051552e-26)
(0.00038065 -2.632064e-05 4.090829e-26)
(0.0004097227 -4.388218e-05 -1.336176e-23)
(0.0004003653 -2.741386e-05 -2.358056e-22)
(0.0004502489 -5.691242e-05 -4.750129e-28)
(0.0004362732 -3.008824e-05 2.516549e-26)
(0.0004936829 -4.526974e-05 4.698853e-30)
(0.0005132041 -8.626823e-05 -1.07494e-25)
(0.000380146 -1.087217e-05 5.785117e-26)
(0.0003917745 -5.695669e-06 5.732636e-23)
(0.0003786437 -1.807902e-05 2.17315e-23)
(0.0003859231 -1.442995e-05 3.83342e-26)
(0.0003845928 -2.084191e-05 6.055244e-26)
(0.0003853876 -1.660014e-05 1.9658e-26)
(0.0004038245 -1.844211e-05 1.872365e-26)
(0.000394234 -9.927064e-06 1.15946e-21)
(0.0004462868 -1.125982e-05 3.322491e-24)
(0.0004235874 6.008055e-06 3.245771e-26)
(0.0005174354 -6.974587e-06 2.571115e-26)
(0.0004893294 1.9415e-05 1.92699e-21)
(0.0005933079 3.292454e-06 -4.020607e-26)
(0.0006085742 -2.385849e-05 -1.32596e-25)
(0.000400375 -1.159805e-05 4.543419e-24)
(0.0004152595 -6.386791e-06 -1.637077e-27)
(0.0003984025 -1.651054e-05 -1.454124e-29)
(0.0004061249 -1.274291e-05 -6.215889e-29)
(0.0004122395 -1.105749e-05 8.855952e-29)
(0.0004073465 -3.595535e-06 -2.842057e-28)
(0.0004561525 9.599101e-06 5.523297e-26)
(0.0004347134 2.430003e-05 -3.174528e-21)
(0.0005387526 4.216944e-05 1.252955e-25)
(0.000512991 6.499448e-05 4.248085e-21)
(0.0006495346 6.121958e-05 -2.113708e-22)
(0.0006520816 8.092531e-05 1.184995e-21)
(0.0008075323 2.720119e-05 5.309373e-22)
(0.0007585657 2.986719e-05 -4.020741e-26)
(0.0004317878 -1.375012e-05 -2.214852e-26)
(0.000451178 -5.338995e-06 -4.218573e-22)
(0.0004399367 -1.093693e-05 -5.057103e-23)
(0.0004439441 3.233649e-07 -4.77397e-29)
(0.0004833484 1.738618e-05 -5.230956e-26)
(0.0004714321 3.991313e-05 -2.576962e-27)
(0.0005767711 7.60169e-05 2.491924e-22)
(0.0005656954 0.0001035806 -5.678356e-26)
(0.0007038298 0.0001371087 2.254335e-25)
(0.0007267787 0.0001514543 1.590781e-22)
(0.0008265441 0.0001357147 -7.776626e-27)
(0.0008942949 0.0001302802 1.15584e-25)
(0.001019201 -1.730535e-06 -5.810764e-26)
(0.0009250681 6.468237e-05 5.904409e-26)
(0.0004911387 -9.897933e-06 -2.501735e-26)
(0.000515728 6.08896e-06 -2.502076e-26)
(0.0005278943 2.31534e-05 -2.290057e-27)
(0.0005277629 4.751541e-05 -2.490943e-27)
(0.0006200991 0.0001062688 -9.799024e-23)
(0.0006189643 0.0001348318 -7.849172e-27)
(0.0007494434 0.0002013252 1.684865e-25)
(0.0007855371 0.0002183775 5.678969e-26)
(0.0008920275 0.0002452094 -6.010886e-21)
(0.0009551864 0.0002318387 1.730462e-25)
(0.0009949139 0.0001937112 6.431737e-26)
(0.00108208 0.0001371498 7.033414e-26)
(0.001151682 -7.867133e-05 3.366214e-26)
(0.001041994 6.711502e-05 6.7639e-26)
(0.000594861 2.26137e-05 -2.486009e-27)
(0.0006319055 3.831254e-05 0)
(0.000663148 0.0001233094 -1.814719e-22)
(0.0006742528 0.0001417007 -5.042515e-26)
(0.0007900065 0.0002631301 5.569222e-26)
(0.0008095647 0.0002676921 -5.648157e-27)
(0.0009302601 0.0003442084 6.138303e-26)
(0.0009748737 0.0003333336 -2.016831e-21)
(0.001030319 0.0003253369 4.677659e-27)
(0.001095307 0.000272636 5.595279e-26)
(0.001096197 0.0002308025 -1.890456e-20)
(0.001169635 8.187029e-05 4.069753e-21)
(0.001241027 -0.0001907109 7.077673e-26)
(0.001092295 6.837424e-05 1.610019e-20)
(0.0007374747 0.0001071192 -4.764652e-26)
(0.0007980777 8.615013e-05 -5.094771e-26)
(0.000813805 0.0002828266 -4.814989e-26)
(0.0008420783 0.0002646628 6.776499e-22)
(0.0009375767 0.0004295336 7.22686e-26)
(0.0009607762 0.0004010834 5.833057e-26)
(0.001041561 0.0004566831 1.283168e-25)
(0.001077007 0.0004140107 4.536055e-26)
(0.00109455 0.0003864245 4.756026e-21)
(0.001159105 0.0002704908 -3.616631e-21)
(0.001105317 0.0002491844 1.539801e-20)
(0.001209236 3.123265e-06 -1.196932e-25)
(0.001238623 -0.0003597296 1.159577e-25)
(0.001118496 6.499018e-05 -4.265586e-20)
(0.0008895329 0.0002316512 3.321977e-23)
(0.000965177 0.0001330422 6.618664e-22)
(0.0009405046 0.0004466695 -5.685783e-22)
(0.0009701346 0.0003781708 -1.092335e-25)
(0.001016823 0.0005558801 2.2813e-21)
(0.001037639 0.0004934918 -1.779e-21)
(0.001076525 0.0005422531 7.894933e-26)
(0.001104506 0.0004404475 -4.193258e-26)
(0.001091233 0.0004356518 -7.007208e-21)
(0.001181411 0.0002381615 1.071725e-25)
(0.001076374 0.000274846 9.775208e-26)
(0.001203253 -9.31288e-05 2.038973e-26)
(0.001230855 -0.0005098113 -1.095463e-20)
(0.001033712 6.460438e-05 8.08144e-26)
(0.001006316 0.0003464759 -1.154651e-25)
(0.001087325 0.0001675644 -6.043255e-26)
(0.001005381 0.0005716181 -9.905513e-22)
(0.001036137 0.0004555943 1.440995e-21)
(0.001032661 0.0006493628 1.733547e-21)
(0.001052666 0.0005384155 -7.569689e-27)
(0.001048444 0.0006061633 -1.501687e-26)
(0.001094322 0.0004318489 1.621294e-26)
(0.001054402 0.000477217 -2.132482e-29)
(0.00113403 0.0001654696 2.672023e-26)
(0.001032796 0.0002973467 7.419072e-26)
(0.001157252 -0.0002144179 3.918864e-26)
(0.001248036 -0.0006478367 1.587686e-25)
(0.0009487302 5.064389e-05 7.50049e-26)
(0.001065045 0.000421618 2.358929e-22)
(0.001142511 0.000186852 6.580476e-26)
(0.00100839 0.0006511127 7.132777e-22)
(0.001039076 0.0004872689 1.558962e-21)
(0.0009929604 0.0007186915 -4.984362e-26)
(0.001016929 0.000542499 2.891186e-21)
(0.0009833184 0.0006616456 -8.163638e-21)
(0.001042457 0.0003995408 5.437873e-26)
(0.0009576902 0.0005136143 6.381078e-26)
(0.001075439 9.29618e-05 3.806645e-28)
(0.0009066237 0.0003019911 -3.481193e-20)
(0.001089283 -0.0003378807 1.040032e-25)
(0.001083603 -0.000869037 -1.582529e-20)
(0.0008672631 4.188342e-05 8.895451e-26)
(0.001061416 0.000453027 -2.89468e-22)
(0.001130034 0.0001943191 -1.204688e-21)
(0.0009577966 0.0006915811 1.866517e-21)
(0.0009927715 0.0004812712 -9.040859e-26)
(0.0009082018 0.000765701 3.261073e-21)
(0.0009394572 0.0005166834 -2.306722e-25)
(0.0008794123 0.0007031634 1.033358e-20)
(0.000952096 0.0003528378 -6.162067e-21)
(0.0008380505 0.0005411414 4.055747e-26)
(0.0009794896 1.032783e-05 3.477104e-26)
(0.0007684764 0.0003066619 1.865399e-25)
(0.000990907 -0.0004640483 -1.365007e-20)
(0.0009719707 -0.001039434 -1.793661e-20)
(0.0006761065 1.846441e-05 1.172638e-25)
(0.0009996739 0.0004547892 1.247541e-21)
(0.001040642 0.0001873266 5.674509e-26)
(0.0008711105 0.0007042155 -1.424777e-25)