/*--------------------------------*- C++ -*----------------------------------*\
| =========                 |                                                 |
| \\      /  F ield         | OpenFOAM: The Open Source CFD Toolbox           |
|  \\    /   O peration     | Version:  2206                                  |
|   \\  /    A nd           | Website:  www.openfoam.com                      |
|    \\/     M anipulation  |                                                 |
\*---------------------------------------------------------------------------*/
FoamFile
{
    version     2.0;
    format      ascii;
    arch        "LSB;label=32;scalar=64";
    class       surfaceVectorField;
    location    "1.6";
    object      Ufb_0;
}
// * * * * * * * * * * * * * * * * * * * * * * * * * * * * * * * * * * * * * //

dimensions      [0 1 -1 0 0 0 0];

internalField   nonuniform List<vector> 
26037
(
(-2.388748e-06 6.77245e-05 8.261465e-22)
(1.316605e-05 1.708379e-05 -2.171981e-27)
(-1.498622e-06 3.554987e-05 -2.583685e-22)
(1.692586e-05 2.351155e-05 4.020711e-24)
(-1.732862e-06 1.411817e-05 1.251045e-27)
(3.969546e-06 2.121596e-05 1.253886e-27)
(-1.886194e-06 5.260547e-06 1.914924e-28)
(-4.924644e-07 1.001344e-05 0)
(-2.045861e-06 8.305524e-07 6.376159e-24)
(-1.403903e-06 3.317023e-06 1.912372e-28)
(-2.251053e-06 -2.35554e-06 1.406194e-28)
(-1.819295e-06 -6.178232e-07 -3.686348e-27)
(-2.136149e-06 -3.579798e-06 3.783146e-29)
(-2.485542e-06 -4.911483e-06 2.206446e-24)
(1.026729e-05 3.055437e-05 -1.144832e-29)
(4.907581e-05 2.219794e-06 1.331063e-27)
(7.594774e-06 2.281971e-05 -1.155835e-29)
(2.080251e-05 1.866575e-05 -7.747672e-28)
(2.205222e-06 1.187508e-05 0)
(7.418617e-06 1.471911e-05 -3.094994e-28)
(-2.628545e-07 5.13818e-06 -2.324038e-31)
(2.078824e-06 7.85931e-06 -4.626974e-28)
(-1.161217e-06 8.037884e-07 -1.135945e-31)
(3.549012e-08 2.88645e-06 5.188914e-26)
(-1.673208e-06 -2.432636e-06 6.386281e-31)
(-9.627352e-07 -7.753412e-07 1.187296e-31)
(-1.557641e-06 -3.696997e-06 -3.420751e-27)
(-2.062885e-06 -5.037695e-06 -1.886632e-29)
(2.972224e-05 1.5179e-05 5.639221e-28)
(2.880682e-05 3.869216e-06 9.385835e-23)
(1.344035e-05 1.331543e-05 -1.084055e-27)
(1.625493e-05 1.032344e-05 -3.003773e-23)
(5.082404e-06 8.858939e-06 1.580335e-24)
(8.438219e-06 9.061768e-06 -1.02578e-27)
(1.647242e-06 4.374815e-06 -2.269146e-24)
(3.92574e-06 5.733156e-06 -6.824858e-28)
(3.090668e-08 6.019596e-07 -1.507187e-28)
(1.464304e-06 2.173807e-06 -7.46844e-26)
(-8.7339e-07 -2.506186e-06 1.429756e-34)
(7.984357e-08 -1.047856e-06 0)
(-7.887991e-07 -3.844876e-06 2.978297e-27)
(-1.483508e-06 -5.119348e-06 2.426028e-29)
(2.122703e-05 8.347147e-06 -3.335118e-28)
(2.080116e-05 3.045073e-06 7.609911e-28)
(1.249539e-05 8.792703e-06 -1.81382e-27)
(1.440631e-05 6.702395e-06 -1.840591e-23)
(6.690399e-06 6.554878e-06 3.302957e-25)
(9.138419e-06 6.232555e-06 -6.940954e-24)
(3.310562e-06 3.427127e-06 -2.146052e-28)
(5.38537e-06 4.140958e-06 1.443302e-24)
(1.364606e-06 2.372068e-07 3.432868e-30)
(2.905633e-06 1.393777e-06 2.45035e-28)
(1.409586e-07 -2.668548e-06 3.085976e-31)
(1.292253e-06 -1.445154e-06 -4.441212e-33)
(1.781337e-07 -4.092852e-06 1.465636e-30)
(-7.115768e-07 -5.24163e-06 -3.330439e-29)
(1.711054e-05 5.44994e-06 -4.391793e-25)
(1.792701e-05 2.182505e-06 1.685341e-30)
(1.213776e-05 6.197286e-06 -5.207557e-25)
(1.397818e-05 4.642394e-06 -4.362922e-28)
(7.923988e-06 4.7926e-06 -1.090165e-27)
(1.004794e-05 4.372201e-06 -6.462084e-28)
(4.869657e-06 2.412596e-06 -2.577541e-25)
(6.840439e-06 2.768997e-06 -8.463451e-25)
(2.778189e-06 -2.91589e-07 -5.219193e-25)
(4.437372e-06 5.121738e-07 -4.44753e-25)
(1.338589e-06 -2.987905e-06 -2.53061e-25)
(2.663216e-06 -1.995584e-06 1.926114e-29)
(1.328518e-06 -4.505327e-06 -1.235132e-26)
(2.476706e-07 -5.496041e-06 1.157039e-30)
(1.577677e-05 3.551231e-06 -4.910192e-30)
(1.660146e-05 1.452904e-06 0)
(1.243472e-05 4.186146e-06 3.478082e-25)
(1.405798e-05 3.024168e-06 -3.938126e-28)
(9.143021e-06 3.198395e-06 -4.900842e-25)
(1.108046e-05 2.754778e-06 -2.679266e-28)
(6.434218e-06 1.279344e-06 2.755536e-25)
(8.330056e-06 1.444125e-06 -1.984288e-28)
(4.305515e-06 -1.055826e-06 1.271216e-29)
(6.028507e-06 -5.309827e-07 -4.652615e-25)
(2.668032e-06 -3.521621e-06 -1.699086e-25)
(4.160554e-06 -2.776753e-06 2.028745e-29)
(2.62584e-06 -5.119389e-06 -4.274243e-29)
(1.370842e-06 -5.944965e-06 3.86392e-25)
(1.538895e-05 2.191846e-06 -3.886958e-28)
(1.618265e-05 8.881975e-07 8.388768e-28)
(1.303391e-05 2.504083e-06 -6.632769e-28)
(1.447225e-05 1.709801e-06 -2.862562e-24)
(1.043077e-05 1.677904e-06 -3.009561e-24)
(1.219804e-05 1.288317e-06 -1.654315e-24)
(7.993305e-06 3.332554e-08 -1.644372e-28)
(9.847704e-06 8.48129e-08 4.793189e-29)
(5.90655e-06 -2.053506e-06 1.409128e-25)
(7.655688e-06 -1.708311e-06 -6.933204e-28)
(4.126369e-06 -4.323685e-06 7.436911e-31)
(5.736015e-06 -3.802899e-06 4.534263e-30)
(4.040736e-06 -5.998912e-06 7.710297e-30)
(2.609182e-06 -6.626266e-06 -2.197778e-30)
(1.559452e-05 1.190142e-06 4.461791e-28)
(1.641428e-05 4.545392e-07 6.056697e-24)
(1.385708e-05 1.091185e-06 -7.415665e-28)
(1.519361e-05 6.341111e-07 4.261516e-28)
(1.175009e-05 2.279021e-07 -3.521194e-28)
(1.33985e-05 -3.729198e-08 2.428669e-29)
(9.560011e-06 -1.306099e-06 -4.853694e-28)
(1.136376e-05 -1.286889e-06 9.605278e-31)
(7.526616e-06 -3.242069e-06 -4.77956e-28)
(9.300635e-06 -3.009254e-06 -1.221383e-24)
(5.675095e-06 -5.38837e-06 6.838976e-26)
(7.361224e-06 -5.014647e-06 1.066872e-29)
(5.540806e-06 -7.150083e-06 7.763606e-30)
(3.967468e-06 -7.586253e-06 -8.672831e-29)
(1.626653e-05 4.196193e-07 8.187378e-28)
(1.716697e-05 1.094748e-07 -5.042866e-24)
(1.491813e-05 -1.146916e-07 1.191917e-27)
(1.623129e-05 -2.712285e-07 4.182965e-24)
(1.31514e-05 -1.146561e-06 2.123562e-25)
(1.475271e-05 -1.259232e-06 1.532874e-24)
(1.116432e-05 -2.696266e-06 -1.108992e-27)
(1.29514e-05 -2.646835e-06 -7.246899e-28)
(9.186382e-06 -4.581685e-06 1.198917e-25)
(1.099273e-05 -4.403319e-06 -1.57046e-24)
(7.271348e-06 -6.670411e-06 6.878242e-30)
(9.042229e-06 -6.39861e-06 6.876122e-30)
(7.113299e-06 -8.515612e-06 0)
(5.425602e-06 -8.825414e-06 1.252417e-28)
(1.735006e-05 -2.077805e-07 -3.471195e-29)
(1.837129e-05 -1.803656e-07 -9.07185e-28)
(1.623865e-05 -1.176329e-06 1.278762e-27)
(1.759816e-05 -1.065637e-06 8.729657e-28)
(1.469722e-05 -2.454596e-06 -3.077196e-28)
(1.631497e-05 -2.402968e-06 1.294945e-27)
(1.285456e-05 -4.11931e-06 -7.204081e-28)
(1.466806e-05 -4.003731e-06 -2.462048e-24)
(1.091453e-05 -6.046475e-06 -1.930159e-31)
(1.277821e-05 -5.878256e-06 1.92677e-24)
(8.94017e-06 -8.145584e-06 0)
(1.080568e-05 -7.936218e-06 0)
(8.772527e-06 -1.009235e-05 0)
(6.955186e-06 -1.030738e-05 1.945892e-28)
(1.882121e-05 -7.527647e-07 0)
(1.999447e-05 -4.395544e-07 0)
(1.784553e-05 -2.145292e-06 8.888307e-28)
(1.930294e-05 -1.7968e-06 -1.039569e-27)
(1.64405e-05 -3.721608e-06 1.002645e-28)
(1.81312e-05 -3.503275e-06 3.430957e-24)
(1.468315e-05 -5.580838e-06 -8.02216e-28)
(1.657041e-05 -5.372926e-06 8.632238e-29)
(1.275169e-05 -7.625403e-06 2.845442e-31)
(1.470494e-05 -7.434379e-06 -2.324152e-24)
(1.070837e-05 -9.799952e-06 0)
(1.26887e-05 -9.620708e-06 0)
(1.054371e-05 -1.18706e-05 6.326487e-28)
(8.585291e-06 -1.201842e-05 -1.949571e-28)
(2.067359e-05 -1.24936e-06 -1.039137e-27)
(2.202152e-05 -6.845693e-07 0)
(1.976541e-05 -3.068522e-06 -5.636329e-29)
(2.13657e-05 -2.500163e-06 -4.120179e-24)
(1.84279e-05 -4.979765e-06 1.880729e-27)
(2.024067e-05 -4.593851e-06 9.767273e-28)
(1.670076e-05 -7.092676e-06 -7.857883e-26)
(1.87074e-05 -6.776883e-06 3.124168e-24)
(1.474231e-05 -9.319776e-06 -8.244906e-28)
(1.682255e-05 -9.082826e-06 -1.745258e-27)
(1.261022e-05 -1.162894e-05 6.324309e-28)
(1.473277e-05 -1.14557e-05 8.099769e-28)
(1.245782e-05 -1.384997e-05 1.98947e-24)
(1.034007e-05 -1.395191e-05 -3.024102e-26)
(2.291439e-05 -1.731552e-06 -1.156047e-27)
(2.446043e-05 -9.258736e-07 -1.31715e-27)
(2.202599e-05 -3.982106e-06 -1.088055e-26)
(2.380541e-05 -3.202651e-06 -1.156236e-27)
(2.070101e-05 -6.259211e-06 9.943231e-28)
(2.267963e-05 -5.705872e-06 -1.789542e-29)
(1.89555e-05 -8.674427e-06 7.886566e-29)
(2.112388e-05 -8.240271e-06 1.000063e-27)
(1.693236e-05 -1.114188e-05 -1.093279e-28)
(1.918096e-05 -1.083989e-05 -3.244727e-24)
(1.468315e-05 -1.363851e-05 8.106479e-28)
(1.698034e-05 -1.345448e-05 2.694769e-24)
(1.454902e-05 -1.604005e-05 -2.339303e-24)
(1.224681e-05 -1.611086e-05 6.598051e-31)
(2.556155e-05 -2.216614e-06 -1.317404e-27)
(2.732973e-05 -1.172265e-06 -4.853573e-24)
(2.46566e-05 -4.914989e-06 -9.921761e-30)
(2.66497e-05 -3.926483e-06 0)
(2.329716e-05 -7.58966e-06 -2.604682e-26)
(2.548547e-05 -6.869917e-06 -3.383118e-29)
(2.149399e-05 -1.034493e-05 -2.115791e-27)
(2.385946e-05 -9.802224e-06 1.501108e-27)
(1.936858e-05 -1.311224e-05 -1.157025e-27)
(2.183357e-05 -1.27088e-05 -4.244599e-24)
(1.696612e-05 -1.584424e-05 1.314918e-28)
(1.947299e-05 -1.563341e-05 9.262393e-28)
(1.685449e-05 -1.845922e-05 1.184207e-28)
(1.433619e-05 -1.850929e-05 -2.101177e-28)
(2.864259e-05 -2.719396e-06 -1.474691e-27)
(3.065802e-05 -1.430051e-06 -1.474011e-27)
(2.769528e-05 -5.892533e-06 -2.38829e-29)
(2.993444e-05 -4.687333e-06 -1.616999e-27)
(2.626111e-05 -9.007638e-06 -4.407833e-26)
(2.871092e-05 -8.100892e-06 -2.388899e-29)
(2.439569e-05 -1.212838e-05 1.730206e-25)
(2.7009e-05 -1.145915e-05 3.974072e-24)
(2.211439e-05 -1.524544e-05 -8.349611e-28)
(2.485938e-05 -1.475546e-05 -7.878206e-28)
(1.950496e-05 -1.826678e-05 9.132972e-28)
(2.226728e-05 -1.802253e-05 6.384648e-29)
(1.941883e-05 -2.113533e-05 3.214186e-24)
(1.664458e-05 -2.117079e-05 1.67162e-27)
(3.219108e-05 -3.250177e-06 -1.616219e-27)
(3.448084e-05 -1.704673e-06 0)
(3.117926e-05 -6.927444e-06 -1.617326e-27)
(3.369521e-05 -5.500333e-06 -5.539303e-24)
(2.96625e-05 -1.050597e-05 1.498138e-27)
(3.237955e-05 -9.421189e-06 -1.646932e-29)
(2.767827e-05 -1.404664e-05 -3.973142e-26)
(3.055438e-05 -1.323201e-05 1.476532e-27)
(2.517588e-05 -1.758003e-05 1.157649e-28)
(2.823084e-05 -1.699994e-05 5.178995e-29)
(2.234283e-05 -2.094017e-05 -8.877723e-26)
(2.540431e-05 -2.065436e-05 6.381875e-29)
(2.228754e-05 -2.41029e-05 1.122534e-27)
(1.92134e-05 -2.412892e-05 1.209649e-27)
(3.624851e-05 -3.820437e-06 -3.639336e-27)
(3.88432e-05 -2.001061e-06 -2.097797e-27)
(3.515044e-05 -8.04573e-06 -3.658294e-27)
(3.798087e-05 -6.380044e-06 -6.082523e-24)
(3.351341e-05 -1.214303e-05 1.61825e-26)
(3.655111e-05 -1.085875e-05 -5.446116e-29)
(3.136551e-05 -1.616275e-05 -2.355051e-29)
(3.456903e-05 -1.519315e-05 -4.980985e-29)
(2.863472e-05 -2.014666e-05 0)
(3.203576e-05 -1.945516e-05 0)
(2.553344e-05 -2.389742e-05 0)
(2.894088e-05 -2.355797e-05 -1.63555e-27)
(2.551236e-05 -2.739839e-05 -1.954476e-28)
(2.20901e-05 -2.742137e-05 -9.822455e-29)
(4.086415e-05 -4.43813e-06 2.818429e-26)
(4.379641e-05 -2.32293e-06 -6.818742e-24)
(3.966224e-05 -9.260411e-06 5.645204e-26)
(4.284425e-05 -7.336978e-06 -4.377058e-27)
(3.787761e-05 -1.392751e-05 3.088206e-26)
(4.128041e-05 -1.242699e-05 -1.031407e-28)
(3.553268e-05 -1.848114e-05 -2.70546e-29)
(3.911309e-05 -1.734258e-05 -8.738582e-29)
(3.254254e-05 -2.296933e-05 -1.654563e-27)
(3.633528e-05 -2.215077e-05 0)
(2.913283e-05 -2.717413e-05 1.813614e-25)
(3.294289e-05 -2.676066e-05 -5.744399e-24)
(2.915095e-05 -3.106131e-05 -3.059497e-28)
(2.532768e-05 -3.108852e-05 2.756605e-25)
(4.609296e-05 -5.110403e-06 2.343419e-26)
(4.939785e-05 -2.673457e-06 -5.034072e-27)
(4.477149e-05 -1.058539e-05 6.648767e-26)
(4.834367e-05 -8.380811e-06 -7.346287e-24)
(4.281595e-05 -1.588055e-05 9.004624e-26)
(4.662819e-05 -1.414324e-05 -2.579925e-27)
(4.023726e-05 -2.102834e-05 -6.173577e-29)
(4.424929e-05 -1.971128e-05 -6.074794e-29)
(3.69652e-05 -2.606446e-05 -1.785168e-27)
(4.118236e-05 -2.515196e-05 6.721838e-28)
(3.320885e-05 -3.08095e-05 -1.87372e-27)
(3.749528e-05 -3.025273e-05 -7.484931e-28)
(3.326427e-05 -3.512579e-05 1.384416e-28)
(2.898513e-05 -3.517381e-05 3.277939e-25)
(5.199535e-05 -5.843113e-06 -7.886372e-27)
(5.570968e-05 -3.055032e-06 -8.152222e-24)
(5.054164e-05 -1.203274e-05 -7.73374e-27)
(5.454292e-05 -9.518409e-06 -8.01938e-24)
(4.840114e-05 -1.802418e-05 -2.516625e-27)
(5.266486e-05 -1.6016e-05 -7.812358e-24)
(4.555156e-05 -2.385535e-05 6.660904e-28)
(5.007833e-05 -2.229439e-05 -2.618243e-27)
(4.20452e-05 -2.947352e-05 -1.548251e-24)
(4.677061e-05 -2.840865e-05 7.686705e-28)
(3.786298e-05 -3.482789e-05 -6.999553e-25)
(4.273822e-05 -3.41619e-05 -1.211802e-27)
(3.794043e-05 -3.964088e-05 2.124054e-27)
(3.313468e-05 -3.971946e-05 2.489587e-28)
(5.863525e-05 -6.640218e-06 -2.858083e-26)
(6.279733e-05 -3.469879e-06 -3.011076e-27)
(5.703639e-05 -1.360834e-05 -9.959891e-26)
(6.150673e-05 -1.075671e-05 -8.7689e-24)
(5.469662e-05 -2.035368e-05 -8.2656e-27)
(5.944822e-05 -1.805875e-05 -8.663536e-24)
(5.160975e-05 -2.689359e-05 -1.754371e-25)
(5.661441e-05 -2.511401e-05 -8.50526e-24)
(4.780076e-05 -3.318621e-05 -2.097187e-27)
(5.300073e-05 -3.193065e-05 9.933339e-29)
(4.307958e-05 -3.92734e-05 -3.037965e-28)
(4.856707e-05 -3.849707e-05 -7.40989e-24)
(4.324831e-05 -4.465272e-05 7.434517e-24)
(3.784678e-05 -4.477882e-05 4.452565e-25)
(6.608099e-05 -7.506368e-06 -3.29535e-27)
(7.07306e-05 -3.919465e-06 3.815133e-27)
(6.432594e-05 -1.53254e-05 -1.023616e-25)
(6.930803e-05 -1.210119e-05 -3.295832e-27)
(6.176791e-05 -2.290742e-05 -9.255586e-27)
(6.706152e-05 -2.02848e-05 -3.16878e-27)
(5.839664e-05 -3.02655e-05 -6.097034e-27)
(6.39694e-05 -2.820837e-05 -9.380614e-24)
(5.422231e-05 -3.734029e-05 -2.493105e-27)
(6.001769e-05 -3.586571e-05 3.338359e-27)
(4.900813e-05 -4.419462e-05 -2.501473e-27)
(5.514114e-05 -4.32538e-05 -2.545936e-27)
(4.928772e-05 -5.018679e-05 -9.053303e-24)
(4.32137e-05 -5.040468e-05 -1.622151e-27)
(7.440416e-05 -8.442858e-06 3.815822e-27)
(7.958003e-05 -4.403588e-06 1.034182e-23)
(7.248714e-05 -1.718667e-05 0)
(7.802028e-05 -1.355193e-05 0)
(6.970395e-05 -2.568516e-05 9.567683e-29)
(7.558372e-05 -2.269463e-05 0)
(6.602793e-05 -3.394699e-05 -2.358061e-25)
(7.222833e-05 -3.157473e-05 1.04236e-23)
(6.144489e-05 -4.189699e-05 3.406946e-27)
(6.791874e-05 -4.019228e-05 1.078075e-23)
(5.573929e-05 -4.957815e-05 -2.654776e-27)
(6.255146e-05 -4.855138e-05 -3.319448e-27)
(5.620949e-05 -5.620534e-05 -2.637566e-27)
(4.933872e-05 -5.664598e-05 -5.281094e-27)
(8.367652e-05 -9.448132e-06 8.579438e-27)
(8.941505e-05 -4.920573e-06 1.100664e-23)
(8.159709e-05 -1.919024e-05 0)
(8.771681e-05 -1.51043e-05 2.615277e-29)
(7.859256e-05 -2.868825e-05 3.763365e-27)
(8.509681e-05 -2.52815e-05 4.607648e-27)
(7.462047e-05 -3.795697e-05 2.255231e-25)
(8.149303e-05 -3.520065e-05 3.885932e-27)
(6.959783e-05 -4.69439e-05 3.945826e-27)
(7.6883e-05 -4.485878e-05 1.058749e-23)
(6.353929e-05 -5.551723e-05 -3.340263e-27)
(7.117404e-05 -5.424992e-05 -8.490346e-24)
(6.42739e-05 -6.293936e-05 0)
(5.639385e-05 -6.355305e-05 2.610123e-27)
(9.396674e-05 -1.05169e-05 4.841354e-27)
(0.0001002996 -5.466735e-06 4.812339e-27)
(9.172994e-05 -2.132658e-05 -1.024616e-25)
(9.846599e-05 -1.67488e-05 -5.255814e-27)
(8.851372e-05 -3.190005e-05 4.730394e-27)
(9.567469e-05 -2.803382e-05 1.189512e-23)
(8.426087e-05 -4.224544e-05 -2.516254e-25)
(9.182942e-05 -3.907908e-05 1.21957e-28)
(7.890795e-05 -5.227502e-05 -3.614108e-27)
(8.688579e-05 -4.986999e-05 -1.267022e-23)
(7.242442e-05 -6.189722e-05 -3.876752e-27)
(8.074928e-05 -6.03187e-05 -2.939442e-27)
(7.32456e-05 -7.037566e-05 4.933355e-28)
(6.433575e-05 -7.114829e-05 2.494468e-27)
(0.0001053382 -1.163992e-05 -5.278577e-27)
(0.0001122896 -6.035395e-06 -6.028876e-27)
(0.000102958 -2.358184e-05 -1.601044e-28)
(0.0001103324 -1.846811e-05 -1.220877e-23)
(9.955284e-05 -3.531354e-05 5.127267e-27)
(0.0001073981 -3.092847e-05 1.086479e-26)
(9.5036e-05 -4.685407e-05 -4.289185e-27)
(0.0001033533 -4.319113e-05 0)
(8.932618e-05 -5.812182e-05 -7.107145e-25)
(9.812646e-05 -5.525234e-05 -4.672193e-27)
(8.234817e-05 -6.900408e-05 -1.356128e-24)
(9.158504e-05 -6.701251e-05 8.400012e-28)
(8.348276e-05 -7.846692e-05 1.041218e-27)
(7.34761e-05 -7.958533e-05 -9.0706e-29)
(0.0001178444 -1.279984e-05 -1.193799e-26)
(0.0001254244 -6.61595e-06 -1.204965e-23)
(0.0001153484 -2.59272e-05 -1.757027e-28)
(0.0001233696 -2.023021e-05 -1.250491e-26)
(0.0001117989 -3.888699e-05 5.742328e-27)
(0.0001203357 -3.392087e-05 1.318087e-23)
(0.0001070755 -5.171794e-05 -3.82044e-28)
(0.0001161565 -4.747715e-05 0)
(0.0001010567 -6.4346e-05 6.691887e-25)
(0.0001107221 -6.091918e-05 -3.820986e-28)
(9.360685e-05 -7.664832e-05 -1.353472e-24)
(0.0001038433 -7.418124e-05 -5.506837e-27)
(9.520634e-05 -8.732297e-05 9.558297e-28)
(8.41003e-05 -8.872958e-05 4.459092e-27)
(0.0001315237 -1.396654e-05 -1.331768e-26)
(0.0001397237 -7.1871e-06 -1.421012e-26)
(0.0001289568 -2.831708e-05 -1.736949e-28)
(0.0001376175 -2.199101e-05 -1.303096e-23)
(0.0001253263 -4.255833e-05 6.426586e-27)
(0.0001345405 -3.694728e-05 6.421551e-27)
(0.0001204869 -5.676501e-05 0)
(0.0001303213 -5.185246e-05 6.571395e-27)
(0.0001142779 -7.089094e-05 -5.496687e-27)
(0.0001248046 -6.675653e-05 -4.592963e-28)
(0.0001064357 -8.488374e-05 -5.201104e-27)
(0.0001178211 -8.158124e-05 -1.493558e-23)
(0.0001091331 -9.628937e-05 7.1938e-24)
(9.698305e-05 -9.859805e-05 3.716377e-24)
(0.000146388 -1.509202e-05 -7.08433e-26)
(0.0001551552 -7.749332e-06 -1.027712e-23)
(0.0001438145 -3.069209e-05 -7.383214e-27)
(0.0001530945 -2.364895e-05 -7.401592e-27)
(0.0001401895 -4.623947e-05 6.56602e-27)
(0.000150038 -3.990773e-05 -8.105659e-27)
(0.0001353465 -6.187936e-05 1.729034e-25)
(0.0001459039 -5.621325e-05 1.571807e-23)
(0.0001290596 -7.755169e-05 -1.235265e-26)
(0.000140416 -7.268237e-05 -7.890622e-27)
(0.0001210362 -9.306385e-05 -1.128429e-24)
(0.0001332851 -8.923961e-05 -2.169328e-23)
(0.000124051 -0.0001056746 -2.639419e-23)
(0.0001110096 -0.0001080182 -7.255307e-24)
(0.0001624462 -1.611022e-05 -8.336615e-27)
(0.0001717677 -8.23211e-06 -8.260715e-27)
(0.0001599763 -3.292986e-05 -8.125862e-27)
(0.0001698114 -2.51929e-05 0)
(0.000156445 -4.981374e-05 -7.540466e-26)
(0.000166868 -4.26745e-05 -1.428461e-23)
(0.0001517601 -6.696397e-05 1.306415e-28)
(0.0001629861 -6.04026e-05 7.548588e-27)
(0.0001455687 -8.440322e-05 -2.150431e-26)
(0.0001577788 -7.853245e-05 -1.93703e-23)
(0.0001374374 -0.0001020384 -2.062638e-26)
(0.0001508585 -9.710519e-05 -2.399323e-23)
(0.0001416174 -0.0001160657 9.298976e-28)
(0.0001268353 -0.0001196554 -1.779393e-26)
(0.000179596 -1.70355e-05 0)
(0.0001893659 -8.64877e-06 -1.011154e-26)
(0.0001772817 -3.49116e-05 -1.775347e-26)
(0.0001874734 -2.662117e-05 9.842392e-27)
(0.0001741116 -5.311077e-05 -1.768692e-26)
(0.0001849931 -4.498013e-05 -1.377463e-23)
(0.0001698269 -7.177903e-05 -1.666475e-26)
(0.0001815809 -6.413396e-05 0)
(0.0001640751 -9.1066e-05 -2.464015e-26)
(0.0001769729 -8.396635e-05 -1.975194e-23)
(0.0001563208 -0.0001110237 -5.379599e-28)
(0.0001707222 -0.0001046197 -7.957913e-27)
(0.0001621752 -0.0001261736 2.736542e-23)
(0.0001456989 -0.0001316244 7.55669e-27)
(0.0001976612 -1.790046e-05 -2.512193e-25)
(0.0002079264 -8.982019e-06 -6.256872e-24)
(0.000195741 -3.647743e-05 1.955892e-26)
(0.0002062225 -2.763727e-05 6.342223e-24)
(0.0001932483 -5.576295e-05 9.6504e-27)
(0.0002042984 -4.6855e-05 1.581226e-23)
(0.0001896048 -7.600584e-05 -9.345726e-27)
(0.0002017582 -6.695668e-05 2.135943e-26)
(0.000184646 -9.711502e-05 -9.343519e-27)
(0.0001979846 -8.856845e-05 -1.916099e-26)
(0.0001777782 -0.0001194038 6.810408e-27)
(0.0001928839 -0.0001113622 7.465741e-28)
(0.0001853719 -0.0001356494 5.896797e-27)
(0.0001681007 -0.0001427443 -5.986328e-25)
(0.0002167248 -1.840036e-05 -1.460328e-28)
(0.0002271049 -9.146581e-06 -1.102178e-26)
(0.0002150824 -3.756235e-05 4.296562e-26)
(0.0002257191 -2.808346e-05 1.096311e-26)
(0.0002135556 -5.750636e-05 5.386697e-26)
(0.0002245481 -4.786093e-05 4.16144e-24)
(0.0002111704 -7.918384e-05 1.234671e-24)
(0.000223412 -6.873641e-05 2.835057e-23)
(0.0002073685 -0.0001021271 -9.072575e-27)
(0.0002208635 -9.181205e-05 -2.349538e-23)
(0.0002019521 -0.0001269369 2.01476e-24)
(0.0002175682 -0.0001167865 2.29151e-27)
(0.0002119196 -0.0001441303 2.93877e-27)
(0.0001935835 -0.0001536793 -3.163131e-24)
(0.0002362546 -1.858207e-05 1.298452e-25)
(0.0002466421 -9.137137e-06 3.484779e-31)
(0.0002352767 -3.788496e-05 1.218155e-26)
(0.0002455545 -2.803881e-05 8.175724e-31)
(0.0002347309 -5.810258e-05 1.777407e-24)
(0.0002452572 -4.778941e-05 2.481189e-26)
(0.0002339375 -8.069231e-05 -6.479703e-24)
(0.0002455493 -6.926441e-05 3.236144e-26)
(0.000232306 -0.0001054425 -1.125109e-26)
(0.0002455756 -9.280996e-05 -1.832573e-26)
(0.0002291954 -0.0001327845 7.14615e-24)
(0.0002448388 -0.0001199118 1.283454e-26)
(0.0002422052 -0.0001504225 3.846628e-27)
(0.0002232546 -0.0001632816 7.488946e-24)
(0.0002559843 -1.837215e-05 -1.328414e-25)
(0.0002662267 -8.901428e-06 -1.392331e-29)
(0.0002557003 -3.745521e-05 1.258043e-26)
(0.0002654705 -2.729319e-05 -4.491317e-29)
(0.0002562693 -5.77102e-05 -2.554271e-24)
(0.0002663761 -4.652204e-05 -1.926185e-24)
(0.0002579274 -8.006141e-05 -2.949499e-23)
(0.0002684553 -6.756299e-05 2.403292e-25)
(0.0002596202 -0.0001058864 -9.374593e-24)
(0.0002715337 -9.12504e-05 1.379034e-26)
(0.0002597215 -0.0001358126 1.128289e-26)
(0.000274811 -0.0001193056 3.941803e-23)
(0.0002762434 -0.0001530179 0)
(0.0002575491 -0.0001699955 -6.120014e-28)
(0.0002755436 -1.764615e-05 0)
(0.0002854484 -8.412383e-06 -2.356809e-29)
(0.0002760155 -3.584385e-05 1.403426e-26)
(0.0002849342 -2.570961e-05 7.256441e-29)
(0.0002783738 -5.513812e-05 2.900096e-26)
(0.0002870067 -4.363829e-05 1.429842e-26)
(0.0002820884 -7.679486e-05 9.709861e-24)
(0.0002913509 -6.319244e-05 1.492236e-26)
(0.0002880966 -0.000102338 5.52424e-23)
(0.0002977639 -8.595407e-05 -4.834708e-24)
(0.0002936815 -0.0001344259 1.942982e-26)
(0.0003067799 -0.000113947 1.828702e-26)
(0.0003140006 -0.0001499403 -3.699172e-27)
(0.0002967495 -0.000172152 -1.450591e-26)
(0.000294495 -1.640634e-05 -2.827332e-26)
(0.0003039422 -7.682668e-06 -1.593129e-26)
(0.0002956011 -3.307076e-05 1.0236e-24)
(0.0003034936 -2.331358e-05 1.386775e-28)
(0.0002996599 -5.059018e-05 2.606439e-28)
(0.0003065613 -3.918885e-05 -1.590498e-26)
(0.000306512 -7.03116e-05 3.127301e-26)
(0.0003130781 -5.634644e-05 0)
(0.0003165592 -9.399918e-05 3.1097e-26)
(0.0003231394 -7.656196e-05 -6.996416e-24)
(0.0003291722 -0.0001262977 -2.566005e-23)
(0.0003380112 -0.0001029281 1.036712e-26)
(0.0003552435 -0.000138553 -1.721814e-26)
(0.0003408639 -0.0001673021 -2.603442e-23)
(0.0003124653 -1.469513e-05 -2.496148e-25)
(0.000321443 -6.766232e-06 1.048126e-23)
(0.0003139406 -2.917064e-05 -1.607725e-26)
(0.0003207533 -2.023243e-05 -1.674776e-26)
(0.0003194326 -4.398852e-05 -1.617064e-26)
(0.0003244136 -3.327955e-05 1.708706e-23)
(0.0003292416 -6.06394e-05 1.789409e-26)
(0.0003328039 -4.684697e-05 -4.568536e-28)
(0.0003435328 -8.141141e-05 1.80552e-23)
(0.0003468074 -6.282265e-05 1.66618e-26)
(0.0003652675 -0.0001097911 -2.413083e-22)
(0.0003672878 -8.401053e-05 -2.802413e-23)
(0.0003967211 -0.0001161751 -1.839206e-26)
(0.0003896307 -0.0001520032 -7.06298e-23)
(0.000329238 -1.26472e-05 -6.217499e-25)
(0.000337931 -5.845175e-06 -1.682165e-26)
(0.0003305793 -2.442791e-05 -3.395544e-26)
(0.0003365568 -1.683373e-05 8.484489e-24)
(0.0003368357 -3.554472e-05 -1.761185e-26)
(0.0003399465 -2.64736e-05 8.682526e-28)
(0.0003490842 -4.737214e-05 -7.637515e-24)
(0.0003491689 -3.522228e-05 -3.188939e-28)
(0.0003687134 -6.214935e-05 -1.587797e-23)
(0.0003660426 -4.466071e-05 -2.116111e-26)
(0.0003980327 -8.34416e-05 -7.177791e-23)
(0.0003925904 -5.785386e-05 1.660567e-26)
(0.000433824 -8.214392e-05 -4.791275e-27)
(0.0004383104 -0.0001215164 -1.097905e-22)
(0.0003450028 -1.072454e-05 1.750096e-26)
(0.0003541465 -5.168175e-06 1.867953e-26)
(0.0003453683 -1.949601e-05 2.292425e-24)
(0.0003511665 -1.406944e-05 3.149525e-24)
(0.0003512621 -2.633876e-05 -1.60414e-24)
(0.0003530501 -1.986484e-05 4.835516e-24)
(0.0003650297 -3.175458e-05 -1.975259e-26)
(0.0003614581 -2.25403e-05 3.930446e-26)
(0.0003900581 -3.76975e-05 -1.151562e-23)
(0.0003802635 -2.239367e-05 -1.981866e-22)
(0.000429622 -4.841487e-05 -4.202006e-28)
(0.0004146735 -2.296992e-05 2.41498e-26)
(0.0004705571 -3.451637e-05 -8.870813e-28)
(0.0004918678 -7.420359e-05 2.69016e-28)
(0.0003606414 -9.740666e-06 5.561916e-26)
(0.0003714899 -5.104539e-06 5.015228e-23)
(0.0003590193 -1.585213e-05 2.060035e-23)
(0.0003656451 -1.273178e-05 3.686885e-26)
(0.0003644373 -1.765064e-05 5.822489e-26)
(0.0003649341 -1.407408e-05 1.892613e-26)
(0.0003821542 -1.444188e-05 1.806683e-26)
(0.0003728703 -6.935345e-06 9.967212e-22)
(0.0004219051 -5.980183e-06 6.660698e-24)
(0.0003993408 1.00181e-05 3.053794e-26)
(0.0004902322 1.244165e-06 2.377159e-26)
(0.0004605572 2.676801e-05 1.850943e-21)
(0.0005605396 1.616402e-05 -5.366341e-27)
(0.0005799543 -9.992238e-06 2.764742e-22)
(0.0003789176 -1.027961e-05 4.081623e-24)
(0.0003928631 -5.755465e-06 -1.49184e-27)
(0.0003763507 -1.430021e-05 -1.262881e-29)
(0.0003836549 -1.130786e-05 -5.353646e-29)
(0.0003880255 -8.567087e-06 8.581398e-29)
(0.0003835555 -2.326425e-06 -2.516891e-28)
(0.000427785 1.188227e-05 5.234329e-26)
(0.0004065083 2.564482e-05 -2.98434e-21)
(0.00050585 4.641923e-05 1.172517e-25)
(0.0004772647 6.861334e-05 4.276121e-21)
(0.0006134703 7.189144e-05 6.113491e-26)
(0.0006099843 9.028901e-05 1.306004e-21)
(0.0007640878 4.365896e-05 -4.451427e-27)
(0.0007214693 4.907094e-05 1.110461e-21)
(0.0004068639 -1.224958e-05 -2.116188e-26)
(0.0004250671 -5.062152e-06 -3.689002e-22)
(0.000412522 -9.594987e-06 -4.632129e-23)
(0.000416603 4.329232e-08 -4.101454e-29)
(0.0004512337 1.704476e-05 -4.934038e-26)
(0.0004383759 3.851473e-05 -2.331167e-27)
(0.0005391139 7.595414e-05 3.348972e-22)
(0.0005234747 0.0001035075 -5.358629e-26)
(0.0006617727 0.0001433803 3.979979e-26)
(0.000678798 0.0001562167 1.493238e-25)
(0.0007823578 0.0001510501 -4.852957e-26)
(0.0008467734 0.0001423535 3.027411e-21)
(0.0009743759 1.735713e-05 1.490562e-25)
(0.000881813 8.802852e-05 -1.176623e-25)
(0.0004594293 -9.506924e-06 -2.372555e-26)
(0.0004823203 4.825259e-06 -2.372878e-26)
(0.0004917711 2.042091e-05 -2.07694e-27)
(0.0004898756 4.399206e-05 -2.248607e-27)
(0.0005784518 0.0001018967 -1.291309e-22)
(0.0005726236 0.0001312746 -7.324657e-27)
(0.0007034327 0.0002023876 5.302838e-26)
(0.0007351535 0.0002188505 -4.388864e-27)
(0.0008443568 0.00025535 -6.040777e-21)
(0.0009067974 0.0002390872 7.761854e-26)
(0.0009479654 0.0002111043 -3.007573e-21)
(0.001036513 0.0001506867 -3.12734e-26)
(0.001107545 -5.958947e-05 -8.802036e-21)
(0.0009973247 8.89328e-05 1.73673e-25)
(0.0005534865 1.860855e-05 -2.244153e-27)
(0.0005860386 3.53518e-05 0)
(0.000618037 0.0001153413 -2.180435e-22)
(0.0006245253 0.0001357954 -2.262237e-27)
(0.0007414257 0.000259296 -5.251506e-27)
(0.000757937 0.0002639542 -4.266725e-26)
(0.0008810369 0.000349403 1.96897e-26)
(0.0009259564 0.0003353129 -4.683097e-26)
(0.0009822899 0.0003369874 -2.889299e-21)
(0.001049014 0.0002807602 4.291342e-26)
(0.001049036 0.000246593 4.702165e-25)
(0.001123699 9.42782e-05 -4.320904e-26)
(0.001195289 -0.0001735916 -2.70304e-20)
(0.001045997 8.730789e-05 3.018059e-25)
(0.0006862845 9.782608e-05 -3.142973e-32)
(0.0007402792 8.375402e-05 -4.786697e-26)
(0.0007625436 0.0002744335 -3.782924e-26)
(0.000787211 0.0002591226 6.33467e-27)
(0.000887225 0.000429415 2.765505e-21)
(0.0009101823 0.0003986585 -8.115386e-26)
(0.0009928157 0.0004630308 -2.363098e-26)
(0.001029612 0.0004169464 -3.398048e-26)
(0.001045919 0.0003958922 -4.755316e-21)
(0.001112015 0.0002771006 -1.383162e-27)
(0.001056145 0.0002608678 1.805003e-25)
(0.001160875 1.26115e-05 5.74311e-21)
(0.0011903 -0.0003457888 2.778548e-25)
(0.001069076 8.016897e-05 4.240162e-20)
(0.0008318179 0.0002227972 1.815083e-23)
(0.000901875 0.0001325663 5.796003e-22)
(0.0008869922 0.0004424895 -5.582794e-22)
(0.000913865 0.0003750773 -7.124323e-27)
(0.0009665831 0.0005572322 -1.148677e-21)
(0.0009871703 0.000492902 1.830603e-21)
(0.001027122 0.0005462242 -1.165182e-26)
(0.001056086 0.0004424354 -3.187259e-26)
(0.001040378 0.0004409304 6.986383e-21)
(0.001132097 0.000241461 -1.27956e-25)
(0.001023774 0.0002814936 -1.088455e-20)
(0.001152509 -8.760332e-05 -8.125943e-26)
(0.001179442 -0.0004995532 3.679265e-26)
(0.0009808245 7.538354e-05 -3.088721e-20)
(0.000946073 0.0003432732 1.394389e-22)
(0.00102355 0.0001681582 -1.033005e-21)
(0.0009509573 0.000571272 9.929991e-22)
(0.0009791947 0.0004557409 5.984198e-26)
(0.0009815474 0.0006499506 1.732764e-21)
(0.001001231 0.0005389407 -1.629028e-25)
(0.0009971544 0.0006063115 5.942978e-21)
(0.001044349 0.0004316229 -4.42378e-26)
(0.001001067 0.0004775644 -1.027894e-25)
(0.001082783 0.0001647247 6.42372e-21)
(0.0009772272 0.0002989597 2.871302e-29)
(0.001105003 -0.0002135133 -7.336239e-26)
(0.00119409 -0.0006416871 1.360098e-29)
(0.0008926396 5.716018e-05 -1.300966e-25)
(0.001004731 0.0004239319 1.968637e-25)
(0.001080537 0.0001875638 -1.108492e-21)
(0.0009533885 0.0006527608 -7.158599e-22)
(0.0009820287 0.0004896816 -1.570035e-21)
(0.000940829 0.0007172379 -6.315931e-26)
(0.0009651061 0.0005429662 2.92178e-21)
(0.0009304385 0.0006573002 -7.306732e-26)
(0.0009921822 0.0003964298 6.768642e-26)
(0.0009024811 0.000507933 -1.437387e-25)
(0.001023912 8.813596e-05 -7.294312e-26)
(0.0008493006 0.0002979429 -7.224822e-26)
(0.001036133 -0.0003414412 1.169311e-20)
(0.001029359 -0.0008677993 -1.550166e-30)
(0.0008085463 4.327831e-05 1.08216e-25)
(0.001002522 0.0004585921 -2.987867e-22)
(0.001071209 0.0001950028 1.205651e-21)
(0.0009030503 0.0006937842 -1.872517e-21)
(0.0009368263 0.0004844815 -1.852832e-21)
(0.0008561418 0.0007616617 1.678412e-26)
(0.0008885743 0.0005162506 1.030643e-25)
(0.0008266379 0.0006943047 6.756904e-26)
(0.0009031203 0.0003465238 -6.242807e-21)
(0.0007826289 0.0005302195 -6.33545e-26)
(0.0009293278 9.765754e-07 -5.794831e-26)
(0.000710154 0.0002970835 -6.355996e-26)
(0.000938599 -0.000472612 -1.174726e-25)
(0.0009176275 -0.001043614 -1.553592e-27)
(0.0006159622 1.398966e-05 1.761902e-25)
(0.000943649 0.0004616946 8.41769e-26)
(0.0009863641 0.0001881967 -6.301315e-22)
(0.0008179867 0.0007061496 -4.426254e-21)