/*--------------------------------*- C++ -*----------------------------------*\
| =========                 |                                                 |
| \\      /  F ield         | OpenFOAM: The Open Source CFD Toolbox           |
|  \\    /   O peration     | Version:  2206                                  |
|   \\  /    A nd           | Website:  www.openfoam.com                      |
|    \\/     M anipulation  |                                                 |
\*---------------------------------------------------------------------------*/
FoamFile
{
    version     2.0;
    format      ascii;
    arch        "LSB;label=32;scalar=64";
    class       volScalarField::Internal;
    location    "1.6";
    object      V0;
}
// * * * * * * * * * * * * * * * * * * * * * * * * * * * * * * * * * * * * * //

dimensions      [0 3 0 0 0 0 0];

value           nonuniform List<scalar> 
13078
(
1.784171e-08
1.774235e-08
1.774929e-08
1.767559e-08
1.766754e-08
1.766417e-08
1.766116e-08
1.792913e-08
1.784196e-08
1.783474e-08
1.768077e-08
1.766691e-08
1.766339e-08
1.766036e-08
1.792092e-08
1.79327e-08
1.802522e-08
1.768626e-08
1.766622e-08
1.766256e-08
1.765963e-08
1.791217e-08
1.792427e-08
1.819287e-08
1.785843e-08
1.766572e-08
1.766178e-08
1.765859e-08
1.790349e-08
1.791555e-08
1.818894e-08
1.80208e-08
1.783293e-08
1.766094e-08
1.765801e-08
1.78941e-08
1.790639e-08
1.81802e-08
1.802651e-08
1.799206e-08
1.782538e-08
1.765697e-08
1.788456e-08
1.789438e-08
1.811801e-08
1.822045e-08
1.800161e-08
1.79806e-08
1.781827e-08
1.787455e-08
1.787515e-08
1.790799e-08
1.826691e-08
1.800073e-08
1.797223e-08
1.796982e-08
1.786397e-08
1.78641e-08
1.78839e-08
1.826706e-08
1.799281e-08
1.796342e-08
1.796069e-08
1.78535e-08
1.785342e-08
1.787315e-08
1.82645e-08
1.79841e-08
1.795387e-08
1.795109e-08
1.784197e-08
1.784173e-08
1.786184e-08
1.826146e-08
1.797501e-08
1.794395e-08
1.7941e-08
1.783064e-08
1.783024e-08
1.78505e-08
1.825853e-08
1.796554e-08
1.793376e-08
1.793067e-08
1.781821e-08
1.78178e-08
1.783849e-08
1.825515e-08
1.795608e-08
1.792318e-08
1.791984e-08
1.780578e-08
1.780489e-08
1.782558e-08
1.824414e-08
1.79658e-08
1.79128e-08
1.790836e-08
1.779259e-08
1.779155e-08
1.780832e-08
1.815052e-08
1.826738e-08
1.792698e-08
1.789704e-08
1.77786e-08
1.777719e-08
1.777789e-08
1.78283e-08
1.834514e-08
1.792596e-08
1.788483e-08
1.77644e-08
1.776255e-08
1.776238e-08
1.779263e-08
1.834794e-08
1.791416e-08
1.787142e-08
1.774935e-08
1.77473e-08
1.774673e-08
1.77769e-08
1.834584e-08
1.790212e-08
1.785764e-08
1.773376e-08
1.773117e-08
1.773023e-08
1.776083e-08
1.833361e-08
1.791656e-08
1.784448e-08
1.771724e-08
1.771449e-08
1.771328e-08
1.773792e-08
1.820659e-08
1.833353e-08
1.786317e-08
1.770014e-08
1.769671e-08
1.769479e-08
1.769594e-08
1.776553e-08
1.844601e-08
1.786211e-08
1.768239e-08
1.767856e-08
1.767606e-08
1.767579e-08
1.771762e-08
1.845225e-08
1.784753e-08
1.766334e-08
1.7659e-08
1.765616e-08
1.765551e-08
1.7697e-08
1.843862e-08
1.786694e-08
1.764394e-08
1.763896e-08
1.763542e-08
1.7634e-08
1.76679e-08
1.827581e-08
1.841117e-08
1.762316e-08
1.761752e-08
1.761353e-08
1.761128e-08
1.761308e-08
1.77037e-08
1.85623e-08
1.760194e-08
1.759539e-08
1.759045e-08
1.758746e-08
1.758742e-08
1.764236e-08
1.857307e-08
1.75791e-08
1.757239e-08
1.756649e-08
1.756277e-08
1.756198e-08
1.761655e-08
1.855843e-08
1.755278e-08
1.755778e-08
1.754147e-08
1.753651e-08
1.753506e-08
1.757945e-08
1.83507e-08
1.751585e-08
1.754422e-08
1.75156e-08
1.750885e-08
1.75058e-08
1.750842e-08
1.762507e-08
1.746104e-08
1.766361e-08
1.750799e-08
1.748061e-08
1.747578e-08
1.747542e-08
1.754601e-08
1.728194e-08
1.764389e-08
1.750416e-08
1.745228e-08
1.74442e-08
1.744275e-08
1.749904e-08
1.723467e-08
1.75721e-08
1.777447e-08
1.748151e-08
1.74135e-08
1.740723e-08
1.740924e-08
1.718603e-08
1.723086e-08
1.771612e-08
1.792568e-08
1.742128e-08
1.737181e-08
1.736916e-08
1.714546e-08
1.714761e-08
1.721844e-08
1.794439e-08
1.743898e-08
1.733721e-08
1.732901e-08
1.710399e-08
1.710314e-08
1.714033e-08
1.784044e-08
1.804524e-08
1.740538e-08
1.72913e-08
1.706069e-08
1.705745e-08
1.705982e-08
1.715445e-08
1.799371e-08
1.821065e-08
1.731498e-08
1.701572e-08
1.701059e-08
1.700848e-08
1.701434e-08
1.713881e-08
1.82702e-08
1.735534e-08
1.696956e-08
1.696311e-08
1.695775e-08
1.695803e-08
1.702444e-08
1.813257e-08
1.835666e-08
1.691938e-08
1.693983e-08
1.690758e-08
1.690172e-08
1.690671e-08
1.706326e-08
1.844838e-08
1.685327e-08
1.708616e-08
1.690774e-08
1.684839e-08
1.684379e-08
1.692567e-08
1.82767e-08
1.660115e-08
1.702425e-08
1.725771e-08
1.687247e-08
1.678519e-08
1.678457e-08
1.696998e-08
1.651093e-08
1.657017e-08
1.720005e-08
1.743403e-08
1.683414e-08
1.671257e-08
1.673845e-08
1.644527e-08
1.644876e-08
1.653617e-08
1.738038e-08
1.760853e-08
1.675365e-08
1.658386e-08
1.638358e-08
1.640358e-08
1.638343e-08
1.649507e-08
1.7527e-08
1.770541e-08
1.666159e-08
1.633946e-08
1.652324e-08
1.636221e-08
1.631933e-08
1.637633e-08
1.760519e-08
1.779076e-08
1.609591e-08
1.64882e-08
1.677939e-08
1.678932e-08
1.620619e-08
1.623479e-08
1.770423e-08
1.599948e-08
1.602134e-08
1.604011e-08
1.670971e-08
1.682702e-08
1.607087e-08
1.611596e-08
1.593055e-08
1.589835e-08
1.583748e-08
1.588106e-08
1.677234e-08
1.718074e-08
1.709561e-08
1.586263e-08
1.58e-08
1.572663e-08
1.566443e-08
1.56775e-08
1.574951e-08
1.69754e-08
1.580096e-08
1.574757e-08
1.567693e-08
1.556861e-08
1.550728e-08
1.546723e-08
1.561783e-08
1.583656e-08
1.618666e-08
1.623617e-08
1.564734e-08
1.554365e-08
1.551315e-08
1.547324e-08
1.547755e-08
1.555612e-08
1.64133e-08
1.697839e-08
1.726544e-08
1.762234e-08
1.735521e-08
1.534628e-08
1.529983e-08
1.529939e-08
1.545967e-08
1.559469e-08
1.57309e-08
1.683407e-08
1.529777e-08
1.525644e-08
1.519594e-08
1.515448e-08
1.512284e-08
1.511729e-08
1.546852e-08
1.529937e-08
1.535398e-08
1.53804e-08
1.541523e-08
1.546039e-08
1.551877e-08
1.562983e-08
1.536144e-08
1.564822e-08
1.58981e-08
1.615485e-08
1.642112e-08
1.669939e-08
1.699291e-08
1.536273e-08
1.565135e-08
1.590233e-08
1.616004e-08
1.642711e-08
1.670599e-08
1.699991e-08
1.530102e-08
1.53581e-08
1.538621e-08
1.542265e-08
1.546931e-08
1.552905e-08
1.564133e-08
1.529948e-08
1.526097e-08
1.520277e-08
1.516384e-08
1.513488e-08
1.513216e-08
1.548688e-08
1.534916e-08
1.530753e-08
1.53112e-08
1.547609e-08
1.561603e-08
1.575742e-08
1.686594e-08
1.548111e-08
1.556607e-08
1.643142e-08
1.700432e-08
1.729581e-08
1.765596e-08
1.739177e-08
1.584019e-08
1.6197e-08
1.625038e-08
1.566486e-08
1.556712e-08
1.554294e-08
1.550951e-08
1.580307e-08
1.57549e-08
1.569077e-08
1.558947e-08
1.553563e-08
1.55034e-08
1.566253e-08
1.586394e-08
1.580629e-08
1.57406e-08
1.568671e-08
1.570873e-08
1.579023e-08
1.70246e-08
1.593067e-08
1.590223e-08
1.584951e-08
1.590253e-08
1.680343e-08
1.721836e-08
1.712263e-08
1.599948e-08
1.602285e-08
1.604797e-08
1.672665e-08
1.685372e-08
1.610582e-08
1.613792e-08
1.609591e-08
1.64882e-08
1.678231e-08
1.6801e-08
1.622666e-08
1.622017e-08
1.729846e-08
1.633946e-08
1.652324e-08
1.636265e-08
1.632342e-08
1.635265e-08
1.725185e-08
1.742716e-08
1.638358e-08
1.640356e-08
1.638228e-08
1.646471e-08
1.722027e-08
1.736372e-08
1.700229e-08
1.644527e-08
1.644799e-08
1.651304e-08
1.71331e-08
1.729533e-08
1.672077e-08
1.696777e-08
1.651056e-08
1.655501e-08
1.701817e-08
1.718588e-08
1.678784e-08
1.701719e-08
1.710581e-08
1.659383e-08
1.690537e-08
1.707261e-08
1.682332e-08
1.702161e-08
1.707907e-08
1.701441e-08
1.679522e-08
1.696181e-08
1.684579e-08
1.702054e-08
1.707494e-08
1.696179e-08
1.82787e-08
1.685736e-08
1.687228e-08
1.687447e-08
1.705727e-08
1.693698e-08
1.706498e-08
1.844836e-08
1.690706e-08
1.69165e-08
1.706788e-08
1.712446e-08
1.706853e-08
1.813238e-08
1.835627e-08
1.696005e-08
1.706224e-08
1.711681e-08
1.705808e-08
1.755813e-08
1.825615e-08
1.734679e-08
1.701153e-08
1.710327e-08
1.707354e-08
1.715714e-08
1.80174e-08
1.779314e-08
1.728146e-08
1.710107e-08
1.715437e-08
1.714718e-08
1.784095e-08
1.805139e-08
1.737814e-08
1.728963e-08
1.714179e-08
1.715396e-08
1.721888e-08
1.794439e-08
1.743904e-08
1.733648e-08
1.732898e-08
1.718585e-08
1.723425e-08
1.771633e-08
1.792567e-08
1.742129e-08
1.73718e-08
1.736916e-08
1.723459e-08
1.757218e-08
1.777447e-08
1.748151e-08
1.74135e-08
1.740723e-08
1.740924e-08
1.728194e-08
1.764389e-08
1.750416e-08
1.745228e-08
1.74442e-08
1.744275e-08
1.749904e-08
1.746104e-08
1.766361e-08
1.750799e-08
1.748061e-08
1.747578e-08
1.747542e-08
1.754601e-08
1.751585e-08
1.754422e-08
1.75156e-08
1.750885e-08
1.75058e-08
1.750842e-08
1.762507e-08
1.755278e-08
1.755778e-08
1.754147e-08
1.753651e-08
1.753506e-08
1.757945e-08
1.83507e-08
1.75791e-08
1.757239e-08
1.756649e-08
1.756277e-08
1.756198e-08
1.761655e-08
1.855843e-08
1.760194e-08
1.759539e-08
1.759045e-08
1.758746e-08
1.758742e-08
1.764236e-08
1.857307e-08
1.762316e-08
1.761752e-08
1.761353e-08
1.761128e-08
1.761308e-08
1.77037e-08
1.85623e-08
1.764394e-08
1.763896e-08
1.763542e-08
1.7634e-08
1.76679e-08
1.827581e-08
1.841117e-08
1.766334e-08
1.7659e-08
1.765616e-08
1.765551e-08
1.7697e-08
1.843862e-08
1.786694e-08
1.768239e-08
1.767856e-08
1.767606e-08
1.767579e-08
1.771762e-08
1.845225e-08
1.784753e-08
1.770014e-08
1.769671e-08
1.769479e-08
1.769594e-08
1.776553e-08
1.844601e-08
1.786211e-08
1.771724e-08
1.771449e-08
1.771328e-08
1.773792e-08
1.820659e-08
1.833353e-08
1.786317e-08
1.773376e-08
1.773117e-08
1.773023e-08
1.776083e-08
1.833361e-08
1.791656e-08
1.784448e-08
1.774935e-08
1.77473e-08
1.774673e-08
1.77769e-08
1.834584e-08
1.790212e-08
1.785764e-08
1.77644e-08
1.776255e-08
1.776238e-08
1.779263e-08
1.834794e-08
1.791416e-08
1.787142e-08
1.77786e-08
1.777719e-08
1.777789e-08
1.78283e-08
1.834514e-08
1.792596e-08
1.788483e-08
1.779259e-08
1.779155e-08
1.780832e-08
1.815052e-08
1.826738e-08
1.792698e-08
1.789704e-08
1.780578e-08
1.780489e-08
1.782558e-08
1.824414e-08
1.79658e-08
1.79128e-08
1.790836e-08
1.781821e-08
1.78178e-08
1.783849e-08
1.825515e-08
1.795608e-08
1.792318e-08
1.791984e-08
1.783064e-08
1.783024e-08
1.78505e-08
1.825853e-08
1.796554e-08
1.793376e-08
1.793067e-08
1.784197e-08
1.784173e-08
1.786184e-08
1.826146e-08
1.797501e-08
1.794395e-08
1.7941e-08
1.78535e-08
1.785342e-08
1.787315e-08
1.82645e-08
1.79841e-08
1.795387e-08
1.795109e-08
1.786397e-08
1.78641e-08
1.78839e-08
1.826706e-08
1.799281e-08
1.796342e-08
1.796069e-08
1.787455e-08
1.787515e-08
1.790799e-08
1.826691e-08
1.800073e-08
1.797223e-08
1.796982e-08
1.788456e-08
1.789438e-08
1.811801e-08
1.822045e-08
1.800161e-08
1.79806e-08
1.781827e-08
1.78941e-08
1.790639e-08
1.81802e-08
1.802651e-08
1.799206e-08
1.782538e-08
1.765697e-08
1.790349e-08
1.791555e-08
1.818894e-08
1.80208e-08
1.783293e-08
1.766094e-08
1.765801e-08
1.791217e-08
1.792427e-08
1.819287e-08
1.785843e-08
1.766572e-08
1.766178e-08
1.765859e-08
1.792092e-08
1.79327e-08
1.802522e-08
1.768626e-08
1.766622e-08
1.766256e-08
1.765963e-08
1.792913e-08
1.784196e-08
1.783474e-08
1.768077e-08
1.766691e-08
1.766339e-08
1.766036e-08
1.784171e-08
1.774235e-08
1.774929e-08
1.767559e-08
1.766754e-08
1.766417e-08
1.766116e-08
1.765838e-08
1.765586e-08
1.765348e-08
4.413042e-09
4.418844e-09
4.399947e-09
4.399492e-09
1.765756e-08
1.765493e-08
1.765279e-08
4.412988e-09
4.468681e-09
4.399879e-09
4.399377e-09
1.765671e-08
1.76542e-08
1.765207e-08
1.764988e-08
4.518272e-09
4.399921e-09
4.399317e-09
1.765593e-08
1.765355e-08
1.765128e-08
4.407518e-09
4.568414e-09
4.399829e-09
4.399255e-09
1.765522e-08
1.765271e-08
1.765047e-08
4.408511e-09
4.618239e-09
4.399859e-09
4.399186e-09
1.765432e-08
1.765194e-08
1.764973e-08
4.409236e-09
4.667838e-09
4.399817e-09
4.399113e-09
1.765336e-08
1.765086e-08
1.764924e-08
4.414135e-09
4.498934e-09
4.399444e-09
4.399031e-09
1.781151e-08
1.76501e-08
1.764895e-08
4.42877e-09
4.421141e-09
4.399279e-09
4.398879e-09
1.795942e-08
1.780495e-08
1.764801e-08
4.431575e-09
4.423888e-09
4.399221e-09
4.398786e-09
1.794979e-08
1.794922e-08
1.77999e-08
4.434347e-09
4.426684e-09
4.399151e-09
4.398746e-09
1.793983e-08
1.793926e-08
1.793891e-08
4.474013e-09
4.429389e-09
4.399009e-09
4.398637e-09
1.792914e-08
1.792846e-08
1.792838e-08
4.509477e-09
4.481315e-09
4.398919e-09
4.398581e-09
1.79182e-08
1.791755e-08
1.791731e-08
4.507291e-09
4.532191e-09
4.447069e-09
4.398389e-09
1.790663e-08
1.790578e-08
1.790564e-08
4.505026e-09
4.530214e-09
4.495348e-09
4.445618e-09
1.789454e-08
1.789364e-08
1.789348e-08
4.5026e-09
4.528163e-09
4.492609e-09
4.492472e-09
1.788166e-08
1.78806e-08
1.788045e-08
4.500036e-09
4.525995e-09
4.489786e-09
4.489595e-09
1.786834e-08
1.786729e-08
1.786703e-08
4.496879e-09
4.544942e-09
4.486681e-09
4.486566e-09
1.785404e-08
1.785291e-08
1.785131e-08
4.46221e-09
5.123132e-09
4.48429e-09
4.483255e-09
1.783941e-08
1.783807e-08
1.78363e-08
4.457441e-09
5.143189e-09
4.480813e-09
4.479852e-09
1.782447e-08
1.782203e-08
1.782021e-08
4.453429e-09
5.155593e-09
4.477243e-09
4.476229e-09
1.78083e-08
1.780521e-08
1.78034e-08
4.449282e-09
5.167993e-09
4.473367e-09
4.472382e-09
1.779084e-08
1.778772e-08
1.778564e-08
4.4445e-09
5.180621e-09
4.469252e-09
4.468245e-09
1.777426e-08
1.776881e-08
1.776651e-08
4.43895e-09
5.185358e-09
4.465817e-09
4.463943e-09
1.779785e-08
1.774996e-08
1.774749e-08
1.776226e-08
4.73512e-09
4.497991e-09
4.459291e-09
1.779651e-08
1.772941e-08
1.772271e-08
4.428953e-09
4.473328e-09
4.501936e-09
4.454328e-09
1.777791e-08
1.770683e-08
1.769997e-08
4.423384e-09
4.468572e-09
4.497973e-09
4.449127e-09
1.780285e-08
1.768508e-08
1.767584e-08
4.417233e-09
4.463394e-09
4.510232e-09
4.4435e-09
1.851013e-08
1.767262e-08
1.764847e-08
4.410804e-09
4.427835e-09
5.190478e-09
4.438451e-09
1.875573e-08
4.407222e-09
4.403149e-09
4.403851e-09
4.406185e-09
5.339616e-09
4.432211e-09
1.877545e-08
4.400835e-09
4.395853e-09
4.396529e-09
4.398892e-09
5.358346e-09
4.425388e-09
1.818815e-08
4.88944e-09
4.388742e-09
4.388621e-09
4.390685e-09
5.07942e-09
4.453957e-09
1.748453e-08
5.029226e-09
4.381964e-09
4.380237e-09
4.381427e-09
4.439301e-09
4.469205e-09
1.737063e-08
4.407375e-09
4.415346e-09
4.371167e-09
4.372179e-09
4.430308e-09
4.498827e-09
1.732706e-08
4.36127e-09
4.977524e-09
4.362281e-09
4.362406e-09
4.367434e-09
5.485231e-09
1.728235e-08
4.318518e-09
5.052254e-09
4.372824e-09
4.351836e-09
4.354987e-09
5.526423e-09
1.723664e-08
4.306761e-09
4.371126e-09
4.428128e-09
4.340531e-09
4.343232e-09
5.185186e-09
1.719018e-08
4.294354e-09
4.299402e-09
5.24846e-09
4.32588e-09
4.330053e-09
4.401322e-09
1.722186e-08
4.280933e-09
4.283864e-09
5.062644e-09
4.107689e-09
4.330256e-09
4.368065e-09
1.727722e-08
4.266909e-09
4.268263e-09
4.316171e-09
4.874877e-09
4.512016e-09
4.296367e-09
1.853667e-08
4.252641e-09
4.249777e-09
4.247353e-09
5.109835e-09
4.598941e-09
4.269166e-09
1.882781e-08
4.255995e-09
4.220617e-09
4.216272e-09
4.265629e-09
4.347041e-09
4.255403e-09
1.759283e-08
4.835488e-09
4.5582e-09
4.676914e-09
4.188479e-09
5.134374e-09
4.463269e-09
1.723669e-08
4.164914e-09
4.138481e-09
4.423755e-09
4.21448e-09
4.706948e-09
4.501728e-09
1.771898e-08
4.138877e-09
4.132228e-09
4.10581e-09
4.760199e-09
4.156783e-09
5.092818e-09
1.652065e-08
4.085208e-09
4.116444e-09
4.686987e-09
4.141806e-09
4.164972e-09
4.841981e-09
1.763276e-08
4.558486e-09
4.600828e-09
4.093297e-09
4.12364e-09
4.710558e-09
4.178719e-09
1.672185e-08
3.97487e-09
4.582247e-09
4.06628e-09
4.714509e-09
4.136908e-09
4.754696e-09
1.671726e-08
4.49427e-09
4.00972e-09
4.636204e-09
4.048989e-09
4.804024e-09
4.089185e-09
1.713336e-08
3.907675e-09
4.232059e-09
4.535312e-09
4.695096e-09
4.120512e-09
4.850066e-09
1.728188e-08
4.359499e-09
3.879153e-09
3.94575e-09
4.59422e-09
4.777575e-09
4.160709e-09
1.53839e-08
3.936069e-09
5.101022e-09
4.565721e-09
4.02294e-09
4.839623e-09
5.050333e-09
1.656813e-08
3.839533e-09
3.847008e-09
4.427285e-09
4.599164e-09
4.842012e-09
5.073214e-09
1.730828e-08
4.404454e-09
4.116734e-09
4.528903e-09
4.512556e-09
4.766255e-09
4.866821e-09
1.571137e-08
4.033266e-09
4.573715e-09
4.009784e-09
4.534647e-09
4.944242e-09
5.013704e-09
1.59771e-08
4.371823e-09
4.468165e-09
4.638047e-09
4.069113e-09
4.779689e-09
2.244853e-09
1.726998e-08
4.365213e-09
4.459157e-09
4.618371e-09
4.947879e-09
5.105627e-09
1.727716e-08
4.4316e-09
4.534409e-09
4.706068e-09
5.000258e-09
5.098797e-09
1.598989e-08
3.817165e-09
3.837903e-09
3.93234e-09
4.913313e-09
5.167438e-09
1.573354e-08
3.817481e-09
3.878742e-09
4.671935e-09
4.946095e-09
4.719833e-09
3.731307e-09
1.734178e-08
4.297574e-09
4.411969e-09
4.588167e-09
5.037824e-09
4.937759e-09
5.923107e-09
1.660727e-08
4.389973e-09
4.442551e-09
3.926836e-09
4.583253e-09
4.827137e-09
5.232961e-09
1.542659e-08
3.839648e-09
3.944434e-09
4.504502e-09
4.651523e-09
4.137123e-09
5.042176e-09
1.733759e-08
4.910334e-09
4.003162e-09
3.926309e-09
4.617589e-09
4.118493e-09
4.948241e-09
1.718798e-08
3.958994e-09
3.931421e-09
4.554163e-09
4.090018e-09
4.794772e-09
4.89688e-09
1.652748e-08
4.002092e-09
4.532783e-09
4.080959e-09
4.722107e-09
4.807379e-09
4.142575e-09
1.688809e-08
4.174703e-09
4.056543e-09
4.663244e-09
4.091299e-09
4.808223e-09
4.792199e-09
1.744812e-08
4.050769e-09
4.595755e-09
4.076286e-09
4.746685e-09
4.144005e-09
4.196955e-09
1.690852e-08
4.263871e-09
4.115057e-09
4.708922e-09
4.159027e-09
4.74367e-09
4.73277e-09
1.775062e-08
4.435873e-09
4.650212e-09
4.180402e-09
4.71743e-09
4.172618e-09
5.144769e-09
1.761861e-08
4.308598e-09
4.333222e-09
4.190631e-09
4.729782e-09
4.248561e-09
4.574798e-09
1.768972e-08
4.294604e-09
4.192076e-09
4.733838e-09
4.211059e-09
5.078745e-09
4.572714e-09
1.865147e-08
4.507786e-09
4.252685e-09
4.257696e-09
4.26094e-09
4.995218e-09
4.272445e-09
1.853804e-08
4.282901e-09
4.258946e-09
4.247232e-09
4.343067e-09
4.547968e-09
4.284361e-09
1.727722e-08
4.274357e-09
4.271991e-09
4.274194e-09
5.148934e-09
4.57815e-09
4.29669e-09
1.722183e-08
4.288071e-09
4.287168e-09
4.383336e-09
4.15364e-09
4.339157e-09
4.31938e-09
1.71899e-08
4.301238e-09
4.302305e-09
5.266152e-09
4.259893e-09
4.340401e-09
4.399987e-09
1.72357e-08
4.313967e-09
4.35234e-09
5.070832e-09
4.343857e-09
4.343541e-09
4.455772e-09
1.728233e-08
4.325277e-09
4.691691e-09
4.401955e-09
4.354814e-09
4.356779e-09
5.524739e-09
1.732706e-08
4.338428e-09
5.144591e-09
4.368418e-09
4.365741e-09
4.367844e-09
5.521889e-09
1.737063e-08
4.387069e-09
4.453154e-09
4.376232e-09
4.375902e-09
4.417557e-09
5.173148e-09
1.748453e-08
4.909993e-09
4.418094e-09
4.385444e-09
4.385282e-09
4.442114e-09
4.473332e-09
1.818815e-08
5.04276e-09
4.396102e-09
4.394064e-09
4.393917e-09
4.485142e-09
4.478123e-09
1.877545e-08
4.442251e-09
4.403059e-09
4.402081e-09
4.403078e-09
5.35834e-09
4.429697e-09
1.875573e-08
4.422898e-09
4.410463e-09
4.409564e-09
4.410532e-09
5.357868e-09
4.435265e-09
1.851013e-08
1.767262e-08
1.764847e-08
4.416546e-09
4.418055e-09
5.333407e-09
4.441872e-09
1.780285e-08
1.768508e-08
1.767584e-08
4.423039e-09
4.461162e-09
4.801972e-09
4.447401e-09
1.777791e-08
1.770683e-08
1.769997e-08
4.429071e-09
4.47388e-09
4.503243e-09
4.452581e-09
1.779651e-08
1.772945e-08
1.772375e-08
4.43474e-09
4.478523e-09
4.506912e-09
4.458e-09
1.779785e-08
1.775e-08
1.774646e-08
4.439095e-09
4.495584e-09
4.510474e-09
4.462985e-09
1.777426e-08
1.776881e-08
1.776655e-08
4.444801e-09
5.083461e-09
4.485787e-09
4.467664e-09
1.779084e-08
1.778772e-08
1.778573e-08
4.450753e-09
5.195696e-09
4.473982e-09
4.472045e-09
1.78083e-08
1.780521e-08
1.78034e-08
4.455223e-09
5.182804e-09
4.478034e-09
4.476199e-09
1.782447e-08
1.782203e-08
1.782021e-08
4.459441e-09
5.169273e-09
4.48186e-09
4.480063e-09
1.783941e-08
1.783807e-08
1.78363e-08
4.463458e-09
5.157342e-09
4.485525e-09
4.483638e-09
1.785404e-08
1.785291e-08
1.785131e-08
4.467105e-09
5.145687e-09
4.488895e-09
4.487246e-09
1.786834e-08
1.786729e-08
1.786703e-08
4.493986e-09
4.947622e-09
4.491804e-09
4.490442e-09
1.788166e-08
1.78806e-08
1.788045e-08
4.506215e-09
4.532434e-09
4.494339e-09
4.493484e-09
1.789454e-08
1.789364e-08
1.789348e-08
4.508745e-09
4.534144e-09
4.497308e-09
4.496437e-09
1.790663e-08
1.790578e-08
1.790564e-08
4.511113e-09
4.536129e-09
4.50006e-09
4.499301e-09
1.79182e-08
1.791755e-08
1.791731e-08
4.513382e-09
4.537977e-09
4.502714e-09
4.398353e-09
1.792914e-08
1.792846e-08
1.792838e-08
4.515578e-09
4.539752e-09
4.398867e-09
4.398422e-09
1.793983e-08
1.793926e-08
1.793891e-08
4.517556e-09
4.430904e-09
4.398965e-09
4.398545e-09
1.794979e-08
1.794922e-08
1.77999e-08
4.437295e-09
4.428069e-09
4.399047e-09
4.398661e-09
1.795942e-08
1.780495e-08
1.764801e-08
4.434812e-09
4.425286e-09
4.399189e-09
4.398767e-09
1.781151e-08
1.76501e-08
1.764895e-08
4.432298e-09
4.422425e-09
4.399247e-09
4.398866e-09
1.765336e-08
1.765086e-08
1.764924e-08
4.429313e-09
4.425397e-09
4.399439e-09
4.398956e-09
1.765432e-08
1.765194e-08
1.764973e-08
4.412484e-09
4.681673e-09
4.399822e-09
4.399041e-09
1.765522e-08
1.765271e-08
1.765047e-08
4.412521e-09
4.64311e-09
4.399806e-09
4.399118e-09
1.765593e-08
1.765355e-08
1.765128e-08
4.412678e-09
4.593297e-09
4.399911e-09
4.399189e-09
1.765671e-08
1.76542e-08
1.765207e-08
4.412816e-09
4.5434e-09
4.399875e-09
4.399319e-09
1.765756e-08
1.765493e-08
1.765279e-08
4.412831e-09
4.493633e-09
4.399961e-09
4.39938e-09
1.765838e-08
1.765586e-08
1.765348e-08
4.412951e-09
4.443794e-09
4.399919e-09
4.399499e-09
4.447992e-09
4.447737e-09
4.447552e-09
4.447429e-09
4.451542e-09
4.446443e-09
4.445347e-09
4.447916e-09
4.44698e-09
4.446831e-09
4.446961e-09
4.447221e-09
4.447532e-09
4.447935e-09
4.466993e-09
4.460934e-09
4.461392e-09
4.462042e-09
4.447962e-09
4.447665e-09
4.4475e-09
4.447433e-09
4.476681e-09
4.473166e-09
4.472897e-09
4.473264e-09
4.448311e-09
4.446804e-09
4.446968e-09
4.447202e-09
4.447495e-09
4.447939e-09
4.517364e-09
4.460869e-09
4.461266e-09
4.461726e-09
4.447928e-09
4.447596e-09
4.447449e-09
4.447439e-09
4.50157e-09
4.499824e-09
4.50038e-09
4.498612e-09
4.449643e-09
4.446767e-09
4.446845e-09
4.447112e-09
4.447386e-09
4.447925e-09
4.567864e-09
4.460675e-09
4.461069e-09
4.461593e-09
4.447824e-09
4.447646e-09
4.447333e-09
4.447444e-09
4.52671e-09
4.526613e-09
4.527923e-09
4.523967e-09
4.451051e-09
4.446793e-09
4.446846e-09
4.446957e-09
4.447342e-09
4.447987e-09
4.618233e-09
4.460606e-09
4.460883e-09
4.461402e-09
4.447716e-09
4.447561e-09
4.447352e-09
4.447508e-09
4.551592e-09
4.553336e-09
4.555405e-09
4.549308e-09
4.452381e-09
4.446761e-09
4.446846e-09
4.446998e-09
4.447291e-09
4.447856e-09
4.58994e-09
4.461933e-09
4.460752e-09
4.461271e-09
4.44767e-09
4.447416e-09
4.447365e-09
4.447513e-09
4.576746e-09
4.58006e-09
4.583081e-09
4.574657e-09
4.453646e-09
4.446722e-09
4.446777e-09
4.446907e-09
4.447168e-09
4.447567e-09
4.466062e-09
4.473798e-09
4.460625e-09
4.461083e-09
4.44755e-09
4.447391e-09
4.447302e-09
4.447447e-09
4.60162e-09
4.606716e-09
4.61063e-09
4.600005e-09
4.454978e-09
4.446684e-09
4.44671e-09
4.446875e-09
4.447105e-09
4.447471e-09
4.466251e-09
4.476614e-09
4.460305e-09
4.460766e-09
4.447427e-09
4.447367e-09
4.447238e-09
4.447445e-09
4.62677e-09
4.633519e-09
4.638106e-09
4.625353e-09
4.456368e-09
4.446697e-09
4.446634e-09
4.446773e-09
4.447041e-09
4.447369e-09
4.469135e-09
4.479181e-09
4.460116e-09
4.460574e-09
4.447363e-09
4.447205e-09
4.447179e-09
4.447438e-09
4.651654e-09
4.660249e-09
4.66571e-09
4.650707e-09
4.457693e-09
4.446587e-09
4.446557e-09
4.446722e-09
4.446893e-09
4.447273e-09
4.471892e-09
4.481556e-09
4.45986e-09
4.460383e-09
4.447359e-09
4.4471e-09
4.447174e-09
4.447436e-09
4.676799e-09
4.686972e-09
4.693122e-09
4.67605e-09
4.458965e-09
4.446549e-09
4.446604e-09
4.446613e-09
4.446882e-09
4.447223e-09
4.474649e-09
4.484125e-09
4.459669e-09
4.46013e-09
4.44715e-09
4.447059e-09
4.447039e-09
4.447428e-09
4.701677e-09
4.713627e-09
4.720734e-09
4.701397e-09
4.460288e-09
4.446496e-09
4.446397e-09
4.446549e-09
4.446728e-09
4.447101e-09
4.477476e-09
4.486626e-09
4.459476e-09
4.459873e-09
4.44713e-09
4.447012e-09
4.447092e-09
4.447421e-09
4.726829e-09
4.74042e-09
4.748346e-09
4.726815e-09
4.46162e-09
4.446439e-09
4.446436e-09
4.446428e-09
4.44669e-09
4.447037e-09
4.480298e-09
4.489001e-09
4.459157e-09
4.45968e-09
4.447102e-09
4.446958e-09
4.446949e-09
4.447413e-09
4.751699e-09
4.767143e-09
4.775825e-09
4.752164e-09
4.463016e-09
4.446453e-09
4.446275e-09
4.446305e-09
4.446524e-09
4.446826e-09
4.483123e-09
4.491566e-09
4.458964e-09
4.459551e-09
4.446938e-09
4.446833e-09
4.446866e-09
4.447463e-09
4.776858e-09
4.793866e-09
4.803444e-09
4.777519e-09
4.464406e-09
4.446394e-09
4.446231e-09
4.446287e-09
4.446414e-09
4.446874e-09
4.485949e-09
4.494011e-09
4.458773e-09
4.459175e-09
4.492733e-09
4.446702e-09
4.446782e-09
4.447449e-09
4.801733e-09
4.820519e-09
4.830846e-09
4.802861e-09
4.465599e-09
4.446331e-09
4.446134e-09
4.446139e-09
4.446416e-09
4.446707e-09
4.48858e-09
4.496451e-09
4.458644e-09
4.458983e-09
4.539538e-09
4.490477e-09
4.446751e-09
4.44737e-09
4.826882e-09
4.847313e-09
4.858465e-09
4.82821e-09
4.466918e-09
4.446201e-09
4.446025e-09
4.446109e-09
4.446276e-09
4.446593e-09
4.491343e-09
4.498894e-09
4.458329e-09
4.458724e-09
4.536496e-09
4.536757e-09
4.488367e-09
4.44748e-09
4.851761e-09
4.874037e-09
4.886079e-09
4.853558e-09
4.468236e-09
4.446196e-09
4.445968e-09
4.446012e-09
4.446123e-09
4.446538e-09
4.494295e-09
4.501399e-09
4.45801e-09
4.458473e-09
4.533176e-09
4.533529e-09
4.534171e-09
4.486958e-09
4.876846e-09
4.90076e-09
4.913557e-09
4.878907e-09
4.469626e-09
4.446119e-09
4.44584e-09
4.445827e-09
4.445969e-09
4.44632e-09
4.496995e-09
4.503781e-09
4.457755e-09
4.45822e-09
4.529768e-09
4.530155e-09
4.530828e-09
4.532265e-09
4.945996e-09
4.927418e-09
4.941172e-09
4.904261e-09
4.47101e-09
4.446042e-09
4.445711e-09
4.445705e-09
4.44592e-09
4.446231e-09
4.499822e-09
4.506225e-09
4.457436e-09
4.457905e-09
4.526146e-09
4.526507e-09
4.527278e-09
4.528772e-09
5.013518e-09
5.005338e-09
4.968721e-09
4.929604e-09
4.472203e-09
4.445957e-09
4.445693e-09
4.445571e-09
4.445799e-09
4.446266e-09
4.522267e-09
4.508192e-09
4.457117e-09
4.457651e-09
4.522238e-09
4.522777e-09
4.523534e-09
4.525213e-09
5.019579e-09
5.084653e-09
5.052986e-09
4.954952e-09
4.47352e-09
4.445932e-09
4.445539e-09
4.445489e-09
4.445588e-09
4.447057e-09
5.336083e-09
4.475557e-09
4.456868e-09
4.457396e-09
4.518111e-09
4.518708e-09
4.519516e-09
4.52133e-09
5.02599e-09
5.092e-09
5.142347e-09
5.040254e-09
4.474834e-09
4.445843e-09
4.445514e-09
4.445394e-09
4.445559e-09
4.447169e-09
5.525567e-09
4.457248e-09
4.456548e-09
4.457146e-09
4.513762e-09
4.514361e-09
4.515303e-09
4.517245e-09
5.032547e-09
5.099529e-09
5.150533e-09
5.135253e-09
4.531355e-09
4.445668e-09
4.445263e-09
4.445215e-09
4.445439e-09
4.447242e-09
5.576056e-09
4.457056e-09
4.456233e-09
4.456893e-09
4.509124e-09
4.509737e-09
4.510824e-09
4.512918e-09
5.03923e-09
5.107278e-09
5.158865e-09
5.142838e-09
4.610199e-09
4.49719e-09
4.445277e-09
4.44508e-09
4.445305e-09
4.4471e-09
5.626621e-09
4.456862e-09
4.455979e-09
4.456581e-09
4.504131e-09
4.504832e-09
4.506066e-09
4.508256e-09
5.046284e-09
5.115348e-09
5.16753e-09
5.150688e-09
4.60691e-09
4.573067e-09
4.493202e-09
4.444993e-09
4.445082e-09
4.447145e-09
5.676486e-09
4.456479e-09
4.455472e-09
4.456328e-09
4.498842e-09
4.499645e-09
4.500981e-09
4.503416e-09
5.053373e-09
5.123569e-09
5.176476e-09
5.158673e-09
4.603428e-09
4.568934e-09
4.567349e-09
4.498678e-09
4.444955e-09
4.493417e-09
5.366504e-09
4.455812e-09
4.45535e-09
4.455952e-09
4.493188e-09
4.494047e-09
4.495566e-09
4.498256e-09
5.060676e-09
5.132124e-09
5.1856e-09
5.166906e-09
4.599616e-09
4.564379e-09
4.562847e-09
4.561847e-09
4.487089e-09
4.521498e-09
4.526363e-09
4.454435e-09
4.454906e-09
4.45583e-09
4.487103e-09
4.488097e-09
4.489748e-09
4.492591e-09
5.068254e-09
5.140811e-09
5.194872e-09
5.175197e-09
4.595468e-09
4.55963e-09
4.558106e-09
4.557184e-09
4.556794e-09
4.564174e-09
4.527501e-09
4.454055e-09
4.454658e-09
4.455581e-09
4.480644e-09
4.481664e-09
4.483482e-09
4.486607e-09
5.076068e-09
5.149854e-09
5.204634e-09
5.183719e-09
4.586075e-09
4.549961e-09
4.548868e-09
4.548467e-09
4.548715e-09
4.66109e-09
4.564657e-09
4.453675e-09
4.454405e-09
4.456538e-09
4.473673e-09
4.474808e-09
4.476742e-09
4.480052e-09
5.083926e-09
5.159135e-09
5.214618e-09
5.192529e-09
4.586181e-09
4.548813e-09
4.5475e-09
4.546881e-09
4.548588e-09
5.829697e-09
4.591905e-09
4.489506e-09
4.453306e-09
4.551388e-09
4.466061e-09
4.467331e-09
4.469468e-09
4.478475e-09
4.914499e-09
5.168547e-09
5.224747e-09
5.201248e-09
4.586032e-09
4.542785e-09
4.541676e-09
4.541293e-09
4.543463e-09
6.050839e-09
4.560398e-09
4.558876e-09
4.491155e-09
4.601603e-09
4.458048e-09
4.459354e-09
4.461745e-09
4.496694e-09
4.547334e-09
5.177761e-09
5.235304e-09
5.182645e-09
4.972831e-09
4.536724e-09
4.535308e-09
4.535199e-09
4.539221e-09
6.060225e-09
4.554952e-09
4.553631e-09
4.488628e-09
5.755744e-09
4.449307e-09
4.450674e-09
4.453276e-09
4.495022e-09
4.534014e-09
5.187756e-09
5.245952e-09
5.183119e-09
5.202753e-09
4.530067e-09
4.528419e-09
4.528651e-09
4.604407e-09
5.171271e-09
4.547946e-09
4.548191e-09
4.518856e-09
5.737595e-09
4.435491e-09
4.441472e-09
4.444238e-09
4.765711e-09
4.512456e-09
5.197958e-09
5.256939e-09
5.191681e-09
5.211489e-09
4.522474e-09
4.521065e-09
4.521623e-09
4.61352e-09
4.626237e-09
4.541349e-09
4.542557e-09
4.623067e-09
4.572826e-09
4.144339e-09
4.446327e-09
4.434693e-09
5.061469e-09
4.719023e-09
5.189236e-09
5.268173e-09
5.199778e-09
4.99275e-09
4.520472e-09
4.513095e-09
4.514149e-09
4.666749e-09
4.619542e-09
4.534679e-09
4.538412e-09
5.973887e-09
4.467903e-09
4.158823e-09
4.435855e-09
4.423906e-09
5.080867e-09
5.074782e-09
5.183903e-09
5.279262e-09
4.806286e-09
4.558899e-09
4.544163e-09
4.504411e-09
4.507979e-09
6.144837e-09
4.530655e-09
4.527754e-09
4.597201e-09
5.693143e-09
4.459681e-09
4.166334e-09
4.424113e-09
4.412009e-09
5.088932e-09
5.082501e-09
5.193624e-09
5.290544e-09
4.555505e-09
4.565452e-09
4.536091e-09
4.495023e-09
4.501879e-09
6.163922e-09
4.519808e-09
4.520314e-09
4.680578e-09
4.539357e-09
4.453022e-09
4.997809e-09
4.418721e-09
4.394194e-09
5.092324e-09
5.083516e-09
5.197963e-09
5.299491e-09
4.546387e-09
4.557631e-09
4.526512e-09
4.485616e-09
4.585246e-09
4.663716e-09
4.509383e-09
4.517253e-09
6.105206e-09
4.453856e-09
4.447531e-09
5.377403e-09
4.720566e-09
4.372545e-09
5.08825e-09
5.081882e-09
5.201607e-09
5.308451e-09