/*--------------------------------*- C++ -*----------------------------------*\
| =========                 |                                                 |
| \\      /  F ield         | OpenFOAM: The Open Source CFD Toolbox           |
|  \\    /   O peration     | Version:  v1906                                 |
|   \\  /    A nd           | Web:      www.OpenFOAM.com                      |
|    \\/     M anipulation  |                                                 |
\*---------------------------------------------------------------------------*/
FoamFile
{
    version     2.0;
    format      ascii;
    class       volScalarField;
    location    "200";
    object      alpha_a;
}
// * * * * * * * * * * * * * * * * * * * * * * * * * * * * * * * * * * * * * //

dimensions      [0 0 0 0 0 0 0];


internalField   nonuniform List<scalar> 
150
(
0.593607
0.593478
0.593346
0.593207
0.593062
0.59291
0.592751
0.592584
0.592408
0.592221
0.592023
0.591812
0.591587
0.591344
0.591082
0.590797
0.590484
0.590136
0.589747
0.589302
0.588784
0.588165
0.587385
0.586276
0.584346
0.445936
0.0211771
0.000757021
2.15915e-06
4.20537e-09
6.4412e-11
3.72135e-11
1.71746e-11
8.1944e-11
3.78341e-09
6.16429e-08
2.2134e-07
4.77811e-07
5.34318e-07
5.38892e-07
5.63995e-07
5.65281e-07
5.78946e-07
5.62255e-07
5.64101e-07
3.3669e-07
1.51139e-07
6.78685e-08
3.04866e-08
1.36968e-08
6.15402e-09
2.76511e-09
1.24243e-09
5.58256e-10
2.5084e-10
1.1271e-10
5.06436e-11
2.27557e-11
1.02248e-11
4.5943e-12
2.06436e-12
9.27569e-13
4.16795e-13
1.87285e-13
8.41434e-14
3.78124e-14
1.69758e-14
7.6299e-15
3.43192e-15
1.53211e-15
7.0477e-16
3.06422e-16
1.53211e-16
6.12843e-17
3.06422e-17
5.01498e-24
3.84488e-31
1.77105e-38
5.73934e-46
1.32995e-53
2.38992e-61
3.26311e-69
3.61712e-77
3.15827e-85
2.30599e-93
1.36107e-101
6.83004e-110
2.7975e-118
9.76544e-127
2.79326e-135
6.85173e-144
1.39008e-152
2.44215e-161
3.58711e-170
4.58571e-179
4.90005e-188
4.53039e-197
3.48618e-206
2.32008e-215
1.28937e-224
6.23559e-234
2.53802e-243
9.02641e-253
2.69853e-262
7.00476e-272
1.51879e-281
2.85113e-291
4.46992e-301
6.85726e-311
0
0
0
0
0
0
0
0
0
0
0
0
0
0
0
0
0
0
0
0
0
0
0
0
0
0
0
0
0
0
0
0
0
0
0
0
0
0
0
0
0
)
;

boundaryField
{
    inlet
    {
        type            cyclic;
    }
    outlet
    {
        type            cyclic;
    }
    top
    {
        type            zeroGradient;
    }
    bottom
    {
        type            zeroGradient;
    }
    frontAndBackPlanes
    {
        type            empty;
    }
}


// ************************************************************************* //
