/*--------------------------------*- C++ -*----------------------------------*\
| =========                 |                                                 |
| \\      /  F ield         | OpenFOAM: The Open Source CFD Toolbox           |
|  \\    /   O peration     | Version:  v1906                                 |
|   \\  /    A nd           | Web:      www.OpenFOAM.com                      |
|    \\/     M anipulation  |                                                 |
\*---------------------------------------------------------------------------*/
FoamFile
{
    version     2.0;
    format      ascii;
    class       volScalarField;
    location    "200";
    object      nuEffb;
}
// * * * * * * * * * * * * * * * * * * * * * * * * * * * * * * * * * * * * * //

dimensions      [0 2 -1 0 0 0 0];


internalField   nonuniform List<scalar> 
150
(
0.0081377
0.00809505
0.00805145
0.00800634
0.0079598
0.00791159
0.0078616
0.00780966
0.00775558
0.00769914
0.00764008
0.00757809
0.00751281
0.00744378
0.00737045
0.00729212
0.0072079
0.00711661
0.00701666
0.00690578
0.00678065
0.00663635
0.00646241
0.00622907
0.00585796
0.000827369
9.93786e-05
9.24638e-05
9.22197e-05
9.2219e-05
9.2219e-05
9.2219e-05
9.2219e-05
9.2219e-05
9.2219e-05
9.2219e-05
9.22191e-05
9.22192e-05
9.22192e-05
9.22192e-05
9.22192e-05
9.22192e-05
9.22192e-05
9.22192e-05
9.22192e-05
9.22191e-05
9.22191e-05
9.2219e-05
9.2219e-05
9.2219e-05
9.2219e-05
9.2219e-05
9.2219e-05
9.2219e-05
9.2219e-05
9.2219e-05
9.2219e-05
9.2219e-05
9.2219e-05
9.2219e-05
9.2219e-05
9.2219e-05
9.2219e-05
9.2219e-05
9.2219e-05
9.2219e-05
9.2219e-05
9.2219e-05
9.2219e-05
9.2219e-05
9.2219e-05
9.2219e-05
9.2219e-05
9.2219e-05
9.2219e-05
9.2219e-05
9.2219e-05
9.2219e-05
9.2219e-05
9.2219e-05
9.2219e-05
9.2219e-05
9.2219e-05
9.2219e-05
9.2219e-05
9.2219e-05
9.2219e-05
9.2219e-05
9.2219e-05
9.2219e-05
9.2219e-05
9.2219e-05
9.2219e-05
9.2219e-05
9.2219e-05
9.2219e-05
9.2219e-05
9.2219e-05
9.2219e-05
9.2219e-05
9.2219e-05
9.2219e-05
9.2219e-05
9.2219e-05
9.2219e-05
9.2219e-05
9.2219e-05
9.2219e-05
9.2219e-05
9.2219e-05
9.2219e-05
9.2219e-05
9.2219e-05
9.2219e-05
9.2219e-05
9.2219e-05
9.2219e-05
9.2219e-05
9.2219e-05
9.2219e-05
9.2219e-05
9.2219e-05
9.2219e-05
9.2219e-05
9.2219e-05
9.2219e-05
9.2219e-05
9.2219e-05
9.2219e-05
9.2219e-05
9.2219e-05
9.2219e-05
9.2219e-05
9.2219e-05
9.2219e-05
9.2219e-05
9.2219e-05
9.2219e-05
9.2219e-05
9.2219e-05
9.2219e-05
9.2219e-05
9.2219e-05
9.2219e-05
9.2219e-05
9.2219e-05
9.2219e-05
9.2219e-05
9.2219e-05
9.2219e-05
)
;

boundaryField
{
    inlet
    {
        type            cyclic;
    }
    outlet
    {
        type            cyclic;
    }
    top
    {
        type            calculated;
        value           uniform 9.2219e-05;
    }
    bottom
    {
        type            calculated;
        value           uniform 0.0081377;
    }
    frontAndBackPlanes
    {
        type            empty;
    }
}


// ************************************************************************* //
