/*--------------------------------*- C++ -*----------------------------------*\
| =========                 |                                                 |
| \\      /  F ield         | OpenFOAM: The Open Source CFD Toolbox           |
|  \\    /   O peration     | Version:  v1906                                 |
|   \\  /    A nd           | Web:      www.OpenFOAM.com                      |
|    \\/     M anipulation  |                                                 |
\*---------------------------------------------------------------------------*/
FoamFile
{
    version     2.0;
    format      ascii;
    class       volScalarField;
    location    "200";
    object      nuFra;
}
// * * * * * * * * * * * * * * * * * * * * * * * * * * * * * * * * * * * * * //

dimensions      [0 2 -1 0 0 0 0];


internalField   nonuniform List<scalar> 
150
(
1
1
1
1
1
1
1
1
1
1
1
1
1
1
1
1
1
1
1
1
1
1
1
1
1
0.133199
6.88993e-09
4.56858e-12
1.72236e-13
1.46766e-16
1.05998e-12
8.32069e-13
2.49748e-12
1.27004e-12
4.75279e-12
5.04207e-13
7.59277e-14
2.8863e-14
3.53161e-14
3.75075e-14
3.19979e-14
2.38108e-14
1.01189e-14
2.18364e-15
1.00472e-16
5.67462e-20
1.52218e-23
1.75442e-27
1.76518e-31
1.92207e-33
3.88486e-35
7.50628e-37
1.30271e-38
2.31669e-40
4.76202e-42
1.35673e-43
6.68766e-45
4.77839e-46
3.78566e-47
3.06076e-48
2.56606e-49
2.31232e-50
2.18267e-51
2.03921e-52
1.79043e-53
1.48766e-54
1.18599e-55
9.35305e-57
7.5274e-58
6.26739e-59
5.92887e-60
4.72824e-61
5.46614e-62
3.09885e-63
3.31561e-64
3.06875e-71
1.58302e-78
5.38224e-86
1.36777e-93
2.58642e-101
3.90712e-109
4.58446e-117
4.4436e-125
3.44105e-133
2.25367e-141
1.20505e-149
5.52203e-158
2.08022e-166
6.71752e-175
1.78693e-183
4.09457e-192
7.79248e-201
1.28902e-209
1.78894e-218
2.16787e-227
2.20228e-236
1.94114e-245
1.42737e-254
9.09781e-264
4.85121e-273
2.2554e-282
8.83868e-292
3.03196e-301
2.48276e-310
0
0
0
0
0
0
0
0
0
0
0
0
0
0
0
0
0
0
0
0
0
0
0
0
0
0
0
0
0
0
0
0
0
0
0
0
0
0
0
0
0
0
0
0
0
0
)
;

boundaryField
{
    inlet
    {
        type            cyclic;
    }
    outlet
    {
        type            cyclic;
    }
    top
    {
        type            calculated;
        value           uniform 0;
    }
    bottom
    {
        type            calculated;
        value           uniform 1;
    }
    frontAndBackPlanes
    {
        type            empty;
    }
}


// ************************************************************************* //
