/*--------------------------------*- C++ -*----------------------------------*\
| =========                 |                                                 |
| \\      /  F ield         | OpenFOAM: The Open Source CFD Toolbox           |
|  \\    /   O peration     | Version:  v1906                                 |
|   \\  /    A nd           | Web:      www.OpenFOAM.com                      |
|    \\/     M anipulation  |                                                 |
\*---------------------------------------------------------------------------*/
FoamFile
{
    version     2.0;
    format      ascii;
    class       volScalarField;
    location    "200";
    object      p_p_total;
}
// * * * * * * * * * * * * * * * * * * * * * * * * * * * * * * * * * * * * * //

dimensions      [1 -1 -2 0 0 0 0];


internalField   nonuniform List<scalar> 
150
(
42.266
40.5687
38.8717
37.1751
35.479
33.7833
32.088
30.3931
28.6988
27.005
25.3117
23.6191
21.927
20.2356
18.5449
16.8551
15.166
13.4779
11.7909
10.105
8.42038
6.7388
5.06054
3.35808
1.63918
0.0614852
4.04904e-05
1.91554e-07
1.01207e-09
6.15363e-12
1.0469e-12
5.56622e-13
1.57144e-13
7.86849e-14
3.11836e-14
8.66683e-15
1.33921e-15
3.96185e-16
2.44262e-16
1.94858e-16
1.68187e-16
1.24579e-16
5.39626e-17
1.18094e-17
1.16028e-18
9.45511e-22
2.09161e-25
1.39116e-29
9.46052e-34
9.99476e-36
2.10629e-37
4.22386e-39
7.50368e-41
1.34984e-42
2.78902e-44
7.96488e-46
3.93039e-47
2.80969e-48
2.22646e-49
1.8003e-50
1.50939e-51
1.36017e-52
1.28392e-53
1.19953e-54
1.05319e-55
8.75096e-57
6.97643e-58
5.50179e-59
4.42788e-60
3.6867e-61
3.48757e-62
2.78132e-63
3.21538e-64
1.82285e-65
1.95036e-66
1.80514e-73
9.31189e-81
3.16602e-88
8.04569e-96
1.52143e-103
2.29831e-111
2.69674e-119
2.61388e-127
2.02415e-135
1.32569e-143
7.08851e-152
3.24825e-160
1.22366e-168
3.95148e-177
1.05113e-185
2.40857e-194
4.58381e-203
7.58247e-212
1.05232e-220
1.27522e-229
1.29546e-238
1.14185e-247
8.39628e-257
5.35165e-266
2.85365e-275
1.32671e-284
5.19922e-294
1.78351e-303
1.46045e-312
0
0
0
0
0
0
0
0
0
0
0
0
0
0
0
0
0
0
0
0
0
0
0
0
0
0
0
0
0
0
0
0
0
0
0
0
0
0
0
0
0
0
0
0
0
0
)
;

boundaryField
{
    inlet
    {
        type            cyclic;
    }
    outlet
    {
        type            cyclic;
    }
    top
    {
        type            calculated;
        value           uniform 0;
    }
    bottom
    {
        type            calculated;
        value           uniform 42.266;
    }
    frontAndBackPlanes
    {
        type            empty;
    }
}


// ************************************************************************* //
