/*--------------------------------*- C++ -*----------------------------------*\
| =========                 |                                                 |
| \\      /  F ield         | OpenFOAM: The Open Source CFD Toolbox           |
|  \\    /   O peration     | Version:  v1906                                 |
|   \\  /    A nd           | Web:      www.OpenFOAM.com                      |
|    \\/     M anipulation  |                                                 |
\*---------------------------------------------------------------------------*/
FoamFile
{
    version     2.0;
    format      ascii;
    class       volScalarField;
    location    "200";
    object      p_rbgh;
}
// * * * * * * * * * * * * * * * * * * * * * * * * * * * * * * * * * * * * * //

dimensions      [1 -1 -2 0 0 0 0];


internalField   nonuniform List<scalar> 
150
(
-0.00088236
-0.000881683
-0.000880311
-0.000878187
-0.000875251
-0.000871433
-0.000866657
-0.00086084
-0.000853909
-0.000845803
-0.000836498
-0.000826018
-0.000814447
-0.000801945
-0.000788726
-0.000775023
-0.000760984
-0.000746509
-0.000731102
-0.000713672
-0.00069111
-0.000655544
-0.000603718
-0.000564786
-0.000371173
-5.95914e-06
0.000751234
5.73091e-05
-0.000618195
-7.05177e-05
9.05283e-06
6.0164e-06
-6.43499e-07
-6.89377e-07
8.92056e-08
3.28812e-07
4.68146e-07
3.50658e-07
9.65322e-08
3.05318e-08
2.61296e-08
1.98314e-08
5.61355e-09
-3.81353e-08
-2.65691e-07
-4.50975e-07
-3.21698e-07
-1.49684e-07
-6.19189e-08
-2.68947e-08
-1.24608e-08
-5.71175e-09
-2.54395e-09
-1.13139e-09
-5.09311e-10
-2.29951e-10
-1.0336e-10
-4.63479e-11
-2.08187e-11
-9.34776e-12
-4.19294e-12
-1.86274e-12
-8.21241e-13
-3.44336e-13
-1.34022e-13
-3.21351e-14
1.01689e-14
3.46233e-14
4.23191e-14
4.92735e-14
4.91591e-14
5.14237e-14
4.98386e-14
5.07641e-14
4.8914e-14
4.90095e-14
4.69821e-14
4.62472e-14
4.39423e-14
4.26885e-14
4.0495e-14
3.91096e-14
3.70872e-14
3.55715e-14
3.36419e-14
3.19586e-14
3.00713e-14
2.83218e-14
2.65939e-14
2.49295e-14
2.33912e-14
2.18181e-14
2.04277e-14
1.89247e-14
1.76551e-14
1.62427e-14
1.51104e-14
1.38329e-14
1.28489e-14
1.17109e-14
1.08537e-14
9.84205e-15
9.09696e-15
8.2011e-15
7.55171e-15
6.77019e-15
6.21713e-15
5.54945e-15
5.08194e-15
4.51863e-15
4.12862e-15
3.65345e-15
3.32195e-15
2.92102e-15
2.64463e-15
2.31405e-15
2.08685e-15
1.81964e-15
1.63685e-15
1.42094e-15
1.26998e-15
1.09365e-15
9.70799e-16
8.2999e-16
7.31737e-16
6.21952e-16
5.45389e-16
4.59928e-16
3.98552e-16
3.3082e-16
2.82042e-16
2.29349e-16
1.91174e-16
1.51069e-16
1.2182e-16
9.11917e-17
6.79684e-17
4.3833e-17
2.52311e-17
6.26357e-18
-8.64844e-18
-2.34749e-17
-3.5427e-17
-4.72413e-17
-5.71875e-17
-6.68446e-17
-7.55383e-17
-8.61927e-17
-9.31225e-17
-7.37247e-17
)
;

boundaryField
{
    inlet
    {
        type            cyclic;
    }
    outlet
    {
        type            cyclic;
    }
    top
    {
        type            fixedValue;
        value           uniform 0;
    }
    bottom
    {
        type            fixedFluxPressure;
        gradient        uniform 0;
        value           uniform -0.00088236;
    }
    frontAndBackPlanes
    {
        type            empty;
    }
}


// ************************************************************************* //
