/*--------------------------------*- C++ -*----------------------------------*\
| =========                 |                                                 |
| \\      /  F ield         | OpenFOAM: The Open Source CFD Toolbox           |
|  \\    /   O peration     | Version:  v1906                                 |
|   \\  /    A nd           | Web:      www.OpenFOAM.com                      |
|    \\/     M anipulation  |                                                 |
\*---------------------------------------------------------------------------*/
FoamFile
{
    version     2.0;
    format      ascii;
    class       surfaceScalarField;
    location    "200";
    object      phia_0;
}
// * * * * * * * * * * * * * * * * * * * * * * * * * * * * * * * * * * * * * //

dimensions      [0 3 -1 0 0 0 0];
oriented        oriented;


internalField   nonuniform List<scalar> 
149
(
1.02244e-19
2.10004e-19
3.253e-19
4.50107e-19
5.86223e-19
7.3506e-19
8.97261e-19
1.07221e-18
1.25744e-18
1.44807e-18
1.63647e-18
1.81244e-18
1.96442e-18
2.08218e-18
2.16172e-18
2.21288e-18
2.27022e-18
2.40715e-18
2.7537e-18
3.52212e-18
5.02531e-18
7.66207e-18
1.22789e-17
1.63522e-17
9.60244e-18
-3.5829e-15
-3.91415e-12
-2.61133e-10
-1.44348e-10
6.99558e-19
1.66164e-20
8.93777e-21
1.54362e-20
5.65516e-19
9.76031e-18
4.50965e-17
1.14109e-16
1.65578e-16
1.7548e-16
1.80346e-16
1.84702e-16
1.87207e-16
1.86762e-16
1.8445e-16
1.47512e-16
7.98214e-17
3.58343e-17
1.60967e-17
7.23195e-18
3.24944e-18
1.46008e-18
6.56088e-19
2.9483e-19
1.32507e-19
5.9565e-20
2.67892e-20
1.20576e-20
5.43769e-21
2.4597e-21
1.12126e-21
5.17199e-22
2.45462e-22
1.21084e-22
6.47724e-23
3.75942e-23
2.50644e-23
1.79925e-23
1.46122e-23
1.19992e-23
1.06354e-23
9.10407e-24
8.1845e-24
7.02739e-24
6.31595e-24
5.43235e-24
4.89164e-24
4.23647e-24
3.81142e-24
3.28695e-24
2.91182e-24
2.48244e-24
2.1674e-24
1.83671e-24
1.58601e-24
1.34424e-24
1.14513e-24
9.64463e-25
7.96926e-25
6.58381e-25
5.18204e-25
4.15868e-25
3.01755e-25
2.31659e-25
1.42401e-25
9.99033e-26
3.14856e-26
6.85589e-27
-4.8178e-26
-6.24821e-26
-1.07305e-25
-1.13325e-25
-1.46575e-25
-1.41966e-25
-1.62764e-25
-1.51755e-25
-1.66234e-25
-1.54389e-25
-1.65547e-25
-1.54059e-25
-1.60881e-25
-1.46835e-25
-1.47855e-25
-1.32581e-25
-1.314e-25
-1.17836e-25
-1.1633e-25
-1.05023e-25
-1.02725e-25
-9.18126e-26
-8.77271e-26
-7.73577e-26
-7.3066e-26
-6.43828e-26
-6.07126e-26
-5.38487e-26
-5.05712e-26
-4.45975e-26
-4.118e-26
-3.59467e-26
-3.29023e-26
-2.87258e-26
-2.63088e-26
-2.31641e-26
-2.12453e-26
-1.87373e-26
-1.70714e-26
-1.50699e-26
-1.377e-26
-1.23178e-26
-1.14077e-26
-1.04239e-26
-9.78139e-27
-9.0553e-27
-8.5133e-27
-7.91199e-27
-7.43584e-27
-6.93881e-27
-6.57849e-27
-6.25796e-27
)
;

boundaryField
{
    inlet
    {
        type            cyclic;
        value           nonuniform List<scalar> 
150
(
-1.8574e-29
-5.55386e-29
-9.10329e-29
-1.26528e-28
-1.62024e-28
-1.91642e-28
-2.21261e-28
-2.50881e-28
-2.80501e-28
-3.10122e-28
-3.33875e-28
-3.45894e-28
-3.57914e-28
-3.69936e-28
-3.81959e-28
-3.82266e-28
-3.70863e-28
-3.59462e-28
-3.4806e-28
-3.36658e-28
-3.25259e-28
-2.67204e-28
-2.09147e-28
-1.98093e-28
-1.87027e-28
-1.67461e-28
-1.62377e-28
-3.78116e-25
-4.04325e-24
-1.7069e-24
4.78318e-26
-1.48807e-27
-1.49453e-27
-1.49056e-27
-1.47907e-27
-1.46104e-27
-1.42439e-27
-1.40457e-27
-1.38664e-27
-1.37508e-27
-1.36458e-27
-1.35473e-27
-1.34493e-27
-1.33544e-27
-1.32552e-27
-1.31473e-27
-1.30345e-27
-1.29139e-27
-1.27959e-27
-1.26633e-27
-1.25356e-27
-1.24047e-27
-1.22742e-27
-1.21435e-27
-1.20128e-27
-1.18824e-27
-1.17525e-27
-1.16231e-27
-1.14943e-27
-1.1366e-27
-1.12382e-27
-1.1111e-27
-1.09842e-27
-1.08578e-27
-1.07317e-27
-1.0606e-27
-1.04806e-27
-1.03553e-27
-1.02303e-27
-1.01053e-27
-9.98049e-28
-9.85573e-28
-9.73102e-28
-9.60634e-28
-9.48167e-28
-9.357e-28
-9.23232e-28
-9.10762e-28
-8.98291e-28
-8.85816e-28
-8.73338e-28
-8.60858e-28
-8.48374e-28
-8.35887e-28
-8.23397e-28
-8.10904e-28
-7.98407e-28
-7.85908e-28
-7.73406e-28
-7.60901e-28
-7.48393e-28
-7.35882e-28
-7.23369e-28
-7.10853e-28
-6.98334e-28
-6.85813e-28
-6.73289e-28
-6.60763e-28
-6.48234e-28
-6.35702e-28
-6.23168e-28
-6.10631e-28
-5.98092e-28
-5.8555e-28
-5.73006e-28
-5.60459e-28
-5.47909e-28
-5.35357e-28
-5.22803e-28
-5.10246e-28
-4.97687e-28
-4.85125e-28
-4.72561e-28
-4.59994e-28
-4.47425e-28
-4.34853e-28
-4.22279e-28
-4.09703e-28
-3.97124e-28
-3.84543e-28
-3.7196e-28
-3.59375e-28
-3.46787e-28
-3.34197e-28
-3.21605e-28
-3.09011e-28
-2.96415e-28
-2.83817e-28
-2.71218e-28
-2.58616e-28
-2.46013e-28
-2.33407e-28
-2.20801e-28
-2.08192e-28
-1.95582e-28
-1.82971e-28
-1.70358e-28
-1.57744e-28
-1.45129e-28
-1.32513e-28
-1.19896e-28
-1.07278e-28
-9.46588e-29
-8.20391e-29
-6.94188e-29
-5.67979e-29
-4.41766e-29
-3.1555e-29
-1.89331e-29
-6.311e-30
)
;
    }
    outlet
    {
        type            cyclic;
        value           nonuniform List<scalar> 
150
(
1.8574e-29
5.55386e-29
9.10329e-29
1.26528e-28
1.62024e-28
1.91642e-28
2.21261e-28
2.50881e-28
2.80501e-28
3.10122e-28
3.33875e-28
3.45894e-28
3.57914e-28
3.69936e-28
3.81959e-28
3.82266e-28
3.70863e-28
3.59462e-28
3.4806e-28
3.36658e-28
3.25259e-28
2.67204e-28
2.09147e-28
1.98093e-28
1.87027e-28
1.67461e-28
1.62377e-28
3.78116e-25
4.04325e-24
1.7069e-24
-4.78318e-26
1.48807e-27
1.49453e-27
1.49056e-27
1.47907e-27
1.46104e-27
1.42439e-27
1.40457e-27
1.38664e-27
1.37508e-27
1.36458e-27
1.35473e-27
1.34493e-27
1.33544e-27
1.32552e-27
1.31473e-27
1.30345e-27
1.29139e-27
1.27959e-27
1.26633e-27
1.25356e-27
1.24047e-27
1.22742e-27
1.21435e-27
1.20128e-27
1.18824e-27
1.17525e-27
1.16231e-27
1.14943e-27
1.1366e-27
1.12382e-27
1.1111e-27
1.09842e-27
1.08578e-27
1.07317e-27
1.0606e-27
1.04806e-27
1.03553e-27
1.02303e-27
1.01053e-27
9.98049e-28
9.85573e-28
9.73102e-28
9.60634e-28
9.48167e-28
9.357e-28
9.23232e-28
9.10762e-28
8.98291e-28
8.85816e-28
8.73338e-28
8.60858e-28
8.48374e-28
8.35887e-28
8.23397e-28
8.10904e-28
7.98407e-28
7.85908e-28
7.73406e-28
7.60901e-28
7.48393e-28
7.35882e-28
7.23369e-28
7.10853e-28
6.98334e-28
6.85813e-28
6.73289e-28
6.60763e-28
6.48234e-28
6.35702e-28
6.23168e-28
6.10631e-28
5.98092e-28
5.8555e-28
5.73006e-28
5.60459e-28
5.47909e-28
5.35357e-28
5.22803e-28
5.10246e-28
4.97687e-28
4.85125e-28
4.72561e-28
4.59994e-28
4.47425e-28
4.34853e-28
4.22279e-28
4.09703e-28
3.97124e-28
3.84543e-28
3.7196e-28
3.59375e-28
3.46787e-28
3.34197e-28
3.21605e-28
3.09011e-28
2.96415e-28
2.83817e-28
2.71218e-28
2.58616e-28
2.46013e-28
2.33407e-28
2.20801e-28
2.08192e-28
1.95582e-28
1.82971e-28
1.70358e-28
1.57744e-28
1.45129e-28
1.32513e-28
1.19896e-28
1.07278e-28
9.46588e-29
8.20391e-29
6.94188e-29
5.67979e-29
4.41766e-29
3.1555e-29
1.89331e-29
6.311e-30
)
;
    }
    top
    {
        type            fixedValue;
        value           uniform 0;
    }
    bottom
    {
        type            fixedValue;
        value           uniform 0;
    }
    frontAndBackPlanes
    {
        type            empty;
        value           nonuniform 0();
    }
}


// ************************************************************************* //
