/*--------------------------------*- C++ -*----------------------------------*\
| =========                 |                                                 |
| \\      /  F ield         | OpenFOAM: The Open Source CFD Toolbox           |
|  \\    /   O peration     | Version:  v1906                                 |
|   \\  /    A nd           | Web:      www.OpenFOAM.com                      |
|    \\/     M anipulation  |                                                 |
\*---------------------------------------------------------------------------*/
FoamFile
{
    version     2.0;
    format      ascii;
    class       surfaceScalarField;
    location    "200";
    object      phib_0;
}
// * * * * * * * * * * * * * * * * * * * * * * * * * * * * * * * * * * * * * //

dimensions      [0 3 -1 0 0 0 0];
oriented        oriented;


internalField   nonuniform List<scalar> 
149
(
-1.49252e-19
-3.06383e-19
-4.74336e-19
-6.55947e-19
-8.53815e-19
-1.06992e-18
-1.30516e-18
-1.55855e-18
-1.82645e-18
-2.10167e-18
-2.37311e-18
-2.62589e-18
-2.84331e-18
-3.01055e-18
-3.12198e-18
-3.19181e-18
-3.26999e-18
-3.46184e-18
-3.95348e-18
-5.04683e-18
-7.18441e-18
-1.09231e-17
-1.74378e-17
-2.3078e-17
-1.02003e-17
1.09181e-15
4.34026e-14
9.92067e-14
1.60805e-16
6.99558e-19
1.66164e-20
8.93777e-21
1.54362e-20
5.65516e-19
9.76031e-18
4.50965e-17
1.14109e-16
1.65578e-16
1.7548e-16
1.80346e-16
1.84702e-16
1.87207e-16
1.86762e-16
1.8445e-16
1.47512e-16
7.98214e-17
3.58343e-17
1.60967e-17
7.23195e-18
3.24944e-18
1.46008e-18
6.56088e-19
2.9483e-19
1.32507e-19
5.9565e-20
2.67892e-20
1.20576e-20
5.43769e-21
2.4597e-21
1.12126e-21
5.17199e-22
2.45462e-22
1.21084e-22
6.47724e-23
3.75942e-23
2.50644e-23
1.79925e-23
1.46122e-23
1.19992e-23
1.06354e-23
9.10407e-24
8.1845e-24
7.02739e-24
6.31595e-24
5.43235e-24
4.89164e-24
4.23647e-24
3.81142e-24
3.28695e-24
2.91182e-24
2.48244e-24
2.1674e-24
1.83671e-24
1.58601e-24
1.34424e-24
1.14513e-24
9.64463e-25
7.96926e-25
6.58381e-25
5.18204e-25
4.15868e-25
3.01755e-25
2.31659e-25
1.42401e-25
9.99033e-26
3.14856e-26
6.85589e-27
-4.8178e-26
-6.24821e-26
-1.07305e-25
-1.13325e-25
-1.46575e-25
-1.41966e-25
-1.62764e-25
-1.51755e-25
-1.66234e-25
-1.54389e-25
-1.65547e-25
-1.54059e-25
-1.60881e-25
-1.46835e-25
-1.47855e-25
-1.32581e-25
-1.314e-25
-1.17836e-25
-1.1633e-25
-1.05023e-25
-1.02725e-25
-9.18126e-26
-8.77271e-26
-7.73577e-26
-7.3066e-26
-6.43828e-26
-6.07126e-26
-5.38487e-26
-5.05712e-26
-4.45975e-26
-4.118e-26
-3.59467e-26
-3.29023e-26
-2.87258e-26
-2.63088e-26
-2.31641e-26
-2.12453e-26
-1.87373e-26
-1.70714e-26
-1.50699e-26
-1.377e-26
-1.23178e-26
-1.14077e-26
-1.04239e-26
-9.78139e-27
-9.0553e-27
-8.5133e-27
-7.91199e-27
-7.43584e-27
-6.93881e-27
-6.57849e-27
-6.25796e-27
)
;

boundaryField
{
    inlet
    {
        type            cyclic;
        value           nonuniform List<scalar> 
150
(
-1.85157e-29
-5.53069e-29
-9.09611e-29
-1.26389e-28
-1.61208e-28
-1.91509e-28
-2.21215e-28
-2.50831e-28
-2.80344e-28
-3.09129e-28
-3.32228e-28
-3.45667e-28
-3.57845e-28
-3.69706e-28
-3.80275e-28
-3.80608e-28
-3.70675e-28
-3.59449e-28
-3.48003e-28
-3.3603e-28
-3.19778e-28
-2.67351e-28
-2.14735e-28
-1.9884e-28
-1.87558e-28
-1.75569e-28
-2.5766e-28
-5.95399e-28
-8.72923e-28
-1.13356e-27
-1.3342e-27
-1.41477e-27
-1.45739e-27
-1.47266e-27
-1.47002e-27
-1.45631e-27
-1.43769e-27
-1.41805e-27
-1.3993e-27
-1.38274e-27
-1.36831e-27
-1.35562e-27
-1.34414e-27
-1.33334e-27
-1.32272e-27
-1.31197e-27
-1.30094e-27
-1.2895e-27
-1.27768e-27
-1.26544e-27
-1.25292e-27
-1.24019e-27
-1.22733e-27
-1.21438e-27
-1.20141e-27
-1.18843e-27
-1.17547e-27
-1.16254e-27
-1.14966e-27
-1.13682e-27
-1.12403e-27
-1.11129e-27
-1.09859e-27
-1.08593e-27
-1.0733e-27
-1.06071e-27
-1.04815e-27
-1.0356e-27
-1.02308e-27
-1.01057e-27
-9.98079e-28
-9.85593e-28
-9.73114e-28
-9.60639e-28
-9.48167e-28
-9.35696e-28
-9.23225e-28
-9.10753e-28
-8.98279e-28
-8.85804e-28
-8.73326e-28
-8.60845e-28
-8.48361e-28
-8.35874e-28
-8.23384e-28
-8.10891e-28
-7.98395e-28
-7.85896e-28
-7.73394e-28
-7.60889e-28
-7.48382e-28
-7.35871e-28
-7.23358e-28
-7.10842e-28
-6.98323e-28
-6.85802e-28
-6.73278e-28
-6.60752e-28
-6.48223e-28
-6.35691e-28
-6.23157e-28
-6.10621e-28
-5.98081e-28
-5.8554e-28
-5.72995e-28
-5.60448e-28
-5.47899e-28
-5.35347e-28
-5.22793e-28
-5.10236e-28
-4.97677e-28
-4.85115e-28
-4.72551e-28
-4.59984e-28
-4.47415e-28
-4.34843e-28
-4.22269e-28
-4.09693e-28
-3.97115e-28
-3.84534e-28
-3.71951e-28
-3.59366e-28
-3.46778e-28
-3.34189e-28
-3.21597e-28
-3.09003e-28
-2.96407e-28
-2.8381e-28
-2.7121e-28
-2.58609e-28
-2.46005e-28
-2.33401e-28
-2.20794e-28
-2.08186e-28
-1.95576e-28
-1.82965e-28
-1.70353e-28
-1.5774e-28
-1.45125e-28
-1.32509e-28
-1.19892e-28
-1.07274e-28
-9.46558e-29
-8.20365e-29
-6.94166e-29
-5.67961e-29
-4.41752e-29
-3.1554e-29
-1.89325e-29
-6.31085e-30
)
;
    }
    outlet
    {
        type            cyclic;
        value           nonuniform List<scalar> 
150
(
1.85157e-29
5.53069e-29
9.09611e-29
1.26389e-28
1.61208e-28
1.91509e-28
2.21215e-28
2.50831e-28
2.80344e-28
3.09129e-28
3.32228e-28
3.45667e-28
3.57845e-28
3.69706e-28
3.80275e-28
3.80608e-28
3.70675e-28
3.59449e-28
3.48003e-28
3.3603e-28
3.19778e-28
2.67351e-28
2.14735e-28
1.9884e-28
1.87558e-28
1.75569e-28
2.5766e-28
5.95399e-28
8.72923e-28
1.13356e-27
1.3342e-27
1.41477e-27
1.45739e-27
1.47266e-27
1.47002e-27
1.45631e-27
1.43769e-27
1.41805e-27
1.3993e-27
1.38274e-27
1.36831e-27
1.35562e-27
1.34414e-27
1.33334e-27
1.32272e-27
1.31197e-27
1.30094e-27
1.2895e-27
1.27768e-27
1.26544e-27
1.25292e-27
1.24019e-27
1.22733e-27
1.21438e-27
1.20141e-27
1.18843e-27
1.17547e-27
1.16254e-27
1.14966e-27
1.13682e-27
1.12403e-27
1.11129e-27
1.09859e-27
1.08593e-27
1.0733e-27
1.06071e-27
1.04815e-27
1.0356e-27
1.02308e-27
1.01057e-27
9.98079e-28
9.85593e-28
9.73114e-28
9.60639e-28
9.48167e-28
9.35696e-28
9.23225e-28
9.10753e-28
8.98279e-28
8.85804e-28
8.73326e-28
8.60845e-28
8.48361e-28
8.35874e-28
8.23384e-28
8.10891e-28
7.98395e-28
7.85896e-28
7.73394e-28
7.60889e-28
7.48382e-28
7.35871e-28
7.23358e-28
7.10842e-28
6.98323e-28
6.85802e-28
6.73278e-28
6.60752e-28
6.48223e-28
6.35691e-28
6.23157e-28
6.10621e-28
5.98081e-28
5.8554e-28
5.72995e-28
5.60448e-28
5.47899e-28
5.35347e-28
5.22793e-28
5.10236e-28
4.97677e-28
4.85115e-28
4.72551e-28
4.59984e-28
4.47415e-28
4.34843e-28
4.22269e-28
4.09693e-28
3.97115e-28
3.84534e-28
3.71951e-28
3.59366e-28
3.46778e-28
3.34189e-28
3.21597e-28
3.09003e-28
2.96407e-28
2.8381e-28
2.7121e-28
2.58609e-28
2.46005e-28
2.33401e-28
2.20794e-28
2.08186e-28
1.95576e-28
1.82965e-28
1.70353e-28
1.5774e-28
1.45125e-28
1.32509e-28
1.19892e-28
1.07274e-28
9.46558e-29
8.20365e-29
6.94166e-29
5.67961e-29
4.41752e-29
3.1554e-29
1.89325e-29
6.31085e-30
)
;
    }
    top
    {
        type            fixedValue;
        value           uniform 0;
    }
    bottom
    {
        type            fixedValue;
        value           uniform 0;
    }
    frontAndBackPlanes
    {
        type            empty;
        value           nonuniform 0();
    }
}


// ************************************************************************* //
