/*--------------------------------*- C++ -*----------------------------------*\
| =========                 |                                                 |
| \\      /  F ield         | OpenFOAM: The Open Source CFD Toolbox           |
|  \\    /   O peration     | Version:  v1906                                 |
|   \\  /    A nd           | Web:      www.OpenFOAM.com                      |
|    \\/     M anipulation  |                                                 |
\*---------------------------------------------------------------------------*/
FoamFile
{
    version     2.0;
    format      ascii;
    class       surfaceScalarField;
    location    "200";
    object      phia;
}
// * * * * * * * * * * * * * * * * * * * * * * * * * * * * * * * * * * * * * //

dimensions      [0 3 -1 0 0 0 0];
oriented        oriented;


internalField   nonuniform List<scalar> 
149
(
1.02733e-19
2.10956e-19
3.26651e-19
4.5173e-19
5.87894e-19
7.3642e-19
8.97784e-19
1.07119e-18
1.25403e-18
1.44138e-18
1.62578e-18
1.79759e-18
1.94628e-18
2.06338e-18
2.14742e-18
2.21162e-18
2.29475e-18
2.47497e-18
2.88726e-18
3.74855e-18
5.37558e-18
8.16807e-18
1.29705e-17
1.72226e-17
1.05687e-17
-3.58053e-15
-3.46967e-12
-2.59816e-10
-1.43375e-10
6.8765e-19
1.6563e-20
8.88825e-21
1.53493e-20
5.62588e-19
9.7207e-18
4.50555e-17
1.14107e-16
1.65578e-16
1.7548e-16
1.80346e-16
1.84702e-16
1.87207e-16
1.86762e-16
1.8445e-16
1.47512e-16
7.98214e-17
3.58343e-17
1.60967e-17
7.23195e-18
3.24943e-18
1.46007e-18
6.56087e-19
2.94829e-19
1.32506e-19
5.9564e-20
2.67884e-20
1.20569e-20
5.4371e-21
2.4592e-21
1.12084e-21
5.16851e-22
2.45177e-22
1.2085e-22
6.45923e-23
3.74529e-23
2.49693e-23
1.79257e-23
1.45846e-23
1.19903e-23
1.0658e-23
9.13592e-24
8.24078e-24
7.08711e-24
6.39653e-24
5.51369e-24
4.99144e-24
4.33463e-24
3.92414e-24
3.39362e-24
3.02814e-24
2.5903e-24
2.28317e-24
1.94434e-24
1.70098e-24
1.45151e-24
1.25787e-24
1.06778e-24
9.02626e-25
7.53931e-25
6.15314e-25
5.04028e-25
3.91589e-25
3.13822e-25
2.255e-25
1.74964e-25
1.05779e-25
7.31364e-26
1.70264e-26
-4.1186e-27
-4.97031e-26
-6.13371e-26
-9.54909e-26
-9.62892e-26
-1.18736e-25
-1.12851e-25
-1.28999e-25
-1.21431e-25
-1.33932e-25
-1.25852e-25
-1.339e-25
-1.22931e-25
-1.25381e-25
-1.12892e-25
-1.13034e-25
-1.01743e-25
-1.01305e-25
-9.17663e-26
-9.03701e-26
-8.09684e-26
-7.77726e-26
-6.87097e-26
-6.51923e-26
-5.75495e-26
-5.44914e-26
-4.84181e-26
-4.56323e-26
-4.03017e-26
-3.73219e-26
-3.26199e-26
-2.99363e-26
-2.61699e-26
-2.40285e-26
-2.11855e-26
-1.94764e-26
-1.72002e-26
-1.57044e-26
-1.38819e-26
-1.27112e-26
-1.13874e-26
-1.05677e-26
-9.67069e-27
-9.09138e-27
-8.42714e-27
-7.93469e-27
-7.38133e-27
-6.94518e-27
-6.48511e-27
-6.1532e-27
-5.85461e-27
)
;

boundaryField
{
    inlet
    {
        type            cyclic;
        value           nonuniform List<scalar> 
150
(
-1.8574e-29
-5.55386e-29
-9.10329e-29
-1.26528e-28
-1.62024e-28
-1.91642e-28
-2.21261e-28
-2.50881e-28
-2.80501e-28
-3.10122e-28
-3.33875e-28
-3.45894e-28
-3.57914e-28
-3.69936e-28
-3.81959e-28
-3.82266e-28
-3.70863e-28
-3.59462e-28
-3.4806e-28
-3.36657e-28
-3.25258e-28
-2.67203e-28
-2.09146e-28
-1.98092e-28
-1.87024e-28
-1.67465e-28
-1.62383e-28
-3.82548e-25
-4.11179e-24
-1.72476e-24
4.6729e-26
-1.47738e-27
-1.48667e-27
-1.48631e-27
-1.47651e-27
-1.46113e-27
-1.42543e-27
-1.4056e-27
-1.38746e-27
-1.37563e-27
-1.36487e-27
-1.35481e-27
-1.34487e-27
-1.3353e-27
-1.32534e-27
-1.31456e-27
-1.30329e-27
-1.29126e-27
-1.2795e-27
-1.26626e-27
-1.25352e-27
-1.24045e-27
-1.22741e-27
-1.21435e-27
-1.20129e-27
-1.18826e-27
-1.17527e-27
-1.16233e-27
-1.14945e-27
-1.13662e-27
-1.12384e-27
-1.11111e-27
-1.09843e-27
-1.08579e-27
-1.07318e-27
-1.06061e-27
-1.04806e-27
-1.03554e-27
-1.02303e-27
-1.01054e-27
-9.98051e-28
-9.85575e-28
-9.73103e-28
-9.60634e-28
-9.48167e-28
-9.357e-28
-9.23232e-28
-9.10762e-28
-8.9829e-28
-8.85815e-28
-8.73337e-28
-8.60857e-28
-8.48373e-28
-8.35886e-28
-8.23396e-28
-8.10903e-28
-7.98406e-28
-7.85907e-28
-7.73405e-28
-7.609e-28
-7.48392e-28
-7.35881e-28
-7.23368e-28
-7.10852e-28
-6.98333e-28
-6.85812e-28
-6.73288e-28
-6.60762e-28
-6.48233e-28
-6.35701e-28
-6.23167e-28
-6.1063e-28
-5.98091e-28
-5.85549e-28
-5.73005e-28
-5.60458e-28
-5.47909e-28
-5.35357e-28
-5.22802e-28
-5.10245e-28
-4.97686e-28
-4.85124e-28
-4.7256e-28
-4.59993e-28
-4.47424e-28
-4.34852e-28
-4.22278e-28
-4.09702e-28
-3.97124e-28
-3.84543e-28
-3.71959e-28
-3.59374e-28
-3.46786e-28
-3.34197e-28
-3.21605e-28
-3.09011e-28
-2.96415e-28
-2.83817e-28
-2.71217e-28
-2.58615e-28
-2.46012e-28
-2.33407e-28
-2.208e-28
-2.08192e-28
-1.95582e-28
-1.82971e-28
-1.70358e-28
-1.57744e-28
-1.45129e-28
-1.32513e-28
-1.19896e-28
-1.07277e-28
-9.46586e-29
-8.20389e-29
-6.94186e-29
-5.67978e-29
-4.41765e-29
-3.15549e-29
-1.89331e-29
-6.31099e-30
)
;
    }
    outlet
    {
        type            cyclic;
        value           nonuniform List<scalar> 
150
(
1.8574e-29
5.55386e-29
9.10329e-29
1.26528e-28
1.62024e-28
1.91642e-28
2.21261e-28
2.50881e-28
2.80501e-28
3.10122e-28
3.33875e-28
3.45894e-28
3.57914e-28
3.69936e-28
3.81959e-28
3.82266e-28
3.70863e-28
3.59462e-28
3.4806e-28
3.36657e-28
3.25258e-28
2.67203e-28
2.09146e-28
1.98092e-28
1.87024e-28
1.67465e-28
1.62383e-28
3.82548e-25
4.11179e-24
1.72476e-24
-4.6729e-26
1.47738e-27
1.48667e-27
1.48631e-27
1.47651e-27
1.46113e-27
1.42543e-27
1.4056e-27
1.38746e-27
1.37563e-27
1.36487e-27
1.35481e-27
1.34487e-27
1.3353e-27
1.32534e-27
1.31456e-27
1.30329e-27
1.29126e-27
1.2795e-27
1.26626e-27
1.25352e-27
1.24045e-27
1.22741e-27
1.21435e-27
1.20129e-27
1.18826e-27
1.17527e-27
1.16233e-27
1.14945e-27
1.13662e-27
1.12384e-27
1.11111e-27
1.09843e-27
1.08579e-27
1.07318e-27
1.06061e-27
1.04806e-27
1.03554e-27
1.02303e-27
1.01054e-27
9.98051e-28
9.85575e-28
9.73103e-28
9.60634e-28
9.48167e-28
9.357e-28
9.23232e-28
9.10762e-28
8.9829e-28
8.85815e-28
8.73337e-28
8.60857e-28
8.48373e-28
8.35886e-28
8.23396e-28
8.10903e-28
7.98406e-28
7.85907e-28
7.73405e-28
7.609e-28
7.48392e-28
7.35881e-28
7.23368e-28
7.10852e-28
6.98333e-28
6.85812e-28
6.73288e-28
6.60762e-28
6.48233e-28
6.35701e-28
6.23167e-28
6.1063e-28
5.98091e-28
5.85549e-28
5.73005e-28
5.60458e-28
5.47909e-28
5.35357e-28
5.22802e-28
5.10245e-28
4.97686e-28
4.85124e-28
4.7256e-28
4.59993e-28
4.47424e-28
4.34852e-28
4.22278e-28
4.09702e-28
3.97124e-28
3.84543e-28
3.71959e-28
3.59374e-28
3.46786e-28
3.34197e-28
3.21605e-28
3.09011e-28
2.96415e-28
2.83817e-28
2.71217e-28
2.58615e-28
2.46012e-28
2.33407e-28
2.208e-28
2.08192e-28
1.95582e-28
1.82971e-28
1.70358e-28
1.57744e-28
1.45129e-28
1.32513e-28
1.19896e-28
1.07277e-28
9.46586e-29
8.20389e-29
6.94186e-29
5.67978e-29
4.41765e-29
3.15549e-29
1.89331e-29
6.31099e-30
)
;
    }
    top
    {
        type            fixedValue;
        value           uniform 0;
    }
    bottom
    {
        type            fixedValue;
        value           uniform 0;
    }
    frontAndBackPlanes
    {
        type            empty;
        value           nonuniform 0();
    }
}


// ************************************************************************* //
