/*--------------------------------*- C++ -*----------------------------------*\
| =========                 |                                                 |
| \\      /  F ield         | OpenFOAM: The Open Source CFD Toolbox           |
|  \\    /   O peration     | Version:  v1906                                 |
|   \\  /    A nd           | Web:      www.OpenFOAM.com                      |
|    \\/     M anipulation  |                                                 |
\*---------------------------------------------------------------------------*/
FoamFile
{
    version     2.0;
    format      ascii;
    class       surfaceScalarField;
    location    "200";
    object      phib;
}
// * * * * * * * * * * * * * * * * * * * * * * * * * * * * * * * * * * * * * //

dimensions      [0 3 -1 0 0 0 0];
oriented        oriented;


internalField   nonuniform List<scalar> 
149
(
-1.49968e-19
-3.07775e-19
-4.7631e-19
-6.58317e-19
-8.56255e-19
-1.07191e-18
-1.30593e-18
-1.55707e-18
-1.8215e-18
-2.09196e-18
-2.35762e-18
-2.60438e-18
-2.81707e-18
-2.98339e-18
-3.10135e-18
-3.19002e-18
-3.30536e-18
-3.55945e-18
-4.14534e-18
-5.37142e-18
-7.68532e-18
-1.16446e-17
-1.84201e-17
-2.43067e-17
-1.12269e-17
1.09109e-15
3.8474e-14
9.8661e-14
1.55087e-16
6.8765e-19
1.6563e-20
8.88825e-21
1.53493e-20
5.62588e-19
9.7207e-18
4.50555e-17
1.14107e-16
1.65578e-16
1.7548e-16
1.80346e-16
1.84702e-16
1.87207e-16
1.86762e-16
1.8445e-16
1.47512e-16
7.98214e-17
3.58343e-17
1.60967e-17
7.23195e-18
3.24943e-18
1.46007e-18
6.56087e-19
2.94829e-19
1.32506e-19
5.9564e-20
2.67884e-20
1.20569e-20
5.4371e-21
2.4592e-21
1.12084e-21
5.16851e-22
2.45177e-22
1.2085e-22
6.45923e-23
3.74529e-23
2.49693e-23
1.79257e-23
1.45846e-23
1.19903e-23
1.0658e-23
9.13592e-24
8.24078e-24
7.08711e-24
6.39653e-24
5.51369e-24
4.99144e-24
4.33463e-24
3.92414e-24
3.39362e-24
3.02814e-24
2.5903e-24
2.28317e-24
1.94434e-24
1.70098e-24
1.45151e-24
1.25787e-24
1.06778e-24
9.02626e-25
7.53931e-25
6.15314e-25
5.04028e-25
3.91589e-25
3.13822e-25
2.255e-25
1.74964e-25
1.05779e-25
7.31364e-26
1.70264e-26
-4.1186e-27
-4.97031e-26
-6.13371e-26
-9.54909e-26
-9.62892e-26
-1.18736e-25
-1.12851e-25
-1.28999e-25
-1.21431e-25
-1.33932e-25
-1.25852e-25
-1.339e-25
-1.22931e-25
-1.25381e-25
-1.12892e-25
-1.13034e-25
-1.01743e-25
-1.01305e-25
-9.17663e-26
-9.03701e-26
-8.09684e-26
-7.77726e-26
-6.87097e-26
-6.51923e-26
-5.75495e-26
-5.44914e-26
-4.84181e-26
-4.56323e-26
-4.03017e-26
-3.73219e-26
-3.26199e-26
-2.99363e-26
-2.61699e-26
-2.40285e-26
-2.11855e-26
-1.94764e-26
-1.72002e-26
-1.57044e-26
-1.38819e-26
-1.27112e-26
-1.13874e-26
-1.05677e-26
-9.67069e-27
-9.09138e-27
-8.42714e-27
-7.93469e-27
-7.38133e-27
-6.94518e-27
-6.48511e-27
-6.1532e-27
-5.85461e-27
)
;

boundaryField
{
    inlet
    {
        type            cyclic;
        value           nonuniform List<scalar> 
150
(
-1.85157e-29
-5.53069e-29
-9.09611e-29
-1.26389e-28
-1.61208e-28
-1.91509e-28
-2.21215e-28
-2.50831e-28
-2.80344e-28
-3.09129e-28
-3.32228e-28
-3.45667e-28
-3.57845e-28
-3.69706e-28
-3.80275e-28
-3.80608e-28
-3.70675e-28
-3.59449e-28
-3.48003e-28
-3.36029e-28
-3.19775e-28
-2.6735e-28
-2.1474e-28
-1.98839e-28
-1.87549e-28
-1.75489e-28
-2.59925e-28
-5.87666e-28
-8.54757e-28
-1.11675e-27
-1.31956e-27
-1.40335e-27
-1.44917e-27
-1.46728e-27
-1.46692e-27
-1.4549e-27
-1.4374e-27
-1.41838e-27
-1.3999e-27
-1.38337e-27
-1.36884e-27
-1.35598e-27
-1.34433e-27
-1.3334e-27
-1.32268e-27
-1.31187e-27
-1.30082e-27
-1.28938e-27
-1.27757e-27
-1.26535e-27
-1.25286e-27
-1.24015e-27
-1.2273e-27
-1.21437e-27
-1.20141e-27
-1.18843e-27
-1.17548e-27
-1.16255e-27
-1.14967e-27
-1.13683e-27
-1.12404e-27
-1.1113e-27
-1.0986e-27
-1.08594e-27
-1.07331e-27
-1.06072e-27
-1.04815e-27
-1.03561e-27
-1.02309e-27
-1.01058e-27
-9.98081e-28
-9.85595e-28
-9.73115e-28
-9.6064e-28
-9.48167e-28
-9.35696e-28
-9.23225e-28
-9.10752e-28
-8.98279e-28
-8.85803e-28
-8.73325e-28
-8.60844e-28
-8.4836e-28
-8.35873e-28
-8.23383e-28
-8.1089e-28
-7.98394e-28
-7.85895e-28
-7.73393e-28
-7.60888e-28
-7.48381e-28
-7.3587e-28
-7.23357e-28
-7.10841e-28
-6.98323e-28
-6.85801e-28
-6.73278e-28
-6.60751e-28
-6.48222e-28
-6.35691e-28
-6.23156e-28
-6.1062e-28
-5.98081e-28
-5.85539e-28
-5.72994e-28
-5.60448e-28
-5.47898e-28
-5.35346e-28
-5.22792e-28
-5.10235e-28
-4.97676e-28
-4.85114e-28
-4.7255e-28
-4.59983e-28
-4.47414e-28
-4.34843e-28
-4.22269e-28
-4.09693e-28
-3.97114e-28
-3.84533e-28
-3.7195e-28
-3.59365e-28
-3.46777e-28
-3.34188e-28
-3.21596e-28
-3.09002e-28
-2.96407e-28
-2.83809e-28
-2.7121e-28
-2.58608e-28
-2.46005e-28
-2.334e-28
-2.20794e-28
-2.08186e-28
-1.95576e-28
-1.82965e-28
-1.70353e-28
-1.57739e-28
-1.45124e-28
-1.32509e-28
-1.19892e-28
-1.07274e-28
-9.46556e-29
-8.20363e-29
-6.94164e-29
-5.6796e-29
-4.41751e-29
-3.15539e-29
-1.89324e-29
-6.31083e-30
)
;
    }
    outlet
    {
        type            cyclic;
        value           nonuniform List<scalar> 
150
(
1.85157e-29
5.53069e-29
9.09611e-29
1.26389e-28
1.61208e-28
1.91509e-28
2.21215e-28
2.50831e-28
2.80344e-28
3.09129e-28
3.32228e-28
3.45667e-28
3.57845e-28
3.69706e-28
3.80275e-28
3.80608e-28
3.70675e-28
3.59449e-28
3.48003e-28
3.36029e-28
3.19775e-28
2.6735e-28
2.1474e-28
1.98839e-28
1.87549e-28
1.75489e-28
2.59925e-28
5.87666e-28
8.54757e-28
1.11675e-27
1.31956e-27
1.40335e-27
1.44917e-27
1.46728e-27
1.46692e-27
1.4549e-27
1.4374e-27
1.41838e-27
1.3999e-27
1.38337e-27
1.36884e-27
1.35598e-27
1.34433e-27
1.3334e-27
1.32268e-27
1.31187e-27
1.30082e-27
1.28938e-27
1.27757e-27
1.26535e-27
1.25286e-27
1.24015e-27
1.2273e-27
1.21437e-27
1.20141e-27
1.18843e-27
1.17548e-27
1.16255e-27
1.14967e-27
1.13683e-27
1.12404e-27
1.1113e-27
1.0986e-27
1.08594e-27
1.07331e-27
1.06072e-27
1.04815e-27
1.03561e-27
1.02309e-27
1.01058e-27
9.98081e-28
9.85595e-28
9.73115e-28
9.6064e-28
9.48167e-28
9.35696e-28
9.23225e-28
9.10752e-28
8.98279e-28
8.85803e-28
8.73325e-28
8.60844e-28
8.4836e-28
8.35873e-28
8.23383e-28
8.1089e-28
7.98394e-28
7.85895e-28
7.73393e-28
7.60888e-28
7.48381e-28
7.3587e-28
7.23357e-28
7.10841e-28
6.98323e-28
6.85801e-28
6.73278e-28
6.60751e-28
6.48222e-28
6.35691e-28
6.23156e-28
6.1062e-28
5.98081e-28
5.85539e-28
5.72994e-28
5.60448e-28
5.47898e-28
5.35346e-28
5.22792e-28
5.10235e-28
4.97676e-28
4.85114e-28
4.7255e-28
4.59983e-28
4.47414e-28
4.34843e-28
4.22269e-28
4.09693e-28
3.97114e-28
3.84533e-28
3.7195e-28
3.59365e-28
3.46777e-28
3.34188e-28
3.21596e-28
3.09002e-28
2.96407e-28
2.83809e-28
2.7121e-28
2.58608e-28
2.46005e-28
2.334e-28
2.20794e-28
2.08186e-28
1.95576e-28
1.82965e-28
1.70353e-28
1.57739e-28
1.45124e-28
1.32509e-28
1.19892e-28
1.07274e-28
9.46556e-29
8.20363e-29
6.94164e-29
5.6796e-29
4.41751e-29
3.15539e-29
1.89324e-29
6.31083e-30
)
;
    }
    top
    {
        type            fixedValue;
        value           uniform 0;
    }
    bottom
    {
        type            fixedValue;
        value           uniform 0;
    }
    frontAndBackPlanes
    {
        type            empty;
        value           nonuniform 0();
    }
}


// ************************************************************************* //
