/*--------------------------------*- C++ -*----------------------------------*\
| =========                 |                                                 |
| \\      /  F ield         | OpenFOAM: The Open Source CFD Toolbox           |
|  \\    /   O peration     | Version:  v1906                                 |
|   \\  /    A nd           | Web:      www.OpenFOAM.com                      |
|    \\/     M anipulation  |                                                 |
\*---------------------------------------------------------------------------*/
FoamFile
{
    version     2.0;
    format      ascii;
    class       volTensorField;
    location    "200";
    object      Taua;
}
// * * * * * * * * * * * * * * * * * * * * * * * * * * * * * * * * * * * * * //

dimensions      [1 -1 -2 0 0 0 0];


internalField   nonuniform List<tensor> 
150
(
(-4.76779e-06 0 0 7.72007e-15 9.53558e-06 0 0 0 -4.76779e-06)
(-4.9988e-06 3.34363e-21 0 7.5478e-15 9.99759e-06 0 0 0 -4.9988e-06)
(-5.35416e-06 0 0 7.39471e-15 1.07083e-05 0 0 0 -5.35416e-06)
(-5.79084e-06 0 0 7.39488e-15 1.15817e-05 0 0 0 -5.79084e-06)
(-6.30348e-06 0 0 6.78273e-15 1.2607e-05 0 0 0 -6.30348e-06)
(-6.87541e-06 0 0 6.17058e-15 1.37508e-05 0 0 0 -6.87541e-06)
(-7.46987e-06 0 0 6.17073e-15 1.49397e-05 0 0 0 -7.46987e-06)
(-8.02776e-06 0 0 6.1708e-15 1.60555e-05 0 0 0 -8.02776e-06)
(-8.46522e-06 0 0 6.17096e-15 1.69304e-05 0 0 0 -8.46522e-06)
(-8.67543e-06 0 0 5.55984e-15 1.73509e-05 0 0 0 -8.67543e-06)
(-8.53987e-06 0 0 3.72625e-15 1.70797e-05 0 0 0 -8.53987e-06)
(-7.95707e-06 0 0 2.50408e-15 1.59141e-05 0 0 0 -7.95707e-06)
(-6.89946e-06 0 0 2.50434e-15 1.37989e-05 0 0 0 -6.89946e-06)
(-5.46857e-06 0 0 2.50459e-15 1.09371e-05 0 0 0 -5.46857e-06)
(-3.85636e-06 0 0 1.28441e-15 7.71273e-06 0 0 0 -3.85636e-06)
(-2.51146e-06 0 0 -1.15578e-15 5.02292e-06 0 0 0 -2.51146e-06)
(-3.91214e-06 0 0 -2.37545e-15 7.82429e-06 0 0 0 -3.91214e-06)
(-1.39026e-05 0 0 -2.37536e-15 2.78053e-05 0 0 0 -1.39026e-05)
(-2.41375e-05 0 0 -2.37544e-15 4.82749e-05 0 0 0 -2.41375e-05)
(1.96422e-05 0 0 -2.37517e-15 -3.92844e-05 0 0 0 1.96422e-05)
(4.40397e-05 5.34981e-20 0 -7.23478e-15 -8.80794e-05 0 0 0 4.40397e-05)
(-0.000699027 0 0 -1.2095e-14 0.00139805 0 0 0 -0.000699027)
(-0.00217282 -8.55969e-19 0 -7.1991e-15 0.00434564 0 0 0 -0.00217282)
(0.00423879 1.71194e-18 0 -2.30444e-15 -0.00847759 0 0 0 0.00423879)
(0.0433566 0 0 -3.19036e-15 -0.0867133 0 0 0 0.0433566)
(0.00630219 7.29695e-18 0 -3.41892e-16 -0.0126044 0 0 0 0.00630219)
(2.91609e-05 0 0 1.11795e-18 -5.83218e-05 0 0 0 2.91609e-05)
(5.73334e-06 0 0 3.26185e-19 -1.14667e-05 0 0 0 5.73334e-06)
(-2.42198e-09 1.67402e-23 0 -9.26315e-23 4.84396e-09 0 0 0 -2.42198e-09)
(-3.27632e-11 0 0 -1.86347e-24 6.55263e-11 0 0 0 -3.27632e-11)
(-1.74313e-13 0 0 3.16461e-26 3.48625e-13 0 0 0 -1.74313e-13)
(-9.87745e-14 0 0 1.1234e-26 1.97549e-13 0 0 0 -9.87745e-14)
(2.51023e-14 0 0 1.66323e-26 -5.02046e-14 0 0 0 2.51023e-14)
(1.36114e-14 0 0 2.34956e-27 -2.72227e-14 0 0 0 1.36114e-14)
(-3.17766e-15 0 0 -6.13372e-27 6.35533e-15 0 0 0 -3.17766e-15)
(-1.57034e-15 -2.42175e-31 0 -1.74036e-27 3.14068e-15 0 0 0 -1.57034e-15)
(-8.58117e-16 0 0 -1.13082e-27 1.71623e-15 0 0 0 -8.58117e-16)
(-1.09617e-15 8.67395e-31 0 -1.97884e-27 2.19233e-15 0 0 0 -1.09617e-15)
(-4.7185e-16 0 0 -2.07754e-27 9.437e-16 0 0 0 -4.7185e-16)
(-9.64908e-17 -1.97352e-30 0 -1.86526e-27 1.92982e-16 0 0 0 -9.64908e-17)
(-7.92209e-17 0 0 -1.70027e-27 1.58442e-16 0 0 0 -7.92209e-17)
(-8.52304e-17 0 0 -1.50372e-27 1.70461e-16 0 0 0 -8.52304e-17)
(-6.13354e-17 -2.01689e-30 0 -1.3859e-27 1.22671e-16 0 0 0 -6.13354e-17)
(2.34455e-16 0 0 -1.27332e-27 -4.6891e-16 0 0 0 2.34455e-16)
(9.89109e-16 0 0 -1.26491e-27 -1.97822e-15 0 0 0 9.89109e-16)
(9.09666e-16 -5.76393e-31 0 -7.66676e-28 -1.81933e-15 0 0 0 9.09666e-16)
(3.26925e-16 0 0 -3.54066e-28 -6.53851e-16 0 0 0 3.26925e-16)
(7.10123e-17 0 0 -1.64332e-28 -1.42025e-16 0 0 0 7.10123e-17)
(1.2027e-17 -6.5239e-33 0 -7.6318e-29 -2.40539e-17 0 0 0 1.2027e-17)
(2.24795e-18 0 0 -3.52608e-29 -4.4959e-18 0 0 0 2.24795e-18)
(4.86757e-19 -3.29228e-34 0 -1.61564e-29 -9.73514e-19 0 0 0 4.86757e-19)
(1.02702e-19 0 0 -7.36093e-30 -2.05405e-19 0 0 0 1.02702e-19)
(2.03373e-20 0 0 -3.33586e-30 -4.06746e-20 0 0 0 2.03373e-20)
(4.01318e-21 -1.8666e-36 0 -1.50591e-30 -8.02637e-21 0 0 0 4.01318e-21)
(8.13524e-22 0 0 -6.77806e-31 -1.62705e-21 0 0 0 8.13524e-22)
(1.66008e-22 0 0 -3.04417e-31 -3.32015e-22 0 0 0 1.66008e-22)
(3.35349e-23 -1.05833e-38 0 -1.36522e-31 -6.70699e-23 0 0 0 3.35349e-23)
(6.74309e-24 0 0 -6.117e-32 -1.34862e-23 0 0 0 6.74309e-24)
(1.3609e-24 0 0 -2.73934e-32 -2.72181e-24 0 0 0 1.3609e-24)
(2.75576e-25 0 0 -1.22645e-32 -5.51152e-25 0 0 0 2.75576e-25)
(5.58187e-26 0 0 -5.49095e-33 -1.11637e-25 0 0 0 5.58187e-26)
(1.13211e-26 0 0 -2.45862e-33 -2.26423e-26 0 0 0 1.13211e-26)
(2.30985e-27 -1.36094e-42 0 -1.10114e-33 -4.61971e-27 0 0 0 2.30985e-27)
(4.77141e-28 0 0 -4.93312e-34 -9.54282e-28 0 0 0 4.77141e-28)
(1.00658e-28 0 0 -2.21042e-34 -2.01316e-28 0 0 0 1.00658e-28)
(2.20183e-29 -3.08668e-44 0 -9.90988e-35 -4.40366e-29 0 0 0 2.20183e-29)
(5.0928e-30 0 0 -4.44006e-35 -1.01856e-29 0 0 0 5.0928e-30)
(1.27994e-30 0 0 -1.99225e-35 -2.55988e-30 0 0 0 1.27994e-30)
(3.57926e-31 -7.00382e-46 0 -8.94866e-36 -7.15853e-31 0 0 0 3.57926e-31)
(1.13119e-31 0 0 -3.99051e-36 -2.26238e-31 0 0 0 1.13119e-31)
(4.15559e-32 -1.43829e-46 0 -1.83406e-36 -8.31119e-32 0 0 0 4.15559e-32)
(1.55932e-32 0 0 -7.96906e-37 -3.11864e-32 0 0 0 1.55932e-32)
(6.8648e-33 0 0 -3.98272e-37 -1.37296e-32 0 0 0 6.8648e-33)
(2.41668e-33 -6.25342e-48 0 -1.59262e-37 -4.83335e-33 0 0 0 2.41668e-33)
(1.05268e-33 0 0 -7.96183e-38 -2.10535e-33 0 0 0 1.05268e-33)
(1.49026e-40 0 0 -1.30298e-44 -2.98053e-40 0 0 0 1.49026e-40)
(9.91022e-48 0 0 -9.99001e-52 -1.98204e-47 0 0 0 9.91022e-48)
(4.08121e-55 0 0 -4.6021e-59 -8.16241e-55 0 0 0 4.08121e-55)
(1.21518e-62 0 0 -1.4916e-66 -2.43036e-62 0 0 0 1.21518e-62)
(2.61441e-70 0 0 -3.45703e-74 -5.22882e-70 0 0 0 2.61441e-70)
(4.28902e-78 0 0 -6.21359e-82 -8.57805e-78 0 0 0 4.28902e-78)
(5.2545e-86 0 0 -8.48573e-90 -1.0509e-85 0 0 0 5.2545e-86)
(5.13511e-94 0 0 -9.40856e-98 -1.02702e-93 0 0 0 5.13511e-94)
(3.91443e-102 0 0 -8.21704e-106 -7.82886e-102 0 0 0 3.91443e-102)
(2.48418e-110 0 0 -6.00107e-114 -4.96837e-110 0 0 0 2.48418e-110)
(1.2937e-118 0 0 -3.5429e-122 -2.58739e-118 0 0 0 1.2937e-118)
(5.81188e-127 0 0 -1.7783e-130 -1.16238e-126 0 0 0 5.81188e-127)
(2.15857e-135 0 0 -7.28543e-139 -4.31715e-135 0 0 0 2.15857e-135)
(6.78327e-144 0 0 -2.54377e-147 -1.35665e-143 0 0 0 6.78327e-144)
(1.73399e-152 0 0 -7.27775e-156 -3.46798e-152 0 0 0 1.73399e-152)
(3.75222e-161 0 0 -1.7856e-164 -7.50444e-161 0 0 0 3.75222e-161)
(6.65089e-170 0 0 -3.62341e-173 -1.33018e-169 0 0 0 6.65089e-170)
(1.00556e-178 0 0 -6.36717e-182 -2.01112e-178 0 0 0 1.00556e-178)
(1.26047e-187 0 0 -9.35431e-191 -2.52093e-187 0 0 0 1.26047e-187)
(1.36243e-196 0 0 -1.1961e-199 -2.72486e-196 0 0 0 1.36243e-196)
(1.24348e-205 0 0 -1.27835e-208 -2.48697e-205 0 0 0 1.24348e-205)
(9.90146e-215 0 0 -1.18216e-217 -1.98029e-214 0 0 0 9.90146e-215)
(6.65278e-224 0 0 -9.09871e-227 -1.33056e-223 0 0 0 6.65278e-224)
(3.85979e-233 0 0 -6.05653e-236 -7.71958e-233 0 0 0 3.85979e-233)
(1.85535e-242 0 0 -3.36656e-245 -3.71069e-242 0 0 0 1.85535e-242)
(7.48251e-252 0 0 -1.62845e-254 -1.4965e-251 0 0 0 7.48251e-252)
(2.37456e-261 0 0 -6.62949e-264 -4.74913e-261 0 0 0 2.37456e-261)
(5.99301e-271 0 0 -2.35824e-273 -1.1986e-270 0 0 0 5.99301e-271)
(1.19568e-280 0 0 -7.05163e-283 -2.39136e-280 0 0 0 1.19568e-280)
(2.06063e-290 0 0 -1.83081e-292 -4.12126e-290 0 0 0 2.06063e-290)
(3.15636e-300 0 0 -3.97041e-302 -6.31272e-300 0 0 0 3.15636e-300)
(4.38835e-310 0 0 -7.45487e-312 -8.77671e-310 0 0 0 4.38835e-310)
(5.02712e-320 0 0 -1.17094e-321 -1.00547e-319 0 0 0 5.02712e-320)
(0 0 0 -0 -0 0 0 0 0)
(-0 0 0 -0 0 0 0 0 -0)
(-0 0 0 -0 0 0 0 0 -0)
(-0 0 0 -0 0 0 0 0 -0)
(-0 0 0 -0 0 0 0 0 -0)
(-0 0 0 -0 0 0 0 0 -0)
(-0 0 0 -0 0 0 0 0 -0)
(-0 0 0 -0 0 0 0 0 -0)
(-0 0 0 -0 0 0 0 0 -0)
(-0 0 0 -0 0 0 0 0 -0)
(-0 0 0 -0 0 0 0 0 -0)
(-0 0 0 -0 0 0 0 0 -0)
(-0 0 0 -0 0 0 0 0 -0)
(-0 0 0 -0 0 0 0 0 -0)
(-0 0 0 -0 0 0 0 0 -0)
(-0 0 0 -0 0 0 0 0 -0)
(-0 0 0 -0 0 0 0 0 -0)
(-0 0 0 -0 0 0 0 0 -0)
(-0 0 0 -0 0 0 0 0 -0)
(-0 0 0 -0 0 0 0 0 -0)
(-0 0 0 -0 0 0 0 0 -0)
(-0 0 0 -0 0 0 0 0 -0)
(-0 0 0 -0 0 0 0 0 -0)
(-0 0 0 -0 0 0 0 0 -0)
(-0 0 0 -0 0 0 0 0 -0)
(-0 0 0 -0 0 0 0 0 -0)
(-0 0 0 -0 0 0 0 0 -0)
(-0 0 0 -0 0 0 0 0 -0)
(-0 0 0 -0 0 0 0 0 -0)
(-0 0 0 -0 0 0 0 0 -0)
(-0 0 0 -0 0 0 0 0 -0)
(-0 0 0 -0 0 0 0 0 -0)
(-0 0 0 -0 0 0 0 0 -0)
(-0 0 0 -0 0 0 0 0 -0)
(-0 0 0 -0 0 0 0 0 -0)
(-0 0 0 -0 0 0 0 0 -0)
(-0 0 0 -0 0 0 0 0 -0)
(-0 0 0 -0 0 0 0 0 -0)
(-0 0 0 -0 0 0 0 0 -0)
(0 0 0 -0 -0 0 0 0 0)
(0 0 0 -0 -0 0 0 0 0)
(-0 0 0 -0 0 0 0 0 -0)
)
;

boundaryField
{
    inlet
    {
        type            cyclic;
    }
    outlet
    {
        type            cyclic;
    }
    top
    {
        type            extrapolatedCalculated;
        value           uniform (-0 0 0 -0 0 0 0 0 -0);
    }
    bottom
    {
        type            extrapolatedCalculated;
        value           uniform (-4.69367e-06 0 0 7.73919e-15 9.38734e-06 0 0 0 -4.69367e-06);
    }
    frontAndBackPlanes
    {
        type            empty;
    }
}


// ************************************************************************* //
