/*--------------------------------*- C++ -*----------------------------------*\
| =========                 |                                                 |
| \\      /  F ield         | OpenFOAM: The Open Source CFD Toolbox           |
|  \\    /   O peration     | Version:  v1906                                 |
|   \\  /    A nd           | Web:      www.OpenFOAM.com                      |
|    \\/     M anipulation  |                                                 |
\*---------------------------------------------------------------------------*/
FoamFile
{
    version     2.0;
    format      ascii;
    class       volTensorField;
    location    "200";
    object      Taub;
}
// * * * * * * * * * * * * * * * * * * * * * * * * * * * * * * * * * * * * * //

dimensions      [1 -1 -2 0 0 0 0];


internalField   nonuniform List<tensor> 
150
(
(9.78632e-09 0 0 1.05895e-17 -1.95726e-08 0 0 0 9.78632e-09)
(1.00238e-08 -4.58175e-24 0 1.03408e-17 -2.00476e-08 0 0 0 1.00238e-08)
(1.06416e-08 0 0 1.00948e-17 -2.12831e-08 0 0 0 1.06416e-08)
(1.14712e-08 0 0 9.92374e-18 -2.29424e-08 0 0 0 1.14712e-08)
(1.23943e-08 0 0 9.14926e-18 -2.47886e-08 0 0 0 1.23943e-08)
(1.34035e-08 0 0 8.38289e-18 -2.6807e-08 0 0 0 1.34035e-08)
(1.44249e-08 0 0 8.23808e-18 -2.88497e-08 0 0 0 1.44249e-08)
(1.53401e-08 0 0 8.16041e-18 -3.06802e-08 0 0 0 1.53401e-08)
(1.59895e-08 0 0 7.99346e-18 -3.19789e-08 0 0 0 1.59895e-08)
(1.61804e-08 0 0 7.06538e-18 -3.23609e-08 0 0 0 1.61804e-08)
(1.5716e-08 0 0 4.93984e-18 -3.14321e-08 0 0 0 1.5716e-08)
(1.44458e-08 0 0 3.43715e-18 -2.88916e-08 0 0 0 1.44458e-08)
(1.23408e-08 0 0 3.1994e-18 -2.46816e-08 0 0 0 1.23408e-08)
(9.64057e-09 0 0 2.95944e-18 -1.92811e-08 0 0 0 9.64057e-09)
(7.18862e-09 0 0 1.42509e-18 -1.43772e-08 0 0 0 7.18862e-09)
(6.56424e-09 0 0 -1.24248e-18 -1.31285e-08 0 0 0 6.56424e-09)
(8.27306e-09 0 0 -2.70896e-18 -1.65461e-08 0 0 0 8.27306e-09)
(1.06715e-08 0 0 -2.86844e-18 -2.1343e-08 0 0 0 1.06715e-08)
(3.18873e-08 0 0 -2.92425e-18 -6.37746e-08 0 0 0 3.18873e-08)
(1.44822e-07 0 0 -3.47257e-18 -2.89643e-07 0 0 0 1.44822e-07)
(2.60402e-07 -1.24228e-22 0 -8.30622e-18 -5.20804e-07 0 0 0 2.60402e-07)
(-4.59016e-07 0 0 -1.24517e-17 9.18033e-07 0 0 0 -4.59016e-07)
(-1.55629e-06 -1.18801e-22 0 -7.92393e-18 3.11258e-06 0 0 0 -1.55629e-06)
(7.2408e-06 1.8371e-21 0 -3.03942e-18 -1.44816e-05 0 0 0 7.2408e-06)
(2.87623e-05 0 0 -2.46602e-18 -5.75246e-05 0 0 0 2.87623e-05)
(-0.000106209 5.22851e-21 0 1.43911e-18 0.000212418 0 0 0 -0.000106209)
(-9.96942e-05 0 0 1.73908e-18 0.000199388 0 0 0 -9.96942e-05)
(-2.98522e-05 0 0 2.38383e-18 5.97044e-05 0 0 0 -2.98522e-05)
(9.94023e-05 -3.36582e-20 0 2.11636e-18 -0.000198805 0 0 0 9.94023e-05)
(5.50906e-05 0 0 1.85921e-18 -0.000110181 0 0 0 5.50906e-05)
(-6.31445e-06 0 0 1.14638e-18 1.26289e-05 0 0 0 -6.31445e-06)
(-4.55824e-06 0 0 5.18427e-19 9.11647e-06 0 0 0 -4.55824e-06)
(3.85957e-07 0 0 2.55728e-19 -7.71913e-07 0 0 0 3.85957e-07)
(4.11516e-07 0 0 7.10348e-20 -8.23033e-07 0 0 0 4.11516e-07)
(-2.56534e-08 0 0 -4.95178e-20 5.13069e-08 0 0 0 -2.56534e-08)
(-1.06567e-07 -1.64346e-23 0 -1.18105e-19 2.13135e-07 0 0 0 -1.06567e-07)
(-1.10849e-07 0 0 -1.46075e-19 2.21698e-07 0 0 0 -1.10849e-07)
(-8.30766e-08 6.57385e-23 0 -1.49973e-19 1.66153e-07 0 0 0 -8.30766e-08)
(-3.18083e-08 0 0 -1.40051e-19 6.36165e-08 0 0 0 -3.18083e-08)
(-6.42827e-09 -1.31477e-22 0 -1.24264e-19 1.28565e-08 0 0 0 -6.42827e-09)
(-5.10424e-09 0 0 -1.09549e-19 1.02085e-08 0 0 0 -5.10424e-09)
(-5.55576e-09 0 0 -9.80205e-20 1.11115e-08 0 0 0 -5.55576e-09)
(-3.99834e-09 -1.31477e-22 0 -9.03442e-20 7.99668e-09 0 0 0 -3.99834e-09)
(1.59505e-08 0 0 -8.66271e-20 -3.1901e-08 0 0 0 1.59505e-08)
(6.73196e-08 0 0 -8.60908e-20 -1.34639e-07 0 0 0 6.73196e-08)
(1.03749e-07 -6.57385e-23 0 -8.74406e-20 -2.07498e-07 0 0 0 1.03749e-07)
(8.3062e-08 0 0 -8.99576e-20 -1.66124e-07 0 0 0 8.3062e-08)
(4.01788e-08 0 0 -9.29792e-20 -8.03575e-08 0 0 0 4.01788e-08)
(1.51488e-08 -8.2173e-24 0 -9.61278e-20 -3.02976e-08 0 0 0 1.51488e-08)
(6.30229e-09 0 0 -9.8856e-20 -1.26046e-08 0 0 0 6.30229e-09)
(3.03728e-09 -2.05433e-24 0 -1.00813e-19 -6.07456e-09 0 0 0 3.03728e-09)
(1.42626e-09 0 0 -1.02224e-19 -2.85253e-09 0 0 0 1.42626e-09)
(6.28567e-10 0 0 -1.03102e-19 -1.25713e-09 0 0 0 6.28567e-10)
(2.76049e-10 -1.28395e-25 0 -1.03585e-19 -5.52098e-10 0 0 0 2.76049e-10)
(1.24539e-10 0 0 -1.03762e-19 -2.49077e-10 0 0 0 1.24539e-10)
(5.65583e-11 0 0 -1.03714e-19 -1.13117e-10 0 0 0 5.65583e-11)
(2.54275e-11 -8.02471e-27 0 -1.03516e-19 -5.0855e-11 0 0 0 2.54275e-11)
(1.13789e-11 0 0 -1.03224e-19 -2.27578e-11 0 0 0 1.13789e-11)
(5.11098e-12 0 0 -1.02878e-19 -1.0222e-11 0 0 0 5.11098e-12)
(2.30331e-12 0 0 -1.02509e-19 -4.60663e-12 0 0 0 2.30331e-12)
(1.03831e-12 0 0 -1.02139e-19 -2.07661e-12 0 0 0 1.03831e-12)
(4.68679e-13 0 0 -1.01783e-19 -9.37357e-13 0 0 0 4.68679e-13)
(2.12811e-13 -1.25386e-28 0 -1.0145e-19 -4.25621e-13 0 0 0 2.12811e-13)
(9.78306e-14 0 0 -1.01146e-19 -1.95661e-13 0 0 0 9.78306e-14)
(4.59367e-14 0 0 -1.00875e-19 -9.18735e-14 0 0 0 4.59367e-14)
(2.23605e-14 -3.13465e-29 0 -1.00639e-19 -4.47209e-14 0 0 0 2.23605e-14)
(1.15201e-14 0 0 -1.00436e-19 -2.30403e-14 0 0 0 1.15201e-14)
(6.44173e-15 0 0 -1.00266e-19 -1.28835e-14 0 0 0 6.44173e-15)
(4.00486e-15 -7.83663e-30 0 -1.00127e-19 -8.00973e-15 0 0 0 4.00486e-15)
(2.83516e-15 0 0 -1.00016e-19 -5.67032e-15 0 0 0 2.83516e-15)
(2.26421e-15 -7.83663e-30 0 -9.99301e-20 -4.52842e-15 0 0 0 2.26421e-15)
(1.9541e-15 0 0 -9.98661e-20 -3.90819e-15 0 0 0 1.9541e-15)
(1.72056e-15 0 0 -9.98209e-20 -3.44111e-15 0 0 0 1.72056e-15)
(1.51426e-15 -3.91831e-30 0 -9.97917e-20 -3.02852e-15 0 0 0 1.51426e-15)
(1.31919e-15 0 0 -9.97756e-20 -2.63837e-15 0 0 0 1.31919e-15)
(1.1411e-15 0 0 -9.97702e-20 -2.2822e-15 0 0 0 1.1411e-15)
(9.89763e-16 0 0 -9.97733e-20 -1.97953e-15 0 0 0 9.89763e-16)
(8.84889e-16 0 0 -9.9783e-20 -1.76978e-15 0 0 0 8.84889e-16)
(8.13037e-16 0 0 -9.97976e-20 -1.62607e-15 0 0 0 8.13037e-16)
(7.54868e-16 0 0 -9.98159e-20 -1.50974e-15 0 0 0 7.54868e-16)
(6.89139e-16 0 0 -9.98368e-20 -1.37828e-15 0 0 0 6.89139e-16)
(6.18345e-16 0 0 -9.98594e-20 -1.23669e-15 0 0 0 6.18345e-16)
(5.45153e-16 0 0 -9.98831e-20 -1.09031e-15 0 0 0 5.45153e-16)
(4.75938e-16 0 0 -9.99073e-20 -9.51876e-16 0 0 0 4.75938e-16)
(4.13674e-16 0 0 -9.99316e-20 -8.27347e-16 0 0 0 4.13674e-16)
(3.64991e-16 0 0 -9.99559e-20 -7.29982e-16 0 0 0 3.64991e-16)
(3.26757e-16 0 0 -9.998e-20 -6.53513e-16 0 0 0 3.26757e-16)
(2.96297e-16 0 0 -1.00004e-19 -5.92594e-16 0 0 0 2.96297e-16)
(2.66734e-16 0 0 -1.00027e-19 -5.33468e-16 0 0 0 2.66734e-16)
(2.38378e-16 0 0 -1.0005e-19 -4.76755e-16 0 0 0 2.38378e-16)
(2.1029e-16 0 0 -1.00072e-19 -4.20581e-16 0 0 0 2.1029e-16)
(1.83727e-16 0 0 -1.00095e-19 -3.67454e-16 0 0 0 1.83727e-16)
(1.58113e-16 0 0 -1.00116e-19 -3.16226e-16 0 0 0 1.58113e-16)
(1.34933e-16 0 0 -1.00138e-19 -2.69865e-16 0 0 0 1.34933e-16)
(1.14088e-16 0 0 -1.00159e-19 -2.28176e-16 0 0 0 1.14088e-16)
(9.74474e-17 0 0 -1.0018e-19 -1.94895e-16 0 0 0 9.74474e-17)
(8.39257e-17 0 0 -1.00201e-19 -1.67851e-16 0 0 0 8.39257e-17)
(7.32799e-17 0 0 -1.00222e-19 -1.4656e-16 0 0 0 7.32799e-17)
(6.38838e-17 0 0 -1.00242e-19 -1.27768e-16 0 0 0 6.38838e-17)
(5.52559e-17 0 0 -1.00263e-19 -1.10512e-16 0 0 0 5.52559e-17)
(4.60788e-17 0 0 -1.00283e-19 -9.21576e-17 0 0 0 4.60788e-17)
(3.5927e-17 0 0 -1.00304e-19 -7.1854e-17 0 0 0 3.5927e-17)
(2.54954e-17 0 0 -1.00324e-19 -5.09907e-17 0 0 0 2.54954e-17)
(1.70145e-17 0 0 -1.00344e-19 -3.40289e-17 0 0 0 1.70145e-17)
(1.12963e-17 0 0 -1.00365e-19 -2.25927e-17 0 0 0 1.12963e-17)
(7.98029e-18 0 0 -1.00385e-19 -1.59606e-17 0 0 0 7.98029e-18)
(5.91039e-18 0 0 -1.00405e-19 -1.18208e-17 0 0 0 5.91039e-18)
(4.31888e-18 0 0 -1.00425e-19 -8.63775e-18 0 0 0 4.31888e-18)
(2.22975e-18 0 0 -1.00445e-19 -4.4595e-18 0 0 0 2.22975e-18)
(-1.15137e-18 0 0 -1.00465e-19 2.30275e-18 0 0 0 -1.15137e-18)
(-5.21592e-18 0 0 -1.00484e-19 1.04318e-17 0 0 0 -5.21592e-18)
(-8.58863e-18 0 0 -1.00504e-19 1.71773e-17 0 0 0 -8.58863e-18)
(-1.03052e-17 0 0 -1.00524e-19 2.06104e-17 0 0 0 -1.03052e-17)
(-1.06628e-17 0 0 -1.00543e-19 2.13256e-17 0 0 0 -1.06628e-17)
(-1.023e-17 0 0 -1.00562e-19 2.04601e-17 0 0 0 -1.023e-17)
(-9.55524e-18 0 0 -1.00581e-19 1.91105e-17 0 0 0 -9.55524e-18)
(-9.13421e-18 0 0 -1.006e-19 1.82684e-17 0 0 0 -9.13421e-18)
(-9.53672e-18 0 0 -1.00619e-19 1.90734e-17 0 0 0 -9.53672e-18)
(-1.04241e-17 0 0 -1.00637e-19 2.08482e-17 0 0 0 -1.04241e-17)
(-1.11748e-17 0 0 -1.00655e-19 2.23497e-17 0 0 0 -1.11748e-17)
(-1.11901e-17 0 0 -1.00673e-19 2.23802e-17 0 0 0 -1.11901e-17)
(-1.06401e-17 0 0 -1.00691e-19 2.12801e-17 0 0 0 -1.06401e-17)
(-9.73946e-18 0 0 -1.00708e-19 1.94789e-17 0 0 0 -9.73946e-18)
(-8.76746e-18 0 0 -1.00725e-19 1.75349e-17 0 0 0 -8.76746e-18)
(-7.91957e-18 0 0 -1.00742e-19 1.58391e-17 0 0 0 -7.91957e-18)
(-7.47697e-18 0 0 -1.00758e-19 1.49539e-17 0 0 0 -7.47697e-18)
(-7.29347e-18 0 0 -1.00774e-19 1.45869e-17 0 0 0 -7.29347e-18)
(-7.14034e-18 0 0 -1.00789e-19 1.42807e-17 0 0 0 -7.14034e-18)
(-6.74358e-18 0 0 -1.00804e-19 1.34872e-17 0 0 0 -6.74358e-18)
(-6.17369e-18 0 0 -1.00818e-19 1.23474e-17 0 0 0 -6.17369e-18)
(-5.49503e-18 0 0 -1.00832e-19 1.09901e-17 0 0 0 -5.49503e-18)
(-4.81802e-18 0 0 -1.00845e-19 9.63604e-18 0 0 0 -4.81802e-18)
(-4.20565e-18 0 0 -1.00858e-19 8.4113e-18 0 0 0 -4.20565e-18)
(-3.76338e-18 0 0 -1.0087e-19 7.52676e-18 0 0 0 -3.76338e-18)
(-3.43758e-18 0 0 -1.00882e-19 6.87517e-18 0 0 0 -3.43758e-18)
(-3.15458e-18 0 0 -1.00893e-19 6.30917e-18 0 0 0 -3.15458e-18)
(-2.81401e-18 0 0 -1.00903e-19 5.62801e-18 0 0 0 -2.81401e-18)
(-2.43994e-18 0 0 -1.00913e-19 4.87988e-18 0 0 0 -2.43994e-18)
(-2.05435e-18 0 0 -1.00922e-19 4.10869e-18 0 0 0 -2.05435e-18)
(-1.69938e-18 0 0 -1.0093e-19 3.39875e-18 0 0 0 -1.69938e-18)
(-1.39933e-18 0 0 -1.00938e-19 2.79865e-18 0 0 0 -1.39933e-18)
(-1.18948e-18 0 0 -1.00945e-19 2.37896e-18 0 0 0 -1.18948e-18)
(-1.0524e-18 0 0 -1.00951e-19 2.10479e-18 0 0 0 -1.0524e-18)
(-9.63817e-19 0 0 -1.00957e-19 1.92763e-18 0 0 0 -9.63817e-19)
(-9.10884e-19 0 0 -1.00961e-19 1.82177e-18 0 0 0 -9.10884e-19)
(-9.40379e-19 0 0 -1.00965e-19 1.88076e-18 0 0 0 -9.40379e-19)
(-7.92468e-19 0 0 -1.00968e-19 1.58494e-18 0 0 0 -7.92468e-19)
(3.81398e-19 0 0 -1.00971e-19 -7.62796e-19 0 0 0 3.81398e-19)
(9.08928e-19 0 0 -1.00972e-19 -1.81786e-18 0 0 0 9.08928e-19)
(-1.27145e-17 0 0 -1.00973e-19 2.54289e-17 0 0 0 -1.27145e-17)
)
;

boundaryField
{
    inlet
    {
        type            cyclic;
    }
    outlet
    {
        type            cyclic;
    }
    top
    {
        type            extrapolatedCalculated;
        value           uniform (-2.58746e-17 0 0 -1.00973e-19 5.17493e-17 0 0 0 -2.58746e-17);
    }
    bottom
    {
        type            extrapolatedCalculated;
        value           uniform (9.74662e-09 0 0 1.0624e-17 -1.94932e-08 0 0 0 9.74662e-09);
    }
    frontAndBackPlanes
    {
        type            empty;
    }
}


// ************************************************************************* //
