/*--------------------------------*- C++ -*----------------------------------*\
| =========                 |                                                 |
| \\      /  F ield         | OpenFOAM: The Open Source CFD Toolbox           |
|  \\    /   O peration     | Version:  v1906                                 |
|   \\  /    A nd           | Web:      www.OpenFOAM.com                      |
|    \\/     M anipulation  |                                                 |
\*---------------------------------------------------------------------------*/
FoamFile
{
    version     2.0;
    format      ascii;
    class       volVectorField;
    location    "200";
    object      Ua;
}
// * * * * * * * * * * * * * * * * * * * * * * * * * * * * * * * * * * * * * //

dimensions      [0 1 -1 0 0 0 0];


internalField   nonuniform List<vector> 
150
(
(3.09567e-22 5.6324e-13 0)
(9.25643e-22 1.7253e-12 0)
(1.51721e-21 2.96266e-12 0)
(2.1088e-21 4.29529e-12 0)
(2.70039e-21 5.74226e-12 0)
(3.19403e-21 7.32096e-12 0)
(3.68769e-21 9.04246e-12 0)
(4.18135e-21 1.09065e-11 0)
(4.67501e-21 1.28958e-11 0)
(5.1687e-21 1.49698e-11 0)
(5.56459e-21 1.706e-11 0)
(5.7649e-21 1.90689e-11 0)
(5.96524e-21 2.08794e-11 0)
(6.16559e-21 2.23807e-11 0)
(6.36598e-21 2.35043e-11 0)
(6.3711e-21 2.42317e-11 0)
(6.18105e-21 2.47098e-11 0)
(5.99103e-21 2.61096e-11 0)
(5.80099e-21 3.13831e-11 0)
(5.61096e-21 3.76955e-11 0)
(5.42097e-21 2.19548e-11 0)
(4.45339e-21 1.65565e-11 0)
(3.48577e-21 3.57488e-10 0)
(3.30154e-21 1.05951e-09 0)
(3.11706e-21 -1.67713e-09 0)
(2.79108e-21 -1.97517e-08 0)
(2.70638e-21 -2.43877e-08 0)
(6.3758e-18 -0.000498727 0)
(6.85299e-17 -0.00361352 0)
(1.86126e-20 -7.42069e-08 0)
(2.19926e-20 -5.22549e-08 0)
(2.33891e-20 4.7237e-09 0)
(2.41528e-20 4.72302e-09 0)
(2.44547e-20 -1.00755e-10 0)
(2.44487e-20 -4.2093e-10 0)
(2.42483e-20 2.19912e-10 0)
(2.39566e-20 9.11161e-10 0)
(2.36397e-20 1.60552e-09 0)
(2.33317e-20 1.94962e-09 0)
(2.30562e-20 2.00312e-09 0)
(2.2814e-20 2.02997e-09 0)
(2.25997e-20 2.06693e-09 0)
(2.24056e-20 2.09942e-09 0)
(2.22233e-20 2.11691e-09 0)
(2.20446e-20 1.90004e-09 0)
(2.18646e-20 1.27541e-09 0)
(2.16803e-20 6.03177e-10 0)
(2.14897e-20 2.37138e-10 0)
(2.12929e-20 1.00943e-10 0)
(2.10892e-20 4.77781e-11 0)
(2.0881e-20 2.21645e-11 0)
(2.06691e-20 9.81208e-12 0)
(2.0455e-20 4.33621e-12 0)
(2.02396e-20 1.955e-12 0)
(2.00234e-20 8.85592e-13 0)
(1.98072e-20 3.98263e-13 0)
(1.95913e-20 1.78614e-13 0)
(1.93759e-20 8.04189e-14 0)
(1.91612e-20 3.63775e-14 0)
(1.89472e-20 1.65317e-14 0)
(1.87341e-20 7.58605e-15 0)
(1.85217e-20 3.55282e-15 0)
(1.831e-20 1.72757e-15 0)
(1.8099e-20 8.92692e-16 0)
(1.78885e-20 5.04684e-16 0)
(1.76786e-20 3.18483e-16 0)
(1.74692e-20 2.25178e-16 0)
(1.72602e-20 1.74481e-16 0)
(1.70514e-20 1.44656e-16 0)
(1.6843e-20 1.2442e-16 0)
(1.66347e-20 1.09217e-16 0)
(1.64266e-20 9.61174e-17 0)
(1.62186e-20 8.47906e-17 0)
(1.60107e-20 7.46105e-17 0)
(1.58028e-20 6.58624e-17 0)
(1.55949e-20 5.81206e-17 0)
(1.53871e-20 5.15986e-17 0)
(1.51792e-20 4.57486e-17 0)
(1.49713e-20 4.05375e-17 0)
(1.47634e-20 3.55856e-17 0)
(1.45554e-20 3.11016e-17 0)
(1.43474e-20 2.69714e-17 0)
(1.41393e-20 2.33723e-17 0)
(1.39312e-20 2.0157e-17 0)
(1.37231e-20 1.74231e-17 0)
(1.35148e-20 1.49861e-17 0)
(1.33066e-20 1.28607e-17 0)
(1.30983e-20 1.09016e-17 0)
(1.28899e-20 9.15699e-18 0)
(1.26815e-20 7.56743e-18 0)
(1.2473e-20 6.17727e-18 0)
(1.22645e-20 4.9388e-18 0)
(1.2056e-20 3.88069e-18 0)
(1.18474e-20 2.96239e-18 0)
(1.16387e-20 2.19403e-18 0)
(1.143e-20 1.53629e-18 0)
(1.12213e-20 9.75936e-19 0)
(1.10125e-20 4.87218e-19 0)
(1.08037e-20 5.9937e-20 0)
(1.05948e-20 -3.1133e-19 0)
(1.03859e-20 -6.30761e-19 0)
(1.0177e-20 -8.87315e-19 0)
(9.96801e-21 -1.07985e-18 0)
(9.75898e-21 -1.20601e-18 0)
(9.54991e-21 -1.29253e-18 0)
(9.34079e-21 -1.34721e-18 0)
(9.13164e-21 -1.39228e-18 0)
(8.92244e-21 -1.42109e-18 0)
(8.7132e-21 -1.44627e-18 0)
(8.50392e-21 -1.44896e-18 0)
(8.2946e-21 -1.43188e-18 0)
(8.08523e-21 -1.38376e-18 0)
(7.87583e-21 -1.32452e-18 0)
(7.66639e-21 -1.25495e-18 0)
(7.4569e-21 -1.19123e-18 0)
(7.24738e-21 -1.12707e-18 0)
(7.03781e-21 -1.07179e-18 0)
(6.82821e-21 -1.0129e-18 0)
(6.61857e-21 -9.52584e-19 0)
(6.40889e-21 -8.82595e-19 0)
(6.19917e-21 -8.12899e-19 0)
(5.98942e-21 -7.42719e-19 0)
(5.77962e-21 -6.79898e-19 0)
(5.5698e-21 -6.20976e-19 0)
(5.35994e-21 -5.70305e-19 0)
(5.15004e-21 -5.21981e-19 0)
(4.94011e-21 -4.76843e-19 0)
(4.73015e-21 -4.30813e-19 0)
(4.52016e-21 -3.87588e-19 0)
(4.31014e-21 -3.46518e-19 0)
(4.10008e-21 -3.10417e-19 0)
(3.89e-21 -2.7783e-19 0)
(3.67989e-21 -2.50192e-19 0)
(3.46976e-21 -2.25259e-19 0)
(3.2596e-21 -2.0315e-19 0)
(3.04942e-21 -1.82289e-19 0)
(2.83921e-21 -1.63718e-19 0)
(2.62899e-21 -1.47114e-19 0)
(2.41874e-21 -1.33218e-19 0)
(2.20848e-21 -1.21435e-19 0)
(1.9982e-21 -1.11976e-19 0)
(1.7879e-21 -1.03943e-19 0)
(1.57759e-21 -9.71077e-20 0)
(1.36727e-21 -9.07885e-20 0)
(1.15694e-21 -8.506e-20 0)
(9.466e-22 -7.94025e-20 0)
(7.36252e-22 -7.33052e-20 0)
(5.25898e-22 -6.94966e-20 0)
(3.15541e-22 -7.80727e-20 0)
(1.05181e-22 -8.08582e-20 0)
)
;

boundaryField
{
    inlet
    {
        type            cyclic;
    }
    outlet
    {
        type            cyclic;
    }
    top
    {
        type            fixedValue;
        value           uniform (0 0 0);
    }
    bottom
    {
        type            fixedValue;
        value           uniform (0 0 0);
    }
    frontAndBackPlanes
    {
        type            empty;
    }
}


// ************************************************************************* //
