/*--------------------------------*- C++ -*----------------------------------*\
| =========                 |                                                 |
| \\      /  F ield         | OpenFOAM: The Open Source CFD Toolbox           |
|  \\    /   O peration     | Version:  v1906                                 |
|   \\  /    A nd           | Web:      www.OpenFOAM.com                      |
|    \\/     M anipulation  |                                                 |
\*---------------------------------------------------------------------------*/
FoamFile
{
    version     2.0;
    format      ascii;
    class       volVectorField;
    location    "200";
    object      Ub;
}
// * * * * * * * * * * * * * * * * * * * * * * * * * * * * * * * * * * * * * //

dimensions      [0 1 -1 0 0 0 0];


internalField   nonuniform List<vector> 
150
(
(3.08595e-22 -8.4933e-13 0)
(9.21781e-22 -2.56183e-12 0)
(1.51602e-21 -4.36057e-12 0)
(2.10648e-21 -6.30842e-12 0)
(2.6868e-21 -8.42063e-12 0)
(3.19182e-21 -1.07193e-11 0)
(3.68691e-21 -1.32179e-11 0)
(4.18052e-21 -1.59129e-11 0)
(4.6724e-21 -1.87755e-11 0)
(5.15215e-21 -2.17436e-11 0)
(5.53713e-21 -2.47164e-11 0)
(5.76111e-21 -2.75558e-11 0)
(5.96409e-21 -3.00998e-11 0)
(6.16177e-21 -3.21921e-11 0)
(6.33791e-21 -3.37531e-11 0)
(6.34346e-21 -3.49416e-11 0)
(6.17792e-21 -3.62889e-11 0)
(5.99082e-21 -3.81724e-11 0)
(5.80005e-21 -4.05063e-11 0)
(5.60048e-21 -5.09417e-11 0)
(5.32958e-21 -9.93674e-11 0)
(4.45584e-21 -1.58597e-10 0)
(3.57899e-21 9.42329e-11 0)
(3.31398e-21 5.14197e-10 0)
(3.12582e-21 -3.14455e-09 0)
(2.92482e-21 -1.31026e-08 0)
(4.33209e-21 2.6393e-07 0)
(9.79444e-21 1.16831e-06 0)
(1.42459e-20 6.36377e-07 0)
(1.86126e-20 -7.42069e-08 0)
(2.19926e-20 -5.22549e-08 0)
(2.33891e-20 4.7237e-09 0)
(2.41528e-20 4.72302e-09 0)
(2.44547e-20 -1.00755e-10 0)
(2.44487e-20 -4.2093e-10 0)
(2.42483e-20 2.19912e-10 0)
(2.39566e-20 9.11161e-10 0)
(2.36397e-20 1.60552e-09 0)
(2.33317e-20 1.94962e-09 0)
(2.30562e-20 2.00312e-09 0)
(2.2814e-20 2.02997e-09 0)
(2.25997e-20 2.06693e-09 0)
(2.24056e-20 2.09942e-09 0)
(2.22233e-20 2.11691e-09 0)
(2.20446e-20 1.90004e-09 0)
(2.18646e-20 1.27541e-09 0)
(2.16803e-20 6.03177e-10 0)
(2.14897e-20 2.37138e-10 0)
(2.12929e-20 1.00943e-10 0)
(2.10892e-20 4.77781e-11 0)
(2.0881e-20 2.21645e-11 0)
(2.06691e-20 9.81208e-12 0)
(2.0455e-20 4.33621e-12 0)
(2.02396e-20 1.955e-12 0)
(2.00234e-20 8.85592e-13 0)
(1.98072e-20 3.98263e-13 0)
(1.95913e-20 1.78614e-13 0)
(1.93759e-20 8.04189e-14 0)
(1.91612e-20 3.63775e-14 0)
(1.89472e-20 1.65317e-14 0)
(1.87341e-20 7.58605e-15 0)
(1.85217e-20 3.55282e-15 0)
(1.831e-20 1.72757e-15 0)
(1.8099e-20 8.92692e-16 0)
(1.78885e-20 5.04684e-16 0)
(1.76786e-20 3.18483e-16 0)
(1.74692e-20 2.25178e-16 0)
(1.72602e-20 1.74481e-16 0)
(1.70514e-20 1.44656e-16 0)
(1.6843e-20 1.2442e-16 0)
(1.66347e-20 1.09217e-16 0)
(1.64266e-20 9.61174e-17 0)
(1.62186e-20 8.47906e-17 0)
(1.60107e-20 7.46105e-17 0)
(1.58028e-20 6.58624e-17 0)
(1.55949e-20 5.81206e-17 0)
(1.53871e-20 5.15986e-17 0)
(1.51792e-20 4.57486e-17 0)
(1.49713e-20 4.05375e-17 0)
(1.47634e-20 3.55856e-17 0)
(1.45554e-20 3.11016e-17 0)
(1.43474e-20 2.69714e-17 0)
(1.41393e-20 2.33723e-17 0)
(1.39312e-20 2.0157e-17 0)
(1.37231e-20 1.74231e-17 0)
(1.35148e-20 1.49861e-17 0)
(1.33066e-20 1.28607e-17 0)
(1.30983e-20 1.09016e-17 0)
(1.28899e-20 9.15699e-18 0)
(1.26815e-20 7.56743e-18 0)
(1.2473e-20 6.17727e-18 0)
(1.22645e-20 4.9388e-18 0)
(1.2056e-20 3.88069e-18 0)
(1.18474e-20 2.96239e-18 0)
(1.16387e-20 2.19403e-18 0)
(1.143e-20 1.53629e-18 0)
(1.12213e-20 9.75936e-19 0)
(1.10125e-20 4.87218e-19 0)
(1.08037e-20 5.9937e-20 0)
(1.05948e-20 -3.1133e-19 0)
(1.03859e-20 -6.30761e-19 0)
(1.0177e-20 -8.87315e-19 0)
(9.96801e-21 -1.07985e-18 0)
(9.75898e-21 -1.20601e-18 0)
(9.54991e-21 -1.29253e-18 0)
(9.34079e-21 -1.34721e-18 0)
(9.13164e-21 -1.39228e-18 0)
(8.92244e-21 -1.42109e-18 0)
(8.7132e-21 -1.44627e-18 0)
(8.50392e-21 -1.44896e-18 0)
(8.2946e-21 -1.43188e-18 0)
(8.08523e-21 -1.38376e-18 0)
(7.87583e-21 -1.32452e-18 0)
(7.66639e-21 -1.25495e-18 0)
(7.4569e-21 -1.19123e-18 0)
(7.24738e-21 -1.12707e-18 0)
(7.03781e-21 -1.07179e-18 0)
(6.82821e-21 -1.0129e-18 0)
(6.61857e-21 -9.52584e-19 0)
(6.40889e-21 -8.82595e-19 0)
(6.19917e-21 -8.12899e-19 0)
(5.98942e-21 -7.42719e-19 0)
(5.77962e-21 -6.79898e-19 0)
(5.5698e-21 -6.20976e-19 0)
(5.35994e-21 -5.70305e-19 0)
(5.15004e-21 -5.21981e-19 0)
(4.94011e-21 -4.76843e-19 0)
(4.73015e-21 -4.30813e-19 0)
(4.52016e-21 -3.87588e-19 0)
(4.31014e-21 -3.46518e-19 0)
(4.10008e-21 -3.10417e-19 0)
(3.89e-21 -2.7783e-19 0)
(3.67989e-21 -2.50192e-19 0)
(3.46976e-21 -2.25259e-19 0)
(3.2596e-21 -2.0315e-19 0)
(3.04942e-21 -1.82289e-19 0)
(2.83921e-21 -1.63718e-19 0)
(2.62899e-21 -1.47114e-19 0)
(2.41874e-21 -1.33218e-19 0)
(2.20848e-21 -1.21435e-19 0)
(1.9982e-21 -1.11976e-19 0)
(1.7879e-21 -1.03943e-19 0)
(1.57759e-21 -9.71077e-20 0)
(1.36727e-21 -9.07885e-20 0)
(1.15694e-21 -8.506e-20 0)
(9.466e-22 -7.94025e-20 0)
(7.36252e-22 -7.33052e-20 0)
(5.25898e-22 -6.94966e-20 0)
(3.15541e-22 -7.80727e-20 0)
(1.05181e-22 -8.08582e-20 0)
)
;

boundaryField
{
    inlet
    {
        type            cyclic;
    }
    outlet
    {
        type            cyclic;
    }
    top
    {
        type            fixedValue;
        value           uniform (0 0 0);
    }
    bottom
    {
        type            fixedValue;
        value           uniform (0 0 0);
    }
    frontAndBackPlanes
    {
        type            empty;
    }
}


// ************************************************************************* //
