/*--------------------------------*- C++ -*----------------------------------*\
| =========                 |                                                 |
| \\      /  F ield         | OpenFOAM: The Open Source CFD Toolbox           |
|  \\    /   O peration     | Version:  v1906                                 |
|   \\  /    A nd           | Web:      www.OpenFOAM.com                      |
|    \\/     M anipulation  |                                                 |
\*---------------------------------------------------------------------------*/
FoamFile
{
    version     2.0;
    format      ascii;
    class       volVectorField;
    location    "200";
    object      Ua_0;
}
// * * * * * * * * * * * * * * * * * * * * * * * * * * * * * * * * * * * * * //

dimensions      [0 1 -1 0 0 0 0];


internalField   nonuniform List<vector> 
150
(
(3.09567e-22 5.60478e-13 0)
(9.25643e-22 1.71719e-12 0)
(1.51721e-21 2.94963e-12 0)
(2.1088e-21 4.27832e-12 0)
(2.70039e-21 5.72319e-12 0)
(3.19403e-21 7.30291e-12 0)
(3.68769e-21 9.03026e-12 0)
(4.18135e-21 1.0907e-11 0)
(4.67501e-21 1.29178e-11 0)
(5.1687e-21 1.50234e-11 0)
(5.56459e-21 1.71549e-11 0)
(5.7649e-21 1.92112e-11 0)
(5.96524e-21 2.10668e-11 0)
(6.16559e-21 2.25959e-11 0)
(6.36598e-21 2.37066e-11 0)
(6.3711e-21 2.43474e-11 0)
(6.18105e-21 2.46226e-11 0)
(5.99103e-21 2.56529e-11 0)
(5.801e-21 3.03347e-11 0)
(5.61096e-21 3.57775e-11 0)
(5.42098e-21 1.88433e-11 0)
(4.45341e-21 1.19049e-11 0)
(3.48579e-21 3.50911e-10 0)
(3.30156e-21 1.05056e-09 0)
(3.11711e-21 -1.68839e-09 0)
(2.79101e-21 -1.97642e-08 0)
(2.70628e-21 -2.44219e-08 0)
(6.30193e-18 -0.000508652 0)
(6.73874e-17 -0.00362893 0)
(1.88926e-20 -8.01754e-08 0)
(2.22367e-20 -5.29708e-08 0)
(2.35794e-20 5.18034e-09 0)
(2.42898e-20 4.80157e-09 0)
(2.45443e-20 -1.35678e-10 0)
(2.45003e-20 -4.30736e-10 0)
(2.42718e-20 2.22684e-10 0)
(2.39616e-20 9.12506e-10 0)
(2.36341e-20 1.60539e-09 0)
(2.33217e-20 1.94949e-09 0)
(2.30456e-20 2.00313e-09 0)
(2.28052e-20 2.02998e-09 0)
(2.25937e-20 2.06693e-09 0)
(2.24023e-20 2.09942e-09 0)
(2.22223e-20 2.11691e-09 0)
(2.20453e-20 1.90004e-09 0)
(2.18662e-20 1.27541e-09 0)
(2.16823e-20 6.03177e-10 0)
(2.14917e-20 2.37138e-10 0)
(2.12946e-20 1.00943e-10 0)
(2.10906e-20 4.77781e-11 0)
(2.0882e-20 2.21645e-11 0)
(2.06698e-20 9.8121e-12 0)
(2.04554e-20 4.33622e-12 0)
(2.02397e-20 1.95501e-12 0)
(2.00234e-20 8.85603e-13 0)
(1.98071e-20 3.98272e-13 0)
(1.95911e-20 1.78622e-13 0)
(1.93757e-20 8.04256e-14 0)
(1.9161e-20 3.63831e-14 0)
(1.8947e-20 1.65364e-14 0)
(1.87338e-20 7.59005e-15 0)
(1.85214e-20 3.55617e-15 0)
(1.83098e-20 1.73035e-15 0)
(1.80988e-20 8.94867e-16 0)
(1.78884e-20 5.06319e-16 0)
(1.76785e-20 3.19608e-16 0)
(1.74691e-20 2.25897e-16 0)
(1.72601e-20 1.74837e-16 0)
(1.70513e-20 1.4474e-16 0)
(1.68429e-20 1.24261e-16 0)
(1.66346e-20 1.08863e-16 0)
(1.64265e-20 9.55698e-17 0)
(1.62186e-20 8.40821e-17 0)
(1.60106e-20 7.37511e-17 0)
(1.58028e-20 6.48873e-17 0)
(1.55949e-20 5.70402e-17 0)
(1.53871e-20 5.04429e-17 0)
(1.51792e-20 4.4532e-17 0)
(1.49713e-20 3.92891e-17 0)
(1.47634e-20 3.4317e-17 0)
(1.45554e-20 2.98294e-17 0)
(1.43474e-20 2.56974e-17 0)
(1.41393e-20 2.21026e-17 0)
(1.39312e-20 1.88894e-17 0)
(1.37231e-20 1.61614e-17 0)
(1.35149e-20 1.37371e-17 0)
(1.33066e-20 1.16398e-17 0)
(1.30983e-20 9.72252e-18 0)
(1.28899e-20 8.02666e-18 0)
(1.26815e-20 6.48589e-18 0)
(1.2473e-20 5.13915e-18 0)
(1.22645e-20 3.93926e-18 0)
(1.2056e-20 2.91343e-18 0)
(1.18474e-20 2.03018e-18 0)
(1.16387e-20 1.30277e-18 0)
(1.143e-20 6.96671e-19 0)
(1.12213e-20 1.8958e-19 0)
(1.10125e-20 -2.46026e-19 0)
(1.08037e-20 -6.2757e-19 0)
(1.05949e-20 -9.57169e-19 0)
(1.0386e-20 -1.2426e-18 0)
(1.0177e-20 -1.46485e-18 0)
(9.96802e-21 -1.62242e-18 0)
(9.75899e-21 -1.70785e-18 0)
(9.54992e-21 -1.75436e-18 0)
(9.34081e-21 -1.76953e-18 0)
(9.13165e-21 -1.78063e-18 0)
(8.92245e-21 -1.7783e-18 0)
(8.71321e-21 -1.77787e-18 0)
(8.50393e-21 -1.75583e-18 0)
(8.29461e-21 -1.71519e-18 0)
(8.08525e-21 -1.64154e-18 0)
(7.87584e-21 -1.55801e-18 0)
(7.6664e-21 -1.46492e-18 0)
(7.45691e-21 -1.3809e-18 0)
(7.24739e-21 -1.29825e-18 0)
(7.03782e-21 -1.22756e-18 0)
(6.82822e-21 -1.15429e-18 0)
(6.61858e-21 -1.08082e-18 0)
(6.4089e-21 -9.97454e-19 0)
(6.19918e-21 -9.15352e-19 0)
(5.98943e-21 -8.33469e-19 0)
(5.77964e-21 -7.60517e-19 0)
(5.56981e-21 -6.92493e-19 0)
(5.35995e-21 -6.3417e-19 0)
(5.15005e-21 -5.78918e-19 0)
(4.94012e-21 -5.27594e-19 0)
(4.73016e-21 -4.75615e-19 0)
(4.52017e-21 -4.26996e-19 0)
(4.31014e-21 -3.80978e-19 0)
(4.10009e-21 -3.4061e-19 0)
(3.89001e-21 -3.04266e-19 0)
(3.6799e-21 -2.73474e-19 0)
(3.46977e-21 -2.45773e-19 0)
(3.25961e-21 -2.21258e-19 0)
(3.04942e-21 -1.98202e-19 0)
(2.83922e-21 -1.77705e-19 0)
(2.62899e-21 -1.5941e-19 0)
(2.41875e-21 -1.44099e-19 0)
(2.20848e-21 -1.31123e-19 0)
(1.9982e-21 -1.20699e-19 0)
(1.78791e-21 -1.11857e-19 0)
(1.5776e-21 -1.04343e-19 0)
(1.36727e-21 -9.74208e-20 0)
(1.15694e-21 -9.11611e-20 0)
(9.46602e-22 -8.50142e-20 0)
(7.36253e-22 -7.8454e-20 0)
(5.25899e-22 -7.43249e-20 0)
(3.15541e-22 -8.34534e-20 0)
(1.05181e-22 -8.65469e-20 0)
)
;

boundaryField
{
    inlet
    {
        type            cyclic;
    }
    outlet
    {
        type            cyclic;
    }
    top
    {
        type            fixedValue;
        value           uniform (0 0 0);
    }
    bottom
    {
        type            fixedValue;
        value           uniform (0 0 0);
    }
    frontAndBackPlanes
    {
        type            empty;
    }
}


// ************************************************************************* //
