/*--------------------------------*- C++ -*----------------------------------*\
| =========                 |                                                 |
| \\      /  F ield         | OpenFOAM: The Open Source CFD Toolbox           |
|  \\    /   O peration     | Version:  v2006                                 |
|   \\  /    A nd           | Website:  www.openfoam.com                      |
|    \\/     M anipulation  |                                                 |
\*---------------------------------------------------------------------------*/
FoamFile
{
    version     2.0;
    format      ascii;
    class       volScalarField;
    location    "1260";
    object      p;
}
// * * * * * * * * * * * * * * * * * * * * * * * * * * * * * * * * * * * * * //

dimensions      [1 -1 -2 0 0 0 0];


internalField   nonuniform List<scalar> 
120
(
1.92146
-2.73867
-7.39918
-12.0601
-16.7214
-21.3831
-26.0452
-30.7077
-35.3706
-40.0339
-44.6977
-49.3618
-54.0265
-58.6915
-63.357
-68.023
-72.6894
-77.3563
-82.0236
-86.6915
-91.3598
-96.0286
-100.698
-105.368
-110.038
-114.709
-119.38
-124.052
-128.725
-133.398
-138.071
-142.746
-147.42
-152.096
-156.772
-161.449
-166.126
-170.804
-175.482
-180.162
-184.841
-189.522
-194.203
-198.885
-203.568
-208.252
-212.936
-217.621
-222.307
-226.994
-231.682
-236.371
-241.06
-245.75
-250.442
-255.134
-259.827
-264.522
-269.217
-273.914
-278.612
-283.311
-288.011
-292.713
-297.415
-302.12
-306.825
-311.533
-316.242
-320.952
-325.665
-330.379
-335.095
-339.813
-344.534
-349.257
-353.984
-358.713
-363.447
-368.185
-372.929
-377.677
-382.428
-387.181
-391.931
-396.834
-401.752
-406.662
-411.569
-416.478
-421.387
-426.308
-431.022
-435.688
-440.347
-445.006
-449.666
-454.326
-458.985
-463.645
-468.305
-472.965
-477.624
-482.284
-486.944
-491.604
-496.263
-500.923
-505.583
-510.243
-514.902
-519.562
-524.222
-528.882
-533.541
-538.201
-542.861
-547.521
-552.18
-556.84
)
;

boundaryField
{
    inlet
    {
        type            cyclic;
    }
    outlet
    {
        type            cyclic;
    }
    top
    {
        type            calculated;
        value           uniform -559.17;
    }
    bottom
    {
        type            calculated;
        value           uniform 4.25133;
    }
    frontAndBackPlanes
    {
        type            empty;
    }
}


// ************************************************************************* //
