/*--------------------------------*- C++ -*----------------------------------*\
| =========                 |                                                 |
| \\      /  F ield         | OpenFOAM: The Open Source CFD Toolbox           |
|  \\    /   O peration     | Version:  v2006                                 |
|   \\  /    A nd           | Website:  www.openfoam.com                      |
|    \\/     M anipulation  |                                                 |
\*---------------------------------------------------------------------------*/
FoamFile
{
    version     2.0;
    format      ascii;
    class       volScalarField;
    location    "1260";
    object      p_p_total;
}
// * * * * * * * * * * * * * * * * * * * * * * * * * * * * * * * * * * * * * //

dimensions      [1 -1 -2 0 0 0 0];


internalField   nonuniform List<scalar> 
120
(
22.2387
21.945
21.6517
21.3587
21.0662
20.7742
20.4825
20.1913
19.9005
19.6101
19.3202
19.0307
18.7417
18.4532
18.1651
17.8775
17.5903
17.3037
17.0175
16.7319
16.4467
16.1621
15.878
15.5944
15.3114
15.0289
14.747
14.4656
14.1848
13.9046
13.6249
13.3459
13.0675
12.7897
12.5125
12.2359
11.9601
11.6848
11.4103
11.1364
10.8633
10.5909
10.3192
10.0482
9.77803
9.50863
9.24001
8.97221
8.70522
8.43908
8.1738
7.90939
7.64587
7.38328
7.12162
6.86093
6.60123
6.34256
6.08495
5.82844
5.57305
5.31882
5.06579
4.81398
4.5634
4.31406
4.06599
3.81917
3.5736
3.32929
3.08625
2.84449
2.60406
2.36498
2.12724
1.89067
1.65464
1.41792
1.17925
0.948101
0.735812
0.54602
0.372737
0.181796
0.00444987
0
0
0
0
0
0
0
0
0
0
0
0
0
0
0
0
0
0
0
0
0
0
0
0
0
0
0
0
0
0
0
0
0
0
0
)
;

boundaryField
{
    inlet
    {
        type            cyclic;
    }
    outlet
    {
        type            cyclic;
    }
    top
    {
        type            calculated;
        value           uniform 0;
    }
    bottom
    {
        type            calculated;
        value           uniform 22.2387;
    }
    frontAndBackPlanes
    {
        type            empty;
    }
}


// ************************************************************************* //
