/*--------------------------------*- C++ -*----------------------------------*\
| =========                 |                                                 |
| \\      /  F ield         | OpenFOAM: The Open Source CFD Toolbox           |
|  \\    /   O peration     | Version:  v2006                                 |
|   \\  /    A nd           | Website:  www.openfoam.com                      |
|    \\/     M anipulation  |                                                 |
\*---------------------------------------------------------------------------*/
FoamFile
{
    version     2.0;
    format      ascii;
    class       surfaceScalarField;
    location    "1260";
    object      phia;
}
// * * * * * * * * * * * * * * * * * * * * * * * * * * * * * * * * * * * * * //

dimensions      [0 3 -1 0 0 0 0];
oriented        oriented;


internalField   nonuniform List<scalar> 
119
(
-9.56649e-16
-1.92628e-15
-2.90919e-15
-3.9057e-15
-4.91613e-15
-5.94084e-15
-6.98018e-15
-8.03453e-15
-9.10427e-15
-1.01898e-14
-1.12916e-14
-1.24101e-14
-1.35458e-14
-1.46991e-14
-1.58706e-14
-1.70608e-14
-1.82702e-14
-1.94995e-14
-2.07493e-14
-2.20201e-14
-2.33126e-14
-2.46275e-14
-2.59655e-14
-2.73273e-14
-2.87136e-14
-3.01253e-14
-3.15632e-14
-3.3028e-14
-3.45208e-14
-3.60425e-14
-3.75942e-14
-3.91768e-14
-4.07917e-14
-4.24401e-14
-4.41233e-14
-4.58428e-14
-4.76001e-14
-4.93969e-14
-5.12349e-14
-5.3116e-14
-5.50422e-14
-5.70156e-14
-5.90382e-14
-6.11125e-14
-6.32407e-14
-6.54254e-14
-6.76693e-14
-6.9975e-14
-7.23458e-14
-7.47849e-14
-7.7296e-14
-7.98832e-14
-8.25514e-14
-8.53058e-14
-8.81526e-14
-9.10989e-14
-9.41525e-14
-9.73222e-14
-1.00618e-13
-1.0405e-13
-1.07629e-13
-1.11368e-13
-1.15277e-13
-1.19371e-13
-1.2366e-13
-1.28161e-13
-1.32888e-13
-1.37865e-13
-1.43119e-13
-1.48691e-13
-1.54641e-13
-1.61052e-13
-1.68043e-13
-1.75772e-13
-1.84454e-13
-1.94374e-13
-2.05915e-13
-2.19558e-13
-2.35992e-13
-2.54421e-13
-2.72453e-13
-2.86653e-13
-2.96168e-13
-3.10779e-13
-1.1436e-12
-1.75405e-12
-2.0474e-12
-2.21003e-12
-2.21385e-12
-2.45648e-12
-3.19483e-12
-3.29692e-11
-8.5146e-12
-1.02803e-10
-8.22395e-11
-8.22834e-11
-8.22718e-11
-8.22758e-11
-8.2277e-11
-8.22767e-11
-8.22766e-11
-8.22766e-11
-8.22766e-11
-8.22766e-11
-8.22766e-11
-8.22766e-11
-8.22766e-11
-8.22766e-11
-8.22766e-11
-8.22766e-11
-8.22766e-11
-8.22766e-11
-8.22766e-11
-8.22766e-11
-8.22766e-11
-8.22766e-11
-8.22766e-11
-8.22565e-11
-8.21697e-11
)
;

boundaryField
{
    inlet
    {
        type            cyclic;
        value           nonuniform List<scalar> 
120
(
-6.89368e-28
-2.06953e-27
-3.45301e-27
-4.81165e-27
-6.17806e-27
-7.55447e-27
-8.94314e-27
-1.02856e-26
-1.1645e-26
-1.30842e-26
-1.45449e-26
-1.60296e-26
-1.76013e-26
-1.92017e-26
-2.08335e-26
-2.2499e-26
-2.42009e-26
-2.59418e-26
-2.77242e-26
-2.95509e-26
-3.14245e-26
-3.33477e-26
-3.53234e-26
-3.73541e-26
-3.96854e-26
-4.20774e-26
-4.45328e-26
-4.69332e-26
-4.94025e-26
-5.19436e-26
-5.43165e-26
-5.6524e-26
-5.88113e-26
-6.11809e-26
-6.36353e-26
-6.61743e-26
-6.90454e-26
-7.2254e-26
-7.53146e-26
-7.87142e-26
-8.1728e-26
-8.50852e-26
-8.83032e-26
-9.16267e-26
-9.50578e-26
-9.88412e-26
-1.02252e-25
-1.05778e-25
-1.09179e-25
-1.13186e-25
-1.17317e-25
-1.21576e-25
-1.25967e-25
-1.30496e-25
-1.35169e-25
-1.40234e-25
-1.45458e-25
-1.5085e-25
-1.56424e-25
-1.61704e-25
-1.67182e-25
-1.72881e-25
-1.78818e-25
-1.85015e-25
-1.91496e-25
-1.97799e-25
-2.04925e-25
-2.12417e-25
-2.20308e-25
-2.28634e-25
-2.37439e-25
-2.46291e-25
-2.55765e-25
-2.65974e-25
-2.77067e-25
-2.89212e-25
-3.02563e-25
-3.17181e-25
-3.32924e-25
-3.493e-25
-3.65334e-25
-3.79568e-25
-3.90253e-25
-3.993e-25
-4.23673e-25
-4.77185e-23
-4.74241e-23
-4.0708e-23
-3.40146e-23
-2.83747e-23
-2.41984e-23
-2.16093e-23
-2.10912e-23
-1.99844e-23
-1.89185e-23
-1.78949e-23
-1.69114e-23
-1.59628e-23
-1.50457e-23
-1.41578e-23
-1.32968e-23
-1.24612e-23
-1.16492e-23
-1.08597e-23
-1.00913e-23
-9.34301e-24
-8.61342e-24
-7.90171e-24
-7.20646e-24
-6.52666e-24
-5.86108e-24
-5.20849e-24
-4.56759e-24
-3.93723e-24
-3.31587e-24
-2.7023e-24
-2.0951e-24
-1.49288e-24
-8.9423e-25
-2.97758e-25
)
;
    }
    outlet
    {
        type            cyclic;
        value           nonuniform List<scalar> 
120
(
6.89368e-28
2.06953e-27
3.45301e-27
4.81165e-27
6.17806e-27
7.55447e-27
8.94314e-27
1.02856e-26
1.1645e-26
1.30842e-26
1.45449e-26
1.60296e-26
1.76013e-26
1.92017e-26
2.08335e-26
2.2499e-26
2.42009e-26
2.59418e-26
2.77242e-26
2.95509e-26
3.14245e-26
3.33477e-26
3.53234e-26
3.73541e-26
3.96854e-26
4.20774e-26
4.45328e-26
4.69332e-26
4.94025e-26
5.19436e-26
5.43165e-26
5.6524e-26
5.88113e-26
6.11809e-26
6.36353e-26
6.61743e-26
6.90454e-26
7.2254e-26
7.53146e-26
7.87142e-26
8.1728e-26
8.50852e-26
8.83032e-26
9.16267e-26
9.50578e-26
9.88412e-26
1.02252e-25
1.05778e-25
1.09179e-25
1.13186e-25
1.17317e-25
1.21576e-25
1.25967e-25
1.30496e-25
1.35169e-25
1.40234e-25
1.45458e-25
1.5085e-25
1.56424e-25
1.61704e-25
1.67182e-25
1.72881e-25
1.78818e-25
1.85015e-25
1.91496e-25
1.97799e-25
2.04925e-25
2.12417e-25
2.20308e-25
2.28634e-25
2.37439e-25
2.46291e-25
2.55765e-25
2.65974e-25
2.77067e-25
2.89212e-25
3.02563e-25
3.17181e-25
3.32924e-25
3.493e-25
3.65334e-25
3.79568e-25
3.90253e-25
3.993e-25
4.23673e-25
4.77185e-23
4.74241e-23
4.0708e-23
3.40146e-23
2.83747e-23
2.41984e-23
2.16093e-23
2.10912e-23
1.99844e-23
1.89185e-23
1.78949e-23
1.69114e-23
1.59628e-23
1.50457e-23
1.41578e-23
1.32968e-23
1.24612e-23
1.16492e-23
1.08597e-23
1.00913e-23
9.34301e-24
8.61342e-24
7.90171e-24
7.20646e-24
6.52666e-24
5.86108e-24
5.20849e-24
4.56759e-24
3.93723e-24
3.31587e-24
2.7023e-24
2.0951e-24
1.49288e-24
8.9423e-25
2.97758e-25
)
;
    }
    top
    {
        type            fixedValue;
        value           uniform 0;
    }
    bottom
    {
        type            fixedValue;
        value           uniform 0;
    }
    frontAndBackPlanes
    {
        type            empty;
        value           nonuniform List<scalar> 0();
    }
}


// ************************************************************************* //
