/*--------------------------------*- C++ -*----------------------------------*\
| =========                 |                                                 |
| \\      /  F ield         | OpenFOAM: The Open Source CFD Toolbox           |
|  \\    /   O peration     | Version:  v2006                                 |
|   \\  /    A nd           | Website:  www.openfoam.com                      |
|    \\/     M anipulation  |                                                 |
\*---------------------------------------------------------------------------*/
FoamFile
{
    version     2.0;
    format      ascii;
    class       surfaceScalarField;
    location    "1260";
    object      phib;
}
// * * * * * * * * * * * * * * * * * * * * * * * * * * * * * * * * * * * * * //

dimensions      [0 3 -1 0 0 0 0];
oriented        oriented;


internalField   nonuniform List<scalar> 
119
(
1.43125e-15
2.88126e-15
4.35045e-15
5.83927e-15
7.34819e-15
8.87769e-15
1.04283e-14
1.20005e-14
1.35949e-14
1.5212e-14
1.68525e-14
1.8517e-14
2.02061e-14
2.19206e-14
2.36612e-14
2.54286e-14
2.72236e-14
2.90471e-14
3.08999e-14
3.27827e-14
3.46967e-14
3.66426e-14
3.86215e-14
4.06344e-14
4.26823e-14
4.47663e-14
4.68875e-14
4.90473e-14
5.12467e-14
5.34872e-14
5.57703e-14
5.80973e-14
6.04701e-14
6.28903e-14
6.53598e-14
6.78806e-14
7.04549e-14
7.3085e-14
7.57732e-14
7.85224e-14
8.1335e-14
8.4214e-14
8.71625e-14
9.01834e-14
9.32802e-14
9.64561e-14
9.97149e-14
1.0306e-13
1.06497e-13
1.10028e-13
1.1366e-13
1.17398e-13
1.21249e-13
1.25219e-13
1.29318e-13
1.33555e-13
1.3794e-13
1.42486e-13
1.47207e-13
1.52116e-13
1.57229e-13
1.6256e-13
1.68128e-13
1.73947e-13
1.80034e-13
1.86408e-13
1.9309e-13
2.00109e-13
2.07502e-13
2.15324e-13
2.23654e-13
2.32608e-13
2.42346e-13
2.53085e-13
2.65116e-13
2.78825e-13
2.94724e-13
3.13441e-13
3.35887e-13
3.60868e-13
3.84931e-13
4.03115e-13
4.13588e-13
4.25526e-13
1.42855e-12
1.95004e-12
2.15013e-12
2.25521e-12
2.24925e-12
2.37518e-12
2.64987e-12
9.10738e-12
1.43319e-14
5.2855e-16
4.7919e-18
4.25977e-18
3.80708e-18
3.80172e-18
3.64419e-18
3.68597e-18
3.51051e-18
3.46677e-18
3.20639e-18
3.13312e-18
2.96549e-18
2.98409e-18
2.84208e-18
2.79934e-18
2.60323e-18
2.4887e-18
2.24364e-18
2.11535e-18
1.94601e-18
1.89531e-18
1.77533e-18
1.72074e-18
1.60101e-18
1.53812e-18
1.41546e-18
)
;

boundaryField
{
    inlet
    {
        type            cyclic;
        value           nonuniform List<scalar> 
120
(
-6.89368e-28
-2.06954e-27
-3.45648e-27
-4.81167e-27
-6.17806e-27
-7.55455e-27
-8.96213e-27
-1.02856e-26
-1.16197e-26
-1.30841e-26
-1.45448e-26
-1.59946e-26
-1.76011e-26
-1.92017e-26
-2.08335e-26
-2.2499e-26
-2.42009e-26
-2.59418e-26
-2.77242e-26
-2.95509e-26
-3.14245e-26
-3.33477e-26
-3.5322e-26
-3.70386e-26
-3.9684e-26
-4.20782e-26
-4.47154e-26
-4.6934e-26
-4.94044e-26
-5.23631e-26
-5.47541e-26
-5.6526e-26
-5.88113e-26
-6.11809e-26
-6.36329e-26
-6.56397e-26
-6.84931e-26
-7.28223e-26
-7.47278e-26
-7.99422e-26
-8.10973e-26
-8.57443e-26
-8.83062e-26
-9.16235e-26
-9.43305e-26
-1.00357e-25
-1.02263e-25
-1.06582e-25
-1.07504e-25
-1.13178e-25
-1.17317e-25
-1.21576e-25
-1.25967e-25
-1.30492e-25
-1.34148e-25
-1.4023e-25
-1.45458e-25
-1.5086e-25
-1.58751e-25
-1.61714e-25
-1.67182e-25
-1.72881e-25
-1.78818e-25
-1.85028e-25
-1.94331e-25
-1.94861e-25
-2.04912e-25
-2.12417e-25
-2.20308e-25
-2.2865e-25
-2.40981e-25
-2.46307e-25
-2.55765e-25
-2.65974e-25
-2.77067e-25
-2.89212e-25
-3.02563e-25
-3.17181e-25
-3.32924e-25
-3.493e-25
-3.65334e-25
-3.79569e-25
-3.90279e-25
-4.0066e-25
-6.72269e-25
-4.78016e-23
-4.74239e-23
-4.07081e-23
-3.40147e-23
-2.83747e-23
-2.41985e-23
-2.16095e-23
-2.10909e-23
-1.99824e-23
-1.8917e-23
-1.7895e-23
-1.69116e-23
-1.59629e-23
-1.50459e-23
-1.41579e-23
-1.3297e-23
-1.24613e-23
-1.16493e-23
-1.08598e-23
-1.00914e-23
-9.34305e-24
-8.61354e-24
-7.90175e-24
-7.20654e-24
-6.52674e-24
-5.86116e-24
-5.20857e-24
-4.5677e-24
-3.93727e-24
-3.31594e-24
-2.70237e-24
-2.09517e-24
-1.49295e-24
-8.94298e-25
-2.97791e-25
)
;
    }
    outlet
    {
        type            cyclic;
        value           nonuniform List<scalar> 
120
(
6.89368e-28
2.06954e-27
3.45648e-27
4.81167e-27
6.17806e-27
7.55455e-27
8.96213e-27
1.02856e-26
1.16197e-26
1.30841e-26
1.45448e-26
1.59946e-26
1.76011e-26
1.92017e-26
2.08335e-26
2.2499e-26
2.42009e-26
2.59418e-26
2.77242e-26
2.95509e-26
3.14245e-26
3.33477e-26
3.5322e-26
3.70386e-26
3.9684e-26
4.20782e-26
4.47154e-26
4.6934e-26
4.94044e-26
5.23631e-26
5.47541e-26
5.6526e-26
5.88113e-26
6.11809e-26
6.36329e-26
6.56397e-26
6.84931e-26
7.28223e-26
7.47278e-26
7.99422e-26
8.10973e-26
8.57443e-26
8.83062e-26
9.16235e-26
9.43305e-26
1.00357e-25
1.02263e-25
1.06582e-25
1.07504e-25
1.13178e-25
1.17317e-25
1.21576e-25
1.25967e-25
1.30492e-25
1.34148e-25
1.4023e-25
1.45458e-25
1.5086e-25
1.58751e-25
1.61714e-25
1.67182e-25
1.72881e-25
1.78818e-25
1.85028e-25
1.94331e-25
1.94861e-25
2.04912e-25
2.12417e-25
2.20308e-25
2.2865e-25
2.40981e-25
2.46307e-25
2.55765e-25
2.65974e-25
2.77067e-25
2.89212e-25
3.02563e-25
3.17181e-25
3.32924e-25
3.493e-25
3.65334e-25
3.79569e-25
3.90279e-25
4.0066e-25
6.72269e-25
4.78016e-23
4.74239e-23
4.07081e-23
3.40147e-23
2.83747e-23
2.41985e-23
2.16095e-23
2.10909e-23
1.99824e-23
1.8917e-23
1.7895e-23
1.69116e-23
1.59629e-23
1.50459e-23
1.41579e-23
1.3297e-23
1.24613e-23
1.16493e-23
1.08598e-23
1.00914e-23
9.34305e-24
8.61354e-24
7.90175e-24
7.20654e-24
6.52674e-24
5.86116e-24
5.20857e-24
4.5677e-24
3.93727e-24
3.31594e-24
2.70237e-24
2.09517e-24
1.49295e-24
8.94298e-25
2.97791e-25
)
;
    }
    top
    {
        type            fixedValue;
        value           uniform 0;
    }
    bottom
    {
        type            fixedValue;
        value           uniform 0;
    }
    frontAndBackPlanes
    {
        type            empty;
        value           nonuniform List<scalar> 0();
    }
}


// ************************************************************************* //
