/*--------------------------------*- C++ -*----------------------------------*\
| =========                 |                                                 |
| \\      /  F ield         | OpenFOAM: The Open Source CFD Toolbox           |
|  \\    /   O peration     | Version:  v2006                                 |
|   \\  /    A nd           | Website:  www.openfoam.com                      |
|    \\/     M anipulation  |                                                 |
\*---------------------------------------------------------------------------*/
FoamFile
{
    version     2.0;
    format      ascii;
    class       volTensorField;
    location    "1260";
    object      Taua;
}
// * * * * * * * * * * * * * * * * * * * * * * * * * * * * * * * * * * * * * //

dimensions      [1 -1 -2 0 0 0 0];


internalField   nonuniform List<tensor> 
120
(
(0.00186218 0 0 9.65615e-15 -0.00372435 0 0 0 0.00186218)
(0.00188339 0 0 9.67275e-15 -0.00376678 0 0 0 0.00188339)
(0.00191102 0 0 9.59744e-15 -0.00382205 0 0 0 0.00191102)
(0.00193781 0 0 9.53769e-15 -0.00387561 0 0 0 0.00193781)
(0.00196476 0 0 9.59987e-15 -0.00392952 0 0 0 0.00196476)
(0.00199248 0 0 9.6778e-15 -0.00398496 0 0 0 0.00199248)
(0.00202094 0 0 9.55908e-15 -0.00404187 0 0 0 0.00202094)
(0.00205012 0 0 9.45639e-15 -0.00410024 0 0 0 0.00205012)
(0.00208006 0 0 9.79492e-15 -0.00416012 0 0 0 0.00208006)
(0.00211081 0 0 1.01498e-14 -0.00422161 0 0 0 0.00211081)
(0.00214239 0 0 1.03089e-14 -0.00428478 0 0 0 0.00214239)
(0.00217485 0 0 1.06972e-14 -0.00434969 0 0 0 0.00217485)
(0.00220822 0 0 1.11025e-14 -0.00441645 0 0 0 0.00220822)
(0.00224256 0 0 1.13128e-14 -0.00448512 0 0 0 0.00224256)
(0.00227789 0 0 1.15405e-14 -0.00455579 0 0 0 0.00227789)
(0.00231427 0 0 1.17861e-14 -0.00462854 0 0 0 0.00231427)
(0.00235173 0 0 1.20496e-14 -0.00470345 0 0 0 0.00235173)
(0.00239031 0 0 1.23315e-14 -0.00478062 0 0 0 0.00239031)
(0.00243006 0 0 1.26319e-14 -0.00486013 0 0 0 0.00243006)
(0.00247103 0 0 1.2951e-14 -0.00494205 0 0 0 0.00247103)
(0.00251325 0 0 1.3289e-14 -0.00502649 0 0 0 0.00251325)
(0.00255677 0 0 1.36461e-14 -0.00511354 0 0 0 0.00255677)
(0.00260164 0 0 1.40224e-14 -0.00520328 0 0 0 0.00260164)
(0.00264792 0 0 1.52672e-14 -0.00529584 0 0 0 0.00264792)
(0.00269566 0 0 1.65314e-14 -0.00539132 0 0 0 0.00269566)
(0.00274493 0 0 1.69659e-14 -0.00548985 0 0 0 0.00274493)
(0.00279579 0 0 1.69953e-14 -0.00559159 0 0 0 0.00279579)
(0.00284834 0 0 1.7044e-14 -0.00569668 0 0 0 0.00284834)
(0.00290267 0 0 1.75364e-14 -0.00580534 0 0 0 0.00290267)
(0.00295888 0 0 1.71989e-14 -0.00591775 0 0 0 0.00295888)
(0.00301709 0 0 1.60316e-14 -0.00603418 0 0 0 0.00301709)
(0.00307744 0 0 1.57317e-14 -0.00615488 0 0 0 0.00307744)
(0.00314008 0 0 1.6299e-14 -0.00628016 0 0 0 0.00314008)
(0.00320517 0 0 1.68841e-14 -0.00641034 0 0 0 0.00320517)
(0.00327289 0 0 1.74768e-14 -0.00654578 0 0 0 0.00327289)
(0.00334343 3.68135e-17 0 1.89354e-14 -0.00668685 0 0 0 0.00334343)
(0.00341698 0 0 2.1279e-14 -0.00683395 0 0 0 0.00341698)
(0.00349374 0 0 2.19422e-14 -0.00698749 0 0 0 0.00349374)
(0.00357393 0 0 2.2611e-14 -0.00714786 0 0 0 0.00357393)
(0.00365775 0 0 2.24469e-14 -0.00731549 0 0 0 0.00365775)
(0.00374539 0 0 2.22983e-14 -0.00749078 0 0 0 0.00374539)
(0.00383706 0 0 2.30133e-14 -0.00767412 0 0 0 0.00383706)
(0.00393295 0 0 2.28954e-14 -0.0078659 0 0 0 0.00393295)
(0.00403327 0 0 2.36411e-14 -0.00806653 0 0 0 0.00403327)
(0.00413821 0 0 2.52507e-14 -0.00827643 0 0 0 0.00413821)
(0.00424803 0 0 2.51802e-14 -0.00849606 0 0 0 0.00424803)
(0.00436299 0 0 2.42788e-14 -0.00872598 0 0 0 0.00436299)
(0.00448344 0 0 2.42445e-14 -0.00896688 0 0 0 0.00448344)
(0.00460981 0 0 2.59274e-14 -0.00921962 0 0 0 0.00460981)
(0.00474266 0 0 2.84812e-14 -0.00948532 0 0 0 0.00474266)
(0.0048827 0 0 2.93644e-14 -0.00976539 0 0 0 0.0048827)
(0.00503081 0 0 3.02766e-14 -0.0100616 0 0 0 0.00503081)
(0.00518809 0 0 3.12221e-14 -0.0103762 0 0 0 0.00518809)
(0.00535583 0 0 3.22063e-14 -0.0107117 0 0 0 0.00535583)
(0.00553552 0 0 3.40837e-14 -0.011071 0 0 0 0.00553552)
(0.00572883 0 0 3.60127e-14 -0.0114577 0 0 0 0.00572883)
(0.0059375 0 0 3.71533e-14 -0.011875 0 0 0 0.0059375)
(0.00616332 0 0 3.83815e-14 -0.0123266 0 0 0 0.00616332)
(0.00640802 -7.36271e-17 0 3.79902e-14 -0.012816 0 0 0 0.00640802)
(0.00667312 0 0 3.76523e-14 -0.0133462 0 0 0 0.00667312)
(0.00695988 0 0 3.91185e-14 -0.0139198 0 0 0 0.00695988)
(0.00726927 0 0 4.07258e-14 -0.0145385 0 0 0 0.00726927)
(0.00760201 0 0 4.24717e-14 -0.015204 0 0 0 0.00760201)
(0.00795881 0 0 4.43723e-14 -0.0159176 0 0 0 0.00795881)
(0.00834085 0 0 4.47419e-14 -0.0166817 0 0 0 0.00834085)
(0.00875055 0 0 4.7002e-14 -0.0175011 0 0 0 0.00875055)
(0.00919272 0 0 5.11651e-14 -0.0183854 0 0 0 0.00919272)
(0.00967622 0 0 5.38412e-14 -0.0193524 0 0 0 0.00967622)
(0.010216 0 0 5.67569e-14 -0.020432 0 0 0 0.010216)
(0.0108355 0 0 5.99562e-14 -0.021671 0 0 0 0.0108355)
(0.0115695 0 0 6.18004e-14 -0.023139 0 0 0 0.0115695)
(0.0124665 0 0 6.41419e-14 -0.024933 0 0 0 0.0124665)
(0.0135912 0 0 6.88914e-14 -0.0271824 0 0 0 0.0135912)
(0.015026 0 0 7.45578e-14 -0.0300521 0 0 0 0.015026)
(0.0168712 0 0 8.1333e-14 -0.0337425 0 0 0 0.0168712)
(0.0192545 0 0 8.9235e-14 -0.038509 0 0 0 0.0192545)
(0.0224135 0 0 9.78904e-14 -0.0448271 0 0 0 0.0224135)
(0.0267844 0 0 1.06265e-13 -0.0535687 0 0 0 0.0267844)
(0.0320205 0 0 1.12417e-13 -0.064041 0 0 0 0.0320205)
(0.0357549 0 0 1.13436e-13 -0.0715098 0 0 0 0.0357549)
(0.0346059 0 0 1.05939e-13 -0.0692119 0 0 0 0.0346059)
(0.0273043 0 0 8.72159e-14 -0.0546087 0 0 0 0.0273043)
(0.0207006 0 0 6.88839e-14 -0.0414012 0 0 0 0.0207006)
(0.0102209 0 0 3.61702e-14 -0.0204417 0 0 0 0.0102209)
(0.00025642 0 0 1.00605e-14 -0.00051284 0 0 0 0.00025642)
(3.79933e-07 0 0 8.82689e-17 -7.59866e-07 0 0 0 3.79933e-07)
(-1.17772e-06 0 0 -1.26688e-17 2.35545e-06 0 0 0 -1.17772e-06)
(2.04804e-07 0 0 -2.38489e-17 -4.09609e-07 0 0 0 2.04804e-07)
(-2.59315e-06 0 0 -2.16684e-17 5.18629e-06 0 0 0 -2.59315e-06)
(8.25924e-07 0 0 -1.73832e-17 -1.65185e-06 0 0 0 8.25924e-07)
(6.14371e-05 0 0 -1.12997e-17 -0.000122874 0 0 0 6.14371e-05)
(1.23338e-05 0 0 -4.6714e-18 -2.46675e-05 0 0 0 1.23338e-05)
(-2.99068e-07 0 0 -1.90457e-20 5.98136e-07 0 0 0 -2.99068e-07)
(5.89527e-10 0 0 -7.72829e-23 -1.17905e-09 0 0 0 5.89527e-10)
(2.38617e-17 0 0 -3.88839e-30 -4.77233e-17 0 0 0 2.38617e-17)
(-2.30762e-21 0 0 -1.66689e-33 4.61523e-21 0 0 0 -2.30762e-21)
(-3.60677e-28 0 0 -1.62446e-39 7.21354e-28 0 0 0 -3.60677e-28)
(-8.83498e-36 0 0 -7.57397e-46 1.767e-35 0 0 0 -8.83498e-36)
(4.51179e-42 0 0 -2.45347e-52 -9.02357e-42 0 0 0 4.51179e-42)
(1.05736e-49 0 0 -5.95034e-59 -2.11472e-49 0 0 0 1.05736e-49)
(-1.77037e-56 0 0 -1.20658e-65 3.54074e-56 0 0 0 -1.77037e-56)
(-4.21325e-64 0 0 -2.00668e-72 8.42651e-64 0 0 0 -4.21325e-64)
(3.29615e-71 0 0 -2.91188e-79 -6.5923e-71 0 0 0 3.29615e-71)
(8.01633e-79 0 0 -3.53314e-86 -1.60327e-78 0 0 0 8.01633e-79)
(-3.21945e-86 0 0 -3.84539e-93 6.43889e-86 0 0 0 -3.21945e-86)
(-8.30444e-94 0 0 -3.68174e-100 1.66089e-93 0 0 0 -8.30444e-94)
(2.06628e-101 0 0 -3.32192e-107 -4.13257e-101 0 0 0 2.06628e-101)
(6.95443e-109 0 0 -2.69277e-114 -1.39089e-108 0 0 0 6.95443e-109)
(3.44773e-117 0 0 -2.04234e-121 -6.89547e-117 0 0 0 3.44773e-117)
(7.10152e-124 0 0 -1.37985e-128 -1.4203e-123 0 0 0 7.10152e-124)
(7.18416e-131 0 0 -8.67564e-136 -1.43683e-130 0 0 0 7.18416e-131)
(3.80177e-138 0 0 -4.99289e-143 -7.60355e-138 0 0 0 3.80177e-138)
(1.71969e-145 0 0 -3.08549e-150 -3.43939e-145 0 0 0 1.71969e-145)
(-2.30319e-152 0 0 -2.42971e-157 4.60639e-152 0 0 0 -2.30319e-152)
(-5.41288e-159 0 0 -2.74092e-164 1.08258e-158 0 0 0 -5.41288e-159)
(-1.55353e-164 0 0 -3.60338e-171 3.10706e-164 0 0 0 -1.55353e-164)
(-1.13657e-168 0 0 -4.93462e-178 2.27313e-168 0 0 0 -1.13657e-168)
(-3.49256e-175 0 0 -6.42564e-185 6.98513e-175 0 0 0 -3.49256e-175)
(-3.22835e-181 0 0 -8.16005e-192 6.4567e-181 0 0 0 -3.22835e-181)
(-3.73997e-185 0 0 -9.76506e-199 7.47995e-185 0 0 0 -3.73997e-185)
)
;

boundaryField
{
    inlet
    {
        type            cyclic;
    }
    outlet
    {
        type            cyclic;
    }
    top
    {
        type            extrapolatedCalculated;
        value           uniform (-7.47282e-185 0 0 -9.75722e-199 1.49456e-184 0 0 0 -7.47282e-185);
    }
    bottom
    {
        type            extrapolatedCalculated;
        value           uniform (0.0018551 0 0 9.65116e-15 -0.00371019 0 0 0 0.0018551);
    }
    frontAndBackPlanes
    {
        type            empty;
    }
}


// ************************************************************************* //
