/*--------------------------------*- C++ -*----------------------------------*\
| =========                 |                                                 |
| \\      /  F ield         | OpenFOAM: The Open Source CFD Toolbox           |
|  \\    /   O peration     | Version:  v2006                                 |
|   \\  /    A nd           | Website:  www.openfoam.com                      |
|    \\/     M anipulation  |                                                 |
\*---------------------------------------------------------------------------*/
FoamFile
{
    version     2.0;
    format      ascii;
    class       volTensorField;
    location    "1260";
    object      Taub;
}
// * * * * * * * * * * * * * * * * * * * * * * * * * * * * * * * * * * * * * //

dimensions      [1 -1 -2 0 0 0 0];


internalField   nonuniform List<tensor> 
120
(
(-1.33092e-07 0 0 4.59487e-19 2.66184e-07 0 0 0 -1.33092e-07)
(-1.34228e-07 0 0 4.60827e-19 2.68455e-07 0 0 0 -1.34228e-07)
(-1.35912e-07 0 0 4.5664e-19 2.71825e-07 0 0 0 -1.35912e-07)
(-1.37741e-07 0 0 4.53194e-19 2.75482e-07 0 0 0 -1.37741e-07)
(-1.39599e-07 0 0 4.56716e-19 2.79198e-07 0 0 0 -1.39599e-07)
(-1.41497e-07 0 0 4.63546e-19 2.82994e-07 0 0 0 -1.41497e-07)
(-1.43439e-07 0 0 4.54693e-19 2.86879e-07 0 0 0 -1.43439e-07)
(-1.45431e-07 0 0 4.42435e-19 2.90862e-07 0 0 0 -1.45431e-07)
(-1.47474e-07 0 0 4.6586e-19 2.94948e-07 0 0 0 -1.47474e-07)
(-1.4957e-07 0 0 4.86905e-19 2.9914e-07 0 0 0 -1.4957e-07)
(-1.51722e-07 0 0 4.8445e-19 3.03444e-07 0 0 0 -1.51722e-07)
(-1.53932e-07 0 0 5.08694e-19 3.07865e-07 0 0 0 -1.53932e-07)
(-1.56204e-07 0 0 5.33765e-19 3.12408e-07 0 0 0 -1.56204e-07)
(-1.58539e-07 0 0 5.37924e-19 3.17079e-07 0 0 0 -1.58539e-07)
(-1.60941e-07 0 0 5.48692e-19 3.21882e-07 0 0 0 -1.60941e-07)
(-1.63412e-07 0 0 5.6033e-19 3.26824e-07 0 0 0 -1.63412e-07)
(-1.65955e-07 0 0 5.72823e-19 3.31911e-07 0 0 0 -1.65955e-07)
(-1.68573e-07 0 0 5.86183e-19 3.37146e-07 0 0 0 -1.68573e-07)
(-1.71268e-07 0 0 6.0042e-19 3.42536e-07 0 0 0 -1.71268e-07)
(-1.74043e-07 0 0 6.15544e-19 3.48087e-07 0 0 0 -1.74043e-07)
(-1.76902e-07 0 0 6.31563e-19 3.53803e-07 0 0 0 -1.76902e-07)
(-1.79846e-07 0 0 6.48258e-19 3.59692e-07 0 0 0 -1.79846e-07)
(-1.8288e-07 0 0 6.13844e-19 3.65759e-07 0 0 0 -1.8288e-07)
(-1.86006e-07 0 0 7.25421e-19 3.72012e-07 0 0 0 -1.86006e-07)
(-1.89229e-07 0 0 8.38035e-19 3.78458e-07 0 0 0 -1.89229e-07)
(-1.92552e-07 0 0 8.36604e-19 3.85104e-07 0 0 0 -1.92552e-07)
(-1.9598e-07 0 0 8.07345e-19 3.91961e-07 0 0 0 -1.9598e-07)
(-1.99519e-07 0 0 7.79541e-19 3.99039e-07 0 0 0 -1.99519e-07)
(-2.03175e-07 0 0 9.02526e-19 4.0635e-07 0 0 0 -2.03175e-07)
(-2.06954e-07 0 0 8.89257e-19 4.13909e-07 0 0 0 -2.06954e-07)
(-2.10866e-07 0 0 6.919e-19 4.21732e-07 0 0 0 -2.10866e-07)
(-2.14918e-07 0 0 6.74278e-19 4.29836e-07 0 0 0 -2.14918e-07)
(-2.1912e-07 0 0 7.73559e-19 4.38241e-07 0 0 0 -2.1912e-07)
(-2.23484e-07 0 0 8.01193e-19 4.46968e-07 0 0 0 -2.23484e-07)
(-2.2802e-07 0 0 7.40846e-19 4.5604e-07 0 0 0 -2.2802e-07)
(-2.32741e-07 -3.49488e-21 0 8.07442e-19 4.65481e-07 0 0 0 -2.32741e-07)
(-2.37659e-07 0 0 1.19317e-18 4.75318e-07 0 0 0 -2.37659e-07)
(-2.42788e-07 0 0 1.03561e-18 4.85577e-07 0 0 0 -2.42788e-07)
(-2.48142e-07 0 0 1.18252e-18 4.96283e-07 0 0 0 -2.48142e-07)
(-2.53732e-07 0 0 1.0578e-18 5.07465e-07 0 0 0 -2.53732e-07)
(-2.59573e-07 0 0 9.6347e-19 5.19145e-07 0 0 0 -2.59573e-07)
(-2.65675e-07 0 0 1.19693e-18 5.31349e-07 0 0 0 -2.65675e-07)
(-2.72051e-07 0 0 9.76049e-19 5.44101e-07 0 0 0 -2.72051e-07)
(-2.78713e-07 0 0 1.00004e-18 5.57426e-07 0 0 0 -2.78713e-07)
(-2.85675e-07 0 0 1.44956e-18 5.7135e-07 0 0 0 -2.85675e-07)
(-2.92951e-07 0 0 1.31643e-18 5.85903e-07 0 0 0 -2.92951e-07)
(-3.0056e-07 0 0 1.03313e-18 6.0112e-07 0 0 0 -3.0056e-07)
(-3.08523e-07 0 0 8.69705e-19 6.17046e-07 0 0 0 -3.08523e-07)
(-3.16869e-07 0 0 1.09426e-18 6.33737e-07 0 0 0 -3.16869e-07)
(-3.25632e-07 0 0 1.62771e-18 6.51265e-07 0 0 0 -3.25632e-07)
(-3.34861e-07 0 0 1.39278e-18 6.69721e-07 0 0 0 -3.34861e-07)
(-3.44612e-07 0 0 1.43457e-18 6.89225e-07 0 0 0 -3.44612e-07)
(-3.54959e-07 0 0 1.4784e-18 7.09919e-07 0 0 0 -3.54959e-07)
(-3.65986e-07 0 0 1.35629e-18 7.31972e-07 0 0 0 -3.65986e-07)
(-3.7779e-07 0 0 1.61426e-18 7.55579e-07 0 0 0 -3.7779e-07)
(-3.90477e-07 0 0 1.8746e-18 7.80954e-07 0 0 0 -3.90477e-07)
(-4.04159e-07 0 0 1.76161e-18 8.08318e-07 0 0 0 -4.04159e-07)
(-4.18945e-07 0 0 2.20248e-18 8.3789e-07 0 0 0 -4.18945e-07)
(-4.34939e-07 6.96971e-21 0 1.7981e-18 8.69878e-07 0 0 0 -4.34939e-07)
(-4.52232e-07 0 0 1.39642e-18 9.04464e-07 0 0 0 -4.52232e-07)
(-4.70896e-07 0 0 1.84913e-18 9.41791e-07 0 0 0 -4.70896e-07)
(-4.9098e-07 0 0 1.92655e-18 9.8196e-07 0 0 0 -4.9098e-07)
(-5.12521e-07 0 0 2.01088e-18 1.02504e-06 0 0 0 -5.12521e-07)
(-5.35556e-07 0 0 2.56748e-18 1.07111e-06 0 0 0 -5.35556e-07)
(-5.60159e-07 0 0 1.62701e-18 1.12032e-06 0 0 0 -5.60159e-07)
(-5.86488e-07 0 0 1.75024e-18 1.17298e-06 0 0 0 -5.86488e-07)
(-6.14879e-07 0 0 2.90359e-18 1.22976e-06 0 0 0 -6.14879e-07)
(-6.45947e-07 0 0 2.54582e-18 1.29189e-06 0 0 0 -6.45947e-07)
(-6.80724e-07 0 0 2.68332e-18 1.36145e-06 0 0 0 -6.80724e-07)
(-7.20809e-07 0 0 3.41639e-18 1.44162e-06 0 0 0 -7.20809e-07)
(-7.68538e-07 0 0 2.91713e-18 1.53708e-06 0 0 0 -7.68538e-07)
(-8.27131e-07 0 0 2.44155e-18 1.65426e-06 0 0 0 -8.27131e-07)
(-9.00796e-07 0 0 3.24693e-18 1.80159e-06 0 0 0 -9.00796e-07)
(-9.94858e-07 0 0 3.5156e-18 1.98972e-06 0 0 0 -9.94858e-07)
(-1.11632e-06 0 0 3.83351e-18 2.23264e-06 0 0 0 -1.11632e-06)
(-1.27459e-06 0 0 4.20405e-18 2.54917e-06 0 0 0 -1.27459e-06)
(-1.47722e-06 0 0 4.60948e-18 2.95443e-06 0 0 0 -1.47722e-06)
(-1.73223e-06 0 0 5.00092e-18 3.46446e-06 0 0 0 -1.73223e-06)
(-2.00149e-06 0 0 5.28682e-18 4.00297e-06 0 0 0 -2.00149e-06)
(-2.15067e-06 0 0 5.33051e-18 4.30135e-06 0 0 0 -2.15067e-06)
(-2.01661e-06 0 0 4.97378e-18 4.03322e-06 0 0 0 -2.01661e-06)
(-1.50216e-06 0 0 4.09468e-18 3.00432e-06 0 0 0 -1.50216e-06)
(-9.09909e-07 0 0 3.45784e-18 1.81982e-06 0 0 0 -9.09909e-07)
(-3.02985e-05 0 0 4.61294e-17 6.05971e-05 0 0 0 -3.02985e-05)
(7.59719e-05 0 0 7.69534e-15 -0.000151944 0 0 0 7.59719e-05)
(-8.21964e-05 0 0 7.29689e-15 0.000164393 0 0 0 -8.21964e-05)
(-0.000140725 0 0 -1.08319e-15 0.00028145 0 0 0 -0.000140725)
(-4.22743e-06 0 0 -2.02933e-15 8.45487e-06 0 0 0 -4.22743e-06)
(-0.000224354 0 0 -1.85381e-15 0.000448708 0 0 0 -0.000224354)
(4.49595e-05 0 0 -1.482e-15 -8.99191e-05 0 0 0 4.49595e-05)
(0.00517221 0 0 -9.88968e-16 -0.0103444 0 0 0 0.00517221)
(-0.000211103 0 0 -4.29591e-16 0.000422206 0 0 0 -0.000211103)
(-0.00257899 0 0 -1.09368e-16 0.00515797 0 0 0 -0.00257899)
(0.000135901 0 0 -1.44915e-16 -0.000271801 0 0 0 0.000135901)
(0.000362726 0 0 -1.39142e-16 -0.000725451 0 0 0 0.000362726)
(4.1482e-06 0 0 -1.33676e-16 -8.29641e-06 0 0 0 4.1482e-06)
(-2.82712e-05 0 0 -1.28788e-16 5.65423e-05 0 0 0 -2.82712e-05)
(-1.47502e-06 0 0 -1.24365e-16 2.95005e-06 0 0 0 -1.47502e-06)
(2.1564e-06 0 0 -1.20319e-16 -4.3128e-06 0 0 0 2.1564e-06)
(2.0335e-07 0 0 -1.16579e-16 -4.067e-07 0 0 0 2.0335e-07)
(-1.60769e-07 0 0 -1.13095e-16 3.21538e-07 0 0 0 -1.60769e-07)
(-2.25497e-08 0 0 -1.09828e-16 4.50995e-08 0 0 0 -2.25497e-08)
(1.16984e-08 0 0 -1.06752e-16 -2.33968e-08 0 0 0 1.16984e-08)
(2.29911e-09 0 0 -1.03847e-16 -4.59822e-09 0 0 0 2.29911e-09)
(-8.17998e-10 0 0 -1.01103e-16 1.636e-09 0 0 0 -8.17998e-10)
(-2.16393e-10 0 0 -9.85132e-17 4.32785e-10 0 0 0 -2.16393e-10)
(5.77498e-11 0 0 -9.60748e-17 -1.155e-10 0 0 0 5.77498e-11)
(2.36584e-11 0 0 -9.37883e-17 -4.73168e-11 0 0 0 2.36584e-11)
(1.66631e-12 0 0 -9.16558e-17 -3.33263e-12 0 0 0 1.66631e-12)
(4.64095e-12 0 0 -8.96808e-17 -9.2819e-12 0 0 0 4.64095e-12)
(7.23299e-12 0 0 -8.78673e-17 -1.4466e-11 0 0 0 7.23299e-12)
(6.5347e-12 0 0 -8.62198e-17 -1.30694e-11 0 0 0 6.5347e-12)
(4.75326e-12 0 0 -8.47427e-17 -9.50652e-12 0 0 0 4.75326e-12)
(3.41964e-12 0 0 -8.34403e-17 -6.83929e-12 0 0 0 3.41964e-12)
(3.06853e-12 0 0 -8.23165e-17 -6.13706e-12 0 0 0 3.06853e-12)
(3.53856e-12 0 0 -8.13747e-17 -7.07712e-12 0 0 0 3.53856e-12)
(3.60231e-12 0 0 -8.06178e-17 -7.20462e-12 0 0 0 3.60231e-12)
(-5.81025e-13 0 0 -8.00481e-17 1.16205e-12 0 0 0 -5.81025e-13)
(-2.15471e-12 0 0 -7.96672e-17 4.30941e-12 0 0 0 -2.15471e-12)
(6.19808e-11 0 0 -7.94627e-17 -1.23962e-10 0 0 0 6.19808e-11)
)
;

boundaryField
{
    inlet
    {
        type            cyclic;
    }
    outlet
    {
        type            cyclic;
    }
    top
    {
        type            extrapolatedCalculated;
        value           uniform (1.23788e-10 0 0 -7.94011e-17 -2.47577e-10 0 0 0 1.23788e-10);
    }
    bottom
    {
        type            extrapolatedCalculated;
        value           uniform (-1.32728e-07 0 0 4.59247e-19 2.65457e-07 0 0 0 -1.32728e-07);
    }
    frontAndBackPlanes
    {
        type            empty;
    }
}


// ************************************************************************* //
