/*--------------------------------*- C++ -*----------------------------------*\
| =========                 |                                                 |
| \\      /  F ield         | OpenFOAM: The Open Source CFD Toolbox           |
|  \\    /   O peration     | Version:  v2006                                 |
|   \\  /    A nd           | Website:  www.openfoam.com                      |
|    \\/     M anipulation  |                                                 |
\*---------------------------------------------------------------------------*/
FoamFile
{
    version     2.0;
    format      ascii;
    class       volVectorField;
    location    "1260";
    object      Ua;
}
// * * * * * * * * * * * * * * * * * * * * * * * * * * * * * * * * * * * * * //

dimensions      [0 1 -1 0 0 0 0];


internalField   nonuniform List<vector> 
120
(
(2.29789e-21 -1.32507e-09 0)
(6.89843e-21 -3.99543e-09 0)
(1.151e-20 -6.70619e-09 0)
(1.60388e-20 -9.4555e-09 0)
(2.05935e-20 -1.22428e-08 0)
(2.51816e-20 -1.50691e-08 0)
(2.98105e-20 -1.79356e-08 0)
(3.42855e-20 -2.08432e-08 0)
(3.88166e-20 -2.3793e-08 0)
(4.36139e-20 -2.67862e-08 0)
(4.84831e-20 -2.98239e-08 0)
(5.34319e-20 -3.29073e-08 0)
(5.86709e-20 -3.60378e-08 0)
(6.40058e-20 -3.92165e-08 0)
(6.94449e-20 -4.24451e-08 0)
(7.49967e-20 -4.57248e-08 0)
(8.06697e-20 -4.90573e-08 0)
(8.64726e-20 -5.2444e-08 0)
(9.2414e-20 -5.58867e-08 0)
(9.85029e-20 -5.9387e-08 0)
(1.04748e-19 -6.29468e-08 0)
(1.11159e-19 -6.65677e-08 0)
(1.17745e-19 -7.02518e-08 0)
(1.24514e-19 -7.4001e-08 0)
(1.32285e-19 -7.78173e-08 0)
(1.40258e-19 -8.17029e-08 0)
(1.48443e-19 -8.56599e-08 0)
(1.56444e-19 -8.96909e-08 0)
(1.64675e-19 -9.37981e-08 0)
(1.73145e-19 -9.79842e-08 0)
(1.81055e-19 -1.02252e-07 0)
(1.88413e-19 -1.06604e-07 0)
(1.96038e-19 -1.11045e-07 0)
(2.03936e-19 -1.15576e-07 0)
(2.12118e-19 -1.20202e-07 0)
(2.20581e-19 -1.24927e-07 0)
(2.30151e-19 -1.29755e-07 0)
(2.40847e-19 -1.3469e-07 0)
(2.51049e-19 -1.39737e-07 0)
(2.62381e-19 -1.44901e-07 0)
(2.72427e-19 -1.50188e-07 0)
(2.83617e-19 -1.55602e-07 0)
(2.94344e-19 -1.61151e-07 0)
(3.05422e-19 -1.66839e-07 0)
(3.16859e-19 -1.72674e-07 0)
(3.29471e-19 -1.78663e-07 0)
(3.40841e-19 -1.84812e-07 0)
(3.52593e-19 -1.91128e-07 0)
(3.63931e-19 -1.97621e-07 0)
(3.77286e-19 -2.04299e-07 0)
(3.91056e-19 -2.11172e-07 0)
(4.05252e-19 -2.1825e-07 0)
(4.1989e-19 -2.25546e-07 0)
(4.34987e-19 -2.33073e-07 0)
(4.50563e-19 -2.40848e-07 0)
(4.67448e-19 -2.48889e-07 0)
(4.84861e-19 -2.57216e-07 0)
(5.02832e-19 -2.65853e-07 0)
(5.21415e-19 -2.74826e-07 0)
(5.39013e-19 -2.84162e-07 0)
(5.57274e-19 -2.93892e-07 0)
(5.76269e-19 -3.04047e-07 0)
(5.9606e-19 -3.14661e-07 0)
(6.16718e-19 -3.25767e-07 0)
(6.3832e-19 -3.374e-07 0)
(6.5933e-19 -3.49598e-07 0)
(6.83083e-19 -3.62402e-07 0)
(7.08058e-19 -3.75863e-07 0)
(7.34361e-19 -3.90048e-07 0)
(7.62112e-19 -4.05051e-07 0)
(7.91462e-19 -4.21007e-07 0)
(8.2097e-19 -4.38107e-07 0)
(8.52549e-19 -4.56625e-07 0)
(8.86581e-19 -4.76939e-07 0)
(9.23557e-19 -4.99557e-07 0)
(9.64041e-19 -5.25143e-07 0)
(1.00854e-18 -5.5457e-07 0)
(1.05727e-18 -5.89181e-07 0)
(1.10975e-18 -6.31096e-07 0)
(1.16433e-18 -6.80668e-07 0)
(1.21778e-18 -7.33253e-07 0)
(1.26523e-18 -7.79542e-07 0)
(1.30084e-18 -8.11266e-07 0)
(1.331e-18 -8.38839e-07 0)
(1.41224e-18 -9.05703e-07 0)
(1.59062e-16 -1.28994e-05 0)
(1.5808e-16 -2.92873e-06 0)
(1.35693e-16 -6.38235e-06 0)
(1.13382e-16 -4.08027e-06 0)
(9.45823e-17 8.3775e-06 0)
(8.06614e-17 -8.74424e-06 0)
(7.20311e-17 -0.000359458 0)
(7.0304e-17 -9.07825e-05 0)
(6.66146e-17 -0.0001043 0)
(6.30616e-17 -0.000256521 0)
(5.96495e-17 -0.000232527 0)
(5.63715e-17 -0.000228736 0)
(5.32094e-17 -0.000228237 0)
(5.01525e-17 -0.000228518 0)
(4.71928e-17 -0.000228569 0)
(4.43228e-17 -0.000228549 0)
(4.15373e-17 -0.000228544 0)
(3.88307e-17 -0.000228546 0)
(3.61991e-17 -0.000228546 0)
(3.36377e-17 -0.000228546 0)
(3.11434e-17 -0.000228546 0)
(2.87114e-17 -0.000228546 0)
(2.6339e-17 -0.000228546 0)
(2.40215e-17 -0.000228546 0)
(2.17555e-17 -0.000228546 0)
(1.95369e-17 -0.000228546 0)
(1.73616e-17 -0.000228546 0)
(1.52253e-17 -0.000228546 0)
(1.31241e-17 -0.000228546 0)
(1.10529e-17 -0.000228546 0)
(9.00766e-18 -0.000228546 0)
(6.98366e-18 -0.000228546 0)
(4.97627e-18 -0.000228518 0)
(2.98077e-18 -0.000228481 0)
(9.92526e-19 -0.000228045 0)
)
;

boundaryField
{
    inlet
    {
        type            cyclic;
    }
    outlet
    {
        type            cyclic;
    }
    top
    {
        type            fixedValue;
        value           uniform (0 0 0);
    }
    bottom
    {
        type            fixedValue;
        value           uniform (0 0 0);
    }
    frontAndBackPlanes
    {
        type            empty;
    }
}


// ************************************************************************* //
