/*--------------------------------*- C++ -*----------------------------------*\
| =========                 |                                                 |
| \\      /  F ield         | OpenFOAM: The Open Source CFD Toolbox           |
|  \\    /   O peration     | Version:  v2006                                 |
|   \\  /    A nd           | Website:  www.openfoam.com                      |
|    \\/     M anipulation  |                                                 |
\*---------------------------------------------------------------------------*/
FoamFile
{
    version     2.0;
    format      ascii;
    class       volVectorField;
    location    "1260";
    object      Ub;
}
// * * * * * * * * * * * * * * * * * * * * * * * * * * * * * * * * * * * * * //

dimensions      [0 1 -1 0 0 0 0];


internalField   nonuniform List<vector> 
120
(
(2.29789e-21 1.99236e-09 0)
(6.89848e-21 5.99892e-09 0)
(1.15216e-20 1.00523e-08 0)
(1.60389e-20 1.41605e-08 0)
(2.05935e-20 1.83241e-08 0)
(2.51818e-20 2.25443e-08 0)
(2.98738e-20 2.68224e-08 0)
(3.42854e-20 3.11598e-08 0)
(3.87324e-20 3.55581e-08 0)
(4.36136e-20 4.00187e-08 0)
(4.84826e-20 4.45434e-08 0)
(5.33152e-20 4.91339e-08 0)
(5.86704e-20 5.3792e-08 0)
(6.40058e-20 5.85195e-08 0)
(6.94449e-20 6.33185e-08 0)
(7.49967e-20 6.8191e-08 0)
(8.06697e-20 7.31392e-08 0)
(8.64726e-20 7.81652e-08 0)
(9.2414e-20 8.32714e-08 0)
(9.85029e-20 8.84601e-08 0)
(1.04748e-19 9.37338e-08 0)
(1.11159e-19 9.90951e-08 0)
(1.1774e-19 1.04547e-07 0)
(1.23462e-19 1.10091e-07 0)
(1.3228e-19 1.15731e-07 0)
(1.40261e-19 1.21471e-07 0)
(1.49051e-19 1.27312e-07 0)
(1.56447e-19 1.33258e-07 0)
(1.64681e-19 1.39313e-07 0)
(1.74544e-19 1.4548e-07 0)
(1.82514e-19 1.51763e-07 0)
(1.8842e-19 1.58167e-07 0)
(1.96038e-19 1.64695e-07 0)
(2.03936e-19 1.71352e-07 0)
(2.1211e-19 1.78144e-07 0)
(2.18799e-19 1.85076e-07 0)
(2.2831e-19 1.92153e-07 0)
(2.42741e-19 1.99382e-07 0)
(2.49093e-19 2.0677e-07 0)
(2.66474e-19 2.14323e-07 0)
(2.70324e-19 2.22048e-07 0)
(2.85814e-19 2.29955e-07 0)
(2.94354e-19 2.38049e-07 0)
(3.05412e-19 2.46341e-07 0)
(3.14435e-19 2.54839e-07 0)
(3.34522e-19 2.63553e-07 0)
(3.40875e-19 2.72491e-07 0)
(3.55275e-19 2.81665e-07 0)
(3.58347e-19 2.91085e-07 0)
(3.77261e-19 3.00764e-07 0)
(3.91055e-19 3.10716e-07 0)
(4.05252e-19 3.20954e-07 0)
(4.1989e-19 3.31496e-07 0)
(4.34972e-19 3.42361e-07 0)
(4.47159e-19 3.53571e-07 0)
(4.67433e-19 3.65152e-07 0)
(4.84861e-19 3.77131e-07 0)
(5.02867e-19 3.8954e-07 0)
(5.29171e-19 4.02416e-07 0)
(5.39048e-19 4.15795e-07 0)
(5.57274e-19 4.2972e-07 0)
(5.76269e-19 4.44231e-07 0)
(5.96061e-19 4.59374e-07 0)
(6.16761e-19 4.75192e-07 0)
(6.47772e-19 4.91733e-07 0)
(6.49538e-19 5.09046e-07 0)
(6.83038e-19 5.27186e-07 0)
(7.08058e-19 5.46224e-07 0)
(7.34361e-19 5.66252e-07 0)
(7.62167e-19 5.87404e-07 0)
(8.03271e-19 6.09869e-07 0)
(8.21025e-19 6.33923e-07 0)
(8.52549e-19 6.59952e-07 0)
(8.86581e-19 6.88485e-07 0)
(9.23557e-19 7.20233e-07 0)
(9.64041e-19 7.56154e-07 0)
(1.00854e-18 7.97531e-07 0)
(1.05727e-18 8.45786e-07 0)
(1.10975e-18 9.02698e-07 0)
(1.16433e-18 9.67383e-07 0)
(1.21778e-18 1.03346e-06 0)
(1.26523e-18 1.09011e-06 0)
(1.30093e-18 1.12497e-06 0)
(1.33553e-18 1.14561e-06 0)
(2.2409e-18 2.97713e-06 0)
(1.59339e-16 -3.53402e-06 0)
(1.5808e-16 8.2435e-06 0)
(1.35694e-16 5.68166e-06 0)
(1.13382e-16 8.52283e-06 0)
(9.45824e-17 2.06078e-05 0)
(8.06616e-17 5.54488e-06 0)
(7.20316e-17 -0.000333209 0)
(7.03031e-17 2.08156e-05 0)
(6.66079e-17 5.04755e-05 0)
(6.30566e-17 4.28474e-07 0)
(5.96499e-17 -3.94018e-06 0)
(5.63719e-17 -1.93835e-07 0)
(5.32097e-17 3.0103e-07 0)
(5.01529e-17 2.74467e-08 0)
(4.7193e-17 -2.24701e-08 0)
(4.43232e-17 -3.0596e-09 0)
(4.15376e-17 1.6483e-09 0)
(3.88311e-17 3.23284e-10 0)
(3.61993e-17 -1.06683e-10 0)
(3.36381e-17 -2.16249e-11 0)
(3.11435e-17 1.60318e-11 0)
(2.87118e-17 1.08381e-11 0)
(2.63392e-17 7.36829e-12 0)
(2.40218e-17 7.2889e-12 0)
(2.17558e-17 7.11831e-12 0)
(1.95372e-17 6.59267e-12 0)
(1.73619e-17 6.03323e-12 0)
(1.52257e-17 5.61234e-12 0)
(1.31242e-17 5.32015e-12 0)
(1.10531e-17 5.09933e-12 0)
(9.00789e-18 4.85981e-12 0)
(6.9839e-18 4.56848e-12 0)
(4.9765e-18 4.3194e-12 0)
(2.98099e-18 4.65564e-12 0)
(9.92638e-19 4.64264e-12 0)
)
;

boundaryField
{
    inlet
    {
        type            cyclic;
    }
    outlet
    {
        type            cyclic;
    }
    top
    {
        type            fixedValue;
        value           uniform (0 0 0);
    }
    bottom
    {
        type            fixedValue;
        value           uniform (0 0 0);
    }
    frontAndBackPlanes
    {
        type            empty;
    }
}


// ************************************************************************* //
