/*--------------------------------*- C++ -*----------------------------------*\
| =========                 |                                                 |
| \\      /  F ield         | OpenFOAM: The Open Source CFD Toolbox           |
|  \\    /   O peration     | Version:  2206                                  |
|   \\  /    A nd           | Website:  www.openfoam.com                      |
|    \\/     M anipulation  |                                                 |
\*---------------------------------------------------------------------------*/
FoamFile
{
    version     2.0;
    format      ascii;
    arch        "LSB;label=32;scalar=64";
    class       volScalarField;
    location    "20";
    object      p_rbgh;
}
// * * * * * * * * * * * * * * * * * * * * * * * * * * * * * * * * * * * * * //

dimensions      [1 -1 -2 0 0 0 0];

internalField   nonuniform List<scalar> 
120
(
26.0476
26.044
25.8262
25.5768
25.3306
25.0853
24.84
24.5948
24.3495
24.1043
23.859
23.6138
23.3685
23.1233
22.878
22.6328
22.3875
22.1423
21.897
21.6518
21.4065
21.1613
20.916
20.6708
20.4255
20.1803
19.935
19.6898
19.4445
19.1993
18.954
18.7088
18.4635
18.2183
17.973
17.7278
17.4825
17.2373
16.992
16.7468
16.5015
16.2563
16.011
15.7658
15.5205
15.2753
15.03
14.7848
14.5395
14.2943
14.049
13.8038
13.5585
13.3133
13.068
12.8228
12.5775
12.3323
12.087
11.8418
11.5965
11.3513
11.106
10.8608
10.6155
10.3703
10.125
9.87977
9.63452
9.38927
9.14402
8.89877
8.65352
8.40827
8.16302
7.91777
7.67252
7.42727
7.18202
6.93677
6.69152
6.44627
6.20102
5.95577
5.71052
5.46527
5.22002
4.97477
4.72952
4.48427
4.23902
3.99377
3.74852
3.50327
3.25802
3.01277
2.76752
2.52227
2.27702
2.03177
1.78652
1.54127
1.296
1.05089
0.806327
0.559725
0.295966
0.0602376
0.00642082
-0.00274479
-0.000782263
0.000112562
7.94894e-05
4.56802e-06
-4.32058e-06
-5.38288e-07
3.68249e-07
1.20989e-07
1.92334e-10
2.6381e-10
)
;

boundaryField
{
    inlet
    {
        type            cyclic;
    }
    outlet
    {
        type            cyclic;
    }
    top
    {
        type            fixedValue;
        value           uniform 0;
    }
    bottom
    {
        type            fixedFluxPressure;
        gradient        uniform 0;
        value           uniform 26.0476;
    }
    frontAndBackPlanes
    {
        type            empty;
    }
}


// ************************************************************************* //
