/*--------------------------------*- C++ -*----------------------------------*\
| =========                 |                                                 |
| \\      /  F ield         | OpenFOAM: The Open Source CFD Toolbox           |
|  \\    /   O peration     | Version:  2206                                  |
|   \\  /    A nd           | Website:  www.openfoam.com                      |
|    \\/     M anipulation  |                                                 |
\*---------------------------------------------------------------------------*/
FoamFile
{
    version     2.0;
    format      ascii;
    arch        "LSB;label=32;scalar=64";
    class       surfaceScalarField;
    location    "20";
    object      phi.a;
}
// * * * * * * * * * * * * * * * * * * * * * * * * * * * * * * * * * * * * * //

dimensions      [0 3 -1 0 0 0 0];

oriented        oriented;

internalField   nonuniform List<scalar> 
119
(
-1.74055e-14
-1.56054e-12
-2.17677e-12
-2.29729e-12
-2.3205e-12
-2.32316e-12
-2.32331e-12
-2.32331e-12
-2.32331e-12
-2.32331e-12
-2.32331e-12
-2.32331e-12
-2.32331e-12
-2.32331e-12
-2.32331e-12
-2.32331e-12
-2.32331e-12
-2.32331e-12
-2.32331e-12
-2.32331e-12
-2.32331e-12
-2.32331e-12
-2.32331e-12
-2.32331e-12
-2.32331e-12
-2.32331e-12
-2.32331e-12
-2.32331e-12
-2.32331e-12
-2.32331e-12
-2.32331e-12
-2.32331e-12
-2.32331e-12
-2.32331e-12
-2.32331e-12
-2.32331e-12
-2.32331e-12
-2.32331e-12
-2.32331e-12
-2.32331e-12
-2.32331e-12
-2.32331e-12
-2.32331e-12
-2.32331e-12
-2.32331e-12
-2.32331e-12
-2.32331e-12
-2.32331e-12
-2.32331e-12
-2.32331e-12
-2.32331e-12
-2.32331e-12
-2.32331e-12
-2.32331e-12
-2.32331e-12
-2.32331e-12
-2.32331e-12
-2.32331e-12
-2.32331e-12
-2.32331e-12
-2.32331e-12
-2.32331e-12
-2.32331e-12
-2.32331e-12
-2.32331e-12
-2.32331e-12
-2.32331e-12
-2.32331e-12
-2.32331e-12
-2.32331e-12
-2.32331e-12
-2.32331e-12
-2.32331e-12
-2.32331e-12
-2.32331e-12
-2.32331e-12
-2.32331e-12
-2.32331e-12
-2.32331e-12
-2.32331e-12
-2.32331e-12
-2.32331e-12
-2.32331e-12
-2.32331e-12
-2.32331e-12
-2.32331e-12
-2.32331e-12
-2.32331e-12
-2.32331e-12
-2.32331e-12
-2.32331e-12
-2.32331e-12
-2.32331e-12
-2.32331e-12
-2.32331e-12
-2.32331e-12
-2.32331e-12
-2.32331e-12
-2.32331e-12
-2.32332e-12
-2.32327e-12
-2.32288e-12
-2.32297e-12
-2.33341e-12
-2.36878e-12
-2.08652e-12
-3.80919e-12
-3.3679e-11
-7.46404e-11
-7.91575e-11
-8.16451e-11
-8.22291e-11
-8.22292e-11
-8.22248e-11
-8.22062e-11
-8.21643e-11
-8.20791e-11
-8.18317e-11
-8.01785e-11
)
;

boundaryField
{
    inlet
    {
        type            cyclic;
        value           nonuniform List<scalar> 
120
(
-7.4881e-28
-1.36954e-27
-2.30288e-25
-6.71454e-26
-4.33461e-26
-9.05107e-26
-1.61807e-25
1.90166e-26
1.43859e-25
1.39228e-25
1.56427e-25
1.99366e-25
1.24325e-25
7.25472e-26
4.00647e-26
2.21985e-26
1.55274e-26
1.91143e-26
3.54213e-26
7.079e-26
1.35041e-25
2.39507e-25
3.93088e-25
5.95006e-25
2.58086e-25
-6.75414e-26
-4.16995e-25
-5.46584e-25
-7.85974e-25
-1.16398e-24
-1.11278e-24
-6.18729e-25
-2.24216e-25
1.17937e-25
4.58024e-25
8.32281e-25
6.78887e-25
-8.93681e-27
-1.07676e-25
-8.00837e-25
-4.00408e-25
-6.5653e-25
-4.36647e-25
-3.20896e-25
-3.12479e-25
-9.7522e-25
-5.63312e-25
-1.95224e-25
7.34462e-25
5.361e-25
3.90266e-25
3.1982e-25
3.312e-25
4.19072e-25
5.64084e-25
1.59956e-25
-2.59512e-25
-7.40115e-25
-1.32154e-24
-8.81608e-25
-5.8288e-25
-4.22842e-25
-3.82989e-25
-4.3894e-25
-5.61722e-25
4.17148e-25
2.046e-25
-5.60697e-26
-3.81116e-25
-8.00351e-25
-1.33828e-24
-8.59163e-25
-5.12711e-25
-2.84421e-25
-1.46643e-25
-7.09414e-26
-3.4346e-26
-2.24145e-26
-3.03108e-26
-6.37531e-26
-1.4095e-25
-2.9506e-25
-5.74947e-25
-1.04111e-24
-1.75485e-24
-2.75481e-24
-1.75485e-24
-1.0411e-24
-5.74895e-25
-2.94881e-25
-1.40376e-25
-6.20258e-26
-2.54602e-26
-9.72217e-27
-3.45969e-27
-1.14962e-27
-3.57645e-28
-1.05555e-28
-3.04114e-29
-7.06682e-30
-8.97853e-31
-6.63805e-32
-3.93942e-33
-2.2097e-34
-9.37704e-36
-3.34399e-37
-9.19586e-39
-7.74414e-40
-4.52279e-40
-2.20057e-40
-7.26899e-41
-1.63157e-43
-1.46741e-43
-1.43865e-43
-1.39387e-43
-1.29356e-43
-1.17418e-43
-1.07521e-43
-1.00042e-43
-8.84732e-44
)
;
    }
    outlet
    {
        type            cyclic;
        value           nonuniform List<scalar> 
120
(
7.4881e-28
1.36954e-27
2.30288e-25
6.71454e-26
4.33461e-26
9.05107e-26
1.61807e-25
-1.90166e-26
-1.43859e-25
-1.39228e-25
-1.56427e-25
-1.99366e-25
-1.24325e-25
-7.25472e-26
-4.00647e-26
-2.21985e-26
-1.55274e-26
-1.91143e-26
-3.54213e-26
-7.079e-26
-1.35041e-25
-2.39507e-25
-3.93088e-25
-5.95006e-25
-2.58086e-25
6.75414e-26
4.16995e-25
5.46584e-25
7.85974e-25
1.16398e-24
1.11278e-24
6.18729e-25
2.24216e-25
-1.17937e-25
-4.58024e-25
-8.32281e-25
-6.78887e-25
8.93681e-27
1.07676e-25
8.00837e-25
4.00408e-25
6.5653e-25
4.36647e-25
3.20896e-25
3.12479e-25
9.7522e-25
5.63312e-25
1.95224e-25
-7.34462e-25
-5.361e-25
-3.90266e-25
-3.1982e-25
-3.312e-25
-4.19072e-25
-5.64084e-25
-1.59956e-25
2.59512e-25
7.40115e-25
1.32154e-24
8.81608e-25
5.8288e-25
4.22842e-25
3.82989e-25
4.3894e-25
5.61722e-25
-4.17148e-25
-2.046e-25
5.60697e-26
3.81116e-25
8.00351e-25
1.33828e-24
8.59163e-25
5.12711e-25
2.84421e-25
1.46643e-25
7.09414e-26
3.4346e-26
2.24145e-26
3.03108e-26
6.37531e-26
1.4095e-25
2.9506e-25
5.74947e-25
1.04111e-24
1.75485e-24
2.75481e-24
1.75485e-24
1.0411e-24
5.74895e-25
2.94881e-25
1.40376e-25
6.20258e-26
2.54602e-26
9.72217e-27
3.45969e-27
1.14962e-27
3.57645e-28
1.05555e-28
3.04114e-29
7.06682e-30
8.97853e-31
6.63805e-32
3.93942e-33
2.2097e-34
9.37704e-36
3.34399e-37
9.19586e-39
7.74414e-40
4.52279e-40
2.20057e-40
7.26899e-41
1.63157e-43
1.46741e-43
1.43865e-43
1.39387e-43
1.29356e-43
1.17418e-43
1.07521e-43
1.00042e-43
8.84732e-44
)
;
    }
    top
    {
        type            fixedValue;
        value           uniform 0;
    }
    bottom
    {
        type            fixedValue;
        value           uniform 0;
    }
    frontAndBackPlanes
    {
        type            empty;
        value           nonuniform List<scalar> 0();
    }
}


// ************************************************************************* //
