/*--------------------------------*- C++ -*----------------------------------*\
| =========                 |                                                 |
| \\      /  F ield         | OpenFOAM: The Open Source CFD Toolbox           |
|  \\    /   O peration     | Version:  2206                                  |
|   \\  /    A nd           | Website:  www.openfoam.com                      |
|    \\/     M anipulation  |                                                 |
\*---------------------------------------------------------------------------*/
FoamFile
{
    version     2.0;
    format      ascii;
    arch        "LSB;label=32;scalar=64";
    class       surfaceScalarField;
    location    "20";
    object      phi.b;
}
// * * * * * * * * * * * * * * * * * * * * * * * * * * * * * * * * * * * * * //

dimensions      [0 3 -1 0 0 0 0];

oriented        oriented;

internalField   nonuniform List<scalar> 
119
(
2.2027e-14
1.70336e-12
2.22807e-12
2.30536e-12
2.32157e-12
2.32325e-12
2.32331e-12
2.32331e-12
2.32331e-12
2.32331e-12
2.32331e-12
2.32331e-12
2.32331e-12
2.32331e-12
2.32331e-12
2.32331e-12
2.32331e-12
2.32331e-12
2.32331e-12
2.32331e-12
2.32331e-12
2.32331e-12
2.32331e-12
2.32331e-12
2.32331e-12
2.32331e-12
2.32331e-12
2.32331e-12
2.32331e-12
2.32331e-12
2.32331e-12
2.32331e-12
2.32331e-12
2.32331e-12
2.32331e-12
2.32331e-12
2.32331e-12
2.32331e-12
2.32331e-12
2.32331e-12
2.32331e-12
2.32331e-12
2.32331e-12
2.32331e-12
2.32331e-12
2.32331e-12
2.32331e-12
2.32331e-12
2.32331e-12
2.32331e-12
2.32331e-12
2.32331e-12
2.32331e-12
2.32331e-12
2.32331e-12
2.32331e-12
2.32331e-12
2.32331e-12
2.32331e-12
2.32331e-12
2.32331e-12
2.32331e-12
2.32331e-12
2.32331e-12
2.32331e-12
2.32331e-12
2.32331e-12
2.32331e-12
2.32331e-12
2.32331e-12
2.32331e-12
2.32331e-12
2.32331e-12
2.32331e-12
2.32331e-12
2.32331e-12
2.32331e-12
2.32331e-12
2.32331e-12
2.32331e-12
2.32331e-12
2.32331e-12
2.32331e-12
2.32331e-12
2.32331e-12
2.32331e-12
2.32331e-12
2.32331e-12
2.32331e-12
2.32331e-12
2.32331e-12
2.32331e-12
2.32331e-12
2.32331e-12
2.32331e-12
2.32331e-12
2.32331e-12
2.32331e-12
2.32331e-12
2.32331e-12
2.32326e-12
2.32304e-12
2.32374e-12
2.33161e-12
2.34073e-12
2.11914e-12
3.10016e-12
8.58095e-12
8.33665e-13
8.50891e-15
2.56853e-15
1.21266e-15
5.98752e-16
2.91082e-16
1.33714e-16
5.05373e-17
1.81993e-17
6.24422e-18
-3.28315e-18
)
;

boundaryField
{
    inlet
    {
        type            cyclic;
        value           nonuniform List<scalar> 
120
(
-7.59536e-28
-3.00628e-27
-2.27859e-25
-6.71521e-26
-4.33464e-26
-9.04037e-26
-1.63842e-25
1.82904e-26
1.47967e-25
1.39261e-25
1.5646e-25
2.03516e-25
1.24358e-25
7.2547e-26
4.00643e-26
2.21982e-26
1.55272e-26
1.91139e-26
3.54207e-26
7.07892e-26
1.3504e-25
2.39507e-25
3.93222e-25
6.1161e-25
2.58221e-25
-6.76073e-26
-4.25296e-25
-5.4665e-25
-7.86107e-25
-1.18072e-24
-1.12952e-24
-6.18864e-25
-2.24216e-25
1.17938e-25
4.58162e-25
8.49018e-25
6.95489e-25
-2.52713e-26
-9.14752e-26
-8.33775e-25
-3.84207e-25
-6.72998e-25
-4.36777e-25
-3.20761e-25
-2.96143e-25
-1.00829e-24
-5.63714e-25
-2.11559e-25
7.67534e-25
5.36368e-25
3.90266e-25
3.19818e-25
3.31199e-25
4.19206e-25
5.80688e-25
1.60093e-25
-2.59511e-25
-7.40386e-25
-1.35475e-24
-8.81872e-25
-5.82878e-25
-4.22838e-25
-3.82989e-25
-4.39207e-25
-5.94659e-25
4.50086e-25
2.04871e-25
-5.60656e-26
-3.81115e-25
-8.00619e-25
-1.37149e-24
-8.59431e-25
-5.1271e-25
-2.84418e-25
-1.46641e-25
-7.09404e-26
-3.43454e-26
-2.2414e-26
-3.03101e-26
-6.37519e-26
-1.40948e-25
-2.95057e-25
-5.74942e-25
-1.04111e-24
-1.75539e-24
-2.82121e-24
-1.75538e-24
-1.04109e-24
-5.7489e-25
-2.94878e-25
-1.40374e-25
-6.20247e-26
-2.54596e-26
-9.72192e-27
-3.45958e-27
-1.14958e-27
-3.5763e-28
-1.05491e-28
-3.02627e-29
-6.93758e-30
-8.79799e-31
-6.51152e-32
-3.93958e-33
-2.20319e-34
-9.38361e-36
-3.34702e-37
-9.20601e-39
-7.75059e-40
-4.52037e-40
-2.21551e-40
-1.06628e-40
-5.11558e-41
-2.44471e-41
-1.16235e-41
-5.49288e-42
-2.57742e-42
-1.19794e-42
-5.45698e-43
-2.30681e-43
-6.04099e-44
)
;
    }
    outlet
    {
        type            cyclic;
        value           nonuniform List<scalar> 
120
(
7.59536e-28
3.00628e-27
2.27859e-25
6.71521e-26
4.33464e-26
9.04037e-26
1.63842e-25
-1.82904e-26
-1.47967e-25
-1.39261e-25
-1.5646e-25
-2.03516e-25
-1.24358e-25
-7.2547e-26
-4.00643e-26
-2.21982e-26
-1.55272e-26
-1.91139e-26
-3.54207e-26
-7.07892e-26
-1.3504e-25
-2.39507e-25
-3.93222e-25
-6.1161e-25
-2.58221e-25
6.76073e-26
4.25296e-25
5.4665e-25
7.86107e-25
1.18072e-24
1.12952e-24
6.18864e-25
2.24216e-25
-1.17938e-25
-4.58162e-25
-8.49018e-25
-6.95489e-25
2.52713e-26
9.14752e-26
8.33775e-25
3.84207e-25
6.72998e-25
4.36777e-25
3.20761e-25
2.96143e-25
1.00829e-24
5.63714e-25
2.11559e-25
-7.67534e-25
-5.36368e-25
-3.90266e-25
-3.19818e-25
-3.31199e-25
-4.19206e-25
-5.80688e-25
-1.60093e-25
2.59511e-25
7.40386e-25
1.35475e-24
8.81872e-25
5.82878e-25
4.22838e-25
3.82989e-25
4.39207e-25
5.94659e-25
-4.50086e-25
-2.04871e-25
5.60656e-26
3.81115e-25
8.00619e-25
1.37149e-24
8.59431e-25
5.1271e-25
2.84418e-25
1.46641e-25
7.09404e-26
3.43454e-26
2.2414e-26
3.03101e-26
6.37519e-26
1.40948e-25
2.95057e-25
5.74942e-25
1.04111e-24
1.75539e-24
2.82121e-24
1.75538e-24
1.04109e-24
5.7489e-25
2.94878e-25
1.40374e-25
6.20247e-26
2.54596e-26
9.72192e-27
3.45958e-27
1.14958e-27
3.5763e-28
1.05491e-28
3.02627e-29
6.93758e-30
8.79799e-31
6.51152e-32
3.93958e-33
2.20319e-34
9.38361e-36
3.34702e-37
9.20601e-39
7.75059e-40
4.52037e-40
2.21551e-40
1.06628e-40
5.11558e-41
2.44471e-41
1.16235e-41
5.49288e-42
2.57742e-42
1.19794e-42
5.45698e-43
2.30681e-43
6.04099e-44
)
;
    }
    top
    {
        type            fixedValue;
        value           uniform 0;
    }
    bottom
    {
        type            fixedValue;
        value           uniform 0;
    }
    frontAndBackPlanes
    {
        type            empty;
        value           nonuniform List<scalar> 0();
    }
}


// ************************************************************************* //
