/*--------------------------------*- C++ -*----------------------------------*\
| =========                 |                                                 |
| \\      /  F ield         | OpenFOAM: The Open Source CFD Toolbox           |
|  \\    /   O peration     | Version:  2206                                  |
|   \\  /    A nd           | Website:  www.openfoam.com                      |
|    \\/     M anipulation  |                                                 |
\*---------------------------------------------------------------------------*/
FoamFile
{
    version     2.0;
    format      ascii;
    arch        "LSB;label=32;scalar=64";
    class       volVectorField;
    location    "20";
    object      U.a;
}
// * * * * * * * * * * * * * * * * * * * * * * * * * * * * * * * * * * * * * //

dimensions      [0 1 -1 0 0 0 0];

internalField   nonuniform List<vector> 
120
(
(2.49603e-21 5.0578e-09 0)
(4.56514e-21 1.68397e-08 0)
(7.67627e-19 -1.95176e-05 0)
(2.23818e-19 -5.63745e-06 0)
(1.44487e-19 -6.25123e-06 0)
(3.01702e-19 -6.43957e-06 0)
(5.39357e-19 -6.45398e-06 0)
(-6.33887e-20 -6.45369e-06 0)
(-4.79529e-19 -6.45364e-06 0)
(-4.64092e-19 -6.45365e-06 0)
(-5.21422e-19 -6.45364e-06 0)
(-6.64554e-19 -6.45364e-06 0)
(-4.14415e-19 -6.45364e-06 0)
(-2.41824e-19 -6.45364e-06 0)
(-1.33549e-19 -6.45364e-06 0)
(-7.39951e-20 -6.45364e-06 0)
(-5.17581e-20 -6.45364e-06 0)
(-6.37142e-20 -6.45364e-06 0)
(-1.18071e-19 -6.45364e-06 0)
(-2.35967e-19 -6.45364e-06 0)
(-4.50137e-19 -6.45364e-06 0)
(-7.98358e-19 -6.45364e-06 0)
(-1.31029e-18 -6.45364e-06 0)
(-1.98335e-18 -6.45364e-06 0)
(-8.60286e-19 -6.45364e-06 0)
(2.25138e-19 -6.45364e-06 0)
(1.38998e-18 -6.45364e-06 0)
(1.82195e-18 -6.45364e-06 0)
(2.61991e-18 -6.45364e-06 0)
(3.87993e-18 -6.45365e-06 0)
(3.70928e-18 -6.45364e-06 0)
(2.06243e-18 -6.45364e-06 0)
(7.47388e-19 -6.45364e-06 0)
(-3.93122e-19 -6.45364e-06 0)
(-1.52675e-18 -6.45364e-06 0)
(-2.77427e-18 -6.45364e-06 0)
(-2.26296e-18 -6.45364e-06 0)
(2.97894e-20 -6.45364e-06 0)
(3.58919e-19 -6.45364e-06 0)
(2.66946e-18 -6.45364e-06 0)
(1.33469e-18 -6.45364e-06 0)
(2.18843e-18 -6.45364e-06 0)
(1.45549e-18 -6.45364e-06 0)
(1.06965e-18 -6.45364e-06 0)
(1.0416e-18 -6.45365e-06 0)
(3.25073e-18 -6.45364e-06 0)
(1.87771e-18 -6.45364e-06 0)
(6.50746e-19 -6.45364e-06 0)
(-2.44821e-18 -6.45364e-06 0)
(-1.787e-18 -6.45364e-06 0)
(-1.30089e-18 -6.45364e-06 0)
(-1.06607e-18 -6.45364e-06 0)
(-1.104e-18 -6.45364e-06 0)
(-1.39691e-18 -6.45364e-06 0)
(-1.88028e-18 -6.45364e-06 0)
(-5.33188e-19 -6.45364e-06 0)
(8.6504e-19 -6.45364e-06 0)
(2.46705e-18 -6.45365e-06 0)
(4.40515e-18 -6.45364e-06 0)
(2.93869e-18 -6.45364e-06 0)
(1.94293e-18 -6.45364e-06 0)
(1.40947e-18 -6.45364e-06 0)
(1.27663e-18 -6.45364e-06 0)
(1.46313e-18 -6.45364e-06 0)
(1.87241e-18 -6.45365e-06 0)
(-1.39049e-18 -6.45364e-06 0)
(-6.82001e-19 -6.45364e-06 0)
(1.86899e-19 -6.45364e-06 0)
(1.27039e-18 -6.45364e-06 0)
(2.66784e-18 -6.45364e-06 0)
(4.46094e-18 -6.45364e-06 0)
(2.86388e-18 -6.45364e-06 0)
(1.70904e-18 -6.45364e-06 0)
(9.48069e-19 -6.45365e-06 0)
(4.8881e-19 -6.45364e-06 0)
(2.36471e-19 -6.45364e-06 0)
(1.14487e-19 -6.45364e-06 0)
(7.4715e-20 -6.45364e-06 0)
(1.01036e-19 -6.45364e-06 0)
(2.1251e-19 -6.45364e-06 0)
(4.69834e-19 -6.45364e-06 0)
(9.83535e-19 -6.45364e-06 0)
(1.91649e-18 -6.45364e-06 0)
(3.47037e-18 -6.45364e-06 0)
(5.84951e-18 -6.45364e-06 0)
(9.18268e-18 -6.45364e-06 0)
(5.8495e-18 -6.45364e-06 0)
(3.47032e-18 -6.45364e-06 0)
(1.91632e-18 -6.45364e-06 0)
(9.82937e-19 -6.45364e-06 0)
(4.67919e-19 -6.45364e-06 0)
(2.06753e-19 -6.45364e-06 0)
(8.48673e-20 -6.45364e-06 0)
(3.24072e-20 -6.45364e-06 0)
(1.15323e-20 -6.45364e-06 0)
(3.83207e-21 -6.45364e-06 0)
(1.19215e-21 -6.45365e-06 0)
(3.51849e-22 -6.45366e-06 0)
(1.01371e-22 -6.45365e-06 0)
(2.35561e-23 -6.45328e-06 0)
(2.99284e-24 -6.45088e-06 0)
(2.21268e-25 -6.46168e-06 0)
(1.31314e-26 -6.57011e-06 0)
(7.36565e-28 -6.54035e-06 0)
(3.12568e-29 -3.3003e-06 0)
(1.11466e-30 4.6321e-06 0)
(3.06529e-32 -7.03356e-05 0)
(2.58138e-33 -0.000265118 0)
(1.5076e-33 -0.000177892 0)
(7.33523e-34 -0.000173639 0)
(2.423e-34 -0.000224113 0)
(5.43858e-37 -0.000228414 0)
(4.89137e-37 -0.000228415 0)
(4.79549e-37 -0.000228414 0)
(4.64623e-37 -0.00022839 0)
(4.31186e-37 -0.000228311 0)
(3.91395e-37 -0.000228157 0)
(3.58403e-37 -0.000227838 0)
(3.33474e-37 -0.000226782 0)
(2.94911e-37 -0.000218654 0)
)
;

boundaryField
{
    inlet
    {
        type            cyclic;
    }
    outlet
    {
        type            cyclic;
    }
    top
    {
        type            fixedValue;
        value           uniform (0 0 0);
    }
    bottom
    {
        type            fixedValue;
        value           uniform (0 0 0);
    }
    frontAndBackPlanes
    {
        type            empty;
    }
}


// ************************************************************************* //
