/*--------------------------------*- C++ -*----------------------------------*\
| =========                 |                                                 |
| \\      /  F ield         | OpenFOAM: The Open Source CFD Toolbox           |
|  \\    /   O peration     | Version:  2206                                  |
|   \\  /    A nd           | Website:  www.openfoam.com                      |
|    \\/     M anipulation  |                                                 |
\*---------------------------------------------------------------------------*/
FoamFile
{
    version     2.0;
    format      ascii;
    arch        "LSB;label=32;scalar=64";
    class       volVectorField;
    location    "20";
    object      U.b;
}
// * * * * * * * * * * * * * * * * * * * * * * * * * * * * * * * * * * * * * //

dimensions      [0 1 -1 0 0 0 0];

internalField   nonuniform List<vector> 
120
(
(2.53179e-21 6.09824e-08 0)
(1.00209e-20 3.9997e-06 0)
(7.59532e-19 -6.8666e-06 0)
(2.2384e-19 7.01418e-06 0)
(1.44488e-19 6.6122e-06 0)
(3.01346e-19 6.46496e-06 0)
(5.46141e-19 6.45328e-06 0)
(-6.0968e-20 6.45359e-06 0)
(-4.93222e-19 6.45365e-06 0)
(-4.64203e-19 6.45364e-06 0)
(-5.21534e-19 6.45364e-06 0)
(-6.78388e-19 6.45364e-06 0)
(-4.14526e-19 6.45364e-06 0)
(-2.41823e-19 6.45364e-06 0)
(-1.33548e-19 6.45364e-06 0)
(-7.39941e-20 6.45364e-06 0)
(-5.17572e-20 6.45364e-06 0)
(-6.37131e-20 6.45364e-06 0)
(-1.18069e-19 6.45364e-06 0)
(-2.35964e-19 6.45364e-06 0)
(-4.50134e-19 6.45364e-06 0)
(-7.98357e-19 6.45364e-06 0)
(-1.31074e-18 6.45364e-06 0)
(-2.0387e-18 6.45364e-06 0)
(-8.60735e-19 6.45364e-06 0)
(2.25358e-19 6.45364e-06 0)
(1.41765e-18 6.45364e-06 0)
(1.82217e-18 6.45364e-06 0)
(2.62036e-18 6.45364e-06 0)
(3.93572e-18 6.45364e-06 0)
(3.76507e-18 6.45364e-06 0)
(2.06288e-18 6.45364e-06 0)
(7.47387e-19 6.45365e-06 0)
(-3.93125e-19 6.45364e-06 0)
(-1.52721e-18 6.45364e-06 0)
(-2.83006e-18 6.45364e-06 0)
(-2.3183e-18 6.45364e-06 0)
(8.42377e-20 6.45364e-06 0)
(3.04917e-19 6.45364e-06 0)
(2.77925e-18 6.45364e-06 0)
(1.28069e-18 6.45364e-06 0)
(2.24333e-18 6.45365e-06 0)
(1.45592e-18 6.45365e-06 0)
(1.0692e-18 6.45364e-06 0)
(9.87143e-19 6.45364e-06 0)
(3.36097e-18 6.45364e-06 0)
(1.87905e-18 6.45364e-06 0)
(7.05197e-19 6.45364e-06 0)
(-2.55845e-18 6.45364e-06 0)
(-1.78789e-18 6.45365e-06 0)
(-1.30089e-18 6.45364e-06 0)
(-1.06606e-18 6.45364e-06 0)
(-1.104e-18 6.45364e-06 0)
(-1.39735e-18 6.45364e-06 0)
(-1.93563e-18 6.45364e-06 0)
(-5.33642e-19 6.45364e-06 0)
(8.65038e-19 6.45364e-06 0)
(2.46795e-18 6.45364e-06 0)
(4.51583e-18 6.45364e-06 0)
(2.93957e-18 6.45364e-06 0)
(1.94293e-18 6.45365e-06 0)
(1.40946e-18 6.45364e-06 0)
(1.27663e-18 6.45364e-06 0)
(1.46402e-18 6.45364e-06 0)
(1.9822e-18 6.45364e-06 0)
(-1.50029e-18 6.45364e-06 0)
(-6.82902e-19 6.45365e-06 0)
(1.86885e-19 6.45364e-06 0)
(1.27038e-18 6.45364e-06 0)
(2.66873e-18 6.45365e-06 0)
(4.57162e-18 6.45364e-06 0)
(2.86477e-18 6.45365e-06 0)
(1.70903e-18 6.45364e-06 0)
(9.48061e-19 6.45364e-06 0)
(4.88805e-19 6.45364e-06 0)
(2.36468e-19 6.45364e-06 0)
(1.14485e-19 6.45365e-06 0)
(7.47133e-20 6.45364e-06 0)
(1.01034e-19 6.45365e-06 0)
(2.12506e-19 6.45364e-06 0)
(4.69827e-19 6.45364e-06 0)
(9.83523e-19 6.45364e-06 0)
(1.91647e-18 6.45364e-06 0)
(3.47036e-18 6.45364e-06 0)
(5.85129e-18 6.45364e-06 0)
(9.40405e-18 6.45364e-06 0)
(5.85128e-18 6.45364e-06 0)
(3.47031e-18 6.45364e-06 0)
(1.9163e-18 6.45364e-06 0)
(9.82926e-19 6.45364e-06 0)
(4.67912e-19 6.45364e-06 0)
(2.06749e-19 6.45364e-06 0)
(8.48654e-20 6.45364e-06 0)
(3.24064e-20 6.45364e-06 0)
(1.15319e-20 6.45364e-06 0)
(3.83193e-21 6.45364e-06 0)
(1.1921e-21 6.45364e-06 0)
(3.51636e-22 6.45363e-06 0)
(1.00876e-22 6.45363e-06 0)
(2.31253e-23 6.45402e-06 0)
(2.93266e-24 6.45641e-06 0)
(2.17051e-25 6.44515e-06 0)
(1.31319e-26 6.33725e-06 0)
(7.34397e-28 6.37712e-06 0)
(3.12787e-29 9.63241e-06 0)
(1.11567e-30 1.74635e-05 0)
(3.06867e-32 -5.86925e-05 0)
(2.58353e-33 -0.000230153 0)
(1.50679e-33 2.20676e-05 0)
(7.38503e-34 4.16123e-05 0)
(3.55428e-34 2.1913e-06 0)
(1.70519e-34 -2.6805e-06 0)
(8.14903e-35 -5.24042e-07 0)
(3.8745e-35 1.36273e-07 0)
(1.83096e-35 5.87977e-08 0)
(8.59139e-36 -1.69034e-09 0)
(3.99314e-36 -4.27277e-09 0)
(1.81899e-36 -2.82636e-10 0)
(7.68938e-37 3.37413e-10 0)
(2.01366e-37 8.94856e-11 0)
)
;

boundaryField
{
    inlet
    {
        type            cyclic;
    }
    outlet
    {
        type            cyclic;
    }
    top
    {
        type            fixedValue;
        value           uniform (0 0 0);
    }
    bottom
    {
        type            fixedValue;
        value           uniform (0 0 0);
    }
    frontAndBackPlanes
    {
        type            empty;
    }
}


// ************************************************************************* //
