/*--------------------------------*- C++ -*----------------------------------*\
| =========                 |                                                 |
| \\      /  F ield         | OpenFOAM: The Open Source CFD Toolbox           |
|  \\    /   O peration     | Version:  v2006                                 |
|   \\  /    A nd           | Website:  www.openfoam.com                      |
|    \\/     M anipulation  |                                                 |
\*---------------------------------------------------------------------------*/
FoamFile
{
    version     2.0;
    format      ascii;
    class       volScalarField;
    location    "1780";
    object      p;
}
// * * * * * * * * * * * * * * * * * * * * * * * * * * * * * * * * * * * * * //

dimensions      [1 -1 -2 0 0 0 0];


internalField   nonuniform List<scalar> 
120
(
-2.30622
-6.96598
-11.6257
-16.2855
-20.9453
-25.605
-30.2648
-34.9246
-39.5843
-44.2441
-48.9039
-53.5637
-58.2235
-62.8833
-67.5431
-72.2029
-76.8627
-81.5225
-86.1823
-90.8422
-95.502
-100.162
-104.822
-109.481
-114.141
-118.801
-123.461
-128.121
-132.781
-137.441
-142.1
-146.76
-151.42
-156.08
-160.74
-165.4
-170.06
-174.72
-179.38
-184.04
-188.699
-193.359
-198.019
-202.679
-207.339
-211.999
-216.659
-221.319
-225.979
-230.639
-235.299
-239.959
-244.619
-249.279
-253.939
-258.599
-263.259
-267.919
-272.579
-277.239
-281.899
-286.559
-291.219
-295.879
-300.539
-305.199
-309.859
-314.519
-319.179
-323.839
-328.499
-333.16
-337.82
-342.48
-347.14
-351.8
-356.46
-361.12
-365.78
-370.441
-375.101
-379.761
-384.421
-389.081
-393.741
-398.402
-403.062
-407.722
-412.382
-417.042
-421.701
-426.367
-431.027
-435.687
-440.346
-445.006
-449.666
-454.326
-458.985
-463.645
-468.305
-472.965
-477.624
-482.284
-486.944
-491.604
-496.263
-500.923
-505.583
-510.243
-514.902
-519.562
-524.222
-528.882
-533.541
-538.201
-542.861
-547.521
-552.18
-556.84
)
;

boundaryField
{
    inlet
    {
        type            cyclic;
    }
    outlet
    {
        type            cyclic;
    }
    top
    {
        type            calculated;
        value           uniform -559.17;
    }
    bottom
    {
        type            calculated;
        value           uniform 0.0236509;
    }
    frontAndBackPlanes
    {
        type            empty;
    }
}


// ************************************************************************* //
