/*--------------------------------*- C++ -*----------------------------------*\
| =========                 |                                                 |
| \\      /  F ield         | OpenFOAM: The Open Source CFD Toolbox           |
|  \\    /   O peration     | Version:  v2006                                 |
|   \\  /    A nd           | Website:  www.openfoam.com                      |
|    \\/     M anipulation  |                                                 |
\*---------------------------------------------------------------------------*/
FoamFile
{
    version     2.0;
    format      ascii;
    class       volScalarField;
    location    "1780";
    object      p_p_total;
}
// * * * * * * * * * * * * * * * * * * * * * * * * * * * * * * * * * * * * * //

dimensions      [1 -1 -2 0 0 0 0];


internalField   nonuniform List<scalar> 
120
(
26.2585
25.9642
25.6699
25.3756
25.0813
24.7871
24.4929
24.1987
23.9046
23.6105
23.3164
23.0223
22.7283
22.4343
22.1403
21.8464
21.5525
21.2586
20.9648
20.671
20.3772
20.0834
19.7897
19.496
19.2024
18.9088
18.6152
18.3216
18.0281
17.7347
17.4412
17.1478
16.8545
16.5612
16.2679
15.9746
15.6814
15.3883
15.0952
14.8021
14.5091
14.2161
13.9232
13.6303
13.3374
13.0446
12.7519
12.4592
12.1666
11.874
11.5814
11.289
10.9965
10.7042
10.4119
10.1196
9.82746
9.53534
9.2433
8.95132
8.65941
8.36757
8.07582
7.78413
7.49253
7.20101
6.90958
6.61824
6.32699
6.03583
5.74477
5.45382
5.16298
4.87226
4.58165
4.29118
4.00084
3.71066
3.42063
3.13077
2.84109
2.55162
2.26237
1.97335
1.68458
1.39613
1.10822
0.820664
0.529012
0.232454
0
0
0
0
0
0
0
0
0
0
0
0
0
0
0
0
0
0
0
0
0
0
0
0
0
0
0
0
0
0
)
;

boundaryField
{
    inlet
    {
        type            cyclic;
    }
    outlet
    {
        type            cyclic;
    }
    top
    {
        type            calculated;
        value           uniform 0;
    }
    bottom
    {
        type            calculated;
        value           uniform 26.2585;
    }
    frontAndBackPlanes
    {
        type            empty;
    }
}


// ************************************************************************* //
