/*--------------------------------*- C++ -*----------------------------------*\
| =========                 |                                                 |
| \\      /  F ield         | OpenFOAM: The Open Source CFD Toolbox           |
|  \\    /   O peration     | Version:  v2006                                 |
|   \\  /    A nd           | Website:  www.openfoam.com                      |
|    \\/     M anipulation  |                                                 |
\*---------------------------------------------------------------------------*/
FoamFile
{
    version     2.0;
    format      ascii;
    class       surfaceScalarField;
    location    "1780";
    object      phia;
}
// * * * * * * * * * * * * * * * * * * * * * * * * * * * * * * * * * * * * * //

dimensions      [0 3 -1 0 0 0 0];
oriented        oriented;


internalField   nonuniform List<scalar> 
119
(
-8.6037e-18
-1.73068e-17
-2.61096e-17
-3.50129e-17
-4.40192e-17
-5.31297e-17
-6.23458e-17
-7.16688e-17
-8.10999e-17
-9.06403e-17
-1.00291e-16
-1.10054e-16
-1.19929e-16
-1.29917e-16
-1.4002e-16
-1.50238e-16
-1.60572e-16
-1.71022e-16
-1.81589e-16
-1.92274e-16
-2.03077e-16
-2.13999e-16
-2.25039e-16
-2.36198e-16
-2.47476e-16
-2.58874e-16
-2.70392e-16
-2.82029e-16
-2.93786e-16
-3.05664e-16
-3.17662e-16
-3.2978e-16
-3.42019e-16
-3.5438e-16
-3.66863e-16
-3.79469e-16
-3.922e-16
-4.05057e-16
-4.18043e-16
-4.31161e-16
-4.44414e-16
-4.57805e-16
-4.71341e-16
-4.85027e-16
-4.98868e-16
-5.12873e-16
-5.27047e-16
-5.414e-16
-5.5594e-16
-5.70675e-16
-5.85616e-16
-6.00771e-16
-6.16152e-16
-6.31768e-16
-6.47631e-16
-6.63752e-16
-6.80145e-16
-6.96821e-16
-7.13795e-16
-7.31078e-16
-7.48682e-16
-7.66619e-16
-7.84894e-16
-8.0351e-16
-8.22464e-16
-8.41745e-16
-8.61336e-16
-8.81217e-16
-9.01365e-16
-9.21763e-16
-9.42408e-16
-9.63324e-16
-9.84574e-16
-1.00627e-15
-1.0286e-15
-1.05177e-15
-1.07607e-15
-1.10175e-15
-1.129e-15
-1.15787e-15
-1.18808e-15
-1.21895e-15
-1.2491e-15
-1.27663e-15
-1.29794e-15
-1.3107e-15
-1.30375e-15
-1.37851e-15
-1.33725e-15
-3.67386e-15
-1.0112e-12
-4.73352e-11
-5.14101e-11
-8.22259e-11
-8.2271e-11
-8.22745e-11
-8.22765e-11
-8.22767e-11
-8.22766e-11
-8.22766e-11
-8.22766e-11
-8.22766e-11
-8.22766e-11
-8.22766e-11
-8.22766e-11
-8.22766e-11
-8.22766e-11
-8.22766e-11
-8.22766e-11
-8.22766e-11
-8.22766e-11
-8.22766e-11
-8.22766e-11
-8.22766e-11
-8.22766e-11
-8.22766e-11
-8.22766e-11
-8.22565e-11
-8.21697e-11
)
;

boundaryField
{
    inlet
    {
        type            cyclic;
        value           nonuniform List<scalar> 
120
(
-1.29794e-27
-3.89548e-27
-6.49698e-27
-9.07475e-27
-1.16618e-26
-1.42609e-26
-1.68746e-26
-1.94447e-26
-2.20346e-26
-2.47076e-26
-2.74054e-26
-3.01306e-26
-3.29463e-26
-3.57941e-26
-3.86765e-26
-4.15957e-26
-4.45539e-26
-4.75532e-26
-5.05958e-26
-5.36837e-26
-5.68187e-26
-6.00027e-26
-6.32373e-26
-6.65242e-26
-7.01076e-26
-7.37461e-26
-7.7441e-26
-8.10721e-26
-8.47617e-26
-8.85105e-26
-9.20768e-26
-9.5461e-26
-9.89059e-26
-1.02412e-25
-1.05978e-25
-1.09605e-25
-1.13535e-25
-1.17766e-25
-1.21814e-25
-1.26161e-25
-1.3008e-25
-1.34296e-25
-1.38323e-25
-1.42401e-25
-1.46527e-25
-1.50942e-25
-1.54917e-25
-1.58933e-25
-1.62744e-25
-1.67073e-25
-1.71433e-25
-1.75821e-25
-1.80231e-25
-1.8466e-25
-1.89104e-25
-1.93799e-25
-1.98499e-25
-2.032e-25
-2.07896e-25
-2.121e-25
-2.16289e-25
-2.20457e-25
-2.24599e-25
-2.28709e-25
-2.32783e-25
-2.36332e-25
-2.40315e-25
-2.44244e-25
-2.48113e-25
-2.51917e-25
-2.55651e-25
-2.58828e-25
-2.61923e-25
-2.64933e-25
-2.67851e-25
-2.70672e-25
-2.73393e-25
-2.76009e-25
-2.78515e-25
-2.80907e-25
-2.83183e-25
-2.85337e-25
-2.87368e-25
-2.89272e-25
-2.91046e-25
-2.92689e-25
-2.93245e-25
-2.93665e-25
-2.93949e-25
-2.94095e-25
-2.94152e-25
-2.90209e-25
-2.82067e-25
-2.73709e-25
-2.65247e-25
-2.56672e-25
-2.47964e-25
-2.39116e-25
-2.3012e-25
-2.20968e-25
-2.11654e-25
-2.02173e-25
-1.92522e-25
-1.82698e-25
-1.72701e-25
-1.62532e-25
-1.52193e-25
-1.41688e-25
-1.31021e-25
-1.202e-25
-1.09233e-25
-9.81284e-26
-8.68986e-26
-7.55532e-26
-6.41071e-26
-5.25736e-26
-4.09673e-26
-2.93037e-26
-1.75988e-26
-5.86965e-27
)
;
    }
    outlet
    {
        type            cyclic;
        value           nonuniform List<scalar> 
120
(
1.29794e-27
3.89548e-27
6.49698e-27
9.07475e-27
1.16618e-26
1.42609e-26
1.68746e-26
1.94447e-26
2.20346e-26
2.47076e-26
2.74054e-26
3.01306e-26
3.29463e-26
3.57941e-26
3.86765e-26
4.15957e-26
4.45539e-26
4.75532e-26
5.05958e-26
5.36837e-26
5.68187e-26
6.00027e-26
6.32373e-26
6.65242e-26
7.01076e-26
7.37461e-26
7.7441e-26
8.10721e-26
8.47617e-26
8.85105e-26
9.20768e-26
9.5461e-26
9.89059e-26
1.02412e-25
1.05978e-25
1.09605e-25
1.13535e-25
1.17766e-25
1.21814e-25
1.26161e-25
1.3008e-25
1.34296e-25
1.38323e-25
1.42401e-25
1.46527e-25
1.50942e-25
1.54917e-25
1.58933e-25
1.62744e-25
1.67073e-25
1.71433e-25
1.75821e-25
1.80231e-25
1.8466e-25
1.89104e-25
1.93799e-25
1.98499e-25
2.032e-25
2.07896e-25
2.121e-25
2.16289e-25
2.20457e-25
2.24599e-25
2.28709e-25
2.32783e-25
2.36332e-25
2.40315e-25
2.44244e-25
2.48113e-25
2.51917e-25
2.55651e-25
2.58828e-25
2.61923e-25
2.64933e-25
2.67851e-25
2.70672e-25
2.73393e-25
2.76009e-25
2.78515e-25
2.80907e-25
2.83183e-25
2.85337e-25
2.87368e-25
2.89272e-25
2.91046e-25
2.92689e-25
2.93245e-25
2.93665e-25
2.93949e-25
2.94095e-25
2.94152e-25
2.90209e-25
2.82067e-25
2.73709e-25
2.65247e-25
2.56672e-25
2.47964e-25
2.39116e-25
2.3012e-25
2.20968e-25
2.11654e-25
2.02173e-25
1.92522e-25
1.82698e-25
1.72701e-25
1.62532e-25
1.52193e-25
1.41688e-25
1.31021e-25
1.202e-25
1.09233e-25
9.81284e-26
8.68986e-26
7.55532e-26
6.41071e-26
5.25736e-26
4.09673e-26
2.93037e-26
1.75988e-26
5.86965e-27
)
;
    }
    top
    {
        type            fixedValue;
        value           uniform 0;
    }
    bottom
    {
        type            fixedValue;
        value           uniform 0;
    }
    frontAndBackPlanes
    {
        type            empty;
        value           nonuniform List<scalar> 0();
    }
}


// ************************************************************************* //
