/*--------------------------------*- C++ -*----------------------------------*\
| =========                 |                                                 |
| \\      /  F ield         | OpenFOAM: The Open Source CFD Toolbox           |
|  \\    /   O peration     | Version:  v2006                                 |
|   \\  /    A nd           | Website:  www.openfoam.com                      |
|    \\/     M anipulation  |                                                 |
\*---------------------------------------------------------------------------*/
FoamFile
{
    version     2.0;
    format      ascii;
    class       surfaceScalarField;
    location    "1780";
    object      phib;
}
// * * * * * * * * * * * * * * * * * * * * * * * * * * * * * * * * * * * * * //

dimensions      [0 3 -1 0 0 0 0];
oriented        oriented;


internalField   nonuniform List<scalar> 
119
(
1.2909e-17
2.59622e-17
3.91597e-17
5.25026e-17
6.59944e-17
7.96368e-17
9.34316e-17
1.07381e-16
1.21486e-16
1.35748e-16
1.50169e-16
1.6475e-16
1.79493e-16
1.94399e-16
2.09469e-16
2.24703e-16
2.40102e-16
2.55668e-16
2.714e-16
2.87299e-16
3.03366e-16
3.19601e-16
3.36003e-16
3.52573e-16
3.69311e-16
3.86218e-16
4.03292e-16
4.20533e-16
4.37942e-16
4.55518e-16
4.73261e-16
4.91171e-16
5.09247e-16
5.27491e-16
5.45903e-16
5.64484e-16
5.83234e-16
6.02157e-16
6.21255e-16
6.40531e-16
6.59991e-16
6.79638e-16
6.99481e-16
7.19525e-16
7.3978e-16
7.60255e-16
7.80959e-16
8.01904e-16
8.231e-16
8.44561e-16
8.66297e-16
8.88323e-16
9.10651e-16
9.33296e-16
9.56271e-16
9.79593e-16
1.00328e-15
1.02734e-15
1.0518e-15
1.07667e-15
1.10196e-15
1.12769e-15
1.15387e-15
1.18049e-15
1.20754e-15
1.235e-15
1.26284e-15
1.29103e-15
1.31953e-15
1.34829e-15
1.37732e-15
1.40663e-15
1.43631e-15
1.46651e-15
1.49746e-15
1.52949e-15
1.56295e-15
1.59819e-15
1.63545e-15
1.67474e-15
1.71561e-15
1.75697e-15
1.79677e-15
1.83211e-15
1.85771e-15
1.87001e-15
1.85277e-15
1.94867e-15
1.87451e-15
3.43704e-15
2.46605e-13
1.85487e-13
9.92304e-16
1.07546e-20
1.45017e-20
1.93954e-20
2.36934e-20
2.90814e-20
3.2496e-20
3.67649e-20
3.87277e-20
4.1951e-20
4.27622e-20
4.61525e-20
4.81187e-20
5.26542e-20
5.39471e-20
5.68032e-20
5.61898e-20
5.72865e-20
5.50284e-20
5.58661e-20
5.50642e-20
5.73857e-20
5.64372e-20
5.72913e-20
5.484e-20
5.42253e-20
5.01762e-20
)
;

boundaryField
{
    inlet
    {
        type            cyclic;
        value           nonuniform List<scalar> 
120
(
-1.29794e-27
-3.89547e-27
-6.49685e-27
-9.07475e-27
-1.16618e-26
-1.42609e-26
-1.68745e-26
-1.94447e-26
-2.20346e-26
-2.47076e-26
-2.74054e-26
-3.01305e-26
-3.29463e-26
-3.57941e-26
-3.86765e-26
-4.15957e-26
-4.45539e-26
-4.75532e-26
-5.05958e-26
-5.36837e-26
-5.68187e-26
-6.00027e-26
-6.32373e-26
-6.65225e-26
-7.01076e-26
-7.37461e-26
-7.74421e-26
-8.10721e-26
-8.47617e-26
-8.85131e-26
-9.20795e-26
-9.5461e-26
-9.89059e-26
-1.02412e-25
-1.05978e-25
-1.09602e-25
-1.13531e-25
-1.1777e-25
-1.2181e-25
-1.26169e-25
-1.30076e-25
-1.343e-25
-1.38323e-25
-1.42401e-25
-1.46523e-25
-1.50952e-25
-1.54917e-25
-1.58938e-25
-1.62733e-25
-1.67073e-25
-1.71433e-25
-1.75821e-25
-1.80231e-25
-1.8466e-25
-1.89097e-25
-1.93799e-25
-1.98499e-25
-2.032e-25
-2.07911e-25
-2.121e-25
-2.16289e-25
-2.20457e-25
-2.24599e-25
-2.2871e-25
-2.328e-25
-2.36315e-25
-2.40315e-25
-2.44244e-25
-2.48113e-25
-2.51917e-25
-2.55671e-25
-2.58828e-25
-2.61923e-25
-2.64933e-25
-2.67851e-25
-2.70672e-25
-2.73393e-25
-2.76009e-25
-2.78515e-25
-2.80907e-25
-2.83183e-25
-2.85337e-25
-2.87368e-25
-2.89272e-25
-2.91046e-25
-2.92745e-25
-2.93245e-25
-2.93665e-25
-2.93949e-25
-2.94095e-25
-2.94078e-25
-2.90198e-25
-2.82052e-25
-2.73703e-25
-2.65248e-25
-2.56672e-25
-2.47965e-25
-2.39117e-25
-2.30121e-25
-2.20969e-25
-2.11655e-25
-2.02174e-25
-1.92523e-25
-1.82699e-25
-1.72702e-25
-1.62533e-25
-1.52194e-25
-1.41689e-25
-1.31022e-25
-1.20201e-25
-1.09234e-25
-9.81296e-26
-8.68992e-26
-7.55545e-26
-6.41084e-26
-5.25748e-26
-4.09686e-26
-2.9305e-26
-1.76001e-26
-5.8703e-27
)
;
    }
    outlet
    {
        type            cyclic;
        value           nonuniform List<scalar> 
120
(
1.29794e-27
3.89547e-27
6.49685e-27
9.07475e-27
1.16618e-26
1.42609e-26
1.68745e-26
1.94447e-26
2.20346e-26
2.47076e-26
2.74054e-26
3.01305e-26
3.29463e-26
3.57941e-26
3.86765e-26
4.15957e-26
4.45539e-26
4.75532e-26
5.05958e-26
5.36837e-26
5.68187e-26
6.00027e-26
6.32373e-26
6.65225e-26
7.01076e-26
7.37461e-26
7.74421e-26
8.10721e-26
8.47617e-26
8.85131e-26
9.20795e-26
9.5461e-26
9.89059e-26
1.02412e-25
1.05978e-25
1.09602e-25
1.13531e-25
1.1777e-25
1.2181e-25
1.26169e-25
1.30076e-25
1.343e-25
1.38323e-25
1.42401e-25
1.46523e-25
1.50952e-25
1.54917e-25
1.58938e-25
1.62733e-25
1.67073e-25
1.71433e-25
1.75821e-25
1.80231e-25
1.8466e-25
1.89097e-25
1.93799e-25
1.98499e-25
2.032e-25
2.07911e-25
2.121e-25
2.16289e-25
2.20457e-25
2.24599e-25
2.2871e-25
2.328e-25
2.36315e-25
2.40315e-25
2.44244e-25
2.48113e-25
2.51917e-25
2.55671e-25
2.58828e-25
2.61923e-25
2.64933e-25
2.67851e-25
2.70672e-25
2.73393e-25
2.76009e-25
2.78515e-25
2.80907e-25
2.83183e-25
2.85337e-25
2.87368e-25
2.89272e-25
2.91046e-25
2.92745e-25
2.93245e-25
2.93665e-25
2.93949e-25
2.94095e-25
2.94078e-25
2.90198e-25
2.82052e-25
2.73703e-25
2.65248e-25
2.56672e-25
2.47965e-25
2.39117e-25
2.30121e-25
2.20969e-25
2.11655e-25
2.02174e-25
1.92523e-25
1.82699e-25
1.72702e-25
1.62533e-25
1.52194e-25
1.41689e-25
1.31022e-25
1.20201e-25
1.09234e-25
9.81296e-26
8.68992e-26
7.55545e-26
6.41084e-26
5.25748e-26
4.09686e-26
2.9305e-26
1.76001e-26
5.8703e-27
)
;
    }
    top
    {
        type            fixedValue;
        value           uniform 0;
    }
    bottom
    {
        type            fixedValue;
        value           uniform 0;
    }
    frontAndBackPlanes
    {
        type            empty;
        value           nonuniform List<scalar> 0();
    }
}


// ************************************************************************* //
