/*--------------------------------*- C++ -*----------------------------------*\
| =========                 |                                                 |
| \\      /  F ield         | OpenFOAM: The Open Source CFD Toolbox           |
|  \\    /   O peration     | Version:  v2006                                 |
|   \\  /    A nd           | Website:  www.openfoam.com                      |
|    \\/     M anipulation  |                                                 |
\*---------------------------------------------------------------------------*/
FoamFile
{
    version     2.0;
    format      ascii;
    class       volTensorField;
    location    "1780";
    object      Taua;
}
// * * * * * * * * * * * * * * * * * * * * * * * * * * * * * * * * * * * * * //

dimensions      [1 -1 -2 0 0 0 0];


internalField   nonuniform List<tensor> 
120
(
(1.67551e-05 0 0 1.8177e-14 -3.35102e-05 0 0 0 1.67551e-05)
(1.69078e-05 0 0 1.81966e-14 -3.38157e-05 0 0 0 1.69078e-05)
(1.71107e-05 0 0 1.81275e-14 -3.42214e-05 0 0 0 1.71107e-05)
(1.7308e-05 0 0 1.8077e-14 -3.4616e-05 0 0 0 1.7308e-05)
(1.75107e-05 0 0 1.81516e-14 -3.50213e-05 0 0 0 1.75107e-05)
(1.77151e-05 0 0 1.82446e-14 -3.54302e-05 0 0 0 1.77151e-05)
(1.79203e-05 0 0 1.81432e-14 -3.58406e-05 0 0 0 1.79203e-05)
(1.8128e-05 0 0 1.806e-14 -3.62559e-05 0 0 0 1.8128e-05)
(1.83382e-05 0 0 1.84201e-14 -3.66764e-05 0 0 0 1.83382e-05)
(1.85508e-05 0 0 1.87979e-14 -3.71017e-05 0 0 0 1.85508e-05)
(1.87656e-05 0 0 1.89806e-14 -3.75313e-05 0 0 0 1.87656e-05)
(1.89825e-05 0 0 1.9393e-14 -3.79651e-05 0 0 0 1.89825e-05)
(1.92014e-05 0 0 1.98224e-14 -3.84028e-05 0 0 0 1.92014e-05)
(1.94221e-05 0 0 2.00558e-14 -3.88442e-05 0 0 0 1.94221e-05)
(1.96444e-05 0 0 2.03054e-14 -3.92889e-05 0 0 0 1.96444e-05)
(1.98683e-05 0 0 2.05708e-14 -3.97366e-05 0 0 0 1.98683e-05)
(2.00936e-05 0 0 2.08514e-14 -4.01871e-05 0 0 0 2.00936e-05)
(2.03201e-05 0 0 2.11469e-14 -4.06401e-05 0 0 0 2.03201e-05)
(2.05477e-05 0 0 2.14566e-14 -4.10953e-05 0 0 0 2.05477e-05)
(2.07763e-05 0 0 2.178e-14 -4.15525e-05 0 0 0 2.07763e-05)
(2.10057e-05 0 0 2.21164e-14 -4.20115e-05 0 0 0 2.10057e-05)
(2.1236e-05 0 0 2.24652e-14 -4.24719e-05 0 0 0 2.1236e-05)
(2.14669e-05 0 0 2.28255e-14 -4.29337e-05 0 0 0 2.14669e-05)
(2.16983e-05 0 0 2.4046e-14 -4.33966e-05 0 0 0 2.16983e-05)
(2.19303e-05 0 0 2.52766e-14 -4.38605e-05 0 0 0 2.19303e-05)
(2.21626e-05 0 0 2.5667e-14 -4.43252e-05 0 0 0 2.21626e-05)
(2.23953e-05 0 0 2.56411e-14 -4.47905e-05 0 0 0 2.23953e-05)
(2.26282e-05 0 0 2.56224e-14 -4.52565e-05 0 0 0 2.26282e-05)
(2.28615e-05 0 0 2.60344e-14 -4.5723e-05 0 0 0 2.28615e-05)
(2.30951e-05 0 0 2.56028e-14 -4.61902e-05 0 0 0 2.30951e-05)
(2.3329e-05 0 0 2.43266e-14 -4.66581e-05 0 0 0 2.3329e-05)
(2.35635e-05 0 0 2.39019e-14 -4.7127e-05 0 0 0 2.35635e-05)
(2.37987e-05 0 0 2.43274e-14 -4.75973e-05 0 0 0 2.37987e-05)
(2.40349e-05 0 0 2.47531e-14 -4.80697e-05 0 0 0 2.40349e-05)
(2.42725e-05 0 0 2.51777e-14 -4.8545e-05 0 0 0 2.42725e-05)
(2.45122e-05 2.87606e-19 0 2.6448e-14 -4.90243e-05 0 0 0 2.45122e-05)
(2.47545e-05 0 0 2.85627e-14 -4.9509e-05 0 0 0 2.47545e-05)
(2.50003e-05 0 0 2.8976e-14 -5.00006e-05 0 0 0 2.50003e-05)
(2.52506e-05 0 0 2.93823e-14 -5.05012e-05 0 0 0 2.52506e-05)
(2.55065e-05 0 0 2.89327e-14 -5.10129e-05 0 0 0 2.55065e-05)
(2.57691e-05 0 0 2.84731e-14 -5.15382e-05 0 0 0 2.57691e-05)
(2.60398e-05 0 0 2.885e-14 -5.20796e-05 0 0 0 2.60398e-05)
(2.632e-05 0 0 2.83663e-14 -5.26399e-05 0 0 0 2.632e-05)
(2.66109e-05 0 0 2.87155e-14 -5.32218e-05 0 0 0 2.66109e-05)
(2.6914e-05 0 0 2.98955e-14 -5.3828e-05 0 0 0 2.6914e-05)
(2.72305e-05 0 0 2.93638e-14 -5.4461e-05 0 0 0 2.72305e-05)
(2.75615e-05 0 0 2.79656e-14 -5.51231e-05 0 0 0 2.75615e-05)
(2.79082e-05 0 0 2.73936e-14 -5.58165e-05 0 0 0 2.79082e-05)
(2.82715e-05 0 0 2.84922e-14 -5.6543e-05 0 0 0 2.82715e-05)
(2.86522e-05 0 0 3.04134e-14 -5.73044e-05 0 0 0 2.86522e-05)
(2.90511e-05 0 0 3.06158e-14 -5.81022e-05 0 0 0 2.90511e-05)
(2.94689e-05 0 0 3.07911e-14 -5.89378e-05 0 0 0 2.94689e-05)
(2.99065e-05 0 0 3.09379e-14 -5.9813e-05 0 0 0 2.99065e-05)
(3.03648e-05 0 0 3.10548e-14 -6.07295e-05 0 0 0 3.03648e-05)
(3.08447e-05 0 0 3.19861e-14 -6.16895e-05 0 0 0 3.08447e-05)
(3.13476e-05 0 0 3.28851e-14 -6.26951e-05 0 0 0 3.13476e-05)
(3.18744e-05 0 0 3.29048e-14 -6.37487e-05 0 0 0 3.18744e-05)
(3.24261e-05 0 0 3.289e-14 -6.48523e-05 0 0 0 3.24261e-05)
(3.30034e-05 -5.75211e-19 0 3.11496e-14 -6.60067e-05 0 0 0 3.30034e-05)
(3.36056e-05 0 0 2.93724e-14 -6.72112e-05 0 0 0 3.36056e-05)
(3.42311e-05 0 0 2.92479e-14 -6.84622e-05 0 0 0 3.42311e-05)
(3.4876e-05 0 0 2.90857e-14 -6.97521e-05 0 0 0 3.4876e-05)
(3.55343e-05 0 0 2.8885e-14 -7.10686e-05 0 0 0 3.55343e-05)
(3.61971e-05 0 0 2.86455e-14 -7.23942e-05 0 0 0 3.61971e-05)
(3.68532e-05 0 0 2.66791e-14 -7.37064e-05 0 0 0 3.68532e-05)
(3.74898e-05 0 0 2.63606e-14 -7.49796e-05 0 0 0 3.74898e-05)
(3.80944e-05 0 0 2.76904e-14 -7.61888e-05 0 0 0 3.80944e-05)
(3.86576e-05 0 0 2.72937e-14 -7.73151e-05 0 0 0 3.86576e-05)
(3.91772e-05 0 0 2.68581e-14 -7.83545e-05 0 0 0 3.91772e-05)
(3.96638e-05 0 0 2.63839e-14 -7.93277e-05 0 0 0 3.96638e-05)
(4.01457e-05 0 0 2.4187e-14 -8.02914e-05 0 0 0 4.01457e-05)
(4.0674e-05 0 0 2.19528e-14 -8.13479e-05 0 0 0 4.0674e-05)
(4.13252e-05 0 0 2.13666e-14 -8.26503e-05 0 0 0 4.13252e-05)
(4.21989e-05 0 0 2.07449e-14 -8.43978e-05 0 0 0 4.21989e-05)
(4.34084e-05 0 0 2.00886e-14 -8.68169e-05 0 0 0 4.34084e-05)
(4.50622e-05 0 0 1.93991e-14 -9.01244e-05 0 0 0 4.50622e-05)
(4.72329e-05 0 0 1.86777e-14 -9.44658e-05 0 0 0 4.72329e-05)
(4.99146e-05 0 0 1.79259e-14 -9.98292e-05 0 0 0 4.99146e-05)
(5.29717e-05 0 0 1.71453e-14 -0.000105943 0 0 0 5.29717e-05)
(5.60993e-05 0 0 1.63376e-14 -0.000112199 0 0 0 5.60993e-05)
(5.87793e-05 0 0 1.55047e-14 -0.000117559 0 0 0 5.87793e-05)
(5.99334e-05 0 0 1.46483e-14 -0.000119867 0 0 0 5.99334e-05)
(5.79596e-05 0 0 1.37706e-14 -0.000115919 0 0 0 5.79596e-05)
(5.27262e-05 0 0 1.28735e-14 -0.000105452 0 0 0 5.27262e-05)
(5.2442e-05 0 0 1.19593e-14 -0.000104884 0 0 0 5.2442e-05)
(3.05281e-05 0 0 7.69459e-15 -6.10563e-05 0 0 0 3.05281e-05)
(-7.25741e-05 0 0 3.41733e-15 0.000145148 0 0 0 -7.25741e-05)
(-0.000274127 0 0 2.46558e-15 0.000548254 0 0 0 -0.000274127)
(0.00162466 0 0 1.50576e-15 -0.00324932 0 0 0 0.00162466)
(0.00547945 0 0 7.09065e-16 -0.0109589 0 0 0 0.00547945)
(5.57082e-06 0 0 -5.22791e-21 -1.11416e-05 0 0 0 5.57082e-06)
(3.58774e-07 0 0 -3.28566e-22 -7.17549e-07 0 0 0 3.58774e-07)
(1.95947e-09 0 0 -2.22927e-24 -3.91894e-09 0 0 0 1.95947e-09)
(7.45613e-20 0 0 -1.29464e-34 -1.49123e-19 0 0 0 7.45613e-20)
(2.83973e-30 0 0 -1.14945e-44 -5.67947e-30 0 0 0 2.83973e-30)
(-3.26564e-42 0 0 -1.66404e-54 6.53128e-42 0 0 0 -3.26564e-42)
(1.25668e-53 0 0 -3.06779e-64 -2.51337e-53 0 0 0 1.25668e-53)
(1.36395e-62 0 0 -6.30153e-74 -2.72791e-62 0 0 0 1.36395e-62)
(-1.40304e-73 0 0 -1.49047e-83 2.80607e-73 0 0 0 -1.40304e-73)
(-4.8492e-83 0 0 -3.85019e-93 9.69841e-83 0 0 0 -4.8492e-83)
(-1.05887e-93 0 0 -1.14033e-102 2.11774e-93 0 0 0 -1.05887e-93)
(3.77848e-103 0 0 -3.66672e-112 -7.55697e-103 0 0 0 3.77848e-103)
(6.12614e-114 0 0 -1.31246e-121 -1.22523e-113 0 0 0 6.12614e-114)
(-3.15944e-123 0 0 -4.84977e-131 6.31889e-123 0 0 0 -3.15944e-123)
(-1.8567e-133 0 0 -1.93633e-140 3.7134e-133 0 0 0 -1.8567e-133)
(5.05943e-143 0 0 -8.04761e-150 -1.01189e-142 0 0 0 5.05943e-143)
(-8.76444e-154 0 0 -3.69023e-159 1.75289e-153 0 0 0 -8.76444e-154)
(-3.68592e-163 0 0 -1.77796e-168 7.37184e-163 0 0 0 -3.68592e-163)
(-8.86636e-173 0 0 -9.42223e-178 1.77327e-172 0 0 0 -8.86636e-173)
(1.69215e-182 0 0 -5.20425e-187 -3.3843e-182 0 0 0 1.69215e-182)
(4.85856e-192 0 0 -3.0727e-196 -9.71712e-192 0 0 0 4.85856e-192)
(1.04916e-201 0 0 -1.79758e-205 -2.09832e-201 0 0 0 1.04916e-201)
(-3.32973e-210 0 0 -1.08275e-214 6.65947e-210 0 0 0 -3.32973e-210)
(-4.80316e-217 0 0 -6.4341e-224 9.60633e-217 0 0 0 -4.80316e-217)
(-5.0037e-226 0 0 -3.96586e-233 1.00074e-225 0 0 0 -5.0037e-226)
(-5.49545e-234 0 0 -2.39205e-242 1.09909e-233 0 0 0 -5.49545e-234)
(-1.75555e-240 0 0 -1.4665e-251 3.5111e-240 0 0 0 -1.75555e-240)
(-2.44428e-249 0 0 -8.751e-261 4.88856e-249 0 0 0 -2.44428e-249)
(-1.10761e-257 0 0 -5.48951e-270 2.21522e-257 0 0 0 -1.10761e-257)
(-7.5462e-264 0 0 -3.87925e-279 1.50924e-263 0 0 0 -7.5462e-264)
)
;

boundaryField
{
    inlet
    {
        type            cyclic;
    }
    outlet
    {
        type            cyclic;
    }
    top
    {
        type            extrapolatedCalculated;
        value           uniform (-1.5078e-263 0 0 -3.88092e-279 3.0156e-263 0 0 0 -1.5078e-263);
    }
    bottom
    {
        type            extrapolatedCalculated;
        value           uniform (1.67082e-05 0 0 1.81712e-14 -3.34164e-05 0 0 0 1.67082e-05);
    }
    frontAndBackPlanes
    {
        type            empty;
    }
}


// ************************************************************************* //
