/*--------------------------------*- C++ -*----------------------------------*\
| =========                 |                                                 |
| \\      /  F ield         | OpenFOAM: The Open Source CFD Toolbox           |
|  \\    /   O peration     | Version:  v2006                                 |
|   \\  /    A nd           | Website:  www.openfoam.com                      |
|    \\/     M anipulation  |                                                 |
\*---------------------------------------------------------------------------*/
FoamFile
{
    version     2.0;
    format      ascii;
    class       volTensorField;
    location    "1780";
    object      Taub;
}
// * * * * * * * * * * * * * * * * * * * * * * * * * * * * * * * * * * * * * //

dimensions      [1 -1 -2 0 0 0 0];


internalField   nonuniform List<tensor> 
120
(
(-1.43295e-09 0 0 8.65537e-19 2.86591e-09 0 0 0 -1.43295e-09)
(-9.53196e-10 0 0 8.66413e-19 1.90639e-09 0 0 0 -9.53196e-10)
(-1.02291e-09 0 0 8.63099e-19 2.04581e-09 0 0 0 -1.02291e-09)
(-1.30108e-09 0 0 8.60679e-19 2.60217e-09 0 0 0 -1.30108e-09)
(-1.4053e-09 0 0 8.64165e-19 2.81059e-09 0 0 0 -1.4053e-09)
(-1.26292e-09 0 0 8.68535e-19 2.52584e-09 0 0 0 -1.26292e-09)
(-1.27677e-09 0 0 8.63683e-19 2.55355e-09 0 0 0 -1.27677e-09)
(-1.29115e-09 0 0 8.59701e-19 2.5823e-09 0 0 0 -1.29115e-09)
(-1.3055e-09 0 0 8.76775e-19 2.61101e-09 0 0 0 -1.3055e-09)
(-1.32e-09 0 0 8.94706e-19 2.64e-09 0 0 0 -1.32e-09)
(-1.33463e-09 0 0 9.03352e-19 2.66927e-09 0 0 0 -1.33463e-09)
(-1.34939e-09 0 0 9.22943e-19 2.69878e-09 0 0 0 -1.34939e-09)
(-1.36426e-09 0 0 9.43337e-19 2.72853e-09 0 0 0 -1.36426e-09)
(-1.37924e-09 0 0 9.54385e-19 2.75848e-09 0 0 0 -1.37924e-09)
(-1.39431e-09 0 0 9.66209e-19 2.78862e-09 0 0 0 -1.39431e-09)
(-1.40946e-09 0 0 9.78782e-19 2.81892e-09 0 0 0 -1.40946e-09)
(-1.42468e-09 0 0 9.92081e-19 2.84935e-09 0 0 0 -1.42468e-09)
(-1.43996e-09 0 0 1.00608e-18 2.87991e-09 0 0 0 -1.43996e-09)
(-1.45528e-09 0 0 1.02076e-18 2.91057e-09 0 0 0 -1.45528e-09)
(-1.47065e-09 0 0 1.03608e-18 2.9413e-09 0 0 0 -1.47065e-09)
(-1.48605e-09 0 0 1.05202e-18 2.9721e-09 0 0 0 -1.48605e-09)
(-1.50147e-09 0 0 1.06855e-18 3.00293e-09 0 0 0 -1.50147e-09)
(-1.5169e-09 0 0 1.08534e-18 3.03379e-09 0 0 0 -1.5169e-09)
(-1.53233e-09 0 0 1.1436e-18 3.06466e-09 0 0 0 -1.53233e-09)
(-1.54776e-09 0 0 1.20233e-18 3.09552e-09 0 0 0 -1.54776e-09)
(-1.56318e-09 0 0 1.22071e-18 3.12637e-09 0 0 0 -1.56318e-09)
(-1.57859e-09 0 0 1.21923e-18 3.15718e-09 0 0 0 -1.57859e-09)
(-1.59398e-09 0 0 1.21808e-18 3.18795e-09 0 0 0 -1.59398e-09)
(-1.60934e-09 0 0 1.23819e-18 3.21868e-09 0 0 0 -1.60934e-09)
(-1.62468e-09 0 0 1.21761e-18 3.24936e-09 0 0 0 -1.62468e-09)
(-1.64001e-09 0 0 1.15599e-18 3.28001e-09 0 0 0 -1.64001e-09)
(-1.65532e-09 0 0 1.1357e-18 3.31064e-09 0 0 0 -1.65532e-09)
(-1.67064e-09 0 0 1.15628e-18 3.34127e-09 0 0 0 -1.67064e-09)
(-1.68598e-09 0 0 1.17643e-18 3.37195e-09 0 0 0 -1.68598e-09)
(-1.70137e-09 0 0 1.19596e-18 3.40273e-09 0 0 0 -1.70137e-09)
(-1.71684e-09 0 0 1.25622e-18 3.43369e-09 0 0 0 -1.71684e-09)
(-1.73246e-09 0 0 1.35836e-18 3.46491e-09 0 0 0 -1.73246e-09)
(-1.74825e-09 0 0 1.37668e-18 3.49651e-09 0 0 0 -1.74825e-09)
(-1.76431e-09 0 0 1.39662e-18 3.52861e-09 0 0 0 -1.76431e-09)
(-1.78068e-09 0 0 1.37439e-18 3.56137e-09 0 0 0 -1.78068e-09)
(-1.79747e-09 0 0 1.35189e-18 3.59494e-09 0 0 0 -1.79747e-09)
(-1.81475e-09 0 0 1.37096e-18 3.6295e-09 0 0 0 -1.81475e-09)
(-1.83261e-09 0 0 1.34648e-18 3.66522e-09 0 0 0 -1.83261e-09)
(-1.85115e-09 0 0 1.36286e-18 3.70229e-09 0 0 0 -1.85115e-09)
(-1.87044e-09 0 0 1.42121e-18 3.74088e-09 0 0 0 -1.87044e-09)
(-1.89057e-09 0 0 1.39499e-18 3.78115e-09 0 0 0 -1.89057e-09)
(-1.91162e-09 0 0 1.32691e-18 3.82325e-09 0 0 0 -1.91162e-09)
(-1.93366e-09 0 0 1.29858e-18 3.86731e-09 0 0 0 -1.93366e-09)
(-1.95673e-09 0 0 1.35154e-18 3.91345e-09 0 0 0 -1.95673e-09)
(-1.98089e-09 0 0 1.44527e-18 3.96177e-09 0 0 0 -1.98089e-09)
(-2.00618e-09 0 0 1.45293e-18 4.01236e-09 0 0 0 -2.00618e-09)
(-2.03266e-09 0 0 1.46108e-18 4.06531e-09 0 0 0 -2.03266e-09)
(-2.06035e-09 0 0 1.46788e-18 4.12071e-09 0 0 0 -2.06035e-09)
(-2.08933e-09 0 0 1.47219e-18 4.17865e-09 0 0 0 -2.08933e-09)
(-2.11963e-09 0 0 1.51728e-18 4.23926e-09 0 0 0 -2.11963e-09)
(-2.15133e-09 0 0 1.56082e-18 4.30266e-09 0 0 0 -2.15133e-09)
(-2.18448e-09 0 0 1.56051e-18 4.36895e-09 0 0 0 -2.18448e-09)
(-2.21911e-09 0 0 1.56201e-18 4.43823e-09 0 0 0 -2.21911e-09)
(-2.25524e-09 2.72721e-23 0 1.47688e-18 4.51047e-09 0 0 0 -2.25524e-09)
(-2.29278e-09 0 0 1.39002e-18 4.58555e-09 0 0 0 -2.29278e-09)
(-2.33157e-09 0 0 1.38633e-18 4.66313e-09 0 0 0 -2.33157e-09)
(-2.37129e-09 0 0 1.37846e-18 4.74259e-09 0 0 0 -2.37129e-09)
(-2.41149e-09 0 0 1.36876e-18 4.82298e-09 0 0 0 -2.41149e-09)
(-2.4515e-09 0 0 1.36e-18 4.903e-09 0 0 0 -2.4515e-09)
(-2.49053e-09 0 0 1.26093e-18 4.98105e-09 0 0 0 -2.49053e-09)
(-2.52768e-09 0 0 1.24572e-18 5.05536e-09 0 0 0 -2.52768e-09)
(-2.56211e-09 0 0 1.31418e-18 5.12423e-09 0 0 0 -2.56211e-09)
(-2.59324e-09 0 0 1.2923e-18 5.18649e-09 0 0 0 -2.59324e-09)
(-2.62101e-09 0 0 1.27144e-18 5.24201e-09 0 0 0 -2.62101e-09)
(-2.64621e-09 0 0 1.25202e-18 5.29242e-09 0 0 0 -2.64621e-09)
(-2.67088e-09 0 0 1.14453e-18 5.34175e-09 0 0 0 -2.67088e-09)
(-2.69851e-09 0 0 1.03532e-18 5.39703e-09 0 0 0 -2.69851e-09)
(-2.73421e-09 0 0 1.01062e-18 5.46842e-09 0 0 0 -2.73421e-09)
(-2.78438e-09 0 0 9.80993e-19 5.56876e-09 0 0 0 -2.78438e-09)
(-2.85602e-09 0 0 9.49724e-19 5.71203e-09 0 0 0 -2.85602e-09)
(-2.95529e-09 0 0 9.16885e-19 5.91059e-09 0 0 0 -2.95529e-09)
(-3.08545e-09 0 0 8.8254e-19 6.1709e-09 0 0 0 -3.08545e-09)
(-3.24401e-09 0 0 8.46762e-19 6.48801e-09 0 0 0 -3.24401e-09)
(-3.41929e-09 0 0 8.09626e-19 6.83859e-09 0 0 0 -3.41929e-09)
(-3.5858e-09 0 0 7.71215e-19 7.17161e-09 0 0 0 -3.5858e-09)
(-3.70046e-09 0 0 7.31615e-19 7.40093e-09 0 0 0 -3.70046e-09)
(-3.71056e-09 0 0 6.90915e-19 7.42113e-09 0 0 0 -3.71056e-09)
(-3.55908e-09 0 0 6.49211e-19 7.11816e-09 0 0 0 -3.55908e-09)
(-3.05668e-09 0 0 6.06644e-19 6.11336e-09 0 0 0 -3.05668e-09)
(-1.66897e-09 0 0 5.72456e-19 3.33794e-09 0 0 0 -1.66897e-09)
(-1.95991e-10 0 0 3.62093e-19 3.91982e-10 0 0 0 -1.95991e-10)
(-6.7713e-09 0 0 1.51416e-19 1.35426e-08 0 0 0 -6.7713e-09)
(-8.7853e-09 0 0 1.15756e-19 1.75706e-08 0 0 0 -8.7853e-09)
(3.56316e-07 0 0 7.05919e-20 -7.12632e-07 0 0 0 3.56316e-07)
(-1.0507e-05 0 0 2.11763e-20 2.10139e-05 0 0 0 -1.0507e-05)
(-0.000118837 0 0 -5.09346e-19 0.000237673 0 0 0 -0.000118837)
(-3.8553e-05 0 0 -8.17243e-19 7.7106e-05 0 0 0 -3.8553e-05)
(6.59943e-05 0 0 -1.09969e-18 -0.000131989 0 0 0 6.59943e-05)
(4.4675e-05 0 0 -1.12013e-18 -8.935e-05 0 0 0 4.4675e-05)
(-5.51431e-06 0 0 -1.13524e-18 1.10286e-05 0 0 0 -5.51431e-06)
(-2.7646e-06 0 0 -1.15204e-18 5.5292e-06 0 0 0 -2.7646e-06)
(3.48527e-08 0 0 -1.17016e-18 -6.97054e-08 0 0 0 3.48527e-08)
(2.37855e-07 0 0 -1.18945e-18 -4.75711e-07 0 0 0 2.37855e-07)
(-1.1288e-08 0 0 -1.20975e-18 2.2576e-08 0 0 0 -1.1288e-08)
(-1.48005e-08 0 0 -1.23094e-18 2.96011e-08 0 0 0 -1.48005e-08)
(-1.14834e-09 0 0 -1.25285e-18 2.29667e-09 0 0 0 -1.14834e-09)
(1.28587e-09 0 0 -1.27531e-18 -2.57174e-09 0 0 0 1.28587e-09)
(5.82903e-11 0 0 -1.29816e-18 -1.16581e-10 0 0 0 5.82903e-11)
(-8.29513e-11 0 0 -1.32119e-18 1.65903e-10 0 0 0 -8.29513e-11)
(-1.26238e-11 0 0 -1.34421e-18 2.52476e-11 0 0 0 -1.26238e-11)
(8.49718e-12 0 0 -1.36704e-18 -1.69944e-11 0 0 0 8.49718e-12)
(-3.63072e-13 0 0 -1.38947e-18 7.26145e-13 0 0 0 -3.63072e-13)
(-2.65686e-13 0 0 -1.41129e-18 5.31373e-13 0 0 0 -2.65686e-13)
(-1.32529e-13 0 0 -1.43232e-18 2.65059e-13 0 0 0 -1.32529e-13)
(4.66484e-14 0 0 -1.45237e-18 -9.32968e-14 0 0 0 4.66484e-14)
(2.18935e-14 0 0 -1.47125e-18 -4.3787e-14 0 0 0 2.18935e-14)
(8.78818e-15 0 0 -1.48879e-18 -1.75764e-14 0 0 0 8.78818e-15)
(-1.27823e-14 0 0 -1.50482e-18 2.55646e-14 0 0 0 -1.27823e-14)
(-2.22167e-14 0 0 -1.5192e-18 4.44334e-14 0 0 0 -2.22167e-14)
(-7.54482e-15 0 0 -1.53178e-18 1.50896e-14 0 0 0 -7.54482e-15)
(1.63273e-14 0 0 -1.54246e-18 -3.26546e-14 0 0 0 1.63273e-14)
(6.19346e-14 0 0 -1.55113e-18 -1.23869e-13 0 0 0 6.19346e-14)
(6.11193e-14 0 0 -1.5577e-18 -1.22239e-13 0 0 0 6.11193e-14)
(3.06874e-13 0 0 -1.56212e-18 -6.13748e-13 0 0 0 3.06874e-13)
(1.65361e-12 0 0 -1.5645e-18 -3.30721e-12 0 0 0 1.65361e-12)
)
;

boundaryField
{
    inlet
    {
        type            cyclic;
    }
    outlet
    {
        type            cyclic;
    }
    top
    {
        type            extrapolatedCalculated;
        value           uniform (2.71806e-12 0 0 -1.56522e-18 -5.43611e-12 0 0 0 2.71806e-12);
    }
    bottom
    {
        type            extrapolatedCalculated;
        value           uniform (-1.95745e-09 0 0 8.6526e-19 3.9149e-09 0 0 0 -1.95745e-09);
    }
    frontAndBackPlanes
    {
        type            empty;
    }
}


// ************************************************************************* //
