/*--------------------------------*- C++ -*----------------------------------*\
| =========                 |                                                 |
| \\      /  F ield         | OpenFOAM: The Open Source CFD Toolbox           |
|  \\    /   O peration     | Version:  v2006                                 |
|   \\  /    A nd           | Website:  www.openfoam.com                      |
|    \\/     M anipulation  |                                                 |
\*---------------------------------------------------------------------------*/
FoamFile
{
    version     2.0;
    format      ascii;
    class       volVectorField;
    location    "1780";
    object      Ua;
}
// * * * * * * * * * * * * * * * * * * * * * * * * * * * * * * * * * * * * * //

dimensions      [0 1 -1 0 0 0 0];


internalField   nonuniform List<vector> 
120
(
(4.32646e-21 -1.19344e-11 0)
(1.29849e-20 -3.59372e-11 0)
(2.16566e-20 -6.02425e-11 0)
(3.02492e-20 -8.48249e-11 0)
(3.88728e-20 -1.09694e-10 0)
(4.75364e-20 -1.34855e-10 0)
(5.62486e-20 -1.60308e-10 0)
(6.48156e-20 -1.86056e-10 0)
(7.34486e-20 -2.12103e-10 0)
(8.23586e-20 -2.38451e-10 0)
(9.13513e-20 -2.65105e-10 0)
(1.00435e-19 -2.92067e-10 0)
(1.09821e-19 -3.19341e-10 0)
(1.19314e-19 -3.46928e-10 0)
(1.28922e-19 -3.74832e-10 0)
(1.38652e-19 -4.03055e-10 0)
(1.48513e-19 -4.31599e-10 0)
(1.58511e-19 -4.60465e-10 0)
(1.68653e-19 -4.89656e-10 0)
(1.78946e-19 -5.19173e-10 0)
(1.89396e-19 -5.49017e-10 0)
(2.00009e-19 -5.79189e-10 0)
(2.10791e-19 -6.09691e-10 0)
(2.21747e-19 -6.40523e-10 0)
(2.33692e-19 -6.71686e-10 0)
(2.4582e-19 -7.03181e-10 0)
(2.58137e-19 -7.35008e-10 0)
(2.7024e-19 -7.67167e-10 0)
(2.82539e-19 -7.9966e-10 0)
(2.95035e-19 -8.32486e-10 0)
(3.06923e-19 -8.65646e-10 0)
(3.18203e-19 -8.9914e-10 0)
(3.29686e-19 -9.3297e-10 0)
(3.41372e-19 -9.67136e-10 0)
(3.53261e-19 -1.00164e-09 0)
(3.65351e-19 -1.03649e-09 0)
(3.78449e-19 -1.07168e-09 0)
(3.92553e-19 -1.10721e-09 0)
(4.06045e-19 -1.14311e-09 0)
(4.20537e-19 -1.17936e-09 0)
(4.336e-19 -1.21598e-09 0)
(4.47654e-19 -1.25298e-09 0)
(4.61077e-19 -1.29038e-09 0)
(4.74669e-19 -1.32818e-09 0)
(4.88425e-19 -1.36641e-09 0)
(5.03141e-19 -1.40508e-09 0)
(5.1639e-19 -1.44421e-09 0)
(5.29775e-19 -1.48383e-09 0)
(5.42479e-19 -1.52395e-09 0)
(5.56911e-19 -1.5646e-09 0)
(5.71444e-19 -1.60581e-09 0)
(5.86068e-19 -1.64761e-09 0)
(6.00769e-19 -1.69001e-09 0)
(6.15533e-19 -1.73305e-09 0)
(6.30345e-19 -1.77677e-09 0)
(6.45996e-19 -1.82118e-09 0)
(6.61664e-19 -1.86633e-09 0)
(6.77334e-19 -1.91225e-09 0)
(6.92988e-19 -1.95898e-09 0)
(7.07e-19 -2.00655e-09 0)
(7.20962e-19 -2.05499e-09 0)
(7.34855e-19 -2.10435e-09 0)
(7.48663e-19 -2.15464e-09 0)
(7.62365e-19 -2.20588e-09 0)
(7.75944e-19 -2.25806e-09 0)
(7.87774e-19 -2.31117e-09 0)
(8.01049e-19 -2.36517e-09 0)
(8.14145e-19 -2.42001e-09 0)
(8.27043e-19 -2.47562e-09 0)
(8.39725e-19 -2.53195e-09 0)
(8.52171e-19 -2.58895e-09 0)
(8.6276e-19 -2.64665e-09 0)
(8.73078e-19 -2.70516e-09 0)
(8.83109e-19 -2.76472e-09 0)
(8.92835e-19 -2.82573e-09 0)
(9.02241e-19 -2.88874e-09 0)
(9.11311e-19 -2.95448e-09 0)
(9.20029e-19 -3.0237e-09 0)
(9.28383e-19 -3.09709e-09 0)
(9.36358e-19 -3.17504e-09 0)
(9.43943e-19 -3.25737e-09 0)
(9.51124e-19 -3.34298e-09 0)
(9.57893e-19 -3.42861e-09 0)
(9.64239e-19 -3.50858e-09 0)
(9.70154e-19 -3.57926e-09 0)
(9.75629e-19 -3.65842e-09 0)
(9.77482e-19 -3.66648e-09 0)
(9.78884e-19 -3.45106e-09 0)
(9.7983e-19 -2.88326e-09 0)
(9.80318e-19 -8.09295e-09 0)
(9.80505e-19 -1.85388e-08 0)
(9.67364e-19 -4.14199e-05 0)
(9.40222e-19 -0.00013198 0)
(9.12364e-19 -0.000186449 0)
(8.84156e-19 -0.000228849 0)
(8.55572e-19 -0.000228541 0)
(8.26545e-19 -0.00022851 0)
(7.97054e-19 -0.000228548 0)
(7.67067e-19 -0.000228548 0)
(7.36559e-19 -0.000228546 0)
(7.05513e-19 -0.000228546 0)
(6.73908e-19 -0.000228546 0)
(6.41739e-19 -0.000228546 0)
(6.08995e-19 -0.000228546 0)
(5.75671e-19 -0.000228546 0)
(5.41772e-19 -0.000228546 0)
(5.0731e-19 -0.000228546 0)
(4.72292e-19 -0.000228546 0)
(4.36737e-19 -0.000228546 0)
(4.00666e-19 -0.000228546 0)
(3.64109e-19 -0.000228546 0)
(3.27095e-19 -0.000228546 0)
(2.89662e-19 -0.000228546 0)
(2.51844e-19 -0.000228546 0)
(2.1369e-19 -0.000228546 0)
(1.75245e-19 -0.000228546 0)
(1.36558e-19 -0.000228546 0)
(9.76791e-20 -0.000228518 0)
(5.86628e-20 -0.000228481 0)
(1.95655e-20 -0.000228045 0)
)
;

boundaryField
{
    inlet
    {
        type            cyclic;
    }
    outlet
    {
        type            cyclic;
    }
    top
    {
        type            fixedValue;
        value           uniform (0 0 0);
    }
    bottom
    {
        type            fixedValue;
        value           uniform (0 0 0);
    }
    frontAndBackPlanes
    {
        type            empty;
    }
}


// ************************************************************************* //
