/*--------------------------------*- C++ -*----------------------------------*\
| =========                 |                                                 |
| \\      /  F ield         | OpenFOAM: The Open Source CFD Toolbox           |
|  \\    /   O peration     | Version:  v2006                                 |
|   \\  /    A nd           | Website:  www.openfoam.com                      |
|    \\/     M anipulation  |                                                 |
\*---------------------------------------------------------------------------*/
FoamFile
{
    version     2.0;
    format      ascii;
    class       volVectorField;
    location    "1780";
    object      Ub;
}
// * * * * * * * * * * * * * * * * * * * * * * * * * * * * * * * * * * * * * //

dimensions      [0 1 -1 0 0 0 0];


internalField   nonuniform List<vector> 
120
(
(4.32646e-21 2.93629e-11 0)
(1.29849e-20 5.66175e-11 0)
(2.16562e-20 8.65594e-11 0)
(3.02492e-20 1.18e-10 0)
(3.88728e-20 1.64638e-10 0)
(4.75364e-20 2.02337e-10 0)
(5.62483e-20 2.40434e-10 0)
(6.48156e-20 2.78968e-10 0)
(7.34487e-20 3.17932e-10 0)
(8.23586e-20 3.57331e-10 0)
(9.13513e-20 3.9717e-10 0)
(1.00435e-19 4.37452e-10 0)
(1.09821e-19 4.7818e-10 0)
(1.19314e-19 5.19359e-10 0)
(1.28922e-19 5.60992e-10 0)
(1.38652e-19 6.0308e-10 0)
(1.48513e-19 6.45626e-10 0)
(1.58511e-19 6.88633e-10 0)
(1.68653e-19 7.32102e-10 0)
(1.78946e-19 7.76035e-10 0)
(1.89396e-19 8.20432e-10 0)
(2.00009e-19 8.65294e-10 0)
(2.10791e-19 9.10623e-10 0)
(2.21742e-19 9.56417e-10 0)
(2.33692e-19 1.00268e-09 0)
(2.4582e-19 1.04941e-09 0)
(2.5814e-19 1.0966e-09 0)
(2.7024e-19 1.14426e-09 0)
(2.82539e-19 1.19238e-09 0)
(2.95044e-19 1.24097e-09 0)
(3.06932e-19 1.29003e-09 0)
(3.18203e-19 1.33954e-09 0)
(3.29686e-19 1.38952e-09 0)
(3.41372e-19 1.43997e-09 0)
(3.53261e-19 1.49088e-09 0)
(3.6534e-19 1.54226e-09 0)
(3.78437e-19 1.59411e-09 0)
(3.92566e-19 1.64643e-09 0)
(4.06033e-19 1.69924e-09 0)
(4.20563e-19 1.75253e-09 0)
(4.33587e-19 1.80634e-09 0)
(4.47668e-19 1.86065e-09 0)
(4.61077e-19 1.9155e-09 0)
(4.74669e-19 1.9709e-09 0)
(4.88409e-19 2.02687e-09 0)
(5.03174e-19 2.08345e-09 0)
(5.1639e-19 2.14064e-09 0)
(5.29793e-19 2.19849e-09 0)
(5.42443e-19 2.25702e-09 0)
(5.5691e-19 2.31627e-09 0)
(5.71444e-19 2.37627e-09 0)
(5.86068e-19 2.43705e-09 0)
(6.00769e-19 2.49866e-09 0)
(6.15533e-19 2.56113e-09 0)
(6.30324e-19 2.62449e-09 0)
(6.45996e-19 2.6888e-09 0)
(6.61664e-19 2.75408e-09 0)
(6.77334e-19 2.8204e-09 0)
(6.93037e-19 2.88779e-09 0)
(7.07e-19 2.95631e-09 0)
(7.20962e-19 3.02598e-09 0)
(7.34855e-19 3.09685e-09 0)
(7.48663e-19 3.16893e-09 0)
(7.62365e-19 3.24225e-09 0)
(7.76e-19 3.31677e-09 0)
(7.87716e-19 3.39246e-09 0)
(8.01049e-19 3.46925e-09 0)
(8.14145e-19 3.54704e-09 0)
(8.27043e-19 3.62574e-09 0)
(8.39725e-19 3.70523e-09 0)
(8.52237e-19 3.78548e-09 0)
(8.6276e-19 3.8665e-09 0)
(8.73078e-19 3.94845e-09 0)
(8.83109e-19 4.03166e-09 0)
(8.92835e-19 4.11668e-09 0)
(9.02241e-19 4.20426e-09 0)
(9.11311e-19 4.29533e-09 0)
(9.20029e-19 4.39083e-09 0)
(9.28383e-19 4.49154e-09 0)
(9.36358e-19 4.59771e-09 0)
(9.43943e-19 4.70858e-09 0)
(9.51124e-19 4.82178e-09 0)
(9.57893e-19 4.93335e-09 0)
(9.64239e-19 5.03747e-09 0)
(9.70155e-19 5.11869e-09 0)
(9.75817e-19 5.13873e-09 0)
(9.77483e-19 5.13059e-09 0)
(9.78884e-19 5.5502e-09 0)
(9.7983e-19 5.66502e-09 0)
(9.80317e-19 -1.61586e-08 0)
(9.80261e-19 6.47492e-07 0)
(9.67328e-19 9.07555e-06 0)
(9.40173e-19 6.32099e-06 0)
(9.12342e-19 -8.2388e-07 0)
(8.84159e-19 -3.81097e-07 0)
(8.55573e-19 3.36981e-09 0)
(8.2655e-19 3.36443e-08 0)
(7.97058e-19 -1.85875e-09 0)
(7.6707e-19 -2.0385e-09 0)
(7.36563e-19 -1.65338e-10 0)
(7.05516e-19 1.81858e-10 0)
(6.73913e-19 6.93398e-12 0)
(6.41742e-19 -1.10466e-11 0)
(6.08997e-19 -1.81065e-12 0)
(5.75674e-19 1.39761e-12 0)
(5.41778e-19 8.31535e-14 0)
(5.07314e-19 1.22876e-13 0)
(4.72296e-19 1.37621e-13 0)
(4.3674e-19 1.62734e-13 0)
(4.0067e-19 1.57503e-13 0)
(3.64113e-19 1.55736e-13 0)
(3.27099e-19 1.54219e-13 0)
(2.89664e-19 1.54418e-13 0)
(2.51848e-19 1.56136e-13 0)
(2.13695e-19 1.57751e-13 0)
(1.75249e-19 1.57268e-13 0)
(1.36562e-19 1.55301e-13 0)
(9.76834e-20 1.47977e-13 0)
(5.86671e-20 1.46132e-13 0)
(1.95677e-20 1.0194e-13 0)
)
;

boundaryField
{
    inlet
    {
        type            cyclic;
    }
    outlet
    {
        type            cyclic;
    }
    top
    {
        type            fixedValue;
        value           uniform (0 0 0);
    }
    bottom
    {
        type            fixedValue;
        value           uniform (0 0 0);
    }
    frontAndBackPlanes
    {
        type            empty;
    }
}


// ************************************************************************* //
