/*--------------------------------*- C++ -*----------------------------------*\
| =========                 |                                                 |
| \\      /  F ield         | OpenFOAM: The Open Source CFD Toolbox           |
|  \\    /   O peration     | Version:  2206                                  |
|   \\  /    A nd           | Website:  www.openfoam.com                      |
|    \\/     M anipulation  |                                                 |
\*---------------------------------------------------------------------------*/
FoamFile
{
    version     2.0;
    format      ascii;
    arch        "LSB;label=32;scalar=64";
    class       volScalarField;
    location    "1660";
    object      pff;
}
// * * * * * * * * * * * * * * * * * * * * * * * * * * * * * * * * * * * * * //

dimensions      [1 -1 -2 0 0 0 0];

internalField   nonuniform List<scalar> 
120
(
26.396
25.8626
25.863
25.2855
25.2686
24.7031
24.6744
24.1207
24.0802
23.5386
23.4862
22.9566
22.8923
22.3748
22.2986
21.7932
21.705
21.2118
21.1115
20.6304
20.5183
20.0492
19.9252
19.4682
19.3324
18.8872
18.7398
18.3063
18.1475
17.7254
17.5556
17.1446
16.9639
16.5638
16.3726
15.9829
15.7818
15.4021
15.1913
14.8212
14.6013
14.2403
14.0118
13.6593
13.4228
13.0782
12.8344
12.4971
12.2465
11.9159
11.6591
11.3347
11.0724
10.7535
10.4862
10.1722
9.90061
9.59094
9.31563
9.00973
8.73123
8.42859
8.14743
7.84756
7.56422
7.26668
6.9816
6.68598
6.39958
6.1055
5.81818
5.52526
5.23743
4.94528
4.65743
4.3655
4.07834
3.78583
3.50045
3.20602
2.92423
2.62563
2.35048
2.04396
1.78031
1.46023
1.21466
0.875038
0.650988
0.286206
0
0
0
0
0
0
0
0
0
0
0
0
0
0
0
0
0
0
0
0
0
0
0
0
0
0
0
0
0
0
)
;

boundaryField
{
    inlet
    {
        type            cyclic;
    }
    outlet
    {
        type            cyclic;
    }
    top
    {
        type            calculated;
        value           uniform 0;
    }
    bottom
    {
        type            calculated;
        value           uniform 26.396;
    }
    frontAndBackPlanes
    {
        type            empty;
    }
}


// ************************************************************************* //
