/*--------------------------------*- C++ -*----------------------------------*\
| =========                 |                                                 |
| \\      /  F ield         | OpenFOAM: The Open Source CFD Toolbox           |
|  \\    /   O peration     | Version:  2206                                  |
|   \\  /    A nd           | Website:  www.openfoam.com                      |
|    \\/     M anipulation  |                                                 |
\*---------------------------------------------------------------------------*/
FoamFile
{
    version     2.0;
    format      ascii;
    arch        "LSB;label=32;scalar=64";
    class       surfaceScalarField;
    location    "1660";
    object      phi.a;
}
// * * * * * * * * * * * * * * * * * * * * * * * * * * * * * * * * * * * * * //

dimensions      [0 3 -1 0 0 0 0];

oriented        oriented;

internalField   nonuniform List<scalar> 
119
(
-3.61197e-17
-7.30745e-17
-1.09884e-16
-1.47605e-16
-1.85129e-16
-2.23581e-16
-2.61785e-16
-3.00893e-16
-3.39745e-16
-3.79427e-16
-4.18895e-16
-4.59065e-16
-4.99121e-16
-5.39689e-16
-5.80305e-16
-6.21183e-16
-6.62334e-16
-7.03436e-16
-7.45101e-16
-7.86349e-16
-8.2851e-16
-8.69838e-16
-9.12484e-16
-9.53837e-16
-9.96964e-16
-1.03831e-15
-1.08192e-15
-1.12324e-15
-1.16737e-15
-1.20867e-15
-1.25334e-15
-1.29467e-15
-1.33993e-15
-1.38137e-15
-1.42729e-15
-1.46893e-15
-1.5156e-15
-1.55758e-15
-1.60512e-15
-1.64761e-15
-1.69614e-15
-1.73935e-15
-1.78902e-15
-1.83316e-15
-1.88413e-15
-1.92945e-15
-1.98189e-15
-2.02863e-15
-2.08269e-15
-2.1311e-15
-2.18694e-15
-2.23725e-15
-2.29501e-15
-2.34742e-15
-2.40719e-15
-2.46187e-15
-2.52372e-15
-2.58078e-15
-2.64474e-15
-2.70425e-15
-2.77029e-15
-2.83225e-15
-2.90031e-15
-2.96465e-15
-3.03462e-15
-3.1012e-15
-3.17298e-15
-3.24155e-15
-3.31501e-15
-3.38521e-15
-3.46031e-15
-3.53159e-15
-3.60842e-15
-3.67997e-15
-3.75888e-15
-3.82946e-15
-3.91125e-15
-3.97898e-15
-4.06518e-15
-4.12726e-15
-4.22028e-15
-4.27314e-15
-4.37557e-15
-4.417e-15
-4.52665e-15
-4.56798e-15
-4.65284e-15
-4.78886e-15
-4.63045e-15
-1.17887e-14
-2.1316e-14
-2.44425e-14
-2.62557e-11
-6.44364e-11
-7.86292e-11
-8.12903e-11
-8.18082e-11
-8.19381e-11
-8.19807e-11
-8.19981e-11
-8.20064e-11
-8.20108e-11
-8.20131e-11
-8.20143e-11
-8.20149e-11
-8.20152e-11
-8.20154e-11
-8.20155e-11
-8.20156e-11
-8.20156e-11
-8.20156e-11
-8.20155e-11
-8.20155e-11
-8.20153e-11
-8.2015e-11
-8.2014e-11
-8.20093e-11
-8.19694e-11
-8.12387e-11
)
;

boundaryField
{
    inlet
    {
        type            cyclic;
        value           nonuniform List<scalar> 
120
(
-4.15099e-27
-1.24593e-26
-2.07825e-26
-2.91303e-26
-3.75127e-26
-4.59394e-26
-5.44202e-26
-6.2965e-26
-7.15834e-26
-8.02852e-26
-8.90799e-26
-9.79772e-26
-1.06986e-25
-1.16117e-25
-1.25378e-25
-1.34779e-25
-1.44328e-25
-1.54035e-25
-1.63908e-25
-1.73955e-25
-1.84185e-25
-1.94605e-25
-2.05223e-25
-2.16046e-25
-2.27082e-25
-2.38337e-25
-2.49816e-25
-2.61525e-25
-2.73469e-25
-2.85653e-25
-2.9808e-25
-3.10754e-25
-3.23677e-25
-3.36851e-25
-3.50276e-25
-3.63954e-25
-3.77548e-25
-3.91391e-25
-4.05481e-25
-4.19815e-25
-4.34386e-25
-4.49189e-25
-4.64217e-25
-4.79462e-25
-4.94914e-25
-5.10564e-25
-5.26396e-25
-5.424e-25
-5.58559e-25
-5.7486e-25
-5.91284e-25
-6.07812e-25
-6.24425e-25
-6.411e-25
-6.57816e-25
-6.74548e-25
-6.91272e-25
-7.07958e-25
-7.24583e-25
-7.41327e-25
-7.57953e-25
-7.74429e-25
-7.90727e-25
-8.06816e-25
-8.22665e-25
-8.38241e-25
-8.53516e-25
-8.68457e-25
-8.83031e-25
-8.97207e-25
-9.10952e-25
-9.24235e-25
-9.37027e-25
-9.49296e-25
-9.61016e-25
-9.72157e-25
-9.82692e-25
-9.92597e-25
-1.00185e-24
-1.01041e-24
-1.01828e-24
-1.02543e-24
-1.03184e-24
-1.0375e-24
-1.04238e-24
-1.04648e-24
-1.04978e-24
-1.05228e-24
-1.05397e-24
-1.05483e-24
-1.05517e-24
-1.05548e-24
-1.05553e-24
-7.34316e-25
-3.79936e-25
-2.33901e-25
-1.8942e-25
-1.7471e-25
-1.68893e-25
-1.66147e-25
-1.64661e-25
-1.63791e-25
-1.63272e-25
-1.62971e-25
-1.62802e-25
-1.62705e-25
-1.62647e-25
-1.62607e-25
-1.62578e-25
-1.62555e-25
-1.62537e-25
-1.62523e-25
-1.62512e-25
-1.62504e-25
-1.62497e-25
-1.62489e-25
-1.62471e-25
-1.62392e-25
-1.61796e-25
-1.54005e-25
)
;
    }
    outlet
    {
        type            cyclic;
        value           nonuniform List<scalar> 
120
(
4.15099e-27
1.24593e-26
2.07825e-26
2.91303e-26
3.75127e-26
4.59394e-26
5.44202e-26
6.2965e-26
7.15834e-26
8.02852e-26
8.90799e-26
9.79772e-26
1.06986e-25
1.16117e-25
1.25378e-25
1.34779e-25
1.44328e-25
1.54035e-25
1.63908e-25
1.73955e-25
1.84185e-25
1.94605e-25
2.05223e-25
2.16046e-25
2.27082e-25
2.38337e-25
2.49816e-25
2.61525e-25
2.73469e-25
2.85653e-25
2.9808e-25
3.10754e-25
3.23677e-25
3.36851e-25
3.50276e-25
3.63954e-25
3.77548e-25
3.91391e-25
4.05481e-25
4.19815e-25
4.34386e-25
4.49189e-25
4.64217e-25
4.79462e-25
4.94914e-25
5.10564e-25
5.26396e-25
5.424e-25
5.58559e-25
5.7486e-25
5.91284e-25
6.07812e-25
6.24425e-25
6.411e-25
6.57816e-25
6.74548e-25
6.91272e-25
7.07958e-25
7.24583e-25
7.41327e-25
7.57953e-25
7.74429e-25
7.90727e-25
8.06816e-25
8.22665e-25
8.38241e-25
8.53516e-25
8.68457e-25
8.83031e-25
8.97207e-25
9.10952e-25
9.24235e-25
9.37027e-25
9.49296e-25
9.61016e-25
9.72157e-25
9.82692e-25
9.92597e-25
1.00185e-24
1.01041e-24
1.01828e-24
1.02543e-24
1.03184e-24
1.0375e-24
1.04238e-24
1.04648e-24
1.04978e-24
1.05228e-24
1.05397e-24
1.05483e-24
1.05517e-24
1.05548e-24
1.05553e-24
7.34316e-25
3.79936e-25
2.33901e-25
1.8942e-25
1.7471e-25
1.68893e-25
1.66147e-25
1.64661e-25
1.63791e-25
1.63272e-25
1.62971e-25
1.62802e-25
1.62705e-25
1.62647e-25
1.62607e-25
1.62578e-25
1.62555e-25
1.62537e-25
1.62523e-25
1.62512e-25
1.62504e-25
1.62497e-25
1.62489e-25
1.62471e-25
1.62392e-25
1.61796e-25
1.54005e-25
)
;
    }
    top
    {
        type            fixedValue;
        value           uniform 0;
    }
    bottom
    {
        type            fixedValue;
        value           uniform 0;
    }
    frontAndBackPlanes
    {
        type            empty;
        value           nonuniform List<scalar> 0();
    }
}


// ************************************************************************* //
