/*--------------------------------*- C++ -*----------------------------------*\
| =========                 |                                                 |
| \\      /  F ield         | OpenFOAM: The Open Source CFD Toolbox           |
|  \\    /   O peration     | Version:  2206                                  |
|   \\  /    A nd           | Website:  www.openfoam.com                      |
|    \\/     M anipulation  |                                                 |
\*---------------------------------------------------------------------------*/
FoamFile
{
    version     2.0;
    format      ascii;
    arch        "LSB;label=32;scalar=64";
    class       volVectorField;
    location    "1660";
    object      U.a;
}
// * * * * * * * * * * * * * * * * * * * * * * * * * * * * * * * * * * * * * //

dimensions      [0 1 -1 0 0 0 0];

internalField   nonuniform List<vector> 
120
(
(1.38366e-20 1.55681e-08 0)
(4.15311e-20 1.99784e-10 0)
(6.9275e-20 -6.0577e-10 0)
(9.71011e-20 -4.7852e-12 0)
(1.25042e-19 -8.15261e-10 0)
(1.53131e-19 -2.13209e-10 0)
(1.81401e-19 -1.02892e-09 0)
(2.09883e-19 -4.25422e-10 0)
(2.38611e-19 -1.24622e-09 0)
(2.67617e-19 -6.41233e-10 0)
(2.96933e-19 -1.46671e-09 0)
(3.26591e-19 -8.60474e-10 0)
(3.56621e-19 -1.6899e-09 0)
(3.87056e-19 -1.08299e-09 0)
(4.17926e-19 -1.91529e-09 0)
(4.49262e-19 -1.30862e-09 0)
(4.81093e-19 -2.14239e-09 0)
(5.13449e-19 -1.53725e-09 0)
(5.46359e-19 -2.37071e-09 0)
(5.79849e-19 -1.76875e-09 0)
(6.13948e-19 -2.59983e-09 0)
(6.48682e-19 -2.00303e-09 0)
(6.84076e-19 -2.82937e-09 0)
(7.20154e-19 -2.24002e-09 0)
(7.56941e-19 -3.05902e-09 0)
(7.94456e-19 -2.47972e-09 0)
(8.32719e-19 -3.28859e-09 0)
(8.7175e-19 -2.72216e-09 0)
(9.11564e-19 -3.51799e-09 0)
(9.52178e-19 -2.96745e-09 0)
(9.93602e-19 -3.7473e-09 0)
(1.03585e-18 -3.21578e-09 0)
(1.07892e-18 -3.97674e-09 0)
(1.12284e-18 -3.46742e-09 0)
(1.16759e-18 -4.20671e-09 0)
(1.21318e-18 -3.72278e-09 0)
(1.25849e-18 -4.43779e-09 0)
(1.30464e-18 -3.98234e-09 0)
(1.3516e-18 -4.67074e-09 0)
(1.39938e-18 -4.24672e-09 0)
(1.44795e-18 -4.90653e-09 0)
(1.4973e-18 -4.51664e-09 0)
(1.54739e-18 -5.14625e-09 0)
(1.59821e-18 -4.79291e-09 0)
(1.64971e-18 -5.39115e-09 0)
(1.70188e-18 -5.07642e-09 0)
(1.75465e-18 -5.64257e-09 0)
(1.808e-18 -5.36807e-09 0)
(1.86186e-18 -5.9019e-09 0)
(1.9162e-18 -5.66877e-09 0)
(1.97095e-18 -6.17049e-09 0)
(2.02604e-18 -5.97936e-09 0)
(2.08142e-18 -6.44963e-09 0)
(2.137e-18 -6.30056e-09 0)
(2.19272e-18 -6.74046e-09 0)
(2.24849e-18 -6.63295e-09 0)
(2.30424e-18 -7.04391e-09 0)
(2.35986e-18 -6.97688e-09 0)
(2.41528e-18 -7.36063e-09 0)
(2.47109e-18 -7.33248e-09 0)
(2.52651e-18 -7.69099e-09 0)
(2.58143e-18 -7.69962e-09 0)
(2.63576e-18 -8.03498e-09 0)
(2.68939e-18 -8.07795e-09 0)
(2.74222e-18 -8.39221e-09 0)
(2.79414e-18 -8.46691e-09 0)
(2.84505e-18 -8.76188e-09 0)
(2.89486e-18 -8.86586e-09 0)
(2.94344e-18 -9.14261e-09 0)
(2.99069e-18 -9.27421e-09 0)
(3.03651e-18 -9.53239e-09 0)
(3.08078e-18 -9.69169e-09 0)
(3.12342e-18 -9.92816e-09 0)
(3.16432e-18 -1.01188e-08 0)
(3.20339e-18 -1.03254e-08 0)
(3.24052e-18 -1.05575e-08 0)
(3.27564e-18 -1.0717e-08 0)
(3.30866e-18 -1.10126e-08 0)
(3.33948e-18 -1.10925e-08 0)
(3.36805e-18 -1.14925e-08 0)
(3.39428e-18 -1.1436e-08 0)
(3.41811e-18 -1.2011e-08 0)
(3.43948e-18 -1.17275e-08 0)
(3.45833e-18 -1.25827e-08 0)
(3.47461e-18 -1.19547e-08 0)
(3.48828e-18 -1.31952e-08 0)
(3.49928e-18 -1.21818e-08 0)
(3.5076e-18 -1.36664e-08 0)
(3.51322e-18 -1.29461e-08 0)
(3.51611e-18 -1.28338e-08 0)
(3.51722e-18 -5.29291e-08 0)
(3.51825e-18 -6.51702e-08 0)
(3.51843e-18 -7.03709e-08 0)
(2.44772e-18 -0.000145795 0)
(1.26645e-18 -0.000212185 0)
(7.7967e-19 -0.000224644 0)
(6.31401e-19 -0.000226969 0)
(5.82365e-19 -0.000227521 0)
(5.62976e-19 -0.000227691 0)
(5.53823e-19 -0.000227757 0)
(5.48868e-19 -0.000227788 0)
(5.45969e-19 -0.000227804 0)
(5.44242e-19 -0.000227812 0)
(5.43237e-19 -0.000227816 0)
(5.42672e-19 -0.000227819 0)
(5.42351e-19 -0.00022782 0)
(5.42155e-19 -0.00022782 0)
(5.42023e-19 -0.000227821 0)
(5.41926e-19 -0.000227821 0)
(5.4185e-19 -0.000227821 0)
(5.41791e-19 -0.000227821 0)
(5.41744e-19 -0.000227821 0)
(5.41708e-19 -0.000227821 0)
(5.4168e-19 -0.000227821 0)
(5.41656e-19 -0.00022782 0)
(5.41629e-19 -0.000227819 0)
(5.4157e-19 -0.000227815 0)
(5.41306e-19 -0.000227793 0)
(5.39319e-19 -0.000227593 0)
(5.13349e-19 -0.000223734 0)
)
;

boundaryField
{
    inlet
    {
        type            cyclic;
    }
    outlet
    {
        type            cyclic;
    }
    top
    {
        type            fixedValue;
        value           uniform (0 0 0);
    }
    bottom
    {
        type            fixedValue;
        value           uniform (0 0 0);
    }
    frontAndBackPlanes
    {
        type            empty;
    }
}


// ************************************************************************* //
