/*--------------------------------*- C++ -*----------------------------------*\
| =========                 |                                                 |
| \\      /  F ield         | OpenFOAM: The Open Source CFD Toolbox           |
|  \\    /   O peration     | Version:  2206                                  |
|   \\  /    A nd           | Website:  www.openfoam.com                      |
|    \\/     M anipulation  |                                                 |
\*---------------------------------------------------------------------------*/
FoamFile
{
    version     2.0;
    format      ascii;
    arch        "LSB;label=32;scalar=64";
    class       volVectorField;
    location    "1660";
    object      U.b;
}
// * * * * * * * * * * * * * * * * * * * * * * * * * * * * * * * * * * * * * //

dimensions      [0 1 -1 0 0 0 0];

internalField   nonuniform List<vector> 
120
(
(1.38367e-20 1.54229e-08 0)
(4.15311e-20 5.90248e-10 0)
(6.92754e-20 2.27308e-11 0)
(9.71011e-20 8.81922e-10 0)
(1.25042e-19 3.45483e-10 0)
(1.53131e-19 1.19968e-09 0)
(1.81403e-19 6.61156e-10 0)
(2.09883e-19 1.5215e-09 0)
(2.38608e-19 9.82084e-10 0)
(2.67617e-19 1.84821e-09 0)
(2.96933e-19 1.30791e-09 0)
(3.26586e-19 2.17915e-09 0)
(3.56621e-19 1.63829e-09 0)
(3.87056e-19 2.51365e-09 0)
(4.17926e-19 1.97289e-09 0)
(4.49262e-19 2.85104e-09 0)
(4.81093e-19 2.31139e-09 0)
(5.13449e-19 3.19067e-09 0)
(5.46359e-19 2.6535e-09 0)
(5.79849e-19 3.53192e-09 0)
(6.13948e-19 2.99895e-09 0)
(6.48682e-19 3.87423e-09 0)
(6.84076e-19 3.34753e-09 0)
(7.20117e-19 4.21716e-09 0)
(7.5694e-19 3.6991e-09 0)
(7.94456e-19 4.56036e-09 0)
(8.3274e-19 4.0536e-09 0)
(8.7175e-19 4.90366e-09 0)
(9.11564e-19 4.41107e-09 0)
(9.52225e-19 5.24705e-09 0)
(9.93651e-19 4.7717e-09 0)
(1.03585e-18 5.59072e-09 0)
(1.07892e-18 5.13579e-09 0)
(1.12284e-18 5.93511e-09 0)
(1.16759e-18 5.50384e-09 0)
(1.21312e-18 6.28088e-09 0)
(1.25843e-18 5.87649e-09 0)
(1.3047e-18 6.62896e-09 0)
(1.35154e-18 6.2546e-09 0)
(1.39951e-18 6.98051e-09 0)
(1.44789e-18 6.63917e-09 0)
(1.49736e-18 7.33695e-09 0)
(1.54739e-18 7.03137e-09 0)
(1.59821e-18 7.69986e-09 0)
(1.64964e-18 7.43248e-09 0)
(1.70203e-18 8.07099e-09 0)
(1.75465e-18 7.84389e-09 0)
(1.80808e-18 8.45217e-09 0)
(1.8617e-18 8.26695e-09 0)
(1.9162e-18 8.84522e-09 0)
(1.97095e-18 8.70299e-09 0)
(2.02604e-18 9.25187e-09 0)
(2.08142e-18 9.15316e-09 0)
(2.137e-18 9.67366e-09 0)
(2.19263e-18 9.6184e-09 0)
(2.24849e-18 1.01119e-08 0)
(2.30424e-18 1.00993e-08 0)
(2.35986e-18 1.05673e-08 0)
(2.41549e-18 1.05963e-08 0)
(2.47109e-18 1.10406e-08 0)
(2.52651e-18 1.1109e-08 0)
(2.58143e-18 1.15315e-08 0)
(2.63576e-18 1.16371e-08 0)
(2.68939e-18 1.20396e-08 0)
(2.74245e-18 1.21795e-08 0)
(2.79389e-18 1.25635e-08 0)
(2.84505e-18 1.27349e-08 0)
(2.89486e-18 1.31014e-08 0)
(2.94344e-18 1.33018e-08 0)
(2.99069e-18 1.36507e-08 0)
(3.03678e-18 1.38786e-08 0)
(3.08079e-18 1.42074e-08 0)
(3.12342e-18 1.44641e-08 0)
(3.16432e-18 1.47664e-08 0)
(3.20339e-18 1.50577e-08 0)
(3.24052e-18 1.53201e-08 0)
(3.27564e-18 1.56605e-08 0)
(3.30866e-18 1.58576e-08 0)
(3.33948e-18 1.62763e-08 0)
(3.36805e-18 1.63631e-08 0)
(3.39428e-18 1.6912e-08 0)
(3.41811e-18 1.68154e-08 0)
(3.43948e-18 1.7575e-08 0)
(3.45833e-18 1.71939e-08 0)
(3.47461e-18 1.82539e-08 0)
(3.48898e-18 1.75184e-08 0)
(3.49928e-18 1.88242e-08 0)
(3.5076e-18 1.80916e-08 0)
(3.51322e-18 1.84576e-08 0)
(3.51611e-18 1.07264e-08 0)
(3.51652e-18 6.78318e-09 0)
(3.4774e-18 4.15744e-08 0)
(3.39234e-18 2.27627e-09 0)
(3.30529e-18 -1.90736e-09 0)
(3.21609e-18 -5.05257e-10 0)
(3.12454e-18 8.31956e-11 0)
(3.03046e-18 4.90517e-11 0)
(2.9337e-18 3.53545e-13 0)
(2.83409e-18 -3.65987e-12 0)
(2.73152e-18 -5.02474e-13 0)
(2.62588e-18 2.16079e-13 0)
(2.51707e-18 6.54681e-14 0)
(2.40504e-18 -1.72088e-14 0)
(2.28975e-18 -2.21037e-14 0)
(2.1712e-18 -1.20557e-14 0)
(2.0494e-18 -3.8295e-15 0)
(1.9244e-18 -2.41183e-16 0)
(1.79627e-18 7.42683e-15 0)
(1.66511e-18 1.70721e-14 0)
(1.53105e-18 1.35574e-14 0)
(1.39424e-18 -3.51064e-15 0)
(1.25486e-18 -1.49948e-14 0)
(1.11312e-18 -8.00629e-15 0)
(9.69236e-19 1.95473e-15 0)
(8.2345e-19 -1.088e-15 0)
(6.76027e-19 -3.45862e-15 0)
(5.27241e-19 5.10339e-15 0)
(3.77383e-19 1.22651e-14 0)
(2.2675e-19 2.143e-15 0)
(7.56507e-20 -9.10709e-15 0)
)
;

boundaryField
{
    inlet
    {
        type            cyclic;
    }
    outlet
    {
        type            cyclic;
    }
    top
    {
        type            fixedValue;
        value           uniform (0 0 0);
    }
    bottom
    {
        type            fixedValue;
        value           uniform (0 0 0);
    }
    frontAndBackPlanes
    {
        type            empty;
    }
}


// ************************************************************************* //
