/*--------------------------------*- C++ -*----------------------------------*\
| =========                 |                                                 |
| \\      /  F ield         | OpenFOAM: The Open Source CFD Toolbox           |
|  \\    /   O peration     | Version:  v2006                                 |
|   \\  /    A nd           | Website:  www.openfoam.com                      |
|    \\/     M anipulation  |                                                 |
\*---------------------------------------------------------------------------*/
FoamFile
{
    version     2.0;
    format      ascii;
    class       volScalarField;
    location    "1420";
    object      p;
}
// * * * * * * * * * * * * * * * * * * * * * * * * * * * * * * * * * * * * * //

dimensions      [1 -1 -2 0 0 0 0];


internalField   nonuniform List<scalar> 
120
(
-0.745096
-5.40514
-10.0655
-14.7261
-19.3871
-24.0484
-28.7099
-33.3718
-38.0341
-42.6966
-47.3595
-52.0227
-56.6863
-61.3501
-66.0144
-70.679
-75.3439
-80.0092
-84.6749
-89.341
-94.0074
-98.6742
-103.341
-108.009
-112.677
-117.345
-122.014
-126.683
-131.353
-136.023
-140.693
-145.364
-150.036
-154.707
-159.38
-164.052
-168.725
-173.399
-178.073
-182.747
-187.422
-192.098
-196.774
-201.45
-206.127
-210.804
-215.482
-220.16
-224.839
-229.518
-234.197
-238.878
-243.558
-248.239
-252.921
-257.603
-262.285
-266.968
-271.652
-276.335
-281.02
-285.704
-290.39
-295.075
-299.761
-304.448
-309.135
-313.822
-318.51
-323.198
-327.887
-332.576
-337.266
-341.955
-346.646
-351.336
-356.027
-360.719
-365.41
-370.102
-374.794
-379.487
-384.18
-388.873
-393.566
-398.259
-402.952
-407.646
-412.339
-417.033
-421.706
-426.366
-431.027
-435.687
-440.346
-445.006
-449.666
-454.326
-458.985
-463.645
-468.305
-472.965
-477.624
-482.284
-486.944
-491.604
-496.263
-500.923
-505.583
-510.243
-514.902
-519.562
-524.222
-528.882
-533.541
-538.201
-542.861
-547.521
-552.18
-556.84
)
;

boundaryField
{
    inlet
    {
        type            cyclic;
    }
    outlet
    {
        type            cyclic;
    }
    top
    {
        type            calculated;
        value           uniform -559.17;
    }
    bottom
    {
        type            calculated;
        value           uniform 1.58478;
    }
    frontAndBackPlanes
    {
        type            empty;
    }
}


// ************************************************************************* //
