/*--------------------------------*- C++ -*----------------------------------*\
| =========                 |                                                 |
| \\      /  F ield         | OpenFOAM: The Open Source CFD Toolbox           |
|  \\    /   O peration     | Version:  v2006                                 |
|   \\  /    A nd           | Website:  www.openfoam.com                      |
|    \\/     M anipulation  |                                                 |
\*---------------------------------------------------------------------------*/
FoamFile
{
    version     2.0;
    format      ascii;
    class       volScalarField;
    location    "1420";
    object      p_p_total;
}
// * * * * * * * * * * * * * * * * * * * * * * * * * * * * * * * * * * * * * //

dimensions      [1 -1 -2 0 0 0 0];


internalField   nonuniform List<scalar> 
120
(
24.954
24.66
24.3662
24.0728
23.7797
23.4868
23.1943
22.9021
22.6103
22.3187
22.0275
21.7366
21.4461
21.1559
20.8661
20.5766
20.2875
19.9988
19.7104
19.4224
19.1348
18.8476
18.5608
18.2743
17.9883
17.7027
17.4175
17.1327
16.8483
16.5643
16.2807
15.9976
15.7149
15.4325
15.1506
14.8692
14.5881
14.3074
14.0271
13.7473
13.4678
13.1888
12.9101
12.6318
12.3539
12.0764
11.7993
11.5226
11.2462
10.9702
10.6946
10.4194
10.1445
9.86999
9.59584
9.32204
9.04861
8.77553
8.5028
8.23043
7.95841
7.68674
7.41542
7.14445
6.87384
6.60357
6.33365
6.06407
5.79485
5.52597
5.25745
4.98927
4.72143
4.45395
4.18681
3.92001
3.65356
3.38744
3.12166
2.85621
2.59108
2.32626
2.06175
1.79751
1.53348
1.26972
1.00595
0.735206
0.462317
0.169023
0
0
0
0
0
0
0
0
0
0
0
0
0
0
0
0
0
0
0
0
0
0
0
0
0
0
0
0
0
0
)
;

boundaryField
{
    inlet
    {
        type            cyclic;
    }
    outlet
    {
        type            cyclic;
    }
    top
    {
        type            calculated;
        value           uniform 0;
    }
    bottom
    {
        type            calculated;
        value           uniform 24.954;
    }
    frontAndBackPlanes
    {
        type            empty;
    }
}


// ************************************************************************* //
