/*--------------------------------*- C++ -*----------------------------------*\
| =========                 |                                                 |
| \\      /  F ield         | OpenFOAM: The Open Source CFD Toolbox           |
|  \\    /   O peration     | Version:  v2006                                 |
|   \\  /    A nd           | Website:  www.openfoam.com                      |
|    \\/     M anipulation  |                                                 |
\*---------------------------------------------------------------------------*/
FoamFile
{
    version     2.0;
    format      ascii;
    class       surfaceScalarField;
    location    "1420";
    object      phia;
}
// * * * * * * * * * * * * * * * * * * * * * * * * * * * * * * * * * * * * * //

dimensions      [0 3 -1 0 0 0 0];
oriented        oriented;


internalField   nonuniform List<scalar> 
119
(
-7.44417e-16
-1.49801e-15
-2.26106e-15
-3.03388e-15
-3.81679e-15
-4.61012e-15
-5.41419e-15
-6.22934e-15
-7.0559e-15
-7.8942e-15
-8.74456e-15
-9.60731e-15
-1.04828e-14
-1.13712e-14
-1.22729e-14
-1.31883e-14
-1.41174e-14
-1.50606e-14
-1.6018e-14
-1.699e-14
-1.79765e-14
-1.89779e-14
-1.99941e-14
-2.10252e-14
-2.20712e-14
-2.31323e-14
-2.42082e-14
-2.5299e-14
-2.64044e-14
-2.75244e-14
-2.86587e-14
-2.98071e-14
-3.09692e-14
-3.21449e-14
-3.33336e-14
-3.45351e-14
-3.57488e-14
-3.69744e-14
-3.82113e-14
-3.94591e-14
-4.07171e-14
-4.1985e-14
-4.3262e-14
-4.45477e-14
-4.58414e-14
-4.71427e-14
-4.84509e-14
-4.97655e-14
-5.10859e-14
-5.24116e-14
-5.3742e-14
-5.50766e-14
-5.64149e-14
-5.77565e-14
-5.91009e-14
-6.04476e-14
-6.17962e-14
-6.31463e-14
-6.44976e-14
-6.58496e-14
-6.7202e-14
-6.85546e-14
-6.99071e-14
-7.12591e-14
-7.26104e-14
-7.3961e-14
-7.53104e-14
-7.66587e-14
-7.80057e-14
-7.93511e-14
-8.06951e-14
-8.20373e-14
-8.33777e-14
-8.47162e-14
-8.60526e-14
-8.73866e-14
-8.8718e-14
-9.00467e-14
-9.13725e-14
-9.26953e-14
-9.40156e-14
-9.53346e-14
-9.66548e-14
-9.79817e-14
-9.93269e-14
-1.00719e-13
-1.02234e-13
-1.0407e-13
-1.06402e-13
-1.78549e-13
-2.31135e-13
-4.5952e-11
-5.76521e-11
-8.21656e-11
-8.22705e-11
-8.22747e-11
-8.22765e-11
-8.22766e-11
-8.22766e-11
-8.22766e-11
-8.22766e-11
-8.22766e-11
-8.22766e-11
-8.22766e-11
-8.22766e-11
-8.22766e-11
-8.22766e-11
-8.22766e-11
-8.22766e-11
-8.22766e-11
-8.22766e-11
-8.22766e-11
-8.22766e-11
-8.22766e-11
-8.22766e-11
-8.22766e-11
-8.22766e-11
-8.22565e-11
-8.21697e-11
)
;

boundaryField
{
    inlet
    {
        type            cyclic;
        value           nonuniform List<scalar> 
120
(
-8.58061e-28
-2.57577e-27
-4.29717e-27
-5.99434e-27
-7.70013e-27
-9.41703e-27
-1.11475e-26
-1.28332e-26
-1.45376e-26
-1.63238e-26
-1.81335e-26
-1.99695e-26
-2.18949e-26
-2.38516e-26
-2.58422e-26
-2.78693e-26
-2.99356e-26
-3.20438e-26
-3.41965e-26
-3.63967e-26
-3.86471e-26
-4.09506e-26
-4.33101e-26
-4.57288e-26
-4.84528e-26
-5.12422e-26
-5.41003e-26
-5.69089e-26
-5.9793e-26
-6.27563e-26
-6.55594e-26
-6.82062e-26
-7.0944e-26
-7.37768e-26
-7.6709e-26
-7.97437e-26
-8.31303e-26
-8.68756e-26
-9.04967e-26
-9.44853e-26
-9.81169e-26
-1.02127e-25
-1.06035e-25
-1.10089e-25
-1.14297e-25
-1.18906e-25
-1.23192e-25
-1.27649e-25
-1.32037e-25
-1.37094e-25
-1.42337e-25
-1.4777e-25
-1.53398e-25
-1.59223e-25
-1.65248e-25
-1.71719e-25
-1.78392e-25
-1.85265e-25
-1.9234e-25
-1.9912e-25
-2.06084e-25
-2.13228e-25
-2.20542e-25
-2.28014e-25
-2.35629e-25
-2.4288e-25
-2.50728e-25
-2.58662e-25
-2.66656e-25
-2.74684e-25
-2.82717e-25
-2.90231e-25
-2.97685e-25
-3.05043e-25
-3.12269e-25
-3.19324e-25
-3.2617e-25
-3.32768e-25
-3.39078e-25
-3.45061e-25
-3.50681e-25
-3.559e-25
-3.60686e-25
-3.65006e-25
-3.68832e-25
-3.7214e-25
-3.73927e-25
-3.7516e-25
-3.75829e-25
-3.76129e-25
-3.7649e-25
-6.71958e-25
-1.16473e-24
-1.65474e-24
-2.12674e-24
-2.57458e-24
-2.99309e-24
-3.37745e-24
-3.72297e-24
-4.02566e-24
-4.28187e-24
-4.48881e-24
-4.64418e-24
-4.74655e-24
-4.79503e-24
-4.7895e-24
-4.73046e-24
-4.619e-24
-4.45684e-24
-4.24619e-24
-3.98977e-24
-3.69073e-24
-3.35258e-24
-2.97927e-24
-2.57484e-24
-2.14376e-24
-1.69061e-24
-1.22014e-24
-7.37213e-25
-2.46807e-25
)
;
    }
    outlet
    {
        type            cyclic;
        value           nonuniform List<scalar> 
120
(
8.58061e-28
2.57577e-27
4.29717e-27
5.99434e-27
7.70013e-27
9.41703e-27
1.11475e-26
1.28332e-26
1.45376e-26
1.63238e-26
1.81335e-26
1.99695e-26
2.18949e-26
2.38516e-26
2.58422e-26
2.78693e-26
2.99356e-26
3.20438e-26
3.41965e-26
3.63967e-26
3.86471e-26
4.09506e-26
4.33101e-26
4.57288e-26
4.84528e-26
5.12422e-26
5.41003e-26
5.69089e-26
5.9793e-26
6.27563e-26
6.55594e-26
6.82062e-26
7.0944e-26
7.37768e-26
7.6709e-26
7.97437e-26
8.31303e-26
8.68756e-26
9.04967e-26
9.44853e-26
9.81169e-26
1.02127e-25
1.06035e-25
1.10089e-25
1.14297e-25
1.18906e-25
1.23192e-25
1.27649e-25
1.32037e-25
1.37094e-25
1.42337e-25
1.4777e-25
1.53398e-25
1.59223e-25
1.65248e-25
1.71719e-25
1.78392e-25
1.85265e-25
1.9234e-25
1.9912e-25
2.06084e-25
2.13228e-25
2.20542e-25
2.28014e-25
2.35629e-25
2.4288e-25
2.50728e-25
2.58662e-25
2.66656e-25
2.74684e-25
2.82717e-25
2.90231e-25
2.97685e-25
3.05043e-25
3.12269e-25
3.19324e-25
3.2617e-25
3.32768e-25
3.39078e-25
3.45061e-25
3.50681e-25
3.559e-25
3.60686e-25
3.65006e-25
3.68832e-25
3.7214e-25
3.73927e-25
3.7516e-25
3.75829e-25
3.76129e-25
3.7649e-25
6.71958e-25
1.16473e-24
1.65474e-24
2.12674e-24
2.57458e-24
2.99309e-24
3.37745e-24
3.72297e-24
4.02566e-24
4.28187e-24
4.48881e-24
4.64418e-24
4.74655e-24
4.79503e-24
4.7895e-24
4.73046e-24
4.619e-24
4.45684e-24
4.24619e-24
3.98977e-24
3.69073e-24
3.35258e-24
2.97927e-24
2.57484e-24
2.14376e-24
1.69061e-24
1.22014e-24
7.37213e-25
2.46807e-25
)
;
    }
    top
    {
        type            fixedValue;
        value           uniform 0;
    }
    bottom
    {
        type            fixedValue;
        value           uniform 0;
    }
    frontAndBackPlanes
    {
        type            empty;
        value           nonuniform List<scalar> 0();
    }
}


// ************************************************************************* //
