/*--------------------------------*- C++ -*----------------------------------*\
| =========                 |                                                 |
| \\      /  F ield         | OpenFOAM: The Open Source CFD Toolbox           |
|  \\    /   O peration     | Version:  v2006                                 |
|   \\  /    A nd           | Website:  www.openfoam.com                      |
|    \\/     M anipulation  |                                                 |
\*---------------------------------------------------------------------------*/
FoamFile
{
    version     2.0;
    format      ascii;
    class       surfaceScalarField;
    location    "1420";
    object      phib;
}
// * * * * * * * * * * * * * * * * * * * * * * * * * * * * * * * * * * * * * //

dimensions      [0 3 -1 0 0 0 0];
oriented        oriented;


internalField   nonuniform List<scalar> 
119
(
1.11596e-15
2.24522e-15
3.38818e-15
4.5453e-15
5.71703e-15
6.90385e-15
8.10622e-15
9.32464e-15
1.05596e-14
1.18115e-14
1.30809e-14
1.43681e-14
1.56737e-14
1.69981e-14
1.83417e-14
1.97049e-14
2.1088e-14
2.24913e-14
2.39152e-14
2.53598e-14
2.68255e-14
2.83123e-14
2.98204e-14
3.13498e-14
3.29006e-14
3.44727e-14
3.6066e-14
3.76803e-14
3.93154e-14
4.09709e-14
4.26466e-14
4.43421e-14
4.60567e-14
4.77902e-14
4.95417e-14
5.13107e-14
5.30965e-14
5.48984e-14
5.67155e-14
5.85471e-14
6.03922e-14
6.22502e-14
6.412e-14
6.60007e-14
6.78914e-14
6.97912e-14
7.1699e-14
7.36142e-14
7.55356e-14
7.74626e-14
7.9394e-14
8.1329e-14
8.32668e-14
8.52065e-14
8.71473e-14
8.90886e-14
9.10294e-14
9.29692e-14
9.49069e-14
9.68421e-14
9.87737e-14
1.00702e-13
1.02624e-13
1.04542e-13
1.06454e-13
1.08359e-13
1.10257e-13
1.12148e-13
1.14029e-13
1.15901e-13
1.17764e-13
1.19615e-13
1.21455e-13
1.23282e-13
1.25095e-13
1.26892e-13
1.28671e-13
1.3043e-13
1.32167e-13
1.33879e-13
1.35562e-13
1.37214e-13
1.38832e-13
1.40413e-13
1.41961e-13
1.43494e-13
1.45069e-13
1.46865e-13
1.48734e-13
1.7652e-13
6.15014e-14
1.72479e-13
4.4305e-16
6.82562e-19
6.57934e-19
6.90349e-19
7.04538e-19
7.64065e-19
7.74453e-19
8.10966e-19
7.94351e-19
8.04014e-19
7.62407e-19
7.66083e-19
7.45747e-19
7.71189e-19
7.51578e-19
7.57259e-19
7.18051e-19
7.01497e-19
6.44791e-19
6.23458e-19
5.87053e-19
5.86779e-19
5.59651e-19
5.52651e-19
5.19586e-19
5.04952e-19
4.64918e-19
)
;

boundaryField
{
    inlet
    {
        type            cyclic;
        value           nonuniform List<scalar> 
120
(
-8.58061e-28
-2.57578e-27
-4.29985e-27
-5.99435e-27
-7.70013e-27
-9.41709e-27
-1.11622e-26
-1.28332e-26
-1.4518e-26
-1.63237e-26
-1.81334e-26
-1.99424e-26
-2.18948e-26
-2.38516e-26
-2.58422e-26
-2.78693e-26
-2.99356e-26
-3.20438e-26
-3.41965e-26
-3.63967e-26
-3.86471e-26
-4.09506e-26
-4.33091e-26
-4.54856e-26
-4.84518e-26
-5.12428e-26
-5.42406e-26
-5.69095e-26
-5.97944e-26
-6.30775e-26
-6.58939e-26
-6.82077e-26
-7.0944e-26
-7.37768e-26
-7.67072e-26
-7.93395e-26
-8.27139e-26
-8.73028e-26
-9.00571e-26
-9.54017e-26
-9.76481e-26
-1.02615e-25
-1.06037e-25
-1.10087e-25
-1.13766e-25
-1.20005e-25
-1.232e-25
-1.28225e-25
-1.30846e-25
-1.37089e-25
-1.42337e-25
-1.4777e-25
-1.53398e-25
-1.5922e-25
-1.64557e-25
-1.71716e-25
-1.78392e-25
-1.85272e-25
-1.93848e-25
-1.99127e-25
-2.06084e-25
-2.13228e-25
-2.20542e-25
-2.28022e-25
-2.37317e-25
-2.4116e-25
-2.50721e-25
-2.58662e-25
-2.66656e-25
-2.74693e-25
-2.84599e-25
-2.9024e-25
-2.97685e-25
-3.05043e-25
-3.12269e-25
-3.19324e-25
-3.2617e-25
-3.32768e-25
-3.39078e-25
-3.45061e-25
-3.50681e-25
-3.559e-25
-3.60686e-25
-3.65006e-25
-3.68854e-25
-3.7678e-25
-3.7395e-25
-3.7516e-25
-3.75831e-25
-3.76151e-25
-3.80616e-25
-6.72575e-25
-1.16579e-24
-1.65509e-24
-2.12671e-24
-2.5745e-24
-2.99305e-24
-3.37739e-24
-3.72294e-24
-4.0256e-24
-4.28184e-24
-4.48876e-24
-4.64416e-24
-4.74652e-24
-4.79501e-24
-4.78949e-24
-4.73045e-24
-4.619e-24
-4.45685e-24
-4.24621e-24
-3.98979e-24
-3.69075e-24
-3.35263e-24
-2.97928e-24
-2.57488e-24
-2.1438e-24
-1.69066e-24
-1.22019e-24
-7.37265e-25
-2.46834e-25
)
;
    }
    outlet
    {
        type            cyclic;
        value           nonuniform List<scalar> 
120
(
8.58061e-28
2.57578e-27
4.29985e-27
5.99435e-27
7.70013e-27
9.41709e-27
1.11622e-26
1.28332e-26
1.4518e-26
1.63237e-26
1.81334e-26
1.99424e-26
2.18948e-26
2.38516e-26
2.58422e-26
2.78693e-26
2.99356e-26
3.20438e-26
3.41965e-26
3.63967e-26
3.86471e-26
4.09506e-26
4.33091e-26
4.54856e-26
4.84518e-26
5.12428e-26
5.42406e-26
5.69095e-26
5.97944e-26
6.30775e-26
6.58939e-26
6.82077e-26
7.0944e-26
7.37768e-26
7.67072e-26
7.93395e-26
8.27139e-26
8.73028e-26
9.00571e-26
9.54017e-26
9.76481e-26
1.02615e-25
1.06037e-25
1.10087e-25
1.13766e-25
1.20005e-25
1.232e-25
1.28225e-25
1.30846e-25
1.37089e-25
1.42337e-25
1.4777e-25
1.53398e-25
1.5922e-25
1.64557e-25
1.71716e-25
1.78392e-25
1.85272e-25
1.93848e-25
1.99127e-25
2.06084e-25
2.13228e-25
2.20542e-25
2.28022e-25
2.37317e-25
2.4116e-25
2.50721e-25
2.58662e-25
2.66656e-25
2.74693e-25
2.84599e-25
2.9024e-25
2.97685e-25
3.05043e-25
3.12269e-25
3.19324e-25
3.2617e-25
3.32768e-25
3.39078e-25
3.45061e-25
3.50681e-25
3.559e-25
3.60686e-25
3.65006e-25
3.68854e-25
3.7678e-25
3.7395e-25
3.7516e-25
3.75831e-25
3.76151e-25
3.80616e-25
6.72575e-25
1.16579e-24
1.65509e-24
2.12671e-24
2.5745e-24
2.99305e-24
3.37739e-24
3.72294e-24
4.0256e-24
4.28184e-24
4.48876e-24
4.64416e-24
4.74652e-24
4.79501e-24
4.78949e-24
4.73045e-24
4.619e-24
4.45685e-24
4.24621e-24
3.98979e-24
3.69075e-24
3.35263e-24
2.97928e-24
2.57488e-24
2.1438e-24
1.69066e-24
1.22019e-24
7.37265e-25
2.46834e-25
)
;
    }
    top
    {
        type            fixedValue;
        value           uniform 0;
    }
    bottom
    {
        type            fixedValue;
        value           uniform 0;
    }
    frontAndBackPlanes
    {
        type            empty;
        value           nonuniform List<scalar> 0();
    }
}


// ************************************************************************* //
