/*--------------------------------*- C++ -*----------------------------------*\
| =========                 |                                                 |
| \\      /  F ield         | OpenFOAM: The Open Source CFD Toolbox           |
|  \\    /   O peration     | Version:  v2006                                 |
|   \\  /    A nd           | Website:  www.openfoam.com                      |
|    \\/     M anipulation  |                                                 |
\*---------------------------------------------------------------------------*/
FoamFile
{
    version     2.0;
    format      ascii;
    class       volTensorField;
    location    "1420";
    object      Taua;
}
// * * * * * * * * * * * * * * * * * * * * * * * * * * * * * * * * * * * * * //

dimensions      [1 -1 -2 0 0 0 0];


internalField   nonuniform List<tensor> 
120
(
(0.00144892 0 0 1.20184e-14 -0.00289784 0 0 0 0.00144892)
(0.00146382 0 0 1.20369e-14 -0.00292764 0 0 0 0.00146382)
(0.00148365 0 0 1.1965e-14 -0.00296729 0 0 0 0.00148365)
(0.00150283 0 0 1.19104e-14 -0.00300565 0 0 0 0.00150283)
(0.00152234 0 0 1.19794e-14 -0.00304469 0 0 0 0.00152234)
(0.00154258 0 0 1.20658e-14 -0.00308516 0 0 0 0.00154258)
(0.00156348 0 0 1.19568e-14 -0.00312696 0 0 0 0.00156348)
(0.00158502 0 0 1.18652e-14 -0.00317004 0 0 0 0.00158502)
(0.0016072 0 0 1.22168e-14 -0.0032144 0 0 0 0.0016072)
(0.00163002 0 0 1.2586e-14 -0.00326005 0 0 0 0.00163002)
(0.00165348 0 0 1.27601e-14 -0.00330697 0 0 0 0.00165348)
(0.00167757 0 0 1.31648e-14 -0.00335513 0 0 0 0.00167757)
(0.00170226 0 0 1.35875e-14 -0.00340452 0 0 0 0.00170226)
(0.00172754 0 0 1.38156e-14 -0.00345508 0 0 0 0.00172754)
(0.00175338 0 0 1.4062e-14 -0.00350677 0 0 0 0.00175338)
(0.00177976 0 0 1.43269e-14 -0.00355952 0 0 0 0.00177976)
(0.00180664 0 0 1.46105e-14 -0.00361328 0 0 0 0.00180664)
(0.00183398 0 0 1.49132e-14 -0.00366797 0 0 0 0.00183398)
(0.00186174 0 0 1.52352e-14 -0.00372348 0 0 0 0.00186174)
(0.00188987 0 0 1.55769e-14 -0.00377974 0 0 0 0.00188987)
(0.00191831 0 0 1.59386e-14 -0.00383663 0 0 0 0.00191831)
(0.00194701 0 0 1.63208e-14 -0.00389403 0 0 0 0.00194701)
(0.00197591 0 0 1.6724e-14 -0.00395182 0 0 0 0.00197591)
(0.00200493 0 0 1.79994e-14 -0.00400987 0 0 0 0.00200493)
(0.00203402 0 0 1.92969e-14 -0.00406804 0 0 0 0.00203402)
(0.00206309 0 0 1.97661e-14 -0.00412619 0 0 0 0.00206309)
(0.00209208 0 0 1.98332e-14 -0.00418415 0 0 0 0.00209208)
(0.0021209 0 0 1.99244e-14 -0.00424179 0 0 0 0.0021209)
(0.00214947 0 0 2.04659e-14 -0.00429895 0 0 0 0.00214947)
(0.00217773 0 0 2.01824e-14 -0.00435545 0 0 0 0.00217773)
(0.00220558 0 0 1.90749e-14 -0.00441116 0 0 0 0.00220558)
(0.00223295 0 0 1.88461e-14 -0.00446591 0 0 0 0.00223295)
(0.00225977 0 0 1.94971e-14 -0.00451955 0 0 0 0.00225977)
(0.00228596 0 0 2.01778e-14 -0.00457192 0 0 0 0.00228596)
(0.00231145 0 0 2.08839e-14 -0.0046229 0 0 0 0.00231145)
(0.00233617 3.68135e-17 0 2.24744e-14 -0.00467233 0 0 0 0.00233617)
(0.00236006 0 0 2.49618e-14 -0.00472011 0 0 0 0.00236006)
(0.00238305 0 0 2.57826e-14 -0.00476611 0 0 0 0.00238305)
(0.00240511 0 0 2.66341e-14 -0.00481023 0 0 0 0.00240511)
(0.00242619 0 0 2.66707e-14 -0.00485238 0 0 0 0.00242619)
(0.00244624 0 0 2.67464e-14 -0.00489247 0 0 0 0.00244624)
(0.00246523 0 0 2.7713e-14 -0.00493046 0 0 0 0.00246523)
(0.00248314 0 0 2.78681e-14 -0.00496628 0 0 0 0.00248314)
(0.00249996 0 0 2.89161e-14 -0.00499991 0 0 0 0.00249996)
(0.00251566 0 0 3.0858e-14 -0.00503132 0 0 0 0.00251566)
(0.00253026 0 0 3.11351e-14 -0.00506051 0 0 0 0.00253026)
(0.00254374 0 0 3.05998e-14 -0.00508749 0 0 0 0.00254374)
(0.00255613 0 0 3.09565e-14 -0.00511227 0 0 0 0.00255613)
(0.00256744 0 0 3.30586e-14 -0.00513489 0 0 0 0.00256744)
(0.00257769 0 0 3.60499e-14 -0.00515538 0 0 0 0.00257769)
(0.00258691 0 0 3.73667e-14 -0.00517381 0 0 0 0.00258691)
(0.00259511 0 0 3.87131e-14 -0.00519023 0 0 0 0.00259511)
(0.00260235 0 0 4.00846e-14 -0.0052047 0 0 0 0.00260235)
(0.00260865 0 0 4.1476e-14 -0.0052173 0 0 0 0.00260865)
(0.00261405 0 0 4.37366e-14 -0.0052281 0 0 0 0.00261405)
(0.00261859 0 0 4.60032e-14 -0.00523718 0 0 0 0.00261859)
(0.00262231 0 0 4.74119e-14 -0.00524461 0 0 0 0.00262231)
(0.00262524 0 0 4.88198e-14 -0.00525049 0 0 0 0.00262524)
(0.00262744 -3.68135e-17 0 4.84904e-14 -0.00525488 0 0 0 0.00262744)
(0.00262894 0 0 4.81019e-14 -0.00525789 0 0 0 0.00262894)
(0.0026298 0 0 4.93781e-14 -0.00525959 0 0 0 0.0026298)
(0.00263005 0 0 5.06034e-14 -0.00526009 0 0 0 0.00263005)
(0.00262974 0 0 5.1751e-14 -0.00525948 0 0 0 0.00262974)
(0.00262893 0 0 5.28046e-14 -0.00525786 0 0 0 0.00262893)
(0.00262767 0 0 5.2031e-14 -0.00525533 0 0 0 0.00262767)
(0.002626 0 0 5.2848e-14 -0.005252 0 0 0 0.002626)
(0.00262398 0 0 5.52377e-14 -0.00524796 0 0 0 0.00262398)
(0.00262166 0 0 5.57476e-14 -0.00524332 0 0 0 0.00262166)
(0.00261907 0 0 5.60779e-14 -0.00523813 0 0 0 0.00261907)
(0.00261624 0 0 5.62116e-14 -0.00523247 0 0 0 0.00261624)
(0.00261318 0 0 5.44131e-14 -0.00522637 0 0 0 0.00261318)
(0.00260991 0 0 5.23876e-14 -0.00521981 0 0 0 0.00260991)
(0.00260638 0 0 5.18416e-14 -0.00521277 0 0 0 0.00260638)
(0.00260258 0 0 5.10438e-14 -0.00520516 0 0 0 0.00260258)
(0.00259845 0 0 4.99842e-14 -0.00519689 0 0 0 0.00259845)
(0.00259392 0 0 4.86556e-14 -0.00518784 0 0 0 0.00259392)
(0.00258896 0 0 4.70536e-14 -0.00517791 0 0 0 0.00258896)
(0.00258356 0 0 4.51769e-14 -0.00516712 0 0 0 0.00258356)
(0.00257785 0 0 4.30275e-14 -0.00515569 0 0 0 0.00257785)
(0.0025722 0 0 4.0611e-14 -0.0051444 0 0 0 0.0025722)
(0.00256731 0 0 3.79366e-14 -0.00513461 0 0 0 0.00256731)
(0.00256395 0 0 3.50171e-14 -0.0051279 0 0 0 0.00256395)
(0.00256519 0 0 3.1869e-14 -0.00513038 0 0 0 0.00256519)
(0.00258512 0 0 2.85124e-14 -0.00517024 0 0 0 0.00258512)
(0.00263529 0 0 2.49701e-14 -0.00527058 0 0 0 0.00263529)
(0.00263084 0 0 1.78321e-14 -0.00526168 0 0 0 0.00263084)
(0.0025865 0 0 1.057e-14 -0.005173 0 0 0 0.0025865)
(0.00416955 0 0 6.65806e-15 -0.00833909 0 0 0 0.00416955)
(0.0149369 0 0 3.38997e-15 -0.0298738 0 0 0 0.0149369)
(0.00953272 0 0 3.37947e-16 -0.0190654 0 0 0 0.00953272)
(9.60626e-06 0 0 4.27473e-19 -1.92125e-05 0 0 0 9.60626e-06)
(3.67721e-07 0 0 2.05905e-20 -7.35443e-07 0 0 0 3.67721e-07)
(6.82238e-10 0 0 5.27863e-23 -1.36448e-09 0 0 0 6.82238e-10)
(1.18167e-17 0 0 1.30031e-30 -2.36333e-17 0 0 0 1.18167e-17)
(5.00091e-26 0 0 1.32341e-38 -1.00018e-25 0 0 0 5.00091e-26)
(-2.07093e-36 0 0 1.19485e-46 4.14186e-36 0 0 0 -2.07093e-36)
(-7.45271e-45 0 0 1.32654e-54 1.49054e-44 0 0 0 -7.45271e-45)
(6.29485e-53 0 0 1.8917e-62 -1.25897e-52 0 0 0 6.29485e-53)
(2.37703e-61 0 0 3.18833e-70 -4.75406e-61 0 0 0 2.37703e-61)
(-1.49762e-69 0 0 5.32661e-78 2.99524e-69 0 0 0 -1.49762e-69)
(-8.83915e-78 0 0 8.956e-86 1.76783e-77 0 0 0 -8.83915e-78)
(4.20092e-86 0 0 1.43691e-93 -8.40185e-86 0 0 0 4.20092e-86)
(3.67334e-94 0 0 2.26628e-101 -7.34668e-94 0 0 0 3.67334e-94)
(-1.38191e-102 0 0 3.18452e-109 2.76382e-102 0 0 0 -1.38191e-102)
(-2.85138e-110 0 0 3.35584e-117 5.70275e-110 0 0 0 -2.85138e-110)
(2.06435e-118 0 0 -3.93379e-124 -4.1287e-118 0 0 0 2.06435e-118)
(2.31763e-125 0 0 -1.25923e-130 -4.63526e-125 0 0 0 2.31763e-125)
(4.39936e-133 0 0 -2.5065e-137 -8.79871e-133 0 0 0 4.39936e-133)
(1.1044e-139 0 0 -4.10946e-144 -2.20879e-139 0 0 0 1.1044e-139)
(2.25107e-146 0 0 -5.62091e-151 -4.50213e-146 0 0 0 2.25107e-146)
(2.77966e-153 0 0 -6.87792e-158 -5.55932e-153 0 0 0 2.77966e-153)
(2.25976e-160 0 0 -7.31951e-165 -4.51952e-160 0 0 0 2.25976e-160)
(1.27004e-167 0 0 -7.32784e-172 -2.54008e-167 0 0 0 1.27004e-167)
(-1.43764e-173 0 0 -6.90564e-179 2.87527e-173 0 0 0 -1.43764e-173)
(-2.2296e-180 0 0 -6.60738e-186 4.45921e-180 0 0 0 -2.2296e-180)
(-3.68763e-186 0 0 -6.14697e-193 7.37525e-186 0 0 0 -3.68763e-186)
(-1.71436e-190 0 0 -5.68425e-200 3.42872e-190 0 0 0 -1.71436e-190)
(-3.34921e-197 0 0 -4.89207e-207 6.69841e-197 0 0 0 -3.34921e-197)
(-1.93705e-203 0 0 -3.98752e-214 3.8741e-203 0 0 0 -1.93705e-203)
(-1.34949e-207 0 0 -2.90875e-221 2.69897e-207 0 0 0 -1.34949e-207)
)
;

boundaryField
{
    inlet
    {
        type            cyclic;
    }
    outlet
    {
        type            cyclic;
    }
    top
    {
        type            extrapolatedCalculated;
        value           uniform (-2.6964e-207 0 0 -2.91824e-221 5.39279e-207 0 0 0 -2.6964e-207);
    }
    bottom
    {
        type            extrapolatedCalculated;
        value           uniform (0.00144423 0 0 1.20129e-14 -0.00288846 0 0 0 0.00144423);
    }
    frontAndBackPlanes
    {
        type            empty;
    }
}


// ************************************************************************* //
