/*--------------------------------*- C++ -*----------------------------------*\
| =========                 |                                                 |
| \\      /  F ield         | OpenFOAM: The Open Source CFD Toolbox           |
|  \\    /   O peration     | Version:  v2006                                 |
|   \\  /    A nd           | Website:  www.openfoam.com                      |
|    \\/     M anipulation  |                                                 |
\*---------------------------------------------------------------------------*/
FoamFile
{
    version     2.0;
    format      ascii;
    class       volTensorField;
    location    "1420";
    object      Taub;
}
// * * * * * * * * * * * * * * * * * * * * * * * * * * * * * * * * * * * * * //

dimensions      [1 -1 -2 0 0 0 0];


internalField   nonuniform List<tensor> 
120
(
(-1.0378e-07 0 0 5.72166e-19 2.0756e-07 0 0 0 -1.0378e-07)
(-1.04586e-07 0 0 5.73462e-19 2.09173e-07 0 0 0 -1.04586e-07)
(-1.05785e-07 0 0 5.69565e-19 2.1157e-07 0 0 0 -1.05785e-07)
(-1.07109e-07 0 0 5.6649e-19 2.14218e-07 0 0 0 -1.07109e-07)
(-1.08462e-07 0 0 5.70202e-19 2.16924e-07 0 0 0 -1.08462e-07)
(-1.09854e-07 0 0 5.76724e-19 2.19707e-07 0 0 0 -1.09854e-07)
(-1.11288e-07 0 0 5.69044e-19 2.22575e-07 0 0 0 -1.11288e-07)
(-1.12766e-07 0 0 5.58965e-19 2.25532e-07 0 0 0 -1.12766e-07)
(-1.14288e-07 0 0 5.8136e-19 2.28576e-07 0 0 0 -1.14288e-07)
(-1.15853e-07 0 0 6.02146e-19 2.31706e-07 0 0 0 -1.15853e-07)
(-1.17461e-07 0 0 6.0266e-19 2.34922e-07 0 0 0 -1.17461e-07)
(-1.1911e-07 0 0 6.26385e-19 2.38221e-07 0 0 0 -1.1911e-07)
(-1.20801e-07 0 0 6.50976e-19 2.41601e-07 0 0 0 -1.20801e-07)
(-1.2253e-07 0 0 6.57295e-19 2.4506e-07 0 0 0 -1.2253e-07)
(-1.24297e-07 0 0 6.68959e-19 2.48594e-07 0 0 0 -1.24297e-07)
(-1.26099e-07 0 0 6.81521e-19 2.52198e-07 0 0 0 -1.26099e-07)
(-1.27934e-07 0 0 6.94973e-19 2.55868e-07 0 0 0 -1.27934e-07)
(-1.29798e-07 0 0 7.09328e-19 2.59596e-07 0 0 0 -1.29798e-07)
(-1.31688e-07 0 0 7.246e-19 2.63376e-07 0 0 0 -1.31688e-07)
(-1.33601e-07 0 0 7.40805e-19 2.67201e-07 0 0 0 -1.33601e-07)
(-1.35532e-07 0 0 7.5796e-19 2.71064e-07 0 0 0 -1.35532e-07)
(-1.37478e-07 0 0 7.75911e-19 2.74956e-07 0 0 0 -1.37478e-07)
(-1.39435e-07 0 0 7.54737e-19 2.78869e-07 0 0 0 -1.39435e-07)
(-1.41397e-07 0 0 8.55802e-19 2.82794e-07 0 0 0 -1.41397e-07)
(-1.43359e-07 0 0 9.58002e-19 2.86719e-07 0 0 0 -1.43359e-07)
(-1.45317e-07 0 0 9.63207e-19 2.90633e-07 0 0 0 -1.45317e-07)
(-1.47262e-07 0 0 9.42807e-19 2.94525e-07 0 0 0 -1.47262e-07)
(-1.49192e-07 0 0 9.23959e-19 2.98384e-07 0 0 0 -1.49192e-07)
(-1.511e-07 0 0 1.02608e-18 3.022e-07 0 0 0 -1.511e-07)
(-1.5298e-07 0 0 1.01461e-18 3.0596e-07 0 0 0 -1.5298e-07)
(-1.54828e-07 0 0 8.53318e-19 3.09656e-07 0 0 0 -1.54828e-07)
(-1.56638e-07 0 0 8.39929e-19 3.13276e-07 0 0 0 -1.56638e-07)
(-1.58404e-07 0 0 9.2619e-19 3.16808e-07 0 0 0 -1.58404e-07)
(-1.60119e-07 0 0 9.58407e-19 3.20239e-07 0 0 0 -1.60119e-07)
(-1.61779e-07 0 0 9.24986e-19 3.23558e-07 0 0 0 -1.61779e-07)
(-1.63378e-07 -1.74885e-21 0 9.98716e-19 3.26756e-07 0 0 0 -1.63378e-07)
(-1.64913e-07 0 0 1.32394e-18 3.29826e-07 0 0 0 -1.64913e-07)
(-1.6638e-07 0 0 1.22077e-18 3.32759e-07 0 0 0 -1.6638e-07)
(-1.67775e-07 0 0 1.34628e-18 3.3555e-07 0 0 0 -1.67775e-07)
(-1.69096e-07 0 0 1.26174e-18 3.38192e-07 0 0 0 -1.69096e-07)
(-1.70339e-07 0 0 1.19886e-18 3.40677e-07 0 0 0 -1.70339e-07)
(-1.715e-07 0 0 1.39414e-18 3.42999e-07 0 0 0 -1.715e-07)
(-1.72576e-07 0 0 1.24166e-18 3.45151e-07 0 0 0 -1.72576e-07)
(-1.73566e-07 0 0 1.28426e-18 3.47133e-07 0 0 0 -1.73566e-07)
(-1.74472e-07 0 0 1.64775e-18 3.48943e-07 0 0 0 -1.74472e-07)
(-1.75291e-07 0 0 1.56717e-18 3.50583e-07 0 0 0 -1.75291e-07)
(-1.76026e-07 0 0 1.36545e-18 3.52052e-07 0 0 0 -1.76026e-07)
(-1.76678e-07 0 0 1.26997e-18 3.53355e-07 0 0 0 -1.76678e-07)
(-1.77245e-07 0 0 1.47209e-18 3.54491e-07 0 0 0 -1.77245e-07)
(-1.77727e-07 0 0 1.90823e-18 3.55455e-07 0 0 0 -1.77727e-07)
(-1.78124e-07 0 0 1.77359e-18 3.56249e-07 0 0 0 -1.78124e-07)
(-1.78439e-07 0 0 1.83639e-18 3.56878e-07 0 0 0 -1.78439e-07)
(-1.78674e-07 0 0 1.90072e-18 3.57348e-07 0 0 0 -1.78674e-07)
(-1.78832e-07 0 0 1.85234e-18 3.57665e-07 0 0 0 -1.78832e-07)
(-1.78916e-07 0 0 2.07397e-18 3.57833e-07 0 0 0 -1.78916e-07)
(-1.7893e-07 0 0 2.29584e-18 3.57859e-07 0 0 0 -1.7893e-07)
(-1.78872e-07 0 0 2.24935e-18 3.57744e-07 0 0 0 -1.78872e-07)
(-1.78743e-07 0 0 2.56431e-18 3.57485e-07 0 0 0 -1.78743e-07)
(-1.78541e-07 3.48964e-21 0 2.29825e-18 3.57082e-07 0 0 0 -1.78541e-07)
(-1.78271e-07 0 0 2.02946e-18 3.56542e-07 0 0 0 -1.78271e-07)
(-1.77936e-07 0 0 2.33858e-18 3.55872e-07 0 0 0 -1.77936e-07)
(-1.77537e-07 0 0 2.39741e-18 3.55075e-07 0 0 0 -1.77537e-07)
(-1.77079e-07 0 0 2.45268e-18 3.54158e-07 0 0 0 -1.77079e-07)
(-1.76563e-07 0 0 2.78083e-18 3.53126e-07 0 0 0 -1.76563e-07)
(-1.7599e-07 0 0 2.17762e-18 3.51979e-07 0 0 0 -1.7599e-07)
(-1.75353e-07 0 0 2.22111e-18 3.50707e-07 0 0 0 -1.75353e-07)
(-1.74653e-07 0 0 2.89983e-18 3.49306e-07 0 0 0 -1.74653e-07)
(-1.7389e-07 0 0 2.63986e-18 3.4778e-07 0 0 0 -1.7389e-07)
(-1.73063e-07 0 0 2.65513e-18 3.46126e-07 0 0 0 -1.73063e-07)
(-1.7217e-07 0 0 2.97119e-18 3.44339e-07 0 0 0 -1.7217e-07)
(-1.71205e-07 0 0 2.57391e-18 3.4241e-07 0 0 0 -1.71205e-07)
(-1.70163e-07 0 0 2.16602e-18 3.40325e-07 0 0 0 -1.70163e-07)
(-1.6903e-07 0 0 2.44978e-18 3.38059e-07 0 0 0 -1.6903e-07)
(-1.67785e-07 0 0 2.41291e-18 3.3557e-07 0 0 0 -1.67785e-07)
(-1.66407e-07 0 0 2.36224e-18 3.32815e-07 0 0 0 -1.66407e-07)
(-1.64876e-07 0 0 2.29884e-18 3.29751e-07 0 0 0 -1.64876e-07)
(-1.63164e-07 0 0 2.22252e-18 3.26327e-07 0 0 0 -1.63164e-07)
(-1.6124e-07 0 0 2.13324e-18 3.2248e-07 0 0 0 -1.6124e-07)
(-1.59071e-07 0 0 2.03108e-18 3.18142e-07 0 0 0 -1.59071e-07)
(-1.56621e-07 0 0 1.91634e-18 3.13241e-07 0 0 0 -1.56621e-07)
(-1.53858e-07 0 0 1.78946e-18 3.07717e-07 0 0 0 -1.53858e-07)
(-1.50793e-07 0 0 1.65105e-18 3.01586e-07 0 0 0 -1.50793e-07)
(-1.47421e-07 0 0 1.50193e-18 2.94841e-07 0 0 0 -1.47421e-07)
(-1.4346e-07 0 0 1.34665e-18 2.86919e-07 0 0 0 -1.4346e-07)
(-1.39402e-07 0 0 1.93991e-18 2.78804e-07 0 0 0 -1.39402e-07)
(-1.41435e-07 0 0 8.38901e-19 2.82869e-07 0 0 0 -1.41435e-07)
(-1.6301e-07 0 0 -2.66448e-19 3.2602e-07 0 0 0 -1.6301e-07)
(-9.31692e-08 0 0 3.09101e-19 1.86338e-07 0 0 0 -9.31692e-08)
(3.56692e-06 0 0 1.62557e-19 -7.13383e-06 0 0 0 3.56692e-06)
(7.85214e-07 0 0 7.82671e-19 -1.57043e-06 0 0 0 7.85214e-07)
(4.36551e-05 0 0 4.01534e-17 -8.73101e-05 0 0 0 4.36551e-05)
(-2.22858e-05 0 0 5.33146e-17 4.45716e-05 0 0 0 -2.22858e-05)
(-2.29245e-05 0 0 6.54952e-17 4.58491e-05 0 0 0 -2.29245e-05)
(2.60904e-05 0 0 6.40534e-17 -5.21809e-05 0 0 0 2.60904e-05)
(2.98899e-06 0 0 6.12863e-17 -5.97799e-06 0 0 0 2.98899e-06)
(-1.95857e-06 0 0 5.77489e-17 3.91714e-06 0 0 0 -1.95857e-06)
(-3.18766e-07 0 0 5.35192e-17 6.37532e-07 0 0 0 -3.18766e-07)
(1.43157e-07 0 0 4.86532e-17 -2.86314e-07 0 0 0 1.43157e-07)
(3.13874e-08 0 0 4.32088e-17 -6.27748e-08 0 0 0 3.13874e-08)
(-1.01262e-08 0 0 3.72553e-17 2.02524e-08 0 0 0 -1.01262e-08)
(-2.972e-09 0 0 3.08736e-17 5.944e-09 0 0 0 -2.972e-09)
(6.80838e-10 0 0 2.41518e-17 -1.36168e-09 0 0 0 6.80838e-10)
(2.7116e-10 0 0 1.71817e-17 -5.42319e-10 0 0 0 2.7116e-10)
(-4.19216e-11 0 0 1.00556e-17 8.38432e-11 0 0 0 -4.19216e-11)
(-2.36558e-11 0 0 2.86439e-18 4.73116e-11 0 0 0 -2.36558e-11)
(2.15902e-12 0 0 -4.30372e-18 -4.31804e-12 0 0 0 2.15902e-12)
(2.03736e-12 0 0 -1.13643e-17 -4.07471e-12 0 0 0 2.03736e-12)
(3.27163e-13 0 0 -1.82378e-17 -6.54326e-13 0 0 0 3.27163e-13)
(6.72899e-13 0 0 -2.48501e-17 -1.3458e-12 0 0 0 6.72899e-13)
(1.2437e-12 0 0 -3.11331e-17 -2.48741e-12 0 0 0 1.2437e-12)
(1.49014e-12 0 0 -3.70254e-17 -2.98028e-12 0 0 0 1.49014e-12)
(1.30801e-12 0 0 -4.24722e-17 -2.61602e-12 0 0 0 1.30801e-12)
(8.56931e-13 0 0 -4.74255e-17 -1.71386e-12 0 0 0 8.56931e-13)
(5.30547e-13 0 0 -5.18437e-17 -1.06109e-12 0 0 0 5.30547e-13)
(5.28851e-13 0 0 -5.56917e-17 -1.0577e-12 0 0 0 5.28851e-13)
(7.85626e-13 0 0 -5.89405e-17 -1.57125e-12 0 0 0 7.85626e-13)
(9.01339e-13 0 0 -6.15665e-17 -1.80268e-12 0 0 0 9.01339e-13)
(-3.57323e-13 0 0 -6.35516e-17 7.14645e-13 0 0 0 -3.57323e-13)
(-7.44682e-13 0 0 -6.48823e-17 1.48936e-12 0 0 0 -7.44682e-13)
(2.03621e-11 0 0 -6.55984e-17 -4.07241e-11 0 0 0 2.03621e-11)
)
;

boundaryField
{
    inlet
    {
        type            cyclic;
    }
    outlet
    {
        type            cyclic;
    }
    top
    {
        type            extrapolatedCalculated;
        value           uniform (4.06465e-11 0 0 -6.58142e-17 -8.1293e-11 0 0 0 4.06465e-11);
    }
    bottom
    {
        type            extrapolatedCalculated;
        value           uniform (-1.03513e-07 0 0 5.71899e-19 2.07025e-07 0 0 0 -1.03513e-07);
    }
    frontAndBackPlanes
    {
        type            empty;
    }
}


// ************************************************************************* //
