/*--------------------------------*- C++ -*----------------------------------*\
| =========                 |                                                 |
| \\      /  F ield         | OpenFOAM: The Open Source CFD Toolbox           |
|  \\    /   O peration     | Version:  v2006                                 |
|   \\  /    A nd           | Website:  www.openfoam.com                      |
|    \\/     M anipulation  |                                                 |
\*---------------------------------------------------------------------------*/
FoamFile
{
    version     2.0;
    format      ascii;
    class       volVectorField;
    location    "1420";
    object      Ua;
}
// * * * * * * * * * * * * * * * * * * * * * * * * * * * * * * * * * * * * * //

dimensions      [0 1 -1 0 0 0 0];


internalField   nonuniform List<vector> 
120
(
(2.8602e-21 -1.03159e-09 0)
(8.5859e-21 -3.10817e-09 0)
(1.43239e-20 -5.21394e-09 0)
(1.99811e-20 -7.34716e-09 0)
(2.56671e-20 -9.50773e-09 0)
(3.13901e-20 -1.16967e-08 0)
(3.71583e-20 -1.39151e-08 0)
(4.27775e-20 -1.61638e-08 0)
(4.84585e-20 -1.84437e-08 0)
(5.44125e-20 -2.07558e-08 0)
(6.04452e-20 -2.31009e-08 0)
(6.6565e-20 -2.548e-08 0)
(7.29831e-20 -2.7894e-08 0)
(7.95055e-20 -3.03436e-08 0)
(8.61408e-20 -3.28298e-08 0)
(9.28978e-20 -3.53533e-08 0)
(9.97854e-20 -3.79148e-08 0)
(1.06813e-19 -4.05151e-08 0)
(1.13988e-19 -4.31548e-08 0)
(1.21322e-19 -4.58344e-08 0)
(1.28824e-19 -4.85544e-08 0)
(1.36502e-19 -5.13153e-08 0)
(1.44367e-19 -5.41173e-08 0)
(1.52429e-19 -5.69607e-08 0)
(1.61509e-19 -5.98457e-08 0)
(1.70807e-19 -6.27722e-08 0)
(1.80334e-19 -6.57402e-08 0)
(1.89696e-19 -6.87496e-08 0)
(1.9931e-19 -7.17999e-08 0)
(2.09188e-19 -7.48909e-08 0)
(2.18531e-19 -7.8022e-08 0)
(2.27354e-19 -8.11926e-08 0)
(2.3648e-19 -8.44019e-08 0)
(2.45923e-19 -8.7649e-08 0)
(2.55697e-19 -9.09332e-08 0)
(2.65812e-19 -9.42532e-08 0)
(2.77101e-19 -9.76079e-08 0)
(2.89585e-19 -1.00996e-07 0)
(3.01656e-19 -1.04417e-07 0)
(3.14951e-19 -1.07868e-07 0)
(3.27056e-19 -1.11349e-07 0)
(3.40424e-19 -1.14857e-07 0)
(3.5345e-19 -1.18392e-07 0)
(3.66965e-19 -1.21952e-07 0)
(3.80989e-19 -1.25535e-07 0)
(3.96353e-19 -1.29139e-07 0)
(4.10641e-19 -1.32764e-07 0)
(4.25496e-19 -1.36407e-07 0)
(4.40124e-19 -1.40067e-07 0)
(4.5698e-19 -1.43743e-07 0)
(4.74457e-19 -1.47432e-07 0)
(4.92568e-19 -1.51134e-07 0)
(5.11326e-19 -1.54847e-07 0)
(5.30744e-19 -1.58569e-07 0)
(5.50827e-19 -1.623e-07 0)
(5.72397e-19 -1.66038e-07 0)
(5.9464e-19 -1.69782e-07 0)
(6.17552e-19 -1.7353e-07 0)
(6.41135e-19 -1.77282e-07 0)
(6.63733e-19 -1.81037e-07 0)
(6.86946e-19 -1.84794e-07 0)
(7.1076e-19 -1.88551e-07 0)
(7.3514e-19 -1.92308e-07 0)
(7.60046e-19 -1.96065e-07 0)
(7.8543e-19 -1.99819e-07 0)
(8.096e-19 -2.03572e-07 0)
(8.35762e-19 -2.07322e-07 0)
(8.62207e-19 -2.11069e-07 0)
(8.88854e-19 -2.14813e-07 0)
(9.15614e-19 -2.18552e-07 0)
(9.42389e-19 -2.22288e-07 0)
(9.67436e-19 -2.26018e-07 0)
(9.92282e-19 -2.29745e-07 0)
(1.01681e-18 -2.33465e-07 0)
(1.0409e-18 -2.3718e-07 0)
(1.06441e-18 -2.40889e-07 0)
(1.08723e-18 -2.44592e-07 0)
(1.10923e-18 -2.48286e-07 0)
(1.13026e-18 -2.51973e-07 0)
(1.1502e-18 -2.55652e-07 0)
(1.16894e-18 -2.59322e-07 0)
(1.18633e-18 -2.62987e-07 0)
(1.20229e-18 -2.66648e-07 0)
(1.21669e-18 -2.70316e-07 0)
(1.22944e-18 -2.74034e-07 0)
(1.24047e-18 -2.77845e-07 0)
(1.24642e-18 -2.81551e-07 0)
(1.25053e-18 -2.85235e-07 0)
(1.25276e-18 -2.93464e-07 0)
(1.25376e-18 -3.27912e-07 0)
(1.25497e-18 -4.79704e-07 0)
(2.23986e-18 -6.68072e-05 0)
(3.88243e-18 -0.00014125 0)
(5.51582e-18 -0.000193828 0)
(7.08913e-18 -0.000228673 0)
(8.58193e-18 -0.000228587 0)
(9.97697e-18 -0.000228523 0)
(1.12582e-17 -0.000228542 0)
(1.24099e-17 -0.000228548 0)
(1.34189e-17 -0.000228547 0)
(1.42729e-17 -0.000228546 0)
(1.49627e-17 -0.000228546 0)
(1.54806e-17 -0.000228546 0)
(1.58218e-17 -0.000228546 0)
(1.59834e-17 -0.000228546 0)
(1.5965e-17 -0.000228546 0)
(1.57682e-17 -0.000228546 0)
(1.53967e-17 -0.000228546 0)
(1.48561e-17 -0.000228546 0)
(1.4154e-17 -0.000228546 0)
(1.32992e-17 -0.000228546 0)
(1.23024e-17 -0.000228546 0)
(1.11753e-17 -0.000228546 0)
(9.93091e-18 -0.000228546 0)
(8.58279e-18 -0.000228546 0)
(7.14587e-18 -0.000228546 0)
(5.63537e-18 -0.000228546 0)
(4.06713e-18 -0.000228518 0)
(2.45738e-18 -0.000228481 0)
(8.22691e-19 -0.000228045 0)
)
;

boundaryField
{
    inlet
    {
        type            cyclic;
    }
    outlet
    {
        type            cyclic;
    }
    top
    {
        type            fixedValue;
        value           uniform (0 0 0);
    }
    bottom
    {
        type            fixedValue;
        value           uniform (0 0 0);
    }
    frontAndBackPlanes
    {
        type            empty;
    }
}


// ************************************************************************* //
