/*--------------------------------*- C++ -*----------------------------------*\
| =========                 |                                                 |
| \\      /  F ield         | OpenFOAM: The Open Source CFD Toolbox           |
|  \\    /   O peration     | Version:  v2006                                 |
|   \\  /    A nd           | Website:  www.openfoam.com                      |
|    \\/     M anipulation  |                                                 |
\*---------------------------------------------------------------------------*/
FoamFile
{
    version     2.0;
    format      ascii;
    class       volVectorField;
    location    "1420";
    object      Ub;
}
// * * * * * * * * * * * * * * * * * * * * * * * * * * * * * * * * * * * * * //

dimensions      [0 1 -1 0 0 0 0];


internalField   nonuniform List<vector> 
120
(
(2.8602e-21 1.55307e-09 0)
(8.58594e-21 4.67527e-09 0)
(1.43328e-20 7.83011e-09 0)
(1.99812e-20 1.10246e-08 0)
(2.56671e-20 1.42592e-08 0)
(3.13903e-20 1.75352e-08 0)
(3.72073e-20 2.08537e-08 0)
(4.27774e-20 2.42161e-08 0)
(4.83933e-20 2.76237e-08 0)
(5.44122e-20 3.10778e-08 0)
(6.04448e-20 3.45798e-08 0)
(6.64746e-20 3.81309e-08 0)
(7.29827e-20 4.17323e-08 0)
(7.95055e-20 4.53852e-08 0)
(8.61408e-20 4.90909e-08 0)
(9.28978e-20 5.28504e-08 0)
(9.97854e-20 5.66647e-08 0)
(1.06813e-19 6.05349e-08 0)
(1.13988e-19 6.44616e-08 0)
(1.21322e-19 6.84458e-08 0)
(1.28824e-19 7.24879e-08 0)
(1.36502e-19 7.65886e-08 0)
(1.44364e-19 8.07482e-08 0)
(1.51619e-19 8.4967e-08 0)
(1.61506e-19 8.9245e-08 0)
(1.70809e-19 9.35823e-08 0)
(1.80802e-19 9.79786e-08 0)
(1.89698e-19 1.02433e-07 0)
(1.99315e-19 1.06946e-07 0)
(2.10258e-19 1.11516e-07 0)
(2.19646e-19 1.16143e-07 0)
(2.27359e-19 1.20825e-07 0)
(2.3648e-19 1.25561e-07 0)
(2.45923e-19 1.30349e-07 0)
(2.55691e-19 1.35189e-07 0)
(2.64465e-19 1.40079e-07 0)
(2.75713e-19 1.45015e-07 0)
(2.91009e-19 1.49998e-07 0)
(3.0019e-19 1.55024e-07 0)
(3.18006e-19 1.60091e-07 0)
(3.25494e-19 1.65197e-07 0)
(3.4205e-19 1.7034e-07 0)
(3.53457e-19 1.75517e-07 0)
(3.66957e-19 1.80725e-07 0)
(3.79221e-19 1.85962e-07 0)
(4.00016e-19 1.91226e-07 0)
(4.10666e-19 1.96514e-07 0)
(4.27416e-19 2.01823e-07 0)
(4.36153e-19 2.07151e-07 0)
(4.56963e-19 2.12496e-07 0)
(4.74457e-19 2.17854e-07 0)
(4.92568e-19 2.23223e-07 0)
(5.11326e-19 2.28602e-07 0)
(5.30733e-19 2.33986e-07 0)
(5.48525e-19 2.39375e-07 0)
(5.72387e-19 2.44766e-07 0)
(5.9464e-19 2.50158e-07 0)
(6.17574e-19 2.55547e-07 0)
(6.46161e-19 2.60931e-07 0)
(6.63755e-19 2.66309e-07 0)
(6.86946e-19 2.71679e-07 0)
(7.1076e-19 2.77039e-07 0)
(7.3514e-19 2.82386e-07 0)
(7.60072e-19 2.87719e-07 0)
(7.91058e-19 2.93037e-07 0)
(8.03867e-19 2.98338e-07 0)
(8.35736e-19 3.03619e-07 0)
(8.62207e-19 3.08879e-07 0)
(8.88855e-19 3.14116e-07 0)
(9.15643e-19 3.19328e-07 0)
(9.48663e-19 3.24513e-07 0)
(9.67465e-19 3.29669e-07 0)
(9.92282e-19 3.34793e-07 0)
(1.01681e-18 3.39883e-07 0)
(1.0409e-18 3.44934e-07 0)
(1.06441e-18 3.49943e-07 0)
(1.08723e-18 3.54905e-07 0)
(1.10923e-18 3.59813e-07 0)
(1.13026e-18 3.64661e-07 0)
(1.1502e-18 3.69441e-07 0)
(1.16894e-18 3.74144e-07 0)
(1.18633e-18 3.7876e-07 0)
(1.20229e-18 3.83282e-07 0)
(1.21669e-18 3.87698e-07 0)
(1.22951e-18 3.91983e-07 0)
(1.25593e-18 3.96159e-07 0)
(1.2465e-18 4.00574e-07 0)
(1.25053e-18 4.06068e-07 0)
(1.25277e-18 4.06244e-07 0)
(1.25384e-18 1.88653e-07 0)
(1.26872e-18 3.58233e-07 0)
(2.24192e-18 -3.03409e-06 0)
(3.88595e-18 3.64029e-06 0)
(5.51696e-18 4.04887e-07 0)
(7.08902e-18 -2.73767e-07 0)
(8.58166e-18 -4.35185e-08 0)
(9.97683e-18 2.00554e-08 0)
(1.1258e-17 4.30236e-09 0)
(1.24098e-17 -1.42084e-09 0)
(1.34187e-17 -4.0634e-10 0)
(1.42728e-17 9.82794e-11 0)
(1.49625e-17 3.95162e-11 0)
(1.54805e-17 -3.85914e-12 0)
(1.58217e-17 -1.16285e-12 0)
(1.59834e-17 2.42988e-12 0)
(1.5965e-17 2.38597e-12 0)
(1.57682e-17 2.10599e-12 0)
(1.53967e-17 2.08032e-12 0)
(1.48562e-17 2.05691e-12 0)
(1.4154e-17 1.97938e-12 0)
(1.32993e-17 1.87033e-12 0)
(1.23025e-17 1.75583e-12 0)
(1.11754e-17 1.6741e-12 0)
(9.93094e-18 1.62727e-12 0)
(8.58292e-18 1.59451e-12 0)
(7.14601e-18 1.54793e-12 0)
(5.63553e-18 1.47665e-12 0)
(4.0673e-18 1.41272e-12 0)
(2.45755e-18 1.53026e-12 0)
(8.2278e-19 1.52443e-12 0)
)
;

boundaryField
{
    inlet
    {
        type            cyclic;
    }
    outlet
    {
        type            cyclic;
    }
    top
    {
        type            fixedValue;
        value           uniform (0 0 0);
    }
    bottom
    {
        type            fixedValue;
        value           uniform (0 0 0);
    }
    frontAndBackPlanes
    {
        type            empty;
    }
}


// ************************************************************************* //
