/*--------------------------------*- C++ -*----------------------------------*\
| =========                 |                                                 |
| \\      /  F ield         | OpenFOAM: The Open Source CFD Toolbox           |
|  \\    /   O peration     | Version:  2206                                  |
|   \\  /    A nd           | Website:  www.openfoam.com                      |
|    \\/     M anipulation  |                                                 |
\*---------------------------------------------------------------------------*/
FoamFile
{
    version     2.0;
    format      ascii;
    arch        "LSB;label=32;scalar=64";
    class       volScalarField;
    location    "200";
    object      alpha.a;
}
// * * * * * * * * * * * * * * * * * * * * * * * * * * * * * * * * * * * * * //

dimensions      [0 0 0 0 0 0 0];

internalField   nonuniform List<scalar> 
344
(
0.585917
0.585857
0.585812
0.585748
0.585702
0.585636
0.585589
0.585521
0.585472
0.585402
0.585353
0.585281
0.58523
0.585156
0.585104
0.585027
0.584973
0.584893
0.584838
0.584756
0.584699
0.584614
0.584555
0.584467
0.584407
0.584314
0.584252
0.584156
0.584092
0.583992
0.583926
0.583822
0.583752
0.583644
0.583572
0.583458
0.583383
0.583264
0.583186
0.58306
0.582979
0.582847
0.582761
0.582621
0.582531
0.582383
0.582289
0.582131
0.582031
0.581863
0.581756
0.581576
0.581463
0.581269
0.581147
0.580937
0.580806
0.580577
0.580434
0.580184
0.580027
0.579749
0.579575
0.579263
0.579067
0.578711
0.578488
0.578073
0.577813
0.577317
0.577003
0.576386
0.575987
0.575168
0.57461
0.57337
0.572419
0.569569
0.196862
7.95343e-05
1.31577e-07
4.43827e-09
4.56514e-19
3.20606e-29
1.78291e-39
9.3089e-50
4.25384e-60
1.78228e-70
6.36516e-81
2.54052e-91
1.01565e-101
4.12475e-112
1.52159e-122
5.7003e-133
1.93482e-143
6.00765e-154
1.51266e-164
3.72431e-175
8.05197e-186
1.52805e-196
2.19877e-207
2.50592e-218
1.84167e-229
6.5942e-241
8.07928e-253
6.83604e-266
1.3373e-276
2.36764e-287
4.51282e-298
1.41466e-308
1.94755e-316
1.78817e-319
0
0
0
0
0
0
0
4.76449e-317
0
0
0
1.8058e-316
0
0
0
0
0
0
0
0
0
0
1.75432e-316
0
0
0
0
0
0
0
0
0
0
0
0
0
0
0
0
0
0
0
0
0
0
0
0
0
0
0
0
0
0
0
0
0
0
0
0
0
0
0
0
0
0
0
0
0
0
0
0
0
0
0
0
0
0
0
0
0
0
0
0
0
0
0
0
0
0
0
0
0
0
0
0
0
0
0
0
0
0
0
0
0
0
0
0
0
0
0
0
0
0
0
0
0
0
0
0
0
0
0
0
0
0
0
0
0
0
0
0
0
0
0
0
0
0
0
0
0
0
0
0
0
0
0
0
0
0
0
0
0
0
0
0
0
0
0
0
0
0
0
0
0
0
0
0
0
0
0
0
0
0
0
0
0
0
0
0
0
0
0
0
0
0
0
0
0
0
0
0
0
0
0
0
0
0
0
0
0
0
0
0
0
0
0
0
0
0
0
0
0
0
0
0
0
0
0
0
0
0
0
0
0
0
0
0
0
0
0
0
0
)
;

boundaryField
{
    inlet
    {
        type            cyclic;
    }
    outlet
    {
        type            cyclic;
    }
    top
    {
        type            zeroGradient;
    }
    bottom
    {
        type            zeroGradient;
    }
    frontAndBackPlanes
    {
        type            empty;
    }
}


// ************************************************************************* //
