/*--------------------------------*- C++ -*----------------------------------*\
| =========                 |                                                 |
| \\      /  F ield         | OpenFOAM: The Open Source CFD Toolbox           |
|  \\    /   O peration     | Version:  2206                                  |
|   \\  /    A nd           | Website:  www.openfoam.com                      |
|    \\/     M anipulation  |                                                 |
\*---------------------------------------------------------------------------*/
FoamFile
{
    version     2.0;
    format      ascii;
    arch        "LSB;label=32;scalar=64";
    class       volScalarField;
    location    "200";
    object      muI;
}
// * * * * * * * * * * * * * * * * * * * * * * * * * * * * * * * * * * * * * //

dimensions      [0 0 0 0 0 0 0];

internalField   nonuniform List<scalar> 
344
(
0.630001
0.630001
0.63
0.63
0.63
0.63
0.63
0.63
0.63
0.63
0.63
0.63
0.63
0.63
0.63
0.63
0.63
0.63
0.63
0.63
0.63
0.63
0.63
0.63
0.63
0.63
0.63
0.63
0.63
0.63
0.63
0.63
0.63
0.63
0.63
0.63
0.63
0.63
0.63
0.63
0.63
0.63
0.63
0.63
0.63
0.63
0.63
0.63
0.63
0.63
0.63
0.63
0.63
0.63
0.63
0.63
0.63
0.63
0.63
0.63
0.63
0.63
0.63
0.63
0.63
0.63
0.63
0.63
0.63
0.63
0.63
0.63
0.63
0.63
0.63
0.63
0.63
0.630002
1.12439
1.12841
1.12787
1.11542
1.10568
1.00958
0.954371
0.656781
0.773513
0.800595
0.758305
0.630011
0.630009
0.630004
0.630004
0.630002
0.630001
0.630001
0.630002
0.630003
0.630006
0.630031
0.666267
0.865996
1.08006
1.12053
1.11879
0.630028
1.11698
1.11698
0.630006
0.630004
0.630004
0.630004
0.630004
0.630004
0.630004
0.630004
0.630004
0.630004
0.630004
0.630004
0.630004
0.630004
0.630004
0.630003
0.630006
1.11739
1.11739
0.630012
1.11742
1.11691
1.11552
1.11484
0.630006
1.11272
1.11272
0.630001
1.09079
1.09079
0.630004
1.10269
1.10089
1.11409
1.1135
0.630007
1.1141
1.1141
0.630005
0.630018
1.04943
1.04943
0.630001
1.05064
1.05064
0.630021
0.630017
0.630019
0.630015
0.630019
1.11976
1.11976
0.630013
1.11881
1.11881
0.630005
0.63003
1.1168
1.1168
0.630016
1.11804
1.11748
1.11752
1.1169
0.630016
1.11806
1.11806
0.630014
0.630028
0.630022
0.630022
0.630022
0.630022
0.630022
0.630022
0.630022
0.630022
0.630022
0.630022
0.630027
0.917359
0.917372
0.63
0.925125
0.925114
0.630027
0.630026
0.630016
1.09197
1.09197
0.630001
1.08442
1.08442
0.630024
0.630024
0.630015
1.11198
1.11198
0.630005
1.11178
1.11178
0.630017
0.630014
0.630015
0.630013
0.630013
1.11963
1.11963
0.630023
1.1196
1.1196
0.630017
0.630014
0.630014
0.630014
0.630015
0.630011
1.11743
1.11743
0.63001
1.11757
1.11757
0.630008
0.630007
0.630007
0.630007
0.630007
0.630007
0.630007
0.630007
0.630006
0.630007
1.11872
1.11872
0.630009
1.11719
1.11719
0.630007
1.11535
1.11535
0.630009
1.11719
1.11719
0.630017
0.630014
0.630014
0.630014
0.630014
0.630015
0.630011
1.11648
1.11648
0.630011
1.11669
1.11595
1.11818
1.1176
0.630021
1.11866
1.1187
0.981615
0.988125
0.630001
0.964284
0.964277
0.630008
0.630034
0.969053
0.96906
0.63
0.962671
0.962663
0.630018
0.630015
1.11449
1.11449
0.630006
1.11355
1.11355
0.630018
0.630015
0.630014
0.630015
0.630012
1.11823
1.11823
0.630012
1.11821
1.11821
0.630017
0.630014
0.630014
0.630019
0.630008
1.10141
1.10141
0.630003
1.10181
1.10181
0.630018
0.630015
0.630015
0.630013
1.11776
1.11776
0.630011
1.11802
1.11802
0.630004
0.630002
0.630002
0.630002
0.630002
1.10707
1.10707
0.630003
1.10603
1.10603
0.630018
0.630015
0.630015
0.630015
0.630012
1.11761
1.11761
0.630011
1.11797
1.11797
0.630003
0.630002
0.630001
0.630001
0.630001
0.630001
0.63
0.63
)
;

boundaryField
{
    inlet
    {
        type            cyclic;
    }
    outlet
    {
        type            cyclic;
    }
    top
    {
        type            calculated;
        value           uniform 0.63;
    }
    bottom
    {
        type            calculated;
        value           uniform 0.630006;
    }
    frontAndBackPlanes
    {
        type            empty;
    }
}


// ************************************************************************* //
