/*--------------------------------*- C++ -*----------------------------------*\
| =========                 |                                                 |
| \\      /  F ield         | OpenFOAM: The Open Source CFD Toolbox           |
|  \\    /   O peration     | Version:  2206                                  |
|   \\  /    A nd           | Website:  www.openfoam.com                      |
|    \\/     M anipulation  |                                                 |
\*---------------------------------------------------------------------------*/
FoamFile
{
    version     2.0;
    format      ascii;
    arch        "LSB;label=32;scalar=64";
    class       volScalarField;
    location    "200";
    object      nuFra;
}
// * * * * * * * * * * * * * * * * * * * * * * * * * * * * * * * * * * * * * //

dimensions      [0 2 -1 0 0 0 0];

internalField   nonuniform List<scalar> 
344
(
0.01
0.01
0.01
0.01
0.01
0.01
0.01
0.01
0.01
0.01
0.01
0.01
0.01
0.01
0.01
0.01
0.01
0.01
0.01
0.01
0.01
0.01
0.01
0.01
0.01
0.01
0.01
0.01
0.01
0.01
0.01
0.01
0.01
0.01
0.01
0.01
0.01
0.01
0.01
0.01
0.01
0.01
0.01
0.01
0.01
0.01
0.01
0.01
0.01
0.01
0.01
0.01
0.01
0.01
0.01
0.01
0.01
0.01
0.01
0.01
0.01
0.01
0.01
0.01
0.01
0.01
0.01
0.01
0.01
0.01
0.01
0.01
0.01
0.01
0.01
0.01
0.01
0.01
6.8873e-11
1.94446e-11
2.60529e-11
1.80758e-10
3.05043e-10
1.72809e-09
2.78814e-09
6.26168e-08
1.03672e-08
8.341e-09
1.1853e-08
0.000125949
0.000146714
0.000198251
0.000208062
0.000226358
0.000230664
0.00023098
0.000226083
0.000212797
0.000174176
5.29212e-05
4.59674e-08
5.22711e-09
6.46698e-10
1.16756e-10
1.3849e-10
5.87021e-05
1.6113e-10
1.61134e-10
0.000181152
0.000199349
0.000199305
0.000199277
0.000199298
0.000199283
0.000199294
0.000199284
0.000199288
0.000199278
0.000199275
0.000199266
0.000199266
0.00019917
0.000199028
0.000209332
0.00018502
1.56001e-10
1.55999e-10
0.000121415
1.55569e-10
1.61971e-10
1.79563e-10
1.88143e-10
0.000180563
2.14888e-10
2.14891e-10
0.000227931
5.00805e-10
5.00795e-10
0.000202051
3.4377e-10
3.67156e-10
1.97525e-10
2.05021e-10
0.000168904
1.97437e-10
1.97439e-10
0.000196384
8.83452e-05
1.08768e-09
1.08765e-09
0.00023025
1.06949e-09
1.06952e-09
7.63662e-05
9.05749e-05
8.51556e-05
0.000103806
8.46026e-05
1.26274e-10
1.26272e-10
0.000112147
1.38175e-10
1.38177e-10
0.000194536
5.51163e-05
1.6337e-10
1.63368e-10
9.84831e-05
1.47804e-10
1.54916e-10
1.54387e-10
1.62157e-10
9.57812e-05
1.47607e-10
1.47609e-10
0.000105523
5.85073e-05
7.35924e-05
7.39563e-05
7.23656e-05
7.29687e-05
7.28809e-05
7.28635e-05
7.28821e-05
7.28763e-05
7.28261e-05
7.20358e-05
6.05608e-05
3.6627e-09
3.66238e-09
0.000231564
3.46517e-09
3.46545e-09
6.10161e-05
6.30917e-05
9.5535e-05
4.85043e-10
4.85037e-10
0.000227476
5.86866e-10
5.86877e-10
6.75338e-05
6.64627e-05
0.000102617
2.24348e-10
2.24346e-10
0.000193201
2.26827e-10
2.26829e-10
9.07743e-05
0.000106339
0.000104256
0.000111385
0.000111299
1.27967e-10
1.27965e-10
7.07546e-05
1.28354e-10
1.28356e-10
9.32765e-05
0.000108333
0.000109323
0.000109772
0.000104102
0.000127595
1.5545e-10
1.55448e-10
0.000137333
1.53729e-10
1.53731e-10
0.000151768
0.00017132
0.000171676
0.000171682
0.000171658
0.000171754
0.000171757
0.000169292
0.000183156
0.000165191
1.3934e-10
1.39339e-10
0.000150084
1.5851e-10
1.58512e-10
0.000172524
1.81618e-10
1.81616e-10
0.000142602
1.58453e-10
1.58455e-10
9.28338e-05
0.000108043
0.000108629
0.000108881
0.000109823
0.000101547
0.000130359
1.67361e-10
1.67359e-10
0.000129301
1.64762e-10
1.74078e-10
1.46078e-10
1.5335e-10
7.63703e-05
1.40079e-10
1.39587e-10
2.23514e-09
2.11215e-09
0.000231038
2.57925e-09
2.5794e-09
0.000157702
4.95585e-05
2.48202e-09
2.48187e-09
0.000231789
2.61262e-09
2.61278e-09
8.95401e-05
0.000103442
1.92556e-10
1.92554e-10
0.000183896
2.04385e-10
2.04388e-10
8.94489e-05
0.00010456
0.000104727
0.000103367
0.000118333
1.4546e-10
1.45458e-10
0.000123702
1.45705e-10
1.45707e-10
9.15405e-05
0.000107407
0.000110499
8.49818e-05
0.000156605
3.60378e-10
3.60374e-10
0.000216596
3.55252e-10
3.55257e-10
8.85069e-05
0.000102639
0.000101942
0.000117084
1.51393e-10
1.51391e-10
0.000126861
1.48118e-10
1.4812e-10
0.000206446
0.000220202
0.000219847
0.000219634
0.000222912
2.87077e-10
2.87075e-10
0.000210745
3.00472e-10
3.00476e-10
8.74455e-05
0.00010232
0.000102816
0.00010008
0.000117556
1.53186e-10
1.53184e-10
0.000127709
1.48762e-10
1.48764e-10
0.00021635
0.00022707
0.00022727
0.000228298
0.000229773
0.000231264
0.000231863
0.000231786
)
;

boundaryField
{
    inlet
    {
        type            cyclic;
    }
    outlet
    {
        type            cyclic;
    }
    top
    {
        type            calculated;
        value           uniform 0.000231873;
    }
    bottom
    {
        type            calculated;
        value           uniform 0.01;
    }
    frontAndBackPlanes
    {
        type            empty;
    }
}


// ************************************************************************* //
