/*--------------------------------*- C++ -*----------------------------------*\
| =========                 |                                                 |
| \\      /  F ield         | OpenFOAM: The Open Source CFD Toolbox           |
|  \\    /   O peration     | Version:  2206                                  |
|   \\  /    A nd           | Website:  www.openfoam.com                      |
|    \\/     M anipulation  |                                                 |
\*---------------------------------------------------------------------------*/
FoamFile
{
    version     2.0;
    format      ascii;
    arch        "LSB;label=32;scalar=64";
    class       volScalarField;
    location    "200";
    object      p_rbgh;
}
// * * * * * * * * * * * * * * * * * * * * * * * * * * * * * * * * * * * * * //

dimensions      [1 -1 -2 0 0 0 0];

internalField   nonuniform List<scalar> 
344
(
-0.128019
-0.12169
-0.121547
-0.121433
-0.121293
-0.121109
-0.120879
-0.120596
-0.120257
-0.119854
-0.119386
-0.118846
-0.118236
-0.117548
-0.116788
-0.115951
-0.115047
-0.114073
-0.113044
-0.11196
-0.110836
-0.109679
-0.108503
-0.107319
-0.106139
-0.104978
-0.103845
-0.102758
-0.101721
-0.100756
-0.0998628
-0.0990665
-0.0983607
-0.0977753
-0.0972995
-0.0969647
-0.0967577
-0.0967065
-0.096797
-0.0970474
-0.0974428
-0.0979848
-0.0986555
-0.0994358
-0.100302
-0.101217
-0.102152
-0.103065
-0.103924
-0.104707
-0.10539
-0.105996
-0.106523
-0.107051
-0.107616
-0.108324
-0.109259
-0.110479
-0.112104
-0.114042
-0.116407
-0.118895
-0.12154
-0.123905
-0.12585
-0.127092
-0.127273
-0.126647
-0.12477
-0.122452
-0.11963
-0.116643
-0.114493
-0.111338
-0.109129
-0.104735
-0.0975377
-0.0933667
-0.0913459
0.00443616
0.0333946
-0.0441587
0.0421099
-0.0352113
0.0274013
-0.0204185
0.0148428
-0.0106795
0.00769138
-0.00558401
0.00409681
-0.00303358
0.00226019
-0.00168931
0.00126423
-0.000946692
0.000709477
-0.000532361
0.000400075
-0.000301108
0.00022688
-0.000171051
0.000128967
-9.71933e-05
7.31943e-05
-5.50698e-05
4.13961e-05
-3.10899e-05
2.33346e-05
-1.75036e-05
1.31263e-05
-9.84062e-06
7.37767e-06
-5.52971e-06
4.1449e-06
-3.10485e-06
2.32474e-06
-1.73719e-06
1.29507e-06
-9.59767e-07
7.04992e-07
-5.07912e-07
3.56574e-07
-2.4233e-07
1.59167e-07
-9.99942e-08
5.99884e-08
-3.38555e-08
1.79974e-08
-8.86088e-09
4.09905e-09
-1.78465e-09
7.37137e-10
-3.23401e-10
1.09315e-10
-7.21211e-11
-1.84979e-12
-3.2558e-11
-1.75629e-11
-2.11178e-11
-1.72323e-11
-1.65522e-11
-1.45877e-11
-1.33698e-11
-1.19862e-11
-1.08526e-11
-9.67702e-12
-8.65229e-12
-7.63409e-12
-6.78293e-12
-5.97267e-12
-5.30101e-12
-4.617e-12
-4.10137e-12
-3.60446e-12
-3.20015e-12
-2.78284e-12
-2.4726e-12
-2.17004e-12
-1.93022e-12
-1.66559e-12
-1.49074e-12
-1.334e-12
-1.22117e-12
-1.12249e-12
-1.05191e-12
-1.02743e-12
-8.5569e-13
-9.93748e-13
-8.3195e-13
-8.3778e-13
-8.0563e-13
-7.90072e-13
-7.53571e-13
-7.2075e-13
-6.81622e-13
-6.48798e-13
-6.05574e-13
-5.61913e-13
-5.15445e-13
-4.71898e-13
-4.26142e-13
-3.82914e-13
-3.41638e-13
-3.05935e-13
-2.6779e-13
-2.30147e-13
-1.92811e-13
-1.5833e-13
-1.24539e-13
-9.35349e-14
-6.52858e-14
-4.12741e-14
-1.92481e-14
-2.45099e-16
1.56285e-14
2.7875e-14
3.63511e-14
4.12441e-14
4.06311e-14
5.19012e-14
4.74321e-14
4.47955e-14
4.20909e-14
4.00029e-14
3.77881e-14
3.583e-14
3.40367e-14
3.24973e-14
3.10062e-14
2.96231e-14
2.83501e-14
2.71663e-14
2.60959e-14
2.51158e-14
2.42368e-14
2.34252e-14
2.27035e-14
2.20376e-14
2.1435e-14
2.08724e-14
2.03757e-14
1.99181e-14
1.95056e-14
1.91001e-14
1.87842e-14
1.85077e-14
1.82748e-14
1.80125e-14
1.78146e-14
1.75575e-14
1.72549e-14
1.65883e-14
1.63135e-14
1.61144e-14
1.60036e-14
1.5865e-14
1.57824e-14
1.56946e-14
1.56019e-14
1.54709e-14
1.53547e-14
1.52354e-14
1.51124e-14
1.49827e-14
1.4847e-14
1.47068e-14
1.45613e-14
1.44098e-14
1.42644e-14
1.41245e-14
1.3989e-14
1.38594e-14
1.37367e-14
1.36173e-14
1.35008e-14
1.3369e-14
1.32753e-14
1.31857e-14
1.31004e-14
1.29587e-14
1.28427e-14
1.2638e-14
1.23644e-14
1.176e-14
1.14867e-14
1.12823e-14
1.11667e-14
1.10257e-14
1.09412e-14
1.08526e-14
1.07598e-14
1.06292e-14
1.05141e-14
1.03961e-14
1.02749e-14
1.01469e-14
1.00131e-14
9.87473e-15
9.73096e-15
9.58073e-15
9.43674e-15
9.29799e-15
9.16353e-15
9.0347e-15
8.91246e-15
8.79326e-15
8.67673e-15
8.54452e-15
8.44985e-15
8.359e-15
8.27205e-15
8.12852e-15
8.01008e-15
7.80292e-15
7.52704e-15
6.92824e-15
6.65472e-15
6.4518e-15
6.3395e-15
6.2028e-15
6.12469e-15
6.04274e-15
5.95718e-15
5.83198e-15
5.7246e-15
5.61391e-15
5.49974e-15
5.37531e-15
5.24421e-15
5.10493e-15
4.95689e-15
4.7992e-15
4.63739e-15
4.47191e-15
4.30229e-15
4.13177e-15
3.9572e-15
3.78243e-15
3.60711e-15
3.43516e-15
3.25994e-15
3.08545e-15
2.91133e-15
2.74163e-15
2.57298e-15
2.40893e-15
2.24898e-15
2.09392e-15
1.94881e-15
1.81321e-15
1.68649e-15
1.5677e-15
1.46003e-15
1.35716e-15
1.25889e-15
1.14412e-15
1.07181e-15
1.00537e-15
9.45043e-16
8.26461e-16
7.36572e-16
5.55625e-16
3.06936e-16
)
;

boundaryField
{
    inlet
    {
        type            cyclic;
    }
    outlet
    {
        type            cyclic;
    }
    top
    {
        type            fixedValue;
        value           uniform 0;
    }
    bottom
    {
        type            fixedFluxPressure;
        gradient        uniform 0;
        value           uniform -0.128019;
    }
    frontAndBackPlanes
    {
        type            empty;
    }
}


// ************************************************************************* //
