/*--------------------------------*- C++ -*----------------------------------*\
| =========                 |                                                 |
| \\      /  F ield         | OpenFOAM: The Open Source CFD Toolbox           |
|  \\    /   O peration     | Version:  2206                                  |
|   \\  /    A nd           | Website:  www.openfoam.com                      |
|    \\/     M anipulation  |                                                 |
\*---------------------------------------------------------------------------*/
FoamFile
{
    version     2.0;
    format      ascii;
    arch        "LSB;label=32;scalar=64";
    class       surfaceScalarField;
    location    "200";
    object      phi.a;
}
// * * * * * * * * * * * * * * * * * * * * * * * * * * * * * * * * * * * * * //

dimensions      [0 3 -1 0 0 0 0];

oriented        oriented;

internalField   nonuniform List<scalar> 
343
(
1.5217e-16
3.09226e-16
4.8004e-16
6.60149e-16
8.65429e-16
1.0819e-15
1.33229e-15
1.59193e-15
1.89008e-15
2.19074e-15
2.52922e-15
2.85878e-15
3.21994e-15
3.55727e-15
3.91467e-15
4.2319e-15
4.55364e-15
4.82082e-15
5.07471e-15
5.26468e-15
5.42288e-15
5.51553e-15
5.5582e-15
5.54262e-15
5.45954e-15
5.3342e-15
5.12392e-15
4.89346e-15
4.5601e-15
4.23073e-15
3.78032e-15
3.35581e-15
2.79513e-15
2.27656e-15
1.61642e-15
1.0081e-15
2.72639e-16
-4.05251e-16
-1.16653e-15
-1.86339e-15
-2.56839e-15
-3.19156e-15
-3.72587e-15
-4.14776e-15
-4.39547e-15
-4.50019e-15
-4.4073e-15
-4.15905e-15
-3.80211e-15
-3.32854e-15
-2.95906e-15
-2.58678e-15
-2.58329e-15
-2.76693e-15
-3.46099e-15
-4.56466e-15
-5.96866e-15
-7.94044e-15
-9.51359e-15
-1.16027e-14
-1.22792e-14
-1.30535e-14
-1.17442e-14
-9.68543e-15
-6.22034e-15
-9.84417e-16
3.13109e-15
9.3217e-15
1.17163e-14
1.42804e-14
1.51699e-14
1.12389e-14
1.61044e-14
1.18747e-14
2.30852e-14
3.8096e-14
2.43234e-14
1.17256e-13
-7.70722e-10
-3.09973e-09
-4.88264e-09
-5.22859e-09
-5.36922e-09
-5.34916e-09
-5.36258e-09
-5.36327e-09
-5.36638e-09
-5.37053e-09
-5.37319e-09
-5.37319e-09
-5.37319e-09
-5.37319e-09
-5.37319e-09
-5.37319e-09
-5.37319e-09
-5.37319e-09
-5.37319e-09
-5.37319e-09
-5.37319e-09
-5.37319e-09
-5.37258e-09
-5.36558e-09
-5.2952e-09
-4.89059e-09
-4.54996e-09
-4.54996e-09
-4.84222e-09
-5.13448e-09
-5.13448e-09
-5.13448e-09
-5.13448e-09
-5.13448e-09
-5.13448e-09
-5.13448e-09
-5.13448e-09
-5.13448e-09
-5.13448e-09
-5.13448e-09
-5.13448e-09
-5.13448e-09
-5.13448e-09
-5.13448e-09
-5.13448e-09
-5.13448e-09
-5.13448e-09
-4.8325e-09
-4.53051e-09
-4.53051e-09
-4.83334e-09
-5.12407e-09
-4.86215e-09
-4.61233e-09
-4.61233e-09
-4.83064e-09
-5.04896e-09
-5.04896e-09
-4.95713e-09
-4.8653e-09
-4.8653e-09
-5.00053e-09
-5.12695e-09
-4.88915e-09
-4.66017e-09
-4.66017e-09
-4.89808e-09
-5.13598e-09
-5.13598e-09
-5.13598e-09
-5.0953e-09
-5.05462e-09
-5.05462e-09
-5.09604e-09
-5.13746e-09
-5.13746e-09
-5.13746e-09
-5.13746e-09
-5.13746e-09
-5.13745e-09
-4.76358e-09
-4.3897e-09
-4.3897e-09
-4.73109e-09
-5.07246e-09
-5.07246e-09
-5.07246e-09
-4.78425e-09
-4.49603e-09
-4.49603e-09
-4.81495e-09
-5.11908e-09
-4.8139e-09
-4.5235e-09
-4.5235e-09
-4.84285e-09
-5.1622e-09
-5.1622e-09
-5.1622e-09
-5.1622e-09
-5.1622e-09
-5.1622e-09
-5.1622e-09
-5.1622e-09
-5.1622e-09
-5.1622e-09
-5.1622e-09
-5.1622e-09
-5.1622e-09
-5.1622e-09
-5.15165e-09
-5.14108e-09
-5.14108e-09
-5.15234e-09
-5.1636e-09
-5.1636e-09
-5.16359e-09
-5.16359e-09
-5.06868e-09
-4.97376e-09
-4.97376e-09
-5.05167e-09
-5.12957e-09
-5.12957e-09
-5.12957e-09
-5.12957e-09
-4.9206e-09
-4.71163e-09
-4.71163e-09
-4.91828e-09
-5.12492e-09
-5.12492e-09
-5.12492e-09
-5.12492e-09
-5.12492e-09
-5.12492e-09
-4.75604e-09
-4.38716e-09
-4.38716e-09
-4.75492e-09
-5.12267e-09
-5.12267e-09
-5.12267e-09
-5.12267e-09
-5.12267e-09
-5.12267e-09
-5.12267e-09
-4.8196e-09
-4.51652e-09
-4.51652e-09
-4.82302e-09
-5.12952e-09
-5.12952e-09
-5.12952e-09
-5.12952e-09
-5.12952e-09
-5.12952e-09
-5.12952e-09
-5.12952e-09
-5.12952e-09
-5.12952e-09
-5.12952e-09
-4.79102e-09
-4.45252e-09
-4.45252e-09
-4.74967e-09
-5.04682e-09
-5.04682e-09
-4.7879e-09
-4.52898e-09
-4.52898e-09
-4.82624e-09
-5.1235e-09
-5.1235e-09
-5.1235e-09
-5.1235e-09
-5.1235e-09
-5.1235e-09
-5.1235e-09
-5.1235e-09
-4.84224e-09
-4.56097e-09
-4.56097e-09
-4.84672e-09
-5.117e-09
-4.79428e-09
-4.48701e-09
-4.48701e-09
-4.8237e-09
-5.1616e-09
-5.14308e-09
-5.12336e-09
-5.12336e-09
-5.13912e-09
-5.15488e-09
-5.15488e-09
-5.15488e-09
-5.13842e-09
-5.12196e-09
-5.12196e-09
-5.13749e-09
-5.15303e-09
-5.15303e-09
-5.15303e-09
-4.909e-09
-4.66498e-09
-4.66498e-09
-4.89469e-09
-5.12439e-09
-5.12439e-09
-5.12439e-09
-5.12439e-09
-5.12439e-09
-5.12439e-09
-4.80027e-09
-4.47615e-09
-4.47615e-09
-4.79972e-09
-5.12328e-09
-5.12328e-09
-5.12328e-09
-5.12328e-09
-5.12328e-09
-5.12328e-09
-4.99442e-09
-4.86556e-09
-4.86556e-09
-4.99632e-09
-5.12708e-09
-5.12708e-09
-5.12708e-09
-5.12708e-09
-5.12708e-09
-4.8158e-09
-4.50452e-09
-4.50452e-09
-4.82276e-09
-5.14099e-09
-5.14099e-09
-5.14099e-09
-5.14099e-09
-5.14099e-09
-5.14099e-09
-4.9784e-09
-4.81581e-09
-4.81581e-09
-4.97101e-09
-5.1262e-09
-5.1262e-09
-5.1262e-09
-5.1262e-09
-5.1262e-09
-5.1262e-09
-4.8186e-09
-4.511e-09
-4.511e-09
-4.82784e-09
-5.14468e-09
-5.14468e-09
-5.14468e-09
-5.14468e-09
-5.14468e-09
-5.14468e-09
-5.14468e-09
-5.14468e-09
)
;

boundaryField
{
    inlet
    {
        type            cyclic;
        value           nonuniform List<scalar> 
344
(
1.04462e-23
2.27862e-23
3.52644e-23
4.78485e-23
6.04138e-23
6.54696e-23
7.05156e-23
7.56352e-23
8.063e-23
7.87627e-23
7.67432e-23
7.47532e-23
7.28199e-23
7.09449e-23
6.91236e-23
6.73519e-23
6.5628e-23
6.39525e-23
6.23265e-23
6.07523e-23
5.92322e-23
5.77686e-23
5.63632e-23
5.50186e-23
5.37367e-23
5.25193e-23
5.13681e-23
5.02848e-23
4.9271e-23
4.83281e-23
4.74576e-23
4.66605e-23
4.59381e-23
4.52912e-23
4.47207e-23
4.42273e-23
4.38116e-23
4.34735e-23
4.32137e-23
4.30323e-23
4.29292e-23
4.29045e-23
4.29579e-23
4.30892e-23
4.32984e-23
4.35866e-23
4.39561e-23
4.44116e-23
4.49614e-23
4.56174e-23
4.63778e-23
4.72433e-23
4.52492e-23
4.33594e-23
4.15719e-23
3.98876e-23
3.82936e-23
3.67808e-23
3.53434e-23
3.39785e-23
3.26844e-23
3.146e-23
3.03054e-23
2.92198e-23
2.82034e-23
2.72557e-23
2.63765e-23
2.55656e-23
2.48227e-23
2.41476e-23
2.35403e-23
2.30006e-23
2.25282e-23
2.2123e-23
2.17849e-23
2.15137e-23
2.13095e-23
2.11725e-23
2.11683e-23
1.92465e-23
1.67997e-23
1.23562e-23
1.0373e-23
-9.70489e-25
-5.18352e-24
-5.03667e-24
-4.44422e-24
-2.28394e-24
-3.92987e-25
-3.9263e-25
-3.92431e-25
-3.92255e-25
-3.92107e-25
-3.91983e-25
-3.91886e-25
-3.91813e-25
-3.91762e-25
-3.91735e-25
-3.91731e-25
-3.91759e-25
-3.91889e-25
-4.79188e-25
-8.68845e-25
-1.58487e-24
-9.01708e-27
-8.98861e-27
-9.00351e-27
6.00279e-26
6.00333e-26
6.0037e-26
6.00413e-26
6.00461e-26
6.00511e-26
6.00562e-26
6.00613e-26
6.00662e-26
6.00708e-26
6.0075e-26
6.00788e-26
6.0082e-26
6.00847e-26
6.00868e-26
6.00883e-26
6.00891e-26
6.00893e-26
6.00921e-26
-2.95654e-24
-2.95655e-24
-2.95654e-24
-8.92583e-25
-2.22634e-25
-1.3408e-26
-1.34076e-26
-1.34075e-26
-2.69381e-27
-2.69381e-27
-2.69378e-27
-1.45404e-27
-1.45404e-27
-1.45401e-27
3.51907e-27
8.7264e-27
1.85555e-26
1.8556e-26
1.85757e-26
6.94251e-24
6.94254e-24
6.94256e-24
6.94275e-24
1.54962e-23
4.00771e-24
-7.48074e-24
2.64507e-24
2.73675e-24
-1.39517e-24
-5.35463e-24
-5.52006e-24
-5.53816e-24
-5.53854e-24
-2.0587e-24
-2.05869e-24
-2.05867e-24
-2.99663e-25
-2.99661e-25
-2.9966e-25
-2.99655e-25
-7.95185e-27
-7.95092e-27
-7.95066e-27
4.5098e-26
1.45299e-25
3.64645e-25
3.64648e-25
3.64748e-25
2.52158e-23
1.38262e-23
9.31146e-24
9.37646e-24
9.16651e-24
5.96482e-24
2.88404e-24
-1.33954e-24
-5.65751e-24
-8.74689e-24
-1.20756e-23
-1.6091e-23
-1.99435e-23
-2.28353e-23
-3.44136e-23
-2.38253e-23
-2.38253e-23
-2.38253e-23
-2.30476e-23
-2.31929e-23
-2.6684e-23
-2.9433e-23
-2.95263e-23
5.49241e-24
-5.996e-24
-1.74844e-23
-2.81542e-24
-2.96009e-24
-6.51482e-24
-9.32709e-24
-9.42211e-24
-1.87875e-24
-1.8794e-24
-1.88004e-24
8.00157e-24
8.0526e-24
3.04563e-24
-1.20759e-24
-4.19085e-24
-7.52374e-24
-7.42828e-24
9.61286e-24
-1.87454e-24
-1.33619e-23
6.88402e-24
6.88795e-24
6.81312e-24
2.82854e-24
-1.01421e-24
-4.36601e-24
-7.2816e-24
-7.3906e-24
-3.35401e-25
-3.35385e-25
-3.35325e-25
1.53153e-23
1.51337e-23
1.08458e-23
6.71059e-24
2.96134e-24
-5.2599e-25
-5.01757e-25
-7.09597e-25
-4.20091e-24
-7.53085e-24
-1.13319e-23
-2.27384e-23
-8.20284e-25
-8.20245e-25
-8.2023e-25
4.07861e-24
4.07863e-24
4.07864e-24
1.31257e-23
1.63718e-24
-9.85134e-24
7.50196e-24
7.4997e-24
7.4428e-24
7.21831e-24
4.06329e-24
7.7301e-25
-2.40035e-24
-5.1172e-24
-5.03157e-24
-6.85037e-26
-6.84907e-26
-6.84751e-26
-1.1074e-25
-3.16171e-25
-2.55352e-25
-2.55353e-25
-2.55336e-25
2.9026e-24
4.22427e-24
5.32182e-24
5.32185e-24
5.3219e-24
-3.60919e-24
-3.50786e-24
-7.82226e-24
-8.18607e-24
-1.25019e-23
-1.25019e-23
-1.25018e-23
-1.30339e-23
-1.3034e-23
-1.3034e-23
-1.30338e-23
-4.96404e-26
-4.96137e-26
-4.9613e-26
-6.78377e-27
-6.78361e-27
-6.78354e-27
-6.78349e-27
-6.78345e-27
-6.78341e-27
-6.78337e-27
-6.84078e-30
-6.82506e-30
-6.82471e-30
-1.00381e-33
-9.82014e-34
-9.73642e-34
-9.67788e-34
-9.63304e-34
-9.60977e-34
-9.609e-34
-6.10604e-37
-6.07462e-37
-6.07398e-37
-2.04026e-40
-1.99411e-40
-1.97792e-40
-1.96801e-40
-1.96334e-40
-1.96367e-40
9.69293e-42
9.76971e-42
9.6046e-42
-8.71663e-41
-8.70192e-41
-8.70313e-41
-8.71203e-41
-8.72674e-41
-8.74505e-41
-8.78426e-41
-6.55663e-39
-6.55626e-39
-6.55662e-39
3.22014e-38
3.22033e-38
3.22038e-38
3.22038e-38
3.22035e-38
3.22029e-38
3.2201e-38
-2.15284e-39
-2.15161e-39
-2.15441e-39
-4.50638e-37
-4.50639e-37
-4.50639e-37
-4.50639e-37
-4.50639e-37
-4.50639e-37
-4.50639e-37
-4.50639e-37
-4.50639e-37
)
;
    }
    outlet
    {
        type            cyclic;
        value           nonuniform List<scalar> 
344
(
-1.04462e-23
-2.27862e-23
-3.52644e-23
-4.78485e-23
-6.04138e-23
-6.54696e-23
-7.05156e-23
-7.56352e-23
-8.063e-23
-7.87627e-23
-7.67432e-23
-7.47532e-23
-7.28199e-23
-7.09449e-23
-6.91236e-23
-6.73519e-23
-6.5628e-23
-6.39525e-23
-6.23265e-23
-6.07523e-23
-5.92322e-23
-5.77686e-23
-5.63632e-23
-5.50186e-23
-5.37367e-23
-5.25193e-23
-5.13681e-23
-5.02848e-23
-4.9271e-23
-4.83281e-23
-4.74576e-23
-4.66605e-23
-4.59381e-23
-4.52912e-23
-4.47207e-23
-4.42273e-23
-4.38116e-23
-4.34735e-23
-4.32137e-23
-4.30323e-23
-4.29292e-23
-4.29045e-23
-4.29579e-23
-4.30892e-23
-4.32984e-23
-4.35866e-23
-4.39561e-23
-4.44116e-23
-4.49614e-23
-4.56174e-23
-4.63778e-23
-4.72433e-23
-4.52492e-23
-4.33594e-23
-4.15719e-23
-3.98876e-23
-3.82936e-23
-3.67808e-23
-3.53434e-23
-3.39785e-23
-3.26844e-23
-3.146e-23
-3.03054e-23
-2.92198e-23
-2.82034e-23
-2.72557e-23
-2.63765e-23
-2.55656e-23
-2.48227e-23
-2.41476e-23
-2.35403e-23
-2.30006e-23
-2.25282e-23
-2.2123e-23
-2.17849e-23
-2.15137e-23
-2.13095e-23
-2.11725e-23
-2.11683e-23
-1.92465e-23
-1.67997e-23
-1.23562e-23
-1.0373e-23
9.70489e-25
5.18352e-24
5.03667e-24
4.44422e-24
2.28394e-24
3.92987e-25
3.9263e-25
3.92431e-25
3.92255e-25
3.92107e-25
3.91983e-25
3.91886e-25
3.91813e-25
3.91762e-25
3.91735e-25
3.91731e-25
3.91759e-25
3.91889e-25
4.79188e-25
8.68845e-25
1.58487e-24
9.01708e-27
8.98861e-27
9.00351e-27
-6.00279e-26
-6.00333e-26
-6.0037e-26
-6.00413e-26
-6.00461e-26
-6.00511e-26
-6.00562e-26
-6.00613e-26
-6.00662e-26
-6.00708e-26
-6.0075e-26
-6.00788e-26
-6.0082e-26
-6.00847e-26
-6.00868e-26
-6.00883e-26
-6.00891e-26
-6.00893e-26
-6.00921e-26
2.95654e-24
2.95655e-24
2.95654e-24
8.92583e-25
2.22634e-25
1.3408e-26
1.34076e-26
1.34075e-26
2.69381e-27
2.69381e-27
2.69378e-27
1.45404e-27
1.45404e-27
1.45401e-27
-3.51907e-27
-8.7264e-27
-1.85555e-26
-1.8556e-26
-1.85757e-26
-6.94251e-24
-6.94254e-24
-6.94256e-24
-6.94275e-24
-1.54962e-23
-4.00771e-24
7.48074e-24
-2.64507e-24
-2.73675e-24
1.39517e-24
5.35463e-24
5.52006e-24
5.53816e-24
5.53854e-24
2.0587e-24
2.05869e-24
2.05867e-24
2.99663e-25
2.99661e-25
2.9966e-25
2.99655e-25
7.95185e-27
7.95092e-27
7.95066e-27
-4.5098e-26
-1.45299e-25
-3.64645e-25
-3.64648e-25
-3.64748e-25
-2.52158e-23
-1.38262e-23
-9.31146e-24
-9.37646e-24
-9.16651e-24
-5.96482e-24
-2.88404e-24
1.33954e-24
5.65751e-24
8.74689e-24
1.20756e-23
1.6091e-23
1.99435e-23
2.28353e-23
3.44136e-23
2.38253e-23
2.38253e-23
2.38253e-23
2.30476e-23
2.31929e-23
2.6684e-23
2.9433e-23
2.95263e-23
-5.49241e-24
5.996e-24
1.74844e-23
2.81542e-24
2.96009e-24
6.51482e-24
9.32709e-24
9.42211e-24
1.87875e-24
1.8794e-24
1.88004e-24
-8.00157e-24
-8.0526e-24
-3.04563e-24
1.20759e-24
4.19085e-24
7.52374e-24
7.42828e-24
-9.61286e-24
1.87454e-24
1.33619e-23
-6.88402e-24
-6.88795e-24
-6.81312e-24
-2.82854e-24
1.01421e-24
4.36601e-24
7.2816e-24
7.3906e-24
3.35401e-25
3.35385e-25
3.35325e-25
-1.53153e-23
-1.51337e-23
-1.08458e-23
-6.71059e-24
-2.96134e-24
5.2599e-25
5.01757e-25
7.09597e-25
4.20091e-24
7.53085e-24
1.13319e-23
2.27384e-23
8.20284e-25
8.20245e-25
8.2023e-25
-4.07861e-24
-4.07863e-24
-4.07864e-24
-1.31257e-23
-1.63718e-24
9.85134e-24
-7.50196e-24
-7.4997e-24
-7.4428e-24
-7.21831e-24
-4.06329e-24
-7.7301e-25
2.40035e-24
5.1172e-24
5.03157e-24
6.85037e-26
6.84907e-26
6.84751e-26
1.1074e-25
3.16171e-25
2.55352e-25
2.55353e-25
2.55336e-25
-2.9026e-24
-4.22427e-24
-5.32182e-24
-5.32185e-24
-5.3219e-24
3.60919e-24
3.50786e-24
7.82226e-24
8.18607e-24
1.25019e-23
1.25019e-23
1.25018e-23
1.30339e-23
1.3034e-23
1.3034e-23
1.30338e-23
4.96404e-26
4.96137e-26
4.9613e-26
6.78377e-27
6.78361e-27
6.78354e-27
6.78349e-27
6.78345e-27
6.78341e-27
6.78337e-27
6.84078e-30
6.82506e-30
6.82471e-30
1.00381e-33
9.82014e-34
9.73642e-34
9.67788e-34
9.63304e-34
9.60977e-34
9.609e-34
6.10604e-37
6.07462e-37
6.07398e-37
2.04026e-40
1.99411e-40
1.97792e-40
1.96801e-40
1.96334e-40
1.96367e-40
-9.69293e-42
-9.76971e-42
-9.6046e-42
8.71663e-41
8.70192e-41
8.70313e-41
8.71203e-41
8.72674e-41
8.74505e-41
8.78426e-41
6.55663e-39
6.55626e-39
6.55662e-39
-3.22014e-38
-3.22033e-38
-3.22038e-38
-3.22038e-38
-3.22035e-38
-3.22029e-38
-3.2201e-38
2.15284e-39
2.15161e-39
2.15441e-39
4.50638e-37
4.50639e-37
4.50639e-37
4.50639e-37
4.50639e-37
4.50639e-37
4.50639e-37
4.50639e-37
4.50639e-37
)
;
    }
    top
    {
        type            calculated;
        value           uniform -5.14468e-09;
    }
    bottom
    {
        type            fixedValue;
        value           uniform 0;
    }
    frontAndBackPlanes
    {
        type            empty;
        value           nonuniform List<scalar> 0();
    }
}


// ************************************************************************* //
