/*--------------------------------*- C++ -*----------------------------------*\
| =========                 |                                                 |
| \\      /  F ield         | OpenFOAM: The Open Source CFD Toolbox           |
|  \\    /   O peration     | Version:  2206                                  |
|   \\  /    A nd           | Website:  www.openfoam.com                      |
|    \\/     M anipulation  |                                                 |
\*---------------------------------------------------------------------------*/
FoamFile
{
    version     2.0;
    format      ascii;
    arch        "LSB;label=32;scalar=64";
    class       surfaceScalarField;
    location    "200";
    object      phi.b;
}
// * * * * * * * * * * * * * * * * * * * * * * * * * * * * * * * * * * * * * //

dimensions      [0 3 -1 0 0 0 0];

oriented        oriented;

internalField   nonuniform List<scalar> 
343
(
-2.15391e-16
-4.37596e-16
-6.79157e-16
-9.33734e-16
-1.22379e-15
-1.52949e-15
-1.88298e-15
-2.24933e-15
-2.66993e-15
-3.09382e-15
-3.57087e-15
-4.03504e-15
-4.54357e-15
-5.01817e-15
-5.5208e-15
-5.96646e-15
-6.41829e-15
-6.79294e-15
-7.14861e-15
-7.41401e-15
-7.63453e-15
-7.7626e-15
-7.82022e-15
-7.79584e-15
-7.6766e-15
-7.49798e-15
-7.20007e-15
-6.87395e-15
-6.40353e-15
-5.93897e-15
-5.30485e-15
-4.70745e-15
-3.91955e-15
-3.19121e-15
-2.26504e-15
-1.41213e-15
-3.81878e-16
5.66977e-16
1.63168e-15
2.60521e-15
3.58958e-15
4.45852e-15
5.20253e-15
5.78888e-15
6.13161e-15
6.27455e-15
6.14186e-15
5.79284e-15
5.29277e-15
4.63094e-15
4.11448e-15
3.59468e-15
3.58756e-15
3.84008e-15
4.80004e-15
6.32625e-15
8.26595e-15
1.09882e-14
1.31546e-14
1.60298e-14
1.69492e-14
1.80013e-14
1.61795e-14
1.33294e-14
8.55097e-15
1.35168e-15
-4.29345e-15
-1.27646e-14
-1.60189e-14
-1.94922e-14
-2.06669e-14
-1.52796e-14
-2.18398e-14
-1.60585e-14
-3.11041e-14
-5.10997e-14
-3.23736e-14
-7.28525e-14
8.4183e-11
1.23476e-13
3.32078e-16
1.16343e-17
4.14994e-20
4.67087e-20
5.69848e-20
6.04869e-20
6.46245e-20
6.25307e-20
7.73656e-20
8.44525e-20
9.22765e-20
8.94053e-20
9.59074e-20
9.13234e-20
8.73766e-20
7.40023e-20
7.54844e-20
6.91195e-20
6.32853e-20
5.01508e-20
4.24727e-20
2.96434e-20
1.67677e-20
-1.49571e-20
-1.83787e-20
-3.70606e-20
-5.60317e-20
-7.07915e-20
-9.04665e-20
-1.02539e-19
-1.15208e-19
-1.19098e-19
-1.39713e-19
-1.49542e-19
-1.60111e-19
-1.57507e-19
-1.66532e-19
-1.61961e-19
-1.58461e-19
-1.44186e-19
-1.5641e-19
-1.58131e-19
-1.60902e-19
-1.50771e-19
-1.51505e-19
-1.40152e-19
-1.2945e-19
-1.09256e-19
-1.03032e-19
-8.95936e-20
-7.66404e-20
-5.83071e-20
-4.22991e-20
-2.51935e-20
-8.49691e-21
-3.8931e-20
1.29051e-20
1.58687e-20
1.85433e-20
1.76915e-20
1.97268e-20
1.96315e-20
1.96389e-20
1.8221e-20
1.96599e-20
1.97574e-20
1.99464e-20
1.89148e-20
1.89148e-20
1.78058e-20
1.67847e-20
1.49892e-20
1.52908e-20
1.49373e-20
1.46631e-20
1.36004e-20
1.31928e-20
1.20923e-20
1.10287e-20
9.44064e-21
8.61542e-21
7.40517e-21
6.22103e-21
4.77843e-21
3.40876e-21
2.0481e-21
7.22255e-22
3.31449e-21
-7.90109e-22
-8.99515e-22
-9.7959e-22
-8.39929e-22
-8.71618e-22
-8.08487e-22
-7.48431e-22
-6.46854e-22
-6.45759e-22
-6.11397e-22
-5.79111e-22
-5.32256e-22
-4.97496e-22
-4.52572e-22
-4.08787e-22
-3.61446e-22
-3.40298e-22
-3.18049e-22
-2.9674e-22
-2.72401e-22
-2.50676e-22
-2.27028e-22
-2.0348e-22
-1.78904e-22
-1.55568e-22
-1.31708e-22
-1.07891e-22
-8.45763e-23
-5.95143e-23
-3.69201e-23
-1.48901e-23
-5.39481e-23
8.02554e-24
8.94307e-24
9.29697e-24
7.16958e-24
6.9183e-24
5.96509e-24
5.01407e-24
3.99726e-24
3.56387e-24
3.0599e-24
2.55358e-24
2.23905e-24
1.78017e-24
1.49362e-24
1.20068e-24
1.06184e-24
7.76517e-25
6.19363e-25
4.57342e-25
4.02646e-25
2.63087e-25
2.14584e-25
1.60814e-25
1.82262e-25
7.12996e-26
2.78815e-26
-2.03934e-26
7.71927e-27
-4.20944e-26
2.71084e-27
4.07971e-26
3.34784e-25
5.63617e-26
2.48697e-26
-1.26865e-26
1.91942e-26
3.03278e-27
1.98531e-26
3.55021e-26
6.3991e-26
7.17833e-26
8.10473e-26
9.00527e-26
9.38157e-26
1.03004e-25
1.04109e-25
1.05686e-25
9.9593e-26
1.02707e-25
9.82523e-26
9.42611e-26
8.25039e-26
7.57405e-26
6.43366e-26
5.25864e-26
4.33488e-26
1.01017e-26
-8.7032e-27
-2.88261e-26
-1.29182e-26
-4.97153e-26
-1.13152e-26
2.10082e-26
3.63515e-25
2.03656e-26
-1.26328e-26
-5.17058e-26
-1.56664e-26
-3.22385e-26
-1.29146e-26
5.10124e-27
3.74129e-26
4.59842e-26
5.68896e-26
6.74603e-26
7.31806e-26
8.40506e-26
8.69662e-26
9.0335e-26
8.59504e-26
9.03988e-26
8.70968e-26
8.42478e-26
7.34516e-26
6.77993e-26
5.73061e-26
4.64788e-26
3.79774e-26
5.79997e-27
-1.20942e-26
-3.12946e-26
-1.46665e-26
-5.04854e-26
-1.14039e-26
2.15765e-26
3.60505e-25
2.09458e-26
-1.23968e-26
-5.186e-26
-1.56648e-26
-3.28164e-26
-1.28319e-26
5.73727e-27
4.02984e-26
4.77003e-26
5.97327e-26
7.1285e-26
8.09405e-26
9.30098e-26
1.00502e-25
1.08273e-25
1.11355e-25
1.20643e-25
1.25596e-25
1.30845e-25
1.3139e-25
1.35979e-25
1.36098e-25
1.36488e-25
1.32668e-25
1.36347e-25
1.35767e-25
1.35461e-25
1.30546e-25
1.2984e-25
1.24183e-25
1.1884e-25
1.08836e-25
1.0558e-25
9.71504e-26
8.90263e-26
7.56785e-26
6.53085e-26
5.22832e-26
3.87906e-26
2.95985e-26
-7.51863e-27
-2.8977e-26
-5.18864e-26
-3.67813e-26
-7.90707e-26
-4.08995e-26
-9.42393e-27
)
;

boundaryField
{
    inlet
    {
        type            cyclic;
        value           nonuniform List<scalar> 
344
(
1.04065e-23
2.27762e-23
3.52645e-23
4.78483e-23
6.03785e-23
6.54695e-23
7.05155e-23
7.56352e-23
8.05979e-23
7.87613e-23
7.67432e-23
7.47532e-23
7.28188e-23
7.09448e-23
6.91248e-23
6.73532e-23
6.5628e-23
6.39524e-23
6.23265e-23
6.07523e-23
5.92322e-23
5.77703e-23
5.63632e-23
5.50186e-23
5.37367e-23
5.25192e-23
5.1368e-23
5.02848e-23
4.9271e-23
4.83281e-23
4.74575e-23
4.66605e-23
4.5938e-23
4.52911e-23
4.47206e-23
4.42272e-23
4.3812e-23
4.34734e-23
4.32136e-23
4.30322e-23
4.29292e-23
4.29044e-23
4.29578e-23
4.3088e-23
4.32977e-23
4.35866e-23
4.3956e-23
4.44115e-23
4.49614e-23
4.56173e-23
4.63784e-23
4.72271e-23
4.52492e-23
4.33599e-23
4.15719e-23
3.98875e-23
3.82936e-23
3.67808e-23
3.53434e-23
3.39784e-23
3.26862e-23
3.146e-23
3.03064e-23
2.92188e-23
2.82034e-23
2.72557e-23
2.63765e-23
2.55654e-23
2.4823e-23
2.41476e-23
2.35415e-23
2.30011e-23
2.25282e-23
2.2123e-23
2.17849e-23
2.15143e-23
2.13095e-23
2.1173e-23
2.11446e-23
1.9793e-23
1.57055e-23
1.23215e-23
1.42694e-23
8.09174e-24
2.66171e-24
-1.28571e-23
-1.3878e-23
-1.51125e-23
-1.62865e-23
-2.31734e-23
-2.14866e-23
-1.97979e-23
-1.57244e-23
-1.16616e-23
-1.02929e-23
-8.93546e-24
-7.58949e-24
-7.40418e-24
-7.25383e-24
-6.50007e-24
-5.79111e-24
-5.13e-24
-4.51548e-24
-3.94629e-24
-3.42122e-24
-2.93885e-24
-2.49739e-24
-2.09454e-24
-1.72756e-24
-1.46743e-24
-1.23817e-24
-1.03765e-24
-8.63528e-25
-7.13324e-25
-5.84571e-25
-4.74905e-25
-3.82097e-25
-3.04063e-25
-2.38865e-25
-1.88965e-25
-1.45432e-25
-1.10055e-25
-8.1559e-26
-5.88279e-26
-4.08893e-26
-2.69001e-26
-1.61331e-26
-8.31574e-27
-2.57895e-27
1.51147e-27
4.17536e-27
5.85333e-27
6.82075e-27
7.23864e-27
7.26267e-27
7.01477e-27
6.58909e-27
6.05713e-27
5.47204e-27
4.87234e-27
4.28498e-27
3.72798e-27
3.21252e-27
2.74463e-27
2.32661e-27
1.95815e-27
1.63712e-27
1.36025e-27
1.12365e-27
9.23125e-28
7.5445e-28
6.13553e-28
4.9662e-28
4.00158e-28
3.21037e-28
2.5649e-28
2.04097e-28
1.61778e-28
1.27753e-28
1.00517e-28
7.88076e-29
6.15752e-29
4.79507e-29
3.72181e-29
2.8796e-29
2.22103e-29
1.70784e-29
1.3093e-29
1.0008e-29
7.62777e-30
5.79706e-30
4.39327e-30
3.32025e-30
2.5028e-30
1.88121e-30
1.41042e-30
1.05458e-30
7.86677e-31
5.85456e-31
4.34652e-31
3.22135e-31
2.38244e-31
1.75839e-31
1.29724e-31
9.55288e-32
7.04221e-32
5.19081e-32
3.82682e-32
2.8344e-32
2.10398e-32
1.5652e-32
1.17859e-32
8.83793e-33
6.71228e-33
5.14172e-33
3.98353e-33
3.11484e-33
2.49166e-33
2.0039e-33
1.63761e-33
1.36217e-33
1.13589e-33
9.56028e-34
8.08238e-34
6.89332e-34
5.89802e-34
5.07378e-34
4.37883e-34
3.77332e-34
3.25769e-34
2.80887e-34
2.41953e-34
2.0812e-34
1.78672e-34
1.52729e-34
1.30603e-34
1.10958e-34
9.33812e-35
7.8812e-35
6.63014e-35
5.50761e-35
4.58863e-35
3.76584e-35
3.08972e-35
2.55965e-35
2.06638e-35
1.65297e-35
1.31446e-35
1.06015e-35
8.48401e-36
6.52244e-36
5.06844e-36
4.2074e-36
3.27283e-36
2.52543e-36
1.97904e-36
1.56742e-36
1.2814e-36
1.04911e-36
9.15008e-37
8.09725e-37
7.68268e-37
7.47303e-37
7.59189e-37
7.89308e-37
8.32523e-37
8.92172e-37
9.39281e-37
9.92553e-37
1.07983e-36
1.14327e-36
1.19998e-36
1.26329e-36
1.32337e-36
1.39539e-36
1.4354e-36
1.53068e-36
1.53065e-36
1.59804e-36
1.67195e-36
1.6294e-36
1.65394e-36
1.73541e-36
1.65045e-36
1.67316e-36
1.61963e-36
1.79045e-36
1.61253e-36
1.60541e-36
1.64518e-36
1.53213e-36
1.54804e-36
1.48448e-36
1.45762e-36
1.4091e-36
1.35743e-36
1.3155e-36
1.23525e-36
1.17693e-36
1.12948e-36
1.05465e-36
9.94408e-37
9.08978e-37
8.94662e-37
8.08766e-37
7.50842e-37
6.93075e-37
6.37621e-37
5.84262e-37
5.33228e-37
4.84801e-37
4.39149e-37
3.96347e-37
3.56406e-37
3.193e-37
2.8497e-37
2.53329e-37
2.24266e-37
1.97648e-37
1.73317e-37
1.511e-37
1.30808e-37
1.12237e-37
9.51758e-38
7.94032e-38
6.46944e-38
5.08218e-38
3.75576e-38
2.46764e-38
1.19578e-38
-8.10444e-40
-1.38298e-38
-2.72878e-38
-4.1355e-38
-5.6184e-38
-7.19088e-38
-8.86478e-38
-1.06508e-37
-1.25589e-37
-1.45983e-37
-1.67757e-37
-1.90887e-37
-2.15171e-37
-2.40233e-37
-2.65926e-37
-2.90795e-37
-3.34167e-37
-3.44779e-37
-3.73234e-37
-3.99548e-37
-4.24518e-37
-4.47645e-37
-4.68677e-37
-4.87223e-37
-5.02766e-37
-5.14769e-37
-5.2274e-37
-5.26241e-37
-5.24857e-37
-5.17983e-37
-5.03925e-37
-4.78519e-37
-4.35147e-37
-4.69602e-37
)
;
    }
    outlet
    {
        type            cyclic;
        value           nonuniform List<scalar> 
344
(
-1.04065e-23
-2.27762e-23
-3.52645e-23
-4.78483e-23
-6.03785e-23
-6.54695e-23
-7.05155e-23
-7.56352e-23
-8.05979e-23
-7.87613e-23
-7.67432e-23
-7.47532e-23
-7.28188e-23
-7.09448e-23
-6.91248e-23
-6.73532e-23
-6.5628e-23
-6.39524e-23
-6.23265e-23
-6.07523e-23
-5.92322e-23
-5.77703e-23
-5.63632e-23
-5.50186e-23
-5.37367e-23
-5.25192e-23
-5.1368e-23
-5.02848e-23
-4.9271e-23
-4.83281e-23
-4.74575e-23
-4.66605e-23
-4.5938e-23
-4.52911e-23
-4.47206e-23
-4.42272e-23
-4.3812e-23
-4.34734e-23
-4.32136e-23
-4.30322e-23
-4.29292e-23
-4.29044e-23
-4.29578e-23
-4.3088e-23
-4.32977e-23
-4.35866e-23
-4.3956e-23
-4.44115e-23
-4.49614e-23
-4.56173e-23
-4.63784e-23
-4.72271e-23
-4.52492e-23
-4.33599e-23
-4.15719e-23
-3.98875e-23
-3.82936e-23
-3.67808e-23
-3.53434e-23
-3.39784e-23
-3.26862e-23
-3.146e-23
-3.03064e-23
-2.92188e-23
-2.82034e-23
-2.72557e-23
-2.63765e-23
-2.55654e-23
-2.4823e-23
-2.41476e-23
-2.35415e-23
-2.30011e-23
-2.25282e-23
-2.2123e-23
-2.17849e-23
-2.15143e-23
-2.13095e-23
-2.1173e-23
-2.11446e-23
-1.9793e-23
-1.57055e-23
-1.23215e-23
-1.42694e-23
-8.09174e-24
-2.66171e-24
1.28571e-23
1.3878e-23
1.51125e-23
1.62865e-23
2.31734e-23
2.14866e-23
1.97979e-23
1.57244e-23
1.16616e-23
1.02929e-23
8.93546e-24
7.58949e-24
7.40418e-24
7.25383e-24
6.50007e-24
5.79111e-24
5.13e-24
4.51548e-24
3.94629e-24
3.42122e-24
2.93885e-24
2.49739e-24
2.09454e-24
1.72756e-24
1.46743e-24
1.23817e-24
1.03765e-24
8.63528e-25
7.13324e-25
5.84571e-25
4.74905e-25
3.82097e-25
3.04063e-25
2.38865e-25
1.88965e-25
1.45432e-25
1.10055e-25
8.1559e-26
5.88279e-26
4.08893e-26
2.69001e-26
1.61331e-26
8.31574e-27
2.57895e-27
-1.51147e-27
-4.17536e-27
-5.85333e-27
-6.82075e-27
-7.23864e-27
-7.26267e-27
-7.01477e-27
-6.58909e-27
-6.05713e-27
-5.47204e-27
-4.87234e-27
-4.28498e-27
-3.72798e-27
-3.21252e-27
-2.74463e-27
-2.32661e-27
-1.95815e-27
-1.63712e-27
-1.36025e-27
-1.12365e-27
-9.23125e-28
-7.5445e-28
-6.13553e-28
-4.9662e-28
-4.00158e-28
-3.21037e-28
-2.5649e-28
-2.04097e-28
-1.61778e-28
-1.27753e-28
-1.00517e-28
-7.88076e-29
-6.15752e-29
-4.79507e-29
-3.72181e-29
-2.8796e-29
-2.22103e-29
-1.70784e-29
-1.3093e-29
-1.0008e-29
-7.62777e-30
-5.79706e-30
-4.39327e-30
-3.32025e-30
-2.5028e-30
-1.88121e-30
-1.41042e-30
-1.05458e-30
-7.86677e-31
-5.85456e-31
-4.34652e-31
-3.22135e-31
-2.38244e-31
-1.75839e-31
-1.29724e-31
-9.55288e-32
-7.04221e-32
-5.19081e-32
-3.82682e-32
-2.8344e-32
-2.10398e-32
-1.5652e-32
-1.17859e-32
-8.83793e-33
-6.71228e-33
-5.14172e-33
-3.98353e-33
-3.11484e-33
-2.49166e-33
-2.0039e-33
-1.63761e-33
-1.36217e-33
-1.13589e-33
-9.56028e-34
-8.08238e-34
-6.89332e-34
-5.89802e-34
-5.07378e-34
-4.37883e-34
-3.77332e-34
-3.25769e-34
-2.80887e-34
-2.41953e-34
-2.0812e-34
-1.78672e-34
-1.52729e-34
-1.30603e-34
-1.10958e-34
-9.33812e-35
-7.8812e-35
-6.63014e-35
-5.50761e-35
-4.58863e-35
-3.76584e-35
-3.08972e-35
-2.55965e-35
-2.06638e-35
-1.65297e-35
-1.31446e-35
-1.06015e-35
-8.48401e-36
-6.52244e-36
-5.06844e-36
-4.2074e-36
-3.27283e-36
-2.52543e-36
-1.97904e-36
-1.56742e-36
-1.2814e-36
-1.04911e-36
-9.15008e-37
-8.09725e-37
-7.68268e-37
-7.47303e-37
-7.59189e-37
-7.89308e-37
-8.32523e-37
-8.92172e-37
-9.39281e-37
-9.92553e-37
-1.07983e-36
-1.14327e-36
-1.19998e-36
-1.26329e-36
-1.32337e-36
-1.39539e-36
-1.4354e-36
-1.53068e-36
-1.53065e-36
-1.59804e-36
-1.67195e-36
-1.6294e-36
-1.65394e-36
-1.73541e-36
-1.65045e-36
-1.67316e-36
-1.61963e-36
-1.79045e-36
-1.61253e-36
-1.60541e-36
-1.64518e-36
-1.53213e-36
-1.54804e-36
-1.48448e-36
-1.45762e-36
-1.4091e-36
-1.35743e-36
-1.3155e-36
-1.23525e-36
-1.17693e-36
-1.12948e-36
-1.05465e-36
-9.94408e-37
-9.08978e-37
-8.94662e-37
-8.08766e-37
-7.50842e-37
-6.93075e-37
-6.37621e-37
-5.84262e-37
-5.33228e-37
-4.84801e-37
-4.39149e-37
-3.96347e-37
-3.56406e-37
-3.193e-37
-2.8497e-37
-2.53329e-37
-2.24266e-37
-1.97648e-37
-1.73317e-37
-1.511e-37
-1.30808e-37
-1.12237e-37
-9.51758e-38
-7.94032e-38
-6.46944e-38
-5.08218e-38
-3.75576e-38
-2.46764e-38
-1.19578e-38
8.10444e-40
1.38298e-38
2.72878e-38
4.1355e-38
5.6184e-38
7.19088e-38
8.86478e-38
1.06508e-37
1.25589e-37
1.45983e-37
1.67757e-37
1.90887e-37
2.15171e-37
2.40233e-37
2.65926e-37
2.90795e-37
3.34167e-37
3.44779e-37
3.73234e-37
3.99548e-37
4.24518e-37
4.47645e-37
4.68677e-37
4.87223e-37
5.02766e-37
5.14769e-37
5.2274e-37
5.26241e-37
5.24857e-37
5.17983e-37
5.03925e-37
4.78519e-37
4.35147e-37
4.69602e-37
)
;
    }
    top
    {
        type            calculated;
        value           uniform 4.11704e-25;
    }
    bottom
    {
        type            fixedValue;
        value           uniform 0;
    }
    frontAndBackPlanes
    {
        type            empty;
        value           nonuniform List<scalar> 0();
    }
}


// ************************************************************************* //
