/*--------------------------------*- C++ -*----------------------------------*\
| =========                 |                                                 |
| \\      /  F ield         | OpenFOAM: The Open Source CFD Toolbox           |
|  \\    /   O peration     | Version:  2206                                  |
|   \\  /    A nd           | Website:  www.openfoam.com                      |
|    \\/     M anipulation  |                                                 |
\*---------------------------------------------------------------------------*/
FoamFile
{
    version     2.0;
    format      ascii;
    arch        "LSB;label=32;scalar=64";
    class       volVectorField;
    location    "200";
    object      U.a;
}
// * * * * * * * * * * * * * * * * * * * * * * * * * * * * * * * * * * * * * //

dimensions      [0 1 -1 0 0 0 0];

internalField   nonuniform List<vector> 
344
(
(-2.32137e-17 1.05667e-05 0)
(-5.0636e-17 -1.01424e-07 0)
(-7.83654e-17 1.01015e-07 0)
(-1.0633e-16 -9.36517e-08 0)
(-1.34253e-16 1.03824e-07 0)
(-1.45488e-16 -9.04684e-08 0)
(-1.56701e-16 1.0716e-07 0)
(-1.68078e-16 -8.65997e-08 0)
(-1.79178e-16 1.11162e-07 0)
(-1.75028e-16 -8.19919e-08 0)
(-1.7054e-16 1.15795e-07 0)
(-1.66118e-16 -7.67598e-08 0)
(-1.61822e-16 1.20872e-07 0)
(-1.57655e-16 -7.11757e-08 0)
(-1.53608e-16 1.26069e-07 0)
(-1.49671e-16 -6.56483e-08 0)
(-1.4584e-16 1.30954e-07 0)
(-1.42117e-16 -6.06707e-08 0)
(-1.38503e-16 1.35066e-07 0)
(-1.35005e-16 -5.67411e-08 0)
(-1.31627e-16 1.37988e-07 0)
(-1.28375e-16 -5.42906e-08 0)
(-1.25252e-16 1.39412e-07 0)
(-1.22264e-16 -5.36273e-08 0)
(-1.19415e-16 1.39169e-07 0)
(-1.16709e-16 -5.49103e-08 0)
(-1.14151e-16 1.37239e-07 0)
(-1.11744e-16 -5.81639e-08 0)
(-1.09491e-16 1.33696e-07 0)
(-1.07396e-16 -6.33251e-08 0)
(-1.05461e-16 1.28635e-07 0)
(-1.0369e-16 -7.0301e-08 0)
(-1.02085e-16 1.22114e-07 0)
(-1.00647e-16 -7.8986e-08 0)
(-9.93792e-17 1.14147e-07 0)
(-9.82828e-17 -8.92104e-08 0)
(-9.73592e-17 1.04796e-07 0)
(-9.66077e-17 -1.00598e-07 0)
(-9.60304e-17 9.43664e-08 0)
(-9.56273e-17 -1.12378e-07 0)
(-9.53983e-17 8.36317e-08 0)
(-9.53433e-17 -1.2328e-07 0)
(-9.54619e-17 7.40181e-08 0)
(-9.57537e-17 -1.31534e-07 0)
(-9.62188e-17 6.7497e-08 0)
(-9.68591e-17 -1.35352e-07 0)
(-9.76801e-17 6.58668e-08 0)
(-9.86924e-17 -1.33909e-07 0)
(-9.99143e-17 6.96969e-08 0)
(-1.01372e-16 -1.28397e-07 0)
(-1.03062e-16 7.70344e-08 0)
(-1.04985e-16 -1.22709e-07 0)
(-1.00554e-16 8.2842e-08 0)
(-9.63543e-17 -1.22687e-07 0)
(-9.2382e-17 8.00759e-08 0)
(-8.8639e-17 -1.33425e-07 0)
(-8.50969e-17 6.30506e-08 0)
(-8.1735e-17 -1.5506e-07 0)
(-7.85409e-17 3.2482e-08 0)
(-7.55077e-17 -1.79187e-07 0)
(-7.2632e-17 -8.97302e-11 0)
(-6.99111e-17 -1.89346e-07 0)
(-6.73454e-17 -1.24702e-08 0)
(-6.49328e-17 -1.68845e-07 0)
(-6.26743e-17 1.90695e-08 0)
(-6.05683e-17 -1.1534e-07 0)
(-5.86145e-17 1.00255e-07 0)
(-5.68125e-17 -5.2337e-08 0)
(-5.51614e-17 1.96843e-07 0)
(-5.36614e-17 -1.61932e-08 0)
(-5.23119e-17 2.37043e-07 0)
(-5.11124e-17 -2.22402e-09 0)
(-5.00627e-17 1.74373e-07 0)
(-4.91623e-17 7.58682e-08 0)
(-4.84108e-17 1.0445e-07 0)
(-4.78083e-17 2.51768e-07 0)
(-4.73545e-17 3.39463e-07 0)
(-4.70499e-17 3.11865e-08 0)
(-4.70407e-17 5.17694e-07 0)
(-4.277e-17 -0.00898421 0)
(-3.73326e-17 -0.037474 0)
(-2.74583e-17 -0.0387295 0)
(-2.30511e-17 -0.0417954 0)
(2.15664e-18 -0.0411455 0)
(1.15189e-17 -0.0413905 0)
(1.11926e-17 -0.0413702 0)
(9.87605e-18 -0.0413968 0)
(5.07541e-18 -0.0414177 0)
(8.73305e-19 -0.0414598 0)
(8.72511e-19 -0.0414598 0)
(8.7207e-19 -0.0414598 0)
(8.71679e-19 -0.0414598 0)
(8.7135e-19 -0.0414598 0)
(8.71073e-19 -0.0414598 0)
(8.70858e-19 -0.0414598 0)
(8.70694e-19 -0.0414598 0)
(8.70582e-19 -0.0414598 0)
(8.70522e-19 -0.0414598 0)
(8.70513e-19 -0.0414598 0)
(8.70574e-19 -0.0414598 0)
(8.70864e-19 -0.0414598 0)
(1.06486e-18 -0.0414503 0)
(1.93077e-18 -0.041352 0)
(3.52194e-18 -0.0403637 0)
(2.0038e-20 -0.0351077 0)
(1.99747e-20 -0.0351076 0)
(2.00078e-20 -0.0351078 0)
(-1.33395e-19 -0.0396179 0)
(-1.33407e-19 -0.0396179 0)
(-1.33416e-19 -0.0396179 0)
(-1.33425e-19 -0.0396179 0)
(-1.33436e-19 -0.0396179 0)
(-1.33447e-19 -0.0396179 0)
(-1.33458e-19 -0.0396179 0)
(-1.3347e-19 -0.0396179 0)
(-1.3348e-19 -0.0396179 0)
(-1.33491e-19 -0.0396179 0)
(-1.335e-19 -0.0396179 0)
(-1.33508e-19 -0.0396179 0)
(-1.33516e-19 -0.0396179 0)
(-1.33522e-19 -0.0396179 0)
(-1.33526e-19 -0.0396179 0)
(-1.33529e-19 -0.0396179 0)
(-1.33531e-19 -0.0396179 0)
(-1.33532e-19 -0.0396179 0)
(-1.33538e-19 -0.0396179 0)
(6.57008e-18 -0.0349576 0)
(6.57012e-18 -0.0349576 0)
(6.57009e-18 -0.0349576 0)
(1.98352e-18 -0.039631 0)
(4.94741e-19 -0.0394442 0)
(2.97955e-20 -0.035589 0)
(2.97946e-20 -0.0355889 0)
(2.97944e-20 -0.035589 0)
(5.98624e-21 -0.038958 0)
(5.98624e-21 -0.038958 0)
(5.98619e-21 -0.038958 0)
(3.23119e-21 -0.0375409 0)
(3.23121e-21 -0.0375408 0)
(3.23114e-21 -0.0375409 0)
(-7.82015e-21 -0.0396278 0)
(-1.9392e-20 -0.0394917 0)
(-4.12345e-20 -0.0359581 0)
(-4.12355e-20 -0.0359581 0)
(-4.12793e-20 -0.0359581 0)
(-1.54278e-17 -0.0396295 0)
(-1.54279e-17 -0.0396295 0)
(-1.54279e-17 -0.0396295 0)
(-1.54283e-17 -0.0396295 0)
(-3.44359e-17 -0.0390017 0)
(-8.90602e-18 -0.0390017 0)
(1.66239e-17 -0.0390017 0)
(-5.87792e-18 -0.0396409 0)
(-6.08167e-18 -0.0396409 0)
(3.10038e-18 -0.0396409 0)
(1.18992e-17 -0.0396409 0)
(1.22668e-17 -0.0396409 0)
(1.2307e-17 -0.0396409 0)
(1.23079e-17 -0.0396409 0)
(4.57489e-18 -0.0338712 0)
(4.57486e-18 -0.0338711 0)
(4.57483e-18 -0.0338712 0)
(6.65917e-19 -0.0391394 0)
(6.65913e-19 -0.0391394 0)
(6.6591e-19 -0.0391394 0)
(6.659e-19 -0.0391394 0)
(1.76708e-20 -0.0346916 0)
(1.76687e-20 -0.0346916 0)
(1.76681e-20 -0.0346916 0)
(-1.00218e-19 -0.0396132 0)
(-3.22887e-19 -0.0393849 0)
(-8.10322e-19 -0.0349036 0)
(-8.10329e-19 -0.0349035 0)
(-8.10551e-19 -0.0349036 0)
(-5.60351e-17 -0.0398318 0)
(-3.07249e-17 -0.0398318 0)
(-2.06921e-17 -0.0398318 0)
(-2.08366e-17 -0.0398318 0)
(-2.037e-17 -0.0398318 0)
(-1.32551e-17 -0.0398318 0)
(-6.40897e-18 -0.0398318 0)
(2.97676e-18 -0.0398318 0)
(1.25722e-17 -0.0398318 0)
(1.94375e-17 -0.0398318 0)
(2.68346e-17 -0.0398318 0)
(3.57578e-17 -0.0398318 0)
(4.43188e-17 -0.0398318 0)
(5.07451e-17 -0.0398318 0)
(7.64746e-17 -0.0398318 0)
(5.29451e-17 -0.0396689 0)
(5.29452e-17 -0.0396689 0)
(5.29451e-17 -0.0396689 0)
(5.12169e-17 -0.0398426 0)
(5.15398e-17 -0.0398426 0)
(5.92977e-17 -0.0398426 0)
(6.54066e-17 -0.0398425 0)
(6.5614e-17 -0.0398425 0)
(-1.22053e-17 -0.0383778 0)
(1.33244e-17 -0.0383778 0)
(3.88543e-17 -0.0383778 0)
(6.2565e-18 -0.03958 0)
(6.57799e-18 -0.03958 0)
(1.44774e-17 -0.03958 0)
(2.07269e-17 -0.03958 0)
(2.0938e-17 -0.03958 0)
(4.17499e-18 -0.0363552 0)
(4.17644e-18 -0.0363551 0)
(4.17787e-18 -0.0363552 0)
(-1.77813e-17 -0.0395442 0)
(-1.78947e-17 -0.0395442 0)
(-6.76808e-18 -0.0395442 0)
(2.68354e-18 -0.0395442 0)
(9.313e-18 -0.0395442 0)
(1.67194e-17 -0.0395442 0)
(1.65073e-17 -0.0395442 0)
(-2.13619e-17 -0.0338516 0)
(4.16565e-18 -0.0338515 0)
(2.96931e-17 -0.0338516 0)
(-1.52978e-17 -0.0395268 0)
(-1.53066e-17 -0.0395267 0)
(-1.51403e-17 -0.0395267 0)
(-6.28565e-18 -0.0395267 0)
(2.25379e-18 -0.0395267 0)
(9.70224e-18 -0.0395267 0)
(1.61813e-17 -0.0395267 0)
(1.64235e-17 -0.0395267 0)
(7.45334e-19 -0.0348498 0)
(7.453e-19 -0.0348497 0)
(7.45167e-19 -0.0348498 0)
(-3.40339e-17 -0.0395796 0)
(-3.36306e-17 -0.0395796 0)
(-2.41018e-17 -0.0395796 0)
(-1.49124e-17 -0.0395796 0)
(-6.58075e-18 -0.0395796 0)
(1.16887e-18 -0.0395796 0)
(1.11502e-18 -0.0395796 0)
(1.57688e-18 -0.0395796 0)
(9.33537e-18 -0.0395796 0)
(1.67352e-17 -0.0395796 0)
(2.51819e-17 -0.0395796 0)
(5.05298e-17 -0.0395796 0)
(1.82285e-18 -0.0343559 0)
(1.82277e-18 -0.0343558 0)
(1.82273e-18 -0.0343559 0)
(-9.06358e-18 -0.0389415 0)
(-9.06362e-18 -0.0389415 0)
(-9.06366e-18 -0.0389415 0)
(-2.91682e-17 -0.0349459 0)
(-3.63818e-18 -0.0349458 0)
(2.18919e-17 -0.0349459 0)
(-1.6671e-17 -0.0395332 0)
(-1.6666e-17 -0.0395332 0)
(-1.65396e-17 -0.0395332 0)
(-1.60407e-17 -0.0395332 0)
(-9.02954e-18 -0.0395332 0)
(-1.7178e-18 -0.0395332 0)
(5.33412e-18 -0.0395332 0)
(1.13715e-17 -0.0395332 0)
(1.11813e-17 -0.0395332 0)
(1.52231e-19 -0.0351927 0)
(1.52202e-19 -0.0351927 0)
(1.52167e-19 -0.0351927 0)
(2.46088e-19 -0.0396024 0)
(7.02601e-19 -0.0393637 0)
(5.6745e-19 -0.034622 0)
(5.67451e-19 -0.0346219 0)
(5.67414e-19 -0.034622 0)
(-6.45021e-18 -0.0398178 0)
(-9.38727e-18 -0.0398364 0)
(-1.18263e-17 -0.0395321 0)
(-1.18263e-17 -0.0395321 0)
(-1.18264e-17 -0.0395321 0)
(8.02043e-18 -0.0397753 0)
(7.79525e-18 -0.0397753 0)
(1.73828e-17 -0.0397753 0)
(1.81913e-17 -0.0397753 0)
(2.77819e-17 -0.0395213 0)
(2.77819e-17 -0.0395213 0)
(2.77819e-17 -0.0395213 0)
(2.89643e-17 -0.039761 0)
(2.89645e-17 -0.039761 0)
(2.89643e-17 -0.039761 0)
(2.89641e-17 -0.039761 0)
(1.10312e-19 -0.0359952 0)
(1.10253e-19 -0.0359952 0)
(1.10251e-19 -0.0359952 0)
(1.5075e-20 -0.03954 0)
(1.50747e-20 -0.03954 0)
(1.50745e-20 -0.03954 0)
(1.50744e-20 -0.03954 0)
(1.50743e-20 -0.03954 0)
(1.50743e-20 -0.03954 0)
(1.50741e-20 -0.03954 0)
(1.52017e-23 -0.0345383 0)
(1.51668e-23 -0.0345382 0)
(1.5166e-23 -0.0345383 0)
(2.23069e-27 -0.0395315 0)
(2.18225e-27 -0.0395315 0)
(2.16365e-27 -0.0395315 0)
(2.15064e-27 -0.0395315 0)
(2.14068e-27 -0.0395314 0)
(2.13551e-27 -0.0395314 0)
(2.13533e-27 -0.0395314 0)
(1.3569e-30 -0.0375429 0)
(1.34992e-30 -0.0375429 0)
(1.34977e-30 -0.0375429 0)
(4.5339e-34 -0.0395608 0)
(4.43136e-34 -0.0395608 0)
(4.39537e-34 -0.0395608 0)
(4.37335e-34 -0.0395608 0)
(4.36298e-34 -0.0395608 0)
(4.36372e-34 -0.0395608 0)
(-2.15398e-35 -0.0347571 0)
(-2.17105e-35 -0.0347571 0)
(-2.13435e-35 -0.0347571 0)
(1.93703e-34 -0.0396681 0)
(1.93376e-34 -0.0396681 0)
(1.93403e-34 -0.0396681 0)
(1.93601e-34 -0.0396681 0)
(1.93928e-34 -0.0396681 0)
(1.94334e-34 -0.0396681 0)
(1.95206e-34 -0.0396681 0)
(1.45703e-32 -0.0371591 0)
(1.45695e-32 -0.037159 0)
(1.45703e-32 -0.0371591 0)
(-7.15587e-32 -0.039554 0)
(-7.15628e-32 -0.039554 0)
(-7.1564e-32 -0.039554 0)
(-7.15641e-32 -0.039554 0)
(-7.15633e-32 -0.039554 0)
(-7.15619e-32 -0.039554 0)
(-7.15578e-32 -0.039554 0)
(4.78409e-33 -0.0348071 0)
(4.78136e-33 -0.0348071 0)
(4.78757e-33 -0.0348071 0)
(1.00142e-30 -0.0396966 0)
(1.00142e-30 -0.0396966 0)
(1.00142e-30 -0.0396966 0)
(1.00142e-30 -0.0396966 0)
(1.00142e-30 -0.0396966 0)
(1.00142e-30 -0.0396966 0)
(1.00142e-30 -0.0396966 0)
(1.00142e-30 -0.0396966 0)
(1.00142e-30 -0.0396966 0)
)
;

boundaryField
{
    inlet
    {
        type            cyclic;
    }
    outlet
    {
        type            cyclic;
    }
    top
    {
        type            zeroGradient;
    }
    bottom
    {
        type            fixedValue;
        value           uniform (0 0 0);
    }
    frontAndBackPlanes
    {
        type            empty;
    }
}


// ************************************************************************* //
