/*--------------------------------*- C++ -*----------------------------------*\
| =========                 |                                                 |
| \\      /  F ield         | OpenFOAM: The Open Source CFD Toolbox           |
|  \\    /   O peration     | Version:  2206                                  |
|   \\  /    A nd           | Website:  www.openfoam.com                      |
|    \\/     M anipulation  |                                                 |
\*---------------------------------------------------------------------------*/
FoamFile
{
    version     2.0;
    format      ascii;
    arch        "LSB;label=32;scalar=64";
    class       volVectorField;
    location    "200";
    object      U.b;
}
// * * * * * * * * * * * * * * * * * * * * * * * * * * * * * * * * * * * * * //

dimensions      [0 1 -1 0 0 0 0];

internalField   nonuniform List<vector> 
344
(
(-2.31256e-17 1.01407e-05 0)
(-5.06138e-17 -3.39761e-07 0)
(-7.83656e-17 9.06468e-08 0)
(-1.0633e-16 -1.03279e-07 0)
(-1.34174e-16 8.80915e-08 0)
(-1.45488e-16 -1.07036e-07 0)
(-1.56701e-16 8.31348e-08 0)
(-1.68078e-16 -1.12266e-07 0)
(-1.79106e-16 7.72128e-08 0)
(-1.75025e-16 -1.18426e-07 0)
(-1.7054e-16 7.03437e-08 0)
(-1.66118e-16 -1.25358e-07 0)
(-1.6182e-16 6.28008e-08 0)
(-1.57655e-16 -1.32694e-07 0)
(-1.53611e-16 5.50618e-08 0)
(-1.49674e-16 -1.39893e-07 0)
(-1.4584e-16 4.77586e-08 0)
(-1.42117e-16 -1.46316e-07 0)
(-1.38503e-16 4.15813e-08 0)
(-1.35005e-16 -1.51331e-07 0)
(-1.31627e-16 3.71741e-08 0)
(-1.28378e-16 -1.54415e-07 0)
(-1.25252e-16 3.50416e-08 0)
(-1.22264e-16 -1.55221e-07 0)
(-1.19415e-16 3.54953e-08 0)
(-1.16709e-16 -1.5361e-07 0)
(-1.14151e-16 3.86446e-08 0)
(-1.11744e-16 -1.49613e-07 0)
(-1.09491e-16 4.44477e-08 0)
(-1.07396e-16 -1.43351e-07 0)
(-1.05461e-16 5.2787e-08 0)
(-1.0369e-16 -1.34943e-07 0)
(-1.02085e-16 6.35283e-08 0)
(-1.00647e-16 -1.24461e-07 0)
(-9.93792e-17 7.65004e-08 0)
(-9.82828e-17 -1.11991e-07 0)
(-9.73601e-17 9.13615e-08 0)
(-9.66076e-17 -9.78368e-08 0)
(-9.60303e-17 1.0736e-07 0)
(-9.56272e-17 -8.28035e-08 0)
(-9.53982e-17 1.23112e-07 0)
(-9.53432e-17 -6.84618e-08 0)
(-9.54618e-17 1.36509e-07 0)
(-9.57511e-17 -5.71973e-08 0)
(-9.62172e-17 1.45019e-07 0)
(-9.6859e-17 -5.16101e-08 0)
(-9.768e-17 1.46722e-07 0)
(-9.86923e-17 -5.32641e-08 0)
(-9.99142e-17 1.4173e-07 0)
(-1.01372e-16 -6.10797e-08 0)
(-1.03063e-16 1.33492e-07 0)
(-1.04949e-16 -7.01063e-08 0)
(-1.00554e-16 1.28843e-07 0)
(-9.63553e-17 -7.19992e-08 0)
(-9.2382e-17 1.3572e-07 0)
(-8.8639e-17 -5.82103e-08 0)
(-8.50969e-17 1.58354e-07 0)
(-8.1735e-17 -2.581e-08 0)
(-7.85409e-17 1.91623e-07 0)
(-7.55077e-17 1.62395e-08 0)
(-7.2636e-17 2.18372e-07 0)
(-6.99111e-17 4.47421e-08 0)
(-6.73476e-17 2.14487e-07 0)
(-6.49307e-17 2.93757e-08 0)
(-6.26743e-17 1.64119e-07 0)
(-6.05683e-17 -4.75386e-08 0)
(-5.86145e-17 7.90949e-08 0)
(-5.68121e-17 -1.64506e-07 0)
(-5.51622e-17 2.07249e-09 0)
(-5.36614e-17 -2.52201e-07 0)
(-5.23144e-17 -3.37037e-08 0)
(-5.11136e-17 -2.41957e-07 0)
(-5.00626e-17 -7.35937e-08 0)
(-4.91622e-17 -1.77919e-07 0)
(-4.84108e-17 -2.078e-07 0)
(-4.78095e-17 -3.00068e-07 0)
(-4.73545e-17 -2.29093e-07 0)
(-4.70512e-17 -3.1333e-07 0)
(-4.6988e-17 -8.8086e-05 0)
(-4.39844e-17 0.00603571 0)
(-3.49012e-17 -0.00590611 0)
(-2.73811e-17 0.00505639 0)
(-3.17098e-17 -0.00402725 0)
(-1.79816e-17 0.0030732 0)
(-5.91492e-18 -0.00228623 0)
(2.85713e-17 0.00167797 0)
(3.08401e-17 -0.00122576 0)
(3.35833e-17 0.000896737 0)
(3.61923e-17 -0.000659296 0)
(5.14965e-17 0.000487666 0)
(4.7748e-17 -0.000362667 0)
(4.39954e-17 0.000270773 0)
(3.4943e-17 -0.000202666 0)
(2.59146e-17 0.000151914 0)
(2.28731e-17 -0.000113983 0)
(1.98566e-17 8.55944e-05 0)
(1.68655e-17 -6.43299e-05 0)
(1.64537e-17 4.83864e-05 0)
(1.61196e-17 -3.64172e-05 0)
(1.44446e-17 2.74187e-05 0)
(1.28691e-17 -2.06447e-05 0)
(1.14e-17 1.55405e-05 0)
(1.00344e-17 -1.16927e-05 0)
(8.76953e-18 8.79233e-06 0)
(7.60271e-18 -6.60714e-06 0)
(6.53079e-18 4.96201e-06 0)
(5.54976e-18 -3.72457e-06 0)
(4.65454e-18 2.79459e-06 0)
(3.83902e-18 -2.09625e-06 0)
(3.26096e-18 1.57217e-06 0)
(2.75148e-18 -1.17906e-06 0)
(2.30589e-18 8.84273e-07 0)
(1.91895e-18 -6.6327e-07 0)
(1.58516e-18 4.97594e-07 0)
(1.29905e-18 -3.73417e-07 0)
(1.05534e-18 2.80363e-07 0)
(8.49105e-19 -2.10676e-07 0)
(6.75696e-19 1.5854e-07 0)
(5.30811e-19 -1.19625e-07 0)
(4.19922e-19 9.06835e-08 0)
(3.23183e-19 -6.93201e-08 0)
(2.44567e-19 5.37427e-08 0)
(1.81242e-19 -4.08011e-08 0)
(1.30729e-19 3.0177e-08 0)
(9.08652e-20 -2.16439e-08 0)
(5.9778e-20 1.49555e-08 0)
(3.58513e-20 -9.88399e-09 0)
(1.84794e-20 6.18386e-09 0)
(5.731e-21 -3.62616e-09 0)
(-3.35882e-21 1.96828e-09 0)
(-9.27857e-21 -9.85377e-10 0)
(-1.30074e-20 4.55225e-10 0)
(-1.51572e-20 -1.99314e-10 0)
(-1.60859e-20 8.36499e-11 0)
(-1.61393e-20 -3.49043e-11 0)
(-1.55884e-20 1.41711e-11 0)
(-1.46424e-20 -6.14074e-12 0)
(-1.34603e-20 2.69394e-12 0)
(-1.21601e-20 -9.07909e-13 0)
(-1.08274e-20 5.71447e-13 0)
(-9.52218e-21 -3.67869e-14 0)
(-8.28441e-21 2.29176e-13 0)
(-7.13893e-21 1.21867e-13 0)
(-6.09917e-21 1.57299e-13 0)
(-5.17024e-21 1.3876e-13 0)
(-4.35144e-21 1.55927e-13 0)
(-3.63804e-21 1.52774e-13 0)
(-3.02278e-21 1.50522e-13 0)
(-2.49701e-21 1.45679e-13 0)
(-2.05139e-21 1.42426e-13 0)
(-1.67656e-21 1.33892e-13 0)
(-1.36345e-21 1.21629e-13 0)
(-1.1036e-21 1.15645e-13 0)
(-8.8924e-22 1.17114e-13 0)
(-7.13415e-22 1.14458e-13 0)
(-5.69977e-22 1.09173e-13 0)
(-4.5355e-22 1.033e-13 0)
(-3.59506e-22 9.79288e-14 0)
(-2.83896e-22 8.93915e-14 0)
(-2.23372e-22 7.89125e-14 0)
(-1.75128e-22 6.9376e-14 0)
(-1.36834e-22 6.21366e-14 0)
(-1.06557e-22 5.24162e-14 0)
(-8.27068e-23 4.29433e-14 0)
(-6.3991e-23 3.08412e-14 0)
(-4.93561e-23 2.22663e-14 0)
(-3.7952e-23 6.29524e-15 0)
(-2.90955e-23 1.83278e-14 0)
(-2.224e-23 1.24044e-14 0)
(-1.69506e-23 -1.08781e-14 0)
(-1.28823e-23 -6.18525e-15 0)
(-9.76283e-24 -7.68378e-15 0)
(-7.37833e-24 -6.20762e-15 0)
(-5.56177e-24 -6.69608e-15 0)
(-4.18046e-24 -5.94404e-15 0)
(-3.13427e-24 -5.38857e-15 0)
(-2.34351e-24 -4.93397e-15 0)
(-1.74817e-24 -4.87838e-15 0)
(-1.30101e-24 -4.57709e-15 0)
(-9.65893e-25 -4.29478e-15 0)
(-7.15857e-25 -3.96922e-15 0)
(-5.29431e-25 -3.66246e-15 0)
(-3.90754e-25 -3.31778e-15 0)
(-2.88275e-25 -2.96847e-15 0)
(-2.12286e-25 -2.70249e-15 0)
(-1.56494e-25 -2.53673e-15 0)
(-1.15351e-25 -2.36636e-15 0)
(-8.50405e-26 -2.19684e-15 0)
(-6.29866e-26 -2.01722e-15 0)
(-4.67552e-26 -1.8405e-15 0)
(-3.47822e-26 -1.65767e-15 0)
(-2.61908e-26 -1.47776e-15 0)
(-1.96399e-26 -1.29131e-15 0)
(-1.49162e-26 -1.10844e-15 0)
(-1.1426e-26 -9.18876e-16 0)
(-8.8523e-27 -7.49546e-16 0)
(-6.92186e-27 -5.43606e-16 0)
(-5.53703e-27 -3.86019e-16 0)
(-4.4531e-27 -1.76777e-16 0)
(-3.63913e-27 -2.76254e-16 0)
(-3.02705e-27 -1.87561e-16 0)
(-2.52419e-27 8.75795e-17 0)
(-2.12451e-27 5.60847e-17 0)
(-1.79608e-27 7.53959e-17 0)
(-1.53185e-27 4.77356e-17 0)
(-1.31067e-27 5.28028e-17 0)
(-1.12751e-27 4.09491e-17 0)
(-9.73072e-28 3.53545e-17 0)
(-8.38515e-28 2.87856e-17 0)
(-7.23932e-28 2.57862e-17 0)
(-6.24193e-28 2.14336e-17 0)
(-5.37674e-28 1.85801e-17 0)
(-4.62488e-28 1.54319e-17 0)
(-3.97049e-28 1.2628e-17 0)
(-3.39397e-28 1.03742e-17 0)
(-2.9023e-28 8.73265e-18 0)
(-2.46574e-28 7.08036e-18 0)
(-2.07514e-28 5.40682e-18 0)
(-1.75138e-28 4.12955e-18 0)
(-1.47336e-28 3.31611e-18 0)
(-1.22391e-28 2.55484e-18 0)
(-1.0197e-28 1.84614e-18 0)
(-8.36853e-29 1.4563e-18 0)
(-6.86605e-29 1.3099e-18 0)
(-5.68811e-29 9.59133e-19 0)
(-4.59195e-29 4.11874e-19 0)
(-3.67326e-29 1.8359e-20 0)
(-2.92103e-29 -1.20358e-20 0)
(-2.35589e-29 -2.23748e-19 0)
(-1.88534e-29 4.81063e-20 0)
(-1.44943e-29 -2.72117e-19 0)
(-1.12632e-29 1.76385e-18 0)
(-9.34979e-30 1.82467e-18 0)
(-7.27296e-30 -1.25456e-19 0)
(-5.61207e-30 2.46252e-19 0)
(-4.39787e-30 -6.37725e-20 0)
(-3.48316e-30 1.26152e-19 0)
(-2.84755e-30 8.08306e-20 0)
(-2.33134e-30 2.38016e-19 0)
(-2.03335e-30 3.67572e-19 0)
(-1.79939e-30 5.11468e-19 0)
(-1.70726e-30 6.01571e-19 0)
(-1.66067e-30 6.63896e-19 0)
(-1.68709e-30 7.09483e-19 0)
(-1.75402e-30 7.58965e-19 0)
(-1.85005e-30 8.02268e-19 0)
(-1.98261e-30 8.18255e-19 0)
(-2.08729e-30 7.80416e-19 0)
(-2.20567e-30 7.6886e-19 0)
(-2.39963e-30 7.84248e-19 0)
(-2.54059e-30 7.46134e-19 0)
(-2.66662e-30 6.81318e-19 0)
(-2.80732e-30 6.1116e-19 0)
(-2.94081e-30 5.43378e-19 0)
(-3.10087e-30 4.64734e-19 0)
(-3.18977e-30 3.55798e-19 0)
(-3.4015e-30 1.95299e-19 0)
(-3.40143e-30 1.90436e-20 0)
(-3.55119e-30 -1.29609e-19 0)
(-3.71545e-30 -1.64787e-19 0)
(-3.62088e-30 -2.53297e-19 0)
(-3.67543e-30 -1.48753e-19 0)
(-3.85648e-30 -3.92099e-19 0)
(-3.66767e-30 1.82009e-18 0)
(-3.71813e-30 1.81754e-18 0)
(-3.59917e-30 -3.99562e-19 0)
(-3.97877e-30 -1.61587e-19 0)
(-3.58339e-30 -2.71485e-19 0)
(-3.56759e-30 -1.88612e-19 0)
(-3.65595e-30 -1.58874e-19 0)
(-3.40473e-30 -1.65733e-20 0)
(-3.44009e-30 1.53154e-19 0)
(-3.29883e-30 3.07347e-19 0)
(-3.23915e-30 4.10639e-19 0)
(-3.13133e-30 4.8275e-19 0)
(-3.01651e-30 5.43342e-19 0)
(-2.92334e-30 6.05938e-19 0)
(-2.74499e-30 6.63413e-19 0)
(-2.61541e-30 6.93124e-19 0)
(-2.50996e-30 6.68495e-19 0)
(-2.34366e-30 6.68744e-19 0)
(-2.2098e-30 6.93867e-19 0)
(-2.01995e-30 6.6468e-19 0)
(-1.98814e-30 6.07741e-19 0)
(-1.79726e-30 5.45695e-19 0)
(-1.66854e-30 4.85656e-19 0)
(-1.54017e-30 4.14149e-19 0)
(-1.41693e-30 3.1144e-19 0)
(-1.29836e-30 1.58016e-19 0)
(-1.18495e-30 -1.06851e-20 0)
(-1.07734e-30 -1.52173e-19 0)
(-9.75887e-31 -1.80916e-19 0)
(-8.80771e-31 -2.63455e-19 0)
(-7.92014e-31 -1.51049e-19 0)
(-7.09556e-31 -3.90666e-19 0)
(-6.33266e-31 1.8108e-18 0)
(-5.62953e-31 1.80836e-18 0)
(-4.9837e-31 -3.9693e-19 0)
(-4.39217e-31 -1.60236e-19 0)
(-3.85149e-31 -2.7256e-19 0)
(-3.35778e-31 -1.90619e-19 0)
(-2.90684e-31 -1.61062e-19 0)
(-2.49416e-31 -1.41447e-20 0)
(-2.11502e-31 1.67257e-19 0)
(-1.76452e-31 3.25619e-19 0)
(-1.43765e-31 4.2761e-19 0)
(-1.12937e-31 5.07673e-19 0)
(-8.34613e-32 5.88517e-19 0)
(-5.48364e-32 6.70026e-19 0)
(-2.65729e-32 7.49258e-19 0)
(1.80099e-33 8.10479e-19 0)
(3.0733e-32 8.41586e-19 0)
(6.06395e-32 8.89167e-19 0)
(9.19e-32 9.54323e-19 0)
(1.24853e-31 9.89934e-19 0)
(1.59797e-31 1.01205e-18 0)
(1.96995e-31 1.03093e-18 0)
(2.36684e-31 1.05022e-18 0)
(2.79086e-31 1.05246e-18 0)
(3.24408e-31 1.03754e-18 0)
(3.72792e-31 1.037e-18 0)
(4.24193e-31 1.05064e-18 0)
(4.78158e-31 1.04696e-18 0)
(5.33851e-31 1.02566e-18 0)
(5.90947e-31 1.00491e-18 0)
(6.46211e-31 9.80662e-19 0)
(7.42594e-31 9.41947e-19 0)
(7.66175e-31 8.72358e-19 0)
(8.2941e-31 8.21347e-19 0)
(8.87884e-31 7.87261e-19 0)
(9.43374e-31 7.21083e-19 0)
(9.94767e-31 6.34357e-19 0)
(1.0415e-30 5.45161e-19 0)
(1.08272e-30 4.56132e-19 0)
(1.11726e-30 3.64622e-19 0)
(1.14393e-30 2.49823e-19 0)
(1.16164e-30 7.4665e-20 0)
(1.16942e-30 -1.2713e-19 0)
(1.16635e-30 -2.96701e-19 0)
(1.15107e-30 -3.45477e-19 0)
(1.11983e-30 -4.58746e-19 0)
(1.06337e-30 -3.76964e-19 0)
(9.66993e-31 -6.25424e-19 0)
(1.04356e-30 1.88466e-18 0)
)
;

boundaryField
{
    inlet
    {
        type            cyclic;
    }
    outlet
    {
        type            cyclic;
    }
    top
    {
        type            zeroGradient;
    }
    bottom
    {
        type            fixedValue;
        value           uniform (0 0 0);
    }
    frontAndBackPlanes
    {
        type            empty;
    }
}


// ************************************************************************* //
