/*--------------------------------*- C++ -*----------------------------------*\
| =========                 |                                                 |
| \\      /  F ield         | OpenFOAM: The Open Source CFD Toolbox           |
|  \\    /   O peration     | Version:  v2006                                 |
|   \\  /    A nd           | Website:  www.openfoam.com                      |
|    \\/     M anipulation  |                                                 |
\*---------------------------------------------------------------------------*/
FoamFile
{
    version     2.0;
    format      ascii;
    class       volScalarField;
    location    "1800";
    object      p;
}
// * * * * * * * * * * * * * * * * * * * * * * * * * * * * * * * * * * * * * //

dimensions      [1 -1 -2 0 0 0 0];


internalField   nonuniform List<scalar> 
120
(
-2.31084
-6.97059
-11.6303
-16.2901
-20.9499
-25.6096
-30.2694
-34.9292
-39.5889
-44.2487
-48.9085
-53.5683
-58.2281
-62.8879
-67.5476
-72.2074
-76.8672
-81.527
-86.1868
-90.8467
-95.5065
-100.166
-104.826
-109.486
-114.146
-118.806
-123.465
-128.125
-132.785
-137.445
-142.105
-146.765
-151.424
-156.084
-160.744
-165.404
-170.064
-174.724
-179.384
-184.044
-188.703
-193.363
-198.023
-202.683
-207.343
-212.003
-216.663
-221.323
-225.983
-230.643
-235.303
-239.963
-244.622
-249.282
-253.942
-258.602
-263.262
-267.922
-272.582
-277.242
-281.902
-286.562
-291.222
-295.882
-300.542
-305.202
-309.862
-314.522
-319.182
-323.842
-328.502
-333.162
-337.822
-342.482
-347.142
-351.802
-356.462
-361.123
-365.783
-370.443
-375.103
-379.763
-384.423
-389.083
-393.743
-398.403
-403.064
-407.724
-412.384
-417.044
-421.703
-426.367
-431.027
-435.687
-440.346
-445.006
-449.666
-454.326
-458.985
-463.645
-468.305
-472.965
-477.624
-482.284
-486.944
-491.604
-496.263
-500.923
-505.583
-510.243
-514.902
-519.562
-524.222
-528.882
-533.541
-538.201
-542.861
-547.521
-552.18
-556.84
)
;

boundaryField
{
    inlet
    {
        type            cyclic;
    }
    outlet
    {
        type            cyclic;
    }
    top
    {
        type            calculated;
        value           uniform -559.17;
    }
    bottom
    {
        type            calculated;
        value           uniform 0.0190324;
    }
    frontAndBackPlanes
    {
        type            empty;
    }
}


// ************************************************************************* //
