/*--------------------------------*- C++ -*----------------------------------*\
| =========                 |                                                 |
| \\      /  F ield         | OpenFOAM: The Open Source CFD Toolbox           |
|  \\    /   O peration     | Version:  v2006                                 |
|   \\  /    A nd           | Website:  www.openfoam.com                      |
|    \\/     M anipulation  |                                                 |
\*---------------------------------------------------------------------------*/
FoamFile
{
    version     2.0;
    format      ascii;
    class       volScalarField;
    location    "1800";
    object      pff;
}
// * * * * * * * * * * * * * * * * * * * * * * * * * * * * * * * * * * * * * //

dimensions      [1 -1 -2 0 0 0 0];


internalField   nonuniform List<scalar> 
120
(
26.2619
25.9675
25.6732
25.3789
25.0847
24.7904
24.4962
24.2021
23.9079
23.6138
23.3197
23.0256
22.7316
22.4376
22.1436
21.8497
21.5558
21.2619
20.968
20.6742
20.3804
20.0866
19.7929
19.4992
19.2055
18.9119
18.6183
18.3247
18.0312
17.7377
17.4443
17.1509
16.8575
16.5641
16.2708
15.9776
15.6844
15.3912
15.0981
14.805
14.5119
14.2189
13.9259
13.633
13.3402
13.0473
12.7546
12.4619
12.1692
11.8766
11.584
11.2915
10.999
10.7066
10.4143
10.122
9.82982
9.53766
9.24558
8.95356
8.66161
8.36973
8.07793
7.7862
7.49455
7.20299
6.91151
6.62012
6.32882
6.03762
5.74652
5.45552
5.16464
4.87387
4.58323
4.29271
4.00233
3.7121
3.42202
3.13211
2.84238
2.55285
2.26354
1.97448
1.6857
1.39724
1.10934
0.821855
0.530229
0.233992
0
0
0
0
0
0
0
0
0
0
0
0
0
0
0
0
0
0
0
0
0
0
0
0
0
0
0
0
0
0
)
;

boundaryField
{
    inlet
    {
        type            cyclic;
    }
    outlet
    {
        type            cyclic;
    }
    top
    {
        type            calculated;
        value           uniform 0;
    }
    bottom
    {
        type            calculated;
        value           uniform 26.2619;
    }
    frontAndBackPlanes
    {
        type            empty;
    }
}


// ************************************************************************* //
