/*--------------------------------*- C++ -*----------------------------------*\
| =========                 |                                                 |
| \\      /  F ield         | OpenFOAM: The Open Source CFD Toolbox           |
|  \\    /   O peration     | Version:  v2006                                 |
|   \\  /    A nd           | Website:  www.openfoam.com                      |
|    \\/     M anipulation  |                                                 |
\*---------------------------------------------------------------------------*/
FoamFile
{
    version     2.0;
    format      ascii;
    class       surfaceScalarField;
    location    "1800";
    object      phia;
}
// * * * * * * * * * * * * * * * * * * * * * * * * * * * * * * * * * * * * * //

dimensions      [0 3 -1 0 0 0 0];
oriented        oriented;


internalField   nonuniform List<scalar> 
119
(
-7.0673e-18
-1.42162e-17
-2.14462e-17
-2.87557e-17
-3.61452e-17
-4.36176e-17
-5.11735e-17
-5.88136e-17
-6.65385e-17
-7.43491e-17
-8.22461e-17
-9.02305e-17
-9.83032e-17
-1.06465e-16
-1.14718e-16
-1.23063e-16
-1.31501e-16
-1.40034e-16
-1.48663e-16
-1.5739e-16
-1.66215e-16
-1.75141e-16
-1.8417e-16
-1.93302e-16
-2.02539e-16
-2.11884e-16
-2.21338e-16
-2.30903e-16
-2.40581e-16
-2.50373e-16
-2.60282e-16
-2.7031e-16
-2.80458e-16
-2.90729e-16
-3.01123e-16
-3.11643e-16
-3.2229e-16
-3.33065e-16
-3.43969e-16
-3.55003e-16
-3.66167e-16
-3.77463e-16
-3.88889e-16
-4.00446e-16
-4.12135e-16
-4.23957e-16
-4.35911e-16
-4.48e-16
-4.60226e-16
-4.72591e-16
-4.85098e-16
-4.97752e-16
-5.10558e-16
-5.23521e-16
-5.36648e-16
-5.49944e-16
-5.63416e-16
-5.77072e-16
-5.9092e-16
-6.04967e-16
-6.19225e-16
-6.33707e-16
-6.48431e-16
-6.63421e-16
-6.78708e-16
-6.94331e-16
-7.10339e-16
-7.26789e-16
-7.4374e-16
-7.61253e-16
-7.79378e-16
-7.98149e-16
-8.17569e-16
-8.37611e-16
-8.58213e-16
-8.79296e-16
-9.00805e-16
-9.22773e-16
-9.4542e-16
-9.69264e-16
-9.95234e-16
-1.02471e-15
-1.05947e-15
-1.10139e-15
-1.15188e-15
-1.21166e-15
-1.27786e-15
-1.35002e-15
-1.45013e-15
-3.12377e-15
-5.46538e-12
-7.31406e-11
-5.90506e-11
-8.18891e-11
-8.22725e-11
-8.22743e-11
-8.22768e-11
-8.22766e-11
-8.22766e-11
-8.22766e-11
-8.22766e-11
-8.22766e-11
-8.22766e-11
-8.22766e-11
-8.22766e-11
-8.22766e-11
-8.22766e-11
-8.22766e-11
-8.22766e-11
-8.22766e-11
-8.22766e-11
-8.22766e-11
-8.22766e-11
-8.22766e-11
-8.22766e-11
-8.22766e-11
-8.22766e-11
-8.22565e-11
-8.21697e-11
)
;

boundaryField
{
    inlet
    {
        type            cyclic;
        value           nonuniform List<scalar> 
120
(
-1.32147e-27
-3.966e-27
-6.61439e-27
-9.23886e-27
-1.18724e-26
-1.45176e-26
-1.7177e-26
-1.97924e-26
-2.24271e-26
-2.51442e-26
-2.78854e-26
-3.06533e-26
-3.35107e-26
-3.63994e-26
-3.93215e-26
-4.22792e-26
-4.52747e-26
-4.831e-26
-5.13871e-26
-5.45078e-26
-5.7674e-26
-6.08873e-26
-6.41494e-26
-6.74617e-26
-7.10682e-26
-7.47276e-26
-7.8441e-26
-8.20879e-26
-8.57907e-26
-8.95499e-26
-9.31236e-26
-9.65122e-26
-9.99584e-26
-1.03462e-25
-1.07023e-25
-1.10641e-25
-1.14559e-25
-1.18774e-25
-1.22801e-25
-1.27125e-25
-1.31017e-25
-1.35201e-25
-1.39193e-25
-1.43232e-25
-1.47315e-25
-1.51683e-25
-1.55607e-25
-1.59567e-25
-1.6332e-25
-1.67587e-25
-1.71882e-25
-1.76199e-25
-1.80537e-25
-1.8489e-25
-1.89255e-25
-1.93868e-25
-1.98484e-25
-2.03098e-25
-2.07706e-25
-2.11818e-25
-2.15914e-25
-2.19989e-25
-2.24036e-25
-2.28051e-25
-2.32028e-25
-2.35481e-25
-2.39368e-25
-2.43201e-25
-2.46976e-25
-2.50687e-25
-2.54329e-25
-2.57416e-25
-2.60424e-25
-2.63348e-25
-2.66184e-25
-2.68927e-25
-2.71573e-25
-2.74118e-25
-2.76557e-25
-2.78887e-25
-2.81104e-25
-2.83206e-25
-2.85189e-25
-2.87051e-25
-2.88789e-25
-2.90401e-25
-2.90932e-25
-2.91334e-25
-2.91606e-25
-2.91745e-25
-2.91799e-25
-2.87734e-25
-2.79299e-25
-2.70689e-25
-2.61972e-25
-2.5316e-25
-2.44234e-25
-2.35193e-25
-2.26027e-25
-2.16735e-25
-2.07312e-25
-1.97755e-25
-1.8806e-25
-1.7823e-25
-1.68263e-25
-1.58161e-25
-1.47926e-25
-1.3756e-25
-1.27071e-25
-1.16461e-25
-1.05738e-25
-9.49101e-26
-8.39855e-26
-7.29719e-26
-6.18812e-26
-5.07235e-26
-3.95102e-26
-2.82531e-26
-1.69645e-26
-5.65735e-27
)
;
    }
    outlet
    {
        type            cyclic;
        value           nonuniform List<scalar> 
120
(
1.32147e-27
3.966e-27
6.61439e-27
9.23886e-27
1.18724e-26
1.45176e-26
1.7177e-26
1.97924e-26
2.24271e-26
2.51442e-26
2.78854e-26
3.06533e-26
3.35107e-26
3.63994e-26
3.93215e-26
4.22792e-26
4.52747e-26
4.831e-26
5.13871e-26
5.45078e-26
5.7674e-26
6.08873e-26
6.41494e-26
6.74617e-26
7.10682e-26
7.47276e-26
7.8441e-26
8.20879e-26
8.57907e-26
8.95499e-26
9.31236e-26
9.65122e-26
9.99584e-26
1.03462e-25
1.07023e-25
1.10641e-25
1.14559e-25
1.18774e-25
1.22801e-25
1.27125e-25
1.31017e-25
1.35201e-25
1.39193e-25
1.43232e-25
1.47315e-25
1.51683e-25
1.55607e-25
1.59567e-25
1.6332e-25
1.67587e-25
1.71882e-25
1.76199e-25
1.80537e-25
1.8489e-25
1.89255e-25
1.93868e-25
1.98484e-25
2.03098e-25
2.07706e-25
2.11818e-25
2.15914e-25
2.19989e-25
2.24036e-25
2.28051e-25
2.32028e-25
2.35481e-25
2.39368e-25
2.43201e-25
2.46976e-25
2.50687e-25
2.54329e-25
2.57416e-25
2.60424e-25
2.63348e-25
2.66184e-25
2.68927e-25
2.71573e-25
2.74118e-25
2.76557e-25
2.78887e-25
2.81104e-25
2.83206e-25
2.85189e-25
2.87051e-25
2.88789e-25
2.90401e-25
2.90932e-25
2.91334e-25
2.91606e-25
2.91745e-25
2.91799e-25
2.87734e-25
2.79299e-25
2.70689e-25
2.61972e-25
2.5316e-25
2.44234e-25
2.35193e-25
2.26027e-25
2.16735e-25
2.07312e-25
1.97755e-25
1.8806e-25
1.7823e-25
1.68263e-25
1.58161e-25
1.47926e-25
1.3756e-25
1.27071e-25
1.16461e-25
1.05738e-25
9.49101e-26
8.39855e-26
7.29719e-26
6.18812e-26
5.07235e-26
3.95102e-26
2.82531e-26
1.69645e-26
5.65735e-27
)
;
    }
    top
    {
        type            fixedValue;
        value           uniform 0;
    }
    bottom
    {
        type            fixedValue;
        value           uniform 0;
    }
    frontAndBackPlanes
    {
        type            empty;
        value           nonuniform List<scalar> 0();
    }
}


// ************************************************************************* //
