/*--------------------------------*- C++ -*----------------------------------*\
| =========                 |                                                 |
| \\      /  F ield         | OpenFOAM: The Open Source CFD Toolbox           |
|  \\    /   O peration     | Version:  v2006                                 |
|   \\  /    A nd           | Website:  www.openfoam.com                      |
|    \\/     M anipulation  |                                                 |
\*---------------------------------------------------------------------------*/
FoamFile
{
    version     2.0;
    format      ascii;
    class       surfaceScalarField;
    location    "1800";
    object      phib;
}
// * * * * * * * * * * * * * * * * * * * * * * * * * * * * * * * * * * * * * //

dimensions      [0 3 -1 0 0 0 0];
oriented        oriented;


internalField   nonuniform List<scalar> 
119
(
1.06038e-17
2.13259e-17
3.21655e-17
4.31198e-17
5.41896e-17
6.53791e-17
7.6689e-17
8.81201e-17
9.96733e-17
1.1135e-16
1.2315e-16
1.35075e-16
1.47128e-16
1.59308e-16
1.71618e-16
1.84059e-16
1.96634e-16
2.09343e-16
2.22189e-16
2.35175e-16
2.483e-16
2.61569e-16
2.74983e-16
2.88543e-16
3.02253e-16
3.16114e-16
3.30129e-16
3.443e-16
3.5863e-16
3.73122e-16
3.87777e-16
4.02598e-16
4.17588e-16
4.32748e-16
4.48082e-16
4.6359e-16
4.79274e-16
4.95135e-16
5.11175e-16
5.27393e-16
5.43791e-16
5.60367e-16
5.77121e-16
5.94054e-16
6.11164e-16
6.28453e-16
6.4592e-16
6.63566e-16
6.81393e-16
6.99405e-16
7.17605e-16
7.35998e-16
7.5459e-16
7.73389e-16
7.924e-16
8.11633e-16
8.31095e-16
8.50795e-16
8.70742e-16
8.90946e-16
9.11422e-16
9.32185e-16
9.5326e-16
9.74677e-16
9.96478e-16
1.01872e-15
1.04146e-15
1.06479e-15
1.08878e-15
1.11352e-15
1.13906e-15
1.16545e-15
1.19269e-15
1.22071e-15
1.24942e-15
1.27868e-15
1.30839e-15
1.33858e-15
1.36953e-15
1.40195e-15
1.43714e-15
1.47702e-15
1.52401e-15
1.58064e-15
1.64868e-15
1.72873e-15
1.816e-15
1.90844e-15
2.03284e-15
2.93034e-15
1.33201e-12
2.33082e-13
3.56536e-15
1.23774e-20
1.66822e-20
2.22992e-20
2.72437e-20
3.34383e-20
3.73885e-20
4.23217e-20
4.46265e-20
4.83857e-20
4.93931e-20
5.33781e-20
5.5732e-20
6.10499e-20
6.26207e-20
6.60019e-20
6.53618e-20
6.6713e-20
6.41656e-20
6.52346e-20
6.43838e-20
6.71779e-20
6.61235e-20
6.71757e-20
6.43316e-20
6.36409e-20
5.88941e-20
)
;

boundaryField
{
    inlet
    {
        type            cyclic;
        value           nonuniform List<scalar> 
120
(
-1.32147e-27
-3.966e-27
-6.61423e-27
-9.23886e-27
-1.18724e-26
-1.45176e-26
-1.71769e-26
-1.97924e-26
-2.24271e-26
-2.51442e-26
-2.78854e-26
-3.06533e-26
-3.35107e-26
-3.63994e-26
-3.93215e-26
-4.22792e-26
-4.52747e-26
-4.831e-26
-5.13871e-26
-5.45078e-26
-5.7674e-26
-6.08873e-26
-6.41494e-26
-6.74605e-26
-7.10682e-26
-7.47276e-26
-7.84417e-26
-8.20879e-26
-8.57907e-26
-8.95518e-26
-9.31256e-26
-9.65122e-26
-9.99584e-26
-1.03462e-25
-1.07023e-25
-1.10639e-25
-1.14556e-25
-1.18776e-25
-1.22799e-25
-1.27131e-25
-1.31014e-25
-1.35205e-25
-1.39193e-25
-1.43232e-25
-1.47311e-25
-1.51691e-25
-1.55607e-25
-1.59572e-25
-1.63312e-25
-1.67587e-25
-1.71882e-25
-1.76199e-25
-1.80537e-25
-1.8489e-25
-1.8925e-25
-1.93868e-25
-1.98484e-25
-2.03099e-25
-2.07717e-25
-2.11819e-25
-2.15914e-25
-2.19989e-25
-2.24036e-25
-2.28051e-25
-2.32042e-25
-2.35467e-25
-2.39367e-25
-2.43201e-25
-2.46976e-25
-2.50687e-25
-2.54345e-25
-2.57416e-25
-2.60424e-25
-2.63348e-25
-2.66184e-25
-2.68927e-25
-2.71573e-25
-2.74118e-25
-2.76557e-25
-2.78887e-25
-2.81104e-25
-2.83206e-25
-2.85189e-25
-2.87051e-25
-2.8879e-25
-2.90452e-25
-2.90933e-25
-2.91334e-25
-2.91606e-25
-2.91745e-25
-2.91724e-25
-2.87723e-25
-2.79283e-25
-2.70682e-25
-2.61973e-25
-2.5316e-25
-2.44236e-25
-2.35194e-25
-2.26029e-25
-2.16736e-25
-2.07313e-25
-1.97755e-25
-1.88062e-25
-1.78231e-25
-1.68264e-25
-1.58162e-25
-1.47927e-25
-1.37562e-25
-1.27072e-25
-1.16462e-25
-1.05739e-25
-9.49112e-26
-8.39861e-26
-7.29731e-26
-6.18824e-26
-5.07248e-26
-3.95115e-26
-2.82544e-26
-1.69657e-26
-5.65798e-27
)
;
    }
    outlet
    {
        type            cyclic;
        value           nonuniform List<scalar> 
120
(
1.32147e-27
3.966e-27
6.61423e-27
9.23886e-27
1.18724e-26
1.45176e-26
1.71769e-26
1.97924e-26
2.24271e-26
2.51442e-26
2.78854e-26
3.06533e-26
3.35107e-26
3.63994e-26
3.93215e-26
4.22792e-26
4.52747e-26
4.831e-26
5.13871e-26
5.45078e-26
5.7674e-26
6.08873e-26
6.41494e-26
6.74605e-26
7.10682e-26
7.47276e-26
7.84417e-26
8.20879e-26
8.57907e-26
8.95518e-26
9.31256e-26
9.65122e-26
9.99584e-26
1.03462e-25
1.07023e-25
1.10639e-25
1.14556e-25
1.18776e-25
1.22799e-25
1.27131e-25
1.31014e-25
1.35205e-25
1.39193e-25
1.43232e-25
1.47311e-25
1.51691e-25
1.55607e-25
1.59572e-25
1.63312e-25
1.67587e-25
1.71882e-25
1.76199e-25
1.80537e-25
1.8489e-25
1.8925e-25
1.93868e-25
1.98484e-25
2.03099e-25
2.07717e-25
2.11819e-25
2.15914e-25
2.19989e-25
2.24036e-25
2.28051e-25
2.32042e-25
2.35467e-25
2.39367e-25
2.43201e-25
2.46976e-25
2.50687e-25
2.54345e-25
2.57416e-25
2.60424e-25
2.63348e-25
2.66184e-25
2.68927e-25
2.71573e-25
2.74118e-25
2.76557e-25
2.78887e-25
2.81104e-25
2.83206e-25
2.85189e-25
2.87051e-25
2.8879e-25
2.90452e-25
2.90933e-25
2.91334e-25
2.91606e-25
2.91745e-25
2.91724e-25
2.87723e-25
2.79283e-25
2.70682e-25
2.61973e-25
2.5316e-25
2.44236e-25
2.35194e-25
2.26029e-25
2.16736e-25
2.07313e-25
1.97755e-25
1.88062e-25
1.78231e-25
1.68264e-25
1.58162e-25
1.47927e-25
1.37562e-25
1.27072e-25
1.16462e-25
1.05739e-25
9.49112e-26
8.39861e-26
7.29731e-26
6.18824e-26
5.07248e-26
3.95115e-26
2.82544e-26
1.69657e-26
5.65798e-27
)
;
    }
    top
    {
        type            fixedValue;
        value           uniform 0;
    }
    bottom
    {
        type            fixedValue;
        value           uniform 0;
    }
    frontAndBackPlanes
    {
        type            empty;
        value           nonuniform List<scalar> 0();
    }
}


// ************************************************************************* //
