/*--------------------------------*- C++ -*----------------------------------*\
| =========                 |                                                 |
| \\      /  F ield         | OpenFOAM: The Open Source CFD Toolbox           |
|  \\    /   O peration     | Version:  v2006                                 |
|   \\  /    A nd           | Website:  www.openfoam.com                      |
|    \\/     M anipulation  |                                                 |
\*---------------------------------------------------------------------------*/
FoamFile
{
    version     2.0;
    format      ascii;
    class       volTensorField;
    location    "1800";
    object      Taua;
}
// * * * * * * * * * * * * * * * * * * * * * * * * * * * * * * * * * * * * * //

dimensions      [1 -1 -2 0 0 0 0];


internalField   nonuniform List<tensor> 
120
(
(1.37616e-05 0 0 1.85062e-14 -2.75232e-05 0 0 0 1.37616e-05)
(1.38893e-05 0 0 1.85252e-14 -2.77786e-05 0 0 0 1.38893e-05)
(1.40562e-05 0 0 1.8455e-14 -2.81125e-05 0 0 0 1.40562e-05)
(1.4209e-05 0 0 1.8403e-14 -2.8418e-05 0 0 0 1.4209e-05)
(1.43664e-05 0 0 1.84756e-14 -2.87328e-05 0 0 0 1.43664e-05)
(1.45293e-05 0 0 1.85662e-14 -2.90586e-05 0 0 0 1.45293e-05)
(1.46923e-05 0 0 1.84619e-14 -2.93845e-05 0 0 0 1.46923e-05)
(1.48558e-05 0 0 1.83752e-14 -2.97116e-05 0 0 0 1.48558e-05)
(1.50208e-05 0 0 1.87312e-14 -3.00415e-05 0 0 0 1.50208e-05)
(1.51872e-05 0 0 1.91043e-14 -3.03745e-05 0 0 0 1.51872e-05)
(1.53553e-05 0 0 1.92818e-14 -3.07106e-05 0 0 0 1.53553e-05)
(1.55252e-05 0 0 1.96885e-14 -3.10503e-05 0 0 0 1.55252e-05)
(1.5697e-05 0 0 2.01114e-14 -3.13939e-05 0 0 0 1.5697e-05)
(1.58709e-05 0 0 2.03377e-14 -3.17419e-05 0 0 0 1.58709e-05)
(1.60473e-05 0 0 2.05795e-14 -3.20946e-05 0 0 0 1.60473e-05)
(1.62261e-05 0 0 2.08364e-14 -3.24522e-05 0 0 0 1.62261e-05)
(1.64076e-05 0 0 2.11078e-14 -3.28151e-05 0 0 0 1.64076e-05)
(1.65917e-05 0 0 2.13933e-14 -3.31834e-05 0 0 0 1.65917e-05)
(1.67786e-05 0 0 2.16923e-14 -3.35572e-05 0 0 0 1.67786e-05)
(1.69683e-05 0 0 2.20042e-14 -3.39366e-05 0 0 0 1.69683e-05)
(1.71609e-05 0 0 2.23283e-14 -3.43218e-05 0 0 0 1.71609e-05)
(1.73564e-05 0 0 2.26639e-14 -3.47129e-05 0 0 0 1.73564e-05)
(1.75551e-05 0 0 2.30103e-14 -3.51102e-05 0 0 0 1.75551e-05)
(1.77569e-05 0 0 2.42159e-14 -3.55138e-05 0 0 0 1.77569e-05)
(1.7962e-05 0 0 2.54307e-14 -3.5924e-05 0 0 0 1.7962e-05)
(1.81705e-05 0 0 2.58045e-14 -3.63411e-05 0 0 0 1.81705e-05)
(1.83826e-05 0 0 2.57611e-14 -3.67652e-05 0 0 0 1.83826e-05)
(1.85983e-05 0 0 2.57241e-14 -3.71966e-05 0 0 0 1.85983e-05)
(1.88177e-05 0 0 2.61169e-14 -3.76354e-05 0 0 0 1.88177e-05)
(1.90408e-05 0 0 2.56653e-14 -3.80816e-05 0 0 0 1.90408e-05)
(1.92677e-05 0 0 2.43681e-14 -3.85354e-05 0 0 0 1.92677e-05)
(1.94983e-05 0 0 2.39217e-14 -3.89966e-05 0 0 0 1.94983e-05)
(1.97326e-05 0 0 2.43246e-14 -3.94652e-05 0 0 0 1.97326e-05)
(1.99703e-05 0 0 2.47271e-14 -3.99407e-05 0 0 0 1.99703e-05)
(2.02114e-05 0 0 2.51277e-14 -4.04228e-05 0 0 0 2.02114e-05)
(2.04555e-05 2.87606e-19 0 2.63734e-14 -4.0911e-05 0 0 0 2.04555e-05)
(2.07023e-05 0 0 2.84627e-14 -4.14045e-05 0 0 0 2.07023e-05)
(2.09513e-05 0 0 2.88502e-14 -4.19027e-05 0 0 0 2.09513e-05)
(2.12023e-05 0 0 2.92301e-14 -4.24046e-05 0 0 0 2.12023e-05)
(2.14548e-05 0 0 2.87539e-14 -4.29096e-05 0 0 0 2.14548e-05)
(2.17083e-05 0 0 2.82672e-14 -4.34167e-05 0 0 0 2.17083e-05)
(2.19627e-05 0 0 2.86168e-14 -4.39253e-05 0 0 0 2.19627e-05)
(2.22175e-05 0 0 2.81056e-14 -4.44351e-05 0 0 0 2.22175e-05)
(2.24729e-05 0 0 2.84273e-14 -4.49459e-05 0 0 0 2.24729e-05)
(2.2729e-05 0 0 2.95798e-14 -4.5458e-05 0 0 0 2.2729e-05)
(2.29862e-05 0 0 2.90208e-14 -4.59724e-05 0 0 0 2.29862e-05)
(2.32451e-05 0 0 2.75956e-14 -4.64902e-05 0 0 0 2.32451e-05)
(2.35067e-05 0 0 2.69969e-14 -4.70133e-05 0 0 0 2.35067e-05)
(2.37721e-05 0 0 2.80693e-14 -4.75442e-05 0 0 0 2.37721e-05)
(2.40427e-05 0 0 2.99649e-14 -4.80854e-05 0 0 0 2.40427e-05)
(2.432e-05 0 0 3.01425e-14 -4.86399e-05 0 0 0 2.432e-05)
(2.46054e-05 0 0 3.02939e-14 -4.92107e-05 0 0 0 2.46054e-05)
(2.49003e-05 0 0 3.04177e-14 -4.98007e-05 0 0 0 2.49003e-05)
(2.52061e-05 0 0 3.05128e-14 -5.04121e-05 0 0 0 2.52061e-05)
(2.55236e-05 0 0 3.14237e-14 -5.10471e-05 0 0 0 2.55236e-05)
(2.58536e-05 0 0 3.23035e-14 -5.17071e-05 0 0 0 2.58536e-05)
(2.61967e-05 0 0 3.23055e-14 -5.23934e-05 0 0 0 2.61967e-05)
(2.65537e-05 0 0 3.22747e-14 -5.31074e-05 0 0 0 2.65537e-05)
(2.69256e-05 -5.75211e-19 0 3.052e-14 -5.38512e-05 0 0 0 2.69256e-05)
(2.73146e-05 0 0 2.87304e-14 -5.46292e-05 0 0 0 2.73146e-05)
(2.77241e-05 0 0 2.85954e-14 -5.54482e-05 0 0 0 2.77241e-05)
(2.816e-05 0 0 2.84247e-14 -5.63199e-05 0 0 0 2.816e-05)
(2.86305e-05 0 0 2.82176e-14 -5.72611e-05 0 0 0 2.86305e-05)
(2.91473e-05 0 0 2.79738e-14 -5.82946e-05 0 0 0 2.91473e-05)
(2.97247e-05 0 0 2.60056e-14 -5.94493e-05 0 0 0 2.97247e-05)
(3.03791e-05 0 0 2.56875e-14 -6.07582e-05 0 0 0 3.03791e-05)
(3.11276e-05 0 0 2.70199e-14 -6.22551e-05 0 0 0 3.11276e-05)
(3.19848e-05 0 0 2.66284e-14 -6.39697e-05 0 0 0 3.19848e-05)
(3.29597e-05 0 0 2.62003e-14 -6.59193e-05 0 0 0 3.29597e-05)
(3.40503e-05 0 0 2.57361e-14 -6.81006e-05 0 0 0 3.40503e-05)
(3.52401e-05 0 0 2.35517e-14 -7.04802e-05 0 0 0 3.52401e-05)
(3.64939e-05 0 0 2.13323e-14 -7.29878e-05 0 0 0 3.64939e-05)
(3.77583e-05 0 0 2.07633e-14 -7.55166e-05 0 0 0 3.77583e-05)
(3.89672e-05 0 0 2.01611e-14 -7.79344e-05 0 0 0 3.89672e-05)
(4.00578e-05 0 0 1.95267e-14 -8.01156e-05 0 0 0 4.00578e-05)
(4.09986e-05 0 0 1.88613e-14 -8.19972e-05 0 0 0 4.09986e-05)
(4.18327e-05 0 0 1.81662e-14 -8.36653e-05 0 0 0 4.18327e-05)
(4.27307e-05 0 0 1.74428e-14 -8.54615e-05 0 0 0 4.27307e-05)
(4.40482e-05 0 0 1.66925e-14 -8.80964e-05 0 0 0 4.40482e-05)
(4.63808e-05 0 0 1.59171e-14 -9.27616e-05 0 0 0 4.63808e-05)
(5.05589e-05 0 0 1.51182e-14 -0.000101118 0 0 0 5.05589e-05)
(5.73039e-05 0 0 1.42977e-14 -0.000114608 0 0 0 5.73039e-05)
(6.6743e-05 0 0 1.34575e-14 -0.000133486 0 0 0 6.6743e-05)
(8.07882e-05 0 0 1.25993e-14 -0.000161576 0 0 0 8.07882e-05)
(0.000107641 0 0 1.17253e-14 -0.000215282 0 0 0 0.000107641)
(0.00012688 0 0 7.50121e-15 -0.00025376 0 0 0 0.00012688)
(1.94845e-05 0 0 3.26538e-15 -3.8969e-05 0 0 0 1.94845e-05)
(-7.851e-05 0 0 2.35609e-15 0.00015702 0 0 0 -7.851e-05)
(0.00142435 0 0 1.439e-15 -0.00284871 0 0 0 0.00142435)
(0.00625855 0 0 6.77394e-16 -0.0125171 0 0 0 0.00625855)
(1.46192e-05 0 0 -5.41524e-21 -2.92385e-05 0 0 0 1.46192e-05)
(3.92431e-07 0 0 -2.72684e-22 -7.84863e-07 0 0 0 3.92431e-07)
(3.71443e-09 0 0 -7.20363e-24 -7.42886e-09 0 0 0 3.71443e-09)
(2.35649e-20 0 0 -8.41667e-35 -4.71299e-20 0 0 0 2.35649e-20)
(7.70707e-31 0 0 -4.18466e-45 -1.54141e-30 0 0 0 7.70707e-31)
(2.74466e-43 0 0 -4.52822e-55 -5.48933e-43 0 0 0 2.74466e-43)
(2.44554e-53 0 0 -6.51903e-65 -4.89108e-53 0 0 0 2.44554e-53)
(6.03165e-64 0 0 -1.09718e-74 -1.20633e-63 0 0 0 6.03165e-64)
(-2.18488e-74 0 0 -2.27411e-84 4.36976e-74 0 0 0 -2.18488e-74)
(-7.13099e-84 0 0 -5.53685e-94 1.4262e-83 0 0 0 -7.13099e-84)
(2.33369e-94 0 0 -1.6282e-103 -4.66738e-94 0 0 0 2.33369e-94)
(3.38865e-104 0 0 -5.29374e-113 -6.77731e-104 0 0 0 3.38865e-104)
(-3.36657e-115 0 0 -1.90387e-122 6.73314e-115 0 0 0 -3.36657e-115)
(-5.0514e-124 0 0 -6.98123e-132 1.01028e-123 0 0 0 -5.0514e-124)
(4.11548e-135 0 0 -2.73657e-141 -8.23097e-135 0 0 0 4.11548e-135)
(4.85396e-144 0 0 -1.10524e-150 -9.70791e-144 0 0 0 4.85396e-144)
(1.08976e-154 0 0 -4.83992e-160 -2.17951e-154 0 0 0 1.08976e-154)
(-9.85124e-164 0 0 -2.16099e-169 1.97025e-163 0 0 0 -9.85124e-164)
(-5.64597e-174 0 0 -1.01599e-178 1.12919e-173 0 0 0 -5.64597e-174)
(1.28767e-183 0 0 -4.7457e-188 -2.57533e-183 0 0 0 1.28767e-183)
(4.56131e-193 0 0 -2.27969e-197 -9.12262e-193 0 0 0 4.56131e-193)
(5.0252e-203 0 0 -1.06616e-206 -1.00504e-202 0 0 0 5.0252e-203)
(-1.86313e-211 0 0 -5.16393e-216 3.72626e-211 0 0 0 -1.86313e-211)
(-1.95056e-218 0 0 -2.53206e-225 3.90112e-218 0 0 0 -1.95056e-218)
(-1.74308e-227 0 0 -1.33718e-234 3.48616e-227 0 0 0 -1.74308e-227)
(-1.70955e-235 0 0 -7.19405e-244 3.41909e-235 0 0 0 -1.70955e-235)
(-5.03462e-242 0 0 -4.06119e-253 1.00692e-241 0 0 0 -5.03462e-242)
(-6.52556e-251 0 0 -2.25403e-262 1.30511e-250 0 0 0 -6.52556e-251)
(-2.64211e-259 0 0 -1.26264e-271 5.28423e-259 0 0 0 -2.64211e-259)
(-1.34596e-265 0 0 -6.6695e-281 2.69192e-265 0 0 0 -1.34596e-265)
)
;

boundaryField
{
    inlet
    {
        type            cyclic;
    }
    outlet
    {
        type            cyclic;
    }
    top
    {
        type            extrapolatedCalculated;
        value           uniform (-2.68935e-265 0 0 -6.67174e-281 5.3787e-265 0 0 0 -2.68935e-265);
    }
    bottom
    {
        type            extrapolatedCalculated;
        value           uniform (1.37241e-05 0 0 1.85006e-14 -2.74482e-05 0 0 0 1.37241e-05);
    }
    frontAndBackPlanes
    {
        type            empty;
    }
}


// ************************************************************************* //
