/*--------------------------------*- C++ -*----------------------------------*\
| =========                 |                                                 |
| \\      /  F ield         | OpenFOAM: The Open Source CFD Toolbox           |
|  \\    /   O peration     | Version:  v2006                                 |
|   \\  /    A nd           | Website:  www.openfoam.com                      |
|    \\/     M anipulation  |                                                 |
\*---------------------------------------------------------------------------*/
FoamFile
{
    version     2.0;
    format      ascii;
    class       volTensorField;
    location    "1800";
    object      Taub;
}
// * * * * * * * * * * * * * * * * * * * * * * * * * * * * * * * * * * * * * //

dimensions      [1 -1 -2 0 0 0 0];


internalField   nonuniform List<tensor> 
120
(
(-1.18523e-09 0 0 8.81213e-19 2.37047e-09 0 0 0 -1.18523e-09)
(-8.31246e-10 0 0 8.82053e-19 1.66249e-09 0 0 0 -8.31246e-10)
(-8.42993e-10 0 0 8.78695e-19 1.68599e-09 0 0 0 -8.42993e-10)
(-9.53874e-10 0 0 8.76207e-19 1.90775e-09 0 0 0 -9.53874e-10)
(-1.14266e-09 0 0 8.79593e-19 2.28531e-09 0 0 0 -1.14266e-09)
(-1.10121e-09 0 0 8.8384e-19 2.20241e-09 0 0 0 -1.10121e-09)
(-1.0468e-09 0 0 8.78851e-19 2.0936e-09 0 0 0 -1.0468e-09)
(-1.058e-09 0 0 8.74714e-19 2.11599e-09 0 0 0 -1.058e-09)
(-1.06932e-09 0 0 8.91582e-19 2.13863e-09 0 0 0 -1.06932e-09)
(-1.08065e-09 0 0 9.09285e-19 2.16131e-09 0 0 0 -1.08065e-09)
(-1.09209e-09 0 0 9.17698e-19 2.18417e-09 0 0 0 -1.09209e-09)
(-1.10363e-09 0 0 9.37003e-19 2.20725e-09 0 0 0 -1.10363e-09)
(-1.11529e-09 0 0 9.5708e-19 2.23057e-09 0 0 0 -1.11529e-09)
(-1.12708e-09 0 0 9.67798e-19 2.25416e-09 0 0 0 -1.12708e-09)
(-1.13902e-09 0 0 9.79252e-19 2.27804e-09 0 0 0 -1.13902e-09)
(-1.15111e-09 0 0 9.9142e-19 2.30223e-09 0 0 0 -1.15111e-09)
(-1.16337e-09 0 0 1.00428e-18 2.32674e-09 0 0 0 -1.16337e-09)
(-1.17579e-09 0 0 1.01781e-18 2.35159e-09 0 0 0 -1.17579e-09)
(-1.18839e-09 0 0 1.03197e-18 2.37678e-09 0 0 0 -1.18839e-09)
(-1.20116e-09 0 0 1.04675e-18 2.40232e-09 0 0 0 -1.20116e-09)
(-1.21411e-09 0 0 1.0621e-18 2.42822e-09 0 0 0 -1.21411e-09)
(-1.22724e-09 0 0 1.078e-18 2.45448e-09 0 0 0 -1.22724e-09)
(-1.24056e-09 0 0 1.09421e-18 2.48112e-09 0 0 0 -1.24056e-09)
(-1.25408e-09 0 0 1.15168e-18 2.50816e-09 0 0 0 -1.25408e-09)
(-1.2678e-09 0 0 1.20958e-18 2.5356e-09 0 0 0 -1.2678e-09)
(-1.28173e-09 0 0 1.22721e-18 2.56346e-09 0 0 0 -1.28173e-09)
(-1.29588e-09 0 0 1.22494e-18 2.59175e-09 0 0 0 -1.29588e-09)
(-1.31024e-09 0 0 1.22297e-18 2.62049e-09 0 0 0 -1.31024e-09)
(-1.32483e-09 0 0 1.242e-18 2.64967e-09 0 0 0 -1.32483e-09)
(-1.33965e-09 0 0 1.22046e-18 2.6793e-09 0 0 0 -1.33965e-09)
(-1.35469e-09 0 0 1.15808e-18 2.70938e-09 0 0 0 -1.35469e-09)
(-1.36995e-09 0 0 1.13675e-18 2.7399e-09 0 0 0 -1.36995e-09)
(-1.38542e-09 0 0 1.15615e-18 2.77085e-09 0 0 0 -1.38542e-09)
(-1.40109e-09 0 0 1.1752e-18 2.80219e-09 0 0 0 -1.40109e-09)
(-1.41695e-09 0 0 1.19372e-18 2.8339e-09 0 0 0 -1.41695e-09)
(-1.43296e-09 -1.36669e-23 0 1.25281e-18 2.86592e-09 0 0 0 -1.43296e-09)
(-1.44911e-09 0 0 1.35334e-18 2.89822e-09 0 0 0 -1.44911e-09)
(-1.46537e-09 0 0 1.37071e-18 2.93073e-09 0 0 0 -1.46537e-09)
(-1.4817e-09 0 0 1.38924e-18 2.96339e-09 0 0 0 -1.4817e-09)
(-1.49807e-09 0 0 1.3659e-18 2.99614e-09 0 0 0 -1.49807e-09)
(-1.51445e-09 0 0 1.34225e-18 3.02891e-09 0 0 0 -1.51445e-09)
(-1.53083e-09 0 0 1.35974e-18 3.06166e-09 0 0 0 -1.53083e-09)
(-1.54718e-09 0 0 1.33425e-18 3.09435e-09 0 0 0 -1.54718e-09)
(-1.56349e-09 0 0 1.34935e-18 3.12698e-09 0 0 0 -1.56349e-09)
(-1.57978e-09 0 0 1.40587e-18 3.15955e-09 0 0 0 -1.57978e-09)
(-1.59607e-09 0 0 1.37853e-18 3.19213e-09 0 0 0 -1.59607e-09)
(-1.6124e-09 0 0 1.30951e-18 3.2248e-09 0 0 0 -1.6124e-09)
(-1.62883e-09 0 0 1.28012e-18 3.25766e-09 0 0 0 -1.62883e-09)
(-1.64544e-09 0 0 1.33165e-18 3.29088e-09 0 0 0 -1.64544e-09)
(-1.66231e-09 0 0 1.42361e-18 3.32463e-09 0 0 0 -1.66231e-09)
(-1.67954e-09 0 0 1.43046e-18 3.35908e-09 0 0 0 -1.67954e-09)
(-1.69722e-09 0 0 1.43749e-18 3.39444e-09 0 0 0 -1.69722e-09)
(-1.71543e-09 0 0 1.44321e-18 3.43086e-09 0 0 0 -1.71543e-09)
(-1.73425e-09 0 0 1.4467e-18 3.46851e-09 0 0 0 -1.73425e-09)
(-1.75374e-09 0 0 1.4906e-18 3.50749e-09 0 0 0 -1.75374e-09)
(-1.77394e-09 0 0 1.53302e-18 3.54788e-09 0 0 0 -1.77394e-09)
(-1.79488e-09 0 0 1.53208e-18 3.58976e-09 0 0 0 -1.79488e-09)
(-1.81661e-09 0 0 1.53235e-18 3.63321e-09 0 0 0 -1.81661e-09)
(-1.83919e-09 2.72722e-23 0 1.44703e-18 3.67838e-09 0 0 0 -1.83919e-09)
(-1.86277e-09 0 0 1.36006e-18 3.72555e-09 0 0 0 -1.86277e-09)
(-1.8876e-09 0 0 1.3554e-18 3.77521e-09 0 0 0 -1.8876e-09)
(-1.91407e-09 0 0 1.34713e-18 3.82814e-09 0 0 0 -1.91407e-09)
(-1.94274e-09 0 0 1.33713e-18 3.88549e-09 0 0 0 -1.94274e-09)
(-1.97439e-09 0 0 1.32763e-18 3.94877e-09 0 0 0 -1.97439e-09)
(-2.00993e-09 0 0 1.2296e-18 4.01987e-09 0 0 0 -2.00993e-09)
(-2.05045e-09 0 0 1.21439e-18 4.10089e-09 0 0 0 -2.05045e-09)
(-2.09696e-09 0 0 1.28187e-18 4.19392e-09 0 0 0 -2.09696e-09)
(-2.15032e-09 0 0 1.2608e-18 4.30064e-09 0 0 0 -2.15032e-09)
(-2.21091e-09 0 0 1.2403e-18 4.42182e-09 0 0 0 -2.21091e-09)
(-2.27837e-09 0 0 1.22072e-18 4.55674e-09 0 0 0 -2.27837e-09)
(-2.3513e-09 0 0 1.11447e-18 4.7026e-09 0 0 0 -2.3513e-09)
(-2.42711e-09 0 0 1.00659e-18 4.85422e-09 0 0 0 -2.42711e-09)
(-2.50208e-09 0 0 9.82086e-19 5.00417e-09 0 0 0 -2.50208e-09)
(-2.57189e-09 0 0 9.5339e-19 5.14378e-09 0 0 0 -2.57189e-09)
(-2.63277e-09 0 0 9.23162e-19 5.26554e-09 0 0 0 -2.63277e-09)
(-2.68353e-09 0 0 8.91468e-19 5.36707e-09 0 0 0 -2.68353e-09)
(-2.72843e-09 0 0 8.58372e-19 5.45686e-09 0 0 0 -2.72843e-09)
(-2.78064e-09 0 0 8.2394e-19 5.56129e-09 0 0 0 -2.78064e-09)
(-2.86546e-09 0 0 7.88246e-19 5.73093e-09 0 0 0 -2.86546e-09)
(-3.02073e-09 0 0 7.51366e-19 6.04146e-09 0 0 0 -3.02073e-09)
(-3.29373e-09 0 0 7.13382e-19 6.58746e-09 0 0 0 -3.29373e-09)
(-3.74302e-09 0 0 6.7438e-19 7.48605e-09 0 0 0 -3.74302e-09)
(-4.43238e-09 0 0 6.3445e-19 8.86475e-09 0 0 0 -4.43238e-09)
(-5.27203e-09 0 0 5.93719e-19 1.05441e-08 0 0 0 -5.27203e-09)
(-5.77922e-09 0 0 5.60452e-19 1.15584e-08 0 0 0 -5.77922e-09)
(-6.59646e-09 0 0 3.52995e-19 1.31929e-08 0 0 0 -6.59646e-09)
(-1.32553e-08 0 0 1.45256e-19 2.65105e-08 0 0 0 -1.32553e-08)
(-1.08681e-08 0 0 1.10619e-19 2.17362e-08 0 0 0 -1.08681e-08)
(2.47306e-07 0 0 6.74588e-20 -4.94612e-07 0 0 0 2.47306e-07)
(-6.50153e-06 0 0 1.93474e-20 1.30031e-05 0 0 0 -6.50153e-06)
(-0.000103946 0 0 -5.26619e-19 0.000207892 0 0 0 -0.000103946)
(-3.14241e-05 0 0 -8.42198e-19 6.28483e-05 0 0 0 -3.14241e-05)
(5.55212e-05 0 0 -1.13631e-18 -0.000111042 0 0 0 5.55212e-05)
(3.64884e-05 0 0 -1.15384e-18 -7.29769e-05 0 0 0 3.64884e-05)
(-3.09461e-06 0 0 -1.16793e-18 6.18923e-06 0 0 0 -3.09461e-06)
(-2.89521e-06 0 0 -1.18236e-18 5.79043e-06 0 0 0 -2.89521e-06)
(4.54232e-07 0 0 -1.19763e-18 -9.08465e-07 0 0 0 4.54232e-07)
(4.81427e-08 0 0 -1.21365e-18 -9.62854e-08 0 0 0 4.81427e-08)
(-9.89471e-09 0 0 -1.23034e-18 1.97894e-08 0 0 0 -9.89471e-09)
(-1.57504e-08 0 0 -1.24758e-18 3.15009e-08 0 0 0 -1.57504e-08)
(1.82472e-09 0 0 -1.26526e-18 -3.64945e-09 0 0 0 1.82472e-09)
(7.91141e-10 0 0 -1.28325e-18 -1.58228e-09 0 0 0 7.91141e-10)
(-1.68246e-11 0 0 -1.30143e-18 3.36492e-11 0 0 0 -1.68246e-11)
(-9.30632e-11 0 0 -1.31966e-18 1.86126e-10 0 0 0 -9.30632e-11)
(2.05971e-12 0 0 -1.33778e-18 -4.11942e-12 0 0 0 2.05971e-12)
(5.74819e-12 0 0 -1.35567e-18 -1.14964e-11 0 0 0 5.74819e-12)
(3.27528e-13 0 0 -1.37318e-18 -6.55056e-13 0 0 0 3.27528e-13)
(-6.11183e-13 0 0 -1.39016e-18 1.22237e-12 0 0 0 -6.11183e-13)
(-7.34916e-14 0 0 -1.40647e-18 1.46983e-13 0 0 0 -7.34916e-14)
(3.74653e-14 0 0 -1.42197e-18 -7.49306e-14 0 0 0 3.74653e-14)
(2.78236e-14 0 0 -1.43654e-18 -5.56472e-14 0 0 0 2.78236e-14)
(7.20264e-15 0 0 -1.45004e-18 -1.44053e-14 0 0 0 7.20264e-15)
(-1.90062e-14 0 0 -1.46236e-18 3.80123e-14 0 0 0 -1.90062e-14)
(-3.11195e-14 0 0 -1.47339e-18 6.2239e-14 0 0 0 -3.11195e-14)
(-1.2998e-14 0 0 -1.48304e-18 2.5996e-14 0 0 0 -1.2998e-14)
(1.73441e-14 0 0 -1.49121e-18 -3.46881e-14 0 0 0 1.73441e-14)
(6.27198e-14 0 0 -1.49784e-18 -1.2544e-13 0 0 0 6.27198e-14)
(4.35878e-14 0 0 -1.50286e-18 -8.71757e-14 0 0 0 4.35878e-14)
(2.75299e-13 0 0 -1.50624e-18 -5.50598e-13 0 0 0 2.75299e-13)
(2.06442e-12 0 0 -1.50806e-18 -4.12883e-12 0 0 0 2.06442e-12)
)
;

boundaryField
{
    inlet
    {
        type            cyclic;
    }
    outlet
    {
        type            cyclic;
    }
    top
    {
        type            extrapolatedCalculated;
        value           uniform (3.57101e-12 0 0 -1.50861e-18 -7.14203e-12 0 0 0 3.57101e-12);
    }
    bottom
    {
        type            extrapolatedCalculated;
        value           uniform (-1.61039e-09 0 0 8.80946e-19 3.22078e-09 0 0 0 -1.61039e-09);
    }
    frontAndBackPlanes
    {
        type            empty;
    }
}


// ************************************************************************* //
