/*--------------------------------*- C++ -*----------------------------------*\
| =========                 |                                                 |
| \\      /  F ield         | OpenFOAM: The Open Source CFD Toolbox           |
|  \\    /   O peration     | Version:  v2006                                 |
|   \\  /    A nd           | Website:  www.openfoam.com                      |
|    \\/     M anipulation  |                                                 |
\*---------------------------------------------------------------------------*/
FoamFile
{
    version     2.0;
    format      ascii;
    class       volVectorField;
    location    "1800";
    object      Ua;
}
// * * * * * * * * * * * * * * * * * * * * * * * * * * * * * * * * * * * * * //

dimensions      [0 1 -1 0 0 0 0];


internalField   nonuniform List<vector> 
120
(
(4.40489e-21 -9.80294e-12 0)
(1.322e-20 -2.95159e-11 0)
(2.2048e-20 -4.94866e-11 0)
(3.07962e-20 -6.96766e-11 0)
(3.95747e-20 -9.00837e-11 0)
(4.8392e-20 -1.10723e-10 0)
(5.72567e-20 -1.31596e-10 0)
(6.59747e-20 -1.52701e-10 0)
(7.47569e-20 -1.74041e-10 0)
(8.38139e-20 -1.95618e-10 0)
(9.29515e-20 -2.17433e-10 0)
(1.02178e-19 -2.3949e-10 0)
(1.11702e-19 -2.61791e-10 0)
(1.21331e-19 -2.84338e-10 0)
(1.31072e-19 -3.07136e-10 0)
(1.40931e-19 -3.30188e-10 0)
(1.50916e-19 -3.53497e-10 0)
(1.61033e-19 -3.77066e-10 0)
(1.7129e-19 -4.00901e-10 0)
(1.81693e-19 -4.25005e-10 0)
(1.92247e-19 -4.49382e-10 0)
(2.02958e-19 -4.74036e-10 0)
(2.13831e-19 -4.98972e-10 0)
(2.24872e-19 -5.24194e-10 0)
(2.36894e-19 -5.49706e-10 0)
(2.49092e-19 -5.75514e-10 0)
(2.6147e-19 -6.01622e-10 0)
(2.73626e-19 -6.28035e-10 0)
(2.85969e-19 -6.5476e-10 0)
(2.985e-19 -6.818e-10 0)
(3.10412e-19 -7.09162e-10 0)
(3.21707e-19 -7.36851e-10 0)
(3.33195e-19 -7.64871e-10 0)
(3.44874e-19 -7.93229e-10 0)
(3.56744e-19 -8.2193e-10 0)
(3.68805e-19 -8.50976e-10 0)
(3.81862e-19 -8.80374e-10 0)
(3.95912e-19 -9.10126e-10 0)
(4.09338e-19 -9.40235e-10 0)
(4.2375e-19 -9.70704e-10 0)
(4.36723e-19 -1.00153e-09 0)
(4.50672e-19 -1.03273e-09 0)
(4.63977e-19 -1.06428e-09 0)
(4.77439e-19 -1.09621e-09 0)
(4.9105e-19 -1.12849e-09 0)
(5.0561e-19 -1.16115e-09 0)
(5.18689e-19 -1.19417e-09 0)
(5.31892e-19 -1.22756e-09 0)
(5.44401e-19 -1.26133e-09 0)
(5.58624e-19 -1.29548e-09 0)
(5.72939e-19 -1.33002e-09 0)
(5.87331e-19 -1.36497e-09 0)
(6.0179e-19 -1.40032e-09 0)
(6.16301e-19 -1.43611e-09 0)
(6.3085e-19 -1.47234e-09 0)
(6.46228e-19 -1.50903e-09 0)
(6.61615e-19 -1.54621e-09 0)
(6.76995e-19 -1.58388e-09 0)
(6.92353e-19 -1.62208e-09 0)
(7.06062e-19 -1.66081e-09 0)
(7.19715e-19 -1.70012e-09 0)
(7.33295e-19 -1.74002e-09 0)
(7.46786e-19 -1.78057e-09 0)
(7.60169e-19 -1.82183e-09 0)
(7.73428e-19 -1.86385e-09 0)
(7.84936e-19 -1.90675e-09 0)
(7.97892e-19 -1.95065e-09 0)
(8.1067e-19 -1.99569e-09 0)
(8.23252e-19 -2.04204e-09 0)
(8.35622e-19 -2.08986e-09 0)
(8.47763e-19 -2.13932e-09 0)
(8.58052e-19 -2.19055e-09 0)
(8.68079e-19 -2.24359e-09 0)
(8.77827e-19 -2.29843e-09 0)
(8.8728e-19 -2.35492e-09 0)
(8.96424e-19 -2.41288e-09 0)
(9.05243e-19 -2.47206e-09 0)
(9.13725e-19 -2.5324e-09 0)
(9.21856e-19 -2.59415e-09 0)
(9.29623e-19 -2.65825e-09 0)
(9.37015e-19 -2.72667e-09 0)
(9.44021e-19 -2.8027e-09 0)
(9.50632e-19 -2.89039e-09 0)
(9.56838e-19 -2.9934e-09 0)
(9.62631e-19 -3.12122e-09 0)
(9.68005e-19 -3.30094e-09 0)
(9.69775e-19 -3.48373e-09 0)
(9.71114e-19 -3.35661e-09 0)
(9.72019e-19 -3.25942e-09 0)
(9.72485e-19 -7.42619e-09 0)
(9.72664e-19 -2.1141e-08 0)
(9.59113e-19 -0.000108306 0)
(9.30996e-19 -0.000179921 0)
(9.02296e-19 -0.000196197 0)
(8.73241e-19 -0.000228431 0)
(8.43866e-19 -0.00022848 0)
(8.14114e-19 -0.000228538 0)
(7.83977e-19 -0.000228548 0)
(7.53424e-19 -0.000228548 0)
(7.22451e-19 -0.000228546 0)
(6.91039e-19 -0.000228546 0)
(6.59182e-19 -0.000228546 0)
(6.26867e-19 -0.000228546 0)
(5.941e-19 -0.000228546 0)
(5.60878e-19 -0.000228546 0)
(5.27202e-19 -0.000228546 0)
(4.93086e-19 -0.000228546 0)
(4.58534e-19 -0.000228546 0)
(4.23569e-19 -0.000228546 0)
(3.88203e-19 -0.000228546 0)
(3.52461e-19 -0.000228546 0)
(3.16367e-19 -0.000228546 0)
(2.79952e-19 -0.000228546 0)
(2.4324e-19 -0.000228546 0)
(2.06271e-19 -0.000228546 0)
(1.69078e-19 -0.000228546 0)
(1.31701e-19 -0.000228546 0)
(9.41771e-20 -0.000228518 0)
(5.65482e-20 -0.000228481 0)
(1.88578e-20 -0.000228045 0)
)
;

boundaryField
{
    inlet
    {
        type            cyclic;
    }
    outlet
    {
        type            cyclic;
    }
    top
    {
        type            fixedValue;
        value           uniform (0 0 0);
    }
    bottom
    {
        type            fixedValue;
        value           uniform (0 0 0);
    }
    frontAndBackPlanes
    {
        type            empty;
    }
}


// ************************************************************************* //
