/*--------------------------------*- C++ -*----------------------------------*\
| =========                 |                                                 |
| \\      /  F ield         | OpenFOAM: The Open Source CFD Toolbox           |
|  \\    /   O peration     | Version:  v2006                                 |
|   \\  /    A nd           | Website:  www.openfoam.com                      |
|    \\/     M anipulation  |                                                 |
\*---------------------------------------------------------------------------*/
FoamFile
{
    version     2.0;
    format      ascii;
    class       volVectorField;
    location    "1800";
    object      Ub;
}
// * * * * * * * * * * * * * * * * * * * * * * * * * * * * * * * * * * * * * //

dimensions      [0 1 -1 0 0 0 0];


internalField   nonuniform List<vector> 
120
(
(4.40489e-21 2.41568e-11 0)
(1.322e-20 4.69599e-11 0)
(2.20474e-20 7.40356e-11 0)
(3.07962e-20 9.75461e-11 0)
(3.95747e-20 1.31278e-10 0)
(4.8392e-20 1.66121e-10 0)
(5.72563e-20 1.97369e-10 0)
(6.59747e-20 2.28949e-10 0)
(7.47571e-20 2.60872e-10 0)
(8.38139e-20 2.93136e-10 0)
(9.29515e-20 3.25742e-10 0)
(1.02178e-19 3.58695e-10 0)
(1.11702e-19 3.91998e-10 0)
(1.21331e-19 4.25655e-10 0)
(1.31072e-19 4.59669e-10 0)
(1.40931e-19 4.94046e-10 0)
(1.50916e-19 5.28791e-10 0)
(1.61033e-19 5.63908e-10 0)
(1.7129e-19 5.99403e-10 0)
(1.81693e-19 6.3528e-10 0)
(1.92247e-19 6.71546e-10 0)
(2.02958e-19 7.08206e-10 0)
(2.13831e-19 7.45265e-10 0)
(2.24868e-19 7.82729e-10 0)
(2.36894e-19 8.20605e-10 0)
(2.49092e-19 8.58898e-10 0)
(2.61472e-19 8.97616e-10 0)
(2.73626e-19 9.36764e-10 0)
(2.85969e-19 9.7635e-10 0)
(2.98506e-19 1.01638e-09 0)
(3.10419e-19 1.05686e-09 0)
(3.21707e-19 1.0978e-09 0)
(3.33195e-19 1.13921e-09 0)
(3.44874e-19 1.18108e-09 0)
(3.56744e-19 1.22344e-09 0)
(3.68796e-19 1.26627e-09 0)
(3.81853e-19 1.30959e-09 0)
(3.95922e-19 1.35341e-09 0)
(4.09328e-19 1.39771e-09 0)
(4.23771e-19 1.44251e-09 0)
(4.36712e-19 1.48781e-09 0)
(4.50683e-19 1.53361e-09 0)
(4.63977e-19 1.5799e-09 0)
(4.77439e-19 1.62669e-09 0)
(4.91038e-19 1.67397e-09 0)
(5.05636e-19 1.72174e-09 0)
(5.18689e-19 1.77001e-09 0)
(5.31905e-19 1.81878e-09 0)
(5.44372e-19 1.86805e-09 0)
(5.58624e-19 1.91782e-09 0)
(5.72938e-19 1.96812e-09 0)
(5.87331e-19 2.01894e-09 0)
(6.0179e-19 2.07031e-09 0)
(6.163e-19 2.12224e-09 0)
(6.30832e-19 2.17475e-09 0)
(6.46228e-19 2.22787e-09 0)
(6.61615e-19 2.28161e-09 0)
(6.76995e-19 2.33601e-09 0)
(6.92391e-19 2.39107e-09 0)
(7.06062e-19 2.44684e-09 0)
(7.19715e-19 2.50334e-09 0)
(7.33295e-19 2.56062e-09 0)
(7.46786e-19 2.61873e-09 0)
(7.60169e-19 2.67776e-09 0)
(7.73473e-19 2.73779e-09 0)
(7.8489e-19 2.79898e-09 0)
(7.97892e-19 2.86148e-09 0)
(8.1067e-19 2.9255e-09 0)
(8.23252e-19 2.99124e-09 0)
(8.35623e-19 3.05894e-09 0)
(8.47816e-19 3.12878e-09 0)
(8.58053e-19 3.20091e-09 0)
(8.68079e-19 3.27536e-09 0)
(8.77827e-19 3.35205e-09 0)
(8.8728e-19 3.43075e-09 0)
(8.96424e-19 3.51116e-09 0)
(9.05243e-19 3.59297e-09 0)
(9.13725e-19 3.67614e-09 0)
(9.21856e-19 3.76116e-09 0)
(9.29623e-19 3.84951e-09 0)
(9.37015e-19 3.94399e-09 0)
(9.44021e-19 4.04895e-09 0)
(9.50632e-19 4.17073e-09 0)
(9.56838e-19 4.31756e-09 0)
(9.62632e-19 4.4904e-09 0)
(9.68172e-19 4.6682e-09 0)
(9.69776e-19 4.8909e-09 0)
(9.71114e-19 5.47368e-09 0)
(9.72019e-19 5.55204e-09 0)
(9.72484e-19 -9.59346e-09 0)
(9.72413e-19 4.02696e-07 0)
(9.59077e-19 7.92939e-06 0)
(9.30944e-19 5.04458e-06 0)
(9.02272e-19 -3.97319e-07 0)
(8.73245e-19 -4.29371e-07 0)
(8.43868e-19 6.69307e-08 0)
(8.14119e-19 4.96513e-09 0)
(7.83979e-19 -1.21264e-09 0)
(7.53429e-19 -2.25718e-09 0)
(7.22455e-19 2.7175e-10 0)
(6.91043e-19 1.05682e-10 0)
(6.59184e-19 -1.99289e-12 0)
(6.26872e-19 -1.30036e-11 0)
(5.94104e-19 5.31117e-13 0)
(5.60881e-19 9.57592e-13 0)
(5.27206e-19 2.22122e-13 0)
(4.93089e-19 9.52559e-14 0)
(4.58539e-19 1.72987e-13 0)
(4.23572e-19 1.86945e-13 0)
(3.88207e-19 1.84012e-13 0)
(3.52465e-19 1.81324e-13 0)
(3.16371e-19 1.79838e-13 0)
(2.79954e-19 1.80244e-13 0)
(2.43244e-19 1.82689e-13 0)
(2.06275e-19 1.84912e-13 0)
(1.69083e-19 1.84639e-13 0)
(1.31705e-19 1.8231e-13 0)
(9.41813e-20 1.7523e-13 0)
(5.65524e-20 1.75771e-13 0)
(1.88599e-20 1.3393e-13 0)
)
;

boundaryField
{
    inlet
    {
        type            cyclic;
    }
    outlet
    {
        type            cyclic;
    }
    top
    {
        type            fixedValue;
        value           uniform (0 0 0);
    }
    bottom
    {
        type            fixedValue;
        value           uniform (0 0 0);
    }
    frontAndBackPlanes
    {
        type            empty;
    }
}


// ************************************************************************* //
