/*--------------------------------*- C++ -*----------------------------------*\
| =========                 |                                                 |
| \\      /  F ield         | OpenFOAM: The Open Source CFD Toolbox           |
|  \\    /   O peration     | Version:  2206                                  |
|   \\  /    A nd           | Website:  www.openfoam.com                      |
|    \\/     M anipulation  |                                                 |
\*---------------------------------------------------------------------------*/
FoamFile
{
    version     2.0;
    format      ascii;
    arch        "LSB;label=32;scalar=64";
    class       volScalarField;
    location    "1160";
    object      nuFra;
}
// * * * * * * * * * * * * * * * * * * * * * * * * * * * * * * * * * * * * * //

dimensions      [0 2 -1 0 0 0 0];

internalField   nonuniform List<scalar> 
120
(
1
1
1
1
1
1
1
1
1
1
1
1
1
1
1
1
1
1
1
1
1
1
1
1
1
1
1
1
1
1
1
1
1
1
1
1
1
1
1
1
1
1
1
1
1
1
1
1
1
1
1
1
1
1
1
1
1
1
1
1
1
1
1
1
1
1
1
1
1
1
1
1
1
1
1
0.321573
0.198029
0.660001
1.68919e-08
8.61707e-08
2.5025e-08
8.93943e-08
2.15821e-07
5.72253e-07
1.22673e-06
3.40039e-06
2.46915e-06
3.4471e-07
8.22906e-07
1.6055e-08
1.336e-08
6.75034e-10
1.01486e-09
8.02541e-10
5.3205e-09
1.27038e-09
4.16687e-09
4.18509e-08
2.27687e-08
3.95417e-08
9.63866e-08
1.60423e-07
1.96937e-07
1.99068e-07
2.14539e-07
2.82103e-07
4.82468e-07
1.11185e-06
3.48109e-06
1.41529e-05
6.17239e-05
0.000185333
0.000289334
0.000296343
0.000208613
7.62013e-05
1.35466e-05
1.31897e-06
6.06124e-08
4.76578e-10
)
;

boundaryField
{
    inlet
    {
        type            cyclic;
    }
    outlet
    {
        type            cyclic;
    }
    top
    {
        type            calculated;
        value           uniform 2.40098e-10;
    }
    bottom
    {
        type            calculated;
        value           uniform 1;
    }
    frontAndBackPlanes
    {
        type            empty;
    }
}


// ************************************************************************* //
