/*--------------------------------*- C++ -*----------------------------------*\
| =========                 |                                                 |
| \\      /  F ield         | OpenFOAM: The Open Source CFD Toolbox           |
|  \\    /   O peration     | Version:  2206                                  |
|   \\  /    A nd           | Website:  www.openfoam.com                      |
|    \\/     M anipulation  |                                                 |
\*---------------------------------------------------------------------------*/
FoamFile
{
    version     2.0;
    format      ascii;
    arch        "LSB;label=32;scalar=64";
    class       volScalarField;
    location    "1160";
    object      pff;
}
// * * * * * * * * * * * * * * * * * * * * * * * * * * * * * * * * * * * * * //

dimensions      [1 -1 -2 0 0 0 0];

internalField   nonuniform List<scalar> 
120
(
20.6236
20.0903
20.093
19.5158
19.5021
18.9381
18.9124
18.3628
18.324
17.7899
17.7371
17.2194
17.1518
16.6511
16.5683
16.0851
15.9866
15.5213
15.407
14.9597
14.8297
14.4003
14.2547
13.8429
13.6824
13.2877
13.1129
12.7345
12.5463
12.1834
11.9828
11.6345
11.4225
11.0877
10.8657
10.5431
10.3123
10.0008
9.76267
9.46094
9.21677
8.92365
8.67474
8.38912
8.13673
7.85758
7.60286
7.32926
7.07326
6.80443
6.54804
6.28333
6.02729
5.76617
5.51109
5.2532
4.99955
4.74464
4.49286
4.24086
3.99134
3.74236
3.49549
3.24972
3.00582
2.76335
2.52245
2.28293
2.04425
1.80625
1.56807
1.32469
1.07401
0.833587
0.612778
0.398326
0.271061
0.230514
0
0
0
0
0
0
0
0
0
0
0
0
0
0
0
0
0
0
0
0
0
0
0
0
0
0
0
0
0
0
0
0
0
0
0
0
0
0
0
0
0
0
)
;

boundaryField
{
    inlet
    {
        type            cyclic;
    }
    outlet
    {
        type            cyclic;
    }
    top
    {
        type            calculated;
        value           uniform 0;
    }
    bottom
    {
        type            calculated;
        value           uniform 20.6236;
    }
    frontAndBackPlanes
    {
        type            empty;
    }
}


// ************************************************************************* //
