/*--------------------------------*- C++ -*----------------------------------*\
| =========                 |                                                 |
| \\      /  F ield         | OpenFOAM: The Open Source CFD Toolbox           |
|  \\    /   O peration     | Version:  2206                                  |
|   \\  /    A nd           | Website:  www.openfoam.com                      |
|    \\/     M anipulation  |                                                 |
\*---------------------------------------------------------------------------*/
FoamFile
{
    version     2.0;
    format      ascii;
    arch        "LSB;label=32;scalar=64";
    class       surfaceScalarField;
    location    "1160";
    object      phi.b;
}
// * * * * * * * * * * * * * * * * * * * * * * * * * * * * * * * * * * * * * //

dimensions      [0 3 -1 0 0 0 0];

oriented        oriented;

internalField   nonuniform List<scalar> 
119
(
1.54763e-15
3.13514e-15
4.72397e-15
6.3562e-15
7.99301e-15
9.67243e-15
1.13599e-14
1.30892e-14
1.48303e-14
1.66122e-14
1.84101e-14
2.02474e-14
2.21054e-14
2.40014e-14
2.59229e-14
2.7881e-14
2.98699e-14
3.18942e-14
3.39547e-14
3.60497e-14
3.81869e-14
4.03579e-14
4.25768e-14
4.48291e-14
4.71358e-14
4.94764e-14
5.18772e-14
5.43128e-14
5.68148e-14
5.9353e-14
6.19636e-14
6.46127e-14
6.734e-14
7.0109e-14
7.29623e-14
7.58617e-14
7.88511e-14
8.18929e-14
8.50314e-14
8.82302e-14
9.15337e-14
9.49077e-14
9.83957e-14
1.01967e-13
1.05662e-13
1.09456e-13
1.13385e-13
1.1743e-13
1.21623e-13
1.25948e-13
1.30435e-13
1.35074e-13
1.3989e-13
1.44879e-13
1.50067e-13
1.55458e-13
1.61082e-13
1.66958e-13
1.73124e-13
1.79616e-13
1.8649e-13
1.93799e-13
2.01615e-13
2.10007e-13
2.19051e-13
2.28818e-13
2.39375e-13
2.50786e-13
2.63131e-13
2.76494e-13
2.91195e-13
3.08157e-13
3.28056e-13
3.49379e-13
3.78518e-13
4.49009e-13
5.15984e-13
5.36241e-13
1.62671e-12
2.05591e-12
2.19774e-12
2.26512e-12
2.29539e-12
2.30972e-12
2.31671e-12
2.32014e-12
2.32166e-12
2.32177e-12
2.32382e-12
2.33424e-12
2.38297e-12
1.97521e-12
9.79571e-12
1.76358e-12
2.74293e-15
8.45214e-17
5.40107e-18
-3.04303e-19
3.03221e-19
1.22414e-19
-7.48399e-20
4.84818e-19
-1.16124e-19
-2.49333e-19
1.06452e-19
-4.85461e-20
-3.62967e-19
1.70793e-19
-9.41038e-20
-4.49459e-20
6.36727e-19
-3.54631e-19
2.9303e-19
-4.0755e-19
2.19632e-19
-2.72205e-19
-7.1232e-20
-2.22691e-21
3.1715e-19
)
;

boundaryField
{
    inlet
    {
        type            cyclic;
        value           nonuniform List<scalar> 
120
(
-2.18189e-27
-6.54992e-27
-1.09317e-26
-1.53222e-26
-1.97397e-26
-2.41873e-26
-2.86924e-26
-3.31987e-26
-3.77489e-26
-4.24131e-26
-4.71145e-26
-5.18501e-26
-5.67436e-26
-6.16866e-26
-6.67252e-26
-7.18677e-26
-7.71224e-26
-8.2498e-26
-8.80033e-26
-9.36474e-26
-9.94396e-26
-1.0539e-25
-1.11506e-25
-1.17454e-25
-1.24296e-25
-1.30991e-25
-1.38097e-25
-1.45017e-25
-1.52374e-25
-1.60442e-25
-1.68312e-25
-1.75937e-25
-1.8433e-25
-1.93022e-25
-2.02025e-25
-2.10786e-25
-2.20217e-25
-2.3133e-25
-2.40242e-25
-2.52897e-25
-2.61782e-25
-2.74652e-25
-2.85739e-25
-2.98006e-25
-3.09919e-25
-3.25697e-25
-3.37656e-25
-3.52728e-25
-3.64544e-25
-3.81665e-25
-3.97411e-25
-4.13677e-25
-4.30477e-25
-4.47808e-25
-4.645e-25
-4.84121e-25
-5.031e-25
-5.22616e-25
-5.45381e-25
-5.63226e-25
-5.84293e-25
-6.05878e-25
-6.2797e-25
-6.50595e-25
-6.7717e-25
-6.93737e-25
-7.21612e-25
-7.465e-25
-7.71891e-25
-7.97652e-25
-8.27981e-25
-8.48445e-25
-8.71967e-25
-8.92754e-25
-9.10028e-25
-9.39404e-25
-1.0851e-24
-1.25458e-24
-1.45787e-24
-1.81502e-23
-2.06393e-23
-2.24756e-23
-2.46768e-23
-2.76003e-23
-3.17969e-23
-3.82715e-23
-3.13706e-23
-2.64645e-23
-2.25878e-23
-1.95416e-23
-1.70898e-23
-1.52095e-23
-1.3954e-23
-1.37423e-23
-1.31572e-23
-1.25437e-23
-1.1939e-23
-1.13432e-23
-1.07565e-23
-1.01793e-23
-9.61142e-24
-9.05304e-24
-8.50404e-24
-7.96425e-24
-7.43341e-24
-6.91119e-24
-6.3972e-24
-5.891e-24
-5.39211e-24
-4.90002e-24
-4.4142e-24
-3.93408e-24
-3.45909e-24
-2.98864e-24
-2.52213e-24
-2.05898e-24
-1.59857e-24
-1.1403e-24
-6.83549e-25
-2.27718e-25
)
;
    }
    outlet
    {
        type            cyclic;
        value           nonuniform List<scalar> 
120
(
2.18189e-27
6.54992e-27
1.09317e-26
1.53222e-26
1.97397e-26
2.41873e-26
2.86924e-26
3.31987e-26
3.77489e-26
4.24131e-26
4.71145e-26
5.18501e-26
5.67436e-26
6.16866e-26
6.67252e-26
7.18677e-26
7.71224e-26
8.2498e-26
8.80033e-26
9.36474e-26
9.94396e-26
1.0539e-25
1.11506e-25
1.17454e-25
1.24296e-25
1.30991e-25
1.38097e-25
1.45017e-25
1.52374e-25
1.60442e-25
1.68312e-25
1.75937e-25
1.8433e-25
1.93022e-25
2.02025e-25
2.10786e-25
2.20217e-25
2.3133e-25
2.40242e-25
2.52897e-25
2.61782e-25
2.74652e-25
2.85739e-25
2.98006e-25
3.09919e-25
3.25697e-25
3.37656e-25
3.52728e-25
3.64544e-25
3.81665e-25
3.97411e-25
4.13677e-25
4.30477e-25
4.47808e-25
4.645e-25
4.84121e-25
5.031e-25
5.22616e-25
5.45381e-25
5.63226e-25
5.84293e-25
6.05878e-25
6.2797e-25
6.50595e-25
6.7717e-25
6.93737e-25
7.21612e-25
7.465e-25
7.71891e-25
7.97652e-25
8.27981e-25
8.48445e-25
8.71967e-25
8.92754e-25
9.10028e-25
9.39404e-25
1.0851e-24
1.25458e-24
1.45787e-24
1.81502e-23
2.06393e-23
2.24756e-23
2.46768e-23
2.76003e-23
3.17969e-23
3.82715e-23
3.13706e-23
2.64645e-23
2.25878e-23
1.95416e-23
1.70898e-23
1.52095e-23
1.3954e-23
1.37423e-23
1.31572e-23
1.25437e-23
1.1939e-23
1.13432e-23
1.07565e-23
1.01793e-23
9.61142e-24
9.05304e-24
8.50404e-24
7.96425e-24
7.43341e-24
6.91119e-24
6.3972e-24
5.891e-24
5.39211e-24
4.90002e-24
4.4142e-24
3.93408e-24
3.45909e-24
2.98864e-24
2.52213e-24
2.05898e-24
1.59857e-24
1.1403e-24
6.83549e-25
2.27718e-25
)
;
    }
    top
    {
        type            fixedValue;
        value           uniform 0;
    }
    bottom
    {
        type            fixedValue;
        value           uniform 0;
    }
    frontAndBackPlanes
    {
        type            empty;
        value           nonuniform List<scalar> 0();
    }
}


// ************************************************************************* //
