/*--------------------------------*- C++ -*----------------------------------*\
| =========                 |                                                 |
| \\      /  F ield         | OpenFOAM: The Open Source CFD Toolbox           |
|  \\    /   O peration     | Version:  2206                                  |
|   \\  /    A nd           | Website:  www.openfoam.com                      |
|    \\/     M anipulation  |                                                 |
\*---------------------------------------------------------------------------*/
FoamFile
{
    version     2.0;
    format      ascii;
    arch        "LSB;label=32;scalar=64";
    class       surfaceScalarField;
    location    "1160";
    object      phi.a;
}
// * * * * * * * * * * * * * * * * * * * * * * * * * * * * * * * * * * * * * //

dimensions      [0 3 -1 0 0 0 0];

oriented        oriented;

internalField   nonuniform List<scalar> 
119
(
-1.03601e-15
-2.09909e-15
-3.16351e-15
-4.25754e-15
-5.35526e-15
-6.48221e-15
-7.61516e-15
-8.7768e-15
-9.94705e-15
-1.11453e-14
-1.2355e-14
-1.35919e-14
-1.48434e-14
-1.61213e-14
-1.74172e-14
-1.87385e-14
-2.00814e-14
-2.14491e-14
-2.28422e-14
-2.42595e-14
-2.5706e-14
-2.71766e-14
-2.86805e-14
-3.02084e-14
-3.17739e-14
-3.33638e-14
-3.49956e-14
-3.66524e-14
-3.83554e-14
-4.00847e-14
-4.18643e-14
-4.3672e-14
-4.55341e-14
-4.74268e-14
-4.93781e-14
-5.13632e-14
-5.34113e-14
-5.54977e-14
-5.76519e-14
-5.98501e-14
-6.21219e-14
-6.4445e-14
-6.68484e-14
-6.93122e-14
-7.18641e-14
-7.4487e-14
-7.72067e-14
-8.00094e-14
-8.29184e-14
-8.59231e-14
-8.90443e-14
-9.2275e-14
-9.56341e-14
-9.9119e-14
-1.02748e-13
-1.06526e-13
-1.10474e-13
-1.14605e-13
-1.18949e-13
-1.2353e-13
-1.28389e-13
-1.33567e-13
-1.39114e-13
-1.45083e-13
-1.5153e-13
-1.5851e-13
-1.66076e-13
-1.74284e-13
-1.83201e-13
-1.92903e-13
-2.03645e-13
-2.16126e-13
-2.30874e-13
-2.46877e-13
-2.68837e-13
-3.20625e-13
-3.69729e-13
-4.11483e-13
-1.40019e-12
-1.90828e-12
-2.12294e-12
-2.22809e-12
-2.27735e-12
-2.30092e-12
-2.31242e-12
-2.31808e-12
-2.32076e-12
-2.32078e-12
-2.32029e-12
-2.33503e-12
-2.51037e-12
-1.89503e-12
-2.38716e-11
-9.62416e-11
-8.92884e-11
-6.29174e-11
-7.64199e-11
-7.81295e-11
-7.94969e-11
-8.05606e-11
-8.09876e-11
-8.12284e-11
-8.1427e-11
-8.16199e-11
-8.17991e-11
-8.19357e-11
-8.20157e-11
-8.20505e-11
-8.20617e-11
-8.20644e-11
-8.20651e-11
-8.20652e-11
-8.20653e-11
-8.20652e-11
-8.20651e-11
-8.20646e-11
-8.20617e-11
-8.20323e-11
-8.13923e-11
)
;

boundaryField
{
    inlet
    {
        type            cyclic;
        value           nonuniform List<scalar> 
120
(
-2.18188e-27
-6.54991e-27
-1.09278e-26
-1.53222e-26
-1.97397e-26
-2.41872e-26
-2.86714e-26
-3.31987e-26
-3.77767e-26
-4.24132e-26
-4.71147e-26
-5.18887e-26
-5.67438e-26
-6.16866e-26
-6.67252e-26
-7.18677e-26
-7.71224e-26
-8.2498e-26
-8.80033e-26
-9.36474e-26
-9.94396e-26
-1.0539e-25
-1.11507e-25
-1.17803e-25
-1.24297e-25
-1.3099e-25
-1.37895e-25
-1.45016e-25
-1.52372e-25
-1.59975e-25
-1.67825e-25
-1.75935e-25
-1.8433e-25
-1.93022e-25
-2.02027e-25
-2.11386e-25
-2.20837e-25
-2.30692e-25
-2.40902e-25
-2.51514e-25
-2.62493e-25
-2.73908e-25
-2.85735e-25
-2.9801e-25
-3.10744e-25
-3.23974e-25
-3.37644e-25
-3.5181e-25
-3.66459e-25
-3.81673e-25
-3.97411e-25
-4.13677e-25
-4.30477e-25
-4.47813e-25
-4.65687e-25
-4.84126e-25
-5.031e-25
-5.22604e-25
-5.42642e-25
-5.63214e-25
-5.84293e-25
-6.05878e-25
-6.2797e-25
-6.50579e-25
-6.73722e-25
-6.97339e-25
-7.21629e-25
-7.465e-25
-7.71891e-25
-7.97631e-25
-8.23375e-25
-8.48423e-25
-8.71966e-25
-8.92754e-25
-9.09989e-25
-9.39137e-25
-1.0857e-24
-1.25384e-24
-1.3454e-24
-1.81507e-23
-2.06393e-23
-2.24756e-23
-2.46769e-23
-2.76007e-23
-3.17985e-23
-3.83483e-23
-3.13723e-23
-2.64653e-23
-2.25879e-23
-1.95419e-23
-1.70898e-23
-1.52095e-23
-1.3954e-23
-1.37427e-23
-1.30802e-23
-1.16884e-23
-8.53467e-24
-7.62812e-24
-6.17314e-24
-4.51031e-24
-3.73584e-24
-3.20939e-24
-2.70779e-24
-2.1303e-24
-1.47064e-24
-8.54066e-25
-4.20343e-25
-2.00123e-25
-1.20588e-25
-9.93815e-26
-9.44579e-26
-9.30347e-26
-9.24237e-26
-9.209e-26
-9.18955e-26
-9.17915e-26
-9.17673e-26
-9.19268e-26
-9.28656e-26
-9.57158e-26
)
;
    }
    outlet
    {
        type            cyclic;
        value           nonuniform List<scalar> 
120
(
2.18188e-27
6.54991e-27
1.09278e-26
1.53222e-26
1.97397e-26
2.41872e-26
2.86714e-26
3.31987e-26
3.77767e-26
4.24132e-26
4.71147e-26
5.18887e-26
5.67438e-26
6.16866e-26
6.67252e-26
7.18677e-26
7.71224e-26
8.2498e-26
8.80033e-26
9.36474e-26
9.94396e-26
1.0539e-25
1.11507e-25
1.17803e-25
1.24297e-25
1.3099e-25
1.37895e-25
1.45016e-25
1.52372e-25
1.59975e-25
1.67825e-25
1.75935e-25
1.8433e-25
1.93022e-25
2.02027e-25
2.11386e-25
2.20837e-25
2.30692e-25
2.40902e-25
2.51514e-25
2.62493e-25
2.73908e-25
2.85735e-25
2.9801e-25
3.10744e-25
3.23974e-25
3.37644e-25
3.5181e-25
3.66459e-25
3.81673e-25
3.97411e-25
4.13677e-25
4.30477e-25
4.47813e-25
4.65687e-25
4.84126e-25
5.031e-25
5.22604e-25
5.42642e-25
5.63214e-25
5.84293e-25
6.05878e-25
6.2797e-25
6.50579e-25
6.73722e-25
6.97339e-25
7.21629e-25
7.465e-25
7.71891e-25
7.97631e-25
8.23375e-25
8.48423e-25
8.71966e-25
8.92754e-25
9.09989e-25
9.39137e-25
1.0857e-24
1.25384e-24
1.3454e-24
1.81507e-23
2.06393e-23
2.24756e-23
2.46769e-23
2.76007e-23
3.17985e-23
3.83483e-23
3.13723e-23
2.64653e-23
2.25879e-23
1.95419e-23
1.70898e-23
1.52095e-23
1.3954e-23
1.37427e-23
1.30802e-23
1.16884e-23
8.53467e-24
7.62812e-24
6.17314e-24
4.51031e-24
3.73584e-24
3.20939e-24
2.70779e-24
2.1303e-24
1.47064e-24
8.54066e-25
4.20343e-25
2.00123e-25
1.20588e-25
9.93815e-26
9.44579e-26
9.30347e-26
9.24237e-26
9.209e-26
9.18955e-26
9.17915e-26
9.17673e-26
9.19268e-26
9.28656e-26
9.57158e-26
)
;
    }
    top
    {
        type            fixedValue;
        value           uniform 0;
    }
    bottom
    {
        type            fixedValue;
        value           uniform 0;
    }
    frontAndBackPlanes
    {
        type            empty;
        value           nonuniform List<scalar> 0();
    }
}


// ************************************************************************* //
