/*--------------------------------*- C++ -*----------------------------------*\
| =========                 |                                                 |
| \\      /  F ield         | OpenFOAM: The Open Source CFD Toolbox           |
|  \\    /   O peration     | Version:  2206                                  |
|   \\  /    A nd           | Website:  www.openfoam.com                      |
|    \\/     M anipulation  |                                                 |
\*---------------------------------------------------------------------------*/
FoamFile
{
    version     2.0;
    format      ascii;
    arch        "LSB;label=32;scalar=64";
    class       volVectorField;
    location    "1160";
    object      U.a;
}
// * * * * * * * * * * * * * * * * * * * * * * * * * * * * * * * * * * * * * //

dimensions      [0 1 -1 0 0 0 0];

internalField   nonuniform List<vector> 
120
(
(7.27295e-21 1.42147e-08 0)
(2.1833e-20 -4.02294e-09 0)
(3.64261e-20 -7.63864e-09 0)
(5.10739e-20 -9.93577e-09 0)
(6.57991e-20 -1.37172e-08 0)
(8.0624e-20 -1.60335e-08 0)
(9.55715e-20 -1.99787e-08 0)
(1.10662e-19 -2.2327e-08 0)
(1.25922e-19 -2.64328e-08 0)
(1.41377e-19 -2.88279e-08 0)
(1.57049e-19 -3.30902e-08 0)
(1.72962e-19 -3.55481e-08 0)
(1.89146e-19 -3.99624e-08 0)
(2.05622e-19 -4.25006e-08 0)
(2.22417e-19 -4.7062e-08 0)
(2.39559e-19 -4.96993e-08 0)
(2.57075e-19 -5.44032e-08 0)
(2.74993e-19 -5.71597e-08 0)
(2.93344e-19 -6.20016e-08 0)
(3.12158e-19 -6.48987e-08 0)
(3.31465e-19 -6.98754e-08 0)
(3.51299e-19 -7.29353e-08 0)
(3.71691e-19 -7.80448e-08 0)
(3.92678e-19 -8.12908e-08 0)
(4.14324e-19 -8.65328e-08 0)
(4.36635e-19 -8.99886e-08 0)
(4.59649e-19 -9.53649e-08 0)
(4.83387e-19 -9.90543e-08 0)
(5.07907e-19 -1.04569e-07 0)
(5.33249e-19 -1.08516e-07 0)
(5.59416e-19 -1.14176e-07 0)
(5.86449e-19 -1.18403e-07 0)
(6.14433e-19 -1.24218e-07 0)
(6.43408e-19 -1.28749e-07 0)
(6.73425e-19 -1.34732e-07 0)
(7.04621e-19 -1.3959e-07 0)
(7.36122e-19 -1.4576e-07 0)
(7.68972e-19 -1.50969e-07 0)
(8.03006e-19 -1.5735e-07 0)
(8.38381e-19 -1.62938e-07 0)
(8.74975e-19 -1.69561e-07 0)
(9.13025e-19 -1.75559e-07 0)
(9.52451e-19 -1.82467e-07 0)
(9.93366e-19 -1.88912e-07 0)
(1.03581e-18 -1.96154e-07 0)
(1.07991e-18 -2.0309e-07 0)
(1.12548e-18 -2.10725e-07 0)
(1.1727e-18 -2.18199e-07 0)
(1.22153e-18 -2.26295e-07 0)
(1.27224e-18 -2.34361e-07 0)
(1.3247e-18 -2.42987e-07 0)
(1.37892e-18 -2.51701e-07 0)
(1.43492e-18 -2.60935e-07 0)
(1.49271e-18 -2.70362e-07 0)
(1.55229e-18 -2.80296e-07 0)
(1.61375e-18 -2.90526e-07 0)
(1.677e-18 -3.01284e-07 0)
(1.74201e-18 -3.12458e-07 0)
(1.80881e-18 -3.24235e-07 0)
(1.87738e-18 -3.36586e-07 0)
(1.94764e-18 -3.49687e-07 0)
(2.01959e-18 -3.63581e-07 0)
(2.09323e-18 -3.78451e-07 0)
(2.1686e-18 -3.94397e-07 0)
(2.24574e-18 -4.11609e-07 0)
(2.32446e-18 -4.30214e-07 0)
(2.40543e-18 -4.50386e-07 0)
(2.48833e-18 -4.72249e-07 0)
(2.57297e-18 -4.95983e-07 0)
(2.65877e-18 -5.21788e-07 0)
(2.74458e-18 -5.4988e-07 0)
(2.82808e-18 -5.81452e-07 0)
(2.90655e-18 -6.19212e-07 0)
(2.97585e-18 -6.63413e-07 0)
(3.0333e-18 -7.08009e-07 0)
(3.13046e-18 -7.83759e-07 0)
(3.61901e-18 -9.9584e-07 0)
(4.17947e-18 -1.0619e-06 0)
(4.48466e-18 -1.04558e-06 0)
(6.05024e-17 -1.41969e-05 0)
(6.87977e-17 -3.54169e-06 0)
(7.49186e-17 -5.2015e-06 0)
(8.22565e-17 -5.95673e-06 0)
(9.20022e-17 -6.21674e-06 0)
(1.05995e-16 -6.33804e-06 0)
(1.27828e-16 -6.39402e-06 0)
(1.04574e-16 -6.40214e-06 0)
(8.82177e-17 -6.48209e-06 0)
(7.52929e-17 -7.03048e-06 0)
(6.51396e-17 -6.21412e-06 0)
(5.6966e-17 6.43011e-06 0)
(5.06982e-17 9.86326e-06 0)
(4.65134e-17 -0.000313713 0)
(4.5809e-17 -0.000203121 0)
(4.36006e-17 -0.000308811 0)
(3.89613e-17 -0.000138511 0)
(2.84489e-17 -0.000209294 0)
(2.54271e-17 -0.00021539 0)
(2.05771e-17 -0.00021867 0)
(1.50344e-17 -0.000222978 0)
(1.24528e-17 -0.000224581 0)
(1.0698e-17 -0.00022535 0)
(9.02598e-18 -0.000225919 0)
(7.101e-18 -0.000226454 0)
(4.90214e-18 -0.000226991 0)
(2.84689e-18 -0.000227449 0)
(1.40114e-18 -0.000227749 0)
(6.67076e-19 -0.000227893 0)
(4.01962e-19 -0.000227943 0)
(3.31272e-19 -0.000227955 0)
(3.1486e-19 -0.000227958 0)
(3.10116e-19 -0.000227959 0)
(3.08079e-19 -0.000227959 0)
(3.06967e-19 -0.000227959 0)
(3.06318e-19 -0.000227959 0)
(3.05972e-19 -0.000227958 0)
(3.05891e-19 -0.000227956 0)
(3.06423e-19 -0.000227942 0)
(3.09552e-19 -0.000227793 0)
(3.19053e-19 -0.000224386 0)
)
;

boundaryField
{
    inlet
    {
        type            cyclic;
    }
    outlet
    {
        type            cyclic;
    }
    top
    {
        type            fixedValue;
        value           uniform (0 0 0);
    }
    bottom
    {
        type            fixedValue;
        value           uniform (0 0 0);
    }
    frontAndBackPlanes
    {
        type            empty;
    }
}


// ************************************************************************* //
