/*--------------------------------*- C++ -*----------------------------------*\
| =========                 |                                                 |
| \\      /  F ield         | OpenFOAM: The Open Source CFD Toolbox           |
|  \\    /   O peration     | Version:  2206                                  |
|   \\  /    A nd           | Website:  www.openfoam.com                      |
|    \\/     M anipulation  |                                                 |
\*---------------------------------------------------------------------------*/
FoamFile
{
    version     2.0;
    format      ascii;
    arch        "LSB;label=32;scalar=64";
    class       volVectorField;
    location    "1160";
    object      U.b;
}
// * * * * * * * * * * * * * * * * * * * * * * * * * * * * * * * * * * * * * //

dimensions      [0 1 -1 0 0 0 0];

internalField   nonuniform List<vector> 
120
(
(7.27295e-21 1.75294e-08 0)
(2.18331e-20 6.85122e-09 0)
(3.64391e-20 1.05709e-08 0)
(5.1074e-20 1.57599e-08 0)
(6.57991e-20 1.95564e-08 0)
(8.06243e-20 2.4948e-08 0)
(9.56414e-20 2.8801e-08 0)
(1.10662e-19 3.44061e-08 0)
(1.2583e-19 3.83335e-08 0)
(1.41377e-19 4.41508e-08 0)
(1.57048e-19 4.81706e-08 0)
(1.72834e-19 5.41978e-08 0)
(1.89145e-19 5.83298e-08 0)
(2.05622e-19 6.45645e-08 0)
(2.22417e-19 6.883e-08 0)
(2.39559e-19 7.5269e-08 0)
(2.57075e-19 7.96911e-08 0)
(2.74993e-19 8.63323e-08 0)
(2.93344e-19 9.09358e-08 0)
(3.12158e-19 9.77778e-08 0)
(3.31465e-19 1.0259e-07 0)
(3.51299e-19 1.09634e-07 0)
(3.71686e-19 1.14682e-07 0)
(3.91513e-19 1.21928e-07 0)
(4.14319e-19 1.27242e-07 0)
(4.36638e-19 1.34696e-07 0)
(4.60325e-19 1.40306e-07 0)
(4.8339e-19 1.47974e-07 0)
(5.07913e-19 1.5391e-07 0)
(5.34806e-19 1.61803e-07 0)
(5.61041e-19 1.68096e-07 0)
(5.86456e-19 1.76226e-07 0)
(6.14433e-19 1.82906e-07 0)
(6.43408e-19 1.91291e-07 0)
(6.73416e-19 1.9839e-07 0)
(7.0262e-19 2.07051e-07 0)
(7.34057e-19 2.14601e-07 0)
(7.711e-19 2.23568e-07 0)
(8.00806e-19 2.31606e-07 0)
(8.4299e-19 2.40916e-07 0)
(8.72605e-19 2.49482e-07 0)
(9.15506e-19 2.59185e-07 0)
(9.52462e-19 2.68329e-07 0)
(9.93353e-19 2.78487e-07 0)
(1.03306e-18 2.88266e-07 0)
(1.08566e-18 2.98951e-07 0)
(1.12552e-18 3.09431e-07 0)
(1.17576e-18 3.20728e-07 0)
(1.21515e-18 3.3198e-07 0)
(1.27222e-18 3.43979e-07 0)
(1.3247e-18 3.56079e-07 0)
(1.37892e-18 3.68878e-07 0)
(1.43492e-18 3.81909e-07 0)
(1.49269e-18 3.95617e-07 0)
(1.54833e-18 4.09684e-07 0)
(1.61374e-18 4.24442e-07 0)
(1.677e-18 4.39701e-07 0)
(1.74205e-18 4.55723e-07 0)
(1.81794e-18 4.72428e-07 0)
(1.87742e-18 4.90052e-07 0)
(1.94764e-18 5.08615e-07 0)
(2.01959e-18 5.28354e-07 0)
(2.09323e-18 5.49373e-07 0)
(2.16865e-18 5.7192e-07 0)
(2.25723e-18 5.9615e-07 0)
(2.31246e-18 6.223e-07 0)
(2.40537e-18 6.50529e-07 0)
(2.48833e-18 6.81045e-07 0)
(2.57297e-18 7.14038e-07 0)
(2.65884e-18 7.49717e-07 0)
(2.75994e-18 7.88823e-07 0)
(2.82815e-18 8.33219e-07 0)
(2.90656e-18 8.84354e-07 0)
(2.97585e-18 9.39851e-07 0)
(3.03343e-18 1.01669e-06 0)
(3.13135e-18 1.18347e-06 0)
(3.617e-18 1.30546e-06 0)
(4.18194e-18 1.2564e-06 0)
(4.85955e-18 4.14043e-06 0)
(6.05006e-17 -3.30481e-06 0)
(6.87977e-17 8.09615e-06 0)
(7.49185e-17 7.10092e-06 0)
(8.22561e-17 6.66555e-06 0)
(9.2001e-17 6.55246e-06 0)
(1.0599e-16 6.50198e-06 0)
(1.27572e-16 6.48065e-06 0)
(1.04569e-16 6.48931e-06 0)
(8.82151e-17 6.41755e-06 0)
(7.52927e-17 5.87423e-06 0)
(6.51388e-17 6.68434e-06 0)
(5.6966e-17 1.92271e-05 0)
(5.06983e-17 2.37614e-05 0)
(4.65135e-17 -0.000301675 0)
(4.58077e-17 -1.87829e-05 0)
(4.38575e-17 5.3789e-05 0)
(4.18124e-17 5.90572e-06 0)
(3.97965e-17 -3.09635e-06 0)
(3.78105e-17 -9.07393e-07 0)
(3.58551e-17 1.49842e-07 0)
(3.39308e-17 9.14342e-08 0)
(3.20381e-17 9.16259e-10 0)
(3.01768e-17 -6.4129e-09 0)
(2.83468e-17 -9.52048e-10 0)
(2.65475e-17 3.28662e-10 0)
(2.4778e-17 1.14458e-10 0)
(2.30373e-17 -1.05952e-11 0)
(2.1324e-17 -1.10209e-11 0)
(1.96367e-17 -8.49366e-13 0)
(1.79737e-17 8.77176e-13 0)
(1.63334e-17 1.59488e-14 0)
(1.4714e-17 8.7264e-13 0)
(1.31136e-17 3.97222e-13 0)
(1.15303e-17 -1.14164e-13 0)
(9.96212e-18 -2.19162e-13 0)
(8.40711e-18 -3.45607e-13 0)
(6.86327e-18 -1.12984e-13 0)
(5.32857e-18 -4.59528e-13 0)
(3.80099e-18 -2.09668e-14 0)
(2.2785e-18 5.2764e-13 0)
(7.59061e-19 9.9571e-14 0)
)
;

boundaryField
{
    inlet
    {
        type            cyclic;
    }
    outlet
    {
        type            cyclic;
    }
    top
    {
        type            fixedValue;
        value           uniform (0 0 0);
    }
    bottom
    {
        type            fixedValue;
        value           uniform (0 0 0);
    }
    frontAndBackPlanes
    {
        type            empty;
    }
}


// ************************************************************************* //
