/*--------------------------------*- C++ -*----------------------------------*\
| =========                 |                                                 |
| \\      /  F ield         | OpenFOAM: The Open Source CFD Toolbox           |
|  \\    /   O peration     | Version:  2206                                  |
|   \\  /    A nd           | Website:  www.openfoam.com                      |
|    \\/     M anipulation  |                                                 |
\*---------------------------------------------------------------------------*/
FoamFile
{
    version     2.0;
    format      ascii;
    arch        "LSB;label=32;scalar=64";
    class       volScalarField;
    location    "1";
    object      alpha.b;
}
// * * * * * * * * * * * * * * * * * * * * * * * * * * * * * * * * * * * * * //

dimensions      [0 0 0 0 0 0 0];

internalField   nonuniform List<scalar> 
13078
(
0.4609652
0.4289817
0.4183947
0.4187098
0.4193442
0.4200859
0.4209483
0.4265989
0.4178349
0.4180325
0.4186552
0.4193153
0.4200657
0.4209286
0.4169083
0.4173391
0.4179523
0.4185918
0.4192759
0.4200375
0.4209041
0.4166803
0.4172974
0.4179087
0.4185451
0.4192393
0.4200084
0.4208781
0.4166762
0.4172815
0.4178838
0.4185222
0.4192096
0.4199811
0.4208527
0.4166956
0.4172819
0.4178732
0.4185085
0.4191966
0.4199579
0.4208284
0.4167123
0.4172871
0.4178679
0.4184985
0.4191878
0.4199492
0.4208071
0.4167238
0.4172927
0.4178649
0.4184928
0.4191825
0.4199432
0.4208003
0.4167315
0.4172975
0.4178657
0.4184911
0.4191793
0.419939
0.4207954
0.4167368
0.417301
0.4178669
0.4184903
0.4191772
0.4199359
0.4207915
0.4167404
0.4173035
0.4178678
0.4184899
0.4191757
0.4199333
0.4207881
0.4167431
0.4173052
0.4178685
0.4184895
0.4191745
0.4199312
0.4207852
0.4167451
0.4173065
0.4178689
0.4184891
0.4191734
0.4199292
0.4207824
0.4167465
0.4173073
0.4178689
0.4184884
0.4191719
0.4199272
0.4207796
0.4167476
0.4173077
0.4178687
0.4184841
0.4191653
0.4199247
0.4207768
0.4167484
0.417308
0.417868
0.4184785
0.4191599
0.4199223
0.420774
0.4167491
0.4173082
0.4178676
0.4184771
0.419158
0.4199201
0.420771
0.4167496
0.4173081
0.417867
0.4184758
0.4191562
0.4199178
0.4207679
0.4167501
0.4173079
0.4178662
0.4184743
0.4191539
0.4199148
0.4207647
0.4167505
0.4173076
0.4178652
0.4184723
0.4191463
0.4199039
0.4207605
0.4167507
0.4173073
0.4178641
0.4184701
0.4191369
0.4198948
0.4207562
0.4167511
0.4173069
0.417863
0.4184682
0.4191335
0.419891
0.4207523
0.4167515
0.4173063
0.4178617
0.4184661
0.4191305
0.4198867
0.4207471
0.4167518
0.4173058
0.4178603
0.4184637
0.4191265
0.4198747
0.4207303
0.4167523
0.4173052
0.4178587
0.418461
0.419122
0.41986
0.420716
0.4167528
0.4173046
0.4178569
0.418458
0.4191178
0.4198535
0.4207089
0.4167535
0.417304
0.417855
0.4184547
0.4191131
0.4198472
0.4207007
0.4167544
0.4173033
0.4178529
0.418451
0.4191076
0.4198394
0.420681
0.4167554
0.4173025
0.4178506
0.4184468
0.4191013
0.4198304
0.4206567
0.4167555
0.4173004
0.4178476
0.418442
0.4190945
0.4198213
0.4206438
0.4167558
0.4172986
0.4178445
0.4184367
0.4190867
0.419811
0.4206298
0.4167581
0.4172958
0.4178368
0.4184298
0.4190779
0.4197994
0.4206141
0.4167613
0.4172923
0.4178264
0.4184155
0.4190669
0.419786
0.4205979
0.4167653
0.4172911
0.4178162
0.4184031
0.4190544
0.4197706
0.4205792
0.41677
0.4172902
0.4178093
0.4183866
0.4190299
0.4197509
0.4205577
0.4167751
0.4172886
0.4178014
0.4183653
0.4189982
0.4197146
0.4205309
0.4167801
0.4172855
0.4177917
0.4183478
0.4189648
0.4196815
0.4204993
0.4167832
0.4172794
0.4177784
0.4183287
0.4189381
0.4196378
0.4204436
0.4167833
0.4172688
0.4177601
0.418303
0.4189023
0.4195748
0.4203795
0.4167764
0.4172475
0.4177281
0.4182525
0.4188289
0.4194758
0.4202556
0.4167592
0.4172009
0.4176451
0.4181363
0.4186691
0.4192904
0.4200507
0.4167138
0.4171009
0.417469
0.4178844
0.4184022
0.419049
0.4199119
0.4166151
0.4168987
0.417172
0.4175483
0.4180944
0.418915
0.4199362
0.4164242
0.4165971
0.4168252
0.417255
0.4179627
0.4189007
0.420111
0.416124
0.4162544
0.4165477
0.4171378
0.4179743
0.4190004
0.4202626
0.4157424
0.4159595
0.4163841
0.4171067
0.4180149
0.4190334
0.4203624
0.4153154
0.4157794
0.4163497
0.4170938
0.4179092
0.4189567
0.420294
0.4148988
0.4156734
0.4162853
0.4170119
0.4177392
0.4187517
0.4201247
0.4145388
0.4155821
0.4162063
0.4168615
0.4175971
0.4186423
0.4199833
0.4142331
0.415455
0.4161151
0.4167663
0.4175147
0.4185103
0.4198434
0.4139585
0.4152373
0.4159466
0.4167373
0.4175428
0.4185451
0.4198195
0.413716
0.4150067
0.4157967
0.4166587
0.417557
0.4186453
0.4199439
0.4134977
0.4147495
0.4156841
0.4166399
0.4176781
0.4189031
0.4201718
0.4133247
0.414508
0.4154814
0.4165403
0.4177269
0.418999
0.4201558
0.4132195
0.4143322
0.415329
0.4164509
0.4177276
0.4189987
0.4200724
0.4131935
0.4142414
0.4152415
0.41639
0.4176955
0.4189625
0.4200113
0.413178
0.4142169
0.4152115
0.416354
0.4176561
0.4189214
0.419968
0.4131893
0.4142892
0.4152761
0.4163861
0.4176524
0.4189171
0.4199787
0.413281
0.4144515
0.4154119
0.4164516
0.4176168
0.4188691
0.419998
0.4134339
0.4146658
0.4155817
0.4165069
0.4175042
0.4186894
0.4199333
0.4136368
0.4149043
0.4156608
0.4164799
0.417333
0.4183763
0.4196399
0.4138717
0.4151312
0.4158291
0.41659
0.4173212
0.4182381
0.4194408
0.4141502
0.415361
0.4159916
0.4165951
0.4172615
0.418147
0.4193836
0.4144563
0.4154891
0.4160746
0.4166768
0.4173277
0.4182494
0.4194881
0.4148218
0.4155907
0.4161582
0.4168272
0.4174781
0.4183877
0.4196198
0.415241
0.4157078
0.4162426
0.4169353
0.4176771
0.418603
0.4197862
0.4156755
0.4158942
0.4163008
0.416974
0.4178068
0.4187137
0.4198896
0.4160689
0.4161905
0.4164762
0.4170342
0.4178035
0.4187382
0.4198702
0.4163837
0.4165415
0.4167586
0.4171741
0.4178395
0.4186984
0.4198078
0.4165881
0.4168575
0.4171159
0.4174784
0.4180044
0.4187677
0.4197246
0.4166962
0.4170743
0.4174292
0.4178285
0.4183287
0.4189639
0.419791
0.4167469
0.417183
0.4176182
0.4180968
0.418621
0.4192375
0.4199936
0.4167674
0.4172333
0.4177073
0.4182276
0.4188005
0.4194456
0.4202208
0.4167755
0.4172565
0.4177441
0.4182864
0.4188857
0.4195551
0.4203576
0.4167767
0.4172696
0.4177664
0.4183157
0.4189263
0.4196246
0.4204287
0.4167747
0.4172782
0.4177831
0.4183397
0.4189619
0.4196748
0.4204893
0.4167709
0.4172832
0.4177957
0.418359
0.4189955
0.4197145
0.4205239
0.4167667
0.417286
0.4178048
0.4183815
0.4190246
0.4197457
0.420552
0.4167628
0.4172881
0.4178127
0.4183992
0.4190503
0.4197664
0.4205751
0.4167593
0.4172898
0.4178236
0.4184125
0.4190638
0.419783
0.420595
0.4167562
0.4172937
0.4178346
0.4184277
0.4190756
0.4197971
0.4206122
0.4167542
0.4172968
0.4178428
0.4184349
0.4190849
0.4198094
0.4206285
0.4167541
0.4172989
0.4178461
0.4184406
0.4190931
0.4198202
0.4206428
0.4167542
0.4173013
0.4178494
0.4184457
0.4191004
0.4198295
0.4206559
0.4167533
0.4173021
0.4178519
0.41845
0.4191068
0.4198387
0.4206803
0.4167525
0.417303
0.4178542
0.418454
0.4191124
0.4198465
0.4207002
0.4167518
0.4173037
0.4178562
0.4184574
0.4191172
0.419853
0.4207085
0.4167515
0.4173045
0.4178581
0.4184605
0.4191216
0.4198597
0.4207158
0.4167511
0.4173052
0.4178598
0.4184631
0.419126
0.4198744
0.4207301
0.4167508
0.4173058
0.4178612
0.4184656
0.4191301
0.4198864
0.420747
0.4167505
0.4173064
0.4178626
0.4184679
0.4191332
0.4198908
0.4207521
0.4167503
0.4173068
0.4178637
0.4184699
0.4191367
0.4198947
0.4207561
0.41675
0.4173072
0.4178649
0.4184722
0.4191462
0.4199038
0.4207606
0.4167497
0.4173076
0.417866
0.4184743
0.4191539
0.4199148
0.4207648
0.4167494
0.4173079
0.4178669
0.4184757
0.4191561
0.4199178
0.420768
0.4167491
0.4173081
0.4178676
0.4184771
0.419158
0.4199201
0.420771
0.4167486
0.4173081
0.4178682
0.4184786
0.4191599
0.4199223
0.420774
0.416748
0.4173082
0.4178689
0.4184842
0.4191654
0.4199247
0.4207769
0.4167473
0.4173079
0.4178694
0.4184886
0.419172
0.4199272
0.4207795
0.4167462
0.4173074
0.4178695
0.4184894
0.4191734
0.4199291
0.4207821
0.4167449
0.4173065
0.4178693
0.4184899
0.4191745
0.4199309
0.4207846
0.4167429
0.4173052
0.4178689
0.4184903
0.4191756
0.4199327
0.4207872
0.4167402
0.4173035
0.4178682
0.4184906
0.4191767
0.4199348
0.4207901
0.4167365
0.417301
0.4178673
0.418491
0.4191781
0.4199371
0.4207933
0.4167313
0.4172974
0.4178663
0.4184918
0.4191801
0.4199403
0.4207973
0.4167236
0.4172927
0.417868
0.4184955
0.4191834
0.4199445
0.4208027
0.4167122
0.4172871
0.4178701
0.4185018
0.4191889
0.4199508
0.4208225
0.4166955
0.4172815
0.4178732
0.4185088
0.4191973
0.4199709
0.4208449
0.4166764
0.4172812
0.4178834
0.4185216
0.4192207
0.419995
0.420869
0.4166816
0.417297
0.4179057
0.4185542
0.4192509
0.4200219
0.4208945
0.4169214
0.4173315
0.4179598
0.4186009
0.4192869
0.4200509
0.4209206
0.426509
0.4177795
0.4180218
0.4186679
0.4193301
0.4200814
0.4209465
0.4219643
0.4232388
0.4249373
0.42655
0.4294096
0.4338786
0.443842
0.4219422
0.4232105
0.424901
0.4265071
0.4293573
0.4338061
0.4434843
0.4219174
0.4231813
0.4248631
0.4270663
0.429307
0.4337352
0.4432495
0.4218916
0.4231517
0.4248275
0.426416
0.4292541
0.4336642
0.4430307
0.4218662
0.4231217
0.4247902
0.4263721
0.4292017
0.4335932
0.4428669
0.4218412
0.4230917
0.4247527
0.4263272
0.4291499
0.4335226
0.4427059
0.421817
0.4230622
0.4247154
0.4262839
0.4291348
0.4334522
0.4425473
0.4217952
0.423033
0.4246787
0.4262415
0.4291207
0.4333825
0.4423903
0.4217888
0.4230062
0.4246438
0.4261985
0.4290792
0.4333198
0.4422342
0.4217841
0.4229989
0.4246113
0.4261557
0.4290381
0.4332573
0.4420789
0.42178
0.4229934
0.4246023
0.4261142
0.428997
0.4331949
0.4419241
0.421776
0.4229879
0.4245954
0.4261048
0.4289558
0.4331324
0.4417701
0.4217722
0.4229826
0.4245883
0.4260964
0.4289483
0.4330688
0.4416167
0.4217684
0.4229772
0.424581
0.4260877
0.4289399
0.4330558
0.4414655
0.4217646
0.4229717
0.4245735
0.4260787
0.4289311
0.4330406
0.4414575
0.4217607
0.4229659
0.4245658
0.4260693
0.4289216
0.4330244
0.4414427
0.4217567
0.4229599
0.4245579
0.4260593
0.4289075
0.4330076
0.44144
0.4217525
0.422954
0.4245494
0.4260445
0.4287858
0.4329898
0.4414415
0.4217481
0.422948
0.4245408
0.4260339
0.4287688
0.4329718
0.4414384
0.4217435
0.4229417
0.4245317
0.4260227
0.4287548
0.4329529
0.441442
0.4217386
0.422935
0.4245224
0.4260109
0.4287401
0.4329331
0.4414655
0.4217334
0.422928
0.4245127
0.4259983
0.4287249
0.4329124
0.4414734
0.4217278
0.4229205
0.4245022
0.4259864
0.4287056
0.4328907
0.4414836
0.4217207
0.4229125
0.4244906
0.4265336
0.4285896
0.432857
0.4414941
0.4217132
0.4229039
0.424479
0.4259592
0.4285286
0.4328298
0.4415078
0.421706
0.4228949
0.4244666
0.4259421
0.4285058
0.4328043
0.4415253
0.4216963
0.4228843
0.4244528
0.4259253
0.4284823
0.4327735
0.4415592
0.4216691
0.4228726
0.4244388
0.4259078
0.4284509
0.4325341
0.4415987
0.4216469
0.4225367
0.4239995
0.425889
0.4284214
0.4324411
0.4416289
0.4216317
0.4225232
0.423982
0.4258681
0.4283935
0.4324037
0.4416688
0.4215919
0.4224785
0.4239634
0.4258453
0.4283632
0.4322365
0.4417019
0.4215597
0.4224345
0.423943
0.4258199
0.4283299
0.4320337
0.4417324
0.4215372
0.4223677
0.4239155
0.4257918
0.4282936
0.4319768
0.4417401
0.4215148
0.4223365
0.4238469
0.4257608
0.4282541
0.4319027
0.4409136
0.4214894
0.4223057
0.4237666
0.4257243
0.4282118
0.4318385
0.4407931
0.42146
0.4222726
0.423664
0.4256713
0.4281694
0.4317813
0.4378657
0.4214265
0.4222345
0.4236194
0.4255411
0.4281311
0.4317364
0.4393705
0.4213833
0.4221913
0.4235749
0.425446
0.4281224
0.4318708
0.4376745
0.4213238
0.4221363
0.4235381
0.4254004
0.4283753
0.4327744
0.4365311
0.4212167
0.4220663
0.4235985
0.425801
0.4291261
0.4340648
0.4386108
0.4211385
0.4220791
0.4239718
0.4267111
0.4302252
0.4348659
0.4417348
0.4211271
0.4222514
0.4246269
0.4279193
0.431157
0.4349344
0.4421933
0.4214085
0.4226226
0.4253701
0.4285186
0.4312317
0.4340934
0.4410773
0.4218348
0.4232272
0.4262255
0.4289929
0.4312258
0.434018
0.4398457
0.4221418
0.4237394
0.4268685
0.4293184
0.4309377
0.4343098
0.4396319
0.4222162
0.4243007
0.4277114
0.4293134
0.4312424
0.4341503
0.4405378
0.4223085
0.4245861
0.4281489
0.4295663
0.4314025
0.4345564
0.4395245
0.4222171
0.4247158
0.4280808
0.4294612
0.4314859
0.4344545
0.4363938
0.4219117
0.4242707
0.4278788
0.4294003
0.4309711
0.4341735
0.4362456
0.4217299
0.4241679
0.4281572
0.4294585
0.4313709
0.4333433
0.4353631
0.4219041
0.4241111
0.4284598
0.4298337
0.4310001
0.432494
0.4345154
0.4221724
0.4246509
0.4288083
0.4297442
0.4303292
0.4323507
0.4365741
0.4221594
0.4247915
0.4285842
0.4293841
0.4299895
0.4322254
0.4346185
0.4218564
0.4243678
0.4278597
0.4287431
0.4290818
0.4309568
0.4325489
0.4214369
0.4234919
0.4267377
0.4276539
0.4284617
0.4272168
0.4338086
0.421191
0.4228586
0.4256683
0.4263696
0.4268641
0.4274707
0.4211357
0.4226179
0.4253331
0.4258494
0.4263018
0.427053
0.421301
0.4227698
0.4260723
0.4268613
0.4272101
0.4271786
0.4216328
0.4234524
0.427209
0.4278117
0.4283442
0.4289168
0.4317109
0.4218677
0.4241982
0.4280448
0.4288258
0.4293131
0.4315197
0.4361328
0.4218031
0.424516
0.4283413
0.4292946
0.4302811
0.4319419
0.4354326
0.4214542
0.4239354
0.4281283
0.4294758
0.4304256
0.4320651
0.4356521
0.4211959
0.4232551
0.4279111
0.4293076
0.4309624
0.4327253
0.4348694
0.4213251
0.4233209
0.4272709
0.4289295
0.430771
0.4334153
0.4353778
0.4215771
0.423464
0.4272985
0.4289094
0.4310243
0.4334623
0.4361928
0.4216412
0.4236666
0.4271883
0.4292181
0.430922
0.4342163
0.4379483
0.4215659
0.4234481
0.4269418
0.4288089
0.4310936
0.4334405
0.4403323
0.4215281
0.4233181
0.4261864
0.4285024
0.4304088
0.4337699
0.4392091
0.4213464
0.4229452
0.4255372
0.4280423
0.430212
0.4334308
0.4387171
0.4210999
0.4225686
0.4250065
0.4276077
0.4303012
0.4330634
0.4391353
0.420955
0.4222026
0.4243543
0.4274314
0.4303028
0.4337681
0.4408335
0.4210418
0.4220418
0.4238935
0.4268158
0.430114
0.4344118
0.4421717
0.4211762
0.4220634
0.4236074
0.4259761
0.4292569
0.4342006
0.4408089
0.4212998
0.4221237
0.4235107
0.4254968
0.4286657
0.4334668
0.4375552
0.4213679
0.4221803
0.4235367
0.4253726
0.4282323
0.4323284
0.4365448
0.4214159
0.4222265
0.4235858
0.4254953
0.4281185
0.4317457
0.4381411
0.4214523
0.4222649
0.4236335
0.4255927
0.4281436
0.4317458
0.4392641
0.4214839
0.4222985
0.4237005
0.4256964
0.4281845
0.4318026
0.4405365
0.4215111
0.4223285
0.4237981
0.4257397
0.4282287
0.4318668
0.4408448
0.4215346
0.4223567
0.4238937
0.4257737
0.4282708
0.4319367
0.4411888
0.4215579
0.4224092
0.4239275
0.4258041
0.4283096
0.4320023
0.4417393
0.4215906
0.4224534
0.4239521
0.4258315
0.428345
0.4320764
0.4417103
0.4216309
0.4225138
0.423972
0.425856
0.4283775
0.4323711
0.4416883
0.4216463
0.4225335
0.4239908
0.4258779
0.4284069
0.4324218
0.4416513
0.4216687
0.4228723
0.4244385
0.4258994
0.428435
0.4324609
0.4416205
0.421696
0.4228841
0.4244526
0.4259169
0.4284679
0.4326812
0.4415876
0.4217057
0.4228947
0.4244663
0.4259337
0.4284947
0.4327915
0.441552
0.421713
0.4229038
0.4244789
0.4259496
0.428518
0.4328182
0.4415311
0.4217206
0.4229125
0.424491
0.4259648
0.4285432
0.4328434
0.4415121
0.4217278
0.4229205
0.4245021
0.4259794
0.4286672
0.4328768
0.4415006
0.4217333
0.422928
0.4245128
0.4259931
0.428718
0.4329034
0.4414896
0.4217386
0.4229352
0.4245228
0.4260058
0.4287336
0.4329246
0.4414759
0.4217436
0.4229419
0.4245322
0.4260181
0.4287487
0.4329448
0.4414689
0.4217483
0.4229482
0.4245413
0.4260296
0.4287629
0.4329642
0.4414603
0.4217526
0.4229542
0.4245498
0.4260405
0.4287764
0.4329826
0.4414567
0.4217568
0.4229602
0.4245582
0.4260538
0.4288406
0.4330006
0.4414586
0.4217608
0.4229661
0.4245661
0.4260657
0.4289176
0.4330178
0.4414623
0.4217646
0.4229717
0.4245737
0.4260755
0.4289272
0.4330344
0.441468
0.4217683
0.4229771
0.424581
0.426085
0.4289363
0.43305
0.4414739
0.4217719
0.4229823
0.4245881
0.426094
0.4289448
0.4330646
0.4415604
0.4217754
0.4229874
0.424595
0.4261029
0.4289529
0.4331028
0.4417133
0.421779
0.4229925
0.4246017
0.4261113
0.428977
0.433165
0.4418671
0.4217827
0.4229977
0.4246103
0.4261368
0.4290177
0.4332274
0.4420215
0.4217869
0.4230045
0.4246424
0.4261794
0.4290586
0.4332897
0.4421762
0.4217924
0.4230306
0.4246768
0.4262226
0.4290996
0.4333523
0.4423315
0.4218133
0.4230591
0.424713
0.4262662
0.429139
0.4334181
0.4424872
0.4218364
0.423088
0.4247498
0.4263077
0.4291253
0.4334882
0.4426438
0.4218605
0.4231176
0.424787
0.4263519
0.4291753
0.4335585
0.4428017
0.4218855
0.4231477
0.4248245
0.4263961
0.4292271
0.433629
0.4429619
0.4219116
0.423178
0.424862
0.4264404
0.4292791
0.4336997
0.4431447
0.4219377
0.423208
0.4248995
0.4264842
0.4293313
0.4337706
0.4433737
0.4219635
0.4232383
0.4249368
0.4265276
0.4293833
0.4338419
0.4436515
0.9961371
1
1
1
1
1
1
1
1
1
1
1
1
1
1
1
1
1
0.9936433
1
1
1
1
1
1
1
1
1
1
1
1
1
1
1
1
1
0.9932833
1
1
1
1
1
1
1
1
1
1
1
1
1
1
1
1
1
0.9927759
1
1
1
1
1
1
1
1
1
1
1
1
1
1
1
1
1
0.9921326
1
1
1
1
1
1
1
1
1
1
1
1
1
1
1
1
1
0.9913613
1
1
1
1
1
1
1
1
1
1
1
1
1
1
1
1
1
0.9904733
1
1
1
1
1
1
1
1
1
1
1
1
1
1
1
1
1
0.9894786
1
1
1
1
1
1
1
1
1
1
1
1
1
1
1
1
1
0.9883847
0.9999999
1
1
1
1
1
1
1
1
1
1
1
1
1
1
1
1
0.9871981
0.9999999
1
1
1
1
1
1
1
1
1
1
1
1
1
1
1
1
0.985923
0.9999999
1
1
1
1
1
1
1
1
1
1
1
1
1
1
1
1
0.9845604
0.9999999
1
1
1
1
1
1
1
1
1
1
1
1
1
1
1
1
0.9831095
0.9999999
1
1
1
1
1
1
1
1
1
1
1
1
1
1
1
1
0.981444
0.9999998
1
1
1
1
1
1
1
1
1
1
1
1
1
1
1
1
0.9730135
0.9999996
1
1
1
1
1
1
1
1
1
1
1
1
1
1
1
1
0.9700927
1
1
1
1
1
1
1
1
1
1
1
1
1
1
1
1
1
0.966032
0.9999995
1
1
1
1
1
1
1
1
1
1
1
1
1
1
1
1
0.961841
0.9999994
1
1
1
1
1
1
1
1
1
1
1
1
1
1
1
1
0.9601799
0.9999992
1
1
1
1
1
1
1
1
1
1
1
1
1
1
1
1
0.9583389
0.9999989
1
1
1
1
1
1
1
1
1
1
1
1
1
1
1
1
0.9561831
0.999999
1
1
1
1
1
1
1
1
1
1
1
1
1
1
1
1
0.9537819
0.9999989
1
1
1
1
1
1
1
1
1
1
1
1
1
1
1
1
0.951187
0.9999986
1
1
1
1
1
1
1
1
1
1
1
1
1
1
1
1
0.9484366
0.9999982
1
1
1
1
1
1
1
1
1
1
1
1
1
1
1
1
0.9454699
0.9999978
1
1
1
1
1
1
1
1
1
1
1
1
1
1
1
1
0.9424016
0.9999973
1
1
1
1
1
1
1
1
1
1
1
1
1
1
1
1
0.9391156
0.9999967
1
1
1
1
1
1
1
1
1
1
1
1
1
1
1
1
0.935621
0.999996
1
1
1
1
1
1
1
1
1
1
1
1
1
1
1
1
0.9319808
0.999995
1
1
1
1
1
1
1
1
1
1
1
1
1
1
1
1
0.928043
0.9999939
1
1
1
1
1
1
1
1
1
1
1
1
1
1
1
1
0.923915
0.9999926
1
1
1
1
1
1
1
1
1
1
1
1
1
1
1
1
0.9195929
0.999991
1
1
1
1
1
1
1
1
1
1
1
1
1
1
1
1
0.9148986
0.9999894
1
1
1
1
1
1
1
1
1
1
1
1
1
1
1
1
0.9095114
0.9999883
1
1
1
1
1
1
1
1
1
1
1
1
1
1
1
1
0.8937187
0.9999809
1
1
1
1
1
1
1
1
1
1
1
1
1
1
1
1
0.885494
0.9999744
1
1
1
1
1
1
1
1
1
1
1
1
1
1
1
1
0.8748079
0.9999698
1
1
1
1
1
1
1
1
1
1
1
1
1
1
1
1
0.7749497
0.9999343
1
1
1
1
1
1
1
1
1
1
1
1
1
1
1
1
0.6511447
0.9998717
1
1
1
1
1
1
1
1
1
1
1
1
1
1
1
1
0.5488655
0.9998899
1
1
1
1
1
1
1
1
1
1
1
1
1
1
1
1
0.4926473
0.9988488
0.9999998
1
1
1
1
1
1
1
1
1
1
1
1
1
1
1
0.4796431
0.9989915
0.9999999
1
1
1
1
1
1
1
1
1
1
1
1
1
1
1
0.472942
0.9992548
1
1
1
1
1
1
1
1
1
1
1
1
1
1
1
1
0.469091
0.9993297
1
1
1
1
1
1
1
1
1
1
1
1
1
1
1
1
0.4656273
0.9987905
1
1
1
1
1
1
1
1
1
1
1
1
1
1
1
1
0.4593846
0.9986948
0.9999999
1
1
1
1
1
1
1
1
1
1
1
1
1
1
1
0.4517987
0.9972911
0.9999991
1
1
1
1
1
1
1
1
1
1
1
1
1
1
1
0.4424979
0.9769491
0.9999728
1
1
1
1
1
1
1
1
1
1
1
1
1
1
1
0.4375677
0.8967104
0.9999046
0.9999997
1
1
1
1
1
1
1
1
1
1
1
1
1
1
0.4340306
0.8462694
0.999523
0.9999971
1
1
1
1
1
1
1
1
1
1
0.4376601
0.5108193
1
1
1
1
1
1
1
1
0.4425687
1
1
1
1
1
1
1
1
1
1
1
1
1
1
1
1
1
1
1
1
1
1
1
1
1
1
1
1
1
1
1
1
1
1
1
1
1
1
1
1
1
1
1
1
1
1
1
1
1
0.4366561
1
1
1
1
1
1
0.436707
0.481282
1
1
1
1
1
1
1
0.4337637
0.7966362
0.9995417
1
1
1
1
1
1
1
1
1
0.4344355
0.8825696
0.999882
0.9999995
1
1
1
1
1
1
1
1
1
1
1
1
1
1
0.4399904
0.9385484
0.9999718
1
1
1
1
1
1
1
1
1
1
1
1
1
1
1
0.4497221
0.9932946
0.9999958
1
1
1
1
1
1
1
1
1
1
1
1
1
1
1
0.4556754
0.9982354
1
1
1
1
1
1
1
1
1
1
1
1
1
1
1
1
0.4632867
0.9990124
1
1
1
1
1
1
1
1
1
1
1
1
1
1
1
1
0.4680911
0.9993686
1
1
1
1
1
1
1
1
1
1
1
1
1
1
1
1
0.4715283
0.9994506
1
1
1
1
1
1
1
1
1
1
1
1
1
1
1
1
0.4754949
0.9995223
1
1
1
1
1
1
1
1
1
1
1
1
1
1
1
1
0.4831404
0.9992031
1
1
1
1
1
1
1
1
1
1
1
1
1
1
1
1
0.4965899
0.9990317
0.9999999
1
1
1
1
1
1
1
1
1
1
1
1
1
1
1
0.5849764
0.9998264
1
1
1
1
1
1
1
1
1
1
1
1
1
1
1
1
0.6415833
0.9999232
1
1
1
1
1
1
1
1
1
1
1
1
1
1
1
1
0.8417241
0.9999574
1
1
1
1
1
1
1
1
1
1
1
1
1
1
1
1
0.8655778
0.9999661
1
1
1
1
1
1
1
1
1
1
1
1
1
1
1
1
0.88175
0.9999762
1
1
1
1
1
1
1
1
1
1
1
1
1
1
1
1
0.8982446
0.9999851
1
1
1
1
1
1
1
1
1
1
1
1
1
1
1
1
0.911692
0.9999906
1
1
1
1
1
1
1
1
1
1
1
1
1
1
1
1
0.9168128
0.999991
1
1
1
1
1
1
1
1
1
1
1
1
1
1
1
1
0.9213946
0.9999922
1
1
1
1
1
1
1
1
1
1
1
1
1
1
1
1
0.9257344
0.9999935
1
1
1
1
1
1
1
1
1
1
1
1
1
1
1
1
0.929878
0.9999947
1
1
1
1
1
1
1
1
1
1
1
1
1
1
1
1
0.9337379
0.9999957
1
1
1
1
1
1
1
1
1
1
1
1
1
1
1
1
0.9373586
0.9999965
1
1
1
1
1
1
1
1
1
1
1
1
1
1
1
1
0.9408083
0.9999971
1
1
1
1
1
1
1
1
1
1
1
1
1
1
1
1
0.9441289
0.9999977
1
1
1
1
1
1
1
1
1
1
1
1
1
1
1
1
0.9470459
0.9999981
1
1
1
1
1
1
1
1
1
1
1
1
1
1
1
1
0.9500479
0.9999985
1
1
1
1
1
1
1
1
1
1
1
1
1
1
1
1
0.9527234
0.9999988
1
1
1
1
1
1
1
1
1
1
1
1
1
1
1
1
0.9552721
0.9999991
1
1
1
1
1
1
1
1
1
1
1
1
1
1
1
1
0.9576014
0.9999992
1
1
1
1
1
1
1
1
1
1
1
1
1
1
1
1
0.9599276
0.9999992
1
1
1
1
1
1
1
1
1
1
1
1
1
1
1
1
0.9624938
0.9999994
1
1
1
1
1
1
1
1
1
1
1
1
1
1
1
1
0.9650551
0.9999995
1
1
1
1
1
1
1
1
1
1
1
1
1
1
1
1
0.967907
0.9999996
1
1
1
1
1
1
1
1
1
1
1
1
1
1
1
1
0.9713167
0.9999999
1
1
1
1
1
1
1
1
1
1
1
1
1
1
1
1
0.9784403
0.9999999
1
1
1
1
1
1
1
1
1
1
1
1
1
1
1
1
0.9820385
0.9999999
1
1
1
1
1
1
1
1
1
1
1
1
1
1
1
1
0.9835218
0.9999999
1
1
1
1
1
1
1
1
1
1
1
1
1
1
1
1
0.9849117
1
1
1
1
1
1
1
1
1
1
1
1
1
1
1
1
1
0.9862158
1
1
1
1
1
1
1
1
1
1
1
1
1
1
1
1
1
0.9874373
1
1
1
1
1
1
1
1
1
1
1
1
1
1
1
1
1
0.988576
1
1
1
1
1
1
1
1
1
1
1
1
1
1
1
1
1
0.9896288
1
1
1
1
1
1
1
1
1
1
1
1
1
1
1
1
1
0.99059
1
1
1
1
1
1
1
1
1
1
1
1
1
1
1
1
1
0.9914524
1
1
1
1
1
1
1
1
1
1
1
1
1
1
1
1
1
0.9922068
1
1
1
1
1
1
1
1
1
1
1
1
1
1
1
1
1
0.9928445
1
1
1
1
1
1
1
1
1
1
1
1
1
1
1
1
1
0.993361
1
1
1
1
1
1
1
1
1
1
1
1
1
1
1
1
1
0.9943125
1
1
1
1
1
1
1
1
1
1
1
1
1
1
1
1
1
1
1
1
1
1
1
1
1
1
1
1
1
1
1
1
1
1
1
1
1
1
1
1
1
1
1
1
1
1
1
1
1
1
1
1
1
1
1
1
1
1
1
1
1
1
1
1
1
1
1
1
1
1
1
1
1
1
1
1
1
1
1
1
1
1
1
1
1
1
1
1
1
1
1
1
1
1
1
1
1
1
1
1
1
1
1
1
1
1
1
1
1
1
1
1
1
1
1
1
1
1
1
1
1
1
1
1
1
1
1
1
1
1
1
1
1
1
1
1
1
1
1
1
1
1
1
1
1
1
1
1
1
1
1
1
1
1
1
1
1
1
1
1
1
1
1
1
1
1
1
1
1
1
1
1
1
1
1
1
1
1
1
1
1
1
1
1
1
1
1
1
1
1
1
1
1
1
1
1
1
1
1
1
1
1
1
1
1
1
1
1
1
1
1
1
1
1
1
1
1
1
1
1
1
1
1
1
1
1
1
1
1
1
1
1
1
1
1
1
1
1
1
1
1
1
1
1
1
1
1
1
1
1
1
1
1
1
1
1
1
1
1
1
1
1
1
1
1
1
1
1
1
1
1
1
1
1
1
1
1
1
1
1
1
1
1
1
1
1
1
1
1
1
1
1
1
1
1
1
1
1
1
1
1
1
1
1
1
1
1
1
1
1
1
1
1
1
1
1
1
1
1
1
1
1
1
1
1
1
1
1
1
1
1
1
1
1
1
1
1
1
1
1
1
1
1
1
1
1
1
1
1
1
1
1
1
1
1
1
1
1
1
1
1
1
1
1
1
1
1
1
1
1
1
1
1
1
1
1
1
1
1
1
1
1
1
1
1
1
1
1
1
1
1
1
1
1
1
1
1
1
1
1
1
1
1
1
1
1
1
1
1
1
1
1
1
1
1
1
1
1
1
1
1
1
1
1
1
1
1
1
1
1
1
1
1
1
1
1
1
1
1
1
1
1
1
1
1
1
1
1
1
1
1
1
1
1
1
1
1
1
1
1
1
1
1
1
1
1
1
1
1
1
1
1
1
1
1
1
1
1
1
1
1
1
1
1
1
1
1
1
1
1
1
1
1
1
1
1
1
1
1
1
1
1
1
1
1
1
1
1
1
1
1
1
1
1
1
1
1
1
1
1
1
1
1
1
1
1
1
1
1
1
1
1
1
1
1
1
1
1
1
1
1
1
1
1
1
1
1
1
1
1
1
1
1
1
1
1
1
1
1
1
1
1
1
1
1
1
1
1
1
1
1
1
1
1
1
1
1
1
1
1
1
1
1
1
1
1
1
1
1
1
1
1
1
1
1
1
1
1
1
1
1
1
1
1
1
1
1
1
1
1
1
1
1
1
1
1
1
1
1
1
1
1
1
1
1
1
1
1
1
1
1
1
1
1
1
1
1
1
1
1
1
1
1
1
1
1
1
1
1
1
1
1
1
1
1
1
1
1
1
1
1
1
1
1
1
1
1
1
1
1
1
1
1
1
1
1
1
1
1
1
1
1
1
1
1
1
1
1
1
1
1
1
1
1
1
1
1
1
1
1
1
1
1
1
1
1
1
1
1
1
1
1
1
1
1
1
1
1
1
1
1
1
1
1
1
1
1
1
1
1
1
1
1
1
1
1
1
1
1
1
1
1
1
1
1
1
1
1
1
1
1
1
1
1
1
1
1
1
1
1
1
1
1
1
1
1
1
1
1
1
1
1
1
1
1
1
1
1
1
1
1
1
1
1
1
1
1
1
1
1
1
1
1
1
1
1
1
1
1
1
1
1
1
1
1
1
1
1
1
1
1
1
1
1
1
1
1
1
1
1
1
1
1
1
1
1
1
1
1
1
1
1
1
1
1
1
1
1
1
1
1
1
1
1
1
1
1
1
1
1
1
1
1
1
1
1
1
1
1
1
1
1
1
1
1
1
1
1
1
1
1
1
1
1
1
1
1
1
1
1
1
1
1
1
1
1
1
1
1
1
1
1
1
1
1
1
1
1
1
1
1
1
1
1
1
1
1
1
1
1
1
1
1
1
1
1
1
1
1
1
1
1
1
1
1
1
1
1
1
1
1
1
1
1
1
1
1
1
1
1
1
1
1
1
1
1
1
1
1
1
1
1
1
1
1
1
1
1
1
1
1
1
1
1
1
1
1
1
1
1
1
1
1
1
1
1
1
1
1
1
1
1
1
1
1
1
1
1
1
1
1
1
1
1
1
1
1
1
1
1
1
1
1
1
1
1
1
1
1
1
1
1
1
1
1
1
1
1
1
1
1
1
1
1
1
1
1
1
1
1
1
1
1
1
1
1
1
1
1
1
1
1
1
1
1
1
1
1
1
1
1
1
1
1
1
1
1
1
1
1
1
1
1
1
1
1
1
1
1
1
1
1
1
1
1
1
1
1
1
1
1
1
1
1
1
1
1
1
1
1
1
1
1
1
1
1
1
1
1
1
1
1
1
1
1
1
1
1
1
1
1
1
1
1
1
1
1
1
1
1
1
1
1
1
1
1
1
1
1
1
1
1
1
1
1
1
1
1
1
1
1
1
1
1
1
1
1
1
1
1
1
1
1
1
1
1
1
1
1
1
1
1
1
1
1
1
1
1
1
1
1
1
1
1
1
1
1
1
1
1
1
1
1
1
1
1
1
1
1
1
1
1
1
1
1
1
1
1
1
1
1
1
1
1
1
1
1
1
1
1
1
1
1
1
1
1
1
1
1
1
1
1
1
1
1
1
1
1
1
1
1
1
1
1
1
1
1
1
1
1
1
1
1
1
1
1
1
1
1
0.4365453
0.435134
0.4363029
0.4318669
0.4344497
0.4285035
0.4273511
0.4268585
0.4258901
0.4271441
0.4258667
0.4268162
0.4272593
0.4285017
0.4343617
0.4271042
0.4337646
0.4324626
0.4349107
0.4361282
0.4345496
1
1
0.9999994
1
1
1
1
1
1
1
1
1
1
1
1
1
1
1
0.9999762
0.9999126
0.9996301
1
1
1
1
1
0.9786529
0.4828824
1
1
0.4403412
0.4366829
1
1
1
1
1
1
1
1
1
1
1
1
1
1
1
1
1
1
1
1
1
1
1
1
1
1
1
1
1
1
1
1
0.440285
0.4425012
1
1
1
0.9909763
0.5180969
1
1
1
0.9999313
0.9999774
0.9995637
1
0.9999975
1
1
1
1
1
1
1
0.9999999
1
1
1
1
1
1
1
1
1
1
1
1
1
1
1
0.4278473
0.427822
0.4265284
0.4313497
0.4313222
0.4293832
0.437471
0.4374163
0.4338412
0.5005134
0.4887166
0.4436482
0.427796
0.4277711
0.4264864
0.4312957
0.4312695
0.4293325
0.4373606
0.437306
0.4337702
0.4810367
0.4803013
0.4433661
0.4312436
0.4312171
0.4292833
0.4372507
0.4371961
0.4336999
0.479623
0.4789852
0.443134
0.4276934
0.4276667
0.4263993
0.4311903
0.4311634
0.4292271
0.4371414
0.4370863
0.4336283
0.4783886
0.4778326
0.4429486
0.4276417
0.4276168
0.426354
0.4311363
0.4311105
0.4291756
0.4370316
0.4369769
0.4335576
0.4773169
0.4768396
0.4427858
0.4310839
0.4310578
0.4291259
0.4369244
0.4368785
0.4334875
0.4763988
0.4759933
0.4426264
0.427564
0.4275688
0.4262673
0.4310344
0.4310103
0.4291394
0.4368325
0.4367864
0.4334171
0.4756208
0.4752803
0.4424685
0.4309842
0.4309586
0.4290994
0.4367404
0.4366945
0.4333509
0.4749697
0.4746885
0.4423119
0.4275062
0.4274851
0.4261804
0.4309323
0.430907
0.4290583
0.4366482
0.4366025
0.4332882
0.4744349
0.4742076
0.4421565
0.4274641
0.4274431
0.4261375
0.4308811
0.4308577
0.4290177
0.4365566
0.4365108
0.4332259
0.4740065
0.4738296
0.4420014
0.4274223
0.4274022
0.4261119
0.4308341
0.4308106
0.4289766
0.4364648
0.436419
0.4331634
0.4736776
0.4735502
0.4418468
0.427399
0.4273948
0.4261029
0.4307869
0.4307627
0.4289519
0.436373
0.4363274
0.4331012
0.4734462
0.4733679
0.4416933
0.4273902
0.4273862
0.426094
0.4307582
0.4307533
0.4289439
0.4362817
0.4362336
0.4330631
0.4733142
0.4732869
0.4415408
0.4273817
0.4273773
0.4260848
0.4307479
0.4307425
0.4289355
0.436225
0.4362135
0.4330482
0.4732774
0.4731828
0.4414536
0.4273727
0.4273679
0.4260756
0.4307367
0.4307309
0.4289265
0.4362015
0.4361897
0.4330325
0.4743156
0.4743919
0.4414468
0.4273634
0.4273582
0.4260659
0.430725
0.4307188
0.4289171
0.4361767
0.4361644
0.4330162
0.4748608
0.4754303
0.441441
0.4273506
0.427304
0.4260533
0.4307127
0.4307014
0.4288399
0.4361516
0.4361384
0.4329991
0.4760603
0.4756893
0.4414389
0.4272485
0.4272383
0.4260397
0.4306909
0.4306842
0.4287752
0.4361253
0.4361115
0.4329813
0.4773002
0.4752419
0.441438
0.4272312
0.4272249
0.4260288
0.4306775
0.4306704
0.428762
0.4360978
0.4360834
0.4329627
0.475901
0.4747046
0.4414402
0.4272179
0.4272108
0.4260176
0.4306634
0.430656
0.4287478
0.4360687
0.4360538
0.4329432
0.4746359
0.4740146
0.4414513
0.427204
0.4271963
0.4260055
0.4306487
0.4306408
0.4287329
0.4360382
0.4360229
0.4329225
0.4737399
0.4733602
0.4414594
0.4271888
0.4271804
0.4259928
0.4306329
0.4306248
0.4287169
0.4360063
0.4359905
0.4329015
0.4730681
0.4727677
0.4414723
0.4271715
0.4271649
0.4259783
0.4306143
0.4305547
0.4286666
0.4359737
0.4359563
0.4328756
0.4724594
0.4721809
0.4414835
0.4304601
0.4304107
0.428543
0.4359386
0.4359201
0.4328427
0.4718847
0.4715918
0.4414989
0.4271311
0.4271229
0.4259515
0.4303975
0.4303856
0.4285171
0.4359017
0.4358823
0.4328173
0.4713008
0.4710215
0.4415181
0.4271146
0.4271053
0.4259336
0.4303735
0.4303611
0.4284944
0.4358625
0.4358424
0.4327909
0.4707347
0.4704464
0.4415418
0.4270952
0.4270853
0.4259169
0.4303439
0.4302855
0.4284677
0.4358216
0.435793
0.4326816
0.4701593
0.4698688
0.4415793
0.4270748
0.4270638
0.4258999
0.4301767
0.4301122
0.4284359
0.4357599
0.4357315
0.4324613
0.4695798
0.4692939
0.4416156
0.4232139
0.423207
0.4225338
0.4248804
0.4248715
0.4239907
0.4270525
0.4270404
0.4258789
0.4300919
0.4300746
0.4284073
0.4357079
0.4356834
0.4324229
0.4690134
0.4687215
0.4416487
0.4232
0.4231923
0.4225145
0.4248634
0.4248537
0.4239731
0.4270278
0.4270149
0.4258564
0.430057
0.4300388
0.4283784
0.4356586
0.4356193
0.4323719
0.4684306
0.4681406
0.4416894
0.4231816
0.4231709
0.4224546
0.4248432
0.4248324
0.4239534
0.4270009
0.426987
0.4258327
0.430015
0.4299894
0.4283467
0.4353867
0.4352046
0.4320778
0.4678552
0.467564
0.4417154
0.4231563
0.4231168
0.4224111
0.4248208
0.4248086
0.4239292
0.4269718
0.4269562
0.4258065
0.4299683
0.4299465
0.4283121
0.435158
0.4351262
0.432006
0.4672809
0.4669874
0.4417496
0.4230831
0.4230629
0.4223589
0.4247959
0.4247823
0.4238965
0.4269403
0.4269235
0.425777
0.4299242
0.4299006
0.4282752
0.4350744
0.434853
0.4319411
0.4666814
0.4663555
0.4412075
0.4230253
0.4229779
0.4223322
0.4247653
0.4247458
0.4238014
0.4269069
0.4268881
0.4257445
0.4298769
0.4298518
0.4282336
0.4346095
0.43454
0.4318713
0.4659791
0.4650834
0.4408784
0.4229551
0.4229369
0.4223039
0.4247025
0.4246404
0.4237062
0.4268694
0.4268502
0.4257024
0.4298266
0.4298011
0.4281905
0.4344912
0.4344392
0.4318067
0.4642108
0.463931
0.4406118
0.4229182
0.4229
0.4222726
0.4245956
0.4245402
0.4236416
0.426831
0.4268064
0.4256011
0.4297786
0.4297589
0.4281493
0.4344604
0.4343419
0.4317574
0.4627364
0.4611132
0.4394499
0.42288
0.4228598
0.4222375
0.4244697
0.4244365
0.4235977
0.4267841
0.4267569
0.4255039
0.4297462
0.4297435
0.4281162
0.4342345
0.4341224
0.4317494
0.4607376
0.4601611
0.4387974
0.4228378
0.422815
0.4221974
0.4244124
0.4243956
0.4235535
0.4267031
0.4266873
0.4253813
0.4298189
0.4300335
0.4282112
0.4340978
0.434362
0.4322204
0.4509859
0.4479147
0.4366742
0.4227935
0.4227744
0.4221488
0.4243976
0.424446
0.4235388
0.4267303
0.4268741
0.4255417
0.4303657
0.4308481
0.4287231
0.4349498
0.4358595
0.4334575
0.4466943
0.4453631
0.4370907
0.4227762
0.422831
0.4221222
0.4245943
0.4248539
0.4237368
0.4272098
0.4277731
0.4261916
0.4314195
0.432006