/*--------------------------------*- C++ -*----------------------------------*\
| =========                 |                                                 |
| \\      /  F ield         | OpenFOAM: The Open Source CFD Toolbox           |
|  \\    /   O peration     | Version:  2206                                  |
|   \\  /    A nd           | Website:  www.openfoam.com                      |
|    \\/     M anipulation  |                                                 |
\*---------------------------------------------------------------------------*/
FoamFile
{
    version     2.0;
    format      ascii;
    arch        "LSB;label=32;scalar=64";
    class       volScalarField;
    location    "1";
    object      alpha.a_0;
}
// * * * * * * * * * * * * * * * * * * * * * * * * * * * * * * * * * * * * * //

dimensions      [0 0 0 0 0 0 0];

internalField   nonuniform List<scalar> 
13078
(
0.5404174
0.5710501
0.5816091
0.5812912
0.5806564
0.5799146
0.5790522
0.5734221
0.5821708
0.5819684
0.5813455
0.5806852
0.5799348
0.5790719
0.5830933
0.5826613
0.582048
0.5814087
0.5807245
0.5799629
0.5790963
0.583319
0.5827024
0.5820915
0.5814552
0.580761
0.579992
0.5791222
0.583323
0.5827182
0.5821162
0.5814779
0.5807905
0.5800192
0.5791476
0.5833038
0.5827179
0.5821267
0.5814915
0.5808035
0.5800423
0.5791718
0.5832872
0.5827127
0.582132
0.5815015
0.5808123
0.580051
0.5791931
0.5832758
0.5827071
0.582135
0.5815072
0.5808176
0.5800569
0.5791999
0.5832682
0.5827024
0.5821342
0.5815089
0.5808207
0.5800611
0.5792048
0.5832629
0.5826989
0.5821331
0.5815097
0.5808228
0.5800643
0.5792086
0.5832594
0.5826964
0.5821321
0.5815102
0.5808243
0.5800668
0.579212
0.5832567
0.5826948
0.5821315
0.5815105
0.5808256
0.5800689
0.579215
0.5832548
0.5826935
0.5821311
0.5815109
0.5808267
0.5800709
0.5792178
0.5832533
0.5826928
0.5821311
0.5815117
0.5808282
0.5800729
0.5792206
0.5832523
0.5826923
0.5821314
0.581516
0.5808348
0.5800754
0.5792233
0.5832515
0.5826921
0.582132
0.5815215
0.5808402
0.5800778
0.5792262
0.5832509
0.5826919
0.5821325
0.581523
0.5808421
0.58008
0.5792291
0.5832503
0.582692
0.5821331
0.5815243
0.5808439
0.5800823
0.5792322
0.5832499
0.5826922
0.5821339
0.5815257
0.5808462
0.5800854
0.5792354
0.5832495
0.5826925
0.5821349
0.5815278
0.5808538
0.5800962
0.5792396
0.5832493
0.5826928
0.582136
0.58153
0.5808633
0.5801053
0.5792439
0.5832489
0.5826933
0.5821371
0.5815319
0.5808666
0.5801091
0.5792479
0.5832486
0.5826938
0.5821385
0.5815341
0.5808696
0.5801135
0.579253
0.5832483
0.5826944
0.5821399
0.5815365
0.5808736
0.5801254
0.5792698
0.5832479
0.582695
0.5821414
0.5815391
0.5808781
0.5801401
0.5792841
0.5832474
0.5826957
0.5821433
0.5815422
0.5808823
0.5801466
0.5792913
0.5832467
0.5826963
0.5821452
0.5815455
0.580887
0.5801529
0.5792994
0.5832459
0.5826971
0.5821473
0.5815492
0.5808925
0.5801607
0.579319
0.5832449
0.5826978
0.5821497
0.5815534
0.5808987
0.5801696
0.5793434
0.5832449
0.5827
0.5821527
0.5815581
0.5809056
0.5801787
0.5793562
0.5832446
0.5827019
0.5821558
0.5815635
0.5809134
0.5801889
0.5793701
0.5832425
0.5827047
0.5821635
0.5815703
0.5809221
0.5802005
0.5793858
0.5832394
0.5827083
0.5821739
0.5815847
0.580933
0.5802138
0.5794019
0.5832355
0.5827095
0.5821842
0.5815971
0.5809455
0.5802291
0.5794204
0.5832309
0.5827105
0.582191
0.5816135
0.5809699
0.5802488
0.5794419
0.5832259
0.5827122
0.582199
0.5816347
0.5810016
0.580285
0.5794686
0.5832212
0.5827154
0.5822087
0.5816522
0.5810349
0.580318
0.5795001
0.5832183
0.5827215
0.5822219
0.5816713
0.5810616
0.5803617
0.5795559
0.5832183
0.5827322
0.5822402
0.581697
0.5810975
0.5804249
0.5796205
0.5832254
0.5827534
0.5822723
0.5817476
0.5811711
0.5805243
0.5797452
0.5832431
0.5828001
0.5823553
0.581864
0.5813314
0.5807107
0.5799509
0.5832889
0.5829004
0.5825318
0.5821165
0.5815992
0.5809519
0.5800855
0.5833884
0.5831032
0.5828294
0.5824534
0.5819065
0.5810796
0.5800534
0.5835805
0.5834058
0.5831772
0.5827463
0.5820316
0.5810839
0.579875
0.5838824
0.5837495
0.5834549
0.5828568
0.5820081
0.5809783
0.5797285
0.584266
0.5840454
0.5836148
0.582875
0.5819566
0.5809418
0.5796386
0.5846949
0.5842246
0.5836391
0.5828775
0.5820541
0.5810193
0.5797137
0.5851129
0.5843243
0.5836917
0.5829509
0.5822214
0.581232
0.5798928
0.5854719
0.5844064
0.5837606
0.5830933
0.5823646
0.5813515
0.5800511
0.5857732
0.5845253
0.5838443
0.5831846
0.5824529
0.5815017
0.5802107
0.5860396
0.5847361
0.5840112
0.5832153
0.5824395
0.5814917
0.5802651
0.5862714
0.5849607
0.5841592
0.5833021
0.5824477
0.5814158
0.5801687
0.5864799
0.5852135
0.5842692
0.5833318
0.5823435
0.5811694
0.5799574
0.5866457
0.5854532
0.5844755
0.5834427
0.5823104
0.5810863
0.5799747
0.5867454
0.5856285
0.5846321
0.5835427
0.5823235
0.5811003
0.5800665
0.5867667
0.5857185
0.5847218
0.5836094
0.5823631
0.5811445
0.5801352
0.5867819
0.5857426
0.5847513
0.5836446
0.5824021
0.581186
0.5801792
0.5867752
0.5856706
0.5846836
0.5836053
0.5823972
0.5811822
0.5801611
0.5866888
0.5855087
0.5845429
0.5835279
0.5824173
0.5812159
0.5801335
0.586543
0.585296
0.5843692
0.5834598
0.5825121
0.5813814
0.580198
0.58635
0.5850619
0.5842926
0.5834751
0.5826629
0.5816787
0.5804717
0.5861259
0.5848412
0.5841266
0.583357
0.5826498
0.5817865
0.5806369
0.5858557
0.5846186
0.583966
0.583351
0.5826946
0.5818485
0.5806576
0.585554
0.5844988
0.5838909
0.5832741
0.5826237
0.5817263
0.5805273
0.5851897
0.5844066
0.5838177
0.5831325
0.5824737
0.5815781
0.5803745
0.5847692
0.5842959
0.5837456
0.5830337
0.5822796
0.5813575
0.580198
0.5843327
0.5841107
0.5836978
0.5830063
0.5821602
0.5812498
0.5800867
0.5839373
0.5838132
0.5835262
0.5829596
0.5821763
0.581232
0.5801013
0.5836207
0.5834611
0.5832436
0.5828269
0.5821534
0.5812816
0.5801682
0.5834151
0.5831442
0.5828854
0.5825231
0.5819958
0.5812252
0.5802598
0.5833063
0.5829267
0.5825713
0.5821721
0.5816723
0.5810364
0.5802039
0.5832552
0.5828177
0.5823819
0.5819033
0.5813792
0.5807631
0.5800072
0.5832344
0.5827674
0.5822928
0.5817722
0.5811992
0.5805543
0.5797795
0.583226
0.5827442
0.5822561
0.5817134
0.5811138
0.5804443
0.5796421
0.5832246
0.5827312
0.5822338
0.5816841
0.5810732
0.5803747
0.5795705
0.5832265
0.5827226
0.5822172
0.5816602
0.5810377
0.5803245
0.5795098
0.5832301
0.5827175
0.5822045
0.581641
0.5810041
0.5802849
0.5794754
0.5832342
0.5827146
0.5821955
0.5816185
0.5809751
0.5802538
0.5794475
0.5832379
0.5827125
0.5821876
0.5816008
0.5809495
0.5802332
0.5794245
0.5832413
0.5827107
0.5821767
0.5815875
0.5809361
0.5802168
0.5794047
0.5832443
0.5827067
0.5821656
0.5815724
0.5809244
0.5802028
0.5793876
0.5832462
0.5827036
0.5821574
0.5815652
0.5809151
0.5801905
0.5793714
0.5832463
0.5827015
0.5821541
0.5815595
0.5809069
0.5801798
0.5793572
0.5832461
0.5826991
0.5821509
0.5815545
0.5808997
0.5801705
0.5793441
0.583247
0.5826982
0.5821483
0.5815501
0.5808933
0.5801614
0.5793197
0.5832477
0.5826973
0.582146
0.5815462
0.5808877
0.5801535
0.5792998
0.5832483
0.5826966
0.582144
0.5815427
0.5808829
0.5801471
0.5792916
0.5832487
0.5826957
0.5821421
0.5815396
0.5808785
0.5801404
0.5792843
0.583249
0.582695
0.5821404
0.581537
0.5808741
0.5801257
0.57927
0.5832493
0.5826944
0.5821389
0.5815345
0.58087
0.5801138
0.5792532
0.5832495
0.5826938
0.5821375
0.5815322
0.5808669
0.5801093
0.5792481
0.5832497
0.5826933
0.5821364
0.5815302
0.5808634
0.5801055
0.579244
0.5832499
0.5826929
0.5821352
0.5815279
0.5808539
0.5800963
0.5792396
0.5832502
0.5826925
0.5821341
0.5815258
0.5808462
0.5800853
0.5792353
0.5832505
0.5826922
0.5821332
0.5815244
0.580844
0.5800823
0.5792321
0.5832509
0.5826919
0.5821325
0.581523
0.5808421
0.58008
0.5792292
0.5832513
0.5826919
0.5821319
0.5815214
0.5808402
0.5800778
0.5792262
0.5832519
0.5826919
0.5821311
0.5815158
0.5808347
0.5800754
0.5792233
0.5832526
0.5826921
0.5821306
0.5815114
0.5808281
0.5800729
0.5792206
0.5832536
0.5826926
0.5821305
0.5815106
0.5808266
0.580071
0.579218
0.5832549
0.5826935
0.5821307
0.5815101
0.5808256
0.5800692
0.5792155
0.5832569
0.5826947
0.5821311
0.5815098
0.5808245
0.5800674
0.5792129
0.5832596
0.5826965
0.5821317
0.5815094
0.5808233
0.5800653
0.57921
0.5832632
0.5826989
0.5821327
0.581509
0.5808219
0.580063
0.5792068
0.5832684
0.5827024
0.5821336
0.5815082
0.58082
0.5800598
0.5792029
0.5832759
0.5827071
0.5821319
0.5815045
0.5808166
0.5800557
0.5791974
0.5832873
0.5827127
0.5821298
0.5814982
0.5808111
0.5800493
0.5791778
0.5833039
0.5827182
0.5821267
0.5814912
0.5808029
0.5800292
0.5791553
0.5833228
0.5827186
0.5821165
0.5814785
0.5807795
0.5800053
0.5791313
0.5833177
0.5827029
0.5820944
0.581446
0.5807494
0.5799785
0.5791058
0.5830803
0.5826688
0.5820405
0.5813995
0.5807135
0.5799495
0.5790798
0.573511
0.5822259
0.5819789
0.5813328
0.5806705
0.579919
0.5790539
0.5780361
0.5767615
0.575063
0.5734502
0.5705904
0.5661214
0.5561595
0.5780582
0.5767898
0.5750992
0.573493
0.5706428
0.566194
0.5565165
0.5780829
0.576819
0.5751371
0.5729339
0.5706931
0.5662648
0.5567513
0.5781087
0.5768486
0.5751727
0.5735841
0.570746
0.5663359
0.5569702
0.5781341
0.5768785
0.5752101
0.5736281
0.5707984
0.5664068
0.5571341
0.5781591
0.5769085
0.5752476
0.5736729
0.5708502
0.5664775
0.5572953
0.5781832
0.5769381
0.5752848
0.5737163
0.5708653
0.5665479
0.557454
0.5782051
0.5769672
0.5753215
0.5737587
0.5708794
0.5666177
0.5576111
0.5782114
0.576994
0.5753564
0.5738017
0.5709209
0.5666803
0.5577674
0.5782161
0.5770013
0.5753889
0.5738445
0.570962
0.5667429
0.5579229
0.5782202
0.5770068
0.5753979
0.573886
0.5710031
0.5668053
0.5580779
0.5782242
0.5770123
0.5754048
0.5738953
0.5710444
0.5668678
0.5582321
0.578228
0.5770176
0.5754119
0.5739037
0.5710519
0.5669315
0.5583857
0.5782318
0.577023
0.5754192
0.5739125
0.5710602
0.5669445
0.5585372
0.5782355
0.5770285
0.5754267
0.5739215
0.5710691
0.5669597
0.5585457
0.5782395
0.5770343
0.5754344
0.5739309
0.5710786
0.5669759
0.5585608
0.5782435
0.5770402
0.5754423
0.5739409
0.5710927
0.5669928
0.558564
0.5782477
0.5770462
0.5754508
0.5739556
0.5712144
0.5670106
0.5585629
0.5782521
0.5770522
0.5754594
0.5739663
0.5712315
0.5670287
0.5585666
0.5782567
0.5770585
0.5754685
0.5739775
0.5712455
0.5670476
0.558563
0.5782615
0.5770652
0.5754778
0.5739893
0.5712601
0.5670673
0.5585398
0.5782668
0.5770722
0.5754875
0.5740018
0.5712754
0.5670881
0.5585323
0.5782723
0.5770797
0.575498
0.5740138
0.5712947
0.5671099
0.5585225
0.5782795
0.5770877
0.5755096
0.5734666
0.5714106
0.5671435
0.5585123
0.5782869
0.5770962
0.5755212
0.5740411
0.5714716
0.5671708
0.558499
0.5782942
0.5771053
0.5755336
0.5740582
0.5714945
0.5671963
0.558482
0.5783038
0.5771158
0.5755474
0.574075
0.571518
0.5672272
0.5584485
0.578331
0.5771275
0.5755614
0.5740924
0.5715495
0.5674666
0.5584095
0.5783532
0.5774633
0.5760006
0.5741112
0.571579
0.5675596
0.5583797
0.5783684
0.5774768
0.5760181
0.5741321
0.5716069
0.5675972
0.5583403
0.578408
0.5775214
0.5760366
0.5741548
0.5716372
0.5677643
0.5583075
0.5784402
0.5775654
0.576057
0.5741802
0.5716705
0.5679671
0.5582774
0.5784627
0.5776321
0.5760844
0.5742083
0.5717068
0.568024
0.55827
0.5784849
0.5776631
0.5761529
0.5742392
0.5717462
0.5680981
0.5590952
0.5785103
0.5776938
0.5762332
0.5742757
0.5717887
0.5681622
0.5592154
0.5785395
0.5777268
0.5763357
0.574329
0.5718314
0.5682188
0.562115
0.5785729
0.5777648
0.5763804
0.57446
0.5718709
0.5682615
0.5606033
0.5786164
0.5778082
0.5764255
0.5745571
0.5718853
0.5681211
0.5621903
0.5786768
0.577864
0.5764646
0.5746123
0.5716501
0.5672209
0.5633127
0.578786
0.5779368
0.5764109
0.5742339
0.5709073
0.5659274
0.561304
0.5788644
0.5779229
0.5760523
0.5733525
0.5698255
0.5650704
0.5581408
0.5788732
0.5777527
0.5754252
0.5721765
0.5689377
0.5650462
0.5575866
0.5785952
0.5773988
0.574708
0.5716106
0.5689096
0.565957
0.5587213
0.5781848
0.576811
0.5738914
0.571183
0.5689346
0.5660905
0.560136
0.5778865
0.5763117
0.5732705
0.5708969
0.569208
0.5658225
0.5604538
0.5778284
0.5757751
0.5724759
0.5708792
0.568929
0.5659301
0.5595482
0.5777474
0.5755001
0.5720317
0.570667
0.5687545
0.5655459
0.560221
0.5778504
0.5753798
0.5721204
0.5707861
0.5687305
0.5656807
0.5631064
0.5781698
0.5758351
0.5723303
0.5708869
0.5692374
0.5660524
0.5636929
0.5783846
0.575968
0.5720648
0.5707988
0.568808
0.5668167
0.5648241
0.5782588
0.5760526
0.5716915
0.5703447
0.5691166
0.5678332
0.5654797
0.5780483
0.5755957
0.5712663
0.5703543
0.5697378
0.5677116
0.5635215
0.5780846
0.5754862
0.5714763
0.5707071
0.5700826
0.5678345
0.5655176
0.5783829
0.5759308
0.5722846
0.5714659
0.571152
0.569303
0.5675922
0.5787908
0.5768092
0.5734832
0.5726625
0.5718904
0.5729722
0.5674837
0.5790285
0.5774229
0.5745853
0.5739838
0.5735152
0.5729389
0.5790833
0.5776566
0.5749239
0.5745052
0.5741
0.5734118
0.5789248
0.5775275
0.5741805
0.5734899
0.5731543
0.5730932
0.5786046
0.5768666
0.5729948
0.5724687
0.571954
0.5713473
0.5687797
0.5783766
0.5761256
0.572058
0.5713275
0.5708787
0.5687002
0.563919
0.5784185
0.5758054
0.5717267
0.5707699
0.5697203
0.5680232
0.5647835
0.5787068
0.5763465
0.5719795
0.5706504
0.5696637
0.5681601
0.5643036
0.5789103
0.5769557
0.5722952
0.5709373
0.5691689
0.5674623
0.5653664
0.5787387
0.57681
0.5729729
0.5713664
0.5694355
0.566777
0.5647553
0.5784643
0.5766365
0.5729297
0.5713677
0.5692003
0.5667118
0.5635474
0.578386
0.5764194
0.5730086
0.5710337
0.569263
0.5659194
0.5614527
0.578448
0.5766219
0.5732445
0.5714239
0.5690753
0.5666673
0.5596879
0.578473
0.5767255
0.5739677
0.5717231
0.5697739
0.5663518
0.5608678
0.5786446
0.5770827
0.5745803
0.5721688
0.5699666
0.5667261
0.5612311
0.5788879
0.5774411
0.5750707
0.5725489
0.5698692
0.5670533
0.5606943
0.5790368
0.577795
0.5756956
0.5726743
0.5698252
0.5662885
0.5590145
0.578958
0.5779553
0.5761339
0.5732529
0.5699588
0.5655629
0.5577901
0.5788257
0.5779392
0.576404
0.574069
0.5707839
0.5657743
0.5592011
0.5787005
0.5778777
0.5764949
0.5745255
0.5713666
0.5665439
0.5623955
0.5786316
0.5778197
0.5764644
0.5746341
0.5717849
0.5676644
0.5632754
0.5785834
0.577773
0.5764141
0.5745068
0.5718857
0.568245
0.5617264
0.578547
0.5777346
0.5763662
0.5744079
0.5718576
0.5682523
0.5607216
0.5785156
0.5777012
0.5762991
0.5743037
0.571816
0.5681976
0.5594712
0.5784886
0.5776712
0.5762016
0.5742602
0.5717716
0.5681339
0.5591636
0.5784652
0.5776431
0.576106
0.5742263
0.5717295
0.568064
0.5588192
0.5784419
0.5775907
0.5760724
0.5741959
0.5716908
0.5679985
0.5582705
0.5784094
0.5775467
0.5760478
0.5741686
0.5716553
0.5679245
0.5582993
0.5783691
0.5774862
0.576028
0.5741441
0.5716228
0.5676297
0.5583209
0.5783537
0.5774666
0.5760093
0.5741223
0.5715934
0.567579
0.5583576
0.5783314
0.5771278
0.5755616
0.5741008
0.5715653
0.5675398
0.558388
0.5783041
0.5771161
0.5755476
0.5740834
0.5715325
0.5673196
0.5584204
0.5782944
0.5771055
0.5755339
0.5740666
0.5715056
0.5672092
0.5584556
0.5782871
0.5770964
0.5755213
0.5740507
0.5714822
0.5671824
0.558476
0.5782796
0.5770877
0.5755092
0.5740354
0.5714571
0.5671572
0.5584946
0.5782724
0.5770797
0.5754981
0.5740208
0.5713331
0.5671237
0.5585058
0.5782668
0.5770721
0.5754874
0.5740071
0.5712823
0.5670972
0.5585163
0.5782616
0.577065
0.5754774
0.5739944
0.5712666
0.567076
0.5585297
0.5782566
0.5770583
0.575468
0.5739821
0.5712515
0.5670557
0.5585363
0.5782519
0.577052
0.5754589
0.5739707
0.5712373
0.5670363
0.5585446
0.5782476
0.577046
0.5754504
0.5739597
0.5712238
0.5670178
0.5585479
0.5782434
0.57704
0.575442
0.5739464
0.5711596
0.5669998
0.5585459
0.5782394
0.5770341
0.5754341
0.5739345
0.5710826
0.5669826
0.5585416
0.5782355
0.5770285
0.5754265
0.5739247
0.571073
0.566966
0.5585355
0.5782319
0.5770231
0.5754191
0.5739152
0.5710639
0.5669503
0.5585292
0.5782283
0.5770179
0.575412
0.5739062
0.5710554
0.5669357
0.5584423
0.5782248
0.5770128
0.5754052
0.5738973
0.5710472
0.5668975
0.5582892
0.5782212
0.5770077
0.5753985
0.5738888
0.5710231
0.5668352
0.5581352
0.5782175
0.5770025
0.5753898
0.5738634
0.5709825
0.5667728
0.5579806
0.5782133
0.5769957
0.5753577
0.5738208
0.5709415
0.5667105
0.5578256
0.5782078
0.5769696
0.5753234
0.5737776
0.5709005
0.5666479
0.5576702
0.5781869
0.5769411
0.5752872
0.573734
0.5708611
0.566582
0.5575143
0.5781638
0.5769122
0.5752504
0.5736924
0.5708748
0.566512
0.5573576
0.5781397
0.5768826
0.5752132
0.5736483
0.5708248
0.5664416
0.5571994
0.5781148
0.5768526
0.5751757
0.5736041
0.5707729
0.5663711
0.5570392
0.5780887
0.5768223
0.5751382
0.5735597
0.570721
0.5663003
0.5568563
0.5780626
0.5767923
0.5751008
0.573516
0.5706688
0.5662295
0.5566272
0.5780369
0.576762
0.5750635
0.5734726
0.5706167
0.5661581
0.5563495
0.003882803
3.506542e-08
7.073906e-14
5.979754e-20
3.069575e-26
1.064192e-32
2.580174e-39
4.664547e-46
5.693041e-53
7.309921e-60
9.706081e-67
1.313712e-73
1.772758e-80
2.653989e-87
5.432797e-94
9.415806e-101
2.028607e-107
4.25058e-114
0.006342916
6.087793e-09
6.662225e-15
6.142154e-21
4.895269e-27
2.884036e-33
1.177293e-39
3.416379e-46
6.63739e-53
1.235257e-59
2.113284e-66
3.098839e-73
3.931775e-80
4.312579e-87
4.800422e-94
2.825026e-101
2.212019e-108
1.945484e-115
0.006701987
1.419651e-08
1.29881e-14
9.006307e-21
5.829043e-27
3.241353e-33
1.395368e-39
4.438726e-46
9.727577e-53
2.040905e-59
3.863397e-66
6.291685e-73
8.733338e-80
1.046225e-86
1.259922e-93
7.922893e-101
6.408647e-108
5.306108e-115
0.007208664
1.9126e-08
2.04124e-14
1.520243e-20
9.754271e-27
5.276538e-33
2.307769e-39
7.745161e-46
1.838796e-52
4.219434e-59
8.736558e-66
1.554172e-72
2.362855e-79
3.106897e-86
4.062966e-93
2.775238e-100
2.406901e-107
2.050144e-114
0.007851241
2.449598e-08
2.976904e-14
2.435655e-20
1.665878e-26
9.464237e-33
4.414885e-39
1.594624e-45
4.178961e-52
1.051694e-58
2.397664e-65
4.669532e-72
7.774245e-79
1.128203e-85
2.106245e-93
1.582378e-99
1.231484e-106
1.079258e-113
0.008621621
3.058145e-08
4.154049e-14
3.754264e-20
2.822874e-26
1.7548e-32
9.028883e-39
3.595056e-45
1.05262e-51
2.956592e-58
7.454191e-65
1.610004e-71
2.943069e-78
4.724429e-85
6.383118e-92
7.540602e-99
7.211343e-106
7.254129e-113
0.009508437
3.770453e-08
5.677283e-14
5.657295e-20
4.728059e-26
3.307542e-32
1.923e-38
8.633018e-45
2.883007e-51
9.178254e-58
2.590535e-64
6.218306e-71
1.269932e-77
2.254253e-84
3.673372e-91
4.394951e-98
4.87304e-105
5.649108e-112
0.0105019
4.609535e-08
7.654088e-14
8.41313e-20
7.910123e-26
6.306217e-32
4.21439e-38
2.166353e-44
8.26652e-51
3.020215e-57
9.613279e-64
2.592111e-70
5.919582e-77
1.182801e-83
2.179858e-90
3.06535e-97
4.373052e-104
7.634869e-111
0.01159429
5.619935e-08
1.030489e-13
1.257009e-19
1.337203e-25
1.226957e-31
9.48215e-38
5.660158e-44
2.498501e-50
1.046588e-56
3.79133e-63
1.151113e-69
2.962306e-76
6.677363e-83
1.374799e-89
2.077901e-96
2.961034e-103
4.41733e-110
0.01277908
6.852291e-08
1.394487e-13
1.896442e-19
2.30512e-25
2.451528e-31
2.201768e-37
1.527637e-43
7.813536e-50
3.772033e-56
1.562586e-62
5.407388e-69
1.592895e-75
4.055461e-82
9.415767e-89
1.571145e-95
2.480874e-102
3.979161e-109
0.01405221
8.372168e-08
1.9024e-13
2.91091e-19
4.078996e-25
5.079381e-31
5.325905e-37
4.313982e-43
2.558034e-49
1.433588e-55
6.808633e-62
2.684463e-68
8.933217e-75
2.574655e-81
6.722583e-88
1.239573e-94
2.192683e-101
3.949776e-108
0.01541268
1.032143e-07
2.673262e-13
4.682085e-19
7.660443e-25
1.117589e-30
1.370322e-36
1.286954e-42
8.843798e-49
5.730055e-55
3.103506e-61
1.388095e-67
5.230058e-74
1.699465e-80
4.982715e-87
1.03409e-93
2.068501e-100
4.162369e-107
0.016861
1.314459e-07
4.004929e-13
8.232388e-19
1.592355e-24
2.714119e-30
3.848338e-36
4.152512e-42
3.279309e-48
2.431738e-54
1.495121e-60
7.580288e-67
3.217361e-73
1.173896e-79
3.871021e-86
8.994769e-93
2.024136e-99
4.618103e-106
0.01852348
2.011174e-07
7.758985e-13
1.93749e-18
4.324135e-24
8.08961e-30
1.269291e-35
1.534521e-41
1.370765e-47
1.147953e-53
7.99027e-60
4.537659e-66
2.157081e-72
8.831528e-79
3.24389e-85
8.489023e-92
2.149463e-98
5.479436e-105
0.02695365
3.767434e-07
1.837062e-12
5.887932e-18
1.647567e-23
3.658516e-29
6.537296e-35
8.96148e-41
9.272651e-47
9.082187e-53
7.336114e-59
4.859714e-65
2.692265e-71
1.281025e-77
5.429735e-84
1.627104e-90
4.81252e-97
1.389414e-103
0.0298727
3.891508e-08
5.493481e-13
1.322187e-18
4.862931e-24
1.672107e-29
4.32131e-35
8.026726e-41
1.071751e-46
1.296679e-52
1.260112e-58
9.890895e-65
6.470723e-71
3.655412e-77
1.87702e-83
6.996175e-90
2.576286e-96
9.368466e-103
0.03394327
5.109004e-07
2.405751e-13
3.163752e-18
6.33068e-24
1.715734e-29
5.470407e-35
1.388498e-40
2.548607e-46
4.232512e-52
5.587436e-58
5.917801e-64
5.218738e-70
4.003479e-76
2.767954e-82
1.343597e-88
6.447639e-95
2.906783e-101
0.03818363
6.822093e-07
3.901939e-12
9.962034e-19
1.902292e-23
3.691311e-29
9.347835e-35
2.244907e-40
4.216902e-46
7.413289e-52
1.045001e-57
1.173703e-63
1.084064e-69
8.548878e-76
6.066345e-82
3.008485e-88
1.490069e-94
7.196026e-101
0.03998788
8.613716e-07
5.614438e-12
2.31334e-17
8.492913e-24
1.127325e-28
2.243726e-34
5.887452e-40
1.371007e-45
2.885077e-51
4.686006e-57
5.974264e-63
6.209152e-69
5.512538e-75
4.356396e-81
2.351087e-87
1.280182e-93
6.682724e-100
0.04180076
1.118498e-06
9.332253e-12
4.321464e-17
1.691951e-22
9.054612e-29
9.125524e-34
1.739935e-39
3.256982e-45
6.550641e-51
1.092343e-56
1.485159e-62
1.696532e-68
1.701718e-74
1.677795e-80
9.427256e-87
6.555958e-93
4.280452e-99
0.04395094
1.057571e-06
9.809855e-12
5.531547e-17
2.74198e-22
1.238889e-27
1.059408e-33
8.136314e-39
1.400272e-44
2.517171e-50
4.312142e-56
6.545297e-62
8.446688e-68
9.313649e-74
8.746536e-80
1.609566e-86
1.473831e-92
7.890735e-99
0.04635571
1.163898e-06
1.106728e-11
7.307532e-17
4.640529e-22
2.546856e-27
1.215833e-32
1.137623e-38
7.276684e-44
1.480687e-49
2.515554e-55
3.698142e-61
4.788182e-67
5.589423e-73
5.746702e-79
4.065951e-85
3.273514e-91
2.410041e-97
0.04895804
1.477823e-06
1.57863e-11
1.163326e-16
8.511966e-22
5.399757e-27
2.920885e-32
1.249309e-37
1.181779e-43
8.076926e-49
1.652599e-54
2.718975e-60
3.770689e-66
4.493554e-72
4.639286e-78
3.454894e-84
2.966355e-90
2.37916e-96
0.05171867
1.892781e-06
2.304161e-11
1.86073e-16
1.516191e-21
1.107267e-26
6.90987e-32
3.357272e-37
1.286855e-42
1.454852e-48
8.86757e-54
1.800622e-59
2.978949e-65
4.137874e-71
4.671639e-77
3.782659e-83
3.654266e-89
3.349886e-95
0.05469754
2.341284e-06
3.323242e-11
3.028833e-16
2.749791e-21
2.275736e-26
1.626126e-31
9.0302e-37
3.935463e-42
1.630827e-47
1.868979e-53
9.752007e-59
1.870625e-64
2.94856e-70
3.722508e-76
3.155733e-82
3.024955e-88
2.900003e-94
0.05777913
2.879893e-06
4.726739e-11
4.868905e-16
4.893016e-21
4.550094e-26
3.71472e-31
2.360029e-36
1.173666e-41
5.555076e-47
2.120196e-52
3.310015e-58
1.11987e-63
2.166587e-69
0
3.160893e-81
1.737434e-87
2.203358e-93
0.06108005
3.51048e-06
6.684982e-11
7.926643e-16
9.0482e-21
9.485813e-26
8.765335e-31
6.325761e-36
3.576278e-41
1.928071e-46
8.34431e-52
2.893543e-57
5.213243e-63
1.46886e-68
1.983341e-74
2.690929e-80
3.372391e-86
3.817707e-92
0.06459099
4.306263e-06
9.565587e-11
1.32989e-15
1.778928e-20
2.13496e-25
2.233383e-30
1.820972e-35
1.160376e-40
7.098978e-46
3.481841e-51
1.379238e-56
4.491842e-62
8.345612e-68
1.653168e-73
2.854103e-79
4.245108e-85
5.444349e-91
0.068249
5.296873e-06
1.371154e-10
2.218627e-15
3.373611e-20
4.512656e-25
5.288858e-30
4.828803e-35
3.412749e-40
2.326575e-45
1.258351e-50
5.507321e-56
2.017733e-61
6.981372e-67
9.133267e-73
2.354722e-78
4.541329e-84
7.082351e-90
0.07220686
6.485209e-06
1.942184e-10
3.700657e-15
6.717301e-20
1.029346e-24
1.365042e-29
1.387236e-34
1.110213e-39
8.703431e-45
5.498469e-50
2.810067e-55
1.194222e-60
4.194617e-66
6.651204e-72
3.423076e-78
6.521932e-84
2.518706e-89
0.07635732
7.920127e-06
2.710476e-10
6.058272e-15
9.283977e-20
1.382335e-24
2.057333e-29
2.525512e-34
2.463178e-39
2.261128e-44
1.671649e-49
9.961527e-55
4.938906e-60
1.891818e-65
5.629961e-71
1.801308e-76
5.141306e-82
1.463405e-87
0.08070392
9.534631e-06
3.586341e-10
8.051259e-15
1.574568e-19
3.173492e-24
5.332918e-29
7.260104e-34
1.062884e-38
8.05013e-44
6.029285e-49
4.052293e-54
2.505421e-59
1.140797e-64
4.25209e-70
1.65188e-75
5.746877e-81
1.702827e-86
0.085425
1.128182e-05
4.602984e-10
1.019174e-14
2.393535e-19
5.82312e-24
1.213338e-28
2.004158e-33
2.825618e-38
3.142382e-43
3.040938e-48
2.382841e-53
1.630679e-58
0
7.28113e-70
1.664371e-75
1.054701e-80
0
0.09085181
1.242406e-05
5.460946e-10
1.298627e-14
3.080812e-19
8.382777e-24
1.960299e-28
3.722343e-33
6.114841e-38
7.888762e-43
8.799578e-48
7.963681e-53
6.095713e-58
2.864706e-63
1.521809e-68
7.316874e-74
3.418937e-79
6.952943e-85
0.106704
2.043314e-05
1.254276e-09
4.396489e-14
6.98904e-19
1.712774e-23
3.610076e-28
7.686563e-33
1.188392e-37
2.737635e-42
3.251175e-47
3.392162e-52
3.424028e-57
1.848395e-62
1.342936e-67
8.180688e-73
3.959667e-78
9.866532e-84
0.1150145
2.730375e-05
2.111345e-09
9.384289e-14
3.764099e-18
1.363039e-22
3.803561e-27
5.600154e-32
1.821359e-36
2.385163e-41
3.255021e-46
4.058979e-51
4.327429e-56
2.617082e-61
2.015167e-66
1.41487e-71
0
2.073948e-82
0.1257224
3.218488e-05
2.944219e-09
1.454431e-13
6.640979e-18
3.032902e-22
9.904465e-27
2.524029e-31
5.757875e-36
1.0146e-40
1.721896e-45
2.615312e-50
2.769215e-55
2.531207e-60
2.364446e-65
2.077691e-70
8.126563e-76
4.391542e-81
0.225423
7.016821e-05
6.208771e-09
3.575679e-13
2.011083e-17
1.159234e-21
4.452306e-26
1.331564e-30
3.5299e-35
7.484842e-40
1.573425e-44
2.910853e-49
2.802152e-54
3.495855e-59
3.742984e-64
2.977129e-69
1.33229e-74
8.32918e-80
0.3489606
0.0001366546
8.619566e-09
4.670324e-13
2.535282e-17
1.482883e-21
5.726511e-26
1.749067e-30
5.106002e-35
1.260688e-39
3.211579e-44
7.702185e-49
1.006824e-53
1.560759e-58
2.066609e-63
1.170102e-68
8.514489e-74
5.100058e-79
0.4509859
0.0001175157
8.494351e-09
7.281581e-13
3.049878e-17
1.088847e-21
3.056797e-26
8.36718e-31
2.524545e-35
7.080769e-40
2.122256e-44
5.971222e-49
1.114351e-54
3.854854e-59
5.40126e-64
5.390177e-69
7.83788e-74
4.522891e-79
0.5069447
0.001167895
2.07159e-07
8.181657e-12
1.30824e-16
2.83769e-21
7.540975e-26
2.254427e-30
7.541001e-35
2.270692e-39
7.640597e-44
2.015657e-48
4.244972e-53
1.118467e-57
0
6.980123e-69
6.011981e-73
7.349678e-78
0.5199215
0.001018008
1.086099e-07
3.712428e-12
1.098884e-16
5.684434e-21
2.574968e-25
9.960577e-30
3.998289e-34
1.28789e-38
4.336004e-43
6.431341e-48
1.540141e-52
3.544347e-57
2.644882e-62
2.432402e-67
6.229605e-72
1.468e-76
0.5263325
0.0007539531
2.086479e-09
1.600604e-13
1.623111e-17
1.061382e-21
1.024283e-25
7.645638e-30
5.495816e-34
3.290829e-38
1.469684e-42
1.016117e-46
3.569459e-51
1.163837e-55
2.518831e-60
8.2295e-65
0
4.79198e-75
0.5291915
0.0006593137
2.192227e-08
3.220779e-12
7.001783e-16
1.145242e-19
2.429115e-23
3.761807e-27
5.89939e-31
7.434955e-35
3.81132e-39
5.147051e-43
3.619876e-47
2.082534e-51
8.207406e-56
2.586459e-60
0
1.198067e-68
0.5321686
0.001219344
2.560279e-08
4.990566e-12
2.722382e-15
9.651952e-19
3.986975e-22
1.14189e-25
4.293231e-29
4.199365e-33
0
1.166904e-40
1.32137e-44
1.034231e-48
6.642134e-53
0
2.936024e-61
1.548705e-65
0.5384204
0.001307211
9.436645e-08
3.959833e-11
4.314176e-14
2.110968e-17
2.258269e-20
1.234129e-23
5.647078e-27
2.947185e-30
8.033782e-34
2.192026e-37
2.456263e-41
3.237256e-45
3.396823e-49
2.285169e-53
3.485038e-58
9.272222e-64
0.5465504
0.00278604
9.62865e-07
8.096116e-10
1.30751e-12
1.49406e-15
1.077563e-18
7.569848e-22
4.144042e-25
2.533548e-28
9.403468e-32
5.209349e-37
2.355554e-39
5.123533e-43
6.619475e-48
0
4.505144e-57
2.333903e-61
0.5567621
0.02259395
2.686177e-05
1.717532e-08
1.626729e-11
3.757473e-14
3.863988e-17
4.211644e-20
2.574266e-23
2.204381e-26
3.181957e-30
5.295599e-34
2.915217e-37
2.093087e-41
0
4.314802e-50
0
1.606446e-59
0.561629
0.1034086
8.83358e-05
2.541641e-07
6.798187e-10
1.539708e-12
1.51502e-15
2.403884e-18
2.989051e-21
1.198696e-24
4.896573e-29
2.918399e-31
3.906568e-35
0
2.222402e-43
0
3.462807e-53
0
0.5651517
0.1527334
0.0004723488
2.939396e-06
0
1.916295e-26
4.980652e-28
3.336605e-32
1.33476e-36
2.570951e-39
4.260112e-44
6.110652e-48
7.603195e-54
3.65114e-58
0.56124
0.4861025
0
5.779752e-32
9.716364e-36
4.164927e-40
7.579116e-46
7.612328e-49
1.508996e-54
7.817158e-59
0.5568535
0
0
1.565103e-38
1.979416e-44
1.108524e-48
5.972764e-54
8.64152e-59
4.071068e-33
4.352324e-37
4.849348e-43
1.908427e-47
0
4.872523e-59
5.119132e-38
3.249367e-42
1.226574e-48
3.945379e-53
7.51313e-59
1.629745e-40
3.073783e-44
1.127286e-48
4.799227e-54
5.604879e-60
1.112145e-41
1.348645e-45
2.365481e-50
9.149403e-56
8.188519e-62
1.700268e-44
2.692731e-48
6.008492e-53
2.280327e-58
2.061924e-64
3.393146e-47
2.093957e-51
0
9.314087e-62
2.474566e-68
4.374943e-50
9.960141e-55
6.630336e-61
0
3.483604e-72
0
4.840597e-50
7.165363e-58
1.385467e-64
0
3.103559e-73
0.5633422
0
0
0
0
3.165148e-66
0
0.5625088
0.5173296
1.495508e-38
0
6.999976e-49
3.657523e-55
1.285745e-59
0
0
0.5649456
0.2022922
0.0004293669
0
0
2.618978e-36
4.793458e-42
0
9.036609e-53
0
3.758124e-64
0
0.5648552
0.117438
0.0001159325
4.821154e-07
5.672043e-09
4.797872e-12
3.307794e-15
3.402623e-18
0
0
1.942448e-30
2.409938e-35
2.491229e-40
4.249148e-46
0
2.945597e-58
5.990999e-64
2.789728e-69
0.5591344
0.06191652
2.81814e-05
3.418138e-08
4.170958e-11
5.344639e-14
2.948706e-17
1.840621e-20
5.044452e-24
7.01582e-28
5.332386e-32
0
0
2.406728e-46
4.86815e-52
5.7968e-58
3.798677e-63
4.611285e-70
0.5487285
0.006897747
4.236916e-06
7.234572e-10
1.307204e-12
1.025521e-15
4.672653e-19
2.077097e-22
6.242157e-26
8.350164e-30
1.99197e-33
7.576258e-38
2.502744e-42
0
2.526564e-53
1.573231e-58
1.534504e-65
0
0.5423695
0.001832227
0
6.863784e-11
5.301583e-14
1.931449e-17
8.008466e-21
2.608949e-24
5.565709e-28
2.205004e-31
1.990186e-35
5.817837e-40
2.323481e-44
3.475249e-49
0
1.652195e-62
1.205621e-66
2.100053e-74
0.5343152
0.001026773
3.198083e-08
2.792353e-12
1.082195e-15
3.530824e-19
1.52412e-22
3.595592e-26
5.829662e-30
1.111018e-33
1.226477e-37
7.334415e-42
0
1.636416e-51
2.366013e-57
6.49544e-63
2.182154e-68
2.381361e-75
0.5300142
0.0006228288
4.476949e-09
2.66405e-13
4.348002e-17
5.437152e-21
1.284121e-24
2.466057e-28
5.019948e-32
5.145307e-36
3.080053e-41
1.884982e-44
4.563028e-49
7.61367e-54
4.073936e-59
2.080848e-65
7.587198e-71
1.014578e-77
0.5273738
0.0005456896
0
1.52471e-14
1.12538e-18
6.153926e-23
7.615807e-27
9.711279e-31
1.372293e-34
1.355723e-38
7.678485e-43
5.215971e-47
2.628217e-51
1.936011e-56
7.388843e-62