/*--------------------------------*- C++ -*----------------------------------*\
| =========                 |                                                 |
| \\      /  F ield         | OpenFOAM: The Open Source CFD Toolbox           |
|  \\    /   O peration     | Version:  2206                                  |
|   \\  /    A nd           | Website:  www.openfoam.com                      |
|    \\/     M anipulation  |                                                 |
\*---------------------------------------------------------------------------*/
FoamFile
{
    version     2.0;
    format      ascii;
    arch        "LSB;label=32;scalar=64";
    class       volScalarField;
    location    "1";
    object      alpha.a;
}
// * * * * * * * * * * * * * * * * * * * * * * * * * * * * * * * * * * * * * //

dimensions      [0 0 0 0 0 0 0];

internalField   nonuniform List<scalar> 
13078
(
0.5390348
0.5710183
0.5816053
0.5812902
0.5806558
0.5799141
0.5790517
0.5734011
0.5821651
0.5819675
0.5813448
0.5806847
0.5799343
0.5790714
0.5830917
0.5826609
0.5820477
0.5814082
0.5807241
0.5799625
0.5790959
0.5833197
0.5827026
0.5820913
0.5814549
0.5807607
0.5799916
0.5791219
0.5833238
0.5827185
0.5821162
0.5814778
0.5807904
0.5800189
0.5791473
0.5833044
0.5827181
0.5821268
0.5814915
0.5808034
0.5800421
0.5791716
0.5832877
0.5827129
0.5821321
0.5815015
0.5808122
0.5800508
0.5791929
0.5832762
0.5827073
0.5821351
0.5815072
0.5808175
0.5800568
0.5791997
0.5832685
0.5827025
0.5821343
0.5815089
0.5808207
0.580061
0.5792046
0.5832632
0.582699
0.5821331
0.5815097
0.5808228
0.5800641
0.5792085
0.5832596
0.5826965
0.5821322
0.5815101
0.5808243
0.5800667
0.5792119
0.5832569
0.5826948
0.5821315
0.5815105
0.5808255
0.5800688
0.5792148
0.5832549
0.5826935
0.5821311
0.5815109
0.5808266
0.5800708
0.5792176
0.5832535
0.5826927
0.5821311
0.5815116
0.5808281
0.5800728
0.5792204
0.5832524
0.5826923
0.5821313
0.5815159
0.5808347
0.5800753
0.5792232
0.5832516
0.582692
0.582132
0.5815215
0.5808401
0.5800777
0.579226
0.5832509
0.5826918
0.5821324
0.5815229
0.580842
0.5800799
0.579229
0.5832504
0.5826919
0.582133
0.5815242
0.5808438
0.5800822
0.5792321
0.5832499
0.5826921
0.5821338
0.5815257
0.5808461
0.5800852
0.5792353
0.5832495
0.5826924
0.5821348
0.5815277
0.5808537
0.5800961
0.5792395
0.5832493
0.5826927
0.5821359
0.5815299
0.5808631
0.5801052
0.5792438
0.5832489
0.5826931
0.582137
0.5815318
0.5808665
0.580109
0.5792477
0.5832485
0.5826937
0.5821383
0.5815339
0.5808695
0.5801133
0.5792529
0.5832482
0.5826942
0.5821397
0.5815363
0.5808735
0.5801253
0.5792697
0.5832477
0.5826948
0.5821413
0.581539
0.580878
0.58014
0.579284
0.5832472
0.5826954
0.5821431
0.581542
0.5808822
0.5801465
0.5792911
0.5832465
0.582696
0.582145
0.5815453
0.5808869
0.5801528
0.5792993
0.5832456
0.5826967
0.5821471
0.581549
0.5808924
0.5801606
0.579319
0.5832446
0.5826975
0.5821494
0.5815532
0.5808987
0.5801696
0.5793433
0.5832445
0.5826996
0.5821524
0.581558
0.5809055
0.5801787
0.5793562
0.5832442
0.5827014
0.5821555
0.5815633
0.5809133
0.580189
0.5793702
0.5832419
0.5827042
0.5821632
0.5815702
0.5809221
0.5802006
0.5793859
0.5832387
0.5827077
0.5821736
0.5815845
0.5809331
0.580214
0.5794021
0.5832347
0.5827089
0.5821838
0.5815969
0.5809456
0.5802294
0.5794208
0.58323
0.5827098
0.5821907
0.5816134
0.5809701
0.5802491
0.5794423
0.5832249
0.5827114
0.5821986
0.5816347
0.5810018
0.5802854
0.5794691
0.5832199
0.5827145
0.5822083
0.5816522
0.5810352
0.5803185
0.5795007
0.5832168
0.5827206
0.5822216
0.5816713
0.5810619
0.5803622
0.5795564
0.5832167
0.5827312
0.5822399
0.581697
0.5810977
0.5804252
0.5796205
0.5832236
0.5827525
0.5822719
0.5817475
0.5811711
0.5805242
0.5797444
0.5832408
0.5827991
0.5823549
0.5818637
0.5813309
0.5807096
0.5799493
0.5832862
0.5828991
0.582531
0.5821156
0.5815978
0.580951
0.5800881
0.5833849
0.5831013
0.582828
0.5824517
0.5819056
0.581085
0.5800638
0.5835758
0.5834029
0.5831748
0.582745
0.5820373
0.5810993
0.579889
0.583876
0.5837456
0.5834523
0.5828622
0.5820257
0.5809996
0.5797374
0.5842576
0.5840405
0.5836159
0.5828933
0.5819851
0.5809666
0.5796376
0.5846846
0.5842206
0.5836503
0.5829062
0.5820908
0.5810433
0.579706
0.5851012
0.5843266
0.5837147
0.5829881
0.5822608
0.5812483
0.5798753
0.5854612
0.5844179
0.5837937
0.5831385
0.5824029
0.5813577
0.5800167
0.5857669
0.584545
0.5838849
0.5832337
0.5824853
0.5814897
0.5801566
0.5860415
0.5847627
0.5840534
0.5832627
0.5824572
0.5814549
0.5801805
0.586284
0.5849933
0.5842033
0.5833413
0.582443
0.5813547
0.5800561
0.5865023
0.5852505
0.5843159
0.5833601
0.5823219
0.5810969
0.5798282
0.5866753
0.585492
0.5845186
0.5834597
0.5822731
0.581001
0.5798442
0.5867805
0.5856678
0.584671
0.5835491
0.5822724
0.5810013
0.5799276
0.5868065
0.5857586
0.5847585
0.58361
0.5823045
0.5810375
0.5799887
0.586822
0.5857831
0.5847885
0.583646
0.5823439
0.5810786
0.580032
0.5868107
0.5857108
0.5847239
0.5836139
0.5823476
0.5810829
0.5800213
0.586719
0.5855485
0.5845881
0.5835484
0.5823832
0.5811309
0.580002
0.5865661
0.5853342
0.5844183
0.5834931
0.5824958
0.5813106
0.5800667
0.5863632
0.5850957
0.5843392
0.5835201
0.582667
0.5816237
0.5803601
0.5861283
0.5848688
0.5841709
0.58341
0.5826788
0.5817619
0.5805592
0.5858498
0.584639
0.5840084
0.5834049
0.5827385
0.581853
0.5806164
0.5855437
0.5845109
0.5839254
0.5833232
0.5826723
0.5817506
0.5805119
0.5851782
0.5844093
0.5838418
0.5831728
0.5825219
0.5816123
0.5803802
0.584759
0.5842922
0.5837574
0.5830647
0.5823229
0.581397
0.5802138
0.5843245
0.5841058
0.5836992
0.583026
0.5821932
0.5812863
0.5801104
0.5839311
0.5838095
0.5835238
0.5829658
0.5821965
0.5812618
0.5801298
0.5836163
0.5834585
0.5832414
0.5828259
0.5821605
0.5813016
0.5801922
0.5834119
0.5831425
0.5828841
0.5825216
0.5819956
0.5812323
0.5802754
0.5833038
0.5829257
0.5825708
0.5821715
0.5816713
0.5810361
0.580209
0.5832531
0.582817
0.5823818
0.5819032
0.581379
0.5807625
0.5800064
0.5832326
0.5827667
0.5822927
0.5817724
0.5811995
0.5805544
0.5797792
0.5832245
0.5827435
0.5822559
0.5817136
0.5811143
0.5804449
0.5796424
0.5832233
0.5827304
0.5822336
0.5816843
0.5810737
0.5803754
0.5795713
0.5832253
0.5827218
0.5822169
0.5816603
0.5810381
0.5803252
0.5795107
0.5832291
0.5827168
0.5822043
0.581641
0.5810045
0.5802855
0.5794761
0.5832333
0.582714
0.5821952
0.5816185
0.5809754
0.5802543
0.579448
0.5832372
0.5827119
0.5821873
0.5816008
0.5809497
0.5802336
0.5794249
0.5832407
0.5827102
0.5821764
0.5815875
0.5809362
0.580217
0.579405
0.5832438
0.5827063
0.5821654
0.5815723
0.5809244
0.5802029
0.5793878
0.5832458
0.5827032
0.5821572
0.5815651
0.5809151
0.5801906
0.5793715
0.5832459
0.5827011
0.5821539
0.5815594
0.5809069
0.5801798
0.5793572
0.5832458
0.5826987
0.5821506
0.5815543
0.5808996
0.5801705
0.5793441
0.5832467
0.5826979
0.5821481
0.58155
0.5808932
0.5801613
0.5793197
0.5832475
0.582697
0.5821458
0.581546
0.5808876
0.5801535
0.5792998
0.5832482
0.5826963
0.5821438
0.5815426
0.5808828
0.580147
0.5792915
0.5832485
0.5826955
0.5821419
0.5815395
0.5808784
0.5801403
0.5792842
0.5832489
0.5826948
0.5821402
0.5815369
0.580874
0.5801256
0.5792699
0.5832492
0.5826942
0.5821388
0.5815344
0.5808699
0.5801136
0.579253
0.5832495
0.5826936
0.5821374
0.5815321
0.5808668
0.5801092
0.5792479
0.5832497
0.5826932
0.5821363
0.5815301
0.5808633
0.5801053
0.5792439
0.58325
0.5826928
0.5821351
0.5815278
0.5808538
0.5800962
0.5792394
0.5832503
0.5826924
0.582134
0.5815257
0.5808461
0.5800852
0.5792352
0.5832506
0.5826921
0.5821331
0.5815243
0.5808439
0.5800822
0.579232
0.5832509
0.5826919
0.5821324
0.5815229
0.580842
0.5800799
0.579229
0.5832514
0.5826919
0.5821318
0.5815214
0.5808401
0.5800777
0.579226
0.583252
0.5826918
0.5821311
0.5815158
0.5808346
0.5800753
0.5792231
0.5832527
0.5826921
0.5821306
0.5815114
0.580828
0.5800728
0.5792205
0.5832538
0.5826926
0.5821305
0.5815106
0.5808266
0.5800709
0.5792179
0.5832551
0.5826935
0.5821307
0.5815101
0.5808255
0.5800691
0.5792154
0.5832571
0.5826948
0.5821311
0.5815097
0.5808244
0.5800673
0.5792128
0.5832598
0.5826965
0.5821318
0.5815094
0.5808233
0.5800652
0.5792099
0.5832635
0.582699
0.5821327
0.581509
0.5808219
0.5800629
0.5792067
0.5832687
0.5827026
0.5821337
0.5815082
0.5808199
0.5800597
0.5792027
0.5832764
0.5827073
0.582132
0.5815045
0.5808166
0.5800555
0.5791973
0.5832878
0.5827129
0.5821299
0.5814982
0.5808111
0.5800492
0.5791775
0.5833045
0.5827185
0.5821268
0.5814912
0.5808027
0.5800291
0.5791551
0.5833236
0.5827188
0.5821166
0.5814784
0.5807793
0.580005
0.579131
0.5833184
0.582703
0.5820943
0.5814458
0.5807491
0.5799781
0.5791055
0.5830786
0.5826685
0.5820402
0.5813991
0.5807131
0.5799491
0.5790794
0.573491
0.5822205
0.5819782
0.5813321
0.5806699
0.5799186
0.5790535
0.5780357
0.5767612
0.5750627
0.57345
0.5705904
0.5661214
0.556158
0.5780578
0.5767895
0.575099
0.5734929
0.5706427
0.5661939
0.5565157
0.5780826
0.5768187
0.5751369
0.5729337
0.570693
0.5662648
0.5567505
0.5781084
0.5768483
0.5751725
0.573584
0.5707459
0.5663358
0.5569693
0.5781338
0.5768783
0.5752098
0.5736279
0.5707983
0.5664068
0.5571331
0.5781588
0.5769083
0.5752473
0.5736728
0.5708501
0.5664774
0.5572941
0.578183
0.5769378
0.5752846
0.5737161
0.5708652
0.5665478
0.5574527
0.5782048
0.576967
0.5753213
0.5737585
0.5708793
0.5666175
0.5576097
0.5782112
0.5769938
0.5753562
0.5738015
0.5709208
0.5666802
0.5577658
0.5782159
0.5770011
0.5753887
0.5738443
0.5709619
0.5667427
0.5579211
0.57822
0.5770066
0.5753977
0.5738858
0.571003
0.5668051
0.5580759
0.578224
0.5770121
0.5754046
0.5738952
0.5710442
0.5668676
0.5582299
0.5782278
0.5770174
0.5754117
0.5739036
0.5710517
0.5669312
0.5583833
0.5782316
0.5770228
0.575419
0.5739123
0.5710601
0.5669442
0.5585345
0.5782354
0.5770283
0.5754265
0.5739213
0.5710689
0.5669594
0.5585425
0.5782393
0.5770341
0.5754342
0.5739307
0.5710784
0.5669756
0.5585573
0.5782433
0.5770401
0.5754421
0.5739407
0.5710925
0.5669924
0.55856
0.5782475
0.577046
0.5754506
0.5739555
0.5712142
0.5670102
0.5585585
0.5782519
0.577052
0.5754592
0.5739661
0.5712312
0.5670282
0.5585616
0.5782565
0.5770583
0.5754683
0.5739773
0.5712452
0.5670471
0.558558
0.5782614
0.577065
0.5754776
0.5739891
0.5712599
0.5670669
0.5585345
0.5782666
0.577072
0.5754873
0.5740017
0.5712751
0.5670876
0.5585266
0.5782722
0.5770795
0.5754978
0.5740136
0.5712944
0.5671093
0.5585164
0.5782793
0.5770875
0.5755094
0.5734664
0.5714104
0.567143
0.5585059
0.5782868
0.5770961
0.575521
0.5740408
0.5714714
0.5671702
0.5584922
0.578294
0.5771051
0.5755334
0.5740579
0.5714942
0.5671957
0.5584747
0.5783037
0.5771157
0.5755472
0.5740747
0.5715177
0.5672265
0.5584408
0.5783309
0.5771274
0.5755612
0.5740922
0.5715491
0.5674659
0.5584013
0.5783531
0.5774633
0.5760005
0.574111
0.5715786
0.5675589
0.5583711
0.5783683
0.5774768
0.576018
0.5741319
0.5716065
0.5675963
0.5583312
0.5784081
0.5775215
0.5760366
0.5741547
0.5716368
0.5677635
0.5582981
0.5784403
0.5775655
0.576057
0.5741801
0.5716701
0.5679663
0.5582676
0.5784628
0.5776323
0.5760845
0.5742082
0.5717064
0.5680232
0.5582599
0.5784852
0.5776635
0.5761531
0.5742392
0.5717459
0.5680973
0.5590864
0.5785106
0.5776943
0.5762334
0.5742757
0.5717882
0.5681615
0.5592069
0.57854
0.5777274
0.576336
0.5743287
0.5718306
0.5682187
0.5621343
0.5785735
0.5777655
0.5763806
0.5744589
0.5718689
0.5682636
0.5606295
0.5786167
0.5778087
0.5764251
0.574554
0.5718776
0.5681292
0.5623255
0.5786762
0.5778637
0.5764619
0.5745996
0.5716247
0.5672256
0.5634689
0.5787833
0.5779337
0.5764015
0.574199
0.5708739
0.5659352
0.5613892
0.5788615
0.5779209
0.5760282
0.5732889
0.5697748
0.5651341
0.5582652
0.5788729
0.5777486
0.5753731
0.5720807
0.568843
0.5650656
0.5578067
0.5785915
0.5773774
0.5746299
0.5714814
0.5687683
0.5659066
0.5589227
0.5781652
0.5767728
0.5737745
0.5710071
0.5687742
0.565982
0.5601543
0.5778582
0.5762606
0.5731315
0.5706816
0.5690623
0.5656902
0.5603681
0.5777838
0.5756993
0.5722886
0.5706866
0.5687576
0.5658497
0.5594622
0.5776915
0.5754139
0.5718511
0.5704337
0.5685975
0.5654436
0.5604755
0.5777829
0.5752842
0.5719192
0.5705388
0.5685141
0.5655455
0.5636062
0.5780883
0.5757293
0.5721212
0.5705997
0.5690289
0.5658265
0.5637544
0.5782701
0.5758321
0.5718428
0.5705415
0.5686291
0.5666567
0.5646369
0.5780959
0.5758889
0.5715402
0.5701663
0.5689999
0.567506
0.5654846
0.5778276
0.5753491
0.5711917
0.5702558
0.5696708
0.5676493
0.5634259
0.5778406
0.5752085
0.5714158
0.5706159
0.5700105
0.5677746
0.5653815
0.5781436
0.5756322
0.5721403
0.5712569
0.5709182
0.5690432
0.5674511
0.5785631
0.5765081
0.5732623
0.5723461
0.5715383
0.5727832
0.5661914
0.578809
0.5771414
0.5743317
0.5736304
0.5731359
0.5725293
0.5788643
0.5773821
0.5746669
0.5741506
0.5736982
0.572947
0.578699
0.5772302
0.5739277
0.5731387
0.5727899
0.5728214
0.5783672
0.5765476
0.572791
0.5721883
0.5716558
0.5710832
0.5682891
0.5781323
0.5758018
0.5719552
0.5711742
0.5706869
0.5684803
0.5638672
0.5781969
0.575484
0.5716587
0.5707054
0.5697189
0.5680581
0.5645674
0.5785458
0.5760646
0.5718717
0.5705242
0.5695744
0.5679349
0.5643479
0.5788041
0.5767449
0.5720889
0.5706924
0.5690376
0.5672747
0.5651306
0.5786749
0.5766791
0.5727291
0.5710705
0.569229
0.5665847
0.5646222
0.5784229
0.576536
0.5727015
0.5710906
0.5689757
0.5665377
0.5638072
0.5783588
0.5763334
0.5728117
0.5707819
0.569078
0.5657837
0.5620517
0.5784341
0.5765519
0.5730582
0.5711911
0.5689064
0.5665595
0.5596677
0.5784719
0.5766819
0.5738136
0.5714976
0.5695912
0.5662301
0.5607909
0.5786536
0.5770548
0.5744628
0.5719577
0.569788
0.5665692
0.5612829
0.5789001
0.5774314
0.5749935
0.5723923
0.5696988
0.5669366
0.5608647
0.579045
0.5777974
0.5756457
0.5725686
0.5696972
0.5662319
0.5591665
0.5789582
0.5779582
0.5761065
0.5731842
0.569886
0.5655882
0.5578283
0.5788238
0.5779366
0.5763926
0.5740239
0.5707431
0.5657994
0.5591911
0.5787002
0.5778763
0.5764893
0.5745032
0.5713343
0.5665332
0.5624448
0.5786321
0.5778197
0.5764633
0.5746274
0.5717677
0.5676716
0.5634552
0.5785841
0.5777735
0.5764142
0.5745047
0.5718815
0.5682543
0.5618589
0.5785477
0.5777351
0.5763665
0.5744073
0.5718564
0.5682542
0.5607359
0.5785161
0.5777015
0.5762995
0.5743036
0.5718155
0.5681974
0.5594635
0.5784889
0.5776715
0.5762019
0.5742603
0.5717713
0.5681332
0.5591552
0.5784654
0.5776433
0.5761063
0.5742263
0.5717292
0.5680633
0.5588112
0.5784421
0.5775908
0.5760725
0.5741959
0.5716904
0.5679977
0.5582607
0.5784094
0.5775466
0.5760479
0.5741685
0.571655
0.5679236
0.5582897
0.5783691
0.5774862
0.576028
0.574144
0.5716225
0.5676289
0.5583117
0.5783537
0.5774665
0.5760092
0.5741221
0.5715931
0.5675782
0.5583487
0.5783313
0.5771277
0.5755615
0.5741006
0.571565
0.5675391
0.5583795
0.578304
0.5771159
0.5755474
0.5740831
0.5715321
0.5673188
0.5584124
0.5782943
0.5771053
0.5755337
0.5740663
0.5715053
0.5672085
0.558448
0.578287
0.5770962
0.5755211
0.5740504
0.571482
0.5671818
0.5584689
0.5782794
0.5770875
0.575509
0.5740352
0.5714568
0.5671566
0.5584879
0.5782722
0.5770795
0.5754979
0.5740206
0.5713328
0.5671232
0.5584994
0.5782667
0.577072
0.5754872
0.5740069
0.571282
0.5670966
0.5585104
0.5782614
0.5770648
0.5754772
0.5739942
0.5712664
0.5670754
0.5585241
0.5782564
0.5770581
0.5754678
0.5739819
0.5712513
0.5670552
0.5585311
0.5782517
0.5770518
0.5754587
0.5739704
0.5712371
0.5670358
0.5585397
0.5782474
0.5770458
0.5754502
0.5739595
0.5712236
0.5670174
0.5585433
0.5782432
0.5770398
0.5754418
0.5739462
0.5711594
0.5669994
0.5585414
0.5782392
0.5770339
0.5754339
0.5739343
0.5710824
0.5669822
0.5585377
0.5782354
0.5770283
0.5754263
0.5739245
0.5710728
0.5669656
0.558532
0.5782317
0.5770229
0.575419
0.573915
0.5710637
0.56695
0.5585261
0.5782281
0.5770177
0.5754119
0.573906
0.5710552
0.5669354
0.5584396
0.5782246
0.5770126
0.575405
0.5738971
0.5710471
0.5668972
0.5582867
0.578221
0.5770075
0.5753983
0.5738887
0.571023
0.566835
0.5581329
0.5782173
0.5770023
0.5753897
0.5738632
0.5709823
0.5667726
0.5579785
0.5782131
0.5769955
0.5753576
0.5738206
0.5709414
0.5667103
0.5578238
0.5782076
0.5769694
0.5753232
0.5737774
0.5709004
0.5666477
0.5576685
0.5781867
0.5769409
0.575287
0.5737338
0.570861
0.5665819
0.5575128
0.5781636
0.576912
0.5752502
0.5736923
0.5708747
0.5665118
0.5573562
0.5781395
0.5768824
0.575213
0.5736481
0.5708247
0.5664415
0.5571983
0.5781145
0.5768523
0.5751755
0.5736039
0.5707729
0.566371
0.5570381
0.5780884
0.576822
0.575138
0.5735596
0.5707209
0.5663003
0.5568553
0.5780623
0.576792
0.5751005
0.5735158
0.5706687
0.5662294
0.5566263
0.5780365
0.5767617
0.5750632
0.5734724
0.5706167
0.5661581
0.5563485
0.003862898
3.286101e-08
6.627648e-14
5.598638e-20
2.834615e-26
9.886176e-33
2.419372e-39
4.422819e-46
5.322197e-53
6.826955e-60
9.081183e-67
1.241596e-73
1.702915e-80
2.62892e-87
5.735151e-94
1.028365e-100
2.273552e-107
4.830578e-114
0.006356737
5.809288e-09
6.394662e-15
5.8876e-21
4.620393e-27
2.716654e-33
1.114148e-39
3.25825e-46
6.25595e-53
1.162153e-59
1.988458e-66
2.909885e-73
3.693568e-80
4.046891e-87
4.646753e-94
2.652209e-101
2.078118e-108
1.832823e-115
0.006716678
1.368887e-08
1.237606e-14
8.542001e-21
5.463979e-27
3.036788e-33
1.316658e-39
4.221915e-46
9.150991e-53
1.918096e-59
3.629618e-66
5.913392e-73
8.21295e-80
9.827248e-87
1.219366e-93
7.436876e-101
6.014156e-108
4.978013e-115
0.007224064
1.825778e-08
1.943071e-14
1.442252e-20
9.141169e-27
4.940304e-33
2.174742e-39
7.360389e-46
1.727249e-52
3.959491e-59
8.194764e-66
1.458281e-72
2.217907e-79
2.915372e-86
3.931393e-93
2.604844e-100
2.258799e-107
1.921906e-114
0.00786741
2.327012e-08
2.827687e-14
2.308783e-20
1.562557e-26
8.863444e-33
4.161918e-39
1.514479e-45
3.927306e-52
9.862866e-59
2.24901e-65
4.378152e-72
7.285738e-79
1.057855e-85
0
1.522735e-99
1.152976e-106
1.011273e-113
0.008638732
2.899196e-08
3.938696e-14
3.555976e-20
2.649765e-26
1.644355e-32
8.512096e-39
3.412686e-45
9.882924e-52
2.771316e-58
6.987521e-65
1.510588e-71
2.756782e-78
4.429258e-85
5.895018e-92
7.1454e-99
6.756557e-106
6.789871e-113
0.009526662
3.565864e-08
5.373419e-14
5.354011e-20
4.439919e-26
3.102517e-32
1.813207e-38
8.191465e-45
2.706176e-51
8.600627e-58
2.427539e-64
5.827808e-71
1.189773e-77
2.111044e-84
3.462441e-91
4.144685e-98
4.561696e-105
5.283717e-112
0.01052143
4.348389e-08
7.229513e-14
7.950081e-20
7.428228e-26
5.917023e-32
3.975752e-38
2.054605e-44
7.754782e-51
2.83082e-57
9.005305e-64
2.428305e-70
5.540497e-77
1.107833e-83
2.053632e-90
2.887164e-97
4.082128e-104
7.131083e-111
0.01161534
5.290178e-08
9.71233e-14
1.18588e-19
1.255612e-25
1.151939e-31
8.943405e-38
5.365974e-44
2.343436e-50
9.802587e-57
3.550667e-63
1.077628e-69
2.772007e-76
6.248984e-83
1.293389e-89
1.956832e-96
2.76986e-103
4.138704e-110
0.01280187
6.44412e-08
1.312193e-13
1.786311e-19
2.164198e-25
2.302986e-31
2.076995e-37
1.447705e-43
7.330317e-50
3.532294e-56
1.463148e-62
5.060946e-69
1.491577e-75
3.794365e-82
8.858537e-89
1.480415e-95
2.321417e-102
3.724437e-109
0.01407697
7.871717e-08
1.789621e-13
2.73811e-19
3.830003e-25
4.775425e-31
5.023255e-37
4.086756e-43
2.399123e-49
1.342215e-55
6.374312e-62
2.513089e-68
8.36356e-75
2.409844e-81
6.322929e-88
1.16814e-94
2.048013e-101
3.689409e-108
0.01543964
9.705295e-08
2.51436e-13
4.402259e-19
7.195035e-25
1.050907e-30
1.292893e-36
1.219085e-42
8.292684e-49
5.367713e-55
2.905038e-61
1.299209e-67
4.89544e-74
1.590274e-80
4.685129e-87
9.736962e-94
1.934395e-100
3.890931e-107
0.01689049
1.23545e-07
3.764281e-13
7.735225e-19
1.496572e-24
2.553009e-30
3.631753e-36
3.932113e-42
3.073174e-48
2.276484e-54
1.398654e-60
7.093308e-67
3.010877e-73
1.09823e-79
3.642e-86
8.464713e-93
1.890741e-99
4.316109e-106
0.01855603
1.887593e-07
7.279926e-13
1.817188e-18
4.067438e-24
7.609207e-30
1.197333e-35
1.452426e-41
1.284499e-47
1.074179e-53
7.478857e-60
4.244495e-66
2.017112e-72
8.258925e-79
3.048783e-85
7.99232e-92
2.008788e-98
5.120258e-105
0.02698647
3.549853e-07
1.732982e-12
5.54682e-18
1.550084e-23
3.440831e-29
6.163259e-35
8.473814e-41
8.703133e-47
8.518689e-53
6.877846e-59
4.555745e-65
2.523744e-71
1.200794e-77
5.104374e-84
1.528482e-90
4.503411e-97
1.299131e-103
0.02990733
0
5.22122e-13
1.261544e-18
4.623872e-24
1.587215e-29
4.102764e-35
7.632632e-41
1.009988e-46
1.219106e-52
1.182809e-58
9.27613e-65
6.066396e-71
3.424255e-77
1.765252e-83
6.578038e-90
2.407309e-96
8.750784e-103
0.033968
4.81927e-07
0
2.983988e-18
5.990495e-24
1.623002e-29
5.186648e-35
1.31848e-40
2.397064e-46
3.975375e-52
5.24653e-58
5.553717e-64
4.892717e-70
3.750282e-76
2.602145e-82
1.261206e-88
6.034667e-95
2.719346e-101
0.03815903
6.465377e-07
3.665157e-12
0
1.791895e-23
3.480549e-29
8.847501e-35
2.129785e-40
3.968336e-46
6.96746e-52
9.819694e-58
1.102775e-63
1.018633e-69
8.032331e-76
5.749113e-82
2.841763e-88
1.40053e-94
6.806081e-101
0.0398201
8.087923e-07
5.276617e-12
2.172118e-17
0
1.062091e-28
2.12109e-34
5.578164e-40
1.28821e-45
2.710581e-51
4.403411e-57
5.615173e-63
5.830933e-69
5.185042e-75
4.135108e-81
2.21445e-87
1.205426e-93
6.327589e-100
0.0416611
1.050276e-06
8.769562e-12
4.061854e-17
1.597267e-22
2.690836e-30
8.617371e-34
1.648318e-39
3.05759e-45
6.143187e-51
1.024515e-56
1.393191e-62
1.591939e-68
1.607322e-74
1.631345e-80
8.979766e-87
6.256944e-93
4.112397e-99
0.04381693
9.930287e-07
9.212935e-12
5.194583e-17
2.586703e-22
1.171054e-27
3.577347e-34
7.697478e-39
1.312897e-44
2.359427e-50
4.04256e-56
6.134588e-62
7.944677e-68
8.819707e-74
8.524884e-80
1.576789e-86
1.424691e-92
7.560035e-99
0.04621815
1.093248e-06
1.039707e-11
6.863903e-17
4.379895e-22
2.405833e-27
1.150517e-32
4.867741e-39
6.836384e-44
1.385041e-49
2.352798e-55
3.462867e-61
4.515131e-67
5.310389e-73
5.622893e-79
3.881507e-85
3.146518e-91
2.33275e-97
0.04881302
1.387782e-06
1.483013e-11
1.092891e-16
8.038105e-22
5.10292e-27
2.762372e-32
1.182884e-37
5.408187e-44
7.580238e-49
1.545909e-54
2.552503e-60
3.566389e-66
4.284938e-72
4.553119e-78
3.316766e-84
2.866544e-90
2.325788e-96
0.0515634
1.77778e-06
2.164608e-11
1.748409e-16
1.432636e-21
1.04674e-26
6.536144e-32
3.175913e-37
1.208821e-42
7.21054e-49
8.330677e-54
1.697735e-59
2.830127e-65
3.965468e-71
4.604278e-77
3.65036e-83
3.556126e-89
3.313328e-95
0.05453012
2.199111e-06
3.122494e-11
2.845816e-16
2.598097e-21
2.151479e-26
1.538532e-31
8.543569e-37
3.696124e-42
1.532666e-47
1.019722e-53
9.240198e-59
1.782125e-64
2.836688e-70
3.681855e-76
3.070995e-82
2.994236e-88
2.917116e-94
0.05759836
2.704696e-06
4.441173e-11
4.574519e-16
4.625549e-21
4.304206e-26
3.516126e-31
2.233912e-36
1.102767e-41
5.22859e-47
2.008666e-52
2.467773e-58
1.068785e-63
2.14991e-69
0
3.088864e-81
1.788518e-87
2.221696e-93
0.06088441
3.297006e-06
6.281277e-11
7.446138e-16
8.551878e-21
8.969628e-26
8.293904e-31
5.985859e-36
3.358749e-41
1.816481e-46
7.915098e-52
2.761554e-57
4.482304e-63
1.425651e-68
1.942928e-74
2.676777e-80
3.422765e-86
3.955796e-92
0.06437904
4.043761e-06
8.986918e-11
1.249264e-15
1.681589e-20
2.019367e-25
2.113774e-30
1.723449e-35
1.090227e-40
6.702375e-46
3.310955e-51
1.322436e-56
4.343207e-62
7.532419e-68
1.635253e-73
2.869021e-79
4.361618e-85
5.729038e-91
0.06801916
4.974036e-06
1.288222e-10
2.084313e-15
3.189988e-20
4.269727e-25
5.00739e-30
4.572493e-35
3.208031e-40
2.199364e-45
1.19815e-50
5.289731e-56
1.96649e-61
7.051111e-67
8.673895e-73
2.390874e-78
4.72712e-84
7.547e-90
0.07195697
6.089298e-06
1.824566e-10
3.47663e-15
6.356e-20
9.740095e-25
1.29239e-29
1.31342e-34
1.04515e-39
8.247478e-45
5.25181e-50
2.708269e-55
1.173206e-60
4.271464e-66
6.164516e-72
3.620801e-78
6.706594e-84
2.671857e-89
0.07608498
7.436209e-06
2.546624e-10
5.689208e-15
9.027177e-20
1.31199e-24
1.954667e-29
2.396977e-34
2.333122e-39
2.150424e-44
1.603062e-49
9.673481e-55
4.890326e-60
1.930083e-65
5.790214e-71
1.88339e-76
5.476003e-82
1.618372e-87
0.0804071
8.950485e-06
3.369004e-10
7.578254e-15
1.485086e-19
2.999274e-24
5.043634e-29
6.846986e-34
1.061696e-38
7.664439e-44
5.781973e-49
3.946315e-54
2.494311e-59
1.155297e-64
4.401219e-70
1.744104e-75
6.179481e-81
1.888058e-86
0.08510136
1.058804e-05
4.322687e-10
9.586724e-15
2.257124e-19
5.520538e-24
1.151577e-28
1.902386e-33
2.696652e-38
3.002357e-43
2.935884e-48
2.346322e-53
1.655248e-58
0
8.246442e-70
1.785218e-75
1.117354e-80
0
0.09048858
1.165274e-05
5.127709e-10
1.218839e-14
2.902356e-19
7.937196e-24
1.858252e-28
3.533151e-33
5.838718e-38
7.542344e-43
8.535741e-48
7.88157e-53
6.184328e-58
2.972276e-63
1.60421e-68
7.868728e-74
3.80367e-79
7.726724e-85
0.1062813
1.914878e-05
1.175815e-09
4.135467e-14
6.075848e-19
1.616162e-23
3.419461e-28
7.283855e-33
1.07259e-37
2.647443e-42
3.176558e-47
3.384295e-52
3.534752e-57
1.911926e-62
1.418283e-67
8.843818e-73
4.449601e-78
1.106199e-83
0.114506
2.561639e-05
1.982316e-09
8.870845e-14
3.556852e-18
1.291333e-22
3.604687e-27
4.838727e-32
1.749922e-36
2.308506e-41
3.207302e-46
4.073227e-51
4.506079e-56
2.712817e-61
2.147458e-66
1.56803e-71
0
2.739598e-82
0.1251921
3.018602e-05
2.764616e-09
1.374531e-13
6.283446e-18
2.877202e-22
9.404816e-27
2.395495e-31
5.521524e-36
9.88994e-41
1.709146e-45
2.655165e-50
2.85968e-55
2.678777e-60
2.555413e-65
2.321357e-70
9.194347e-76
5.079016e-81
0.2250503
6.571803e-05
5.813891e-09
3.382435e-13
1.898377e-17
1.096304e-21
4.22739e-26
1.266336e-30
3.404816e-35
7.341638e-40
1.569165e-44
2.96712e-49
2.863015e-54
3.695617e-59
4.069264e-64
3.36142e-69
1.508678e-74
9.737571e-80
0.3488553
0.000128329
8.137049e-09
4.446374e-13
2.419816e-17
1.422518e-21
5.537106e-26
1.703811e-30
5.064196e-35
1.269602e-39
3.281564e-44
8.045914e-49
1.067034e-53
1.681238e-58
2.289036e-63
1.325027e-68
9.935845e-74
6.14882e-79
0.4511345
0.0001100513
8.063468e-09
7.106771e-13
2.934157e-17
1.05666e-21
3.013752e-26
8.370484e-31
2.564718e-35
7.291332e-40
2.20901e-44
6.377874e-49
1.224742e-54
4.235216e-59
6.087296e-64
5.923584e-69
9.383093e-74
5.623897e-79
0.5073527
0.001151229
1.978316e-07
7.974484e-12
1.299694e-16
2.859302e-21
7.704299e-26
2.335725e-30
7.922826e-35
2.423248e-39
8.188355e-44
2.213485e-48
4.666461e-53
1.246306e-57
0
5.543062e-69
6.647411e-73
8.698268e-78
0.5203569
0.001008509
1.109901e-07
3.844143e-12
1.117893e-16
5.78049e-21
2.675797e-25
1.062562e-29
4.351385e-34
1.435635e-38
4.86663e-43
7.829132e-48
1.774296e-52
4.122057e-57
2.0599e-62
3.0122e-67
6.884765e-72
1.675017e-76
0.527058
0.0007452265
2.335751e-09
1.590577e-13
1.629457e-17
1.104015e-21
1.079671e-25
8.079281e-30
5.800434e-34
3.486373e-38
1.645269e-42
1.14609e-46
4.141973e-51
1.382742e-55
2.891558e-60
9.070828e-65
0
7.39956e-75
0.530909
0.0006702591
2.212292e-08
3.184355e-12
6.970063e-16
1.173519e-19
2.506995e-23
3.917893e-27
6.160503e-31
7.811251e-35
4.417212e-39
5.757195e-43
4.032992e-47
2.423058e-51
9.622874e-56
3.020012e-60
0
1.476132e-68
0.5343727
0.001209482
2.510717e-08
4.928788e-12
2.701708e-15
9.858872e-19
4.100264e-22
1.184743e-25
4.41253e-29
3.917086e-33
0
1.568808e-40
1.442572e-44
1.163762e-48
7.411595e-53
0
3.635097e-61
1.74472e-65
0.5406154
0.001305236
9.027248e-08
3.843483e-11
4.290851e-14
2.139657e-17
2.284385e-20
1.262559e-23
5.843103e-27
3.073456e-30
8.606001e-34
2.344226e-37
2.792828e-41
3.596223e-45
3.841813e-49
2.549174e-53
4.671916e-58
1.287727e-63
0.5482013
0.002708892
9.294316e-07
8.035053e-10
1.313941e-12
1.490132e-15
1.100194e-18
7.764141e-22
4.306622e-25
2.709512e-28
9.876762e-32
2.178025e-36
2.604729e-39
5.602816e-43
6.546386e-48
0
5.927662e-57
2.668275e-61
0.5575021
0.02305091
2.721981e-05
1.716668e-08
1.651249e-11
3.823152e-14
3.955701e-17
4.310855e-20
2.599499e-23
2.260065e-26
3.059596e-30
6.23718e-34
3.209329e-37
1.982959e-41
2.378318e-47
5.879948e-50
0
2.069919e-59
0.5624323
0.1032896
9.542293e-05
2.55452e-07
6.769496e-10
1.573537e-12
1.559555e-15
2.472761e-18
3.089938e-21
1.196471e-24
1.26656e-28
3.045388e-31
3.953295e-35
3.763448e-40
2.769327e-43
0
3.663491e-53
0
0.5659694
0.1537306
0.0004770123
2.910854e-06
0
4.067365e-26
6.495447e-28
5.676309e-32
3.763249e-36
2.853742e-39
3.632158e-44
7.405289e-48
7.080487e-54
5.163577e-58
0.5623399
0.4891807
0
0
1.211998e-35
4.202003e-40
4.210175e-45
9.077224e-49
4.19436e-54
9.464372e-59
0.5574313
0
1.5767e-35
1.745754e-38
7.323902e-44
1.559068e-48
8.51982e-54
1.314749e-58
3.928227e-33
5.343071e-37
6.830587e-43
2.787813e-47
0
4.398593e-59
5.33428e-38
3.909363e-42
6.26265e-50
5.353215e-53
1.692206e-58
1.65833e-40
3.734619e-44
1.555936e-48
8.200645e-54
1.500385e-59
1.209235e-41
1.499473e-45
2.827873e-50
1.431328e-55
2.006323e-61
1.879335e-44
3.074481e-48
7.652466e-53
3.723085e-58
5.594054e-64
3.796996e-47
2.479052e-51
0
1.835468e-61
8.635547e-68
5.045661e-50
1.22577e-54
7.958234e-61
0
1.987949e-71
0
4.750024e-50
5.623612e-60
0
1.004779e-69
2.879755e-73
0.5633439
0
0
0
0
3.04882e-66
8.948269e-73
0.563293
0.518718
1.448787e-38
0
6.603124e-49
3.202701e-55
1.343606e-59
0
0
0.5662363
0.2033638
0.000458324
0
0
2.528004e-36
4.670621e-42
0
8.661135e-53
0
3.561596e-64
0
0.5655645
0.1174304
0.0001179945
4.750311e-07
5.549133e-09
4.714924e-12
3.270308e-15
3.331896e-18
0
0
1.883136e-30
2.321797e-35
2.398219e-40
4.099188e-46
0
2.876686e-58
5.780008e-64
2.685616e-69
0.5600096
0.0614516
2.81668e-05
3.383857e-08
4.125499e-11
5.313484e-14
2.907961e-17
1.809788e-20
4.907316e-24
6.813602e-28
5.065573e-32
0
0
2.300004e-46
4.70621e-52
5.484283e-58
3.724346e-63
4.257752e-70
0.5502779
0.006705403
4.179114e-06
7.16407e-10
1.282175e-12
1.002923e-15
4.580201e-19
2.034839e-22
6.07701e-26
8.076863e-30
1.962225e-33
7.390852e-38
2.472604e-42
0
2.383303e-53
1.558037e-58
1.319836e-65
0
0.5443246
0.001764588
0
6.923973e-11
5.211212e-14
1.888911e-17
7.859999e-21
2.548543e-24
5.421837e-28
2.17374e-31
1.998298e-35
5.579779e-40
2.344451e-44
3.421048e-49
0
1.438594e-62
1.01309e-66
1.907449e-74
0.5367133
0.0009876281
3.113651e-08
2.743225e-12
1.056914e-15
3.42857e-19
1.486952e-22
3.49701e-26
5.686698e-30
1.099552e-33
1.237923e-37
7.402993e-42
0
1.660109e-51
2.294782e-57
6.463139e-63
2.218847e-68
2.421216e-75
0.5319089
0.0006314474
4.297874e-09
2.536564e-13
4.196547e-17
5.235246e-21
1.258095e-24
2.435211e-28
5.016534e-32
5.183652e-36
2.408102e-41
1.927213e-44
4.516665e-49
7.788325e-54
4.361106e-59
2.133095e-65
7.971891e-71
1.040746e-77
0.5284717
0.0005493602
0
1.471301e-14
1.100756e-18
5.989926e-23
7.526997e-27
9.734979e-31
1.398149e-34
1.391547e-38
7.895591e-43
5.400222e-47
2.730141e-51
2.061192e-56
7.77866e-62
4.849779e-68
1.153423e-73