/*--------------------------------*- C++ -*----------------------------------*\
| =========                 |                                                 |
| \\      /  F ield         | OpenFOAM: The Open Source CFD Toolbox           |
|  \\    /   O peration     | Version:  2206                                  |
|   \\  /    A nd           | Website:  www.openfoam.com                      |
|    \\/     M anipulation  |                                                 |
\*---------------------------------------------------------------------------*/
FoamFile
{
    version     2.0;
    format      ascii;
    arch        "LSB;label=32;scalar=64";
    class       volVectorField;
    location    "1";
    object      ddt0(U.a);
}
// * * * * * * * * * * * * * * * * * * * * * * * * * * * * * * * * * * * * * //

dimensions      [0 1 -2 0 0 0 0];

internalField   nonuniform List<vector> 
13078
(
(1.179507e-06 1.388703e-05 -2.035881e-28)
(7.831772e-07 9.40181e-06 -1.37741e-32)
(5.335044e-07 1.311881e-06 -2.601477e-29)
(4.376562e-07 -1.916794e-06 0)
(3.741059e-07 -4.354963e-06 -2.030916e-29)
(3.190633e-07 -6.119237e-06 -2.408061e-29)
(2.649529e-07 -7.277688e-06 -2.767411e-29)
(1.042096e-05 9.949354e-06 0)
(6.283696e-06 5.541827e-06 -1.863364e-31)
(2.568157e-06 7.032105e-07 0)
(1.868024e-06 -2.11804e-06 0)
(1.471186e-06 -4.461388e-06 -1.332542e-31)
(1.205897e-06 -6.188491e-06 -6.231166e-32)
(9.835063e-07 -7.339562e-06 -1.149172e-31)
(4.352966e-06 2.254542e-06 2.028945e-29)
(4.44903e-06 1.374838e-06 -1.856501e-29)
(3.691627e-06 -4.581252e-07 1.169324e-29)
(2.975736e-06 -2.752674e-06 3.231588e-29)
(2.479471e-06 -4.785424e-06 2.06361e-29)
(2.082691e-06 -6.370736e-06 0)
(1.715069e-06 -7.465624e-06 -1.603024e-34)
(2.085125e-06 2.441596e-07 2.361862e-29)
(3.939452e-06 -2.024723e-07 -5.696663e-29)
(4.166308e-06 -1.662327e-06 -5.354037e-29)
(3.850988e-06 -3.457507e-06 -2.427256e-29)
(3.426104e-06 -5.189155e-06 7.864809e-31)
(2.963636e-06 -6.622841e-06 0)
(2.472613e-06 -7.643347e-06 3.418369e-31)
(2.044967e-06 -2.270268e-07 -6.346063e-32)
(4.08824e-06 -1.104313e-06 -3.941448e-29)
(4.788575e-06 -2.500028e-06 -7.509592e-29)
(4.770585e-06 -4.082219e-06 -7.243154e-29)
(4.408529e-06 -5.600995e-06 8.375562e-30)
(3.887578e-06 -6.918801e-06 -1.688783e-33)
(3.278245e-06 -7.871775e-06 2.860757e-29)
(2.324371e-06 -4.574748e-07 0)
(4.690053e-06 -1.626196e-06 5.000258e-31)
(5.680185e-06 -3.068646e-06 -8.309951e-31)
(5.834468e-06 -4.590312e-06 -4.520764e-29)
(5.499606e-06 -6.030222e-06 2.905138e-30)
(4.898956e-06 -7.256706e-06 -2.67892e-29)
(4.157209e-06 -8.15973e-06 -6.268799e-29)
(2.734074e-06 -5.945704e-07 0)
(5.539316e-06 -1.968715e-06 -6.009107e-29)
(6.778947e-06 -3.489098e-06 -7.207979e-29)
(7.061313e-06 -5.025207e-06 -1.89726e-29)
(6.718242e-06 -6.456391e-06 -4.920715e-29)
(6.02829e-06 -7.663748e-06 3.609825e-30)
(5.135524e-06 -8.523926e-06 0)
(3.218205e-06 -6.886654e-07 1.168926e-28)
(6.542369e-06 -2.225095e-06 -7.179905e-29)
(8.04196e-06 -3.838397e-06 -6.968924e-29)
(8.434183e-06 -5.437067e-06 0)
(8.068239e-06 -6.901413e-06 -1.253214e-28)
(7.277756e-06 -8.12742e-06 3.83817e-30)
(6.226032e-06 -8.992539e-06 4.397495e-30)
(3.765701e-06 -7.68223e-07 1.341576e-32)
(7.674538e-06 -2.454083e-06 1.685631e-28)
(9.4612e-06 -4.180146e-06 8.374791e-29)
(9.959882e-06 -5.866966e-06 2.760677e-30)
(9.561134e-06 -7.39536e-06 -2.918739e-28)
(8.652911e-06 -8.668033e-06 4.106047e-30)
(7.429358e-06 -9.560146e-06 0)
(4.3737e-06 -8.460636e-07 -1.591731e-28)
(8.935383e-06 -2.685965e-06 1.954947e-28)
(1.104071e-05 -4.543673e-06 9.491315e-29)
(1.165076e-05 -6.344695e-06 -1.826874e-28)
(1.121032e-05 -7.966076e-06 -1.023671e-31)
(1.016852e-05 -9.309997e-06 0)
(8.751735e-06 -1.024471e-05 0)
(5.046779e-06 -9.299734e-07 0)
(1.033434e-05 -2.939865e-06 0)
(1.279218e-05 -4.952628e-06 2.181016e-28)
(1.352258e-05 -6.895847e-06 -2.102339e-28)
(1.303318e-05 -8.637371e-06 1.15417e-31)
(1.184146e-05 -1.007552e-05 0)
(1.020907e-05 -1.106845e-05 0)
(5.792708e-06 -1.024501e-06 0)
(1.188625e-05 -3.229384e-06 -2.561484e-28)
(1.473436e-05 -5.425798e-06 2.489033e-28)
(1.559716e-05 -7.540773e-06 2.363502e-28)
(1.505228e-05 -9.430246e-06 -2.295877e-28)
(1.369257e-05 -1.098542e-05 0)
(1.181963e-05 -1.205179e-05 2.036439e-28)
(6.620753e-06 -1.133913e-06 0)
(1.360999e-05 -3.56514e-06 -2.922899e-28)
(1.689171e-05 -5.977417e-06 -2.732621e-30)
(1.790132e-05 -8.296956e-06 2.723937e-28)
(1.729638e-05 -1.036485e-05 -2.554492e-28)
(1.574756e-05 -1.206042e-05 2.371758e-28)
(1.360522e-05 -1.321505e-05 1.764346e-31)
(7.541474e-06 -1.260999e-06 -2.669627e-28)
(1.552879e-05 -3.955348e-06 0)
(1.92924e-05 -6.620041e-06 -2.990159e-30)
(2.046463e-05 -9.180109e-06 -4.194794e-30)
(1.98057e-05 -1.146339e-05 -5.785864e-28)
(1.803842e-05 -1.332324e-05 2.681015e-28)
(1.559176e-05 -1.458007e-05 -2.457992e-28)
(8.567576e-06 -1.408312e-06 -3.007011e-28)
(1.766927e-05 -4.407663e-06 0)
(2.196633e-05 -7.364619e-06 -6.549327e-30)
(2.33149e-05 -1.019519e-05 4.078478e-28)
(2.265086e-05 -1.274468e-05 -2.401212e-28)
(2.060711e-05 -1.480005e-05 0)
(1.781003e-05 -1.61716e-05 2.763268e-28)
(9.714064e-06 -1.578671e-06 0)
(2.006322e-05 -4.929747e-06 -4.15368e-28)
(2.495529e-05 -8.220631e-06 0)
(2.650207e-05 -1.135118e-05 3.970927e-28)
(2.580548e-05 -1.422227e-05 1.280952e-29)
(2.347707e-05 -1.651084e-05 1.509887e-29)
(2.029236e-05 -1.801713e-05 3.274198e-28)
(1.099796e-05 -1.776373e-06 0)
(2.274907e-05 -5.53522e-06 -9.31714e-28)
(2.831573e-05 -9.216801e-06 -3.991122e-30)
(3.008386e-05 -1.271473e-05 -5.527337e-30)
(2.932463e-05 -1.593409e-05 0)
(2.669479e-05 -1.848744e-05 0)
(2.308048e-05 -2.015284e-05 0)
(1.243837e-05 -2.005137e-06 -4.240859e-28)
(2.576807e-05 -6.23568e-06 -5.231409e-28)
(3.209812e-05 -1.037052e-05 -8.853461e-30)
(3.412268e-05 -1.429793e-05 -6.12057e-30)
(3.328746e-05 -1.791412e-05 0)
(3.03262e-05 -2.077621e-05 -4.435129e-28)
(2.622783e-05 -2.262699e-05 -4.194971e-29)
(1.405671e-05 -2.269275e-06 -4.746355e-28)
(2.916557e-05 -7.043944e-06 -5.851425e-28)
(3.635825e-05 -1.170165e-05 -1.473304e-29)
(3.867361e-05 -1.612462e-05 -1.358306e-29)
(3.775617e-05 -2.019846e-05 0)
(3.445648e-05 -2.343371e-05 -4.764051e-28)
(2.979973e-05 -2.549846e-05 -2.32415e-29)
(1.587707e-05 -2.573532e-06 -5.311604e-28)
(3.299279e-05 -7.973593e-06 -1.305334e-27)
(4.115901e-05 -1.323091e-05 -6.307701e-28)
(4.379381e-05 -1.821806e-05 0)
(4.279531e-05 -2.279704e-05 1.45746e-28)
(3.924659e-05 -2.651699e-05 2.215546e-28)
(3.387715e-05 -2.883028e-05 5.164742e-29)
(1.792617e-05 -2.92275e-06 -5.943309e-28)
(3.730734e-05 -9.038507e-06 -1.456952e-27)
(4.657346e-05 -1.497785e-05 -1.403252e-27)
(4.95642e-05 -2.059502e-05 -6.561559e-28)
(4.849171e-05 -2.571753e-05 2.116189e-29)
(4.458693e-05 -3.001187e-05 -5.954207e-28)
(3.848281e-05 -3.26443e-05 5.086354e-28)
(2.023395e-05 -3.321976e-06 0)
(4.217286e-05 -1.025396e-05 -8.109413e-28)
(5.268436e-05 -1.696998e-05 -7.803146e-28)
(5.60871e-05 -2.330897e-05 -1.501852e-27)
(5.489004e-05 -2.907686e-05 0)
(5.053243e-05 -3.395327e-05 -6.643453e-28)
(4.36662e-05 -3.69527e-05 6.980839e-31)
(2.283227e-05 -3.77507e-06 7.414778e-28)
(4.76562e-05 -1.163071e-05 0)
(5.957183e-05 -1.922032e-05 0)
(6.343604e-05 -2.636399e-05 2.020171e-29)
(6.208671e-05 -3.284508e-05 8.189192e-28)
(5.71804e-05 -3.832782e-05 0)
(4.949454e-05 -4.174382e-05 -6.696983e-28)
(2.575581e-05 -4.285068e-06 1.657243e-27)
(5.382832e-05 -1.317616e-05 0)
(6.731818e-05 -2.173489e-05 0)
(7.167876e-05 -2.975268e-05 9.123865e-28)
(7.010267e-05 -3.697569e-05 1.736541e-27)
(6.456646e-05 -4.30283e-05 -8.326543e-28)
(5.612443e-05 -4.694529e-05 0)
(2.90421e-05 -4.854703e-06 9.260364e-28)
(6.076615e-05 -1.489702e-05 5.721054e-30)
(7.601327e-05 -2.451832e-05 1.104781e-27)
(8.08965e-05 -3.346306e-05 2.582117e-29)
(7.899385e-05 -4.140924e-05 3.330178e-29)
(7.270359e-05 -4.791495e-05 -9.169909e-28)
(6.309622e-05 -5.221981e-05 0)
(3.273243e-05 -5.487297e-06 0)
(6.855508e-05 -1.68028e-05 -1.269038e-27)
(8.575828e-05 -2.758356e-05 1.223902e-27)
(9.11892e-05 -3.751066e-05 0)
(8.885314e-05 -4.618135e-05 -1.022805e-27)
(8.145076e-05 -5.306709e-05 1.736708e-28)
(7.024321e-05 -5.739116e-05 1.024726e-28)
(3.687097e-05 -6.186789e-06 -1.156247e-27)
(7.729095e-05 -1.890571e-05 -1.418547e-27)
(9.666777e-05 -3.094813e-05 1.366149e-27)
(0.0001026635 -4.190716e-05 0)
(9.974287e-05 -5.12623e-05 -8.091732e-29)
(9.088373e-05 -5.833291e-05 -1.557832e-31)
(7.746968e-05 -6.21691e-05 1.146893e-28)
(4.149533e-05 -6.956378e-06 -1.292097e-27)
(8.707995e-05 -2.122012e-05 -1.584834e-27)
(0.0001088768 -3.464204e-05 1.52701e-27)
(0.0001154586 -4.669455e-05 0)
(0.0001117692 -5.668481e-05 0)
(0.000101001 -6.365489e-05 -1.266878e-27)
(8.471002e-05 -6.62654e-05 2.1574e-28)
(4.664033e-05 -7.797766e-06 -1.445079e-27)
(9.804646e-05 -2.376392e-05 -1.782717e-27)
(0.0001225476 -3.870744e-05 0)
(0.0001297692 -5.195663e-05 1.540851e-27)
(0.000125176 -6.260462e-05 -1.010735e-28)
(0.0001121392 -6.929721e-05 -2.695256e-27)
(9.232959e-05 -7.000999e-05 4.149246e-28)
(5.222301e-05 -8.693772e-06 -1.607431e-27)
(0.0001102524 -2.650533e-05 0)
(0.0001378673 -4.317201e-05 -1.93962e-27)
(0.0001458357 -5.778817e-05 1.767703e-27)
(0.0001403209 -6.928014e-05 -1.698342e-27)
(0.0001249626 -7.597532e-05 -3.139909e-27)
(0.0001014626 -7.537552e-05 -1.436044e-27)
(5.824747e-05 -9.60447e-06 0)
(0.0001237559 -2.945749e-05 0)
(0.0001550059 -4.801427e-05 -4.27459e-27)
(0.0001639029 -6.418938e-05 0)
(0.0001574892 -7.674509e-05 -3.797256e-27)
(0.0001398114 -8.37492e-05 -1.755274e-27)
(0.0001126369 -8.229214e-05 1.596066e-27)
(6.520162e-05 -1.060687e-05 -1.993881e-27)
(0.0001384973 -3.250454e-05 2.457097e-27)
(0.0001741389 -5.305187e-05 2.387224e-27)
(0.0001843088 -7.10525e-05 0)
(0.000176966 -8.486565e-05 -2.124879e-27)
(0.0001569282 -9.241195e-05 0)
(0.000126112 -9.044466e-05 1.398026e-27)
(7.290619e-05 -1.158026e-05 -2.213344e-27)
(0.0001545371 -3.539724e-05 2.74426e-27)
(0.000194994 -5.804441e-05 8.047276e-27)
(0.0002075052 -7.805526e-05 5.239114e-27)
(0.0001991708 -9.337209e-05 -2.224818e-27)
(0.0001766388 -0.000101614 1.859963e-28)
(0.0001418019 -9.924371e-05 -2.133878e-28)
(8.150811e-05 -1.24945e-05 3.769282e-30)
(0.0001727424 -3.819926e-05 1.468641e-29)
(0.0002179968 -6.256385e-05 3.06846e-27)
(0.0002331744 -8.47759e-05 5.605079e-27)
(0.0002246676 -0.0001018016 -3.033994e-27)
(0.0001997209 -0.0001108685 4.138704e-28)
(0.0001604908 -0.0001081438 9.545085e-28)
(9.128052e-05 -1.332604e-05 -4.12498e-30)
(0.0001935281 -4.073485e-05 -1.612051e-29)
(0.0002442691 -6.672206e-05 3.194754e-27)
(0.0002620837 -9.062607e-05 1.98888e-27)
(0.0002552418 -0.0001095189 -1.81812e-27)
(0.0002280355 -0.000119666 2.326747e-27)
(0.0001840129 -0.0001166111 0)
(0.0001027934 -1.407948e-05 0)
(0.0002180424 -4.284047e-05 0)
(0.0002749491 -6.983642e-05 3.664779e-27)
(0.0002956937 -9.461576e-05 3.867415e-27)
(0.0002913285 -0.0001155692 5.416938e-27)
(0.0002654982 -0.0001277451 5.149098e-27)
(0.0002170479 -0.0001252429 0)
(0.0001164285 -1.46696e-05 -9.637813e-30)
(0.0002480429 -4.452e-05 3.661697e-29)
(0.0003124557 -7.18665e-05 1.255547e-28)
(0.0003364344 -9.700413e-05 0)
(0.0003357239 -0.0001190649 7.580437e-27)
(0.0003137376 -0.0001344464 -5.705698e-28)
(0.0002655641 -0.0001346006 -1.348283e-27)
(0.000130541 -1.426635e-05 -3.70468e-27)
(0.0002860153 -4.584727e-05 4.063985e-29)
(0.0003597202 -7.276377e-05 -4.523226e-27)
(0.0003875968 -9.727317e-05 0)
(0.0003910257 -0.0001196209 4.696671e-27)
(0.0003766005 -0.0001364655 3.141956e-28)
(0.0003419812 -0.000140795 -6.415708e-27)
(0.0001913105 -2.775466e-05 -4.23061e-27)
(0.0003435448 -5.009075e-05 -5.034212e-27)
(0.0004232338 -7.352183e-05 -5.014498e-27)
(0.0004516122 -9.355656e-05 -3.984162e-28)
(0.0004594426 -0.0001126964 -1.007817e-27)
(0.0004625984 -0.0001345954 2.623074e-27)
(0.0004667728 -0.000179418 -2.43414e-27)
(0.0002357927 -3.633143e-05 0)
(0.0004515455 -7.158149e-05 5.254253e-27)
(0.0005126138 -7.790087e-05 5.431744e-27)
(0.0005322824 -8.568771e-05 2.069559e-28)
(0.0005504123 -0.0001060476 -5.290444e-27)
(0.0005949425 -0.0001625919 -4.593198e-28)
(0.000672649 -0.0002859886 0)
(0.0003470829 -5.357652e-05 4.844947e-27)
(0.0005435807 -6.801712e-05 1.194239e-26)
(0.0006072121 -6.877053e-05 5.571231e-27)
(0.0006411053 -8.102678e-05 1.178243e-26)
(0.0006870413 -0.0001157757 -5.889898e-27)
(0.0008027369 -0.0002360316 4.792698e-27)
(0.0009794947 -0.0004373681 1.95532e-25)
(0.000414067 -5.056903e-05 6.85158e-27)
(0.0006900481 -7.059241e-05 -1.805153e-29)
(0.0007408815 -6.58484e-05 0)
(0.0007758598 -7.224717e-05 1.783891e-28)
(0.0008715882 -0.0001430237 1.21181e-26)
(0.001072631 -0.0003350373 1.390138e-25)
(0.001434962 -0.0006220605 2.581156e-25)
(0.0005571136 -6.177259e-05 -8.977211e-27)
(0.0008175365 -6.451846e-05 5.945984e-29)
(0.0008454472 -4.541855e-05 1.460732e-28)
(0.000909984 -5.613123e-05 -1.597426e-26)
(0.00108691 -0.0001670274 1.342818e-25)
(0.001439935 -0.0004277851 5.453257e-25)
(0.002209536 -0.0008459311 -2.939123e-25)
(0.0007062102 -7.143905e-05 -1.084017e-26)
(0.0008923119 -3.570113e-05 0)
(0.0009328479 -1.08293e-05 2.621571e-28)
(0.001045395 -3.643704e-05 3.143786e-25)
(0.001333475 -0.0001804814 1.281981e-25)
(0.001981879 -0.0005111195 9.272585e-25)
(0.00356435 -0.001184135 -1.565071e-24)
(0.0008004596 -7.200525e-05 0)
(0.0009599968 -5.898833e-06 1.207281e-28)
(0.001025362 2.702105e-05 1.988463e-27)
(0.001198241 -1.598192e-05 2.81511e-25)
(0.001629687 -0.000188381 -5.826405e-25)
(0.002771572 -0.0006049001 3.665815e-26)
(0.005514265 -0.001730308 -2.574153e-24)
(0.0008505419 -7.301745e-05 0)
(0.001025883 1.725968e-05 1.602269e-25)
(0.001131269 5.65651e-05 -1.957189e-25)
(0.001383334 1.217158e-05 1.497481e-25)
(0.002048189 -0.0001663348 -2.14706e-25)
(0.003847144 -0.0006793719 -6.519313e-25)
(0.007869146 -0.002632473 -8.05074e-25)
(0.0008518776 -7.276024e-05 -1.401548e-26)
(0.001095662 3.194748e-05 3.309063e-25)
(0.001248365 8.210381e-05 -9.759295e-26)
(0.00160614 5.22559e-05 3.642283e-25)
(0.002569919 -9.109621e-05 2.365073e-25)
(0.005149385 -0.0006850371 2.501136e-25)
(0.01015063 -0.003369017 -3.007962e-24)
(0.0008102225 -6.953893e-05 -6.902734e-27)
(0.001170769 3.618254e-05 -1.332142e-25)
(0.00139154 0.00010705 -1.313151e-25)
(0.001879024 0.000122754 3.184856e-25)
(0.003219834 6.470266e-05 1.571982e-25)
(0.006594956 -0.000557943 1.614815e-24)
(0.01226714 -0.00395307 -9.777006e-24)
(0.0007280305 -5.581104e-05 2.309895e-25)
(0.001239029 3.901397e-05 -2.613708e-25)
(0.001550617 0.000156016 -1.134379e-25)
(0.002211305 0.0002555934 2.191802e-25)
(0.003991475 0.0003712322 4.398615e-25)
(0.008074402 -0.0003452851 2.657382e-26)
(0.0141918 -0.005096874 -1.340372e-23)
(0.0006445521 -3.974218e-05 4.947111e-25)
(0.001247453 6.428989e-05 2.326549e-25)
(0.001717974 0.0002264261 -3.244341e-26)
(0.002609959 0.0004590587 2.620071e-25)
(0.004927678 0.0007543719 -4.514197e-25)
(0.009606202 -0.0005914235 -2.332538e-25)
(0.01555995 -0.007837813 -4.052593e-25)
(0.0005767434 -3.003235e-05 1.572511e-25)
(0.001210087 0.0001110735 7.937355e-26)
(0.001843284 0.0003518794 -6.414535e-26)
(0.003050067 0.0007756213 -1.836923e-25)
(0.00591684 0.0010395 -9.367604e-25)
(0.01072695 -0.002335293 -1.577513e-24)
(0.01617515 -0.01441306 -1.757284e-24)
(0.0004527383 -9.700898e-07 1.100062e-26)
(0.001088719 0.0002087214 -7.646268e-26)
(0.001873579 0.0005837715 -1.919064e-25)
(0.003385039 0.001206838 -6.993318e-25)
(0.006581054 0.0008192897 -2.120609e-24)
(0.01101073 -0.006425856 -5.267881e-24)
(0.01453744 -0.02651899 1.671825e-23)
(0.0003408967 3.043174e-05 1.987325e-26)
(0.0009124076 0.0003473413 1.109218e-25)
(0.001711417 0.0009270258 -2.432187e-25)
(0.003281163 0.001754791 1.473845e-25)
(0.006256836 0.0003407879 1.439031e-25)
(0.01028542 -0.01043941 -1.256314e-24)
(0.01258483 -0.0386477 5.268636e-25)
(0.0002404232 5.32376e-05 3.501071e-26)
(0.0006905902 0.0004791094 1.751662e-25)
(0.001387967 0.001314256 -1.833653e-25)
(0.002767296 0.002374125 -1.098354e-25)
(0.005251362 0.0002207753 7.064304e-25)
(0.009154561 -0.01179631 1.189067e-24)
(0.01594604 -0.03754843 -2.726995e-24)
(0.0001277581 8.895106e-05 4.135254e-26)
(0.0004286305 0.0006019734 7.205338e-26)
(0.0009101944 0.001688306 -1.079884e-25)
(0.001890374 0.002941372 -1.000136e-25)
(0.003587031 0.000414769 7.001277e-25)
(0.006312785 -0.01205803 3.469729e-24)
(0.01146017 -0.03276989 3.217081e-24)
(4.34304e-05 9.116633e-05 3.368045e-27)
(0.0001483758 0.0006929323 -1.0179e-26)
(0.0003168366 0.001886416 -8.359368e-27)
(0.0006764115 0.003280553 4.027254e-26)
(0.00133017 0.0007348064 -6.352689e-26)
(0.002280716 -0.01103346 2.51169e-25)
(0.003093919 -0.02932274 -2.115359e-24)
(-3.677654e-05 8.535348e-05 -3.736863e-27)
(-0.0001420177 0.0006798331 -7.609438e-27)
(-0.0003307988 0.001860053 8.477578e-27)
(-0.0006978884 0.003274185 -5.860583e-27)
(-0.001237254 0.0008507185 -6.188254e-25)
(-0.001893162 -0.01076954 -8.806901e-25)
(-0.002533591 -0.0287188 -6.076387e-25)
(-0.0001193579 7.946351e-05 3.042163e-27)
(-0.0004167408 0.0005701667 4.717504e-27)
(-0.0008947008 0.00161664 8.115232e-27)
(-0.001865107 0.00291014 -9.931755e-26)
(-0.003464395 0.0007491298 -3.908451e-25)
(-0.005702153 -0.01095196 -2.037066e-24)
(-0.009382715 -0.03146082 -2.416738e-24)
(-0.0002094248 6.607757e-05 -1.829608e-26)
(-0.000661334 0.0004316467 3.432438e-26)
(-0.001325453 0.001225254 1.723216e-26)
(-0.002662805 0.00229324 9.547887e-26)
(-0.005011223 0.0005929432 -2.299628e-25)
(-0.008304506 -0.01072647 -2.656678e-24)
(-0.01387926 -0.03474272 -1.31708e-23)
(-0.0003234795 2.986902e-05 4.682076e-26)
(-0.0008671699 0.0002966653 -1.705198e-26)
(-0.001609731 0.0008113237 4.622245e-26)
(-0.003069348 0.001621449 4.602443e-25)
(-0.005878458 0.0007054297 -2.896697e-25)
(-0.009843561 -0.008810834 -5.812657e-24)
(-0.01413152 -0.03494434 -7.917521e-24)
(-0.0004317434 -1.835356e-06 8.17588e-26)
(-0.001017015 0.0001749024 -6.976653e-26)
(-0.001719442 0.0004791875 3.306394e-25)
(-0.003067449 0.001026225 8.019177e-25)
(-0.006034446 0.0009871444 2.923754e-25)
(-0.01054209 -0.004715504 -7.343463e-24)
(-0.01343488 -0.02323228 -2.42846e-23)
(-0.0005426325 -2.482068e-05 -2.185813e-25)
(-0.001119175 9.291033e-05 9.779207e-26)
(-0.001675504 0.0002768991 7.367041e-25)
(-0.002705856 0.0005832811 6.485708e-25)
(-0.005199088 0.0009155644 1.555947e-25)
(-0.009647149 -0.00127333 -1.881808e-24)
(-0.01425292 -0.0112897 1.286151e-24)
(-0.0006074028 -3.374174e-05 -4.784449e-25)
(-0.001158143 5.286959e-05 1.044782e-25)
(-0.00154695 0.0001765223 4.420129e-25)
(-0.002274246 0.0003202409 3.03367e-25)
(-0.004143359 0.0005589815 -1.732825e-26)
(-0.008189903 -4.082336e-05 3.678785e-25)
(-0.01379524 -0.005105872 -1.499599e-24)
(-0.0007007276 -5.054392e-05 -4.23732e-25)
(-0.00114409 4.256808e-05 -1.282957e-25)
(-0.001402362 0.0001200799 -2.810456e-25)
(-0.001907201 0.0001537535 -4.459392e-25)
(-0.003222711 0.0002168215 2.147273e-25)
(-0.006444593 -5.907407e-05 3.366339e-25)
(-0.01180757 -0.002846287 2.125536e-24)
(-0.0007869844 -6.171245e-05 -1.135723e-25)
(-0.001091781 4.374233e-05 1.999871e-25)
(-0.001256128 0.0001025193 -8.75566e-28)
(-0.001606481 8.813257e-05 -6.465942e-25)
(-0.002545788 -5.482283e-06 -2.075669e-25)
(-0.004976744 -0.000328091 3.03779e-25)
(-0.009569804 -0.00205135 -4.933194e-25)
(-0.0008582117 -7.165785e-05 -1.360656e-26)
(-0.001023219 4.328769e-05 3.471718e-25)
(-0.001133411 8.786566e-05 2.708507e-25)
(-0.001390293 4.534144e-05 -1.909833e-25)
(-0.002020818 -9.152585e-05 -3.1598e-25)
(-0.003729038 -0.0004454343 1.589145e-25)
(-0.007433369 -0.001802359 -7.446977e-25)
(-0.000876597 -7.308853e-05 0)
(-0.0009739908 2.854473e-05 -5.043384e-26)
(-0.001036904 7.04232e-05 -4.347501e-26)
(-0.001213483 3.35562e-05 -2.117121e-25)
(-0.001644309 -0.0001211109 -2.824741e-25)
(-0.002769693 -0.0004765584 1.708008e-25)
(-0.005452182 -0.001466158 1.231623e-24)
(-0.0008420081 -7.294978e-05 0)
(-0.0009259265 3.77745e-06 -1.175298e-28)
(-0.0009579786 3.68022e-05 3.267694e-26)
(-0.001072575 1.523979e-05 1.473581e-25)
(-0.00136628 -0.0001094867 -3.28943e-25)
(-0.002070338 -0.000428766 1.454808e-25)
(-0.003767748 -0.001090724 1.795726e-25)
(-0.0007483147 -6.949769e-05 -1.154182e-26)
(-0.0008676762 -2.231452e-05 0)
(-0.0008821342 4.611409e-06 0)
(-0.0009527201 -8.993932e-06 1.256727e-25)
(-0.001151107 -0.0001145854 6.835305e-25)
(-0.001579001 -0.0003730324 -3.150868e-25)
(-0.002534418 -0.0008242016 -1.262477e-24)
(-0.0006140642 -6.399153e-05 -9.741542e-27)
(-0.0008049435 -4.97193e-05 -6.557266e-29)
(-0.0008089868 -2.766261e-05 -1.315498e-28)
(-0.0008394624 -2.776452e-05 -1.287871e-27)
(-0.0009703431 -0.0001089186 5.406158e-25)
(-0.00123455 -0.0003142642 -2.938e-25)
(-0.001746629 -0.0006356497 4.809659e-25)
(-0.0004465986 -5.06096e-05 0)
(-0.0007096272 -6.613652e-05 8.476155e-27)
(-0.0007256487 -5.377076e-05 0)
(-0.0007360727 -5.322697e-05 -3.881121e-28)
(-0.0008116881 -0.00010878 -3.869657e-28)
(-0.0009748902 -0.0002592415 -3.025914e-26)
(-0.001254925 -0.0004845349 3.379932e-25)
(-0.0003660461 -5.063396e-05 0)
(-0.0005755769 -6.857859e-05 -6.769574e-27)
(-0.0006105412 -6.228155e-05 6.469923e-27)
(-0.0006196139 -6.438601e-05 0)
(-0.0006572244 -9.964428e-05 -7.584934e-28)
(-0.0007664991 -0.0002093477 3.939557e-27)
(-0.0009218171 -0.000365151 7.776284e-26)
(-0.0002628569 -3.709211e-05 0)
(-0.0004811159 -7.293996e-05 -1.780162e-26)
(-0.0005190344 -7.330034e-05 -7.870728e-30)
(-0.0005272209 -8.033225e-05 -1.258538e-26)
(-0.0005332463 -9.752262e-05 -9.876561e-28)
(-0.0005784493 -0.0001534174 5.309687e-27)
(-0.0006571352 -0.0002623131 -5.152205e-27)
(-0.0001446474 -7.016374e-06 4.92315e-27)
(-0.0003598908 -5.193927e-05 -5.540812e-27)
(-0.0004305496 -7.255271e-05 1.65632e-30)
(-0.0004499304 -9.025585e-05 -1.029679e-26)
(-0.0004548561 -0.000113615 0)
(-0.0004543464 -0.0001358187 0)
(-0.0004642222 -0.0001810609 -7.441005e-27)
(-0.0001245345 -1.079905e-05 4.041264e-27)
(-0.0002907895 -4.480814e-05 -5.000693e-27)
(-0.0003652811 -7.194474e-05 4.880147e-27)
(-0.0003888261 -9.478895e-05 4.753385e-27)
(-0.0003895332 -0.0001170773 0)
(-0.0003758055 -0.0001350577 0)
(-0.0003380867 -0.0001439519 -4.473595e-27)
(-0.0001207778 -1.511415e-05 -3.619392e-27)
(-0.0002540938 -4.475511e-05 -4.660836e-27)
(-0.0003176713 -7.174452e-05 -1.268542e-28)
(-0.0003398087 -9.644218e-05 4.086392e-27)
(-0.000336862 -0.0001180658 1.329589e-27)
(-0.0003137933 -0.0001319628 -6.22721e-27)
(-0.0002628196 -0.0001282324 2.821761e-27)
(-0.000105699 -1.416658e-05 -3.283797e-27)
(-0.0002227562 -4.292376e-05 -3.650101e-29)
(-0.0002797058 -6.99726e-05 1.200173e-28)
(-0.0002998409 -9.486988e-05 1.710121e-28)
(-0.0002943931 -0.0001159337 0)
(-0.000266657 -0.0001276655 -3.933208e-27)
(-0.0002162378 -0.0001233579 3.144229e-27)
(-9.374205e-05 -1.334257e-05 0)
(-0.0001976458 -4.084477e-05 -6.650564e-29)
(-0.0002486211 -6.697904e-05 -1.125937e-28)
(-0.0002661819 -9.111281e-05 8.076246e-27)
(-0.0002588366 -0.0001103181 1.51797e-27)
(-0.000230833 -0.0001206652 5.608553e-27)
(-0.000186122 -0.0001174445 2.198871e-27)
(-8.380445e-05 -1.254091e-05 -7.922721e-30)
(-0.0001765015 -3.840731e-05 -3.103514e-29)
(-0.0002220252 -6.295149e-05 0)
(-0.000237038 -8.540117e-05 -8.795037e-30)
(-0.000228043 -0.0001027041 2.930226e-27)
(-0.0002024824 -0.0001120149 2.69328e-27)
(-0.0001625549 -0.0001093418 -5.131337e-28)
(-7.503023e-05 -1.165608e-05 2.390967e-27)
(-0.000158011 -3.568471e-05 -3.042015e-27)
(-0.000198776 -5.856133e-05 5.368584e-27)
(-0.0002111489 -7.882553e-05 -6.188548e-27)
(-0.0002023519 -9.440447e-05 2.428309e-27)
(-0.0001792157 -0.00010286 0)
(-0.0001436389 -0.0001005615 4.61634e-28)
(-6.715829e-05 -1.070542e-05 2.158637e-27)
(-0.0001417402 -3.285855e-05 -2.662875e-27)
(-0.0001776989 -5.366551e-05 2.590765e-27)
(-0.0001877399 -7.194148e-05 0)
(-0.0001799965 -8.602109e-05 -2.315779e-27)
(-0.000159393 -9.377568e-05 0)
(-0.0001278664 -9.188812e-05 1.952113e-27)
(-6.005245e-05 -9.717387e-06 0)
(-0.0001267815 -2.985099e-05 0)
(-0.0001583386 -4.868888e-05 -4.641526e-27)
(-0.0001671407 -6.514918e-05 0)
(-0.0001603782 -7.79748e-05 -4.137807e-27)
(-0.0001421811 -8.518553e-05 -1.916715e-27)
(-0.0001143529 -8.381382e-05 1.746758e-27)
(-5.389438e-05 -8.815431e-06 -1.743707e-27)
(-0.0001130591 -2.691562e-05 0)
(-0.0001409753 -4.386773e-05 -2.037005e-27)
(-0.0001488766 -5.876923e-05 2.020591e-27)
(-0.0001430539 -7.05266e-05 -1.85047e-27)
(-0.0001272287 -7.742321e-05 -3.426718e-27)
(-0.000103152 -7.691574e-05 -1.56986e-27)
(-4.817413e-05 -7.91956e-06 -1.564075e-27)
(-0.0001006268 -2.417104e-05 -1.917303e-27)
(-0.0001254222 -3.939253e-05 0)
(-0.0001325988 -5.291749e-05 1.851078e-27)
(-0.000127737 -6.382122e-05 1.095628e-28)
(-0.0001142914 -7.071143e-05 -3.200874e-27)
(-9.398472e-05 -7.152527e-05 -4.522075e-28)
(-4.289223e-05 -7.073257e-06 -1.40399e-27)
(-8.94374e-05 -2.160808e-05 -1.722702e-27)
(-0.0001115151 -3.529335e-05 1.660748e-27)
(-0.0001180674 -4.760589e-05 0)
(-0.0001141463 -5.783776e-05 0)
(-0.0001030291 -6.500213e-05 -1.381371e-27)
(-8.632241e-05 -6.77332e-05 2.328765e-27)
(-3.813593e-05 -6.295514e-06 -1.257031e-27)
(-7.943237e-05 -1.926547e-05 -1.542628e-27)
(-9.907218e-05 -3.155069e-05 1.486274e-27)
(-0.0001050482 -4.274792e-05 0)
(-0.0001019258 -5.232308e-05 8.795256e-29)
(-9.276484e-05 -5.957098e-05 1.697736e-31)
(-7.898774e-05 -6.350939e-05 -1.249377e-28)
(-3.387328e-05 -5.586077e-06 0)
(-7.049095e-05 -1.712921e-05 -1.380497e-27)
(-8.793622e-05 -2.812875e-05 1.331809e-27)
(-9.335272e-05 -3.826782e-05 0)
(-9.083641e-05 -4.712928e-05 -1.271554e-27)
(-8.316318e-05 -5.416088e-05 -1.890876e-28)
(-7.162239e-05 -5.854544e-05 -1.11692e-28)
(-3.006807e-05 -4.942864e-06 1.007457e-27)
(-6.250973e-05 -1.518822e-05 -6.217302e-30)
(-7.797687e-05 -2.500307e-05 1.181838e-27)
(-8.284784e-05 -3.413216e-05 -2.808597e-29)
(-8.07813e-05 -4.223796e-05 -3.447555e-29)
(-7.424055e-05 -4.885073e-05 -9.988574e-28)
(-6.430483e-05 -5.315045e-05 0)
(-2.667669e-05 -4.362713e-06 1.803388e-27)
(-5.539466e-05 -1.343274e-05 0)
(-6.908312e-05 -2.216083e-05 0)
(-7.343261e-05 -3.033745e-05 1.043597e-27)
(-7.170861e-05 -3.76934e-05 1.954361e-27)
(-6.593801e-05 -4.382168e-05 -9.0665e-28)
(-5.716704e-05 -4.766973e-05 0)
(-2.365785e-05 -3.842786e-06 8.070359e-28)
(-4.906117e-05 -1.185502e-05 -4.992389e-30)
(-6.115578e-05 -1.959215e-05 -8.23642e-30)
(-6.501048e-05 -2.687316e-05 -2.313226e-29)
(-6.352966e-05 -3.346797e-05 8.343002e-28)
(-5.841269e-05 -3.9013e-05 0)
(-5.042059e-05 -4.235834e-05 -7.286481e-28)
(-2.097368e-05 -3.380564e-06 -5.927064e-31)
(-4.343235e-05 -1.044894e-05 -8.940677e-28)
(-5.410526e-05 -1.729367e-05 -8.642734e-28)
(-5.750104e-05 -2.375325e-05 -1.634879e-27)
(-5.618918e-05 -2.962375e-05 0)
(-5.164947e-05 -3.456518e-05 -7.227687e-28)
(-4.452585e-05 -3.753352e-05 7.611025e-31)
(-1.858902e-05 -2.973131e-06 -6.461344e-28)
(-3.843648e-05 -9.207014e-06 -1.590545e-27)
(-4.784834e-05 -1.525855e-05 -1.541194e-27)
(-5.083545e-05 -2.098304e-05 -7.50608e-28)
(-4.966518e-05 -2.620206e-05 -2.302149e-29)
(-4.560418e-05 -3.056731e-05 -6.475288e-28)
(-3.928854e-05 -3.320721e-05 6.152462e-28)
(-1.647142e-05 -2.616395e-06 -5.786327e-28)
(-3.400548e-05 -8.11786e-06 -1.421954e-27)
(-4.230366e-05 -1.347253e-05 -6.870325e-28)
(-4.493879e-05 -1.855576e-05 0)
(-4.385744e-05 -2.322673e-05 -1.583292e-28)
(-4.01706e-05 -2.701695e-05 -2.407858e-28)
(-3.462616e-05 -2.936182e-05 -5.616317e-29)
(-1.459015e-05 -2.305131e-06 -5.182053e-28)
(-3.007456e-05 -7.165753e-06 -6.345385e-28)
(-3.738687e-05 -1.19067e-05 1.597653e-29)
(-3.970525e-05 -1.641365e-05 1.472894e-29)
(-3.871679e-05 -2.057118e-05 0)
(-3.529036e-05 -2.387255e-05 -5.180919e-28)
(-3.048834e-05 -2.597915e-05 2.520297e-29)
(-1.291774e-05 -2.034407e-06 -4.633764e-28)
(-2.658533e-05 -6.336592e-06 -5.67755e-28)
(-3.30238e-05 -1.054135e-05 9.582973e-30)
(-3.505274e-05 -1.454024e-05 6.623113e-30)
(-3.415592e-05 -1.822951e-05 0)
(-3.108208e-05 -2.115113e-05 -4.427073e-28)
(-2.685818e-05 -2.304337e-05 4.533193e-29)
(-1.142966e-05 -1.799852e-06 3.46801e-31)
(-2.348562e-05 -5.617071e-06 -1.016262e-27)
(-2.915055e-05 -9.355596e-06 4.310341e-30)
(-3.092411e-05 -1.291276e-05 5.966931e-30)
(-3.011108e-05 -1.619365e-05 0)
(-2.738202e-05 -1.879775e-05 0)
(-2.365734e-05 -2.049902e-05 0)
(-1.010412e-05 -1.596964e-06 0)
(-2.07286e-05 -4.994121e-06 -4.543625e-28)
(-2.57105e-05 -8.329844e-06 0)
(-2.726441e-05 -1.150823e-05 4.126405e-28)
(-2.652036e-05 -1.442912e-05 -1.378315e-29)
(-2.410447e-05 -1.675907e-05 -1.623093e-29)
(-2.082242e-05 -1.829426e-05 3.203717e-28)
(-8.920981e-06 -1.421711e-06 -3.295758e-28)
(-1.827218e-05 -4.456214e-06 0)
(-2.265274e-05 -7.447542e-06 7.037374e-30)
(-2.401068e-05 -1.031572e-05 3.156113e-28)
(-2.330314e-05 -1.29028e-05 -4.569406e-28)
(-2.118284e-05 -1.499064e-05 0)
(-1.830022e-05 -1.638489e-05 3.030666e-28)
(-7.862587e-06 -1.270136e-06 -2.933599e-28)
(-1.607719e-05 -3.990074e-06 0)
(-1.99187e-05 -6.679448e-06 3.205504e-30)
(-2.110213e-05 -9.266907e-06 4.495082e-30)
(-2.04025e-05 -1.157718e-05 -6.365428e-28)
(-1.856971e-05 -1.346179e-05 2.95113e-28)
(-1.604811e-05 -1.473601e-05 -2.708398e-28)
(-6.913497e-06 -1.13952e-06 0)
(-1.41106e-05 -3.588175e-06 -3.187755e-28)
(-1.746514e-05 -6.016532e-06 2.922542e-30)
(-1.848759e-05 -8.354171e-06 3.007498e-28)
(-1.784744e-05 -1.04399e-05 -2.822072e-28)
(-1.624171e-05 -1.215288e-05 2.622683e-28)
(-1.403288e-05 -1.331999e-05 1.886042e-31)
(-6.060267e-06 -1.027485e-06 0)
(-1.234444e-05 -3.243366e-06 -2.837179e-28)
(-1.526103e-05 -5.448536e-06 2.758438e-28)
(-1.613832e-05 -7.573261e-06 2.698142e-28)
(-1.556401e-05 -9.472239e-06 -2.453659e-28)
(-1.41547e-05 -1.103758e-05 1.107653e-29)
(-1.222234e-05 -1.211145e-05 2.135904e-28)
(-5.291412e-06 -9.316776e-07 0)
(-1.075418e-05 -2.948625e-06 0)
(-1.327655e-05 -4.964337e-06 2.430643e-28)
(-1.402305e-05 -6.909665e-06 -2.34588e-28)
(-1.350951e-05 -8.652575e-06 1.231429e-31)
(-1.227453e-05 -1.009352e-05 0)
(-1.058899e-05 -1.108858e-05 0)
(-4.596996e-06 -8.491128e-07 -1.78371e-28)
(-9.318788e-06 -2.695888e-06 2.192664e-28)
(-1.148509e-05 -4.55232e-06 1.042886e-28)
(-1.211286e-05 -6.348318e-06 -2.085325e-28)
(-1.165311e-05 -7.962452e-06 -1.089462e-31)
(-1.057377e-05 -9.301044e-06 9.369827e-30)