/*--------------------------------*- C++ -*----------------------------------*\
| =========                 |                                                 |
| \\      /  F ield         | OpenFOAM: The Open Source CFD Toolbox           |
|  \\    /   O peration     | Version:  2206                                  |
|   \\  /    A nd           | Website:  www.openfoam.com                      |
|    \\/     M anipulation  |                                                 |
\*---------------------------------------------------------------------------*/
FoamFile
{
    version     2.0;
    format      ascii;
    arch        "LSB;label=32;scalar=64";
    class       volScalarField;
    location    "1";
    object      ddt0(k.b);
}
// * * * * * * * * * * * * * * * * * * * * * * * * * * * * * * * * * * * * * //

dimensions      [0 2 -3 0 0 0 0];

internalField   nonuniform List<scalar> 
13078
(
-3.214617e-12
-1.342843e-09
-1.32101e-09
-1.328447e-09
-1.337699e-09
-1.348183e-09
-1.360254e-09
-3.420392e-13
-1.279806e-09
-1.319849e-09
-1.328197e-09
-1.337485e-09
-1.347971e-09
-1.360012e-09
-5.242559e-14
-1.278578e-09
-1.319574e-09
-1.327915e-09
-1.337248e-09
-1.347745e-09
-1.359763e-09
1.391693e-13
-1.278637e-09
-1.319488e-09
-1.327703e-09
-1.33703e-09
-1.34752e-09
-1.359514e-09
2.155968e-13
-1.278605e-09
-1.31945e-09
-1.327653e-09
-1.336841e-09
-1.347303e-09
-1.35927e-09
3.053937e-13
-1.278562e-09
-1.319432e-09
-1.327627e-09
-1.336803e-09
-1.347106e-09
-1.359028e-09
4.152295e-13
-1.278473e-09
-1.319396e-09
-1.32757e-09
-1.336777e-09
-1.347067e-09
-1.358806e-09
5.512395e-13
-1.278359e-09
-1.319351e-09
-1.327527e-09
-1.336756e-09
-1.347044e-09
-1.358763e-09
7.183366e-13
-1.278253e-09
-1.319336e-09
-1.327512e-09
-1.33674e-09
-1.34702e-09
-1.358732e-09
9.231143e-13
-1.278127e-09
-1.319322e-09
-1.327499e-09
-1.336723e-09
-1.346997e-09
-1.358702e-09
1.16906e-12
-1.277987e-09
-1.319306e-09
-1.327485e-09
-1.336704e-09
-1.346972e-09
-1.358669e-09
1.463886e-12
-1.277833e-09
-1.319286e-09
-1.327469e-09
-1.336685e-09
-1.346946e-09
-1.358636e-09
1.817881e-12
-1.277666e-09
-1.319265e-09
-1.327453e-09
-1.336665e-09
-1.346919e-09
-1.3586e-09
2.242759e-12
-1.277484e-09
-1.31924e-09
-1.327431e-09
-1.336639e-09
-1.34689e-09
-1.358561e-09
2.753237e-12
-1.277288e-09
-1.319211e-09
-1.327365e-09
-1.336543e-09
-1.346851e-09
-1.358521e-09
3.367822e-12
-1.277076e-09
-1.319178e-09
-1.327281e-09
-1.336462e-09
-1.346813e-09
-1.358477e-09
4.110944e-12
-1.276849e-09
-1.319145e-09
-1.327251e-09
-1.336428e-09
-1.346776e-09
-1.358431e-09
5.013286e-12
-1.276605e-09
-1.319109e-09
-1.327224e-09
-1.336394e-09
-1.346738e-09
-1.358382e-09
6.114288e-12
-1.276342e-09
-1.319068e-09
-1.327195e-09
-1.336357e-09
-1.34669e-09
-1.358329e-09
7.464112e-12
-1.276058e-09
-1.319023e-09
-1.32716e-09
-1.336246e-09
-1.346532e-09
-1.358263e-09
9.12684e-12
-1.275753e-09
-1.318974e-09
-1.327121e-09
-1.33611e-09
-1.346399e-09
-1.358195e-09
1.118429e-11
-1.275424e-09
-1.318921e-09
-1.327086e-09
-1.336056e-09
-1.346339e-09
-1.358131e-09
1.374047e-11
-1.275068e-09
-1.318861e-09
-1.327047e-09
-1.336007e-09
-1.346273e-09
-1.358052e-09
1.692642e-11
-1.274685e-09
-1.318796e-09
-1.327007e-09
-1.335948e-09
-1.346103e-09
-1.357809e-09
2.090651e-11
-1.274271e-09
-1.318726e-09
-1.326964e-09
-1.335884e-09
-1.345895e-09
-1.357602e-09
2.5885e-11
-1.273824e-09
-1.318647e-09
-1.326917e-09
-1.335822e-09
-1.345806e-09
-1.357499e-09
3.211248e-11
-1.273346e-09
-1.31856e-09
-1.326867e-09
-1.335757e-09
-1.345722e-09
-1.35739e-09
3.989587e-11
-1.272818e-09
-1.318465e-09
-1.326813e-09
-1.335687e-09
-1.345625e-09
-1.357127e-09
4.963779e-11
-1.272266e-09
-1.318361e-09
-1.326756e-09
-1.335612e-09
-1.345518e-09
-1.356809e-09
6.184505e-11
-1.271395e-09
-1.318241e-09
-1.326692e-09
-1.335531e-09
-1.345414e-09
-1.356661e-09
7.789898e-11
-1.270088e-09
-1.318113e-09
-1.326622e-09
-1.335443e-09
-1.345302e-09
-1.356506e-09
9.666466e-11
-1.268618e-09
-1.317987e-09
-1.326533e-09
-1.335346e-09
-1.345178e-09
-1.356332e-09
1.194261e-10
-1.26677e-09
-1.317676e-09
-1.326358e-09
-1.33523e-09
-1.345043e-09
-1.35616e-09
1.464834e-10
-1.265941e-09
-1.317415e-09
-1.32619e-09
-1.335093e-09
-1.344891e-09
-1.355971e-09
1.781731e-10
-1.265032e-09
-1.317235e-09
-1.326e-09
-1.334824e-09
-1.344694e-09
-1.355763e-09
2.144877e-10
-1.264081e-09
-1.317049e-09
-1.325738e-09
-1.334466e-09
-1.344307e-09
-1.355514e-09
2.550138e-10
-1.263099e-09
-1.316872e-09
-1.325567e-09
-1.334099e-09
-1.343939e-09
-1.355211e-09
2.987347e-10
-1.262106e-09
-1.316694e-09
-1.325395e-09
-1.333861e-09
-1.343525e-09
-1.354625e-09
3.440899e-10
-1.261109e-09
-1.316514e-09
-1.325179e-09
-1.333552e-09
-1.3429e-09
-1.353959e-09
3.907288e-10
-1.259643e-09
-1.316295e-09
-1.324819e-09
-1.333034e-09
-1.342187e-09
-1.35293e-09
4.388265e-10
-1.256387e-09
-1.315971e-09
-1.324056e-09
-1.332019e-09
-1.340908e-09
-1.350549e-09
4.744884e-10
-1.253149e-09
-1.314757e-09
-1.322543e-09
-1.33035e-09
-1.337877e-09
-1.343335e-09
4.981786e-10
-1.25074e-09
-1.313091e-09
-1.320523e-09
-1.326912e-09
-1.329957e-09
-1.331792e-09
5.065121e-10
-1.246854e-09
-1.311279e-09
-1.317543e-09
-1.319631e-09
-1.318499e-09
-1.319972e-09
4.998613e-10
-1.241043e-09
-1.309298e-09
-1.310721e-09
-1.308612e-09
-1.307876e-09
-1.30819e-09
4.83796e-10
-1.232916e-09
-1.305057e-09
-1.299866e-09
-1.296785e-09
-1.295486e-09
-1.296068e-09
4.517445e-10
-1.222996e-09
-1.296283e-09
-1.289754e-09
-1.283821e-09
-1.281722e-09
-1.281875e-09
4.122539e-10
-1.212005e-09
-1.285847e-09
-1.279073e-09
-1.272197e-09
-1.270188e-09
-1.266196e-09
3.697498e-10
-1.199448e-09
-1.276154e-09
-1.267538e-09
-1.261552e-09
-1.258453e-09
-1.254944e-09
3.230798e-10
-1.188138e-09
-1.267689e-09
-1.257728e-09
-1.250965e-09
-1.246297e-09
-1.245254e-09
2.682145e-10
-1.176081e-09
-1.262274e-09
-1.249697e-09
-1.242248e-09
-1.236413e-09
-1.233112e-09
2.098762e-10
-1.160403e-09
-1.255174e-09
-1.242244e-09
-1.23485e-09
-1.228982e-09
-1.222464e-09
1.422469e-10
-1.150261e-09
-1.248313e-09
-1.23666e-09
-1.229437e-09
-1.223807e-09
-1.21569e-09
7.231893e-11
-1.144774e-09
-1.244178e-09
-1.231747e-09
-1.224601e-09
-1.218573e-09
-1.213453e-09
1.18308e-11
-1.141566e-09
-1.241472e-09
-1.228611e-09
-1.221637e-09
-1.215589e-09
-1.211508e-09
-2.314224e-11
-1.138842e-09
-1.239909e-09
-1.226902e-09
-1.220101e-09
-1.214291e-09
-1.210917e-09
-1.634639e-11
-1.138722e-09
-1.239941e-09
-1.226933e-09
-1.220146e-09
-1.214353e-09
-1.211015e-09
2.48267e-11
-1.141166e-09
-1.241512e-09
-1.228659e-09
-1.221733e-09
-1.215727e-09
-1.211698e-09
9.174709e-11
-1.144084e-09
-1.244215e-09
-1.231814e-09
-1.224761e-09
-1.21881e-09
-1.213771e-09
1.683032e-10
-1.149216e-09
-1.248367e-09
-1.236788e-09
-1.229691e-09
-1.224166e-09
-1.216077e-09
2.417043e-10
-1.158977e-09
-1.255204e-09
-1.242383e-09
-1.235151e-09
-1.229409e-09
-1.222897e-09
3.028269e-10
-1.174487e-09
-1.262231e-09
-1.249772e-09
-1.242507e-09
-1.236856e-09
-1.233622e-09
3.572189e-10
-1.186226e-09
-1.267599e-09
-1.257805e-09
-1.251218e-09
-1.246774e-09
-1.245838e-09
3.998777e-10
-1.197295e-09
-1.276008e-09
-1.267581e-09
-1.261776e-09
-1.258907e-09
-1.255571e-09
4.355507e-10
-1.209714e-09
-1.285646e-09
-1.279069e-09
-1.272331e-09
-1.270544e-09
-1.266801e-09
4.661929e-10
-1.220774e-09
-1.296047e-09
-1.289694e-09
-1.283908e-09
-1.282103e-09
-1.282673e-09
4.887504e-10
-1.230918e-09
-1.3048e-09
-1.299783e-09
-1.296859e-09
-1.295759e-09
-1.295747e-09
4.96058e-10
-1.239337e-09
-1.309035e-09
-1.310595e-09
-1.308596e-09
-1.307735e-09
-1.307747e-09
4.960016e-10
-1.245535e-09
-1.311038e-09
-1.317338e-09
-1.31941e-09
-1.318309e-09
-1.320934e-09
4.841934e-10
-1.249809e-09
-1.312904e-09
-1.320294e-09
-1.326592e-09
-1.329957e-09
-1.332191e-09
4.588891e-10
-1.252589e-09
-1.314622e-09
-1.322339e-09
-1.330052e-09
-1.337763e-09
-1.343161e-09
4.231449e-10
-1.255668e-09
-1.315819e-09
-1.323904e-09
-1.331854e-09
-1.340772e-09
-1.350486e-09
3.778517e-10
-1.258547e-09
-1.316226e-09
-1.324756e-09
-1.332978e-09
-1.342164e-09
-1.352921e-09
3.332324e-10
-1.260175e-09
-1.316468e-09
-1.325149e-09
-1.333557e-09
-1.342912e-09
-1.353982e-09
2.896093e-10
-1.261353e-09
-1.316687e-09
-1.325382e-09
-1.33388e-09
-1.343554e-09
-1.354656e-09
2.474863e-10
-1.262804e-09
-1.316913e-09
-1.325583e-09
-1.334205e-09
-1.344025e-09
-1.355248e-09
2.084011e-10
-1.264059e-09
-1.317076e-09
-1.325752e-09
-1.334532e-09
-1.344422e-09
-1.355547e-09
1.728114e-10
-1.265248e-09
-1.317259e-09
-1.326011e-09
-1.334842e-09
-1.34472e-09
-1.355782e-09
1.422663e-10
-1.266221e-09
-1.317436e-09
-1.326199e-09
-1.335105e-09
-1.344904e-09
-1.355987e-09
1.162222e-10
-1.267046e-09
-1.317693e-09
-1.326365e-09
-1.335239e-09
-1.345053e-09
-1.356172e-09
9.423668e-11
-1.268879e-09
-1.318001e-09
-1.326539e-09
-1.335353e-09
-1.345187e-09
-1.356342e-09
7.603897e-11
-1.270331e-09
-1.318124e-09
-1.326627e-09
-1.335448e-09
-1.345309e-09
-1.356514e-09
6.038753e-11
-1.271603e-09
-1.31825e-09
-1.326696e-09
-1.335535e-09
-1.345421e-09
-1.356668e-09
4.847531e-11
-1.272469e-09
-1.318369e-09
-1.326759e-09
-1.335616e-09
-1.345523e-09
-1.356814e-09
3.894951e-11
-1.273002e-09
-1.318471e-09
-1.326816e-09
-1.33569e-09
-1.345629e-09
-1.357131e-09
3.133131e-11
-1.273513e-09
-1.318565e-09
-1.326869e-09
-1.335759e-09
-1.345725e-09
-1.357395e-09
2.523168e-11
-1.273974e-09
-1.31865e-09
-1.326919e-09
-1.335824e-09
-1.345809e-09
-1.357503e-09
2.035379e-11
-1.274405e-09
-1.318729e-09
-1.326966e-09
-1.335885e-09
-1.345899e-09
-1.357606e-09
1.645399e-11
-1.274805e-09
-1.318799e-09
-1.327008e-09
-1.33595e-09
-1.346106e-09
-1.357812e-09
1.333315e-11
-1.275175e-09
-1.318864e-09
-1.327049e-09
-1.336009e-09
-1.346275e-09
-1.358055e-09
1.083053e-11
-1.275519e-09
-1.318924e-09
-1.327088e-09
-1.336058e-09
-1.346341e-09
-1.358133e-09
8.817675e-12
-1.275837e-09
-1.318976e-09
-1.327123e-09
-1.336112e-09
-1.346401e-09
-1.358198e-09
7.192357e-12
-1.276132e-09
-1.319024e-09
-1.327161e-09
-1.336247e-09
-1.346534e-09
-1.358266e-09
5.874067e-12
-1.276408e-09
-1.319069e-09
-1.327196e-09
-1.336357e-09
-1.346692e-09
-1.358332e-09
4.799671e-12
-1.276664e-09
-1.31911e-09
-1.327224e-09
-1.336396e-09
-1.34674e-09
-1.358384e-09
3.919719e-12
-1.276902e-09
-1.319145e-09
-1.327252e-09
-1.336429e-09
-1.346778e-09
-1.358433e-09
3.195299e-12
-1.277122e-09
-1.319179e-09
-1.327281e-09
-1.336463e-09
-1.346815e-09
-1.358479e-09
2.5962e-12
-1.27733e-09
-1.319212e-09
-1.327365e-09
-1.336544e-09
-1.346853e-09
-1.358524e-09
2.098364e-12
-1.277522e-09
-1.319241e-09
-1.327433e-09
-1.33664e-09
-1.346891e-09
-1.358564e-09
1.683443e-12
-1.2777e-09
-1.319266e-09
-1.327454e-09
-1.336667e-09
-1.346922e-09
-1.358603e-09
1.336857e-12
-1.277864e-09
-1.319288e-09
-1.327472e-09
-1.336688e-09
-1.346949e-09
-1.358639e-09
1.047195e-12
-1.278017e-09
-1.319308e-09
-1.327487e-09
-1.336707e-09
-1.346975e-09
-1.358672e-09
8.056079e-13
-1.278157e-09
-1.319325e-09
-1.327501e-09
-1.336725e-09
-1.346999e-09
-1.358705e-09
6.051589e-13
-1.278286e-09
-1.31934e-09
-1.327515e-09
-1.336742e-09
-1.347021e-09
-1.358734e-09
4.386924e-13
-1.278397e-09
-1.319355e-09
-1.327529e-09
-1.336757e-09
-1.347044e-09
-1.358764e-09
3.020288e-13
-1.278519e-09
-1.319399e-09
-1.32757e-09
-1.336775e-09
-1.347066e-09
-1.358806e-09
1.909881e-13
-1.27862e-09
-1.319432e-09
-1.327623e-09
-1.336797e-09
-1.347101e-09
-1.359026e-09
9.929195e-14
-1.278674e-09
-1.319442e-09
-1.327639e-09
-1.336827e-09
-1.347293e-09
-1.359265e-09
1.656676e-14
-1.278711e-09
-1.319458e-09
-1.32767e-09
-1.337003e-09
-1.347504e-09
-1.359506e-09
-8.468598e-14
-1.278683e-09
-1.319497e-09
-1.327848e-09
-1.337205e-09
-1.34772e-09
-1.359751e-09
-3.52516e-13
-1.278911e-09
-1.319711e-09
-1.328071e-09
-1.337425e-09
-1.347944e-09
-1.36e-09
-6.115048e-13
-1.282292e-09
-1.320019e-09
-1.328386e-09
-1.337679e-09
-1.348179e-09
-1.360254e-09
-1.374526e-09
-1.392618e-09
-1.417054e-09
-1.440647e-09
-1.483253e-09
-1.552022e-09
-1.960205e-09
-1.374234e-09
-1.392232e-09
-1.416539e-09
-1.44001e-09
-1.482468e-09
-1.55082e-09
-1.399783e-09
-1.373941e-09
-1.391853e-09
-1.416036e-09
-1.44825e-09
-1.481723e-09
-1.549695e-09
-1.393347e-09
-1.37365e-09
-1.391474e-09
-1.415524e-09
-1.438762e-09
-1.480915e-09
-1.548574e-09
-1.388232e-09
-1.373367e-09
-1.391098e-09
-1.415023e-09
-1.438116e-09
-1.480139e-09
-1.547455e-09
-1.383497e-09
-1.373086e-09
-1.390721e-09
-1.41452e-09
-1.437492e-09
-1.479369e-09
-1.546338e-09
-1.378135e-09
-1.372806e-09
-1.390346e-09
-1.414017e-09
-1.436885e-09
-1.479154e-09
-1.545228e-09
-1.372092e-09
-1.372546e-09
-1.389971e-09
-1.413515e-09
-1.436286e-09
-1.478947e-09
-1.544128e-09
-1.365259e-09
-1.37249e-09
-1.38962e-09
-1.413036e-09
-1.435671e-09
-1.478328e-09
-1.543128e-09
-1.357529e-09
-1.372448e-09
-1.389536e-09
-1.412583e-09
-1.435054e-09
-1.47771e-09
-1.542127e-09
-1.348763e-09
-1.372405e-09
-1.389472e-09
-1.412464e-09
-1.434454e-09
-1.477089e-09
-1.541125e-09
-1.338874e-09
-1.372359e-09
-1.389403e-09
-1.412369e-09
-1.434316e-09
-1.476462e-09
-1.540118e-09
-1.327866e-09
-1.372311e-09
-1.389331e-09
-1.412268e-09
-1.434189e-09
-1.476335e-09
-1.53909e-09
-1.3155e-09
-1.372258e-09
-1.389254e-09
-1.412162e-09
-1.434054e-09
-1.476191e-09
-1.538831e-09
-1.304149e-09
-1.372203e-09
-1.389173e-09
-1.412048e-09
-1.433909e-09
-1.476036e-09
-1.53855e-09
-1.319889e-09
-1.372144e-09
-1.389086e-09
-1.411927e-09
-1.433756e-09
-1.475867e-09
-1.538246e-09
-1.318244e-09
-1.372082e-09
-1.388993e-09
-1.4118e-09
-1.433594e-09
-1.475644e-09
-1.537918e-09
-1.32652e-09
-1.372016e-09
-1.388897e-09
-1.411663e-09
-1.433361e-09
-1.473745e-09
-1.537562e-09
-1.33743e-09
-1.371946e-09
-1.388799e-09
-1.411521e-09
-1.433176e-09
-1.473452e-09
-1.537189e-09
-1.460479e-09
-1.37187e-09
-1.388695e-09
-1.411369e-09
-1.43298e-09
-1.473192e-09
-1.536807e-09
-1.606402e-09
-1.371791e-09
-1.388583e-09
-1.411207e-09
-1.432774e-09
-1.472917e-09
-1.53641e-09
-1.682574e-09
-1.371705e-09
-1.388463e-09
-1.411034e-09
-1.432554e-09
-1.472624e-09
-1.535983e-09
-1.689388e-09
-1.371613e-09
-1.388334e-09
-1.410847e-09
-1.432321e-09
-1.472281e-09
-1.53553e-09
-1.680611e-09
-1.371499e-09
-1.388196e-09
-1.410643e-09
-1.440187e-09
-1.47049e-09
-1.534881e-09
-1.679463e-09
-1.37138e-09
-1.388048e-09
-1.410432e-09
-1.431839e-09
-1.469453e-09
-1.534293e-09
-1.687124e-09
-1.371267e-09
-1.38789e-09
-1.410204e-09
-1.431498e-09
-1.469005e-09
-1.533707e-09
-1.694827e-09
-1.371128e-09
-1.387716e-09
-1.409957e-09
-1.431186e-09
-1.468526e-09
-1.533014e-09
-1.707616e-09
-1.370746e-09
-1.38752e-09
-1.409685e-09
-1.430842e-09
-1.467918e-09
-1.52907e-09
-1.723148e-09
-1.370452e-09
-1.382867e-09
-1.403377e-09
-1.430436e-09
-1.467322e-09
-1.527349e-09
-1.738176e-09
-1.37028e-09
-1.382681e-09
-1.403109e-09
-1.430044e-09
-1.466739e-09
-1.526464e-09
-1.754362e-09
-1.369747e-09
-1.382045e-09
-1.40282e-09
-1.42962e-09
-1.466112e-09
-1.523578e-09
5.975819e-09
-1.369341e-09
-1.381515e-09
-1.402504e-09
-1.42916e-09
-1.465429e-09
-1.520153e-09
5.617196e-09
-1.369087e-09
-1.380611e-09
-1.402103e-09
-1.428654e-09
-1.464681e-09
-1.518881e-09
4.043745e-09
-1.368841e-09
-1.380261e-09
-1.40106e-09
-1.428099e-09
-1.463856e-09
-1.51719e-09
2.846957e-09
-1.368575e-09
-1.379905e-09
-1.399891e-09
-1.427457e-09
-1.462932e-09
-1.515619e-09
-1.73554e-09
-1.368282e-09
-1.379545e-09
-1.398506e-09
-1.426627e-09
-1.461876e-09
-1.514048e-09
-1.548223e-09
-1.367959e-09
-1.379156e-09
-1.397836e-09
-1.424316e-09
-1.460601e-09
-1.511812e-09
-1.792499e-09
-1.367548e-09
-1.378719e-09
-1.397198e-09
-1.422545e-09
-1.458299e-09
-1.509765e-09
-1.61995e-09
-1.36698e-09
-1.378161e-09
-1.396442e-09
-1.420119e-09
-1.451825e-09
-1.501115e-09
-1.373473e-09
-1.365658e-09
-1.3772e-09
-1.393221e-09
-1.41166e-09
-1.439035e-09
-1.486097e-09
-1.192025e-09
-1.361117e-09
-1.369697e-09
-1.38183e-09
-1.399303e-09
-1.42575e-09
-1.466253e-09
-1.414243e-09
-1.350145e-09
-1.356963e-09
-1.368578e-09
-1.385797e-09
-1.412434e-09
-1.446626e-09
-1.203638e-09
-1.337795e-09
-1.345278e-09
-1.35507e-09
-1.371032e-09
-1.399198e-09
-1.432342e-09
-7.214596e-10
-1.327816e-09
-1.333391e-09
-1.343285e-09
-1.359238e-09
-1.385953e-09
-1.423516e-09
-1.400277e-09
-1.312708e-09
-1.32056e-09
-1.327685e-09
-1.349397e-09
-1.369861e-09
-1.410758e-09
-1.273779e-09
-1.298476e-09
-1.307065e-09
-1.314561e-09
-1.330345e-09
-1.360163e-09
-1.390276e-09
-1.326846e-09
-1.283446e-09
-1.292561e-09
-1.29778e-09
-1.320013e-09
-1.33974e-09
-1.379186e-09
-7.47113e-10
-1.272231e-09
-1.280436e-09
-1.288323e-09
-1.303815e-09
-1.330956e-09
-1.360876e-09
-1.327235e-09
-1.256358e-09
-1.271308e-09
-1.27459e-09
-1.286879e-09
-1.318685e-09
-1.354203e-09
-1.401443e-09
-1.245787e-09
-1.254971e-09
-1.257383e-09
-1.277222e-09
-1.302545e-09
-1.343544e-09
-1.378968e-09
-1.23233e-09
-1.243709e-09
-1.239599e-09
-1.263336e-09
-1.302808e-09
-1.341135e-09
-1.36342e-09
-1.219732e-09
-1.22495e-09
-1.225072e-09
-1.249196e-09
-1.287146e-09
-1.328684e-09
-1.365081e-09
-1.212361e-09
-1.212945e-09
-1.217346e-09
-1.24089e-09
-1.275455e-09
-1.311807e-09
-1.334222e-09
-1.208776e-09
-1.209707e-09
-1.212945e-09
-1.239041e-09
-1.268305e-09
-1.308333e-09
-1.35988e-09
-1.209107e-09
-1.209884e-09
-1.215384e-09
-1.239222e-09
-1.269959e-09
-1.303017e-09
-1.292055e-09
-1.21027e-09
-1.212005e-09
-1.220115e-09
-1.242484e-09
-1.267481e-09
-1.293151e-09
-1.210423e-09
-1.211995e-09
-1.221714e-09
-1.24349e-09
-1.267239e-09
-1.290878e-09
-1.209453e-09
-1.208561e-09
-1.217832e-09
-1.241081e-09
-1.268445e-09
-1.296247e-09
-1.209242e-09
-1.204329e-09
-1.215065e-09
-1.237914e-09
-1.267728e-09
-1.303078e-09
-1.327705e-09
-1.212777e-09
-1.201606e-09
-1.21231e-09
-1.238371e-09
-1.266796e-09
-1.309114e-09
-1.360226e-09
-1.220107e-09
-1.205994e-09
-1.221011e-09
-1.247545e-09
-1.279178e-09
-1.316496e-09
-1.368962e-09
-1.232773e-09
-1.222096e-09
-1.234628e-09
-1.254162e-09
-1.293569e-09
-1.337743e-09
-1.370305e-09
-1.246351e-09
-1.239118e-09
-1.251303e-09
-1.269533e-09
-1.300108e-09
-1.341522e-09
-1.357996e-09
-1.257208e-09
-1.255926e-09
-1.267068e-09
-1.281753e-09
-1.313663e-09
-1.343895e-09
-1.382615e-09
-1.272743e-09
-1.271708e-09
-1.278693e-09
-1.297691e-09
-1.320463e-09
-1.358813e-09
-1.274906e-09
-1.284401e-09
-1.284041e-09
-1.294869e-09
-1.305295e-09
-1.33507e-09
-1.364451e-09
-1.092582e-09
-1.298632e-09
-1.300447e-09
-1.308271e-09
-1.325182e-09
-1.345349e-09
-1.38393e-09
-1.181601e-09
-1.314176e-09
-1.31565e-09
-1.325112e-09
-1.340589e-09
-1.364057e-09
-1.3956e-09
-1.211863e-09
-1.325632e-09
-1.330273e-09
-1.342659e-09
-1.356591e-09
-1.38079e-09
-1.415609e-09
-7.323012e-10
-1.337507e-09
-1.341679e-09
-1.3514e-09
-1.37071e-09
-1.392877e-09
-1.427429e-09
-1.340886e-09
-1.349091e-09
-1.352545e-09
-1.36403e-09
-1.381942e-09
-1.408157e-09
-1.442254e-09
-7.946788e-10
-1.360497e-09
-1.364599e-09
-1.37699e-09
-1.391814e-09
-1.420843e-09
-1.456118e-09
-1.240436e-09
-1.365646e-09
-1.375379e-09
-1.388571e-09
-1.406122e-09
-1.433282e-09
-1.478813e-09
-1.363133e-09
-1.367014e-09
-1.377834e-09
-1.395939e-09
-1.417218e-09
-1.445197e-09
-1.492465e-09
-1.311559e-09
-1.367591e-09
-1.378477e-09
-1.396912e-09
-1.42118e-09
-1.456913e-09
-1.506467e-09
-1.299314e-09
-1.367996e-09
-1.378951e-09
-1.39759e-09
-1.423705e-09
-1.45953e-09
-1.510689e-09
-1.625604e-09
-1.368312e-09
-1.379358e-09
-1.39822e-09
-1.425375e-09
-1.461261e-09
-1.512772e-09
-1.693023e-09
-1.368597e-09
-1.37973e-09
-1.399108e-09
-1.427093e-09
-1.462425e-09
-1.514728e-09
-1.648107e-09
-1.368859e-09
-1.380073e-09
-1.400431e-09
-1.427817e-09
-1.463419e-09
-1.516446e-09
-1.80053e-09
-1.369101e-09
-1.380424e-09
-1.401882e-09
-1.428398e-09
-1.464293e-09
-1.518349e-09
4.841043e-09
-1.369351e-09
-1.381103e-09
-1.402316e-09
-1.428926e-09
-1.465078e-09
-1.519529e-09
5.998314e-09
-1.369756e-09
-1.381666e-09
-1.402676e-09
-1.429407e-09
-1.465792e-09
-1.520952e-09
6.032307e-09
-1.370289e-09
-1.382552e-09
-1.402977e-09
-1.429847e-09
-1.466448e-09
-1.525934e-09
-1.644267e-09
-1.370459e-09
-1.382769e-09
-1.403256e-09
-1.430254e-09
-1.46705e-09
-1.52694e-09
-1.743531e-09
-1.370752e-09
-1.387527e-09
-1.409694e-09
-1.430668e-09
-1.467627e-09
-1.527835e-09
-1.730603e-09
-1.371133e-09
-1.387724e-09
-1.409965e-09
-1.431023e-09
-1.468257e-09
-1.531484e-09
-1.716894e-09
-1.371272e-09
-1.387897e-09
-1.410214e-09
-1.431349e-09
-1.468787e-09
-1.533419e-09
-1.704182e-09
-1.371385e-09
-1.388055e-09
-1.410443e-09
-1.43165e-09
-1.469249e-09
-1.534028e-09
-1.697825e-09
-1.371504e-09
-1.388203e-09
-1.410657e-09
-1.431932e-09
-1.469715e-09
-1.534594e-09
-1.690707e-09
-1.371617e-09
-1.388339e-09
-1.410855e-09
-1.432194e-09
-1.471637e-09
-1.535249e-09
-1.685459e-09
-1.371707e-09
-1.388467e-09
-1.41104e-09
-1.432439e-09
-1.472481e-09
-1.535789e-09
-1.68327e-09
-1.371793e-09
-1.388587e-09
-1.411213e-09
-1.432667e-09
-1.472786e-09
-1.536232e-09
-1.670114e-09
-1.371873e-09
-1.388699e-09
-1.411374e-09
-1.432882e-09
-1.473072e-09
-1.536642e-09
-1.657042e-09
-1.371949e-09
-1.388804e-09
-1.411527e-09
-1.433082e-09
-1.473338e-09
-1.537028e-09
-1.606783e-09
-1.37202e-09
-1.388902e-09
-1.411669e-09
-1.433269e-09
-1.473587e-09
-1.537393e-09
-1.511145e-09
-1.372086e-09
-1.388998e-09
-1.411806e-09
-1.433485e-09
-1.474588e-09
-1.537753e-09
-1.38702e-09
-1.372147e-09
-1.38909e-09
-1.411934e-09
-1.433679e-09
-1.475792e-09
-1.538107e-09
-1.322693e-09
-1.372207e-09
-1.389177e-09
-1.412055e-09
-1.433838e-09
-1.475965e-09
-1.538425e-09
-1.321293e-09
-1.372262e-09
-1.38926e-09
-1.412169e-09
-1.433987e-09
-1.476128e-09
-1.538716e-09
-1.307552e-09
-1.372314e-09
-1.389336e-09
-1.412276e-09
-1.434127e-09
-1.476278e-09
-1.538993e-09
-1.309284e-09
-1.372363e-09
-1.389408e-09
-1.412377e-09
-1.43426e-09
-1.476419e-09
-1.539637e-09
-1.322569e-09
-1.372409e-09
-1.389477e-09
-1.412472e-09
-1.434384e-09
-1.476794e-09
-1.540645e-09
-1.334358e-09
-1.372452e-09
-1.389541e-09
-1.412591e-09
-1.434755e-09
-1.477413e-09
-1.541651e-09
-1.344932e-09
-1.372494e-09
-1.389625e-09
-1.413043e-09
-1.435372e-09
-1.478034e-09
-1.542651e-09
-1.354271e-09
-1.372549e-09
-1.389975e-09
-1.413522e-09
-1.43599e-09
-1.478651e-09
-1.543652e-09
-1.36256e-09
-1.372808e-09
-1.39035e-09
-1.414023e-09
-1.436607e-09
-1.479243e-09
-1.544699e-09
-1.369869e-09
-1.373086e-09
-1.390724e-09
-1.414525e-09
-1.437194e-09
-1.47902e-09
-1.545805e-09
-1.376283e-09
-1.373366e-09
-1.391099e-09
-1.415027e-09
-1.437816e-09
-1.479767e-09
-1.546916e-09
-1.381893e-09
-1.373646e-09
-1.391475e-09
-1.415532e-09
-1.43844e-09
-1.480537e-09
-1.54803e-09
-1.38687e-09
-1.373936e-09
-1.391854e-09
-1.416037e-09
-1.439066e-09
-1.481309e-09
-1.549147e-09
-1.391515e-09
-1.37423e-09
-1.392232e-09
-1.416544e-09
-1.439692e-09
-1.482085e-09
-1.550265e-09
-1.396762e-09
-1.374526e-09
-1.392619e-09
-1.417054e-09
-1.440321e-09
-1.482861e-09
-1.551389e-09
-1.424085e-09
-3.458763e-07
-2.672051e-07
-2.667721e-07
-2.667719e-07
-2.667719e-07
-2.667719e-07
-2.667719e-07
-2.667719e-07
-2.667719e-07
-2.667719e-07
-2.667719e-07
-2.66772e-07
-2.66772e-07
-2.66772e-07
-2.66772e-07
-2.66772e-07
-2.66772e-07
-2.66772e-07
-3.084029e-07
-2.669987e-07
-2.667702e-07
-2.667702e-07
-2.667702e-07
-2.667702e-07
-2.667702e-07
-2.667702e-07
-2.667702e-07
-2.667702e-07
-2.667702e-07
-2.667702e-07
-2.667702e-07
-2.667702e-07
-2.667702e-07
-2.667702e-07
-2.667702e-07
-2.667702e-07
-3.101705e-07
-2.670326e-07
-2.667702e-07
-2.667701e-07
-2.667701e-07
-2.667701e-07
-2.667701e-07
-2.667701e-07
-2.667701e-07
-2.667701e-07
-2.667701e-07
-2.667701e-07
-2.667701e-07
-2.667701e-07
-2.667701e-07
-2.667701e-07
-2.667701e-07
-2.667701e-07
-3.119225e-07
-2.670443e-07
-2.667702e-07
-2.667701e-07
-2.667701e-07
-2.667701e-07
-2.667701e-07
-2.667701e-07
-2.667701e-07
-2.667701e-07
-2.667701e-07
-2.667701e-07
-2.667701e-07
-2.667701e-07
-2.667701e-07
-2.667701e-07
-2.667701e-07
-2.667701e-07
-3.141387e-07
-2.670579e-07
-2.667702e-07
-2.667701e-07
-2.667701e-07
-2.667701e-07
-2.667701e-07
-2.667701e-07
-2.667701e-07
-2.667701e-07
-2.667701e-07
-2.667701e-07
-2.667701e-07
-2.667701e-07
-2.667701e-07
-2.667701e-07
-2.667701e-07
-2.667701e-07
-3.168323e-07
-2.670726e-07
-2.667702e-07
-2.667701e-07
-2.667701e-07
-2.667701e-07
-2.667701e-07
-2.667701e-07
-2.667701e-07
-2.667701e-07
-2.667701e-07
-2.667701e-07
-2.667701e-07
-2.667701e-07
-2.667701e-07
-2.667701e-07
-2.667701e-07
-2.667701e-07
-3.199268e-07
-2.670873e-07
-2.667702e-07
-2.667701e-07
-2.667701e-07
-2.667701e-07
-2.667701e-07
-2.667701e-07
-2.667701e-07
-2.667701e-07
-2.667701e-07
-2.667701e-07
-2.667701e-07
-2.667701e-07
-2.667701e-07
-2.667701e-07
-2.667701e-07
-2.667701e-07
-3.23349e-07
-2.671016e-07
-2.667702e-07
-2.667701e-07
-2.667701e-07
-2.667701e-07
-2.667701e-07
-2.667701e-07
-2.667701e-07
-2.667701e-07
-2.667701e-07
-2.667701e-07
-2.667701e-07
-2.667701e-07
-2.667701e-07
-2.667701e-07
-2.667701e-07
-2.667701e-07
-3.270325e-07
-2.671156e-07
-2.667702e-07
-2.667701e-07
-2.667701e-07
-2.667701e-07
-2.667701e-07
-2.667701e-07
-2.667701e-07
-2.667701e-07
-2.667701e-07
-2.667701e-07
-2.667701e-07
-2.667701e-07
-2.667701e-07
-2.667701e-07
-2.667701e-07
-2.667701e-07
-3.309037e-07
-2.671286e-07
-2.667702e-07
-2.667701e-07
-2.667701e-07
-2.667701e-07
-2.667701e-07
-2.667701e-07
-2.667701e-07
-2.667701e-07
-2.667701e-07
-2.667701e-07
-2.667701e-07
-2.667701e-07
-2.667701e-07
-2.667701e-07
-2.667701e-07
-2.667701e-07
-3.348937e-07
-2.6714e-07
-2.667702e-07
-2.667701e-07
-2.667701e-07
-2.667701e-07
-2.667701e-07
-2.667701e-07
-2.667701e-07
-2.667701e-07
-2.667701e-07
-2.667701e-07
-2.667701e-07
-2.667701e-07
-2.667701e-07
-2.667701e-07
-2.667701e-07
-2.667701e-07
-3.389957e-07
-2.671513e-07
-2.667702e-07
-2.667701e-07
-2.667701e-07
-2.667701e-07
-2.667701e-07
-2.667701e-07
-2.667701e-07
-2.667701e-07
-2.667701e-07
-2.667701e-07
-2.667701e-07
-2.667701e-07
-2.667701e-07
-2.667701e-07
-2.667701e-07
-2.667701e-07
-3.431464e-07
-2.671662e-07
-2.667702e-07
-2.667701e-07
-2.667701e-07
-2.667701e-07
-2.667701e-07
-2.667701e-07
-2.667701e-07
-2.667701e-07
-2.667701e-07
-2.667701e-07
-2.667701e-07
-2.667701e-07
-2.667701e-07
-2.667701e-07
-2.667701e-07
-2.667701e-07
-3.487177e-07
-2.671986e-07
-2.667703e-07
-2.667701e-07
-2.667701e-07
-2.667701e-07
-2.667701e-07
-2.667701e-07
-2.667701e-07
-2.667701e-07
-2.667701e-07
-2.667701e-07
-2.667701e-07
-2.667701e-07
-2.667701e-07
-2.667701e-07
-2.667701e-07
-2.667701e-07
-3.36961e-07
-2.673456e-07
-2.667704e-07
-2.667701e-07
-2.667701e-07
-2.667701e-07
-2.667701e-07
-2.667701e-07
-2.667701e-07
-2.667701e-07
-2.667701e-07
-2.667701e-07
-2.667701e-07
-2.667701e-07
-2.667701e-07
-2.667701e-07
-2.667701e-07
-2.667701e-07
-3.340489e-07
-2.675755e-07
-2.667693e-07
-2.667701e-07
-2.667701e-07
-2.667701e-07
-2.667701e-07
-2.667701e-07
-2.667701e-07
-2.667701e-07
-2.667701e-07
-2.667701e-07
-2.667701e-07
-2.667701e-07
-2.667701e-07
-2.667701e-07
-2.667701e-07
-2.667701e-07
-3.287487e-07
-2.676379e-07
-2.667728e-07
-2.667695e-07
-2.667701e-07
-2.667701e-07
-2.667701e-07
-2.667701e-07
-2.667701e-07
-2.667701e-07
-2.667701e-07
-2.667701e-07
-2.667701e-07
-2.667701e-07
-2.667701e-07
-2.667701e-07
-2.667701e-07
-2.667701e-07
-3.267863e-07
-2.678245e-07
-2.667716e-07
-2.667712e-07
-2.667698e-07
-2.667701e-07
-2.667701e-07
-2.667701e-07
-2.667701e-07
-2.667701e-07
-2.667701e-07
-2.667701e-07
-2.667701e-07
-2.667701e-07
-2.667701e-07
-2.667701e-07
-2.667701e-07
-2.667701e-07
-3.492026e-07
-2.676328e-07
-2.667706e-07
-2.667706e-07
-2.667708e-07
-2.6677e-07
-2.667701e-07
-2.667701e-07
-2.667701e-07
-2.667701e-07
-2.667701e-07
-2.667701e-07
-2.667701e-07
-2.667701e-07
-2.667701e-07
-2.667701e-07
-2.667701e-07
-2.667701e-07
-3.135406e-07
-2.674245e-07
-2.667706e-07
-2.667701e-07
-2.667702e-07
-2.667702e-07
-2.667701e-07
-2.667701e-07
-2.667701e-07
-2.667701e-07
-2.667701e-07
-2.667701e-07
-2.667701e-07
-2.667701e-07
-2.667701e-07
-2.667701e-07
-2.667701e-07
-2.667701e-07
-2.886332e-07
-2.674181e-07
-2.667706e-07
-2.667701e-07
-2.667701e-07
-2.667701e-07
-2.667701e-07
-2.667701e-07
-2.667701e-07
-2.667701e-07
-2.667701e-07
-2.667701e-07
-2.667701e-07
-2.667701e-07
-2.667701e-07
-2.667701e-07
-2.667701e-07
-2.667701e-07
-2.751539e-07
-2.675576e-07
-2.667707e-07
-2.667701e-07
-2.667701e-07
-2.667701e-07
-2.667701e-07
-2.667701e-07
-2.667701e-07
-2.667701e-07
-2.667701e-07
-2.667701e-07
-2.667701e-07
-2.667701e-07
-2.667701e-07
-2.667701e-07
-2.667701e-07
-2.667701e-07
-2.642142e-07
-2.676785e-07
-2.667707e-07
-2.667701e-07
-2.667701e-07
-2.667701e-07
-2.667701e-07
-2.667701e-07
-2.667701e-07
-2.667701e-07
-2.667701e-07
-2.667701e-07
-2.667701e-07
-2.667701e-07
-2.667701e-07
-2.667701e-07
-2.667701e-07
-2.667701e-07
-2.539039e-07
-2.67791e-07
-2.667707e-07
-2.667701e-07
-2.667701e-07
-2.667701e-07
-2.667701e-07
-2.667701e-07
-2.667701e-07
-2.667701e-07
-2.667701e-07
-2.667701e-07
-2.667701e-07
-2.667701e-07
-2.667701e-07
-2.667701e-07
-2.667701e-07
-2.667701e-07
-2.423914e-07
-2.678186e-07
-2.667708e-07
-2.667701e-07
-2.667701e-07
-2.667701e-07
-2.667701e-07
-2.667701e-07
-2.667701e-07
-2.667701e-07
-2.667701e-07
-2.667701e-07
-2.667701e-07
-2.667701e-07
-2.667701e-07
-2.667701e-07
-2.667701e-07
-2.667701e-07
-2.315359e-07
-2.678199e-07
-2.667708e-07
-2.667701e-07
-2.667701e-07
-2.667701e-07
-2.667701e-07
-2.667701e-07
-2.667701e-07
-2.667701e-07
-2.667701e-07
-2.667701e-07
-2.667701e-07
-2.667701e-07
-2.667701e-07
-2.667701e-07
-2.667701e-07
-2.667701e-07
-2.205212e-07
-2.678021e-07
-2.667708e-07
-2.667701e-07
-2.667701e-07
-2.667701e-07
-2.667701e-07
-2.667701e-07
-2.667701e-07
-2.667701e-07
-2.667701e-07
-2.667701e-07
-2.667701e-07
-2.667701e-07
-2.667701e-07
-2.667701e-07
-2.667701e-07
-2.667701e-07
-2.093478e-07
-2.677525e-07
-2.667709e-07
-2.667701e-07
-2.667701e-07
-2.667701e-07
-2.667701e-07
-2.667701e-07
-2.667701e-07
-2.667701e-07
-2.667701e-07
-2.667701e-07
-2.667701e-07
-2.667701e-07
-2.667701e-07
-2.667701e-07
-2.667701e-07
-2.667701e-07
-1.988282e-07
-2.676771e-07
-2.667709e-07
-2.667701e-07
-2.667701e-07
-2.667701e-07
-2.667701e-07
-2.667701e-07
-2.667701e-07
-2.667701e-07
-2.667701e-07
-2.667701e-07
-2.667701e-07
-2.667701e-07
-2.667701e-07
-2.667701e-07
-2.667701e-07
-2.667701e-07
-1.882373e-07
-2.675426e-07
-2.667709e-07
-2.667732e-07
-2.66773e-07
-2.667701e-07
-2.667701e-07
-2.667701e-07
-2.667701e-07
-2.667701e-07
-2.667701e-07