/*--------------------------------*- C++ -*----------------------------------*\
| =========                 |                                                 |
| \\      /  F ield         | OpenFOAM: The Open Source CFD Toolbox           |
|  \\    /   O peration     | Version:  2206                                  |
|   \\  /    A nd           | Website:  www.openfoam.com                      |
|    \\/     M anipulation  |                                                 |
\*---------------------------------------------------------------------------*/
FoamFile
{
    version     2.0;
    format      ascii;
    arch        "LSB;label=32;scalar=64";
    class       volVectorField;
    location    "1";
    object      ddt0(U.b);
}
// * * * * * * * * * * * * * * * * * * * * * * * * * * * * * * * * * * * * * //

dimensions      [0 1 -2 0 0 0 0];

internalField   nonuniform List<vector> 
13078
(
(0.0001696486 -0.0001123847 3.562796e-26)
(0.0001367307 -0.0004570741 -3.654997e-29)
(0.0001288208 -0.0007187075 -8.042099e-26)
(0.0001259249 -0.0009964951 0)
(0.000123729 -0.001242352 -6.493018e-26)
(0.0001187852 -0.001471367 -7.674977e-26)
(0.0001126851 -0.001697445 -8.856013e-26)
(0.0004370695 -0.0001200657 0)
(0.0003876826 -0.0003903531 -3.737727e-28)
(0.0003852832 -0.0007065908 0)
(0.0003826477 -0.0009899055 0)
(0.000372719 -0.001245168 -4.226418e-28)
(0.0003467932 -0.001484617 -1.999949e-28)
(0.0003201372 -0.001711701 -3.740717e-28)
(0.0007194907 -0.0001277057 5.422961e-26)
(0.0006898932 -0.0004115064 -5.150661e-26)
(0.0006691047 -0.0007064392 3.730746e-26)
(0.0006503994 -0.0009998356 1.030093e-25)
(0.0006217848 -0.001268347 6.565993e-26)
(0.0005799869 -0.00151746 0)
(0.000532384 -0.001748606 -5.124286e-31)
(0.001028103 -0.0001425094 8.543047e-26)
(0.001003546 -0.0004355702 -1.672701e-25)
(0.0009691181 -0.0007378219 -1.583436e-25)
(0.0009234849 -0.001026773 -7.378003e-26)
(0.0008806497 -0.001307478 2.451763e-27)
(0.0008219809 -0.00156877 0)
(0.0007530133 -0.001808597 1.092553e-27)
(0.001342839 -0.0001519981 -2.519253e-28)
(0.001320731 -0.0004656761 -1.170979e-25)
(0.001274737 -0.0007807098 -2.230253e-25)
(0.001221574 -0.00108015 -2.190305e-25)
(0.0011503 -0.001361836 2.472766e-26)
(0.001074507 -0.001640639 -5.313508e-30)
(0.0009837687 -0.001892164 9.123135e-26)
(0.001676754 -0.0001635433 0)
(0.001647655 -0.0004996306 1.547379e-27)
(0.00160029 -0.0008293529 -2.541985e-27)
(0.001535502 -0.00114548 -1.363254e-25)
(0.00144596 -0.001450023 8.995741e-27)
(0.001339567 -0.001730504 -8.398774e-26)
(0.001228056 -0.0019995 -1.992842e-25)
(0.002032054 -0.0001804456 0)
(0.002003028 -0.0005389421 -1.798843e-25)
(0.001947951 -0.0008877829 -2.161569e-25)
(0.001869535 -0.001226271 -5.774768e-26)
(0.001760207 -0.00155576 -1.499211e-25)
(0.001634115 -0.001857201 1.120974e-26)
(0.001487031 -0.00213074 0)
(0.002416168 -0.0001921434 4.383847e-25)
(0.0023871 -0.0005794778 -2.155945e-25)
(0.002323219 -0.0009595135 -2.096789e-25)
(0.002225314 -0.001329029 0)
(0.002098028 -0.001681168 -3.816476e-25)
(0.001949634 -0.00200639 1.188036e-26)
(0.001776643 -0.002304055 1.37338e-26)
(0.002838461 -0.0002101087 5.107227e-29)
(0.002800935 -0.0006323397 5.067429e-25)
(0.002726641 -0.001046267 2.525347e-25)
(0.002614611 -0.001448299 8.336228e-27)
(0.002466217 -0.001830329 -8.888369e-25)
(0.002291191 -0.002184253 1.269116e-26)
(0.002088448 -0.002507898 0)
(0.00329784 -0.0002316664 -5.981985e-25)
(0.003254531 -0.0006951199 5.881332e-25)
(0.003169524 -0.001147139 2.863009e-25)
(0.003040433 -0.001586884 -5.471214e-25)
(0.002868009 -0.002005713 -3.128282e-28)
(0.002664492 -0.002393136 0)
(0.002428842 -0.002747015 0)
(0.003802479 -0.0002563812 0)
(0.003754816 -0.0007665012 0)
(0.003657294 -0.001263578 6.581653e-25)
(0.003508155 -0.001748535 -6.296351e-25)
(0.003309291 -0.002209559 3.52229e-28)
(0.003074627 -0.00263573 0)
(0.002802714 -0.003024747 0)
(0.004361491 -0.0002827732 0)
(0.004307952 -0.0008475709 -7.71377e-25)
(0.004195489 -0.001398721 7.513334e-25)
(0.004024585 -0.001934888 7.077755e-25)
(0.003796608 -0.002444517 -6.993806e-25)
(0.003527378 -0.002915359 0)
(0.003215256 -0.003344803 6.344093e-25)
(0.004983165 -0.0003137105 0)
(0.004920797 -0.0009410053 -8.805294e-25)
(0.004792387 -0.001553421 -8.267944e-27)
(0.004597043 -0.002148352 8.156211e-25)
(0.004337078 -0.002713754 -7.780681e-25)
(0.004029069 -0.003235927 7.313364e-25)
(0.0036722 -0.0037117 5.480844e-28)
(0.005675025 -0.0003492974 -1.005528e-24)
(0.005603335 -0.001047961 0)
(0.005456651 -0.001730151 -9.037642e-27)
(0.005232847 -0.002391692 -1.255707e-26)
(0.004939889 -0.003020043 -1.758844e-24)
(0.004586389 -0.003601762 8.264827e-25)
(0.00417978 -0.004130247 -7.657581e-25)
(0.00644712 -0.0003897941 -1.132954e-24)
(0.00636517 -0.00116995 0)
(0.006198609 -0.001932464 -1.980188e-26)
(0.005940337 -0.002673407 1.224456e-24)
(0.00562064 -0.003361815 -7.235868e-25)
(0.005208075 -0.004016892 0)
(0.004745071 -0.004605988 8.606383e-25)
(0.007311183 -0.0004356889 0)
(0.007216476 -0.001307721 -1.252119e-24)
(0.007028362 -0.002158828 0)
(0.006744496 -0.002978308 1.203388e-24)
(0.006369783 -0.003760415 3.835258e-26)
(0.00590141 -0.004489686 4.618537e-26)
(0.005375817 -0.005146333 1.019263e-24)
(0.008279247 -0.0004887245 0)
(0.008170017 -0.001465249 -2.808862e-24)
(0.007956123 -0.002417783 -1.208347e-26)
(0.007635656 -0.003334286 -1.674618e-26)
(0.007208548 -0.004210177 0)
(0.006676837 -0.005025452 0)
(0.006080503 -0.005758938 0)
(0.009364783 -0.0005485781 -1.598907e-24)
(0.009240022 -0.001643559 -1.57719e-24)
(0.008996822 -0.002711032 -2.679157e-26)
(0.008633272 -0.003737912 -1.853522e-26)
(0.00814804 -0.004718729 0)
(0.007545918 -0.005631859 -1.359899e-24)
(0.006868903 -0.006452816 -1.299209e-25)
(0.01058418 -0.0006160622 -1.789791e-24)
(0.01044145 -0.001845111 -1.764139e-24)
(0.01016523 -0.003042834 -4.456324e-26)
(0.00975264 -0.004194719 -4.111595e-26)
(0.009199753 -0.005293155 0)
(0.008524755 -0.006315465 -1.456661e-24)
(0.007752191 -0.007238194 -7.192668e-26)
(0.01195511 -0.0006922307 -2.003237e-24)
(0.01179166 -0.002072744 -3.93538e-24)
(0.01147855 -0.003418071 -1.912914e-24)
(0.01101231 -0.004714317 0)
(0.01038023 -0.005957162 4.366327e-25)
(0.009644584 -0.007073848 6.656738e-25)
(0.00874519 -0.008124392 1.592126e-25)
(0.01349722 -0.0007780446 -2.241785e-24)
(0.01330988 -0.002329182 -4.39237e-24)
(0.01295488 -0.003839718 -4.256102e-24)
(0.01242965 -0.005291249 -2.002225e-24)
(0.0117363 -0.006666927 6.418907e-26)
(0.01088059 -0.007954553 -1.787846e-24)
(0.009860154 -0.009128889 1.572931e-24)
(0.01523267 -0.0008748399 0)
(0.01501782 -0.002618501 -2.44468e-24)
(0.01461528 -0.004316487 -2.366657e-24)
(0.014021 -0.005948573 -4.583536e-24)
(0.01324081 -0.007493174 0)
(0.01226946 -0.008942341 -1.993596e-24)
(0.01111619 -0.01026188 2.14561e-27)
(0.01718619 -0.0009837514 2.797493e-24)
(0.01693998 -0.002944167 0)
(0.0164843 -0.004853177 0)
(0.01581285 -0.006688369 6.140023e-26)
(0.01493146 -0.00842473 2.499535e-24)
(0.01382829 -0.01005142 0)
(0.01253887 -0.01153277 -2.060775e-24)
(0.01938528 -0.001106081 6.253197e-24)
(0.01910336 -0.003309956 0)
(0.01858844 -0.00545616 0)
(0.01783163 -0.007520886 2.784867e-24)
(0.01684073 -0.009481496 5.313781e-24)
(0.01558904 -0.0113366 -2.508896e-24)
(0.01418272 -0.01294013 0)
(0.02186027 -0.00124317 3.494549e-24)
(0.02153773 -0.003719847 1.718307e-26)
(0.02095654 -0.006131512 3.349825e-24)
(0.02010411 -0.008450783 7.846947e-26)
(0.01899375 -0.01064594 1.018257e-25)
(0.01762513 -0.01269338 -2.806418e-24)
(0.01599736 -0.01456886 0)
(0.02464457 -0.001396462 0)
(0.02427613 -0.004178413 -3.824252e-24)
(0.02362102 -0.00688795 3.710792e-24)
(0.02266178 -0.009495495 0)
(0.02141321 -0.01196691 -3.144152e-24)
(0.01988078 -0.01427172 5.304941e-25)
(0.0180408 -0.01639492 3.061503e-25)
(0.02777462 -0.001567218 -4.364186e-24)
(0.02735537 -0.004689857 -4.274056e-24)
(0.02661822 -0.007732467 4.141598e-24)
(0.02554159 -0.01066232 0)
(0.02414113 -0.01344224 -2.473898e-25)
(0.02242194 -0.01603743 -4.782034e-28)
(0.02034939 -0.01843421 3.421147e-25)
(0.03128892 -0.001756744 -4.87856e-24)
(0.03081721 -0.005256718 -4.772842e-24)
(0.02998756 -0.008672247 4.628373e-24)
(0.02878201 -0.01196221 0)
(0.02721512 -0.01508823 0)
(0.02529793 -0.01802306 -3.901206e-24)
(0.02298465 -0.02078423 6.688496e-25)
(0.03522991 -0.001963053 -5.459659e-24)
(0.03470631 -0.005882967 -5.362276e-24)
(0.03377209 -0.009715228 0)
(0.03242502 -0.01340568 4.702498e-24)
(0.03067101 -0.01691139 -3.089481e-25)
(0.02852697 -0.02017695 -8.344416e-24)
(0.02598435 -0.02313562 1.268467e-24)
(0.03963352 -0.002200945 -6.09049e-24)
(0.03909065 -0.006546525 0)
(0.03802609 -0.0108606 -5.866989e-24)
(0.03652233 -0.01500853 5.392576e-24)
(0.03456333 -0.01895619 -5.218994e-24)
(0.03215765 -0.0226559 -9.722141e-24)
(0.02928675 -0.026055 -4.434849e-24)
(0.04459818 -0.002428201 0)
(0.04395574 -0.007306345 0)
(0.04280428 -0.01211639 -1.289344e-23)
(0.04113252 -0.01677483 0)
(0.0389584 -0.02121795 -1.166659e-23)
(0.0362893 -0.02540645 -5.434966e-24)
(0.03310861 -0.02930897 4.960099e-24)
(0.05012064 -0.002705697 -7.635136e-24)
(0.04936821 -0.008160046 7.36947e-24)
(0.04819858 -0.01341332 7.131735e-24)
(0.04634197 -0.01867232 0)
(0.04391608 -0.02369048 -6.523094e-24)
(0.0409724 -0.02841256 0)
(0.03746464 -0.03279842 4.374186e-24)
(0.0562598 -0.002985705 -8.500179e-24)
(0.05549722 -0.00897605 8.322448e-24)
(0.05411993 -0.0149541 2.407073e-23)
(0.05227846 -0.02063481 1.563665e-23)
(0.04951952 -0.02635841 -6.802705e-24)
(0.04628398 -0.03171599 5.714355e-25)
(0.0424032 -0.03671354 -6.612494e-25)
(0.06307157 -0.003280088 1.439418e-26)
(0.06225432 -0.009849658 4.448385e-26)
(0.06085731 -0.01635954 9.307753e-24)
(0.05876586 -0.02283202 1.666264e-23)
(0.05585948 -0.02919708 -9.200811e-24)
(0.05232907 -0.03529198 1.269065e-24)
(0.0480764 -0.04102015 2.954506e-24)
(0.07052934 -0.003584049 -1.573917e-26)
(0.06966372 -0.01077744 -4.879149e-26)
(0.06824021 -0.01795626 9.745852e-24)
(0.06596231 -0.02521623 5.966437e-24)
(0.06313531 -0.03200471 -5.36475e-24)
(0.05927692 -0.0390266 7.116034e-24)
(0.05460483 -0.04565597 0)
(0.07857675 -0.003872557 0)
(0.07770689 -0.01165976 0)
(0.07633506 -0.01945106 1.12207e-23)
(0.07419498 -0.02731311 1.176865e-23)
(0.07106639 -0.03531161 1.604949e-23)
(0.06740553 -0.04275341 1.52549e-23)
(0.0621604 -0.05056576 0)
(0.08730236 -0.004147539 -3.66653e-26)
(0.08642464 -0.01250837 1.104222e-25)
(0.08511764 -0.02092016 3.80649e-25)
(0.08310492 -0.0294274 0)
(0.08019587 -0.03802311 2.303662e-23)
(0.07626987 -0.04676511 -1.668843e-24)
(0.07096706 -0.05560906 -3.97886e-24)
(0.09658937 -0.004388965 -1.433723e-23)
(0.09576189 -0.0132655 1.224432e-25)
(0.09458568 -0.02226528 -1.381655e-23)
(0.09276612 -0.0314627 0)
(0.09011098 -0.04098122 1.436585e-23)
(0.08614324 -0.05100783 8.49109e-25)
(0.08152083 -0.06040353 -2.016784e-23)
(0.1063266 -0.004568381 -1.579418e-23)
(0.1056359 -0.01383277 -1.544057e-23)
(0.1046747 -0.02335993 -1.529146e-23)
(0.1031765 -0.03316979 -1.212995e-24)
(0.1009574 -0.04337931 -3.169935e-24)
(0.09765575 -0.05401412 7.863513e-24)
(0.09299369 -0.06527718 -9.347314e-24)
(0.1163689 -0.004711726 0)
(0.1159543 -0.01409134 1.676711e-23)
(0.1153157 -0.02402938 1.682532e-23)
(0.1142466 -0.03440236 6.432278e-25)
(0.1126607 -0.04533677 -1.771389e-23)
(0.1101801 -0.05719414 -2.104511e-24)
(0.1059225 -0.07036959 0)
(0.1266548 -0.004672692 1.897652e-23)
(0.1263194 -0.01425051 3.64423e-23)
(0.1263532 -0.023998 1.685622e-23)
(0.1259323 -0.03481632 3.633849e-23)
(0.12516 -0.04635555 -1.958832e-23)
(0.1238657 -0.05897216 1.511438e-23)
(0.1210286 -0.07321109 2.397439e-22)
(0.1367316 -0.004525783 2.054901e-23)
(0.1368024 -0.01371897 -1.353225e-25)
(0.1371651 -0.02362442 0)
(0.137998 -0.03395542 5.695529e-25)
(0.1383217 -0.04605006 3.936003e-23)
(0.138125 -0.0599022 3.203604e-22)
(0.1353386 -0.07736427 3.301304e-22)
(0.1462088 -0.004178311 -2.213993e-23)
(0.1466997 -0.01268239 2.490403e-25)
(0.1479407 -0.02192396 4.430658e-25)
(0.1494965 -0.03246292 -4.730573e-23)
(0.1515691 -0.04427663 5.305105e-22)
(0.1512738 -0.06131198 1.613789e-21)
(0.1463033 -0.08513992 -7.716542e-22)
(0.1544567 -0.003605979 -2.356474e-23)
(0.1556055 -0.01100394 0)
(0.1578802 -0.01930672 7.913817e-25)
(0.1610608 -0.02944363 7.767286e-22)
(0.1627234 -0.04413528 -5.029162e-22)
(0.1608239 -0.06547571 1.165197e-21)
(0.1528813 -0.09819634 -1.636855e-21)
(0.1617918 -0.00274501 0)
(0.1633427 -0.008458353 3.557022e-25)
(0.1666181 -0.01558285 -1.772962e-23)
(0.1707343 -0.02677772 8.422796e-22)
(0.1708501 -0.04610908 -1.194496e-21)
(0.1654115 -0.075626 3.714754e-22)
(0.1553754 -0.1136285 -3.140316e-21)
(0.166623 -0.0015703 0)
(0.1689247 -0.005203057 4.704557e-22)
(0.1728945 -0.01161508 -3.291654e-22)
(0.1758173 -0.02593948 5.348929e-22)
(0.1740197 -0.05164439 -5.407515e-22)
(0.1669072 -0.08801886 -2.715226e-22)
(0.1557262 -0.136215 -2.516821e-21)
(0.1684418 -0.0001162386 -2.650034e-23)
(0.1717418 -0.00161511 7.734551e-22)
(0.1749015 -0.009384476 -3.749356e-22)
(0.1747419 -0.02856662 8.66891e-22)
(0.1713794 -0.0591641 6.017156e-22)
(0.1630922 -0.1019901 3.469765e-22)
(0.1534453 -0.1536564 2.24718e-22)
(0.1665639 0.001411809 -2.448409e-22)
(0.170026 0.0007716428 -4.001279e-22)
(0.1710353 -0.01029017 -2.877071e-22)
(0.1685422 -0.03390825 6.486336e-22)
(0.1622002 -0.07117024 4.8565e-22)
(0.1523368 -0.1179411 4.709697e-22)
(0.1440149 -0.1725142 1.177179e-21)
(0.1605957 0.002314466 -4.193302e-23)
(0.1627909 0.0009312097 -8.871193e-22)
(0.1615101 -0.01415973 -4.523502e-22)
(0.1568342 -0.04319972 1.300653e-23)
(0.1477203 -0.08533491 8.51885e-22)
(0.1375308 -0.135104 -7.592439e-22)
(0.1268468 -0.1922658 1.431602e-21)
(0.1505642 0.001952326 6.916668e-22)
(0.1506701 -0.002004289 4.4085e-22)
(0.1474896 -0.02144723 -8.989189e-23)
(0.1408175 -0.05597018 6.386467e-22)
(0.1301082 -0.102015 1.223199e-22)
(0.1178695 -0.1561155 -2.953012e-22)
(0.1046322 -0.2158692 -3.634696e-22)
(0.1365278 0.0003036775 2.724878e-22)
(0.135061 -0.007801655 2.56154e-22)
(0.1306945 -0.03114606 1.298356e-22)
(0.1231526 -0.07102324 5.940955e-22)
(0.1115455 -0.123703 -1.634823e-22)
(0.0972153 -0.1816892 -5.606418e-22)
(0.08399709 -0.2429881 4.103851e-22)
(0.1184192 -0.002438048 -9.406833e-24)
(0.1166176 -0.01461846 -1.058773e-22)
(0.1126275 -0.04249826 -4.879553e-22)
(0.1043512 -0.0878663 -1.221085e-21)
(0.09417298 -0.1466362 -1.713248e-21)
(0.08357069 -0.2092352 -6.303619e-22)
(0.07150078 -0.2737262 2.452503e-21)
(0.09684226 -0.00479096 5.994951e-23)
(0.09563349 -0.02060518 1.854878e-22)
(0.09229058 -0.05274706 -5.319001e-22)
(0.08558016 -0.1022377 -2.491266e-22)
(0.07975336 -0.1621571 3.69302e-22)
(0.07544412 -0.2279499 -1.668075e-22)
(0.07105011 -0.2996468 -1.326685e-21)
(0.07289303 -0.0064871 1.327085e-22)
(0.07227166 -0.02538676 3.799595e-22)
(0.06997159 -0.06041008 -3.861236e-22)
(0.06640771 -0.1106807 -5.35465e-23)
(0.06489594 -0.1703501 1.774695e-23)
(0.06600387 -0.2347958 9.918682e-23)
(0.07078811 -0.3038593 4.458686e-22)
(0.04710976 -0.007761074 1.713338e-22)
(0.04687933 -0.02886093 1.99634e-22)
(0.0458347 -0.06517029 -9.415598e-23)
(0.04455317 -0.1153586 -8.191588e-23)
(0.04457076 -0.1735194 2.544624e-22)
(0.04881019 -0.2343247 3.379292e-22)
(0.05492473 -0.298156 1.707138e-22)
(0.01906942 -0.008430859 1.865308e-23)
(0.01898756 -0.03023775 -4.963647e-24)
(0.01892819 -0.06687239 3.681462e-23)
(0.01910228 -0.1173799 6.630034e-25)
(0.01942662 -0.1731316 1.592331e-23)
(0.02246313 -0.2310081 3.103273e-22)
(0.02476867 -0.2927777 1.712921e-22)
(-0.01083642 -0.008357639 4.980149e-24)
(-0.01050923 -0.02998047 3.569693e-24)
(-0.00985089 -0.0661685 6.202525e-23)
(-0.009042968 -0.1166385 -3.104025e-23)
(-0.008606906 -0.1725635 -4.364656e-22)
(-0.01064543 -0.2302173 -1.367206e-22)
(-0.0124494 -0.2920944 1.808162e-22)
(-0.03922824 -0.007500205 6.106394e-24)
(-0.03879448 -0.02797779 -1.268919e-23)
(-0.03728197 -0.0637704 9.925477e-24)
(-0.03553277 -0.1138465 1.271978e-23)
(-0.03505138 -0.1716794 7.847664e-23)
(-0.03865302 -0.2320218 7.498124e-23)
(-0.04400869 -0.2954196 5.260763e-23)
(-0.06562122 -0.006192813 -7.48672e-23)
(-0.06503304 -0.02428834 7.801281e-23)
(-0.06259038 -0.05854892 -5.808306e-23)
(-0.05840989 -0.1088005 8.295926e-23)
(-0.05638045 -0.1683038 8.559015e-23)
(-0.05695488 -0.2320074 -2.325291e-22)
(-0.06160913 -0.3002292 -1.067807e-21)
(-0.09038365 -0.004453952 1.811132e-22)
(-0.08936696 -0.01944715 -1.66604e-23)
(-0.08605294 -0.05047365 6.424689e-24)
(-0.07904892 -0.0994646 1.784774e-22)
(-0.07209137 -0.1592149 -3.551541e-23)
(-0.06766319 -0.2250736 -1.740769e-21)
(-0.06571352 -0.2980398 -1.028077e-21)
(-0.1129036 -0.002050993 2.019547e-22)
(-0.111385 -0.01342335 -7.681157e-23)
(-0.1073948 -0.04033343 4.376836e-22)
(-0.09921584 -0.08441371 -1.221844e-22)
(-0.0884706 -0.1432345 -1.386111e-21)
(-0.07817003 -0.2074587 -2.067175e-21)
(-0.06685481 -0.2738705 -2.45271e-21)
(-0.1320696 0.0008285108 -6.505522e-22)
(-0.1308691 -0.006415656 3.202951e-23)
(-0.1265743 -0.0290555 1.483192e-21)
(-0.1191 -0.0680435 3.834188e-22)
(-0.1074289 -0.120896 7.135212e-22)
(-0.09221401 -0.1801843 2.400575e-22)
(-0.0778446 -0.2428731 -6.624878e-22)
(-0.1472072 0.002477729 -1.066748e-21)
(-0.1473804 -0.000567025 3.271083e-22)
(-0.1445449 -0.0192673 1.118726e-21)
(-0.1377612 -0.05301703 5.823068e-22)
(-0.126582 -0.09853097 1.381307e-22)
(-0.1126382 -0.1533661 4.188431e-22)
(-0.09746951 -0.2147513 -3.101246e-22)
(-0.1582855 0.002801707 -7.041232e-22)
(-0.1604846 0.002336667 -2.667124e-22)
(-0.159379 -0.01189197 -9.220827e-22)
(-0.1546812 -0.04000499 -1.011838e-21)
(-0.1451583 -0.08116578 1.136236e-22)
(-0.1336984 -0.1307161 1.006092e-22)
(-0.1211102 -0.1896993 7.508652e-23)
(-0.1652093 0.001877962 -1.505028e-22)
(-0.1687571 0.002142698 5.877375e-22)
(-0.1697522 -0.008027481 -6.720596e-23)
(-0.1674439 -0.03076771 -1.667546e-21)
(-0.160934 -0.06702434 3.689156e-22)
(-0.1504726 -0.1131881 1.386313e-21)
(-0.1406411 -0.1676955 8.011295e-22)
(-0.1681043 0.0002680711 -2.612261e-23)
(-0.1715068 -0.0004150717 8.770805e-22)
(-0.1747456 -0.007306564 7.880926e-22)
(-0.1747263 -0.02557274 -2.315764e-22)
(-0.17147 -0.05542813 -1.437365e-22)
(-0.1626976 -0.09740991 5.202332e-22)
(-0.1515681 -0.1477041 -7.73206e-22)
(-0.1672591 -0.001194582 0)
(-0.1696759 -0.004092586 -2.512026e-22)
(-0.1737909 -0.009761263 9.878068e-23)
(-0.1769016 -0.02338613 -1.866211e-22)
(-0.175373 -0.04828365 -7.995499e-22)
(-0.1680305 -0.08333802 9.182509e-22)
(-0.1560141 -0.129666 8.248832e-22)
(-0.1632204 -0.002463306 0)
(-0.164909 -0.007570921 -2.697312e-25)
(-0.1684158 -0.01410109 1.031352e-22)
(-0.1728623 -0.02470228 3.435788e-22)
(-0.1733842 -0.04327123 -9.278413e-22)
(-0.1684143 -0.07168079 9.450171e-22)
(-0.158481 -0.1095249 8.745468e-22)
(-0.1567043 -0.003428964 -2.407906e-23)
(-0.1577775 -0.01040994 0)
(-0.1602953 -0.0182684 0)
(-0.1639116 -0.02799469 4.35707e-22)
(-0.1662274 -0.04221247 1.465294e-21)
(-0.164893 -0.06340155 -1.252201e-21)
(-0.1573877 -0.09510858 -1.620528e-21)
(-0.1484367 -0.004090941 -2.278351e-23)
(-0.1491201 -0.01234628 -2.237187e-25)
(-0.1506715 -0.02127882 -3.994618e-25)
(-0.1527246 -0.031535 -3.95242e-24)
(-0.1552581 -0.04332973 1.425003e-21)
(-0.1555583 -0.06003266 -8.71964e-22)
(-0.1509252 -0.08335197 7.514882e-22)
(-0.1393251 -0.004458412 0)
(-0.1394959 -0.0135041 2.125873e-23)
(-0.1401424 -0.0232521 0)
(-0.1412582 -0.03357607 -1.202978e-24)
(-0.1420596 -0.04560409 -1.658644e-24)
(-0.1422423 -0.05949236 2.074134e-22)
(-0.1400993 -0.07653852 6.150013e-22)
(-0.1293682 -0.004650404 0)
(-0.1291799 -0.0141575 -1.956872e-23)
(-0.1293691 -0.02391974 1.95512e-23)
(-0.1292423 -0.03472682 0)
(-0.1287627 -0.04644593 -3.260645e-24)
(-0.1279512 -0.05903997 1.036472e-23)
(-0.1255456 -0.07366182 2.697198e-22)
(-0.1191247 -0.00472181 0)
(-0.1187968 -0.01415855 -5.425924e-23)
(-0.1183104 -0.02412423 -2.471059e-26)
(-0.1174207 -0.03465958 -3.760282e-23)
(-0.1161233 -0.04565051 -3.264125e-24)
(-0.1138369 -0.05784094 1.681592e-23)
(-0.1099358 -0.07144492 -1.824362e-23)
(-0.1089934 -0.004592757 1.679836e-23)
(-0.1084134 -0.01394609 -1.682122e-23)
(-0.1075604 -0.02356287 5.075186e-27)
(-0.106214 -0.03353905 -3.127195e-23)
(-0.1040972 -0.04398364 0)
(-0.100946 -0.05496086 0)
(-0.09654293 -0.06668731 -2.232963e-23)
(-0.09916042 -0.004431095 1.528735e-23)
(-0.09839894 -0.01343033 -1.522839e-23)
(-0.09727631 -0.0226173 1.482671e-23)
(-0.09559526 -0.03192672 1.448345e-23)
(-0.09294344 -0.04173484 0)
(-0.08910233 -0.05205193 0)
(-0.0846093 -0.06183773 -1.595438e-23)
(-0.08970114 -0.004211276 -1.392483e-23)
(-0.08886498 -0.01274019 -1.413852e-23)
(-0.08762608 -0.02127807 -3.828438e-25)
(-0.08562672 -0.03003916 1.248351e-23)
(-0.08265514 -0.03902705 3.961224e-24)
(-0.07886858 -0.04782042 -1.833317e-23)
(-0.07364464 -0.05704428 8.852326e-24)
(-0.0808 -0.003940647 -1.263277e-23)
(-0.0799726 -0.01188361 -1.100567e-25)
(-0.07861468 -0.01985519 3.636748e-25)
(-0.07648742 -0.02789234 5.158283e-25)
(-0.07344557 -0.03604934 0)
(-0.06958211 -0.04396823 -1.180711e-23)
(-0.06447099 -0.05197948 9.755044e-24)
(-0.07252815 -0.003663661 0)
(-0.07172491 -0.01099103 -2.007777e-25)
(-0.07031632 -0.01835964 -3.40328e-25)
(-0.06805608 -0.02582293 2.406022e-23)
(-0.06527169 -0.03284687 4.48679e-24)
(-0.06129532 -0.04012922 1.718694e-23)
(-0.05660926 -0.04700133 6.865088e-24)
(-0.0649314 -0.003354478 -3.024645e-26)
(-0.06414021 -0.01008192 -9.395674e-26)
(-0.06275227 -0.01676637 0)
(-0.06066244 -0.02342887 -2.603469e-26)
(-0.05772843 -0.03000665 8.895753e-24)
(-0.05412693 -0.03632427 8.325035e-24)
(-0.04980048 -0.04228501 -1.591468e-24)
(-0.05799419 -0.003060554 9.183068e-24)
(-0.0572303 -0.009205818 -9.225554e-24)
(-0.0558403 -0.01535524 1.607455e-23)
(-0.05397745 -0.02121371 -1.847542e-23)
(-0.05116494 -0.02713263 7.429215e-24)
(-0.04786013 -0.03268899 0)
(-0.04388964 -0.03789234 1.433574e-24)
(-0.0517005 -0.002780306 8.276115e-24)
(-0.0509381 -0.008391012 -7.997036e-24)
(-0.04974629 -0.01380412 7.749395e-24)
(-0.04784701 -0.01923275 0)
(-0.04536431 -0.02442514 -7.115127e-24)
(-0.04234802 -0.02932279 0)
(-0.03874639 -0.03388344 6.097886e-24)
(-0.04601813 -0.002500492 0)
(-0.0453561 -0.007528391 0)
(-0.04417525 -0.01249258 -1.401752e-23)
(-0.04246129 -0.01730518 0)
(-0.04023058 -0.02190315 -1.272327e-23)
(-0.037487 -0.02624611 -5.938336e-24)
(-0.0342117 -0.03030061 5.43006e-24)
(-0.04088921 -0.002271295 -6.615584e-24)
(-0.04033147 -0.006755869 0)
(-0.03923878 -0.01121049 -6.168709e-24)
(-0.03769286 -0.01549862 6.167941e-24)
(-0.03567778 -0.01958511 -5.690226e-24)
(-0.03319958 -0.02342047 -1.061471e-23)
(-0.03023749 -0.02695033 -4.848642e-24)
(-0.03634538 -0.002028253 -5.915765e-24)
(-0.03580357 -0.006078304 -5.772677e-24)
(-0.03484122 -0.01003698 0)
(-0.03345362 -0.01385237 5.650491e-24)
(-0.03164571 -0.01748231 3.356361e-25)
(-0.02943342 -0.02086697 -9.907711e-24)
(-0.02680624 -0.02393804 -1.385273e-24)
(-0.03227596 -0.001815963 -5.305711e-24)
(-0.03178586 -0.00543367 -5.191806e-24)
(-0.03092764 -0.008964308 5.036667e-24)
(-0.02968379 -0.01236719 0)
(-0.02806598 -0.0156037 0)
(-0.0260853 -0.01864458 -4.253761e-24)
(-0.02369168 -0.02150812 7.014268e-24)
(-0.02864356 -0.001620625 -4.747785e-24)
(-0.02820735 -0.004849431 -4.65034e-24)
(-0.0274438 -0.007995788 4.507459e-24)
(-0.02633046 -0.01102686 0)
(-0.02488201 -0.01390501 2.694032e-25)
(-0.02310207 -0.01659277 5.210662e-28)
(-0.0209561 -0.01907644 -3.73322e-25)
(-0.02540723 -0.001444399 0)
(-0.0250234 -0.004321593 -4.161476e-24)
(-0.02434391 -0.007124006 4.038664e-24)
(-0.02335037 -0.009821586 0)
(-0.02205709 -0.01237852 -3.905969e-24)
(-0.02046952 -0.01476533 -5.785166e-25)
(-0.01856376 -0.01696613 -3.341987e-25)
(-0.02252778 -0.001286024 3.802824e-24)
(-0.02219143 -0.003847801 -1.870551e-26)
(-0.02158796 -0.006342246 3.58358e-24)
(-0.02070412 -0.0087413 -8.548726e-26)
(-0.01955327 -0.01101292 -1.055704e-25)
(-0.0181359 -0.01313311 -3.054803e-24)
(-0.01644839 -0.01507703 0)
(-0.01996793 -0.001144261 6.805109e-24)
(-0.01967372 -0.003423943 0)
(-0.01913862 -0.0056438 0)
(-0.01835332 -0.0077794 3.183559e-24)
(-0.01732585 -0.009808008 5.975886e-24)
(-0.01602788 -0.01172806 -2.729245e-24)
(-0.01456868 -0.01338764 0)
(-0.01769342 -0.001017669 3.044439e-24)
(-0.01743627 -0.00304542 -1.502371e-26)
(-0.01696242 -0.005019799 -2.491938e-26)
(-0.01626522 -0.006917767 -7.039467e-26)
(-0.01535066 -0.008713872 2.544959e-24)
(-0.01420585 -0.01039681 0)
(-0.0128679 -0.01192943 -2.238759e-24)
(-0.01567304 -0.000904885 -2.235654e-27)
(-0.01544849 -0.002708194 -2.69398e-24)
(-0.01502962 -0.00446405 -2.619599e-24)
(-0.01441214 -0.006151622 -4.985579e-24)
(-0.013602 -0.007748878 0)
(-0.01259335 -0.009247591 -2.165818e-24)
(-0.01139618 -0.01061237 2.340762e-27)
(-0.01387852 -0.0008045675 -2.435901e-24)
(-0.01368254 -0.002408399 -4.79197e-24)
(-0.01331293 -0.003970035 -4.670657e-24)
(-0.01276685 -0.005470448 -2.287871e-24)
(-0.01204637 -0.006892468 -6.988451e-26)
(-0.01115713 -0.008223509 -1.941135e-24)
(-0.010097 -0.009437662 1.898098e-24)
(-0.01228438 -0.0007155322 -2.180694e-24)
(-0.01211316 -0.002142474 -4.283337e-24)
(-0.01178706 -0.003532865 -2.081476e-24)
(-0.01130205 -0.004872164 0)
(-0.01064483 -0.006156155 -4.746632e-25)
(-0.009879547 -0.007309627 -7.23865e-25)
(-0.008944112 -0.008395053 -1.731992e-25)
(-0.01086772 -0.0006363568 -1.95229e-24)
(-0.01071793 -0.001906223 -1.911075e-24)
(-0.01043029 -0.00314363 4.834764e-26)
(-0.01000092 -0.004333007 4.46046e-26)
(-0.009425647 -0.005466863 0)
(-0.008723102 -0.006521738 -1.580984e-24)
(-0.007918466 -0.00747358 7.800962e-26)
(-0.0096078 -0.0005660775 -1.745089e-24)
(-0.009477381 -0.00169695 -1.709579e-24)
(-0.009224095 -0.002799392 2.900671e-26)
(-0.008845557 -0.003858774 2.006179e-26)
(-0.008340596 -0.00487017 0)
(-0.007713717 -0.005810985 -1.35482e-24)
(-0.00700817 -0.006655897 1.403875e-25)
(-0.008486845 -0.0005044093 1.31015e-27)
(-0.008373586 -0.00151235 -3.059361e-24)
(-0.008150245 -0.002494874 1.305022e-26)
(-0.007816556 -0.003439605 1.80781e-26)
(-0.007371968 -0.004341864 0)
(-0.006819008 -0.005180505 0)
(-0.006198029 -0.005933576 0)
(-0.007488821 -0.0004500475 0)
(-0.007390013 -0.001349094 -1.367433e-24)
(-0.007193428 -0.002225609 0)
(-0.006898193 -0.003069796 1.248071e-24)
(-0.006508552 -0.00387496 -4.12572e-26)
(-0.006022268 -0.004624501 -4.96323e-26)
(-0.0054761 -0.005297163 9.947869e-25)
(-0.006598562 -0.0004021293 -1.239626e-24)
(-0.006512191 -0.001205762 0)
(-0.006338717 -0.001990775 2.126733e-26)
(-0.00607033 -0.002753699 9.454474e-25)
(-0.005738403 -0.003461698 -1.372628e-24)
(-0.005310793 -0.004134439 0)
(-0.004831048 -0.004737755 9.410412e-25)
(-0.005803124 -0.000359885 -1.10285e-24)
(-0.00572766 -0.001079171 0)
(-0.005575062 -0.001781173 9.681522e-27)
(-0.005342466 -0.002461795 1.344664e-26)
(-0.005038607 -0.003107897 -1.92975e-24)
(-0.004672489 -0.003705044 9.070266e-25)
(-0.004252557 -0.004246588 -8.410009e-25)
(-0.005091003 -0.0003228743 0)
(-0.005025342 -0.0009682601 -9.580949e-25)
(-0.004891646 -0.001598193 8.833906e-27)
(-0.004688749 -0.002209941 8.980538e-25)
(-0.004419296 -0.002790897 -8.56973e-25)
(-0.004100372 -0.003327113 8.0601e-25)
(-0.00373214 -0.003815201 5.853471e-28)
(-0.004451763 -0.0002906607 0)
(-0.004394983 -0.0008713573 -8.52262e-25)
(-0.004277856 -0.001438123 8.303751e-25)
(-0.004100403 -0.001989213 8.055987e-25)
(-0.003864168 -0.002512737 -7.448819e-25)
(-0.003585581 -0.002996228 3.409233e-26)
(-0.003263142 -0.003437125 6.627405e-25)
(-0.00387675 -0.0002629465 0)
(-0.003826999 -0.0007870984 0)
(-0.003724676 -0.001298387 7.312546e-25)
(-0.003569922 -0.001796589 -7.001855e-25)
(-0.003363739 -0.002269966 3.752792e-28)
(-0.003120668 -0.002707529 0)
(-0.002839383 -0.003107086 0)
(-0.003357909 -0.0002382692 -6.684498e-25)
(-0.003313069 -0.0007133981 6.575972e-25)
(-0.003223937 -0.001177317 3.134403e-25)
(-0.003090091 -0.001629475 -6.222178e-25)
(-0.002910807 -0.002059082 -3.32401e-28)
(-0.00269957 -0.0024567 2.888995e-26)
(-0.002455197 -0.002820165 1.099063e-29)
(-0.002887135 -0.0002159827 5.515659e-29)
(-0.00284684 -0.000648596 5.714558e-25)
(-0.002769809 -0.001073264 2.718998e-25)
(-0.002653123 -0.00148577 -8.791248e-27)
(-0.002498756 -0.001876933 -1.028311e-24)
(-0.002316479 -0.002240082 -1.339743e-26)
(-0.00210548 -0.002572276 0)
(-0.00245555 -0.0001963551 5.002182e-25)
(-0.002422975 -0.0005929416 -2.45989e-25)
(-0.002355073 -0.0009832023 -2.393044e-25)
(-0.002254302 -0.001361882 0)
(-0.002121425 -0.001721948 -4.367881e-25)
(-0.0019663 -0.00205482 -1.248676e-26)
(-0.001785555 -0.002359993 -1.444726e-26)
(-0.002057279 -0.0001826392 0)
(-0.002032058 -0.0005478542 -2.086719e-25)
(-0.0019724 -0.0009086612 -1.596598e-25)
(-0.00188929 -0.001255993 6.016213e-26)
(-0.001775491 -0.001590534 -1.949835e-25)
(-0.001643353 -0.001898833 -1.172261e-26)
(-0.001488775 -0.002178591 0)
(-0.001694034 -0.0001718294 0)
(-0.001666671 -0.0005129577 -1.59626e-27)
(-0.001620608 -0.0008442431 2.618711e-27)
(-0.001548549 -0.001169708 -1.61909e-25)
(-0.001455472 -0.001480708 -9.132003e-27)
(-0.001342825 -0.001765699 8.717551e-26)
(-0.001224052 -0.002039821 1.988545e-25)
(-0.001355286 -0.0001567797 2.523566e-28)
(-0.001329079 -0.0004792026 -1.380294e-25)
(-0.001286619 -0.0007964867 -2.683211e-25)
(-0.001232233 -0.001099276 -2.544066e-25)
(-0.001154611 -0.001387026 2.017553e-25)
(-0.001073053 -0.001669124 8.367835e-26)
(-0.0009752541 -0.001925012 -3.597895e-27)
(-0.001030434 -0.0001476623 1.106895e-25)
(-0.001011958 -0.0004500252 -2.168295e-25)
(-0.000974449 -0.0007560638 -2.111117e-25)
(-0.0009303957 -0.001043652 -1.040529e-25)
(-0.0008806686 -0.00132594 3.16224e-27)
(-0.00081675 -0.001591549 0)
(-0.0007408569 -0.001834492 1.411934e-27)
(-0.0007221432 -0.0001410116 7.884556e-26)
(-0.000704319 -0.0004299195 -7.707067e-26)
(-0.0006798258 -0.00072147 -3.736465e-26)
(-0.0006523024 -0.001013686 -1.041518e-25)
(-0.0006184477 -0.001281018 -6.453248e-26)
(-0.0005724568 -0.001534096 0)
(-0.0005177947 -0.001767539 -5.227953e-31)
(-0.0004232566 -0.0001315941 -2.430824e-28)
(-0.0004021083 -0.0004122493 -1.483584e-27)
(-0.0004003603 -0.0007122575 0)
(-0.0003853123 -0.000992845 0)