/*--------------------------------*- C++ -*----------------------------------*\
| =========                 |                                                 |
| \\      /  F ield         | OpenFOAM: The Open Source CFD Toolbox           |
|  \\    /   O peration     | Version:  2206                                  |
|   \\  /    A nd           | Website:  www.openfoam.com                      |
|    \\/     M anipulation  |                                                 |
\*---------------------------------------------------------------------------*/
FoamFile
{
    version     2.0;
    format      ascii;
    arch        "LSB;label=32;scalar=64";
    class       volScalarField;
    location    "1";
    object      ddt0(alpha.a);
}
// * * * * * * * * * * * * * * * * * * * * * * * * * * * * * * * * * * * * * //

dimensions      [0 0 -1 0 0 0 0];

internalField   nonuniform List<scalar> 
13078
(
-0.1748096
-0.004023423
-0.0005934587
-0.0002187379
-0.0001466302
-0.000113442
-9.683699e-05
-0.001830838
-0.0007245684
-0.0001893632
-0.000154682
-0.0001270351
-0.0001063715
-9.350824e-05
-0.0001477569
-7.004611e-05
-8.536397e-05
-9.838655e-05
-9.593723e-05
-8.964194e-05
-8.417172e-05
0.0001453871
1.988596e-05
-3.125253e-05
-5.403181e-05
-6.637632e-05
-7.13103e-05
-7.26158e-05
0.0001596059
5.288727e-05
4.122239e-06
-2.604879e-05
-4.346758e-05
-5.459658e-05
-6.131234e-05
0.0001298314
5.463868e-05
1.857344e-05
-8.647457e-06
-2.868069e-05
-4.182466e-05
-5.131666e-05
0.0001017332
4.623364e-05
2.214383e-05
-3.251417e-07
-1.861842e-05
-3.322976e-05
-4.357837e-05
8.131692e-05
3.600356e-05
2.050379e-05
2.358356e-06
-1.338623e-05
-2.71025e-05
-3.826595e-05
6.663225e-05
2.676312e-05
1.659139e-05
2.326192e-06
-1.102746e-05
-2.353976e-05
-3.420157e-05
5.584098e-05
1.898267e-05
1.225788e-05
9.615079e-07
-1.040843e-05
-2.160364e-05
-3.160947e-05
4.752946e-05
1.264257e-05
8.15356e-06
-1.040335e-06
-1.075123e-05
-2.069643e-05
-2.995254e-05
4.088037e-05
7.339951e-06
4.37573e-06
-3.200682e-06
-1.153181e-05
-2.037778e-05
-2.890994e-05
3.532632e-05
2.776552e-06
9.420339e-07
-5.338049e-06
-1.248381e-05
-2.040902e-05
-2.828205e-05
3.044238e-05
-1.286028e-06
-2.185335e-06
-7.524656e-06
-1.373578e-05
-2.070264e-05
-2.788801e-05
2.593977e-05
-4.962142e-06
-4.953948e-06
-8.972544e-06
-1.444629e-05
-2.08825e-05
-2.743484e-05
2.165265e-05
-8.437698e-06
-7.649846e-06
-1.087466e-05
-1.564646e-05
-2.09765e-05
-2.687566e-05
1.741542e-05
-1.185051e-05
-1.035253e-05
-1.266154e-05
-1.653037e-05
-2.097777e-05
-2.624715e-05
1.308726e-05
-1.535131e-05
-1.303295e-05
-1.435931e-05
-1.727128e-05
-2.091314e-05
-2.557468e-05
8.530175e-06
-1.90257e-05
-1.571534e-05
-1.600806e-05
-1.821097e-05
-2.112138e-05
-2.494061e-05
3.65958e-06
-2.281062e-05
-1.8445e-05
-1.759075e-05
-1.824778e-05
-2.050405e-05
-2.395131e-05
-1.559061e-06
-2.675367e-05
-2.133777e-05
-1.936483e-05
-1.908876e-05
-2.058938e-05
-2.280499e-05
-7.189685e-06
-3.106404e-05
-2.444653e-05
-2.120775e-05
-1.954256e-05
-2.016013e-05
-2.166615e-05
-1.333169e-05
-3.576304e-05
-2.767729e-05
-2.294985e-05
-1.990804e-05
-1.978898e-05
-2.052799e-05
-2.009057e-05
-4.076925e-05
-3.098121e-05
-2.45762e-05
-1.991092e-05
-1.773398e-05
-1.814943e-05
-2.758785e-05
-4.614543e-05
-3.443854e-05
-2.604026e-05
-1.970147e-05
-1.621513e-05
-1.629189e-05
-3.589685e-05
-5.201105e-05
-3.802191e-05
-2.723687e-05
-1.886491e-05
-1.336483e-05
-1.276716e-05
-4.523177e-05
-5.850553e-05
-4.165475e-05
-2.802875e-05
-1.715226e-05
-9.596357e-06
-8.049318e-06
-5.584208e-05
-6.568695e-05
-4.537117e-05
-2.837785e-05
-1.443986e-05
-4.431773e-06
-6.34424e-07
-6.826311e-05
-7.393455e-05
-4.93588e-05
-2.826999e-05
-1.074799e-05
1.708379e-06
5.88246e-06
-8.182148e-05
-8.218307e-05
-5.338446e-05
-2.760282e-05
-5.868055e-06
9.813179e-06
1.680507e-05
-9.849682e-05
-9.343158e-05
-5.854814e-05
-2.668536e-05
2.785781e-07
2.004176e-05
2.959781e-05
-0.0001166683
-0.0001027063
-6.211904e-05
-2.535482e-05
7.572882e-06
3.191615e-05
4.429833e-05
-0.0001378527
-0.000116525
-6.582597e-05
-2.045466e-05
1.719973e-05
4.593042e-05
6.109803e-05
-0.0001619337
-0.0001291598
-7.10079e-05
-1.962452e-05
2.778364e-05
6.246137e-05
8.109107e-05
-0.0001889368
-0.0001428071
-7.214759e-05
-9.518355e-06
4.20414e-05
8.186778e-05
0.0001044401
-0.0002193244
-0.0001564408
-7.394177e-05
-3.251075e-06
5.620786e-05
0.000101393
0.0001307805
-0.000253516
-0.0001692854
-7.355357e-05
5.413154e-06
7.028655e-05
0.0001115799
0.0001497088
-0.0002917226
-0.0001799017
-6.989118e-05
1.217542e-05
7.582348e-05
0.0001148935
0.0001298036
-0.0003266726
-0.0001818896
-6.112974e-05
1.527653e-05
6.379791e-05
8.63902e-05
4.406533e-05
-0.0003760305
-0.0001715459
-4.817404e-05
9.033264e-06
2.331544e-05
-2.910499e-06
-0.0001275793
-0.0004494514
-0.0001747753
-5.290046e-05
-4.024261e-05
-8.10649e-05
-0.0001926243
-0.0003689375
-0.0005425424
-0.0002276033
-0.0001235362
-0.0001486653
-0.0002587545
-0.0003561631
-0.0003691907
-0.0006941877
-0.0003471144
-0.0002591129
-0.0003190409
-0.0003707589
-0.000108441
-0.0004340991
-0.000935026
-0.0005358474
-0.0004435896
-0.0003994436
-1.397693e-05
0.0002184006
-0.001470924
-0.001271835
-0.0007509868
-0.0005779941
3.509752e-05
0.0007426468
-0.0001655582
-0.004220953
-0.001680735
-0.0009726628
-0.000371197
0.0009458786
0.00118108
-0.00109714
-0.007822142
-0.002084981
-0.001027869
0.0003753495
0.001595895
0.001119807
-0.003006059
-0.01085585
-0.00239519
-0.0006651691
0.001197209
0.001952831
0.0002979158
-0.005852195
-0.01482011
-0.002437095
-6.72769e-05
0.001792164
0.002056757
-0.001110025
-0.009248077
-0.01959198
-0.002165383
0.0004102418
0.002068424
0.0015531
-0.003703383
-0.01463939
-0.02504151
-0.001534955
0.0007726951
0.001694373
0.000118014
-0.008031678
-0.02166158
-0.0339274
-0.0006846563
0.0009984427
0.001157099
-0.002429719
-0.01379716
-0.02855948
-0.04251249
0.0001197846
0.001032769
0.0004833549
-0.005524258
-0.01852829
-0.03259153
-0.04749128
0.0007201516
0.0008311203
-0.0008191347
-0.008619478
-0.02275253
-0.03611914
-0.04745213
0.001191901
0.0006177524
-0.002018765
-0.01118158
-0.0260537
-0.03903612
-0.04860993
0.001616183
0.0005372562
-0.00269472
-0.01258024
-0.02777274
-0.04060365
-0.04968118
0.001626847
0.0005425746
-0.002661576
-0.0125124
-0.02777617
-0.04076082
-0.04987842
0.001241858
0.0006857523
-0.001844437
-0.01084112
-0.02581352
-0.03916145
-0.04881859
0.000799272
0.0009395661
-0.0005456468
-0.008015499
-0.02218723
-0.03610466
-0.04773141
0.0001938217
0.001103226
0.0007306682
-0.004804665
-0.01767254
-0.03244282
-0.0482019
-0.0006272187
0.001016496
0.001313907
-0.00169903
-0.01237808
-0.02752946
-0.04265365
-0.001496052
0.0007581797
0.001828453
0.0008860634
-0.006069103
-0.01939952
-0.03283013
-0.002128294
0.0003998376
0.002131801
0.00209212
-0.001898507
-0.01171543
-0.02281106
-0.00240654
-8.433502e-05
0.001797623
0.002403003
0.000368477
-0.006141689
-0.01619434
-0.002358808
-0.0006636391
0.001178286
0.002148192
0.001502863
-0.002776885
-0.01060743
-0.002044222
-0.001011981
0.0003457698
0.00172394
0.001950816
-0.0005017108
-0.006683197
-0.001644681
-0.0009508784
-0.0003593334
0.001019307
0.001671984
0.0006503048
-0.003600968
-0.001231493
-0.0007249791
-0.0005529127
8.41933e-05
0.0009770011
0.001012701
-0.001020356
-0.0008834948
-0.0005023433
-0.0004165806
-0.0003532816
0.0001541401
0.0008018212
0.0001125969
-0.0006359675
-0.0003019148
-0.0002267256
-0.00027353
-0.0002543045
0.0001275373
0.0002923299
-0.0004885416
-0.0001725916
-7.561707e-05
-9.706327e-05
-0.0001823198
-0.000230579
-4.072083e-05
-0.0004069101
-0.0001214091
4.401367e-06
1.908178e-05
-1.465655e-05
-0.0001042507
-0.0002171356
-0.0003459239
-0.0001237853
8.092457e-06
6.776105e-05
8.23458e-05
6.278477e-05
-3.958376e-05
-0.0003024861
-0.0001416059
-1.612344e-05
6.087806e-05
0.0001133411
0.0001415936
0.0001070121
-0.0002738635
-0.000151797
-3.438613e-05
5.128453e-05
0.0001171994
0.0001606945
0.0001787708
-0.0002403693
-0.0001472184
-4.617448e-05
3.654048e-05
0.0001029559
0.0001521779
0.000189643
-0.0002100928
-0.0001407543
-5.353284e-05
2.13231e-05
8.210721e-05
0.0001333875
0.0001643355
-0.000182169
-0.0001306273
-5.572732e-05
1.04033e-05
6.553594e-05
0.0001077675
0.0001318427
-0.0001572887
-0.0001202416
-5.821261e-05
-3.766448e-06
4.628165e-05
8.318857e-05
0.0001028139
-0.0001348329
-0.0001097581
-5.578492e-05
-7.841849e-06
3.184265e-05
6.224147e-05
7.815076e-05
-0.0001145483
-9.762848e-05
-5.446873e-05
-1.561488e-05
1.899222e-05
4.454172e-05
5.753182e-05
-9.736294e-05
-8.978126e-05
-5.281027e-05
-1.910559e-05
9.19315e-06
2.982424e-05
3.984589e-05
-8.120085e-05
-7.949977e-05
-4.900862e-05
-2.193614e-05
1.159654e-06
1.754482e-05
2.459231e-05
-6.800324e-05
-7.211126e-05
-4.620885e-05
-2.376037e-05
-5.234041e-06
7.715315e-06
1.196181e-05
-5.598109e-05
-6.438986e-05
-4.298514e-05
-2.472227e-05
-1.006931e-05
4.027712e-07
4.426857e-06
-4.556283e-05
-5.770191e-05
-3.971427e-05
-2.516862e-05
-1.364109e-05
-5.658269e-06
-3.830442e-06
-3.630259e-05
-5.151715e-05
-3.645584e-05
-2.503222e-05
-1.600331e-05
-1.002667e-05
-9.065375e-06
-2.811517e-05
-4.587413e-05
-3.327944e-05
-2.43162e-05
-1.731377e-05
-1.331398e-05
-1.312816e-05
-2.068295e-05
-4.060425e-05
-3.023837e-05
-2.315245e-05
-1.792822e-05
-1.525653e-05
-1.5368e-05
-1.395048e-05
-3.574349e-05
-2.709729e-05
-2.188309e-05
-1.824259e-05
-1.770873e-05
-1.819526e-05
-7.769444e-06
-3.125793e-05
-2.398723e-05
-2.029433e-05
-1.817396e-05
-1.859158e-05
-1.971169e-05
-2.264006e-06
-2.701034e-05
-2.10152e-05
-1.870187e-05
-1.812031e-05
-1.933566e-05
-2.131855e-05
2.911949e-06
-2.305196e-05
-1.838586e-05
-1.718604e-05
-1.753146e-05
-1.952255e-05
-2.283493e-05
7.696978e-06
-1.935573e-05
-1.578039e-05
-1.581732e-05
-1.781411e-05
-2.057323e-05
-2.410924e-05
1.216564e-05
-1.598157e-05
-1.330114e-05
-1.429825e-05
-1.709198e-05
-2.059511e-05
-2.49258e-05
1.629778e-05
-1.272402e-05
-1.083864e-05
-1.283649e-05
-1.645093e-05
-2.063801e-05
-2.569162e-05
2.033371e-05
-9.534271e-06
-8.397179e-06
-1.132983e-05
-1.561679e-05
-2.057629e-05
-2.63322e-05
2.425595e-05
-6.362053e-06
-5.969266e-06
-9.583516e-06
-1.45489e-05
-2.054179e-05
-2.683104e-05
2.819707e-05
-3.135247e-06
-3.50731e-06
-8.291111e-06
-1.402366e-05
-2.046728e-05
-2.720952e-05
3.242601e-05
4.12087e-07
-7.300886e-07
-6.279578e-06
-1.281764e-05
-2.017716e-05
-2.759297e-05
3.711528e-05
4.368004e-06
2.261047e-06
-4.299002e-06
-1.180638e-05
-1.996315e-05
-2.801732e-05
4.252685e-05
8.824364e-06
5.593886e-06
-2.238007e-06
-1.083414e-05
-1.987872e-05
-2.863807e-05
4.903327e-05
1.396099e-05
9.260772e-06
-1.278089e-07
-1.001721e-05
-2.011595e-05
-2.953349e-05
5.716217e-05
2.019567e-05
1.328347e-05
1.827566e-06
-9.645131e-06
-2.091668e-05
-3.106562e-05
6.774665e-05
2.780789e-05
1.753376e-05
3.333207e-06
-1.017319e-05
-2.279309e-05
-3.368234e-05
8.218251e-05
3.691099e-05
2.128127e-05
3.562229e-06
-1.248837e-05
-2.646897e-05
-3.720997e-05
0.0001024242
4.712531e-05
2.294874e-05
6.263403e-07
-1.797963e-05
-3.181623e-05
-4.268781e-05
0.0001302444
5.554889e-05
1.997351e-05
-7.496854e-06
-2.658618e-05
-4.068958e-05
-5.042246e-05
0.0001592856
5.384941e-05
5.403659e-06
-2.278785e-05
-4.185007e-05
-5.338496e-05
-6.004642e-05
0.0001426423
2.032776e-05
-2.500375e-05
-5.14297e-05
-6.440906e-05
-6.946941e-05
-7.135752e-05
-0.0001736709
-5.938529e-05
-8.113341e-05
-9.439387e-05
-9.265526e-05
-8.767224e-05
-8.306893e-05
-0.001612879
-0.0006438653
-0.0001494462
-0.0001514344
-0.0001269103
-0.0001067404
-9.388446e-05
-8.525512e-05
-7.121132e-05
-5.380139e-05
-3.683862e-05
-1.416878e-05
1.053483e-06
-0.0001758235
-8.330634e-05
-6.963439e-05
-5.239419e-05
-3.759732e-05
-1.476951e-05
-6.364627e-07
-8.220575e-05
-7.7866e-05
-6.634926e-05
-4.878306e-05
-3.10671e-05
-1.60441e-05
-2.111704e-06
-8.762335e-05
-7.073258e-05
-6.241936e-05
-4.868261e-05
-3.187603e-05
-1.601919e-05
-3.621875e-06
-9.60698e-05
-6.315982e-05
-5.780299e-05
-4.586332e-05
-2.971767e-05
-1.558695e-05
-5.451553e-06
-0.0001073055
-5.610406e-05
-5.300463e-05
-4.267146e-05
-2.732502e-05
-1.597739e-05
-7.81142e-06
-0.000121812
-4.984909e-05
-4.869453e-05
-3.991184e-05
-2.559166e-05
-1.59506e-05
-1.045866e-05
-0.000139187
-4.503459e-05
-4.499119e-05
-3.761092e-05
-2.397067e-05
-1.607408e-05
-1.325493e-05
-0.0001590655
-4.165898e-05
-4.218598e-05
-3.551764e-05
-2.298949e-05
-1.642825e-05
-1.605688e-05
-0.0001812007
-3.888166e-05
-4.004303e-05
-3.406596e-05
-2.228796e-05
-1.703641e-05
-1.894269e-05
-0.0002054552
-3.692795e-05
-3.821074e-05
-3.300846e-05
-2.160663e-05
-1.775402e-05
-2.18162e-05
-0.0002318221
-3.556384e-05
-3.690564e-05
-3.202946e-05
-2.147182e-05
-1.850742e-05
-2.465702e-05
-0.0002604486
-3.457585e-05
-3.583914e-05
-3.125671e-05
-2.147039e-05
-1.927715e-05
-2.728399e-05
-0.0002915631
-3.369085e-05
-3.488668e-05
-3.06392e-05
-2.140096e-05
-1.998102e-05
-3.032696e-05
-0.0003248629
-3.278239e-05
-3.394512e-05
-3.002056e-05
-2.122778e-05
-2.056243e-05
-3.306113e-05
-0.0003773164
-3.182819e-05
-3.29359e-05
-2.937991e-05
-2.088555e-05
-2.098947e-05
-3.556614e-05
-0.0004216397
-3.082134e-05
-3.186959e-05
-2.865034e-05
-2.057026e-05
-2.234867e-05
-3.834749e-05
-0.0004700788
-2.97293e-05
-3.070036e-05
-2.779453e-05
-1.976161e-05
-2.301344e-05
-4.153424e-05
-0.0005395017
-2.848738e-05
-2.932139e-05
-2.672339e-05
-1.896489e-05
-2.24748e-05
-4.440467e-05
-0.0006196192
-2.711782e-05
-2.776641e-05
-2.555006e-05
-1.767611e-05
-2.203483e-05
-4.649305e-05
-0.0006290271
-2.565832e-05
-2.617899e-05
-2.447874e-05
-1.623862e-05
-2.114859e-05
-4.81236e-05
-0.0006589774
-2.40578e-05
-2.466193e-05
-2.381286e-05
-1.507665e-05
-2.005421e-05
-4.963693e-05
-0.0007008659
-2.227069e-05
-2.296325e-05
-2.295235e-05
-1.68064e-05
-1.970786e-05
-5.169084e-05
-0.0007479971
-1.993008e-05
-2.049199e-05
-1.894838e-05
-1.94705e-05
-1.818041e-05
-5.424596e-05
-0.0007997754
-1.747612e-05
-1.95121e-05
-2.160077e-05
-1.384093e-05
-2.082231e-05
-5.727368e-05
-0.0008537312
-1.398142e-05
-1.695474e-05
-2.156993e-05
-1.523655e-05
-2.025145e-05
-6.099704e-05
-0.0009115263
-8.763978e-06
-1.164111e-05
-1.816453e-05
-1.354028e-05
-2.212154e-05
-6.640685e-05
-0.0009708395
-1.440252e-06
-1.093619e-06
-9.622482e-06
-9.930216e-06
-2.411835e-05
-6.801619e-05
-0.001028801
-1.748597e-06
1.409473e-05
9.405183e-06
-6.817533e-06
-2.525574e-05
-7.14923e-05
-0.001082546
7.917906e-06
1.323732e-05
1.305883e-05
5.222614e-07
-2.47322e-05
-7.438253e-05
-0.00113239
2.463422e-05
2.741841e-05
2.639717e-05
8.188591e-06
-2.221624e-05
-6.049836e-05
-0.00117505
3.999336e-05
4.86169e-05
4.140401e-05
1.776904e-05
-1.673562e-05
-6.162842e-05
-0.001218035
5.741868e-05
7.399439e-05
5.897718e-05
2.785678e-05
-7.862657e-06
-5.145128e-05
-0.001234003
7.721943e-05
9.865639e-05
6.830066e-05
3.633956e-05
-3.167615e-06
-5.659006e-05
-0.001035345
0.000101617
0.0001205445
7.863637e-05
3.825293e-05
-2.133698e-05
-4.807763e-05
-0.0009688643
0.0001305749
0.0001512971
9.917845e-05
-5.607979e-07
-8.866017e-05
7.63361e-05
0.004186997
0.0001453685
0.0001845123
7.151806e-05
-0.0001651655
-0.0003640519
0.0004833179
0.005399992
9.760397e-05
0.0001594954
-2.812103e-05
-0.0005985844
-0.001637345
0.001474403
0.02614589
-7.640059e-05
-1.866756e-06
-0.000502152
-0.002593114
-0.00581504
-0.0009625611
0.02900661
-0.0004743327
-0.0005121783
-0.002195625
-0.008244415
-0.008923045
-0.002428328
0.01021057
-0.0009354266
-0.001146456
-0.006740795
-0.01589328
-0.01370593
0.007437691
0.0123287
-0.001712901
-0.003251116
-0.01441967
-0.02505452
-0.02445273
-0.001987171
0.02839296
-0.004157586
-0.008106407
-0.0223667
-0.03463445
-0.03641822
-0.01624558
0.02825987
-0.008865231
-0.01367157
-0.03288023
-0.04663972
-0.04314592
-0.03043717
-0.00222894
-0.0128679
-0.01851488
-0.04066491
-0.05590442
-0.04202432
-0.04035399
-0.01995085
-0.01818172
-0.02598439
-0.05286328
-0.05368323
-0.04719347
-0.03445354
-0.02305877
-0.02240182
-0.03024312
-0.05497244
-0.062825
-0.0464189
-0.03427599
0.01961552
-0.0258104
-0.03371238
-0.06026391
-0.06853307
-0.05845951
-0.03913932
0.07496251
-0.0302252
-0.0354398
-0.06378606
-0.07877148
-0.05917944
-0.0553807
0.00105136
-0.03831989
-0.0437619
-0.06827076
-0.07309184
-0.05377132
-0.05448785
-0.04179982
-0.05122495
-0.0510082
-0.05463941
-0.05666602
-0.04232546
-0.08009159
-0.005997229
-0.06575591
-0.07052125
-0.03795193
-0.0384147
-0.02470046
-0.01537947
-0.02388404
-0.07121606
-0.07824609
-0.03542353
-0.04070522
-0.03269416
-0.03637296
-0.02912913
-0.06961295
-0.08210927
-0.05379457
-0.06551179
-0.06633512
-0.06892046
-0.03696101
-0.06573306
-0.08051545
-0.06858691
-0.08725821
-0.08841417
-0.04959978
-0.2337939
-0.06301795
-0.07431583
-0.07373035
-0.0948527
-0.09726436
-0.08961282
-0.06296411
-0.07233425
-0.07399708
-0.09503138
-0.1024997
-0.09746309
-0.0653652
-0.077779
-0.0747226
-0.09493828
-0.09240289
-0.06849359
-0.06940361
-0.08480133
-0.06623526
-0.08009804
-0.07817336
-0.06967278
-0.09594741
-0.0717546
-0.08845415
-0.04637709
-0.05511064
-0.05952849
-0.0633323
-0.02132057
-0.06663048
-0.08928448
-0.03762333
-0.03363991
-0.01551627
-0.00803491
-0.049436
-0.05156312
-0.07935749
-0.04609464
-0.04617717
-0.03432151
-0.05248171
0.0002413968
-0.03739331
-0.06208791
-0.06723581
-0.07151706
-0.04546881
-0.06336694
-0.0461674
-0.02724765
-0.04287169
-0.07347058
-0.08257325
-0.06045145
-0.05954732
-0.02883386
-0.02123221
-0.03540494
-0.06926173
-0.07718737
-0.06358066
-0.04693521
0.03496074
-0.01719758
-0.03167595
-0.06039233
-0.07129322
-0.05333028
-0.04072711
0.07907868
-0.01264517
-0.02617862
-0.05595734
-0.0641996
-0.05052262
-0.03824482
-0.0207463
-0.00795194
-0.01882115
-0.04562663
-0.06135979
-0.0511784
-0.04253987
-0.021029
-0.004256149
-0.01312484
-0.03436395
-0.05569161
-0.04936311
-0.04324331
0.002215854
-0.001692679
-0.007544702
-0.02381381
-0.04174881
-0.04571025
-0.0330125
0.02286032
-0.0006253111
-0.003265697
-0.01545562
-0.02901439
-0.03385297
-0.01901614
0.01804484
-0.0005187348
-0.001251685
-0.008632328
-0.0190682
-0.0200941
-0.001939681
-0.003445248
-0.0003192456
-0.0007171288
-0.003458313
-0.01158077
-0.01153051
-0.0003397737
-0.01020175
-6.155539e-07
-0.0002283308
-0.001118376
-0.005041032
-0.00831289
-0.005964686
0.005103727
0.0001465107
4.811655e-05
-0.0001717228
-0.001343018
-0.003665646
0.0005174936
0.03371993
0.0001845053
0.0001380272
6.339952e-05
-0.0003736123
-0.000872364
0.001785723
0.02559599
0.0001648516
0.000135812
0.0001132844
-7.516917e-05
-0.0001908701
0.0004663282
0.003118446
0.0001287015
0.0001077279
0.0001099363
3.279486e-05
-4.179154e-05
4.756398e-05
-0.0007667771
9.894009e-05
8.17867e-05
8.810804e-05
5.175241e-05
-1.114657e-06
-4.527386e-05
-0.0009404824
7.423738e-05
6.243859e-05
8.231761e-05
4.328945e-05
5.898968e-06
-3.671948e-05
-0.000893921
5.297118e-05
4.111703e-05
6.073351e-05
3.091831e-05
-6.095904e-06
-5.044344e-05
-0.001211443
3.458597e-05
1.951953e-05
4.188576e-05
1.881534e-05
-1.518124e-05
-6.876001e-05
-0.001187514
1.555958e-05
8.332978e-06
2.548206e-05
8.517835e-06
-2.053544e-05
-7.386736e-05
-0.001151281
4.096156e-06
-5.611758e-06
1.164835e-05
8.924988e-07
-2.273258e-05
-7.13494e-05
-0.001105702
3.313283e-06
3.219862e-06
-6.035398e-06
-1.89899e-05
-2.298028e-05
-6.915265e-05
-0.001056581
-4.32794e-06
-7.578889e-06
-1.438057e-05
-2.149388e-05
-2.112411e-05
-6.68166e-05
-0.0010051
-1.00192e-05
-1.305328e-05
-1.738173e-05
-2.177275e-05
-1.910762e-05
-6.289045e-05
-0.0009474159
-1.409997e-05
-1.624508e-05
-1.87079e-05
-2.107189e-05
-1.811358e-05
-5.958902e-05
-0.0008928367
-1.732344e-05
-1.868061e-05
-1.965172e-05
-2.091929e-05
-1.877981e-05
-5.684681e-05
-0.0008381206
-1.997786e-05
-2.077834e-05
-2.073982e-05
-2.15648e-05
-1.891658e-05
-5.534879e-05
-0.0007886118
-2.204787e-05
-2.281085e-05
-2.210659e-05
-2.231147e-05
-2.10116e-05
-5.349315e-05
-0.0007404513
-2.406964e-05
-2.484104e-05
-2.3488e-05
-2.325878e-05
-2.180281e-05
-5.162351e-05
-0.0006945469
-2.595283e-05
-2.672019e-05
-2.4938e-05
-2.409698e-05
-2.251762e-05
-4.969757e-05
-0.0006509332
-2.75557e-05
-2.844661e-05
-2.619688e-05
-2.499604e-05
-2.297818e-05
-4.767243e-05
-0.0006091621
-2.894031e-05
-2.996343e-05
-2.720648e-05
-2.588832e-05
-2.311999e-05
-4.536338e-05
-0.0005667919
-3.019134e-05
-3.124926e-05
-2.815066e-05
-2.604285e-05
-2.110088e-05
-4.263696e-05
-0.000537219
-3.123411e-05
-3.233563e-05
-2.883836e-05
-2.637647e-05
-2.189261e-05
-3.904643e-05
-0.0004714021
-3.20881e-05
-3.323776e-05
-2.938708e-05
-2.680075e-05
-2.139585e-05
-3.650768e-05
-0.0004217176
-3.2857e-05
-3.404975e-05
-2.989961e-05
-2.715718e-05
-2.084344e-05
-3.396215e-05
-0.0003720583
-3.360496e-05
-3.483763e-05
-3.043772e-05
-2.742601e-05
-2.011991e-05
-3.120265e-05
-0.0003320028
-3.43891e-05
-3.566417e-05
-3.092757e-05
-2.789889e-05
-1.934924e-05
-2.815457e-05
-0.0002993483
-3.534829e-05
-3.660429e-05
-3.155219e-05
-2.866838e-05
-1.832666e-05
-2.538584e-05
-0.0002691148
-3.659834e-05
-3.790405e-05
-3.229789e-05
-2.883562e-05
-1.750264e-05
-2.250479e-05
-0.0002411784
-3.84501e-05
-3.934627e-05
-3.330871e-05
-2.959793e-05
-1.665098e-05
-1.954937e-05
-0.0002151431
-4.081046e-05
-4.140539e-05
-3.474874e-05
-3.049739e-05
-1.589796e-05
-1.659788e-05
-0.0001909982
-4.428541e-05
-4.425211e-05
-3.656497e-05
-3.173064e-05
-1.511568e-05
-1.374199e-05
-0.0001687567
-4.916779e-05
-4.767025e-05
-3.878339e-05
-3.299989e-05
-1.495393e-05
-1.081225e-05
-0.0001485649
-5.503705e-05
-5.19052e-05
-4.147988e-05
-3.458424e-05
-1.510845e-05
-8.131366e-06
-0.0001306893
-6.216312e-05
-5.672326e-05
-4.448821e-05
-3.60328e-05
-1.488423e-05
-5.655924e-06
-0.0001156137
-6.982351e-05
-6.170812e-05
-4.753496e-05
-3.725565e-05
-1.477979e-05
-3.508197e-06
-0.0001037115
-7.722983e-05
-6.621438e-05
-5.026873e-05
-3.790846e-05
-1.474219e-05
-1.809145e-06
-9.431493e-05
-8.382011e-05
-7.040126e-05
-5.241987e-05
-3.76994e-05
-1.479096e-05
-6.86066e-07
-0.0001050773
-0.004047506
-4.62633e-07
-9.371534e-13
-7.970839e-19
-4.935252e-25
-1.595439e-31
-3.380252e-38
-5.033601e-45
-7.786847e-52
-1.014309e-58
-1.311484e-65
-1.505075e-72
-1.438539e-79
-4.378629e-87
6.37167e-93
1.905567e-99
5.354128e-106
1.265987e-112
0.002317205
-5.02807e-08
-4.679624e-14
-4.63797e-20
-5.390393e-26
-3.506444e-32
-1.320579e-38
-3.284149e-45
-7.974706e-52
-1.529658e-58
-2.611636e-65
-3.957241e-72
-4.987843e-79
-5.55574e-86
-3.170217e-93
-3.625239e-100
-2.813299e-107
-2.384206e-114
0.002552014
-7.420176e-08
-9.019565e-14
-7.792546e-20
-6.862895e-26
-4.296857e-32
-1.648114e-38
-4.509421e-45
-1.206976e-51
-2.570957e-58
-4.895036e-65
-7.919606e-72
-1.089175e-78
-1.329802e-85
-8.363448e-93
-1.018185e-99
-8.266128e-107
-6.876147e-114
0.002695543
-1.384519e-07
-1.525325e-13
-1.341025e-19
-1.156188e-25
-7.064893e-32
-2.787212e-38
-8.006508e-45
-2.336411e-51
-5.446088e-58
-1.135326e-64
-2.009182e-71
-3.036418e-78
-4.012831e-85
-2.713657e-92
-3.569515e-99
-3.102954e-106
-2.688621e-113
0.002832905
-2.028394e-07
-2.506867e-13
-2.219441e-19
-1.936269e-25
-1.262004e-31
-5.297912e-38
-1.66905e-44
-5.269657e-51
-1.370745e-57
-3.115258e-64
-6.107452e-71
-1.024116e-77
-1.474729e-84
-6.163532e-91
-1.245048e-98
-1.646942e-105
-1.425714e-112
0.003006072
-2.803886e-07
-3.791229e-13
-3.547875e-19
-3.247734e-25
-2.318996e-31
-1.081986e-37
-3.801825e-44
-1.347466e-50
-3.883685e-57
-9.781735e-64
-2.083094e-70
-3.906793e-77
-6.186154e-84
-1.028761e-90
-8.260607e-98
-9.537019e-105
-9.741269e-112
0.003216794
-3.820661e-07
-5.610251e-13
-5.593176e-19
-5.462525e-25
-4.301757e-31
-2.298047e-37
-9.213723e-44
-3.704234e-50
-1.210919e-56
-3.417187e-63
-8.186445e-70
-1.680766e-76
-3.0036e-83
-4.408446e-90
-5.241253e-97
-6.531575e-104
-7.67022e-111
0.003468161
-5.132843e-07
-8.218642e-13
-8.846096e-19
-9.289166e-25
-8.163197e-31
-4.992167e-37
-2.332135e-43
-1.07228e-49
-3.969823e-56
-1.274758e-62
-3.434249e-69
-7.952774e-76
-1.572161e-82
-2.637976e-89
-3.734315e-96
-6.11289e-103
-1.058107e-109
0.003763817
-6.777748e-07
-1.198382e-12
-1.406701e-18
-1.60225e-24
-1.572659e-30
-1.126889e-36
-6.139293e-43
-3.249153e-49
-1.390689e-55
-5.046436e-62
-1.541351e-68
-3.993526e-75
-8.985928e-82
-1.70247e-88
-2.539886e-95
-4.012946e-102
-5.84331e-109
0.004097723
-8.527949e-07
-1.720309e-12
-2.244376e-18
-2.815798e-24
-3.112598e-30
-2.609155e-36
-1.667977e-42
-1.01294e-48
-5.026976e-55
-2.08512e-61
-7.264825e-68
-2.124137e-74
-5.47688e-81
-1.16535e-87
-1.907094e-94
-3.346129e-101
-5.344224e-108
0.004468837
-1.045705e-06
-2.357567e-12
-3.602229e-18
-5.043186e-24
-6.365306e-30
-6.328017e-36
-4.741231e-42
-3.333923e-48
-1.915441e-54
-9.104828e-61
-3.592785e-67
-1.194202e-73
-3.455946e-80
-8.35828e-87
-1.50434e-93
-3.038833e-100
-5.469159e-107
0.004895632
-1.287415e-06
-3.321478e-12
-5.85247e-18
-9.500391e-24
-1.396009e-29
-1.618254e-35
-1.415728e-41
-1.155879e-47
-7.592676e-54
-4.160463e-60
-1.863407e-66
-7.015079e-73
-2.28974e-79
-6.224629e-86
-1.270436e-92
-2.814775e-99
-5.698937e-106
0.005373196
-1.650882e-06
-5.030875e-12
-1.03998e-17
-1.958321e-23
-3.371392e-29
-4.524715e-35
-4.597099e-41
-4.323454e-47
-3.253995e-53
-2.022709e-59
-1.020935e-65
-4.328671e-72
-1.586694e-78
-4.788071e-85
-1.114128e-91
-2.801685e-98
-6.340441e-105
0.005977744
-2.582211e-06
-1.002104e-11
-2.506176e-17
-5.227041e-23
-1.005103e-28
-1.503253e-34
-1.712313e-40
-1.808898e-46
-1.546475e-52
-1.071811e-58
-6.146618e-65
-2.935347e-71
-1.200895e-77
-4.081452e-84
-1.042941e-90
-2.953617e-97
-7.540986e-104
0.006303346
-4.392287e-06
-2.07854e-11
-6.963771e-17
-1.974943e-22
-4.551912e-28
-7.814136e-34
-1.017427e-39
-1.192546e-45
-1.179194e-51
-9.591873e-58
-6.362807e-64
-3.52798e-70
-1.679926e-76
-6.803723e-83
-2.069926e-89
-6.482476e-96
-1.894013e-102
0.006608452
-8.344925e-06
-4.921357e-12
-1.134779e-17
-4.782603e-23
-1.765914e-28
-4.546857e-34
-8.194699e-40
-1.290263e-45
-1.621461e-51
-1.617663e-57
-1.287162e-63
-8.468539e-70
-4.844691e-76
-2.338483e-82
-8.776186e-89
-3.549233e-95
-1.297669e-101
0.004644504
-5.544738e-06
-6.76527e-11
-3.362239e-17
-6.456585e-23
-1.934077e-28
-5.907024e-34
-1.456286e-39
-3.167984e-45
-5.376287e-51
-7.128949e-57
-7.615687e-63
-6.824167e-69
-5.302997e-75
-3.467302e-81
-1.728025e-87
-8.659175e-94
-3.930369e-100
-0.002887459
-6.180106e-06
-4.93122e-11
-4.501328e-16
-2.186924e-22
-4.398907e-28
-1.042684e-33
-2.395571e-39
-5.193715e-45
-9.317335e-51
-1.317425e-56
-1.482633e-62
-1.367922e-68
-1.080185e-74
-6.138386e-81
-3.485751e-87
-1.860422e-93
-7.166134e-100
-0.0336947
-1.100587e-05
-7.063268e-11
-2.951595e-16
-2.737718e-21
-1.352134e-27
-2.557001e-33
-6.441355e-39
-1.731201e-44
-3.646763e-50
-5.905139e-56
-7.503845e-62
-7.908032e-68
-6.562869e-74
-3.829554e-80
-2.753095e-86
-1.356315e-92
-5.433924e-99
-0.02714421
-1.426627e-05
-1.176594e-10
-5.424903e-16
-1.973101e-21
-1.892982e-26
-1.055277e-32
-1.907698e-38
-4.17214e-44
-8.525117e-50
-1.418999e-55
-1.924007e-61
-2.174484e-67
-1.735893e-73
-5.409637e-80
-7.779617e-86
-4.336173e-92
-1.648696e-98
-0.02573361
-1.348063e-05
-1.247993e-10
-7.043152e-16
-3.238665e-21
-1.412444e-26
-1.50834e-31
-9.120563e-38
-1.827945e-43
-3.30097e-49
-5.641524e-55
-8.596884e-61
-9.81784e-67
-8.219063e-73
-3.437527e-79
-7.935568e-86
5.141694e-93
-2.6942e-98
-0.02619678
-1.474701e-05
-1.399993e-10
-9.26839e-16
-5.433188e-21
-2.938201e-26
-1.358716e-31
-1.399484e-36
-9.183584e-43
-2.002889e-48
-3.409805e-54
-4.856149e-60
-4.932821e-66
-4.064674e-72
-5.737723e-80
-2.126486e-84
-7.718068e-91
1.753439e-97
-0.02743425
-1.878952e-05
-1.996136e-10
-1.470794e-15
-9.871299e-21
-6.181117e-26
-3.299467e-31
-1.381135e-36
-1.38106e-41
-1.035217e-47
-2.23408e-53
-3.26769e-59
-3.352861e-65
-2.470994e-71
7.569991e-78
-9.251828e-84
4.341135e-91
7.926685e-96
-0.02921076
-2.398082e-05
-2.911887e-10
-2.344253e-15
-1.739442e-20
-1.259806e-25
-7.776405e-31
-3.774383e-36
-1.62967e-41
-1.58393e-46
-1.117994e-52
-1.897149e-58
-2.181758e-64
-1.52745e-70
1.626851e-76
-1.175406e-83
8.059524e-89
1.778886e-94
-0.0313249
-2.963015e-05
-4.186711e-10
-3.818441e-15
-3.15717e-20
-2.585633e-25
-1.822095e-30
-1.012481e-35
-4.998584e-41
-1.989721e-46
-1.737093e-51
-8.850839e-58
-1.132628e-63
-6.24597e-70
1.912573e-75
9.223775e-82
1.769067e-87
2.493684e-93
-0.03363647
-3.649905e-05
-5.953597e-10
-6.139822e-15
-5.562982e-20
-5.11367e-25
-4.129242e-30
-2.622763e-35
-1.480217e-40
-6.469398e-46
-1.882935e-51
-1.559157e-56
-5.935752e-63
9.819331e-69
1.139613e-111
7.9721e-81
2.773529e-86
1.667436e-92
-0.03619502
-4.445577e-05
-8.414061e-10
-1.001925e-14
-1.032231e-19
-1.073531e-24
-9.802291e-30
-7.069787e-35
-4.542511e-40
-2.155139e-45
-6.910814e-51
-1.522582e-56
-1.143676e-61
7.315816e-69
6.889831e-74
1.708753e-79
3.448333e-85
5.438448e-91
-0.03897481
-5.464609e-05
-1.205815e-09
-1.680777e-14
-2.023759e-19
-2.403325e-24
-2.486444e-29
-2.027845e-34
-1.464341e-39
-7.409334e-45
-2.568412e-50
-5.334945e-56
-2.108323e-62
-1.029378e-66
7.12433e-73
2.2233e-78
5.188278e-84
9.272366e-90
-0.04199351
-6.718106e-05
-1.727366e-09
-2.798888e-14
-3.816342e-19
-5.049263e-24
-5.85004e-29
-5.327738e-34
-4.245748e-39
-2.287045e-44
-8.401149e-50
-1.646436e-55
1.789238e-61
5.434861e-66
-3.471541e-72
2.09392e-77
6.421242e-83
1.343603e-88
-0.04534639
-8.234436e-05
-2.449088e-09
-4.666473e-14
-7.504941e-19
-1.149885e-23
-1.509799e-28
-1.534362e-33
-1.315035e-38
-7.772353e-44
-3.060708e-49
-4.98001e-55
2.645525e-60
3.863439e-65
-1.247623e-70
1.046856e-76
6.739205e-83
3.894242e-88
-0.04907067
-0.0001005859
-3.410574e-09
-7.681303e-14
-5.234765e-19
-1.457323e-23
-2.127102e-28
-2.66654e-33
-2.460074e-38
-1.751285e-43
-7.166666e-49
-4.815436e-55
1.722695e-59
1.757197e-64
6.155166e-70
2.531994e-75
9.057616e-81
3.639098e-86
-0.05309507
-0.0001213441
-4.52063e-09
-9.838787e-14
-1.859896e-18
-3.622469e-23
-6.016519e-28
-8.602092e-33
3.073512e-38
-5.381797e-43
-2.169086e-48
-8.596268e-55
1.004577e-58
8.624664e-64
4.971716e-69
2.565993e-74
1.091658e-79
4.226044e-85
-0.05742256
-0.0001440236
-5.825529e-09
-1.257905e-13
-2.826396e-18
-6.273028e-23
-1.280136e-27
-2.024103e-32
-2.159681e-37
-1.881217e-42
-6.836017e-48
4.30928e-53
1.265734e-57
2.088868e-64
2.854352e-68
2.887544e-74
1.54539e-79
-1.409996e-146
-0.06396391
-0.0001600365
-6.921232e-09
-1.658515e-13
-3.70359e-18
-9.23642e-23
-2.117286e-27
-3.642335e-32
-4.39513e-37
-4.200262e-42