/*--------------------------------*- C++ -*----------------------------------*\
| =========                 |                                                 |
| \\      /  F ield         | OpenFOAM: The Open Source CFD Toolbox           |
|  \\    /   O peration     | Version:  2206                                  |
|   \\  /    A nd           | Website:  www.openfoam.com                      |
|    \\/     M anipulation  |                                                 |
\*---------------------------------------------------------------------------*/
FoamFile
{
    version     2.0;
    format      ascii;
    arch        "LSB;label=32;scalar=64";
    class       volScalarField;
    location    "1";
    object      ddt0(omega.b);
}
// * * * * * * * * * * * * * * * * * * * * * * * * * * * * * * * * * * * * * //

dimensions      [0 0 -2 0 0 0 0];

internalField   nonuniform List<scalar> 
13078
(
-6.076119e-07
-0.5387773
-0.5808999
-0.582837
-0.5842561
-0.5858202
-0.5875946
-9.82163e-08
-0.5352449
-0.5811337
-0.5828406
-0.5842384
-0.5857944
-0.5875618
-7.368062e-08
-0.5375081
-0.5811649
-0.5828438
-0.584227
-0.5857736
-0.5875325
-5.41549e-08
-0.5386976
-0.5812047
-0.5828452
-0.5842167
-0.5857543
-0.5875047
-5.361568e-08
-0.5392462
-0.5812312
-0.5828581
-0.5842054
-0.5857344
-0.5874772
-5.454778e-08
-0.5396297
-0.5812454
-0.5828667
-0.5842106
-0.5857148
-0.587449
-5.514177e-08
-0.5399297
-0.5812434
-0.5828642
-0.5842138
-0.5857152
-0.5874219
-5.444572e-08
-0.5402136
-0.5812356
-0.5828603
-0.5842146
-0.5857158
-0.587419
-5.180326e-08
-0.5405349
-0.5812377
-0.5828587
-0.5842139
-0.5857146
-0.5874169
-4.667921e-08
-0.5408819
-0.5812395
-0.5828562
-0.5842118
-0.5857122
-0.5874136
-3.935985e-08
-0.5412714
-0.5812416
-0.5828531
-0.5842087
-0.5857087
-0.5874091
-2.939933e-08
-0.5417147
-0.5812441
-0.5828497
-0.5842052
-0.5857044
-0.587404
-1.613424e-08
-0.5422234
-0.5812474
-0.582846
-0.5842013
-0.5856998
-0.587398
9.691333e-10
-0.5428073
-0.5812515
-0.5828416
-0.5841962
-0.5856943
-0.5873911
2.255993e-08
-0.5434778
-0.5812562
-0.5828305
-0.5841809
-0.5856873
-0.5873836
4.946499e-08
-0.5442442
-0.5812617
-0.5828168
-0.5841674
-0.58568
-0.5873753
8.287254e-08
-0.5451247
-0.5812694
-0.582811
-0.5841607
-0.5856727
-0.5873664
1.242463e-07
-0.5461314
-0.5812788
-0.5828055
-0.5841541
-0.5856652
-0.5873568
1.755177e-07
-0.5472798
-0.5812897
-0.5827999
-0.5841466
-0.5856558
-0.5873463
2.39136e-07
-0.5485874
-0.5813025
-0.5827932
-0.5841285
-0.5856303
-0.5873335
3.182213e-07
-0.5500723
-0.5813175
-0.5827859
-0.584106
-0.5856078
-0.58732
4.16735e-07
-0.5517578
-0.5813352
-0.5827789
-0.5840957
-0.585596
-0.5873067
5.396442e-07
-0.5536658
-0.5813553
-0.5827713
-0.5840858
-0.5855829
-0.5872909
6.930063e-07
-0.5558183
-0.5813787
-0.5827635
-0.5840745
-0.5855548
-0.5872509
8.841171e-07
-0.5582369
-0.5814057
-0.5827551
-0.5840622
-0.5855203
-0.587215
1.121493e-06
-0.5609428
-0.5814362
-0.582746
-0.5840498
-0.5855032
-0.5871945
1.414524e-06
-0.5639477
-0.5814707
-0.5827364
-0.584037
-0.5854867
-0.587172
1.772325e-06
-0.5670792
-0.5815089
-0.5827264
-0.5840236
-0.5854687
-0.5871286
2.206875e-06
-0.5707172
-0.5815522
-0.5827159
-0.5840095
-0.585449
-0.5870781
2.711535e-06
-0.5715659
-0.58159
-0.5827046
-0.5839943
-0.5854294
-0.5870496
3.372442e-06
-0.578807
-0.5816471
-0.5826922
-0.5839783
-0.5854087
-0.5870221
4.053582e-06
-0.5826906
-0.5816644
-0.5826766
-0.5839614
-0.5853864
-0.5869904
4.772984e-06
-0.5870796
-0.5817348
-0.5826509
-0.5839428
-0.5853628
-0.5869577
5.458019e-06
-0.5916365
-0.5817787
-0.5826224
-0.5839208
-0.5853384
-0.5869239
5.985024e-06
-0.5959911
-0.5818336
-0.582596
-0.5838742
-0.5853104
-0.5868907
6.172567e-06
-0.5997114
-0.58188
-0.5825552
-0.583818
-0.5852452
-0.5868582
5.774162e-06
-0.6025648
-0.581917
-0.5825425
-0.5837777
-0.5851702
-0.5868181
4.456629e-06
-0.6041155
-0.5819356
-0.5825276
-0.5837539
-0.5850972
-0.5866948
1.803909e-06
-0.6025989
-0.5819234
-0.5825081
-0.5837236
-0.5850625
-0.5865642
-2.780178e-06
-0.5910984
-0.5818359
-0.5824736
-0.5836807
-0.5850069
-0.5863295
-9.731206e-06
-0.5957752
-0.5816578
-0.5824051
-0.5836112
-0.5849172
-0.5861858
-1.924298e-05
-0.5898359
-0.5816011
-0.582384
-0.5835326
-0.584475
-0.5845898
-3.130932e-05
-0.5796394
-0.5813109
-0.5822987
-0.5831173
-0.5828046
-0.5816596
-4.607165e-05
-0.5650931
-0.5811062
-0.5818866
-0.5814382
-0.5800429
-0.5789516
-6.256746e-05
-0.5399685
-0.580692
-0.5804312
-0.5789692
-0.5773123
-0.5756394
-7.882672e-05
-0.532185
-0.5793529
-0.5780462
-0.5763991
-0.5747989
-0.572643
-9.064384e-05
-0.5130528
-0.5771894
-0.5758573
-0.5736946
-0.5719246
-0.5704932
0.0001412209
-0.4893367
-0.5744998
-0.5735891
-0.5713
-0.5692199
-0.5665857
0.002998622
-0.4605449
-0.5719257
-0.5712166
-0.5690858
-0.5670158
-0.5648715
0.009918391
-0.4266815
-0.5695378
-0.5691965
-0.5667982
-0.5649158
-0.5638595
0.02182527
-0.3726542
-0.5675505
-0.5675231
-0.5650846
-0.5631337
-0.5596341
0.03815792
-0.3359741
-0.5655409
-0.5660088
-0.5635592
-0.561325
-0.5555367
0.0528421
-0.294897
-0.5631432
-0.564816
-0.5621317
-0.5577683
-0.5534893
0.06332723
-0.2603532
-0.5618298
-0.5638114
-0.5602747
-0.555687
-0.5530727
0.07101797
-0.2321049
-0.560732
-0.563058
-0.5594467
-0.5550469
-0.5524016
0.07766807
-0.2131124
-0.5600872
-0.5627499
-0.5598851
-0.556385
-0.5533213
0.07754095
-0.2127793
-0.5601839
-0.5629105
-0.5601825
-0.5569296
-0.5537486
0.07085986
-0.2312183
-0.56085
-0.5633017
-0.559864
-0.5554145
-0.5527256
0.06316618
-0.2593069
-0.5619544
-0.5640873
-0.5607502
-0.5561398
-0.553572
0.05256996
-0.2941453
-0.5633818
-0.5652455
-0.5627539
-0.55846
-0.5542533
0.03782246
-0.3360495
-0.5659313
-0.5666385
-0.5643183
-0.5621041
-0.5563274
0.0214907
-0.37369
-0.5678781
-0.5680045
-0.5658052
-0.5639976
-0.5605825
0.009736243
-0.4287652
-0.5699026
-0.569753
-0.5676571
-0.5660492
-0.5651231
0.002888619
-0.4634
-0.5723135
-0.5718049
-0.5700122
-0.5683685
-0.5663292
0.0001369677
-0.4926488
-0.5748635
-0.5741644
-0.5721674
-0.5705092
-0.5680227
-8.678988e-05
-0.5164779
-0.5774697
-0.5763152
-0.5744484
-0.5731689
-0.5720096
-7.780759e-05
-0.5351655
-0.5795102
-0.578386
-0.5770666
-0.5759871
-0.5741345
-6.409665e-05
-0.5423382
-0.580775
-0.5806324
-0.5794844
-0.5783018
-0.5769453
-4.950787e-05
-0.5666323
-0.5811625
-0.5819619
-0.5817242
-0.5806515
-0.5800488
-3.557516e-05
-0.5804411
-0.5813526
-0.5823237
-0.5831794
-0.5831215
-0.5824657
-2.383945e-05
-0.5900255
-0.5816098
-0.5823853
-0.5835366
-0.584571
-0.5848344
-1.442316e-05
-0.595752
-0.5816915
-0.5824038
-0.5836341
-0.5849562
-0.5862746
-7.192649e-06
-0.5934437
-0.5818396
-0.5824923
-0.5837081
-0.5850337
-0.5864322
-2.127997e-06
-0.6016454
-0.5819111
-0.5825268
-0.5837412
-0.5850878
-0.5866214
1.095729e-06
-0.6029933
-0.5819264
-0.5825422
-0.5837647
-0.5851242
-0.5867269
2.975172e-06
-0.6012132
-0.5818918
-0.5825523
-0.5838061
-0.5852066
-0.5868389
3.884665e-06
-0.5985875
-0.5818704
-0.5825668
-0.5838401
-0.5852837
-0.5868718
4.121792e-06
-0.5936545
-0.5818234
-0.5826055
-0.5838895
-0.5853223
-0.5869006
3.980713e-06
-0.590821
-0.5817732
-0.58263
-0.5839281
-0.5853463
-0.586932
3.611698e-06
-0.5864299
-0.5817314
-0.5826565
-0.5839483
-0.5853688
-0.5869639
3.142721e-06
-0.5822657
-0.5816624
-0.5826803
-0.5839657
-0.585391
-0.5869948
2.655673e-06
-0.5784873
-0.5816453
-0.5826953
-0.5839816
-0.5854122
-0.5870254
2.147036e-06
-0.5713333
-0.5815889
-0.5827071
-0.583997
-0.5854322
-0.5870522
1.758068e-06
-0.5705404
-0.5815516
-0.5827179
-0.5840116
-0.5854511
-0.58708
1.411225e-06
-0.5669477
-0.5815087
-0.582728
-0.5840252
-0.5854703
-0.5871304
1.122138e-06
-0.5638507
-0.5814707
-0.5827378
-0.5840383
-0.5854881
-0.5871736
8.831464e-07
-0.5608718
-0.5814363
-0.582747
-0.5840509
-0.5855046
-0.5871958
6.885372e-07
-0.5581849
-0.5814061
-0.5827559
-0.5840631
-0.5855213
-0.5872161
5.314113e-07
-0.5557801
-0.581379
-0.5827643
-0.5840754
-0.5855556
-0.5872518
4.052073e-07
-0.5536376
-0.5813558
-0.5827721
-0.5840866
-0.5855836
-0.5872916
3.041336e-07
-0.5517369
-0.5813357
-0.5827796
-0.5840965
-0.5855966
-0.5873073
2.232663e-07
-0.550057
-0.581318
-0.5827865
-0.5841066
-0.5856083
-0.5873206
1.585277e-07
-0.5485764
-0.5813028
-0.5827936
-0.5841288
-0.5856308
-0.5873341
1.066206e-07
-0.5472725
-0.58129
-0.5828001
-0.5841468
-0.5856562
-0.5873467
6.492626e-08
-0.5461276
-0.581279
-0.5828056
-0.5841544
-0.5856655
-0.5873572
3.140603e-08
-0.5451243
-0.5812696
-0.5828111
-0.584161
-0.5856732
-0.5873669
4.430873e-09
-0.5442473
-0.5812618
-0.5828168
-0.5841676
-0.5856805
-0.5873759
-1.720403e-08
-0.5434843
-0.5812564
-0.5828305
-0.584181
-0.5856876
-0.5873842
-3.449797e-08
-0.5428178
-0.5812516
-0.5828415
-0.5841964
-0.5856946
-0.5873917
-4.814878e-08
-0.5422386
-0.5812474
-0.582846
-0.5842017
-0.5857004
-0.5873988
-5.868916e-08
-0.5417362
-0.5812441
-0.5828498
-0.5842058
-0.5857054
-0.5874051
-6.65292e-08
-0.5413014
-0.5812417
-0.5828533
-0.5842095
-0.58571
-0.5874107
-7.193013e-08
-0.5409238
-0.5812398
-0.5828564
-0.5842128
-0.5857138
-0.5874157
-7.509906e-08
-0.5405937
-0.5812383
-0.5828592
-0.5842155
-0.5857169
-0.5874196
-7.659959e-08
-0.5402982
-0.5812371
-0.5828618
-0.5842172
-0.585719
-0.5874226
-7.654186e-08
-0.540054
-0.5812469
-0.5828675
-0.5842181
-0.5857198
-0.5874265
-7.498725e-08
-0.5398121
-0.5812526
-0.5828728
-0.5842174
-0.5857213
-0.5874549
-7.288673e-08
-0.539537
-0.5812458
-0.5828691
-0.5842155
-0.5857431
-0.5874843
-7.186316e-08
-0.5392043
-0.581232
-0.5828627
-0.5842305
-0.5857649
-0.5875126
-7.6144e-08
-0.5386625
-0.5812105
-0.5828685
-0.5842438
-0.5857849
-0.5875401
-1.050534e-07
-0.5379187
-0.581211
-0.5828696
-0.584255
-0.5858041
-0.5875677
-1.275317e-07
-0.5378296
-0.5812093
-0.5828705
-0.5842665
-0.5858242
-0.5875965
-0.5896711
-0.5922806
-0.5957711
-0.599094
-0.6049935
-0.6142192
-0.6352532
-0.5896304
-0.5922265
-0.5956997
-0.5990039
-0.6048864
-0.6140743
-0.6274289
-0.589592
-0.5921745
-0.5956285
-0.6001615
-0.6047804
-0.6139254
-0.6269319
-0.5895551
-0.5921232
-0.595559
-0.5988322
-0.6046733
-0.6137765
-0.6264268
-0.5895197
-0.5920725
-0.5954892
-0.5987437
-0.6045673
-0.6136273
-0.6260147
-0.5894839
-0.5920218
-0.5954199
-0.598658
-0.6044613
-0.6134774
-0.6255793
-0.5894476
-0.5919707
-0.5953502
-0.5985738
-0.6044307
-0.6133268
-0.6251204
-0.589413
-0.5919189
-0.59528
-0.59849
-0.6044001
-0.6131764
-0.6246361
-0.5894066
-0.5918697
-0.5952125
-0.598403
-0.6043132
-0.6130396
-0.624124
-0.5894014
-0.5918579
-0.5951479
-0.5983154
-0.6042254
-0.6129014
-0.6235817
-0.5893954
-0.5918484
-0.5951299
-0.5982293
-0.6041363
-0.6127618
-0.6230069
-0.5893883
-0.5918375
-0.5951146
-0.5982072
-0.6040455
-0.6126203
-0.6223991
-0.5893802
-0.5918255
-0.5950977
-0.598186
-0.6040222
-0.6124745
-0.6217511
-0.5893711
-0.5918123
-0.5950794
-0.5981627
-0.6039956
-0.6124292
-0.6210853
-0.5893611
-0.5917978
-0.5950594
-0.5981372
-0.6039664
-0.6123774
-0.6205753
-0.5893502
-0.591782
-0.5950376
-0.5981098
-0.603934
-0.6123213
-0.6201707
-0.5893385
-0.5917648
-0.5950141
-0.5980803
-0.6038937
-0.6122587
-0.6198173
-0.5893258
-0.5917465
-0.5949885
-0.5980402
-0.6036215
-0.6121891
-0.6194105
-0.5893118
-0.5917273
-0.5949612
-0.5980052
-0.6035675
-0.6121136
-0.6204362
-0.5892966
-0.5917065
-0.5949315
-0.5979674
-0.6035164
-0.6120362
-0.6225378
-0.5892804
-0.5916838
-0.5948992
-0.5979271
-0.6034614
-0.6119523
-0.6237888
-0.5892627
-0.591659
-0.5948642
-0.5978835
-0.6034017
-0.6118595
-0.6238773
-0.5892435
-0.591632
-0.5948269
-0.5978334
-0.6033337
-0.6117577
-0.623634
-0.5892206
-0.5916026
-0.5947801
-0.5989032
-0.603061
-0.6116256
-0.6233714
-0.5891962
-0.5915711
-0.5947406
-0.5977264
-0.6028902
-0.6114961
-0.6231266
-0.5891718
-0.5915361
-0.5946875
-0.5976626
-0.6027963
-0.6113597
-0.6228375
-0.5891433
-0.5914981
-0.5946349
-0.5975962
-0.6026938
-0.6112024
-0.6225917
-0.5890804
-0.5914574
-0.594566
-0.5975208
-0.6025715
-0.6106169
-0.6223526
-0.589032
-0.590783
-0.5936603
-0.5974258
-0.602444
-0.6103094
-0.6219904
-0.5889845
-0.5907459
-0.5936092
-0.5973401
-0.602312
-0.6101027
-0.62159
-0.5889091
-0.5906274
-0.593543
-0.5972423
-0.6021668
-0.6096098
-0.6211769
-0.5888447
-0.5905636
-0.5934703
-0.5971348
-0.6020082
-0.6090639
-0.6206863
-0.5887928
-0.5903522
-0.593394
-0.5970146
-0.6018301
-0.608752
-0.6201559
-0.5887474
-0.5902807
-0.5931988
-0.5968788
-0.6016295
-0.6084102
-0.618457
-0.5886978
-0.5901829
-0.5928532
-0.5967346
-0.6014001
-0.6080275
-0.6158688
-0.5886441
-0.5900725
-0.5927449
-0.5965789
-0.6011326
-0.6075418
-0.6118429
-0.5885909
-0.5899412
-0.5926467
-0.5961237
-0.6007833
-0.6069978
-0.6131306
-0.5885329
-0.5897758
-0.5924772
-0.5951798
-0.5992788
-0.6054777
-0.6093311
-0.5884522
-0.5896207
-0.5922319
-0.5951574
-0.59792
-0.6003381
-0.6029294
-0.588222
-0.589222
-0.5909772
-0.5925147
-0.5942722
-0.5949293
-0.6035428
-0.5867814
-0.5881728
-0.5871637
-0.5891922
-0.5873304
-0.5902624
-0.6012189
-0.5841719
-0.5848929
-0.5824207
-0.5851704
-0.5836654
-0.5871367
-0.5915939
-0.5812382
-0.5824045
-0.5787453
-0.5793649
-0.5814794
-0.5856792
-0.5862006
-0.578419
-0.5784312
-0.5752957
-0.5756794
-0.5789197
-0.5843947
-0.589959
-0.5755222
-0.5760163
-0.5729871
-0.5731421
-0.5769957
-0.5819834
-0.5936709
-0.5719645
-0.5718423
-0.5685132
-0.5691869
-0.5747851
-0.5778252
-0.5895904
-0.569867
-0.5691053
-0.5643827
-0.5668942
-0.5695891
-0.5749204
-0.5838405
-0.5672647
-0.5652046
-0.562514
-0.5640252
-0.5674153
-0.5704545
-0.5831069
-0.5634987
-0.5661566
-0.5596413
-0.5611422
-0.5656643
-0.569758
-0.5819163
-0.5593805
-0.5595232
-0.5586488
-0.5586583
-0.5620547
-0.5692743
-0.5817474
-0.5558831
-0.5564672
-0.5507737
-0.5552216
-0.5632569
-0.5714787
-0.5782825
-0.552347
-0.5507365
-0.5461092
-0.5516555
-0.5608709
-0.5694161
-0.5742169
-0.5507127
-0.5481964
-0.54505
-0.5502338
-0.558165
-0.5650833
-0.574508
-0.5501638
-0.5484913
-0.5453004
-0.5507188
-0.557494
-0.5654433
-0.5759393
-0.550503
-0.5498706
-0.5466392
-0.5523171
-0.5577882
-0.5664714
-0.5641427
-0.5514301
-0.5544628
-0.5493544
-0.5528791
-0.5584406
-0.5653814
-0.5516965
-0.5513808
-0.5508764
-0.5565797
-0.5579965
-0.5652299
-0.5509197
-0.5506435
-0.5481748
-0.5530362
-0.5587
-0.5672734
-0.550818
-0.5490744
-0.5464206
-0.5517763
-0.557865
-0.565225
-0.5720687
-0.5515337
-0.5478695
-0.5447016
-0.5509756
-0.5575556
-0.5655002
-0.5756186
-0.5533569
-0.5480718
-0.5464476
-0.5523928
-0.559538
-0.5671513
-0.5764819
-0.5571209
-0.5527052
-0.5515858
-0.5542325
-0.5628176
-0.5721563
-0.5749876
-0.5609503
-0.5567302
-0.5566556
-0.5579298
-0.5636141
-0.5711672
-0.5796537
-0.565838
-0.5634673
-0.5596136
-0.5616874
-0.5661394
-0.5693093
-0.5830539
-0.5694528
-0.5680301
-0.5619443
-0.5643712
-0.5664402
-0.5723824
-0.5827496
-0.570941
-0.5671135
-0.5659985
-0.5653608
-0.5703875
-0.5727527
-0.5816053
-0.5734201
-0.5735856
-0.5682297
-0.5698052
-0.5719053
-0.5787062
-0.5872853
-0.5768571
-0.5738284
-0.5725411
-0.573682
-0.5774002
-0.5804987
-0.5930257
-0.5792322
-0.5774978
-0.5770708
-0.5777314
-0.5808201
-0.5850931
-0.5915629
-0.5822168
-0.5805259
-0.5788449
-0.582316
-0.5824119
-0.5871827
-0.5906457
-0.5849128
-0.5837695
-0.583458
-0.5858409
-0.5851978
-0.5887921
-0.5884958
-0.5871195
-0.5864985
-0.5863402
-0.5887395
-0.5873496
-0.589923
-0.5968965
-0.5882768
-0.5891316
-0.5899196
-0.5920803
-0.590374
-0.5940259
-0.6037143
-0.588493
-0.5894365
-0.5921102
-0.5946324
-0.5977112
-0.5973763
-0.6031011
-0.5885632
-0.5895463
-0.5924433
-0.5953695
-0.5987975
-0.6027038
-0.6049584
-0.5886125
-0.5896541
-0.5925789
-0.5951393
-0.600539
-0.606173
-0.6105196
-0.5886595
-0.5898227
-0.592712
-0.5962642
-0.6009878
-0.607268
-0.6125466
-0.588709
-0.590007
-0.5928718
-0.5966674
-0.601276
-0.607795
-0.6133118
-0.5887554
-0.5901867
-0.5930399
-0.5968111
-0.6015218
-0.6082219
-0.6161338
-0.5887986
-0.5901916
-0.593352
-0.5969527
-0.6017358
-0.6085712
-0.6184771
-0.5888492
-0.5903771
-0.5934388
-0.5970801
-0.601925
-0.6089231
-0.6200789
-0.5889123
-0.5905437
-0.5935105
-0.5971931
-0.6020937
-0.6092254
-0.6207169
-0.588987
-0.5906925
-0.5935794
-0.597295
-0.6022447
-0.6099624
-0.6212891
-0.5890342
-0.5906968
-0.5936412
-0.5973897
-0.6023825
-0.610213
-0.6217195
-0.5890822
-0.5914592
-0.594568
-0.5974781
-0.602511
-0.610417
-0.6221822
-0.5891447
-0.5915
-0.5946369
-0.5975549
-0.6026377
-0.6109689
-0.6225009
-0.5891731
-0.5915377
-0.5946911
-0.5976284
-0.6027494
-0.61129
-0.6227585
-0.5891974
-0.5915723
-0.5947407
-0.5976946
-0.6028468
-0.6114323
-0.6230829
-0.5892217
-0.5916042
-0.5947861
-0.5977549
-0.6029407
-0.6115621
-0.6233728
-0.5892443
-0.5916331
-0.5948273
-0.5978094
-0.6032304
-0.6116971
-0.623579
-0.5892633
-0.5916598
-0.5948652
-0.5978594
-0.603371
-0.6118123
-0.6238007
-0.589281
-0.5916844
-0.5949
-0.5979054
-0.6034337
-0.6119098
-0.6237427
-0.5892972
-0.591707
-0.5949322
-0.5979477
-0.6034915
-0.6119983
-0.6236456
-0.5893124
-0.5917279
-0.594962
-0.5979865
-0.6035442
-0.6120789
-0.6230159
-0.5893263
-0.5917472
-0.5949893
-0.5980223
-0.6035926
-0.612152
-0.6218024
-0.5893391
-0.5917655
-0.595015
-0.5980605
-0.6037422
-0.6122234
-0.6202722
-0.5893508
-0.5917827
-0.5950386
-0.598095
-0.6039183
-0.6122937
-0.6200378
-0.5893618
-0.5917987
-0.5950606
-0.5981236
-0.6039523
-0.6123532
-0.6204418
-0.5893719
-0.5918135
-0.5950808
-0.5981499
-0.6039834
-0.6124071
-0.6208333
-0.5893813
-0.5918269
-0.5950994
-0.5981742
-0.6040115
-0.6124565
-0.6214029
-0.5893897
-0.5918392
-0.5951166
-0.5981965
-0.6040372
-0.6125521
-0.6220677
-0.5893973
-0.5918505
-0.5951322
-0.5982168
-0.6040943
-0.6126946
-0.6226925
-0.5894038
-0.5918604
-0.5951506
-0.5982716
-0.6041839
-0.6128355
-0.6232845
-0.5894095
-0.5918728
-0.5952155
-0.5983597
-0.6042726
-0.6129744
-0.6238426
-0.5894166
-0.5919225
-0.5952836
-0.5984474
-0.6043602
-0.6131123
-0.6243717
-0.5894521
-0.591975
-0.5953541
-0.5985338
-0.6044433
-0.6132554
-0.6248723
-0.5894892
-0.5920266
-0.5954241
-0.5986158
-0.6044146
-0.6134062
-0.6253462
-0.5895256
-0.5920775
-0.5954935
-0.5987021
-0.6045178
-0.6135561
-0.625795
-0.589561
-0.5921278
-0.5955629
-0.5987883
-0.6046234
-0.6137052
-0.6262219
-0.5895973
-0.5921784
-0.5956321
-0.5988746
-0.604729
-0.6138538
-0.6266697
-0.5896342
-0.5922292
-0.5957017
-0.5989611
-0.6048348
-0.6140018
-0.6271987
-0.5896721
-0.5922814
-0.5957717
-0.5990486
-0.6049404
-0.6141483
-0.6279025
-3.034318
-2.409876
-2.444618
-2.444626
-2.444627
-2.444627
-2.444627
-2.444627
-2.444627
-2.444627
-2.444627
-2.444627
-2.444627
-2.444627
-2.444627
-2.444627
-2.444627
-2.444627
-2.514687
-2.437181
-2.444608
-2.44461
-2.44461
-2.44461
-2.44461
-2.44461
-2.44461
-2.44461
-2.44461
-2.44461
-2.44461
-2.44461
-2.44461
-2.44461
-2.44461
-2.44461
-2.52274
-2.43681
-2.444608
-2.444609
-2.444609
-2.444609
-2.444609
-2.444609
-2.444609
-2.444609
-2.444609
-2.444609
-2.444609
-2.444609
-2.444609
-2.444609
-2.444609
-2.444609
-2.531514
-2.436925
-2.444608
-2.444609
-2.444609
-2.444609
-2.444609
-2.444609
-2.444609
-2.444609
-2.444609
-2.444609
-2.444609
-2.444609
-2.444609
-2.444609
-2.444609
-2.444609
-2.542334
-2.436876
-2.444608
-2.444609
-2.444609
-2.444609
-2.444609
-2.444609
-2.444609
-2.444609
-2.444609
-2.444609
-2.444609
-2.444609
-2.444609
-2.444609
-2.444609
-2.444609
-2.555365
-2.436763
-2.444608
-2.444609
-2.444609
-2.444609
-2.444609
-2.444609
-2.444609
-2.444609
-2.444609
-2.444609
-2.444609
-2.444609
-2.444609
-2.444609
-2.444609
-2.444609
-2.57037
-2.436649
-2.444608
-2.444609
-2.444609
-2.444609
-2.444609
-2.444609
-2.444609
-2.444609
-2.444609
-2.444609
-2.444609
-2.444609
-2.444609
-2.444609
-2.444609
-2.444609
-2.5871
-2.436558
-2.444608
-2.444609
-2.444609
-2.444609
-2.444609
-2.444609
-2.444609
-2.444609
-2.444609
-2.444609
-2.444609
-2.444609
-2.444609
-2.444609
-2.444609
-2.444609
-2.605341
-2.436491
-2.444608
-2.444609
-2.444609
-2.444609
-2.444609
-2.444609
-2.444609
-2.444609
-2.444609
-2.444609
-2.444609
-2.444609
-2.444609
-2.444609
-2.444609
-2.444609
-2.62483
-2.436461
-2.444608
-2.444609
-2.444609
-2.444609
-2.444609
-2.444609
-2.444609
-2.444609
-2.444609
-2.444609
-2.444609
-2.444609
-2.444609
-2.444609
-2.444609
-2.444609
-2.645352
-2.436492
-2.444608
-2.444609
-2.444609
-2.444609
-2.444609
-2.444609
-2.444609
-2.444609
-2.444609
-2.444609
-2.444609
-2.444609
-2.444609
-2.444609
-2.444609
-2.444609
-2.667111
-2.436545
-2.444608
-2.444609
-2.444609
-2.444609
-2.444609
-2.444609
-2.444609
-2.444609
-2.444609
-2.444609
-2.444609
-2.444609
-2.444609
-2.444609
-2.444609
-2.444609
-2.690003
-2.436555
-2.444607
-2.444609
-2.444609
-2.444609
-2.444609
-2.444609
-2.444609
-2.444609
-2.444609
-2.444609
-2.444609
-2.444609
-2.444609
-2.444609
-2.444609
-2.444609
-2.721098
-2.436088
-2.444607
-2.444609
-2.444609
-2.444609
-2.444609
-2.444609
-2.444609
-2.444609
-2.444609
-2.444609
-2.444609
-2.444609
-2.444609
-2.444609
-2.444609
-2.444609
-2.740798
-2.43521
-2.444608
-2.444609
-2.444609
-2.444609
-2.444609
-2.444609
-2.444609
-2.444609
-2.444609
-2.444609
-2.444609
-2.444609
-2.444609
-2.444609
-2.444609
-2.444609
-2.751768
-2.427028
-2.444648
-2.44461
-2.444609
-2.444609
-2.444609
-2.444609
-2.444609
-2.444609
-2.444609
-2.444609
-2.444609
-2.444609
-2.444609
-2.444609
-2.444609
-2.444609
-2.773634
-2.431395
-2.444368
-2.444629
-2.444609
-2.444609
-2.444609
-2.444609
-2.444609
-2.444609
-2.444609
-2.444609
-2.444609
-2.444609
-2.444609
-2.444609
-2.444609
-2.444609
-2.830574
-2.42619
-2.44452
-2.444521
-2.44462
-2.444609
-2.444609
-2.444609
-2.444609
-2.444609
-2.444609
-2.444609
-2.444609
-2.444609
-2.444609
-2.444609
-2.444609
-2.444609
-3.19768
-2.431306
-2.444605
-2.444565
-2.444562
-2.444611
-2.444609
-2.444609
-2.444609
-2.444609
-2.444609
-2.444609
-2.444609
-2.444609
-2.444609
-2.444609
-2.444609
-2.444609
-2.977539
-2.434953
-2.444606
-2.444609
-2.444599
-2.444601
-2.44461
-2.444609
-2.444609
-2.444609
-2.444609
-2.444609
-2.444609
-2.444609
-2.444609
-2.444609
-2.444609
-2.444609
-2.832314
-2.436978
-2.444606
-2.444609
-2.444609
-2.444605
-2.444608
-2.444609
-2.444609
-2.444609
-2.444609
-2.444609
-2.444609
-2.444609
-2.444609
-2.444609
-2.444609
-2.444609
-2.765235
-2.438092
-2.444607
-2.444609
-2.444609
-2.444609
-2.444608
-2.444609
-2.444609
-2.444609
-2.444609
-2.444609
-2.444609
-2.444609
-2.444609
-2.444609
-2.444609
-2.444609
-2.717007
-2.437265
-2.444607
-2.444609
-2.444609
-2.444609
-2.444609
-2.444609
-2.444609
-2.444609
-2.444609
-2.444609
-2.444609
-2.444609
-2.444609
-2.444609
-2.444609
-2.444609
-2.673677
-2.436209
-2.444608
-2.444609
-2.444609
-2.444609
-2.444609
-2.444609
-2.444609
-2.444609
-2.444609
-2.444609
-2.444609
-2.444609
-2.444609
-2.444609
-2.444609
-2.444609
-2.630697
-2.435893
-2.444608
-2.444609
-2.444609
-2.444609
-2.444609
-2.444609
-2.444609
-2.444609
-2.444609
-2.444609
-2.444609
-2.444609
-2.444609
-2.444609
-2.444609
-2.444609
-2.589444
-2.435348
-2.444608
-2.444609
-2.444609
-2.444609
-2.444609
-2.444609
-2.444609
-2.444609
-2.444609
-2.444609
-2.444609
-2.444609
-2.444609
-2.444609
-2.444609
-2.444609
-2.541498
-2.435031
-2.444608
-2.444609
-2.444609
-2.444609
-2.444609
-2.444609
-2.444609
-2.444609
-2.444609
-2.444609
-2.444609
-2.444609
-2.444609
-2.444609
-2.444609
-2.444609
-2.497792
-2.434421
-2.444608
-2.444609
-2.444609
-2.444609
-2.444609
-2.444609
-2.444609
-2.444609
-2.444609
-2.444609
-2.444609
-2.444609
-2.444609
-2.444609
-2.444609
-2.444609
-2.453706
-2.433341
-2.444608
-2.444609
-2.444608
-2.444609
-2.444609
-2.444609
-2.444609
-2.444609
-2.444609
-2.444609
-2.444609
-2.444609
-2.444609
-2.444609
-2.444609
-2.444609
-2.408093
-2.432245
-2.444608
-2.444508
-2.444517
-2.444608
-2.444609
-2.444609
-2.444609
-2.444609
-2.444609
-2.444609
-2.444609
-2.444609
-2.444609
-2.444609
-2.444609
-2.444609
-2.355037
-2.430443
-2.444599
-2.44357
-2.445092
-2.444604
-2.444609
-2.444616
-2.444604
-2.44461
-2.444609
-2.444609
-2.444609
-2.444609
-2.444609
-2.444609
-2.444609
-2.444609
-2.303034
-2.427244
-2.444586
-2.437826
-2.44181
-2.444567
-2.444608
-2.444498
-2.444522
-2.444606
-2.444609
-2.444609
-2.444609
-2.444609
-2.444609
-2.444609
-2.444609
-2.444609
-2.254922
-2.420512
-2.444623
-2.443315
-2.445559
-2.444608
-2.444608
-2.444596
-2.444599
-2.444609
-2.444609
-2.444609
-2.444609
-2.444608
-2.444609
-2.444609
-2.444609
-2.444609
-2.206669
-2.418394
-2.444374
-2.43991
-2.437582
-2.444314
-2.444606
-2.444607
-2.444609
-2.444609
-2.444609
-2.444609
-2.444609
-2.444609
-2.444609
-2.444609
-2.444608
-2.444608
-2.050377
-2.42222
-2.442724
-2.427107
-2.439847
-2.439734
-2.444596
-2.444609
-2.444541
-2.444584
-2.444609
-2.444609
-2.444607
-2.444609
-2.444609
-2.444609
-2.44461
-2.444609
-1.967216
-2.4049
-2.441276
-2.443943
-2.437159
-2.442644
-2.444593
-2.444236
-2.444079
-2.444576
-2.444609
-2.44461
-2.444609
-2.444608
-2.444609
-2.44461
-2.444608
-2.444609
-1.928647
-2.287544
-2.4377
-2.444211
-2.444209
-2.444253
-2.444487
-2.444769
-2.444777
-2.444754
-2.444724
-2.444644
-2.444593
-2.444607
-2.44461
-2.444606
-2.444606
-2.444609
-1.42548
-2.402061
-2.405614
-2.434055
-2.441205
-2.442009
-2.44281
-2.443796
-2.444424
-2.444077
-2.444738
-2.445239
-2.44495
-2.444789
-2.444624
-2.444606
-2.444608
-2.444609
-1.054427
-2.229185
-2.403118
-2.42978
-2.438246
-2.439828
-2.441433
-2.441685
-2.443377
-2.443014
-2.443745
-2.444991
-2.444798
-2.445584
-2.445656
-2.44479
-2.444611
-2.44461
-0.7693012
-2.237521
-2.319327
-2.427055
-2.437058
-2.43769
-2.440316
-2.439968
-2.441875
-2.442337
-2.443176
-2.443963
-2.444433
-2.445059
-2.445954
-2.446043
-2.445354
-2.444659
-0.5736226
-2.719345
-2.30337
-2.435096
-2.435778
-2.43563
-2.439571
-2.439686
-2.441155
-2.44193
-2.442894
-2.442321
-2.44421
-2.445052
-2.444206
-2.445806
-2.446462
-2.446142
-0.4607494
-2.645955
-2.383314
-2.429242
-2.43592
-2.431782
-2.439215
-2.439173
-2.440502
-2.441828
-2.442873
-2.441429
-2.444193
-2.445547
-2.445408
-2.445857
-2.446262
-2.446547
-0.5970033
-2.515532
-2.378378
-2.437687
-2.4363
-2.432776
-2.438937
-2.438988
-2.440057
-2.442056
-2.442849
-2.442923
-2.445045
-2.441168
-2.445725
-2.446176
-2.446473
-2.445275
-1.021537
-2.609123
-2.377492
-2.436458
-2.430974
-2.436716
-2.438876
-2.439084
-2.439915
-2.442626
-2.440961
-2.444269
-2.444385
-2.445154
-2.446031
-2.446548
-2.444244
-2.448593
-1.168801
-2.756076
-2.30153
-2.430151
-2.439177
-2.437014
-2.438848
-2.439491
-2.440036
-2.443578
-2.440155
-2.444979
-2.441808
-2.446538
-2.446675
-2.443341
-2.449677
-2.445455
-0.9064416
-2.842012
-2.295841
-2.344519
-2.422172
-2.436707
-2.439376
-2.440148
-2.441065
-2.443486
-2.443571
-2.444452
-2.444771
-2.446711
-2.442895
-2.450608
-2.444695
-2.44935
-0.5619331
-2.913302
-2.307462
-2.352576
-2.434942
-2.436748
-2.440211
-2.441374
-2.443052
-2.44027
-2.447121
-2.439459
-2.448493
-2.443239
-2.45056
-2.443701
-2.451415
-2.445975
-0.6099939
-4.62003
-2.538435
-2.331983
-2.432847
-2.433438
-2.441083
-2.441738
-2.442781
-2.442649
-2.444578
-2.445789
-2.442936
-2.449259
-2.444766
-2.450201
-2.446548
-2.451357
-0.5761295
-4.941944
-2.467178
-2.285517
-2.36832
-2.441606
-2.442282
-2.442084
-2.460555
-2.444291
-2.438301
-2.445348
-2.449903
-2.446394
-2.448036
-2.449457
-2.447577
-2.447804
-0.5768618
-5.731813
-2.827074
-2.272059
-2.413852
-2.409192
-2.435246
-2.444185
-2.446568
-2.444137
-2.448587
-2.446236
-2.451236
-2.449401
-0.5983018
-3.707447
-2.427914
-2.45931
-2.437022
-2.449576
-2.449502
-2.450514
-2.446719
-2.450161
-0.5903959
-2.365651
-2.439034
-2.451271
-2.446915
-2.44953
-2.453628
-2.451946
-2.464914
-2.454251
-2.451524
-2.449881
-2.45019
-2.451711
-2.434724
-2.447757
-2.451589
-2.451146
-2.451302
-2.555592
-2.441213
-2.45312
-2.452866
-2.453239
-2.422254
-2.449402
-2.450474
-2.452014
-2.452482
-2.45406
-2.451268
-2.452586
-2.453376
-2.453724
-2.489009
-2.449055
-2.454314
-2.453278
-2.453955
-2.41646
-2.454248
-2.45518
-2.455747
-2.452167
-2.450076
-2.444456
-2.453207
-2.452915
-2.453789
-2.456023
-0.5939976
-2.425005
-2.452571
-2.452174
-2.452545
-2.452649
-2.453788
-0.5949868
-0.2116529
-2.486378
-2.444972
-2.456619
-2.451808
-2.455073
-2.455209
-2.453237
-0.5660263
-4.46519
-4.190865
-2.488133
-2.461251
-2.442756
-2.459929
-2.442915
-2.454619
-2.454403
-2.45372
-2.455191
-0.5892614
-4.495882
-2.44173
-2.218053
-2.375546
-2.440766
-2.450778
-2.446473
-2.403201
-2.425609
-2.443662
-2.454022
-2.453897
-2.456068
-2.454965
-2.453322
-2.455633
-2.451877
-0.5544247
-4.197945
-2.222457
-2.39073
-2.416753
-2.445639
-2.449548
-2.450358
-2.446003
-2.448668
-2.453354
-2.450825
-2.451324
-2.45635
-2.451192
-2.456253
-2.451512
-2.454726
-0.5100804
-3.037485
-2.426231
-2.403772
-2.4373
-2.448756
-2.450672
-2.451555
-2.451615
-2.451641
-2.45148
-2.455465
-2.452525
-2.450291
-2.456559
-2.451572
-2.455057
-2.450567
-0.6447115
-2.583321
-2.280817
-2.361114
-2.444716
-2.446388
-2.451034
-2.450819
-2.4527
-2.45501
-2.452544
-2.453973
-2.452614
-2.455956
-2.450476
-2.454772
-2.450417
-2.4525
-0.9311218
-2.750357
-2.335598
-2.386252
-2.443954
-2.449945
-2.451434
-2.451386
-2.453266
-2.453422
-2.456691
-2.452073
-2.455067
-2.449887
-2.45409
-2.450513
-2.450893
-2.448766
-0.9944274
-3.006923
-2.373485
-2.426736
-2.447982
-2.449925
-2.451407
-2.451187
-2.453485
-2.450711
-2.454299
-2.451912
-2.451853
-2.451865
-2.452982
-2.450136
-2.451111
-2.44793
-0.79936
-2.741667
-2.381996
-2.447388
-2.444392
-2.449561
-2.451066
-2.450753
-2.45282
-2.450724
-2.449885
-2.451265
-2.449957
-2.450825
-2.447362
-2.450435
-2.446204
-2.447187
-0.4660983
-2.559253
-2.373806
-2.447243
-2.449187
-2.451039
-2.450364
-2.45006
-2.451872
-2.450227
-2.453113
-2.450119
-2.449777
-2.450486
-2.448422
-2.448011
-2.44612
-2.444306
-0.4511244
-2.510108
-2.390229
-2.435183
-2.447052
-2.441897
-2.449405
-2.449145
-2.450539
-2.449414
-2.449484
-2.448788
-2.448098
-2.446576
-2.447114
-2.444218
-2.444508
-2.443384
-0.5622365
-2.650661
-2.232468
-2.446306
-2.44582
-2.446065
-2.448187
-2.448055
-2.448897
-2.447962
-2.447751
-2.447959
-2.446403
-2.445702
-2.445249
-2.44383
-2.443352
-2.444647
-0.9161108
-2.25893
-2.400487
-2.446465
-2.445197
-2.445605
-2.446816
-2.448899
-2.447031
-2.446437
-2.445117
-2.444266
-2.444671
-2.443885
-2.443146
-2.444186
-2.444964
-2.444685
-1.065727
-2.242332
-2.418279
-2.442739
-2.444179
-2.445103
-2.445442