/*--------------------------------*- C++ -*----------------------------------*\
| =========                 |                                                 |
| \\      /  F ield         | OpenFOAM: The Open Source CFD Toolbox           |
|  \\    /   O peration     | Version:  2206                                  |
|   \\  /    A nd           | Website:  www.openfoam.com                      |
|    \\/     M anipulation  |                                                 |
\*---------------------------------------------------------------------------*/
FoamFile
{
    version     2.0;
    format      ascii;
    arch        "LSB;label=32;scalar=64";
    class       volVectorField;
    location    "1";
    object      ddtCorrDdt0(U.b);
}
// * * * * * * * * * * * * * * * * * * * * * * * * * * * * * * * * * * * * * //

dimensions      [0 1 -2 0 0 0 0];

internalField   nonuniform List<vector> 
13078
(
(0.0001696486 -0.0001123847 3.562796e-26)
(0.0001367307 -0.0004570741 -3.654997e-29)
(0.0001288208 -0.0007187075 -8.042099e-26)
(0.0001259249 -0.0009964951 0)
(0.000123729 -0.001242352 -6.493018e-26)
(0.0001187852 -0.001471367 -7.674977e-26)
(0.0001126851 -0.001697445 -8.856013e-26)
(0.0004370695 -0.0001200657 0)
(0.0003876826 -0.0003903531 -3.737727e-28)
(0.0003852832 -0.0007065908 0)
(0.0003826477 -0.0009899055 0)
(0.000372719 -0.001245168 -4.226418e-28)
(0.0003467932 -0.001484617 -1.999949e-28)
(0.0003201372 -0.001711701 -3.740717e-28)
(0.0007194907 -0.0001277057 5.422961e-26)
(0.0006898932 -0.0004115064 -5.150661e-26)
(0.0006691047 -0.0007064392 3.730746e-26)
(0.0006503994 -0.0009998356 1.030093e-25)
(0.0006217848 -0.001268347 6.565993e-26)
(0.0005799869 -0.00151746 0)
(0.000532384 -0.001748606 -5.124286e-31)
(0.001028103 -0.0001425094 8.543047e-26)
(0.001003546 -0.0004355702 -1.672701e-25)
(0.0009691181 -0.0007378219 -1.583436e-25)
(0.0009234849 -0.001026773 -7.378003e-26)
(0.0008806497 -0.001307478 2.451763e-27)
(0.0008219809 -0.00156877 0)
(0.0007530133 -0.001808597 1.092553e-27)
(0.001342839 -0.0001519981 -2.519253e-28)
(0.001320731 -0.0004656761 -1.170979e-25)
(0.001274737 -0.0007807098 -2.230253e-25)
(0.001221574 -0.00108015 -2.190305e-25)
(0.0011503 -0.001361836 2.472766e-26)
(0.001074507 -0.001640639 -5.313508e-30)
(0.0009837687 -0.001892164 9.123135e-26)
(0.001676754 -0.0001635433 0)
(0.001647655 -0.0004996306 1.547379e-27)
(0.00160029 -0.0008293529 -2.541985e-27)
(0.001535502 -0.00114548 -1.363254e-25)
(0.00144596 -0.001450023 8.995741e-27)
(0.001339567 -0.001730504 -8.398774e-26)
(0.001228056 -0.0019995 -1.992842e-25)
(0.002032054 -0.0001804456 0)
(0.002003028 -0.0005389421 -1.798843e-25)
(0.001947951 -0.0008877829 -2.161569e-25)
(0.001869535 -0.001226271 -5.774768e-26)
(0.001760207 -0.00155576 -1.499211e-25)
(0.001634115 -0.001857201 1.120974e-26)
(0.001487031 -0.00213074 0)
(0.002416168 -0.0001921434 4.383847e-25)
(0.0023871 -0.0005794778 -2.155945e-25)
(0.002323219 -0.0009595135 -2.096789e-25)
(0.002225314 -0.001329029 0)
(0.002098028 -0.001681168 -3.816476e-25)
(0.001949634 -0.00200639 1.188036e-26)
(0.001776643 -0.002304055 1.37338e-26)
(0.002838461 -0.0002101087 5.107227e-29)
(0.002800935 -0.0006323397 5.067429e-25)
(0.002726641 -0.001046267 2.525347e-25)
(0.002614611 -0.001448299 8.336228e-27)
(0.002466217 -0.001830329 -8.888369e-25)
(0.002291191 -0.002184253 1.269116e-26)
(0.002088448 -0.002507898 0)
(0.00329784 -0.0002316664 -5.981985e-25)
(0.003254531 -0.0006951199 5.881332e-25)
(0.003169524 -0.001147139 2.863009e-25)
(0.003040433 -0.001586884 -5.471214e-25)
(0.002868009 -0.002005713 -3.128282e-28)
(0.002664492 -0.002393136 0)
(0.002428842 -0.002747015 0)
(0.003802479 -0.0002563812 0)
(0.003754816 -0.0007665012 0)
(0.003657294 -0.001263578 6.581653e-25)
(0.003508155 -0.001748535 -6.296351e-25)
(0.003309291 -0.002209559 3.52229e-28)
(0.003074627 -0.00263573 0)
(0.002802714 -0.003024747 0)
(0.004361491 -0.0002827732 0)
(0.004307952 -0.0008475709 -7.71377e-25)
(0.004195489 -0.001398721 7.513334e-25)
(0.004024585 -0.001934888 7.077755e-25)
(0.003796608 -0.002444517 -6.993806e-25)
(0.003527378 -0.002915359 0)
(0.003215256 -0.003344803 6.344093e-25)
(0.004983165 -0.0003137105 0)
(0.004920797 -0.0009410053 -8.805294e-25)
(0.004792387 -0.001553421 -8.267944e-27)
(0.004597043 -0.002148352 8.156211e-25)
(0.004337078 -0.002713754 -7.780681e-25)
(0.004029069 -0.003235927 7.313364e-25)
(0.0036722 -0.0037117 5.480844e-28)
(0.005675025 -0.0003492974 -1.005528e-24)
(0.005603335 -0.001047961 0)
(0.005456651 -0.001730151 -9.037642e-27)
(0.005232847 -0.002391692 -1.255707e-26)
(0.004939889 -0.003020043 -1.758844e-24)
(0.004586389 -0.003601762 8.264827e-25)
(0.00417978 -0.004130247 -7.657581e-25)
(0.00644712 -0.0003897941 -1.132954e-24)
(0.00636517 -0.00116995 0)
(0.006198609 -0.001932464 -1.980188e-26)
(0.005940337 -0.002673407 1.224456e-24)
(0.00562064 -0.003361815 -7.235868e-25)
(0.005208075 -0.004016892 0)
(0.004745071 -0.004605988 8.606383e-25)
(0.007311183 -0.0004356889 0)
(0.007216476 -0.001307721 -1.252119e-24)
(0.007028362 -0.002158828 0)
(0.006744496 -0.002978308 1.203388e-24)
(0.006369783 -0.003760415 3.835258e-26)
(0.00590141 -0.004489686 4.618537e-26)
(0.005375817 -0.005146333 1.019263e-24)
(0.008279247 -0.0004887245 0)
(0.008170017 -0.001465249 -2.808862e-24)
(0.007956123 -0.002417783 -1.208347e-26)
(0.007635656 -0.003334286 -1.674618e-26)
(0.007208548 -0.004210177 0)
(0.006676837 -0.005025452 0)
(0.006080503 -0.005758938 0)
(0.009364783 -0.0005485781 -1.598907e-24)
(0.009240022 -0.001643559 -1.57719e-24)
(0.008996822 -0.002711032 -2.679157e-26)
(0.008633272 -0.003737912 -1.853522e-26)
(0.00814804 -0.004718729 0)
(0.007545918 -0.005631859 -1.359899e-24)
(0.006868903 -0.006452816 -1.299209e-25)
(0.01058418 -0.0006160622 -1.789791e-24)
(0.01044145 -0.001845111 -1.764139e-24)
(0.01016523 -0.003042834 -4.456324e-26)
(0.00975264 -0.004194719 -4.111595e-26)
(0.009199753 -0.005293155 0)
(0.008524755 -0.006315465 -1.456661e-24)
(0.007752191 -0.007238194 -7.192668e-26)
(0.01195511 -0.0006922307 -2.003237e-24)
(0.01179166 -0.002072744 -3.93538e-24)
(0.01147855 -0.003418071 -1.912914e-24)
(0.01101231 -0.004714317 0)
(0.01038023 -0.005957162 4.366327e-25)
(0.009644584 -0.007073848 6.656738e-25)
(0.00874519 -0.008124392 1.592126e-25)
(0.01349722 -0.0007780446 -2.241785e-24)
(0.01330988 -0.002329182 -4.39237e-24)
(0.01295488 -0.003839718 -4.256102e-24)
(0.01242965 -0.005291249 -2.002225e-24)
(0.0117363 -0.006666927 6.418907e-26)
(0.01088059 -0.007954553 -1.787846e-24)
(0.009860154 -0.009128889 1.572931e-24)
(0.01523267 -0.0008748399 0)
(0.01501782 -0.002618501 -2.44468e-24)
(0.01461528 -0.004316487 -2.366657e-24)
(0.014021 -0.005948573 -4.583536e-24)
(0.01324081 -0.007493174 0)
(0.01226946 -0.008942341 -1.993596e-24)
(0.01111619 -0.01026188 2.14561e-27)
(0.01718619 -0.0009837514 2.797493e-24)
(0.01693998 -0.002944167 0)
(0.0164843 -0.004853177 0)
(0.01581285 -0.006688369 6.140023e-26)
(0.01493146 -0.00842473 2.499535e-24)
(0.01382829 -0.01005142 0)
(0.01253887 -0.01153277 -2.060775e-24)
(0.01938528 -0.001106081 6.253197e-24)
(0.01910336 -0.003309956 0)
(0.01858844 -0.00545616 0)
(0.01783163 -0.007520886 2.784867e-24)
(0.01684073 -0.009481496 5.313781e-24)
(0.01558904 -0.0113366 -2.508896e-24)
(0.01418272 -0.01294013 0)
(0.02186027 -0.00124317 3.494549e-24)
(0.02153773 -0.003719847 1.718307e-26)
(0.02095654 -0.006131512 3.349825e-24)
(0.02010411 -0.008450783 7.846947e-26)
(0.01899375 -0.01064594 1.018257e-25)
(0.01762513 -0.01269338 -2.806418e-24)
(0.01599736 -0.01456886 0)
(0.02464457 -0.001396462 0)
(0.02427613 -0.004178413 -3.824252e-24)
(0.02362102 -0.00688795 3.710792e-24)
(0.02266178 -0.009495495 0)
(0.02141321 -0.01196691 -3.144152e-24)
(0.01988078 -0.01427172 5.304941e-25)
(0.0180408 -0.01639492 3.061503e-25)
(0.02777462 -0.001567218 -4.364186e-24)
(0.02735537 -0.004689857 -4.274056e-24)
(0.02661822 -0.007732467 4.141598e-24)
(0.02554159 -0.01066232 0)
(0.02414113 -0.01344224 -2.473898e-25)
(0.02242194 -0.01603743 -4.782034e-28)
(0.02034939 -0.01843421 3.421147e-25)
(0.03128892 -0.001756744 -4.87856e-24)
(0.03081721 -0.005256718 -4.772842e-24)
(0.02998756 -0.008672247 4.628373e-24)
(0.02878201 -0.01196221 0)
(0.02721512 -0.01508823 0)
(0.02529793 -0.01802306 -3.901206e-24)
(0.02298465 -0.02078423 6.688496e-25)
(0.03522991 -0.001963053 -5.459659e-24)
(0.03470631 -0.005882967 -5.362276e-24)
(0.03377209 -0.009715228 0)
(0.03242502 -0.01340568 4.702498e-24)
(0.03067101 -0.01691139 -3.089481e-25)
(0.02852697 -0.02017695 -8.344416e-24)
(0.02598435 -0.02313562 1.268467e-24)
(0.03963352 -0.002200945 -6.09049e-24)
(0.03909065 -0.006546525 0)
(0.03802609 -0.0108606 -5.866989e-24)
(0.03652233 -0.01500853 5.392576e-24)
(0.03456333 -0.01895619 -5.218994e-24)
(0.03215765 -0.0226559 -9.722141e-24)
(0.02928675 -0.026055 -4.434849e-24)
(0.04459818 -0.002428201 0)
(0.04395574 -0.007306345 0)
(0.04280428 -0.01211639 -1.289344e-23)
(0.04113252 -0.01677483 0)
(0.0389584 -0.02121795 -1.166659e-23)
(0.0362893 -0.02540645 -5.434966e-24)
(0.03310861 -0.02930897 4.960099e-24)
(0.05012064 -0.002705697 -7.635136e-24)
(0.04936821 -0.008160046 7.36947e-24)
(0.04819858 -0.01341332 7.131735e-24)
(0.04634197 -0.01867232 0)
(0.04391608 -0.02369048 -6.523094e-24)
(0.0409724 -0.02841256 0)
(0.03746464 -0.03279842 4.374186e-24)
(0.0562598 -0.002985705 -8.500179e-24)
(0.05549722 -0.00897605 8.322448e-24)
(0.05411993 -0.0149541 2.407073e-23)
(0.05227846 -0.02063481 1.563665e-23)
(0.04951952 -0.02635841 -6.802705e-24)
(0.04628398 -0.03171599 5.714355e-25)
(0.0424032 -0.03671354 -6.612494e-25)
(0.06307157 -0.003280088 1.439418e-26)
(0.06225432 -0.009849658 4.448385e-26)
(0.06085731 -0.01635954 9.307753e-24)
(0.05876586 -0.02283202 1.666264e-23)
(0.05585948 -0.02919708 -9.200811e-24)
(0.05232907 -0.03529198 1.269065e-24)
(0.0480764 -0.04102015 2.954506e-24)
(0.07052934 -0.003584049 -1.573917e-26)
(0.06966372 -0.01077744 -4.879149e-26)
(0.06824021 -0.01795626 9.745852e-24)
(0.06596231 -0.02521623 5.966437e-24)
(0.06313531 -0.03200471 -5.36475e-24)
(0.05927692 -0.0390266 7.116034e-24)
(0.05460483 -0.04565597 0)
(0.07857675 -0.003872557 0)
(0.07770689 -0.01165976 0)
(0.07633506 -0.01945106 1.12207e-23)
(0.07419498 -0.02731311 1.176865e-23)
(0.07106639 -0.03531161 1.604949e-23)
(0.06740553 -0.04275341 1.52549e-23)
(0.0621604 -0.05056576 0)
(0.08730236 -0.004147539 -3.66653e-26)
(0.08642464 -0.01250837 1.104222e-25)
(0.08511764 -0.02092016 3.80649e-25)
(0.08310492 -0.0294274 0)
(0.08019587 -0.03802311 2.303662e-23)
(0.07626987 -0.04676511 -1.668843e-24)
(0.07096706 -0.05560906 -3.97886e-24)
(0.09658937 -0.004388965 -1.433723e-23)
(0.09576189 -0.0132655 1.224432e-25)
(0.09458568 -0.02226528 -1.381655e-23)
(0.09276612 -0.0314627 0)
(0.09011098 -0.04098122 1.436585e-23)
(0.08614324 -0.05100783 8.49109e-25)
(0.08152083 -0.06040353 -2.016784e-23)
(0.1063266 -0.004568381 -1.579418e-23)
(0.1056359 -0.01383277 -1.544057e-23)
(0.1046747 -0.02335993 -1.529146e-23)
(0.1031765 -0.03316979 -1.212995e-24)
(0.1009574 -0.04337931 -3.169935e-24)
(0.09765575 -0.05401412 7.863513e-24)
(0.09299369 -0.06527718 -9.347314e-24)
(0.1163689 -0.004711726 0)
(0.1159543 -0.01409134 1.676711e-23)
(0.1153157 -0.02402938 1.682532e-23)
(0.1142466 -0.03440236 6.432278e-25)
(0.1126607 -0.04533677 -1.771389e-23)
(0.1101801 -0.05719414 -2.104511e-24)
(0.1059225 -0.07036959 0)
(0.1266548 -0.004672692 1.897652e-23)
(0.1263194 -0.01425051 3.64423e-23)
(0.1263532 -0.023998 1.685622e-23)
(0.1259323 -0.03481632 3.633849e-23)
(0.12516 -0.04635555 -1.958832e-23)
(0.1238657 -0.05897216 1.511438e-23)
(0.1210292 -0.07321154 2.39757e-22)
(0.1367316 -0.004525783 2.054901e-23)
(0.1368024 -0.01371897 -1.353225e-25)
(0.1371651 -0.02362442 0)
(0.137998 -0.03395542 5.695529e-25)
(0.1383217 -0.04605006 3.936003e-23)
(0.1381267 -0.0599031 3.203972e-22)
(0.1353467 -0.07736959 3.302136e-22)
(0.1462088 -0.004178311 -2.213993e-23)
(0.1466997 -0.01268239 2.490403e-25)
(0.1479407 -0.02192396 4.430658e-25)
(0.1494965 -0.03246292 -4.730573e-23)
(0.1515712 -0.04427742 5.305853e-22)
(0.1512859 -0.061318 1.614806e-21)
(0.1463276 -0.08515624 -7.731402e-22)
(0.1544567 -0.003605979 -2.356474e-23)
(0.1556055 -0.01100394 0)
(0.1578802 -0.01930672 7.913817e-25)
(0.1610626 -0.0294441 7.767883e-22)
(0.1627363 -0.04413998 -5.03087e-22)
(0.1608554 -0.06549126 1.167477e-21)
(0.1529258 -0.09822761 -1.639101e-21)
(0.1617918 -0.00274501 0)
(0.1633427 -0.008458353 3.557022e-25)
(0.166619 -0.015583 -1.77284e-23)
(0.1707474 -0.02678085 8.426895e-22)
(0.170884 -0.04612098 -1.196052e-21)
(0.1654644 -0.07565299 3.732208e-22)
(0.1554424 -0.1136773 -3.149467e-21)
(0.166623 -0.0015703 0)
(0.1689247 -0.005203057 4.704557e-22)
(0.1729025 -0.01161619 -3.292472e-22)
(0.175853 -0.02594739 5.351574e-22)
(0.1740789 -0.0516647 -5.412569e-22)
(0.1669843 -0.08805875 -2.71354e-22)
(0.1558148 -0.1362861 -2.527909e-21)
(0.1684418 -0.0001162386 -2.650034e-23)
(0.1717452 -0.001615312 7.735436e-22)
(0.1749272 -0.009387534 -3.75565e-22)
(0.1747995 -0.02857906 8.67652e-22)
(0.1714659 -0.05919405 6.032799e-22)
(0.1631955 -0.1020468 3.489841e-22)
(0.1535569 -0.1537474 2.269081e-22)
(0.1665642 0.001411806 -2.448461e-22)
(0.1700415 0.0007709726 -4.001833e-22)
(0.171083 -0.01029537 -2.887229e-22)
(0.1686199 -0.03392496 6.484734e-22)
(0.1623073 -0.07121042 4.857973e-22)
(0.1524594 -0.1180137 4.720568e-22)
(0.1441557 -0.1726329 1.188373e-21)
(0.1605994 0.002314448 -4.20219e-23)
(0.162823 0.0009300875 -8.8827e-22)
(0.1615764 -0.01416685 -4.536364e-22)
(0.1569314 -0.04322147 1.106242e-23)
(0.1478424 -0.0853833 8.541347e-22)
(0.1376713 -0.1351904 -7.619771e-22)
(0.1270042 -0.1924098 1.444145e-21)
(0.1505754 0.001952288 6.917245e-22)
(0.150716 -0.002005998 4.407455e-22)
(0.1475698 -0.0214565 -9.052208e-23)
(0.1409281 -0.05599691 6.41281e-22)
(0.1302427 -0.1020712 1.235172e-22)
(0.1180209 -0.1562159 -2.969896e-22)
(0.1047904 -0.2160266 -3.650071e-22)
(0.1365504 0.0003035854 2.726064e-22)
(0.1351161 -0.007803858 2.564121e-22)
(0.1307783 -0.03115657 1.300821e-22)
(0.1232696 -0.07105502 5.982655e-22)
(0.1116856 -0.1237701 -1.625163e-22)
(0.09736871 -0.1818045 -5.617448e-22)
(0.08415665 -0.2431642 4.125131e-22)
(0.1184531 -0.002438348 -9.396616e-24)
(0.1166775 -0.01462123 -1.060005e-22)
(0.1127127 -0.04251005 -4.896243e-22)
(0.1044656 -0.08790136 -1.225627e-21)
(0.09430781 -0.1467096 -1.714541e-21)
(0.08371939 -0.2093609 -6.27313e-22)
(0.07165977 -0.2739151 2.46338e-21)
(0.09688148 -0.004791403 6.004938e-23)
(0.095692 -0.0206084 1.856371e-22)
(0.09237326 -0.05276067 -5.336246e-22)
(0.0856833 -0.1022744 -2.501506e-22)
(0.07987354 -0.1622303 3.710517e-22)
(0.07557504 -0.2280747 -1.682096e-22)
(0.07118716 -0.2998437 -1.339285e-21)
(0.0729297 -0.006487575 1.330133e-22)
(0.07232152 -0.02539012 3.807526e-22)
(0.07004083 -0.06042446 -3.873965e-22)
(0.0664936 -0.1107182 -5.372819e-23)
(0.06499558 -0.1704259 1.748795e-23)
(0.06611066 -0.2349249 9.935169e-23)
(0.07089885 -0.3040556 4.489613e-22)
(0.04713792 -0.007761496 1.717235e-22)
(0.04691534 -0.02886426 2.001187e-22)
(0.04588435 -0.0651847 -9.461199e-23)
(0.04461494 -0.1153962 -8.267234e-23)
(0.04464187 -0.1735961 2.553219e-22)
(0.04888828 -0.2344555 3.385122e-22)
(0.05500714 -0.2983489 1.713864e-22)
(0.01908445 -0.008431162 1.868734e-23)
(0.01900573 -0.03024065 -5.015971e-24)
(0.01895324 -0.06688586 3.687301e-23)
(0.01913394 -0.1174164 1.732132e-25)
(0.01946331 -0.1732052 1.568055e-23)
(0.02250499 -0.2311331 3.110318e-22)
(0.0248128 -0.2929627 1.723661e-22)
(-0.01083797 -0.008357867 4.984399e-24)
(-0.01051112 -0.02998303 3.583355e-24)
(-0.009853302 -0.06618095 6.233513e-23)
(-0.009045495 -0.1166735 -3.119456e-23)
(-0.008608523 -0.1726351 -4.384338e-22)
(-0.01064614 -0.2303394 -1.383655e-22)
(-0.01244675 -0.2922763 1.816186e-22)
(-0.03924443 -0.007500415 6.149206e-24)
(-0.03881523 -0.02798023 -1.273491e-23)
(-0.0373102 -0.06378275 9.912421e-24)
(-0.03556733 -0.1138807 1.282086e-23)
(-0.03508971 -0.1717508 7.966052e-23)
(-0.03869265 -0.2321444 7.706978e-23)
(-0.04404614 -0.2956023 5.439101e-23)
(-0.06564776 -0.006192992 -7.494715e-23)
(-0.06506924 -0.02429047 7.827175e-23)
(-0.06264034 -0.05856038 -5.844419e-23)
(-0.05847085 -0.1088334 8.328082e-23)
(-0.05644992 -0.1683724 8.611976e-23)
(-0.05702597 -0.2321258 -2.330206e-22)
(-0.06167924 -0.3004072 -1.071049e-21)
(-0.09041506 -0.004454077 1.815849e-22)
(-0.08941408 -0.01944888 -1.659835e-23)
(-0.08611934 -0.05048353 6.126696e-24)
(-0.07913098 -0.09949484 1.784489e-22)
(-0.07218523 -0.1592782 -3.528149e-23)
(-0.06776399 -0.2251836 -1.74795e-21)
(-0.06581879 -0.2982165 -1.031507e-21)
(-0.1129325 -0.002051039 2.022345e-22)
(-0.1114363 -0.0134246 -7.66993e-23)
(-0.1074677 -0.04034132 4.383809e-22)
(-0.09931369 -0.08444093 -1.237017e-22)
(-0.08858476 -0.143296 -1.392649e-21)
(-0.07829604 -0.2075683 -2.07103e-21)
(-0.06698821 -0.2740414 -2.459429e-21)
(-0.1320897 0.0008286724 -6.510459e-22)
(-0.1309182 -0.006416251 3.178743e-23)
(-0.1266488 -0.0290624 1.486985e-21)
(-0.119204 -0.068068 3.818987e-22)
(-0.1075533 -0.1209523 7.164074e-22)
(-0.09234873 -0.1802856 2.413589e-22)
(-0.07798202 -0.2430317 -6.655317e-22)
(-0.1472175 0.002477826 -1.066985e-21)
(-0.1474225 -0.0005673667 3.279961e-22)
(-0.1446187 -0.01927297 1.12129e-21)
(-0.1378628 -0.05303676 5.831474e-22)
(-0.1267051 -0.09857567 1.385066e-22)
(-0.1127742 -0.1534498 4.202789e-22)
(-0.09760759 -0.2148869 -3.099794e-22)
(-0.158289 0.002801729 -7.041416e-22)
(-0.1605151 0.00233652 -2.664806e-22)
(-0.1594419 -0.01189587 -9.240298e-22)
(-0.1547734 -0.04002007 -1.014084e-21)
(-0.1452739 -0.08120243 1.127598e-22)
(-0.1338304 -0.1307845 1.010455e-22)
(-0.1212561 -0.1898186 7.654564e-23)
(-0.1652096 0.001877962 -1.50502e-22)
(-0.1687722 0.002142495 5.881002e-22)
(-0.1697987 -0.008030341 -6.787313e-23)
(-0.1675202 -0.03077888 -1.670872e-21)
(-0.1610396 -0.06705365 3.705987e-22)
(-0.1505934 -0.1132442 1.389628e-21)
(-0.1407807 -0.1677918 8.046103e-22)
(-0.1681043 0.0002680711 -2.612261e-23)
(-0.1715103 -0.000415182 8.772219e-22)
(-0.1747713 -0.007308459 7.882163e-22)
(-0.1747844 -0.02558134 -2.325445e-22)
(-0.1715578 -0.05544974 -1.428624e-22)
(-0.1628043 -0.09745268 5.231088e-22)
(-0.1516859 -0.1477758 -7.761279e-22)
(-0.1672591 -0.001194582 0)
(-0.1696759 -0.004092586 -2.512026e-22)
(-0.1737991 -0.009762029 9.880323e-23)
(-0.1769384 -0.0233918 -1.874205e-22)
(-0.1754351 -0.04829859 -8.009779e-22)
(-0.1681134 -0.08336848 9.226468e-22)
(-0.156114 -0.1297224 8.272673e-22)
(-0.1632204 -0.002463306 0)
(-0.164909 -0.007570921 -2.697312e-25)
(-0.1684168 -0.0141012 1.031402e-22)
(-0.1728762 -0.02470463 3.439209e-22)
(-0.173421 -0.04328035 -9.28861e-22)
(-0.1684735 -0.0717021 9.474696e-22)
(-0.1585598 -0.109565 8.767652e-22)
(-0.1567043 -0.003428964 -2.407906e-23)
(-0.1577775 -0.01040994 0)
(-0.1602953 -0.0182684 0)
(-0.1639136 -0.02799506 4.357564e-22)
(-0.1662419 -0.0422163 1.466039e-21)
(-0.1649294 -0.06341454 -1.25374e-21)
(-0.1574399 -0.09513445 -1.622456e-21)
(-0.1484367 -0.004090941 -2.278351e-23)
(-0.1491201 -0.01234628 -2.237187e-25)
(-0.1506715 -0.02127882 -3.994618e-25)
(-0.1527246 -0.031535 -3.95242e-24)
(-0.1552606 -0.04333043 1.425132e-21)
(-0.155572 -0.06003778 -8.725592e-22)
(-0.1509547 -0.08336642 7.517455e-22)
(-0.1393251 -0.004458412 0)
(-0.1394959 -0.0135041 2.125873e-23)
(-0.1401424 -0.0232521 0)
(-0.1412582 -0.03357607 -1.202978e-24)
(-0.1420596 -0.04560409 -1.658644e-24)
(-0.1422442 -0.05949311 2.07408e-22)
(-0.1401097 -0.07654375 6.151359e-22)
(-0.1293682 -0.004650404 0)
(-0.1291799 -0.0141575 -1.956872e-23)
(-0.1293691 -0.02391974 1.95512e-23)
(-0.1292423 -0.03472682 0)
(-0.1287627 -0.04644593 -3.260645e-24)
(-0.1279512 -0.05903997 1.036472e-23)
(-0.1255464 -0.07366227 2.697352e-22)
(-0.1191247 -0.00472181 0)
(-0.1187968 -0.01415855 -5.425924e-23)
(-0.1183104 -0.02412423 -2.471059e-26)
(-0.1174207 -0.03465958 -3.760282e-23)
(-0.1161233 -0.04565051 -3.264125e-24)
(-0.1138369 -0.05784094 1.681592e-23)
(-0.1099358 -0.07144492 -1.824362e-23)
(-0.1089934 -0.004592757 1.679836e-23)
(-0.1084134 -0.01394609 -1.682122e-23)
(-0.1075604 -0.02356287 5.075186e-27)
(-0.106214 -0.03353905 -3.127195e-23)
(-0.1040972 -0.04398364 0)
(-0.100946 -0.05496086 0)
(-0.09654293 -0.06668731 -2.232963e-23)
(-0.09916042 -0.004431095 1.528735e-23)
(-0.09839894 -0.01343033 -1.522839e-23)
(-0.09727631 -0.0226173 1.482671e-23)
(-0.09559526 -0.03192672 1.448345e-23)
(-0.09294344 -0.04173484 0)
(-0.08910233 -0.05205193 0)
(-0.0846093 -0.06183773 -1.595438e-23)
(-0.08970114 -0.004211276 -1.392483e-23)
(-0.08886498 -0.01274019 -1.413852e-23)
(-0.08762608 -0.02127807 -3.828438e-25)
(-0.08562672 -0.03003916 1.248351e-23)
(-0.08265514 -0.03902705 3.961224e-24)
(-0.07886858 -0.04782042 -1.833317e-23)
(-0.07364464 -0.05704428 8.852326e-24)
(-0.0808 -0.003940647 -1.263277e-23)
(-0.0799726 -0.01188361 -1.100567e-25)
(-0.07861468 -0.01985519 3.636748e-25)
(-0.07648742 -0.02789234 5.158283e-25)
(-0.07344557 -0.03604934 0)
(-0.06958211 -0.04396823 -1.180711e-23)
(-0.06447099 -0.05197948 9.755044e-24)
(-0.07252815 -0.003663661 0)
(-0.07172491 -0.01099103 -2.007777e-25)
(-0.07031632 -0.01835964 -3.40328e-25)
(-0.06805608 -0.02582293 2.406022e-23)
(-0.06527169 -0.03284687 4.48679e-24)
(-0.06129532 -0.04012922 1.718694e-23)
(-0.05660926 -0.04700133 6.865088e-24)
(-0.0649314 -0.003354478 -3.024645e-26)
(-0.06414021 -0.01008192 -9.395674e-26)
(-0.06275227 -0.01676637 0)
(-0.06066244 -0.02342887 -2.603469e-26)
(-0.05772843 -0.03000665 8.895753e-24)
(-0.05412693 -0.03632427 8.325035e-24)
(-0.04980048 -0.04228501 -1.591468e-24)
(-0.05799419 -0.003060554 9.183068e-24)
(-0.0572303 -0.009205818 -9.225554e-24)
(-0.0558403 -0.01535524 1.607455e-23)
(-0.05397745 -0.02121371 -1.847542e-23)
(-0.05116494 -0.02713263 7.429215e-24)
(-0.04786013 -0.03268899 0)
(-0.04388964 -0.03789234 1.433574e-24)
(-0.0517005 -0.002780306 8.276115e-24)
(-0.0509381 -0.008391012 -7.997036e-24)
(-0.04974629 -0.01380412 7.749395e-24)
(-0.04784701 -0.01923275 0)
(-0.04536431 -0.02442514 -7.115127e-24)
(-0.04234802 -0.02932279 0)
(-0.03874639 -0.03388344 6.097886e-24)
(-0.04601813 -0.002500492 0)
(-0.0453561 -0.007528391 0)
(-0.04417525 -0.01249258 -1.401752e-23)
(-0.04246129 -0.01730518 0)
(-0.04023058 -0.02190315 -1.272327e-23)
(-0.037487 -0.02624611 -5.938336e-24)
(-0.0342117 -0.03030061 5.43006e-24)
(-0.04088921 -0.002271295 -6.615584e-24)
(-0.04033147 -0.006755869 0)
(-0.03923878 -0.01121049 -6.168709e-24)
(-0.03769286 -0.01549862 6.167941e-24)
(-0.03567778 -0.01958511 -5.690226e-24)
(-0.03319958 -0.02342047 -1.061471e-23)
(-0.03023749 -0.02695033 -4.848642e-24)
(-0.03634538 -0.002028253 -5.915765e-24)
(-0.03580357 -0.006078304 -5.772677e-24)
(-0.03484122 -0.01003698 0)
(-0.03345362 -0.01385237 5.650491e-24)
(-0.03164571 -0.01748231 3.356361e-25)
(-0.02943342 -0.02086697 -9.907711e-24)
(-0.02680624 -0.02393804 -1.385273e-24)
(-0.03227596 -0.001815963 -5.305711e-24)
(-0.03178586 -0.00543367 -5.191806e-24)
(-0.03092764 -0.008964308 5.036667e-24)
(-0.02968379 -0.01236719 0)
(-0.02806598 -0.0156037 0)
(-0.0260853 -0.01864458 -4.253761e-24)
(-0.02369168 -0.02150812 7.014268e-24)
(-0.02864356 -0.001620625 -4.747785e-24)
(-0.02820735 -0.004849431 -4.65034e-24)
(-0.0274438 -0.007995788 4.507459e-24)
(-0.02633046 -0.01102686 0)
(-0.02488201 -0.01390501 2.694032e-25)
(-0.02310207 -0.01659277 5.210662e-28)
(-0.0209561 -0.01907644 -3.73322e-25)
(-0.02540723 -0.001444399 0)
(-0.0250234 -0.004321593 -4.161476e-24)
(-0.02434391 -0.007124006 4.038664e-24)
(-0.02335037 -0.009821586 0)
(-0.02205709 -0.01237852 -3.905969e-24)
(-0.02046952 -0.01476533 -5.785166e-25)
(-0.01856376 -0.01696613 -3.341987e-25)
(-0.02252778 -0.001286024 3.802824e-24)
(-0.02219143 -0.003847801 -1.870551e-26)
(-0.02158796 -0.006342246 3.58358e-24)
(-0.02070412 -0.0087413 -8.548726e-26)
(-0.01955327 -0.01101292 -1.055704e-25)
(-0.0181359 -0.01313311 -3.054803e-24)
(-0.01644839 -0.01507703 0)
(-0.01996793 -0.001144261 6.805109e-24)
(-0.01967372 -0.003423943 0)
(-0.01913862 -0.0056438 0)
(-0.01835332 -0.0077794 3.183559e-24)
(-0.01732585 -0.009808008 5.975886e-24)
(-0.01602788 -0.01172806 -2.729245e-24)
(-0.01456868 -0.01338764 0)
(-0.01769342 -0.001017669 3.044439e-24)
(-0.01743627 -0.00304542 -1.502371e-26)
(-0.01696242 -0.005019799 -2.491938e-26)
(-0.01626522 -0.006917767 -7.039467e-26)
(-0.01535066 -0.008713872 2.544959e-24)
(-0.01420585 -0.01039681 0)
(-0.0128679 -0.01192943 -2.238759e-24)
(-0.01567304 -0.000904885 -2.235654e-27)
(-0.01544849 -0.002708194 -2.69398e-24)
(-0.01502962 -0.00446405 -2.619599e-24)
(-0.01441214 -0.006151622 -4.985579e-24)
(-0.013602 -0.007748878 0)
(-0.01259335 -0.009247591 -2.165818e-24)
(-0.01139618 -0.01061237 2.340762e-27)
(-0.01387852 -0.0008045675 -2.435901e-24)
(-0.01368254 -0.002408399 -4.79197e-24)
(-0.01331293 -0.003970035 -4.670657e-24)
(-0.01276685 -0.005470448 -2.287871e-24)
(-0.01204637 -0.006892468 -6.988451e-26)
(-0.01115713 -0.008223509 -1.941135e-24)
(-0.010097 -0.009437662 1.898098e-24)
(-0.01228438 -0.0007155322 -2.180694e-24)
(-0.01211316 -0.002142474 -4.283337e-24)
(-0.01178706 -0.003532865 -2.081476e-24)
(-0.01130205 -0.004872164 0)
(-0.01064483 -0.006156155 -4.746632e-25)
(-0.009879547 -0.007309627 -7.23865e-25)
(-0.008944112 -0.008395053 -1.731992e-25)
(-0.01086772 -0.0006363568 -1.95229e-24)
(-0.01071793 -0.001906223 -1.911075e-24)
(-0.01043029 -0.00314363 4.834764e-26)
(-0.01000092 -0.004333007 4.46046e-26)
(-0.009425647 -0.005466863 0)
(-0.008723102 -0.006521738 -1.580984e-24)
(-0.007918466 -0.00747358 7.800962e-26)
(-0.0096078 -0.0005660775 -1.745089e-24)
(-0.009477381 -0.00169695 -1.709579e-24)
(-0.009224095 -0.002799392 2.900671e-26)
(-0.008845557 -0.003858774 2.006179e-26)
(-0.008340596 -0.00487017 0)
(-0.007713717 -0.005810985 -1.35482e-24)
(-0.00700817 -0.006655897 1.403875e-25)
(-0.008486845 -0.0005044093 1.31015e-27)
(-0.008373586 -0.00151235 -3.059361e-24)
(-0.008150245 -0.002494874 1.305022e-26)
(-0.007816556 -0.003439605 1.80781e-26)
(-0.007371968 -0.004341864 0)
(-0.006819008 -0.005180505 0)
(-0.006198029 -0.005933576 0)
(-0.007488821 -0.0004500475 0)
(-0.007390013 -0.001349094 -1.367433e-24)
(-0.007193428 -0.002225609 0)
(-0.006898193 -0.003069796 1.248071e-24)
(-0.006508552 -0.00387496 -4.12572e-26)
(-0.006022268 -0.004624501 -4.96323e-26)
(-0.0054761 -0.005297163 9.947869e-25)
(-0.006598562 -0.0004021293 -1.239626e-24)
(-0.006512191 -0.001205762 0)
(-0.006338717 -0.001990775 2.126733e-26)
(-0.00607033 -0.002753699 9.454474e-25)
(-0.005738403 -0.003461698 -1.372628e-24)
(-0.005310793 -0.004134439 0)
(-0.004831048 -0.004737755 9.410412e-25)
(-0.005803124 -0.000359885 -1.10285e-24)
(-0.00572766 -0.001079171 0)
(-0.005575062 -0.001781173 9.681522e-27)
(-0.005342466 -0.002461795 1.344664e-26)
(-0.005038607 -0.003107897 -1.92975e-24)
(-0.004672489 -0.003705044 9.070266e-25)
(-0.004252557 -0.004246588 -8.410009e-25)
(-0.005091003 -0.0003228743 0)
(-0.005025342 -0.0009682601 -9.580949e-25)
(-0.004891646 -0.001598193 8.833906e-27)
(-0.004688749 -0.002209941 8.980538e-25)
(-0.004419296 -0.002790897 -8.56973e-25)
(-0.004100372 -0.003327113 8.0601e-25)
(-0.00373214 -0.003815201 5.853471e-28)
(-0.004451763 -0.0002906607 0)
(-0.004394983 -0.0008713573 -8.52262e-25)
(-0.004277856 -0.001438123 8.303751e-25)
(-0.004100403 -0.001989213 8.055987e-25)
(-0.003864168 -0.002512737 -7.448819e-25)
(-0.003585581 -0.002996228 3.409233e-26)
(-0.003263142 -0.003437125 6.627405e-25)
(-0.00387675 -0.0002629465 0)
(-0.003826999 -0.0007870984 0)
(-0.003724676 -0.001298387 7.312546e-25)
(-0.003569922 -0.001796589 -7.001855e-25)
(-0.003363739 -0.002269966 3.752792e-28)
(-0.003120668 -0.002707529 0)
(-0.002839383 -0.003107086 0)
(-0.003357909 -0.0002382692 -6.684498e-25)
(-0.003313069 -0.0007133981 6.575972e-25)
(-0.003223937 -0.001177317 3.134403e-25)
(-0.003090091 -0.001629475 -6.222178e-25)
(-0.002910807 -0.002059082 -3.32401e-28)
(-0.00269957 -0.0024567 2.888995e-26)
(-0.002455197 -0.002820165 1.099063e-29)
(-0.002887135 -0.0002159827 5.515659e-29)
(-0.00284684 -0.000648596 5.714558e-25)
(-0.002769809 -0.001073264 2.718998e-25)
(-0.002653123 -0.00148577 -8.791248e-27)
(-0.002498756 -0.001876933 -1.028311e-24)
(-0.002316479 -0.002240082 -1.339743e-26)
(-0.00210548 -0.002572276 0)
(-0.00245555 -0.0001963551 5.002182e-25)
(-0.002422975 -0.0005929416 -2.45989e-25)
(-0.002355073 -0.0009832023 -2.393044e-25)
(-0.002254302 -0.001361882 0)
(-0.002121425 -0.001721948 -4.367881e-25)
(-0.0019663 -0.00205482 -1.248676e-26)
(-0.001785555 -0.002359993 -1.444726e-26)
(-0.002057279 -0.0001826392 0)
(-0.002032058 -0.0005478542 -2.086719e-25)
(-0.0019724 -0.0009086612 -1.596598e-25)
(-0.00188929 -0.001255993 6.016213e-26)
(-0.001775491 -0.001590534 -1.949835e-25)
(-0.001643353 -0.001898833 -1.172261e-26)
(-0.001488775 -0.002178591 0)
(-0.001694034 -0.0001718294 0)
(-0.001666671 -0.0005129577 -1.59626e-27)
(-0.001620608 -0.0008442431 2.618711e-27)
(-0.001548549 -0.001169708 -1.61909e-25)
(-0.001455472 -0.001480708 -9.132003e-27)
(-0.001342825 -0.001765699 8.717551e-26)
(-0.001224052 -0.002039821 1.988545e-25)
(-0.001355286 -0.0001567797 2.523566e-28)
(-0.001329079 -0.0004792026 -1.380294e-25)
(-0.001286619 -0.0007964867 -2.683211e-25)
(-0.001232233 -0.001099276 -2.544066e-25)
(-0.001154611 -0.001387026 2.017553e-25)
(-0.001073053 -0.001669124 8.367835e-26)
(-0.0009752541 -0.001925012 -3.597895e-27)
(-0.001030434 -0.0001476623 1.106895e-25)
(-0.001011958 -0.0004500252 -2.168295e-25)
(-0.000974449 -0.0007560638 -2.111117e-25)
(-0.0009303957 -0.001043652 -1.040529e-25)
(-0.0008806686 -0.00132594 3.16224e-27)
(-0.00081675 -0.001591549 0)
(-0.0007408569 -0.001834492 1.411934e-27)
(-0.0007221432 -0.0001410116 7.884556e-26)
(-0.000704319 -0.0004299195 -7.707067e-26)
(-0.0006798258 -0.00072147 -3.736465e-26)
(-0.0006523024 -0.001013686 -1.041518e-25)
(-0.0006184477 -0.001281018 -6.453248e-26)
(-0.0005724568 -0.001534096 0)
(-0.0005177947 -0.001767539 -5.227953e-31)
(-0.0004232566 -0.0001315941 -2.430824e-28)
(-0.0004021083 -0.0004122493 -1.483584e-27)
(-0.0004003603 -0.0007122575 0)
(-0.0003853123 -0.000992845 0)