/*--------------------------------*- C++ -*----------------------------------*\
| =========                 |                                                 |
| \\      /  F ield         | OpenFOAM: The Open Source CFD Toolbox           |
|  \\    /   O peration     | Version:  2206                                  |
|   \\  /    A nd           | Website:  www.openfoam.com                      |
|    \\/     M anipulation  |                                                 |
\*---------------------------------------------------------------------------*/
FoamFile
{
    version     2.0;
    format      ascii;
    arch        "LSB;label=32;scalar=64";
    class       surfaceVectorField;
    location    "1";
    object      ddtCorrDdt0(Ufb);
}
// * * * * * * * * * * * * * * * * * * * * * * * * * * * * * * * * * * * * * //

dimensions      [0 1 -2 0 0 0 0];

internalField   nonuniform List<vector> 
26037
(
(0.0001517494 -0.0003459868 -1.316993e-21)
(0.0002978652 -0.0001163608 1.792993e-26)
(0.0001324569 -0.0006012273 2.865976e-22)
(0.0002494065 -0.0004239409 -3.84778e-24)
(0.0001274594 -0.0008531391 -4.015218e-26)
(0.0002488647 -0.0007126806 -4.024336e-26)
(0.0001251056 -0.001104575 -3.246933e-26)
(0.0002479227 -0.0009932028 0)
(0.0001211765 -0.001361135 4.565056e-23)
(0.0002473903 -0.00124376 -3.267677e-26)
(0.0001155868 -0.001592238 -8.265511e-26)
(0.00023108 -0.001477993 -3.132659e-25)
(0.0002157591 -0.001704573 -4.44673e-26)
(0.0001085653 -0.00180301 7.072457e-23)
(0.0004124522 -0.0002717267 -1.862541e-28)
(0.0005856562 -0.0001236255 2.711694e-26)
(0.0003862388 -0.0005580078 -1.880443e-28)
(0.0005383711 -0.0004008416 -2.577438e-26)
(0.0003839978 -0.0008468105 0)
(0.0005292028 -0.0007064956 1.851362e-26)
(0.0003777141 -0.001115851 -2.113833e-28)
(0.0005100201 -0.000994875 5.150073e-26)
(0.000359659 -0.001370033 -3.113146e-28)
(0.0004955757 -0.001256758 -5.062404e-25)
(0.0003333271 -0.00160545 -2.870355e-28)
(0.0004614811 -0.00150104 -9.999813e-29)
(0.0004255536 -0.001730153 -2.273857e-25)
(0.0003044509 -0.001819059 -4.984131e-26)
(0.0007046997 -0.0002702797 1.390496e-27)
(0.0008736511 -0.000135114 3.432616e-24)
(0.0006795826 -0.0005669209 -7.49135e-27)
(0.0008470884 -0.0004235268 7.361486e-24)
(0.0006595927 -0.0008604648 -7.340312e-23)
(0.0008203359 -0.0007219102 -5.977785e-26)
(0.0006359864 -0.001139452 -5.660817e-23)
(0.0007818969 -0.001013205 1.529894e-26)
(0.0006007925 -0.001397834 3.282879e-26)
(0.0007480661 -0.001287914 2.060452e-24)
(0.0005560538 -0.001639975 -2.5622e-31)
(0.0006986948 -0.001543116 0)
(0.0006409082 -0.001778602 5.766402e-25)
(0.000504875 -0.00185888 5.083236e-26)
(0.001015829 -0.0002945186 -4.084873e-26)
(0.001178022 -0.0001475285 4.258581e-26)
(0.0009864562 -0.0005946369 -1.628411e-25)
(0.001157393 -0.0004507966 -1.004841e-22)
(0.000946227 -0.000886422 -2.486258e-24)
(0.001118352 -0.0007594244 -1.489441e-22)
(0.000901985 -0.001172354 -3.569524e-26)
(0.001068514 -0.001053372 -6.097975e-23)
(0.0008512052 -0.001443935 1.225834e-27)
(0.001013414 -0.001334451 1.350484e-26)
(0.0007873704 -0.00169536 5.462886e-28)
(0.0009451804 -0.001604707 -2.65673e-30)
(0.000865724 -0.001850382 4.616132e-26)
(0.0007133493 -0.001923606 -5.101591e-26)
(0.001331788 -0.0003156377 2.15945e-24)
(0.001503007 -0.0001580265 -1.259507e-28)
(0.001297909 -0.0006267971 2.946565e-24)
(0.00147878 -0.0004828551 -5.776964e-26)
(0.001248036 -0.0009336967 -2.210192e-25)
(0.00143154 -0.0008052993 -1.127809e-25)
(0.001185953 -0.001230667 1.253507e-23)
(0.00137459 -0.001112962 -8.249599e-23)
(0.001112294 -0.001509519 9.054143e-23)
(0.001293995 -0.001405719 6.398101e-23)
(0.001029009 -0.001773178 -7.244941e-23)
(0.001203792 -0.001685237 -4.168184e-26)
(0.001102247 -0.001945835 -2.412833e-24)
(0.0009319166 -0.002013064 4.561495e-26)
(0.001662212 -0.0003328659 7.732386e-28)
(0.001846143 -0.0001723119 0)
(0.00162416 -0.0006601485 1.971744e-24)
(0.001816745 -0.0005196111 -8.91741e-26)
(0.00156776 -0.0009915873 4.495364e-24)
(0.001769786 -0.0008587355 -1.092682e-25)
(0.001490693 -0.001303876 -7.840317e-24)
(0.001696615 -0.001185959 -9.71605e-26)
(0.00139282 -0.001597818 -3.743523e-26)
(0.001598692 -0.001503046 -9.159377e-23)
(0.001283729 -0.001873036 8.768161e-23)
(0.00148225 -0.001793526 -3.672978e-26)
(0.001353939 -0.00206464 -1.00375e-25)
(0.001163475 -0.002128121 9.105459e-23)
(0.002017549 -0.0003562355 -8.990056e-26)
(0.002213678 -0.0001867033 2.192139e-25)
(0.001975622 -0.0007174115 -1.979279e-25)
(0.002189866 -0.0005594142 -1.110255e-22)
(0.001908708 -0.001066714 1.042136e-22)
(0.00213097 -0.0009239651 -1.104127e-22)
(0.00181461 -0.001398444 -1.040385e-25)
(0.002039326 -0.001278093 -2.884669e-26)
(0.001697139 -0.001709929 -4.474202e-24)
(0.001922009 -0.001618748 -2.658015e-25)
(0.001560654 -0.002001656 5.612258e-27)
(0.001786573 -0.001932001 1.154509e-26)
(0.001627593 -0.002216904 6.818733e-27)
(0.001409796 -0.002270087 -2.092396e-27)
(0.002401634 -0.0003928706 1.114853e-25)
(0.002619232 -0.0002014503 3.431079e-22)
(0.002355188 -0.0007747921 -2.126399e-25)
(0.002584808 -0.0006062696 1.456191e-25)
(0.002274755 -0.001146831 -1.05909e-25)
(0.00251635 -0.001003236 2.150876e-26)
(0.002161221 -0.001511045 -1.921521e-25)
(0.002411658 -0.001389082 4.168674e-27)
(0.002023777 -0.001850866 -1.847755e-25)
(0.002274756 -0.001756048 -3.099876e-22)
(0.001863133 -0.002163597 -1.084232e-23)
(0.002113448 -0.002095595 1.228582e-26)
(0.001926385 -0.002406215 6.865878e-27)
(0.00167915 -0.002447328 -5.41451e-26)
(0.002819701 -0.000424532 2.533274e-25)
(0.003057919 -0.0002213064 -4.34357e-22)
(0.002763814 -0.0008424718 3.797422e-25)
(0.003017438 -0.0006641413 4.370483e-22)
(0.00267123 -0.001248644 -4.447709e-24)
(0.002937472 -0.001097124 2.248251e-22)
(0.002539865 -0.001646306 -4.43512e-25)
(0.0028182 -0.001518065 -2.694097e-25)
(0.002378638 -0.002015349 -1.071856e-23)
(0.002658435 -0.001918381 -3.649814e-22)
(0.002189814 -0.002355543 6.346583e-27)
(0.00246974 -0.00228902 6.344626e-27)
(0.002251332 -0.002627746 0)
(0.001975112 -0.002663393 8.924417e-26)
(0.003276191 -0.0004643381 -5.199375e-27)
(0.003538108 -0.0002445282 -2.990635e-25)
(0.003212061 -0.0009224434 4.373416e-25)
(0.003492049 -0.0007313265 2.940275e-25)
(0.003105688 -0.001370256 -1.257703e-25)
(0.003402162 -0.001205816 4.722589e-25)
(0.002953568 -0.001805226 -2.716855e-25)
(0.003263373 -0.001668276 -4.521165e-22)
(0.002766173 -0.002208524 -1.563228e-28)
(0.003078384 -0.002108071 4.313412e-22)
(0.002546661 -0.00258055 0)
(0.002860107 -0.002514821 0)
(0.002607244 -0.002886226 0)
(0.002296923 -0.002916946 1.215952e-25)
(0.003778654 -0.0005112844 0)
(0.00406717 -0.0002702105 0)
(0.003706092 -0.001018688 3.288041e-25)
(0.004018092 -0.000807591 -3.857346e-25)
(0.003583561 -0.001510552 2.159114e-26)
(0.003913098 -0.0013317 5.639906e-22)
(0.003407954 -0.001989103 -3.122504e-25)
(0.003753687 -0.001842383 3.911547e-26)
(0.003191868 -0.002432791 1.760097e-28)
(0.003541059 -0.002327552 -5.001417e-22)
(0.002938664 -0.002841838 0)
(0.00329008 -0.002776002 0)
(0.002999149 -0.00318518 3.172586e-25)
(0.0026503 -0.003211461 -1.193818e-25)
(0.004334727 -0.0005688044 -3.855742e-25)
(0.004656132 -0.0002989506 0)
(0.004251763 -0.001128029 -1.068094e-26)
(0.004598383 -0.0008949714 -6.801925e-22)
(0.004111016 -0.00167184 7.298077e-25)
(0.00447859 -0.001476722 3.714782e-25)
(0.003909695 -0.002200911 1.192102e-23)
(0.004296293 -0.002042405 6.01135e-22)
(0.003661887 -0.002691271 -3.494785e-25)
(0.004053096 -0.002579742 -7.3873e-25)
(0.003371311 -0.003142977 3.171494e-25)
(0.003765689 -0.003076178 3.657287e-25)
(0.003432413 -0.003528728 4.765828e-22)
(0.003040148 -0.003550785 -3.750178e-23)
(0.004951988 -0.0006315057 -4.4013e-25)
(0.005310514 -0.0003323356 -5.028239e-25)
(0.004856641 -0.001252941 7.289802e-24)
(0.005243797 -0.0009952815 -4.40202e-25)
(0.004695859 -0.00185661 3.987804e-25)
(0.005106958 -0.001642548 -8.652852e-27)
(0.004466012 -0.002443435 1.246671e-26)
(0.004898688 -0.002270913 4.015188e-25)
(0.004182948 -0.002987631 -2.289344e-26)
(0.004622047 -0.00286759 -6.887464e-22)
(0.003850628 -0.003488189 3.660078e-25)
(0.004293561 -0.003419463 5.975567e-22)
(0.003913153 -0.003921527 -5.409943e-22)
(0.003471907 -0.003939841 2.740998e-28)
(0.005639188 -0.0007033013 -5.029208e-25)
(0.006039868 -0.0003705177 -9.037419e-22)
(0.00553005 -0.001395649 -4.514759e-27)
(0.005963506 -0.001109883 0)
(0.005346053 -0.002067665 1.374661e-23)
(0.005807234 -0.001832203 -1.442018e-26)
(0.005085256 -0.00271892 -8.921004e-25)
(0.005568875 -0.002533337 6.052232e-25)
(0.004762915 -0.0033264 -4.648154e-25)
(0.005257806 -0.003191039 -8.728472e-22)
(0.004383073 -0.003882056 3.049172e-26)
(0.004880402 -0.003809994 4.133235e-25)
(0.004447738 -0.004368763 4.75962e-26)
(0.003951572 -0.004383422 -5.898236e-26)
(0.006406154 -0.0007851295 -5.666572e-25)
(0.006854731 -0.0004138881 -5.663961e-25)
(0.006281937 -0.001557868 -9.894107e-27)
(0.006767521 -0.001239904 -6.261604e-25)
(0.006070451 -0.002309117 2.39875e-23)
(0.0065916 -0.002046661 -9.89663e-27)
(0.005780741 -0.003029538 -2.678342e-22)
(0.006325557 -0.002827466 7.994393e-22)
(0.005412834 -0.003709712 -3.592627e-25)
(0.005974046 -0.003562645 -3.420956e-25)
(0.004976428 -0.004329595 4.304894e-25)
(0.005536242 -0.004254161 2.309794e-26)
(0.005043947 -0.004876906 6.963669e-22)
(0.004485622 -0.004887836 8.229447e-25)
(0.007263839 -0.0008792594 -6.25858e-25)
(0.007768051 -0.0004635134 0)
(0.00712244 -0.001742188 -6.262867e-25)
(0.007666231 -0.001387753 -1.153143e-21)
(0.006886631 -0.002579101 6.007312e-25)
(0.007466277 -0.002289497 -6.042873e-27)
(0.006559816 -0.003380524 -4.29905e-23)
(0.00716608 -0.003157467 5.929916e-25)
(0.006132967 -0.004146249 4.231217e-26)
(0.006766281 -0.003986723 1.917248e-26)
(0.005638335 -0.004838289 -5.128158e-23)
(0.006268194 -0.004758571 2.30879e-26)
(0.005709508 -0.005453502 5.095139e-25)
(0.005081254 -0.005460464 5.39635e-25)
(0.008224645 -0.0009837707 -1.403969e-24)
(0.008790862 -0.0005201883 -7.995744e-25)
(0.008063093 -0.001951099 -1.410972e-24)
(0.00867465 -0.001555865 -1.297319e-21)
(0.007796052 -0.002888605 1.692277e-23)
(0.008447155 -0.002565785 -1.943892e-26)
(0.007425413 -0.003784478 -8.505107e-27)
(0.008106733 -0.003537404 -1.764089e-26)
(0.006939567 -0.004641545 0)
(0.007652539 -0.004466066 0)
(0.00637834 -0.005415114 0)
(0.007087396 -0.005329826 -6.800866e-25)
(0.006453605 -0.006106879 -6.497568e-26)
(0.005746416 -0.00610959 -3.294176e-26)
(0.009302418 -0.001103463 -6.470101e-24)
(0.009939149 -0.0005841074 -1.510822e-21)
(0.009118449 -0.002187951 1.31918e-23)
(0.009806336 -0.001746033 -1.670681e-24)
(0.008815233 -0.003238807 1.929297e-23)
(0.009547817 -0.002878535 -3.567921e-26)
(0.008394513 -0.00424214 -9.417436e-27)
(0.009161461 -0.003967832 -2.98279e-26)
(0.007843357 -0.005201665 -6.879926e-25)
(0.008645535 -0.005007736 0)
(0.007207021 -0.006068552 6.622911e-23)
(0.008006521 -0.005974949 -1.206877e-21)
(0.007286626 -0.006846662 -1.009172e-25)
(0.006490179 -0.006844774 7.560387e-23)
(0.01051283 -0.001238968 -7.31267e-24)
(0.01122968 -0.0006562219 -1.896532e-24)
(0.01030337 -0.002455968 1.48574e-23)
(0.0110776 -0.0019609 -1.667145e-21)
(0.009959148 -0.003635019 4.374725e-23)
(0.01078413 -0.003232318 -9.78924e-25)
(0.00948058 -0.004760091 -2.088996e-26)
(0.01034577 -0.004456297 -2.05557e-26)
(0.008858407 -0.00583169 -7.3639e-25)
(0.009758221 -0.005626588 2.179687e-25)
(0.008137785 -0.006808211 -7.632575e-25)
(0.009043124 -0.006693993 -4.025644e-25)
(0.008220361 -0.007682471 4.361529e-26)
(0.007323075 -0.007676911 8.519013e-23)
(0.01187341 -0.001391986 -2.968965e-24)
(0.01268103 -0.0007375439 -1.93408e-21)
(0.01163514 -0.002758781 -2.924531e-24)
(0.01250687 -0.002203247 -1.882037e-21)
(0.0112456 -0.004083344 -9.573433e-25)
(0.01217463 -0.003631034 -1.802006e-21)
(0.01069953 -0.005349946 2.159928e-25)
(0.0116825 -0.005004824 -1.001741e-24)
(0.0100129 -0.006541668 -5.755997e-22)
(0.01103159 -0.006316041 2.491148e-25)
(0.009190256 -0.007642775 -1.991385e-22)
(0.0102268 -0.007517456 -5.633055e-25)
(0.009271305 -0.008628306 8.662961e-25)
(0.008258072 -0.008618087 7.956275e-26)
(0.01340357 -0.001564493 3.872253e-24)
(0.01431394 -0.0008292363 -1.120697e-24)
(0.01313242 -0.00309984 -2.455144e-23)
(0.01411416 -0.002476495 -2.130917e-21)
(0.01269232 -0.00458639 -3.129662e-24)
(0.01373702 -0.004080608 -2.059315e-21)
(0.01208363 -0.006003304 -6.743996e-23)
(0.01317942 -0.005622259 -1.966318e-21)
(0.01131645 -0.007336027 -8.439966e-25)
(0.01244689 -0.007082415 3.20703e-26)
(0.01036237 -0.008585929 -8.156e-26)
(0.01153631 -0.008451276 -1.584376e-21)
(0.01045242 -0.009697305 1.509117e-21)
(0.009308645 -0.009683071 1.084212e-22)
(0.01512527 -0.001759035 -1.221889e-24)
(0.01615192 -0.0009325354 1.399021e-24)
(0.0148166 -0.003484774 -2.512792e-23)
(0.01592287 -0.002784413 -1.222067e-24)
(0.0143182 -0.005155921 -3.474619e-24)
(0.01549559 -0.00458774 -1.183038e-24)
(0.01363142 -0.006749451 -2.295438e-24)
(0.01486518 -0.006321187 -2.216716e-21)
(0.01276505 -0.008245914 -9.760637e-25)
(0.01403794 -0.007961504 1.250132e-24)
(0.01168335 -0.009650672 -9.795962e-25)
(0.01300641 -0.00949993 -9.967473e-25)
(0.01178365 -0.01089937 -1.836592e-21)
(0.01049196 -0.01088573 -7.241895e-25)
(0.01706312 -0.001978003 1.399274e-24)
(0.018221 -0.001048665 2.784631e-21)
(0.01671219 -0.00391807 0)
(0.0179586 -0.003130624 0)
(0.01614864 -0.005797025 3.068652e-26)
(0.01747529 -0.005158037 0)
(0.01537273 -0.007589044 -8.643259e-23)
(0.01676343 -0.007107801 2.521048e-21)
(0.01439114 -0.009270531 1.275816e-24)
(0.01582865 -0.008956138 2.450146e-21)
(0.01317349 -0.0108421 -1.046078e-24)
(0.0146584 -0.01069617 -1.251872e-24)
(0.01329417 -0.01223351 -1.039297e-24)
(0.01182771 -0.01224117 -2.08222e-24)
(0.01924436 -0.002223946 3.127798e-24)
(0.02055009 -0.001178959 3.130672e-21)
(0.01884596 -0.004404768 0)
(0.02024976 -0.00351902 8.593629e-27)
(0.01821011 -0.006517497 1.391815e-24)
(0.01970409 -0.005797722 1.675365e-24)
(0.01733663 -0.008534753 9.394858e-23)
(0.01890302 -0.007989441 1.431259e-24)
(0.01622323 -0.01043567 1.456327e-24)
(0.01785949 -0.01006722 2.502906e-21)
(0.01488652 -0.01218807 -1.259722e-24)
(0.01657186 -0.01202347 -1.883657e-21)
(0.0150387 -0.01376036 0)
(0.01334623 -0.01376791 1.041877e-24)
(0.02169904 -0.00249957 1.756544e-24)
(0.02317098 -0.001324814 1.74691e-24)
(0.0212472 -0.00495012 -3.051413e-23)
(0.02282749 -0.003953887 -1.904007e-24)
(0.02053041 -0.007324127 1.714875e-24)
(0.02221176 -0.006514239 3.315378e-21)
(0.01954905 -0.009589324 -1.074701e-22)
(0.02130883 -0.008977384 3.922207e-26)
(0.01831108 -0.01171535 -1.348273e-24)
(0.02013281 -0.01131041 -3.03599e-21)
(0.01683033 -0.01368077 -1.437199e-24)
(0.01868916 -0.01348674 -1.136295e-24)
(0.01696004 -0.01548685 1.531272e-25)
(0.01503699 -0.01548271 1.010997e-24)
(0.0244604 -0.002807782 -1.911374e-24)
(0.02611875 -0.001487586 -2.182598e-24)
(0.02394865 -0.00556045 -5.832026e-26)
(0.02572674 -0.004439628 -3.838993e-21)
(0.02314149 -0.008228184 1.856238e-24)
(0.02503336 -0.007315409 3.926258e-24)
(0.02203761 -0.01077626 -1.571269e-24)
(0.02401865 -0.0100838 0)
(0.02064827 -0.01317216 -2.877106e-22)
(0.02269819 -0.01270915 -1.695238e-24)
(0.01898445 -0.01538769 -4.269514e-22)
(0.02107778 -0.0151589 2.649034e-25)
(0.01912831 -0.01742001 3.241338e-25)
(0.0169505 -0.01742589 -2.552988e-26)
(0.02756505 -0.00315107 -4.31914e-24)
(0.02943123 -0.001668525 -4.343643e-21)
(0.02698688 -0.006241598 -6.800432e-26)
(0.02898603 -0.004979605 -4.523476e-24)
(0.02608001 -0.009237711 2.071757e-24)
(0.02820646 -0.008208351 4.161794e-21)
(0.02484149 -0.01210215 -1.236301e-25)
(0.02706888 -0.01131792 0)
(0.02328295 -0.01479875 3.195446e-22)
(0.02558916 -0.01427054 -1.236478e-25)
(0.02141241 -0.01729434 -4.684429e-22)
(0.02377222 -0.01703532 -1.951253e-24)
(0.02158487 -0.01961265 5.05072e-25)
(0.01913685 -0.01959299 1.609078e-24)
(0.0310532 -0.003530546 -4.825742e-24)
(0.03314977 -0.001867248 -5.169214e-24)
(0.03040239 -0.00699915 -7.329574e-26)
(0.03264865 -0.005577263 -4.879417e-21)
(0.02938489 -0.01036174 2.315255e-24)
(0.03177242 -0.009200631 2.313441e-24)
(0.0279987 -0.01357974 0)
(0.03049997 -0.01269045 2.352126e-24)
(0.0262576 -0.01661484 -1.947654e-24)
(0.02884673 -0.01600578 -1.545399e-25)
(0.02416091 -0.01944285 -1.656188e-24)
(0.026835 -0.0191056 -3.393566e-21)
(0.0244728 -0.02197508 1.226363e-21)
(0.02174213 -0.02202394 2.39594e-21)
(0.03496844 -0.00394508 2.674587e-23)
(0.03731409 -0.002089816 -5.025751e-21)
(0.03423905 -0.007839443 -2.680906e-24)
(0.03676313 -0.006222727 -2.68758e-24)
(0.03309866 -0.01160956 2.350202e-24)
(0.03577562 -0.01029586 -2.933505e-24)
(0.03154814 -0.01522096 3.30617e-22)
(0.03435561 -0.01421475 5.106049e-21)
(0.02959917 -0.01862213 -4.324112e-24)
(0.03250219 -0.0179411 -2.76504e-24)
(0.02725937 -0.02175334 -5.356649e-22)
(0.03022856 -0.02142357 -4.915095e-21)
(0.02751933 -0.02460393 -5.03676e-21)
(0.02453921 -0.02453342 -2.130544e-21)
(0.03936351 -0.004387426 -3.064439e-24)
(0.04199422 -0.002322901 -3.036539e-24)
(0.03855684 -0.008756776 -2.940816e-24)
(0.04139094 -0.00693731 0)
(0.037274 -0.01298977 1.428432e-22)
(0.04027616 -0.01149793 -5.996252e-21)
(0.03554297 -0.01704894 8.95152e-26)
(0.03869491 -0.01590053 2.695271e-24)
(0.03336068 -0.0208863 -7.469194e-24)
(0.03663145 -0.02009558 -5.604824e-21)
(0.03072513 -0.02444998 -7.085333e-24)
(0.03409468 -0.02403946 -5.568058e-21)
(0.03106402 -0.02769028 2.639957e-25)
(0.02762089 -0.02768736 -6.007685e-24)
(0.04428038 -0.004877465 0)
(0.04721059 -0.002576575 -3.81936e-24)
(0.04337805 -0.009754022 -6.466967e-24)
(0.04652827 -0.007742621 3.678494e-24)
(0.04196761 -0.01450724 -6.442726e-24)
(0.04532832 -0.01277255 -6.824858e-21)
(0.04004556 -0.01906759 -5.830561e-24)
(0.04357462 -0.01773364 0)
(0.03762407 -0.02339471 -8.552672e-24)
(0.04129226 -0.02246401 -6.28547e-21)
(0.03470112 -0.02744591 -2.470239e-25)
(0.03849171 -0.02691884 -2.715988e-24)
(0.03517006 -0.0310632 5.132128e-21)
(0.03124473 -0.03118767 2.514628e-24)
(0.04974732 -0.00543569 6.23734e-23)
(0.0530391 -0.002855761 -6.720974e-21)
(0.04878605 -0.01081307 7.251332e-24)
(0.05230329 -0.008579903 6.408234e-21)
(0.04726508 -0.01611942 3.548055e-24)
(0.05100841 -0.01419596 1.262352e-20)
(0.04512754 -0.02127155 -3.264075e-24)
(0.04909128 -0.01965971 7.756574e-24)
(0.04244433 -0.02614419 -3.263304e-24)
(0.04654475 -0.0250355 -6.66287e-24)
(0.03921874 -0.0307194 2.185546e-24)
(0.04346103 -0.03007574 2.858735e-25)
(0.03977074 -0.0347671 1.854806e-24)
(0.03543503 -0.03491593 1.42788e-21)
(0.05587908 -0.00600263 -1.026741e-25)
(0.05948806 -0.003145054 -4.241113e-24)
(0.05481583 -0.01195802 1.61117e-23)
(0.05871037 -0.009424466 4.178364e-24)
(0.05320372 -0.01782623 1.988221e-23)
(0.05736347 -0.0156733 6.768822e-21)
(0.05088481 -0.0236304 -5.470838e-22)
(0.05534653 -0.02175507 1.563707e-20)
(0.0479004 -0.02913548 -3.114288e-24)
(0.05248396 -0.02779203 -8.831662e-21)
(0.0443437 -0.0343371 -6.465706e-22)
(0.0491123 -0.03351766 9.204363e-25)
(0.04504456 -0.03888045 1.147821e-24)
(0.0401372 -0.03914598 1.636333e-21)
(0.06266321 -0.006594636 -4.17579e-23)
(0.06658717 -0.003447167 -6.788041e-28)
(0.06155742 -0.0131314 4.664461e-24)
(0.06575407 -0.01032776 -2.176752e-27)
(0.05983312 -0.01960507 -3.901078e-22)
(0.06434309 -0.01717258 9.526986e-24)
(0.05729325 -0.02609774 4.343504e-22)
(0.06218225 -0.02403601 1.13356e-23)
(0.05409026 -0.03235197 -3.956513e-24)
(0.0592082 -0.03060316 -7.304824e-24)
(0.05020273 -0.03827706 -1.277816e-21)
(0.05554363 -0.03717421 4.188926e-24)
(0.05111414 -0.04335411 1.476358e-24)
(0.04557388 -0.04381702 -1.555904e-21)
(0.0700968 -0.007206611 3.68598e-23)
(0.07435939 -0.003742543 -7.866125e-27)
(0.068953 -0.01437851 4.840863e-24)
(0.07349251 -0.01123249 -2.438342e-26)
(0.06711876 -0.02155273 1.262959e-22)
(0.07209862 -0.01871765 8.535485e-21)
(0.064555 -0.02864277 2.132875e-21)
(0.06992427 -0.0262909 8.817179e-21)
(0.06118176 -0.03565651 1.031768e-21)
(0.06687906 -0.03367958 5.332008e-24)
(0.05693545 -0.04249235 3.552092e-24)
(0.06295505 -0.04088841 1.409687e-20)
(0.05809643 -0.04812883 0)
(0.05187093 -0.04887862 -2.320029e-25)
(0.07814208 -0.007788769 0)
(0.0827751 -0.004022633 -1.834104e-26)
(0.0770215 -0.01556617 5.605442e-24)
(0.08189217 -0.01209708 5.523919e-26)
(0.07526797 -0.02337323 1.149391e-23)
(0.08053724 -0.02019953 5.797328e-24)
(0.0726588 -0.03124486 -3.320099e-23)
(0.07845736 -0.02838642 5.870722e-24)
(0.06924655 -0.03905119 -1.805945e-21)
(0.07549938 -0.03670268 8.827162e-21)
(0.06473452 -0.04690133 7.494352e-24)
(0.07157898 -0.04480387 6.744724e-24)
(0.06619513 -0.05311365 -1.989094e-24)
(0.05919401 -0.054326 -3.97247e-24)
(0.08686377 -0.008346297 5.506822e-23)
(0.09181154 -0.00427895 -7.190199e-24)
(0.08577165 -0.0167146 -1.908523e-23)
(0.09093627 -0.01289917 1.164357e-25)
(0.08411233 -0.02516536 1.905169e-25)
(0.08967115 -0.02160648 -6.722074e-24)
(0.08165605 -0.03372257 1.14724e-23)
(0.08771956 -0.03046116 0)
(0.07829562 -0.0423225 1.108579e-23)
(0.08481368 -0.03952858 1.518493e-20)
(0.07355527 -0.05126004 -3.504398e-22)
(0.08094634 -0.04890063 -4.178448e-25)
(0.07568362 -0.0579999 -1.192817e-23)
(0.06777671 -0.0600564 1.619158e-21)
(0.09617591 -0.008829639 -2.147596e-23)
(0.1013603 -0.0044867 -4.426648e-21)
(0.09517431 -0.01774796 -6.841717e-24)
(0.1005693 -0.01355932 -7.659101e-24)
(0.09367695 -0.02683232 -6.91461e-24)
(0.0994778 -0.02282468 -6.897943e-21)
(0.09144234 -0.03614267 7.166272e-24)
(0.09778109 -0.03233099 -6.069141e-25)
(0.08817589 -0.04582466 5.128443e-22)
(0.09530182 -0.04219955 5.581537e-24)
(0.0838529 -0.05561483 -4.531351e-21)
(0.09173983 -0.05255942 1.167669e-20)
(0.08690595 -0.06290773 -1.472045e-23)
(0.07795996 -0.06585805 3.229327e-21)
(0.1059819 -0.009160494 6.960371e-23)
(0.1113001 -0.004643407 -7.906347e-24)
(0.1051556 -0.01856824 -1.536603e-23)
(0.1106835 -0.01396925 -4.11463e-21)
(0.1039267 -0.02820761 -8.257976e-24)
(0.1098497 -0.02370582 7.595407e-25)
(0.102069 -0.03819218 -8.008024e-22)
(0.1085386 -0.03379987 -2.843281e-25)
(0.09931521 -0.04863242 -3.951438e-22)
(0.1065611 -0.0443773 -1.044769e-23)
(0.09541707 -0.05941924 -7.291703e-23)
(0.103366 -0.05564835 2.871779e-24)
(0.09907774 -0.06784884 -4.708552e-24)
(0.08956122 -0.07121889 -4.996183e-21)
(0.1161639 -0.009306143 8.32249e-24)
(0.1215351 -0.004692037 9.528781e-24)
(0.1156348 -0.01900891 -3.052864e-22)
(0.1211347 -0.01417035 -3.988977e-22)
(0.1147817 -0.02914078 4.045965e-22)
(0.1207013 -0.02402149 4.012625e-21)
(0.1134558 -0.03973901 -8.5269e-24)
(0.1199046 -0.03462345 1.847398e-23)
(0.111427 -0.05102887 -2.307622e-21)
(0.118697 -0.04586314 -9.677667e-21)
(0.1081178 -0.06341753 -1.083321e-24)
(0.1167269 -0.05810801 6.524495e-24)
(0.1134421 -0.07183872 1.225725e-22)
(0.103355 -0.07652693 2.290578e-22)
(0.1264892 -0.009288791 2.762794e-23)
(0.1317837 -0.004593043 -3.836602e-21)
(0.1263393 -0.01896802 -2.399684e-21)
(0.1316557 -0.01397874 1.80005e-23)
(0.126143 -0.02932367 2.665644e-23)
(0.131798 -0.02380628 8.440829e-24)
(0.1255472 -0.04047787 8.354823e-24)
(0.1318134 -0.034398 7.003241e-21)
(0.1245162 -0.05248055 -1.843792e-21)
(0.1315521 -0.0462174 9.842566e-24)
(0.1224609 -0.06574443 1.268211e-22)
(0.130981 -0.0594396 1.09203e-21)
(0.1289701 -0.07523932 -1.123083e-18)
(0.1180809 -0.08057614 3.610962e-20)
(0.1367676 -0.008935161 -4.48278e-22)
(0.1416553 -0.004338272 -8.09817e-25)
(0.1369833 -0.01840307 -6.856406e-26)
(0.1419342 -0.01318699 5.721046e-26)
(0.1375872 -0.02853377 2.826664e-25)
(0.1427636 -0.02275248 2.243235e-25)
(0.1381653 -0.0398542 2.015943e-23)
(0.1438827 -0.03319221 1.254079e-20)
(0.1382318 -0.05248263 1.800579e-22)
(0.1450334 -0.04516064 -1.716586e-20)
(0.1367716 -0.06691529 -3.176113e-19)
(0.1456078 -0.06053532 -7.611899e-19)
(0.1428597 -0.08111365 -7.962889e-19)
(0.1314491 -0.08391674 1.788511e-18)
(0.1464545 -0.008278069 -1.095627e-23)
(0.1507882 -0.003856679 2.08736e-20)
(0.1473202 -0.0170773 1.104792e-21)
(0.151519 -0.01181519 1.244984e-25)
(0.14871 -0.02677343 -2.301387e-23)
(0.1532644 -0.02058678 6.176496e-25)
(0.1505565 -0.03777041 -2.164997e-20)
(0.1557229 -0.03090034 3.71722e-22)
(0.1514739 -0.05090552 1.180977e-18)
(0.1581443 -0.04406839 -1.225992e-18)
(0.1489223 -0.06725606 3.730253e-18)
(0.1577054 -0.06319936 -5.31909e-18)
(0.152321 -0.09143924 6.942824e-18)
(0.1411111 -0.08722831 -3.340336e-18)
(0.1550312 -0.007115181 -1.179974e-23)
(0.1587064 -0.003129835 -1.180135e-23)
(0.1567439 -0.01492165 3.954633e-25)
(0.1600045 -0.009691915 1.771631e-25)
(0.159473 -0.02376285 6.565627e-21)
(0.1627847 -0.0174048 -8.46068e-24)
(0.1619203 -0.03477021 -1.001976e-18)
(0.1668947 -0.02803581 -2.232236e-18)
(0.1621966 -0.04911217 -1.800626e-17)
(0.1684133 -0.04502598 5.710148e-18)
(0.15723 -0.06846074 -1.496059e-17)
(0.1660703 -0.07011022 1.340312e-18)
(0.1592977 -0.1052692 -7.363384e-19)
(0.1467851 -0.09332915 -6.505903e-18)
(0.1625649 -0.005385553 1.768122e-25)
(0.1648412 -0.0021141 0)
(0.1649872 -0.01170885 3.277893e-21)
(0.1667683 -0.006772924 2.348991e-22)
(0.1687036 -0.01945486 -2.111553e-19)
(0.170692 -0.01355111 -1.788105e-19)
(0.1708982 -0.03132948 4.42409e-18)
(0.1749851 -0.02623029 -2.907178e-19)
(0.1685902 -0.04801802 2.421596e-17)
(0.1741701 -0.04876846 7.219348e-18)
(0.1625989 -0.07004509 -4.559602e-17)
(0.1689717 -0.08178188 7.973775e-19)
(0.1644951 -0.1234448 3.125354e-17)
(0.1494179 -0.09723943 -7.198979e-18)
(0.1677667 -0.002999907 2.333854e-22)
(0.1683394 -0.0007892605 -1.326746e-23)
(0.1709323 -0.007334695 2.960731e-19)
(0.171283 -0.003329423 -1.351545e-18)
(0.1745212 -0.01428899 9.647972e-18)
(0.1754143 -0.01038167 1.857961e-18)
(0.1751871 -0.02780901 -3.832257e-19)
(0.1777513 -0.02695462 -2.383468e-18)
(0.1710424 -0.04636521 -4.211827e-17)
(0.1745037 -0.0552172 3.524796e-19)
(0.162954 -0.07167659 1.576111e-17)
(0.169605 -0.09470782 -6.550311e-18)
(0.1641471 -0.1444805 -7.252792e-18)
(0.1553473 -0.104024 -1.426693e-16)
(0.1700947 -5.01695e-05 2.473201e-21)
(0.1685174 0.0007174308 4.790705e-20)
(0.1733634 -0.002293051 -1.38028e-18)
(0.1722757 -0.00032787 -3.054671e-18)
(0.1750152 -0.009539669 -1.948908e-18)
(0.1748535 -0.009720939 -3.738511e-19)
(0.1740514 -0.02370293 -7.535638e-18)
(0.1738847 -0.03113489 -4.542822e-18)
(0.1682402 -0.04457907 -4.089254e-17)
(0.1708471 -0.06461631 -8.821181e-18)
(0.1600917 -0.0712914 1.059777e-17)
(0.1651552 -0.1091284 5.77656e-20)
(0.15947 -0.1620119 -1.494419e-17)
(0.1509033 -0.100676 1.795679e-17)
(0.1683104 0.003433573 4.304688e-20)
(0.1646409 0.001937928 7.005113e-19)
(0.1706198 0.002474718 2.297809e-18)
(0.167968 0.0009570884 1.996421e-18)
(0.1700685 -0.005576483 7.819136e-18)
(0.168435 -0.01208906 1.90602e-18)
(0.1662344 -0.01975965 5.628751e-18)
(0.1646588 -0.03846044 -6.684122e-18)
(0.1604777 -0.04316402 -1.390284e-16)
(0.1592285 -0.07815976 -1.78523e-17)
(0.1536497 -0.06976941 9.178272e-17)
(0.1534291 -0.1263169 -6.394663e-18)
(0.1533546 -0.1794096 -7.505448e-17)
(0.1435172 -0.09772775 2.107355e-16)
(0.1617257 0.006005885 -1.233536e-18)
(0.1566802 0.002212223 -4.850438e-19)
(0.1622852 0.005050646 9.686044e-19)
(0.1582894 -0.0004288633 -4.729211e-20)
(0.1595478 -0.003711531 -1.434179e-17)
(0.156576 -0.01766872 7.190334e-19)
(0.1531402 -0.02019108 6.957031e-18)
(0.1515667 -0.04942884 2.068609e-18)
(0.1444117 -0.04469109 -5.342207e-17)
(0.1464083 -0.09324209 -1.855407e-17)
(0.1358314 -0.06651603 -5.13407e-17)
(0.1327502 -0.1454267 1.877952e-17)
(0.1260773 -0.2037175 2.321857e-18)
(0.1320548 -0.09452209 5.918758e-16)
(0.1506721 0.007138976 -9.880336e-21)
(0.1447254 0.001212925 -2.725541e-18)
(0.1492776 0.005551294 3.058043e-18)
(0.1443876 -0.004758881 -3.661742e-18)
(0.1445967 -0.004507109 -1.68307e-17)
(0.140799 -0.02611454 -4.109516e-18)
(0.1363916 -0.02367789 -1.198061e-17)
(0.1356239 -0.0632424 -1.04509e-17)
(0.1257752 -0.04626171 -2.685503e-17)
(0.1260783 -0.1125213 -2.031747e-20)
(0.1143836 -0.07287069 9.346632e-17)
(0.1151585 -0.1684387 -1.321542e-17)
(0.1015144 -0.229122 -1.509857e-17)
(0.1047332 -0.09289191 -1.223434e-16)
(0.1359695 0.00654432 8.604026e-19)
(0.1285795 -0.001032445 1.255275e-18)
(0.1335055 0.003250287 1.072871e-17)
(0.1269078 -0.01121624 2.285084e-18)
(0.127525 -0.008942765 3.903366e-17)
(0.1253528 -0.03633456 1.161395e-17)
(0.1184219 -0.03233042 2.701698e-17)
(0.1198584 -0.07867073 8.859742e-19)
(0.1063801 -0.05755694 -1.360498e-16)
(0.1054391 -0.1344571 -1.558725e-17)
(0.09404758 -0.0817372 -1.655227e-17)
(0.09577018 -0.194325 -8.839017e-18)
(0.08685281 -0.2570038 -1.73168e-17)
(0.08327225 -0.1013979 1.675347e-16)
(0.1176264 0.004987863 -2.968696e-18)
(0.1086004 -0.003586697 -1.112106e-18)
(0.115008 0.000149422 6.934964e-18)
(0.1073011 -0.01759548 -8.237819e-19)
(0.1104991 -0.01513865 -1.200006e-16)
(0.1042176 -0.04770289 6.026973e-18)
(0.1031419 -0.04017865 -1.48172e-16)
(0.0992337 -0.09514986 3.309595e-18)
(0.09522502 -0.07107976 -3.247536e-16)
(0.08739637 -0.1548119 -3.507168e-18)
(0.08702933 -0.09889687 4.025777e-16)
(0.0833606 -0.2190331 7.757972e-18)
(0.09944748 -0.2819422 5.861995e-17)
(0.07798023 -0.1174117 1.93131e-16)
(0.09632398 0.003130036 1.190942e-18)
(0.085486 -0.00562101 3.68111e-19)
(0.09420423 -0.002490231 1.321142e-18)
(0.08502718 -0.0229674 -1.127404e-18)
(0.08956764 -0.01916117 5.423209e-18)
(0.08277473 -0.05654961 4.672948e-18)
(0.08416298 -0.04615944 -4.475423e-17)
(0.07999979 -0.1063992 -1.187065e-18)
(0.08026608 -0.07753098 2.056256e-16)
(0.07462872 -0.1663114 2.488215e-18)
(0.0780353 -0.1035314 -2.869566e-16)
(0.07728346 -0.2313404 -7.170892e-19)
(0.08536499 -0.3008905 -7.000408e-18)
(0.08028646 -0.1259421 -1.820009e-16)
(0.07264852 0.001242105 -1.007969e-18)
(0.0607014 -0.007102997 -9.108767e-19)
(0.07128777 -0.004798294 -2.577752e-18)
(0.06053178 -0.02709274 -2.766643e-18)
(0.06855663 -0.02202122 -5.280064e-18)
(0.05942375 -0.0627446 3.917789e-18)
(0.06637259 -0.04833894 8.59187e-18)
(0.0594991 -0.1129147 -2.511891e-18)
(0.06673507 -0.07656354 3.21888e-18)
(0.05884135 -0.1718708 2.614102e-18)
(0.07071069 -0.09691547 5.883591e-17)
(0.0638312 -0.2345012 1.026645e-17)
(0.07174725 -0.3009102 -7.700147e-18)
(0.07299034 -0.1182099 5.551713e-17)