/*--------------------------------*- C++ -*----------------------------------*\
| =========                 |                                                 |
| \\      /  F ield         | OpenFOAM: The Open Source CFD Toolbox           |
|  \\    /   O peration     | Version:  2206                                  |
|   \\  /    A nd           | Website:  www.openfoam.com                      |
|    \\/     M anipulation  |                                                 |
\*---------------------------------------------------------------------------*/
FoamFile
{
    version     2.0;
    format      ascii;
    arch        "LSB;label=32;scalar=64";
    class       volVectorField;
    location    "1";
    object      ddtCorrDdt0(U.a);
}
// * * * * * * * * * * * * * * * * * * * * * * * * * * * * * * * * * * * * * //

dimensions      [0 1 -2 0 0 0 0];

internalField   nonuniform List<vector> 
13078
(
(1.179507e-06 1.388703e-05 -2.035881e-28)
(7.831772e-07 9.40181e-06 -1.37741e-32)
(5.335044e-07 1.311881e-06 -2.601477e-29)
(4.376562e-07 -1.916794e-06 0)
(3.741059e-07 -4.354963e-06 -2.030916e-29)
(3.190633e-07 -6.119237e-06 -2.408061e-29)
(2.649529e-07 -7.277688e-06 -2.767411e-29)
(1.042096e-05 9.949354e-06 0)
(6.283696e-06 5.541827e-06 -1.863364e-31)
(2.568157e-06 7.032105e-07 0)
(1.868024e-06 -2.11804e-06 0)
(1.471186e-06 -4.461388e-06 -1.332542e-31)
(1.205897e-06 -6.188491e-06 -6.231166e-32)
(9.835063e-07 -7.339562e-06 -1.149172e-31)
(4.352966e-06 2.254542e-06 2.028945e-29)
(4.44903e-06 1.374838e-06 -1.856501e-29)
(3.691627e-06 -4.581252e-07 1.169324e-29)
(2.975736e-06 -2.752674e-06 3.231588e-29)
(2.479471e-06 -4.785424e-06 2.06361e-29)
(2.082691e-06 -6.370736e-06 0)
(1.715069e-06 -7.465624e-06 -1.603024e-34)
(2.085125e-06 2.441596e-07 2.361862e-29)
(3.939452e-06 -2.024723e-07 -5.696663e-29)
(4.166308e-06 -1.662327e-06 -5.354037e-29)
(3.850988e-06 -3.457507e-06 -2.427256e-29)
(3.426104e-06 -5.189155e-06 7.864809e-31)
(2.963636e-06 -6.622841e-06 0)
(2.472613e-06 -7.643347e-06 3.418369e-31)
(2.044967e-06 -2.270268e-07 -6.346064e-32)
(4.08824e-06 -1.104313e-06 -3.941448e-29)
(4.788575e-06 -2.500028e-06 -7.509592e-29)
(4.770585e-06 -4.082219e-06 -7.243154e-29)
(4.408529e-06 -5.600995e-06 8.375562e-30)
(3.887578e-06 -6.918801e-06 -1.688783e-33)
(3.278245e-06 -7.871775e-06 2.860757e-29)
(2.324371e-06 -4.574748e-07 0)
(4.690053e-06 -1.626196e-06 5.000258e-31)
(5.680185e-06 -3.068646e-06 -8.309951e-31)
(5.834468e-06 -4.590312e-06 -4.520764e-29)
(5.499606e-06 -6.030222e-06 2.905138e-30)
(4.898956e-06 -7.256706e-06 -2.67892e-29)
(4.157209e-06 -8.15973e-06 -6.268799e-29)
(2.734074e-06 -5.945704e-07 0)
(5.539316e-06 -1.968715e-06 -6.009107e-29)
(6.778947e-06 -3.489098e-06 -7.207979e-29)
(7.061313e-06 -5.025207e-06 -1.89726e-29)
(6.718242e-06 -6.456391e-06 -4.920715e-29)
(6.02829e-06 -7.663748e-06 3.609825e-30)
(5.135524e-06 -8.523926e-06 0)
(3.218205e-06 -6.886654e-07 1.168926e-28)
(6.542369e-06 -2.225095e-06 -7.179905e-29)
(8.04196e-06 -3.838397e-06 -6.968924e-29)
(8.434183e-06 -5.437067e-06 0)
(8.068239e-06 -6.901413e-06 -1.253214e-28)
(7.277756e-06 -8.12742e-06 3.83817e-30)
(6.226032e-06 -8.992539e-06 4.397495e-30)
(3.765701e-06 -7.68223e-07 1.341576e-32)
(7.674538e-06 -2.454083e-06 1.685631e-28)
(9.4612e-06 -4.180146e-06 8.374791e-29)
(9.959882e-06 -5.866966e-06 2.760677e-30)
(9.561134e-06 -7.39536e-06 -2.918739e-28)
(8.652911e-06 -8.668033e-06 4.106047e-30)
(7.429358e-06 -9.560146e-06 0)
(4.3737e-06 -8.460636e-07 -1.591731e-28)
(8.935383e-06 -2.685965e-06 1.954947e-28)
(1.104071e-05 -4.543673e-06 9.491315e-29)
(1.165076e-05 -6.344695e-06 -1.826874e-28)
(1.121032e-05 -7.966076e-06 -1.023671e-31)
(1.016852e-05 -9.309997e-06 0)
(8.751735e-06 -1.024471e-05 0)
(5.046779e-06 -9.299734e-07 0)
(1.033434e-05 -2.939865e-06 0)
(1.279218e-05 -4.952628e-06 2.181016e-28)
(1.352258e-05 -6.895847e-06 -2.102339e-28)
(1.303318e-05 -8.637371e-06 1.15417e-31)
(1.184146e-05 -1.007552e-05 0)
(1.020907e-05 -1.106845e-05 0)
(5.792708e-06 -1.024501e-06 0)
(1.188625e-05 -3.229384e-06 -2.561484e-28)
(1.473436e-05 -5.425798e-06 2.489033e-28)
(1.559716e-05 -7.540773e-06 2.363502e-28)
(1.505228e-05 -9.430246e-06 -2.295877e-28)
(1.369257e-05 -1.098542e-05 0)
(1.181963e-05 -1.205179e-05 2.036439e-28)
(6.620753e-06 -1.133913e-06 0)
(1.360999e-05 -3.56514e-06 -2.922899e-28)
(1.689171e-05 -5.977417e-06 -2.732621e-30)
(1.790132e-05 -8.296956e-06 2.723937e-28)
(1.729638e-05 -1.036485e-05 -2.554492e-28)
(1.574756e-05 -1.206042e-05 2.371758e-28)
(1.360522e-05 -1.321505e-05 1.764346e-31)
(7.541474e-06 -1.260999e-06 -2.669627e-28)
(1.552879e-05 -3.955348e-06 0)
(1.92924e-05 -6.620041e-06 -2.990159e-30)
(2.046463e-05 -9.180109e-06 -4.194794e-30)
(1.98057e-05 -1.146339e-05 -5.785864e-28)
(1.803842e-05 -1.332324e-05 2.681015e-28)
(1.559176e-05 -1.458007e-05 -2.457992e-28)
(8.567576e-06 -1.408312e-06 -3.007011e-28)
(1.766927e-05 -4.407663e-06 0)
(2.196633e-05 -7.364619e-06 -6.549327e-30)
(2.33149e-05 -1.019519e-05 4.078478e-28)
(2.265086e-05 -1.274468e-05 -2.401212e-28)
(2.060711e-05 -1.480005e-05 0)
(1.781003e-05 -1.61716e-05 2.763268e-28)
(9.714064e-06 -1.578671e-06 0)
(2.006322e-05 -4.929747e-06 -4.15368e-28)
(2.495529e-05 -8.220631e-06 0)
(2.650207e-05 -1.135118e-05 3.970927e-28)
(2.580548e-05 -1.422227e-05 1.280952e-29)
(2.347707e-05 -1.651084e-05 1.509887e-29)
(2.029236e-05 -1.801713e-05 3.274198e-28)
(1.099796e-05 -1.776373e-06 0)
(2.274907e-05 -5.53522e-06 -9.31714e-28)
(2.831573e-05 -9.216801e-06 -3.991122e-30)
(3.008386e-05 -1.271473e-05 -5.527337e-30)
(2.932463e-05 -1.593409e-05 0)
(2.669479e-05 -1.848744e-05 0)
(2.308048e-05 -2.015284e-05 0)
(1.243837e-05 -2.005137e-06 -4.240859e-28)
(2.576807e-05 -6.23568e-06 -5.231409e-28)
(3.209812e-05 -1.037052e-05 -8.853461e-30)
(3.412268e-05 -1.429793e-05 -6.12057e-30)
(3.328746e-05 -1.791412e-05 0)
(3.03262e-05 -2.077621e-05 -4.435129e-28)
(2.622783e-05 -2.262699e-05 -4.194971e-29)
(1.405671e-05 -2.269275e-06 -4.746355e-28)
(2.916557e-05 -7.043944e-06 -5.851425e-28)
(3.635825e-05 -1.170165e-05 -1.473304e-29)
(3.867361e-05 -1.612462e-05 -1.358306e-29)
(3.775617e-05 -2.019846e-05 0)
(3.445648e-05 -2.343371e-05 -4.764051e-28)
(2.979973e-05 -2.549846e-05 -2.32415e-29)
(1.587707e-05 -2.573532e-06 -5.311604e-28)
(3.299279e-05 -7.973593e-06 -1.305334e-27)
(4.115901e-05 -1.323091e-05 -6.307701e-28)
(4.379381e-05 -1.821806e-05 0)
(4.279531e-05 -2.279704e-05 1.45746e-28)
(3.924659e-05 -2.651699e-05 2.215546e-28)
(3.387715e-05 -2.883028e-05 5.164742e-29)
(1.792617e-05 -2.92275e-06 -5.943309e-28)
(3.730734e-05 -9.038507e-06 -1.456952e-27)
(4.657346e-05 -1.497785e-05 -1.403252e-27)
(4.95642e-05 -2.059502e-05 -6.561559e-28)
(4.849171e-05 -2.571753e-05 2.116189e-29)
(4.458693e-05 -3.001187e-05 -5.954207e-28)
(3.848281e-05 -3.26443e-05 5.086354e-28)
(2.023395e-05 -3.321976e-06 0)
(4.217286e-05 -1.025396e-05 -8.109413e-28)
(5.268436e-05 -1.696998e-05 -7.803146e-28)
(5.60871e-05 -2.330897e-05 -1.501852e-27)
(5.489004e-05 -2.907686e-05 0)
(5.053243e-05 -3.395327e-05 -6.643453e-28)
(4.36662e-05 -3.69527e-05 6.980839e-31)
(2.283227e-05 -3.77507e-06 7.414778e-28)
(4.76562e-05 -1.163071e-05 0)
(5.957183e-05 -1.922032e-05 0)
(6.343604e-05 -2.636399e-05 2.020171e-29)
(6.208671e-05 -3.284508e-05 8.189192e-28)
(5.71804e-05 -3.832782e-05 0)
(4.949454e-05 -4.174382e-05 -6.696983e-28)
(2.575581e-05 -4.285068e-06 1.657243e-27)
(5.382832e-05 -1.317616e-05 0)
(6.731818e-05 -2.173489e-05 0)
(7.167876e-05 -2.975268e-05 9.123865e-28)
(7.010267e-05 -3.697569e-05 1.736541e-27)
(6.456646e-05 -4.30283e-05 -8.326543e-28)
(5.612443e-05 -4.694529e-05 0)
(2.90421e-05 -4.854703e-06 9.260364e-28)
(6.076615e-05 -1.489702e-05 5.721054e-30)
(7.601327e-05 -2.451832e-05 1.104781e-27)
(8.08965e-05 -3.346306e-05 2.582117e-29)
(7.899385e-05 -4.140924e-05 3.330178e-29)
(7.270359e-05 -4.791495e-05 -9.169909e-28)
(6.309622e-05 -5.221981e-05 0)
(3.273243e-05 -5.487297e-06 0)
(6.855508e-05 -1.68028e-05 -1.269038e-27)
(8.575828e-05 -2.758356e-05 1.223902e-27)
(9.11892e-05 -3.751066e-05 0)
(8.885314e-05 -4.618135e-05 -1.022805e-27)
(8.145076e-05 -5.306709e-05 1.736708e-28)
(7.024321e-05 -5.739116e-05 1.024726e-28)
(3.687097e-05 -6.186789e-06 -1.156247e-27)
(7.729095e-05 -1.890571e-05 -1.418547e-27)
(9.666777e-05 -3.094813e-05 1.366149e-27)
(0.0001026635 -4.190716e-05 0)
(9.974287e-05 -5.12623e-05 -8.091732e-29)
(9.088373e-05 -5.833291e-05 -1.557832e-31)
(7.746968e-05 -6.21691e-05 1.146893e-28)
(4.149533e-05 -6.956378e-06 -1.292097e-27)
(8.707995e-05 -2.122012e-05 -1.584834e-27)
(0.0001088768 -3.464204e-05 1.52701e-27)
(0.0001154586 -4.669455e-05 0)
(0.0001117692 -5.668481e-05 0)
(0.000101001 -6.365489e-05 -1.266878e-27)
(8.471002e-05 -6.62654e-05 2.1574e-28)
(4.664033e-05 -7.797766e-06 -1.445079e-27)
(9.804646e-05 -2.376392e-05 -1.782717e-27)
(0.0001225476 -3.870744e-05 0)
(0.0001297692 -5.195663e-05 1.540851e-27)
(0.000125176 -6.260462e-05 -1.010735e-28)
(0.0001121392 -6.929721e-05 -2.695256e-27)
(9.232959e-05 -7.000999e-05 4.149246e-28)
(5.222301e-05 -8.693772e-06 -1.607431e-27)
(0.0001102524 -2.650533e-05 0)
(0.0001378673 -4.317201e-05 -1.93962e-27)
(0.0001458357 -5.778817e-05 1.767703e-27)
(0.0001403209 -6.928014e-05 -1.698342e-27)
(0.0001249626 -7.597532e-05 -3.139909e-27)
(0.0001014626 -7.537552e-05 -1.436044e-27)
(5.824747e-05 -9.60447e-06 0)
(0.0001237559 -2.945749e-05 0)
(0.0001550059 -4.801427e-05 -4.27459e-27)
(0.0001639029 -6.418938e-05 0)
(0.0001574892 -7.674509e-05 -3.797256e-27)
(0.0001398114 -8.37492e-05 -1.755274e-27)
(0.0001126369 -8.229214e-05 1.596066e-27)
(6.520162e-05 -1.060687e-05 -1.993881e-27)
(0.0001384973 -3.250454e-05 2.457097e-27)
(0.0001741389 -5.305187e-05 2.387224e-27)
(0.0001843088 -7.10525e-05 0)
(0.000176966 -8.486565e-05 -2.124879e-27)
(0.0001569282 -9.241195e-05 0)
(0.000126112 -9.044466e-05 1.398026e-27)
(7.290619e-05 -1.158026e-05 -2.213344e-27)
(0.0001545371 -3.539724e-05 2.74426e-27)
(0.000194994 -5.804441e-05 8.047276e-27)
(0.0002075052 -7.805526e-05 5.239114e-27)
(0.0001991708 -9.337209e-05 -2.224818e-27)
(0.0001766388 -0.000101614 1.859963e-28)
(0.0001418019 -9.924371e-05 -2.133878e-28)
(8.150811e-05 -1.24945e-05 3.769282e-30)
(0.0001727424 -3.819926e-05 1.468641e-29)
(0.0002179968 -6.256385e-05 3.06846e-27)
(0.0002331744 -8.47759e-05 5.605079e-27)
(0.0002246676 -0.0001018016 -3.033994e-27)
(0.0001997209 -0.0001108685 4.138704e-28)
(0.0001604908 -0.0001081438 9.545085e-28)
(9.128052e-05 -1.332604e-05 -4.12498e-30)
(0.0001935281 -4.073485e-05 -1.612051e-29)
(0.0002442691 -6.672206e-05 3.194754e-27)
(0.0002620837 -9.062607e-05 1.98888e-27)
(0.0002552418 -0.0001095189 -1.81812e-27)
(0.0002280355 -0.000119666 2.326747e-27)
(0.0001840129 -0.0001166111 0)
(0.0001027934 -1.407948e-05 0)
(0.0002180424 -4.284047e-05 0)
(0.0002749491 -6.983642e-05 3.664779e-27)
(0.0002956937 -9.461576e-05 3.867415e-27)
(0.0002913285 -0.0001155692 5.416938e-27)
(0.0002654982 -0.0001277451 5.149098e-27)
(0.0002170479 -0.0001252429 0)
(0.0001164285 -1.46696e-05 -9.637813e-30)
(0.0002480429 -4.452e-05 3.661697e-29)
(0.0003124557 -7.18665e-05 1.255547e-28)
(0.0003364344 -9.700413e-05 0)
(0.0003357239 -0.0001190649 7.580437e-27)
(0.0003137376 -0.0001344464 -5.705698e-28)
(0.0002655641 -0.0001346006 -1.348283e-27)
(0.000130541 -1.426635e-05 -3.70468e-27)
(0.0002860153 -4.584727e-05 4.063985e-29)
(0.0003597202 -7.276377e-05 -4.523226e-27)
(0.0003875968 -9.727317e-05 0)
(0.0003910257 -0.0001196209 4.696671e-27)
(0.0003766005 -0.0001364655 3.141956e-28)
(0.0003419812 -0.000140795 -6.415708e-27)
(0.0001913105 -2.775466e-05 -4.23061e-27)
(0.0003435448 -5.009075e-05 -5.034212e-27)
(0.0004232338 -7.352183e-05 -5.014498e-27)
(0.0004516122 -9.355656e-05 -3.984162e-28)
(0.0004594426 -0.0001126964 -1.007817e-27)
(0.0004625984 -0.0001345954 2.623074e-27)
(0.0004667728 -0.000179418 -2.43414e-27)
(0.0002357927 -3.633143e-05 0)
(0.0004515455 -7.158149e-05 5.254253e-27)
(0.0005126138 -7.790087e-05 5.431744e-27)
(0.0005322824 -8.568771e-05 2.069559e-28)
(0.0005504123 -0.0001060476 -5.290444e-27)
(0.0005949425 -0.0001625919 -4.593198e-28)
(0.000672649 -0.0002859886 0)
(0.0003470829 -5.357652e-05 4.844947e-27)
(0.0005435807 -6.801712e-05 1.194239e-26)
(0.0006072121 -6.877053e-05 5.571231e-27)
(0.0006411053 -8.102678e-05 1.178243e-26)
(0.0006870413 -0.0001157757 -5.889898e-27)
(0.0008027369 -0.0002360316 4.792698e-27)
(0.0009794883 -0.0004373627 1.95539e-25)
(0.000414067 -5.056903e-05 6.85158e-27)
(0.0006900481 -7.059241e-05 -1.805153e-29)
(0.0007408815 -6.58484e-05 0)
(0.0007758598 -7.224717e-05 1.783891e-28)
(0.0008715882 -0.0001430237 1.21181e-26)
(0.001072615 -0.000335026 1.390262e-25)
(0.001434887 -0.0006219898 2.581756e-25)
(0.0005571136 -6.177259e-05 -8.977211e-27)
(0.0008175365 -6.451846e-05 5.945984e-29)
(0.0008454472 -4.541855e-05 1.460732e-28)
(0.000909984 -5.613123e-05 -1.597426e-26)
(0.001086891 -0.0001670169 1.343051e-25)
(0.001439824 -0.0004277032 5.456528e-25)
(0.002209328 -0.0008456883 -2.944829e-25)
(0.0007062102 -7.143905e-05 -1.084017e-26)
(0.0008923119 -3.570113e-05 0)
(0.0009328479 -1.08293e-05 2.621571e-28)
(0.00104538 -3.642997e-05 3.144004e-25)
(0.001333366 -0.0001804145 1.281685e-25)
(0.001981616 -0.0005108815 9.281134e-25)
(0.003564081 -0.001183609 -1.566083e-24)
(0.0008004596 -7.200525e-05 0)
(0.0009599968 -5.898833e-06 1.207281e-28)
(0.001025355 2.702394e-05 1.989026e-27)
(0.001198139 -1.592975e-05 2.816457e-25)
(0.001629415 -0.0001881957 -5.833615e-25)
(0.002771186 -0.0006044499 3.694356e-26)
(0.005514016 -0.001729267 -2.577379e-24)
(0.0008505419 -7.301745e-05 0)
(0.001025883 1.725968e-05 1.602269e-25)
(0.001131212 5.659234e-05 -1.957641e-25)
(0.001383075 1.232817e-05 1.49755e-25)
(0.002047773 -0.0001659836 -2.149199e-25)
(0.003846695 -0.0006785913 -6.517788e-25)
(0.007869088 -0.002630658 -8.083517e-25)
(0.0008518776 -7.276024e-05 -1.401548e-26)
(0.001095642 3.195713e-05 3.309423e-25)
(0.001248197 8.219689e-05 -9.778995e-26)
(0.001605757 5.252511e-05 3.645417e-25)
(0.002569385 -9.052349e-05 2.374502e-25)
(0.005148918 -0.0006837403 2.508063e-25)
(0.01015075 -0.003365906 -3.007684e-24)
(0.0008102219 -6.953852e-05 -6.903773e-27)
(0.001170691 3.62285e-05 -1.332241e-25)
(0.001391258 0.0001072345 -1.316695e-25)
(0.00187855 0.0001231573 3.185873e-25)
(0.003219223 6.55944e-05 1.584116e-25)
(0.006594554 -0.0005558736 1.615288e-24)
(0.01226757 -0.003948007 -9.772497e-24)
(0.00072802 -5.580412e-05 2.309887e-25)
(0.001238906 3.911428e-05 -2.617312e-25)
(0.001550255 0.0001563268 -1.138387e-25)
(0.002210768 0.0002562334 2.187453e-25)
(0.003990948 0.0003725565 4.415481e-25)
(0.008074314 -0.0003421547 2.518315e-26)
(0.01419303 -0.005089497 -1.339827e-23)
(0.0006445231 -3.971905e-05 4.948074e-25)
(0.001247283 6.446293e-05 2.326874e-25)
(0.001717601 0.0002268627 -3.259553e-26)
(0.002609405 0.0004599911 2.630397e-25)
(0.004927297 0.0007563966 -4.503848e-25)
(0.009606642 -0.0005865839 -2.340548e-25)
(0.01556223 -0.007827595 -4.064098e-25)
(0.0005767267 -2.999702e-05 1.573104e-25)
(0.001209913 0.0001113118 7.947225e-26)
(0.001842959 0.0003524272 -6.425395e-26)
(0.003049605 0.0007769412 -1.824248e-25)
(0.005916697 0.001042647 -9.36365e-25)
(0.01072815 -0.002327679 -1.579525e-24)
(0.01617927 -0.01439773 -1.755144e-24)
(0.0004527003 -9.081482e-07 1.100638e-26)
(0.001088527 0.0002090558 -7.653903e-26)
(0.001873289 0.0005845459 -1.92429e-25)
(0.00338476 0.001208753 -7.006682e-25)
(0.00658128 0.0008240681 -2.123957e-24)
(0.0110124 -0.006414922 -5.275126e-24)
(0.01454194 -0.02649721 1.67736e-23)
(0.0003408704 3.051092e-05 1.990757e-26)
(0.0009122487 0.0003477654 1.109914e-25)
(0.00171119 0.0009280972 -2.440619e-25)
(0.003281067 0.001757403 1.468361e-25)
(0.0062573 0.0003474758 1.447959e-25)
(0.01028672 -0.01042453 -1.256422e-24)
(0.01258229 -0.03862334 5.449882e-25)
(0.0002404293 5.330571e-05 3.509622e-26)
(0.0006904916 0.0004795429 1.75487e-25)
(0.001387798 0.001315562 -1.839792e-25)
(0.002767223 0.002377574 -1.098028e-25)
(0.0052517 0.000229589 7.062865e-25)
(0.009155652 -0.01177709 1.189342e-24)
(0.01594845 -0.03751759 -2.730268e-24)
(0.0001277425 8.90489e-05 4.145375e-26)
(0.0004285659 0.0006024424 7.222541e-26)
(0.0009100595 0.001689906 -1.082177e-25)
(0.001890325 0.002945507 -1.001955e-25)
(0.003587126 0.0004250285 7.012389e-25)
(0.006312952 -0.01203726 3.475619e-24)
(0.01146177 -0.03273554 3.224401e-24)
(4.342663e-05 9.125418e-05 3.377197e-27)
(0.0001483608 0.0006934734 -1.019815e-26)
(0.0003167843 0.001888111 -8.371156e-27)
(0.0006763738 0.003285064 4.016242e-26)
(0.001330106 0.0007458945 -6.328223e-26)
(0.002280167 -0.01101099 2.550211e-25)
(0.003091501 -0.0292872 -2.115914e-24)
(-3.67698e-05 8.543365e-05 -3.743225e-27)
(-0.0001420041 0.0006803653 -7.638212e-27)
(-0.0003307891 0.001861733 8.486431e-27)
(-0.0006979563 0.003278699 -5.989928e-27)
(-0.00123748 0.0008618167 -6.209011e-25)
(-0.001893324 -0.01074704 -8.824631e-25)
(-0.002532499 -0.02868314 -6.095654e-25)
(-0.0001193419 7.954841e-05 3.050118e-27)
(-0.0004167002 0.0005706115 4.699433e-27)
(-0.0008946068 0.001618192 8.078127e-27)
(-0.001865142 0.002914228 -9.92885e-26)
(-0.003464723 0.0007592969 -3.90485e-25)
(-0.005702525 -0.01093102 -2.037071e-24)
(-0.009383347 -0.03142721 -2.420758e-24)
(-0.0002093958 6.617617e-05 -1.832031e-26)
(-0.0006612564 0.0004320379 3.4395e-26)
(-0.001325286 0.001226554 1.708659e-26)
(-0.002662772 0.002296612 9.569664e-26)
(-0.005011684 0.0006014923 -2.29391e-25)
(-0.008305607 -0.0107079 -2.660315e-24)
(-0.0138822 -0.03471081 -1.319834e-23)
(-0.0003234669 2.994223e-05 4.694389e-26)
(-0.0008670453 0.0002970451 -1.70373e-26)
(-0.001609518 0.0008123423 4.617543e-26)
(-0.003069242 0.001623998 4.602202e-25)
(-0.005878967 0.0007119124 -2.892286e-25)
(-0.009845596 -0.008795979 -5.822948e-24)
(-0.01413404 -0.03491842 -7.932758e-24)
(-0.000431722 -1.782687e-06 8.18551e-26)
(-0.001016827 0.0001752297 -6.972317e-26)
(-0.001719115 0.0004799492 3.308471e-25)
(-0.003067096 0.001028091 8.010919e-25)
(-0.006034616 0.0009917154 2.891707e-25)
(-0.01054418 -0.004704725 -7.354138e-24)
(-0.01343865 -0.02321125 -2.431281e-23)
(-0.0005426167 -2.478625e-05 -2.187237e-25)
(-0.00111898 9.315786e-05 9.765081e-26)
(-0.001675137 0.0002774622 7.380593e-25)
(-0.00270535 0.00058451 6.482048e-25)
(-0.005198885 0.0009183936 1.566009e-25)
(-0.009648163 -0.001266405 -1.88113e-24)
(-0.014256 -0.01127511 1.28613e-24)
(-0.0006073721 -3.371892e-05 -4.785089e-25)
(-0.001157957 5.3044e-05 1.047629e-25)
(-0.001546518 0.0001769778 4.428909e-25)
(-0.002273641 0.0003211542 3.038965e-25)
(-0.004142865 0.0005608433 -1.698694e-26)
(-0.008190111 -3.647207e-05 3.687508e-25)
(-0.0137972 -0.005096357 -1.499101e-24)
(-0.0007007174 -5.053705e-05 -4.237345e-25)
(-0.001143944 4.267527e-05 -1.282432e-25)
(-0.001401971 0.0001203837 -2.816759e-25)
(-0.001906612 0.0001543458 -4.468229e-25)
(-0.003222013 0.0002180491 2.14656e-25)
(-0.006444216 -5.630333e-05 3.36713e-25)
(-0.01180835 -0.002839825 2.129649e-24)
(-0.0007869837 -6.1712e-05 -1.135719e-25)
(-0.001091692 4.379161e-05 2.001001e-25)
(-0.00125581 0.0001027199 -1.037254e-27)
(-0.001605934 8.855957e-05 -6.477714e-25)
(-0.002545076 -4.637187e-06 -2.070889e-25)
(-0.004976178 -0.0003263592 3.050436e-25)
(-0.00956993 -0.002047192 -4.907095e-25)
(-0.0008582117 -7.165785e-05 -1.360656e-26)
(-0.001023194 4.329872e-05 3.472243e-25)
(-0.00113322 8.796507e-05 2.708989e-25)
(-0.00138986 4.561384e-05 -1.91495e-25)
(-0.002020159 -9.095108e-05 -3.160214e-25)
(-0.003728345 -0.0004442426 1.59799e-25)
(-0.007433115 -0.00179982 -7.458608e-25)
(-0.000876597 -7.308853e-05 0)
(-0.0009739907 2.854473e-05 -5.043384e-26)
(-0.00103684 7.045232e-05 -4.347191e-26)
(-0.001213188 3.371735e-05 -2.120195e-25)
(-0.001643809 -0.0001207598 -2.829745e-25)
(-0.002769091 -0.0004758606 1.72143e-25)
(-0.005451758 -0.001464602 1.232696e-24)
(-0.0008420081 -7.294978e-05 0)
(-0.0009259265 3.77745e-06 -1.175298e-28)
(-0.0009579705 3.680547e-05 3.267834e-26)
(-0.001072456 1.529867e-05 1.47467e-25)
(-0.001365962 -0.0001092886 -3.292687e-25)
(-0.002069865 -0.0004283354 1.460017e-25)
(-0.003767285 -0.001089832 1.796422e-25)
(-0.0007483147 -6.949769e-05 -1.154182e-26)
(-0.0008676762 -2.231452e-05 0)
(-0.0008821342 4.611409e-06 0)
(-0.0009527027 -8.985998e-06 1.25689e-25)
(-0.001150976 -0.0001145108 6.838184e-25)
(-0.001578689 -0.0003727987 -3.156574e-25)
(-0.002534018 -0.0008237151 -1.263129e-24)
(-0.0006140642 -6.399153e-05 -9.741542e-27)
(-0.0008049435 -4.97193e-05 -6.557266e-29)
(-0.0008089868 -2.766261e-05 -1.315498e-28)
(-0.0008394624 -2.776452e-05 -1.287871e-27)
(-0.0009703201 -0.0001089061 5.406627e-25)
(-0.001234423 -0.0003141791 -2.94011e-25)
(-0.00174638 -0.0006354153 4.812983e-25)
(-0.0004465986 -5.06096e-05 0)
(-0.0007096272 -6.613652e-05 8.476155e-27)
(-0.0007256487 -5.377076e-05 0)
(-0.0007360727 -5.322697e-05 -3.881121e-28)
(-0.0008116881 -0.00010878 -3.869657e-28)
(-0.0009748718 -0.0002592302 -3.026741e-26)
(-0.001254827 -0.0004844551 3.380634e-25)
(-0.0003660461 -5.063396e-05 0)
(-0.0005755769 -6.857859e-05 -6.769574e-27)
(-0.0006105412 -6.228155e-05 6.469923e-27)
(-0.0006196139 -6.438601e-05 0)
(-0.0006572244 -9.964428e-05 -7.584934e-28)
(-0.0007664991 -0.0002093477 3.939557e-27)
(-0.0009218091 -0.0003651449 7.776805e-26)
(-0.0002628569 -3.709211e-05 0)
(-0.0004811159 -7.293996e-05 -1.780162e-26)
(-0.0005190344 -7.330034e-05 -7.870728e-30)
(-0.0005272209 -8.033225e-05 -1.258538e-26)
(-0.0005332463 -9.752262e-05 -9.876561e-28)
(-0.0005784493 -0.0001534174 5.309687e-27)
(-0.0006571352 -0.0002623131 -5.152205e-27)
(-0.0001446474 -7.016374e-06 4.92315e-27)
(-0.0003598908 -5.193927e-05 -5.540812e-27)
(-0.0004305496 -7.255271e-05 1.65632e-30)
(-0.0004499304 -9.025585e-05 -1.029679e-26)
(-0.0004548561 -0.000113615 0)
(-0.0004543464 -0.0001358187 0)
(-0.0004642222 -0.0001810609 -7.441005e-27)
(-0.0001245345 -1.079905e-05 4.041264e-27)
(-0.0002907895 -4.480814e-05 -5.000693e-27)
(-0.0003652811 -7.194474e-05 4.880147e-27)
(-0.0003888261 -9.478895e-05 4.753385e-27)
(-0.0003895332 -0.0001170773 0)
(-0.0003758055 -0.0001350577 0)
(-0.0003380867 -0.0001439519 -4.473595e-27)
(-0.0001207778 -1.511415e-05 -3.619392e-27)
(-0.0002540938 -4.475511e-05 -4.660836e-27)
(-0.0003176713 -7.174452e-05 -1.268542e-28)
(-0.0003398087 -9.644218e-05 4.086392e-27)
(-0.000336862 -0.0001180658 1.329589e-27)
(-0.0003137933 -0.0001319628 -6.22721e-27)
(-0.0002628196 -0.0001282324 2.821761e-27)
(-0.000105699 -1.416658e-05 -3.283797e-27)
(-0.0002227562 -4.292376e-05 -3.650101e-29)
(-0.0002797058 -6.99726e-05 1.200173e-28)
(-0.0002998409 -9.486988e-05 1.710121e-28)
(-0.0002943931 -0.0001159337 0)
(-0.000266657 -0.0001276655 -3.933208e-27)
(-0.0002162378 -0.0001233579 3.144229e-27)
(-9.374205e-05 -1.334257e-05 0)
(-0.0001976458 -4.084477e-05 -6.650564e-29)
(-0.0002486211 -6.697904e-05 -1.125937e-28)
(-0.0002661819 -9.111281e-05 8.076246e-27)
(-0.0002588366 -0.0001103181 1.51797e-27)
(-0.000230833 -0.0001206652 5.608553e-27)
(-0.000186122 -0.0001174445 2.198871e-27)
(-8.380445e-05 -1.254091e-05 -7.922721e-30)
(-0.0001765015 -3.840731e-05 -3.103514e-29)
(-0.0002220252 -6.295149e-05 0)
(-0.000237038 -8.540117e-05 -8.795037e-30)
(-0.000228043 -0.0001027041 2.930226e-27)
(-0.0002024824 -0.0001120149 2.69328e-27)
(-0.0001625549 -0.0001093418 -5.131337e-28)
(-7.503023e-05 -1.165608e-05 2.390967e-27)
(-0.000158011 -3.568471e-05 -3.042015e-27)
(-0.000198776 -5.856133e-05 5.368584e-27)
(-0.0002111489 -7.882553e-05 -6.188548e-27)
(-0.0002023519 -9.440447e-05 2.428309e-27)
(-0.0001792157 -0.00010286 0)
(-0.0001436389 -0.0001005615 4.61634e-28)
(-6.715829e-05 -1.070542e-05 2.158637e-27)
(-0.0001417402 -3.285855e-05 -2.662875e-27)
(-0.0001776989 -5.366551e-05 2.590765e-27)
(-0.0001877399 -7.194148e-05 0)
(-0.0001799965 -8.602109e-05 -2.315779e-27)
(-0.000159393 -9.377568e-05 0)
(-0.0001278664 -9.188812e-05 1.952113e-27)
(-6.005245e-05 -9.717387e-06 0)
(-0.0001267815 -2.985099e-05 0)
(-0.0001583386 -4.868888e-05 -4.641526e-27)
(-0.0001671407 -6.514918e-05 0)
(-0.0001603782 -7.79748e-05 -4.137807e-27)
(-0.0001421811 -8.518553e-05 -1.916715e-27)
(-0.0001143529 -8.381382e-05 1.746758e-27)
(-5.389438e-05 -8.815431e-06 -1.743707e-27)
(-0.0001130591 -2.691562e-05 0)
(-0.0001409753 -4.386773e-05 -2.037005e-27)
(-0.0001488766 -5.876923e-05 2.020591e-27)
(-0.0001430539 -7.05266e-05 -1.85047e-27)
(-0.0001272287 -7.742321e-05 -3.426718e-27)
(-0.000103152 -7.691574e-05 -1.56986e-27)
(-4.817413e-05 -7.91956e-06 -1.564075e-27)
(-0.0001006268 -2.417104e-05 -1.917303e-27)
(-0.0001254222 -3.939253e-05 0)
(-0.0001325988 -5.291749e-05 1.851078e-27)
(-0.000127737 -6.382122e-05 1.095628e-28)
(-0.0001142914 -7.071143e-05 -3.200874e-27)
(-9.398472e-05 -7.152527e-05 -4.522075e-28)
(-4.289223e-05 -7.073257e-06 -1.40399e-27)
(-8.94374e-05 -2.160808e-05 -1.722702e-27)
(-0.0001115151 -3.529335e-05 1.660748e-27)
(-0.0001180674 -4.760589e-05 0)
(-0.0001141463 -5.783776e-05 0)
(-0.0001030291 -6.500213e-05 -1.381371e-27)
(-8.632241e-05 -6.77332e-05 2.328765e-27)
(-3.813593e-05 -6.295514e-06 -1.257031e-27)
(-7.943237e-05 -1.926547e-05 -1.542628e-27)
(-9.907218e-05 -3.155069e-05 1.486274e-27)
(-0.0001050482 -4.274792e-05 0)
(-0.0001019258 -5.232308e-05 8.795256e-29)
(-9.276484e-05 -5.957098e-05 1.697736e-31)
(-7.898774e-05 -6.350939e-05 -1.249377e-28)
(-3.387328e-05 -5.586077e-06 0)
(-7.049095e-05 -1.712921e-05 -1.380497e-27)
(-8.793622e-05 -2.812875e-05 1.331809e-27)
(-9.335272e-05 -3.826782e-05 0)
(-9.083641e-05 -4.712928e-05 -1.271554e-27)
(-8.316318e-05 -5.416088e-05 -1.890876e-28)
(-7.162239e-05 -5.854544e-05 -1.11692e-28)
(-3.006807e-05 -4.942864e-06 1.007457e-27)
(-6.250973e-05 -1.518822e-05 -6.217302e-30)
(-7.797687e-05 -2.500307e-05 1.181838e-27)
(-8.284784e-05 -3.413216e-05 -2.808597e-29)
(-8.07813e-05 -4.223796e-05 -3.447555e-29)
(-7.424055e-05 -4.885073e-05 -9.988574e-28)
(-6.430483e-05 -5.315045e-05 0)
(-2.667669e-05 -4.362713e-06 1.803388e-27)
(-5.539466e-05 -1.343274e-05 0)
(-6.908312e-05 -2.216083e-05 0)
(-7.343261e-05 -3.033745e-05 1.043597e-27)
(-7.170861e-05 -3.76934e-05 1.954361e-27)
(-6.593801e-05 -4.382168e-05 -9.0665e-28)
(-5.716704e-05 -4.766973e-05 0)
(-2.365785e-05 -3.842786e-06 8.070359e-28)
(-4.906117e-05 -1.185502e-05 -4.992389e-30)
(-6.115578e-05 -1.959215e-05 -8.23642e-30)
(-6.501048e-05 -2.687316e-05 -2.313226e-29)
(-6.352966e-05 -3.346797e-05 8.343002e-28)
(-5.841269e-05 -3.9013e-05 0)
(-5.042059e-05 -4.235834e-05 -7.286481e-28)
(-2.097368e-05 -3.380564e-06 -5.927064e-31)
(-4.343235e-05 -1.044894e-05 -8.940677e-28)
(-5.410526e-05 -1.729367e-05 -8.642734e-28)
(-5.750104e-05 -2.375325e-05 -1.634879e-27)
(-5.618918e-05 -2.962375e-05 0)
(-5.164947e-05 -3.456518e-05 -7.227687e-28)
(-4.452585e-05 -3.753352e-05 7.611025e-31)
(-1.858902e-05 -2.973131e-06 -6.461344e-28)
(-3.843648e-05 -9.207014e-06 -1.590545e-27)
(-4.784834e-05 -1.525855e-05 -1.541194e-27)
(-5.083545e-05 -2.098304e-05 -7.50608e-28)
(-4.966518e-05 -2.620206e-05 -2.302149e-29)
(-4.560418e-05 -3.056731e-05 -6.475288e-28)
(-3.928854e-05 -3.320721e-05 6.152462e-28)
(-1.647142e-05 -2.616395e-06 -5.786327e-28)
(-3.400548e-05 -8.11786e-06 -1.421954e-27)
(-4.230366e-05 -1.347253e-05 -6.870325e-28)
(-4.493879e-05 -1.855576e-05 0)
(-4.385744e-05 -2.322673e-05 -1.583292e-28)
(-4.01706e-05 -2.701695e-05 -2.407858e-28)
(-3.462616e-05 -2.936182e-05 -5.616317e-29)
(-1.459015e-05 -2.305131e-06 -5.182053e-28)
(-3.007456e-05 -7.165753e-06 -6.345385e-28)
(-3.738687e-05 -1.19067e-05 1.597653e-29)
(-3.970525e-05 -1.641365e-05 1.472894e-29)
(-3.871679e-05 -2.057118e-05 0)
(-3.529036e-05 -2.387255e-05 -5.180919e-28)
(-3.048834e-05 -2.597915e-05 2.520297e-29)
(-1.291774e-05 -2.034407e-06 -4.633764e-28)
(-2.658533e-05 -6.336592e-06 -5.67755e-28)
(-3.30238e-05 -1.054135e-05 9.582973e-30)
(-3.505274e-05 -1.454024e-05 6.623113e-30)
(-3.415592e-05 -1.822951e-05 0)
(-3.108208e-05 -2.115113e-05 -4.427073e-28)
(-2.685818e-05 -2.304337e-05 4.533193e-29)
(-1.142966e-05 -1.799852e-06 3.46801e-31)
(-2.348562e-05 -5.617071e-06 -1.016262e-27)
(-2.915055e-05 -9.355596e-06 4.310341e-30)
(-3.092411e-05 -1.291276e-05 5.966931e-30)
(-3.011108e-05 -1.619365e-05 0)
(-2.738202e-05 -1.879775e-05 0)
(-2.365734e-05 -2.049902e-05 0)
(-1.010412e-05 -1.596964e-06 0)
(-2.07286e-05 -4.994121e-06 -4.543625e-28)
(-2.57105e-05 -8.329844e-06 0)
(-2.726441e-05 -1.150823e-05 4.126405e-28)
(-2.652036e-05 -1.442912e-05 -1.378315e-29)
(-2.410447e-05 -1.675907e-05 -1.623093e-29)
(-2.082242e-05 -1.829426e-05 3.203717e-28)
(-8.920981e-06 -1.421711e-06 -3.295758e-28)
(-1.827218e-05 -4.456214e-06 0)
(-2.265274e-05 -7.447542e-06 7.037374e-30)
(-2.401068e-05 -1.031572e-05 3.156113e-28)
(-2.330314e-05 -1.29028e-05 -4.569406e-28)
(-2.118284e-05 -1.499064e-05 0)
(-1.830022e-05 -1.638489e-05 3.030666e-28)
(-7.862587e-06 -1.270136e-06 -2.933599e-28)
(-1.607719e-05 -3.990074e-06 0)
(-1.99187e-05 -6.679448e-06 3.205504e-30)
(-2.110213e-05 -9.266907e-06 4.495082e-30)
(-2.04025e-05 -1.157718e-05 -6.365428e-28)
(-1.856971e-05 -1.346179e-05 2.95113e-28)
(-1.604811e-05 -1.473601e-05 -2.708398e-28)
(-6.913497e-06 -1.13952e-06 0)
(-1.41106e-05 -3.588175e-06 -3.187755e-28)
(-1.746514e-05 -6.016532e-06 2.922542e-30)
(-1.848759e-05 -8.354171e-06 3.007498e-28)
(-1.784744e-05 -1.04399e-05 -2.822072e-28)
(-1.624171e-05 -1.215288e-05 2.622683e-28)
(-1.403288e-05 -1.331999e-05 1.886042e-31)
(-6.060267e-06 -1.027485e-06 0)
(-1.234444e-05 -3.243366e-06 -2.837179e-28)
(-1.526103e-05 -5.448536e-06 2.758438e-28)
(-1.613832e-05 -7.573261e-06 2.698142e-28)
(-1.556401e-05 -9.472239e-06 -2.453659e-28)
(-1.41547e-05 -1.103758e-05 1.107653e-29)
(-1.222234e-05 -1.211145e-05 2.135904e-28)
(-5.291412e-06 -9.316776e-07 0)
(-1.075418e-05 -2.948625e-06 0)
(-1.327655e-05 -4.964337e-06 2.430643e-28)
(-1.402305e-05 -6.909665e-06 -2.34588e-28)
(-1.350951e-05 -8.652575e-06 1.231429e-31)
(-1.227453e-05 -1.009352e-05 0)
(-1.058899e-05 -1.108858e-05 0)
(-4.596996e-06 -8.491128e-07 -1.78371e-28)
(-9.318788e-06 -2.695888e-06 2.192664e-28)
(-1.148509e-05 -4.55232e-06 1.042886e-28)
(-1.211286e-05 -6.348318e-06 -2.085325e-28)
(-1.165311e-05 -7.962452e-06 -1.089462e-31)
(-1.057377e-05 -9.301044e-06 9.369827e-30)