/*--------------------------------*- C++ -*----------------------------------*\
| =========                 |                                                 |
| \\      /  F ield         | OpenFOAM: The Open Source CFD Toolbox           |
|  \\    /   O peration     | Version:  2206                                  |
|   \\  /    A nd           | Website:  www.openfoam.com                      |
|    \\/     M anipulation  |                                                 |
\*---------------------------------------------------------------------------*/
FoamFile
{
    version     2.0;
    format      ascii;
    arch        "LSB;label=32;scalar=64";
    class       surfaceVectorField;
    location    "1";
    object      ddtCorrDdt0(Ufa);
}
// * * * * * * * * * * * * * * * * * * * * * * * * * * * * * * * * * * * * * //

dimensions      [0 1 -2 0 0 0 0];

internalField   nonuniform List<vector> 
26037
(
(9.65585e-07 1.0973e-05 -1.445914e-23)
(6.09187e-06 1.194218e-05 -1.024566e-28)
(6.570253e-07 5.300979e-06 1.262644e-24)
(3.540271e-06 7.484705e-06 8.099538e-27)
(4.85381e-07 -3.116257e-07 -1.298852e-29)
(1.549004e-06 1.007791e-06 -1.301802e-29)
(4.058537e-07 -3.137274e-06 -1.015591e-29)
(1.150398e-06 -2.017411e-06 0)
(3.465744e-07 -5.237623e-06 5.265919e-27)
(9.229115e-07 -4.408175e-06 -1.022132e-29)
(2.919442e-07 -6.701814e-06 -2.587741e-29)
(7.622633e-07 -6.153864e-06 -4.646989e-29)
(6.241299e-07 -7.308625e-06 -1.389458e-29)
(2.370528e-07 -7.559345e-06 3.359417e-26)
(8.359306e-06 7.699792e-06 -9.285301e-32)
(7.480442e-06 6.104961e-06 1.014552e-29)
(4.436812e-06 3.111393e-06 -9.374546e-32)
(5.383493e-06 3.472234e-06 -9.316074e-30)
(2.216729e-06 -7.160039e-07 0)
(3.124423e-06 1.268958e-07 5.802705e-30)
(1.66952e-06 -3.291451e-06 -6.664679e-32)
(2.420964e-06 -2.435334e-06 1.615671e-29)
(1.338505e-06 -5.326689e-06 -9.778175e-32)
(1.974577e-06 -4.623404e-06 -2.298216e-28)
(1.09464e-06 -6.767141e-06 -8.861511e-32)
(1.643436e-06 -6.279613e-06 -3.115604e-32)
(1.348537e-06 -7.402593e-06 -2.405398e-28)
(8.76355e-07 -7.627002e-06 -1.547597e-29)
(4.400972e-06 1.814729e-06 8.72877e-31)
(3.225453e-06 1.249497e-06 -1.372798e-25)
(4.073666e-06 4.623879e-07 -3.569359e-30)
(4.194659e-06 5.86127e-07 9.264752e-27)
(3.332507e-06 -1.61209e-06 -3.329498e-26)
(3.928434e-06 -1.055616e-06 -2.067676e-29)
(2.727436e-06 -3.772369e-06 -3.045935e-26)
(3.408808e-06 -3.102364e-06 4.240704e-30)
(2.281032e-06 -5.580349e-06 1.031768e-29)
(2.951479e-06 -4.987287e-06 8.47377e-28)
(1.898819e-06 -6.921182e-06 -8.015301e-35)
(2.522233e-06 -6.496788e-06 0)
(2.093047e-06 -7.554486e-06 2.557326e-28)
(1.531186e-06 -7.743916e-06 1.578846e-29)
(3.011769e-06 2.595069e-08 -1.665134e-29)
(2.064628e-06 8.532028e-09 1.177662e-29)
(4.052008e-06 -9.268067e-07 -5.526666e-29)
(4.01514e-06 -6.53388e-07 2.708598e-26)
(4.008155e-06 -2.566343e-06 -2.387328e-27)
(4.476321e-06 -2.081252e-06 -4.730618e-26)
(3.638659e-06 -4.325857e-06 -1.175326e-29)
(4.306322e-06 -3.767579e-06 -2.189568e-26)
(3.19481e-06 -5.908737e-06 3.932251e-31)
(3.912894e-06 -5.393506e-06 4.552108e-30)
(2.718063e-06 -7.136065e-06 1.709223e-31)
(3.424292e-06 -6.77082e-06 -8.44384e-34)
(2.874204e-06 -7.757561e-06 1.44745e-29)
(2.21301e-06 -7.898197e-06 -1.58567e-29)
(3.066021e-06 -6.584311e-07 -2.26889e-27)
(2.181228e-06 -3.423913e-07 -3.172732e-32)
(4.435666e-06 -1.798487e-06 1.088512e-27)
(4.385767e-06 -1.365405e-06 -1.945533e-29)
(4.779538e-06 -3.29667e-06 -7.375788e-29)
(5.23177e-06 -2.784461e-06 -3.796252e-29)
(4.589701e-06 -4.844147e-06 4.050829e-27)
(5.300575e-06 -4.336313e-06 -3.979262e-26)
(4.148311e-06 -6.263253e-06 4.500268e-26)
(4.948654e-06 -5.814091e-06 2.984391e-26)
(3.582848e-06 -7.398393e-06 -3.312214e-26)
(4.388339e-06 -7.086488e-06 -1.329507e-29)
(3.716161e-06 -8.015754e-06 -1.024289e-27)
(2.941554e-06 -8.099848e-06 1.430355e-29)
(3.506527e-06 -1.033046e-06 2.498671e-31)
(2.528029e-06 -5.260752e-07 0)
(5.181268e-06 -2.343325e-06 -9.747942e-28)
(5.111445e-06 -1.797589e-06 -2.979741e-29)
(5.757631e-06 -3.833771e-06 1.604644e-27)
(6.227368e-06 -3.278792e-06 -3.642828e-29)
(5.666924e-06 -5.313566e-06 -3.674901e-27)
(6.443236e-06 -4.80718e-06 -3.213151e-29)
(5.199667e-06 -6.646607e-06 -1.192262e-29)
(6.106793e-06 -6.243352e-06 -4.2843e-26)
(4.528481e-06 -7.711805e-06 4.455285e-26)
(5.458019e-06 -7.458826e-06 -1.169851e-29)
(4.64146e-06 -8.34049e-06 -3.157453e-29)
(3.73866e-06 -8.365036e-06 4.056653e-26)
(4.136051e-06 -1.2731e-06 -3.003164e-29)
(2.972492e-06 -6.417659e-07 5.845203e-29)
(6.155962e-06 -2.726233e-06 -6.60548e-29)
(6.038586e-06 -2.097028e-06 -5.043753e-26)
(6.91967e-06 -4.256744e-06 1.97531e-26)
(7.410572e-06 -3.664396e-06 -4.128086e-26)
(6.889008e-06 -5.74741e-06 -3.415682e-29)
(7.744756e-06 -5.231504e-06 -9.477382e-30)
(6.373172e-06 -7.063476e-06 -4.222715e-27)
(7.390283e-06 -6.679053e-06 -8.726993e-29)
(5.582487e-06 -8.097205e-06 1.807292e-30)
(6.650757e-06 -7.895701e-06 3.724013e-30)
(5.675504e-06 -8.75664e-06 2.183324e-30)
(4.625578e-06 -8.711695e-06 -6.515645e-31)
(4.879833e-06 -1.448316e-06 2.257281e-29)
(3.489267e-06 -7.285568e-07 1.149133e-25)
(7.291359e-06 -3.032656e-06 -7.074527e-29)
(7.104693e-06 -2.339752e-06 4.839696e-29)
(8.236067e-06 -4.631266e-06 -3.52001e-29)
(8.74829e-06 -4.009466e-06 7.05617e-30)
(8.249932e-06 -6.177535e-06 -6.309689e-29)
(9.193565e-06 -5.652221e-06 1.380524e-30)
(7.672774e-06 -7.518211e-06 -6.070614e-29)
(8.811653e-06 -7.14854e-06 -1.310369e-25)
(6.751967e-06 -8.563761e-06 -4.97096e-27)
(7.9625e-06 -8.397872e-06 3.972126e-30)
(6.825118e-06 -9.276481e-06 2.19842e-30)
(5.616023e-06 -9.162214e-06 -1.70195e-29)
(5.719588e-06 -1.601591e-06 8.426511e-29)
(4.066316e-06 -8.072862e-07 -1.446033e-25)
(8.567141e-06 -3.318019e-06 1.2619e-28)
(8.30075e-06 -2.570206e-06 1.812455e-25)
(9.707822e-06 -5.016256e-06 -2.389338e-27)
(1.024663e-05 -4.362105e-06 9.359209e-26)
(9.759053e-06 -6.640096e-06 -1.456278e-28)
(1.080138e-05 -6.106046e-06 -8.996907e-29)
(9.106755e-06 -8.035813e-06 -4.991745e-27)
(1.038217e-05 -7.680902e-06 -1.536939e-25)
(8.041222e-06 -9.118233e-06 2.053347e-30)
(9.40743e-06 -8.989193e-06 2.052714e-30)
(8.087585e-06 -9.902597e-06 0)
(6.710612e-06 -9.724533e-06 2.825143e-29)
(6.653907e-06 -1.755545e-06 1.811096e-29)
(4.706278e-06 -8.881901e-07 -7.957702e-29)
(9.987176e-06 -3.615701e-06 1.452454e-28)
(9.629697e-06 -2.813144e-06 9.773433e-29)
(1.134233e-05 -5.43623e-06 -4.234158e-29)
(1.191184e-05 -4.748367e-06 1.565159e-28)
(1.142889e-05 -7.165278e-06 -9.071647e-29)
(1.258208e-05 -6.620529e-06 -1.922931e-25)
(1.06891e-05 -8.642589e-06 -5.115369e-32)
(1.211756e-05 -8.301946e-06 1.808124e-25)
(9.46023e-06 -9.7819e-06 0)
(1.100117e-05 -9.692974e-06 0)
(9.476954e-06 -1.065679e-05 0)
(7.915667e-06 -1.040883e-05 3.857524e-29)
(7.689805e-06 -1.923751e-06 0)
(5.414869e-06 -9.774516e-07 0)
(1.156222e-05 -3.947154e-06 1.089585e-28)
(1.110482e-05 -3.084872e-06 -1.280895e-28)
(1.315322e-05 -5.915678e-06 6.370551e-30)
(1.375784e-05 -5.189471e-06 2.349982e-25)
(1.327601e-05 -7.777494e-06 -1.042609e-28)
(1.455456e-05 -7.218614e-06 1.307326e-29)
(1.243696e-05 -9.361473e-06 5.767415e-32)
(1.403788e-05 -9.034073e-06 -2.091099e-25)
(1.102539e-05 -1.057698e-05 0)
(1.276261e-05 -1.053072e-05 0)
(1.101039e-05 -1.156036e-05 1.018393e-28)
(9.242114e-06 -1.123455e-05 -3.785922e-29)
(8.838585e-06 -2.114844e-06 -1.280362e-28)
(6.201393e-06 -1.079449e-06 0)
(1.330907e-05 -4.328886e-06 -3.841147e-30)
(1.274158e-05 -3.397567e-06 -2.823775e-25)
(1.516074e-05 -6.473762e-06 2.426997e-28)
(1.58068e-05 -5.701913e-06 1.230673e-28)
(1.532259e-05 -8.497554e-06 6.089113e-27)
(1.67432e-05 -7.91922e-06 2.531749e-25)
(1.4372e-05 -1.021341e-05 -1.147243e-28)
(1.616872e-05 -9.897861e-06 -2.425203e-28)
(1.275625e-05 -1.152412e-05 1.018042e-28)
(1.471503e-05 -1.152322e-05 1.186075e-28)
(1.270789e-05 -1.263371e-05 1.971394e-25)
(1.070698e-05 -1.222218e-05 -1.606186e-26)
(1.011431e-05 -2.336158e-06 -1.461002e-28)
(7.075002e-06 -1.197738e-06 -1.334972e-28)
(1.524939e-05 -4.772823e-06 3.224705e-27)
(1.456193e-05 -3.7606e-06 -1.461241e-28)
(1.739051e-05 -7.12655e-06 1.331956e-28)
(1.808495e-05 -6.299088e-06 -2.86141e-30)
(1.759644e-05 -9.344215e-06 6.382396e-30)
(1.917624e-05 -8.738917e-06 1.34095e-28)
(1.652147e-05 -1.121891e-05 -8.982547e-30)
(1.854385e-05 -1.091434e-05 -2.942926e-25)
(1.467656e-05 -1.264382e-05 1.186974e-28)
(1.688733e-05 -1.269218e-05 2.460436e-25)
(1.459338e-05 -1.38979e-05 -2.223392e-25)
(1.23299e-05 -1.339148e-05 8.823582e-32)
(1.15339e-05 -2.593403e-06 -1.335229e-28)
(8.04758e-06 -1.334985e-06 -2.980849e-25)
(1.74089e-05 -5.289503e-06 -1.493736e-30)
(1.659057e-05 -4.181918e-06 0)
(1.987156e-05 -7.888584e-06 4.733985e-27)
(2.062109e-05 -6.992724e-06 -4.769884e-30)
(2.013273e-05 -1.033529e-05 -2.934957e-28)
(2.188125e-05 -9.68743e-06 2.015846e-28)
(1.892111e-05 -1.240117e-05 -1.547953e-28)
(2.121192e-05 -1.210135e-05 -3.963516e-25)
(1.681527e-05 -1.395844e-05 1.119293e-29)
(1.931549e-05 -1.40618e-05 1.340774e-28)
(1.669509e-05 -1.537623e-05 1.531391e-29)
(1.413415e-05 -1.476346e-05 -2.018014e-29)
(1.311699e-05 -2.891564e-06 -1.503984e-28)
(9.132858e-06 -1.493879e-06 -1.503291e-28)
(1.981631e-05 -5.888408e-06 -3.272404e-30)
(1.885684e-05 -4.669181e-06 -2.077174e-28)
(2.263535e-05 -8.771894e-06 7.986829e-27)
(2.345269e-05 -7.793196e-06 -3.273239e-30)
(2.298392e-05 -1.147083e-05 -1.101672e-25)
(2.49098e-05 -1.077641e-05 2.862289e-25)
(2.162179e-05 -1.37885e-05 -1.192208e-28)
(2.422087e-05 -1.348503e-05 -1.134828e-28)
(1.920799e-05 -1.549396e-05 1.382181e-28)
(2.203464e-05 -1.565598e-05 7.551151e-30)
(1.904475e-05 -1.709484e-05 2.820712e-25)
(1.614712e-05 -1.636228e-05 2.627487e-28)
(1.488699e-05 -3.236189e-06 -2.076171e-28)
(1.034717e-05 -1.677963e-06 0)
(2.250836e-05 -6.578845e-06 -2.077593e-28)
(2.139524e-05 -5.233048e-06 -4.734445e-25)
(2.572743e-05 -9.787921e-06 1.982287e-28)
(2.662521e-05 -8.719286e-06 -1.995937e-30)
(2.615886e-05 -1.277148e-05 -1.479415e-26)
(2.828419e-05 -1.203375e-05 1.956741e-28)
(2.462841e-05 -1.538791e-05 1.396682e-29)
(2.75559e-05 -1.507892e-05 6.403487e-30)
(2.188337e-05 -1.727348e-05 -2.280654e-26)
(2.507774e-05 -1.749973e-05 7.547871e-30)
(2.167927e-05 -1.908555e-05 1.636722e-28)
(1.839891e-05 -1.821572e-05 1.732869e-28)
(1.68716e-05 -3.635837e-06 -4.657037e-28)
(1.170805e-05 -1.891274e-06 -2.120749e-28)
(2.55314e-05 -7.37997e-06 -4.680182e-28)
(2.424633e-05 -5.886101e-06 -5.319705e-25)
(2.919872e-05 -1.09691e-05 7.007766e-27)
(3.019529e-05 -9.794322e-06 -6.422754e-30)
(2.971021e-05 -1.430552e-05 -2.807243e-30)
(3.209238e-05 -1.350701e-05 -5.824016e-30)
(2.799448e-05 -1.723516e-05 0)
(3.129558e-05 -1.692486e-05 0)
(2.488604e-05 -1.933091e-05 0)
(2.85011e-05 -1.963251e-05 -2.218011e-28)
(2.464618e-05 -2.139057e-05 -2.097977e-29)
(2.092757e-05 -2.036028e-05 -1.051931e-29)
(1.910098e-05 -4.098303e-06 1.330391e-26)
(1.323609e-05 -2.137809e-06 -4.938342e-25)
(2.893193e-05 -8.307489e-06 6.368161e-27)
(2.745299e-05 -6.640573e-06 -5.541473e-28)
(3.310915e-05 -1.233804e-05 8.005608e-27)
(3.421503e-05 -1.103686e-05 -1.179385e-29)
(3.37118e-05 -1.608419e-05 -3.10976e-30)
(3.638577e-05 -1.521206e-05 -9.852578e-30)
(3.178928e-05 -1.93727e-05 -2.243795e-28)
(3.551026e-05 -1.905705e-05 0)
(2.827514e-05 -2.171402e-05 2.97908e-26)
(3.23789e-05 -2.210526e-05 -5.052785e-25)
(2.800474e-05 -2.406347e-05 -3.259346e-29)
(2.378162e-05 -2.284493e-05 3.182855e-26)
(2.160856e-05 -4.632044e-06 1.476369e-26)
(1.495396e-05 -2.422104e-06 -5.029027e-28)
(3.276056e-05 -9.377706e-06 7.155225e-27)
(3.106354e-05 -7.509653e-06 -6.82034e-25)
(3.751448e-05 -1.391746e-05 1.822107e-26)
(3.874366e-05 -1.246718e-05 -3.228128e-28)
(3.822227e-05 -1.813727e-05 -6.901203e-30)
(4.121916e-05 -1.717216e-05 -6.790778e-30)
(3.608801e-05 -2.184466e-05 -2.408384e-28)
(4.02598e-05 -2.149644e-05 7.275697e-29)
(3.212457e-05 -2.448182e-05 -2.494841e-28)
(3.681849e-05 -2.496592e-05 -1.297505e-28)
(3.182645e-05 -2.716449e-05 1.4194e-29)
(2.702062e-05 -2.573057e-05 3.628662e-26)
(2.443191e-05 -5.24618e-06 -9.181099e-28)
(1.688704e-05 -2.748953e-06 -6.299156e-25)
(3.707433e-05 -1.060768e-05 -9.681805e-28)
(3.513251e-05 -8.507079e-06 -7.680258e-25)
(4.247517e-05 -1.572968e-05 -3.156774e-28)
(4.384975e-05 -1.410543e-05 -7.291446e-25)
(4.329984e-05 -2.049021e-05 7.209742e-29)
(4.666568e-05 -1.940801e-05 -3.28284e-28)
(4.102747e-05 -2.466144e-05 -2.369855e-25)
(4.565266e-05 -2.426797e-05 8.302041e-29)
(3.653553e-05 -2.770382e-05 -9.77015e-26)
(4.190554e-05 -2.826866e-05 -1.87672e-28)
(3.616759e-05 -3.073852e-05 2.802139e-28)
(3.071297e-05 -2.908221e-05 2.580959e-29)
(2.761329e-05 -5.950113e-06 -1.99741e-26)
(1.906361e-05 -3.123305e-06 -2.971136e-28)
(4.193862e-05 -1.201446e-05 -1.099166e-26)
(3.972023e-05 -9.647426e-06 -8.694141e-25)
(4.806814e-05 -1.779469e-05 -1.02987e-27)
(4.961003e-05 -1.597514e-05 -8.350894e-25)
(4.902908e-05 -2.316095e-05 -2.669978e-26)
(5.280799e-05 -2.195326e-05 -7.900348e-25)
(4.657684e-05 -2.783634e-05 -2.811927e-28)
(5.167656e-05 -2.739928e-05 1.057296e-29)
(4.148776e-05 -3.136627e-05 -3.48849e-29)
(4.754445e-05 -3.19842e-05 -6.519244e-25)
(4.106057e-05 -3.479982e-05 6.155839e-25)
(3.489832e-05 -3.293545e-05 4.805588e-26)
(3.119939e-05 -6.753868e-06 -4.05321e-28)
(2.151461e-05 -3.549617e-06 3.708117e-28)
(4.742654e-05 -1.361898e-05 -1.153176e-26)
(4.489221e-05 -1.094373e-05 -4.053802e-28)
(5.438496e-05 -2.014879e-05 -1.140928e-27)
(5.610686e-05 -1.809658e-05 -3.900614e-28)
(5.548948e-05 -2.620037e-05 -7.521287e-28)
(5.974159e-05 -2.483795e-05 -8.94312e-25)
(5.275649e-05 -3.147903e-05 -3.252631e-28)
(5.84699e-05 -3.096249e-05 4.095791e-28)
(4.704374e-05 -3.549632e-05 -3.264489e-28)
(5.383919e-05 -3.614189e-05 -3.321557e-28)
(4.656117e-05 -3.934859e-05 -7.760663e-25)
(3.962457e-05 -3.730807e-05 -2.299819e-28)
(3.523959e-05 -7.664727e-06 3.708788e-28)
(2.427324e-05 -4.03133e-06 9.034885e-25)
(5.361161e-05 -1.543333e-05 0)
(5.071716e-05 -1.240504e-05 0)
(6.150304e-05 -2.280254e-05 1.009638e-29)
(6.342114e-05 -2.047926e-05 0)
(6.276241e-05 -2.961305e-05 -3.513714e-26)
(6.753474e-05 -2.806005e-05 1.016598e-24)
(5.96846e-05 -3.554622e-05 4.179938e-28)
(6.607231e-05 -3.491187e-05 9.772411e-25)
(5.327882e-05 -4.008071e-05 -3.399481e-28)
(6.084735e-05 -4.067456e-05 -4.154721e-28)
(5.275365e-05 -4.43235e-05 -3.377443e-28)
(4.492072e-05 -4.216899e-05 -6.697064e-28)
(3.978672e-05 -8.687922e-06 8.289395e-28)
(2.737566e-05 -4.571346e-06 1.014342e-24)
(6.057048e-05 -1.746423e-05 0)
(5.726917e-05 -1.403845e-05 2.861225e-30)
(6.949746e-05 -2.57552e-05 4.559907e-28)
(7.163914e-05 -2.312852e-05 5.525396e-28)
(7.08916e-05 -3.337415e-05 3.826205e-26)
(7.626296e-05 -3.160982e-05 4.689699e-28)
(6.737261e-05 -3.997339e-05 4.696407e-28)
(7.452975e-05 -3.919549e-05 9.511548e-25)
(6.036225e-05 -4.500005e-05 -4.180774e-28)
(6.865779e-05 -4.549449e-05 -5.966487e-25)
(5.959502e-05 -4.959032e-05 0)
(5.076606e-05 -4.737763e-05 3.330113e-28)
(4.489799e-05 -9.828086e-06 4.660581e-28)
(3.086118e-05 -5.172679e-06 4.629217e-28)
(6.838651e-05 -1.971745e-05 -1.46512e-26)
(6.462913e-05 -1.585206e-05 -6.318154e-28)
(7.845375e-05 -2.900381e-05 5.655408e-28)
(8.085591e-05 -2.605316e-05 1.338913e-24)
(7.99456e-05 -3.745212e-05 -4.677174e-26)
(8.601466e-05 -3.548915e-05 1.290642e-29)
(7.585732e-05 -4.467198e-05 -4.405298e-28)
(8.389723e-05 -4.379767e-05 -1.200139e-24)
(6.801605e-05 -5.004003e-05 -4.696016e-28)
(7.705635e-05 -5.049491e-05 -3.71115e-28)
(6.664685e-05 -5.480825e-05 5.125375e-29)
(5.68239e-05 -5.25201e-05 3.238931e-28)
(5.063677e-05 -1.109157e-05 -6.342695e-28)
(3.477268e-05 -5.838976e-06 -5.782573e-28)
(7.715302e-05 -2.220408e-05 -2.309422e-29)
(7.288776e-05 -1.785673e-05 -1.561879e-24)
(8.847245e-05 -3.256165e-05 6.122286e-28)
(9.11796e-05 -2.926839e-05 1.295047e-27)
(9.002168e-05 -4.186387e-05 -5.111403e-28)
(9.689476e-05 -3.971152e-05 0)
(8.515942e-05 -4.963913e-05 -1.143625e-25)
(9.426841e-05 -4.872447e-05 -5.51688e-28)
(7.599409e-05 -5.520013e-05 -1.444224e-25)
(8.613978e-05 -5.570261e-05 8.672331e-29)
(7.382984e-05 -5.978245e-05 1.085814e-28)
(6.291455e-05 -5.738594e-05 -6.50443e-30)
(5.707266e-05 -1.248605e-05 -1.287343e-27)
(3.915107e-05 -6.573763e-06 -1.400477e-24)
(8.697524e-05 -2.493914e-05 -2.678626e-29)
(8.214498e-05 -2.006561e-05 -1.5017e-27)
(9.966418e-05 -3.644374e-05 6.833908e-28)
(0.000102735 -3.279802e-05 1.681694e-24)
(0.0001012038 -4.66046e-05 -4.043746e-29)
(0.0001090259 -4.430388e-05 0)
(9.53223e-05 -5.481495e-05 1.278558e-25)
(0.0001057227 -5.397657e-05 -4.044324e-29)
(8.43536e-05 -6.023098e-05 -1.590688e-25)
(9.590886e-05 -6.099637e-05 -6.336502e-28)
(8.105126e-05 -6.42145e-05 1.650878e-28)
(6.873921e-05 -6.149841e-05 5.212082e-28)
(6.42701e-05 -1.401778e-05 -1.438352e-27)
(4.403338e-05 -7.379567e-06 -1.368615e-27)
(9.797585e-05 -2.794635e-05 -2.92635e-29)
(9.251739e-05 -2.249527e-05 -2.009478e-24)
(0.0001121661 -4.068618e-05 7.638573e-28)
(0.0001156707 -3.667812e-05 7.632589e-28)
(0.0001136148 -5.171151e-05 0)
(0.0001225749 -4.932907e-05 7.707128e-28)
(0.0001063931 -6.018962e-05 -6.324814e-28)
(0.0001184372 -5.964817e-05 -5.05583e-29)
(9.299792e-05 -6.495788e-05 -5.385491e-28)
(0.0001065474 -6.648087e-05 -1.244419e-24)
(8.855899e-05 -6.815947e-05 1.953664e-25)
(7.421516e-05 -6.426596e-05 9.543801e-25)
(7.23057e-05 -1.569446e-05 -9.776785e-26)
(4.939325e-05 -8.247975e-06 -1.584508e-24)
(0.000110298 -3.125597e-05 -8.912814e-28)
(0.0001040797 -2.513505e-05 -8.935e-28)
(0.0001261567 -4.535212e-05 7.700824e-28)
(0.0001301569 -4.094299e-05 -9.698132e-28)
(0.0001274736 -5.73061e-05 1.471727e-25)
(0.0001377578 -5.487644e-05 2.046916e-24)
(0.0001186615 -6.598288e-05 -1.397335e-27)
(0.0001327059 -6.594655e-05 -9.000557e-28)
(0.0001022691 -6.969234e-05 -2.092536e-25)
(0.0001185096 -7.264053e-05 -1.910028e-24)
(9.68572e-05 -7.269881e-05 -1.908969e-24)
(7.868292e-05 -6.549388e-05 -9.243954e-25)
(8.105571e-05 -1.7458e-05 -8.087812e-28)
(5.520565e-05 -9.152798e-06 -8.014178e-28)
(0.0001240942 -3.488393e-05 -9.722304e-28)
(0.0001169574 -2.798764e-05 0)
(0.0001418513 -5.050607e-05 6.777047e-26)
(0.0001463792 -4.559728e-05 -2.506594e-24)
(0.0001430796 -6.356178e-05 3.557015e-29)
(0.0001548188 -6.099342e-05 8.835181e-28)
(0.0001326462 -7.266156e-05 -2.418686e-27)
(0.0001488573 -7.301748e-05 -2.219102e-24)
(0.0001132427 -7.571612e-05 -2.29018e-27)
(0.0001323397 -7.986718e-05 -2.187238e-24)
(0.0001069999 -7.883784e-05 8.045317e-29)
(8.518516e-05 -6.920851e-05 -1.895664e-27)
(9.064368e-05 -1.932604e-05 0)
(6.167823e-05 -1.010896e-05 -9.974086e-28)
(0.0001394299 -3.878326e-05 -2.144007e-27)
(0.0001310627 -3.098247e-05 1.226468e-27)
(0.000159457 -5.613688e-05 -2.13597e-27)
(0.0001644516 -5.052449e-05 -2.992786e-24)
(0.0001606973 -7.049766e-05 -1.897738e-27)
(0.0001740315 -6.762334e-05 0)
(0.0001486554 -8.028217e-05 -2.776886e-27)
(0.000167174 -8.081081e-05 -2.487091e-24)
(0.0001262489 -8.306029e-05 -8.269609e-29)
(0.0001483203 -8.808625e-05 -8.771543e-28)
(0.0001193411 -8.637695e-05 1.858381e-24)
(9.382103e-05 -7.487668e-05 8.091598e-28)
(0.0001015613 -2.135639e-05 -2.91378e-25)
(6.900798e-05 -1.109699e-05 -2.115923e-24)
(0.0001562083 -4.273102e-05 2.422375e-27)
(0.0001465081 -3.396245e-05 2.348657e-24)
(0.000179249 -6.213075e-05 1.18765e-27)
(0.0001844993 -5.555149e-05 5.066956e-24)
(0.0001806343 -7.800812e-05 -1.063263e-27)
(0.0001957263 -7.453256e-05 2.598867e-27)
(0.0001669522 -8.867812e-05 -1.063012e-27)
(0.0001879955 -8.912263e-05 -2.174838e-27)
(0.0001415306 -9.147838e-05 6.985183e-28)
(0.0001667234 -9.70196e-05 9.304886e-29)
(0.0001339001 -9.485079e-05 5.917871e-28)
(0.0001049835 -8.217306e-05 8.350312e-25)
(0.0001136549 -2.334958e-05 2.613886e-28)
(7.715157e-05 -1.204145e-05 -1.104324e-27)
(0.0001745474 -4.660281e-05 5.367183e-27)
(0.0001635856 -3.680425e-05 1.377791e-27)
(0.0002012066 -6.800161e-05 6.652691e-27)
(0.0002065437 -6.032752e-05 2.310261e-24)
(0.0002032975 -8.58467e-05 -3.079206e-25)
(0.0002203059 -8.143449e-05 6.50319e-24)
(0.0001879003 -9.754155e-05 -1.018971e-27)
(0.0002118309 -9.759276e-05 -3.770016e-24)
(0.0001592311 -0.0001004841 -2.843052e-25)
(0.0001881088 -0.0001062487 2.999941e-28)
(0.0001510775 -0.0001037013 3.709457e-28)
(0.000117756 -8.990606e-05 9.925277e-25)
(0.0001270888 -2.52095e-05 1.638269e-25)
(8.633607e-05 -1.291467e-05 -1.795018e-31)
(0.0001953126 -5.036509e-05 1.53773e-27)
(0.0001830634 -3.947288e-05 -7.246246e-31)
(0.0002254244 -7.345473e-05 -1.017356e-25)
(0.0002310645 -6.465004e-05 3.13166e-27)
(0.0002288651 -9.343058e-05 3.17051e-25)
(0.0002475082 -8.769579e-05 3.804098e-27)
(0.0002121715 -0.0001063984 -1.306979e-27)
(0.0002396656 -0.0001056243 -2.433044e-27)
(0.0001801163 -0.000109564 -5.951953e-25)
(0.0002137525 -0.0001152691 1.369123e-27)
(0.0001721724 -0.0001123855 4.769652e-28)
(0.0001331231 -9.774387e-05 -1.044419e-24)
(0.0001423656 -2.687789e-05 -1.832718e-25)
(9.697496e-05 -1.370761e-05 -2.061583e-30)
(0.0002188588 -5.371764e-05 1.586803e-27)
(0.0002057105 -4.179387e-05 -8.056185e-30)
(0.0002530379 -7.848857e-05 3.923409e-27)
(0.0002595521 -6.828612e-05 3.298218e-24)
(0.0002586828 -0.0001000354 8.434047e-25)
(0.0002790206 -9.264824e-05 2.698892e-24)
(0.0002414772 -0.0001147146 6.462126e-25)
(0.0002731815 -0.0001125502 1.795908e-27)
(0.0002059867 -0.000118213 1.161436e-27)
(0.0002463485 -0.0001236603 6.625711e-24)
(0.0002004096 -0.0001209328 0)
(0.0001529424 -0.0001052194 -6.85096e-29)
(0.0001603758 -2.829296e-05 0)
(0.0001095567 -1.437899e-05 -4.82111e-30)
(0.0002464708 -5.633984e-05 1.830787e-27)
(0.0002329745 -4.368618e-05 1.83178e-29)
(0.0002852926 -8.219511e-05 3.765816e-27)
(0.0002936342 -7.085768e-05 1.894075e-27)
(0.0002935505 -0.000104894 1.045375e-25)
(0.000316038 -9.581765e-05 1.929237e-27)
(0.0002785059 -0.0001216335 -8.130419e-25)
(0.0003138109 -0.0001173481 2.528916e-24)
(0.0002408486 -0.0001265829 2.529624e-27)
(0.0002896385 -0.0001311285 2.272939e-27)
(0.000241124 -0.0001299338 -6.740276e-28)
(0.0001827307 -0.0001133111 -1.172192e-27)
(0.000182189 -2.941167e-05 -4.448505e-25)
(0.0001234504 -1.447082e-05 -1.857998e-27)
(0.0002802232 -5.819353e-05 -5.864006e-26)
(0.0002669673 -4.518936e-05 3.862941e-29)
(0.0003244328 -8.443379e-05 6.284081e-29)
(0.000336022 -7.232121e-05 -2.200187e-27)
(0.0003360805 -0.0001080011 3.775111e-27)
(0.0003619421 -9.714516e-05 0)
(0.0003250882 -0.000126518 3.637531e-27)
(0.0003633003 -0.000119351 4.835758e-24)
(0.0002890717 -0.0001345282 2.958452e-26)
(0.0003448769 -0.0001354607 -1.309904e-28)
(0.0003028732 -0.0001376591 -3.836554e-27)
(0.0002282986 -0.0001209984 1.60811e-24)
(0.0002082233 -2.984582e-05 5.134679e-25)
(0.0001608531 -2.101885e-05 -3.606825e-24)
(0.0003228395 -5.930081e-05 -2.239547e-27)
(0.000314732 -4.797281e-05 -2.496798e-27)
(0.0003736457 -8.500973e-05 -2.263688e-27)
(0.000391424 -7.314835e-05 -3.127238e-24)
(0.0003893075 -0.0001084029 2.342891e-27)
(0.0004195427 -9.541971e-05 -1.99345e-28)
(0.0003839882 -0.0001277986 4.27526e-25)
(0.0004252224 -0.0001161575 1.839086e-27)
(0.0003594166 -0.0001385927 -1.746384e-24)
(0.0004204116 -0.0001355126 -1.431364e-25)
(0.0004046938 -0.0001602534 -4.411262e-27)
(0.0003043962 -0.0001375995 4.578756e-24)
(0.0002673134 -3.872698e-05 4.560667e-25)
(0.0002136558 -3.202732e-05 -2.117784e-27)
(0.0003833793 -6.179309e-05 -5.024358e-27)
(0.0003973376 -6.079666e-05 -2.914901e-25)
(0.0004374114 -8.352435e-05 -2.708343e-27)
(0.0004678526 -7.571435e-05 2.062194e-28)
(0.0004555231 -0.0001031154 -6.263653e-27)
(0.0004919059 -8.962477e-05 -9.554902e-29)
(0.0004610122 -0.0001236348 4.470973e-25)
(0.000504944 -0.0001093708 -3.150833e-27)
(0.0004646042 -0.000156062 -1.197305e-24)
(0.0005288325 -0.0001486184 1.079489e-27)
(0.000568696 -0.0002323384 -1.226157e-27)
(0.0004508018 -0.0002091032 -1.838639e-24)
(0.0003428872 -5.353287e-05 2.607991e-27)
(0.0002914786 -4.500488e-05 2.432819e-27)
(0.0004821478 -7.469601e-05 -2.637051e-25)
(0.0004974428 -6.980735e-05 5.2089e-24)
(0.0005224506 -8.177663e-05 9.919231e-26)
(0.0005594795 -7.337685e-05 2.771428e-24)
(0.0005413385 -9.590397e-05 -2.539219e-27)
(0.0005865436 -8.336732e-05 5.98922e-27)
(0.0005726157 -0.0001342438 2.115663e-26)
(0.0006186277 -0.0001109262 -6.482714e-24)
(0.000632656 -0.0002221313 -2.364401e-28)
(0.0006987709 -0.0001994175 2.172655e-27)
(0.0008288847 -0.000363426 9.99663e-26)
(0.0006991991 -0.0003481601 1.568126e-25)
(0.0004444162 -6.05107e-05 8.36056e-27)
(0.0003802994 -5.20938e-05 1.442005e-23)
(0.0005751637 -6.835363e-05 -7.451063e-25)
(0.0006171344 -6.933725e-05 5.912144e-27)
(0.000624262 -7.489916e-05 8.695667e-27)
(0.0006738927 -6.731757e-05 2.78982e-27)
(0.0006640898 -9.842475e-05 2.939862e-27)
(0.0007075565 -7.669979e-05 9.709229e-24)
(0.0007448271 -0.0001757254 -1.171181e-24)
(0.0007790436 -0.0001293906 3.100878e-27)
(0.000890641 -0.0003353623 9.964311e-26)
(0.0009373896 -0.0002855979 1.750421e-23)
(0.001226402 -0.0005285568 -7.196197e-20)
(0.00109803 -0.0002848486 -1.672299e-19)
(0.0005517747 -6.036501e-05 -4.998759e-25)
(0.000485423 -5.619075e-05 -1.068138e-27)
(0.0007151243 -6.838906e-05 -9.146194e-30)
(0.0007539677 -6.754557e-05 2.077506e-29)
(0.0007582442 -6.894721e-05 8.853364e-29)
(0.0007938885 -5.549975e-05 7.395659e-29)
(0.0008242044 -0.000107987 6.208156e-27)
(0.0008428622 -6.419609e-05 4.510998e-24)
(0.0009722323 -0.000238588 7.565228e-26)
(0.0009772462 -0.0001548408 1.889335e-23)
(0.001264072 9.95188e-05 -1.476339e-19)
(0.001300181 -0.0003776916 -3.426046e-20)
(0.002100091 -0.0007124931 -2.014641e-19)
(0.001847129 0.002594643 1.429163e-18)
(0.0006871989 -6.320492e-05 -4.463245e-27)
(0.0006317418 -6.660325e-05 2.490201e-24)
(0.0008314537 -5.514045e-05 -7.578127e-25)
(0.0008551354 -5.00917e-05 2.972474e-29)
(0.0008771534 -5.054417e-05 -7.773157e-27)
(0.000889381 -2.807224e-05 2.04257e-28)
(0.0009977991 -0.0001107534 -1.593647e-23)
(0.0009789465 -4.610432e-05 1.520114e-25)
(0.001279924 0.0002967019 3.465976e-19)
(0.001290235 -0.000162425 -5.967365e-20)
(0.001907059 0.003524182 2.594033e-18)
(0.002079164 -0.0004336427 -1.000613e-18)
(0.003886849 -0.0009295147 3.308865e-18)
(0.003257468 0.01073304 -2.344367e-18)
(0.0007991228 -5.381947e-05 -5.428078e-27)
(0.00075347 -7.170506e-05 -5.428817e-27)
(0.0009125675 -2.33634e-05 1.310032e-28)
(0.000926256 -2.083879e-05 6.013056e-29)
(0.0009889318 -2.334285e-05 2.689904e-24)
(0.000979232 8.094645e-06 1.124925e-27)
(0.001195645 0.0003410638 -2.537752e-19)
(0.001154491 -2.370598e-05 -6.648105e-20)
(0.001918105 0.003409138 -1.112816e-17)
(0.001774092 -0.0001603817 1.053611e-18)
(0.003153841 0.01139332 -1.193493e-17)
(0.004140386 -0.0002836424 1.756938e-18)
(0.006843019 -0.001227151 -2.096134e-18)
(0.005763816 0.02343001 -7.227699e-18)
(0.0008797596 -3.938193e-05 6.001146e-29)
(0.0008259686 -7.249022e-05 0)
(0.0009927412 1.058131e-05 -1.479932e-25)
(0.0009931704 5.68433e-06 8.000129e-26)
(0.001114398 0.0002149929 -2.199604e-20)
(0.001094129 4.293303e-05 -7.970975e-21)
(0.00146533 0.003103509 2.320888e-18)
(0.001521295 1.682495e-05 -6.87743e-20)
(0.002495623 0.010765 1.882931e-17)
(0.00262849 -0.0001167921 2.745568e-18)
(0.006205046 0.02286362 -3.935835e-17)
(0.005270811 -0.0004751219 4.979716e-19)
(0.01340413 -0.00103681 2.243009e-17)
(0.009369447 0.03905689 -4.342387e-18)
(0.0009375251 -2.834192e-05 7.948599e-26)
(0.0008517988 -7.284995e-05 -7.016883e-27)
(0.001078394 3.72992e-05 1.29596e-22)
(0.001061569 2.471071e-05 -5.607255e-22)
(0.001314941 0.001736031 3.454014e-18)
(0.001288053 7.619963e-05 1.452278e-19)
(0.001909972 0.009231547 -3.860668e-19)
(0.002475331 0.0001563984 -8.025657e-19)
(0.003422827 0.0217754 -3.591005e-17)
(0.00405204 2.352644e-05 4.628671e-19)
(0.007192265 0.03821219 1.43872e-17)
(0.00737314 -0.0004587189 -4.176287e-18)
(0.01406334 -0.002581831 -5.177337e-18)
(0.01721276 0.056544 -1.367511e-16)
(0.0009736054 -2.023118e-05 7.621442e-25)
(0.0008318496 -7.109279e-05 3.853731e-23)
(0.00117824 0.0007524936 -3.241966e-19)
(0.001178628 3.713813e-05 -1.730459e-19)
(0.001519476 0.005938005 -1.254191e-18)
(0.001639885 0.0001157767 -9.554138e-20)
(0.002877537 0.01749984 -6.118715e-18)
(0.002825808 0.0001674389 -2.223728e-18)
(0.004811061 0.03499848 -3.867199e-17)
(0.007346118 0.0006269867 -6.526614e-18)
(0.009385489 0.05599939 1.047977e-17)
(0.01035637 -0.0002383752 4.630179e-19)
(0.01819817 -0.003029728 -1.155746e-17)
(0.01640947 0.07840282 1.782856e-17)
(0.0009905627 4.09716e-05 1.795164e-21)
(0.0007736727 -6.234559e-05 2.260307e-21)
(0.001305727 0.003197386 1.178239e-18)
(0.001371039 4.918264e-05 5.146346e-20)
(0.001795886 0.01264744 6.494718e-18)
(0.002162408 0.000178825 5.266115e-19)
(0.003151871 0.02805169 4.994178e-18)
(0.003659587 0.0002978225 -4.00146e-18)
(0.00787808 0.04925256 -1.330688e-16)
(0.006717459 0.0004429071 -1.246291e-17)
(0.01473627 0.07345638 8.973824e-17)
(0.01221963 -9.914063e-05 -4.687629e-18)
(0.03037078 -0.001520718 -6.625956e-17)
(0.01995536 0.1006686 2.122119e-16)
(0.0009858348 0.0007214644 -2.378569e-19)
(0.0007334602 -4.435622e-05 5.40803e-20)
(0.001446505 0.007257853 6.535617e-19)
(0.001613885 7.821819e-05 -4.343811e-19)
(0.002118936 0.02065347 -1.266815e-17)
(0.002787704 0.0002728588 2.540518e-19)
(0.003773253 0.04031512 6.604436e-18)
(0.004763679 0.0005210668 1.55753e-18)
(0.007655469 0.06506913 -5.301199e-17)
(0.008361663 0.0008300974 -1.366967e-17)
(0.01436285 0.09224538 -5.231318e-17)
(0.01457347 -8.307252e-05 1.383794e-17)
(0.02456394 -0.005715156 7.769167e-19)
(0.02745899 0.1208456 5.913099e-16)
(0.0009543415 0.002340939 -4.742708e-21)
(0.0007253242 -2.667438e-05 -4.0218e-19)
(0.001573648 0.01201622 2.41091e-18)
(0.001832074 0.0001304622 -1.285963e-18)
(0.002454059 0.02890627 -1.512955e-17)
(0.003493803 0.0004188822 -5.08701e-18)
(0.004518096 0.05232478 -1.142363e-17)
(0.005938604 0.0008412219 -6.855672e-18)
(0.008856935 0.08070056 -2.774603e-17)
(0.01036426 0.001248137 -1.602221e-18)
(0.01555473 0.1103153 9.277552e-17)
(0.01723676 -0.0009622937 -1.174245e-17)
(0.02531249 -0.01046784 -1.555875e-17)
(0.02388596 0.1390819 -1.237638e-16)
(0.0009563212 0.005036517 4.927914e-19)
(0.0006369632 -1.054044e-05 9.909032e-20)
(0.0019382 0.0174765 9.066998e-18)
(0.001701485 0.0001850208 9.019732e-19)