/*--------------------------------*- C++ -*----------------------------------*\
| =========                 |                                                 |
| \\      /  F ield         | OpenFOAM: The Open Source CFD Toolbox           |
|  \\    /   O peration     | Version:  2206                                  |
|   \\  /    A nd           | Website:  www.openfoam.com                      |
|    \\/     M anipulation  |                                                 |
\*---------------------------------------------------------------------------*/
FoamFile
{
    version     2.0;
    format      ascii;
    arch        "LSB;label=32;scalar=64";
    class       volScalarField;
    location    "1";
    object      k.b;
}
// * * * * * * * * * * * * * * * * * * * * * * * * * * * * * * * * * * * * * //

dimensions      [0 2 -2 0 0 0 0];

internalField   nonuniform List<scalar> 
13078
(
5.311012e-13
4.863224e-10
5.032659e-10
5.061833e-10
5.097618e-10
5.138593e-10
5.186022e-10
4.075059e-13
4.529962e-10
5.022314e-10
5.060267e-10
5.096572e-10
5.137685e-10
5.185033e-10
4.335926e-13
4.523102e-10
5.020122e-10
5.058515e-10
5.095305e-10
5.136611e-10
5.183952e-10
4.293907e-13
4.52658e-10
5.019313e-10
5.05721e-10
5.094131e-10
5.135532e-10
5.182848e-10
4.338694e-13
4.527709e-10
5.018892e-10
5.056726e-10
5.093147e-10
5.1345e-10
5.181765e-10
4.443739e-13
4.528312e-10
5.018723e-10
5.05645e-10
5.092846e-10
5.133592e-10
5.18071e-10
4.578772e-13
4.528237e-10
5.018511e-10
5.056139e-10
5.092641e-10
5.133354e-10
5.179758e-10
4.737966e-13
4.527752e-10
5.018287e-10
5.055937e-10
5.092506e-10
5.133202e-10
5.179537e-10
4.921403e-13
4.527269e-10
5.018277e-10
5.055873e-10
5.092418e-10
5.133077e-10
5.179384e-10
5.13224e-13
4.526549e-10
5.018269e-10
5.055827e-10
5.092344e-10
5.132971e-10
5.179248e-10
5.376475e-13
4.525668e-10
5.01825e-10
5.055786e-10
5.092275e-10
5.132872e-10
5.179115e-10
5.660616e-13
4.524653e-10
5.018217e-10
5.055745e-10
5.09221e-10
5.132775e-10
5.178989e-10
5.992449e-13
4.523537e-10
5.018175e-10
5.055697e-10
5.092147e-10
5.132682e-10
5.178861e-10
6.382419e-13
4.522317e-10
5.018123e-10
5.055634e-10
5.09206e-10
5.132581e-10
5.178725e-10
6.843566e-13
4.521008e-10
5.018052e-10
5.055388e-10
5.091698e-10
5.132448e-10
5.178589e-10
7.392121e-13
4.519611e-10
5.017965e-10
5.055077e-10
5.091401e-10
5.132323e-10
5.178443e-10
8.048421e-13
4.518141e-10
5.017892e-10
5.054982e-10
5.091291e-10
5.132204e-10
5.178294e-10
8.83841e-13
4.516588e-10
5.017813e-10
5.054897e-10
5.091185e-10
5.132084e-10
5.178137e-10
9.794424e-13
4.514944e-10
5.017725e-10
5.054809e-10
5.091064e-10
5.131927e-10
5.177972e-10
1.095797e-12
4.513215e-10
5.017626e-10
5.054696e-10
5.090653e-10
5.131338e-10
5.177758e-10
1.238115e-12
4.511397e-10
5.017524e-10
5.054569e-10
5.090151e-10
5.130856e-10
5.177541e-10
1.413096e-12
4.509485e-10
5.017419e-10
5.054461e-10
5.089974e-10
5.130665e-10
5.177346e-10
1.6292e-12
4.507468e-10
5.0173e-10
5.054341e-10
5.089819e-10
5.130452e-10
5.177099e-10
1.897226e-12
4.505351e-10
5.017177e-10
5.054216e-10
5.089624e-10
5.129828e-10
5.1762e-10
2.230832e-12
4.50312e-10
5.017049e-10
5.054081e-10
5.089412e-10
5.129072e-10
5.175465e-10
2.647276e-12
4.500766e-10
5.016904e-10
5.053933e-10
5.089213e-10
5.128774e-10
5.175137e-10
3.168288e-12
4.498329e-10
5.016752e-10
5.053774e-10
5.089003e-10
5.1285e-10
5.174785e-10
3.820778e-12
4.495503e-10
5.016581e-10
5.053604e-10
5.088772e-10
5.128176e-10
5.173817e-10
4.638678e-12
4.49299e-10
5.016406e-10
5.053419e-10
5.088518e-10
5.127808e-10
5.172657e-10
5.66469e-12
4.486061e-10
5.016098e-10
5.05321e-10
5.088244e-10
5.127458e-10
5.172146e-10
6.954532e-12
4.478328e-10
5.015919e-10
5.052981e-10
5.087939e-10
5.127071e-10
5.171615e-10
8.569234e-12
4.466254e-10
5.015574e-10
5.052681e-10
5.087603e-10
5.126637e-10
5.171012e-10
1.057753e-11
4.450876e-10
5.014522e-10
5.051981e-10
5.087181e-10
5.126148e-10
5.170409e-10
1.305076e-11
4.445306e-10
5.013682e-10
5.051358e-10
5.086691e-10
5.125591e-10
5.169734e-10
1.60944e-11
4.439428e-10
5.013206e-10
5.050586e-10
5.085512e-10
5.124862e-10
5.168969e-10
1.980281e-11
4.432833e-10
5.012641e-10
5.04965e-10
5.08405e-10
5.123175e-10
5.168011e-10
2.425334e-11
4.425601e-10
5.012015e-10
5.048913e-10
5.08268e-10
5.121627e-10
5.166847e-10
2.950654e-11
4.417825e-10
5.011269e-10
5.04814e-10
5.081631e-10
5.119765e-10
5.164174e-10
3.558741e-11
4.40982e-10
5.01036e-10
5.047154e-10
5.080261e-10
5.117387e-10
5.161211e-10
4.251371e-11
4.395626e-10
5.008958e-10
5.045455e-10
5.077773e-10
5.113994e-10
5.156366e-10
5.027117e-11
4.368838e-10
5.006183e-10
5.041774e-10
5.072678e-10
5.107788e-10
5.147615e-10
5.840331e-11
4.34099e-10
4.999796e-10
5.033631e-10
5.064141e-10
5.095936e-10
5.125957e-10
6.654616e-11
4.323485e-10
4.990144e-10
5.022703e-10
5.049525e-10
5.0724e-10
5.093982e-10
7.421585e-11
4.301301e-10
4.978874e-10
5.010428e-10
5.027423e-10
5.039152e-10
5.062823e-10
8.069644e-11
4.269079e-10
4.96794e-10
4.990338e-10
4.99783e-10
5.009834e-10
5.029567e-10
8.525125e-11
4.223143e-10
4.95224e-10
4.959469e-10
4.965046e-10
4.976061e-10
4.995567e-10
8.694441e-11
4.172014e-10
4.926691e-10
4.930239e-10
4.926112e-10
4.935283e-10
4.95432e-10
8.533096e-11
4.128579e-10
4.894906e-10
4.898972e-10
4.889894e-10
4.897423e-10
4.906111e-10
8.008888e-11
4.082576e-10
4.863949e-10
4.86372e-10
4.857077e-10
4.862574e-10
4.87028e-10
7.134042e-11
4.040538e-10
4.835756e-10
4.833394e-10
4.824908e-10
4.824891e-10
4.838803e-10
5.959077e-11
3.986741e-10
4.813873e-10
4.809124e-10
4.798919e-10
4.794768e-10
4.801512e-10
4.566604e-11
3.912649e-10
4.788689e-10
4.785572e-10
4.776424e-10
4.773382e-10
4.772663e-10
3.115483e-11
3.86711e-10
4.763528e-10
4.768343e-10
4.761213e-10
4.76135e-10
4.753713e-10
1.8097e-11
3.838237e-10
4.745935e-10
4.752163e-10
4.747273e-10
4.746489e-10
4.745396e-10
8.157385e-12
3.818926e-10
4.734115e-10
4.741485e-10
4.738445e-10
4.73762e-10
4.739791e-10
2.305016e-12
3.806261e-10
4.727235e-10
4.735609e-10
4.733598e-10
4.733511e-10
4.737543e-10
1.990725e-12
3.804599e-10
4.726531e-10
4.734853e-10
4.732785e-10
4.732649e-10
4.736639e-10
7.333664e-12
3.814664e-10
4.732819e-10
4.740197e-10
4.737054e-10
4.736148e-10
4.738203e-10
1.682914e-11
3.831552e-10
4.744166e-10
4.750419e-10
4.745327e-10
4.744266e-10
4.742794e-10
2.956274e-11
3.85743e-10
4.760881e-10
4.765643e-10
4.758038e-10
4.757551e-10
4.749387e-10
4.390341e-11
3.900502e-10
4.785165e-10
4.781839e-10
4.772339e-10
4.76881e-10
4.767298e-10
5.782119e-11
3.973933e-10
4.810677e-10
4.806056e-10
4.795007e-10
4.789731e-10
4.795046e-10
6.972988e-11
4.026851e-10
4.832381e-10
4.829714e-10
4.820163e-10
4.818734e-10
4.830881e-10
7.873346e-11
4.068334e-10
4.86035e-10
4.859657e-10
4.851796e-10
4.855736e-10
4.862089e-10
8.429449e-11
4.114798e-10
4.89144e-10
4.894851e-10
4.884656e-10
4.891124e-10
4.897966e-10
8.62449e-11
4.159818e-10
4.923792e-10
4.926713e-10
4.921366e-10
4.928916e-10
4.94612e-10
8.490644e-11
4.213071e-10
4.95003e-10
4.956568e-10
4.960717e-10
4.969973e-10
4.985333e-10
8.070804e-11
4.260956e-10
4.966057e-10
4.988073e-10
4.994204e-10
5.004249e-10
5.020885e-10
7.453565e-11
4.295426e-10
4.977173e-10
5.008563e-10
5.024774e-10
5.034858e-10
5.058917e-10
6.70315e-11
4.319617e-10
4.988771e-10
5.021121e-10
5.047361e-10
5.06967e-10
5.090318e-10
5.899821e-11
4.338646e-10
4.998824e-10
5.032307e-10
5.062197e-10
5.094098e-10
5.122878e-10
5.096329e-11
4.363653e-10
5.005321e-10
5.040764e-10
5.071423e-10
5.106518e-10
5.146461e-10
4.327388e-11
4.386714e-10
5.008327e-10
5.044854e-10
5.077133e-10
5.113474e-10
5.155792e-10
3.633113e-11
4.40092e-10
5.009834e-10
5.046772e-10
5.080035e-10
5.117106e-10
5.160897e-10
3.019783e-11
4.410271e-10
5.010935e-10
5.047886e-10
5.081514e-10
5.119605e-10
5.163987e-10
2.487324e-11
4.421871e-10
5.011901e-10
5.048837e-10
5.082855e-10
5.121738e-10
5.166766e-10
2.034747e-11
4.431606e-10
5.012599e-10
5.049583e-10
5.084185e-10
5.123569e-10
5.167971e-10
1.655915e-11
4.439649e-10
5.013165e-10
5.050531e-10
5.08549e-10
5.124835e-10
5.168915e-10
1.343992e-11
4.446594e-10
5.013678e-10
5.05132e-10
5.086656e-10
5.125554e-10
5.169704e-10
1.089325e-11
4.452083e-10
5.014522e-10
5.051953e-10
5.087154e-10
5.126125e-10
5.170394e-10
8.823188e-12
4.467458e-10
5.015581e-10
5.052661e-10
5.087583e-10
5.126621e-10
5.171008e-10
7.158164e-12
4.479455e-10
5.015931e-10
5.052964e-10
5.087926e-10
5.127063e-10
5.171615e-10
5.829792e-12
4.487043e-10
5.016109e-10
5.0532e-10
5.088235e-10
5.127457e-10
5.172149e-10
4.772024e-12
4.493955e-10
5.016419e-10
5.05341e-10
5.088514e-10
5.127807e-10
5.172659e-10
3.928022e-12
4.496389e-10
5.016593e-10
5.053596e-10
5.088768e-10
5.128174e-10
5.173819e-10
3.254248e-12
4.499139e-10
5.016763e-10
5.05377e-10
5.088998e-10
5.128498e-10
5.174793e-10
2.716058e-12
4.501502e-10
5.016914e-10
5.053929e-10
5.08921e-10
5.128776e-10
5.175145e-10
2.285841e-12
4.503785e-10
5.01706e-10
5.054078e-10
5.08941e-10
5.129077e-10
5.175474e-10
1.941249e-12
4.505951e-10
5.017188e-10
5.054211e-10
5.089623e-10
5.129831e-10
5.176206e-10
1.664491e-12
4.508007e-10
5.01731e-10
5.05434e-10
5.089818e-10
5.130454e-10
5.177104e-10
1.441454e-12
4.509969e-10
5.017428e-10
5.054461e-10
5.089975e-10
5.130667e-10
5.177349e-10
1.260973e-12
4.511832e-10
5.017531e-10
5.05457e-10
5.090155e-10
5.130861e-10
5.177547e-10
1.114287e-12
4.513608e-10
5.017633e-10
5.054697e-10
5.090656e-10
5.131343e-10
5.177768e-10
9.944607e-13
4.515299e-10
5.017732e-10
5.054811e-10
5.091066e-10
5.131934e-10
5.177982e-10
8.960942e-13
4.516912e-10
5.017822e-10
5.054897e-10
5.091188e-10
5.132089e-10
5.178145e-10
8.148871e-13
4.518442e-10
5.017901e-10
5.054984e-10
5.091294e-10
5.132209e-10
5.1783e-10
7.474874e-13
4.519895e-10
5.017976e-10
5.055081e-10
5.091405e-10
5.132328e-10
5.178452e-10
6.91207e-13
4.521282e-10
5.018066e-10
5.055393e-10
5.091702e-10
5.132454e-10
5.178598e-10
6.439388e-13
4.522587e-10
5.018141e-10
5.055642e-10
5.092067e-10
5.132587e-10
5.178732e-10
6.040058e-13
4.523813e-10
5.018197e-10
5.055707e-10
5.092154e-10
5.132688e-10
5.178866e-10
5.700595e-13
4.524947e-10
5.018242e-10
5.055757e-10
5.092218e-10
5.132779e-10
5.178989e-10
5.410087e-13
4.525998e-10
5.018282e-10
5.0558e-10
5.092281e-10
5.132871e-10
5.17911e-10
5.159848e-13
4.526945e-10
5.018309e-10
5.05584e-10
5.092343e-10
5.132961e-10
5.179235e-10
4.942762e-13
4.527768e-10
5.018325e-10
5.055879e-10
5.092405e-10
5.133053e-10
5.179359e-10
4.753866e-13
4.528403e-10
5.018338e-10
5.055927e-10
5.092472e-10
5.133157e-10
5.179494e-10
4.588315e-13
4.529116e-10
5.018548e-10
5.056096e-10
5.09257e-10
5.133278e-10
5.17969e-10
4.444043e-13
4.529509e-10
5.018711e-10
5.056337e-10
5.092712e-10
5.13347e-10
5.180612e-10
4.321522e-13
4.529304e-10
5.018753e-10
5.056485e-10
5.09292e-10
5.134317e-10
5.18163e-10
4.228039e-13
4.528701e-10
5.018912e-10
5.056766e-10
5.093773e-10
5.135279e-10
5.182681e-10
4.200312e-13
4.527001e-10
5.01931e-10
5.057759e-10
5.094801e-10
5.136303e-10
5.183768e-10
4.268004e-13
4.527056e-10
5.020877e-10
5.059097e-10
5.095971e-10
5.137381e-10
5.184875e-10
3.994051e-13
4.556344e-10
5.022891e-10
5.060992e-10
5.097345e-10
5.138513e-10
5.185992e-10
5.242228e-10
5.313539e-10
5.409866e-10
5.503067e-10
5.671647e-10
5.945913e-10
7.437814e-10
5.241057e-10
5.311999e-10
5.407809e-10
5.50056e-10
5.668526e-10
5.941411e-10
8.680687e-10
5.239842e-10
5.310466e-10
5.405827e-10
5.53304e-10
5.665642e-10
5.936934e-10
8.655708e-10
5.238616e-10
5.308927e-10
5.403757e-10
5.495591e-10
5.662382e-10
5.932476e-10
8.629473e-10
5.237423e-10
5.307393e-10
5.401763e-10
5.492997e-10
5.659304e-10
5.92804e-10
8.605844e-10
5.23624e-10
5.305861e-10
5.399743e-10
5.490507e-10
5.656258e-10
5.923632e-10
8.581985e-10
5.235078e-10
5.30434e-10
5.397734e-10
5.488095e-10
5.655424e-10
5.919276e-10
8.55803e-10
5.234009e-10
5.302829e-10
5.395739e-10
5.485727e-10
5.65464e-10
5.914971e-10
8.534027e-10
5.233762e-10
5.301428e-10
5.393838e-10
5.483303e-10
5.652221e-10
5.911066e-10
8.509959e-10
5.233582e-10
5.301091e-10
5.392058e-10
5.480888e-10
5.649818e-10
5.907179e-10
8.485865e-10
5.233412e-10
5.300845e-10
5.391606e-10
5.478543e-10
5.647421e-10
5.903311e-10
8.461667e-10
5.233238e-10
5.300589e-10
5.39126e-10
5.478038e-10
5.645011e-10
5.899443e-10
8.437329e-10
5.233062e-10
5.300329e-10
5.390899e-10
5.477591e-10
5.644599e-10
5.89551e-10
8.412647e-10
5.232878e-10
5.300062e-10
5.390526e-10
5.477121e-10
5.644137e-10
5.894733e-10
8.382647e-10
5.23269e-10
5.299781e-10
5.390136e-10
5.476629e-10
5.643646e-10
5.893813e-10
8.286022e-10
5.232493e-10
5.299488e-10
5.38973e-10
5.476117e-10
5.643122e-10
5.892846e-10
8.227083e-10
5.23229e-10
5.299181e-10
5.38931e-10
5.475578e-10
5.642389e-10
5.891841e-10
8.159688e-10
5.232077e-10
5.29887e-10
5.388864e-10
5.474766e-10
5.635039e-10
5.890785e-10
8.080421e-10
5.231854e-10
5.29856e-10
5.388409e-10
5.474175e-10
5.634091e-10
5.889716e-10
7.982041e-10
5.231616e-10
5.298235e-10
5.387928e-10
5.473559e-10
5.633302e-10
5.888591e-10
7.78776e-10
5.231373e-10
5.297893e-10
5.387428e-10
5.472918e-10
5.632479e-10
5.887412e-10
7.516093e-10
5.23111e-10
5.297529e-10
5.386907e-10
5.472243e-10
5.631622e-10
5.886159e-10
7.290231e-10
5.230836e-10
5.297146e-10
5.386331e-10
5.47155e-10
5.630591e-10
5.884838e-10
7.075754e-10
5.230482e-10
5.296741e-10
5.3858e-10
5.503124e-10
5.623896e-10
5.88281e-10
6.907539e-10
5.230119e-10
5.296312e-10
5.385101e-10
5.470271e-10
5.620224e-10
5.881163e-10
6.781755e-10
5.229786e-10
5.295866e-10
5.384479e-10
5.46916e-10
5.618947e-10
5.879624e-10
6.662843e-10
5.229364e-10
5.295368e-10
5.38378e-10
5.468276e-10
5.617606e-10
5.877788e-10
6.565892e-10
5.227968e-10
5.294801e-10
5.383009e-10
5.467328e-10
5.615788e-10
5.862872e-10
6.469254e-10
5.226865e-10
5.276474e-10
5.358366e-10
5.466193e-10
5.614126e-10
5.857161e-10
6.410495e-10
5.226293e-10
5.275759e-10
5.357454e-10
5.465156e-10
5.612604e-10
5.854988e-10
6.362269e-10
5.224312e-10
5.273424e-10
5.356659e-10
5.464039e-10
5.611001e-10
5.844904e-10
8.169901e-10
5.222878e-10
5.271522e-10
5.355795e-10
5.462833e-10
5.60927e-10
5.832965e-10
7.787707e-10
5.221983e-10
5.268005e-10
5.354634e-10
5.461528e-10
5.607432e-10
5.829748e-10
7.288066e-10
5.221152e-10
5.266782e-10
5.350907e-10
5.460121e-10
5.605458e-10
5.825353e-10
7.442266e-10
5.220215e-10
5.265513e-10
5.346561e-10
5.458486e-10
5.60333e-10
5.821657e-10
6.296402e-10
5.219143e-10
5.264182e-10
5.341726e-10
5.456251e-10
5.601059e-10
5.817966e-10
5.84663e-10
5.217921e-10
5.262645e-10
5.339723e-10
5.448205e-10
5.598424e-10
5.814682e-10
6.194076e-10
5.216283e-10
5.260797e-10
5.33764e-10
5.441655e-10
5.593648e-10
5.813957e-10
6.261051e-10
5.21391e-10
5.258345e-10
5.335257e-10
5.435248e-10
5.580886e-10
5.806586e-10
6.298645e-10
5.208493e-10
5.253915e-10
5.327663e-10
5.419034e-10
5.555232e-10
5.78801e-10
6.301843e-10
5.194036e-10
5.2345e-10
5.302278e-10
5.398445e-10
5.536956e-10
5.746992e-10
6.295874e-10
5.164252e-10
5.201429e-10
5.271776e-10
5.37662e-10
5.511284e-10
5.680319e-10
6.257164e-10
5.133246e-10
5.175091e-10
5.2441e-10
5.343533e-10
5.469279e-10
5.619605e-10
6.236333e-10
5.109562e-10
5.148534e-10
5.224059e-10
5.311425e-10
5.428927e-10
5.590289e-10
6.001371e-10
5.071338e-10
5.117231e-10
5.184693e-10
5.28794e-10
5.37354e-10
5.557263e-10
6.149623e-10
5.029228e-10
5.085259e-10
5.158826e-10
5.231921e-10
5.345958e-10
5.497963e-10
6.048217e-10
4.987119e-10
5.045602e-10
5.113989e-10
5.204059e-10
5.292844e-10
5.4742e-10
6.299956e-10
4.952313e-10
5.010005e-10
5.085441e-10
5.152448e-10
5.267847e-10
5.417215e-10
5.788915e-10
4.901314e-10
4.976688e-10
5.038642e-10
5.102547e-10
5.222642e-10
5.387696e-10
5.694402e-10
4.86603e-10
4.92778e-10
4.994253e-10
5.070306e-10
5.182334e-10
5.335338e-10
5.63739e-10
4.827059e-10
4.89132e-10
4.946338e-10
5.036003e-10
5.168537e-10
5.30013e-10
5.526095e-10
4.793375e-10
4.844162e-10
4.911414e-10
4.993175e-10
5.110267e-10
5.2587e-10
5.460013e-10
4.770013e-10
4.80822e-10
4.88198e-10
4.961795e-10
5.071833e-10
5.209184e-10
5.436763e-10
4.754786e-10
4.789549e-10
4.854966e-10
4.943806e-10
5.033522e-10
5.174328e-10
5.357615e-10
4.750494e-10
4.778163e-10
4.847967e-10
4.927694e-10
5.032575e-10
5.104087e-10
5.144871e-10
4.751285e-10
4.775774e-10
4.847214e-10
4.924425e-10
5.00422e-10
5.071707e-10
4.750368e-10
4.772447e-10
4.847973e-10
4.922585e-10
5.000803e-10
5.067866e-10
4.748645e-10
4.763097e-10
4.843706e-10
4.923554e-10
5.00944e-10
5.075019e-10
4.751497e-10
4.760033e-10
4.850436e-10
4.925876e-10
5.021457e-10
5.12845e-10
5.232396e-10
4.765054e-10
4.763067e-10
4.857063e-10
4.941045e-10
5.032005e-10
5.183192e-10
5.398727e-10
4.786607e-10
4.784335e-10
4.887831e-10
4.978118e-10
5.084531e-10
5.217176e-10
5.434833e-10
4.818767e-10
4.822736e-10
4.918997e-10
5.000499e-10
5.128625e-10
5.277412e-10
5.457338e-10
4.856499e-10
4.865714e-10
4.969396e-10
5.043889e-10
5.157123e-10
5.311466e-10
5.596293e-10
4.891791e-10
4.915873e-10
5.004983e-10
5.06978e-10
5.200134e-10
5.340521e-10
5.652009e-10
4.94075e-10
4.962662e-10
5.038303e-10
5.12209e-10
5.227614e-10
5.387594e-10
5.811693e-10
4.97636e-10
5.004994e-10
5.086745e-10
5.15114e-10
5.26458e-10
5.419957e-10
5.913935e-10
5.017672e-10
5.047658e-10
5.121782e-10
5.205344e-10
5.298225e-10
5.463261e-10
6.145501e-10
5.062843e-10
5.090963e-10
5.162878e-10
5.242558e-10
5.343166e-10
5.50157e-10
6.168931e-10
5.093903e-10
5.128792e-10
5.201774e-10
5.285011e-10
5.388491e-10
5.553963e-10
6.424562e-10
5.125983e-10
5.157074e-10
5.22453e-10
5.321173e-10
5.428778e-10
5.583103e-10
5.997809e-10
5.157797e-10
5.185446e-10
5.25297e-10
5.351157e-10
5.477576e-10
5.639051e-10
6.215479e-10
5.191017e-10
5.216693e-10
5.284143e-10
5.376447e-10
5.516019e-10
5.699638e-10
6.336447e-10
5.207736e-10
5.248952e-10
5.314092e-10
5.40451e-10
5.540398e-10
5.764828e-10
6.313813e-10
5.213576e-10
5.256491e-10
5.333323e-10
5.428964e-10
5.564612e-10
5.792141e-10
6.355383e-10
5.216108e-10
5.259363e-10
5.336294e-10
5.437473e-10
5.592436e-10
5.813386e-10
6.375484e-10
5.21782e-10
5.261436e-10
5.338571e-10
5.444657e-10
5.59621e-10
5.813714e-10
6.284561e-10
5.219081e-10
5.263188e-10
5.340636e-10
5.451473e-10
5.599826e-10
5.816461e-10
6.230073e-10
5.220177e-10
5.264701e-10
5.343763e-10
5.45748e-10
5.602214e-10
5.819906e-10
6.340311e-10
5.221132e-10
5.266075e-10
5.348544e-10
5.459366e-10
5.604432e-10
5.823583e-10
6.262821e-10
5.221976e-10
5.267113e-10
5.353926e-10
5.460846e-10
5.60649e-10
5.827665e-10
7.354391e-10
5.222878e-10
5.269727e-10
5.35522e-10
5.462212e-10
5.608398e-10
5.831472e-10
7.958804e-10
5.224314e-10
5.271982e-10
5.356245e-10
5.46347e-10
5.610181e-10
5.835344e-10
8.095729e-10
5.226302e-10
5.275276e-10
5.35708e-10
5.464632e-10
5.611859e-10
5.853422e-10
6.375236e-10
5.226876e-10
5.275895e-10
5.357869e-10
5.465713e-10
5.613416e-10
5.85618e-10
6.399252e-10
5.227978e-10
5.294817e-10
5.383032e-10
5.466804e-10
5.614954e-10
5.858456e-10
6.441707e-10
5.229374e-10
5.295387e-10
5.383803e-10
5.467766e-10
5.616823e-10
5.872096e-10
6.520409e-10
5.229799e-10
5.295884e-10
5.384505e-10
5.46868e-10
5.618346e-10
5.878923e-10
6.613437e-10
5.230131e-10
5.296332e-10
5.38516e-10
5.46954e-10
5.619655e-10
5.880499e-10
6.716189e-10
5.230494e-10
5.296762e-10
5.385785e-10
5.470363e-10
5.621047e-10
5.882008e-10
6.832367e-10
5.230846e-10
5.297162e-10
5.386368e-10
5.471145e-10
5.628261e-10
5.884004e-10
6.985616e-10
5.231118e-10
5.297543e-10
5.386923e-10
5.471884e-10
5.631229e-10
5.885601e-10
7.140958e-10
5.23138e-10
5.297908e-10
5.387451e-10
5.472581e-10
5.63211e-10
5.886883e-10
7.341714e-10
5.231628e-10
5.29825e-10
5.387953e-10
5.473249e-10
5.63296e-10
5.888102e-10
7.562028e-10
5.231867e-10
5.298577e-10
5.388435e-10
5.473878e-10
5.63376e-10
5.889259e-10
7.786055e-10
5.232089e-10
5.298888e-10
5.388888e-10
5.474479e-10
5.634523e-10
5.890357e-10
7.99159e-10
5.232302e-10
5.299198e-10
5.389334e-10
5.475212e-10
5.638306e-10
5.891419e-10
8.127391e-10
5.232504e-10
5.299504e-10
5.389754e-10
5.475869e-10
5.642908e-10
5.892443e-10
8.197714e-10
5.232701e-10
5.299795e-10
5.390159e-10
5.476399e-10
5.643435e-10
5.893432e-10
8.258733e-10
5.232887e-10
5.300076e-10
5.390547e-10
5.476908e-10
5.643944e-10
5.894381e-10
8.362518e-10
5.233068e-10
5.30034e-10
5.390919e-10
5.477392e-10
5.644419e-10
5.895256e-10
8.404244e-10
5.233239e-10
5.300595e-10
5.391274e-10
5.477859e-10
5.644875e-10
5.89761e-10
8.428432e-10
5.233408e-10
5.300847e-10
5.391616e-10
5.478304e-10
5.646277e-10
5.901467e-10
8.452307e-10
5.233571e-10
5.301088e-10
5.392064e-10
5.479732e-10
5.648657e-10
5.905335e-10
8.47601e-10
5.233741e-10
5.301415e-10
5.393837e-10
5.482144e-10
5.651058e-10
5.909208e-10
8.499566e-10
5.233974e-10
5.302804e-10
5.395728e-10
5.484575e-10
5.653461e-10
5.913102e-10
8.523109e-10
5.235025e-10
5.304302e-10
5.397711e-10
5.487015e-10
5.655772e-10
5.917188e-10
8.546623e-10
5.236167e-10
5.30581e-10
5.399711e-10
5.489335e-10
5.654861e-10
5.921522e-10
8.570158e-10
5.237331e-10
5.307332e-10
5.401722e-10
5.491809e-10
5.657807e-10
5.925892e-10
8.593696e-10
5.23851e-10
5.308866e-10
5.403745e-10
5.49429e-10
5.660853e-10
5.930303e-10
8.617203e-10
5.239736e-10
5.310414e-10
5.405776e-10
5.496786e-10
5.663916e-10
5.934735e-10
8.641736e-10
5.240974e-10
5.31196e-10
5.407813e-10
5.499276e-10
5.666996e-10
5.939188e-10
8.667977e-10
5.242216e-10
5.313534e-10
5.409857e-10
5.501777e-10
5.670086e-10
5.943696e-10
8.684656e-10
4.411365e-07
5.078164e-07
5.079091e-07
5.079091e-07
5.079091e-07
5.079091e-07
5.079091e-07
5.079091e-07
5.079091e-07
5.079091e-07
5.079091e-07
5.079091e-07
5.079091e-07
5.079091e-07
5.079091e-07
5.079091e-07
5.079091e-07
5.079091e-07
4.546213e-07
5.078517e-07
5.079096e-07
5.079096e-07
5.079096e-07
5.079096e-07
5.079096e-07
5.079096e-07
5.079096e-07
5.079096e-07
5.079096e-07
5.079096e-07
5.079096e-07
5.079096e-07
5.079096e-07
5.079096e-07
5.079096e-07
5.079096e-07
4.525013e-07
5.078442e-07
5.079096e-07
5.079096e-07
5.079096e-07
5.079096e-07
5.079096e-07
5.079096e-07
5.079096e-07
5.079096e-07
5.079096e-07
5.079096e-07
5.079096e-07
5.079096e-07
5.079096e-07
5.079096e-07
5.079096e-07
5.079096e-07
4.501384e-07
5.078401e-07
5.079096e-07
5.079096e-07
5.079096e-07
5.079096e-07
5.079096e-07
5.079096e-07
5.079096e-07
5.079096e-07
5.079096e-07
5.079096e-07
5.079096e-07
5.079096e-07
5.079096e-07
5.079096e-07
5.079096e-07
5.079096e-07
4.474088e-07
5.078354e-07
5.079096e-07
5.079096e-07
5.079096e-07
5.079096e-07
5.079096e-07
5.079096e-07
5.079096e-07
5.079096e-07
5.079096e-07
5.079096e-07
5.079096e-07
5.079096e-07
5.079096e-07
5.079096e-07
5.079096e-07
5.079096e-07
4.443194e-07
5.078304e-07
5.079096e-07
5.079096e-07
5.079096e-07
5.079096e-07
5.079096e-07
5.079096e-07
5.079096e-07
5.079096e-07
5.079096e-07
5.079096e-07
5.079096e-07
5.079096e-07
5.079096e-07
5.079096e-07
5.079096e-07
5.079096e-07
4.409004e-07
5.078252e-07
5.079096e-07
5.079096e-07
5.079096e-07
5.079096e-07
5.079096e-07
5.079096e-07
5.079096e-07
5.079096e-07
5.079096e-07
5.079096e-07
5.079096e-07
5.079096e-07
5.079096e-07
5.079096e-07
5.079096e-07
5.079096e-07
4.371805e-07
5.0782e-07
5.079096e-07
5.079096e-07
5.079096e-07
5.079096e-07
5.079096e-07
5.079096e-07
5.079096e-07
5.079096e-07
5.079096e-07
5.079096e-07
5.079096e-07
5.079096e-07
5.079096e-07
5.079096e-07
5.079096e-07
5.079096e-07
4.331819e-07
5.078147e-07
5.079096e-07
5.079096e-07
5.079096e-07
5.079096e-07
5.079096e-07
5.079096e-07
5.079096e-07
5.079096e-07
5.079096e-07
5.079096e-07
5.079096e-07
5.079096e-07
5.079096e-07
5.079096e-07
5.079096e-07
5.079096e-07
4.28924e-07
5.078095e-07
5.079096e-07
5.079096e-07
5.079096e-07
5.079096e-07
5.079096e-07
5.079096e-07
5.079096e-07
5.079096e-07
5.079096e-07
5.079096e-07
5.079096e-07
5.079096e-07
5.079096e-07
5.079096e-07
5.079096e-07
5.079096e-07
4.244166e-07
5.078042e-07
5.079096e-07
5.079096e-07
5.079096e-07
5.079096e-07
5.079096e-07
5.079096e-07
5.079096e-07
5.079096e-07
5.079096e-07
5.079096e-07
5.079096e-07
5.079096e-07
5.079096e-07
5.079096e-07
5.079096e-07
5.079096e-07
4.196534e-07
5.077987e-07
5.079096e-07
5.079096e-07
5.079096e-07
5.079096e-07
5.079096e-07
5.079096e-07
5.079096e-07
5.079096e-07
5.079096e-07
5.079096e-07
5.079096e-07
5.079096e-07
5.079096e-07
5.079096e-07
5.079096e-07
5.079096e-07
4.145969e-07
5.077913e-07
5.079096e-07
5.079096e-07
5.079096e-07
5.079096e-07
5.079096e-07
5.079096e-07
5.079096e-07
5.079096e-07
5.079096e-07
5.079096e-07
5.079096e-07
5.079096e-07
5.079096e-07
5.079096e-07
5.079096e-07
5.079096e-07
4.088699e-07
5.077769e-07
5.079096e-07
5.079096e-07
5.079096e-07
5.079096e-07
5.079096e-07
5.079096e-07
5.079096e-07
5.079096e-07
5.079096e-07
5.079096e-07
5.079096e-07
5.079096e-07
5.079096e-07
5.079096e-07
5.079096e-07
5.079096e-07
3.592698e-07
5.076871e-07
5.079096e-07
5.079096e-07
5.079096e-07
5.079096e-07
5.079096e-07
5.079096e-07
5.079096e-07
5.079096e-07
5.079096e-07
5.079096e-07
5.079096e-07
5.079096e-07
5.079096e-07
5.079096e-07
5.079096e-07
5.079096e-07
3.432782e-07
5.076431e-07
5.079098e-07
5.079096e-07
5.079096e-07
5.079096e-07
5.079096e-07
5.079096e-07
5.079096e-07
5.079096e-07
5.079096e-07
5.079096e-07
5.079096e-07
5.079096e-07
5.079096e-07
5.079096e-07
5.079096e-07
5.079096e-07
3.253045e-07
5.076082e-07
5.079091e-07
5.079097e-07
5.079096e-07
5.079096e-07
5.079096e-07
5.079096e-07
5.079096e-07
5.079096e-07
5.079096e-07
5.079096e-07
5.079096e-07
5.079096e-07
5.079096e-07
5.079096e-07
5.079096e-07
5.079096e-07
3.076653e-07
5.075478e-07
5.079093e-07
5.079094e-07
5.079097e-07
5.079096e-07
5.079096e-07
5.079096e-07
5.079096e-07
5.079096e-07
5.079096e-07
5.079096e-07
5.079096e-07
5.079096e-07
5.079096e-07
5.079096e-07
5.079096e-07
5.079096e-07
2.884742e-07
5.074945e-07
5.079095e-07
5.079095e-07
5.079095e-07
5.079096e-07
5.079096e-07
5.079096e-07
5.079096e-07
5.079096e-07
5.079096e-07
5.079096e-07
5.079096e-07
5.079096e-07
5.079096e-07
5.079096e-07
5.079096e-07
5.079096e-07
2.7079e-07
5.074652e-07
5.079095e-07
5.079096e-07
5.079096e-07
5.079096e-07
5.079096e-07
5.079096e-07
5.079096e-07
5.079096e-07
5.079096e-07
5.079096e-07
5.079096e-07
5.079096e-07
5.079096e-07
5.079096e-07
5.079096e-07
5.079096e-07
2.547863e-07
5.074485e-07
5.079095e-07
5.079096e-07
5.079096e-07
5.079096e-07
5.079096e-07
5.079096e-07
5.079096e-07
5.079096e-07
5.079096e-07
5.079096e-07
5.079096e-07
5.079096e-07
5.079096e-07
5.079096e-07
5.079096e-07
5.079096e-07
2.411324e-07
5.074151e-07
5.079095e-07
5.079096e-07
5.079096e-07
5.079096e-07
5.079096e-07
5.079096e-07
5.079096e-07
5.079096e-07
5.079096e-07
5.079096e-07
5.079096e-07
5.079096e-07
5.079096e-07
5.079096e-07
5.079096e-07
5.079096e-07
2.288001e-07
5.073838e-07
5.079094e-07
5.079096e-07
5.079096e-07
5.079096e-07
5.079096e-07
5.079096e-07
5.079096e-07
5.079096e-07
5.079096e-07
5.079096e-07
5.079096e-07
5.079096e-07
5.079096e-07
5.079096e-07
5.079096e-07
5.079096e-07
2.168074e-07
5.073358e-07
5.079094e-07
5.079096e-07
5.079096e-07
5.079096e-07
5.079096e-07
5.079096e-07
5.079096e-07
5.079096e-07
5.079096e-07
5.079096e-07
5.079096e-07
5.079096e-07
5.079096e-07
5.079096e-07
5.079096e-07
5.079096e-07
2.046413e-07
5.072747e-07
5.079094e-07
5.079096e-07
5.079096e-07
5.079096e-07
5.079096e-07
5.079096e-07
5.079096e-07
5.079096e-07
5.079096e-07
5.079096e-07
5.079096e-07
5.079096e-07
5.079096e-07
5.079096e-07
5.079096e-07
5.079096e-07
1.932357e-07
5.072171e-07
5.079094e-07
5.079096e-07
5.079096e-07
5.079096e-07
5.079096e-07
5.079096e-07
5.079096e-07
5.079096e-07
5.079096e-07
5.079096e-07
5.079096e-07
5.079096e-07
5.079096e-07
5.079096e-07
5.079096e-07
5.079096e-07
1.821624e-07
5.07171e-07
5.079094e-07
5.079096e-07
5.079096e-07
5.079096e-07
5.079096e-07
5.079096e-07
5.079096e-07
5.079096e-07
5.079096e-07
5.079096e-07
5.079096e-07
5.079096e-07
5.079096e-07
5.079096e-07
5.079096e-07
5.079096e-07
1.711034e-07
5.071075e-07
5.079094e-07
5.079096e-07
5.079096e-07
5.079096e-07
5.079096e-07
5.079096e-07
5.079096e-07
5.079096e-07
5.079096e-07
5.079096e-07
5.079096e-07
5.079096e-07
5.079096e-07
5.079096e-07
5.079096e-07
5.079096e-07
1.608292e-07
5.070302e-07
5.079093e-07
5.079096e-07
5.079096e-07
5.079096e-07
5.079096e-07
5.079096e-07
5.079096e-07
5.079096e-07
5.079096e-07
5.079096e-07
5.079096e-07
5.079096e-07
5.079096e-07
5.079096e-07
5.079096e-07
5.079096e-07
1.508133e-07
5.069768e-07
5.079093e-07
5.079092e-07
5.079092e-07
5.079096e-07
5.079096e-07
5.079096e-07
5.079096e-07
5.079096e-07
5.079096e-07
5.079096e-07
5.079096e-07
5.079096e-07
5.079096e-07
5.079096e-07
5.079096e-07
5.079096e-07
1.412849e-07
5.06937e-07
5.079093e-07
5.07885e-07
5.078879e-07
5.079094e-07
5.079096e-07
5.079096e-07
5.079096e-07
5.079096e-07
5.079096e-07
5.079096e-07
5.079096e-07
5.079096e-07
5.079096e-07
5.079096e-07
5.079096e-07
5.079096e-07
1.319386e-07
5.069489e-07
5.079093e-07
5.078896e-07
5.078986e-07
5.079094e-07
5.079096e-07
5.079093e-07
5.079092e-07
5.079096e-07
5.079096e-07
5.079096e-07
5.079096e-07
5.079096e-07
5.079096e-07
5.079096e-07
5.079096e-07
5.079096e-07
1.22536e-07
5.070388e-07
5.079098e-07
5.079162e-07
5.079147e-07
5.079096e-07
5.079096e-07
5.079096e-07
5.079096e-07
5.079096e-07
5.079096e-07
5.079096e-07
5.079096e-07
5.079096e-07
5.079096e-07
5.079096e-07
5.079096e-07
5.079096e-07
1.127393e-07
5.075607e-07
5.079085e-07
5.07879e-07
5.078829e-07
5.079087e-07
5.079096e-07
5.079096e-07
5.079096e-07
5.079096e-07
5.079096e-07
5.079096e-07
5.079096e-07
5.079096e-07
5.079096e-07
5.079096e-07
5.079096e-07
5.079096e-07
8.863826e-08
5.062902e-07
5.079036e-07
5.077984e-07
5.077743e-07
5.078155e-07
5.079095e-07
5.079097e-07
5.079095e-07
5.079096e-07
5.079096e-07
5.079096e-07
5.079096e-07
5.079096e-07
5.079096e-07
5.079096e-07
5.079096e-07
5.079096e-07
7.832677e-08
5.066942e-07
5.079029e-07
5.079072e-07
5.078822e-07
5.079028e-07
5.079094e-07
5.079086e-07
5.079079e-07
5.079096e-07
5.079096e-07
5.079096e-07
5.079096e-07
5.079096e-07
5.079096e-07
5.079096e-07
5.079096e-07
5.079096e-07
6.714907e-08
5.069951e-07
5.078992e-07
5.079107e-07
5.079124e-07
5.079074e-07
5.07916e-07
5.079203e-07
5.079159e-07
5.079121e-07
5.079097e-07
5.079087e-07
5.079096e-07
5.079097e-07
5.079096e-07
5.079096e-07
5.079096e-07
5.079096e-07
8.647828e-09
5.041862e-07
5.07674e-07
5.07765e-07
5.077478e-07
5.077612e-07
5.078218e-07
5.078959e-07
5.079271e-07
5.07906e-07
5.079338e-07
5.079453e-07
5.079189e-07
5.079104e-07
5.079092e-07
5.079096e-07
5.079096e-07
5.079096e-07
2.448353e-08
5.012119e-07
5.074131e-07