/*--------------------------------*- C++ -*----------------------------------*\
| =========                 |                                                 |
| \\      /  F ield         | OpenFOAM: The Open Source CFD Toolbox           |
|  \\    /   O peration     | Version:  2206                                  |
|   \\  /    A nd           | Website:  www.openfoam.com                      |
|    \\/     M anipulation  |                                                 |
\*---------------------------------------------------------------------------*/
FoamFile
{
    version     2.0;
    format      ascii;
    arch        "LSB;label=32;scalar=64";
    class       volScalarField;
    location    "1";
    object      k.b_0;
}
// * * * * * * * * * * * * * * * * * * * * * * * * * * * * * * * * * * * * * //

dimensions      [0 2 -2 0 0 0 0];

internalField   nonuniform List<scalar> 
13078
(
5.459561e-13
4.928759e-10
5.097132e-10
5.126669e-10
5.162906e-10
5.204392e-10
5.25241e-10
4.090782e-13
4.592412e-10
5.086729e-10
5.12509e-10
5.161849e-10
5.203474e-10
5.251409e-10
4.336418e-13
4.585491e-10
5.084524e-10
5.123324e-10
5.160571e-10
5.202389e-10
5.250316e-10
4.283581e-13
4.588972e-10
5.083711e-10
5.12201e-10
5.159386e-10
5.201299e-10
5.2492e-10
4.322779e-13
4.5901e-10
5.083288e-10
5.121523e-10
5.158393e-10
5.200256e-10
5.248105e-10
4.421395e-13
4.590701e-10
5.083118e-10
5.121245e-10
5.158089e-10
5.199339e-10
5.247039e-10
4.548778e-13
4.590621e-10
5.082904e-10
5.120932e-10
5.157883e-10
5.199098e-10
5.246076e-10
4.698781e-13
4.59013e-10
5.082679e-10
5.120727e-10
5.157747e-10
5.198945e-10
5.245853e-10
4.871185e-13
4.589642e-10
5.082668e-10
5.120663e-10
5.157659e-10
5.198819e-10
5.245698e-10
5.068756e-13
4.588915e-10
5.082659e-10
5.120617e-10
5.157584e-10
5.198712e-10
5.245561e-10
5.297217e-13
4.588028e-10
5.082639e-10
5.120575e-10
5.157513e-10
5.198611e-10
5.245425e-10
5.562585e-13
4.587005e-10
5.082605e-10
5.120532e-10
5.157447e-10
5.198514e-10
5.245298e-10
5.872004e-13
4.58588e-10
5.082562e-10
5.120484e-10
5.157383e-10
5.19842e-10
5.245169e-10
6.23517e-13
4.58465e-10
5.082508e-10
5.12042e-10
5.157296e-10
5.198317e-10
5.245031e-10
6.664184e-13
4.583332e-10
5.082437e-10
5.12017e-10
5.156929e-10
5.198182e-10
5.244892e-10
7.174093e-13
4.581923e-10
5.082348e-10
5.119856e-10
5.156628e-10
5.198054e-10
5.244745e-10
7.783692e-13
4.580442e-10
5.082273e-10
5.119759e-10
5.156516e-10
5.197934e-10
5.244593e-10
8.516981e-13
4.578875e-10
5.082192e-10
5.119672e-10
5.156409e-10
5.197812e-10
5.244434e-10
9.403804e-13
4.577218e-10
5.082101e-10
5.119584e-10
5.156285e-10
5.197653e-10
5.244266e-10
1.04825e-12
4.575474e-10
5.082001e-10
5.119468e-10
5.155869e-10
5.197056e-10
5.244049e-10
1.180112e-12
4.57364e-10
5.081896e-10
5.11934e-10
5.15536e-10
5.196568e-10
5.243828e-10
1.342149e-12
4.571711e-10
5.081788e-10
5.11923e-10
5.15518e-10
5.196373e-10
5.24363e-10
1.542164e-12
4.569675e-10
5.081666e-10
5.119108e-10
5.155023e-10
5.196158e-10
5.243379e-10
1.790124e-12
4.567538e-10
5.081539e-10
5.118981e-10
5.154825e-10
5.195525e-10
5.242468e-10
2.098642e-12
4.565284e-10
5.081408e-10
5.118844e-10
5.15461e-10
5.194759e-10
5.241723e-10
2.483672e-12
4.562907e-10
5.081259e-10
5.118693e-10
5.154408e-10
5.194456e-10
5.24139e-10
2.965328e-12
4.560444e-10
5.081103e-10
5.118532e-10
5.154195e-10
5.194178e-10
5.241033e-10
3.568517e-12
4.55759e-10
5.080926e-10
5.118359e-10
5.15396e-10
5.193849e-10
5.240051e-10
4.324554e-12
4.555047e-10
5.080746e-10
5.118171e-10
5.153702e-10
5.193475e-10
5.238876e-10
5.272548e-12
4.548074e-10
5.080432e-10
5.117959e-10
5.153424e-10
5.193121e-10
5.238358e-10
6.459938e-12
4.540272e-10
5.080246e-10
5.117726e-10
5.153115e-10
5.192728e-10
5.237819e-10
7.953751e-12
4.528123e-10
5.079894e-10
5.117423e-10
5.152774e-10
5.192287e-10
5.237206e-10
9.814256e-12
4.51265e-10
5.078826e-10
5.116713e-10
5.152347e-10
5.191792e-10
5.236595e-10
1.210992e-11
4.507036e-10
5.077972e-10
5.116083e-10
5.15185e-10
5.191227e-10
5.235911e-10
1.49425e-11
4.501109e-10
5.077487e-10
5.1153e-10
5.150658e-10
5.190488e-10
5.235135e-10
1.840446e-11
4.494464e-10
5.076912e-10
5.114352e-10
5.149178e-10
5.188782e-10
5.234165e-10
2.257329e-11
4.48718e-10
5.076277e-10
5.113607e-10
5.147789e-10
5.187216e-10
5.232985e-10
2.751292e-11
4.479353e-10
5.075521e-10
5.112825e-10
5.146729e-10
5.185333e-10
5.230283e-10
3.325457e-11
4.471298e-10
5.074603e-10
5.111829e-10
5.145343e-10
5.182925e-10
5.227287e-10
3.981243e-11
4.457036e-10
5.07319e-10
5.110112e-10
5.14283e-10
5.179496e-10
5.222391e-10
4.716759e-11
4.430083e-10
5.0704e-10
5.106393e-10
5.137684e-10
5.173227e-10
5.213516e-10
5.495436e-11
4.402078e-10
5.063952e-10
5.098175e-10
5.129065e-10
5.161211e-10
5.191443e-10
6.280702e-11
4.384461e-10
5.054218e-10
5.087147e-10
5.114266e-10
5.137216e-10
5.158788e-10
7.026704e-11
4.362093e-10
5.04286e-10
5.074715e-10
5.091741e-10
5.103292e-10
5.126928e-10
7.662631e-11
4.3296e-10
5.031826e-10
5.054229e-10
5.061498e-10
5.073349e-10
5.092983e-10
8.113142e-11
4.283275e-10
5.015885e-10
5.022718e-10
5.02802e-10
5.038863e-10
5.058296e-10
8.29281e-11
4.23166e-10
4.989824e-10
4.992898e-10
4.988337e-10
4.997299e-10
5.016257e-10
8.153187e-11
4.187659e-10
4.957432e-10
4.96102e-10
4.951463e-10
4.958796e-10
4.967166e-10
7.660533e-11
4.140999e-10
4.925916e-10
4.925108e-10
4.91805e-10
4.923295e-10
4.930718e-10
6.827073e-11
4.09837e-10
4.897237e-10
4.89422e-10
4.885276e-10
4.88493e-10
4.898724e-10
5.703543e-11
4.043961e-10
4.875053e-10
4.869491e-10
4.85879e-10
4.85425e-10
4.860764e-10
4.367681e-11
3.969078e-10
4.849468e-10
4.845521e-10
4.835887e-10
4.832462e-10
4.831339e-10
2.980854e-11
3.923032e-10
4.823907e-10
4.827975e-10
4.820371e-10
4.820143e-10
4.812035e-10
1.737447e-11
3.893884e-10
4.806079e-10
4.811515e-10
4.806153e-10
4.804984e-10
4.803589e-10
7.944166e-12
3.874414e-10
4.794108e-10
4.800662e-10
4.797157e-10
4.795947e-10
4.797866e-10
2.39332e-12
3.861619e-10
4.78714e-10
4.79469e-10
4.792224e-10
4.791765e-10
4.795583e-10
2.062886e-12
3.85995e-10
4.786434e-10
4.793932e-10
4.791408e-10
4.790902e-10
4.794678e-10
7.092684e-12
3.870133e-10
4.79281e-10
4.79937e-10
4.795764e-10
4.794473e-10
4.796278e-10
1.606294e-11
3.887166e-10
4.804307e-10
4.809767e-10
4.804205e-10
4.80276e-10
4.800988e-10
2.815058e-11
3.913301e-10
4.821254e-10
4.825268e-10
4.817192e-10
4.816341e-10
4.807704e-10
4.18234e-11
3.956859e-10
4.845934e-10
4.841777e-10
4.831795e-10
4.827887e-10
4.825969e-10
5.515696e-11
4.031072e-10
4.871845e-10
4.866413e-10
4.854873e-10
4.849211e-10
4.854294e-10
6.654461e-11
4.084588e-10
4.893848e-10
4.890527e-10
4.880522e-10
4.878768e-10
4.890794e-10
7.514165e-11
4.12665e-10
4.9223e-10
4.921029e-10
4.912754e-10
4.916447e-10
4.922521e-10
8.040623e-11
4.173767e-10
4.953948e-10
4.956881e-10
4.946208e-10
4.952486e-10
4.959015e-10
8.216819e-11
4.219355e-10
4.986908e-10
4.989355e-10
4.983575e-10
4.990922e-10
5.00806e-10
8.075898e-11
4.273106e-10
5.013661e-10
5.019804e-10
5.023676e-10
5.032762e-10
5.048004e-10
7.664179e-11
4.321396e-10
5.02993e-10
5.051952e-10
5.057859e-10
5.067734e-10
5.084245e-10
7.061537e-11
4.356155e-10
5.041147e-10
5.072839e-10
5.089076e-10
5.098974e-10
5.123055e-10
6.333428e-11
4.380547e-10
5.052836e-10
5.085554e-10
5.112083e-10
5.134483e-10
5.155132e-10
5.559765e-11
4.399707e-10
5.062973e-10
5.096841e-10
5.127106e-10
5.159369e-10
5.188348e-10
4.790824e-11
4.424863e-10
5.06953e-10
5.105375e-10
5.136421e-10
5.17195e-10
5.212358e-10
4.060619e-11
4.448068e-10
5.072555e-10
5.109507e-10
5.142187e-10
5.178975e-10
5.221817e-10
3.402416e-11
4.462352e-10
5.074075e-10
5.111445e-10
5.145118e-10
5.182644e-10
5.226974e-10
2.822515e-11
4.471761e-10
5.075187e-10
5.112571e-10
5.146613e-10
5.185175e-10
5.230098e-10
2.321005e-11
4.483436e-10
5.076165e-10
5.113532e-10
5.147969e-10
5.187331e-10
5.232906e-10
1.896236e-11
4.493235e-10
5.076872e-10
5.114286e-10
5.149316e-10
5.189182e-10
5.234126e-10
1.542068e-11
4.501341e-10
5.077447e-10
5.115246e-10
5.150636e-10
5.190463e-10
5.235082e-10
1.250945e-11
4.508337e-10
5.07797e-10
5.116045e-10
5.151815e-10
5.191191e-10
5.235881e-10
1.013737e-11
4.51387e-10
5.078827e-10
5.116686e-10
5.152319e-10
5.19177e-10
5.23658e-10
8.212928e-12
4.529339e-10
5.079902e-10
5.117402e-10
5.152754e-10
5.192272e-10
5.237203e-10
6.667325e-12
4.541411e-10
5.080258e-10
5.117709e-10
5.153102e-10
5.19272e-10
5.237819e-10
5.440518e-12
4.549066e-10
5.080443e-10
5.117949e-10
5.153416e-10
5.19312e-10
5.238361e-10
4.460171e-12
4.556022e-10
5.080759e-10
5.118163e-10
5.153699e-10
5.193475e-10
5.238878e-10
3.677639e-12
4.558484e-10
5.080939e-10
5.118351e-10
5.153956e-10
5.193847e-10
5.240054e-10
3.052892e-12
4.561262e-10
5.081114e-10
5.118528e-10
5.15419e-10
5.194177e-10
5.241041e-10
2.55386e-12
4.563649e-10
5.081269e-10
5.11869e-10
5.154405e-10
5.194458e-10
5.241398e-10
2.154907e-12
4.565956e-10
5.081419e-10
5.118841e-10
5.154608e-10
5.194764e-10
5.241732e-10
1.835282e-12
4.568143e-10
5.08155e-10
5.118976e-10
5.154824e-10
5.195528e-10
5.242474e-10
1.578487e-12
4.570219e-10
5.081676e-10
5.119107e-10
5.155022e-10
5.196159e-10
5.243385e-10
1.371451e-12
4.572199e-10
5.081798e-10
5.11923e-10
5.155182e-10
5.196376e-10
5.243633e-10
1.203833e-12
4.574079e-10
5.081903e-10
5.119341e-10
5.155364e-10
5.196572e-10
5.243834e-10
1.067531e-12
4.575871e-10
5.082008e-10
5.11947e-10
5.155872e-10
5.197062e-10
5.244058e-10
9.561243e-13
4.577576e-10
5.082109e-10
5.119585e-10
5.156288e-10
5.19766e-10
5.244276e-10
8.646185e-13
4.579202e-10
5.082201e-10
5.119673e-10
5.156411e-10
5.197818e-10
5.244442e-10
7.890298e-13
4.580745e-10
5.082282e-10
5.119761e-10
5.156519e-10
5.197939e-10
5.244599e-10
7.262558e-13
4.58221e-10
5.082358e-10
5.119859e-10
5.156632e-10
5.19806e-10
5.244753e-10
6.738025e-13
4.583607e-10
5.082451e-10
5.120175e-10
5.156933e-10
5.198188e-10
5.244901e-10
6.29717e-13
4.584922e-10
5.082526e-10
5.120428e-10
5.157302e-10
5.198323e-10
5.245038e-10
5.924412e-13
4.586158e-10
5.082584e-10
5.120494e-10
5.157391e-10
5.198425e-10
5.245174e-10
5.607209e-13
4.5873e-10
5.08263e-10
5.120545e-10
5.157456e-10
5.198518e-10
5.245299e-10
5.335391e-13
4.588359e-10
5.082671e-10
5.120589e-10
5.157519e-10
5.198611e-10
5.245421e-10
5.100855e-13
4.589313e-10
5.082699e-10
5.120629e-10
5.157583e-10
5.198702e-10
5.245548e-10
4.896945e-13
4.590142e-10
5.082716e-10
5.120669e-10
5.157646e-10
5.198795e-10
5.245673e-10
4.719142e-13
4.590784e-10
5.08273e-10
5.120718e-10
5.157713e-10
5.198901e-10
5.24581e-10
4.562891e-13
4.591502e-10
5.082941e-10
5.120889e-10
5.157812e-10
5.199022e-10
5.246008e-10
4.426391e-13
4.591901e-10
5.083106e-10
5.121133e-10
5.157955e-10
5.199217e-10
5.24694e-10
4.310469e-13
4.591698e-10
5.083149e-10
5.121281e-10
5.158165e-10
5.200073e-10
5.24797e-10
4.222929e-13
4.591097e-10
5.083308e-10
5.121563e-10
5.159027e-10
5.201045e-10
5.249032e-10
4.201831e-13
4.589396e-10
5.083709e-10
5.122565e-10
5.160064e-10
5.202079e-10
5.250132e-10
4.283761e-13
4.589463e-10
5.085286e-10
5.123914e-10
5.161245e-10
5.203169e-10
5.251251e-10
4.023431e-13
4.618916e-10
5.087316e-10
5.125824e-10
5.162631e-10
5.204312e-10
5.252381e-10
5.309313e-10
5.381508e-10
5.479027e-10
5.57338e-10
5.74404e-10
6.021662e-10
7.533729e-10
5.308128e-10
5.379949e-10
5.476945e-10
5.570842e-10
5.74088e-10
6.017102e-10
8.748566e-10
5.306898e-10
5.378396e-10
5.474939e-10
5.603724e-10
5.73796e-10
6.01257e-10
8.723268e-10
5.305658e-10
5.37684e-10
5.472844e-10
5.565812e-10
5.734661e-10
6.008057e-10
8.696769e-10
5.304451e-10
5.375287e-10
5.470825e-10
5.563186e-10
5.731544e-10
6.003566e-10
8.672894e-10
5.303254e-10
5.373736e-10
5.46878e-10
5.560666e-10
5.728461e-10
5.999103e-10
8.648753e-10
5.302079e-10
5.372197e-10
5.466747e-10
5.558224e-10
5.727616e-10
5.994693e-10
8.624478e-10
5.300998e-10
5.370668e-10
5.464728e-10
5.555827e-10
5.726823e-10
5.990335e-10
8.60011e-10
5.300748e-10
5.369249e-10
5.462803e-10
5.553373e-10
5.724373e-10
5.986381e-10
8.575626e-10
5.300565e-10
5.368909e-10
5.461001e-10
5.550927e-10
5.72194e-10
5.982445e-10
8.551062e-10
5.300393e-10
5.36866e-10
5.460543e-10
5.548553e-10
5.719513e-10
5.978527e-10
8.526334e-10
5.300217e-10
5.3684e-10
5.460192e-10
5.548041e-10
5.717072e-10
5.97461e-10
8.501398e-10
5.300039e-10
5.368136e-10
5.459827e-10
5.547588e-10
5.716654e-10
5.970627e-10
8.476045e-10
5.299852e-10
5.367866e-10
5.459448e-10
5.547112e-10
5.716184e-10
5.969837e-10
8.445426e-10
5.299662e-10
5.367581e-10
5.459052e-10
5.546612e-10
5.715686e-10
5.968903e-10
8.349561e-10
5.299461e-10
5.367283e-10
5.45864e-10
5.546092e-10
5.715153e-10
5.96792e-10
8.290496e-10
5.299256e-10
5.366971e-10
5.458214e-10
5.545545e-10
5.714409e-10
5.966899e-10
8.223474e-10
5.299039e-10
5.366656e-10
5.457761e-10
5.544722e-10
5.706966e-10
5.965825e-10
8.14452e-10
5.298813e-10
5.366341e-10
5.457299e-10
5.544122e-10
5.706004e-10
5.964738e-10
8.052732e-10
5.298571e-10
5.366011e-10
5.456811e-10
5.543496e-10
5.705201e-10
5.963593e-10
7.865635e-10
5.298324e-10
5.365663e-10
5.456302e-10
5.542845e-10
5.704365e-10
5.962394e-10
7.597753e-10
5.298057e-10
5.365294e-10
5.455773e-10
5.542158e-10
5.703493e-10
5.96112e-10
7.372257e-10
5.297777e-10
5.364904e-10
5.455187e-10
5.541454e-10
5.702444e-10
5.959776e-10
7.157382e-10
5.297418e-10
5.364492e-10
5.454646e-10
5.573411e-10
5.695662e-10
5.957716e-10
6.989152e-10
5.297049e-10
5.364055e-10
5.453937e-10
5.54015e-10
5.691939e-10
5.956039e-10
6.863788e-10
5.296711e-10
5.363602e-10
5.453303e-10
5.539023e-10
5.690639e-10
5.95447e-10
6.745305e-10
5.296282e-10
5.363095e-10
5.452591e-10
5.538124e-10
5.689275e-10
5.952599e-10
6.649038e-10
5.294867e-10
5.362518e-10
5.451807e-10
5.537158e-10
5.687426e-10
5.937489e-10
6.553234e-10
5.293749e-10
5.343963e-10
5.426855e-10
5.536002e-10
5.685734e-10
5.931693e-10
6.495266e-10
5.293169e-10
5.343239e-10
5.42593e-10
5.534946e-10
5.684183e-10
5.929475e-10
6.447887e-10
5.291162e-10
5.340873e-10
5.42512e-10
5.533807e-10
5.682548e-10
5.919249e-10
7.857526e-10
5.289707e-10
5.338945e-10
5.42424e-10
5.532578e-10
5.680782e-10
5.90714e-10
7.492606e-10
5.2888e-10
5.335384e-10
5.423059e-10
5.531248e-10
5.678906e-10
5.90386e-10
7.073956e-10
5.287956e-10
5.334143e-10
5.419281e-10
5.529812e-10
5.67689e-10
5.89938e-10
7.287453e-10
5.287006e-10
5.332855e-10
5.414877e-10
5.528145e-10
5.674716e-10
5.895605e-10
6.381081e-10
5.285919e-10
5.331506e-10
5.409974e-10
5.525868e-10
5.672391e-10
5.891835e-10
5.921988e-10
5.284681e-10
5.32995e-10
5.407937e-10
5.517708e-10
5.669691e-10
5.888437e-10
6.281504e-10
5.283022e-10
5.32808e-10
5.405821e-10
5.511069e-10
5.6648e-10
5.887611e-10
6.340033e-10
5.28062e-10
5.325599e-10
5.4034e-10
5.50454e-10
5.651691e-10
5.87976e-10
6.364516e-10
5.275137e-10
5.321121e-10
5.395623e-10
5.487838e-10
5.625318e-10
5.860347e-10
6.35719e-10
5.260423e-10
5.301271e-10
5.369569e-10
5.466532e-10
5.606307e-10
5.818229e-10
6.364336e-10
5.230004e-10
5.267454e-10
5.338296e-10
5.44393e-10
5.579879e-10
5.750561e-10
6.315039e-10
5.198267e-10
5.240439e-10
5.309835e-10
5.410001e-10
5.537118e-10
5.689101e-10
6.2714e-10
5.173991e-10
5.213167e-10
5.289119e-10
5.377197e-10
5.496008e-10
5.659267e-10
6.069616e-10
5.134892e-10
5.181125e-10
5.24887e-10
5.353196e-10
5.439732e-10
5.625527e-10
6.212985e-10
5.091982e-10
5.14839e-10
5.222316e-10
5.296108e-10
5.411682e-10
5.565138e-10
6.113497e-10
5.049042e-10
5.107937e-10
5.176535e-10
5.267742e-10
5.35745e-10
5.540856e-10
6.339678e-10
5.013626e-10
5.07167e-10
5.147519e-10
5.215258e-10
5.332062e-10
5.482898e-10
5.854325e-10
4.961759e-10
5.0379e-10
5.099977e-10
5.164478e-10
5.286211e-10
5.453112e-10
5.762829e-10
4.925926e-10
4.988087e-10
5.054691e-10
5.131736e-10
5.245088e-10
5.400232e-10
5.704791e-10
4.886232e-10
4.951072e-10
5.0059e-10
5.096752e-10
5.231332e-10
5.364893e-10
5.592606e-10
4.851889e-10
4.902938e-10
4.970272e-10
5.053294e-10
5.172312e-10
5.322867e-10
5.526288e-10
4.828157e-10
4.866379e-10
4.94046e-10
5.021472e-10
5.133335e-10
5.272618e-10
5.502161e-10
4.812716e-10
4.847561e-10
4.913202e-10
5.003375e-10
5.094619e-10
5.23755e-10
5.423678e-10
4.808419e-10
4.836164e-10
4.906294e-10
4.987262e-10
5.093776e-10
5.167067e-10
5.20728e-10
4.809267e-10
4.83387e-10
4.905767e-10
4.984144e-10
5.065277e-10
5.134144e-10
4.808352e-10
4.830542e-10
4.906599e-10
4.98235e-10
5.061843e-10
5.130183e-10
4.806577e-10
4.821025e-10
4.902132e-10
4.983189e-10
5.07054e-10
5.13762e-10
4.809433e-10
4.817752e-10
4.908761e-10
4.985362e-10
5.082528e-10
5.19139e-10
5.296783e-10
4.823193e-10
4.820652e-10
4.915234e-10
5.00057e-10
5.093021e-10
5.246414e-10
5.464751e-10
4.84511e-10
4.842138e-10
4.946475e-10
5.038104e-10
5.146197e-10
5.280777e-10
5.501227e-10
4.877926e-10
4.88136e-10
4.978296e-10
5.060789e-10
5.190903e-10
5.341994e-10
5.523774e-10
4.916381e-10
4.925193e-10
5.02947e-10
5.104917e-10
5.219724e-10
5.376202e-10
5.662677e-10
4.952238e-10
4.976219e-10
5.065871e-10
5.131387e-10
5.263395e-10
5.405364e-10
5.719656e-10
5.002037e-10
5.023855e-10
5.099764e-10
5.184523e-10
5.291191e-10
5.453184e-10
5.875233e-10
5.038282e-10
5.066828e-10
5.149091e-10
5.213907e-10
5.328921e-10
5.485752e-10
5.968533e-10
5.080388e-10
5.110403e-10
5.184837e-10
5.269223e-10
5.363017e-10
5.530089e-10
6.203952e-10
5.12644e-10
5.154527e-10
5.226857e-10
5.307239e-10
5.409017e-10
5.568909e-10
6.229255e-10
5.158165e-10
5.193198e-10
5.266734e-10
5.350575e-10
5.455218e-10
5.622421e-10
6.463004e-10
5.190956e-10
5.222152e-10
5.289992e-10
5.387549e-10
5.49616e-10
5.65223e-10
6.062888e-10
5.223466e-10
5.25118e-10
5.319192e-10
5.41818e-10
5.545848e-10
5.709004e-10
6.252652e-10
5.257364e-10
5.283148e-10
5.351129e-10
5.444052e-10
5.585032e-10
5.770292e-10
6.396015e-10
5.274379e-10
5.31605e-10
5.381767e-10
5.472968e-10
5.610138e-10
5.836727e-10
6.377553e-10
5.280288e-10
5.323728e-10
5.401439e-10
5.498086e-10
5.635024e-10
5.864794e-10
6.418093e-10
5.282849e-10
5.326633e-10
5.40446e-10
5.506818e-10
5.663514e-10
5.886854e-10
6.437287e-10
5.284582e-10
5.32873e-10
5.406772e-10
5.514128e-10
5.667422e-10
5.887413e-10
6.363592e-10
5.285858e-10
5.330503e-10
5.408869e-10
5.521027e-10
5.671126e-10
5.890264e-10
6.312606e-10
5.286968e-10
5.332035e-10
5.412041e-10
5.52712e-10
5.673574e-10
5.893808e-10
6.420394e-10
5.287937e-10
5.333426e-10
5.416887e-10
5.529043e-10
5.675842e-10
5.897572e-10
6.350486e-10
5.288793e-10
5.334482e-10
5.42234e-10
5.530552e-10
5.677945e-10
5.90175e-10
7.09725e-10
5.289707e-10
5.337129e-10
5.423656e-10
5.531945e-10
5.679892e-10
5.905615e-10
7.642883e-10
5.291164e-10
5.339413e-10
5.4247e-10
5.533227e-10
5.681711e-10
5.909559e-10
7.778811e-10
5.293178e-10
5.34275e-10
5.425549e-10
5.534412e-10
5.683422e-10
5.927882e-10
6.455304e-10
5.29376e-10
5.34338e-10
5.426353e-10
5.535513e-10
5.68501e-10
5.930691e-10
6.484306e-10
5.294877e-10
5.362534e-10
5.45183e-10
5.536626e-10
5.686577e-10
5.933013e-10
6.526085e-10
5.296292e-10
5.363114e-10
5.452615e-10
5.537605e-10
5.688477e-10
5.946832e-10
6.60405e-10
5.296724e-10
5.36362e-10
5.453329e-10
5.538536e-10
5.690027e-10
5.953755e-10
6.696393e-10
5.297061e-10
5.364076e-10
5.453996e-10
5.539411e-10
5.69136e-10
5.955362e-10
6.798786e-10
5.297431e-10
5.364513e-10
5.454632e-10
5.540248e-10
5.692775e-10
5.956898e-10
6.914567e-10
5.297788e-10
5.36492e-10
5.455224e-10
5.541043e-10
5.700083e-10
5.958927e-10
7.067508e-10
5.298065e-10
5.365307e-10
5.455789e-10
5.541794e-10
5.703092e-10
5.960551e-10
7.222707e-10
5.298331e-10
5.365679e-10
5.456326e-10
5.542502e-10
5.703989e-10
5.961856e-10
7.422769e-10
5.298583e-10
5.366026e-10
5.456835e-10
5.543181e-10
5.704853e-10
5.963096e-10
7.642409e-10
5.298826e-10
5.366358e-10
5.457325e-10
5.54382e-10
5.705666e-10
5.964272e-10
7.863911e-10
5.299051e-10
5.366674e-10
5.457786e-10
5.54443e-10
5.706442e-10
5.965389e-10
8.064679e-10
5.299267e-10
5.366989e-10
5.458238e-10
5.545174e-10
5.710274e-10
5.966469e-10
8.194334e-10
5.299473e-10
5.367299e-10
5.458665e-10
5.545841e-10
5.714935e-10
5.96751e-10
8.261267e-10
5.299672e-10
5.367595e-10
5.459075e-10
5.546378e-10
5.715471e-10
5.968515e-10
8.32228e-10
5.299861e-10
5.36788e-10
5.459469e-10
5.546895e-10
5.715988e-10
5.969479e-10
8.425427e-10
5.300045e-10
5.368147e-10
5.459846e-10
5.547386e-10
5.71647e-10
5.970367e-10
8.467294e-10
5.300218e-10
5.368406e-10
5.460206e-10
5.54786e-10
5.716933e-10
5.972754e-10
8.492199e-10
5.300389e-10
5.368662e-10
5.460554e-10
5.548311e-10
5.718354e-10
5.97666e-10
8.516714e-10
5.300555e-10
5.368905e-10
5.461007e-10
5.549757e-10
5.720765e-10
5.980577e-10
8.540986e-10
5.300727e-10
5.369237e-10
5.462802e-10
5.552199e-10
5.723195e-10
5.9845e-10
8.565046e-10
5.300963e-10
5.370643e-10
5.464716e-10
5.554661e-10
5.725629e-10
5.988443e-10
8.589035e-10
5.302026e-10
5.372159e-10
5.466724e-10
5.55713e-10
5.727969e-10
5.99258e-10
8.612941e-10
5.303181e-10
5.373686e-10
5.468749e-10
5.559479e-10
5.727047e-10
5.996968e-10
8.636818e-10
5.304359e-10
5.375226e-10
5.470784e-10
5.561983e-10
5.730029e-10
6.001392e-10
8.660653e-10
5.305552e-10
5.376778e-10
5.472832e-10
5.564495e-10
5.733113e-10
6.005857e-10
8.68442e-10
5.306793e-10
5.378345e-10
5.474888e-10
5.567022e-10
5.736213e-10
6.010344e-10
8.709198e-10
5.308045e-10
5.379909e-10
5.476949e-10
5.569542e-10
5.739332e-10
6.014852e-10
8.735706e-10
5.309301e-10
5.381502e-10
5.479018e-10
5.572074e-10
5.74246e-10
6.019415e-10
8.753714e-10
4.428321e-07
5.091292e-07
5.092198e-07
5.092198e-07
5.092198e-07
5.092198e-07
5.092198e-07
5.092198e-07
5.092198e-07
5.092198e-07
5.092198e-07
5.092198e-07
5.092198e-07
5.092198e-07
5.092198e-07
5.092198e-07
5.092198e-07
5.092198e-07
4.561353e-07
5.091635e-07
5.092203e-07
5.092203e-07
5.092203e-07
5.092203e-07
5.092203e-07
5.092203e-07
5.092203e-07
5.092203e-07
5.092203e-07
5.092203e-07
5.092203e-07
5.092203e-07
5.092203e-07
5.092203e-07
5.092203e-07
5.092203e-07
4.54024e-07
5.091562e-07
5.092203e-07
5.092203e-07
5.092203e-07
5.092203e-07
5.092203e-07
5.092203e-07
5.092203e-07
5.092203e-07
5.092203e-07
5.092203e-07
5.092203e-07
5.092203e-07
5.092203e-07
5.092203e-07
5.092203e-07
5.092203e-07
4.516697e-07
5.091521e-07
5.092203e-07
5.092203e-07
5.092203e-07
5.092203e-07
5.092203e-07
5.092203e-07
5.092203e-07
5.092203e-07
5.092203e-07
5.092203e-07
5.092203e-07
5.092203e-07
5.092203e-07
5.092203e-07
5.092203e-07
5.092203e-07
4.489509e-07
5.091475e-07
5.092203e-07
5.092203e-07
5.092203e-07
5.092203e-07
5.092203e-07
5.092203e-07
5.092203e-07
5.092203e-07
5.092203e-07
5.092203e-07
5.092203e-07
5.092203e-07
5.092203e-07
5.092203e-07
5.092203e-07
5.092203e-07
4.458746e-07
5.091426e-07
5.092203e-07
5.092203e-07
5.092203e-07
5.092203e-07
5.092203e-07
5.092203e-07
5.092203e-07
5.092203e-07
5.092203e-07
5.092203e-07
5.092203e-07
5.092203e-07
5.092203e-07
5.092203e-07
5.092203e-07
5.092203e-07
4.424707e-07
5.091375e-07
5.092203e-07
5.092203e-07
5.092203e-07
5.092203e-07
5.092203e-07
5.092203e-07
5.092203e-07
5.092203e-07
5.092203e-07
5.092203e-07
5.092203e-07
5.092203e-07
5.092203e-07
5.092203e-07
5.092203e-07
5.092203e-07
4.387674e-07
5.091323e-07
5.092203e-07
5.092203e-07
5.092203e-07
5.092203e-07
5.092203e-07
5.092203e-07
5.092203e-07
5.092203e-07
5.092203e-07
5.092203e-07
5.092203e-07
5.092203e-07
5.092203e-07
5.092203e-07
5.092203e-07
5.092203e-07
4.347867e-07
5.091271e-07
5.092203e-07
5.092203e-07
5.092203e-07
5.092203e-07
5.092203e-07
5.092203e-07
5.092203e-07
5.092203e-07
5.092203e-07
5.092203e-07
5.092203e-07
5.092203e-07
5.092203e-07
5.092203e-07
5.092203e-07
5.092203e-07
4.305477e-07
5.091219e-07
5.092203e-07
5.092203e-07
5.092203e-07
5.092203e-07
5.092203e-07
5.092203e-07
5.092203e-07
5.092203e-07
5.092203e-07
5.092203e-07
5.092203e-07
5.092203e-07
5.092203e-07
5.092203e-07
5.092203e-07
5.092203e-07
4.260597e-07
5.091167e-07
5.092203e-07
5.092203e-07
5.092203e-07
5.092203e-07
5.092203e-07
5.092203e-07
5.092203e-07
5.092203e-07
5.092203e-07
5.092203e-07
5.092203e-07
5.092203e-07
5.092203e-07
5.092203e-07
5.092203e-07
5.092203e-07
4.213163e-07
5.091112e-07
5.092203e-07
5.092203e-07
5.092203e-07
5.092203e-07
5.092203e-07
5.092203e-07
5.092203e-07
5.092203e-07
5.092203e-07
5.092203e-07
5.092203e-07
5.092203e-07
5.092203e-07
5.092203e-07
5.092203e-07
5.092203e-07
4.162799e-07
5.091039e-07
5.092203e-07
5.092203e-07
5.092203e-07
5.092203e-07
5.092203e-07
5.092203e-07
5.092203e-07
5.092203e-07
5.092203e-07
5.092203e-07
5.092203e-07
5.092203e-07
5.092203e-07
5.092203e-07
5.092203e-07
5.092203e-07
4.105801e-07
5.090897e-07
5.092203e-07
5.092203e-07
5.092203e-07
5.092203e-07
5.092203e-07
5.092203e-07
5.092203e-07
5.092203e-07
5.092203e-07
5.092203e-07
5.092203e-07
5.092203e-07
5.092203e-07
5.092203e-07
5.092203e-07
5.092203e-07
3.609219e-07
5.090006e-07
5.092202e-07
5.092203e-07
5.092203e-07
5.092203e-07
5.092203e-07
5.092203e-07
5.092203e-07
5.092203e-07
5.092203e-07
5.092203e-07
5.092203e-07
5.092203e-07
5.092203e-07
5.092203e-07
5.092203e-07
5.092203e-07
3.449155e-07
5.089578e-07
5.092204e-07
5.092203e-07
5.092203e-07
5.092203e-07
5.092203e-07
5.092203e-07
5.092203e-07
5.092203e-07
5.092203e-07
5.092203e-07
5.092203e-07
5.092203e-07
5.092203e-07
5.092203e-07
5.092203e-07
5.092203e-07
3.269156e-07
5.089231e-07
5.092198e-07
5.092204e-07
5.092203e-07
5.092203e-07
5.092203e-07
5.092203e-07
5.092203e-07
5.092203e-07
5.092203e-07
5.092203e-07
5.092203e-07
5.092203e-07
5.092203e-07
5.092203e-07
5.092203e-07
5.092203e-07
3.092723e-07
5.088636e-07
5.0922e-07
5.092201e-07
5.092204e-07
5.092203e-07
5.092203e-07
5.092203e-07
5.092203e-07
5.092203e-07
5.092203e-07
5.092203e-07
5.092203e-07
5.092203e-07
5.092203e-07
5.092203e-07
5.092203e-07
5.092203e-07
2.901763e-07
5.088093e-07
5.092202e-07
5.092202e-07
5.092202e-07
5.092203e-07
5.092203e-07
5.092203e-07
5.092203e-07
5.092203e-07
5.092203e-07
5.092203e-07
5.092203e-07
5.092203e-07
5.092203e-07
5.092203e-07
5.092203e-07
5.092203e-07
2.723189e-07
5.087789e-07
5.092202e-07
5.092203e-07
5.092203e-07
5.092203e-07
5.092203e-07
5.092203e-07
5.092203e-07
5.092203e-07
5.092203e-07
5.092203e-07
5.092203e-07
5.092203e-07
5.092203e-07
5.092203e-07
5.092203e-07
5.092203e-07
2.561944e-07
5.087622e-07
5.092201e-07
5.092203e-07
5.092203e-07
5.092203e-07
5.092203e-07
5.092203e-07
5.092203e-07
5.092203e-07
5.092203e-07
5.092203e-07
5.092203e-07
5.092203e-07
5.092203e-07
5.092203e-07
5.092203e-07
5.092203e-07
2.424745e-07
5.087295e-07
5.092201e-07
5.092203e-07
5.092203e-07
5.092203e-07
5.092203e-07
5.092203e-07
5.092203e-07
5.092203e-07
5.092203e-07
5.092203e-07
5.092203e-07
5.092203e-07
5.092203e-07
5.092203e-07
5.092203e-07
5.092203e-07
2.300879e-07
5.086988e-07
5.092201e-07
5.092203e-07
5.092203e-07
5.092203e-07
5.092203e-07
5.092203e-07
5.092203e-07
5.092203e-07
5.092203e-07
5.092203e-07
5.092203e-07
5.092203e-07
5.092203e-07
5.092203e-07
5.092203e-07
5.092203e-07
2.180434e-07
5.086513e-07
5.092201e-07
5.092203e-07
5.092203e-07
5.092203e-07
5.092203e-07
5.092203e-07
5.092203e-07
5.092203e-07
5.092203e-07
5.092203e-07
5.092203e-07
5.092203e-07
5.092203e-07
5.092203e-07
5.092203e-07
5.092203e-07
2.058201e-07
5.085903e-07
5.092201e-07
5.092203e-07
5.092203e-07
5.092203e-07
5.092203e-07
5.092203e-07
5.092203e-07
5.092203e-07
5.092203e-07
5.092203e-07
5.092203e-07
5.092203e-07
5.092203e-07
5.092203e-07
5.092203e-07
5.092203e-07
1.943604e-07
5.085326e-07
5.092201e-07
5.092203e-07
5.092203e-07
5.092203e-07
5.092203e-07
5.092203e-07
5.092203e-07
5.092203e-07
5.092203e-07
5.092203e-07
5.092203e-07
5.092203e-07
5.092203e-07
5.092203e-07
5.092203e-07
5.092203e-07
1.832322e-07
5.084864e-07
5.092201e-07
5.092203e-07
5.092203e-07
5.092203e-07
5.092203e-07
5.092203e-07
5.092203e-07
5.092203e-07
5.092203e-07
5.092203e-07
5.092203e-07
5.092203e-07
5.092203e-07
5.092203e-07
5.092203e-07
5.092203e-07
1.721172e-07
5.084226e-07
5.0922e-07
5.092203e-07
5.092203e-07
5.092203e-07
5.092203e-07
5.092203e-07
5.092203e-07
5.092203e-07
5.092203e-07
5.092203e-07
5.092203e-07
5.092203e-07
5.092203e-07
5.092203e-07
5.092203e-07
5.092203e-07
1.617902e-07
5.083448e-07
5.0922e-07
5.092203e-07
5.092203e-07
5.092203e-07
5.092203e-07
5.092203e-07
5.092203e-07
5.092203e-07
5.092203e-07
5.092203e-07
5.092203e-07
5.092203e-07
5.092203e-07
5.092203e-07
5.092203e-07
5.092203e-07
1.51721e-07
5.082906e-07
5.0922e-07
5.092198e-07
5.092199e-07
5.092203e-07
5.092203e-07
5.092203e-07
5.092203e-07
5.092203e-07
5.092203e-07
5.092203e-07
5.092203e-07
5.092203e-07
5.092203e-07
5.092203e-07
5.092203e-07
5.092203e-07
1.421199e-07
5.082498e-07
5.092199e-07
5.091958e-07
5.091986e-07
5.092201e-07
5.092203e-07
5.092203e-07
5.092203e-07
5.092203e-07
5.092203e-07
5.092203e-07
5.092203e-07
5.092203e-07
5.092203e-07
5.092203e-07
5.092203e-07
5.092203e-07
1.327214e-07
5.0826e-07
5.0922e-07
5.092007e-07
5.092095e-07
5.0922e-07
5.092203e-07
5.092199e-07
5.092199e-07
5.092203e-07
5.092203e-07
5.092203e-07
5.092203e-07
5.092203e-07
5.092203e-07
5.092203e-07
5.092203e-07
5.092203e-07
1.232664e-07
5.083472e-07
5.092205e-07
5.092268e-07
5.092252e-07
5.092203e-07
5.092203e-07
5.092203e-07
5.092203e-07
5.092203e-07
5.092203e-07
5.092203e-07
5.092203e-07
5.092203e-07
5.092203e-07
5.092203e-07
5.092203e-07
5.092203e-07
1.134126e-07
5.088606e-07
5.092192e-07
5.0919e-07
5.09194e-07
5.092195e-07
5.092203e-07
5.092203e-07
5.092203e-07
5.092203e-07
5.092203e-07
5.092203e-07
5.092203e-07
5.092203e-07
5.092203e-07
5.092203e-07
5.092203e-07
5.092203e-07
8.91492e-08
5.075959e-07
5.092144e-07
5.09111e-07
5.090865e-07
5.091273e-07
5.092202e-07
5.092203e-07
5.092201e-07
5.092202e-07
5.092203e-07
5.092203e-07
5.092203e-07
5.092203e-07
5.092203e-07
5.092203e-07
5.092203e-07
5.092203e-07
7.876236e-08
5.079942e-07
5.092137e-07
5.09218e-07
5.091936e-07
5.092137e-07
5.092201e-07
5.092193e-07
5.092186e-07
5.092203e-07
5.092203e-07
5.092203e-07
5.092203e-07
5.092203e-07
5.092203e-07
5.092203e-07
5.092203e-07
5.092203e-07
6.751896e-08
5.082891e-07
5.092102e-07
5.092213e-07
5.09223e-07
5.092178e-07
5.092267e-07
5.092311e-07
5.092266e-07
5.092228e-07
5.092204e-07
5.092194e-07
5.092202e-07
5.092203e-07
5.092203e-07
5.092203e-07
5.092203e-07
5.092203e-07
8.576796e-09
5.054748e-07
5.089842e-07
5.090745e-07
5.090556e-07
5.090695e-07
5.091332e-07
5.092102e-07
5.092419e-07
5.092188e-07
5.092467e-07
5.092575e-07
5.092298e-07
5.092211e-07
5.092198e-07
5.092203e-07
5.092203e-07
5.092203e-07
2.48001e-08
5.024966e-07
5.087192e-07
5.088045e-07
5.088462e-07