/*--------------------------------*- C++ -*----------------------------------*\
| =========                 |                                                 |
| \\      /  F ield         | OpenFOAM: The Open Source CFD Toolbox           |
|  \\    /   O peration     | Version:  2206                                  |
|   \\  /    A nd           | Website:  www.openfoam.com                      |
|    \\/     M anipulation  |                                                 |
\*---------------------------------------------------------------------------*/
FoamFile
{
    version     2.0;
    format      ascii;
    arch        "LSB;label=32;scalar=64";
    class       volScalarField;
    location    "1";
    object      muEff;
}
// * * * * * * * * * * * * * * * * * * * * * * * * * * * * * * * * * * * * * //

dimensions      [1 -1 -1 0 0 0 0];

internalField   nonuniform List<scalar> 
13078
(
0.0368053
0.0368053
0.0368053
0.0368053
0.0368053
0.0368053
0.0368053
0.0368053
0.0368053
0.0368053
0.0368053
0.0368053
0.0368053
0.0368053
0.0368053
0.0368053
0.0368053
0.0368053
0.0368053
0.0368053
0.0368053
0.0368053
0.0368053
0.0368053
0.0368053
0.0368053
0.0368053
0.0368053
0.0368053
0.0368053
0.0368053
0.0368053
0.0368053
0.0368053
0.0368053
0.0368053
0.0368053
0.0368053
0.0368053
0.0368053
0.0368053
0.0368053
0.0368053
0.0368053
0.0368053
0.0368053
0.0368053
0.0368053
0.0368053
0.0368053
0.0368053
0.0368053
0.0368053
0.0368053
0.0368053
0.0368053
0.0368053
0.0368053
0.0368053
0.0368053
0.0368053
0.0368053
0.0368053
0.0368053
0.0368053
0.0368053
0.0368053
0.0368053
0.0368053
0.0368053
0.0368053
0.0368053
0.0368053
0.0368053
0.0368053
0.0368053
0.0368053
0.0368053
0.0368053
0.0368053
0.0368053
0.0368053
0.0368053
0.0368053
0.0368053
0.0368053
0.0368053
0.0368053
0.0368053
0.0368053
0.0368053
0.0368053
0.0368053
0.0368053
0.0368053
0.0368053
0.0368053
0.0368053
0.0368053
0.0368053
0.0368053
0.0368053
0.0368053
0.0368053
0.0368053
0.0368053
0.0368053
0.0368053
0.0368053
0.0368053
0.0368053
0.0368053
0.0368053
0.0368053
0.0368053
0.0368053
0.0368053
0.0368053
0.0368053
0.0368053
0.0368053
0.0368053
0.0368053
0.0368053
0.0368053
0.0368053
0.0368053
0.0368053
0.0368053
0.0368053
0.0368053
0.0368053
0.0368053
0.0368053
0.0368053
0.0368053
0.0368053
0.0368053
0.0368053
0.0368053
0.0368053
0.0368053
0.0368053
0.0368053
0.0368053
0.0368053
0.0368053
0.0368053
0.0368053
0.0368053
0.0368053
0.0368053
0.0368053
0.0368053
0.0368053
0.0368053
0.0368053
0.0368053
0.0368053
0.0368053
0.0368053
0.0368053
0.0368053
0.0368053
0.0368053
0.0368053
0.0368053
0.0368053
0.0368053
0.0368053
0.0368053
0.0368053
0.0368053
0.0368053
0.0368053
0.0368053
0.0368053
0.0368053
0.0368053
0.0368053
0.0368053
0.0368053
0.0368053
0.0368053
0.0368053
0.0368053
0.0368053
0.0368053
0.0368053
0.0368053
0.0368053
0.0368053
0.0368053
0.0368053
0.0368053
0.0368053
0.0368053
0.0368053
0.0368053
0.0368053
0.0368053
0.0368053
0.0368053
0.0368053
0.0368053
0.0368053
0.0368053
0.0368053
0.0368053
0.0368053
0.0368053
0.0368053
0.0368053
0.0368053
0.0368053
0.0368053
0.0368053
0.0368053
0.0368053
0.0368053
0.0368053
0.0368053
0.0368053
0.0368053
0.0368053
0.0368053
0.0368053
0.0368053
0.0368053
0.0368053
0.0368053
0.0368053
0.0368053
0.0368053
0.0368053
0.0368053
0.0368053
0.0368053
0.0368053
0.0368053
0.0368053
0.0368053
0.0368053
0.0368053
0.0368053
0.0368053
0.0368053
0.0368053
0.0368053
0.0368053
0.0368053
0.0368053
0.0368053
0.0368053
0.0368053
0.0368053
0.0368053
0.0368053
0.0368053
0.0368053
0.0368053
0.0368053
0.0368053
0.0368053
0.0368053
0.0368053
0.0368053
0.0368053
0.0368053
0.0368053
0.0368053
0.0368053
0.0368053
0.0368053
0.0368053
0.0368053
0.0368053
0.0368053
0.0368053
0.0368053
0.0368053
0.0368053
0.0368053
0.0368053
0.0368053
0.0368053
0.0368053
0.0368053
0.0368053
0.0368053
0.0368053
0.0368053
0.0368053
0.0368053
0.0368053
0.0368053
0.0368053
0.0368053
0.0368053
0.0368053
0.0368053
0.0368053
0.0368053
0.0368053
0.0368053
0.0368053
0.0368053
0.0368053
0.0368053
0.0368053
0.0368053
0.0368053
0.0368053
0.0368053
0.0368053
0.0368053
0.0368053
0.0368053
0.0368053
0.0368053
0.0368053
0.0368053
0.0368053
0.0368053
0.0368053
0.0368053
0.0368053
0.0368053
0.0368053
0.0368053
0.0368053
0.0368053
0.0368053
0.0368053
0.0368053
0.0368053
0.0368053
0.0368053
0.0368053
0.0368053
0.0368053
0.0368053
0.0368053
0.0368053
0.0368053
0.0368053
0.0368053
0.0368053
0.0368053
0.0368053
0.0368053
0.0368053
0.0368053
0.0368053
0.0368053
0.0368053
0.0368053
0.0368053
0.0368053
0.0368053
0.0368053
0.0368053
0.0368053
0.0368053
0.0368053
0.0368053
0.0368053
0.0368053
0.0368053
0.0368053
0.0368053
0.0368053
0.0368053
0.0368053
0.0368053
0.0368053
0.0368053
0.0368053
0.0368053
0.0368053
0.0368053
0.0368053
0.0368053
0.0368053
0.0368053
0.0368053
0.0368053
0.0368053
0.0368053
0.0368053
0.0368053
0.0368053
0.0368053
0.0368053
0.0368053
0.0368053
0.0368053
0.0368053
0.0368053
0.0368053
0.0368053
0.0368053
0.0368053
0.0368053
0.0368053
0.0368053
0.0368053
0.0368053
0.0368053
0.0368053
0.0368053
0.0368053
0.0368053
0.0368053
0.0368053
0.0368053
0.0368053
0.0368053
0.0368053
0.0368053
0.0368053
0.0368053
0.0368053
0.0368053
0.0368053
0.0368053
0.0368053
0.0368053
0.0368053
0.0368053
0.0368053
0.0368053
0.0368053
0.0368053
0.0368053
0.0368053
0.0368053
0.0368053
0.0368053
0.0368053
0.0368053
0.0368053
0.0368053
0.0368053
0.0368053
0.0368053
0.0368053
0.0368053
0.0368053
0.0368053
0.0368053
0.0368053
0.0368053
0.0368053
0.0368053
0.0368053
0.0368053
0.0368053
0.0368053
0.0368053
0.0368053
0.0368053
0.0368053
0.0368053
0.0368053
0.0368053
0.0368053
0.0368053
0.0368053
0.0368053
0.0368053
0.0368053
0.0368053
0.0368053
0.0368053
0.0368053
0.0368053
0.0368053
0.0368053
0.0368053
0.0368053
0.0368053
0.0368053
0.0368053
0.0368053
0.0368053
0.0368053
0.0368053
0.0368053
0.0368053
0.0368053
0.0368053
0.0368053
0.0368053
0.0368053
0.0368053
0.0368053
0.0368053
0.0368053
0.0368053
0.0368053
0.0368053
0.0368053
0.0368053
0.0368053
0.0368053
0.0368053
0.0368053
0.0368053
0.0368053
0.0368053
0.0368053
0.0368053
0.0368053
0.0368053
0.0368053
0.0368053
0.0368053
0.0368053
0.0368053
0.0368053
0.0368053
0.0368053
0.0368053
0.0368053
0.0368053
0.0368053
0.0368053
0.0368053
0.0368053
0.0368053
0.0368053
0.0368053
0.0368053
0.0368053
0.0368053
0.0368053
0.0368053
0.0368053
0.0368053
0.0368053
0.0368053
0.0368053
0.0368053
0.0368053
0.0368053
0.0368053
0.0368053
0.0368053
0.0368053
0.0368053
0.0368053
0.0368053
0.0368053
0.0368053
0.0368053
0.0368053
0.0368053
0.0368053
0.0368053
0.0368053
0.0368053
0.0368053
0.0368053
0.0368053
0.0368053
0.0368053
0.0368053
0.0368053
0.0368053
0.0368053
0.0368053
0.0368053
0.0368053
0.0368053
0.0368053
0.0368053
0.0368053
0.0368053
0.0368053
0.0368053
0.0368053
0.0368053
0.0368053
0.0368053
0.0368053
0.0368053
0.0368053
0.0368053
0.0368053
0.0368053
0.0368053
0.0368053
0.0368053
0.0368053
0.0368053
0.0368053
0.0368053
0.0368053
0.0368053
0.0368053
0.0368053
0.0368053
0.0368053
0.0368053
0.0368053
0.0368053
0.0368053
0.0368053
0.0368053
0.0368053
0.0368053
0.0368053
0.0368053
0.0368053
0.0368053
0.0368053
0.0368053
0.0368053
0.0368053
0.0368053
0.0368053
0.0368053
0.0368053
0.0368053
0.0368053
0.0368053
0.0368053
0.0368053
0.0368053
0.0368053
0.0368053
0.0368053
0.0368053
0.0368053
0.0368053
0.0368053
0.0368053
0.0368053
0.0368053
0.0368053
0.0368053
0.0368053
0.0368053
0.0368053
0.0368053
0.0368053
0.0368053
0.0368053
0.0368053
0.0368053
0.0368053
0.0368053
0.0368053
0.0368053
0.0368053
0.0368053
0.0368053
0.0368053
0.0368053
0.0368053
0.0368053
0.0368053
0.0368053
0.0368053
0.0368053
0.0368053
0.0368053
0.0368053
0.0368053
0.0368053
0.0368053
0.0368053
0.0368053
0.0368053
0.0368053
0.0368053
0.0368053
0.0368053
0.0368053
0.0368053
0.0368053
0.0368053
0.0368053
0.0368053
0.0368053
0.0368053
0.0368053
0.0368053
0.0368053
0.0368053
0.0368053
0.0368053
0.0368053
0.0368053
0.0368053
0.0368053
0.0368053
0.0368053
0.0368053
0.0368053
0.0368053
0.0368053
0.0368053
0.0368053
0.0368053
0.0368053
0.0368053
0.0368053
0.0368053
0.0368053
0.0368053
0.0368053
0.0368053
0.0368053
0.0368053
0.0368053
0.0368053
0.0368053
0.0368053
0.0368053
0.0368053
0.0368053
0.0368053
0.0368053
0.0368053
0.0368053
0.0368053
0.0368053
0.0368053
0.0368053
0.0368053
0.0368053
0.0368053
0.0368053
0.0368053
0.0368053
0.0368053
0.0368053
0.0368053
0.0368053
0.0368053
0.0368053
0.0368053
0.0368053
0.0368053
0.0368053
0.0368053
0.0368053
0.0368053
0.0368053
0.0368053
0.0368053
0.0368053
0.0368053
0.0368053
0.0368053
0.0368053
0.0368053
0.0368053
0.0368053
0.0368053
0.0368053
0.0368053
0.0368053
0.0368053
0.0368053
0.0368053
0.0368053
0.0368053
0.0368053
0.0368053
0.0368053
0.0368053
0.0368053
0.0368053
0.0368053
0.0368053
0.0368053
0.0368053
0.0368053
0.0368053
0.0368053
0.0368053
0.0368053
0.0368053
0.0368053
0.0368053
0.0368053
0.0368053
0.0368053
0.0368053
0.0368053
0.0368053
0.0368053
0.0368053
0.0368053
0.0368053
0.0368053
0.0368053
0.0368053
0.0368053
0.0368053
0.0368053
0.0368053
0.0368053
0.0368053
0.0368053
0.0368053
0.0368053
0.0368053
0.0368053
0.0368053
0.0368053
0.0368053
0.0368053
0.0368053
0.0368053
0.0368053
0.0368053
0.0368053
0.0368053
0.0368053
0.0368053
0.0368053
0.0368053
0.0368053
0.0368053
0.0368053
0.0368053
0.0368053
0.0368053
0.0368053
0.0368053
0.0368053
0.0368053
0.0368053
0.0368053
0.0368053
0.0368053
0.0368053
0.0368053
0.0368053
0.0368053
0.0368053
0.0368053
0.0368053
0.0368053
0.0368053
0.0368053
0.0368053
0.0368053
0.0368053
0.0368053
0.0368053
0.0368053
0.0368053
0.0368053
0.0368053
0.0368053
0.0368053
0.0368053
0.0368053
0.0368053
0.0368053
0.0368053
0.0368053
0.0368053
0.0368053
0.0368053
0.0368053
0.0368053
0.0368053
0.0368053
0.0368053
0.0368053
0.0368053
0.0368053
0.0368053
0.0368053
0.0368053
0.0368053
0.0368053
0.0368053
0.0368053
0.0368053
0.0368053
0.0368053
0.0368053
0.0368053
0.0368053
0.0368053
0.0368053
0.0368053
0.0368053
0.0368053
0.0368053
0.0368053
0.0368053
0.0368053
0.0368053
0.0368053
0.0368053
0.0368053
0.0368053
0.0368053
0.0368053
0.0368053
0.0368053
0.0368053
0.0368053
0.0368053
0.0368053
0.0368053
0.0368053
0.0368053
0.0368053
0.0368053
0.0368053
0.0368053
0.0368053
0.0368053
0.0368053
0.0368053
0.0368053
0.0368053
0.0368053
0.0368053
0.0368053
0.0368053
0.0368053
0.0368053
0.0368053
0.0368053
0.0368053
0.0368053
0.0368053
0.0368053
0.0368053
0.0368053
0.0368053
0.0368053
0.0368053
0.0368053
0.0368053
0.0368053
0.0368053
0.0368053
0.0368053
0.0368053
0.0368053
0.0368053
0.0368053
0.0368053
0.0368053
0.0368053
0.0368053
0.0368053
0.0368053
0.0368053
0.0368053
0.0368053
0.0368053
0.0368053
0.0368053
0.0368053
0.0368053
0.0368053
0.0368053
0.0368053
0.0368053
0.0368053
0.0368053
0.0368053
0.0368053
0.0368053
0.0368053
0.0368053
0.0368053
0.0368053
0.0368053
0.0368053
0.0368053
0.0368053
0.0368053
0.0368053
0.0368053
0.0368053
0.0368053
0.0368053
0.0368053
0.0368053
0.0368053
0.0368053
0.0368053
0.0368053
0.0368053
0.0368053
0.0368053
0.0368053
0.0368053
0.0368053
0.0368053
0.0368053
0.0368053
0.0368053
0.0368053
0.0368053
0.0368053
0.0368053
0.0368053
0.0368053
0.0368053
0.0368053
0.0368053
0.0368053
0.0368053
0.0368053
0.0368053
0.0368053
0.0368053
0.0368053
0.0368053
0.0368053
0.0368053
0.0368053
0.0368053
0.0368053
0.0368053
0.0368053
0.0368053
0.0368053
0.0368053
0.0368053
0.0368053
0.0368053
0.0368053
0.0368053
0.0368053
0.0368053
0.0368053
0.0368053
0.0368053
0.0368053
0.0368053
0.0368053
0.0368053
0.0368053
0.0368053
0.0368053
0.0368053
0.0368053
0.0368053
0.0368053
0.0368053
0.0368053
0.0368053
0.0368053
0.0368053
0.0368053
0.0368053
0.0368053
0.0368053
0.0368053
0.0368053
0.0368053
0.0368053
0.0368053
0.0368053
0.0368053
0.0368053
0.0368053
0.0368053
0.0368053
0.0368053
0.0368053
0.0368053
0.0368053
0.0368053
0.0368053
0.0368053
0.0368053
0.0368053
0.0368053
0.0368053
0.0368053
0.0368053
0.0368053
0.0368053
0.0368053
0.0368053
0.0368053
0.0368053
0.0368053
0.0368053
0.0368053
0.0368053
0.0368053
0.0368053
0.0368053
0.0368053
0.0368053
0.0368053
0.0368053
0.0368053
0.0368053
0.0368053
0.0368053
0.0368053
0.0368053
0.0368053
0.0368053
0.0368053
0.0368053
0.0368053
0.0368053
0.0368053
0.0368053
0.0368053
0.0368053
0.0368053
0.0368053
0.0368053
0.0368053
0.0368053
0.0368053
0.0368053
0.0368053
0.0368053
0.0368053
0.0368053
0.0368053
0.0368053
0.0368053
0.0368053
0.0368053
0.0368053
0.0368053
0.0368053
0.0368053
0.0368053
0.0368053
0.0368053
0.0368053
0.0368053
0.0368053
0.0368053
0.0368053
0.0368053
0.0368053
0.0368053
0.0368053
0.0368053
0.0368053
0.0368053
0.0368053
0.0368053
0.0368053
0.0368053
0.0368053
0.0368053
0.0368053
0.0368053
0.0368053
0.0368053
0.0368053
0.0368053
0.0368053
0.0368053
0.0368053
0.0368053
0.0368053
0.0368053
0.0368053
0.0368053
0.0368053
0.0368053
0.0368053
0.0368053
0.0368053
0.0368053
0.0368053
0.0368053
0.0368053
0.0368053
0.0368053
0.0368053
0.0368053
0.0368053
0.0368053
0.0368053
0.0368053
0.0368053
0.0368053
0.0368053
0.0368053
0.0368053
0.0368053
0.0368053
0.0368053
0.0368053
0.0368053
0.0368053
0.0368053
0.0368053
0.0368053
0.0368053
0.0368053
0.0368053
0.0368053
0.0368053
0.0368053
0.0368053
0.0368053
0.0368053
0.0368053
0.0368053
0.0368053
0.0368053
0.0368053
0.0368053
0.0368053
0.0368053
0.0368053
0.0368053
0.0368053
0.0368053
0.0368053
0.0368053
0.0368053
0.0368053
0.0368053
0.0368053
0.0368053
0.0368053
0.0368053
0.0368053
0.0368053
0.0368053
0.0368053
0.0368053
0.0368053
0.0368053
0.0368053
0.0368053
0.0368053
0.0368053
0.0368053
0.0368053
0.0368053
0.0368053
0.0368053
0.0368053
0.0368053
0.0368053
0.0368053
0.0368053
0.0368053
0.0368053
0.0368053
0.0368053
0.0368053
0.0368053
0.0368053
0.0368053
0.0368053
0.0368053
0.0368053
0.0368053
0.0368053
0.0368053
0.0368053
0.0368053
0.0368053
0.0368053
0.0368053
0.0368053
0.0368053
0.0368053
0.0368053
0.0368053
0.0368053
0.0368053
0.0368053
0.0368053
0.0368053
0.0368053
0.0368053
0.0368053
0.0368053
0.0368053
0.0368053
0.0368053
0.0368053
0.0368053
0.0368053
0.0368053
0.0368053
0.0368053
0.0368053
0.0368053
0.0368053
0.0368053
0.0368053
0.0368053
0.0368053
0.0368053
0.0368053
0.0368053
0.0368053
0.0368053
0.0368053
0.0368053
0.0368053
0.0368053
0.0368053
0.0368053
0.0368053
0.0368053
0.0368053
0.0368053
0.0368053
0.0368053
0.0368053
0.0368053
0.0368053
0.0368053
0.0368053
0.0368053
0.0368053
0.0368053
0.0368053
0.0368053
0.0368053
0.0368053
0.0368053
0.0368053
0.0368053
0.0368053
0.0368053
0.0368053
0.0368053
0.0368053
0.0368053
0.0368053
0.0368053
0.0368053
0.0368053
0.0368053
0.0368053
0.0368053
0.0368053
0.0368053
0.0368053
0.0368053
0.0368053
0.0368053
0.0368053
0.0368053
0.0368053
0.0368053
0.0368053
0.0368053
0.0368053
0.0368053
0.0368053
0.0368053
0.0368053
0.0368053
0.0368053
0.0368053
0.0368053
0.0368053
0.0368053
0.0368053
0.0368053
0.0368053
0.0368053
0.0368053
0.0368053
0.0368053
0.0368053
0.0368053
0.0368053
0.0368053
0.0368053
0.0368053
0.0368053
0.0368053
0.0368053
0.0368053
0.0368053
0.0368053
0.0368053
0.0368053
0.0368053
0.0368053
0.0368053
0.0368053
0.0368053
0.0368053
0.0368053
0.0368053
0.0368053
0.0368053
0.0368053
0.0368053
0.0368053
0.0368053
0.0368053
0.0368053
0.0368053
0.0368053
0.0368053
0.0368053
0.0368053
0.0368053
0.0368053
0.0368053
0.0368053
0.0368053
0.0368053
0.0368053
0.0368053
0.0368053
0.0368053
0.0368053
0.0368053
0.0368053
0.0368053
0.0368053
0.0368053
0.0368053
0.0368053
0.0368053
0.0368053
0.0368053
0.0368053
0.0368053
0.0368053
0.0368053
0.0368053
0.0368053
0.0368053
0.0368053
0.0368053
0.0368053
0.0368053
0.0368053
0.0368053
0.0368053
0.0368053
0.0368053
0.0368053
0.0368053
0.0368053
0.0368053
0.0368053
0.0368053
0.0368053
0.0368053
0.0368053
0.0368053
0.0368053
0.0368053
0.0368053
0.0368053
0.0368053
0.0368053
0.0368053
0.0368053
0.0368053
0.0368053
0.0368053
0.0368053
0.0368053
0.0368053
0.0368053
0.0368053
0.0368053
0.0368053
0.0368053
0.0368053
0.0368053
0.0368053
0.0368053
0.0368053
0.0368053
0.0368053
0.0368053
0.0368053
0.0368053
0.0368053
0.0368053
0.0368053
0.0368053
0.0368053
0.0368053
0.0368053
0.0368053
0.0368053
0.0368053
0.0368053
0.0368053
0.0368053
0.0368053
0.0368053
0.0368053
0.0368053
0.0368053
0.0368053
0.0368053
0.0368053
0.0368053
0.0368053
0.0368053
0.0368053
0.0368053
0.0368053
0.0368053
0.0368053
0.0368053
0.0368053
0.0368053
0.0368053
0.0368053
0.0368053
0.0368053
0.0368053
0.0368053
0.0368053
0.0368053
0.0368053
0.0368053
0.0368053
0.0368053
0.0368053
0.0368053
0.0368053
0.0368053
0.0368053
0.0368053
0.0368053
0.0368053
0.0368053
0.0368053
0.0368053
0.0368053
0.0368053
0.0368053
0.0368053
0.0368053
0.0368053
0.0368053
0.0368053
0.0368053
0.0368053
0.0368053
0.0368053
0.0368053
0.0368053
0.0368053
0.0368053
0.0368053
0.0368053
0.00100995
0.001003741
0.001012549
0.001028939
0.001065056
0.001169369
0.001293527
0.001343254
0.001308757
0.001280618
0.00125662
0.001237082
0.001221164
0.001208057
0.001197237
0.001188031
0.001180439
0.001174046
0.00101631
0.001011305
0.001016724
0.001033428
0.001076567
0.001259002
0.00141947
0.001373867
0.001318926
0.001283768
0.001258365
0.001238033
0.001221685
0.001208231
0.001196989
0.001187919
0.001180207
0.001173785
0.001017233
0.001018541
0.001026608
0.001046652
0.001107642
0.001407114
0.001711089
0.001378794
0.001321221
0.001283346
0.001257138
0.001236774
0.001220332
0.001206921
0.001195694
0.001186783
0.00117905
0.001172674
0.001018532
0.001025424
0.00103986
0.001068966
0.001160166
0.001471727
0.001573624
0.001366533
0.001319035
0.001278418
0.001252982
0.001233173
0.001217285
0.001204181
0.001193499
0.001184496
0.001177045
0.001170828
0.00102018
0.001028965
0.00105348
0.001078633
0.001136227
0.001338686
0.001378108
0.001382228
0.001308071
0.001269727
0.001245991
0.001227506
0.001212547
0.001200101
0.001190672
0.001180754
0.001174317
0.001168351
0.001022161
0.001029382
0.001058089
0.001079576
0.001120677
0.001251819
0.001321921
0.001404327
0.001303463
0.001259447
0.001236573
0.001220046
0.001206445
0.001195144
0.001186399
0.001176797
0.001170814
0.001165228
0.001024447
0.001029468
0.001059517
0.001078556
0.001110242
0.00120438
0.001307166
0.001367328
0.001284786
0.001245065
0.001225756
0.001211249
0.001199155
0.001188968
0.001181369
0.001171749
0.001166722
0.001161549
0.001027016
0.001029675
0.001059285
0.001076695
0.001102465
0.001174059
0.001292943
0.00126904
0.001266535
0.001233356
0.001213754
0.001201554
0.001191034
0.001182008
0.001175696
0.001166201
0.001162055
0.001157377
0.00102985
0.00103006
0.001057952
0.001074124
0.00109596
0.001150938
0.001261978
0.001194207
0.001258917
0.001222399
0.001201568
0.001191396
0.001182402
0.001174606
0.001169358
0.001160306
0.001156946
0.0011528
0.001032936
0.001030607
0.001055971
0.001070904
0.001089616
0.001132672
0.001225426
0.001161963
0.001264114
0.001213883
0.001190228
0.001181117
0.001173513
0.00116682
0.001162744
0.001154022
0.001151506
0.001147888
0.001036265
0.001031435
0.001054134
0.00106738
0.001083587
0.001118945
0.001186463
0.001153938
0.001268016
0.001206849
0.001181852
0.001170745
0.001164536
0.001158855
0.00115578
0.00114754
0.001145797
0.00114274
0.001039839
0.001032288
0.001053323
0.001063859
0.001078078
0.001107194
0.001167453
0.001159137
0.00122349
0.001197986
0.001176126
0.001161438
0.001155626
0.001150904
0.001148579
0.00114107
0.001139913
0.001137386
0.001043661
0.00103243
0.001053866
0.001060725
0.001073289
0.001099166
0.001147046
0.001163686
0.001176452
0.001195753
0.001169879
0.001154152
0.001146728
0.001142952
0.001141468
0.001134398
0.001133946
0.00113192
0.001048073
0.001022791
0.00105382
0.00105775
0.00106991
0.00109397
0.001131717
0.001168399
0.001157814
0.001203537
0.001161795
0.001147261
0.001138402
0.001135098
0.001134366
0.001127746
0.001127926
0.001126382
0.001070778
0.001015103
0.001046693
0.001057755
0.00107018
0.001092548
0.001128048
0.001163853
0.001142035
0.00118658
0.001160013
0.001138726
0.001130433
0.001127403
0.001127212
0.001121327
0.001121886
0.001120808
0.001078789
0.001010213
0.001024465
0.00105288
0.001080115
0.001100134
0.001126778
0.001164787
0.001143269
0.00119786
0.001150035
0.001131143
0.001122401
0.001119932
0.001120254
0.001114867
0.001115927
0.00111526
0.001090064
0.001007427
0.001014982
0.001024475
0.001068282
0.001134467
0.001140199
0.001156417
0.001149153
0.001177811
0.001139959
0.001126489
0.001114781
0.00111265
0.001113379
0.001108606
0.001110046
0.001109748
0.001101862
0.001006086
0.001014341
0.001020706
0.001030557
0.001176891
0.00117784
0.001157452
0.001143616
0.001149967
0.001146941
0.001117153
0.001107488
0.001105586
0.001106713
0.001102529
0.001104259
0.001104349
0.001106576
0.001008079
0.001013451
0.001019228
0.001028329
0.001049349
0.001180281
0.001155929
0.001144748
0.001144231
0.001130905
0.001110962
0.001101071
0.001098778
0.001100222
0.001096519
0.001098686
0.001099054
0.001111838
0.001010856
0.001012921
0.001017491
0.001024328
0.001044878
0.00108652
0.001140031
0.001138734
0.001140448
0.001116186
0.001103651
0.001095293
0.001092381
0.001093154
0.00109088
0.001093096
0.001093831
0.001118048
0.001013973
0.001013043
0.001016723
0.001023933
0.001032967
0.001082281
0.001112582
0.001122922
0.001123741
0.001105222
0.00109976
0.001088232
0.001086137
0.001084719
0.00108787
0.001087857
0.001088822
0.001125021
0.001021135
0.001014673
0.001016972
0.001023304
0.00103227
0.001049912
0.001125977
0.001110361
0.001107619
0.001099507
0.001090419
0.001082792
0.001080192
0.001080548
0.001081704
0.001082822
0.001083974
0.001132621
0.001019551
0.001016223
0.001017558
0.001023218
0.001030922
0.001046896
0.001082535
0.00110771
0.001095221
0.001091318
0.001082161
0.001076744
0.001074599
0.001075262
0.001076822
0.001077909
0.001079359
0.001140751
0.001016836
0.00101753
0.001018094
0.001023246
0.001030056
0.001044272
0.001078871
0.001088249
0.001087123
0.001080444
0.001076363
0.001070838
0.001069401
0.001070252
0.001072028
0.001073218
0.00107482
0.001149608
0.001015515
0.001017783
0.001018346
0.001023006
0.001029501
0.001042896
0.001071101
0.001081103
0.00107842
0.00107242
0.001070891
0.001064909
0.001064957
0.00106599
0.001067513
0.00106874
0.001070519
0.001158866
0.001013938
0.001017252
0.001018165
0.001022391
0.001028903
0.001042418
0.001064742
0.001071252
0.001070919
0.001065515
0.001063871
0.001059961
0.001060273
0.001060479
0.001062989
0.001064488
0.001066354
0.001168892
0.001012722
0.00101641
0.001017607
0.001021463
0.001028099
0.001042129
0.001058284
0.001064028
0.001063822
0.001059603
0.001058848
0.001055344
0.001056676
0.001055915
0.001058885
0.00106054
0.001062323
0.001179684
0.001011526
0.001015294
0.001016747
0.001020388
0.001027247
0.001039336
0.001052073
0.001057684
0.001057668
0.001055182
0.001053103
0.001051336
0.001052372
0.00105203
0.00105482
0.001056676
0.00105844
0.001191069
0.001010525
0.001013942
0.001015551
0.001019201
0.001025251
0.001035919
0.001047438
0.001053225
0.001052335
0.001050364
0.001048085
0.001047528
0.001048199
0.001048354
0.001051178
0.001053045
0.001055833
0.001203554
0.001009512
0.001012259
0.001014107
0.001018217
0.001021799
0.001031628
0.001045004
0.001047186
0.001047946
0.001046543
0.001042976
0.001044298
0.001043588
0.001046327
0.001047734
0.001049547
0.001052133
0.001216835
0.001008597
0.00100999
0.001010163
0.001023375
0.001018033
0.001029711
0.001048822
0.001032905
0.001044003
0.001042548
0.001039454
0.001040242
0.001040803
0.001042443
0.001044399
0.001046358
0.001049523
0.001230955
0.001007616
0.001008701
0.001010199
0.0010113
0.001023434
0.001030811
0.001039342
0.00104629
0.001041491
0.001039103
0.001036498
0.001036681
0.001037092
0.001039387
0.001041258
0.001043278
0.001045815
0.001246548
0.001006698
0.001008019
0.001006135
0.001014814
0.001021994
0.0010311
0.001039823
0.001049765
0.001036748
0.001034982
0.001033172
0.001034064
0.001034755
0.001036564
0.001038332
0.001040572
0.001040347
0.001264779
0.001005009
0.001007209
0.001006324
0.001010018
0.001028283
0.00103152
0.001039995
0.001037182
0.001034107
0.001030671
0.00102986
0.001031129
0.001031666
0.001033772
0.001035358
0.001037796
0.001038475
0.001320409
0.001005613
0.001007592
0.001010219
0.001005525
0.001027653
0.001023847
0.001034505
0.001029377
0.001031297
0.001027025
0.001026416
0.001028168
0.001028606
0.001031063
0.001033469
0.001036234
0.001037655
0.001350751
0.001004317
0.001005336
0.001006355
0.001009629
0.00102456
0.001028765
0.001015751
0.0010243
0.001024342
0.001023498
0.001024205
0.001026059
0.001027613
0.001028918
0.001030758
0.001030998
0.001033869
0.001391659
0.001002898
0.001003893
0.001005849
0.001011038
0.00102252
0.001022437
0.001018207
0.00102107
0.001020408
0.001020712
0.001022268
0.001022256
0.001024718
0.001026474
0.001028186
0.001028944
0.001032029
0.001879556
0.001001793
0.001004188
0.001008606
0.001012465
0.001014659
0.001015386
0.001015442
0.001016706
0.001017705
0.001018498
0.001020924
0.00102263
0.001023294
0.001024579
0.001025059
0.001028174
0.001029785
0.00297433
0.001001146
0.001005489
0.001005821
0.001007934
0.00101032
0.001011593
0.001013016
0.001014052
0.001015652
0.001016816
0.001019367
0.001019774
0.00102141
0.001023597
0.001025537
0.001026136
0.00102767
0.005054658
0.001002471
0.001001902
0.001003771
0.001006267
0.001008529
0.001009561
0.001011217
0.001012602
0.001014156
0.001015873
0.001017436
0.001018682
0.001019906
0.001022297
0.001021676
0.001023776
0.001025673
0.0368053
0.001003611
0.001002757
0.001003339
0.001005448
0.001007445
0.001008431
0.001010142
0.001011833
0.00101309
0.001014672
0.001014881
0.001016672
0.001018475
0.001019174
0.001020622
0.001022544
0.001023938
0.0368053
0.001003035
0.001004136
0.001004892
0.001006015
0.001006601
0.001007808
0.001009488
0.001011276
0.001012351
0.0010139
0.001015612
0.001015946
0.001017123
0.001017323
0.001019344
0.001020921
0.001022534
0.0368053
0.001002236
0.001006785
0.001006454
0.001005702
0.001006439
0.001008421
0.001009697
0.001010385
0.001011623
0.001012336
0.001012703
0.001013764
0.001014094
0.001016404
0.001017853
0.001019269
0.001021267
0.0368053
0.001002043
0.001004625
0.00100471
0.001005136
0.00100689
0.001008199
0.001009214
0.001010005
0.001010673
0.00101216
0.001012608
0.001012487
0.001014775
0.001015066
0.001016411
0.001018226
0.00101928
0.0368053
0.001003385
0.001004409
0.001003128
0.001004964
0.001006885
0.001007602
0.001008558
0.001009092
0.001009194
0.001010408
0.001010249
0.001011035
0.001012951
0.00101337
0.001015424
0.001016619
0.001018036
0.0368053
0.001003554
0.001001699
0.001002527
0.001004151
0.001006519
0.001006961
0.00100776
0.001008255
0.001008302
0.001008905
0.001009547
0.001011541
0.00101147
0.001012272
0.001013755
0.001015786
0.001016485
0.0368053
0.001007066
0.001000832
0.001002726
0.001004105
0.001005349
0.001006623
0.001007023
0.00100727
0.001007236
0.001008139
0.001008671
0.001009367
0.00100972
0.001011541
0.001012982
0.001013441
0.001015503
0.0368053
0.001060104
0.001001492
0.001003406
0.001005941
0.001005514
0.00100617
0.001006003
0.001006019
0.00100682
0.001007002
0.001007224
0.001007724
0.001009472
0.001010505
0.001011123
0.001013525
0.001014095
0.0368053
0.001309683
0.001001491
0.001003563
0.001006092
0.001006984
0.001005538
0.001005278
0.001004831
0.001004581
0.001006298
0.001006332
0.001007452
0.001008796
0.001008637
0.001010576
0.00101115
0.001013748
0.0368053
0.001510034
0.001002178
0.001002239
0.001004471
0.001005364
0.001004761
0.001005389
0.00100675
0.001006423
0.001008761
0.001009097
0.001010887
0.001012189
0.0368053
0.02243116
0.001004232
0.001005072
0.001004927
0.00100646
0.001007647
0.001008754
0.001010129
0.001011771
0.0368053
0.001003751
0.001004136
0.001005856
0.001006467
0.001007993
0.001009262
0.001010892
0.001003461
0.001004853
0.001006472
0.00100732
0.001008978
0.001010299
0.00100469
0.001005395
0.001006997
0.001008382
0.001009739
0.001004061
0.00100567
0.001006832
0.001008122
0.001009542
0.001004378
0.00100513
0.001006511
0.001007908
0.001009411
0.001004198
0.001005349
0.001006585
0.001007961
0.001009439
0.00100445
0.001005582
0.001006897
0.001008097
0.001009606
0.001005253
0.001005585
0.001006839
0.001008808
0.001009756
0.00100426
0.001005532
0.001007211
0.001007111
0.001008505
0.001010456
0.0368053
0.001004372
0.001006178
0.001006938
0.001007777
0.001009519
0.001011285
0.0368053
0.0368053
0.001004386
0.001004988
0.001007011
0.001007294
0.001009485
0.001009565
0.001011403
0.0368053
0.001754043
0.001003025
0.001003522
0.001004593
0.001005843
0.001006836
0.001006411
0.001010202
0.001009242
0.001012116
0.001012912
0.0368053
0.001361793
0.001004264
0.001002081
0.001003086
0.001003703
0.001004162
0.001004401
0.00100453
0.001005164
0.001006135
0.0010065
0.001007742
0.001009158
0.001008653
0.001011624
0.00101202
0.001012382
0.0368053
0.001170657
0.001001594
0.00100349
0.00100434
0.001005447
0.001005517
0.001006169
0.001006269
0.001006784
0.001007362
0.001008002
0.001007991
0.001011041
0.001010733
0.001012218
0.001012482
0.00101563
0.0368053
0.001017239
0.001001731
0.001007393
0.00100738
0.001007883
0.0010076
0.001007431
0.001007964
0.001007853
0.001008876
0.001009846
0.001010504
0.001009607
0.001013699
0.001012508
0.001015863
0.001014795
0.0368053
0.001004698
0.001001185
0.001003239
0.001010664
0.001011621
0.001010893
0.001009661
0.001009444
0.001009984
0.00101036
0.00101099
0.001010873
0.001013628
0.001012367
0.00101564
0.001015366
0.00101909
0.0368053
0.001002774
0.001003583
0.001004781
0.001012157
0.001020771
0.001015933
0.001012406
0.001011665
0.001012245
0.00101229
0.001013692
0.001011941
0.001014757
0.001016249
0.001015788
0.001017761
0.00101785
0.0368053
0.001001961
0.001004632
0.001006212
0.001013113
0.00102399
0.001019649
0.001015515
0.001013787
0.001014228
0.001012863
0.001015215
0.001015489
0.001015163
0.001017351
0.001018487
0.001019234
0.001021671
0.0368053
0.001001758
0.001003045
0.001005256
0.001009491
0.001031873
0.001020095
0.001017525
0.001017336
0.001016617
0.001016225
0.001016961
0.001018677
0.001016761
0.001019215
0.001020106
0.001021687
0.001022125
0.0368053
0.001001592
0.001005095
0.001004488
0.001007843
0.00101442
0.001016522
0.001019741
0.001020932
0.00102108
0.001019751
0.001018485
0.001020267
0.001020166
0.00102186
0.001022596
0.001023492
0.00102562
0.0368053
0.00100266
0.001001906
0.001002707
0.001005382
0.00101091