/*--------------------------------*- C++ -*----------------------------------*\
| =========                 |                                                 |
| \\      /  F ield         | OpenFOAM: The Open Source CFD Toolbox           |
|  \\    /   O peration     | Version:  2206                                  |
|   \\  /    A nd           | Website:  www.openfoam.com                      |
|    \\/     M anipulation  |                                                 |
\*---------------------------------------------------------------------------*/
FoamFile
{
    version     2.0;
    format      ascii;
    arch        "LSB;label=32;scalar=64";
    class       volScalarField;
    location    "1";
    object      muI;
}
// * * * * * * * * * * * * * * * * * * * * * * * * * * * * * * * * * * * * * //

dimensions      [0 0 0 0 0 0 0];

internalField   nonuniform List<scalar> 
13078
(
0.6300218
0.6300016
0.6300004
0.6300003
0.6300002
0.6300001
0.6300001
0.630002
0.6300006
0.6300004
0.6300002
0.6300002
0.6300001
0.6300001
0.6300006
0.6300004
0.6300002
0.6300002
0.6300001
0.6300001
0.6300001
0.6300003
0.6300002
0.6300001
0.6300001
0.6300001
0.6300001
0.6300001
0.6300001
0.6300001
0.6300001
0.6300001
0.6300001
0.6300001
0.6300001
0.6300001
0.6300001
0.6300001
0.6300001
0.6300001
0.6300001
0.6300001
0.6300001
0.63
0.63
0.63
0.63
0.63
0.6300001
0.6300001
0.63
0.63
0.63
0.63
0.63
0.63
0.63
0.63
0.63
0.63
0.63
0.63
0.63
0.63
0.63
0.63
0.63
0.63
0.63
0.63
0.63
0.63
0.63
0.63
0.63
0.63
0.63
0.63
0.63
0.63
0.63
0.63
0.63
0.63
0.63
0.63
0.63
0.63
0.63
0.63
0.63
0.63
0.63
0.63
0.63
0.63
0.63
0.63
0.63
0.63
0.63
0.63
0.63
0.63
0.63
0.63
0.63
0.63
0.63
0.63
0.63
0.63
0.63
0.63
0.63
0.63
0.63
0.63
0.63
0.63
0.63
0.63
0.63
0.63
0.63
0.63
0.63
0.63
0.63
0.63
0.63
0.63
0.63
0.63
0.63
0.63
0.63
0.63
0.63
0.63
0.63
0.63
0.63
0.63
0.63
0.63
0.63
0.63
0.63
0.63
0.63
0.63
0.63
0.63
0.63
0.63
0.63
0.63
0.63
0.63
0.63
0.63
0.63
0.63
0.63
0.63
0.63
0.6300001
0.63
0.6300001
0.6300001
0.63
0.63
0.6300001
0.6300001
0.63
0.6300001
0.6300001
0.6300001
0.6300001
0.6300001
0.6300001
0.63
0.6300001
0.6300001
0.6300001
0.6300001
0.6300001
0.6300001
0.6300001
0.6300001
0.6300001
0.6300001
0.6300001
0.6300001
0.6300001
0.6300001
0.6300001
0.6300001
0.6300001
0.6300001
0.6300001
0.6300001
0.6300001
0.6300001
0.6300001
0.6300001
0.6300001
0.6300001
0.6300001
0.6300001
0.6300001
0.6300001
0.6300001
0.6300001
0.6300001
0.6300001
0.6300001
0.6300001
0.6300001
0.6300001
0.6300001
0.6300001
0.6300001
0.6300001
0.6300002
0.6300001
0.6300001
0.6300001
0.6300001
0.6300002
0.6300002
0.6300002
0.6300002
0.6300002
0.6300002
0.6300002
0.6300002
0.6300002
0.6300002
0.6300002
0.6300002
0.6300002
0.6300002
0.6300002
0.6300002
0.6300003
0.6300002
0.6300002
0.6300002
0.6300002
0.6300003
0.6300003
0.6300003
0.6300003
0.6300003
0.6300003
0.6300003
0.6300003
0.6300003
0.6300004
0.6300003
0.6300003
0.6300003
0.6300003
0.6300004
0.6300004
0.6300004
0.6300004
0.6300004
0.6300004
0.6300004
0.6300004
0.6300005
0.6300005
0.6300005
0.6300004
0.6300004
0.6300004
0.6300005
0.6300007
0.6300006
0.6300005
0.6300004
0.6300004
0.6300005
0.6300007
0.6300008
0.6300007
0.6300005
0.6300004
0.6300005
0.6300007
0.6300012
0.630001
0.6300007
0.6300005
0.6300004
0.6300006
0.630001
0.6300024
0.6300012
0.6300007
0.6300005
0.6300005
0.6300008
0.6300018
0.6300046
0.6300013
0.6300007
0.6300005
0.6300006
0.6300011
0.6300031
0.6300079
0.6300014
0.6300007
0.6300005
0.6300007
0.6300017
0.6300048
0.6300117
0.6300014
0.6300007
0.6300006
0.630001
0.6300026
0.6300069
0.6300146
0.6300014
0.6300008
0.6300007
0.6300014
0.6300038
0.6300094
0.630018
0.6300014
0.6300009
0.6300009
0.630002
0.6300053
0.6300122
0.6300217
0.6300014
0.6300011
0.6300013
0.6300029
0.6300077
0.6300163
0.6300258
0.6300014
0.6300013
0.6300018
0.6300043
0.630011
0.6300212
0.6300323
0.6300014
0.6300016
0.6300026
0.6300065
0.6300151
0.6300263
0.630039
0.6300014
0.6300019
0.6300035
0.6300087
0.6300185
0.6300298
0.6300448
0.6300014
0.6300022
0.6300045
0.6300108
0.6300213
0.6300324
0.6300448
0.6300014
0.6300025
0.6300054
0.6300123
0.6300232
0.6300337
0.6300427
0.6300014
0.6300026
0.6300058
0.6300131
0.6300241
0.630034
0.6300412
0.6300014
0.6300026
0.6300058
0.630013
0.630024
0.6300339
0.6300411
0.6300014
0.6300024
0.6300052
0.630012
0.6300229
0.6300334
0.6300422
0.6300014
0.6300021
0.6300043
0.6300103
0.6300207
0.630032
0.630044
0.6300014
0.6300018
0.6300033
0.6300081
0.6300176
0.630029
0.6300439
0.6300013
0.6300014
0.6300023
0.6300057
0.6300138
0.630025
0.6300381
0.6300014
0.6300012
0.6300016
0.6300037
0.6300095
0.6300193
0.6300308
0.6300014
0.630001
0.6300011
0.6300023
0.6300062
0.6300139
0.6300235
0.6300014
0.6300009
0.6300008
0.6300015
0.630004
0.6300096
0.6300186
0.6300014
0.6300008
0.6300006
0.630001
0.6300027
0.6300068
0.6300142
0.6300015
0.6300007
0.6300005
0.6300007
0.6300017
0.6300046
0.6300107
0.6300014
0.6300007
0.6300005
0.6300006
0.6300011
0.630003
0.6300078
0.6300014
0.6300007
0.6300005
0.6300005
0.6300008
0.6300019
0.6300048
0.6300012
0.6300007
0.6300005
0.6300004
0.6300006
0.6300011
0.6300027
0.6300011
0.6300007
0.6300005
0.6300004
0.6300005
0.6300007
0.6300015
0.6300009
0.6300007
0.6300005
0.6300005
0.6300005
0.6300006
0.6300009
0.6300007
0.6300006
0.6300005
0.6300005
0.6300005
0.6300005
0.6300007
0.6300006
0.6300005
0.6300005
0.6300004
0.6300004
0.6300005
0.6300006
0.6300004
0.6300005
0.6300004
0.6300004
0.6300004
0.6300004
0.6300005
0.6300004
0.6300004
0.6300004
0.6300003
0.6300003
0.6300004
0.6300004
0.6300003
0.6300003
0.6300003
0.6300003
0.6300003
0.6300003
0.6300003
0.6300002
0.6300003
0.6300003
0.6300002
0.6300002
0.6300003
0.6300003
0.6300002
0.6300002
0.6300002
0.6300002
0.6300002
0.6300002
0.6300002
0.6300002
0.6300002
0.6300002
0.6300002
0.6300002
0.6300002
0.6300002
0.6300001
0.6300002
0.6300002
0.6300001
0.6300001
0.6300002
0.6300002
0.6300001
0.6300001
0.6300001
0.6300001
0.6300001
0.6300001
0.6300001
0.6300001
0.6300001
0.6300001
0.6300001
0.6300001
0.6300001
0.6300001
0.6300001
0.6300001
0.6300001
0.6300001
0.6300001
0.6300001
0.6300001
0.6300001
0.6300001
0.6300001
0.6300001
0.6300001
0.6300001
0.6300001
0.6300001
0.6300001
0.6300001
0.6300001
0.6300001
0.6300001
0.6300001
0.6300001
0.6300001
0.6300001
0.6300001
0.6300001
0.6300001
0.6300001
0.63
0.6300001
0.6300001
0.6300001
0.6300001
0.6300001
0.6300001
0.63
0.6300001
0.6300001
0.63
0.63
0.6300001
0.6300001
0.63
0.63
0.63
0.63
0.63
0.63
0.6300001
0.63
0.63
0.63
0.63
0.63
0.63
0.63
0.63
0.63
0.63
0.63
0.63
0.63
0.63
0.63
0.63
0.63
0.63
0.63
0.63
0.63
0.63
0.63
0.63
0.63
0.63
0.63
0.63
0.63
0.63
0.63
0.63
0.63
0.63
0.63
0.63
0.63
0.63
0.63
0.63
0.63
0.63
0.63
0.63
0.63
0.63
0.63
0.63
0.63
0.63
0.63
0.63
0.63
0.63
0.63
0.63
0.63
0.63
0.63
0.63
0.63
0.63
0.63
0.63
0.63
0.63
0.63
0.63
0.63
0.63
0.63
0.63
0.63
0.63
0.63
0.63
0.63
0.63
0.63
0.63
0.63
0.63
0.63
0.63
0.63
0.63
0.63
0.63
0.63
0.63
0.63
0.63
0.63
0.63
0.63
0.63
0.63
0.63
0.63
0.63
0.63
0.63
0.63
0.63
0.63
0.63
0.63
0.63
0.63
0.63
0.63
0.63
0.6300001
0.63
0.63
0.63
0.63
0.63
0.63
0.6300001
0.63
0.63
0.63
0.63
0.63
0.6300001
0.6300001
0.6300001
0.6300001
0.6300001
0.6300001
0.6300001
0.6300001
0.6300001
0.6300001
0.6300001
0.6300001
0.6300001
0.6300001
0.6300001
0.6300003
0.6300002
0.6300001
0.6300001
0.6300001
0.6300001
0.6300001
0.6300006
0.6300004
0.6300002
0.6300002
0.6300001
0.6300001
0.6300001
0.630002
0.6300006
0.6300004
0.6300002
0.6300002
0.6300001
0.6300001
0.6300001
0.6300001
0.6300001
0.6300001
0.63
0.63
0.6300001
0.6300001
0.6300001
0.6300001
0.6300001
0.63
0.63
0.6300001
0.6300001
0.6300001
0.6300001
0.6300001
0.63
0.63
0.6300001
0.6300001
0.6300001
0.6300001
0.6300001
0.63
0.63
0.6300001
0.6300001
0.6300001
0.6300001
0.6300001
0.63
0.63
0.6300001
0.6300001
0.6300001
0.6300001
0.6300001
0.63
0.63
0.6300001
0.6300001
0.6300001
0.6300001
0.63
0.63
0.63
0.6300001
0.6300001
0.6300001
0.6300001
0.63
0.63
0.63
0.6300001
0.63
0.6300001
0.63
0.63
0.63
0.63
0.6300001
0.63
0.63
0.63
0.63
0.63
0.63
0.6300001
0.63
0.63
0.63
0.63
0.63
0.63
0.6300001
0.63
0.63
0.63
0.63
0.63
0.63
0.6300001
0.63
0.63
0.63
0.63
0.63
0.63
0.6300001
0.63
0.63
0.63
0.63
0.63
0.63
0.6300001
0.63
0.63
0.63
0.63
0.63
0.63
0.6300001
0.63
0.63
0.63
0.63
0.63
0.63
0.6300001
0.63
0.63
0.63
0.63
0.63
0.63
0.6300001
0.63
0.63
0.63
0.63
0.63
0.63
0.6300001
0.63
0.63
0.63
0.63
0.63
0.63
0.6300001
0.63
0.63
0.63
0.63
0.63
0.63
0.6300001
0.63
0.6300001
0.6300001
0.6300001
0.63
0.63
0.6300001
0.6300001
0.6300001
0.6300001
0.6300001
0.6300001
0.6300001
0.6300001
0.6300001
0.6300001
0.6300001
0.6300001
0.6300001
0.6300001
0.6300001
0.6300001
0.6300001
0.6300001
0.6300001
0.6300001
0.6300001
0.6300001
0.6300001
0.6300001
0.6300001
0.6300001
0.6300001
0.6300001
0.6300001
0.6300001
0.6300001
0.6300001
0.6300001
0.6300001
0.6300001
0.6300001
0.6300001
0.6300001
0.6300001
0.6300001
0.6300001
0.6300001
0.6300001
0.6300001
0.6300001
0.6300001
0.6300001
0.6300001
0.6300001
0.6300001
0.6300001
0.6300001
0.6300001
0.6300001
0.6300001
0.6300001
0.6300002
0.6300001
0.6300001
0.6300001
0.6300001
0.6300001
0.6300001
0.6300002
0.6300001
0.6300001
0.6300001
0.6300001
0.6300001
0.6300001
0.6300003
0.6300001
0.6300002
0.6300002
0.6300002
0.6300002
0.6300002
0.6300004
0.6300002
0.6300002
0.6300002
0.6300002
0.6300002
0.6300002
0.6300005
0.6300002
0.6300002
0.6300002
0.6300002
0.6300003
0.6300003
0.6300009
0.6300002
0.6300003
0.6300003
0.6300003
0.6300003
0.6300004
0.6300009
0.6300003
0.6300003
0.6300003
0.6300004
0.6300004
0.6300006
0.6300125
0.6300004
0.6300004
0.6300005
0.6300005
0.6300006
0.630001
0.6300124
0.6300004
0.6300005
0.6300007
0.6300011
0.6300018
0.6300028
0.6300438
0.6300005
0.6300007
0.6300013
0.6300033
0.6300066
0.6300024
0.6300475
0.6300008
0.630001
0.6300033
0.6300101
0.6300126
0.6300121
0.6300435
0.6300014
0.6300021
0.6300092
0.6300198
0.6300195
0.6300156
0.6300865
0.6300031
0.6300056
0.6300188
0.6300312
0.6300358
0.6300198
0.6300918
0.6300065
0.6300112
0.6300284
0.6300435
0.6300509
0.6300434
0.6300639
0.6300121
0.6300182
0.6300412
0.6300582
0.6300607
0.6300655
0.6300796
0.6300173
0.6300256
0.630055
0.6300746
0.6300616
0.6300817
0.6301299
0.6300232
0.6300357
0.6300731
0.6300812
0.6300779
0.6300654
0.6301772
0.630028
0.6300411
0.6300802
0.6300939
0.630084
0.6300692
0.6302089
0.6300307
0.6300447
0.6300773
0.6300945
0.6300943
0.6300788
0.6302338
0.6300336
0.6300429
0.6300773
0.6300984
0.6300858
0.6301225
0.6300134
0.6300408
0.6300516
0.6300902
0.6301007
0.6300921
0.6300764
0.6301064
0.6300545
0.6300668
0.6300988
0.6301176
0.6300919
0.630172
0.6300298
0.6300737
0.6300982
0.6301133
0.6301404
0.6301282
0.6301044
0.6300999
0.6300841
0.6301196
0.6301092
0.6301452
0.6301435
0.630136
0.6301373
0.6300778
0.6301115
0.6301043
0.6301284
0.6301219
0.6301427
0.6301043
0.6300642
0.6300869
0.6300821
0.6300997
0.6301136
0.6300367
0.6305874
0.6300554
0.6300681
0.630064
0.6300778
0.6300804
0.6301091
0.6300548
0.6300628
0.6300584
0.6300724
0.6300786
0.630121
0.6300624
0.6300741
0.6300721
0.6300867
0.6300886
0.6300704
0.6300751
0.630099
0.6300932
0.6301102
0.6301091
0.6300953
0.630203
0.6300815
0.6301222
0.6301083
0.6301407
0.6301413
0.6301655
0.6301262
0.6300719
0.6301205
0.6301148
0.6301452
0.630138
0.6301041
0.630133
0.6300527
0.6300946
0.6301097
0.6301296
0.6301181
0.6301454
0.6300149
0.6300384
0.6300665
0.6300961
0.6301121
0.6300902
0.630091
0.63015
0.63003
0.6300476
0.6300878
0.6301044
0.6300886
0.6300947
0.6300954
0.6300255
0.6300416
0.6300828
0.6300964
0.6300961
0.6300919
0.6300938
0.630022
0.6300391
0.630079
0.6301035
0.630086
0.6300898
0.6303409
0.6300171
0.630033
0.6300746
0.6300896
0.630088
0.6300687
0.6301273
0.6300119
0.6300256
0.6300575
0.6300811
0.6300699
0.6300781
0.630151
0.6300076
0.6300179
0.6300419
0.6300628
0.6300603
0.6300779
0.6300617
0.6300041
0.6300111
0.6300286
0.6300456
0.6300539
0.6300532
0.6300455
0.630002
0.6300058
0.6300187
0.6300332
0.6300408
0.6300356
0.6300443
0.6300012
0.6300027
0.6300107
0.6300226
0.6300265
0.6300172
0.6300663
0.6300008
0.6300014
0.6300048
0.6300139
0.6300163
0.6300156
0.6300736
0.6300006
0.6300009
0.630002
0.6300061
0.6300106
0.6300118
0.6300238
0.6300005
0.6300007
0.6300011
0.630002
0.6300039
0.6300026
0.6300558
0.6300004
0.6300005
0.6300007
0.6300009
0.6300012
0.6300028
0.6300458
0.6300003
0.6300004
0.6300004
0.6300005
0.6300006
0.630001
0.6300083
0.6300003
0.6300003
0.6300003
0.6300004
0.6300004
0.6300005
0.6300013
0.6300002
0.6300002
0.6300003
0.6300003
0.6300003
0.6300004
0.6300008
0.6300002
0.6300002
0.6300002
0.6300002
0.6300002
0.6300003
0.6300013
0.6300002
0.6300002
0.6300002
0.6300002
0.6300002
0.6300002
0.6300004
0.6300001
0.6300001
0.6300002
0.6300002
0.6300002
0.6300002
0.6300003
0.6300001
0.6300001
0.6300001
0.6300001
0.6300001
0.6300001
0.6300003
0.6300001
0.6300001
0.6300001
0.6300001
0.6300001
0.6300001
0.6300002
0.6300001
0.6300001
0.6300001
0.6300001
0.6300001
0.6300001
0.6300002
0.6300001
0.6300001
0.6300001
0.6300001
0.6300001
0.6300001
0.6300001
0.6300001
0.6300001
0.6300001
0.6300001
0.6300001
0.6300001
0.6300001
0.6300001
0.6300001
0.6300001
0.6300001
0.6300001
0.6300001
0.6300001
0.6300001
0.6300001
0.6300001
0.6300001
0.6300001
0.6300001
0.6300001
0.6300001
0.6300001
0.6300001
0.6300001
0.6300001
0.6300001
0.6300001
0.6300001
0.6300001
0.6300001
0.6300001
0.6300001
0.6300001
0.6300001
0.63
0.6300001
0.6300001
0.6300001
0.6300001
0.63
0.6300001
0.63
0.63
0.63
0.63
0.63
0.63
0.6300001
0.63
0.63
0.63
0.63
0.63
0.63
0.6300001
0.63
0.63
0.63
0.63
0.63
0.63
0.6300001
0.63
0.63
0.63
0.63
0.63
0.63
0.6300001
0.63
0.63
0.63
0.63
0.63
0.63
0.6300001
0.63
0.63
0.63
0.63
0.63
0.63
0.6300001
0.63
0.63
0.63
0.63
0.63
0.63
0.6300001
0.63
0.63
0.63
0.63
0.63
0.63
0.6300001
0.63
0.63
0.63
0.63
0.63
0.63
0.6300001
0.63
0.63
0.63
0.63
0.63
0.63
0.6300001
0.63
0.63
0.63
0.63
0.63
0.63
0.6300001
0.63
0.63
0.63
0.63
0.63
0.63
0.6300001
0.63
0.63
0.63
0.63
0.63
0.63
0.6300001
0.6300001
0.6300001
0.6300001
0.63
0.63
0.63
0.6300001
0.6300001
0.6300001
0.6300001
0.6300001
0.63
0.63
0.6300001
0.6300001
0.6300001
0.6300001
0.6300001
0.63
0.63
0.6300001
0.6300001
0.6300001
0.6300001
0.6300001
0.63
0.63
0.6300001
0.6300001
0.6300001
0.6300001
0.6300001
0.63
0.63
0.6300001
0.6300001
0.6300001
0.6300001
0.6300001
0.63
0.63
0.6300001
0.6300001
0.6300001
0.6300001
0.6300001
0.63
0.63
0.6300001
1.123457
1.036227
0.8933958
0.7779844
0.7022055
0.6586629
0.6466511
0.6442564
0.6458364
0.6474101
0.6490219
0.6505721
0.6520349
0.653405
0.6546711
0.6558611
0.6569323
0.6579053
1.122838
0.9084262
0.8516508
0.7613031
0.6919062
0.6488487
0.641681
0.6430967
0.6453354
0.6472186
0.6488947
0.6504909
0.6519838
0.6533857
0.6547017
0.6558762
0.6569664
0.6579466
1.122735
0.8368828
0.7882999
0.7280856
0.674628
0.6420335
0.6369062
0.6429274
0.6452267
0.647244
0.648984
0.6505986
0.6521171
0.6535318
0.6548629
0.6560312
0.6571379
0.6581234
1.122699
0.7940672
0.7428266
0.6983483
0.6602801
0.6403935
0.6385547
0.643357
0.6453302
0.6475464
0.6492926
0.6509131
0.6524235
0.6538433
0.6551408
0.6563491
0.6574403
0.6584222
1.122679
0.7778751
0.716618
0.6903572
0.6654842
0.6444473
0.6429507
0.642812
0.6458714
0.6481064
0.6498351
0.651428
0.6529169
0.6543229
0.6555082
0.656886
0.6578626
0.6588333
1.122668
0.7761613
0.7102536
0.6896751
0.6699381
0.6493808
0.6451939
0.6421159
0.6461104
0.6488167
0.6506159
0.6521456
0.6535853
0.654932
0.6560841
0.6574781
0.6584245
0.6593687
1.122662
0.7758155
0.7084642
0.6904134
0.6736073
0.6538204
0.6459178
0.6433283
0.6471576
0.6499092
0.6515921
0.6530559
0.6544368
0.6557348
0.6567964
0.6582724
0.6591101
0.6600254
1.122658
0.7749817
0.70875
0.6918076
0.6768091
0.6579033
0.646684
0.6481522
0.6483211
0.6508969
0.6527891
0.6541499
0.6554606
0.6567037
0.6576476
0.6591998
0.6599334
0.6608066
1.122655
0.7734549
0.7104292
0.6938419
0.6798695
0.6620951
0.6486367
0.6550505
0.6488548
0.651914
0.6541483
0.6554131
0.6566469
0.6578173
0.6586647
0.6602541
0.6608897
0.6617116
1.122653
0.7713426
0.7130613
0.6965832
0.6832618
0.6664128
0.6516233
0.6599501
0.6484875
0.6527756
0.6555668
0.6568331
0.6579896
0.6590934
0.659809
0.6614648
0.6619771
0.6627436
1.122651
0.7682469
0.7156554
0.6998634
0.6869382
0.6705038
0.6560753
0.6614817
0.6482209
0.6535399
0.6567262
0.6584358
0.6594901
0.6605253
0.6611164
0.6628193
0.6632037
0.6638996
1.122648
0.7651948
0.716852
0.7034736
0.6907658
0.6748088
0.6589851
0.6604722
0.6518084
0.6545791
0.6575811
0.6600458
0.6611467
0.6621021
0.6625944
0.6642924
0.6645697
0.6651916
1.12264
0.7646981
0.7160479
0.7070104
0.6945312
0.6783128
0.6629273
0.6596405
0.657531
0.6548555
0.6585783
0.6614388
0.6629971
0.6638505
0.6641979
0.665956
0.6660745
0.6666156
1.122603
0.8083864
0.7161156
0.7106905
0.6974778
0.6808861
0.6666708
0.6588252
0.6607229
0.6539178
0.6599807
0.6628803
0.6649388
0.6657738
0.6659643
0.6677828
0.6677309
0.6681803
1.122487
0.8664507
0.7280076
0.7106843
0.6972321
0.6816386
0.6676958
0.6596108
0.6640642
0.6560593
0.6603084
0.6648591
0.6670231
0.6678818
0.6679373
0.6697297
0.6695522
0.6698958
1.122623
0.9227809
0.7990295
0.7175189
0.6892925
0.6778619
0.6680642
0.659446
0.6637771
0.6545945
0.6622845
0.6668273
0.6693901
0.6701795
0.6700748
0.6719016
0.671529
0.6717627
1.122608
0.9651135
0.8676113
0.7989772
0.6989935
0.6659378
0.6645007
0.6609921
0.6624715
0.657324
0.6645587
0.6681489
0.6719318
0.6727022
0.6724354
0.674244
0.6736827
0.6737977
1.122682
0.9888163
0.8739766
0.8214217
0.7715313
0.6574638
0.6573195
0.6607923
0.6636973
0.6622988
0.6629503
0.6711063
0.67469
0.6754698
0.6750044
0.676781
0.6760296
0.6759913
1.12294
0.9544277
0.8833108
0.8317443
0.780561
0.72322
0.6569555
0.6610874
0.6634391
0.6635567
0.6668927
0.6733326
0.677433
0.6784963
0.6778212
0.6795909
0.6785396
0.6783658
1.123059
0.9142221
0.8891559
0.8451988
0.7997601
0.7315636
0.6850889
0.6645412
0.664857
0.664441
0.6714389
0.6762911
0.6802055
0.6817282
0.6813153
0.6825495
0.681346
0.680959
1.123064
0.8777974
0.8877956
0.8516626
0.8019019
0.7628492
0.6878019
0.6727272
0.6692274
0.6689746
0.675622
0.6780353
0.6840631
0.6853237
0.6862097
0.684277
0.6842845
0.6837184
1.12301
0.8186223
0.8706484
0.8495294
0.8054175
0.7652565
0.7222637
0.6683
0.6735616
0.6746372
0.6781533
0.682807
0.6874604
0.689238
0.6889886
0.6881913
0.687441
0.6866869
1.122976
0.8294338
0.8560478
0.8446545
0.8059115
0.7701504
0.7276252
0.6876316
0.6746006
0.6802424
0.6823075
0.6878821
0.6917698
0.6934563
0.6929251
0.6917103
0.6908912
0.6898308
1.122946
0.8507245
0.8448791
0.8403566
0.8057509
0.7734721
0.7328075
0.6901839
0.684053
0.6847233
0.6890614
0.6920628
0.6966424
0.6979446
0.6971676
0.6956001
0.6945901
0.6932782
1.122928
0.8625749
0.8428287
0.8383897
0.8071282
0.7756784
0.7357432
0.6964088
0.6886029
0.6905129
0.6952641
0.696595
0.7023593
0.7023084
0.7012459
0.6997341
0.6985606
0.6969271
1.122908
0.8782018
0.8471724
0.8398
0.8107567
0.7781302
0.7368005
0.7025337
0.6962765
0.69657
0.701731
0.703461
0.7079236
0.707548
0.7073014
0.7044234
0.7028024
0.7008782
1.122889
0.8915061
0.8543914
0.8442496
0.8164965
0.7815547
0.7374506
0.7100045
0.7032917
0.7035135
0.7083584
0.7092921
0.7139294
0.7121056
0.7131371
0.709246
0.7072298
0.7051656
1.122867
0.9057767
0.8646103
0.8514551
0.8235613
0.7853405
0.7441424
0.7187616
0.710776
0.7107969
0.7141561
0.7171828
0.7199262
0.7182977
0.7188284
0.7146675
0.7121057
0.709806
1.122843
0.9187222
0.8780882
0.8621876
0.8319418
0.7949416
0.7535051
0.726618
0.7169982
0.7183549
0.7215083
0.7254408
0.7264519
0.725237
0.7249597
0.7201793
0.7172694
0.7132499
1.122816
0.9328442
0.896782
0.8763788
0.8393928
0.814382
0.767544
0.7313089
0.7270837
0.725691
0.728292
0.7355669
0.7327537
0.734247
0.7287059
0.7260758
0.7228811
0.718668
1.122787
0.9465433
0.9258542
0.9234587
0.8050148
0.84084
0.7748363
0.7241346
0.7630622
0.733368
0.7365097
0.7438441
0.7418871
0.7405298
0.7367439
0.7325444
0.7286457
0.7229218
1.122757
0.9623133
0.9446589
0.9229724
0.9084886
0.8046786
0.7705678
0.7441291
0.7287765
0.7389113
0.7447384
0.7518167
0.7512919
0.7501307
0.7440147
0.7394538
0.7349115
0.7296975
1.122726
0.9781419
0.9553543
0.9878804
0.8692524
0.8131702
0.7694827
0.7429197
0.7225121
0.7511006
0.7563304
0.7621582
0.7592241
0.7570356
0.7516271
0.7467494
0.7410847
0.7416295
1.122698
1.010154
0.9687853
0.984407
0.9254645
0.7807554
0.7679377
0.7424918
0.7498784
0.7590876
0.7710959
0.7742426
0.7693771
0.7674094
0.7601712
0.755183
0.7481876
0.7463711
1.122555
0.998626
0.9623333
0.9227014
0.9993983
0.7835161
0.8023771
0.7578203
0.7761811
0.7687527
0.786356
0.7892093
0.7812543
0.779378
0.7696218
0.7611689
0.7525816
0.7485712
1.122261
1.025157
1.003088
0.9838418
0.9309428
0.7985284
0.7787096
0.8603249
0.799911
0.7996858
0.804322
0.8004241
0.7909266
0.7836931
0.7780715
0.7707669
0.769864
0.7598554
1.122047
1.057082
1.032882
0.9932221
0.9118313
0.8099845
0.810484
0.8394688
0.8190259
0.823424
0.8213829
0.8115027
0.8115695
0.7976947
0.7889328
0.7811771
0.7779603
0.7661049
1.120414
1.086248
1.026534
0.9461155
0.8943741
0.8707844
0.8637375
0.8632106
0.851804
0.8434612
0.8372183
0.8199807
0.8093318
0.8054741
0.7984279
0.7959251
0.7812292
0.7745427
1.11843
1.107255
1.000103
0.9937343
0.9567206
0.9213235
0.904817
0.8880956
0.8769507
0.861245
0.8508599
0.8307302
0.8278158
0.8168335
0.8037637
0.7934989
0.7905532
0.783441
1.119155
1.072082
1.079363
1.035545
0.9854452
0.9473026
0.9319144
0.9095378
0.8927872
0.8758772
0.8592135
0.8456502
0.8358111
0.8268931
0.8113252
0.8151509
0.8027689
0.7928256
0.6511353
1.109891
1.05863
1.045185
1.000903
0.9647888
0.9488326
0.9237459
0.9018841
0.8872741
0.8706506
0.8685896
0.8520986
0.837394
0.8321436
0.8219816
0.8098431
0.8018776
0.6384683
1.115815
1.027652
1.011919
0.9900988
0.9794062
0.9587843
0.9329641
0.908793
0.8956958
0.8785379
0.8616215
0.8585454
0.8482553
0.8465825
0.8308984
0.8199979
0.8098996
0.6350152
1.119626
0.9761365
0.9820459
0.9960054
0.9823216
0.9489854
0.929971
0.9204385
0.90445
0.8958792
0.8916255
0.8799658
0.8765097
0.8544463
0.842272
0.8314455
0.8177483
0.6352706
1.119776
1.017383
1.015626
1.007025
0.974302
0.9524726
0.9369555
0.9256395
0.9165904
0.8979494
0.8927217
0.8941192
0.869637
0.8667935
0.8543767
0.8393164
0.8313618
0.6357556
1.120046
1.021867
1.049986
1.010477
0.9743766
0.9621671
0.9468539
0.9387634
0.937252
0.920128
0.9222891
0.9118691
0.8888208
0.8841917
0.8633738
0.8525623
0.8408104
0.6341234
1.122021
1.084477
1.064084
1.027331
0.9808708
0.9730598
0.9595608
0.9515897
0.9508461
0.9415654
0.9321178
0.9054638
0.9063512
0.8966244
0.8800617
0.8600049
0.8537318
0.6325324
1.122596
1.107142
1.059354
1.028319
1.002818
0.9790069
0.9719755
0.9677466
0.9683152
0.9534386
0.9451107
0.9347171
0.9296467
0.9054641
0.888472
0.8834212
0.8626314
0.6302532
1.122427
1.091511
1.043663
0.9914869
0.9996182
0.9872291
0.9903268
0.9900331
0.9755246
0.9723481
0.9685341
0.9601468
0.9331954
0.9188273
0.9107348
0.8825212
0.8765067
0.6301825
1.120603
1.095961
1.040176
0.9886702
0.9726517
0.9991494
1.004228
1.013161
1.018289
0.9848829
0.9842497
0.9646666
0.9432093
0.9456339
0.9178733
0.9103949
0.8801338
0.6301125
1.12052
1.102994
1.071226
1.020573
1.002524
1.014583
1.002042
0.9767524
0.9826045
0.9437361
0.9386862
0.9137811
0.897612
0.630434
0.7055861
1.025615
1.008303
1.01122
0.9819299
0.9614263
0.9438427
0.923934
0.9026395
0.6303052
1.035988
1.027654
0.9930763
0.9818146
0.9557729
0.9362484
0.9137111
1.04243
1.012716
0.981711
0.9668972
0.9404603
0.9216005
1.016051
1.001925
0.9724246
0.9495905
0.9293716
1.029261
0.9966083
0.9753102
0.9537112
0.9321854
1.022531
1.007151
0.9810113
0.9571434
0.9340842
1.026336
1.002824
0.9796816
0.9562976
0.9336704
1.021013
0.9982991
0.9741733
0.9541114
0.9312738
1.004708
0.9982417
0.9751969
0.9430308
0.9291397
1.025023
0.9992732
0.9687404
0.9704677
0.9476782
0.9194853
0.6300592
1.022651
0.9870715
0.9734636
0.9592901
0.9325229
0.9086773
0.6302093
0.6547337
1.022367
1.00998
0.972195
0.9673361
0.9330027
0.9318573
0.9071918
0.6304533
1.118359
1.079942
1.041062
1.018039
0.9933282
0.9752393
0.9828152
0.9229241
0.9365477
0.8984798
0.8892665
0.6301015
1.121708
1.031249
1.074938
1.050952
1.037048
1.027087
1.022049
1.019352
1.006466
0.9878668
0.9812218
0.9598559
0.9377798
0.9453957
0.9044398
0.8996278
0.8953432
0.6302938
1.122269
1.088928
1.041794
1.023334
1.000917
0.9995573
0.9872518
0.9854091
0.9761626
0.9661875
0.9556295
0.9558115
0.911793
0.9157952
0.8972639
0.8941791
0.8614465
0.6319373
1.121756
1.08391
0.9656555
0.9658743
0.9575514
0.9622059
0.9650198
0.9562484
0.9580431
0.9419965
0.9278679
0.9188433
0.9312595
0.8806583
0.8938697
0.859298
0.8694383
0.6333135
1.122314
1.097714
1.047457
0.916709
0.9044791
0.9137043
0.9304782
0.9336012
0.9259364
0.9207782
0.9124489
0.9139635
0.88141
0.8955155
0.8613534
0.8639265
0.8327623
0.6354014
1.121572
1.0397
1.014171
0.8979842
0.8209908
0.8586595
0.8950631
0.9039353
0.8969407
0.8964112
0.8807331
0.9005666
0.869809
0.8558182
0.859987
0.8430108
0.8422932
0.6360839
1.119352
1.017241
0.9864437
0.8870159
0.8015929
0.8287061
0.8625228
0.8797211
0.8751311
0.889811
0.8653639
0.8627686
0.8658562
0.8463576
0.8372974
0.831701
0.8151782
0.6355144
1.119274
1.051899
1.004657
0.9329248
0.7666641
0.8255704
0.844922
0.8464741
0.8525799
0.8560275
0.8496186
0.835852
0.8513324
0.8318435
0.8254947
0.8150781
0.8123706
0.6361078
1.118899
1.007855
1.020216
0.9582099
0.8731777
0.8534103
0.8280526
0.8199297
0.8189623
0.8279788
0.8373181
0.8243863
0.8250794
0.8140037
0.8095336
0.8043557
0.7930869
0.6421143
1.11157
1.079263
1.059796
1.002181
0.9134781
0.8554774
0.8219754
0.7959618
0.7984424
0.8053048
0.8157464
0.8112937
0.806063
0.8011717
0.7980286
0.7915454
0.7847966
0.6578686
1.108443
1.057078
1.047559
1.004263
0.9353263
0.8788824
0.8383291
0.8007121
0.7937848
0.783253
0.8012381
0.7962506
0.7921748
0.7982363
0.7818831
0.7771594
0.7684404
1.117484
1.10483
1.037753
1.029598
1.000186
0.9486623
0.8960663
0.8475847
0.8146854
0.7903111
0.7677076
0.7821414
0.7827994
0.780796
0.7766593
0.776894
0.7626502
0.7567722
1.116947
1.110613
1.056376
1.03305
0.9987504
0.9561656
0.9074735
0.8592179
0.8238111
0.7899244
0.766029
0.7677753
0.7732188
0.7656357
0.7551019
0.7607558
0.7527913
0.7484627
1.121186
1.082717
1.054834
1.016645
0.9864635
0.9482627
0.9068791
0.8542848
0.8268694
0.7932429
0.7749109
0.7524139
0.7553249
0.7529104
0.7499863
0.7432903
0.7477851
0.7406763
1.121617
1.064429
1.035264
1.010861
0.9859208
0.9309583
0.9080745
0.818413
0.8357573
0.7999162
0.7698238
0.7468412
0.750531
0.747633
0.7440571
0.7378226
0.7341235
0.733797
1.122179
1.06066
1.00797
0.9975205
0.9965987
0.8763241
0.8887259
0.8792237
0.7874751
0.798518
0.7599407
0.743307
0.7376351
0.7392708
0.7367373
0.7349438
0.7411123
0.7297719
1.12238
1.05799
0.8893777
1.005057
0.9679309
0.9012703
0.8924023
0.8460909
0.8254702
0.7890923
0.7551051
0.7425906
0.7345468
0.7339042
0.7307921
0.727153
0.7195209
0.7259836
1.122619
1.04879
0.9637594
0.999774
0.9002942
0.8799835
0.8655679
0.8325162
0.8047064
0.7829803
0.7557072
0.7414637
0.7295877
0.7276417
0.7251142
0.7230453
0.7166971
0.7166226
1.12266
1.022688
0.9674415
0.9587163
0.8801465
0.8665899
0.8423685
0.81934
0.8046375
0.7701207
0.7510833
0.7363961
0.7228664
0.7245863
0.7196642
0.7176595
0.7149256
0.7163604
1.122709
1.00644
0.9489945
0.8887231
0.8723337
0.8490075
0.8194653
0.810254
0.7754699
0.7627546
0.7441583
0.7299331
0.7194128
0.7180149
0.7151624
0.7130088
0.7107625
0.7069687
1.122753
0.9952056
0.9192262
0.8549887
0.8922501
0.8087555
0.7973757
0.7954391
0.754161
0.7512806
0.7360512
0.724332
0.7159531
0.7132679
0.7108536
0.7088695
0.7066251
0.7026117
1.122793
0.9850834
0.8836931
0.8389511
0.8504908
0.7994897
0.7783518
0.7716496
0.7537176
0.74152
0.7294162
0.7194097
0.7111482
0.708548
0.7073581
0.7048315
0.7031134
0.700731
1.122829
0.9766231
0.8644625
0.8514426
0.8005779
0.7669847
0.7581957
0.7549192
0.748114
0.735439
0.7243083
0.7149488
0.7073689
0.7034886
0.7043411
0.7014305
0.6995647
0.6972237
1.122862
0.9670005
0.8503192
0.8456723
0.7874568
0.7433826
0.743225
0.7441313
0.7416437
0.7302558
0.7197043
0.7109317
0.7040642
0.6995556
0.7011722
0.6980509
0.6964256
0.6947535
1.12289
0.9568116
0.8395094
0.8394284
0.7859485
0.7377391
0.7323057
0.7366022
0.7360318
0.7257436
0.7155642
0.7067752
0.6998669
0.6961275
0.695339
0.6945493
0.6934308
0.6920051
1.122914
0.9481021
0.8354255
0.8370968
0.7872636
0.7345257
0.7243786
0.7312647
0.7314286
0.7215603
0.7106279
0.7025058
0.6966502
0.694238
0.6973757
0.6921032
0.6907141
0.6892943
1.122935
0.939651
0.8315307
0.8363983
0.7896736
0.7328908
0.7171962
0.7275879
0.7271763
0.7150607
0.7081069
0.6990685
0.6938358
0.6915068
0.6908264
0.6891155
0.6880794
0.6868117
1.122962
0.9251379
0.835107
0.8389493
0.7927167
0.7315391
0.7115769
0.7242672
0.719335
0.7158643
0.7038065
0.6960346
0.6913082
0.6889354
0.6879671
0.6864662
0.6855962
0.6844505
1.122989
0.914491
0.846587
0.8430357
0.7953232
0.7287411
0.7079086
0.715887
0.7246339
0.7100161
0.700686
0.693377
0.6885767
0.6862251
0.6852602
0.6840276
0.6832764
0.6822468
1.123017
0.8962974
0.8612337
0.846843
0.7958841
0.722546
0.7004643
0.7279916
0.7173545
0.7068451
0.6977779
0.6906213
0.6858094
0.6837004
0.6825043
0.6821144
0.6810879
0.6801744
1.123041
0.870356
0.8738683
0.8460468
0.7925241
0.7160549
0.725105
0.7208746
0.7146774
0.7036318
0.6946206
0.6876447
0.6831386
0.6809421
0.680708
0.6797373
0.6789139
0.6782046
1.123036
0.8426926
0.8734297
0.8381201
0.7876148
0.6897685
0.7229729
0.7197415
0.7113116
0.6999724
0.6911607
0.6846121
0.680467
0.6785719
0.6773923
0.6784565
0.6769234
0.6763365
1.123005
0.8695151
0.874201
0.8274018
0.7699019
0.6877552
0.7248067
0.7173113
0.7071555
0.6958174
0.6874396
0.6816183
0.6778302
0.6764022
0.6749795
0.67664
0.6750485
0.6745761
1.123152
0.9296676
0.8777977
0.8222277
0.7391504
0.7195268
0.7240857
0.7133131
0.7020812
0.6911454
0.6834667
0.6784396
0.6755206
0.6742379
0.6729221
0.6746882
0.6732692
0.6729129
1.122694
0.9210536
0.8621474
0.7859508
0.7062775
0.7293804
0.7213396
0.7078391
0.6961224
0.6861371
0.6795541
0.6755019
0.6729708
0.6721499
0.6710392
0.6727615
0.6715798
0.6713318
1.12264
0.9297516
0.7927744
0.7170351
0.7256329
0.7274898
0.7153109
0.7007465
0.6893369
0.6809105
0.6759636
0.672919
0.6708507
0.6701603
0.6692518