/*--------------------------------*- C++ -*----------------------------------*\
| =========                 |                                                 |
| \\      /  F ield         | OpenFOAM: The Open Source CFD Toolbox           |
|  \\    /   O peration     | Version:  2206                                  |
|   \\  /    A nd           | Website:  www.openfoam.com                      |
|    \\/     M anipulation  |                                                 |
\*---------------------------------------------------------------------------*/
FoamFile
{
    version     2.0;
    format      ascii;
    arch        "LSB;label=32;scalar=64";
    class       volScalarField;
    location    "1";
    object      nuEffb;
}
// * * * * * * * * * * * * * * * * * * * * * * * * * * * * * * * * * * * * * //

dimensions      [0 2 -1 0 0 0 0];

internalField   nonuniform List<scalar> 
13078
(
2.342363e-05
4.085982e-05
5.244258e-05
5.201564e-05
5.117468e-05
5.022199e-05
4.915335e-05
4.304635e-05
5.321665e-05
5.294116e-05
5.208915e-05
5.121245e-05
5.024751e-05
4.917732e-05
5.45441e-05
5.391965e-05
5.305259e-05
5.217482e-05
5.126404e-05
5.028321e-05
4.920706e-05
5.487988e-05
5.397944e-05
5.311351e-05
5.223807e-05
5.131212e-05
5.032007e-05
4.923875e-05
5.488584e-05
5.400233e-05
5.314825e-05
5.226903e-05
5.135104e-05
5.03547e-05
4.926981e-05
5.485715e-05
5.400184e-05
5.316301e-05
5.228762e-05
5.136814e-05
5.038408e-05
4.929942e-05
5.483243e-05
5.399433e-05
5.317046e-05
5.230124e-05
5.137978e-05
5.03952e-05
4.93255e-05
5.48155e-05
5.39862e-05
5.317463e-05
5.230893e-05
5.13868e-05
5.040275e-05
4.93338e-05
5.480406e-05
5.397941e-05
5.317353e-05
5.23113e-05
5.139092e-05
5.040815e-05
4.933981e-05
5.479628e-05
5.397437e-05
5.317192e-05
5.23124e-05
5.139367e-05
5.041214e-05
4.934457e-05
5.479093e-05
5.397067e-05
5.317058e-05
5.231298e-05
5.139569e-05
5.041534e-05
4.934872e-05
5.478689e-05
5.396828e-05
5.316969e-05
5.231342e-05
5.139731e-05
5.041809e-05
4.935234e-05
5.478406e-05
5.396649e-05
5.316916e-05
5.231401e-05
5.139875e-05
5.042058e-05
4.935578e-05
5.478187e-05
5.396534e-05
5.316903e-05
5.231501e-05
5.14007e-05
5.042313e-05
4.935921e-05
5.478031e-05
5.396462e-05
5.316942e-05
5.232086e-05
5.140939e-05
5.042636e-05
4.936256e-05
5.477913e-05
5.396431e-05
5.317029e-05
5.232839e-05
5.141651e-05
5.042935e-05
4.936605e-05
5.477815e-05
5.396403e-05
5.317095e-05
5.233034e-05
5.141898e-05
5.043216e-05
4.936965e-05
5.477733e-05
5.396412e-05
5.31718e-05
5.233214e-05
5.142143e-05
5.043512e-05
4.937345e-05
5.477666e-05
5.396435e-05
5.31729e-05
5.233405e-05
5.142437e-05
5.043899e-05
4.937742e-05
5.47761e-05
5.396484e-05
5.317429e-05
5.233678e-05
5.143445e-05
5.045284e-05
4.938253e-05
5.477568e-05
5.396527e-05
5.317581e-05
5.233983e-05
5.144688e-05
5.046442e-05
4.938781e-05
5.477511e-05
5.396586e-05
5.317735e-05
5.234235e-05
5.145129e-05
5.046922e-05
4.939266e-05
5.477462e-05
5.396664e-05
5.317922e-05
5.234533e-05
5.145527e-05
5.047477e-05
4.9399e-05
5.477407e-05
5.396737e-05
5.318119e-05
5.234858e-05
5.146058e-05
5.049001e-05
4.941961e-05
5.477341e-05
5.396825e-05
5.318329e-05
5.235222e-05
5.146642e-05
5.050879e-05
4.943717e-05
5.477268e-05
5.396917e-05
5.318583e-05
5.23563e-05
5.1472e-05
5.051704e-05
4.944594e-05
5.477154e-05
5.397007e-05
5.318852e-05
5.236082e-05
5.147824e-05
5.052512e-05
4.945599e-05
5.477026e-05
5.397108e-05
5.319149e-05
5.236586e-05
5.14855e-05
5.053507e-05
4.948013e-05
5.476877e-05
5.397211e-05
5.319475e-05
5.237155e-05
5.149374e-05
5.05466e-05
4.951012e-05
5.476865e-05
5.397517e-05
5.319894e-05
5.237803e-05
5.150282e-05
5.055816e-05
4.952603e-05
5.476816e-05
5.397777e-05
5.320324e-05
5.238529e-05
5.151316e-05
5.057136e-05
4.954324e-05
5.476486e-05
5.398181e-05
5.3214e-05
5.239463e-05
5.152474e-05
5.058627e-05
4.956262e-05
5.476015e-05
5.398682e-05
5.322861e-05
5.241422e-05
5.153926e-05
5.060333e-05
4.958264e-05
5.475418e-05
5.398849e-05
5.324294e-05
5.243115e-05
5.155585e-05
5.062306e-05
4.960562e-05
5.47473e-05
5.398979e-05
5.325252e-05
5.245365e-05
5.158828e-05
5.064835e-05
4.963226e-05
5.47397e-05
5.399212e-05
5.326372e-05
5.24827e-05
5.16303e-05
5.069495e-05
4.966548e-05
5.473243e-05
5.399666e-05
5.327735e-05
5.250664e-05
5.167466e-05
5.073747e-05
4.97046e-05
5.472788e-05
5.400539e-05
5.32959e-05
5.253278e-05
5.171021e-05
5.079375e-05
4.977368e-05
5.472767e-05
5.40207e-05
5.332164e-05
5.256804e-05
5.17579e-05
5.087512e-05
4.985355e-05
5.473777e-05
5.405131e-05
5.336677e-05
5.263729e-05
5.185588e-05
5.100328e-05
5.000837e-05
5.476326e-05
5.411853e-05
5.348382e-05
5.279732e-05
5.207038e-05
5.124506e-05
5.026651e-05
5.483023e-05
5.42633e-05
5.373387e-05
5.314735e-05
5.24323e-05
5.156294e-05
5.044265e-05
5.497655e-05
5.455807e-05
5.416022e-05
5.362095e-05
5.285525e-05
5.174094e-05
5.04117e-05
5.526135e-05
5.50033e-05
5.466606e-05
5.40405e-05
5.303819e-05
5.176001e-05
5.01903e-05
5.571479e-05
5.551708e-05
5.50768e-05
5.420985e-05
5.302196e-05
5.162743e-05
4.999969e-05
5.630103e-05
5.596607e-05
5.532165e-05
5.425481e-05
5.296551e-05
5.158363e-05
4.987489e-05
5.697007e-05
5.62437e-05
5.537332e-05
5.427365e-05
5.311277e-05
5.16855e-05
4.996036e-05
5.763689e-05
5.64081e-05
5.54703e-05
5.439265e-05
5.335109e-05
5.195934e-05
5.017305e-05
5.822459e-05
5.655056e-05
5.558982e-05
5.461263e-05
5.355184e-05
5.21065e-05
5.035188e-05
5.873208e-05
5.674971e-05
5.572842e-05
5.475273e-05
5.366873e-05
5.228521e-05
5.052991e-05
5.919493e-05
5.709405e-05
5.598595e-05
5.479546e-05
5.362876e-05
5.223799e-05
5.056046e-05
5.960912e-05
5.746293e-05
5.621685e-05
5.491179e-05
5.360867e-05
5.210253e-05
5.040195e-05
5.998655e-05
5.787934e-05
5.639142e-05
5.493976e-05
5.343721e-05
5.175676e-05
5.011362e-05
6.028872e-05
5.827531e-05
5.670834e-05
5.508775e-05
5.336842e-05
5.162924e-05
5.013385e-05
6.047366e-05
5.856673e-05
5.694857e-05
5.522143e-05
5.336749e-05
5.162962e-05
5.023903e-05
6.051968e-05
5.871825e-05
5.70873e-05
5.531278e-05
5.341268e-05
5.167776e-05
5.03163e-05
6.054703e-05
5.875919e-05
5.713511e-05
5.536681e-05
5.346826e-05
5.173236e-05
5.037131e-05
6.0527e-05
5.86383e-05
5.703241e-05
5.531853e-05
5.347355e-05
5.173814e-05
5.03577e-05
6.036541e-05
5.836871e-05
5.681762e-05
5.522041e-05
5.352387e-05
5.18022e-05
5.033321e-05
6.009764e-05
5.801604e-05
5.655113e-05
5.513763e-05
5.36837e-05
5.204315e-05
5.041535e-05
5.974554e-05
5.762802e-05
5.642772e-05
5.517804e-05
5.392834e-05
5.246774e-05
5.079103e-05
5.93426e-05
5.726316e-05
5.616678e-05
5.501377e-05
5.394536e-05
5.265711e-05
5.104882e-05
5.887113e-05
5.689792e-05
5.591692e-05
5.500621e-05
5.403109e-05
5.278258e-05
5.112335e-05
5.836068e-05
5.669612e-05
5.579007e-05
5.488503e-05
5.393599e-05
5.26416e-05
5.098735e-05
5.776165e-05
5.653699e-05
5.566285e-05
5.466308e-05
5.372087e-05
5.24521e-05
5.081692e-05
5.70882e-05
5.635469e-05
5.553493e-05
5.450447e-05
5.343864e-05
5.215969e-05
5.060308e-05
5.640484e-05
5.60665e-05
5.544704e-05
5.444799e-05
5.32561e-05
5.201035e-05
5.0471e-05
5.579886e-05
5.561376e-05
5.518349e-05
5.436019e-05
5.326074e-05
5.197749e-05
5.049579e-05
5.532215e-05
5.508598e-05
5.476408e-05
5.41573e-05
5.32103e-05
5.203104e-05
5.057549e-05
5.501663e-05
5.461854e-05
5.424154e-05
5.372039e-05
5.29802e-05
5.193793e-05
5.068212e-05
5.485622e-05
5.430189e-05
5.37906e-05
5.322565e-05
5.253279e-05
5.167591e-05
5.059699e-05
5.478136e-05
5.414435e-05
5.352187e-05
5.285205e-05
5.213526e-05
5.131441e-05
5.033885e-05
5.475113e-05
5.407183e-05
5.339602e-05
5.267157e-05
5.189397e-05
5.104262e-05
5.005203e-05
5.473913e-05
5.403828e-05
5.334424e-05
5.259079e-05
5.177997e-05
5.090052e-05
4.98809e-05
5.473736e-05
5.401951e-05
5.331281e-05
5.255063e-05
5.172589e-05
5.081082e-05
4.979224e-05
5.474041e-05
5.400714e-05
5.328941e-05
5.251775e-05
5.16786e-05
5.074605e-05
4.971693e-05
5.474596e-05
5.399994e-05
5.32716e-05
5.249138e-05
5.16339e-05
5.069501e-05
4.967405e-05
5.475211e-05
5.399585e-05
5.325886e-05
5.246056e-05
5.159531e-05
5.065495e-05
4.963935e-05
5.475783e-05
5.399287e-05
5.32478e-05
5.243639e-05
5.156121e-05
5.062842e-05
4.961073e-05
5.476301e-05
5.399043e-05
5.323259e-05
5.241825e-05
5.154335e-05
5.060721e-05
4.95862e-05
5.476755e-05
5.398474e-05
5.321707e-05
5.239762e-05
5.15278e-05
5.05892e-05
4.956493e-05
5.477054e-05
5.398032e-05
5.320559e-05
5.238776e-05
5.151549e-05
5.057346e-05
4.954488e-05
5.477069e-05
5.39773e-05
5.320093e-05
5.237992e-05
5.150466e-05
5.055962e-05
4.952723e-05
5.477053e-05
5.39739e-05
5.319641e-05
5.237305e-05
5.149504e-05
5.054771e-05
4.951104e-05
5.477187e-05
5.397271e-05
5.319288e-05
5.236716e-05
5.148654e-05
5.0536e-05
4.948099e-05
5.477308e-05
5.397152e-05
5.318972e-05
5.236179e-05
5.147919e-05
5.052597e-05
4.945653e-05
5.477408e-05
5.397049e-05
5.318691e-05
5.235706e-05
5.14728e-05
5.051773e-05
4.944638e-05
5.477462e-05
5.396932e-05
5.318417e-05
5.235287e-05
5.146705e-05
5.050922e-05
4.943743e-05
5.477521e-05
5.396827e-05
5.318186e-05
5.234931e-05
5.146113e-05
5.049041e-05
4.941988e-05
5.477562e-05
5.396749e-05
5.317984e-05
5.234593e-05
5.145578e-05
5.047517e-05
4.939916e-05
5.4776e-05
5.396661e-05
5.317792e-05
5.234285e-05
5.145173e-05
5.046951e-05
4.939289e-05
5.477638e-05
5.396595e-05
5.317635e-05
5.234015e-05
5.144706e-05
5.046459e-05
4.938793e-05
5.477671e-05
5.396537e-05
5.31747e-05
5.233697e-05
5.143457e-05
5.04529e-05
4.938247e-05
5.477714e-05
5.396479e-05
5.317318e-05
5.233413e-05
5.142441e-05
5.043893e-05
4.937725e-05
5.477761e-05
5.396439e-05
5.317186e-05
5.233221e-05
5.14215e-05
5.043509e-05
4.937337e-05
5.477817e-05
5.396407e-05
5.31709e-05
5.233035e-05
5.141901e-05
5.043222e-05
4.93697e-05
5.477888e-05
5.396405e-05
5.317013e-05
5.232825e-05
5.141648e-05
5.042941e-05
4.936607e-05
5.477969e-05
5.396404e-05
5.316904e-05
5.232063e-05
5.140931e-05
5.042635e-05
4.936253e-05
5.478076e-05
5.396437e-05
5.316834e-05
5.231466e-05
5.140056e-05
5.042312e-05
4.935928e-05
5.478234e-05
5.396506e-05
5.316818e-05
5.231358e-05
5.139866e-05
5.042071e-05
4.935604e-05
5.478434e-05
5.396643e-05
5.316849e-05
5.231293e-05
5.139729e-05
5.041847e-05
4.935298e-05
5.478731e-05
5.396823e-05
5.316907e-05
5.231243e-05
5.139589e-05
5.041612e-05
4.934979e-05
5.47913e-05
5.397076e-05
5.317004e-05
5.231197e-05
5.139433e-05
5.041354e-05
4.934626e-05
5.479672e-05
5.397431e-05
5.317136e-05
5.231141e-05
5.139248e-05
5.041051e-05
4.934233e-05
5.480438e-05
5.397947e-05
5.317273e-05
5.231032e-05
5.138993e-05
5.040653e-05
4.933753e-05
5.481569e-05
5.398624e-05
5.317032e-05
5.230532e-05
5.138555e-05
5.040119e-05
4.933083e-05
5.483264e-05
5.399435e-05
5.316739e-05
5.229672e-05
5.137827e-05
5.03931e-05
4.930673e-05
5.48573e-05
5.40023e-05
5.316313e-05
5.22872e-05
5.136734e-05
5.036756e-05
4.927924e-05
5.488551e-05
5.400285e-05
5.314875e-05
5.226982e-05
5.133656e-05
5.033707e-05
4.92499e-05
5.487793e-05
5.39801e-05
5.311771e-05
5.222562e-05
5.129684e-05
5.030298e-05
4.921878e-05
5.452485e-05
5.393054e-05
5.304214e-05
5.216245e-05
5.124963e-05
5.026623e-05
4.918701e-05
4.313291e-05
5.329444e-05
5.295593e-05
5.207204e-05
5.119312e-05
5.02276e-05
4.915551e-05
4.794532e-05
4.650292e-05
4.469666e-05
4.30934e-05
4.048777e-05
3.693092e-05
3.06935e-05
4.797105e-05
4.653412e-05
4.473394e-05
4.313469e-05
4.053297e-05
3.698424e-05
3.088533e-05
4.799987e-05
4.656627e-05
4.477293e-05
4.260146e-05
4.057648e-05
3.703648e-05
3.101234e-05
4.802997e-05
4.659902e-05
4.480965e-05
4.322268e-05
4.062233e-05
3.708897e-05
3.113154e-05
4.805966e-05
4.663217e-05
4.484818e-05
4.326528e-05
4.066781e-05
3.714152e-05
3.122131e-05
4.808887e-05
4.666539e-05
4.488695e-05
4.330879e-05
4.071292e-05
3.719397e-05
3.130996e-05
4.811715e-05
4.66982e-05
4.492547e-05
4.335093e-05
4.072606e-05
3.724638e-05
3.139768e-05
4.814276e-05
4.673053e-05
4.496361e-05
4.339218e-05
4.073831e-05
3.729841e-05
3.148496e-05
4.815015e-05
4.676031e-05
4.499984e-05
4.343412e-05
4.077453e-05
3.734526e-05
3.157217e-05
4.815569e-05
4.67685e-05
4.503362e-05
4.347592e-05
4.081045e-05
3.739215e-05
3.165932e-05
4.816055e-05
4.677463e-05
4.504294e-05
4.351655e-05
4.084641e-05
3.743903e-05
3.174659e-05
4.816522e-05
4.678072e-05
4.505018e-05
4.352571e-05
4.088258e-05
3.748605e-05
3.183386e-05
4.816965e-05
4.678667e-05
4.505758e-05
4.353394e-05
4.088914e-05
3.753406e-05
3.192116e-05
4.817409e-05
4.679261e-05
4.506513e-05
4.354252e-05
4.089647e-05
3.754393e-05
3.200765e-05
4.817851e-05
4.679881e-05
4.507294e-05
4.355135e-05
4.090424e-05
3.755536e-05
3.201226e-05
4.818314e-05
4.680522e-05
4.508099e-05
4.356054e-05
4.091258e-05
3.756761e-05
3.20207e-05
4.818786e-05
4.681186e-05
4.508926e-05
4.357038e-05
4.092493e-05
3.758035e-05
3.202229e-05
4.81928e-05
4.681855e-05
4.509806e-05
4.358483e-05
4.103213e-05
3.759384e-05
3.20214e-05
4.819792e-05
4.682521e-05
4.510705e-05
4.359532e-05
4.104721e-05
3.76075e-05
3.202321e-05
4.820337e-05
4.683226e-05
4.511651e-05
4.360631e-05
4.10596e-05
3.762183e-05
3.20211e-05
4.820904e-05
4.683968e-05
4.51263e-05
4.361787e-05
4.107252e-05
3.763679e-05
3.200766e-05
4.821524e-05
4.684753e-05
4.513643e-05
4.363023e-05
4.108605e-05
3.765253e-05
3.200314e-05
4.822172e-05
4.685587e-05
4.51474e-05
4.364202e-05
4.110311e-05
3.766906e-05
3.19973e-05
4.823012e-05
4.686483e-05
4.515951e-05
4.310916e-05
4.120603e-05
3.769464e-05
3.199126e-05
4.823894e-05
4.687434e-05
4.517161e-05
4.366882e-05
4.126034e-05
3.771535e-05
3.198342e-05
4.824745e-05
4.688445e-05
4.518458e-05
4.368567e-05
4.12807e-05
3.773479e-05
3.197342e-05
4.825876e-05
4.689628e-05
4.519909e-05
4.370224e-05
4.130165e-05
3.775828e-05
3.195401e-05
4.829082e-05
4.690939e-05
4.521373e-05
4.371949e-05
4.13298e-05
3.794181e-05
3.193147e-05
4.831701e-05
4.728782e-05
4.567827e-05
4.373804e-05
4.135619e-05
3.801351e-05
3.191421e-05
4.833494e-05
4.730311e-05
4.569696e-05
4.375873e-05
4.138119e-05
3.804247e-05
3.189148e-05
4.838188e-05
4.735391e-05
4.571677e-05
4.378126e-05
4.140831e-05
3.817216e-05
3.187262e-05
4.841998e-05
4.740404e-05
4.573862e-05
4.380641e-05
4.143824e-05
3.833046e-05
3.185527e-05
4.844668e-05
4.748028e-05
4.576802e-05
4.383427e-05
4.147087e-05
3.83751e-05
3.185089e-05
4.847314e-05
4.751595e-05
4.584155e-05
4.386502e-05
4.150643e-05
3.843333e-05
3.232676e-05
4.850335e-05
4.755118e-05
4.592799e-05
4.390129e-05
4.154459e-05
3.848394e-05
3.239713e-05
4.853827e-05
4.758915e-05
4.603871e-05
4.395412e-05
4.158287e-05
3.852912e-05
3.419224e-05
4.857804e-05
4.76329e-05
4.608703e-05
4.408421e-05
4.16175e-05
3.856465e-05
3.324865e-05
4.862955e-05
4.76827e-05
4.613533e-05
4.417971e-05
4.162534e-05
3.84585e-05
3.431545e-05
4.870059e-05
4.774602e-05
4.617533e-05
4.422561e-05
4.139745e-05
3.775758e-05
3.50686e-05
4.882893e-05
4.782698e-05
4.61097e-05
4.382515e-05
4.07336e-05
3.679458e-05
3.371929e-05
4.892312e-05
4.781211e-05
4.570781e-05
4.293877e-05
3.979496e-05
3.621805e-05
3.185391e-05
4.893685e-05
4.761347e-05
4.50174e-05
4.181004e-05
3.902838e-05
3.616948e-05
3.159507e-05
4.859952e-05
4.719055e-05
4.425619e-05
4.126929e-05
3.896802e-05
3.677373e-05
3.223154e-05
4.809632e-05
4.651568e-05
4.34078e-05
4.085e-05
3.89728e-05
3.682877e-05
3.295996e-05
4.773974e-05
4.59573e-05
4.278876e-05
4.05666e-05
3.920647e-05
3.661657e-05
3.308928e-05
4.765398e-05
4.535882e-05
4.200053e-05
4.057088e-05
3.895944e-05
3.673232e-05
3.254713e-05
4.754797e-05
4.505982e-05
4.160136e-05
4.035303e-05
3.88307e-05
3.643894e-05
3.315459e-05
4.765295e-05
4.492515e-05
4.166307e-05
4.044338e-05
3.876393e-05
3.651218e-05
3.516101e-05
4.800656e-05
4.539049e-05
4.184701e-05
4.04958e-05
3.91792e-05
3.671548e-05
3.526116e-05
4.82193e-05
4.549921e-05
4.159385e-05
4.044567e-05
3.885604e-05
3.732772e-05
3.586806e-05
4.801545e-05
4.555938e-05
4.132178e-05
4.012488e-05
3.915564e-05
3.79727e-05
3.646835e-05
4.770443e-05
4.499248e-05
4.101229e-05
4.020098e-05
3.970806e-05
3.808344e-05
3.503974e-05
4.771945e-05
4.484682e-05
4.121084e-05
4.050983e-05
3.999297e-05
3.818078e-05
3.639442e-05
4.807112e-05
4.528822e-05
4.186446e-05
4.106993e-05
4.077224e-05
3.919093e-05
3.793042e-05
4.856574e-05
4.622565e-05
4.291343e-05
4.205346e-05
4.132006e-05
4.245987e-05
3.69824e-05
4.885984e-05
4.692501e-05
4.395711e-05
4.326766e-05
4.279293e-05
4.222292e-05
4.892645e-05
4.719579e-05
4.429354e-05
4.377721e-05
4.333343e-05
4.261397e-05
4.872791e-05
4.702466e-05
4.35576e-05
4.279554e-05
4.246614e-05
4.249571e-05
4.833358e-05
4.626873e-05
4.246717e-05
4.190838e-05
4.142539e-05
4.091678e-05
3.858492e-05
4.805795e-05
4.546712e-05
4.169572e-05
4.099691e-05
4.05712e-05
3.8737e-05
3.533776e-05
4.813347e-05
4.5133e-05
4.142799e-05
4.058716e-05
3.974822e-05
3.840248e-05
3.581964e-05
4.854515e-05
4.574676e-05
4.162001e-05
4.043079e-05
3.962788e-05
3.830588e-05
3.566732e-05
4.885393e-05
4.648492e-05
4.181752e-05
4.057592e-05
3.91863e-05
3.77951e-05
3.621558e-05
4.869905e-05
4.641269e-05
4.24092e-05
4.09056e-05
3.934277e-05
3.727389e-05
3.585781e-05
4.839945e-05
4.625606e-05
4.238344e-05
4.09233e-05
3.913598e-05
3.723886e-05
3.529698e-05
4.832375e-05
4.603595e-05
4.248664e-05
4.065359e-05
3.921926e-05
3.668433e-05
3.413924e-05
4.841263e-05
4.627335e-05
4.271919e-05
4.101182e-05
3.907968e-05
3.725509e-05
3.26688e-05
4.845745e-05
4.641567e-05
4.344587e-05
4.128375e-05
3.964177e-05
3.701092e-05
3.334766e-05
4.867365e-05
4.68283e-05
4.408809e-05
4.169799e-05
3.980596e-05
3.726231e-05
3.365275e-05
4.896962e-05
4.725169e-05
4.462573e-05
4.209611e-05
3.97314e-05
3.753816e-05
3.339313e-05
4.914513e-05
4.766961e-05
4.530238e-05
4.225948e-05
3.973008e-05
3.701223e-05
3.237349e-05
4.903992e-05
4.785535e-05
4.57916e-05
4.283889e-05
3.988816e-05
3.654293e-05
3.160716e-05
4.887767e-05
4.783033e-05
4.610009e-05
4.36521e-05
4.061986e-05
3.669577e-05
3.238786e-05
4.87293e-05
4.776057e-05
4.62051e-05
4.412868e-05
4.113849e-05
3.723547e-05
3.439271e-05
4.864791e-05
4.769531e-05
4.617683e-05
4.425361e-05
4.152607e-05
3.810071e-05
3.505941e-05
4.859074e-05
4.764211e-05
4.612352e-05
4.41302e-05
4.162891e-05
3.855727e-05
3.401607e-05
4.854734e-05
4.759807e-05
4.607177e-05
4.403256e-05
4.160622e-05
3.855722e-05
3.331386e-05
4.850986e-05
4.755953e-05
4.599923e-05
4.392909e-05
4.156917e-05
3.851229e-05
3.254793e-05
4.84776e-05
4.75251e-05
4.589401e-05
4.388597e-05
4.152926e-05
3.846165e-05
3.236692e-05
4.844977e-05
4.749282e-05
4.579133e-05
4.385225e-05
4.149139e-05
3.840659e-05
3.216693e-05
4.84221e-05
4.743292e-05
4.575519e-05
4.382205e-05
4.145649e-05
3.83551e-05
3.185134e-05
4.838349e-05
4.738256e-05
4.572884e-05
4.379496e-05
4.142465e-05
3.829704e-05
3.186788e-05
4.833583e-05
4.731376e-05
4.570755e-05
4.377066e-05
4.139545e-05
3.806765e-05
3.188034e-05
4.831764e-05
4.729148e-05
4.568755e-05
4.374906e-05
4.136913e-05
3.802842e-05
3.190146e-05
4.829135e-05
4.690975e-05
4.521401e-05
4.372774e-05
4.134394e-05
3.799823e-05
3.191904e-05
4.825913e-05
4.689658e-05
4.51993e-05
4.371051e-05
4.131459e-05
3.782891e-05
3.19378e-05
4.824771e-05
4.688471e-05
4.518492e-05
4.369393e-05
4.129064e-05
3.774457e-05
3.195814e-05
4.823919e-05
4.687451e-05
4.517171e-05
4.367826e-05
4.12698e-05
3.772421e-05
3.197007e-05
4.823027e-05
4.686482e-05
4.515913e-05
4.366326e-05
4.124737e-05
3.770502e-05
3.198097e-05
4.822178e-05
4.685588e-05
4.514744e-05
4.364887e-05
4.113714e-05
3.767958e-05
3.198756e-05
4.821527e-05
4.684746e-05
4.513634e-05
4.363538e-05
4.109213e-05
3.765941e-05
3.199381e-05
4.820908e-05
4.683945e-05
4.512589e-05
4.362285e-05
4.107828e-05
3.764331e-05
3.200167e-05
4.820326e-05
4.6832e-05
4.511605e-05
4.36108e-05
4.106494e-05
3.762795e-05
3.20057e-05
4.81977e-05
4.682497e-05
4.510656e-05
4.359955e-05
4.105239e-05
3.761327e-05
3.20106e-05
4.819264e-05
4.681828e-05
4.509766e-05
4.358876e-05
4.104045e-05
3.759929e-05
3.201272e-05
4.818774e-05
4.68116e-05
4.508893e-05
4.357577e-05
4.098382e-05
3.758567e-05
3.201163e-05
4.818306e-05
4.680503e-05
4.508067e-05
4.356402e-05
4.091605e-05
3.757262e-05
3.200947e-05
4.817853e-05
4.679877e-05
4.507274e-05
4.35544e-05
4.090767e-05
3.75601e-05
3.20062e-05
4.817423e-05
4.679274e-05
4.50651e-05
4.354509e-05
4.089964e-05
3.754826e-05
3.200284e-05
4.817002e-05
4.6787e-05
4.50577e-05
4.353629e-05
4.08922e-05
3.753723e-05
3.195331e-05
4.816592e-05
4.678133e-05
4.50506e-05
4.352761e-05
4.088506e-05
3.750844e-05
3.186616e-05
4.81617e-05
4.677559e-05
4.504361e-05
4.351932e-05
4.086394e-05
3.746151e-05
3.177887e-05
4.815734e-05
4.676986e-05
4.503459e-05
4.349443e-05
4.082832e-05
3.74146e-05
3.169164e-05
4.815247e-05
4.676222e-05
4.500122e-05
4.345274e-05
4.079251e-05
3.736785e-05
3.160465e-05
4.814599e-05
4.673319e-05
4.496555e-05
4.341057e-05
4.075674e-05
3.7321e-05
3.151778e-05
4.812154e-05
4.670161e-05
4.492796e-05
4.336812e-05
4.072238e-05
3.727182e-05
3.143106e-05
4.809443e-05
4.666949e-05
4.488986e-05
4.332771e-05
4.073434e-05
3.72196e-05
3.134427e-05
4.806626e-05
4.663672e-05
4.485142e-05
4.328481e-05
4.069073e-05
3.716732e-05
3.125712e-05
4.80371e-05
4.660347e-05
4.481275e-05
4.3242e-05
4.064571e-05
3.711504e-05
3.116919e-05
4.80067e-05
4.656997e-05
4.477404e-05
4.319908e-05
4.06006e-05
3.70627e-05
3.106937e-05
4.797626e-05
4.653685e-05
4.473551e-05
4.315679e-05
4.055547e-05
3.70104e-05
3.094506e-05
4.794629e-05
4.650346e-05
4.469721e-05
4.311495e-05
4.051046e-05
3.695788e-05
3.079539e-05
1.013633e-06
1e-06
1e-06
1e-06
1e-06
1e-06
1e-06
1e-06
1e-06
1e-06
1e-06
1e-06
1e-06
1e-06
1e-06
1e-06
1e-06
1e-06
1.022555e-06
1e-06
1e-06
1e-06
1e-06
1e-06
1e-06
1e-06
1e-06
1e-06
1e-06
1e-06
1e-06
1e-06
1e-06
1e-06
1e-06
1e-06
1.023851e-06
1e-06
1e-06
1e-06
1e-06
1e-06
1e-06
1e-06
1e-06
1e-06
1e-06
1e-06
1e-06
1e-06
1e-06
1e-06
1e-06
1e-06
1.025681e-06
1e-06
1e-06
1e-06
1e-06
1e-06
1e-06
1e-06
1e-06
1e-06
1e-06
1e-06
1e-06
1e-06
1e-06
1e-06
1e-06
1e-06
1.028007e-06
1e-06
1e-06
1e-06
1e-06
1e-06
1e-06
1e-06
1e-06
1e-06
1e-06
1e-06
1e-06
1e-06
1e-06
1e-06
1e-06
1e-06
1.030804e-06
1e-06
1e-06
1e-06
1e-06
1e-06
1e-06
1e-06
1e-06
1e-06
1e-06
1e-06
1e-06
1e-06
1e-06
1e-06
1e-06
1e-06
1.034036e-06
1e-06
1e-06
1e-06
1e-06
1e-06
1e-06
1e-06
1e-06
1e-06
1e-06
1e-06
1e-06
1e-06
1e-06
1e-06
1e-06
1e-06
1.037672e-06
1e-06
1e-06
1e-06
1e-06
1e-06
1e-06
1e-06
1e-06
1e-06
1e-06
1e-06
1e-06
1e-06
1e-06
1e-06
1e-06
1e-06
1.041688e-06
1e-06
1e-06
1e-06
1e-06
1e-06
1e-06
1e-06
1e-06
1e-06
1e-06
1e-06
1e-06
1e-06
1e-06
1e-06
1e-06
1e-06
1.046066e-06
1e-06
1e-06
1e-06
1e-06
1e-06
1e-06
1e-06
1e-06
1e-06
1e-06
1e-06
1e-06
1e-06
1e-06
1e-06
1e-06
1e-06
1.050795e-06
1e-06
1e-06
1e-06
1e-06
1e-06
1e-06
1e-06
1e-06
1e-06
1e-06
1e-06
1e-06
1e-06
1e-06
1e-06
1e-06
1e-06
1.055879e-06
1e-06
1e-06
1e-06
1e-06
1e-06
1e-06
1e-06
1e-06
1e-06
1e-06
1e-06
1e-06
1e-06
1e-06
1e-06
1e-06
1e-06
1.061325e-06
1e-06
1e-06
1e-06
1e-06
1e-06
1e-06
1e-06
1e-06
1e-06
1e-06
1e-06
1e-06
1e-06
1e-06
1e-06
1e-06
1e-06
1.06762e-06
1.000001e-06
1e-06
1e-06
1e-06
1e-06
1e-06
1e-06
1e-06
1e-06
1e-06
1e-06
1e-06
1e-06
1e-06
1e-06
1e-06
1e-06
1.100201e-06
1.000001e-06
1e-06
1e-06
1e-06
1e-06
1e-06
1e-06
1e-06
1e-06
1e-06
1e-06
1e-06
1e-06
1e-06
1e-06
1e-06
1e-06
1.111776e-06
1e-06
1e-06
1e-06
1e-06
1e-06
1e-06
1e-06
1e-06
1e-06
1e-06
1e-06
1e-06
1e-06
1e-06
1e-06
1e-06
1e-06
1.128121e-06
1.000002e-06
1e-06
1e-06
1e-06
1e-06
1e-06
1e-06
1e-06
1e-06
1e-06
1e-06
1e-06
1e-06
1e-06
1e-06
1e-06
1e-06
1.145304e-06
1.000002e-06
1e-06
1e-06
1e-06
1e-06
1e-06
1e-06
1e-06
1e-06
1e-06
1e-06
1e-06
1e-06
1e-06
1e-06
1e-06
1e-06
1.152205e-06
1.000003e-06
1e-06
1e-06
1e-06
1e-06
1e-06
1e-06
1e-06
1e-06
1e-06
1e-06
1e-06
1e-06
1e-06
1e-06
1e-06
1e-06
1.159914e-06
1.000004e-06
1e-06
1e-06
1e-06
1e-06
1e-06
1e-06
1e-06
1e-06
1e-06
1e-06
1e-06
1e-06
1e-06
1e-06
1e-06
1e-06
1.169024e-06
1.000003e-06
1e-06
1e-06
1e-06
1e-06
1e-06
1e-06
1e-06
1e-06
1e-06
1e-06
1e-06
1e-06
1e-06
1e-06
1e-06
1e-06
1.179276e-06
1.000004e-06
1e-06
1e-06
1e-06
1e-06
1e-06
1e-06
1e-06
1e-06
1e-06
1e-06
1e-06
1e-06
1e-06
1e-06
1e-06
1e-06
1.190482e-06
1.000005e-06
1e-06
1e-06
1e-06
1e-06
1e-06
1e-06
1e-06
1e-06
1e-06
1e-06
1e-06
1e-06
1e-06
1e-06
1e-06
1e-06
1.202505e-06
1.000006e-06
1e-06
1e-06
1e-06
1e-06
1e-06
1e-06
1e-06
1e-06
1e-06
1e-06
1e-06
1e-06
1e-06
1e-06
1e-06
1e-06
1.215646e-06
1.000008e-06
1e-06
1e-06
1e-06
1e-06
1e-06
1e-06
1e-06
1e-06
1e-06
1e-06
1e-06
1e-06
1e-06
1e-06
1e-06
1e-06
1.229426e-06
1.000009e-06
1e-06
1e-06
1e-06
1e-06
1e-06
1e-06
1e-06
1e-06
1e-06
1e-06
1e-06
1e-06
1e-06
1e-06
1e-06
1e-06
1.244404e-06
1.000012e-06
1e-06
1e-06
1e-06
1e-06
1e-06
1e-06
1e-06
1e-06
1e-06
1e-06
1e-06
1e-06
1e-06
1e-06
1e-06
1e-06
1.260585e-06
1.000014e-06
1e-06
1e-06
1e-06
1e-06
1e-06
1e-06
1e-06
1e-06
1e-06
1e-06
1e-06
1e-06
1e-06
1e-06
1e-06
1e-06
1.277724e-06
1.000017e-06
1e-06
1e-06
1e-06
1e-06
1e-06
1e-06
1e-06
1e-06
1e-06
1e-06
1e-06
1e-06
1e-06
1e-06
1e-06
1e-06
1.296598e-06
1.000021e-06
1e-06
1e-06
1e-06
1e-06
1e-06
1e-06
1e-06
1e-06
1e-06
1e-06
1e-06
1e-06
1e-06
1e-06
1e-06
1e-06
1.316764e-06
1.000026e-06
1e-06
1e-06
1e-06
1e-06
1e-06
1e-06
1e-06
1e-06
1e-06
1e-06
1e-06
1e-06
1e-06
1e-06
1e-06
1e-06
1.338307e-06
1.000031e-06
1e-06
1e-06
1e-06
1e-06
1e-06
1e-06
1e-06
1e-06
1e-06
1e-06
1e-06
1e-06
1e-06
1e-06
1e-06
1e-06
1.362215e-06
1.000037e-06
1e-06
1e-06
1e-06
1e-06
1e-06
1e-06
1e-06
1e-06
1e-06
1e-06
1e-06
1e-06
1e-06
1e-06
1e-06
1e-06
1.390328e-06
1.000041e-06
1e-06
1e-06
1e-06
1e-06
1e-06
1e-06
1e-06
1e-06
1e-06
1e-06
1e-06
1e-06
1e-06
1e-06
1e-06
1e-06
1.477136e-06
1.000067e-06
1e-06
1e-06
1e-06
1e-06
1e-06
1e-06
1e-06
1e-06
1e-06
1e-06
1e-06
1e-06
1e-06
1e-06
1e-06
1e-06
1.52511e-06
1.00009e-06
1e-06
1e-06
1e-06
1e-06
1e-06
1e-06
1e-06
1e-06
1e-06
1e-06
1e-06
1e-06
1e-06
1e-06
1e-06
1e-06
1.590493e-06
1.000106e-06
1e-06
1e-06
1e-06
1e-06
1e-06
1e-06
1e-06
1e-06
1e-06
1e-06
1e-06
1e-06
1e-06
1e-06
1e-06
1e-06
2.424949e-06
1.00023e-06
1e-06
1e-06
1e-06
1e-06
1e-06
1e-06
1e-06
1e-06
1e-06
1e-06
1e-06
1e-06
1e-06
1e-06
1e-06
1e-06
4.567211e-06
1.000449e-06
1e-06
1e-06
1e-06
1e-06
1e-06
1e-06
1e-06
1e-06
1e-06
1e-06
1e-06
1e-06
1e-06
1e-06
1e-06
1e-06
9.208576e-06
1.000385e-06
1e-06
1e-06
1e-06
1e-06
1e-06
1e-06
1e-06
1e-06
1e-06
1e-06
1e-06
1e-06
1e-06
1e-06
1e-06
1e-06
1.570752e-05
1.004039e-06
1.000001e-06
1e-06
1e-06
1e-06
1e-06
1e-06
1e-06
1e-06
1e-06
1e-06
1e-06
1e-06
1e-06
1e-06
1e-06
1e-06
1.828405e-05
1.003537e-06
1e-06
1e-06
1e-06
1e-06
1e-06
1e-06
1e-06
1e-06
1e-06
1e-06
1e-06
1e-06
1e-06
1e-06
1e-06
1e-06
1.989319e-05
1.002612e-06
1e-06
1e-06
1e-06
1e-06
1e-06
1e-06
1e-06
1e-06
1e-06
1e-06
1e-06
1e-06
1e-06
1e-06
1e-06
1e-06
2.092647e-05
1.002349e-06
1e-06
1e-06
1e-06
1e-06
1e-06
1e-06
1e-06
1e-06
1e-06
1e-06
1e-06
1e-06
1e-06
1e-06
1e-06
1e-06
2.193405e-05
1.004244e-06
1e-06
1e-06
1e-06
1e-06
1e-06
1e-06
1e-06
1e-06
1e-06
1e-06
1e-06
1e-06
1e-06
1e-06
1e-06
1e-06
2.396741e-05
1.004581e-06
1e-06
1e-06
1e-06
1e-06
1e-06
1e-06
1e-06
1e-06
1e-06
1e-06
1e-06
1e-06
1e-06
1e-06
1e-06
1e-06
2.689997e-05
1.009536e-06
1.000003e-06
1e-06
1e-06
1e-06
1e-06
1e-06
1e-06
1e-06
1e-06
1e-06
1e-06
1e-06
1e-06
1e-06
1e-06
1e-06
3.142513e-05
1.084841e-06
1.000095e-06
1e-06
1e-06
1e-06
1e-06
1e-06
1e-06
1e-06
1e-06
1e-06
1e-06
1e-06
1e-06
1e-06
1e-06
1e-06
3.438459e-05
1.460168e-06
1.000334e-06
1.000001e-06
1e-06
1e-06
1e-06
1e-06
1e-06
1e-06
1e-06
1e-06
1e-06
1e-06
1e-06
1e-06
1e-06
1e-06
3.681958e-05
1.783942e-06
1.001671e-06
1.00001e-06
1e-06
1e-06
1e-06
1e-06
1e-06
1e-06
1e-06
1e-06
1e-06
1e-06
3.432477e-05
1.297457e-05
1e-06
1e-06
1e-06
1e-06
1e-06
1e-06
1e-06
1e-06
3.13858e-05
1e-06
1e-06
1e-06
1e-06
1e-06
1e-06
1e-06
1e-06
1e-06
1e-06
1e-06
1e-06
1e-06
1e-06
1e-06
1e-06
1e-06
1e-06
1e-06
1e-06
1e-06
1e-06
1e-06
1e-06
1e-06
1e-06
1e-06
1e-06
1e-06
1e-06
1e-06
1e-06
1e-06
1e-06
1e-06
1e-06
1e-06
1e-06
1e-06
1e-06
1e-06
1e-06
1e-06
1e-06
1e-06
1e-06
1e-06
1e-06
1e-06
3.498488e-05
1e-06
1e-06
1e-06
1e-06
1e-06
1e-06
3.495088e-05
1.792278e-05
1e-06
1e-06
1e-06
1e-06
1e-06
1e-06
1e-06
3.701544e-05
2.201288e-06
1.001606e-06
1e-06
1e-06
1e-06
1e-06
1e-06
1e-06
1e-06
1e-06
1e-06
3.652587e-05
1.542652e-06
1.000413e-06
1.000002e-06
1e-06
1e-06
1e-06
1e-06
1e-06
1e-06
1e-06
1e-06
1e-06
1e-06
1e-06
1e-06
1e-06
1e-06
3.287287e-05
1.247012e-06
1.000099e-06
1e-06
1e-06
1e-06
1e-06
1e-06
1e-06
1e-06
1e-06
1e-06
1e-06
1e-06
1e-06
1e-06
1e-06
1e-06
2.780999e-05
1.02381e-06
1.000015e-06
1e-06
1e-06
1e-06
1e-06
1e-06
1e-06
1e-06
1e-06
1e-06
1e-06
1e-06
1e-06
1e-06
1e-06
1e-06
2.533016e-05
1.006199e-06
1e-06
1e-06
1e-06
1e-06
1e-06
1e-06
1e-06
1e-06
1e-06
1e-06
1e-06
1e-06
1e-06
1e-06
1e-06
1e-06
2.266148e-05
1.003464e-06
1e-06
1e-06
1e-06
1e-06
1e-06
1e-06
1e-06
1e-06
1e-06
1e-06
1e-06
1e-06
1e-06
1e-06
1e-06
1e-06
2.120933e-05
1.002213e-06
1e-06
1e-06
1e-06
1e-06
1e-06
1e-06
1e-06
1e-06
1e-06
1e-06
1e-06
1e-06
1e-06
1e-06
1e-06
1e-06
2.026251e-05
1.001925e-06
1e-06
1e-06
1e-06
1e-06
1e-06
1e-06
1e-06
1e-06
1e-06
1e-06
1e-06
1e-06
1e-06
1e-06
1e-06
1e-06
1.925369e-05
1.001673e-06
1e-06
1e-06
1e-06
1e-06
1e-06
1e-06
1e-06
1e-06
1e-06
1e-06
1e-06
1e-06
1e-06
1e-06
1e-06
1e-06
1.752701e-05
1.002794e-06
1e-06
1e-06
1e-06
1e-06
1e-06
1e-06
1e-06
1e-06
1e-06
1e-06
1e-06
1e-06
1e-06
1e-06
1e-06
1e-06
1.504079e-05
1.003396e-06
1e-06
1e-06
1e-06
1e-06
1e-06
1e-06
1e-06
1e-06
1e-06
1e-06
1e-06
1e-06
1e-06
1e-06
1e-06
1e-06
6.988862e-06
1.000608e-06
1e-06
1e-06
1e-06
1e-06
1e-06
1e-06
1e-06
1e-06
1e-06
1e-06
1e-06
1e-06
1e-06
1e-06
1e-06
1e-06
4.832973e-06
1.000269e-06
1e-06
1e-06
1e-06
1e-06
1e-06
1e-06
1e-06
1e-06
1e-06
1e-06
1e-06
1e-06
1e-06
1e-06
1e-06
1e-06
1.817551e-06
1.000149e-06
1e-06
1e-06
1e-06
1e-06
1e-06
1e-06
1e-06
1e-06
1e-06
1e-06
1e-06
1e-06
1e-06
1e-06
1e-06
1e-06
1.649924e-06
1.000119e-06
1e-06
1e-06
1e-06
1e-06
1e-06
1e-06
1e-06
1e-06
1e-06
1e-06
1e-06
1e-06
1e-06
1e-06
1e-06
1e-06
1.547614e-06
1.000083e-06
1e-06
1e-06
1e-06
1e-06
1e-06
1e-06
1e-06
1e-06
1e-06
1e-06
1e-06
1e-06
1e-06
1e-06
1e-06
1e-06
1.451564e-06
1.000052e-06
1e-06
1e-06
1e-06
1e-06
1e-06
1e-06
1e-06
1e-06
1e-06
1e-06
1e-06
1e-06
1e-06
1e-06
1e-06
1e-06
1.37886e-06
1.000033e-06
1e-06
1e-06
1e-06
1e-06
1e-06
1e-06
1e-06
1e-06
1e-06
1e-06
1e-06
1e-06
1e-06
1e-06
1e-06
1e-06
1.352401e-06
1.000032e-06
1e-06
1e-06
1e-06
1e-06
1e-06
1e-06
1e-06
1e-06
1e-06
1e-06
1e-06
1e-06
1e-06
1e-06
1e-06
1e-06
1.329272e-06
1.000027e-06
1e-06
1e-06
1e-06
1e-06
1e-06
1e-06
1e-06
1e-06
1e-06
1e-06
1e-06
1e-06