/*--------------------------------*- C++ -*----------------------------------*\
| =========                 |                                                 |
| \\      /  F ield         | OpenFOAM: The Open Source CFD Toolbox           |
|  \\    /   O peration     | Version:  2206                                  |
|   \\  /    A nd           | Website:  www.openfoam.com                      |
|    \\/     M anipulation  |                                                 |
\*---------------------------------------------------------------------------*/
FoamFile
{
    version     2.0;
    format      ascii;
    arch        "LSB;label=32;scalar=64";
    class       volScalarField;
    location    "1";
    object      nuFra;
}
// * * * * * * * * * * * * * * * * * * * * * * * * * * * * * * * * * * * * * //

dimensions      [0 2 -1 0 0 0 0];

internalField   nonuniform List<scalar> 
13078
(
0.22845
15.84324
100
100
100
100
100
14.37989
85.55017
100
100
100
100
100
95.027
100
100
100
100
100
100
100
100
100
100
100
100
100
100
100
100
100
100
100
100
100
100
100
100
100
100
100
100
100
100
100
100
100
100
100
100
100
100
100
100
100
100
100
100
100
100
100
100
100
100
100
100
100
100
100
100
100
100
100
100
100
100
100
100
100
100
100
100
100
100
100
100
100
100
100
100
100
100
100
100
100
100
100
100
100
100
100
100
100
100
100
100
100
100
100
100
100
100
100
100
100
100
100
100
100
100
100
100
100
100
100
100
100
100
100
100
100
100
100
100
100
100
100
100
100
100
100
100
100
100
100
100
100
100
100
100
100
100
100
100
100
100
100
100
100
100
100
100
100
100
100
100
100
100
100
100
100
100
100
100
100
100
100
100
100
100
100
100
100
100
100
100
100
100
100
100
100
100
100
100
100
100
100
100
100
100
100
100
100
100
100
100
100
100
100
100
100
100
100
100
100
100
100
100
100
100
100
100
100
100
100
100
100
100
100
100
100
100
100
100
100
100
100
100
100
100
100
100
100
100
100
100
100
100
100
100
100
100
100
100
100
100
100
100
100
100
100
100
100
100
100
100
100
100
100
100
100
100
100
100
100
100
100
100
81.56703
83.59434
89.78067
100
100
100
91.25685
60.74357
66.58771
80.6984
100
100
100
70.87106
36.15818
54.84215
77.86681
100
100
89.48168
46.27385
18.46901
47.79346
79.9816
100
100
65.73837
26.68301
9.616946
44.18888
83.08454
100
96.68027
44.97676
15.25667
5.531752
42.61017
84.22675
100
74.69915
29.15386
9.928275
3.67879
42.60949
79.79169
98.44635
54.79209
19.64034
6.888543
2.970033
43.92877
72.3328
79.8299
39.76237
13.4693
5.132186
2.440606
45.64184
64.26836
61.60776
27.79814
9.773024
3.963635
2.038737
47.19816
56.18677
45.64641
19.04026
6.842351
2.997513
1.729611
48.43313
48.35897
32.67606
12.74235
4.76742
2.298339
1.385803
48.99122
40.50161
22.78018
8.592063
3.458083
1.84715
1.13731
49.38472
33.82659
16.84431
6.382914
2.801361
1.600711
0.9759475
49.90057
29.22069
13.35747
5.220845
2.424065
1.460132
0.9778497
50.4364
26.39493
11.4414
4.594494
2.223103
1.405833
1.030142
50.80281
25.09065
10.60556
4.329614
2.148302
1.397601
1.07236
51.43097
25.44341
10.75087
4.37891
2.165314
1.405577
1.079847
52.04932
27.3773
11.8707
4.73507
2.267519
1.4245
1.048516
52.20333
30.91884
14.21234
5.504784
2.510647
1.494695
1.005471
52.08217
36.43761
18.49528
6.964246
2.98039
1.669672
1.011313
51.63728
43.99727
25.88776
9.846543
3.840854
1.979881
1.190883
50.59106
52.23022
37.82677
15.33708
5.625524
2.579655
1.491698
48.61523
59.76898
53.37117
24.08308
8.674889
3.604842
1.962919
46.32237
67.26014
71.80738
36.59482
13.31303
5.182998
2.466915
43.96243
74.54458
91.33358
53.90689
19.61993
7.265177
3.184588
42.30367
80.90961
100
74.08567
29.93917
10.52502
4.199043
41.76261
84.28894
100
96.22927
45.21025
16.16182
5.724581
42.73411
82.85552
100
100
66.21195
25.65575
9.253746
45.62714
78.91002
100
100
86.91835
42.49203
16.32194
51.82774
75.41374
100
100
100
64.35529
29.74167
62.72394
76.84577
97.02677
100
100
81.22616
49.22111
78.7293
85.14636
96.61128
100
100
89.82062
66.76359
99.07475
99.45957
100
100
100
98.27203
77.12891
100
100
100
100
100
100
90.42691
100
100
100
100
100
100
100
100
100
100
100
100
100
100
100
100
100
100
100
100
100
100
100
100
100
100
100
100
100
100
100
100
100
100
100
100
100
100
100
100
100
100
100
100
100
100
100
100
100
100
100
100
100
100
100
100
100
100
100
100
100
100
100
100
100
100
100
100
100
100
100
100
100
100
100
100
100
100
100
100
100
100
100
100
100
100
100
100
100
100
100
100
100
100
100
100
100
100
100
100
100
100
100
100
100
100
100
100
100
100
100
100
100
100
100
100
100
100
100
100
100
100
100
100
100
100
100
100
100
100
100
100
100
100
100
100
100
100
100
100
100
100
100
100
100
100
100
100
100
100
100
100
100
100
100
100
100
100
100
100
100
100
100
100
100
100
100
100
100
100
100
100
100
100
100
100
100
100
100
100
100
100
100
100
100
100
100
100
100
100
100
100
100
100
100
100
100
100
100
100
100
100
100
100
100
100
100
100
100
100
100
100
100
100
100
100
100
100
100
100
100
100
100
100
100
100
100
100
100
100
100
100
100
100
100
100
100
100
100
100
100
100
100
100
100
100
100
100
100
100
100
100
94.75812
100
100
100
100
100
100
14.4866
85.63257
100
100
100
100
100
100
100
100
100
100
100
100
100
100
100
100
100
100
100
100
100
100
100
100
100
100
100
100
100
100
100
100
100
100
100
100
100
100
100
100
100
100
100
100
100
100
100
100
100
100
100
100
100
100
100
100
100
100
100
100
100
100
100
100
100
100
100
100
100
100
100
100
100
100
100
100
100
100
100
100
100
100
100
100
100
100
100
100
100
100
100
100
100
100
100
100
100
100
100
100
100
100
100
100
100
100
100
100
100
100
100
100
100
100
100
100
100
100
100
100
100
100
100
100
100
100
100
100
100
100
100
100
100
100
100
100
100
100
100
100
100
100
100
100
100
100
100
100
100
100
100
100
100
100
100
100
100
100
100
100
100
100
100
100
100
100
100
100
100
100
100
100
100
100
100
100
100
100
100
100
100
100
100
100
100
100
100
100
100
100
100
100
100
100
100
100
100
100
100
100
88.42295
100
100
100
100
100
100
69.79975
100
100
100
100
100
100
55.75004
100
100
100
100
100
100
42.73286
100
100
100
100
100
100
33.48295
100
100
100
100
100
93.18081
23.84481
100
100
100
100
100
70.72795
14.69942
100
100
100
100
82.6242
55.99165
14.29667
100
100
100
85.68534
62.61924
37.66622
1.232947
100
94.68994
74.22731
58.87322
40.8558
20.48461
1.143234
93.71182
72.6473
48.63332
29.14475
15.08136
7.742909
0.3543384
75.23399
55.27513
27.23312
9.616735
3.967821
8.462297
0.346982
52.26536
37.40821
10.72386
3.03497
1.983842
1.555487
0.3394536
28.48435
17.95923
3.734579
1.454948
1.201887
1.157286
0.1450798
13.43533
6.830165
1.74352
0.8609353
0.6214874
0.9091086
0.1336175
6.193283
3.316822
1.102784
0.595526
0.4345949
0.4346778
0.2030823
3.250778
1.964593
0.7216026
0.4331603
0.3648355
0.2888343
0.1739588
2.224955
1.352824
0.5194551
0.3313401
0.3650679
0.2278609
0.10771
1.645039
0.9376105
0.3717737
0.3044803
0.2840183
0.2872728
0.07533983
1.358903
0.800504
0.3299412
0.2592809
0.2607795
0.2654742
0.06735677
1.243962
0.7298692
0.3438545
0.2594146
0.2312396
0.2344758
0.0710754
1.16128
0.7811071
0.3478899
0.2499497
0.2619134
0.1531207
1.247483
0.9679224
0.6539245
0.2934653
0.2433349
0.2384355
0.2571533
0.1652279
0.7163639
0.5070388
0.2630233
0.2038614
0.2439225
0.1197392
0.6169202
0.5198598
0.3334432
0.2247728
0.1716839
0.181853
0.1988362
0.1647851
0.456442
0.2713669
0.2362572
0.1695551
0.1656026
0.1537663
0.133364
0.5027658
0.2989081
0.2581342
0.1991483
0.20565
0.157472
0.1968445
0.6267912
0.4051943
0.3509876
0.2733783
0.2288181
0.7633739
0.03258463
0.7380332
0.538852
0.480882
0.3787597
0.3558608
0.2528038
0.748339
0.5930914
0.537994
0.4200236
0.3764489
0.2335518
0.6503165
0.4980109
0.4163699
0.3299771
0.3162032
0.3983733
0.5285336
0.3568804
0.3004058
0.2451719
0.2399597
0.2654337
0.1060655
0.4800051
0.2756847
0.2459278
0.180769
0.1750073
0.1314907
0.1335603
0.5464581
0.2739931
0.2279232
0.1704797
0.1693098
0.2041187
0.1316199
0.7616273
0.3621043
0.2415483
0.1889916
0.1962068
0.1451734
1.160884
1.064228
0.5375667
0.2793195
0.220585
0.249256
0.2234613
0.1203852
1.350244
0.7481751
0.3176945
0.2422552
0.2563807
0.2066368
0.1840424
1.560088
0.8490052
0.3363478
0.2625037
0.2331183
0.2123333
0.1792013
1.806441
0.8919767
0.3550515
0.2402057
0.2619799
0.2084883
0.04485528
2.333394
1.07105
0.3814351
0.2841634
0.2534769
0.2845748
0.1060201
3.347183
1.393896
0.5179212
0.319835
0.3317956
0.2456176
0.09473734
5.302118
2.032252
0.7393158
0.4242049
0.3890074
0.2509744
0.2379278
10.06842
3.366655
1.120321
0.599582
0.4330053
0.3751284
0.3158324
20.34383
6.637059
1.78492
0.8320281
0.5720041
0.5385722
0.2970011
35.82113
14.1727
3.205989
1.267471
0.8920691
1.076322
0.1850101
52.663
27.22957
7.250722
2.173725
1.525751
1.200945
0.1789899
67.07237
40.75394
17.55454
5.081553
2.428094
1.647719
0.6568578
82.65175
55.68356
33.05035
15.33279
6.775061
7.847691
0.2956863
100
76.50126
52.83385
36.19335
21.5066
7.594778
0.3305844
100
100
77.74862
62.64395
43.77861
22.41622
1.728882
100
100
100
87.64749
63.83107
40.77597
10.59994
100
100
100
100
85.82746
56.15284
15.49537
100
100
100
100
100
74.21528
10.14492
100
100
100
100
100
100
28.63149
100
100
100
100
100
100
37.30875
100
100
100
100
100
100
49.81111
100
100
100
100
100
100
62.18341
100
100
100
100
100
100
77.84011
100
100
100
100
100
100
96.855
100
100
100
100
100
100
100
100
100
100
100
100
100
100
100
100
100
100
100
100
100
100
100
100
100
100
100
100
100
100
100
100
100
100
100
100
100
100
100
100
100
100
100
100
100
100
100
100
100
100
100
100
100
100
100
100
100
100
100
100
100
100
100
100
100
100
100
100
100
100
100
100
100
100
100
100
100
100
100
100
100
100
100
100
100
100
100
100
100
100
100
100
100
100
100
100
100
100
100
100
100
100
100
100
100
100
100
100
100
100
100
100
100
100
100
100
100
100
100
100
100
100
100
100
100
100
100
100
100
100
100
100
100
100
100
100
100
100
100
100
100
100
100
100
100
100
100
100
100
100
100
100
100
100
100
100
100
100
100
100
100
100
100
100
100
100
100
100
100
100
100
100
100
100
100
100
100
100
100
100
100
100
8.573958e-11
1.376676e-09
4.61878e-09
1.06509e-08
2.39441e-08
6.233667e-08
1.080334e-07
1.263358e-07
1.136388e-07
1.032822e-07
9.444976e-08
8.72587e-08
8.14001e-08
7.657596e-08
7.259375e-08
6.920542e-08
6.641109e-08
6.40582e-08
9.391035e-11
4.16071e-09
6.155338e-09
1.23033e-08
2.81806e-08
9.532628e-08
1.54387e-07
1.37603e-07
1.173816e-07
1.044418e-07
9.5092e-08
8.760876e-08
8.159167e-08
7.663995e-08
7.250231e-08
6.916433e-08
6.632572e-08
6.396212e-08
9.527713e-11
6.824194e-09
9.793219e-09
1.717039e-08
3.961805e-08
1.498395e-07
2.617183e-07
1.394163e-07
1.182263e-07
1.042864e-07
9.464024e-08
8.714528e-08
8.109388e-08
7.615781e-08
7.202565e-08
6.874623e-08
6.589997e-08
6.35533e-08
9.575096e-11
9.35745e-09
1.467071e-08
2.538326e-08
5.89494e-08
1.736204e-07
2.111241e-07
1.349037e-07
1.174219e-07
1.024726e-07
9.311065e-08
8.581995e-08
7.997228e-08
7.514948e-08
7.121801e-08
6.790421e-08
6.516198e-08
6.287376e-08
9.601097e-11
1.066059e-08
1.968342e-08
2.894103e-08
5.013871e-08
1.246543e-07
1.391637e-07
1.406802e-07
1.133865e-07
9.9274e-08
9.053777e-08
8.373409e-08
7.822855e-08
7.364767e-08
7.017733e-08
6.652708e-08
6.4158e-08
6.196208e-08
9.615324e-11
1.08142e-08
2.137989e-08
2.928829e-08
4.441541e-08
9.268256e-08
1.184841e-07
1.488136e-07
1.116903e-07
9.549013e-08
8.707129e-08
8.098847e-08
7.598275e-08
7.182328e-08
6.860476e-08
6.507081e-08
6.286854e-08
6.081259e-08
9.623737e-11
1.084561e-08
2.190535e-08
2.89128e-08
4.057473e-08
7.522282e-08
1.130533e-07
1.351963e-07
1.048165e-07
9.019681e-08
8.309002e-08
7.775097e-08
7.329943e-08
6.955024e-08
6.675331e-08
6.321264e-08
6.136258e-08
5.945873e-08
9.629004e-11
1.092191e-08
2.181985e-08
2.822788e-08
3.771265e-08
6.406286e-08
1.078185e-07
9.902096e-08
9.809907e-08
8.58872e-08
7.867283e-08
7.41827e-08
7.031048e-08
6.698846e-08
6.466536e-08
6.117071e-08
5.964483e-08
5.792314e-08
9.632505e-11
1.106378e-08
2.132955e-08
2.728151e-08
3.531823e-08
5.555315e-08
9.64219e-08
7.147863e-08
9.529504e-08
8.185473e-08
7.418763e-08
7.044377e-08
6.713373e-08
6.426434e-08
6.233275e-08
5.900103e-08
5.776437e-08
5.623847e-08
9.635261e-11
1.12648e-08
2.060013e-08
2.60966e-08
3.298329e-08
4.883034e-08
8.296858e-08
5.961103e-08
9.720781e-08
7.872036e-08
7.001412e-08
6.666056e-08
6.386205e-08
6.139843e-08
5.989826e-08
5.668836e-08
5.576221e-08
5.44307e-08
9.637958e-11
1.156984e-08
1.992418e-08
2.479932e-08
3.076439e-08
4.377815e-08
6.862839e-08
5.665724e-08
9.864425e-08
7.613148e-08
6.693126e-08
6.284314e-08
6.055784e-08
5.846715e-08
5.73354e-08
5.430254e-08
5.366088e-08
5.253594e-08
9.641947e-11
1.188345e-08
1.96257e-08
2.350348e-08
2.873672e-08
3.94531e-08
6.163173e-08
5.857089e-08
8.225618e-08
7.286926e-08
6.482373e-08
5.941773e-08
5.727861e-08
5.554074e-08
5.468493e-08
5.19211e-08
5.149545e-08
5.05652e-08
9.652535e-11
1.193576e-08
1.982539e-08
2.234992e-08
2.697419e-08
3.649848e-08
5.412076e-08
6.024497e-08
6.49438e-08
7.204734e-08
6.25244e-08
5.673608e-08
5.400384e-08
5.261383e-08
5.206781e-08
4.946559e-08
4.929932e-08
4.855351e-08
9.701702e-11
8.388054e-09
1.980843e-08
2.125506e-08
2.573046e-08
3.458611e-08
4.847866e-08
6.197978e-08
5.80839e-08
7.491223e-08
5.954913e-08
5.41997e-08
5.093933e-08
4.97234e-08
4.945394e-08
4.701724e-08
4.708346e-08
4.651532e-08
9.854826e-11
5.558208e-09
1.718556e-08
2.125684e-08
2.583005e-08
3.406258e-08
4.712842e-08
6.030657e-08
5.227657e-08
6.867119e-08
5.889334e-08
5.105849e-08
4.800615e-08
4.689121e-08
4.682085e-08
4.465465e-08
4.486049e-08
4.446371e-08
9.675057e-11
3.758851e-09
9.004493e-09
1.946279e-08
2.948657e-08
3.685463e-08
4.66609e-08
6.065021e-08
5.273059e-08
7.282304e-08
5.522073e-08
4.826764e-08
4.505008e-08
4.414127e-08
4.425977e-08
4.227697e-08
4.266724e-08
4.242163e-08
9.694753e-11
2.733011e-09
5.514078e-09
9.008113e-09
2.513148e-08
4.949114e-08
5.160074e-08
5.756992e-08
5.489624e-08
6.54437e-08
5.151223e-08
4.655461e-08
4.224561e-08
4.146116e-08
4.172958e-08
3.997282e-08
4.05026e-08
4.039295e-08
9.597123e-11
2.239225e-09
5.278384e-09
7.620965e-09
1.124662e-08
6.510527e-08
6.545463e-08
5.79506e-08
5.285825e-08
5.519574e-08
5.40822e-08
4.311857e-08
3.956129e-08
3.88611e-08
3.927613e-08
3.773606e-08
3.837297e-08
3.840598e-08
9.255965e-11
2.972697e-09
4.950847e-09
7.076965e-09
1.042642e-08
1.816312e-08
6.635296e-08
5.739e-08
5.327506e-08
5.308448e-08
4.818005e-08
4.083986e-08
3.719962e-08
3.635546e-08
3.68871e-08
3.552405e-08
3.632186e-08
3.645709e-08
9.09905e-11
3.994575e-09
4.755788e-09
6.437696e-09
8.954125e-09
1.651744e-08
3.184388e-08
5.153891e-08
5.106157e-08
5.169217e-08
4.276274e-08
3.814896e-08
3.5073e-08
3.400122e-08
3.428562e-08
3.344875e-08
3.426434e-08
3.453467e-08
9.092807e-11
5.141818e-09
4.80053e-09
6.154835e-09
8.80874e-09
1.213372e-08
3.028363e-08
4.143619e-08
4.524189e-08
4.554311e-08
3.872726e-08
3.671689e-08
3.247418e-08
3.170283e-08
3.118124e-08
3.234078e-08
3.233614e-08
3.269136e-08
9.163554e-11
7.777635e-09
5.400306e-09
6.246588e-09
8.577145e-09
1.187698e-08
1.83702e-08
4.636622e-08
4.061868e-08
3.960961e-08
3.662369e-08
3.327905e-08
3.047198e-08
2.951499e-08
2.964582e-08
3.007148e-08
3.048276e-08
3.090698e-08
9.209335e-11
7.19437e-09
5.970934e-09
6.46219e-09
8.545281e-09
1.138077e-08
1.726021e-08
3.037729e-08
3.964317e-08
3.504627e-08
3.360978e-08
3.023969e-08
2.824601e-08
2.745629e-08
2.770053e-08
2.827468e-08
2.867455e-08
2.920836e-08
9.248654e-11
6.194996e-09
6.452072e-09
6.659489e-09
8.555626e-09
1.106217e-08
1.62943e-08
2.902855e-08
3.248049e-08
3.206584e-08
2.960749e-08
2.810579e-08
2.607207e-08
2.554319e-08
2.585634e-08
2.65103e-08
2.694826e-08
2.753773e-08
9.272805e-11
5.708285e-09
6.545151e-09
6.752152e-09
8.467487e-09
1.08581e-08
1.578784e-08
2.616911e-08
2.985031e-08
2.886287e-08
2.665451e-08
2.609171e-08
2.388985e-08
2.390779e-08
2.42878e-08
2.484818e-08
2.52999e-08
2.595468e-08
9.298235e-11
5.127572e-09
6.349777e-09
6.685555e-09
8.241148e-09
1.063801e-08
1.561202e-08
2.382862e-08
2.622436e-08
2.610205e-08
2.411293e-08
2.350777e-08
2.206877e-08
2.218363e-08
2.225962e-08
2.318311e-08
2.373484e-08
2.442195e-08
9.323085e-11
4.679391e-09
6.039667e-09
6.480481e-09
7.899427e-09
1.034175e-08
1.550558e-08
2.145167e-08
2.356575e-08
2.348986e-08
2.193717e-08
2.165936e-08
2.036937e-08
2.085968e-08
2.057979e-08
2.167292e-08
2.228177e-08
2.29383e-08
9.352189e-11
4.238519e-09
5.628947e-09
6.163692e-09
7.503965e-09
1.002843e-08
1.447791e-08
1.916563e-08
2.123078e-08
2.122486e-08
2.030988e-08
1.954458e-08
1.88944e-08
1.927561e-08
1.914987e-08
2.017682e-08
2.085965e-08
2.150916e-08
9.384775e-11
3.869257e-09
5.131569e-09
5.72352e-09
7.067037e-09
9.29384e-09
1.321995e-08
1.74596e-08
1.958977e-08
1.926197e-08
1.853676e-08
1.769782e-08
1.749288e-08
1.773963e-08
1.779682e-08
1.883636e-08
1.952345e-08
2.054959e-08
9.420804e-11
3.495177e-09
4.511926e-09
5.192109e-09
6.704704e-09
8.023076e-09
1.16409e-08
1.656377e-08
1.736692e-08
1.764671e-08
1.713041e-08
1.581748e-08
1.630385e-08
1.604252e-08
1.705068e-08
1.756862e-08
1.823603e-08
1.918772e-08
9.458654e-11
3.157261e-09
3.676841e-09
3.74065e-09
8.603244e-09
6.636943e-09
1.09353e-08
1.796891e-08
1.211065e-08
1.619546e-08
1.566005e-08
1.452124e-08
1.481104e-08
1.501783e-08
1.562135e-08
1.634107e-08
1.706224e-08
1.822725e-08
9.49802e-11
2.794711e-09
3.202406e-09
3.753704e-09
4.158894e-09
8.625121e-09
1.133996e-08
1.447983e-08
1.703714e-08
1.527089e-08
1.439198e-08
1.343313e-08
1.350054e-08
1.36517e-08
1.449643e-08
1.518527e-08
1.592854e-08
1.68623e-08
9.539284e-11
2.455575e-09
2.951451e-09
2.257824e-09
5.452297e-09
8.095104e-09
1.144654e-08
1.465692e-08
1.831602e-08
1.352526e-08
1.287541e-08
1.220904e-08
1.253741e-08
1.279169e-08
1.345742e-08
1.410824e-08
1.49327e-08
1.484991e-08
9.576785e-11
1.832827e-09
2.653245e-09
2.327461e-09
3.687168e-09
1.040978e-08
1.160101e-08
1.472046e-08
1.368491e-08
1.255302e-08
1.128865e-08
1.099024e-08
1.145699e-08
1.165459e-08
1.242988e-08
1.301355e-08
1.3911e-08
1.416089e-08
9.765756e-11
2.048311e-09
2.794268e-09
3.760993e-09
2.033585e-09
1.017763e-08
8.776931e-09
1.269956e-08
1.081241e-08
1.151913e-08
9.946791e-09
9.722571e-09
1.036724e-08
1.052859e-08
1.143279e-08
1.23182e-08
1.333586e-08
1.385917e-08
1.015373e-10
1.56541e-09
1.963812e-09
2.338886e-09
3.543943e-09
9.03927e-09
1.058699e-08
5.797385e-09
8.943775e-09
8.959234e-09
8.6484e-09
8.908701e-09
9.591171e-09
1.016301e-08
1.06432e-08
1.132058e-08
1.140892e-08
1.246557e-08
1.04371e-10
1.038732e-09
1.432988e-09
2.152583e-09
4.062443e-09
8.288619e-09
8.257866e-09
6.701122e-09
7.754794e-09
7.511401e-09
7.623109e-09
8.195631e-09
8.191568e-09
9.097543e-09
9.743971e-09
1.037381e-08
1.065304e-08
1.178854e-08
1.260386e-10
5.995144e-10
1.541555e-09
3.167474e-09
4.587679e-09
5.39527e-09
5.662823e-09
5.683381e-09
6.148808e-09
6.516271e-09
6.808075e-09
7.701096e-09
8.329038e-09
8.573487e-09
9.046266e-09
9.223027e-09
1.036937e-08
1.096242e-08
1.524761e-10
3.03699e-10
2.020182e-09
2.142606e-09
2.920285e-09
3.798218e-09
4.266999e-09
4.790628e-09
5.171777e-09
5.76077e-09
6.189181e-09
7.128198e-09
7.278036e-09
7.879956e-09
8.685027e-09
9.399126e-09
9.619522e-09
1.018385e-08
1.428022e-10
8.083617e-10
7.000189e-10
1.388107e-09
2.306545e-09
3.139187e-09
3.518962e-09
4.128422e-09
4.638222e-09
5.210005e-09
5.841948e-09
6.417464e-09
6.875988e-09
7.326292e-09
8.206428e-09
7.977822e-09
8.750831e-09
9.448859e-09
5.493043e-05
2.676648e-10
1.014481e-09
1.228829e-09
2.005016e-09
2.740127e-09
3.102962e-09
3.732956e-09
4.35504e-09
4.817787e-09
5.400225e-09
5.477163e-09
6.13627e-09
6.799651e-09
7.056912e-09
7.590123e-09
8.297351e-09
8.810376e-09
0.0002512687
1.875145e-10
1.52227e-09
1.800629e-09
2.213848e-09
2.429456e-09
2.873579e-09
3.492116e-09
4.150033e-09
4.545959e-09
5.115757e-09
5.74586e-09
5.868911e-09
6.302128e-09
6.375911e-09
7.119669e-09
7.700135e-09
8.293865e-09
0.000574714
1.365242e-10
2.497287e-09
2.375358e-09
2.098606e-09
2.369743e-09
3.09936e-09
3.56905e-09
3.822272e-09
4.27793e-09
4.540196e-09
4.675541e-09
5.065874e-09
5.187447e-09
6.037377e-09
6.570695e-09
7.092011e-09
7.82741e-09
0.0006503568
1.34538e-10
1.702231e-09
1.733666e-09
1.890405e-09
2.535752e-09
3.017831e-09
3.391334e-09
3.682529e-09
3.928233e-09
4.475601e-09
4.640317e-09
4.595763e-09
5.437924e-09
5.545135e-09
6.04028e-09
6.708301e-09
7.096232e-09
0.0006964045
1.309437e-10
1.622878e-09
1.151292e-09
1.82692e-09
2.534181e-09
2.797955e-09
3.149859e-09
3.346348e-09
3.383928e-09
3.83074e-09
3.772103e-09
4.061363e-09
4.766775e-09
4.920975e-09
5.677004e-09
6.116594e-09
6.638322e-09
0.001294196
1.047181e-10
6.251899e-10
9.299497e-10
1.527806e-09
2.399368e-09
2.561966e-09
2.856117e-09
3.038345e-09
3.055691e-09
3.277415e-09
3.51375e-09
4.247784e-09
4.221544e-09
4.516851e-09
5.062539e-09
5.810179e-09
6.067282e-09
0.003010728
9.711462e-11
3.05255e-10
1.003193e-09
1.510803e-09
1.968894e-09
2.437691e-09
2.584963e-09
2.67568e-09
2.663386e-09
2.995479e-09
3.191545e-09
3.447604e-09
3.577458e-09
4.247777e-09
4.778233e-09
4.947094e-09
5.706067e-09
0.04766952
9.934674e-11
5.239044e-10
1.253654e-09
2.186527e-09
2.029399e-09
2.270808e-09
2.209351e-09
2.215145e-09
2.510083e-09
2.577049e-09
2.658661e-09
2.842981e-09
3.48622e-09
3.866367e-09
4.09388e-09
4.977773e-09
5.187555e-09
0.08550428
1.23528e-10
4.607742e-10
1.310984e-09
2.242123e-09
2.570611e-09
2.038326e-09
1.942452e-09
1.778092e-09
1.686095e-09
2.317863e-09
2.330638e-09
2.742806e-09
3.237415e-09
3.178997e-09
3.892658e-09
4.103664e-09
5.060035e-09
0.1681169
1.246333e-10
3.624472e-10
8.212428e-10
1.645652e-09
1.974416e-09
1.752407e-09
1.983496e-09
2.48444e-09
2.363985e-09
3.224665e-09
3.348261e-09
4.007024e-09
4.486074e-09
0.03577537
5.816527e-06
1.557475e-09
1.866812e-09
1.813358e-09
2.377723e-09
2.814418e-09
3.222087e-09
3.727923e-09
4.332217e-09
0.03940967
1.380692e-09
1.522245e-09
2.155424e-09
2.380076e-09
2.94188e-09
3.40904e-09
4.009003e-09
1.273865e-09
1.786155e-09
2.38219e-09
2.694101e-09
3.304488e-09
3.790713e-09
1.726038e-09
1.985695e-09
2.575425e-09
3.085116e-09
3.584601e-09
1.494636e-09
2.086992e-09
2.514576e-09
2.989189e-09
3.512018e-09
1.61122e-09
1.888088e-09
2.396491e-09
2.91068e-09
3.463627e-09
1.544985e-09
1.968774e-09
2.423783e-09
2.929912e-09
3.474135e-09
1.637896e-09
2.054558e-09
2.538462e-09
2.979973e-09
3.535418e-09
1.933476e-09
2.055656e-09
2.516951e-09
3.241742e-09
3.590632e-09
1.567743e-09
2.035967e-09
2.654211e-09
2.617119e-09
3.13027e-09
3.848312e-09
0.2766029
1.609113e-09
2.273956e-09
2.553431e-09
2.862197e-09
3.503384e-09
4.153399e-09
0.07807047
7.920101e-05
1.614104e-09
1.836015e-09
2.580299e-09
2.684575e-09
3.491133e-09
3.520429e-09
4.196813e-09
0.04232847
1.534302e-10
6.914952e-10
1.29636e-09
1.690538e-09
2.150513e-09
2.516063e-09
2.359702e-09
3.755001e-09
3.401539e-09
4.459182e-09
4.752166e-09
0.182267
1.088621e-10
1.460702e-09
7.656102e-10
1.135817e-09
1.362959e-09
1.532012e-09
1.619681e-09
1.667225e-09
1.900772e-09
2.258095e-09
2.392185e-09
2.849498e-09
3.370774e-09
3.184705e-09
4.278235e-09
4.423824e-09
4.557056e-09
0.04674563
1.014332e-10
5.608874e-10
1.284301e-09
1.597173e-09
2.004742e-09
2.030558e-09
2.270355e-09
2.307272e-09
2.496742e-09
2.709545e-09
2.945158e-09
2.941e-09
4.063537e-09
3.95041e-09
4.496901e-09
4.593862e-09
5.752784e-09
0.004350287
1.082332e-10
6.334247e-10
2.721154e-09
2.716377e-09
2.90143e-09
2.797094e-09
2.735063e-09
2.931033e-09
2.890303e-09
3.266895e-09
3.623827e-09
3.865928e-09
3.535787e-09
5.041849e-09
4.603691e-09
5.838545e-09
5.445343e-09
0.001914533
1.008362e-10
4.361013e-10
1.191989e-09
3.924935e-09
4.277063e-09
4.009196e-09
3.55593e-09
3.475893e-09
3.674667e-09
3.813026e-09
4.044823e-09
4.001871e-09
5.0159e-09
4.551631e-09
5.756473e-09
5.655469e-09
7.025985e-09
0.0008255557
1.106709e-10
1.318861e-09
1.75984e-09
4.474521e-09
7.644814e-09
5.864296e-09
4.565889e-09
4.293305e-09
4.506972e-09
4.523519e-09
5.039262e-09
4.395093e-09
5.431506e-09
5.980409e-09
5.810892e-09
6.536821e-09
6.569721e-09
0.0005892135
1.401774e-10
1.704756e-09
2.286511e-09
4.826351e-09
8.82951e-09
7.231848e-09
5.710333e-09
5.074388e-09
5.236743e-09
4.734377e-09
5.599865e-09
5.700686e-09
5.580956e-09
6.385908e-09
6.804277e-09
7.079143e-09
7.976222e-09
0.0005568989
1.412246e-10
1.120703e-09
1.934432e-09
3.493119e-09
1.173083e-08
7.396182e-09
6.450138e-09
6.380727e-09
6.115847e-09
5.971769e-09
6.24272e-09
6.874007e-09
6.168937e-09
7.071975e-09
7.400203e-09
7.98209e-09
8.143098e-09
0.0004204934
1.462132e-10
1.875075e-09
1.651948e-09
2.886534e-09
5.307392e-09
6.080796e-09
7.265714e-09
7.703954e-09
7.758389e-09
7.269553e-09
6.803288e-09
7.459465e-09
7.422338e-09
8.045471e-09
8.316513e-09
8.646194e-09
9.429513e-09
0.000149613
2.448331e-10
7.014881e-10
9.963088e-10
1.980871e-09
4.015597e-09
5.994504e-09
7.590461e-09
9.220405e-09
9.045256e-09
8.584443e-09
7.943001e-09
8.208344e-09
8.53554e-09
8.857937e-09
9.07414e-09
9.544457e-09
1.007257e-08
3.434302e-05
2.874338e-10
1.038787e-09
1.190339e-09
1.941803e-09
3.432227e-09
5.103678e-09
6.755029e-09
8.889092e-09
9.378131e-09
1.019942e-08
8.853448e-09
9.199768e-09
9.497285e-09
9.059625e-09
1.0314e-08
1.072433e-08
1.155039e-08
1.651282e-10
3.370624e-10
1.351202e-09
1.488868e-09
2.018614e-09
3.106982e-09
4.534324e-09
6.331589e-09
8.005181e-09
9.637971e-09
1.162429e-08
1.029225e-08
1.023714e-08
1.040631e-08
1.076922e-08
1.074812e-08
1.215533e-08
1.282285e-08
1.723235e-10
2.578364e-10
1.049825e-09
1.430147e-09
2.045937e-09
2.93292e-09
4.18855e-09
5.841767e-09
7.490452e-09
9.66754e-09
1.179642e-08
1.161744e-08
1.108597e-08
1.183733e-08
1.30234e-08
1.236424e-08
1.330939e-08
1.387379e-08
1.157959e-10
6.508172e-10
1.07412e-09
1.715411e-09
2.286114e-09
3.116424e-09
4.206e-09
6.044121e-09
7.327536e-09
9.417995e-09
1.092843e-08
1.335708e-08
1.299633e-08
1.32944e-08
1.36707e-08
1.460228e-08
1.396573e-08
1.499527e-08
1.100801e-10
9.246607e-10
1.392829e-09
1.819896e-09
2.296993e-09
3.543543e-09
4.170971e-09
7.789516e-09
6.878601e-09
8.943417e-09
1.141287e-08
1.409551e-08
1.359927e-08
1.398651e-08
1.449027e-08
1.544522e-08
1.606385e-08
1.61205e-08
1.026324e-10
9.828672e-10
1.87296e-09
2.069467e-09
2.087176e-09
5.194055e-09
4.769889e-09
5.091741e-09
9.857952e-09
9.039992e-09
1.245591e-08
1.459982e-08
1.54756e-08
1.521406e-08
1.562244e-08
1.592304e-08
1.492849e-08
1.684831e-08
9.996581e-11
1.024499e-09
4.748528e-09
1.926963e-09
2.671692e-09
4.373659e-09
4.650556e-09
6.397781e-09
7.401509e-09
9.731619e-09
1.302301e-08
1.470574e-08
1.599093e-08
1.610186e-08
1.665851e-08
1.73532e-08
1.898802e-08
1.758726e-08
9.680718e-11
1.170507e-09
2.762752e-09
2.026436e-09
4.403413e-09
5.065259e-09
5.59202e-09
7.038269e-09
8.623306e-09
1.022207e-08
1.295014e-08
1.487502e-08
1.688298e-08
1.725699e-08
1.776492e-08
1.820065e-08
1.966389e-08
1.968228e-08
9.626104e-11
1.608464e-09
2.682289e-09
2.875111e-09
5.059595e-09
5.552895e-09
6.566261e-09
7.737072e-09
8.627796e-09
1.138369e-08
1.352749e-08
1.567887e-08
1.823921e-08
1.787434e-08
1.895483e-08
1.942876e-08
2.011027e-08
1.974735e-08
9.561802e-11
1.901251e-09
3.099144e-09
4.76998e-09
5.338216e-09
6.26927e-09
7.730023e-09
8.272012e-09
1.087714e-08
1.214398e-08
1.44756e-08
1.681806e-08
1.901312e-08
1.934322e-08
2.004955e-08
2.061423e-08
2.123462e-08
2.23629e-08
9.503901e-11
2.114057e-09
3.855413e-09
6.014783e-09
4.655442e-09
8.364949e-09
9.119984e-09
9.257927e-09
1.313864e-08
1.3502e-08
1.573628e-08
1.792747e-08
1.984915e-08
2.054478e-08
2.12088e-08
2.17843e-08
2.247049e-08
2.380134e-08
9.450581e-11
2.313825e-09
4.937863e-09
6.725546e-09
6.205043e-09
8.972719e-09
1.061845e-08
1.123524e-08
1.319352e-08
1.486649e-08
1.691535e-08
1.901385e-08
2.11257e-08
2.188023e-08
2.22421e-08
2.304792e-08
2.362711e-08
2.447603e-08
9.403198e-11
2.487134e-09
5.634667e-09
6.164227e-09
8.898224e-09
1.169793e-08
1.265587e-08
1.304565e-08
1.392098e-08
1.583905e-08
1.793243e-08
2.01043e-08
2.223876e-08
2.349835e-08
2.321055e-08
2.422097e-08
2.491245e-08
2.583346e-08
9.359789e-11
2.691858e-09
6.212435e-09
6.416477e-09
9.859393e-09
1.458872e-08
1.461188e-08
1.447951e-08
1.484776e-08
1.675781e-08
1.894555e-08
2.118672e-08
2.330331e-08
2.491592e-08
2.431457e-08
2.55009e-08
2.616209e-08
2.687648e-08
9.322424e-11
2.918216e-09
6.699213e-09
6.703026e-09
9.979435e-09
1.545874e-08
1.638368e-08
1.564474e-08
1.57395e-08
1.763599e-08
1.994727e-08
2.242339e-08
2.479798e-08
2.628684e-08
2.662223e-08
2.696623e-08
2.746793e-08
2.813329e-08
9.291188e-11
3.120225e-09
6.894746e-09
6.813904e-09
9.874654e-09
1.599455e-08
1.79177e-08
1.657185e-08
1.654196e-08
1.852521e-08
2.127287e-08
2.383841e-08
2.606884e-08
2.71041e-08
2.577176e-08
2.808657e-08
2.876242e-08
2.948563e-08
9.262375e-11
3.324408e-09
7.087717e-09
6.847553e-09
9.686784e-09
1.627954e-08
1.954131e-08
1.726754e-08
1.734858e-08
2.007558e-08
2.201311e-08
2.510255e-08
2.728427e-08
2.837302e-08
2.870665e-08
2.957914e-08
3.013216e-08
3.083601e-08
9.22759e-11
3.695837e-09
6.91028e-09
6.725633e-09
9.456931e-09
1.652189e-08
2.100584e-08
1.794106e-08
1.903124e-08
1.987148e-08
2.339026e-08
2.632596e-08
2.846964e-08
2.967387e-08
3.019329e-08
3.103321e-08
3.154065e-08
3.223339e-08
9.191676e-11
3.986998e-09
6.375712e-09
6.535684e-09
9.266273e-09
1.704392e-08
2.207333e-08
1.986577e-08
1.786442e-08
2.14483e-08
2.449259e-08
2.74925e-08
2.98643e-08
3.117228e-08
3.174085e-08
3.249641e-08
3.297385e-08
3.365041e-08
9.153956e-11
4.527082e-09
5.761217e-09
6.364354e-09
9.225963e-09
1.830864e-08
2.457456e-08
1.718867e-08
1.950272e-08
2.24015e-08
2.560977e-08
2.880866e-08
3.141483e-08
3.270279e-08
3.347872e-08
3.373928e-08
3.444418e-08
3.509551e-08
9.122332e-11
5.411155e-09
5.282306e-09
6.39975e-09
9.471247e-09
1.982362e-08
1.776681e-08
1.867857e-08
2.017425e-08
2.344956e-08
2.693481e-08
3.037006e-08
3.306294e-08
3.454661e-08
3.471228e-08
3.541562e-08
3.603389e-08
3.658338e-08
9.128878e-11
6.551385e-09
5.298224e-09
6.764972e-09
9.846943e-09
2.924029e-08
1.821624e-08
1.893697e-08
2.107986e-08
2.475827e-08
2.854184e-08
3.213394e-08
3.488436e-08
3.629688e-08
3.723266e-08
3.638643e-08
3.76176e-08
3.811035e-08
9.170298e-11
5.442474e-09
5.270263e-09
7.299638e-09
1.140519e-08
3.030928e-08
1.782852e-08
1.951323e-08
2.230481e-08
2.641778e-08
3.048352e-08
3.407652e-08
3.68799e-08
3.805456e-08
3.929851e-08
3.785404e-08
3.92364e-08
3.966563e-08