/*--------------------------------*- C++ -*----------------------------------*\
| =========                 |                                                 |
| \\      /  F ield         | OpenFOAM: The Open Source CFD Toolbox           |
|  \\    /   O peration     | Version:  2206                                  |
|   \\  /    A nd           | Website:  www.openfoam.com                      |
|    \\/     M anipulation  |                                                 |
\*---------------------------------------------------------------------------*/
FoamFile
{
    version     2.0;
    format      ascii;
    arch        "LSB;label=32;scalar=64";
    class       volScalarField;
    location    "1";
    object      omega.b_0;
}
// * * * * * * * * * * * * * * * * * * * * * * * * * * * * * * * * * * * * * //

dimensions      [0 0 -1 0 0 0 0];

internalField   nonuniform List<scalar> 
13078
(
6.495683
0.6760046
0.6215435
0.6223904
0.6239185
0.6256615
0.6276673
6.57947
0.662684
0.6211011
0.6223234
0.6238739
0.625623
0.6276256
6.585492
0.6615423
0.6210206
0.6222484
0.6238199
0.6255775
0.6275801
6.591679
0.6610367
0.6209796
0.6221927
0.6237699
0.6255317
0.6275335
6.598133
0.6608595
0.6209578
0.6221719
0.623728
0.625488
0.6274879
6.604802
0.6607819
0.6209481
0.6221601
0.6237151
0.6254494
0.6274434
6.611848
0.6607854
0.6209424
0.6221468
0.6237064
0.6254393
0.6274033
6.619131
0.6608333
0.6209388
0.6221382
0.6237007
0.6254329
0.627394
6.626655
0.6608814
0.6209382
0.6221354
0.6236969
0.6254276
0.6273875
6.634488
0.6609509
0.6209384
0.6221335
0.6236938
0.6254231
0.6273818
6.642682
0.6610353
0.6209385
0.6221317
0.6236908
0.6254189
0.6273761
6.651186
0.661131
0.6209382
0.6221299
0.623688
0.6254148
0.6273708
6.660084
0.6612368
0.6209379
0.6221279
0.6236853
0.6254109
0.6273654
6.669375
0.661352
0.6209371
0.6221252
0.6236816
0.6254065
0.6273597
6.679072
0.6614758
0.6209362
0.6221146
0.6236662
0.6254009
0.6273539
6.689206
0.6616081
0.6209349
0.6221014
0.6236535
0.6253955
0.6273478
6.69983
0.6617488
0.6209337
0.6220973
0.6236488
0.6253905
0.6273414
6.710875
0.6618976
0.6209325
0.6220936
0.6236443
0.6253854
0.6273348
6.722538
0.662056
0.6209311
0.6220899
0.6236391
0.6253787
0.6273278
6.734686
0.6622233
0.6209293
0.622085
0.6236215
0.6253537
0.6273188
6.747501
0.6624013
0.6209276
0.6220796
0.6236
0.6253333
0.6273096
6.760849
0.6625898
0.620926
0.622075
0.6235925
0.6253251
0.6273013
6.77492
0.6627896
0.6209239
0.6220699
0.6235859
0.6253162
0.6272909
6.789678
0.663002
0.6209219
0.6220645
0.6235775
0.6252897
0.6272531
6.805169
0.6632273
0.6209199
0.6220588
0.6235685
0.6252574
0.6272221
6.821431
0.6634667
0.6209174
0.6220525
0.6235601
0.6252448
0.6272083
6.838694
0.6637174
0.6209149
0.6220458
0.6235512
0.6252333
0.6271939
6.860783
0.6640066
0.6209127
0.6220387
0.6235414
0.6252194
0.6271531
6.889513
0.6642702
0.6209095
0.622031
0.6235307
0.6252039
0.6271032
6.964902
0.6649183
0.6209125
0.6220224
0.6235193
0.6251895
0.6270825
7.077899
0.6657173
0.6209019
0.6220126
0.6235066
0.6251733
0.6270598
7.116328
0.6668869
0.6208738
0.6219995
0.6234924
0.6251554
0.6270349
7.153722
0.6683774
0.6208815
0.6219736
0.6234741
0.6251353
0.6270105
7.186842
0.6689524
0.6208703
0.6219519
0.6234529
0.6251115
0.6269829
7.221338
0.6695591
0.6208619
0.6219206
0.6234179
0.6250788
0.6269503
7.257503
0.6702242
0.6208539
0.6218707
0.6233586
0.6250229
0.6269079
7.295302
0.6709309
0.6208452
0.621843
0.6232846
0.6249784
0.6268581
7.335035
0.6716564
0.6208321
0.6218141
0.6232404
0.6249021
0.6267781
7.385169
0.6723328
0.6208124
0.6217751
0.6231838
0.6247651
0.6266995
7.498026
0.6734264
0.6207782
0.6217019
0.6230819
0.6246206
0.6265112
7.673726
0.6758502
0.6206583
0.6215397
0.6228648
0.6243648
0.6260661
7.748897
0.6779729
0.6204733
0.6212395
0.6225127
0.6238891
0.6251885
7.810549
0.6785322
0.6200933
0.6208106
0.6219958
0.6229204
0.6239224
7.878365
0.6788116
0.6196667
0.6202553
0.6211131
0.6217068
0.6227125
7.986784
0.6793273
0.6192587
0.6194228
0.6197972
0.6205914
0.6216052
8.166382
0.6812578
0.6186311
0.6182057
0.6185131
0.619144
0.6203182
8.255064
0.6830648
0.6176603
0.6170516
0.6170054
0.6175159
0.6186367
8.326445
0.6829981
0.6164035
0.6157484
0.6155015
0.6160772
0.616646
8.392391
0.6823557
0.6151757
0.6143038
0.614101
0.6144929
0.61506
8.454508
0.6814325
0.6140412
0.6130637
0.612756
0.6129482
0.6138861
8.545235
0.6811895
0.6131658
0.6120814
0.6117224
0.6117675
0.612475
8.786726
0.6827049
0.6121899
0.6111406
0.610814
0.6108134
0.6108888
8.873924
0.6818376
0.6111782
0.6103969
0.6102315
0.6102993
0.6102721
8.911483
0.6811358
0.6104096
0.6097009
0.6096433
0.6097692
0.610028
8.929845
0.6806451
0.6098289
0.6091877
0.6091966
0.6092999
0.6094867
8.932601
0.6800291
0.6094824
0.6088825
0.6089147
0.6090221
0.6092686
8.932834
0.6801448
0.6095046
0.6089092
0.6089469
0.609063
0.6093255
8.930147
0.6809386
0.6098563
0.6092231
0.6092425
0.6093573
0.6095509
8.911799
0.6816008
0.610441
0.6097459
0.6097076
0.6098517
0.6101232
8.874453
0.6825257
0.6112414
0.610485
0.6103475
0.6104423
0.6104247
8.787368
0.6835743
0.6122834
0.6112669
0.6109633
0.6109677
0.6110485
8.545848
0.6820852
0.6132364
0.6121648
0.6118384
0.6119069
0.6126353
8.454868
0.6823572
0.6141041
0.6131551
0.6128866
0.6131109
0.6140785
8.392613
0.6832784
0.6152295
0.6143917
0.6142424
0.6146671
0.6152331
8.326465
0.6838346
0.6164367
0.6158211
0.615611
0.6161961
0.6167743
8.255064
0.683736
0.6176624
0.6170857
0.6170901
0.6176588
0.6188194
8.166382
0.6817168
0.6185942
0.6182082
0.618587
0.6192653
0.6203247
7.986784
0.6796241
0.6192033
0.6193924
0.6198285
0.6205963
0.6215966
7.878366
0.6789618
0.6196091
0.6201921
0.6210415
0.6216766
0.6228837
7.810549
0.6785858
0.6200446
0.6207305
0.6218941
0.6228951
0.6240025
7.749111
0.6779716
0.6204356
0.6211715
0.622431
0.6238381
0.6251631
7.678129
0.6761928
0.6206448
0.6214959
0.6228213
0.6243205
0.6260312
7.535474
0.6742095
0.620762
0.6216825
0.6230625
0.624597
0.6264838
7.439016
0.6731206
0.6208012
0.6217657
0.6231717
0.6247527
0.6266866
7.388642
0.6723514
0.6208251
0.6218048
0.6232325
0.6248985
0.626772
7.344499
0.6712873
0.6208355
0.6218383
0.6233001
0.6249825
0.6268549
7.300797
0.6703642
0.6208493
0.6218685
0.623367
0.6250293
0.6269074
7.237693
0.6695562
0.6208599
0.6219187
0.6234142
0.625078
0.6269489
7.190731
0.6688747
0.6208674
0.6219506
0.6234515
0.6251101
0.6269819
7.154755
0.6683128
0.6208792
0.6219726
0.623473
0.6251345
0.62701
7.116393
0.6668249
0.6208719
0.6219986
0.6234916
0.6251548
0.6270348
7.077899
0.665662
0.6209002
0.622012
0.6235061
0.6251731
0.6270599
6.964902
0.6648708
0.620911
0.622022
0.623519
0.6251895
0.6270827
6.889513
0.6642254
0.6209082
0.6220306
0.6235306
0.625204
0.6271034
6.860783
0.6639659
0.6209115
0.6220384
0.6235413
0.6252194
0.6271533
6.838694
0.6636805
0.6209138
0.6220457
0.623551
0.6252332
0.6271943
6.821431
0.6634333
0.6209164
0.6220524
0.6235599
0.6252449
0.6272086
6.805169
0.6631972
0.6209191
0.6220587
0.6235684
0.6252576
0.6272225
6.789678
0.6629748
0.6209212
0.6220644
0.6235775
0.6252898
0.6272534
6.77492
0.662765
0.6209233
0.6220698
0.6235858
0.6253162
0.6272911
6.760849
0.6625674
0.6209254
0.622075
0.6235925
0.6253252
0.6273015
6.747501
0.6623809
0.6209271
0.6220797
0.6236002
0.6253335
0.6273099
6.734686
0.6622045
0.6209289
0.6220851
0.6236216
0.6253539
0.6273192
6.722538
0.6620385
0.6209307
0.62209
0.6236392
0.625379
0.6273283
6.710875
0.6618811
0.6209322
0.6220937
0.6236444
0.6253856
0.6273352
6.69983
0.661733
0.6209335
0.6220974
0.6236489
0.6253907
0.6273417
6.689206
0.6615927
0.6209347
0.6221015
0.6236537
0.6253958
0.6273481
6.679072
0.6614603
0.6209362
0.6221149
0.6236663
0.6254011
0.6273543
6.669375
0.6613357
0.6209373
0.6221255
0.6236819
0.6254068
0.62736
6.660084
0.661219
0.6209382
0.6221283
0.6236857
0.6254111
0.6273657
6.651186
0.6611106
0.6209387
0.6221305
0.6236884
0.625415
0.6273709
6.642682
0.6610108
0.6209391
0.6221323
0.6236911
0.6254189
0.627376
6.634488
0.6609206
0.6209392
0.622134
0.6236937
0.6254227
0.6273812
6.626655
0.6608419
0.6209391
0.6221357
0.6236964
0.6254266
0.6273864
6.619131
0.6607793
0.6209395
0.6221378
0.6236992
0.625431
0.6273922
6.611848
0.6607087
0.6209421
0.6221449
0.6237034
0.6254361
0.6274004
6.604802
0.6606695
0.6209451
0.6221553
0.6237095
0.6254443
0.6274393
6.598133
0.6606905
0.6209485
0.6221616
0.6237183
0.6254802
0.6274822
6.591679
0.660767
0.6209577
0.6221736
0.6237547
0.625521
0.6275265
6.585492
0.660996
0.6209779
0.6222161
0.6237985
0.6255644
0.6275724
6.57947
0.6611616
0.6210266
0.6222733
0.6238483
0.6256102
0.627619
6.495683
0.6601577
0.6211089
0.6223544
0.6239069
0.6256581
0.6276661
0.6300284
0.6329993
0.6369701
0.6407662
0.647524
0.6582167
0.6881152
0.6299793
0.6329355
0.6368859
0.6406648
0.6474002
0.6580414
0.687009
0.6299285
0.6328718
0.6368044
0.6419785
0.6472854
0.6578695
0.6862858
0.6298772
0.632808
0.6367198
0.6404642
0.6471562
0.6576982
0.6856315
0.6298272
0.6327444
0.636638
0.6403582
0.647034
0.6575276
0.6851025
0.6297777
0.6326808
0.6365551
0.6402572
0.646913
0.657358
0.6845853
0.6297291
0.6326176
0.6364727
0.6401594
0.6468799
0.6571903
0.6840781
0.6296843
0.6325549
0.6363909
0.6400633
0.6468486
0.6570245
0.683578
0.6296739
0.6324967
0.6363128
0.6399649
0.6467524
0.656874
0.6830832
0.6296664
0.6324827
0.6362397
0.6398668
0.6466568
0.6567241
0.6825934
0.6296593
0.6324725
0.6362212
0.6397715
0.6465614
0.6565749
0.6821071
0.629652
0.6324619
0.6362069
0.639751
0.6464654
0.6564257
0.6816245
0.6296446
0.6324511
0.6361921
0.6397329
0.6464491
0.6562737
0.6811442
0.6296369
0.63244
0.6361768
0.6397138
0.6464306
0.6562433
0.6806548
0.629629
0.6324283
0.6361607
0.6396937
0.6464111
0.6562082
0.6806377
0.6296207
0.6324161
0.636144
0.6396729
0.6463901
0.6561712
0.6804865
0.6296122
0.6324033
0.6361267
0.6396509
0.6463607
0.6561326
0.6803815
0.6296032
0.6323903
0.6361084
0.639618
0.6460683
0.6560921
0.6802512
0.6295939
0.6323775
0.6360897
0.6395939
0.6460304
0.656051
0.6801257
0.6295839
0.6323639
0.6360699
0.6395688
0.6459988
0.6560078
0.6798576
0.6295737
0.6323497
0.6360493
0.6395427
0.6459659
0.6559628
0.6794723
0.6295626
0.6323345
0.6360278
0.6395152
0.6459317
0.6559152
0.6790997
0.6295511
0.6323186
0.636004
0.6394878
0.6458904
0.6558654
0.6787093
0.6295362
0.6323017
0.6359819
0.6407701
0.6456232
0.6557884
0.6783717
0.629521
0.6322839
0.6359534
0.6394356
0.6454765
0.6557257
0.6781118
0.629507
0.6322654
0.6359285
0.6393897
0.6454252
0.6556672
0.6778457
0.6294892
0.6322446
0.6358992
0.6393535
0.6453718
0.6555966
0.6776512
0.6294308
0.6322207
0.6358709
0.6393149
0.6452991
0.6550206
0.6774554
0.6293851
0.6314596
0.6348533
0.6392712
0.6452326
0.6548003
0.6772973
0.6293667
0.6314324
0.6348157
0.6392273
0.6451718
0.6547158
0.6771765
0.6292797
0.6313414
0.6347835
0.6391822
0.6451081
0.6543236
0.6770036
0.629217
0.6312525
0.6347481
0.6391337
0.6450392
0.6538601
0.6768608
0.6291817
0.6311321
0.6346975
0.6390815
0.6449664
0.6537391
0.6767703
0.6291473
0.6310792
0.6345493
0.6390255
0.6448885
0.6535629
0.6743196
0.6291082
0.6310406
0.6344129
0.6389573
0.6448052
0.65342
0.6741509
0.6290642
0.6310022
0.6341738
0.638866
0.6447181
0.6532877
0.6703317
0.6290121
0.6309631
0.6340844
0.6385534
0.6446342
0.6531649
0.6715388
0.6289419
0.6309238
0.6340118
0.6383964
0.6444567
0.6532686
0.6711314
0.6288522
0.6308725
0.6339308
0.6380841
0.6439969
0.6531622
0.6679736
0.6286642
0.6308495
0.6336449
0.6374617
0.6435377
0.6528524
0.6674107
0.6282032
0.6301296
0.632657
0.6368657
0.6429047
0.651945
0.6683889
0.6269233
0.6285102
0.6318735
0.6364238
0.6421638
0.6498304
0.6644672
0.6257023
0.6275389
0.6307699
0.6351844
0.640888
0.6477611
0.6610412
0.6249653
0.626685
0.6301341
0.6340848
0.6394756
0.6468259
0.6604318
0.6235392
0.6256992
0.6288829
0.6332759
0.6380481
0.6459643
0.6614546
0.6220754
0.6247378
0.6279086
0.6311278
0.6372179
0.6438389
0.6601356
0.6202998
0.6231268
0.626185
0.6301377
0.6345019
0.6429048
0.6564142
0.6189635
0.6219153
0.6250654
0.6280116
0.633291
0.6400563
0.6526129
0.6168855
0.6205388
0.6233097
0.626386
0.6312738
0.6388404
0.6504536
0.6153923
0.618344
0.6215212
0.6252384
0.6302018
0.6373158
0.6487257
0.6139897
0.6168257
0.6194445
0.6239126
0.6301667
0.6366601
0.6454686
0.6122398
0.6145229
0.6175605
0.6217924
0.6279639
0.6353358
0.6444331
0.6111583
0.612903
0.6161756
0.6202456
0.6257026
0.632642
0.6418639
0.6104349
0.612289
0.6151418
0.6192674
0.623731
0.6304888
0.639637
0.6100524
0.6118378
0.6144031
0.6188076
0.6234188
0.6282226
0.6333553
0.6099202
0.6117764
0.6142531
0.6178516
0.6221282
0.6268542
0.6099763
0.6117423
0.6141167
0.6173746
0.6210796
0.6250549
0.6101264
0.6117114
0.6144968
0.6182807
0.6227152
0.6277992
0.6105399
0.6117327
0.61491
0.6186916
0.6232818
0.628599
0.6360622
0.6112758
0.6120013
0.6153235
0.6197506
0.6241661
0.6313421
0.6436178
0.6123743
0.6128375
0.61683
0.6215266
0.627165
0.6337423
0.6438909
0.6141531
0.6150693
0.6194978
0.6229805
0.6292696
0.6364825
0.6447427
0.6155786
0.6161123
0.620952
0.6248872
0.6303389
0.637294
0.6469463
0.6170657
0.6188052
0.6227084
0.6260378
0.6314627
0.6377788
0.6496679
0.6191352
0.6207929
0.6239993
0.6277037
0.63225
0.6395455
0.6522046
0.6204889
0.622026
0.6260352
0.6286899
0.6343231
0.6413718
0.6550262
0.6220948
0.6240946
0.6270957
0.6309412
0.6356677
0.6435879
0.6595939
0.6237049
0.6253721
0.6287636
0.6323292
0.6378775
0.6448932
0.6615294
0.624739
0.6267177
0.6301469
0.6340894
0.6391302
0.6467426
0.6610522
0.6257353
0.6275615
0.6305088
0.6350389
0.640275
0.6474299
0.6616575
0.6268242
0.6283512
0.6314029
0.6359822
0.6418152
0.6491366
0.6625337
0.6280838
0.6297096
0.632407
0.6365248
0.6427641
0.6509327
0.6666214
0.6286472
0.6306343
0.6332354
0.6372208
0.6431803
0.6526724
0.6685741
0.628838
0.6309125
0.6338671
0.6378374
0.6439641
0.6530014
0.6676675
0.6289348
0.6309602
0.6339626
0.6381279
0.6444493
0.65342
0.6689102
0.6290078
0.631003
0.6340491
0.6386749
0.6445376
0.653207
0.6711237
0.6290617
0.6310288
0.6341339
0.6386906
0.6446712
0.6532247
0.6714233
0.6291067
0.6310536
0.6342548
0.6389119
0.6447622
0.6533534
0.6739985
0.6291466
0.6310739
0.63447
0.6389959
0.6448486
0.6534959
0.6743913
0.6291815
0.6311382
0.6346699
0.6390548
0.6449295
0.6536652
0.6753948
0.629217
0.6312213
0.6347226
0.639109
0.6450048
0.653801
0.6768981
0.6292799
0.6312878
0.6347668
0.6391594
0.6450754
0.6539525
0.6769747
0.6293673
0.6314241
0.6348007
0.6392062
0.6451422
0.6546678
0.6771668
0.6293856
0.6314645
0.634833
0.6392493
0.6452043
0.6547622
0.677294
0.6294312
0.6322213
0.635872
0.6392959
0.6452657
0.6548506
0.6774115
0.6294897
0.6322454
0.6359002
0.6393361
0.6453408
0.6553767
0.6775899
0.6295076
0.6322661
0.635929
0.6393724
0.6454012
0.6556404
0.6777817
0.6295215
0.6322848
0.635956
0.6394067
0.6454536
0.6557005
0.6780091
0.6295368
0.6323026
0.6359817
0.6394397
0.6455093
0.6557578
0.678248
0.6295516
0.6323193
0.6360056
0.6394712
0.6457977
0.6558338
0.6785518
0.629563
0.6323351
0.6360285
0.6395011
0.645916
0.6558944
0.678844
0.629574
0.6323503
0.6360503
0.6395293
0.6459512
0.655943
0.6791844
0.6295844
0.6323646
0.6360709
0.6395564
0.6459852
0.6559892
0.6795433
0.6295945
0.6323782
0.6360907
0.639582
0.6460171
0.6560334
0.6798777
0.6296037
0.6323911
0.6361094
0.6396064
0.6460476
0.6560755
0.6801965
0.6296127
0.632404
0.6361277
0.6396362
0.6461981
0.6561163
0.6803913
0.6296212
0.6324167
0.636145
0.6396629
0.6463816
0.6561557
0.6804881
0.6296294
0.6324289
0.6361617
0.6396844
0.6464026
0.6561936
0.6805996
0.6296373
0.6324405
0.6361776
0.6397051
0.6464229
0.6562298
0.6806846
0.6296448
0.6324515
0.6361929
0.6397248
0.6464419
0.6562636
0.6809627
0.629652
0.6324621
0.6362075
0.6397438
0.64646
0.6563549
0.6814407
0.6296591
0.6324726
0.6362216
0.6397619
0.6465159
0.6565038
0.6819217
0.629666
0.6324826
0.63624
0.6398199
0.6466106
0.656653
0.6824057
0.6296731
0.6324962
0.6363128
0.6399179
0.6467061
0.6568024
0.6828924
0.6296828
0.6325539
0.6363904
0.6400166
0.6468017
0.6569525
0.6833829
0.6297268
0.6326161
0.6364718
0.6401156
0.6468935
0.6571099
0.6838774
0.6297747
0.6326787
0.6365539
0.6402097
0.6468575
0.6572768
0.6843771
0.6298234
0.6327419
0.6366363
0.6403101
0.6469745
0.657445
0.6848838
0.6298728
0.6328055
0.6367193
0.6404107
0.6470956
0.6576146
0.6853997
0.6299241
0.6328697
0.6368025
0.6405118
0.6472172
0.657785
0.6859713
0.6299759
0.6329338
0.636886
0.6406128
0.6473395
0.6579561
0.6866489
0.6300279
0.6329991
0.6369697
0.640714
0.6474621
0.658129
0.6880259
5.509409
5.824595
5.82088
5.820879
5.820879
5.820879
5.820879
5.820879
5.820879
5.820879
5.820879
5.820879
5.820879
5.820879
5.820879
5.820879
5.820879
5.820879
5.675753
5.82237
5.820884
5.820884
5.820884
5.820884
5.820884
5.820884
5.820884
5.820884
5.820884
5.820884
5.820884
5.820884
5.820884
5.820884
5.820884
5.820884
5.665784
5.82241
5.820884
5.820884
5.820884
5.820884
5.820884
5.820884
5.820884
5.820884
5.820884
5.820884
5.820884
5.820884
5.820884
5.820884
5.820884
5.820884
5.655555
5.822441
5.820884
5.820884
5.820884
5.820884
5.820884
5.820884
5.820884
5.820884
5.820884
5.820884
5.820884
5.820884
5.820884
5.820884
5.820884
5.820884
5.644075
5.822508
5.820884
5.820884
5.820884
5.820884
5.820884
5.820884
5.820884
5.820884
5.820884
5.820884
5.820884
5.820884
5.820884
5.820884
5.820884
5.820884
5.631197
5.822592
5.820884
5.820884
5.820884
5.820884
5.820884
5.820884
5.820884
5.820884
5.820884
5.820884
5.820884
5.820884
5.820884
5.820884
5.820884
5.820884
5.616969
5.822679
5.820884
5.820884
5.820884
5.820884
5.820884
5.820884
5.820884
5.820884
5.820884
5.820884
5.820884
5.820884
5.820884
5.820884
5.820884
5.820884
5.60148
5.822762
5.820884
5.820884
5.820884
5.820884
5.820884
5.820884
5.820884
5.820884
5.820884
5.820884
5.820884
5.820884
5.820884
5.820884
5.820884
5.820884
5.584816
5.822838
5.820884
5.820884
5.820884
5.820884
5.820884
5.820884
5.820884
5.820884
5.820884
5.820884
5.820884
5.820884
5.820884
5.820884
5.820884
5.820884
5.567071
5.822903
5.820884
5.820884
5.820884
5.820884
5.820884
5.820884
5.820884
5.820884
5.820884
5.820884
5.820884
5.820884
5.820884
5.820884
5.820884
5.820884
5.548329
5.822954
5.820884
5.820884
5.820884
5.820884
5.820884
5.820884
5.820884
5.820884
5.820884
5.820884
5.820884
5.820884
5.820884
5.820884
5.820884
5.820884
5.528647
5.822996
5.820884
5.820884
5.820884
5.820884
5.820884
5.820884
5.820884
5.820884
5.820884
5.820884
5.820884
5.820884
5.820884
5.820884
5.820884
5.820884
5.508053
5.823041
5.820884
5.820884
5.820884
5.820884
5.820884
5.820884
5.820884
5.820884
5.820884
5.820884
5.820884
5.820884
5.820884
5.820884
5.820884
5.820884
5.485258
5.823172
5.820884
5.820884
5.820884
5.820884
5.820884
5.820884
5.820884
5.820884
5.820884
5.820884
5.820884
5.820884
5.820884
5.820884
5.820884
5.820884
5.269948
5.823408
5.820884
5.820884
5.820884
5.820884
5.820884
5.820884
5.820884
5.820884
5.820884
5.820884
5.820884
5.820884
5.820884
5.820884
5.820884
5.820884
5.196723
5.824266
5.820872
5.820884
5.820884
5.820884
5.820884
5.820884
5.820884
5.820884
5.820884
5.820884
5.820884
5.820884
5.820884
5.820884
5.820884
5.820884
5.110294
5.823786
5.820919
5.820878
5.820884
5.820884
5.820884
5.820884
5.820884
5.820884
5.820884
5.820884
5.820884
5.820884
5.820884
5.820884
5.820884
5.820884
5.020336
5.824502
5.820898
5.820901
5.820881
5.820884
5.820884
5.820884
5.820884
5.820884
5.820884
5.820884
5.820884
5.820884
5.820884
5.820884
5.820884
5.820884
4.906225
5.824799
5.820884
5.820891
5.820894
5.820883
5.820884
5.820884
5.820884
5.820884
5.820884
5.820884
5.820884
5.820884
5.820884
5.820884
5.820884
5.820884
4.790204
5.824765
5.820884
5.820884
5.820885
5.820886
5.820884
5.820884
5.820884
5.820884
5.820884
5.820884
5.820884
5.820884
5.820884
5.820884
5.820884
5.820884
4.680851
5.824415
5.820884
5.820884
5.820884
5.820884
5.820884
5.820884
5.820884
5.820884
5.820884
5.820884
5.820884
5.820884
5.820884
5.820884
5.820884
5.820884
4.587201
5.824066
5.820884
5.820884
5.820884
5.820884
5.820884
5.820884
5.820884
5.820884
5.820884
5.820884
5.820884
5.820884
5.820884
5.820884
5.820884
5.820884
4.500421
5.823603
5.820884
5.820884
5.820884
5.820884
5.820884
5.820884
5.820884
5.820884
5.820884
5.820884
5.820884
5.820884
5.820884
5.820884
5.820884
5.820884
4.414079
5.823402
5.820884
5.820884
5.820884
5.820884
5.820884
5.820884
5.820884
5.820884
5.820884
5.820884
5.820884
5.820884
5.820884
5.820884
5.820884
5.820884
4.331153
5.823317
5.820884
5.820884
5.820884
5.820884
5.820884
5.820884
5.820884
5.820884
5.820884
5.820884
5.820884
5.820884
5.820884
5.820884
5.820884
5.820884
4.249967
5.823292
5.820884
5.820884
5.820884
5.820884
5.820884
5.820884
5.820884
5.820884
5.820884
5.820884
5.820884
5.820884
5.820884
5.820884
5.820884
5.820884
4.164572
5.823144
5.820884
5.820884
5.820884
5.820884
5.820884
5.820884
5.820884
5.820884
5.820884
5.820884
5.820884
5.820884
5.820884
5.820884
5.820884
5.820884
4.0823
5.823044
5.820884
5.820884
5.820884
5.820884
5.820884
5.820884
5.820884
5.820884
5.820884
5.820884
5.820884
5.820884
5.820884
5.820884
5.820884
5.820884
4.001471
5.822958
5.820884
5.820884
5.820884
5.820884
5.820884
5.820884
5.820884
5.820884
5.820884
5.820884
5.820884
5.820884
5.820884
5.820884
5.820884
5.820884
3.919705
5.822677
5.820884
5.820902
5.8209
5.820884
5.820884
5.820884
5.820884
5.820884
5.820884
5.820884
5.820884
5.820884
5.820884
5.820884
5.820884
5.820884
3.834859
5.822352
5.820885
5.822351
5.822084
5.820892
5.820884
5.820882
5.820884
5.820884
5.820884
5.820884
5.820884
5.820884
5.820884
5.820884
5.820884
5.820884
3.753845
5.822062
5.820886
5.822321
5.821527
5.820894
5.820884
5.820926
5.820928
5.820884
5.820884
5.820884
5.820884
5.820884
5.820884
5.820884
5.820884
5.820884
3.676129
5.822361
5.82088
5.820874
5.820654
5.820885
5.820884
5.820886
5.820885
5.820884
5.820884
5.820884
5.820884
5.820884
5.820884
5.820884
5.820884
5.820884
3.591355
5.820063
5.82094
5.823241
5.823478
5.820921
5.820885
5.820885
5.820884
5.820884
5.820884
5.820884
5.820884
5.820884
5.820884
5.820884
5.820884
5.820884
3.342307
5.831488
5.82127
5.829073
5.828234
5.827492
5.820889
5.820884
5.820902
5.820891
5.820884
5.820884
5.820884
5.820884
5.820884
5.820884
5.820884
5.820884
3.249403
5.823248
5.82163
5.821004
5.822891
5.821271
5.820903
5.821004
5.821075
5.820888
5.820884
5.820884
5.820884
5.820884
5.820884
5.820884
5.820885
5.820884
3.13192
5.865782
5.822465
5.820994
5.821019
5.820865
5.820974
5.821023
5.820981
5.820917
5.820886
5.820872
5.820895
5.820884
5.820884
5.820885
5.820885
5.820884
2.005649
5.876687
5.833909
5.823433
5.819391
5.819249
5.819838
5.820596
5.820966
5.820774
5.821121
5.821294
5.821024
5.820895
5.820877
5.820887
5.820884
5.820884
1.102172
5.891377
5.829758
5.819004
5.817428
5.817415
5.818325
5.819207
5.819975
5.819647
5.820408
5.821173
5.821299
5.821548
5.821299
5.820903
5.820882
5.820884
0.5441001
6.148096
5.847694
5.817695
5.815377
5.815847
5.816926
5.816377
5.818646
5.818544
5.819531
5.820893
5.820783
5.821546
5.822366
5.821763
5.821117
5.82087
0.469953
5.914335
5.857019
5.813308
5.813956
5.814586
5.815711
5.8156
5.817546
5.817669
5.818866
5.819503
5.820298
5.821241
5.821356
5.822143
5.822366
5.821623
0.6046065
5.800391
5.852172
5.812925
5.812441
5.814132
5.814749
5.814669
5.816674
5.817079
5.818518
5.817867
5.820056
5.821815
5.821052
5.822123
5.822597
5.822755
0.8186138
5.912683
5.840807
5.812823
5.812109
5.813318
5.814116
5.814078
5.816035
5.816821
5.81841
5.818134
5.82012
5.819348
5.821407
5.822278
5.82287
5.822099
0.8375098
5.978921
5.830592
5.811729
5.812874
5.811623
5.813808
5.813857
5.815675
5.816922
5.817734
5.818808
5.820421
5.819914
5.821751
5.822727
5.821499
5.823931
0.7968614
5.962519
5.907991
5.810272
5.811129
5.811839
5.813834
5.814014
5.815469
5.817574
5.816564
5.819392
5.819435
5.820953
5.822409
5.820947
5.824216
5.822609
0.7596325
5.850914
5.898708
5.827475
5.817833
5.812598
5.814215
5.814539
5.815835
5.818201
5.817517
5.820433
5.819084
5.821915
5.820809
5.824207
5.822157
5.824561
0.704904
5.635224
6.097641
5.829154
5.814198
5.814753
5.814875
5.816091
5.816687
5.817996
5.819977
5.818607
5.821363
5.82093
5.823755
5.821763
5.825141
5.823361
0.6756619
4.747237
5.947157
5.828218
5.820894
5.817293
5.815786
5.816657
5.81768
5.817108
5.820866
5.819365
5.82147
5.823411
5.82257
5.825104
5.824187
5.825842
0.6758146
3.476628
6.072375
5.85417
5.864517
5.817061
5.816925
5.817916
5.816442
5.820738
5.818982
5.822288
5.823603
5.822344
5.824573
5.823911
5.825222
5.825332
0.6780814
2.928917
6.034008
5.908136
5.877358
5.866967
5.820814
5.820953
5.822644
5.823522
5.823829
5.824497
5.824791
5.826574
0.6664166
1.010488
5.837885
5.829788
5.823748
5.825744
5.824824
5.826383
5.825804
5.825702
0.6615941
5.86011
5.824121
5.825258
5.825892
5.825298
5.827293
5.828132
5.825907
5.823477
5.826213
5.827142
5.828158
5.82887
5.830564
5.82628
5.82757
5.82782
5.828337
5.899844
5.827205
5.828772
5.829517
5.82995
5.832073
5.82731
5.828494
5.82923
5.829735
5.825594
5.827756
5.829113
5.830071
5.830604
5.80339
5.828618
5.830808
5.831148
5.831658
5.857922
5.830591
5.831849
5.831238
5.830762
5.892725
5.828891
5.831841
5.830923
5.832083
5.83195
0.6586002
5.841389
5.831585
5.831767
5.831118
5.83218
5.832654
0.6675755
1.237893
5.86559
5.829115
5.831716
5.831436
5.832882
5.832025
5.83156
0.6765789
2.601285
5.783074
5.851706
5.863823
5.832083
5.835868
5.832381
5.832291
5.831881
5.833214
5.832645
0.6766211
3.255378
6.090834
5.865629
5.822741
5.823592
5.827515
5.831485
5.89379
5.843951
5.829681
5.830906
5.832435
5.833904
5.833069
5.833372
5.832238
5.831504
0.6819051
4.181999
6.122081
5.827357
5.82766
5.825802
5.826145
5.827366
5.829734
5.830329
5.83186
5.830066
5.832562
5.834455
5.832996
5.83242
5.832772
5.831444
0.7092031
5.395673
5.923603
5.829191
5.828844
5.830791
5.827311
5.829045
5.829104
5.829499
5.830347
5.831657
5.833245
5.831355
5.833235
5.833016
5.83134
5.8309
0.7464399
5.792373
6.097631
5.825089
5.827266
5.827163
5.828208
5.828352
5.829883
5.831794
5.830448
5.833456
5.830768
5.833434
5.831432
5.83123
5.831235
5.829235
0.8057681
5.956788
5.847137
5.898958
5.833854
5.827434
5.828769
5.828947
5.830595
5.832346
5.832917
5.831465
5.832494
5.830825
5.830853
5.831146
5.828652
5.828468
0.835502
5.99255
5.873981
5.82929
5.827664
5.827569
5.828989
5.829008
5.831172
5.829827
5.83277
5.830464
5.831822
5.829836
5.832421
5.828479
5.829017
5.82614
0.8681533
6.072906
5.876332
5.827646
5.828601
5.827499
5.82888
5.828747
5.830845
5.829416
5.829428
5.829614
5.829603
5.828869
5.827331
5.827356
5.825576
5.824653
0.7900158
6.06924
5.87943
5.825709
5.829507
5.836321
5.828389
5.828172
5.830096
5.828402
5.829828
5.828436
5.828014
5.829506
5.826359
5.827347
5.823991
5.822991
0.5352633
6.008206
6.033193
5.828059
5.826525
5.828433
5.827636
5.827295
5.828901
5.827578
5.828784
5.826988
5.826504
5.825538
5.824848
5.822878
5.822139
5.820641
0.4591146
5.960624
5.866935
5.825201
5.825636
5.826413
5.826552
5.826143
5.827311
5.826163
5.8269
5.826377
5.824679
5.823781
5.823405
5.821404
5.820454
5.820358
0.7615989
6.108776
5.847843
5.824324
5.824693
5.825082
5.825206
5.825988
5.82541
5.824531
5.823457
5.823098
5.822702
5.821754
5.820671
5.820281
5.820697
5.820868
1.094065
6.184971
5.839817
5.82474
5.823876
5.823645
5.823617
5.823702
5.823289
5.82273
5.822091
5.821383
5.820741
5.820435
5.820622
5.820856
5.82088
5.820884
2.684386
5.9096
5.835229
5.823355
5.822547
5.822142
5.821882
5.82142
5.821082
5.820978
5.820699
5.820741
5.820815
5.820855
5.820878
5.820884
5.820884
5.820884
2.995524
5.826068
5.821578
5.821135
5.821124
5.820979
5.820912
5.820843
5.820836
5.820867
5.820868
5.82088
5.820885
5.820883
5.820884
5.820884
5.82089
5.820884
3.151108
5.831155
5.82139
5.82082
5.825857
5.820258
5.82091
5.821071
5.820982
5.820906
5.820883
5.820884
5.820884
5.820884
5.820884
5.820884
5.820892
5.820884
3.351001
5.975655
5.821768
5.840793
5.82911
5.826036
5.82089
5.820889
5.820905
5.820893
5.820884
5.820884
5.820884
5.820884
5.820884
5.820884
5.820884
5.820884
3.587785
5.85495
5.821295
5.828297
5.825936
5.820952
5.820886
5.820886
5.820884
5.820884
5.820884
5.820884
5.820884
5.820884
5.820884
5.820884
5.820884
5.820884
3.68505
5.824931
5.820908
5.821349
5.821117
5.820885
5.820885
5.820882
5.820877
5.820884
5.820884
5.820884
5.820884
5.820884
5.820884
5.820884
5.820884
5.820884
3.77541
5.825345
5.820886
5.823182
5.821789
5.820887
5.820884
5.82097
5.820952
5.820884
5.820884
5.820884
5.820884
5.820884
5.820884
5.820884
5.820884
5.820884
3.865136
5.825129
5.820886
5.821834
5.822283
5.820885
5.820884
5.820886
5.820885
5.820884
5.820884
5.820884
5.820884
5.820884
5.820884
5.820884
5.820884
5.820884
3.95389
5.824785
5.820884
5.820898
5.820905
5.820884
5.820884
5.820884
5.820884
5.820884
5.820884
5.820884
5.820884
5.820884
5.820884
5.820884
5.820884
5.820884
4.036794
5.824567
5.820884
5.820884
5.820884
5.820884
5.820884
5.820884
5.820884
5.820884
5.820884
5.820884
5.820884
5.820884
5.820884
5.820884
5.820884
5.820884
4.124198
5.824391
5.820884
5.820884
5.820884
5.820884
5.820884
5.820884
5.820884
5.820884
5.820884
5.820884
5.820884
5.820884
5.820884
5.820884
5.820884
5.820884
4.20954
5.824238
5.820884
5.820884
5.820884
5.820884
5.820884
5.820884
5.820884
5.820884
5.820884
5.820884
5.820884
5.820884
5.820884
5.820884
5.820884
5.820884
4.291373
5.823907
5.820884
5.820884
5.820884
5.820884
5.820884
5.820884
5.820884
5.820884
5.820884
5.820884
5.820884
5.820884
5.820884
5.820884
5.820884
5.820884
4.372866
5.824228
5.820884
5.820884
5.820884
5.820884
5.820884
5.820884
5.820884
5.820884
5.820884
5.820884
5.820884
5.820884
5.820884
5.820884
5.820884
5.820884
4.459942
5.8241
5.820884
5.820884
5.820884
5.820884
5.820884
5.820884
5.820884
5.820884
5.820884
5.820884
5.820884
5.820884
5.820884
5.820884
5.820884
5.820884
4.543188
5.824383
5.820884
5.820884
5.820884
5.820884
5.820884
5.820884
5.820884
5.820884
5.820884
5.820884
5.820884
5.820884
5.820884
5.820884
5.820884
5.820884
4.632751
5.824638
5.820884
5.820884
5.820884
5.820884
5.820885
5.820884
5.820884
5.820884
5.820884
5.820884
5.820884
5.820884
5.820884
5.820884
5.820884
5.820884
4.722308
5.824929
5.820884
5.820884
5.820884
5.820886
5.820886
5.820884
5.820884
5.820884
5.820884
5.820884
5.820884
5.820884
5.820884
5.820884
5.820884
5.820884
4.822595
5.824921
5.820884
5.820884
5.820888