/*--------------------------------*- C++ -*----------------------------------*\
| =========                 |                                                 |
| \\      /  F ield         | OpenFOAM: The Open Source CFD Toolbox           |
|  \\    /   O peration     | Version:  2206                                  |
|   \\  /    A nd           | Website:  www.openfoam.com                      |
|    \\/     M anipulation  |                                                 |
\*---------------------------------------------------------------------------*/
FoamFile
{
    version     2.0;
    format      ascii;
    arch        "LSB;label=32;scalar=64";
    class       volScalarField;
    location    "1";
    object      omega.b;
}
// * * * * * * * * * * * * * * * * * * * * * * * * * * * * * * * * * * * * * //

dimensions      [0 0 -1 0 0 0 0];

internalField   nonuniform List<scalar> 
13078
(
6.495683
0.6733635
0.6186964
0.6195337
0.6210549
0.6227902
0.6247873
6.57947
0.6600605
0.6182528
0.6194667
0.6210104
0.6227518
0.6247458
6.585492
0.6589077
0.6181722
0.6193917
0.6209565
0.6227064
0.6247004
6.591679
0.6583962
0.6181309
0.619336
0.6209065
0.6226608
0.624654
6.598133
0.6582162
0.618109
0.6193152
0.6208646
0.6226171
0.6246085
6.604802
0.6581367
0.6180993
0.6193033
0.6208517
0.6225787
0.6245642
6.611848
0.6581385
0.6180936
0.61929
0.620843
0.6225686
0.6245241
6.619131
0.6581849
0.6180899
0.6192814
0.6208373
0.6225621
0.6245148
6.626655
0.6582313
0.6180893
0.6192787
0.6208335
0.6225568
0.6245084
6.634488
0.6582989
0.6180895
0.6192767
0.6208304
0.6225524
0.6245027
6.642682
0.6583812
0.6180896
0.619275
0.6208274
0.6225482
0.6244971
6.651186
0.6584745
0.6180894
0.6192732
0.6208247
0.6225441
0.6244918
6.660084
0.6585775
0.618089
0.6192712
0.620822
0.6225402
0.6244864
6.669375
0.6586895
0.6180882
0.6192685
0.6208183
0.6225359
0.6244807
6.679072
0.6588097
0.6180873
0.619258
0.6208029
0.6225303
0.624475
6.689206
0.6589378
0.6180859
0.6192448
0.6207903
0.622525
0.6244689
6.69983
0.6590737
0.6180847
0.6192408
0.6207856
0.62252
0.6244626
6.710875
0.659217
0.6180834
0.6192371
0.6207811
0.6225149
0.624456
6.722538
0.6593692
0.6180819
0.6192334
0.620776
0.6225082
0.6244491
6.734686
0.6595293
0.6180801
0.6192286
0.6207586
0.6224834
0.6244401
6.747501
0.6596993
0.6180784
0.6192232
0.6207372
0.622463
0.624431
6.760849
0.6598786
0.6180766
0.6192187
0.6207297
0.6224549
0.6244228
6.77492
0.6600681
0.6180744
0.6192135
0.6207231
0.6224461
0.6244124
6.789678
0.6602687
0.6180723
0.6192083
0.6207148
0.6224197
0.6243748
6.805169
0.6604809
0.6180701
0.6192026
0.6207059
0.6223876
0.624344
6.821431
0.6607056
0.6180675
0.6191963
0.6206975
0.6223751
0.6243303
6.838694
0.6609399
0.6180648
0.6191897
0.6206887
0.6223637
0.624316
6.860783
0.661212
0.6180624
0.6191826
0.620679
0.6223499
0.6242755
6.889513
0.6614558
0.6180589
0.6191749
0.6206684
0.6223345
0.6242258
6.964902
0.6620988
0.6180617
0.6191664
0.620657
0.6223202
0.6242053
7.077899
0.6628582
0.6180508
0.6191567
0.6206444
0.6223041
0.6241827
7.116328
0.6640059
0.6180226
0.6191436
0.6206302
0.6222864
0.6241579
7.153722
0.6654714
0.6180299
0.6191179
0.6206121
0.6222664
0.6241338
7.186842
0.6660209
0.6180184
0.6190964
0.620591
0.6222426
0.6241064
7.221338
0.6666028
0.6180096
0.6190652
0.6205563
0.6222101
0.6240739
7.257503
0.6672463
0.6180014
0.6190154
0.6204973
0.6221546
0.6240316
7.295303
0.6679358
0.6179924
0.6189879
0.6204234
0.6221106
0.6239821
7.335035
0.6686508
0.6179792
0.618959
0.6203794
0.6220347
0.6239028
7.385169
0.6693331
0.6179595
0.6189202
0.6203229
0.6218977
0.6238252
7.498026
0.6704867
0.6179257
0.6188471
0.6202212
0.6217535
0.6236382
7.673726
0.6728818
0.6178068
0.6186853
0.6200045
0.6214982
0.6231941
7.748897
0.6750338
0.617622
0.6183852
0.6196528
0.6210265
0.6223325
7.810549
0.6756475
0.6172435
0.6179569
0.6191402
0.6200751
0.6210965
7.878366
0.6760069
0.616818
0.6174049
0.6182745
0.6188912
0.6199161
7.986784
0.676663
0.6164129
0.6165875
0.6169844
0.6178037
0.6188405
8.166382
0.6786406
0.615797
0.6153966
0.6157281
0.6163823
0.6175806
8.255064
0.6805612
0.6148478
0.6142659
0.6142495
0.6147836
0.615923
8.32645
0.6806406
0.6136178
0.6129852
0.6127694
0.6133697
0.613967
8.392453
0.6801744
0.6124152
0.611565
0.6113899
0.6118068
0.6123996
8.454711
0.6794505
0.6113034
0.610346
0.6100685
0.6102845
0.6112343
8.545676
0.6795129
0.6104439
0.6093811
0.6090528
0.6091213
0.6098464
8.787494
0.6812385
0.6094861
0.6084557
0.6081589
0.6081816
0.6082862
8.874988
0.6806015
0.6084967
0.607723
0.6075847
0.6076837
0.6076891
8.912759
0.6800847
0.6077394
0.6070368
0.6070102
0.6071715
0.6074502
8.931275
0.6797437
0.6071668
0.6065298
0.606571
0.6067085
0.6069154
8.934164
0.6792355
0.6068255
0.6062279
0.6062892
0.6064255
0.6066945
8.934399
0.6793541
0.6068477
0.6062544
0.6063208
0.6064643
0.6067499
8.931579
0.6800448
0.6071944
0.6065648
0.6066158
0.6067652
0.6069793
8.913077
0.6805596
0.607771
0.6070815
0.6070735
0.6072533
0.6075448
8.875519
0.6812993
0.60856
0.6078108
0.6077001
0.6078263
0.6078412
8.78814
0.6821142
0.6095796
0.6085811
0.6083071
0.6083345
0.6084469
8.546293
0.6804098
0.6105145
0.6094637
0.6091671
0.609259
0.6100054
8.455072
0.680371
0.611366
0.6104366
0.6101972
0.610445
0.6114246
8.392677
0.6810889
0.6124686
0.6116521
0.6115293
0.6119782
0.6125704
8.32647
0.681466
0.6136505
0.6130571
0.612877
0.6134858
0.6140929
8.255064
0.6812201
0.6148494
0.6142992
0.6143325
0.6149233
0.6161027
8.166382
0.6790887
0.6157597
0.6153984
0.6158007
0.6165003
0.6175854
7.986784
0.6769512
0.6163573
0.6165566
0.6170146
0.617806
0.6188298
7.878366
0.6761515
0.6167603
0.6173414
0.6182019
0.6188593
0.6200831
7.810549
0.6756983
0.6171947
0.6178765
0.6190382
0.6200485
0.6211737
7.749111
0.6750322
0.6175843
0.6183173
0.6195711
0.620975
0.6223068
7.678129
0.6732243
0.6177931
0.6186415
0.619961
0.6214537
0.6231588
7.535475
0.6712562
0.6179095
0.6188276
0.6202017
0.6217297
0.6236103
7.439016
0.6701248
0.6179483
0.6189107
0.6203107
0.6218852
0.623812
7.388642
0.6693505
0.6179722
0.6189496
0.6203714
0.622031
0.6238966
7.344499
0.6682982
0.6179828
0.6189831
0.6204388
0.6221146
0.6239788
7.300797
0.6673911
0.6179969
0.6190133
0.6205056
0.6221608
0.6240311
7.237693
0.6666114
0.6180077
0.6190633
0.6205525
0.6222093
0.6240725
7.190731
0.6659465
0.6180155
0.619095
0.6205895
0.6222413
0.6241053
7.154755
0.6654094
0.6180276
0.6191169
0.6206109
0.6222655
0.6241332
7.116393
0.6639454
0.6180207
0.6191428
0.6206295
0.6222857
0.6241578
7.077899
0.6628039
0.6180491
0.619156
0.6206439
0.6223039
0.6241828
6.964902
0.662052
0.6180601
0.619166
0.6206567
0.6223202
0.6242054
6.889513
0.6614113
0.6180576
0.6191746
0.6206683
0.6223345
0.624226
6.860783
0.6611715
0.6180612
0.6191823
0.6206788
0.6223499
0.6242756
6.838694
0.6609031
0.6180637
0.6191895
0.6206885
0.6223636
0.6243164
6.821431
0.6606722
0.6180665
0.6191962
0.6206974
0.6223752
0.6243307
6.805169
0.6604507
0.6180693
0.6192024
0.6207058
0.6223878
0.6243444
6.789678
0.6602415
0.6180715
0.6192081
0.6207148
0.6224198
0.6243751
6.77492
0.6600433
0.6180738
0.6192135
0.6207231
0.6224461
0.6244126
6.760849
0.6598561
0.618076
0.6192186
0.6207297
0.6224551
0.6244229
6.747501
0.6596787
0.6180778
0.6192233
0.6207373
0.6224632
0.6244312
6.734686
0.6595104
0.6180797
0.6192287
0.6207587
0.6224836
0.6244405
6.722538
0.6593515
0.6180815
0.6192335
0.6207761
0.6225085
0.6244495
6.710875
0.6592004
0.6180832
0.6192372
0.6207813
0.6225151
0.6244564
6.69983
0.6590578
0.6180845
0.6192408
0.6207858
0.6225202
0.6244629
6.689206
0.6589223
0.6180857
0.619245
0.6207905
0.6225252
0.6244692
6.679072
0.658794
0.6180873
0.6192582
0.6208031
0.6225305
0.6244754
6.669375
0.6586731
0.6180884
0.6192688
0.6208186
0.6225361
0.624481
6.660084
0.6585596
0.6180893
0.6192716
0.6208223
0.6225404
0.6244866
6.651186
0.6584539
0.6180898
0.6192737
0.620825
0.6225443
0.6244918
6.642682
0.6583565
0.6180902
0.6192756
0.6208277
0.6225481
0.6244969
6.634488
0.6582683
0.6180903
0.6192773
0.6208303
0.6225519
0.6245021
6.626655
0.6581914
0.6180903
0.6192789
0.620833
0.6225558
0.6245073
6.619131
0.6581305
0.6180907
0.619281
0.6208358
0.6225602
0.624513
6.611848
0.6580612
0.6180933
0.6192881
0.62084
0.6225653
0.6245213
6.604802
0.6580234
0.6180963
0.6192985
0.620846
0.6225735
0.62456
6.598133
0.6580458
0.6180996
0.6193048
0.6208549
0.6226093
0.6246028
6.591679
0.6581239
0.6181089
0.6193169
0.6208912
0.62265
0.6246469
6.585492
0.6583557
0.6181292
0.6193593
0.6209349
0.6226933
0.6246926
6.57947
0.6585249
0.6181779
0.6194165
0.6209847
0.622739
0.6247392
6.495683
0.6575215
0.6182602
0.6194976
0.6210432
0.6227868
0.6247861
0.6271382
0.6300964
0.63405
0.6378299
0.6445587
0.6552062
0.6850017
0.6270894
0.6300328
0.6339662
0.6377289
0.6444354
0.6550317
0.6839346
0.6270387
0.6299694
0.6338851
0.6390369
0.6443211
0.6548604
0.6832138
0.6269876
0.6299058
0.6338008
0.6375291
0.6441925
0.6546899
0.682562
0.6269378
0.6298424
0.6337193
0.6374236
0.6440708
0.65452
0.682035
0.6268885
0.6297791
0.6336368
0.637323
0.6439503
0.6543511
0.68152
0.62684
0.6297162
0.6335547
0.6372256
0.6439174
0.6541842
0.6810151
0.6267954
0.6296538
0.6334732
0.6371299
0.6438862
0.6540191
0.6805175
0.6267851
0.6295958
0.6333955
0.6370319
0.6437905
0.6538693
0.6800253
0.6267775
0.6295819
0.6333227
0.6369343
0.6436953
0.6537201
0.6795382
0.6267705
0.6295717
0.6333043
0.6368394
0.6436004
0.6535716
0.6790549
0.6267632
0.6295611
0.6332901
0.6368191
0.6435048
0.6534231
0.6785754
0.6267559
0.6295504
0.6332754
0.636801
0.6434886
0.6532718
0.6780984
0.6267482
0.6295393
0.6332601
0.636782
0.6434703
0.6532416
0.6776123
0.6267404
0.6295277
0.6332442
0.6367621
0.6434509
0.6532069
0.6775979
0.6267321
0.6295156
0.6332276
0.6367414
0.6434301
0.6531701
0.6774489
0.6267237
0.6295029
0.6332104
0.6367196
0.6434009
0.6531318
0.6773458
0.6267148
0.62949
0.6331922
0.6366868
0.6431098
0.6530916
0.6772182
0.6267055
0.6294773
0.6331736
0.6366629
0.6430722
0.653051
0.6770868
0.6266956
0.6294638
0.633154
0.636638
0.6430409
0.6530082
0.6768084
0.6266855
0.6294497
0.6331336
0.6366121
0.6430083
0.6529636
0.676417
0.6266745
0.6294347
0.6331122
0.6365848
0.6429743
0.6529165
0.6760441
0.6266631
0.6294189
0.6330887
0.6365577
0.6429334
0.6528672
0.6756551
0.6266483
0.6294022
0.6330668
0.6378348
0.6426676
0.6527909
0.6753189
0.6266332
0.6293845
0.6330385
0.6365061
0.6425217
0.6527289
0.6750603
0.6266194
0.6293662
0.6330138
0.6364605
0.642471
0.6526711
0.6747958
0.6266017
0.6293456
0.6329848
0.6364247
0.642418
0.6526014
0.6746027
0.6265436
0.6293218
0.6329569
0.6363865
0.642346
0.6520282
0.6744082
0.6264981
0.6285641
0.6319437
0.6363433
0.6422802
0.6518095
0.6742521
0.62648
0.6285371
0.6319064
0.6362998
0.6422201
0.6517261
0.6741335
0.6263934
0.6284468
0.6318745
0.6362552
0.6421571
0.6513363
0.673963
0.626331
0.6283581
0.6318396
0.6362072
0.6420891
0.6508756
0.6738228
0.626296
0.628239
0.6317893
0.6361557
0.6420171
0.6507563
0.6737354
0.6262618
0.6281865
0.6316422
0.6361005
0.6419403
0.6505818
0.6712928
0.626223
0.6281485
0.6315077
0.636033
0.6418582
0.6504409
0.6711379
0.6261793
0.6281108
0.631269
0.6359425
0.6417725
0.6503112
0.6673396
0.6261274
0.6280725
0.6311801
0.6356323
0.6416906
0.6501911
0.6685416
0.6260576
0.6280343
0.6311084
0.6354805
0.6415205
0.6503014
0.668154
0.6259683
0.627984
0.6310289
0.6351686
0.6410699
0.6502234
0.6650317
0.6257818
0.6279634
0.630753
0.6345695
0.6406369
0.6499555
0.6644726
0.6253334
0.6272562
0.6297984
0.634005
0.6400513
0.6490874
0.6654721
0.6240789
0.6256691
0.629052
0.6335984
0.6393416
0.6469936
0.6616082
0.6228891
0.6247238
0.627982
0.6323901
0.6380899
0.6449382
0.6582185
0.6221797
0.6239077
0.6273747
0.6313297
0.6367039
0.6440211
0.657602
0.620786
0.6229493
0.6261529
0.6305377
0.6352995
0.6431832
0.6586015
0.6193531
0.6220201
0.6252049
0.6284277
0.63448
0.6410904
0.6573135
0.6176012
0.6204358
0.6235173
0.6274493
0.6318059
0.6401683
0.6536219
0.6162803
0.6192504
0.622408
0.6253487
0.6306023
0.637354
0.6498241
0.614231
0.617872
0.620676
0.6237445
0.6286012
0.6361375
0.6476752
0.6127632
0.6157145
0.6189061
0.622615
0.6275529
0.6346158
0.6459481
0.6113887
0.6142188
0.6168656
0.6213089
0.6275091
0.6339493
0.6427053
0.6096621
0.6119527
0.6150067
0.6192002
0.625318
0.6326369
0.6416869
0.6085904
0.6103495
0.6136273
0.6176658
0.6230682
0.6299538
0.6391157
0.6078752
0.6097335
0.6125959
0.6166868
0.6210943
0.6277916
0.6368716
0.6074941
0.6092796
0.6118536
0.6162104
0.6207865
0.625525
0.6306629
0.6073583
0.6091983
0.6116914
0.6152581
0.6194934
0.6241649
0.6074136
0.6091778
0.6115478
0.6147645
0.6184472
0.6223699
0.6075673
0.6091502
0.6119419
0.6156827
0.6200802
0.6251014
0.6079793
0.6091788
0.6123599
0.616106
0.620652
0.625913
0.6333217
0.6087072
0.609453
0.612785
0.6171706
0.6215409
0.6286588
0.6408578
0.6097958
0.6102874
0.6142764
0.6189388
0.6245261
0.6310526
0.6411376
0.6115508
0.6124908
0.6169195
0.6203847
0.6266232
0.6337723
0.6419992
0.6129465
0.6135087
0.6183491
0.6222722
0.6276867
0.6345927
0.6441861
0.6144088
0.6161628
0.6200857
0.6234038
0.6287968
0.6350873
0.6468905
0.6164515
0.6181194
0.621363
0.6250491
0.6295826
0.6368342
0.64943
0.617791
0.6193526
0.623367
0.6260328
0.6316282
0.6386641
0.6522574
0.6193711
0.621377
0.6244081
0.6282449
0.6329702
0.6408399
0.6567983
0.6209482
0.6226405
0.6260418
0.6296046
0.635134
0.6421419
0.6586952
0.6219568
0.6239522
0.6273869
0.6313302
0.6363617
0.6439501
0.6582258
0.6229207
0.6247675
0.6277313
0.6322403
0.63749
0.6446148
0.658824
0.6239792
0.6255259
0.6285871
0.6331656
0.6389988
0.6463004
0.6597097
0.6252131
0.6268542
0.6295606
0.6336797
0.6399223
0.6480875
0.6637432
0.6257647
0.627751
0.6303561
0.63434
0.6403094
0.6497902
0.665646
0.6259539
0.6280252
0.6309661
0.6349271
0.6410484
0.6500913
0.6647325
0.6260504
0.6280721
0.6310595
0.6352107
0.641515
0.6504669
0.6659551
0.626123
0.6281142
0.6311452
0.6357598
0.6415951
0.6502366
0.6681437
0.6261767
0.6281389
0.6312293
0.6357688
0.6417264
0.6502495
0.6684289
0.6262214
0.6281625
0.6313493
0.635988
0.6418159
0.6503755
0.6709992
0.6262611
0.6281818
0.6315638
0.6360712
0.641901
0.6505158
0.671377
0.6262957
0.6282461
0.631762
0.6361294
0.6419807
0.6506833
0.6723687
0.626331
0.6283281
0.6318142
0.6361828
0.6420551
0.6508173
0.6738635
0.6263936
0.6283936
0.631858
0.6362326
0.6421248
0.6509672
0.6739366
0.6264807
0.6285291
0.6318916
0.6362789
0.6421908
0.6516789
0.6741256
0.6264986
0.6285696
0.6319235
0.6363215
0.6422522
0.6517719
0.6742504
0.626544
0.6293225
0.632958
0.6363677
0.6423129
0.6518592
0.6743654
0.6266021
0.6293464
0.6329858
0.6364075
0.6423873
0.6523826
0.674542
0.62662
0.6293669
0.6330144
0.6364434
0.6424472
0.6526447
0.6747323
0.6266338
0.6293853
0.633041
0.6364774
0.6424991
0.652704
0.674958
0.6266489
0.6294031
0.6330665
0.6365101
0.6425542
0.6527607
0.6751953
0.6266635
0.6294195
0.6330903
0.6365413
0.6428412
0.652836
0.6754979
0.6266749
0.6294353
0.633113
0.6365709
0.6429588
0.652896
0.6757889
0.6266858
0.6294503
0.6331345
0.6365989
0.6429937
0.652944
0.6761294
0.6266961
0.6294645
0.633155
0.6366258
0.6430274
0.6529898
0.6764887
0.6267061
0.629478
0.6331747
0.6366511
0.6430591
0.6530336
0.6768262
0.6267153
0.6294908
0.6331932
0.6366754
0.6430893
0.6530753
0.677151
0.6267242
0.6295036
0.6332114
0.6367049
0.643239
0.6531157
0.6773532
0.6267326
0.6295163
0.6332286
0.6367315
0.6434216
0.6531547
0.6774514
0.6267408
0.6295283
0.6332451
0.6367529
0.6434425
0.6531924
0.6775606
0.6267486
0.6295399
0.633261
0.6367734
0.6434627
0.6532282
0.6776435
0.6267561
0.6295508
0.6332762
0.636793
0.6434815
0.6532618
0.6779187
0.6267632
0.6295614
0.6332907
0.6368119
0.6434995
0.6533526
0.6783932
0.6267703
0.6295718
0.6333047
0.6368298
0.6435551
0.6535008
0.6788711
0.6267771
0.6295817
0.6333229
0.6368876
0.6436493
0.6536493
0.679352
0.6267842
0.6295953
0.6333954
0.6369851
0.6437444
0.653798
0.6798359
0.6267939
0.6296527
0.6334727
0.6370834
0.6438396
0.6539474
0.6803238
0.6268377
0.6297146
0.6335538
0.637182
0.643931
0.6541042
0.6808157
0.6268854
0.629777
0.6336355
0.6372757
0.6438951
0.6542703
0.681313
0.626934
0.6298399
0.6337176
0.6373757
0.6440116
0.6544378
0.6818175
0.6269832
0.6299033
0.6338002
0.6374758
0.6441321
0.6546067
0.6823312
0.6270343
0.6299673
0.6338832
0.6375766
0.6442532
0.6547763
0.6829006
0.6270859
0.6300311
0.6339663
0.6376771
0.644375
0.6549467
0.6835756
0.6271377
0.6300961
0.6340497
0.6377779
0.6444971
0.6551189
0.6849492
5.494526
5.812756
5.808866
5.808865
5.808865
5.808865
5.808865
5.808865
5.808865
5.808865
5.808865
5.808865
5.808865
5.808865
5.808865
5.808865
5.808865
5.808865
5.663402
5.810393
5.80887
5.80887
5.80887
5.80887
5.80887
5.80887
5.80887
5.80887
5.80887
5.80887
5.80887
5.80887
5.80887
5.80887
5.80887
5.80887
5.653394
5.810435
5.80887
5.80887
5.80887
5.80887
5.80887
5.80887
5.80887
5.80887
5.80887
5.80887
5.80887
5.80887
5.80887
5.80887
5.80887
5.80887
5.643122
5.810465
5.80887
5.80887
5.80887
5.80887
5.80887
5.80887
5.80887
5.80887
5.80887
5.80887
5.80887
5.80887
5.80887
5.80887
5.80887
5.80887
5.63159
5.810533
5.80887
5.80887
5.80887
5.80887
5.80887
5.80887
5.80887
5.80887
5.80887
5.80887
5.80887
5.80887
5.80887
5.80887
5.80887
5.80887
5.618649
5.810617
5.80887
5.80887
5.80887
5.80887
5.80887
5.80887
5.80887
5.80887
5.80887
5.80887
5.80887
5.80887
5.80887
5.80887
5.80887
5.80887
5.604348
5.810704
5.80887
5.80887
5.80887
5.80887
5.80887
5.80887
5.80887
5.80887
5.80887
5.80887
5.80887
5.80887
5.80887
5.80887
5.80887
5.80887
5.588778
5.810787
5.80887
5.80887
5.80887
5.80887
5.80887
5.80887
5.80887
5.80887
5.80887
5.80887
5.80887
5.80887
5.80887
5.80887
5.80887
5.80887
5.572025
5.810864
5.80887
5.80887
5.80887
5.80887
5.80887
5.80887
5.80887
5.80887
5.80887
5.80887
5.80887
5.80887
5.80887
5.80887
5.80887
5.80887
5.554187
5.810929
5.80887
5.80887
5.80887
5.80887
5.80887
5.80887
5.80887
5.80887
5.80887
5.80887
5.80887
5.80887
5.80887
5.80887
5.80887
5.80887
5.535345
5.81098
5.80887
5.80887
5.80887
5.80887
5.80887
5.80887
5.80887
5.80887
5.80887
5.80887
5.80887
5.80887
5.80887
5.80887
5.80887
5.80887
5.515558
5.811021
5.80887
5.80887
5.80887
5.80887
5.80887
5.80887
5.80887
5.80887
5.80887
5.80887
5.80887
5.80887
5.80887
5.80887
5.80887
5.80887
5.494854
5.811067
5.80887
5.80887
5.80887
5.80887
5.80887
5.80887
5.80887
5.80887
5.80887
5.80887
5.80887
5.80887
5.80887
5.80887
5.80887
5.80887
5.471908
5.8112
5.80887
5.80887
5.80887
5.80887
5.80887
5.80887
5.80887
5.80887
5.80887
5.80887
5.80887
5.80887
5.80887
5.80887
5.80887
5.80887
5.256504
5.81144
5.80887
5.80887
5.80887
5.80887
5.80887
5.80887
5.80887
5.80887
5.80887
5.80887
5.80887
5.80887
5.80887
5.80887
5.80887
5.80887
5.183228
5.81234
5.808858
5.80887
5.80887
5.80887
5.80887
5.80887
5.80887
5.80887
5.80887
5.80887
5.80887
5.80887
5.80887
5.80887
5.80887
5.80887
5.096693
5.811837
5.808906
5.808864
5.80887
5.80887
5.80887
5.80887
5.80887
5.80887
5.80887
5.80887
5.80887
5.80887
5.80887
5.80887
5.80887
5.80887
5.00639
5.812578
5.808885
5.808887
5.808867
5.80887
5.80887
5.80887
5.80887
5.80887
5.80887
5.80887
5.80887
5.80887
5.80887
5.80887
5.80887
5.80887
4.890624
5.81285
5.808871
5.808877
5.808881
5.808869
5.80887
5.80887
5.80887
5.80887
5.80887
5.80887
5.80887
5.80887
5.80887
5.80887
5.80887
5.80887
4.775668
5.812797
5.80887
5.80887
5.808871
5.808872
5.80887
5.80887
5.80887
5.80887
5.80887
5.80887
5.80887
5.80887
5.80887
5.80887
5.80887
5.80887
4.667023
5.812437
5.80887
5.80887
5.80887
5.808871
5.80887
5.80887
5.80887
5.80887
5.80887
5.80887
5.80887
5.80887
5.80887
5.80887
5.80887
5.80887
4.573704
5.812084
5.80887
5.80887
5.80887
5.80887
5.80887
5.80887
5.80887
5.80887
5.80887
5.80887
5.80887
5.80887
5.80887
5.80887
5.80887
5.80887
4.487169
5.811627
5.80887
5.80887
5.80887
5.80887
5.80887
5.80887
5.80887
5.80887
5.80887
5.80887
5.80887
5.80887
5.80887
5.80887
5.80887
5.80887
4.401052
5.811431
5.80887
5.80887
5.80887
5.80887
5.80887
5.80887
5.80887
5.80887
5.80887
5.80887
5.80887
5.80887
5.80887
5.80887
5.80887
5.80887
4.318346
5.811348
5.80887
5.80887
5.80887
5.80887
5.80887
5.80887
5.80887
5.80887
5.80887
5.80887
5.80887
5.80887
5.80887
5.80887
5.80887
5.80887
4.237374
5.811326
5.80887
5.80887
5.80887
5.80887
5.80887
5.80887
5.80887
5.80887
5.80887
5.80887
5.80887
5.80887
5.80887
5.80887
5.80887
5.80887
4.152226
5.81118
5.80887
5.80887
5.80887
5.80887
5.80887
5.80887
5.80887
5.80887
5.80887
5.80887
5.80887
5.80887
5.80887
5.80887
5.80887
5.80887
4.070183
5.811084
5.80887
5.80887
5.80887
5.80887
5.80887
5.80887
5.80887
5.80887
5.80887
5.80887
5.80887
5.80887
5.80887
5.80887
5.80887
5.80887
3.989586
5.811004
5.80887
5.80887
5.80887
5.80887
5.80887
5.80887
5.80887
5.80887
5.80887
5.80887
5.80887
5.80887
5.80887
5.80887
5.80887
5.80887
3.90806
5.810729
5.80887
5.808889
5.808886
5.80887
5.80887
5.80887
5.80887
5.80887
5.80887
5.80887
5.80887
5.80887
5.80887
5.80887
5.80887
5.80887
3.823493
5.810413
5.808871
5.810343
5.810068
5.808879
5.80887
5.808869
5.80887
5.80887
5.80887
5.80887
5.80887
5.80887
5.80887
5.80887
5.80887
5.80887
3.742755
5.810141
5.808872
5.810341
5.809528
5.808881
5.80887
5.808912
5.808914
5.80887
5.80887
5.80887
5.80887
5.80887
5.80887
5.80887
5.80887
5.80887
3.665295
5.810475
5.808866
5.808867
5.808636
5.808871
5.808871
5.808872
5.808871
5.80887
5.80887
5.80887
5.80887
5.80887
5.80887
5.80887
5.80887
5.80887
3.580785
5.80819
5.808928
5.811252
5.8115
5.808908
5.808872
5.808871
5.80887
5.80887
5.80887
5.80887
5.80887
5.80887
5.80887
5.80887
5.80887
5.80887
3.332535
5.819587
5.809266
5.817142
5.816242
5.815509
5.808875
5.80887
5.808889
5.808877
5.80887
5.80887
5.808871
5.80887
5.80887
5.80887
5.80887
5.80887
3.240078
5.811439
5.809633
5.808993
5.810912
5.809267
5.808889
5.808992
5.809064
5.808874
5.80887
5.80887
5.80887
5.80887
5.80887
5.80887
5.808871
5.80887
3.122784
5.854555
5.810486
5.808982
5.809006
5.808854
5.80896
5.809008
5.808966
5.808903
5.808872
5.808858
5.808882
5.80887
5.80887
5.808871
5.808871
5.80887
1.999025
5.864947
5.82211
5.811478
5.807411
5.807261
5.807816
5.808542
5.808907
5.808736
5.809082
5.809264
5.809009
5.80888
5.808863
5.808874
5.80887
5.80887
1.097369
5.880529
5.817997
5.807141
5.805506
5.805454
5.806291
5.80711
5.807854
5.807562
5.808301
5.809059
5.809218
5.809492
5.809272
5.808889
5.808868
5.80887
0.5404692
6.137198
5.836428
5.805896
5.80349
5.803909
5.804882
5.804324
5.80647
5.806407
5.807349
5.808656
5.808604
5.809378
5.810219
5.8097
5.809096
5.808856
0.4671878
5.901146
5.845911
5.801507
5.802102
5.802671
5.803656
5.803526
5.805319
5.805476
5.806603
5.807196
5.808015
5.80895
5.80911
5.809947
5.810236
5.809576
0.602196
5.787512
5.840656
5.801191
5.800607
5.802252
5.802685
5.802577
5.804405
5.804829
5.806172
5.805541
5.807663
5.809374
5.808689
5.809787
5.81032
5.810568
0.8151752
5.900573
5.829509
5.801026
5.800288
5.801444
5.802046
5.801968
5.803735
5.804512
5.805982
5.805711
5.807613
5.806873
5.808911
5.809796
5.81044
5.809794
0.8315305
5.965928
5.819316
5.799926
5.801096
5.799735
5.801735
5.801729
5.803355
5.804555
5.805236
5.806292
5.807809
5.807328
5.809121
5.810098
5.808975
5.81143
0.7902254
5.948499
5.897266
5.798568
5.799313
5.799951
5.801761
5.801869
5.803146
5.805152
5.804103
5.80679
5.806757
5.808247
5.809648
5.808252
5.811494
5.810006
0.7546491
5.83593
5.888176
5.8163
5.806109
5.800709
5.802143
5.80238
5.803513
5.805733
5.805018
5.807759
5.806401
5.809105
5.807992
5.811329
5.809381
5.81178
0.7019704
5.61994
6.086639
5.818042
5.8024
5.80285
5.802806
5.803896
5.804366
5.805499
5.807411
5.805939
5.80858
5.808089
5.810809
5.80886
5.812177
5.8105
0.6727073
4.720711
5.935027
5.81728
5.809106
5.805409
5.803722
5.80446
5.805392
5.804684
5.808261
5.806732
5.808676
5.810493
5.809573
5.812054
5.811132
5.812818
0.6729022
3.447838
6.060452
5.843461
5.853196
5.805116
5.804869
5.80576
5.80406
5.808335
5.806488
5.809597
5.810788
5.80944
5.811522
5.810846
5.812102
5.812214
0.675157
2.896553
6.019578
5.897688
5.865498
5.854952
5.808433
5.808337
5.80987
5.810613
5.810788
5.811397
5.811656
5.813381
0.6635023
0.9911726
5.825533
5.817171
5.811054
5.812818
5.811784
5.813205
5.812618
5.812501
0.6587378
5.84808
5.811485
5.812358
5.812862
5.812162
5.814036
5.814837
5.813182
5.810609
5.813191
5.813977
5.814866
5.815539
5.81785
5.813294
5.814422
5.81456
5.814998
5.886741
5.814299
5.815605
5.81623
5.816589
5.8195
5.814367
5.815355
5.81595
5.816376
5.812862
5.814812
5.815973
5.816792
5.817245
5.790496
5.815678
5.817648
5.817867
5.818301
5.845361
5.817615
5.818665
5.817978
5.817437
5.880027
5.816158
5.81884
5.817764
5.818804
5.818668
0.6557281
5.82888
5.818729
5.818782
5.817987
5.81893
5.819364
0.6646341
1.233001
5.852874
5.816464
5.818825
5.818409
5.819748
5.818849
5.818341
0.6737468
2.57795
5.760848
5.839315
5.851443
5.819526
5.823092
5.819559
5.819303
5.818793
5.820024
5.819478
0.6736507
3.229382
6.079028
5.855166
5.811494
5.811731
5.815472
5.819366
5.881947
5.831697
5.817297
5.81826
5.819656
5.821003
5.82008
5.82028
5.819154
5.818406
0.6790954
4.15553
6.111799
5.816148
5.816064
5.813917
5.814117
5.815219
5.817505
5.817957
5.819287
5.817459
5.819825
5.821535
5.820006
5.819438
5.819708
5.818456
0.7065567
5.377946
5.91214
5.817941
5.817142
5.818918
5.815281
5.816866
5.816836
5.817163
5.817822
5.819062
5.82047
5.818564
5.820323
5.820039
5.818425
5.817968
0.7429428
5.778849
6.087098
5.814041
5.815526
5.815321
5.81618
5.816233
5.817606
5.819376
5.817977
5.820784
5.818095
5.820641
5.818626
5.818413
5.818364
5.816473
0.8004546
5.942582
5.836372
5.88761
5.822163
5.815586
5.81674
5.816843
5.818315
5.819892
5.820432
5.818882
5.81986
5.818133
5.818149
5.818368
5.815968
5.81579
0.8298016
5.977536
5.862915
5.817679
5.815912
5.815726
5.816961
5.816921
5.818885
5.817496
5.820315
5.817963
5.819203
5.817243
5.819696
5.815876
5.816409
5.813642
0.8635824
6.059621
5.86506
5.815882
5.816861
5.815654
5.816853
5.816675
5.818572
5.817135
5.817071
5.817197
5.817098
5.816397
5.814826
5.814887
5.813143
5.812303
0.7874879
6.057016
5.868122
5.813994
5.817716
5.824459
5.816365
5.816114
5.817847
5.816173
5.817498
5.816103
5.815611
5.817033
5.813971
5.814913
5.811699
5.810751
0.5329093
5.996146
6.021701
5.816368
5.814713
5.816583
5.815615
5.81525
5.816687
5.815398
5.81646
5.814743
5.814206
5.813227
5.812584
5.810652
5.809986
5.808559
0.4564807
5.947787
5.856231
5.813394
5.813791
5.814513
5.814534
5.814109
5.815139
5.814033
5.814642
5.814149
5.812481
5.811584
5.811223
5.809301
5.808408
5.808344
0.7574118
6.097912
5.83618
5.812455
5.812805
5.813153
5.813191
5.813923
5.813287
5.812447
5.811344
5.810979
5.810598
5.809666
5.808615
5.808265
5.808682
5.808854
1.089252
6.174123
5.827989
5.812807
5.811939
5.811682
5.811605
5.811644
5.811219
5.810687
5.810038
5.809348
5.808716
5.808419
5.808607
5.808842
5.808866
5.80887
2.67594
5.898562
5.823396
5.811379
5.810547
5.810145
5.809872
5.809401
5.809063
5.808963
5.808685
5.808728
5.8088
5.80884
5.808864
5.80887
5.80887
5.80887
2.986526
5.814161
5.809579
5.809129
5.809117
5.808967
5.808899
5.808828
5.808821
5.808853
5.808854
5.808866
5.808871
5.808869
5.80887
5.80887
5.808877
5.80887
3.141769
5.819407
5.809378
5.808806
5.813814
5.808221
5.808897
5.809058
5.808971
5.808893
5.80887
5.80887
5.80887
5.80887
5.80887
5.80887
5.808879
5.80887
3.340758
5.963897
5.809772
5.828897
5.817167
5.814089
5.808876
5.808875
5.808891
5.80888
5.80887
5.80887
5.80887
5.80887
5.80887
5.80887
5.80887
5.80887
3.57742
5.843757
5.809292
5.81635
5.813981
5.808941
5.808872
5.808872
5.80887
5.80887
5.80887
5.80887
5.80887
5.80887
5.80887
5.80887
5.80887
5.80887
3.674231
5.813027
5.808895
5.809347
5.809111
5.808872
5.808871
5.808868
5.808863
5.80887
5.80887
5.80887
5.80887
5.80887
5.80887
5.80887
5.80887
5.80887
3.764249
5.813468
5.808873
5.811185
5.809774
5.808873
5.80887
5.808957
5.808939
5.80887
5.80887
5.80887
5.80887
5.80887
5.80887
5.80887
5.80887
5.80887
3.853658
5.813249
5.808872
5.809843
5.810293
5.808871
5.80887
5.808873
5.808871
5.80887
5.80887
5.80887
5.80887
5.80887
5.80887
5.80887
5.80887
5.80887
3.942129
5.812893
5.80887
5.808885
5.808892
5.80887
5.80887
5.80887
5.80887
5.80887
5.80887
5.80887
5.80887
5.80887
5.80887
5.80887
5.80887
5.80887
4.024792
5.812663
5.80887
5.80887
5.808871
5.80887
5.80887
5.80887
5.80887
5.80887
5.80887
5.80887
5.80887
5.80887
5.80887
5.80887
5.80887
5.80887
4.111934
5.812477
5.80887
5.80887
5.80887
5.80887
5.80887
5.80887
5.80887
5.80887
5.80887
5.80887
5.80887
5.80887
5.80887
5.80887
5.80887
5.80887
4.197035
5.812315
5.80887
5.80887
5.80887
5.80887
5.80887
5.80887
5.80887
5.80887
5.80887
5.80887
5.80887
5.80887
5.80887
5.80887
5.80887
5.80887
4.278648
5.811975
5.80887
5.80887
5.80887
5.80887
5.80887
5.80887
5.80887
5.80887
5.80887
5.80887
5.80887
5.80887
5.80887
5.80887
5.80887
5.80887
4.359921
5.812289
5.80887
5.80887
5.80887
5.80887
5.80887
5.80887
5.80887
5.80887
5.80887
5.80887
5.80887
5.80887
5.80887
5.80887
5.80887
5.80887
4.446766
5.812152
5.80887
5.80887
5.80887
5.80887
5.80887
5.80887
5.80887
5.80887
5.80887
5.80887
5.80887
5.80887
5.80887
5.80887
5.80887
5.80887
4.529793
5.81243
5.80887
5.80887
5.80887
5.80887
5.80887
5.80887
5.80887
5.80887
5.80887
5.80887
5.80887
5.80887
5.80887
5.80887
5.80887
5.80887
4.619097
5.812676
5.80887
5.80887
5.80887
5.80887
5.808871
5.80887
5.80887
5.80887
5.80887
5.80887
5.80887
5.80887
5.80887
5.80887
5.80887
5.80887
4.708331
5.812962
5.808871
5.80887
5.80887
5.808872
5.808872
5.80887
5.80887
5.80887
5.80887
5.80887
5.80887
5.80887
5.80887
5.80887
5.80887
5.80887
4.808216
5.812948
5.80887
5.80887
5.808874
5.808877
5.80887
5.80887
5.80887
5.80887
5.80887
5.80887
5.80887
5.80887
5.80887
5.80887
5.80887
5.80887
4.917335
5.812855
5.808871
5.808885
5.808895
5.80887
5.80887
5.80887
5.80887
5.80887
5.80887
5.80887
5.80887
5.80887
5.80887
5.80887
5.80887
5.80887
5.0248
5.812605
5.808898
5.808906
5.808872
5.80887
5.80887
5.80887
5.80887
5.80887
5.80887
5.80887
5.80887
5.80887
5.80887
5.80887
5.80887
5.80887
5.124419
5.812595
5.808931
5.808872
5.80887
5.80887
5.80887
5.80887
5.80887
5.80887
5.80887
5.80887
5.80887
5.80887
5.80887
5.80887
5.80887
5.80887
5.202893
5.811827
5.808873
5.80887
5.80887
5.80887
5.80887
5.80887
5.80887
5.80887
5.80887
5.80887
5.80887
5.80887
5.80887
5.80887
5.80887
5.80887
5.377622
5.810798
5.80887
5.80887
5.80887
5.80887
5.80887