/*--------------------------------*- C++ -*----------------------------------*\
| =========                 |                                                 |
| \\      /  F ield         | OpenFOAM: The Open Source CFD Toolbox           |
|  \\    /   O peration     | Version:  2206                                  |
|   \\  /    A nd           | Website:  www.openfoam.com                      |
|    \\/     M anipulation  |                                                 |
\*---------------------------------------------------------------------------*/
FoamFile
{
    version     2.0;
    format      ascii;
    arch        "LSB;label=32;scalar=64";
    class       volScalarField;
    location    "1";
    object      p_rbgh;
}
// * * * * * * * * * * * * * * * * * * * * * * * * * * * * * * * * * * * * * //

dimensions      [1 -1 -2 0 0 0 0];

internalField   nonuniform List<scalar> 
13078
(
-12.70298
-15.13358
-16.65431
-17.11052
-16.76224
-15.83229
-14.43303
-14.02403
-15.89474
-17.12449
-17.45193
-17.06431
-16.11109
-14.68981
-16.85404
-17.61361
-18.15695
-18.2036
-17.69138
-16.66296
-15.18113
-19.26283
-19.50517
-19.59841
-19.33766
-18.65028
-17.5035
-15.92197
-21.60224
-21.589
-21.38527
-20.85611
-19.95515
-18.64772
-16.92898
-24.14042
-23.9577
-23.52512
-22.76211
-21.63207
-20.12117
-18.2205
-26.98864
-26.67606
-26.0529
-25.07504
-23.70347
-21.95135
-19.82547
-30.22139
-29.79793
-29.01075
-27.80704
-26.18077
-24.17091
-21.7675
-33.90352
-33.37493
-32.41681
-30.98545
-29.09288
-26.79632
-24.08746
-38.10006
-37.46536
-36.33113
-34.65943
-32.47754
-29.86115
-26.80485
-42.88022
-42.13341
-40.81217
-38.88069
-36.38031
-33.40622
-29.95611
-48.31997
-47.45122
-45.92657
-43.70978
-40.85581
-37.48048
-33.58467
-54.50411
-53.50035
-51.75096
-49.21731
-45.96851
-42.14184
-37.7418
-61.52797
-60.37308
-58.37287
-55.48594
-51.79732
-47.458
-42.48745
-69.49932
-68.17415
-65.89344
-62.63771
-58.48932
-53.51212
-47.8916
-78.53985
-77.02259
-74.4295
-70.80208
-66.06854
-60.38918
-54.03524
-88.78706
-87.05183
-84.102
-79.9906
-74.62287
-68.19084
-61.01134
-100.3967
-98.41406
-95.06096
-90.3983
-84.31661
-77.03828
-68.92635
-113.5449
-111.2812
-107.4721
-102.1871
-95.30273
-87.07692
-77.90165
-128.4305
-125.8478
-121.5231
-115.5388
-107.8288
-98.62055
-88.08702
-145.2782
-142.3331
-137.4267
-130.6633
-122.1347
-111.6446
-99.62379
-164.3412
-160.9843
-155.4196
-147.7651
-138.1378
-126.2732
-112.6843
-185.9045
-182.0802
-175.772
-167.1124
-156.2335
-142.8329
-127.4982
-210.2892
-205.9347
-198.788
-188.9973
-176.7174
-161.7718
-144.644
-237.8557
-232.9008
-224.8106
-213.7514
-199.9206
-183.4778
-163.9617
-269.007
-263.3734
-254.2229
-241.74
-226.143
-207.6338
-185.5856
-304.1927
-297.7946
-287.4561
-273.3822
-255.811
-234.9615
-210.1052
-343.9134
-336.6639
-324.992
-309.1469
-289.3796
-265.9434
-238.3694
-388.7252
-380.5254
-367.3656
-349.5584
-327.3618
-301.1048
-271.031
-439.2803
-430.1389
-415.1915
-395.1993
-370.3129
-340.851
-307.1014
-496.3228
-485.9667
-469.1279
-446.7295
-418.895
-385.9096
-348.0761
-560.2714
-548.8381
-530.3465
-504.9715
-473.8515
-437.0494
-394.8539
-632.0206
-619.763
-599.4406
-571.4777
-536.0707
-495.0932
-448.0596
-712.2959
-698.7521
-677.2447
-646.0558
-606.4646
-561.0124
-508.793
-801.8614
-786.8899
-763.4338
-730.0166
-687.5237
-636.1611
-578.2596
-901.4426
-885.0178
-859.6607
-825.1893
-779.5292
-723.7655
-657.9782
-1011.674
-993.7997
-966.5616
-929.9461
-883.4028
-822.2545
-749.4523
-1133.07
-1113.803
-1084.854
-1046.148
-997.196
-933.8401
-857.7806
-1265.997
-1245.512
-1215.059
-1174.725
-1124.034
-1061.666
-979.9304
-1410.93
-1389.742
-1357.63
-1316.059
-1264.178
-1200.631
-1118.59
-1567.834
-1546.398
-1514.035
-1470.66
-1418.285
-1354.874
-1277.729
-1735.224
-1714.867
-1683.354
-1640.787
-1586.76
-1524.031
-1448.483
-1912.73
-1892.494
-1864.393
-1824.379
-1772.72
-1708.381
-1633.528
-2099.275
-2079.391
-2053.032
-2019.396
-1972.095
-1910.427
-1830.131
-2293.711
-2274.954
-2249.934
-2220.024
-2180.858
-2122.311
-2041.708
-2493.597
-2477.071
-2456.775
-2429.589
-2390.505
-2338.624
-2257.136
-2694.895
-2681.901
-2667.042
-2643.188
-2605.706
-2550.333
-2472.736
-2894.916
-2884.117
-2872.361
-2854.619
-2821.006
-2768.478
-2683.723
-3090.03
-3081.457
-3072.26
-3057.268
-3029.803
-2980.44
-2888.847
-3276.114
-3269.751
-3263.045
-3250.239
-3223.953
-3172.666
-3080.972
-3449.85
-3447.802
-3443.14
-3430.486
-3404.73
-3350.493
-3252.645
-3605.582
-3607.63
-3607.692
-3600.936
-3578.039
-3523.132
-3418.72
-3736.737
-3740.755
-3746.672
-3745.915
-3726.16
-3671.799
-3565.388
-3839.808
-3845.451
-3853.99
-3856.109
-3837.934
-3783.981
-3683.257
-3911.454
-3918.888
-3929.991
-3934.666
-3918.436
-3866.259
-3768.451
-3948.96
-3957.958
-3971.22
-3978.208
-3964.286
-3914.805
-3819.661
-3949.928
-3959.013
-3972.458
-3979.773
-3966.35
-3917.481
-3822.902
-3914.251
-3921.903
-3933.484
-3939.039
-3924.2
-3873.742
-3777.518
-3844.181
-3850.106
-3859.283
-3862.611
-3846.46
-3795.106
-3696.818
-3742.335
-3746.661
-3753.258
-3753.802
-3736.37
-3685.198
-3582.036
-3611.95
-3614.284
-3614.951
-3609.299
-3588.539
-3537.019
-3436.4
-3456.51
-3454.678
-3450.387
-3438.397
-3414.193
-3363.072
-3269.559
-3282.664
-3276.437
-3269.932
-3257.433
-3232.041
-3183.273
-3095.949
-3096.206
-3087.708
-3078.583
-3063.624
-3036.48
-2988.788
-2901.073
-2900.558
-2889.783
-2878.014
-2860.119
-2826.349
-2774.667
-2693.263
-2699.966
-2686.961
-2672.044
-2647.924
-2610.084
-2554.95
-2479.902
-2498.16
-2481.599
-2461.206
-2433.773
-2394.31
-2342.608
-2265.068
-2297.868
-2279.076
-2253.968
-2223.889
-2184.634
-2127.882
-2050.511
-2103.16
-2083.258
-2056.862
-2023.299
-1977.426
-1917.812
-1838.895
-1916.479
-1896.25
-1868.278
-1829.44
-1779.588
-1717.643
-1641.596
-1738.954
-1718.689
-1688.03
-1646.889
-1594.838
-1532.259
-1456.267
-1571.65
-1550.718
-1519.363
-1477.473
-1425.375
-1361.758
-1284.404
-1414.993
-1394.413
-1363.37
-1322.099
-1270.144
-1206.449
-1125.398
-1270.148
-1250.355
-1220.732
-1180.269
-1129.148
-1067.363
-986.6603
-1137.194
-1118.531
-1089.882
-1051.194
-1002.023
-939.2938
-864.1148
-1015.698
-998.1057
-970.9503
-934.2116
-886.6517
-826.4983
-755.1233
-905.3101
-889.0031
-863.5769
-829.2311
-783.2135
-727.1287
-662.9175
-805.4364
-790.5748
-767.09
-733.7895
-691.4475
-640.2071
-582.6055
-715.611
-702.0969
-680.6216
-649.5059
-610.0061
-564.6441
-512.5146
-635.0937
-622.8437
-602.5326
-574.5987
-539.2225
-498.2681
-451.2316
-563.0925
-551.6491
-533.151
-507.7698
-476.6391
-439.8099
-397.5553
-498.8905
-488.515
-471.6522
-449.2249
-421.3502
-388.3043
-350.3785
-441.5989
-432.4332
-417.4513
-397.4144
-372.4686
-342.9264
-309.0674
-390.8065
-382.579
-369.3788
-351.5176
-329.2506
-302.9028
-272.7123
-345.7726
-338.4944
-326.7788
-310.8749
-291.0319
-267.5001
-239.8035
-305.8472
-299.4204
-289.0374
-274.9031
-257.2548
-236.3096
-211.3315
-270.4751
-264.8139
-255.6196
-243.0771
-227.4043
-208.802
-186.6372
-239.1559
-234.175
-226.0429
-214.9264
-201.0232
-184.492
-164.8666
-211.4398
-207.0611
-199.8751
-190.0305
-177.6826
-162.6533
-145.4277
-186.9226
-183.0762
-176.7315
-168.0221
-157.0805
-143.6028
-128.1795
-165.243
-161.8661
-156.2679
-148.5675
-138.883
-126.9484
-113.2802
-146.0788
-143.1155
-138.1784
-131.373
-122.792
-112.2384
-100.1461
-129.1435
-126.5442
-122.1914
-116.1684
-108.4093
-99.14348
-88.5453
-114.1827
-111.904
-108.0689
-102.7482
-95.818
-87.53847
-78.30438
-100.9709
-98.97439
-95.59712
-90.90101
-84.77657
-77.4481
-69.28139
-89.30815
-87.55996
-84.58727
-80.44414
-75.03602
-68.55677
-61.32584
-79.01756
-77.48796
-74.87282
-71.21475
-66.44244
-60.71811
-54.31557
-69.94276
-68.60553
-66.30299
-63.0166
-58.8304
-53.80998
-48.14314
-61.94583
-60.77875
-58.75623
-55.83802
-52.11126
-47.72973
-42.71447
-54.90484
-53.88824
-52.11517
-49.5487
-46.26059
-42.3914
-37.94743
-48.71203
-47.82905
-46.27818
-44.02567
-41.12996
-37.71072
-33.77092
-43.27238
-42.50893
-41.15732
-39.1855
-36.63943
-33.61889
-30.12398
-38.50187
-37.84662
-36.67561
-34.9567
-32.72342
-30.05693
-26.95438
-34.32597
-33.77058
-32.76607
-31.27774
-29.32612
-26.97478
-24.2179
-30.67799
-30.21769
-29.36983
-28.09568
-26.40061
-24.3306
-21.87752
-27.49722
-27.1314
-26.42605
-25.35966
-23.90775
-22.08999
-19.91365
-24.72675
-24.46324
-23.91636
-23.04063
-21.81732
-20.23623
-18.28559
-22.30893
-22.16628
-21.79917
-21.1254
-20.11714
-18.73661
-16.97128
-20.17692
-20.19377
-20.04016
-19.59157
-18.78313
-17.56546
-15.94378
-18.22742
-18.48677
-18.62398
-18.42622
-17.78913
-16.69922
-15.18735
-16.20141
-16.96695
-17.54744
-17.60953
-17.1197
-16.12573
-14.68745
-13.74469
-15.63795
-16.83665
-17.15666
-16.77439
-15.83394
-14.43055
-12.6392
-10.51641
-8.137272
-6.200764
-3.581972
-0.9672192
1.530597
-12.87244
-10.72441
-8.321418
-6.325141
-3.680833
-1.050168
1.384858
-13.30555
-11.09675
-8.624436
-5.957047
-3.851508
-1.160171
1.335311
-13.95192
-11.64937
-9.088519
-6.904352
-4.095139
-1.300113
1.293002
-14.82548
-12.38723
-9.682465
-7.38024
-4.419353
-1.478828
1.244064
-15.94451
-13.33028
-10.44488
-7.974868
-4.82771
-1.701722
1.186571
-17.32841
-14.49599
-11.3866
-8.708174
-5.290839
-1.973713
1.11911
-19.00676
-15.9031
-12.52276
-9.594348
-5.850999
-2.30037
1.040019
-20.99623
-17.5801
-13.87111
-10.65171
-6.549919
-2.687896
0.9471188
-23.3446
-19.53419
-15.45737
-11.89457
-7.37086
-3.142906
0.8373319
-26.07332
-21.81901
-17.27691
-13.34453
-8.325757
-3.672195
0.7090131
-29.22012
-24.45691
-19.38826
-14.99273
-9.432914
-4.283211
0.5624919
-32.82938
-27.48509
-21.8133
-16.89178
-10.68035
-4.98891
0.3922525
-36.95313
-30.94694
-24.58622
-19.06512
-12.11296
-5.757439
0.1902973
-41.65202
-34.89329
-27.74701
-21.54264
-13.74179
-6.634323
0.004023184
-46.99681
-39.38377
-31.34331
-24.35948
-15.58355
-7.612059
-0.2070846
-53.06929
-44.48853
-35.43301
-27.55991
-17.67274
-8.672291
-0.3356706
-59.96348
-50.28903
-40.08676
-31.22652
-20.44042
-9.856604
-0.3205993
-67.78608
-56.87723
-45.38057
-35.38803
-23.23
-11.26582
-0.3787954
-76.65842
-64.35664
-51.40045
-40.13165
-26.43161
-12.97437
-0.8663347
-86.71734
-72.84366
-58.23958
-45.53041
-30.09189
-14.95168
-1.393716
-98.11793
-82.47116
-66.00552
-51.65995
-34.25261
-17.19624
-1.950313
-111.0371
-93.39117
-74.84224
-58.57034
-38.98444
-19.73938
-2.563193
-125.7002
-105.7643
-84.81147
-63.09717
-45.13038
-22.67532
-3.25986
-142.3092
-119.8147
-96.28698
-75.57294
-51.66953
-25.97462
-4.058977
-161.103
-135.6798
-109.0496
-85.76953
-58.84724
-29.72692
-4.976389
-182.4738
-153.6651
-123.5977
-97.33211
-66.9724
-34.01518
-6.028571
-207.5528
-174.0367
-140.1302
-110.483
-76.28307
-40.2505
-7.239621
-236.0805
-200.7682
-163.7758
-125.4637
-86.8977
-46.46344
-8.627235
-267.5387
-227.5934
-185.8807
-142.7163
-99.01426
-53.12886
-10.22403
-304.7212
-259.9463
-211.2177
-162.4082
-112.8784
-61.96779
-12.15527
-347.6248
-296.3287
-240.2396
-185.0084
-128.8279
-73.07329
-14.31256
-395.3581
-340.4875
-273.8789
-211.0913
-147.2135
-83.70017
-16.73758
-449.9954
-388.3302
-315.3979
-241.4059
-168.5682
-96.20779
-22.8912
-513.0064
-443.7117
-364.0417
-277.0335
-193.5818
-110.4333
-26.45701
-585.8559
-507.9663
-423.2723
-319.6517
-223.2932
-126.7677
-30.60104
-670.2984
-583.1142
-489.1183
-377.9665
-259.5364
-146.4478
-38.5179
-768.5818
-671.3659
-567.4186
-445.3773
-307.8538
-171.8777
-43.916
-882.7085
-775.1338
-661.7529
-532.8073
-374.5298
-208.7126
-57.04139
-1019.888
-896.8016
-775.1592
-633.3879
-456.5424
-254.7624
-78.81163
-1175.05
-1038.235
-908.9464
-752.5593
-560.6374
-312.2004
-97.7367
-1350.584
-1210.725
-1069.172
-894.8436
-673.5292
-400.5363
-124.6821
-1534.836
-1389.543
-1243.061
-1052.857
-797.2652
-507.8726
-182.2837
-1726.478
-1571.221
-1413.511
-1207.988
-932.3071
-612.9827
-271.0024
-1931.213
-1778.287
-1608.72
-1365.902
-1061.371
-688.0614
-326.4347
-2143.233
-1977.706
-1788.282
-1530.744
-1172.793
-768.9819
-350.2931
-2350.13
-2172.932
-1962.307
-1675.619
-1311.905
-850.7013
-349.3084
-2545.503
-2363.713
-2134.666
-1840.689
-1451.622
-978.3203
-443.3583
-2744.682
-2546.518
-2309.095
-2001.047
-1597.812
-1123.631
-583.3044
-2927.798
-2714.124
-2451.576
-2138.955
-1729.828
-1243.316
-707.5696
-3099.407
-2892.836
-2593.227
-2251.255
-1838.51
-1365.314
-785.3524
-3251.618
-3029.329
-2728.655
-2367.448
-1952.067
-1459.109
-885.3954
-3401.398
-3180.288
-2860.505
-2479.111
-2051.697
-1538.535
-996.4348
-3525.237
-3315.179
-2995.915
-2612.913
-2159.668
-1642.997
-1046.693
-3613.316
-3415.82
-3105.076
-2723.454
-2247.004
-1659.478
-1123.34
-3667.417
-3480.57
-3171.365
-2779.892
-2277.707
-1629.827
-3671.073
-3499.39
-3191.645
-2798.165
-2289.142
-1626.955
-3623.595
-3463.41
-3154.587
-2768.113
-2273.067
-1648.966
-3540.58
-3383.645
-3072.229
-2686.286
-2230.797
-1684.609
-1118.458
-3420.292
-3272.303
-2945.123
-2572.383
-2127.141
-1615.524
-1018.638
-3272.466
-3123.688
-2816.158
-2446.179
-2016.966
-1529.069
-973.1224
-3120.66
-2987.489
-2699.566
-2344.042
-1919.602
-1447.019
-872.897
-2947.999
-2829.455
-2543.701
-2222.882
-1816.134
-1332.473
-782.0566
-2762.533
-2652.301
-2416.522
-2106.95
-1702.558
-1220.812
-687.0984
-2562.613
-2482.756
-2253.921
-1958.105
-1562.82
-1082.404
-528.8866
-2363.359
-2284.904
-2081.24
-1793.392
-1423.43
-949.3359
-398.4314
-2156.367
-2097.125
-1901.566
-1636.005
-1276.906
-847.0709
-360.3232
-1944.201
-1891.094
-1718.225
-1480.078
-1151.812
-756.5302
-351.776
-1738.266
-1689.066
-1532.345
-1311.897
-1026.935
-677.883
-303.8748
-1540.896
-1492.03
-1347.928
-1157.237
-896.2475
-588.642
-227.6854
-1357.315
-1310.202
-1175.019
-995.4678
-762.2237
-478.9814
-172.1888
-1183.884
-1134.149
-1003.3
-839.4968
-641.2444
-387.7824
-141.676
-1028.375
-975.5182
-853.3854
-708.6284
-533.7064
-308.8829
-114.8958
-890.8622
-843.2398
-727.9613
-595.6169
-431.2803
-249.9474
-82.82995
-775.9707
-729.5948
-622.4582
-501.052
-347.712
-198.02
-53.71237
-676.7159
-632.5161
-534.4711
-416.7671
-289.0559
-162.8211
-40.61386
-591.2801
-549.7815
-460.8332
-353.9595
-245.1539
-138.7471
-36.68389
-517.5286
-479.1941
-397.5306
-301.5436
-211.0169
-120.2014
-28.44489
-453.7441
-418.7637
-342.7076
-261.5656
-182.9383
-104.4972
-25.09816
-398.468
-366.5616
-295.5203
-228.0525
-159.26
-90.69908
-20.10251
-350.2134
-319.4432
-258.7339
-199.4393
-139.058
-79.00967
-15.61996
-306.8781
-279.8853
-227.0395
-174.7937
-121.6529
-68.8027
-13.34458
-269.3465
-244.1322
-199.6031
-153.4233
-106.5687
-57.34519
-11.20608
-237.6057
-215.0489
-175.6559
-134.7813
-93.444
-50.0602
-9.469884
-208.8369
-175.1403
-141.0403
-118.4041
-81.98592
-43.73829
-7.963778
-183.5546
-154.5847
-124.3434
-104.2298
-71.91212
-37.09173
-6.652259
-162.0161
-136.4393
-109.6417
-91.79523
-63.16118
-31.98587
-5.509616
-143.0839
-120.4357
-96.68894
-80.85775
-55.49277
-27.95925
-4.515933
-126.3734
-106.3226
-85.27421
-71.22665
-48.73665
-24.41951
-3.651683
-111.6231
-93.8752
-75.21444
-62.74376
-42.04616
-21.27173
-2.897055
-98.63013
-82.89649
-66.34719
-55.27303
-36.74109
-18.51775
-2.238297
-87.16458
-73.213
-58.53104
-48.69126
-32.26218
-16.10412
-1.65424
-77.04811
-64.67445
-51.64442
-42.89467
-28.31692
-13.97017
-1.119644
-68.12532
-57.14923
-45.58224
-37.79609
-24.85179
-12.08982
-0.6228485
-60.25926
-50.52173
-40.25269
-33.32152
-21.82747
-10.46869
-0.2033846
-53.3284
-44.68892
-35.57146
-29.38677
-19.04809
-9.15646
-0.05407862
-47.2254
-39.55832
-31.46215
-25.95721
-16.60332
-8.086878
-0.2155653
-41.85512
-35.04697
-27.85135
-22.95002
-14.65282
-7.08933
-0.05556888
-37.13446
-31.08294
-24.6785
-20.30435
-12.92297
-6.172481
0.1343769
-32.99137
-27.60513
-21.89426
-17.97901
-11.39432
-5.353843
0.3199836
-29.36411
-24.56168
-19.45776
-15.94106
-10.05085
-4.618595
0.5013579
-26.19977
-21.9085
-17.33443
-14.16272
-8.871411
-3.961788
0.6590425
-23.45326
-19.60799
-15.50241
-12.60981
-7.839094
-3.390378
0.7959813
-21.08638
-17.63771
-13.90315
-11.25888
-6.946764
-2.896595
0.9139652
-19.07762
-15.94406
-12.54182
-10.10251
-6.18228
-2.473552
1.015001
-17.37929
-14.52048
-11.39318
-9.123518
-5.536456
-2.115006
1.100695
-15.97574
-13.33919
-10.44003
-8.310183
-5.05151
-1.815254
1.172852
-14.83877
-12.38261
-9.667364
-7.64266
-4.597818
-1.568854
1.233495
-13.95113
-11.63496
-9.061537
-7.112429
-4.2344
-1.371089
1.282891
-13.29721
-11.08196
-8.610283
-6.708689
-3.95473
-1.216158
1.322323
-12.8627
-10.71092
-8.303088
-6.422077
-3.751114
-1.095358
1.36218
-12.63494
-10.5113
-8.131844
-6.245841
-3.619173
-0.9998895
1.444148
2.24295
2.255511
2.259607
2.257075
2.248743
2.235222
2.217716
2.196661
2.172113
2.144224
2.113086
2.078816
2.041542
2.001398
1.958492
1.913021
1.865168
1.815066
2.280357
2.266048
2.263092
2.259226
2.250278
2.236638
2.218692
2.197592
2.172912
2.144974
2.113782
2.07945
2.042103
2.001879
1.958752
1.913035
1.865074
1.814864
2.291134
2.27416
2.27043
2.264791
2.254991
2.240953
2.223244
2.201689
2.176733
2.148645
2.117296
2.082787
2.045244
2.004808
1.961326
1.915223
1.867007
1.81654
2.301192
2.285419
2.280182
2.273426
2.262963
2.24846
2.231228
2.20882
2.183551
2.155246
2.123644
2.088843
2.050977
2.010193
1.966217
1.919586
1.870964
1.820088
2.313548
2.300757
2.291787
2.284926
2.274273
2.259536
2.24251
2.218794
2.193376
2.164815
2.132859
2.097644
2.059322
2.01805
1.973585
1.926131
1.876941
1.825501
2.330624
2.318204
2.306514
2.299514
2.288902
2.27426
2.256441
2.231871
2.206368
2.177434
2.144989
2.109224
2.070305
2.028398
1.983628
1.934878
1.884937
1.832772
2.352394
2.338371
2.324372
2.317281
2.306715
2.291853
2.273604
2.249066
2.222782
2.193188
2.160084
2.123622
2.083958
2.04126
1.995665
1.945789
1.894951
1.841893
2.379122
2.361741
2.345452
2.338393
2.32785
2.312435
2.293336
2.270908
2.242579
2.212079
2.178179
2.14088
2.100318
2.056667
2.010066
1.958893
1.906981
1.852852
2.410858
2.388168
2.370114
2.363184
2.352686
2.336955
2.317682
2.296376
2.265275
2.23406
2.199318
2.161054
2.119433
2.074654
2.026868
1.974198
1.921024
1.865637
2.444737
2.418415
2.399466
2.392074
2.381538
2.365588
2.345685
2.325566
2.290798
2.259284
2.223613
2.184222
2.14136
2.095263
2.046095
1.991714
1.937075
1.880231
2.479502
2.452653
2.433707
2.425205
2.414521
2.39816
2.377839
2.357409
2.320742
2.288304
2.251245
2.210479
2.166166
2.11854
2.067775
2.01145
1.95513
1.896615
2.52222
2.488579
2.470831
2.462442
2.45175
2.434784
2.413124
2.389764
2.358114
2.321341
2.282258
2.2399
2.193916
2.144535
2.091941
2.033414
1.975177
1.914763
2.567636
2.528341
2.510889
2.503941
2.493423
2.475875
2.453583
2.42716
2.399401
2.356849
2.316679
2.272564
2.224683
2.173301
2.118624
2.05761
1.997203
1.934641
2.614258
2.569781
2.554225
2.550024
2.539671
2.521529
2.498639
2.47048
2.438417
2.396346
2.354665
2.308598
2.258557
2.204899
2.147857
2.084039
2.021184
1.956207
2.662963
2.615036
2.603044
2.600716
2.590495
2.571797
2.547383
2.516958
2.483908
2.441078
2.396617
2.348156
2.295633
2.239388
2.179672
2.112698
2.047091
1.979409
2.719326
2.668828
2.652459
2.654168
2.645757
2.626902
2.60158
2.569498
2.532312
2.489177
2.442488
2.391333
2.336005
2.276834
2.214097
2.143574
2.074882
2.004177
2.792649
2.71683
2.701743
2.705568
2.704623
2.687225
2.660999
2.627779
2.586505
2.541584
2.492344
2.438273
2.379777
2.317297
2.251156
2.176643
2.104502
2.030428
2.855203
2.778175
2.757388
2.763418
2.765539
2.753057
2.725818
2.690691
2.646826
2.599228
2.546613
2.489189
2.427067
2.360842
2.290865
2.211869
2.135874
2.058054
2.959972
2.838547
2.83324
2.83729
2.834085
2.824231
2.796868
2.759245
2.712567
2.661928
2.605666
2.544216
2.477985
2.407523
2.333227
2.249195
2.168905
2.086925
3.07152
2.939722
2.925732
2.920276
2.915807
2.90337
2.87478
2.83409
2.784319
2.729743
2.669542
2.603549
2.532635
2.457381
2.378183
2.288537
2.203468
2.116878
3.192797
3.049067
3.025711
3.01512
3.007107
2.993186
2.960021
2.915643
2.86235
2.803478
2.738397
2.667312
2.591105
2.510434
2.422868
2.329642
2.239407
2.147713
3.316411
3.16303
3.132675
3.121043
3.110227
3.092353
3.055309
3.004958
2.946853
2.883248
2.812524
2.735707
2.653475
2.566709
2.471505
2.372572
2.276518
2.179194
3.461019
3.272653
3.249199
3.233794
3.224295
3.201227
3.160435
3.10434
3.038859
2.969358
2.892238
2.808881
2.71983
2.626177
2.523487
2.417137
2.314561
2.211031
3.615793
3.396313
3.374446
3.358022
3.347746
3.3215
3.275573
3.213341
3.140668
3.06229
2.977869
2.886975
2.790207
2.688785
2.57767
2.463027
2.353223
2.242855
3.778749
3.540897
3.513101
3.496831
3.483999
3.45383
3.401378
3.332286
3.251591
3.164637
3.069867
2.970177
2.864619
2.754429
2.633839
2.509928
2.392117
2.274227
3.959248
3.699418
3.664988
3.652157
3.632519
3.599651
3.539283
3.461879
3.371907
3.275594
3.170387
3.058827
2.943045
2.822701
2.688087
2.557446
2.430767
2.304618
4.159318
3.875167
3.832303
3.822035
3.80072
3.759158
3.690342
3.603126
3.50227
3.395104
3.27851
3.154639
3.025748
2.893686
2.741942
2.604992
2.468588
2.333398
4.377055
4.070307
4.017483
4.009993
3.986185
3.935983
3.856213
3.757118
3.643505
3.523672
3.39395
3.256671
3.113812
2.967462
2.800613
2.652045
2.504897
2.359839
4.609733
4.287028
4.226183
4.219076
4.193489
4.131285
4.038497
3.925129
3.79631
3.661713
3.516825
3.364153
3.206159
3.044257
2.859512
2.697813
2.53885
2.383042
4.862711
4.529761
4.460308
4.453301
4.423239
4.347221
4.239226
4.108663
3.962192
3.810213
3.647586
3.477209
3.301906
3.114054
2.918535
2.741577
2.569413
2.402272
5.140654
4.795781
4.723384
4.714407
4.675731
4.587017
4.45993
4.30897
4.141843
3.96924
3.785958
3.595218
3.400209
3.188657
2.976437
2.78307
2.596228
2.416657
5.448026
5.088041
5.019715
5.006906
4.955799
4.849981
4.703011
4.528422
4.340018
4.139097
3.931899
3.717692
3.500195
3.264906
3.031211
2.820238
2.617718
2.412265
5.788134
5.412649
5.354597
5.336094
5.266992
5.141387
4.970143
4.768254
4.550583
4.319829
4.084926
3.843736
3.599836
3.325171
3.080865
2.850603
2.630785
2.401861
6.163698
5.778305
5.731206
5.700174
5.620549
5.468039
5.26445
5.029198
4.776729
4.51133
4.244192
3.97203
3.698707
3.386217
3.123194
2.871915
2.63247
2.371623
6.661693
6.205996
6.147537
6.110345
6.019907
5.830747
5.589754
5.313192
5.021003
4.713002
4.408502
4.10078
3.793631
3.44511
3.155603
2.881523
2.600678
2.339142
7.169616
6.679412
6.620836
6.579474
6.45126
6.232851
5.951528
5.626169
5.287853
4.925088
4.576202
4.227715
3.855263
3.491596
3.1747
2.875184
2.561706
2.290808
7.746225
7.207934
7.167296
7.1118
6.932424
6.690113
6.349657
5.966071
5.566502
5.144484
4.744671
4.349522
3.928557
3.524391
3.176486
2.849435
2.493023
2.221932
8.696391
7.787449
7.788091
7.716202
7.492961
7.191794
6.784428
6.328323
5.859246
5.368628
4.91027
4.460036
3.948973
3.537326
3.156071
2.767569
2.414564
2.129034
9.851416
8.467794
8.508466
8.396351
8.132294
7.760168
7.262163
6.718409
6.165629
5.594158
5.068383
4.556745
3.978405
3.524346
3.105832
2.648022
2.308078
2.007829
11.21483
9.314051
9.356778
9.193576
8.857756
8.397071
7.787908
7.136725
6.48296
5.815978
5.212453
4.588529
3.977201
3.478117
2.9921
2.524843
2.167074
1.853769
13.47529
10.15484
10.35065
10.1194
9.686226
9.111982
8.364729
7.581952
6.806503
6.026668
5.333603
4.608015
3.936971
3.387554
2.821821
2.357804
1.985351
1.661881
12.54417
11.23774
11.53252
11.20059
10.63427
9.913155
8.996079
8.050544
7.128628
6.216178
5.416733
4.519825
3.84612
3.201166
2.592359
2.14152
1.756399
1.424974
12.57773
12.64341
12.90677
12.44771
11.71804
10.7637
9.681431
8.535246
7.437954
6.370106
5.4504
4.431308
3.689536
2.956833
2.33092
1.865636
1.470789
1.104584
14.30332
14.33684
14.52276
13.88436
12.95377
11.75535
10.41775
9.025276
7.718571
6.469492
5.302783
4.257237
3.441123
2.573258
1.995795
1.517602
1.079931
0.7430882
18.33958
16.37
16.32991
15.55322
14.36697
12.85663
11.19793
9.504296
7.907401
6.48243
5.097623
3.982318
2.983408
2.155762
1.566889
1.034804
0.6362629
0.3173045
19.08053
18.84457
18.5878
17.61175
15.98857
14.07589
12.01001
9.947725
8.001329
6.377842
4.699279
3.563053
2.368416
1.627409
0.9822041
0.4791813
0.09586336
-0.1931381
13.55478
22.60294
21.61657
19.98616
17.8548
15.54327
12.8364
10.32241
8.001963
6.008251
4.208199
2.861294
1.699306
0.9093884
0.2694309
-0.2125786
-0.5287337
-0.7503049
-35.8221
27.40581
25.18071
22.98144
20.07833
17.0543
13.65194
10.50692
7.80563
5.294442
3.41784
1.891469
0.7771411
-0.02645503
-0.6138834
-0.9788809
-1.248141
-1.389694
-92.23313
32.65075
29.68644
26.52214
23.00873
18.68341
14.39393
10.45922
7.050881
4.383122
2.287433
0.6480844
-0.4364883
-1.164279
-1.64223
-1.883805
-2.009968
-2.077749
-148.6376
38.21878
34.79904
30.94807
5.898841
2.859727
0.6320414
-0.9229959
-1.928481
-2.497142
-2.795671
-2.876041
-2.882669
-2.794512
-199.7076
41.78311
-1.628953
-3.003435
-3.687935
-3.991994
-4.057957
-3.956035
-3.771203
-3.554289
-264.6733
-5.312762
-5.760007
-5.721981
-5.410443
-5.076653
-4.667639
-4.25199
-8.073656
-7.445699
-6.760588
-6.104193
-5.480187
-4.93873
-9.042808
-7.986817
-7.040746
-6.212745
-5.505865
-10.46367
-8.96734
-7.756775
-6.768203
-5.928299
-11.26417
-9.576458
-8.197906
-7.088537
-6.17769
-11.40353
-9.700971
-8.285911
-7.155595
-6.229864
-10.95535
-9.307424
-8.012415
-6.944427
-6.065994
-9.692418
-8.509735
-7.413429
-6.504662
-5.723537
-8.878046
-8.228402
-7.344584
-6.585566
-5.846497
-5.21879
-375.1539
-6.930064
-6.510126
-6.070364
-5.563113
-5.051428
-4.578011
-259.1574
52.31948
-4.065451
-4.582707
-4.768141
-4.693575
-4.474999
-4.210056
-3.892758
-162.581
40.64458
38.3045
2.044782
-0.3276749
-1.864658
-2.695988
-3.163075
-3.366198
-3.36166
-3.287418
-3.14965
-140.3306
35.61543
32.26927
29.00777
24.57379
19.63438
14.86723
10.5705
6.821061
3.89165
1.57884
0.006822728
-1.075274
-1.743173
-2.155967
-2.332733
-2.410258
-2.408078
-65.31526
30.58093
27.47134
24.78611
21.68338
17.98234
14.18687
10.64318
7.696141
4.992948
3.003772
1.429617
0.2798466
-0.5136262
-1.057584
-1.378524
-1.601305
-1.70243
-0.2010043
24.99349
23.50025
21.49065
19.00586
16.38959
13.37484
10.60107
8.063285
5.856654
3.98183
2.457971
1.365479
0.5267179
-0.1078589
-0.557667
-0.846414
-1.036821
17.47433
20.5511
20.21428
18.85427
16.99508
14.91104
12.5389
10.264
8.134635
6.318964
4.575145
3.326327
2.123215
1.366398
0.701939
0.1865963
-0.193263
-0.426846
19.76501
17.67457
17.69613
16.66066
15.2701
13.56068
11.71069
9.839992
8.054941
6.541354
4.962438
3.866787
2.780783
1.963413
1.328962
0.7974557
0.4291333
0.09769288
17.61761
15.41305
15.56252
14.82881
13.75207
12.40049
10.90762
9.367953
7.934067
6.578659
5.317022
4.205208
3.279133
2.432116
1.841292
1.32771
0.890488
0.5768247
13.99908
13.57377
13.81891
13.29338
12.42201
11.35064
10.1434
8.875135
7.671686
6.509634
5.456414
4.424737
3.637488
2.843162
2.218976
1.741465
1.31867
0.9522727
12.04782
12.07559
12.31204
11.96178
11.2651
10.42711
9.428172
8.380836
7.368965
6.375473
5.513228
4.546604
3.834216
3.127781
2.513225
2.050595
1.65644
1.302637
12.83965
10.81035
11.02726
10.7968
10.25325
9.599447
8.765407
7.898377
7.046299
6.197586
5.446943
4.642359
3.954079
3.370584
2.742442
2.295518
1.912242
1.5811
13.43274
9.808753
9.953803
9.773044
9.364714
8.836895
8.155224
7.43609
6.718057
5.992463
5.340724
4.656916
4.015581
3.488344
2.957224
2.485459
2.117362
1.794893
11.03251
8.97165
9.025795
8.894976
8.584394
8.157294
7.59831
6.999764
6.39322
5.771846
5.204268
4.640133
4.034671
3.55374
3.111308
2.630459
2.278522
1.967999
9.804209
8.194133
8.238713
8.141426
7.898461
7.55183
7.09084
6.590747
6.077132
5.544506
5.05012
4.566657
4.01733
3.581683
3.178141
2.757565
2.402002
2.105597
8.276031
7.566272
7.566658
7.487329
7.29398
7.01172
6.630438
6.210812
5.774315
5.316832
4.885798
4.460298
3.99609
3.580421
3.212718
2.849376
2.494563
2.212632
7.566934
7.00607
6.980031
6.91663
6.760943
6.529248
6.212446
5.858936
5.487222
5.093113
4.716561
4.34244
3.942963
3.556007
3.220925
2.905218
2.55954
2.293344
7.023199
6.503945
6.462472
6.415954
6.290618
6.097931
5.833151
5.526506
5.212905
4.875811
4.546536
4.216211
3.873406
3.515529
3.209379
2.920504
2.624349
2.351463
6.436869
6.042699
6.010993
5.978972
5.878662
5.712993
5.489443
5.228951
4.954117
4.666951
4.378767
4.086764
3.794614
3.461109
3.182489
2.917433
2.653287
2.391651
6.004779
5.632393
5.617482
5.59095
5.505776
5.367207
5.177824
4.9556
4.718522
4.46859
4.215385
3.956707
3.695821
3.397461
3.144005
2.90105
2.669431
2.420918
5.638698
5.282056
5.260476
5.242381
5.172392
5.055743
4.89484
4.70451
4.499182
4.280941
4.057789
3.828098
3.595435
3.340627
3.096934
2.874234
2.661215
2.442073
5.311259
4.970156
4.941084
4.930163
4.874343
4.774851
4.637636
4.473754
4.292483
4.104176
3.9069
3.702444
3.494174
3.268779
3.043596
2.839467
2.642872
2.450061
5.016398
4.690138
4.657852
4.651112
4.608867
4.521229
4.40372
4.262053
4.102795
3.93827
3.7633
3.580811
3.393718
3.190659
2.986055
2.798954
2.617439
2.442725
4.749598
4.437268
4.406277
4.402101
4.367188
4.292229
4.190961
4.067908
3.92843
3.782967
3.627271
3.463905
3.295422
3.120204
2.926484
2.755358
2.5882
2.424928
4.507586
4.209211
4.181622
4.178204
4.150168
4.085254
3.99743
3.889904
3.767131
3.637953
3.498894
3.352176
3.200041
3.044066
2.866373
2.7097
2.555004
2.402939
4.287709
4.00367
3.980278
3.977186
3.953923
3.898067
3.82129
3.726697
3.618033
3.502801
3.378117
3.245902
3.10824
2.967501
2.806598
2.662256
2.518918
2.377254
4.0874
3.818301
3.799572
3.796468
3.776385
3.728417
3.660813
3.577028
3.480305
3.377036
3.264785
3.145336
3.021593
2.893954
2.747347
2.613907
2.480881
2.348738
3.90465
3.651702
3.636942
3.633495
3.615753
3.574207
3.514478
3.43975
3.353147
3.260152
3.158666
3.051661
2.939882
2.823308
2.695699
2.565322
2.441657
2.318232
3.738905
3.501062
3.489785
3.486176
3.470186
3.433882
3.380913
3.313798
3.235796
3.151642
3.061062
2.964628
2.86218
2.755028
2.63775
2.517046
2.401883
2.286409
3.582255
3.368601
3.357796
3.352882
3.338039
3.306091
3.258871
3.198196
3.12753
3.052572
2.971084
2.882676
2.788528
2.689699
2.581437
2.46958
2.362092
2.253856
3.436389
3.251358
3.238148
3.231679
3.217754
3.189607
3.147235
3.092063
3.02922
2.961872
2.887069
2.80577
2.718928
2.627469
2.527219
2.423276
2.322714
2.221053
3.299515
3.145201
3.127494
3.120669
3.108025
3.083423
3.04508
2.996088
2.939692
2.877723
2.808819
2.733749
2.653342
2.568414
2.475322
2.378415
2.284102
2.188409
3.174054
3.039693
3.024226
3.018753
3.008135
2.986885
2.952961
2.909038