/*--------------------------------*- C++ -*----------------------------------*\
| =========                 |                                                 |
| \\      /  F ield         | OpenFOAM: The Open Source CFD Toolbox           |
|  \\    /   O peration     | Version:  2206                                  |
|   \\  /    A nd           | Website:  www.openfoam.com                      |
|    \\/     M anipulation  |                                                 |
\*---------------------------------------------------------------------------*/
FoamFile
{
    version     2.0;
    format      ascii;
    arch        "LSB;label=32;scalar=64";
    class       surfaceScalarField;
    location    "1";
    object      phi.a;
}
// * * * * * * * * * * * * * * * * * * * * * * * * * * * * * * * * * * * * * //

dimensions      [0 3 -1 0 0 0 0];

oriented        oriented;

internalField   nonuniform List<scalar> 
26037
(
-8.479668e-11
-2.148324e-11
-5.731688e-11
-1.132486e-11
-3.99619e-11
-4.764642e-12
-2.861808e-11
-2.183452e-12
-2.148283e-11
-1.184509e-12
-1.632951e-11
-7.104566e-13
-4.528376e-13
-1.219443e-11
-5.25553e-11
-2.860414e-11
-4.497686e-11
-1.940318e-11
-3.438193e-11
-9.337185e-12
-2.64418e-11
-4.902633e-12
-2.051165e-11
-2.896532e-12
-1.582456e-11
-1.843343e-12
-1.235741e-12
-1.190331e-11
-2.25149e-11
-1.075562e-11
-2.816277e-11
-1.147323e-11
-2.566185e-11
-8.84614e-12
-2.191056e-11
-5.336104e-12
-1.798739e-11
-3.600013e-12
-1.43214e-11
-2.499204e-12
-1.77933e-12
-1.094979e-11
-1.175697e-11
-3.640296e-12
-1.742196e-11
-6.157659e-12
-1.881191e-11
-6.259249e-12
-1.712925e-11
-5.119872e-12
-1.490405e-11
-3.564814e-12
-1.228423e-11
-2.713218e-12
-2.062786e-12
-9.560929e-12
-7.061912e-12
-1.496826e-12
-1.127418e-11
-3.418764e-12
-1.327377e-11
-4.244418e-12
-1.339453e-11
-4.01956e-12
-1.190451e-11
-3.534882e-12
-1.01182e-11
-2.649182e-12
-2.148069e-12
-7.978752e-12
-4.729411e-12
-7.462401e-13
-7.693444e-12
-2.042002e-12
-9.505031e-12
-2.916635e-12
-1.002501e-11
-3.109373e-12
-9.541832e-12
-2.991577e-12
-8.065791e-12
-2.696057e-12
-2.119212e-12
-6.38581e-12
-3.436554e-12
-4.400564e-13
-5.507762e-12
-1.334169e-12
-7.014933e-12
-2.03448e-12
-7.4961e-12
-2.531344e-12
-7.267224e-12
-2.54469e-12
-6.400201e-12
-2.42633e-12
-2.182832e-12
-4.886833e-12
-2.649962e-12
-2.979763e-13
-4.092967e-12
-9.649067e-13
-5.145651e-12
-1.574277e-12
-5.601684e-12
-2.093084e-12
-5.44643e-12
-2.217966e-12
-4.747392e-12
-2.21214e-12
-2.065256e-12
-3.601477e-12
-2.132931e-12
-2.263542e-13
-3.133968e-12
-7.706666e-13
-3.875354e-12
-1.319574e-12
-4.179151e-12
-1.826403e-12
-3.997964e-12
-2.014258e-12
-3.360169e-12
-2.074975e-12
-1.98963e-12
-2.328114e-12
-1.770432e-12
-1.897212e-13
-2.447348e-12
-6.753476e-13
-2.938912e-12
-1.195032e-12
-3.083068e-12
-1.692658e-12
-2.83439e-12
-1.917809e-12
-2.199959e-12
-2.017761e-12
-1.969386e-12
-1.218322e-12
-1.501213e-12
-1.727006e-13
-1.930802e-12
-6.402863e-13
-2.218462e-12
-1.157607e-12
-2.214734e-12
-1.65827e-12
-1.883057e-12
-1.911127e-12
-1.220555e-12
-2.036055e-12
-2.008655e-12
-2.523019e-13
-1.290744e-12
-1.679154e-13
-1.523332e-12
-6.450456e-13
-1.641282e-12
-1.182092e-12
-1.50444e-12
-1.700597e-12
-1.086376e-12
-1.980113e-12
-3.800737e-13
-2.123546e-12
-2.107471e-12
5.967677e-13
-1.117229e-12
-1.714888e-13
-1.186288e-12
-6.786148e-13
-1.159246e-12
-1.253777e-12
-9.026637e-13
-1.804737e-12
-3.999339e-13
-2.114379e-12
3.572844e-13
-2.274424e-12
-2.26431e-12
1.355065e-12
-9.671909e-13
-1.813211e-13
-8.942189e-13
-7.351221e-13
-7.392492e-13
-1.363748e-12
-3.770808e-13
-1.953474e-12
2.103272e-13
-2.303832e-12
1.021282e-12
-2.483197e-12
-2.477668e-12
2.046479e-12
-8.310752e-13
-1.963025e-13
-6.294333e-13
-8.118258e-13
-3.589397e-13
-1.508469e-12
5.730436e-14
-2.113851e-12
7.686047e-13
-2.593969e-12
1.636767e-12
-2.754933e-12
-2.748113e-12
2.692156e-12
-7.022861e-13
-2.157283e-13
-3.791153e-13
-9.070625e-13
5.014945e-15
-1.688988e-12
5.517537e-13
-2.364631e-12
1.305889e-12
-2.903636e-12
2.224405e-12
-3.082889e-12
-3.076606e-12
3.311178e-12
-5.757597e-13
-2.392932e-13
-1.337772e-13
-1.019879e-12
3.592411e-13
-1.900664e-12
1.001684e-12
-2.659922e-12
1.830194e-12
-3.262768e-12
2.802085e-12
-3.469046e-12
-3.464248e-12
3.920674e-12
-4.477332e-13
-2.670076e-13
1.141032e-13
-1.150922e-12
7.1648e-13
-2.145788e-12
1.452682e-12
-3.002196e-12
2.358664e-12
-3.679547e-12
3.384756e-12
-3.916428e-12
-3.913227e-12
4.535596e-12
-3.149654e-13
-2.99043e-13
3.707353e-13
-1.301243e-12
1.085827e-12
-2.426656e-12
1.917979e-12
-3.393669e-12
2.896449e-12
-4.144606e-12
3.983897e-12
-4.425602e-12
-4.425224e-12
5.168341e-12
-1.748258e-13
-3.355985e-13
6.412295e-13
-1.47249e-12
1.474741e-12
-2.746776e-12
2.40369e-12
-3.837816e-12
3.378694e-12
-4.608209e-12
4.603607e-12
-5.080117e-12
-5.015241e-12
5.828417e-12
-2.482829e-14
-3.770586e-13
9.300321e-13
-1.666543e-12
1.889328e-12
-3.109191e-12
2.929202e-12
-4.344839e-12
4.036262e-12
-5.211803e-12
5.269905e-12
-5.758611e-12
-5.676402e-12
6.523498e-12
1.369408e-13
-4.239922e-13
1.241083e-12
-1.885584e-12
2.334248e-12
-3.517059e-12
3.486293e-12
-4.912793e-12
4.681624e-12
-5.889027e-12
5.971332e-12
-6.507761e-12
-6.41268e-12
7.256923e-12
3.128097e-13
-4.772348e-13
1.578486e-12
-2.133013e-12
2.815273e-12
-3.976616e-12
4.085302e-12
-5.550936e-12
5.367385e-12
-6.647446e-12
6.704283e-12
-7.325361e-12
-7.231147e-12
8.030045e-12
5.057012e-13
-5.381036e-13
1.947594e-12
-2.413855e-12
3.339568e-12
-4.496421e-12
4.735735e-12
-6.271096e-12
6.101466e-12
-7.495859e-12
7.348579e-12
-8.116986e-12
-8.269784e-12
8.838165e-12
7.192518e-13
-6.085166e-13
2.355426e-12
-2.734764e-12
3.917127e-12
-5.087492e-12
5.450022e-12
-7.086967e-12
6.921969e-12
-8.461705e-12
8.311669e-12
-9.143743e-12
-9.330734e-12
9.733269e-12
9.585043e-13
-6.913019e-13
2.811503e-12
-3.104891e-12
4.561052e-12
-5.764593e-12
6.242101e-12
-8.016584e-12
7.817339e-12
-9.555424e-12
9.269035e-12
-1.030601e-11
-1.051139e-11
1.070456e-11
1.23004e-12
-7.904246e-13
3.328836e-12
-3.536804e-12
5.29041e-12
-6.549078e-12
7.137437e-12
-9.088724e-12
8.827124e-12
-1.081328e-11
1.03427e-11
-1.164179e-11
-1.185067e-11
1.179126e-11
1.541251e-12
-9.1111e-13
3.924161e-12
-4.04874e-12
6.129603e-12
-7.468846e-12
8.169184e-12
-1.034094e-11
9.996321e-12
-1.228077e-11
1.158875e-11
-1.319215e-11
-1.320918e-11
1.28762e-11
1.903794e-12
-1.057348e-12
4.617138e-12
-4.652964e-12
7.108098e-12
-8.557391e-12
9.375577e-12
-1.181833e-11
1.137207e-11
-1.400944e-11
1.311361e-11
-1.503329e-11
-1.505112e-11
1.472801e-11
2.307693e-12
-1.235055e-12
5.424432e-12
-5.400244e-12
8.258219e-12
-9.868031e-12
1.079801e-11
-1.357842e-11
1.299251e-11
-1.606191e-11
1.486707e-11
-1.72096e-11
-1.720989e-11
1.658311e-11
2.797925e-12
-1.473149e-12
6.374979e-12
-6.296267e-12
9.615662e-12
-1.143456e-11
1.248616e-11
-1.568922e-11
1.492681e-11
-1.852176e-11
1.696703e-11
-1.98178e-11
-1.977643e-11
1.876721e-11
3.374946e-12
-1.786665e-12
7.394681e-12
-7.36561e-12
1.118563e-11
-1.341007e-11
1.449249e-11
-1.826035e-11
1.724509e-11
-2.148752e-11
1.950492e-11
-2.29635e-11
-2.290363e-11
2.148831e-11
4.056367e-12
-2.19879e-12
8.72889e-12
-8.767242e-12
1.285991e-11
-1.562541e-11
1.685223e-11
-2.162113e-11
2.002018e-11
-2.512338e-11
2.256653e-11
-2.676453e-11
-2.667199e-11
2.476199e-11
4.85559e-12
-2.737116e-12
1.028679e-11
-1.055587e-11
1.520859e-11
-1.853956e-11
1.968012e-11
-2.548721e-11
2.333849e-11
-2.95201e-11
2.625244e-11
-3.134742e-11
-3.120041e-11
2.871821e-11
5.793199e-12
-3.44063e-12
1.211098e-11
-1.281216e-11
1.783904e-11
-2.21826e-11
2.252655e-11
-2.982159e-11
2.719717e-11
-3.531776e-11
3.068834e-11
-3.697223e-11
-3.66054e-11
3.350875e-11
6.898098e-12
-4.361533e-12
1.426275e-11
-1.565699e-11
2.099215e-11
-2.669606e-11
2.684158e-11
-3.547091e-11
3.128345e-11
-4.122743e-11
3.600032e-11
-4.433701e-11
-4.30289e-11
3.93354e-11
8.207216e-12
-5.566866e-12
1.680116e-11
-1.923164e-11
2.467931e-11
-3.221309e-11
3.165487e-11
-4.231239e-11
3.747888e-11
-4.869931e-11
4.250092e-11
-5.208447e-11
-5.024818e-11
4.6482e-11
9.77484e-12
-7.13994e-12
1.980792e-11
-2.370033e-11
2.90038e-11
-3.888726e-11
3.720901e-11
-5.032556e-11
4.417779e-11
-5.720418e-11
4.930772e-11
-5.960911e-11
-5.849018e-11
5.526173e-11
1.165943e-11
-9.132058e-12
2.338829e-11
-2.920429e-11
3.406884e-11
-4.684281e-11
4.366323e-11
-5.944253e-11
5.209519e-11
-6.644709e-11
5.912517e-11
-6.791299e-11
-6.483628e-11
6.601505e-11
1.385759e-11
-1.175334e-11
2.761554e-11
-3.622725e-11
3.997033e-11
-5.618918e-11
5.10311e-11
-6.930321e-11
6.087103e-11
-7.564521e-11
6.937915e-11
-7.510606e-11
-6.793076e-11
7.860525e-11
1.698739e-11
-1.547112e-11
3.262193e-11
-4.465217e-11
4.676618e-11
-6.670289e-11
5.931643e-11
-7.908159e-11
7.068565e-11
-8.352679e-11
8.161667e-11
-7.963967e-11
-6.548403e-11
1.049582e-10
2.108814e-11
-2.047229e-11
3.908038e-11
-5.400036e-11
5.385624e-11
-7.590795e-11
6.831449e-11
-8.757979e-11
8.177135e-11
-8.864221e-11
1.186965e-10
-7.811772e-11
-4.533783e-11
2.484222e-10
2.59891e-11
-2.619744e-11
4.619886e-11
-6.240284e-11
6.254742e-11
-8.328901e-11
7.807312e-11
-9.239793e-11
1.181244e-10
-8.673908e-11
2.767135e-10
-6.131094e-11
8.06135e-12
6.11796e-10
3.164106e-11
-3.118775e-11
5.399049e-11
-6.789387e-11
7.186129e-11
-8.726459e-11
1.066046e-10
-9.340053e-11
2.69163e-10
-8.025828e-11
6.256384e-10
9.178342e-12
1.062659e-10
1.202885e-09
3.803719e-11
-3.385086e-11
6.262948e-11
-6.923484e-11
9.026717e-11
-8.663389e-11
2.26012e-10
-8.641534e-11
5.673016e-10
-6.236286e-11
1.227283e-09
2.149928e-11
3.820384e-10
2.001874e-09
4.463873e-11
-3.316253e-11
7.240187e-11
-6.719505e-11
1.638988e-10
-8.13506e-11
4.808183e-10
-5.512806e-11
1.02116e-09
-2.395535e-11
1.829725e-09
7.397227e-11
3.275888e-10
3.235304e-09
5.143167e-11
-2.919212e-11
1.084419e-10
-5.985248e-11
3.343943e-10
-6.948894e-11
8.625291e-10
-5.188208e-11
1.592596e-09
9.553516e-11
2.632207e-09
1.667311e-10
4.607216e-10
3.992393e-09
5.953287e-11
-2.294771e-11
2.130148e-10
-4.724288e-11
6.064965e-10
-5.000913e-11
1.257784e-09
-2.71615e-11
2.372643e-09
5.042395e-11
3.79091e-09
2.25379e-10
1.02258e-09
5.182763e-09
9.099058e-11
-1.525315e-11
3.813623e-10
-3.052101e-11
9.331856e-10
-2.419442e-11
1.756169e-09
1.206414e-11
2.900638e-09
1.071547e-10
4.407611e-09
3.168155e-10
7.386655e-10
6.903595e-09
1.584243e-10
-7.582231e-12
5.796045e-10
-1.258817e-11
1.275586e-09
8.520536e-12
2.271595e-09
5.966271e-11
3.621049e-09
1.896501e-10
5.348888e-09
4.487121e-10
8.111861e-10
7.486249e-09
2.73844e-10
-4.810172e-12
8.454335e-10
-8.515229e-12
1.61633e-09
9.771102e-11
2.786692e-09
1.175788e-10
4.380161e-09
2.696615e-10
6.388919e-09
5.61064e-10
9.644317e-10
8.669738e-09
4.04002e-10
-2.355361e-12
1.070612e-09
-5.554497e-12
2.166615e-09
1.404598e-11
3.706203e-09
1.034111e-10
5.85408e-09
2.062117e-10
8.531579e-09
4.605294e-10
1.77105e-09
1.063895e-08
5.243678e-10
-3.551151e-13
1.281721e-09
-2.242954e-13
2.389143e-09
1.126782e-11
3.979868e-09
5.824865e-11
6.058147e-09
1.602599e-10
8.584881e-09
3.06011e-10
7.437011e-10
1.251808e-08
6.120847e-10
6.243333e-13
1.444779e-09
2.486375e-12
2.648698e-09
1.277088e-11
4.320621e-09
4.722674e-11
6.489794e-09
1.186393e-10
9.047432e-09
1.824668e-10
1.839742e-10
1.237921e-08
6.792208e-10
-1.081346e-12
1.57763e-09
-3.357837e-12
2.891853e-09
-2.335754e-12
4.725927e-09
9.77049e-12
7.102637e-09
3.62521e-11
9.879977e-09
4.597322e-11
-1.663316e-11
1.304728e-08
7.436695e-10
-8.881544e-12
1.713501e-09
-2.862855e-11
3.15749e-09
-5.47754e-11
5.201955e-09
-9.05939e-11
7.878939e-09
-1.374736e-10
1.104359e-08
-1.939032e-10
-2.549841e-10
1.461236e-08
7.428701e-10
-1.54385e-11
1.711253e-09
-5.075205e-11
3.152621e-09
-1.02552e-10
5.19368e-09
-1.842713e-10
7.868948e-09
-3.022561e-10
1.103559e-08
-4.230709e-10
-4.810253e-10
1.460807e-08
6.770314e-10
-1.546711e-11
1.571297e-09
-5.205e-11
2.877639e-09
-1.102569e-10
4.700447e-09
-2.100457e-10
7.068898e-09
-3.675536e-10
9.847045e-09
-5.375848e-10
-6.534543e-10
1.30183e-08
6.089764e-10
-1.264785e-11
1.435803e-09
-4.410375e-11
2.627974e-09
-9.973962e-11
4.281248e-09
-2.060779e-10
6.434439e-09
-3.853162e-10
8.989476e-09
-6.280322e-10
-1.169047e-09
1.232614e-08
5.208772e-10
-7.528092e-12
1.271838e-09
-3.016991e-11
2.365695e-09
-8.835686e-11
3.931319e-09
-2.286644e-10
5.983126e-09
-3.950942e-10
8.499938e-09
-7.311753e-10
-2.135515e-09
1.244265e-08
4.006714e-10
-1.148203e-12
1.06141e-09
-1.639971e-11
2.1447e-09
-1.538212e-10
3.654587e-09
-2.151597e-10
5.759557e-09
-4.180667e-10
8.407573e-09
-7.743677e-10
-1.264666e-09
1.051063e-08
2.710291e-10
5.630125e-12
8.380134e-10
-1.628572e-12
1.597469e-09
-4.974179e-11
2.739231e-09
-1.387344e-10
4.281107e-09
-3.103287e-10
6.237502e-09
-6.15927e-10
-1.047377e-09
8.485968e-09
1.561168e-10
1.594396e-11
5.73464e-10
2.438683e-11
1.260673e-09
-2.847518e-12
2.232636e-09
-7.089232e-11
3.529678e-09
-2.002178e-10
5.188908e-09
-4.401796e-10
-9.045492e-10
7.267642e-09
8.914715e-11
2.551119e-11
3.765879e-10
4.798681e-11
9.21915e-10
3.686166e-11
1.726164e-09
-1.054932e-11
2.823418e-09
-1.15249e-10
4.253481e-09
-3.075885e-10
-1.11515e-09
6.653847e-09
5.803219e-11
3.234848e-11
2.094313e-10
6.471713e-11
5.984133e-10
6.810805e-11
1.236008e-09
3.415391e-11
2.30935e-09
-1.350814e-10
3.64584e-09
-2.187825e-10
-5.08424e-10
4.940057e-09
4.991442e-11
3.666173e-11
1.054775e-10
7.374742e-11
3.288445e-10
8.774933e-11
8.47419e-10
5.249952e-11
1.547874e-09
5.086444e-12
2.522492e-09
-9.943193e-11
-3.31122e-10
3.782882e-09
4.327683e-11
3.76275e-11
6.975439e-11
7.624943e-11
1.595976e-10
9.590358e-11
4.711892e-10
9.369202e-11
9.927806e-10
6.140747e-11
1.747956e-09
-2.172675e-11
-3.13651e-10
2.990143e-09
3.678266e-11
3.50045e-11
6.033824e-11
7.495154e-11
8.710014e-11
9.674148e-11
2.204556e-10
1.052702e-10
5.507037e-10
9.199428e-11
1.158826e-09
1.221382e-11
-7.82236e-11
1.895936e-09
3.063577e-11
2.959186e-11
5.2081e-11
6.925513e-11
6.936316e-11
9.245762e-11
1.030775e-10
1.045085e-10
2.583084e-10
1.029568e-10
6.021766e-10
7.950063e-11
4.856854e-12
1.155439e-09
2.519171e-11
2.315244e-11
4.469919e-11
6.015261e-11
6.053713e-11
8.444495e-11
7.546552e-11
9.855477e-11
1.147099e-10
1.03042e-10
2.630532e-10
9.663909e-11
6.337945e-11
5.792683e-10
2.041653e-11
1.744808e-11
3.786184e-11
4.970434e-11
5.217729e-11
7.404729e-11
6.625698e-11
8.856064e-11
7.958648e-11
9.554167e-11
1.142559e-10
9.456722e-11
8.476734e-11
2.420783e-10
1.642869e-11
1.323756e-11
3.158677e-11
4.01847e-11
4.523316e-11
6.222942e-11
5.741226e-11
7.722487e-11
6.889134e-11
8.544916e-11
8.05724e-11
8.671972e-11
8.227631e-11
1.042096e-10
1.33951e-11
1.029138e-11
2.666059e-11
3.236295e-11
3.859583e-11
5.172953e-11
4.928348e-11
6.599514e-11
5.932595e-11
7.41469e-11
6.834111e-11
7.692127e-11
7.606482e-11
7.775389e-11
1.126491e-11
8.055848e-12
2.26206e-11
2.62516e-11
3.296964e-11
4.288543e-11
4.243953e-11
5.561726e-11
5.078423e-11
6.336396e-11
5.792095e-11
6.665926e-11
6.673258e-11
6.565715e-11
9.469309e-12
6.300376e-12
1.920801e-11
2.131076e-11
2.813406e-11
3.549903e-11
3.628143e-11
4.649929e-11
4.31425e-11
5.367515e-11
4.786562e-11
5.791774e-11
5.601629e-11
5.4536e-11
7.978023e-12
4.954208e-12
1.635631e-11
1.736323e-11
2.411177e-11
2.934188e-11
3.095214e-11
3.887636e-11
3.640239e-11
4.553192e-11
4.176054e-11
4.854918e-11
4.737423e-11
4.58984e-11
6.736046e-12
3.92406e-12
1.398697e-11
1.420267e-11
2.061455e-11
2.434136e-11
2.638729e-11
3.25915e-11
3.09355e-11
3.871339e-11
3.55586e-11
4.036008e-11
3.996225e-11
3.891348e-11
5.688124e-12
3.134284e-12
1.192973e-11
1.168606e-11
1.758762e-11
2.029597e-11
2.211399e-11
2.7819e-11
2.689432e-11
3.208886e-11
3.035536e-11
3.401006e-11
3.378203e-11
3.316262e-11
4.795474e-12
2.524138e-12
1.017596e-11
9.692219e-12
1.505095e-11
1.706001e-11
1.948851e-11
2.350593e-11
2.312558e-11
2.717009e-11
2.600874e-11
2.886383e-11
2.86743e-11
2.843454e-11
4.023549e-12
2.052985e-12
8.665098e-12
8.125906e-12
1.272846e-11
1.461428e-11
1.67383e-11
1.974319e-11
1.988403e-11
2.312693e-11
2.239307e-11
2.463118e-11
2.447208e-11
2.453729e-11
3.362125e-12
1.69259e-12
7.352825e-12
6.935364e-12
1.114414e-11
1.240755e-11
1.443949e-11
1.689493e-11
1.716713e-11
1.984999e-11
1.938847e-11
2.115637e-11
2.102061e-11
2.131772e-11
2.799251e-12
1.41785e-12
6.37615e-12
5.931314e-12
9.614458e-12
1.067251e-11
1.247443e-11
1.457174e-11
1.48932e-11
1.715002e-11
1.689665e-11
1.829826e-11
1.821631e-11
1.864107e-11
2.316088e-12
1.212419e-12
5.443948e-12
5.094176e-12
8.281795e-12
9.228571e-12
1.081575e-11
1.264568e-11
1.299189e-11
1.491212e-11
1.483301e-11
1.593196e-11
1.58777e-11
1.650111e-11
1.921452e-12
1.042391e-12
4.649398e-12
4.421618e-12
7.148123e-12
8.035509e-12
9.413255e-12
1.103808e-11
1.139435e-11
1.303936e-11
1.310556e-11
1.394536e-11
1.390206e-11
1.467367e-11
1.562796e-12
9.024714e-13
3.963549e-12
3.854865e-12
6.179377e-12
7.032521e-12
8.218825e-12
9.682895e-12
1.003257e-11
1.145882e-11
1.159498e-11
1.22836e-11
1.246495e-11
1.281042e-11
1.253677e-12
7.87863e-13
3.371747e-12
3.379079e-12
5.344874e-12
6.181212e-12
7.192769e-12
8.528314e-12
8.87032e-12
1.011106e-11
1.035891e-11
1.085817e-11
1.104005e-11
1.176248e-11
9.826263e-13
6.924836e-13
2.855291e-12
2.973297e-12
4.616713e-12
5.449882e-12
6.298956e-12
7.531842e-12
7.862544e-12
8.944779e-12
9.287907e-12
9.623714e-12
9.789316e-12
1.068064e-11
7.43088e-13
6.116763e-13
2.398582e-12
2.62299e-12
3.971987e-12
4.814276e-12
5.506261e-12
6.661346e-12
6.966953e-12
7.919846e-12
8.330057e-12
8.539378e-12
8.671302e-12
9.712065e-12
5.290308e-13
5.422194e-13
1.989723e-12
2.317748e-12
3.393192e-12
4.257617e-12
4.791127e-12
5.896425e-12
6.145728e-12
7.023973e-12
7.354957e-12
7.71318e-12
7.575845e-12
8.822384e-12
3.356884e-13
4.818645e-13
1.62009e-12
2.050054e-12
2.868698e-12
3.767462e-12
4.141331e-12
5.221317e-12
5.414649e-12
6.226183e-12
6.728605e-12
6.856867e-12
6.724013e-12
8.021441e-12
1.598802e-13
4.289505e-13
1.283257e-12
1.814014e-12
2.389285e-12
3.333931e-12
3.545558e-12
4.622354e-12
4.734545e-12
5.516253e-12
6.005502e-12
6.075299e-12
5.962438e-12
7.26047e-12
-1.122513e-15
3.823628e-13
9.742983e-13
1.605411e-12
1.948367e-12
2.949529e-12
2.994875e-12
4.088687e-12
4.098335e-12
4.885093e-12
5.318209e-12
5.368716e-12
5.280361e-12
6.54638e-12
-1.493302e-13
3.413648e-13
6.893868e-13
1.421395e-12
1.540241e-12
2.610027e-12
2.478776e-12
3.621187e-12
3.448361e-12
4.402215e-12
4.670314e-12
4.683632e-12
4.671008e-12
5.876063e-12
-2.866774e-13
3.053978e-13
4.2479e-13
1.259559e-12
1.160691e-12
2.311471e-12
2.00677e-12
3.208015e-12
2.990708e-12
3.913412e-12
4.074434e-12
4.15203e-12
4.140867e-12
5.244665e-12
-4.154192e-13
2.740146e-13
1.764045e-13
1.117699e-12
8.040125e-13
2.049523e-12
1.558906e-12
2.845037e-12
2.475839e-12
3.473162e-12
3.502761e-12
3.683002e-12
3.673418e-12
4.644234e-12
-5.378862e-13
2.468413e-13
-6.018735e-14
9.941748e-13
4.6385e-13
1.821098e-12
1.130589e-12
2.528925e-12
1.975398e-12
3.09005e-12
2.95286e-12
3.27445e-12
3.266043e-12
4.066188e-12
-6.566709e-13
2.23698e-13
-2.900477e-13
8.876911e-13
1.325721e-13
1.622948e-12
7.102736e-13
2.256018e-12
1.486569e-12
2.754443e-12
2.415134e-12
2.922006e-12
2.915462e-12
3.499835e-12
-7.747726e-13
2.046043e-13
-5.192046e-13
7.983551e-13
-2.004683e-13
1.458326e-12
2.550032e-13
2.070345e-12
9.947831e-13
2.435107e-12
1.87715e-12
2.622309e-12
2.619627e-12
2.93265e-12
-8.960792e-13
1.898536e-13
-7.548657e-13
7.266515e-13
-5.388561e-13
1.324388e-12
-1.260984e-13
1.890246e-12
4.958024e-13
2.212543e-12
1.324256e-12
2.381037e-12
2.376844e-12
2.350426e-12
-1.025418e-12
1.800026e-13
-1.006535e-12
6.736907e-13
-9.016495e-13
1.222395e-12
-5.818425e-13
1.746977e-12
-3.739558e-14
2.037986e-12
7.397705e-13
2.191554e-12
2.185902e-12
1.737231e-12
-1.16958e-12
1.762022e-13
-1.286709e-12
6.42779e-13
-1.304458e-12
1.157569e-12
-1.089285e-12
1.653905e-12
-6.22616e-13
1.918596e-12
1.036933e-13
2.0577e-12
2.047765e-12
1.075349e-12
-1.337327e-12
1.806319e-13
-1.612689e-12
6.398463e-13
-1.770581e-12
1.138184e-12
-1.670985e-12
1.619971e-12
-1.28565e-12
1.860991e-12
-6.077711e-13
1.983632e-12
1.963889e-12
3.444327e-13
-1.542612e-12
1.971045e-13
-2.009872e-12
6.754707e-13
-2.332808e-12
1.178499e-12
-2.362241e-12
1.659265e-12
-2.060054e-12
1.875037e-12
-1.4236e-12
1.974778e-12
1.935486e-12
-4.785097e-13
-1.806627e-12
2.327429e-13
-2.516519e-12
7.695607e-13
-3.038972e-12
1.303298e-12
-3.212073e-12
1.793831e-12
-2.98965e-12
1.974648e-12
-2.378814e-12
2.037116e-12
1.962342e-12
-1.418719e-12
-2.164311e-12
3.026959e-13
-3.1937e-12
9.59979e-13
-3.965245e-12
1.556476e-12
-4.289742e-12
2.050107e-12
-4.131246e-12
2.176046e-12
-3.514798e-12
2.174709e-12
2.039627e-12
-2.498764e-12
-2.676165e-12
4.428193e-13
-4.146352e-12
1.326958e-12
-5.289371e-12
2.081547e-12
-5.699704e-12
2.409947e-12
-5.557781e-12
2.490295e-12
-4.872811e-12
2.38386e-12
2.010355e-12
-3.62294e-12
-3.456962e-12
7.469802e-13
-5.54402e-12
2.024593e-12
-6.993804e-12
2.882031e-12
-7.564478e-12
3.047086e-12
-7.349622e-12
2.930594e-12
-6.282774e-12
2.399963e-12
2.076937e-12
-4.939225e-12
-4.741933e-12
1.49659e-12
-7.716399e-12
3.387217e-12
-9.533185e-12
4.174665e-12
-1.006458e-11
3.934153e-12
-9.271627e-12
3.090059e-12
-8.061632e-12
2.570489e-12
2.098112e-12
-6.399934e-12
-7.060907e-12
3.64726e-12
-1.127743e-11
6.105617e-12
-1.327088e-11
6.147011e-12
-1.294499e-11
4.477933e-12
-1.183436e-11
3.435358e-12
-1.00693e-11
2.619066e-12
2.004699e-12
-7.960058e-12
-1.172523e-11
1.079751e-11
-1.736729e-11
1.139004e-11
-1.812561e-11
7.89855e-12
-1.696743e-11
5.123107e-12
-1.477765e-11
3.445992e-12
-1.220239e-11
2.393154e-12
1.715603e-12
-9.513169e-12
-2.234082e-11
2.894129e-11
-2.722777e-11
1.824123e-11
-2.533473e-11
8.846398e-12
-2.166896e-11
4.651098e-12
-1.783041e-11
2.725329e-12
-1.421783e-11
1.728961e-12
1.169594e-12
-1.088164e-11
-5.057974e-11
-4.415724e-11
-3.392918e-11
-2.618331e-11
-2.035629e-11
-1.572166e-11
-1.182936e-11
-8.709256e-12
-2.938147e-13
-5.836042e-12
-1.853877e-13
-1.814805e-12
-1.032795e-13
-1.818682e-12
-1.408327e-12
2.537508e-14
1.114952e-12
-9.172286e-13
2.419177e-14
8.090196e-13
-7.778208e-13
3.171501e-14
8.198535e-13
-1.043758e-12
3.361301e-14
-8.52718e-12
-8.538255e-13
-5.714476e-12
-5.944765e-13
-1.786037e-12
-4.050714e-13
-1.751922e-12
3.18652e-14
-1.389263e-12
-7.79684e-14
2.452844e-14
1.093928e-12
-8.911737e-13
-7.437309e-14
2.214814e-15
7.801906e-13
-7.463565e-13
-3.515284e-14
-2.710463e-15
7.845225e-13
-9.916731e-13
-2.405645e-14
-7.88739e-12
-1.286608e-12
-5.266627e-12
-9.346942e-13
-3.259031e-12
-6.765298e-13
-9.807777e-13
-2.769761e-13
1.504845e-13
1.273278e-13
-9.198554e-13
-2.016513e-13
1.185827e-13
-7.800499e-13
-1.552225e-13
6.611739e-14
6.659192e-13
-6.295483e-13
-9.475249e-14
4.882344e-14
6.628298e-13
-8.579599e-13
-7.286597e-14
-6.901357e-12
-1.564886e-12
-4.522363e-12
-1.180118e-12
-1.353806e-12
-8.80643e-13
-1.252796e-12
-1.019434e-12
-3.276586e-13
1.879669e-13
7.555458e-13
-5.682861e-13
-2.215502e-13
1.213298e-13
4.661895e-13
-4.33205e-13
-1.462772e-13
9.55102e-14
4.635889e-13
-6.494922e-13
-1.166658e-13
-5.721016e-12
-1.709761e-12
-3.60924e-12
-1.335535e-12
-1.000335e-12
-1.018873e-12
-8.780368e-13
3.533169e-13
-7.01226e-13
-3.839055e-13
2.560658e-13
4.583972e-13
-2.890131e-13
-2.852679e-13
1.695961e-13
2.001496e-13
-1.724418e-13
-1.908121e-13
1.363819e-13
2.015531e-13
-3.812514e-13
-1.545084e-13
-4.473143e-12
-1.763864e-12
-2.611566e-12
-1.425093e-12
-5.959664e-13
-1.115025e-12
-4.621036e-13
4.116505e-13
-3.32429e-13
-4.360881e-13
3.090848e-13
3.523623e-14
-3.280951e-13
1.153122e-13
2.096623e-13
-1.121952e-13
1.350739e-13
-2.262154e-13
1.707783e-13
-1.070641e-13
-6.691129e-14
-1.851762e-13
-3.246376e-12
-1.771866e-12
-1.593584e-12
-1.474847e-12
-1.667988e-13
-1.181143e-12
-2.867386e-14
6.720897e-14
-4.766124e-13
4.573369e-13
3.441601e-13
-2.795635e-13
3.906758e-13
-3.460447e-13
2.40752e-13
-4.564688e-13
4.74722e-13
-2.53237e-13
1.978106e-13
-4.47512e-13
2.789592e-13
-2.08843e-13
-2.089495e-12
-1.817904e-12
-6.011367e-13
-1.509516e-12
2.670402e-13
-1.232665e-12
4.04882e-13
4.911775e-13
4.734871e-13
-5.048448e-13
3.56362e-13
7.613577e-13
-3.682774e-13
-6.549222e-13
2.639401e-13
-8.183986e-13
8.328113e-13
-2.734602e-13
2.184765e-13
-8.067629e-13
6.436926e-13
-2.270156e-13
-1.01431e-12
-1.790421e-12
3.415138e-13
-1.518851e-12
6.918344e-13
-1.285685e-12
8.256802e-13
8.794886e-13
-5.306752e-13
5.177037e-13
3.794244e-13
-1.043095e-12
1.136826e-12
-3.902213e-13
2.823399e-13
-1.186189e-12
1.197723e-12
-2.90906e-13
2.348332e-13
-1.173523e-12
1.016124e-12
-2.421916e-13
1.670206e-14
-1.798476e-12
1.30255e-12
-1.544861e-12
1.09956e-12
-1.256111e-12
1.227145e-12
5.442376e-13
1.273405e-12
-5.591169e-13
4.011647e-13
-1.423329e-12
1.507209e-12
-4.128437e-13
2.995585e-13
-1.550836e-12
1.560766e-12
-3.086057e-13
2.495381e-13
-1.539226e-12
1.387627e-12
-2.571409e-13
9.428324e-13
-1.851389e-12
2.174116e-12
-1.602827e-12
1.546127e-12
-1.313349e-12
1.678832e-12
5.754539e-13
1.65e-12
-5.327108e-13
4.256332e-13
-1.789872e-12
1.866563e-12
-4.399634e-13
3.184828e-13
-1.906102e-12
1.915701e-12
-3.296045e-13
2.65488e-13
-1.897704e-12
1.751904e-12
-2.746615e-13
1.775397e-12
-1.953122e-12
2.976964e-12
-1.69957e-12
1.934834e-12
-1.399949e-12
2.061593e-12
5.465432e-13
2.088787e-12
-5.639328e-13
4.561939e-13
-2.21887e-12
2.210236e-12
-3.93436e-13
3.421842e-13
-2.248409e-12
2.258603e-12
-3.565449e-13
2.852593e-13
-2.244807e-12
2.104832e-12
-2.975095e-13
2.531704e-12
-2.105405e-12
3.718146e-12
-1.838685e-12
2.300177e-12
-1.521285e-12
2.420657e-12
5.843715e-13
2.451005e-12
-6.092144e-13
4.078001e-13
-2.573818e-12
2.635787e-12
-4.255026e-13
3.73091e-13
-2.665668e-12
2.585813e-12
-3.007054e-13
3.116683e-13
-2.577609e-12
2.443009e-12
-3.282186e-13
3.229309e-12
-2.309036e-12
4.409486e-12
-2.022499e-12
2.644463e-12
-1.680149e-12
2.759731e-12
6.374313e-13
2.793663e-12
-6.704352e-13
4.461068e-13
-2.911304e-12
2.969028e-12
-4.7033e-13
3.163154e-13
-2.996071e-12
3.002242e-12
-3.350729e-13
3.473778e-13
-2.990713e-12
2.76074e-12
-2.715042e-13
3.885596e-12
-2.565343e-12
5.064342e-12
-2.252561e-12
2.972243e-12
-1.878721e-12
3.084169e-12
7.071865e-13
3.120295e-12
-7.489285e-13
4.977366e-13
-3.233117e-12
3.28648e-12
-5.291276e-13
3.565441e-13
-3.310622e-12
3.315873e-12
-3.812622e-13
2.907661e-13
-3.304222e-12
3.144817e-12
-3.126909e-13
4.517091e-12
-2.87571e-12
5.697128e-12
-2.530899e-12
3.289368e-12
-2.118439e-12
3.400227e-12
7.944844e-13
3.4364e-12
-8.454834e-13
5.639994e-13
-3.544229e-12
3.592469e-12
-6.027998e-13
4.089512e-13
-3.612827e-12
3.615618e-12
-4.400977e-13
3.379231e-13
-3.601704e-12
3.433551e-12
-3.684103e-13
5.140041e-12
-3.242427e-12
6.322826e-12
-2.860127e-12
3.603207e-12
-2.403138e-12
3.716463e-12
9.000603e-13
3.748943e-12
-9.597077e-13
6.453127e-13
-3.853438e-12
3.894758e-12
-6.871686e-13
4.736851e-13
-3.911106e-12
3.911704e-12
-5.098415e-13
4.010783e-13
-3.892993e-12
3.670058e-12
-4.329524e-13
5.768725e-12
-3.668207e-12
6.955745e-12
-3.243839e-12
3.922316e-12
-2.735912e-12
4.03872e-12
1.02954e-12
4.069316e-12
-1.102415e-12
6.406334e-13
-4.165817e-12
4.200628e-12
-6.927461e-13
5.485161e-13
-4.212946e-12
4.214921e-12
-5.909209e-13
4.666678e-13
-4.203635e-12
4.021086e-12
-5.075821e-13
6.416041e-12
-4.156487e-12
7.60781e-12
-3.685663e-12
4.250114e-12
-3.120647e-12
4.372331e-12
1.178125e-12
4.395766e-12
-1.26064e-12
7.496014e-13
-4.4801e-12
4.513494e-12
-8.117514e-13
6.355382e-13
-4.520414e-12
4.519016e-12
-6.831778e-13
5.468648e-13
-4.505479e-12
4.315777e-12
-5.855437e-13
7.091648e-12
-4.712118e-12
8.290217e-12
-4.189772e-12
4.594262e-12
-3.562774e-12
4.724668e-12
1.348549e-12
4.738835e-12
-1.444548e-12
8.799069e-13
-4.817326e-12
4.841085e-12
-9.547905e-13
7.349283e-13
-4.840628e-12
4.83399e-12
-7.921942e-13
6.299769e-13
-4.815523e-12
4.61698e-12
-6.796557e-13
7.802138e-12
-5.33782e-12
9.009619e-12
-4.758057e-12
4.960064e-12
-4.063543e-12
5.099813e-12
1.546749e-12
5.105343e-12
-1.657964e-12
1.037215e-12
-5.177466e-12
5.190868e-12
-1.127856e-12
8.551327e-13
-5.181611e-12
5.16828e-12
-9.248872e-13
7.352109e-13
-5.14344e-12
4.931339e-12
-7.972108e-13
8.548928e-12
-6.033841e-12
9.763487e-12
-5.388696e-12
5.347361e-12
-4.614835e-12
5.493675e-12
1.77524e-12
5.496643e-12
-1.900358e-12
1.22662e-12
-5.564173e-12
5.567654e-12
-1.334419e-12
1.000772e-12
-5.549389e-12
5.528641e-12
-1.083695e-12
8.651829e-13
-5.497049e-12
5.270729e-12
-9.393502e-13
9.328545e-12
-6.799472e-12
1.053498e-11
-6.081656e-12
5.740051e-12
-5.213744e-12
5.87469e-12
2.026861e-12
5.897428e-12
-2.144454e-12
1.450372e-12
-5.966319e-12
5.966984e-12
-1.573408e-12
1.17253e-12
-5.942936e-12
5.916485e-12
-1.266775e-12
1.019274e-12
-5.878463e-12
5.637336e-12
-1.105175e-12
1.01462e-11
-7.658089e-12
1.131512e-11
-6.846908e-12
1.225266e-11
-5.893912e-12
6.358153e-12
-2.569904e-12
2.102226e-12
2.224791e-12
6.516209e-12
-2.348811e-12
1.740596e-12
6.427683e-12
-1.916184e-12
1.3642e-12
-6.356252e-12
6.326879e-12
-1.467903e-12
1.195528e-12
-6.284928e-12
6.028353e-12
-1.291703e-12
1.104232e-11
-8.60355e-12
1.225727e-11
-7.689776e-12
6.601379e-12
-6.641345e-12
6.79333e-12
6.754613e-12
-2.788334e-12
2.048653e-12
-6.833905e-12
6.837278e-12
-2.184524e-12
1.576161e-12
-6.797566e-12
6.762686e-12
-1.689075e-12
1.392064e-12
-6.716475e-12
6.442306e-12
-1.498288e-12
1.201343e-11
-9.668957e-12
1.323015e-11
-8.633428e-12
7.108589e-12
-7.430001e-12
7.292626e-12
2.945701e-12
7.273962e-12
-3.113893e-12
2.326787e-12
-7.337041e-12
7.318825e-12
-2.472313e-12
1.807732e-12
-7.266165e-12
7.228161e-12
-1.933786e-12
1.610275e-12
-7.178664e-12
6.885395e-12
-1.729704e-12
1.313366e-11
-1.093955e-11
1.433293e-11
-9.783433e-12
7.629478e-12
-8.360325e-12
7.832753e-12
3.286931e-12
7.783322e-12
-3.471653e-12
2.621078e-12
-7.842276e-12
7.822453e-12
-2.777381e-12
2.06751e-12
-7.769615e-12
7.735061e-12
-2.21296e-12
1.856924e-12
-7.682568e-12
7.367056e-12
-1.993136e-12
1.457842e-11
-1.275236e-11
1.57916e-11
-5.849309e-12
-5.542703e-12
8.25343e-12
-4.979261e-12
8.499746e-12
-4.607524e-12
3.666409e-12
8.35973e-12
-3.878911e-12
2.945623e-12
-8.408983e-12
8.398067e-12
-3.127619e-12
2.320925e-12
-8.408359e-12
8.309203e-12
-2.444939e-12
2.141265e-12
-8.237696e-12
7.847929e-12
-2.307776e-12
8.18892e-12
-1.466594e-11
8.544802e-12
8.517466e-12
-6.370639e-12
-8.776567e-12
8.923564e-12