/*--------------------------------*- C++ -*----------------------------------*\
| =========                 |                                                 |
| \\      /  F ield         | OpenFOAM: The Open Source CFD Toolbox           |
|  \\    /   O peration     | Version:  2206                                  |
|   \\  /    A nd           | Website:  www.openfoam.com                      |
|    \\/     M anipulation  |                                                 |
\*---------------------------------------------------------------------------*/
FoamFile
{
    version     2.0;
    format      ascii;
    arch        "LSB;label=32;scalar=64";
    class       surfaceScalarField;
    location    "1";
    object      phi.b;
}
// * * * * * * * * * * * * * * * * * * * * * * * * * * * * * * * * * * * * * //

dimensions      [0 3 -1 0 0 0 0];

oriented        oriented;

internalField   nonuniform List<scalar> 
26037
(
5.727929e-11
5.908524e-11
1.473109e-11
2.85223e-11
-1.933809e-11
1.883566e-11
-4.392037e-11
1.427651e-11
-6.311638e-11
1.288567e-11
-7.960078e-11
1.185807e-11
1.074606e-11
-9.413899e-11
4.043251e-11
1.045961e-10
1.118344e-11
6.001502e-11
-1.905938e-11
4.068455e-11
-4.317919e-11
3.115216e-11
-6.291486e-11
2.683289e-11
-7.984693e-11
2.398808e-11
2.145052e-11
-9.470257e-11
1.620568e-11
9.647418e-11
-6.727311e-13
7.371907e-11
-2.196535e-11
5.779561e-11
-4.388037e-11
4.847971e-11
-6.347832e-11
4.203399e-11
-8.083175e-11
3.72974e-11
3.308232e-11
-9.618165e-11
3.001813e-12
9.998922e-11
-9.705263e-12
8.690356e-11
-2.85e-11
7.49308e-11
-4.620089e-11
6.357893e-11
-6.540854e-11
5.818494e-11
-8.302953e-11
5.171884e-11
4.574009e-11
-9.886135e-11
-3.790079e-12
1.106604e-10
-1.668255e-11
1.018568e-10
-3.419609e-11
9.244674e-11
-5.326205e-11
8.133583e-11
-6.890039e-11
7.180591e-11
-8.677702e-11
6.717567e-11
5.944075e-11
-1.031073e-10
-8.67437e-12
1.249021e-10
-2.298415e-11
1.183958e-10
-4.041362e-11
1.105866e-10
-5.935798e-11
9.980459e-11
-7.827508e-11
8.940576e-11
-9.22202e-11
7.929911e-11
7.417959e-11
-1.090964e-10
-1.269542e-11
1.419811e-10
-2.897335e-11
1.365986e-10
-4.607505e-11
1.28606e-10
-6.661849e-11
1.202939e-10
-8.605431e-11
1.080269e-10
-1.046668e-10
9.651469e-11
8.471321e-11
-1.169586e-10
-1.623675e-11
1.617339e-10
-3.495478e-11
1.568446e-10
-5.459759e-11
1.491324e-10
-7.531613e-11
1.411336e-10
-9.552941e-11
1.277123e-10
-1.149263e-10
1.148455e-10
1.013057e-10
-1.329916e-10
-1.961036e-11
1.842385e-10
-4.103902e-11
1.794358e-10
-6.283015e-11
1.716706e-10
-8.513084e-11
1.635979e-10
-1.066718e-10
1.488799e-10
-1.272208e-10
1.345442e-10
1.191527e-10
-1.462954e-10
-2.302264e-11
2.097e-10
-4.744095e-11
2.047097e-10
-7.175281e-11
1.965746e-10
-9.620929e-11
1.88198e-10
-1.195409e-10
1.719153e-10
-1.416257e-10
1.55922e-10
1.385116e-10
-1.620311e-10
-2.662219e-11
2.384147e-10
-5.434656e-11
2.330362e-10
-8.159976e-11
2.242698e-10
-1.086885e-10
2.153814e-10
-1.342639e-10
1.972287e-10
-1.582849e-10
1.793333e-10
1.596779e-10
-1.803571e-10
-3.052797e-11
2.707608e-10
-6.192677e-11
2.64826e-10
-9.255108e-11
2.551998e-10
-1.22741e-10
2.456085e-10
-1.510182e-10
2.252565e-10
-1.773977e-10
2.051739e-10
1.829866e-10
-2.014962e-10
-3.483237e-11
3.071833e-10
-7.033821e-11
3.005437e-10
-1.047949e-10
2.89841e-10
-1.385541e-10
2.793474e-10
-1.700366e-10
2.564937e-10
-1.992071e-10
2.338631e-10
2.088145e-10
-2.257219e-10
-3.962626e-11
3.482019e-10
-7.973736e-11
3.407103e-10
-1.18528e-10
3.287083e-10
-1.559671e-10
3.167081e-10
-1.91568e-10
2.918448e-10
-2.239975e-10
2.658628e-10
2.375926e-10
-2.533636e-10
-4.499183e-11
3.944067e-10
-9.028709e-11
3.859207e-10
-1.337915e-10
3.721956e-10
-1.712121e-10
3.540149e-10
-2.154657e-10
3.358562e-10
-2.520921e-10
3.021186e-10
2.698012e-10
-2.847853e-10
-5.09975e-11
4.464473e-10
-1.020814e-10
4.36788e-10
-1.512669e-10
4.212766e-10
-1.979257e-10
4.005351e-10
-2.433157e-10
3.81022e-10
-2.839295e-10
3.424285e-10
3.059301e-10
-3.204314e-10
-5.77586e-11
5.050823e-10
-1.153877e-10
4.94073e-10
-1.708523e-10
4.765517e-10
-2.236847e-10
4.531913e-10
-2.743543e-10
4.314823e-10
-3.198893e-10
3.877312e-10
3.465478e-10
-3.607577e-10
-6.536155e-11
5.711521e-10
-1.303512e-10
5.585921e-10
-1.928529e-10
5.387846e-10
-2.523023e-10
5.124388e-10
-3.092428e-10
4.882429e-10
-3.60468e-10
4.388076e-10
3.922456e-10
-4.062814e-10
-7.39073e-11
6.455937e-10
-1.471736e-10
6.31259e-10
-2.175965e-10
6.088613e-10
-2.844844e-10
5.791045e-10
-3.475958e-10
5.512068e-10
-4.061538e-10
4.973044e-10
4.437089e-10
-4.575848e-10
-8.350642e-11
7.294511e-10
-1.660762e-10
7.13096e-10
-2.454421e-10
6.878041e-10
-3.203477e-10
6.537759e-10
-3.8185e-10
6.126215e-10
-4.567198e-10
5.722231e-10
5.025011e-10
-5.15307e-10
-9.427074e-11
8.238768e-10
-1.872471e-10
8.051991e-10
-2.765376e-10
7.765922e-10
-3.6117e-10
7.381624e-10
-4.398353e-10
6.912826e-10
-5.151946e-10
6.47775e-10
5.68049e-10
-5.803423e-10
-1.063471e-10
9.301682e-10
-2.110214e-10
9.088508e-10
-3.115523e-10
8.765394e-10
-4.06906e-10
8.33261e-10
-4.961161e-10
7.805496e-10
-5.801436e-10
7.321343e-10
6.420188e-10
-6.535014e-10
-1.198658e-10
1.04975e-09
-2.376401e-10
1.025443e-09
-3.507738e-10
9.890081e-10
-4.58094e-10
9.403298e-10
-5.583949e-10
8.809967e-10
-6.513178e-10
8.255581e-10
7.27265e-10
-7.357129e-10
-1.349622e-10
1.184178e-09
-2.673694e-10
1.1565e-09
-3.946094e-10
1.115503e-09
-5.154532e-10
1.060939e-09
-6.278893e-10
9.936953e-10
-7.175634e-10
9.159393e-10
8.378255e-10
-8.26979e-10
-1.517596e-10
1.33513e-09
-3.004485e-10
1.303656e-09
-4.433709e-10
1.2576e-09
-5.790888e-10
1.196451e-09
-7.060443e-10
1.121047e-09
-8.222656e-10
1.033138e-09
9.488092e-10
-9.317195e-10
-1.703854e-10
1.504401e-09
-3.371638e-10
1.468704e-09
-4.975913e-10
1.417126e-09
-6.501686e-10
1.348872e-09
-7.933583e-10
1.264801e-09
-9.258116e-10
1.166839e-09
1.073767e-09
-1.048844e-09
-1.908505e-10
1.693792e-09
-3.777045e-10
1.653611e-09
-5.575517e-10
1.595995e-09
-7.288817e-10
1.52012e-09
-8.900629e-10
1.426765e-09
-1.039475e-09
1.31785e-09
1.213704e-09
-1.176996e-09
-2.120894e-10
1.90403e-09
-4.221271e-10
1.86146e-09
-6.234251e-10
1.796242e-09
-8.155692e-10
1.712281e-09
-9.969305e-10
1.609172e-09
-1.16491e-09
1.487837e-09
1.351575e-09
-1.299883e-09
-2.35808e-10
2.137532e-09
-4.705034e-10
2.093686e-09
-6.953212e-10
2.019931e-09
-9.103388e-10
1.92744e-09
-1.113424e-09
1.81361e-09
-1.301527e-09
1.678378e-09
1.522265e-09
-1.468854e-09
-2.425678e-10
2.377276e-09
-5.19589e-10
2.367915e-09
-7.730617e-10
2.272195e-09
-1.013846e-09
2.168518e-09
-1.242565e-09
2.044052e-09
-1.457055e-09
1.895853e-09
1.723817e-09
-1.654607e-09
-2.86432e-10
2.660304e-09
-5.734359e-10
2.651759e-09
-8.560456e-10
2.553496e-09
-1.12522e-09
2.438166e-09
-1.382429e-09
2.30342e-09
-1.626477e-09
2.143546e-09
1.956308e-09
-1.854132e-09
-3.157187e-10
2.971924e-09
-5.868114e-10
2.919344e-09
-9.322369e-10
2.897512e-09
-1.242509e-09
2.749122e-09
-1.530982e-09
2.594551e-09
-1.806542e-09
2.423501e-09
2.221125e-09
-2.065593e-09
-3.454623e-10
3.312481e-09
-6.808283e-10
3.250818e-09
-9.60823e-10
3.17604e-09
-1.357373e-09
3.146659e-09
-1.686672e-09
2.9271e-09
-1.99916e-09
2.741228e-09
2.525664e-09
-2.296889e-09
-3.736953e-10
3.680337e-09
-7.418604e-10
3.614616e-09
-1.102039e-09
3.534731e-09
-1.474685e-09
3.520558e-09
-1.845635e-09
3.30196e-09
-2.200158e-09
3.101918e-09
2.87717e-09
-2.543691e-09
-4.005825e-10
4.074004e-09
-7.964819e-10
4.005611e-09
-1.187313e-09
3.924047e-09
-1.494939e-09
3.829866e-09
-1.98085e-09
3.792596e-09
-2.402131e-09
3.530421e-09
3.281584e-09
-2.79734e-09
-4.235881e-10
4.489441e-09
-8.42648e-10
4.419175e-09
-1.262386e-09
4.342176e-09
-1.677578e-09
4.247099e-09
-2.019283e-09
4.139702e-09
-2.586082e-09
4.105559e-09
3.75605e-09
-3.050127e-09
-4.413876e-10
4.921258e-09
-8.790328e-10
4.850679e-09
-1.319895e-09
4.781312e-09
-1.77029e-09
4.699723e-09
-2.229872e-09
4.605091e-09
-2.746459e-09
4.631101e-09
4.30832e-09
-3.287506e-09
-4.51489e-10
5.361526e-09
-9.014288e-10
5.293776e-09
-1.357654e-09
5.235677e-09
-1.830825e-09
5.175167e-09
-2.325168e-09
5.105226e-09
-2.718074e-09
5.032615e-09
5.075294e-09
-3.474502e-09
-4.429097e-10
5.791219e-09
-9.042576e-10
5.747456e-09
-1.366754e-09
5.696167e-09
-1.849745e-09
5.660264e-09
-2.365339e-09
5.625951e-09
-2.915139e-09
5.589907e-09
5.758414e-09
-3.590576e-09
-3.767872e-10
6.152678e-09
-8.656512e-10
6.228148e-09
-1.341404e-09
6.16994e-09
-1.826338e-09
6.146894e-09
-2.353047e-09
6.15661e-09
-2.932217e-09
6.173881e-09
6.209457e-09
-3.382499e-09
-4.056448e-10
6.540458e-09
-7.071207e-10
6.521314e-09
-1.245931e-09
6.706899e-09
-1.74566e-09
6.647537e-09
-2.264381e-09
6.676708e-09
-2.850228e-09
6.758592e-09
6.853078e-09
-3.504615e-09
-3.76536e-10
6.895837e-09
-7.333493e-10
6.869029e-09
-9.583293e-10
6.928904e-09
-1.56453e-09
7.251962e-09
-2.104564e-09
7.212639e-09
-2.672388e-09
7.313982e-09
7.444537e-09
-3.299581e-09
-3.239432e-10
7.193997e-09
-6.426895e-10
7.1759e-09
-9.5883e-10
7.238709e-09
-1.112628e-09
7.397698e-09
-1.809923e-09
7.895151e-09
-2.357905e-09
7.832861e-09
7.910528e-09
-2.911082e-09
-2.455533e-10
7.40659e-09
-5.098547e-10
7.422494e-09
-7.888331e-10
7.504407e-09
-1.082785e-09
7.676044e-09
-1.120319e-09
7.906772e-09
-1.852301e-09
8.500263e-09
8.286779e-09
-2.406565e-09
-1.09329e-10
7.472453e-09
-3.346212e-10
7.621155e-09
-5.462183e-10
7.693489e-09
-7.921376e-10
7.900827e-09
-9.76035e-10
8.056005e-09
-8.487006e-10
8.247447e-09
8.880086e-09
-1.781215e-09
-6.753004e-11
7.483607e-09
-3.805534e-11
7.554322e-09
-8.447069e-11
7.710068e-09
-3.459547e-10
8.136879e-09
-5.070858e-10
8.159061e-09
-6.732403e-10
8.231367e-09
8.345595e-09
-6.36617e-10
2.726728e-11
7.385938e-09
4.782921e-11
7.487208e-09
9.010403e-11
7.638315e-09
3.628442e-10
7.828484e-09
9.534506e-11
8.322094e-09
-9.236901e-11
8.135132e-09
8.222657e-09
-5.353033e-10
1.415694e-10
7.161755e-09
2.861948e-10
7.290373e-09
4.554456e-10
7.437244e-09
6.436426e-10
7.588731e-09
1.042681e-09
7.745215e-09
9.000058e-10
7.826364e-09
8.332584e-09
3.974561e-12
2.729328e-10
6.798293e-09
5.702732e-10
6.937899e-09
8.801517e-10
7.086607e-09
1.142473e-09
7.241526e-09
1.256817e-09
7.37892e-09
1.071092e-09
7.459745e-09
7.472155e-09
9.668397e-10
4.219492e-10
6.282795e-09
8.775077e-10
6.422559e-09
1.308478e-09
6.59815e-09
1.66124e-09
6.750438e-09
1.771565e-09
6.894699e-09
1.527421e-09
6.979495e-09
6.947721e-09
1.041143e-09
6.686084e-10
5.521874e-09
1.367708e-09
5.653145e-09
1.75546e-09
6.117399e-09
2.16483e-09
6.122779e-09
2.293857e-09
6.237498e-09
2.074264e-09
6.300207e-09
6.336729e-09
1.535167e-09
7.657259e-10
4.670225e-09
1.556159e-09
4.78245e-09
2.59349e-09
4.93875e-09
3.23299e-09
5.127947e-09
3.503377e-09
5.201724e-09
3.385029e-09
5.282747e-09
5.846181e-09
2.495733e-09
9.081786e-10
3.680726e-09
1.803882e-09
3.78865e-09
2.643547e-09
3.918882e-09
3.279702e-09
4.0618e-09
3.499444e-09
4.184599e-09
3.49351e-09
4.264717e-09
4.372341e-09
3.591479e-09
1.034744e-09
2.567319e-09
2.04189e-09
2.660409e-09
2.943919e-09
2.775365e-09
3.575368e-09
2.901407e-09
3.850161e-09
3.020783e-09
3.937437e-09
3.086123e-09
2.997669e-09
3.954329e-09
1.147143e-09
1.343924e-09
2.266574e-09
1.398351e-09
3.272898e-09
1.467597e-09
3.999628e-09
1.542435e-09
4.389625e-09
1.612882e-09
4.572868e-09
1.641936e-09
1.552616e-09
4.472131e-09
1.246064e-09
2.511278e-11
2.480043e-09
7.66998e-12
3.615122e-09
-1.272651e-11
4.47739e-09
-3.694816e-11
5.008884e-09
-6.496055e-11
5.299483e-09
-9.852982e-11
-1.388751e-10
5.179927e-09
1.249603e-09
-1.296163e-09
2.487443e-09
-1.385095e-09
3.628611e-09
-1.49644e-09
4.497918e-09
-1.621255e-09
5.034428e-09
-1.750283e-09
5.324796e-09
-1.848082e-09
-1.839368e-09
5.200708e-09
1.156767e-09
-2.526338e-09
2.286618e-09
-2.652725e-09
3.307964e-09
-2.811024e-09
4.053465e-09
-2.990192e-09
4.455216e-09
-3.171219e-09
4.633785e-09
-3.306647e-09
-3.296892e-09
4.514615e-09
1.048299e-09
-3.649387e-09
2.069554e-09
-3.788366e-09
2.99202e-09
-3.962383e-09
3.651451e-09
-4.161724e-09
3.945351e-09
-4.35045e-09
4.026441e-09
-4.503511e-09
-4.688676e-09
4.014208e-09
9.239249e-10
-4.650463e-09
1.834483e-09
-4.790088e-09
2.696364e-09
-4.989984e-09
3.368929e-09
-5.239768e-09
3.618448e-09
-5.384256e-09
3.606656e-09
-5.540572e-09
-6.194468e-09
3.677904e-09
7.810133e-10
-5.513615e-09
1.584359e-09
-5.667413e-09
2.644813e-09
-6.175251e-09
3.324546e-09
-6.237748e-09
3.642764e-09
-6.425604e-09
3.533031e-09
-6.56385e-09
-6.669694e-09
2.589182e-09
6.809502e-10
-6.283709e-09
1.388367e-09
-6.439723e-09
1.784116e-09
-6.649691e-09
2.218636e-09
-6.853236e-09
2.391478e-09
-7.063385e-09
2.1921e-09
-7.218329e-09
-7.25619e-09
1.627365e-09
4.304434e-10
-6.805318e-09
8.899628e-10
-6.955023e-09
1.322919e-09
-7.129224e-09
1.689481e-09
-7.325326e-09
1.840656e-09
-7.517306e-09
1.638245e-09
-7.660986e-09
-7.745296e-09
1.154456e-09
2.783248e-10
-7.172396e-09
5.767124e-10
-7.305487e-09
8.835104e-10
-7.46836e-09
1.149169e-09
-7.649511e-09
1.296644e-09
-7.849247e-09
1.164628e-09
-7.979488e-09
-8.562399e-09
1.108871e-09
1.439246e-10
-7.397434e-09
2.877917e-10
-7.498984e-09
4.503918e-10
-7.656502e-09
6.340765e-10
-7.864482e-09
1.059243e-09
-8.388084e-09
9.851523e-10
-8.23568e-09
-8.361727e-09
1.283903e-10
2.708916e-11
-7.493189e-09
4.522508e-11
-7.561815e-09
8.058521e-11
-7.717588e-09
3.465486e-10
-8.150566e-09
9.021309e-11
-8.187763e-09
-4.919687e-11
-8.279047e-09
-8.410422e-09
-4.31705e-10
-6.891362e-11
-7.478958e-09
-4.266712e-11
-7.624197e-09
-9.471631e-11
-7.6928e-09
-3.63148e-10
-7.897672e-09
-5.219405e-10
-8.055478e-09
-6.617342e-10
-8.240268e-09
-8.713148e-09
-6.801199e-10
-1.109058e-10
-7.409581e-09
-3.395786e-10
-7.420678e-09
-5.5543e-10
-7.497771e-09
-8.066976e-10
-7.66263e-09
-1.003382e-09
-7.874659e-09
-9.849074e-10
-8.316031e-09
-8.240734e-09
-1.644579e-09
-2.46651e-10
-7.193649e-09
-5.12978e-10
-7.17032e-09
-7.947911e-10
-7.227869e-09
-1.099447e-09
-7.370925e-09
-1.23967e-09
-7.748521e-09
-1.820192e-09
-7.761713e-09
-7.959224e-09
-2.194474e-09
-3.242872e-10
-6.892841e-09
-6.430141e-10
-6.861281e-09
-9.649189e-10
-6.910503e-09
-1.192891e-09
-7.148428e-09
-1.794855e-09
-7.155129e-09
-2.296131e-09
-7.272772e-09
-7.468759e-09
-2.827204e-09
-3.760236e-10
-6.535937e-09
-7.344525e-10
-6.509476e-09
-1.009185e-09
-6.636231e-09
-1.549974e-09
-6.606648e-09
-2.052715e-09
-6.652795e-09
-2.548905e-09
-6.781885e-09
-6.821746e-09
-3.212008e-09
-4.060445e-10
-6.146223e-09
-7.379498e-10
-6.183591e-09
-1.234671e-09
-6.138739e-09
-1.706434e-09
-6.131131e-09
-2.169566e-09
-6.185124e-09
-2.786384e-09
-6.162345e-09
-6.186985e-09
-3.424288e-09
-3.919254e-10
-5.768486e-09
-8.589825e-10
-5.72287e-09
-1.317495e-09
-5.679975e-09
-1.754933e-09
-5.689479e-09
-2.308275e-09
-5.625046e-09
-2.879931e-09
-5.582856e-09
-5.760609e-09
-3.301429e-09
-4.388888e-10
-5.341909e-09
-8.906616e-10
-5.277386e-09
-1.341622e-09
-5.2293e-09
-1.821932e-09
-5.205083e-09
-2.331885e-09
-5.107656e-09
-2.868059e-09
-5.036608e-09
-5.093783e-09
-3.524257e-09
-4.465918e-10
-4.905847e-09
-8.860686e-10
-4.84367e-09
-1.314084e-09
-4.801772e-09
-1.806634e-09
-4.708633e-09
-2.290101e-09
-4.616576e-09
-2.675452e-09
-4.640411e-09
-4.333181e-09
-3.423119e-09
-4.355296e-10
-4.479363e-09
-8.515283e-10
-4.43299e-09
-1.303644e-09
-4.350311e-09
-1.752662e-09
-4.256097e-09
-2.157217e-09
-4.204748e-09
-2.712556e-09
-4.074423e-09
-3.780296e-09
-3.252508e-09
-4.179433e-10
-4.069185e-09
-8.343619e-10
-4.02146e-09
-1.252302e-09
-3.933152e-09
-1.665158e-09
-3.840209e-09
-2.047927e-09
-3.815421e-09
-2.570511e-09
-3.542269e-09
-3.30994e-09
-3.029137e-09
-3.892144e-10
-3.686618e-09
-7.904575e-10
-3.624652e-09
-1.18017e-09
-3.544297e-09
-1.484801e-09
-3.533066e-09
-1.976617e-09
-3.3179e-09
-2.389985e-09
-3.120672e-09
-2.902941e-09
-2.786705e-09
-3.71186e-10
-3.321084e-09
-7.388051e-10
-3.261039e-09
-1.097487e-09
-3.186588e-09
-1.469023e-09
-3.159608e-09
-1.840018e-09
-2.942242e-09
-2.194286e-09
-2.759419e-09
-2.548157e-09
-2.540241e-09
-3.439977e-10
-2.981861e-09
-6.790936e-10
-2.929561e-09
-9.580086e-10
-2.908723e-09
-1.354589e-09
-2.761504e-09
-1.684233e-09
-2.608751e-09
-1.997741e-09
-2.440021e-09
-2.240356e-09
-2.298056e-09
-3.153627e-10
-2.670513e-09
-5.859847e-10
-2.662236e-09
-9.31409e-10
-2.564384e-09
-1.24189e-09
-2.449936e-09
-1.531036e-09
-2.316477e-09
-1.807989e-09
-2.158159e-09
-1.97257e-09
-2.069476e-09
-2.865161e-10
-2.38735e-09
-5.736132e-10
-2.378145e-09
-8.564491e-10
-2.282616e-09
-1.126096e-09
-2.179503e-09
-1.384186e-09
-2.055859e-09
-1.629675e-09
-1.908621e-09
-1.737542e-09
-1.859451e-09
-2.428577e-10
-2.147287e-09
-5.203314e-10
-2.103351e-09
-7.742763e-10
-2.029696e-09
-1.015715e-09
-1.937526e-09
-1.24539e-09
-1.824172e-09
-1.46123e-09
-1.689478e-09
-1.533853e-09
-1.660592e-09
-2.363739e-10
-1.91321e-09
-4.716301e-10
-1.870488e-09
-6.97059e-10
-1.805258e-09
-9.128247e-10
-1.72143e-09
-1.116865e-09
-1.618552e-09
-1.306177e-09
-1.497476e-09
-1.36145e-09
-1.474957e-09
-2.127739e-10
-1.70229e-09
-4.2348e-10
-1.661917e-09
-6.254725e-10
-1.604213e-09
-8.184021e-10
-1.528336e-09
-1.000691e-09
-1.435035e-09
-1.169758e-09
-1.326197e-09
-1.222323e-09
-1.305766e-09
-1.916012e-10
-1.512159e-09
-3.791742e-10
-1.476254e-09
-5.597533e-10
-1.424531e-09
-7.318705e-10
-1.356183e-09
-8.939322e-10
-1.272044e-09
-1.044337e-09
-1.174022e-09
-1.081057e-09
-1.182993e-09
-1.711564e-10
-1.342132e-09
-3.386712e-10
-1.310445e-09
-4.998343e-10
-1.264208e-09
-6.531787e-10
-1.202899e-09
-7.971958e-10
-1.12734e-09
-9.305631e-10
-1.039262e-09
-9.54862e-10
-1.054664e-09
-1.525221e-10
-1.190436e-09
-3.019373e-10
-1.162547e-09
-4.455742e-10
-1.121347e-09
-5.8202e-10
-1.06658e-09
-7.097392e-10
-9.991202e-10
-8.267907e-10
-9.21109e-10
-8.426879e-10
-9.372902e-10
-1.356961e-10
-1.055294e-09
-2.688007e-10
-1.030784e-09
-3.967167e-10
-9.941377e-10
-5.182314e-10
-9.452366e-10
-6.313404e-10
-8.856619e-10
-7.216228e-10
-8.300118e-10
-7.312452e-10
-8.318016e-10
-1.205588e-10
-9.350405e-10
-2.389896e-10
-9.135308e-10
-3.527511e-10
-8.810126e-10
-4.606765e-10
-8.375111e-10
-5.615631e-10
-7.845572e-10
-6.550544e-10
-7.359272e-10
-6.453717e-10
-7.399763e-10
-1.069935e-10
-8.281258e-10
-2.122784e-10
-8.092701e-10
-3.133861e-10
-7.804686e-10
-4.092828e-10
-7.418286e-10
-4.990014e-10
-6.947227e-10
-5.835051e-10
-6.510143e-10
-5.709245e-10
-6.572554e-10
-9.487017e-11
-7.33126e-10
-1.884113e-10
-7.166092e-10
-2.782298e-10
-6.911402e-10
-3.633504e-10
-6.569228e-10
-4.424597e-10
-6.1557e-10
-5.182281e-10
-5.749897e-10
-5.049798e-10
-5.837015e-10
-8.406202e-11
-6.48742e-10
-1.671542e-10
-6.342624e-10
-2.470049e-10
-6.117076e-10
-3.223526e-10
-5.817869e-10
-3.842214e-10
-5.537505e-10
-4.594814e-10
-4.996291e-10
-4.458318e-10
-5.183648e-10
-7.442425e-11
-5.73817e-10
-1.481756e-10
-5.61129e-10
-2.190451e-10
-5.411867e-10
-2.863379e-10
-5.147027e-10
-3.498153e-10
-4.903915e-10
-4.086953e-10
-4.407692e-10
-3.940438e-10
-4.604003e-10
-6.584695e-11
-5.073014e-10
-1.312904e-10
-4.961817e-10
-1.942066e-10
-4.78549e-10
-2.540284e-10
-4.550775e-10
-3.113052e-10
-4.332737e-10
-3.628184e-10
-3.893717e-10
-3.480487e-10
-4.088851e-10
-5.822006e-11
-4.482523e-10
-1.162785e-10
-4.385012e-10
-1.721315e-10
-4.229036e-10
-2.253069e-10
-4.020807e-10
-2.762798e-10
-3.82496e-10
-3.220693e-10
-3.43787e-10
-3.071694e-10
-3.631596e-10
-5.144423e-11
-3.958231e-10
-1.029407e-10
-3.872651e-10
-1.524926e-10
-3.734835e-10
-1.994662e-10
-3.552554e-10
-2.451253e-10
-3.370527e-10
-2.859541e-10
-3.032382e-10
-2.708254e-10
-3.226327e-10
-4.543543e-11
-3.492472e-10
-9.113458e-11
-3.417073e-10
-1.349885e-10
-3.296844e-10
-1.72694e-10
-3.176806e-10
-2.171802e-10
-2.928046e-10
-2.539759e-10
-2.667901e-10
-2.384547e-10
-2.867916e-10
-4.007984e-11
-3.07867e-10
-8.05954e-11
-3.012091e-10
-1.197223e-10
-2.905307e-10
-1.574243e-10
-2.800814e-10
-1.932103e-10
-2.572672e-10
-2.25757e-10
-2.346488e-10
-2.09569e-10
-2.551871e-10
-3.531352e-11
-2.710823e-10
-7.123612e-11
-2.651691e-10
-1.060197e-10
-2.556268e-10
-1.400111e-10
-2.461413e-10
-1.716298e-10
-2.258927e-10
-2.008603e-10
-2.058701e-10
-1.836868e-10
-2.273776e-10
-3.106078e-11
-2.383602e-10
-6.290232e-11
-2.330598e-10
-9.384607e-11
-2.244588e-10
-1.242296e-10
-2.157562e-10
-1.525853e-10
-1.977808e-10
-1.78959e-10
-1.799951e-10
-1.603749e-10
-2.029954e-10
-2.724159e-11
-2.092369e-10
-5.544962e-11
-2.044102e-10
-8.301217e-11
-1.965535e-10
-1.102421e-10
-1.884668e-10
-1.358229e-10
-1.724439e-10
-1.597611e-10
-1.56607e-10
-1.392525e-10
-1.817017e-10
-2.377852e-11
-1.833089e-10
-4.873854e-11
-1.788018e-10
-7.333779e-11
-1.71477e-10
-9.785836e-11
-1.638275e-10
-1.210992e-10
-1.494555e-10
-1.430094e-10
-1.353114e-10
-1.199784e-10
-1.632085e-10
-2.057888e-11
-1.602405e-10
-4.261957e-11
-1.558626e-10
-6.464756e-11
-1.488227e-10
-8.689488e-11
-1.414108e-10
-1.082176e-10
-1.28415e-10
-1.28484e-10
-1.157505e-10
-1.022435e-10
-1.47276e-10
-1.75364e-11
-1.397646e-10
-3.69358e-11
-1.352597e-10
-5.670669e-11
-1.282675e-10
-7.719085e-11
-1.20731e-10
-9.702057e-11
-1.089395e-10
-1.160154e-10
-9.759749e-11
-8.576422e-11
-1.337289e-10
-1.451384e-11
-1.21696e-10
-3.150478e-11
-1.16703e-10
-4.852669e-11
-1.103329e-10
-6.855927e-11
-1.005425e-10
-8.740797e-11
-9.059611e-11
-1.05501e-10
-8.056152e-11
-7.533625e-11
-1.173675e-10
-1.129292e-11
-1.059884e-10
-2.62268e-11
-9.981061e-11
-4.316457e-11
-9.244798e-11
-6.125308e-11
-8.247358e-11
-7.936177e-11
-7.328447e-11
-9.266686e-11
-6.859495e-11
-6.055444e-11
-1.091708e-10
-7.616188e-12
-9.278591e-11
-2.081846e-11
-8.434693e-11
-3.7198e-11
-7.530645e-11
-5.494133e-11
-6.516486e-11
-6.951949e-11
-5.993096e-11
-8.6802e-11
-5.307833e-11
-4.664096e-11
-1.028302e-10
-3.117174e-12
-8.279917e-11
-1.514323e-11
-7.022748e-11
-3.169801e-11
-5.870263e-11
-4.739238e-11
-5.063281e-11
-6.549449e-11
-4.376413e-11
-8.260617e-11
-3.83434e-11
-3.356062e-11
-9.827352e-11
3.150501e-12
-7.952955e-11
-8.857713e-12
-5.773267e-11
-2.521377e-11
-4.372566e-11
-4.447533e-11
-3.384376e-11
-6.300034e-11
-2.821688e-11
-8.005021e-11
-2.44206e-11
-2.134004e-11
-9.539721e-11
1.534711e-11
-8.765014e-11
2.009369e-13
-4.533084e-11
-2.168151e-11
-2.581703e-11
-4.29222e-11
-1.702037e-11
-6.203432e-11
-1.336321e-11
-7.899488e-11
-1.14221e-11
-9.992471e-12
-9.401261e-11
3.857616e-11
9.885798e-12
-1.92339e-11
-4.295456e-11
-6.244177e-11
-7.917659e-11
-9.385891e-11
-1.068532e-10
9.513788e-12
-1.175347e-10
8.199893e-12
-6.312367e-11
6.991599e-12
-6.298204e-11
-6.457143e-11
1.325756e-12
6.575576e-11
-6.650741e-11
9.532472e-13
6.717555e-11
-6.775778e-11
1.228768e-12
6.867182e-11
-6.820995e-11
5.235219e-12
-1.07632e-10
1.883438e-11
-1.183437e-10
1.601005e-11
-6.390666e-11
1.271882e-11
-6.216993e-11
-2.660785e-12
-6.487246e-11
3.329085e-12
-1.731619e-12
6.607717e-11
-6.674808e-11
2.468023e-12
-1.707451e-12
6.713636e-11
-6.696389e-11
1.997173e-12
-2.222977e-12
6.584785e-11
-6.122486e-11
8.934198e-13
-1.095982e-10
2.890416e-11
-1.209642e-10
2.465085e-11
-1.306353e-10
2.060028e-11
-6.727534e-11
6.735636e-12
-5.076768e-12
-5.512892e-12
-6.763566e-11
7.364487e-12
-3.280195e-12
-6.788842e-11
3.945731e-12
-2.309761e-12
6.827649e-11
-6.819301e-11
2.684257e-12
-5.150433e-13
6.748727e-11
-6.404789e-11
3.960041e-13
-1.127266e-10
3.977381e-11
-1.241767e-10
3.358909e-11
-6.472096e-11
2.691066e-11
-6.752387e-11
-6.793331e-11
9.748764e-12
-5.035411e-12
6.923097e-11
-6.993997e-11
5.826095e-12
-3.138896e-12
7.041452e-11
-7.044416e-11
3.638329e-12
-4.257349e-13
6.989741e-11
-6.660635e-11
4.885842e-13
-1.175741e-10
5.162868e-11
-1.297989e-10
4.356409e-11
-6.95236e-11
3.520534e-11
-7.013569e-11
-1.12329e-11
-7.089539e-11
1.243304e-11
-6.732343e-12
7.214079e-11
-7.295648e-11
7.662545e-12
-4.175552e-12
7.347686e-11
-7.35556e-11
4.744481e-12
-5.703217e-13
7.304418e-11
-6.970576e-11
6.571315e-13
-1.241893e-10
6.447847e-11
-1.370246e-10
5.442753e-11
-7.318983e-11
4.404017e-11
-7.401773e-11
-1.45032e-11
-7.458155e-11
1.577311e-11
-8.674294e-12
-7.687511e-11
9.733683e-12
7.596076e-11
-5.345504e-12
7.745877e-11
-7.757543e-11
5.977085e-12
-7.523554e-13
7.707566e-11
-7.364233e-11
8.601007e-13
-1.327431e-10
7.835477e-11
-1.462288e-10
6.620464e-11
-7.79289e-11
5.361297e-11
-7.900752e-11
-7.922676e-11
1.93809e-11
-1.815853e-11
-1.096179e-11
7.943848e-11
-8.175389e-11
1.346189e-11
-6.646018e-12
8.245216e-11
-8.260848e-11
7.350388e-12
-9.732857e-13
8.211434e-11
-7.853572e-11
1.099255e-12
-1.433961e-10
8.711231e-11
-1.576348e-10
7.897805e-11
-8.383683e-11
6.403091e-11
-8.514821e-11
-2.206876e-11
-8.519721e-11
2.340035e-11
-1.485731e-11
-8.785234e-11
1.625023e-11
8.668123e-11
-8.0947e-12
8.857013e-11
-8.876223e-11
8.875486e-12
-1.236465e-12
8.826329e-11
-8.449399e-11
1.387455e-12
-1.634191e-10
1.028022e-10
-1.714129e-10
8.570458e-11
-9.095996e-11
7.537136e-11
-9.252956e-11
-9.231191e-11
2.778761e-11
-2.642075e-11
-1.774691e-11
9.389134e-11
-9.515035e-11
1.927159e-11
-9.700237e-12
9.592731e-11
-9.615115e-11
1.056234e-11
-1.55798e-12
9.564269e-11
-9.163611e-11
1.744165e-12
-1.802681e-10
1.198072e-10
-1.957624e-10
1.001159e-10
-9.941447e-11
7.972304e-11
-1.012611e-10
-3.118168e-11
-1.00768e-10
3.259408e-11
-2.090811e-11
1.024439e-10
-1.03796e-10
2.257359e-11
-1.146935e-11
1.046351e-10
-1.048819e-10
1.241239e-11
-1.9509e-12
1.043426e-10
-1.000211e-10
2.153966e-12
-2.00002e-10
1.383882e-10
-2.166103e-10
1.158294e-10
-1.135297e-10
9.241078e-11
-1.161477e-10
-3.64112e-11
-1.1072e-10
3.370534e-11
-2.436413e-11
1.124712e-10
-1.139195e-10
2.617821e-11
-1.339676e-11
1.14824e-10
-1.150921e-10
1.442753e-11
-2.349643e-12
1.144991e-10
-1.097504e-10
2.522008e-12
-2.228405e-10
1.588176e-10
-2.408232e-10
1.330916e-10
-1.2593e-10
1.062895e-10
-1.289611e-10
-3.775429e-11
-1.269625e-10
3.893974e-11
-2.814199e-11
1.286306e-10
-1.255793e-10
2.551783e-11
-1.550892e-11
1.266541e-10
-1.269501e-10
1.66439e-11
-2.720584e-12
1.263331e-10
-1.211833e-10
2.969181e-12
-2.491063e-10
1.814266e-10
-2.687224e-10
1.52158e-10
-1.40251e-10
1.215681e-10
-1.437458e-10
-4.346441e-11
-1.412528e-10
4.467152e-11
-2.740702e-11
1.429799e-10
-1.443632e-10
2.929268e-11
-1.78372e-11
1.451163e-10
-1.40506e-10
1.416241e-11
-3.259771e-12
1.399391e-10
-1.342929e-10
3.573347e-12
-2.791508e-10
2.065772e-10
-3.00715e-10
1.73347e-10
-1.567089e-10
1.384888e-10
-1.607198e-10
-4.972623e-11
-1.576811e-10
5.09605e-11
-3.133295e-11
1.594829e-10
-1.6093e-10
3.336091e-11
-1.514491e-11
1.616726e-10
-1.616132e-10
1.614339e-11
-3.941846e-12
1.605096e-10
-1.493372e-10
-5.839659e-13
-3.134128e-10
2.347126e-10
-3.3728e-10
1.970234e-10
-1.755717e-10
1.573845e-10
-1.801787e-10
-5.662353e-11
-1.765246e-10
5.790146e-11
-3.554551e-11
1.784066e-10
-1.798929e-10
3.770101e-11
-1.711567e-11
1.805503e-10
-1.802677e-10
1.801791e-11
4.174727e-13
1.788317e-10
-1.711718e-10
-2.768062e-13
-3.523424e-10
2.662868e-10
-3.789555e-10
2.23645e-10
-1.971547e-10
1.786845e-10
-2.024375e-10
-6.426614e-11
-1.981489e-10
6.565605e-11
-4.003641e-11
2.001838e-10
-2.017394e-10
4.236172e-11
-1.87305e-11
2.022558e-10
-2.014514e-10
1.92565e-11
8.908106e-13
1.988967e-10
-1.888311e-10
-2.220233e-12
-3.964625e-10
3.018243e-10
-4.262759e-10
2.536857e-10
-2.217728e-10
2.029507e-10
-2.278437e-10
-7.28839e-11
-2.22804e-10
7.438859e-11
-4.5026e-11
2.250658e-10
-2.271877e-10
4.803421e-11
-1.96442e-11
2.280807e-10
-2.273166e-10
2.038114e-11
5.468433e-12
2.23448e-10
-2.046948e-10
-1.436739e-11
-4.462748e-10
3.418374e-10
-4.797086e-10
2.875873e-10
-2.495793e-10
2.304159e-10
-2.563827e-10
-8.32864e-11
-2.509496e-10
8.521313e-11
-4.683918e-11
2.543099e-10
-2.565172e-10
5.018041e-11
-2.23176e-11
2.581866e-10
-2.585453e-10
2.437497e-11
4.370549e-12
2.565523e-10
-2.409523e-10
-8.168712e-12
-5.024421e-10
3.869207e-10
-5.399236e-10
3.258029e-10
-2.809235e-10
2.614422e-10
-2.884951e-10
-9.466391e-11
-2.825893e-10
9.698086e-11
-5.412505e-11
2.863577e-10
-2.890698e-10
5.812863e-11
-2.706086e-11
2.912883e-10
-2.928659e-10
3.055726e-11
9.371318e-12
2.94877e-10
-2.947098e-10
4.232865e-12
-5.656738e-10
4.377424e-10
-6.076963e-10
3.688524e-10
-3.160701e-10
2.96294e-10
-3.245943e-10
-1.076529e-10
-3.178558e-10
1.101995e-10
-6.249201e-11
3.219774e-10
-3.247212e-10
6.671307e-11
-3.326806e-11
3.266694e-10
-3.271618e-10
3.591231e-11
9.4375e-14
3.25743e-10
-3.142383e-10
2.713916e-12
-6.368818e-10
4.949892e-10
-6.840812e-10
4.173985e-10
-3.55699e-10
3.355296e-10
-3.65354e-10
-1.221153e-10
-3.57539e-10
1.248372e-10
-7.13008e-11
3.619548e-10
-3.647369e-10
7.577015e-11
-3.824971e-11
3.665296e-10
-3.665115e-10
4.065069e-11
-7.034514e-13
3.638914e-10
-3.486606e-10
1.011934e-12
-7.170462e-10
5.595187e-10
-7.701786e-10
4.722277e-10
-4.007782e-10
3.806871e-10
-4.118893e-10
-1.381001e-10
-4.02302e-10
1.406331e-10
-8.070075e-11
4.070842e-10
-4.10055e-10
8.559348e-11
-4.304736e-11
4.119397e-10
-4.118114e-10
4.564137e-11
-4.202176e-14
4.087471e-10
-3.91465e-10
-9.967315e-14
-8.071185e-10
6.3222e-10
-8.663027e-10
5.335113e-10
-4.553283e-10
4.277759e-10
-4.54928e-10
-1.544966e-10
-4.509631e-10
1.512488e-10
-9.112668e-11
4.578504e-10
-4.610618e-10
9.650771e-11
-4.839429e-11
4.633291e-10
-4.633891e-10
5.151184e-11
4.209923e-13
4.600328e-10
-4.409091e-10
-5.594336e-13
-9.087652e-10
7.1567e-10
-9.768903e-10
6.04234e-10
-1.03681e-09
4.917198e-10
-5.235176e-10
1.754733e-10
-1.560886e-10
-1.644723e-10
-5.379921e-10
1.75639e-10
-1.109908e-10
-5.299869e-10
1.196227e-10
-5.43262e-11
5.228494e-10
-5.220848e-10
5.700385e-11
7.264498e-13
5.181813e-10
-4.970231e-10
-8.265281e-13
-1.022262e-09
8.082785e-10
-1.094908e-09
6.799e-10
-5.523301e-10
5.438555e-10
-5.904933e-10
-5.803439e-10
2.05112e-10
-1.354744e-10
5.817344e-10
-5.862034e-10
1.422788e-10
-6.088604e-11
5.879672e-10
-5.880348e-10
6.481447e-11
1.002408e-12
5.837964e-10
-5.603222e-10
-1.125946e-12
-1.152591e-09
9.145799e-10
-1.237027e-09
7.679375e-10
-6.445643e-10
6.180707e-10
-6.618122e-10
-2.259986e-10
-6.48194e-10
2.312919e-10
-1.50901e-10
6.556611e-10
-6.61893e-10
1.597762e-10
-6.879549e-11
6.632529e-10
-6.630805e-10
7.295671e-11
1.321314e-12
6.581276e-10
-6.319996e-10
-1.530499e-12
-1.300353e-09
1.041112e-09
-1.393422e-09
8.654121e-10
-7.2482e-10
6.997604e-10
-7.445157e-10
-2.557961e-10
-7.29028e-10
2.619072e-10
-1.699168e-10
7.38438e-10
-7.457609e-10
1.801959e-10
-7.724796e-11
7.478431e-10
-7.474617e-10
8.174759e-11
1.807832e-12
7.420199e-10
-7.130376e-10
-2.020867e-12
-1.472087e-09