/*--------------------------------*- C++ -*----------------------------------*\
| =========                 |                                                 |
| \\      /  F ield         | OpenFOAM: The Open Source CFD Toolbox           |
|  \\    /   O peration     | Version:  2206                                  |
|   \\  /    A nd           | Website:  www.openfoam.com                      |
|    \\/     M anipulation  |                                                 |
\*---------------------------------------------------------------------------*/
FoamFile
{
    version     2.0;
    format      ascii;
    arch        "LSB;label=32;scalar=64";
    class       volVectorField;
    location    "1";
    object      U;
}
// * * * * * * * * * * * * * * * * * * * * * * * * * * * * * * * * * * * * * //

dimensions      [0 1 -1 0 0 0 0];

internalField   nonuniform List<vector> 
13078
(
(2.095274e-06 -2.354544e-05 -5.034228e-28)
(1.195409e-06 -1.008985e-05 -1.019097e-30)
(1.120399e-06 -1.15637e-05 3.512156e-28)
(1.119151e-06 -1.284534e-05 0)
(1.07709e-06 -1.469739e-05 -1.337515e-28)
(1.009383e-06 -1.643132e-05 -2.370942e-28)
(9.25347e-07 -1.80592e-05 -3.236011e-28)
(1.762579e-06 -1.210846e-05 0)
(6.360038e-07 -8.198294e-06 -7.426574e-30)
(2.430625e-06 -9.783712e-06 0)
(2.628096e-06 -1.220461e-05 0)
(2.680162e-06 -1.438871e-05 -2.819016e-30)
(2.602454e-06 -1.632795e-05 -1.238081e-30)
(2.430508e-06 -1.807665e-05 -2.186875e-30)
(1.308557e-05 -3.302733e-06 9.816498e-28)
(7.899149e-06 -5.514221e-06 -6.891532e-28)
(5.860284e-06 -8.469024e-06 -5.631296e-29)
(5.164216e-06 -1.130394e-05 1.018644e-28)
(4.79533e-06 -1.384171e-05 1.610688e-28)
(4.474034e-06 -1.608515e-05 0)
(4.104912e-06 -1.80602e-05 -1.93423e-33)
(1.547197e-05 -1.647369e-06 8.837725e-28)
(1.178333e-05 -4.347283e-06 -1.494594e-27)
(9.510909e-06 -7.545395e-06 -1.219924e-27)
(8.116443e-06 -1.055821e-05 -4.969724e-28)
(7.322739e-06 -1.340626e-05 1.383223e-29)
(6.658645e-06 -1.592491e-05 0)
(6.007328e-06 -1.813914e-05 5.341482e-30)
(1.716638e-05 -1.326065e-06 1.301347e-32)
(1.490035e-05 -3.961831e-06 -8.336971e-28)
(1.290328e-05 -7.148654e-06 -1.474307e-27)
(1.13385e-05 -1.031364e-05 -1.303319e-27)
(1.008371e-05 -1.323994e-05 3.209206e-28)
(9.103651e-06 -1.600736e-05 -2.696468e-32)
(8.13552e-06 -1.843942e-05 3.664881e-28)
(1.944066e-05 -1.377422e-06 0)
(1.791843e-05 -4.087217e-06 3.200545e-30)
(1.620736e-05 -7.26346e-06 -6.647564e-30)
(1.459509e-05 -1.048402e-05 -7.862427e-28)
(1.312504e-05 -1.356961e-05 3.237224e-29)
(1.173099e-05 -1.639152e-05 -3.30486e-28)
(1.046967e-05 -1.903984e-05 -8.438239e-28)
(2.214495e-05 -1.532966e-06 0)
(2.103723e-05 -4.462605e-06 -1.086122e-27)
(1.95362e-05 -7.741835e-06 -1.155407e-27)
(1.795419e-05 -1.102169e-05 -2.105023e-28)
(1.628429e-05 -1.425491e-05 -8.125931e-28)
(1.464781e-05 -1.725967e-05 4.733678e-29)
(1.296699e-05 -1.996709e-05 0)
(2.527016e-05 -1.722355e-06 2.561874e-27)
(2.438234e-05 -4.960393e-06 -1.244712e-27)
(2.303422e-05 -8.424723e-06 -1.18261e-27)
(2.141067e-05 -1.191265e-05 0)
(1.959687e-05 -1.530953e-05 -2.01169e-27)
(1.772157e-05 -1.848629e-05 5.334074e-29)
(1.576225e-05 -2.139103e-05 6.366821e-29)
(2.883384e-05 -1.934334e-06 2.46414e-31)
(2.804798e-05 -5.553206e-06 2.846869e-27)
(2.675637e-05 -9.319602e-06 1.388393e-27)
(2.508186e-05 -1.30667e-05 3.758318e-29)
(2.3115e-05 -1.669609e-05 -4.652432e-27)
(2.100281e-05 -2.009083e-05 6.017571e-29)
(1.873818e-05 -2.320242e-05 0)
(3.286984e-05 -2.168846e-06 -3.323408e-27)
(3.211472e-05 -6.229556e-06 3.250437e-27)
(3.081132e-05 -1.0381e-05 1.561508e-27)
(2.904801e-05 -1.446712e-05 -2.926261e-27)
(2.690245e-05 -1.840107e-05 -1.539107e-30)
(2.453809e-05 -2.207087e-05 0)
(2.195286e-05 -2.543414e-05 0)
(3.742559e-05 -2.430037e-06 0)
(3.665412e-05 -6.995371e-06 0)
(3.528644e-05 -1.160758e-05 3.565937e-27)
(3.339065e-05 -1.611286e-05 -3.353684e-27)
(3.103091e-05 -2.042618e-05 1.81409e-30)
(2.83856e-05 -2.443558e-05 0)
(2.545273e-05 -2.810382e-05 0)
(4.256107e-05 -2.723033e-06 0)
(4.173897e-05 -7.861697e-06 -4.212712e-27)
(4.02636e-05 -1.301078e-05 4.063732e-27)
(3.81913e-05 -1.80151e-05 3.769001e-27)
(3.557656e-05 -2.278554e-05 -3.646742e-27)
(3.26116e-05 -2.72049e-05 0)
(2.929321e-05 -3.123885e-05 3.115381e-27)
(4.834789e-05 -3.053045e-06 0)
(4.744789e-05 -8.842221e-06 -4.81506e-27)
(4.58264e-05 -1.460871e-05 -4.599786e-29)
(4.353248e-05 -2.019386e-05 4.356476e-27)
(4.062183e-05 -2.55033e-05 -4.073035e-27)
(3.72883e-05 -3.040931e-05 3.726411e-27)
(3.353769e-05 -3.487586e-05 3.037043e-30)
(5.486964e-05 -3.425658e-06 -5.541704e-27)
(5.386771e-05 -9.952029e-06 0)
(5.206392e-05 -1.642446e-05 -5.204584e-29)
(4.949352e-05 -2.267441e-05 -7.215367e-29)
(4.626605e-05 -2.860377e-05 -9.268499e-27)
(4.249336e-05 -3.408786e-05 4.24459e-27)
(3.825728e-05 -3.906044e-05 -3.799816e-27)
(6.222189e-05 -3.846512e-06 -6.284566e-27)
(6.109662e-05 -1.120861e-05 0)
(5.908191e-05 -1.849434e-05 -1.174747e-28)
(5.61709e-05 -2.554387e-05 6.725629e-27)
(5.267729e-05 -3.2068e-05 -3.683446e-27)
(4.832363e-05 -3.82747e-05 0)
(4.353284e-05 -4.38452e-05 4.315414e-27)
(7.051161e-05 -4.320591e-06 0)
(6.923878e-05 -1.262191e-05 -6.978486e-27)
(6.698282e-05 -2.080109e-05 0)
(6.379973e-05 -2.864172e-05 6.594894e-27)
(5.97639e-05 -3.610391e-05 2.319428e-28)
(5.485731e-05 -4.305019e-05 2.783648e-28)
(4.945138e-05 -4.929768e-05 5.223161e-27)
(7.98606e-05 -4.856458e-06 0)
(7.841449e-05 -1.422277e-05 -1.580587e-26)
(7.587133e-05 -2.343214e-05 -7.516793e-29)
(7.230375e-05 -3.224763e-05 -1.037745e-28)
(6.77425e-05 -4.065132e-05 0)
(6.220837e-05 -4.846197e-05 0)
(5.610832e-05 -5.548707e-05 0)
(9.040699e-05 -5.461182e-06 -9.119996e-27)
(8.876138e-05 -1.602889e-05 -8.971172e-27)
(8.589112e-05 -2.640035e-05 -1.69891e-28)
(8.187119e-05 -3.632474e-05 -1.170895e-28)
(7.67249e-05 -4.578206e-05 0)
(7.049552e-05 -5.457894e-05 -7.362195e-27)
(6.360734e-05 -6.249293e-05 -8.125523e-28)
(0.0001023049 -6.142295e-06 -1.032111e-26)
(0.0001004308 -1.806432e-05 -1.014582e-26)
(9.718934e-05 -2.974683e-05 -2.873755e-28)
(9.265319e-05 -4.092491e-05 -2.641194e-28)
(8.682518e-05 -5.156204e-05 0)
(7.988055e-05 -6.145944e-05 -7.944037e-27)
(7.206162e-05 -7.040688e-05 -4.574916e-28)
(0.0001157265 -6.908938e-06 -1.168363e-26)
(0.0001135918 -2.035544e-05 -2.288456e-26)
(0.0001099354 -3.351863e-05 -1.105506e-26)
(0.0001048352 -4.614335e-05 0)
(9.821411e-05 -5.823015e-05 2.859269e-27)
(9.0677e-05 -6.907546e-05 4.333505e-27)
(8.161846e-05 -7.931256e-05 1.027962e-27)
(0.0001308631 -7.76963e-06 -1.32253e-26)
(0.0001284307 -2.292699e-05 -2.583238e-26)
(0.0001243042 -3.774092e-05 -2.48764e-26)
(0.0001185824 -5.191495e-05 -1.156412e-26)
(0.0001113343 -6.532828e-05 4.223405e-28)
(0.0001026255 -7.788963e-05 -1.002026e-26)
(9.239379e-05 -8.937563e-05 8.522549e-27)
(0.0001479293 -8.736922e-06 0)
(0.0001451574 -2.581762e-05 -1.453547e-26)
(0.0001405002 -4.249847e-05 -1.398936e-26)
(0.0001340563 -5.846998e-05 -2.689939e-26)
(0.0001259346 -7.356939e-05 0)
(0.0001160993 -8.775245e-05 -1.133974e-26)
(0.0001045813 -0.0001007071 1.404252e-29)
(0.0001671634 -9.820863e-06 1.687216e-26)
(0.0001640079 -2.905859e-05 0)
(0.0001587615 -4.783476e-05 0)
(0.0001515157 -6.5825e-05 4.137489e-28)
(0.0001423819 -8.283748e-05 1.475307e-26)
(0.0001312636 -9.880379e-05 0)
(0.0001184407 -0.0001134024 -1.16608e-26)
(0.0001888277 -1.103236e-05 3.811737e-26)
(0.0001852408 -3.268177e-05 0)
(0.0001793439 -5.380459e-05 0)
(0.0001712213 -7.407224e-05 1.669016e-26)
(0.0001610054 -9.332633e-05 3.155826e-26)
(0.0001484499 -0.0001115983 -1.471696e-26)
(0.0001345292 -0.0001274519 0)
(0.0002132076 -1.238172e-05 2.151943e-26)
(0.0002091364 -3.671779e-05 1.18208e-28)
(0.0002025223 -6.045408e-05 2.052448e-26)
(0.0001934319 -8.323768e-05 5.362414e-28)
(0.0001820514 -0.0001048295 6.936005e-28)
(0.0001683778 -0.0001250435 -1.670153e-26)
(0.0001523528 -0.0001436844 0)
(0.0002406109 -1.387855e-05 0)
(0.0002360012 -4.119867e-05 -2.373618e-26)
(0.0002286017 -6.784967e-05 2.295229e-26)
(0.000218452 -9.347189e-05 0)
(0.000205751 -0.0001178158 -1.902437e-26)
(0.000190541 -0.0001406392 3.627462e-27)
(0.0001725426 -0.0001618522 2.089061e-27)
(0.0002713628 -1.55282e-05 -2.737749e-26)
(0.0002661671 -4.61454e-05 -2.677585e-26)
(0.0002579173 -7.602859e-05 2.586983e-26)
(0.0002466352 -0.0001048072 0)
(0.0002325237 -0.0001322202 -1.702411e-27)
(0.0002156026 -0.000157995 -2.939159e-30)
(0.0001954806 -0.000182067 2.347563e-27)
(0.0003057904 -1.733313e-05 -3.08553e-26)
(0.0002999982 -5.15528e-05 -3.01561e-26)
(0.0002908194 -8.501356e-05 2.918028e-26)
(0.0002783397 -0.0001172889 0)
(0.0002627437 -0.0001481324 0)
(0.0002440855 -0.0001773693 -2.418525e-26)
(0.0002218162 -0.0002052513 1.734124e-27)
(0.00034423 -1.925852e-05 -3.478672e-26)
(0.0003378595 -5.741717e-05 -3.415839e-26)
(0.0003276713 -9.481556e-05 0)
(0.0003139384 -0.000130931 2.969044e-26)
(0.0002967483 -0.0001655039 -2.133716e-27)
(0.0002761768 -0.0001980999 -5.218858e-26)
(0.0002519716 -0.0002281124 8.774408e-27)
(0.0003869313 -2.143612e-05 -3.904083e-26)
(0.0003803201 -6.347608e-05 0)
(0.0003689168 -0.0001053395 -3.76382e-26)
(0.0003538763 -0.0001457742 3.445024e-26)
(0.0003350479 -0.0001846481 -3.333802e-26)
(0.0003123804 -0.000221636 -6.187292e-26)
(0.0002854492 -0.0002562877 -2.802777e-26)
(0.0004347091 -2.34276e-05 0)
(0.0004270555 -7.022222e-05 0)
(0.0004149548 -0.0001165428 -8.316056e-26)
(0.0003986282 -0.0001617024 0)
(0.0003782424 -0.000205331 -7.529798e-26)
(0.0003536879 -0.0002472398 -3.50389e-26)
(0.000324475 -0.0002872451 3.185771e-26)
(0.0004873251 -2.581691e-05 -4.9373e-26)
(0.0004785285 -7.758718e-05 4.768128e-26)
(0.0004664894 -0.0001276451 4.623395e-26)
(0.000448887 -0.0001782121 0)
(0.0004268047 -0.0002272475 -4.251002e-26)
(0.0004005627 -0.0002744482 0)
(0.0003692575 -0.0003195902 2.810618e-26)
(0.0005450939 -2.808423e-05 -5.506436e-26)
(0.0005361283 -8.418667e-05 5.40238e-26)
(0.0005223235 -0.000140414 1.567248e-25)
(0.0005056669 -0.0001944538 1.023293e-25)
(0.0004813876 -0.0002499517 -4.462481e-26)
(0.0004536644 -0.0003033202 3.900126e-27)
(0.000420265 -0.0003549102 -4.551862e-27)
(0.0006078848 -3.035427e-05 9.562221e-29)
(0.0005984381 -9.088959e-05 2.948962e-28)
(0.0005848788 -0.0001511136 6.078041e-26)
(0.0005668027 -0.00021176 1.094466e-25)
(0.0005426381 -0.0002728296 -6.104062e-26)
(0.0005138839 -0.0003331852 8.572745e-27)
(0.0004789951 -0.0003922797 2.018317e-26)
(0.0006756047 -3.252125e-05 -1.024284e-28)
(0.0006656018 -9.751368e-05 -3.170087e-28)
(0.0006522241 -0.0001626431 6.364584e-26)
(0.0006333531 -0.000229391 3.956087e-26)
(0.0006120088 -0.0002935647 -3.527855e-26)
(0.0005826286 -0.0003623419 4.825525e-26)
(0.0005465325 -0.0004303696 0)
(0.0007478108 -3.436689e-05 0)
(0.0007373135 -0.0001031199 0)
(0.0007246332 -0.0001720887 7.316063e-26)
(0.0007080779 -0.0002425865 7.738333e-26)
(0.00068577 -0.0003163014 1.057399e-25)
(0.0006619659 -0.0003882663 1.022341e-25)
(0.000624174 -0.0004675386 0)
(0.0008237122 -3.577783e-05 -2.25544e-28)
(0.0008127846 -0.000107477 6.774755e-28)
(0.0008010248 -0.0001796966 2.338791e-27)
(0.0007868234 -0.0002536675 0)
(0.0007686033 -0.0003306113 1.544141e-25)
(0.0007461498 -0.0004128217 -1.056643e-26)
(0.0007133864 -0.0005010232 -2.576469e-26)
(0.0009021623 -3.655991e-05 -9.099663e-26)
(0.000891001 -0.0001100218 7.233976e-28)
(0.0008806304 -0.0001845041 -8.914964e-26)
(0.0008694313 -0.000261689 0)
(0.0008559641 -0.0003437508 9.509216e-26)
(0.0008366847 -0.0004341718 1.596272e-26)
(0.0008175546 -0.0005257925 -1.248853e-25)
(0.0009815312 -3.650504e-05 -9.912647e-26)
(0.0009706255 -0.0001100137 -9.762997e-26)
(0.0009620442 -0.0001852936 -9.771124e-26)
(0.000954789 -0.0002638316 -6.83262e-27)
(0.0009476842 -0.0003477431 -1.803579e-26)
(0.0009377197 -0.0004392289 6.029272e-26)
(0.0009251474 -0.0005435134 -5.572658e-26)
(0.001060083 -3.580688e-05 0)
(0.001049933 -0.0001065411 1.047684e-25)
(0.001043751 -0.0001809702 1.061385e-25)
(0.001040962 -0.0002595738 3.416457e-27)
(0.00104121 -0.0003446463 -1.145783e-25)
(0.001041633 -0.0004401312 -1.145777e-26)
(0.001037202 -0.0005521436 0)
(0.001136735 -3.340762e-05 1.154631e-25)
(0.001124987 -0.0001014785 2.246422e-25)
(0.001123469 -0.00016985 1.068419e-25)
(0.001126147 -0.0002465717 2.295879e-25)
(0.001134246 -0.0003303204 -1.242093e-25)
(0.001147188 -0.000424592 1.049048e-25)
(0.001159687 -0.0005346948 2.719742e-26)
(0.001207496 -2.984258e-05 1.227001e-25)
(0.001195893 -9.085958e-05 -6.308001e-28)
(0.001195256 -0.0001553331 0)
(0.001207391 -0.0002230779 2.868434e-27)
(0.0012244 -0.0003043085 2.492878e-25)
(0.001248799 -0.0003979798 2.532035e-25)
(0.001275427 -0.0005123273 -1.277212e-25)
(0.00126938 -2.475113e-05 -1.294276e-25)
(0.001257494 -7.667301e-05 1.048572e-27)
(0.001261308 -0.0001319228 1.837329e-27)
(0.001276878 -0.0001948512 -2.752328e-25)
(0.001308666 -0.000266317 2.443755e-25)
(0.001342418 -0.0003635691 -1.349077e-25)
(0.001376565 -0.0004875719 -1.374234e-25)
(0.001318958 -1.80151e-05 -1.348152e-25)
(0.001307854 -5.873546e-05 0)
(0.001316359 -0.000103599 2.887837e-27)
(0.001341053 -0.0001573723 -3.753674e-27)
(0.001375105 -0.0002305961 -1.223068e-26)
(0.001419821 -0.0003291848 -2.865786e-25)
(0.001461787 -0.0004715904 -1.606811e-28)
(0.001353271 -1.004604e-05 0)
(0.001345232 -3.72614e-05 1.147771e-27)
(0.00135919 -7.08022e-05 2.203063e-27)
(0.001392461 -0.0001195996 3.386074e-27)
(0.001428379 -0.0001961279 5.593638e-27)
(0.001467452 -0.000308146 5.023856e-26)
(0.001526837 -0.0004512717 8.891962e-26)
(0.001370528 -1.086934e-06 0)
(0.001367036 -1.397181e-05 1.419239e-25)
(0.001386533 -3.659688e-05 1.849233e-27)
(0.001423245 -8.459362e-05 4.903765e-27)
(0.001459691 -0.0001700224 9.952701e-27)
(0.001499383 -0.0002894479 1.653947e-26)
(0.001560361 -0.000451961 2.884835e-26)
(0.001367875 8.575312e-06 -1.40331e-25)
(0.001372327 1.122652e-05 1.422957e-25)
(0.00139524 -5.832766e-06 3.787976e-28)
(0.001426224 -5.656732e-05 -1.477621e-25)
(0.001464964 -0.0001457527 -8.996042e-27)
(0.001507011 -0.0002741003 -1.816751e-26)
(0.001573225 -0.0004305046 -1.471808e-25)
(0.001343118 1.866708e-05 -3.63583e-29)
(0.00135557 3.501464e-05 -2.013043e-28)
(0.001378649 2.025917e-05 4.040747e-29)
(0.001407524 -3.221649e-05 -4.558961e-27)
(0.001443137 -0.0001286461 -9.488893e-27)
(0.00148998 -0.0002587995 1.468538e-25)
(0.001564416 -0.0004210724 -1.436435e-25)
(0.001293635 2.776404e-05 1.323588e-25)
(0.001311464 5.644269e-05 1.354284e-25)
(0.00133459 4.463335e-05 -1.378918e-25)
(0.001364462 -9.44873e-06 1.390609e-25)
(0.001403294 -0.0001062789 -1.512847e-25)
(0.001458641 -0.0002395841 2.59846e-25)
(0.001531089 -0.0004133274 1.466297e-25)
(0.001216887 3.456178e-05 1.241726e-25)
(0.001237198 7.470083e-05 1.272115e-25)
(0.001261909 6.839924e-05 -1.295781e-25)
(0.00129542 1.564421e-05 1.311248e-25)
(0.001342536 -8.217789e-05 -1.233403e-25)
(0.001411066 -0.0002135788 1.326821e-25)
(0.00148821 -0.0003776381 -1.724237e-25)
(0.001109486 4.025277e-05 1.14173e-25)
(0.00113007 9.016816e-05 5.498944e-27)
(0.00115901 9.095174e-05 2.716667e-27)
(0.001198611 4.50992e-05 1.226015e-25)
(0.001255438 -4.661497e-05 -5.644704e-27)
(0.001334033 -0.0001621691 -1.485543e-25)
(0.00141793 -0.0003091051 -1.152462e-25)
(0.0009686653 4.179021e-05 4.940371e-26)
(0.0009896174 0.0001031305 1.732417e-27)
(0.001020809 0.000121309 1.345697e-27)
(0.001062786 8.330027e-05 1.055719e-31)
(0.001125951 6.6091e-06 5.411644e-26)
(0.001205227 -8.017648e-05 -1.053344e-25)
(0.001280789 -0.0002051062 1.735346e-25)
(0.0007967177 4.376274e-05 4.060317e-26)
(0.000817293 0.0001154199 7.743816e-30)
(0.0008468338 0.0001443886 4.317351e-26)
(0.0008878749 0.0001254356 -1.684361e-30)
(0.0009470805 7.903671e-05 3.092031e-26)
(0.001009363 2.819146e-05 1.16721e-26)
(0.00104197 -8.125252e-05 2.238954e-25)
(0.0005969897 4.649657e-05 -3.030253e-26)
(0.0006154479 0.0001288503 3.223607e-26)
(0.0006420219 0.0001717793 3.312155e-26)
(0.0006798866 0.0001728713 1.584476e-30)
(0.0007297425 0.0001578809 7.831888e-27)
(0.0007678683 0.0001414613 5.266037e-26)
(0.0007433946 7.987703e-05 6.445156e-26)
(0.0003744299 4.952173e-05 -1.897021e-26)
(0.0003877491 0.0001410487 2.017077e-26)
(0.0004076625 0.0001972807 -1.103115e-29)
(0.0004354629 0.0002176741 1.090332e-26)
(0.000468925 0.0002290734 3.241577e-29)
(0.0004864142 0.0002370847 -1.169775e-26)
(0.0004459003 0.0002007125 3.019784e-26)
(0.0001327031 5.262455e-05 2.110234e-28)
(0.0001373527 0.0001499184 -1.278081e-31)
(0.0001448747 0.000214528 -1.337406e-27)
(0.0001552747 0.0002468379 4.383924e-27)
(0.0001668446 0.0002726182 7.590814e-27)
(0.0001695475 0.0002922545 1.339004e-26)
(0.0001485256 0.0002611414 -6.212143e-26)
(-0.0001202476 5.287199e-05 -1.903743e-28)
(-0.000125108 0.0001505441 -3.219832e-27)
(-0.0001326458 0.0002154713 3.570874e-27)
(-0.0001435638 0.0002478962 -3.448056e-27)
(-0.0001575964 0.000273503 7.462453e-27)
(-0.0001655408 0.0002930089 3.4292e-30)
(-0.0001519968 0.0002620353 -6.113988e-26)
(-0.0003630964 5.017296e-05 -1.460071e-35)
(-0.0003765489 0.0001427499 -9.613118e-27)
(-0.0003964308 0.000199862 1.005972e-26)
(-0.0004245632 0.000220529 -1.047633e-26)
(-0.000460087 0.0002312743 -1.144821e-29)
(-0.0004822853 0.0002384018 1.720294e-26)
(-0.00044796 0.0002020125 3.005137e-26)
(-0.000587488 4.739209e-05 -5.119632e-33)
(-0.0006060603 0.0001312103 -3.096422e-26)
(-0.0006327426 0.00017541 -1.918902e-31)
(-0.0006710562 0.0001769091 -4.24139e-28)
(-0.0007228737 0.0001604211 -3.549309e-27)
(-0.0007653256 0.0001422152 3.385672e-26)
(-0.0007439159 7.980754e-05 1.195265e-25)
(-0.0007895277 4.479163e-05 4.021765e-26)
(-0.0008100824 0.0001180837 -4.143019e-26)
(-0.0008398354 0.000148457 8.625685e-28)
(-0.0008813547 0.0001300557 8.745328e-26)
(-0.0009418127 8.102185e-05 4.992311e-30)
(-0.001006973 2.680468e-05 1.305379e-26)
(-0.001038927 -8.518459e-05 2.430787e-26)
(-0.0009640621 4.277305e-05 4.916416e-26)
(-0.0009848557 0.00010558 -1.854429e-27)
(-0.001016141 0.0001248935 -1.520179e-27)
(-0.001058168 8.703842e-05 1.066951e-25)
(-0.001120824 6.673442e-06 -1.067815e-25)
(-0.001200554 -8.726329e-05 -1.044467e-25)
(-0.001275541 -0.0002180225 6.102144e-28)
(-0.001107257 4.10203e-05 -1.082985e-29)
(-0.001127512 9.182477e-05 8.546318e-30)
(-0.001156769 9.27055e-05 1.211976e-27)
(-0.001196322 4.661059e-05 1.209414e-25)
(-0.001251073 -4.877631e-05 -1.125645e-25)
(-0.001326448 -0.000173851 2.597228e-26)
(-0.001409592 -0.0003291836 1.151169e-25)
(-0.001216459 3.504684e-05 -1.194138e-29)
(-0.001236201 7.566641e-05 -1.275314e-25)
(-0.00126057 6.895291e-05 1.30382e-25)
(-0.001293331 1.529042e-05 1.328619e-25)
(-0.00133741 -8.532189e-05 -1.437905e-25)
(-0.001399384 -0.0002258939 8.760229e-26)
(-0.001472059 -0.0004013649 1.680626e-25)
(-0.001294212 2.803194e-05 -1.324336e-25)
(-0.001311154 5.681366e-05 -1.358787e-25)
(-0.001333543 4.416749e-05 1.386803e-25)
(-0.001362199 -1.142778e-05 -1.432148e-27)
(-0.00139741 -0.0001107643 -1.510173e-25)
(-0.001443764 -0.0002516545 -1.997423e-26)
(-0.00150703 -0.000438097 1.912301e-29)
(-0.001344119 1.871586e-05 -2.757734e-25)
(-0.001355538 3.484557e-05 1.26543e-29)
(-0.001377525 1.909525e-05 -1.094432e-29)
(-0.001404624 -3.540871e-05 -2.81594e-27)
(-0.001435907 -0.0001342222 -9.055543e-27)
(-0.001472379 -0.0002699897 -5.973034e-26)
(-0.001533139 -0.0004433268 -2.635584e-25)
(-0.0013687 8.396539e-06 -1.405681e-25)
(-0.001372153 1.051027e-05 -1.425591e-25)
(-0.001393707 -7.481769e-06 -8.92241e-28)
(-0.001422477 -5.998236e-05 -2.043039e-27)
(-0.001456574 -0.0001516303 -1.498224e-25)
(-0.001487533 -0.0002838665 7.473283e-29)
(-0.001536589 -0.0004492387 -1.477452e-25)
(-0.001370835 -1.353262e-06 0)
(-0.001366115 -1.49506e-05 -1.418472e-25)
(-0.001384209 -3.840236e-05 -7.127925e-31)
(-0.001418456 -8.766801e-05 -4.94203e-27)
(-0.001450242 -0.0001750011 -1.593299e-25)
(-0.001479792 -0.0002958454 1.622643e-26)
(-0.001520037 -0.0004587647 2.70693e-26)
(-0.001352948 -1.030067e-05 0)
(-0.00134339 -3.819596e-05 -1.153441e-27)
(-0.001355982 -7.253849e-05 -2.220249e-27)
(-0.001386953 -0.000122119 1.442565e-25)
(-0.001418863 -0.0001994881 -1.465793e-25)
(-0.001449393 -0.0003113818 3.600918e-29)
(-0.001488375 -0.0004548865 2.450977e-25)
(-0.001318137 -1.820199e-05 -1.349081e-25)
(-0.001305245 -5.940683e-05 0)
(-0.00131231 -0.0001047967 0)
(-0.001335088 -0.0001588048 1.386567e-25)
(-0.001365804 -0.0002316237 -1.409871e-25)
(-0.001401357 -0.0003295706 2.857947e-25)
(-0.001430612 -0.0004680656 2.853946e-25)
(-0.001268233 -2.486556e-05 -1.294611e-25)
(-0.001254507 -7.695725e-05 -1.047246e-27)
(-0.001256931 -0.0001321903 -1.832625e-27)
(-0.001270929 -0.0001945743 -1.683381e-26)
(-0.001298386 -0.0002652418 -2.451272e-26)
(-0.001327068 -0.0003592255 1.347068e-25)
(-0.001354209 -0.0004798838 -2.703121e-25)
(-0.001206231 -2.986867e-05 0)
(-0.001193102 -9.071686e-05 1.225712e-25)
(-0.001191362 -0.0001545116 0)
(-0.001201031 -0.0002216823 -5.695341e-27)
(-0.001215807 -0.0003007119 -7.834945e-27)
(-0.001236492 -0.0003918805 -1.455447e-25)
(-0.001260298 -0.0004998424 -3.024787e-25)
(-0.001135549 -3.330844e-05 0)
(-0.001122863 -0.0001008399 -1.142081e-25)
(-0.001119715 -0.0001686808 1.14828e-25)
(-0.001121249 -0.0002438197 0)
(-0.001127459 -0.0003261569 -1.620632e-26)
(-0.001139399 -0.0004164658 7.346565e-26)
(-0.001149446 -0.0005233614 -2.713993e-26)
(-0.001059234 -3.552709e-05 0)
(-0.001048099 -0.0001058602 -3.198021e-25)
(-0.001041081 -0.0001791636 -1.359193e-28)
(-0.001037286 -0.0002568122 -2.240166e-25)
(-0.001037245 -0.0003392133 -1.716542e-26)
(-0.001036393 -0.0004329586 1.049403e-25)
(-0.001031512 -0.0005413391 -9.547031e-26)
(-0.000980911 -3.620009e-05 9.938213e-26)
(-0.0009695552 -0.000108904 -9.986779e-26)
(-0.0009604195 -0.0001830497 2.63799e-29)
(-0.0009529786 -0.0002605016 -1.897597e-25)
(-0.0009450531 -0.0003432305 0)
(-0.0009350651 -0.0004328664 0)
(-0.0009235198 -0.0005343364 -1.497988e-25)
(-0.0009019606 -3.621017e-05 9.106403e-26)
(-0.0008906122 -0.0001089585 -9.105619e-26)
(-0.0008797639 -0.0001828105 8.930992e-26)
(-0.0008689484 -0.0002583836 8.817644e-26)
(-0.0008548166 -0.0003397841 0)
(-0.0008361567 -0.0004285205 0)
(-0.0008188419 -0.0005185798 -1.012038e-25)
(-0.0008239389 -3.547859e-05 -8.337935e-26)
(-0.0008128316 -0.0001067301 -8.492065e-26)
(-0.0008011142 -0.0001778968 -2.251299e-27)
(-0.0007865969 -0.0002517005 7.633108e-26)
(-0.0007678646 -0.000329115 2.329192e-26)
(-0.0007469387 -0.0004082267 -1.173199e-25)
(-0.0007165009 -0.0004958788 5.784067e-26)
(-0.0007484738 -3.40574e-05 -7.590284e-26)
(-0.0007380282 -0.0001022779 -6.648563e-28)
(-0.0007251298 -0.0001707751 2.190998e-27)
(-0.0007085304 -0.0002405253 3.108373e-27)
(-0.0006874293 -0.0003130483 0)
(-0.0006623302 -0.0003864378 -7.371819e-26)
(-0.0006278772 -0.0004643275 6.21103e-26)
(-0.0006765978 -3.237946e-05 0)
(-0.0006667735 -9.680315e-05 -1.235665e-27)
(-0.0006532051 -0.0001617124 -2.089324e-27)
(-0.000634562 -0.0002280935 1.468036e-25)
(-0.0006140762 -0.0002921477 2.766207e-26)
(-0.0005846916 -0.0003607933 1.067586e-25)
(-0.0005503666 -0.0004285801 4.317745e-26)
(-0.0006092443 -3.021771e-05 -1.89563e-28)
(-0.0005997792 -9.051191e-05 -5.864841e-28)
(-0.0005861865 -0.0001505368 0)
(-0.0005683519 -0.0002109777 -1.61348e-28)
(-0.0005446748 -0.0002719567 5.434296e-26)
(-0.0005164284 -0.0003323036 5.120242e-26)
(-0.0004825443 -0.0003915971 -1.006192e-26)
(-0.000546672 -2.801971e-05 5.515221e-26)
(-0.0005376346 -8.398263e-05 -5.554458e-26)
(-0.0005238347 -0.0001400996 9.642973e-26)
(-0.0005073689 -0.0001940642 -1.120968e-25)
(-0.00048343 -0.0002495652 4.491702e-26)
(-0.0004561703 -0.0003030546 0)
(-0.000423414 -0.0003549615 9.118188e-27)
(-0.0004890046 -2.57939e-05 4.955592e-26)
(-0.0004801198 -7.751899e-05 -4.787476e-26)
(-0.0004680905 -0.000127545 4.644308e-26)
(-0.0004506191 -0.0001781159 0)
(-0.0004287787 -0.0002272269 -4.27725e-26)
(-0.0004028751 -0.0002746093 0)
(-0.0003719852 -0.0003200871 3.664733e-26)
(-0.0004364064 -2.343629e-05 0)
(-0.0004286653 -7.024818e-05 0)
(-0.0004165586 -0.0001165963 -8.35616e-26)
(-0.0004003132 -0.0001618155 0)
(-0.0003800901 -0.000205562 -7.577137e-26)
(-0.0003557611 -0.0002476734 -3.529718e-26)
(-0.0003268048 -0.0002879946 3.213605e-26)
(-0.0003885869 -2.146696e-05 -3.92175e-26)
(-0.0003818932 -6.356749e-05 0)
(-0.0003704673 -0.0001054996 -3.647013e-26)
(-0.000355469 -0.000146028 3.653189e-26)
(-0.0003367396 -0.0001850398 -3.354915e-26)
(-0.0003142115 -0.0002222279 -6.232069e-26)
(-0.0002874305 -0.000257156 -2.826172e-26)
(-0.0003458063 -1.930374e-05 -3.483277e-26)
(-0.0003393563 -5.755219e-05 -3.395676e-26)
(-0.0003291334 -9.504487e-05 0)
(-0.0003154127 -0.000131273 3.324416e-26)
(-0.000298275 -0.0001659906 2.140062e-27)
(-0.0002777821 -0.0001987741 -5.767968e-26)
(-0.0002536593 -0.0002290224 -8.825685e-27)
(-0.0003072626 -1.738719e-05 -3.101089e-26)
(-0.0003013946 -5.171389e-05 -3.031238e-26)
(-0.0002921726 -8.528391e-05 2.933887e-26)
(-0.0002796829 -0.0001176812 0)
(-0.000264106 -0.0001486695 0)
(-0.0002454845 -0.0001780822 -2.435265e-26)
(-0.0002232511 -0.0002061786 4.196656e-26)
(-0.0002727166 -1.558674e-05 -2.752018e-26)
(-0.0002674493 -4.631992e-05 -2.691842e-26)
(-0.0002591507 -7.631945e-05 2.601295e-26)
(-0.0002478435 -0.0001052229 0)
(-0.000233727 -0.0001327764 1.709713e-27)
(-0.0002168136 -0.0001587127 2.958713e-30)
(-0.0001967036 -0.0001829731 -2.359039e-27)
(-0.00024184 -1.393853e-05 0)
(-0.000237163 -4.13774e-05 -2.386477e-26)
(-0.0002297115 -6.814617e-05 2.308038e-26)
(-0.0002195263 -9.389163e-05 0)
(-0.0002068035 -0.0001183695 -2.21935e-26)
(-0.0001915804 -0.000141343 -3.645671e-27)
(-0.0001735725 -0.0001627304 -2.100207e-27)
(-0.0002143113 -1.244094e-05 2.163555e-26)
(-0.0002101774 -3.689415e-05 -1.188081e-28)
(-0.0002035099 -6.074554e-05 2.024644e-26)
(-0.0001943771 -8.364713e-05 -5.389799e-28)
(-0.0001829628 -0.0001053642 -6.634654e-28)
(-0.0001692587 -0.0001257164 -1.680659e-26)
(-0.0001531986 -0.0001445218 0)
(-0.0001898092 -1.108924e-05 3.832389e-26)
(-0.0001861641 -3.285103e-05 0)
(-0.0001802144 -5.408345e-05 0)
(-0.0001720454 -7.446088e-05 1.77451e-26)
(-0.0001617882 -9.382829e-05 3.295541e-26)
(-0.0001491889 -0.0001122205 -1.480567e-26)
(-0.0001352176 -0.0001281927 0)
(-0.0001680289 -9.874435e-06 1.696327e-26)
(-0.0001648195 -2.921779e-05 -9.416353e-29)
(-0.0001595221 -4.809606e-05 -1.554668e-28)
(-0.0001522294 -6.618649e-05 -4.374857e-28)
(-0.0001430516 -8.329859e-05 1.376034e-26)
(-0.0001318879 -9.936524e-05 0)
(-0.0001190117 -0.0001140626 -1.172939e-26)
(-0.0001486863 -8.786688e-06 -1.39944e-29)
(-0.0001458649 -2.596532e-05 -1.482283e-26)
(-0.0001411598 -4.274e-05 -1.434119e-26)
(-0.0001346708 -5.880199e-05 -2.704656e-26)
(-0.0001265064 -7.398889e-05 0)
(-0.0001166283 -8.825696e-05 -1.140362e-26)
(-0.0001050618 -0.0001012906 1.412345e-29)
(-0.0001315198 -7.815498e-06 -1.326987e-26)
(-0.0001290423 -2.306288e-05 -2.604219e-26)
(-0.0001248716 -3.796238e-05 -2.525323e-26)
(-0.0001191084 -5.221782e-05 -1.229913e-26)
(-0.0001118212 -6.570847e-05 -4.249229e-28)
(-0.0001030742 -7.834277e-05 -1.007518e-26)
(-9.28025e-05 -8.989521e-05 9.736855e-27)
(-0.000116291 -6.951027e-06 -1.174343e-26)
(-0.0001141157 -2.048001e-05 -2.300176e-26)
(-0.0001104195 -3.372116e-05 -1.111193e-26)
(-0.000105282 -4.641947e-05 0)
(-9.862525e-05 -5.857598e-05 -2.877608e-27)
(-9.105675e-05 -6.948387e-05 -4.360568e-27)
(-8.196586e-05 -7.977975e-05 -1.034194e-27)
(-0.000102785 -6.180922e-06 -1.039172e-26)
(-0.0001008744 -1.817848e-05 -1.013769e-26)
(-9.759784e-05 -2.993197e-05 2.893837e-28)
(-9.302921e-05 -4.117628e-05 2.659252e-28)
(-8.717095e-05 -5.187515e-05 0)
(-8.019837e-05 -6.182973e-05 -7.985239e-27)
(-7.235387e-05 -7.082951e-05 4.603947e-28)
(-9.080945e-05 -5.496763e-06 -9.180344e-27)
(-8.913169e-05 -1.613386e-05 -8.961758e-27)
(-8.623121e-05 -2.657014e-05 1.711585e-28)
(-8.218379e-05 -3.65543e-05 1.179416e-28)
(-7.701245e-05 -4.60668e-05 0)
(-7.075929e-05 -5.491447e-05 -6.687454e-27)
(-6.38494e-05 -6.287518e-05 8.179952e-28)
(-8.019145e-05 -4.889495e-06 7.732396e-30)
(-7.871752e-05 -1.431994e-05 -1.585247e-26)
(-7.614927e-05 -2.358855e-05 7.577633e-29)
(-7.255962e-05 -3.245786e-05 1.045898e-28)
(-6.797855e-05 -4.091031e-05 0)
(-6.242494e-05 -4.876504e-05 0)
(-5.630582e-05 -5.583035e-05 0)
(-7.077576e-05 -4.351583e-06 0)
(-6.947974e-05 -1.271263e-05 -7.006607e-27)
(-6.720438e-05 -2.094601e-05 0)
(-6.400531e-05 -2.883475e-05 6.254212e-27)
(-5.995546e-05 -3.633906e-05 -2.338629e-28)
(-5.503403e-05 -4.332208e-05 -2.805633e-28)
(-4.961177e-05 -4.96019e-05 4.602974e-27)
(-6.242313e-05 -3.875982e-06 -6.306634e-27)
(-6.127991e-05 -1.129434e-05 0)
(-5.925249e-05 -1.862989e-05 1.186701e-28)
(-5.63321e-05 -2.572208e-05 4.573793e-27)
(-5.283202e-05 -3.228077e-05 -6.898066e-27)
(-4.846882e-05 -3.85161e-05 0)
(-4.366522e-05 -4.410995e-05 4.334627e-27)
(-5.501049e-05 -3.454234e-06 -5.557447e-27)
(-5.399701e-05 -1.003427e-05 0)
(-5.218888e-05 -1.655226e-05 5.266393e-29)
(-4.961832e-05 -2.28385e-05 7.295806e-29)
(-4.639143e-05 -2.879522e-05 -9.302905e-27)
(-4.261602e-05 -3.429893e-05 4.261799e-27)
(-3.83715e-05 -3.928527e-05 -3.81627e-27)
(-4.842945e-05 -3.081476e-06 0)
(-4.752622e-05 -8.922758e-06 -4.768891e-27)
(-4.591115e-05 -1.473072e-05 4.665882e-29)
(-4.362821e-05 -2.034539e-05 4.36875e-27)
(-4.07274e-05 -2.567343e-05 -4.08686e-27)
(-3.739823e-05 -3.058934e-05 3.741005e-27)
(-3.364379e-05 -3.505986e-05 3.065231e-30)
(-4.258265e-05 -2.752276e-06 0)
(-4.176859e-05 -7.942542e-06 -4.216791e-27)
(-4.031399e-05 -1.312865e-05 4.069996e-27)
(-3.826662e-05 -1.815436e-05 3.890888e-27)
(-3.567271e-05 -2.293314e-05 -3.513651e-27)
(-3.27193e-05 -2.735168e-05 1.745396e-28)
(-2.940102e-05 -3.137959e-05 2.928875e-27)
(-3.738408e-05 -2.461267e-06 0)
(-3.663694e-05 -7.078739e-06 0)
(-3.53097e-05 -1.172237e-05 3.567557e-27)
(-3.345638e-05 -1.62385e-05 -3.359047e-27)
(-3.112965e-05 -2.054758e-05 1.844046e-30)
(-2.850227e-05 -2.454416e-05 0)
(-2.55716e-05 -2.81964e-05 0)
(-3.275889e-05 -2.203556e-06 -3.312051e-27)
(-3.205299e-05 -6.317647e-06 3.242169e-27)
(-3.081746e-05 -1.049216e-05 1.528366e-27)
(-2.911831e-05 -1.45745e-05 -2.973475e-27)
(-2.701804e-05 -1.848848e-05 -1.570944e-30)
(-2.467554e-05 -2.213227e-05 1.379915e-28)