/*--------------------------------*- C++ -*----------------------------------*\
| =========                 |                                                 |
| \\      /  F ield         | OpenFOAM: The Open Source CFD Toolbox           |
|  \\    /   O peration     | Version:  2206                                  |
|   \\  /    A nd           | Website:  www.openfoam.com                      |
|    \\/     M anipulation  |                                                 |
\*---------------------------------------------------------------------------*/
FoamFile
{
    version     2.0;
    format      ascii;
    arch        "LSB;label=32;scalar=64";
    class       volVectorField;
    location    "1";
    object      U.a;
}
// * * * * * * * * * * * * * * * * * * * * * * * * * * * * * * * * * * * * * //

dimensions      [0 1 -1 0 0 0 0];

internalField   nonuniform List<vector> 
13078
(
(4.381129e-07 -4.122577e-05 3.795862e-28)
(-8.557327e-08 -2.712699e-05 -1.743725e-33)
(-8.863125e-08 -1.902295e-05 -2.58158e-29)
(-4.176672e-08 -1.327749e-05 0)
(-2.412157e-08 -9.85785e-06 -1.179755e-29)
(-1.29906e-08 -7.51291e-06 -1.186572e-29)
(-3.907682e-09 -5.693477e-06 -1.191596e-29)
(-1.559616e-05 -2.069867e-05 0)
(-8.765952e-06 -2.02126e-05 -8.971603e-33)
(-3.489019e-06 -1.56883e-05 0)
(-1.646884e-06 -1.20119e-05 0)
(-8.93419e-07 -9.317285e-06 -2.240129e-33)
(-5.37115e-07 -7.240994e-06 -1.003435e-33)
(-3.464118e-07 -5.540243e-06 -1.68941e-33)
(-6.245035e-06 -6.601492e-06 1.605748e-32)
(-5.569557e-06 -1.092211e-05 2.410147e-31)
(-3.530722e-06 -1.100404e-05 1.186297e-29)
(-2.148483e-06 -9.629027e-06 2.357194e-29)
(-1.353247e-06 -8.018005e-06 1.182213e-29)
(-8.917969e-07 -6.483591e-06 0)
(-6.114094e-07 -5.069632e-06 -6.788757e-35)
(-1.982199e-06 -2.962899e-06 -5.808569e-32)
(-2.956349e-06 -6.188453e-06 3.872994e-31)
(-2.602537e-06 -7.384823e-06 1.781521e-30)
(-1.978591e-06 -7.273594e-06 1.197026e-30)
(-1.43871e-06 -6.50799e-06 1.123911e-32)
(-1.046113e-06 -5.495291e-06 0)
(-7.680191e-07 -4.404373e-06 4.221082e-33)
(-7.484566e-07 -1.706349e-06 -2.960739e-31)
(-1.586429e-06 -3.790884e-06 -9.90329e-31)
(-1.760584e-06 -4.996821e-06 5.775731e-32)
(-1.593779e-06 -5.344935e-06 -8.22137e-31)
(-1.324569e-06 -5.098913e-06 -1.386351e-29)
(-1.057455e-06 -4.479978e-06 -4.509969e-35)
(-8.312987e-07 -3.666246e-06 1.195242e-29)
(-3.377975e-07 -1.165705e-06 0)
(-9.047081e-07 -2.516062e-06 7.471463e-31)
(-1.187906e-06 -3.481887e-06 -7.572093e-31)
(-1.231838e-06 -3.91747e-06 2.270555e-31)
(-1.142078e-06 -3.899459e-06 1.530628e-30)
(-9.959118e-07 -3.54479e-06 -1.205727e-29)
(-8.343148e-07 -2.941852e-06 -2.403283e-29)
(-1.790824e-07 -8.894056e-07 0)
(-5.611598e-07 -1.785911e-06 -5.05818e-32)
(-8.307092e-07 -2.504016e-06 -1.209361e-29)
(-9.569734e-07 -2.891002e-06 -1.221222e-29)
(-9.706725e-07 -2.947902e-06 1.678413e-30)
(-9.102434e-07 -2.722354e-06 1.523607e-30)
(-8.09017e-07 -2.273401e-06 0)
(-1.090485e-07 -7.280827e-07 2.89626e-31)
(-3.850007e-07 -1.334875e-06 -1.887151e-31)
(-6.233307e-07 -1.852895e-06 -1.257962e-31)
(-7.776144e-07 -2.155525e-06 0)
(-8.424192e-07 -2.21218e-06 1.429568e-31)
(-8.349273e-07 -2.037543e-06 1.530402e-30)
(-7.770465e-07 -1.668245e-06 1.533764e-30)
(-7.497487e-08 -6.242037e-07 3.250418e-32)
(-2.93476e-07 -1.036378e-06 6.140312e-31)
(-5.067113e-07 -1.404483e-06 1.76814e-30)
(-6.685253e-07 -1.617183e-06 1.538313e-30)
(-7.600878e-07 -1.641585e-06 1.271565e-30)
(-7.845432e-07 -1.477664e-06 1.535453e-30)
(-7.550941e-07 -1.14465e-06 0)
(-5.791662e-08 -5.52094e-07 -7.887884e-31)
(-2.483942e-07 -8.263408e-07 9.657118e-31)
(-4.484396e-07 -1.079692e-06 4.321089e-31)
(-6.133345e-07 -1.211405e-06 -9.487429e-32)
(-7.197004e-07 -1.192667e-06 -3.991551e-32)
(-7.631957e-07 -1.018246e-06 0)
(-7.514987e-07 -6.975994e-07 0)
(-4.993409e-08 -4.987888e-07 0)
(-2.308005e-07 -6.701528e-07 0)
(-4.285632e-07 -8.334969e-07 1.16943e-30)
(-5.98372e-07 -8.952736e-07 -4.692773e-31)
(-7.150831e-07 -8.315876e-07 4.153797e-32)
(-7.705976e-07 -6.363607e-07 0)
(-7.694503e-07 -3.13893e-07 0)
(-4.742052e-08 -4.572204e-07 0)
(-2.308054e-07 -5.479005e-07 -1.677449e-30)
(-4.353759e-07 -6.382194e-07 1.601852e-30)
(-6.142293e-07 -6.397877e-07 -7.739675e-31)
(-7.407363e-07 -5.329386e-07 -2.637727e-30)
(-8.049251e-07 -3.125098e-07 0)
(-8.098261e-07 1.96841e-08 3.726098e-30)
(-4.854532e-08 -4.229092e-07 0)
(-2.431672e-07 -4.471914e-07 -3.680352e-30)
(-4.62142e-07 -4.762182e-07 -1.522668e-30)
(-6.548337e-07 -4.251248e-07 1.244749e-30)
(-7.926199e-07 -2.778798e-07 -1.42981e-30)
(-8.642762e-07 -3.085836e-08 1.203935e-30)
(-8.726071e-07 3.152232e-07 4.093508e-32)
(-5.230882e-08 -3.931829e-07 -2.153242e-30)
(-2.65143e-07 -3.601388e-07 0)
(-5.050031e-07 -3.355563e-07 -1.526767e-30)
(-7.162719e-07 -2.373354e-07 -1.566292e-30)
(-8.677837e-07 -5.248914e-08 -3.754571e-30)
(-9.469785e-07 2.21307e-07 1.644154e-30)
(-9.57444e-07 5.832942e-07 -1.304214e-30)
(-5.822204e-08 -3.661319e-07 -2.670657e-30)
(-2.952784e-07 -2.812536e-07 0)
(-5.616164e-07 -2.078935e-07 -3.058641e-30)
(-7.926677e-07 -6.645244e-08 2.470747e-29)
(-9.599437e-07 1.533164e-07 2.300852e-29)
(-1.051131e-06 4.541895e-07 0)
(-1.064207e-06 8.329924e-07 1.656486e-30)
(-6.602941e-08 -3.404594e-07 0)
(-3.333097e-07 -2.066877e-07 -3.890449e-30)
(-6.335249e-07 -8.717544e-08 0)
(-8.94421e-07 9.490379e-08 6.567379e-30)
(-1.08117e-06 3.478332e-07 3.215852e-30)
(-1.180381e-06 6.761623e-07 3.205998e-30)
(-1.194173e-06 1.072149e-06 5.369668e-30)
(-7.553316e-08 -3.151476e-07 0)
(-3.784451e-07 -1.335068e-07 -9.334192e-30)
(-7.176041e-07 3.115572e-08 -1.53718e-30)
(-1.011174e-06 2.535106e-07 -1.568081e-30)
(-1.221295e-06 5.401542e-07 0)
(-1.332622e-06 8.946572e-07 0)
(-1.34763e-06 1.30777e-06 0)
(-8.677265e-08 -2.894973e-07 -3.881411e-30)
(-4.310159e-07 -5.948333e-08 -6.304327e-30)
(-8.151451e-07 1.507258e-07 -3.088411e-30)
(-1.146773e-06 4.135849e-07 -1.578157e-30)
(-1.383944e-06 7.344209e-07 0)
(-1.50931e-06 1.115242e-06 -6.997164e-30)
(-1.525724e-06 1.545725e-06 -6.57429e-30)
(-9.982077e-08 -2.628456e-07 -4.716629e-30)
(-4.914747e-07 1.723928e-08 -7.207512e-30)
(-9.271744e-07 2.745283e-07 -4.656233e-30)
(-1.302501e-06 5.791342e-07 -3.179208e-30)
(-1.570425e-06 9.348346e-07 0)
(-1.711738e-06 1.342267e-06 -4.540129e-30)
(-1.729733e-06 1.790849e-06 -3.328569e-30)
(-1.148026e-07 -2.346737e-07 -6.147559e-30)
(-5.604718e-07 9.820023e-08 -1.513432e-29)
(-1.054931e-06 4.050142e-07 -7.218715e-30)
(-1.479559e-06 7.534358e-07 0)
(-1.777571e-06 1.143641e-06 2.64271e-29)
(-1.936409e-06 1.57707e-06 3.379402e-29)
(-1.96006e-06 2.046637e-06 6.769733e-30)
(-1.318571e-07 -2.044478e-07 -7.800933e-30)
(-6.389453e-07 1.848037e-07 -1.683277e-29)
(-1.200454e-06 5.442965e-07 -1.529224e-29)
(-1.683154e-06 9.391929e-07 -4.680263e-30)
(-2.023686e-06 1.365115e-06 3.316878e-30)
(-2.201657e-06 1.825296e-06 -5.361238e-30)
(-2.223582e-06 2.316502e-06 1.914353e-30)
(-1.512207e-07 -1.718385e-07 0)
(-7.277362e-07 2.782178e-07 -8.690261e-30)
(-1.364464e-06 6.942688e-07 -8.220511e-30)
(-1.91086e-06 1.138483e-06 -1.838319e-29)
(-2.29472e-06 1.604146e-06 0)
(-2.494584e-06 2.09303e-06 -6.511924e-30)
(-2.51821e-06 2.602846e-06 7.200052e-32)
(-1.732315e-07 -1.363455e-07 9.576409e-30)
(-8.280661e-07 3.797598e-07 0)
(-1.549338e-06 8.568791e-07 0)
(-2.166731e-06 1.353781e-06 3.211901e-30)
(-2.598549e-06 1.861126e-06 1.314667e-29)
(-2.821415e-06 2.37913e-06 0)
(-2.845517e-06 2.906103e-06 -7.489899e-30)
(-1.983368e-07 -9.735545e-08 2.211994e-29)
(-9.418177e-07 4.910942e-07 0)
(-1.758266e-06 1.034638e-06 0)
(-2.455096e-06 1.588241e-06 8.946408e-30)
(-2.939446e-06 2.139846e-06 1.918364e-29)
(-3.181258e-06 2.684223e-06 -1.021508e-29)
(-3.204039e-06 3.224909e-06 0)
(-2.273051e-07 -5.415772e-08 1.273219e-29)
(-1.071627e-06 6.143684e-07 1.562514e-30)
(-1.995733e-06 1.23098e-06 1.648923e-29)
(-2.782214e-06 1.846338e-06 3.372396e-30)
(-3.327792e-06 2.445521e-06 3.567751e-30)
(-3.60244e-06 3.017449e-06 -1.174676e-29)
(-3.617609e-06 3.570209e-06 0)
(-2.611174e-07 -5.712713e-09 0)
(-1.22083e-06 7.524533e-07 -1.775557e-29)
(-2.267014e-06 1.450471e-06 1.711916e-29)
(-3.153697e-06 2.133919e-06 0)
(-3.764572e-06 2.78434e-06 -7.87812e-30)
(-4.065982e-06 3.388822e-06 1.479922e-29)
(-4.072674e-06 3.955627e-06 7.84818e-30)
(-3.01347e-07 4.930722e-08 -1.658057e-29)
(-1.394316e-06 9.092514e-07 -2.03887e-29)
(-2.580091e-06 1.699448e-06 1.946616e-29)
(-3.580336e-06 2.459594e-06 0)
(-4.264082e-06 3.167339e-06 -7.249322e-30)
(-4.594579e-06 3.808558e-06 -2.53075e-33)
(-4.591833e-06 4.39342e-06 8.072519e-30)
(-3.500156e-07 1.126998e-07 -1.897806e-29)
(-1.598328e-06 1.089683e-06 -2.312524e-29)
(-2.945836e-06 1.986071e-06 2.231349e-29)
(-4.076787e-06 2.834744e-06 0)
(-4.84434e-06 3.609529e-06 0)
(-5.209452e-06 4.296438e-06 -1.787909e-29)
(-5.199367e-06 4.907504e-06 -4.904313e-29)
(-4.101502e-07 1.864916e-07 -2.27128e-29)
(-1.841572e-06 1.299634e-06 -2.80704e-29)
(-3.378131e-06 2.319992e-06 0)
(-4.661417e-06 3.272884e-06 1.670498e-29)
(-5.527662e-06 4.128001e-06 -7.589843e-30)
(-5.939992e-06 4.873103e-06 -3.292631e-29)
(-5.953096e-06 5.530749e-06 2.498496e-29)
(-4.823106e-07 2.72628e-07 -2.442501e-29)
(-2.128392e-06 1.543262e-06 0)
(-3.892779e-06 2.711635e-06 -3.220764e-29)
(-5.355927e-06 3.789047e-06 2.366949e-29)
(-6.336721e-06 4.740467e-06 -2.541089e-29)
(-6.797196e-06 5.552616e-06 -4.666599e-29)
(-6.803197e-06 6.253983e-06 -2.096254e-29)
(-5.74904e-07 3.702185e-07 0)
(-2.484452e-06 1.828435e-06 0)
(-4.514679e-06 3.172667e-06 -6.543468e-29)
(-6.189281e-06 4.400175e-06 0)
(-7.305404e-06 5.470077e-06 -5.802626e-29)
(-7.822335e-06 6.366539e-06 -2.673311e-29)
(-7.817802e-06 7.122859e-06 2.398495e-29)
(-6.964446e-07 4.866361e-07 -3.354573e-29)
(-2.918209e-06 2.159907e-06 3.550229e-29)
(-5.257606e-06 3.709917e-06 3.555511e-29)
(-7.193213e-06 5.123824e-06 0)
(-8.473626e-06 6.34161e-06 -3.30985e-29)
(-9.060998e-06 7.347054e-06 0)
(-9.05117e-06 8.177774e-06 9.290537e-30)
(-8.562105e-07 6.229398e-07 -3.504834e-29)
(-3.464654e-06 2.546047e-06 4.340954e-29)
(-6.171518e-06 4.336526e-06 1.252569e-28)
(-8.406621e-06 5.975251e-06 8.603347e-29)
(-9.888081e-06 7.381119e-06 -2.897629e-29)
(-1.056073e-05 8.527008e-06 8.993687e-30)
(-1.054207e-05 9.457707e-06 -9.493009e-30)
(-1.064906e-06 7.8259e-07 1.185655e-30)
(-4.166407e-06 3.010409e-06 1.670206e-30)
(-7.32008e-06 5.080143e-06 5.478037e-29)
(-9.914959e-06 6.985853e-06 8.082918e-29)
(-1.161616e-05 8.620935e-06 -6.05459e-29)
(-1.238029e-05 9.944423e-06 1.861602e-29)
(-1.234486e-05 1.10058e-05 3.953729e-29)
(-1.336716e-06 9.696547e-07 -1.186495e-30)
(-5.050401e-06 3.557459e-06 -1.683635e-30)
(-8.759547e-06 5.970778e-06 4.54603e-29)
(-1.17581e-05 8.181645e-06 -2.122155e-29)
(-1.371754e-05 1.009467e-05 -8.94085e-29)
(-1.457944e-05 1.164588e-05 2.604066e-29)
(-1.451863e-05 1.287912e-05 0)
(-1.692301e-06 1.190102e-06 0)
(-6.16828e-06 4.202795e-06 0)
(-1.055383e-05 7.024032e-06 5.888258e-29)
(-1.404663e-05 9.599645e-06 7.40039e-29)
(-1.629222e-05 1.18443e-05 1.471386e-28)
(-1.72534e-05 1.369848e-05 1.324e-28)
(-1.711627e-05 1.515343e-05 0)
(-2.157505e-06 1.452279e-06 -2.370749e-30)
(-7.577564e-06 4.967001e-06 3.383012e-30)
(-1.276432e-05 8.267091e-06 7.581227e-30)
(-1.683325e-05 1.129082e-05 0)
(-1.941697e-05 1.394068e-05 1.247926e-28)
(-2.043838e-05 1.616322e-05 -2.102881e-29)
(-2.016069e-05 1.793128e-05 -4.468514e-29)
(-2.766849e-06 1.769532e-06 -5.611805e-29)
(-9.350048e-06 5.879576e-06 3.411386e-30)
(-1.54634e-05 9.733732e-06 -7.177058e-29)
(-2.014584e-05 1.327425e-05 0)
(-2.303209e-05 1.641538e-05 8.804123e-29)
(-2.4061e-05 1.90983e-05 -7.082703e-29)
(-2.358207e-05 2.132318e-05 -2.275232e-28)
(-3.562026e-06 2.160522e-06 -6.144862e-29)
(-1.156667e-05 6.979828e-06 -7.626185e-29)
(-1.872838e-05 1.146765e-05 -7.887502e-29)
(-2.401509e-05 1.558399e-05 -1.680841e-29)
(-2.711941e-05 1.929149e-05 -3.71819e-29)
(-2.805267e-05 2.253498e-05 1.38086e-29)
(-2.69724e-05 2.522947e-05 -1.017583e-28)
(-4.557027e-06 2.637231e-06 0)
(-1.427563e-05 8.304921e-06 7.97138e-29)
(-2.261057e-05 1.352022e-05 8.580219e-29)
(-2.838005e-05 1.824201e-05 8.377965e-30)
(-3.146227e-05 2.255578e-05 -1.028985e-28)
(-3.186135e-05 2.63504e-05 -2.142283e-29)
(-2.976478e-05 2.968666e-05 0)
(-5.943889e-06 3.315384e-06 8.913568e-29)
(-1.781756e-05 1.007199e-05 1.769832e-28)
(-2.715108e-05 1.598863e-05 6.594119e-29)
(-3.30259e-05 2.12644e-05 1.853503e-28)
(-3.56724e-05 2.618034e-05 -1.121811e-28)
(-3.504185e-05 3.06201e-05 8.354753e-29)
(-3.127907e-05 3.515267e-05 5.577955e-29)
(-7.943762e-06 4.303973e-06 1.147493e-28)
(-2.209244e-05 1.225747e-05 -3.988485e-30)
(-3.192773e-05 1.878022e-05 0)
(-3.741616e-05 2.458966e-05 5.801659e-30)
(-3.908049e-05 3.011679e-05 2.124682e-28)
(-3.678264e-05 3.553569e-05 2.779715e-28)
(-2.947683e-05 4.24455e-05 -2.638284e-28)
(-1.052515e-05 5.634726e-06 -1.507827e-28)
(-2.650299e-05 1.477099e-05 8.037703e-30)
(-3.619759e-05 2.181262e-05 7.208223e-30)
(-4.089154e-05 2.817842e-05 -2.736939e-28)
(-4.107438e-05 3.443537e-05 1.914105e-28)
(-3.603513e-05 4.182165e-05 -1.981316e-28)
(-2.12892e-05 5.400027e-05 -4.642031e-28)
(-1.325959e-05 7.312228e-06 -1.797751e-28)
(-3.006459e-05 1.753582e-05 0)
(-3.927265e-05 2.516952e-05 1.35144e-29)
(-4.302165e-05 3.208218e-05 -1.271893e-29)
(-4.142441e-05 3.944119e-05 -2.184703e-29)
(-3.168455e-05 5.068604e-05 -6.218321e-28)
(-2.679113e-06 7.407823e-05 -1.606811e-28)
(-1.53123e-05 9.239081e-06 0)
(-3.207365e-05 2.057727e-05 1.478484e-29)
(-4.067436e-05 2.885896e-05 1.33519e-29)
(-4.358027e-05 3.643755e-05 1.527673e-29)
(-4.018344e-05 4.578864e-05 5.045259e-29)
(-2.322172e-05 6.403616e-05 7.527784e-28)
(2.569615e-05 0.0001069839 1.942097e-27)
(-1.599859e-05 1.1203e-05 0)
(-3.228442e-05 2.385474e-05 1.56898e-28)
(-4.01709e-05 3.267463e-05 2.359718e-29)
(-4.234932e-05 4.125611e-05 3.53492e-29)
(-3.662205e-05 5.449664e-05 8.629305e-29)
(-1.104003e-05 8.465624e-05 1.737476e-28)
(5.944148e-05 0.000154652 6.664232e-28)
(-1.512859e-05 1.30011e-05 -2.033507e-28)
(-3.075074e-05 2.726667e-05 1.453575e-28)
(-3.814801e-05 3.677472e-05 6.279301e-30)
(-3.933751e-05 4.69765e-05 -1.935935e-28)
(-3.045314e-05 6.611176e-05 -1.937172e-28)
(4.93934e-06 0.0001141733 -3.964854e-28)
(8.836397e-05 0.0002187401 -3.179191e-27)
(-1.284965e-05 1.431348e-05 -1.683034e-29)
(-2.732756e-05 3.048847e-05 -3.953298e-30)
(-3.441895e-05 4.143375e-05 -6.692084e-30)
(-3.419218e-05 5.461693e-05 -8.077883e-29)
(-2.005042e-05 8.249911e-05 -3.272804e-28)
(2.778495e-05 0.0001532561 2.00991e-27)
(0.0001232801 0.0002939558 -4.66829e-27)
(-9.913065e-06 1.515963e-05 1.574177e-28)
(-2.24853e-05 3.365695e-05 1.596082e-28)
(-2.868065e-05 4.703923e-05 -2.033765e-28)
(-2.630691e-05 6.508897e-05 2.914437e-28)
(-5.333988e-06 0.0001062755 -1.150926e-27)
(5.674232e-05 0.0002056317 3.610992e-27)
(0.0001694161 0.0003857843 6.669123e-27)
(-6.935834e-06 1.556507e-05 1.615642e-28)
(-1.687856e-05 3.684911e-05 2.042779e-28)
(-2.124158e-05 5.409724e-05 -2.511867e-28)
(-1.508774e-05 7.995973e-05 3.49726e-28)
(1.582093e-05 0.000140888 -8.362052e-28)
(9.508036e-05 0.0002794392 2.614757e-27)
(0.0002212194 0.0005042733 -7.472621e-27)
(-4.277161e-06 1.551927e-05 1.358357e-28)
(-1.10202e-05 4.002245e-05 -4.7099e-29)
(-1.264359e-05 6.325518e-05 -5.274591e-29)
(-1.266458e-06 0.0001021282 6.082087e-28)
(4.217986e-05 0.0001931893 -2.268406e-28)
(0.0001370145 0.0003819378 -4.992325e-27)
(0.0002613473 0.0006566521 -5.277507e-27)
(-2.337784e-06 1.49438e-05 6.362487e-29)
(-6.183284e-06 4.316388e-05 -2.075777e-29)
(-4.405594e-06 7.526645e-05 -3.664554e-29)
(1.286827e-05 0.0001337775 1.055719e-31)
(6.705871e-05 0.0002675204 1.065462e-27)
(0.0001641035 0.0005127349 -4.522914e-27)
(0.0002600339 0.0008264274 8.112299e-27)
(-1.168976e-06 1.420588e-05 5.366279e-29)
(-3.193136e-06 4.652993e-05 7.743816e-30)
(6.950537e-08 8.962543e-05 1.679652e-28)
(1.842023e-05 0.0001739638 -1.684361e-30)
(6.769754e-05 0.0003556085 2.845421e-28)
(0.0001374852 0.00065126 -4.614576e-28)
(0.0001785052 0.0009989216 1.322406e-26)
(-5.300559e-07 1.336321e-05 -3.139507e-29)
(-1.589621e-06 4.932278e-05 6.227633e-29)
(1.324207e-06 0.0001045146 1.253519e-28)
(1.586808e-05 0.0002162304 1.584476e-30)
(4.948583e-05 0.0004415664 6.852514e-28)
(8.041691e-05 0.0007806597 2.848629e-27)
(5.793376e-05 0.001168961 4.101152e-27)
(-2.103456e-07 1.258457e-05 -2.061728e-29)
(-8.284274e-07 5.111993e-05 4.472326e-29)
(9.013181e-07 0.0001166396 -1.103115e-29)
(9.319315e-06 0.0002513182 1.366143e-28)
(2.566017e-05 0.0005093753 3.241577e-29)
(2.975672e-05 0.0008787419 -5.390858e-28)
(-1.50314e-05 0.001294522 2.571372e-27)
(-1.584954e-07 1.204877e-05 3.000461e-31)
(-7.174373e-07 5.169417e-05 -1.278081e-31)
(-8.112146e-07 0.0001229887 3.103924e-29)
(5.077035e-07 0.0002704312 1.456993e-28)
(2.335934e-06 0.0005451171 6.071172e-28)
(-3.275619e-06 0.0009277009 1.201777e-27)
(-2.875109e-05 0.001353413 -6.432868e-27)
(-2.239625e-07 1.193909e-05 -1.280396e-31)
(-8.201412e-07 5.118049e-05 -7.507066e-30)
(-2.884829e-06 0.0001217036 2.030634e-29)
(-8.775408e-06 0.0002677898 -5.500761e-29)
(-1.948446e-05 0.0005410182 5.979573e-28)
(-2.676646e-05 0.0009231806 -2.958138e-30)
(-1.533214e-05 0.001349738 -6.143814e-27)
(-1.057767e-07 1.228897e-05 -1.460071e-35)
(-3.829821e-07 4.973852e-05 -1.904808e-29)
(-3.699885e-06 0.0001131541 5.649183e-29)
(-1.555177e-05 0.000243904 -1.434487e-28)
(-3.925166e-05 0.0004972747 -1.144821e-29)
(-5.486028e-05 0.0008647888 1.345703e-27)
(-2.248484e-05 0.001282783 2.704324e-27)
(2.835093e-07 1.293655e-05 -5.119632e-33)
(7.432547e-07 4.7379e-05 -6.203184e-29)
(-3.10544e-06 9.96218e-05 -1.918902e-31)
(-1.97101e-05 0.0002053787 -7.32339e-29)
(-5.860923e-05 0.0004225396 -2.252068e-28)
(-9.896071e-05 0.0007575827 1.332958e-27)
(-8.487165e-05 0.001148348 8.462635e-27)
(1.057489e-06 1.37096e-05 3.987127e-29)
(2.890408e-06 4.436981e-05 -8.085191e-29)
(-5.02446e-07 8.427244e-05 -2.167946e-29)
(-1.907385e-05 0.0001615223 7.455514e-28)
(-7.006619e-05 0.0003314819 4.992311e-30)
(-0.0001452245 0.0006189449 -3.894344e-28)
(-0.0001894402 0.0009674341 -1.337016e-28)
(2.467528e-06 1.444898e-05 5.119778e-29)
(6.628062e-06 4.111545e-05 1.250036e-29)
(5.598774e-06 7.027089e-05 7.981228e-29)
(-9.826014e-06 0.0001216819 7.973687e-28)
(-6.097572e-05 0.0002407594 -1.490545e-27)
(-0.0001578277 0.0004700911 -3.402946e-27)
(-0.0002564992 0.0007777844 6.102144e-28)
(4.710838e-06 1.50774e-05 -1.082985e-29)
(1.219532e-05 3.829583e-05 8.546318e-30)
(1.49074e-05 5.914038e-05 1.714399e-29)
(6.051725e-06 9.18604e-05 5.202065e-28)
(-3.172412e-05 0.0001676065 -9.196434e-28)
(-0.0001206621 0.0003330599 1.17632e-27)
(-0.0002457183 0.0005917436 4.376012e-27)
(7.676373e-06 1.519394e-05 -1.194138e-29)
(1.868001e-05 3.544319e-05 -1.603624e-28)
(2.419544e-05 5.079954e-05 2.000053e-28)
(2.046906e-05 7.192755e-05 3.861045e-28)
(-3.99976e-06 0.0001195112 -1.221176e-27)
(-7.247993e-05 0.0002321545 6.144143e-28)
(-0.0001921579 0.0004313036 6.010242e-27)
(1.095969e-05 1.485407e-05 -1.731189e-28)
(2.482341e-05 3.254074e-05 -1.469277e-28)
(3.214886e-05 4.450167e-05 1.420108e-28)
(3.200985e-05 5.905047e-05 -2.636742e-29)
(1.72999e-05 8.962135e-05 -8.579451e-28)
(-3.1143e-05 0.0001644208 -5.226922e-28)
(-0.0001299805 0.0003118809 1.912301e-29)
(1.4167e-05 1.405478e-05 -3.847647e-28)
(3.003408e-05 2.959193e-05 1.26543e-29)
(3.819517e-05 3.959088e-05 -1.094432e-29)
(4.006633e-05 5.029697e-05 -3.718669e-29)
(3.166488e-05 7.022102e-05 -2.40852e-28)
(-1.773883e-06 0.0001195524 -1.3675e-27)
(-7.827854e-05 0.0002255234 -7.585084e-27)
(1.659669e-05 1.271938e-05 -2.150073e-28)
(3.352093e-05 2.638202e-05 -1.434542e-28)
(4.214498e-05 3.541052e-05 -1.692752e-29)
(4.525681e-05 4.413245e-05 6.565854e-30)
(4.102866e-05 5.765274e-05 -3.594248e-28)
(1.878301e-05 8.931078e-05 7.473283e-29)
(-4.150987e-05 0.000162064 -2.368644e-27)
(1.760933e-05 1.09361e-05 0)
(3.521555e-05 2.308152e-05 -1.321656e-28)
(4.436667e-05 3.160882e-05 -7.127925e-31)
(4.818395e-05 3.937357e-05 -1.718877e-29)
(4.618193e-05 4.916797e-05 -2.552143e-28)
(3.169118e-05 6.869554e-05 1.7578e-28)
(-1.298014e-05 0.0001138223 4.360957e-28)
(1.701246e-05 9.014395e-06 0)
(3.509135e-05 1.988797e-05 -1.487876e-29)
(4.476591e-05 2.78335e-05 -1.331206e-29)
(4.916553e-05 3.51145e-05 1.027786e-28)
(4.852328e-05 4.297265e-05 -1.498069e-28)
(3.955682e-05 5.526559e-05 3.600918e-29)
(1.102194e-05 8.173793e-05 1.173827e-27)
(1.48632e-05 7.124797e-06 -1.881688e-28)
(3.308195e-05 1.696321e-05 0)
(4.326307e-05 2.430161e-05 0)
(4.833513e-05 3.109653e-05 1.050031e-28)
(4.889114e-05 3.792734e-05 -1.136406e-28)
(4.383546e-05 4.642143e-05 4.783821e-28)
(2.728879e-05 6.161118e-05 1.014563e-27)
(1.184544e-05 5.473308e-06 -1.595293e-28)
(2.934956e-05 1.43265e-05 -8.26578e-30)
(4.001822e-05 2.113123e-05 -7.236021e-30)
(4.582292e-05 2.738041e-05 -5.86354e-29)
(4.759396e-05 3.354379e-05 -6.981626e-29)
(4.508057e-05 4.008808e-05 1.263756e-28)
(3.627779e-05 4.929004e-05 -7.2029e-28)
(8.92091e-06 4.161462e-06 0)
(2.449927e-05 1.188653e-05 1.263504e-28)
(3.535723e-05 1.822531e-05 0)
(4.174502e-05 2.388806e-05 -1.604838e-29)
(4.456407e-05 2.94308e-05 -1.80429e-29)
(4.375164e-05 3.488256e-05 -1.648148e-28)
(3.912118e-05 4.123502e-05 -5.748639e-28)
(6.652313e-06 3.197109e-06 0)
(1.970542e-05 9.748592e-06 -1.061006e-28)
(2.998725e-05 1.550373e-05 9.767179e-29)
(3.664825e-05 2.065266e-05 0)
(4.009902e-05 2.552749e-05 -3.62584e-29)
(4.047635e-05 3.016153e-05 1.577973e-29)
(3.808759e-05 3.502267e-05 -6.938933e-29)
(5.107627e-06 2.545841e-06 0)
(1.575072e-05 8.028512e-06 -2.65096e-28)
(2.486092e-05 1.30877e-05 -3.314497e-31)
(3.130076e-05 1.770991e-05 -2.028419e-28)
(3.498883e-05 2.197699e-05 -3.674354e-29)
(3.603581e-05 2.585317e-05 8.924102e-29)
(3.471236e-05 2.95732e-05 -2.283622e-28)
(3.991221e-06 2.082629e-06 6.365071e-29)
(1.275277e-05 6.756831e-06 -8.637471e-29)
(2.055362e-05 1.112347e-05 1.340709e-31)
(2.637548e-05 1.515708e-05 -1.464463e-28)
(2.992905e-05 1.881787e-05 0)
(3.127196e-05 2.205823e-05 0)
(3.052909e-05 2.490199e-05 -1.089277e-28)
(3.107595e-06 1.708954e-06 5.597376e-29)
(1.030295e-05 5.707967e-06 -7.653274e-29)
(1.694172e-05 9.47597e-06 7.226705e-29)
(2.204834e-05 1.295284e-05 7.116578e-29)
(2.527404e-05 1.606001e-05 0)
(2.656595e-05 1.874681e-05 0)
(2.62083e-05 2.098473e-05 -1.068015e-28)
(2.43089e-06 1.407695e-06 -5.339168e-29)
(8.351388e-06 4.844848e-06 -8.014641e-29)
(1.396387e-05 8.083016e-06 -7.540439e-30)
(1.836958e-05 1.106183e-05 5.557977e-29)
(2.11917e-05 1.369044e-05 5.45142e-29)
(2.238062e-05 1.591581e-05 -5.834748e-29)
(2.216447e-05 1.771291e-05 3.386991e-29)
(1.913122e-06 1.158651e-06 -5.073449e-29)
(6.798783e-06 4.119343e-06 -3.388819e-30)
(1.153387e-05 6.899821e-06 7.49412e-30)
(1.529643e-05 9.444775e-06 8.336292e-30)
(1.773316e-05 1.167814e-05 0)
(1.878194e-05 1.352591e-05 -6.956876e-29)
(1.865209e-05 1.499643e-05 4.881852e-29)
(1.517715e-06 9.500813e-07 0)
(5.563395e-06 3.50296e-06 -6.717633e-30)
(9.556264e-06 5.889914e-06 -7.4594e-30)
(1.27701e-05 8.081202e-06 1.648683e-28)
(1.486976e-05 9.983609e-06 7.094802e-29)
(1.57847e-05 1.152829e-05 7.233903e-29)
(1.569425e-05 1.275785e-05 2.153006e-29)
(1.213243e-06 7.706896e-07 -2.369701e-30)
(4.586503e-06 2.977702e-06 -3.338461e-30)
(7.967942e-06 5.030823e-06 0)
(1.073294e-05 6.923952e-06 -4.127011e-31)
(1.253404e-05 8.549669e-06 4.320382e-29)
(1.332774e-05 9.863523e-06 3.988099e-29)
(1.325185e-05 1.091228e-05 -1.973247e-29)
(9.772679e-07 6.164261e-07 3.393227e-29)
(3.807792e-06 2.528376e-06 -5.18082e-29)
(6.69975e-06 4.310015e-06 4.668806e-29)
(9.068407e-06 5.941071e-06 -1.178401e-28)
(1.062325e-05 7.338955e-06 2.917414e-29)
(1.131013e-05 8.47368e-06 0)
(1.124841e-05 9.387649e-06 1.898812e-29)
(7.957347e-07 4.84159e-07 3.362543e-29)
(3.200695e-06 2.153404e-06 -3.561584e-29)
(5.690596e-06 3.7e-06 3.568381e-29)
(7.731258e-06 5.109825e-06 0)
(9.066736e-06 6.320978e-06 -3.327288e-29)
(9.659197e-06 7.315161e-06 0)
(9.607538e-06 8.127988e-06 2.78176e-29)
(6.57002e-07 3.705865e-07 0)
(2.718363e-06 1.829896e-06 0)
(4.871775e-06 3.174697e-06 -6.568534e-29)
(6.630611e-06 4.400739e-06 0)
(7.788751e-06 5.465553e-06 -5.834211e-29)
(8.305705e-06 6.351413e-06 -2.691079e-29)
(8.262386e-06 7.0903e-06 2.418233e-29)
(5.51157e-07 2.749742e-07 -2.4511e-29)
(2.323603e-06 1.550195e-06 0)
(4.18983e-06 2.721953e-06 -2.536372e-29)
(5.721793e-06 3.799916e-06 3.118416e-29)
(6.735477e-06 4.747625e-06 -2.5552e-29)
(7.193532e-06 5.550253e-06 -4.697266e-29)
(7.165185e-06 6.23546e-06 -2.112798e-29)
(4.682406e-07 1.901556e-07 -2.040918e-29)
(2.006022e-06 1.310184e-06 -2.495032e-29)
(3.62782e-06 2.335742e-06 0)
(4.968167e-06 3.290614e-06 3.128043e-29)
(5.86093e-06 4.143081e-06 7.592867e-30)
(6.27003e-06 4.8797e-06 -4.904024e-29)
(6.253582e-06 5.522556e-06 -2.505078e-29)
(3.993411e-07 1.171514e-07 -1.905734e-29)
(1.738072e-06 1.102382e-06 -2.322586e-29)
(3.157899e-06 2.005015e-06 2.241638e-29)
(4.336951e-06 2.856482e-06 0)
(5.126393e-06 3.629328e-06 0)
(5.488226e-06 4.308473e-06 -1.799308e-29)
(5.451997e-06 4.905396e-06 8.120003e-29)
(3.43658e-07 5.416964e-08 -1.665414e-29)
(1.514252e-06 9.230064e-07 -2.048127e-29)
(2.762022e-06 1.719913e-06 1.955949e-29)
(3.803384e-06 2.483148e-06 0)
(4.505642e-06 3.189276e-06 7.253644e-30)
(4.833152e-06 3.823229e-06 2.543969e-33)
(4.80764e-06 4.394197e-06 -8.079796e-30)
(2.977723e-07 -7.499318e-10 0)
(1.32474e-06 7.664451e-07 -1.783947e-29)
(2.424582e-06 1.471253e-06 1.720286e-29)
(3.346751e-06 2.15783e-06 0)
(3.97361e-06 2.806719e-06 -2.21714e-29)
(4.272354e-06 3.404127e-06 -1.481066e-29)
(4.259163e-06 3.957281e-06 -7.855456e-30)
(2.592991e-07 -4.924156e-08 1.279268e-29)
(1.162398e-06 6.28156e-07 -1.562906e-30)
(2.133381e-06 1.251369e-06 1.330935e-29)
(2.950778e-06 1.869809e-06 -3.374148e-30)
(3.510354e-06 2.467544e-06 -3.409734e-30)
(3.782654e-06 3.032569e-06 -1.181674e-29)
(3.78044e-06 3.572139e-06 0)
(2.264725e-07 -9.253741e-08 2.222757e-29)
(1.021669e-06 5.045621e-07 0)
(1.879445e-06 1.05446e-06 0)
(2.603616e-06 1.611146e-06 1.566542e-29)
(3.100393e-06 2.161534e-06 2.619516e-29)
(3.340095e-06 2.699341e-06 -1.027429e-29)
(3.348078e-06 3.227863e-06 0)
(1.981866e-07 -1.316464e-07 9.623771e-30)
(8.988777e-07 3.929769e-07 -1.545435e-30)
(1.656896e-06 8.764752e-07 -1.596213e-30)
(2.298826e-06 1.376622e-06 -3.361698e-30)
(2.741977e-06 1.883165e-06 6.401441e-30)
(2.963429e-06 2.395336e-06 0)
(2.974881e-06 2.911039e-06 -7.534224e-30)
(1.735332e-07 -1.671598e-07 -5.925016e-31)
(7.91037e-07 2.914875e-07 -1.258619e-29)
(1.460717e-06 7.142005e-07 -1.143532e-29)
(2.029352e-06 1.162139e-06 -1.847737e-29)
(2.423865e-06 1.62774e-06 0)
(2.623222e-06 2.111924e-06 -6.553701e-30)
(2.636547e-06 2.611926e-06 7.205318e-32)
(1.519301e-07 -1.996631e-07 -6.652181e-30)
(6.959174e-07 1.985522e-07 -1.845118e-29)
(1.287187e-06 5.653358e-07 -1.851902e-29)
(1.790175e-06 9.647753e-07 -1.115678e-29)
(2.14085e-06 1.391674e-06 -3.318626e-30)
(2.319296e-06 1.84866e-06 -5.396714e-30)
(2.333281e-06 2.332033e-06 8.839645e-30)
(1.329506e-07 -2.295628e-07 -6.177847e-30)
(6.119891e-07 1.130058e-07 -1.520842e-29)
(1.133439e-06 4.279909e-07 -7.254437e-30)
(1.576621e-06 7.820538e-07 0)
(1.884327e-06 1.174677e-06 -2.643986e-29)
(2.044545e-06 1.606683e-06 -3.381261e-29)
(2.062422e-06 2.070608e-06 -6.77386e-30)
(1.163112e-07 -2.572218e-07 -5.925582e-30)
(5.381786e-07 3.369796e-08 -5.717697e-30)
(9.983709e-07 3.004167e-07 4.657657e-30)
(1.390669e-06 6.120826e-07 3.180477e-30)
(1.667912e-06 9.719316e-07 0)
(1.811243e-06 1.379868e-06 -4.565551e-30)
(1.825269e-06 1.824879e-06 3.330514e-30)
(1.017771e-07 -2.831169e-07 -5.085623e-30)
(4.733521e-07 -4.06539e-08 -4.813217e-30)
(8.796008e-07 1.806419e-07 3.089324e-30)
(1.22672e-06 4.523319e-07 1.578766e-30)
(1.47274e-06 7.792709e-07 0)
(1.600632e-06 1.162564e-06 -4.831626e-31)
(1.614505e-06 1.591421e-06 6.577998e-30)
(8.912263e-08 -3.077036e-07 5.91641e-31)
(4.166167e-07 -1.114187e-07 -8.61815e-30)
(7.755748e-07 6.6585e-08 1.537626e-30)
(1.083198e-06 3.000149e-07 1.568674e-30)
(1.301591e-06 5.949112e-07 0)
(1.415798e-06 9.53875e-07 0)
(1.429441e-06 1.367127e-06 0)
(7.821895e-08 -3.315137e-07 0)
(3.673051e-07 -1.800793e-07 -3.905907e-30)
(6.849784e-07 -4.422857e-08 0)
(9.583297e-07 1.51753e-07 3.348072e-31)
(1.152646e-06 4.153913e-07 -3.21728e-30)
(1.254982e-06 7.502156e-07 -3.207582e-30)
(1.268398e-06 1.147837e-06 -1.058907e-30)
(6.895643e-08 -3.551155e-07 -2.679404e-30)
(3.24813e-07 -2.484011e-07 0)
(6.060777e-07 -1.54717e-07 3.059556e-30)
(8.477855e-07 4.356492e-09 -1.909117e-29)
(1.021772e-06 2.376585e-07 -2.785332e-29)
(1.116208e-06 5.470218e-07 0)
(1.129822e-06 9.286508e-07 1.66687e-30)
(6.138703e-08 -3.792975e-07 -2.158188e-30)
(2.895677e-07 -3.186313e-07 0)
(5.414077e-07 -2.683558e-07 1.527251e-30)
(7.61291e-07 -1.477988e-07 1.566922e-30)
(9.185181e-07 5.404646e-08 -3.771556e-30)
(1.001116e-06 3.381621e-07 1.652993e-30)
(1.01316e-06 7.037787e-07 -1.312832e-30)
(5.560525e-08 -4.049973e-07 0)
(2.613168e-07 -3.936009e-07 -6.766253e-31)
(4.887065e-07 -3.896463e-07 1.523197e-30)
(6.876515e-07 -3.103368e-07 1.249288e-30)
(8.301982e-07 -1.421916e-07 -1.435979e-30)
(9.056185e-07 1.169575e-07 1.211106e-30)
(9.169116e-07 4.668005e-07 4.09558e-32)
(5.185261e-08 -4.335927e-07 0)
(2.408284e-07 -4.771829e-07 -1.674792e-30)
(4.493299e-07 -5.244905e-07 1.601337e-30)
(6.316977e-07 -4.903667e-07 2.33503e-30)
(7.622043e-07 -3.583663e-07 4.591376e-31)
(8.310813e-07 -1.24614e-07 3.111591e-30)
(8.410074e-07 2.10236e-07 6.069289e-31)
(5.067659e-08 -4.667557e-07 0)
(2.296351e-07 -5.745863e-07 0)
(4.254031e-07 -6.811559e-07 1.165359e-30)
(5.956512e-07 -6.978577e-07 -4.687997e-31)
(7.162687e-07 -6.047765e-07 4.156213e-32)
(7.785623e-07 -3.964459e-07 0)
(7.85685e-07 -7.465451e-08 0)
(5.310422e-08 -5.072986e-07 -7.764111e-31)
(2.30395e-07 -6.937793e-07 9.531247e-31)
(4.206077e-07 -8.714025e-07 -1.084732e-30)
(5.83077e-07 -9.465787e-07 -1.636385e-30)
(6.94976e-07 -8.952282e-07 -3.994169e-32)
(7.494669e-07 -7.109355e-07 3.084141e-30)
(7.511362e-07 -3.98092e-07 4.246964e-35)
(6.086464e-08 -5.595625e-07 3.250957e-32)
(2.48149e-07 -8.470065e-07 5.955257e-31)
(4.415467e-07 -1.112858e-06 -1.257157e-30)
(5.999017e-07 -1.256201e-06 -1.539507e-30)