/*--------------------------------*- C++ -*----------------------------------*\
| =========                 |                                                 |
| \\      /  F ield         | OpenFOAM: The Open Source CFD Toolbox           |
|  \\    /   O peration     | Version:  2206                                  |
|   \\  /    A nd           | Website:  www.openfoam.com                      |
|    \\/     M anipulation  |                                                 |
\*---------------------------------------------------------------------------*/
FoamFile
{
    version     2.0;
    format      ascii;
    arch        "LSB;label=32;scalar=64";
    class       volVectorField;
    location    "1";
    object      U.a_0;
}
// * * * * * * * * * * * * * * * * * * * * * * * * * * * * * * * * * * * * * //

dimensions      [0 1 -1 0 0 0 0];

internalField   nonuniform List<vector> 
13078
(
(4.300289e-07 -4.117912e-05 3.793106e-28)
(-8.909504e-08 -2.714992e-05 -1.515811e-33)
(-9.119218e-08 -1.90248e-05 -2.576168e-29)
(-4.39512e-08 -1.326774e-05 0)
(-2.603569e-08 -9.838133e-06 -1.17555e-29)
(-1.464979e-08 -7.485298e-06 -1.181598e-29)
(-5.308034e-09 -5.660537e-06 -1.185947e-29)
(-1.56214e-05 -2.072456e-05 0)
(-8.785559e-06 -2.022828e-05 -8.443157e-33)
(-3.499653e-06 -1.568865e-05 0)
(-1.655618e-06 -1.20018e-05 0)
(-9.005432e-07 -9.297148e-06 -1.893267e-33)
(-5.430307e-07 -7.213031e-06 -8.439034e-34)
(-3.512794e-07 -5.506967e-06 -1.40467e-33)
(-6.259538e-06 -6.609368e-06 -3.335901e-32)
(-5.586763e-06 -1.092659e-05 2.879835e-31)
(-3.547296e-06 -1.100124e-05 1.183841e-29)
(-2.162615e-06 -9.61649e-06 2.350373e-29)
(-1.365214e-06 -7.996362e-06 1.177861e-29)
(-9.019182e-07 -6.454674e-06 0)
(-6.19799e-07 -5.035646e-06 -6.75545e-35)
(-1.990661e-06 -2.963881e-06 -1.147416e-31)
(-2.973997e-06 -6.187273e-06 5.228427e-31)
(-2.622138e-06 -7.377161e-06 1.907769e-30)
(-1.997031e-06 -7.25785e-06 1.253694e-30)
(-1.455203e-06 -6.484322e-06 9.454649e-33)
(-1.060439e-06 -5.465016e-06 0)
(-7.800404e-07 -4.369376e-06 3.49123e-33)
(-7.57457e-07 -1.70525e-06 -2.959349e-31)
(-1.605513e-06 -3.785738e-06 -8.985401e-31)
(-1.783381e-06 -4.985284e-06 2.318417e-31)
(-1.616599e-06 -5.326131e-06 -6.568908e-31)
(-1.345713e-06 -5.073109e-06 -1.388374e-29)
(-1.076175e-06 -4.448096e-06 -4.141972e-35)
(-8.471696e-07 -3.629948e-06 1.189105e-29)
(-3.481087e-07 -1.163504e-06 0)
(-9.26719e-07 -2.50842e-06 7.460217e-31)
(-1.214934e-06 -3.467549e-06 -7.553477e-31)
(-1.259665e-06 -3.896083e-06 3.29579e-31)
(-1.168366e-06 -3.871421e-06 1.524168e-30)
(-1.019423e-06 -3.511073e-06 -1.199811e-29)
(-8.543732e-07 -2.903932e-06 -2.389576e-29)
(-1.911849e-07 -8.865402e-07 0)
(-5.871203e-07 -1.776582e-06 8.898138e-32)
(-8.629053e-07 -2.48755e-06 -1.192787e-29)
(-9.90571e-07 -2.867369e-06 -1.216877e-29)
(-1.002713e-06 -2.917616e-06 1.787699e-30)
(-9.390942e-07 -2.686456e-06 1.51546e-30)
(-8.33722e-07 -2.233473e-06 0)
(-1.232819e-07 -7.247418e-07 1.627133e-32)
(-4.156341e-07 -1.324244e-06 -2.169579e-32)
(-6.614932e-07 -1.834624e-06 3.485772e-32)
(-8.176927e-07 -2.129744e-06 0)
(-8.808419e-07 -2.179532e-06 4.225706e-31)
(-8.696978e-07 -1.999154e-06 1.521531e-30)
(-8.06925e-07 -1.62579e-06 1.523695e-30)
(-9.163273e-08 -6.204556e-07 3.247181e-32)
(-3.294089e-07 -1.024572e-06 2.198208e-31)
(-5.515944e-07 -1.384437e-06 1.573759e-30)
(-7.158184e-07 -1.589151e-06 1.531686e-30)
(-8.055767e-07 -1.606327e-06 1.925907e-30)
(-8.258403e-07 -1.4364e-06 1.525733e-30)
(-7.907002e-07 -1.099161e-06 0)
(-7.729046e-08 -5.479434e-07 -4.122019e-31)
(-2.902518e-07 -8.133367e-07 5.050814e-31)
(-5.008175e-07 -1.057754e-06 2.103706e-31)
(-6.686417e-07 -1.180878e-06 3.259273e-31)
(-7.730116e-07 -1.154421e-06 -3.966652e-32)
(-8.116984e-07 -9.736118e-07 0)
(-7.934147e-07 -6.484997e-07 0)
(-7.23358e-08 -4.942031e-07 0)
(-2.792541e-07 -6.558358e-07 0)
(-4.892741e-07 -8.094382e-07 6.55289e-31)
(-6.625753e-07 -8.618899e-07 1.949938e-32)
(-7.770629e-07 -7.898618e-07 4.125101e-32)
(-8.270729e-07 -5.877553e-07 0)
(-8.183368e-07 -2.605053e-07 0)
(-7.319612e-08 -4.521434e-07 0)
(-2.866015e-07 -5.320917e-07 -1.062139e-30)
(-5.053545e-07 -6.117248e-07 1.008872e-30)
(-6.883195e-07 -6.030886e-07 -1.328549e-30)
(-8.123445e-07 -4.871388e-07 -2.106636e-30)
(-8.702471e-07 -2.592281e-07 0)
(-8.664385e-07 7.813855e-08 3.278486e-30)
(-7.808456e-08 -4.172678e-07 0)
(-3.071468e-07 -4.296639e-07 -2.969717e-30)
(-5.424428e-07 -4.469026e-07 -1.515458e-30)
(-7.399346e-07 -3.845645e-07 5.970994e-31)
(-8.749586e-07 -2.273116e-07 -8.329868e-31)
(-9.394492e-07 2.790817e-08 6.630457e-31)
(-9.378122e-07 3.796266e-07 4.048418e-32)
(-8.605344e-08 -3.868901e-07 -1.493476e-30)
(-3.382576e-07 -3.406257e-07 0)
(-5.968169e-07 -3.029732e-07 -1.518718e-30)
(-8.136531e-07 -1.922908e-07 -1.555048e-30)
(-9.621404e-07 3.647997e-09 -2.385228e-30)
(-1.033165e-06 2.864803e-07 1.024423e-30)
(-1.03224e-06 6.546407e-07 -7.540074e-31)
(-9.667426e-08 -3.590876e-07 -1.917902e-30)
(-3.78609e-07 -2.594502e-07 0)
(-6.66286e-07 -1.715427e-07 -3.040674e-30)
(-9.037536e-07 -1.627692e-08 2.369294e-29)
(-1.067916e-06 2.159024e-07 2.355525e-29)
(-1.149683e-06 5.268144e-07 0)
(-1.149742e-06 9.124006e-07 1.028782e-30)
(-1.097626e-07 -3.325493e-07 0)
(-4.280948e-07 -1.822494e-07 -2.841527e-30)
(-7.525986e-07 -4.650243e-08 0)
(-1.020886e-06 1.509282e-07 5.580918e-30)
(-1.204304e-06 4.178398e-07 3.180375e-30)
(-1.292783e-06 7.573936e-07 3.16445e-30)
(-1.291754e-06 1.160875e-06 4.606801e-30)
(-1.252035e-07 -3.062381e-07 0)
(-4.861102e-07 -1.060265e-07 -6.94906e-30)
(-8.528878e-07 7.683166e-08 -1.525852e-30)
(-1.154909e-06 3.16381e-07 -1.552445e-30)
(-1.361379e-06 6.187356e-07 0)
(-1.460583e-06 9.858012e-07 0)
(-1.458768e-06 1.40724e-06 0)
(-1.43128e-07 -2.794359e-07 -2.776143e-30)
(-5.531873e-07 -2.849701e-08 -4.94618e-30)
(-9.686985e-07 2.021726e-07 -3.062901e-30)
(-1.309992e-06 4.843651e-07 -1.560573e-30)
(-1.54314e-06 8.228832e-07 0)
(-1.654853e-06 1.217821e-06 -5.901316e-30)
(-1.652188e-06 1.657594e-06 -6.455565e-30)
(-1.637091e-07 -2.514599e-07 -3.462535e-30)
(-6.299949e-07 5.225444e-08 -5.667356e-30)
(-1.101322e-06 3.32605e-07 -4.613187e-30)
(-1.487685e-06 6.590009e-07 -3.13963e-30)
(-1.75119e-06 1.034649e-06 0)
(-1.877262e-06 1.458057e-06 -3.351776e-30)
(-1.873603e-06 1.917044e-06 -3.261758e-30)
(-1.871851e-07 -2.217696e-07 -4.724755e-30)
(-7.174261e-07 1.378282e-07 -1.165207e-29)
(-1.252292e-06 4.706714e-07 -5.547162e-30)
(-1.689472e-06 8.436692e-07 0)
(-1.982699e-06 1.256316e-06 2.599525e-29)
(-2.125015e-06 1.708077e-06 3.314187e-29)
(-2.123768e-06 2.189362e-06 6.619131e-30)
(-2.138216e-07 -1.898092e-07 -6.187217e-30)
(-8.166971e-07 2.296923e-07 -1.289357e-29)
(-1.424003e-06 6.18578e-07 -1.152359e-29)
(-1.920947e-06 1.041165e-06 -2.939163e-30)
(-2.256404e-06 1.492249e-06 3.25385e-30)
(-2.416064e-06 1.973517e-06 -3.830361e-30)
(-2.409701e-06 2.478091e-06 6.487878e-31)
(-2.439972e-07 -1.55226e-07 0)
(-9.289581e-07 3.290859e-07 -6.469173e-30)
(-1.617578e-06 7.783462e-07 -6.0971e-30)
(-2.180142e-06 1.253795e-06 -1.432878e-29)
(-2.558343e-06 1.747811e-06 0)
(-2.737751e-06 2.260653e-06 -4.776578e-30)
(-2.729567e-06 2.785723e-06 6.993394e-32)
(-2.782013e-07 -1.175015e-07 7.510146e-30)
(-1.055755e-06 4.373783e-07 0)
(-1.835782e-06 9.519926e-07 0)
(-2.471493e-06 1.484078e-06 3.150283e-30)
(-2.896916e-06 2.023297e-06 1.092296e-29)
(-3.096774e-06 2.568298e-06 0)
(-3.085244e-06 3.112682e-06 -5.749745e-30)
(-3.170467e-07 -7.600723e-08 1.744341e-29)
(-1.199313e-06 5.562725e-07 0)
(-2.082208e-06 1.142064e-06 0)
(-2.799666e-06 1.735151e-06 6.422285e-30)
(-3.276566e-06 2.322331e-06 1.442923e-29)
(-3.492515e-06 2.896626e-06 -7.968029e-30)
(-3.475982e-06 3.457272e-06 0)
(-3.614822e-07 -3.001763e-08 1.008704e-29)
(-1.362648e-06 6.879536e-07 1.544717e-30)
(-2.361789e-06 1.35203e-06 1.33583e-29)
(-3.171342e-06 2.011465e-06 3.292298e-30)
(-3.707994e-06 2.64992e-06 3.464717e-30)
(-3.953463e-06 3.254295e-06 -9.233836e-30)
(-3.923725e-06 3.829012e-06 0)
(-4.126877e-07 2.152448e-08 0)
(-1.549519e-06 8.353435e-07 -1.410028e-29)
(-2.680312e-06 1.586532e-06 1.361086e-29)
(-3.592652e-06 2.318962e-06 0)
(-4.192619e-06 3.012406e-06 -5.016639e-30)
(-4.459815e-06 3.65155e-06 1.425877e-29)
(-4.414163e-06 4.24077e-06 7.530362e-30)
(-4.724509e-07 7.996628e-08 -1.320078e-29)
(-1.765291e-06 1.002406e-06 -1.625564e-29)
(-3.046329e-06 1.851998e-06 1.550395e-29)
(-4.07493e-06 2.666317e-06 0)
(-4.745102e-06 3.420708e-06 -6.995147e-30)
(-5.034733e-06 4.09791e-06 -2.089464e-33)
(-4.969337e-06 4.703189e-06 7.714007e-30)
(-5.429782e-07 1.471206e-07 -1.515983e-29)
(-2.016726e-06 1.194127e-06 -1.845677e-29)
(-3.471387e-06 2.156718e-06 1.783416e-29)
(-4.633512e-06 3.065088e-06 0)
(-5.38398e-06 3.889947e-06 0)
(-5.69944e-06 4.612766e-06 -1.425707e-29)
(-5.612885e-06 5.238213e-06 -4.930541e-29)
(-6.274718e-07 2.250233e-07 -1.839722e-29)
(-2.313143e-06 1.416473e-06 -2.276141e-29)
(-3.970184e-06 2.510536e-06 0)
(-5.287737e-06 3.529163e-06 1.217978e-29)
(-6.132753e-06 4.437915e-06 -7.268603e-30)
(-6.484907e-06 5.217992e-06 -2.515237e-29)
(-6.404628e-06 5.88071e-06 2.366984e-29)
(-7.260711e-07 3.155247e-07 -1.957717e-29)
(-2.659136e-06 1.673441e-06 0)
(-4.55945e-06 2.924001e-06 -2.638926e-29)
(-6.060543e-06 4.074018e-06 1.840858e-29)
(-7.015904e-06 5.083556e-06 -2.038193e-29)
(-7.405456e-06 5.93118e-06 -3.745526e-29)
(-7.300495e-06 6.631427e-06 -1.680666e-29)
(-8.47332e-07 4.175708e-07 0)
(-3.080894e-06 1.972977e-06 0)
(-5.264985e-06 3.408691e-06 -5.249834e-29)
(-6.982176e-06 4.716598e-06 0)
(-8.068807e-06 5.85015e-06 -4.665404e-29)
(-8.504071e-06 6.784071e-06 -2.152011e-29)
(-8.371299e-06 7.535564e-06 1.930166e-29)
(-1.001991e-06 5.388834e-07 -2.741989e-29)
(-3.586594e-06 2.319267e-06 2.79761e-29)
(-6.101352e-06 3.97053e-06 2.826395e-29)
(-8.085976e-06 5.473938e-06 0)
(-9.332927e-06 6.761877e-06 -2.666472e-29)
(-9.827721e-06 7.80791e-06 0)
(-9.672401e-06 8.631763e-06 5.226806e-30)
(-1.19851e-06 6.799774e-07 -2.8193e-29)
(-4.211672e-06 2.719609e-06 3.492574e-29)
(-7.117772e-06 4.621577e-06 1.004442e-28)
(-9.413019e-06 6.359768e-06 6.992132e-29)
(-1.085706e-05 7.843577e-06 -2.219588e-29)
(-1.142576e-05 9.033979e-06 8.392486e-30)
(-1.124249e-05 9.956284e-06 -8.802826e-30)
(-1.448187e-06 8.441751e-07 1.173486e-30)
(-5.002631e-06 3.197866e-06 1.622816e-30)
(-8.379948e-06 5.387729e-06 4.52247e-29)
(-1.10479e-05 7.403749e-06 6.347269e-29)
(-1.27115e-05 9.125625e-06 -5.111711e-29)
(-1.336105e-05 1.049839e-05 1.727419e-29)
(-1.314043e-05 1.155037e-05 3.643868e-29)
(-1.766319e-06 1.035388e-06 -1.17321e-30)
(-5.988056e-06 3.757584e-06 -1.631732e-30)
(-9.948885e-06 6.299332e-06 3.546159e-29)
(-1.303416e-05 8.629207e-06 -2.729721e-29)
(-1.496428e-05 1.063877e-05 -8.350163e-29)
(-1.57023e-05 1.224592e-05 1.887138e-29)
(-1.543477e-05 1.346937e-05 0)
(-2.17567e-06 1.259496e-06 0)
(-7.223997e-06 4.413476e-06 0)
(-1.18937e-05 7.369106e-06 4.733675e-29)
(-1.548952e-05 1.006918e-05 6.179581e-29)
(-1.771833e-05 1.242106e-05 1.298969e-28)
(-1.856262e-05 1.434228e-05 1.160005e-28)
(-1.819726e-05 1.578858e-05 0)
(-2.70586e-06 1.525174e-06 -2.340079e-30)
(-8.776228e-06 5.186398e-06 3.266337e-30)
(-1.428557e-05 8.623796e-06 7.180262e-30)
(-1.847664e-05 1.177541e-05 0)
(-2.106297e-05 1.453908e-05 1.007435e-28)
(-2.198572e-05 1.684355e-05 -1.91775e-29)
(-2.14773e-05 1.860654e-05 -4.039534e-29)
(-3.399521e-06 1.847458e-06 -4.428977e-29)
(-1.073197e-05 6.108308e-06 3.283377e-30)
(-1.721175e-05 1.009751e-05 -5.742548e-29)
(-2.203853e-05 1.376457e-05 0)
(-2.495222e-05 1.702497e-05 7.30446e-29)
(-2.592103e-05 1.980236e-05 -7.155416e-29)
(-2.52428e-05 2.202142e-05 -2.095242e-28)
(-4.32187e-06 2.253437e-06 -4.862483e-29)
(-1.320473e-05 7.227989e-06 -6.016572e-29)
(-2.077211e-05 1.183638e-05 -6.294827e-29)
(-2.622466e-05 1.606932e-05 -1.555923e-29)
(-2.939498e-05 1.990051e-05 -3.390982e-29)
(-3.03389e-05 2.325072e-05 5.490403e-30)
(-2.919835e-05 2.609854e-05 -9.716585e-29)
(-5.608312e-06 2.811634e-06 0)
(-1.632428e-05 8.617027e-06 6.27937e-29)
(-2.505036e-05 1.390014e-05 6.840246e-29)
(-3.100367e-05 1.872167e-05 7.727047e-30)
(-3.421171e-05 2.317095e-05 -8.483314e-29)
(-3.475993e-05 2.718346e-05 -1.993719e-29)
(-3.291476e-05 3.103429e-05 0)
(-7.338962e-06 3.541925e-06 7.840292e-29)
(-2.03986e-05 1.044044e-05 1.405556e-28)
(-3.01251e-05 1.639387e-05 4.858472e-29)
(-3.618801e-05 2.175045e-05 1.475556e-28)
(-3.904913e-05 2.682025e-05 -9.300634e-29)
(-3.884954e-05 3.174532e-05 6.944911e-29)
(-3.576749e-05 3.726358e-05 -1.294304e-28)
(-9.820034e-06 4.584223e-06 9.997935e-29)
(-2.527983e-05 1.264353e-05 -4.0072e-30)
(-3.547693e-05 1.916697e-05 0)
(-4.119052e-05 2.50462e-05 5.270662e-30)
(-4.327402e-05 3.087017e-05 1.737941e-28)
(-4.182686e-05 3.716107e-05 1.134421e-28)
(-3.604546e-05 4.551874e-05 -2.178236e-28)
(-1.297064e-05 5.961773e-06 -1.308269e-28)
(-3.029618e-05 1.514105e-05 8.009348e-30)
(-4.027996e-05 2.212034e-05 6.843205e-30)
(-4.531502e-05 2.856308e-05 -2.247086e-28)
(-4.626274e-05 3.533851e-05 1.804873e-28)
(-4.27457e-05 4.400984e-05 5.248921e-29)
(-3.148821e-05 5.827684e-05 -3.082289e-29)
(-1.626195e-05 7.670547e-06 -1.537181e-28)
(-3.431804e-05 1.781915e-05 0)
(-4.382357e-05 2.535013e-05 1.289027e-29)
(-4.811869e-05 3.240901e-05 1.438796e-29)
(-4.778168e-05 4.049194e-05 2.827423e-28)
(-4.093208e-05 5.340097e-05 8.821704e-28)
(-1.914238e-05 8.019571e-05 -1.451963e-27)
(-1.874088e-05 9.618219e-06 0)
(-3.669206e-05 2.075176e-05 1.468687e-29)
(-4.567238e-05 2.88834e-05 1.874432e-29)
(-4.939422e-05 3.669566e-05 1.373644e-29)
(-4.793646e-05 4.69464e-05 2.035345e-28)
(-3.617726e-05 6.737071e-05 8.977048e-28)
(3.920764e-07 0.0001162053 -2.663462e-27)
(-1.96491e-05 1.159666e-05 0)
(-3.722339e-05 2.394502e-05 -7.699536e-30)
(-4.568707e-05 3.260724e-05 6.436374e-30)
(-4.903331e-05 4.145205e-05 3.010721e-29)
(-4.632669e-05 5.565692e-05 6.8048e-29)
(-2.895289e-05 8.874948e-05 -8.988513e-28)
(2.403979e-05 0.0001690164 -2.900971e-27)
(-1.880259e-05 1.340911e-05 -1.665341e-28)
(-3.598171e-05 2.730552e-05 3.258302e-30)
(-4.421516e-05 3.662617e-05 4.646129e-30)
(-4.707708e-05 4.704597e-05 1.972829e-29)
(-4.263702e-05 6.709912e-05 -7.102978e-28)
(-1.893347e-05 0.0001190852 -5.630073e-30)
(4.318248e-05 0.0002386413 -7.893118e-28)
(-1.636171e-05 1.472295e-05 -1.648329e-28)
(-3.28406e-05 3.052527e-05 -9.168805e-29)
(-4.113186e-05 4.119813e-05 -1.021671e-30)
(-4.324144e-05 5.444144e-05 -5.994212e-29)
(-3.536237e-05 8.313329e-05 -1.400566e-27)
(-2.603074e-06 0.0001589859 2.197472e-27)
(6.917198e-05 0.0003195407 -7.398769e-27)
(-1.313895e-05 1.553526e-05 -1.518146e-28)
(-2.819578e-05 3.368257e-05 8.342486e-30)
(-3.61235e-05 4.666159e-05 -1.423607e-28)
(-3.69404e-05 6.448984e-05 -3.91838e-29)
(-2.422725e-05 0.0001061417 -4.646932e-28)
(2.01263e-05 0.0002124718 -5.252727e-30)
(0.0001084152 0.0004201343 -1.449912e-26)
(-9.804702e-06 1.586879e-05 3.055882e-32)
(-2.262643e-05 3.679792e-05 2.687259e-28)
(-2.939701e-05 5.345915e-05 -1.633497e-28)
(-2.758543e-05 7.869192e-05 -3.632819e-28)
(-7.188019e-06 0.000140098 -8.209643e-29)
(5.262034e-05 0.0002902066 -7.62581e-28)
(0.0001556871 0.000553857 2.082714e-30)
(-6.732059e-06 1.57201e-05 1.193497e-28)
(-1.656919e-05 3.976745e-05 7.531165e-29)
(-2.131833e-05 6.213256e-05 1.6194e-29)
(-1.568918e-05 9.989307e-05 -4.243816e-28)
(1.52893e-05 0.0001929704 1.049764e-28)
(9.162074e-05 0.0004039601 -2.973924e-27)
(0.0001959397 0.0007375744 1.388293e-28)
(-4.305766e-06 1.500674e-05 4.638389e-29)
(-1.121697e-05 4.251482e-05 6.599291e-30)
(-1.31833e-05 7.330659e-05 4.677675e-30)
(-2.81806e-06 0.0001304609 1.666353e-30)
(3.83675e-05 0.0002708806 8.496652e-28)
(0.0001206938 0.0005557312 -9.503429e-27)
(0.0002046573 0.0009576092 -1.391369e-26)
(-2.639578e-06 1.411304e-05 7.479766e-29)
(-7.421367e-06 4.529957e-05 7.7592e-29)
(-7.926182e-06 8.637096e-05 7.616246e-30)
(3.397298e-06 0.00016927 -2.656132e-29)
(4.067592e-05 0.0003634123 1.83665e-27)
(9.591857e-05 0.0007122136 1.894858e-27)
(0.0001247054 0.001177017 -3.294921e-27)
(-1.526684e-06 1.311888e-05 2.538123e-29)
(-4.780692e-06 4.745057e-05 -6.656481e-30)
(-5.187022e-06 9.97876e-05 -1.376078e-28)
(3.142262e-06 0.0002100573 2.498138e-29)
(2.638424e-05 0.0004526455 1.708097e-27)
(4.197219e-05 0.0008518738 1.367764e-27)
(-2.393019e-06 0.001353439 2.50246e-27)
(-7.814533e-07 1.222697e-05 -4.414088e-31)
(-2.819596e-06 4.869866e-05 -8.112901e-30)
(-3.415887e-06 0.0001105738 -1.251188e-28)
(5.995277e-07 0.0002436974 -4.884263e-29)
(9.527131e-06 0.0005216659 1.407682e-28)
(1.519629e-06 0.0009528108 -6.734719e-28)
(-6.302061e-05 0.001464991 -2.345256e-27)
(-3.488166e-07 1.163482e-05 1.456221e-30)
(-1.399465e-06 4.897188e-05 -2.928683e-30)
(-2.327265e-06 0.0001161454 -1.078057e-29)
(-2.645941e-06 0.0002619155 -1.172729e-28)
(-3.787331e-06 0.000557476 1.100401e-29)
(-1.465718e-05 0.001001537 -9.228479e-28)
(-4.901682e-05 0.001512615 -8.95018e-27)
(-5.512792e-08 1.152944e-05 1.254764e-30)
(-1.645349e-07 4.849585e-05 3.40157e-30)
(-1.368741e-06 0.0001149318 -7.791981e-30)
(-5.713117e-06 0.0002592121 -2.090368e-28)
(-1.424696e-05 0.000552764 2.878897e-30)
(-1.839791e-05 0.0009958251 -4.349026e-29)
(-1.327604e-06 0.001506882 -6.744264e-27)
(4.281791e-07 1.194125e-05 -2.373146e-34)
(1.520916e-06 4.741893e-05 3.691599e-29)
(4.835927e-07 0.0001073008 3.855097e-29)
(-7.115182e-06 0.0002361986 -1.661308e-28)
(-2.4098e-05 0.0005079832 -1.819409e-28)
(-2.947438e-05 0.0009355065 1.055261e-28)
(2.02254e-05 0.001446832 -9.887636e-29)
(1.218951e-06 1.270105e-05 -8.308149e-32)
(3.764287e-06 4.564759e-05 5.264877e-29)
(3.091122e-06 9.522373e-05 3.730106e-31)
(-7.573023e-06 0.0001992332 2.393529e-29)
(-3.675089e-05 0.00043145 2.196998e-28)
(-6.345127e-05 0.0008234233 -3.088196e-28)
(-2.981103e-05 0.001322512 -6.726056e-27)
(2.435598e-06 1.361605e-05 -3.186006e-29)
(6.853073e-06 4.328844e-05 -9.664136e-30)
(6.973176e-06 8.141242e-05 -2.476308e-29)
(-5.038876e-06 0.0001570815 5.649464e-28)
(-4.473142e-05 0.0003371259 7.758965e-29)
(-0.0001069211 0.000673394 1.768063e-27)
(-0.0001412607 0.001132517 2.859909e-27)
(4.30891e-06 1.449449e-05 -4.157806e-29)
(1.130906e-05 4.059223e-05 -6.208277e-29)
(1.365948e-05 6.870044e-05 4.270418e-28)
(4.409908e-06 0.0001188766 1.217716e-27)
(-3.473242e-05 0.0002426977 2.252746e-27)
(-0.0001179617 0.0005063792 2.254926e-28)
(-0.0002039629 0.0008951609 6.905311e-27)
(7.01234e-06 1.524642e-05 -1.000689e-28)
(1.73425e-05 3.812412e-05 9.339697e-29)
(2.278765e-05 5.833076e-05 3.981341e-28)
(1.881612e-05 9.023772e-05 7.490365e-28)
(-8.026577e-06 0.0001670524 -3.861054e-28)
(-7.946947e-05 0.0003492027 -8.584003e-28)
(-0.0001846556 0.0006591727 -4.821727e-27)
(1.038562e-05 1.545945e-05 -1.069993e-28)
(2.401651e-05 3.542743e-05 -1.918616e-30)
(3.155764e-05 5.037182e-05 1.410744e-28)
(3.132342e-05 7.115916e-05 2.96535e-28)
(1.53849e-05 0.00011897 -4.909386e-28)
(-3.610055e-05 0.0002390598 5.897802e-28)
(-0.0001346228 0.0004686737 -3.513825e-27)
(1.404363e-05 1.519081e-05 2.107872e-29)
(3.013709e-05 3.255798e-05 1.869917e-30)
(3.885084e-05 4.423219e-05 -7.670448e-30)
(4.112808e-05 5.87602e-05 1.495908e-29)
(3.261888e-05 8.976509e-05 -3.855396e-28)
(-1.554511e-06 0.0001686569 3.909683e-28)
(-7.833351e-05 0.0003347308 2.915263e-28)
(1.757847e-05 1.442864e-05 -1.578261e-28)
(3.519077e-05 2.95895e-05 1.241974e-28)
(4.426576e-05 3.93748e-05 -1.045652e-28)
(4.780439e-05 5.024139e-05 3.705604e-29)
(4.375598e-05 7.092708e-05 -1.173435e-27)
(2.136089e-05 0.0001232644 5.137576e-28)
(-3.540893e-05 0.0002411168 -1.66045e-27)
(2.022614e-05 1.30993e-05 -1.783497e-28)
(3.84627e-05 2.637661e-05 3.89503e-30)
(4.767513e-05 3.522131e-05 -2.035016e-30)
(5.195142e-05 4.417239e-05 1.926729e-28)
(5.06336e-05 5.852108e-05 -3.657098e-28)
(3.623301e-05 9.263785e-05 6.778442e-28)
(-7.879825e-06 0.0001738727 -1.804368e-27)
(2.128675e-05 1.130814e-05 0)
(3.99426e-05 2.311866e-05 -2.510555e-31)
(4.944214e-05 3.146185e-05 -1.132503e-29)
(5.407334e-05 3.943261e-05 9.555718e-29)
(5.400186e-05 5.003455e-05 2.261934e-28)
(4.462756e-05 7.156136e-05 1.381497e-28)
(1.188587e-05 0.000122444 -1.398753e-27)
(2.053234e-05 9.374451e-06 0)
(3.958435e-05 2.001548e-05 -1.474405e-29)
(4.946072e-05 2.781113e-05 -1.85558e-29)
(5.440556e-05 3.522766e-05 -8.115718e-29)
(5.506749e-05 4.374168e-05 1.418474e-28)
(4.921483e-05 5.766236e-05 2.098146e-28)
(2.835173e-05 8.770185e-05 -1.065233e-27)
(1.80066e-05 7.468031e-06 -1.599578e-28)
(3.727988e-05 1.719173e-05 0)
(4.758153e-05 2.44049e-05 0)
(5.299316e-05 3.128398e-05 6.046253e-30)
(5.44155e-05 3.865015e-05 1.808712e-28)
(5.119872e-05 4.842039e-05 1.122461e-28)
(3.898293e-05 6.593275e-05 -7.819124e-28)
(1.444609e-05 5.790136e-06 -1.376386e-28)
(3.315923e-05 1.46467e-05 -8.197282e-30)
(4.395678e-05 2.136359e-05 -6.873913e-30)
(4.99379e-05 2.765038e-05 -5.511521e-29)
(5.226148e-05 3.419154e-05 -6.567402e-29)
(5.088091e-05 4.171493e-05 -2.720892e-28)
(4.429264e-05 5.251513e-05 -1.039977e-27)
(1.093561e-05 4.436654e-06 0)
(2.775204e-05 1.2238e-05 1.032474e-28)
(3.885325e-05 1.85574e-05 0)
(4.535369e-05 2.42693e-05 -1.491758e-29)
(4.848113e-05 3.003636e-05 -1.678882e-29)
(4.838376e-05 3.617116e-05 -7.715545e-30)
(4.490398e-05 4.367419e-05 -3.998759e-28)
(8.167528e-06 3.428854e-06 0)
(2.238417e-05 1.010877e-05 -8.729937e-29)
(3.295049e-05 1.587147e-05 7.879858e-29)
(3.971441e-05 2.107384e-05 0)
(4.331733e-05 2.608529e-05 -3.375748e-29)
(4.409891e-05 3.116574e-05 4.378645e-30)
(4.234167e-05 3.682497e-05 -6.072653e-29)
(6.216395e-06 2.72014e-06 0)
(1.792064e-05 8.371849e-06 -2.183267e-28)
(2.735652e-05 1.347719e-05 -3.091517e-31)
(3.388331e-05 1.815382e-05 -1.65153e-28)
(3.761858e-05 2.250874e-05 -3.383625e-29)
(3.880021e-05 2.661055e-05 7.603035e-29)
(3.777723e-05 3.084431e-05 -2.20524e-28)
(4.763547e-06 2.172272e-06 5.083466e-29)
(1.441025e-05 6.9993e-06 -6.99545e-29)
(2.261535e-05 1.148451e-05 1.287138e-31)
(2.857021e-05 1.562321e-05 -1.153556e-28)
(3.215684e-05 1.939735e-05 0)
(3.347351e-05 2.27335e-05 0)
(3.272786e-05 2.576806e-05 -8.844505e-29)
(3.75578e-06 1.788267e-06 4.397149e-29)
(1.170824e-05 5.936073e-06 -6.141166e-29)
(1.870801e-05 9.835209e-06 5.755099e-29)
(2.394278e-05 1.343294e-05 5.684915e-29)
(2.718033e-05 1.665664e-05 0)
(2.840489e-05 1.94413e-05 0)
(2.786749e-05 2.170569e-05 -9.200842e-29)
(2.989399e-06 1.481333e-06 -4.250841e-29)
(9.569293e-06 5.064556e-06 -6.613368e-29)
(1.550295e-05 8.438285e-06 -7.143743e-30)
(2.002294e-05 1.154272e-05 4.337521e-29)
(2.283732e-05 1.42834e-05 5.033696e-29)
(2.392116e-05 1.658799e-05 -4.025144e-29)
(2.348017e-05 1.838169e-05 2.564631e-29)
(2.403286e-06 1.2281e-06 -4.091408e-29)
(7.86985e-06 4.330176e-06 -3.274972e-30)
(1.289018e-05 7.244917e-06 7.119601e-30)
(1.675286e-05 9.913967e-06 7.802699e-30)
(1.91673e-05 1.225381e-05 0)
(2.009013e-05 1.416574e-05 -5.793265e-29)
(1.973102e-05 1.562584e-05 3.964143e-29)
(1.9535e-06 1.015875e-06 0)
(6.51428e-06 3.703369e-06 -6.510592e-30)
(1.076072e-05 6.219176e-06 -7.109226e-30)
(1.40602e-05 8.529956e-06 1.408765e-28)
(1.612794e-05 1.052932e-05 6.620906e-29)
(1.691484e-05 1.212935e-05 5.611289e-29)
(1.661389e-05 1.334744e-05 1.531346e-29)
(1.602374e-06 8.324402e-07 -2.345081e-30)
(5.434773e-06 3.165808e-06 -3.2422e-30)
(9.041805e-06 5.339638e-06 0)
(1.187939e-05 7.343802e-06 -3.857832e-31)
(1.364098e-05 9.057066e-06 3.469629e-29)
(1.431734e-05 1.042052e-05 3.212126e-29)
(1.405272e-05 1.145907e-05 -1.81533e-29)
(1.325033e-06 6.737443e-07 2.693486e-29)
(4.565944e-06 2.702901e-06 -4.291472e-29)
(7.659128e-06 4.596787e-06 3.116069e-29)
(1.008764e-05 6.328138e-06 -9.981428e-29)
(1.16034e-05 7.804771e-06 2.222411e-29)
(1.218388e-05 8.984494e-06 0)
(1.195426e-05 9.889715e-06 1.757618e-29)
(1.106381e-06 5.367807e-07 2.735928e-29)
(3.879519e-06 2.313996e-06 -2.791478e-29)
(6.546733e-06 3.962737e-06 2.82206e-29)
(8.636216e-06 5.462986e-06 0)
(9.936776e-06 6.745134e-06 -2.667948e-29)
(1.043439e-05 7.780441e-06 0)
(1.023418e-05 8.586224e-06 2.237901e-29)
(9.34171e-07 4.183764e-07 0)
(3.324586e-06 1.975845e-06 0)
(5.633754e-06 3.413116e-06 -5.243976e-29)
(7.435092e-06 4.720535e-06 0)
(8.562461e-06 5.849877e-06 -4.668611e-29)
(8.99568e-06 6.773763e-06 -2.156402e-29)
(8.821332e-06 7.507735e-06 1.937491e-29)
(7.993248e-07 3.183433e-07 -1.954813e-29)
(2.863453e-06 1.681865e-06 0)
(4.867432e-06 2.936833e-06 -1.961804e-29)
(6.437343e-06 4.088401e-06 2.549988e-29)
(7.42448e-06 5.095116e-06 -2.039694e-29)
(7.809769e-06 5.933806e-06 -3.752549e-29)
(7.667991e-06 6.617879e-06 -1.68625e-29)
(6.89622e-07 2.291651e-07 -1.600494e-29)
(2.486004e-06 1.428519e-06 -1.957106e-29)
(4.230021e-06 2.528795e-06 0)
(5.604704e-06 3.550384e-06 2.612001e-29)
(6.475283e-06 4.457359e-06 7.264365e-30)
(6.822607e-06 5.229558e-06 -4.028741e-29)
(6.71066e-06 5.877569e-06 -2.370234e-29)
(5.960075e-07 1.520342e-07 -1.514627e-29)
(2.164174e-06 1.208265e-06 -1.844327e-29)
(3.692788e-06 2.178068e-06 1.782666e-29)
(4.903127e-06 3.090167e-06 0)
(5.674677e-06 3.913924e-06 0)
(5.985497e-06 4.629594e-06 -1.427789e-29)
(5.871032e-06 5.2411e-06 7.469501e-29)
(5.181192e-07 8.526029e-08 -1.319136e-29)
(1.892233e-06 1.017503e-06 -1.624626e-29)
(3.236782e-06 1.8747e-06 1.549886e-29)
(4.306637e-06 2.69297e-06 0)
(4.994629e-06 3.446514e-06 6.993518e-30)
(5.280099e-06 4.117015e-06 2.091354e-33)
(5.190418e-06 4.708592e-06 -7.712704e-30)
(4.523695e-07 2.688042e-08 0)
(1.659764e-06 8.505556e-07 -1.409329e-29)
(2.845601e-06 1.609344e-06 1.360682e-29)
(3.79357e-06 2.34567e-06 0)
(4.408906e-06 3.03825e-06 -1.877407e-29)
(4.672381e-06 3.67077e-06 -1.425726e-29)
(4.605448e-06 4.246371e-06 -7.52993e-30)
(3.961952e-07 -2.475015e-08 1.00815e-29)
(1.459121e-06 7.028292e-07 -1.544689e-30)
(2.506395e-06 1.374222e-06 1.015967e-29)
(3.346996e-06 2.037405e-06 -3.292144e-30)
(3.897086e-06 2.674962e-06 -3.309342e-30)
(4.139218e-06 3.272729e-06 -9.238954e-30)
(4.090714e-06 3.834019e-06 0)
(3.476183e-07 -7.088022e-08 1.74334e-29)
(1.28428e-06 5.706966e-07 0)
(2.209635e-06 1.163465e-06 0)
(2.954553e-06 1.760205e-06 1.293114e-29)
(3.443366e-06 2.346611e-06 2.113491e-29)
(3.656262e-06 2.914495e-06 -7.969172e-30)
(3.62356e-06 3.462487e-06 0)
(3.053347e-07 -1.125338e-07 7.50514e-30)
(1.131147e-06 4.514282e-07 -1.531056e-30)
(1.948941e-06 9.729624e-07 -1.572536e-30)
(2.609298e-06 1.508784e-06 -3.295353e-30)
(3.045595e-06 2.047574e-06 4.284022e-30)
(3.243187e-06 2.586858e-06 0)
(3.217781e-06 3.119524e-06 -5.748719e-30)
(2.682558e-07 -1.503153e-07 -5.908059e-31)
(9.963577e-07 3.430766e-07 -1.027626e-29)
(1.718848e-06 7.994693e-07 -9.215309e-30)
(2.303757e-06 1.279072e-06 -1.431842e-29)
(2.692215e-06 1.773363e-06 0)
(2.870387e-06 2.281652e-06 -4.773072e-30)
(2.850894e-06 2.796661e-06 6.993618e-32)
(2.356331e-07 -1.848249e-07 -4.99991e-30)
(8.773362e-07 2.440622e-07 -1.439898e-29)
(1.515231e-06 6.406473e-07 -1.461544e-29)
(2.03257e-06 1.06816e-06 -9.268308e-30)
(2.377836e-06 1.520541e-06 -3.254078e-30)
(2.537358e-06 1.998805e-06 -3.825581e-30)
(2.522246e-06 2.495482e-06 7.365927e-30)
(2.068868e-07 -2.164887e-07 -4.718039e-30)
(7.722247e-07 1.531648e-07 -1.16354e-29)
(1.33483e-06 4.945331e-07 -5.53919e-30)
(1.790672e-06 8.735139e-07 0)
(2.093309e-06 1.288885e-06 -2.599767e-29)
(2.236485e-06 1.739437e-06 -3.314483e-29)
(2.228807e-06 2.215135e-06 -6.619637e-30)
(1.815886e-07 -2.456935e-07 -4.636129e-30)
(6.796361e-07 6.916077e-08 -4.145856e-30)
(1.176132e-06 3.592439e-07 4.613581e-30)
(1.579576e-06 6.929999e-07 3.139951e-30)
(1.852155e-06 1.07308e-06 0)
(1.979792e-06 1.497209e-06 -3.345283e-30)
(1.97162e-06 1.952735e-06 3.262109e-30)
(1.593754e-07 -2.729387e-07 -3.948795e-30)
(5.981557e-07 -9.297533e-09 -3.426719e-30)
(1.036398e-06 2.327134e-07 3.063207e-30)
(1.393287e-06 5.239935e-07 1.560763e-30)
(1.635077e-06 8.688646e-07 0)
(1.748918e-06 1.266477e-06 5.34845e-31)
(1.743242e-06 1.704747e-06 6.456461e-30)
(1.399065e-07 -2.987007e-07 5.907014e-31)
(5.266444e-07 -8.363996e-08 -6.17186e-30)
(9.137748e-07 1.127673e-07 1.526031e-30)
(1.22995e-06 3.636052e-07 1.552668e-30)
(1.444512e-06 6.744247e-07 0)
(1.546247e-06 1.046127e-06 0)
(1.542652e-06 1.467817e-06 0)
(1.229514e-07 -3.235313e-07 0)
(4.642146e-07 -1.554081e-07 -2.827991e-30)
(8.066801e-07 -3.158586e-09 0)
(1.087519e-06 2.083461e-07 -6.222401e-31)
(1.278346e-06 4.861386e-07 -3.180976e-30)
(1.369641e-06 8.323317e-07 -3.165066e-30)
(1.367869e-06 1.237539e-06 -1.747302e-30)
(1.083072e-07 -3.480176e-07 -1.905443e-30)
(4.10059e-07 -2.264232e-07 0)
(7.131235e-07 -1.180677e-07 3.041175e-30)
(9.613413e-07 5.496208e-08 -1.979263e-29)
(1.132075e-06 3.008056e-07 -2.679072e-29)
(1.216818e-06 6.203195e-07 0)
(1.217087e-06 1.008801e-06 1.020612e-30)
(9.594194e-08 -3.729675e-07 -1.479334e-30)
(3.644145e-07 -2.989949e-07 0)
(6.353775e-07 -2.355621e-07 1.519019e-30)
(8.609212e-07 -1.024505e-07 1.555423e-30)
(1.015e-06 1.105797e-07 -2.361527e-30)
(1.08919e-06 4.038128e-07 1.014636e-30)
(1.089551e-06 7.756502e-07 -7.458383e-31)
(8.58769e-08 -3.993321e-07 0)
(3.268679e-07 -3.759928e-07 4.638345e-32)
(5.709702e-07 -3.601953e-07 1.515826e-30)
(7.748088e-07 -2.69583e-07 5.818757e-31)
(9.144888e-07 -9.137255e-08 -8.20767e-31)
(9.82535e-07 1.760263e-07 6.533307e-31)
(9.835984e-07 5.315329e-07 4.049482e-32)
(7.82908e-08 -4.28501e-07 0)
(2.980522e-07 -4.613249e-07 -1.040257e-30)
(5.211003e-07 -4.979194e-07 9.896981e-31)
(7.07675e-07 -4.535645e-07 1.744289e-30)
(8.356142e-07 -3.124386e-07 9.843375e-31)
(8.980233e-07 -7.118222e-08 3.084657e-30)
(8.990068e-07 2.688461e-07 1.753161e-31)
(7.367642e-08 -4.621584e-07 0)
(2.793839e-07 -5.602342e-07 0)
(4.877496e-07 -6.570558e-07 6.342105e-31)
(6.615883e-07 -6.64435e-07 3.637564e-32)
(7.799156e-07 -5.630189e-07 4.126899e-32)
(8.365478e-07 -3.478163e-07 0)
(8.358746e-07 -2.125958e-08 0)
(7.301336e-08 -5.031292e-07 -3.86815e-31)
(2.734189e-07 -6.807263e-07 4.764662e-31)
(4.744704e-07 -8.494213e-07 -1.308922e-30)
(6.399715e-07 -9.160381e-07 -1.193081e-30)
(7.498263e-07 -8.57011e-07 -3.968753e-32)
(7.993752e-07 -6.663717e-07 3.062304e-30)
(7.942746e-07 -3.491053e-07 3.548364e-35)
(7.799079e-08 -5.557704e-07 3.247639e-32)
(2.851123e-07 -8.350905e-07 1.865734e-31)
(4.877565e-07 -1.092709e-06 -1.449126e-30)
(6.486299e-07 -1.228125e-06 -1.532754e-30)