/*--------------------------------*- C++ -*----------------------------------*\
| =========                 |                                                 |
| \\      /  F ield         | OpenFOAM: The Open Source CFD Toolbox           |
|  \\    /   O peration     | Version:  2206                                  |
|   \\  /    A nd           | Website:  www.openfoam.com                      |
|    \\/     M anipulation  |                                                 |
\*---------------------------------------------------------------------------*/
FoamFile
{
    version     2.0;
    format      ascii;
    arch        "LSB;label=32;scalar=64";
    class       volVectorField;
    location    "1";
    object      U.b;
}
// * * * * * * * * * * * * * * * * * * * * * * * * * * * * * * * * * * * * * //

dimensions      [0 1 -1 0 0 0 0];

internalField   nonuniform List<vector> 
13078
(
(4.033095e-06 -2.870758e-06 -1.535979e-27)
(2.900527e-06 1.258832e-05 -2.373297e-30)
(2.801058e-06 -1.194698e-06 8.753224e-28)
(2.73084e-06 -1.22454e-05 0)
(2.601911e-06 -2.139858e-05 -3.026183e-28)
(2.420734e-06 -2.874287e-05 -5.480143e-28)
(2.203619e-06 -3.506935e-05 -7.523517e-28)
(2.509484e-05 -5.621706e-07 0)
(1.373565e-05 8.54111e-06 -1.776144e-29)
(1.067171e-05 -1.563586e-06 0)
(8.564335e-06 -1.247219e-05 0)
(7.629e-06 -2.141182e-05 -6.7198e-30)
(6.936881e-06 -2.887322e-05 -2.945966e-30)
(6.250716e-06 -3.532298e-05 -5.193035e-30)
(4.012154e-05 1.310942e-06 2.354572e-27)
(2.670326e-05 2.035907e-06 -1.651639e-27)
(1.893836e-05 -4.938721e-06 -1.512559e-28)
(1.532128e-05 -1.363032e-05 2.106096e-28)
(1.33115e-05 -2.190791e-05 3.67785e-28)
(1.188285e-05 -2.93424e-05 0)
(1.05938e-05 -3.593311e-05 -4.502016e-33)
(3.990645e-05 1.942696e-07 2.121066e-27)
(3.23654e-05 -1.776324e-06 -3.582144e-27)
(2.638333e-05 -7.769051e-06 -2.921598e-27)
(2.214076e-05 -1.512128e-05 -1.189044e-27)
(1.945974e-05 -2.296223e-05 3.297807e-29)
(1.729818e-05 -3.032722e-05 0)
(1.53301e-05 -3.703796e-05 1.268547e-29)
(4.224616e-05 -7.936889e-07 4.457187e-31)
(3.792355e-05 -4.200551e-06 -1.996542e-27)
(3.333019e-05 -1.014618e-05 -3.528111e-27)
(2.930608e-05 -1.721696e-05 -3.112956e-27)
(2.588922e-05 -2.451886e-05 7.847444e-28)
(2.313675e-05 -3.192735e-05 -6.414224e-32)
(2.047501e-05 -3.876921e-05 8.543746e-28)
(4.712721e-05 -1.67379e-06 0)
(4.420421e-05 -6.281274e-06 6.626621e-30)
(4.044019e-05 -1.253146e-05 -1.485324e-29)
(3.658562e-05 -1.960782e-05 -1.878993e-27)
(3.289234e-05 -2.696776e-05 7.510376e-29)
(2.930926e-05 -3.413532e-05 -7.702969e-28)
(2.602695e-05 -4.119494e-05 -1.972074e-27)
(5.339272e-05 -2.43378e-06 0)
(5.11979e-05 -8.200425e-06 -2.602747e-27)
(4.790935e-05 -1.503864e-05 -2.748158e-27)
(4.423114e-05 -2.231924e-05 -4.860253e-28)
(4.019217e-05 -2.992151e-05 -1.94082e-27)
(3.613721e-05 -3.733919e-05 1.106158e-28)
(3.19281e-05 -4.432043e-05 0)
(6.079271e-05 -3.11401e-06 6.14725e-27)
(5.896745e-05 -1.002306e-05 -2.982563e-27)
(5.599197e-05 -1.758005e-05 -2.829949e-27)
(5.22419e-05 -2.547044e-05 0)
(4.791747e-05 -3.345716e-05 -4.799278e-27)
(4.335318e-05 -4.120653e-05 1.24905e-28)
(3.852734e-05 -4.853794e-05 1.491916e-28)
(6.929539e-05 -3.768026e-06 5.458079e-31)
(6.762321e-05 -1.186038e-05 6.821301e-27)
(6.473693e-05 -2.034626e-05 3.320118e-27)
(6.086299e-05 -2.897623e-05 8.766886e-29)
(5.619664e-05 -3.755581e-05 -1.110067e-26)
(5.109764e-05 -4.580116e-05 1.411754e-28)
(4.556973e-05 -5.356387e-05 0)
(7.895541e-05 -4.431645e-06 -7.973733e-27)
(7.730502e-05 -1.377435e-05 7.787844e-27)
(7.43595e-05 -2.333871e-05 3.736254e-27)
(7.026368e-05 -3.28865e-05 -6.992292e-27)
(6.517641e-05 -4.224547e-05 -3.616426e-30)
(5.948717e-05 -5.11512e-05 0)
(5.320482e-05 -5.948333e-05 0)
(8.987541e-05 -5.132963e-06 0)
(8.815791e-05 -1.582751e-05 0)
(8.504105e-05 -2.661697e-05 8.532019e-27)
(8.061989e-05 -3.725837e-05 -8.013124e-27)
(7.501924e-05 -4.757713e-05 4.2702e-30)
(6.865993e-05 -5.731017e-05 0)
(6.154738e-05 -6.635646e-05 0)
(0.0001021942 -5.894173e-06 0)
(0.0001003425 -1.807415e-05 -1.00927e-26)
(9.696123e-05 -3.024697e-05 9.722676e-27)
(9.211338e-05 -4.215888e-05 9.007278e-27)
(8.589931e-05 -5.361967e-05 -8.696164e-27)
(7.877127e-05 -6.43525e-05 0)
(7.073034e-05 -7.426653e-05 7.398604e-27)
(0.000116081 -6.734049e-06 0)
(0.0001140399 -2.056437e-05 -1.153329e-26)
(0.0001103107 -3.429663e-05 -1.07956e-28)
(0.0001049329 -4.766347e-05 1.040828e-26)
(9.800768e-05 -6.045684e-05 -9.714845e-27)
(8.999049e-05 -7.237268e-05 8.872241e-27)
(8.090433e-05 -8.331728e-05 7.161263e-30)
(0.0001317351 -7.669727e-06 -1.329453e-26)
(0.0001294543 -2.334534e-05 0)
(0.0001252974 -3.883782e-05 -1.224237e-28)
(0.0001192627 -5.38519e-05 -1.702386e-28)
(0.0001115773 -6.816602e-05 -2.210625e-26)
(0.0001025003 -8.148134e-05 1.010565e-26)
(9.223797e-05 -9.363167e-05 -9.028624e-27)
(0.000149385 -8.717423e-06 -1.507629e-26)
(0.0001468189 -2.646662e-05 0)
(0.0001421711 -4.396913e-05 -2.768672e-28)
(0.0001353262 -6.094671e-05 1.603708e-26)
(0.0001270021 -7.671687e-05 -8.819456e-27)
(0.0001165289 -9.177399e-05 0)
(0.0001049232 -0.0001053473 1.025355e-26)
(0.0001692871 -9.890902e-06 0)
(0.0001663831 -2.995742e-05 -1.671719e-26)
(0.0001611791 -4.965764e-05 0)
(0.0001536993 -6.857438e-05 1.575009e-26)
(0.0001440784 -8.661598e-05 5.488954e-28)
(0.0001322674 -0.0001034535 6.584673e-28)
(0.0001191687 -0.0001186354 1.240583e-26)
(0.0001917332 -1.121214e-05 0)
(0.0001884339 -3.389577e-05 -3.786275e-26)
(0.0001825676 -5.611893e-05 -1.777431e-28)
(0.0001741834 -7.741176e-05 -2.458023e-28)
(0.000163308 -9.773179e-05 0)
(0.0001499842 -0.0001166435 0)
(0.0001352016 -0.0001336702 0)
(0.000217055 -1.269907e-05 -2.18782e-26)
(0.0002133017 -3.832715e-05 -2.148892e-26)
(0.0002066821 -6.338883e-05 -4.022648e-28)
(0.000197235 -8.737721e-05 -2.776068e-28)
(0.0001849639 -0.0001102421 0)
(0.0001699643 -0.0001315159 -1.75228e-26)
(0.00015327 -0.000150649 -1.922067e-27)
(0.0002456223 -1.43707e-05 -2.475911e-26)
(0.0002413497 -4.331181e-05 -2.430249e-26)
(0.0002338765 -7.15699e-05 -6.812347e-28)
(0.0002232171 -9.86003e-05 -6.267305e-28)
(0.0002093201 -0.00012431 0)
(0.000192595 -0.000148216 -1.891194e-26)
(0.0001736447 -0.0001697961 -1.082704e-27)
(0.0002778485 -1.624969e-05 -2.802648e-26)
(0.0002729843 -4.891514e-05 -5.481747e-26)
(0.0002645578 -8.077822e-05 -2.6446e-26)
(0.0002525748 -0.0001113132 0)
(0.0002367828 -0.0001405105 6.785027e-27)
(0.0002186222 -0.0001666817 1.027355e-26)
(0.0001966767 -0.0001913156 2.433786e-27)
(0.0003141927 -1.835722e-05 -3.172339e-26)
(0.0003086526 -5.519835e-05 -6.187904e-26)
(0.0002991475 -9.107691e-05 -5.951097e-26)
(0.0002857103 -0.0001253641 -2.762778e-26)
(0.0002684322 -0.0001577557 1.003047e-27)
(0.0002474494 -0.0001880197 -2.385632e-26)
(0.000222651 -0.0002156057 2.025268e-26)
(0.0003551701 -2.072387e-05 0)
(0.0003488594 -6.225572e-05 -3.481947e-26)
(0.000338136 -0.0001026715 -3.346688e-26)
(0.0003230055 -0.0001413059 -6.425506e-26)
(0.0003036444 -0.0001777505 0)
(0.0002799452 -0.0002118803 -2.699738e-26)
(0.0002520247 -0.0002429334 3.327568e-29)
(0.000401353 -2.337446e-05 4.047155e-26)
(0.0003941719 -7.016398e-05 0)
(0.0003820964 -0.0001156689 0)
(0.0003650852 -0.000159182 9.842639e-28)
(0.0003433091 -0.0002002206 3.518101e-26)
(0.0003165148 -0.0002385976 0)
(0.0002854185 -0.0002735272 -2.77042e-26)
(0.0004533714 -2.633601e-05 9.143203e-26)
(0.000445212 -7.900184e-05 0)
(0.0004316455 -0.0001302036 0)
(0.0004125784 -0.0001792171 3.987195e-26)
(0.000388219 -0.0002256343 7.526872e-26)
(0.0003579532 -0.0002694982 -3.503673e-26)
(0.0003241631 -0.0003073702 0)
(0.0005119112 -2.963423e-05 5.161821e-26)
(0.0005026557 -8.884572e-05 2.810834e-28)
(0.0004874473 -0.0001463908 4.909524e-26)
(0.0004661123 -0.0002014797 1.276774e-27)
(0.0004389758 -0.0002535063 1.649944e-27)
(0.000406011 -0.0003019912 -3.976257e-26)
(0.0003671085 -0.0003464393 0)
(0.0005777124 -3.329364e-05 0)
(0.0005672417 -9.977634e-05 -5.685496e-26)
(0.0005502397 -0.0001643961 5.490473e-26)
(0.0005264232 -0.0002263378 0)
(0.0004961321 -0.0002849632 -4.538055e-26)
(0.0004594457 -0.0003396546 8.619379e-27)
(0.0004157313 -0.0003901598 4.954767e-27)
(0.0006515567 -3.732892e-05 -6.566907e-26)
(0.0006397723 -0.0001118495 -6.413542e-26)
(0.0006208356 -0.0001843173 6.188391e-26)
(0.0005943711 -0.0002538806 0)
(0.0005607094 -0.0003198662 -4.05189e-27)
(0.0005198751 -0.0003815783 -6.997047e-30)
(0.0004709777 -0.0004388205 5.569011e-27)
(0.0007342322 -4.174848e-05 -7.401056e-26)
(0.0007211291 -0.0001250595 -7.223195e-26)
(0.0007000893 -0.0002062203 6.980277e-26)
(0.0006708327 -0.0002842327 0)
(0.0006336266 -0.00035845 0)
(0.0005885769 -0.0004284065 -5.758125e-26)
(0.0005344388 -0.0004946606 4.189721e-27)
(0.0008265501 -4.64716e-05 -8.343856e-26)
(0.0008121988 -0.000139406 -8.181602e-26)
(0.0007888894 -0.0002301448 0)
(0.0007567254 -0.0003174462 7.093071e-26)
(0.0007157203 -0.0004006235 -5.080649e-27)
(0.000666038 -0.0004785912 -1.242632e-25)
(0.0006071946 -0.0005498941 2.082442e-26)
(0.0009291122 -5.181727e-05 -9.364383e-26)
(0.0009143539 -0.0001542662 0)
(0.0008883216 -0.0002558783 -9.003151e-26)
(0.0008531435 -0.0003536398 8.229689e-26)
(0.0008082402 -0.000447159 -7.951253e-26)
(0.0007534728 -0.0005356028 -1.473147e-25)
(0.0006879708 -0.0006178885 -6.660178e-26)
(0.001043883 -5.673231e-05 0)
(0.00102685 -0.0001708313 0)
(0.0009993742 -0.0002833345 -1.989316e-25)
(0.0009612629 -0.0003925596 0)
(0.0009126662 -0.0004975312 -1.795912e-25)
(0.0008533038 -0.00059773 -8.342655e-26)
(0.0007821709 -0.0006927038 7.570507e-26)
(0.001170298 -6.262804e-05 -1.184223e-25)
(0.001150812 -0.0001889445 1.14213e-25)
(0.001123765 -0.0003106592 1.106012e-25)
(0.001082787 -0.0004330284 0)
(0.001030184 -0.0005510467 -1.013912e-25)
(0.0009666996 -0.0006639146 0)
(0.0008903687 -0.0007710829 6.680899e-26)
(0.001309127 -6.825862e-05 -1.320754e-25)
(0.001289617 -0.0002053004 1.294021e-25)
(0.001258696 -0.0003421004 3.74921e-25)
(0.001220213 -0.0004730439 2.444442e-25)
(0.00116242 -0.0006066802 -1.064459e-25)
(0.001095301 -0.0007343449 9.278318e-27)
(0.001013731 -0.0008568517 -1.080928e-26)
(0.001460068 -7.392818e-05 2.277797e-28)
(0.00143992 -0.0002220123 7.043596e-28)
(0.001410047 -0.0003687535 1.453953e-25)
(0.001368463 -0.0005158256 2.614693e-25)
(0.001311015 -0.0006630117 -1.455788e-25)
(0.001241314 -0.0008074773 2.039672e-26)
(0.001155901 -0.0009478753 4.793452e-26)
(0.00162292 -7.93886e-05 -2.441068e-28)
(0.00160211 -0.0002386508 -7.573329e-28)
(0.001573263 -0.0003975958 1.522689e-25)
(0.001530144 -0.0005596487 9.458529e-26)
(0.001479556 -0.0007145777 -8.406705e-26)
(0.001408188 -0.0008793297 1.149256e-25)
(0.001319546 -0.001041075 0)
(0.001796647 -8.412447e-05 0)
(0.001775529 -0.0002529878 0)
(0.001749103 -0.000421679 1.750266e-25)
(0.001712015 -0.0005931898 1.848631e-25)
(0.001659281 -0.0007713231 2.521596e-25)
(0.001601035 -0.0009440114 2.43397e-25)
(0.001507838 -0.001132663 0)
(0.00197939 -8.787567e-05 -5.378408e-28)
(0.001958372 -0.0002644985 1.618806e-27)
(0.00193507 -0.000441631 5.587419e-27)
(0.001904192 -0.0006220537 0)
(0.001861458 -0.0008084481 3.683879e-25)
(0.001806157 -0.001006005 -2.514819e-26)
(0.001724306 -0.001216207 -6.121009e-26)
(0.002168456 -9.019541e-05 -2.182524e-25)
(0.002148319 -0.0002718754 1.728841e-27)
(0.002129439 -0.0004551965 -2.132897e-25)
(0.002106357 -0.0006440156 0)
(0.002075121 -0.0008432969 2.268617e-25)
(0.002027102 -0.001061048 3.813724e-26)
(0.001977011 -0.001279959 -2.967186e-25)
(0.00236 -9.061086e-05 -2.37751e-25)
(0.002342293 -0.0002733996 -2.338673e-25)
(0.002328965 -0.0004595234 -2.337832e-25)
(0.002315926 -0.0006523901 -1.631077e-26)
(0.002299924 -0.0008568903 -4.300331e-26)
(0.002273736 -0.001078017 1.436805e-25)
(0.002237933 -0.001327698 -1.324223e-25)
(0.002549907 -8.960433e-05 0)
(0.00253627 -0.0002669418 2.509828e-25)
(0.002530154 -0.0004520707 2.539655e-25)
(0.00252831 -0.0006459878 8.156755e-27)
(0.002529661 -0.0008541795 -2.734255e-25)
(0.002527272 -0.001085708 -2.728483e-26)
(0.002509086 -0.001354781 0)
(0.002735876 -8.480027e-05 2.769253e-25)
(0.002721402 -0.0002573064 5.382036e-25)
(0.002727868 -0.0004289793 2.557279e-25)
(0.002739211 -0.000619283 5.488163e-25)
(0.002758703 -0.0008253291 -2.965206e-25)
(0.002784555 -0.001055052 2.500803e-25)
(0.002804012 -0.001321463 6.467095e-26)
(0.002908781 -7.763849e-05 2.942864e-25)
(0.00289803 -0.0002349658 -1.50677e-27)
(0.002907654 -0.0003982887 0)
(0.002941415 -0.0005680804 6.856097e-27)
(0.002980696 -0.0007691746 5.955136e-25)
(0.003031071 -0.0009989864 6.038483e-25)
(0.00307809 -0.001278719 -3.037975e-25)
(0.003061627 -6.730036e-05 -3.104536e-25)
(0.003053376 -0.0002045724 2.50393e-27)
(0.003074044 -0.0003467053 4.394177e-27)
(0.003115078 -0.0005059625 -6.587822e-25)
(0.003187241 -0.0006849053 5.842318e-25)
(0.003254497 -0.0009258943 -3.217659e-25)
(0.003307441 -0.001235653 -3.26607e-25)
(0.003185925 -5.350876e-05 -3.23493e-25)
(0.003181476 -0.0001655458 0)
(0.003213007 -0.0002837573 6.909267e-27)
(0.003274074 -0.0004219674 -8.978351e-27)
(0.003347704 -0.0006066388 -2.923219e-26)
(0.003433351 -0.0008561419 -6.832581e-25)
(0.003483225 -0.00122479 -1.606811e-28)
(0.003273571 -3.710556e-05 0)
(0.003276734 -0.000118373 2.736645e-27)
(0.00331996 -0.0002103961 5.27016e-27)
(0.003399027 -0.0003376286 8.096053e-27)
(0.003473341 -0.0005329945 1.331248e-26)
(0.003534469 -0.0008242258 1.188572e-25)
(0.003597608 -0.001221366 2.089021e-25)
(0.003319063 -1.835842e-05 0)
(0.003331793 -6.70833e-05 3.409761e-25)
(0.003386243 -0.0001336898 4.408096e-27)
(0.003471366 -0.0002604646 1.170722e-26)
(0.003542946 -0.000482611 2.36893e-26)
(0.0035935 -0.0008081225 3.922963e-26)
(0.003629978 -0.00128842 6.770841e-26)
(0.00331488 2.344655e-06 -3.376039e-25)
(0.003343822 -1.131184e-05 3.420342e-25)
(0.003404602 -6.55611e-05 9.010038e-28)
(0.003474408 -0.0002012742 -3.539953e-25)
(0.003547876 -0.0004408512 -2.125648e-26)
(0.003590207 -0.00081259 -4.281381e-26)
(0.003621276 -0.001325999 -3.458004e-25)
(0.003255338 2.480663e-05 -6.389715e-29)
(0.003299557 4.137724e-05 -4.787276e-28)
(0.00336005 -9.431806e-06 1.064504e-28)
(0.003423061 -0.0001536107 -1.081952e-26)
(0.003482583 -0.0004229483 -2.22587e-26)
(0.00351958 -0.0008307533 3.479045e-25)
(0.003553538 -0.001407987 -3.354634e-25)
(0.00313466 4.55655e-05 3.190694e-25)
(0.003187348 8.848544e-05 3.256521e-25)
(0.003246788 4.125872e-05 -3.31021e-25)
(0.003309979 -0.0001137179 3.331825e-25)
(0.003367842 -0.0004027186 -3.606692e-25)
(0.00340542 -0.0008578437 6.156728e-25)
(0.003411624 -0.001516938 3.399218e-25)
(0.002947495 6.142502e-05 2.995365e-25)
(0.003001682 0.0001279582 3.059105e-25)
(0.003062403 8.846753e-05 -3.110472e-25)
(0.00312938 -7.436061e-05 3.141349e-25)
(0.003193469 -0.0003933827 -2.942489e-25)
(0.003239532 -0.0008985915 3.134011e-25)
(0.003238988 -0.001596299 -4.003598e-25)
(0.002686241 7.526801e-05 2.756156e-25)
(0.002737024 0.0001607864 1.330922e-26)
(0.002804192 0.000129842 6.605352e-27)
(0.002877952 -3.471823e-05 2.933424e-25)
(0.00294789 -0.0003811333 -1.320243e-26)
(0.002996965 -0.000918058 -3.479948e-25)
(0.003016298 -0.001643758 -2.672202e-25)
(0.00234469 7.983473e-05 1.193244e-25)
(0.002393298 0.0001876593 4.203693e-27)
(0.002461258 0.0001859998 3.287917e-27)
(0.00253272 1.262978e-05 1.055719e-31)
(0.002602982 -0.0003573315 1.281163e-25)
(0.002650991 -0.000903527 -2.45327e-25)
(0.002690729 -0.001629933 4.020275e-25)
(0.001928435 8.568599e-05 9.811833e-26)
(0.001975076 0.0002126301 7.743816e-30)
(0.002037107 0.0002213677 1.036252e-25)
(0.002105246 5.748866e-05 -1.684361e-30)
(0.002173106 -0.0003065564 7.363233e-26)
(0.00221882 -0.0008361209 2.850361e-26)
(0.002233532 -0.00157187 5.146173e-25)
(0.001445113 9.352623e-05 -7.326955e-26)
(0.001487013 0.0002411828 7.768151e-26)
(0.001543385 0.0002664104 7.954216e-26)
(0.001609996 0.0001121368 1.584476e-30)
(0.001677958 -0.0002375508 1.779365e-26)
(0.001721116 -0.000744877 1.217313e-25)
(0.001689378 -0.001423135 1.477393e-25)
(0.000906427 0.0001019733 -4.587902e-26)
(0.000937012 0.000268165 4.861938e-26)
(0.0009802724 0.0003108016 -1.103115e-29)
(0.001032594 0.0001705306 2.59901e-26)
(0.001086794 -0.0001616408 3.241577e-29)
(0.001119635 -0.0006526641 -2.717081e-26)
(0.001082236 -0.001309337 6.833735e-26)
(0.0003213897 0.0001102492 5.102872e-28)
(0.0003325909 0.0002888126 -1.278081e-31)
(0.0003500351 0.0003434371 -3.264501e-27)
(0.0003721954 0.0002137697 1.03242e-26)
(0.0003961842 -0.0001072693 1.732671e-26)
(0.0004092269 -0.0005890135 3.029331e-26)
(0.0003933248 -0.001247163 -1.390211e-25)
(-0.000290713 0.0001110075 -4.605743e-28)
(-0.000300875 0.0002910636 -7.762682e-27)
(-0.0003154025 0.0003475346 8.571532e-27)
(-0.0003325105 0.0002200092 -8.204438e-27)
(-0.0003501679 -9.949733e-05 1.703372e-26)
(-0.0003580322 -0.0005810912 1.228896e-29)
(-0.0003407489 -0.001240227 -1.370968e-25)
(-0.000878615 0.0001039757 -1.460071e-35)
(-0.000908362 0.0002742468 -2.317695e-26)
(-0.0009494102 0.0003219498 2.414462e-26)
(-0.0009978405 0.0001877661 -2.495907e-26)
(-0.001046873 -0.0001396194 -1.144821e-29)
(-0.00107517 -0.0006304641 3.919862e-26)
(-0.001035572 -0.00129061 6.781965e-26)
(-0.001421925 9.630728e-05 -5.119632e-33)
(-0.001463369 0.0002496494 -7.462369e-26)
(-0.001518799 0.0002820628 -1.918902e-31)
(-0.001583748 0.0001370164 -9.158411e-28)
(-0.001649217 -0.0002051134 -8.184901e-27)
(-0.001689827 -0.0007115338 7.897957e-26)
(-0.001654032 -0.001395808 2.729017e-25)
(-0.001911183 8.888977e-05 9.722055e-26)
(-0.001957659 0.0002221369 -9.979812e-26)
(-0.002020161 0.0002387176 2.106056e-27)
(-0.002089342 8.597353e-05 2.089239e-25)
(-0.002158061 -0.0002684164 4.992311e-30)
(-0.002203429 -0.0007953261 3.171845e-26)
(-0.002212348 -0.001539199 5.806975e-26)
(-0.002334195 8.29247e-05 1.187857e-25)
(-0.00238304 0.0001964874 -4.487163e-27)
(-0.002452511 0.0002016823 -3.76946e-27)
(-0.002526974 3.850025e-05 2.550658e-25)
(-0.00260055 -0.0003201499 -2.537854e-25)
(-0.002650146 -0.0008620935 -2.449171e-25)
(-0.002684871 -0.001595219 6.102144e-28)
(-0.002682034 7.776085e-05 -1.082985e-29)
(-0.00273322 0.0001672405 8.546318e-30)
(-0.00280278 0.0001398589 2.890516e-27)
(-0.002880177 -1.675912e-05 2.895842e-25)
(-0.002953573 -0.0003508977 -2.68447e-25)
(-0.003003675 -0.0008789553 6.046303e-26)
(-0.003020541 -0.001603864 2.683963e-25)
(-0.0029481 6.313041e-05 -1.194138e-29)
(-0.0030025 0.0001322824 -3.068119e-25)
(-0.003064245 9.443832e-05 3.131439e-25)
(-0.003133194 -6.402492e-05 3.183827e-25)
(-0.003199621 -0.0003713873 -3.428997e-25)
(-0.003245776 -0.0008632699 2.086462e-25)
(-0.003244021 -0.001554155 3.924164e-25)
(-0.003138158 4.664962e-05 -3.192911e-25)
(-0.003190609 9.096085e-05 -3.268264e-25)
(-0.003250176 4.369849e-05 3.331071e-25)
(-0.00331401 -0.0001100932 -3.40016e-27)
(-0.003372626 -0.0003905424 -3.606695e-25)
(-0.003408605 -0.0008303812 -4.702972e-26)
(-0.003412671 -0.00147596 1.912301e-29)
(-0.003260218 2.529111e-05 -6.642568e-25)
(-0.003303948 4.22333e-05 1.26543e-29)
(-0.003363685 -9.658733e-06 -1.094432e-29)
(-0.003425856 -0.0001553174 -6.703626e-27)
(-0.003483661 -0.000419489 -2.135499e-26)
(-0.003516707 -0.0008115028 -1.408621e-25)
(-0.00354537 -0.00136842 -6.175976e-25)
(-0.003319532 2.30894e-06 -3.38219e-25)
(-0.003347879 -1.179804e-05 -3.427294e-25)
(-0.003407411 -6.763586e-05 -2.11982e-27)
(-0.003475034 -0.0002055821 -4.909316e-27)
(-0.003544523 -0.0004434116 -3.582028e-25)
(-0.003579652 -0.0008021718 7.473283e-29)
(-0.003603034 -0.00129416 -3.486797e-25)
(-0.003322603 -1.86287e-05 0)
(-0.003334226 -6.836512e-05 -3.408799e-25)
(-0.003387228 -0.0001365657 -7.127925e-31)
(-0.003469158 -0.0002653015 -1.18281e-26)
(-0.003535436 -0.0004873697 -3.809928e-25)
(-0.003578134 -0.0008019254 3.850902e-26)
(-0.003602154 -0.001249839 6.386515e-26)
(-0.003275616 -3.740837e-05 0)
(-0.003277048 -0.0001196729 -2.750555e-27)
(-0.003318566 -0.0002131694 -5.312383e-27)
(-0.003394482 -0.0003419132 3.457668e-25)
(-0.003463622 -0.0005373499 -3.506243e-25)
(-0.003516245 -0.000820335 3.600918e-29)
(-0.003560075 -0.001196334 5.821245e-25)
(-0.003186511 -5.37008e-05 -3.237356e-25)
(-0.003179868 -0.0001663799 0)
(-0.003209394 -0.0002854659 0)
(-0.003267842 -0.0004241122 3.322247e-25)
(-0.003336847 -0.0006071794 -3.372609e-25)
(-0.003407796 -0.0008515807 6.819148e-25)
(-0.003445494 -0.001200101 6.784199e-25)
(-0.003060922 -6.735371e-05 -3.105419e-25)
(-0.003050496 -0.0002046542 -2.500677e-27)
(-0.003069307 -0.0003464442 -4.383452e-27)
(-0.003108236 -0.0005042752 -4.024077e-26)
(-0.00317242 -0.0006812468 -5.854505e-26)
(-0.003231555 -0.0009134565 3.214988e-25)
(-0.003276578 -0.001211475 -6.430267e-25)
(-0.002907237 -7.750507e-05 0)
(-0.002894888 -0.0002341209 2.937067e-25)
(-0.002903391 -0.0003955859 0)
(-0.002932623 -0.0005638418 -1.360845e-26)
(-0.002968307 -0.0007597637 -1.870407e-26)
(-0.003011987 -0.0009837328 -3.471634e-25)
(-0.003056275 -0.001247686 -7.197515e-25)
(-0.002734103 -8.439935e-05 0)
(-0.002719064 -0.0002553352 -2.736119e-25)
(-0.002723011 -0.000425532 2.748231e-25)
(-0.0027328 -0.00061191 0)
(-0.002748958 -0.0008145744 -3.866322e-26)
(-0.002773859 -0.001035171 1.752145e-25)
(-0.002789416 -0.001294484 -6.452404e-26)
(-0.002548696 -8.880712e-05 0)
(-0.002534022 -0.0002649331 -7.661125e-25)
(-0.002527026 -0.0004471659 -3.249316e-28)
(-0.002523736 -0.0006386841 -5.353512e-25)
(-0.002525261 -0.0008404631 -4.093611e-26)
(-0.002520742 -0.001068 2.500645e-25)
(-0.002502582 -0.001329027 -2.268757e-25)
(-0.002359157 -8.97719e-05 2.383657e-25)
(-0.002341454 -0.0002704367 -2.392232e-25)
(-0.00232771 -0.0004536903 6.296161e-29)
(-0.002314973 -0.0006438619 -4.534561e-25)
(-0.002297632 -0.0008454952 0)
(-0.00227197 -0.001062244 0)
(-0.002239084 -0.001305485 -3.562103e-25)
(-0.002168483 -8.927292e-05 2.184176e-25)
(-0.002148769 -0.0002690939 -2.181122e-25)
(-0.002129487 -0.0004507967 2.136788e-25)
(-0.002107914 -0.0006356876 2.106903e-25)
(-0.00207555 -0.0008333592 0)
(-0.002029373 -0.001047128 0)
(-0.001983764 -0.001262383 -2.405685e-25)
(-0.001980343 -8.709645e-05 -1.999839e-25)
(-0.0019596 -0.0002625426 -2.03399e-25)
(-0.001936996 -0.0004370758 -5.37817e-27)
(-0.001905824 -0.0006170456 1.823847e-25)
(-0.001862169 -0.0008045354 5.551877e-26)
(-0.001810751 -0.0009947299 -2.794689e-25)
(-0.001734516 -0.001203701 1.375089e-25)
(-0.001798565 -8.333873e-05 -1.820503e-25)
(-0.001778145 -0.0002508569 -1.588565e-27)
(-0.001751681 -0.0004183677 5.233741e-27)
(-0.001714861 -0.0005880566 7.418329e-27)
(-0.00166525 -0.0007633336 0)
(-0.001604017 -0.0009394164 -1.755427e-25)
(-0.001518786 -0.001124829 1.476301e-25)
(-0.001625569 -7.902161e-05 0)
(-0.00160565 -0.0002368744 -2.951814e-27)
(-0.001576738 -0.0003952599 -4.990323e-27)
(-0.001534459 -0.0005564149 3.506554e-25)
(-0.001486107 -0.0007110511 6.591702e-26)
(-0.001414787 -0.0008754887 2.542412e-25)
(-0.001330301 -0.001036668 1.026389e-25)
(-0.001463547 -7.35843e-05 -4.515299e-28)
(-0.001443731 -0.0002210632 -1.400804e-27)
(-0.001414091 -0.0003673073 0)
(-0.001373316 -0.0005138746 -3.85058e-28)
(-0.00131716 -0.0006608363 1.296213e-25)
(-0.001248698 -0.0008052734 1.219232e-25)
(-0.001165601 -0.000946133 -2.3897e-26)
(-0.001313089 -6.809503e-05 1.322884e-25)
(-0.001293714 -0.000204788 -1.330356e-25)
(-0.001263057 -0.0003413135 2.307255e-25)
(-0.001225209 -0.0004720686 -2.677459e-25)
(-0.001168322 -0.0006057041 1.071438e-25)
(-0.001102314 -0.0007336437 0)
(-0.001022198 -0.0008568831 2.16531e-26)
(-0.001174472 -6.256964e-05 1.188616e-25)
(-0.001155025 -0.000188773 -1.14677e-25)
(-0.001128206 -0.0003104076 1.111021e-25)
(-0.00108768 -0.0004327813 0)
(-0.001035722 -0.000550972 -1.020178e-25)
(-0.0009730401 -0.0006642581 0)
(-0.0008976243 -0.0007721991 8.709023e-26)
(-0.001048075 -5.675392e-05 0)
(-0.001031039 -0.0001708963 0)
(-0.001003714 -0.0002834667 -1.998918e-25)
(-0.0009659073 -0.0003928324 0)
(-0.0009177488 -0.0004980782 -1.807211e-25)
(-0.0008589136 -0.0005987443 -8.404188e-26)
(-0.0007883247 -0.000694443 7.636678e-26)
(-0.0009331841 -5.189472e-05 -9.406796e-26)
(-0.0009183996 -0.0001544955 0)
(-0.0008924491 -0.0002562766 -8.72459e-26)
(-0.000857461 -0.0003542627 8.726149e-26)
(-0.0008128319 -0.000448105 -8.001636e-26)
(-0.0007583844 -0.000537011 -1.483812e-25)
(-0.0006931813 -0.0006199287 -6.715788e-26)
(-0.0008304161 -4.658536e-05 -8.355252e-26)
(-0.0008160177 -0.0001397447 -8.133745e-26)
(-0.0007927387 -0.0002307162 0)
(-0.0007606769 -0.000318289 7.940331e-26)
(-0.0007198267 -0.0004018068 5.095799e-27)
(-0.0006703193 -0.0004802072 -1.373206e-25)
(-0.0006116218 -0.0005520471 -2.094627e-26)
(-0.0007378357 -4.188452e-05 -7.438399e-26)
(-0.0007246725 -0.0001254636 -7.260651e-26)
(-0.0007036248 -0.0002068942 7.018232e-26)
(-0.0006744056 -0.000285201 0)
(-0.0006372692 -0.0003597598 0)
(-0.0005922955 -0.0004301218 -5.797993e-26)
(-0.0005381985 -0.0004968627 9.964696e-26)
(-0.0006548659 -3.747629e-05 -6.601152e-26)
(-0.0006430141 -0.0001122871 -6.447711e-26)
(-0.0006240422 -0.0001850423 6.222641e-26)
(-0.0005975697 -0.0002549072 0)
(-0.0005639162 -0.0003212241 4.069313e-27)
(-0.0005230901 -0.0003833085 7.043614e-30)
(-0.0004741825 -0.0004409759 -5.596286e-27)
(-0.0005807142 -3.34446e-05 0)
(-0.0005701722 -0.0001002244 -5.71631e-26)
(-0.0005531162 -0.0001651349 5.521126e-26)
(-0.0005292596 -0.0002273744 0)
(-0.0004989338 -0.0002863157 -5.292223e-26)
(-0.000462207 -0.0003413526 -8.662744e-27)
(-0.0004184365 -0.0003922497 -4.981254e-27)
(-0.0005146055 -2.978328e-05 5.189685e-26)
(-0.0005052778 -8.928774e-05 -2.825214e-28)
(-0.0004900032 -0.000147117 4.843437e-26)
(-0.000468606 -0.000202491 -1.283317e-27)
(-0.0004414039 -0.0002548127 -1.578265e-27)
(-0.0004083584 -0.0003036152 -4.001275e-26)
(-0.0003693432 -0.0003484327 0)
(-0.0004557668 -2.647927e-05 9.192759e-26)
(-0.0004475368 -7.942637e-05 0)
(-0.0004338979 -0.0001308987 0)
(-0.0004147545 -0.0001801779 4.238365e-26)
(-0.0003903101 -0.0002268622 7.859258e-26)
(-0.0003599327 -0.0002710013 -3.524795e-26)
(-0.0003259978 -0.0003091352 0)
(-0.0004034653 -2.350962e-05 4.069016e-26)
(-0.0003962162 -7.056404e-05 -2.234885e-28)
(-0.0003840668 -0.0001163216 -3.698298e-28)
(-0.0003669745 -0.0001600778 -1.04078e-27)
(-0.0003451061 -0.0002013515 3.282184e-26)
(-0.0003181981 -0.0002399573 0)
(-0.0002869538 -0.0002751031 -2.786716e-26)
(-0.0003570181 -2.084986e-05 -3.27506e-29)
(-0.0003506437 -6.262825e-05 -3.550267e-26)
(-0.0003398488 -0.0001032774 -3.430442e-26)
(-0.0003246388 -0.0001421323 -6.460667e-26)
(-0.0003051879 -0.0001787842 0)
(-0.0002813828 -0.000213108 -2.714949e-26)
(-0.0002533298 -0.0002443327 3.346796e-29)
(-0.0003157969 -1.8474e-05 -3.183199e-26)
(-0.0003101982 -5.554326e-05 -6.237962e-26)
(-0.0003006266 -9.163629e-05 -6.040832e-26)
(-0.0002871161 -0.0001261235 -2.937522e-26)
(-0.0002697562 -0.0001586996 -1.009206e-27)
(-0.0002486806 -0.0001891312 -2.398708e-26)
(-0.0002237734 -0.000216862 2.312916e-26)
(-0.0002792287 -1.635785e-05 -2.816994e-26)
(-0.0002743119 -4.923438e-05 -5.509825e-26)
(-0.0002658259 -8.129497e-05 -2.658206e-26)
(-0.0002537775 -0.0001120128 0)
(-0.0002379117 -0.0001413786 -6.828764e-27)
(-0.000219676 -0.0001676953 -1.033797e-26)
(-0.0001976433 -0.0001924589 -2.448592e-27)
(-0.0002467975 -1.447127e-05 -2.492685e-26)
(-0.0002424782 -4.36084e-05 -2.42851e-26)
(-0.0002349534 -7.204906e-05 6.86039e-28)
(-0.0002242382 -9.924677e-05 6.31044e-28)
(-0.0002102802 -0.0001251084 0)
(-0.0001934894 -0.0001491497 -1.901002e-26)
(-0.0001744707 -0.0001708473 1.0896e-27)
(-0.0002180418 -1.279338e-05 -2.202133e-26)
(-0.0002142483 -3.860501e-05 -2.146845e-26)
(-0.0002075858 -6.383683e-05 4.052968e-28)
(-0.0001980931 -8.797964e-05 2.796422e-28)
(-0.000185773 -0.0001109835 0)
(-0.0001707186 -0.0001323803 -1.592496e-26)
(-0.0001539674 -0.0001516203 1.934997e-27)
(-0.0001925462 -1.130183e-05 1.772607e-29)
(-0.0001892134 -3.415945e-05 -3.797541e-26)
(-0.0001833135 -5.654258e-05 1.791985e-28)
(-0.000174895 -7.797877e-05 2.477498e-28)
(-0.0001639825 -9.842556e-05 0)
(-0.0001506149 -0.000117447 0)
(-0.0001357836 -0.0001345678 0)
(-0.0001699379 -9.977783e-06 0)
(-0.0001670079 -3.021197e-05 -1.678455e-26)
(-0.000161781 -5.006427e-05 0)
(-0.0001542793 -6.911465e-05 1.494465e-26)
(-0.0001446344 -8.727061e-05 -5.534741e-28)
(-0.0001327913 -0.0001042032 -6.637004e-28)
(-0.000119652 -0.0001194626 1.094076e-26)
(-0.0001498828 -8.803546e-06 -1.512922e-26)
(-0.0001472992 -2.67179e-05 0)
(-0.0001426411 -4.436756e-05 2.797265e-28)
(-0.0001357879 -6.147093e-05 1.095596e-26)
(-0.0001274569 -7.734133e-05 -1.641807e-26)
(-0.0001169645 -9.24771e-05 0)
(-0.0001053281 -0.0001061081 1.029919e-26)
(-0.0001320855 -7.757717e-06 -1.333227e-26)
(-0.000129798 -2.360034e-05 0)
(-0.000125647 -3.923724e-05 1.23902e-28)
(-0.0001196234 -5.436839e-05 1.721597e-28)
(-0.0001119467 -6.877037e-05 -2.21883e-26)
(-0.0001028672 -8.214539e-05 1.014662e-26)
(-9.258612e-05 -9.433187e-05 -9.067717e-27)
(-0.0001162863 -6.82732e-06 0)
(-0.0001142527 -2.083215e-05 -1.142682e-26)
(-0.0001105504 -3.470914e-05 1.095369e-28)
(-0.0001052072 -4.818502e-05 1.04376e-26)
(-9.831158e-05 -6.105072e-05 -9.747817e-27)
(-9.030941e-05 -7.300563e-05 8.906985e-27)
(-8.121752e-05 -8.396325e-05 7.228226e-30)
(-0.0001022518 -5.997389e-06 0)
(-0.0001004272 -1.836657e-05 -1.010244e-26)
(-9.710107e-05 -3.068741e-05 9.737646e-27)
(-9.231754e-05 -4.269925e-05 9.294203e-27)
(-8.615844e-05 -5.421367e-05 -8.382947e-27)
(-7.906392e-05 -6.496164e-05 4.113408e-28)
(-7.102954e-05 -7.486338e-05 6.959674e-27)
(-8.977631e-05 -5.252709e-06 0)
(-8.811474e-05 -1.616067e-05 0)
(-8.509208e-05 -2.710382e-05 8.535879e-27)
(-8.07731e-05 -3.783287e-05 -8.025932e-27)
(-7.525648e-05 -4.818102e-05 4.341632e-30)
(-6.894886e-05 -5.790022e-05 0)
(-6.185234e-05 -6.690591e-05 0)
(-7.868178e-05 -4.577597e-06 -7.946433e-27)
(-7.713148e-05 -1.417047e-05 7.768e-27)
(-7.433519e-05 -2.389484e-05 3.659043e-27)
(-7.038957e-05 -3.351105e-05 -7.102964e-27)
(-6.541799e-05 -4.28662e-05 -3.692345e-30)
(-5.979567e-05 -5.172204e-05 3.243421e-28)
(-5.353307e-05 -5.998158e-05 1.133416e-31)
(-6.881635e-05 -3.954491e-06 5.658471e-31)
(-6.73144e-05 -1.235038e-05 6.784405e-27)
(-6.46562e-05 -2.099946e-05 3.186624e-27)