/*--------------------------------*- C++ -*----------------------------------*\
| =========                 |                                                 |
| \\      /  F ield         | OpenFOAM: The Open Source CFD Toolbox           |
|  \\    /   O peration     | Version:  2206                                  |
|   \\  /    A nd           | Website:  www.openfoam.com                      |
|    \\/     M anipulation  |                                                 |
\*---------------------------------------------------------------------------*/
FoamFile
{
    version     2.0;
    format      ascii;
    arch        "LSB;label=32;scalar=64";
    class       volVectorField;
    location    "1";
    object      U.b_0;
}
// * * * * * * * * * * * * * * * * * * * * * * * * * * * * * * * * * * * * * //

dimensions      [0 1 -1 0 0 0 0];

internalField   nonuniform List<vector> 
13078
(
(3.557559e-06 -2.375454e-06 -1.559119e-27)
(2.555547e-06 1.43677e-05 -2.116994e-30)
(2.479396e-06 1.346615e-06 1.000701e-27)
(2.418106e-06 -8.734951e-06 0)
(2.307178e-06 -1.698059e-05 -1.94063e-28)
(2.148737e-06 -2.348809e-05 -4.188855e-28)
(1.959935e-06 -2.904542e-05 -6.04589e-28)
(2.377187e-05 -8.174941e-08 0)
(1.247137e-05 9.973346e-06 -1.680583e-29)
(9.413376e-06 9.39972e-07 0)
(7.346098e-06 -8.96606e-06 0)
(6.4719e-06 -1.696836e-05 -5.842013e-30)
(5.866227e-06 -2.357295e-05 -2.539752e-30)
(5.285522e-06 -2.924028e-05 -4.463126e-30)
(3.768913e-05 1.781978e-06 2.236175e-27)
(2.434791e-05 3.520481e-06 -1.538917e-27)
(1.667517e-05 -2.411307e-06 -2.126869e-28)
(1.315367e-05 -1.005842e-05 3.653697e-29)
(1.126468e-05 -1.737543e-05 2.556436e-28)
(9.99109e-06 -2.392162e-05 0)
(8.887816e-06 -2.970425e-05 -3.631508e-33)
(3.635799e-05 7.083576e-07 1.947099e-27)
(2.890403e-05 -1.9352e-07 -3.247717e-27)
(2.305525e-05 -5.107258e-06 -2.61091e-27)
(1.898801e-05 -1.144031e-05 -1.047014e-27)
(1.648618e-05 -1.827089e-05 2.843089e-29)
(1.455203e-05 -2.470738e-05 0)
(1.285335e-05 -3.057437e-05 1.079714e-29)
(3.756159e-05 -2.337686e-07 8.775448e-31)
(3.333353e-05 -2.50724e-06 -1.769846e-27)
(2.889005e-05 -7.329913e-06 -3.099791e-27)
(2.508559e-05 -1.332011e-05 -2.701314e-27)
(2.194762e-05 -1.960781e-05 7.345188e-28)
(1.949259e-05 -2.602708e-05 -5.469032e-32)
(1.718731e-05 -3.197714e-05 6.940016e-28)
(4.123762e-05 -1.064752e-06 0)
(3.840904e-05 -4.462471e-06 3.828871e-30)
(3.482528e-05 -9.524365e-06 -1.02466e-29)
(3.123638e-05 -1.544651e-05 -1.624137e-27)
(2.788648e-05 -2.171504e-05 5.877484e-29)
(2.471707e-05 -2.787789e-05 -6.184787e-28)
(2.187603e-05 -3.397841e-05 -1.614709e-27)
(4.62024e-05 -1.777767e-06 0)
(4.41066e-05 -6.237235e-06 -2.256942e-27)
(4.10394e-05 -1.178944e-05 -2.338683e-27)
(3.766383e-05 -1.783886e-05 -3.780421e-28)
(3.404885e-05 -2.425818e-05 -1.667014e-27)
(3.048865e-05 -3.05862e-05 8.986742e-29)
(2.685705e-05 -3.658267e-05 0)
(5.218379e-05 -2.401904e-06 5.299037e-27)
(5.047477e-05 -7.88973e-06 -2.567838e-27)
(4.774699e-05 -1.405443e-05 -2.43071e-27)
(4.436968e-05 -2.059332e-05 0)
(4.054368e-05 -2.729678e-05 -4.098816e-27)
(3.656643e-05 -3.386339e-05 1.023413e-28)
(3.241957e-05 -4.012072e-05 1.233293e-28)
(5.913508e-05 -2.987443e-06 4.450742e-31)
(5.759941e-05 -9.521583e-06 5.841618e-27)
(5.49995e-05 -1.648229e-05 2.836147e-27)
(5.156261e-05 -2.363104e-05 7.123142e-29)
(4.747885e-05 -3.080603e-05 -9.460834e-27)
(4.306832e-05 -3.775739e-05 1.164426e-28)
(3.833764e-05 -4.434567e-05 0)
(6.708842e-05 -3.570499e-06 -6.803272e-27)
(6.559578e-05 -1.11947e-05 6.64237e-27)
(6.298123e-05 -1.907812e-05 3.183893e-27)
(5.939208e-05 -2.699376e-05 -5.952744e-27)
(5.498107e-05 -3.480528e-05 -2.989348e-30)
(5.009173e-05 -4.228637e-05 0)
(4.473671e-05 -4.932603e-05 0)
(7.61201e-05 -4.178292e-06 0)
(7.458366e-05 -1.296857e-05 0)
(7.184789e-05 -2.189615e-05 7.250635e-27)
(6.801068e-05 -3.072981e-05 -6.805403e-27)
(6.319024e-05 -3.933535e-05 3.547304e-30)
(5.775423e-05 -4.749195e-05 0)
(5.171268e-05 -5.510863e-05 0)
(8.633979e-05 -4.832078e-06 0)
(8.469587e-05 -1.489342e-05 -8.5609e-27)
(8.175203e-05 -2.499529e-05 8.244162e-27)
(7.757416e-05 -3.489732e-05 7.636853e-27)
(7.225573e-05 -4.445362e-05 -7.363372e-27)
(6.618841e-05 -5.343471e-05 0)
(5.937809e-05 -6.1761e-05 6.255165e-27)
(9.788494e-05 -5.548536e-06 0)
(9.608245e-05 -1.701423e-05 -9.763299e-27)
(9.28539e-05 -2.843594e-05 -8.991082e-29)
(8.824291e-05 -3.956142e-05 8.807638e-27)
(8.234045e-05 -5.023067e-05 -8.216887e-27)
(7.553857e-05 -6.019307e-05 7.500855e-27)
(6.786095e-05 -6.93686e-05 6.002637e-30)
(0.0001109196 -6.343083e-06 -1.12388e-26)
(0.0001089125 -1.93729e-05 0)
(0.0001053275 -3.22808e-05 -1.022719e-28)
(0.0001001723 -4.479078e-05 -1.423499e-28)
(9.364148e-05 -5.673219e-05 -1.867477e-26)
(8.595992e-05 -6.785958e-05 8.53412e-27)
(7.730452e-05 -7.803357e-05 -7.622383e-27)
(0.0001256329 -7.229992e-06 -1.272962e-26)
(0.0001233801 -2.201262e-05 0)
(0.0001193823 -3.661472e-05 -2.318125e-28)
(0.0001135517 -5.077421e-05 1.351989e-26)
(0.0001064911 -6.393363e-05 -7.464259e-27)
(9.764578e-05 -7.651383e-05 0)
(8.787174e-05 -8.787032e-05 8.648878e-27)
(0.0001422373 -8.221134e-06 0)
(0.0001396926 -2.49586e-05 -1.410122e-26)
(0.0001352245 -4.14102e-05 0)
(0.0001288609 -5.719766e-05 1.328051e-26)
(0.0001207191 -7.225907e-05 4.607305e-28)
(0.0001107578 -8.632543e-05 5.530052e-28)
(9.973941e-05 -9.902178e-05 1.04545e-26)
(0.0001609756 -9.334973e-06 0)
(0.0001580887 -2.827668e-05 -3.191257e-26)
(0.0001530591 -4.684888e-05 -1.492564e-28)
(0.000145936 -6.462949e-05 -2.064514e-28)
(0.0001367463 -8.159845e-05 0)
(0.0001255225 -9.739799e-05 0)
(0.0001130999 -0.0001116331 0)
(0.0001821235 -1.058689e-05 -1.842826e-26)
(0.0001788432 -3.200545e-05 -1.809994e-26)
(0.0001731744 -5.29611e-05 -3.38107e-28)
(0.0001651576 -7.300118e-05 -2.333494e-28)
(0.0001548011 -9.209998e-05 0)
(0.000142179 -0.0001098741 -1.475336e-26)
(0.0001281625 -0.0001258681 -1.616757e-27)
(0.0002059887 -1.199278e-05 -2.084338e-26)
(0.0002022584 -3.619528e-05 -2.045867e-26)
(0.000195865 -5.983245e-05 -5.729681e-28)
(0.0001868287 -8.242064e-05 -5.27115e-28)
(0.0001751122 -0.0001038993 0)
(0.0001610524 -0.0001238738 -1.591703e-26)
(0.0001451552 -0.0001419124 -9.109653e-28)
(0.0002329146 -1.357146e-05 -2.358282e-26)
(0.0002286723 -4.090049e-05 -4.612581e-26)
(0.0002214699 -6.755948e-05 -2.225202e-26)
(0.0002113212 -9.308211e-05 0)
(0.0001980202 -0.0001174781 5.708647e-27)
(0.0001827675 -0.000139344 8.64427e-27)
(0.0001643724 -0.0001599337 2.048057e-27)
(0.0002632826 -1.534043e-05 -2.668247e-26)
(0.000258456 -4.617148e-05 -5.204638e-26)
(0.000250339 -7.619322e-05 -5.005355e-26)
(0.000238969 -0.0001048544 -2.323656e-26)
(0.0002244253 -0.0001319192 8.440593e-28)
(0.0002068223 -0.0001572057 -2.006584e-26)
(0.0001860526 -0.0001802615 1.703509e-26)
(0.0002975199 -1.732495e-05 0)
(0.0002920281 -5.208628e-05 -2.927565e-26)
(0.0002828795 -8.590452e-05 -2.813831e-26)
(0.0002700891 -0.0001181997 -5.402598e-26)
(0.0002538066 -0.0001486507 0)
(0.0002339447 -0.0001771668 -2.27028e-26)
(0.0002105793 -0.0002031193 2.800148e-29)
(0.0003361005 -1.954529e-05 3.401568e-26)
(0.0003298589 -5.870762e-05 0)
(0.0003195671 -9.678057e-05 0)
(0.0003052016 -0.0001331517 8.284099e-28)
(0.0002869059 -0.0001674396 2.95757e-26)
(0.0002644714 -0.0001995031 0)
(0.0002384731 -0.0002286964 -2.329776e-26)
(0.0003795452 -2.202324e-05 7.682068e-26)
(0.0003724626 -6.609897e-05 0)
(0.0003609133 -0.0001089303 0)
(0.0003448306 -0.0001498939 3.350508e-26)
(0.0003243876 -0.0001886746 6.325997e-26)
(0.0002990698 -0.0002253239 -2.945401e-26)
(0.0002708508 -0.000256978 0)
(0.0004284189 -2.477906e-05 4.335427e-26)
(0.0004203967 -7.432055e-05 2.365949e-28)
(0.0004074671 -0.000122444 4.124206e-26)
(0.0003894967 -0.0001684755 1.0742e-27)
(0.0003667533 -0.0002119378 1.387906e-27)
(0.0003392061 -0.0002524469 -3.342347e-26)
(0.0003067531 -0.000289607 0)
(0.0004833281 -2.783135e-05 0)
(0.0004742679 -8.343444e-05 -4.773922e-26)
(0.0004598374 -0.0001374521 4.610813e-26)
(0.000439811 -0.0001891946 0)
(0.000414465 -0.000238163 -3.812694e-26)
(0.0003838513 -0.0002838621 7.247615e-27)
(0.000347432 -0.0003261024 4.166541e-27)
(0.0005449086 -3.118953e-05 -5.511362e-26)
(0.0005347313 -9.347891e-05 -5.383293e-26)
(0.0005186918 -0.0001540232 5.195347e-26)
(0.0004964867 -0.0002121098 0)
(0.0004683784 -0.0002672175 -3.405605e-27)
(0.0004343644 -0.0003187904 -5.881338e-30)
(0.000393689 -0.0003666887 4.6815e-27)
(0.0006137934 -3.485641e-05 -6.208648e-26)
(0.0006025007 -0.0001044372 -6.060441e-26)
(0.0005847268 -0.0001721931 5.858264e-26)
(0.0005602469 -0.0002373002 0)
(0.0005292632 -0.0002992692 0)
(0.0004918301 -0.0003577454 -4.840409e-26)
(0.0004468749 -0.0004132207 3.576369e-27)
(0.0006906225 -3.875864e-05 -6.995889e-26)
(0.0006782828 -0.0001162914 -6.861414e-26)
(0.0006586575 -0.0001919673 0)
(0.0006318411 -0.0002647723 5.954123e-26)
(0.0005978139 -0.0003341966 -4.263984e-27)
(0.0005566637 -0.0003993765 -1.044839e-25)
(0.0005079288 -0.0004591181 1.748804e-26)
(0.0007758496 -4.315552e-05 -7.846635e-26)
(0.000763177 -0.0001285029 0)
(0.0007413509 -0.000213132 -7.549892e-26)
(0.0007121556 -0.0002945764 6.906587e-26)
(0.0006750632 -0.000372589 -6.679027e-26)
(0.0006298902 -0.0004465314 -1.238868e-25)
(0.000575824 -0.0005155319 -5.608582e-26)
(0.0008710437 -4.716114e-05 0)
(0.0008564886 -0.0001420294 0)
(0.0008335722 -0.0002355649 -1.667344e-25)
(0.0008021287 -0.0003264342 0)
(0.0007622239 -0.000413926 -1.508495e-25)
(0.000713539 -0.0004976875 -7.01798e-26)
(0.0006551152 -0.0005773971 6.379652e-26)
(0.0009756412 -5.194153e-05 -9.906214e-26)
(0.000959068 -0.000156712 9.558779e-26)
(0.0009366664 -0.0002576746 9.264125e-26)
(0.0009031135 -0.0003592833 0)
(0.0008602393 -0.0004575215 -8.515689e-26)
(0.0008085693 -0.000551828 0)
(0.0007463057 -0.0006418268 5.646664e-26)
(0.001090167 -5.644063e-05 -1.103614e-25)
(0.001073614 -0.0001697654 1.081863e-25)
(0.001048173 -0.000282889 3.137677e-25)
(0.001017088 -0.0003913605 2.048558e-25)
(0.0009703928 -0.0005023887 -8.943674e-26)
(0.0009163118 -0.0006089554 7.741072e-27)
(0.0008503748 -0.0007118589 -9.032286e-27)
(0.001214213 -6.090206e-05 1.889206e-28)
(0.001197187 -0.0001828957 5.843709e-28)
(0.001172851 -0.0003037855 1.215169e-25)
(0.001139653 -0.0004251838 2.190467e-25)
(0.00109394 -0.0005471683 -1.220622e-25)
(0.001038539 -0.0006675729 1.696798e-26)
(0.0009703548 -0.0007854626 3.995597e-26)
(0.001347446 -6.510594e-05 -2.015986e-28)
(0.001329939 -0.0001957036 -6.256453e-28)
(0.001306739 -0.000326048 1.271712e-25)
(0.001272773 -0.0004591943 7.978742e-26)
(0.00123366 -0.0005871619 -6.947713e-26)
(0.001177992 -0.0007241121 9.706432e-26)
(0.001108394 -0.0008597336 0)
(0.001488817 -6.861445e-05 0)
(0.001471112 -0.0002063024 0)
(0.001450236 -0.0003438287 1.458921e-25)
(0.001421849 -0.0004839498 1.542449e-25)
(0.001381821 -0.0006301984 2.09863e-25)
(0.001338648 -0.0007733317 2.032688e-25)
(0.001266952 -0.000931083 0)
(0.001636543 -7.120682e-05 -4.392088e-28)
(0.001618947 -0.0002142331 1.321374e-27)
(0.001600979 -0.0003575849 4.561056e-27)
(0.00157839 -0.0005039207 0)
(0.001547664 -0.0006558943 3.083484e-25)
(0.001508525 -0.0008185381 -2.06017e-26)
(0.001448614 -0.0009936366 -5.032976e-26)
(0.001788194 -7.252261e-05 -1.806403e-25)
(0.001771271 -0.0002184287 1.401852e-27)
(0.001757226 -0.000365451 -1.770335e-25)
(0.001741733 -0.0005172058 0)
(0.001721596 -0.0006782677 1.890157e-25)
(0.001689945 -0.0008558059 3.709311e-26)
(0.001659367 -0.001037203 -2.413959e-25)
(0.001940465 -7.218923e-05 -1.96228e-25)
(0.001925314 -0.0002175408 -1.932554e-25)
(0.00191599 -0.0003651567 -1.935133e-25)
(0.001909304 -0.000518376 -1.307839e-26)
(0.001902717 -0.0006817258 -3.451217e-26)
(0.00189056 -0.00085993 1.231509e-25)
(0.001874275 -0.001064238 -1.069173e-25)
(0.002089785 -7.059599e-05 0)
(0.002077573 -0.0002100158 2.068274e-25)
(0.002074127 -0.0003548712 2.095731e-25)
(0.002076885 -0.0005067345 6.467323e-27)
(0.002085175 -0.0006705784 -2.26359e-25)
(0.002093689 -0.0008543308 -2.167156e-26)
(0.002093395 -0.00107041 0)
(0.002234257 -6.599801e-05 2.271038e-25)
(0.002220764 -0.0001998086 4.422481e-25)
(0.00222715 -0.0003319559 2.110946e-25)
(0.002240503 -0.0004784394 4.524883e-25)
(0.002263593 -0.0006376244 -2.444007e-25)
(0.002295334 -0.0008162368 2.092698e-25)
(0.002327213 -0.001025062 -2.312513e-25)
(0.002366525 -5.954462e-05 2.405329e-25)
(0.002355108 -0.0001798721 -1.176438e-27)
(0.002363376 -0.0003031972 0)
(0.002393926 -0.0004312597 5.413147e-27)
(0.002432147 -0.0005833097 4.903392e-25)
(0.002483742 -0.0007567899 2.499259e-25)
(0.002543029 -0.0009654868 -2.536813e-25)
(0.002481233 -5.075887e-05 -2.528524e-25)
(0.002470758 -0.0001542666 1.932661e-27)
(0.002486552 -0.0002595063 3.360704e-27)
(0.002521318 -0.0003765473 -5.352177e-25)
(0.002584777 -0.0005076283 5.072223e-25)
(0.002653959 -0.0006789572 3.369709e-26)
(0.002728502 -0.0008916433 -3.082289e-29)
(0.002572145 -3.964242e-05 -2.625714e-25)
(0.002563626 -0.0001231712 0)
(0.002586274 -0.0002089584 5.223156e-27)
(0.002634423 -0.0003070287 7.895715e-27)
(0.002701413 -0.000431846 3.323231e-25)
(0.002795032 -0.0005924877 6.421034e-25)
(0.002877582 -0.0008270429 -5.69738e-25)
(0.002633541 -2.707018e-05 0)
(0.002630149 -8.750566e-05 2.125975e-27)
(0.002660255 -0.0001527336 3.996056e-27)
(0.00272276 -0.0002356523 5.83076e-27)
(0.002796657 -0.0003514045 2.943713e-25)
(0.002879621 -0.0005194301 5.684559e-25)
(0.00298061 -0.0007602541 -5.88289e-25)
(0.002662268 -1.326993e-05 0)
(0.002665674 -5.007345e-05 -7.699536e-30)
(0.002704696 -9.334428e-05 6.436374e-30)
(0.002778562 -0.000163164 7.572881e-27)
(0.002857368 -0.0002784134 1.42264e-26)
(0.002935684 -0.0004532527 -3.198074e-25)
(0.003013244 -0.0007369272 -3.387422e-25)
(0.002653339 1.564453e-06 -2.71789e-25)
(0.002669128 -8.628393e-06 1.639875e-28)
(0.002717699 -3.344845e-05 6.708492e-28)
(0.002789961 -9.236821e-05 2.465823e-27)
(0.002878807 -0.0002053532 -5.81208e-25)
(0.002951435 -0.0004013927 -6.019745e-28)
(0.003015989 -0.0007020689 -4.390697e-26)
(0.002603167 1.779505e-05 -2.666047e-25)
(0.002633167 3.495507e-05 -2.714573e-25)
(0.00268966 2.848681e-05 -9.9419e-29)
(0.002765838 -1.860155e-05 -8.376377e-28)
(0.002852889 -0.0001378535 -8.707515e-25)
(0.002925381 -0.0003585852 3.299911e-25)
(0.002989085 -0.0007077747 -8.166141e-25)
(0.002507439 3.499735e-05 -2.566065e-25)
(0.002550118 8.249397e-05 -1.91124e-29)
(0.002614944 9.760064e-05 -2.698145e-25)
(0.002699497 6.180963e-05 -3.91838e-29)
(0.00279462 -6.07922e-05 -2.79728e-25)
(0.002874414 -0.0003157787 1.410859e-27)
(0.002920573 -0.0007366499 -1.111375e-24)
(0.002360557 5.269849e-05 6.046072e-30)
(0.002412407 0.0001343858 4.965432e-25)
(0.002487392 0.0001757604 -2.566227e-25)
(0.002582923 0.0001543188 -2.657607e-25)
(0.002690819 2.186695e-05 -3.993754e-27)
(0.002786672 -0.0002685889 -2.720445e-26)
(0.002836744 -0.0007253731 2.082714e-30)
(0.002154503 7.357367e-05 2.20321e-25)
(0.002209819 0.0001918648 1.137533e-25)
(0.002296585 0.0002588696 1.6194e-29)
(0.002403373 0.0002574874 -2.468756e-25)
(0.002520367 0.0001208468 1.049764e-28)
(0.00262526 -0.0001847673 -2.550092e-25)
(0.002696588 -0.0006661439 1.388293e-28)
(0.001883982 8.913022e-05 9.636879e-26)
(0.001939548 0.0002482298 -6.863591e-29)
(0.002025673 0.0003649062 4.677675e-30)
(0.00213128 0.0003754215 1.666353e-30)
(0.002242972 0.0002393042 1.125897e-25)
(0.002340275 -5.708883e-05 -3.2869e-25)
(0.002427408 -0.0005326084 -2.911458e-25)
(0.001552703 0.0001052979 1.588315e-25)
(0.001605328 0.0002999885 7.927284e-26)
(0.001682533 0.000442155 -4.513563e-27)
(0.001775869 0.0004782713 -2.656132e-29)
(0.001869682 0.0003581854 1.873132e-25)
(0.001938783 8.818467e-05 3.207099e-26)
(0.001973381 -0.0003758875 -7.542288e-26)
(0.001164199 0.0001216004 5.992481e-26)
(0.001209975 0.0003503154 9.458504e-28)
(0.0012761 0.0005184966 -6.594093e-26)
(0.001355411 0.0005694876 2.498138e-29)
(0.001431202 0.0004643359 1.441862e-25)
(0.001471931 0.0002097389 2.610002e-26)
(0.001428704 -0.0002097744 4.234938e-26)
(0.0007265377 0.0001362699 -4.414088e-31)
(0.0007590233 0.0003925729 2.163004e-27)
(0.0008068296 0.0005826526 -3.318402e-26)
(0.0008634492 0.0006475758 4.944644e-27)
(0.0009156205 0.0005542977 4.667778e-26)
(0.0009366255 0.0003061223 5.869374e-27)
(0.000881662 -0.0001141071 -4.265709e-26)
(0.000249688 0.0001480899 -2.982807e-29)
(0.00026129 0.0004210463 1.166352e-27)
(0.0002795525 0.0006245031 3.157499e-27)
(0.0003014483 0.0006988287 1.014193e-26)
(0.0003215341 0.0006125487 -3.952832e-30)
(0.0003292267 0.0003640558 -8.69187e-27)
(0.0003054183 -7.34856e-05 -1.718548e-25)
(-0.0002472916 0.0001485456 -8.232322e-28)
(-0.0002588221 0.0004224513 -1.16848e-27)
(-0.0002759662 0.0006272072 1.368452e-26)
(-0.0002955239 0.0007034096 9.001705e-27)
(-0.0003123592 0.0006185742 -1.077171e-29)
(-0.0003179582 0.0003704493 -5.022389e-28)
(-0.0002951702 -6.884663e-05 -1.281851e-25)
(-0.0007256672 0.0001374596 -2.373146e-34)
(-0.0007582969 0.0003962227 3.923877e-26)
(-0.0008055827 0.000589934 2.082682e-26)
(-0.0008607277 0.00066014 -1.682891e-26)
(-0.0009103541 0.0005710025 4.45833e-28)
(-0.0009291035 0.0003240139 1.055261e-28)
(-0.0008731872 -9.984525e-05 -9.887636e-29)
(-0.001165659 0.0001232062 -8.308149e-32)
(-0.001211761 0.0003552073 6.237947e-26)
(-0.001278248 0.0005283244 -2.728265e-27)
(-0.001357948 0.0005873163 -2.383161e-27)
(-0.001433356 0.0004892189 -4.189718e-28)
(-0.00147266 0.000237462 -7.760343e-27)
(-0.001425548 -0.0001860778 -1.213941e-25)
(-0.001557028 0.0001070644 -7.958785e-26)
(-0.001610082 0.0003051488 3.371983e-27)
(-0.001688635 0.0004522687 4.690896e-27)
(-0.001784492 0.0004979229 1.829335e-25)
(-0.001881128 0.0003877709 7.758965e-29)
(-0.001950717 0.0001236379 2.818116e-26)
(-0.001979471 -0.0003431833 7.635103e-26)
(-0.001891467 9.06336e-05 -9.671724e-26)
(-0.00194766 0.0002522969 -1.001631e-25)
(-0.002035805 0.0003725021 4.217578e-25)
(-0.002145467 0.0003911739 4.037609e-25)
(-0.002262651 0.000267397 2.161712e-25)
(-0.002363088 -2.026903e-05 2.254926e-28)
(-0.002444093 -0.0004959808 1.384701e-25)
(-0.002164435 7.438872e-05 -2.212958e-25)
(-0.00222037 0.0001934626 1.037951e-25)
(-0.002309784 0.0002609186 4.577653e-25)
(-0.002420931 0.0002647165 4.981156e-25)
(-0.002543686 0.000141202 -5.062969e-29)
(-0.002653071 -0.0001514678 -2.471021e-26)
(-0.002724368 -0.0006249917 -2.519713e-25)
(-0.002371477 5.278527e-05 -2.425589e-25)
(-0.002423663 0.0001338863 -1.485199e-27)
(-0.002499846 0.0001736781 2.562806e-25)
(-0.002598031 0.000153698 2.676102e-25)
(-0.002710603 3.214557e-05 -2.737961e-25)
(-0.002811944 -0.0002417009 2.303919e-26)
(-0.002866743 -0.0006844819 -2.713201e-25)
(-0.002517578 3.450877e-05 2.107872e-29)
(-0.002560066 8.024677e-05 8.775174e-28)
(-0.002625135 9.211339e-05 7.849728e-28)
(-0.002710906 5.435131e-05 1.495908e-29)
(-0.00280893 -6.169955e-05 -2.828354e-25)
(-0.002892497 -0.0002998483 2.119769e-26)
(-0.002943593 -0.0007025272 2.915263e-28)
(-0.002611188 1.679589e-05 -2.674414e-25)
(-0.002640594 3.131656e-05 2.721951e-25)
(-0.002696393 2.062294e-05 -2.784703e-25)
(-0.002771912 -3.112439e-05 1.20236e-27)
(-0.00285872 -0.0001480648 -8.689057e-25)
(-0.00293175 -0.000353651 2.637575e-25)
(-0.002997937 -0.0006811641 -8.454225e-26)
(-0.002657943 2.105797e-07 -2.724281e-25)
(-0.002672916 -1.323178e-05 -1.789921e-28)
(-0.002719958 -4.251391e-05 8.486964e-28)
(-0.002789635 -0.0001067283 5.705974e-25)
(-0.002874986 -0.0002205996 -3.027648e-25)
(-0.002943622 -0.0004056531 2.980884e-25)
(-0.003007516 -0.000684763 -2.979227e-25)
(-0.002662901 -1.472043e-05 0)
(-0.002664905 -5.494083e-05 -2.510555e-31)
(-0.002701819 -0.0001021589 -1.132503e-29)
(-0.002771714 -0.000176371 2.804597e-25)
(-0.002844628 -0.0002943718 3.055642e-25)
(-0.002916307 -0.0004616438 2.437051e-26)
(-0.002986049 -0.0007156896 -2.976008e-25)
(-0.002630286 -2.831545e-05 0)
(-0.002624852 -9.159324e-05 -2.208579e-27)
(-0.002652401 -0.000160127 -4.152062e-27)
(-0.002710601 -0.0002464283 -2.783916e-25)
(-0.002777857 -0.0003644719 2.842363e-25)
(-0.002851239 -0.0005271759 4.891149e-25)
(-0.002935293 -0.0007466808 -1.307632e-25)
(-0.002565573 -4.048875e-05 -2.621162e-25)
(-0.002554626 -0.0001260005 0)
(-0.002574442 -0.0002139554 0)
(-0.002618529 -0.0003137229 6.046253e-30)
(-0.002678871 -0.0004383436 3.068633e-25)
(-0.002756812 -0.0005942363 4.043413e-26)
(-0.002827357 -0.0008117186 -5.61501e-25)
(-0.002472235 -5.119707e-05 -2.52127e-25)
(-0.002459282 -0.0001555713 -1.944445e-27)
(-0.002472418 -0.0002613357 -3.375368e-27)
(-0.002503584 -0.0003778237 -3.020051e-26)
(-0.00255793 -0.000506922 -4.379475e-26)
(-0.002617412 -0.0006705073 -5.283077e-25)
(-0.002683467 -0.0008726711 -1.06551e-24)
(-0.00235595 -5.95963e-05 0)
(-0.002342598 -0.0001796709 2.392783e-25)
(-0.002348917 -0.0003017076 0)
(-0.002374255 -0.0004282646 -1.04669e-26)
(-0.002407512 -0.0005753785 -1.434812e-26)
(-0.002451583 -0.0007427693 -7.715545e-30)
(-0.002506532 -0.0009372463 -5.430151e-25)
(-0.00222312 -6.56369e-05 0)
(-0.002208612 -0.000198101 -2.23662e-25)
(-0.002212161 -0.000328726 2.249411e-25)
(-0.002223123 -0.0004714074 0)
(-0.00224215 -0.0006266723 -2.999757e-26)
(-0.002271648 -0.0007963825 1.498816e-25)
(-0.002298698 -0.0009968167 -5.022352e-26)
(-0.002079158 -6.978546e-05 0)
(-0.002065624 -0.0002077831 -6.281496e-25)
(-0.002060875 -0.0003496775 -2.60183e-28)
(-0.002061786 -0.0004986592 -4.397385e-25)
(-0.00206946 -0.0006561579 -3.223571e-26)
(-0.002075407 -0.0008348261 2.077223e-25)
(-0.002074424 -0.001041632 -1.777715e-25)
(-0.00193049 -7.126064e-05 1.958197e-25)
(-0.001915026 -0.0002142749 -1.966371e-25)
(-0.001904952 -0.0003587393 4.899685e-29)
(-0.001898148 -0.0005087535 -3.748237e-25)
(-0.001890109 -0.0006684913 0)
(-0.001878122 -0.0008414732 0)
(-0.001864126 -0.001038281 -3.021898e-25)
(-0.001779452 -7.145227e-05 1.799253e-25)
(-0.001762677 -0.0002151264 -1.798062e-25)
(-0.001748098 -0.0003599405 1.764922e-25)
(-0.001733705 -0.0005075073 1.744931e-25)
(-0.001712592 -0.0006660054 0)
(-0.001682554 -0.0008387779 0)
(-0.00165597 -0.001015495 -2.00895e-25)
(-0.001629241 -7.022048e-05 -1.65141e-25)
(-0.00161177 -0.0002115215 -1.680241e-25)
(-0.001594298 -0.0003519091 -4.364301e-27)
(-0.001571471 -0.000496904 1.515269e-25)
(-0.001540168 -0.000648672 4.50055e-26)
(-0.001504523 -0.0008041145 -2.357794e-25)
(-0.001449823 -0.0009767801 1.166232e-25)
(-0.001483034 -6.761655e-05 -1.506578e-25)
(-0.001465865 -0.000203457 -1.298769e-27)
(-0.001444962 -0.0003392041 4.27616e-27)
(-0.001416895 -0.0004769432 6.062579e-27)
(-0.001379766 -0.0006199271 0)
(-0.001334392 -0.0007648172 -1.467389e-25)
(-0.001270006 -0.0009188127 1.24355e-25)
(-0.001342999 -6.44621e-05 0)
(-0.001326221 -0.0001932015 -2.425569e-27)
(-0.00130302 -0.0003223341 -4.099944e-27)
(-0.00126991 -0.0004539326 2.914068e-25)
(-0.001232918 -0.0005808686 5.415796e-26)
(-0.001177706 -0.0007166967 2.13418e-25)
(-0.001112201 -0.0008510288 8.683561e-26)
(-0.001211136 -6.030172e-05 -3.726113e-28)
(-0.001194401 -0.0001811476 -1.15627e-27)
(-0.001170341 -0.0003009534 0)
(-0.001137987 -0.0004212344 -3.185238e-28)
(-0.001093645 -0.0005423205 1.083161e-25)
(-0.001039686 -0.0006620025 1.021957e-25)
(-0.0009739922 -0.0007796292 -1.981241e-26)
(-0.001088124 -5.601566e-05 1.100189e-25)
(-0.001071713 -0.0001684603 -1.106887e-25)
(-0.001046595 -0.0002807436 1.922926e-25)
(-0.001016205 -0.0003884572 -2.232087e-25)
(-0.0009705579 -0.0004988667 8.96175e-26)
(-0.0009177828 -0.000605081 0)
(-0.0008535476 -0.0007080683 1.800093e-26)
(-0.0009743593 -5.163021e-05 9.896292e-26)
(-0.0009578584 -0.000155769 -9.552681e-26)
(-0.0009357399 -0.0002561327 9.262753e-26)
(-0.0009027434 -0.0003572007 0)
(-0.0008606684 -0.0004550563 -8.529452e-26)
(-0.0008100071 -0.0005492194 0)
(-0.0007489302 -0.0006394223 7.313621e-26)
(-0.0008703065 -4.694397e-05 0)
(-0.0008557864 -0.00014137 0)
(-0.000833094 -0.0002344791 -1.66761e-25)
(-0.0008020689 -0.0003249914 0)
(-0.0007627622 -0.0004122572 -1.511096e-25)
(-0.0007148178 -0.0004959847 -7.038292e-26)
(-0.0006572161 -0.0005759185 6.40756e-26)
(-0.000775492 -4.300743e-05 -7.84542e-26)
(-0.0007628286 -0.0001280579 0)
(-0.0007411633 -0.0002124003 -7.282503e-26)
(-0.0007122747 -0.0002936164 7.28901e-26)
(-0.0006756179 -0.0003715022 -6.690762e-26)
(-0.000630976 -0.0004454638 -1.242249e-25)
(-0.0005774792 -0.0005146667 -5.630611e-26)
(-0.0006905148 -3.866511e-05 -6.97281e-26)
(-0.0006781688 -0.0001160063 -6.789471e-26)
(-0.0006586507 -0.0001915006 0)
(-0.0006320515 -0.0002641671 6.634412e-26)
(-0.0005983358 -0.0003335286 4.256654e-27)
(-0.0005575615 -0.0003987504 -1.149244e-25)
(-0.0005092234 -0.000458659 -1.750833e-26)
(-0.0006138424 -3.480257e-05 -6.210934e-26)
(-0.0006025303 -0.0001042714 -6.063525e-26)
(-0.0005848225 -0.0001719208 5.862777e-26)
(-0.0005604906 -0.0002369519 0)
(-0.0005297254 -0.0002989004 0)
(-0.0004925572 -0.0003574309 -4.851748e-26)
(-0.0004478797 -0.0004130515 8.340058e-26)
(-0.0005450454 -3.116442e-05 -5.514297e-26)
(-0.0005348393 -9.339926e-05 -5.38676e-26)
(-0.0005188346 -0.0001538908 5.199795e-26)
(-0.000496726 -0.0002119457 0)
(-0.0004687658 -0.0002670608 3.404645e-27)
(-0.0004349366 -0.0003186957 5.893315e-30)
(-0.0003944668 -0.0003667234 -4.682961e-27)
(-0.0004835034 -2.782649e-05 0)
(-0.0004744076 -8.341544e-05 -4.777374e-26)
(-0.0004599885 -0.0001374177 4.614907e-26)
(-0.0004400197 -0.0001891589 0)
(-0.0004147689 -0.0002381543 -4.426215e-26)
(-0.0003842773 -0.0002839221 -7.251103e-27)
(-0.0003479984 -0.0003262895 -4.169836e-27)
(-0.0004285981 -2.478798e-05 4.338409e-26)
(-0.0004205362 -7.434274e-05 -2.367602e-28)
(-0.000407601 -0.0001224758 4.049448e-26)
(-0.0003896586 -0.000168525 -1.074897e-27)
(-0.0003669695 -0.0002120246 -1.321673e-27)
(-0.0003394916 -0.0002526044 -3.347631e-26)
(-0.0003071085 -0.0002898958 0)
(-0.0003797048 -2.204097e-05 7.687335e-26)
(-0.0003725809 -6.614753e-05 0)
(-0.0003610147 -0.0001090039 0)
(-0.0003449387 -0.0001499947 3.545055e-26)
(-0.0003245211 -0.0001888126 6.574432e-26)
(-0.0002992337 -0.0002255156 -2.949132e-26)
(-0.0002710351 -0.0002572362 0)
(-0.0003362264 -1.956837e-05 3.40373e-26)
(-0.0003299432 -5.877211e-05 -1.873507e-28)
(-0.0003196281 -9.687901e-05 -3.099879e-28)
(-0.000305257 -0.0001332813 -8.721328e-28)
(-0.0002869697 -0.000167602 2.745822e-26)
(-0.0002645489 -0.0001997025 0)
(-0.0002385565 -0.0002289347 -2.33223e-26)
(-0.0002976037 -1.735116e-05 -2.741569e-29)
(-0.0002920718 -5.216014e-05 -2.970773e-26)
(-0.0002828973 -8.601733e-05 -2.870486e-26)
(-0.0002700956 -0.0001183453 -5.406026e-26)
(-0.000253814 -0.0001488248 0)
(-0.00023396 -0.000177366 -2.272007e-26)
(-0.0002106015 -0.0002033352 2.803757e-29)
(-0.0002633198 -1.536859e-05 -2.664452e-26)
(-0.0002584556 -4.625118e-05 -5.221352e-26)
(-0.0002503132 -7.6315e-05 -5.056219e-26)
(-0.0002389311 -0.00010501 -2.458725e-26)
(-0.0002243871 -0.0001321014 -8.455658e-28)
(-0.000206793 -0.0001574071 -2.007686e-26)
(-0.0001860386 -0.0001804718 1.936085e-26)
(-0.0002329029 -1.360108e-05 -2.358757e-26)
(-0.0002286264 -4.098469e-05 -4.613466e-26)
(-0.0002214011 -6.768846e-05 -2.22565e-26)
(-0.0002112422 -9.324659e-05 0)
(-0.0001979423 -0.0001176696 -5.721113e-27)
(-0.0001827032 -0.0001395538 -8.661244e-27)
(-0.0001643308 -0.0001601538 -2.051591e-27)
(-0.0002059266 -1.202391e-05 -2.088021e-26)
(-0.0002021661 -3.628406e-05 -2.034224e-26)
(-0.0001957536 -5.996886e-05 5.746315e-28)
(-0.0001867108 -8.259471e-05 5.285379e-28)
(-0.0001749993 -0.0001041019 0)
(-0.0001609558 -0.000124097 -1.591884e-26)
(-0.0001450853 -0.0001421501 9.128792e-28)
(-0.0001820097 -1.061996e-05 -1.845472e-26)
(-0.0001787035 -3.209989e-05 -1.799106e-26)
(-0.0001730207 -5.310658e-05 3.392885e-28)
(-0.0001650021 -7.318687e-05 2.341086e-28)
(-0.0001546549 -9.231594e-05 0)
(-0.0001420517 -0.0001101122 -1.334003e-26)
(-0.0001280618 -0.0001261236 1.620902e-27)
(-0.0001608083 -9.370599e-06 1.477259e-29)
(-0.0001579003 -2.837861e-05 -3.184124e-26)
(-0.0001528629 -4.700596e-05 1.498966e-28)
(-0.0001457443 -6.482934e-05 2.072733e-28)
(-0.0001365693 -8.182933e-05 0)
(-0.0001253669 -9.76502e-05 0)
(-0.0001129689 -0.0001119007 0)
(-0.0001420137 -8.260287e-06 0)
(-0.0001394539 -2.507075e-05 -1.408232e-26)
(-0.0001349856 -4.15824e-05 0)
(-0.0001286348 -5.741492e-05 1.253668e-26)
(-0.0001205149 -7.250655e-05 -4.628166e-28)
(-0.0001105791 -8.659015e-05 -5.55257e-28)
(-9.958488e-05 -9.929454e-05 9.171978e-27)
(-0.0001253491 -7.274231e-06 -1.270381e-26)
(-0.0001230886 -2.213885e-05 0)
(-0.0001191008 -3.6807e-05 2.334132e-28)
(-0.0001132934 -5.101358e-05 9.208812e-27)
(-0.0001062656 -6.420072e-05 -1.37631e-26)
(-9.745226e-05 -7.67909e-05 0)
(-8.770511e-05 -8.814389e-05 8.638396e-27)
(-0.00011057 -6.394419e-06 -1.120584e-26)
(-0.0001085647 -1.951837e-05 0)
(-0.0001050036 -3.249973e-05 1.031968e-28)
(-9.988714e-05 -4.505827e-05 1.435059e-28)
(-9.340176e-05 -5.702279e-05 -1.863603e-26)
(-8.57623e-05 -6.815042e-05 8.519231e-27)
(-7.713962e-05 -7.830698e-05 -7.610869e-27)
(-9.746142e-05 -5.609803e-06 0)
(-9.567387e-05 -1.71863e-05 -9.616308e-27)
(-9.248818e-05 -2.869073e-05 9.100681e-29)
(-8.79363e-05 -3.986536e-05 8.779149e-27)
(-8.209655e-05 -5.05505e-05 -8.195323e-27)
(-7.534926e-05 -6.050035e-05 7.485118e-27)
(-6.7712e-05 -6.964254e-05 6.038258e-30)
(-8.58306e-05 -4.907451e-06 0)
(-8.422042e-05 -1.510251e-05 -8.514006e-27)
(-8.134593e-05 -2.529832e-05 8.204127e-27)
(-7.725409e-05 -3.524813e-05 7.826139e-27)
(-7.202007e-05 -4.480908e-05 -7.05782e-27)
(-6.602142e-05 -5.376076e-05 3.424278e-28)
(-5.925881e-05 -6.203504e-05 5.851453e-27)
(-7.550829e-05 -4.273957e-06 0)
(-7.403344e-05 -1.322947e-05 0)
(-7.140461e-05 -2.226369e-05 7.204498e-27)
(-6.768879e-05 -3.113978e-05 -6.770502e-27)
(-6.297847e-05 -3.97324e-05 3.600027e-30)
(-5.76253e-05 -4.783687e-05 0)
(-5.163623e-05 -5.53791e-05 0)
(-6.634888e-05 -3.695473e-06 -6.72828e-27)
(-6.496129e-05 -1.152834e-05 6.575551e-27)
(-6.250724e-05 -1.953118e-05 3.097244e-27)
(-5.908519e-05 -2.747601e-05 -6.001194e-27)
(-5.481293e-05 -3.524734e-05 -3.049642e-30)
(-5.001804e-05 -4.264579e-05 2.685342e-28)
(-4.471494e-05 -4.958411e-05 9.541153e-32)
(-5.823019e-05 -3.155907e-06 4.620951e-31)
(-5.686962e-05 -9.957815e-06 5.761622e-27)