/*--------------------------------*- C++ -*----------------------------------*\
| =========                 |                                                 |
| \\      /  F ield         | OpenFOAM: The Open Source CFD Toolbox           |
|  \\    /   O peration     | Version:  2206                                  |
|   \\  /    A nd           | Website:  www.openfoam.com                      |
|    \\/     M anipulation  |                                                 |
\*---------------------------------------------------------------------------*/
FoamFile
{
    version     2.0;
    format      ascii;
    arch        "LSB;label=32;scalar=64";
    class       surfaceVectorField;
    location    "1";
    object      Ufa;
}
// * * * * * * * * * * * * * * * * * * * * * * * * * * * * * * * * * * * * * //

dimensions      [0 1 -1 0 0 0 0];

internalField   nonuniform List<vector> 
26037
(
(1.785485e-07 -3.413849e-05 1.281758e-24)
(-7.476486e-06 -3.102728e-05 1.910285e-28)
(-8.713376e-08 -2.30797e-05 2.914218e-26)
(-4.394011e-06 -2.369286e-05 8.985762e-28)
(-6.5176e-08 -1.614663e-05 -1.288918e-29)
(-1.787147e-06 -1.735699e-05 -1.291845e-29)
(-3.294958e-08 -1.15678e-05 -5.899548e-30)
(-8.443056e-07 -1.264474e-05 0)
(-1.855926e-08 -8.68552e-06 1.891677e-27)
(-4.588003e-07 -9.58757e-06 -5.899962e-30)
(-8.451253e-09 -6.603287e-06 -1.189084e-29)
(-2.750723e-07 -7.376953e-06 -9.381413e-30)
(-1.751733e-07 -5.61686e-06 -5.958853e-30)
(2.804622e-10 -4.93214e-06 1.095555e-27)
(-1.21926e-05 -2.044566e-05 -4.470626e-33)
(-1.091166e-05 -1.364923e-05 8.029371e-33)
(-6.143837e-06 -1.796462e-05 -4.513594e-33)
(-7.176217e-06 -1.559741e-05 1.152109e-31)
(-2.564543e-06 -1.384363e-05 0)
(-3.509376e-06 -1.336376e-05 5.886933e-30)
(-1.270045e-06 -1.066444e-05 -1.120395e-33)
(-1.897604e-06 -1.082056e-05 1.178507e-29)
(-7.152639e-07 -8.27926e-06 -1.621761e-33)
(-1.123339e-06 -8.667652e-06 3.041036e-30)
(-4.417631e-07 -6.390711e-06 -1.346431e-33)
(-7.144786e-07 -6.862295e-06 -5.017208e-34)
(-4.789327e-07 -5.304939e-06 -7.435036e-30)
(-2.891247e-07 -4.808686e-06 -5.977745e-30)
(-5.90748e-06 -8.758866e-06 1.284744e-31)
(-4.114015e-06 -4.782056e-06 1.237768e-26)
(-4.559133e-06 -1.09623e-05 6.000724e-30)
(-4.262899e-06 -8.555067e-06 -1.364034e-27)
(-2.837448e-06 -1.031437e-05 2.096236e-28)
(-3.070041e-06 -9.208118e-06 6.860386e-30)
(-1.750683e-06 -8.823234e-06 -9.505299e-28)
(-2.064146e-06 -8.460428e-06 1.247109e-29)
(-1.122515e-06 -7.250872e-06 5.910856e-30)
(-1.395986e-06 -7.263011e-06 1.128332e-29)
(-7.516018e-07 -5.776691e-06 -3.394454e-35)
(-9.689769e-07 -5.989446e-06 0)
(-6.897399e-07 -4.737003e-06 8.254344e-30)
(-5.206492e-07 -4.418524e-06 5.983473e-30)
(-2.469e-06 -4.574119e-06 1.644816e-31)
(-1.365624e-06 -2.334586e-06 -1.770894e-31)
(-2.780802e-06 -6.781694e-06 1.079056e-30)
(-2.271481e-06 -4.989562e-06 -3.291768e-27)
(-2.289597e-06 -7.328932e-06 6.840019e-29)
(-2.181571e-06 -6.190754e-06 -1.443655e-27)
(-1.708871e-06 -6.891125e-06 6.046165e-31)
(-1.787607e-06 -6.316439e-06 2.014502e-28)
(-1.242405e-06 -6.001677e-06 5.619334e-33)
(-1.382077e-06 -5.80882e-06 -6.873273e-30)
(-9.070641e-07 -4.949893e-06 2.110588e-33)
(-1.05181e-06 -4.987639e-06 -2.254964e-35)
(-7.996867e-07 -4.035315e-06 5.97824e-30)
(-6.678181e-07 -3.853938e-06 -5.987348e-30)
(-1.167202e-06 -2.747645e-06 -1.207612e-28)
(-5.432501e-07 -1.436007e-06 -1.48023e-31)
(-1.672825e-06 -4.388906e-06 -1.470605e-28)
(-1.245642e-06 -3.153416e-06 -1.215088e-31)
(-1.676815e-06 -5.171529e-06 -3.841214e-31)
(-1.474287e-06 -4.239337e-06 -3.497362e-31)
(-1.459284e-06 -5.222017e-06 -1.838855e-29)
(-1.412858e-06 -4.631275e-06 -6.532239e-28)
(-1.191185e-06 -4.789888e-06 4.545931e-28)
(-1.234001e-06 -4.503571e-06 2.140637e-28)
(-9.443762e-07 -4.073162e-06 -6.067786e-28)
(-1.02693e-06 -4.015888e-06 -5.983477e-30)
(-8.328383e-07 -3.30405e-06 -2.639882e-29)
(-7.386519e-07 -3.212564e-06 5.976117e-30)
(-6.210874e-07 -1.840234e-06 3.733554e-31)
(-2.585268e-07 -1.027546e-06 0)
(-1.045206e-06 -2.995076e-06 9.216196e-29)
(-7.330086e-07 -2.150967e-06 3.482574e-31)
(-1.209959e-06 -3.700459e-06 -1.120911e-28)
(-1.009495e-06 -2.993326e-06 -6.421093e-30)
(-1.186929e-06 -3.908436e-06 3.089315e-29)
(-1.094891e-06 -3.405858e-06 -5.972958e-30)
(-1.069091e-06 -3.722386e-06 -5.254439e-30)
(-1.056426e-06 -3.42375e-06 -7.966946e-28)
(-9.152183e-07 -3.243769e-06 6.268664e-28)
(-9.534042e-07 -3.136517e-06 -5.315445e-30)
(-8.217793e-07 -2.610085e-06 -1.21048e-29)
(-7.57275e-07 -2.567975e-06 7.595669e-28)
(-3.700327e-07 -1.337246e-06 -2.527921e-32)
(-1.441432e-07 -8.087394e-07 1.448272e-31)
(-6.952457e-07 -2.14304e-06 -6.041323e-30)
(-4.731395e-07 -1.560339e-06 -1.726031e-27)
(-8.936478e-07 -2.69686e-06 -6.167824e-28)
(-7.267343e-07 -2.177388e-06 -1.164553e-27)
(-9.638533e-07 -2.919571e-06 -5.236146e-30)
(-8.672671e-07 -2.522921e-06 -6.10037e-30)
(-9.404503e-07 -2.835117e-06 -2.196855e-29)
(-9.06582e-07 -2.579988e-06 9.105713e-31)
(-8.596971e-07 -2.498229e-06 7.628078e-31)
(-8.726221e-07 -2.379905e-06 1.527005e-30)
(-7.931675e-07 -1.972947e-06 7.615025e-31)
(-7.488201e-07 -1.961909e-06 -7.366857e-33)
(-2.469864e-07 -1.03121e-06 5.052148e-32)
(-9.209053e-08 -6.761408e-07 3.413666e-27)
(-5.040378e-07 -1.593565e-06 -1.572894e-31)
(-3.393223e-07 -1.185612e-06 2.12708e-31)
(-6.996855e-07 -2.002632e-06 -6.353978e-32)
(-5.650748e-07 -1.628613e-06 8.215031e-31)
(-8.102423e-07 -2.18405e-06 7.197594e-32)
(-7.231285e-07 -1.886321e-06 7.692597e-31)
(-8.386712e-07 -2.124837e-06 8.370605e-31)
(-8.013049e-07 -1.926849e-06 -2.363018e-27)
(-8.059914e-07 -1.85297e-06 -6.001416e-29)
(-8.09782e-07 -1.757568e-06 1.532928e-30)
(-7.661143e-07 -1.40641e-06 7.667676e-31)
(-7.321403e-07 -1.406107e-06 -5.329515e-30)
(-1.841953e-07 -8.300507e-07 3.231879e-31)
(-6.653032e-08 -5.881488e-07 -3.615784e-27)
(-4.000069e-07 -1.220268e-06 1.190616e-30)
(-2.710318e-07 -9.313517e-07 4.197765e-27)
(-5.86737e-07 -1.509661e-06 1.899436e-29)
(-4.776603e-07 -1.24207e-06 1.870885e-27)
(-7.146395e-07 -1.629489e-06 1.403969e-30)
(-6.410078e-07 -1.414286e-06 7.216689e-31)
(-7.723226e-07 -1.559612e-06 -4.318471e-29)
(-7.399608e-07 -1.417099e-06 -2.902624e-27)
(-7.698211e-07 -1.311237e-06 7.678475e-31)
(-7.739289e-07 -1.247922e-06 7.676108e-31)
(-7.533501e-07 -9.210912e-07 0)
(-7.20903e-07 -9.084577e-07 -8.317639e-32)
(-1.531285e-07 -6.88987e-07 8.821509e-32)
(-5.401826e-08 -5.254421e-07 -3.943471e-31)
(-3.483343e-07 -9.529189e-07 6.991306e-31)
(-2.397073e-07 -7.482409e-07 4.827917e-31)
(-5.29969e-07 -1.14482e-06 1.715512e-31)
(-4.386025e-07 -9.565815e-07 8.008206e-31)
(-6.669127e-07 -1.202e-06 -6.719071e-32)
(-6.059468e-07 -1.053333e-06 -3.883625e-27)
(-7.414608e-07 -1.105453e-06 -1.994611e-32)
(-7.174745e-07 -1.012106e-06 3.481625e-27)
(-7.573483e-07 -8.580134e-07 0)
(-7.669706e-07 -8.27276e-07 0)
(-7.605404e-07 -5.057164e-07 0)
(-7.239773e-07 -4.745301e-07 1.527301e-30)
(-1.403411e-07 -5.8424e-07 0)
(-4.878107e-08 -4.780068e-07 0)
(-3.295982e-07 -7.517783e-07 5.8422e-31)
(-2.30928e-07 -6.090245e-07 -8.388246e-31)
(-5.125017e-07 -8.640548e-07 3.593986e-31)
(-4.320874e-07 -7.3585e-07 4.962657e-27)
(-6.571706e-07 -8.632388e-07 -2.119309e-31)
(-6.064107e-07 -7.675278e-07 -6.216327e-31)
(-7.42857e-07 -7.339777e-07 2.075662e-32)
(-7.280096e-07 -6.822459e-07 -4.111964e-27)
(-7.700242e-07 -4.752314e-07 0)
(-7.87851e-07 -4.744129e-07 0)
(-7.897178e-07 -1.47079e-07 1.863366e-30)
(-7.455333e-07 -9.660469e-08 -2.049072e-32)
(-1.390856e-07 -5.023225e-07 -8.384757e-31)
(-4.809955e-08 -4.400677e-07 0)
(-3.330022e-07 -5.930564e-07 -3.921779e-32)
(-2.371284e-07 -4.975449e-07 -5.98736e-27)
(-5.237627e-07 -6.390299e-07 4.277568e-31)
(-4.488948e-07 -5.572128e-07 3.936775e-32)
(-6.779737e-07 -5.860148e-07 8.381086e-29)
(-6.346587e-07 -5.32455e-07 5.190877e-27)
(-7.728503e-07 -4.227348e-07 -1.318064e-30)
(-7.667969e-07 -4.053959e-07 -2.033682e-30)
(-8.073755e-07 -1.465339e-07 1.862724e-30)
(-8.347071e-07 -1.716649e-07 6.020669e-31)
(-8.413115e-07 1.674767e-07 3.742597e-27)
(-7.872334e-07 2.358023e-07 -2.942928e-28)
(-1.458263e-07 -4.347998e-07 -1.839613e-30)
(-5.055866e-08 -4.080501e-07 -1.076749e-30)
(-3.525575e-07 -4.617393e-07 5.846057e-29)
(-2.543165e-07 -4.036658e-07 -1.839914e-30)
(-5.573428e-07 -4.510246e-07 -1.554058e-31)
(-4.837282e-07 -4.05883e-07 -1.524718e-30)
(-7.242725e-07 -3.510007e-07 -1.031197e-31)
(-6.856943e-07 -3.312348e-07 -1.608166e-31)
(-8.284707e-07 -1.54387e-07 -1.121132e-31)
(-8.303357e-07 -1.652072e-07 -5.850995e-27)
(-8.684412e-07 1.420429e-07 6.225392e-31)
(-9.057517e-07 9.524075e-08 4.929953e-27)
(-9.151376e-07 4.492804e-07 -4.356203e-27)
(-8.49678e-07 5.329282e-07 2.047184e-32)
(-1.586925e-07 -3.763933e-07 -1.076957e-30)
(-5.541407e-08 -3.796624e-07 -6.298279e-27)
(-3.849653e-07 -3.479175e-07 -7.626976e-31)
(-2.803941e-07 -3.206986e-07 0)
(-6.093863e-07 -2.870919e-07 8.150604e-29)
(-5.334859e-07 -2.717274e-07 -2.292765e-30)
(-7.925834e-07 -1.443247e-07 -2.668451e-30)
(-7.545726e-07 -1.520024e-07 1.155517e-29)
(-9.074232e-07 8.443257e-08 -1.052357e-30)
(-9.138298e-07 4.990522e-08 -7.946357e-27)
(-9.522108e-07 4.021448e-07 1.702099e-31)
(-9.991867e-07 3.377191e-07 8.222405e-31)
(-1.010957e-06 7.081624e-07 1.764205e-31)
(-9.330402e-07 8.041092e-07 -1.798789e-30)
(-1.767123e-07 -3.234033e-07 -1.335753e-30)
(-6.229319e-08 -3.533016e-07 -1.335137e-30)
(-4.283556e-07 -2.446669e-07 -1.528265e-30)
(-3.144998e-07 -2.439738e-07 -1.945538e-30)
(-6.762419e-07 -1.377814e-07 1.584731e-28)
(-5.97773e-07 -1.475164e-07 -1.528655e-30)
(-8.760118e-07 4.294152e-08 -2.040582e-27)
(-8.439509e-07 1.462811e-08 6.295535e-27)
(-1.005857e-06 3.046408e-07 1.142379e-29)
(-1.02083e-06 2.506969e-07 1.309864e-29)
(-1.057672e-06 6.43515e-07 8.285709e-31)
(-1.11593e-06 5.651941e-07 1.603363e-30)
(-1.129342e-06 9.525903e-07 5.825649e-27)
(-1.037552e-06 1.057663e-06 1.463701e-30)
(-1.996263e-07 -2.732596e-07 -1.944598e-30)
(-7.097064e-08 -3.278108e-07 0)
(-4.83363e-07 -1.470406e-07 -1.94593e-30)
(-3.561117e-07 -1.701021e-07 -9.804614e-27)
(-7.637644e-07 3.629475e-09 3.278436e-30)
(-6.757933e-07 -2.800861e-08 -7.687349e-31)
(-9.864269e-07 2.193969e-07 -2.971249e-28)
(-9.530323e-07 1.74241e-07 2.497454e-30)
(-1.131323e-06 5.136425e-07 3.210871e-30)
(-1.151445e-06 4.440009e-07 1.607607e-30)
(-1.187283e-06 8.741463e-07 -4.450165e-28)
(-1.256696e-06 7.854243e-07 1.602667e-30)
(-1.271077e-06 1.18998e-06 2.684215e-30)
(-1.164316e-06 1.301038e-06 4.305805e-30)
(-2.26939e-07 -2.239835e-07 -4.66556e-30)
(-8.136673e-08 -3.023309e-07 -1.940998e-30)
(-5.479642e-07 -5.130607e-08 -5.437078e-30)
(-4.049952e-07 -9.650124e-08 -1.10739e-26)
(-8.642132e-07 1.420897e-07 1.407184e-28)
(-7.666335e-07 9.094069e-08 -2.312943e-30)
(-1.114578e-06 3.944393e-07 -7.964025e-31)
(-1.079224e-06 3.33554e-07 -1.57312e-30)
(-1.277602e-06 7.192673e-07 0)
(-1.302851e-06 6.372834e-07 0)
(-1.340133e-06 1.101194e-06 0)
(-1.421189e-06 1.004962e-06 -3.499286e-30)
(-1.436878e-06 1.426768e-06 -3.287914e-30)
(-1.313936e-06 1.540999e-06 -1.637775e-30)
(-2.588357e-07 -1.741127e-07 2.631854e-28)
(-9.353779e-08 -2.761815e-07 -1.023174e-26)
(-6.230105e-07 4.546645e-08 1.453858e-28)
(-4.615443e-07 -2.112939e-08 -6.756001e-30)
(-9.807571e-07 2.818664e-07 1.639994e-28)
(-8.714532e-07 2.126264e-07 -3.872481e-30)
(-1.263441e-06 5.712553e-07 -8.018356e-31)
(-1.22492e-06 4.963641e-07 -2.378847e-30)
(-1.447369e-06 9.268731e-07 -3.539965e-30)
(-1.477432e-06 8.346152e-07 0)
(-1.517525e-06 1.330447e-06 5.899907e-28)
(-1.610753e-06 1.22872e-06 -1.045953e-26)
(-1.627955e-06 1.668306e-06 -4.951057e-30)
(-1.487667e-06 1.783415e-06 6.463004e-28)
(-2.955798e-07 -1.223866e-07 2.934513e-28)
(-1.075832e-07 -2.487713e-07 -5.432214e-30)
(-7.092432e-07 1.457025e-07 1.657166e-28)
(-5.263103e-07 5.771067e-08 -1.409504e-26)
(-1.114606e-06 4.264937e-07 3.811352e-28)
(-9.913847e-07 3.397688e-07 -5.937728e-30)
(-1.4343e-06 7.539325e-07 -1.615274e-30)
(-1.391346e-06 6.662801e-07 -1.589428e-30)
(-1.641864e-06 1.140586e-06 -2.295184e-30)
(-1.674089e-06 1.039055e-06 1.319251e-29)
(-1.72075e-06 1.566613e-06 -3.933442e-30)
(-1.823674e-06 1.458869e-06 1.449923e-29)
(-1.845113e-06 1.918701e-06 1.719374e-30)
(-1.686915e-06 2.033191e-06 7.329984e-28)
(-3.375575e-07 -6.777651e-08 -1.063934e-29)
(-1.23635e-07 -2.195743e-07 -1.296902e-26)
(-8.076076e-07 2.513988e-07 -1.117802e-29)
(-6.000872e-07 1.414917e-07 -1.582287e-26)
(-1.267048e-06 5.789006e-07 -3.612702e-30)
(-1.128063e-06 4.746538e-07 -1.507421e-26)
(-1.62698e-06 9.463129e-07 1.307292e-29)
(-1.581737e-06 8.463576e-07 -2.341602e-30)
(-1.856689e-06 1.359268e-06 -4.930781e-27)
(-1.901717e-06 1.255138e-06 1.479157e-29)
(-1.948352e-06 1.813772e-06 -1.916682e-27)
(-2.0696e-06 1.701386e-06 1.418097e-29)
(-2.092133e-06 2.1816e-06 4.341272e-30)
(-1.91266e-06 2.294186e-06 3.383015e-30)
(-3.853092e-07 -9.312549e-09 -3.857557e-28)
(-1.418821e-07 -1.881589e-07 -3.899785e-30)
(-9.195925e-07 3.643081e-07 -2.397545e-28)
(-6.837673e-07 2.31498e-07 -1.783991e-26)
(-1.441697e-06 7.414524e-07 -9.988599e-30)
(-1.28288e-06 6.192793e-07 -1.717647e-26)
(-1.853054e-06 1.15148e-06 -5.565059e-28)
(-1.79742e-06 1.038846e-06 -1.631192e-26)
(-2.11096e-06 1.590496e-06 -9.38624e-31)
(-2.159652e-06 1.484704e-06 1.657187e-30)
(-2.21279e-06 2.074323e-06 -1.667378e-30)
(-2.348492e-06 1.959175e-06 -1.356713e-26)
(-2.37124e-06 2.459699e-06 1.269523e-26)
(-2.169762e-06 2.56927e-06 9.701399e-28)
(-4.393714e-07 5.375475e-08 -4.343526e-30)
(-1.626113e-07 -1.541099e-07 4.789145e-30)
(-1.045976e-06 4.859665e-07 -2.609352e-28)
(-7.783814e-07 3.289748e-07 -4.344161e-30)
(-1.637545e-06 9.160481e-07 -1.329966e-29)
(-1.457376e-06 7.755703e-07 -4.109245e-30)
(-2.102484e-06 1.370685e-06 -9.206315e-30)
(-2.039262e-06 1.24614e-06 -1.841716e-26)
(-2.392575e-06 1.843189e-06 -3.188235e-30)
(-2.447083e-06 1.732653e-06 6.575251e-30)
(-2.50659e-06 2.351665e-06 -3.166752e-30)
(-2.658374e-06 2.236062e-06 -3.255796e-30)
(-2.682201e-06 2.754417e-06 -1.588678e-26)
(-2.457266e-06 2.860116e-06 9.385055e-31)
(-5.005246e-07 1.22335e-07 4.790011e-30)
(-1.862151e-07 -1.168714e-07 1.835996e-26)
(-1.188558e-06 6.18004e-07 0)
(-8.854799e-07 4.354101e-07 0)
(-1.857898e-06 1.104958e-06 1.605239e-30)
(-1.654337e-06 9.457539e-07 0)
(-2.382293e-06 1.606751e-06 -7.515703e-28)
(-2.311445e-06 1.471019e-06 2.091768e-26)
(-2.707661e-06 2.114371e-06 6.710339e-30)
(-2.769497e-06 2.000483e-06 2.016489e-26)
(-2.833652e-06 2.646227e-06 -3.801976e-30)
(-3.001365e-06 2.531335e-06 -5.097047e-30)
(-3.023787e-06 3.064098e-06 -3.777329e-30)
(-2.775894e-06 3.167299e-06 -1.048487e-29)
(-5.699338e-07 1.975678e-07 1.106421e-29)
(-2.133018e-07 -7.578027e-08 2.048989e-26)
(-1.349876e-06 7.625092e-07 0)
(-1.007324e-06 5.527128e-07 7.814474e-31)
(-2.106527e-06 1.311027e-06 4.471218e-30)
(-1.877598e-06 1.132804e-06 8.246841e-30)
(-2.696984e-06 1.863406e-06 8.139499e-28)
(-2.619243e-06 1.7173e-06 6.15856e-30)
(-3.058688e-06 2.408006e-06 4.68679e-30)
(-3.134255e-06 2.29279e-06 2.006884e-26)
(-3.192621e-06 2.952969e-06 -5.129009e-30)
(-3.394073e-06 2.852328e-06 -1.340493e-26)
(-3.411787e-06 3.397917e-06 0)
(-3.124146e-06 3.49344e-06 3.635069e-30)
(-6.493004e-07 2.808825e-07 7.149528e-30)
(-2.447453e-07 -2.996251e-08 6.364768e-30)
(-1.533488e-06 9.222693e-07 -3.47393e-28)
(-1.1469e-06 6.833893e-07 -8.098904e-30)
(-2.3888e-06 1.538193e-06 9.933728e-30)
(-2.132048e-06 1.340721e-06 2.720369e-26)
(-3.05486e-06 2.145388e-06 -9.89842e-28)
(-2.96863e-06 1.990141e-06 1.685654e-30)
(-3.464738e-06 2.7303e-06 -4.068316e-30)
(-3.546854e-06 2.614963e-06 -2.515768e-26)
(-3.609846e-06 3.286603e-06 -6.015651e-30)
(-3.834981e-06 3.203293e-06 1.539497e-30)
(-3.845746e-06 3.762942e-06 3.925425e-30)
(-3.520094e-06 3.845561e-06 4.36139e-31)
(-7.407836e-07 3.742369e-07 -8.874292e-30)
(-2.81822e-07 2.176688e-08 -8.292204e-30)
(-1.743702e-06 1.101008e-06 -3.255653e-31)
(-1.308321e-06 8.308285e-07 -3.114083e-26)
(-2.710156e-06 1.791676e-06 8.563462e-30)
(-2.424306e-06 1.574955e-06 1.8293e-29)
(-3.45898e-06 2.458541e-06 -3.937039e-30)
(-3.367775e-06 2.296771e-06 0)
(-3.914971e-06 3.085508e-06 -2.354593e-27)
(-4.015082e-06 2.975874e-06 -7.563605e-30)
(-4.069244e-06 3.664193e-06 -3.017832e-27)
(-4.331018e-06 3.598739e-06 7.395433e-30)
(-4.332876e-06 4.17449e-06 7.960357e-30)
(-3.958193e-06 4.233083e-06 -1.585848e-31)
(-8.47604e-07 4.802403e-07 -1.848385e-29)
(-3.263221e-07 8.096853e-08 -2.737547e-26)
(-1.986954e-06 1.303844e-06 -4.696772e-31)
(-1.497141e-06 9.994268e-07 -2.175712e-29)
(-3.079984e-06 2.078947e-06 9.737583e-30)
(-2.763804e-06 1.842757e-06 3.364337e-26)
(-3.922032e-06 2.81282e-06 -3.622762e-30)
(-3.829416e-06 2.647191e-06 0)
(-4.428992e-06 3.486786e-06 2.594966e-27)
(-4.555071e-06 3.388477e-06 -3.623279e-30)
(-4.593246e-06 4.092645e-06 -3.230902e-27)
(-4.902825e-06 4.052508e-06 -8.942692e-30)
(-4.895512e-06 4.649762e-06 -2.04136e-29)
(-4.459717e-06 4.675022e-06 9.710495e-30)
(-9.736853e-07 6.020956e-07 -2.105004e-29)
(-3.807719e-07 1.49564e-07 -2.08461e-29)
(-2.271931e-06 1.537398e-06 -4.110061e-31)
(-1.720874e-06 1.194617e-06 -3.887484e-26)
(-3.511052e-06 2.409778e-06 1.116189e-29)
(-3.162917e-06 2.153031e-06 1.115315e-29)
(-4.460364e-06 3.221437e-06 0)
(-4.370058e-06 3.053845e-06 8.355604e-30)
(-5.026623e-06 3.951965e-06 -8.926031e-30)
(-5.186954e-06 3.868829e-06 -3.796541e-30)
(-5.204502e-06 4.596231e-06 -3.318828e-29)
(-5.575793e-06 4.585063e-06 -2.79867e-26)
(-5.580755e-06 5.222697e-06 8.143604e-27)
(-5.061188e-06 5.199593e-06 1.955872e-26)
(-1.124804e-06 7.437117e-07 -1.917524e-27)
(-4.468883e-07 2.294864e-07 -2.94208e-26)
(-2.609919e-06 1.809427e-06 -1.403398e-29)
(-1.985687e-06 1.421085e-06 -1.406892e-29)
(-4.01949e-06 2.795756e-06 8.348769e-30)
(-3.63644e-06 2.515751e-06 -1.610388e-29)
(-5.094317e-06 3.699665e-06 2.881492e-27)
(-5.009759e-06 3.531003e-06 4.109447e-26)
(-5.733699e-06 4.499654e-06 -2.024997e-29)
(-5.933328e-06 4.43431e-06 -1.650424e-29)
(-5.946527e-06 5.200002e-06 -3.966661e-27)
(-6.369796e-06 5.21298e-06 -4.197218e-26)
(-6.379734e-06 5.892782e-06 -4.381105e-26)
(-5.825209e-06 5.855006e-06 -1.865446e-26)
(-1.300146e-06 9.056181e-07 -1.228948e-29)
(-5.294214e-07 3.215203e-07 -1.217759e-29)
(-3.01279e-06 2.128389e-06 -1.614401e-29)
(-2.307687e-06 1.68596e-06 0)
(-4.624332e-06 3.249809e-06 1.330939e-27)
(-4.20486e-06 2.942099e-06 -4.740787e-26)
(-5.846075e-06 4.263937e-06 -8.580977e-31)
(-5.773822e-06 4.094659e-06 1.183028e-29)
(-6.566823e-06 5.145631e-06 -3.603195e-29)
(-6.822356e-06 5.105372e-06 -4.606115e-26)
(-6.800194e-06 5.901668e-06 -3.384751e-29)
(-7.311136e-06 5.959713e-06 -4.787444e-26)
(-7.311823e-06 6.688479e-06 1.517765e-30)
(-6.652742e-06 6.593981e-06 -2.627384e-29)
(-1.519231e-06 1.093239e-06 0)
(-6.365292e-07 4.28402e-07 -1.678074e-29)
(-3.502755e-06 2.502271e-06 -3.282008e-29)
(-2.701858e-06 1.99382e-06 1.772108e-29)
(-5.352501e-06 3.786238e-06 -3.269706e-29)
(-4.885448e-06 3.439763e-06 -5.564179e-26)
(-6.747084e-06 4.934284e-06 -2.899954e-29)
(-6.692252e-06 4.761692e-06 0)
(-7.563717e-06 5.917391e-06 -4.23892e-29)
(-7.890948e-06 5.905959e-06 -5.068553e-26)
(-7.820078e-06 6.743351e-06 -1.420869e-30)
(-8.4432e-06 6.856994e-06 -1.33592e-29)
(-8.436462e-06 7.651037e-06 4.543581e-26)
(-7.640392e-06 7.482039e-06 1.215969e-29)
(-1.798579e-06 1.318889e-06 -5.670125e-27)
(-7.77157e-07 5.54776e-07 -3.443694e-26)
(-4.08073e-06 2.929833e-06 3.552853e-29)
(-3.193813e-06 2.353995e-06 3.766428e-26)
(-6.230249e-06 4.419799e-06 1.768875e-29)
(-5.715263e-06 4.022907e-06 8.734998e-26)
(-7.83392e-06 5.732454e-06 -1.656208e-29)
(-7.7968e-06 5.546056e-06 4.267697e-29)
(-8.767158e-06 6.843402e-06 -1.655817e-29)
(-9.182115e-06 6.861165e-06 -3.103782e-29)
(-9.056094e-06 7.761325e-06 4.641982e-30)
(-9.812678e-06 7.937265e-06 4.499295e-30)
(-9.79857e-06 8.818076e-06 -1.074355e-31)
(-8.855466e-06 8.568657e-06 1.515267e-26)
(-2.158286e-06 1.585206e-06 4.116201e-30)
(-9.61396e-07 7.027446e-07 -1.692377e-29)
(-4.803495e-06 3.431578e-06 8.389201e-29)
(-3.816882e-06 2.778454e-06 2.251415e-29)
(-7.281521e-06 5.150065e-06 1.057778e-28)
(-6.751608e-06 4.711554e-06 3.320983e-26)
(-9.154453e-06 6.683938e-06 -5.038437e-27)
(-9.164743e-06 6.482143e-06 1.156313e-25)
(-1.022453e-05 7.95359e-06 -9.984369e-30)
(-1.075375e-05 8.000879e-06 -7.167659e-26)
(-1.055142e-05 8.99128e-06 -4.051407e-27)
(-1.147261e-05 9.235988e-06 1.380742e-29)
(-1.14458e-05 1.023216e-05 1.503832e-29)
(-1.031561e-05 9.888378e-06 1.742163e-26)
(-2.614403e-06 1.897982e-06 3.06894e-27)
(-1.201626e-06 8.761084e-07 -9.165365e-34)
(-5.739276e-06 4.042449e-06 2.815845e-29)
(-4.609641e-06 3.284e-06 -7.539454e-33)
(-8.58999e-06 6.012569e-06 -1.020094e-27)
(-8.041543e-06 5.525758e-06 5.011643e-29)
(-1.077669e-05 7.81374e-06 3.638843e-27)
(-1.083381e-05 7.581305e-06 3.000471e-29)
(-1.199892e-05 9.283144e-06 -2.089418e-29)
(-1.265684e-05 9.349179e-06 -7.481135e-29)
(-1.236259e-05 1.047413e-05 -7.129759e-27)
(-1.348066e-05 1.079395e-05 2.232374e-29)
(-1.343436e-05 1.19429e-05 1.975667e-29)
(-1.2075e-05 1.148644e-05 -1.713944e-26)
(-3.192136e-06 2.265161e-06 -3.34359e-27)
(-1.515226e-06 1.079881e-06 -5.929866e-31)
(-6.902071e-06 4.762108e-06 2.185143e-29)
(-5.610482e-06 3.88023e-06 -8.413926e-31)
(-1.023552e-05 7.059288e-06 -1.317381e-27)
(-9.658584e-06 6.497963e-06 3.730348e-26)
(-1.27318e-05 9.132222e-06 2.172964e-27)
(-1.291625e-05 8.898769e-06 3.036308e-26)
(-1.415358e-05 1.087872e-05 7.25015e-27)
(-1.500498e-05 1.096849e-05 2.875056e-29)
(-1.454899e-05 1.226265e-05 1.299865e-29)
(-1.590053e-05 1.265751e-05 1.257315e-25)
(-1.581932e-05 1.401563e-05 0)
(-1.419384e-05 1.342401e-05 -2.510355e-30)
(-3.928635e-06 2.698099e-06 0)
(-1.925491e-06 1.321214e-06 -1.185917e-30)
(-8.35914e-06 5.612011e-06 2.941555e-29)
(-6.87398e-06 4.585042e-06 1.692367e-30)
(-1.229538e-05 8.308473e-06 6.642226e-29)
(-1.166056e-05 7.645889e-06 3.321608e-29)
(-1.514919e-05 1.070245e-05 7.354856e-27)
(-1.544387e-05 1.044714e-05 3.69164e-29)
(-1.67693e-05 1.276494e-05 1.140946e-26)
(-1.787919e-05 1.290864e-05 2.070606e-26)
(-1.718366e-05 1.443736e-05 6.504483e-29)
(-1.885706e-05 1.493764e-05 5.524768e-29)
(-1.864129e-05 1.65419e-05 -2.23388e-29)
(-1.672119e-05 1.578455e-05 -2.014576e-29)
(-4.865587e-06 3.211302e-06 -7.532485e-27)
(-2.462573e-06 1.610958e-06 -2.925662e-29)
(-1.016884e-05 6.615596e-06 -5.853373e-28)
(-8.464715e-06 5.423481e-06 3.397206e-30)
(-1.479673e-05 9.777526e-06 3.794444e-30)
(-1.411526e-05 9.000792e-06 -3.211774e-29)
(-1.811996e-05 1.261093e-05 6.21476e-29)
(-1.849159e-05 1.228317e-05 0)
(-1.991105e-05 1.501651e-05 5.425406e-29)
(-2.12281e-05 1.517954e-05 5.44674e-26)
(-2.029619e-05 1.706909e-05 -6.14657e-27)
(-2.223901e-05 1.762136e-05 -4.577014e-29)
(-2.184478e-05 1.959649e-05 -1.344646e-28)
(-1.967013e-05 1.868166e-05 1.556126e-26)
(-6.056097e-06 3.826154e-06 7.875756e-27)
(-3.164483e-06 1.965084e-06 2.642405e-27)
(-1.240438e-05 7.805171e-06 -3.415083e-29)
(-1.045856e-05 6.429689e-06 -3.642542e-29)
(-1.780247e-05 1.150269e-05 -3.591821e-29)
(-1.709707e-05 1.060114e-05 -1.261998e-26)
(-2.158561e-05 1.484206e-05 4.391856e-29)
(-2.208222e-05 1.442988e-05 -8.409976e-30)
(-2.353407e-05 1.772613e-05 1.806937e-26)
(-2.507993e-05 1.78561e-05 2.531241e-29)
(-2.382312e-05 2.020458e-05 -1.438699e-25)
(-2.609432e-05 2.084897e-05 -2.893032e-27)
(-2.52926e-05 2.328924e-05 -1.642092e-28)
(-2.290179e-05 2.227963e-05 -1.406999e-27)
(-7.55829e-06 4.56974e-06 8.185979e-27)
(-4.058699e-06 2.398617e-06 -3.076032e-29)
(-1.514662e-05 9.223195e-06 -7.756811e-29)
(-1.291618e-05 7.639902e-06 -3.33973e-27)
(-2.136957e-05 1.352459e-05 -4.786706e-29)
(-2.066871e-05 1.249345e-05 3.425692e-30)
(-2.556554e-05 1.743654e-05 -8.681827e-27)
(-2.619905e-05 1.691378e-05 -4.207684e-30)
(-2.758373e-05 2.09067e-05 -1.517514e-26)
(-2.929307e-05 2.09249e-05 -7.006634e-29)
(-2.753384e-05 2.383268e-05 -7.886636e-26)
(-2.996174e-05 2.444551e-05 -3.834406e-30)
(-2.836251e-05 2.744084e-05 -5.125901e-29)
(-2.596624e-05 2.662671e-05 -1.721395e-25)
(-9.380892e-06 5.453601e-06 3.956658e-29)
(-5.254952e-06 2.977646e-06 4.475818e-29)
(-1.845233e-05 1.091829e-05 3.744212e-28)
(-1.60447e-05 9.187226e-06 4.289311e-26)
(-2.549598e-05 1.588216e-05 2.610451e-27)
(-2.486301e-05 1.474473e-05 2.948653e-28)
(-2.991973e-05 2.039807e-05 -4.720918e-29)
(-3.07008e-05 1.975177e-05 9.678051e-29)
(-3.166122e-05 2.445067e-05 -2.964229e-26)
(-3.356881e-05 2.43693e-05 -1.350572e-27)
(-3.084382e-05 2.797834e-05 -1.102765e-29)
(-3.345718e-05 2.848996e-05 3.11816e-29)
(-3.054716e-05 3.24804e-05 2.851626e-29)
(-2.804582e-05 3.174512e-05 5.686568e-30)
(-1.182532e-05 6.664472e-06 1.326496e-28)
(-6.947039e-06 3.810125e-06 9.214433e-26)
(-2.245006e-05 1.300783e-05 1.535049e-26)
(-1.997288e-05 1.117387e-05 8.574042e-29)
(-3.01063e-05 1.864291e-05 1.260079e-28)
(-2.953448e-05 1.738246e-05 3.302036e-29)
(-3.435009e-05 2.372541e-05 3.647685e-29)
(-3.519394e-05 2.290692e-05 -4.219382e-26)
(-3.53574e-05 2.840259e-05 -5.024608e-26)
(-3.737443e-05 2.814564e-05 4.990517e-29)
(-3.317051e-05 3.289011e-05 6.973987e-29)
(-3.591737e-05 3.30795e-05 1.969956e-25)
(-3.032026e-05 3.881469e-05 -1.04525e-28)
(-2.778609e-05 3.975318e-05 3.29613e-23)
(-1.500356e-05 8.272556e-06 4.275667e-29)
(-9.236135e-06 4.969736e-06 -1.810598e-29)
(-2.694448e-05 1.547359e-05 -2.020852e-30)
(-2.43001e-05 1.351665e-05 2.03561e-30)
(-3.465157e-05 2.166454e-05 2.879335e-30)
(-3.408737e-05 2.031568e-05 3.64951e-30)
(-3.825664e-05 2.738314e-05 1.101719e-28)
(-3.914878e-05 2.638132e-05 1.880959e-25)
(-3.793001e-05 3.283968e-05 2.452597e-28)
(-4.006178e-05 3.224028e-05 7.451366e-26)
(-3.307563e-05 4.235943e-05 7.717637e-30)
(-3.624868e-05 3.868533e-05 -7.167382e-24)
(-2.437873e-05 4.831072e-05 4.420876e-23)
(-2.142426e-05 6.812877e-05 3.663642e-28)
(-1.850635e-05 1.019575e-05 -7.144929e-29)
(-1.189102e-05 6.473906e-06 8.343936e-26)
(-3.133743e-05 1.828024e-05 -1.14203e-26)
(-2.828092e-05 1.615389e-05 4.018151e-30)
(-3.85035e-05 2.49416e-05 -1.30787e-28)
(-3.773598e-05 2.349539e-05 1.036902e-29)
(-4.098195e-05 3.128955e-05 -2.372464e-25)
(-4.19718e-05 3.016357e-05 -1.409976e-28)
(-3.843679e-05 4.166437e-05 -6.130932e-30)
(-4.08738e-05 3.698647e-05 8.497341e-29)
(-2.81788e-05 7.215791e-05 -3.312806e-28)
(-3.240653e-05 4.629955e-05 1.329366e-22)
(-8.208613e-06 6.432224e-05 -3.130174e-28)
(-2.952949e-06 0.0001359208 1.053889e-27)
(-2.164972e-05 1.241219e-05 -9.002005e-29)
(-1.427947e-05 8.274483e-06 -9.003231e-29)
(-3.466599e-05 2.134867e-05 6.753316e-30)
(-3.106101e-05 1.9051e-05 7.363822e-30)
(-4.114097e-05 2.861704e-05 2.635375e-26)
(-3.996939e-05 2.701297e-05 1.343322e-29)
(-4.218535e-05 3.830491e-05 -5.411022e-23)
(-4.318137e-05 3.427384e-05 1.310601e-30)
(-3.505887e-05 6.689697e-05 -3.196129e-28)
(-3.968533e-05 4.277429e-05 1.507439e-29)
(-1.479803e-05 0.0001339154 -3.872444e-28)
(-1.905981e-05 5.865234e-05 6.416744e-29)
(2.062199e-05 9.102708e-05 8.646105e-28)
(3.370421e-05 0.0002468478 -3.437771e-29)
(-2.364407e-05 1.487092e-05 7.349237e-30)
(-1.56501e-05 1.022588e-05 0)
(-3.638266e-05 2.472558e-05 -8.798881e-27)
(-3.217363e-05 2.221297e-05 8.568829e-29)
(-4.210975e-05 3.38728e-05 1.431333e-29)
(-4.036e-05 3.0742e-05 1.83934e-29)
(-4.158268e-05 5.98387e-05 1.947337e-22)
(-4.209439e-05 3.888554e-05 2.517729e-29)
(-3.01204e-05 0.0001197358 3.924965e-28)
(-3.553291e-05 5.036821e-05 6.840051e-29)
(1.309315e-05 0.0002251235 1.075282e-20)
(-9.421582e-06 7.526116e-05 4.557844e-28)
(7.512936e-05 0.0001362986 1.305925e-27)
(8.43669e-05 0.0004014576 5.80677e-28)
(-2.407774e-05 1.747635e-05 7.783458e-29)
(-1.555461e-05 1.210378e-05 -1.01808e-28)
(-3.621542e-05 2.825309e-05 4.099396e-26)
(-3.150428e-05 2.557752e-05 -2.777441e-25)
(-4.090987e-05 4.68982e-05 2.943433e-29)
(-3.881213e-05 3.478389e-05 1.478205e-29)
(-3.834606e-05 0.000102318 1.122042e-21)
(-3.639735e-05 4.467366e-05 -7.892848e-29)
(-2.1094e-05 0.0001989713 1.299048e-28)
(-2.67511e-05 6.080286e-05 -5.136165e-29)
(3.122799e-05 0.0003508161 4.794641e-21)
(7.477484e-06 0.0001002378 -1.115455e-28)
(9.374113e-05 0.0001893527 -1.316621e-27)
(0.0001568868 0.0005835843 -6.68528e-28)
(-2.292994e-05 2.012485e-05 -3.976594e-28)
(-1.397906e-05 1.365838e-05 4.385361e-25)
(-3.440557e-05 3.609026e-05 2.101592e-23)
(-2.888047e-05 2.889021e-05 7.060186e-29)
(-3.817993e-05 7.617432e-05 -9.224473e-29)
(-3.522595e-05 3.918015e-05 -2.253021e-31)
(-3.03024e-05 0.0001587411 -1.93655e-28)
(-3.289736e-05 5.114117e-05 1.789652e-22)
(-7.112392e-06 0.0002968202 -4.25806e-21)
(-4.423094e-06 7.727294e-05 -2.602841e-28)
(5.65988e-05 0.0005046038 -1.78206e-27)
(3.336089e-05 0.0001344728 7.621701e-28)
(0.0001329611 0.0002577757 1.264876e-21)
(0.0001669064 0.0008033579 -8.298322e-27)
(-2.008377e-05 2.273381e-05 -1.039504e-29)
(-1.13576e-05 1.473841e-05 -1.087457e-24)
(-3.072631e-05 5.428608e-05 9.464482e-23)
(-2.433011e-05 3.211347e-05 7.787665e-29)
(-3.336554e-05 0.0001213551 -7.587765e-22)
(-2.921563e-05 4.439696e-05 -1.051018e-28)
(-2.367482e-05 0.0002315414 -3.356685e-21)
(-2.488956e-05 6.02264e-05 -2.529377e-22)
(2.11373e-05 0.0004064099 8.402022e-28)
(-1.77419e-06 9.543393e-05 -7.489706e-28)
(0.0001061001 0.0006642682 -1.297325e-27)
(5.96701e-05 0.0001816504 -7.887892e-22)
(0.0002301045 0.0003544859 9.969605e-28)
(0.0002078269 0.001037677 -1.205427e-26)
(-1.618384e-05 2.868861e-05 1.585127e-28)
(-8.251149e-06 1.537487e-05 1.594913e-28)
(-2.527932e-05 8.231931e-05 -2.183484e-29)
(-1.838106e-05 3.53448e-05 -6.21174e-23)
(-2.610902e-05 0.0001756214 -1.23656e-21)
(-2.097538e-05 5.084699e-05 1.899684e-22)
(-1.193313e-05 0.0003191618 -4.283752e-28)
(-1.268349e-05 7.308143e-05 3.205955e-28)
(3.507126e-05 0.0005356243 -7.844593e-21)
(1.837998e-05 0.0001245077 6.227365e-22)
(0.0001309008 0.0008477849 5.103125e-27)
(9.502672e-05 0.0002439905 -9.004014e-22)
(0.0002324876 0.0004497445 -6.12339e-28)
(0.0002860859 0.001268386 5.712109e-20)
(-1.185631e-05 3.98697e-05 3.51438e-23)
(-5.204767e-06 1.557157e-05 -1.957379e-23)
(-1.852731e-05 0.000114985 -2.333407e-29)
(-1.188654e-05 3.855856e-05 8.079762e-29)
(-1.648025e-05 0.0002338786 -1.723713e-21)
(-1.078337e-05 5.907478e-05 -1.535811e-28)
(4.707099e-06 0.0004123344 -2.430269e-28)
(2.681661e-06 9.177716e-05 -5.206198e-22)