/*--------------------------------*- C++ -*----------------------------------*\
| =========                 |                                                 |
| \\      /  F ield         | OpenFOAM: The Open Source CFD Toolbox           |
|  \\    /   O peration     | Version:  2206                                  |
|   \\  /    A nd           | Website:  www.openfoam.com                      |
|    \\/     M anipulation  |                                                 |
\*---------------------------------------------------------------------------*/
FoamFile
{
    version     2.0;
    format      ascii;
    arch        "LSB;label=32;scalar=64";
    class       surfaceVectorField;
    location    "1";
    object      Ufa_0;
}
// * * * * * * * * * * * * * * * * * * * * * * * * * * * * * * * * * * * * * //

dimensions      [0 1 -1 0 0 0 0];

internalField   nonuniform List<vector> 
26037
(
(1.727918e-07 -3.412432e-05 1.32884e-24)
(-7.493608e-06 -3.101668e-05 1.908898e-28)
(-9.017278e-08 -2.309199e-05 2.671876e-26)
(-4.405584e-06 -2.371219e-05 8.785899e-28)
(-6.754803e-08 -1.614265e-05 -1.286216e-29)
(-1.793733e-06 -1.735809e-05 -1.289137e-29)
(-3.499874e-08 -1.155306e-05 -5.87852e-30)
(-8.497596e-07 -1.263481e-05 0)
(-2.034577e-08 -8.661848e-06 1.812073e-27)
(-4.633171e-07 -9.567643e-06 -5.878763e-30)
(-9.980847e-09 -6.573002e-06 -1.183773e-29)
(-2.788582e-07 -7.349166e-06 -9.101196e-30)
(-1.78306e-07 -5.583752e-06 -5.930466e-30)
(-9.834254e-10 -4.897904e-06 9.799962e-28)
(-1.221504e-05 -2.046627e-05 -4.207296e-33)
(-1.093178e-05 -1.366611e-05 -1.668082e-32)
(-6.158983e-06 -1.797263e-05 -4.247734e-33)
(-7.194666e-06 -1.560753e-05 1.388089e-31)
(-2.574223e-06 -1.383872e-05 0)
(-3.52296e-06 -1.336255e-05 5.874747e-30)
(-1.277974e-06 -1.064931e-05 -9.469129e-34)
(-1.909033e-06 -1.080923e-05 1.175097e-29)
(-7.217836e-07 -8.255202e-06 -1.368567e-33)
(-1.132882e-06 -8.646762e-06 4.064422e-30)
(-4.471546e-07 -6.360082e-06 -1.124294e-33)
(-7.224943e-07 -6.833855e-06 -4.219545e-34)
(-4.855589e-07 -5.271308e-06 -6.678791e-30)
(-2.934805e-07 -4.774083e-06 -5.946344e-30)
(-5.923334e-06 -8.76505e-06 1.272241e-31)
(-4.125527e-06 -4.786486e-06 1.299991e-26)
(-4.576026e-06 -1.096317e-05 6.012247e-30)
(-4.280331e-06 -8.55672e-06 -1.450581e-27)
(-2.852798e-06 -1.030668e-05 3.290264e-28)
(-3.088115e-06 -9.202909e-06 6.910662e-30)
(-1.763732e-06 -8.806134e-06 -8.697079e-28)
(-2.080413e-06 -8.4463e-06 1.246484e-29)
(-1.133559e-06 -7.225583e-06 5.889094e-30)
(-1.410212e-06 -7.240355e-06 8.659084e-30)
(-7.608571e-07 -5.745229e-06 -3.3778e-35)
(-9.811974e-07 -5.95985e-06 0)
(-6.999421e-07 -4.702511e-06 7.229937e-30)
(-5.281654e-07 -4.383247e-06 5.95109e-30)
(-2.482052e-06 -4.574041e-06 2.038713e-31)
(-1.374351e-06 -2.334527e-06 -2.053456e-31)
(-2.799419e-06 -6.777293e-06 1.209987e-30)
(-2.289841e-06 -4.986399e-06 -3.171722e-27)
(-2.308615e-06 -7.317208e-06 7.419754e-29)
(-2.202765e-06 -6.181154e-06 -1.231185e-27)
(-1.726338e-06 -6.871412e-06 6.320819e-31)
(-1.808217e-06 -6.299176e-06 2.787139e-28)
(-1.257814e-06 -5.974696e-06 4.72714e-33)
(-1.400875e-06 -5.784092e-06 -6.884213e-30)
(-9.202379e-07 -4.917247e-06 1.745654e-33)
(-1.068329e-06 -4.956561e-06 -2.070967e-35)
(-8.136285e-07 -3.999667e-06 5.947186e-30)
(-6.786093e-07 -3.817768e-06 -5.954356e-30)
(-1.181241e-06 -2.744544e-06 -1.140647e-28)
(-5.529001e-07 -1.434356e-06 -1.479534e-31)
(-1.693751e-06 -4.380585e-06 -1.495913e-28)
(-1.266181e-06 -3.147022e-06 -7.618107e-32)
(-1.699624e-06 -5.156337e-06 -2.144755e-31)
(-1.499193e-06 -4.226399e-06 -2.617654e-31)
(-1.481267e-06 -5.199705e-06 -3.217368e-29)
(-1.438174e-06 -4.611179e-06 -5.052072e-28)
(-1.211118e-06 -4.761037e-06 3.280717e-28)
(-1.257693e-06 -4.476658e-06 1.159252e-28)
(-9.61671e-07 -4.039061e-06 -4.906561e-28)
(-1.048023e-06 -3.983095e-06 -5.954117e-30)
(-8.507975e-07 -3.266941e-06 -2.280853e-29)
(-7.529304e-07 -3.175219e-06 5.945428e-30)
(-6.37245e-07 -1.835336e-06 3.727934e-31)
(-2.697251e-07 -1.025013e-06 0)
(-1.069706e-06 -2.984109e-06 9.400732e-29)
(-7.569859e-07 -2.142481e-06 4.17481e-31)
(-1.237388e-06 -3.682575e-06 -1.205998e-28)
(-1.039098e-06 -2.977924e-06 -6.337356e-30)
(-1.213986e-06 -3.883712e-06 4.28132e-29)
(-1.125584e-06 -3.383351e-06 -5.899876e-30)
(-1.093992e-06 -3.691501e-06 -5.228132e-30)
(-1.085581e-06 -3.394588e-06 -6.244273e-28)
(-9.370051e-07 -3.20794e-06 4.830269e-28)
(-9.795607e-07 -3.101717e-06 -5.289698e-30)
(-8.441394e-07 -2.571168e-06 -1.203576e-29)
(-7.753583e-07 -2.52911e-06 6.192459e-28)
(-3.89061e-07 -1.331173e-06 4.447012e-32)
(-1.57302e-07 -8.056359e-07 8.136463e-33)
(-7.24308e-07 -2.130157e-06 -5.88874e-30)
(-5.014261e-07 -1.550358e-06 -1.496591e-27)
(-9.265423e-07 -2.676814e-06 -6.876199e-28)
(-7.619146e-07 -2.160016e-06 -9.786987e-28)
(-9.966686e-07 -2.892586e-06 -5.15963e-30)
(-9.040966e-07 -2.498212e-06 -6.078663e-30)
(-9.708952e-07 -2.802014e-06 -7.542952e-30)
(-9.418043e-07 -2.548521e-06 1.105034e-30)
(-8.864776e-07 -2.460304e-06 7.58729e-31)
(-9.044245e-07 -2.342761e-06 1.518496e-30)
(-8.204354e-07 -1.931764e-06 7.565036e-31)
(-7.711258e-07 -1.921109e-06 -6.064749e-33)
(-2.694175e-07 -1.024249e-06 -2.706988e-33)
(-1.075254e-07 -6.725958e-07 2.951164e-27)
(-5.384317e-07 -1.579113e-06 6.550631e-33)
(-3.725924e-07 -1.174392e-06 9.907754e-32)
(-7.387961e-07 -1.980637e-06 1.760667e-32)
(-6.065863e-07 -1.609454e-06 8.045777e-31)
(-8.494871e-07 -2.154802e-06 2.12756e-31)
(-7.668023e-07 -1.859414e-06 7.659459e-31)
(-8.752668e-07 -2.089306e-06 9.723528e-31)
(-8.432499e-07 -1.892896e-06 -1.891112e-27)
(-8.383163e-07 -1.812535e-06 -4.245015e-29)
(-8.478061e-07 -1.717741e-06 1.523632e-30)
(-7.988478e-07 -1.362438e-06 7.617341e-31)
(-7.591535e-07 -1.362855e-06 -5.290986e-30)
(-2.104881e-07 -8.223011e-07 1.261206e-31)
(-8.453347e-08 -5.841989e-07 -3.072525e-27)
(-4.404113e-07 -1.204339e-06 8.962395e-31)
(-3.099117e-07 -9.189456e-07 3.533172e-27)
(-6.328119e-07 -1.485658e-06 2.887798e-29)
(-5.262762e-07 -1.221078e-06 1.552346e-27)
(-7.610239e-07 -1.597806e-06 1.73023e-30)
(-6.922937e-07 -1.385005e-06 9.287695e-31)
(-8.157143e-07 -1.521336e-06 -2.565643e-29)
(-7.893481e-07 -1.380346e-06 -2.34689e-27)
(-8.082731e-07 -1.267847e-06 7.629868e-31)
(-8.188174e-07 -1.204973e-06 7.627516e-31)
(-7.921009e-07 -8.737961e-07 0)
(-7.53128e-07 -8.621941e-07 -1.399844e-31)
(-1.837411e-07 -6.804403e-07 4.631086e-32)
(-7.48913e-08 -5.210733e-07 -2.060763e-31)
(-3.954477e-07 -9.354449e-07 3.578477e-31)
(-2.84845e-07 -7.345795e-07 2.525071e-31)
(-5.837952e-07 -1.118627e-06 2.675056e-31)
(-4.951299e-07 -9.335823e-07 4.328607e-31)
(-7.212145e-07 -1.167571e-06 1.41772e-31)
(-6.656855e-07 -1.021376e-06 -3.188175e-27)
(-7.923664e-07 -1.063996e-06 -1.982169e-32)
(-7.751052e-07 -9.721192e-07 2.834603e-27)
(-8.025582e-07 -8.111307e-07 0)
(-8.194463e-07 -7.806557e-07 0)
(-8.059298e-07 -4.544719e-07 0)
(-7.619604e-07 -4.246465e-07 1.446999e-30)
(-1.75765e-07 -5.748226e-07 0)
(-7.285267e-08 -4.731747e-07 0)
(-3.841752e-07 -7.325871e-07 3.273672e-31)
(-2.830322e-07 -5.939606e-07 -5.311332e-31)
(-5.749389e-07 -8.35377e-07 3.410111e-31)
(-4.974125e-07 -7.105724e-07 4.105319e-27)
(-7.202537e-07 -8.256374e-07 3.045775e-32)
(-6.755384e-07 -7.324852e-07 -6.545703e-31)
(-8.020829e-07 -6.887936e-07 2.061323e-32)
(-7.947865e-07 -6.38482e-07 -3.362768e-27)
(-8.227058e-07 -4.242171e-07 0)
(-8.487342e-07 -4.234684e-07 0)
(-8.424535e-07 -9.115694e-08 1.639522e-30)
(-7.898731e-07 -4.240862e-08 5.730094e-32)
(-1.798671e-07 -4.919172e-07 -5.309123e-31)
(-7.573743e-08 -4.347076e-07 0)
(-3.958833e-07 -5.719009e-07 -2.753004e-32)
(-2.969927e-07 -4.808757e-07 -4.962227e-27)
(-5.957732e-07 -6.074816e-07 -1.46247e-31)
(-5.240119e-07 -5.293065e-07 -2.53474e-31)
(-7.508133e-07 -5.447132e-07 6.210798e-29)
(-7.142325e-07 -4.938239e-07 4.271806e-27)
(-8.413135e-07 -3.731733e-07 -1.05268e-30)
(-8.437504e-07 -3.572106e-07 -1.46972e-30)
(-8.683433e-07 -9.0646e-08 1.638957e-30)
(-9.049368e-07 -1.156396e-07 3.315777e-31)
(-9.022044e-07 2.289068e-07 3.049146e-27)
(-8.386147e-07 2.951021e-07 -2.356352e-28)
(-1.925805e-07 -4.232572e-07 -1.484404e-30)
(-8.21782e-08 -4.02082e-07 -7.468269e-31)
(-4.246904e-07 -4.383135e-07 4.663958e-29)
(-3.228366e-07 -3.851442e-07 -1.484647e-30)
(-6.400151e-07 -4.161412e-07 -4.717337e-31)
(-5.697597e-07 -3.749323e-07 -1.517088e-30)
(-8.079813e-07 -3.053783e-07 -1.236058e-31)
(-7.769106e-07 -2.884309e-07 -4.790086e-31)
(-9.072243e-07 -9.969623e-08 -8.450229e-32)
(-9.186577e-07 -1.118538e-07 -4.805084e-27)
(-9.386311e-07 2.0365e-07 3.518208e-31)
(-9.864112e-07 1.572121e-07 4.037376e-27)
(-9.851201e-07 5.171568e-07 -3.561266e-27)
(-9.088861e-07 5.982237e-07 2.024634e-32)
(-2.121161e-07 -3.635372e-07 -7.46971e-31)
(-9.148697e-08 -3.729926e-07 -5.200432e-27)
(-4.674211e-07 -3.218646e-07 -7.586765e-31)
(-3.585858e-07 -3.000388e-07 0)
(-7.039509e-07 -2.483379e-07 6.347202e-29)
(-6.316978e-07 -2.37259e-07 -2.279756e-30)
(-8.884412e-07 -9.367382e-08 -1.97318e-30)
(-8.587723e-07 -1.043939e-07 1.105413e-29)
(-9.976905e-07 1.451172e-07 -6.786019e-31)
(-1.014927e-06 1.092526e-07 -6.532007e-27)
(-1.032703e-06 4.704295e-07 1.353524e-31)
(-1.091529e-06 4.066185e-07 5.123134e-31)
(-1.091102e-06 7.835414e-07 1.375586e-31)
(-1.000979e-06 8.764017e-07 -1.740065e-30)
(-2.375966e-07 -3.09032e-07 -9.592557e-31)
(-1.033569e-07 -3.45823e-07 -9.588137e-31)
(-5.223483e-07 -2.155831e-07 -1.519288e-30)
(-4.035229e-07 -2.208511e-07 -1.420992e-30)
(-7.840946e-07 -9.456017e-08 1.272259e-28)
(-7.096148e-07 -1.090021e-07 -1.519676e-30)
(-9.855459e-07 9.932087e-08 -1.620685e-27)
(-9.62739e-07 6.774407e-08 5.184598e-27)
(-1.109086e-06 3.723131e-07 1.169524e-29)
(-1.136359e-06 3.170002e-07 1.335387e-29)
(-1.149713e-06 7.195622e-07 5.145948e-31)
(-1.221381e-06 6.421244e-07 1.582585e-30)
(-1.220877e-06 1.036659e-06 4.788562e-27)
(-1.115261e-06 1.138076e-06 8.787773e-31)
(-2.688772e-07 -2.571441e-07 -1.420306e-30)
(-1.176394e-07 -3.193993e-07 0)
(-5.90288e-07 -1.144733e-07 -1.421279e-30)
(-4.572969e-07 -1.441406e-07 -8.066757e-27)
(-8.865277e-07 5.19828e-08 2.785995e-30)
(-8.029344e-07 1.516809e-08 -7.630698e-31)
(-1.11125e-06 2.823328e-07 -2.386002e-28)
(-1.088101e-06 2.336918e-07 2.012312e-30)
(-1.249032e-06 5.893549e-07 3.172325e-30)
(-1.28302e-06 5.182979e-07 1.589872e-30)
(-1.292269e-06 9.591605e-07 -3.605551e-28)
(-1.376847e-06 8.716144e-07 1.581897e-30)
(-1.375411e-06 1.28408e-06 2.30287e-30)
(-1.252982e-06 1.390835e-06 3.89845e-30)
(-3.055972e-07 -2.058546e-07 -3.473386e-30)
(-1.343421e-07 -2.928436e-07 -1.388281e-30)
(-6.694337e-07 -1.471479e-08 -4.238424e-30)
(-5.198683e-07 -6.726542e-08 -9.101138e-27)
(-1.003718e-06 1.963727e-07 1.146794e-28)
(-9.110094e-07 1.395047e-07 -2.294523e-30)
(-1.256517e-06 4.650665e-07 -7.884609e-31)
(-1.232661e-06 4.003821e-07 -1.55651e-30)
(-1.411555e-06 8.042377e-07 0)
(-1.452452e-06 7.208082e-07 0)
(-1.459675e-06 1.196541e-06 0)
(-1.557906e-06 1.101827e-06 -2.951252e-30)
(-1.555649e-06 1.53244e-06 -3.228538e-30)
(-1.414934e-06 1.641615e-06 -1.608738e-30)
(-3.48088e-07 -1.536631e-07 2.188577e-28)
(-1.536171e-07 -2.654556e-07 -8.398007e-27)
(-7.608671e-07 8.669786e-08 1.221154e-28)
(-5.91839e-07 1.187428e-08 -5.306833e-30)
(-1.139137e-06 3.429911e-07 1.343493e-28)
(-1.035255e-06 2.673912e-07 -3.838202e-30)
(-1.424681e-06 6.507621e-07 -7.929011e-31)
(-1.399076e-06 5.716907e-07 -2.350263e-30)
(-1.599657e-06 1.022516e-06 -2.98556e-30)
(-1.647369e-06 9.287566e-07 0)
(-1.65352e-06 1.437717e-06 4.813703e-28)
(-1.76624e-06 1.337905e-06 -8.608343e-27)
(-1.763088e-06 1.787341e-06 -4.858295e-30)
(-1.602607e-06 1.896518e-06 5.296911e-28)
(-3.967712e-07 -9.926978e-08 2.436407e-28)
(-1.756706e-07 -2.366237e-07 -4.09375e-30)
(-8.655702e-07 1.922652e-07 1.393787e-28)
(-6.739897e-07 9.503564e-08 -1.155755e-26)
(-1.294265e-06 4.95478e-07 3.138882e-28)
(-1.177084e-06 4.016393e-07 -5.080267e-30)
(-1.61731e-06 8.436447e-07 -1.595165e-30)
(-1.588842e-06 7.513333e-07 -1.569641e-30)
(-1.814924e-06 1.248517e-06 -1.694433e-30)
(-1.866971e-06 1.145293e-06 1.297693e-29)
(-1.875431e-06 1.687664e-06 -3.3067e-30)
(-2.000601e-06 1.58222e-06 1.477347e-29)
(-1.998856e-06 2.053161e-06 1.677504e-30)
(-1.817693e-06 2.160731e-06 6.015214e-28)
(-4.52211e-07 -4.160463e-08 -8.187181e-30)
(-2.007543e-07 -2.057999e-07 -1.061676e-26)
(-9.847578e-07 3.040601e-07 -8.600776e-30)
(-7.673752e-07 1.837539e-07 -1.295644e-26)
(-1.47068e-06 6.568628e-07 -2.776151e-30)
(-1.338457e-06 5.446273e-07 -1.234769e-26)
(-1.834526e-06 1.047674e-06 1.285929e-29)
(-1.805542e-06 9.424665e-07 -1.470505e-30)
(-2.053587e-06 1.481117e-06 -4.027289e-27)
(-2.120694e-06 1.375094e-06 1.454541e-29)
(-2.124387e-06 1.950762e-06 -1.570838e-27)
(-2.271072e-06 1.84102e-06 1.462231e-29)
(-2.267003e-06 2.333762e-06 3.633011e-30)
(-2.061477e-06 2.4384e-06 3.307755e-30)
(-5.151502e-07 2.034508e-08 -3.182442e-28)
(-2.291912e-07 -1.725298e-07 -3.093068e-30)
(-1.120234e-06 4.239147e-07 -2.008413e-28)
(-8.731804e-07 2.793809e-07 -1.458968e-26)
(-1.672365e-06 8.29608e-07 -7.233278e-30)
(-1.521142e-06 6.984635e-07 -1.405459e-26)
(-2.088314e-06 1.266043e-06 -4.583791e-28)
(-2.050893e-06 1.147493e-06 -1.335554e-26)
(-2.334698e-06 1.728021e-06 -2.200457e-31)
(-2.407772e-06 1.620112e-06 1.625697e-30)
(-2.412835e-06 2.229396e-06 -1.556271e-30)
(-2.577223e-06 2.117104e-06 -1.113072e-26)
(-2.569927e-06 2.631938e-06 1.044407e-26)
(-2.33902e-06 2.732583e-06 7.967682e-28)
(-5.863507e-07 8.737561e-08 -3.233392e-30)
(-2.614153e-07 -1.363776e-07 3.755811e-30)
(-1.273134e-06 5.534634e-07 -2.192938e-28)
(-9.927536e-07 3.832234e-07 -3.233865e-30)
(-1.898739e-06 1.015776e-06 -1.021117e-29)
(-1.727077e-06 8.651714e-07 -3.047801e-30)
(-2.368941e-06 1.500195e-06 -7.175865e-30)
(-2.326211e-06 1.36895e-06 -1.507198e-26)
(-2.646182e-06 1.998641e-06 -2.33861e-30)
(-2.72801e-06 1.885578e-06 5.463076e-30)
(-2.733594e-06 2.527109e-06 -2.314154e-30)
(-2.917571e-06 2.414462e-06 -2.388167e-30)
(-2.907672e-06 2.949146e-06 -1.307716e-26)
(-2.649616e-06 3.045079e-06 1.490329e-30)
(-6.668307e-07 1.604316e-07 3.756489e-30)
(-2.979769e-07 -9.677052e-08 1.49612e-26)
(-1.445613e-06 6.943969e-07 0)
(-1.127978e-06 4.968147e-07 0)
(-2.153497e-06 1.2177e-06 1.574444e-30)
(-1.959442e-06 1.04703e-06 0)
(-2.683863e-06 1.753011e-06 -6.202569e-28)
(-2.636027e-06 1.609629e-06 1.711048e-26)
(-2.994764e-06 2.289824e-06 5.575314e-30)
(-3.087158e-06 2.172817e-06 1.65397e-26)
(-3.090924e-06 2.844306e-06 -2.91865e-30)
(-3.294564e-06 2.732101e-06 -3.975832e-30)
(-3.279384e-06 3.283463e-06 -2.899729e-30)
(-2.99415e-06 3.376391e-06 -8.751388e-30)
(-7.580098e-07 2.406794e-07 8.72505e-30)
(-3.396577e-07 -5.303053e-08 1.666274e-26)
(-1.640581e-06 8.488413e-07 0)
(-1.281478e-06 6.221018e-07 7.725467e-31)
(-2.440778e-06 1.438235e-06 3.209717e-30)
(-2.222498e-06 1.24705e-06 6.680953e-30)
(-3.037833e-06 2.028136e-06 6.700695e-28)
(-2.986e-06 1.873326e-06 4.856818e-30)
(-3.383055e-06 2.605293e-06 3.38488e-30)
(-3.492848e-06 2.486245e-06 1.642036e-26)
(-3.4843e-06 3.175394e-06 -4.000763e-30)
(-3.725336e-06 3.077066e-06 -1.099619e-26)
(-3.70077e-06 3.643537e-06 0)
(-3.371028e-06 3.728522e-06 2.780819e-30)
(-8.618691e-07 3.295743e-07 5.817544e-30)
(-3.875206e-07 -4.26744e-09 5.04247e-30)
(-1.86201e-06 1.019621e-06 -2.927365e-28)
(-1.456637e-06 7.616354e-07 -6.279708e-30)
(-2.766386e-06 1.681327e-06 8.327535e-30)
(-2.521613e-06 1.469285e-06 2.214175e-26)
(-3.439527e-06 2.330208e-06 -8.149364e-28)
(-3.382567e-06 2.165236e-06 1.645618e-30)
(-3.83039e-06 2.950947e-06 -2.86699e-30)
(-3.95088e-06 2.831206e-06 -2.058929e-26)
(-3.938958e-06 3.534259e-06 -4.728754e-30)
(-4.207334e-06 3.453098e-06 2.524209e-30)
(-4.169462e-06 4.034927e-06 3.766462e-30)
(-3.796868e-06 4.106578e-06 -3.863644e-31)
(-9.808787e-07 4.291082e-07 -7.047368e-30)
(-4.430493e-07 5.072244e-08 -6.601917e-30)
(-2.114677e-06 1.210522e-06 -2.505595e-31)
(-1.65802e-06 9.188603e-07 -2.522739e-26)
(-3.136276e-06 1.95228e-06 6.808517e-30)
(-2.863949e-06 1.71927e-06 1.455768e-29)
(-3.892483e-06 2.665159e-06 -2.507032e-30)
(-3.834432e-06 2.492665e-06 0)
(-4.325945e-06 3.330951e-06 -1.929165e-27)
(-4.469506e-06 3.216603e-06 -6.006257e-30)
(-4.437592e-06 3.937942e-06 -2.45846e-27)
(-4.747907e-06 3.87479e-06 7.125536e-30)
(-4.692268e-06 4.471956e-06 7.622191e-30)
(-4.265367e-06 4.519101e-06 -1.39193e-31)
(-1.118602e-06 5.419293e-07 -1.472758e-29)
(-5.082335e-07 1.135169e-07 -2.203824e-26)
(-2.40554e-06 1.426738e-06 -3.825444e-31)
(-1.891675e-06 1.098236e-06 -1.735633e-29)
(-3.560393e-06 2.25864e-06 7.755561e-30)
(-3.259559e-06 2.004366e-06 2.725531e-26)
(-4.409842e-06 3.042936e-06 -3.495741e-30)
(-4.354944e-06 2.865737e-06 0)
(-4.889621e-06 3.758201e-06 2.12171e-27)
(-5.065277e-06 3.655383e-06 -3.49624e-30)
(-5.002902e-06 4.392052e-06 -2.62903e-27)
(-5.367771e-06 4.355358e-06 -7.13108e-30)
(-5.290861e-06 4.969984e-06 -2.072412e-29)
(-4.796043e-06 4.982346e-06 8.280814e-30)
(-1.279279e-06 6.712687e-07 -1.680702e-29)
(-5.857827e-07 1.8605e-07 -1.677911e-29)
(-2.743893e-06 1.674997e-06 -3.154036e-31)
(-2.165686e-06 1.305271e-06 -3.124637e-26)
(-4.052182e-06 2.610337e-06 8.921197e-30)
(-3.721563e-06 2.33364e-06 8.914208e-30)
(-5.00855e-06 3.476895e-06 0)
(-4.961434e-06 3.297171e-06 6.092164e-30)
(-5.541474e-06 4.250404e-06 -7.117758e-30)
(-5.759186e-06 4.16401e-06 -3.635852e-30)
(-5.656923e-06 4.919698e-06 -3.14744e-29)
(-6.093161e-06 4.915694e-06 -2.309534e-26)
(-6.013473e-06 5.563144e-06 7.049814e-27)
(-5.424295e-06 5.520625e-06 1.575026e-26)
(-1.469064e-06 8.210726e-07 -1.56893e-27)
(-6.772807e-07 2.702088e-07 -2.335493e-26)
(-3.141736e-06 1.963194e-06 -1.137972e-29)
(-2.486563e-06 1.544592e-06 -1.140805e-29)
(-4.628669e-06 3.019239e-06 6.08718e-30)
(-4.265609e-06 2.717218e-06 -1.319468e-29)
(-5.710027e-06 3.982852e-06 2.336904e-27)
(-5.67506e-06 3.801645e-06 3.32593e-26)
(-6.308721e-06 4.82717e-06 -1.620476e-29)
(-6.575305e-06 4.760829e-06 -1.382812e-29)
(-6.444914e-06 5.547563e-06 -3.211732e-27)
(-6.946228e-06 5.574725e-06 -3.45915e-26)
(-6.854005e-06 6.256512e-06 -3.640028e-26)
(-6.211089e-06 6.182701e-06 -1.511968e-26)
(-1.686497e-06 9.91573e-07 -9.850281e-30)
(-7.874088e-07 3.666604e-07 -9.760601e-30)
(-3.611666e-06 2.299854e-06 -1.322756e-29)
(-2.871109e-06 1.823347e-06 0)
(-5.309975e-06 3.498573e-06 1.079826e-27)
(-4.913131e-06 3.166309e-06 -3.788062e-26)
(-6.537981e-06 4.578065e-06 -9.76719e-31)
(-6.522389e-06 4.395374e-06 9.200814e-30)
(-7.210565e-06 5.506579e-06 -2.891339e-29)
(-7.543469e-06 5.466974e-06 -3.751003e-26)
(-7.353116e-06 6.279816e-06 -2.715767e-29)
(-7.955956e-06 6.357783e-06 -3.947468e-26)
(-7.837035e-06 7.08357e-06 1.252767e-30)
(-7.071441e-06 6.940812e-06 -2.086906e-29)
(-1.951895e-06 1.188305e-06 0)
(-9.253433e-07 4.782145e-07 -1.371638e-29)
(-4.17637e-06 2.692768e-06 -2.63316e-29)
(-3.334012e-06 2.145774e-06 1.396436e-29)
(-6.124115e-06 4.062596e-06 -2.62329e-29)
(-5.681955e-06 3.688035e-06 -4.408632e-26)
(-7.525239e-06 5.282638e-06 -2.331609e-29)
(-7.53479e-06 5.094968e-06 0)
(-8.28631e-06 6.316318e-06 -3.409472e-29)
(-8.702098e-06 6.306152e-06 -4.105578e-26)
(-8.437811e-06 7.158614e-06 -1.146885e-30)
(-9.16724e-06 7.296213e-06 -1.075413e-29)
(-9.023702e-06 8.084425e-06 3.797561e-26)
(-8.10329e-06 7.858342e-06 9.785391e-30)
(-2.284118e-06 1.423855e-06 -4.598062e-27)
(-1.100905e-06 6.094319e-07 -2.631254e-26)
(-4.836256e-06 3.139568e-06 2.811914e-29)
(-3.90153e-06 2.52051e-06 2.872492e-26)
(-7.098625e-06 4.725513e-06 1.406139e-29)
(-6.609994e-06 4.295751e-06 6.765736e-26)
(-8.709938e-06 6.117827e-06 -1.334269e-29)
(-8.745593e-06 5.91326e-06 3.468452e-29)
(-9.580195e-06 7.284102e-06 -1.333954e-29)
(-1.009597e-05 7.302541e-06 -2.443076e-29)
(-9.750122e-06 8.218929e-06 2.611554e-30)
(-1.062833e-05 8.421206e-06 4.198531e-30)
(-1.045918e-05 9.294388e-06 -1.792641e-30)
(-9.374787e-06 8.982113e-06 1.210191e-26)
(-2.702614e-06 1.699972e-06 3.314559e-30)
(-1.323995e-06 7.620704e-07 -1.350362e-29)
(-5.649058e-06 3.660292e-06 6.733179e-29)
(-4.608327e-06 2.958987e-06 1.825375e-29)
(-8.257641e-06 5.484589e-06 8.528596e-29)
(-7.754974e-06 5.007984e-06 2.467333e-26)
(-1.014196e-05 7.108012e-06 -3.939407e-27)
(-1.023433e-05 6.883435e-06 9.045244e-26)
(-1.114152e-05 8.438482e-06 -6.896112e-30)
(-1.178557e-05 8.484475e-06 -5.749251e-26)
(-1.133419e-05 9.494249e-06 -3.046422e-27)
(-1.239523e-05 9.76649e-06 1.28357e-29)
(-1.219353e-05 1.075376e-05 1.383285e-29)
(-1.090005e-05 1.034141e-05 1.377538e-26)
(-3.223975e-06 2.021987e-06 2.469306e-27)
(-1.60787e-06 9.397829e-07 -3.532705e-34)
(-6.68704e-06 4.289861e-06 2.336889e-29)
(-5.496337e-06 3.477812e-06 -5.258235e-33)
(-9.685619e-06 6.37421e-06 -6.657428e-28)
(-9.165923e-06 5.843856e-06 4.033905e-29)
(-1.189059e-05 8.275715e-06 2.448291e-27)
(-1.203779e-05 8.013999e-06 1.826643e-29)
(-1.303686e-05 9.81271e-06 -1.686032e-29)
(-1.382658e-05 9.873381e-06 -6.712328e-29)
(-1.325081e-05 1.10236e-05 -5.060603e-27)
(-1.453197e-05 1.137096e-05 1.80718e-29)
(-1.428991e-05 1.251035e-05 1.82083e-29)
(-1.273833e-05 1.198029e-05 -1.324338e-26)
(-3.875573e-06 2.397521e-06 -2.674531e-27)
(-1.971523e-06 1.147459e-06 -5.863468e-31)
(-7.96537e-06 5.026374e-06 1.688589e-29)
(-6.606938e-06 4.085654e-06 -8.154541e-31)
(-1.146754e-05 7.446395e-06 -1.188745e-27)
(-1.092303e-05 6.834803e-06 2.627361e-26)
(-1.399329e-05 9.627834e-06 -8.957682e-28)
(-1.427648e-05 9.35746e-06 2.118344e-26)
(-1.533765e-05 1.145135e-05 4.941997e-27)
(-1.634098e-05 1.152895e-05 2.309439e-29)
(-1.556832e-05 1.285805e-05 9.419977e-30)
(-1.711468e-05 1.327917e-05 1.006852e-25)
(-1.68174e-05 1.462836e-05 0)
(-1.495898e-05 1.395812e-05 -2.28662e-30)
(-4.697969e-06 2.837513e-06 0)
(-2.441181e-06 1.392374e-06 -1.170574e-30)
(-9.55681e-06 5.889867e-06 2.364768e-29)
(-8.000955e-06 4.800101e-06 1.633999e-30)
(-1.368662e-05 8.715596e-06 5.454623e-29)
(-1.309091e-05 7.9968e-06 2.724612e-29)
(-1.658384e-05 1.122456e-05 6.605468e-27)
(-1.6987e-05 1.092424e-05 3.082647e-29)
(-1.813738e-05 1.337505e-05 1.441635e-26)
(-1.941675e-05 1.34964e-05 1.23461e-26)
(-1.837677e-05 1.507713e-05 5.698814e-29)
(-2.028555e-05 1.559987e-05 4.802566e-29)
(-1.983947e-05 1.719714e-05 -2.019426e-29)
(-1.763026e-05 1.635714e-05 -1.652562e-29)
(-5.738866e-06 3.356765e-06 -5.905671e-27)
(-3.052949e-06 1.686381e-06 -2.332446e-29)
(-1.152867e-05 6.903615e-06 -4.623508e-28)
(-9.754825e-06 5.647566e-06 3.274861e-30)
(-1.637899e-05 1.019813e-05 3.593759e-30)
(-1.574987e-05 9.361057e-06 -2.514139e-29)
(-1.976465e-05 1.315218e-05 5.017099e-29)
(-2.02594e-05 1.277065e-05 0)
(-2.150932e-05 1.565457e-05 4.273384e-29)
(-2.301096e-05 1.578356e-05 3.770251e-26)
(-2.172539e-05 1.774689e-05 -6.866052e-27)
(-2.394136e-05 1.831353e-05 -4.519988e-29)
(-2.332992e-05 2.028307e-05 -1.234431e-28)
(-2.079675e-05 1.92853e-05 7.37578e-27)
(-7.063128e-06 3.978732e-06 6.080751e-27)
(-3.86071e-06 2.050511e-06 4.822385e-27)
(-1.396938e-05 8.101372e-06 -2.704782e-29)
(-1.196838e-05 6.66815e-06 -2.844132e-29)
(-1.962292e-05 1.192966e-05 -2.873908e-29)
(-1.899297e-05 1.096742e-05 -2.979716e-27)
(-2.349199e-05 1.539178e-05 3.643763e-29)
(-2.41332e-05 1.491772e-05 -7.78496e-30)
(-2.542488e-05 1.838159e-05 1.576024e-26)
(-2.717784e-05 1.846542e-05 1.946724e-29)
(-2.558419e-05 2.090603e-05 -1.659134e-25)
(-2.81715e-05 2.155898e-05 -5.876969e-28)
(-2.723803e-05 2.407346e-05 -1.529595e-28)
(-2.438606e-05 2.296266e-05 -2.500934e-26)
(-8.756582e-06 4.739346e-06 6.101838e-27)
(-4.964596e-06 2.532187e-06 -2.434091e-29)
(-1.698747e-05 9.531596e-06 -6.155664e-29)
(-1.475878e-05 7.919916e-06 -3.707395e-27)
(-2.349616e-05 1.395151e-05 -3.92731e-29)
(-2.291022e-05 1.286779e-05 2.696871e-30)
(-2.780807e-05 1.798355e-05 -7.699658e-27)
(-2.861552e-05 1.739629e-05 -3.909124e-30)
(-2.986459e-05 2.156888e-05 -1.578537e-26)
(-3.180546e-05 2.153701e-05 -5.939172e-29)
(-2.979111e-05 2.462277e-05 -9.396401e-26)
(-3.255436e-05 2.522003e-05 -7.243093e-30)
(-3.10461e-05 2.854753e-05 -4.894566e-29)
(-2.809413e-05 2.762478e-05 -1.732487e-25)
(-1.092724e-05 5.695079e-06 3.116815e-29)
(-6.478942e-06 3.178224e-06 3.936888e-29)
(-2.069698e-05 1.126422e-05 1.204606e-27)
(-1.835924e-05 9.527459e-06 4.710643e-26)
(-2.802771e-05 1.631184e-05 1.960496e-27)
(-2.756779e-05 1.513722e-05 -6.991888e-28)
(-3.26062e-05 2.09453e-05 -3.851053e-29)
(-3.359317e-05 2.023464e-05 7.757522e-29)
(-3.448502e-05 2.517457e-05 -3.05543e-26)
(-3.663192e-05 2.499686e-05 6.818508e-27)
(-3.386439e-05 2.906082e-05 -1.02629e-29)
(-3.681097e-05 2.946945e-05 2.48575e-29)
(-3.437885e-05 3.421844e-05 -6.616884e-29)
(-3.127272e-05 3.339598e-05 -3.164702e-30)
(-1.380786e-05 6.959857e-06 1.091893e-28)
(-8.582456e-06 4.063591e-06 6.729087e-26)
(-2.522616e-05 1.339435e-05 1.896588e-26)
(-2.285939e-05 1.155122e-05 6.766955e-29)
(-3.317494e-05 1.908853e-05 9.837032e-29)
(-3.279568e-05 1.777847e-05 2.432902e-29)
(-3.761959e-05 2.428839e-05 2.718747e-29)
(-3.86583e-05 2.33784e-05 -5.729585e-26)
(-3.894937e-05 2.928484e-05 -4.975533e-26)
(-4.115861e-05 2.884222e-05 4.019796e-29)
(-3.731674e-05 3.450281e-05 -2.94439e-29)
(-4.034206e-05 3.445513e-05 1.194134e-25)
(-3.592465e-05 4.140273e-05 -7.817284e-25)
(-3.277211e-05 4.133133e-05 -1.814965e-28)
(-1.753405e-05 8.604415e-06 3.100574e-27)
(-1.139664e-05 5.273442e-06 -1.55014e-29)
(-3.031036e-05 1.585998e-05 -2.030334e-30)
(-2.779088e-05 1.38947e-05 2.012066e-30)
(-3.831253e-05 2.208553e-05 2.615804e-30)
(-3.790663e-05 2.066241e-05 3.464703e-30)
(-4.224269e-05 2.798942e-05 9.037798e-29)
(-4.324726e-05 2.680197e-05 1.794993e-25)
(-4.254944e-05 3.402754e-05 1.435814e-28)
(-4.474396e-05 3.306734e-05 2.78291e-26)
(-3.892412e-05 4.234911e-05 -5.179483e-29)
(-4.230121e-05 4.057727e-05 8.30271e-29)
(-3.386944e-05 5.190094e-05 -1.241555e-28)
(-2.981734e-05 5.823931e-05 -1.448629e-28)
(-2.162504e-05 1.05435e-05 -6.147591e-29)
(-1.46149e-05 6.816605e-06 9.000663e-26)
(-3.527482e-05 1.861938e-05 -1.055966e-26)
(-3.230469e-05 1.648054e-05 4.003976e-30)
(-4.275345e-05 2.528658e-05 -1.069083e-28)
(-4.205366e-05 2.373937e-05 9.874131e-30)
(-4.578508e-05 3.193019e-05 -1.84889e-25)
(-4.673818e-05 3.051879e-05 -1.031367e-28)
(-4.445459e-05 4.078059e-05 2.163703e-23)
(-4.697025e-05 3.791769e-05 2.315228e-28)
(-3.696999e-05 5.838561e-05 1.079808e-29)
(-4.185835e-05 4.860619e-05 4.585673e-28)
(-2.553079e-05 6.91785e-05 -7.386959e-28)
(-1.781982e-05 9.327464e-05 7.800919e-28)
(-2.527671e-05 1.273269e-05 -7.697235e-29)
(-1.749518e-05 8.643148e-06 -7.698284e-29)
(-3.906808e-05 2.158083e-05 6.441429e-30)
(-3.549709e-05 1.928005e-05 7.315025e-30)
(-4.596406e-05 2.88695e-05 1.583961e-26)
(-4.474451e-05 2.711551e-05 1.581486e-29)
(-4.793738e-05 3.714827e-05 1.456593e-28)
(-4.876846e-05 3.455639e-05 1.406146e-29)
(-4.392693e-05 5.340415e-05 5.065464e-22)
(-4.791542e-05 4.378351e-05 2.479074e-24)
(-2.92135e-05 8.828856e-05 -3.051925e-28)
(-3.729147e-05 6.056929e-05 -1.072746e-22)
(-9.474227e-06 9.77672e-05 1.270521e-23)
(7.74594e-06 0.0001531819 8.409629e-28)
(-2.766409e-05 1.514802e-05 7.300536e-30)
(-1.91914e-05 1.061223e-05 0)
(-4.119125e-05 2.482482e-05 -9.606471e-27)
(-3.695322e-05 2.234533e-05 3.517791e-30)
(-4.752657e-05 3.315278e-05 1.624297e-29)
(-4.568027e-05 3.071578e-05 1.268783e-29)
(-4.857695e-05 4.739302e-05 5.806702e-23)
(-4.926891e-05 3.903742e-05 2.181113e-29)
(-4.167352e-05 7.62731e-05 5.416025e-28)
(-4.741881e-05 5.128635e-05 1.356869e-28)
(-1.445713e-05 0.0001331171 -8.693957e-28)
(-3.271573e-05 7.831522e-05 -2.377358e-29)
(1.763326e-05 0.000143468 -2.781906e-27)
(4.285747e-05 0.0002453427 -4.603383e-27)
(-2.836744e-05 1.771891e-05 -3.819615e-30)
(-1.921873e-05 1.25045e-05 -8.337568e-29)
(-4.144212e-05 2.82631e-05 -6.534548e-31)
(-3.659237e-05 2.564173e-05 -2.167874e-30)
(-4.724694e-05 3.996789e-05 1.819336e-29)
(-4.499764e-05 3.464891e-05 5.525108e-30)
(-4.733715e-05 6.481582e-05 3.343391e-22)
(-4.757664e-05 4.430495e-05 2.492655e-29)
(-3.683956e-05 0.000110715 -4.141191e-28)
(-4.467965e-05 6.12674e-05 -3.145898e-28)
(-8.501658e-07 0.0001968988 -1.429376e-21)
(-2.489396e-05 0.0001038529 -4.388182e-23)
(3.325086e-05 0.000204863 -2.999944e-23)
(8.305707e-05 0.0003578967 -1.03442e-26)
(-2.738144e-05 2.03468e-05 -4.855826e-27)
(-1.757428e-05 1.406697e-05 3.316509e-25)
(-4.008041e-05 3.317475e-05 3.951075e-30)
(-3.443383e-05 2.89159e-05 -4.427851e-29)
(-4.546082e-05 5.201083e-05 1.054272e-22)
(-4.289494e-05 3.890396e-05 1.803977e-30)
(-4.349694e-05 8.743579e-05 -3.431717e-28)
(-4.562296e-05 5.077054e-05 -2.078657e-29)
(-2.902945e-05 0.0001548714 -3.537637e-28)
(-3.616623e-05 7.549901e-05 2.55311e-22)
(1.500391e-05 0.0002794777 -3.958405e-28)
(-1.169689e-05 0.0001382436 2.892268e-23)
(5.532417e-05 0.0002779622 2.311825e-23)
(9.599035e-05 0.0004915137 -3.081776e-21)
(-2.459661e-05 2.271959e-05 -1.282791e-28)
(-1.474424e-05 1.512971e-05 -1.583199e-28)
(-3.694064e-05 4.132877e-05 2.824764e-23)
(-3.060707e-05 3.209861e-05 -4.284859e-24)
(-4.190424e-05 6.96775e-05 -3.040631e-29)
(-3.905712e-05 4.390242e-05 -7.173944e-29)
(-3.830942e-05 0.0001171736 -1.000185e-21)
(-4.11605e-05 5.940893e-05 -4.953113e-29)
(-1.386107e-05 0.0002068352 3.299632e-21)
(-3.128621e-05 9.47979e-05 -7.642089e-23)
(4.215992e-05 0.0003697621 -2.554801e-27)
(6.692756e-06 0.0001865793 1.053742e-27)
(0.0001030956 0.0003723087 2.525561e-21)
(0.0001220824 0.000638201 -1.303657e-26)
(-2.066166e-05 2.58854e-05 -7.175176e-29)
(-1.148702e-05 1.570094e-05 -7.3834e-25)
(-3.206836e-05 5.269954e-05 -6.698732e-29)
(-2.559526e-05 3.522617e-05 8.687919e-24)
(-3.61198e-05 9.12341e-05 -9.079922e-29)
(-3.338154e-05 5.001472e-05 -2.949686e-23)
(-2.943491e-05 0.0001548883 -2.515328e-28)
(-3.362369e-05 7.149917e-05 -2.012913e-28)
(7.023923e-07 0.0002724204 2.339086e-21)
(-1.809998e-05 0.0001229902 -2.730113e-28)
(6.891243e-05 0.0004791511 -3.399606e-21)
(3.270568e-05 0.0002512872 -3.858446e-28)
(0.0001304975 0.0004888039 -7.03259e-27)
(0.0001708038 0.0007904481 -4.772213e-27)
(-1.619916e-05 3.041238e-05 1.343451e-28)
(-8.32619e-06 1.579125e-05 2.39173e-24)
(-2.585161e-05 6.587658e-05 5.280606e-29)
(-1.994979e-05 3.823531e-05 1.431081e-23)
(-2.799048e-05 0.0001158541 -2.63362e-28)
(-2.604301e-05 5.767821e-05 -7.503906e-29)
(-1.609886e-05 0.0001994225 -2.227415e-28)