/*--------------------------------*- C++ -*----------------------------------*\
| =========                 |                                                 |
| \\      /  F ield         | OpenFOAM: The Open Source CFD Toolbox           |
|  \\    /   O peration     | Version:  2206                                  |
|   \\  /    A nd           | Website:  www.openfoam.com                      |
|    \\/     M anipulation  |                                                 |
\*---------------------------------------------------------------------------*/
FoamFile
{
    version     2.0;
    format      ascii;
    arch        "LSB;label=32;scalar=64";
    class       surfaceVectorField;
    location    "1";
    object      Ufb;
}
// * * * * * * * * * * * * * * * * * * * * * * * * * * * * * * * * * * * * * //

dimensions      [0 1 -1 0 0 0 0];

internalField   nonuniform List<vector> 
26037
(
(3.906327e-06 2.296297e-05 3.863261e-22)
(2.35753e-05 -1.408614e-06 -7.729886e-28)
(2.8547e-06 5.863878e-06 -3.439198e-24)
(1.108581e-05 1.057932e-05 9.01773e-25)
(2.744263e-06 -7.866326e-06 4.370265e-28)
(7.294142e-06 -1.377155e-06 4.380189e-28)
(2.647966e-06 -1.780379e-05 -1.513289e-28)
(5.555079e-06 -1.235882e-05 0)
(2.501987e-06 -2.556616e-05 5.300524e-24)
(5.015693e-06 -2.140522e-05 -1.546707e-28)
(2.305983e-06 -3.223321e-05 -6.501858e-28)
(4.616697e-06 -2.880806e-05 -1.026357e-26)
(4.185258e-06 -3.519618e-05 -3.787741e-28)
(2.075831e-06 -3.811475e-05 3.074369e-24)
(1.943955e-05 1.572516e-05 -8.850677e-30)
(4.164167e-05 6.940301e-07 1.177379e-27)
(1.22297e-05 4.210829e-06 -8.935744e-30)
(2.368698e-05 5.431796e-06 -8.294022e-28)
(9.598078e-06 -7.883235e-06 0)
(1.569095e-05 -3.232516e-06 -7.505993e-29)
(8.084136e-06 -1.760514e-05 -3.360892e-30)
(1.211837e-05 -1.305108e-05 1.052968e-28)
(7.274831e-06 -2.557296e-05 -4.832819e-30)
(1.044494e-05 -2.165987e-05 -7.954937e-27)
(6.587841e-06 -3.241274e-05 -4.069529e-30)
(9.340871e-06 -2.910784e-05 -1.472993e-30)
(8.354647e-06 -3.562807e-05 -2.175055e-26)
(5.876191e-06 -3.841318e-05 -4.691818e-28)
(3.341814e-05 6.291388e-06 3.525649e-28)
(3.842333e-05 6.95183e-07 3.356237e-23)
(2.285605e-05 -2.817219e-07 -9.080661e-28)
(2.933622e-05 1.225819e-07 -4.182124e-24)
(1.712606e-05 -9.199058e-06 1.058857e-24)
(2.292279e-05 -6.330678e-06 -1.525945e-27)
(1.431158e-05 -1.800351e-05 -2.48693e-24)
(1.885534e-05 -1.436986e-05 -4.837994e-28)
(1.259199e-05 -2.589976e-05 1.838859e-28)
(1.63642e-05 -2.243507e-05 1.395105e-26)
(1.123342e-05 -3.289669e-05 -2.251058e-33)
(1.452417e-05 -2.983484e-05 0)
(1.288683e-05 -3.648557e-05 2.417735e-26)
(9.934757e-06 -3.908719e-05 4.860831e-28)
(3.613895e-05 1.151357e-06 -7.289351e-28)
(3.98809e-05 -3.437142e-07 1.06067e-27)
(2.939819e-05 -3.805648e-06 -3.254408e-27)
(3.471195e-05 -3.004196e-06 -9.125729e-24)
(2.42558e-05 -1.113198e-05 2.072162e-25)
(2.97627e-05 -8.961822e-06 -3.915192e-24)
(2.080092e-05 -1.906103e-05 -5.785316e-28)
(2.573634e-05 -1.615985e-05 8.260711e-25)
(1.837626e-05 -2.678642e-05 1.648839e-29)
(2.265457e-05 -2.373461e-05 4.059971e-28)
(1.63104e-05 -3.387996e-05 6.342878e-30)
(2.014308e-05 -3.112733e-05 -3.207083e-32)
(1.781962e-05 -3.790363e-05 4.335242e-28)
(1.434385e-05 -4.025318e-05 -4.96786e-28)
(4.008657e-05 -1.494206e-06 -3.235257e-25)
(4.419183e-05 -1.252352e-06 2.228383e-31)
(3.564542e-05 -6.529756e-06 -4.024137e-25)
(4.076968e-05 -5.25187e-06 -9.948624e-28)
(3.130967e-05 -1.336192e-05 -3.319623e-27)
(3.674802e-05 -1.134499e-05 -1.771438e-27)
(2.759913e-05 -2.08107e-05 -7.111552e-26)
(3.286194e-05 -1.841545e-05 -1.751378e-24)
(2.451302e-05 -2.83113e-05 9.952012e-25)
(2.934737e-05 -2.573501e-05 3.735304e-25)
(2.180307e-05 -3.549625e-05 -1.582535e-24)
(2.616656e-05 -3.302309e-05 -3.822944e-28)
(2.316017e-05 -3.998215e-05 -5.900249e-26)
(1.913372e-05 -4.205831e-05 4.271805e-28)
(4.566685e-05 -3.398644e-06 3.311379e-30)
(4.993081e-05 -2.066426e-06 0)
(4.233722e-05 -8.992906e-06 2.507186e-25)
(4.74609e-05 -7.249946e-06 -1.298142e-27)
(3.850578e-05 -1.582586e-05 -3.333486e-25)
(4.402337e-05 -1.37908e-05 -1.380465e-27)
(3.473791e-05 -2.320374e-05 1.106545e-25)
(4.026091e-05 -2.096457e-05 -1.184707e-27)
(3.110304e-05 -3.060544e-05 -3.47044e-28)
(3.643813e-05 -2.844828e-05 -2.171294e-24)
(2.766749e-05 -3.780523e-05 1.546574e-24)
(3.265312e-05 -3.572743e-05 -3.329939e-28)
(2.890782e-05 -4.274624e-05 -9.932893e-28)
(2.432106e-05 -4.457675e-05 2.106474e-24)
(5.2296e-05 -4.968289e-06 -1.300772e-27)
(5.680777e-05 -2.785073e-06 3.073926e-27)
(4.956242e-05 -1.136034e-05 -2.675081e-27)
(5.485132e-05 -9.120795e-06 -4.910864e-24)
(4.607839e-05 -1.850081e-05 -1.709801e-24)
(5.179712e-05 -1.631987e-05 -3.517053e-24)
(4.220285e-05 -2.608983e-05 -1.216644e-27)
(4.808216e-05 -2.390387e-05 -2.427841e-28)
(3.816411e-05 -3.36626e-05 -4.134577e-26)
(4.392663e-05 -3.169455e-05 -3.37026e-27)
(3.403515e-05 -4.095694e-05 5.538081e-29)
(3.96277e-05 -3.927745e-05 1.177614e-28)
(3.514668e-05 -4.641645e-05 7.407252e-29)
(2.988271e-05 -4.785851e-05 -2.243099e-29)
(5.988045e-05 -6.351423e-06 1.583604e-27)
(6.476047e-05 -3.452383e-06 1.201918e-23)
(5.748144e-05 -1.367625e-05 -2.906338e-27)
(6.304261e-05 -1.095164e-05 1.919979e-27)
(5.413627e-05 -2.140064e-05 -1.42941e-27)
(6.015361e-05 -1.897176e-05 2.461604e-28)
(5.006468e-05 -2.946402e-05 -2.416342e-27)
(5.636735e-05 -2.723272e-05 4.384032e-29)
(4.563398e-05 -3.738233e-05 -2.335833e-27)
(5.189628e-05 -3.551308e-05 -6.760461e-24)
(4.094038e-05 -4.499e-05 -1.528334e-25)
(4.708065e-05 -4.350959e-05 1.330413e-28)
(4.191832e-05 -5.105601e-05 7.458466e-29)
(3.596887e-05 -5.208083e-05 -6.045467e-28)
(6.845961e-05 -7.670782e-06 3.409987e-27)
(7.382459e-05 -4.112144e-06 -1.275706e-23)
(6.618129e-05 -1.60576e-05 5.072133e-27)
(7.218448e-05 -1.282854e-05 1.185701e-23)
(6.282109e-05 -2.459209e-05 3.02974e-26)
(6.929786e-05 -2.185246e-05 5.300632e-24)
(5.851282e-05 -3.331185e-05 -5.547175e-27)
(6.534026e-05 -3.094271e-05 -3.45253e-27)
(5.364553e-05 -4.17573e-05 -1.04255e-25)
(6.048905e-05 -3.990889e-05 -8.30058e-24)
(4.83338e-05 -4.9822e-05 7.059883e-29)
(5.511615e-05 -4.848333e-05 7.057707e-29)
(4.923019e-05 -5.652988e-05 0)
(4.262797e-05 -5.731456e-05 9.639486e-28)
(7.81305e-05 -9.006155e-06 -9.515978e-29)
(8.408615e-05 -4.796082e-06 -3.98639e-27)
(7.583346e-05 -1.856603e-05 5.763722e-27)
(8.241826e-05 -1.481374e-05 3.893404e-27)
(7.233434e-05 -2.809112e-05 -1.568288e-27)
(7.941095e-05 -2.498962e-05 6.13447e-27)
(6.770105e-05 -3.765846e-05 -3.471988e-27)
(7.517838e-05 -3.508612e-05 -1.089682e-23)
(6.232991e-05 -4.68119e-05 -1.807158e-30)
(6.986115e-05 -4.492137e-05 9.943698e-24)
(5.634611e-05 -5.548492e-05 0)
(6.386192e-05 -5.423942e-05 0)
(5.718891e-05 -6.292753e-05 0)
(4.981956e-05 -6.350458e-05 1.340125e-27)
(8.901695e-05 -1.041618e-05 0)
(9.566797e-05 -5.529252e-06 0)
(8.660073e-05 -2.127403e-05 4.262398e-27)
(9.389738e-05 -1.696556e-05 -5.046952e-27)
(8.285549e-05 -3.195622e-05 3.535696e-28)
(9.06693e-05 -2.844574e-05 1.406559e-23)
(7.779814e-05 -4.255642e-05 -3.973998e-27)
(8.606005e-05 -3.972486e-05 4.976534e-28)
(7.183738e-05 -5.259572e-05 2.133829e-30)
(8.018004e-05 -5.061051e-05 -1.17398e-23)
(6.510376e-05 -6.203582e-05 0)
(7.346522e-05 -6.084186e-05 0)
(6.591748e-05 -7.032067e-05 3.699931e-27)
(5.767739e-05 -7.071519e-05 -1.305332e-27)
(0.0001012687 -1.194645e-05 -5.044852e-27)
(0.0001087259 -6.332127e-06 0)
(9.865322e-05 -2.424734e-05 -1.935879e-28)
(0.0001067924 -1.933631e-05 -1.694693e-23)
(9.456527e-05 -3.625634e-05 9.369137e-27)
(0.0001032573 -3.228787e-05 4.806655e-27)
(8.898198e-05 -4.807372e-05 1.80878e-25)
(9.817116e-05 -4.493022e-05 1.456114e-23)
(8.233272e-05 -5.918007e-05 -4.345448e-27)
(9.162627e-05 -5.705272e-05 -9.205578e-27)
(7.475088e-05 -6.955216e-05 3.698657e-27)
(8.408857e-05 -6.837513e-05 4.436854e-27)
(7.555798e-05 -7.880288e-05 1.091901e-23)
(6.632464e-05 -7.903519e-05 -8.102201e-25)
(0.0001150608 -1.36344e-05 -5.76488e-27)
(0.0001234437 -7.22267e-06 -6.648054e-27)
(0.0001121768 -2.754873e-05 1.544549e-25)
(0.0001212956 -2.197459e-05 -5.765823e-27)
(0.0001076535 -4.106642e-05 5.087668e-27)
(0.000117373 -3.658595e-05 -1.15191e-28)
(0.0001014425 -5.428762e-05 2.670461e-28)
(0.0001117042 -5.077927e-05 5.118852e-27)
(9.399603e-05 -6.665633e-05 -4.154849e-28)
(0.0001044005 -6.432789e-05 -1.641649e-23)
(8.544746e-05 -7.813234e-05 4.440497e-27)
(9.590793e-05 -7.694178e-05 1.422191e-23)
(8.626935e-05 -8.848754e-05 -1.271219e-23)
(7.590089e-05 -8.857374e-05 3.581383e-30)
(0.000130595 -1.551476e-05 -6.649336e-27)
(0.0001400357 -8.217607e-06 -2.233188e-23)
(0.0001273775 -3.124014e-05 -6.115683e-29)
(0.0001376243 -2.492889e-05 0)
(0.0001223154 -4.646847e-05 2.740997e-25)
(0.0001332358 -4.142538e-05 -1.996516e-28)
(0.0001153911 -6.126152e-05 -1.121864e-26)
(0.0001268573 -5.741871e-05 7.923907e-27)
(0.0001070333 -7.51316e-05 -5.983292e-27)
(0.0001187487 -7.244342e-05 -2.11091e-23)
(9.736905e-05 -8.789208e-05 5.400672e-28)
(0.0001091114 -8.664362e-05 5.053829e-27)
(9.822935e-05 -9.950492e-05 6.143125e-28)
(8.656457e-05 -9.946076e-05 -9.316267e-28)
(0.0001481024 -1.76203e-05 -7.540541e-27)
(0.0001587453 -9.331904e-06 -7.537067e-27)
(0.0001444964 -3.538669e-05 -1.383381e-28)
(0.0001560274 -2.823832e-05 -8.359942e-27)
(0.0001387747 -5.258134e-05 4.967528e-25)
(0.0001511369 -4.683837e-05 -1.383734e-28)
(0.0001311723 -6.907788e-05 -5.584497e-24)
(0.000144096 -6.480036e-05 1.958628e-23)
(0.0001217271 -8.468931e-05 -4.378883e-27)
(0.0001350303 -8.170347e-05 -4.128869e-27)
(0.0001107226 -9.895893e-05 5.128802e-27)
(0.0001239482 -9.763494e-05 3.293085e-28)
(0.0001116438 -0.0001120095 1.695831e-23)
(9.849716e-05 -0.0001118459 9.588446e-27)
(0.0001678355 -1.997883e-05 -8.355905e-27)
(0.0001798419 -1.058366e-05 0)
(0.0001637817 -4.002092e-05 -8.361628e-27)
(0.0001767562 -3.19572e-05 -2.781596e-23)
(0.0001574447 -5.935234e-05 7.862446e-27)
(0.0001712442 -5.291718e-05 -8.88883e-29)
(0.0001489578 -7.783791e-05 -9.598176e-25)
(0.0001633581 -7.302155e-05 7.747828e-27)
(0.0001381067 -9.550516e-05 6.042855e-28)
(0.0001531379 -9.220852e-05 2.743932e-28)
(0.0001257112 -0.0001115003 -1.157831e-24)
(0.0001406151 -0.0001100729 3.291654e-28)
(0.0001267261 -0.0001261741 6.201485e-27)
(0.0001118989 -0.0001259022 6.62615e-27)
(0.0001900841 -2.263437e-05 -1.892514e-26)
(0.0002036396 -1.199283e-05 -1.094075e-26)
(0.0001855014 -4.525435e-05 -1.902698e-26)
(0.0002001316 -3.614687e-05 -3.142309e-23)
(0.0001783798 -6.705658e-05 3.922154e-25)
(0.0001939148 -5.978726e-05 -2.900253e-28)
(0.0001688302 -8.784865e-05 -1.248389e-28)
(0.0001850368 -8.242616e-05 -2.617079e-28)
(0.000156568 -0.0001077253 0)
(0.0001735099 -0.0001040261 0)
(0.0001425849 -0.0001256806 0)
(0.0001593881 -0.0001241083 -8.763164e-27)
(0.0001437152 -0.0001421843 -9.612586e-28)
(0.0001269891 -0.0001418157 -4.750867e-28)
(0.0002151789 -2.562248e-05 -9.492469e-26)
(0.0002304876 -1.357794e-05 -3.63752e-23)
(0.0002099927 -5.114306e-05 3.626178e-25)
(0.0002264952 -4.086047e-05 -2.289596e-26)
(0.0002019635 -7.572436e-05 4.592277e-25)
(0.0002194773 -6.751805e-05 -5.417781e-28)
(0.0001911971 -9.913086e-05 -1.410474e-28)
(0.0002094651 -9.302541e-05 -4.522044e-28)
(0.000177374 -0.0001214856 -8.865036e-27)
(0.0001964557 -0.0001173195 0)
(0.0001616077 -0.0001416892 1.540275e-24)
(0.0001805784 -0.0001398972 -2.936003e-23)
(0.0001628696 -0.000160251 -1.502289e-27)
(0.0001440036 -0.0001597919 1.787101e-24)
(0.0002434866 -2.898315e-05 -1.191502e-25)
(0.0002607767 -1.535998e-05 -2.639307e-26)
(0.0002376139 -5.776762e-05 4.158033e-25)
(0.000256231 -4.616089e-05 -4.002819e-23)
(0.0002285524 -8.548074e-05 1.064343e-24)
(0.0002483081 -7.621898e-05 -1.356617e-26)
(0.0002163789 -0.0001118388 -3.184257e-28)
(0.000237009 -0.0001049997 -3.133306e-28)
(0.0002008625 -0.0001368986 -9.560606e-27)
(0.0002222786 -0.000132445 3.387112e-27)
(0.0001831031 -0.0001597418 -9.983978e-27)
(0.0002046058 -0.0001574325 -4.41643e-27)
(0.0001844687 -0.0001805847 6.751203e-28)
(0.0001631988 -0.0001800653 2.019341e-24)
(0.0002754171 -3.276002e-05 -4.141721e-26)
(0.0002949425 -1.736093e-05 -4.617353e-23)
(0.000268772 -6.521498e-05 -4.063712e-26)
(0.0002897684 -5.21114e-05 -4.497393e-23)
(0.0002585707 -9.647005e-05 -1.323525e-26)
(0.0002808443 -8.597885e-05 -4.314398e-23)
(0.0002447603 -0.0001262561 3.356407e-27)
(0.0002682182 -0.0001183877 -1.382257e-26)
(0.0002277156 -0.0001542143 -1.359575e-23)
(0.0002519598 -0.0001492299 3.873916e-27)
(0.0002075366 -0.0001800315 -4.720233e-24)
(0.0002321722 -0.0001774293 -6.822258e-27)
(0.0002089007 -0.0002035012 1.134606e-26)
(0.0001848789 -0.0002029016 1.216227e-27)
(0.0003114235 -3.699818e-05 9.947222e-26)
(0.0003334685 -1.960699e-05 -1.585893e-26)
(0.0003039011 -7.356351e-05 -6.189724e-25)
(0.0003275724 -5.879026e-05 -5.072075e-23)
(0.0002924304 -0.000108743 -4.357643e-26)
(0.0003174946 -9.693406e-05 -4.912159e-23)
(0.0002770876 -0.0001421508 -1.631921e-24)
(0.0003032591 -0.0001333912 -4.702476e-23)
(0.0002581372 -0.0001734934 -1.118728e-26)
(0.0002850368 -0.0001678099 5.011447e-28)
(0.0002348558 -0.0002028629 -1.461922e-27)
(0.0002627641 -0.0002000182 -3.816171e-23)
(0.0002364707 -0.000229316 3.658878e-23)
(0.0002093484 -0.0002286374 2.603112e-24)
(0.0003520157 -4.175595e-05 -1.740331e-26)
(0.0003769003 -2.212586e-05 2.023975e-26)
(0.0003434989 -8.294423e-05 -6.64415e-25)
(0.0003701866 -6.628292e-05 -1.740585e-26)
(0.0003305724 -0.000122579 -4.885433e-26)
(0.0003588263 -0.0001092394 -1.672933e-26)
(0.0003133378 -0.0001602296 -3.217898e-26)
(0.0003428084 -0.0001503089 -5.296752e-23)
(0.0002920366 -0.0001954965 -1.32179e-26)
(0.0003223194 -0.0001890468 1.759564e-26)
(0.0002657556 -0.0002285667 -1.32636e-26)
(0.0002972062 -0.0002253125 -1.3498e-26)
(0.0002676557 -0.0002582798 -4.460808e-23)
(0.0002370125 -0.0002576307 -8.953712e-27)
(0.0003977635 -4.708614e-05 2.024341e-26)
(0.0004258379 -2.494352e-05 6.552412e-23)
(0.0003881355 -9.345693e-05 0)
(0.0004182026 -7.466705e-05 0)
(0.0003735926 -0.0001380915 4.91914e-28)
(0.0004054218 -0.0001230162 0)
(0.0003542115 -0.0001805031 -2.142506e-24)
(0.0003874267 -0.0001692754 6.021478e-23)
(0.0003301855 -0.000220198 1.795714e-26)
(0.000364379 -0.0002130004 5.903646e-23)
(0.0003007233 -0.000257259 -1.406303e-26)
(0.0003360142 -0.0002541006 -1.748238e-26)
(0.000303176 -0.0002903787 -1.397187e-26)
(0.0002683525 -0.0002902565 -2.788528e-26)
(0.0004492929 -5.304221e-05 4.573356e-26)
(0.000480941 -2.808652e-05 7.32023e-23)
(0.0004384302 -0.0001052072 0)
(0.0004722715 -8.402051e-05 1.40576e-28)
(0.0004221139 -0.0001554467 1.992712e-26)
(0.0004579303 -0.000138389 2.455425e-26)
(0.0004004097 -0.0002032543 2.274043e-24)
(0.0004378004 -0.0001904343 2.056853e-26)
(0.0003732878 -0.0002482194 2.087581e-26)
(0.0004122069 -0.0002396544 6.021361e-23)
(0.0003410735 -0.0002896287 -1.759201e-26)
(0.0003811107 -0.000285949 -4.612147e-23)
(0.0003443648 -0.0003270484 0)
(0.0003041249 -0.000326976 1.38038e-26)
(0.0005072848 -5.967593e-05 2.595965e-26)
(0.0005429216 -3.157996e-05 2.580373e-26)
(0.0004950531 -0.0001182961 -8.658085e-25)
(0.0005330955 -9.442201e-05 -2.829397e-26)
(0.0004767818 -0.0001747714 2.519664e-26)
(0.000517032 -0.0001554995 7.794284e-23)
(0.0004525469 -0.0002284985 -2.637533e-24)
(0.0004945053 -0.0002140097 6.381811e-28)
(0.0004225328 -0.0002788573 -1.899902e-26)
(0.0004658507 -0.0002693308 -7.314021e-23)
(0.000387016 -0.0003253997 -2.036287e-26)
(0.0004311644 -0.0003209249 -1.554742e-26)
(0.0003899469 -0.000368423 2.478227e-27)
(0.0003441557 -0.0003681567 1.323906e-26)
(0.0005724785 -6.703683e-05 -2.84163e-26)
(0.0006125479 -3.54433e-05 -3.284213e-26)
(0.0005587425 -0.0001328377 -9.987017e-28)
(0.0006014484 -0.00010594 -8.876245e-23)
(0.0005383337 -0.0001962867 2.746482e-26)
(0.0005835209 -0.0001744783 5.839534e-26)
(0.0005112805 -0.0002567493 -2.267863e-26)
(0.0005584262 -0.0002402254 0)
(0.0004778192 -0.0003135777 -6.891281e-24)
(0.0005265105 -0.0003025251 -2.470862e-26)
(0.0004381505 -0.00036619 -1.010516e-23)
(0.0004878431 -0.0003607231 4.304493e-27)
(0.0004416666 -0.0004146275 5.261911e-27)
(0.0003897645 -0.0004147729 -4.000312e-28)
(0.0006456662 -7.515342e-05 -6.490256e-26)
(0.0006906164 -3.968699e-05 -9.839345e-23)
(0.0006303059 -0.0001489131 -1.152338e-27)
(0.000678157 -0.0001185991 -6.818413e-26)
(0.0006076058 -0.0002201048 3.095627e-26)
(0.000658227 -0.0001954078 9.645787e-23)
(0.0005775434 -0.0002880741 -2.024883e-27)
(0.0006304053 -0.0002691904 0)
(0.000540326 -0.0003521196 7.580671e-24)
(0.0005950103 -0.0003392865 -2.025173e-27)
(0.0004960576 -0.000411558 -1.098586e-23)
(0.0005520359 -0.0004051188 -2.880018e-26)
(0.0005006213 -0.0004668331 4.881097e-27)
(0.0004422669 -0.0004666303 2.285313e-26)
(0.0007276845 -8.400713e-05 -7.312194e-26)
(0.0007779564 -4.427332e-05 -7.872625e-26)
(0.0007106092 -0.0001665682 -1.230628e-27)
(0.000764115 -0.0001324 -1.099377e-22)
(0.0006854636 -0.0002463177 3.49175e-26)
(0.0007420289 -0.0002183405 3.489014e-26)
(0.000652233 -0.000322627 0)
(0.0007113502 -0.0003009921 3.547858e-26)
(0.0006111271 -0.000394797 -2.87471e-26)
(0.0006723447 -0.0003796805 -2.541408e-27)
(0.0005619674 -0.0004624035 -2.723656e-26)
(0.0006253517 -0.0004536377 -8.553275e-23)
(0.0005703592 -0.0005226446 3.709193e-23)
(0.0005053151 -0.0005245941 5.421776e-23)
(0.0008193837 -9.350402e-05 7.338695e-25)
(0.0008752743 -4.931417e-05 -1.091188e-22)
(0.0008005403 -0.0001858304 -4.090447e-26)
(0.000860268 -0.0001470129 -4.100629e-26)
(0.0007728099 -0.0002749711 3.544956e-26)
(0.0008358168 -0.0002431909 -4.501591e-26)
(0.000736226 -0.0003604716 7.595144e-24)
(0.0008021929 -0.0003357204 1.185369e-22)
(0.0006908836 -0.0004413775 -6.463382e-26)
(0.0007592142 -0.0004240665 -4.231279e-26)
(0.0006367024 -0.0005164549 -1.221589e-23)
(0.0007069092 -0.0005072746 -1.228597e-22)
(0.0006445715 -0.0005841093 -1.303475e-22)
(0.0005736136 -0.0005838444 -4.891049e-23)
(0.0009217722 -0.0001034238 -4.711703e-26)
(0.0009839561 -5.445004e-05 -4.668806e-26)
(0.0009013003 -0.0002064081 -4.512811e-26)
(0.0009677734 -0.0001627819 0)
(0.0008707277 -0.0003060374 3.309466e-24)
(0.0009407705 -0.0002698152 -1.326707e-22)
(0.0008306952 -0.0004018762 1.433718e-27)
(0.000904172 -0.000373302 4.113292e-26)
(0.0007808613 -0.000493134 -1.133929e-25)
(0.000857365 -0.0004725472 -1.336684e-22)
(0.0007207893 -0.0005788249 -1.070626e-25)
(0.0008001574 -0.0005668726 -1.395544e-22)
(0.000731543 -0.0006555134 4.572409e-27)
(0.0006497154 -0.0006577966 -8.923134e-26)
(0.001035458 -0.0001141051 0)
(0.001104023 -5.987882e-05 -5.923893e-26)
(0.001013065 -0.0002281363 -9.977815e-26)
(0.001086079 -0.0001800807 5.700976e-26)
(0.0009803008 -0.000339316 -9.940413e-26)
(0.001057823 -0.0002971641 -1.467937e-22)
(0.0009369673 -0.0004465378 -8.975351e-26)
(0.001018376 -0.0004130205 0)
(0.000882991 -0.0005493156 -1.315381e-25)
(0.0009680405 -0.0005245166 -1.466748e-22)
(0.0008177873 -0.0006469967 -4.007554e-27)
(0.0009065413 -0.0006310519 -4.169033e-26)
(0.0008331175 -0.0007321382 1.384266e-22)
(0.0007399005 -0.0007389997 3.838031e-26)
(0.00116063 -0.0001259555 1.713814e-24)
(0.001236768 -6.563978e-05 -1.311867e-22)
(0.001137349 -0.0002504421 1.124182e-25)
(0.001217727 -0.000197356 1.256963e-22)
(0.001103162 -0.0003734486 5.502437e-26)
(0.001188184 -0.0003266266 2.544108e-22)
(0.001056454 -0.0004938421 -5.073487e-26)
(0.001146674 -0.0004531827 1.212567e-25)
(0.000998446 -0.0006091719 -5.072288e-26)
(0.001092334 -0.0005791174 -1.03918e-25)
(0.000928542 -0.0007196402 3.338086e-26)
(0.001026937 -0.0006994058 4.641688e-27)
(0.000947796 -0.0008142518 2.797423e-26)
(0.0008453871 -0.000823614 2.88468e-23)
(0.001299386 -0.0001373694 -1.551292e-27)
(0.001381638 -7.129667e-05 -6.589617e-26)
(0.001274319 -0.0002735723 2.508381e-25)
(0.001361951 -0.0002138567 6.497391e-26)
(0.001239555 -0.0004080215 3.101238e-25)
(0.001332278 -0.0003557278 1.206343e-22)
(0.001191021 -0.0005425358 -1.047468e-23)
(0.001290783 -0.0004948729 3.188542e-22)
(0.001128835 -0.000672181 -4.856268e-26)
(0.001232143 -0.000635164 -1.964853e-22)
(0.001054523 -0.0007976412 -1.0863e-23)
(0.001163674 -0.0007712341 1.484048e-26)
(0.001079752 -0.0009027094 1.8582e-26)
(0.0009649548 -0.000917319 2.831616e-23)
(0.00145 -0.0001487861 -1.128419e-24)
(0.001538652 -7.686084e-05 -8.262318e-30)
(0.001425018 -0.0002959986 7.286776e-26)
(0.001518002 -0.0002305421 -2.684606e-29)
(0.001389685 -0.0004420927 -6.846998e-24)
(0.001488207 -0.0003834228 1.48835e-25)
(0.00133936 -0.0005906832 3.183721e-24)
(0.001446136 -0.0005379326 1.783558e-25)
(0.00127609 -0.0007368779 -6.244269e-26)
(0.001389192 -0.0006888794 -1.151764e-25)
(0.001198614 -0.0008793963 -1.833251e-23)
(0.00131879 -0.0008437548 6.760258e-26)
(0.001232035 -0.0009948714 2.395274e-26)
(0.001104182 -0.001017792 -2.296328e-23)
(0.001612521 -0.000159785 1.064718e-24)
(0.001707347 -8.193709e-05 -1.219997e-28)
(0.001587707 -0.000318358 7.5636e-26)
(0.00168625 -0.0002460061 -3.784752e-28)
(0.001552038 -0.0004774623 6.374358e-25)
(0.001658508 -0.0004098395 1.223857e-22)
(0.001504988 -0.0006370057 1.478827e-23)
(0.001619112 -0.000576824 1.317873e-22)
(0.001443435 -0.0007989537 1.06757e-23)
(0.001565412 -0.000743337 8.388355e-26)
(0.001363773 -0.0009622312 5.736712e-26)
(0.001496077 -0.0009117529 3.074988e-22)
(0.001406863 -0.001087303 0)
(0.001266154 -0.001121612 -3.778427e-27)
(0.001786094 -0.0001693271 0)
(0.001886133 -8.614589e-05 -2.690434e-28)
(0.001762326 -0.0003375684 8.743677e-26)
(0.001864829 -0.0002589039 8.098147e-28)
(0.001730613 -0.0005068222 1.799312e-25)
(0.001839639 -0.000431837 9.025473e-26)
(0.001686137 -0.000679744 9.599394e-24)
(0.001805665 -0.0006078351 9.221784e-26)
(0.001630407 -0.0008564134 2.520464e-23)
(0.001759264 -0.0007903619 1.164033e-22)
(0.001553592 -0.001042043 1.195749e-25)
(0.001698583 -0.0009758385 1.083579e-25)
(0.001607729 -0.001175031 -3.059988e-26)
(0.001454256 -0.001225949 -6.71699e-26)
(0.001968887 -0.0001768884 1.972591e-24)
(0.002072837 -8.912417e-05 -1.094446e-25)
(0.00194673 -0.0003531021 -5.602441e-25)
(0.002051887 -0.0002683026 1.673851e-27)
(0.00191965 -0.0005313057 2.796533e-27)
(0.002030334 -0.0004485619 -1.039148e-25)
(0.001882918 -0.0007140528 1.834598e-25)
(0.002002569 -0.0006332374 0)
(0.001834712 -0.0009036738 1.780217e-25)
(0.001964237 -0.0008261916 1.839034e-22)
(0.0017643 -0.001110436 -3.336274e-23)
(0.001913111 -0.001033692 6.294013e-27)
(0.001839043 -0.001248246 -1.768524e-25)
(0.001672394 -0.001325055 4.121253e-24)
(0.002158393 -0.0001815717 -1.658707e-24)
(0.002264281 -9.040099e-05 9.867038e-25)
(0.002138887 -0.0003632538 -1.056982e-25)
(0.002244639 -0.0002726899 -1.160698e-25)
(0.002117917 -0.0005483746 -1.067427e-25)
(0.002228265 -0.0004574364 -4.418858e-23)
(0.0020908 -0.0007410309 1.131679e-25)
(0.002209739 -0.0006483134 -8.160987e-27)
(0.002051744 -0.0009463839 3.291155e-23)
(0.002186057 -0.000850224 9.167648e-26)
(0.002002553 -0.001165493 -3.343588e-22)
(0.002151086 -0.001069816 7.207999e-23)
(0.002101855 -0.001304836 -2.140067e-25)
(0.001925393 -0.001410303 -1.297482e-24)
(0.002351159 -0.0001821531 -9.723091e-25)
(0.002456237 -8.999352e-05 -1.190148e-25)
(0.002335633 -0.0003660675 -2.338253e-25)
(0.002439434 -0.0002701401 2.285055e-23)
(0.002322463 -0.0005543206 -1.251358e-25)
(0.002429171 -0.0004558258 9.978893e-27)
(0.002307962 -0.0007519188 -2.717315e-23)
(0.002421497 -0.0006492392 -4.069686e-27)
(0.002286941 -0.000963505 -3.545383e-23)
(0.002413148 -0.0008556609 -1.58306e-25)
(0.002256632 -0.00119363 -8.924895e-23)
(0.002396998 -0.001082144 5.806538e-26)
(0.002372269 -0.001341169 -6.670549e-26)
(0.002201942 -0.001464571 -1.966324e-22)
(0.002543133 -0.0001780506 1.245773e-25)
(0.002645646 -8.702344e-05 1.39054e-25)
(0.002533212 -0.0003589284 -3.785553e-24)
(0.002631323 -0.0002618787 -2.309822e-22)
(0.002529248 -0.0005471741 9.872941e-24)
(0.00262944 -0.0004405126 -5.336663e-23)
(0.002529026 -0.0007463384 -1.32505e-25)
(0.002633817 -0.0006326356 2.78231e-25)
(0.002528553 -0.0009637764 -6.116794e-23)
(0.002644707 -0.0008397103 1.954456e-23)
(0.00251861 -0.001208726 -1.404518e-26)
(0.002657023 -0.001070285 1.117128e-25)
(0.002662053 -0.001337573 3.306182e-26)
(0.00250614 -0.001486932 5.128752e-27)
(0.002728705 -0.0001706677 4.063456e-25)
(0.002826281 -8.09368e-05 -1.754692e-22)
(0.002724648 -0.0003411351 -2.734991e-23)
(0.002814096 -0.0002457724 2.660911e-25)
(0.002733607 -0.000522209 4.03161e-25)
(0.002821675 -0.0004132081 1.280569e-25)
(0.002749007 -0.0007187072 1.258416e-25)
(0.002841379 -0.0005937907 -2.033878e-22)
(0.002771705 -0.0009338966 -6.442601e-23)
(0.002870975 -0.0007971776 1.488415e-25)
(0.002794398 -0.00117827 1.578852e-25)
(0.002911698 -0.001026707 -1.676783e-22)
(0.002951089 -0.001299293 -1.201404e-25)
(0.00280633 -0.001463753 3.411889e-22)
(0.002903413 -0.0001570836 2.579122e-24)
(0.002990836 -7.204707e-05 -8.286966e-27)
(0.002902795 -0.0003137423 -7.634375e-28)
(0.002981238 -0.0002193465 5.022484e-28)
(0.002924569 -0.0004785883 3.402648e-27)
(0.002997279 -0.0003717575 2.224764e-27)
(0.002961335 -0.000665074 3.041386e-25)
(0.003034719 -0.0005362424 5.730396e-22)
(0.003006034 -0.0008764185 5.99686e-25)
(0.003088391 -0.000727183 -5.435796e-22)
(0.003054868 -0.001120074 1.511078e-25)
(0.003153514 -0.0009616296 -4.877006e-22)
(0.003213911 -0.001255521 9.282453e-22)
(0.003092455 -0.001414543 1.249062e-25)
(0.003057501 -0.0001371567 -1.541262e-25)
(0.003131542 -5.979893e-05 3.561132e-22)
(0.003063695 -0.0002736768 9.172439e-24)
(0.003124759 -0.0001844984 1.251747e-27)
(0.003094273 -0.0004202608 -3.213959e-25)
(0.003151523 -0.0003145737 5.654797e-27)
(0.003151347 -0.0005864101 -3.291898e-22)
(0.003204262 -0.000462587 -3.283804e-25)
(0.003221764 -0.0007894386 1.247896e-25)
(0.003282305 -0.0006437397 2.780511e-25)
(0.003281879 -0.001035854 -3.241885e-25)
(0.003360108 -0.0008900754 1.60197e-21)
(0.003416055 -0.001228468 -1.640026e-25)
(0.003330216 -0.001338361 1.434449e-25)
(0.003183699 -0.0001104677 -1.61985e-25)
(0.003239752 -4.452617e-05 -1.62007e-25)
(0.003197247 -0.000222723 3.452647e-27)
(0.003238539 -0.0001412719 1.363029e-27)
(0.003243514 -0.0003461923 6.6795e-23)
(0.003276794 -0.0002463074 6.090396e-27)
(0.003310446 -0.0004954476 -3.477681e-22)
(0.003349531 -0.0003787363 -4.218154e-28)
(0.003393458 -0.0006840812 -3.53818e-25)
(0.003429515 -0.0005675674 -7.505802e-27)
(0.003461805 -0.0009404987 -3.357662e-25)
(0.003513015 -0.0008356821 -2.829624e-25)
(0.003569258 -0.001220229 1.01776e-25)
(0.003496849 -0.001278607 -1.092477e-26)
(0.003275138 -7.802765e-05 1.36033e-27)
(0.003308168 -2.691822e-05 0)
(0.003298416 -0.0001618168 2.741275e-23)
(0.003316413 -9.161542e-05 1.714918e-25)
(0.003359645 -0.0002592468 6.681653e-27)
(0.003366686 -0.0001715013 4.845955e-27)
(0.003436695 -0.0003963689 4.014983e-22)
(0.003452936 -0.0002980895 9.877227e-27)
(0.00350574 -0.0005799262 6.471442e-26)
(0.003526478 -0.0005063685 1.85089e-26)
(0.003581721 -0.0008364705 1.421847e-20)
(0.003587938 -0.0008139743 7.801494e-26)
(0.003664365 -0.0012462 1.384895e-25)
(0.003609427 -0.001210779 1.018042e-25)
(0.003325376 -4.287791e-05 1.691527e-25)
(0.003330745 -7.086311e-06 -1.690222e-25)
(0.003359109 -9.275797e-05 1.509959e-22)
(0.003352063 -3.797959e-05 -6.662024e-22)
(0.003429598 -0.0001654478 8.033525e-27)
(0.003411425 -9.794105e-05 2.622919e-27)
(0.003509066 -0.0002927519 1.642847e-21)
(0.003494861 -0.0002281422 -1.708347e-25)
(0.003571702 -0.0004792887 3.143893e-26)
(0.003568765 -0.0004600421 1.59368e-27)
(0.003621312 -0.0007504699 5.998964e-21)
(0.003622383 -0.0008079961 -1.817503e-27)
(0.003662948 -0.001304605 -1.455231e-25)
(0.003677962 -0.001170533 3.258465e-26)
(0.003329341 -2.409201e-06 5.327261e-24)
(0.00330058 1.463827e-05 7.330414e-22)
(0.003374341 -1.908045e-05 9.971034e-23)
(0.003338768 1.621423e-05 1.705478e-25)
(0.003439941 -7.48694e-05 -1.740393e-25)
(0.003400932 -3.618788e-05 5.025687e-28)
(0.003516987 -0.0001862825 -1.885865e-25)
(0.003467317 -0.0001756466 8.90087e-22)
(0.003575821 -0.0003809954 -5.115352e-21)
(0.003554347 -0.0004263256 -2.175598e-26)
(0.003617565 -0.0006707609 -1.93678e-25)
(0.003590052 -0.0008184567 1.453131e-25)
(0.0036347 -0.001361802 2.124932e-21)
(0.003627173 -0.001105669 -4.94093e-25)
(0.003277472 4.278179e-05 -2.712087e-28)
(0.003212108 3.639671e-05 -8.1466e-22)
(0.003330105 5.626362e-05 2.079843e-22)
(0.003262805 6.628786e-05 1.626848e-25)
(0.003392754 1.839698e-05 -1.031766e-21)
(0.003324354 1.735667e-05 -1.655709e-25)
(0.003456739 -8.31361e-05 -4.170548e-21)
(0.003390025 -0.0001320207 -1.119762e-21)
(0.003521458 -0.0002863504 1.626467e-25)
(0.003452694 -0.0004105448 -1.955181e-25)
(0.003571559 -0.0006163983 9.481248e-27)
(0.003493295 -0.000842472 -1.543955e-21)
(0.003590302 -0.001443607 2.023339e-27)
(0.003549507 -0.001114762 -5.487597e-25)
(0.003161072 8.900467e-05 3.223601e-25)
(0.003059028 5.479243e-05 3.093013e-25)
(0.003217549 0.0001326019 -2.595212e-27)
(0.003114355 0.0001096179 -9.42565e-22)
(0.003280138 0.0001165901 -1.580119e-21)
(0.003177115 6.643118e-05 1.069792e-21)
(0.003343553 2.281905e-05 -1.308618e-26)
(0.003247194 -9.212591e-05 3.236552e-25)
(0.003397535 -0.00018934 -9.095818e-21)
(0.003314777 -0.0003957109 1.628144e-21)
(0.003429812 -0.0005621241 4.811276e-25)
(0.003363689 -0.0008755475 -1.970786e-21)
(0.003370562 -0.001553923 -4.124279e-26)
(0.00344271 -0.001097548 6.187975e-20)
(0.002974716 0.0001314125 9.476072e-23)
(0.002837315 6.972855e-05 -9.472259e-22)
(0.003032785 0.000207391 -2.405378e-27)
(0.002891902 0.000145525 1.621802e-25)
(0.003098008 0.000215301 -2.151866e-21)
(0.002958257 0.0001105541 -1.548059e-25)
(0.003166623 0.0001281251 1.005209e-26)
(0.003034321 -5.246497e-05 -1.438873e-21)
(0.00322707 -0.0001056941 1.120353e-20)
(0.003109957 -0.0003845416 -1.542557e-25)
(0.003258054 -0.0005197206 -1.509425e-20)
(0.003167449 -0.0009049052 -1.583528e-26)
(0.003180111 -0.001616446 2.49797e-21)
(0.003238828 -0.001082885 -4.113713e-25)
(0.002712203 0.0001712472 -5.345163e-22)
(0.002534374 7.835657e-05 1.969088e-25)
(0.002773583 0.000278643 -2.605203e-21)
(0.002584293 0.0001753862 8.684291e-27)
(0.002844674 0.0003102894 1.511837e-25)
(0.002672978 0.0001625142 4.962694e-27)