/*--------------------------------*- C++ -*----------------------------------*\
| =========                 |                                                 |
| \\      /  F ield         | OpenFOAM: The Open Source CFD Toolbox           |
|  \\    /   O peration     | Version:  2206                                  |
|   \\  /    A nd           | Website:  www.openfoam.com                      |
|    \\/     M anipulation  |                                                 |
\*---------------------------------------------------------------------------*/
FoamFile
{
    version     2.0;
    format      ascii;
    arch        "LSB;label=32;scalar=64";
    class       surfaceVectorField;
    location    "1";
    object      Ufb_0;
}
// * * * * * * * * * * * * * * * * * * * * * * * * * * * * * * * * * * * * * //

dimensions      [0 1 -1 0 0 0 0];

internalField   nonuniform List<vector> 
26037
(
(3.497269e-06 2.415655e-05 3.875678e-22)
(2.26708e-05 -9.209809e-07 -7.846336e-28)
(2.521397e-06 8.025089e-06 -3.464284e-24)
(1.030198e-05 1.218629e-05 9.074775e-25)
(2.428026e-06 -4.789527e-06 4.996248e-28)
(6.542098e-06 1.145419e-06 5.007594e-28)
(2.344596e-06 -1.382019e-05 -9.704418e-29)
(4.802889e-06 -8.850526e-06 0)
(2.218968e-06 -2.071137e-05 5.103855e-24)
(4.296139e-06 -1.697449e-05 -9.995355e-29)
(2.048588e-06 -2.657031e-05 -5.117398e-28)
(3.949695e-06 -2.353052e-05 -9.503691e-27)
(3.584136e-06 -2.914286e-05 -3.045274e-28)
(1.849101e-06 -3.172286e-05 2.776611e-24)
(1.814583e-05 1.670576e-05 -8.374488e-30)
(3.967149e-05 1.166488e-06 1.118175e-27)
(1.096925e-05 6.212216e-06 -8.454978e-30)
(2.187835e-05 6.88995e-06 -7.729258e-28)
(8.360591e-06 -4.838368e-06 0)
(1.392882e-05 -7.171526e-07 -1.055447e-28)
(6.896909e-06 -1.360711e-05 -2.921869e-30)
(1.043764e-05 -9.51206e-06 1.826709e-29)
(6.161334e-06 -2.068096e-05 -4.190826e-30)
(8.851683e-06 -1.71719e-05 -5.210445e-27)
(5.570377e-06 -2.669702e-05 -3.501463e-30)
(7.866998e-06 -2.37473e-05 -1.269884e-30)
(7.025233e-06 -2.947228e-05 -1.976371e-26)
(4.972727e-06 -3.195645e-05 -3.86324e-28)
(3.102424e-05 7.269018e-06 3.496638e-28)
(3.542219e-05 1.187362e-06 3.378712e-23)
(2.054641e-05 1.761648e-06 -8.816524e-28)
(2.642258e-05 1.65609e-06 -4.292266e-24)
(1.491126e-05 -6.123731e-06 1.315871e-24)
(2.01372e-05 -3.736324e-06 -1.402725e-27)
(1.220474e-05 -1.393265e-05 -2.289684e-24)
(1.620357e-05 -1.074384e-05 -5.010445e-28)
(1.06231e-05 -2.090204e-05 1.278172e-28)
(1.38644e-05 -1.782316e-05 7.212662e-27)
(9.435023e-06 -2.704684e-05 -1.815794e-33)
(1.221473e-05 -2.431453e-05 0)
(1.080398e-05 -3.013934e-05 2.143401e-26)
(8.336081e-06 -3.247202e-05 4.006702e-28)
(3.263402e-05 2.217646e-06 -6.48848e-28)
(3.577948e-05 1.938484e-07 9.739098e-28)
(2.600296e-05 -1.678684e-06 -2.931759e-27)
(3.070204e-05 -1.365561e-06 -8.791409e-24)
(2.101568e-05 -7.942398e-06 2.181583e-25)
(2.589111e-05 -6.222236e-06 -3.393869e-24)
(1.773813e-05 -1.485185e-05 -5.097307e-28)
(2.206123e-05 -1.237145e-05 9.83943e-25)
(1.551682e-05 -2.160867e-05 1.421489e-29)
(1.92074e-05 -1.893425e-05 3.787848e-28)
(1.369943e-05 -2.781228e-05 5.39869e-30)
(1.69604e-05 -2.536727e-05 -2.734491e-32)
(1.49489e-05 -3.127579e-05 3.523946e-28)
(1.202182e-05 -3.338621e-05 -4.097593e-28)
(3.544926e-05 -3.622087e-07 -3.252492e-25)
(3.892413e-05 -6.671421e-07 4.387309e-31)
(3.112976e-05 -4.27448e-06 -4.052316e-25)
(3.559904e-05 -3.494995e-06 -8.829244e-28)
(2.697985e-05 -9.991499e-06 -2.899678e-27)
(3.173749e-05 -8.432544e-06 -1.55498e-27)
(2.351801e-05 -1.638235e-05 -1.029596e-25)
(2.809456e-05 -1.438572e-05 -1.386198e-24)
(2.072048e-05 -2.287821e-05 6.948597e-25)
(2.488785e-05 -2.0654e-05 1.573747e-25)
(1.833766e-05 -2.912294e-05 -1.292238e-24)
(2.206097e-05 -2.694557e-05 -3.069494e-28)
(1.945543e-05 -3.297784e-05 -4.95288e-26)
(1.605022e-05 -3.483972e-05 3.469953e-28)
(3.982444e-05 -2.193689e-06 1.913319e-30)
(4.341983e-05 -1.432787e-06 0)
(3.663149e-05 -6.577584e-06 2.552254e-25)
(4.103974e-05 -5.358113e-06 -1.126627e-27)
(3.302426e-05 -1.22251e-05 -3.515894e-25)
(3.780112e-05 -1.066186e-05 -1.173579e-27)
(2.95605e-05 -1.847528e-05 1.379856e-25)
(3.432909e-05 -1.664326e-05 -1.003056e-27)
(2.63038e-05 -2.482247e-05 -2.794093e-28)
(3.088418e-05 -2.298952e-05 -1.740564e-24)
(2.329626e-05 -3.103649e-05 1.200232e-24)
(2.754901e-05 -2.922355e-05 -2.668413e-28)
(2.431067e-05 -3.5271e-05 -8.132925e-28)
(2.042571e-05 -3.690423e-05 1.747847e-24)
(4.515517e-05 -3.653186e-06 -1.127949e-27)
(4.89385e-05 -2.099823e-06 2.649779e-27)
(4.258125e-05 -8.747294e-06 -2.297604e-27)
(4.708776e-05 -7.071425e-06 -4.30618e-24)
(3.935957e-05 -1.461975e-05 -1.895079e-24)
(4.426218e-05 -1.293106e-05 -2.994417e-24)
(3.584854e-05 -2.099094e-05 -1.025382e-27)
(4.089087e-05 -1.922355e-05 -1.888433e-28)
(3.226828e-05 -2.742847e-05 -7.843167e-27)
(3.719306e-05 -2.57817e-05 -2.883096e-27)
(2.867504e-05 -3.367867e-05 4.499295e-29)
(3.343257e-05 -3.222852e-05 9.610518e-29)
(2.95743e-05 -3.834087e-05 6.123208e-29)
(2.511763e-05 -3.962497e-05 -1.903327e-29)
(5.132964e-05 -4.919863e-06 1.366685e-27)
(5.541119e-05 -2.704622e-06 1.052073e-23)
(4.911249e-05 -1.083455e-05 -2.499348e-27)
(5.381937e-05 -8.714205e-06 1.637413e-27)
(4.607582e-05 -1.718574e-05 -1.227754e-27)
(5.119526e-05 -1.527564e-05 2.036395e-28)
(4.244345e-05 -2.391724e-05 -2.063674e-27)
(4.781302e-05 -2.211995e-05 3.562049e-29)
(3.855393e-05 -3.06015e-05 -1.997083e-27)
(4.387994e-05 -2.90568e-05 -5.522824e-24)
(3.449313e-05 -3.707639e-05 -1.095269e-25)
(3.96997e-05 -3.581507e-05 1.093929e-28)
(3.527258e-05 -4.223736e-05 6.165544e-29)
(3.024527e-05 -4.314977e-05 -5.036731e-28)
(5.836754e-05 -6.102435e-06 2.920229e-27)
(6.285258e-05 -3.289575e-06 -1.099058e-23)
(5.630057e-05 -1.294248e-05 4.340104e-27)
(6.135875e-05 -1.036769e-05 1.012683e-23)
(5.329985e-05 -1.997336e-05 5.870423e-26)
(5.877938e-05 -1.778862e-05 4.46699e-24)
(4.95059e-05 -2.723323e-05 -4.729455e-27)
(5.529156e-05 -2.532185e-05 -2.940942e-27)
(4.527224e-05 -3.432849e-05 -6.254285e-26)
(5.106719e-05 -3.281246e-05 -6.842173e-24)
(4.070312e-05 -4.115411e-05 5.823046e-29)
(4.64356e-05 -4.002774e-05 5.821251e-29)
(4.140873e-05 -4.684099e-05 0)
(3.584257e-05 -4.753477e-05 8.178133e-28)
(6.634237e-05 -7.276715e-06 -8.234053e-29)
(7.132341e-05 -3.886147e-06 -3.401229e-27)
(6.428958e-05 -1.513098e-05 4.914559e-27)
(6.982401e-05 -1.209251e-05 3.320743e-27)
(6.120663e-05 -2.299842e-05 -1.333558e-27)
(6.717082e-05 -2.049707e-05 5.217546e-27)
(5.717014e-05 -3.09571e-05 -2.955761e-27)
(6.348134e-05 -2.887322e-05 -9.103019e-24)
(5.253482e-05 -3.862383e-05 -1.493802e-30)
(5.888942e-05 -3.707867e-05 8.244569e-24)
(4.741435e-05 -4.593314e-05 0)
(5.374843e-05 -4.489637e-05 0)
(4.807079e-05 -5.222362e-05 0)
(4.187123e-05 -5.272934e-05 1.133411e-27)
(7.535214e-05 -8.499441e-06 0)
(8.091924e-05 -4.518469e-06 0)
(7.321689e-05 -1.746695e-05 3.622249e-27)
(7.934149e-05 -1.394345e-05 -4.280962e-27)
(6.995103e-05 -2.63135e-05 3.025781e-28)
(7.652084e-05 -2.345731e-05 1.183069e-23)
(6.558205e-05 -3.513234e-05 -3.375085e-27)
(7.253589e-05 -3.282715e-05 4.162142e-28)
(6.047039e-05 -4.352614e-05 1.772596e-30)
(6.749054e-05 -4.190457e-05 -9.772525e-24)
(5.473358e-05 -5.145759e-05 0)
(6.176376e-05 -5.047207e-05 0)
(5.536243e-05 -5.844241e-05 3.128114e-27)
(4.844336e-05 -5.878399e-05 -1.105215e-27)
(8.551811e-05 -9.812879e-06 -4.279181e-27)
(9.176493e-05 -5.20551e-06 0)
(8.322514e-05 -2.001163e-05 -1.656432e-28)
(9.005321e-05 -1.596818e-05 -1.427659e-23)
(7.968722e-05 -2.997955e-05 7.944039e-27)
(8.698487e-05 -2.672913e-05 4.076528e-27)
(7.489412e-05 -3.98165e-05 1.34339e-25)
(8.261381e-05 -3.724531e-05 1.219221e-23)
(6.921991e-05 -4.909388e-05 -3.679456e-27)
(7.702499e-05 -4.735423e-05 -7.790191e-27)
(6.278335e-05 -5.779012e-05 3.127038e-27)
(7.062032e-05 -5.682433e-05 3.751048e-27)
(6.34043e-05 -6.557392e-05 9.061253e-24)
(5.566278e-05 -6.577084e-05 -6.609337e-25)
(9.698399e-05 -1.125273e-05 -4.880156e-27)
(0.0001040115 -5.963298e-06 -5.620069e-27)
(9.446948e-05 -2.282128e-05 1.256157e-25)
(0.0001021179 -1.821015e-05 -4.880954e-27)
(9.057556e-05 -3.406225e-05 4.305988e-27)
(9.872897e-05 -3.037409e-05 -9.609229e-29)
(8.526804e-05 -4.507552e-05 2.279717e-28)
(9.387817e-05 -4.219417e-05 4.332501e-27)
(7.893695e-05 -5.540338e-05 -3.530966e-28)
(8.766342e-05 -5.349518e-05 -1.371582e-23)
(7.169983e-05 -6.501191e-05 3.754101e-27)
(8.046786e-05 -6.403864e-05 1.185782e-23)
(7.233148e-05 -7.371197e-05 -1.058326e-23)
(6.364789e-05 -7.377966e-05 3.001949e-30)
(0.0001099164 -1.284945e-05 -5.621153e-27)
(0.0001178358 -6.806721e-06 -1.875479e-23)
(0.0001071214 -2.595048e-05 -5.108998e-29)
(0.0001157163 -2.071199e-05 0)
(0.0001027801 -3.863269e-05 2.205205e-25)
(0.0001119368 -3.446613e-05 -1.670473e-28)
(9.688237e-05 -5.096389e-05 -9.476482e-27)
(0.0001064954 -4.779875e-05 6.680752e-27)
(8.979604e-05 -6.254471e-05 -5.05596e-27)
(9.961361e-05 -6.033446e-05 -1.766976e-23)
(8.163216e-05 -7.321932e-05 4.571812e-28)
(9.146591e-05 -7.220003e-05 4.267908e-27)
(8.229493e-05 -8.296486e-05 5.148089e-28)
(7.253328e-05 -8.291824e-05 -7.856845e-28)
(0.0001245069 -1.463181e-05 -6.366833e-27)
(0.0001334398 -7.748822e-06 -6.363899e-27)
(0.0001213824 -2.945594e-05 -1.158263e-28)
(0.0001310555 -2.350766e-05 -7.051745e-27)
(0.0001164893 -4.379303e-05 4.031316e-25)
(0.0001268524 -3.90334e-05 -1.158558e-28)
(0.0001100286 -5.755308e-05 -4.533648e-24)
(0.0001208571 -5.401937e-05 1.640486e-23)
(0.0001020361 -7.058791e-05 -3.706024e-27)
(0.0001131785 -6.812737e-05 -3.496341e-27)
(9.275587e-05 -8.251856e-05 4.32615e-27)
(0.0001038253 -8.143739e-05 2.765655e-28)
(9.346924e-05 -9.346126e-05 1.418352e-23)
(8.247308e-05 -9.33109e-05 8.087292e-27)
(0.0001409653 -1.662351e-05 -7.048339e-27)
(0.0001510467 -8.804977e-06 0)
(0.0001374591 -3.336534e-05 -7.053167e-27)
(0.0001483445 -2.664327e-05 -2.329102e-23)
(0.0001320473 -4.949859e-05 6.62963e-27)
(0.0001436151 -4.415373e-05 -7.464225e-29)
(0.0001248484 -6.492639e-05 -7.893165e-25)
(0.0001369103 -6.093742e-05 6.53339e-27)
(0.0001156827 -7.967968e-05 5.073766e-28)
(0.000128268 -7.695774e-05 2.303195e-28)
(0.0001052429 -9.304941e-05 -9.541411e-25)
(0.0001177126 -9.188219e-05 2.764453e-28)
(0.0001060352 -0.0001053453 5.226044e-27)
(9.363712e-05 -0.0001051018 5.583163e-27)
(0.0001595326 -1.886271e-05 -1.595103e-26)
(0.0001709183 -9.992077e-06 -9.215518e-27)
(0.0001555745 -3.777333e-05 -1.603658e-26)
(0.00016785 -3.01707e-05 -2.628985e-23)
(0.0001495013 -5.598108e-05 3.258296e-25)
(0.0001625227 -4.993293e-05 -2.436997e-28)
(0.0001414125 -7.334195e-05 -1.048532e-28)
(0.0001549842 -6.884184e-05 -2.199033e-28)
(0.0001310685 -8.994309e-05 0)
(0.0001452497 -8.688204e-05 0)
(0.0001193044 -0.0001049492 0)
(0.0001333597 -0.00010366 -7.378163e-27)
(0.0001201948 -0.0001187713 -8.085675e-28)
(0.0001062114 -0.000118446 -3.996589e-28)
(0.0001804839 -2.137872e-05 -7.376968e-26)
(0.0001933448 -1.132582e-05 -3.040189e-23)
(0.0001760095 -4.272707e-05 3.10142e-25)
(0.0001898566 -3.413463e-05 -1.927952e-26)
(0.0001691702 -6.326625e-05 3.835723e-25)
(0.0001838492 -5.642913e-05 -4.555614e-28)
(0.0001600618 -8.28168e-05 -1.18561e-28)
(0.0001753569 -7.774156e-05 -3.802623e-28)
(0.0001484142 -0.0001014905 -7.463934e-27)
(0.0001643827 -9.803594e-05 0)
(0.0001351628 -0.000118375 1.278935e-24)
(0.0001510284 -0.0001169002 -2.458937e-23)
(0.0001361661 -0.0001339141 -1.26378e-27)
(0.0001203957 -0.0001335139 1.491438e-24)
(0.0002041241 -2.420523e-05 -9.497512e-26)
(0.0002186511 -1.282369e-05 -2.221333e-26)
(0.0001990624 -4.829389e-05 3.563868e-25)
(0.0002146836 -3.858748e-05 -3.342976e-23)
(0.0001913516 -7.145838e-05 8.925356e-25)
(0.0002079079 -6.37335e-05 -1.141465e-26)
(0.0001810635 -9.347951e-05 -2.678136e-28)
(0.0001983333 -8.778733e-05 -2.635283e-28)
(0.0001680023 -0.0001144148 -8.046579e-27)
(0.0001859196 -0.0001107178 2.849778e-27)
(0.0001530897 -0.000133506 -8.402765e-27)
(0.0001710704 -0.0001315951 -3.718205e-27)
(0.0001541836 -0.0001509472 5.681919e-28)
(0.0001364065 -0.0001504993 1.686569e-24)
(0.0002307941 -2.737858e-05 -3.485031e-26)
(0.0002471993 -1.450389e-05 -3.851447e-23)
(0.0002250719 -5.454606e-05 -3.419345e-26)
(0.000242688 -4.358158e-05 -3.752341e-23)
(0.0002163993 -8.06776e-05 -1.113632e-26)
(0.0002350628 -7.191916e-05 -3.601053e-23)
(0.0002047394 -0.0001055678 2.823945e-27)
(0.0002243733 -9.900924e-05 -1.162558e-26)
(0.000190405 -0.0001289258 -1.132439e-23)
(0.0002106814 -0.0001247797 3.259425e-27)
(0.0001734754 -0.0001505009 -3.939198e-24)
(0.000194072 -0.0001483406 -5.736754e-27)
(0.0001745726 -0.0001701316 9.543954e-27)
(0.0001544993 -0.0001696209 1.023469e-27)
(0.00026087 -3.093601e-05 8.021749e-26)
(0.0002793906 -1.638806e-05 -1.333891e-26)
(0.0002543984 -6.154801e-05 -5.301938e-25)
(0.0002742555 -4.918158e-05 -4.227689e-23)
(0.0002446553 -9.096386e-05 -3.665099e-26)
(0.0002656526 -8.109878e-05 -4.096597e-23)
(0.000231711 -0.0001188819 -1.367314e-24)
(0.0002536121 -0.000111574 -3.924465e-23)
(0.0002157886 -0.0001450674 -9.409563e-27)
(0.0002382794 -0.0001403325 4.21711e-28)
(0.0001962746 -0.0001696103 -1.229479e-27)
(0.000219603 -0.0001672433 -3.191479e-23)
(0.0001975894 -0.0001917293 3.065648e-23)
(0.0001749286 -0.0001911572 2.177845e-24)
(0.0002947748 -3.492569e-05 -1.463242e-26)
(0.0003156772 -1.849895e-05 1.701118e-26)
(0.0002874548 -6.940826e-05 -5.699083e-25)
(0.0003098368 -5.545779e-05 -1.463456e-26)
(0.0002764857 -0.0001025499 -4.107656e-26)
(0.0003001485 -9.140024e-05 -1.40657e-26)
(0.0002619587 -0.0001340134 -2.705625e-26)
(0.0002866135 -0.0001257299 -4.418566e-23)
(0.0002440784 -0.0001634774 -1.111528e-26)
(0.0002693897 -0.0001580963 1.479217e-26)
(0.00022207 -0.0001911118 -1.115369e-26)
(0.0002483521 -0.0001883964 -1.135082e-26)
(0.0002236327 -0.0002159494 -3.739003e-23)
(0.0001980339 -0.0002154076 -7.531075e-27)
(0.0003329806 -3.939082e-05 1.701425e-26)
(0.0003565559 -2.085765e-05 5.446468e-23)
(0.0003247141 -7.820842e-05 0)
(0.000349922 -6.247328e-05 0)
(0.0003123859 -0.0001155283 4.140215e-28)
(0.0003390336 -0.000102922 0)
(0.0002960658 -0.0001509685 -1.797482e-24)
(0.0003238444 -0.0001415861 5.021515e-23)
(0.0002759177 -0.0001841304 1.509607e-26)
(0.0003044893 -0.000178118 4.933736e-23)
(0.0002512688 -0.0002150985 -1.182626e-26)
(0.0002807504 -0.0002124576 -1.469676e-26)
(0.0002533087 -0.0002427789 -1.17496e-26)
(0.000224219 -0.0002426855 -2.34537e-26)
(0.0003760049 -4.437451e-05 3.842508e-26)
(0.000402571 -2.348531e-05 6.074991e-23)
(0.0003666892 -8.80337e-05 0)
(0.000395049 -7.029011e-05 1.183263e-28)
(0.0003528736 -0.0001300335 1.67451e-26)
(0.0003828461 -0.0001157635 2.06266e-26)
(0.0003346184 -0.0001699793 1.907144e-24)
(0.0003658764 -0.0001592563 1.728474e-26)
(0.0003118974 -0.0002075452 1.754162e-26)
(0.0003444094 -0.0002003764 5.027915e-23)
(0.0002849732 -0.0002421474 -1.478891e-26)
(0.0003184076 -0.0002390561 -3.863085e-23)
(0.0002877332 -0.000273413 0)
(0.000254122 -0.0002733761 1.161146e-26)
(0.0004244089 -4.991753e-05 2.180384e-26)
(0.0004543081 -2.64013e-05 2.167262e-26)
(0.0004139333 -9.896377e-05 -7.42797e-25)
(0.0004457958 -7.896953e-05 -2.375722e-26)
(0.0003984836 -0.0001461649 2.116706e-26)
(0.0004321475 -0.0001300362 6.474769e-23)
(0.0003781274 -0.000191049 -2.209657e-24)
(0.0004131861 -0.0001789191 5.369268e-28)
(0.0003530126 -0.0002331188 -1.596962e-26)
(0.0003891865 -0.0002251306 -6.109092e-23)
(0.0003233602 -0.0002720123 -1.711654e-26)
(0.0003602179 -0.0002682399 -1.30676e-26)
(0.0003258534 -0.0003079585 2.083979e-27)
(0.0002876042 -0.0003077777 1.11376e-26)
(0.0004787993 -5.605752e-05 -2.386022e-26)
(0.0005123948 -2.961949e-05 -2.756319e-26)
(0.0004670542 -0.0001110869 -8.353514e-28)
(0.0005027966 -8.856182e-05 -7.343607e-23)
(0.0004498261 -0.0001640979 2.306453e-26)
(0.000487592 -0.0001458385 4.903166e-26)
(0.0004271404 -0.0002145979 -1.905369e-26)
(0.0004665085 -0.0002007489 0)
(0.0003991835 -0.0002620706 -5.747104e-24)
(0.0004398252 -0.0002527825 -2.075988e-26)
(0.0003661099 -0.0003060471 -8.409392e-24)
(0.0004075823 -0.0003014157 3.619439e-27)
(0.0003691375 -0.0003465114 4.424039e-27)
(0.0003257873 -0.0003467074 -3.367426e-28)
(0.0005398214 -6.281256e-05 -5.447354e-26)
(0.000577476 -3.314504e-05 -8.098984e-23)
(0.0005267132 -0.0001244601 -9.620471e-28)
(0.0005667238 -9.907731e-05 -5.721904e-26)
(0.0005075913 -0.0001839114 2.598876e-26)
(0.0005498593 -0.0001632232 7.982887e-23)
(0.0004824351 -0.0002406651 -1.70191e-27)
(0.0005265407 -0.0002248161 0)
(0.0004513995 -0.000294166 6.305156e-24)
(0.0004970168 -0.0002833507 -1.702154e-27)
(0.0004145518 -0.0003438636 -9.126097e-24)
(0.0004612545 -0.0003383742 -2.421008e-26)
(0.0004185202 -0.0003900336 4.130322e-27)
(0.0003697894 -0.0003899866 1.923264e-26)
(0.0006081504 -7.015883e-05 -6.134602e-26)
(0.0006502145 -3.694123e-05 -6.60241e-26)
(0.0005936137 -0.0001391054 -1.024345e-27)
(0.0006382972 -0.0001105018 -9.034461e-23)
(0.000572489 -0.0002056595 2.930484e-26)
(0.0006196624 -0.0001822105 2.928188e-26)
(0.0005447579 -0.0002693518 0)
(0.000594029 -0.0002511628 2.978172e-26)
(0.0005105678 -0.0003296387 -2.416545e-26)
(0.0005615933 -0.0003168529 -2.132902e-27)
(0.0004697341 -0.0003861939 -2.286894e-26)
(0.0005225986 -0.0003786775 -7.20747e-23)
(0.000476993 -0.0004364765 3.218492e-23)
(0.0004226947 -0.0004383239 4.452291e-23)
(0.0006844606 -7.800584e-05 6.238295e-25)
(0.0007311552 -4.109516e-05 -8.878255e-23)
(0.0006684669 -0.0001550233 -3.43041e-26)
(0.0007182663 -0.0001225419 -3.438949e-26)
(0.0006452514 -0.0002293478 2.975736e-26)
(0.0006977122 -0.0002026971 -3.774959e-26)
(0.0006148302 -0.0003006699 6.268682e-24)
(0.00066973 -0.0002798211 9.808281e-23)
(0.0005772426 -0.0003682441 -5.43419e-26)
(0.0006341308 -0.000353539 -3.554074e-26)
(0.0005323677 -0.0004310733 -1.009224e-23)
(0.0005908805 -0.0004231032 -1.034435e-22)
(0.0005393194 -0.0004875092 -1.106703e-22)
(0.0004800893 -0.0004876126 -4.05447e-23)
(0.000769547 -8.615905e-05 -3.948046e-26)
(0.0008214014 -4.529967e-05 -3.912101e-26)
(0.0007522325 -0.0001719403 -3.784368e-26)
(0.0008075405 -0.0001354553 0)
(0.0007267493 -0.0002549094 2.731752e-24)
(0.0007849459 -0.0002245191 -1.084584e-22)
(0.0006936123 -0.0003347898 1.172672e-27)
(0.0007546442 -0.000310672 3.45199e-26)
(0.0006524808 -0.0004109888 -9.532113e-26)
(0.0007160731 -0.0003934256 -1.112646e-22)
(0.0006029129 -0.0004827303 -9.0074e-26)
(0.0006689946 -0.0004722828 -1.174824e-22)
(0.000612467 -0.0005466491 3.87284e-27)
(0.0005441894 -0.0005490704 -7.522219e-26)
(0.0008638437 -9.48775e-05 0)
(0.0009208836 -4.971063e-05 -4.955432e-26)
(0.0008449912 -0.0001896775 -8.362899e-26)
(0.0009055732 -0.0001495247 4.771295e-26)
(0.0008178359 -0.0002821185 -8.331551e-26)
(0.0008820734 -0.0002467556 -1.191318e-22)
(0.0007821787 -0.0003713835 -7.538943e-26)
(0.0008496279 -0.0003430447 0)
(0.0007378866 -0.0004571562 -1.105392e-25)
(0.0008084269 -0.0004359123 -1.215574e-22)
(0.0006843684 -0.0005389639 -3.315248e-27)
(0.000758148 -0.0005249502 -3.50706e-26)
(0.0006980193 -0.0006098191 1.181363e-22)
(0.0006202696 -0.0006163606 3.234301e-26)
(0.0009674183 -0.0001044865 1.471519e-24)
(0.001030584 -5.434598e-05 -1.034359e-22)
(0.0009479175 -0.0002077246 9.412357e-26)
(0.001014388 -0.0001634237 9.937026e-23)
(0.0009197971 -0.0003097732 4.608924e-26)
(0.0009899885 -0.0002704786 2.029381e-22)
(0.0008816511 -0.0004098434 -4.261144e-26)
(0.0009561559 -0.0003754437 1.016189e-25)
(0.0008344082 -0.0005059991 -4.260138e-26)
(0.0009120441 -0.0004801646 -8.729637e-26)
(0.0007774444 -0.0005985149 2.821334e-26)
(0.0008590405 -0.0005806222 3.872646e-27)
(0.0007947242 -0.0006770837 2.369556e-26)
(0.0007094499 -0.0006860899 2.302339e-23)
(0.001081903 -0.0001136098 -1.266953e-27)
(0.001149902 -5.882859e-05 -5.506313e-26)
(0.001061027 -0.0002262222 2.098688e-25)
(0.001133216 -0.0001764863 5.4319e-26)
(0.001032713 -0.0003374386 2.5968e-25)
(0.001108907 -0.0002935725 9.414146e-23)
(0.0009935021 -0.000449006 -8.235846e-24)
(0.001075517 -0.0004086236 2.56427e-22)
(0.0009433326 -0.0005569378 -4.083009e-26)
(0.001028416 -0.0005250394 -1.611105e-22)
(0.0008833499 -0.0006619623 -8.285612e-24)
(0.0009735674 -0.0006385325 1.235698e-26)
(0.0009060733 -0.0007489527 1.5478e-26)
(0.0008107115 -0.0007628515 2.191393e-23)
(0.001205705 -0.0001225953 -9.608506e-25)
(0.001278693 -6.315633e-05 -6.42079e-30)
(0.001185047 -0.0002438426 6.089844e-26)
(0.00126127 -0.0001894601 -2.09347e-29)
(0.001156595 -0.000364239 -5.219282e-24)
(0.001237116 -0.0003151098 1.243464e-25)
(0.001116496 -0.0004870978 1.329482e-24)
(0.001203754 -0.0004423393 1.496912e-25)
(0.001066181 -0.000608559 -5.242282e-26)
(0.001158855 -0.0005672432 -9.607183e-26)
(0.001004454 -0.0007277391 -1.306674e-23)
(0.001103337 -0.0006961346 5.69665e-26)
(0.001034586 -0.0008229303 1.996588e-26)
(0.0009287583 -0.0008444432 -1.652876e-23)
(0.001338698 -0.0001310649 9.151588e-25)
(0.001416383 -6.699011e-05 -1.00755e-28)
(0.001318356 -0.0002610554 6.317273e-26)
(0.001398656 -0.0002011393 -3.126647e-28)
(0.00129002 -0.0003915891 1.175286e-25)
(0.001376513 -0.0003350881 9.071185e-23)
(0.00125333 -0.0005229179 5.342432e-24)
(0.001345889 -0.0004718746 9.966546e-23)
(0.001205488 -0.0006570531 6.321867e-24)
(0.001304617 -0.0006089817 7.005775e-26)
(0.001143121 -0.0007933237 4.845134e-26)
(0.001251322 -0.0007488149 2.513946e-22)
(0.001181981 -0.0008957712 0)
(0.001066142 -0.0009276242 -3.148613e-27)
(0.00147997 -0.0001381368 0)
(0.001561437 -7.000731e-05 -2.197048e-28)
(0.001460682 -0.0002752447 7.288227e-26)
(0.001543588 -0.0002103774 6.610232e-28)
(0.001436085 -0.0004132906 1.500569e-25)
(0.00152389 -0.0003508348 7.518298e-26)
(0.001402209 -0.0005548206 9.85534e-24)
(0.001498392 -0.0004940875 7.694413e-26)
(0.001360442 -0.0007003954 3.405813e-23)
(0.001464084 -0.0006433826 8.468474e-23)
(0.001302154 -0.0008549114 9.98609e-26)
(0.001419588 -0.0007965874 9.069458e-26)
(0.001350916 -0.0009628511 -2.516063e-26)
(0.001225555 -0.001009555 -5.718377e-26)
(0.00162775 -0.0001433665 1.80024e-24)
(0.001711828 -7.190986e-05 -9.058068e-26)
(0.00160997 -0.0002859352 -4.328965e-25)
(0.00169427 -0.0002163983 1.361633e-27)
(0.001589699 -0.0004302043 2.282833e-27)
(0.001677894 -0.0003616118 -8.628902e-26)
(0.001563097 -0.0005787117 1.535597e-25)
(0.001658216 -0.0005107016 0)
(0.001528743 -0.0007338465 1.492246e-25)
(0.00163169 -0.0006673115 1.339809e-22)
(0.001477901 -0.0009050623 -3.265909e-23)
(0.001596804 -0.0008372777 8.062909e-27)
(0.001544654 -0.001015614 -1.441494e-25)
(0.001409922 -0.001084863 -3.258088e-24)
(0.001779737 -0.0001460347 -1.665689e-24)
(0.00186473 -7.232515e-05 1.674851e-23)
(0.001764254 -0.0002917272 -8.774756e-26)
(0.00184814 -0.0002179968 -9.592721e-26)
(0.001749494 -0.0004402151 -8.859796e-26)
(0.001836273 -0.0003653325 -1.697923e-23)
(0.001731711 -0.0005953657 9.428875e-26)
(0.001824852 -0.0005178442 -6.543688e-27)
(0.001706202 -0.0007619313 3.084975e-23)
(0.001811494 -0.0006800585 7.704247e-26)
(0.001675078 -0.0009416972 -3.288698e-22)
(0.001791376 -0.0008579642 3.335387e-23)
(0.00176266 -0.001051448 -1.736952e-25)
(0.001622616 -0.001145691 -1.837292e-23)
(0.001932899 -0.0001451892 -1.312635e-24)
(0.002016552 -7.126904e-05 -9.822901e-26)
(0.001920654 -0.0002910833 -1.933843e-25)
(0.002001986 -0.0002137236 3.678618e-23)
(0.00191266 -0.0004403525 -1.033695e-25)
(0.001995225 -0.0003600003 7.937126e-27)
(0.001906039 -0.0005976245 -2.433323e-23)
(0.001993177 -0.0005125492 -3.299685e-27)
(0.001896712 -0.0007672288 -3.291561e-23)
(0.001993341 -0.0006761972 -1.305118e-25)
(0.001882831 -0.0009536236 -9.198218e-23)
(0.001990215 -0.0008572798 5.062748e-26)
(0.001984138 -0.001067151 -5.385781e-26)
(0.001852629 -0.001177134 -1.826334e-22)
(0.002083715 -0.0001404921 1.026604e-25)
(0.002164625 -6.812302e-05 1.140369e-25)
(0.002075851 -0.0002820721 -2.534478e-24)
(0.002151617 -0.0002046737 -2.251071e-22)
(0.002075519 -0.0004292612 8.197536e-24)
(0.002151563 -0.0003433732 -6.764085e-23)
(0.002081061 -0.000585471 -1.098389e-25)
(0.002159462 -0.000492533 2.29267e-25)
(0.002089492 -0.0007571248 -5.309173e-23)
(0.002175757 -0.0006539899 5.797877e-23)
(0.002093693 -0.0009523867 -1.115568e-26)
(0.002196699 -0.0008350969 9.406145e-26)
(0.002216002 -0.001046981 -1.182229e-25)
(0.002101274 -0.001177803 1.228835e-26)
(0.002227569 -0.0001331823 3.336724e-25)
(0.002303903 -6.251925e-05 -1.565133e-22)
(0.002223958 -0.0002644724 -1.829762e-23)
(0.00229185 -0.0001895081 2.186812e-25)
(0.002233893 -0.0004036588 3.325236e-25)
(0.002299019 -0.0003171704 1.057066e-25)
(0.002252092 -0.0005550557 1.037914e-25)
(0.002318978 -0.0004548989 -2.390925e-22)
(0.002279522 -0.0007216141 -5.450589e-23)
(0.002350054 -0.0006103218 1.224297e-25)
(0.002311327 -0.0009122555 -9.779758e-27)
(0.002393644 -0.0007861809 -1.787079e-22)
(0.002442299 -0.0009946607 3.012021e-22)
(0.002342008 -0.001137891 -1.463633e-25)
(0.002360823 -0.0001210575 3.918341e-24)
(0.002428672 -5.479196e-05 -6.325622e-27)
(0.002359197 -0.0002396406 -5.960677e-28)
(0.002417735 -0.0001667021 3.809554e-28)
(0.002378661 -0.0003637071 2.686518e-27)
(0.002430609 -0.0002807014 1.701518e-27)
(0.002413295 -0.0005044011 2.503094e-25)
(0.002463688 -0.0004031741 5.345563e-22)
(0.002458065 -0.0006643665 3.699862e-25)
(0.002512762 -0.0005455925 -4.93176e-22)
(0.002513528 -0.0008493929 -1.275857e-27)
(0.002576032 -0.0007173584 1.420295e-25)
(0.00264903 -0.0009274813 -1.266286e-25)
(0.002573401 -0.001075028 -1.29739e-25)
(0.002475994 -0.0001043369 -1.25583e-25)
(0.002533019 -4.470696e-05 2.903065e-22)
(0.002478641 -0.0002058025 4.884616e-24)
(0.002523292 -0.0001382526 9.66162e-28)
(0.002503681 -0.0003136766 -2.612198e-25)
(0.00254318 -0.0002336776 4.294207e-27)
(0.002553138 -0.0004356028 -2.361915e-22)
(0.002585922 -0.0003406322 -2.590643e-25)
(0.00262008 -0.0005851765 1.935732e-22)
(0.002653513 -0.000468328 4.199301e-25)
(0.002691659 -0.0007651761 1.681893e-26)
(0.002733494 -0.0006356612 3.314747e-25)
(0.002814363 -0.0008584881 -2.838032e-25)
(0.002771979 -0.0009879499 2.522168e-25)
(0.002567884 -8.316758e-05 -1.314793e-25)
(0.002610743 -3.273975e-05 -1.314972e-25)
(0.002574951 -0.0001650945 2.610076e-27)
(0.002604366 -0.0001047915 1.058875e-27)
(0.002610315 -0.0002538564 4.122682e-23)
(0.002631376 -0.0001802405 4.610117e-27)
(0.002667372 -0.0003595163 1.665965e-25)
(0.002687265 -0.0002706145 6.860902e-27)
(0.002749329 -0.0004907888 1.618529e-21)
(0.002760284 -0.0003899186 -4.634025e-22)
(0.002838292 -0.0006693585 2.564527e-26)
(0.002853106 -0.0005535671 -1.341431e-21)
(0.00294311 -0.0007930164 1.354491e-21)
(0.002915063 -0.0009104877 -2.955327e-26)
(0.002631837 -5.871248e-05 1.056778e-27)
(0.002657058 -1.954209e-05 0)
(0.002645244 -0.0001189347 1.288606e-23)
(0.002657309 -6.792724e-05 1.061437e-27)
(0.002691566 -0.0001872 4.912458e-27)
(0.002691948 -0.0001227092 2.032845e-27)
(0.002759837 -0.0002782657 1.568605e-22)
(0.002760477 -0.0001990715 6.690042e-27)
(0.002838101 -0.0003956544 4.278533e-25)
(0.002835836 -0.0003141828 1.54083e-25)
(0.002936182 -0.000564026 -5.537033e-27)
(0.002918333 -0.0004846317 1.128534e-25)
(0.003016706 -0.0007452517 -4.638417e-25)
(0.003014868 -0.0008302041 -5.829316e-25)
(0.002663949 -3.327417e-05 -3.819615e-30)
(0.002668224 -5.15658e-06 -1.360718e-25)
(0.002685201 -6.836837e-05 -6.534548e-31)
(0.002677862 -2.845291e-05 7.897035e-29)
(0.002741805 -0.0001157871 3.764587e-27)
(0.002721157 -6.21913e-05 3.446342e-28)
(0.002818867 -0.0001919493 6.040317e-22)
(0.002795706 -0.0001263787 5.023682e-27)
(0.00289775 -0.0003034169 -1.523474e-25)
(0.002877137 -0.0002416921 -2.784915e-25)
(0.002977282 -0.0004760631 -2.369385e-21)
(0.002954221 -0.0004264825 4.900642e-22)
(0.003023935 -0.0007181614 4.213463e-22)
(0.003059508 -0.000771887 -7.414429e-25)
(0.00266122 -4.490384e-06 -2.62298e-24)
(0.002639775 1.047108e-05 5.458651e-22)
(0.002693439 -1.393859e-05 4.170016e-28)
(0.002662653 1.396495e-05 -1.358287e-25)
(0.002753656 -4.155684e-05 2.153587e-22)
(0.002714636 -1.668096e-06 2.845935e-28)
(0.002836407 -9.800142e-05 -2.876817e-25)
(0.00278697 -5.417806e-05 7.859112e-28)
(0.002918012 -0.000210973 -2.874442e-25)
(0.002880882 -0.0001695588 1.344637e-21)
(0.002988029 -0.0004018586 -2.216438e-26)
(0.002948349 -0.0003799771 -4.366307e-22)
(0.003010736 -0.0007041538 -3.595206e-22)
(0.003031248 -0.0007194308 -4.236859e-21)
(0.002618165 2.780061e-05 -2.690298e-25)
(0.002568057 2.729933e-05 -2.616026e-25)
(0.002661501 4.492374e-05 6.803268e-23)
(0.002604544 5.963377e-05 6.134011e-22)
(0.002728096 3.978022e-05 -4.675813e-28)
(0.002664532 6.390049e-05 -1.350491e-25)
(0.002810269 -9.710774e-07 -1.567836e-21)
(0.002743632 2.246683e-05 -4.371863e-28)
(0.002896998 -0.0001161905 5.072393e-21)
(0.002833207 -9.767993e-05 4.768597e-22)
(0.002969914 -0.0003466036 -2.378335e-25)
(0.002904906 -0.0003359325 1.59381e-25)
(0.002983011 -0.0007172813 4.967762e-21)
(0.002984161 -0.0007335267 -7.576793e-25)
(0.002528792 6.398129e-05 -1.28338e-25)
(0.002447853 4.484958e-05 6.614571e-22)
(0.002582679 0.0001118769 -1.348778e-25)
(0.002495238 0.0001094147 -6.637762e-22)
(0.002657811 0.000132702 -1.349974e-25)
(0.002564491 0.0001375927 6.325038e-22)
(0.002748714 0.0001053059 -1.396169e-25)
(0.002654741 0.0001090186 -1.329478e-25)
(0.002838663 -1.673896e-05 3.536593e-21)
(0.002755725 -1.84891e-05 -1.415845e-25)
(0.002904741 -0.0002950393 -4.64875e-21)
(0.002844206 -0.0002911386 -1.296963e-26)
(0.002882664 -0.0007304177 -5.391374e-25)
(0.002924284 -0.0007342275 -3.819047e-25)
(0.002386511 0.0001032764 2.482134e-25)
(0.002273494 6.418883e-05 -7.393749e-22)
(0.002450124 0.0001872619 1.201659e-25)
(0.002327912 0.0001636905 -7.191198e-22)
(0.002535909 0.0002375556 -2.611938e-25)
(0.002408306 0.0002177599 -1.303919e-25)
(0.002638819 0.0002253042 -1.349259e-25)
(0.00250966 0.000206833 7.701467e-22)
(0.002742813 8.682665e-05 -4.357707e-21)
(0.002624534 7.248409e-05 -1.952125e-27)
(0.002818275 -0.0002372528 -1.366007e-26)
(0.002727944 -0.0002253635 -1.406031e-25)
(0.002785071 -0.000694475 7.050201e-29)
(0.002830649 -0.0007251484 5.255019e-25)
(0.002182215 0.0001466276 1.672847e-25)
(0.002033843 8.201784e-05 1.579e-25)
(0.002253983 0.0002694264 5.724848e-26)
(0.002089113 0.0002212145 4.025341e-22)