/*--------------------------------*- C++ -*----------------------------------*\
| =========                 |                                                 |
| \\      /  F ield         | OpenFOAM: The Open Source CFD Toolbox           |
|  \\    /   O peration     | Version:  2206                                  |
|   \\  /    A nd           | Website:  www.openfoam.com                      |
|    \\/     M anipulation  |                                                 |
\*---------------------------------------------------------------------------*/
FoamFile
{
    version     2.0;
    format      ascii;
    arch        "LSB;label=32;scalar=64";
    class       volScalarField::Internal;
    location    "1";
    object      V0;
}
// * * * * * * * * * * * * * * * * * * * * * * * * * * * * * * * * * * * * * //

dimensions      [0 3 0 0 0 0 0];

value           nonuniform List<scalar> 
13078
(
1.784171e-08
1.774235e-08
1.774929e-08
1.767559e-08
1.766754e-08
1.766417e-08
1.766116e-08
1.792913e-08
1.784196e-08
1.783474e-08
1.768077e-08
1.766691e-08
1.766339e-08
1.766036e-08
1.792092e-08
1.79327e-08
1.802522e-08
1.768626e-08
1.766622e-08
1.766256e-08
1.765963e-08
1.791217e-08
1.792427e-08
1.819287e-08
1.785843e-08
1.766572e-08
1.766178e-08
1.765859e-08
1.790349e-08
1.791555e-08
1.818894e-08
1.80208e-08
1.783293e-08
1.766094e-08
1.765801e-08
1.78941e-08
1.790639e-08
1.81802e-08
1.802651e-08
1.799206e-08
1.782538e-08
1.765697e-08
1.788456e-08
1.789438e-08
1.811801e-08
1.822045e-08
1.800161e-08
1.79806e-08
1.781827e-08
1.787455e-08
1.787515e-08
1.790799e-08
1.826691e-08
1.800073e-08
1.797223e-08
1.796982e-08
1.786397e-08
1.78641e-08
1.78839e-08
1.826706e-08
1.799281e-08
1.796342e-08
1.796069e-08
1.78535e-08
1.785342e-08
1.787315e-08
1.82645e-08
1.79841e-08
1.795387e-08
1.795109e-08
1.784197e-08
1.784173e-08
1.786184e-08
1.826146e-08
1.797501e-08
1.794395e-08
1.7941e-08
1.783064e-08
1.783024e-08
1.78505e-08
1.825853e-08
1.796554e-08
1.793376e-08
1.793067e-08
1.781821e-08
1.78178e-08
1.783849e-08
1.825515e-08
1.795608e-08
1.792318e-08
1.791984e-08
1.780578e-08
1.780489e-08
1.782558e-08
1.824414e-08
1.79658e-08
1.79128e-08
1.790836e-08
1.779259e-08
1.779155e-08
1.780832e-08
1.815052e-08
1.826738e-08
1.792698e-08
1.789704e-08
1.77786e-08
1.777719e-08
1.777789e-08
1.78283e-08
1.834514e-08
1.792596e-08
1.788483e-08
1.77644e-08
1.776255e-08
1.776238e-08
1.779263e-08
1.834794e-08
1.791416e-08
1.787142e-08
1.774935e-08
1.77473e-08
1.774673e-08
1.77769e-08
1.834584e-08
1.790212e-08
1.785764e-08
1.773376e-08
1.773117e-08
1.773023e-08
1.776083e-08
1.833361e-08
1.791656e-08
1.784448e-08
1.771724e-08
1.771449e-08
1.771328e-08
1.773792e-08
1.820659e-08
1.833353e-08
1.786317e-08
1.770014e-08
1.769671e-08
1.769479e-08
1.769594e-08
1.776553e-08
1.844601e-08
1.786211e-08
1.768239e-08
1.767856e-08
1.767606e-08
1.767579e-08
1.771762e-08
1.845225e-08
1.784753e-08
1.766334e-08
1.7659e-08
1.765616e-08
1.765551e-08
1.7697e-08
1.843862e-08
1.786694e-08
1.764394e-08
1.763896e-08
1.763542e-08
1.7634e-08
1.76679e-08
1.827581e-08
1.841117e-08
1.762316e-08
1.761752e-08
1.761353e-08
1.761128e-08
1.761308e-08
1.77037e-08
1.85623e-08
1.760194e-08
1.759539e-08
1.759045e-08
1.758746e-08
1.758742e-08
1.764236e-08
1.857307e-08
1.75791e-08
1.757239e-08
1.756649e-08
1.756277e-08
1.756198e-08
1.761655e-08
1.855843e-08
1.755278e-08
1.755778e-08
1.754147e-08
1.753651e-08
1.753506e-08
1.757945e-08
1.83507e-08
1.751585e-08
1.754422e-08
1.75156e-08
1.750885e-08
1.75058e-08
1.750842e-08
1.762507e-08
1.746104e-08
1.766361e-08
1.750799e-08
1.748061e-08
1.747578e-08
1.747542e-08
1.754601e-08
1.728194e-08
1.764389e-08
1.750416e-08
1.745228e-08
1.74442e-08
1.744275e-08
1.749904e-08
1.723467e-08
1.75721e-08
1.777447e-08
1.748151e-08
1.74135e-08
1.740723e-08
1.740924e-08
1.718603e-08
1.723086e-08
1.771612e-08
1.792568e-08
1.742128e-08
1.737181e-08
1.736916e-08
1.714546e-08
1.714761e-08
1.721844e-08
1.794439e-08
1.743898e-08
1.733721e-08
1.732901e-08
1.710399e-08
1.710314e-08
1.714033e-08
1.784044e-08
1.804524e-08
1.740538e-08
1.72913e-08
1.706069e-08
1.705745e-08
1.705982e-08
1.715445e-08
1.799371e-08
1.821065e-08
1.731498e-08
1.701572e-08
1.701059e-08
1.700848e-08
1.701434e-08
1.713881e-08
1.82702e-08
1.735534e-08
1.696956e-08
1.696311e-08
1.695775e-08
1.695803e-08
1.702444e-08
1.813257e-08
1.835666e-08
1.691938e-08
1.693983e-08
1.690758e-08
1.690172e-08
1.690671e-08
1.706326e-08
1.844838e-08
1.685327e-08
1.708616e-08
1.690774e-08
1.684839e-08
1.684379e-08
1.692567e-08
1.82767e-08
1.660115e-08
1.702425e-08
1.725771e-08
1.687247e-08
1.678519e-08
1.678457e-08
1.697263e-08
1.651093e-08
1.657017e-08
1.720005e-08
1.743403e-08
1.683414e-08
1.671837e-08
1.676815e-08
1.644527e-08
1.644876e-08
1.653617e-08
1.738038e-08
1.761495e-08
1.679004e-08
1.666313e-08
1.638358e-08
1.640358e-08
1.638343e-08
1.649964e-08
1.756221e-08
1.779528e-08
1.679245e-08
1.633946e-08
1.652324e-08
1.636435e-08
1.634883e-08
1.645532e-08
1.774286e-08
1.798031e-08
1.609591e-08
1.64882e-08
1.679645e-08
1.686407e-08
1.633038e-08
1.640576e-08
1.79368e-08
1.599948e-08
1.602841e-08
1.608938e-08
1.682354e-08
1.700139e-08
1.628288e-08
1.636613e-08
1.593113e-08
1.592689e-08
1.592451e-08
1.602485e-08
1.698345e-08
1.743814e-08
1.740487e-08
1.586983e-08
1.585809e-08
1.584661e-08
1.584101e-08
1.590432e-08
1.60187e-08
1.731145e-08
1.582197e-08
1.583195e-08
1.582428e-08
1.57725e-08
1.576021e-08
1.575983e-08
1.594275e-08
1.588113e-08
1.629914e-08
1.640487e-08
1.58737e-08
1.581838e-08
1.582726e-08
1.581504e-08
1.55489e-08
1.568557e-08
1.660878e-08
1.725126e-08
1.759348e-08
1.799566e-08
1.775814e-08
1.544168e-08
1.544351e-08
1.550245e-08
1.571799e-08
1.590011e-08
1.607341e-08
1.723169e-08
1.540996e-08
1.540887e-08
1.540631e-08
1.541576e-08
1.54261e-08
1.545242e-08
1.583167e-08
1.542479e-08
1.551461e-08
1.560026e-08
1.568727e-08
1.577563e-08
1.586661e-08
1.599932e-08
1.54987e-08
1.581648e-08
1.612894e-08
1.644232e-08
1.675695e-08
1.70732e-08
1.739253e-08
1.549809e-08
1.581498e-08
1.612691e-08
1.643983e-08
1.675408e-08
1.707003e-08
1.738917e-08
1.5424e-08
1.551263e-08
1.559747e-08
1.568371e-08
1.577135e-08
1.586168e-08
1.599381e-08
1.540914e-08
1.54067e-08
1.540303e-08
1.541127e-08
1.542032e-08
1.544528e-08
1.582286e-08
1.54403e-08
1.543981e-08
1.549679e-08
1.571011e-08
1.588987e-08
1.60607e-08
1.72164e-08
1.554719e-08
1.568079e-08
1.660008e-08
1.723882e-08
1.757891e-08
1.797953e-08
1.77406e-08
1.587939e-08
1.629418e-08
1.639805e-08
1.586529e-08
1.580712e-08
1.581297e-08
1.579764e-08
1.582096e-08
1.582843e-08
1.581764e-08
1.57625e-08
1.57466e-08
1.574248e-08
1.592128e-08
1.58692e-08
1.585507e-08
1.583991e-08
1.583032e-08
1.588933e-08
1.599915e-08
1.728686e-08
1.593107e-08
1.592502e-08
1.591874e-08
1.601455e-08
1.696853e-08
1.741921e-08
1.736035e-08
1.599948e-08
1.602769e-08
1.608561e-08
1.681541e-08
1.698852e-08
1.626355e-08
1.631719e-08
1.609591e-08
1.64882e-08
1.679505e-08
1.68584e-08
1.631759e-08
1.634082e-08
1.746067e-08
1.633946e-08
1.652324e-08
1.636411e-08
1.634459e-08
1.640778e-08
1.734655e-08
1.755733e-08
1.638358e-08
1.640356e-08
1.638228e-08
1.646779e-08
1.724451e-08
1.742474e-08
1.708743e-08
1.644527e-08
1.644799e-08
1.651304e-08
1.71331e-08
1.729968e-08
1.67437e-08
1.701831e-08
1.651056e-08
1.655501e-08
1.701817e-08
1.718588e-08
1.678784e-08
1.702069e-08
1.712491e-08
1.659383e-08
1.690537e-08
1.707261e-08
1.682332e-08
1.702161e-08
1.707907e-08
1.701616e-08
1.679522e-08
1.696181e-08
1.684579e-08
1.702054e-08
1.707494e-08
1.696179e-08
1.82787e-08
1.685736e-08
1.687228e-08
1.687447e-08
1.705727e-08
1.693698e-08
1.706498e-08
1.844836e-08
1.690706e-08
1.69165e-08
1.706788e-08
1.712446e-08
1.706853e-08
1.813238e-08
1.835627e-08
1.696005e-08
1.706224e-08
1.711681e-08
1.705808e-08
1.755813e-08
1.825615e-08
1.734679e-08
1.701153e-08
1.710327e-08
1.707354e-08
1.715714e-08
1.80174e-08
1.779314e-08
1.728146e-08
1.710107e-08
1.715437e-08
1.714718e-08
1.784095e-08
1.805139e-08
1.737814e-08
1.728963e-08
1.714179e-08
1.715396e-08
1.721888e-08
1.794439e-08
1.743904e-08
1.733648e-08
1.732898e-08
1.718585e-08
1.723425e-08
1.771633e-08
1.792567e-08
1.742129e-08
1.73718e-08
1.736916e-08
1.723459e-08
1.757218e-08
1.777447e-08
1.748151e-08
1.74135e-08
1.740723e-08
1.740924e-08
1.728194e-08
1.764389e-08
1.750416e-08
1.745228e-08
1.74442e-08
1.744275e-08
1.749904e-08
1.746104e-08
1.766361e-08
1.750799e-08
1.748061e-08
1.747578e-08
1.747542e-08
1.754601e-08
1.751585e-08
1.754422e-08
1.75156e-08
1.750885e-08
1.75058e-08
1.750842e-08
1.762507e-08
1.755278e-08
1.755778e-08
1.754147e-08
1.753651e-08
1.753506e-08
1.757945e-08
1.83507e-08
1.75791e-08
1.757239e-08
1.756649e-08
1.756277e-08
1.756198e-08
1.761655e-08
1.855843e-08
1.760194e-08
1.759539e-08
1.759045e-08
1.758746e-08
1.758742e-08
1.764236e-08
1.857307e-08
1.762316e-08
1.761752e-08
1.761353e-08
1.761128e-08
1.761308e-08
1.77037e-08
1.85623e-08
1.764394e-08
1.763896e-08
1.763542e-08
1.7634e-08
1.76679e-08
1.827581e-08
1.841117e-08
1.766334e-08
1.7659e-08
1.765616e-08
1.765551e-08
1.7697e-08
1.843862e-08
1.786694e-08
1.768239e-08
1.767856e-08
1.767606e-08
1.767579e-08
1.771762e-08
1.845225e-08
1.784753e-08
1.770014e-08
1.769671e-08
1.769479e-08
1.769594e-08
1.776553e-08
1.844601e-08
1.786211e-08
1.771724e-08
1.771449e-08
1.771328e-08
1.773792e-08
1.820659e-08
1.833353e-08
1.786317e-08
1.773376e-08
1.773117e-08
1.773023e-08
1.776083e-08
1.833361e-08
1.791656e-08
1.784448e-08
1.774935e-08
1.77473e-08
1.774673e-08
1.77769e-08
1.834584e-08
1.790212e-08
1.785764e-08
1.77644e-08
1.776255e-08
1.776238e-08
1.779263e-08
1.834794e-08
1.791416e-08
1.787142e-08
1.77786e-08
1.777719e-08
1.777789e-08
1.78283e-08
1.834514e-08
1.792596e-08
1.788483e-08
1.779259e-08
1.779155e-08
1.780832e-08
1.815052e-08
1.826738e-08
1.792698e-08
1.789704e-08
1.780578e-08
1.780489e-08
1.782558e-08
1.824414e-08
1.79658e-08
1.79128e-08
1.790836e-08
1.781821e-08
1.78178e-08
1.783849e-08
1.825515e-08
1.795608e-08
1.792318e-08
1.791984e-08
1.783064e-08
1.783024e-08
1.78505e-08
1.825853e-08
1.796554e-08
1.793376e-08
1.793067e-08
1.784197e-08
1.784173e-08
1.786184e-08
1.826146e-08
1.797501e-08
1.794395e-08
1.7941e-08
1.78535e-08
1.785342e-08
1.787315e-08
1.82645e-08
1.79841e-08
1.795387e-08
1.795109e-08
1.786397e-08
1.78641e-08
1.78839e-08
1.826706e-08
1.799281e-08
1.796342e-08
1.796069e-08
1.787455e-08
1.787515e-08
1.790799e-08
1.826691e-08
1.800073e-08
1.797223e-08
1.796982e-08
1.788456e-08
1.789438e-08
1.811801e-08
1.822045e-08
1.800161e-08
1.79806e-08
1.781827e-08
1.78941e-08
1.790639e-08
1.81802e-08
1.802651e-08
1.799206e-08
1.782538e-08
1.765697e-08
1.790349e-08
1.791555e-08
1.818894e-08
1.80208e-08
1.783293e-08
1.766094e-08
1.765801e-08
1.791217e-08
1.792427e-08
1.819287e-08
1.785843e-08
1.766572e-08
1.766178e-08
1.765859e-08
1.792092e-08
1.79327e-08
1.802522e-08
1.768626e-08
1.766622e-08
1.766256e-08
1.765963e-08
1.792913e-08
1.784196e-08
1.783474e-08
1.768077e-08
1.766691e-08
1.766339e-08
1.766036e-08
1.784171e-08
1.774235e-08
1.774929e-08
1.767559e-08
1.766754e-08
1.766417e-08
1.766116e-08
1.765838e-08
1.765586e-08
1.765348e-08
4.413042e-09
4.418844e-09
4.399947e-09
4.399492e-09
1.765756e-08
1.765493e-08
1.765279e-08
4.412988e-09
4.468681e-09
4.399879e-09
4.399377e-09
1.765671e-08
1.76542e-08
1.765207e-08
1.764988e-08
4.518272e-09
4.399921e-09
4.399317e-09
1.765593e-08
1.765355e-08
1.765128e-08
4.407518e-09
4.568414e-09
4.399829e-09
4.399255e-09
1.765522e-08
1.765271e-08
1.765047e-08
4.408511e-09
4.618239e-09
4.399859e-09
4.399186e-09
1.765432e-08
1.765194e-08
1.764973e-08
4.409236e-09
4.667838e-09
4.399817e-09
4.399113e-09
1.765336e-08
1.765086e-08
1.764924e-08
4.414135e-09
4.498934e-09
4.399444e-09
4.399031e-09
1.781151e-08
1.76501e-08
1.764895e-08
4.42877e-09
4.421141e-09
4.399279e-09
4.398879e-09
1.795942e-08
1.780495e-08
1.764801e-08
4.431575e-09
4.423888e-09
4.399221e-09
4.398786e-09
1.794979e-08
1.794922e-08
1.77999e-08
4.434347e-09
4.426684e-09
4.399151e-09
4.398746e-09
1.793983e-08
1.793926e-08
1.793891e-08
4.474013e-09
4.429389e-09
4.399009e-09
4.398637e-09
1.792914e-08
1.792846e-08
1.792838e-08
4.509477e-09
4.481315e-09
4.398919e-09
4.398581e-09
1.79182e-08
1.791755e-08
1.791731e-08
4.507291e-09
4.532191e-09
4.447069e-09
4.398389e-09
1.790663e-08
1.790578e-08
1.790564e-08
4.505026e-09
4.530214e-09
4.495348e-09
4.445618e-09
1.789454e-08
1.789364e-08
1.789348e-08
4.5026e-09
4.528163e-09
4.492609e-09
4.492472e-09
1.788166e-08
1.78806e-08
1.788045e-08
4.500036e-09
4.525995e-09
4.489786e-09
4.489595e-09
1.786834e-08
1.786729e-08
1.786703e-08
4.496879e-09
4.544942e-09
4.486681e-09
4.486566e-09
1.785404e-08
1.785291e-08
1.785131e-08
4.46221e-09
5.123132e-09
4.48429e-09
4.483255e-09
1.783941e-08
1.783807e-08
1.78363e-08
4.457441e-09
5.143189e-09
4.480813e-09
4.479852e-09
1.782447e-08
1.782203e-08
1.782021e-08
4.453429e-09
5.155593e-09
4.477243e-09
4.476229e-09
1.78083e-08
1.780521e-08
1.78034e-08
4.449282e-09
5.167993e-09
4.473367e-09
4.472382e-09
1.779084e-08
1.778772e-08
1.778564e-08
4.4445e-09
5.180621e-09
4.469252e-09
4.468245e-09
1.777426e-08
1.776881e-08
1.776651e-08
4.43895e-09
5.185358e-09
4.465817e-09
4.463943e-09
1.779785e-08
1.774996e-08
1.774749e-08
1.776226e-08
4.73512e-09
4.497991e-09
4.459291e-09
1.779651e-08
1.772941e-08
1.772271e-08
4.428953e-09
4.473328e-09
4.501936e-09
4.454328e-09
1.777791e-08
1.770683e-08
1.769997e-08
4.423384e-09
4.468572e-09
4.497973e-09
4.449127e-09
1.780285e-08
1.768508e-08
1.767584e-08
4.417233e-09
4.463394e-09
4.510232e-09
4.4435e-09
1.851013e-08
1.767262e-08
1.764847e-08
4.410804e-09
4.427835e-09
5.190478e-09
4.438451e-09
1.875573e-08
4.407222e-09
4.403149e-09
4.403851e-09
4.406185e-09
5.339616e-09
4.432211e-09
1.877545e-08
4.400835e-09
4.395853e-09
4.396529e-09
4.398892e-09
5.358346e-09
4.425388e-09
1.818815e-08
4.88944e-09
4.388742e-09
4.388621e-09
4.390685e-09
5.07942e-09
4.453957e-09
1.748453e-08
5.029226e-09
4.381964e-09
4.380237e-09
4.381427e-09
4.439301e-09
4.469205e-09
1.737063e-08
4.407375e-09
4.415346e-09
4.371167e-09
4.372179e-09
4.430308e-09
4.498827e-09
1.732706e-08
4.36127e-09
4.977524e-09
4.362281e-09
4.362406e-09
4.367434e-09
5.485231e-09
1.728235e-08
4.318518e-09
5.052254e-09
4.372824e-09
4.351836e-09
4.354987e-09
5.526423e-09
1.723664e-08
4.306761e-09
4.371126e-09
4.428128e-09
4.340531e-09
4.343232e-09
5.185186e-09
1.719018e-08
4.294354e-09
4.299402e-09
5.24846e-09
4.32588e-09
4.330053e-09
4.401322e-09
1.722186e-08
4.280933e-09
4.283864e-09
5.062644e-09
4.107689e-09
4.330256e-09
4.368665e-09
1.727722e-08
4.266909e-09
4.268263e-09
4.316193e-09
4.877988e-09
4.519258e-09
4.306277e-09
1.853689e-08
4.252641e-09
4.252468e-09
4.255908e-09
5.126599e-09
4.619406e-09
4.290225e-09
1.884544e-08
4.263391e-09
4.235928e-09
4.237604e-09
4.29121e-09
4.38092e-09
4.287672e-09
1.765687e-08
4.859792e-09
4.589237e-09
4.715072e-09
4.225829e-09
5.183218e-09
4.508766e-09
1.735614e-08
4.198366e-09
4.179624e-09
4.473435e-09
4.264046e-09
4.76188e-09
4.558875e-09
1.788719e-08
4.184748e-09
4.184191e-09
4.163754e-09
4.829278e-09
4.215525e-09
5.170958e-09
1.673361e-08
4.143779e-09
4.180081e-09
4.75988e-09
4.212336e-09
4.232969e-09
4.914135e-09
1.790286e-08
4.633085e-09
4.678825e-09
4.169173e-09
4.1961e-09
4.797022e-09
4.248171e-09
1.702166e-08
4.050701e-09
4.672112e-09
4.143774e-09
4.808825e-09
4.212464e-09
4.840436e-09
1.703942e-08
4.585671e-09
4.090638e-09
4.732316e-09
4.128885e-09
4.899608e-09
4.160245e-09
1.749785e-08
3.989405e-09
4.323397e-09
4.634412e-09
4.79177e-09
4.200358e-09
4.936266e-09
1.766444e-08
4.459096e-09
3.967603e-09
4.036328e-09
4.691911e-09
4.868824e-09
4.23123e-09
1.574227e-08
4.027155e-09
5.22021e-09
4.668932e-09
4.105971e-09
4.927497e-09
5.130742e-09
1.696398e-08
3.931207e-09
3.936721e-09
4.523719e-09
4.692354e-09
4.929319e-09
5.148342e-09
1.772027e-08
4.510326e-09
4.210924e-09
4.628862e-09
4.600113e-09
4.844239e-09
4.935672e-09
1.609318e-08
4.129725e-09
4.678908e-09
4.095478e-09
4.622222e-09
5.021601e-09
5.074498e-09
1.636579e-08
4.476256e-09
4.56916e-09
4.734309e-09
4.142865e-09
4.851252e-09
2.271069e-09
1.768527e-08
4.468481e-09
4.559267e-09
4.712682e-09
5.034792e-09
5.17676e-09
1.768182e-08
4.533528e-09
4.633288e-09
4.799298e-09
5.085302e-09
5.16739e-09
1.635966e-08
3.903866e-09
3.920009e-09
4.00899e-09
4.995663e-09
5.236099e-09
1.608254e-08
3.901182e-09
3.957291e-09
4.761011e-09
5.027618e-09
4.783662e-09
3.769863e-09
1.770419e-08
4.388325e-09
4.502353e-09
4.673582e-09
5.120535e-09
5.003779e-09
5.982666e-09
1.694521e-08
4.480113e-09
4.527072e-09
3.997996e-09
4.653143e-09
4.891695e-09
5.290831e-09
1.572179e-08
3.913513e-09
4.015993e-09
4.582823e-09
4.727715e-09
4.191105e-09
5.097592e-09
1.763774e-08
4.999181e-09
4.076505e-09
3.991945e-09
4.687063e-09
4.172708e-09
5.002457e-09
1.747058e-08
4.026216e-09
3.995188e-09
4.626649e-09
4.147909e-09
4.856367e-09
4.948145e-09
1.676244e-08
4.060988e-09
4.603784e-09
4.138742e-09
4.787005e-09
4.860603e-09
4.184607e-09
1.710287e-08
4.232447e-09
4.109902e-09
4.730396e-09
4.139468e-09
4.863988e-09
4.837249e-09
1.763443e-08
4.096186e-09
4.651441e-09
4.122222e-09
4.805033e-09
4.18241e-09
4.232919e-09
1.704874e-08
4.306196e-09
4.155384e-09
4.757424e-09
4.197342e-09
4.790983e-09
4.764499e-09
1.786535e-08
4.468838e-09
4.685069e-09
4.214598e-09
4.755967e-09
4.202438e-09
5.180178e-09
1.769506e-08
4.333161e-09
4.36192e-09
4.216301e-09
4.763681e-09
4.271516e-09
4.599199e-09
1.773018e-08
4.310474e-09
4.209821e-09
4.757681e-09
4.230737e-09
5.097877e-09
4.596005e-09
1.866231e-08
4.515673e-09
4.263283e-09
4.273709e-09
4.273981e-09
5.014735e-09
4.288705e-09
1.853814e-08
4.284009e-09
4.263127e-09
4.253831e-09
4.350379e-09
4.55826e-09
4.292002e-09
1.727722e-08
4.274357e-09
4.272014e-09
4.275366e-09
5.153916e-09
4.584647e-09
4.300488e-09
1.722183e-08
4.288071e-09
4.287168e-09
4.383336e-09
4.15365e-09
4.340219e-09
4.320309e-09
1.71899e-08
4.301238e-09
4.302305e-09
5.266152e-09
4.259893e-09
4.340401e-09
4.399987e-09
1.72357e-08
4.313967e-09
4.35234e-09
5.070832e-09
4.343857e-09
4.343541e-09
4.455772e-09
1.728233e-08
4.325277e-09
4.691691e-09
4.401955e-09
4.354814e-09
4.356779e-09
5.524739e-09
1.732706e-08
4.338428e-09
5.144591e-09
4.368418e-09
4.365741e-09
4.367844e-09
5.521889e-09
1.737063e-08
4.387069e-09
4.453154e-09
4.376232e-09
4.375902e-09
4.417557e-09
5.173148e-09
1.748453e-08
4.909993e-09
4.418094e-09
4.385444e-09
4.385282e-09
4.442114e-09
4.473332e-09
1.818815e-08
5.04276e-09
4.396102e-09
4.394064e-09
4.393917e-09
4.485142e-09
4.478123e-09
1.877545e-08
4.442251e-09
4.403059e-09
4.402081e-09
4.403078e-09
5.35834e-09
4.429697e-09
1.875573e-08
4.422898e-09
4.410463e-09
4.409564e-09
4.410532e-09
5.357868e-09
4.435265e-09
1.851013e-08
1.767262e-08
1.764847e-08
4.416546e-09
4.418055e-09
5.333407e-09
4.441872e-09
1.780285e-08
1.768508e-08
1.767584e-08
4.423039e-09
4.461162e-09
4.801972e-09
4.447401e-09
1.777791e-08
1.770683e-08
1.769997e-08
4.429071e-09
4.47388e-09
4.503243e-09
4.452581e-09
1.779651e-08
1.772945e-08
1.772375e-08
4.43474e-09
4.478523e-09
4.506912e-09
4.458e-09
1.779785e-08
1.775e-08
1.774646e-08
4.439095e-09
4.495584e-09
4.510474e-09
4.462985e-09
1.777426e-08
1.776881e-08
1.776655e-08
4.444801e-09
5.083461e-09
4.485787e-09
4.467664e-09
1.779084e-08
1.778772e-08
1.778573e-08
4.450753e-09
5.195696e-09
4.473982e-09
4.472045e-09
1.78083e-08
1.780521e-08
1.78034e-08
4.455223e-09
5.182804e-09
4.478034e-09
4.476199e-09
1.782447e-08
1.782203e-08
1.782021e-08
4.459441e-09
5.169273e-09
4.48186e-09
4.480063e-09
1.783941e-08
1.783807e-08
1.78363e-08
4.463458e-09
5.157342e-09
4.485525e-09
4.483638e-09
1.785404e-08
1.785291e-08
1.785131e-08
4.467105e-09
5.145687e-09
4.488895e-09
4.487246e-09
1.786834e-08
1.786729e-08
1.786703e-08
4.493986e-09
4.947622e-09
4.491804e-09
4.490442e-09
1.788166e-08
1.78806e-08
1.788045e-08
4.506215e-09
4.532434e-09
4.494339e-09
4.493484e-09
1.789454e-08
1.789364e-08
1.789348e-08
4.508745e-09
4.534144e-09
4.497308e-09
4.496437e-09
1.790663e-08
1.790578e-08
1.790564e-08
4.511113e-09
4.536129e-09
4.50006e-09
4.499301e-09
1.79182e-08
1.791755e-08
1.791731e-08
4.513382e-09
4.537977e-09
4.502714e-09
4.398353e-09
1.792914e-08
1.792846e-08
1.792838e-08
4.515578e-09
4.539752e-09
4.398867e-09
4.398422e-09
1.793983e-08
1.793926e-08
1.793891e-08
4.517556e-09
4.430904e-09
4.398965e-09
4.398545e-09
1.794979e-08
1.794922e-08
1.77999e-08
4.437295e-09
4.428069e-09
4.399047e-09
4.398661e-09
1.795942e-08
1.780495e-08
1.764801e-08
4.434812e-09
4.425286e-09
4.399189e-09
4.398767e-09
1.781151e-08
1.76501e-08
1.764895e-08
4.432298e-09
4.422425e-09
4.399247e-09
4.398866e-09
1.765336e-08
1.765086e-08
1.764924e-08
4.429313e-09
4.425397e-09
4.399439e-09
4.398956e-09
1.765432e-08
1.765194e-08
1.764973e-08
4.412484e-09
4.681673e-09
4.399822e-09
4.399041e-09
1.765522e-08
1.765271e-08
1.765047e-08
4.412521e-09
4.64311e-09
4.399806e-09
4.399118e-09
1.765593e-08
1.765355e-08
1.765128e-08
4.412678e-09
4.593297e-09
4.399911e-09
4.399189e-09
1.765671e-08
1.76542e-08
1.765207e-08
4.412816e-09
4.5434e-09
4.399875e-09
4.399319e-09
1.765756e-08
1.765493e-08
1.765279e-08
4.412831e-09
4.493633e-09
4.399961e-09
4.39938e-09
1.765838e-08
1.765586e-08
1.765348e-08
4.412951e-09
4.443794e-09
4.399919e-09
4.399499e-09
4.447992e-09
4.447737e-09
4.447552e-09
4.447429e-09
4.451542e-09
4.446443e-09
4.445347e-09
4.447916e-09
4.44698e-09
4.446831e-09
4.446961e-09
4.447221e-09
4.447532e-09
4.447935e-09
4.466993e-09
4.460934e-09
4.461392e-09
4.462042e-09
4.447962e-09
4.447665e-09
4.4475e-09
4.447433e-09
4.476681e-09
4.473166e-09
4.472897e-09
4.473264e-09
4.448311e-09
4.446804e-09
4.446968e-09
4.447202e-09
4.447495e-09
4.447939e-09
4.517364e-09
4.460869e-09
4.461266e-09
4.461726e-09
4.447928e-09
4.447596e-09
4.447449e-09
4.447439e-09
4.50157e-09
4.499824e-09
4.50038e-09
4.498612e-09
4.449643e-09
4.446767e-09
4.446845e-09
4.447112e-09
4.447386e-09
4.447925e-09
4.567864e-09
4.460675e-09
4.461069e-09
4.461593e-09
4.447824e-09
4.447646e-09
4.447333e-09
4.447444e-09
4.52671e-09
4.526613e-09
4.527923e-09
4.523967e-09
4.451051e-09
4.446793e-09
4.446846e-09
4.446957e-09
4.447342e-09
4.447987e-09
4.618233e-09
4.460606e-09
4.460883e-09
4.461402e-09
4.447716e-09
4.447561e-09
4.447352e-09
4.447508e-09
4.551592e-09
4.553336e-09
4.555405e-09
4.549308e-09
4.452381e-09
4.446761e-09
4.446846e-09
4.446998e-09
4.447291e-09
4.447856e-09
4.58994e-09
4.461933e-09
4.460752e-09
4.461271e-09
4.44767e-09
4.447416e-09
4.447365e-09
4.447513e-09
4.576746e-09
4.58006e-09
4.583081e-09
4.574657e-09
4.453646e-09
4.446722e-09
4.446777e-09
4.446907e-09
4.447168e-09
4.447567e-09
4.466062e-09
4.473798e-09
4.460625e-09
4.461083e-09
4.44755e-09
4.447391e-09
4.447302e-09
4.447447e-09
4.60162e-09
4.606716e-09
4.61063e-09
4.600005e-09
4.454978e-09
4.446684e-09
4.44671e-09
4.446875e-09
4.447105e-09
4.447471e-09
4.466251e-09
4.476614e-09
4.460305e-09
4.460766e-09
4.447427e-09
4.447367e-09
4.447238e-09
4.447445e-09
4.62677e-09
4.633519e-09
4.638106e-09
4.625353e-09
4.456368e-09
4.446697e-09
4.446634e-09
4.446773e-09
4.447041e-09
4.447369e-09
4.469135e-09
4.479181e-09
4.460116e-09
4.460574e-09
4.447363e-09
4.447205e-09
4.447179e-09
4.447438e-09
4.651654e-09
4.660249e-09
4.66571e-09
4.650707e-09
4.457693e-09
4.446587e-09
4.446557e-09
4.446722e-09
4.446893e-09
4.447273e-09
4.471892e-09
4.481556e-09
4.45986e-09
4.460383e-09
4.447359e-09
4.4471e-09
4.447174e-09
4.447436e-09
4.676799e-09
4.686972e-09
4.693122e-09
4.67605e-09
4.458965e-09
4.446549e-09
4.446604e-09
4.446613e-09
4.446882e-09
4.447223e-09
4.474649e-09
4.484125e-09
4.459669e-09
4.46013e-09
4.44715e-09
4.447059e-09
4.447039e-09
4.447428e-09
4.701677e-09
4.713627e-09
4.720734e-09
4.701397e-09
4.460288e-09
4.446496e-09
4.446397e-09
4.446549e-09
4.446728e-09
4.447101e-09
4.477476e-09
4.486626e-09
4.459476e-09
4.459873e-09
4.44713e-09
4.447012e-09
4.447092e-09
4.447421e-09
4.726829e-09
4.74042e-09
4.748346e-09
4.726815e-09
4.46162e-09
4.446439e-09
4.446436e-09
4.446428e-09
4.44669e-09
4.447037e-09
4.480298e-09
4.489001e-09
4.459157e-09
4.45968e-09
4.447102e-09
4.446958e-09
4.446949e-09
4.447413e-09
4.751699e-09
4.767143e-09
4.775825e-09
4.752164e-09
4.463016e-09
4.446453e-09
4.446275e-09
4.446305e-09
4.446524e-09
4.446826e-09
4.483123e-09
4.491566e-09
4.458964e-09
4.459551e-09
4.446938e-09
4.446833e-09
4.446866e-09
4.447463e-09
4.776858e-09
4.793866e-09
4.803444e-09
4.777519e-09
4.464406e-09
4.446394e-09
4.446231e-09
4.446287e-09
4.446414e-09
4.446874e-09
4.485949e-09
4.494011e-09
4.458773e-09
4.459175e-09
4.492733e-09
4.446702e-09
4.446782e-09
4.447449e-09
4.801733e-09
4.820519e-09
4.830846e-09
4.802861e-09
4.465599e-09
4.446331e-09
4.446134e-09
4.446139e-09
4.446416e-09
4.446707e-09
4.48858e-09
4.496451e-09
4.458644e-09
4.458983e-09
4.539538e-09
4.490477e-09
4.446751e-09
4.44737e-09
4.826882e-09
4.847313e-09
4.858465e-09
4.82821e-09
4.466918e-09
4.446201e-09
4.446025e-09
4.446109e-09
4.446276e-09
4.446593e-09
4.491343e-09
4.498894e-09
4.458329e-09
4.458724e-09
4.536496e-09
4.536757e-09
4.488367e-09
4.44748e-09
4.851761e-09
4.874037e-09
4.886079e-09
4.853558e-09
4.468236e-09
4.446196e-09
4.445968e-09
4.446012e-09
4.446123e-09
4.446538e-09
4.494295e-09
4.501399e-09
4.45801e-09
4.458473e-09
4.533176e-09
4.533529e-09
4.534171e-09
4.486958e-09
4.876846e-09
4.90076e-09
4.913557e-09
4.878907e-09
4.469626e-09
4.446119e-09
4.44584e-09
4.445827e-09
4.445969e-09
4.44632e-09
4.496995e-09
4.503781e-09
4.457755e-09
4.45822e-09
4.529768e-09
4.530155e-09
4.530828e-09
4.532265e-09
4.945996e-09
4.927418e-09
4.941172e-09
4.904261e-09
4.47101e-09
4.446042e-09
4.445711e-09
4.445705e-09
4.44592e-09
4.446231e-09
4.499822e-09
4.506225e-09
4.457436e-09
4.457905e-09
4.526146e-09
4.526507e-09
4.527278e-09
4.528772e-09
5.013518e-09
5.005338e-09
4.968721e-09
4.929604e-09
4.472203e-09
4.445957e-09
4.445693e-09
4.445571e-09
4.445799e-09
4.446266e-09
4.522267e-09
4.508192e-09
4.457117e-09
4.457651e-09
4.522238e-09
4.522777e-09
4.523534e-09
4.525213e-09
5.019579e-09
5.084653e-09
5.052986e-09
4.954952e-09
4.47352e-09
4.445932e-09
4.445539e-09
4.445489e-09
4.445588e-09
4.447057e-09
5.336083e-09
4.475557e-09
4.456868e-09
4.457396e-09
4.518111e-09
4.518708e-09
4.519516e-09
4.52133e-09
5.02599e-09
5.092e-09
5.142347e-09
5.040254e-09
4.474834e-09
4.445843e-09
4.445514e-09
4.445394e-09
4.445559e-09
4.447169e-09
5.525567e-09
4.457248e-09
4.456548e-09
4.457146e-09
4.513762e-09
4.514361e-09
4.515303e-09
4.517245e-09
5.032547e-09
5.099529e-09
5.150533e-09
5.135253e-09
4.531355e-09
4.445668e-09
4.445263e-09
4.445215e-09
4.445439e-09
4.447242e-09
5.576056e-09
4.457056e-09
4.456233e-09
4.456893e-09
4.509124e-09
4.509737e-09
4.510824e-09
4.512918e-09
5.03923e-09
5.107278e-09
5.158865e-09
5.142838e-09
4.610199e-09
4.49719e-09
4.445277e-09
4.44508e-09
4.445305e-09
4.4471e-09
5.626621e-09
4.456862e-09
4.455979e-09
4.456581e-09
4.504131e-09
4.504832e-09
4.506066e-09
4.508256e-09
5.046284e-09
5.115348e-09
5.16753e-09
5.150688e-09
4.60691e-09
4.573067e-09
4.493202e-09
4.444993e-09
4.445082e-09
4.447145e-09
5.676486e-09
4.456479e-09
4.455472e-09
4.456328e-09
4.498842e-09
4.499645e-09
4.500981e-09
4.503416e-09
5.053373e-09
5.123569e-09
5.176476e-09
5.158673e-09
4.603428e-09
4.568934e-09
4.567349e-09
4.498678e-09
4.444955e-09
4.493417e-09
5.366504e-09
4.455812e-09
4.45535e-09
4.455952e-09
4.493188e-09
4.494047e-09
4.495566e-09
4.498256e-09
5.060676e-09
5.132124e-09
5.1856e-09
5.166906e-09
4.599616e-09
4.564379e-09
4.562847e-09
4.561847e-09
4.487089e-09
4.521498e-09
4.526363e-09
4.454435e-09
4.454906e-09
4.45583e-09
4.487103e-09
4.488097e-09
4.489748e-09
4.492591e-09
5.068254e-09
5.140811e-09
5.194872e-09
5.175197e-09
4.595468e-09
4.55963e-09
4.558106e-09
4.557184e-09
4.556794e-09
4.564174e-09
4.527501e-09
4.454055e-09
4.454658e-09
4.455581e-09
4.480644e-09
4.481664e-09
4.483482e-09
4.486607e-09
5.076068e-09
5.149854e-09
5.204634e-09
5.183719e-09
4.586075e-09
4.549961e-09
4.548868e-09
4.548467e-09
4.548715e-09
4.66109e-09
4.564657e-09
4.453675e-09
4.454405e-09
4.456538e-09
4.473673e-09
4.474808e-09
4.476742e-09
4.480052e-09
5.083926e-09
5.159135e-09
5.214618e-09
5.192529e-09
4.586181e-09
4.548813e-09
4.5475e-09
4.546881e-09
4.548588e-09
5.829697e-09
4.591905e-09
4.489506e-09
4.453306e-09
4.551388e-09
4.466061e-09
4.467331e-09
4.469468e-09
4.478475e-09
4.914499e-09
5.168547e-09
5.224747e-09
5.201248e-09
4.586032e-09
4.542785e-09
4.541676e-09
4.541293e-09
4.543463e-09
6.050839e-09
4.560398e-09
4.558876e-09
4.491155e-09
4.601603e-09
4.458048e-09
4.459354e-09
4.461745e-09
4.496694e-09
4.547334e-09
5.177761e-09
5.235304e-09
5.182645e-09
4.972831e-09
4.536724e-09
4.535308e-09
4.535199e-09
4.539221e-09
6.060225e-09
4.554952e-09
4.553631e-09
4.488628e-09
5.755744e-09
4.449307e-09
4.450674e-09
4.453276e-09
4.495022e-09
4.534014e-09
5.187756e-09
5.245952e-09
5.183119e-09
5.202753e-09
4.530067e-09
4.528419e-09
4.528651e-09
4.604407e-09
5.171271e-09
4.547946e-09
4.548191e-09
4.518856e-09
5.737595e-09
4.435491e-09
4.441472e-09
4.444238e-09
4.765711e-09
4.512456e-09
5.197958e-09
5.256939e-09
5.191681e-09
5.211489e-09
4.522474e-09
4.521065e-09
4.521623e-09
4.61352e-09
4.626237e-09
4.541349e-09
4.542557e-09
4.623067e-09
4.572826e-09
4.144339e-09
4.446327e-09
4.434693e-09
5.061469e-09
4.719023e-09
5.189236e-09
5.268173e-09
5.199778e-09
4.99275e-09
4.520472e-09
4.513095e-09
4.514149e-09
4.666749e-09
4.619542e-09
4.534679e-09
4.538412e-09
5.973887e-09
4.467903e-09
4.158823e-09
4.435855e-09
4.423906e-09
5.080867e-09
5.074782e-09
5.183903e-09
5.279262e-09
4.806286e-09
4.558899e-09
4.544163e-09
4.504411e-09
4.507979e-09
6.144837e-09
4.530655e-09
4.527754e-09
4.597201e-09
5.693143e-09
4.459681e-09
4.166334e-09
4.424113e-09
4.412009e-09
5.088932e-09
5.082524e-09
5.193898e-09
5.290623e-09
4.555435e-09
4.565452e-09
4.536091e-09
4.495023e-09
4.501879e-09
6.163922e-09
4.519808e-09
4.520314e-09
4.680578e-09
4.539357e-09
4.453022e-09
5.001035e-09
4.423317e-09
4.399543e-09
5.09806e-09
5.091073e-09
5.205347e-09
5.304201e-09
4.54762e-09
4.557975e-09
4.527556e-09
4.4857e-09
4.584779e-09
4.663704e-09
4.509383e-09
4.517253e-09
6.105206e-09
4.453856e-09
4.447531e-09
5.395507e-09
4.736235e-09
4.386372e-09
5.106763e-09
5.099162e-09
5.216804e-09
5.318117e-09