/*--------------------------------*- C++ -*----------------------------------*\
| =========                 |                                                 |
| \\      /  F ield         | OpenFOAM: The Open Source CFD Toolbox           |
|  \\    /   O peration     | Version:  2206                                  |
|   \\  /    A nd           | Website:  www.openfoam.com                      |
|    \\/     M anipulation  |                                                 |
\*---------------------------------------------------------------------------*/
FoamFile
{
    version     2.0;
    format      ascii;
    arch        "LSB;label=32;scalar=64";
    class       volScalarField;
    location    "2.2";
    object      alpha.a;
}
// * * * * * * * * * * * * * * * * * * * * * * * * * * * * * * * * * * * * * //

dimensions      [0 0 0 0 0 0 0];

internalField   nonuniform List<scalar> 
13078
(
0.4352271
0.5564647
0.5799449
0.5809296
0.5804842
0.579773
0.5789315
0.5615115
0.5793293
0.5815089
0.5811429
0.580527
0.5798016
0.5789548
0.581818
0.5822695
0.5818806
0.5812718
0.580599
0.5798485
0.5789901
0.5833564
0.5826527
0.5820171
0.5813705
0.5806697
0.5798989
0.5790297
0.5834973
0.5827571
0.5820995
0.5814317
0.5807286
0.5799468
0.5790689
0.5834573
0.5827738
0.5821378
0.5814717
0.5807616
0.5799865
0.5791056
0.583409
0.5827654
0.5821532
0.5814954
0.5807848
0.5800064
0.5791366
0.5833735
0.5827498
0.5821574
0.5815066
0.5807978
0.5800204
0.5791499
0.583348
0.5827349
0.5821535
0.5815094
0.5808044
0.5800292
0.5791595
0.5833295
0.5827223
0.5821476
0.581509
0.5808073
0.5800344
0.5791661
0.5833158
0.5827119
0.5821416
0.5815069
0.5808081
0.5800375
0.5791707
0.5833048
0.5827037
0.5821361
0.5815042
0.5808078
0.5800392
0.5791739
0.583296
0.5826967
0.5821311
0.5815013
0.5808068
0.58004
0.5791763
0.5832885
0.5826908
0.5821267
0.5814986
0.5808057
0.5800404
0.5791782
0.583282
0.5826856
0.5821229
0.5815001
0.5808101
0.5800413
0.5791798
0.5832762
0.582681
0.5821196
0.5815022
0.5808127
0.5800418
0.5791814
0.5832706
0.5826765
0.5821162
0.5815004
0.580812
0.5800421
0.579183
0.5832651
0.5826722
0.5821128
0.5814984
0.5808111
0.5800424
0.5791847
0.5832596
0.5826679
0.5821096
0.5814964
0.5808104
0.5800431
0.5791863
0.5832538
0.5826636
0.5821063
0.5814948
0.5808158
0.5800521
0.5791891
0.5832478
0.5826589
0.5821029
0.5814932
0.5808217
0.5800582
0.5791919
0.5832412
0.5826538
0.5820991
0.5814909
0.580822
0.5800596
0.5791943
0.583234
0.5826483
0.582095
0.5814885
0.5808213
0.5800611
0.5791976
0.5832259
0.5826421
0.5820904
0.5814858
0.5808214
0.5800713
0.5792131
0.5832166
0.5826351
0.582085
0.5814827
0.5808212
0.5800819
0.579224
0.5832062
0.582627
0.582079
0.5814791
0.5808202
0.5800852
0.5792292
0.5831939
0.5826175
0.5820719
0.5814748
0.5808188
0.5800872
0.5792348
0.5831799
0.5826066
0.5820636
0.5814695
0.5808169
0.5800897
0.5792529
0.5831636
0.5825937
0.5820537
0.5814631
0.5808142
0.5800913
0.5792708
0.5831466
0.5825807
0.5820427
0.5814553
0.5808101
0.580091
0.5792779
0.5831262
0.5825647
0.5820294
0.5814457
0.5808044
0.5800893
0.579282
0.5831024
0.5825491
0.5820192
0.581435
0.5807965
0.5800852
0.5792827
0.5830761
0.5825315
0.5820097
0.5814306
0.5807892
0.5800802
0.5792805
0.5830484
0.5825125
0.5820003
0.5814233
0.5807856
0.5800818
0.5792841
0.5830226
0.5824996
0.5820014
0.5814459
0.5808202
0.5801114
0.5793091
0.583006
0.5825079
0.5820386
0.5815176
0.5809148
0.5802028
0.57937
0.5830121
0.5825673
0.58215
0.581661
0.5810709
0.5803087
0.5794049
0.5830657
0.5827145
0.5823445
0.5818507
0.5812246
0.5803923
0.5793337
0.5832026
0.5829403
0.5825758
0.5820348
0.5813197
0.5803951
0.5791081
0.5834486
0.5832089
0.5827971
0.5821787
0.5813442
0.5802886
0.5788488
0.5837902
0.5834791
0.583023
0.5822804
0.5813379
0.5801819
0.5787849
0.5842142
0.5837308
0.5832169
0.5824115
0.5813903
0.5802878
0.5793378
0.5846715
0.5839595
0.5833754
0.5825699
0.5816869
0.5809045
0.5806091
0.5850898
0.5840773
0.5835154
0.5828117
0.5822423
0.5820021
0.5819776
0.5853339
0.5840819
0.5836112
0.5831939
0.5830436
0.5832103
0.583347
0.5853261
0.5840141
0.5837566
0.5836949
0.5838928
0.5842289
0.5844382
0.585195
0.5840437
0.5840412
0.5842219
0.5846746
0.5850679
0.5851442
0.5851258
0.5842629
0.5844931
0.5848032
0.5854216
0.5857066
0.5858502
0.5851343
0.5846089
0.5850208
0.5853873
0.5859939
0.5863459
0.5864941
0.5852091
0.5849669
0.5854911
0.5858992
0.586536
0.5868355
0.5869068
0.5853464
0.5853537
0.5858453
0.5862393
0.5868515
0.5870792
0.5871148
0.5854526
0.5856096
0.5862274
0.5866727
0.5871935
0.5872563
0.5872728
0.5854735
0.5856754
0.5862503
0.5866626
0.5871566
0.5872022
0.5871424
0.5854252
0.5856172
0.5861677
0.5865371
0.5869665
0.5868965
0.5867645
0.585356
0.5855238
0.586044
0.5863946
0.5867579
0.5866344
0.5864503
0.5852672
0.5853843
0.5858812
0.5862265
0.586543
0.5864065
0.5862088
0.5851157
0.5851139
0.5855693
0.5858954
0.5862013
0.586062
0.5858787
0.5850172
0.5849279
0.5853453
0.5856524
0.5859705
0.5858217
0.5856279
0.5849434
0.5847426
0.5850848
0.5853407
0.5856499
0.5854977
0.5852931
0.5848441
0.5844802
0.58469
0.584863
0.5851423
0.5850357
0.5848388
0.5847402
0.5842143
0.584212
0.5842604
0.5845653
0.584522
0.5843036
0.5846292
0.5839558
0.5838724
0.5838084
0.5840849
0.5840917
0.5838565
0.5845447
0.5837417
0.583549
0.5832468
0.5834302
0.5835259
0.5832741
0.5844864
0.5835632
0.5832695
0.5827835
0.5827932
0.5828778
0.5828645
0.5844955
0.5834926
0.5831254
0.5824714
0.5822682
0.5823243
0.5822785
0.5845916
0.5835143
0.5830726
0.5823434
0.5816902
0.5814742
0.5814564
0.5846889
0.5836126
0.5830502
0.5822584
0.5812309
0.5806703
0.5807918
0.5846167
0.5836537
0.5830077
0.5821491
0.581039
0.580035
0.5797881
0.584342
0.5836041
0.5829606
0.5820925
0.5809907
0.5797078
0.5787083
0.5839977
0.5834763
0.5828806
0.5820304
0.5809737
0.5796381
0.5781872
0.5836585
0.5832925
0.582773
0.5819951
0.5809963
0.5797532
0.5782145
0.5833685
0.5830947
0.5826466
0.5819599
0.5810715
0.5799489
0.5785647
0.5831593
0.5828775
0.5824781
0.5819022
0.5811382
0.5801737
0.5788533
0.5830367
0.5826803
0.5822943
0.5817759
0.5811211
0.5802928
0.5791474
0.5829892
0.5825468
0.5821256
0.5816256
0.5810244
0.5802651
0.5793135
0.5829842
0.5824889
0.582019
0.581498
0.5808952
0.5801701
0.5793249
0.583001
0.5824793
0.5819807
0.581432
0.5808067
0.5800953
0.5792828
0.5830278
0.5824925
0.5819816
0.5814124
0.5807755
0.5800605
0.5792594
0.5830564
0.5825131
0.5819952
0.5814126
0.5807691
0.5800602
0.57926
0.5830841
0.5825346
0.5820088
0.5814257
0.5807813
0.5800696
0.5792677
0.5831101
0.5825527
0.5820193
0.5814324
0.5807916
0.5800782
0.5792731
0.5831329
0.5825684
0.5820302
0.5814442
0.5808007
0.5800837
0.5792743
0.5831521
0.582584
0.5820439
0.5814545
0.5808076
0.5800868
0.5792721
0.583168
0.5825966
0.582055
0.5814628
0.5808126
0.5800884
0.5792671
0.5831835
0.5826091
0.5820649
0.5814697
0.580816
0.5800878
0.5792498
0.5831968
0.5826197
0.5820732
0.5814752
0.5808185
0.5800862
0.5792335
0.5832084
0.5826288
0.5820803
0.5814797
0.5808203
0.5800849
0.5792286
0.5832184
0.5826365
0.5820861
0.5814834
0.5808216
0.5800822
0.5792241
0.5832272
0.5826433
0.5820913
0.5814866
0.580822
0.5800713
0.5792131
0.5832349
0.5826493
0.5820958
0.5814892
0.580822
0.5800619
0.5791984
0.5832419
0.5826545
0.5820998
0.5814915
0.5808227
0.5800604
0.5791952
0.5832481
0.5826593
0.5821035
0.5814937
0.5808224
0.5800591
0.5791929
0.5832538
0.5826637
0.5821066
0.5814951
0.580816
0.5800525
0.57919
0.5832592
0.5826678
0.5821096
0.5814964
0.5808107
0.5800436
0.5791871
0.5832643
0.5826717
0.5821125
0.5814983
0.5808113
0.5800428
0.5791855
0.5832693
0.5826755
0.5821154
0.5815001
0.580812
0.5800425
0.5791839
0.5832743
0.5826795
0.5821185
0.5815016
0.5808126
0.5800422
0.5791823
0.5832794
0.5826835
0.5821213
0.581499
0.5808097
0.5800416
0.5791807
0.5832849
0.5826878
0.5821245
0.5814974
0.5808053
0.5800407
0.5791792
0.583291
0.5826927
0.5821283
0.5814998
0.5808064
0.5800406
0.5791777
0.5832981
0.5826985
0.5821326
0.5815025
0.5808076
0.5800402
0.579176
0.5833067
0.5827053
0.5821374
0.5815052
0.5808085
0.5800394
0.5791737
0.5833174
0.5827134
0.5821428
0.5815078
0.5808088
0.5800379
0.5791706
0.5833309
0.5827235
0.5821486
0.5815098
0.5808081
0.580035
0.5791662
0.5833489
0.5827361
0.5821542
0.5815105
0.5808054
0.5800298
0.5791595
0.5833738
0.5827508
0.5821554
0.5815058
0.5807987
0.580021
0.5791499
0.5834088
0.5827662
0.5821525
0.5814942
0.5807853
0.5800076
0.5791234
0.5834563
0.5827756
0.5821403
0.5814737
0.5807649
0.5799759
0.5790912
0.5834984
0.5827605
0.5821033
0.5814381
0.5807209
0.5799356
0.5790552
0.5833735
0.5826613
0.5820312
0.5813665
0.5806621
0.579889
0.5790159
0.582055
0.5823353
0.5818816
0.5812695
0.5805938
0.5798387
0.5789759
0.5639653
0.5801247
0.5816625
0.581153
0.5805169
0.5797875
0.5789375
0.57793
0.576673
0.5749969
0.5734044
0.5705724
0.5661257
0.5559073
0.5779539
0.5767023
0.5750333
0.5734464
0.5706242
0.5661968
0.556328
0.5779851
0.5767354
0.5750754
0.5728947
0.5706738
0.5662655
0.5565469
0.5780194
0.5767698
0.5751115
0.5735401
0.5707255
0.5663345
0.5567443
0.578054
0.5768054
0.5751523
0.573591
0.5707781
0.5664032
0.55688
0.5780876
0.5768411
0.5751935
0.5736389
0.5708297
0.5664712
0.5570053
0.5781193
0.5768757
0.575234
0.5736842
0.5708442
0.5665388
0.5571242
0.5781468
0.5769091
0.5752733
0.5737283
0.5708582
0.5666056
0.5572321
0.5781568
0.5769388
0.5753104
0.5737722
0.5708997
0.5666655
0.5573382
0.5781643
0.5769481
0.5753441
0.5738156
0.5709401
0.5667252
0.5574377
0.5781699
0.576955
0.5753538
0.573857
0.5709802
0.5667849
0.5575327
0.5781745
0.5769611
0.5753612
0.5738658
0.5710205
0.5668447
0.557624
0.5781783
0.5769666
0.5753684
0.5738739
0.571027
0.5669062
0.557711
0.5781816
0.5769718
0.5753755
0.5738822
0.5710344
0.5669164
0.5577834
0.5781848
0.576977
0.5753827
0.5738907
0.5710424
0.5669293
0.5577375
0.578188
0.5769823
0.5753901
0.5738997
0.5710511
0.5669435
0.5576882
0.5781911
0.5769877
0.5753976
0.5739093
0.5710648
0.5669586
0.5576496
0.5781944
0.5769931
0.5754058
0.5739239
0.5711818
0.5669752
0.5575952
0.5781978
0.5769986
0.5754143
0.5739349
0.5712016
0.5669923
0.5575465
0.5782015
0.5770045
0.5754232
0.5739464
0.5712157
0.5670106
0.5574906
0.5782054
0.5770107
0.5754325
0.5739586
0.5712306
0.5670299
0.5574152
0.5782098
0.5770174
0.5754421
0.5739718
0.5712463
0.5670503
0.5573529
0.5782144
0.5770249
0.5754529
0.5739834
0.571267
0.5670716
0.5572872
0.5782212
0.5770333
0.5754664
0.5734343
0.5713901
0.5671058
0.5572224
0.5782281
0.5770419
0.575478
0.5740065
0.5714466
0.5671341
0.5571585
0.5782347
0.5770514
0.5754918
0.5740352
0.5714722
0.5671609
0.5570919
0.578244
0.5770637
0.5755088
0.5740567
0.5714984
0.5671918
0.5570172
0.5782709
0.5770784
0.5755255
0.5740793
0.5715341
0.5674365
0.5569471
0.5782867
0.5774156
0.5759555
0.5740919
0.5715691
0.5675326
0.5568913
0.5782984
0.5774344
0.5759855
0.5741208
0.5716053
0.567576
0.5568369
0.5783344
0.5774782
0.5760065
0.5741508
0.5716473
0.5677734
0.5568086
0.5783517
0.5775129
0.5760279
0.5741852
0.5716961
0.5679782
0.5568205
0.5783563
0.5775732
0.5760549
0.5742206
0.5717507
0.5680644
0.5569583
0.5783576
0.5775904
0.5761026
0.5742476
0.571805
0.5682013
0.5587155
0.5783654
0.5775966
0.5761338
0.5742548
0.5718431
0.568438
0.5600401
0.5783573
0.5775883
0.5761489
0.5741743
0.5718122
0.5688122
0.5638025
0.5782442
0.577452
0.5758853
0.5738803
0.571666
0.5691077
0.563402
0.5779306
0.5770327
0.5753858
0.5736886
0.5713866
0.5685307
0.5637803
0.5774324
0.5763667
0.574767
0.5732735
0.5711119
0.5684703
0.5639163
0.5769491
0.5757007
0.5744545
0.5736079
0.5725166
0.5697916
0.564491
0.577168
0.5760692
0.5759003
0.5752263
0.5738234
0.5708781
0.5643524
0.5786962
0.5779303
0.5775696
0.5765456
0.5748263
0.5721486
0.5648062
0.5804134
0.5794496
0.5789265
0.57769
0.5757572
0.5729516
0.5651205
0.581816
0.5805587
0.5801614
0.5790718
0.5775254
0.5738075
0.5667472
0.5829426
0.5819586
0.5816058
0.5807112
0.5786794
0.5750932
0.5676821
0.5840264
0.5831068
0.583118
0.5819469
0.5799626
0.5774756
0.5700576
0.5850181
0.5841826
0.5842592
0.5831156
0.5819279
0.5784832
0.5734771
0.5855634
0.5850152
0.5848015
0.5840686
0.5822998
0.580074
0.5745798
0.5862573
0.5857221
0.5854032
0.5842854
0.5827069
0.5797606
0.575993
0.586892
0.5864408
0.5857637
0.5844223
0.5823379
0.5798301
0.5758606
0.5871124
0.5869888
0.5859178
0.5841992
0.5818213
0.579032
0.5757855
0.5871364
0.5871234
0.5857436
0.5837826
0.5813982
0.5782092
0.5743408
0.5869076
0.5870526
0.5855631
0.5838139
0.5816559
0.5782067
0.5743754
0.5866319
0.5867125
0.5854591
0.5837682
0.5820956
0.5795418
0.5742407
0.5863197
0.5864432
0.5851752
0.5836024
0.5820608
0.5819611
0.580133
0.586172
0.5860715
0.5848074
0.5832579
0.581795
0.5806056
0.5858139
0.585677
0.5843992
0.5829403
0.5814424
0.580264
0.5853987
0.5853558
0.5839569
0.5823668
0.580737
0.579034
0.5848787
0.5848263
0.5832041
0.5817711
0.5797454
0.5774598
0.573371
0.5844183
0.5841438
0.5824056
0.5805466
0.5784526
0.5751822
0.5708617
0.5838117
0.5834975
0.5821223
0.5799052
0.5768916
0.5740257
0.5703146
0.5834237
0.5831483
0.5817485
0.5801973
0.5784103
0.5756291
0.5718287
0.5829332
0.5826458
0.5814311
0.5800597
0.5784672
0.575831
0.5725404
0.5823102
0.5821129
0.5806662
0.5796386
0.5776197
0.5756127
0.5715387
0.5816224
0.5814815
0.5799756
0.5783883
0.5774028
0.5749949
0.5691666
0.5810832
0.5808808
0.578973
0.577952
0.575937
0.5740055
0.5661757
0.5803619
0.5801839
0.5785885
0.5766793
0.5750957
0.5708886
0.5609259
0.5793789
0.5794156
0.5774243
0.5760457
0.5732856
0.5698082
0.5608243
0.5783067
0.5784311
0.5768238
0.5749076
0.5729036
0.5688193
0.5625075
0.5769864
0.5770938
0.5761318
0.5743333
0.5723558
0.5683898
0.5610884
0.5762602
0.575456
0.575046
0.5738465
0.5715793
0.5685853
0.56059
0.576491
0.5746796
0.573875
0.5727906
0.571171
0.5685183
0.5604701
0.5771174
0.5753932
0.57398
0.5719516
0.5708876
0.5683587
0.5620229
0.5777133
0.5761813
0.5749009
0.5730052
0.5704673
0.5683279
0.5648306
0.578118
0.5768744
0.5755344
0.5738122
0.5712539
0.5685326
0.5649885
0.5782891
0.5772982
0.5759492
0.5739703
0.5716318
0.5688726
0.5631958
0.5783269
0.5774549
0.5761427
0.5741862
0.5717399
0.5686621
0.5619606
0.5783299
0.5774959
0.5761594
0.5742266
0.5717771
0.5682529
0.5591055
0.5783354
0.5775112
0.5760977
0.57422
0.5717627
0.5681081
0.5581119
0.5783419
0.5775177
0.5760456
0.5742005
0.5717269
0.5680381
0.5574217
0.5783405
0.5774839
0.5760213
0.5741731
0.5716848
0.5679686
0.5565934
0.5783244
0.577449
0.5760005
0.5741455
0.5716439
0.5678843
0.5566424
0.5782917
0.5774063
0.5759836
0.5741201
0.5716072
0.5675977
0.5567082
0.5782821
0.5773931
0.5759657
0.5740978
0.5715751
0.5675407
0.5567949
0.5782672
0.5770742
0.5755209
0.5740594
0.5715448
0.5675026
0.5568786
0.5782422
0.5770616
0.5755068
0.5740431
0.5715111
0.5672835
0.5569649
0.5782339
0.5770508
0.5754919
0.5740263
0.5714832
0.5671749
0.557057
0.5782281
0.577042
0.5754789
0.5740105
0.5714591
0.5671487
0.5571379
0.5782216
0.5770337
0.5754666
0.5739957
0.5714327
0.5671247
0.5572207
0.5782152
0.5770261
0.5754554
0.5739813
0.5713073
0.5670916
0.5572923
0.5782109
0.5770191
0.5754448
0.5739679
0.5712569
0.5670659
0.5573653
0.5782067
0.5770124
0.5754349
0.5739555
0.5712413
0.5670458
0.5574386
0.5782027
0.5770062
0.5754255
0.5739436
0.5712262
0.5670265
0.5575052
0.5781989
0.5770004
0.5754166
0.5739324
0.5712121
0.567008
0.5575696
0.5781956
0.5769949
0.5754083
0.5739216
0.5711988
0.5669905
0.5576252
0.5781923
0.5769894
0.5754002
0.573909
0.571135
0.5669736
0.5576745
0.5781892
0.5769841
0.5753926
0.5738972
0.5710596
0.5669577
0.5577223
0.5781862
0.576979
0.5753854
0.5738877
0.5710506
0.5669428
0.5577721
0.5781833
0.5769741
0.5753784
0.5738784
0.5710421
0.5669288
0.5577837
0.5781804
0.5769693
0.5753715
0.5738696
0.5710345
0.566916
0.5577761
0.5781772
0.5769644
0.5753648
0.5738607
0.571027
0.5668802
0.5576856
0.5781736
0.576959
0.575358
0.5738519
0.5710041
0.5668199
0.5575899
0.5781692
0.5769531
0.5753489
0.5738265
0.5709642
0.5667596
0.557489
0.5781635
0.5769451
0.5753161
0.573783
0.570924
0.5666995
0.5573867
0.5781557
0.576917
0.5752802
0.5737388
0.5708837
0.5666392
0.5572775
0.5781309
0.5768854
0.575242
0.5736938
0.5708445
0.5665756
0.557165
0.5781019
0.5768524
0.5752025
0.5736505
0.5708571
0.5665077
0.5570487
0.5780705
0.5768177
0.575162
0.5736044
0.5708074
0.5664394
0.5569255
0.5780369
0.5767817
0.5751208
0.5735585
0.5707555
0.5663708
0.5567916
0.5780014
0.5767453
0.5750793
0.5735127
0.5707032
0.5663015
0.556629
0.5779664
0.5767097
0.5750384
0.5734683
0.5706507
0.5662316
0.5564113
0.5779328
0.5766744
0.5749979
0.5734252
0.5705982
0.5661607
0.5560833
0.004096676
1.483817e-11
3.109393e-18
3.310149e-24
0
0
7.73221e-41
7.618799e-46
1.344394e-50
1.12727e-55
4.532784e-61
1.172136e-66
2.229857e-72
3.333964e-78
5.009684e-84
1.746835e-89
6.131877e-95
1.786708e-100
0.01016401
5.832833e-11
1.236354e-17
6.575068e-24
4.674222e-30
1.883369e-35
8.558892e-41
5.328639e-46
5.282681e-51
2.642778e-56
7.307712e-62
1.319638e-67
1.782785e-73
1.90208e-79
2.273507e-85
9.435696e-91
3.088632e-96
6.382471e-102
0.01183369
1.502574e-10
4.237498e-17
2.238693e-23
1.103638e-29
4.144459e-35
1.7659e-40
9.78969e-46
8.020124e-51
3.198088e-56
6.81929e-62
9.845942e-68
1.065718e-73
9.12862e-80
9.489387e-86
4.454132e-91
1.278372e-96
1.995515e-102
0.01277873
2.270729e-10
8.899376e-17
5.067722e-23
2.538014e-29
8.459008e-35
3.519431e-40
1.836943e-45
1.213192e-50
3.746312e-56
6.491746e-62
8.075463e-68
7.881574e-74
6.155378e-80
5.006612e-86
1.477662e-91
2.650928e-97
2.737351e-103
0.01371289
3.585734e-10
1.793894e-16
1.108728e-22
5.887618e-29
1.769177e-34
7.193084e-40
3.551447e-45
1.907904e-50
4.715652e-56
7.443249e-62
8.96056e-68
8.521011e-74
6.43566e-80
5.242433e-87
1.135448e-91
1.574062e-97
9.941799e-104
0.01461312
7.795881e-10
4.147766e-16
2.550617e-22
1.366516e-28
3.764983e-34
1.502248e-39
7.104438e-45
3.145583e-50
6.957808e-56
1.100821e-61
1.32748e-67
1.225222e-73
8.989681e-80
6.660341e-86
1.609944e-91
1.233151e-97
6.216828e-104
0.01550311
1.750293e-09
1.031165e-15
6.0714e-22
3.337084e-28
8.324027e-34
3.228881e-39
1.471425e-44
5.641518e-50
1.195078e-55
1.873085e-61
2.225827e-67
2.038128e-73
1.467452e-79
9.851339e-86
2.048298e-91
1.116867e-97
5.947352e-104
0.01637118
1.931354e-09
1.893543e-15
1.461584e-21
9.277081e-28
1.987519e-33
7.265024e-39
3.210302e-44
1.072771e-49
2.248165e-55
3.528868e-61
4.32263e-67
4.097956e-73
3.153416e-79
2.246162e-85
3.520059e-91
1.72555e-97
9.71601e-104
0.0172038
2.19319e-09
3.424723e-15
3.916725e-21
2.747073e-27
5.269221e-33
1.72843e-38
7.371882e-44
2.161732e-49
4.568064e-55
7.522641e-61
9.895448e-67
9.998165e-73
7.880111e-79
5.803545e-85
7.329615e-91
3.960947e-97
2.417956e-103
0.01807446
2.868431e-09
6.818403e-15
1.078607e-20
6.943286e-27
1.38112e-32
4.215004e-38
1.642883e-43
4.625304e-49
1.04663e-54
1.890579e-60
2.612359e-66
2.741986e-72
2.201561e-78
1.735008e-84
2.13505e-90
1.308554e-96
8.47533e-103
0.0189417
3.114471e-09
8.267844e-15
1.80151e-20
1.423988e-26
3.102231e-32
1.028208e-37
3.378711e-43
1.074731e-48
2.759064e-54
5.383247e-60
7.788534e-66
8.566065e-72
7.18924e-78
6.086374e-84
7.882929e-90
5.302787e-96
3.549563e-102
0.01976898
3.316079e-09
8.925402e-15
2.169141e-20
2.458464e-26
6.490586e-32
2.828711e-37
1.574966e-42
3.507322e-48
9.187714e-54
1.869722e-59
2.882274e-65
3.267479e-71
2.873456e-77
2.678503e-83
3.843629e-89
2.642265e-95
1.831684e-101
0.02061995
2.889455e-09
1.011676e-14
2.851598e-20
4.065189e-26
1.346116e-31
7.080659e-37
4.328077e-42
1.41644e-47
3.856714e-53
8.191667e-59
1.297039e-64
1.522834e-70
1.37093e-76
1.387512e-82
1.983622e-88
1.437109e-94
1.041395e-100
0.02157034
2.592452e-09
9.211005e-15
2.818398e-20
6.01829e-26
2.37072e-31
1.290128e-36
7.976887e-42
2.956418e-47
9.643012e-53
2.284164e-58
3.949524e-64
5.09054e-70
4.943888e-76
5.559339e-82
7.348396e-88
6.013383e-94
4.625953e-100
0.02653709
8.34877e-09
1.219864e-14
3.929189e-20
9.762773e-26
4.294584e-31
2.337115e-36
1.209655e-41
3.353011e-47
1.036799e-52
2.471159e-58
4.461152e-64
6.196468e-70
7.446368e-76
1.028242e-81
1.676472e-87
1.54624e-93
1.405962e-99
0.02766492
0
1.127648e-14
4.684891e-20
1.666441e-25
9.019648e-31
6.131618e-36
2.55586e-41
7.218096e-47
1.965279e-52
4.458921e-58
8.04169e-64
1.169781e-69
1.506397e-75
2.464233e-81
4.714256e-87
4.765868e-93
5.058142e-99
0.029333
1.532526e-08
0
4.561831e-20
2.598318e-25
1.572132e-30
1.322876e-35
1.03789e-40
2.517919e-46
7.021871e-52
1.544882e-57
2.674555e-63
3.730472e-69
4.699626e-75
8.928501e-81
1.736863e-86
1.75801e-92
2.013858e-98
0.03118285
1.987745e-08
1.320705e-13
0
3.540833e-25
2.359001e-30
2.37584e-35
2.428209e-40
8.873332e-46
2.76322e-51
6.334463e-57
1.097883e-62
1.511153e-68
1.924247e-74
6.639862e-80
1.08581e-85
8.602292e-92
1.053178e-97
0.03317723
2.551888e-08
1.920753e-13
1.140228e-18
0
2.654366e-30
3.562842e-35
4.124843e-40
2.229913e-45
8.968502e-51
2.420658e-56
4.576619e-62
6.598771e-68
8.793319e-74
9.230325e-79
3.804677e-85
5.063102e-91
6.168916e-97
0.03515666
3.211064e-08
2.803309e-13
1.893884e-18
1.110425e-23
0
3.716852e-35
5.163007e-40
3.153473e-45
1.726687e-50
6.546317e-56
1.608797e-61
2.785758e-67
4.320194e-73
1.109743e-77
0
2.785961e-90
3.227373e-96
0.03710669
4.040581e-08
4.05993e-13
3.160123e-18
2.091436e-23
7.674586e-29
0
5.045283e-40
5.051473e-45
3.925664e-50
1.927077e-55
5.923796e-61
1.284904e-66
2.311358e-72
2.780919e-77
0
1.49165e-89
1.842515e-95
0.03911937
5.03109e-08
5.822866e-13
5.140138e-18
3.9988e-23
1.659419e-28
9.795674e-34
0
5.235385e-45
7.944047e-50
5.000121e-55
1.94794e-60
5.660715e-66
1.279818e-71
8.099168e-77
5.538117e-83
1.020338e-88
1.318837e-94
0.04125159
6.277416e-08
8.397321e-13
8.525098e-18
7.61501e-23
3.554472e-28
2.266018e-33
1.851039e-38
0
9.247787e-50
1.179501e-54
5.761264e-60
2.175331e-65
6.800752e-71
7.548846e-76
4.136268e-82
6.554622e-88
8.451159e-94
0.04350198
7.822392e-08
1.202964e-12
1.410584e-17
1.426913e-22
7.507485e-28
5.344741e-33
4.571371e-38
2.11219e-43
0
1.506378e-54
1.287718e-59
6.999452e-65
3.671282e-70
1.408357e-74
4.21513e-81
4.16812e-87
5.261697e-93
0.04594111
9.67901e-08
1.711644e-12
2.302363e-17
2.675354e-22
1.575481e-27
1.241777e-32
1.158106e-37
5.518818e-43
3.223883e-48
0
2.857478e-59
1.642135e-64
1.83101e-69
2.76824e-73
5.233947e-80
2.378924e-86
3.507213e-92
0.04846998
1.20477e-07
2.455516e-12
3.749168e-17
5.027134e-22
3.283173e-27
2.879057e-32
2.953193e-37
1.500102e-42
9.116322e-48
5.156688e-53
0
1.66682e-64
6.532448e-69
3.263165e-72
1.071764e-79
1.282617e-85
3.26491e-91
0.05119415
1.492471e-07
3.522037e-12
6.156615e-17
9.455365e-22
6.852349e-27
6.665898e-32
7.560824e-37
4.072607e-42
2.724454e-47
1.618301e-52
9.434319e-58
0
7.098719e-68
2.385665e-73
4.522019e-79
9.79619e-85
6.037036e-90
0.05411277
1.852154e-07
5.018187e-12
1.01855e-16
1.807638e-21
1.43442e-26
1.572942e-31
1.941164e-36
1.104176e-41
8.156638e-47
5.333007e-52
3.045227e-57
2.067229e-62
1.266941e-66
1.351829e-72
3.649694e-78
8.814493e-84
1.495984e-88
0.05718816
2.286758e-07
7.113269e-12
1.718388e-16
3.812058e-21
3.481739e-26
4.481391e-31
5.56753e-36
2.998383e-41
2.387538e-46
1.848055e-51
1.107191e-56
7.273086e-62
1.376096e-65
0
7.150747e-78
8.12841e-83
3.354258e-87
0.06053421
2.786213e-07
9.721247e-12
2.704081e-16
1.181621e-20
7.49195e-26
9.672202e-31
1.239861e-35
8.890229e-41
6.918576e-46
7.143639e-51
4.221101e-56
3.164207e-61
2.438312e-65
1.008507e-71
3.524038e-78
8.441816e-82
5.121223e-86
0.06409845
3.312672e-07
1.211011e-11
3.011009e-16
2.613042e-20
1.119167e-25
1.666466e-30
1.962736e-35
7.399264e-40
1.865202e-45
2.060315e-50
1.417393e-55
1.894812e-60
2.491291e-65
1.488353e-70
6.758348e-76
9.100091e-81
4.134781e-85
0.06788307
3.750078e-07
1.439407e-11
3.468471e-16
5.790268e-21
1.591831e-25
2.833347e-30
3.885846e-35
1.083397e-39
3.089863e-45
3.032862e-50
3.102412e-55
1.155086e-59
3.437378e-66
6.979694e-70
5.122148e-75
2.970687e-79
4.237345e-85
0.07201585
4.521155e-07
1.942402e-11
2.628586e-16
1.094938e-20
2.651039e-25
4.605566e-30
7.246243e-35
8.058166e-40
1.054705e-44
1.22908e-49
1.336601e-54
1.316516e-58
3.259109e-64
3.533961e-69
1.024881e-73
8.6452e-78
2.654203e-84
0.07709631
8.731394e-07
4.593021e-11
1.233247e-15
1.055517e-20
8.253255e-25
1.244476e-29
1.61147e-34
4.558225e-40
8.55787e-44
8.063788e-49
9.68546e-54
2.080287e-57
1.714022e-63
4.602948e-68
3.587061e-72
5.817849e-77
0
0.09220635
1.183909e-06
7.656697e-11
4.648568e-15
7.591156e-21
2.049744e-24
3.374982e-29
9.29966e-35
0
3.135949e-43
3.259884e-48
6.247105e-53
2.018478e-56
0
1.053642e-66
1.781475e-70
1.420408e-75
1.835697e-80
0.1028455
1.266814e-06
8.921864e-11
7.482337e-15
2.063186e-19
4.022651e-24
8.523168e-29
0
3.659048e-38
3.729656e-43
7.708352e-48
4.712806e-52
3.944879e-56
1.219765e-60
1.26196e-64
2.565731e-68
6.186119e-73
6.586928e-78
0.1218518
1.148781e-06
1.448602e-10
2.39978e-14
6.63214e-19
8.909511e-24
1.537598e-28
1.913139e-33
5.08641e-38
1.124469e-42
3.223926e-47
6.263214e-51
2.084216e-54
2.381048e-58
3.314455e-62
6.563441e-66
7.649862e-71
2.151464e-75
0.2219534
4.623035e-08
2.517518e-10
3.473692e-14
7.592493e-19
7.470354e-24
1.209689e-28
1.36855e-33
5.51458e-38
2.808654e-42
6.431888e-46
4.670159e-49
3.824737e-52
6.098495e-56
8.984357e-60
1.50094e-63
2.348137e-68
5.879691e-73
0.3578707
1.605376e-05
1.045513e-09
4.537239e-14
1.318023e-19
1.642399e-24
8.688128e-29
3.414135e-33
4.220084e-37
1.335003e-40
9.861954e-44
7.771951e-47
6.529346e-50
1.270201e-53
2.035485e-57
3.97575e-61
5.841054e-66
1.303823e-70
0.4737542
0.0001107451
3.855232e-09
4.74173e-14
7.102748e-20
1.116266e-23
9.751015e-28
4.935447e-32
1.517885e-35
1.282006e-38
1.558136e-41
1.129889e-44
9.553147e-48
1.936719e-51
2.330139e-55
5.674802e-59
1.246398e-63
2.323107e-68
0.5255121
0.0001162258
2.689087e-09
1.104685e-16
1.437033e-19
4.906572e-23
6.018169e-27
9.714374e-31
9.576809e-34
1.270416e-36
2.164972e-39
1.508232e-42
1.375209e-45
2.22264e-49
3.191942e-53
7.839026e-57
2.265754e-61
3.349853e-66
0.5317869
0
4.590752e-11
1.461732e-16
1.798461e-19
9.005103e-23
5.804158e-26
4.695183e-29
7.50876e-32
1.183184e-34
2.504642e-37
1.993622e-40
1.754817e-43
3.459564e-48
4.097275e-51
1.02491e-54
3.600678e-59
3.405448e-64
0.5349802
0
0
1.782131e-15
2.347229e-18
1.464637e-21
2.383673e-24
3.046647e-27
5.893131e-30
9.908505e-33
2.337485e-35
1.368967e-38
1.834363e-41
0
3.435537e-49
1.119267e-52
4.086762e-57
1.640166e-62
0.5436817
0.0004180585
0
1.891554e-14
6.508755e-17
9.6048e-20
1.390143e-22
2.034773e-25
4.131001e-28
7.25207e-31
1.676967e-33
7.401777e-37
1.442285e-39
2.003941e-44
2.246545e-47
8.599867e-51
2.358857e-55
4.71469e-61
0.5476711
0.0005791122
9.698462e-10
6.850721e-13
3.043702e-15
7.425716e-18
8.629938e-21
1.250526e-23
2.439671e-26
4.471337e-29
1.108155e-31
3.38926e-35
8.476272e-38
1.052105e-42
5.326209e-46
2.433229e-49
8.406788e-54
6.350573e-60
0.5504286
0.0008473709
1.993745e-08
3.127209e-11
1.475204e-13
5.295835e-16
4.773536e-19
6.876124e-22
9.813066e-25
2.067004e-27
4.150071e-30
8.289875e-34
2.898482e-36
2.014967e-41
0
2.944544e-48
1.358167e-52
1.971278e-59
0.5505019
0.0005171042
9.687509e-07
1.605581e-09
6.629295e-12
2.648374e-14
2.271269e-17
3.374742e-20
3.079531e-23
4.506871e-26
7.746667e-29
6.850775e-33
4.337465e-35
2.777087e-40
3.743705e-44
0
1.501013e-52
0
0.5556328
0.02027118
2.353675e-05
7.625602e-08
2.910107e-10
7.659593e-13
8.398816e-16
1.429058e-18
2.862142e-22
6.243904e-25
5.488691e-28
3.735225e-31
6.628721e-34
4.273471e-39
0
4.875724e-47
0
4.578773e-57
0.5594056
0.07375719
0.0002970073
2.220718e-06
1.654599e-08
1.521696e-11
1.899109e-14
3.085663e-17
6.424433e-21
4.901498e-25
7.909767e-28
3.616441e-30
1.31564e-33
0
7.06117e-43
0
6.572712e-51
0
0.5650658
0.2189316
0.002019116
5.570032e-05
3.288831e-20
0
0
0
0
0
2.604578e-42
3.599347e-46
2.27955e-51
0
0.5653502
0.5453768
6.522101e-29
5.728726e-32
0
4.565055e-39
4.755325e-44
6.182178e-48
0
2.496477e-58
0.569616
0
2.630464e-34
7.142021e-39
2.339542e-44
6.605141e-48
2.507564e-52
2.518734e-57
1.356598e-34
2.104454e-39
1.768689e-44
1.496203e-48
5.435508e-53
1.05304e-56
6.284271e-39
6.223505e-44
6.550975e-48
5.154998e-52
9.134703e-56
1.23975e-36
8.405148e-42
9.719919e-46
2.767698e-49
2.347333e-53
1.281298e-35
5.576917e-40
2.14415e-43
4.3498e-47
4.91714e-51
0
2.719479e-38
2.229864e-41
5.936725e-45
8.946891e-49
0
0
1.159949e-39
4.336186e-43
8.733068e-47
2.270051e-32
1.022595e-35
1.375434e-38
9.454587e-42
2.725182e-45
0
0
6.03602e-35
1.367503e-37
3.627298e-41
6.673423e-45
0.5617288
5.187459e-27
0
1.307586e-33
4.057541e-37
1.817395e-40
2.209216e-44
0.5590105
0.5279054
3.515073e-25
6.078103e-28
2.973978e-30
4.008459e-33
1.880796e-36
5.02532e-40
9.540821e-44
0.5586254
0.4400738
0.003151038
0
6.62201e-22
2.067929e-23
4.52385e-26
4.391856e-29
4.659657e-32
9.288009e-36
4.319259e-39
4.246356e-43
0.5522828
0.1443729
0.001392462
2.081741e-05
3.858344e-07
4.679289e-09
3.168213e-11
1.538228e-13
1.232892e-15
5.636338e-18
2.40508e-20
5.066356e-23
7.673018e-26
4.799455e-29
1.476339e-32
7.629163e-36
1.42583e-39
7.857437e-44
0.5512632
0.05943063
0.0001922035
8.772757e-07
7.324388e-09
6.124382e-11
3.297618e-13
1.58371e-15
5.979002e-18
2.191622e-20
8.194248e-23
7.74673e-26
4.014997e-29
5.749145e-32
7.061211e-36
5.631038e-39
3.553147e-43
6.416314e-47
0.549336
0.04730576
4.669514e-05
1.17205e-07
2.845385e-10
9.079772e-13
2.883676e-15
1.0961e-17
3.761117e-20
5.565873e-23
1.52253e-25
2.999786e-28
1.525336e-31
3.370747e-35
5.715492e-38
1.498448e-41
6.745755e-45
1.493558e-50
0.5474793
0.01155806
6.905456e-06
4.915137e-09
7.035191e-12
1.789404e-14
3.397419e-17
6.809233e-20
1.430419e-22
3.028961e-25
1.609061e-28
2.193487e-31
8.340506e-35
9.105321e-38
2.598081e-41
2.208644e-44
2.712357e-48
6.579274e-52
0.5441801
0.005415184
2.714921e-06
2.654752e-09
3.605908e-12
4.013043e-15
4.640551e-18
5.202557e-21
5.953278e-24
6.321909e-27
4.174987e-30
3.395422e-33
0
4.481827e-41
0
6.292261e-47
2.727773e-50
0
0.5406331
0.003638296
2.422528e-06
2.264485e-09
2.618205e-12
3.013436e-15
3.447748e-18
3.454369e-21
3.391469e-24
2.758731e-27
1.898287e-30
1.048622e-33
5.165727e-37
6.513365e-42
2.490388e-45
7.223214e-49
4.05503e-53
6.200285e-57
0.5385826
0.001952696
1.523015e-06
1.041562e-09
1.160756e-12
1.214091e-15
1.178034e-18
9.425626e-22
7.013415e-25
4.261926e-28
2.329453e-31
5.151334e-36
5.545675e-39
0
2.375818e-46
6.209179e-50
9.266041e-54
1.054517e-58
0.5343035
0.001660734
1.465811e-06