/*--------------------------------*- C++ -*----------------------------------*\
| =========                 |                                                 |
| \\      /  F ield         | OpenFOAM: The Open Source CFD Toolbox           |
|  \\    /   O peration     | Version:  2206                                  |
|   \\  /    A nd           | Website:  www.openfoam.com                      |
|    \\/     M anipulation  |                                                 |
\*---------------------------------------------------------------------------*/
FoamFile
{
    version     2.0;
    format      ascii;
    arch        "LSB;label=32;scalar=64";
    class       volScalarField;
    location    "2.2";
    object      alpha.a_0;
}
// * * * * * * * * * * * * * * * * * * * * * * * * * * * * * * * * * * * * * //

dimensions      [0 0 0 0 0 0 0];

internalField   nonuniform List<scalar> 
13078
(
0.4337738
0.5564542
0.5799502
0.5809318
0.5804852
0.5797737
0.5789321
0.5614811
0.5793331
0.5815121
0.5811442
0.5805279
0.5798023
0.5789555
0.5818221
0.5822727
0.581882
0.5812727
0.5805997
0.5798491
0.5789907
0.5833567
0.5826534
0.5820177
0.5813711
0.5806703
0.5798995
0.5790302
0.5834966
0.5827571
0.5820997
0.581432
0.580729
0.5799473
0.5790693
0.5834567
0.5827736
0.5821378
0.5814719
0.5807619
0.5799868
0.579106
0.5834085
0.5827652
0.5821531
0.5814955
0.580785
0.5800067
0.5791369
0.5833731
0.5827497
0.5821573
0.5815067
0.5807979
0.5800206
0.5791501
0.5833477
0.5827348
0.5821534
0.5815095
0.5808045
0.5800293
0.5791597
0.5833293
0.5827222
0.5821475
0.581509
0.5808074
0.5800346
0.5791662
0.5833156
0.5827118
0.5821416
0.5815069
0.5808082
0.5800376
0.5791709
0.5833046
0.5827036
0.5821361
0.5815042
0.5808078
0.5800393
0.5791741
0.5832958
0.5826967
0.5821311
0.5815014
0.5808069
0.5800401
0.5791764
0.5832884
0.5826908
0.5821267
0.5814987
0.5808058
0.5800405
0.5791783
0.5832819
0.5826857
0.582123
0.5815002
0.5808102
0.5800414
0.57918
0.5832761
0.5826811
0.5821197
0.5815023
0.5808128
0.5800419
0.5791816
0.5832705
0.5826766
0.5821162
0.5815005
0.5808121
0.5800422
0.5791832
0.5832651
0.5826723
0.5821129
0.5814985
0.5808113
0.5800425
0.5791848
0.5832596
0.582668
0.5821097
0.5814965
0.5808105
0.5800432
0.5791864
0.5832539
0.5826637
0.5821065
0.581495
0.580816
0.5800523
0.5791893
0.5832479
0.582659
0.5821031
0.5814934
0.5808219
0.5800584
0.5791921
0.5832413
0.582654
0.5820993
0.581491
0.5808221
0.5800598
0.5791944
0.5832341
0.5826486
0.5820952
0.5814887
0.5808215
0.5800613
0.5791978
0.583226
0.5826423
0.5820906
0.581486
0.5808217
0.5800715
0.5792133
0.5832168
0.5826353
0.5820853
0.581483
0.5808215
0.5800821
0.5792242
0.5832064
0.5826273
0.5820793
0.5814794
0.5808205
0.5800855
0.5792295
0.5831942
0.5826179
0.5820723
0.5814752
0.5808191
0.5800874
0.5792351
0.5831803
0.5826071
0.582064
0.58147
0.5808173
0.58009
0.5792532
0.583164
0.5825943
0.5820543
0.5814636
0.5808147
0.5800917
0.5792711
0.5831471
0.5825814
0.5820433
0.5814559
0.5808107
0.5800915
0.5792783
0.5831269
0.5825654
0.5820301
0.5814464
0.5808051
0.5800899
0.5792825
0.5831031
0.5825499
0.58202
0.5814359
0.5807972
0.5800859
0.5792833
0.5830769
0.5825324
0.5820107
0.5814315
0.5807901
0.5800811
0.5792813
0.5830493
0.5825135
0.5820013
0.5814243
0.5807866
0.5800829
0.5792851
0.5830236
0.5825007
0.5820026
0.581447
0.5808213
0.5801126
0.5793103
0.583007
0.582509
0.5820398
0.5815188
0.580916
0.5802041
0.5793714
0.5830131
0.5825683
0.5821512
0.5816622
0.5810721
0.58031
0.5794064
0.5830666
0.5827155
0.5823456
0.5818518
0.5812257
0.5803935
0.5793349
0.5832033
0.5829412
0.5825768
0.5820357
0.5813205
0.5803958
0.5791086
0.5834492
0.5832097
0.5827978
0.5821792
0.5813444
0.5802883
0.5788476
0.5837905
0.5834796
0.5830233
0.5822803
0.5813371
0.5801795
0.5787752
0.5842141
0.5837308
0.5832165
0.5824104
0.5813875
0.5802776
0.5792964
0.584671
0.5839588
0.5833741
0.582567
0.5816784
0.5808731
0.5805564
0.5850887
0.584076
0.5835126
0.5828055
0.5822207
0.5819588
0.5819587
0.5853325
0.5840793
0.5836058
0.5831845
0.5830144
0.5831843
0.5833761
0.5853236
0.5840089
0.583749
0.5836829
0.5838717
0.5842453
0.5845072
0.585191
0.5840366
0.584034
0.5842066
0.5846817
0.585129
0.5852461
0.5851195
0.5842593
0.5844884
0.5848011
0.5854641
0.5857998
0.5859845
0.5851276
0.5846111
0.585024
0.5854132
0.5860724
0.58647
0.5866489
0.5852045
0.5849742
0.5855092
0.5859575
0.5866502
0.5869891
0.5870765
0.5853489
0.5853687
0.5858772
0.5863278
0.5869943
0.5872559
0.5873056
0.5854673
0.5856366
0.5862826
0.5867883
0.5873569
0.5874462
0.5874805
0.5855015
0.5857158
0.5863312
0.5867957
0.5873333
0.5874019
0.5873552
0.5854641
0.5856668
0.5862612
0.5866827
0.5871539
0.5871041
0.5869763
0.5854055
0.5855806
0.5861454
0.5865474
0.5869503
0.5868443
0.5866627
0.5853295
0.5854472
0.5859866
0.5863819
0.5867363
0.5866157
0.5864205
0.5851852
0.58518
0.5856731
0.5860475
0.5863917
0.5862692
0.5860897
0.5850862
0.5849958
0.5854446
0.5857974
0.5861555
0.5860263
0.5858374
0.5850109
0.5848135
0.5851794
0.5854749
0.5858244
0.5856949
0.5854965
0.5849048
0.5845525
0.5847784
0.584981
0.5852985
0.5852173
0.5850349
0.5847859
0.5842838
0.5842879
0.5843625
0.5847034
0.584691
0.5844928
0.5846557
0.5840184
0.5839462
0.5838989
0.584205
0.5842472
0.5840325
0.5845554
0.5837936
0.5836261
0.5833285
0.5835285
0.5836593
0.5834338
0.5844878
0.5835994
0.5833382
0.5828582
0.5828709
0.5829851
0.583015
0.5844934
0.5835091
0.5831779
0.5825387
0.5823346
0.582408
0.5824102
0.58459
0.5835166
0.5831024
0.5824032
0.5817519
0.581537
0.581553
0.5846881
0.5836113
0.5830591
0.5823016
0.5812843
0.5807127
0.5808575
0.5846165
0.5836532
0.583008
0.5821662
0.5810797
0.5800717
0.5798248
0.5843419
0.5836041
0.5829603
0.5820945
0.5810096
0.5797442
0.5787284
0.5839979
0.5834767
0.5828809
0.5820302
0.5809768
0.579657
0.5782112
0.5836589
0.5832933
0.5827737
0.5819956
0.5809963
0.5797561
0.5782302
0.583369
0.5830956
0.5826476
0.5819608
0.5810722
0.5799494
0.5785667
0.58316
0.5828785
0.5824793
0.5819034
0.5811394
0.5801748
0.5788543
0.5830375
0.5826813
0.5822956
0.5817773
0.5811225
0.5802942
0.5791489
0.5829901
0.5825479
0.5821269
0.5816269
0.5810258
0.5802667
0.5793151
0.5829851
0.58249
0.5820202
0.5814993
0.5808966
0.5801715
0.5793265
0.5830019
0.5824804
0.5819818
0.5814333
0.580808
0.5800966
0.5792842
0.5830287
0.5824935
0.5819827
0.5814135
0.5807767
0.5800617
0.5792606
0.5830573
0.582514
0.5819962
0.5814136
0.5807702
0.5800613
0.5792611
0.5830848
0.5825355
0.5820097
0.5814267
0.5807823
0.5800706
0.5792686
0.5831108
0.5825535
0.5820201
0.5814333
0.5807924
0.5800789
0.5792739
0.5831335
0.5825691
0.5820309
0.5814449
0.5808014
0.5800844
0.5792749
0.5831526
0.5825846
0.5820445
0.5814551
0.5808082
0.5800873
0.5792726
0.5831685
0.5825972
0.5820555
0.5814634
0.580813
0.5800888
0.5792674
0.5831838
0.5826096
0.5820653
0.5814702
0.5808164
0.5800881
0.5792501
0.5831971
0.5826201
0.5820736
0.5814756
0.5808188
0.5800865
0.5792337
0.5832087
0.5826292
0.5820806
0.58148
0.5808206
0.5800852
0.5792288
0.5832186
0.5826368
0.5820864
0.5814837
0.5808219
0.5800824
0.5792243
0.5832274
0.5826435
0.5820915
0.5814868
0.5808222
0.5800715
0.5792133
0.5832351
0.5826495
0.582096
0.5814894
0.5808222
0.5800621
0.5791985
0.583242
0.5826547
0.5820999
0.5814917
0.5808229
0.5800606
0.5791954
0.5832482
0.5826595
0.5821036
0.5814939
0.5808226
0.5800592
0.5791931
0.5832539
0.5826639
0.5821067
0.5814953
0.5808162
0.5800527
0.5791901
0.5832592
0.5826679
0.5821097
0.5814966
0.5808109
0.5800438
0.5791872
0.5832643
0.5826718
0.5821126
0.5814984
0.5808114
0.5800429
0.5791856
0.5832693
0.5826756
0.5821155
0.5815002
0.5808121
0.5800426
0.579184
0.5832743
0.5826796
0.5821186
0.5815017
0.5808127
0.5800424
0.5791824
0.5832793
0.5826835
0.5821214
0.581499
0.5808098
0.5800417
0.5791808
0.5832848
0.5826878
0.5821245
0.5814974
0.5808054
0.5800408
0.5791794
0.5832909
0.5826927
0.5821283
0.5814998
0.5808064
0.5800407
0.5791778
0.5832979
0.5826985
0.5821326
0.5815025
0.5808076
0.5800403
0.5791761
0.5833065
0.5827053
0.5821374
0.5815052
0.5808085
0.5800395
0.5791739
0.5833172
0.5827134
0.5821427
0.5815078
0.5808089
0.580038
0.5791707
0.5833306
0.5827234
0.5821486
0.5815098
0.5808082
0.5800351
0.5791663
0.5833486
0.5827359
0.5821541
0.5815105
0.5808055
0.5800299
0.5791596
0.5833734
0.5827506
0.5821553
0.5815058
0.5807988
0.5800211
0.5791501
0.5834083
0.5827661
0.5821524
0.5814942
0.5807855
0.5800078
0.5791236
0.5834557
0.5827754
0.5821404
0.5814739
0.5807651
0.5799762
0.5790915
0.5834977
0.5827605
0.5821035
0.5814384
0.5807213
0.5799359
0.5790556
0.5833737
0.582662
0.5820317
0.5813671
0.5806626
0.5798895
0.5790164
0.5820579
0.5823382
0.581883
0.5812704
0.5805945
0.5798393
0.5789765
0.5639213
0.5801247
0.5816649
0.5811543
0.5805177
0.5797882
0.5789381
0.5779306
0.5766735
0.5749973
0.5734047
0.5705725
0.5661255
0.5559065
0.5779545
0.5767027
0.5750336
0.5734466
0.5706243
0.5661968
0.5563276
0.5779856
0.5767358
0.5750757
0.5728949
0.5706739
0.5662654
0.5565465
0.5780198
0.5767702
0.5751118
0.5735403
0.5707256
0.5663344
0.556744
0.5780544
0.5768057
0.5751526
0.5735912
0.5707782
0.5664031
0.5568797
0.5780879
0.5768414
0.5751938
0.5736391
0.5708298
0.5664711
0.5570049
0.5781196
0.576876
0.5752342
0.5736843
0.5708442
0.5665386
0.5571238
0.5781471
0.5769093
0.5752735
0.5737283
0.5708582
0.5666055
0.5572316
0.578157
0.5769391
0.5753105
0.5737723
0.5708997
0.5666653
0.5573377
0.5781645
0.5769483
0.5753443
0.5738156
0.57094
0.566725
0.5574372
0.5781701
0.5769552
0.5753539
0.5738571
0.5709801
0.5667846
0.5575321
0.5781747
0.5769613
0.5753613
0.5738658
0.5710204
0.5668444
0.5576234
0.5781784
0.5769668
0.5753685
0.5738739
0.5710269
0.5669059
0.5577103
0.5781818
0.5769719
0.5753756
0.5738822
0.5710342
0.566916
0.5577827
0.5781849
0.5769771
0.5753828
0.5738907
0.5710422
0.5669289
0.5577366
0.5781881
0.5769824
0.5753901
0.5738996
0.571051
0.5669431
0.5576872
0.5781913
0.5769878
0.5753977
0.5739093
0.5710645
0.5669581
0.5576484
0.5781945
0.5769932
0.5754058
0.5739239
0.5711815
0.5669746
0.5575939
0.5781979
0.5769987
0.5754143
0.5739348
0.5712013
0.5669917
0.5575451
0.5782016
0.5770046
0.5754232
0.5739463
0.5712154
0.5670099
0.557489
0.5782056
0.5770108
0.5754325
0.5739585
0.5712302
0.5670292
0.5574134
0.57821
0.5770175
0.5754421
0.5739717
0.571246
0.5670495
0.5573508
0.5782146
0.577025
0.5754528
0.5739832
0.5712666
0.5670707
0.5572848
0.5782214
0.5770333
0.5754663
0.5734341
0.5713896
0.5671048
0.5572196
0.5782283
0.5770419
0.5754779
0.5740062
0.571446
0.567133
0.5571554
0.5782349
0.5770515
0.5754916
0.5740348
0.5714716
0.5671597
0.5570884
0.5782441
0.5770637
0.5755086
0.5740563
0.5714977
0.5671905
0.5570132
0.5782711
0.5770783
0.5755253
0.5740788
0.5715333
0.5674351
0.5569424
0.5782869
0.5774156
0.5759553
0.5740914
0.5715682
0.5675311
0.556886
0.5782987
0.5774345
0.5759852
0.5741202
0.5716043
0.5675743
0.5568309
0.5783348
0.5774783
0.5760063
0.5741502
0.5716462
0.5677716
0.5568017
0.5783522
0.5775131
0.5760277
0.5741845
0.5716948
0.5679761
0.5568127
0.5783569
0.5775735
0.5760548
0.5742199
0.5717493
0.5680621
0.5569494
0.5783585
0.577591
0.5761027
0.574247
0.5718037
0.568199
0.5587078
0.5783666
0.5775976
0.576134
0.5742544
0.571842
0.5684358
0.560034
0.5783588
0.5775897
0.5761494
0.5741743
0.5718115
0.5688107
0.5637925
0.5782458
0.577454
0.575886
0.5738805
0.5716656
0.5691075
0.563399
0.5779321
0.5770351
0.5753865
0.5736884
0.5713862
0.5685316
0.5637917
0.577433
0.5763687
0.574766
0.5732668
0.571105
0.568481
0.5639637
0.5769412
0.5756933
0.574419
0.5735765
0.5725208
0.5698216
0.5645291
0.5771196
0.5760097
0.5758589
0.5752302
0.573854
0.5709427
0.5644107
0.5786303
0.5778946
0.5775783
0.5765792
0.5748804
0.5722213
0.5648927
0.5803916
0.5794681
0.5789681
0.5777452
0.5758299
0.5730399
0.5652409
0.5818436
0.5806219
0.5802198
0.579137
0.5775998
0.5738934
0.5668513
0.5830181
0.5820522
0.5816801
0.5807661
0.5787691
0.5751913
0.5677546
0.5841269
0.5832162
0.5831913
0.5820398
0.5800544
0.577594
0.5701618
0.5851411
0.5843111
0.5843664
0.5832114
0.5820498
0.578595
0.5736184
0.585698
0.5851549
0.5849126
0.5841843
0.582406
0.580215
0.5747313
0.5864176
0.5858644
0.5855352
0.5844108
0.5828209
0.5798817
0.5761211
0.5870652
0.5866157
0.5859148
0.584562
0.5824542
0.579924
0.5759189
0.5873074
0.5871717
0.5860805
0.5843411
0.5819182
0.5790789
0.5757769
0.587342
0.5873233
0.5859117
0.5839093
0.5814766
0.5782263
0.5743348
0.5871129
0.5872587
0.5857259
0.5839428
0.5817209
0.5782038
0.5744004
0.5868422
0.5869109
0.5856256
0.5838971
0.5821796
0.5795991
0.5742233
0.5865311
0.5866447
0.5853454
0.5837306
0.5821573
0.5821068
0.5802894
0.5863836
0.5862747
0.5849802
0.5833865
0.5818937
0.5806958
0.5860251
0.5858777
0.584566
0.5830712
0.5815501
0.5803744
0.5856065
0.5855501
0.5841175
0.5825013
0.5808537
0.579152
0.5850782
0.585011
0.5833446
0.5818974
0.579849
0.5775623
0.5735007
0.5846079
0.5843264
0.582548
0.5806513
0.5785376
0.5752626
0.570968
0.583998
0.5836758
0.5822639
0.5800149
0.5769746
0.5741053
0.5703904
0.5836035
0.5833159
0.5818871
0.5803227
0.5785462
0.5757516
0.5719387
0.5831016
0.5828116
0.5815795
0.5801937
0.5786074
0.5759783
0.5726842
0.5824769
0.5822748
0.5807933
0.5797719
0.5777646
0.575773
0.5717045
0.5817725
0.5816285
0.5801057
0.5785109
0.5775589
0.5751517
0.5693751
0.5812179
0.5810269
0.5790876
0.578093
0.5760875
0.5741822
0.5664038
0.5804681
0.5803043
0.5787041
0.5767923
0.5752597
0.5710453
0.5610954
0.5794454
0.5795178
0.5775289
0.5761603
0.5734166
0.5699754
0.560979
0.5783331
0.5784906
0.5769085
0.5750106
0.5730269
0.5689545
0.562664
0.5769901
0.5771075
0.5761999
0.5744143
0.5724651
0.5684922
0.5611995
0.5762721
0.5754448
0.5750707
0.573908
0.5716592
0.568671
0.560696
0.5764999
0.574693
0.5738744
0.5728281
0.5712281
0.5686042
0.5605709
0.5771186
0.5753971
0.5739944
0.5719684
0.5709213
0.5684116
0.5620856
0.5777149
0.576182
0.5749018
0.5730107
0.5704842
0.5683577
0.5648662
0.5781197
0.5768757
0.5755356
0.5738126
0.5712542
0.5685369
0.5649987
0.5782908
0.5772996
0.5759503
0.5739707
0.5716318
0.5688723
0.5631946
0.5783284
0.5774562
0.5761436
0.5741865
0.5717396
0.5686609
0.5619579
0.5783312
0.5774971
0.57616
0.5742267
0.5717766
0.5682514
0.5590979
0.5783364
0.5775122
0.5760982
0.5742199
0.5717621
0.5681066
0.5581071
0.5783427
0.5775184
0.5760458
0.5742003
0.5717262
0.5680365
0.5574154
0.5783411
0.5774845
0.5760214
0.5741728
0.571684
0.5679669
0.5565872
0.5783249
0.5774494
0.5760005
0.5741452
0.5716431
0.5678827
0.5566366
0.578292
0.5774066
0.5759835
0.5741197
0.5716064
0.5675961
0.5567026
0.5782824
0.5773933
0.5759657
0.5740974
0.5715743
0.5675393
0.5567898
0.5782674
0.5770742
0.5755208
0.5740592
0.5715442
0.5675013
0.5568739
0.5782424
0.5770617
0.5755066
0.5740429
0.5715105
0.5672822
0.5569607
0.5782341
0.5770508
0.5754918
0.5740261
0.5714826
0.5671737
0.5570531
0.5782282
0.577042
0.5754788
0.5740103
0.5714585
0.5671476
0.5571344
0.5782217
0.5770337
0.5754666
0.5739955
0.5714321
0.5671236
0.5572175
0.5782154
0.5770262
0.5754553
0.5739812
0.5713068
0.5670906
0.5572894
0.5782111
0.5770191
0.5754447
0.5739678
0.5712564
0.567065
0.5573627
0.5782069
0.5770125
0.5754348
0.5739554
0.5712409
0.567045
0.5574362
0.5782029
0.5770063
0.5754255
0.5739435
0.5712259
0.5670257
0.557503
0.5781991
0.5770004
0.5754166
0.5739323
0.5712117
0.5670072
0.5575676
0.5781957
0.576995
0.5754083
0.5739215
0.5711985
0.5669898
0.5576233
0.5781925
0.5769895
0.5754002
0.5739089
0.5711348
0.566973
0.5576728
0.5781894
0.5769842
0.5753926
0.5738971
0.5710594
0.5669572
0.5577207
0.5781864
0.5769791
0.5753854
0.5738877
0.5710504
0.5669423
0.5577706
0.5781835
0.5769742
0.5753784
0.5738784
0.5710419
0.5669284
0.5577824
0.5781805
0.5769694
0.5753716
0.5738696
0.5710343
0.5669156
0.5577749
0.5781774
0.5769645
0.5753649
0.5738608
0.5710269
0.5668798
0.5576845
0.5781737
0.5769592
0.575358
0.5738519
0.571004
0.5668195
0.5575888
0.5781694
0.5769532
0.575349
0.5738265
0.5709641
0.5667593
0.557488
0.5781637
0.5769453
0.5753162
0.5737831
0.5709239
0.5666992
0.5573858
0.5781559
0.5769172
0.5752804
0.5737389
0.5708836
0.5666389
0.5572767
0.5781311
0.5768856
0.5752422
0.5736939
0.5708444
0.5665753
0.5571643
0.5781021
0.5768527
0.5752027
0.5736506
0.5708571
0.5665076
0.5570481
0.5780709
0.576818
0.5751622
0.5736046
0.5708074
0.5664393
0.5569249
0.5780373
0.5767821
0.575121
0.5735587
0.5707555
0.5663706
0.556791
0.5780019
0.5767457
0.5750796
0.573513
0.5707032
0.5663014
0.5566285
0.5779669
0.5767101
0.5750388
0.5734685
0.5706508
0.5662315
0.5564109
0.5779333
0.5766748
0.5749982
0.5734255
0.5705983
0.5661606
0.556083
0.004074813
1.46807e-11
3.112706e-18
3.107433e-24
0
0
7.113343e-41
7.643942e-46
1.340684e-50
1.062894e-55
4.056212e-61
1.004543e-66
1.839756e-72
2.654289e-78
4.017201e-84
1.461083e-89
5.082607e-95
1.426772e-100
0.01015141
6.007246e-11
1.265628e-17
6.750289e-24
4.88027e-30
1.950468e-35
8.579346e-41
5.157467e-46
5.018738e-51
2.385742e-56
6.308731e-62
1.09608e-67
1.433107e-73
1.481206e-79
1.850273e-85
8.133276e-91
2.555409e-96
4.954933e-102
0.01182128
1.576467e-10
4.405312e-17
2.326966e-23
1.157256e-29
4.309615e-35
1.776581e-40
9.49171e-46
7.612584e-51
2.861973e-56
5.831186e-62
8.108272e-68
8.500358e-74
7.071305e-80
7.861555e-86
3.939719e-91
1.056069e-96
1.518676e-102
0.01276646
2.384417e-10
9.281011e-17
5.274388e-23
2.65588e-29
8.783328e-35
3.542027e-40
1.784274e-45
1.143414e-50
3.319897e-56
5.523597e-62
6.665064e-68
6.342583e-74
4.822549e-80
4.131483e-86
1.302532e-91
2.149349e-97
2.040119e-103
0.01370102
3.75468e-10
1.86856e-16
1.153452e-22
6.154608e-29
1.834573e-34
7.244752e-40
3.45617e-45
1.781714e-50
4.162709e-56
6.385119e-62
7.536363e-68
7.023571e-74
5.184719e-80
1.097291e-88
1.089722e-91
1.165343e-97
6.802544e-104
0.01460137
8.09455e-10
4.305118e-16
2.651447e-22
1.426698e-28
3.899129e-34
1.513639e-39
6.929585e-45
2.90213e-50
6.188104e-56
9.634195e-62
1.145493e-67
1.037634e-73
7.524497e-80
5.750026e-86
1.37794e-91
9.044856e-98
4.399309e-104
0.01549068
1.843043e-09
1.074191e-15
6.309888e-22
3.471121e-28
8.606176e-34
3.253014e-39
1.439063e-44
5.176449e-50
1.077773e-55
1.668897e-61
1.965551e-67
1.783458e-73
1.274793e-79
8.7195e-86
1.651404e-91
8.297809e-98
4.485003e-104
0.01635835
2.033617e-09
1.982023e-15
1.516921e-21
9.604656e-28
2.050073e-33
7.315753e-39
3.15399e-44
9.829131e-50
2.060434e-55
3.214241e-61
3.93315e-67
3.716219e-73
2.852924e-79
2.058188e-85
2.66554e-91
1.37005e-97
7.796143e-104
0.01718972
2.268842e-09
3.570037e-15
4.054761e-21
2.854147e-27
5.430955e-33
1.740141e-38
7.2665e-44
1.98624e-49
4.255946e-55
7.012606e-61
9.232272e-67
9.264505e-73
7.276844e-79
5.432639e-85
5.334192e-91
3.383042e-97
2.070953e-103
0.01805957
2.948795e-09
7.140475e-15
1.121884e-20
7.285677e-27
1.429396e-32
4.253583e-38
1.632496e-43
4.312683e-49
9.945301e-55
1.794288e-60
2.471084e-66
2.588971e-72
2.077193e-78
1.66202e-84
1.653422e-90
1.174536e-96
7.583539e-103
0.01892608
3.127441e-09
8.730453e-15
1.897456e-20
1.49892e-26
3.220244e-32
1.038184e-37
3.339545e-43
1.02591e-48
2.650051e-54
5.163205e-60
7.461023e-66
8.219302e-72
6.926099e-78
5.941467e-84
6.696051e-90
4.886555e-96
3.268769e-102
0.0197523
3.286881e-09
9.39974e-15
2.276795e-20
2.585376e-26
6.729435e-32
2.870194e-37
1.543199e-42
3.216129e-48
8.867388e-54
1.804434e-59
2.789583e-65
3.177054e-71
2.815389e-77
2.65858e-83
3.297751e-89
2.496729e-95
1.738431e-101
0.020602
3.0474e-09
1.070938e-14
3.015458e-20
4.277618e-26
1.400705e-31
7.279924e-37
4.372038e-42
1.356956e-47
3.763035e-53
8.006828e-59
1.275223e-64
1.511113e-70
1.37693e-76
1.408582e-82
1.804552e-88
1.401323e-94
1.025e-100
0.02155029
2.741056e-09
9.718673e-15
2.972831e-20
6.31146e-26
2.469923e-31
1.33916e-36
8.15577e-42
2.960212e-47
9.760124e-53
2.324589e-58
4.047161e-64
5.26107e-70
5.142063e-76
5.753527e-82
7.218165e-88
6.108266e-94
4.7504e-100
0.02651165
8.111223e-09
1.287838e-14
4.138948e-20
1.020386e-25
4.448623e-31
2.391622e-36
1.234889e-41
3.340435e-47
1.057966e-52
2.546126e-58
4.649539e-64
6.514075e-70
7.810537e-76
1.069109e-81
1.728314e-87
1.601176e-93
1.449442e-99
0.02764438
0
1.206345e-14
4.924305e-20
1.744822e-25
9.370302e-31
6.323102e-36
2.572869e-41
7.114443e-47
1.978893e-52
4.553657e-58
8.309585e-64
1.209831e-69
1.558039e-75
2.53397e-81
4.835313e-87
4.903809e-93
5.192102e-99
0.02931093
1.443011e-08
0
4.954804e-20
2.727327e-25
1.641546e-30
1.371589e-35
1.052585e-40
2.484228e-46
7.121522e-52
1.587903e-57
2.749526e-63
3.835549e-69
4.831478e-75
9.061156e-81
1.766461e-86
1.799786e-92
2.057487e-98
0.0311586
1.873947e-08
1.35797e-13
0
3.778253e-25
2.469476e-30
2.473032e-35
2.512735e-40
8.96386e-46
2.834912e-51
6.499804e-57
1.125449e-62
1.548371e-68
1.970249e-74
6.561193e-80
1.078114e-85
8.750557e-92
1.07049e-97
0.03315038
2.395961e-08
1.975323e-13
1.181722e-18
0
2.837311e-30
3.731081e-35
4.306536e-40
2.313054e-45
9.32427e-51
2.502454e-56
4.710298e-62
6.768373e-68
8.989023e-74
9.105101e-79
3.940764e-85
5.147063e-91
6.27786e-97
0.03512676
3.000294e-08
2.883214e-13
1.964493e-18
1.155356e-23
0
3.943995e-35
5.415474e-40
3.30811e-45
1.801462e-50
6.783738e-56
1.656737e-61
2.853534e-67
4.407563e-73
1.113034e-77
0
2.837124e-90
3.293089e-96
0.03707311
3.762811e-08
4.175034e-13
3.28011e-18
2.175152e-23
7.956084e-29
0
5.34461e-40
5.310974e-45
4.090874e-50
1.99801e-55
6.111928e-61
1.316838e-66
2.355231e-72
2.822166e-77
0
1.510381e-89
1.862915e-95
0.03908149
4.682555e-08
5.986758e-13
5.335489e-18
4.157841e-23
1.720418e-28
1.011573e-33
0
5.588018e-45
8.291799e-50
5.190664e-55
2.012849e-60
5.814008e-66
1.305063e-71
8.103031e-77
5.636691e-83
1.034997e-88
1.33654e-94
0.04120871
5.830066e-08
8.629232e-13
8.851001e-18
7.919225e-23
3.686273e-28
2.342636e-33
1.908719e-38
0
9.845883e-50
1.231077e-54
5.992088e-60
2.247005e-65
6.942799e-71
7.372302e-76
4.158357e-82
6.655756e-88
8.58515e-94
0.04345336
7.248861e-08
1.235652e-12
1.46491e-17
1.484231e-22
7.787139e-28
5.526919e-33
4.71836e-38
2.189523e-43
0
1.600904e-54
1.341258e-59
7.241929e-65
3.745856e-70
1.363964e-74
4.180196e-81
4.24054e-87
5.341366e-93
0.04588592
8.948956e-08
1.757958e-12
2.392041e-17
2.782217e-22
1.63431e-27
1.284547e-32
1.195823e-37
5.725689e-43
3.340631e-48
0
2.989617e-59
1.732676e-64
1.885239e-69
2.728982e-73
5.286683e-80
2.430226e-86
3.540062e-92
0.04840711
1.11233e-07
2.520895e-12
3.895407e-17
5.227869e-22
3.40609e-27
2.978289e-32
3.048878e-37
1.5565e-42
9.449732e-48
5.333227e-53
0
1.773776e-64
6.585688e-69
3.274096e-72
1.097953e-79
1.301993e-85
3.219808e-91
0.05112239
1.37456e-07
3.614794e-12
6.396565e-17
9.831195e-22
7.109616e-27
6.895641e-32
7.806903e-37
4.227457e-42
2.825062e-47
1.674813e-52
9.745694e-58
0
6.942121e-68
2.387376e-73
4.553013e-79
9.862702e-85
5.832129e-90
0.05403095
1.701408e-07
5.146898e-12
1.057734e-16
1.877798e-21
1.486793e-26
1.624907e-31
2.003136e-36
1.146216e-41
8.460055e-47
5.51635e-52
3.144743e-57
2.129207e-62
1.25928e-66
1.392299e-72
3.745381e-78
8.874162e-84
1.449576e-88
0.05709464
2.095581e-07
7.297668e-12
1.782182e-16
3.938465e-21
3.573784e-26
4.580512e-31
5.705662e-36
3.116354e-41
2.480148e-46
1.909176e-51
1.14361e-56
7.491156e-62
1.401966e-65
0
7.582412e-78
8.16022e-83
3.283335e-87
0.06042722
2.545522e-07
9.987096e-12
2.819012e-16
1.208414e-20
7.812884e-26
1.010452e-30
1.293608e-35
9.069209e-41
7.184918e-46
7.38406e-51
4.360754e-56
3.235531e-61
2.501033e-65
1.089934e-71
4.259588e-78
8.430995e-82
5.05945e-86
0.06397605
3.024288e-07
1.250225e-11
3.169953e-16
2.746152e-20
1.168776e-25
1.723421e-30
2.04508e-35
7.346863e-40
1.95284e-45
2.165524e-50
1.47771e-55
1.931194e-60
2.570822e-65
1.51884e-70
6.863032e-76
8.73991e-81
4.244478e-85
0.06774336
3.432787e-07
1.494053e-11
3.676157e-16
6.095199e-21
1.667438e-25
2.96302e-30
4.04256e-35
1.130269e-39
3.229737e-45
3.159994e-50
3.22194e-55
1.165595e-59
4.773898e-67
7.18188e-70
5.081755e-75
2.866871e-79
4.439923e-85
0.07185595
4.242689e-07
2.010389e-11
2.742861e-16
1.147953e-20
2.746168e-25
4.780859e-30
7.483127e-35
8.494364e-40
1.075586e-44
1.256879e-49
1.363927e-54
1.296531e-58
4.251478e-65
3.535198e-69
9.806037e-74
8.516347e-78
0
0.07690871
7.812349e-07
4.685967e-11
1.282462e-15
1.131883e-20
8.51357e-25
1.280295e-29
1.693714e-34
4.932864e-40
8.731493e-44
8.284331e-49
9.872981e-54
2.081914e-57
1.797787e-63
4.550795e-68
3.392124e-72
5.456231e-77
0
0.09196721
1.022406e-06
7.923293e-11
4.882363e-15
6.677478e-21
2.133645e-24
3.498866e-29
1.019822e-34
0
3.267505e-43
3.40558e-48
6.373014e-53
2.051866e-56
0
9.558467e-67
1.570854e-70
1.086097e-75
1.34991e-80
0.102559
1.121988e-06
9.368407e-11
7.767965e-15
2.128605e-19
4.133909e-24
8.779093e-29
0
3.80776e-38
3.903706e-43
8.002307e-48
4.742772e-52
3.778342e-56
1.110053e-60
1.002118e-64
2.032371e-68
4.199358e-73
4.902259e-78
0.1215234
1.171164e-06
1.513151e-10
2.480347e-14
6.948573e-19
9.346462e-24
1.613679e-28
2.024599e-33
5.370589e-38
1.179324e-42
3.297043e-47
5.931099e-51
1.764694e-54
1.872148e-58
2.602497e-62
5.150436e-66
5.78928e-71
1.653273e-75
0.2215166
1.09867e-07
2.647188e-10
3.656091e-14
8.099715e-19
8.097399e-24
1.303365e-28
1.46238e-33
5.757621e-38
2.738894e-42
5.562321e-46
3.961413e-49
3.134475e-52
4.943842e-56
7.106646e-60
1.200847e-63
1.847111e-68
4.673347e-73
0.3577103
1.622566e-05
1.059934e-09
4.773452e-14
1.420654e-19
1.682239e-24
8.753254e-29
3.412266e-33
4.086895e-37
1.197652e-40
8.41605e-44
6.612464e-47
5.453854e-50
1.070957e-53
1.727138e-57
3.275858e-61
4.725615e-66
1.070639e-70
0.4734209
0.0001037595
4.099462e-09
5.104422e-14
7.542457e-20
1.138056e-23
9.889962e-28
4.927425e-32
1.420176e-35
1.146544e-38
1.351151e-41
9.791831e-45
8.132113e-48
1.702447e-51
1.970769e-55
4.771847e-59
1.032469e-63
1.962308e-68
0.5253665
0.0001201982
2.822476e-09
7.927158e-17
1.517701e-19
5.114505e-23
6.16535e-27
9.305473e-31
8.791222e-34
1.144644e-36
1.915008e-39
1.33174e-42
1.194763e-45
1.90012e-49
2.738506e-53
6.721195e-57
1.912356e-61
2.899594e-66
0.5316374
0
4.991869e-11
1.459342e-16
1.837772e-19
9.184836e-23
5.610533e-26
4.396742e-29
6.896231e-32
1.07865e-34
2.26092e-37
1.812441e-40
1.559133e-43
3.547938e-48
3.65255e-51
8.968715e-55
3.084317e-59
3.068378e-64
0.534915
0
0
1.806898e-15
2.309583e-18
1.385644e-21
2.261608e-24
2.852331e-27
5.46962e-30
9.159605e-33
2.152451e-35
1.271927e-38
1.672566e-41
0
3.146796e-49
1.001418e-52
3.645454e-57
1.52768e-62
0.544168
0.000427494
0
1.841191e-14
6.215065e-17
9.002269e-20
1.314689e-22
1.92279e-25
3.898254e-28
6.811679e-31
1.580983e-33
7.043225e-37
1.354168e-39
1.92718e-44
2.118744e-47
8.052055e-51
2.173226e-55
4.530468e-61
0.548238
0.000587093
9.48945e-10
6.562554e-13
2.9082e-15
7.043852e-18
8.257992e-21
1.196531e-23
2.345515e-26
4.281667e-29
1.07558e-31
3.317459e-35
8.25222e-38
1.01696e-42
5.431283e-46
2.420689e-49
8.026284e-54
6.250386e-60
0.5510982
0.0008776669
1.934588e-08
3.022498e-11
1.422437e-13
5.121332e-16
4.63237e-19
6.667285e-22
9.666208e-25
2.031609e-27
4.127997e-30
8.300155e-34
2.867989e-36
1.852196e-41
0
3.082358e-48
1.36681e-52
2.021703e-59
0.5511658
0.0005595972
9.495594e-07
1.562702e-09
6.45536e-12
2.61397e-14
2.243458e-17
3.327943e-20
3.126701e-23
4.607466e-26
7.923749e-29
6.630908e-33
4.213237e-35
2.509231e-40
3.986071e-44
0
1.592889e-52
0
0.5555644
0.02065066
2.324693e-05
7.444544e-08
2.858725e-10
7.734787e-13
8.483165e-16
1.440042e-18
3.189491e-22
6.481337e-25
5.720869e-28
3.797226e-31
6.744719e-34
4.406045e-39
0
5.16079e-47
0
4.850439e-57
0.5592737
0.0742829
0.0003022652
2.208695e-06
1.64148e-08
1.572229e-11
1.976063e-14
3.212687e-17
6.728952e-21
5.278188e-25
9.645786e-28
3.811925e-30
1.415434e-33
0
7.662217e-43
0
6.97705e-51
0
0.5651418
0.2197425
0.002054707
5.607364e-05
3.384368e-20
0
0
0
0
0
3.114665e-42
3.853523e-46
2.498811e-51
0
0.5653946
0.5464204
8.45402e-29
6.185331e-32
0
4.775038e-39
5.124022e-44
6.767554e-48
0
2.2514e-58
0.5698002
0
2.859219e-34
7.626382e-39
2.39957e-44
6.970794e-48
2.749573e-52
2.600856e-57
1.466281e-34
2.233997e-39
1.942587e-44
1.619129e-48
6.127443e-53
1.101972e-56
4.967182e-39
4.742751e-44
5.114753e-48
4.485182e-52
6.644496e-56
1.030199e-36
6.957602e-42
7.820262e-46
2.160175e-49
1.745199e-53
1.295659e-35
4.873144e-40
1.773264e-43
3.501846e-47
3.805303e-51
0
2.506685e-38
1.942609e-41
5.034379e-45
7.395594e-49
0
3.506392e-38
1.066602e-39
3.985536e-43
7.92086e-47
9.226321e-33
1.010274e-35
1.272182e-38
8.602335e-42
2.531674e-45
0
0
5.182052e-35
1.236173e-37
3.435043e-41
5.981462e-45
0.5619738
0
1.404762e-32
1.165637e-33
3.446778e-37
1.535546e-40
1.975998e-44
0.5594138
0.5267872
0
4.924309e-28
2.412692e-30
3.215819e-33
1.536005e-36
4.267177e-40
7.873339e-44
0.5587586
0.4401653
0.003283871
0
3.604246e-22
1.867899e-23
3.858012e-26
3.827266e-29
3.867255e-32
8.187685e-36
3.502602e-39
3.668496e-43
0.5520908
0.1452273
0.001422892
2.067019e-05
3.764147e-07
4.596232e-09
3.114474e-11
1.510155e-13
1.172615e-15
5.382151e-18
2.218863e-20
4.597714e-23
6.816294e-26
4.217987e-29
1.393132e-32
6.487142e-36
1.29339e-39
7.063352e-44
0.5511019
0.06015162
0.0001958441
8.86231e-07
7.194899e-09
6.046404e-11
3.250343e-13
1.546291e-15
5.837789e-18
2.09085e-20
7.698315e-23
7.554782e-26
3.964404e-29
5.054458e-32
6.97714e-36
4.796869e-39
3.017798e-43
4.686064e-47
0.5492904
0.04813756
4.8016e-05
1.166043e-07
2.841883e-10
8.886283e-13
2.816314e-15
1.056062e-17
3.610533e-20
5.475242e-23
1.409962e-25
2.773407e-28
1.376607e-31
3.82999e-35
5.064139e-38
1.302388e-41
5.536983e-45
4.589338e-50
0.5474278
0.01136829
7.083891e-06
5.029828e-09
6.962574e-12
1.707665e-14
3.265754e-17
6.510014e-20
1.369995e-22
2.907232e-25
1.482309e-28
2.095326e-31
7.400184e-35
8.094701e-38
2.204128e-41
1.716407e-44
2.215882e-48
4.990943e-52
0.5441709
0.005486785
2.709745e-06
2.587996e-09
3.419805e-12
3.722168e-15
4.18828e-18
4.627396e-21
5.222749e-24
5.499202e-27
3.637547e-30
2.921544e-33
0
4.486336e-41
0
5.449334e-47
2.327805e-50
0
0.5408339
0.003700938
2.444492e-06
2.239827e-09
2.533147e-12
2.855742e-15
3.190682e-18
3.131511e-21
2.999297e-24
2.388376e-27
1.603542e-30
8.660026e-34
4.158659e-37
5.841628e-42
1.784133e-45
5.267991e-49
2.911222e-53
4.157085e-57
0.5387451
0.001982911
1.525116e-06
1.027258e-09
1.11576e-12
1.138961e-15
1.076918e-18
8.406358e-22
6.081662e-25
3.592235e-28
1.90193e-31
4.218879e-36
4.254174e-39
0
1.662233e-46
4.238713e-50
6.09492e-54
6.690071e-59
0.5343173
0.001656185
1.446675e-06
2.793739e-09
3.478165e-12