/*--------------------------------*- C++ -*----------------------------------*\
| =========                 |                                                 |
| \\      /  F ield         | OpenFOAM: The Open Source CFD Toolbox           |
|  \\    /   O peration     | Version:  2206                                  |
|   \\  /    A nd           | Website:  www.openfoam.com                      |
|    \\/     M anipulation  |                                                 |
\*---------------------------------------------------------------------------*/
FoamFile
{
    version     2.0;
    format      ascii;
    arch        "LSB;label=32;scalar=64";
    class       volScalarField;
    location    "2.2";
    object      alpha.b;
}
// * * * * * * * * * * * * * * * * * * * * * * * * * * * * * * * * * * * * * //

dimensions      [0 0 0 0 0 0 0];

internalField   nonuniform List<scalar> 
13078
(
0.5647729
0.4435353
0.4200551
0.4190704
0.4195158
0.420227
0.4210685
0.4384885
0.4206707
0.4184911
0.4188571
0.419473
0.4201984
0.4210452
0.418182
0.4177305
0.4181194
0.4187282
0.419401
0.4201515
0.4210099
0.4166436
0.4173473
0.4179829
0.4186295
0.4193303
0.4201011
0.4209703
0.4165027
0.4172429
0.4179005
0.4185683
0.4192714
0.4200532
0.4209311
0.4165427
0.4172262
0.4178622
0.4185283
0.4192384
0.4200135
0.4208944
0.416591
0.4172346
0.4178468
0.4185046
0.4192152
0.4199936
0.4208634
0.4166265
0.4172502
0.4178426
0.4184934
0.4192022
0.4199796
0.4208501
0.416652
0.4172651
0.4178465
0.4184906
0.4191956
0.4199708
0.4208405
0.4166705
0.4172777
0.4178524
0.418491
0.4191927
0.4199656
0.4208339
0.4166842
0.4172881
0.4178584
0.4184931
0.4191919
0.4199625
0.4208293
0.4166952
0.4172963
0.4178639
0.4184958
0.4191922
0.4199608
0.4208261
0.416704
0.4173033
0.4178689
0.4184987
0.4191932
0.41996
0.4208237
0.4167115
0.4173092
0.4178733
0.4185014
0.4191943
0.4199596
0.4208218
0.416718
0.4173144
0.4178771
0.4184999
0.4191899
0.4199587
0.4208202
0.4167238
0.417319
0.4178804
0.4184978
0.4191873
0.4199582
0.4208186
0.4167294
0.4173235
0.4178838
0.4184996
0.419188
0.4199579
0.420817
0.4167349
0.4173278
0.4178872
0.4185016
0.4191889
0.4199576
0.4208153
0.4167404
0.4173321
0.4178904
0.4185036
0.4191896
0.4199569
0.4208137
0.4167462
0.4173364
0.4178937
0.4185052
0.4191842
0.4199479
0.4208109
0.4167522
0.4173411
0.4178971
0.4185068
0.4191783
0.4199418
0.4208081
0.4167588
0.4173462
0.4179009
0.4185091
0.419178
0.4199404
0.4208057
0.416766
0.4173517
0.417905
0.4185115
0.4191787
0.4199389
0.4208024
0.4167741
0.4173579
0.4179096
0.4185142
0.4191786
0.4199287
0.4207869
0.4167834
0.4173649
0.417915
0.4185173
0.4191788
0.4199181
0.420776
0.4167938
0.417373
0.417921
0.4185209
0.4191798
0.4199148
0.4207708
0.4168061
0.4173825
0.4179281
0.4185252
0.4191812
0.4199128
0.4207652
0.4168201
0.4173934
0.4179364
0.4185305
0.4191831
0.4199103
0.4207471
0.4168364
0.4174063
0.4179463
0.4185369
0.4191858
0.4199087
0.4207292
0.4168534
0.4174193
0.4179573
0.4185447
0.4191899
0.419909
0.4207221
0.4168738
0.4174353
0.4179706
0.4185543
0.4191956
0.4199107
0.420718
0.4168976
0.4174509
0.4179808
0.418565
0.4192035
0.4199148
0.4207173
0.4169239
0.4174685
0.4179903
0.4185694
0.4192108
0.4199198
0.4207195
0.4169516
0.4174875
0.4179997
0.4185767
0.4192144
0.4199182
0.4207159
0.4169774
0.4175004
0.4179986
0.4185541
0.4191798
0.4198886
0.4206909
0.416994
0.4174921
0.4179614
0.4184824
0.4190852
0.4197972
0.42063
0.4169879
0.4174327
0.41785
0.418339
0.4189291
0.4196913
0.4205951
0.4169343
0.4172855
0.4176555
0.4181493
0.4187754
0.4196077
0.4206663
0.4167974
0.4170597
0.4174242
0.4179652
0.4186803
0.4196049
0.4208919
0.4165514
0.4167911
0.4172029
0.4178213
0.4186558
0.4197114
0.4211512
0.4162098
0.4165209
0.416977
0.4177196
0.4186621
0.4198181
0.4212151
0.4157858
0.4162692
0.4167831
0.4175885
0.4186097
0.4197122
0.4206622
0.4153285
0.4160405
0.4166246
0.4174301
0.4183131
0.4190955
0.4193909
0.4149102
0.4159227
0.4164846
0.4171883
0.4177577
0.4179979
0.4180224
0.4146661
0.4159181
0.4163888
0.4168061
0.4169564
0.4167897
0.416653
0.4146739
0.4159859
0.4162434
0.4163051
0.4161072
0.4157711
0.4155618
0.414805
0.4159563
0.4159588
0.4157781
0.4153254
0.4149321
0.4148558
0.4148742
0.4157371
0.4155069
0.4151968
0.4145784
0.4142934
0.4141498
0.4148657
0.4153911
0.4149792
0.4146127
0.4140061
0.4136541
0.4135059
0.4147909
0.4150331
0.4145089
0.4141008
0.413464
0.4131645
0.4130932
0.4146536
0.4146463
0.4141547
0.4137607
0.4131485
0.4129208
0.4128852
0.4145474
0.4143904
0.4137726
0.4133273
0.4128065
0.4127437
0.4127272
0.4145265
0.4143246
0.4137497
0.4133374
0.4128434
0.4127978
0.4128576
0.4145748
0.4143828
0.4138323
0.4134629
0.4130335
0.4131035
0.4132355
0.414644
0.4144762
0.413956
0.4136054
0.4132421
0.4133656
0.4135497
0.4147328
0.4146157
0.4141188
0.4137735
0.413457
0.4135935
0.4137912
0.4148843
0.4148861
0.4144307
0.4141046
0.4137987
0.413938
0.4141213
0.4149828
0.4150721
0.4146547
0.4143476
0.4140295
0.4141783
0.4143721
0.4150566
0.4152574
0.4149152
0.4146593
0.4143501
0.4145023
0.4147069
0.4151559
0.4155198
0.41531
0.415137
0.4148577
0.4149643
0.4151612
0.4152598
0.4157857
0.415788
0.4157396
0.4154347
0.415478
0.4156964
0.4153708
0.4160442
0.4161276
0.4161916
0.4159151
0.4159083
0.4161435
0.4154553
0.4162583
0.416451
0.4167532
0.4165698
0.4164741
0.4167259
0.4155136
0.4164368
0.4167305
0.4172165
0.4172068
0.4171222
0.4171355
0.4155045
0.4165074
0.4168746
0.4175286
0.4177318
0.4176757
0.4177215
0.4154084
0.4164857
0.4169274
0.4176566
0.4183098
0.4185258
0.4185436
0.4153111
0.4163874
0.4169498
0.4177416
0.4187691
0.4193297
0.4192082
0.4153833
0.4163463
0.4169923
0.4178509
0.418961
0.419965
0.4202119
0.415658
0.4163959
0.4170394
0.4179075
0.4190093
0.4202922
0.4212917
0.4160023
0.4165237
0.4171194
0.4179696
0.4190263
0.4203619
0.4218128
0.4163415
0.4167075
0.417227
0.4180049
0.4190037
0.4202468
0.4217855
0.4166315
0.4169053
0.4173534
0.4180401
0.4189285
0.4200511
0.4214353
0.4168407
0.4171225
0.4175219
0.4180978
0.4188618
0.4198263
0.4211467
0.4169633
0.4173197
0.4177057
0.4182241
0.4188789
0.4197072
0.4208526
0.4170108
0.4174532
0.4178744
0.4183744
0.4189756
0.4197349
0.4206865
0.4170158
0.4175111
0.417981
0.418502
0.4191048
0.4198299
0.4206751
0.416999
0.4175207
0.4180193
0.418568
0.4191933
0.4199047
0.4207172
0.4169722
0.4175075
0.4180184
0.4185876
0.4192245
0.4199395
0.4207406
0.4169436
0.4174869
0.4180048
0.4185874
0.4192309
0.4199398
0.42074
0.4169159
0.4174654
0.4179912
0.4185743
0.4192187
0.4199304
0.4207323
0.4168899
0.4174473
0.4179807
0.4185676
0.4192084
0.4199218
0.4207269
0.4168671
0.4174316
0.4179698
0.4185558
0.4191993
0.4199163
0.4207257
0.4168479
0.417416
0.4179561
0.4185455
0.4191924
0.4199132
0.4207279
0.416832
0.4174034
0.417945
0.4185372
0.4191874
0.4199116
0.4207329
0.4168165
0.4173909
0.4179351
0.4185303
0.419184
0.4199122
0.4207502
0.4168032
0.4173803
0.4179268
0.4185248
0.4191815
0.4199138
0.4207665
0.4167916
0.4173712
0.4179197
0.4185203
0.4191797
0.4199151
0.4207714
0.4167816
0.4173635
0.4179139
0.4185166
0.4191784
0.4199178
0.4207759
0.4167728
0.4173567
0.4179087
0.4185134
0.419178
0.4199287
0.4207869
0.4167651
0.4173507
0.4179042
0.4185108
0.419178
0.4199381
0.4208016
0.4167581
0.4173455
0.4179002
0.4185085
0.4191773
0.4199396
0.4208048
0.4167519
0.4173407
0.4178965
0.4185063
0.4191776
0.4199409
0.4208071
0.4167462
0.4173363
0.4178934
0.4185049
0.419184
0.4199475
0.42081
0.4167408
0.4173322
0.4178904
0.4185036
0.4191893
0.4199564
0.4208129
0.4167357
0.4173283
0.4178875
0.4185017
0.4191887
0.4199572
0.4208145
0.4167307
0.4173245
0.4178846
0.4184999
0.419188
0.4199575
0.4208161
0.4167257
0.4173205
0.4178815
0.4184984
0.4191874
0.4199578
0.4208177
0.4167206
0.4173165
0.4178787
0.418501
0.4191903
0.4199584
0.4208193
0.4167151
0.4173122
0.4178755
0.4185026
0.4191947
0.4199593
0.4208208
0.416709
0.4173073
0.4178717
0.4185002
0.4191936
0.4199594
0.4208223
0.4167019
0.4173015
0.4178674
0.4184975
0.4191924
0.4199598
0.420824
0.4166933
0.4172947
0.4178626
0.4184948
0.4191915
0.4199606
0.4208263
0.4166826
0.4172866
0.4178572
0.4184922
0.4191912
0.4199621
0.4208294
0.4166691
0.4172765
0.4178514
0.4184902
0.4191919
0.419965
0.4208338
0.4166511
0.4172639
0.4178458
0.4184895
0.4191946
0.4199702
0.4208405
0.4166262
0.4172492
0.4178446
0.4184942
0.4192013
0.419979
0.4208501
0.4165912
0.4172338
0.4178475
0.4185058
0.4192147
0.4199924
0.4208766
0.4165437
0.4172244
0.4178597
0.4185263
0.4192351
0.4200241
0.4209088
0.4165016
0.4172395
0.4178967
0.4185619
0.4192791
0.4200644
0.4209448
0.4166265
0.4173387
0.4179688
0.4186335
0.4193379
0.420111
0.4209841
0.417945
0.4176647
0.4181184
0.4187305
0.4194062
0.4201613
0.4210241
0.4360347
0.4198753
0.4183375
0.418847
0.4194831
0.4202125
0.4210625
0.42207
0.423327
0.4250031
0.4265956
0.4294276
0.4338743
0.4440927
0.4220461
0.4232977
0.4249667
0.4265536
0.4293758
0.4338032
0.443672
0.4220149
0.4232646
0.4249246
0.4271053
0.4293262
0.4337345
0.4434531
0.4219806
0.4232302
0.4248885
0.4264599
0.4292745
0.4336655
0.4432557
0.421946
0.4231946
0.4248477
0.426409
0.4292219
0.4335968
0.44312
0.4219124
0.4231589
0.4248065
0.4263611
0.4291703
0.4335288
0.4429947
0.4218807
0.4231243
0.424766
0.4263158
0.4291558
0.4334612
0.4428758
0.4218532
0.4230909
0.4247267
0.4262717
0.4291418
0.4333944
0.4427679
0.4218432
0.4230612
0.4246896
0.4262278
0.4291003
0.4333345
0.4426618
0.4218357
0.4230519
0.4246559
0.4261844
0.4290599
0.4332748
0.4425623
0.4218301
0.423045
0.4246462
0.426143
0.4290198
0.4332151
0.4424673
0.4218255
0.4230389
0.4246388
0.4261342
0.4289795
0.4331553
0.442376
0.4218217
0.4230334
0.4246316
0.4261261
0.428973
0.4330938
0.442289
0.4218184
0.4230282
0.4246245
0.4261178
0.4289656
0.4330836
0.4422166
0.4218152
0.423023
0.4246173
0.4261093
0.4289576
0.4330707
0.4422625
0.421812
0.4230177
0.4246099
0.4261003
0.4289489
0.4330565
0.4423118
0.4218089
0.4230123
0.4246024
0.4260907
0.4289352
0.4330414
0.4423504
0.4218056
0.4230069
0.4245942
0.4260761
0.4288182
0.4330248
0.4424048
0.4218022
0.4230014
0.4245857
0.4260651
0.4287984
0.4330077
0.4424535
0.4217985
0.4229955
0.4245768
0.4260536
0.4287843
0.4329894
0.4425094
0.4217946
0.4229893
0.4245675
0.4260414
0.4287694
0.4329701
0.4425848
0.4217902
0.4229826
0.4245579
0.4260282
0.4287537
0.4329497
0.4426471
0.4217856
0.4229751
0.4245471
0.4260166
0.428733
0.4329284
0.4427128
0.4217788
0.4229667
0.4245336
0.4265657
0.4286099
0.4328942
0.4427776
0.4217719
0.4229581
0.424522
0.4259935
0.4285534
0.4328659
0.4428415
0.4217653
0.4229486
0.4245082
0.4259648
0.4285278
0.4328391
0.4429081
0.421756
0.4229363
0.4244912
0.4259433
0.4285016
0.4328082
0.4429828
0.4217291
0.4229216
0.4244745
0.4259207
0.4284659
0.4325635
0.4430529
0.4217133
0.4225844
0.4240445
0.4259081
0.4284309
0.4324674
0.4431087
0.4217016
0.4225656
0.4240145
0.4258792
0.4283947
0.432424
0.4431631
0.4216656
0.4225218
0.4239935
0.4258492
0.4283527
0.4322266
0.4431914
0.4216483
0.4224871
0.4239721
0.4258148
0.4283039
0.4320218
0.4431795
0.4216437
0.4224268
0.4239451
0.4257794
0.4282493
0.4319356
0.4430417
0.4216424
0.4224096
0.4238974
0.4257524
0.428195
0.4317987
0.4412845
0.4216346
0.4224034
0.4238662
0.4257452
0.4281569
0.431562
0.4399599
0.4216427
0.4224117
0.4238511
0.4258257
0.4281878
0.4311878
0.4361975
0.4217558
0.422548
0.4241147
0.4261197
0.428334
0.4308923
0.436598
0.4220694
0.4229673
0.4246142
0.4263114
0.4286134
0.4314693
0.4362197
0.4225676
0.4236333
0.425233
0.4267265
0.4288881
0.4315297
0.4360837
0.4230509
0.4242993
0.4255455
0.4263921
0.4274834
0.4302084
0.435509
0.422832
0.4239308
0.4240997
0.4247737
0.4261766
0.4291219
0.4356476
0.4213038
0.4220697
0.4224304
0.4234544
0.4251737
0.4278514
0.4351938
0.4195866
0.4205504
0.4210735
0.42231
0.4242428
0.4270484
0.4348795
0.418184
0.4194413
0.4198386
0.4209282
0.4224746
0.4261925
0.4332528
0.4170574
0.4180414
0.4183942
0.4192888
0.4213206
0.4249068
0.4323179
0.4159736
0.4168932
0.416882
0.4180531
0.4200374
0.4225244
0.4299424
0.4149819
0.4158174
0.4157408
0.4168844
0.4180721
0.4215168
0.4265229
0.4144366
0.4149848
0.4151985
0.4159314
0.4177002
0.419926
0.4254202
0.4137427
0.4142779
0.4145968
0.4157146
0.4172931
0.4202394
0.424007
0.413108
0.4135592
0.4142363
0.4155777
0.4176621
0.4201699
0.4241394
0.4128876
0.4130112
0.4140822
0.4158008
0.4181787
0.420968
0.4242145
0.4128636
0.4128766
0.4142564
0.4162174
0.4186018
0.4217908
0.4256592
0.4130924
0.4129474
0.4144369
0.4161861
0.4183441
0.4217933
0.4256246
0.4133681
0.4132875
0.4145409
0.4162318
0.4179044
0.4204582
0.4257593
0.4136803
0.4135568
0.4148248
0.4163976
0.4179392
0.4180389
0.419867
0.413828
0.4139285
0.4151926
0.4167421
0.418205
0.4193944
0.4141861
0.414323
0.4156008
0.4170597
0.4185576
0.419736
0.4146013
0.4146442
0.4160431
0.4176332
0.419263
0.420966
0.4151213
0.4151737
0.4167959
0.4182289
0.4202546
0.4225402
0.426629
0.4155817
0.4158562
0.4175944
0.4194534
0.4215474
0.4248178
0.4291383
0.4161883
0.4165025
0.4178777
0.4200948
0.4231084
0.4259743
0.4296854
0.4165763
0.4168517
0.4182515
0.4198027
0.4215897
0.4243709
0.4281713
0.4170668
0.4173542
0.4185689
0.4199403
0.4215328
0.424169
0.4274596
0.4176898
0.4178871
0.4193338
0.4203614
0.4223803
0.4243873
0.4284613
0.4183776
0.4185185
0.4200244
0.4216117
0.4225972
0.4250051
0.4308334
0.4189168
0.4191192
0.421027
0.422048
0.424063
0.4259945
0.4338243
0.4196381
0.4198161
0.4214115
0.4233207
0.4249043
0.4291114
0.4390741
0.4206211
0.4205844
0.4225757
0.4239543
0.4267144
0.4301918
0.4391757
0.4216933
0.4215689
0.4231762
0.4250924
0.4270964
0.4311807
0.4374925
0.4230136
0.4229062
0.4238682
0.4256667
0.4276442
0.4316102
0.4389116
0.4237398
0.424544
0.424954
0.4261535
0.4284207
0.4314147
0.43941
0.423509
0.4253204
0.426125
0.4272094
0.428829
0.4314817
0.4395299
0.4228826
0.4246068
0.42602
0.4280484
0.4291124
0.4316413
0.4379771
0.4222867
0.4238187
0.4250991
0.4269948
0.4295327
0.4316721
0.4351694
0.421882
0.4231256
0.4244656
0.4261878
0.4287461
0.4314674
0.4350115
0.4217109
0.4227018
0.4240508
0.4260297
0.4283682
0.4311274
0.4368042
0.4216731
0.4225451
0.4238573
0.4258138
0.4282601
0.4313379
0.4380394
0.4216701
0.4225041
0.4238406
0.4257734
0.4282229
0.4317471
0.4408945
0.4216646
0.4224888
0.4239023
0.42578
0.4282373
0.4318919
0.4418881
0.4216581
0.4224823
0.4239544
0.4257995
0.4282731
0.4319619
0.4425783
0.4216595
0.4225161
0.4239787
0.4258269
0.4283152
0.4320314
0.4434066
0.4216756
0.422551
0.4239995
0.4258545
0.4283561
0.4321157
0.4433576
0.4217083
0.4225937
0.4240164
0.4258799
0.4283928
0.4324023
0.4432918
0.4217179
0.4226069
0.4240343
0.4259022
0.4284249
0.4324593
0.4432051
0.4217328
0.4229258
0.4244791
0.4259406
0.4284552
0.4324974
0.4431214
0.4217578
0.4229384
0.4244932
0.4259569
0.4284889
0.4327165
0.4430351
0.4217661
0.4229492
0.4245081
0.4259737
0.4285168
0.4328251
0.442943
0.4217719
0.422958
0.4245211
0.4259895
0.4285409
0.4328513
0.4428621
0.4217784
0.4229663
0.4245334
0.4260043
0.4285673
0.4328753
0.4427793
0.4217848
0.4229739
0.4245446
0.4260187
0.4286927
0.4329084
0.4427077
0.4217891
0.4229809
0.4245552
0.4260321
0.4287431
0.4329341
0.4426347
0.4217933
0.4229876
0.4245651
0.4260445
0.4287587
0.4329542
0.4425614
0.4217973
0.4229938
0.4245745
0.4260564
0.4287738
0.4329735
0.4424948
0.4218011
0.4229996
0.4245834
0.4260676
0.4287879
0.432992
0.4424304
0.4218044
0.4230051
0.4245917
0.4260784
0.4288012
0.4330095
0.4423748
0.4218077
0.4230106
0.4245998
0.426091
0.428865
0.4330264
0.4423255
0.4218108
0.4230159
0.4246074
0.4261028
0.4289404
0.4330423
0.4422777
0.4218138
0.423021
0.4246146
0.4261123
0.4289494
0.4330572
0.4422279
0.4218167
0.4230259
0.4246216
0.4261216
0.4289579
0.4330712
0.4422163
0.4218196
0.4230307
0.4246285
0.4261304
0.4289655
0.433084
0.4422239
0.4218228
0.4230356
0.4246352
0.4261393
0.428973
0.4331198
0.4423144
0.4218264
0.423041
0.424642
0.4261481
0.4289959
0.4331801
0.4424101
0.4218308
0.4230469
0.4246511
0.4261735
0.4290358
0.4332404
0.442511
0.4218365
0.4230549
0.4246839
0.426217
0.429076
0.4333005
0.4426133
0.4218443
0.423083
0.4247198
0.4262612
0.4291163
0.4333608
0.4427225
0.4218691
0.4231146
0.424758
0.4263062
0.4291555
0.4334244
0.442835
0.4218981
0.4231476
0.4247975
0.4263495
0.4291429
0.4334923
0.4429513
0.4219295
0.4231823
0.424838
0.4263956
0.4291926
0.4335606
0.4430745
0.4219631
0.4232183
0.4248792
0.4264415
0.4292445
0.4336292
0.4432084
0.4219986
0.4232547
0.4249207
0.4264873
0.4292968
0.4336985
0.443371
0.4220336
0.4232903
0.4249616
0.4265317
0.4293493
0.4337684
0.4435887
0.4220672
0.4233256
0.4250021
0.4265748
0.4294018
0.4338393
0.4439167
0.9959033
1
1
1
1
1
1
1
1
1
1
1
1
1
1
1
1
1
0.989836
1
1
1
1
1
1
1
1
1
1
1
1
1
1
1
1
1
0.9881663
1
1
1
1
1
1
1
1
1
1
1
1
1
1
1
1
1
0.9872213
1
1
1
1
1
1
1
1
1
1
1
1
1
1
1
1
1
0.9862871
1
1
1
1
1
1
1
1
1
1
1
1
1
1
1
1
1
0.9853869
1
1
1
1
1
1
1
1
1
1
1
1
1
1
1
1
1
0.9844969
1
1
1
1
1
1
1
1
1
1
1
1
1
1
1
1
1
0.9836288
1
1
1
1
1
1
1
1
1
1
1
1
1
1
1
1
1
0.9827962
1
1
1
1
1
1
1
1
1
1
1
1
1
1
1
1
1
0.9819255
1
1
1
1
1
1
1
1
1
1
1
1
1
1
1
1
1
0.9810583
1
1
1
1
1
1
1
1
1
1
1
1
1
1
1
1
1
0.980231
1
1
1
1
1
1
1
1
1
1
1
1
1
1
1
1
1
0.97938
1
1
1
1
1
1
1
1
1
1
1
1
1
1
1
1
1
0.9784297
1
1
1
1
1
1
1
1
1
1
1
1
1
1
1
1
1
0.9734629
1
1
1
1
1
1
1
1
1
1
1
1
1
1
1
1
1
0.9723351
1
1
1
1
1
1
1
1
1
1
1
1
1
1
1
1
1
0.970667
1
1
1
1
1
1
1
1
1
1
1
1
1
1
1
1
1
0.9688171
1
1
1
1
1
1
1
1
1
1
1
1
1
1
1
1
1
0.9668228
1
1
1
1
1
1
1
1
1
1
1
1
1
1
1
1
1
0.9648433
1
1
1
1
1
1
1
1
1
1
1
1
1
1
1
1
1
0.9628933
1
1
1
1
1
1
1
1
1
1
1
1
1
1
1
1
1
0.9608806
0.9999999
1
1
1
1
1
1
1
1
1
1
1
1
1
1
1
1
0.9587484
0.9999999
1
1
1
1
1
1
1
1
1
1
1
1
1
1
1
1
0.956498
0.9999999
1
1
1
1
1
1
1
1
1
1
1
1
1
1
1
1
0.9540589
0.9999999
1
1
1
1
1
1
1
1
1
1
1
1
1
1
1
1
0.95153
0.9999999
1
1
1
1
1
1
1
1
1
1
1
1
1
1
1
1
0.9488059
0.9999999
1
1
1
1
1
1
1
1
1
1
1
1
1
1
1
1
0.9458872
0.9999998
1
1
1
1
1
1
1
1
1
1
1
1
1
1
1
1
0.9428118
0.9999998
1
1
1
1
1
1
1
1
1
1
1
1
1
1
1
1
0.9394658
0.9999997
1
1
1
1
1
1
1
1
1
1
1
1
1
1
1
1
0.9359016
0.9999997
1
1
1
1
1
1
1
1
1
1
1
1
1
1
1
1
0.9321169
0.9999996
1
1
1
1
1
1
1
1
1
1
1
1
1
1
1
1
0.9279842
0.9999995
1
1
1
1
1
1
1
1
1
1
1
1
1
1
1
1
0.9229037
0.9999991
1
1
1
1
1
1
1
1
1
1
1
1
1
1
1
1
0.9077937
0.9999988
1
1
1
1
1
1
1
1
1
1
1
1
1
1
1
1
0.8971545
0.9999987
1
1
1
1
1
1
1
1
1
1
1
1
1
1
1
1
0.8781482
0.9999989
1
1
1
1
1
1
1
1
1
1
1
1
1
1
1
1
0.7780466
1
1
1
1
1
1
1
1
1
1
1
1
1
1
1
1
1
0.6421293
0.9999839
1
1
1
1
1
1
1
1
1
1
1
1
1
1
1
1
0.5262458
0.9998893
1
1
1
1
1
1
1
1
1
1
1
1
1
1
1
1
0.4744879
0.9998838
1
1
1
1
1
1
1
1
1
1
1
1
1
1
1
1
0.4682131
1
1
1
1
1
1
1
1
1
1
1
1
1
1
1
1
1
0.4650198
1
1
1
1
1
1
1
1
1
1
1
1
1
1
1
1
1
0.4563183
0.9995819
1
1
1
1
1
1
1
1
1
1
1
1
1
1
1
1
0.4523289
0.9994209
1
1
1
1
1
1
1
1
1
1
1
1
1
1
1
1
0.4495714
0.9991526
1
1
1
1
1
1
1
1
1
1
1
1
1
1
1
1
0.4494981
0.9994829
0.999999
1
1
1
1
1
1
1
1
1
1
1
1
1
1
1
0.4443672
0.9797288
0.9999765
0.9999999
1
1
1
1
1
1
1
1
1
1
1
1
1
1
0.4405944
0.9262428
0.999703
0.9999978
1
1
1
1
1
1
1
1
1
1
1
1
1
1
0.4349342
0.7810684
0.9979809
0.9999443
1
1
1
1
1
1
1
1
1
1
0.4346498
0.4546232
1
1
1
1
1
1
1
1
0.430384
1
1
1
1
1
1
1
1
1
1
1
1
1
1
1
1
1
1
1
1
1
1
1
1
1
1
1
1
1
1
1
1
1
1
1
1
1
1
1
1
1
1
1
1
1
1
1
1
1
0.4382712
1
1
1
1
1
1
0.4409895
0.4720946
1
1
1
1
1
1
1
0.4413746
0.5599262
0.996849
1
1
1
1
1
1
1
1
1
0.4477172
0.8556271
0.9986075
0.9999792
0.9999996
1
1
1
1
1
1
1
1
1
1
1
1
1
0.4487368
0.9405694
0.9998078
0.9999991
1
1
1
1
1
1
1
1
1
1
1
1
1
1
0.450664
0.9526942
0.9999533
0.9999999
1
1
1
1
1
1
1
1
1
1
1
1
1
1
0.4525207
0.9884419
0.9999931
1
1
1
1
1
1
1
1
1
1
1
1
1
1
1
0.4558199
0.9945848
0.9999973
1
1
1
1
1
1
1
1
1
1
1
1
1
1
1
0.4593669
0.9963617
0.9999976
1
1
1
1
1
1
1
1
1
1
1
1
1
1
1
0.4614174
0.9980473
0.9999985
1
1
1
1
1
1
1
1
1
1
1
1
1
1
1
0.4656965
0.9983393
0.9999985
1
1
1
1
1
1
1
1
1
1
1
1
1
1
1
0.4703546
0.9969441
0.9999944
1
1
1
1
1
1
1
1
1
1
1
1
1
1
1
0.4975541
0.9990291
0.9999997
1
1
1
1
1
1
1
1
1
1
1
1
1
1
1
0.5840529
0.9998966
1
1
1
1
1
1
1
1
1
1
1
1
1
1
1
1
0.6447678
0.9998651
1
1
1
1
1
1
1
1
1
1
1
1
1
1
1
1
0.8718774
0.9999968
1
1
1
1
1
1
1
1
1
1
1
1
1
1
1
1
0.8873168
0.9999969
1
1
1
1
1
1
1
1
1
1
1
1
1
1
1
1
0.9074552
0.9999991
1
1
1
1
1
1
1
1
1
1
1
1
1
1
1
1
0.9180295
0.9999996
1
1
1
1
1
1
1
1
1
1
1
1
1
1
1
1
0.929363
0.9999995
1
1
1
1
1
1
1
1
1
1
1
1
1
1
1
1
0.9325494
0.9999995
1
1
1
1
1
1
1
1
1
1
1
1
1
1
1
1
0.9356453
0.9999995
1
1
1
1
1
1
1
1
1
1
1
1
1
1
1
1
0.938704
0.9999996
1
1
1
1
1
1
1
1
1
1
1
1
1
1
1
1
0.9416533
0.9999997
1
1
1
1
1
1
1
1
1
1
1
1
1
1
1
1
0.9444537
0.9999997
1
1
1
1
1
1
1
1
1
1
1
1
1
1
1
1
0.9471262
0.9999998
1
1
1
1
1
1
1
1
1
1
1
1
1
1
1
1
0.9497122
0.9999998
1
1
1
1
1
1
1
1
1
1
1
1
1
1
1
1
0.9522453
0.9999999
1
1
1
1
1
1
1
1
1
1
1
1
1
1
1
1
0.9544727
0.9999999
1
1
1
1
1
1
1
1
1
1
1
1
1
1
1
1
0.9568368
0.9999999
1
1
1
1
1
1
1
1
1
1
1
1
1
1
1
1
0.9589499
0.9999999
1
1
1
1
1
1
1
1
1
1
1
1
1
1
1
1
0.9609957
0.9999999
1
1
1
1
1
1
1
1
1
1
1
1
1
1
1
1
0.9629075
0.9999999
1
1
1
1
1
1
1
1
1
1
1
1
1
1
1
1
0.964852
0.9999999
1
1
1
1
1
1
1
1
1
1
1
1
1
1
1
1
0.9669501
1
1
1
1
1
1
1
1
1
1
1
1
1
1
1
1
1
0.9689406
1
1
1
1
1
1
1
1
1
1
1
1
1
1
1
1
1
0.9708845
1
1
1
1
1
1
1
1
1
1
1
1
1
1
1
1
1
0.9718572
0.9999999
1
1
1
1
1
1
1
1
1
1
1
1
1
1
1
1
0.9762117
0.9999999
1
1
1
1
1
1
1
1
1
1
1
1
1
1
1
1
0.9786561
1
1
1
1
1
1
1
1
1
1
1
1
1
1
1
1
1
0.9796036
1
1
1
1
1
1
1
1
1
1
1
1
1
1
1
1
1
0.9805309
1
1
1
1
1
1
1
1
1
1
1
1
1
1
1
1
1
0.9814469
1
1
1
1
1
1
1
1
1
1
1
1
1
1
1
1
1
0.9823653
1
1
1
1
1
1
1
1
1
1
1
1
1
1
1
1
1
0.9832735
1
1
1
1
1
1
1
1
1
1
1
1
1
1
1
1
1
0.9841415
1
1
1
1
1
1
1
1
1
1
1
1
1
1
1
1
1
0.9850671
0.9999999
1
1
1
1
1
1
1
1
1
1
1
1
1
1
1
1
0.9859686
0.9999999
1
1
1
1
1
1
1
1
1
1
1
1
1
1
1
1
0.9868624
0.9999998
1
1
1
1
1
1
1
1
1
1
1
1
1
1
1
1
0.987754
0.9999991
1
1
1
1
1
1
1
1
1
1
1
1
1
1
1
1
0.9887668
0.9999986
1
1
1
1
1
1
1
1
1
1
1
1
1
1
1
1
0.9931986
1
1
1
1
1
1
1
1
1
1
1
1
1
1
1
1
1
1
1
1
1
1
1
1
1
1
1
1
1
1
1
1
1
1
1
1
1
1
1
1
1
1
1
1
1
1
1
1
1
1
1
1
1
1
1
1
1
1
1
1
1
1
1
1
1
1
1
1
1
1
1
1
1
1
1
1
1
1
1
1
1
1
1
1
1
1
1
1
1
1
1
1
1
1
1
1
1
1
1
1
1
1
1
1
1
1
1
1
1
1
1
1
1
1
1
1
1
1
1
1
1
1
1
1
1
1
1
1
1
1
1
1
1
1
1
1
1
1
1
1
1
1
1
1
1
1
1
1
1
1
1
1
1
1
1
1
1
1
1
1
1
1
1
1
1
1
1
1
1
1
1
1
1
1
1
1
1
1
1
1
1
1
1
1
1
1
1
1
1
1
1
1
1
1
1
1
1
1
1
1
1
1
1
1
1
1
1
1
1
1
1
1
1
1
1
1
1
1
1
1
1
1
1
1
1
1
1
1
1
1
1
1
1
1
1
1
1
1
1
1
1
1
1
1
1
1
1
1
1
1
1
1
1
1
1
1
1
1
1
1
1
1
1
1
1
1
1
1
1
1
1
1
1
1
1
1
1
1
1
1
1
1
1
1
1
1
1
1
1
1
1
1
1
1
1
1
1
1
1
1
1
1
1
1
1
1
1
1
1
1
1
1
1
1
1
1
1
1
1
1
1
1
1
1
1
1
1
1
1
1
1
1
1
1
1
1
1
1
1
1
1
1
1
1
1
1
1
1
1
1
1
1
1
1
1
1
1
1
1
1
1
1
1
1
1
1
1
1
1
1
1
1
1
1
1
1
1
1
1
1
1
1
1
1
1
1
1
1
1
1
1
1
1
1
1
1
1
1
1
1
1
1
1
1
1
1
1
1
1
1
1
1
1
1
1
1
1
1
1
1
1
1
1
1
1
1
1
1
1
1
1
1
1
1
1
1
1
1
1
1
1
1
1
1
1
1
1
1
1
1
1
1
1
1
1
1
1
1
1
1
1
1
1
1
1
1
1
1
1
1
1
1
1
1
1
1
1
1
1
1
1
1
1
1
1
1
1
1
1
1
1
1
1
1
1
1
1
1
1
1
1
1
1
1
1
1
1
1
1
1
1
1
1
1
1
1
1
1
1
1
1
1
1
1
1
1
1
1
1
1
1
1
1
1
1
1
1
1
1
1
1
1
1
1
1
1
1
1
1
1
1
1
1
1
1
1
1
1
1
1
1
1
1
1
1
1
1
1
1
1
1
1
1
1
1
1
1
1
1
1
1
1
1
1
1
1
1
1
1
1
1
1
1
1
1
1
1
1
1
1
1
1
1
1
1
1
1
1
1
1
1
1
1
1
1
1
1
1
1
1
1
1
1
1
1
1
1
1
1
1
1
1
1
1
1
1
1
1
1
1
1
1
1
1
1
1
1
1
1
1
1
1
1
1
1
1
1
1
1
1
1
1
1
1
1
1
1
1
1
1
1
1
1
1
1
1
1
1
1
1
1
1
1
1
1
1
1
1
1
1
1
1
1
1
1
1
1
1
1
1
1
1
1
1
1
1
1
1
1
1
1
1
1
1
1
1
1
1
1
1
1
1
1
1
1
1
1
1
1
1
1
1
1
1
1
1
1
1
1
1
1
1
1
1
1
1
1
1
1
1
1
1
1
1
1
1
1
1
1
1
1
1
1
1
1
1
1
1
1
1
1
1
1
1
1
1
1
1
1
1
1
1
1
1
1
1
1
1
1
1
1
1
1
1
1
1
1
1
1
1
1
1
1
1
1
1
1
1
1
1
1
1
1
1
1
1
1
1
1
1
1
1
1
1
1
1
1
1
1
1
1
1
1
1
1
1
1
1
1
1
1
1
1
1
1
1
1
1
1
1
1
1
1
1
1
1
1
1
1
1
1
1
1
1
1
1
1
1
1
1
1
1
1
1
1
1
1
1
1
1
1
1
1
1
1
1
1
1
1
1
1
1
1
1
1
1
1
1
1
1
1
1
1
1
1
1
1
1
1
1
1
1
1
1
1
1
1
1
1
1
1
1
1
1
1
1
1
1
1
1
1
1
1
1
1
1
1
1
1
1
1
1
1
1
1
1
1
1
1
1
1
1
1
1
1
1
1
1
1
1
1
1
1
1
1
1
1
1
1
1
1
1
1
1
1
1
1
1
1
1
1
1
1
1
1
1
1
1
1
1
1
1
1
1
1
1
1
1
1
1
1
1
1
1
1
1
1
1
1
1
1
1
1
1
1
1
1
1
1
1
1
1
1
1
1
1
1
1
1
1
1
1
1
1
1
1
1
1
1
1
1
1
1
1
1
1
1
1
1
1
1
1
1
1
1
1
1
1
1
1
1
1
1
1
1
1
1
1
1
1
1
1
1
1
1
1
1
1
1
1
1
1
1
1
1
1
1
1
1
1
1
1
1
1
1
1
1
1
1
1
1
1
1
1
1
1
1
1
1
1
1
1
1
1
1
1
1
1
1
1
1
1
1
1
1
1
1
1
1
1
1
1
1
1
1
1
1
1
1
1
1
1
1
1
1
1
1
1
1
1
1
1
1
1
1
1
1
1
1
1
1
1
1
1
1
1
1
1
1
1
1
1
1
1
1
1
1
1
1
1
1
1
1
1
1
1
1
1
1
1
1
1
1
1
1
1
1
1
1
1
1
1
1
1
1
1
1
1
1
1
1
1
1
1
1
1
1
1
1
1
1
1
1
1
1
1
1
1
1
1
1
1
1
1
1
1
1
1
1
1
1
1
1
1
1
1
1
1
1
0.4270141
0.4321795
0.4268721
0.4221915
0.4243151
0.4205339
0.4195895
0.4198632
0.419515
0.4193989
0.4198967
0.4208121
0.4201088
0.4226188
0.4261494
0.4203321
0.4226186
0.4288786
0.433292
0.4313218
0.4290428
0.9999999
0.999999
0.9999879
1
1
0.9999999
1
1
1
1
1
1
1
1
1
1
1
1
0.9996879
0.9994269
0.9978184
0.999997
1
1
1
1
0.8413603
0.4502187
1
1
0.443105
0.4297828
1
1
1
1
1
1
1
1
1
1
1
1
1
1
1
1
1
1
1
1
1
1
1
1
1
1
1
1
1
1
1
1
0.4511826
0.4389399
1
1
1
0.825445
0.4490185
1
1
1
0.9993414
0.9995233
0.9970761
0.9999891
0.999919
1
1
1
1
1
0.9999982
0.9999991
0.9999912
1
1
0.9999999
1
1
1
1
1
1
1
1
1
1
1
1
0.4278783
0.4278538
0.4265751
0.4313559
0.4313294
0.429402
0.4374565
0.4374048
0.4338382
0.4980497
0.4920976
0.4438658
0.4278259
0.4278076
0.4265304
0.4313027
0.4312774
0.4293517
0.4373496
0.4372969
0.4337679
0.4874666
0.4866518
0.4435607
0.4312526
0.431227
0.4293092
0.4372432
0.4371908
0.4337001
0.4863299
0.4860079
0.4433472
0.427718
0.4276966
0.4264504
0.4311998
0.4311733
0.4292469
0.4371379
0.437085
0.4336306
0.485699
0.4854031
0.4431862
0.4276718
0.4276471
0.4264021
0.4311467
0.4311216
0.4291958
0.4370323
0.4369799
0.4335624
0.4851227
0.4848611
0.4430559
0.4310955
0.4310701
0.4291463
0.4369294
0.4368858
0.4334951
0.4846156
0.4843736
0.4429344
0.4275942
0.4275972
0.4263117
0.4310477
0.4310245
0.4291586
0.4368423
0.4367985
0.4334276
0.4841529
0.4839425
0.4428202
0.4309991
0.4309744
0.4291198
0.4367548
0.4367113
0.4333639
0.4837379
0.4835547
0.4427152
0.4275349
0.427514
0.426222
0.4309487
0.4309245
0.4290793
0.4366672
0.4366241
0.4333039
0.4833663
0.4831863
0.4426127
0.4274928
0.4274723
0.4261779
0.430899
0.4308768
0.4290396
0.4365804
0.4365371
0.4332444
0.4830209
0.4828538
0.4425134
0.4274513
0.4274317
0.4261521
0.4308538
0.4308315
0.4289995
0.4364931
0.4364499
0.4331847
0.4827019
0.482559
0.4424214
0.4274288
0.4274247
0.4261427
0.4308083
0.430785
0.4289762
0.4364059
0.4363626
0.4331249
0.4824214
0.48228
0.4423312
0.4274204
0.4274166
0.4261336
0.4307815
0.4307774
0.4289689
0.4363187
0.4362725
0.43309
0.4821399
0.4819811
0.4422481
0.4274124
0.4274082
0.4261245
0.4307726
0.4307682
0.4289615
0.4362671
0.4362579
0.4330771
0.4818297
0.4810461
0.4422516
0.4274039
0.4273993
0.4261156
0.4307629
0.4307579
0.4289535
0.4362473
0.4362379
0.4330634
0.4794764
0.4792531
0.4422698
0.4273952
0.4273899
0.4261063
0.4307524
0.4307469
0.4289449
0.4362264
0.4362167
0.433049
0.4792659
0.479065
0.4423252
0.4273828
0.4273324
0.4260938
0.4307415
0.4307299
0.4288661
0.4362053
0.4361944
0.4330336
0.4787352
0.4784628
0.4423764
0.4272833
0.4272697
0.4260807
0.4307194
0.430713
0.4288048
0.4361828
0.4361705
0.4330167
0.4781584
0.4778669
0.4424275
0.4272625
0.427256
0.4260699
0.4307063
0.4306995
0.4287916
0.4361583
0.4361454
0.4329989
0.477559
0.4772581
0.4424809
0.427249
0.4272416
0.4260588
0.4306924
0.430685
0.4287773
0.4361318
0.4361185
0.4329801
0.4770046
0.4767436
0.4425451
0.4272348
0.4272265
0.4260469
0.4306776
0.4306696
0.4287623
0.4361042
0.4360905
0.4329595
0.4764948
0.4762509
0.4426095
0.427219
0.4272095
0.4260349
0.4306616
0.4306532
0.4287457
0.4360753
0.4360617
0.432939
0.4759947
0.4757547
0.4426769
0.4271994
0.427204
0.4260104
0.4306439
0.4305834
0.4286927
0.436047
0.4360323
0.4329134
0.4754851
0.4752381
0.4427428
0.4304894
0.4304408
0.4285798
0.436018
0.4360026
0.4328796
0.4749703
0.4746998
0.4428092
0.4271463
0.4271478
0.4259942
0.4304264
0.4304135
0.4285402
0.4359875
0.4359717
0.4328533
0.4744281
0.4741652
0.4428775
0.42714
0.4271293
0.4259727
0.4304005
0.4303871
0.4285155
0.4359556
0.4359392
0.4328249
0.4738926
0.4736147
0.4429469
0.4271179
0.4271058
0.4259539
0.430367
0.4303051
0.4284849
0.4359226
0.4358981
0.4327136
0.4733354
0.4730494
0.4430201
0.4270936
0.4270793
0.4259347
0.4301939
0.4301302
0.4284495
0.4358691
0.4358456
0.432491
0.472762
0.4724699
0.4430832
0.4232478
0.4232503
0.4226005
0.4248944
0.424893
0.4240258
0.4270649
0.4270488
0.4258932
0.4301029
0.4300813
0.4284131
0.4358268
0.4358081
0.4324464
0.4721809
0.4718757
0.4431378
0.423245
0.4232371
0.4225859
0.4248838
0.4248721
0.4240046
0.4270326
0.4270152
0.4258643
0.4300588
0.4300348
0.4283742
0.4357889
0.4357603
0.4323835
0.4715696
0.4712591
0.4431883
0.4232251
0.4232139
0.4225408
0.4248592
0.4248459
0.4239828
0.4269956
0.4269757
0.4258323
0.4300036
0.4299728
0.4283286
0.4355116
0.4353386
0.4320905
0.4709483
0.4706236
0.443195
0.4232002
0.4231679
0.4225021
0.4248319
0.4248182
0.4239573
0.4269534
0.4269311
0.4257971
0.4299427
0.4299114
0.4282772
0.435281
0.4352417
0.4319824
0.4703079
0.4699776
0.4431375
0.4231521
0.4231352
0.4224671
0.4248057
0.4247951
0.4239304
0.4269091
0.4268884
0.425765
0.4298764
0.4298378
0.4282226
0.4351615
0.4347828
0.4318686
0.4696309
0.4692023
0.4420155
0.423102
0.423073
0.4224714
0.4247818
0.4247747
0.4238839
0.4268713
0.4268571
0.4257462
0.4298002
0.4297567
0.4281727
0.4344967
0.4342248
0.4317034
0.4686887
0.4677405
0.4406977
0.4230653
0.4230765
0.4224951
0.4247639
0.4247676
0.4238349
0.4268573
0.4268801
0.4257632
0.4297026
0.4296414
0.4281605
0.4339119
0.4336416
0.4313978
0.4666063
0.466313
0.4396894
0.4231195
0.4231918
0.4226058
0.4248229
0.4248492
0.4239253
0.4269437
0.4270317
0.4259343
0.4295794
0.4295433
0.428245
0.4333715
0.4327686
0.4309828
0.4640995
0.4618192
0.4371014
0.4233442
0.4235568
0.4229589
0.424949
0.4251186
0.4243457
0.427116
0.4272829
0.4262856
0.4296148
0.4298051
0.4284428
0.4323506
0.4324214
0.4310592
0.4610883
0.4606343
0.4364705
0.4238588
0.42418
0.4235904
0.4253302
0.4256589
0.4249143
0.4275244
0.4279069
0.4264568
0.4301671
0.4304038
0.4289143
0.4328381
0.4334282
0.4317903
0.4504824
0.449884
0.4360239
0.4245491
0.4248823
0.4243231
0.4259587
0.4262257
0.4255358
0.4278665
0.4274907
0.426939
0.4300021
0.4295218
0.4285099
0.4336932
0.433499
0.4309697
0.4486488
0.4466738
0.4357635
0.4251081
0.4248189
0.4246328
0.4259816
0.4252337
0.4249877
0.4267488
0.4260597
0.4255701