/*--------------------------------*- C++ -*----------------------------------*\
| =========                 |                                                 |
| \\      /  F ield         | OpenFOAM: The Open Source CFD Toolbox           |
|  \\    /   O peration     | Version:  2206                                  |
|   \\  /    A nd           | Website:  www.openfoam.com                      |
|    \\/     M anipulation  |                                                 |
\*---------------------------------------------------------------------------*/
FoamFile
{
    version     2.0;
    format      ascii;
    arch        "LSB;label=32;scalar=64";
    class       volScalarField;
    location    "2.2";
    object      ddt0(alpha.a);
}
// * * * * * * * * * * * * * * * * * * * * * * * * * * * * * * * * * * * * * //

dimensions      [0 0 -1 0 0 0 0];

internalField   nonuniform List<scalar> 
13078
(
-0.08446971
-0.01319746
-0.001600022
-0.0004862104
-0.000186754
-0.0001373566
-0.000117077
-0.008070936
-0.002373766
-0.0007636648
-0.0002685012
-0.0001607113
-0.0001329716
-0.0001146992
-0.001571564
-0.0007874227
-0.0002853999
-0.0001639012
-0.0001369128
-0.0001180122
-0.0001053837
-0.0001024115
-0.0001616533
-0.0001152328
-0.0001088431
-0.0001038306
-9.802379e-05
-9.270922e-05
0.0001485166
5.241299e-06
-4.253034e-05
-6.399293e-05
-7.219347e-05
-7.671218e-05
-7.885026e-05
0.0001425019
3.938389e-05
-3.855716e-06
-3.133342e-05
-4.895351e-05
-5.866073e-05
-6.560419e-05
0.0001143156
4.445499e-05
1.31574e-05
-1.278646e-05
-3.169036e-05
-4.580616e-05
-5.49302e-05
9.014351e-05
3.838152e-05
1.794752e-05
-4.31798e-06
-2.17681e-05
-3.625989e-05
-4.761478e-05
7.180461e-05
2.986527e-05
1.686884e-05
-1.343899e-06
-1.682415e-05
-3.06774e-05
-4.214465e-05
5.821779e-05
2.147308e-05
1.305386e-05
-1.605354e-06
-1.504415e-05
-2.785337e-05
-3.902594e-05
4.778684e-05
1.394103e-05
8.508714e-06
-3.554408e-06
-1.528964e-05
-2.697467e-05
-3.759629e-05
3.951478e-05
7.340376e-06
3.819037e-06
-6.414981e-06
-1.671033e-05
-2.734942e-05
-3.734416e-05
3.266786e-05
1.550152e-06
-7.609962e-07
-9.647581e-06
-1.886909e-05
-2.859799e-05
-3.795878e-05
2.679243e-05
-3.610692e-06
-5.179677e-06
-1.330021e-05
-2.174753e-05
-3.048781e-05
-3.913429e-05
2.153539e-05
-8.394385e-06
-9.394824e-06
-1.631173e-05
-2.405146e-05
-3.241635e-05
-4.05961e-05
1.664027e-05
-1.296192e-05
-1.358278e-05
-2.005507e-05
-2.731299e-05
-3.46413e-05
-4.231386e-05
1.189907e-05
-1.747134e-05
-1.776561e-05
-2.356952e-05
-3.029765e-05
-3.708895e-05
-4.423902e-05
7.123812e-06
-2.203783e-05
-2.198523e-05
-2.730954e-05
-3.352497e-05
-3.972157e-05
-4.629351e-05
2.162142e-06
-2.6761e-05
-2.641113e-05
-3.129863e-05
-3.725102e-05
-4.298668e-05
-4.847685e-05
-3.104874e-06
-3.181984e-05
-3.116114e-05
-3.552752e-05
-3.998605e-05
-4.511113e-05
-5.04952e-05
-8.871018e-06
-3.732169e-05
-3.636815e-05
-4.024769e-05
-4.439252e-05
-4.900087e-05
-5.273404e-05
-1.5301e-05
-4.347814e-05
-4.221649e-05
-4.554788e-05
-4.868672e-05
-5.248515e-05
-5.521115e-05
-2.253405e-05
-5.054692e-05
-4.894314e-05
-5.155796e-05
-5.376314e-05
-5.702855e-05
-5.869394e-05
-3.083359e-05
-5.87038e-05
-5.67121e-05
-5.856165e-05
-5.971233e-05
-6.009787e-05
-6.071959e-05
-4.047369e-05
-6.821324e-05
-6.580125e-05
-6.690354e-05
-6.705658e-05
-6.65753e-05
-6.621756e-05
-5.165594e-05
-7.929064e-05
-7.65928e-05
-7.689827e-05
-7.572027e-05
-7.314464e-05
-7.120588e-05
-6.455504e-05
-9.221032e-05
-8.937426e-05
-8.888666e-05
-8.644366e-05
-8.212666e-05
-7.860755e-05
-7.93674e-05
-0.0001073054
-0.0001044953
-0.0001032618
-9.983974e-05
-9.370936e-05
-8.477293e-05
-9.642009e-05
-0.0001249277
-0.0001222474
-0.000120719
-0.0001165114
-0.0001093517
-0.000100263
-0.0001154373
-0.0001445181
-0.0001425667
-0.0001414163
-0.0001365992
-0.0001288115
-0.0001174648
-0.0001362701
-0.0001665987
-0.0001660403
-0.0001651389
-0.0001606579
-0.00015281
-0.000140378
-0.0001582475
-0.0001890632
-0.0001907719
-0.0001919301
-0.0001885135
-0.0001817974
-0.0001713707
-0.0001800888
-0.0002121212
-0.0002147944
-0.0002184507
-0.0002183274
-0.0002158488
-0.0002093636
-0.0001998427
-0.0002329816
-0.0002380161
-0.0002459812
-0.0002510918
-0.000254427
-0.0002563961
-0.0002151057
-0.0002488206
-0.0002571132
-0.0002692257
-0.0002821605
-0.0002976198
-0.0003103882
-0.0002225243
-0.0002588957
-0.0002764303
-0.0002961723
-0.0003112974
-0.0003288964
-0.0003541704
-0.0002202869
-0.0002675425
-0.0002929454
-0.0003106487
-0.0003222261
-0.0003365449
-0.0003681497
-0.0002128455
-0.0002696054
-0.0002957733
-0.0003042463
-0.0002967021
-0.0002877573
-0.0002893425
-0.0001974308
-0.0002574981
-0.0002752417
-0.0002576804
-0.0002148259
-0.0001724079
-0.0001330572
-0.0001715971
-0.0002234906
-0.0002176902
-0.0001602417
-7.159794e-05
3.300949e-05
0.0002271733
-0.0001338588
-0.0001590555
-0.000113876
-1.261809e-05
0.0001313883
0.0004237953
0.001845382
-7.846991e-05
-6.053769e-05
3.568395e-05
0.0001862176
0.0005103624
0.002016973
0.008811118
2.351229e-06
8.057439e-05
0.0002217848
0.0005419668
0.001679271
0.006936842
0.01273456
0.0001262832
0.0002634591
0.0005450563
0.001211849
0.004890932
0.01127294
0.007745394
0.0002925396
0.0005429354
0.001068068
0.002400623
0.008006674
0.009680602
-0.0006389904
0.0005316628
0.001055153
0.001828194
0.004667154
0.008759915
0.00249286
-0.008002279
0.0008654921
0.00151167
0.002798922
0.007349239
0.005682488
-0.004721606
-0.01330704
0.001313559
0.001593809
0.004172418
0.006532282
-2.969608e-05
-0.009554401
-0.0169483
0.001543306
0.001841418
0.004765942
0.003121065
-0.006142815
-0.01507772
-0.019767
0.001749364
0.00249024
0.003922752
-0.001410837
-0.01137588
-0.01863069
-0.02161532
0.00149765
0.002224935
0.002335014
-0.005722276
-0.0151088
-0.02083554
-0.02307545
0.0008371687
0.001381986
-0.001527567
-0.01105885
-0.0188177
-0.02257923
-0.02469088
-8.885845e-05
0.0002474171
-0.00448411
-0.01272194
-0.01985818
-0.02334647
-0.02465649
-0.0009072915
-0.000366722
-0.005556374
-0.01346364
-0.01986196
-0.02238631
-0.02236257
-0.002164829
-0.001281697
-0.006573493
-0.01418808
-0.01993332
-0.02160741
-0.02088356
-0.003999024
-0.00207811
-0.0068782
-0.0141017
-0.01938304
-0.02062963
-0.0198606
-0.005129842
-0.001906369
-0.005354139
-0.01195754
-0.01710827
-0.01842558
-0.01787872
-0.005805981
-0.002620729
-0.004546698
-0.01036585
-0.01570942
-0.01749058
-0.01698674
-0.006363005
-0.003830476
-0.004044449
-0.008318541
-0.0134995
-0.01573731
-0.0152454
-0.005965264
-0.004578677
-0.003059196
-0.004820468
-0.009245186
-0.01181295
-0.01255666
-0.004402949
-0.004980609
-0.001569053
-0.001546171
-0.005445285
-0.009420243
-0.01125361
-0.002233017
-0.004997515
-0.003285044
-0.001631137
-0.003439927
-0.00755982
-0.009363419
-0.0006338884
-0.004647485
-0.005136622
-0.001185765
4.870924e-05
-0.003669752
-0.006577341
0.0003317192
-0.003164183
-0.005201026
-0.001730503
0.002469821
0.0002360397
-0.005647875
0.0005196386
-0.001186418
-0.004169154
-0.002720885
0.002343822
0.002313535
-0.003730255
0.0003706979
0.0001354398
-0.002285674
-0.003985156
0.0002625819
0.004654429
0.001181233
0.0001654585
0.0002889155
-0.0005453155
-0.003402358
-0.001230924
0.005495549
0.004820167
2.08769e-05
0.0001008864
0.0001029789
-0.001215665
-0.002129585
0.002887694
0.007466703
-6.888463e-05
-3.532831e-05
5.019919e-05
-6.846273e-05
-0.001273645
-0.0008156589
0.006568961
-0.0001225422
-0.0001353704
-8.616611e-05
6.054223e-06
-0.0001707138
-0.001092652
0.001408887
-0.0001515172
-0.0002034626
-0.0001913628
-0.0001320574
-5.215549e-05
-0.0001792393
-0.0008381886
-0.0001679817
-0.0002457862
-0.000265636
-0.0002406422
-0.0001844141
-0.0001254682
-0.0001938077
-0.0001811368
-0.0002650419
-0.0003050651
-0.0003100485
-0.0002920991
-0.0002631287
-0.0002506012
-0.0001906979
-0.0002684418
-0.0003139414
-0.0003396295
-0.0003478244
-0.0003506135
-0.0003501791
-0.0001982766
-0.0002645808
-0.0003058609
-0.0003387794
-0.0003612193
-0.0003798191
-0.0004015032
-0.0002030283
-0.0002576672
-0.0002900548
-0.0003214385
-0.0003477519
-0.0003727235
-0.000402455
-0.0002005703
-0.0002499473
-0.0002727115
-0.0002977399
-0.000321465
-0.0003446914
-0.0003688828
-0.000191674
-0.0002375967
-0.0002549662
-0.000273766
-0.0002914205
-0.0003078134
-0.000323595
-0.0001782315
-0.0002206188
-0.0002337123
-0.0002491503
-0.0002600471
-0.0002692954
-0.0002771073
-0.0001616996
-0.0002010971
-0.0002103288
-0.0002210074
-0.0002274787
-0.0002317937
-0.0002333745
-0.0001441644
-0.0001802924
-0.0001867788
-0.0001937654
-0.0001968618
-0.0001971582
-0.0001946307
-0.0001263904
-0.000160342
-0.0001633634
-0.0001674466
-0.0001684368
-0.0001666746
-0.0001615683
-0.0001094828
-0.0001409958
-0.0001416209
-0.0001441175
-0.0001437344
-0.0001408262
-0.0001350474
-9.367167e-05
-0.0001235341
-0.0001226606
-0.0001238535
-0.0001228325
-0.000119476
-0.0001137238
-7.90553e-05
-0.0001078473
-0.0001058042
-0.0001066518
-0.0001054439
-0.0001020666
-9.755693e-05
-6.610493e-05
-9.406734e-05
-9.141108e-05
-9.219242e-05
-9.122466e-05
-8.868006e-05
-8.637533e-05
-5.460329e-05
-8.181219e-05
-7.920501e-05
-7.989265e-05
-7.96043e-05
-7.808896e-05
-7.692067e-05
-4.424424e-05
-7.138078e-05
-6.85499e-05
-6.959742e-05
-6.997415e-05
-6.950267e-05
-6.947524e-05
-3.513458e-05
-6.235017e-05
-5.938716e-05
-6.098756e-05
-6.200075e-05
-6.321397e-05
-6.353748e-05
-2.720527e-05
-5.423026e-05
-5.162637e-05
-5.371929e-05
-5.548012e-05
-5.791069e-05
-5.872549e-05
-2.000499e-05
-4.715053e-05
-4.482821e-05
-4.739186e-05
-4.97761e-05
-5.283676e-05
-5.465062e-05
-1.351051e-05
-4.097876e-05
-3.88207e-05
-4.178769e-05
-4.471788e-05
-4.851071e-05
-5.133215e-05
-7.737503e-06
-3.539433e-05
-3.350122e-05
-3.687572e-05
-4.086119e-05
-4.495456e-05
-4.852849e-05
-2.445104e-06
-3.026456e-05
-2.868665e-05
-3.256704e-05
-3.725782e-05
-4.165505e-05
-4.617562e-05
2.502163e-06
-2.547398e-05
-2.422485e-05
-2.850806e-05
-3.358081e-05
-3.858753e-05
-4.382071e-05
7.257143e-06
-2.091789e-05
-1.998199e-05
-2.47668e-05
-3.032125e-05
-3.59048e-05
-4.169651e-05
1.197913e-05
-1.651293e-05
-1.591288e-05
-2.105744e-05
-2.708633e-05
-3.33664e-05
-3.973761e-05
1.6663e-05
-1.218163e-05
-1.200146e-05
-1.783581e-05
-2.427747e-05
-3.107933e-05
-3.795956e-05
2.147807e-05
-7.80327e-06
-8.026374e-06
-1.45309e-05
-2.148714e-05
-2.89966e-05
-3.638288e-05
2.661173e-05
-3.154179e-06
-3.846379e-06
-1.112444e-05
-1.874363e-05
-2.700916e-05
-3.498873e-05
3.234991e-05
1.963398e-06
4.165211e-07
-7.823484e-06
-1.633717e-05
-2.536993e-05
-3.394116e-05
3.90035e-05
7.699318e-06
4.844111e-06
-4.675348e-06
-1.430089e-05
-2.418985e-05
-3.3472e-05
4.704694e-05
1.415614e-05
9.43954e-06
-1.872194e-06
-1.284987e-05
-2.384339e-05
-3.382212e-05
5.713998e-05
2.154387e-05
1.394929e-05
1.644045e-07
-1.254409e-05
-2.471223e-05
-3.531507e-05
7.034912e-05
2.98313e-05
1.776876e-05
7.050994e-07
-1.412196e-05
-2.73989e-05
-3.856473e-05
8.799361e-05
3.827754e-05
1.892714e-05
-1.81846e-06
-1.876767e-05
-3.29825e-05
-4.332615e-05
0.0001112823
4.459228e-05
1.50679e-05
-9.590152e-06
-2.848383e-05
-4.120906e-05
-5.103486e-05
0.0001385771
4.175014e-05
7.119251e-07
-2.68566e-05
-4.303728e-05
-5.423697e-05
-6.16257e-05
0.0001542925
1.310295e-05
-3.521362e-05
-5.459847e-05
-6.611783e-05
-7.182469e-05
-7.425508e-05
-5.689898e-05
-0.0001379907
-9.703164e-05
-9.918637e-05
-9.63583e-05
-9.195867e-05
-8.813651e-05
-0.000981001
-0.0006683716
-0.0002708219
-0.0001516866
-0.0001269497
-0.0001116941
-0.0001013587
-0.001104937
-0.0007899748
-0.0005370944
-0.0002349495
-0.0001518596
-0.0001280373
-0.0001119942
-0.0001016896
-8.466829e-05
-6.427201e-05
-4.421789e-05
-1.893975e-05
6.23127e-06
9.027553e-05
-0.000100609
-8.443773e-05
-6.522712e-05
-4.689482e-05
-1.950448e-05
2.56967e-06
6.711542e-06
-9.481576e-05
-8.063662e-05
-6.071547e-05
-4.005827e-05
-2.031978e-05
-1.696116e-07
-1.680422e-05
-8.681153e-05
-7.613559e-05
-6.031967e-05
-5.035858e-05
-2.211727e-05
-2.578414e-06
-3.638527e-05
-7.764175e-05
-7.045573e-05
-5.693538e-05
-3.748425e-05
-2.174886e-05
-5.090957e-06
-5.612457e-05
-6.865695e-05
-6.452951e-05
-5.314198e-05
-3.45012e-05
-2.226729e-05
-7.899637e-06
-7.719587e-05
-6.049249e-05
-5.920289e-05
-4.981917e-05
-3.261392e-05
-2.337129e-05
-1.081434e-05
-9.900416e-05
-5.436513e-05
-5.46577e-05
-4.712333e-05
-3.077816e-05
-2.247529e-05
-1.360976e-05
-0.0001213886
-5.038836e-05
-5.147704e-05
-4.491067e-05
-2.990728e-05
-2.256969e-05
-1.625767e-05
-0.0001443819
-4.734658e-05
-4.95733e-05
-4.366788e-05
-2.941203e-05
-2.32986e-05
-1.891499e-05
-0.000167797
-4.580423e-05
-4.817371e-05
-4.320607e-05
-2.960868e-05
-2.423741e-05
-2.144812e-05
-0.0001911423
-4.529754e-05
-4.775744e-05
-4.302495e-05
-3.010185e-05
-2.513563e-05
-2.382979e-05
-0.000214759
-4.553608e-05
-4.790607e-05
-4.33736e-05
-3.080508e-05
-2.618907e-05
-2.570128e-05
-0.0002379262
-4.629132e-05
-4.850629e-05
-4.399334e-05
-3.149302e-05
-2.713677e-05
-2.81335e-05
-0.0002583836
-4.735372e-05
-4.939713e-05
-4.475493e-05
-3.227597e-05
-2.800607e-05
-2.986601e-05
-0.000277364
-4.864129e-05
-5.040109e-05
-4.564268e-05
-3.324374e-05
-2.867989e-05
-3.125269e-05
-0.0002987657
-5.008037e-05
-5.145404e-05
-4.660839e-05
-3.435977e-05
-3.203268e-05
-3.236905e-05
-0.0003171748
-5.159387e-05
-5.257171e-05
-4.749535e-05
-3.514022e-05
-3.351948e-05
-3.29919e-05
-0.0003334097
-5.31163e-05
-5.364307e-05
-4.83089e-05
-3.492586e-05
-3.08258e-05
-3.316561e-05
-0.0003476547
-5.457029e-05
-5.45875e-05
-4.87431e-05
-3.461218e-05
-3.02965e-05
-3.253768e-05
-0.0003597001
-5.609375e-05
-5.542181e-05
-4.895319e-05
-3.43587e-05
-2.920117e-05
-3.10669e-05
-0.0003666224
-5.770043e-05
-5.602597e-05
-4.936564e-05
-3.347294e-05
-2.756673e-05
-2.893869e-05
-0.0003715015
-5.923145e-05
-5.616878e-05
-4.901247e-05
-3.380396e-05
-2.71247e-05
-2.653997e-05
-0.0003736412
-6.035205e-05
-5.598746e-05
-4.538237e-05
-3.328108e-05
-1.451342e-05
-2.271407e-05
-0.0003718546
-6.254357e-05
-5.672417e-05
-4.596734e-05
-4.182475e-05
-1.745683e-05
-1.666521e-05
-0.0003634351
-6.51582e-05
-5.694508e-05
-4.454898e-05
-2.099749e-05
-1.051303e-05
-1.007911e-05
-0.0003502961
-6.909486e-05
-5.607783e-05
-4.033657e-05
-1.382474e-05
-3.64322e-06
-4.517956e-06
-0.0003307315
-7.308194e-05
-5.257486e-05
-3.317823e-05
-2.756554e-06
5.527595e-06
1.027743e-05
-0.000295583
-9.019891e-05
-6.453884e-05
-5.15089e-05
-6.556706e-06
1.673233e-05
2.058895e-05
-0.0002488241
-0.0001072314
-6.026599e-05
-3.271629e-05
4.30522e-06
3.114771e-05
3.53922e-05
-0.0001905921
-0.0001202638
-6.998054e-05
-3.606466e-05
1.058374e-05
4.747012e-05
8.89782e-05
-7.469569e-05
-0.0001537995
-0.0001017957
-4.519867e-05
1.355797e-05
6.348711e-05
8.977207e-05
7.744936e-05
-0.0001960228
-0.0001275243
-6.070865e-05
9.576568e-06
7.342342e-05
0.0001167787
0.0001833452
-0.0002516944
-0.0001741533
-9.637977e-05
-8.686676e-06
6.822383e-05
0.0001193076
0.0002327018
-0.0003189556
-0.0002535546
-0.0001589854
-5.275395e-05
1.554555e-05
7.167024e-05
-8.637943e-06
-0.000382936
-0.0003470526
-0.00020955
-0.0001173066
-6.276507e-05
-7.188098e-05
0.002510921
-0.0004032532
-0.0004285382
-0.0002151539
-0.0001304248
-0.0001092741
-0.0002242354
-0.0005948627
-0.0003459431
-0.0004663952
-0.000181655
-6.882599e-05
-5.478145e-05
-0.0003039017
-0.002694986
-0.0001365778
-0.0003359843
0.0002412271
0.00131054
0.001200843
-0.003310394
-0.009879545
0.001407417
0.001436112
0.007383652
0.006259444
-0.001608617
-0.008322544
-0.01135069
0.009976477
0.01260943
0.009337185
-0.001118969
-0.007908306
-0.0147371
-0.01584875
0.01443511
0.008892951
-0.000737418
-0.006973445
-0.01278896
-0.01714035
-0.02142843
0.006678115
-0.003106503
-0.006569063
-0.01035146
-0.01609617
-0.02136136
-0.0265759
-0.002574303
-0.01047416
-0.009543279
-0.01075521
-0.01467655
-0.01950783
-0.02232945
-0.01114108
-0.01625023
-0.01052366
-0.009159623
-0.01543928
-0.02039066
-0.01715754
-0.01422247
-0.01657263
-0.01026116
-0.01316356
-0.0172352
-0.0221989
-0.02229105
-0.01746552
-0.01964193
-0.01350904
-0.01456478
-0.019205
-0.02154717
-0.02749306
-0.01784126
-0.01851269
-0.0147584
-0.0156161
-0.01662397
-0.02350382
-0.02903925
-0.02021608
-0.01901687
-0.01612664
-0.01532438
-0.01519765
-0.01871148
-0.01980475
-0.02189374
-0.02137936
-0.01761691
-0.01727209
-0.01277273
-0.01146297
-0.004641622
-0.02386107
-0.02292244
-0.018767
-0.01437783
-0.008048986
0.000587679
0.01025513
-0.02417186
-0.02317823
-0.01785529
-0.01193331
-0.00248058
0.009626372
0.009860004
-0.02284766
-0.02228274
-0.01533554
-0.009539688
0.001884408
0.01231383
0.00385005
-0.02172502
-0.02089025
-0.01405126
-0.007376074
-0.0007183436
0.001209951
0.0208376
-0.02001458
-0.01923763
-0.01259338
-0.006037913
-0.002321615
-0.01425581
-0.01069053
-0.01922238
-0.01840254
-0.01268195
-0.005353054
-0.001831421
-0.002478381
-0.01731459
-0.01606585
-0.009622738
-0.00436735
-0.002680177
-0.006537835
-0.01574148
-0.01392525
-0.006422913
-0.003532232
-0.00312344
-0.006698129
-0.01315983
-0.01044797
-0.00163001
-0.0001668256
0.0005405418
-0.003382747
-0.007613627
-0.01087318
-0.008508348
-8.498497e-05
0.005417645
0.006426106
0.002911476
-0.004470334
-0.009511226
-0.006816967
-0.0007687056
0.005299254
0.008492885
0.005750853
0.003034773
-0.008245143
-0.005036364
0.001382005
0.003203097
-0.001419227
-0.001561595
-0.0009650191
-0.00656346
-0.004318476
-0.0007356225
0.00161085
-0.001014661
-0.00524084
-0.006381562
-0.007316476
-0.004788259
0.003674406
0.002346738
-0.001670557
-0.006510511
-0.007411427
-0.005414481
-0.002747983
0.002774292
0.003724862
-0.003872106
-0.005499378
-0.01514983
-0.003935823
-0.004103058
0.004019828
0.0008717083
-0.003604502
-0.009329904
-0.01519005
-0.0008374593
-0.0009889157
0.001654446
0.00327719
-0.005565668
-0.006232543
0.004269112
0.004144623
7.056186e-05
0.001317052
0.0009142036
-0.002311128
-0.007655271
-0.0007624582
0.00935978
0.005642196
0.002152886
0.0001549045
-0.003008874
-0.005243831
-0.007627425
0.009337281
0.01131319
0.002341169
0.001284609
-0.003048814
-0.001385378
-0.002779582
0.003043631
0.01214654
0.007256468
0.001453948
-0.0007047881
-0.001162904
-0.002126302
-0.0002923291
0.001791619
0.00775535
0.002433156
-0.0001854026
-0.003779245
-0.005380135
-0.000247882
-0.0003590922
-2.499859e-05
0.001945085
0.0002307981
-0.002217042
-0.002649528
-0.000377936
-0.000301915
-0.0002094059
-0.0001989608
-0.0005848025
-0.001235492
-0.0008897548
-0.0004306822
-0.0004062894
-0.0003025402
-0.0002485584
-0.0002416952
-0.0005154916
-0.0008845141
-0.0004318967
-0.0004386248
-0.000325938
-0.0002500614
-0.0002210692
-0.0002296293
-0.00117719
-0.0003922575
-0.000410324
-0.0003005039
-0.0002265008
-0.0001927967
-0.0001820319
-0.0007514067
-0.0003369234
-0.0003559772
-0.0002541538
-0.0001877196
-0.0001530312
-0.0001326463
-0.000554332
-0.000280926
-0.0002969447
-0.0002108976
-0.0001479773
-0.0001150535
-0.0001156397
-0.0007446551
-0.0002302401
-0.0002406425
-0.0001570232
-0.0001090808
-7.749681e-05
-6.759227e-05
-0.0001876083
-0.0001865151
-0.0001969831
-0.0001188406
-7.839407e-05
-4.82062e-05
-3.697428e-05
-0.0003986383
-0.0001516071
-0.0001655819
-9.466486e-05
-5.763816e-05
-3.123152e-05
-1.969843e-05
-0.0003602816
-0.0001292742
-0.0001331419
-7.670084e-05
-4.506785e-05
-2.375898e-05
-2.149553e-05
-0.0003671695
-0.0001077135
-0.0001124584
-6.42691e-05
-3.752159e-05
-2.055282e-05
-2.188055e-05
-0.0003344521
-8.892988e-05
-7.149414e-05
-5.426606e-05
-5.575927e-05
-1.911939e-05
-1.712677e-05
-0.0003066399
-7.886444e-05
-6.777855e-05
-5.249214e-05
-5.270571e-05
-1.77869e-05
-1.596868e-05
-0.0002846968
-7.161382e-05
-6.381045e-05
-5.056964e-05
-4.940712e-05
-1.750295e-05
-1.388032e-05
-0.0002593162
-6.612751e-05
-6.01136e-05
-4.818817e-05
-4.668078e-05
-1.70578e-05
-1.291433e-05
-0.0002354371
-6.191775e-05
-5.705542e-05
-4.612728e-05
-4.408028e-05
-1.599192e-05
-1.18628e-05
-0.0002145308
-5.880231e-05
-5.457428e-05
-4.4258e-05
-4.170652e-05
-2.007855e-05
-1.181492e-05
-0.0001955714
-5.584443e-05
-5.234612e-05
-4.269434e-05
-4.005238e-05
-1.807329e-05
-1.157761e-05
-0.0001777879
-5.325757e-05
-5.052129e-05
-4.157e-05
-3.875839e-05
-1.789828e-05
-1.098856e-05
-0.0001614386
-5.112376e-05
-4.909706e-05
-4.062468e-05
-3.765772e-05
-1.775398e-05
-1.063517e-05
-0.0001466496
-4.931864e-05
-4.776333e-05
-3.970943e-05
-3.67187e-05
-1.765115e-05
-1.043716e-05
-0.0001330213
-4.758877e-05
-4.653277e-05
-3.879994e-05
-3.579648e-05
-1.732859e-05
-1.001029e-05
-0.0001179195
-4.600877e-05
-4.540316e-05
-3.790093e-05
-3.474596e-05
-1.927212e-05
-9.337206e-06
-0.0001042432
-4.456707e-05
-4.431514e-05
-3.719873e-05
-3.410021e-05
-1.51865e-05
-8.746584e-06
-9.1935e-05
-4.324519e-05
-4.32908e-05
-3.640206e-05
-3.351388e-05
-1.499623e-05
-8.113051e-06
-8.027436e-05
-4.207774e-05
-4.244524e-05
-3.573201e-05
-3.329371e-05
-1.464995e-05
-7.440827e-06
-8.72923e-05
-4.113165e-05
-4.18541e-05
-3.537386e-05
-3.319024e-05
-1.42402e-05
-6.706611e-06
-6.848515e-05
-4.058149e-05
-4.16159e-05
-3.522067e-05
-3.315552e-05
-1.403327e-05
-5.479298e-06
-5.846085e-05
-4.059221e-05
-4.174849e-05
-3.528936e-05
-3.356178e-05
-1.328662e-05
-4.62993e-06
-4.917212e-05
-4.130517e-05
-4.259249e-05
-3.570874e-05
-3.352451e-05
-1.310122e-05
-3.57964e-06
-4.060118e-05
-4.306676e-05
-4.386768e-05
-3.676839e-05
-3.45176e-05
-1.29513e-05
-2.552217e-06
-3.285304e-05
-4.571189e-05
-4.614892e-05
-3.859111e-05
-3.589887e-05
-1.29634e-05
-1.565958e-06
-2.59141e-05
-5.017111e-05
-4.980457e-05
-4.088952e-05
-3.776673e-05
-1.396241e-05
-2.944633e-07
-1.922353e-05
-5.66151e-05
-5.434861e-05
-4.409823e-05
-4.028675e-05
-1.596824e-05
9.456512e-07
-1.42575e-05
-6.440067e-05
-6.002636e-05
-4.797897e-05
-4.217519e-05
-1.539639e-05
1.949725e-06
-1.141173e-05
-7.354917e-05
-6.628329e-05
-5.219284e-05
-4.466411e-05
-1.61738e-05
2.661596e-06
-1.105847e-05
-8.316777e-05
-7.282534e-05
-5.654786e-05
-4.631546e-05
-1.704638e-05
3.088726e-06
-1.257627e-05
-9.195857e-05
-7.853318e-05
-6.032787e-05
-4.727104e-05
-1.79228e-05
3.198554e-06
-2.139238e-05
-9.917272e-05
-8.366267e-05
-6.383021e-05
-4.723663e-05
-1.86198e-05
2.993356e-06
-3.611698e-05
-0.002347979
3.435958e-11
-5.356747e-19
4.73233e-23
3.709654e-30
2.932375e-35
-1.011413e-39
-5.441869e-45
-5.503526e-50
5.008042e-55
5.033331e-60
1.859558e-65
4.371089e-71
7.59559e-77
1.125676e-82
3.739112e-88
1.386e-93
4.818745e-99
-0.004439581
-3.897608e-10
-6.554565e-17
-3.949408e-23
-4.647387e-29
-1.534623e-34
-6.760852e-40
-9.257415e-47
2.335301e-50
2.797608e-55
1.099931e-60
2.40295e-66
3.662371e-72
4.302964e-78
4.367714e-84
1.649987e-89
6.876178e-95
1.804436e-100
-0.004460866
-1.667934e-09
-3.781627e-16
-1.991964e-22
-1.217155e-28
-3.789459e-34
-1.472237e-39
-9.571004e-46
3.183541e-50
3.449568e-55
1.005681e-60
1.726557e-66
2.068285e-72
1.904388e-78
1.461237e-84
6.085294e-90
2.733934e-95
5.699178e-101
-0.004852271
-2.572377e-09
-8.622675e-16
-4.671052e-22
-2.67506e-28
-7.558588e-34
-2.871085e-39
-3.114034e-45
5.311069e-50
4.055527e-55
8.969695e-61
1.262721e-66
1.328161e-72
1.109799e-78
6.336761e-85
1.682557e-90
5.427047e-96
7.428219e-102
-0.005522066
-3.825212e-09
-1.68889e-15
-1.011634e-21
-6.057814e-28
-1.545133e-33
-5.731633e-39
-9.061564e-45
9.25721e-50
4.678035e-55
8.508136e-61
1.076962e-66
1.061957e-72
8.310562e-79
5.235342e-86
2.013452e-90
4.557404e-96
3.083269e-102
-0.006304117
-6.74904e-09
-3.557758e-15
-2.281619e-21
-1.366793e-27
-3.192293e-33
-1.165554e-38
-2.563444e-44
1.73198e-49
5.353666e-55
8.553358e-61
9.852754e-67
8.796975e-73
5.598296e-79
2.325763e-85
2.287393e-90
2.981987e-96
1.508769e-102
-0.007059538
-2.093307e-08
-9.720156e-15
-5.398951e-21
-3.050158e-27
-6.670943e-33
-2.411411e-38
-7.145466e-44
2.782251e-49
5.536464e-55
7.224355e-61
5.597426e-67
1.915597e-73
-1.390477e-79
-3.258143e-85
3.67758e-90
2.08948e-96
1.013068e-102
-0.00798602
-2.557305e-08
-2.005176e-14
-1.254489e-20
-7.443092e-27
-1.438726e-32
-5.121275e-38
-2.05758e-43
3.643141e-49
2.531093e-55
-2.4508e-61
-1.323943e-66
-2.350065e-72
-2.276459e-78
-1.490782e-84
6.233347e-90
1.636902e-96
7.996133e-103
-0.008843432
-2.615154e-08
-3.292832e-14
-3.128607e-20
-2.421501e-26
-3.664939e-32
-1.160081e-37
-4.828791e-43
1.973797e-49
-1.16606e-54
-4.05083e-60
-7.225524e-66
-7.087107e-72
-5.429789e-78
-3.588549e-84
7.606575e-90
1.632447e-97
-4.356146e-103
-0.00989182
-3.527823e-08
-7.27884e-14
-9.78475e-20
-7.7731e-26
-1.093598e-31
-2.851109e-37
-1.25832e-42
-1.349282e-48
-6.868368e-54
-1.36141e-59
-1.818857e-65
-1.852841e-71
-1.420244e-77
-9.807928e-84
-7.689455e-90
-6.567368e-96
-4.03589e-102
-0.01103551
-3.892611e-08
-1.049374e-13
-2.179573e-19
-1.70745e-25
-2.680863e-31
-6.230529e-37
-1.911149e-42
-7.571958e-48
-1.910133e-53
-3.53712e-59
-4.883092e-65
-5.138789e-71
-4.126408e-77
-2.86565e-83
-2.514998e-89
-2.203988e-95
-1.37683e-101
-0.01220299
-4.157592e-08
-1.076807e-13
-2.455078e-19
-2.889225e-25
-5.422324e-31
-1.67373e-36
-2.946015e-42
-1.793979e-47
-5.06369e-53
-9.898054e-59
-1.459676e-64
-1.590589e-70
-1.335603e-76
-9.466959e-83
-8.209787e-89
-8.983239e-95
-5.663614e-101
-0.01351656
-4.121554e-08
-1.347259e-13
-3.729945e-19
-4.8422e-25
-1.239367e-30
-5.68108e-36
-3.223314e-41
-7.570819e-47
-2.242781e-52
-4.398705e-58
-6.816184e-64
-7.942413e-70
-7.071368e-76
-5.59641e-82
-6.486794e-88
-6.101007e-94
-4.079298e-100
-0.01472663
-3.325084e-08
-1.156965e-13
-3.519972e-19
-6.685698e-25
-2.259762e-30
-1.234053e-35
-7.390974e-41
-3.451474e-46
-1.119583e-51
-2.621754e-57
-4.379808e-63
-5.25817e-69
-4.468155e-75
-4.396692e-81
-4.714071e-87
-4.269723e-93
-3.044198e-99
-0.01661058
5.674341e-08
-1.544814e-13
-4.776181e-19
-1.004872e-24
-3.50872e-30
-1.276788e-35
-1.006638e-40
-3.637544e-46
-1.210032e-51
-2.927587e-57
-5.286097e-63
-7.24444e-69
-8.311121e-75
-9.310064e-81
-1.279144e-86
-1.252028e-92
-9.919096e-99
-0.01853757
8.691909e-10
-1.790151e-13
-5.440184e-19
-1.784268e-24
-7.967301e-30
-4.353771e-35
-1.325926e-40
-4.579358e-46
-1.346287e-51
-3.227379e-57
-6.122081e-63
-9.157624e-69
-1.179642e-74
-1.594869e-80
-2.767559e-86
-3.147978e-92
-3.057234e-98
-0.02023603
-1.764497e-07
-1.936699e-14
-8.871967e-19
-2.937998e-24
-1.580938e-29
-1.10826e-34
-4.576522e-40
-1.595641e-45
-4.408791e-51
-9.841099e-57
-1.720585e-62
-2.410008e-68
-3.023115e-74
-3.158894e-80
-6.936186e-86
-9.598116e-92
-1.003602e-97
-0.02191076
-2.280055e-07
-1.472632e-12
-3.179036e-19
-5.40571e-24
-2.510993e-29
-2.211207e-34
-1.993086e-39
-6.359269e-45
-1.804544e-50
-3.791508e-56
-6.329518e-62
-8.549774e-68
-1.057531e-73
1.554191e-79
1.384128e-85
-3.434233e-91
-4.004106e-97
-0.02363744
-2.93176e-07
-2.147357e-12
-1.231835e-17
5.318512e-25
-4.091249e-29
-3.827777e-34
-4.134664e-39
-2.279121e-44
-8.11225e-50
-1.86812e-55
-3.060668e-61
-3.895382e-67
-4.511692e-73
2.604361e-78
-3.125364e-84
-1.939887e-90
-2.501547e-96
-0.02540008
-3.688079e-07
-3.161695e-12
-2.044554e-17
-1.02564e-22
8.34024e-30
-5.165617e-34
-5.753495e-39
-3.539187e-44
-1.71246e-49
-5.440264e-55
-1.100211e-60
-1.561729e-66
-2.022691e-72
-8.439587e-78
-3.253199e-84
-1.186082e-89
-1.51748e-95
-0.02721977
-4.622017e-07
-4.608563e-12
-3.442817e-17
-1.913318e-22
-6.445229e-28
-7.481703e-35
-6.811204e-39
-5.908498e-44
-3.780219e-49
-1.623828e-54
-4.312044e-60
-7.350936e-66
-1.017797e-71
-9.291638e-77
-2.227201e-84
-4.397486e-89
-4.812762e-95
-0.02911576
-5.724522e-07
-6.608767e-12
-5.604848e-17
-3.639906e-22
-1.398105e-27
-7.340687e-33
3.777829e-40
-8.052397e-44
-7.908515e-49
-4.36404e-54
-1.487001e-59
-3.518744e-65
-5.845822e-71
-2.736731e-77
-2.301739e-82
-3.41462e-88
-4.117487e-94
-0.031093
-7.147539e-07
-9.533801e-12
-9.335055e-17
-6.971452e-22
-3.024558e-27
-1.758744e-32
-1.324806e-37
-8.841747e-45
-1.368482e-48
-1.179711e-53
-5.284327e-59
-1.643105e-64
-3.294041e-70
3.621008e-75
-5.921959e-82
-2.351584e-87
-3.104512e-93
-0.033157
-8.865429e-07
-1.369818e-11
-1.550574e-16
-1.315309e-21
-6.425626e-27
-4.187176e-32
-3.379627e-37
-1.779049e-42
-1.69318e-49
-2.165829e-53
-1.228469e-58
-5.551756e-64
-1.724013e-69
9.384772e-74
6.929174e-81
-1.671555e-86
-1.855167e-92
-0.03530117
-1.097309e-06
-1.960803e-11
-2.542081e-16
-2.45637e-21
-1.35365e-26
-9.842757e-32
-8.682772e-37
-4.765768e-42
-2.688881e-47
-1.695592e-54
-3.013721e-58
-2.069515e-63
-1.244397e-68
8.265873e-73
-1.18966e-79
-1.181773e-85
-8.038167e-92
-0.03751691
-1.362331e-06
-2.802812e-11
-4.141725e-16
-4.622071e-21
-2.832631e-26
-2.287201e-31
-2.206195e-36
-1.30074e-41
-7.688702e-47
-4.069197e-52
1.685795e-59
-2.452286e-63
-1.391577e-68
-5.35466e-72
-5.975199e-79
-4.563627e-85
8.855739e-91
-0.03980894
-1.686591e-06
-4.033468e-11
-6.821332e-16
-8.670013e-21
-5.938276e-26
-5.304959e-31
-5.68241e-36
-3.57639e-41
-2.322766e-46
-1.304238e-51
-7.180707e-57
1.860464e-65
3.261058e-67
-8.644918e-74
-7.516343e-79
-1.642629e-84
4.316599e-89
-0.04220308
-2.082944e-06
-5.757394e-11
-1.124739e-15
-1.622984e-20
-1.213063e-25
-1.205242e-30
-1.435665e-35
-9.722673e-41
-7.011725e-46
-4.238643e-51
-2.297718e-56
-1.428719e-61
1.519459e-66
-8.987827e-72
-2.162362e-77
-1.474631e-83
9.873809e-88
-0.04462934
-2.574066e-06
-8.219326e-11
-1.876402e-15
-2.951164e-20
-2.16352e-25
-2.321486e-30
-3.234472e-35
-2.734836e-40
-2.142163e-45
-1.41668e-50
-8.418894e-56
-5.045164e-61
-5.981984e-65
-6.089505e-72
-9.874423e-77
-8.456853e-83
1.507084e-86
-0.04712211
-3.155858e-06
-1.156355e-10
-3.370041e-15
-6.422481e-20
-7.422715e-25
-1.001438e-29
-1.239107e-34
-4.362765e-40
-6.164261e-45
-5.551656e-50
-3.22464e-55
-1.670093e-60
-1.411527e-64
-1.394629e-70
-1.694799e-76
3.407177e-83
1.312226e-85
-0.04973884
-3.787761e-06
-1.507895e-10
-3.938805e-15
-2.969723e-19
-1.149421e-24
-1.324994e-29
-1.906473e-34
9.487028e-40
-2.024624e-44
-2.42667e-49
-1.389491e-54
-8.537031e-60
-1.812409e-64
-7.035348e-70
-2.459095e-75
7.629636e-80
-2.50473e-84
-0.05237702
-4.357822e-06
-1.808872e-10
-4.816519e-15
-7.067989e-20
-1.755485e-24
-3.005012e-29
-3.639832e-34
-1.063477e-38
-3.258556e-44
-2.963665e-49
-2.78001e-54
-2.725953e-59
-1.149137e-64
-4.700522e-69
6.965834e-75
2.214748e-78
-4.684181e-84
-0.05522252
-4.820736e-06
-2.102576e-10
-2.708391e-15
-1.236996e-19
-2.244259e-24
-4.096222e-29
-5.629273e-34
-1.007604e-38
-5.045389e-44
-6.583297e-49
-6.483876e-54
4.135244e-58
1.724404e-62
-2.46025e-69
9.31261e-73
3.436663e-77
-8.911891e-87
-0.05605524
-8.690435e-06