/*--------------------------------*- C++ -*----------------------------------*\
| =========                 |                                                 |
| \\      /  F ield         | OpenFOAM: The Open Source CFD Toolbox           |
|  \\    /   O peration     | Version:  2206                                  |
|   \\  /    A nd           | Website:  www.openfoam.com                      |
|    \\/     M anipulation  |                                                 |
\*---------------------------------------------------------------------------*/
FoamFile
{
    version     2.0;
    format      ascii;
    arch        "LSB;label=32;scalar=64";
    class       volScalarField;
    location    "2.2";
    object      ddt0(omega.b);
}
// * * * * * * * * * * * * * * * * * * * * * * * * * * * * * * * * * * * * * //

dimensions      [0 0 -2 0 0 0 0];

internalField   nonuniform List<scalar> 
13078
(
5.369641e-08
-0.06456064
-0.1270904
-0.1290203
-0.1294168
-0.1297878
-0.130211
-7.553079e-09
-0.07893004
-0.1275474
-0.1290578
-0.1294109
-0.1297818
-0.1302032
2.053166e-08
-0.08643863
-0.1277371
-0.1290619
-0.1294071
-0.1297767
-0.1301963
7.345552e-09
-0.08901396
-0.12781
-0.1290632
-0.129405
-0.1297724
-0.13019
5.482307e-09
-0.08982232
-0.1278438
-0.1290692
-0.1294036
-0.1297685
-0.130184
4.960858e-09
-0.09014493
-0.127862
-0.129074
-0.1294062
-0.1297647
-0.1301779
2.36027e-09
-0.09026913
-0.1278598
-0.1290752
-0.1294082
-0.1297656
-0.1301721
-8.782723e-10
-0.09028065
-0.1278489
-0.1290748
-0.1294091
-0.1297664
-0.130172
-4.350106e-09
-0.09023195
-0.1278492
-0.1290747
-0.1294094
-0.1297666
-0.130172
-7.765836e-09
-0.0901207
-0.1278463
-0.1290741
-0.1294091
-0.1297664
-0.1301717
-1.10272e-08
-0.08995952
-0.1278414
-0.1290731
-0.1294084
-0.1297658
-0.1301711
-1.420444e-08
-0.08975586
-0.127835
-0.129072
-0.1294075
-0.129765
-0.1301703
-1.736666e-08
-0.08951085
-0.1278273
-0.1290707
-0.1294066
-0.1297641
-0.1301693
-2.061047e-08
-0.08922392
-0.1278183
-0.1290693
-0.1294053
-0.129763
-0.1301682
-2.400832e-08
-0.08889412
-0.1278071
-0.1290661
-0.1294017
-0.1297617
-0.1301671
-2.764715e-08
-0.08851922
-0.1277943
-0.1290621
-0.1293986
-0.1297604
-0.130166
-3.163282e-08
-0.08809386
-0.1277812
-0.1290605
-0.1293972
-0.1297592
-0.1301648
-3.61049e-08
-0.0876134
-0.1277663
-0.1290588
-0.1293958
-0.1297581
-0.1301636
-4.123702e-08
-0.08707123
-0.1277497
-0.1290571
-0.1293943
-0.1297565
-0.1301624
-4.726803e-08
-0.08646126
-0.127731
-0.1290551
-0.1293905
-0.1297515
-0.1301609
-5.452217e-08
-0.08577509
-0.1277101
-0.129053
-0.1293855
-0.1297471
-0.1301595
-6.345909e-08
-0.08500297
-0.1276868
-0.1290509
-0.1293836
-0.1297455
-0.1301584
-7.470848e-08
-0.08413438
-0.1276605
-0.1290487
-0.1293819
-0.1297439
-0.1301569
-8.914862e-08
-0.08315909
-0.1276311
-0.1290463
-0.1293798
-0.1297388
-0.1301502
-1.079992e-07
-0.08206578
-0.1275982
-0.1290436
-0.1293775
-0.1297319
-0.1301445
-1.329352e-07
-0.08084308
-0.1275611
-0.1290406
-0.1293753
-0.1297298
-0.1301428
-1.662511e-07
-0.07948702
-0.1275197
-0.1290373
-0.1293728
-0.1297276
-0.1301418
-2.111391e-07
-0.07803102
-0.1274726
-0.1290334
-0.12937
-0.1297247
-0.1301347
-2.717694e-07
-0.07640483
-0.1274221
-0.1290291
-0.1293666
-0.1297211
-0.1301235
-3.553762e-07
-0.07534244
-0.1273555
-0.1290237
-0.1293627
-0.1297177
-0.1301209
-4.692817e-07
-0.07199119
-0.1272996
-0.1290177
-0.1293578
-0.129713
-0.1301154
-6.175857e-07
-0.06931447
-0.1272703
-0.1290093
-0.1293515
-0.1297071
-0.130109
-8.119447e-07
-0.06618108
-0.1271009
-0.1290037
-0.1293434
-0.1297002
-0.1301021
-1.060974e-06
-0.06401987
-0.126971
-0.1289963
-0.1293345
-0.1296931
-0.1300952
-1.373051e-06
-0.06196306
-0.1268983
-0.1289926
-0.1293466
-0.129692
-0.1300945
-1.754971e-06
-0.06021578
-0.126848
-0.128994
-0.129362
-0.1297165
-0.1301143
-2.205859e-06
-0.05898919
-0.1268455
-0.1290395
-0.129388
-0.1297472
-0.1301289
-2.708369e-06
-0.05870687
-0.1268911
-0.1290946
-0.1294268
-0.1297387
-0.1300678
-3.230436e-06
-0.06028925
-0.1269764
-0.1291404
-0.1294242
-0.129693
-0.1299508
-3.744479e-06
-0.0658244
-0.1270931
-0.1291425
-0.1293992
-0.1296274
-0.1298057
-4.208e-06
-0.06520632
-0.1273281
-0.1291214
-0.1293298
-0.1295171
-0.1298057
-4.476842e-06
-0.06872735
-0.1272024
-0.1290294
-0.1292002
-0.1295139
-0.1300363
-4.526706e-06
-0.07473512
-0.1271347
-0.1288724
-0.1291973
-0.1298569
-0.1308764
-4.322186e-06
-0.08124723
-0.1270927
-0.1287824
-0.1296228
-0.1305238
-0.132117
-3.853072e-06
-0.08951405
-0.1270962
-0.1290638
-0.1299921
-0.1314949
-0.1333891
-3.136575e-06
-0.08944799
-0.1274019
-0.1294836
-0.1305523
-0.1323622
-0.1343426
-2.154583e-06
-0.09172892
-0.1276396
-0.1297667
-0.1312261
-0.1331381
-0.1346484
4.152166e-06
-0.09293157
-0.1278028
-0.1302512
-0.1319521
-0.1336048
-0.1349842
0.0002811111
-0.088168
-0.1276617
-0.1307599
-0.1325385
-0.1341581
-0.135317
0.002740592
-0.0748747
-0.1273402
-0.1312953
-0.13303
-0.134384
-0.135582
0.006739589
-0.05558719
-0.1269044
-0.1316143
-0.1330893
-0.1342197
-0.1353857
0.01427233
-0.02531531
-0.1263889
-0.1320602
-0.1333314
-0.1341583
-0.1351025
0.02172541
-0.004292781
-0.1255049
-0.1317296
-0.1331065
-0.1340501
-0.1348791
0.02772914
0.006768282
-0.1249716
-0.1314597
-0.1328584
-0.133802
-0.1344896
0.03139901
0.007966389
-0.1247367
-0.1313115
-0.1326557
-0.1335338
-0.1341248
0.03487022
-0.001441687
-0.1246957
-0.1310469
-0.1323284
-0.1331489
-0.1338237
0.03732614
-0.0204089
-0.1248283
-0.1305988
-0.1319056
-0.1327545
-0.1334205
0.03449633
-0.04313741
-0.1254728
-0.1304972
-0.131801
-0.1326339
-0.1332863
0.03092495
-0.06581916
-0.1261333
-0.1302177
-0.131482
-0.1323041
-0.1328068
0.02704868
-0.08635851
-0.1266707
-0.1296485
-0.130773
-0.131593
-0.1320724
0.02078743
-0.1009853
-0.1271594
-0.1291839
-0.1302653
-0.1311111
-0.1316752
0.0132076
-0.1102686
-0.1277948
-0.1290512
-0.1299641
-0.1307554
-0.1313279
0.006332785
-0.10735
-0.1279465
-0.1286518
-0.1293792
-0.1302225
-0.130875
0.002493537
-0.1048838
-0.1278373
-0.1285067
-0.1288888
-0.1298234
-0.1308282
0.0002073667
-0.1006979
-0.1276282
-0.1285886
-0.1287878
-0.1297815
-0.1307646
-2.214936e-06
-0.09577241
-0.1273807
-0.1286635
-0.1289034
-0.1293548
-0.1303536
-4.801784e-06
-0.09208893
-0.1273648
-0.1285696
-0.1289437
-0.1290739
-0.1302465
-6.84379e-06
-0.09077483
-0.1271381
-0.1284533
-0.128796
-0.1293486
-0.1297509
-8.208328e-06
-0.08083876
-0.1270842
-0.1285202
-0.1287975
-0.1291571
-0.1294055
-8.896019e-06
-0.07306931
-0.1270704
-0.1286833
-0.1288551
-0.12906
-0.1294814
-9.003046e-06
-0.06633442
-0.1270842
-0.1288786
-0.1290191
-0.1291793
-0.1293488
-8.651206e-06
-0.06215429
-0.1271318
-0.1290081
-0.1292017
-0.1293676
-0.1295907
-7.909471e-06
-0.0616994
-0.1269231
-0.1290693
-0.1293273
-0.1295648
-0.129702
-7.005614e-06
-0.05760425
-0.1268073
-0.1290571
-0.1293715
-0.1296627
-0.1299435
-6.045415e-06
-0.05658449
-0.1267552
-0.1290163
-0.1293582
-0.1296937
-0.1300489
-5.092431e-06
-0.05762189
-0.1267684
-0.1289766
-0.1293321
-0.129695
-0.1300847
-4.206402e-06
-0.05917406
-0.1267783
-0.1289598
-0.129326
-0.1296707
-0.1300732
-3.414622e-06
-0.06160399
-0.1268407
-0.1289776
-0.1293257
-0.1296739
-0.1300765
-2.742738e-06
-0.06328355
-0.1269184
-0.1289895
-0.1293284
-0.1296853
-0.1300867
-2.184751e-06
-0.06547006
-0.1270492
-0.1289992
-0.1293397
-0.1296956
-0.1300971
-1.727658e-06
-0.06861846
-0.127223
-0.1290066
-0.1293489
-0.1297038
-0.1301052
-1.360139e-06
-0.07132978
-0.1272534
-0.1290152
-0.1293558
-0.1297105
-0.1301125
-1.060905e-06
-0.07476411
-0.1273131
-0.1290216
-0.1293611
-0.1297158
-0.1301186
-8.299736e-07
-0.07583871
-0.1273816
-0.1290274
-0.1293656
-0.1297199
-0.1301223
-6.524768e-07
-0.07750993
-0.1274355
-0.1290321
-0.1293693
-0.1297238
-0.1301335
-5.140486e-07
-0.07901079
-0.1274859
-0.1290362
-0.1293724
-0.1297272
-0.1301413
-4.06417e-07
-0.08041294
-0.1275308
-0.1290398
-0.1293751
-0.1297296
-0.1301428
-3.224353e-07
-0.08168024
-0.1275711
-0.129043
-0.1293775
-0.1297321
-0.1301449
-2.56695e-07
-0.08281573
-0.1276071
-0.1290458
-0.1293799
-0.1297389
-0.1301505
-2.05078e-07
-0.08383021
-0.1276393
-0.1290483
-0.1293822
-0.1297443
-0.1301576
-1.645294e-07
-0.08473468
-0.127668
-0.1290507
-0.1293839
-0.129746
-0.1301591
-1.325173e-07
-0.08553926
-0.1276936
-0.1290528
-0.1293859
-0.1297477
-0.1301603
-1.069067e-07
-0.08625462
-0.1277165
-0.129055
-0.1293907
-0.1297519
-0.1301617
-8.622485e-08
-0.08689077
-0.127737
-0.129057
-0.1293947
-0.1297571
-0.1301632
-6.938181e-08
-0.08745646
-0.1277552
-0.1290587
-0.1293961
-0.1297585
-0.1301643
-5.556481e-08
-0.0879583
-0.1277715
-0.1290603
-0.1293974
-0.1297597
-0.1301655
-4.411072e-08
-0.08840337
-0.1277859
-0.129062
-0.1293988
-0.1297608
-0.1301666
-3.458342e-08
-0.08879681
-0.1277999
-0.1290659
-0.1294018
-0.1297621
-0.1301678
-2.66308e-08
-0.08914469
-0.1278122
-0.1290691
-0.1294055
-0.1297634
-0.1301689
-1.985116e-08
-0.08944996
-0.1278223
-0.1290705
-0.1294067
-0.1297645
-0.13017
-1.402003e-08
-0.08971469
-0.1278311
-0.1290717
-0.1294077
-0.1297654
-0.1301709
-8.944829e-09
-0.08994219
-0.1278387
-0.1290729
-0.1294086
-0.1297663
-0.1301718
-4.339212e-09
-0.09012977
-0.127845
-0.129074
-0.1294094
-0.1297671
-0.1301726
-2.306785e-10
-0.0902768
-0.1278497
-0.129075
-0.1294101
-0.1297676
-0.1301732
2.920149e-09
-0.09037664
-0.127852
-0.1290757
-0.1294103
-0.1297679
-0.1301735
5.343314e-09
-0.09043737
-0.1278665
-0.129077
-0.1294102
-0.1297676
-0.130174
5.793181e-09
-0.09042317
-0.1278744
-0.1290776
-0.1294094
-0.1297674
-0.1301803
4.123055e-09
-0.09029173
-0.1278654
-0.1290751
-0.129408
-0.1297719
-0.1301866
2.356502e-09
-0.08999079
-0.1278478
-0.1290713
-0.1294103
-0.1297762
-0.1301928
2.849099e-09
-0.08922058
-0.1278184
-0.1290703
-0.1294122
-0.1297803
-0.1301988
1.493537e-08
-0.08708634
-0.1277924
-0.1290698
-0.1294147
-0.1297846
-0.1302051
-9.489892e-09
-0.08227499
-0.1276665
-0.1290723
-0.1294193
-0.1297897
-0.1302119
-0.1307064
-0.1313293
-0.1321623
-0.1329564
-0.1343691
-0.136585
-0.1470798
-0.1306966
-0.1313162
-0.1321448
-0.132935
-0.1343432
-0.1365313
-0.1383827
-0.1306876
-0.1313039
-0.1321286
-0.1332115
-0.1343182
-0.1364954
-0.1383085
-0.1306791
-0.1312919
-0.1321116
-0.1328928
-0.1342922
-0.1364602
-0.1381611
-0.130671
-0.1312802
-0.1320955
-0.1328734
-0.1342674
-0.1364252
-0.1383609
-0.130663
-0.1312686
-0.1320794
-0.1328534
-0.1342426
-0.1363905
-0.1387787
-0.130655
-0.1312569
-0.1320633
-0.1328338
-0.134236
-0.1363563
-0.1391833
-0.1306472
-0.1312452
-0.1320473
-0.1328147
-0.1342301
-0.1363228
-0.1396997
-0.1306463
-0.1312341
-0.132032
-0.132795
-0.1342109
-0.1362932
-0.1400564
-0.1306456
-0.131232
-0.1320176
-0.1327754
-0.1341918
-0.1362639
-0.14048
-0.1306448
-0.1312307
-0.1320145
-0.1327562
-0.1341727
-0.1362352
-0.1409177
-0.1306438
-0.1312291
-0.1320123
-0.1327528
-0.1341537
-0.136207
-0.1412726
-0.1306427
-0.1312275
-0.1320101
-0.13275
-0.1341516
-0.1361787
-0.1415504
-0.1306414
-0.1312258
-0.1320078
-0.1327471
-0.1341494
-0.1361752
-0.1418986
-0.1306401
-0.131224
-0.1320054
-0.1327442
-0.1341471
-0.1361727
-0.1412662
-0.1306388
-0.1312222
-0.1320031
-0.1327413
-0.134145
-0.1361703
-0.1415592
-0.1306375
-0.1312204
-0.1320008
-0.1327384
-0.1341412
-0.1361678
-0.1415505
-0.1306362
-0.1312187
-0.1319985
-0.1327335
-0.134083
-0.1361656
-0.1415273
-0.1306349
-0.1312172
-0.1319964
-0.132731
-0.1340793
-0.136164
-0.1415153
-0.1306337
-0.1312158
-0.1319944
-0.1327285
-0.1340767
-0.1361629
-0.1414798
-0.1306326
-0.1312145
-0.1319925
-0.1327261
-0.1340745
-0.1361625
-0.141428
-0.1306314
-0.1312133
-0.1319907
-0.132724
-0.1340728
-0.1361625
-0.1414238
-0.1306304
-0.1312123
-0.1319891
-0.132725
-0.1340702
-0.1361631
-0.1414146
-0.130629
-0.1312115
-0.1319888
-0.1330021
-0.1340218
-0.1361593
-0.1414077
-0.1306277
-0.1312107
-0.1319866
-0.1327201
-0.1339978
-0.1361604
-0.1414087
-0.130627
-0.1312106
-0.131988
-0.1327191
-0.1339973
-0.1361645
-0.141401
-0.1306257
-0.1312105
-0.1319869
-0.1327197
-0.1339972
-0.1361677
-0.1414004
-0.1306172
-0.1312097
-0.1319935
-0.1327208
-0.1339944
-0.1360695
-0.1413893
-0.1306102
-0.1310532
-0.1317758
-0.1327217
-0.1339951
-0.1360489
-0.1413886
-0.1306147
-0.1310597
-0.1317785
-0.132725
-0.1340002
-0.1360574
-0.1413946
-0.1305921
-0.1310613
-0.1317813
-0.1327297
-0.1340085
-0.1360121
-0.1413876
-0.1305781
-0.1310197
-0.1317842
-0.1327357
-0.1340186
-0.1359461
-0.141389
-0.13057
-0.1310477
-0.131781
-0.1327417
-0.1340317
-0.1359742
-0.1415006
-0.130561
-0.1310418
-0.1317535
-0.1327458
-0.1340463
-0.136006
-0.1410782
-0.1305561
-0.1310543
-0.1317205
-0.1327529
-0.1340861
-0.1361483
-0.141886
-0.1305617
-0.1310618
-0.1316886
-0.1327895
-0.1341907
-0.1363804
-0.1412176
-0.1305453
-0.1310273
-0.1316738
-0.1327046
-0.1342311
-0.1364885
-0.1416198
-0.130458
-0.1308987
-0.1315597
-0.1326756
-0.1341744
-0.1363438
-0.1422028
-0.1303239
-0.1306739
-0.1314567
-0.1323344
-0.1337556
-0.1367044
-0.1406226
-0.1300109
-0.130151
-0.1308493
-0.1329847
-0.1355992
-0.1384707
-0.1416339
-0.1301052
-0.1304852
-0.1328041
-0.1351704
-0.137149
-0.1396619
-0.1434339
-0.1310935
-0.1322975
-0.1347329
-0.1366958
-0.1384079
-0.1401131
-0.1435673
-0.1327347
-0.1340577
-0.136003
-0.1376896
-0.1393697
-0.1409949
-0.1441976
-0.134192
-0.1352684
-0.1372067
-0.1388191
-0.1405314
-0.1419956
-0.1452694
-0.1352414
-0.1366069
-0.138071
-0.1399352
-0.1412743
-0.1428286
-0.1454717
-0.1357314
-0.1371562
-0.1391649
-0.1404777
-0.1419386
-0.1433293
-0.1461368
-0.1362148
-0.1378904
-0.1396865
-0.1410801
-0.1421903
-0.1433904
-0.1454149
-0.1363381
-0.1378876
-0.139923
-0.1411474
-0.1422601
-0.1432608
-0.1441791
-0.1364583
-0.1379863
-0.1398418
-0.1412561
-0.1420089
-0.1430326
-0.1440381
-0.1366928
-0.1382309
-0.1401632
-0.1418132
-0.1422581
-0.1432026
-0.1436269
-0.1370291
-0.1383223
-0.1400424
-0.1402568
-0.1406489
-0.1410454
-0.1423072
-0.1363934
-0.1374988
-0.1384198
-0.1388646
-0.1393057
-0.139759
-0.1408444
-0.1358339
-0.1369679
-0.13797
-0.1384683
-0.1385178
-0.1387736
-0.1399759
-0.1355689
-0.136884
-0.137717
-0.137948
-0.1380317
-0.1384325
-0.137526
-0.135212
-0.1365261
-0.1373182
-0.1374949
-0.1373344
-0.1376898
-0.1373598
-0.1349559
-0.1363244
-0.1368617
-0.1367785
-0.1363257
-0.1360416
-0.1344064
-0.1357185
-0.1361347
-0.1361479
-0.1358324
-0.1353779
-0.1342065
-0.1355538
-0.1360987
-0.1360052
-0.1356428
-0.1351366
-0.1335865
-0.1347413
-0.1350835
-0.1354791
-0.1354755
-0.1354567
-0.1351669
-0.1329615
-0.1338833
-0.134586
-0.1350003
-0.1352369
-0.1354521
-0.137309
-0.1325395
-0.1333989
-0.1343469
-0.1348795
-0.1353181
-0.1355369
-0.1364143
-0.1322028
-0.1331274
-0.1341126
-0.1351167
-0.1361052
-0.1361064
-0.1371977
-0.131786
-0.1326404
-0.1346085
-0.1351278
-0.135685
-0.1371002
-0.1381395
-0.1318362
-0.1327879
-0.1338094
-0.1349041
-0.1354143
-0.1365455
-0.1375494
-0.1316917
-0.1324666
-0.1338764
-0.1342551
-0.1355141
-0.1358291
-0.1388224
-0.1316216
-0.1325822
-0.1331146
-0.1344685
-0.1347136
-0.1363506
-0.1382675
-0.131409
-0.1322859
-0.1333343
-0.1335174
-0.1350313
-0.1352613
-0.137495
-0.1309342
-0.1322892
-0.1326394
-0.1336687
-0.1340947
-0.1357152
-0.1383891
-0.130304
-0.1316236
-0.1324766
-0.133158
-0.1343483
-0.135067
-0.1394628
-0.1296561
-0.1309321
-0.1322403
-0.1328291
-0.1344108
-0.1348875
-0.138898
-0.1298432
-0.1300441
-0.1314291
-0.1330168
-0.1338739
-0.1350472
-0.1387882
-0.129573
-0.13002
-0.130801
-0.1325846
-0.1337453
-0.1357394
-0.1379907
-0.1300185
-0.1301715
-0.1311979
-0.1319601
-0.1336076
-0.1363082
-0.1401489
-0.1303631
-0.1303716
-0.1313451
-0.1323487
-0.1339714
-0.136945
-0.1414003
-0.1304904
-0.1306449
-0.1315192
-0.1326549
-0.1342269
-0.1366787
-0.1411268
-0.1305299
-0.1308274
-0.1316333
-0.1325006
-0.13418
-0.136424
-0.1417505
-0.1305326
-0.130915
-0.1316524
-0.1326952
-0.1341148
-0.1362957
-0.1411695
-0.1305413
-0.1309564
-0.13168
-0.1327368
-0.1340515
-0.1360699
-0.1418658
-0.1305537
-0.1309739
-0.1317313
-0.1327365
-0.1340336
-0.1359831
-0.141056
-0.130565
-0.1309999
-0.1317663
-0.1327333
-0.1340244
-0.1359736
-0.1411084
-0.1305742
-0.1310171
-0.1317739
-0.1327299
-0.1340154
-0.1359477
-0.1414747
-0.1305882
-0.1310276
-0.1317774
-0.1327269
-0.1340079
-0.1359491
-0.1414913
-0.1306114
-0.1310554
-0.1317765
-0.1327243
-0.1340023
-0.1360819
-0.1415545
-0.1306087
-0.1310765
-0.1317762
-0.1327212
-0.1339982
-0.1360597
-0.1415478
-0.1306164
-0.1312094
-0.1319929
-0.1327178
-0.1339962
-0.1360539
-0.1415197
-0.1306258
-0.1312109
-0.1319882
-0.1327214
-0.1340004
-0.1361407
-0.1414995
-0.1306274
-0.1312115
-0.1319887
-0.1327207
-0.1340013
-0.136177
-0.1414699
-0.1306284
-0.1312121
-0.1319895
-0.1327206
-0.1340026
-0.1361726
-0.141434
-0.1306298
-0.1312129
-0.1319906
-0.1327213
-0.1340056
-0.1361695
-0.1413825
-0.1306314
-0.1312139
-0.1319919
-0.1327225
-0.1340591
-0.1361723
-0.1413546
-0.1306325
-0.131215
-0.1319934
-0.1327241
-0.1340772
-0.136173
-0.1413024
-0.1306337
-0.1312162
-0.1319951
-0.132726
-0.1340787
-0.1361724
-0.1412722
-0.1306348
-0.1312175
-0.1319969
-0.1327282
-0.1340806
-0.1361724
-0.1412303
-0.1306361
-0.1312189
-0.1319989
-0.1327305
-0.1340828
-0.1361729
-0.1412098
-0.1306373
-0.1312203
-0.1320009
-0.132733
-0.1340852
-0.1361738
-0.1412416
-0.1306386
-0.131222
-0.132003
-0.132737
-0.1341128
-0.1361753
-0.1412531
-0.1306398
-0.1312237
-0.1320052
-0.1327405
-0.1341482
-0.1361772
-0.141243
-0.1306411
-0.1312254
-0.1320074
-0.1327434
-0.13415
-0.1361793
-0.1411225
-0.1306423
-0.1312271
-0.1320097
-0.1327462
-0.1341519
-0.1361814
-0.1414424
-0.1306436
-0.1312288
-0.1320119
-0.1327489
-0.1341539
-0.1361842
-0.1415418
-0.1306447
-0.1312304
-0.1320141
-0.1327517
-0.134156
-0.1361996
-0.1413434
-0.1306458
-0.131232
-0.1320162
-0.1327544
-0.1341664
-0.1362271
-0.1411131
-0.1306468
-0.1312334
-0.1320193
-0.1327657
-0.134185
-0.1362551
-0.1408257
-0.1306476
-0.1312355
-0.1320337
-0.1327852
-0.1342039
-0.1362835
-0.1404303
-0.1306488
-0.1312467
-0.132049
-0.1328049
-0.1342229
-0.1363125
-0.1400703
-0.1306567
-0.1312586
-0.132065
-0.1328246
-0.1342412
-0.1363434
-0.1397413
-0.130665
-0.1312704
-0.1320811
-0.1328433
-0.1342329
-0.1363768
-0.1393574
-0.1306732
-0.131282
-0.1320971
-0.1328633
-0.1342567
-0.1364106
-0.1390175
-0.1306812
-0.1312936
-0.1321132
-0.1328834
-0.1342813
-0.1364449
-0.1388176
-0.1306894
-0.1313053
-0.1321294
-0.1329038
-0.134306
-0.1364793
-0.1388291
-0.1306979
-0.1313172
-0.1321458
-0.1329243
-0.134331
-0.1365141
-0.1390764
-0.1307068
-0.1313295
-0.1321623
-0.1329452
-0.1343562
-0.1365533
-0.1436203
-0.470002
-1.4257
-1.091297
-1.080357
-1.080199
-1.0802
-1.0802
-1.0802
-1.0802
-1.0802
-1.0802
-1.0802
-1.0802
-1.0802
-1.0802
-1.0802
-1.0802
-1.0802
-1.302945
-0.9991367
-1.077038
-1.080167
-1.08022
-1.080221
-1.080221
-1.080221
-1.080221
-1.080221
-1.080221
-1.080221
-1.080221
-1.080221
-1.080221
-1.080221
-1.080221
-1.080221
-1.24547
-1.047475
-1.079722
-1.080218
-1.080221
-1.080222
-1.080222
-1.080222
-1.080222
-1.080222
-1.080222
-1.080222
-1.080222
-1.080222
-1.080222
-1.080223
-1.080223
-1.080223
-1.273691
-1.072678
-1.08019
-1.080221
-1.080221
-1.080221
-1.080221
-1.080221
-1.080221
-1.080221
-1.080221
-1.080221
-1.080221
-1.080221
-1.080221
-1.080221
-1.080221
-1.080221
-1.287682
-1.072361
-1.080207
-1.080221
-1.080221
-1.080221
-1.080221
-1.080221
-1.080221
-1.080221
-1.080221
-1.080221
-1.080221
-1.080221
-1.080221
-1.080221
-1.080221
-1.080221
-1.290079
-1.071319
-1.080204
-1.08022
-1.080221
-1.080221
-1.080221
-1.080221
-1.080221
-1.080221
-1.080221
-1.080221
-1.080221
-1.080221
-1.080221
-1.080221
-1.080221
-1.080221
-1.290842
-1.071935
-1.080203
-1.08022
-1.08022
-1.080221
-1.080221
-1.080221
-1.080221
-1.080221
-1.080221
-1.080221
-1.080221
-1.080221
-1.080221
-1.080221
-1.080221
-1.080221
-1.285785
-1.074734
-1.080207
-1.080221
-1.080219
-1.080221
-1.080221
-1.080221
-1.080221
-1.080221
-1.080221
-1.080221
-1.080221
-1.080221
-1.080221
-1.080221
-1.080221
-1.080221
-1.281047
-1.075119
-1.080208
-1.080221
-1.080218
-1.080221
-1.080221
-1.080221
-1.080221
-1.080221
-1.080221
-1.080221
-1.080221
-1.080221
-1.080221
-1.080221
-1.080221
-1.080221
-1.276628
-1.07316
-1.080205
-1.08022
-1.080218
-1.080221
-1.080221
-1.080221
-1.080221
-1.080221
-1.080221
-1.080221
-1.080221
-1.080221
-1.080221
-1.080221
-1.080221
-1.080221
-1.273067
-1.073469
-1.080206
-1.08022
-1.080218
-1.080221
-1.080221
-1.080221
-1.080221
-1.080221
-1.080221
-1.080221
-1.080221
-1.080221
-1.08022
-1.080221
-1.080221
-1.080221
-1.263266
-1.073154
-1.080205
-1.08022
-1.080219
-1.08022
-1.080221
-1.080221
-1.080221
-1.080221
-1.080221
-1.080221
-1.080221
-1.080221
-1.08022
-1.08022
-1.080221
-1.080221
-1.253595
-1.073577
-1.080172
-1.080219
-1.08022
-1.08022
-1.080221
-1.080221
-1.080221
-1.080221
-1.080221
-1.080221
-1.080221
-1.080221
-1.08022
-1.08022
-1.080221
-1.080221
-1.258961
-1.064874
-1.079719
-1.080211
-1.08022
-1.08022
-1.080221
-1.080221
-1.080221
-1.080221
-1.080221
-1.080221
-1.080221
-1.080221
-1.08022
-1.08022
-1.080221
-1.080221
-1.144785
-1.054144
-1.077864
-1.080074
-1.080218
-1.08022
-1.080221
-1.080221
-1.080221
-1.080221
-1.080221
-1.080221
-1.080221
-1.080221
-1.08022
-1.08022
-1.080221
-1.080221
-1.140382
-1.116863
-1.082608
-1.079435
-1.080182
-1.08022
-1.080221
-1.080221
-1.080221
-1.080221
-1.080221
-1.080221
-1.080221
-1.080221
-1.08022
-1.08022
-1.080221
-1.080221
-1.125432
-1.042908
-1.079662
-1.080937
-1.080004
-1.080216
-1.08022
-1.080221
-1.080221
-1.080221
-1.080221
-1.080221
-1.080221
-1.080221
-1.080219
-1.08022
-1.080221
-1.080221
-1.101416
-1.062008
-1.08051
-1.080122
-1.080413
-1.080191
-1.08022
-1.080221
-1.080221
-1.080221
-1.080221
-1.080221
-1.080221
-1.080221
-1.080219
-1.08022
-1.080221
-1.080221
-1.079268
-1.056475
-1.080656
-1.080321
-1.080213
-1.080227
-1.080217
-1.08022
-1.08022
-1.080221
-1.080221
-1.080221
-1.080221
-1.080221
-1.08022
-1.08022
-1.080221
-1.080221
-1.057233
-1.052726
-1.080262
-1.08036
-1.08024
-1.08024
-1.080216
-1.08022
-1.08022
-1.080221
-1.080221
-1.080221
-1.080221
-1.080221
-1.080221
-1.080221
-1.080221
-1.080221
-1.034524
-1.046249
-1.080211
-1.080236
-1.080253
-1.080217
-1.080224
-1.080219
-1.08022
-1.080221
-1.080221
-1.080221
-1.080221
-1.080221
-1.080221
-1.08022
-1.080221
-1.080221
-1.01592
-1.043443
-1.080214
-1.080221
-1.080216
-1.080226
-1.08022
-1.080223
-1.08022
-1.080221
-1.080221
-1.080221
-1.080221
-1.080221
-1.08022
-1.080221
-1.080221
-1.080221
-0.9987979
-1.035067
-1.080211
-1.080219
-1.080206
-1.080221
-1.08022
-1.080221
-1.080218
-1.080221
-1.080221
-1.080221
-1.080221
-1.080221
-1.08022
-1.080221
-1.080221
-1.080221
-0.9822365
-1.029426
-1.080212
-1.080216
-1.080195
-1.080221
-1.08022
-1.08022
-1.08022
-1.080221
-1.080221
-1.080221
-1.080221
-1.080219
-1.080217
-1.080221
-1.080221
-1.080221
-0.9668663
-1.024747
-1.080214
-1.080212
-1.080179
-1.080221
-1.08022
-1.08022
-1.080218
-1.080221
-1.080221
-1.080221
-1.080221
-1.080208
-1.080195
-1.080221
-1.080221
-1.080221
-0.9525684
-1.017816
-1.080212
-1.080201
-1.080152
-1.08022
-1.080219
-1.08022
-1.080215
-1.080221
-1.080221
-1.080221
-1.080221
-1.080199
-1.080157
-1.080221
-1.080221
-1.080221
-0.9372213
-1.011651
-1.08021
-1.080164
-1.080079
-1.080219
-1.080216
-1.080218
-1.080211
-1.08022
-1.080221
-1.080221
-1.080221
-1.0802
-1.080188
-1.080221
-1.080221
-1.08022
-0.9237178
-1.006034
-1.080201
-1.0797
-1.07957
-1.080217
-1.080209
-1.080209
-1.080203
-1.08022
-1.080221
-1.080221
-1.08022
-1.080214
-1.080225
-1.080221
-1.080221
-1.080217
-0.9108561
-1.000679
-1.080119
-1.073145
-1.073178
-1.080216
-1.080191
-1.080049
-1.080149
-1.080221
-1.080221
-1.080221
-1.080218
-1.080221
-1.080223
-1.080221
-1.080221
-1.080199
-0.8987041
-0.9926133
-1.079757
-1.029887
-1.029385
-1.080294
-1.080144
-1.078304
-1.079608
-1.080238
-1.080221
-1.080221
-1.08022
-1.080219
-1.080219
-1.080221
-1.08022
-1.080183
-0.8870127
-0.9790729
-1.079575
-1.074239
-1.110478
-1.080276
-1.08007
-1.07594
-1.077114
-1.080274
-1.08022
-1.08022
-1.080209
-1.080207
-1.080222
-1.080221
-1.080216
-1.080211
-0.8752621
-0.9416772
-1.070352
-1.061278
-1.033951
-1.078067
-1.07998
-1.083783
-1.084008
-1.080173
-1.08022
-1.08022
-1.080151
-1.080133
-1.080221
-1.08022
-1.080188
-1.080188
-0.8569319
-0.8761901
-1.050022
-0.9810017
-0.9908374
-1.057743
-1.079726
-1.07921
-1.079106
-1.07999
-1.080218
-1.08022
-1.080202
-1.080266
-1.080221
-1.080217
-1.080108
-1.080104
-0.907048
-1.052776
-1.065252
-1.063193
-1.10486
-0.9946936
-1.078903
-1.079012
-1.078748
-1.078956
-1.080205
-1.080215
-1.080125
-1.080192
-1.08022
-1.080197
-1.080153
-1.080259
-0.7879669
-0.7823937
-1.083872
-1.175963
-1.091956
-1.216281
-1.07712
-1.079278
-1.074898
-1.081299
-1.080134
-1.080161
-1.080146
-1.080242
-1.080219
-1.080125
-1.080038
-1.080194
-0.7836803
-0.77607
-0.9923001
-0.9529645
-1.055059
-1.041652
-1.076644
-1.079644
-1.084711
-1.077755
-1.078914
-1.079419
-1.079708
-1.080075
-1.080197
-1.079941
-1.07956
-1.080226
-0.7845932
-0.7727795
-0.7491577
-0.8980468
-1.052506
-1.050064
-1.05419
-1.059142
-1.06272
-1.066773
-1.070634
-1.073838
-1.076779
-1.078873
-1.079689
-1.080021
-1.080056
-1.080223
-0.573822
-0.3756313
-1.179629
-1.16925
-1.075243
-1.051537
-1.058711
-1.059221
-1.060372
-1.056664
-1.059296
-1.062299
-1.066686
-1.071799
-1.075447
-1.078579
-1.079896
-1.080208
-0.5115859
-1.252035
-0.690761
-0.9604915
-1.085533
-1.060888
-1.067906
-1.055018
-1.067798
-1.065508
-1.067745
-1.075651
-1.066288
-1.067492
-1.070801
-1.073638
-1.077188
-1.079617
-0.7727139
-2.290094
-0.9879807
-1.253132
-1.065989
-1.063438
-1.07643
-1.073425
-1.07185
-1.074112
-1.074928
-1.072207
-1.075346
-1.074316
-1.076729
-1.073015
-1.072584
-1.075527
-0.4261195
0.2020263
-1.25273
-1.065841
-1.077237
-1.059621
-1.084628
-1.082954
-1.078811
-1.083789
-1.080767
-1.071873
-1.083038
-1.085665
-1.069921
-1.082399
-1.081445
-1.076948
-0.007573858
-0.7477578
-1.02542
-1.091533
-1.077832
-1.116867
-1.094825
-1.090033
-1.087072
-1.091584
-1.08952
-1.088673
-1.086524
-1.083677
-1.089081
-1.08767
-1.085214
-1.083547
-0.08289567
-1.052105
-1.264546
-1.084487
-1.063628
-1.09375
-1.10251
-1.098748
-1.09218
-1.095456
-1.101651
-1.095373
-1.089482
-1.064744
-1.09465
-1.09095
-1.0875
-1.082707
-0.0392036
-1.202721
-1.077292
-0.9835481
-1.126248
-1.104029
-1.115448
-1.106016
-1.097031
-1.084465
-1.079755
-1.088282
-1.103673
-1.115393
-1.097496
-1.093431
-1.081258
-1.095136
-0.05841285
-0.9527101
-1.138836
-1.042492
-1.022894
-1.108543
-1.112672
-1.109065
-1.099088
-1.08955
-1.064387
-1.087866
-1.059047
-1.099541
-1.101147
-1.077721
-1.103453
-1.08848
-0.09986672
-1.046325
-0.8895944
-1.127875
-1.149219
-1.118925
-1.112176
-1.109132
-1.103988
-1.12001
-1.109035
-1.108022
-1.133294
-1.099152
-1.076709
-1.114308
-1.080596
-1.097444
-0.166643
-0.9352236
-1.267181
-1.28083
-1.053578
-1.031397
-1.118524
-1.10756
-1.102103
-1.038903
-1.125245
-1.031294
-1.090532
-1.07661
-1.112313
-1.087056
-1.110522
-1.088221
-0.2106753
0.1190785
-1.190296
-0.7863248
-0.9441784
-1.184701
-1.109561
-1.061953
-1.034678
-1.072947
-1.046171
-1.128627
-1.043194
-1.094014
-1.097804
-1.102209
-1.101783
-1.100333
-0.1044104
-0.7459579
-2.086091
-1.19458
-1.23636
-1.145962
-1.080856
-0.9104669
-0.8421319
-0.8952237
-0.9188889
-1.037552
-1.083856
-1.141312
-1.057923
-1.115332
-1.056177
-1.09259
-0.1541918
-0.4812705
-1.029359
-1.551682
-1.134323
-1.200633
-1.089342
-0.8993569
-1.222752
-0.958746
-1.084723
-1.10412
-1.12658
-1.080429
-0.1430271
-1.383283
-1.001951
-1.110163
-1.021209
-1.1383
-1.111078
-1.037269
-1.06677
-1.10297
-0.1440834
-1.048656
-0.9031445
-1.161768
-0.8934671
-1.095264
-1.104929
-1.086283
-0.9110735
-0.8926227
-1.247968
-1.082895
-1.083548
-1.067432
-1.08452
-1.013211
-1.102238
-1.08092
-1.086708
-1.270992
-1.146135
-1.087028
-1.081994
-1.067241
-1.018666
-0.9840234
-1.064133
-1.075741
-1.077069
-0.599829
-0.8771298
-1.064197
-1.065401
-1.070278
-1.460294
-1.108884
-1.028124
-1.054393
-1.053498
-0.7929301
-1.006427
-1.002719
-1.070246
-1.048196
-0.6661017
-1.179453
-1.121246
-1.055586
-1.069812
-1.077191
-0.1345771
-1.109312
-0.8949811
-1.014915
-1.034529
-1.021239
-1.037218
-0.1381901
-0.6357975
-1.125863
-0.9999794
-1.019594
-0.9978099
-1.050246
-1.049307
-1.036592
-0.1522473
-0.9393255
-0.7592423
-1.221815
-1.328789
-0.8519451
-1.063033
-1.065581
-1.010837
-1.047883
-1.030125
-1.052137
-0.1430931
-0.9674048
-0.9966493
-1.0404
-0.8269669
-0.9462186
-1.055568
-1.169535
-1.186079
-1.070219
-1.026509
-1.06888
-0.9962887
-1.042665
-1.082518
-1.038815
-1.048368
-1.02282
-0.2061462
-0.2927228
-0.9114109
-1.024858
-0.9340533
-1.085473
-1.022603
-1.043961
-1.05667
-1.107743
-1.052763
-1.03033
-1.099249
-1.031116
-1.011466
-1.046837
-1.015861
-1.044957
-0.1795121
-1.927194
-0.8605219
-0.8089469
-0.9433742
-1.104593
-1.041746
-1.070781
-1.073512
-1.073729
-1.004549
-1.043899
-0.9859138
-1.041275
-1.046466
-1.01192
-1.050177
-1.011434
-0.1210985
-2.894454
-1.380696
-0.9885773
-1.023483
-1.034908
-1.055068
-1.055841
-1.055195
-1.051591
-0.9836498
-1.026134
-1.031067
-1.061464
-1.021042
-1.042797
-1.009789
-1.051767
-0.3172091
-1.770078
-0.9308115
-1.268236
-1.096961
-1.049602
-1.044166
-1.052137
-1.048398
-1.033398
-1.039671
-1.028858
-1.059953
-1.005189
-1.045637
-1.013226
-1.027054
-1.011234
-0.2125862
-1.220503
-1.005126
-0.9593719
-0.8958164
-1.022182
-1.045292
-1.047367
-1.047571
-1.025848
-1.06685
-1.014102
-1.013592
-1.019178
-1.014494
-1.016226
-1.030056
-1.026639
-0.2585595
-1.604912
-0.9463187
-0.9954783
-1.114432
-1.002482
-1.031451
-1.042534
-1.040273
-1.027126
-1.030614
-1.015089
-1.016404
-1.02947
-1.011809
-1.03575
-1.011757
-1.030926
-0.2893249
-2.140388
-1.000071
-0.9277169
-1.022262
-1.072742
-1.023738
-1.038375
-1.035253
-1.029102
-1.047566
-1.016089
-1.017353
-1.025533
-1.020131
-1.017425
-1.024076
-1.024735
-0.6277779
-1.252393
-1.110413
-1.083187
-1.043032
-1.050475
-1.032196
-1.03724
-1.032061
-1.029237
-1.018917
-1.025024
-1.020642
-1.019175
-1.027307
-1.022362
-1.036222
-1.04606
-0.6729925
-0.01093718
-1.344521
-0.9138266
-1.027186
-1.050733
-1.035071
-1.036924
-1.031239
-1.029565
-1.016071
-1.030682
-1.024822
-1.028576
-1.032169
-1.036784
-1.058662
-1.079565
-0.9712168
-1.842119
-1.002393
-1.034415
-1.042775
-1.049548
-1.038549