/*--------------------------------*- C++ -*----------------------------------*\
| =========                 |                                                 |
| \\      /  F ield         | OpenFOAM: The Open Source CFD Toolbox           |
|  \\    /   O peration     | Version:  2206                                  |
|   \\  /    A nd           | Website:  www.openfoam.com                      |
|    \\/     M anipulation  |                                                 |
\*---------------------------------------------------------------------------*/
FoamFile
{
    version     2.0;
    format      ascii;
    arch        "LSB;label=32;scalar=64";
    class       volScalarField;
    location    "2.2";
    object      ddt0(k.b);
}
// * * * * * * * * * * * * * * * * * * * * * * * * * * * * * * * * * * * * * //

dimensions      [0 2 -3 0 0 0 0];

internalField   nonuniform List<scalar> 
13078
(
5.210636e-13
-7.150267e-11
-7.747403e-11
-7.780193e-11
-7.837219e-11
-7.901899e-11
-7.97709e-11
-1.67214e-13
-6.47965e-11
-7.728083e-11
-7.778064e-11
-7.835279e-11
-7.900349e-11
-7.975466e-11
-1.074596e-13
-6.444769e-11
-7.724145e-11
-7.774776e-11
-7.832808e-11
-7.89841e-11
-7.973622e-11
-2.32159e-13
-6.450875e-11
-7.721882e-11
-7.772162e-11
-7.830564e-11
-7.896458e-11
-7.971717e-11
-2.837799e-13
-6.452574e-11
-7.720701e-11
-7.771124e-11
-7.828753e-11
-7.894625e-11
-7.96986e-11
-3.370349e-13
-6.453502e-11
-7.720225e-11
-7.770549e-11
-7.82813e-11
-7.893046e-11
-7.968075e-11
-3.619174e-13
-6.452776e-11
-7.719914e-11
-7.77001e-11
-7.827719e-11
-7.892582e-11
-7.96648e-11
-3.144357e-13
-6.451026e-11
-7.719669e-11
-7.769676e-11
-7.827463e-11
-7.892284e-11
-7.966077e-11
-2.668787e-13
-6.449466e-11
-7.719689e-11
-7.769579e-11
-7.827305e-11
-7.892056e-11
-7.965798e-11
-2.293939e-13
-6.447317e-11
-7.719742e-11
-7.769518e-11
-7.827183e-11
-7.891873e-11
-7.965564e-11
-1.988478e-13
-6.444772e-11
-7.719804e-11
-7.769469e-11
-7.827076e-11
-7.891711e-11
-7.965344e-11
-1.726409e-13
-6.441903e-11
-7.719869e-11
-7.769419e-11
-7.826979e-11
-7.89156e-11
-7.965142e-11
-1.487472e-13
-6.438788e-11
-7.719943e-11
-7.769359e-11
-7.826885e-11
-7.891416e-11
-7.964944e-11
-1.254857e-13
-6.435426e-11
-7.720025e-11
-7.769274e-11
-7.826755e-11
-7.891262e-11
-7.964739e-11
-1.01104e-13
-6.431853e-11
-7.720108e-11
-7.768906e-11
-7.826189e-11
-7.891063e-11
-7.964537e-11
-7.385771e-14
-6.428071e-11
-7.720194e-11
-7.768438e-11
-7.825726e-11
-7.890877e-11
-7.964325e-11
-4.178491e-14
-6.424119e-11
-7.720328e-11
-7.768308e-11
-7.825564e-11
-7.890705e-11
-7.964109e-11
-2.482875e-15
-6.419981e-11
-7.720487e-11
-7.768192e-11
-7.825409e-11
-7.89053e-11
-7.963885e-11
4.707081e-14
-6.415637e-11
-7.720672e-11
-7.768075e-11
-7.825227e-11
-7.890299e-11
-7.963654e-11
1.107911e-13
-6.411112e-11
-7.720884e-11
-7.767916e-11
-7.824591e-11
-7.889391e-11
-7.963351e-11
1.938521e-13
-6.406383e-11
-7.721137e-11
-7.767739e-11
-7.823809e-11
-7.888649e-11
-7.963048e-11
3.031964e-13
-6.401462e-11
-7.721443e-11
-7.767597e-11
-7.823546e-11
-7.888374e-11
-7.962785e-11
4.48228e-13
-6.396329e-11
-7.721789e-11
-7.767435e-11
-7.823319e-11
-7.888065e-11
-7.962441e-11
6.417048e-13
-6.390992e-11
-7.722196e-11
-7.767266e-11
-7.823022e-11
-7.887112e-11
-7.961074e-11
9.010108e-13
-6.385435e-11
-7.72267e-11
-7.767081e-11
-7.822699e-11
-7.885948e-11
-7.959968e-11
1.249814e-12
-6.379649e-11
-7.723202e-11
-7.766876e-11
-7.822401e-11
-7.885509e-11
-7.959517e-11
1.720191e-12
-6.373765e-11
-7.723813e-11
-7.766654e-11
-7.822078e-11
-7.885107e-11
-7.95902e-11
2.356424e-12
-6.366858e-11
-7.724482e-11
-7.766411e-11
-7.82171e-11
-7.884615e-11
-7.957555e-11
3.216292e-12
-6.361374e-11
-7.725248e-11
-7.766135e-11
-7.821296e-11
-7.884042e-11
-7.955772e-11
4.405971e-12
-6.342863e-11
-7.7258e-11
-7.765821e-11
-7.820838e-11
-7.883491e-11
-7.955007e-11
6.026239e-12
-6.323024e-11
-7.726747e-11
-7.765453e-11
-7.820309e-11
-7.882857e-11
-7.954196e-11
8.102312e-12
-6.288392e-11
-7.726902e-11
-7.764968e-11
-7.819704e-11
-7.882115e-11
-7.953231e-11
1.080708e-11
-6.244374e-11
-7.727615e-11
-7.763776e-11
-7.81894e-11
-7.881244e-11
-7.952225e-11
1.424594e-11
-6.229106e-11
-7.72822e-11
-7.762817e-11
-7.81809e-11
-7.88024e-11
-7.951054e-11
1.852515e-11
-6.213668e-11
-7.728755e-11
-7.761571e-11
-7.816007e-11
-7.879045e-11
-7.949713e-11
2.367287e-11
-6.195913e-11
-7.728979e-11
-7.760367e-11
-7.813609e-11
-7.876165e-11
-7.948113e-11
2.961062e-11
-6.175687e-11
-7.728742e-11
-7.75952e-11
-7.811848e-11
-7.87353e-11
-7.945767e-11
3.612333e-11
-6.152519e-11
-7.727767e-11
-7.758659e-11
-7.810306e-11
-7.869893e-11
-7.9396e-11
4.282842e-11
-6.127452e-11
-7.725591e-11
-7.757329e-11
-7.807804e-11
-7.865329e-11
-7.931699e-11
4.947149e-11
-6.083461e-11
-7.721094e-11
-7.754361e-11
-7.802457e-11
-7.857555e-11
-7.920405e-11
5.542378e-11
-5.99772e-11
-7.711085e-11
-7.747018e-11
-7.791305e-11
-7.84385e-11
-7.911187e-11
5.864551e-11
-5.912097e-11
-7.697934e-11
-7.728828e-11
-7.772353e-11
-7.83055e-11
-7.92529e-11
5.887783e-11
-5.862856e-11
-7.674357e-11
-7.703693e-11
-7.751073e-11
-7.839221e-11
-7.969397e-11
5.570284e-11
-5.813699e-11
-7.643899e-11
-7.684126e-11
-7.750411e-11
-7.863401e-11
-8.017398e-11
4.9114e-11
-5.747043e-11
-7.61703e-11
-7.680897e-11
-7.773686e-11
-7.897405e-11
-8.038879e-11
3.899828e-11
-5.641189e-11
-7.598995e-11
-7.686813e-11
-7.794107e-11
-7.917455e-11
-8.047044e-11
2.530025e-11
-5.531485e-11
-7.601886e-11
-7.697174e-11
-7.797957e-11
-7.916039e-11
-8.032128e-11
1.038658e-11
-5.461111e-11
-7.607203e-11
-7.707182e-11
-7.799327e-11
-7.894725e-11
-8.006323e-11
-2.515116e-12
-5.402699e-11
-7.61555e-11
-7.70534e-11
-7.795299e-11
-7.892337e-11
-7.989896e-11
-1.123652e-11
-5.360305e-11
-7.624615e-11
-7.700191e-11
-7.785042e-11
-7.871109e-11
-7.963321e-11
-1.442164e-11
-5.294972e-11
-7.630634e-11
-7.692967e-11
-7.771919e-11
-7.848807e-11
-7.927136e-11
-1.017769e-11
-5.186656e-11
-7.644693e-11
-7.696393e-11
-7.768787e-11
-7.836729e-11
-7.91064e-11
-9.766007e-13
-5.137271e-11
-7.640713e-11
-7.680863e-11
-7.755562e-11
-7.83059e-11
-7.893429e-11
5.684872e-12
-5.097798e-11
-7.626134e-11
-7.66147e-11
-7.737108e-11
-7.807527e-11
-7.86731e-11
6.27062e-12
-5.065289e-11
-7.6156e-11
-7.65144e-11
-7.728034e-11
-7.796486e-11
-7.859738e-11
-1.513126e-11
-5.036475e-11
-7.599846e-11
-7.641443e-11
-7.718631e-11
-7.787651e-11
-7.854139e-11
-5.286717e-11
-5.003978e-11
-7.567964e-11
-7.617268e-11
-7.692893e-11
-7.761183e-11
-7.827072e-11
-9.790361e-11
-4.991494e-11
-7.54715e-11
-7.608288e-11
-7.680959e-11
-7.744807e-11
-7.804094e-11
-1.137834e-10
-4.999458e-11
-7.528398e-11
-7.600314e-11
-7.667915e-11
-7.727941e-11
-7.774682e-11
-1.283464e-10
-5.015724e-11
-7.50505e-11
-7.58407e-11
-7.643796e-11
-7.70118e-11
-7.748729e-11
-1.259584e-10
-5.061661e-11
-7.481964e-11
-7.564304e-11
-7.625898e-11
-7.685792e-11
-7.74427e-11
-1.043242e-10
-5.19344e-11
-7.487928e-11
-7.579411e-11
-7.636157e-11
-7.690337e-11
-7.741547e-11
-7.746867e-11
-5.28501e-11
-7.497177e-11
-7.570345e-11
-7.625058e-11
-7.684796e-11
-7.744553e-11
-4.590809e-11
-5.341662e-11
-7.506237e-11
-7.572834e-11
-7.623658e-11
-7.690603e-11
-7.767562e-11
-1.195806e-11
-5.411766e-11
-7.524596e-11
-7.585775e-11
-7.635616e-11
-7.713602e-11
-7.794996e-11
2.021466e-11
-5.490348e-11
-7.55006e-11
-7.607007e-11
-7.654356e-11
-7.729018e-11
-7.813705e-11
4.59572e-11
-5.604747e-11
-7.574169e-11
-7.627225e-11
-7.671925e-11
-7.740097e-11
-7.839631e-11
6.347662e-11
-5.714684e-11
-7.604882e-11
-7.650467e-11
-7.689239e-11
-7.750764e-11
-7.847963e-11
7.474192e-11
-5.790532e-11
-7.63562e-11
-7.673676e-11
-7.712675e-11
-7.762609e-11
-7.848066e-11
8.021691e-11
-5.850564e-11
-7.668163e-11
-7.698256e-11
-7.738146e-11
-7.789469e-11
-7.850754e-11
8.03274e-11
-5.909575e-11
-7.694242e-11
-7.72427e-11
-7.765674e-11
-7.81615e-11
-7.874113e-11
7.608447e-11
-5.991001e-11
-7.70959e-11
-7.743305e-11
-7.786843e-11
-7.838528e-11
-7.901799e-11
6.8337e-11
-6.066889e-11
-7.720271e-11
-7.75168e-11
-7.799858e-11
-7.855327e-11
-7.918237e-11
5.96411e-11
-6.113267e-11
-7.725321e-11
-7.755359e-11
-7.806348e-11
-7.864126e-11
-7.931404e-11
5.086372e-11
-6.142977e-11
-7.727755e-11
-7.757157e-11
-7.809067e-11
-7.868908e-11
-7.939235e-11
4.236361e-11
-6.177342e-11
-7.728868e-11
-7.758634e-11
-7.811088e-11
-7.872907e-11
-7.945164e-11
3.459145e-11
-6.205269e-11
-7.729782e-11
-7.759793e-11
-7.813229e-11
-7.876218e-11
-7.947278e-11
2.770985e-11
-6.226706e-11
-7.729642e-11
-7.761211e-11
-7.815557e-11
-7.87842e-11
-7.948983e-11
2.195766e-11
-6.24519e-11
-7.729289e-11
-7.76259e-11
-7.817706e-11
-7.879743e-11
-7.950455e-11
1.723882e-11
-6.259558e-11
-7.728675e-11
-7.763599e-11
-7.818623e-11
-7.880839e-11
-7.951725e-11
1.340564e-11
-6.302855e-11
-7.727878e-11
-7.764835e-11
-7.819444e-11
-7.881772e-11
-7.952816e-11
1.035353e-11
-6.336529e-11
-7.727745e-11
-7.765343e-11
-7.820091e-11
-7.882574e-11
-7.953848e-11
7.865195e-12
-6.354496e-11
-7.726735e-11
-7.765739e-11
-7.820657e-11
-7.883265e-11
-7.954729e-11
5.981835e-12
-6.372684e-11
-7.726126e-11
-7.76607e-11
-7.821154e-11
-7.88386e-11
-7.955559e-11
4.564068e-12
-6.377108e-11
-7.725292e-11
-7.766357e-11
-7.821596e-11
-7.884468e-11
-7.957371e-11
3.470823e-12
-6.383037e-11
-7.72455e-11
-7.766619e-11
-7.821983e-11
-7.884989e-11
-7.958899e-11
2.628359e-12
-6.387959e-11
-7.723867e-11
-7.766852e-11
-7.822326e-11
-7.885421e-11
-7.959427e-11
1.978526e-12
-6.392855e-11
-7.72327e-11
-7.767065e-11
-7.822644e-11
-7.885892e-11
-7.959911e-11
1.477291e-12
-6.397596e-11
-7.722737e-11
-7.767249e-11
-7.822979e-11
-7.887061e-11
-7.961025e-11
1.090027e-12
-6.40219e-11
-7.722269e-11
-7.767427e-11
-7.823285e-11
-7.888032e-11
-7.962417e-11
7.893212e-13
-6.40666e-11
-7.721867e-11
-7.767593e-11
-7.823521e-11
-7.888353e-11
-7.962765e-11
5.546421e-13
-6.410988e-11
-7.72151e-11
-7.767742e-11
-7.823802e-11
-7.888641e-11
-7.963042e-11
3.709345e-13
-6.415195e-11
-7.721216e-11
-7.767922e-11
-7.824583e-11
-7.889386e-11
-7.96336e-11
2.262203e-13
-6.419259e-11
-7.720967e-11
-7.768085e-11
-7.825228e-11
-7.890309e-11
-7.963672e-11
1.113016e-13
-6.423203e-11
-7.720752e-11
-7.768201e-11
-7.825411e-11
-7.890539e-11
-7.963902e-11
1.88967e-14
-6.426994e-11
-7.720562e-11
-7.768318e-11
-7.825568e-11
-7.890712e-11
-7.964122e-11
-5.639231e-14
-6.430649e-11
-7.720402e-11
-7.768454e-11
-7.825734e-11
-7.890885e-11
-7.964342e-11
-1.193151e-13
-6.43418e-11
-7.720295e-11
-7.768921e-11
-7.826196e-11
-7.891075e-11
-7.964557e-11
-1.740017e-13
-6.437546e-11
-7.720197e-11
-7.769295e-11
-7.826768e-11
-7.891276e-11
-7.964756e-11
-2.241574e-13
-6.440746e-11
-7.7201e-11
-7.769382e-11
-7.826898e-11
-7.891426e-11
-7.964955e-11
-2.725275e-13
-6.443742e-11
-7.720009e-11
-7.769444e-11
-7.826991e-11
-7.891563e-11
-7.965141e-11
-3.189151e-13
-6.446549e-11
-7.719932e-11
-7.769497e-11
-7.827084e-11
-7.891703e-11
-7.965329e-11
-3.638106e-13
-6.449121e-11
-7.719859e-11
-7.769547e-11
-7.827179e-11
-7.891847e-11
-7.965529e-11
-4.070803e-13
-6.451396e-11
-7.719796e-11
-7.769596e-11
-7.827277e-11
-7.892e-11
-7.965735e-11
-4.236874e-13
-6.45321e-11
-7.719752e-11
-7.769662e-11
-7.82739e-11
-7.892184e-11
-7.965973e-11
-3.605686e-13
-6.455394e-11
-7.719929e-11
-7.769924e-11
-7.827568e-11
-7.892409e-11
-7.966319e-11
-2.925934e-13
-6.456754e-11
-7.720098e-11
-7.770323e-11
-7.82784e-11
-7.892768e-11
-7.967839e-11
-2.401805e-13
-6.456523e-11
-7.720243e-11
-7.770617e-11
-7.828251e-11
-7.894205e-11
-7.96954e-11
-1.909737e-13
-6.455449e-11
-7.72071e-11
-7.77119e-11
-7.829758e-11
-7.895869e-11
-7.971319e-11
-1.315346e-13
-6.451752e-11
-7.721802e-11
-7.773034e-11
-7.83164e-11
-7.897687e-11
-7.973185e-11
1.890527e-14
-6.456239e-11
-7.725009e-11
-7.775692e-11
-7.83387e-11
-7.899639e-11
-7.975096e-11
-8.520635e-14
-6.560211e-11
-7.728623e-11
-7.77933e-11
-7.836556e-11
-7.901705e-11
-7.977019e-11
-8.06635e-11
-8.179646e-11
-8.332676e-11
-8.481026e-11
-8.749523e-11
-9.02666e-11
-8.506529e-10
-8.064454e-11
-8.177163e-11
-8.329354e-11
-8.477041e-11
-8.744656e-11
-9.123086e-11
-8.520648e-11
-8.062448e-11
-8.17468e-11
-8.326213e-11
-8.528613e-11
-8.740146e-11
-9.115903e-11
-1.033764e-10
-8.060405e-11
-8.172178e-11
-8.322849e-11
-8.468999e-11
-8.734826e-11
-9.109155e-11
-1.04159e-10
-8.058414e-11
-8.169677e-11
-8.319652e-11
-8.464871e-11
-8.729895e-11
-9.102889e-11
-1.218904e-10
-8.056451e-11
-8.167183e-11
-8.316395e-11
-8.460865e-11
-8.725027e-11
-9.097127e-11
-1.494459e-10
-8.054537e-11
-8.164715e-11
-8.313165e-11
-8.456994e-11
-8.723689e-11
-9.091824e-11
-1.737784e-10
-8.052788e-11
-8.162276e-11
-8.309968e-11
-8.453213e-11
-8.722474e-11
-9.08735e-11
-1.997084e-10
-8.052365e-11
-8.160024e-11
-8.306928e-11
-8.449355e-11
-8.718636e-11
-9.084007e-11
-2.142078e-10
-8.052061e-11
-8.159478e-11
-8.304095e-11
-8.445523e-11
-8.714838e-11
-9.081348e-11
-2.296514e-10
-8.051783e-11
-8.159086e-11
-8.303386e-11
-8.441805e-11
-8.711072e-11
-9.079015e-11
-2.449108e-10
-8.051507e-11
-8.158688e-11
-8.302857e-11
-8.441045e-11
-8.7073e-11
-9.077825e-11
-2.51404e-10
-8.051237e-11
-8.158294e-11
-8.302317e-11
-8.440383e-11
-8.70673e-11
-9.076461e-11
-2.548628e-10
-8.050962e-11
-8.157899e-11
-8.301766e-11
-8.439698e-11
-8.706103e-11
-9.078642e-11
-2.645671e-10
-8.050685e-11
-8.157486e-11
-8.3012e-11
-8.438995e-11
-8.705456e-11
-9.084975e-11
-2.041411e-10
-8.050398e-11
-8.157063e-11
-8.300622e-11
-8.438273e-11
-8.704777e-11
-9.089764e-11
-2.011924e-10
-8.050108e-11
-8.156628e-11
-8.300033e-11
-8.437513e-11
-8.703731e-11
-9.092019e-11
-1.902571e-10
-8.049808e-11
-8.156197e-11
-8.299415e-11
-8.436327e-11
-8.692193e-11
-9.094018e-11
-1.788773e-10
-8.049502e-11
-8.155778e-11
-8.298797e-11
-8.435533e-11
-8.690926e-11
-9.095362e-11
-1.695599e-10
-8.049181e-11
-8.155345e-11
-8.298159e-11
-8.434722e-11
-8.68993e-11
-9.096438e-11
-1.595119e-10
-8.048856e-11
-8.154899e-11
-8.297512e-11
-8.43389e-11
-8.688919e-11
-9.097032e-11
-1.110694e-10
-8.04851e-11
-8.154438e-11
-8.296859e-11
-8.433026e-11
-8.687893e-11
-9.086172e-11
-1.043353e-10
-8.04816e-11
-8.153962e-11
-8.296118e-11
-8.43219e-11
-8.686594e-11
-9.04116e-11
-1.183108e-10
-8.047695e-11
-8.153474e-11
-8.295593e-11
-8.482992e-11
-8.676484e-11
-9.044005e-11
-2.349429e-10
-8.047226e-11
-8.152962e-11
-8.294643e-11
-8.430758e-11
-8.671084e-11
-9.036746e-11
-2.361449e-10
-8.046821e-11
-8.152461e-11
-8.293987e-11
-8.429421e-11
-8.669649e-11
-9.028813e-11
-2.770946e-10
-8.046278e-11
-8.151891e-11
-8.293218e-11
-8.428444e-11
-8.668204e-11
-9.034439e-11
-3.046968e-10
-8.044194e-11
-8.151266e-11
-8.292405e-11
-8.42748e-11
-8.666067e-11
-9.034757e-11
-3.286456e-10
-8.042488e-11
-8.122132e-11
-8.253386e-11
-8.426268e-11
-8.664342e-11
-9.038145e-11
-3.431384e-10
-8.041683e-11
-8.121191e-11
-8.252322e-11
-8.425344e-11
-8.663021e-11
-9.044153e-11
-2.751086e-10
-8.038697e-11
-8.117738e-11
-8.25156e-11
-8.42441e-11
-8.661756e-11
-9.064619e-11
-5.180551e-10
-8.036524e-11
-8.114842e-11
-8.250749e-11
-8.423475e-11
-8.660524e-11
-9.040452e-11
-5.098399e-10
-8.035085e-11
-8.109372e-11
-8.249545e-11
-8.422512e-11
-8.659417e-11
-9.040814e-11
-4.172175e-10
-8.033732e-11
-8.107485e-11
-8.244154e-11
-8.421416e-11
-8.658388e-11
-9.040273e-11
-3.221969e-10
-8.032066e-11
-8.105278e-11
-8.237084e-11
-8.420088e-11
-8.65765e-11
-9.021642e-11
-2.448925e-10
-8.029744e-11
-8.102311e-11
-8.229682e-11
-8.417642e-11
-8.657356e-11
-9.032283e-11
-3.882831e-10
-8.026212e-11
-8.097223e-11
-8.225545e-11
-8.404701e-11
-8.655981e-11
-9.026638e-11
-3.081238e-10
-8.020278e-11
-8.089063e-11
-8.218771e-11
-8.394207e-11
-8.655853e-11
-9.045296e-11
-5.209515e-10
-8.012108e-11
-8.079555e-11
-8.21385e-11
-8.393203e-11
-8.680802e-11
-9.090244e-11
-1.234117e-10
-8.002112e-11
-8.071151e-11
-8.237835e-11
-8.481058e-11
-8.759239e-11
-9.161048e-11
-1.530074e-10
-8.016065e-11
-8.117811e-11
-8.353999e-11
-8.58664e-11
-8.817308e-11
-9.156488e-11
-1.265981e-10
-8.075748e-11
-8.206801e-11
-8.420764e-11
-8.638017e-11
-8.86114e-11
-9.116799e-11
-1.272827e-10
-8.144292e-11
-8.275238e-11
-8.472272e-11
-8.664232e-11
-8.878518e-11
-9.11941e-11
-1.445246e-10
-8.189508e-11
-8.31702e-11
-8.51981e-11
-8.699917e-11
-8.907882e-11
-9.16077e-11
-1.192193e-10
-8.208815e-11
-8.355204e-11
-8.530049e-11
-8.743979e-11
-8.897809e-11
-9.183301e-11
-1.09384e-10
-8.195293e-11
-8.35692e-11
-8.570593e-11
-8.731747e-11
-8.90837e-11
-9.158464e-11
-1.787226e-10
-8.186983e-11
-8.355038e-11
-8.566011e-11
-8.745915e-11
-8.885589e-11
-9.133903e-11
-1.490831e-10
-8.162594e-11
-8.319479e-11
-8.5631e-11
-8.717377e-11
-8.887268e-11
-9.069017e-11
-1.011685e-10
-8.122494e-11
-8.286477e-11
-8.516134e-11
-8.686365e-11
-8.840328e-11
-9.056378e-11
-1.312217e-10
-8.095236e-11
-8.251251e-11
-8.484502e-11
-8.650063e-11
-8.775181e-11
-8.945461e-11
-9.817189e-11
-8.060393e-11
-8.208014e-11
-8.409969e-11
-8.55618e-11
-8.694528e-11
-8.832412e-11
-9.291227e-11
-8.03696e-11
-8.182035e-11
-8.364314e-11
-8.472585e-11
-8.584063e-11
-8.747774e-11
2.910066e-07
-8.009111e-11
-8.142655e-11
-8.317966e-11
-8.427856e-11
-8.530458e-11
-8.536104e-11
-2.091858e-09
-7.991329e-11
-8.128892e-11
-8.295387e-11
-8.402312e-11
-8.469946e-11
-1.336132e-10
-1.845341e-09
-7.97858e-11
-8.108787e-11
-8.289571e-11
-8.361262e-11
-8.421305e-11
-8.374675e-11
-1.045408e-10
-7.974745e-11
-8.102154e-11
-8.27069e-11
-8.338382e-11
-8.341501e-11
-8.305829e-11
-7.945771e-11
-8.078533e-11
-8.244497e-11
-8.319608e-11
-8.335365e-11
-8.295736e-11
-7.919672e-11
-8.055531e-11
-8.209117e-11
-8.277762e-11
-8.286157e-11
-8.252702e-11
-7.881996e-11
-8.016457e-11
-8.162527e-11
-8.239948e-11
-8.301652e-11
-7.451096e-11
-1.158101e-09
-7.85234e-11
-7.960573e-11
-8.133165e-11
-8.225707e-11
-8.307353e-11
-1.456307e-10
-2.467151e-09
-7.841992e-11
-7.941193e-11
-8.111664e-11
-8.230775e-11
-8.295564e-11
-7.746793e-11
-3.071385e-09
-7.837361e-11
-7.92654e-11
-8.0883e-11
-8.232116e-11
-8.381844e-11
-8.496e-11
-9.181603e-11
-7.844323e-11
-7.93726e-11
-8.164197e-11
-8.281609e-11
-8.391056e-11
-8.582299e-11
-9.27718e-11
-7.876314e-11
-7.972499e-11
-8.144365e-11
-8.276668e-11
-8.441631e-11
-8.608441e-11
-1.006417e-10
-7.90821e-11
-7.988368e-11
-8.170174e-11
-8.302452e-11
-8.461938e-11
-8.60289e-11
-1.050356e-10
-7.936474e-11
-8.042852e-11
-8.172335e-11
-8.331236e-11
-8.435559e-11
-8.647979e-11
-1.801557e-10
-7.960711e-11
-8.053297e-11
-8.204459e-11
-8.321475e-11
-8.473574e-11
-8.62701e-11
-1.01665e-10
-7.979233e-11
-8.095119e-11
-8.205949e-11
-8.343769e-11
-8.463456e-11
-8.70851e-11
-1.75219e-10
-7.978636e-11
-8.097688e-11
-8.222329e-11
-8.361124e-11
-8.509804e-11
-8.732901e-11
-1.226744e-10
-7.964007e-11
-8.089896e-11
-8.249051e-11
-8.374409e-11
-8.564644e-11
-8.872098e-11
-1.172152e-09
-7.954476e-11
-8.059021e-11
-8.230142e-11
-8.407806e-11
-8.579897e-11
-8.785384e-11
-1.777624e-10
-7.975962e-11
-8.037759e-11
-8.212664e-11
-8.425979e-11
-8.609557e-11
-8.878758e-11
-3.408598e-10
-7.998989e-11
-8.066408e-11
-8.201522e-11
-8.391343e-11
-8.629258e-11
-8.97797e-11
-1.356134e-10
-8.013273e-11
-8.07756e-11
-8.212803e-11
-8.388874e-11
-8.641072e-11
-9.041398e-11
-1.58036e-10
-8.021508e-11
-8.087733e-11
-8.218211e-11
-8.390053e-11
-8.658682e-11
-9.066833e-11
-6.736142e-10
-8.026358e-11
-8.095047e-11
-8.223431e-11
-8.395716e-11
-8.653231e-11
-9.014919e-11
-9.510031e-11
-8.029187e-11
-8.099611e-11
-8.227136e-11
-8.408917e-11
-8.653775e-11
-9.019213e-11
-2.179362e-10
-8.031294e-11
-8.102695e-11
-8.232098e-11
-8.417396e-11
-8.654315e-11
-9.022317e-11
-3.561736e-10
-8.033022e-11
-8.105338e-11
-8.239363e-11
-8.419215e-11
-8.655563e-11
-9.019182e-11
-3.372523e-10
-8.034467e-11
-8.106666e-11
-8.247702e-11
-8.420641e-11
-8.657093e-11
-9.030058e-11
-4.421573e-10
-8.036001e-11
-8.111051e-11
-8.249315e-11
-8.421932e-11
-8.658634e-11
-9.047053e-11
-5.302766e-10
-8.038251e-11
-8.11484e-11
-8.2505e-11
-8.423147e-11
-8.660173e-11
-9.045445e-11
-5.432124e-10
-8.041365e-11
-8.119919e-11
-8.25146e-11
-8.424311e-11
-8.661729e-11
-9.045798e-11
-3.763271e-10
-8.042242e-11
-8.120668e-11
-8.252401e-11
-8.425427e-11
-8.663236e-11
-9.048254e-11
-2.97758e-10
-8.043996e-11
-8.151057e-11
-8.292185e-11
-8.426543e-11
-8.664823e-11
-9.041675e-11
-3.454555e-10
-8.046145e-11
-8.151749e-11
-8.293075e-11
-8.427573e-11
-8.667094e-11
-9.042336e-11
-3.285499e-10
-8.046728e-11
-8.152367e-11
-8.293899e-11
-8.428622e-11
-8.668878e-11
-9.039741e-11
-3.041283e-10
-8.047165e-11
-8.152913e-11
-8.29468e-11
-8.429636e-11
-8.67039e-11
-9.03277e-11
-2.781277e-10
-8.047658e-11
-8.15345e-11
-8.295447e-11
-8.430636e-11
-8.67213e-11
-9.082539e-11
-5.266427e-11
-8.048143e-11
-8.153956e-11
-8.296175e-11
-8.431623e-11
-8.683194e-11
-9.087658e-11
-5.854076e-11
-8.048505e-11
-8.154447e-11
-8.296885e-11
-8.432566e-11
-8.68751e-11
-9.089479e-11
-8.939642e-11
-8.048859e-11
-8.154928e-11
-8.29757e-11
-8.433462e-11
-8.688564e-11
-9.097371e-11
-1.381299e-10
-8.049198e-11
-8.155382e-11
-8.298229e-11
-8.434338e-11
-8.68961e-11
-9.097353e-11
-1.432176e-10
-8.049529e-11
-8.155821e-11
-8.298877e-11
-8.435175e-11
-8.690612e-11
-9.096754e-11
-1.50001e-10
-8.049837e-11
-8.156246e-11
-8.299493e-11
-8.435988e-11
-8.691589e-11
-9.095655e-11
-1.593156e-10
-8.050138e-11
-8.156679e-11
-8.30011e-11
-8.437039e-11
-8.697433e-11
-9.094062e-11
-1.688123e-10
-8.050428e-11
-8.157113e-11
-8.3007e-11
-8.437979e-11
-8.70462e-11
-9.091916e-11
-1.786592e-10
-8.050712e-11
-8.15753e-11
-8.301273e-11
-8.438727e-11
-8.70529e-11
-9.089059e-11
-1.849593e-10
-8.050984e-11
-8.157936e-11
-8.30183e-11
-8.439456e-11
-8.705948e-11
-9.084088e-11
-2.218034e-10
-8.051252e-11
-8.158324e-11
-8.302374e-11
-8.440155e-11
-8.706576e-11
-9.080567e-11
-2.401135e-10
-8.05151e-11
-8.158705e-11
-8.302899e-11
-8.440845e-11
-8.707196e-11
-9.080204e-11
-2.386404e-10
-8.05177e-11
-8.159089e-11
-8.303415e-11
-8.441514e-11
-8.709344e-11
-9.081777e-11
-2.361987e-10
-8.05203e-11
-8.159465e-11
-8.304108e-11
-8.443752e-11
-8.713065e-11
-9.083308e-11
-2.314067e-10
-8.05231e-11
-8.159988e-11
-8.306921e-11
-8.44757e-11
-8.716836e-11
-9.085547e-11
-2.187418e-10
-8.052698e-11
-8.162207e-11
-8.309932e-11
-8.45143e-11
-8.720631e-11
-9.088547e-11
-2.04829e-10
-8.054401e-11
-8.164613e-11
-8.313099e-11
-8.455322e-11
-8.724284e-11
-9.092063e-11
-1.920364e-10
-8.056268e-11
-8.167048e-11
-8.316306e-11
-8.459024e-11
-8.72281e-11
-9.096534e-11
-1.736148e-10
-8.058185e-11
-8.169518e-11
-8.319539e-11
-8.462987e-11
-8.727506e-11
-9.101747e-11
-1.535009e-10
-8.060147e-11
-8.172018e-11
-8.322797e-11
-8.466963e-11
-8.732372e-11
-9.107521e-11
-1.388192e-10
-8.062191e-11
-8.174543e-11
-8.326072e-11
-8.470969e-11
-8.737273e-11
-9.113724e-11
-1.341621e-10
-8.064254e-11
-8.177063e-11
-8.329354e-11
-8.47496e-11
-8.742205e-11
-9.120583e-11
-1.3863e-10
-8.066317e-11
-8.179626e-11
-8.332645e-11
-8.478956e-11
-8.747145e-11
-9.121044e-11
-2.557936e-10
-6.970577e-08
-1.027736e-07
-1.065794e-07
-1.066109e-07
-1.066108e-07
-1.066108e-07
-1.066108e-07
-1.066108e-07
-1.066108e-07
-1.066108e-07
-1.066108e-07
-1.066108e-07
-1.066108e-07
-1.066108e-07
-1.066108e-07
-1.066108e-07
-1.066108e-07
-1.066108e-07
-1.216687e-07
-1.08984e-07
-1.066459e-07
-1.066131e-07
-1.066127e-07
-1.066127e-07
-1.066127e-07
-1.066127e-07
-1.066127e-07
-1.066127e-07
-1.066127e-07
-1.066127e-07
-1.066127e-07
-1.066127e-07
-1.066127e-07
-1.066127e-07
-1.066127e-07
-1.066126e-07
-1.176595e-07
-1.077135e-07
-1.066194e-07
-1.066128e-07
-1.066128e-07
-1.066128e-07
-1.066128e-07
-1.066128e-07
-1.066128e-07
-1.066128e-07
-1.066128e-07
-1.066128e-07
-1.066128e-07
-1.066128e-07
-1.066128e-07
-1.066128e-07
-1.066128e-07
-1.066128e-07
-1.204385e-07
-1.072369e-07
-1.06614e-07
-1.066126e-07
-1.066127e-07
-1.066126e-07
-1.066126e-07
-1.066126e-07
-1.066126e-07
-1.066126e-07
-1.066126e-07
-1.066126e-07
-1.066126e-07
-1.066127e-07
-1.066126e-07
-1.066127e-07
-1.066127e-07
-1.066127e-07
-1.209134e-07
-1.073606e-07
-1.066139e-07
-1.066126e-07
-1.066126e-07
-1.066126e-07
-1.066126e-07
-1.066126e-07
-1.066126e-07
-1.066126e-07
-1.066126e-07
-1.066126e-07
-1.066126e-07
-1.066126e-07
-1.066126e-07
-1.066126e-07
-1.066126e-07
-1.066126e-07
-1.198393e-07
-1.074339e-07
-1.066141e-07
-1.066126e-07
-1.066126e-07
-1.066126e-07
-1.066126e-07
-1.066126e-07
-1.066126e-07
-1.066126e-07
-1.066126e-07
-1.066126e-07
-1.066126e-07
-1.066126e-07
-1.066126e-07
-1.066126e-07
-1.066126e-07
-1.066126e-07
-1.183082e-07
-1.074568e-07
-1.066142e-07
-1.066126e-07
-1.066126e-07
-1.066126e-07
-1.066126e-07
-1.066126e-07
-1.066126e-07
-1.066126e-07
-1.066126e-07
-1.066126e-07
-1.066126e-07
-1.066126e-07
-1.066126e-07
-1.066126e-07
-1.066126e-07
-1.066126e-07
-1.160237e-07
-1.074162e-07
-1.066142e-07
-1.066126e-07
-1.066126e-07
-1.066126e-07
-1.066126e-07
-1.066126e-07
-1.066126e-07
-1.066126e-07
-1.066126e-07
-1.066126e-07
-1.066126e-07
-1.066126e-07
-1.066126e-07
-1.066126e-07
-1.066126e-07
-1.066126e-07
-1.138075e-07
-1.074228e-07
-1.066142e-07
-1.066126e-07
-1.066126e-07
-1.066126e-07
-1.066126e-07
-1.066126e-07
-1.066126e-07
-1.066126e-07
-1.066126e-07
-1.066126e-07
-1.066126e-07
-1.066126e-07
-1.066126e-07
-1.066126e-07
-1.066126e-07
-1.066126e-07
-1.115329e-07
-1.075088e-07
-1.066142e-07
-1.066126e-07
-1.066127e-07
-1.066126e-07
-1.066126e-07
-1.066126e-07
-1.066126e-07
-1.066126e-07
-1.066126e-07
-1.066126e-07
-1.066126e-07
-1.066126e-07
-1.066126e-07
-1.066126e-07
-1.066126e-07
-1.066126e-07
-1.09174e-07
-1.075178e-07
-1.066142e-07
-1.066126e-07
-1.066127e-07
-1.066126e-07
-1.066126e-07
-1.066126e-07
-1.066126e-07
-1.066126e-07
-1.066126e-07
-1.066126e-07
-1.066126e-07
-1.066126e-07
-1.066126e-07
-1.066126e-07
-1.066126e-07
-1.066126e-07
-1.063229e-07
-1.074788e-07
-1.066142e-07
-1.066126e-07
-1.066127e-07
-1.066126e-07
-1.066126e-07
-1.066126e-07
-1.066126e-07
-1.066126e-07
-1.066126e-07
-1.066126e-07
-1.066126e-07
-1.066126e-07
-1.066126e-07
-1.066126e-07
-1.066126e-07
-1.066126e-07
-1.028712e-07
-1.07598e-07
-1.066154e-07
-1.066127e-07
-1.066127e-07
-1.066126e-07
-1.066126e-07
-1.066126e-07
-1.066126e-07
-1.066126e-07
-1.066126e-07
-1.066126e-07
-1.066126e-07
-1.066126e-07
-1.066126e-07
-1.066126e-07
-1.066126e-07
-1.066126e-07
-1.030959e-07
-1.089557e-07
-1.066258e-07
-1.066128e-07
-1.066127e-07
-1.066126e-07
-1.066126e-07
-1.066126e-07
-1.066126e-07
-1.066126e-07
-1.066126e-07
-1.066126e-07
-1.066126e-07
-1.066126e-07
-1.066126e-07
-1.066126e-07
-1.066126e-07
-1.066126e-07
-8.355045e-08
-1.082446e-07
-1.066622e-07
-1.066155e-07
-1.066127e-07
-1.066126e-07
-1.066126e-07
-1.066126e-07
-1.066126e-07
-1.066126e-07
-1.066126e-07
-1.066126e-07
-1.066126e-07
-1.066126e-07
-1.066126e-07
-1.066126e-07
-1.066126e-07
-1.066126e-07
-7.909467e-08
-1.06833e-07
-1.06597e-07
-1.066283e-07
-1.066134e-07
-1.066126e-07
-1.066126e-07
-1.066126e-07
-1.066126e-07
-1.066126e-07
-1.066126e-07
-1.066126e-07
-1.066126e-07
-1.066126e-07
-1.066126e-07
-1.066126e-07
-1.066126e-07
-1.066126e-07
-7.509363e-08
-1.088733e-07
-1.066231e-07
-1.066094e-07
-1.066172e-07
-1.066128e-07
-1.066126e-07
-1.066126e-07
-1.066126e-07
-1.066126e-07
-1.066126e-07
-1.066126e-07
-1.066126e-07
-1.066126e-07
-1.066126e-07
-1.066126e-07
-1.066126e-07
-1.066126e-07
-7.020151e-08
-1.085379e-07
-1.065996e-07
-1.066129e-07
-1.066121e-07
-1.066134e-07
-1.066127e-07
-1.066126e-07
-1.066126e-07
-1.066126e-07
-1.066126e-07
-1.066126e-07
-1.066126e-07
-1.066126e-07
-1.066126e-07
-1.066126e-07
-1.066126e-07
-1.066126e-07
-6.566018e-08
-1.084651e-07
-1.066067e-07
-1.06607e-07
-1.066117e-07
-1.066129e-07
-1.066128e-07
-1.066126e-07
-1.066126e-07
-1.066126e-07
-1.066126e-07
-1.066126e-07
-1.066126e-07
-1.066126e-07
-1.066126e-07
-1.066126e-07
-1.066126e-07
-1.066126e-07
-6.14703e-08
-1.083836e-07
-1.066149e-07
-1.066096e-07
-1.066112e-07
-1.066123e-07
-1.066127e-07
-1.066127e-07
-1.066126e-07
-1.066126e-07
-1.066126e-07
-1.066126e-07
-1.066126e-07
-1.066126e-07
-1.066126e-07
-1.066126e-07
-1.066126e-07
-1.066126e-07
-5.76104e-08
-1.083843e-07
-1.066157e-07
-1.066124e-07
-1.06612e-07
-1.066124e-07
-1.066125e-07
-1.066127e-07
-1.066126e-07
-1.066126e-07
-1.066126e-07
-1.066126e-07
-1.066126e-07
-1.066126e-07
-1.066126e-07
-1.066126e-07
-1.066126e-07
-1.066126e-07
-5.359718e-08
-1.083089e-07
-1.066153e-07
-1.066126e-07
-1.066126e-07
-1.066126e-07
-1.066126e-07
-1.066126e-07
-1.066126e-07
-1.066126e-07
-1.066126e-07
-1.066126e-07
-1.066126e-07
-1.066126e-07
-1.066126e-07
-1.066126e-07
-1.066126e-07
-1.066126e-07
-5.028689e-08
-1.085201e-07
-1.066155e-07
-1.066126e-07
-1.066127e-07
-1.066126e-07
-1.066126e-07
-1.066126e-07
-1.066126e-07
-1.066126e-07
-1.066126e-07
-1.066126e-07
-1.066126e-07
-1.066126e-07
-1.066126e-07
-1.066126e-07
-1.066126e-07
-1.066126e-07
-4.761619e-08
-1.08526e-07
-1.066152e-07
-1.066127e-07
-1.066128e-07
-1.066126e-07
-1.066126e-07
-1.066126e-07
-1.066126e-07
-1.066126e-07
-1.066126e-07
-1.066126e-07
-1.066126e-07
-1.066127e-07
-1.066127e-07
-1.066126e-07
-1.066126e-07
-1.066126e-07
-4.44469e-08
-1.084708e-07
-1.066146e-07
-1.066127e-07
-1.066129e-07
-1.066126e-07
-1.066126e-07
-1.066126e-07
-1.066127e-07
-1.066126e-07
-1.066126e-07
-1.066126e-07
-1.066126e-07
-1.066127e-07
-1.066128e-07
-1.066126e-07
-1.066126e-07
-1.066126e-07
-4.187723e-08
-1.085094e-07
-1.066143e-07
-1.066127e-07
-1.066131e-07
-1.066126e-07
-1.066127e-07
-1.066126e-07
-1.066127e-07
-1.066126e-07
-1.066126e-07
-1.066126e-07
-1.066126e-07
-1.066127e-07
-1.066127e-07
-1.066126e-07
-1.066126e-07
-1.066126e-07
-3.949189e-08
-1.085897e-07
-1.066141e-07
-1.066133e-07
-1.066138e-07
-1.066127e-07
-1.066127e-07
-1.066127e-07
-1.066127e-07
-1.066126e-07
-1.066126e-07
-1.066126e-07
-1.066126e-07
-1.066127e-07
-1.066128e-07
-1.066126e-07
-1.066126e-07
-1.066126e-07
-3.717697e-08
-1.084667e-07
-1.066136e-07
-1.066251e-07
-1.066245e-07
-1.066127e-07
-1.066127e-07
-1.066128e-07
-1.066128e-07
-1.066126e-07
-1.066126e-07
-1.066126e-07
-1.066126e-07
-1.066127e-07
-1.066126e-07
-1.066126e-07
-1.066126e-07
-1.066127e-07
-3.507198e-08
-1.082189e-07
-1.066142e-07
-1.067899e-07
-1.067581e-07
-1.066128e-07
-1.066129e-07
-1.066148e-07
-1.066137e-07
-1.066126e-07
-1.066126e-07
-1.066126e-07
-1.066127e-07
-1.066126e-07
-1.066126e-07
-1.066126e-07
-1.066126e-07
-1.066128e-07
-3.313815e-08
-1.075426e-07
-1.066204e-07
-1.075397e-07
-1.073101e-07
-1.066111e-07
-1.066133e-07
-1.066333e-07
-1.066226e-07