/*--------------------------------*- C++ -*----------------------------------*\
| =========                 |                                                 |
| \\      /  F ield         | OpenFOAM: The Open Source CFD Toolbox           |
|  \\    /   O peration     | Version:  2206                                  |
|   \\  /    A nd           | Website:  www.openfoam.com                      |
|    \\/     M anipulation  |                                                 |
\*---------------------------------------------------------------------------*/
FoamFile
{
    version     2.0;
    format      ascii;
    arch        "LSB;label=32;scalar=64";
    class       surfaceVectorField;
    location    "2.2";
    object      ddtCorrDdt0(Ufa);
}
// * * * * * * * * * * * * * * * * * * * * * * * * * * * * * * * * * * * * * //

dimensions      [0 1 -2 0 0 0 0];

internalField   nonuniform List<vector> 
26037
(
(6.09239e-05 -0.0003940213 2.90634e-22)
(-2.59802e-05 -0.0004077565 7.567304e-27)
(8.60353e-06 -9.936305e-05 -1.603709e-23)
(-2.967793e-05 -0.000120177 1.04503e-25)
(1.226244e-06 -3.043914e-05 -3.847996e-29)
(-7.05187e-06 -3.5188e-05 -3.856734e-29)
(2.860999e-07 -1.032288e-05 1.389814e-29)
(-2.748721e-06 -1.235591e-05 0)
(1.203452e-07 -6.203064e-06 -4.385652e-26)
(-1.319781e-06 -7.428814e-06 1.402954e-29)
(3.953171e-08 -4.366067e-06 3.668648e-29)
(-7.398912e-07 -5.214147e-06 2.802306e-28)
(-4.999024e-07 -3.500089e-06 1.958812e-29)
(-2.337702e-08 -2.849973e-06 -7.852992e-26)
(-0.0001178628 -0.000118365 5.715053e-31)
(-9.714803e-05 -8.387986e-05 -4.120337e-29)
(-4.615298e-05 -5.503147e-05 5.769983e-31)
(-5.02251e-05 -5.360971e-05 3.076439e-29)
(-1.104554e-05 -1.692566e-05 0)
(-1.44988e-05 -1.779536e-05 -7.004712e-30)
(-4.356964e-06 -9.440534e-06 1.331095e-31)
(-6.619289e-06 -1.039028e-05 -2.386313e-29)
(-2.182086e-06 -6.430317e-06 1.92671e-31)
(-3.527615e-06 -7.172633e-06 1.110505e-27)
(-1.282114e-06 -4.335616e-06 1.616757e-31)
(-2.106952e-06 -4.911207e-06 5.960363e-32)
(-1.40402e-06 -3.261746e-06 7.122601e-28)
(-8.652764e-07 -2.785685e-06 2.183682e-29)
(-2.866681e-05 -1.8014e-05 -1.085512e-29)
(-2.304231e-05 -1.206698e-05 3.626345e-24)
(-1.833637e-05 -1.605193e-05 2.365688e-29)
(-1.798885e-05 -1.336556e-05 -1.516467e-24)
(-9.97851e-06 -1.112324e-05 2.267359e-25)
(-1.120187e-05 -1.036771e-05 3.940639e-29)
(-5.789835e-06 -8.103821e-06 5.804717e-26)
(-7.054029e-06 -8.112269e-06 -3.302638e-30)
(-3.458376e-06 -5.641166e-06 -1.53007e-29)
(-4.417822e-06 -5.862059e-06 -2.206722e-27)
(-2.233481e-06 -3.82423e-06 1.168968e-34)
(-2.925179e-06 -4.096791e-06 0)
(-2.062378e-06 -2.713041e-06 -8.700641e-28)
(-1.558512e-06 -2.425924e-06 -2.270129e-29)
(-1.212468e-05 -7.397374e-06 3.023997e-29)
(-8.723266e-06 -4.842931e-06 -2.365319e-29)
(-1.081757e-05 -7.631517e-06 1.009148e-28)
(-9.737821e-06 -5.574204e-06 -5.536543e-26)
(-8.239784e-06 -7.291712e-06 4.526533e-27)
(-8.395121e-06 -6.172466e-06 1.161335e-25)
(-5.684492e-06 -5.845646e-06 2.027681e-29)
(-6.251729e-06 -5.389677e-06 5.632594e-26)
(-3.89076e-06 -4.304081e-06 -6.496844e-31)
(-4.488934e-06 -4.188728e-06 -8.269035e-30)
(-2.759534e-06 -2.971657e-06 -2.582827e-31)
(-3.273989e-06 -3.009834e-06 1.321376e-33)
(-2.460732e-06 -1.959624e-06 -2.212272e-29)
(-2.035869e-06 -1.836905e-06 2.331661e-29)
(-6.329452e-06 -3.047875e-06 4.682802e-27)
(-4.161755e-06 -1.526608e-06 4.915974e-32)
(-7.326117e-06 -4.102638e-06 -1.27781e-27)
(-6.460239e-06 -2.755507e-06 3.355961e-29)
(-6.401118e-06 -4.247049e-06 1.243842e-28)
(-6.271843e-06 -3.305976e-06 6.469094e-29)
(-5.058127e-06 -3.701401e-06 -1.022984e-26)
(-5.273442e-06 -3.130344e-06 1.053976e-25)
(-3.878285e-06 -2.873433e-06 -9.034856e-26)
(-4.230316e-06 -2.582587e-06 -6.628233e-26)
(-2.982118e-06 -1.982862e-06 8.217576e-26)
(-3.353982e-06 -1.878357e-06 2.106907e-29)
(-2.670592e-06 -1.121132e-06 2.699149e-27)
(-2.325239e-06 -1.112644e-06 -2.18644e-29)
(-4.301915e-06 -1.263072e-06 -4.025891e-31)
(-3.053856e-06 -5.224682e-07 0)
(-5.418267e-06 -1.949851e-06 2.014266e-27)
(-4.965302e-06 -1.160476e-06 5.060715e-29)
(-5.150143e-06 -2.179357e-06 -6.398904e-27)
(-5.062165e-06 -1.515573e-06 6.095698e-29)
(-4.452858e-06 -1.991049e-06 9.614342e-27)
(-4.568074e-06 -1.499821e-06 5.310942e-29)
(-3.712077e-06 -1.561828e-06 1.887592e-29)
(-3.934354e-06 -1.227515e-06 1.341731e-25)
(-3.049801e-06 -9.955736e-07 -1.024704e-25)
(-3.330274e-06 -8.098496e-07 1.846075e-29)
(-2.784407e-06 -2.812213e-07 4.948757e-29)
(-2.493193e-06 -3.432969e-07 -9.911551e-26)
(-3.729876e-06 -4.502046e-07 5.098319e-29)
(-2.95434e-06 -1.449348e-07 -9.977731e-29)
(-4.620555e-06 -7.178048e-07 1.11294e-28)
(-4.519399e-06 -3.010361e-07 1.637601e-25)
(-4.490838e-06 -8.238068e-07 -5.192513e-26)
(-4.535019e-06 -4.08099e-07 1.454984e-25)
(-4.061461e-06 -7.187936e-07 5.53229e-29)
(-4.196696e-06 -3.510836e-07 1.570194e-29)
(-3.563141e-06 -4.559854e-07 1.025607e-26)
(-3.748217e-06 -1.686557e-07 1.405486e-28)
(-3.07304e-06 -7.013048e-08 -2.942955e-30)
(-3.305758e-06 1.333353e-07 -6.154746e-30)
(-2.874072e-06 5.321868e-07 -3.619116e-30)
(-2.609755e-06 4.230309e-07 9.159529e-31)
(-3.757788e-06 -2.891817e-08 -3.891416e-29)
(-3.202238e-06 3.466214e-08 -3.455063e-25)
(-4.44872e-06 1.400971e-08 1.193425e-28)
(-4.612411e-06 1.955808e-07 -8.26299e-29)
(-4.258815e-06 7.181409e-08 5.903841e-29)
(-4.460127e-06 2.996325e-07 -1.226042e-29)
(-3.896423e-06 2.148094e-07 1.017419e-28)
(-4.107552e-06 4.634951e-07 -2.418842e-30)
(-3.504063e-06 4.368146e-07 9.776566e-29)
(-3.708174e-06 6.572053e-07 3.499383e-25)
(-3.117994e-06 7.574035e-07 1.267003e-26)
(-3.342369e-06 9.273407e-07 -6.752656e-30)
(-2.982606e-06 1.289784e-06 -3.644138e-30)
(-2.727948e-06 1.171488e-06 2.785928e-29)
(-4.074593e-06 2.222651e-07 -1.434746e-28)
(-3.610207e-06 1.398518e-07 3.981959e-25)
(-4.643285e-06 4.8879e-07 -2.142189e-28)
(-5.006344e-06 5.177915e-07 -4.990305e-25)
(-4.331013e-06 6.99296e-07 7.046238e-27)
(-4.684915e-06 7.936263e-07 -2.325239e-25)
(-3.933825e-06 9.233869e-07 2.35786e-28)
(-4.242714e-06 1.074578e-06 1.502231e-28)
(-3.562097e-06 1.165592e-06 1.271423e-26)
(-3.818045e-06 1.322777e-06 4.068285e-25)
(-3.221247e-06 1.479618e-06 -3.537541e-30)
(-3.469204e-06 1.608988e-06 -3.536451e-30)
(-3.141036e-06 1.975021e-06 0)
(-2.87719e-06 1.88303e-06 -4.024496e-29)
(-4.562736e-06 3.943856e-07 -3.037704e-29)
(-4.121116e-06 2.125938e-07 1.37091e-28)
(-5.070979e-06 8.310205e-07 -2.482108e-28)
(-5.595386e-06 7.543839e-07 -1.675477e-28)
(-4.623147e-06 1.176722e-06 6.946642e-29)
(-5.11796e-06 1.172981e-06 -2.674088e-28)
(-4.144149e-06 1.493625e-06 1.515895e-28)
(-4.558932e-06 1.568068e-06 5.069298e-25)
(-3.743378e-06 1.785964e-06 9.090739e-32)
(-4.068008e-06 1.888539e-06 -4.716942e-25)
(-3.405589e-06 2.126362e-06 0)
(-3.69817e-06 2.218202e-06 0)
(-3.369511e-06 2.614817e-06 0)
(-3.075781e-06 2.550039e-06 -5.730618e-29)
(-5.177678e-06 5.275494e-07 0)
(-4.719716e-06 2.700591e-07 0)
(-5.66892e-06 1.105478e-06 -1.866668e-28)
(-6.335602e-06 9.498742e-07 2.238992e-28)
(-5.085109e-06 1.572324e-06 -1.361439e-29)
(-5.713371e-06 1.494132e-06 -6.246421e-25)
(-4.502551e-06 1.985166e-06 1.75902e-28)
(-5.026309e-06 1.999337e-06 -2.395889e-29)
(-4.043971e-06 2.342862e-06 -1.05002e-31)
(-4.446743e-06 2.400166e-06 5.470575e-25)
(-3.681351e-06 2.731079e-06 0)
(-4.031471e-06 2.789642e-06 0)
(-3.679483e-06 3.236912e-06 -1.611419e-28)
(-3.340304e-06 3.195909e-06 5.545455e-29)
(-5.905032e-06 6.424893e-07 2.23806e-28)
(-5.405059e-06 3.209782e-07 0)
(-6.410537e-06 1.348783e-06 8.718506e-30)
(-7.212204e-06 1.128837e-06 7.448468e-25)
(-5.691335e-06 1.929225e-06 -4.169873e-28)
(-6.450485e-06 1.791305e-06 -2.128459e-28)
(-4.99316e-06 2.439442e-06 -1.592875e-26)
(-5.628743e-06 2.405468e-06 -6.673326e-25)
(-4.458712e-06 2.871641e-06 1.922788e-28)
(-4.947662e-06 2.89252e-06 4.087312e-28)
(-4.051783e-06 3.322678e-06 -1.610864e-28)
(-4.468882e-06 3.352709e-06 -1.955397e-28)
(-4.076072e-06 3.8659e-06 -5.032874e-25)
(-3.680785e-06 3.846494e-06 4.331174e-26)
(-6.743549e-06 7.515548e-07 2.585715e-28)
(-6.18213e-06 3.703638e-07 2.403087e-28)
(-7.287145e-06 1.582958e-06 -9.098762e-27)
(-8.224409e-06 1.30601e-06 2.586138e-28)
(-6.430507e-06 2.275844e-06 -2.297607e-28)
(-7.321367e-06 2.086363e-06 5.625949e-30)
(-5.609006e-06 2.886696e-06 -1.533711e-29)
(-6.358431e-06 2.812532e-06 -2.310974e-28)
(-4.985934e-06 3.401411e-06 2.05673e-29)
(-5.575326e-06 3.396003e-06 7.63215e-25)
(-4.518543e-06 3.926298e-06 -1.957076e-28)
(-5.01319e-06 3.933803e-06 -6.470883e-25)
(-4.562951e-06 4.524127e-06 5.744248e-25)
(-4.102435e-06 4.524011e-06 -1.652003e-31)
(-7.698732e-06 8.623455e-07 2.40355e-28)
(-7.059538e-06 4.212457e-07 7.920115e-25)
(-8.298644e-06 1.822469e-06 2.966114e-30)
(-9.377904e-06 1.49063e-06 0)
(-7.297896e-06 2.632138e-06 -1.348474e-26)
(-8.320371e-06 2.392685e-06 9.600389e-30)
(-6.354931e-06 3.352023e-06 5.045562e-28)
(-7.203162e-06 3.236636e-06 -3.651839e-28)
(-5.635602e-06 3.960973e-06 2.717886e-28)
(-6.350336e-06 3.941365e-06 1.021103e-24)
(-5.086567e-06 4.565547e-06 -2.589209e-29)
(-5.674789e-06 4.56018e-06 -2.242991e-28)
(-5.144963e-06 5.232905e-06 -2.832814e-29)
(-4.609714e-06 5.249172e-06 4.338155e-29)
(-8.7794e-06 9.794016e-07 2.743095e-28)
(-8.048415e-06 4.755203e-07 2.741831e-28)
(-9.445314e-06 2.075238e-06 6.626742e-30)
(-1.068409e-05 1.688201e-06 3.821727e-28)
(-8.277742e-06 3.006848e-06 -2.389713e-26)
(-9.451305e-06 2.715205e-06 6.628432e-30)
(-7.242355e-06 3.855336e-06 3.045336e-25)
(-8.155331e-06 3.673605e-06 -7.951806e-25)
(-6.431268e-06 4.584466e-06 1.959128e-28)
(-7.260065e-06 4.539032e-06 1.839468e-28)
(-5.767024e-06 5.266332e-06 -2.267674e-28)
(-6.451607e-06 5.246439e-06 -1.528053e-29)
(-5.825418e-06 6.009755e-06 -7.496043e-25)
(-5.208296e-06 6.042185e-06 -4.216638e-28)
(-9.998857e-06 1.105688e-06 3.819881e-28)
(-9.162291e-06 5.349363e-07 0)
(-1.073961e-05 2.345292e-06 3.822498e-28)
(-1.21608e-05 1.90528e-06 1.245937e-24)
(-9.374319e-06 3.396423e-06 -3.584023e-28)
(-1.073621e-05 3.068571e-06 4.180481e-30)
(-8.220932e-06 4.376518e-06 4.203299e-26)
(-9.229062e-06 4.145238e-06 -3.530184e-28)
(-7.317109e-06 5.251358e-06 -2.835962e-29)
(-8.26147e-06 5.178655e-06 -1.30555e-29)
(-6.547726e-06 6.034264e-06 6.252127e-26)
(-7.332803e-06 5.995989e-06 -1.527389e-29)
(-6.606758e-06 6.868637e-06 -2.760233e-28)
(-5.900768e-06 6.918913e-06 -2.950992e-28)
(-1.137633e-05 1.246319e-06 8.687438e-28)
(-1.041701e-05 6.009322e-07 4.028107e-28)
(-1.221503e-05 2.648962e-06 8.735183e-28)
(-1.382997e-05 2.147753e-06 1.409751e-24)
(-1.064671e-05 3.840992e-06 -1.931827e-26)
(-1.220449e-05 3.467595e-06 1.358933e-29)
(-9.335246e-06 4.963365e-06 5.852232e-30)
(-1.047693e-05 4.688691e-06 1.223875e-29)
(-8.314572e-06 5.97874e-06 0)
(-9.38916e-06 5.88146e-06 0)
(-7.43399e-06 6.880649e-06 0)
(-8.332586e-06 6.824836e-06 3.982765e-28)
(-7.496967e-06 7.824809e-06 4.362823e-29)
(-6.692754e-06 7.894695e-06 2.130357e-29)
(-1.292956e-05 1.403173e-06 -3.173577e-26)
(-1.182982e-05 6.742442e-07 1.302689e-24)
(-1.388465e-05 2.989305e-06 -1.761325e-26)
(-1.571158e-05 2.418114e-06 1.056052e-27)
(-1.209846e-05 4.342837e-06 -2.190497e-26)
(-1.386394e-05 3.913674e-06 2.527659e-29)
(-1.06067e-05 5.623219e-06 6.581917e-30)
(-1.189349e-05 5.299724e-06 2.105053e-29)
(-9.449378e-06 6.789386e-06 4.029064e-28)
(-1.066198e-05 6.664047e-06 0)
(-8.443668e-06 7.826118e-06 -8.062538e-26)
(-9.486152e-06 7.760927e-06 1.354105e-24)
(-8.511485e-06 8.896949e-06 6.815986e-29)
(-7.593043e-06 8.985178e-06 -8.713939e-26)
(-1.467831e-05 1.57757e-06 -3.567535e-26)
(-1.341973e-05 7.552729e-07 9.750937e-28)
(-1.576464e-05 3.368145e-06 -1.975167e-26)
(-1.782859e-05 2.717865e-06 1.79937e-24)
(-1.373123e-05 4.901644e-06 -4.957474e-26)
(-1.572653e-05 4.407388e-06 6.246862e-28)
(-1.203396e-05 6.358922e-06 1.480699e-29)
(-1.346436e-05 5.971825e-06 1.457006e-29)
(-1.074878e-05 7.701561e-06 4.366996e-28)
(-1.205765e-05 7.522806e-06 -1.586256e-28)
(-9.6108e-06 8.89945e-06 4.558566e-28)
(-1.085084e-05 8.842597e-06 1.966142e-28)
(-9.677271e-06 1.011241e-05 -3.076301e-29)
(-8.615314e-06 1.020751e-05 -9.799076e-26)
(-1.664485e-05 1.769894e-06 1.786296e-27)
(-1.52079e-05 8.438948e-07 1.65167e-24)
(-1.78739e-05 3.785516e-06 1.877333e-27)
(-2.020712e-05 3.046996e-06 2.018594e-24)
(-1.554203e-05 5.511541e-06 6.09266e-28)
(-1.781125e-05 4.946089e-06 1.92537e-24)
(-1.357969e-05 7.154948e-06 -1.571876e-28)
(-1.5195e-05 6.688475e-06 6.340002e-28)
(-1.223771e-05 8.727936e-06 6.38601e-25)
(-1.355936e-05 8.408388e-06 -1.810805e-28)
(-1.099092e-05 1.015061e-05 2.56148e-25)
(-1.239962e-05 1.005486e-05 3.188321e-28)
(-1.098909e-05 1.146887e-05 -5.148905e-28)
(-9.782369e-06 1.158637e-05 -5.529809e-29)
(-1.885405e-05 1.979599e-06 4.840119e-26)
(-1.721787e-05 9.397929e-07 5.872738e-28)
(-2.023727e-05 4.239507e-06 2.857464e-26)
(-2.287709e-05 3.406005e-06 2.274683e-24)
(-1.755064e-05 6.163113e-06 2.00583e-27)
(-2.014634e-05 5.534094e-06 2.194771e-24)
(-1.524861e-05 7.971458e-06 7.14354e-26)
(-1.712709e-05 7.470316e-06 2.089267e-24)
(-1.379826e-05 9.773038e-06 5.228503e-28)
(-1.520006e-05 9.357351e-06 -2.312912e-29)
(-1.245508e-05 1.148216e-05 8.207042e-29)
(-1.402799e-05 1.133924e-05 1.750151e-24)
(-1.24287e-05 1.295239e-05 -1.657855e-24)
(-1.106326e-05 1.309834e-05 -1.288875e-25)
(-2.133522e-05 2.207101e-06 8.07728e-28)
(-1.947593e-05 1.04209e-06 -7.5075e-28)
(-2.289129e-05 4.736507e-06 3.033861e-26)
(-2.587312e-05 3.79421e-06 8.078461e-28)
(-1.98239e-05 6.888896e-06 2.247657e-27)
(-2.276651e-05 6.175094e-06 7.723664e-28)
(-1.717472e-05 8.907046e-06 1.477767e-27)
(-1.931814e-05 8.341854e-06 2.360528e-24)
(-1.553974e-05 1.095274e-05 6.188126e-28)
(-1.709599e-05 1.04551e-05 -8.095916e-28)
(-1.405791e-05 1.292769e-05 6.209733e-28)
(-1.581582e-05 1.27458e-05 6.319258e-28)
(-1.407019e-05 1.463572e-05 2.085613e-24)
(-1.24799e-05 1.476783e-05 3.997994e-28)
(-2.411935e-05 2.450044e-06 -7.508857e-28)
(-2.201103e-05 1.148897e-06 -2.324119e-24)
(-2.586629e-05 5.272519e-06 0)
(-2.923277e-05 4.207443e-06 0)
(-2.237462e-05 7.6808e-06 -2.254895e-29)
(-2.570051e-05 6.862811e-06 0)
(-1.93495e-05 9.949023e-06 9.268481e-26)
(-2.177025e-05 9.28938e-06 -2.67736e-24)
(-1.749715e-05 1.227883e-05 -8.262246e-28)
(-1.920366e-05 1.166879e-05 -2.603272e-24)
(-1.589708e-05 1.457902e-05 6.433815e-28)
(-1.776181e-05 1.43054e-05 8.170485e-28)
(-1.607476e-05 1.667809e-05 6.392108e-28)
(-1.413839e-05 1.672765e-05 1.262311e-27)
(-2.724214e-05 2.70461e-06 -1.696964e-27)
(-2.485567e-05 1.257413e-06 -2.583753e-24)
(-2.919894e-05 5.841418e-06 0)
(-3.300021e-05 4.639314e-06 -6.47783e-30)
(-2.522445e-05 8.52891e-06 -9.169387e-28)
(-2.898807e-05 7.58917e-06 -1.135984e-27)
(-2.175114e-05 1.10724e-05 -9.850217e-26)
(-2.451463e-05 1.030123e-05 -9.462272e-28)
(-1.960644e-05 1.372506e-05 -9.458612e-28)
(-2.15373e-05 1.296173e-05 -2.553348e-24)
(-1.806125e-05 1.652636e-05 8.22172e-28)
(-1.988287e-05 1.595048e-05 1.700566e-24)
(-1.846909e-05 1.912987e-05 0)
(-1.6217e-05 1.920933e-05 -6.222099e-28)
(-3.074435e-05 2.96524e-06 -9.645185e-28)
(-2.804624e-05 1.363436e-06 -9.574719e-28)
(-3.293589e-05 6.435115e-06 3.797425e-26)
(-3.722851e-05 5.080376e-06 1.315749e-27)
(-2.841939e-05 9.424949e-06 -1.165318e-27)
(-3.268326e-05 8.345788e-06 -3.436621e-24)
(-2.442976e-05 1.226388e-05 1.189146e-25)
(-2.761555e-05 1.138586e-05 -2.914013e-29)
(-2.19155e-05 1.523401e-05 8.75368e-28)
(-2.420707e-05 1.440241e-05 3.195065e-24)
(-2.0397e-05 1.860931e-05 9.377128e-28)
(-2.230874e-05 1.782503e-05 7.179594e-28)
(-2.114552e-05 2.19528e-05 -1.158283e-28)
(-1.85441e-05 2.203426e-05 -5.999935e-28)
(-3.467503e-05 3.223453e-06 1.321378e-27)
(-3.162374e-05 1.459813e-06 1.217552e-27)
(-3.713905e-05 7.043588e-06 5.265412e-29)
(-4.198418e-05 5.512913e-06 3.905376e-24)
(-3.203854e-05 1.037633e-05 -1.270915e-27)
(-3.685799e-05 9.111384e-06 -2.702024e-27)
(-2.754595e-05 1.361008e-05 1.039465e-27)
(-3.116165e-05 1.253519e-05 0)
(-2.474631e-05 1.708086e-05 2.889346e-25)
(-2.737171e-05 1.604312e-05 1.131487e-27)
(-2.322052e-05 2.119039e-05 3.724845e-25)
(-2.534074e-05 2.013594e-05 -1.962268e-28)
(-2.433938e-05 2.526374e-05 -2.460036e-28)
(-2.136609e-05 2.546679e-05 1.444886e-29)
(-3.909199e-05 3.462096e-06 2.708007e-27)
(-3.563059e-05 1.534384e-06 3.398366e-24)
(-4.188376e-05 7.637617e-06 6.04454e-29)
(-4.735364e-05 5.90361e-06 3.169585e-27)
(-3.6158e-05 1.134493e-05 -1.432301e-27)
(-4.160074e-05 9.835002e-06 -4.209211e-24)
(-3.115878e-05 1.506039e-05 9.178915e-29)
(-3.523336e-05 1.367993e-05 0)
(-2.813324e-05 1.919616e-05 -3.141254e-25)
(-3.106533e-05 1.777504e-05 9.180227e-29)
(-2.664173e-05 2.421172e-05 3.993338e-25)
(-2.890351e-05 2.267344e-05 1.319577e-27)
(-2.794116e-05 2.87834e-05 -2.399358e-28)
(-2.482115e-05 2.94349e-05 -1.047746e-27)
(-4.406462e-05 3.651062e-06 3.048815e-27)
(-4.010937e-05 1.567663e-06 2.912587e-27)
(-4.727001e-05 8.163285e-06 6.52102e-29)
(-5.34586e-05 6.200281e-06 4.835292e-24)
(-4.087152e-05 1.224938e-05 -1.614992e-27)
(-4.70337e-05 1.043092e-05 -1.613727e-27)
(-3.533107e-05 1.649182e-05 0)
(-3.993786e-05 1.469461e-05 -1.633587e-27)
(-3.202772e-05 2.135173e-05 1.317144e-27)
(-3.535496e-05 1.940622e-05 1.146919e-28)
(-3.04074e-05 2.723009e-05 1.234486e-27)
(-3.295384e-05 2.506514e-05 3.496778e-24)
(-3.162567e-05 3.163462e-05 -1.004899e-24)
(-2.839015e-05 3.285411e-05 -2.379233e-24)
(-4.968335e-05 3.74422e-06 2.478116e-25)
(-4.506793e-05 1.539995e-06 3.623316e-24)
(-5.344085e-05 8.538215e-06 1.901508e-27)
(-6.048005e-05 6.327936e-06 1.906242e-27)
(-4.631399e-05 1.296024e-05 -1.632251e-27)
(-5.335419e-05 1.078087e-05 2.081284e-27)
(-4.016796e-05 1.771389e-05 -3.288089e-25)
(-4.544779e-05 1.540992e-05 -5.087498e-24)
(-3.646188e-05 2.323859e-05 2.946517e-27)
(-4.038879e-05 2.07384e-05 1.934042e-27)
(-3.426602e-05 2.952317e-05 4.912322e-25)
(-3.76517e-05 2.722141e-05 5.205366e-24)
(-3.564129e-05 3.431417e-05 5.436537e-24)
(-2.986508e-05 3.304596e-05 2.269021e-24)
(-5.602813e-05 3.684742e-06 1.734461e-27)
(-5.047861e-05 1.40037e-06 1.71867e-27)
(-6.064322e-05 8.658851e-06 2.086471e-27)
(-6.852149e-05 6.196399e-06 0)
(-5.272812e-05 1.332093e-05 -1.432927e-25)
(-6.083229e-05 1.072909e-05 5.875899e-24)
(-4.59056e-05 1.854458e-05 -7.567232e-29)
(-5.206394e-05 1.560467e-05 -1.89171e-27)
(-4.181721e-05 2.485819e-05 5.171862e-27)
(-4.646095e-05 2.148843e-05 5.653951e-24)
(-3.927642e-05 3.215741e-05 4.884782e-27)
(-4.339696e-05 2.88977e-05 5.912075e-24)
(-4.078657e-05 3.700674e-05 -1.974505e-28)
(-3.398602e-05 3.629848e-05 3.998684e-27)
(-6.301183e-05 3.397408e-06 0)
(-5.651335e-05 1.121888e-06 2.150896e-27)
(-6.894503e-05 8.349547e-06 4.621686e-27)
(-7.751067e-05 5.692348e-06 -2.647323e-27)
(-6.043054e-05 1.311224e-05 4.604362e-27)
(-6.988613e-05 1.008789e-05 6.770462e-24)
(-5.288092e-05 1.865935e-05 4.10132e-27)
(-6.033943e-05 1.50293e-05 0)
(-4.830796e-05 2.565829e-05 6.002007e-27)
(-5.400893e-05 2.12555e-05 6.1274e-24)
(-4.519517e-05 3.387726e-05 1.816874e-28)
(-5.048137e-05 2.943665e-05 1.896379e-27)
(-4.709295e-05 3.845245e-05 -5.419831e-24)
(-3.822859e-05 3.831387e-05 -1.74643e-27)
(-7.103781e-05 2.833368e-06 7.253296e-25)
(-6.342835e-05 6.512792e-07 4.273822e-24)
(-7.876292e-05 7.462363e-06 -5.234699e-27)
(-8.755939e-05 4.551172e-06 -4.699319e-24)
(-7.011476e-05 1.211558e-05 -2.569558e-27)
(-8.060263e-05 8.586686e-06 -1.054844e-23)
(-6.176971e-05 1.775613e-05 2.316053e-27)
(-7.098989e-05 1.336963e-05 -5.664427e-27)
(-5.646509e-05 2.516059e-05 2.315506e-27)
(-6.371763e-05 1.962629e-05 4.752496e-27)
(-5.264435e-05 3.415423e-05 -1.516865e-27)
(-5.947519e-05 2.827875e-05 -2.065343e-28)
(-5.505172e-05 3.806003e-05 -1.277383e-27)
(-4.428186e-05 3.920905e-05 -1.879478e-24)
(-8.00149e-05 1.763251e-06 -5.691453e-28)
(-7.12193e-05 -8.395064e-08 2.382407e-27)
(-8.966263e-05 5.648133e-06 -1.16278e-26)
(-9.89512e-05 2.581188e-06 -2.977303e-27)
(-8.186353e-05 9.882924e-06 -1.445446e-26)
(-9.272143e-05 5.641405e-06 -4.043022e-24)
(-7.331883e-05 1.543512e-05 5.901366e-25)
(-8.414729e-05 1.002643e-05 -1.395382e-23)
(-6.706131e-05 2.287612e-05 2.230874e-27)
(-7.632248e-05 1.600704e-05 8.844989e-24)
(-6.221689e-05 3.234458e-05 4.815673e-25)
(-7.119203e-05 2.470774e-05 -6.59337e-28)
(-6.543456e-05 3.496641e-05 -8.192803e-28)
(-5.155226e-05 3.75109e-05 -2.144581e-24)
(-9.033007e-05 1.146283e-07 -3.970495e-25)
(-8.005647e-05 -1.129327e-06 2.795603e-31)
(-0.0001021966 2.566356e-06 -3.332627e-27)
(-0.0001124666 -3.044889e-07 1.157514e-30)
(-9.529765e-05 5.760504e-06 6.070487e-26)
(-0.000106813 1.015945e-06 -6.78691e-27)
(-8.741084e-05 1.078624e-05 -3.057995e-25)
(-9.935551e-05 4.370959e-06 -8.369081e-27)
(-8.084182e-05 1.798767e-05 2.875971e-27)
(-9.269406e-05 9.621597e-06 5.273937e-27)
(-7.480147e-05 2.747808e-05 8.823127e-25)
(-8.671309e-05 1.779015e-05 -3.07972e-27)
(-7.900753e-05 2.777984e-05 -1.057179e-27)
(-6.158122e-05 3.258227e-05 2.07771e-24)
(-0.0001023959 -2.209274e-06 4.351196e-25)
(-9.000637e-05 -2.583568e-06 4.272994e-30)
(-0.0001173657 -1.857524e-06 -3.439252e-27)
(-0.0001284223 -4.417985e-06 1.673445e-29)
(-0.0001112944 -4.921955e-07 1.811783e-25)
(-0.0001239021 -5.759574e-06 -5.219785e-24)
(-0.0001051086 3.164969e-06 1.552745e-25)
(-0.0001170831 -4.958848e-06 -4.414408e-24)
(-9.915424e-05 9.559449e-06 -8.612575e-25)
(-0.0001125522 -1.014534e-06 -3.901156e-27)
(-9.140837e-05 1.826577e-05 -2.625255e-27)
(-0.0001068041 6.131777e-06 -1.55455e-23)
(-9.625475e-05 1.482048e-05 0)
(-7.472042e-05 2.226345e-05 1.520389e-28)
(-0.0001162064 -5.501971e-06 0)
(-0.0001010422 -4.588307e-06 9.381263e-30)
(-0.0001351867 -8.323485e-06 -3.945462e-27)
(-0.0001467564 -1.022276e-05 -3.566256e-29)
(-0.0001298562 -1.025803e-05 -8.13855e-27)
(-0.0001440691 -1.545102e-05 -4.069647e-27)
(-0.0001247462 -9.235386e-06 -9.030572e-25)
(-0.0001373014 -1.872719e-05 -4.180617e-27)
(-0.0001208814 -4.531809e-06 -1.660532e-24)
(-0.0001340451 -1.82418e-05 -3.149131e-24)
(-0.0001123381 2.915682e-06 -5.53968e-27)
(-0.0001303889 -1.281884e-05 -5.022508e-27)
(-0.0001172164 -5.617214e-06 1.365273e-27)
(-9.130067e-05 4.862525e-06 2.74655e-27)
(-0.0001317387 -1.006018e-05 9.885653e-25)
(-0.0001130451 -7.324328e-06 3.916555e-27)
(-0.0001558652 -1.735711e-05 -2.681145e-26)
(-0.0001672984 -1.823187e-05 -7.363336e-29)
(-0.0001517336 -2.396621e-05 -1.232174e-28)
(-0.0001672617 -2.879087e-05 4.682188e-27)
(-0.0001466301 -2.772644e-05 -8.325219e-27)
(-0.000160798 -3.756614e-05 0)
(-0.000143699 -2.654668e-05 -8.069295e-27)
(-0.0001568957 -4.233906e-05 -8.511234e-24)
(-0.0001355456 -2.106395e-05 5.23251e-25)
(-0.000154799 -3.97386e-05 -3.277828e-28)
(-0.0001438256 -3.291975e-05 8.087624e-27)
(-0.0001118237 -2.054516e-05 -2.81905e-24)
(-0.0001487043 -1.628935e-05 -1.053468e-24)
(-0.0001257089 -1.099323e-05 7.582195e-25)
(-0.0001788875 -2.970048e-05 4.760726e-27)
(-0.0001895067 -2.90309e-05 5.265943e-27)
(-0.0001765775 -4.247248e-05 4.806823e-27)
(-0.0001925314 -4.669801e-05 3.305544e-24)
(-0.0001713934 -5.232812e-05 -5.07938e-27)
(-0.0001867412 -6.247321e-05 3.606124e-28)
(-0.0001684295 -5.59691e-05 -1.831811e-24)
(-0.0001823732 -7.340529e-05 -4.125849e-27)
(-0.0001638972 -5.2178e-05 1.272166e-23)
(-0.0001833449 -7.366014e-05 -1.663247e-24)
(-0.0001875684 -5.620392e-05 9.913499e-27)
(-0.0001430341 -5.0158e-05 -5.125913e-24)
(-0.0001665178 -2.457814e-05 -1.148427e-24)
(-0.0001383258 -1.571854e-05 4.258265e-27)
(-0.0002032785 -4.610585e-05 1.057493e-26)
(-0.0002124294 -4.305532e-05 4.911489e-25)
(-0.0002028561 -6.682963e-05 5.635395e-27)
(-0.0002188064 -6.980199e-05 -4.865911e-28)
(-0.0001978831 -8.37305e-05 1.173789e-24)
(-0.000214249 -9.347917e-05 1.791349e-28)
(-0.000197117 -9.105276e-05 1.389816e-24)
(-0.000212893 -0.0001084369 7.052113e-27)
(-0.0002067059 -7.836753e-05 5.973557e-24)
(-0.0002286273 -0.0001041739 -2.627596e-27)
(-0.0002897102 -6.002615e-05 3.142239e-27)
(-0.0002181594 -5.79266e-05 1.903806e-23)
(-0.0001839276 -3.502066e-05 -5.698775e-27)
(-0.000149674 -2.155124e-05 -4.908539e-27)
(-0.0002280816 -6.696148e-05 4.324343e-25)
(-0.0002342227 -6.04882e-05 1.029878e-23)
(-0.000230326 -9.664728e-05 -5.683834e-25)
(-0.0002456961 -9.795688e-05 2.983604e-25)
(-0.0002294435 -0.00011844 5.907344e-27)
(-0.0002461695 -0.0001287656 -1.262316e-26)
(-0.0002447285 -0.0001220046 3.184493e-24)
(-0.0002617528 -0.0001372694 5.092257e-24)
(-0.0003114604 -8.884003e-05 6.204134e-28)
(-0.0003461361 -0.0001229049 -7.065291e-27)
(-0.0006362672 -4.864526e-05 3.160018e-26)
(-0.0005003493 8.300984e-06 -2.234611e-26)
(-0.0001990535 -4.767771e-05 -1.713964e-26)
(-0.0001594439 -2.853695e-05 6.920506e-24)
(-0.0002517928 -9.172877e-05 3.242816e-24)
(-0.0002522979 -8.122323e-05 -1.21873e-26)
(-0.0002617245 -0.0001305703 -1.840658e-26)
(-0.0002727247 -0.0001303073 -5.921977e-27)
(-0.0002786547 -0.0001479956 -5.677965e-27)
(-0.0002923513 -0.0001654892 8.72529e-25)
(-0.0003640519 -0.0001397725 1.260068e-23)
(-0.0003763831 -0.0001639792 -1.052887e-26)
(-0.0006684787 -9.172678e-05 2.304536e-26)
(-0.0007151019 -0.0001657189 -1.865585e-22)
(-0.00245563 -0.0002609743 -1.571206e-20)
(-0.001987314 -0.0005756286 4.069831e-22)
(-0.0002117578 -6.271738e-05 1.29381e-24)
(-0.0001677241 -3.644183e-05 2.769639e-28)
(-0.000272569 -0.0001195455 3.111675e-29)
(-0.0002667948 -0.0001034865 -1.714669e-29)
(-0.0003034059 -0.0001658313 -1.497851e-28)
(-0.0003047482 -0.0001647001 -9.305119e-29)
(-0.0003919996 -0.0001828416 -1.764948e-26)
(-0.0003901316 -0.0002046759 1.007575e-23)
(-0.0007326233 -0.000197369 -3.88418e-26)
(-0.0006915503 -0.0002363666 -2.417824e-22)
(-0.002441356 -0.001643453 1.750842e-21)
(-0.002523405 -0.0006112827 -3.744342e-20)
(-0.007709914 -0.0007521504 3.854037e-19)
(-0.006048115 -0.00744371 -8.706263e-19)
(-0.0002220709 -7.802883e-05 5.399895e-27)
(-0.0001743127 -4.441491e-05 -1.592605e-23)
(-0.0002979021 -0.0001483089 -1.004452e-24)
(-0.0002844544 -0.0001248042 -4.770194e-29)
(-0.0003898718 -0.0002038332 1.780663e-26)
(-0.0003653305 -0.0001969893 -2.065707e-28)
(-0.0006957291 -0.0002641831 1.633973e-22)
(-0.0006231178 -0.0002731629 8.21152e-27)
(-0.002325734 -0.001988726 -5.50775e-20)
(-0.002132289 -0.0007914869 6.613938e-19)
(-0.006340219 -0.01014022 5.540087e-19)
(-0.007532823 -0.001953105 -2.557363e-18)
(-0.01396788 -0.001158685 -3.410768e-18)
(-0.008651577 -0.02596241 -4.230616e-18)
(-0.000235803 -9.193572e-05 5.655544e-27)
(-0.0001813105 -4.971909e-05 5.656315e-27)
(-0.0003510617 -0.0001738463 -1.145556e-28)
(-0.0003178926 -0.0001363212 1.388675e-29)
(-0.0005945932 -0.000268004 -2.386861e-23)
(-0.0005112811 -0.000269624 1.082142e-26)
(-0.001750132 -0.001756213 -1.111003e-21)
(-0.001436979 -0.0007107516 -5.906924e-20)
(-0.005927381 -0.01028622 1.048689e-18)
(-0.005781559 -0.00244432 1.829963e-18)
(-0.009424126 -0.02852511 2.57481e-18)
(-0.01508917 -0.003939821 -1.158521e-17)
(-0.01926544 -0.001633123 -8.421911e-20)
(-0.009206932 -0.05484509 5.202159e-18)
(-0.0002619817 -9.452292e-05 1.385924e-29)
(-0.0001857573 -4.224552e-05 0)
(-0.0004777446 -0.0002335223 -9.250464e-24)
(-0.0003891851 -0.0001654562 -1.357088e-26)
(-0.001183867 -0.001169937 1.412194e-20)
(-0.000944132 -0.0005824351 -1.242592e-20)
(-0.003902646 -0.009336467 3.697337e-20)
(-0.003935583 -0.002126744 -8.642556e-19)
(-0.008118956 -0.02785927 -1.548557e-18)
(-0.01093932 -0.004506451 4.5779e-18)
(-0.01294914 -0.0545564 -2.508219e-17)
(-0.01798105 -0.003893589 -1.608463e-17)
(-0.03056036 -0.004622452 2.678771e-17)
(-0.009773482 -0.09103717 -1.562336e-17)
(-0.0003103633 -0.0001129109 -1.350756e-26)
(-0.0001928132 -4.521326e-05 6.063231e-27)
(-0.000772739 -0.0005147439 1.795709e-23)
(-0.000553421 -0.0002801367 1.806501e-23)
(-0.002554749 -0.005700806 1.950839e-18)
(-0.002202911 -0.001426702 1.159601e-19)
(-0.006119191 -0.02452737 -3.377537e-18)
(-0.008724559 -0.004575044 1.290582e-18)
(-0.008678769 -0.0525091 6.050308e-18)
(-0.01603554 -0.005725539 -2.531824e-18)
(-0.0100303 -0.08809765 -4.038524e-17)
(-0.02190288 -0.003856044 3.327015e-18)
(-0.03007267 -0.002618754 9.101794e-18)
(-0.01953607 -0.1325914 -3.463753e-17)
(-0.0004314391 -0.0002112594 -9.540952e-25)
(-0.0002015805 -5.52565e-05 -3.664465e-23)
(-0.001420665 -0.00268881 -9.190478e-21)
(-0.001107782 -0.0005806551 -6.594648e-20)
(-0.004091325 -0.01648546 -8.619073e-19)
(-0.004669576 -0.002918582 2.37161e-19)
(-0.008164959 -0.04363606 -2.064528e-18)
(-0.01174633 -0.005924524 -4.735268e-18)
(-0.008649635 -0.08081638 7.885362e-19)
(-0.02355275 -0.007043086 2.554148e-17)
(-0.009366787 -0.1265642 1.086114e-17)
(-0.02773891 -0.004115532 2.096873e-17)
(-0.03825756 -0.003410207 3.079801e-17)
(-0.01177803 -0.1804533 2.016824e-17)
(-0.0006148674 -0.0005336706 1.187686e-22)
(-0.0002576915 -0.0001128994 -6.397632e-21)
(-0.00226669 -0.009126403 -1.116914e-19)
(-0.002227013 -0.0012325 -7.124869e-19)
(-0.005017836 -0.03237612 1.142724e-19)
(-0.007708639 -0.004560619 5.359181e-18)
(-0.007181657 -0.06623305 8.398384e-19)
(-0.01489377 -0.006281248 1.596856e-18)
(-0.01165226 -0.1108625 -1.117887e-17)
(-0.02226679 -0.004960788 -3.465341e-18)
(-0.01590229 -0.1642739 1.931705e-18)
(-0.0308672 -0.003665639 6.688821e-18)
(-0.06317493 -0.01089316 3.886416e-18)
(-0.01397176 -0.229134 -1.151904e-16)
(-0.0009034219 -0.002483587 3.445167e-20)
(-0.0005967722 -0.000311621 1.241107e-19)
(-0.002880609 -0.01905651 -2.961895e-19)
(-0.003858695 -0.002322055 4.376772e-19)
(-0.005039059 -0.05010519 3.972253e-19)
(-0.01043894 -0.005595543 3.55596e-18)
(-0.006091706 -0.09170812 6.194575e-18)
(-0.01790245 -0.005979325 6.868847e-20)
(-0.007454673 -0.1432513 -1.813083e-17)
(-0.02610818 -0.004632068 5.046304e-18)
(-0.01080827 -0.2038302 5.179431e-17)
(-0.03625265 -0.003718699 3.609963e-17)
(-0.05202534 -0.003896336 4.742237e-17)
(-0.02584754 -0.2743125 -1.376833e-16)
(-0.00122912 -0.006744217 -8.420452e-22)
(-0.001117634 -0.0006550774 7.44447e-20)
(-0.003102398 -0.03021124 5.063368e-19)
(-0.005470954 -0.003452455 2.352596e-18)
(-0.004443711 -0.06752085 2.411802e-18)
(-0.01274332 -0.005948626 3.943971e-18)
(-0.005094814 -0.1161637 6.680078e-18)
(-0.02077122 -0.005521237 6.036235e-19)
(-0.006425292 -0.1757346 1.18746e-17)
(-0.03061982 -0.004599624 1.025589e-18)
(-0.009426166 -0.2444081 -2.097639e-17)
(-0.04263643 -0.004079791 9.751937e-18)