/*--------------------------------*- C++ -*----------------------------------*\
| =========                 |                                                 |
| \\      /  F ield         | OpenFOAM: The Open Source CFD Toolbox           |
|  \\    /   O peration     | Version:  2206                                  |
|   \\  /    A nd           | Website:  www.openfoam.com                      |
|    \\/     M anipulation  |                                                 |
\*---------------------------------------------------------------------------*/
FoamFile
{
    version     2.0;
    format      ascii;
    arch        "LSB;label=32;scalar=64";
    class       volVectorField;
    location    "2.2";
    object      ddtCorrDdt0(U.a);
}
// * * * * * * * * * * * * * * * * * * * * * * * * * * * * * * * * * * * * * //

dimensions      [0 1 -2 0 0 0 0];

internalField   nonuniform List<vector> 
13078
(
(0.0001057879 -0.0006611781 1.503673e-26)
(1.511508e-05 -0.0001525342 1.18621e-30)
(2.04507e-06 -4.760917e-05 -7.707168e-29)
(4.070732e-07 -1.346181e-05 0)
(1.648422e-07 -7.201628e-06 2.779264e-29)
(7.569666e-08 -5.212765e-06 3.440092e-29)
(3.136831e-09 -3.531662e-06 3.897192e-29)
(-0.0001597154 -0.0001510225 0)
(-7.572688e-05 -8.738535e-05 1.146891e-30)
(-1.622164e-05 -2.27467e-05 0)
(-5.90963e-06 -1.124987e-05 0)
(-2.805658e-06 -7.656005e-06 2.661405e-31)
(-1.558761e-06 -5.21553e-06 1.192065e-31)
(-1.005722e-06 -3.468516e-06 2.041428e-31)
(-3.34048e-05 -1.670585e-05 -8.240027e-29)
(-2.392364e-05 -1.937687e-05 6.076856e-29)
(-1.264971e-05 -1.276842e-05 -1.411544e-29)
(-7.324708e-06 -9.530562e-06 -4.772988e-29)
(-4.256584e-06 -6.689253e-06 -3.06025e-29)
(-2.660483e-06 -4.606882e-06 0)
(-1.806751e-06 -3.054975e-06 2.337883e-34)
(-1.233791e-05 -7.416532e-06 -4.740855e-29)
(-1.191119e-05 -7.350239e-06 1.079759e-28)
(-9.707023e-06 -7.929307e-06 9.374437e-29)
(-6.781631e-06 -6.671848e-06 4.181784e-29)
(-4.585874e-06 -5.034842e-06 -1.299419e-30)
(-3.19595e-06 -3.586693e-06 0)
(-2.323412e-06 -2.37111e-06 -5.165539e-31)
(-5.100707e-06 -2.269435e-06 9.832877e-32)
(-7.559594e-06 -3.798309e-06 6.79314e-29)
(-7.088961e-06 -4.416072e-06 1.2805e-28)
(-5.719299e-06 -4.088489e-06 1.207505e-28)
(-4.395889e-06 -3.329626e-06 -1.534568e-29)
(-3.35966e-06 -2.43297e-06 2.642776e-33)
(-2.604879e-06 -1.548131e-06 -4.372949e-29)
(-3.233047e-06 -7.843001e-07 0)
(-5.372016e-06 -1.713305e-06 -8.056478e-31)
(-5.46525e-06 -2.196405e-06 1.335063e-30)
(-4.837557e-06 -2.172393e-06 7.464904e-29)
(-4.06868e-06 -1.824778e-06 -4.640229e-30)
(-3.35457e-06 -1.315375e-06 4.245363e-29)
(-2.744608e-06 -6.941372e-07 9.825248e-29)
(-2.887271e-06 -2.611652e-07 0)
(-4.573243e-06 -6.082647e-07 1.020135e-28)
(-4.668363e-06 -8.341499e-07 1.206697e-28)
(-4.312382e-06 -8.236006e-07 3.143343e-29)
(-3.812797e-06 -6.305579e-07 7.900171e-29)
(-3.313642e-06 -2.973227e-07 -5.87816e-30)
(-2.831844e-06 1.378062e-07 0)
(-3.034885e-06 -2.925418e-08 -1.995351e-28)
(-4.481072e-06 5.447971e-09 1.217954e-28)
(-4.416306e-06 1.463829e-08 1.168844e-28)
(-4.098104e-06 1.197395e-07 0)
(-3.697557e-06 2.925741e-07 2.020772e-28)
(-3.310816e-06 5.634044e-07 -6.431258e-30)
(-2.925156e-06 9.31846e-07 -7.289364e-30)
(-3.385882e-06 9.791337e-08 -2.366617e-32)
(-4.763661e-06 3.848942e-07 -2.870044e-28)
(-4.522723e-06 5.837084e-07 -1.413149e-28)
(-4.135098e-06 8.062667e-07 -4.837034e-30)
(-3.735488e-06 1.021091e-06 4.729352e-28)
(-3.388941e-06 1.290617e-06 -7.073966e-30)
(-3.05355e-06 1.647126e-06 0)
(-3.853293e-06 1.810157e-07 2.742147e-28)
(-5.272553e-06 6.497269e-07 -3.3514e-28)
(-4.869082e-06 1.002632e-06 -1.61138e-28)
(-4.371695e-06 1.341781e-06 3.052642e-28)
(-3.919994e-06 1.623606e-06 1.819209e-31)
(-3.567011e-06 1.926592e-06 0)
(-3.244171e-06 2.302234e-06 0)
(-4.41087e-06 2.432487e-07 0)
(-5.944901e-06 8.579319e-07 0)
(-5.392485e-06 1.342258e-06 -3.7365e-28)
(-4.770684e-06 1.793064e-06 3.547082e-28)
(-4.238497e-06 2.152479e-06 -2.10129e-31)
(-3.849727e-06 2.508925e-06 0)
(-3.512984e-06 2.926612e-06 0)
(-5.053758e-06 2.957885e-07 0)
(-6.756778e-06 1.040533e-06 4.477448e-28)
(-6.063711e-06 1.644764e-06 -4.310686e-28)
(-5.310224e-06 2.204098e-06 -4.025747e-28)
(-4.681023e-06 2.646693e-06 3.847906e-28)
(-4.236729e-06 3.069334e-06 0)
(-3.86685e-06 3.546305e-06 -3.222289e-28)
(-5.785011e-06 3.449103e-07 0)
(-7.702635e-06 1.215635e-06 5.173013e-28)
(-6.870935e-06 1.936399e-06 5.314238e-30)
(-5.979518e-06 2.605082e-06 -4.704908e-28)
(-5.244369e-06 3.136993e-06 4.32665e-28)
(-4.727892e-06 3.634898e-06 -3.910148e-28)
(-4.309207e-06 4.184443e-06 -3.303312e-31)
(-6.611914e-06 3.943521e-07 4.805602e-28)
(-8.786184e-06 1.394627e-06 0)
(-7.81025e-06 2.23464e-06 5.937565e-30)
(-6.7733e-06 3.018005e-06 8.280776e-30)
(-5.942748e-06 3.653506e-06 9.936093e-28)
(-5.329194e-06 4.231334e-06 -4.485091e-28)
(-4.843965e-06 4.862588e-06 3.968623e-28)
(-7.544315e-06 4.464327e-07 5.484447e-28)
(-1.001522e-05 1.584583e-06 0)
(-8.874645e-06 2.548782e-06 1.326263e-29)
(-7.671519e-06 3.453715e-06 -7.395265e-28)
(-6.810854e-06 4.229823e-06 3.945857e-28)
(-6.057163e-06 4.887607e-06 0)
(-5.477242e-06 5.601802e-06 -4.533554e-28)
(-8.594542e-06 5.026301e-07 0)
(-1.140402e-05 1.789466e-06 7.642225e-28)
(-1.007476e-05 2.879413e-06 0)
(-8.671688e-06 3.889623e-06 -7.179533e-28)
(-7.756898e-06 4.844561e-06 -2.611619e-29)
(-6.887039e-06 5.603294e-06 -3.055411e-29)
(-6.209123e-06 6.416053e-06 -5.52174e-28)
(-9.777725e-06 5.649444e-07 0)
(-1.297591e-05 2.018343e-06 1.73806e-27)
(-1.145364e-05 3.255137e-06 8.359386e-30)
(-9.837923e-06 4.39827e-06 1.152279e-29)
(-8.816573e-06 5.509564e-06 0)
(-7.824184e-06 6.386456e-06 0)
(-7.044644e-06 7.319295e-06 0)
(-1.111028e-05 6.342511e-07 8.054997e-28)
(-1.474998e-05 2.273977e-06 9.897751e-28)
(-1.301873e-05 3.67705e-06 1.881729e-29)
(-1.117603e-05 4.97625e-06 1.29544e-29)
(-1.001878e-05 6.249765e-06 0)
(-8.893449e-06 7.260611e-06 7.963926e-28)
(-7.994901e-06 8.328097e-06 8.723604e-29)
(-1.261024e-05 7.11151e-07 9.138008e-28)
(-1.674772e-05 2.558554e-06 1.122305e-27)
(-1.478089e-05 4.14681e-06 3.173327e-29)
(-1.267906e-05 5.619886e-06 2.914335e-29)
(-1.136783e-05 7.07436e-06 0)
(-1.014358e-05 8.258401e-06 8.638403e-28)
(-9.079879e-06 9.463228e-06 4.909243e-29)
(-1.429779e-05 7.958256e-07 1.036366e-27)
(-1.899347e-05 2.872902e-06 2.53676e-27)
(-1.675355e-05 4.663917e-06 1.217404e-27)
(-1.432837e-05 6.319932e-06 0)
(-1.281509e-05 7.968525e-06 -3.177571e-28)
(-1.165791e-05 9.430182e-06 -4.79563e-28)
(-1.033745e-05 1.075905e-05 -1.106567e-28)
(-1.619504e-05 8.878493e-07 1.174753e-27)
(-2.151484e-05 3.216173e-06 2.86827e-27)
(-1.895879e-05 5.22366e-06 2.743801e-27)
(-1.614137e-05 7.052692e-06 1.267204e-27)
(-1.435219e-05 8.839309e-06 -4.62932e-29)
(-1.322303e-05 1.067167e-05 1.114344e-27)
(-1.171081e-05 1.217488e-05 -9.188676e-28)
(-1.832721e-05 9.869882e-07 0)
(-2.434529e-05 3.590155e-06 1.616053e-27)
(-2.143624e-05 5.839159e-06 1.545113e-27)
(-1.821033e-05 7.882911e-06 2.950808e-27)
(-1.613601e-05 9.870269e-06 0)
(-1.491849e-05 1.200049e-05 1.263916e-27)
(-1.322512e-05 1.372561e-05 -1.515734e-30)
(-2.072145e-05 1.091729e-06 -1.501205e-27)
(-2.751964e-05 3.991715e-06 0)
(-2.421172e-05 6.504829e-06 0)
(-2.053608e-05 8.794977e-06 -4.511789e-29)
(-1.815937e-05 1.10344e-05 -1.618711e-27)
(-1.680716e-05 1.348434e-05 0)
(-1.5015e-05 1.554131e-05 1.267463e-27)
(-2.340857e-05 1.199801e-06 -3.392627e-27)
(-3.107844e-05 4.41566e-06 0)
(-2.731802e-05 7.213661e-06 0)
(-2.312923e-05 9.777012e-06 -1.834692e-27)
(-2.037006e-05 1.229672e-05 -3.458971e-27)
(-1.882199e-05 1.512255e-05 1.63746e-27)
(-1.729911e-05 1.7827e-05 0)
(-2.642259e-05 1.307868e-06 -1.915343e-27)
(-3.506923e-05 4.854377e-06 -1.29525e-29)
(-3.080091e-05 7.95654e-06 -2.271354e-27)
(-2.6036e-05 1.081785e-05 -5.829908e-29)
(-2.282221e-05 1.361948e-05 -7.506093e-29)
(-2.100427e-05 1.675937e-05 1.831071e-27)
(-1.976075e-05 2.041727e-05 0)
(-2.980238e-05 1.410863e-06 0)
(-3.955121e-05 5.296573e-06 2.643797e-27)
(-3.472502e-05 8.725691e-06 -2.540677e-27)
(-2.934991e-05 1.194498e-05 0)
(-2.574058e-05 1.517688e-05 2.079998e-27)
(-2.374856e-05 1.888135e-05 -3.929297e-28)
(-2.266491e-05 2.347667e-05 -2.315779e-28)
(-3.359036e-05 1.499567e-06 2.43454e-27)
(-4.459781e-05 5.7181e-06 2.981701e-27)
(-3.91676e-05 9.486436e-06 -2.863276e-27)
(-3.314593e-05 1.311522e-05 0)
(-2.917004e-05 1.689961e-05 1.836745e-28)
(-2.709284e-05 2.138087e-05 3.213633e-31)
(-2.616721e-05 2.703823e-05 -2.604273e-28)
(-3.78279e-05 1.558975e-06 2.740682e-27)
(-5.031037e-05 6.076468e-06 3.357427e-27)
(-4.422848e-05 1.017152e-05 -3.228494e-27)
(-3.751181e-05 1.423306e-05 0)
(-3.314859e-05 1.863924e-05 0)
(-3.090417e-05 2.395493e-05 2.638277e-27)
(-2.989391e-05 3.052359e-05 -2.193412e-28)
(-4.255633e-05 1.565269e-06 3.08437e-27)
(-5.683062e-05 6.309447e-06 3.803346e-27)
(-5.005192e-05 1.067679e-05 0)
(-4.257313e-05 1.514318e-05 -3.265956e-27)
(-3.776093e-05 2.016097e-05 2.29286e-28)
(-3.516215e-05 2.616383e-05 5.667227e-27)
(-3.336497e-05 3.271774e-05 -9.471954e-28)
(-4.775045e-05 1.503299e-06 3.447194e-27)
(-6.440626e-05 6.329023e-06 0)
(-5.689936e-05 1.086933e-05 4.162553e-27)
(-4.855707e-05 1.566183e-05 -3.784848e-27)
(-4.32521e-05 2.130123e-05 3.637314e-27)
(-4.038162e-05 2.826412e-05 6.708283e-27)
(-3.816691e-05 3.589197e-05 3.051824e-27)
(-5.335843e-05 1.287631e-06 0)
(-7.28775e-05 6.044867e-06 0)
(-6.503749e-05 1.057049e-05 9.214435e-27)
(-5.582984e-05 1.553084e-05 0)
(-4.992999e-05 2.165934e-05 8.206485e-27)
(-4.6685e-05 2.951449e-05 3.794846e-27)
(-4.370112e-05 3.810359e-05 -3.444829e-27)
(-5.987248e-05 9.431053e-07 4.299773e-27)
(-8.237879e-05 5.321402e-06 -5.303629e-27)
(-7.510351e-05 9.577794e-06 -5.164916e-27)
(-6.517666e-05 1.450584e-05 0)
(-5.836907e-05 2.083397e-05 4.62852e-27)
(-5.456016e-05 2.934154e-05 0)
(-5.072747e-05 3.878568e-05 -3.035878e-27)
(-6.717449e-05 3.471033e-07 4.77481e-27)
(-9.289628e-05 3.775489e-06 -5.930676e-27)
(-8.635842e-05 7.572736e-06 -1.74491e-26)
(-7.730872e-05 1.218596e-05 -1.141905e-26)
(-6.940671e-05 1.839588e-05 4.876524e-27)
(-6.471884e-05 2.719619e-05 -4.128435e-28)
(-5.97134e-05 3.731487e-05 4.787908e-28)
(-7.546129e-05 -5.281938e-07 -7.997558e-30)
(-0.0001052215 1.374789e-06 -3.120259e-29)
(-9.915669e-05 3.731555e-06 -6.650712e-27)
(-9.127151e-05 7.849721e-06 -1.224907e-26)
(-8.365044e-05 1.35892e-05 6.671057e-27)
(-7.804469e-05 2.219684e-05 -9.05568e-28)
(-7.155627e-05 3.259583e-05 -2.11564e-27)
(-8.484605e-05 -1.74383e-06 8.54975e-30)
(-0.0001199709 -2.000127e-06 3.34858e-29)
(-0.0001147523 -1.714977e-06 -6.92288e-27)
(-0.0001077267 8.426195e-07 -4.458419e-27)
(-0.0001024577 5.523844e-06 3.844331e-27)
(-9.59305e-05 1.333688e-05 -5.259269e-27)
(-8.690378e-05 2.294057e-05 0)
(-9.533885e-05 -3.435385e-06 0)
(-0.000137103 -6.850083e-06 0)
(-0.0001332671 -9.810756e-06 -7.897829e-27)
(-0.0001264258 -1.064209e-05 -8.380609e-27)
(-0.0001230024 -7.601072e-06 -1.166165e-26)
(-0.0001187244 -1.33423e-06 -1.127613e-26)
(-0.0001061765 6.655901e-06 0)
(-0.0001068904 -5.75146e-06 1.875395e-29)
(-0.0001566207 -1.360806e-05 -7.128884e-29)
(-0.0001551084 -2.110193e-05 -2.46186e-28)
(-0.0001483515 -2.67902e-05 0)
(-0.0001448939 -2.856911e-05 -1.671707e-26)
(-0.0001424212 -2.423147e-05 1.160119e-27)
(-0.0001289912 -1.794747e-05 2.731007e-27)
(-0.0001193006 -8.904056e-06 7.810815e-27)
(-0.0001781479 -2.286483e-05 -7.597554e-29)
(-0.0001796279 -3.648746e-05 9.604837e-27)
(-0.0001735206 -4.834755e-05 0)
(-0.0001692539 -5.610098e-05 -1.018237e-26)
(-0.0001675582 -5.547047e-05 -1.834662e-27)
(-0.0001601591 -4.851411e-05 1.363989e-26)
(-0.0001321475 -1.308401e-05 8.50656e-27)
(-0.0002009884 -3.520658e-05 1.060781e-26)
(-0.0002055692 -5.690865e-05 1.054204e-26)
(-0.0002001371 -7.65936e-05 7.207296e-28)
(-0.0001956218 -9.065743e-05 1.908027e-27)
(-0.0001986233 -9.118373e-05 -6.472332e-27)
(-0.0002154424 -6.389758e-05 6.237904e-27)
(-0.0001444439 -1.835311e-05 0)
(-0.0002239781 -5.096457e-05 -1.148118e-26)
(-0.0002321654 -8.271589e-05 -1.152538e-26)
(-0.0002284858 -0.0001103553 -3.61812e-28)
(-0.0002303992 -0.0001262073 1.218803e-26)
(-0.0002591287 -0.0001171678 1.205245e-27)
(-0.0003669232 -5.634118e-05 0)
(-0.0001546762 -2.470905e-05 -9.77533e-27)
(-0.0002442616 -7.001489e-05 -2.464266e-26)
(-0.0002594268 -0.0001134378 -1.182611e-26)
(-0.0002639908 -0.000147219 -2.490771e-26)
(-0.0002932922 -0.0001483338 1.352393e-26)
(-0.000434932 -0.0001287761 -1.529833e-26)
(-0.0009043613 -4.21344e-05 6.180897e-26)
(-0.000163897 -3.233376e-05 -1.034494e-26)
(-0.0002598121 -9.221677e-05 6.141405e-29)
(-0.0002856667 -0.0001471838 0)
(-0.0003213878 -0.0001842061 -3.018065e-28)
(-0.000461177 -0.0001797877 -3.465243e-26)
(-0.001003163 -0.0002032363 -4.302033e-26)
(-0.003835245 -0.0004659428 -2.536708e-25)
(-0.0001710762 -4.050911e-05 1.088459e-26)
(-0.000273161 -0.0001146717 -9.542051e-29)
(-0.000322772 -0.0001817358 -1.837873e-28)
(-0.0004593376 -0.0002252433 3.64374e-26)
(-0.0009351571 -0.0002953345 -2.82561e-25)
(-0.003612211 -0.0009851306 6.767748e-25)
(-0.008660962 -0.0008067799 -9.672652e-25)
(-0.0001768547 -4.82641e-05 1.129444e-26)
(-0.0002949214 -0.0001348706 0)
(-0.0004072613 -0.0002121372 -2.292429e-28)
(-0.0007830694 -0.0003196098 -1.90699e-26)
(-0.00271522 -0.001202005 -5.589835e-25)
(-0.007972851 -0.002616098 5.172966e-24)
(-0.00907694 -0.0006200228 3.161572e-25)
(-0.0001848589 -5.110612e-05 0)
(-0.0003400025 -0.0001376989 2.788136e-29)
(-0.0006149042 -0.0003271579 2.188974e-26)
(-0.001740912 -0.001073604 5.279525e-26)
(-0.005821496 -0.003388035 -6.793847e-25)
(-0.008987518 -0.003168673 3.62347e-24)
(-0.007380697 -0.0004357996 -1.441905e-23)
(-0.0001856325 -3.339706e-05 0)
(-0.0004370609 -0.0001931881 -2.722838e-26)
(-0.001110108 -0.0008316326 2.214327e-25)
(-0.003746872 -0.003005589 4.662571e-25)
(-0.007517867 -0.004942969 -2.44969e-26)
(-0.007383032 -0.00285267 1.278737e-24)
(-0.005665421 -0.0003473637 -1.185972e-23)
(-0.0001988277 -5.692311e-05 1.211066e-26)
(-0.0006645567 -0.0003652036 -4.608349e-26)
(-0.002147898 -0.001924189 -7.299621e-26)
(-0.005613826 -0.005098493 -3.81324e-25)
(-0.007026924 -0.004898564 -9.799015e-25)
(-0.005560176 -0.002287617 -4.063668e-25)
(-0.004223956 -0.0002515073 -4.382964e-25)
(-0.0002027807 -5.348678e-05 4.082664e-26)
(-0.001025944 -0.0007600927 3.390255e-26)
(-0.003381461 -0.003648347 -3.894159e-25)
(-0.005819361 -0.005808482 2.840156e-25)
(-0.005404668 -0.003982378 -1.67585e-24)
(-0.004023015 -0.001679087 -3.961737e-25)
(-0.003154441 0.0001285864 -2.580745e-24)
(-0.0002673368 -0.0001690509 1.931793e-26)
(-0.001526396 -0.001569654 1.087715e-25)
(-0.003959036 -0.004893795 -5.633203e-25)
(-0.004847247 -0.005373871 1.004681e-24)
(-0.00375419 -0.003198455 -8.688035e-25)
(-0.002731401 -0.001298034 -6.756609e-25)
(-0.002236974 0.0005409548 -1.359909e-24)
(-0.0004067002 -0.0004164253 -2.751551e-26)
(-0.002005915 -0.002765908 -1.533832e-26)
(-0.003719794 -0.005305425 -5.400937e-25)
(-0.003599592 -0.004509627 6.472133e-25)
(-0.002569896 -0.002567735 2.356472e-25)
(-0.001886522 -0.000969444 -1.51228e-25)
(-0.001570885 0.000836736 -8.226288e-25)
(-0.0005500061 -0.0008025663 -5.984364e-28)
(-0.002108298 -0.00364379 -2.732523e-25)
(-0.003014812 -0.005056525 -7.998042e-25)
(-0.002542588 -0.003712667 -3.160978e-25)
(-0.001796882 -0.002078583 -3.989309e-25)
(-0.001381495 -0.0006187744 -9.975301e-27)
(-0.00116531 0.001184238 -9.940074e-26)
(-0.000568471 -0.001203576 3.266587e-26)
(-0.001756353 -0.003990522 1.961628e-25)
(-0.002124236 -0.004501272 3.560909e-25)
(-0.00169914 -0.003097885 8.790394e-25)
(-0.001248088 -0.001691815 1.242603e-24)
(-0.001016885 -0.0002330424 -3.425648e-26)
(-0.0008857843 0.00163346 -3.722642e-24)
(-0.0004761617 -0.001451446 4.019564e-26)
(-0.001219617 -0.003969429 2.451148e-25)
(-0.001323436 -0.004035171 -9.123255e-26)
(-0.001038542 -0.002738109 6.208592e-26)
(-0.0007821346 -0.001484599 1.050018e-25)
(-0.0006863432 -4.152937e-05 3.468876e-25)
(-0.0005929313 0.0020331 4.442037e-25)
(-0.0003028106 -0.001540255 4.236334e-27)
(-0.0006930455 -0.003763558 6.231023e-27)
(-0.0007140458 -0.003627126 -4.288244e-26)
(-0.000551115 -0.002426822 -8.988429e-26)
(-0.0004256689 -0.001253858 -1.472225e-25)
(-0.0003860506 0.0002506935 -3.54532e-25)
(-0.0002795251 0.002607567 -8.23029e-26)
(-9.421559e-05 -0.001484176 -6.837548e-27)
(-0.0001991104 -0.003486881 -3.349992e-26)
(-0.000201586 -0.003286858 -9.019099e-26)
(-0.0001494381 -0.002148687 -2.597736e-25)
(-0.0001124804 -0.0009708139 -1.459131e-25)
(-8.046748e-05 0.0007013971 -4.185798e-25)
(3.307396e-05 0.003446705 -3.326671e-25)
(0.0001097825 -0.001303093 7.907811e-27)
(0.0002779529 -0.003186871 4.763919e-26)
(0.0002905228 -0.003027254 2.680777e-25)
(0.0002425443 -0.001912713 2.727739e-26)
(0.0002073046 -0.0006661781 -5.624971e-25)
(0.0002115112 0.001213464 -6.484428e-25)
(0.0002567338 0.004282738 3.686908e-25)
(0.00024388 -0.001025413 -1.050252e-27)
(0.0006916973 -0.002852398 5.03848e-26)
(0.0007917046 -0.00287235 1.874459e-25)
(0.0006657279 -0.001774775 2.073703e-25)
(0.0005485901 -0.0004697106 -3.122879e-25)
(0.000490909 0.001478687 -8.050147e-25)
(0.0004046538 0.004569541 -2.40725e-25)
(0.0002863771 -0.0007224955 -4.321111e-26)
(0.0009637638 -0.002460637 -2.053269e-26)
(0.001265482 -0.002825551 1.182496e-25)
(0.001111024 -0.001809527 1.073514e-25)
(0.0008897957 -0.0004902432 -2.032916e-25)
(0.0007498953 0.001365805 -2.483121e-25)
(0.0005621688 0.004200736 -1.789418e-26)
(0.0002708123 -0.0004400075 2.129643e-26)
(0.001086974 -0.001949524 -1.251503e-25)
(0.001706654 -0.002774778 7.038432e-26)
(0.001630438 -0.001945524 -1.586559e-26)
(0.00130286 -0.0005666217 -4.892601e-25)
(0.001063837 0.001245908 -5.078383e-25)
(0.0008358002 0.003860287 -1.508741e-25)
(0.0002308443 -0.0002174899 3.9317e-26)
(0.00105251 -0.001350518 -1.477567e-25)
(0.002067091 -0.00259813 2.950153e-25)
(0.002300572 -0.002109983 6.991677e-25)
(0.001931307 -0.0006046553 5.635597e-25)
(0.001586467 0.001307192 5.01988e-25)
(0.001330766 0.003849579 3.885402e-24)
(0.0002001526 -8.436606e-05 4.199235e-27)
(0.0008950391 -0.000785704 -5.159417e-26)
(0.002211135 -0.002229528 8.87853e-25)
(0.003056686 -0.002274714 7.016479e-25)
(0.0028291 -0.000681585 4.357112e-26)
(0.002383812 0.001334312 -5.33545e-25)
(0.002036554 0.003672549 2.554375e-24)
(0.000201066 -1.296852e-05 8.035734e-26)
(0.0007046145 -0.0004695134 1.570114e-25)
(0.001880076 -0.001681554 6.699809e-25)
(0.003367757 -0.002446866 3.261818e-25)
(0.003594971 -0.001127537 -5.528459e-26)
(0.00310987 0.0009408448 -1.644556e-24)
(0.00268224 0.003238098 -1.601627e-24)
(0.0001939529 -3.033775e-05 5.895106e-26)
(0.0005267999 -0.0002235088 1.228319e-26)
(0.001387134 -0.001013594 2.55685e-25)
(0.003233134 -0.002212481 7.748388e-25)
(0.004317457 -0.001478159 1.907283e-25)
(0.003974637 0.0006632331 5.202868e-25)
(0.00347923 0.003043963 9.892889e-25)
(0.0001759 -2.611223e-05 2.977207e-26)
(0.0004011144 -0.0001386397 4.001453e-26)
(0.0009094478 -0.0005538615 1.217223e-25)
(0.002576967 -0.001598545 1.35882e-25)
(0.004744481 -0.001623993 7.808642e-25)
(0.004979274 0.0004916851 9.075984e-25)
(0.004371285 0.002949871 1.464353e-24)
(0.0001616482 -3.853488e-05 3.764672e-26)
(0.0003333679 -0.0001045022 1.797393e-25)
(0.0005886423 -0.0002318856 -2.992285e-26)
(0.001667039 -0.0008266617 2.890669e-25)
(0.004498627 -0.001445723 1.947878e-24)
(0.005897125 0.0003044887 -7.107297e-25)
(0.005222674 0.002721755 -2.381358e-24)
(0.0001909654 -4.02502e-05 1.111762e-26)
(0.0002942378 -0.0001068772 9.765215e-26)
(0.0004182146 -0.0001721646 -2.848099e-26)
(0.0009220734 -0.0002898449 -2.495375e-25)
(0.003157968 -0.0009153762 -1.255905e-24)
(0.006116985 1.884917e-06 2.110881e-25)
(0.006045784 0.00253312 -1.336661e-24)
(0.0001749729 -3.370502e-05 0)
(0.0002888565 -9.581329e-05 -7.245016e-27)
(0.0003546932 -0.0001353907 3.748736e-26)
(0.0005907775 -0.0001639983 1.788995e-25)
(0.001658151 -0.0003854577 4.105829e-26)
(0.005202322 -0.0001525608 7.355518e-25)
(0.006854325 0.00238007 -4.465848e-24)
(0.0001719943 -2.822455e-05 0)
(0.0002731376 -8.125301e-05 1.386904e-28)
(0.0003133823 -0.0001256027 -2.302128e-26)
(0.0004070009 -0.0001407092 1.043317e-26)
(0.0008024673 -0.0001270759 -4.437839e-26)
(0.002974442 -0.0001271578 -8.561468e-25)
(0.006778744 0.001749919 -4.206384e-24)
(0.0001683325 -2.322947e-05 1.066258e-26)
(0.0002617977 -6.532421e-05 0)
(0.0002802861 -0.0001044443 0)
(0.0003200813 -0.0001276107 1.366854e-26)
(0.0004683849 -0.0001115362 -1.045274e-25)
(0.001043868 -4.698303e-05 -7.071468e-26)
(0.004367484 0.0007713173 -7.273615e-25)
(0.0001611617 -1.85754e-05 1.013085e-26)
(0.0002530402 -5.235274e-05 1.156077e-28)
(0.0002680957 -8.473111e-05 2.104629e-28)
(0.0002787234 -0.0001079932 2.073308e-27)
(0.0003277464 -0.0001015488 -1.330901e-25)
(0.0005198219 -5.042055e-05 -1.176048e-25)
(0.001252287 0.0001285886 -3.807664e-25)
(0.0001509779 -1.40232e-05 0)
(0.0002373546 -3.897137e-05 -1.212078e-26)
(0.0002520783 -6.398044e-05 0)
(0.0002550743 -8.705671e-05 6.617614e-28)
(0.0002638804 -9.606264e-05 8.93016e-28)
(0.0003197709 -6.869838e-05 -1.057077e-26)
(0.0005142538 2.744074e-05 2.762562e-26)
(0.0001398241 -1.042412e-05 0)
(0.0002190208 -2.784048e-05 1.128993e-26)
(0.0002300694 -4.576908e-05 -1.134465e-26)
(0.0002283207 -6.277417e-05 0)
(0.0002285826 -7.378593e-05 1.805104e-27)
(0.0002415091 -7.092278e-05 -6.167563e-27)
(0.0002913064 -3.074227e-05 -2.282081e-26)
(0.0001283065 -7.384563e-06 0)
(0.0001973903 -1.889876e-05 3.134835e-26)
(0.0002046834 -3.068241e-05 1.399095e-29)
(0.0002029885 -4.135653e-05 2.167717e-26)
(0.0002017456 -4.858154e-05 1.83248e-27)
(0.0002030265 -4.826206e-05 -9.736417e-27)
(0.0002124532 -3.360229e-05 1.039705e-26)
(0.0001159374 -5.045068e-06 -7.618235e-27)
(0.0001745756 -1.188499e-05 9.672792e-27)
(0.0001786618 -1.880642e-05 -2.860738e-30)
(0.0001764693 -2.44467e-05 1.806237e-26)
(0.0001752748 -2.692864e-05 0)
(0.0001770653 -2.345479e-05 0)
(0.0001785987 -1.227909e-05 1.382108e-26)
(0.0001037564 -3.295691e-06 -6.940936e-27)
(0.0001531644 -6.600754e-06 8.761502e-27)
(0.0001539542 -9.854368e-06 -8.555704e-27)
(0.0001501084 -1.180192e-05 -8.360943e-27)
(0.0001493712 -1.006213e-05 0)
(0.0001518591 -2.076188e-06 0)
(0.0001491538 7.575435e-06 9.627155e-27)
(9.243028e-05 -1.987652e-06 6.334261e-27)
(0.0001337343 -2.792819e-06 8.166267e-27)
(0.0001311361 -3.601064e-06 2.234879e-28)
(0.0001255222 -2.852753e-06 -7.191306e-27)
(0.0001247387 1.592169e-06 -2.34189e-27)
(0.000125182 1.012757e-05 1.106041e-26)
(0.0001174435 1.930172e-05 -5.196878e-27)
(8.212582e-05 -1.01791e-06 5.755098e-27)
(0.000116358 -9.586982e-08 6.494085e-29)
(0.0001111794 8.87214e-07 -2.134058e-28)
(0.000104766 3.484653e-06 -3.040212e-28)
(0.0001026515 9.193039e-06 0)
(9.96353e-05 1.718084e-05 6.983454e-27)
(9.183195e-05 2.598995e-05 -5.619567e-27)
(7.301693e-05 -2.603579e-07 0)
(0.0001014023 1.928879e-06 1.19284e-28)
(9.499968e-05 4.273195e-06 2.01824e-28)
(8.811969e-05 8.258347e-06 -1.424769e-26)
(8.37015e-05 1.369265e-05 -2.72878e-27)
(7.857867e-05 2.130141e-05 -9.905943e-27)
(7.227832e-05 3.002346e-05 -3.887295e-27)
(6.484711e-05 3.022983e-07 1.432733e-29)
(8.866751e-05 3.402873e-06 5.602417e-29)
(8.179491e-05 6.598869e-06 0)
(7.419853e-05 1.097537e-05 1.578554e-29)
(6.751835e-05 1.63224e-05 -5.152405e-27)
(6.300763e-05 2.378142e-05 -4.741623e-27)
(5.81519e-05 3.234886e-05 9.319959e-28)
(5.767568e-05 7.454413e-07 -4.186398e-27)
(7.822722e-05 4.544967e-06 5.330886e-27)
(7.123036e-05 8.409075e-06 -9.366499e-27)
(6.276187e-05 1.266267e-05 1.08768e-26)
(5.581954e-05 1.795243e-05 -4.239527e-27)
(5.200532e-05 2.521377e-05 0)
(4.818485e-05 3.333109e-05 -8.423571e-28)
(5.138965e-05 1.062978e-06 -3.77126e-27)
(6.941287e-05 5.301942e-06 4.647296e-27)
(6.205227e-05 9.223576e-06 -4.518883e-27)
(5.299651e-05 1.34771e-05 0)
(4.707304e-05 1.871248e-05 4.030653e-27)
(4.4017e-05 2.566453e-05 0)
(4.115188e-05 3.332259e-05 -3.376908e-27)
(4.580486e-05 1.243977e-06 0)
(6.149067e-05 5.587505e-06 0)
(5.388031e-05 9.570427e-06 8.059112e-27)
(4.561322e-05 1.375638e-05 0)
(4.056675e-05 1.88043e-05 7.150835e-27)
(3.80295e-05 2.527086e-05 3.298975e-27)
(3.588928e-05 3.240381e-05 -2.987329e-27)
(4.101043e-05 1.369621e-06 3.018876e-27)
(5.444514e-05 5.657494e-06 0)
(4.732694e-05 9.585289e-06 3.511734e-27)
(3.9946e-05 1.361304e-05 -3.482932e-27)
(3.548867e-05 1.828299e-05 3.172006e-27)
(3.329834e-05 2.408397e-05 5.840371e-27)
(3.180165e-05 3.056472e-05 2.652597e-27)
(3.657766e-05 1.397331e-06 2.691271e-27)
(4.814662e-05 5.569654e-06 3.293445e-27)
(4.182527e-05 9.335457e-06 0)
(3.529569e-05 1.310482e-05 -3.1718e-27)
(3.131341e-05 1.729467e-05 -2.002739e-28)
(2.935872e-05 2.234835e-05 5.417285e-27)
(2.817245e-05 2.799548e-05 8.258039e-28)
(3.254879e-05 1.387392e-06 2.399631e-27)
(4.27327e-05 5.357983e-06 2.938982e-27)
(3.714374e-05 8.903275e-06 -2.824916e-27)
(3.134704e-05 1.235861e-05 0)
(2.777837e-05 1.607047e-05 0)
(2.611229e-05 2.058235e-05 2.304449e-27)
(2.554405e-05 2.627579e-05 -4.025937e-27)
(2.894044e-05 1.342342e-06 2.132299e-27)
(3.798533e-05 5.068356e-06 2.611255e-27)
(3.306003e-05 8.3574e-06 -2.506983e-27)
(2.791484e-05 1.14762e-05 0)
(2.469157e-05 1.469299e-05 -1.599454e-28)
(2.314734e-05 1.85184e-05 -2.811267e-31)
(2.259367e-05 2.343603e-05 2.26213e-28)
(2.57148e-05 1.276024e-06 0)
(3.378308e-05 4.735387e-06 2.316933e-27)
(2.945604e-05 7.75975e-06 -2.226447e-27)
(2.490372e-05 1.055966e-05 0)
(2.200018e-05 1.333625e-05 2.10919e-27)
(2.051124e-05 1.652243e-05 3.415437e-28)
(1.978459e-05 2.054219e-05 2.010937e-28)
(2.283534e-05 1.197573e-06 -1.679926e-27)
(3.004074e-05 4.384433e-06 1.127849e-29)
(2.62527e-05 7.151813e-06 -1.95529e-27)
(2.224933e-05 9.672575e-06 5.072066e-29)
(1.968613e-05 1.210973e-05 6.210116e-29)
(1.83349e-05 1.483905e-05 1.608311e-27)
(1.744642e-05 1.80738e-05 0)
(2.026537e-05 1.112699e-06 -2.978749e-27)
(2.669778e-05 4.030309e-06 0)
(2.339031e-05 6.554829e-06 0)
(1.989649e-05 8.841678e-06 -1.703037e-27)
(1.772146e-05 1.106068e-05 -3.155987e-27)
(1.659571e-05 1.354261e-05 1.441303e-27)
(1.544035e-05 1.596089e-05 0)
(1.797158e-05 1.024825e-06 -1.319729e-27)
(2.370657e-05 3.680413e-06 8.952368e-30)
(2.081956e-05 5.97215e-06 1.472541e-29)
(1.777284e-05 8.038513e-06 4.123562e-29)
(1.591854e-05 1.003115e-05 -1.323774e-27)
(1.494848e-05 1.220067e-05 0)
(1.353993e-05 1.406417e-05 1.120493e-27)
(1.592528e-05 9.369703e-07 1.059703e-30)
(2.102965e-05 3.341378e-06 1.443273e-27)
(1.850711e-05 5.411998e-06 1.387821e-27)
(1.584678e-05 7.274164e-06 2.602039e-27)
(1.424004e-05 9.057094e-06 0)
(1.336767e-05 1.095193e-05 1.11806e-27)
(1.202255e-05 1.251558e-05 -1.317486e-30)
(1.410064e-05 8.514714e-07 1.034095e-27)
(1.863507e-05 3.01889e-06 2.537574e-27)
(1.643022e-05 4.882869e-06 2.445671e-27)
(1.411681e-05 6.563106e-06 1.183911e-27)
(1.274154e-05 8.175765e-06 4.023424e-29)
(1.192468e-05 9.810046e-06 9.884472e-28)
(1.071487e-05 1.116447e-05 -9.273623e-28)
(1.24748e-05 7.701383e-07 9.156767e-28)
(1.649546e-05 2.717338e-06 2.242382e-27)
(1.457131e-05 4.392784e-06 1.076949e-27)
(1.258896e-05 5.924093e-06 0)
(1.143869e-05 7.41875e-06 2.760045e-28)
(1.05741e-05 8.728269e-06 4.166248e-28)
(9.512234e-06 9.919144e-06 9.618103e-29)
(1.102651e-05 6.93801e-07 8.105751e-28)
(1.45842e-05 2.436885e-06 9.885768e-28)
(1.289973e-05 3.933078e-06 -2.761372e-29)
(1.118683e-05 5.304263e-06 -2.535938e-29)
(1.019547e-05 6.630831e-06 0)
(9.251898e-06 7.698171e-06 7.706826e-28)
(8.399062e-06 8.774928e-06 -4.270991e-29)
(9.737165e-06 6.233461e-07 7.161572e-28)
(1.287915e-05 2.179771e-06 8.738502e-28)
(1.139925e-05 3.510361e-06 -1.638763e-29)
(9.899032e-06 4.727971e-06 -1.128202e-29)
(9.024146e-06 5.89674e-06 0)
(8.149568e-06 6.812995e-06 6.447065e-28)
(7.428279e-06 7.767502e-06 -7.597782e-29)
(8.589605e-06 5.590706e-07 -5.927416e-31)
(1.136049e-05 1.94654e-06 1.54502e-27)
(1.006024e-05 3.12702e-06 -7.287794e-30)
(8.744552e-06 4.205555e-06 -1.004661e-29)
(7.970773e-06 5.231993e-06 0)
(7.196553e-06 6.031274e-06 0)
(6.567997e-06 6.867166e-06 0)
(7.568477e-06 5.009214e-07 0)
(1.001038e-05 1.736524e-06 6.821911e-28)
(8.874738e-06 2.783391e-06 0)
(7.731708e-06 3.742539e-06 -6.068099e-28)
(7.033988e-06 4.631207e-06 2.280464e-29)
(6.352177e-06 5.326917e-06 2.66854e-29)
(5.802363e-06 6.057046e-06 -4.394055e-28)
(6.65968e-06 4.483918e-07 4.906009e-28)
(8.812677e-06 1.548391e-06 0)
(7.837141e-06 2.48065e-06 -1.159868e-29)
(6.857029e-06 3.34495e-06 -4.466072e-28)
(6.189412e-06 4.075439e-06 6.744961e-28)
(5.595852e-06 4.682011e-06 0)
(5.123122e-06 5.324962e-06 -4.132707e-28)
(5.84999e-06 4.000399e-07 4.311525e-28)
(7.747199e-06 1.375195e-06 0)
(6.90948e-06 2.19537e-06 -5.204976e-30)
(6.062373e-06 2.95135e-06 -7.260869e-30)
(5.405475e-06 3.557344e-06 8.994378e-28)
(4.923669e-06 4.092728e-06 -4.080935e-28)
(4.526853e-06 4.661534e-06 3.637094e-28)
(5.1287e-06 3.551629e-07 0)
(6.801242e-06 1.215164e-06 4.602795e-28)
(6.08217e-06 1.929771e-06 -4.672214e-30)
(5.350113e-06 2.584513e-06 -4.259501e-28)
(4.763795e-06 3.098581e-06 3.933145e-28)
(4.35783e-06 3.562311e-06 -3.575401e-28)
(4.014033e-06 4.057298e-06 -2.91139e-31)
(4.486826e-06 3.124832e-07 0)
(5.966551e-06 1.064335e-06 4.046897e-28)
(5.359594e-06 1.678883e-06 -3.904366e-28)
(4.736577e-06 2.238765e-06 -3.777666e-28)
(4.232775e-06 2.673805e-06 3.366029e-28)
(3.883421e-06 3.069264e-06 -1.706785e-29)
(3.579747e-06 3.496955e-06 -2.786601e-28)
(3.916618e-06 2.699773e-07 0)
(5.236638e-06 9.164221e-07 0)
(4.741385e-06 1.43277e-06 -3.396529e-28)
(4.223584e-06 1.900776e-06 3.237003e-28)
(3.798537e-06 2.261792e-06 -1.866911e-31)
(3.495429e-06 2.595023e-06 0)
(3.221531e-06 2.964527e-06 0)
(3.412321e-06 2.247671e-07 2.490934e-28)
(4.6096e-06 7.626968e-07 -3.049176e-28)
(4.230842e-06 1.177715e-06 -1.435741e-28)
(3.815916e-06 1.553266e-06 2.845074e-28)
(3.461948e-06 1.843067e-06 1.625122e-31)
(3.194562e-06 2.120705e-06 -1.394209e-29)
(2.938366e-06 2.442294e-06 -4.535806e-33)
(2.971649e-06 1.731632e-07 -2.137184e-32)
(4.090526e-06 5.908994e-07 -2.618283e-28)
(3.839494e-06 8.942727e-07 -1.230568e-28)
(3.524887e-06 1.172636e-06 4.3421e-30)
(3.230152e-06 1.393531e-06 4.492746e-28)
(2.983283e-06 1.624147e-06 6.351859e-30)
(2.728158e-06 1.90951e-06 0)