/*--------------------------------*- C++ -*----------------------------------*\
| =========                 |                                                 |
| \\      /  F ield         | OpenFOAM: The Open Source CFD Toolbox           |
|  \\    /   O peration     | Version:  2206                                  |
|   \\  /    A nd           | Website:  www.openfoam.com                      |
|    \\/     M anipulation  |                                                 |
\*---------------------------------------------------------------------------*/
FoamFile
{
    version     2.0;
    format      ascii;
    arch        "LSB;label=32;scalar=64";
    class       surfaceVectorField;
    location    "2.2";
    object      ddtCorrDdt0(Ufb);
}
// * * * * * * * * * * * * * * * * * * * * * * * * * * * * * * * * * * * * * //

dimensions      [0 1 -2 0 0 0 0];

internalField   nonuniform List<vector> 
26037
(
(-0.0009021852 0.00157718 5.577797e-21)
(-0.001384547 0.0006793916 -2.748195e-26)
(-0.0005415773 0.002049276 -3.079145e-21)
(-0.0007324253 0.001345366 5.068493e-23)
(-0.000512419 0.002607751 5.703536e-26)
(-0.0007910594 0.002150636 5.716488e-26)
(-0.0004927707 0.003284895 4.764341e-26)
(-0.0008431062 0.002940342 0)
(-0.0004489265 0.003996499 -6.393936e-23)
(-0.00082148 0.003674568 4.808954e-26)
(-0.0003886945 0.004657938 1.214739e-25)
(-0.0007451246 0.004362792 9.62597e-25)
(-0.0006478055 0.004998476 6.521556e-26)
(-0.0003160854 0.005252574 -2.5449e-22)
(-0.001364766 0.0006689395 4.540039e-28)
(-0.002047459 0.0003216744 -6.047317e-26)
(-0.001219937 0.00162718 4.583675e-28)
(-0.001747145 0.001132835 5.591544e-26)
(-0.001232594 0.00251162 0)
(-0.001677526 0.002069606 -2.609396e-26)
(-0.001207861 0.003322826 4.51968e-28)
(-0.001632487 0.002944888 -7.640523e-26)
(-0.001130283 0.004061889 6.566893e-28)
(-0.001540843 0.003740811 3.892241e-24)
(-0.001013863 0.004744819 5.612626e-28)
(-0.001413159 0.004469424 2.048644e-28)
(-0.001251299 0.00513057 2.3883e-24)
(-0.0008738013 0.005357602 7.359221e-26)
(-0.002285973 0.0007088991 -4.713239e-27)
(-0.002907892 0.0003810835 1.318649e-21)
(-0.002174602 0.001625235 3.025192e-26)
(-0.002744307 0.00122902 -5.430621e-22)
(-0.002084467 0.002547957 2.90639e-22)
(-0.002600041 0.002137906 1.226556e-25)
(-0.001983257 0.003396591 1.800969e-22)
(-0.002458995 0.003029787 -9.164834e-27)
(-0.001843763 0.004182748 -4.979196e-26)
(-0.002308505 0.003872091 -5.57852e-24)
(-0.001665637 0.004898489 3.890252e-31)
(-0.002114919 0.004641258 0)
(-0.001884571 0.005337491 -2.911289e-24)
(-0.001454484 0.005540089 -7.652562e-26)
(-0.003277942 0.0008464596 7.701846e-26)
(-0.003794001 0.0004449658 -8.572266e-26)
(-0.003141725 0.00175463 3.134601e-25)
(-0.00369319 0.001361152 1.563872e-22)
(-0.002978329 0.002669273 1.201587e-23)
(-0.003535992 0.002293538 3.469371e-22)
(-0.0028 0.00354551 6.626591e-26)
(-0.003338381 0.003198515 1.379442e-22)
(-0.0025979 0.004369574 -2.15858e-27)
(-0.00311441 0.004066137 -2.829925e-26)
(-0.002352423 0.005125412 -8.792089e-28)
(-0.002857263 0.004883861 4.414145e-30)
(-0.002553774 0.005622703 -7.359443e-26)
(-0.002065657 0.005802076 7.855275e-26)
(-0.004232753 0.0009485261 -3.844305e-25)
(-0.004771765 0.0004953378 1.90533e-28)
(-0.004104343 0.001903771 -4.332832e-24)
(-0.004681375 0.001488933 1.071364e-25)
(-0.003913575 0.002856154 3.982458e-25)
(-0.004509832 0.002476283 2.057358e-25)
(-0.003672345 0.003762605 -2.522382e-23)
(-0.004275089 0.003438354 3.201746e-22)
(-0.003395186 0.004624059 -2.540029e-22)
(-0.003983321 0.004342068 -1.839786e-22)
(-0.003081231 0.00542786 2.520837e-22)
(-0.003647647 0.005195046 6.867986e-26)
(-0.003267536 0.005988734 8.791504e-24)
(-0.002714545 0.006148368 -7.271508e-26)
(-0.005257844 0.001041414 -1.258504e-27)
(-0.005841871 0.0005432688 0)
(-0.005121478 0.002070454 7.003576e-24)
(-0.005743516 0.001625264 1.609139e-25)
(-0.004902049 0.0030912 -2.376217e-23)
(-0.005553652 0.002692274 1.928014e-25)
(-0.004613465 0.004058579 2.698543e-23)
(-0.005275146 0.003721817 1.693179e-25)
(-0.004259516 0.004962244 6.16614e-26)
(-0.004923056 0.004702187 4.143743e-22)
(-0.003858424 0.005808345 -3.005938e-22)
(-0.00450702 0.005600339 6.024598e-26)
(-0.004034935 0.006435241 1.643799e-25)
(-0.003410698 0.00658202 -3.113564e-22)
(-0.006374348 0.001138804 1.62088e-25)
(-0.007012341 0.0005950191 -3.961032e-25)
(-0.00621759 0.002263085 3.528787e-25)
(-0.006904066 0.001778726 5.548953e-22)
(-0.005968192 0.003354442 -1.404095e-22)
(-0.006683591 0.002942016 5.023171e-22)
(-0.005628153 0.004406561 1.775522e-25)
(-0.006364732 0.004061973 4.935053e-26)
(-0.005205261 0.005387491 2.946407e-23)
(-0.00594445 0.005127524 4.537161e-25)
(-0.004711098 0.006286461 -9.523992e-27)
(-0.005449658 0.006108421 -1.990292e-26)
(-0.004878175 0.006993774 -1.183121e-26)
(-0.004160524 0.007108086 3.120924e-27)
(-0.0075962 0.00125043 -2.025343e-25)
(-0.008298659 0.0006547696 -1.387307e-21)
(-0.007418672 0.002477311 3.799428e-25)
(-0.008171274 0.0019576 -2.62627e-25)
(-0.007129862 0.003669841 1.881419e-25)
(-0.007919248 0.003230472 -3.913633e-26)
(-0.006726632 0.004826168 3.281472e-25)
(-0.007549468 0.00446308 -7.598519e-27)
(-0.006231397 0.005894981 3.153027e-25)
(-0.007057864 0.005630201 1.127692e-21)
(-0.005652849 0.006874854 3.825472e-23)
(-0.006479076 0.006704232 -2.182247e-26)
(-0.005809461 0.007677295 -1.191301e-26)
(-0.00499103 0.007752418 9.298551e-26)
(-0.008938596 0.001377998 -4.561605e-25)
(-0.009717494 0.0007249735 1.606062e-21)
(-0.008734597 0.002730449 -6.816612e-25)
(-0.009569297 0.002165412 -1.600858e-21)
(-0.008401937 0.004044192 2.459156e-23)
(-0.009281726 0.003569636 -7.497359e-22)
(-0.00793277 0.005316288 7.599209e-25)
(-0.008853045 0.004930013 4.755271e-25)
(-0.007356465 0.006491114 3.695036e-23)
(-0.008283435 0.006217245 1.316533e-21)
(-0.006682095 0.007567236 -1.143278e-26)
(-0.00761177 0.007400935 -1.142925e-26)
(-0.006833832 0.008472707 0)
(-0.005914604 0.008530319 -1.346739e-25)
(-0.01042383 0.001525641 1.181018e-26)
(-0.01128969 0.0008056495 5.440267e-25)
(-0.01018979 0.003025964 -7.895838e-25)
(-0.01112151 0.00240419 -5.325133e-25)
(-0.009806724 0.004478884 2.180841e-25)
(-0.01079003 0.003961495 -8.52045e-25)
(-0.00926456 0.005886285 4.797974e-25)
(-0.01029671 0.005470501 1.616061e-21)
(-0.008598288 0.00718468 2.905162e-28)
(-0.009639808 0.00689745 -1.530191e-21)
(-0.007818016 0.008373477 0)
(-0.008865255 0.008208893 0)
(-0.007967655 0.009395741 0)
(-0.006929479 0.009437151 -1.909116e-25)
(-0.01207438 0.001698016 0)
(-0.01304087 0.0008975508 0)
(-0.01180602 0.003365932 -5.947222e-25)
(-0.01284862 0.00267821 7.114392e-25)
(-0.01136579 0.004980464 -4.742754e-26)
(-0.01246777 0.004412532 -2.01146e-21)
(-0.0107424 0.006544014 5.563567e-25)
(-0.01190207 0.006092664 -7.547378e-26)
(-0.009975995 0.007985952 -3.356158e-28)
(-0.01114814 0.007680938 1.767238e-21)
(-0.009078207 0.009305572 0)
(-0.01025895 0.009139977 0)
(-0.009228257 0.0104598 -5.300776e-25)
(-0.008055323 0.01048586 1.849311e-25)
(-0.01391486 0.001895579 7.111432e-25)
(-0.01499737 0.001002754 0)
(-0.01360721 0.003755479 2.601264e-26)
(-0.01477632 0.002992287 2.396591e-21)
(-0.013103 0.005555841 -1.323481e-24)
(-0.01434054 0.004929564 -6.780331e-25)
(-0.01238897 0.007299254 -4.197669e-23)
(-0.01369371 0.006805488 -2.124657e-21)
(-0.01151094 0.008906769 6.182738e-25)
(-0.01283178 0.00857906 1.314067e-24)
(-0.010482 0.01037713 -5.298951e-25)
(-0.01181422 0.01020799 -6.364873e-25)
(-0.01063489 0.01168049 -1.666693e-21)
(-0.009309581 0.01169175 1.350301e-22)
(-0.01597294 0.002120818 8.21593e-25)
(-0.01718803 0.00112315 9.540791e-25)
(-0.01562069 0.00420114 -2.737931e-23)
(-0.01693443 0.003351356 8.217274e-25)
(-0.01504445 0.00621405 -7.259087e-25)
(-0.01643653 0.005520466 1.782995e-26)
(-0.01422958 0.008162437 -3.646197e-26)
(-0.01569768 0.007618851 -7.302254e-25)
(-0.01322694 0.009961146 5.819196e-26)
(-0.01471779 0.009603298 2.427048e-21)
(-0.01205074 0.01160395 -6.370358e-25)
(-0.01355441 0.01142874 -2.119356e-21)
(-0.01220882 0.0130755 1.904275e-21)
(-0.0107113 0.01307242 -5.396778e-28)
(-0.01827984 0.002377874 9.542631e-25)
(-0.0196462 0.001260395 3.191966e-21)
(-0.01787714 0.004709881 9.402386e-27)
(-0.01935582 0.003760771 0)
(-0.01721783 0.006965511 -4.904755e-23)
(-0.01878781 0.006196049 3.046901e-26)
(-0.01629353 0.009141999 1.618159e-24)
(-0.01794174 0.008553318 -1.155901e-24)
(-0.0151523 0.01116484 8.614772e-25)
(-0.01684089 0.01075511 3.070953e-21)
(-0.01380794 0.01300374 -7.72481e-26)
(-0.01550496 0.01281753 -7.297764e-25)
(-0.01397367 0.01466479 -9.285483e-26)
(-0.01228157 0.01464774 1.360142e-25)
(-0.0208707 0.002670379 1.089393e-24)
(-0.02240896 0.001416145 1.088891e-24)
(-0.02041235 0.005289464 2.104271e-26)
(-0.02207776 0.004224933 1.215066e-24)
(-0.01965493 0.007826282 -8.6868e-23)
(-0.02143726 0.006959203 2.104808e-26)
(-0.01862801 0.01025035 9.453023e-22)
(-0.02049256 0.009600176 -2.832102e-21)
(-0.01732521 0.0125308 6.238469e-25)
(-0.01925 0.01207699 5.861615e-25)
(-0.01578099 0.01459575 -7.454893e-25)
(-0.01769911 0.01439673 -4.923742e-26)
(-0.01595727 0.01647195 -2.479435e-21)
(-0.01404451 0.01644073 -1.394095e-24)
(-0.02378357 0.003001629 1.214479e-24)
(-0.02551694 0.001592778 0)
(-0.02326316 0.00594319 1.215311e-24)
(-0.02513764 0.004751148 4.021493e-21)
(-0.02241683 0.008785974 -1.145697e-24)
(-0.02440905 0.007822811 1.332318e-26)
(-0.02125953 0.01149812 1.523747e-22)
(-0.02334103 0.01077353 -1.128518e-24)
(-0.01974965 0.01408163 -9.047873e-26)
(-0.02193091 0.01358398 -4.115542e-26)
(-0.01799862 0.01640495 1.852785e-22)
(-0.02016655 0.01619031 -4.921603e-26)
(-0.01818943 0.01852387 -9.067885e-25)
(-0.01602713 0.01847818 -9.698021e-25)
(-0.02706184 0.003377726 2.762796e-24)
(-0.02901736 0.001793051 1.601792e-24)
(-0.02646914 0.006687273 2.778008e-24)
(-0.02858355 0.005348068 4.554883e-21)
(-0.02551064 0.009885913 -6.07187e-23)
(-0.0277564 0.008805231 4.33268e-26)
(-0.02419938 0.01293431 1.867582e-26)
(-0.02654611 0.01212386 3.906752e-26)
(-0.02248286 0.0158427 0)
(-0.02494689 0.01528785 0)
(-0.02049649 0.01845757 0)
(-0.02294669 0.01822232 1.28887e-24)
(-0.02070418 0.02085036 1.426138e-25)
(-0.01825975 0.02078998 7.039134e-26)
(-0.03075515 0.003803637 2.103625e-23)
(-0.0329626 0.002019565 5.27537e-21)
(-0.03008082 0.007529418 -4.945737e-23)
(-0.03246659 0.006023135 3.3602e-24)
(-0.02899402 0.01113021 -6.894255e-23)
(-0.03152849 0.009916142 8.063343e-26)
(-0.0275078 0.01456041 2.101546e-26)
(-0.03015659 0.01365265 6.723655e-26)
(-0.0255636 0.01783385 1.303853e-24)
(-0.02834358 0.01721225 0)
(-0.02331319 0.02078339 -2.385669e-22)
(-0.02608588 0.02051683 4.317743e-21)
(-0.02353987 0.02348511 2.228032e-25)
(-0.02077642 0.02340977 -2.722022e-22)
(-0.03491829 0.004284541 2.377898e-23)
(-0.03741069 0.002275232 3.880919e-24)
(-0.03415192 0.008480937 -5.558429e-23)
(-0.03684436 0.006785115 5.82434e-21)
(-0.03292019 0.01253692 -1.560596e-22)
(-0.03578189 0.01117113 2.000397e-24)
(-0.03123248 0.01639967 4.730187e-26)
(-0.03422756 0.0153866 4.6545e-26)
(-0.02904283 0.02007206 1.409665e-24)
(-0.03216658 0.0194105 -5.02179e-25)
(-0.02649783 0.02341607 1.472507e-24)
(-0.02964864 0.02307502 6.471554e-25)
(-0.02673947 0.02646153 -9.999306e-26)
(-0.02361619 0.02637544 -3.056777e-22)
(-0.03961234 0.004826845 6.100568e-24)
(-0.04242644 0.002563027 6.709762e-21)
(-0.03874333 0.009554007 5.988469e-24)
(-0.04178078 0.007642734 6.546169e-21)
(-0.03735301 0.01412654 1.9512e-24)
(-0.04058209 0.01258232 6.289114e-21)
(-0.03543098 0.0184946 -4.976267e-25)
(-0.03884224 0.01732957 2.043943e-24)
(-0.03301988 0.02259731 2.007935e-21)
(-0.03656048 0.02185557 -5.742456e-25)
(-0.03011944 0.0263861 7.108016e-22)
(-0.03373675 0.02599923 1.010581e-24)
(-0.03036141 0.02982543 -1.681681e-24)
(-0.02682604 0.02972849 -1.80194e-25)
(-0.04490454 0.005436725 -1.918852e-23)
(-0.04808142 0.002886639 2.339652e-24)
(-0.04391962 0.01075942 8.173203e-23)
(-0.04734476 0.00860708 7.384577e-21)
(-0.042354 0.01590481 6.440002e-24)
(-0.04598951 0.01416924 7.167387e-21)
(-0.04021493 0.02080566 2.36118e-22)
(-0.04402444 0.0195106 6.881053e-21)
(-0.03752896 0.02541053 1.657736e-24)
(-0.04145965 0.02456701 -7.419353e-26)
(-0.0341746 0.02973245 2.161094e-25)
(-0.03828011 0.02930827 5.62748e-21)
(-0.03445724 0.03362298 -5.443981e-21)
(-0.03045525 0.03351724 -3.891483e-22)
(-0.05087037 0.006122409 2.574378e-24)
(-0.05445609 0.003249912 -2.9957e-24)
(-0.04975465 0.01211612 8.621354e-23)
(-0.05361695 0.009690137 2.574754e-24)
(-0.04798853 0.01791334 7.235975e-24)
(-0.05208887 0.01595411 2.476437e-24)
(-0.04558149 0.02344028 4.767537e-24)
(-0.0498758 0.02197399 7.756249e-21)
(-0.04255842 0.02863101 1.962685e-24)
(-0.04698754 0.02767211 -2.613608e-24)
(-0.03876776 0.03350883 1.969474e-24)
(-0.04340038 0.03302117 2.004276e-24)
(-0.03909982 0.03789214 6.667049e-21)
(-0.03456778 0.03779537 1.330496e-24)
(-0.05759382 0.006891043 -2.996241e-24)
(-0.06163842 0.003656324 -9.493031e-21)
(-0.05633304 0.01363769 0)
(-0.06068459 0.01090235 0)
(-0.0543459 0.02016757 -7.261743e-26)
(-0.0589667 0.01795327 0)
(-0.05163693 0.02639899 3.002065e-22)
(-0.05648069 0.02473776 -8.811108e-21)
(-0.04822419 0.03225157 -2.667304e-24)
(-0.05322927 0.03117859 -8.693239e-21)
(-0.04397395 0.03772985 2.093377e-24)
(-0.04917474 0.03725238 2.604988e-24)
(-0.0444001 0.04263062 2.079806e-24)
(-0.03923817 0.042618 4.149956e-24)
(-0.06516655 0.007749693 -6.777505e-24)
(-0.06972449 0.004109387 -1.057889e-20)
(-0.06374601 0.0153382 0)
(-0.06864297 0.01225405 -2.065461e-26)
(-0.06151868 0.02268978 -2.962371e-24)
(-0.06671863 0.0201833 -3.649556e-24)
(-0.05848616 0.02972079 -3.118474e-22)
(-0.06394123 0.02782017 -3.056899e-24)
(-0.05463074 0.03636427 -3.103501e-24)
(-0.06033467 0.035079 -8.787313e-21)
(-0.04998607 0.04249909 2.621323e-24)
(-0.05588685 0.04193284 6.766264e-21)
(-0.05055258 0.0480436 0)
(-0.04457881 0.04805171 -2.05913e-24)
(-0.07368773 0.008705174 -3.85082e-24)
(-0.07881749 0.004612396 -3.827889e-24)
(-0.07209161 0.01723112 1.066652e-22)
(-0.07759441 0.0137558 4.205848e-24)
(-0.06960165 0.0254965 -3.744229e-24)
(-0.07544402 0.02266364 -1.129535e-20)
(-0.06621974 0.03340338 3.59026e-22)
(-0.07234091 0.03125257 -9.404841e-26)
(-0.06195551 0.04085251 2.836506e-24)
(-0.06830671 0.03941858 1.065797e-20)
(-0.05683837 0.04776113 3.038785e-24)
(-0.06334193 0.04707054 2.325345e-24)
(-0.05737345 0.05414846 -3.677975e-25)
(-0.0505693 0.05414045 -1.981248e-24)
(-0.08326457 0.009763965 4.223791e-24)
(-0.08902825 0.00516777 4.878839e-24)
(-0.08147756 0.01933206 1.44299e-25)
(-0.08765149 0.01541656 1.278678e-20)
(-0.0787027 0.02861935 -4.086515e-24)
(-0.08525923 0.02541218 -8.692299e-24)
(-0.07493319 0.03752321 3.386394e-24)
(-0.08181024 0.03506715 0)
(-0.07018175 0.04593914 9.578687e-22)
(-0.07732359 0.04427185 3.685944e-24)
(-0.06447295 0.05376682 1.435089e-21)
(-0.07179221 0.05291747 -6.371951e-25)
(-0.0651191 0.06096722 -7.810117e-25)
(-0.05740679 0.06103398 6.038892e-26)
(-0.09401165 0.01092926 9.647496e-24)
(-0.1004712 0.005776614 1.407311e-20)
(-0.09202156 0.02165148 1.662131e-25)
(-0.09893421 0.01723884 1.014432e-23)
(-0.08894467 0.03207308 -4.609616e-24)
(-0.09628547 0.02843935 -1.38801e-20)
(-0.08476515 0.04208898 2.987917e-25)
(-0.09247355 0.03927772 0)
(-0.07948732 0.0515856 -1.041755e-21)
(-0.08750838 0.0496439 2.988344e-25)
(-0.07312492 0.06044669 1.559484e-21)
(-0.08136868 0.05944062 4.313718e-24)
(-0.07394967 0.06867275 -7.699019e-25)
(-0.06528725 0.06870065 -3.427136e-24)
(-0.1060493 0.01219767 1.087411e-23)
(-0.113265 0.006432954 1.170099e-23)
(-0.1038492 0.02419477 1.768587e-25)
(-0.1115717 0.01922168 1.574685e-20)
(-0.1004539 0.03586909 -5.202446e-24)
(-0.1086502 0.0317514 -5.19837e-24)
(-0.0958483 0.0471198 0)
(-0.1044631 0.04389472 -5.302023e-24)
(-0.09003331 0.05783494 4.305768e-24)
(-0.09900935 0.05553927 3.744365e-25)
(-0.08297711 0.06793848 4.037612e-24)
(-0.09231683 0.06655997 1.237352e-20)
(-0.08439308 0.07690493 -5.42027e-21)
(-0.07474738 0.07727585 -7.418475e-21)
(-0.1195009 0.01355409 -8.661858e-23)
(-0.1275104 0.007154482 1.553898e-20)
(-0.1170899 0.02696476 6.088307e-24)
(-0.1257025 0.02131983 6.103462e-24)
(-0.1133614 0.0400129 -5.297686e-24)
(-0.122483 0.03533709 6.708579e-24)
(-0.1083091 0.05262219 -9.768056e-22)
(-0.1179132 0.04893144 -1.691564e-20)
(-0.1019152 0.0646424 9.689533e-24)
(-0.1119237 0.06200872 6.32644e-24)
(-0.0941596 0.07587727 1.711176e-21)
(-0.1044966 0.07441448 1.764293e-20)
(-0.09552945 0.08594681 1.884617e-20)
(-0.08503262 0.08602953 6.847835e-21)
(-0.1345104 0.01497466 7.004313e-24)
(-0.1434128 0.007889328 6.940544e-24)
(-0.1319159 0.02992391 6.7253e-24)
(-0.1414878 0.02358157 0)
(-0.127823 0.04450291 -3.987153e-22)
(-0.1379518 0.03917534 1.895e-20)
(-0.1223155 0.05863738 -2.046741e-25)
(-0.1330017 0.05437923 -6.145879e-24)
(-0.1153106 0.07219776 1.699657e-23)
(-0.1265022 0.0690702 1.895984e-20)
(-0.1067323 0.08502162 1.607581e-23)
(-0.1184051 0.08313339 1.989477e-20)
(-0.1085581 0.09644072 -6.914776e-25)
(-0.09649222 0.09691291 1.346286e-23)
(-0.1511706 0.01649934 0)
(-0.1609766 0.008669478 8.804451e-24)
(-0.1483547 0.03303939 1.487551e-23)
(-0.1588517 0.02607101 -8.487711e-24)
(-0.1439982 0.04930965 1.481975e-23)
(-0.155201 0.04312668 2.07023e-20)
(-0.1380584 0.06512486 1.343371e-23)
(-0.1498895 0.06014375 0)
(-0.1304967 0.08039362 1.970399e-23)
(-0.1429202 0.07664143 2.05502e-20)
(-0.1212197 0.09501012 5.830861e-25)
(-0.1342496 0.09251206 6.256172e-24)
(-0.1237665 0.1076762 -1.926644e-20)
(-0.1100272 0.1088806 -5.778049e-24)
(-0.1695116 0.01820953 -1.847807e-22)
(-0.180409 0.00950171 1.890044e-20)
(-0.1666222 0.0362675 -1.674847e-23)
(-0.1781707 0.02857509 -1.814529e-20)
(-0.1621222 0.05425733 -8.203597e-24)
(-0.1743874 0.04740743 -3.586721e-20)
(-0.1557384 0.07200924 7.591987e-24)
(-0.1688423 0.06599819 -1.809411e-23)
(-0.1476313 0.08912514 7.590193e-24)
(-0.1613219 0.08461375 1.555676e-23)
(-0.1377255 0.1056257 -5.050708e-24)
(-0.1521271 0.1024994 -6.83609e-25)
(-0.1408761 0.1196769 -4.251508e-24)
(-0.1258399 0.1212684 -3.87128e-21)
(-0.189861 0.01985848 2.187738e-25)
(-0.2016389 0.0103257 9.794461e-24)
(-0.1867531 0.03963474 -3.736465e-23)
(-0.1993644 0.03098917 -9.667478e-24)
(-0.1822206 0.05930057 -4.623753e-23)
(-0.1955897 0.05167478 -1.729556e-20)
(-0.1756168 0.07913192 1.345803e-21)
(-0.1901017 0.07211247 -4.505592e-20)
(-0.166928 0.09834009 7.284333e-24)
(-0.1819663 0.09282961 2.787724e-20)
(-0.1564256 0.1170224 1.426899e-21)
(-0.17235 0.1130149 -2.184063e-24)
(-0.1604512 0.1325904 -2.741218e-24)
(-0.1436795 0.1349427 -3.693376e-21)
(-0.2119889 0.02153096 1.145287e-22)
(-0.2247015 0.01115161 1.207781e-27)
(-0.2089345 0.04294244 -1.084296e-23)
(-0.2223454 0.03347389 3.949732e-27)
(-0.2043405 0.06432743 7.881571e-22)
(-0.2185613 0.05581794 -2.216298e-23)
(-0.1975081 0.08620181 -1.74525e-23)
(-0.2129992 0.07851569 -2.670408e-23)
(-0.1886651 0.1078424 9.330039e-24)
(-0.2051265 0.1007867 1.706131e-23)
(-0.1777095 0.1289884 2.460322e-21)
(-0.1951972 0.1236887 -1.010985e-23)
(-0.182884 0.1460524 -3.535126e-24)
(-0.1643173 0.1495741 2.829608e-21)
(-0.2359444 0.02317886 -9.7058e-23)
(-0.2495791 0.01192506 1.767984e-26)
(-0.2329519 0.0463134 -1.127074e-23)
(-0.2472148 0.03583059 5.494372e-26)
(-0.2282959 0.06967961 1.191477e-23)
(-0.2437347 0.05984994 -1.959146e-20)
(-0.2219108 0.09316062 -9.825497e-22)
(-0.2384758 0.08443187 -2.093258e-20)
(-0.2132931 0.1170632 -1.341174e-21)
(-0.231035 0.1089783 -1.249612e-23)
(-0.2019633 0.1411819 -8.603928e-24)
(-0.2212013 0.1338215 -4.371116e-20)
(-0.2084233 0.1596319 0)
(-0.1881115 0.1646809 5.580185e-25)
(-0.2616545 0.02464893 0)
(-0.2760924 0.01258623 3.909766e-26)
(-0.2588436 0.04927615 -1.30176e-23)
(-0.2737328 0.0378446 -1.177709e-25)
(-0.2547207 0.07420047 -2.677234e-23)
(-0.2706072 0.06327937 -1.342922e-23)
(-0.2486013 0.09971568 -1.391676e-21)
(-0.2660478 0.08928604 -1.371357e-23)
(-0.2407248 0.1257521 -4.016342e-21)
(-0.2595203 0.1162629 -1.87455e-20)
(-0.2296596 0.1530965 -1.773597e-23)
(-0.2508548 0.1436303 -1.60854e-23)
(-0.2375862 0.1728257 4.509958e-24)
(-0.2154519 0.1800106 1.008038e-23)
(-0.2888913 0.02584445 -1.600296e-22)
(-0.3039625 0.01305976 1.632284e-23)
(-0.2863143 0.05171949 -2.198921e-22)
(-0.3016553 0.03932976 -2.433984e-25)
(-0.2828038 0.07806668 -4.084306e-25)
(-0.2990543 0.06596252 1.548891e-23)
(-0.277674 0.1051896 -2.729302e-23)
(-0.2953526 0.09346106 0)
(-0.2707265 0.1332696 -2.65021e-23)
(-0.2898269 0.1222677 -3.134625e-20)
(-0.2603725 0.1637239 4.103915e-21)
(-0.2823763 0.1531269 -9.853535e-25)
(-0.2712934 0.1847419 2.621652e-23)
(-0.2470062 0.1951681 -1.624066e-21)
(-0.3172856 0.02656272 6.403615e-23)
(-0.3327003 0.01323728 4.293315e-21)
(-0.3150937 0.05333409 1.574952e-23)
(-0.3306046 0.04000043 1.732933e-23)
(-0.3124912 0.08093086 1.590203e-23)
(-0.3288659 0.06751029 1.140373e-20)
(-0.3087202 0.1098889 -1.682071e-23)
(-0.3266072 0.09632965 1.204942e-24)
(-0.3029596 0.1408121 -3.724114e-21)
(-0.3232159 0.1270507 -1.361721e-23)
(-0.2954608 0.1734897 3.840297e-20)
(-0.3178821 0.1604042 -1.845168e-20)
(-0.3102388 0.1957061 3.190316e-23)
(-0.283901 0.2097087 -4.674894e-21)
(-0.3463174 0.02654411 -2.118442e-22)
(-0.3615895 0.01309244 1.777703e-23)
(-0.3448315 0.05380384 3.488958e-23)
(-0.3601138 0.0395463 1.94971e-22)
(-0.3435699 0.08227556 1.865202e-23)
(-0.3595871 0.06753698 -1.53129e-24)
(-0.3418155 0.1125901 4.490111e-21)
(-0.359238 0.09734205 5.972586e-25)
(-0.3386827 0.145289 4.267484e-21)
(-0.3583564 0.1296369 2.369096e-23)
(-0.3338757 0.1806566 7.402533e-21)
(-0.355763 0.1652028 -8.537418e-24)
(-0.3516448 0.2054652 1.004047e-23)
(-0.3252964 0.2216119 2.189008e-20)
(-0.3753432 0.02568819 -1.86299e-23)
(-0.3900371 0.01249617 -2.079753e-23)
(-0.3751035 0.05276005 1.664266e-21)
(-0.3895088 0.03814916 3.139399e-20)
(-0.3756801 0.08178908 -2.312864e-21)
(-0.3908163 0.0655164 4.369557e-21)
(-0.3765206 0.1132228 1.984709e-23)
(-0.392923 0.09588846 -4.18279e-23)
(-0.3768327 0.1480382 8.985654e-21)
(-0.3955744 0.1294024 1.077659e-20)
(-0.3752875 0.1873509 2.145349e-24)
(-0.3977517 0.1671277 -1.679197e-23)
(-0.3982084 0.2107952 7.085541e-23)
(-0.3725808 0.2311463 2.66588e-23)
(-0.4035066 0.02420274 -6.086691e-23)
(-0.4170104 0.01137705 2.802512e-20)
(-0.404914 0.0500513 9.748147e-21)
(-0.4178911 0.03545621 -3.989914e-23)
(-0.4082719 0.07865254 -6.061693e-23)
(-0.4214876 0.06157736 -1.92517e-23)
(-0.4123895 0.1106608 -1.884017e-23)
(-0.426977 0.09093115 1.624613e-20)
(-0.4171065 0.1464882 1.071454e-20)
(-0.4335464 0.1249361 -2.285817e-23)
(-0.4206508 0.1875389 4.998724e-23)
(-0.4410254 0.1642777 2.044542e-20)
(-0.4456029 0.2117595 -6.006813e-19)
(-0.4199924 0.2348077 2.4026e-19)
(-0.4301041 0.02165938 1.359242e-21)
(-0.441284 0.009795864 1.195849e-24)
(-0.4332059 0.04572179 1.048987e-25)
(-0.4442915 0.03102951 -5.94076e-26)
(-0.4396625 0.07242087 -5.109219e-25)
(-0.4502311 0.05513089 -3.115459e-25)
(-0.4484036 0.1037069 -4.62964e-23)
(-0.459732 0.08247018 -7.836181e-20)
(-0.4572086 0.1398475 -6.337914e-23)
(-0.4712285 0.1154528 9.37362e-20)
(-0.4632391 0.1827324 9.928509e-20)
(-0.4820904 0.158307 -7.373727e-21)
(-0.4848109 0.2132669 5.753019e-19)
(-0.4611661 0.2334493 -2.334924e-19)
(-0.4535199 0.01806328 2.302412e-23)
(-0.4615967 0.007688061 -6.751843e-20)
(-0.4593444 0.03914237 -3.408013e-21)
(-0.4672648 0.02503789 -1.624102e-25)
(-0.468353 0.06321921 4.891962e-23)
(-0.4760204 0.04549395 -7.537012e-25)
(-0.4810284 0.09141912 8.024609e-20)
(-0.4889494 0.07046598 4.425416e-23)
(-0.4924836 0.1272342 5.971897e-20)
(-0.5040012 0.1039505 1.26832e-18)
(-0.4954588 0.1729454 6.674364e-19)
(-0.5122893 0.1526892 -2.404143e-18)
(-0.5067021 0.2185976 -3.892063e-18)
(-0.485711 0.2214081 -4.805456e-18)
(-0.4725106 0.01336838 2.410678e-23)
(-0.4765823 0.005077024 2.411007e-23)
(-0.4812398 0.03024722 -4.454371e-25)
(-0.4853125 0.01727709 -1.082871e-25)
(-0.4935263 0.05008548 -1.810795e-20)
(-0.4967366 0.03296559 -3.763748e-25)
(-0.5064283 0.07576629 9.455026e-21)
(-0.5128887 0.05659793 3.896467e-20)
(-0.5157256 0.111806 -4.154694e-19)
(-0.5237915 0.09576757 2.182639e-18)
(-0.5120655 0.1578886 2.168482e-18)
(-0.5272776 0.1519599 -1.40861e-17)
(-0.5174467 0.2264327 8.717295e-19)
(-0.4936905 0.2076322 6.162493e-18)
(-0.4855859 0.007628109 -1.080726e-25)
(-0.484964 0.002023916 0)
(-0.4969635 0.01864767 -1.009292e-20)
(-0.4963604 0.007776833 -4.375798e-23)
(-0.5105754 0.03297423 -1.478073e-19)
(-0.5094848 0.01901059 -4.033383e-20)
(-0.521157 0.05872764 1.303115e-19)
(-0.5245857 0.04498378 -1.174405e-18)
(-0.5214836 0.09575562 -1.178676e-18)
(-0.5290688 0.09286137 4.887248e-18)
(-0.5138343 0.1366926 -2.543879e-17)
(-0.5236076 0.1599482 -2.041586e-17)
(-0.5175124 0.2402024 3.182237e-17)
(-0.4881789 0.1865787 -1.74069e-17)
(-0.4912291 0.00103065 -4.340071e-23)
(-0.4855882 -0.001624457 2.481278e-23)
(-0.5035129 0.004537064 -3.082366e-20)
(-0.4984027 -0.002482702 1.909069e-19)
(-0.5149998 0.01516888 1.479499e-18)
(-0.5103864 0.007447264 2.620213e-19)
(-0.5198157 0.04255174 -2.585753e-18)
(-0.5196167 0.03912461 1.870448e-18)
(-0.5126732 0.07786486 5.340961e-18)
(-0.5197093 0.09614818 -2.726192e-18)
(-0.495788 0.1183947 -4.479734e-17)
(-0.5093958 0.1729247 3.809276e-18)
(-0.4938968 0.267921 9.407449e-18)
(-0.4780127 0.1730266 -3.756305e-17)
(-0.4876938 -0.006958329 -3.973252e-21)
(-0.476821 -0.005739229 -1.237885e-19)
(-0.4985549 -0.009852332 2.364291e-20)
(-0.4897713 -0.01131626 -2.001644e-19)
(-0.5040227 0.001466598 -8.713264e-19)
(-0.4975374 0.002120363 3.743809e-19)
(-0.5026343 0.02705819 -2.486709e-18)
(-0.4985196 0.04234545 -4.821345e-18)
(-0.4884895 0.06114656 7.426736e-19)
(-0.4984738 0.1063194 2.885055e-17)
(-0.4666822 0.1026803 1.156246e-17)
(-0.4810602 0.1931091 2.208029e-17)
(-0.4653336 0.2975964 3.31226e-17)
(-0.4369313 0.1573704 2.090018e-17)
(-0.4726452 -0.01582147 3.612417e-21)
(-0.4573374 -0.009246962 -3.616642e-19)
(-0.4799136 -0.02160186 -1.006222e-19)
(-0.4675914 -0.01624828 -1.330638e-18)
(-0.4792906 -0.009281123 2.077928e-19)
(-0.4705379 0.00325016 6.301397e-18)
(-0.470232 0.0145986 9.803059e-19)
(-0.4679046 0.05213049 1.443031e-18)
(-0.4549433 0.05002983 -1.238649e-17)
(-0.4581846 0.1271496 -3.964374e-18)
(-0.4319435 0.09542073 2.590658e-18)
(-0.4403264 0.2231117 7.561167e-18)
(-0.4416087 0.331187 3.984911e-18)
(-0.393502 0.1566749 -1.154179e-16)
(-0.4448459 -0.02309561 8.111436e-20)
(-0.4260203 -0.01058964 4.900855e-19)
(-0.4471459 -0.02941888 -2.528702e-19)
(-0.4314048 -0.01595384 2.518588e-19)
(-0.4415285 -0.01777846 5.906503e-19)
(-0.4309308 0.0103466 3.578697e-18)
(-0.427602 0.006054641 6.985918e-18)
(-0.4261004 0.06758166 -7.172431e-19)
(-0.4049633 0.04366213 -1.98463e-17)
(-0.4148197 0.1510974 5.567593e-18)
(-0.3758229 0.09401719 5.326879e-17)
(-0.3949911 0.2583531 3.762282e-17)
(-0.3705932 0.3868045 4.897214e-17)
(-0.3491496 0.1551897 -1.379368e-16)
(-0.4048883 -0.02667364 1.725807e-20)
(-0.383378 -0.009361126 2.786999e-19)
(-0.4020686 -0.03301914 5.139574e-19)
(-0.3839668 -0.01008142 2.737691e-18)
(-0.3924116 -0.0225545 2.25119e-18)
(-0.3807495 0.02282025 4.725707e-18)
(-0.3755132 0.003216656 7.130303e-18)
(-0.3751853 0.08761773 7.711122e-19)
(-0.3505779 0.04435589 1.27688e-17)
(-0.362798 0.1807533 1.081111e-18)
(-0.317401 0.09959016 -2.131758e-17)
(-0.3436304 0.2990775 9.907027e-18)
(-0.3162665 0.437467 -4.291749e-17)
(-0.2781864 0.16494 -1.377423e-17)
(-0.3537256 -0.02669816 3.259362e-19)
(-0.3284386 -0.005598438 -3.3861e-20)
(-0.3480069 -0.03162663 -4.396356e-19)
(-0.3259392 0.0005341868 3.79924e-18)
(-0.3355672 -0.02075659 -1.644732e-18)
(-0.3273524 0.03794724 -4.442067e-19)
(-0.3166878 0.008495799 -1.023704e-18)
(-0.3184209 0.1108135 1.108669e-17)
(-0.2902694 0.05356816 -1.971874e-17)
(-0.3038855 0.2141745 -1.636343e-17)
(-0.2563453 0.1127405 -6.584183e-18)
(-0.2855765 0.3427783 8.045477e-18)
(-0.261293 0.4887907 -7.857152e-18)
(-0.2113495 0.1808709 -3.78014e-17)
(-0.2917221 -0.02475565 8.370393e-19)
(-0.2629695 -0.0007735152 5.909197e-19)
(-0.2842488 -0.03007128 -1.9428e-19)
(-0.2604991 0.01258556 -5.305665e-18)
(-0.2735517 -0.01785292 1.242727e-17)
(-0.2563746 0.05844608 1.084327e-18)
(-0.2561345 0.01656067 3.759888e-17)
(-0.2486583 0.1387994 2.995812e-18)
(-0.23307 0.06936173 1.855064e-17)
(-0.2328183 0.2525245 1.068438e-17)
(-0.2030089 0.133994 9.328038e-17)
(-0.2132607 0.3924469 2.145214e-17)
(-0.2341339 0.5336377 -1.069136e-16)
(-0.1557438 0.2091517 -6.021488e-17)
(-0.2217113 -0.02180654 3.546054e-19)
(-0.1895869 0.003805141 -4.426653e-20)
(-0.2136899 -0.02696715 -8.209715e-19)
(-0.1889235 0.02440655 -2.568294e-18)
(-0.200503 -0.01166806 4.22771e-18)
(-0.1861415 0.07659359 8.213608e-18)
(-0.1825864 0.02486868 -7.250758e-18)
(-0.1794186 0.1639621 -8.176697e-18)
(-0.1589897 0.08173449 5.430579e-18)
(-0.1696648 0.2856022 -2.551638e-17)
(-0.1300197 0.154377 6.138526e-18)
(-0.1532467 0.4331567 -3.000068e-18)
(-0.1470665 0.6010797 -4.545853e-18)
(-0.0998254 0.2398434 9.775649e-18)
(-0.1472933 -0.01740856 -1.01676e-19)
(-0.1134808 0.007692855 -1.923357e-19)
(-0.1406718 -0.02104628 -4.929357e-20)
(-0.1146638 0.03446638 -4.41482e-18)
(-0.1301417 -0.002704647 2.359016e-18)
(-0.1152269 0.09134261 -2.320825e-21)
(-0.1158747 0.03822105 -5.669228e-18)
(-0.113471 0.1843315 -3.316426e-18)
(-0.09582857 0.09894423 -1.048108e-17)
(-0.1087504 0.3125284 -2.728869e-18)
(-0.06927131 0.176978 -3.706251e-18)
(-0.09933768 0.4670955 -1.423811e-17)
(-0.08747038 0.6467276 2.241873e-17)
(-0.03883121 0.2698986 3.984023e-17)
(-0.0708428 -0.01413153 6.940788e-20)
(-0.03515338 0.01048295 1.054128e-18)
(-0.06665184 -0.01585168 -2.968685e-19)
(-0.03835104 0.04161221 6.832869e-19)
(-0.06025241 0.004674611 9.195566e-19)
(-0.04152502 0.1016854 1.559939e-18)
(-0.05124064 0.04816967 -1.201216e-17)
(-0.04460073 0.1988031 4.895374e-18)
(-0.03837428 0.1134279 -6.237599e-18)
(-0.04680115 0.330247 3.43276e-18)
(-0.0213709 0.1976535 -1.884869e-17)
(-0.04711083 0.4909967 -1.634737e-17)
(-0.0459071 0.6769082 -1.136411e-17)
(-0.0005991078 0.298789 7.751922e-18)
(0.008604111 -0.01245077 3.190151e-19)
(0.04707326 0.01187704 4.302552e-20)
(0.009929137 -0.01391712 7.257181e-19)
(0.04289957 0.04522495 -5.561651e-19)