/*--------------------------------*- C++ -*----------------------------------*\
| =========                 |                                                 |
| \\      /  F ield         | OpenFOAM: The Open Source CFD Toolbox           |
|  \\    /   O peration     | Version:  2206                                  |
|   \\  /    A nd           | Website:  www.openfoam.com                      |
|    \\/     M anipulation  |                                                 |
\*---------------------------------------------------------------------------*/
FoamFile
{
    version     2.0;
    format      ascii;
    arch        "LSB;label=32;scalar=64";
    class       volVectorField;
    location    "2.2";
    object      ddtCorrDdt0(U.b);
}
// * * * * * * * * * * * * * * * * * * * * * * * * * * * * * * * * * * * * * //

dimensions      [0 1 -2 0 0 0 0];

internalField   nonuniform List<vector> 
13078
(
(-0.001241118 0.001051979 -5.460846e-26)
(-0.0005737858 0.001580565 3.962619e-28)
(-0.0005162431 0.002229656 1.142364e-25)
(-0.0005090508 0.002961353 0)
(-0.0004755981 0.003656171 9.527438e-26)
(-0.0004224822 0.004324837 1.132297e-25)
(-0.0003556724 0.004950679 1.297177e-25)
(-0.001517969 0.0003023349 0)
(-0.001210492 0.001106883 9.1109e-28)
(-0.001231486 0.002070945 0)
(-0.001234258 0.002919308 0)
(-0.001182101 0.003692964 9.036694e-28)
(-0.001079034 0.004400745 4.09726e-28)
(-0.0009495011 0.005046272 7.127914e-28)
(-0.00235056 0.0003490172 -1.209368e-25)
(-0.002221274 0.001161547 1.116379e-25)
(-0.002127124 0.002068267 -5.258287e-26)
(-0.002043103 0.002970463 -1.528221e-25)
(-0.001924096 0.00378865 -9.958747e-26)
(-0.001764164 0.004538098 0)
(-0.001567946 0.005214864 7.780331e-31)
(-0.003340123 0.0004176528 -1.718404e-25)
(-0.003215681 0.001298311 3.261574e-25)
(-0.003066631 0.002209191 3.005663e-25)
(-0.002890609 0.003090027 1.36734e-25)
(-0.002710104 0.003955524 -4.317327e-27)
(-0.002486439 0.004744408 0)
(-0.002219286 0.005460109 -1.758378e-27)
(-0.004280033 0.0004710893 3.811021e-28)
(-0.00418542 0.001423446 2.168122e-25)
(-0.004022 0.002377143 4.073162e-25)
(-0.003806123 0.003308133 3.892546e-25)
(-0.003538402 0.004178437 -5.264944e-26)
(-0.003252491 0.005023298 8.82837e-30)
(-0.002910865 0.005785287 -1.454325e-25)
(-0.005304547 0.0005180385 0)
(-0.005211093 0.001553159 -2.518477e-27)
(-0.00503048 0.002573949 4.165471e-27)
(-0.004774714 0.003567437 2.393981e-25)
(-0.004452487 0.004507463 -1.486479e-26)
(-0.004066125 0.00536937 1.383879e-25)
(-0.003651247 0.006192158 3.263594e-25)
(-0.006425611 0.0005667146 0)
(-0.006323047 0.001695587 3.243259e-25)
(-0.006111094 0.002809267 3.817248e-25)
(-0.005824833 0.003875365 9.879396e-26)
(-0.005433314 0.004895494 2.55616e-25)
(-0.004977408 0.005833806 -1.90229e-26)
(-0.004444209 0.006681906 0)
(-0.007655099 0.000621125 -7.921288e-25)
(-0.007537279 0.001859831 3.873858e-25)
(-0.007299835 0.003072088 3.724838e-25)
(-0.006956468 0.004245707 0)
(-0.006500039 0.005357767 6.517576e-25)
(-0.005963145 0.006381445 -2.07827e-26)
(-0.005342588 0.007309186 -2.382957e-26)
(-0.00900764 0.0006857919 -9.337226e-29)
(-0.008869524 0.002052852 -9.124781e-25)
(-0.008599476 0.003386403 -4.504686e-25)
(-0.008200111 0.004677546 -1.5195e-26)
(-0.007669363 0.005900453 1.523846e-24)
(-0.007044033 0.007025095 -2.286195e-26)
(-0.006320194 0.008043705 0)
(-0.01050306 0.0007610569 1.088183e-24)
(-0.01034456 0.002274957 -1.065168e-24)
(-0.01003479 0.003750054 -5.135439e-25)
(-0.009573595 0.005179045 9.661887e-25)
(-0.008960172 0.006531436 5.813716e-28)
(-0.008236953 0.007774465 0)
(-0.007399116 0.008899665 0)
(-0.01216461 0.0008465482 0)
(-0.01198411 0.002529921 0)
(-0.01162768 0.004169586 -1.190452e-24)
(-0.01109796 0.005757902 1.121906e-24)
(-0.0103923 0.007260378 -6.716313e-28)
(-0.009560337 0.008640581 0)
(-0.008596115 0.009889395 0)
(-0.01401832 0.0009442274 0)
(-0.01381134 0.002822402 1.422708e-24)
(-0.01340277 0.004651543 -1.373103e-24)
(-0.01279628 0.00642266 -1.272692e-24)
(-0.01198806 0.00809786 1.237297e-24)
(-0.01103457 0.00963615 0)
(-0.009929467 0.01102737 -1.059975e-24)
(-0.01609175 0.001056235 0)
(-0.01585408 0.003157354 1.643689e-24)
(-0.01538694 0.005202976 1.683791e-26)
(-0.01469385 0.007182764 -1.486524e-24)
(-0.01377274 0.00905597 1.390815e-24)
(-0.01268202 0.01077606 -1.272764e-24)
(-0.01141951 0.01233028 -1.079129e-27)
(-0.018416 0.001184172 1.907931e-24)
(-0.01814361 0.003539729 0)
(-0.01761026 0.005832565 1.882169e-26)
(-0.01681614 0.008048653 2.602428e-26)
(-0.01577878 0.01014575 3.187124e-24)
(-0.0145274 0.01207703 -1.459263e-24)
(-0.01308856 0.01381681 1.305216e-24)
(-0.02102628 0.001329749 2.178093e-24)
(-0.02071505 0.00397524 0)
(-0.0201093 0.006553209 4.211449e-26)
(-0.01919362 0.009052356 -2.340604e-24)
(-0.01806059 0.01136377 1.256483e-24)
(-0.01660063 0.01355336 0)
(-0.01496238 0.01550823 -1.490389e-24)
(-0.02396141 0.001494569 0)
(-0.02360564 0.004467057 2.429741e-24)
(-0.02292052 0.007357995 0)
(-0.0219117 0.01013658 -2.295066e-24)
(-0.02058847 0.01277942 -8.232717e-26)
(-0.01892947 0.01523389 -9.845245e-26)
(-0.01706974 0.01743036 -1.813995e-24)
(-0.02726535 0.001681709 0)
(-0.02685823 0.005026391 5.527411e-24)
(-0.02607989 0.008279257 2.664133e-26)
(-0.02494024 0.01140219 3.677185e-26)
(-0.02343518 0.01437845 0)
(-0.02155267 0.0171396 0)
(-0.01944266 0.01961118 0)
(-0.03098788 0.001893612 3.2031e-24)
(-0.0305223 0.00565948 3.14868e-24)
(-0.02963915 0.009321511 6.000592e-26)
(-0.02834757 0.01283632 4.136222e-26)
(-0.0266409 0.01618583 0)
(-0.02451192 0.01929668 2.577221e-24)
(-0.02211722 0.02208235 2.851608e-25)
(-0.03518418 0.00213303 3.63578e-24)
(-0.03465227 0.006374874 3.571644e-24)
(-0.03365135 0.01049951 1.012526e-25)
(-0.03218751 0.0144583 9.310029e-26)
(-0.03024667 0.01822599 0)
(-0.02786611 0.02172775 2.788474e-24)
(-0.02513444 0.02487956 1.604743e-25)
(-0.03991569 0.002402971 4.125976e-24)
(-0.03930884 0.007181561 8.076563e-24)
(-0.03817757 0.01182966 3.898787e-24)
(-0.03652724 0.01630231 0)
(-0.03431187 0.02058486 -1.00596e-24)
(-0.03172438 0.02442709 -1.52289e-24)
(-0.02854723 0.02803506 -3.605851e-25)
(-0.04525052 0.002706378 4.680122e-24)
(-0.04455839 0.008088 9.136605e-24)
(-0.04328056 0.01332004 8.7926e-24)
(-0.04142701 0.0183425 4.08532e-24)
(-0.03899826 0.023098 -1.484992e-25)
(-0.03600361 0.02754826 3.534902e-24)
(-0.03240209 0.03160379 -3.001939e-24)
(-0.05126477 0.003047592 0)
(-0.05047578 0.009107752 5.150657e-24)
(-0.04903321 0.01500098 4.954091e-24)
(-0.04694341 0.02066224 9.519829e-24)
(-0.04421596 0.02601929 0)
(-0.04083182 0.03104818 4.008756e-24)
(-0.03677044 0.03562835 -4.931429e-27)
(-0.05804256 0.003429969 -5.990223e-24)
(-0.05714485 0.01025126 0)
(-0.05552086 0.01688704 0)
(-0.05317044 0.02326671 -1.452992e-25)
(-0.05009936 0.02930692 -5.225691e-24)
(-0.04627085 0.03497248 0)
(-0.04174781 0.0401411 4.123956e-24)
(-0.06567592 0.003857099 -1.354981e-23)
(-0.06465692 0.01152899 0)
(-0.06283469 0.01899621 0)
(-0.06020211 0.02618661 -5.927373e-24)
(-0.05676708 0.03302879 -1.120146e-23)
(-0.05243668 0.03951685 5.220698e-24)
(-0.04753074 0.04514077 0)
(-0.07426447 0.004332368 -7.657372e-24)
(-0.07311068 0.01295108 -4.129915e-26)
(-0.07107207 0.0213437 -7.29714e-24)
(-0.06813064 0.02942868 -1.881575e-25)
(-0.06430799 0.03710465 -2.437282e-25)
(-0.05959173 0.04428886 5.933835e-24)
(-0.05395266 0.0509038 0)
(-0.08391515 0.00485899 0)
(-0.08261364 0.01452845 8.450906e-24)
(-0.08034095 0.02395283 -8.169324e-24)
(-0.07706378 0.0330471 0)
(-0.07280176 0.04170451 6.776266e-24)
(-0.06755299 0.04982218 -1.275939e-24)
(-0.06123027 0.05735659 -7.353447e-25)
(-0.09474053 0.005438638 9.755422e-24)
(-0.09328237 0.01626805 9.539481e-24)
(-0.09076017 0.02683638 -9.214967e-24)
(-0.08712841 0.03705349 0)
(-0.08240091 0.04680705 5.978967e-25)
(-0.07656398 0.05598152 1.046373e-27)
(-0.0695035 0.0645375 -8.266722e-25)
(-0.1068534 0.006072169 1.099899e-23)
(-0.1052444 0.01816814 1.074903e-23)
(-0.102454 0.0300023 -1.040009e-23)
(-0.09845306 0.04146332 0)
(-0.09324246 0.05244343 0)
(-0.08681676 0.0628626 8.624575e-24)
(-0.07900475 0.07278129 -7.128457e-25)
(-0.1203703 0.006747205 1.24025e-23)
(-0.1186292 0.0202273 1.217767e-23)
(-0.1155516 0.0334552 0)
(-0.1111704 0.04628228 -1.060009e-23)
(-0.1054467 0.05859366 7.485537e-25)
(-0.09838231 0.07021707 1.864196e-23)
(-0.08991194 0.08092045 -3.090599e-24)
(-0.135379 0.007513423 1.392088e-23)
(-0.1336325 0.02236211 0)
(-0.130209 0.03716787 1.341711e-23)
(-0.1254381 0.05152994 -1.22964e-23)
(-0.1191917 0.06537357 1.189947e-23)
(-0.111428 0.0785608 2.209988e-23)
(-0.1020171 0.09090992 1.002048e-23)
(-0.1521717 0.008215153 0)
(-0.1501479 0.02473461 0)
(-0.1465736 0.04112317 2.965788e-23)
(-0.1414274 0.05717094 0)
(-0.1346884 0.07270939 2.688001e-23)
(-0.1263031 0.08764708 1.251923e-23)
(-0.1161216 0.1019085 -1.139719e-23)
(-0.1706666 0.009066479 1.760064e-23)
(-0.1683387 0.02735272 -1.700422e-23)
(-0.1648891 0.04508359 -1.648956e-23)
(-0.1593854 0.0630525 0)
(-0.1520999 0.08050952 1.517221e-23)
(-0.1431611 0.09731274 0)
(-0.1322873 0.1133748 -1.010857e-23)
(-0.1909997 0.009880335 1.963013e-23)
(-0.1887189 0.02972994 -1.925642e-23)
(-0.1847452 0.04966179 -5.586759e-23)
(-0.1796673 0.06890423 -3.647633e-23)
(-0.1716479 0.0886474 1.594146e-23)
(-0.1622148 0.1076094 -1.366473e-24)
(-0.150634 0.1259001 1.597823e-24)
(-0.2131459 0.01071147 -3.29883e-26)
(-0.2108306 0.03219 -1.021478e-25)
(-0.2070295 0.05360048 -2.163798e-23)
(-0.2015376 0.07519605 -3.903221e-23)
(-0.1935828 0.09692157 2.170503e-23)
(-0.1837684 0.1183305 -3.000781e-24)
(-0.1716485 0.1391857 -7.074537e-24)
(-0.2371186 0.01153042 3.537523e-26)
(-0.2347687 0.03469432 1.09943e-25)
(-0.2311294 0.05796082 -2.268711e-23)
(-0.2253728 0.08178038 -1.42785e-23)
(-0.2184083 0.1046324 1.230962e-23)
(-0.2083012 0.128949 -1.723656e-23)
(-0.1956523 0.1528117 0)
(-0.2628224 0.01226176 0)
(-0.2604853 0.03690702 0)
(-0.2571989 0.06167452 -2.605798e-23)
(-0.2522275 0.08695653 -2.749069e-23)
(-0.2448382 0.1132109 -3.734992e-23)
(-0.2365394 0.1386781 -3.610191e-23)
(-0.2230264 0.1663362 0)
(-0.2900375 0.01285871 7.815957e-26)
(-0.2877437 0.03872469 -2.354221e-25)
(-0.2848821 0.06482025 -8.160365e-25)
(-0.2807198 0.09154287 0)
(-0.2746017 0.1191619 -5.48045e-23)
(-0.2665905 0.1483414 3.703875e-24)
(-0.2544339 0.1791519 9.02144e-24)
(-0.3183789 0.01322131 3.255276e-23)
(-0.3161909 0.039886 -2.513667e-25)
(-0.3139937 0.06704627 3.177491e-23)
(-0.3109824 0.0953051 0)
(-0.3064399 0.1252645 -3.371959e-23)
(-0.2992948 0.1578612 -5.73439e-24)
(-0.2914981 0.1903216 4.403965e-23)
(-0.3472051 0.01323779 3.551244e-23)
(-0.3454263 0.0400828 3.490985e-23)
(-0.3442342 0.06793491 3.48693e-23)
(-0.3428993 0.09730246 2.40823e-24)
(-0.3407201 0.1287746 6.410017e-24)
(-0.3366139 0.1627907 -2.128193e-23)
(-0.3308965 0.2007355 1.993211e-23)
(-0.375755 0.01296751 0)
(-0.3749199 0.03900506 -3.753318e-23)
(-0.3752807 0.06711284 -3.79654e-23)
(-0.3760719 0.09734238 -1.211547e-24)
(-0.3769556 0.1304253 4.094445e-23)
(-0.3766845 0.1674713 4.167658e-24)
(-0.3737691 0.2101236 0)
(-0.403582 0.01207286 -4.141817e-23)
(-0.403426 0.03735952 -8.068196e-23)
(-0.406398 0.06391177 -3.844537e-23)
(-0.4101075 0.09440776 -8.252113e-23)
(-0.414651 0.128344 4.474858e-23)
(-0.4195373 0.1667261 -3.765658e-23)
(-0.4217248 0.211425 1.385913e-22)
(-0.4291787 0.01077169 -4.399705e-23)
(-0.4310295 0.03366514 2.070349e-25)
(-0.4354288 0.05936829 0)
(-0.4438895 0.08740182 -1.029472e-24)
(-0.4527951 0.1214943 -9.06638e-23)
(-0.4615525 0.1619044 -3.616791e-23)
(-0.4647653 0.2124375 4.648642e-23)
(-0.4513902 0.00897018 4.6328e-23)
(-0.4556488 0.02853942 -3.24877e-25)
(-0.4630499 0.05112335 -6.153407e-25)
(-0.4738145 0.0777497 1.002177e-22)
(-0.4881237 0.109404 -4.574599e-22)
(-0.4964606 0.1552041 3.75449e-22)
(-0.4939366 0.2149477 -8.599779e-23)
(-0.468861 0.006635453 4.814259e-23)
(-0.4761633 0.02174414 0)
(-0.4863124 0.040086 -8.913868e-25)
(-0.5007462 0.06365245 -9.836367e-24)
(-0.5121176 0.09958122 -4.746513e-22)
(-0.5174501 0.1511427 1.03061e-21)
(-0.5049213 0.223545 -1.383093e-22)
(-0.4804078 0.003822626 0)
(-0.4908071 0.01307701 -2.174153e-25)
(-0.503076 0.0261507 1.394707e-25)
(-0.5179452 0.05011168 1.040395e-22)
(-0.5239284 0.09305214 -1.520245e-22)
(-0.517155 0.1559451 1.112238e-21)
(-0.5000636 0.2325217 -1.097474e-21)
(-0.4851493 0.0005257089 0)
(-0.4973982 0.002888051 -8.748665e-23)
(-0.5095214 0.0121805 -4.612818e-23)
(-0.5197456 0.04068568 -7.221951e-23)
(-0.5187513 0.09389906 -3.475247e-23)
(-0.5039408 0.1660764 3.687916e-22)
(-0.4795022 0.2576864 -8.696929e-22)
(-0.4812819 -0.003456655 4.956089e-23)
(-0.4941076 -0.007396472 -8.791029e-23)
(-0.5028559 0.003459414 -8.589493e-23)
(-0.5045023 0.03950255 -1.638803e-22)
(-0.4966275 0.1006846 -2.05127e-22)
(-0.475647 0.1830277 -1.91594e-22)
(-0.4483355 0.2829766 -3.17237e-22)
(-0.4671347 -0.007662358 1.590338e-22)
(-0.4781207 -0.01472907 1.133615e-22)
(-0.4814346 0.001526496 -2.002419e-22)
(-0.4761334 0.04637163 4.801304e-23)
(-0.4606599 0.1179408 -3.035911e-22)
(-0.4346675 0.2087968 -2.441899e-22)
(-0.4035277 0.3207334 -3.252982e-22)
(-0.4415791 -0.01040934 1.333723e-23)
(-0.4480378 -0.01712464 1.819178e-22)
(-0.4458447 0.005959864 -1.65614e-22)
(-0.4357903 0.05958265 1.257761e-22)
(-0.4155791 0.13906 -1.65251e-22)
(-0.38556 0.2411144 -2.628751e-22)
(-0.3482005 0.3660603 -2.45238e-22)
(-0.4044192 -0.01033069 -1.320367e-22)
(-0.4052337 -0.01407826 2.009515e-23)
(-0.3982889 0.01606993 -1.796082e-22)
(-0.3848147 0.07797351 5.591173e-23)
(-0.3619693 0.1670571 -1.146682e-22)
(-0.3305214 0.2810414 -1.626024e-22)
(-0.2884668 0.4157971 -2.158444e-22)
(-0.3553822 -0.00789107 -2.768019e-23)
(-0.3514964 -0.005162262 -7.747112e-23)
(-0.3421734 0.03146609 -1.547733e-22)
(-0.3265891 0.1004434 -7.386143e-23)
(-0.3019392 0.1994934 -2.754893e-23)
(-0.269051 0.3243197 -3.192606e-23)
(-0.2269181 0.4684989 -4.446094e-23)
(-0.2945241 -0.00303523 1.741216e-23)
(-0.2886317 0.006650762 9.743106e-23)
(-0.2783845 0.0490326 -3.412594e-23)
(-0.2600996 0.1264074 -8.777497e-23)
(-0.2350791 0.2363728 1.416725e-23)
(-0.2021294 0.3722918 1.044397e-22)
(-0.1605116 0.5241739 1.496407e-22)
(-0.2245128 0.001726268 3.513878e-23)
(-0.2187138 0.01896579 9.856091e-23)
(-0.2077792 0.06862782 -6.839515e-23)
(-0.190508 0.1531782 6.058806e-24)
(-0.1677366 0.2703934 6.412876e-23)
(-0.1373226 0.4155695 2.10905e-23)
(-0.09967066 0.5833767 -1.395896e-23)
(-0.1495501 0.006067694 1.39772e-23)
(-0.1449126 0.03037735 1.123805e-23)
(-0.1358791 0.08566107 -2.36678e-23)
(-0.1229064 0.17651 1.183377e-23)
(-0.1055311 0.3032256 3.578473e-23)
(-0.07988061 0.4542252 -1.025296e-23)
(-0.04750871 0.6309295 5.934136e-23)
(-0.07237123 0.009501856 1.527904e-24)
(-0.06911761 0.03915405 6.270066e-24)
(-0.06337456 0.09832306 -4.910527e-24)
(-0.05512859 0.1943102 -1.961709e-23)
(-0.04339928 0.3249787 -2.355322e-23)
(-0.02656096 0.4843932 -6.990651e-23)
(-0.005532765 0.6688479 -4.746649e-23)
(0.008080683 0.01164049 1.591737e-23)
(0.009338229 0.04461706 6.84822e-24)
(0.01137153 0.1061449 9.346728e-24)
(0.01438151 0.205147 2.337292e-23)
(0.0189384 0.3382998 -8.153935e-24)
(0.02484934 0.5015277 -7.605671e-23)
(0.03139733 0.6901773 1.030145e-22)
(0.0891235 0.01212715 5.739636e-24)
(0.08840526 0.04589514 6.135471e-24)
(0.08690993 0.1079826 1.296132e-24)
(0.08469875 0.207323 2.651322e-23)
(0.08088575 0.3402802 1.246809e-23)
(0.07524149 0.5027918 -7.804806e-23)
(0.06642111 0.6900036 -4.617941e-23)
(0.1659508 0.01064242 -5.624152e-23)
(0.1636732 0.04241929 -1.058954e-23)
(0.1587932 0.1035544 1.243115e-23)
(0.1517795 0.2005096 -7.215021e-24)
(0.1402611 0.329662 8.397352e-26)
(0.1243569 0.4875788 4.722511e-23)
(0.1021384 0.6683716 -5.604062e-23)
(0.2377708 0.007831214 3.797308e-23)
(0.2345531 0.0355671 -9.303233e-23)
(0.2270638 0.09405455 -1.489536e-24)
(0.2156693 0.1868779 4.198789e-24)
(0.1980306 0.3099489 -5.46912e-23)
(0.1739458 0.4608003 -2.47125e-23)
(0.141881 0.6330729 -1.981355e-23)
(0.3043723 0.004114033 1.113507e-22)
(0.300784 0.02660234 -1.336763e-22)
(0.292266 0.08086443 3.350756e-23)
(0.2770062 0.1685269 7.185828e-23)
(0.2548575 0.2847655 -1.645942e-24)
(0.2245359 0.4269743 -2.665006e-24)
(0.1878294 0.5906012 5.068153e-22)
(0.3625927 -0.0001143892 2.923288e-25)
(0.3592506 0.01661974 -9.050749e-23)
(0.351666 0.06543813 2.259449e-22)
(0.335519 0.1468292 -3.95464e-23)
(0.3117487 0.2569659 -3.001919e-24)
(0.2792821 0.3887729 -1.987896e-22)
(0.23888 0.5365513 -8.197892e-23)
(0.4099997 -0.004512864 3.412572e-22)
(0.4085658 0.00548992 1.135377e-22)
(0.4014887 0.04880631 3.301874e-22)
(0.388569 0.1238891 1.439948e-22)
(0.3659369 0.2255893 4.094836e-24)
(0.3342128 0.3467756 -1.198332e-22)
(0.2933115 0.4848916 -2.255343e-22)
(0.4453256 -0.006486889 3.818373e-22)
(0.448171 -0.002446598 4.592549e-23)
(0.4439573 0.0355005 3.132516e-22)
(0.4344029 0.1040484 2.405752e-22)
(0.4143286 0.1968955 4.061377e-23)
(0.3838119 0.3084144 1.709859e-22)
(0.343021 0.4371147 8.67482e-23)
(0.4692336 -0.005938464 2.099667e-22)
(0.4767897 -0.004708107 1.48387e-22)
(0.4769261 0.02599516 1.848298e-22)
(0.4705702 0.08668214 2.63647e-23)
(0.4537064 0.1710791 1.628566e-22)
(0.42545 0.2728418 -1.649281e-23)
(0.388617 0.3917518 -2.329329e-23)
(0.482114 -0.002900604 1.925392e-22)
(0.492547 -0.001503547 6.772531e-22)
(0.4972622 0.02166469 -9.513459e-23)
(0.4949661 0.07288764 2.609648e-23)
(0.483497 0.1499892 1.684747e-22)
(0.4595457 0.2424684 -1.953082e-22)
(0.4293015 0.3493218 -3.33025e-22)
(0.484794 0.001089311 4.978958e-23)
(0.4954435 0.00573282 4.014781e-22)
(0.50416 0.02292583 -1.149765e-22)
(0.5074218 0.06491141 3.278383e-23)
(0.5037947 0.1311559 -1.34887e-22)
(0.4864574 0.2176112 7.086841e-23)
(0.4593645 0.3160917 -1.084539e-22)
(0.4784925 0.004510366 0)
(0.4875367 0.01488283 -3.342735e-23)
(0.4982176 0.03056499 -5.691464e-23)
(0.5087238 0.06328958 3.553227e-22)
(0.5098399 0.1212519 -8.616874e-23)
(0.4988345 0.1973057 1.891603e-22)
(0.4744221 0.2895577 -4.861832e-22)
(0.4653133 0.00718266 0)
(0.4723559 0.02278314 4.708882e-25)
(0.4820479 0.04178088 -5.894331e-23)
(0.4949711 0.06972232 1.508221e-22)
(0.5006843 0.1154941 1.068236e-23)
(0.4957224 0.1817748 -1.146023e-22)
(0.4799816 0.2616734 -4.197554e-22)
(0.4469785 0.009278741 4.581196e-23)
(0.4512262 0.02932239 0)
(0.4585708 0.05215542 0)
(0.4693351 0.07938307 3.404209e-23)
(0.4781161 0.1170068 -2.305967e-22)
(0.480654 0.1698518 -4.410057e-23)
(0.4702601 0.2434041 -1.906953e-22)
(0.4242364 0.01094392 4.346455e-23)
(0.4261203 0.03405475 3.978731e-25)
(0.4308206 0.05962975 7.262674e-25)
(0.4376959 0.08875052 7.186238e-24)
(0.4467953 0.1217035 -2.992141e-22)
(0.4511329 0.16641 -1.06693e-22)
(0.4460233 0.2248503 -3.735551e-22)
(0.3983555 0.01209362 0)
(0.3984757 0.03723011 -4.063014e-23)
(0.4005993 0.06454513 0)
(0.4049351 0.09366341 2.22386e-24)
(0.4088796 0.1278054 3.097802e-24)
(0.4120257 0.1669705 -7.130871e-23)
(0.4111285 0.2133172 -2.718209e-23)
(0.3705248 0.01279833 0)
(0.3693109 0.03914975 3.739745e-23)
(0.3700521 0.06628632 -3.742862e-23)
(0.3706425 0.09653539 0)
(0.3708852 0.1296466 6.116084e-24)
(0.3708135 0.1654192 -2.073585e-23)
(0.3673033 0.206468 7.624428e-23)
(0.3417249 0.01314978 0)
(0.3401933 0.0393995 1.036779e-22)
(0.3389428 0.06706136 4.663136e-26)
(0.3372333 0.09642862 7.206631e-23)
(0.3349803 0.1273376 6.157292e-24)
(0.3305064 0.1617084 -3.268711e-23)
(0.3229409 0.1998818 3.464358e-23)
(0.3131241 0.01298469 -3.206916e-23)
(0.311111 0.03916432 3.211585e-23)
(0.3087965 0.06593083 -9.572232e-27)
(0.3057476 0.09376159 5.99423e-23)
(0.3009751 0.1230292 0)
(0.2940055 0.1538325 0)
(0.2849099 0.1869943 4.402189e-23)
(0.2851464 0.01260814 -2.913334e-23)
(0.2829015 0.0380225 2.903743e-23)
(0.2799355 0.06377641 -2.829764e-23)
(0.2758887 0.08989649 -2.770553e-23)
(0.2695393 0.1174606 0)
(0.2606161 0.1465085 0)
(0.250715 0.1745497 3.100474e-23)
(0.2582931 0.0120225 2.648392e-23)
(0.2559388 0.03625091 2.691846e-23)
(0.252705 0.06039303 7.393707e-25)
(0.247708 0.08516055 -2.380992e-23)
(0.240455 0.1105619 -7.637116e-24)
(0.2315187 0.1356429 3.525808e-23)
(0.2189039 0.1623394 -1.716526e-23)
(0.2329803 0.0112717 2.396585e-23)
(0.2306878 0.03393539 2.138445e-25)
(0.2271041 0.05663716 -7.058481e-25)
(0.2217168 0.07952263 -1.000061e-24)
(0.2142159 0.1028252 0)
(0.2047114 0.1257386 2.264129e-23)
(0.1919446 0.1492482 -1.877073e-23)
(0.2093887 0.01051003 0)
(0.2071721 0.03150805 3.91524e-25)
(0.2034062 0.05261607 6.628318e-25)
(0.1976139 0.07400642 -4.575627e-23)
(0.1906581 0.09431645 -8.75756e-24)
(0.1804659 0.1155842 -3.261095e-23)
(0.1685029 0.1359891 -1.300845e-23)
(0.1876643 0.009656452 5.918548e-26)
(0.1854637 0.02900585 1.835346e-25)
(0.1817203 0.04822487 0)
(0.176342 0.06744908 5.043174e-26)
(0.1686895 0.0866035 -1.677267e-23)
(0.1592901 0.1052286 -1.570644e-23)
(0.1479743 0.1230986 3.119756e-24)
(0.1677576 0.008846049 -1.721736e-23)
(0.1656126 0.02659294 1.731256e-23)
(0.1618292 0.04435069 -2.999298e-23)
(0.1569644 0.06137029 3.475808e-23)
(0.1494457 0.07869161 -1.386207e-23)
(0.1406493 0.09514682 0)
(0.1300142 0.110824 -2.813111e-24)
(0.1496032 0.008066662 -1.543611e-23)
(0.1474475 0.02431777 1.489835e-23)
(0.1442094 0.04001704 -1.442583e-23)
(0.1390924 0.05584039 0)
(0.1323669 0.07110198 1.321118e-23)
(0.1241782 0.08566001 0)
(0.1143279 0.09943349 -1.124087e-23)
(0.1331821 0.007271103 0)
(0.1313277 0.02187635 0)
(0.128045 0.0363218 2.59296e-23)
(0.1233327 0.05040157 0)
(0.1171958 0.06395119 2.341328e-23)
(0.1096147 0.07687959 1.087871e-23)
(0.1004922 0.08911765 -9.878492e-24)
(0.1183505 0.006620984 1.218288e-23)
(0.116763 0.01969401 0)
(0.1136602 0.03269708 1.131209e-23)
(0.1093439 0.04526187 -1.130832e-23)
(0.1037186 0.05731113 1.037034e-23)
(0.09676953 0.0687176 1.922681e-23)
(0.08840714 0.07932184 8.702457e-24)
(0.1051444 0.005924912 1.081222e-23)
(0.1035802 0.01775332 1.053566e-23)
(0.1008166 0.02933657 0)
(0.09689066 0.0405329 -1.02849e-23)
(0.09178151 0.0512337 -6.537758e-25)
(0.08550655 0.0612844 1.780069e-23)
(0.07802618 0.07048237 2.694394e-24)
(0.09328897 0.00531716 9.619645e-24)
(0.09185474 0.01590249 9.398806e-24)
(0.08936862 0.02624113 -9.089791e-24)
(0.08581098 0.03622743 0)
(0.08119276 0.0457616 0)
(0.07552103 0.05477034 7.523657e-24)
(0.06866223 0.06330372 -1.287299e-23)
(0.08269223 0.004751725 8.532985e-24)
(0.08140052 0.01420844 8.34301e-24)
(0.07916773 0.02342434 -8.057268e-24)
(0.07595857 0.03231497 0)
(0.07179238 0.04077855 -5.204567e-25)
(0.0666661 0.04871255 -9.139835e-28)
(0.0604901 0.05608031 7.178249e-25)
(0.07324121 0.004237778 0)
(0.07209393 0.0126674 7.394369e-24)
(0.07009252 0.02087418 -7.147436e-24)
(0.06721106 0.02878011 0)
(0.0634719 0.03628959 6.858355e-24)
(0.05887978 0.04331253 1.108546e-24)
(0.05336646 0.04981075 6.382517e-25)
(0.06482922 0.00377329 -6.704268e-24)
(0.0638163 0.01127714 3.593867e-26)
(0.06202856 0.01857761 -6.27022e-24)
(0.05945242 0.0256011 1.635955e-25)
(0.05611023 0.03225785 2.015219e-25)
(0.05199546 0.03847602 5.200831e-24)
(0.04708727 0.04419092 0)
(0.05735222 0.003355831 -1.187288e-23)
(0.0564607 0.01002876 0)
(0.05486822 0.01651905 0)
(0.0525698 0.02276205 -5.489655e-24)
(0.0495749 0.0286944 -1.019649e-23)
(0.04580597 0.03431037 4.584108e-24)
(0.04154041 0.0391676 0)
(0.05071297 0.002981935 -5.254198e-24)
(0.0499298 0.008910788 2.846513e-26)
(0.04851462 0.01467514 4.709719e-26)
(0.04646806 0.02021226 1.326881e-25)
(0.04379675 0.02544876 -4.263121e-24)
(0.04047082 0.03035322 0)
(0.03654701 0.0348196 3.634768e-24)
(0.04482166 0.002648174 4.209883e-27)
(0.04413507 0.007913035 4.588033e-24)
(0.04288106 0.01303058 4.43787e-24)
(0.04106567 0.01794333 8.371675e-24)
(0.03869834 0.02258775 0)
(0.03576429 0.02694224 3.535091e-24)
(0.03224762 0.03090194 -4.28208e-27)
(0.0395961 0.002351095 4.108262e-24)
(0.03899514 0.007025418 8.060041e-24)
(0.03788674 0.01156822 7.814063e-24)
(0.03627995 0.01592677 3.804771e-24)
(0.03417602 0.0200506 1.289341e-25)
(0.03158465 0.02390594 3.124653e-24)
(0.02847192 0.0274151 -3.017265e-24)
(0.03496153 0.002087533 3.634237e-24)
(0.03443573 0.006238149 7.116756e-24)
(0.03345638 0.01027432 3.437758e-24)
(0.03202845 0.01415665 0)
(0.0301129 0.01787193 8.729215e-25)
(0.02787806 0.0212031 1.321676e-24)
(0.02513654 0.02432857 3.130721e-25)
(0.03085069 0.001853554 3.214099e-24)
(0.03039072 0.005538946 3.135152e-24)
(0.02952576 0.009121762 -8.800487e-26)
(0.02826139 0.0125598 -8.091645e-26)
(0.02658614 0.01583079 0)
(0.02453311 0.01886959 2.477301e-24)
(0.02217981 0.02160339 -1.394468e-25)
(0.02720359 0.001646454 2.837184e-24)
(0.02680164 0.004920064 2.769306e-24)
(0.02603975 0.008102917 -5.219335e-26)
(0.02492599 0.01115764 -3.597735e-26)
(0.02345536 0.01406824 0)
(0.02162207 0.0167709 2.077185e-24)
(0.01956209 0.01919056 -2.480494e-25)
(0.02396615 0.001463429 -2.343295e-27)
(0.02361524 0.004373359 4.892906e-24)
(0.02294486 0.007203158 -2.31962e-26)
(0.02196377 0.009920047 -3.201895e-26)
(0.02066902 0.0125093 0)
(0.01905054 0.01491138 0)
(0.0172382 0.01706153 0)
(0.02108994 0.001302168 0)
(0.02078385 0.003891316 2.158973e-24)
(0.02019477 0.006409389 0)
(0.01932772 0.008829977 -1.93035e-24)
(0.01819151 0.01113244 7.178945e-26)
(0.01676774 0.01327112 8.586779e-26)
(0.01517318 0.01518522 -1.435247e-24)
(0.01853151 0.001160409 1.938813e-24)
(0.018264 0.00346842 0)
(0.01774421 0.005717569 -3.678111e-26)
(0.01695845 0.007898507 -1.407005e-24)
(0.01598824 0.009916095 2.130222e-24)
(0.01473766 0.01182742 0)
(0.01333608 0.0135343 -1.349286e-24)
(0.01625221 0.001035407 1.702648e-24)
(0.01601827 0.003094856 0)
(0.01556165 0.005099782 -1.647763e-26)
(0.01488221 0.007038256 -2.278856e-26)
(0.01399567 0.008872781 2.866356e-24)
(0.01292678 0.01056222 -1.318444e-24)
(0.01169929 0.01208492 1.187042e-24)
(0.01421762 0.0009260152 0)
(0.01401396 0.002768059 1.453673e-24)
(0.01361519 0.004561829 -1.478488e-26)
(0.01302424 0.006298649 -1.336723e-24)
(0.0122394 0.007942108 1.255242e-24)
(0.0113114 0.009451105 -1.154765e-24)
(0.01023793 0.01081502 -9.495098e-28)
(0.01239688 0.0008306806 0)
(0.01222012 0.00248303 1.277161e-24)
(0.01187272 0.004092683 -1.234857e-24)
(0.01135787 0.005651867 -1.185153e-24)
(0.01067213 0.007127 1.073801e-24)
(0.009864617 0.008481554 -5.511496e-26)
(0.008929594 0.009706678 -9.083875e-25)
(0.01076295 0.0007479554 0)
(0.01060907 0.002235472 0)
(0.01030774 0.003684941 -1.073478e-24)
(0.009860642 0.005089465 1.015129e-24)
(0.009265632 0.006418259 -5.957061e-28)
(0.008565312 0.007639146 0)
(0.007754441 0.00874375 0)
(0.009290176 0.0006757992 9.800793e-25)
(0.009157015 0.002021141 -9.606368e-25)
(0.008896592 0.003332854 -4.533937e-25)
(0.008510499 0.004603492 8.917995e-25)
(0.007997343 0.005806071 5.18456e-28)
(0.007393796 0.006911338 -4.500669e-26)
(0.006694811 0.007911867 -1.476445e-29)
(0.007956533 0.0006144724 -8.400846e-29)
(0.007841167 0.001837432 -8.240476e-25)
(0.007617997 0.003030551 -3.882269e-25)
(0.00728721 0.004186897 1.362547e-26)
(0.00684777 0.005281434 1.430368e-24)
(0.006331972 0.006287765 2.050137e-26)
(0.005734934 0.007199066 0)
(0.006740752 0.0005609287 -7.144964e-25)
(0.006642928 0.00168087 3.499319e-25)
(0.006451229 0.002775353 3.377508e-25)
(0.006172013 0.003833092 0)
(0.005799708 0.004836519 5.989051e-25)
(0.005364031 0.005759463 1.879098e-26)
(0.004859878 0.006595014 2.154114e-26)
(0.005624108 0.0005186812 0)
(0.005541932 0.001552452 2.926626e-25)
(0.005372827 0.002568471 2.168758e-25)
(0.005149832 0.003537242 -9.032544e-26)
(0.004838112 0.004465515 2.648966e-25)
(0.004474646 0.005318393 1.737039e-26)
(0.004050547 0.006086868 0)
(0.004590321 0.0004831655 0)
(0.004521033 0.001445632 2.347898e-27)
(0.004385805 0.002390373 -3.875388e-27)
(0.004193447 0.003303101 2.185175e-25)
(0.003945666 0.004162753 1.343453e-26)
(0.003646663 0.004951726 -1.277677e-25)
(0.003329659 0.005704126 -2.899205e-25)
(0.003622483 0.0004547435 -3.679743e-28)
(0.003566179 0.001361229 1.865492e-25)
(0.003458372 0.002252773 3.591315e-25)
(0.003303893 0.003112618 3.343971e-25)
(0.003108187 0.003914624 -2.74253e-25)
(0.002901156 0.004695522 -1.214848e-25)
(0.002651182 0.00539756 4.507696e-27)
(0.002704134 0.0004323685 -1.469125e-25)
(0.002659922 0.001297365 2.852385e-25)
(0.002578137 0.002148693 2.744769e-25)
(0.002460358 0.00296211 1.331284e-25)
(0.002343677 0.003764139 -3.996275e-27)
(0.002192044 0.004499039 0)
(0.002010324 0.005167322 -1.726949e-27)
(0.001814959 0.0004148017 -1.00871e-25)
(0.001782109 0.001254632 9.691894e-26)
(0.001729044 0.002070495 5.286587e-26)
(0.00168068 0.002896031 1.492617e-25)
(0.00160883 0.003660047 9.345871e-26)
(0.001514131 0.00436777 0)
(0.001397879 0.005010995 7.481155e-31)
(0.0008662308 0.0004110616 3.290416e-28)
(0.0008880753 0.001228674 1.804303e-27)
(0.0009277854 0.002074095 0)
(0.0009230013 0.002868939 0)
(0.0009001938 0.00361107 9.467733e-26)
(0.000858974 0.004299067 3.908991e-28)
(0.000805585 0.004926031 -1.280462e-25)
(0.0002322735 0.0004501612 2.647425e-26)
(0.000118456 0.001335688 1.463149e-28)
(0.000147593 0.002143752 -1.0971e-25)
(0.000188917 0.002898098 0)
(0.0002110022 0.003617268 0)
(0.0002181721 0.004291154 1.242368e-28)
(0.0002250052 0.004910917 0)
(-0.0002774047 0.005506902 -3.905761e-29)
(-0.0001895946 0.005977923 -1.571813e-25)
(-9.608604e-05 0.006365198 -4.190299e-26)
(7.381356e-05 0.006592386 4.924581e-33)
(0.0001526398 0.006763154 -4.457748e-26)
(0.0002297011 0.006826492 0)
(0.0002330846 0.005902319 -3.905099e-26)
(-0.000799046 0.005619387 1.464682e-25)
(-0.0006288216 0.006099663 1.60112e-25)
(-0.0004391567 0.006472028 0)
(-0.000163157 0.006731882 -4.428333e-26)
(-2.750544e-05 0.006881017 -4.597534e-26)
(0.0001538461 0.006918779 -2.557463e-29)
(0.000331837 0.006046278 -3.976786e-26)
(-0.001341979 0.005815146 -1.530486e-25)
(-0.001088794 0.006324142 -3.314073e-25)
(-0.0008154896 0.006759553 -1.775193e-25)
(-0.000502451 0.007044948 0)
(-0.0002091003 0.007125584 4.058915e-28)
(9.092683e-05 0.007162923 0)
(0.0004515572 0.006326825 4.183914e-26)
(-0.001913043 0.006090734 1.588612e-25)
(-0.001571301 0.006617217 1.730437e-25)
(-0.001204642 0.007021178 4.601287e-26)
(-0.000775089 0.007165116 9.402966e-26)
(-0.0004416405 0.007454522 0)
(-1.153865e-05 0.007531716 -9.949893e-26)
(0.000447622 0.006728543 -5.508438e-29)