/*--------------------------------*- C++ -*----------------------------------*\
| =========                 |                                                 |
| \\      /  F ield         | OpenFOAM: The Open Source CFD Toolbox           |
|  \\    /   O peration     | Version:  2206                                  |
|   \\  /    A nd           | Website:  www.openfoam.com                      |
|    \\/     M anipulation  |                                                 |
\*---------------------------------------------------------------------------*/
FoamFile
{
    version     2.0;
    format      ascii;
    arch        "LSB;label=32;scalar=64";
    class       volScalarField;
    location    "2.2";
    object      k.b;
}
// * * * * * * * * * * * * * * * * * * * * * * * * * * * * * * * * * * * * * //

dimensions      [0 2 -2 0 0 0 0];

internalField   nonuniform List<scalar> 
13078
(
1.042233e-13
4.567235e-11
6.281875e-11
6.341112e-11
6.38504e-11
6.437992e-11
6.499983e-11
4.224333e-14
3.959044e-11
6.237278e-11
6.335479e-11
6.383024e-11
6.436497e-11
6.498539e-11
9.057816e-14
3.946392e-11
6.228452e-11
6.331029e-11
6.380157e-11
6.434418e-11
6.496733e-11
5.850003e-14
3.967387e-11
6.226192e-11
6.327579e-11
6.37745e-11
6.432262e-11
6.494806e-11
4.843123e-14
3.975303e-11
6.224819e-11
6.325811e-11
6.375233e-11
6.430229e-11
6.492915e-11
4.571815e-14
3.979845e-11
6.224348e-11
6.32473e-11
6.374225e-11
6.428509e-11
6.491116e-11
4.563306e-14
3.981315e-11
6.223537e-11
6.323966e-11
6.373539e-11
6.427841e-11
6.489543e-11
4.708034e-14
3.980886e-11
6.222672e-11
6.323541e-11
6.373136e-11
6.427391e-11
6.489036e-11
4.934137e-14
3.980133e-11
6.222865e-11
6.323435e-11
6.372914e-11
6.427083e-11
6.488675e-11
5.22033e-14
3.978333e-11
6.222995e-11
6.323409e-11
6.372783e-11
6.426867e-11
6.4884e-11
5.565297e-14
3.975819e-11
6.223064e-11
6.323416e-11
6.3727e-11
6.426706e-11
6.48817e-11
5.976841e-14
3.972755e-11
6.223076e-11
6.323433e-11
6.372644e-11
6.426576e-11
6.487975e-11
6.467162e-14
3.969268e-11
6.223043e-11
6.323444e-11
6.372601e-11
6.426465e-11
6.487798e-11
7.053251e-14
3.965397e-11
6.222971e-11
6.323435e-11
6.372535e-11
6.426355e-11
6.487624e-11
7.756152e-14
3.961207e-11
6.222803e-11
6.323156e-11
6.3721e-11
6.426206e-11
6.487454e-11
8.603087e-14
3.956713e-11
6.222583e-11
6.322792e-11
6.371758e-11
6.42607e-11
6.487277e-11
9.629114e-14
3.951953e-11
6.222424e-11
6.322732e-11
6.371662e-11
6.425945e-11
6.487094e-11
1.087937e-13
3.946928e-11
6.222239e-11
6.322681e-11
6.37157e-11
6.425815e-11
6.486902e-11
1.241114e-13
3.941611e-11
6.222031e-11
6.322626e-11
6.371456e-11
6.425639e-11
6.486702e-11
1.429814e-13
3.936036e-11
6.221799e-11
6.322533e-11
6.370952e-11
6.42489e-11
6.486432e-11
1.663391e-13
3.930166e-11
6.221552e-11
6.322426e-11
6.370343e-11
6.42429e-11
6.486156e-11
1.953837e-13
3.924012e-11
6.221298e-11
6.322351e-11
6.370155e-11
6.424064e-11
6.485909e-11
2.316329e-13
3.917541e-11
6.22102e-11
6.32226e-11
6.37e-11
6.423805e-11
6.485586e-11
2.770039e-13
3.910744e-11
6.22073e-11
6.322164e-11
6.369788e-11
6.422998e-11
6.484396e-11
3.338921e-13
3.903587e-11
6.220425e-11
6.322061e-11
6.369558e-11
6.422041e-11
6.483437e-11
4.052678e-13
3.896036e-11
6.22009e-11
6.321948e-11
6.369351e-11
6.421654e-11
6.482988e-11
4.947794e-13
3.888194e-11
6.219738e-11
6.32183e-11
6.369131e-11
6.421305e-11
6.482468e-11
6.068465e-13
3.878989e-11
6.219311e-11
6.321705e-11
6.368884e-11
6.420892e-11
6.48115e-11
7.468586e-13
3.87093e-11
6.21895e-11
6.321573e-11
6.368615e-11
6.420427e-11
6.479651e-11
9.215698e-13
3.84697e-11
6.217853e-11
6.321414e-11
6.368334e-11
6.419988e-11
6.47889e-11
1.141428e-12
3.821634e-11
6.217674e-11
6.321281e-11
6.368032e-11
6.41952e-11
6.4782e-11
1.411877e-12
3.779087e-11
6.21693e-11
6.321101e-11
6.367732e-11
6.419013e-11
6.477426e-11
1.743873e-12
3.725432e-11
6.212432e-11
6.320165e-11
6.367326e-11
6.418428e-11
6.476635e-11
2.147497e-12
3.706843e-11
6.209058e-11
6.319291e-11
6.366741e-11
6.417652e-11
6.47562e-11
2.634343e-12
3.687838e-11
6.207304e-11
6.317853e-11
6.364049e-11
6.416112e-11
6.474032e-11
3.216568e-12
3.667128e-11
6.204395e-11
6.315648e-11
6.360431e-11
6.411629e-11
6.471285e-11
3.903637e-12
3.64471e-11
6.199865e-11
6.311769e-11
6.356358e-11
6.407037e-11
6.468369e-11
4.696857e-12
3.619823e-11
6.193519e-11
6.307105e-11
6.35214e-11
6.403083e-11
6.464923e-11
5.587163e-12
3.59223e-11
6.186126e-11
6.302437e-11
6.348782e-11
6.400756e-11
6.463295e-11
6.564789e-12
3.542013e-11
6.177833e-11
6.297878e-11
6.344525e-11
6.397263e-11
6.460201e-11
7.620745e-12
3.452925e-11
6.168032e-11
6.290867e-11
6.337025e-11
6.389885e-11
6.455269e-11
8.653618e-12
3.364962e-11
6.150596e-11
6.276515e-11
6.323502e-11
6.37715e-11
6.444985e-11
9.619787e-12
3.322512e-11
6.130445e-11
6.257592e-11
6.301696e-11
6.362381e-11
6.432979e-11
1.044734e-11
3.284649e-11
6.111044e-11
6.240326e-11
6.283793e-11
6.342021e-11
6.420851e-11
1.107792e-11
3.236715e-11
6.09493e-11
6.225322e-11
6.273116e-11
6.327483e-11
6.392329e-11
1.147343e-11
3.165473e-11
6.080627e-11
6.209609e-11
6.258407e-11
6.309736e-11
6.364885e-11
1.146853e-11
3.08528e-11
6.065012e-11
6.196871e-11
6.235807e-11
6.283135e-11
6.335514e-11
1.098195e-11
3.037045e-11
6.048224e-11
6.183697e-11
6.214504e-11
6.251065e-11
6.299441e-11
9.993175e-12
2.987465e-11
6.028954e-11
6.164441e-11
6.195837e-11
6.231984e-11
6.273508e-11
8.578123e-12
2.941236e-11
6.010449e-11
6.146029e-11
6.174161e-11
6.206639e-11
6.248652e-11
6.897204e-12
2.855386e-11
5.990511e-11
6.131313e-11
6.157906e-11
6.18778e-11
6.222652e-11
5.056742e-12
2.727313e-11
5.967402e-11
6.116755e-11
6.144068e-11
6.174604e-11
6.208908e-11
3.230239e-12
2.668739e-11
5.945542e-11
6.108765e-11
6.138404e-11
6.17262e-11
6.200791e-11
1.760154e-12
2.636328e-11
5.932428e-11
6.099633e-11
6.131892e-11
6.165634e-11
6.193998e-11
8.636716e-13
2.613451e-11
5.926901e-11
6.09688e-11
6.131762e-11
6.165817e-11
6.19906e-11
1.136185e-12
2.598066e-11
5.92422e-11
6.096995e-11
6.134076e-11
6.170099e-11
6.205647e-11
1.88877e-12
2.603212e-11
5.922435e-11
6.092715e-11
6.128382e-11
6.164057e-11
6.200721e-11
2.760311e-12
2.626498e-11
5.926148e-11
6.090907e-11
6.124182e-11
6.157492e-11
6.190375e-11
4.239775e-12
2.657338e-11
5.93331e-11
6.092893e-11
6.123128e-11
6.154458e-11
6.179995e-11
6.153477e-12
2.699772e-11
5.944624e-11
6.096566e-11
6.122471e-11
6.152153e-11
6.175439e-11
7.989815e-12
2.768663e-11
5.963764e-11
6.098818e-11
6.123283e-11
6.152054e-11
6.183405e-11
9.496075e-12
2.904073e-11
5.991013e-11
6.119387e-11
6.140796e-11
6.16496e-11
6.192423e-11
1.07481e-11
2.999376e-11
6.012034e-11
6.130634e-11
6.152529e-11
6.178036e-11
6.211364e-11
1.161506e-11
3.051718e-11
6.030856e-11
6.146944e-11
6.171049e-11
6.200281e-11
6.236676e-11
1.200148e-11
3.101003e-11
6.051371e-11
6.167118e-11
6.192129e-11
6.227344e-11
6.267185e-11
1.18921e-11
3.13903e-11
6.071689e-11
6.186602e-11
6.219276e-11
6.260659e-11
6.303028e-11
1.147515e-11
3.207093e-11
6.092049e-11
6.206507e-11
6.246929e-11
6.291172e-11
6.337149e-11
1.083873e-11
3.273111e-11
6.108334e-11
6.229391e-11
6.268304e-11
6.315529e-11
6.369876e-11
1.002574e-11
3.318938e-11
6.12386e-11
6.248061e-11
6.288317e-11
6.335514e-11
6.401065e-11
9.062358e-12
3.355406e-11
6.14189e-11
6.264921e-11
6.30857e-11
6.361309e-11
6.419821e-11
8.024902e-12
3.395931e-11
6.160266e-11
6.28201e-11
6.327593e-11
6.379525e-11
6.439989e-11
6.980855e-12
3.468283e-11
6.175173e-11
6.294959e-11
6.339754e-11
6.391626e-11
6.454798e-11
5.965076e-12
3.538451e-11
6.184123e-11
6.301225e-11
6.346753e-11
6.39844e-11
6.459418e-11
5.034065e-12
3.58006e-11
6.191284e-11
6.306183e-11
6.351488e-11
6.401831e-11
6.462188e-11
4.199066e-12
3.604613e-11
6.197673e-11
6.310739e-11
6.355428e-11
6.404899e-11
6.465064e-11
3.467355e-12
3.637025e-11
6.202829e-11
6.314708e-11
6.359339e-11
6.409542e-11
6.469891e-11
2.841146e-12
3.664573e-11
6.205681e-11
6.31711e-11
6.36236e-11
6.41427e-11
6.472732e-11
2.313638e-12
3.687753e-11
6.207417e-11
6.318296e-11
6.364792e-11
6.41676e-11
6.47451e-11
1.876663e-12
3.708754e-11
6.20882e-11
6.319314e-11
6.366786e-11
6.417695e-11
6.475606e-11
1.517601e-12
3.725781e-11
6.211953e-11
6.320083e-11
6.367227e-11
6.4183e-11
6.476451e-11
1.224771e-12
3.778648e-11
6.216387e-11
6.320985e-11
6.367606e-11
6.41885e-11
6.477228e-11
9.880292e-13
3.820426e-11
6.217016e-11
6.321156e-11
6.367909e-11
6.419367e-11
6.478011e-11
7.97318e-13
3.845357e-11
6.217165e-11
6.321293e-11
6.368212e-11
6.419847e-11
6.478715e-11
6.456188e-13
3.869008e-11
6.218267e-11
6.321455e-11
6.368504e-11
6.420293e-11
6.479483e-11
5.244976e-13
3.876958e-11
6.218655e-11
6.321589e-11
6.368779e-11
6.420764e-11
6.480998e-11
4.280644e-13
3.886149e-11
6.219119e-11
6.321727e-11
6.36903e-11
6.421184e-11
6.482329e-11
3.514368e-13
3.894052e-11
6.219515e-11
6.321856e-11
6.369259e-11
6.421544e-11
6.482861e-11
2.905497e-13
3.901712e-11
6.219902e-11
6.321978e-11
6.369475e-11
6.421945e-11
6.483325e-11
2.421068e-13
3.909005e-11
6.22026e-11
6.322085e-11
6.369714e-11
6.422915e-11
6.484298e-11
2.035044e-13
3.915948e-11
6.220598e-11
6.322191e-11
6.369932e-11
6.423725e-11
6.485496e-11
1.727137e-13
3.922573e-11
6.220921e-11
6.322291e-11
6.370096e-11
6.423996e-11
6.485824e-11
1.480701e-13
3.928881e-11
6.221217e-11
6.322378e-11
6.370298e-11
6.424233e-11
6.486085e-11
1.282185e-13
3.934906e-11
6.221508e-11
6.322496e-11
6.370919e-11
6.424847e-11
6.486377e-11
1.121401e-13
3.940633e-11
6.221782e-11
6.3226e-11
6.371429e-11
6.425606e-11
6.486659e-11
9.904753e-14
3.946104e-11
6.222034e-11
6.322662e-11
6.371549e-11
6.425787e-11
6.486862e-11
8.833404e-14
3.951286e-11
6.222257e-11
6.322722e-11
6.371647e-11
6.425919e-11
6.487055e-11
7.951449e-14
3.956208e-11
6.222454e-11
6.322793e-11
6.37175e-11
6.426047e-11
6.487243e-11
7.223252e-14
3.960875e-11
6.222715e-11
6.323169e-11
6.372099e-11
6.426189e-11
6.487426e-11
6.622403e-14
3.965258e-11
6.222928e-11
6.323457e-11
6.37254e-11
6.426341e-11
6.487594e-11
6.129172e-14
3.96935e-11
6.223046e-11
6.323475e-11
6.372607e-11
6.426448e-11
6.487761e-11
5.725923e-14
3.9731e-11
6.223127e-11
6.323472e-11
6.372649e-11
6.426547e-11
6.487921e-11
5.389295e-14
3.976501e-11
6.223169e-11
6.32346e-11
6.372693e-11
6.426655e-11
6.488089e-11
5.105399e-14
3.979474e-11
6.223162e-11
6.323445e-11
6.372747e-11
6.426778e-11
6.48828e-11
4.872666e-14
3.9819e-11
6.223095e-11
6.323439e-11
6.372823e-11
6.426932e-11
6.4885e-11
4.714631e-14
3.983527e-11
6.222943e-11
6.323465e-11
6.372945e-11
6.427147e-11
6.48878e-11
4.653755e-14
3.985185e-11
6.223774e-11
6.323725e-11
6.373182e-11
6.427455e-11
6.489181e-11
4.705141e-14
3.985385e-11
6.224406e-11
6.324182e-11
6.3736e-11
6.427932e-11
6.490623e-11
4.901621e-14
3.983031e-11
6.224383e-11
6.324729e-11
6.374241e-11
6.429415e-11
6.492284e-11
5.325445e-14
3.978479e-11
6.224818e-11
6.325739e-11
6.37599e-11
6.431201e-11
6.494067e-11
6.605997e-14
3.968397e-11
6.22609e-11
6.328227e-11
6.37825e-11
6.433202e-11
6.495966e-11
1.009755e-13
3.960597e-11
6.231371e-11
6.331674e-11
6.380907e-11
6.435356e-11
6.497906e-11
5.594821e-14
4.053003e-11
6.238046e-11
6.336091e-11
6.383988e-11
6.437591e-11
6.499818e-11
6.573871e-11
6.66772e-11
6.794437e-11
6.917639e-11
7.141124e-11
7.668662e-11
1.112781e-09
6.572245e-11
6.665624e-11
6.791644e-11
6.91435e-11
7.136903e-11
7.550207e-11
5.143435e-10
6.57041e-11
6.663453e-11
6.78898e-11
6.956951e-11
7.133293e-11
7.544024e-11
5.15491e-10
6.568491e-11
6.661238e-11
6.786082e-11
6.907636e-11
7.128707e-11
7.537731e-11
5.136772e-10
6.566595e-11
6.659002e-11
6.783338e-11
6.903961e-11
7.12452e-11
7.531396e-11
5.059714e-10
6.564735e-11
6.656766e-11
6.780511e-11
6.900519e-11
7.120415e-11
7.525059e-11
4.930765e-10
6.562941e-11
6.654568e-11
6.777714e-11
6.897214e-11
7.119273e-11
7.518767e-11
4.779526e-10
6.561331e-11
6.652411e-11
6.774959e-11
6.893984e-11
7.118225e-11
7.512418e-11
4.567271e-10
6.560869e-11
6.650441e-11
6.772338e-11
6.890701e-11
7.11496e-11
7.50636e-11
4.344846e-10
6.560528e-11
6.64991e-11
6.76991e-11
6.887447e-11
7.11174e-11
7.500138e-11
4.078709e-10
6.560238e-11
6.649517e-11
6.769259e-11
6.884301e-11
7.108548e-11
7.493829e-11
3.80118e-10
6.559967e-11
6.649135e-11
6.76876e-11
6.883614e-11
7.105343e-11
7.486977e-11
3.464258e-10
6.559713e-11
6.648765e-11
6.768254e-11
6.882999e-11
7.104793e-11
7.479808e-11
3.147042e-10
6.559462e-11
6.648396e-11
6.76774e-11
6.882362e-11
7.10418e-11
7.478702e-11
2.872119e-10
6.559211e-11
6.648013e-11
6.767208e-11
6.881703e-11
7.103527e-11
7.471799e-11
2.482683e-10
6.55895e-11
6.647617e-11
6.766659e-11
6.881018e-11
7.102829e-11
7.466433e-11
2.090778e-10
6.558683e-11
6.647205e-11
6.766091e-11
6.880283e-11
7.101793e-11
7.461536e-11
1.879225e-10
6.558405e-11
6.64679e-11
6.765486e-11
6.879174e-11
7.091998e-11
7.456475e-11
1.663656e-10
6.558114e-11
6.646373e-11
6.764867e-11
6.878367e-11
7.090677e-11
7.451874e-11
1.488715e-10
6.557803e-11
6.645932e-11
6.764214e-11
6.877531e-11
7.089604e-11
7.446985e-11
1.311581e-10
6.557479e-11
6.645467e-11
6.763536e-11
6.876652e-11
7.088481e-11
7.441909e-11
1.14757e-10
6.557126e-11
6.644973e-11
6.762836e-11
6.875716e-11
7.087304e-11
7.440382e-11
1.48336e-10
6.556757e-11
6.644444e-11
6.762017e-11
6.874745e-11
7.085848e-11
7.453885e-11
6.476785e-10
6.55627e-11
6.643877e-11
6.761348e-11
6.916365e-11
7.077083e-11
7.451736e-11
5.903693e-10
6.555766e-11
6.643276e-11
6.760305e-11
6.873023e-11
7.072112e-11
7.453332e-11
6.062302e-10
6.555293e-11
6.64264e-11
6.759427e-11
6.871402e-11
7.070365e-11
7.456724e-11
7.261837e-10
6.554672e-11
6.641898e-11
6.758427e-11
6.870122e-11
7.068505e-11
7.452749e-11
6.838308e-10
6.552748e-11
6.641055e-11
6.757173e-11
6.86876e-11
7.065983e-11
7.423778e-11
6.408834e-10
6.551176e-11
6.616542e-11
6.724616e-11
6.867101e-11
7.063665e-11
7.412109e-11
5.920163e-10
6.550065e-11
6.615318e-11
6.72338e-11
6.86567e-11
7.061472e-11
7.402713e-11
4.527555e-10
6.547601e-11
6.611913e-11
6.722145e-11
6.864003e-11
7.05912e-11
7.416044e-11
5.349359e-10
6.545803e-11
6.609565e-11
6.720836e-11
6.862175e-11
7.056535e-11
7.404025e-11
4.997531e-10
6.54452e-11
6.603776e-11
6.719241e-11
6.860216e-11
7.053754e-11
7.388652e-11
4.010893e-10
6.543395e-11
6.602019e-11
6.714223e-11
6.858236e-11
7.050796e-11
7.370378e-11
2.781823e-10
6.541791e-11
6.599715e-11
6.707851e-11
6.856151e-11
7.047434e-11
7.338929e-11
1.973933e-10
6.539619e-11
6.596938e-11
6.702088e-11
6.853395e-11
7.044088e-11
7.334886e-11
2.629086e-10
6.538533e-11
6.595165e-11
6.702399e-11
6.847501e-11
7.043008e-11
7.316683e-11
2.202731e-10
6.540055e-11
6.596958e-11
6.706151e-11
6.842482e-11
7.046019e-11
7.329815e-11
3.168169e-10
6.543406e-11
6.602357e-11
6.713893e-11
6.849693e-11
7.056265e-11
7.344263e-11
9.845624e-11
6.545794e-11
6.608446e-11
6.730001e-11
6.880582e-11
7.053197e-11
7.333569e-11
1.231895e-10
6.542702e-11
6.619093e-11
6.751005e-11
6.887884e-11
7.041228e-11
7.286658e-11
1.024706e-10
6.535637e-11
6.619856e-11
6.736304e-11
6.871123e-11
7.028557e-11
7.223413e-11
9.722591e-11
6.52616e-11
6.611548e-11
6.72585e-11
6.850984e-11
7.004178e-11
7.18684e-11
1.005961e-10
6.510599e-11
6.599178e-11
6.714877e-11
6.833328e-11
6.973098e-11
7.183642e-11
8.78497e-11
6.485751e-11
6.577039e-11
6.681666e-11
6.815623e-11
6.93365e-11
7.162414e-11
8.337607e-11
6.446868e-11
6.547715e-11
6.666449e-11
6.776991e-11
6.90735e-11
7.086784e-11
1.258217e-10
6.415967e-11
6.516082e-11
6.635758e-11
6.757852e-11
6.855685e-11
7.064987e-11
1.136155e-10
6.387034e-11
6.478756e-11
6.619995e-11
6.721315e-11
6.847384e-11
6.993351e-11
8.354479e-11
6.346633e-11
6.443005e-11
6.578547e-11
6.695218e-11
6.815913e-11
6.994958e-11
9.427722e-11
6.315585e-11
6.407513e-11
6.549924e-11
6.664953e-11
6.786236e-11
6.930164e-11
7.671319e-11
6.288134e-11
6.370662e-11
6.505387e-11
6.623075e-11
6.746415e-11
6.879421e-11
7.066518e-11
6.276015e-11
6.353922e-11
6.482985e-11
6.585236e-11
6.695084e-11
6.830941e-11
1.322668e-09
6.26671e-11
6.33641e-11
6.461903e-11
6.561227e-11
6.664789e-11
6.802453e-11
1.112786e-09
6.259819e-11
6.328465e-11
6.449448e-11
6.546545e-11
6.62508e-11
6.783982e-11
8.940485e-10
6.262121e-11
6.323872e-11
6.453775e-11
6.529363e-11
6.600721e-11
6.595545e-11
6.601255e-11
6.269026e-11
6.329841e-11
6.451856e-11
6.529941e-11
6.567212e-11
6.578633e-11
6.264768e-11
6.329813e-11
6.45701e-11
6.536641e-11
6.582123e-11
6.603354e-11
6.255721e-11
6.322593e-11
6.443087e-11
6.52245e-11
6.558659e-11
6.57502e-11
6.24432e-11
6.312963e-11
6.435544e-11
6.508798e-11
6.579576e-11
6.717937e-11
4.648491e-10
6.237563e-11
6.298452e-11
6.434604e-11
6.523063e-11
6.606083e-11
6.690503e-11
1.194786e-09
6.243258e-11
6.301965e-11
6.4311e-11
6.540855e-11
6.634288e-11
6.783813e-11
1.396766e-09
6.249671e-11
6.302521e-11
6.420655e-11
6.536113e-11
6.651081e-11
6.768529e-11
7.07596e-11
6.269884e-11
6.325509e-11
6.468967e-11
6.568391e-11
6.665775e-11
6.814491e-11
7.183956e-11
6.302203e-11
6.35757e-11
6.483083e-11
6.579184e-11
6.711929e-11
6.845359e-11
7.364771e-11
6.340608e-11
6.386453e-11
6.513929e-11
6.624161e-11
6.734132e-11
6.868713e-11
7.368506e-11
6.373558e-11
6.434477e-11
6.545717e-11
6.653063e-11
6.758378e-11
6.897881e-11
9.039296e-11
6.408534e-11
6.461847e-11
6.575113e-11
6.682367e-11
6.791607e-11
6.951904e-11
6.924223e-11
6.447953e-11
6.507763e-11
6.606562e-11
6.711083e-11
6.827718e-11
7.016033e-11
8.218828e-11
6.478836e-11
6.538928e-11
6.636327e-11
6.750485e-11
6.867116e-11
7.065146e-11
7.063497e-11
6.505087e-11
6.569615e-11
6.672763e-11
6.780654e-11
6.918312e-11
7.136206e-11
5.285022e-10
6.521499e-11
6.591675e-11
6.6943e-11
6.813835e-11
6.956363e-11
7.128834e-11
7.420131e-11
6.534925e-11
6.59982e-11
6.715793e-11
6.852686e-11
6.992718e-11
7.185778e-11
8.341827e-11
6.540066e-11
6.608072e-11
6.716469e-11
6.86554e-11
7.021162e-11
7.262798e-11
8.665236e-11
6.539135e-11
6.602175e-11
6.709519e-11
6.850005e-11
7.041975e-11
7.31741e-11
9.392523e-11
6.537557e-11
6.597297e-11
6.702592e-11
6.837507e-11
7.046448e-11
7.329553e-11
2.818598e-10
6.538327e-11
6.595408e-11
6.699734e-11
6.837944e-11
7.040381e-11
7.310919e-11
8.119791e-11
6.540257e-11
6.596761e-11
6.700442e-11
6.847034e-11
7.042253e-11
7.32105e-11
1.299587e-10
6.541981e-11
6.599022e-11
6.70436e-11
6.854104e-11
7.045147e-11
7.337788e-11
2.261853e-10
6.543228e-11
6.601433e-11
6.710118e-11
6.856325e-11
7.048128e-11
7.345034e-11
2.472483e-10
6.544244e-11
6.602105e-11
6.717452e-11
6.858437e-11
7.05119e-11
7.369652e-11
3.632735e-10
6.545527e-11
6.606418e-11
6.719541e-11
6.860553e-11
7.054192e-11
7.394504e-11
4.854499e-10
6.547355e-11
6.610199e-11
6.721058e-11
6.862521e-11
7.05699e-11
7.401225e-11
5.233731e-10
6.549847e-11
6.614428e-11
6.722378e-11
6.864329e-11
7.059546e-11
7.404112e-11
5.658807e-10
6.550974e-11
6.615097e-11
6.723639e-11
6.865979e-11
7.061892e-11
7.400739e-11
4.441628e-10
6.552562e-11
6.640807e-11
6.756849e-11
6.867921e-11
7.064155e-11
7.410379e-11
5.895678e-10
6.554496e-11
6.641668e-11
6.758125e-11
6.869237e-11
7.066795e-11
7.437192e-11
6.403526e-10
6.555136e-11
6.642432e-11
6.759172e-11
6.870579e-11
7.068985e-11
7.450957e-11
6.846673e-10
6.555625e-11
6.643094e-11
6.760124e-11
6.871831e-11
7.070848e-11
7.455296e-11
7.305663e-10
6.556147e-11
6.643721e-11
6.761024e-11
6.873012e-11
7.072809e-11
7.429663e-11
1.480347e-10
6.556648e-11
6.644299e-11
6.761858e-11
6.874139e-11
7.082439e-11
7.432882e-11
1.405313e-10
6.557026e-11
6.644841e-11
6.762648e-11
6.875191e-11
7.086407e-11
7.436603e-11
1.331294e-10
6.557389e-11
6.645357e-11
6.763391e-11
6.876167e-11
7.087647e-11
7.438661e-11
1.097709e-10
6.55773e-11
6.645836e-11
6.764091e-11
6.877097e-11
7.088839e-11
7.442965e-11
1.228e-10
6.558055e-11
6.646289e-11
6.764761e-11
6.877969e-11
7.089952e-11
7.447619e-11
1.386455e-10
6.558351e-11
6.646718e-11
6.765388e-11
6.8788e-11
7.091015e-11
7.45256e-11
1.568942e-10
6.558636e-11
6.647142e-11
6.766002e-11
6.879812e-11
7.09614e-11
7.457472e-11
1.770234e-10
6.558906e-11
6.647558e-11
6.76658e-11
6.880716e-11
7.102331e-11
7.46248e-11
1.995254e-10
6.559167e-11
6.647953e-11
6.767131e-11
6.881437e-11
7.103053e-11
7.467334e-11
2.258153e-10
6.559414e-11
6.648332e-11
6.767661e-11
6.882136e-11
7.103742e-11
7.473966e-11
2.618131e-10
6.559657e-11
6.648693e-11
6.768173e-11
6.882801e-11
7.104385e-11
7.47764e-11
2.898862e-10
6.559894e-11
6.64905e-11
6.768666e-11
6.88345e-11
7.105004e-11
7.482022e-11
3.181044e-10
6.560139e-11
6.649412e-11
6.769152e-11
6.884081e-11
7.106869e-11
7.488987e-11
3.471686e-10
6.560396e-11
6.649779e-11
6.769785e-11
6.886e-11
7.110041e-11
7.495823e-11
3.777481e-10
6.56069e-11
6.650272e-11
6.772186e-11
6.889246e-11
7.113249e-11
7.502256e-11
4.056732e-10
6.561091e-11
6.652192e-11
6.774769e-11
6.892527e-11
7.116476e-11
7.508458e-11
4.290396e-10
6.562622e-11
6.654296e-11
6.777487e-11
6.895849e-11
7.119588e-11
7.514815e-11
4.514032e-10
6.564335e-11
6.656445e-11
6.780253e-11
6.899014e-11
7.118408e-11
7.521291e-11
4.713e-10
6.566123e-11
6.658648e-11
6.783055e-11
6.9024e-11
7.122377e-11
7.527701e-11
4.861572e-10
6.567984e-11
6.660893e-11
6.785887e-11
6.905794e-11
7.126497e-11
7.534123e-11
4.966582e-10
6.569929e-11
6.663163e-11
6.78873e-11
6.909205e-11
7.130644e-11
7.54052e-11
5.026987e-10
6.571877e-11
6.665411e-11
6.791564e-11
6.912583e-11
7.134809e-11
7.546856e-11
5.025551e-10
6.573792e-11
6.667676e-11
6.794395e-11
6.91594e-11
7.138982e-11
7.559204e-11
4.404266e-10
2.251013e-07
3.054448e-07
3.055317e-07
3.055368e-07
3.055369e-07
3.055369e-07
3.055369e-07
3.055369e-07
3.055369e-07
3.055369e-07
3.055369e-07
3.055369e-07
3.055369e-07
3.055369e-07
3.055369e-07
3.055369e-07
3.055369e-07
3.055369e-07
2.257955e-07
3.044958e-07
3.055323e-07
3.055366e-07
3.055366e-07
3.055366e-07
3.055366e-07
3.055366e-07
3.055366e-07
3.055366e-07
3.055366e-07
3.055366e-07
3.055366e-07
3.055366e-07
3.055366e-07
3.055366e-07
3.055366e-07
3.055366e-07
2.202935e-07
3.048147e-07
3.055356e-07
3.055367e-07
3.055367e-07
3.055367e-07
3.055367e-07
3.055367e-07
3.055367e-07
3.055367e-07
3.055367e-07
3.055367e-07
3.055367e-07
3.055367e-07
3.055367e-07
3.055367e-07
3.055367e-07
3.055367e-07
2.166142e-07
3.047895e-07
3.055359e-07
3.055367e-07
3.055367e-07
3.055367e-07
3.055367e-07
3.055367e-07
3.055367e-07
3.055367e-07
3.055367e-07
3.055367e-07
3.055367e-07
3.055367e-07
3.055367e-07
3.055367e-07
3.055367e-07
3.055367e-07
2.122539e-07
3.047428e-07
3.055358e-07
3.055367e-07
3.055367e-07
3.055367e-07
3.055367e-07
3.055367e-07
3.055367e-07
3.055367e-07
3.055367e-07
3.055367e-07
3.055367e-07
3.055367e-07
3.055367e-07
3.055367e-07
3.055367e-07
3.055367e-07
2.072093e-07
3.046967e-07
3.055357e-07
3.055367e-07
3.055367e-07
3.055367e-07
3.055367e-07
3.055367e-07
3.055367e-07
3.055367e-07
3.055367e-07
3.055367e-07
3.055367e-07
3.055367e-07
3.055367e-07
3.055367e-07
3.055367e-07
3.055367e-07
2.019815e-07
3.046491e-07
3.055357e-07
3.055367e-07
3.055367e-07
3.055367e-07
3.055367e-07
3.055367e-07
3.055367e-07
3.055367e-07
3.055367e-07
3.055367e-07
3.055367e-07
3.055367e-07
3.055367e-07
3.055367e-07
3.055367e-07
3.055367e-07
1.962569e-07
3.046108e-07
3.055356e-07
3.055367e-07
3.055367e-07
3.055367e-07
3.055367e-07
3.055367e-07
3.055367e-07
3.055367e-07
3.055367e-07
3.055367e-07
3.055367e-07
3.055367e-07
3.055367e-07
3.055367e-07
3.055367e-07
3.055367e-07
1.909061e-07
3.045866e-07
3.055356e-07
3.055367e-07
3.055367e-07
3.055367e-07
3.055367e-07
3.055367e-07
3.055367e-07
3.055367e-07
3.055367e-07
3.055367e-07
3.055367e-07
3.055367e-07
3.055367e-07
3.055367e-07
3.055367e-07
3.055367e-07
1.852425e-07
3.045499e-07
3.055356e-07
3.055367e-07
3.055367e-07
3.055367e-07
3.055367e-07
3.055367e-07
3.055367e-07
3.055367e-07
3.055367e-07
3.055367e-07
3.055367e-07
3.055367e-07
3.055367e-07
3.055367e-07
3.055367e-07
3.055367e-07
1.793401e-07
3.045094e-07
3.055355e-07
3.055367e-07
3.055367e-07
3.055367e-07
3.055367e-07
3.055367e-07
3.055367e-07
3.055367e-07
3.055367e-07
3.055367e-07
3.055367e-07
3.055367e-07
3.055367e-07
3.055367e-07
3.055367e-07
3.055367e-07
1.736134e-07
3.04483e-07
3.055355e-07
3.055367e-07
3.055367e-07
3.055367e-07
3.055367e-07
3.055367e-07
3.055367e-07
3.055367e-07
3.055367e-07
3.055367e-07
3.055367e-07
3.055367e-07
3.055367e-07
3.055367e-07
3.055367e-07
3.055367e-07
1.681732e-07
3.044646e-07
3.055354e-07
3.055367e-07
3.055367e-07
3.055367e-07
3.055367e-07
3.055367e-07
3.055367e-07
3.055367e-07
3.055367e-07
3.055367e-07
3.055367e-07
3.055367e-07
3.055367e-07
3.055367e-07
3.055367e-07
3.055367e-07
1.593238e-07
3.042379e-07
3.055344e-07
3.055367e-07
3.055367e-07
3.055367e-07
3.055367e-07
3.055367e-07
3.055367e-07
3.055367e-07
3.055367e-07
3.055367e-07
3.055367e-07
3.055367e-07
3.055367e-07
3.055367e-07
3.055367e-07
3.055367e-07
1.352528e-07
3.037368e-07
3.055283e-07
3.055365e-07
3.055367e-07
3.055367e-07
3.055367e-07
3.055367e-07
3.055367e-07
3.055367e-07
3.055367e-07
3.055367e-07
3.055367e-07
3.055367e-07
3.055367e-07
3.055367e-07
3.055367e-07
3.055367e-07
1.274055e-07
3.038229e-07
3.055212e-07
3.055347e-07
3.055366e-07
3.055367e-07
3.055367e-07
3.055367e-07
3.055367e-07
3.055367e-07
3.055367e-07
3.055367e-07
3.055367e-07
3.055367e-07
3.055367e-07
3.055367e-07
3.055367e-07
3.055367e-07
1.195247e-07
3.035522e-07
3.055373e-07
3.055319e-07
3.055361e-07
3.055367e-07
3.055367e-07
3.055367e-07
3.055367e-07
3.055367e-07
3.055367e-07
3.055367e-07
3.055367e-07
3.055367e-07
3.055367e-07
3.055367e-07
3.055367e-07
3.055367e-07
1.116965e-07
3.035323e-07
3.055391e-07
3.055376e-07
3.055352e-07
3.055366e-07
3.055367e-07
3.055367e-07
3.055367e-07
3.055367e-07
3.055367e-07
3.055367e-07
3.055367e-07
3.055367e-07
3.055367e-07
3.055367e-07
3.055367e-07
3.055367e-07
1.042071e-07
3.034255e-07
3.055349e-07
3.055383e-07
3.05537e-07
3.055364e-07
3.055367e-07
3.055367e-07
3.055367e-07
3.055367e-07
3.055367e-07
3.055367e-07
3.055367e-07
3.055367e-07
3.055367e-07
3.055367e-07
3.055367e-07
3.055367e-07
9.733931e-08
3.033136e-07
3.055339e-07
3.055369e-07
3.05537e-07
3.055367e-07
3.055366e-07
3.055367e-07
3.055367e-07
3.055367e-07
3.055367e-07
3.055367e-07
3.055367e-07
3.055367e-07
3.055367e-07
3.055367e-07
3.055367e-07
3.055367e-07
9.094995e-08
3.031926e-07
3.055337e-07
3.055367e-07
3.055367e-07
3.055367e-07
3.055366e-07
3.055367e-07
3.055367e-07
3.055367e-07
3.055367e-07
3.055367e-07
3.055367e-07
3.055367e-07
3.055367e-07
3.055367e-07
3.055367e-07
3.055367e-07
8.531305e-08
3.030762e-07
3.055336e-07
3.055367e-07
3.055367e-07
3.055367e-07
3.055367e-07
3.055367e-07
3.055367e-07
3.055367e-07
3.055367e-07
3.055367e-07
3.055367e-07
3.055367e-07
3.055367e-07
3.055367e-07
3.055367e-07
3.055367e-07
8.098146e-08
3.029435e-07
3.055335e-07
3.055367e-07
3.055367e-07
3.055367e-07
3.055367e-07
3.055367e-07
3.055367e-07
3.055367e-07
3.055367e-07
3.055367e-07
3.055367e-07
3.055367e-07
3.055367e-07
3.055367e-07
3.055367e-07
3.055367e-07
7.576038e-08
3.027996e-07
3.055334e-07
3.055367e-07
3.055366e-07
3.055367e-07
3.055367e-07
3.055367e-07
3.055367e-07
3.055367e-07
3.055367e-07
3.055367e-07
3.055367e-07
3.055367e-07
3.055367e-07
3.055367e-07
3.055367e-07
3.055367e-07
7.069114e-08
3.026785e-07
3.055333e-07
3.055367e-07
3.055366e-07
3.055367e-07
3.055367e-07
3.055367e-07
3.055367e-07
3.055367e-07
3.055367e-07
3.055367e-07
3.055367e-07
3.055367e-07
3.055366e-07
3.055367e-07
3.055367e-07
3.055367e-07
6.605822e-08
3.025592e-07
3.055333e-07
3.055367e-07
3.055366e-07
3.055367e-07
3.055367e-07
3.055367e-07
3.055367e-07
3.055367e-07
3.055367e-07
3.055367e-07
3.055367e-07
3.055367e-07
3.055366e-07
3.055367e-07
3.055367e-07
3.055367e-07
6.118547e-08
3.024348e-07
3.055332e-07
3.055366e-07
3.055365e-07
3.055367e-07
3.055367e-07
3.055367e-07
3.055367e-07
3.055367e-07
3.055367e-07
3.055367e-07
3.055367e-07
3.055367e-07
3.055367e-07
3.055367e-07
3.055367e-07
3.055367e-07
5.636793e-08
3.023129e-07
3.055331e-07
3.055359e-07
3.055358e-07
3.055367e-07
3.055367e-07
3.055367e-07
3.055366e-07
3.055367e-07
3.055367e-07
3.055367e-07
3.055367e-07
3.055367e-07
3.055367e-07
3.055367e-07
3.055367e-07
3.055367e-07
5.178731e-08
3.022568e-07
3.05533e-07
3.055229e-07
3.055249e-07
3.055366e-07
3.055366e-07
3.055365e-07
3.055366e-07
3.055367e-07
3.055367e-07
3.055367e-07
3.055367e-07
3.055367e-07
3.055367e-07
3.055367e-07
3.055367e-07
3.055367e-07
4.699184e-08
3.0228e-07
3.055322e-07
3.05406e-07
3.054351e-07
3.055363e-07
3.055366e-07
3.055348e-07
3.055357e-07
3.055367e-07
3.055367e-07
3.055367e-07
3.055367e-07
3.055367e-07
3.055367e-07
3.055367e-07
3.055367e-07
3.055366e-07
4.321449e-08
3.025395e-07
3.055309e-07
3.052337e-07
3.053579e-07
3.055356e-07
3.055364e-07
3.055277e-07
3.055312e-07
3.055367e-07
3.055367e-07
3.055367e-07
3.055367e-07
3.055366e-07
3.055367e-07
3.055367e-07
3.055367e-07
3.055366e-07
3.902027e-08
3.031046e-07
3.055221e-07
3.054864e-07
3.055034e-07
3.055337e-07
3.055363e-07
3.055364e-07
3.055346e-07
3.055367e-07
3.055367e-07
3.055367e-07
3.055366e-07
3.055366e-07
3.055367e-07
3.055367e-07
3.055366e-07
3.055366e-07
3.477693e-08
3.035856e-07
3.054553e-07
3.050495e-07
3.050765e-07
3.05494e-07
3.055358e-07
3.055344e-07
3.055346e-07
3.055364e-07
3.055367e-07
3.055367e-07
3.055366e-07
3.055366e-07
3.055367e-07
3.055367e-07
3.055366e-07
3.055366e-07
2.843281e-08
3.003024e-07
3.05407e-07
3.046773e-07
3.048602e-07
3.05234e-07
3.05534e-07
3.05533e-07
3.055332e-07
3.055347e-07
3.055367e-07
3.055367e-07
3.055365e-07
3.055367e-07
3.055367e-07
3.055366e-07
3.055364e-07
3.055367e-07
2.120176e-08
3.025342e-07
3.053836e-07
3.056819e-07
3.051863e-07
3.053277e-07
3.055274e-07
3.055232e-07
3.055238e-07
3.055347e-07
3.05537e-07
3.055368e-07
3.055364e-07
3.055367e-07
3.055367e-07
3.055366e-07
3.05536e-07
3.055367e-07
1.53271e-08
3.016768e-07
3.052548e-07
3.053251e-07
3.057336e-07
3.055298e-07
3.055573e-07
3.05552e-07
3.05546e-07
3.055512e-07
3.055447e-07
3.055402e-07
3.055368e-07
3.055369e-07
3.055367e-07
3.055364e-07
3.055364e-07
3.055367e-07
8.180805e-09
3.014792e-07
3.045567e-07
3.050054e-07
3.05671e-07
3.058149e-07
3.058131e-07
3.057668e-07
3.057283e-07
3.056818e-07
3.056333e-07
3.055914e-07
3.055563e-07
3.055449e-07
3.055383e-07
3.055363e-07
3.055369e-07
3.055367e-07
2.157324e-08
2.979505e-07
3.043535e-07
3.056719e-07
3.065258e-07
3.065877e-07
3.065362e-07
3.063883e-07
3.063003e-07
3.062514e-07
3.060805e-07
3.058774e-07
3.057333e-07
3.056331e-07
3.055703e-07
3.05543e-07
3.055378e-07
3.055367e-07
2.6543e-08
3.008178e-07
3.050798e-07