/*--------------------------------*- C++ -*----------------------------------*\
| =========                 |                                                 |
| \\      /  F ield         | OpenFOAM: The Open Source CFD Toolbox           |
|  \\    /   O peration     | Version:  2206                                  |
|   \\  /    A nd           | Website:  www.openfoam.com                      |
|    \\/     M anipulation  |                                                 |
\*---------------------------------------------------------------------------*/
FoamFile
{
    version     2.0;
    format      ascii;
    arch        "LSB;label=32;scalar=64";
    class       volScalarField;
    location    "2.2";
    object      k.b_0;
}
// * * * * * * * * * * * * * * * * * * * * * * * * * * * * * * * * * * * * * //

dimensions      [0 2 -2 0 0 0 0];

internalField   nonuniform List<scalar> 
13078
(
1.013147e-13
4.599709e-11
6.317056e-11
6.376438e-11
6.420625e-11
6.47387e-11
6.536203e-11
4.33209e-14
3.988459e-11
6.272371e-11
6.370795e-11
6.4186e-11
6.472369e-11
6.534752e-11
9.221656e-14
3.975648e-11
6.263527e-11
6.36633e-11
6.415721e-11
6.47028e-11
6.532938e-11
6.047456e-14
3.996672e-11
6.261257e-11
6.362868e-11
6.413004e-11
6.468116e-11
6.531002e-11
4.926955e-14
4.004596e-11
6.259879e-11
6.361095e-11
6.410779e-11
6.466074e-11
6.529102e-11
4.581204e-14
4.009143e-11
6.259406e-11
6.360012e-11
6.409768e-11
6.464347e-11
6.527295e-11
4.510911e-14
4.01061e-11
6.258595e-11
6.359246e-11
6.40908e-11
6.463677e-11
6.525715e-11
4.584482e-14
4.010175e-11
6.257729e-11
6.358819e-11
6.408677e-11
6.463226e-11
6.525206e-11
4.737838e-14
4.009416e-11
6.257922e-11
6.358713e-11
6.408454e-11
6.462917e-11
6.524844e-11
4.947831e-14
4.007608e-11
6.258054e-11
6.358686e-11
6.408322e-11
6.462701e-11
6.524568e-11
5.209451e-14
4.005084e-11
6.258124e-11
6.358693e-11
6.408239e-11
6.462539e-11
6.524337e-11
5.526952e-14
4.002008e-11
6.258137e-11
6.35871e-11
6.408183e-11
6.462408e-11
6.524142e-11
5.908701e-14
3.99851e-11
6.258106e-11
6.358721e-11
6.408139e-11
6.462296e-11
6.523964e-11
6.36725e-14
3.994626e-11
6.258036e-11
6.358712e-11
6.408072e-11
6.462186e-11
6.523789e-11
6.918248e-14
3.990422e-11
6.257869e-11
6.358431e-11
6.407635e-11
6.462036e-11
6.523619e-11
7.582289e-14
3.985915e-11
6.257652e-11
6.358066e-11
6.407292e-11
6.461899e-11
6.52344e-11
8.38607e-14
3.98114e-11
6.257495e-11
6.358005e-11
6.407195e-11
6.461774e-11
6.523257e-11
9.36406e-14
3.9761e-11
6.257313e-11
6.357954e-11
6.407103e-11
6.461643e-11
6.523064e-11
1.055993e-13
3.970769e-11
6.257108e-11
6.357898e-11
6.406988e-11
6.461467e-11
6.522864e-11
1.202998e-13
3.965178e-11
6.25688e-11
6.357805e-11
6.406481e-11
6.460714e-11
6.522593e-11
1.384538e-13
3.959293e-11
6.256638e-11
6.357697e-11
6.405869e-11
6.460112e-11
6.522316e-11
1.609742e-13
3.953123e-11
6.256389e-11
6.357622e-11
6.40568e-11
6.459885e-11
6.522068e-11
1.890109e-13
3.946637e-11
6.256117e-11
6.357531e-11
6.405524e-11
6.459625e-11
6.521744e-11
2.240128e-13
3.939823e-11
6.255833e-11
6.357435e-11
6.405311e-11
6.458813e-11
6.520549e-11
2.677815e-13
3.93265e-11
6.255535e-11
6.357331e-11
6.40508e-11
6.457852e-11
6.519586e-11
3.225391e-13
3.925083e-11
6.255209e-11
6.357218e-11
6.404873e-11
6.457463e-11
6.519136e-11
3.909963e-13
3.917226e-11
6.254866e-11
6.357099e-11
6.404652e-11
6.457113e-11
6.518614e-11
4.763552e-13
3.908002e-11
6.25445e-11
6.356974e-11
6.404404e-11
6.456699e-11
6.517291e-11
5.825068e-13
3.899934e-11
6.254099e-11
6.356842e-11
6.404133e-11
6.456232e-11
6.515785e-11
7.133242e-13
3.8759e-11
6.253014e-11
6.356682e-11
6.403851e-11
6.455792e-11
6.515021e-11
8.761901e-13
3.850497e-11
6.252848e-11
6.356549e-11
6.403548e-11
6.455322e-11
6.514329e-11
1.077829e-12
3.807808e-11
6.252109e-11
6.356367e-11
6.403245e-11
6.454813e-11
6.513553e-11
1.324415e-12
3.753974e-11
6.247633e-11
6.355426e-11
6.402837e-11
6.454225e-11
6.512759e-11
1.623444e-12
3.735327e-11
6.244275e-11
6.35455e-11
6.402249e-11
6.453446e-11
6.511741e-11
1.983155e-12
3.716268e-11
6.242535e-11
6.353107e-11
6.399549e-11
6.451902e-11
6.510149e-11
2.412856e-12
3.695491e-11
6.239638e-11
6.350899e-11
6.395921e-11
6.447408e-11
6.507397e-11
2.920196e-12
3.672993e-11
6.235116e-11
6.347017e-11
6.391841e-11
6.442806e-11
6.504473e-11
3.506754e-12
3.648008e-11
6.228773e-11
6.34235e-11
6.387618e-11
6.438835e-11
6.501e-11
4.165695e-12
3.620306e-11
6.221374e-11
6.337677e-11
6.384249e-11
6.43649e-11
6.49934e-11
4.882428e-12
3.569888e-11
6.213057e-11
6.333107e-11
6.379971e-11
6.432965e-11
6.496197e-11
5.648885e-12
3.480403e-11
6.203189e-11
6.326067e-11
6.372424e-11
6.42553e-11
6.491239e-11
6.419457e-12
3.392031e-11
6.185704e-11
6.311635e-11
6.358821e-11
6.412758e-11
6.481101e-11
7.151157e-12
3.349305e-11
6.165435e-11
6.292599e-11
6.33694e-11
6.398129e-11
6.469447e-11
7.787591e-12
3.311176e-11
6.145864e-11
6.275257e-11
6.319118e-11
6.378042e-11
6.457716e-11
8.277197e-12
3.262889e-11
6.12959e-11
6.260324e-11
6.308702e-11
6.3638e-11
6.429457e-11
8.585777e-12
3.191102e-11
6.115182e-11
6.244806e-11
6.294273e-11
6.346305e-11
6.402174e-11
8.624863e-12
3.110357e-11
6.09967e-11
6.232265e-11
6.271891e-11
6.319897e-11
6.372896e-11
8.306513e-12
3.061736e-11
6.082996e-11
6.219274e-11
6.250736e-11
6.28788e-11
6.336937e-11
7.600268e-12
3.011846e-11
6.063836e-11
6.200184e-11
6.232185e-11
6.268904e-11
6.311042e-11
6.558272e-12
2.965391e-11
6.045436e-11
6.181908e-11
6.210642e-11
6.243653e-11
6.286155e-11
5.298898e-12
2.87917e-11
6.025495e-11
6.167302e-11
6.194487e-11
6.224866e-11
6.260174e-11
3.883042e-12
2.750536e-11
6.002473e-11
6.152814e-11
6.180697e-11
6.211705e-11
6.246477e-11
2.479298e-12
2.691642e-11
5.980665e-11
6.144871e-11
6.175079e-11
6.209778e-11
6.238346e-11
1.357901e-12
2.659019e-11
5.967538e-11
6.13576e-11
6.168611e-11
6.202832e-11
6.231533e-11
7.011454e-13
2.635971e-11
5.961987e-11
6.133014e-11
6.168502e-11
6.203035e-11
6.236647e-11
1.19851e-12
2.620436e-11
5.959248e-11
6.133118e-11
6.170812e-11
6.207317e-11
6.243254e-11
1.940207e-12
2.625469e-11
5.957377e-11
6.128792e-11
6.165072e-11
6.20123e-11
6.238283e-11
2.613569e-12
2.648757e-11
5.961022e-11
6.12694e-11
6.16082e-11
6.194603e-11
6.227852e-11
3.76013e-12
2.679685e-11
5.968106e-11
6.128866e-11
6.159688e-11
6.191485e-11
6.217338e-11
5.253418e-12
2.722264e-11
5.979337e-11
6.132444e-11
6.158904e-11
6.18905e-11
6.212704e-11
6.615529e-12
2.791482e-11
5.998373e-11
6.134582e-11
6.159606e-11
6.18884e-11
6.220629e-11
7.67809e-12
2.927554e-11
6.02558e-11
6.155087e-11
6.177058e-11
6.201702e-11
6.229557e-11
8.519517e-12
3.023331e-11
6.046674e-11
6.166189e-11
6.188642e-11
6.214661e-11
6.248434e-11
9.051909e-12
3.075952e-11
6.065475e-11
6.182368e-11
6.207013e-11
6.236799e-11
6.273782e-11
9.211669e-12
3.125574e-11
6.085977e-11
6.202416e-11
6.227989e-11
6.263785e-11
6.304285e-11
9.00084e-12
3.163996e-11
6.10627e-11
6.221795e-11
6.255029e-11
6.297033e-11
6.340016e-11
8.595178e-12
3.232616e-11
6.126579e-11
6.241582e-11
6.282522e-11
6.327363e-11
6.374064e-11
8.082604e-12
3.299187e-11
6.142983e-11
6.264331e-11
6.303711e-11
6.351515e-11
6.406614e-11
7.439551e-12
3.3454e-11
6.15867e-11
6.282959e-11
6.323561e-11
6.371296e-11
6.437511e-11
6.690315e-12
3.382173e-11
6.176869e-11
6.299903e-11
6.343771e-11
6.396925e-11
6.455983e-11
5.900553e-12
3.423001e-11
6.195369e-11
6.317109e-11
6.36288e-11
6.415077e-11
6.475969e-11
5.121504e-12
3.495734e-11
6.210335e-11
6.33014e-11
6.375131e-11
6.427244e-11
6.49073e-11
4.383345e-12
3.566249e-11
6.219344e-11
6.33644e-11
6.382185e-11
6.43413e-11
6.495401e-11
3.703603e-12
3.608063e-11
6.226526e-11
6.341413e-11
6.386947e-11
6.437557e-11
6.498228e-11
3.090923e-12
3.632745e-11
6.232919e-11
6.345977e-11
6.390898e-11
6.440645e-11
6.501137e-11
2.555559e-12
3.665301e-11
6.238067e-11
6.34995e-11
6.394818e-11
6.445306e-11
6.505989e-11
2.098542e-12
3.692964e-11
6.240916e-11
6.352356e-11
6.397847e-11
6.450047e-11
6.508838e-11
1.715275e-12
3.716223e-11
6.24264e-11
6.353547e-11
6.400288e-11
6.452546e-11
6.510621e-11
1.39669e-12
3.737293e-11
6.24403e-11
6.354571e-11
6.402292e-11
6.453485e-11
6.511722e-11
1.134119e-12
3.754373e-11
6.247148e-11
6.355342e-11
6.402735e-11
6.454094e-11
6.512571e-11
9.197802e-13
3.807418e-11
6.251562e-11
6.356249e-11
6.403118e-11
6.454647e-11
6.513351e-11
7.461043e-13
3.849335e-11
6.252185e-11
6.356422e-11
6.403422e-11
6.455167e-11
6.514138e-11
6.074714e-13
3.874325e-11
6.252322e-11
6.35656e-11
6.403727e-11
6.455649e-11
6.514844e-11
4.959283e-13
3.89805e-11
6.253414e-11
6.356723e-11
6.404021e-11
6.456097e-11
6.515614e-11
4.05766e-13
3.906006e-11
6.25379e-11
6.356858e-11
6.404297e-11
6.45657e-11
6.517137e-11
3.337198e-13
3.915212e-11
6.254244e-11
6.356996e-11
6.404549e-11
6.456991e-11
6.518474e-11
2.76293e-13
3.923127e-11
6.254631e-11
6.357125e-11
6.404779e-11
6.457353e-11
6.519008e-11
2.305515e-13
3.930801e-11
6.25501e-11
6.357248e-11
6.404997e-11
6.457755e-11
6.519473e-11
1.940663e-13
3.938106e-11
6.255362e-11
6.357355e-11
6.405236e-11
6.45873e-11
6.52045e-11
1.649199e-13
3.945063e-11
6.255693e-11
6.357462e-11
6.405456e-11
6.459544e-11
6.521653e-11
1.416247e-13
3.951701e-11
6.25601e-11
6.357562e-11
6.40562e-11
6.459816e-11
6.521983e-11
1.229448e-13
3.958023e-11
6.256302e-11
6.357649e-11
6.405823e-11
6.460054e-11
6.522244e-11
1.07862e-13
3.964062e-11
6.256589e-11
6.357768e-11
6.406448e-11
6.460671e-11
6.522537e-11
9.561681e-14
3.969803e-11
6.256858e-11
6.357872e-11
6.406961e-11
6.461434e-11
6.522821e-11
8.562372e-14
3.975287e-11
6.257107e-11
6.357934e-11
6.407081e-11
6.461616e-11
6.523024e-11
7.743273e-14
3.980482e-11
6.257327e-11
6.357995e-11
6.40718e-11
6.461748e-11
6.523218e-11
7.068147e-14
3.985418e-11
6.257522e-11
6.358067e-11
6.407283e-11
6.461876e-11
6.523407e-11
6.511014e-14
3.990099e-11
6.25778e-11
6.358444e-11
6.407635e-11
6.462019e-11
6.523591e-11
6.053162e-14
3.994494e-11
6.257992e-11
6.358734e-11
6.408077e-11
6.462172e-11
6.523759e-11
5.68112e-14
3.998599e-11
6.258108e-11
6.358753e-11
6.408146e-11
6.462279e-11
6.523927e-11
5.382321e-14
4.002361e-11
6.258188e-11
6.358749e-11
6.408187e-11
6.462379e-11
6.524087e-11
5.136882e-14
4.005773e-11
6.258229e-11
6.358737e-11
6.408232e-11
6.462487e-11
6.524256e-11
4.933813e-14
4.008755e-11
6.258221e-11
6.358723e-11
6.408287e-11
6.462611e-11
6.524448e-11
4.774108e-14
4.011191e-11
6.258152e-11
6.358717e-11
6.408363e-11
6.462766e-11
6.524668e-11
4.679464e-14
4.012825e-11
6.257999e-11
6.358743e-11
6.408485e-11
6.462982e-11
6.524949e-11
4.664948e-14
4.014492e-11
6.258831e-11
6.359004e-11
6.408723e-11
6.46329e-11
6.525353e-11
4.765224e-14
4.014698e-11
6.259464e-11
6.359463e-11
6.409142e-11
6.463769e-11
6.526801e-11
5.020935e-14
4.012341e-11
6.259441e-11
6.360011e-11
6.409784e-11
6.465258e-11
6.52847e-11
5.484995e-14
4.007785e-11
6.259878e-11
6.361024e-11
6.411541e-11
6.467052e-11
6.530261e-11
6.733473e-14
3.997685e-11
6.261155e-11
6.36352e-11
6.41381e-11
6.469061e-11
6.532168e-11
1.013282e-13
3.989905e-11
6.26645e-11
6.36698e-11
6.416477e-11
6.471224e-11
6.534116e-11
5.64092e-14
4.082786e-11
6.273142e-11
6.371412e-11
6.41957e-11
6.473469e-11
6.536037e-11
6.610497e-11
6.70486e-11
6.832273e-11
6.956149e-11
7.180855e-11
7.709729e-11
1.116778e-09
6.608861e-11
6.702753e-11
6.829465e-11
6.952842e-11
7.176612e-11
7.591661e-11
5.148496e-10
6.607018e-11
6.70057e-11
6.826787e-11
6.995678e-11
7.172981e-11
7.585446e-11
5.160823e-10
6.60509e-11
6.698345e-11
6.823873e-11
6.946092e-11
7.168371e-11
7.579125e-11
5.142775e-10
6.603184e-11
6.696098e-11
6.821115e-11
6.942398e-11
7.164162e-11
7.572762e-11
5.066535e-10
6.601315e-11
6.69385e-11
6.818273e-11
6.938939e-11
7.160035e-11
7.566402e-11
4.938817e-10
6.599514e-11
6.691641e-11
6.815462e-11
6.935616e-11
7.158888e-11
7.560087e-11
4.788665e-10
6.597895e-11
6.689473e-11
6.812693e-11
6.932369e-11
7.157834e-11
7.553721e-11
4.57754e-10
6.597432e-11
6.687493e-11
6.810059e-11
6.929069e-11
7.154553e-11
7.547651e-11
4.355749e-10
6.59709e-11
6.68696e-11
6.807618e-11
6.925797e-11
7.151316e-11
7.54142e-11
4.090255e-10
6.596798e-11
6.686565e-11
6.806964e-11
6.922636e-11
7.148108e-11
7.535104e-11
3.813336e-10
6.596526e-11
6.686182e-11
6.806463e-11
6.921945e-11
7.144887e-11
7.528249e-11
3.4766e-10
6.596272e-11
6.68581e-11
6.805955e-11
6.921328e-11
7.144335e-11
7.521076e-11
3.159428e-10
6.596019e-11
6.68544e-11
6.805438e-11
6.920688e-11
7.14372e-11
7.519986e-11
2.884798e-10
6.595767e-11
6.685055e-11
6.804904e-11
6.920027e-11
7.143065e-11
7.51311e-11
2.492715e-10
6.595505e-11
6.684658e-11
6.804354e-11
6.91934e-11
7.142365e-11
7.507765e-11
2.100433e-10
6.595238e-11
6.684245e-11
6.803784e-11
6.918602e-11
7.141326e-11
7.50288e-11
1.888316e-10
6.594958e-11
6.683828e-11
6.803177e-11
6.917489e-11
7.131481e-11
7.497829e-11
1.672132e-10
6.594667e-11
6.68341e-11
6.802556e-11
6.916679e-11
7.130156e-11
7.493236e-11
1.496672e-10
6.594355e-11
6.682968e-11
6.801902e-11
6.915841e-11
7.12908e-11
7.488352e-11
1.318956e-10
6.59403e-11
6.682502e-11
6.801222e-11
6.914961e-11
7.127955e-11
7.483279e-11
1.152603e-10
6.593676e-11
6.682007e-11
6.800521e-11
6.914023e-11
7.126777e-11
7.481718e-11
1.488646e-10
6.593307e-11
6.681478e-11
6.7997e-11
6.91305e-11
7.125318e-11
7.495155e-11
6.495512e-10
6.592818e-11
6.680909e-11
6.799031e-11
6.954905e-11
7.11651e-11
7.493042e-11
5.926518e-10
6.592314e-11
6.680308e-11
6.797985e-11
6.911327e-11
7.111518e-11
7.494656e-11
6.086119e-10
6.59184e-11
6.679671e-11
6.797106e-11
6.909702e-11
7.10977e-11
7.498106e-11
7.292843e-10
6.591218e-11
6.678928e-11
6.796106e-11
6.908421e-11
7.107908e-11
7.494188e-11
6.871244e-10
6.589286e-11
6.678084e-11
6.794851e-11
6.907059e-11
7.105383e-11
7.465218e-11
6.443477e-10
6.587707e-11
6.65344e-11
6.76212e-11
6.905399e-11
7.103063e-11
7.453582e-11
5.956026e-10
6.586594e-11
6.652213e-11
6.76088e-11
6.903968e-11
7.100871e-11
7.444167e-11
4.556708e-10
6.584119e-11
6.648795e-11
6.759645e-11
6.902303e-11
7.098522e-11
7.457919e-11
5.387014e-10
6.582313e-11
6.646436e-11
6.758338e-11
6.900477e-11
7.095942e-11
7.445728e-11
5.034961e-10
6.581026e-11
6.640626e-11
6.756741e-11
6.898521e-11
7.093166e-11
7.430321e-11
4.041771e-10
6.579897e-11
6.638863e-11
6.751704e-11
6.896544e-11
7.090216e-11
7.411973e-11
2.80791e-10
6.578288e-11
6.636553e-11
6.745305e-11
6.894461e-11
7.086864e-11
7.380223e-11
2.001581e-10
6.576109e-11
6.633766e-11
6.739514e-11
6.891706e-11
7.083531e-11
7.37648e-11
2.673621e-10
6.575009e-11
6.631974e-11
6.739812e-11
6.885762e-11
7.082461e-11
7.358159e-11
2.239427e-10
6.576507e-11
6.633733e-11
6.743539e-11
6.880702e-11
7.085493e-11
7.37161e-11
3.238666e-10
6.579826e-11
6.639094e-11
6.751264e-11
6.887913e-11
7.095893e-11
7.385914e-11
9.984575e-11
6.582174e-11
6.64515e-11
6.767514e-11
6.919263e-11
7.093236e-11
7.375686e-11
1.252235e-10
6.579191e-11
6.656108e-11
6.789168e-11
6.927146e-11
7.081551e-11
7.328835e-11
1.035115e-10
6.57251e-11
6.657409e-11
6.7749e-11
6.91074e-11
7.069163e-11
7.265317e-11
9.830578e-11
6.563509e-11
6.64951e-11
6.76484e-11
6.89086e-11
7.044981e-11
7.22869e-11
1.015221e-10
6.548289e-11
6.637553e-11
6.754196e-11
6.873524e-11
7.014182e-11
7.225744e-11
8.851124e-11
6.523729e-11
6.615687e-11
6.72121e-11
6.856e-11
6.974849e-11
7.204753e-11
8.38782e-11
6.484954e-11
6.586578e-11
6.706183e-11
6.817589e-11
6.948507e-11
7.129061e-11
1.263993e-10
6.454147e-11
6.555011e-11
6.67572e-11
6.798454e-11
6.897015e-11
7.107043e-11
1.139903e-10
6.425228e-11
6.517718e-11
6.659906e-11
6.761973e-11
6.888607e-11
7.035358e-11
8.386973e-11
6.384845e-11
6.481783e-11
6.618423e-11
6.73587e-11
6.857061e-11
7.0368e-11
9.459215e-11
6.353724e-11
6.446402e-11
6.589788e-11
6.7055e-11
6.827235e-11
6.9716e-11
7.709335e-11
6.326272e-11
6.409354e-11
6.544985e-11
6.663336e-11
6.787048e-11
6.920357e-11
7.106964e-11
6.314148e-11
6.39266e-11
6.522464e-11
6.625027e-11
6.735259e-11
6.871165e-11
6.93786e-10
6.304776e-11
6.375102e-11
6.50122e-11
6.600986e-11
6.704729e-11
6.844333e-11
1.113962e-09
6.29793e-11
6.367065e-11
6.488792e-11
6.586288e-11
6.664931e-11
6.812871e-11
8.976319e-10
6.300282e-11
6.362508e-11
6.493206e-11
6.569002e-11
6.640379e-11
6.634618e-11
6.648957e-11
6.307212e-11
6.368517e-11
6.491235e-11
6.569536e-11
6.60662e-11
6.617597e-11
6.302904e-11
6.368452e-11
6.496346e-11
6.576221e-11
6.621568e-11
6.642341e-11
6.293772e-11
6.36116e-11
6.482347e-11
6.56193e-11
6.597928e-11
6.613871e-11
6.282209e-11
6.351395e-11
6.474588e-11
6.548146e-11
6.618922e-11
6.757387e-11
4.67174e-10
6.275293e-11
6.33668e-11
6.473612e-11
6.56235e-11
6.6455e-11
6.715726e-11
1.200241e-09
6.280971e-11
6.340151e-11
6.469913e-11
6.580195e-11
6.673714e-11
6.825778e-11
1.398552e-09
6.287341e-11
6.340603e-11
6.459431e-11
6.57549e-11
6.691007e-11
6.808638e-11
7.106815e-11
6.307516e-11
6.363656e-11
6.50813e-11
6.608046e-11
6.705805e-11
6.855093e-11
7.225559e-11
6.339937e-11
6.39581e-11
6.522132e-11
6.618862e-11
6.752221e-11
6.886206e-11
7.40415e-11
6.378367e-11
6.424678e-11
6.553111e-11
6.663919e-11
6.77457e-11
6.909578e-11
7.408573e-11
6.41133e-11
6.472879e-11
6.584771e-11
6.693057e-11
6.798669e-11
6.939048e-11
9.090117e-11
6.446225e-11
6.500108e-11
6.614207e-11
6.722061e-11
6.832194e-11
6.99294e-11
6.968946e-11
6.485488e-11
6.546058e-11
6.64549e-11
6.750767e-11
6.867976e-11
7.057578e-11
8.2899e-11
6.516147e-11
6.576975e-11
6.675095e-11
6.790056e-11
6.907455e-11
7.106542e-11
7.119527e-11
6.542025e-11
6.607369e-11
6.711465e-11
6.820037e-11
6.958753e-11
7.178136e-11
5.341778e-10
6.558083e-11
6.629007e-11
6.732608e-11
6.853133e-11
6.996581e-11
7.170082e-11
7.517197e-11
6.571302e-11
6.63672e-11
6.753708e-11
6.891821e-11
7.032784e-11
7.227387e-11
8.601024e-11
6.576428e-11
6.644798e-11
6.754003e-11
6.904153e-11
7.06102e-11
7.304513e-11
8.742916e-11
6.575555e-11
6.638902e-11
6.746884e-11
6.888272e-11
7.081625e-11
7.359169e-11
9.500806e-11
6.574011e-11
6.634064e-11
6.739974e-11
6.8757e-11
7.085925e-11
7.371338e-11
2.896267e-10
6.5748e-11
6.632204e-11
6.737133e-11
6.876159e-11
7.079811e-11
7.352082e-11
8.1583e-11
6.576741e-11
6.633575e-11
6.737852e-11
6.885296e-11
7.081672e-11
7.362266e-11
1.31944e-10
6.578472e-11
6.635846e-11
6.741787e-11
6.892397e-11
7.084554e-11
7.379102e-11
2.297098e-10
6.579724e-11
6.638265e-11
6.747575e-11
6.894619e-11
7.087529e-11
7.386307e-11
2.506081e-10
6.580744e-11
6.63894e-11
6.754942e-11
6.896729e-11
7.090586e-11
7.411075e-11
3.664376e-10
6.582032e-11
6.64327e-11
6.757033e-11
6.898845e-11
7.093585e-11
7.436156e-11
4.891643e-10
6.583868e-11
6.647066e-11
6.758552e-11
6.900812e-11
7.096381e-11
7.442835e-11
5.271074e-10
6.586373e-11
6.651316e-11
6.759873e-11
6.90262e-11
7.098936e-11
7.445606e-11
5.699822e-10
6.587503e-11
6.651986e-11
6.761134e-11
6.904271e-11
7.101281e-11
7.442132e-11
4.469082e-10
6.589098e-11
6.677834e-11
6.794523e-11
6.906212e-11
7.103545e-11
7.451784e-11
5.92873e-10
6.59104e-11
6.678696e-11
6.7958e-11
6.90753e-11
7.10619e-11
7.478601e-11
6.435445e-10
6.591681e-11
6.679461e-11
6.796849e-11
6.908874e-11
7.108384e-11
7.492342e-11
6.87696e-10
6.592171e-11
6.680124e-11
6.797802e-11
6.910127e-11
7.11025e-11
7.496626e-11
7.334231e-10
6.592694e-11
6.680752e-11
6.798704e-11
6.911311e-11
7.112214e-11
7.470989e-11
1.483732e-10
6.593196e-11
6.681331e-11
6.79954e-11
6.912439e-11
7.121892e-11
7.47422e-11
1.40881e-10
6.593576e-11
6.681874e-11
6.800331e-11
6.913494e-11
7.125877e-11
7.477942e-11
1.335725e-10
6.593939e-11
6.682391e-11
6.801076e-11
6.914473e-11
7.127119e-11
7.480025e-11
1.104016e-10
6.594281e-11
6.682872e-11
6.801778e-11
6.915405e-11
7.128313e-11
7.484328e-11
1.234672e-10
6.594608e-11
6.683326e-11
6.80245e-11
6.916279e-11
7.129428e-11
7.488978e-11
1.393555e-10
6.594905e-11
6.683756e-11
6.803079e-11
6.917113e-11
7.130494e-11
7.493914e-11
1.576562e-10
6.595191e-11
6.684182e-11
6.803695e-11
6.918129e-11
7.135644e-11
7.498819e-11
1.778373e-10
6.595462e-11
6.684599e-11
6.804275e-11
6.919035e-11
7.141866e-11
7.503815e-11
2.00392e-10
6.595723e-11
6.684995e-11
6.804828e-11
6.919759e-11
7.14259e-11
7.508656e-11
2.26721e-10
6.595972e-11
6.685376e-11
6.805359e-11
6.920461e-11
7.143281e-11
7.515266e-11
2.628855e-10
6.596215e-11
6.685739e-11
6.805874e-11
6.921128e-11
7.143926e-11
7.518922e-11
2.91045e-10
6.596453e-11
6.686097e-11
6.806368e-11
6.92178e-11
7.144546e-11
7.523299e-11
3.192655e-10
6.596699e-11
6.68646e-11
6.806856e-11
6.922414e-11
7.146421e-11
7.530268e-11
3.483263e-10
6.596957e-11
6.686828e-11
6.807492e-11
6.924342e-11
7.149609e-11
7.53711e-11
3.788915e-10
6.597252e-11
6.687324e-11
6.809906e-11
6.927605e-11
7.152833e-11
7.54355e-11
4.067656e-10
6.597655e-11
6.689254e-11
6.812502e-11
6.930904e-11
7.156077e-11
7.549764e-11
4.300731e-10
6.599194e-11
6.691369e-11
6.815234e-11
6.934243e-11
7.159206e-11
7.556135e-11
4.523816e-10
6.600915e-11
6.693529e-11
6.818015e-11
6.937425e-11
7.158018e-11
7.562629e-11
4.721983e-10
6.602711e-11
6.695743e-11
6.820832e-11
6.940828e-11
7.162008e-11
7.569061e-11
4.869664e-10
6.604581e-11
6.697999e-11
6.823678e-11
6.94424e-11
7.166151e-11
7.575507e-11
4.974013e-10
6.606535e-11
6.70028e-11
6.826536e-11
6.947669e-11
7.17032e-11
7.581932e-11
5.03419e-10
6.608493e-11
6.70254e-11
6.829385e-11
6.951065e-11
7.174506e-11
7.588298e-11
5.032915e-10
6.610418e-11
6.704816e-11
6.832231e-11
6.954441e-11
7.178702e-11
7.60065e-11
4.416401e-10
2.254209e-07
3.059128e-07
3.060168e-07
3.06022e-07
3.060221e-07
3.060221e-07
3.060221e-07
3.060221e-07
3.060221e-07
3.060221e-07
3.060221e-07
3.060221e-07
3.060221e-07
3.060221e-07
3.060221e-07
3.060221e-07
3.060221e-07
3.060221e-07
2.263514e-07
3.049918e-07
3.060177e-07
3.060218e-07
3.060218e-07
3.060218e-07
3.060218e-07
3.060218e-07
3.060218e-07
3.060218e-07
3.060218e-07
3.060218e-07
3.060218e-07
3.060218e-07
3.060218e-07
3.060218e-07
3.060218e-07
3.060218e-07
2.208311e-07
3.053052e-07
3.060209e-07
3.060219e-07
3.060219e-07
3.060219e-07
3.060219e-07
3.060219e-07
3.060219e-07
3.060219e-07
3.060219e-07
3.060219e-07
3.060219e-07
3.060219e-07
3.060219e-07
3.060219e-07
3.060219e-07
3.060219e-07
2.171644e-07
3.052777e-07
3.060211e-07
3.060219e-07
3.060219e-07
3.060219e-07
3.060219e-07
3.060219e-07
3.060219e-07
3.060219e-07
3.060219e-07
3.060219e-07
3.060219e-07
3.060219e-07
3.060219e-07
3.060219e-07
3.060219e-07
3.060219e-07
2.128063e-07
3.052316e-07
3.060211e-07
3.060219e-07
3.060219e-07
3.060219e-07
3.060219e-07
3.060219e-07
3.060219e-07
3.060219e-07
3.060219e-07
3.060219e-07
3.060219e-07
3.060219e-07
3.060219e-07
3.060219e-07
3.060219e-07
3.060219e-07
2.07757e-07
3.051858e-07
3.06021e-07
3.060219e-07
3.060219e-07
3.060219e-07
3.060219e-07
3.060219e-07
3.060219e-07
3.060219e-07
3.060219e-07
3.060219e-07
3.060219e-07
3.060219e-07
3.060219e-07
3.060219e-07
3.060219e-07
3.060219e-07
2.025224e-07
3.051383e-07
3.060209e-07
3.060219e-07
3.060219e-07
3.060219e-07
3.060219e-07
3.060219e-07
3.060219e-07
3.060219e-07
3.060219e-07
3.060219e-07
3.060219e-07
3.060219e-07
3.060219e-07
3.060219e-07
3.060219e-07
3.060219e-07
1.967876e-07
3.050998e-07
3.060209e-07
3.060219e-07
3.060219e-07
3.060219e-07
3.060219e-07
3.060219e-07
3.060219e-07
3.060219e-07
3.060219e-07
3.060219e-07
3.060219e-07
3.060219e-07
3.060219e-07
3.060219e-07
3.060219e-07
3.060219e-07
1.91427e-07
3.050756e-07
3.060209e-07
3.060219e-07
3.060219e-07
3.060219e-07
3.060219e-07
3.060219e-07
3.060219e-07
3.060219e-07
3.060219e-07
3.060219e-07
3.060219e-07
3.060219e-07
3.060219e-07
3.060219e-07
3.060219e-07
3.060219e-07
1.857534e-07
3.050394e-07
3.060208e-07
3.060219e-07
3.060219e-07
3.060219e-07
3.060219e-07
3.060219e-07
3.060219e-07
3.060219e-07
3.060219e-07
3.060219e-07
3.060219e-07
3.060219e-07
3.060219e-07
3.060219e-07
3.060219e-07
3.060219e-07
1.798406e-07
3.049989e-07
3.060208e-07
3.060219e-07
3.060219e-07
3.060219e-07
3.060219e-07
3.060219e-07
3.060219e-07
3.060219e-07
3.060219e-07
3.060219e-07
3.060219e-07
3.060219e-07
3.060219e-07
3.060219e-07
3.060219e-07
3.060219e-07
1.741013e-07
3.049724e-07
3.060208e-07
3.060219e-07
3.060219e-07
3.060219e-07
3.060219e-07
3.060219e-07
3.060219e-07
3.060219e-07
3.060219e-07
3.060219e-07
3.060219e-07
3.060219e-07
3.060219e-07
3.060219e-07
3.060219e-07
3.060219e-07
1.686458e-07
3.049547e-07
3.060207e-07
3.060219e-07
3.060219e-07
3.060219e-07
3.060219e-07
3.060219e-07
3.060219e-07
3.060219e-07
3.060219e-07
3.060219e-07
3.060219e-07
3.060219e-07
3.060219e-07
3.060219e-07
3.060219e-07
3.060219e-07
1.597975e-07
3.047342e-07
3.060197e-07
3.060219e-07
3.060219e-07
3.060219e-07
3.060219e-07
3.060219e-07
3.060219e-07
3.060219e-07
3.060219e-07
3.060219e-07
3.060219e-07
3.060219e-07
3.060219e-07
3.060219e-07
3.060219e-07
3.060219e-07
1.35638e-07
3.042298e-07
3.060138e-07
3.060217e-07
3.060219e-07
3.060219e-07
3.060219e-07
3.060219e-07
3.060219e-07
3.060219e-07
3.060219e-07
3.060219e-07
3.060219e-07
3.060219e-07
3.060219e-07
3.060219e-07
3.060219e-07
3.060219e-07
1.277714e-07
3.043097e-07
3.060064e-07
3.060201e-07
3.060219e-07
3.060219e-07
3.060219e-07
3.060219e-07
3.060219e-07
3.060219e-07
3.060219e-07
3.060219e-07
3.060219e-07
3.060219e-07
3.060219e-07
3.060219e-07
3.060219e-07
3.060219e-07
1.19873e-07
3.040483e-07
3.060226e-07
3.060172e-07
3.060214e-07
3.060219e-07
3.060219e-07
3.060219e-07
3.060219e-07
3.060219e-07
3.060219e-07
3.060219e-07
3.060219e-07
3.060219e-07
3.060219e-07
3.060219e-07
3.060219e-07
3.060219e-07
1.120233e-07
3.04027e-07
3.060243e-07
3.060229e-07
3.060204e-07
3.060218e-07
3.060219e-07
3.060219e-07
3.060219e-07
3.060219e-07
3.060219e-07
3.060219e-07
3.060219e-07
3.060219e-07
3.060219e-07
3.060219e-07
3.060219e-07
3.060219e-07
1.045142e-07
3.0392e-07
3.060201e-07
3.060236e-07
3.060223e-07
3.060217e-07
3.060219e-07
3.060219e-07
3.060219e-07
3.060219e-07
3.060219e-07
3.060219e-07
3.060219e-07
3.060219e-07
3.060219e-07
3.060219e-07
3.060219e-07
3.060219e-07
9.76283e-08
3.038079e-07
3.060192e-07
3.060222e-07
3.060223e-07
3.060219e-07
3.060219e-07
3.060219e-07
3.060219e-07
3.060219e-07
3.060219e-07
3.060219e-07
3.060219e-07
3.060219e-07
3.060219e-07
3.060219e-07
3.060219e-07
3.060219e-07
9.122249e-08
3.036871e-07
3.06019e-07
3.060219e-07
3.06022e-07
3.06022e-07
3.060219e-07
3.060219e-07
3.060219e-07
3.060219e-07
3.060219e-07
3.060219e-07
3.060219e-07
3.060219e-07
3.060219e-07
3.060219e-07
3.060219e-07
3.060219e-07
8.55687e-08
3.035706e-07
3.060189e-07
3.060219e-07
3.060219e-07
3.060219e-07
3.060219e-07
3.060219e-07
3.060219e-07
3.060219e-07
3.060219e-07
3.060219e-07
3.060219e-07
3.060219e-07
3.060219e-07
3.060219e-07
3.060219e-07
3.060219e-07
8.122246e-08
3.034391e-07
3.060188e-07
3.060219e-07
3.060219e-07
3.060219e-07
3.060219e-07
3.060219e-07
3.060219e-07
3.060219e-07
3.060219e-07
3.060219e-07
3.060219e-07
3.060219e-07
3.060219e-07
3.060219e-07
3.060219e-07
3.060219e-07
7.599095e-08
3.032955e-07
3.060187e-07
3.060219e-07
3.060219e-07
3.060219e-07
3.060219e-07
3.060219e-07
3.060219e-07
3.060219e-07
3.060219e-07
3.060219e-07
3.060219e-07
3.060219e-07
3.060219e-07
3.060219e-07
3.060219e-07
3.060219e-07
7.090916e-08
3.031745e-07
3.060186e-07
3.060219e-07
3.060219e-07
3.060219e-07
3.060219e-07
3.060219e-07
3.060219e-07
3.060219e-07
3.060219e-07
3.060219e-07
3.060219e-07
3.060219e-07
3.060219e-07
3.060219e-07
3.060219e-07
3.060219e-07
6.626599e-08
3.030558e-07
3.060185e-07
3.060219e-07
3.060219e-07
3.060219e-07
3.060219e-07
3.060219e-07
3.060219e-07
3.060219e-07
3.060219e-07
3.060219e-07
3.060219e-07
3.060219e-07
3.060219e-07
3.060219e-07
3.060219e-07
3.060219e-07
6.138449e-08
3.029322e-07
3.060184e-07
3.060219e-07
3.060218e-07
3.060219e-07
3.060219e-07
3.060219e-07
3.060219e-07
3.060219e-07
3.060219e-07
3.060219e-07
3.060219e-07
3.060219e-07
3.060219e-07
3.060219e-07
3.060219e-07
3.060219e-07
5.655878e-08
3.028103e-07
3.060183e-07
3.060213e-07
3.060211e-07
3.060219e-07
3.060219e-07
3.060219e-07
3.060219e-07
3.060219e-07
3.060219e-07
3.060219e-07
3.060219e-07
3.060219e-07
3.060219e-07
3.060219e-07
3.060219e-07
3.060219e-07
5.197126e-08
3.027538e-07
3.060183e-07
3.06009e-07
3.060109e-07
3.060219e-07
3.060219e-07
3.060218e-07
3.060218e-07
3.060219e-07
3.060219e-07
3.060219e-07
3.060219e-07
3.060219e-07
3.060219e-07
3.060219e-07
3.060219e-07
3.060219e-07
4.717024e-08
3.027747e-07
3.060175e-07
3.058955e-07
3.059235e-07
3.060216e-07
3.060218e-07
3.060201e-07
3.060211e-07
3.060219e-07
3.060219e-07
3.060219e-07
3.060219e-07
3.060219e-07
3.060219e-07
3.060219e-07
3.060219e-07
3.060219e-07
4.339109e-08
3.030299e-07
3.060162e-07
3.057186e-07
3.058415e-07
3.060208e-07
3.060217e-07
3.060131e-07
3.060166e-07
3.06022e-07
3.060219e-07
3.060219e-07
3.060219e-07
3.060219e-07
3.060219e-07
3.060219e-07
3.060219e-07
3.060219e-07
3.919227e-08
3.035887e-07
3.060081e-07
3.059748e-07
3.059925e-07
3.060191e-07
3.060215e-07
3.060215e-07
3.060197e-07
3.060219e-07
3.060219e-07
3.060219e-07
3.060219e-07
3.060219e-07
3.060219e-07
3.060219e-07
3.060219e-07
3.060219e-07
3.494131e-08
3.040963e-07
3.059428e-07
3.055447e-07
3.055707e-07
3.059814e-07
3.060211e-07
3.060197e-07
3.0602e-07
3.060217e-07
3.060219e-07
3.060219e-07
3.060219e-07
3.060219e-07
3.060219e-07
3.060219e-07
3.060218e-07
3.060218e-07
2.86221e-08
3.008619e-07
3.058943e-07
3.051631e-07
3.053472e-07
3.057249e-07
3.060194e-07
3.060184e-07
3.060186e-07
3.0602e-07
3.060219e-07
3.060219e-07
3.060218e-07
3.060219e-07
3.060219e-07
3.060219e-07
3.060217e-07
3.06022e-07
2.134019e-08
3.030158e-07
3.058698e-07
3.061581e-07
3.056673e-07
3.05802e-07
3.060128e-07
3.060086e-07
3.060092e-07
3.060198e-07
3.060222e-07
3.06022e-07
3.060217e-07
3.06022e-07
3.060219e-07
3.060219e-07
3.060212e-07
3.060219e-07
1.547173e-08
3.021592e-07
3.057456e-07
3.058172e-07
3.062188e-07
3.06017e-07
3.06041e-07
3.060358e-07
3.060298e-07
3.060358e-07
3.060294e-07
3.060252e-07
3.06022e-07
3.060222e-07
3.060219e-07
3.060216e-07
3.060216e-07
3.060219e-07
8.338665e-09
3.020307e-07
3.050632e-07
3.054976e-07
3.061488e-07
3.062915e-07
3.062901e-07
3.062454e-07
3.062082e-07
3.061623e-07
3.061151e-07
3.060745e-07
3.060405e-07
3.060296e-07
3.060234e-07
3.060215e-07
3.060222e-07
3.060219e-07
2.18649e-08
2.981818e-07
3.048218e-07
3.061377e-07
3.069965e-07
3.0706e-07
3.070069e-07
3.068579e-07
3.067708e-07
3.067231e-07
3.065544e-07
3.063545e-07
3.062133e-07
3.061153e-07
3.060541e-07
3.060278e-07
3.060229e-07
3.060219e-07
2.679257e-08
3.017796e-07
3.055884e-07
3.076018e-07
3.078782e-07
3.077886e-07
3.076586e-07