/*--------------------------------*- C++ -*----------------------------------*\
| =========                 |                                                 |
| \\      /  F ield         | OpenFOAM: The Open Source CFD Toolbox           |
|  \\    /   O peration     | Version:  2206                                  |
|   \\  /    A nd           | Website:  www.openfoam.com                      |
|    \\/     M anipulation  |                                                 |
\*---------------------------------------------------------------------------*/
FoamFile
{
    version     2.0;
    format      ascii;
    arch        "LSB;label=32;scalar=64";
    class       volScalarField;
    location    "2.2";
    object      muEff;
}
// * * * * * * * * * * * * * * * * * * * * * * * * * * * * * * * * * * * * * //

dimensions      [1 -1 -1 0 0 0 0];

internalField   nonuniform List<scalar> 
13078
(
0.004613659
0.0368053
0.0368053
0.0368053
0.0368053
0.0368053
0.0368053
0.0368053
0.0368053
0.0368053
0.0368053
0.0368053
0.0368053
0.0368053
0.0368053
0.0368053
0.0368053
0.0368053
0.0368053
0.0368053
0.0368053
0.0368053
0.0368053
0.0368053
0.0368053
0.0368053
0.0368053
0.0368053
0.0368053
0.0368053
0.0368053
0.0368053
0.0368053
0.0368053
0.0368053
0.0368053
0.0368053
0.0368053
0.0368053
0.0368053
0.0368053
0.0368053
0.0368053
0.0368053
0.0368053
0.0368053
0.0368053
0.0368053
0.0368053
0.0368053
0.0368053
0.0368053
0.0368053
0.0368053
0.0368053
0.0368053
0.0368053
0.0368053
0.0368053
0.0368053
0.0368053
0.0368053
0.0368053
0.0368053
0.0368053
0.0368053
0.0368053
0.0368053
0.0368053
0.0368053
0.0368053
0.0368053
0.0368053
0.0368053
0.0368053
0.0368053
0.0368053
0.0368053
0.0368053
0.0368053
0.0368053
0.0368053
0.0368053
0.0368053
0.0368053
0.0368053
0.0368053
0.0368053
0.0368053
0.0368053
0.0368053
0.0368053
0.0368053
0.0368053
0.0368053
0.0368053
0.0368053
0.0368053
0.0368053
0.0368053
0.0368053
0.0368053
0.0368053
0.0368053
0.0368053
0.0368053
0.0368053
0.0368053
0.0368053
0.0368053
0.0368053
0.0368053
0.0368053
0.0368053
0.0368053
0.0368053
0.0368053
0.0368053
0.0368053
0.0368053
0.0368053
0.0368053
0.0368053
0.0368053
0.0368053
0.0368053
0.0368053
0.0368053
0.0368053
0.0368053
0.0368053
0.0368053
0.0368053
0.0368053
0.0368053
0.0368053
0.0368053
0.0368053
0.0368053
0.0368053
0.0368053
0.0368053
0.0368053
0.0368053
0.0368053
0.0368053
0.0368053
0.0368053
0.0368053
0.0368053
0.0368053
0.0368053
0.0368053
0.0368053
0.0368053
0.0368053
0.0368053
0.0368053
0.0368053
0.0368053
0.0368053
0.0368053
0.0368053
0.0368053
0.0368053
0.0368053
0.0368053
0.0368053
0.0368053
0.0368053
0.0368053
0.0368053
0.0368053
0.0368053
0.0368053
0.0368053
0.0368053
0.0368053
0.0368053
0.0368053
0.0368053
0.0368053
0.0368053
0.0368053
0.0368053
0.0368053
0.0368053
0.0368053
0.0368053
0.0368053
0.0368053
0.0368053
0.0368053
0.0368053
0.0368053
0.0368053
0.0368053
0.0368053
0.0368053
0.0368053
0.0368053
0.0368053
0.0368053
0.0368053
0.0368053
0.0368053
0.0368053
0.0368053
0.0368053
0.0368053
0.0368053
0.0368053
0.0368053
0.0368053
0.0368053
0.0368053
0.0368053
0.0368053
0.0368053
0.0368053
0.0368053
0.0368053
0.0368053
0.0368053
0.0368053
0.0368053
0.0368053
0.0368053
0.0368053
0.0368053
0.0368053
0.0368053
0.0368053
0.0368053
0.0368053
0.0368053
0.0368053
0.0368053
0.0368053
0.0368053
0.0368053
0.0368053
0.0368053
0.0368053
0.0368053
0.0368053
0.0368053
0.0368053
0.0368053
0.0368053
0.0368053
0.0368053
0.0368053
0.0368053
0.0368053
0.0368053
0.0368053
0.0368053
0.0368053
0.0368053
0.0368053
0.0368053
0.0368053
0.0368053
0.0368053
0.0368053
0.0368053
0.0368053
0.0368053
0.0368053
0.0368053
0.0368053
0.0368053
0.0368053
0.0368053
0.0368053
0.0368053
0.0368053
0.0368053
0.0368053
0.0368053
0.0368053
0.0368053
0.0368053
0.0368053
0.0368053
0.0368053
0.0368053
0.0368053
0.0368053
0.0368053
0.0368053
0.0368053
0.0368053
0.0368053
0.0368053
0.0368053
0.0368053
0.0368053
0.0368053
0.0368053
0.0368053
0.0368053
0.0368053
0.0368053
0.0368053
0.0368053
0.0368053
0.0368053
0.0368053
0.0368053
0.0368053
0.0368053
0.0368053
0.0368053
0.0368053
0.0368053
0.0368053
0.0368053
0.0368053
0.0368053
0.0368053
0.0368053
0.0368053
0.0368053
0.0368053
0.0368053
0.0368053
0.0368053
0.0368053
0.0368053
0.0368053
0.0368053
0.0368053
0.0368053
0.0368053
0.0368053
0.0368053
0.0368053
0.0368053
0.0368053
0.0368053
0.0368053
0.0368053
0.0368053
0.0368053
0.0368053
0.0368053
0.0368053
0.0368053
0.0368053
0.0368053
0.0368053
0.0368053
0.0368053
0.0368053
0.0368053
0.0368053
0.0368053
0.0368053
0.0368053
0.0368053
0.0368053
0.0368053
0.0368053
0.0368053
0.0368053
0.0368053
0.0368053
0.0368053
0.0368053
0.0368053
0.0368053
0.0368053
0.0368053
0.0368053
0.0368053
0.0368053
0.0368053
0.0368053
0.0368053
0.0368053
0.0368053
0.0368053
0.0368053
0.0368053
0.0368053
0.0368053
0.0368053
0.0368053
0.0368053
0.0368053
0.0368053
0.0368053
0.0368053
0.0368053
0.0368053
0.0368053
0.0368053
0.0368053
0.0368053
0.0368053
0.0368053
0.0368053
0.0368053
0.0368053
0.0368053
0.0368053
0.0368053
0.0368053
0.0368053
0.0368053
0.0368053
0.0368053
0.0368053
0.0368053
0.0368053
0.0368053
0.0368053
0.0368053
0.0368053
0.0368053
0.0368053
0.0368053
0.0368053
0.0368053
0.0368053
0.0368053
0.0368053
0.0368053
0.0368053
0.0368053
0.0368053
0.0368053
0.0368053
0.0368053
0.0368053
0.0368053
0.0368053
0.0368053
0.0368053
0.0368053
0.0368053
0.0368053
0.0368053
0.0368053
0.0368053
0.0368053
0.0368053
0.0368053
0.0368053
0.0368053
0.0368053
0.0368053
0.0368053
0.0368053
0.0368053
0.0368053
0.0368053
0.0368053
0.0368053
0.0368053
0.0368053
0.0368053
0.0368053
0.0368053
0.0368053
0.0368053
0.0368053
0.0368053
0.0368053
0.0368053
0.0368053
0.0368053
0.0368053
0.0368053
0.0368053
0.0368053
0.0368053
0.0368053
0.0368053
0.0368053
0.0368053
0.0368053
0.0368053
0.0368053
0.0368053
0.0368053
0.0368053
0.0368053
0.0368053
0.0368053
0.0368053
0.0368053
0.0368053
0.0368053
0.0368053
0.0368053
0.0368053
0.0368053
0.0368053
0.0368053
0.0368053
0.0368053
0.0368053
0.0368053
0.0368053
0.0368053
0.0368053
0.0368053
0.0368053
0.0368053
0.0368053
0.0368053
0.0368053
0.0368053
0.0368053
0.0368053
0.0368053
0.0368053
0.0368053
0.0368053
0.0368053
0.0368053
0.0368053
0.0368053
0.0368053
0.0368053
0.0368053
0.0368053
0.0368053
0.0368053
0.0368053
0.0368053
0.0368053
0.0368053
0.0368053
0.0368053
0.0368053
0.0368053
0.0368053
0.0368053
0.0368053
0.0368053
0.0368053
0.0368053
0.0368053
0.0368053
0.0368053
0.0368053
0.0368053
0.0368053
0.0368053
0.0368053
0.0368053
0.0368053
0.0368053
0.0368053
0.0368053
0.0368053
0.0368053
0.0368053
0.0368053
0.0368053
0.0368053
0.0368053
0.0368053
0.0368053
0.0368053
0.0368053
0.0368053
0.0368053
0.0368053
0.0368053
0.0368053
0.0368053
0.0368053
0.0368053
0.0368053
0.0368053
0.0368053
0.0368053
0.0368053
0.0368053
0.0368053
0.0368053
0.0368053
0.0368053
0.0368053
0.0368053
0.0368053
0.0368053
0.0368053
0.0368053
0.0368053
0.0368053
0.0368053
0.0368053
0.0368053
0.0368053
0.0368053
0.0368053
0.0368053
0.0368053
0.0368053
0.0368053
0.0368053
0.0368053
0.0368053
0.0368053
0.0368053
0.0368053
0.0368053
0.0368053
0.0368053
0.0368053
0.0368053
0.0368053
0.0368053
0.0368053
0.0368053
0.0368053
0.0368053
0.0368053
0.0368053
0.0368053
0.0368053
0.0368053
0.0368053
0.0368053
0.0368053
0.0368053
0.0368053
0.0368053
0.0368053
0.0368053
0.0368053
0.0368053
0.0368053
0.0368053
0.0368053
0.0368053
0.0368053
0.0368053
0.0368053
0.0368053
0.0368053
0.0368053
0.0368053
0.0368053
0.0368053
0.0368053
0.0368053
0.0368053
0.0368053
0.0368053
0.0368053
0.0368053
0.0368053
0.0368053
0.0368053
0.0368053
0.0368053
0.0368053
0.0368053
0.0368053
0.0368053
0.0368053
0.0368053
0.0368053
0.0368053
0.0368053
0.0368053
0.0368053
0.0368053
0.0368053
0.0368053
0.0368053
0.0368053
0.0368053
0.0368053
0.0368053
0.0368053
0.0368053
0.0368053
0.0368053
0.0368053
0.0368053
0.0368053
0.0368053
0.0368053
0.0368053
0.0368053
0.0368053
0.0368053
0.0368053
0.0368053
0.0368053
0.0368053
0.0368053
0.0368053
0.0368053
0.0368053
0.0368053
0.0368053
0.0368053
0.0368053
0.0368053
0.0368053
0.0368053
0.0368053
0.0368053
0.0368053
0.0368053
0.0368053
0.0368053
0.0368053
0.0368053
0.0368053
0.0368053
0.0368053
0.0368053
0.0368053
0.0368053
0.0368053
0.0368053
0.0368053
0.0368053
0.0368053
0.0368053
0.0368053
0.0368053
0.0368053
0.0368053
0.0368053
0.0368053
0.0368053
0.0368053
0.0368053
0.0368053
0.0368053
0.0368053
0.0368053
0.0368053
0.0368053
0.0368053
0.0368053
0.0368053
0.0368053
0.0368053
0.0368053
0.0368053
0.0368053
0.0368053
0.0368053
0.0368053
0.0368053
0.0368053
0.0368053
0.0368053
0.0368053
0.0368053
0.0368053
0.0368053
0.0368053
0.0368053
0.0368053
0.0368053
0.0368053
0.0368053
0.0368053
0.0368053
0.0368053
0.0368053
0.0368053
0.0368053
0.0368053
0.0368053
0.0368053
0.0368053
0.0368053
0.0368053
0.0368053
0.0368053
0.0368053
0.0368053
0.0368053
0.0368053
0.0368053
0.0368053
0.0368053
0.0368053
0.0368053
0.0368053
0.0368053
0.0368053
0.0368053
0.0368053
0.0368053
0.0368053
0.0368053
0.0368053
0.0368053
0.0368053
0.0368053
0.0368053
0.0368053
0.0368053
0.0368053
0.0368053
0.0368053
0.0368053
0.0368053
0.0368053
0.0368053
0.0368053
0.0368053
0.0368053
0.0368053
0.0368053
0.0368053
0.0368053
0.0368053
0.0368053
0.0368053
0.0368053
0.0368053
0.0368053
0.0368053
0.0368053
0.0368053
0.0368053
0.0368053
0.0368053
0.0368053
0.0368053
0.0368053
0.0368053
0.0368053
0.0368053
0.0368053
0.0368053
0.0368053
0.0368053
0.0368053
0.0368053
0.0368053
0.0368053
0.0368053
0.0368053
0.0368053
0.0368053
0.0368053
0.0368053
0.0368053
0.0368053
0.0368053
0.0368053
0.0368053
0.0368053
0.0368053
0.0368053
0.0368053
0.0368053
0.0368053
0.0368053
0.0368053
0.0368053
0.0368053
0.0368053
0.0368053
0.0368053
0.0368053
0.0368053
0.0368053
0.0368053
0.0368053
0.0368053
0.0368053
0.0368053
0.0368053
0.0368053
0.0368053
0.0368053
0.0368053
0.0368053
0.0368053
0.0368053
0.0368053
0.0368053
0.0368053
0.0368053
0.0368053
0.0368053
0.0368053
0.0368053
0.0368053
0.0368053
0.0368053
0.0368053
0.0368053
0.0368053
0.0368053
0.0368053
0.0368053
0.0368053
0.0368053
0.0368053
0.0368053
0.0368053
0.0368053
0.0368053
0.0368053
0.0368053
0.0368053
0.0368053
0.0368053
0.0368053
0.0368053
0.0368053
0.0368053
0.0368053
0.0368053
0.0368053
0.0368053
0.0368053
0.0368053
0.0368053
0.0368053
0.0368053
0.0368053
0.0368053
0.0368053
0.0368053
0.0368053
0.0368053
0.0368053
0.0368053
0.0368053
0.0368053
0.0368053
0.0368053
0.0368053
0.0368053
0.0368053
0.0368053
0.0368053
0.0368053
0.0368053
0.0368053
0.0368053
0.0368053
0.0368053
0.0368053
0.0368053
0.0368053
0.0368053
0.0368053
0.0368053
0.0368053
0.0368053
0.0368053
0.0368053
0.0368053
0.0368053
0.0368053
0.0368053
0.0368053
0.0368053
0.0368053
0.0368053
0.0368053
0.0368053
0.0368053
0.0368053
0.0368053
0.0368053
0.0368053
0.0368053
0.0368053
0.0368053
0.0368053
0.0368053
0.0368053
0.0368053
0.0368053
0.0368053
0.0368053
0.0368053
0.0368053
0.0368053
0.0368053
0.0368053
0.0368053
0.0368053
0.0368053
0.0368053
0.0368053
0.0368053
0.0368053
0.0368053
0.0368053
0.0368053
0.0368053
0.0368053
0.0368053
0.0368053
0.0368053
0.0368053
0.0368053
0.0368053
0.0368053
0.0368053
0.0368053
0.0368053
0.0368053
0.0368053
0.0368053
0.0368053
0.0368053
0.0368053
0.0368053
0.0368053
0.0368053
0.0368053
0.0368053
0.0368053
0.0368053
0.0368053
0.0368053
0.0368053
0.0368053
0.0368053
0.0368053
0.0368053
0.0368053
0.0368053
0.0368053
0.0368053
0.0368053
0.0368053
0.0368053
0.0368053
0.0368053
0.0368053
0.0368053
0.0368053
0.0368053
0.0368053
0.0368053
0.0368053
0.0368053
0.0368053
0.0368053
0.0368053
0.0368053
0.0368053
0.0368053
0.0368053
0.0368053
0.0368053
0.0368053
0.0368053
0.0368053
0.0368053
0.0368053
0.0368053
0.0368053
0.0368053
0.0368053
0.0368053
0.0368053
0.0368053
0.0368053
0.0368053
0.0368053
0.0368053
0.0368053
0.0368053
0.0368053
0.0368053
0.0368053
0.0368053
0.0368053
0.0368053
0.0368053
0.0368053
0.0368053
0.0368053
0.0368053
0.0368053
0.0368053
0.0368053
0.0368053
0.0368053
0.0368053
0.0368053
0.0368053
0.0368053
0.0368053
0.0368053
0.0368053
0.0368053
0.0368053
0.0368053
0.0368053
0.0368053
0.0368053
0.0368053
0.0368053
0.0368053
0.0368053
0.0368053
0.0368053
0.0368053
0.0368053
0.0368053
0.0368053
0.0368053
0.0368053
0.0368053
0.0368053
0.0368053
0.0368053
0.0368053
0.0368053
0.0368053
0.0368053
0.0368053
0.0368053
0.0368053
0.0368053
0.0368053
0.0368053
0.0368053
0.0368053
0.0368053
0.0368053
0.0368053
0.0368053
0.0368053
0.0368053
0.0368053
0.0368053
0.0368053
0.0368053
0.0368053
0.0368053
0.0368053
0.0368053
0.0368053
0.0368053
0.0368053
0.0368053
0.0368053
0.0368053
0.0368053
0.0368053
0.0368053
0.0368053
0.0368053
0.0368053
0.0368053
0.0368053
0.0368053
0.0368053
0.0368053
0.0368053
0.0368053
0.0368053
0.0368053
0.0368053
0.0368053
0.0368053
0.0368053
0.0368053
0.0368053
0.0368053
0.0368053
0.0368053
0.0368053
0.0368053
0.0368053
0.0368053
0.0368053
0.0368053
0.0368053
0.0368053
0.0368053
0.0368053
0.0368053
0.0368053
0.0368053
0.0368053
0.0368053
0.0368053
0.0368053
0.0368053
0.0368053
0.0368053
0.0368053
0.0368053
0.0368053
0.0368053
0.0368053
0.0368053
0.0368053
0.0368053
0.0368053
0.0368053
0.0368053
0.0368053
0.0368053
0.0368053
0.0368053
0.0368053
0.0368053
0.0368053
0.0368053
0.0368053
0.0368053
0.0368053
0.0368053
0.0368053
0.0368053
0.0368053
0.0368053
0.0368053
0.0368053
0.0368053
0.0368053
0.0368053
0.0368053
0.0368053
0.0368053
0.0368053
0.0368053
0.0368053
0.0368053
0.0368053
0.0368053
0.0368053
0.0368053
0.0368053
0.0368053
0.0368053
0.0368053
0.0368053
0.0368053
0.0368053
0.0368053
0.0368053
0.0368053
0.0368053
0.0368053
0.0368053
0.0368053
0.0368053
0.0368053
0.0368053
0.0368053
0.0368053
0.0368053
0.0368053
0.0368053
0.0368053
0.0368053
0.0368053
0.0368053
0.0368053
0.0368053
0.0368053
0.0368053
0.0368053
0.0368053
0.0368053
0.0368053
0.0368053
0.0368053
0.0368053
0.0368053
0.0368053
0.0368053
0.0368053
0.0368053
0.0368053
0.0368053
0.0368053
0.0368053
0.0368053
0.0368053
0.0368053
0.0368053
0.0368053
0.0368053
0.0368053
0.0368053
0.0368053
0.0368053
0.0368053
0.0368053
0.0368053
0.0368053
0.0368053
0.0368053
0.0368053
0.0368053
0.0368053
0.0368053
0.0368053
0.0368053
0.0368053
0.0368053
0.0368053
0.0368053
0.0368053
0.0368053
0.0368053
0.0368053
0.0368053
0.0368053
0.0368053
0.0368053
0.0368053
0.0368053
0.0368053
0.0368053
0.0368053
0.0368053
0.0368053
0.0368053
0.0368053
0.0368053
0.0368053
0.0368053
0.0368053
0.0368053
0.0368053
0.0368053
0.0368053
0.0368053
0.0368053
0.0368053
0.0368053
0.0368053
0.0368053
0.0368053
0.0368053
0.0368053
0.0368053
0.0368053
0.0368053
0.0368053
0.0368053
0.0368053
0.0368053
0.0368053
0.0368053
0.0368053
0.0368053
0.0368053
0.0368053
0.0368053
0.0368053
0.0368053
0.0368053
0.0368053
0.0368053
0.0368053
0.0368053
0.0368053
0.0368053
0.0368053
0.0368053
0.0368053
0.0368053
0.0368053
0.0368053
0.0368053
0.0368053
0.0368053
0.0368053
0.0368053
0.0368053
0.0368053
0.0368053
0.0368053
0.0368053
0.0368053
0.0368053
0.0368053
0.0368053
0.0368053
0.0368053
0.0368053
0.0368053
0.0368053
0.0368053
0.0368053
0.0368053
0.0368053
0.0368053
0.0368053
0.0368053
0.0368053
0.0368053
0.0368053
0.0368053
0.0368053
0.0368053
0.0368053
0.0368053
0.0368053
0.0368053
0.0368053
0.0368053
0.0368053
0.0368053
0.0368053
0.0368053
0.0368053
0.0368053
0.0368053
0.0368053
0.0368053
0.0368053
0.0368053
0.0368053
0.0368053
0.0368053
0.0368053
0.0368053
0.0368053
0.0368053
0.0368053
0.0368053
0.0368053
0.0368053
0.0368053
0.0368053
0.0368053
0.0368053
0.0368053
0.0368053
0.0368053
0.0368053
0.0368053
0.0368053
0.0368053
0.0368053
0.0368053
0.0368053
0.0368053
0.0368053
0.0368053
0.0368053
0.0368053
0.0368053
0.0368053
0.0368053
0.0368053
0.0368053
0.0368053
0.0368053
0.0368053
0.0368053
0.0368053
0.0368053
0.0368053
0.0368053
0.0368053
0.0368053
0.0368053
0.0368053
0.0368053
0.0368053
0.0368053
0.0368053
0.0368053
0.0368053
0.0368053
0.0368053
0.0368053
0.0368053
0.0368053
0.0368053
0.0368053
0.0368053
0.0368053
0.0368053
0.0368053
0.0368053
0.0368053
0.0368053
0.0368053
0.0368053
0.0368053
0.0368053
0.0368053
0.0368053
0.0368053
0.0368053
0.0368053
0.0368053
0.0368053
0.0368053
0.0368053
0.0368053
0.0368053
0.0368053
0.0368053
0.0368053
0.0368053
0.0368053
0.0368053
0.0368053
0.0368053
0.0368053
0.0368053
0.0368053
0.0368053
0.0368053
0.0368053
0.0368053
0.0368053
0.0368053
0.0368053
0.0368053
0.0368053
0.0368053
0.0368053
0.0368053
0.0368053
0.0368053
0.0368053
0.0368053
0.0368053
0.0368053
0.0368053
0.0368053
0.0368053
0.0368053
0.0368053
0.0368053
0.0368053
0.0368053
0.0368053
0.0368053
0.0368053
0.0368053
0.0368053
0.0368053
0.0368053
0.0368053
0.0368053
0.0368053
0.0368053
0.0368053
0.0368053
0.0368053
0.0368053
0.0368053
0.0368053
0.0368053
0.0368053
0.001010494
0.001002233
0.001005394
0.001009997
0.001017079
0.001033828
0.001066533
0.001067947
0.001072151
0.001068425
0.001062239
0.001056657
0.00105224
0.001048701
0.00104593
0.001043574
0.001041688
0.00104013
0.001026012
0.001005978
0.001009233
0.001012632
0.001018794
0.001037675
0.001075596
0.001072908
0.001072759
0.001067937
0.001061583
0.001056518
0.001052133
0.001048598
0.001045817
0.001043517
0.001041626
0.001040084
0.001030339
0.001013137
0.001013224
0.001014761
0.001020461
0.001042378
0.001101383
0.001082959
0.001070869
0.001064414
0.001059664
0.001055447
0.001051444
0.001048053
0.001045382
0.001043127
0.001041333
0.001039828
0.001032798
0.001016318
0.001015662
0.001016201
0.001021295
0.001042547
0.001109472
0.001095394
0.001065616
0.001060898
0.001057074
0.001053659
0.001050256
0.001047112
0.001044712
0.001042427
0.001040824
0.001039411
0.001035236
0.001018603
0.001017102
0.00101709
0.001021747
0.001040736
0.001090775
0.001095628
0.001062912
0.001057378
0.001053706
0.001051147
0.001048608
0.001045919
0.001043907
0.001041471
0.001040137
0.001038828
0.001037592
0.001019292
0.001017984
0.001017699
0.00102219
0.00103954
0.001079213
0.00108553
0.001064809
0.001053245
0.001050393
0.001048327
0.001046564
0.001044354
0.001042782
0.001040328
0.001039292
0.001038112
0.001039928
0.001019202
0.001018355
0.001018138
0.001022727
0.001038838
0.001079715
0.001077328
0.001065944
0.001049776
0.001047297
0.001045622
0.001044289
0.001042666
0.001041478
0.001039108
0.001038321
0.001037281
0.001042213
0.001018878
0.001018963
0.001018563
0.00102339
0.00103872
0.001074826
0.001068256
0.001062467
0.001048473
0.001044471
0.001043062
0.001041963
0.00104083
0.00104003
0.001037819
0.001037249
0.001036355
0.001044411
0.001019452
0.00101945
0.001018968
0.001024138
0.001039057
0.001067873
0.001062975
0.001057869
0.001048233
0.001042037
0.001040725
0.0010397
0.001038956
0.001038543
0.001036468
0.001036114
0.001035363
0.001046716
0.001019007
0.001019739
0.001019316
0.001025008
0.001039493
0.00106334
0.001054974
0.001052336
0.00104629
0.001040669
0.001038243
0.001037904
0.001037402
0.001037023
0.001035108
0.001034931
0.001034322
0.001049019
0.001018605
0.00101991
0.001019627
0.001025912
0.001039907
0.001058044
0.001049616
0.001048025
0.001044584
0.001039229
0.001036611
0.001036316
0.001035697
0.001035517
0.001033727
0.001033745
0.001033247
0.001051222
0.001016187
0.001019559
0.00101959
0.001026559
0.001039971
0.001052679
0.001048937
0.001044154
0.001041347
0.001035856
0.001034672
0.001034462
0.00103398
0.001034008
0.001032432
0.001032536
0.001032171
0.001053493
0.001012622
0.001016661
0.001018804
0.00102686
0.001039562
0.001048092
0.00104593
0.001039868
0.001035759
0.001033508
0.001032606
0.001032548
0.001032412
0.001032597
0.001031109
0.001031335
0.001031072
0.001056039
0.001008598
0.001015941
0.001019092
0.001028225
0.001039227
0.001043956
0.001041625
0.001035724
0.001033245
0.00103153
0.001030743
0.001030849
0.001030908
0.001031218
0.001029806
0.001030153
0.00102998
0.001069473
0.001009818
0.00101672
0.001020348
0.001029657
0.001038647
0.001040724
0.001037913
0.001033272
0.001031261
0.001029788
0.001029142
0.00102936
0.00102946
0.001029873
0.001028544
0.001028988
0.001028895
0.001072551
0.001009733
0.00101864
0.001020723
0.001031792
0.001037985
0.001037658
0.001034855
0.00103116
0.001029619
0.001028194
0.001027716
0.001027895
0.001028067
0.001028562
0.001027323
0.001027843
0.001027826
0.00107713
0.001010328
0.00101916
0.001022273
0.001033277
0.001036941
0.001035127
0.001032236
0.001029183
0.001028033
0.001026629
0.00102633
0.001026506
0.001026732
0.001027271
0.00102615
0.001026724
0.001026769
0.001082238
0.001010297
0.001022542
0.001022271
0.001032926
0.001035124
0.001032434
0.001029689
0.001027255
0.001026346
0.001025147
0.001024995
0.001025193
0.001025454
0.001025956
0.001025049
0.001025626
0.001025729
0.001087781
0.001009798
0.001023984
0.001025045
0.00102918
0.001032166
0.001029605
0.001027238
0.001025315
0.001024631
0.001023757
0.001023715
0.001023932
0.001024251
0.001024579
0.001024034
0.001024537
0.001024705
0.001093319
0.001009383
0.001024281
0.001025162
0.001029947
0.00102612
0.001026806
0.00102485
0.001023358
0.001022957
0.001022442
0.00102247
0.001022698
0.001023002
0.00102306
0.001023199
0.0010235
0.001023695
0.001098812
0.001008847
0.001023515
0.001024298
0.001027105
0.001025634
0.001022612
0.001022518
0.001021494
0.001021411
0.001021172
0.001021259
0.001021509
0.001021746
0.001021944
0.001022338
0.001022441
0.001022706
0.001104519
0.001008339
0.001022363
0.001022529
0.001024057
0.001022862
0.001021474
0.001020288
0.001019743
0.00102
0.001019947
0.001020087
0.001020368
0.001020672
0.001020872
0.001021317
0.001021447
0.001021742
0.001110608
0.001007799
0.001020847
0.00102007
0.001021513
0.001020154
0.001019267
0.001018425
0.001018509
0.001018694
0.001018759
0.001018952
0.001019267
0.001019579
0.0010198
0.001020275
0.001020464
0.001020797
0.001117084
0.001007364
0.001019243
0.001017522
0.001018993
0.001017987
0.001017202
0.001016886
0.001016903
0.001017619
0.001017646
0.001017844
0.001018202
0.0010186
0.001018708
0.001019244
0.001019496
0.001019853
0.001124159
0.001006929
0.001017504
0.001015061
0.001016811
0.00101611
0.001015514
0.001015548
0.001015695
0.001016115
0.00101664
0.001016819
0.001017162
0.00101776
0.001017609
0.001018318
0.001018575
0.001018942
0.001131558
0.001006536
0.001015911
0.001013228
0.001014849
0.00101452
0.001014099
0.001014351
0.001014366
0.001014993
0.001015422
0.001015878
0.001016219
0.001017492
0.001016572
0.00101734
0.001017654
0.001018034
0.001139602
0.001006158
0.001014346
0.001011927
0.001012813
0.001013012
0.001012926
0.001013006
0.001013215
0.001013943
0.001014415
0.001014839
0.001015327
0.001015995
0.001015425
0.001016401
0.001016761
0.001017204
0.001148304
0.001005773
0.001013
0.001011006
0.001010666
0.001011708
0.001011735
0.001011823
0.001012211
0.001012936
0.001013449
0.001013897
0.00101441
0.001014917
0.001014805
0.001015481
0.001015899
0.00101639
0.001157571
0.001005363
0.001011612
0.001010864
0.001008383
0.001010862
0.001010644
0.001010647
0.00101152
0.001012004
0.001012525
0.001012982
0.001013532
0.001013822
0.001014233
0.001014679
0.001015036
0.001015612
0.001167769
0.001004896
0.001009364
0.001011681
0.001006743
0.001010338
0.00100972
0.001009609
0.001011048
0.001011008
0.001011625
0.001012134
0.001012654
0.001012973
0.001013505
0.001013836
0.001014301
0.001015703
0.001178765
0.001004404
0.001006698
0.001011501
0.001007447
0.00100805
0.001008685
0.001008728
0.001010133
0.001010136
0.001010814
0.001011356
0.00101192
0.00101211
0.001012648
0.001013021
0.001013503
0.001014019
0.001190596
0.00100368
0.001005147
0.001008415
0.001007757
0.001006986
0.001007704
0.001007801
0.001008576
0.001009694
0.001010192
0.001010651
0.00101131
0.001011211
0.001011913
0.001012245
0.001012764
0.001012774
0.001203701
0.001003472
0.001004956
0.00100523
0.001007702
0.0010063
0.001006948
0.001007491
0.001008205
0.001008909
0.001009579
0.001010015
0.00101064
0.00101063
0.001011041
0.001011483
0.001012386
0.00101197
0.001220087
0.001002802
0.001004053
0.00100338
0.001006845
0.001006107
0.001006441
0.001006895
0.001007649
0.001008542
0.001009113
0.001009428
0.001009826
0.001009861
0.001010337
0.001010765
0.001011089
0.001011399
0.00127064
0.001002131
0.001003194
0.001003493
0.00100334
0.001008533
0.001006434
0.001006603
0.001008609
0.001007842
0.001008449
0.0010088
0.001008924
0.001009313
0.001009663
0.001010064
0.001009793
0.001011249
0.001308002
0.001001724
0.001002471
0.001003399
0.001003926
0.001005453
0.001005792
0.001008075
0.00100676
0.001007321
0.001007757
0.001008139
0.001008062
0.001008768
0.00100898
0.00100994
0.001009667
0.001010322
0.001378665
0.001001117
0.001002384
0.001003482
0.001004186
0.00100502
0.001005807
0.001006676
0.001006731
0.001006947
0.001007206
0.001007595
0.001007494
0.001008104
0.001008408
0.00100857
0.001008674
0.001009506
0.001860806
0.001000569
0.001001869
0.001002518
0.001003746
0.001004882
0.001005713
0.001006219
0.001006308
0.001006479
0.001006631
0.001006745
0.001006954
0.001007224
0.001007714
0.001007455
0.001008652
0.001008812
0.0030937
0.001000445
0.001002977
0.00100353
0.001004477
0.001005318
0.001005793
0.001005892
0.001005819
0.001005948
0.001006045
0.001006054
0.001006378
0.001006578
0.001006849
0.001007224
0.001007726
0.001008173
0.009075072
0.001000672
0.001001296
0.001003089
0.001005751
0.001005812
0.001005713
0.001005425
0.00100528
0.001005363
0.001005473
0.001005299
0.001005767
0.0010061
0.001006255
0.001006692
0.001007032
0.001007454
0.0368053
0.001000571
0.001001885
0.001003717
0.001005363
0.001005537
0.00100519
0.001004915
0.001004728
0.001004786
0.001004936
0.001004712
0.001005266
0.001005785
0.001005481
0.001005946
0.001006416
0.001006843
0.0368053
0.001000224
0.001002269
0.001004871
0.001005035
0.00100506
0.001004406
0.001004336
0.001004138
0.001004271
0.001004241
0.001004413
0.001004715
0.001004959
0.00100493
0.001005469
0.001005914
0.001006327
0.0368053
0.001000223
0.00100213
0.001004609
0.001004557
0.001004083
0.001003846
0.001003625
0.00100364
0.001003763
0.001003679
0.00100403
0.001004231
0.001003991
0.0010046
0.001005022
0.001005425
0.001005564
0.0368053
0.001001263
0.001003172
0.001006671
0.00100409
0.001003353
0.001003322
0.001003219
0.001003117
0.001003313
0.001003051
0.00100368
0.001003519
0.001003981
0.001004178
0.001004558
0.001004689
0.001005502
0.0368053
0.001001636
0.001002794
0.001004689
0.001004418
0.001002914
0.001002938
0.001002783
0.001002725
0.001003028
0.0010028
0.001003121
0.001002873
0.001003821
0.00100388
0.001003941
0.001004546
0.001004658
0.0368053
0.001002313
0.001001665
0.001006254
0.001004747
0.001002642
0.001002474
0.001002347
0.001002275
0.001002394
0.001002413
0.001002593
0.001002901
0.001003091
0.001003145
0.001003855
0.001003985
0.001004715
0.0368053
0.001001488
0.001000904
0.001005873
0.001002622
0.001002363
0.001002005
0.001001935
0.001001949
0.001001983
0.001002214
0.001002198
0.001002633
0.001002554
0.00100317
0.001003169
0.001003831
0.001003816
0.0368053
0.001052816
0.001001943
0.001003015
0.001001846
0.001001755
0.001001639
0.00100159
0.001001615
0.00100175
0.001001753
0.001001818
0.001002075
0.001002522
0.001002541
0.001003005
0.001003146
0.001004032
0.0368053
0.001209639
0.001002093
0.001000772
0.001001154
0.001001268
0.001001281
0.001001219
0.001001224
0.001001374
0.001001389
0.001001626
0.001001904
0.001001998
0.00100229
0.001002655
0.001003018
0.001003259
0.0368053
0.001842827
0.001005681
0.001000821
0.001000993
0.001001155
0.001001173
0.001001357
0.001001595
0.00100166
0.001002245
0.001002234
0.001002811
0.001003252
0.0368053
0.0368053
0.001000892
0.001001162
0.001001207
0.001001647
0.001001673
0.001002341
0.001002289
0.001003001
0.0368053
0.001000842
0.001001184
0.001001294
0.001001594
0.001001912
0.001002287
0.001002809
0.001000949
0.001001195
0.001001538
0.00100171
0.001002039
0.001002488
0.001001037
0.001001219
0.001001635
0.001002077
0.001002413
0.001001133
0.001001239
0.001001574
0.001001893
0.001002306
0.001000902
0.001001135
0.001001459
0.001001828
0.00100223
0.001000904
0.001001115
0.001001456
0.001001817
0.001002215
0.001000919
0.001001162
0.001001488
0.001001866
0.00100223
0.001000971
0.001001152
0.001001513
0.001001939
0.001002294
0.001000836
0.001000942
0.00100139
0.001001569
0.001002067
0.001002438
0.0368053
0.001001169
0.001001114
0.00100142
0.001001802
0.001002125
0.001002611
0.0368053
0.0368053
0.001001034
0.001001139
0.001001346
0.001001628
0.001001947
0.001002305
0.001002855
0.0368053
0.004718912
0.001008347
0.001000811
0.001000977
0.001001105
0.001001414
0.001001534
0.001001777
0.001002161
0.001002443
0.001002901
0.0368053
0.001469865
0.001004377
0.001001329
0.001001307
0.001001108
0.001001026
0.001000968
0.001001084
0.001001075
0.001001308
0.001001329
0.001001511
0.001001966
0.001001968
0.001002573
0.001002702
0.001003386
0.0368053
0.001164581
0.001002116
0.00100105
0.001001001
0.001001276
0.001001252
0.001001219
0.001001409
0.001001363
0.001001455
0.00100169
0.001001784
0.001002018
0.001002554
0.001002538
0.001003396
0.001003383
0.0368053
0.001128418
0.0010008
0.001001364
0.001001445
0.001001366
0.001001498
0.001001552
0.001001562
0.001001643
0.001001758
0.001001923
0.00100229
0.001002332
0.001002661
0.001003221
0.001003268
0.001003908
0.0368053
0.001029688
0.001001134
0.001001085
0.001001332
0.001001586
0.001001691
0.001001789
0.001001868
0.001001958
0.001002139
0.001002125
0.001002574
0.001002813
0.001003047
0.001003293
0.001003932
0.001004313
0.0368053
0.001013899
0.001001508
0.00100125
0.001001869
0.001002054
0.001002002
0.001002104
0.001002184
0.001002339
0.001002669
0.001002534
0.001002809
0.001003122
0.00100337
0.001003918
0.001004071
0.001004775
0.0368053
0.00100942
0.00100191
0.001001755
0.001002031
0.001002201
0.001002313
0.001002446
0.001002573
0.001002688
0.001002714
0.001003112
0.001003323
0.00100354
0.001003952
0.001004055
0.001004652
0.001005134
0.0368053
0.001005145
0.001001616
0.001001846
0.001002416
0.001002433
0.00100273
0.001002807
0.001002851
0.001003049
0.001003019
0.001003243
0.00100363
0.001003878
0.001004259
0.001004634
0.001004938
0.001005673
0.0368053
0.001004437
0.001001552
0.001002998
0.001003249
0.001002982
0.001002987
0.001003143
0.001003225
0.001003414
0.001003633
0.001004108
0.001004197
0.001004757
0.001004749
0.001005119
0.001005648
0.001005829
0.0368053
0.001008039
0.0010038
0.00100327
0.001003538
0.00100353
0.00100355