/*--------------------------------*- C++ -*----------------------------------*\
| =========                 |                                                 |
| \\      /  F ield         | OpenFOAM: The Open Source CFD Toolbox           |
|  \\    /   O peration     | Version:  2206                                  |
|   \\  /    A nd           | Website:  www.openfoam.com                      |
|    \\/     M anipulation  |                                                 |
\*---------------------------------------------------------------------------*/
FoamFile
{
    version     2.0;
    format      ascii;
    arch        "LSB;label=32;scalar=64";
    class       volScalarField;
    location    "2.2";
    object      muI;
}
// * * * * * * * * * * * * * * * * * * * * * * * * * * * * * * * * * * * * * //

dimensions      [0 0 0 0 0 0 0];

internalField   nonuniform List<scalar> 
13078
(
0.772882
0.630017
0.6300016
0.6300006
0.6300003
0.6300002
0.6300002
0.6300108
0.6300026
0.6300011
0.6300005
0.6300003
0.6300002
0.6300002
0.6300017
0.630001
0.6300005
0.6300003
0.6300002
0.6300002
0.6300001
0.6300005
0.6300004
0.6300003
0.6300002
0.6300002
0.6300001
0.6300001
0.6300002
0.6300002
0.6300002
0.6300001
0.6300001
0.6300001
0.6300001
0.6300001
0.6300001
0.6300001
0.6300001
0.6300001
0.6300001
0.6300001
0.6300001
0.6300001
0.6300001
0.6300001
0.6300001
0.6300001
0.6300001
0.6300001
0.63
0.63
0.63
0.63
0.63
0.6300001
0.63
0.63
0.63
0.63
0.63
0.63
0.63
0.63
0.63
0.63
0.63
0.63
0.63
0.63
0.63
0.63
0.63
0.63
0.63
0.63
0.63
0.63
0.63
0.63
0.63
0.63
0.63
0.63
0.63
0.63
0.63
0.63
0.63
0.63
0.63
0.63
0.63
0.63
0.63
0.63
0.63
0.63
0.63
0.63
0.63
0.63
0.63
0.63
0.63
0.63
0.63
0.63
0.63
0.63
0.63
0.63
0.63
0.63
0.63
0.63
0.63
0.63
0.63
0.63
0.63
0.63
0.63
0.63
0.63
0.63
0.63
0.63
0.63
0.63
0.63
0.63
0.63
0.63
0.63
0.63
0.63
0.63
0.63
0.6300001
0.63
0.63
0.63
0.63
0.63
0.63
0.6300001
0.63
0.63
0.63
0.63
0.63
0.6300001
0.6300001
0.63
0.63
0.63
0.63
0.63
0.6300001
0.6300001
0.63
0.63
0.63
0.63
0.6300001
0.6300001
0.6300001
0.63
0.63
0.63
0.6300001
0.6300001
0.6300001
0.6300001
0.63
0.6300001
0.6300001
0.6300001
0.6300001
0.6300001
0.6300001
0.63
0.6300001
0.6300001
0.6300001
0.6300001
0.6300001
0.6300001
0.6300001
0.6300001
0.6300001
0.6300001
0.6300001
0.6300001
0.6300001
0.6300001
0.6300001
0.6300001
0.6300001
0.6300001
0.6300001
0.6300001
0.6300001
0.6300001
0.6300001
0.6300001
0.6300001
0.6300001
0.6300001
0.6300001
0.6300001
0.6300001
0.6300001
0.6300001
0.6300001
0.6300001
0.6300001
0.6300001
0.6300001
0.6300001
0.6300001
0.6300002
0.6300002
0.6300001
0.6300001
0.6300001
0.6300002
0.6300002
0.6300002
0.6300002
0.6300001
0.6300002
0.6300002
0.6300002
0.6300002
0.6300002
0.6300002
0.6300001
0.6300002
0.6300002
0.6300002
0.6300002
0.6300002
0.6300003
0.6300001
0.6300002
0.6300002
0.6300002
0.6300002
0.6300002
0.6300003
0.6300001
0.6300002
0.6300002
0.6300002
0.6300002
0.6300003
0.6300003
0.6300001
0.6300002
0.6300002
0.6300002
0.6300002
0.6300002
0.6300003
0.6300001
0.6300002
0.6300002
0.6300002
0.6300002
0.6300002
0.6300003
0.6300001
0.6300001
0.6300002
0.6300002
0.6300002
0.6300003
0.6300005
0.6300001
0.6300001
0.6300001
0.6300002
0.6300003
0.6300006
0.6300025
0.6300001
0.6300001
0.6300002
0.6300003
0.6300006
0.6300027
0.6300112
0.6300001
0.6300001
0.6300003
0.6300006
0.6300022
0.6300093
0.6300173
0.6300001
0.6300002
0.6300005
0.6300015
0.630007
0.6300154
0.6300157
0.6300002
0.6300004
0.6300011
0.6300045
0.6300121
0.6300159
0.6300124
0.6300003
0.6300008
0.6300028
0.6300088
0.6300144
0.6300132
0.6300102
0.6300005
0.6300016
0.6300057
0.6300123
0.6300139
0.6300108
0.6300091
0.6300009
0.6300032
0.6300087
0.630013
0.6300119
0.6300092
0.6300086
0.6300015
0.6300052
0.6300105
0.6300123
0.6300099
0.630008
0.6300082
0.6300025
0.630007
0.630011
0.6300109
0.6300084
0.6300073
0.6300077
0.6300038
0.6300081
0.6300106
0.6300095
0.6300074
0.630007
0.6300075
0.630005
0.6300086
0.6300097
0.6300082
0.6300067
0.6300068
0.6300074
0.6300058
0.6300086
0.6300089
0.6300075
0.6300064
0.6300067
0.6300076
0.6300062
0.6300085
0.6300085
0.6300072
0.6300063
0.630007
0.6300083
0.6300063
0.6300084
0.6300083
0.630007
0.6300064
0.6300074
0.630009
0.6300059
0.6300082
0.6300083
0.6300071
0.6300066
0.6300077
0.6300095
0.6300051
0.630008
0.6300086
0.6300075
0.6300069
0.630008
0.6300096
0.630004
0.6300074
0.6300089
0.6300081
0.6300073
0.630008
0.6300094
0.6300029
0.6300064
0.630009
0.6300088
0.6300078
0.6300081
0.6300091
0.6300019
0.6300052
0.6300087
0.6300097
0.6300087
0.6300084
0.6300091
0.6300012
0.6300037
0.630008
0.6300105
0.6300098
0.630009
0.6300094
0.6300008
0.6300024
0.6300063
0.6300104
0.6300108
0.6300097
0.6300096
0.6300006
0.6300014
0.6300044
0.6300096
0.6300118
0.6300107
0.63001
0.6300004
0.6300008
0.6300026
0.6300076
0.630012
0.6300117
0.6300104
0.6300003
0.6300005
0.6300013
0.630005
0.6300112
0.6300127
0.630011
0.6300002
0.6300003
0.6300006
0.6300025
0.6300085
0.6300132
0.630012
0.6300001
0.6300002
0.6300004
0.630001
0.6300049
0.630012
0.6300135
0.6300001
0.6300001
0.6300002
0.6300004
0.6300019
0.6300085
0.6300144
0.63
0.63
0.6300001
0.6300002
0.6300006
0.6300034
0.6300117
0.63
0.6300001
0.6300001
0.6300001
0.6300003
0.6300007
0.630005
0.6300001
0.6300001
0.6300001
0.6300001
0.6300002
0.6300003
0.6300008
0.6300001
0.6300001
0.6300001
0.6300001
0.6300001
0.6300002
0.6300003
0.6300001
0.6300001
0.6300002
0.6300002
0.6300002
0.6300002
0.6300002
0.6300001
0.6300002
0.6300002
0.6300002
0.6300002
0.6300002
0.6300002
0.6300001
0.6300002
0.6300002
0.6300002
0.6300002
0.6300002
0.6300002
0.6300001
0.6300002
0.6300002
0.6300002
0.6300002
0.6300002
0.6300002
0.6300001
0.6300002
0.6300002
0.6300002
0.6300002
0.6300002
0.6300002
0.6300001
0.6300001
0.6300002
0.6300002
0.6300002
0.6300002
0.6300002
0.6300001
0.6300001
0.6300001
0.6300002
0.6300002
0.6300002
0.6300002
0.6300001
0.6300001
0.6300001
0.6300001
0.6300001
0.6300002
0.6300002
0.6300001
0.6300001
0.6300001
0.6300001
0.6300001
0.6300001
0.6300002
0.6300001
0.6300001
0.6300001
0.6300001
0.6300001
0.6300001
0.6300001
0.6300001
0.6300001
0.6300001
0.6300001
0.6300001
0.6300001
0.6300001
0.6300001
0.6300001
0.6300001
0.6300001
0.6300001
0.6300001
0.6300001
0.6300001
0.6300001
0.6300001
0.6300001
0.6300001
0.6300001
0.6300001
0.63
0.6300001
0.6300001
0.6300001
0.6300001
0.6300001
0.6300001
0.63
0.6300001
0.6300001
0.6300001
0.6300001
0.6300001
0.6300001
0.63
0.6300001
0.6300001
0.6300001
0.6300001
0.6300001
0.6300001
0.63
0.63
0.63
0.6300001
0.6300001
0.6300001
0.6300001
0.63
0.63
0.63
0.63
0.6300001
0.6300001
0.6300001
0.63
0.63
0.63
0.63
0.63
0.6300001
0.6300001
0.63
0.63
0.63
0.63
0.63
0.6300001
0.6300001
0.63
0.63
0.63
0.63
0.63
0.63
0.6300001
0.63
0.63
0.63
0.63
0.63
0.63
0.6300001
0.63
0.63
0.63
0.63
0.63
0.63
0.63
0.63
0.63
0.63
0.63
0.63
0.63
0.63
0.63
0.63
0.63
0.63
0.63
0.63
0.63
0.63
0.63
0.63
0.63
0.63
0.63
0.63
0.63
0.63
0.63
0.63
0.63
0.63
0.63
0.63
0.63
0.63
0.63
0.63
0.63
0.63
0.63
0.63
0.63
0.63
0.63
0.63
0.63
0.63
0.63
0.63
0.63
0.63
0.63
0.63
0.63
0.63
0.63
0.63
0.63
0.63
0.63
0.63
0.63
0.63
0.63
0.63
0.63
0.63
0.63
0.63
0.63
0.63
0.63
0.63
0.63
0.6300001
0.63
0.63
0.63
0.63
0.6300001
0.6300001
0.6300001
0.6300001
0.6300001
0.6300001
0.6300001
0.6300001
0.6300001
0.6300001
0.6300001
0.6300001
0.6300001
0.6300001
0.6300001
0.6300001
0.6300002
0.6300002
0.6300002
0.6300001
0.6300001
0.6300001
0.6300001
0.6300005
0.6300004
0.6300003
0.6300002
0.6300002
0.6300001
0.6300001
0.6300017
0.630001
0.6300005
0.6300003
0.6300002
0.6300002
0.6300001
0.6300091
0.6300024
0.6300011
0.6300005
0.6300003
0.6300002
0.6300002
0.6300001
0.6300001
0.6300001
0.6300001
0.6300001
0.63
0.6300001
0.6300001
0.6300001
0.6300001
0.6300001
0.6300001
0.63
0.6300001
0.6300001
0.6300001
0.6300001
0.6300001
0.6300001
0.63
0.6300001
0.6300001
0.6300001
0.6300001
0.6300001
0.6300001
0.63
0.6300001
0.6300001
0.6300001
0.6300001
0.6300001
0.6300001
0.6300001
0.6300001
0.6300001
0.6300001
0.6300001
0.6300001
0.6300001
0.6300001
0.6300001
0.6300001
0.6300001
0.6300001
0.6300001
0.6300001
0.6300001
0.6300001
0.6300001
0.6300001
0.6300001
0.6300001
0.6300001
0.6300001
0.6300001
0.6300001
0.6300001
0.6300001
0.6300001
0.6300001
0.6300001
0.6300001
0.63
0.6300001
0.6300001
0.6300001
0.6300001
0.6300001
0.6300001
0.63
0.6300001
0.6300001
0.63
0.6300001
0.6300001
0.6300001
0.63
0.6300001
0.6300001
0.63
0.6300001
0.6300001
0.6300001
0.63
0.6300001
0.6300001
0.63
0.6300001
0.6300001
0.6300001
0.63
0.6300001
0.6300001
0.63
0.63
0.6300001
0.6300001
0.63
0.6300001
0.6300001
0.63
0.6300001
0.6300001
0.6300001
0.63
0.6300001
0.6300001
0.63
0.6300001
0.6300001
0.6300001
0.6300001
0.6300001
0.6300001
0.63
0.6300001
0.6300001
0.6300001
0.6300001
0.6300001
0.6300001
0.6300001
0.6300001
0.6300001
0.6300001
0.6300001
0.6300001
0.6300001
0.6300001
0.6300001
0.6300001
0.6300001
0.6300001
0.6300001
0.6300001
0.6300001
0.6300001
0.6300001
0.6300001
0.6300001
0.6300001
0.6300001
0.6300001
0.6300001
0.6300001
0.6300001
0.6300001
0.6300001
0.6300001
0.6300001
0.6300001
0.6300001
0.6300002
0.6300001
0.6300001
0.6300001
0.6300001
0.6300001
0.6300001
0.6300002
0.6300001
0.6300001
0.6300001
0.6300001
0.6300001
0.6300001
0.6300002
0.6300001
0.6300001
0.6300001
0.6300001
0.6300001
0.6300001
0.6300002
0.6300001
0.6300001
0.6300001
0.6300001
0.6300001
0.6300001
0.6300003
0.6300001
0.6300001
0.6300001
0.6300001
0.6300001
0.6300001
0.6300003
0.6300001
0.6300001
0.6300001
0.6300001
0.6300001
0.6300002
0.6300004
0.6300001
0.6300001
0.6300001
0.6300001
0.6300001
0.6300002
0.6300004
0.6300001
0.6300001
0.6300001
0.6300001
0.6300002
0.6300002
0.6300005
0.6300002
0.6300001
0.6300002
0.6300002
0.6300002
0.6300003
0.6300007
0.6300002
0.6300002
0.6300002
0.6300002
0.6300002
0.6300003
0.6300009
0.6300002
0.6300002
0.6300002
0.6300002
0.6300003
0.6300004
0.6300011
0.6300002
0.6300002
0.6300002
0.6300002
0.6300003
0.6300005
0.6300011
0.6300003
0.6300002
0.6300002
0.6300002
0.6300003
0.6300004
0.6300007
0.6300003
0.6300003
0.6300002
0.6300002
0.6300002
0.6300003
0.6300045
0.6300003
0.6300004
0.6300003
0.6300002
0.6300002
0.6300003
0.6300005
0.6300004
0.6300004
0.6300003
0.6300004
0.6300007
0.6300016
0.6300062
0.6300004
0.6300006
0.630001
0.6300034
0.6300081
0.6300097
0.6300168
0.6300019
0.6300026
0.6300119
0.6300165
0.6300136
0.6300118
0.6300085
0.630012
0.6300174
0.6300173
0.6300105
0.6300073
0.630006
0.630006
0.6300191
0.630016
0.6300101
0.6300077
0.6300057
0.6300052
0.630004
0.6300151
0.6300097
0.6300089
0.6300086
0.6300073
0.6300065
0.6300175
0.6300109
0.6300081
0.6300104
0.6300123
0.6300137
0.6300155
0.6300254
0.6300093
0.6300088
0.6300135
0.6300164
0.630016
0.6300154
0.6300223
0.6300097
0.6300107
0.6300156
0.6300165
0.6300152
0.6300175
0.630019
0.6300098
0.6300112
0.6300155
0.6300162
0.6300165
0.6300155
0.6300126
0.6300099
0.6300115
0.6300143
0.6300159
0.6300157
0.6300112
0.630008
0.6300094
0.6300104
0.6300131
0.6300151
0.630015
0.6300123
0.6300137
0.6300087
0.6300095
0.630012
0.6300135
0.6300153
0.6300161
0.6300212
0.630008
0.6300084
0.6300108
0.6300128
0.6300162
0.630022
0.6300322
0.6300079
0.6300081
0.6300105
0.6300132
0.6300189
0.6300285
0.6300338
0.6300084
0.6300086
0.6300119
0.6300162
0.6300234
0.6300325
0.6300271
0.6300095
0.63001
0.6300142
0.6300204
0.6300285
0.6300318
0.6300424
0.6300105
0.6300114
0.6300162
0.6300241
0.6300336
0.6300345
0.6300342
0.6300109
0.6300123
0.6300178
0.6300271
0.6300381
0.6300473
0.6300111
0.6300128
0.6300188
0.6300271
0.6300365
0.6300438
0.630011
0.6300128
0.6300184
0.6300237
0.6300283
0.6300282
0.6300105
0.6300122
0.6300175
0.6300208
0.6300227
0.6300197
0.6300135
0.6300099
0.6300111
0.6300165
0.6300203
0.6300226
0.6300217
0.6300108
0.6300104
0.6300114
0.6300144
0.630019
0.6300212
0.630022
0.6300218
0.6300107
0.6300125
0.6300165
0.630019
0.6300171
0.6300144
0.6300117
0.6300113
0.630014
0.6300191
0.6300212
0.6300184
0.6300132
0.6300085
0.6300113
0.6300144
0.630022
0.6300233
0.6300189
0.6300147
0.6300098
0.630011
0.6300142
0.6300223
0.6300237
0.6300199
0.630016
0.6300098
0.6300109
0.630013
0.6300203
0.6300218
0.6300168
0.6300161
0.6300105
0.6300113
0.6300121
0.630017
0.6300191
0.6300155
0.6300125
0.6300138
0.6300127
0.6300115
0.6300129
0.630015
0.6300135
0.6300128
0.6300148
0.6300156
0.6300129
0.6300104
0.63001
0.6300084
0.6300058
0.6300077
0.6300144
0.630017
0.63001
0.6300084
0.6300077
0.6300106
0.6300039
0.6300061
0.6300173
0.6300127
0.6300092
0.6300083
0.6300096
0.6300207
0.6300007
0.6300046
0.6300128
0.6300102
0.630008
0.630008
0.6300148
0.6300003
0.6300004
0.6300016
0.6300052
0.6300042
0.6300035
0.6300075
0.6300003
0.6300003
0.6300003
0.6300006
0.6300011
0.6300009
0.6300015
0.6300003
0.6300003
0.6300002
0.6300003
0.6300003
0.6300003
0.6300005
0.6300003
0.6300003
0.6300002
0.6300002
0.6300002
0.6300002
0.6300003
0.6300002
0.6300003
0.6300002
0.6300001
0.6300001
0.6300001
0.6300004
0.6300002
0.6300002
0.6300002
0.6300001
0.6300001
0.6300001
0.6300004
0.6300002
0.6300002
0.6300002
0.6300001
0.6300001
0.6300002
0.6300002
0.6300002
0.6300002
0.6300002
0.6300001
0.6300002
0.6300002
0.6300012
0.6300002
0.6300002
0.6300001
0.6300001
0.6300002
0.6300002
0.6300006
0.6300001
0.6300002
0.6300001
0.6300001
0.6300002
0.6300002
0.6300006
0.6300001
0.6300001
0.6300001
0.6300001
0.6300002
0.6300002
0.6300005
0.6300001
0.6300001
0.6300001
0.6300001
0.6300001
0.6300002
0.6300004
0.6300001
0.6300001
0.6300001
0.6300001
0.6300001
0.6300002
0.6300004
0.6300001
0.6300001
0.6300001
0.6300001
0.6300001
0.6300001
0.6300003
0.6300001
0.6300001
0.6300001
0.6300001
0.6300001
0.6300001
0.6300003
0.6300001
0.6300001
0.6300001
0.6300001
0.6300001
0.6300001
0.6300002
0.6300001
0.6300001
0.6300001
0.6300001
0.6300001
0.6300001
0.6300002
0.6300001
0.6300001
0.6300001
0.6300001
0.6300001
0.6300001
0.6300002
0.6300001
0.6300001
0.6300001
0.6300001
0.6300001
0.6300001
0.6300002
0.6300001
0.6300001
0.6300001
0.6300001
0.6300001
0.6300001
0.6300001
0.6300001
0.6300001
0.6300001
0.6300001
0.6300001
0.6300001
0.6300001
0.6300001
0.6300001
0.6300001
0.6300001
0.6300001
0.6300001
0.6300001
0.6300001
0.6300001
0.6300001
0.6300001
0.6300001
0.6300001
0.6300001
0.6300001
0.6300001
0.6300001
0.6300001
0.6300001
0.6300001
0.6300001
0.63
0.6300001
0.6300001
0.6300001
0.6300001
0.6300001
0.6300001
0.63
0.6300001
0.6300001
0.6300001
0.63
0.6300001
0.6300001
0.63
0.6300001
0.6300001
0.6300001
0.63
0.6300001
0.6300001
0.63
0.63
0.6300001
0.6300001
0.63
0.6300001
0.6300001
0.63
0.63
0.6300001
0.6300001
0.63
0.6300001
0.6300001
0.63
0.63
0.6300001
0.6300001
0.63
0.6300001
0.6300001
0.63
0.6300001
0.6300001
0.6300001
0.6300001
0.6300001
0.6300001
0.63
0.6300001
0.6300001
0.6300001
0.6300001
0.6300001
0.6300001
0.6300001
0.6300001
0.6300001
0.6300001
0.6300001
0.6300001
0.6300001
0.6300001
0.6300001
0.6300001
0.6300001
0.6300001
0.6300001
0.6300001
0.6300001
0.6300001
0.6300001
0.6300001
0.6300001
0.6300001
0.6300001
0.6300001
0.6300001
0.6300001
0.6300001
0.6300001
0.6300001
0.6300001
0.6300001
0.6300001
0.6300001
0.6300001
0.6300001
0.6300001
0.6300001
0.6300001
0.6300001
0.6300001
0.6300001
0.6300001
0.63
0.6300001
0.6300001
0.6300001
0.6300001
0.6300001
0.6300001
0.63
0.6300001
0.6300001
0.6300001
0.6300001
0.6300001
0.6300001
0.63
0.6300001
1.124802
1.071188
1.00195
0.9257626
0.8486258
0.7599879
0.7006995
0.6993138
0.6954943
0.6988575
0.7052603
0.7121308
0.718502
0.7243457
0.7294734
0.7342755
0.7384552
0.7421601
1.124894
0.9907988
0.9366799
0.8924474
0.834965
0.7485163
0.6926614
0.6948509
0.6949763
0.6993235
0.7060089
0.7123177
0.7186686
0.7245267
0.729693
0.7343975
0.7385993
0.7422745
1.124824
0.886757
0.8857877
0.8697768
0.8230647
0.7368902
0.677292
0.6873504
0.6966148
0.70288
0.7082842
0.7137844
0.7197535
0.7254987
0.7305509
0.7352386
0.7392791
0.7429064
1.124811
0.8552042
0.8611547
0.8562418
0.8175714
0.736513
0.6739047
0.6801542
0.7016268
0.7068059
0.7115751
0.7163528
0.7216875
0.7272212
0.7319
0.7367801
0.7404801
0.7439523
1.124808
0.8364114
0.8484339
0.8485288
0.8147073
0.7406904
0.6826081
0.6800363
0.7045084
0.7111756
0.7162828
0.7202293
0.7245089
0.7294932
0.7335708
0.7389579
0.7421435
0.7454474
1.124807
0.8312763
0.8412258
0.8435082
0.8119721
0.7436283
0.6899357
0.6856992
0.7024633
0.7169689
0.721461
0.7250085
0.7282532
0.7326372
0.7359924
0.741676
0.7442554
0.7473357
1.124816
0.8319383
0.8383184
0.8400081
0.8087605
0.7454229
0.6895764
0.6913266
0.7012922
0.7224935
0.726878
0.7300761
0.7327723
0.7362488
0.7389426
0.7447244
0.7467788
0.7496031
1.124812
0.834333
0.8337009
0.836717
0.8049326
0.7457285
0.6932732
0.6990188
0.7050042
0.7247492
0.732396
0.7353797
0.7378268
0.7404665
0.7424072
0.7481247
0.749692
0.7522277
1.124813
0.8301175
0.8301322
0.8336673
0.8007881
0.7448556
0.6993856
0.7044381
0.7105364
0.7251755
0.7376571
0.7407174
0.7432255
0.7451158
0.7461928
0.7519012
0.752931
0.7551662
1.124813
0.8333721
0.8280669
0.8311037
0.7961865
0.7437469
0.704037
0.7144492
0.718353
0.7287762
0.7408515
0.7469854
0.7478959
0.7492682
0.7503238
0.7559453
0.7564891
0.7584002
1.124806
0.8363975
0.8268606
0.8288622
0.7916456
0.7427106
0.710312
0.7227639
0.7255485
0.732162
0.7444164
0.7514913
0.7523409
0.7541622
0.7547023
0.7603166
0.7602583
0.7619064
1.124798
0.8563689
0.8293492
0.8291267
0.7885333
0.7425515
0.7178256
0.7239327
0.7330528
0.7392463
0.7536907
0.7572942
0.7579537
0.759496
0.7594058
0.764689
0.7643278
0.7656037
1.124804
0.8925534
0.8521996
0.834891
0.7871227
0.7435718
0.7254283
0.7294724
0.7428068
0.7539792
0.7610374
0.7640874
0.7642876
0.764759
0.7641183
0.769452
0.7686164
0.769589
1.12479
0.9462402
0.8585933
0.8327447
0.7810056
0.7444205
0.7334678
0.738601
0.7540822
0.7619129
0.7679017
0.7708254
0.7704233
0.7701997
0.7690466
0.7744598
0.773092
0.7737692
1.124692
0.9282666
0.8516835
0.8238355
0.7750523
0.7459186
0.7407193
0.7478706
0.7618229
0.7688856
0.7745304
0.7771433
0.7762523
0.7758447
0.7741943
0.7796428
0.7777783
0.7781661
1.12478
0.9294608
0.8361285
0.821307
0.7669536
0.7476759
0.7485652
0.7567256
0.7692611
0.7752039
0.7811405
0.7832352
0.7824435
0.781692
0.779565
0.7849974
0.7826708
0.7827489
1.124761
0.9212168
0.8322475
0.811467
0.7618076
0.7505543
0.7558872
0.7653744
0.776974
0.7818383
0.7882024
0.789623
0.7887841
0.7877186
0.7852328
0.7904872
0.7877578
0.7875431
1.124741
0.9216392
0.809853
0.8114797
0.7629895
0.7558949
0.7646806
0.7749234
0.7853067
0.7895426
0.7954751
0.7962552
0.7952392
0.7939159
0.7914289
0.7959774
0.7930586
0.7925455
1.124717
0.9285454
0.8016225
0.7959949
0.7769851
0.7656201
0.7752633
0.7853843
0.794619
0.7981495
0.8028719
0.8031097
0.8019107
0.8001737
0.7984259
0.8013536
0.7986511
0.7977645
1.124694
0.9344941
0.8000163
0.7953958
0.7739021
0.7906338
0.7873718
0.7970036
0.8051134
0.8074148
0.8104534
0.8102845
0.8089293
0.8071501
0.8068177
0.8060149
0.8043068
0.8032165
1.124668
0.9424408
0.8042268
0.7999214
0.785992
0.7930196
0.8094376
0.8099974
0.8162999
0.8168268
0.8183625
0.8178026
0.8162051
0.8147103
0.8134817
0.8110768
0.8104573
0.8088817
1.124641
0.9502781
0.8109237
0.8099321
0.8012276
0.8079667
0.8164272
0.8242419
0.8280372
0.8262309
0.8266027
0.8256261
0.8236962
0.8216504
0.8203245
0.8174246
0.8165979
0.8147344
1.124609
0.9589298
0.8204879
0.8257475
0.8161754
0.8251637
0.8314607
0.8377761
0.837133
0.8357236
0.835228
0.8337855
0.8314615
0.8292058
0.8276349
0.8243318
0.8230495
0.8208199
1.124575
0.9661545
0.831636
0.8449445
0.8334803
0.8412028
0.8475906
0.8502653
0.8501124
0.8441563
0.8439344
0.84234
0.8395079
0.8364323
0.8356182
0.8316302
0.8297991
0.8272629
1.124536
0.9736112
0.8450971
0.8668438
0.850903
0.8570582
0.8625353
0.8622129
0.8608506
0.8570158
0.8523738
0.850833
0.8479265
0.8430151
0.8442368
0.8386054
0.8366228
0.8338586
1.124494
0.9805687
0.8588598
0.885745
0.8689076
0.8721767
0.8764621
0.8738745
0.8737292
0.8675009
0.8633968
0.8591683
0.8560865
0.8451936
0.8529732
0.8464467
0.8438731
0.8408308
1.124447
0.98745
0.8739323
0.9007398
0.8903757
0.8881378
0.8891103
0.888206
0.885896
0.8780864
0.8732342
0.8690059
0.8642992
0.8580969
0.8633689
0.8544682
0.8513355
0.847578
1.124394
0.9946563
0.8882725
0.9122341
0.9166848
0.9034066
0.9030724
0.9020049
0.8973478
0.8889921
0.8833383
0.8785675
0.8732759
0.8682418
0.8693359
0.86284
0.8589747
0.8545685
1.124336
1.002565
0.9045859
0.914083
0.9495747
0.9141018
0.9169705
0.9169372
0.9057263
0.8998126
0.8936719
0.888472
0.8824364
0.879352
0.8750811
0.8705837
0.8670812
0.8616203
1.124269
1.011854
0.9347698
0.9037331
0.9768732
0.9210711
0.9296509
0.9312231
0.9116928
0.9122108
0.9044287
0.8982656
0.8921894
0.8885763
0.8827362
0.8792005
0.8743911
0.860769
1.124191
1.021996
0.9776701
0.9059631
0.9647507
0.9548652
0.94491
0.9442385
0.923879
0.9238336
0.9147395
0.90778
0.900827
0.8985463
0.8922593
0.8880382
0.882757
0.8772926
1.124095
1.037579
1.006821
0.9490816
0.9596124
0.9726268
0.96048
0.9588873
0.946575
0.93002
0.9230618
0.9168874
0.9083595
0.9096071
0.9009111
0.896944
0.8909354
0.8908168
1.12398
1.042203
1.010641
1.005174
0.9605137
0.9848464
0.973278
0.9640118
0.9523872
0.9415059
0.9316628
0.9255132
0.9170288
0.9171552
0.9117929
0.9061873
0.8952872
0.9002188
1.123654
1.057605
1.029424
1.044245
0.9750913
0.9883869
0.9822823
0.974214
0.96139
0.9471112
0.9384552
0.9338284
0.928149
0.9276598
0.9210889
0.9153753
0.9111768
0.9072405
1.123523
1.073763
1.048477
1.041722
1.045161
0.9472391
0.982398
0.9793692
0.9460653
0.9582158
0.9485512
0.94315
0.9412755
0.9355081
0.9304628
0.9248227
0.9286141
0.909131
1.12308
1.083907
1.065424
1.043824
1.032171
1.000797
0.994298
0.9544504
0.9765814
0.9668733
0.9596167
0.9534294
0.9546637
0.94363
0.9404346
0.9265463
0.9304043
0.9212975
1.122674
1.099568
1.067526
1.041962
1.026577
1.009346
0.9940049
0.9780611
0.977092
0.9733018
0.9688331
0.9622841
0.9639692
0.95399
0.9491805
0.9466766
0.945071
0.9327066
1.120098
1.114199
1.080195
1.064297
1.036106
1.012135
0.9957918
0.9863205
0.9846995
0.9815862
0.9788624
0.9768408
0.9731833
0.9685195
0.9603192
0.9646131
0.945408
0.9429611
1.117922
1.118686
1.053462
1.040889
1.020459
1.003428
0.9942735
0.9924001
0.9937784
0.9913445
0.9895405
0.9893697
0.9834172
0.9798142
0.9750211
0.9685349
0.9601172
0.9528981
0.7576291
1.118952
1.094818
1.050879
0.9950796
0.9939108
0.9957878
1.001352
1.00419
1.002543
1.000409
1.0038
0.9947699
0.988517
0.9856697
0.9777765
0.9718343
0.9646378
0.6339213
1.12213
1.079791
1.036743
1.002544
0.9991769
1.005961
1.011466
1.015271
1.014072
1.011036
1.01559
1.004461
0.9944156
1.000256
0.9913919
0.9827326
0.9751241
0.6318983
1.123713
1.070312
1.012355
1.009049
1.008537
1.021946
1.023418
1.027615
1.024788
1.025426
1.021781
1.015534
1.010576
1.011153
1.000482
0.991983
0.9843512
0.6315589
1.123723
1.073715
1.017706
1.018794
1.028792
1.033918
1.038773
1.038435
1.03574
1.037583
1.029932
1.025618
1.03076
1.017895
1.009307
1.001334
0.9986521
0.6300791
1.123891
1.048986
0.9781523
1.028627
1.044863
1.045574
1.0479
1.050246
1.045769
1.051761
1.037568
1.041136
1.030987
1.026765
1.018775
1.016072
0.9998518
0.6300428
1.12474
1.057755
1.016055
1.021679
1.054937
1.054385
1.058009
1.05937
1.052299
1.057612
1.050153
1.0559
1.034452
1.033183
1.031849
1.019023
1.016701
0.6300351
1.124617
1.085331
0.9856778
1.014879
1.061344
1.065351
1.068408
1.070155
1.067276
1.066825
1.062493
1.05523
1.050846
1.049597
1.033715
1.030892
1.015529
0.6301566
1.124535
1.105212
0.9927674
1.061822
1.068013
1.076803
1.078549
1.0782
1.077346
1.071642
1.072034
1.061556
1.063437
1.049017
1.049047
1.034236
1.034569
0.6324245
1.117734
1.079797
1.052591
1.080751
1.083046
1.085993
1.087238
1.086595
1.083179
1.083112
1.081471
1.075072
1.064193
1.06374
1.052825
1.049578
1.029894
0.6306693
1.114057
1.093399
1.108832
1.09853
1.09554
1.0952
1.096827
1.096688
1.092788
1.092407
1.086313
1.079307
1.076959
1.069788
1.061015
1.05252
1.046994
0.6300661
1.118675
1.112891
1.111134
1.102779
1.09849
1.098025
1.093233
1.087103
1.085468
1.070888
1.071165
1.057347
1.047161
0.6300775
0.6309764
1.105452
1.098318
1.097146
1.085777
1.085121
1.068549
1.069825
1.052922
0.6300171
1.106808
1.097735
1.094878
1.087142
1.079113
1.069875
1.057381
1.103952
1.097447
1.088564
1.084197
1.075943
1.065012
1.101609
1.096828
1.0861
1.075011
1.066811
1.099084
1.096294
1.087637
1.079579
1.069403
1.105188
1.099031
1.090587
1.081208
1.071259
1.105157
1.099551
1.090662
1.081497
1.071626
1.104754
1.098308
1.089847
1.080257
1.071258
1.103357
1.098588
1.089218
1.078437
1.069695
1.106969
1.104144
1.092364
1.087782
1.07526
1.066211
0.6300378
1.09812
1.099585
1.091594
1.081857
1.073824
1.062063
0.6305817
0.6411628
1.101689
1.098917
1.093508
1.08628
1.078251
1.069443
1.056308
0.630596
1.113597
1.118018
1.107638
1.103191
1.099813
1.091744
1.088663
1.082504
1.072948
1.066088
1.055234
0.6315824
1.115689
1.105578
1.095302
1.09454
1.099724
1.101908
1.103436
1.100366
1.100593
1.09451
1.093942
1.089257
1.077757
1.077719
1.062972
1.059919
1.044122
0.6346882
1.119045
1.086087
1.101333
1.102573
1.095336
1.095947
1.096809
1.091884
1.093076
1.090702
1.084699
1.082331
1.076464
1.063435
1.063822
1.043887
1.044193
0.6336647
1.116911
1.111083
1.093065
1.090958
1.093001
1.0896
1.088212
1.087942
1.085897
1.082978
1.07885
1.069798
1.068787
1.060896
1.047867
1.04679
1.032568
0.630909
1.123031
1.099504
1.100342
1.093869
1.087344
1.084676
1.082197
1.080199
1.07796
1.073497
1.073842
1.062953
1.057296
1.051861
1.046218
1.032049
1.023901
0.6305327
1.123192
1.089516
1.096016
1.080191
1.075586
1.076866
1.074339
1.072381
1.068613
1.060691
1.063919
1.057393
1.050121
1.044486
1.032342
1.029044
1.014304
0.6305227
1.122394
1.079324
1.083058
1.076165
1.07197
1.069232
1.066032
1.062979
1.060235
1.059634
1.050359
1.045532
1.040672
1.031606
1.029379
1.016819
1.007061
0.6303769
1.123052
1.086682
1.080765
1.066733
1.06634
1.059256
1.057442
1.056414
1.051808
1.052488
1.04736
1.03866
1.033216
1.025034
1.017205
1.010991
0.996557
0.6315123
1.122322
1.08831
1.052996
1.047214
1.053345
1.053235
1.049637
1.047771
1.043497
1.038603
1.028248
1.026341
1.014672
1.014842
1.007367
0.9970385
0.993588
0.6334793
1.119872
1.035223
1.046742
1.04072
1.040891
1.040444
1.039331
1.037439
1.033361
1.031024
1.027874
1.019703
1.010214
1.002632
0.9975008
0.9905755
0.9827621
0.657132
1.119223
1.065897
1.02844
1.013675
1.022596
1.029454
1.029544
1.027282
1.023071
1.020254
1.010376
1.008025
1.002354
0.9958505
0.9890572
0.9852474
0.9791493
1.120181
1.103875
0.9991063
0.9703346
0.9915284
1.00801
1.016925
1.019779
1.01684
1.012723
1.009405
1.002777
1.000757
0.9931309
0.9893259
0.982633
0.9763887
0.9693667
1.120502
1.095386
1.010508
0.987929
0.9936866
1.003147
1.004409
1.012089
1.004102
1.001488
0.9993233
0.994419
0.9899982
0.985987
0.9843732
0.9788217
0.9696353
0.9605785
1.123563
1.030417
0.9552598
0.9244148
0.9442204
0.9964351
0.9882955
1.003937
0.9930128
0.990693
0.9906857
0.9895482
0.9873851
0.9784175
0.971369
0.9616473
0.9616483
0.9515923
1.12367
0.9841351
0.9560892
0.9459549
0.9134442
0.9997192
0.9725649
0.9753517
0.9875412
0.9819673
0.9823364
0.978603
0.9678912
0.9653287
0.9599956
0.9492768
0.9446359
0.9428097
1.124015
1.014743
0.9779299
0.889952
1.000832
0.953406
0.9513166
0.9664555
0.9578283
0.9673943
0.9688525
0.9676413
0.9630391
0.9589145
0.9510967
0.942551
0.9367602
0.9290838
1.12435
1.059058
0.9986012
1.010297
0.9982826
0.9539664
0.9468504
0.9475711
0.9593868
0.9529202
0.9542267
0.9545111
0.9470291
0.9441924
0.9396929
0.9349358
0.9334796
0.926135
1.124291
1.009685
0.9967695
1.027596
0.9559293
0.9355538
0.9418465
0.9376455
0.943527
0.9454578
0.9427654
0.9425293
0.9360123
0.9341573
0.9301523
0.9244457
0.9167784
0.9136609
1.124307
1.005957
0.9889839
0.9739888
0.9614544
0.9331517
0.9387048
0.9320982
0.9320984
0.9317264
0.9311332
0.9316637
0.9278005
0.9283479
0.9199129
0.9143666
0.9076925
0.8981786
1.124342
1.00119
0.979118
0.9732605
0.8468592
0.9442509
0.9318086
0.9171169
0.9387567
0.9276713
0.9226535
0.9215495
0.9190248
0.9140745
0.9102261
0.9047226
0.8994538
0.8934708
1.124381
0.9955349
0.9618713
0.9339506
0.904551
0.9299764
0.9223397
0.9114759
0.9113761
0.9142073
0.9122943
0.9112027
0.908312
0.9042223
0.9009032
0.8959232
0.8908257
0.8835742
1.124418
0.9888799
0.951831
0.9195974
0.9100198
0.918973
0.9127069
0.9040324
0.9009014
0.9027912
0.9017981
0.9009143
0.8985427
0.8929413
0.8946147
0.886737
0.8820412
0.8756895
1.124453
0.9811756
0.9440574
0.9077652
0.9044435
0.9127049
0.9045868
0.8958788
0.891331
0.8920676
0.8915966
0.8908582
0.8882634
0.8824878
0.8847573
0.8777987
0.8738261
0.8703903
1.124484
0.9733896
0.9369125
0.8979653
0.897011
0.9063371
0.8980384
0.887455
0.8821149
0.8820724
0.88175
0.8811241
0.8784799
0.8723845
0.8752567
0.8688532
0.8655491
0.8616907
1.124513
0.9660489
0.9304204
0.889504
0.8897489
0.8992164
0.8908998
0.8795428
0.8737752
0.8726829
0.872169
0.8717053
0.868973
0.8644115
0.8648249
0.8615039
0.8578967
0.8538326
1.124538
0.9607183
0.9230195
0.8824678
0.8833421
0.8916434
0.8838093
0.8734148
0.8649663
0.8633779
0.8636193
0.8617994
0.8598462
0.8560262
0.8586595
0.8525126
0.8500335
0.8465877
1.124561
0.953526
0.9164055
0.8777733
0.877914
0.8839959
0.8767123
0.8666326
0.8569412
0.8551604
0.8538785
0.8525025
0.8512953
0.8504965
0.850363
0.8458503
0.8426775
0.8395261
1.124583
0.9488603
0.9080802
0.8739524
0.8724566
0.876429
0.8699406
0.8596906
0.8517738
0.845281
0.8444669
0.8437426
0.8428776
0.842399
0.8405154
0.8379844
0.8354795
0.8326353
1.1246
0.9454826
0.9011207
0.8720417
0.8672921
0.8686231
0.8629596
0.8549443
0.845102
0.8371618
0.8360138
0.8352958
0.8347056
0.8344141
0.8328991
0.8308979
0.8284911
0.8261734
1.124617
0.9396292
0.8920117
0.870513
0.8604393
0.8607351
0.8621058
0.8468419
0.8383997
0.8314252
0.8277899
0.8270958
0.826716
0.8264345
0.8260332
0.8240925
0.8219315
0.81992
1.124631
0.9349771
0.8833376
0.8664909
0.8525291
0.8672686
0.8464858
0.8436567
0.8327678
0.8257415
0.8202377
0.8193142
0.8190265
0.8190597
0.816832
0.8202
0.8156118
0.8138185
1.124643
0.9297147
0.8711378
0.8602137
0.8717453
0.8444319
0.8495479
0.8370578
0.8262703
0.8199461
0.8136837
0.8119229
0.8119885
0.8120723
0.809117
0.8129737
0.8092081
0.807917
1.124655
0.9289726
0.859831
0.8891426
0.8442941
0.8517972
0.8413338
0.8299918
0.8196666
0.8140123
0.8081548
0.804713
0.8050591
0.8053193
0.8024535