/*--------------------------------*- C++ -*----------------------------------*\
| =========                 |                                                 |
| \\      /  F ield         | OpenFOAM: The Open Source CFD Toolbox           |
|  \\    /   O peration     | Version:  2206                                  |
|   \\  /    A nd           | Website:  www.openfoam.com                      |
|    \\/     M anipulation  |                                                 |
\*---------------------------------------------------------------------------*/
FoamFile
{
    version     2.0;
    format      ascii;
    arch        "LSB;label=32;scalar=64";
    class       volScalarField;
    location    "2.2";
    object      nuEffb;
}
// * * * * * * * * * * * * * * * * * * * * * * * * * * * * * * * * * * * * * //

dimensions      [0 2 -1 0 0 0 0];

internalField   nonuniform List<scalar> 
13078
(
8.115567e-06
3.085785e-05
5.026096e-05
5.153463e-05
5.095148e-05
5.004429e-05
4.900759e-05
3.379614e-05
4.949287e-05
5.231124e-05
5.181816e-05
5.100698e-05
5.008018e-05
4.903582e-05
5.273433e-05
5.336331e-05
5.282076e-05
5.199092e-05
5.110057e-05
5.013923e-05
4.907855e-05
5.493412e-05
5.390779e-05
5.301003e-05
5.21239e-05
5.119293e-05
5.020281e-05
4.912656e-05
5.514389e-05
5.405788e-05
5.312488e-05
5.220656e-05
5.126997e-05
5.026336e-05
4.917422e-05
5.508426e-05
5.408194e-05
5.317844e-05
5.22608e-05
5.131333e-05
5.031353e-05
4.921893e-05
5.501232e-05
5.406989e-05
5.319998e-05
5.229291e-05
5.134371e-05
5.033884e-05
4.925675e-05
5.495955e-05
5.404747e-05
5.320589e-05
5.230821e-05
5.136083e-05
5.03566e-05
4.927291e-05
5.492172e-05
5.402598e-05
5.320043e-05
5.231202e-05
5.136953e-05
5.03677e-05
4.928472e-05
5.489439e-05
5.400776e-05
5.319214e-05
5.231137e-05
5.137338e-05
5.037438e-05
4.929269e-05
5.487399e-05
5.399284e-05
5.318382e-05
5.230858e-05
5.137444e-05
5.037825e-05
4.929835e-05
5.485772e-05
5.398103e-05
5.317612e-05
5.230483e-05
5.137394e-05
5.038039e-05
4.930229e-05
5.484468e-05
5.397103e-05
5.316915e-05
5.230098e-05
5.137265e-05
5.038144e-05
4.930518e-05
5.483363e-05
5.396254e-05
5.316293e-05
5.229733e-05
5.137127e-05
5.038194e-05
4.930752e-05
5.482407e-05
5.395514e-05
5.315768e-05
5.229932e-05
5.137705e-05
5.038309e-05
4.930952e-05
5.48154e-05
5.394848e-05
5.315305e-05
5.23022e-05
5.13804e-05
5.038377e-05
4.931149e-05
5.480717e-05
5.3942e-05
5.314819e-05
5.22998e-05
5.137946e-05
5.038408e-05
4.931342e-05
5.479907e-05
5.393585e-05
5.314354e-05
5.229707e-05
5.137837e-05
5.038446e-05
4.931545e-05
5.47909e-05
5.392966e-05
5.313898e-05
5.229429e-05
5.137742e-05
5.038537e-05
4.931743e-05
5.478245e-05
5.392343e-05
5.313449e-05
5.229218e-05
5.138455e-05
5.039686e-05
4.932088e-05
5.477358e-05
5.391672e-05
5.312971e-05
5.228999e-05
5.13923e-05
5.040459e-05
4.932434e-05
5.476379e-05
5.39095e-05
5.312435e-05
5.228678e-05
5.139262e-05
5.040639e-05
4.932719e-05
5.475312e-05
5.390161e-05
5.311862e-05
5.228353e-05
5.13918e-05
5.040832e-05
4.933129e-05
5.474116e-05
5.389266e-05
5.311216e-05
5.227991e-05
5.139193e-05
5.04212e-05
4.935019e-05
5.472758e-05
5.388256e-05
5.310473e-05
5.227576e-05
5.139168e-05
5.043472e-05
4.936356e-05
5.471213e-05
5.387097e-05
5.309631e-05
5.227085e-05
5.139026e-05
5.043898e-05
4.937e-05
5.469412e-05
5.385743e-05
5.30864e-05
5.226498e-05
5.138839e-05
5.044142e-05
4.937686e-05
5.467352e-05
5.384185e-05
5.307479e-05
5.225784e-05
5.1386e-05
5.044461e-05
4.9399e-05
5.464947e-05
5.382339e-05
5.306107e-05
5.224912e-05
5.138246e-05
5.044672e-05
4.942092e-05
5.46245e-05
5.380485e-05
5.304572e-05
5.223854e-05
5.137703e-05
5.044635e-05
4.942968e-05
5.459467e-05
5.378189e-05
5.302713e-05
5.222552e-05
5.136951e-05
5.044418e-05
4.943472e-05
5.45597e-05
5.375967e-05
5.301292e-05
5.221111e-05
5.135907e-05
5.043892e-05
4.943554e-05
5.452115e-05
5.373454e-05
5.299978e-05
5.220503e-05
5.134951e-05
5.043259e-05
4.943289e-05
5.448065e-05
5.370746e-05
5.298665e-05
5.219521e-05
5.134473e-05
5.043466e-05
4.943734e-05
5.444296e-05
5.368913e-05
5.298827e-05
5.222577e-05
5.139027e-05
5.047231e-05
4.946795e-05
5.441885e-05
5.370088e-05
5.304004e-05
5.232312e-05
5.151507e-05
5.058905e-05
4.954301e-05
5.442773e-05
5.378557e-05
5.319561e-05
5.251867e-05
5.172215e-05
5.072487e-05
4.958602e-05
5.450606e-05
5.399659e-05
5.346914e-05
5.277936e-05
5.192752e-05
5.083261e-05
4.94983e-05
5.470685e-05
5.432307e-05
5.379777e-05
5.303465e-05
5.205529e-05
5.083623e-05
4.922199e-05
5.507134e-05
5.471622e-05
5.411564e-05
5.323575e-05
5.208838e-05
5.0699e-05
4.890781e-05
5.558461e-05
5.511678e-05
5.444359e-05
5.337873e-05
5.20799e-05
5.056224e-05
4.883092e-05
5.623375e-05
5.549474e-05
5.472789e-05
5.356402e-05
5.215062e-05
5.069807e-05
4.950329e-05
5.69493e-05
5.584212e-05
5.496235e-05
5.37893e-05
5.255416e-05
5.150142e-05
5.111381e-05
5.761847e-05
5.602262e-05
5.517093e-05
5.413668e-05
5.332502e-05
5.298923e-05
5.295516e-05
5.801556e-05
5.602969e-05
5.531451e-05
5.469414e-05
5.447364e-05
5.47183e-05
5.492028e-05
5.800276e-05
5.592567e-05
5.55337e-05
5.544057e-05
5.57404e-05
5.625642e-05
5.65823e-05
5.778894e-05
5.59711e-05
5.596727e-05
5.62456e-05
5.695428e-05
5.758315e-05
5.770653e-05
5.76768e-05
5.630912e-05
5.666826e-05
5.715858e-05
5.81594e-05
5.863133e-05
5.887184e-05
5.769056e-05
5.685037e-05
5.750715e-05
5.810304e-05
5.911428e-05
5.971572e-05
5.997228e-05
5.781187e-05
5.742046e-05
5.827381e-05
5.895419e-05
6.004514e-05
6.057094e-05
6.069722e-05
5.803604e-05
5.804794e-05
5.88636e-05
5.953243e-05
6.059917e-05
6.100491e-05
6.106884e-05
5.821036e-05
5.846995e-05
5.951206e-05
6.0284e-05
6.121042e-05
6.132382e-05
6.135374e-05
5.824479e-05
5.85794e-05
5.955131e-05
6.026631e-05
6.114387e-05
6.122604e-05
6.111829e-05
5.816524e-05
5.848256e-05
5.940986e-05
6.004707e-05
6.080354e-05
6.067905e-05
6.044556e-05
5.805177e-05
5.832788e-05
5.919914e-05
5.979971e-05
6.043383e-05
6.021695e-05
5.989612e-05
5.790656e-05
5.809814e-05
5.892396e-05
5.95104e-05
6.005729e-05
5.982034e-05
5.94802e-05
5.766042e-05
5.765754e-05
5.840317e-05
5.894782e-05
5.946729e-05
5.922967e-05
5.891973e-05
5.75013e-05
5.735783e-05
5.803421e-05
5.854103e-05
5.907467e-05
5.882401e-05
5.850036e-05
5.738274e-05
5.706218e-05
5.761043e-05
5.802665e-05
5.853696e-05
5.828473e-05
5.79489e-05
5.722381e-05
5.664801e-05
5.697859e-05
5.725393e-05
5.770344e-05
5.753108e-05
5.721525e-05
5.705834e-05
5.623395e-05
5.623033e-05
5.63053e-05
5.678164e-05
5.671355e-05
5.637231e-05
5.688255e-05
5.583647e-05
5.570928e-05
5.561218e-05
5.603436e-05
5.604474e-05
5.568517e-05
5.674937e-05
5.551116e-05
5.522118e-05
5.477207e-05
5.504393e-05
5.518666e-05
5.481233e-05
5.665779e-05
5.524258e-05
5.480556e-05
5.409605e-05
5.411e-05
5.423246e-05
5.421312e-05
5.667207e-05
5.513698e-05
5.459344e-05
5.3649e-05
5.336156e-05
5.34406e-05
5.337598e-05
5.682321e-05
5.516939e-05
5.451611e-05
5.346764e-05
5.255863e-05
5.226421e-05
5.224009e-05
5.697686e-05
5.531659e-05
5.448328e-05
5.334774e-05
5.193593e-05
5.119363e-05
5.135298e-05
5.68628e-05
5.537846e-05
5.442121e-05
5.319422e-05
5.167969e-05
5.037509e-05
5.006322e-05
5.643204e-05
5.53039e-05
5.435271e-05
5.311517e-05
5.161563e-05
4.996263e-05
4.873898e-05
5.590054e-05
5.511262e-05
5.423651e-05
5.302854e-05
5.159303e-05
4.987551e-05
4.812212e-05
5.538562e-05
5.483963e-05
5.408087e-05
5.297947e-05
5.162295e-05
5.001952e-05
4.815409e-05
5.495211e-05
5.454837e-05
5.389913e-05
5.29305e-05
5.172292e-05
5.026594e-05
4.856766e-05
5.464319e-05
5.42319e-05
5.365849e-05
5.285054e-05
5.181195e-05
5.055188e-05
4.891321e-05
5.446356e-05
5.394743e-05
5.339834e-05
5.267635e-05
5.178912e-05
5.070439e-05
4.926995e-05
5.439437e-05
5.375643e-05
5.316143e-05
5.247023e-05
5.166031e-05
5.066892e-05
4.947341e-05
5.438705e-05
5.367388e-05
5.301273e-05
5.229647e-05
5.148921e-05
5.05472e-05
4.948743e-05
5.441148e-05
5.366025e-05
5.295939e-05
5.220701e-05
5.137253e-05
5.045174e-05
4.943569e-05
5.445062e-05
5.367899e-05
5.296066e-05
5.218042e-05
5.133151e-05
5.040748e-05
4.940691e-05
5.449246e-05
5.370828e-05
5.297954e-05
5.218067e-05
5.132312e-05
5.040715e-05
4.940773e-05
5.453285e-05
5.373904e-05
5.299843e-05
5.219849e-05
5.133918e-05
5.041913e-05
4.941716e-05
5.457099e-05
5.376474e-05
5.301309e-05
5.220758e-05
5.135263e-05
5.042997e-05
4.942383e-05
5.460449e-05
5.378719e-05
5.302821e-05
5.222345e-05
5.13647e-05
5.043704e-05
4.942526e-05
5.463257e-05
5.380951e-05
5.304731e-05
5.223743e-05
5.137374e-05
5.044097e-05
4.942257e-05
5.465602e-05
5.382755e-05
5.306281e-05
5.224877e-05
5.138024e-05
5.044297e-05
4.941637e-05
5.467874e-05
5.384544e-05
5.307659e-05
5.225813e-05
5.138478e-05
5.044221e-05
4.939519e-05
5.469836e-05
5.38605e-05
5.30882e-05
5.226551e-05
5.138801e-05
5.044021e-05
4.937515e-05
5.471547e-05
5.387362e-05
5.309806e-05
5.227158e-05
5.13904e-05
5.043857e-05
4.936922e-05
5.473012e-05
5.388468e-05
5.310626e-05
5.227662e-05
5.139216e-05
5.043509e-05
4.93637e-05
5.474316e-05
5.389432e-05
5.311341e-05
5.2281e-05
5.139265e-05
5.042127e-05
4.935022e-05
5.475456e-05
5.390295e-05
5.311973e-05
5.228455e-05
5.139273e-05
5.040929e-05
4.933218e-05
5.476477e-05
5.391048e-05
5.312529e-05
5.228771e-05
5.139362e-05
5.040735e-05
4.932833e-05
5.4774e-05
5.391737e-05
5.313044e-05
5.229069e-05
5.139322e-05
5.04057e-05
4.932554e-05
5.478244e-05
5.392369e-05
5.313485e-05
5.229259e-05
5.138484e-05
5.03974e-05
4.932195e-05
5.479036e-05
5.392952e-05
5.313899e-05
5.229437e-05
5.137785e-05
5.038607e-05
4.931838e-05
5.47979e-05
5.393514e-05
5.314302e-05
5.229692e-05
5.137861e-05
5.038499e-05
4.931642e-05
5.480525e-05
5.394062e-05
5.314719e-05
5.22993e-05
5.137952e-05
5.038464e-05
4.93145e-05
5.481266e-05
5.394631e-05
5.31515e-05
5.230138e-05
5.138035e-05
5.038431e-05
4.931255e-05
5.48202e-05
5.395201e-05
5.315542e-05
5.229781e-05
5.137649e-05
5.038353e-05
4.931059e-05
5.482825e-05
5.395825e-05
5.315981e-05
5.229563e-05
5.137076e-05
5.03824e-05
4.93088e-05
5.483737e-05
5.396529e-05
5.316511e-05
5.22989e-05
5.137211e-05
5.038216e-05
4.930687e-05
5.484781e-05
5.397366e-05
5.317116e-05
5.230252e-05
5.137366e-05
5.038175e-05
4.930478e-05
5.486057e-05
5.398337e-05
5.317791e-05
5.230625e-05
5.137488e-05
5.038075e-05
4.930206e-05
5.487636e-05
5.399505e-05
5.318544e-05
5.23098e-05
5.137536e-05
5.037876e-05
4.929822e-05
5.489635e-05
5.400957e-05
5.319361e-05
5.231255e-05
5.137444e-05
5.037506e-05
4.929281e-05
5.492303e-05
5.402764e-05
5.32014e-05
5.23134e-05
5.137087e-05
5.036846e-05
4.928463e-05
5.496004e-05
5.404884e-05
5.320307e-05
5.230707e-05
5.136203e-05
5.035728e-05
4.927297e-05
5.501208e-05
5.407111e-05
5.319898e-05
5.229128e-05
5.134443e-05
5.034035e-05
4.924059e-05
5.508278e-05
5.408461e-05
5.318201e-05
5.226356e-05
5.131754e-05
5.030017e-05
4.920133e-05
5.514559e-05
5.406287e-05
5.313017e-05
5.221528e-05
5.12599e-05
5.024909e-05
4.915753e-05
5.495954e-05
5.392017e-05
5.302962e-05
5.211846e-05
5.118297e-05
5.019024e-05
4.91098e-05
5.306289e-05
5.345614e-05
5.282217e-05
5.198787e-05
5.109384e-05
5.012693e-05
4.906138e-05
3.540456e-05
5.048932e-05
5.252068e-05
5.183175e-05
5.099384e-05
5.006247e-05
4.901489e-05
4.782269e-05
4.640595e-05
4.462917e-05
4.304957e-05
4.047226e-05
3.693405e-05
3.056026e-05
4.78504e-05
4.643809e-05
4.466644e-05
4.308991e-05
4.051693e-05
3.698639e-05
3.078443e-05
4.788657e-05
4.647448e-05
4.47097e-05
4.256469e-05
4.055983e-05
3.703699e-05
3.090215e-05
4.792637e-05
4.651237e-05
4.474683e-05
4.318025e-05
4.060461e-05
3.708796e-05
3.100901e-05
4.79666e-05
4.655161e-05
4.478882e-05
4.322952e-05
4.065027e-05
3.713888e-05
3.108283e-05
4.800574e-05
4.659105e-05
4.483135e-05
4.327592e-05
4.069516e-05
3.718936e-05
3.115123e-05
4.804277e-05
4.662933e-05
4.48731e-05
4.331983e-05
4.070774e-05
3.723965e-05
3.121642e-05
4.807489e-05
4.666631e-05
4.491382e-05
4.33627e-05
4.071996e-05
3.728953e-05
3.127575e-05
4.808651e-05
4.669931e-05
4.495224e-05
4.340554e-05
4.075613e-05
3.733429e-05
3.133427e-05
4.809527e-05
4.670956e-05
4.498729e-05
4.344785e-05
4.079136e-05
3.737904e-05
3.138938e-05
4.810185e-05
4.67173e-05
4.499731e-05
4.348834e-05
4.082647e-05
3.742383e-05
3.144209e-05
4.810723e-05
4.672407e-05
4.5005e-05
4.349696e-05
4.086179e-05
3.746884e-05
3.149295e-05
4.811163e-05
4.673016e-05
4.501246e-05
4.350485e-05
4.086743e-05
3.751518e-05
3.15415e-05
4.811558e-05
4.673589e-05
4.501985e-05
4.3513e-05
4.087392e-05
3.75229e-05
3.158199e-05
4.811927e-05
4.674167e-05
4.502737e-05
4.352135e-05
4.088093e-05
3.753265e-05
3.15563e-05
4.812299e-05
4.674753e-05
4.503504e-05
4.353009e-05
4.088864e-05
3.754339e-05
3.152876e-05
4.812667e-05
4.675355e-05
4.50429e-05
4.353958e-05
4.090059e-05
3.755477e-05
3.150719e-05
4.813049e-05
4.675961e-05
4.505142e-05
4.35539e-05
4.100354e-05
3.756731e-05
3.147688e-05
4.813447e-05
4.67657e-05
4.50602e-05
4.356463e-05
4.102103e-05
3.758027e-05
3.144981e-05
4.813883e-05
4.677224e-05
4.506954e-05
4.357593e-05
4.103349e-05
3.759414e-05
3.141872e-05
4.814344e-05
4.677921e-05
4.507927e-05
4.358794e-05
4.104663e-05
3.760877e-05
3.137692e-05
4.814858e-05
4.678668e-05
4.508925e-05
4.360092e-05
4.106056e-05
3.762424e-05
3.134242e-05
4.8154e-05
4.679498e-05
4.510048e-05
4.36123e-05
4.107883e-05
3.764037e-05
3.130611e-05
4.816196e-05
4.68043e-05
4.511457e-05
4.307832e-05
4.118801e-05
3.766634e-05
3.127039e-05
4.817003e-05
4.681391e-05
4.512667e-05
4.3635e-05
4.123825e-05
3.768786e-05
3.123526e-05
4.817778e-05
4.682457e-05
4.514108e-05
4.366321e-05
4.12611e-05
3.770828e-05
3.119871e-05
4.818861e-05
4.683826e-05
4.515884e-05
4.368442e-05
4.128448e-05
3.773187e-05
3.115775e-05
4.822028e-05
4.685458e-05
4.517632e-05
4.37067e-05
4.131634e-05
3.79192e-05
3.111941e-05
4.823884e-05
4.723378e-05
4.563025e-05
4.371917e-05
4.134763e-05
3.799325e-05
3.108895e-05
4.82526e-05
4.725509e-05
4.566219e-05
4.374773e-05
4.138005e-05
3.802677e-05
3.105936e-05
4.829496e-05
4.730476e-05
4.568469e-05
4.37774e-05
4.141775e-05
3.817984e-05
3.104392e-05
4.831537e-05
4.734419e-05
4.570747e-05
4.381144e-05
4.146155e-05
3.833979e-05
3.105039e-05
4.832073e-05
4.741285e-05
4.573636e-05
4.38466e-05
4.15107e-05
3.840749e-05
3.112552e-05
4.832228e-05
4.743247e-05
4.578746e-05
4.387338e-05
4.155973e-05
3.851541e-05
3.211167e-05
4.83315e-05
4.743956e-05
4.582082e-05
4.388056e-05
4.159416e-05
3.870323e-05
3.289123e-05
4.832197e-05
4.743005e-05
4.583703e-05
4.380068e-05
4.156625e-05
3.900351e-05
3.529377e-05
4.818885e-05
4.727496e-05
4.555556e-05
4.351112e-05
4.143455e-05
3.924346e-05
3.502378e-05
4.782343e-05
4.68037e-05
4.503056e-05
4.332415e-05
4.118491e-05
3.877722e-05
3.527869e-05
4.725278e-05
4.607193e-05
4.439489e-05
4.292409e-05
4.094205e-05
3.872896e-05
3.537114e-05
4.671068e-05
4.536031e-05
4.407979e-05
4.324585e-05
4.221115e-05
3.980894e-05
3.576645e-05
4.69548e-05
4.575166e-05
4.557152e-05
4.48652e-05
4.345549e-05
4.073725e-05
3.567047e-05
4.872459e-05
4.782307e-05
4.740875e-05
4.626647e-05
4.445511e-05
4.187204e-05
3.598659e-05
5.085977e-05
4.964134e-05
4.90016e-05
4.754633e-05
4.541988e-05
4.261834e-05
3.620844e-05
5.273157e-05
5.104813e-05
5.05361e-05
4.917771e-05
4.735837e-05
4.34399e-05
3.739553e-05
5.432641e-05
5.292872e-05
5.244323e-05
5.12472e-05
4.87045e-05
4.472797e-05
3.810886e-05
5.594459e-05
5.456618e-05
5.458254e-05
5.291254e-05
5.028326e-05
4.730182e-05
4.003279e-05
5.750276e-05
5.618491e-05
5.630343e-05
5.457912e-05
5.288614e-05
4.847081e-05
4.311949e-05
5.839334e-05
5.749811e-05
5.71558e-05
5.600926e-05
5.340599e-05
5.042474e-05
4.420567e-05
5.95632e-05
5.865719e-05
5.81291e-05
5.634411e-05
5.398572e-05
5.00288e-05
4.567028e-05
6.067105e-05
5.987968e-05
5.872683e-05
5.655732e-05
5.34598e-05
5.011609e-05
4.552936e-05
6.106449e-05
6.084321e-05
5.898556e-05
5.621046e-05
5.273886e-05
4.912944e-05
4.544989e-05
6.110762e-05
6.108418e-05
5.869319e-05
5.557307e-05
5.216119e-05
4.814788e-05
4.396613e-05
6.069872e-05
6.095729e-05
5.839284e-05
5.562048e-05
5.251163e-05
4.814492e-05
4.400065e-05
6.021249e-05
6.035393e-05
5.822115e-05
5.555125e-05
5.311945e-05
4.975562e-05
4.386658e-05
5.96705e-05
5.988391e-05
5.77569e-05
5.530135e-05
5.307087e-05
5.293226e-05
5.049983e-05
5.941712e-05
5.924588e-05
5.716518e-05
5.478839e-05
5.270261e-05
5.110917e-05
5.881082e-05
5.858199e-05
5.652125e-05
5.432318e-05
5.222105e-05
5.066746e-05
5.812177e-05
5.805147e-05
5.583813e-05
5.350068e-05
5.128101e-05
4.913177e-05
5.727903e-05
5.719533e-05
5.470912e-05
5.266971e-05
5.000963e-05
4.728389e-05
4.301744e-05
5.655119e-05
5.612508e-05
5.355563e-05
5.103247e-05
4.843451e-05
4.481966e-05
4.072302e-05
5.561716e-05
5.514419e-05
5.315672e-05
5.021076e-05
4.664693e-05
4.365391e-05
4.025118e-05
5.503413e-05
5.462708e-05
5.263864e-05
5.058195e-05
4.838452e-05
4.528502e-05
4.158112e-05
5.431277e-05
5.38979e-05
5.22058e-05
5.040653e-05
4.845183e-05
4.5498e-05
4.22333e-05
5.342063e-05
5.314369e-05
5.118827e-05
4.987607e-05
4.746591e-05
4.526772e-05
4.132045e-05
5.246594e-05
5.227411e-05
5.02998e-05
4.835854e-05
4.721922e-05
4.462718e-05
3.929165e-05
5.173858e-05
5.147022e-05
4.905784e-05
4.784817e-05
4.561054e-05
4.3634e-05
3.697081e-05
5.079331e-05
5.056486e-05
4.859599e-05
4.64129e-05
4.473053e-05
4.07464e-05
3.343088e-05
4.955399e-05
4.959932e-05
4.724357e-05
4.572656e-05
4.293563e-05
3.982286e-05
3.336825e-05
4.826237e-05
4.840907e-05
4.657195e-05
4.453793e-05
4.25731e-05
3.900919e-05
3.443344e-05
4.675211e-05
4.687182e-05
4.581868e-05
4.395872e-05
4.206236e-05
3.866484e-05
3.353159e-05
4.59568e-05
4.510375e-05
4.467951e-05
4.347806e-05
4.135675e-05
3.882091e-05
3.322447e-05
4.620703e-05
4.430639e-05
4.350589e-05
4.246678e-05
4.099404e-05
3.876736e-05
3.315133e-05
4.689819e-05
4.503826e-05
4.360894e-05
4.169247e-05
4.074557e-05
3.864015e-05
3.412082e-05
4.757301e-05
4.587185e-05
4.453102e-05
4.266901e-05
4.038185e-05
3.86157e-05
3.600376e-05
4.804116e-05
4.662789e-05
4.518568e-05
4.344452e-05
4.106726e-05
3.877876e-05
3.611495e-05
4.824165e-05
4.710109e-05
4.562357e-05
4.359943e-05
4.140387e-05
3.905233e-05
3.488613e-05
4.82861e-05
4.727824e-05
4.583041e-05
4.381241e-05
4.150096e-05
3.888255e-05
3.408098e-05
4.828966e-05
4.73248e-05
4.58483e-05
4.385251e-05
4.153457e-05
3.855624e-05
3.233787e-05
4.829615e-05
4.734225e-05
4.578222e-05
4.3846e-05
4.152157e-05
3.844189e-05
3.176695e-05
4.83038e-05
4.734959e-05
4.572636e-05
4.382659e-05
4.148931e-05
3.838683e-05
3.138049e-05
4.830216e-05
4.731116e-05
4.570043e-05
4.379949e-05
4.145139e-05
3.833226e-05
3.092728e-05
4.828317e-05
4.727161e-05
4.567828e-05
4.377218e-05
4.141466e-05
3.826633e-05
3.095378e-05
4.824467e-05
4.722318e-05
4.566018e-05
4.3747e-05
4.138175e-05
3.804348e-05
3.098942e-05
4.823344e-05
4.720824e-05
4.564119e-05
4.372496e-05
4.1353e-05
3.799949e-05
3.103648e-05
4.821588e-05
4.68499e-05
4.517154e-05
4.368715e-05
4.132596e-05
3.797011e-05
3.108205e-05
4.818654e-05
4.683594e-05
4.515674e-05
4.367106e-05
4.129583e-05
3.780183e-05
3.112913e-05
4.817684e-05
4.68238e-05
4.51412e-05
4.365447e-05
4.127091e-05
3.771893e-05
3.117952e-05
4.816999e-05
4.681399e-05
4.512762e-05
4.363895e-05
4.12494e-05
3.769903e-05
3.122393e-05
4.816238e-05
4.680475e-05
4.511483e-05
4.362433e-05
4.122587e-05
3.768071e-05
3.126948e-05
4.815495e-05
4.679631e-05
4.51031e-05
4.361026e-05
4.11145e-05
3.765557e-05
3.130894e-05
4.814989e-05
4.67885e-05
4.509204e-05
4.359706e-05
4.106988e-05
3.763609e-05
3.13493e-05
4.814497e-05
4.678105e-05
4.508168e-05
4.358487e-05
4.105609e-05
3.762084e-05
3.138986e-05
4.814029e-05
4.677414e-05
4.507195e-05
4.357317e-05
4.10428e-05
3.760619e-05
3.142685e-05
4.813584e-05
4.676767e-05
4.506265e-05
4.356218e-05
4.103029e-05
3.759213e-05
3.146262e-05
4.813192e-05
4.676156e-05
4.505401e-05
4.355161e-05
4.101854e-05
3.75789e-05
3.14936e-05
4.81281e-05
4.67555e-05
4.504556e-05
4.35392e-05
4.096236e-05
3.756613e-05
3.152113e-05
4.812447e-05
4.674956e-05
4.503763e-05
4.352764e-05
4.089608e-05
3.755414e-05
3.154779e-05
4.812095e-05
4.674393e-05
4.503012e-05
4.35184e-05
4.088817e-05
3.754285e-05
3.157568e-05
4.811756e-05
4.673847e-05
4.502287e-05
4.350931e-05
4.088073e-05
3.753228e-05
3.158216e-05
4.811408e-05
4.673313e-05
4.501572e-05
4.350064e-05
4.0874e-05
3.752261e-05
3.157792e-05
4.81104e-05
4.672764e-05
4.500875e-05
4.349198e-05
4.086749e-05
3.749559e-05
3.152731e-05
4.810614e-05
4.672171e-05
4.500164e-05
4.34833e-05
4.084742e-05
3.745015e-05
3.147392e-05
4.810107e-05
4.671512e-05
4.499226e-05
4.345849e-05
4.081246e-05
3.740487e-05
3.141783e-05
4.809437e-05
4.670628e-05
4.495815e-05
4.341603e-05
4.077734e-05
3.735978e-05
3.136109e-05
4.808523e-05
4.667511e-05
4.492098e-05
4.337301e-05
4.074212e-05
3.731459e-05
3.130078e-05
4.805623e-05
4.664007e-05
4.488143e-05
4.332921e-05
4.070798e-05
3.726709e-05
3.123883e-05
4.802239e-05
4.660354e-05
4.484064e-05
4.328712e-05
4.071899e-05
3.721655e-05
3.1175e-05
4.798589e-05
4.656522e-05
4.479882e-05
4.324245e-05
4.067573e-05
3.716577e-05
3.110761e-05
4.794672e-05
4.652555e-05
4.475633e-05
4.319801e-05
4.06306e-05
3.711484e-05
3.103467e-05
4.790552e-05
4.648538e-05
4.471371e-05
4.315384e-05
4.058527e-05
3.706358e-05
3.094649e-05
4.786486e-05
4.644625e-05
4.467174e-05
4.3111e-05
4.053984e-05
3.701199e-05
3.082912e-05
4.782594e-05
4.640743e-05
4.463018e-05
4.306953e-05
4.049455e-05
3.695978e-05
3.065367e-05
1.014465e-06
1e-06
1e-06
1e-06
1e-06
1e-06
1e-06
1e-06
1e-06
1e-06
1e-06
1e-06
1e-06
1e-06
1e-06
1e-06
1e-06
1e-06
1.036364e-06
1e-06
1e-06
1e-06
1e-06
1e-06
1e-06
1e-06
1e-06
1e-06
1e-06
1e-06
1e-06
1e-06
1e-06
1e-06
1e-06
1e-06
1.042492e-06
1e-06
1e-06
1e-06
1e-06
1e-06
1e-06
1e-06
1e-06
1e-06
1e-06
1e-06
1e-06
1e-06
1e-06
1e-06
1e-06
1e-06
1.04598e-06
1e-06
1e-06
1e-06
1e-06
1e-06
1e-06
1e-06
1e-06
1e-06
1e-06
1e-06
1e-06
1e-06
1e-06
1e-06
1e-06
1e-06
1.049442e-06
1e-06
1e-06
1e-06
1e-06
1e-06
1e-06
1e-06
1e-06
1e-06
1e-06
1e-06
1e-06
1e-06
1e-06
1e-06
1e-06
1e-06
1.052792e-06
1e-06
1e-06
1e-06
1e-06
1e-06
1e-06
1e-06
1e-06
1e-06
1e-06
1e-06
1e-06
1e-06
1e-06
1e-06
1e-06
1e-06
1.056117e-06
1e-06
1e-06
1e-06
1e-06
1e-06
1e-06
1e-06
1e-06
1e-06
1e-06
1e-06
1e-06
1e-06
1e-06
1e-06
1e-06
1e-06
1.059372e-06
1e-06
1e-06
1e-06
1e-06
1e-06
1e-06
1e-06
1e-06
1e-06
1e-06
1e-06
1e-06
1e-06
1e-06
1e-06
1e-06
1e-06
1.062506e-06
1e-06
1e-06
1e-06
1e-06
1e-06
1e-06
1e-06
1e-06
1e-06
1e-06
1e-06
1e-06
1e-06
1e-06
1e-06
1e-06
1e-06
1.065795e-06
1e-06
1e-06
1e-06
1e-06
1e-06
1e-06
1e-06
1e-06
1e-06
1e-06
1e-06
1e-06
1e-06
1e-06
1e-06
1e-06
1e-06
1.069085e-06
1e-06
1e-06
1e-06
1e-06
1e-06
1e-06
1e-06
1e-06
1e-06
1e-06
1e-06
1e-06
1e-06
1e-06
1e-06
1e-06
1e-06
1.072234e-06
1e-06
1e-06
1e-06
1e-06
1e-06
1e-06
1e-06
1e-06
1e-06
1e-06
1e-06
1e-06
1e-06
1e-06
1e-06
1e-06
1e-06
1.075485e-06
1e-06
1e-06
1e-06
1e-06
1e-06
1e-06
1e-06
1e-06
1e-06
1e-06
1e-06
1e-06
1e-06
1e-06
1e-06
1e-06
1e-06
1.079131e-06
1e-06
1e-06
1e-06
1e-06
1e-06
1e-06
1e-06
1e-06
1e-06
1e-06
1e-06
1e-06
1e-06
1e-06
1e-06
1e-06
1e-06
1.098434e-06
1e-06
1e-06
1e-06
1e-06
1e-06
1e-06
1e-06
1e-06
1e-06
1e-06
1e-06
1e-06
1e-06
1e-06
1e-06
1e-06
1e-06
1.102876e-06
1e-06
1e-06
1e-06
1e-06
1e-06
1e-06
1e-06
1e-06
1e-06
1e-06
1e-06
1e-06
1e-06
1e-06
1e-06
1e-06
1e-06
1.109488e-06
1e-06
1e-06
1e-06
1e-06
1e-06
1e-06
1e-06
1e-06
1e-06
1e-06
1e-06
1e-06
1e-06
1e-06
1e-06
1e-06
1e-06
1.116878e-06
1e-06
1e-06
1e-06
1e-06
1e-06
1e-06
1e-06
1e-06
1e-06
1e-06
1e-06
1e-06
1e-06
1e-06
1e-06
1e-06
1e-06
1.124914e-06
1e-06
1e-06
1e-06
1e-06
1e-06
1e-06
1e-06
1e-06
1e-06
1e-06
1e-06
1e-06
1e-06
1e-06
1e-06
1e-06
1e-06
1.132961e-06
1e-06
1e-06
1e-06
1e-06
1e-06
1e-06
1e-06
1e-06
1e-06
1e-06
1e-06
1e-06
1e-06
1e-06
1e-06
1e-06
1e-06
1.140959e-06
1e-06
1e-06
1e-06
1e-06
1e-06
1e-06
1e-06
1e-06
1e-06
1e-06
1e-06
1e-06
1e-06
1e-06
1e-06
1e-06
1e-06
1.149288e-06
1e-06
1e-06
1e-06
1e-06
1e-06
1e-06
1e-06
1e-06
1e-06
1e-06
1e-06
1e-06
1e-06
1e-06
1e-06
1e-06
1e-06
1.158194e-06
1e-06
1e-06
1e-06
1e-06
1e-06
1e-06
1e-06
1e-06
1e-06
1e-06
1e-06
1e-06
1e-06
1e-06
1e-06
1e-06
1e-06
1.167688e-06
1e-06
1e-06
1e-06
1e-06
1e-06
1e-06
1e-06
1e-06
1e-06
1e-06
1e-06
1e-06
1e-06
1e-06
1e-06
1e-06
1e-06
1.178088e-06
1e-06
1e-06
1e-06
1e-06
1e-06
1e-06
1e-06
1e-06
1e-06
1e-06
1e-06
1e-06
1e-06
1e-06
1e-06
1e-06
1e-06
1.188993e-06
1e-06
1e-06
1e-06
1e-06
1e-06
1e-06
1e-06
1e-06
1e-06
1e-06
1e-06
1e-06
1e-06
1e-06
1e-06
1e-06
1e-06
1.200882e-06
1.000001e-06
1e-06
1e-06
1e-06
1e-06
1e-06
1e-06
1e-06
1e-06
1e-06
1e-06
1e-06
1e-06
1e-06
1e-06
1e-06
1e-06
1.213786e-06
1.000001e-06
1e-06
1e-06
1e-06
1e-06
1e-06
1e-06
1e-06
1e-06
1e-06
1e-06
1e-06
1e-06
1e-06
1e-06
1e-06
1e-06
1.227573e-06
1.000001e-06
1e-06
1e-06
1e-06
1e-06
1e-06
1e-06
1e-06
1e-06
1e-06
1e-06
1e-06
1e-06
1e-06
1e-06
1e-06
1e-06
1.242797e-06
1.000001e-06
1e-06
1e-06
1e-06
1e-06
1e-06
1e-06
1e-06
1e-06
1e-06
1e-06
1e-06
1e-06
1e-06
1e-06
1e-06
1e-06
1.259276e-06
1.000001e-06
1e-06
1e-06
1e-06
1e-06
1e-06
1e-06
1e-06
1e-06
1e-06
1e-06
1e-06
1e-06
1e-06
1e-06
1e-06
1e-06
1.277078e-06
1.000001e-06
1e-06
1e-06
1e-06
1e-06
1e-06
1e-06
1e-06
1e-06
1e-06
1e-06
1e-06
1e-06
1e-06
1e-06
1e-06
1e-06
1.296883e-06
1.000002e-06
1e-06
1e-06
1e-06
1e-06
1e-06
1e-06
1e-06
1e-06
1e-06
1e-06
1e-06
1e-06
1e-06
1e-06
1e-06
1e-06
1.321765e-06
1.000003e-06
1e-06
1e-06
1e-06
1e-06
1e-06
1e-06
1e-06
1e-06
1e-06
1e-06
1e-06
1e-06
1e-06
1e-06
1e-06
1e-06
1.399447e-06
1.000004e-06
1e-06
1e-06
1e-06
1e-06
1e-06
1e-06
1e-06
1e-06
1e-06
1e-06
1e-06
1e-06
1e-06
1e-06
1e-06
1e-06
1.457671e-06
1.000004e-06
1e-06
1e-06
1e-06
1e-06
1e-06
1e-06
1e-06
1e-06
1e-06
1e-06
1e-06
1e-06
1e-06
1e-06
1e-06
1e-06
1.569671e-06
1.000004e-06
1e-06
1e-06
1e-06
1e-06
1e-06
1e-06
1e-06
1e-06
1e-06
1e-06
1e-06
1e-06
1e-06
1e-06
1e-06
1e-06
2.391183e-06
1e-06
1e-06
1e-06
1e-06
1e-06
1e-06
1e-06
1e-06
1e-06
1e-06
1e-06
1e-06
1e-06
1e-06
1e-06
1e-06
1e-06
4.817204e-06
1.000056e-06
1e-06
1e-06
1e-06
1e-06
1e-06
1e-06
1e-06
1e-06
1e-06
1e-06
1e-06
1e-06
1e-06
1e-06
1e-06
1e-06
1.120064e-05
1.000388e-06
1e-06
1e-06
1e-06
1e-06
1e-06
1e-06
1e-06
1e-06
1e-06
1e-06
1e-06
1e-06
1e-06
1e-06
1e-06
1e-06
1.950186e-05
1.000407e-06
1e-06
1e-06
1e-06
1e-06
1e-06
1e-06
1e-06
1e-06
1e-06
1e-06
1e-06
1e-06
1e-06
1e-06
1e-06
1e-06
2.117447e-05
1e-06
1e-06
1e-06
1e-06
1e-06
1e-06
1e-06
1e-06
1e-06
1e-06
1e-06
1e-06
1e-06
1e-06
1e-06
1e-06
1e-06
2.211909e-05
1e-06
1e-06
1e-06
1e-06
1e-06
1e-06
1e-06
1e-06
1e-06
1e-06
1e-06
1e-06
1e-06
1e-06
1e-06
1e-06
1e-06
2.508475e-05
1.001465e-06
1e-06
1e-06
1e-06
1e-06
1e-06
1e-06
1e-06
1e-06
1e-06
1e-06
1e-06
1e-06
1e-06
1e-06
1e-06
1e-06
2.66757e-05
1.002029e-06
1e-06
1e-06
1e-06
1e-06
1e-06
1e-06
1e-06
1e-06
1e-06
1e-06
1e-06
1e-06
1e-06
1e-06
1e-06
1e-06
2.787802e-05
1.002971e-06
1e-06
1e-06
1e-06
1e-06
1e-06
1e-06
1e-06
1e-06
1e-06
1e-06
1e-06
1e-06
1e-06
1e-06
1e-06
1e-06
2.791127e-05
1.001812e-06
1.000003e-06
1e-06
1e-06
1e-06
1e-06
1e-06
1e-06
1e-06
1e-06
1e-06
1e-06
1e-06
1e-06
1e-06
1e-06
1e-06
3.041553e-05
1.074151e-06
1.000082e-06
1e-06
1e-06
1e-06
1e-06
1e-06
1e-06
1e-06
1e-06
1e-06
1e-06
1e-06
1e-06
1e-06
1e-06
1e-06
3.251377e-05
1.305344e-06
1.00104e-06
1.000008e-06
1e-06
1e-06
1e-06
1e-06
1e-06
1e-06
1e-06
1e-06
1e-06
1e-06
1e-06
1e-06
1e-06
1e-06
3.616964e-05
2.358847e-06
1.007098e-06
1.000195e-06
1e-06
1e-06
1e-06
1e-06
1e-06
1e-06
1e-06
1e-06
1e-06
1e-06
3.637202e-05
2.574067e-05
1e-06
1e-06
1e-06
1e-06
1e-06
1e-06
1e-06
1e-06
3.966239e-05
1e-06
1e-06
1e-06
1e-06
1e-06
1e-06
1e-06
1e-06
1e-06
1e-06
1e-06
1e-06
1e-06
1e-06
1e-06
1e-06
1e-06
1e-06
1e-06
1e-06
1e-06
1e-06
1e-06
1e-06
1e-06
1e-06
1e-06
1e-06
1e-06
1e-06
1e-06
1e-06
1e-06
1e-06
1e-06
1e-06
1e-06
1e-06
1e-06
1e-06
1e-06
1e-06
1e-06
1e-06
1e-06
1e-06
1e-06
1e-06
1e-06
3.393345e-05
1e-06
1e-06
1e-06
1e-06
1e-06
1e-06
3.228255e-05
2.011322e-05
1e-06
1e-06
1e-06
1e-06
1e-06
1e-06
1e-06
3.205981e-05
8.426684e-06
1.011104e-06
1e-06
1e-06
1e-06
1e-06
1e-06
1e-06
1e-06
1e-06
1e-06
2.873933e-05
1.717279e-06
1.004888e-06
1.000073e-06
1.000001e-06
1e-06
1e-06
1e-06
1e-06
1e-06
1e-06
1e-06
1e-06
1e-06
1e-06
1e-06
1e-06
1e-06
2.826023e-05
1.237749e-06
1.000673e-06
1.000003e-06
1e-06
1e-06
1e-06
1e-06
1e-06
1e-06
1e-06
1e-06
1e-06
1e-06
1e-06
1e-06
1e-06
1e-06
2.739083e-05
1.183957e-06
1.000163e-06
1e-06
1e-06
1e-06
1e-06
1e-06
1e-06
1e-06
1e-06
1e-06
1e-06
1e-06
1e-06
1e-06
1e-06
1e-06
2.659535e-05
1.041477e-06
1.000024e-06
1e-06
1e-06
1e-06
1e-06
1e-06
1e-06
1e-06
1e-06
1e-06
1e-06
1e-06
1e-06
1e-06
1e-06
1e-06
2.527467e-05
1.019175e-06
1.00001e-06
1e-06
1e-06
1e-06
1e-06
1e-06
1e-06
1e-06
1e-06
1e-06
1e-06
1e-06
1e-06
1e-06
1e-06
1e-06
2.39736e-05
1.012834e-06
1.000008e-06
1e-06
1e-06
1e-06
1e-06
1e-06
1e-06
1e-06
1e-06
1e-06
1e-06
1e-06
1e-06
1e-06
1e-06
1e-06
2.327183e-05
1.006863e-06
1.000005e-06
1e-06
1e-06
1e-06
1e-06
1e-06
1e-06
1e-06
1e-06
1e-06
1e-06
1e-06
1e-06
1e-06
1e-06
1e-06
2.191312e-05
1.005833e-06
1.000005e-06
1e-06
1e-06
1e-06
1e-06
1e-06
1e-06
1e-06
1e-06
1e-06
1e-06
1e-06
1e-06
1e-06
1e-06
1e-06
2.057782e-05
1.010766e-06
1.00002e-06
1e-06
1e-06
1e-06
1e-06
1e-06
1e-06
1e-06
1e-06
1e-06
1e-06
1e-06
1e-06
1e-06
1e-06
1e-06
1.488465e-05
1.003405e-06
1.000001e-06
1e-06
1e-06
1e-06
1e-06
1e-06
1e-06
1e-06
1e-06
1e-06
1e-06
1e-06
1e-06
1e-06
1e-06
1e-06
7.035089e-06
1.000362e-06
1e-06
1e-06
1e-06
1e-06
1e-06
1e-06
1e-06
1e-06
1e-06
1e-06
1e-06
1e-06
1e-06
1e-06
1e-06
1e-06
4.742035e-06
1.000472e-06
1e-06
1e-06
1e-06
1e-06
1e-06
1e-06
1e-06
1e-06
1e-06
1e-06
1e-06
1e-06
1e-06
1e-06
1e-06
1e-06
1.609056e-06
1.000011e-06
1e-06
1e-06
1e-06
1e-06
1e-06
1e-06
1e-06
1e-06
1e-06
1e-06
1e-06
1e-06
1e-06
1e-06
1e-06
1e-06
1.514306e-06
1.000011e-06
1e-06
1e-06
1e-06
1e-06
1e-06
1e-06
1e-06
1e-06
1e-06
1e-06
1e-06
1e-06
1e-06
1e-06
1e-06
1e-06
1.401253e-06
1.000003e-06
1e-06
1e-06
1e-06
1e-06
1e-06
1e-06
1e-06
1e-06
1e-06
1e-06
1e-06
1e-06
1e-06
1e-06
1e-06
1e-06
1.346209e-06
1.000001e-06
1e-06
1e-06
1e-06
1e-06
1e-06
1e-06
1e-06
1e-06
1e-06
1e-06
1e-06
1e-06
1e-06
1e-06
1e-06
1e-06
1.290232e-06
1.000002e-06
1e-06
1e-06
1e-06
1e-06
1e-06
1e-06
1e-06
1e-06
1e-06
1e-06
1e-06
1e-06
1e-06
1e-06
1e-06
1e-06
1.275028e-06
1.000002e-06
1e-06
1e-06
1e-06
1e-06
1e-06
1e-06
1e-06
1e-06
1e-06
1e-06
1e-06
1e-06
1e-06
1e-06
1e-06
1e-06
1.260472e-06
1.000002e-06
1e-06
1e-06
1e-06
1e-06
1e-06
1e-06
1e-06
1e-06
1e-06
1e-06
1e-06
1e-06
1e-06
1e-06
1e-06
1e-06
1.246296e-06