/*--------------------------------*- C++ -*----------------------------------*\
| =========                 |                                                 |
| \\      /  F ield         | OpenFOAM: The Open Source CFD Toolbox           |
|  \\    /   O peration     | Version:  2206                                  |
|   \\  /    A nd           | Website:  www.openfoam.com                      |
|    \\/     M anipulation  |                                                 |
\*---------------------------------------------------------------------------*/
FoamFile
{
    version     2.0;
    format      ascii;
    arch        "LSB;label=32;scalar=64";
    class       volScalarField;
    location    "2.2";
    object      nuFra;
}
// * * * * * * * * * * * * * * * * * * * * * * * * * * * * * * * * * * * * * //

dimensions      [0 2 -1 0 0 0 0];

internalField   nonuniform List<scalar> 
13078
(
1.111776e-08
0.6736143
28.1828
75.4405
100
100
100
1.381226
16.37416
42.68219
100
100
100
100
29.07527
50.6902
99.52094
100
100
100
100
100
100
100
100
100
100
100
100
100
100
100
100
100
100
100
100
100
100
100
100
100
100
100
100
100
100
100
100
100
100
100
100
100
100
100
100
100
100
100
100
100
100
100
100
100
100
100
100
100
100
100
100
100
100
100
100
100
100
100
100
100
100
100
100
100
100
100
100
100
100
100
100
100
100
100
100
100
100
100
100
100
100
100
100
100
100
100
100
100
100
100
100
100
100
100
100
100
100
100
100
100
100
100
100
100
100
100
100
100
100
100
100
100
100
100
100
100
100
100
100
100
100
100
100
100
100
100
100
100
100
100
100
100
100
100
100
100
100
100
100
100
100
100
100
100
100
100
100
100
100
100
100
100
100
100
100
100
100
100
100
100
100
100
100
100
100
100
100
100
100
100
100
100
100
100
100
100
100
100
100
100
100
100
100
100
100
100
100
100
100
100
100
100
100
100
100
100
100
100
100
100
100
100
100
100
100
100
100
100
100
100
100
100
100
100
100
100
100
100
100
100
100
100
100
100
100
100
100
100
100
100
100
100
100
100
100
100
100
100
100
100
100
100
100
100
100
100
100
100
100
100
100
100
100
100
100
100
100
81.51107
100
100
100
100
100
75.6428
16.50721
100
100
100
100
81.47558
16.97821
3.792893
100
100
100
95.06021
22.71774
5.038017
2.662057
100
100
100
35.05848
7.415626
3.299904
3.220106
100
100
52.96176
12.33033
4.523577
3.476937
4.503372
100
77.62096
20.77136
6.478667
4.012685
4.507111
5.907524
100
35.8329
10.25669
4.840946
4.411296
5.862818
7.013098
74.56744
18.4341
6.929573
4.754909
5.457026
7.193645
7.81158
42.69516
11.6375
5.973893
5.257343
6.823138
8.701718
8.61234
25.20741
8.929306
5.932521
6.183302
8.375042
9.84575
9.394643
16.87743
7.943012
6.319428
7.282686
9.715626
10.54827
9.80866
12.96266
7.652607
7.131961
8.719759
10.9898
10.98673
10.13393
11.17202
7.670177
7.729458
9.442552
11.47904
11.04802
9.720435
10.37516
7.707787
8.072016
9.829345
11.49101
10.33944
8.653164
10.28571
7.781481
8.207241
9.932995
11.20927
9.623852
7.738086
10.90511
7.859647
8.088332
9.694632
10.70822
9.030832
7.266706
12.53586
7.946963
7.608924
8.922051
9.912823
8.515865
6.981538
15.81099
8.488128
7.264829
8.159167
9.284375
8.348557
6.975916
21.81228
9.6305
7.061741
7.316755
8.433247
8.080497
7.046026
32.58156
11.73601
7.045374
6.432843
7.308854
7.457751
6.790078
50.46001
16.0251
7.375913
5.660275
6.198198
6.709397
6.375938
73.85655
24.27542
9.143195
5.54561
5.437219
6.054543
6.031241
100
40.63779
12.92168
5.79148
4.751431
5.300391
5.571201
100
70.38268
21.56975
7.049549
4.451233
4.616122
5.198763
100
100
42.45576
10.52427
4.628294
4.086012
4.705934
100
100
90.45645
20.87659
5.846783
3.705812
4.084755
100
100
100
52.46724
9.772306
3.85318
3.460769
100
100
100
100
25.43611
5.237467
3.018037
100
100
100
100
83.79498
12.94027
3.481252
100
100
100
100
100
61.10714
7.902596
100
100
100
100
100
100
51.06462
100
100
100
100
100
100
100
100
100
100
100
100
100
100
100
100
100
100
100
100
100
100
100
100
100
100
100
100
100
100
100
100
100
100
100
100
100
100
100
100
100
100
100
100
100
100
100
100
100
100
100
100
100
100
100
100
100
100
100
100
100
100
100
100
100
100
100
100
100
100
100
100
100
100
100
100
100
100
100
100
100
100
100
100
100
100
100
100
100
100
100
100
100
100
100
100
100
100
100
100
100
100
100
100
100
100
100
100
100
100
100
100
100
100
100
100
100
100
100
100
100
100
100
100
100
100
100
100
100
100
100
100
100
100
100
100
100
100
100
100
100
100
100
100
100
100
100
100
100
100
100
100
100
100
100
100
100
100
100
100
100
100
100
100
100
100
100
100
100
100
100
100
100
100
100
100
100
100
100
100
100
100
100
100
100
100
100
100
100
100
100
100
100
100
100
100
100
100
100
100
100
100
100
100
100
100
100
100
100
100
100
100
100
100
100
100
100
100
100
100
100
100
100
100
100
100
100
100
100
100
100
100
100
100
100
100
100
100
100
100
100
100
100
100
100
100
100
100
100
100
100
100
100
100
100
100
100
100
100
100
100
100
100
100
100
100
100
100
100
100
100
100
100
30.70362
52.48751
100
100
100
100
100
1.869897
18.91873
45.02181
100
100
100
100
100
100
100
100
100
100
100
100
100
100
100
100
100
100
100
100
100
100
100
100
100
100
100
100
100
100
100
100
100
100
100
100
100
100
100
100
100
100
100
100
100
100
100
100
100
100
100
100
100
100
100
100
100
100
100
100
100
100
100
100
100
100
100
100
100
100
100
100
100
100
100
100
100
100
100
100
100
100
100
100
100
100
100
100
100
100
100
100
100
100
100
100
100
100
100
100
100
100
100
100
100
100
100
100
100
100
100
100
100
100
100
100
100
100
100
100
100
100
100
100
100
100
100
100
100
100
100
100
100
100
100
100
100
100
100
100
100
100
100
100
100
100
100
100
100
100
87.90742
100
100
100
100
100
100
77.58813
100
100
100
100
100
100
68.07624
100
100
100
100
100
100
59.36526
100
100
100
100
100
100
51.4663
100
100
100
100
100
100
44.77546
100
100
100
100
100
100
39.08477
100
100
100
100
100
100
32.63665
100
100
100
100
100
100
27.32154
100
100
100
100
100
99.63744
23.18429
100
100
100
100
100
82.91506
17.53313
100
100
100
100
100
69.892
13.3273
100
100
100
100
100
58.38649
10.91831
100
100
100
100
87.98028
47.22562
12.02786
100
100
100
100
84.6248
49.96548
18.92115
100
100
100
100
100
86.16153
3.714496
100
100
100
100
100
69.99096
31.53183
100
83.05082
95.60606
78.32884
36.27674
13.33617
2.700646
84.40829
62.8469
32.38165
8.582495
3.141846
2.238465
1.004837
18.88456
12.97095
2.594215
1.778691
2.023712
1.982526
2.050744
3.057004
1.966856
1.96217
3.107689
4.059102
4.182596
2.890582
2.128969
2.407749
3.727102
4.566768
5.535092
5.202572
4.419594
3.011862
4.38945
4.640245
4.392675
4.581944
4.377411
1.029842
4.573787
5.640228
4.280792
3.390593
2.753254
1.92094
0.7758627
5.812777
5.756641
3.649889
2.829577
2.535519
2.086909
0.9343517
6.005369
5.126047
3.521324
3.063963
2.896637
2.143145
1.255039
6.413587
5.275889
3.832363
3.388429
3.054553
2.579142
2.312013
6.608421
5.479517
4.333005
3.684528
3.300141
3.954151
3.890862
7.380908
6.36628
4.930699
3.961534
3.555497
3.541267
2.490788
8.370169
7.354747
5.542329
4.473413
3.39733
2.711607
1.591877
9.217992
8.722767
6.238017
4.614283
3.094758
1.885277
1.046749
9.317768
9.112505
6.328608
4.36289
2.578235
1.380442
0.9112957
8.582282
8.565915
5.508427
3.564401
2.116357
1.210166
1.136474
7.498341
7.170159
4.573744
2.819729
1.789069
1.351049
0.7219466
6.591062
6.158378
3.938651
2.356933
1.517571
1.46412
1.306543
6.280342
5.511225
3.483397
2.04256
1.313213
0.9747198
6.036412
5.161592
3.19809
1.997677
1.336552
1.027305
5.90291
5.037438
3.170137
2.190695
1.640217
1.471223
5.906752
5.07225
3.153596
2.401162
1.915203
1.898848
2.147899
6.062853
5.314779
3.168078
2.261935
1.768672
1.496855
2.318704
5.557894
4.929705
3.545657
2.30821
1.706644
1.370738
1.11161
5.233947
4.402018
3.020119
2.355971
2.324747
2.313399
2.251793
4.780745
3.798728
2.554437
2.091107
2.174939
2.549512
3.230744
4.573928
3.54116
2.103726
1.856848
1.996886
2.271055
2.639358
4.473692
3.456659
1.97753
1.676084
1.874481
2.002748
2.318054
4.356154
3.600585
2.035424
1.770878
2.024825
1.878215
1.821318
4.004907
3.703567
2.37163
1.865774
2.081794
2.001888
1.040924
3.336223
3.705088
2.901514
2.274891
2.139621
1.838542
0.9672876
2.53203
3.0842
3.464811
3.175409
3.346392
3.803757
2.033398
2.51904
2.15351
3.444858
3.658955
3.544498
2.038689
3.704031
5.686209
1.90707
2.535423
3.254855
3.145599
2.278855
0.6827099
51.05587
6.834759
2.333514
2.748974
3.17579
2.736253
0.9515744
100
76.97772
19.07572
5.147226
5.887802
6.225898
2.034851
100
100
100
45.97252
21.90395
23.81854
11.47829
100
100
100
100
77.00496
70.84757
39.34025
100
100
100
100
100
100
64.05047
100
100
100
100
100
100
41.9337
100
100
100
100
100
100
33.40136
100
100
100
100
100
100
52.06972
100
100
100
100
100
87.79626
10.41034
100
100
100
100
100
87.50468
17.94162
100
100
100
100
100
93.14442
19.68133
100
100
100
100
100
100
25.0905
100
100
100
100
100
100
28.33684
100
100
100
100
100
100
32.49399
100
100
100
100
100
100
38.1734
100
100
100
100
100
100
43.15464
100
100
100
100
100
100
48.69793
100
100
100
100
100
100
55.35029
100
100
100
100
100
100
62.91787
100
100
100
100
100
100
71.1819
100
100
100
100
100
100
80.24293
100
100
100
100
100
100
90.24842
100
100
100
100
100
100
100
100
100
100
100
100
100
100
100
100
100
100
100
100
100
100
100
100
100
100
100
100
100
100
100
100
100
100
100
100
100
100
100
100
100
100
100
100
100
100
100
100
100
100
100
100
100
100
100
100
100
100
100
100
100
100
100
100
100
100
100
100
100
100
100
100
100
100
100
100
100
100
100
100
100
100
100
99.30811
100
100
100
100
100
100
96.35168
100
100
100
100
100
100
95.56757
100
100
100
100
100
100
98.16683
100
100
100
100
100
100
100
100
100
100
100
100
100
100
100
100
100
100
100
100
100
100
100
100
100
100
100
100
6.80129e-11
8.218153e-10
1.985231e-09
3.679266e-09
6.28592e-09
1.245058e-08
2.448763e-08
2.500825e-08
2.655555e-08
2.518417e-08
2.290742e-08
2.085276e-08
1.922702e-08
1.79246e-08
1.690454e-08
1.60376e-08
1.534352e-08
1.477004e-08
6.679453e-11
2.200053e-09
3.398228e-09
4.649111e-09
6.917221e-09
1.386656e-08
2.782328e-08
2.683386e-08
2.67792e-08
2.500452e-08
2.266584e-08
2.080157e-08
1.918758e-08
1.788676e-08
1.686313e-08
1.601658e-08
1.532051e-08
1.47529e-08
6.772022e-11
4.834954e-09
4.867288e-09
5.432707e-09
7.530912e-09
1.559726e-08
3.73144e-08
3.053314e-08
2.608351e-08
2.370786e-08
2.195953e-08
2.040759e-08
1.89342e-08
1.768595e-08
1.670305e-08
1.587295e-08
1.521274e-08
1.465889e-08
6.789382e-11
6.00583e-09
5.764353e-09
5.962941e-09
7.837536e-09
1.565949e-08
4.029145e-08
3.511022e-08
2.415032e-08
2.241377e-08
2.100632e-08
1.974924e-08
1.849701e-08
1.733971e-08
1.645657e-08
1.561538e-08
1.502549e-08
1.450549e-08
6.792517e-11
6.846919e-09
6.294309e-09
6.290157e-09
8.003887e-09
1.49931e-08
3.340998e-08
3.519606e-08
2.315483e-08
2.111802e-08
1.976668e-08
1.882495e-08
1.789047e-08
1.69008e-08
1.615995e-08
1.52635e-08
1.477252e-08
1.429085e-08
6.794318e-11
7.100552e-09
6.619019e-09
6.514131e-09
8.167161e-09
1.455273e-08
2.91547e-08
3.147975e-08
2.385329e-08
1.959697e-08
1.854727e-08
1.778673e-08
1.713791e-08
1.632454e-08
1.57461e-08
1.484288e-08
1.446155e-08
1.402727e-08
6.782797e-11
7.067214e-09
6.75554e-09
6.675794e-09
8.364632e-09
1.429433e-08
2.933923e-08
2.846067e-08
2.427102e-08
1.832007e-08
1.740774e-08
1.679131e-08
1.630055e-08
1.570334e-08
1.526592e-08
1.439398e-08
1.410416e-08
1.37213e-08
6.78781e-11
6.948217e-09
6.979388e-09
6.832173e-09
8.608586e-09
1.42511e-08
2.754001e-08
2.512171e-08
2.299112e-08
1.784045e-08
1.636754e-08
1.584906e-08
1.544455e-08
1.502759e-08
1.473308e-08
1.391953e-08
1.370953e-08
1.338072e-08
6.786432e-11
7.159376e-09
7.158626e-09
6.981049e-09
8.883934e-09
1.437518e-08
2.498075e-08
2.317821e-08
2.129895e-08
1.775229e-08
1.547202e-08
1.498895e-08
1.461181e-08
1.433801e-08
1.418583e-08
1.342233e-08
1.329181e-08
1.301559e-08
6.786471e-11
6.995667e-09
7.264971e-09
7.109275e-09
9.204336e-09
1.453541e-08
2.331247e-08
2.023344e-08
1.926243e-08
1.70372e-08
1.496837e-08
1.407555e-08
1.395063e-08
1.37658e-08
1.362637e-08
1.29215e-08
1.28565e-08
1.263216e-08
6.795361e-11
6.847588e-09
7.328003e-09
7.223789e-09
9.536924e-09
1.468792e-08
2.136313e-08
1.826138e-08
1.767578e-08
1.640943e-08
1.443829e-08
1.347485e-08
1.336635e-08
1.313849e-08
1.307214e-08
1.241351e-08
1.242006e-08
1.223668e-08
6.805477e-11
5.957709e-09
7.198714e-09
7.210157e-09
9.775018e-09
1.471157e-08
1.93887e-08
1.801146e-08
1.625091e-08
1.521792e-08
1.319686e-08
1.276121e-08
1.268401e-08
1.250638e-08
1.251666e-08
1.193673e-08
1.197499e-08
1.184067e-08
6.797642e-11
4.64571e-09
6.131976e-09
6.920844e-09
9.885804e-09
1.456099e-08
1.770038e-08
1.690473e-08
1.467365e-08
1.31611e-08
1.233283e-08
1.200057e-08
1.197927e-08
1.192932e-08
1.199729e-08
1.144958e-08
1.153276e-08
1.143604e-08
6.816871e-11
3.164495e-09
5.866974e-09
7.026864e-09
1.038841e-08
1.44377e-08
1.617797e-08
1.532024e-08
1.314837e-08
1.223596e-08
1.160465e-08
1.131489e-08
1.135407e-08
1.137594e-08
1.148981e-08
1.097009e-08
1.109792e-08
1.103435e-08
6.944785e-11
3.613396e-09
6.153945e-09
7.489133e-09
1.091542e-08
1.422432e-08
1.498866e-08
1.395407e-08
1.224587e-08
1.150585e-08
1.096356e-08
1.072577e-08
1.080596e-08
1.084295e-08
1.099473e-08
1.050559e-08
1.066917e-08
1.063484e-08
6.82962e-11
3.582283e-09
6.860602e-09
7.627302e-09
1.170112e-08
1.398064e-08
1.385997e-08
1.282838e-08
1.14685e-08
1.090149e-08
1.037692e-08
1.02009e-08
1.02669e-08
1.033014e-08
1.051234e-08
1.005624e-08
1.024788e-08
1.024136e-08
6.854507e-11
3.801113e-09
7.051712e-09
8.197798e-09
1.224756e-08
1.359623e-08
1.292849e-08
1.186463e-08
1.074094e-08
1.031778e-08
9.800838e-09
9.690676e-09
9.755508e-09
9.838779e-09
1.003715e-08
9.624543e-09
9.835693e-09
9.852589e-09
6.880773e-11
3.789664e-09
8.296742e-09
8.197027e-09
1.211851e-08
1.292756e-08
1.193761e-08
1.092727e-08
1.003117e-08
9.696866e-09
9.255329e-09
9.199432e-09
9.272331e-09
9.36852e-09
9.55323e-09
9.219289e-09
9.431606e-09
9.469655e-09
6.912502e-11
3.606116e-09
8.827522e-09
9.218033e-09
1.073994e-08
1.183895e-08
1.089605e-08
1.002489e-08
9.317233e-09
9.065686e-09
8.743985e-09
8.728212e-09
8.808155e-09
8.925793e-09
9.046403e-09
8.845648e-09
9.030737e-09
9.092645e-09
6.94314e-11
3.453244e-09
8.936562e-09
9.261044e-09
1.102194e-08
9.61339e-09
9.866102e-09
9.14626e-09
8.596844e-09
8.449302e-09
8.259749e-09
8.270135e-09
8.354095e-09
8.466097e-09
8.487248e-09
8.53863e-09
8.649395e-09
8.72114e-09
6.976803e-11
3.256074e-09
8.654631e-09
8.943063e-09
9.975941e-09
9.434493e-09
8.32247e-09
8.287827e-09
7.91082e-09
7.880341e-09
7.792391e-09
7.824304e-09
7.916317e-09
8.003713e-09
8.076508e-09
8.221576e-09
8.259511e-09
8.357064e-09
7.012909e-11
3.06898e-09
8.230926e-09
8.291858e-09
8.854158e-09
8.414437e-09
7.90344e-09
7.467225e-09
7.266516e-09
7.36118e-09
7.341568e-09
7.393223e-09
7.496661e-09
7.608348e-09
7.681881e-09
7.845949e-09
7.893565e-09
8.002294e-09
7.054282e-11
2.870301e-09
7.672767e-09
7.386772e-09
7.918041e-09
7.417837e-09
7.091246e-09
6.781375e-09
6.812168e-09
6.88024e-09
6.904372e-09
6.975204e-09
7.091203e-09
7.206085e-09
7.287463e-09
7.462393e-09
7.531739e-09
7.654301e-09
7.099673e-11
2.710266e-09
7.082412e-09
6.449128e-09
6.990307e-09
6.620086e-09
6.331326e-09
6.21476e-09
6.221355e-09
6.484704e-09
6.494762e-09
6.56757e-09
6.699282e-09
6.845906e-09
6.885363e-09
7.082707e-09
7.175645e-09
7.306902e-09
7.150267e-11
2.550313e-09
6.442267e-09
5.543221e-09
6.187331e-09
5.929427e-09
5.709842e-09
5.722521e-09
5.776435e-09
5.931164e-09
6.124586e-09
6.190336e-09
6.316552e-09
6.536626e-09
6.481063e-09
6.741916e-09
6.836716e-09
6.971595e-09
7.206217e-11
2.40556e-09
5.856207e-09
4.86872e-09
5.465217e-09
5.343969e-09
5.189142e-09
5.28208e-09
5.287349e-09
5.518261e-09
5.676107e-09
5.843765e-09
5.969336e-09
6.437932e-09
6.099218e-09
6.381945e-09
6.497544e-09
6.637373e-09
7.268382e-11
2.2664e-09
5.279988e-09
4.389808e-09
4.715994e-09
4.789238e-09
4.757283e-09
4.78699e-09
4.863665e-09
5.131634e-09
5.305337e-09
5.461532e-09
5.640996e-09
5.887092e-09
5.677195e-09
6.036461e-09
6.168803e-09
6.331885e-09
7.337674e-11
2.124697e-09
4.784799e-09
4.050945e-09
3.925606e-09
4.309145e-09
4.319183e-09
4.351384e-09
4.494288e-09
4.761156e-09
4.949915e-09
5.114718e-09
5.303819e-09
5.490257e-09
5.449175e-09
5.697886e-09
5.851571e-09
6.032277e-09
7.414685e-11
1.973652e-09
4.27388e-09
3.998498e-09
3.085488e-09
3.997968e-09
3.917667e-09
3.918592e-09
4.240008e-09
4.418156e-09
4.609983e-09
4.778232e-09
4.980671e-09
5.087257e-09
5.238538e-09
5.402705e-09
5.534189e-09
5.745906e-09
7.502572e-11
1.801819e-09
3.44627e-09
4.299358e-09
2.481924e-09
3.805066e-09
3.577348e-09
3.536724e-09
4.066404e-09
4.051608e-09
4.278566e-09
4.465807e-09
4.657391e-09
4.774805e-09
4.970425e-09
5.092551e-09
5.263393e-09
5.779683e-09
7.605907e-11
1.620611e-09
2.465356e-09
4.233004e-09
2.74096e-09
2.962654e-09
3.196367e-09
3.212535e-09
3.729395e-09
3.73061e-09
3.980005e-09
4.179578e-09
4.387149e-09
4.457127e-09
4.655145e-09
4.792523e-09
4.969717e-09
5.159658e-09
7.7321e-11
1.354095e-09
1.894196e-09
3.097092e-09
2.85496e-09
2.571139e-09
2.835527e-09
2.87126e-09
3.156505e-09
3.567781e-09
3.751302e-09
3.919974e-09
4.162656e-09
4.126416e-09
4.384587e-09
4.50687e-09
4.69784e-09
4.701681e-09
7.884043e-11
1.277587e-09
1.823917e-09
1.924793e-09
2.834774e-09
2.318599e-09
2.557352e-09
2.757195e-09
3.019811e-09
3.27887e-09
3.525419e-09
3.685877e-09
3.916048e-09
3.912541e-09
4.063542e-09
4.226382e-09
4.558819e-09
4.405716e-09
8.312786e-11
1.030519e-09
1.491855e-09
1.244153e-09
2.519166e-09
2.247749e-09
2.370542e-09
2.537605e-09
2.815226e-09
3.143737e-09
3.353987e-09
3.47012e-09
3.61647e-09
3.629278e-09
3.804583e-09
3.962162e-09
4.081185e-09
4.195382e-09
8.48617e-11
7.831612e-10
1.175539e-09
1.285487e-09
1.229232e-09
3.140695e-09
2.368186e-09
2.430218e-09
3.168673e-09
2.886402e-09
3.109606e-09
3.238853e-09
3.284504e-09
3.427647e-09
3.556329e-09
3.704218e-09
3.604322e-09
4.140213e-09
9.070935e-11
6.334796e-10
9.09385e-10
1.251026e-09
1.445036e-09
2.007022e-09
2.131649e-09
2.972176e-09
2.488003e-09
2.69462e-09
2.854864e-09
2.995691e-09
2.967278e-09
3.227229e-09
3.30512e-09
3.658557e-09
3.55784e-09
3.798922e-09
9.608135e-11
4.10133e-10
8.772834e-10
1.281542e-09
1.540819e-09
1.847637e-09
2.137343e-09
2.457249e-09
2.477369e-09
2.556849e-09
2.652215e-09
2.79536e-09
2.758132e-09
2.982765e-09
3.094763e-09
3.154085e-09
3.192497e-09
3.49869e-09
1.302525e-10
2.092679e-10
6.877716e-10
9.266788e-10
1.378707e-09
1.796707e-09
2.10273e-09
2.288978e-09
2.32156e-09
2.384736e-09
2.440672e-09
2.482598e-09
2.559355e-09
2.658976e-09
2.839122e-09
2.743981e-09
3.184412e-09
3.243433e-09
1.592707e-10
1.490599e-10
1.095849e-09
1.299207e-09
1.647655e-09
1.957424e-09
2.132124e-09
2.168634e-09
2.141747e-09
2.189324e-09
2.224879e-09
2.228258e-09
2.347485e-09
2.421056e-09
2.520639e-09
2.658643e-09
2.843645e-09
3.007972e-09
1.170697e-06
1.455175e-10
4.769273e-10
1.136994e-09
2.116496e-09
2.139173e-09
2.102806e-09
1.996525e-09
1.943168e-09
1.974049e-09
2.014368e-09
1.950456e-09
2.122494e-09
2.245164e-09
2.302034e-09
2.46315e-09
2.587965e-09
2.743438e-09
0.0006859807
1.032742e-10
6.937166e-10
1.368042e-09
1.974041e-09
2.037802e-09
1.910153e-09
1.80888e-09
1.740033e-09
1.761636e-09
1.816704e-09
1.734303e-09
1.938098e-09
2.129366e-09
2.017286e-09
2.188392e-09
2.36138e-09
2.518477e-09
0.001881453
8.236024e-11
8.350376e-10
1.792706e-09
1.853083e-09
1.862506e-09
1.621475e-09
1.595696e-09
1.522912e-09
1.57182e-09
1.560751e-09
1.624386e-09
1.735309e-09
1.825104e-09
1.814577e-09
2.012989e-09
2.176799e-09
2.328589e-09
0.002647988
8.222963e-11
7.838808e-10
1.69647e-09
1.677126e-09
1.502674e-09
1.415475e-09
1.334229e-09
1.339842e-09
1.38484e-09
1.354037e-09
1.483165e-09
1.557415e-09
1.469024e-09
1.693098e-09
1.848344e-09
1.996861e-09
2.047813e-09
0.07795239
8.000647e-11
1.167339e-09
2.45536e-09
1.505515e-09
1.234086e-09
1.222513e-09
1.184836e-09
1.147122e-09
1.219348e-09
1.122899e-09
1.354275e-09
1.295148e-09
1.465154e-09
1.537571e-09
1.677461e-09
1.725665e-09
2.024957e-09
0.1738679
6.882498e-11
1.028176e-09
1.725963e-09
1.626171e-09
1.072496e-09
1.081234e-09
1.024202e-09
1.002943e-09
1.114329e-09
1.030422e-09
1.148615e-09
1.057313e-09
1.406491e-09
1.427892e-09
1.450501e-09
1.673064e-09
1.714411e-09
0.2421617
7.043805e-11
6.127839e-10
2.301871e-09
1.74708e-09
9.722525e-10
9.105156e-10
8.638721e-10
8.374124e-10
8.810923e-10
8.879731e-10
9.544722e-10
1.067874e-09
1.137515e-09
1.157531e-09
1.418914e-09
1.466769e-09
1.735408e-09
0.0544609
7.152757e-11
3.317901e-10
2.161454e-09
9.648566e-10
8.698827e-10
7.378682e-10
7.120279e-10
7.171798e-10
7.298123e-10
8.149841e-10
8.090867e-10
9.689688e-10
9.399146e-10
1.166842e-09
1.166364e-09
1.410126e-09
1.404516e-09
0.004525073
1.617847e-10
6.936224e-10
1.109681e-09
6.796027e-10
6.460246e-10
6.031932e-10
5.852107e-10
5.944909e-10
6.440824e-10
6.450623e-10
6.690395e-10
7.63605e-10
9.282842e-10
9.352545e-10
1.105964e-09
1.157829e-09
1.483813e-09
0.01988478
2.11173e-10
4.970285e-10
2.82124e-10
4.246608e-10
4.66719e-10
4.71516e-10
4.485805e-10
4.5054e-10
5.057179e-10
5.111347e-10
5.985758e-10
7.008338e-10
7.355493e-10
8.429609e-10
9.773574e-10
1.110824e-09
1.199474e-09
0.2723535
1.492016e-10
2.269287e-10
2.507536e-10
3.654357e-10
4.252267e-10
4.317449e-10
4.993907e-10
5.871619e-10
6.107969e-10
8.263494e-10
8.221614e-10
1.034573e-09
1.196775e-09
0.2358631
0.006833514
3.284868e-10
4.276358e-10
4.440894e-10
6.063322e-10
6.158302e-10
8.617309e-10
8.424072e-10
1.10443e-09
1.360992
3.098416e-10
4.358085e-10
4.760782e-10
5.865966e-10
7.037e-10
8.416375e-10
1.034037e-09
3.491833e-10
4.398569e-10
5.661093e-10
6.292623e-10
7.50639e-10
9.157041e-10
3.816797e-10
4.48561e-10
6.016501e-10
7.645183e-10
8.881852e-10
4.169042e-10
4.56082e-10
5.794502e-10
6.968352e-10
8.48795e-10
3.321227e-10
4.176361e-10
5.371061e-10
6.728993e-10
8.207504e-10
3.325523e-10
4.103699e-10
5.360273e-10
6.686665e-10
8.152183e-10
3.381086e-10
4.277763e-10
5.477023e-10
6.868564e-10
8.207732e-10
3.57416e-10
4.238465e-10
5.567136e-10
7.136824e-10
8.443605e-10
3.076351e-10
3.465379e-10
5.117506e-10
5.773649e-10
7.608078e-10
8.973478e-10
0.3977817
4.304035e-10
4.099006e-10
5.227277e-10
6.633937e-10
7.822446e-10
9.611194e-10
0.02241625
0.0002674745
3.805688e-10
4.192326e-10
4.954805e-10
5.990525e-10
7.164259e-10
8.481861e-10
1.050895e-09
0.02144862
2.173865e-10
1.579857e-10
2.984528e-10
3.59724e-10
4.067078e-10
5.205831e-10
5.646826e-10
6.53931e-10
7.953649e-10
8.992246e-10
1.067817e-09
0.005873293
1.89204e-10
3.267499e-10
4.700771e-10
4.808552e-10
4.07956e-10
3.775147e-10
3.563291e-10
3.989854e-10
3.958179e-10
4.81282e-10
4.893247e-10
5.561506e-10
7.237344e-10
7.242991e-10
9.470811e-10
9.943893e-10
1.246161e-09
0.001883492
1.442733e-10
6.018393e-10
3.855153e-10
3.682891e-10
4.696013e-10
4.609779e-10
4.488239e-10
5.185827e-10
5.01628e-10
5.354569e-10
6.219608e-10
6.564552e-10
7.429012e-10
9.399419e-10
9.339826e-10
1.250006e-09
1.245009e-09
0.002195789
1.728013e-10
2.514537e-10
5.01775e-10
5.318013e-10
5.026928e-10
5.512324e-10
5.711806e-10
5.750618e-10
6.045941e-10
6.470161e-10
7.075834e-10
8.428101e-10
8.581266e-10
9.792117e-10
1.185375e-09
1.202779e-09
1.438297e-09
0.008108698
9.136114e-11
4.110316e-10
3.993235e-10
4.9037e-10
5.836842e-10
6.222983e-10
6.584252e-10
6.877058e-10
7.20721e-10
7.871319e-10
7.819784e-10
9.473697e-10
1.035369e-09
1.121309e-09
1.212056e-09
1.447111e-09
1.587279e-09
0.01184222
8.922771e-11
5.524475e-10
4.600083e-10
6.878364e-10
7.559547e-10
7.369371e-10
7.745476e-10
8.038776e-10
8.60767e-10
9.823864e-10
9.324941e-10
1.033857e-09
1.149121e-09
1.240218e-09
1.442127e-09
1.498357e-09
1.757442e-09
0.01023435
9.97828e-11
7.005912e-10
6.458489e-10
7.473359e-10
8.100456e-10
8.513831e-10
9.000916e-10
9.469704e-10
9.894771e-10
9.988293e-10
1.145315e-09
1.223196e-09
1.302788e-09
1.454624e-09
1.492619e-09
1.712297e-09
1.889737e-09
0.01291475
9.108261e-11
5.93241e-10
6.793996e-10
8.893801e-10
8.95374e-10
1.004719e-09
1.033075e-09
1.049216e-09
1.122151e-09
1.111321e-09
1.19357e-09
1.336115e-09
1.427339e-09
1.567548e-09
1.705411e-09
1.817524e-09
2.087979e-09
0.002646928
1.007389e-10
5.69757e-10
1.103246e-09
1.195925e-09
1.097712e-09
1.099446e-09
1.156886e-09
1.18693e-09
1.256372e-09
1.337063e-09
1.512014e-09
1.544899e-09
1.750805e-09
1.747743e-09
1.884093e-09
2.07872e-09
2.145454e-09
0.000931388
1.332562e-10
1.393511e-09
1.203566e-09
1.302004e-09
1.29918e-09
1.306556e-09
1.324968e-09
1.356433e-09
1.424878e-09
1.464527e-09
1.518444e-09
1.661014e-09
1.831732e-09
1.972389e-09
2.069845e-09
2.20445e-09
2.360781e-09
3.366816e-05
1.419014e-10
9.021465e-10
1.50872e-09
1.7688e-09
1.610082e-09
1.491334e-09
1.489786e-09
1.528648e-09
1.601772e-09
1.651267e-09
1.828768e-09
1.87194e-09
1.977609e-09
2.101596e-09
2.234448e-09
2.310523e-09
2.434751e-09
1.291428e-10
3.502576e-10
2.039148e-09
2.619966e-09
2.185712e-09
1.872219e-09
1.710395e-09
1.659667e-09
1.711915e-09
1.786033e-09
1.84656e-09
1.969653e-09
2.00777e-09
2.15436e-09
2.229125e-09
2.363405e-09
2.492021e-09
2.64073e-09
1.248767e-10
4.689015e-10
1.826356e-09
2.256857e-09
2.143534e-09
1.962698e-09
1.939065e-09
1.797537e-09
1.944815e-09
1.993956e-09
2.035012e-09
2.129301e-09
2.215834e-09
2.295664e-09
2.328144e-09
2.441514e-09
2.63496e-09
2.833325e-09
8.433454e-11
1.474876e-09
2.953612e-09
3.715085e-09
3.212969e-09
2.090326e-09
2.249566e-09
1.947887e-09
2.156665e-09
2.202136e-09
2.202279e-09
2.224728e-09
2.267695e-09
2.449869e-09
2.597872e-09
2.809501e-09
2.809478e-09
3.038286e-09
8.292214e-11
2.332954e-09
2.934662e-09
3.171313e-09
4.016557e-09
2.027477e-09
2.57245e-09
2.513705e-09
2.264582e-09
2.376961e-09
2.369441e-09
2.446033e-09
2.672551e-09
2.7283e-09
2.846368e-09
3.092495e-09
3.20296e-09
3.24711e-09
7.836889e-11
1.749525e-09
2.459969e-09
4.729782e-09
2.006367e-09
2.996231e-09
3.044709e-09
2.703708e-09
2.89516e-09
2.683313e-09
2.651797e-09
2.677959e-09
2.778646e-09
2.870647e-09
3.049839e-09
3.253393e-09
3.39622e-09
3.592084e-09
7.396244e-11
1.007801e-09
2.048784e-09
1.830208e-09
2.054873e-09
2.983309e-09
3.149943e-09
3.13281e-09
2.860024e-09
3.007461e-09
2.977319e-09
2.970781e-09
3.14569e-09
3.213645e-09
3.323376e-09
3.442077e-09
3.478987e-09
3.669416e-09
7.473292e-11
1.841421e-09
2.08389e-09
1.523241e-09
2.938311e-09
3.426496e-09
3.270554e-09
3.374117e-09
3.22972e-09
3.183216e-09
3.248185e-09
3.253922e-09
3.414967e-09
3.461774e-09
3.564357e-09
3.714262e-09
3.923004e-09
4.010424e-09
7.452248e-11
1.910225e-09
2.235902e-09
2.542349e-09
2.813792e-09
3.487335e-09
3.347798e-09
3.514252e-09
3.514247e-09
3.523787e-09
3.539036e-09
3.525397e-09
3.625591e-09
3.611272e-09
3.836614e-09
3.990501e-09
4.182138e-09
4.468501e-09
7.405991e-11
1.999581e-09
2.435397e-09
2.557723e-09
6.363636e-09
3.212234e-09
3.521678e-09
3.913604e-09
3.346514e-09
3.628977e-09
3.762283e-09
3.792092e-09
3.86094e-09
3.998739e-09
4.108529e-09
4.269808e-09
4.429168e-09
4.616388e-09
7.355485e-11
2.10769e-09
2.804521e-09
3.467017e-09
4.27492e-09
3.568912e-09
3.770738e-09
4.072611e-09
4.075471e-09
3.994993e-09
4.049228e-09
4.08044e-09
4.164039e-09
4.284727e-09
4.384829e-09
4.538816e-09
4.701394e-09
4.941898e-09
7.305618e-11
2.237963e-09
3.03273e-09
3.845243e-09
4.114483e-09
3.862364e-09
4.037481e-09
4.290402e-09
4.384883e-09
4.327647e-09
4.357645e-09
4.384492e-09
4.457238e-09
4.633291e-09
4.58006e-09
4.83562e-09
4.994208e-09
5.216719e-09
7.260228e-11
2.393129e-09
3.216904e-09
4.180012e-09
4.278126e-09
4.037537e-09
4.273854e-09
4.540211e-09
4.685044e-09
4.661307e-09
4.676472e-09
4.700339e-09
4.7851e-09
4.978912e-09
4.901887e-09
5.141772e-09
5.283836e-09
5.409881e-09
7.219015e-11
2.554993e-09
3.39241e-09
4.475107e-09
4.504782e-09
4.22196e-09
4.472844e-09
4.811793e-09
4.991681e-09
4.993136e-09
5.004203e-09
5.025752e-09
5.117794e-09
5.336355e-09
5.232233e-09
5.467258e-09
5.592744e-09
5.743125e-09
7.181142e-11
2.712569e-09
3.557424e-09
4.744402e-09
4.736405e-09
4.436468e-09
4.698993e-09
5.0806e-09
5.285682e-09
5.325443e-09
5.344251e-09
5.361282e-09
5.462767e-09
5.636642e-09
5.62065e-09
5.750511e-09
5.895226e-09
6.063053e-09
7.147843e-11
2.830202e-09
3.752438e-09
4.979596e-09
4.949784e-09
4.674963e-09
4.933923e-09
5.298766e-09
5.615189e-09
5.676843e-09
5.667426e-09
5.738829e-09
5.816532e-09
5.971822e-09
5.864298e-09
6.118698e-09
6.224764e-09
6.375679e-09
7.117262e-11
2.993463e-09
3.933381e-09
5.142669e-09
5.137707e-09
4.9276e-09
5.180243e-09
5.551265e-09
5.934216e-09
6.007651e-09
6.061128e-09
6.119127e-09
6.170522e-09
6.204801e-09
6.210546e-09
6.40852e-09
6.552078e-09
6.698427e-09
7.089394e-11
3.10231e-09
4.170803e-09
5.279261e-09
5.333715e-09
5.190321e-09
5.426603e-09
5.822772e-09
6.150094e-09
6.434008e-09
6.470657e-09
6.503473e-09
6.542913e-09
6.564858e-09
6.652072e-09
6.771437e-09
6.892115e-09
7.032321e-09
7.065943e-11
3.182623e-09
4.37821e-09
5.348922e-09
5.526177e-09
5.475902e-09
5.6932e-09
6.016629e-09
6.442045e-09
6.810782e-09
6.866159e-09
6.901067e-09
6.929922e-09
6.944232e-09
7.019173e-09
7.119695e-09
7.242969e-09
7.364217e-09
7.043733e-11
3.324946e-09
4.663106e-09
5.405328e-09
5.792818e-09
5.78103e-09
5.72674e-09
6.364403e-09
6.751677e-09
7.093034e-09
7.279386e-09
7.315659e-09
7.335602e-09
7.35043e-09
7.371634e-09
7.47527e-09
7.592874e-09
7.704493e-09
7.026147e-11
3.441035e-09
4.949936e-09
5.556674e-09
6.118001e-09
5.527071e-09
6.380205e-09
6.507378e-09
7.025715e-09
7.387091e-09
7.686727e-09
7.738526e-09
7.75476e-09
7.752883e-09
7.880042e-09
7.688829e-09
7.950855e-09
8.056463e-09
7.009823e-11
3.575693e-09
5.382199e-09
5.801827e-09
5.359809e-09
6.472241e-09
6.245783e-09
6.815777e-09
7.359094e-09
7.703035e-09
8.064479e-09
8.170139e-09
8.166168e-09
8.161101e-09
8.342398e-09
8.106863e-09
8.336726e-09
8.41757e-09
6.993647e-11
3.594978e-09
5.817141e-09
4.756223e-09
6.478468e-09
6.149095e-09
6.61401e-09
7.165795e-09
7.718705e-09
8.04496e-09
8.402598e-09
8.622878e-09
8.600372e-09
8.583503e-09
8.771837e-09
8.49186e-09
8.714868e-09
8.786031e-09
6.973584e-11
3.529475e-09
4.819825e-09
5.653727e-09
6.08719e-09
6.52606e-09
6.934553e-09
7.497637e-09
8.079177e-09
8.414212e-09
8.77908e-09
9.097168e-09
9.065348e-09
9.024078e-09
9.202385e-09
8.890903e-09
9.105958e-09
9.160861e-09
6.974109e-11
3.539261e-09
6.583609e-09
5.556429e-09
6.371941e-09
6.735695e-09
7.194951e-09
7.820604e-09
8.441147e-09