/*--------------------------------*- C++ -*----------------------------------*\
| =========                 |                                                 |
| \\      /  F ield         | OpenFOAM: The Open Source CFD Toolbox           |
|  \\    /   O peration     | Version:  2206                                  |
|   \\  /    A nd           | Website:  www.openfoam.com                      |
|    \\/     M anipulation  |                                                 |
\*---------------------------------------------------------------------------*/
FoamFile
{
    version     2.0;
    format      ascii;
    arch        "LSB;label=32;scalar=64";
    class       volScalarField;
    location    "2.2";
    object      omega.b_0;
}
// * * * * * * * * * * * * * * * * * * * * * * * * * * * * * * * * * * * * * //

dimensions      [0 0 -1 0 0 0 0];

internalField   nonuniform List<scalar> 
13078
(
6.495683
0.4055174
0.2946184
0.29345
0.2941196
0.2949505
0.2959178
6.57947
0.3905899
0.2938256
0.2933595
0.2940876
0.294927
0.2958953
6.585492
0.3850964
0.29366
0.2932881
0.2940421
0.2948942
0.2958671
6.591679
0.3829873
0.2935713
0.2932333
0.2939991
0.2948603
0.2958369
6.598133
0.3822575
0.2935219
0.2932046
0.2939639
0.2948282
0.2958073
6.604802
0.3818979
0.2934971
0.2931869
0.2939478
0.2948011
0.2957792
6.611848
0.3817662
0.2934957
0.2931744
0.2939369
0.2947905
0.2957546
6.619131
0.3817599
0.2935039
0.293168
0.2939305
0.2947834
0.2957467
6.626655
0.3817769
0.2935026
0.2931661
0.2939269
0.2947785
0.295741
6.634488
0.3818505
0.2935041
0.2931657
0.2939249
0.2947751
0.2957367
6.642682
0.3819611
0.2935064
0.2931658
0.2939236
0.2947726
0.2957331
6.651186
0.3820987
0.2935091
0.2931661
0.2939227
0.2947706
0.2957301
6.660084
0.3822572
0.293512
0.2931663
0.293922
0.2947688
0.2957273
6.669375
0.382434
0.2935148
0.2931662
0.293921
0.2947671
0.2957246
6.679072
0.3826258
0.2935185
0.2931622
0.2939142
0.2947648
0.295722
6.689206
0.3828315
0.2935224
0.293157
0.2939088
0.2947627
0.2957193
6.69983
0.3830493
0.2935255
0.2931561
0.2939073
0.2947607
0.2957164
6.710875
0.3832784
0.2935288
0.2931554
0.2939059
0.2947587
0.2957135
6.722538
0.3835207
0.2935321
0.2931547
0.2939042
0.294756
0.2957104
6.734686
0.3837739
0.2935355
0.2931533
0.2938964
0.2947444
0.2957062
6.747501
0.3840407
0.2935391
0.2931519
0.2938867
0.2947351
0.295702
6.760848
0.38432
0.2935429
0.2931509
0.2938839
0.2947317
0.2956982
6.774919
0.3846137
0.2935469
0.2931497
0.2938816
0.294728
0.2956932
6.789678
0.3849233
0.2935512
0.2931485
0.2938783
0.2947156
0.2956755
6.805169
0.3852506
0.293556
0.2931472
0.2938749
0.2947001
0.2956609
6.821431
0.3855987
0.2935613
0.2931459
0.2938721
0.2946946
0.2956543
6.838694
0.3859638
0.2935672
0.2931447
0.293869
0.2946896
0.2956479
6.860782
0.3864062
0.2935753
0.2931436
0.2938657
0.2946832
0.2956279
6.889512
0.3867872
0.2935821
0.2931425
0.2938623
0.2946766
0.2956017
6.964901
0.388032
0.2936084
0.2931417
0.2938591
0.2946712
0.295593
7.077898
0.3892733
0.2936054
0.2931403
0.2938556
0.2946651
0.2955817
7.116327
0.3914702
0.2935953
0.2931369
0.2938514
0.2946591
0.2955714
7.153721
0.3942786
0.293683
0.2931358
0.2938445
0.294652
0.2955627
7.186841
0.3952686
0.2937294
0.2931366
0.2938354
0.2946396
0.2955497
7.221337
0.3962756
0.2937483
0.2931214
0.2938359
0.2946175
0.2955293
7.257501
0.397334
0.2937683
0.2930768
0.293796
0.2946013
0.2955091
7.2953
0.3984026
0.2937772
0.2930472
0.2937235
0.2945806
0.2954999
7.335032
0.3995063
0.2937686
0.2930015
0.293677
0.2945303
0.2955094
7.385165
0.400715
0.2937538
0.2929476
0.2936214
0.2944507
0.2955443
7.498022
0.4032835
0.2937511
0.2928693
0.2935795
0.2944358
0.295578
7.673721
0.4079706
0.2936619
0.2927786
0.2934977
0.2943735
0.2955125
7.748891
0.4128593
0.2936594
0.2925984
0.2933231
0.2943354
0.29586
7.810542
0.4150865
0.2935234
0.292344
0.2932042
0.2946056
0.296513
7.878358
0.4168093
0.2932688
0.2921357
0.2934005
0.2951651
0.297107
7.986775
0.4187563
0.2930811
0.2922802
0.2938101
0.2956436
0.2975453
8.166373
0.4212995
0.2930816
0.2926659
0.2942091
0.2959267
0.2978089
8.255055
0.4244219
0.2934677
0.2930147
0.2944559
0.2960726
0.2977693
8.326858
0.4254785
0.29376
0.2932588
0.2946007
0.2960336
0.2976634
8.397702
0.4266856
0.2939426
0.2933404
0.2946038
0.2960486
0.2975049
8.470171
0.4279272
0.2940164
0.293347
0.294569
0.2958532
0.2971882
8.578766
0.4329574
0.2940626
0.293297
0.2944354
0.295589
0.2967993
8.84339
0.4414893
0.294388
0.2935276
0.2945283
0.2954956
0.2965525
8.951012
0.445193
0.2944659
0.2932339
0.2942941
0.2953762
0.296411
9.002688
0.4463194
0.2943283
0.2930353
0.2941001
0.2951868
0.2961541
9.031985
0.4473072
0.2942509
0.2929219
0.2939761
0.2950281
0.2959212
9.043958
0.4485802
0.2941399
0.292728
0.2937549
0.2947511
0.2956797
9.042308
0.4471084
0.2938619
0.2924451
0.2934846
0.2944846
0.2953419
9.029846
0.444519
0.2938493
0.2925324
0.2935269
0.2944873
0.2953152
9.000457
0.442642
0.2938528
0.2925641
0.29349
0.2944052
0.295144
8.94729
0.439772
0.2936739
0.292415
0.2932498
0.294084
0.2949226
8.838888
0.4346983
0.2933063
0.2923493
0.2932281
0.2941176
0.2949897
8.574481
0.42618
0.2932053
0.2925013
0.2933546
0.2941822
0.2950003
8.467663
0.4203169
0.2931157
0.2923396
0.2931836
0.2940305
0.2948751
8.396151
0.4178421
0.2929754
0.292217
0.2930134
0.2939619
0.2950292
8.326717
0.416239
0.2928463
0.2921366
0.2931055
0.2942312
0.2953156
8.255055
0.4162843
0.2927972
0.2922123
0.2932187
0.294265
0.2953498
8.166373
0.4147732
0.2927755
0.292174
0.2931641
0.2942746
0.2956029
7.986775
0.4131107
0.2929677
0.2921238
0.2931047
0.2943704
0.2956467
7.878358
0.4120144
0.2932063
0.2922185
0.2931595
0.2942999
0.2955655
7.810542
0.4111198
0.2934701
0.2924403
0.2932174
0.294211
0.2954869
7.749105
0.4096933
0.2936424
0.292668
0.2933539
0.2942962
0.2954304
7.678123
0.4063141
0.293686
0.2928323
0.2935239
0.2943701
0.2954178
7.53547
0.4030917
0.2937607
0.2929439
0.2936233
0.294434
0.2955262
7.439012
0.4014861
0.2937837
0.2930041
0.2936734
0.294476
0.295536
7.388639
0.4007073
0.2937965
0.2930424
0.2937118
0.2945571
0.2955078
7.344496
0.3993367
0.293785
0.2930696
0.2937658
0.2946028
0.2954955
7.300795
0.3980887
0.2937788
0.2930883
0.2938182
0.2946032
0.2955103
7.237691
0.3969724
0.2937652
0.2931248
0.2938357
0.2946228
0.2955337
7.19073
0.3959154
0.2937454
0.2931357
0.2938354
0.2946401
0.2955495
7.154754
0.3950336
0.2937018
0.2931339
0.2938426
0.2946497
0.2955597
7.116392
0.3922558
0.2936142
0.2931354
0.2938491
0.2946562
0.2955682
7.077898
0.3900748
0.2936272
0.2931387
0.2938533
0.2946625
0.2955786
6.964901
0.3887682
0.2936301
0.2931403
0.2938569
0.2946688
0.2955901
6.889512
0.3875372
0.2936032
0.2931411
0.2938604
0.2946743
0.295599
6.860782
0.3871125
0.2935953
0.2931422
0.2938639
0.2946811
0.2956253
6.838694
0.386621
0.2935858
0.2931436
0.2938673
0.2946876
0.2956456
6.821431
0.3862008
0.2935783
0.293145
0.2938705
0.2946928
0.2956522
6.805169
0.3857971
0.2935716
0.2931464
0.2938735
0.2946985
0.295659
6.789678
0.3854158
0.2935654
0.2931476
0.293877
0.2947142
0.2956738
6.774919
0.385055
0.2935596
0.293149
0.2938804
0.2947267
0.2956918
6.760848
0.3847136
0.2935543
0.2931503
0.2938829
0.2947306
0.2956969
6.747501
0.3843902
0.2935492
0.2931514
0.2938859
0.2947342
0.2957009
6.734686
0.3840832
0.2935445
0.2931531
0.2938958
0.2947437
0.2957053
6.722538
0.3837931
0.2935401
0.2931545
0.2939038
0.2947555
0.2957097
6.710875
0.3835171
0.293536
0.2931553
0.2939056
0.2947583
0.2957129
6.69983
0.383257
0.2935319
0.2931562
0.2939071
0.2947603
0.2957158
6.689206
0.3830106
0.2935281
0.2931572
0.2939087
0.2947623
0.2957187
6.679072
0.3827778
0.2935236
0.2931625
0.2939142
0.2947645
0.2957216
6.669375
0.3825599
0.2935194
0.2931666
0.2939211
0.2947669
0.2957242
6.660084
0.3823572
0.293516
0.2931669
0.2939221
0.2947685
0.2957267
6.651186
0.3821716
0.2935126
0.2931668
0.2939228
0.2947701
0.2957292
6.642682
0.3820043
0.2935093
0.2931665
0.2939234
0.2947718
0.2957318
6.634488
0.381859
0.2935063
0.2931663
0.2939243
0.2947737
0.2957348
6.626655
0.381742
0.2935038
0.2931662
0.2939255
0.2947761
0.2957383
6.619131
0.3816665
0.2935031
0.2931666
0.2939274
0.2947795
0.2957426
6.611848
0.3815903
0.293491
0.2931704
0.2939312
0.2947844
0.2957489
6.604802
0.3815998
0.2934853
0.2931779
0.2939378
0.2947919
0.2957715
6.598133
0.3817679
0.2934962
0.2931869
0.293948
0.2948153
0.2957974
6.591679
0.3821165
0.2935206
0.2932033
0.2939758
0.2948434
0.2958253
6.585492
0.3829447
0.2935646
0.2932425
0.2940117
0.294875
0.295855
6.57947
0.3843424
0.2936138
0.2932975
0.2940539
0.2949089
0.2958853
6.495683
0.3850487
0.2937341
0.2933679
0.2941028
0.2949441
0.2959152
0.2970625
0.2985036
0.3004277
0.3022741
0.3055657
0.3108294
0.3230965
0.2970373
0.2984716
0.3003856
0.3022252
0.305505
0.3107484
0.3341536
0.2970089
0.2984383
0.3003451
0.3028593
0.3054519
0.3106634
0.3338809
0.2969792
0.2984044
0.3003016
0.3021253
0.3053854
0.3105785
0.3335406
0.2969499
0.2983702
0.3002601
0.3020701
0.3053245
0.310494
0.3331775
0.296921
0.2983359
0.3002173
0.3020187
0.3052646
0.3104104
0.3327508
0.2968933
0.2983022
0.3001751
0.3019693
0.3052479
0.3103283
0.3322971
0.2968683
0.2982692
0.3001334
0.3019211
0.3052325
0.3102471
0.3317441
0.2968612
0.298239
0.3000937
0.301872
0.3051848
0.3101726
0.3311604
0.2968559
0.2982308
0.300057
0.3018234
0.3051378
0.3100986
0.3304935
0.2968514
0.2982248
0.3000472
0.3017764
0.3050911
0.3100251
0.3298009
0.2968472
0.298219
0.3000396
0.3017661
0.3050443
0.3099515
0.32896
0.2968433
0.2982133
0.300032
0.301757
0.3050363
0.3098765
0.3281383
0.2968394
0.2982077
0.3000242
0.3017475
0.3050273
0.3098623
0.3274393
0.2968355
0.2982018
0.3000162
0.3017376
0.3050179
0.3098451
0.3267752
0.2968315
0.2981958
0.3000079
0.3017274
0.3050077
0.3098266
0.3258833
0.2968274
0.2981895
0.2999994
0.3017165
0.3049925
0.3098075
0.3253735
0.2968231
0.2981832
0.2999903
0.3017
0.3048498
0.3097871
0.3248217
0.2968187
0.2981768
0.2999809
0.301688
0.3048305
0.3097662
0.32435
0.2968139
0.2981702
0.2999712
0.3016755
0.3048149
0.3097441
0.3238452
0.296809
0.2981631
0.299961
0.3016625
0.3047987
0.3097212
0.3233474
0.2968037
0.2981557
0.2999503
0.3016487
0.3047816
0.3096972
0.3229853
0.2967981
0.2981477
0.2999381
0.3016376
0.3047603
0.3096725
0.3226645
0.2967906
0.2981393
0.2999277
0.3022625
0.3046324
0.3096346
0.3223751
0.296783
0.2981303
0.2999125
0.3016108
0.3045602
0.3096036
0.3221319
0.2967759
0.2981211
0.2999021
0.3015864
0.3045342
0.3095744
0.3218969
0.2967661
0.2981098
0.2998857
0.3015669
0.3045082
0.309539
0.3217012
0.2967375
0.2980964
0.2998781
0.3015474
0.3044717
0.3092517
0.3215168
0.2967161
0.297727
0.2993762
0.3015305
0.3044386
0.3091427
0.3213661
0.2967151
0.2977193
0.2993572
0.301504
0.3044077
0.3090997
0.3212462
0.2966656
0.2976838
0.2993406
0.3014811
0.3043753
0.3089057
0.3211268
0.2966314
0.2976214
0.2993222
0.3014563
0.3043393
0.3086798
0.3210158
0.2966188
0.2976001
0.2992927
0.3014305
0.3043019
0.3086256
0.3209058
0.2966031
0.2975751
0.2992349
0.3014058
0.3042665
0.308537
0.3194856
0.2965877
0.2975741
0.299204
0.3013932
0.3042684
0.3085068
0.3194936
0.2965934
0.297585
0.2991306
0.3014634
0.3043632
0.3084789
0.3160002
0.2966318
0.2976314
0.2992427
0.301523
0.3044546
0.3083859
0.3169895
0.2967001
0.2977412
0.2993918
0.3015969
0.3045504
0.3086476
0.3172365
0.296821
0.297922
0.2995774
0.3017052
0.3051356
0.309872
0.317002
0.296907
0.2981494
0.3000972
0.3029459
0.3063848
0.3111292
0.3179269
0.2973173
0.298831
0.3014503
0.3043692
0.3073671
0.3118073
0.3197604
0.2979649
0.2997129
0.3024752
0.3052427
0.3081454
0.3116527
0.3196643
0.2987396
0.300627
0.3030966
0.3056921
0.308648
0.3119925
0.3198641
0.2993609
0.3012533
0.3037323
0.3061112
0.3088907
0.3126218
0.320048
0.2997827
0.3019074
0.3039152
0.3064405
0.3090987
0.3128598
0.3198184
0.2998239
0.3018982
0.3042138
0.3063663
0.3091124
0.3120973
0.3193946
0.2997899
0.3020172
0.3041107
0.3063543
0.3083503
0.3117079
0.3172452
0.2995988
0.30158
0.3040429
0.3059428
0.3081558
0.3106392
0.3151756
0.299222
0.3011973
0.3036217
0.3057895
0.30754
0.3103176
0.3140379
0.2988765
0.3006919
0.3033194
0.3055488
0.3071459
0.3095978
0.3131319
0.2985492
0.3001586
0.3024959
0.3045666
0.3067094
0.3088326
0.3119938
0.2980895
0.2995787
0.3017875
0.3035643
0.3055802
0.3079128
0.3112984
0.2976872
0.2990139
0.3012011
0.3030528
0.3046526
0.3068644
0.3097485
0.2975818
0.2991276
0.3009721
0.3024752
0.3037772
0.3051386
0.3076136
0.2972835
0.2988376
0.3006487
0.3020338
0.3029671
0.3030466
0.3056708
0.2969675
0.2986432
0.3004613
0.3016014
0.3021884
0.3026847
0.2965802
0.2983095
0.2997189
0.3009181
0.3015951
0.3020628
0.2965785
0.2982289
0.2996632
0.3009039
0.3015885
0.3024411
0.2963765
0.2979113
0.2994029
0.3006708
0.3018289
0.3026778
0.304786
0.2961726
0.2974805
0.2992247
0.3008737
0.3022336
0.3041607
0.3072488
0.2962558
0.2974602
0.2990606
0.3008832
0.3025592
0.3046516
0.3077266
0.2962451
0.297478
0.2992814
0.3007918
0.3030409
0.3049033
0.3079899
0.2961066
0.2972163
0.2997957
0.3013891
0.3028184
0.3051833
0.3084769
0.2964592
0.2977141
0.2996857
0.3013691
0.3031648
0.305257
0.3085661
0.2966846
0.2977379
0.2999122
0.3015524
0.3032199
0.3050904
0.3095859
0.2968907
0.2981749
0.2999954
0.3017288
0.3033767
0.3057193
0.3105802
0.2970928
0.2982856
0.3001687
0.3018545
0.3037909
0.3063294
0.3122893
0.2971948
0.2986026
0.3003192
0.3020109
0.3041903
0.3072154
0.3130509
0.29718
0.2986118
0.3003293
0.3022654
0.3044319
0.3075592
0.3132048
0.2971003
0.2985795
0.3005453
0.3022164
0.3048774
0.3076175
0.3140847
0.2969356
0.2984282
0.3003026
0.3025552
0.3049121
0.3076383
0.3143522
0.2969169
0.2983516
0.3001962
0.3028044
0.3049876
0.3083427
0.3158717
0.2968409
0.2981921
0.2998234
0.302186
0.3048759
0.3089056
0.3158448
0.2967213
0.2979806
0.29953
0.3017041
0.3049488
0.3089547
0.314837
0.2966311
0.297789
0.2993129
0.3014273
0.3046061
0.3087676
0.3152506
0.2965841
0.2976654
0.2991695
0.3015055
0.3043765
0.3083578
0.3167102
0.2965708
0.2976112
0.2990801
0.3013501
0.3042722
0.3083577
0.3171941
0.2965832
0.2975981
0.299095
0.3013462
0.3042114
0.3084172
0.3194204
0.2966001
0.2975855
0.2992063
0.3013792
0.3042281
0.308474
0.3196852
0.2966142
0.2976254
0.2992712
0.3014066
0.3042664
0.3085667
0.319923
0.2966266
0.2976495
0.2992984
0.3014336
0.3043063
0.3086225
0.3207891
0.2966615
0.2976624
0.299325
0.3014599
0.3043444
0.3087041
0.3208956
0.296711
0.2977268
0.2993432
0.3014847
0.3043804
0.3090659
0.3210367
0.2967124
0.2977607
0.2993608
0.3015063
0.304413
0.3091036
0.3211758
0.2967343
0.2980925
0.2998727
0.3015407
0.3044447
0.3091498
0.3213233
0.2967634
0.2981062
0.299881
0.3015623
0.3044841
0.3094131
0.3215156
0.2967734
0.2981177
0.2998962
0.3015795
0.3045142
0.3095462
0.3217269
0.2967808
0.2981275
0.2999102
0.301596
0.304541
0.3095779
0.321949
0.2967886
0.2981368
0.2999235
0.301612
0.3045691
0.3096076
0.322204
0.2967963
0.2981455
0.2999359
0.3016276
0.3047111
0.3096464
0.3224842
0.2968021
0.2981536
0.2999477
0.3016425
0.3047686
0.3096772
0.3227787
0.2968076
0.2981614
0.2999588
0.3016565
0.3047865
0.3097024
0.323134
0.2968128
0.2981687
0.2999693
0.3016699
0.3048038
0.3097265
0.3235169
0.2968178
0.2981755
0.2999793
0.3016827
0.3048199
0.3097495
0.3239633
0.2968223
0.298182
0.2999888
0.3016949
0.3048354
0.3097717
0.3244847
0.2968267
0.2981885
0.299998
0.3017098
0.30491
0.309793
0.3250203
0.2968308
0.2981949
0.3000067
0.3017232
0.3050005
0.3098134
0.3255766
0.2968348
0.2982009
0.300015
0.3017339
0.305011
0.3098327
0.3261968
0.2968386
0.2982067
0.300023
0.3017442
0.305021
0.309851
0.326928
0.2968424
0.2982122
0.3000307
0.3017541
0.3050303
0.3098678
0.3275244
0.296846
0.2982176
0.3000382
0.3017638
0.3050393
0.3099127
0.3282939
0.2968498
0.2982232
0.3000455
0.3017732
0.3050666
0.3099865
0.3290721
0.2968538
0.2982288
0.3000551
0.3018019
0.3051129
0.3100603
0.3298612
0.2968583
0.2982363
0.3000914
0.3018504
0.3051598
0.3101343
0.3305709
0.2968646
0.2982658
0.3001305
0.3018994
0.3052069
0.3102087
0.3311852
0.2968883
0.298298
0.3001716
0.301949
0.3052523
0.3102865
0.33178
0.2969148
0.2983309
0.3002134
0.3019963
0.3052353
0.3103685
0.3323235
0.2969425
0.2983647
0.3002558
0.3020469
0.3052932
0.3104514
0.3327824
0.2969713
0.2983991
0.3002986
0.3020975
0.3053533
0.3105355
0.3331804
0.2970014
0.2984339
0.3003415
0.3021484
0.3054138
0.3106202
0.3335428
0.2970316
0.2984683
0.3003843
0.3021988
0.3054745
0.3107054
0.3338615
0.2970612
0.2985029
0.3004271
0.3022488
0.3055352
0.3107919
0.3314603
3.510948
3.888899
3.872524
3.870953
3.870918
3.870917
3.870917
3.870917
3.870917
3.870917
3.870917
3.870917
3.870917
3.870917
3.870917
3.870917
3.870917
3.870917
3.568952
3.900492
3.871339
3.870919
3.870914
3.870914
3.870914
3.870914
3.870914
3.870914
3.870914
3.870914
3.870914
3.870914
3.870914
3.870914
3.870914
3.870914
3.545938
3.882719
3.870953
3.870915
3.870915
3.870915
3.870915
3.870915
3.870915
3.870915
3.870915
3.870915
3.870915
3.870915
3.870915
3.870915
3.870915
3.870915
3.526337
3.881955
3.870925
3.870915
3.870915
3.870915
3.870915
3.870915
3.870915
3.870915
3.870915
3.870915
3.870915
3.870915
3.870915
3.870915
3.870915
3.870915
3.499761
3.882598
3.870925
3.870915
3.870915
3.870915
3.870915
3.870915
3.870915
3.870915
3.870915
3.870915
3.870915
3.870915
3.870915
3.870915
3.870915
3.870915
3.466608
3.883315
3.870926
3.870915
3.870915
3.870915
3.870915
3.870915
3.870915
3.870915
3.870915
3.870915
3.870915
3.870915
3.870915
3.870915
3.870915
3.870915
3.431904
3.884051
3.870928
3.870915
3.870915
3.870915
3.870915
3.870915
3.870915
3.870915
3.870915
3.870915
3.870915
3.870915
3.870915
3.870915
3.870915
3.870915
3.391091
3.884288
3.870928
3.870915
3.870915
3.870915
3.870915
3.870915
3.870915
3.870915
3.870915
3.870915
3.870915
3.870915
3.870915
3.870915
3.870915
3.870915
3.353576
3.884242
3.870928
3.870915
3.870915
3.870915
3.870915
3.870915
3.870915
3.870915
3.870915
3.870915
3.870915
3.870915
3.870915
3.870915
3.870915
3.870915
3.312272
3.884605
3.870928
3.870915
3.870915
3.870915
3.870915
3.870915
3.870915
3.870915
3.870915
3.870915
3.870915
3.870915
3.870915
3.870915
3.870915
3.870915
3.268198
3.884852
3.870928
3.870915
3.870916
3.870915
3.870915
3.870915
3.870915
3.870915
3.870915
3.870915
3.870915
3.870915
3.870915
3.870915
3.870915
3.870915
3.225133
3.885121
3.870929
3.870915
3.870916
3.870915
3.870915
3.870915
3.870915
3.870915
3.870915
3.870915
3.870915
3.870915
3.870915
3.870915
3.870915
3.870915
3.183416
3.885369
3.870931
3.870915
3.870916
3.870915
3.870915
3.870915
3.870915
3.870915
3.870915
3.870915
3.870915
3.870915
3.870915
3.870915
3.870915
3.870915
3.123427
3.886907
3.870966
3.870916
3.870916
3.870915
3.870915
3.870915
3.870915
3.870915
3.870915
3.870915
3.870915
3.870915
3.870915
3.870915
3.870915
3.870915
2.958367
3.890612
3.871285
3.870925
3.870916
3.870915
3.870915
3.870915
3.870915
3.870915
3.870915
3.870915
3.870915
3.870915
3.870915
3.870915
3.870915
3.870915
2.900257
3.890318
3.871645
3.871026
3.870918
3.870915
3.870915
3.870915
3.870915
3.870915
3.870915
3.870915
3.870915
3.870915
3.870915
3.870915
3.870915
3.870915
2.84046
3.887857
3.870832
3.871165
3.870946
3.870915
3.870915
3.870915
3.870915
3.870915
3.870915
3.870915
3.870915
3.870915
3.870915
3.870915
3.870915
3.870915
2.776445
3.88685
3.870667
3.870888
3.870988
3.870919
3.870915
3.870915
3.870915
3.870915
3.870915
3.870915
3.870915
3.870915
3.870915
3.870915
3.870915
3.870915
2.713034
3.887364
3.870882
3.87083
3.870909
3.870928
3.870915
3.870915
3.870915
3.870915
3.870915
3.870915
3.870915
3.870915
3.870915
3.870915
3.870915
3.870915
2.650076
3.887406
3.870929
3.870899
3.870895
3.87092
3.870917
3.870915
3.870915
3.870915
3.870915
3.870915
3.870915
3.870915
3.870915
3.870915
3.870915
3.870915
2.589137
3.887499
3.870932
3.870914
3.870912
3.870913
3.870918
3.870915
3.870915
3.870915
3.870915
3.870915
3.870915
3.870915
3.870915
3.870915
3.870915
3.870915
2.531078
3.887668
3.870931
3.870915
3.870916
3.870915
3.870915
3.870915
3.870915
3.870915
3.870915
3.870915
3.870915
3.870915
3.870915
3.870915
3.870915
3.870915
2.475428
3.887721
3.87093
3.870915
3.870917
3.870915
3.870915
3.870915
3.870915
3.870915
3.870915
3.870915
3.870915
3.870915
3.870915
3.870915
3.870915
3.870915
2.419553
3.887999
3.87093
3.870915
3.870918
3.870915
3.870915
3.870915
3.870915
3.870915
3.870915
3.870915
3.870915
3.870915
3.870915
3.870915
3.870915
3.870915
2.364257
3.888562
3.870929
3.870916
3.870921
3.870915
3.870915
3.870915
3.870915
3.870915
3.870915
3.870915
3.870915
3.870916
3.870918
3.870915
3.870915
3.870915
2.309019
3.888791
3.870929
3.870917
3.870925
3.870915
3.870915
3.870915
3.870916
3.870915
3.870915
3.870915
3.870915
3.870918
3.870928
3.870915
3.870915
3.870915
2.252321
3.889246
3.870929
3.87092
3.870934
3.870915
3.870916
3.870915
3.870917
3.870915
3.870915
3.870915
3.870915
3.870917
3.870917
3.870915
3.870915
3.870915
2.19583
3.889766
3.870929
3.870948
3.870974
3.870916
3.870917
3.870916
3.870918
3.870915
3.870915
3.870915
3.870915
3.870916
3.870915
3.870915
3.870915
3.870915
2.13985
3.890125
3.870937
3.87145
3.871479
3.870917
3.870919
3.870926
3.870922
3.870915
3.870915
3.870915
3.870915
3.870915
3.870915
3.870915
3.870915
3.870917
2.082529
3.890641
3.870997
3.877111
3.877216
3.870923
3.870926
3.871078
3.870971
3.870914
3.870915
3.870915
3.870915
3.870915
3.870915
3.870915
3.870915
3.870921
2.02408
3.89221
3.87108
3.888703
3.883192
3.870961
3.870941
3.8719
3.871398
3.870909
3.870915
3.870915
3.870916
3.870916
3.870915
3.870915
3.870915
3.870918
1.966857
3.898357
3.871675
3.873261
3.872674
3.871099
3.87096
3.870929
3.871144
3.870916
3.870915
3.870915
3.870922
3.870925
3.870915
3.870915
3.870917
3.87092
1.909941
3.922168
3.875638
3.889608
3.894868
3.872979
3.871004
3.871104
3.871057
3.870933
3.870915
3.870915
3.87092
3.870924
3.870915
3.870915
3.87093
3.870936
1.829182
3.933338
3.875643
3.919605
3.896698
3.888995
3.871103
3.8711
3.8711
3.871101
3.870916
3.870915
3.870927
3.870918
3.870915
3.870917
3.87093
3.870904
1.684306
3.901092
3.879313
3.868711
3.902771
3.881511
3.871484
3.87159
3.87197
3.871178
3.870921
3.870918
3.870935
3.870911
3.870915
3.870923
3.870974
3.870917
1.614781
3.994394
3.884041
3.887308
3.864607
3.873327
3.871908
3.871601
3.871832
3.871045
3.871012
3.870967
3.870982
3.870923
3.870916
3.870951
3.87105
3.870914
1.498536
4.05514
3.933636
3.923398
3.882491
3.875688
3.875301
3.873977
3.8733
3.872693
3.872093
3.871632
3.871311
3.87101
3.870944
3.87097
3.870908
3.870915
0.7528164
4.201536
3.97901
3.935592
3.891578
3.887601
3.884388
3.88162
3.880231
3.879733
3.877549
3.875014
3.87323
3.872063
3.871396
3.871109
3.870928
3.870915
0.07322931
4.15389
4.009729
3.914821
3.894549
3.897542
3.892406
3.889229
3.886438
3.886508
3.883443
3.880015
3.878707
3.876087
3.873554
3.871965
3.871188
3.870945
0.3750464
3.690201
4.079509
3.923079
3.904824
3.907273
3.899521
3.897903
3.892242
3.89246
3.888407
3.883803
3.882574
3.879324
3.875968
3.875108
3.872916
3.871498
0.4993867
4.012015
4.063563
3.924622
3.915774
3.91779
3.905493
3.903862
3.897014
3.897016
3.892395
3.887768
3.885261
3.881473
3.878845
3.876445
3.874521
3.873236
0.1540818
3.893812
4.002307
3.916675
3.921164
3.928026
3.910262
3.908301
3.900452
3.900056
3.894461
3.892448
3.886837
3.880472
3.880531
3.876744
3.87443
3.87313
0.3300725
3.919635
4.001194
3.924538
3.934751
3.913037
3.912565
3.910877
3.90267
3.901666
3.894825
3.893003
3.887995
3.885062
3.879766
3.875934
3.873199
3.874389
0.3581645
3.874681
3.985081
3.939909
3.935818
3.923069
3.913158
3.911465
3.903784
3.903037
3.897822
3.89311
3.885523
3.882683
3.877992
3.873761
3.875131
3.869779
0.3433412
3.893973
4.056727
4.026319
3.957399
3.922937
3.91321
3.910528
3.904494
3.904641
3.905347
3.89407
3.889263
3.881017
3.874905
3.876359
3.868518
3.870224
0.3401844
3.751769
4.220448
3.93557
3.935179
3.926567
3.911661
3.90815
3.901659
3.90107
3.895393
3.886811
3.886816
3.878261
3.876614
3.868996
3.870772
3.864164
0.3334966
3.532963
4.176405
3.999697
3.965023
3.945657
3.906887
3.90395
3.89854
3.898368
3.891182
3.895515
3.88537
3.880726
3.871333
3.871586
3.863221
3.863053
0.3682066
2.68908
4.190551
4.082159
3.959501
3.914686
3.901265
3.904733
3.905771
3.914965
3.888432
3.883066
3.888566
3.876261
3.873363
3.861958
3.860983
3.856747
0.3353913
1.415733
3.700206
4.139214
4.070812
3.903411
3.901643
3.925027
3.970335
3.932506
3.917864
3.881767
3.882319
3.884221
3.869986
3.859623
3.854518
3.852291
0.334585
0.8413265
3.085936
3.930905
3.977174
3.978688
3.957256
3.90408
3.890921
3.888532
3.857655
3.855069
3.851818
3.846964
0.3178239
1.026573
3.963697
3.935882
3.890971
3.852599
3.864354
3.851885
3.846
3.845581
0.3159635
3.903477
3.913548
3.867523
3.881176
3.850032
3.838888
3.836628
3.943917
3.891702
3.855526
3.844083
3.835707
3.832274
3.895288
3.848492
3.837575
3.833968
3.827749
3.841387
3.849602
3.833833
3.826768
3.823377
3.879627
3.838516
3.829848
3.823459
3.819818
3.928142
3.852263
3.827232
3.819563
3.815802
3.926243
3.854922
3.823493
3.817167
3.81261
3.839089
3.826629
3.827861
3.812392
3.809964
3.905989
3.849299
3.822346
3.820904
3.810496
3.810623
0.3165566
3.902103
3.861249
3.825965
3.813685
3.808713
3.805464
0.3178929
0.6721885
3.901322
3.85122
3.840392
3.819314
3.808507
3.808203
3.804998
0.3217941
0.6376282
2.718481
3.955229
3.904224
3.841413
3.840159
3.823238
3.815142
3.808742
3.802697
3.806961
0.3313656
0.768857
3.623083
4.072395
4.036802
3.908576
3.853928
3.853388
3.841581
3.83986
3.835921
3.823418
3.815429
3.822398
3.807647
3.807373
3.804976
3.807497
0.3771005
2.288439
4.126981
4.05893
3.908152
3.873135
3.846641
3.834014
3.837055
3.831833
3.821764
3.821649
3.815301
3.807252
3.808564
3.807368
3.805767
3.810571
0.3901891
2.867608
4.11925
4.00289
3.931284
3.875652
3.840151
3.828299
3.823561
3.819625
3.827233
3.811741
3.810879
3.808687
3.806033
3.804926
3.809707
3.813434
0.3007272
3.264226
4.112365
3.982829
3.857354
3.855486
3.832265
3.82612
3.821369
3.819048
3.825738
3.8098
3.812805
3.806371
3.809988
3.811856
3.812555
3.821198
0.2550656
3.557942
3.97115
3.992255
3.908072
3.835449
3.830392
3.824558
3.818333
3.815424
3.824693
3.812838
3.815349
3.811938
3.813358
3.813294
3.822769
3.826605
0.2244927
3.599385
3.857165
3.826313
3.874854
3.839026
3.828659
3.824714
3.817844
3.817622
3.815622
3.816044
3.815374
3.817371
3.814088
3.824146
3.828217
3.836752
0.2228422
3.633752
4.000974
3.846338
3.854346
3.843825
3.830191
3.827055
3.820374
3.821544
3.821437
3.821759
3.821642
3.826485
3.826788
3.832318
3.838824
3.846578
0.1731735
3.522505
4.032415
3.882203
3.842258
3.868172
3.836826
3.831378
3.825372
3.827519
3.827318
3.830148
3.829127
3.829202
3.837454
3.838727
3.84943
3.856046
0.5085148
3.29675
4.113422
3.889948
3.85371
3.847653
3.838833
3.837232
3.83232
3.835028
3.832562
3.838711
3.838733
3.841931
3.848367
3.853408
3.860761
3.867248
0.3150476
3.913534
3.945498
3.882362
3.85952
3.854861
3.846555
3.845141
3.841069
3.844136
3.841949
3.844547
3.84995
3.853017
3.85739
3.86493
3.869489
3.871123
0.4796159
3.927998
3.937928
3.870549
3.863832
3.859364
3.854362
3.851608
3.851135
3.854095
3.854852
3.857985
3.861313
3.86485
3.868771
3.871618
3.870848
3.870918
0.02193181
4.028774
4.002118
3.910558
3.870959
3.864715
3.86256
3.861222
3.862114
3.864229
3.865515
3.868448
3.870743
3.871306
3.870863
3.87117
3.870936
3.870916
1.217694
3.949868
3.876333
3.872435
3.872983
3.870654
3.869918
3.870639
3.872105
3.871281
3.871329
3.870951
3.871166
3.870958
3.870906
3.870956
3.870972
3.870916
1.41741
3.912373
3.872968
3.874874
3.88608
3.878054
3.870372
3.873264
3.874284
3.871788
3.870979
3.870923
3.870898
3.870943
3.870914
3.870917
3.871059
3.870919
1.543468
3.991036
3.876375
3.901529
3.915486
3.90464
3.871408
3.870887
3.870071
3.8714
3.870929
3.870918
3.870934
3.870928
3.870915
3.870914
3.87091
3.870931
1.620921
4.043795
3.873145
3.902072
3.892806
3.862784
3.870917
3.871208
3.870617
3.870918
3.870917
3.870916
3.870902
3.870925
3.870915
3.870915
3.870955
3.870927
1.852785
3.896166
3.872311
3.884202
3.868147
3.872732
3.870951
3.871175
3.871086
3.870916
3.870916
3.870915
3.870912
3.870935
3.870915
3.870915
3.870919
3.870919
1.914952
3.911612
3.871288
3.885174
3.878508
3.871394
3.870932
3.871783
3.871558
3.870978
3.870916
3.870915
3.870915
3.870926
3.870915
3.870915
3.870916
3.870905
1.978004
3.905834
3.87107
3.886303
3.878915
3.871395
3.870924
3.870776
3.870773
3.870901
3.870916
3.870915
3.870915
3.870916
3.870915
3.870915
3.870915
3.870922
2.040459
3.903009
3.871005
3.867662
3.868415
3.870802
3.870918
3.870965
3.870924
3.870921
3.870915
3.870915
3.870915
3.870915
3.870916
3.870915
3.870915
3.870915
2.102326
3.901299
3.871005
3.870579
3.870954
3.870905
3.870917
3.870919
3.870921
3.870916
3.870915
3.870915
3.870915
3.870918
3.870917
3.870915
3.870915
3.870915
2.161872
3.899928
3.870995
3.870922
3.870947
3.870916
3.870916
3.870916
3.870917
3.870915
3.870915
3.870915
3.870915
3.870917
3.870917
3.870915
3.870915
3.870915
2.222363
3.89875
3.870989
3.870917
3.870921
3.870915
3.870915
3.870915
3.870916
3.870915
3.870915
3.870915
3.870915
3.870917
3.870921
3.870915
3.870915
3.870915
2.281483
3.897476
3.870981
3.870916
3.870918
3.870915
3.870915
3.870915
3.870916
3.870915
3.870915
3.870915
3.870915
3.870915
3.870922
3.870915
3.870915
3.870915
2.338965
3.896195
3.870974
3.870915
3.870917
3.870915
3.870915
3.870915
3.870915
3.870915
3.870915
3.870915
3.870915
3.870915
3.870917
3.870915
3.870915
3.870915
2.396295
3.896127
3.870973
3.870915
3.870916
3.870915
3.870915
3.870915
3.870916
3.870915
3.870915
3.870915
3.870915
3.870915
3.870915
3.870915
3.870915
3.870915
2.454532
3.894966
3.870968
3.870915
3.870915
3.870915
3.870915
3.870915
3.870915
3.870915
3.870915
3.870915
3.870915
3.870915
3.870915
3.870915
3.870915
3.870915
2.511507
3.894501
3.870966
3.870915
3.870915
3.870916
3.870917
3.870916
3.870915
3.870915
3.870915
3.870915
3.870915
3.870915
3.870915
3.870915
3.870915
3.870915
2.569787
3.894293
3.870965
3.870916
3.870919
3.870926
3.870922
3.870916
3.870915
3.870915
3.870915
3.870915
3.870915
3.870915
3.870915
3.870915
3.870915
3.870915
2.628458
3.893844
3.870963
3.870926
3.870951
3.870946
3.870916
3.870915
3.870915
3.870915
3.870915
3.870915
3.870915
3.870915
3.870916
3.870915
3.870915
3.870915
2.690082
3.893192
3.870987
3.871012
3.871043
3.870912