/*--------------------------------*- C++ -*----------------------------------*\
| =========                 |                                                 |
| \\      /  F ield         | OpenFOAM: The Open Source CFD Toolbox           |
|  \\    /   O peration     | Version:  2206                                  |
|   \\  /    A nd           | Website:  www.openfoam.com                      |
|    \\/     M anipulation  |                                                 |
\*---------------------------------------------------------------------------*/
FoamFile
{
    version     2.0;
    format      ascii;
    arch        "LSB;label=32;scalar=64";
    class       volScalarField;
    location    "2.2";
    object      omega.b;
}
// * * * * * * * * * * * * * * * * * * * * * * * * * * * * * * * * * * * * * //

dimensions      [0 0 -1 0 0 0 0];

internalField   nonuniform List<scalar> 
13078
(
6.495683
0.4052337
0.2940406
0.2928631
0.2935309
0.2943601
0.2953254
6.57947
0.3902356
0.2932456
0.2927724
0.2934989
0.2943366
0.295303
6.585492
0.3847084
0.2930791
0.292701
0.2934534
0.2943039
0.2952748
6.591679
0.3825886
0.2929901
0.2926462
0.2934105
0.2942699
0.2952447
6.598133
0.3818559
0.2929405
0.2926175
0.2933753
0.2942379
0.2952151
6.604802
0.3814955
0.2929157
0.2925997
0.2933592
0.2942108
0.295187
6.611848
0.3813639
0.2929143
0.2925872
0.2933482
0.2942002
0.2951625
6.619131
0.3813583
0.2929226
0.2925808
0.2933418
0.2941931
0.2951545
6.626655
0.3813765
0.2929213
0.292579
0.2933383
0.2941882
0.2951489
6.634488
0.3814516
0.2929228
0.2925785
0.2933362
0.2941848
0.2951446
6.642682
0.3815642
0.2929252
0.2925786
0.2933349
0.2941823
0.295141
6.651186
0.3817041
0.292928
0.2925789
0.293334
0.2941803
0.2951379
6.660084
0.3818654
0.2929309
0.2925791
0.2933333
0.2941785
0.2951352
6.669375
0.3820452
0.2929339
0.292579
0.2933323
0.2941768
0.2951325
6.679072
0.3822407
0.2929377
0.2925751
0.2933255
0.2941745
0.2951299
6.689206
0.3824505
0.2929417
0.2925699
0.2933202
0.2941724
0.2951271
6.69983
0.3826729
0.2929449
0.292569
0.2933187
0.2941705
0.2951243
6.710875
0.3829073
0.2929483
0.2925683
0.2933173
0.2941684
0.2951213
6.722538
0.3831555
0.2929518
0.2925676
0.2933156
0.2941657
0.2951183
6.734686
0.3834154
0.2929554
0.2925663
0.2933077
0.2941542
0.2951141
6.747501
0.3836898
0.2929592
0.2925648
0.2932981
0.2941449
0.2951099
6.760848
0.3839776
0.2929633
0.2925638
0.2932953
0.2941415
0.2951061
6.774919
0.3842809
0.2929676
0.2925627
0.293293
0.2941378
0.2951011
6.789678
0.3846013
0.2929722
0.2925614
0.2932897
0.2941254
0.2950833
6.805169
0.3849406
0.2929774
0.2925602
0.2932863
0.2941099
0.2950688
6.821431
0.3853022
0.292983
0.292559
0.2932835
0.2941044
0.2950622
6.838694
0.3856821
0.2929894
0.2925577
0.2932805
0.2940995
0.2950559
6.860782
0.3861403
0.292998
0.2925566
0.2932772
0.294093
0.2950359
6.889512
0.3865391
0.2930053
0.2925556
0.2932738
0.2940864
0.2950096
6.964901
0.3877926
0.2930323
0.2925549
0.2932706
0.2940811
0.295001
7.077898
0.3890705
0.2930299
0.2925535
0.2932672
0.294075
0.2949897
7.116327
0.3912931
0.2930202
0.2925502
0.293263
0.2940691
0.2949796
7.153721
0.3941316
0.2931095
0.2925493
0.2932562
0.2940621
0.294971
7.186841
0.3951455
0.293157
0.2925504
0.293247
0.2940497
0.294958
7.221337
0.3961757
0.2931766
0.2925352
0.2932481
0.2940274
0.2949375
7.257501
0.3972546
0.2931973
0.2924901
0.2932082
0.2940118
0.2949171
7.2953
0.3983393
0.2932066
0.2924604
0.293135
0.2939913
0.2949079
7.335032
0.399451
0.293198
0.2924146
0.2930883
0.2939413
0.2949189
7.385165
0.4006501
0.2931829
0.2923606
0.2930331
0.2938614
0.2949545
7.498022
0.4031643
0.2931796
0.2922825
0.2929917
0.2938472
0.2949888
7.673721
0.4078702
0.293089
0.292192
0.2929104
0.2937855
0.2949226
7.748891
0.4127288
0.2930877
0.2920128
0.2927363
0.2937466
0.2952637
7.810542
0.4148977
0.2929508
0.2917592
0.2926171
0.2940091
0.2959068
7.878358
0.4165458
0.2926952
0.2915501
0.2928073
0.2945583
0.2964869
7.986775
0.4183769
0.2925053
0.291689
0.2932068
0.2950256
0.2969115
8.166373
0.4208853
0.2924989
0.2920637
0.2935945
0.2952972
0.2971644
8.255055
0.4239229
0.2928757
0.2924044
0.2938286
0.2954304
0.2971153
8.326852
0.424878
0.2931562
0.2926397
0.2939632
0.2953817
0.2969961
8.397617
0.4259978
0.2933281
0.2927104
0.2939575
0.2953886
0.2968302
8.469887
0.4271917
0.2933925
0.2927067
0.2939118
0.2951827
0.2965083
8.57814
0.4321611
0.293432
0.2926482
0.2937694
0.2949088
0.2961107
8.842284
0.4407181
0.2937522
0.2928717
0.2938573
0.2948132
0.2958588
8.949464
0.4444096
0.293821
0.2925731
0.2936178
0.2946901
0.2957148
9.000818
0.4455316
0.2936782
0.2923699
0.2934198
0.294495
0.2954549
9.029882
0.4464926
0.2935983
0.2922552
0.2932939
0.2943341
0.2952197
9.041653
0.4476857
0.2934856
0.2920612
0.2930724
0.294057
0.2949778
9.039987
0.4461372
0.2932054
0.2917774
0.2928004
0.2937881
0.2946377
9.027723
0.4435037
0.2931927
0.2918656
0.2928433
0.2937911
0.294611
8.998565
0.4415727
0.2931966
0.2918999
0.2928089
0.2937112
0.2944419
8.945706
0.4386734
0.2930195
0.2917546
0.2925726
0.2933936
0.2942217
8.837738
0.4336474
0.2926589
0.2916926
0.2925545
0.2934307
0.2942914
8.573813
0.4251965
0.2925642
0.2918525
0.2926879
0.2935005
0.2943076
8.467354
0.4195089
0.2924825
0.291698
0.2925246
0.2933559
0.2941888
8.396052
0.4171605
0.2923543
0.2915827
0.2923638
0.2932961
0.294347
8.326709
0.4156857
0.292239
0.2915123
0.2924642
0.2935747
0.2946407
8.255055
0.4158423
0.2922046
0.2915985
0.2925856
0.2936178
0.2946871
8.166373
0.4144109
0.2921935
0.2915709
0.2925444
0.2936399
0.2949501
7.986775
0.412778
0.2923931
0.2915326
0.2924984
0.2937476
0.2950069
7.878358
0.4117923
0.2926339
0.2916337
0.292566
0.2936907
0.29494
7.810542
0.4109674
0.2928985
0.2918562
0.2926309
0.2936155
0.2948777
7.749105
0.4095922
0.2930715
0.2920829
0.2927679
0.2937085
0.2948348
7.678123
0.406239
0.2931143
0.292246
0.2929373
0.2937828
0.2948285
7.53547
0.4030051
0.2931899
0.2923575
0.2930358
0.2938454
0.2949372
7.439012
0.4014318
0.2932135
0.2924175
0.2930851
0.2938866
0.2949461
7.388639
0.4006548
0.2932263
0.2924558
0.2931232
0.2939681
0.2949172
7.344496
0.3992682
0.2932144
0.292483
0.2931778
0.2940136
0.2949036
7.300795
0.3980008
0.2932077
0.2925017
0.2932305
0.2940135
0.2949185
7.237691
0.3968566
0.2931933
0.2925386
0.2932478
0.2940329
0.2949421
7.19073
0.3957811
0.2931728
0.2925494
0.2932471
0.2940502
0.2949578
7.154754
0.3948759
0.2931282
0.2925474
0.2932542
0.2940598
0.2949679
7.116392
0.392069
0.293039
0.2925486
0.2932607
0.2940662
0.2949763
7.077898
0.389863
0.2930516
0.2925519
0.2932649
0.2940724
0.2949866
6.964901
0.3885213
0.2930539
0.2925534
0.2932684
0.2940787
0.2949981
6.889512
0.3872816
0.2930263
0.2925542
0.2932719
0.2940842
0.2950069
6.860782
0.3868398
0.2930179
0.2925553
0.2932754
0.2940909
0.2950333
6.838694
0.3863332
0.2930079
0.2925566
0.2932788
0.2940974
0.2950535
6.821431
0.3858987
0.293
0.292558
0.293282
0.2941026
0.2950601
6.805169
0.3854822
0.2929929
0.2925594
0.293285
0.2941083
0.2950669
6.789678
0.3850893
0.2929864
0.2925606
0.2932885
0.294124
0.2950817
6.774919
0.3847182
0.2929802
0.292562
0.2932919
0.2941365
0.2950996
6.760848
0.3843677
0.2929746
0.2925633
0.2932943
0.2941403
0.2951047
6.747501
0.3840362
0.2929693
0.2925644
0.2932974
0.2941439
0.2951087
6.734686
0.3837219
0.2929644
0.292566
0.2933072
0.2941535
0.2951132
6.722538
0.3834254
0.2929598
0.2925674
0.2933151
0.2941652
0.2951176
6.710875
0.3831438
0.2929555
0.2925683
0.293317
0.294168
0.2951207
6.69983
0.3828787
0.2929513
0.2925691
0.2933185
0.29417
0.2951237
6.689206
0.3826278
0.2929473
0.2925701
0.29332
0.294172
0.2951266
6.679072
0.3823912
0.2929427
0.2925754
0.2933255
0.2941742
0.2951294
6.669375
0.3821698
0.2929384
0.2925795
0.2933324
0.2941766
0.295132
6.660084
0.3819641
0.2929349
0.2925797
0.2933335
0.2941782
0.2951346
6.651186
0.3817759
0.2929314
0.2925796
0.2933341
0.2941798
0.2951371
6.642682
0.3816063
0.2929281
0.2925794
0.2933348
0.2941815
0.2951397
6.634488
0.3814592
0.292925
0.2925791
0.2933356
0.2941834
0.2951427
6.626655
0.3813405
0.2929225
0.292579
0.2933368
0.2941858
0.2951461
6.619131
0.3812639
0.2929218
0.2925795
0.2933387
0.2941892
0.2951505
6.611848
0.3811867
0.2929096
0.2925832
0.2933425
0.2941941
0.2951568
6.604802
0.3811957
0.2929038
0.2925907
0.2933492
0.2942016
0.2951793
6.598133
0.381364
0.2929148
0.2925998
0.2933594
0.294225
0.2952052
6.591679
0.3817137
0.2929392
0.2926162
0.2933871
0.2942531
0.295233
6.585492
0.3825451
0.2929833
0.2926554
0.293423
0.2942846
0.2952627
6.57947
0.3839525
0.2930327
0.2927103
0.2934652
0.2943185
0.295293
6.495683
0.3846813
0.2931535
0.2927808
0.2935141
0.2943537
0.2953228
0.2964679
0.2979062
0.2998265
0.3016692
0.3049544
0.310208
0.3224283
0.2964428
0.2978742
0.2997845
0.3016204
0.3048938
0.3101272
0.333521
0.2964144
0.297841
0.299744
0.3022533
0.3048409
0.3100423
0.3332485
0.2963848
0.2978072
0.2997006
0.3015208
0.3047745
0.3099576
0.3329087
0.2963554
0.297773
0.2996592
0.3014656
0.3047136
0.3098733
0.3325446
0.2963267
0.2977388
0.2996165
0.3014143
0.3046538
0.3097898
0.332116
0.2962989
0.2977051
0.2995743
0.3013651
0.3046372
0.3097079
0.3316603
0.296274
0.2976721
0.2995327
0.3013169
0.3046218
0.3096269
0.3311049
0.2962668
0.297642
0.2994931
0.3012679
0.3045742
0.3095525
0.3305195
0.2962615
0.2976338
0.2994564
0.3012194
0.3045273
0.3094786
0.3298507
0.296257
0.2976278
0.2994466
0.3011724
0.3044807
0.3094052
0.329156
0.2962528
0.297622
0.299439
0.3011622
0.3044339
0.3093317
0.3283136
0.2962489
0.2976163
0.2994314
0.301153
0.3044259
0.3092568
0.3274907
0.2962451
0.2976107
0.2994236
0.3011435
0.304417
0.3092426
0.3267902
0.2962412
0.2976048
0.2994156
0.3011337
0.3044075
0.3092254
0.3261286
0.2962372
0.2975988
0.2994073
0.3011235
0.3043973
0.3092069
0.3252356
0.2962331
0.2975925
0.2993988
0.3011125
0.3043821
0.3091877
0.3247257
0.2962288
0.2975862
0.2993897
0.301096
0.3042396
0.3091672
0.324174
0.2962244
0.2975798
0.2993804
0.301084
0.3042203
0.3091463
0.3237022
0.2962196
0.2975732
0.2993706
0.3010716
0.3042047
0.3091242
0.3231976
0.2962147
0.2975661
0.2993604
0.3010585
0.3041884
0.3091012
0.3227001
0.2962093
0.2975587
0.2993497
0.3010447
0.3041714
0.3090772
0.322338
0.2962037
0.2975507
0.2993374
0.3010336
0.3041501
0.3090524
0.3220172
0.2961963
0.2975423
0.299327
0.3016572
0.3040223
0.3090144
0.3217278
0.2961887
0.2975333
0.2993118
0.3010067
0.3039501
0.3089833
0.3214846
0.2961815
0.297524
0.2993014
0.3009823
0.3039241
0.3089539
0.3212497
0.2961718
0.2975127
0.299285
0.3009627
0.303898
0.3089184
0.3210539
0.2961431
0.2974992
0.2992775
0.3009432
0.3038615
0.3086314
0.3208696
0.2961217
0.2971306
0.2987763
0.3009264
0.3038284
0.3085224
0.3207189
0.2961211
0.2971229
0.2987574
0.3008998
0.3037973
0.3084792
0.3205989
0.2960716
0.2970876
0.2987408
0.3008768
0.3037648
0.3082851
0.3204798
0.2960372
0.297025
0.2987224
0.300852
0.3037287
0.3080596
0.3203685
0.2960248
0.2970042
0.2986926
0.3008261
0.3036912
0.3080053
0.3202582
0.2960092
0.296979
0.2986354
0.3008015
0.3036558
0.3079161
0.3188402
0.2959938
0.2969784
0.2986055
0.3007887
0.3036575
0.3078849
0.3188393
0.2959997
0.2969893
0.2985317
0.3008586
0.3037519
0.3078554
0.3153469
0.2960384
0.2970358
0.2986439
0.3009194
0.3038434
0.3077621
0.3163366
0.2961072
0.297146
0.2987939
0.3009937
0.303938
0.3080242
0.3165713
0.2962289
0.2973278
0.29898
0.301102
0.3045236
0.3092446
0.316347
0.2963168
0.2975575
0.2994998
0.302337
0.3057612
0.3104906
0.3172724
0.2967229
0.2982336
0.300839
0.3037458
0.306735
0.3111561
0.3190937
0.2973615
0.2990999
0.3018486
0.3046065
0.307503
0.3110003
0.3189997
0.2981211
0.3000022
0.3024567
0.3050442
0.3079951
0.311337
0.3191882
0.2987293
0.3006127
0.3030817
0.3054499
0.3082251
0.3119559
0.3193627
0.2991368
0.3012546
0.3032509
0.3057745
0.308421
0.312183
0.3191404
0.2991668
0.3012328
0.3035434
0.3056839
0.3084345
0.3114098
0.3187076
0.2991234
0.3013428
0.3034249
0.3056711
0.3076574
0.3110228
0.316553
0.2989252
0.300896
0.303357
0.3052492
0.3074662
0.3099431
0.3144957
0.2985377
0.3005129
0.3029266
0.3050885
0.3068436
0.3096241
0.3133494
0.2981882
0.2999934
0.302616
0.3048421
0.3064429
0.3089035
0.3124432
0.2978518
0.2994603
0.3017902
0.3038595
0.3060117
0.3081434
0.3113114
0.2973892
0.2988742
0.3010825
0.3028666
0.3048856
0.3072239
0.3106205
0.2969864
0.298306
0.300496
0.302349
0.3039592
0.3061861
0.3090734
0.296876
0.2984206
0.3002618
0.3017694
0.3030812
0.3044585
0.3069572
0.2965746
0.2981263
0.2999358
0.3013271
0.3022738
0.3023681
0.3049999
0.2962582
0.2979303
0.299749
0.3008964
0.3014964
0.3020091
0.2958697
0.2975954
0.2990069
0.3002131
0.3009029
0.3013877
0.2958672
0.2975142
0.2989476
0.3001956
0.300894
0.3017629
0.2956669
0.2971977
0.2986916
0.299962
0.3011328
0.3019986
0.3041227
0.2954668
0.296768
0.298511
0.3001657
0.3015349
0.3034751
0.3065796
0.2955503
0.2967482
0.2983518
0.3001744
0.301859
0.3039624
0.307047
0.2955427
0.2967701
0.2985699
0.3000789
0.3023312
0.3042049
0.3073001
0.2954101
0.2965109
0.2990814
0.3006751
0.3021079
0.3044751
0.3077775
0.2957657
0.2970119
0.2989776
0.3006556
0.3024542
0.3045488
0.3078652
0.2959986
0.2970427
0.2992045
0.3008449
0.3025081
0.3043853
0.3088813
0.2962112
0.2974839
0.299299
0.3010167
0.3026721
0.3050084
0.3098729
0.2964244
0.2976057
0.2994775
0.3011598
0.3030805
0.3056287
0.3115824
0.2965406
0.297931
0.2996404
0.3013218
0.3034982
0.3065079
0.3123442
0.2965393
0.2979559
0.2996625
0.3015886
0.3037459
0.3068688
0.3124912
0.2964771
0.2979391
0.2998894
0.3015532
0.3041991
0.3069378
0.313383
0.2963275
0.2978054
0.299665
0.3019024
0.3042504
0.3069691
0.3136514
0.2963227
0.2977451
0.2995761
0.302166
0.30434
0.3076754
0.3151945
0.2962504
0.2975983
0.2992178
0.3015654
0.304243
0.3082525
0.3151704
0.2961287
0.2973881
0.298933
0.301099
0.3043278
0.308312
0.3141631
0.2960376
0.2971955
0.2987151
0.3008228
0.3039945
0.3081415
0.314591
0.2959905
0.2970712
0.298571
0.3009029
0.3037653
0.3077348
0.3160558
0.295977
0.2970167
0.2984814
0.3007464
0.3036612
0.3077347
0.3165491
0.2959893
0.2970034
0.2984958
0.3007413
0.3036007
0.3077957
0.3187666
0.2960062
0.2969905
0.2986074
0.3007749
0.3036174
0.3078534
0.3190404
0.2960202
0.2970305
0.2986713
0.3008023
0.3036559
0.3079467
0.3192828
0.2960324
0.2970544
0.2986985
0.3008293
0.3036958
0.3080023
0.3201449
0.2960675
0.2970668
0.2987252
0.3008557
0.3037339
0.308084
0.3202506
0.296117
0.297131
0.2987434
0.3008805
0.30377
0.3084459
0.3203908
0.296118
0.2971652
0.2987611
0.3009021
0.3038028
0.3084834
0.3205293
0.29614
0.2974954
0.2992721
0.3009367
0.3038345
0.3085297
0.3206767
0.296169
0.2975091
0.2992803
0.3009584
0.303874
0.3087927
0.3208687
0.296179
0.2975207
0.2992956
0.3009755
0.3039041
0.3089258
0.32108
0.2961865
0.2975305
0.2993096
0.300992
0.303931
0.3089576
0.321302
0.2961943
0.2975398
0.2993229
0.301008
0.3039591
0.3089874
0.3215571
0.296202
0.2975485
0.2993353
0.3010237
0.3041009
0.3090262
0.3218374
0.2962078
0.2975566
0.2993471
0.3010385
0.3041583
0.3090571
0.3221321
0.2962133
0.2975644
0.2993582
0.3010525
0.3041763
0.3090824
0.3224875
0.2962185
0.2975717
0.2993687
0.301066
0.3041936
0.3091066
0.3228707
0.2962234
0.2975785
0.2993788
0.3010787
0.3042098
0.3091296
0.3233172
0.296228
0.2975851
0.2993882
0.3010909
0.3042252
0.3091518
0.3238384
0.2962323
0.2975915
0.2993974
0.3011059
0.3042998
0.3091732
0.324374
0.2962365
0.2975979
0.2994061
0.3011192
0.3043901
0.3091936
0.3249305
0.2962405
0.2976039
0.2994144
0.3011299
0.3044006
0.3092129
0.3255512
0.2962443
0.2976097
0.2994224
0.3011403
0.3044106
0.3092313
0.3262812
0.296248
0.2976152
0.2994302
0.3011502
0.3044199
0.3092481
0.3268773
0.2962517
0.2976206
0.2994376
0.3011599
0.304429
0.309293
0.3276476
0.2962555
0.2976262
0.2994449
0.3011693
0.3044562
0.3093666
0.3284268
0.2962595
0.2976318
0.2994545
0.3011979
0.3045025
0.3094403
0.3292172
0.296264
0.2976393
0.2994908
0.3012463
0.3045492
0.3095142
0.3299288
0.2962702
0.2976687
0.2995298
0.3012952
0.3045963
0.3095885
0.3305448
0.2962939
0.2977009
0.2995708
0.3013448
0.3046416
0.3096661
0.3311411
0.2963204
0.2977338
0.2996125
0.301392
0.3046246
0.309748
0.3316863
0.296348
0.2977675
0.2996548
0.3014425
0.3046824
0.3098307
0.3321468
0.2963768
0.2978018
0.2996976
0.301493
0.3047424
0.3099147
0.3325458
0.2964069
0.2978365
0.2997405
0.3015438
0.3048028
0.3099992
0.3329082
0.296437
0.2978709
0.2997832
0.3015941
0.3048634
0.3100843
0.3332259
0.2964666
0.2979055
0.2998259
0.301644
0.304924
0.3101706
0.3308054
3.508772
3.882413
3.867554
3.866035
3.866
3.866
3.866
3.866
3.866
3.866
3.866
3.866
3.866
3.866
3.866
3.866
3.866
3.866
3.562993
3.895936
3.866436
3.866002
3.865996
3.865996
3.865996
3.865996
3.865996
3.865996
3.865996
3.865996
3.865996
3.865996
3.865996
3.865996
3.865996
3.865996
3.540239
3.877955
3.866038
3.865997
3.865997
3.865997
3.865997
3.865997
3.865997
3.865997
3.865997
3.865997
3.865997
3.865997
3.865997
3.865997
3.865997
3.865997
3.52051
3.877074
3.866007
3.865997
3.865997
3.865997
3.865997
3.865997
3.865997
3.865997
3.865997
3.865997
3.865997
3.865997
3.865997
3.865997
3.865997
3.865997
3.493868
3.877718
3.866008
3.865997
3.865997
3.865997
3.865997
3.865997
3.865997
3.865997
3.865997
3.865997
3.865997
3.865997
3.865997
3.865997
3.865997
3.865997
3.460702
3.87844
3.866009
3.865997
3.865997
3.865997
3.865997
3.865997
3.865997
3.865997
3.865997
3.865997
3.865997
3.865997
3.865997
3.865997
3.865997
3.865997
3.425992
3.879173
3.86601
3.865997
3.865998
3.865997
3.865997
3.865997
3.865997
3.865997
3.865997
3.865997
3.865997
3.865997
3.865997
3.865997
3.865997
3.865997
3.385199
3.879398
3.86601
3.865997
3.865998
3.865997
3.865997
3.865997
3.865997
3.865997
3.865997
3.865997
3.865997
3.865997
3.865997
3.865997
3.865997
3.865997
3.347702
3.87935
3.86601
3.865997
3.865998
3.865997
3.865997
3.865997
3.865997
3.865997
3.865997
3.865997
3.865997
3.865997
3.865997
3.865997
3.865997
3.865997
3.306413
3.879722
3.86601
3.865997
3.865998
3.865997
3.865997
3.865997
3.865997
3.865997
3.865997
3.865997
3.865997
3.865997
3.865997
3.865997
3.865997
3.865997
3.262351
3.879968
3.866011
3.865997
3.865998
3.865997
3.865997
3.865997
3.865997
3.865997
3.865997
3.865997
3.865997
3.865997
3.865997
3.865997
3.865997
3.865997
3.219325
3.880238
3.866011
3.865997
3.865998
3.865997
3.865997
3.865997
3.865997
3.865997
3.865997
3.865997
3.865997
3.865997
3.865997
3.865997
3.865997
3.865997
3.177646
3.880485
3.866014
3.865998
3.865998
3.865997
3.865997
3.865997
3.865997
3.865997
3.865997
3.865997
3.865997
3.865997
3.865997
3.865997
3.865997
3.865997
3.117627
3.882065
3.866051
3.865998
3.865998
3.865997
3.865997
3.865997
3.865997
3.865997
3.865997
3.865997
3.865997
3.865997
3.865997
3.865997
3.865997
3.865997
2.95308
3.885816
3.866378
3.866008
3.865998
3.865998
3.865997
3.865997
3.865997
3.865997
3.865997
3.865997
3.865997
3.865997
3.865997
3.865997
3.865997
3.865997
2.894978
3.88524
3.866716
3.866112
3.866001
3.865998
3.865997
3.865997
3.865997
3.865997
3.865997
3.865997
3.865997
3.865997
3.865998
3.865997
3.865997
3.865997
2.83524
3.883115
3.865917
3.866244
3.866029
3.865998
3.865997
3.865997
3.865997
3.865997
3.865997
3.865997
3.865997
3.865997
3.865998
3.865997
3.865997
3.865997
2.771322
3.882022
3.865748
3.865971
3.866069
3.866001
3.865997
3.865997
3.865997
3.865997
3.865997
3.865997
3.865997
3.865997
3.865998
3.865998
3.865997
3.865997
2.707998
3.882561
3.865962
3.865912
3.865992
3.86601
3.865998
3.865997
3.865997
3.865997
3.865997
3.865997
3.865997
3.865997
3.865998
3.865997
3.865997
3.865997
2.645126
3.882621
3.866012
3.865981
3.865978
3.866003
3.865999
3.865997
3.865997
3.865997
3.865997
3.865997
3.865997
3.865997
3.865997
3.865997
3.865997
3.865997
2.584273
3.882744
3.866014
3.865996
3.865994
3.865995
3.866
3.865998
3.865998
3.865997
3.865997
3.865997
3.865997
3.865997
3.865997
3.865997
3.865997
3.865997
2.526279
3.882925
3.866014
3.865997
3.865998
3.865997
3.865998
3.865998
3.865998
3.865997
3.865997
3.865997
3.865997
3.865997
3.865997
3.865997
3.865997
3.865997
2.470686
3.883016
3.866013
3.865998
3.865999
3.865997
3.865997
3.865997
3.865998
3.865997
3.865997
3.865997
3.865997
3.865997
3.865997
3.865997
3.865997
3.865997
2.414861
3.883319
3.866012
3.865998
3.866001
3.865997
3.865997
3.865997
3.865997
3.865997
3.865997
3.865997
3.865997
3.865997
3.865998
3.865997
3.865997
3.865997
2.359608
3.883903
3.866012
3.865998
3.866004
3.865997
3.865997
3.865997
3.865998
3.865997
3.865997
3.865997
3.865997
3.865998
3.866
3.865997
3.865997
3.865997
2.304405
3.884162
3.866011
3.866
3.866008
3.865997
3.865998
3.865998
3.865998
3.865997
3.865997
3.865997
3.865997
3.866001
3.866011
3.865997
3.865997
3.865997
2.247742
3.884644
3.866011
3.866003
3.866017
3.865998
3.865998
3.865998
3.865999
3.865997
3.865997
3.865997
3.865997
3.866
3.865999
3.865997
3.865997
3.865997
2.191274
3.885189
3.866012
3.866033
3.86606
3.865998
3.865999
3.865998
3.866
3.865997
3.865997
3.865997
3.865997
3.865998
3.865997
3.865997
3.865997
3.865998
2.135309
3.88557
3.866019
3.866566
3.866594
3.865999
3.866002
3.866009
3.866005
3.865998
3.865997
3.865997
3.865998
3.865997
3.865997
3.865997
3.865997
3.865999
2.077995
3.88612
3.866082
3.872428
3.872534
3.866005
3.866009
3.86617
3.866057
3.865997
3.865997
3.865997
3.865998
3.865997
3.865997
3.865997
3.865997
3.866004
2.019541
3.887747
3.866165
3.883826
3.878145
3.866043
3.866024
3.867004
3.866495
3.865991
3.865997
3.865997
3.865998
3.865999
3.865997
3.865997
3.865998
3.866
1.962307
3.89406
3.866803
3.868435
3.86797
3.866191
3.866044
3.865996
3.86621
3.865998
3.865997
3.865997
3.866005
3.866008
3.865997
3.865997
3.866
3.866002
1.905403
3.918153
3.87086
3.885141
3.890361
3.868164
3.866089
3.866191
3.866144
3.866016
3.865998
3.865997
3.866003
3.866007
3.865997
3.865998
3.866013
3.866019
1.82434
3.928514
3.87079
3.914766
3.891673
3.884471
3.866192
3.866188
3.86619
3.86619
3.865999
3.865998
3.86601
3.866001
3.865997
3.865999
3.866013
3.865987
1.679905
3.897487
3.874379
3.863385
3.897816
3.875995
3.866581
3.866677
3.867078
3.866256
3.866003
3.866001
3.866017
3.865993
3.865997
3.866006
3.866057
3.865999
1.610249
3.990762
3.879536
3.88297
3.859813
3.868579
3.867007
3.866686
3.866894
3.866139
3.866101
3.866053
3.866067
3.866006
3.865998
3.866035
3.866135
3.865996
1.493889
4.051504
3.930194
3.919302
3.877703
3.870907
3.870504
3.869156
3.868461
3.867837
3.867219
3.866744
3.866409
3.866099
3.866028
3.866053
3.865991
3.865997
0.749329
4.199494
3.973707
3.930345
3.886737
3.882872
3.879658
3.876906
3.875503
3.874992
3.872778
3.8702
3.868375
3.867184
3.866501
3.866199
3.866012
3.865997
0.06965047
4.14799
4.006587
3.910516
3.88969
3.892836
3.88773
3.884667
3.881822
3.881858
3.878783
3.875295
3.873972
3.87129
3.86869
3.867078
3.866285
3.86603
0.37079
3.680402
4.075042
3.917496
3.900094
3.90262
3.894896
3.893297
3.887746
3.887899
3.883863
3.879299
3.877966
3.874677
3.87125
3.870287
3.868037
3.866602
0.4970259
4.012863
4.057941
3.919833
3.911044
3.91321
3.900906
3.8993
3.892605
3.892531
3.887968
3.883409
3.880787
3.876953
3.874318
3.871773
3.869748
3.868367
0.1541297
3.890576
3.997609
3.91182
3.916461
3.923219
3.905687
3.903779
3.896102
3.895644
3.890125
3.888088
3.882508
3.876155
3.876087
3.87224
3.869836
3.868414
0.3301818
3.915449
3.99537
3.919804
3.930114
3.908354
3.907994
3.906368
3.898367
3.89733
3.89055
3.888736
3.883796
3.88094
3.875471
3.8716
3.868785
3.869846
0.3589625
3.871303
3.980027
3.935623
3.930876
3.918369
3.908529
3.906956
3.899501
3.898827
3.893758
3.888986
3.88139
3.878445
3.873842
3.869587
3.870893
3.865388
0.3442525
3.8932
4.051158
4.021554
3.952892
3.918196
3.908602
3.90602
3.900209
3.900441
3.90131
3.89003
3.88543
3.876976
3.870878
3.872375
3.864361
3.866013
0.3407212
3.752129
4.215571
3.930082
3.930233
3.921707
3.907047
3.903633
3.897328
3.896779
3.891171
3.882759
3.882664
3.87432
3.872804
3.864978
3.866814
3.860075
0.3329758
3.536326
4.170507
3.993785
3.960162
3.941249
3.902204
3.899431
3.894158
3.894478
3.886867
3.891835
3.881441
3.876933
3.867419
3.867763
3.859274
3.859116
0.3671215
2.70021
4.186657
4.077287
3.955198
3.909427
3.896556
3.900401
3.901656
3.91081
3.884585
3.878782
3.884893
3.872407
3.869579
3.858154
3.857205
3.852873
0.3345883
1.421447
3.695299
4.134267
4.064724
3.898037
3.897035
3.921479
3.967118
3.928985
3.914424
3.87805
3.878446
3.880081
3.866412
3.855748
3.850987
3.848575
0.3338453
0.8447882
3.084337
3.927478
3.972212
3.973272
3.952778
3.900879
3.886223
3.885282
3.853871
3.851282
3.847931
3.843327
0.3172592
1.026604
3.959777
3.931535
3.887227
3.848462
3.860364
3.848447
3.842425
3.841841
0.3153076
3.899374
3.910191
3.863141
3.878271
3.846279
3.835142
3.833001
3.940427
3.888434
3.850889
3.840368
3.832092
3.828723
3.890981
3.84487
3.833669
3.830275
3.824108
3.836195
3.845261
3.82997
3.823044
3.819783
3.875665
3.834884
3.82606
3.819741
3.816169
3.926019
3.849014
3.823385
3.815841
3.812132
3.920188
3.850559
3.819839
3.813452
3.808968
3.836059
3.82282
3.824225
3.808544
3.806303
3.903293
3.844498
3.818037
3.816991
3.806689
3.80676
0.3159607
3.897425
3.857753
3.821979
3.809819
3.805063
3.801747
0.3171471
0.6700675
3.896391
3.847034
3.83626
3.815508
3.804561
3.804275
3.801198
0.3212642
0.6395661
2.716109
3.949331
3.898628
3.837765
3.835808
3.818892
3.811185
3.804713
3.798875
3.803029
0.3305454
0.7722056
3.625168
4.068304
4.031628
3.90351
3.848794
3.848205
3.836201
3.835094
3.831358
3.818841
3.811301
3.818231
3.803329
3.803387
3.800935
3.803623
0.3760438
2.297573
4.124653
4.052485
3.902609
3.867867
3.841618
3.82909
3.832206
3.826797
3.817128
3.817199
3.810643
3.803055
3.804586
3.803198
3.801868
3.806469
0.3889627
2.869505
4.114429
3.998003
3.926149
3.870067
3.834996
3.823229
3.818532
3.814716
3.822741
3.807172
3.806798
3.804344
3.801783
3.800935
3.805485
3.809463
0.3001757
3.260663
4.104826
3.976801
3.851882
3.850199
3.827057
3.821018
3.816412
3.814242
3.821299
3.805382
3.808352
3.801929
3.80575
3.807556
3.808508
3.816868
0.2546528
3.55433
3.965807
3.985687
3.90202
3.830062
3.825211
3.81944
3.813397
3.810714
3.819969
3.808289
3.810713
3.807648
3.808926
3.809129
3.818464
3.822435
0.2246135
3.59655
3.851589
3.821245
3.870125
3.833768
3.823477
3.819601
3.812916
3.812839
3.810806
3.811503
3.81099
3.812942
3.80983
3.819815
3.823874
3.832355
0.2226147
3.627337
3.995578
3.841128
3.848557
3.838707
3.825091
3.821963
3.815481
3.816726
3.816728
3.81716
3.817147
3.821925
3.822388
3.827803
3.834441
3.842065
0.1724237
3.51265
4.027272
3.877162
3.837027
3.862788
3.831758
3.826321
3.820513
3.822683
3.822515
3.825505
3.824577
3.82471
3.832942
3.834316
3.8449
3.851521
0.505605
3.291436
4.107749
3.884301
3.848429
3.842414
3.833809
3.832216
3.827493
3.830195
3.827927
3.833998
3.834124
3.83738
3.843763
3.848843
3.856106
3.862522
0.3116218
3.913866
3.938783
3.877696
3.854402
3.849696
3.841572
3.840176
3.836269
3.839318
3.837337
3.839861
3.845294
3.848379
3.852762
3.860243
3.86469
3.866207
0.4744421
3.919034
3.933079
3.865518
3.858772
3.854307
3.849435
3.846698
3.846367
3.849296
3.850125
3.853287
3.856612
3.860138
3.863998
3.866735
3.865923
3.866002
0.01733337
4.020364
3.996709
3.906092
3.866011
3.859757
3.857687
3.856431
3.857355
3.859433
3.860743
3.863639
3.865909
3.866413
3.865938
3.866256
3.866019
3.865999
1.214007
3.943726
3.871025
3.867185
3.868127
3.865783
3.865042
3.865823
3.867313
3.866405
3.866428
3.866032
3.866249
3.866042
3.865989
3.866041
3.866057
3.865999
1.412955
3.908106
3.868146
3.870083
3.881642
3.873517
3.865443
3.868344
3.86932
3.866901
3.866064
3.866006
3.86598
3.866026
3.865997
3.865999
3.866142
3.866001
1.538998
3.987576
3.871368
3.897241
3.910412
3.899865
3.866501
3.865962
3.865176
3.866457
3.866011
3.866
3.866017
3.866011
3.865997
3.865997
3.86599
3.866014
1.615911
4.03702
3.868285
3.89633
3.888166
3.857566
3.865998
3.866296
3.865686
3.866007
3.865999
3.865998
3.865984
3.866008
3.865997
3.865997
3.866038
3.86601
1.848209
3.891219
3.867324
3.879566
3.862671
3.867822
3.866034
3.866269
3.866175
3.865999
3.865999
3.865998
3.865994
3.866018
3.865997
3.865997
3.866002
3.866002
1.910383
3.907111
3.866387
3.880447
3.87382
3.866502
3.866014
3.866871
3.866638
3.866062
3.865999
3.865998
3.865997
3.866008
3.865998
3.865997
3.865998
3.865987
1.973451
3.901242
3.866154
3.881085
3.873834
3.866476
3.866007
3.865848
3.865857
3.865982
3.865998
3.865998
3.865997
3.865999
3.865998
3.865997
3.865997
3.866005
2.035921
3.898383
3.866088
3.86281
3.863503
3.865884
3.866
3.866048
3.866005
3.866003
3.865998
3.865997
3.865997
3.865998
3.865998
3.865997
3.865997
3.865997
2.097792
3.89667
3.866089
3.865637
3.866022
3.865987
3.865999
3.866002
3.866003
3.865998
3.865998
3.865997
3.865997
3.866001
3.866
3.865997
3.865997
3.865997
2.15734
3.895289
3.866079
3.866004
3.86603
3.865998
3.865998
3.865998
3.865999
3.865998
3.865997
3.865997
3.865997
3.865999
3.865999
3.865997
3.865997
3.865997
2.217821
3.8941
3.866072
3.865999
3.866003
3.865998
3.865998
3.865998
3.865999
3.865997
3.865997
3.865997
3.865997
3.865999
3.866003
3.865997
3.865997
3.865997
2.276924
3.892808
3.866064
3.865998
3.866
3.865997
3.865997
3.865998
3.865998
3.865997
3.865997
3.865997
3.865997
3.865998
3.866004
3.865997
3.865997
3.865997
2.334386
3.891545
3.866057
3.865998
3.865999
3.865997
3.865997
3.865997
3.865998
3.865998
3.865997
3.865997
3.865997
3.865997
3.866
3.865997
3.865997
3.865997
2.391696
3.891435
3.866056
3.865998
3.865998
3.865997
3.865997
3.865997
3.865998
3.865998
3.865997
3.865997
3.865997
3.865997
3.865998
3.865997
3.865997
3.865997
2.449897
3.890296
3.866051
3.865998
3.865998
3.865997
3.865998
3.865998
3.865998
3.865997
3.865997
3.865997
3.865997
3.865997
3.865997
3.865997
3.865997
3.865997
2.50684
3.88981
3.866049
3.865998
3.865998
3.865999
3.866
3.865999
3.865998
3.865997
3.865997
3.865997
3.865997
3.865997
3.865997
3.865997
3.865997
3.865997
2.565077
3.889593
3.866048
3.865998
3.866002
3.866008
3.866004
3.865998
3.865997
3.865997
3.865997
3.865997
3.865997
3.865997
3.865997
3.865997
3.865997
3.865997
2.623704
3.88913
3.866047
3.866009
3.866034
3.866029
3.865999
3.865997
3.865997
3.865997
3.865997
3.865997
3.865997
3.865997
3.865998
3.865998
3.865997
3.865997
2.685266
3.888479
3.866072
3.866097
3.866127
3.865994
3.865995
3.865997
3.865997
3.865997
3.865997
3.865997
3.865997
3.865997
3.865998
3.865997
3.865997
3.865997