/*--------------------------------*- C++ -*----------------------------------*\
| =========                 |                                                 |
| \\      /  F ield         | OpenFOAM: The Open Source CFD Toolbox           |
|  \\    /   O peration     | Version:  2206                                  |
|   \\  /    A nd           | Website:  www.openfoam.com                      |
|    \\/     M anipulation  |                                                 |
\*---------------------------------------------------------------------------*/
FoamFile
{
    version     2.0;
    format      ascii;
    arch        "LSB;label=32;scalar=64";
    class       volScalarField;
    location    "2.2";
    object      p_rbgh;
}
// * * * * * * * * * * * * * * * * * * * * * * * * * * * * * * * * * * * * * //

dimensions      [1 -1 -2 0 0 0 0];

internalField   nonuniform List<scalar> 
13078
(
37.58245
32.55984
26.93911
23.05526
19.90906
16.9052
13.91994
36.50031
31.31577
26.73281
23.24738
20.15174
17.1463
14.14226
31.65131
29.27891
26.44582
23.51212
20.58283
17.61988
14.59936
30.16536
28.7321
26.59034
24.05083
21.28114
18.35828
15.308
30.27418
29.15172
27.30987
24.96878
22.31378
19.39632
16.28917
31.2816
30.29745
28.60405
26.35798
23.71601
20.77174
17.56642
33.03575
32.10738
30.47858
28.26023
25.5613
22.50829
19.17354
35.49703
34.57417
32.95583
30.68786
27.87867
24.67487
21.13024
38.67336
37.71865
36.04634
33.67695
30.7124
27.30514
23.50669
42.59905
41.58376
39.8132
37.29095
34.11619
30.44871
26.33772
47.32771
46.22705
44.31882
41.59344
38.15138
34.16304
29.67525
52.92973
51.72045
49.63656
46.65749
42.88849
38.51407
33.57903
59.49173
58.15056
55.85262
52.56736
48.40837
43.57697
38.11718
67.11679
65.6193
63.06702
59.4211
54.80779
49.43732
43.36704
75.92561
74.24547
71.39698
67.36315
62.26283
56.19794
49.4166
86.05747
84.16627
80.97904
76.54617
70.80387
63.96199
56.3653
97.67206
95.53725
91.95513
86.98664
80.53785
72.85281
64.32609
110.9524
108.5377
104.5028
98.91519
91.66083
83.01648
73.42743
126.1071
123.3717
118.8193
112.525
104.3558
94.62781
83.81563
143.3733
140.2712
135.1291
128.0343
118.9173
108.0597
95.67136
163.0197
159.4994
153.6881
145.6964
135.6365
123.288
109.1657
185.3509
181.3532
174.7811
165.7582
154.423
140.4704
124.5103
210.7109
206.1694
198.7346
188.5439
175.7495
159.9982
141.9855
239.4878
234.3281
225.9176
214.4084
199.9752
182.4065
162.2824
272.1187
266.2575
256.7463
243.7552
227.5048
208.1746
185.2214
309.0935
302.4375
291.6869
277.0287
258.7037
236.9372
210.9823
350.9599
343.4073
331.2651
314.7397
294.0904
269.5579
240.2703
398.3292
389.7771
376.0698
357.4616
334.2213
306.6238
274.0957
451.8825
442.2132
426.7569
405.8367
379.7247
348.7811
313.2721
512.4186
501.6439
484.081
460.5803
431.2815
396.5288
356.6397
580.8576
568.6418
548.8502
522.5035
489.7032
450.7522
405.9824
657.7293
644.2295
622.4916
592.6168
555.9018
512.3913
462.4017
744.1452
729.665
705.7283
672.796
630.9632
582.4473
526.6529
841.0114
824.9984
799.6414
762.8269
716.0008
662.1054
600.0623
949.286
931.5655
903.8686
864.3395
814.0402
753.0317
684.1028
1069.889
1050.431
1020.462
979.6529
925.4492
859.1535
780.6458
1203.634
1182.458
1150.277
1106.927
1051.616
978.6765
891.5711
1351.197
1328.421
1294.306
1248.538
1190.31
1114.455
1023.13
1513.063
1488.997
1453.304
1405.755
1345.469
1270.593
1171.785
1689.825
1665.204
1627.865
1579.109
1517.489
1440.996
1341.113
1881.384
1856.824
1819.682
1769.166
1707.187
1630.831
1536.386
2085.731
2062.935
2027.347
1978.448
1914.963
1839.658
1745.147
2302.034
2279.919
2249.101
2204.001
2144.337
2066.074
1963.613
2528.369
2507.26
2479.406
2443.022
2388.591
2307.291
2184.324
2762.428
2743.31
2718.238
2687.211
2638.369
2548.566
2413.895
3000.053
2984.343
2966.142
2937.121
2879.172
2784.509
2640.12
3235.298
3224.522
3212.639
3181.678
3114.199
3004.678
2859.719
3464.203
3456.375
3445.033
3410.981
3335.372
3220.222
3062.804
3682.091
3675.838
3660.91
3618.348
3537.807
3416.855
3245.74
3884.022
3877.107
3856.081
3804.075
3713.692
3581.969
3404.725
4066.335
4058.811
4030.043
3966.855
3866.556
3723.449
3532.71
4223.76
4214.451
4180.341
4112.559
4005.214
3852.861
3646.516
4350.615
4338.139
4302.409
4231.445
4118.692
3957.574
3734.533
4444.984
4430.196
4391.076
4315.994
4197.349
4027.875
3797.768
4505.76
4490.32
4449.868
4372.554
4250.179
4074.807
3837.136
4532.281
4517.906
4478.73
4402.244
4279.765
4102.808
3861.468
4522.659
4510.28
4474.151
4400.787
4281.154
4106.731
3867.668
4477.037
4467.046
4435.215
4366.991
4252.898
4084.846
3853.712
4398.173
4391.065
4365.266
4304.88
4199.64
4041.818
3821.961
4287.252
4283.543
4264.42
4213.161
4118.526
3972.857
3763.006
4145.585
4144.353
4128.261
4083.673
3998.319
3864.095
3672.313
3975.392
3973.389
3960.743
3922.092
3846.976
3724.611
3549.973
3782.904
3778.536
3770.052
3742.152
3679.146
3570.342
3410.16
3573.925
3568.051
3560.707
3538.961
3486.256
3389.988
3236.54
3351.891
3343.287
3334.773
3315.363
3265.699
3176.418
3038.209
3121.61
3109.711
3097.503
3073.705
3027.092
2944.698
2821.43
2887.528
2870.845
2851.252
2823.927
2779.158
2709.793
2592.501
2653.402
2633.636
2607.347
2575.648
2531.946
2462.635
2355.634
2424.725
2403.225
2374.527
2337.31
2284.989
2214.289
2113.231
2205.025
2182.74
2151.58
2107.286
2049.243
1975.248
1881.339
1996.091
1973.411
1938.69
1891.27
1829.976
1754.78
1661.744
1799.504
1775.76
1739.96
1691.404
1630.014
1553.864
1459.916
1615.961
1592.442
1556.799
1508.932
1447.998
1372.419
1275.482
1446.87
1424.167
1390.109
1343.296
1283.717
1211.211
1116.322
1292.248
1270.852
1237.97
1193.404
1136.498
1063.712
976.5679
1151.47
1131.368
1100.334
1058.233
1003.607
934.5374
852.6249
1024.005
1005.453
976.5384
937.4153
884.9541
821.0464
747.8912
909.0428
892.2074
865.6341
827.9149
779.9823
721.907
656.6655
805.9418
790.6891
766.506
731.4563
686.9363
635.771
576.9997
713.7622
699.9788
677.1924
645.8788
606.1526
560.1404
507.3006
631.5281
618.6838
598.0158
569.6386
534.8011
493.5596
446.2278
558.3642
546.7479
527.9459
502.9393
471.8348
434.9304
392.5497
493.2064
482.9659
466.2921
444
416.2294
383.3141
345.5615
435.5497
426.3637
411.698
391.8634
367.1235
337.8249
304.2249
384.5188
376.3968
363.3965
345.7613
323.7496
297.626
266.8484
339.3543
332.1833
320.6716
305.0157
285.4638
262.2463
234.536
299.4092
293.0908
282.9014
269.0186
251.6717
231.075
206.5188
264.1032
258.5398
249.5274
237.2265
221.8466
203.5577
181.8416
232.9162
228.019
220.051
209.1555
195.4978
178.8751
159.8393
205.3833
201.0727
194.0301
184.3843
172.2789
157.3761
140.3377
181.0897
177.2949
171.0698
162.5302
151.8064
138.6059
123.5091
159.6673
156.3249
150.8205
143.2571
133.7398
122.0564
108.6966
140.7896
137.8436
132.9726
126.2576
117.6298
107.3565
95.63538
124.1683
121.5695
117.2564
111.2982
103.5652
94.35772
84.12645
109.5485
107.2534
103.4297
98.13951
91.27078
83.08634
74.00916
96.7058
94.67571
91.28032
86.5752
80.46741
73.18855
65.11338
85.44272
83.64342
80.62166
76.42276
70.98246
64.49957
57.30157
75.58606
73.98693
71.28591
67.46314
62.63043
56.88188
50.45297
66.98465
65.55912
63.13916
59.68351
55.31074
50.21956
44.46144
59.50652
58.23015
56.05247
52.93957
48.99734
44.41583
39.23358
53.03714
51.88754
49.91517
47.09467
43.52313
39.3741
34.68687
47.47827
46.43459
44.63285
42.05666
38.79729
35.01427
30.74885
42.74676
41.78877
40.12411
37.74648
34.7442
31.26603
27.35572
38.77387
37.88095
36.31955
34.09571
31.29806
28.06782
24.45148
35.505
34.65465
33.15981
31.04482
28.4017
25.36594
21.98732
32.90057
32.06552
30.58373
28.53389
26.00493
23.11383
19.93168
30.93981
30.08636
28.57958
26.52851
24.06628
21.28126
18.21967
29.62704
28.7057
27.11846
25.01648
22.56019
19.80521
16.82999
29.01216
27.941
26.18361
23.96143
21.42327
18.66258
15.72996
29.25121
27.86033
25.78295
23.30096
20.63112
17.82165
14.8995
31.04571
28.6893
25.86285
23.00171
20.14482
17.25788
14.3213
36.08686
30.82655
26.37393
22.96365
19.91003
16.94286
13.97997
10.91983
7.903678
4.884294
2.63314
-0.3406263
-3.232447
-5.92231
11.11176
8.058024
4.999203
2.668213
-0.3493462
-3.288842
-6.03267
11.52034
8.39828
5.254053
2.094907
-0.2768772
-3.306582
-6.128533
12.15693
8.937086
5.684999
3.118119
-0.1193651
-3.280176
-6.219319
13.03498
9.679104
6.264472
3.559311
0.1346399
-3.204834
-6.29853
14.17337
10.64346
7.02999
4.131265
0.4830393
-3.079486
-6.369581
15.59405
11.84787
7.991032
4.855038
0.8912229
-2.900751
-6.432005
17.33095
13.31394
9.163982
5.745937
1.404601
-2.663487
-6.484978
19.39889
15.0753
10.57072
6.825216
2.071274
-2.360968
-6.527481
21.87044
17.13909
12.24254
8.111335
2.873497
-1.984774
-6.554225
24.7809
19.58044
14.17528
9.631931
3.827242
-1.525714
-6.561862
28.18263
22.43435
16.44668
11.37728
4.956215
-0.9739128
-6.551592
32.13555
25.75181
19.09079
13.41919
6.24789
-0.3130561
-6.52256
36.70783
29.59071
22.15468
15.79292
7.765612
0.4235634
-6.46327
41.9766
34.0166
25.69148
18.54106
9.533371
1.307299
-6.411544
48.0294
39.10351
29.76085
21.71058
11.58152
2.348942
-6.294281
54.96539
44.93557
34.43029
25.35347
13.9557
3.557475
-6.164574
62.89733
51.60863
39.77932
29.55798
17.13233
4.955139
-5.99597
71.95308
59.23084
45.89267
34.34832
20.32582
6.564577
-5.784408
82.27901
67.92599
52.87107
39.81994
23.97052
8.414767
-5.525648
94.04127
77.83594
60.82927
46.06415
28.13485
10.53642
-5.213279
107.4302
89.12444
69.90114
53.1796
32.88591
12.96562
-4.838706
122.6641
101.9803
80.26305
61.23287
38.31672
15.74654
-4.391489
140.0191
116.6045
92.00749
66.50971
45.41884
18.98669
-3.860195
159.7432
133.2697
105.5711
81.17387
53.00488
22.64651
-3.234302
182.1355
152.1567
120.7266
93.21325
61.37243
26.83798
-2.498313
207.6744
173.6398
138.0629
106.9202
70.88537
31.65837
-1.636298
237.7089
198.0496
157.8335
122.5724
81.83804
38.78809
-0.6240768
271.9302
229.9867
186.0852
140.4746
94.38852
45.89579
0.5506393
309.7924
262.2671
212.6707
161.1609
108.7815
53.55245
1.925631
354.5699
301.2818
243.2313
184.8626
125.3378
63.8344
3.662443
406.3449
345.1905
278.3336
212.1869
144.523
76.94592
5.620138
464.0389
398.5356
319.12
243.872
166.8338
89.64479
7.902544
530.1226
456.4586
369.5306
280.8747
193.0327
104.9506
14.77273
606.3695
523.5367
428.5452
324.5308
224.1179
122.9759
18.62986
694.5376
601.3409
500.3467
376.7959
261.4839
144.7124
25.21983
796.7221
692.2154
579.9805
447.6536
307.0921
172.0324
37.40309
915.6199
798.6471
674.02
528.4885
366.6579
207.2878
49.80895
1053.777
923.4401
786.2535
631.5922
446.7023
255.7644
71.15354
1220.402
1069.636
919.4794
745.8222
540.9584
316.6179
108.1232
1408.564
1237.424
1068.008
870.2529
649.888
387.0489
144.5094
1613.17
1430.765
1235.57
1012.386
756.6253
471.8771
178.016
1815.558
1620.83
1414.389
1169.738
870.8828
558.945
213.6697
2018.818
1810.066
1588.81
1326.473
1006.105
650.881
271.4743
2235.612
2030.029
1795.81
1491.596
1145.608
735.5562
324.0018
2456.73
2238.919
1983.28
1666.53
1267.685
846.6477
381.2818
2664.518
2436.883
2159.479
1811.918
1413.879
948.5362
441.7609
2849.214
2620.321
2324.01
1969.114
1542.518
1058.846
531.4898
3024.866
2782.176
2478.708
2110.724
1668.308
1167.477
613.5664
3167.981
2915.005
2589.982
2219.22
1774.101
1267.214
713.9911
3288.864
3042.833
2687.908
2290.955
1838.09
1337.317
780.3371
3376.745
3115.368
2756.779
2334.23
1868.566
1346.135
781.3919
3451.988
3181.582
2790.433
2333.25
1831.024
1266.557
695.7122
3500.916
3219.239
2796.935
2302.266
1730.779
1105.34
456.5193
3526.638
3233.981
2784.827
2247.619
1605.89
848.8052
185.5597
3545.154
3242.57
2773.16
2202.866
1501.911
639.5799
3553.512
3253.306
2781.64
2204.229
1490.044
607.7077
3549.313
3260.949
2804.226
2248.932
1573.679
770.8766
3534.046
3262.254
2831.803
2311.126
1708.182
1031.712
388.8365
3490.625
3245.964
2838.374
2364.924
1815.72
1213.501
554.6045
3413.93
3189.295
2818.833
2373.72
1864.761
1313.263
723.5364
3318.198
3119.283
2773.518
2350.974
1860.082
1328.849
757.5513
3185.374
3006.061
2658.572
2270.363
1808.085
1286.076
723.6124
3027.31
2859.059
2555.699
2178.003
1723.843
1208.723
650.3358
2839.57
2706.511
2407.831
2045.612
1603.78
1101.462
561.7144
2641.259
2511.472
2239.772
1887.376
1478.731
1001.805
489.0058
2425.68
2319.408
2054.081
1726.468
1330.431
895.7475
403.6009
2197.7
2099.968
1859.307
1560.357
1194.614
784.447
350.2186
1971.919
1882.452
1662.09
1382.662
1062.737
696.2021
310.1584
1750.295
1669.376
1469.64
1227.711
933.5089
618.5353
264.1735
1538.555
1470.364
1291.01
1068.146
808.2231
523.1816
219.2238
1337.072
1272.171
1109.313
913.0116
695.5365
438.3495
175.7333
1159.319
1093.465
947.4195
779.6391
589.9267
356.4281
139.8553
1003.842
946.3085
811.9905
661.3682
483.0556
291.3616
103.7087
874.5688
820.2234
697.6651
561.0968
394.0851
234.8119
74.91537
762.8693
712.1404
601.2176
469.8338
329.9554
193.1478
54.92385
666.5278
619.5137
519.4446
400.2686
279.7586
161.5872
43.90272
583.1447
540.0475
448.3794
341.0476
239.7765
137.3624
31.26121
510.8473
471.6991
386.4142
295.4005
206.9181
117.9461
26.84331
448.0735
412.4706
332.8412
257.0397
179.4614
101.6661
21.30798
393.2023
358.9207
290.9244
224.309
156.2249
88.18817
16.33593
343.9158
313.9364
254.7886
196.1527
136.3112
76.56097
13.93513
301.2482
273.2817
223.5059
171.7644
119.106
63.60298
11.65285
265.1247
240.1526
196.2078
150.5054
104.1552
55.36709
9.785917
232.439
194.9566
156.9796
131.8199
91.09919
48.20683
8.139545
203.7102
171.5448
137.9427
115.6531
79.61668
40.68022
6.67496
179.2351
150.8924
121.1879
101.4729
69.6366
34.86943
5.369898
157.7392
132.6913
106.4326
89.0002
60.87933
30.26046
4.20834
138.7844
116.6515
93.43323
78.015
53.15285
26.19045
3.17105
122.0683
102.5142
81.97942
68.33618
45.51923
22.55462
2.24017
107.359
90.0531
71.88433
59.80959
39.44145
19.35618
1.405634
94.39328
79.06844
62.98458
52.29186
34.29078
16.54265
0.6564286
82.96638
69.38708
55.13946
45.6631
29.74325
14.0501
-0.01732607
72.90024
60.85745
48.22609
39.81952
25.72989
11.84132
-0.6253196
64.03916
53.34707
42.13685
34.6697
22.18802
9.884179
-1.175143
56.24574
46.73983
36.7769
30.11452
18.8859
8.150603
-1.672669
49.39989
40.93413
32.0665
26.12465
15.93205
6.613819
-2.123703
43.39566
35.83983
27.93071
22.62216
13.55635
5.255333
-2.528688
38.13983
31.37775
24.30576
19.5488
11.46839
4.057202
-2.903018
33.55018
27.47822
21.13525
16.85775
9.637419
3.007668
-3.237057
29.55428
24.07958
18.36906
14.50658
8.034255
2.072593
-3.556469
26.08815
21.12738
15.96284
12.45759
6.628367
1.236538
-3.846195
23.09554
18.57358
13.88602
10.66745
5.394087
0.5007601
-4.109215
20.52711
16.38655
12.06677
9.103203
4.317211
-0.1466014
-4.347531
18.35088
14.49671
10.50594
7.751565
3.380623
-0.7165009
-4.57031
16.49958
12.8942
9.171656
6.589993
2.571514
-1.217528
-4.777709
14.95612
11.54485
8.042213
5.603551
1.936309
-1.656931
-4.974194
13.68641
10.4272
7.1004
4.769269
1.329342
-2.040524
-5.159748
12.66982
9.524214
6.332336
4.079113
0.8181272
-2.372192
-5.333841
11.89017
8.822781
5.727449
3.523658
0.3978902
-2.655782
-5.495429
11.33491
8.313327
5.278084
3.095793
0.06315983
-2.896847
-5.655136
10.99464
7.989324
4.978977
2.790518
-0.1893715
-3.095778
-5.834909
-7.189157
-7.194764
-7.207673
-7.208127
-7.1971
-7.175616
-7.145032
-7.100038
-7.043405
-6.974204
-6.89254
-6.798698
-6.693048
-6.576032
-6.448097
-6.309801
-6.161865
-6.004829
-7.378243
-7.347282
-7.35181
-7.35005
-7.337494
-7.314892
-7.280608
-7.234892
-7.176839
-7.10589
-7.022191
-6.926058
-6.817881
-6.69812
-6.566984
-6.425218
-6.273918
-6.113377
-7.495747
-7.492727
-7.50235
-7.50187
-7.489411
-7.465562
-7.42947
-7.381613
-7.321904
-7.248985
-7.162962
-7.064181
-6.953061
-6.830087
-6.695241
-6.54945
-6.394206
-6.229562
-7.635122
-7.647189
-7.662153
-7.664121
-7.652487
-7.627947
-7.590655
-7.540583
-7.478934
-7.403797
-7.315142
-7.213332
-7.098827
-6.972143
-6.833045
-6.682651
-6.522856
-6.353487
-7.792091
-7.813016
-7.832589
-7.83737
-7.827062
-7.802415
-7.764544
-7.712127
-7.648307
-7.570717
-7.47908
-7.373825
-7.255457
-7.124538
-6.980801
-6.82501
-6.660009
-6.485258
-7.964808
-7.990817
-8.014649
-8.022392
-8.013764
-7.989332
-7.951917
-7.896753
-7.830659
-7.75022
-7.655188
-7.546024
-7.42328
-7.287561
-7.139423
-6.97674
-6.805819
-6.624996
-8.152353
-8.18163
-8.209593
-8.220352
-8.21344
-8.189035
-8.149174
-8.096318
-8.026723
-7.942811
-7.843918
-7.730346
-7.602668
-7.461538
-7.307578
-7.137985
-6.960453
-6.772817
-8.354966
-8.386444
-8.418389
-8.432235
-8.427175
-8.403104
-8.362386
-8.309568
-8.236758
-8.148964
-8.045782
-7.927262
-7.794039
-7.646832
-7.486301
-7.309022
-7.124093
-6.928848
-8.572226
-8.605726
-8.641938
-8.659045
-8.656048
-8.632619
-8.59159
-8.538156
-8.461082
-8.369359
-8.261384
-8.137256
-7.997866
-7.843861
-7.675974
-7.490102
-7.296922
-7.093205
-8.804547
-8.840473
-8.881179
-8.901774
-8.90104
-8.878434
-8.83773
-8.778998
-8.700366
-8.604977
-8.491383
-8.361123
-8.214744
-8.053085
-7.876958
-7.6815
-7.479127
-7.265999
-9.052883
-9.091677
-9.13705
-9.161453
-9.163179
-9.141314
-9.09995
-9.039298
-8.956897
-8.857049
-8.736715
-8.599482
-8.445243
-8.275001
-8.089656
-7.883498
-7.670901
-7.447337
-9.317262
-9.359595
-9.410642
-9.439289
-9.443711
-9.422548
-9.379981
-9.314999
-9.232816
-9.124198
-8.998123
-8.853027
-8.689988
-8.51013
-8.314488
-8.096383
-7.872424
-7.637297
-9.600532
-9.645851
-9.703557
-9.73672
-9.744117
-9.723733
-9.680021
-9.612879
-9.522658
-9.410377
-9.276523
-9.122614
-8.949681
-8.759055
-8.551899
-8.320446
-8.083867
-7.835941
-9.914606
-9.953128
-10.01714
-10.05536
-10.06608
-10.04652
-10.00141
-9.930942
-9.835135
-9.715538
-9.573054
-9.409167
-9.225096
-9.02239
-8.802355
-8.555978
-8.305382
-8.043292
-10.23974
-10.28062
-10.35308
-10.39718
-10.4116
-10.39272
-10.3458
-10.27122
-10.16913
-10.04125
-9.888905
-9.713699
-9.517067
-9.300789
-9.066337
-8.803256
-8.537091
-8.259329
-10.58617
-10.63376
-10.71347
-10.76428
-10.78268
-10.76433
-10.71512
-10.63565
-10.52626
-10.38894
-10.22538
-10.03731
-9.826487
-9.594936
-9.344331
-9.062537
-8.779071
-8.483974
-10.96706
-11.02234
-11.10135
-11.15882
-11.18161
-11.16363
-11.11155
-11.02632
-10.90841
-10.76026
-10.58387
-10.38118
-10.1543
-9.905546
-9.636822
-9.334037
-9.031344
-8.717066
-11.37598
-11.44023
-11.52958
-11.58459
-11.61102
-11.5932
-11.53761
-11.44551
-11.31764
-11.157
-10.96592
-10.74658
-10.5015
-10.23335
-9.944282
-9.617923
-9.293852
-8.958351
-11.81567
-11.89069
-11.99297
-12.05457
-12.07504
-12.05604
-11.99608
-11.8958
-11.75624
-11.58118
-11.3732
-11.13487
-10.86914
-10.57908
-10.26715
-9.914289
-9.566447
-9.207461
-12.28959
-12.37669
-12.49376
-12.56429
-12.58758
-12.55666
-12.49021
-12.3801
-12.22678
-12.03499
-11.80755
-11.5475
-11.25829
-10.94347
-10.6057
-10.22311
-9.848851
-9.463881
-12.80336
-12.90316
-13.03638
-13.11685
-13.14515
-13.10988
-13.02475
-12.90169
-12.73209
-12.52084
-12.27094
-11.98601
-11.67007
-11.32719
-10.95109
-10.54378
-10.14064
-9.726909
-13.36159
-13.47503
-13.62614
-13.71758
-13.75106
-13.71238
-13.61501
-13.46546
-13.27534
-13.04139
-12.7655
-12.45201
-12.10557
-11.73091
-11.31594
-10.87675
-10.44117
-9.995649
-13.96917
-14.0988
-14.26922
-14.3726
-14.41109
-14.36753
-14.25789
-14.08688
-13.8614
-13.59952
-13.29352
-12.94717
-12.56591
-12.15516
-11.70063
-11.22141
-10.74955
-10.26892
-14.6323
-14.78071
-14.9726
-15.08908
-15.13187
-15.08159
-14.95669
-14.76292
-14.50548
-14.19969
-13.85741
-13.4732
-13.05209
-12.60036
-12.10101
-11.57679
-11.06458
-10.54517
-15.35823
-15.52823
-15.74403
-15.87504
-15.92121
-15.86174
-15.71778
-15.49641
-15.20432
-14.85676
-14.46095
-14.03179
-13.56503
-13.0667
-12.51657
-11.94179
-11.38468
-10.82245
-16.15576
-16.35071
-16.5928
-16.73956
-16.78811
-16.71625
-16.54845
-16.29353
-15.95988
-15.56683
-15.11812
-14.62615
-14.10549
-13.55319
-12.93025
-12.31483
-11.70779
-11.09832
-17.03488
-17.25915
-17.53026
-17.69328
-17.74287
-17.65457
-17.45702
-17.16109
-16.77757
-16.33084
-15.82412
-15.26768
-14.67584
-14.06025
-13.35163
-12.69346
-12.03127
-11.36984
-18.00749
-18.26616
-18.56938
-18.74885
-18.79762
-18.68761
-18.45291
-18.10671
-17.66324
-17.15305
-16.57844
-15.9515
-15.28428
-14.58955
-13.79866
-13.07528
-12.35188
-11.63343
-19.08749
-19.38629
-19.72497
-19.9214
-19.96652
-19.82808
-19.54674
-19.13889
-18.62231
-18.03704
-17.38296
-16.67431
-15.92512
-15.14484
-14.25433
-13.45667
-12.66557
-11.88467
-20.29016
-20.63617
-21.01543
-21.22896
-21.266
-21.0906
-20.75064
-20.26705
-19.66415
-18.98954
-18.24194
-17.43816
-16.59443
-15.68249
-14.72038
-13.83449
-12.96718
-12.12124
-21.63265
-22.03652
-22.46205
-22.69354
-22.70789
-22.49217
-22.07849
-21.50134
-20.79376
-20.01242
-19.15505
-18.24085
-17.28864
-16.24826
-15.18964
-14.20907
-13.25624
-12.33844
-23.13743
-23.61477
-24.09005
-24.33681
-24.31972
-24.05302
-23.54604
-22.85374
-22.03333
-21.11007
-20.12371
-19.08127
-18.00443
-16.83186
-15.65144
-14.56927
-13.52489
-12.46876
-24.83352
-25.40056
-25.93105
-26.1928
-26.1413
-25.79588
-25.17078
-24.33621
-23.36649
-22.2854
-21.14744
-19.95612
-18.73262
-17.34912
-16.09592
-14.9017
-13.75597
-12.56772
-26.76995
-27.42767
-28.02359
-28.2899
-28.19614
-27.74773
-26.97235
-25.9603
-24.80677
-23.5401
-22.22392
-20.85997
-19.47084
-17.87979
-16.51177
-15.19459
-13.93413
-12.57027
-28.84974
-29.74853
-30.41938
-30.67701
-30.52087
-29.93842
-28.97199
-27.73904
-26.36742
-24.87399
-23.34824
-21.78434
-20.20398
-18.40735
-16.88536
-15.43392
-13.94892
-12.5595
-31.23477
-32.41996
-33.1803
-33.42571
-33.13647
-32.4027
-31.19239
-29.69284
-28.0803
-26.28516
-24.51242
-22.71771
-20.78758
-18.88203
-17.19865
-15.59721
-13.92483
-12.46874
-33.94949
-35.54074
-36.39689
-36.5993
-36.15069
-35.1809
-33.65709
-31.85362
-29.88686
-27.76281
-25.70349
-23.64292
-21.43692
-19.29631
-17.43023
-15.66573
-13.75193
-12.27287
-36.73648
-39.26227
-40.18154
-40.28088
-39.59704
-38.31312
-36.38885
-34.17465
-31.81013
-29.29669
-26.90359
-24.52787
-21.82885
-19.61703
-17.55362
-15.45038
-13.5261
-11.95248
-40.01461
-43.78582
-44.67584
-44.56117
-43.53716
-41.84003
-39.40948
-36.69008
-33.84618
-30.87237
-28.0924
-25.36304
-22.27652
-19.81273
-17.52788
-15.03751
-13.15504
-11.48387
-43.59795
-49.45952
-50.00405
-49.52305
-48.03311
-45.80303
-42.73808
-39.39943
-35.98177
-32.46509
-29.23922
-25.8911
-22.58464
-19.85027
-17.18237
-14.60501
-12.60338
-10.84161
-47.50574
-55.922
-56.1906
-55.2412
-53.14807
-50.24283
-46.38743
-42.29549
-38.19264
-34.03843
-30.30071
-26.37729
-22.71312
-19.67563
-16.5474
-13.95025
-11.83966
-9.998096
-53.86864
-63.72224
-63.38833
-61.81263
-58.9501
-55.18974
-50.36686
-45.36032
-40.44127
-35.54229
-31.20116
-26.32797
-22.60293
-19.02227
-15.61765
-13.04799
-10.83444
-8.918145
-62.16947
-72.8501
-71.73609
-69.35265
-65.50003
-60.43484
-54.67424
-48.56018
-42.67262
-36.90654
-31.88753
-26.31327
-22.17841
-18.08065
-14.53478
-11.84384
-9.537631
-7.395179
-73.14224
-83.75179
-81.52556
-77.984
-72.90505
-66.45115
-59.29453
-51.84198
-44.80782
-38.0388
-31.66633
-25.8886
-21.30471
-16.42308
-13.08036
-10.26975
-7.683325
-5.655129
-82.79951
-96.43558
-92.92581
-87.85011
-81.23916
-73.07456
-64.19638
-55.12644
-46.53087
-38.77959
-31.1882
-24.97898
-19.35544
-14.61414
-11.14633
-7.982778
-5.551115
-3.570893
-91.05651
-111.2432
-106.2094
-99.61816
-90.62856
-80.34194
-69.32479
-58.30186
-47.82758
-38.97821
-29.75864
-23.3582
-16.59694
-12.24161
-8.39298
-5.311465
-2.897532
-1.017717
-75.94923
-129.1486
-122.0911
-112.7131
-101.233
-88.95044
-74.61048
-61.21951
-48.7418
-37.86512
-27.90892
-20.28276
-13.5925
-8.878077
-4.955668
-1.901366
0.2252195
1.797741
-5.208963
-149.589
-140.0385
-128.7857
-113.6818
-97.86505
-79.96779
-63.29768
-48.76191
-35.04487
-24.55556
-15.83186
-9.266682
-4.341312
-0.5912837
1.926921
3.88346
5.093536
51.22933
-170.0658
-162.7854
-147.8411
-129.9304
-107.538
-85.10914
-64.35693
-46.03591
-31.29357
-19.46466
-9.961437
-3.372662
1.293814
4.591091
6.541899
7.811381
8.691943
130.5654
-193.1459
-190.6302
-172.2036
-41.18519
-24.46506
-11.66335
-2.352323
4.033773
8.032932
10.51004
11.70463
12.41951
12.51416
207.0118
-221.9521
-0.564948
8.05551
12.95397
15.74416
17.116
17.45731
17.20181
16.66616
182.4297
19.85063
23.72211
24.92961
24.39344
23.58356
22.17458
20.56694
36.12445
34.33818
31.90636
29.37926
26.80942
24.57114
43.46457
39.04063
34.9425
31.2591
28.05648
52.04552
45.18982
39.56408
34.91119
30.90315
57.88488
49.6575
42.89184
37.4408
32.93985
60.52825
51.87114
44.64932
38.86329
34.11388
60.20333
51.47578
44.54828
38.83072
34.15807
55.62739
48.79576
42.68262
37.59948
33.23693
54.37769
49.70394
44.25907
39.53312
35.18055
31.45679
183.1033
45.84942
42.24658
38.81398
35.29971
31.9548
28.94946
181.0594
-193.5414
33.88845
34.82978
34.28683
32.66525
30.5525
28.34804
26.06244
169.6458
-165.3573
-170.149
7.031367
17.23771
23.09567
25.74147
26.73108
26.54624
25.53384
24.26533
22.83008
112.1593
-146.2065
-141.5624
-125.0483
-102.5854
-78.0469
-54.50648
-33.56382
-15.80977
-2.690007
7.364139
13.76802
17.79892
19.89257
20.83422
20.74934
20.27591
19.50764
63.54055
-129.6298
-119.6686
-105.9836
-89.92339
-71.32956
-52.44127
-35.18565
-21.26534
-8.880344
-0.1274942
6.493661
11.03752
13.88225
15.55576
16.24472
16.50294
16.27754
30.94109
-113.075
-102.3344
-91.52917
-78.02678
-64.61844
-49.53521
-36.01934
-23.97711
-13.81489
-5.449681
1.098176
5.524994
8.715345
10.92877
12.28564
12.9414
13.18779
-38.63521
-96.87705
-87.93142
-79.33356
-69.01518
-58.1531
-46.27504
-35.19115
-25.08065
-16.69762
-8.87182
-3.483789
1.541295
4.476484
6.925847
8.671558
9.800504
10.31233
-61.82475
-81.08339
-75.23738
-68.79552
-61.04331
-52.14292
-42.86972
-33.77402
-25.3145
-18.34031
-11.23215
-6.495203
-1.918526
1.3539
3.755453
5.644175
6.808975
7.795266
-54.51659
-68.09804
-64.55936
-59.80243
-53.91532
-46.89719
-39.44796
-32.00034
-25.2405
-19.00858
-13.34491
-8.50524
-4.594403
-1.145859
1.118968
2.998837
4.507671
5.481948
-46.09035
-57.58964
-55.41888
-52.05654
-47.57391
-42.07172
-36.1105
-30.03035
-24.40213
-19.09495
-14.38931
-9.905963
-6.597139
-3.337541
-0.8902534
0.8786434
2.379252
3.612195
-37.94672
-48.67082
-47.53046
-45.31288
-41.96209
-37.7697
-32.92983
-27.98258
-23.30498
-18.81269
-14.99947
-10.80633
-7.822127
-4.92443
-2.496359
-0.7616605
0.6519589
1.874526
-30.74814
-41.33162
-40.91415
-39.4673
-37.01328
-33.88643
-29.95261
-25.94209
-22.06745
-18.27788
-14.99492
-11.54001
-8.661092
-6.291554
-3.785747
-2.097072
-0.7046064
0.4507614
-27.28624
-35.26183
-35.28273
-34.43156
-32.68102
-30.30308
-27.20759
-23.96801
-20.76827
-17.58166
-14.77115
-11.86641
-9.205351
-7.078628
-4.976525
-3.170002
-1.823728
-0.6849085
-26.3289
-30.12681
-30.52316
-30.1234
-28.91711
-27.13051
-24.70808
-22.09845
-19.46356
-16.79072
-14.38449
-12.02345
-9.534343
-7.609536
-5.880556
-4.027716
-2.736634
-1.633455
-22.24492
-25.85119
-26.54697
-26.46762
-25.66928
-24.34184
-22.45469
-20.3586
-18.19209
-15.95448
-13.89862
-11.91243
-9.679763
-7.954864
-6.390899
-4.786616
-3.472877
-2.41814
-20.74898
-22.55083
-23.28862
-23.39242
-22.88345
-21.90512
-20.43941
-18.75878
-16.97977
-15.10857
-13.35484
-11.63966
-9.786743
-8.154595
-6.744244
-5.373134
-4.063138
-3.061023
-18.60725
-19.91064
-20.61349
-20.8103
-20.50014
-19.7826
-18.64608
-17.29758
-15.83907
-14.27444
-12.7798
-11.30267
-9.735478
-8.238128
-6.969083
-5.796916
-4.522953
-3.581292
-16.82999
-17.76561
-18.3971
-18.63518
-18.4577
-17.93216
-17.05239
-15.94451
-14.76062
-13.46621
-12.19393
-10.91937
-9.601791
-8.240078
-7.096931
-6.038094
-4.964653
-3.996426
-15.21019
-15.97667
-16.54483
-16.79912
-16.71834
-16.32459
-15.64173
-14.75382
-13.76147
-12.69583
-11.61436
-10.51588
-9.420554
-8.172394
-7.149387
-6.19189
-5.248057
-4.327158
-13.88618
-14.46834
-14.97042
-15.23063
-15.20733
-14.92583
-14.3963
-13.68398
-12.8673
-11.97397
-11.05322
-10.10648
-9.151708
-8.058536
-7.144901
-6.281453
-5.470496
-4.603115
-12.69691
-13.17129
-13.63243
-13.88553
-13.90859
-13.70943
-13.29891
-12.72658
-12.05277
-11.30319
-10.51862
-9.702293
-8.872561
-7.962948
-7.098335
-6.320761
-5.586801
-4.835033
-11.66285
-12.07407
-12.49248
-12.73555
-12.78877
-12.65116
-12.3332
-11.87194
-11.30675
-10.68529
-10.01582
-9.311252
-8.588549
-7.803116
-7.020992
-6.321774
-5.655796
-5.007358
-10.781
-11.13775
-11.51806
-11.74902
-11.82789
-11.72999
-11.48428
-11.11216
-10.64049
-10.12011
-9.547726
-8.938694
-8.307673
-7.61771
-6.922942
-6.294809
-5.690762
-5.114682
-10.02898
-10.33871
-10.68393
-10.90123
-10.98985
-10.92832
-10.73894
-10.43801
-10.0466
-9.606139
-9.115613
-8.588126
-8.036345
-7.457697
-6.814024
-6.250251
-5.703699
-5.175832
-9.387768
-9.656418
-9.969383
-10.17219
-10.26538
-10.23081
-10.08527
-9.841198
-9.515214
-9.141178
-8.719619
-8.261633
-7.778148
-7.277561
-6.69944
-6.193631
-5.697367
-5.214205
-8.840978
-9.073851
-9.357131
-9.545093
-9.639324
-9.624394
-9.512787
-9.314105
-9.041419
-8.722612
-8.359091
-7.960264
-7.535881
-7.095718
-6.584099
-6.128025
-5.677033
-5.234696
-8.375243
-8.576842
-8.832969
-9.005881
-9.098609
-9.097686
-9.01226
-8.849721
-8.620454
-8.347549
-8.032847
-7.684691
-7.314245
-6.925271
-6.470177
-6.05749
-5.647059
-5.241625
-7.979346
-8.153388
-8.384589
-8.542739
-8.632133
-8.640936
-8.575566
-8.441751
-8.247846
-8.013028
-7.739377
-7.437695
-7.112567
-6.766719
-6.381705
-5.985188
-5.610972
-5.238841
-7.642889
-7.793092
-8.001652
-8.145657
-8.23055
-8.245717
-8.195551
-8.084498
-7.919348
-7.716146
-7.481054
-7.217767
-6.928346
-6.61867
-6.272987
-5.913537
-5.571652
-5.229423
-7.358457
-7.487899
-7.67556
-7.806269
-7.88579
-7.904747
-7.865966
-7.77288
-7.631031
-7.45803
-7.254008
-7.020156
-6.761563
-6.483084
-6.171086
-5.844708
-5.531475
-5.215983
-7.118953
-7.23032
-7.399076
-7.517343
-7.590903
-7.611741
-7.581318
-7.502364
-7.383028
-7.233912
-7.052909
-6.844226
-6.612012
-6.360448
-6.077677
-5.780231
-5.492327
-5.200651
-6.918318
-7.01448
-7.166053
-7.272733
-7.339982
-7.361235
-7.336907
-7.272164
-7.17012
-7.037868
-6.876356
-6.688982
-6.479311
-6.250936
-5.993572
-5.721283
-5.455712
-5.185194
-6.751694
-6.835057
-6.971207
-7.067247
-7.12796
-7.148669
-7.131258
-7.076832
-6.986161
-6.86795
-6.722758
-6.5534
-6.362961
-6.154541
-5.927232
-5.669269
-5.422804
-5.171029
-6.614622
-6.687745
-6.809969
-6.896204
-6.950655
-6.972241
-6.959079
-6.910323
-6.828846
-6.722179
-6.590602