/*--------------------------------*- C++ -*----------------------------------*\
| =========                 |                                                 |
| \\      /  F ield         | OpenFOAM: The Open Source CFD Toolbox           |
|  \\    /   O peration     | Version:  2206                                  |
|   \\  /    A nd           | Website:  www.openfoam.com                      |
|    \\/     M anipulation  |                                                 |
\*---------------------------------------------------------------------------*/
FoamFile
{
    version     2.0;
    format      ascii;
    arch        "LSB;label=32;scalar=64";
    class       surfaceScalarField;
    location    "2.2";
    object      phi.b;
}
// * * * * * * * * * * * * * * * * * * * * * * * * * * * * * * * * * * * * * //

dimensions      [0 3 -1 0 0 0 0];

oriented        oriented;

internalField   nonuniform List<scalar> 
26037
(
2.749653e-10
3.006994e-11
1.605764e-10
1.93281e-11
1.040178e-10
-1.519412e-11
9.468251e-11
-2.93903e-11
9.976009e-11
-3.023569e-11
1.069119e-10
-2.953165e-11
-2.844174e-11
1.141334e-10
1.433789e-10
1.303481e-10
1.18508e-10
2.639114e-11
9.763949e-11
-2.332969e-11
9.55613e-11
-3.904626e-11
1.009087e-10
-4.281466e-11
1.082034e-10
-4.291504e-11
-4.125182e-11
1.156707e-10
7.433698e-11
2.423104e-11
8.607748e-11
-1.594244e-11
8.823488e-11
-3.820617e-11
9.47295e-11
-5.288974e-11
1.025496e-10
-5.686376e-11
1.109512e-10
-5.676848e-11
-5.430462e-11
1.190572e-10
4.949474e-11
-2.782194e-11
7.224388e-11
-4.586512e-11
8.737536e-11
-5.866873e-11
9.469565e-11
-6.523178e-11
1.052154e-10
-7.21776e-11
1.151145e-10
-7.124365e-11
-6.774229e-11
1.241684e-10
4.083506e-11
-6.219125e-11
6.669967e-11
-7.177539e-11
8.588281e-11
-7.997668e-11
1.010425e-10
-8.347821e-11
1.090226e-10
-8.360342e-11
1.20669e-10
-8.653355e-11
-8.180706e-11
1.30961e-10
3.672111e-11
-9.292643e-11
6.411851e-11
-9.770046e-11
8.6188e-11
-1.024455e-10
1.044291e-10
-1.033569e-10
1.198786e-10
-1.01495e-10
1.275259e-10
-9.705767e-11
-9.681097e-11
1.393378e-10
3.479042e-11
-1.228876e-10
6.342465e-11
-1.246109e-10
8.712438e-11
-1.257762e-10
1.089858e-10
-1.260364e-10
1.270641e-10
-1.21244e-10
1.425729e-10
-1.148935e-10
-1.063032e-10
1.493128e-10
3.435308e-11
-1.534344e-10
6.438545e-11
-1.531379e-10
9.113493e-11
-1.519238e-10
1.151371e-10
-1.504631e-10
1.357544e-10
-1.430865e-10
1.535877e-10
-1.346282e-10
-1.239481e-10
1.687787e-10
3.510678e-11
-1.855126e-10
6.69063e-11
-1.837741e-10
9.615085e-11
-1.80608e-10
1.228843e-10
-1.774764e-10
1.462123e-10
-1.67414e-10
1.665508e-10
-1.566222e-10
-1.435565e-10
1.839408e-10
3.681678e-11
-2.198823e-10
7.086377e-11
-2.170027e-10
1.027866e-10
-2.121193e-10
1.324806e-10
-2.074529e-10
1.587019e-10
-1.945546e-10
1.817546e-10
-1.812105e-10
-1.654794e-10
2.015834e-10
3.935104e-11
-2.572318e-10
7.620358e-11
-2.53351e-10
1.111791e-10
-2.46874e-10
1.441248e-10
-2.407664e-10
1.734967e-10
-2.248595e-10
1.995141e-10
-2.087347e-10
-1.900498e-10
2.220344e-10
4.265095e-11
-2.982344e-10
8.291941e-11
-2.933954e-10
1.21419e-10
-2.853551e-10
1.580048e-10
-2.778496e-10
1.908671e-10
-2.58727e-10
2.201634e-10
-2.395726e-10
-2.176131e-10
2.456598e-10
4.66989e-11
-3.435778e-10
9.104057e-11
-3.377629e-10
1.336163e-10
-3.281142e-10
1.742983e-10
-3.191824e-10
2.11108e-10
-2.96651e-10
2.440488e-10
-2.741343e-10
-2.485496e-10
2.728561e-10
5.151767e-11
-3.93993e-10
1.006409e-10
-3.871401e-10
1.479178e-10
-3.757739e-10
1.92785e-10
-3.648762e-10
2.345124e-10
-3.396384e-10
2.715419e-10
-3.12897e-10
-2.832991e-10
3.040649e-10
5.714585e-11
-4.502641e-10
1.118271e-10
-4.422878e-10
1.64311e-10
-4.288342e-10
2.091781e-10
-4.10725e-10
2.609424e-10
-3.928241e-10
3.030612e-10
-3.568789e-10
-3.2235e-10
3.397634e-10
6.362777e-11
-5.132303e-10
1.246485e-10
-5.039796e-10
1.834703e-10
-4.884252e-10
2.388466e-10
-4.672434e-10
2.921508e-10
-4.47733e-10
3.391211e-10
-4.058639e-10
-3.662415e-10
3.80519e-10
7.10822e-11
-5.838584e-10
1.394035e-10
-5.731752e-10
2.053355e-10
-5.553246e-10
2.678347e-10
-5.31073e-10
3.273481e-10
-5.090393e-10
3.802238e-10
-4.609246e-10
-4.156178e-10
4.269409e-10
7.959347e-11
-6.632063e-10
1.562354e-10
-6.508991e-10
2.30219e-10
-6.304803e-10
3.004002e-10
-6.027829e-10
3.67303e-10
-5.779341e-10
4.270062e-10
-5.229988e-10
-4.711837e-10
4.797285e-10
8.927092e-11
-7.524479e-10
1.753692e-10
-7.382971e-10
2.585023e-10
-7.150035e-10
3.373808e-10
-6.834065e-10
4.115681e-10
-6.543445e-10
4.800958e-10
-5.941225e-10
-5.337979e-10
5.396602e-10
1.002374e-10
-8.528868e-10
1.970524e-10
-8.366457e-10
2.905948e-10
-8.101707e-10
3.789315e-10
-7.737194e-10
4.511413e-10
-7.28969e-10
5.392815e-10
-6.851249e-10
-6.053581e-10
6.075718e-10
1.12623e-10
-9.659632e-10
2.215031e-10
-9.473158e-10
3.266499e-10
-9.172007e-10
4.264714e-10
-8.757722e-10
5.192164e-10
-8.243315e-10
6.080752e-10
-7.771472e-10
-6.853144e-10
6.845119e-10
1.266051e-10
-1.093302e-09
2.491301e-10
-1.071918e-09
3.674988e-10
-1.037744e-09
4.800536e-10
-9.908491e-10
5.855012e-10
-9.326771e-10
6.848846e-10
-8.799982e-10
-7.757296e-10
7.714997e-10
1.423386e-10
-1.236689e-09
2.802217e-10
-1.212204e-09
4.134913e-10
-1.17352e-09
5.403408e-10
-1.120553e-09
6.591858e-10
-1.054749e-09
7.693907e-10
-9.940329e-10
-8.801719e-10
8.696814e-10
1.599869e-10
-1.398085e-09
3.150993e-10
-1.370092e-09
4.651144e-10
-1.326422e-09
6.081846e-10
-1.266858e-09
7.417666e-10
-1.191932e-09
8.478441e-10
-1.104237e-09
-1.015991e-09
9.790512e-10
1.797063e-10
-1.579611e-09
3.540683e-10
-1.54766e-09
5.227642e-10
-1.498448e-09
6.837002e-10
-1.431475e-09
8.348787e-10
-1.347149e-09
9.735702e-10
-1.247381e-09
-1.152457e-09
1.104885e-09
2.016648e-10
-1.78357e-09
3.975095e-10
-1.747209e-09
5.871489e-10
-1.691935e-09
7.684117e-10
-1.616942e-09
9.39296e-10
-1.522592e-09
1.097944e-09
-1.410976e-09
-1.306182e-09
1.245971e-09
2.258916e-10
-2.0123e-09
4.456913e-10
-1.97129e-09
6.58677e-10
-1.909372e-09
8.626638e-10
-1.825754e-09
1.055519e-09
-1.720631e-09
1.235017e-09
-1.59604e-09
-1.478335e-09
1.400789e-09
2.511405e-10
-2.266897e-09
4.987346e-10
-2.22383e-09
7.376388e-10
-2.153431e-09
9.669692e-10
-2.060642e-09
1.184601e-09
-1.944194e-09
1.387091e-09
-1.804839e-09
-1.647192e-09
1.548985e-09
2.79441e-10
-2.550502e-09
5.567732e-10
-2.506875e-09
8.242657e-10
-2.42689e-09
1.081579e-09
-2.324369e-09
1.325948e-09
-2.195387e-09
1.553437e-09
-2.039545e-09
-1.857961e-09
1.756614e-09
2.877502e-10
-2.843173e-09
6.160874e-10
-2.841798e-09
9.184992e-10
-2.736183e-09
1.207485e-09
-2.620754e-09
1.483441e-09
-2.479219e-09
1.743342e-09
-2.307771e-09
-2.106688e-09
1.98337e-09
3.405599e-10
-3.189443e-09
6.813282e-10
-3.190113e-09
1.019649e-09
-3.082425e-09
1.343849e-09
-2.953459e-09
1.655122e-09
-2.799576e-09
1.951628e-09
-2.613914e-09
-2.394131e-09
2.229011e-09
3.764473e-10
-3.572436e-09
6.986603e-10
-3.520775e-09
1.113575e-09
-3.506471e-09
1.488655e-09
-3.338293e-09
1.838827e-09
-3.160183e-09
2.174338e-09
-2.960583e-09
-2.721988e-09
2.490435e-09
4.128653e-10
-3.992656e-09
8.139935e-10
-3.93114e-09
1.150456e-09
-3.8531e-09
1.632015e-09
-3.831064e-09
2.033096e-09
-3.573154e-09
2.414401e-09
-3.354794e-09
-3.099098e-09
2.777698e-09
4.477415e-10
-4.448461e-09
8.900115e-10
-4.383421e-09
1.325617e-09
-4.299662e-09
1.779049e-09
-4.297201e-09
2.233081e-09
-4.04077e-09
2.667097e-09
-3.803733e-09
-3.534798e-09
3.08646e-09
4.81244e-10
-4.938309e-09
9.589221e-10
-4.871787e-09
1.43441e-09
-4.787055e-09
1.809239e-09
-4.686e-09
2.405825e-09
-4.653254e-09
2.923612e-09
-4.338868e-09
-4.036913e-09
3.406438e-09
5.098435e-10
-5.457085e-09
1.016843e-09
-5.390133e-09
1.529229e-09
-5.312466e-09
2.038975e-09
-5.210862e-09
2.459308e-09
-5.091406e-09
3.160436e-09
-5.060164e-09
-4.628837e-09
3.730295e-09
5.310876e-10
-5.997278e-09
1.060489e-09
-5.931743e-09
1.599692e-09
-5.866005e-09
2.156156e-09
-5.783648e-09
2.727197e-09
-5.680821e-09
3.371643e-09
-5.726193e-09
-5.327016e-09
4.046448e-09
5.40032e-10
-6.54667e-09
1.082547e-09
-6.487393e-09
1.642122e-09
-6.440802e-09
2.232479e-09
-6.390497e-09
2.857673e-09
-6.323506e-09
3.360586e-09
-6.24882e-09
-6.309787e-09
4.321726e-09
5.212803e-10
-7.077875e-09
1.075062e-09
-7.054657e-09
1.645222e-09
-7.025654e-09
2.255798e-09
-7.015752e-09
2.921652e-09
-7.003245e-09
3.640178e-09
-6.981493e-09
-7.213595e-09
4.52871e-09
4.268744e-10
-7.515234e-09
1.011991e-09
-7.652394e-09
1.602137e-09
-7.628361e-09
2.225371e-09
-7.649517e-09
2.92245e-09
-7.708172e-09
3.705427e-09
-7.769536e-09
-7.849681e-09
4.345571e-09
4.455181e-10
-7.971249e-09
7.957436e-10
-8.012558e-09
1.468691e-09
-8.309701e-09
2.119886e-09
-8.305323e-09
2.822209e-09
-8.409245e-09
3.638875e-09
-8.569607e-09
-8.672643e-09
4.580169e-09
3.904053e-10
-8.371107e-09
8.074676e-10
-8.435229e-09
1.087146e-09
-8.590668e-09
1.878638e-09
-9.091908e-09
2.615507e-09
-9.124476e-09
3.452195e-09
-9.261489e-09
-9.132213e-09
4.458212e-09
3.061178e-10
-8.683448e-09
6.710204e-10
-8.798712e-09
1.062054e-09
-8.974102e-09
1.26913e-09
-9.273485e-09
2.230441e-09
-9.949222e-09
3.135412e-09
-9.654551e-09
-9.178992e-09
3.995022e-09
1.920109e-10
-8.874648e-09
4.755621e-10
-9.070363e-09
8.05397e-10
-9.278229e-09
1.191935e-09
-9.564673e-09
1.402127e-09
-9.713431e-09
2.547712e-09
-9.946215e-09
-9.055714e-09
3.098238e-09
7.75174e-12
-8.869883e-09
2.152919e-10
-9.249005e-09
4.412324e-10
-9.429246e-09
8.028536e-10
-9.636554e-09
1.245186e-09
-9.469372e-09
1.195725e-09
-9.08772e-09
-9.120051e-09
1.754691e-09
-6.441393e-11
-8.778782e-09
-2.117009e-10
-9.041904e-09
-1.940363e-10
-9.241566e-09
2.585942e-10
-9.520131e-09
5.846674e-10
-9.027829e-09
5.130971e-10
-8.460444e-09
-7.971226e-09
-2.827583e-10
-2.058818e-10
-8.530318e-09
-3.620829e-10
-8.76364e-09
-4.069562e-10
-8.812217e-09
-5.662036e-10
-8.612767e-09
-3.370302e-10
-8.53903e-09
-7.108866e-10
-7.678787e-09
-7.158681e-09
-1.264118e-09
-3.596247e-10
-8.102389e-09
-6.495848e-10
-8.249303e-09
-7.774674e-10
-8.136078e-09
-9.042996e-10
-7.774506e-09
-1.613792e-09
-7.260588e-09
-2.308471e-09
-6.644505e-09
-6.605247e-09
-2.611086e-09
-5.030114e-10
-7.483311e-09
-9.051074e-10
-7.50306e-09
-1.156773e-09
-7.259929e-09
-1.482602e-09
-6.825913e-09
-2.078675e-09
-6.262021e-09
-2.878854e-09
-5.609727e-09
-4.895673e-09
-4.358399e-09
-6.129247e-10
-6.680827e-09
-1.099759e-09
-6.575129e-09
-1.47624e-09
-6.263822e-09
-2.005315e-09
-5.786184e-09
-2.756459e-09
-5.213758e-09
-3.641422e-09
-4.542267e-09
-3.720746e-09
-4.625519e-09
-7.774248e-10
-5.631854e-09
-1.409487e-09
-5.439832e-09
-1.725829e-09
-5.3576e-09
-2.381429e-09
-4.72703e-09
-3.258196e-09
-4.117367e-09
-4.230389e-09
-3.421577e-09
-2.639999e-09
-5.140077e-09
-7.731468e-10
-4.530035e-09
-1.414482e-09
-4.308279e-09
-2.300376e-09
-3.961032e-09
-3.171656e-09
-3.522879e-09
-4.213024e-09
-2.893551e-09
-5.287215e-09
-2.201154e-09
-2.022457e-09
-5.73437e-09
-8.183817e-10
-3.351264e-09
-1.512803e-09
-3.146323e-09
-2.240158e-09
-2.823526e-09
-3.097532e-09
-2.410297e-09
-3.97257e-09
-1.880726e-09
-4.815068e-09
-1.24106e-09
-6.333707e-10
-6.032334e-09
-8.445196e-10
-2.137109e-09
-1.572684e-09
-1.96669e-09
-2.305219e-09
-1.713586e-09
-3.111236e-09
-1.375818e-09
-3.923387e-09
-9.414712e-10
-4.642378e-09
-3.977783e-10
2.697207e-10
-5.354785e-09
-8.851656e-10
-8.97908e-10
-1.649616e-09
-7.667063e-10
-2.409755e-09
-5.916634e-10
-3.221153e-09
-3.448314e-10
-4.014031e-09
-1.865486e-11
-4.663464e-09
3.942534e-10
9.09133e-10
-5.081636e-09
-9.836109e-10
3.974579e-10
-1.824459e-09
4.974926e-10
-2.649943e-09
6.023476e-10
-3.52153e-09
7.579338e-10
-4.362536e-09
9.682287e-10
-5.027208e-09
1.226416e-09
1.518527e-09
-5.385808e-09
-1.044071e-09
1.690055e-09
-1.91568e-09
1.769105e-09
-2.741665e-09
1.811462e-09
-3.604331e-09
1.875026e-09
-4.436909e-09
1.965972e-09
-5.096934e-09
2.065742e-09
2.131305e-09
-5.455455e-09
-1.03293e-09
2.901976e-09
-1.882677e-09
2.972372e-09
-2.640068e-09
2.953365e-09
-3.410963e-09
2.920693e-09
-4.15772e-09
2.890451e-09
-4.766424e-09
2.847615e-09
2.754168e-09
-5.151592e-09
-1.046045e-09
4.057083e-09
-1.902421e-09
4.119902e-09
-2.644526e-09
4.077082e-09
-3.377338e-09
3.962667e-09
-4.099621e-09
3.820767e-09
-4.736249e-09
3.667377e-09
3.647456e-09
-5.388032e-09
-1.045285e-09
5.156083e-09
-1.923372e-09
5.216624e-09
-2.674888e-09
5.202311e-09
-3.446801e-09
5.103592e-09
-4.193041e-09
4.84072e-09
-4.918728e-09
4.622532e-09
5.089844e-09
-6.07602e-09
-9.783729e-10
6.15927e-09
-1.864878e-09
6.245548e-09
-2.89171e-09
6.608057e-09
-3.649311e-09
6.322416e-09
-4.517434e-09
6.082341e-09
-5.420395e-09
5.818569e-09
5.566015e-09
-5.60102e-09
-9.182259e-10
7.098213e-09
-1.819072e-09
7.223385e-09
-2.240208e-09
7.314942e-09
-2.766255e-09
7.275353e-09
-3.393397e-09
7.094676e-09
-4.124111e-09
6.828669e-09
6.498154e-09
-4.804301e-09
-6.519038e-10
7.773511e-09
-1.352553e-09
7.949747e-09
-1.951298e-09
8.07692e-09
-2.409221e-09
8.1195e-09
-2.881267e-09
7.993868e-09
-3.469391e-09
7.722405e-09
7.468258e-09
-4.206227e-09
-4.770745e-10
8.276398e-09
-1.016506e-09
8.495758e-09
-1.53912e-09
8.670739e-09
-1.910087e-09
8.792977e-09
-2.228907e-09
8.763531e-09
-2.680681e-09
8.521656e-09
8.950417e-09
-3.930042e-09
-2.99313e-10
8.600161e-09
-6.291123e-10
8.836097e-09
-9.984218e-10
9.054692e-09
-1.310044e-09
9.288807e-09
-1.880781e-09
9.787251e-09
-2.2036e-09
9.272774e-09
9.07201e-09
-2.08183e-09
-1.363199e-10
8.754849e-09
-2.626154e-10
8.980292e-09
-4.475057e-10
9.237972e-09
-9.136542e-10
9.820041e-09
-6.163312e-10
9.825892e-09
-6.164972e-10
9.711389e-09
9.501531e-09
-7.606522e-10
4.986126e-13
8.763569e-09
-9.277602e-11
9.088538e-09
-1.151546e-10
9.267486e-09
9.787548e-11
9.603153e-09
2.501765e-10
9.839378e-09
4.422929e-10
9.948468e-09
1.018991e-08
1.576922e-10
6.45511e-11
8.698614e-09
3.128528e-10
8.846071e-09
5.523416e-10
9.035506e-09
8.122537e-10
9.337766e-09
1.007693e-09
9.677499e-09
1.047104e-09
1.023132e-08
9.915567e-09
1.818814e-09
2.384875e-10
8.453183e-09
5.537084e-10
8.528996e-09
9.0868e-10
8.682045e-09
1.302484e-09
8.945733e-09
1.476543e-09
9.49802e-09
2.224911e-09
9.578182e-09
9.74791e-09
2.81142e-09
3.433677e-10
8.100101e-09
7.305231e-10
8.134545e-09
1.148694e-09
8.258914e-09
1.477133e-09
8.615776e-09
2.279452e-09
8.694341e-09
2.954009e-09
8.897299e-09
9.146775e-09
3.709892e-09
4.17532e-10
7.672143e-09
8.5363e-10
7.68776e-09
1.216997e-09
7.885748e-09
1.927775e-09
7.897593e-09
2.624185e-09
7.99319e-09
3.34203e-09
8.175418e-09
8.234014e-09
4.24772e-09
4.651205e-10
7.197024e-09
8.677384e-10
7.272384e-09
1.489428e-09
7.250657e-09
2.106813e-09
7.268164e-09
2.742717e-09
7.347197e-09
3.588898e-09
7.321057e-09
7.328894e-09
4.483986e-09
4.578717e-10
6.729922e-09
1.017237e-09
6.6995e-09
1.5843e-09
6.668389e-09
2.144943e-09
6.692023e-09
2.860817e-09
6.616455e-09
3.618469e-09
6.548737e-09
6.703395e-09
4.227202e-09
5.174678e-10
6.203914e-09
1.056486e-09
6.147486e-09
1.605418e-09
6.103946e-09
2.199617e-09
6.080604e-09
2.838344e-09
5.959811e-09
3.512363e-09
5.855502e-09
5.870186e-09
4.323843e-09
5.264025e-10
5.669302e-09
1.048434e-09
5.613434e-09
1.563423e-09
5.574191e-09
2.158813e-09
5.46815e-09
2.746524e-09
5.353106e-09
3.223067e-09
5.357051e-09
4.970575e-09
4.09908e-09
5.106154e-10
5.150591e-09
1.001434e-09
5.111408e-09
1.53796e-09
5.024213e-09
2.073064e-09
4.917277e-09
2.555559e-09
4.852098e-09
3.205003e-09
4.68615e-09
4.324716e-09
3.828128e-09
4.862602e-10
4.656407e-09
9.727255e-10
4.614348e-09
1.46405e-09
4.520638e-09
1.949652e-09
4.417333e-09
2.398957e-09
4.385666e-09
3.003556e-09
4.062534e-09
3.782188e-09
3.525283e-09
4.495424e-10
4.199242e-09
9.140063e-10
4.139859e-09
1.367772e-09
4.055526e-09
1.723854e-09
4.047829e-09
2.292874e-09
3.801357e-09
2.768189e-09
3.570631e-09
3.314627e-09
3.2174e-09
4.256432e-10
3.76644e-09
8.47622e-10
3.708512e-09
1.261081e-09
3.631576e-09
1.689794e-09
3.606789e-09
2.117764e-09
3.360111e-09
2.523471e-09
3.150328e-09
2.906847e-09
2.915266e-09
3.921841e-10
3.367685e-09
7.740739e-10
3.317971e-09
1.093688e-09
3.302221e-09
1.548362e-09
3.141183e-09
1.926272e-09
2.970478e-09
2.28421e-09
2.779574e-09
2.55251e-09
2.624703e-09
3.577776e-10
3.003985e-09
6.64163e-10
3.003636e-09
1.056963e-09
2.900663e-09
1.41148e-09
2.77715e-09
1.741729e-09
2.629907e-09
2.057414e-09
2.452714e-09
2.243592e-09
2.354383e-09
3.234536e-10
2.675273e-09
6.467418e-10
2.673184e-09
9.672124e-10
2.572561e-09
1.273805e-09
2.462239e-09
1.567642e-09
2.327059e-09
1.84705e-09
2.163614e-09
1.972217e-09
2.108135e-09
2.733267e-10
2.397323e-09
5.845096e-10
2.355679e-09
8.709639e-10
2.279432e-09
1.144364e-09
2.181572e-09
1.405059e-09
2.058532e-09
1.650228e-09
1.91006e-09
1.737208e-09
1.876345e-09
2.651149e-10
2.128206e-09
5.2802e-10
2.087217e-09
7.814268e-10
2.020189e-09
1.024944e-09
1.931725e-09
1.255933e-09
1.820743e-09
1.470683e-09
1.688043e-09
1.537916e-09
1.662244e-09
2.381767e-10
1.886625e-09
4.728468e-10
1.847671e-09
6.991847e-10
1.788763e-09
9.162823e-10
1.709116e-09
1.122106e-09
1.608997e-09
1.313449e-09
1.490353e-09
1.377195e-09
1.467117e-09
2.141544e-10
1.669601e-09
4.224629e-10
1.635084e-09
6.242595e-10
1.582533e-09
8.174197e-10
1.511148e-09
9.99905e-10
1.421331e-09
1.169605e-09
1.31507e-09
1.21421e-09
1.326187e-09
1.911381e-10
1.476076e-09
3.767221e-10
1.445749e-09
5.564106e-10
1.398981e-09
7.281013e-10
1.335251e-09
8.89883e-10
1.254994e-09
1.040004e-09
1.160008e-09
1.068566e-09
1.179969e-09
1.702896e-10
1.303831e-09
3.35498e-10
1.277255e-09
4.953503e-10
1.235758e-09
6.478241e-10
1.179085e-09
7.91019e-10
1.107769e-09
9.224287e-10
1.024174e-09
9.391167e-10
1.046783e-09
1.515752e-10
1.150686e-09
2.985294e-10
1.127423e-09
4.406852e-10
1.090659e-09
5.762544e-10
1.040261e-09
7.028606e-10
9.775736e-10
8.041642e-10
9.187848e-10
8.111883e-10
9.275608e-10
1.34834e-10
1.014625e-09
2.654531e-10
9.942847e-10
3.917452e-10
9.617952e-10
5.119609e-10
9.171684e-10
6.245854e-10
8.617384e-10
7.290305e-10
8.105711e-10
7.122316e-10
8.239416e-10
1.199168e-10
8.937906e-10
2.359793e-10
8.760212e-10
3.481568e-10
8.473721e-10
4.548436e-10
8.079353e-10
5.547969e-10
7.589064e-10
6.489582e-10
7.130102e-10
6.26501e-10
7.31007e-10
1.066674e-10
7.864825e-10
2.098023e-10
7.709686e-10
3.094592e-10
7.457574e-10
4.041006e-10
7.110374e-10
4.920919e-10
6.683204e-10
5.762847e-10
6.257276e-10
5.506323e-10
6.487598e-10
9.493735e-11
6.911565e-10
1.866468e-10
6.775958e-10
2.753206e-10
6.553817e-10
3.591353e-10
6.252198e-10
4.283077e-10
5.96754e-10
5.112909e-10
5.399543e-10
4.827073e-10
5.760736e-10
8.455654e-11
6.06443e-10
1.661223e-10
5.945991e-10
2.449492e-10
5.750856e-10
3.197936e-10
5.486016e-10
3.902606e-10
5.240861e-10
4.553086e-10
4.723832e-10
4.231465e-10
5.11945e-10
7.539934e-11
5.311034e-10
1.48018e-10
5.207654e-10
2.181934e-10
5.036557e-10
2.848203e-10
4.804134e-10
3.48374e-10
4.585575e-10
4.051543e-10
4.13299e-10
3.702117e-10
4.553654e-10
6.73465e-11
4.640237e-10
1.320937e-10
4.550073e-10
1.946584e-10
4.40037e-10
2.540326e-10
4.196715e-10
3.106186e-10
4.001908e-10
3.609731e-10
3.608214e-10
3.23099e-10
4.055395e-10
6.029123e-11
4.042015e-10
1.181317e-10
3.963532e-10
1.739778e-10
3.833289e-10
2.266633e-10
3.65802e-10
2.773696e-10
3.47888e-10
3.221663e-10
3.14067e-10
2.811458e-10
3.617329e-10
5.415036e-11
3.507233e-10
1.059914e-10
3.438934e-10
1.55874e-10
3.32769e-10
1.990935e-10
3.215509e-10
2.479343e-10
2.976282e-10
2.88133e-10
2.720595e-10
2.437447e-10
3.232891e-10
4.880738e-11
3.027987e-10
9.538296e-11
2.968977e-10
1.403244e-10
2.873341e-10
1.83109e-10
2.778869e-10
2.229333e-10
2.565478e-10
2.583997e-10
2.349155e-10
2.103832e-10
2.896392e-10
4.421405e-11
2.596934e-10
8.625251e-11
2.546471e-10
1.267573e-10
2.465239e-10
1.655829e-10
2.383543e-10
2.008366e-10
2.201863e-10
2.324875e-10
2.017065e-10
1.805983e-10
2.602546e-10
4.032512e-11
2.207286e-10
7.848803e-11
2.164947e-10
1.151559e-10
2.097409e-10
1.501573e-10
2.02803e-10
1.817419e-10
1.876155e-10
2.100082e-10
1.719779e-10
1.539726e-10
2.346947e-10
3.710512e-11
1.852741e-10
7.200648e-11
1.818492e-10
1.053747e-10
1.764528e-10
1.370097e-10
1.707636e-10
1.653799e-10
1.583589e-10
1.906234e-10
1.453385e-10
1.301488e-10
2.125543e-10
3.455127e-11
1.527236e-10
6.676342e-11
1.501687e-10
9.730681e-11
1.461869e-10
1.259809e-10
1.418093e-10
1.514882e-10
1.320301e-10
1.740235e-10
1.214317e-10
1.088094e-10
1.93473e-10
3.268501e-11
1.224799e-10
6.274471e-11
1.20952e-10
9.087023e-11
1.185267e-10
1.16913e-10
1.15569e-10
1.398358e-10
1.082947e-10
1.599137e-10
9.99459e-11
8.965887e-11
1.771194e-10
3.157963e-11
9.391582e-11
5.997682e-11
9.374228e-11
8.597771e-11
9.314336e-11
1.096533e-10
9.170381e-11
1.301964e-10
8.685851e-11
1.480184e-10
8.05926e-11
7.239706e-11
1.631952e-10
3.137445e-11
6.632282e-11
5.858414e-11
6.806596e-11
8.239048e-11
6.999164e-11
1.040387e-10
6.973693e-11
1.22351e-10
6.743033e-11
1.380745e-10
6.308152e-11
6.259597e-11
1.456e-10
3.227624e-11
3.883858e-11
5.862472e-11
4.348372e-11
8.107937e-11
4.798093e-11
9.99943e-11
5.011888e-11
1.16059e-10
4.979602e-11
1.247581e-10
5.223636e-11
4.804512e-11
1.367128e-10
3.468827e-11
1.010808e-11
6.027577e-11
1.946071e-11
8.069526e-11
2.73064e-11
9.717644e-11
3.213189e-11
1.06753e-10
3.799879e-11
1.188749e-10
3.74024e-11
3.450219e-11
1.29349e-10
3.934397e-11
-2.265435e-11
6.388716e-11
-4.907388e-12
8.165841e-11
7.59406e-12
9.190522e-11
1.912247e-11
1.036981e-10
2.296601e-11
1.141778e-10
2.342251e-11
2.162116e-11
1.234284e-10
4.862864e-11
-7.381452e-11
7.036484e-11
-3.331536e-11
8.148117e-11
-8.258477e-12
9.200437e-11
3.86293e-12
1.016149e-10
8.764829e-12
1.106789e-10
9.963888e-12
9.096838e-12
1.189562e-10
7.410105e-11
-1.800519e-10
8.28109e-11
-7.1322e-11
8.724635e-11
-2.522614e-11
9.327671e-11
-9.22224e-12
1.005995e-10
-4.503421e-12
1.084315e-10
-3.134176e-12
-3.292377e-12
1.159976e-10
1.382887e-10
1.166235e-10
9.724539e-11
9.542116e-11
1.005342e-10
1.075088e-10
1.146738e-10
1.207116e-10
-2.700975e-11
1.263714e-10
-2.53584e-11
6.569423e-11
-2.372012e-11
6.551236e-11
6.640393e-11
-9.067685e-12
-6.71e-11
6.753259e-11
-8.670119e-12
-6.785454e-11
6.782147e-11
-8.445565e-12
-6.709545e-11
6.226071e-11
-7.666638e-12
1.224465e-10
-3.858157e-11
1.281494e-10
-3.525997e-11
6.706365e-11
-3.128649e-11
6.519387e-11
1.081643e-11
6.709257e-11
-1.155588e-11
9.677759e-12
-6.790749e-11
6.840822e-11
-1.071001e-11
9.039276e-12
-6.880526e-11
6.893945e-11
-9.660552e-12
8.704455e-12
-6.865054e-11
6.530167e-11
-8.873408e-12
1.263096e-10
-5.03832e-11
1.325838e-10
-4.558119e-11
1.384945e-10
-4.052764e-11
7.01908e-11
-1.654941e-11
1.392969e-11
1.417431e-11
7.08336e-11
-1.670937e-11
1.189247e-11
7.050883e-11
-1.273714e-11
1.029574e-11
-7.090744e-11
7.107327e-11
-1.096801e-11
8.714314e-12
-7.079415e-11
6.74293e-11
-8.911191e-12
1.320425e-10
-6.244869e-11
1.384981e-10
-5.587245e-11
6.970761e-11
-4.821062e-11
7.32093e-11
7.224227e-11
-1.970189e-11
1.431937e-11
-7.315788e-11
7.368743e-11
-1.540742e-11
1.170259e-11
-7.416915e-11
7.436985e-11
-1.242975e-11
9.220489e-12
-7.410615e-11
7.062536e-11
-9.436843e-12
1.397983e-10
-7.507049e-11
1.471879e-10
-6.684395e-11
7.616745e-11
-5.756938e-11
7.727636e-11
2.156202e-11
7.676674e-11
-2.275775e-11
1.658617e-11
-7.756127e-11
7.816006e-11
-1.775118e-11
1.315002e-11
-7.863326e-11
7.880138e-11
-1.386959e-11
9.630161e-12
-7.846395e-11
7.475432e-11
-9.797682e-12
1.493626e-10
-8.848615e-11
1.576653e-10
-7.846908e-11
8.151041e-11
-6.723108e-11
8.287971e-11
2.528468e-11
8.21568e-11
-2.649537e-11
1.898784e-11
8.373605e-11
-2.023538e-11
-8.30705e-11
1.459809e-11
-8.424256e-11
8.439946e-11
-1.534057e-11
9.927669e-12
-8.400404e-11
8.002796e-11
-1.006907e-11
1.607762e-10
-1.029894e-10
1.701965e-10
-9.098418e-11
8.80416e-11
-7.756404e-11
8.969002e-11
8.865493e-11
-3.048461e-11
2.932659e-11
2.16291e-11
-8.881154e-11
9.048856e-11
-2.387065e-11
1.610904e-11
-9.106315e-11
9.122548e-11
-1.689968e-11
1.026128e-11
-9.078097e-11
8.650365e-11
-1.040007e-11
1.741642e-10
-1.111777e-10
1.849533e-10
-1.046799e-10
9.583426e-11
-8.886033e-11
9.771975e-11
3.362497e-11
9.654342e-11
-3.486791e-11
2.538468e-11
9.855793e-11
-2.691168e-11
-9.759693e-11
1.772392e-11
-9.918204e-11
9.936406e-11
-1.858429e-11
1.050804e-11
-9.886975e-11
9.423463e-11
-1.064984e-11
1.984053e-10
-1.283037e-10
2.02101e-10
-1.111875e-10
1.048977e-10
-1.013368e-10
1.070557e-10
1.056827e-10
-3.969215e-11
3.837404e-11
2.856989e-11
-1.068899e-10
1.0799e-10
-3.025831e-11
1.949648e-11
-1.087015e-10
1.089258e-10
-2.045597e-11
1.083162e-11
-1.084099e-10
1.034116e-10
-1.104333e-11
2.1813e-10
-1.474002e-10
2.314859e-10
-1.273253e-10
1.153741e-10
-1.056661e-10
1.178121e-10
4.363614e-11
1.162608e-10
-4.506322e-11
3.209414e-11
-1.176474e-10
1.189069e-10
-3.39717e-11
2.147444e-11
-1.197241e-10
1.199937e-10
-2.254458e-11
1.126566e-11
-1.194395e-10
1.139903e-10
-1.152788e-11
2.409288e-10
-1.688072e-10
2.562146e-10
-1.453742e-10
1.324207e-10
-1.202489e-10
1.356971e-10
4.953255e-11
1.284633e-10
-4.613396e-11
3.601981e-11
-1.300237e-10
1.314609e-10
-3.81134e-11
2.367158e-11
-1.324001e-10
1.327168e-10
-2.486268e-11
1.175599e-11
-1.320842e-10
1.260068e-10
-1.196242e-11
2.671609e-10
-1.928378e-10
2.84644e-10
-1.656564e-10
1.472866e-10
-1.36617e-10
1.509837e-10
5.095678e-11
1.479976e-10
-5.226149e-11
4.041523e-11
-1.495262e-10
1.457467e-10
-3.734651e-11
2.612494e-11
-1.469511e-10
1.473355e-10
-2.7468e-11
1.217409e-11
-1.466481e-10
1.399158e-10
-1.239445e-11
2.972712e-10
-2.198432e-10
3.171979e-10
-1.88459e-10
1.642832e-10
-1.550255e-10
1.684802e-10
5.772646e-11
1.650944e-10
-5.916866e-11
3.964001e-11
-1.668448e-10
1.684075e-10
-4.198099e-11
2.891235e-11
-1.693434e-10
1.640274e-10
-2.466135e-11
1.262928e-11
-1.634608e-10
1.560585e-10
-1.295614e-11
3.317241e-10
-2.501888e-10
3.543832e-10
-2.141057e-10
1.836755e-10
-1.757279e-10
1.884318e-10
6.535442e-11
1.845943e-10
-6.694949e-11
4.457833e-11
-1.866086e-10
1.884176e-10
-4.723422e-11
2.600847e-11
-1.895339e-10
1.898168e-10
-2.748868e-11
1.353161e-11
-1.88835e-10
1.750896e-10
-8.450111e-12
3.710829e-10
-2.843189e-10
3.967822e-10
-2.42935e-10
2.057551e-10
-1.990016e-10
2.11156e-10
7.394339e-11
2.067771e-10
-7.569415e-11
5.01605e-11
-2.090571e-10
2.110977e-10
-5.312636e-11
2.907355e-11
-2.123477e-10
2.126654e-10
-3.072134e-11
8.998947e-12
-2.116892e-10
2.036021e-10
-1.04337e-11
4.1594e-10
-3.226995e-10
4.4508e-10
-2.753747e-10
2.308798e-10
-2.251452e-10
2.370036e-10
8.356665e-11
2.320036e-10
-8.547899e-11
5.637538e-11
-2.345619e-10
2.368245e-10
-5.965187e-11
3.226241e-11
-2.381623e-10
2.383326e-10
-3.391064e-11
9.239798e-12
-2.367086e-10
2.261587e-10
-9.236979e-12
4.670164e-10
-3.65906e-10
5.00051e-10
-3.119039e-10
2.595152e-10
-2.546694e-10
2.664969e-10
9.433633e-11
2.605835e-10
-9.62615e-11
6.330518e-11
-2.632073e-10
2.660542e-10
-6.728322e-11
3.565111e-11
-2.676366e-10
2.678643e-10
-3.752592e-11
9.317147e-12
-2.660769e-10
2.543659e-10
-9.343004e-12
5.250434e-10
-4.145445e-10
5.624606e-10
-3.530352e-10
2.918902e-10
-2.878016e-10
2.998889e-10
1.069119e-10
2.932767e-10
-1.092221e-10
6.731184e-11
-2.969137e-10
2.994063e-10
-7.120126e-11
3.938824e-11
-3.01182e-10
3.014219e-10
-4.146577e-11
9.330685e-12
-2.993704e-10
2.863387e-10
-9.357048e-12
5.909513e-10
-4.69374e-10
6.333546e-10
-3.993976e-10
3.287986e-10
-3.251567e-10
3.378155e-10
1.204677e-10
3.304548e-10
-1.23128e-10
7.55408e-11
-3.345831e-10
3.373295e-10
-7.984274e-11
4.364215e-11
-3.392255e-10
3.394753e-10
-4.594463e-11
9.315267e-12
-3.371273e-10
3.225825e-10
-9.304144e-12
6.656856e-10
-5.312619e-10
7.137984e-10
-4.517418e-10
3.7067e-10
-3.673206e-10
3.808828e-10
1.358908e-10
3.725274e-10
-1.388413e-10
8.466516e-11
-3.772304e-10
3.802997e-10
-8.945696e-11
4.835444e-11
-3.824218e-10
3.826961e-10
-5.092024e-11
9.183499e-12
-3.799873e-10
3.637544e-10
-9.155893e-12
7.503559e-10
-6.011426e-10
8.050475e-10
-5.109674e-10
4.182226e-10
-4.150636e-10
4.29807e-10
1.532585e-10
4.202694e-10
-1.56497e-10
9.484902e-11
-4.255479e-10
4.290118e-10
-1.002226e-10
5.36031e-11
-4.314008e-10
4.317217e-10
-5.648305e-11
9.023412e-12
-4.286318e-10
4.104971e-10
-8.96285e-12
8.461584e-10
-6.8013e-10
9.084272e-10
-5.78105e-10
4.725659e-10
-4.701037e-10
4.857464e-10
1.727107e-10
4.743161e-10
-1.757631e-10
1.062589e-10
-4.802365e-10
4.841664e-10
-1.123102e-10
5.948897e-11
-4.868815e-10
4.87258e-10
-6.272858e-11
8.84046e-12
-4.837315e-10
4.634595e-10
-8.749635e-12
9.542451e-10
-7.693489e-10
1.024423e-09
-6.535128e-10
5.387184e-10
-5.285792e-10
5.386239e-10
1.929384e-10
5.331275e-10
-1.887826e-10
1.191865e-10
-5.418994e-10
5.462099e-10
-1.25864e-10
6.616021e-11
-5.495566e-10
5.501881e-10
-7.000005e-11
8.614184e-12
-5.46185e-10
5.235463e-10
-8.515459e-12
1.076608e-09
-8.719223e-10
1.157964e-09
-7.40538e-10
1.229737e-09
-6.066466e-10
6.219329e-10
-2.220137e-10
1.97281e-10
2.039936e-10
6.39609e-10
-2.18222e-10
1.42397e-10
6.293789e-10
-1.520326e-10
7.350005e-11
-6.222065e-10
6.219166e-10
-7.681561e-11
8.300551e-12
-6.17112e-10
5.917593e-10
-8.13184e-12
1.213729e-09
-9.861981e-10
1.301597e-09
-8.344964e-10
6.580479e-10
-6.727662e-10
7.031215e-10
6.898898e-10
-2.556566e-10
1.715292e-10
-6.930931e-10
6.989622e-10
-1.798619e-10
8.162087e-11
-7.01855e-10
7.026845e-10
-8.648988e-11
7.854127e-12
-6.974178e-10
6.690745e-10
-7.637536e-12
1.371421e-09
-1.117571e-09
1.474168e-09
-9.438593e-10
7.68761e-10
-7.648532e-10
7.903846e-10
2.812435e-10
7.736934e-10
-2.880192e-10
1.906121e-10
-7.834562e-10
7.918527e-10
-2.017373e-10
9.139401e-11
-7.944682e-10
7.950888e-10
-9.654872e-11
7.277239e-12
-7.88856e-10
7.570766e-10
-6.948627e-12
1.550703e-09
-1.274042e-09
1.665077e-09
-1.065467e-09
8.673719e-10
-8.668459e-10
8.919562e-10
3.183748e-10
8.731729e-10
-3.261716e-10
2.144105e-10
-8.853923e-10
8.952266e-10
-2.272657e-10
1.019208e-10
-8.988475e-10
8.994786e-10
-1.076642e-10
6.480895e-12
-8.925546e-10
8.570482e-10
-6.144033e-12
1.759186e-09
-1.491683e-09
1.876713e-09
-5.918249e-10
-5.992019e-10
9.786747e-10
-5.061753e-10
1.005806e-09
-4.771414e-10
3.611197e-10
9.862944e-10
-3.709222e-10
2.43955e-10
-1.001349e-09
1.015405e-09
-2.613098e-10
9.501021e-11
-1.0423e-09
1.020451e-09
-7.967262e-11
5.466418e-12
-1.01094e-09
9.709565e-10
-4.787059e-12
9.303966e-10
-1.671456e-09
9.978702e-10
1.004543e-09
-6.679615e-10
-1.024597e-09
1.072126e-09
-5.563012e-10
4.121868e-10
-1.093327e-09
1.11248e-09
-4.340609e-10
2.789998e-10
-1.132497e-09
1.147708e-09
-2.978466e-10
8.37619e-11