/*--------------------------------*- C++ -*----------------------------------*\
| =========                 |                                                 |
| \\      /  F ield         | OpenFOAM: The Open Source CFD Toolbox           |
|  \\    /   O peration     | Version:  2206                                  |
|   \\  /    A nd           | Website:  www.openfoam.com                      |
|    \\/     M anipulation  |                                                 |
\*---------------------------------------------------------------------------*/
FoamFile
{
    version     2.0;
    format      ascii;
    arch        "LSB;label=32;scalar=64";
    class       surfaceScalarField;
    location    "2.2";
    object      phi.a;
}
// * * * * * * * * * * * * * * * * * * * * * * * * * * * * * * * * * * * * * //

dimensions      [0 3 -1 0 0 0 0];

oriented        oriented;

internalField   nonuniform List<scalar> 
26037
(
-2.819915e-10
-5.36021e-11
-1.257216e-10
-3.165412e-11
-6.853787e-11
-1.159653e-11
-4.41862e-11
-5.084931e-12
-3.311617e-11
-2.980202e-12
-2.582599e-11
-2.056729e-12
-1.612652e-12
-2.022374e-11
-1.31238e-10
-9.475459e-11
-8.825209e-11
-5.58651e-11
-5.544631e-11
-2.319245e-11
-4.070005e-11
-1.15016e-11
-3.178217e-11
-6.831123e-12
-2.51037e-11
-4.505174e-12
-3.254037e-12
-1.979307e-11
-3.997157e-11
-2.78999e-11
-4.584594e-11
-2.78291e-11
-3.982634e-11
-2.018637e-11
-3.37406e-11
-1.244118e-11
-2.789673e-11
-8.339341e-12
-2.277367e-11
-5.865013e-12
-4.354443e-12
-1.829748e-11
-1.736277e-11
-8.683886e-12
-2.602582e-11
-1.412024e-11
-2.84315e-11
-1.407598e-11
-2.608817e-11
-1.131169e-11
-2.301713e-11
-8.11253e-12
-1.955484e-11
-6.203326e-12
-4.859147e-12
-1.609027e-11
-9.78579e-12
-3.545765e-12
-1.616742e-11
-7.788233e-12
-1.947734e-11
-9.353981e-12
-2.000526e-11
-8.700476e-12
-1.82418e-11
-7.552577e-12
-1.611102e-11
-5.889939e-12
-4.902407e-12
-1.356021e-11
-6.138036e-12
-1.700514e-12
-1.053886e-11
-4.507316e-12
-1.350698e-11
-6.201172e-12
-1.467208e-11
-6.49088e-12
-1.444902e-11
-6.179081e-12
-1.284873e-11
-5.607584e-12
-4.668756e-12
-1.100632e-11
-4.199858e-12
-9.630528e-13
-7.207626e-12
-2.789893e-12
-9.662526e-12
-4.104671e-12
-1.07369e-11
-4.959266e-12
-1.089177e-11
-4.986868e-12
-1.019936e-11
-4.824784e-12
-4.523992e-12
-8.601028e-12
-3.065086e-12
-6.292545e-13
-5.118938e-12
-1.865613e-12
-6.833748e-12
-2.911461e-12
-7.842096e-12
-3.777857e-12
-8.078753e-12
-4.038768e-12
-7.611955e-12
-4.13438e-12
-4.073412e-12
-6.554375e-12
-2.342685e-12
-4.631012e-13
-3.743798e-12
-1.348466e-12
-4.966455e-12
-2.180232e-12
-5.709288e-12
-2.968992e-12
-5.868275e-12
-3.338635e-12
-5.453664e-12
-3.58254e-12
-3.683482e-12
-4.525729e-12
-1.84872e-12
-3.769075e-13
-2.782694e-12
-1.053079e-12
-3.619385e-12
-1.731014e-12
-4.093014e-12
-2.43375e-12
-4.111984e-12
-2.846943e-12
-3.657942e-12
-3.17311e-12
-3.380249e-12
-2.75668e-12
-1.489391e-12
-3.334714e-13
-2.074025e-12
-8.85252e-13
-2.601616e-12
-1.459396e-12
-2.830758e-12
-2.090692e-12
-2.689442e-12
-2.519677e-12
-2.147851e-12
-2.892124e-12
-3.1695e-12
-1.21394e-12
-1.213559e-12
-3.15363e-13
-1.524588e-12
-7.949412e-13
-1.799033e-12
-1.303132e-12
-1.811259e-12
-1.883418e-12
-1.507864e-12
-2.319742e-12
-8.55613e-13
-2.720801e-12
-3.04724e-12
1.46019e-13
-9.901648e-13
-3.135563e-13
-1.077537e-12
-7.547559e-13
-1.138678e-12
-1.224801e-12
-9.577688e-13
-1.773835e-12
-4.976173e-13
-2.218903e-12
2.751051e-13
-2.64153e-12
-3.005802e-12
1.364296e-12
-8.00469e-13
-3.231124e-13
-6.966603e-13
-7.491356e-13
-5.719343e-13
-1.200581e-12
-2.195262e-13
-1.728005e-12
3.935529e-13
-2.192298e-12
1.289992e-12
-2.638496e-12
-3.037098e-12
2.477641e-12
-6.318293e-13
-3.413506e-13
-3.578483e-13
-7.692845e-13
-6.632381e-14
-1.217432e-12
4.106968e-13
-1.711829e-12
1.205017e-12
-2.260388e-12
2.227092e-12
-2.706569e-12
-3.135165e-12
3.518459e-12
-4.752682e-13
-3.667218e-13
-4.320958e-14
-8.098499e-13
4.06983e-13
-1.269775e-12
1.061021e-12
-1.780241e-12
1.972844e-12
-2.352612e-12
3.11634e-12
-2.831792e-12
-3.295135e-12
4.515447e-12
-3.238546e-13
-3.984837e-13
2.607183e-13
-8.674295e-13
8.626036e-13
-1.349169e-12
1.664517e-12
-1.886533e-12
2.716855e-12
-2.488182e-12
3.985508e-12
-3.010413e-12
-3.513505e-12
5.495302e-12
-1.722124e-13
-4.363867e-13
5.649955e-13
-9.405138e-13
1.318613e-12
-1.453444e-12
2.267601e-12
-2.02778e-12
3.463347e-12
-2.668402e-12
4.859878e-12
-3.241452e-12
-3.789085e-12
6.483418e-12
-1.531343e-14
-4.804114e-13
8.795326e-13
-1.028188e-12
1.78973e-12
-1.580779e-12
2.890406e-12
-2.200195e-12
4.230705e-12
-2.879692e-12
5.763243e-12
-3.516653e-12
-4.120946e-12
7.504677e-12
1.515794e-13
-5.305649e-13
1.213718e-12
-1.130119e-12
2.289581e-12
-1.730884e-12
3.549903e-12
-2.404818e-12
5.015627e-12
-3.123311e-12
6.719985e-12
-3.851861e-12
-4.516782e-12
8.58501e-12
3.335391e-13
-5.869439e-13
1.577328e-12
-1.246016e-12
2.832417e-12
-1.90314e-12
4.266201e-12
-2.642992e-12
5.884857e-12
-3.432258e-12
7.754042e-12
-4.234801e-12
-4.974706e-12
9.748956e-12
5.354877e-13
-6.496173e-13
1.980554e-12
-1.375197e-12
3.433291e-12
-2.095974e-12
5.056538e-12
-2.910542e-12
6.850909e-12
-3.780547e-12
8.889699e-12
-4.665856e-12
-5.496624e-12
1.102508e-11
7.627422e-13
-7.184238e-13
2.433775e-12
-1.516605e-12
4.107981e-12
-2.307752e-12
5.942545e-12
-3.205984e-12
7.933422e-12
-4.166667e-12
1.01528e-11
-5.131739e-12
-6.075388e-12
1.244762e-11
1.021169e-12
-7.929776e-13
2.948584e-12
-1.668557e-12
4.873321e-12
-2.535746e-12
6.9465e-12
-3.526957e-12
9.1608e-12
-4.593103e-12
1.157498e-11
-5.673612e-12
-6.689704e-12
1.405922e-11
1.316915e-12
-8.725278e-13
3.537508e-12
-1.828147e-12
5.748556e-12
-2.775366e-12
8.093977e-12
-3.867823e-12
1.056049e-11
-5.051969e-12
1.313776e-11
-6.261229e-12
-7.405261e-12
1.589723e-11
1.656584e-12
-9.559709e-13
4.213876e-12
-1.991223e-12
6.754115e-12
-3.019471e-12
9.412944e-12
-4.219044e-12
1.217145e-11
-5.533019e-12
1.500685e-11
-6.887863e-12
-8.184323e-12
1.801639e-11
2.046369e-12
-1.041808e-12
4.990847e-12
-2.152822e-12
7.910973e-12
-3.25954e-12
1.093363e-11
-4.56897e-12
1.403377e-11
-6.023159e-12
1.718159e-11
-7.541339e-12
-8.994535e-12
2.047405e-11
2.491091e-12
-1.1285e-12
5.880296e-12
-2.30798e-12
9.237747e-12
-3.48543e-12
1.268368e-11
-4.903146e-12
1.618621e-11
-6.50445e-12
1.971675e-11
-8.213723e-12
-9.968753e-12
2.340802e-11
2.993671e-12
-1.212117e-12
6.889182e-12
-2.448278e-12
1.074789e-11
-3.686433e-12
1.468395e-11
-5.203859e-12
1.865775e-11
-6.951133e-12
2.262649e-11
-8.854234e-12
-1.085266e-11
2.647735e-11
3.547164e-12
-1.29139e-12
8.01927e-12
-2.554935e-12
1.244411e-11
-3.853627e-12
1.694283e-11
-5.456717e-12
2.146644e-11
-7.336463e-12
2.596385e-11
-9.428901e-12
-1.166901e-11
3.02769e-11
4.121315e-12
-1.376293e-12
9.243548e-12
-2.661047e-12
1.430745e-11
-3.982906e-12
1.94439e-11
-5.656762e-12
2.460504e-11
-7.644212e-12
2.973e-11
-9.906456e-12
-1.241043e-11
3.465789e-11
4.748006e-12
-1.473286e-12
1.057849e-11
-2.830425e-12
1.630961e-11
-3.969636e-12
2.213961e-11
-5.779188e-12
2.80235e-11
-7.871618e-12
3.388906e-11
-1.026329e-11
-1.297555e-11
3.955111e-11
5.365932e-12
-1.594894e-12
1.172437e-11
-2.998199e-12
1.849555e-11
-4.302326e-12
2.494651e-11
-5.584453e-12
3.160682e-11
-8.020169e-12
3.832626e-11
-1.04912e-11
-1.333169e-11
4.489053e-11
5.924959e-12
-1.763113e-12
1.287953e-11
-3.253375e-12
2.001831e-11
-4.565369e-12
2.761766e-11
-5.731603e-12
3.513915e-11
-8.12742e-12
4.279821e-11
-1.058415e-11
-1.341633e-11
5.042852e-11
6.350885e-12
-2.004974e-12
1.382338e-11
-3.668392e-12
2.158828e-11
-5.006287e-12
3.045235e-11
-6.551545e-12
3.840093e-11
-7.527032e-12
4.69044e-11
-1.038537e-11
-1.315198e-11
5.564417e-11
6.556318e-12
-2.346286e-12
1.43772e-11
-4.285125e-12
2.260849e-11
-5.621748e-12
3.136258e-11
-7.05468e-12
4.163162e-11
-8.544952e-12
5.010287e-11
-8.839582e-12
-1.248248e-11
5.969494e-11
6.463321e-12
-2.80092e-12
1.441444e-11
-5.086538e-12
2.29461e-11
-6.38722e-12
3.189445e-11
-7.582624e-12
4.120442e-11
-8.818363e-12
5.132003e-11
-8.683052e-12
-1.187056e-11
6.132561e-11
6.047427e-12
-3.359453e-12
1.387094e-11
-6.007734e-12
2.239799e-11
-7.279589e-12
3.118342e-11
-8.336929e-12
4.007482e-11
-9.530445e-12
5.105861e-11
-1.09097e-11
-1.094231e-11
5.908134e-11
5.336848e-12
-3.977168e-12
1.266659e-11
-7.012789e-12
2.064036e-11
-8.421691e-12
2.850399e-11
-9.657247e-12
3.591153e-11
-1.12552e-11
4.330999e-11
-1.359398e-11
-1.624167e-11
5.169678e-11
4.288951e-12
-4.56862e-12
1.057916e-11
-8.123121e-12
1.717925e-11
-1.002175e-11
2.317999e-11
-1.205051e-11
2.832844e-11
-1.506101e-11
3.311908e-11
-2.042827e-11
-3.362574e-11
3.790629e-11
2.855262e-12
-5.141004e-12
7.120366e-12
-9.232054e-12
1.134069e-11
-1.234905e-11
1.449382e-11
-1.61145e-11
1.633855e-11
-2.263387e-11
1.519974e-11
-3.85035e-11
-1.104219e-10
-3.014816e-11
8.642709e-13
-5.601907e-12
2.105857e-12
-1.034924e-11
1.988167e-12
-1.497422e-11
1.235071e-12
-2.34727e-11
-4.704225e-12
-3.9052e-11
-9.850555e-11
-1.082973e-10
-3.234985e-10
-5.320358e-10
-1.93983e-12
-5.803387e-12
-4.863043e-12
-1.149521e-11
-9.99713e-12
-1.856153e-11
-2.278474e-11
-3.386691e-11
-1.25421e-10
-9.737909e-11
-6.305642e-10
-2.876709e-10
-5.79003e-10
-1.615398e-09
-5.780794e-12
-5.716781e-12
-1.410597e-11
-1.297308e-11
-2.862079e-11
-2.496387e-11
-1.155666e-10
-5.91829e-11
-6.46125e-10
-1.970799e-10
-1.696321e-09
-6.289721e-10
-7.497918e-10
-3.107181e-09
-1.087249e-11
-5.524185e-12
-2.787223e-11
-1.617102e-11
-8.841447e-11
-3.791501e-11
-5.018448e-10
-1.151657e-10
-1.551824e-09
-3.212255e-10
-3.345303e-09
-5.935218e-10
-1.196345e-09
-4.868795e-09
-1.746563e-11
-5.869434e-12
-5.469642e-11
-2.115601e-11
-3.313725e-10
-6.257602e-11
-1.287119e-09
-2.502895e-10
-2.817551e-09
-4.358202e-10
-4.714843e-09
-5.625225e-10
-6.90144e-10
-7.448349e-09
-2.752445e-11
-6.868268e-12
-1.668526e-10
-2.941843e-11
-8.547778e-10
-9.828315e-11
-2.427035e-09
-2.594771e-10
-4.278443e-09
-6.874021e-10
-6.450567e-09
-5.601463e-10
-6.469372e-10
-8.840074e-09
-5.119075e-11
-8.265414e-12
-4.683082e-10
-4.151007e-11
-1.637502e-09
-1.330755e-10
-3.463544e-09
-2.580431e-10
-6.131092e-09
-3.602551e-10
-8.892675e-09
-3.945281e-10
-1.452639e-09
-1.106713e-08
-1.443788e-10
-9.279046e-12
-9.403798e-10
-5.504315e-11
-2.519307e-09
-1.47836e-10
-4.652537e-09
-2.326181e-10
-7.137853e-09
-2.625017e-10
-9.898002e-09
-2.485648e-10
-3.858079e-10
-1.419696e-08
-3.387213e-10
-1.068135e-11
-1.486009e-09
-6.112614e-11
-3.377585e-09
-1.448664e-10
-5.766328e-09
-1.848268e-10
-8.47384e-09
-1.856189e-10
-1.145151e-08
-1.574154e-10
-1.186494e-10
-1.485912e-08
-6.505758e-10
1.768673e-12
-2.168276e-09
-9.86489e-12
-4.15388e-09
-2.535916e-10
-6.746609e-09
-1.423112e-10
-9.712224e-09
-9.258786e-11
-1.298656e-08
-5.824421e-11
-1.316612e-10
-1.638786e-08
-9.86898e-10
1.598085e-11
-2.69342e-09
5.138134e-11
-5.318333e-09
9.197738e-11
-8.456081e-09
9.389267e-11
-1.217456e-08
2.838214e-10
-1.63429e-08
3.368481e-10
-1.523278e-09
-1.903105e-08
-1.28015e-09
2.889262e-11
-3.136832e-09
9.626044e-11
-5.605181e-09
1.921566e-10
-8.627313e-09
3.123077e-10
-1.198778e-08
4.702013e-10
-1.576404e-08
6.088385e-10
9.08603e-11
-2.146182e-08
-1.483317e-09
3.944354e-11
-3.45251e-09
1.294802e-10
-5.992637e-09
2.450058e-10
-8.975007e-09
3.88723e-10
-1.232061e-08
5.55319e-10
-1.602052e-08
7.324366e-10
8.29284e-10
-2.064814e-08
-1.623099e-09
5.439018e-11
-3.688624e-09
1.74899e-10
-6.356244e-09
3.187902e-10
-9.502362e-09
4.917885e-10
-1.307081e-08
6.889357e-10
-1.70288e-08
9.013843e-10
1.113589e-09
-2.138205e-08
-1.738585e-09
7.963211e-11
-3.927887e-09
2.555392e-10
-6.810465e-09
4.61526e-10
-1.027357e-08
7.053467e-10
-1.427615e-08
9.812303e-10
-1.879799e-08
1.283697e-09
1.603262e-09
-2.376519e-08
-1.692733e-09
9.188088e-11
-3.862612e-09
3.04314e-10
-6.756635e-09
5.663014e-10
-1.024313e-08
8.782135e-10
-1.427138e-08
1.230891e-09
-1.881722e-08
1.621759e-09
2.047413e-09
-2.380518e-08
-1.495469e-09
8.727899e-11
-3.492572e-09
2.99655e-10
-6.170441e-09
5.784871e-10
-9.357918e-09
9.132799e-10
-1.29684e-08
1.288954e-09
-1.695945e-08
1.706305e-09
2.239514e-09
-2.133995e-08
-1.295157e-09
7.721623e-11
-3.136901e-09
2.740259e-10
-5.668327e-09
5.516779e-10
-8.705492e-09
8.959671e-10
-1.211308e-08
1.262988e-09
-1.586448e-08
1.698515e-09
2.839951e-09
-2.056535e-08
-1.061173e-09
6.109382e-11
-2.725459e-09
2.290226e-10
-5.144445e-09
5.13457e-10
-8.234023e-09
9.429251e-10
-1.169647e-08
1.252256e-09
-1.557204e-08
1.741342e-09
4.230341e-09
-2.142558e-08
-7.724304e-10
4.359315e-11
-2.218074e-09
1.833447e-10
-4.697391e-09
6.357854e-10
-7.909454e-09
9.175872e-10
-1.176983e-08
1.349469e-09
-1.606333e-08
1.840516e-09
2.480319e-09
-1.883007e-08
-4.765479e-10
2.794201e-11
-1.691647e-09
1.413762e-10
-3.458881e-09
3.909887e-10
-6.037461e-09
7.59813e-10
-9.10954e-09
1.206269e-09
-1.248914e-08
1.669235e-09
2.156383e-09
-1.598206e-08
-2.255884e-10
1.313449e-11
-1.094571e-09
8.790802e-11
-2.668346e-09
2.726302e-10
-4.950328e-09
5.90461e-10
-7.749482e-09
1.013096e-09
-1.084674e-08
1.452953e-09
2.079175e-09
-1.43583e-08
-8.287565e-11
3.374179e-12
-6.593005e-10
4.189214e-11
-1.876996e-09
1.66343e-10
-3.784278e-09
4.114239e-10
-6.302108e-09
8.1629e-10
-9.185836e-09
1.265332e-09
2.775113e-09
-1.357727e-08
-2.073262e-11
1.840474e-12
-2.997428e-10
1.345743e-11
-1.139857e-09
8.011267e-11
-2.62837e-09
2.580409e-10
-5.172633e-09
8.133963e-10
-8.04415e-09
1.121841e-09
1.632821e-09
-1.031953e-08
-1.122617e-11
1.563552e-12
-8.371954e-11
2.100248e-12
-5.430797e-10
2.631922e-11
-1.700791e-09
1.738938e-10
-3.37007e-09
4.053758e-10
-5.591354e-09
8.09516e-10
1.316759e-09
-8.074778e-09
-6.570441e-12
1.770139e-12
-1.580517e-11
1.762165e-12
-1.783895e-10
6.10358e-12
-8.404077e-10
5.492716e-11
-2.046502e-09
1.961275e-10
-3.840708e-09
5.216869e-10
1.314629e-09
-6.513223e-09
-2.781963e-12
2.194556e-12
-7.06688e-12
1.594265e-12
-3.097984e-11
1.431484e-12
-2.904033e-10
1.093009e-11
-1.005877e-09
7.114191e-11
-2.44466e-09
3.202251e-10
6.734466e-10
-4.125276e-09
-1.228047e-15
2.454554e-12
-5.774297e-13
1.729286e-12
-2.89111e-12
7.231439e-13
-4.423095e-11
1.531487e-12
-3.488696e-10
1.837694e-11
-1.105744e-09
8.872027e-11
3.279166e-10
-2.416046e-09
1.876203e-12
2.504209e-12
4.19809e-12
1.879657e-12
5.543465e-12
3.799557e-13
5.69081e-12
-4.442847e-13
-4.656389e-11
1.328872e-12
-3.334503e-10
1.505196e-11
9.083376e-11
-1.029142e-09
3.140392e-12
2.412819e-12
7.578687e-12
1.994248e-12
1.213133e-11
3.669191e-14
1.510359e-11
-1.061333e-12
1.72474e-11
-1.121565e-12
-2.385418e-11
2.43585e-13
9.994078e-12
-2.590192e-10
3.999948e-12
2.252365e-12
9.996472e-12
2.014897e-12
1.608458e-11
4.35926e-13
2.170186e-11
-1.073551e-12
2.692962e-11
-2.352027e-12
3.096855e-11
-1.945549e-12
-6.982611e-13
1.405678e-11
4.681335e-12
2.057601e-12
1.129416e-11
2.132832e-12
1.852266e-11
8.960025e-13
2.605203e-11
-7.217295e-13
3.257071e-11
-1.574824e-12
3.915487e-11
-2.134467e-12
-4.921569e-12
4.874855e-11
5.190696e-12
1.858419e-12
1.213251e-11
2.162591e-12
1.977645e-11
1.398193e-12
2.774036e-11
2.482053e-13
3.554768e-11
-2.695856e-13
4.34515e-11
-9.010938e-13
-3.738271e-12
5.156669e-11
5.560451e-12
1.696006e-12
1.262124e-11
2.162208e-12
2.044004e-11
1.74395e-12
2.832916e-11
1.480101e-12
3.664302e-11
1.193403e-12
4.726143e-11
-6.534436e-13
1.274651e-12
5.338678e-11
5.73522e-12
1.587314e-12
1.282722e-11
2.168377e-12
2.022535e-11
2.250982e-12
2.802253e-11
2.427038e-12
3.690097e-11
2.089434e-12
4.465267e-11
2.426533e-12
4.202074e-12
5.248157e-11
5.693479e-12
1.528167e-12
1.255385e-11
2.285217e-12
1.965327e-11
2.699064e-12
2.71252e-11
3.231919e-12
3.545715e-11
3.117968e-12
4.269918e-11
4.990669e-12
6.621022e-12
5.023145e-11
5.487791e-12
1.499253e-12
1.201572e-11
2.468515e-12
1.87311e-11
3.138059e-12
2.642044e-11
3.536829e-12
3.304117e-11
5.049033e-12
4.008537e-11
6.572833e-12
8.421051e-12
4.71117e-11
5.12968e-12
1.485162e-12
1.124696e-11
2.639938e-12
1.748601e-11
3.540861e-12
2.409296e-11
4.275949e-12
3.057168e-11
5.981313e-12
3.709706e-11
7.651879e-12
9.632447e-12
4.350955e-11
4.69873e-12
1.46694e-12
1.036583e-11
2.767898e-12
1.638298e-11
3.70755e-12
2.210109e-11
5.089942e-12
2.79895e-11
6.614335e-12
3.391432e-11
8.332286e-12
1.030406e-11
3.970527e-11
4.231074e-12
1.436537e-12
9.515506e-12
2.803856e-12
1.471621e-11
4.022995e-12
2.00085e-11
5.403012e-12
2.535682e-11
6.942459e-12
3.07072e-11
8.642344e-12
1.05124e-11
3.592063e-11
3.753158e-12
1.391678e-12
8.499799e-12
2.814241e-12
1.319416e-11
4.091558e-12
1.796968e-11
5.49039e-12
2.278818e-11
7.013425e-12
2.760449e-11
8.636274e-12
1.033336e-11
3.230431e-11
3.307854e-12
1.335078e-12
7.547807e-12
2.764891e-12
1.174553e-11
4.036957e-12
1.602824e-11
5.413266e-12
2.035519e-11
6.874484e-12
2.468564e-11
8.384156e-12
9.917249e-12
2.889342e-11
2.869811e-12
1.258157e-12
6.64485e-12
2.647521e-12
1.038873e-11
3.888104e-12
1.421979e-11
5.207549e-12
1.810263e-11
6.576642e-12
2.199969e-11
7.954072e-12
9.3052e-12
2.581892e-11
2.456591e-12
1.168429e-12
5.813729e-12
2.488089e-12
9.14257e-12
3.67108e-12
1.256539e-11
4.910267e-12
1.605175e-11
6.172337e-12
1.957654e-11
7.407231e-12
8.48434e-12
2.330824e-11
2.079535e-12
1.073166e-12
5.057568e-12
2.304107e-12
8.011817e-12
3.409793e-12
1.106894e-11
4.555496e-12
1.420308e-11
5.706325e-12
1.738402e-11
6.815716e-12
7.774555e-12
2.071053e-11
1.738068e-12
9.761761e-13
4.375592e-12
2.106492e-12
6.99363e-12
3.123863e-12
9.725741e-12
4.169814e-12
1.25505e-11
5.210716e-12
1.544219e-11
6.203199e-12
7.042874e-12
1.849456e-11
1.431166e-12
8.804885e-13
3.763213e-12
1.90448e-12
6.080753e-12
2.828628e-12
8.524251e-12
3.774112e-12
1.107653e-11
4.709331e-12
1.37243e-11
5.591441e-12
6.332229e-12
1.65297e-11
1.156168e-12
7.884348e-13
3.214479e-12
1.705507e-12
5.263212e-12
2.536406e-12
7.449323e-12
3.384967e-12
9.761312e-12
4.220525e-12
1.227455e-11
4.980708e-12
5.715995e-12
1.478343e-11
9.093846e-13
7.015992e-13
2.722333e-12
1.514975e-12
4.530152e-12
2.255725e-12
6.484996e-12
3.013157e-12
8.577477e-12
3.76033e-12
1.087708e-11
4.446197e-12
5.089947e-12
1.321368e-11
6.875347e-13
6.208621e-13
2.279655e-12
1.33616e-12
3.870341e-12
1.991999e-12
5.616845e-12
2.664626e-12
7.513943e-12
3.330337e-12
9.630159e-12
3.937706e-12
4.505018e-12
1.180527e-11
4.869222e-13
5.467163e-13
1.879273e-12
1.171104e-12
3.273466e-12
1.748476e-12
4.830826e-12
2.343083e-12
6.552935e-12
2.93285e-12
8.496431e-12
3.470702e-12
3.973795e-12
1.052859e-11
3.042409e-13
4.793688e-13
1.514433e-12
1.021138e-12
2.728906e-12
1.527762e-12
4.112867e-12
2.053598e-12
5.701121e-12
2.579559e-12
7.459227e-12
3.067454e-12
3.500173e-12
9.358532e-12
1.357726e-13
4.188221e-13
1.177502e-12
8.868544e-13
2.225242e-12
1.331093e-12
3.447943e-12
1.797454e-12
4.892312e-12
2.274123e-12
6.49521e-12
2.703018e-12
3.084379e-12
8.273045e-12
-2.224915e-14
3.649673e-13
8.611332e-13
7.68455e-13
1.751945e-12
1.158747e-12
2.822991e-12
1.573326e-12
4.121724e-12
2.00139e-12
5.590644e-12
2.380702e-12
2.72241e-12
7.252194e-12
-1.734779e-13
3.177336e-13
5.582031e-13
6.664464e-13
1.29864e-12
1.012032e-12
2.224229e-12
1.384303e-12
3.381128e-12
1.772726e-12
4.724068e-12
2.109492e-12
2.415789e-12
6.274235e-12
-3.217034e-13
2.771864e-13
2.611448e-13
5.815345e-13
8.538685e-13
8.917784e-13
1.636753e-12
1.229929e-12
2.655237e-12
1.586219e-12
3.875783e-12
1.889499e-12
2.165297e-12
5.31789e-12
-4.710464e-13
2.435478e-13
-3.841213e-14
5.156086e-13
4.04281e-13
8.034161e-13
1.037103e-12
1.137423e-12
1.924182e-12
1.439532e-12
3.024774e-12
1.724706e-12
1.973493e-12
4.361525e-12
-6.267253e-13
2.175241e-13
-3.507989e-13
4.715645e-13
-6.279054e-14
7.503898e-13
4.386329e-13
1.082961e-12
1.168227e-12
1.361506e-12
2.148536e-12
1.622446e-12
1.84379e-12
3.382793e-12
-7.950237e-13
2.005411e-13
-6.885362e-13
4.543095e-13
-5.667651e-13
7.395987e-13
-2.23024e-13
1.079892e-12
3.638084e-13
1.344227e-12
1.223341e-12
1.586684e-12
1.780816e-12
2.357606e-12
-9.844992e-13
1.952509e-13
-1.067939e-12
4.729075e-13
-1.130454e-12
7.856562e-13
-9.59539e-13
1.151025e-12
-5.200089e-13
1.406613e-12
2.189644e-13
1.629567e-12
1.791462e-12
1.258943e-12
-1.206831e-12
2.064853e-13
-1.512487e-12
5.422814e-13
-1.786555e-12
9.104808e-13
-1.806826e-12
1.320475e-12
-1.521716e-12
1.568258e-12
-9.003021e-13
1.765083e-12
1.883478e-12
5.585864e-14
-1.48081e-12
2.428751e-13
-2.057577e-12
6.885005e-13
-2.58232e-12
1.149927e-12
-2.817185e-12
1.624524e-12
-2.691922e-12
1.856489e-12
-2.178698e-12
2.010244e-12
2.064035e-12
-1.287084e-12
-1.836153e-12
3.209226e-13
-2.758353e-12
9.593705e-13
-3.588786e-12
1.564069e-12
-4.06524e-12
2.11748e-12
-4.098408e-12
2.307402e-12
-3.670996e-12
2.383085e-12
2.336691e-12
-2.809849e-12
-2.322764e-12
4.759293e-13
-3.705544e-12
1.444724e-12
-4.922053e-12
2.256354e-12
-5.659657e-12
2.87004e-12
-5.831545e-12
2.962776e-12
-5.443704e-12
2.896909e-12
2.695436e-12
-4.548972e-12
-3.030511e-12
7.914587e-13
-5.059825e-12
2.327432e-12
-6.853883e-12
3.498133e-12
-7.768116e-12
3.894299e-12
-8.010536e-12
3.85432e-12
-7.565231e-12
3.548091e-12
2.871581e-12
-6.332877e-12
-4.135902e-12
1.489011e-12
-7.091348e-12
3.9651e-12
-9.400791e-12
5.402042e-12
-1.059624e-11
5.475885e-12
-1.077044e-11
5.007675e-12
-9.781144e-12
3.923229e-12
3.19881e-12
-8.455109e-12
-6.01016e-12
3.223821e-12
-1.033135e-11
7.10442e-12
-1.326338e-11
8.423235e-12
-1.444515e-11
7.618353e-12
-1.379569e-11
5.809263e-12
-1.259624e-11
4.503048e-12
3.414767e-12
-1.080776e-11
-9.506669e-12
8.005235e-12
-1.578428e-11
1.318252e-11
-1.90723e-11
1.300146e-11
-1.902093e-11
9.42858e-12
-1.783342e-11
6.808219e-12
-1.578612e-11
4.808201e-12
3.368673e-12
-1.332153e-11
-1.670369e-11
2.659374e-11
-2.528625e-11
2.647099e-11
-2.689739e-11
1.790318e-11
-2.539658e-11
1.120543e-11
-2.249863e-11
7.070798e-12
-1.918627e-11
4.498136e-12
2.880649e-12
-1.582722e-11
-3.839187e-11
9.246417e-11
-4.334554e-11
5.266888e-11
-3.851102e-11
2.19702e-11
-3.286563e-11
1.05054e-11
-2.733961e-11
5.6836e-12
-2.240369e-11
3.197489e-12
1.81062e-12
-1.804074e-11
-1.230906e-10
-8.389539e-11
-5.363387e-11
-3.984436e-11
-3.131021e-11
-2.480993e-11
-1.958749e-11
-1.567772e-11
-1.379492e-12
-1.20046e-11
-1.246915e-12
-4.599272e-12
-1.159831e-12
-4.6077e-12
-4.067272e-12
-4.152787e-13
3.653616e-12
-3.342028e-12
-4.376696e-13
3.148525e-12
-3.054651e-12
-4.333445e-13
3.060694e-12
-3.266091e-12
-4.428046e-13
-1.539901e-11
-2.5393e-12
-1.180978e-11
-2.10805e-12
-4.553684e-12
-1.830825e-12
-4.492332e-12
5.588232e-13
-4.039765e-12
-6.895815e-13
5.74638e-13
3.624701e-12
-3.306788e-12
-7.127096e-13
5.426233e-13
3.110516e-12
-3.014083e-12
-6.504898e-13
5.458276e-13
3.015876e-12
-3.21626e-12
-6.46356e-13
-1.437695e-11
-3.412065e-12
-1.106609e-11
-2.810231e-12
-8.506755e-12
-2.41743e-12
-3.408684e-12
-1.124149e-12
8.425264e-13
8.197644e-13
-3.30483e-12
-1.033532e-12
8.445222e-13
-3.114203e-12
-9.659929e-13
7.553171e-13
2.919102e-12
-2.821715e-12
-8.559928e-13
7.449613e-13
2.819256e-12
-3.01064e-12
-8.412275e-13
-1.279194e-11
-3.932758e-12
-9.862273e-12
-3.298375e-12
-3.83193e-12
-2.860282e-12
-3.665917e-12
-3.414013e-12
-1.238528e-12
1.079496e-12
3.048387e-12
-2.756853e-12
-1.188453e-12
9.520086e-13
2.577319e-12
-2.486154e-12
-1.043229e-12
9.338107e-13
2.482767e-12
-2.666464e-12
-1.022321e-12
-1.088042e-11
-4.143519e-12
-8.360036e-12
-3.580277e-12
-3.244803e-12
-3.163204e-12
-3.035935e-12
1.319449e-12
-2.882757e-12
-1.398453e-12
1.293749e-12
2.544474e-12
-2.274176e-12
-1.388719e-12
1.129348e-12
2.112696e-12
-2.030446e-12
-1.209741e-12
1.106264e-12
2.028219e-12
-2.207255e-12
-1.18549e-12
-8.847993e-12
-4.134388e-12
-6.699887e-12
-3.701001e-12
-2.557005e-12
-3.355939e-12
-2.325288e-12
1.46764e-12
-2.247513e-12
-1.52701e-12
1.472995e-12
-1.700861e-12
-1.546944e-12
1.945086e-12
1.284096e-12
1.556555e-12
-1.482468e-12
-1.352591e-12
1.259614e-12
1.481436e-12
-1.65592e-12
-1.328632e-12
-6.840168e-12
-4.00096e-12
-4.990964e-12
-3.714988e-12
-1.817975e-12
-3.466124e-12
-1.576218e-12
-1.544286e-12
-1.627335e-12
1.577509e-12
1.606898e-12
1.13983e-12
-1.058066e-12
-1.540837e-12
1.415602e-12
9.342781e-13
-8.673048e-13
-1.473339e-12
1.392914e-12
8.672576e-13
-1.03706e-12
-1.452711e-12
-4.93706e-12
-3.920228e-12
-3.310546e-12
-3.674163e-12
-1.063025e-12
-3.526175e-12
-8.191473e-13
1.661727e-12
-8.325731e-13
-1.690793e-12
1.579514e-12
-3.896315e-13
-1.622615e-12
5.666739e-13
1.52664e-12
2.705863e-13
-2.083156e-13
-1.576454e-12
1.508643e-12
2.080651e-13
-3.729791e-13
-1.561458e-12
-3.199932e-12
-3.681391e-12
-1.698857e-12
-3.617144e-12
-3.156487e-13
-3.56786e-12
-7.599035e-14
-1.078409e-13
-1.739106e-12
1.716209e-12
1.662678e-12
-1.385275e-13
3.02684e-13
-1.700533e-12
1.623736e-12
-4.144822e-13
4.744725e-13
-1.669349e-12
1.611904e-12
-4.765229e-13
3.174075e-13
-1.660728e-12
-1.498342e-12
-3.48879e-12
-1.028836e-13
-3.527408e-12
4.106385e-13
-3.519274e-12
6.421807e-13
1.761269e-12
6.041862e-13
-1.783352e-12
1.737331e-12
-8.391515e-13
9.961119e-13
-1.77414e-12
1.714146e-12
-1.104873e-12
1.16554e-12
-1.758972e-12
1.708806e-12
-1.171189e-12
1.01851e-12
-1.756898e-12
4.155532e-14
-3.358848e-12
1.409606e-12
-3.478113e-12
1.176679e-12
-3.543619e-12
1.418014e-12
1.807044e-12
1.29488e-12
-1.763488e-12
1.811904e-12
-1.524737e-12
1.679794e-12
-1.851501e-12
1.804724e-12
-1.789313e-12
1.853549e-12
-1.852284e-12
1.805933e-12
-1.864626e-12
1.719048e-12
-1.856518e-12
1.437641e-12
-3.297271e-12
2.820993e-12
-3.480793e-12
1.885736e-12
-3.6075e-12
2.119104e-12
1.78145e-12
2.0663e-12
-1.803626e-12
1.893746e-12
-2.288063e-12
2.346417e-12
-1.838475e-12
1.902297e-12
-2.461031e-12
2.531179e-12
-1.955472e-12
1.909677e-12
-2.549232e-12
2.411707e-12
-1.966026e-12
2.716909e-12
-3.304251e-12
4.14111e-12
-3.540831e-12
2.561553e-12
-3.719715e-12
2.786355e-12
1.830829e-12
2.748882e-12
-1.863598e-12
1.87716e-12
-2.975429e-12
3.130741e-12
-1.921209e-12
2.012579e-12
-3.243198e-12
3.19316e-12
-1.945907e-12
2.026205e-12
-3.220465e-12
3.091472e-12
-2.091163e-12
3.906509e-12
-3.377491e-12
5.388375e-12
-3.660386e-12
3.207667e-12
-3.884993e-12
3.425558e-12
1.902244e-12
3.404604e-12
-1.947131e-12
1.970367e-12
-3.640702e-12
3.803854e-12
-2.025684e-12
2.002593e-12
-3.923101e-12
4.000274e-12
-2.065332e-12
2.161722e-12
-4.025404e-12
3.751841e-12
-2.090081e-12
5.033028e-12
-3.514698e-12
6.583121e-12
-3.839857e-12
3.830932e-12
-4.10648e-12
4.044533e-12
1.998604e-12
4.038765e-12
-2.056627e-12
2.086686e-12
-4.286393e-12
4.458394e-12
-2.154502e-12
2.133536e-12
-4.585568e-12
4.669895e-12
-2.207707e-12
2.163569e-12
-4.699077e-12
4.571619e-12
-2.241324e-12
6.121627e-12
-3.713668e-12
7.747008e-12
-4.079962e-12
4.439766e-12
-4.386081e-12
4.652149e-12
2.121567e-12
4.659006e-12
-2.193729e-12
2.228615e-12
-4.919238e-12
5.100181e-12
-2.309844e-12
2.287512e-12
-5.235101e-12
5.325574e-12
-2.374073e-12
2.323261e-12
-5.35809e-12
5.230955e-12
-2.412182e-12
7.197576e-12
-3.973679e-12
8.902598e-12
-4.381908e-12
5.044227e-12
-4.727884e-12
5.259176e-12
2.272833e-12
5.273987e-12
-2.358317e-12
2.398318e-12
-5.540419e-12
5.738266e-12
-2.495617e-12
2.466918e-12
-5.88032e-12
5.976517e-12
-2.56705e-12
2.507646e-12
-6.011803e-12
5.886252e-12
-2.61026e-12
8.285078e-12
-4.294907e-12
1.007328e-11
-4.748074e-12
5.655148e-12
-5.13498e-12
5.876005e-12
2.452746e-12
5.896967e-12
-2.557006e-12
2.625436e-12
-6.157564e-12
6.384087e-12
-2.739705e-12
2.674448e-12
-6.530513e-12
6.631757e-12
-2.790327e-12
2.719625e-12
-6.66897e-12
6.544484e-12
-2.837196e-12
9.409662e-12
-4.67916e-12
1.12833e-11
-5.181196e-12
6.283448e-12
-5.611052e-12
6.51465e-12
2.668434e-12
6.533895e-12
-2.788278e-12
2.859001e-12
-6.805471e-12
7.043815e-12
-2.988104e-12
2.913696e-12
-7.1953e-12
7.299922e-12
-3.045244e-12
2.961513e-12
-7.337898e-12
7.21432e-12
-3.093663e-12
1.059689e-11
-5.130297e-12
1.255899e-11
-5.686091e-12
6.942594e-12
-6.16237e-12
7.188547e-12
2.917254e-12
7.200157e-12
-3.055664e-12
3.127069e-12
-7.482884e-12
7.730617e-12
-3.277395e-12
3.185103e-12
-7.885643e-12
7.990667e-12
-3.334729e-12
3.232277e-12
-8.023585e-12
7.897873e-12
-3.379524e-12
1.187382e-11
-5.65218e-12
1.39281e-11
-6.26835e-12
7.646324e-12
-6.795072e-12
7.911881e-12
3.204341e-12
7.91007e-12
-3.363665e-12
3.438823e-12
-8.203463e-12
8.460091e-12
-3.613314e-12
3.494297e-12
-8.617728e-12
8.722628e-12
-3.665928e-12
3.537147e-12
-8.750874e-12
8.608815e-12
-3.708155e-12
1.32701e-11
-6.24963e-12
1.541936e-11
-6.934638e-12
8.408439e-12
-7.515741e-12
8.697996e-12
3.534033e-12
8.676732e-12
-3.71499e-12
3.800316e-12
-8.981724e-12
9.248187e-12
-4.00255e-12
3.848923e-12
-9.409047e-12
9.514976e-12
-4.045528e-12
3.891289e-12
-9.543124e-12
9.388943e-12
-4.087494e-12
1.482011e-11
-6.926908e-12
1.70688e-11
-7.698399e-12
9.246175e-12
-8.358147e-12
9.579675e-12
3.906915e-12
9.515398e-12
-4.104095e-12
4.218871e-12
-9.830926e-12
1.009919e-11
-4.440304e-12
4.255139e-12
-1.027346e-11
1.038148e-11
-4.479376e-12
4.297038e-12
-1.041e-11
1.024507e-11
-4.521776e-12
1.657355e-11
-7.698517e-12
1.895587e-11
-8.571795e-12
2.087476e-11
-9.329097e-12
1.090015e-11
-4.895191e-12
4.481742e-12
4.359554e-12
1.126696e-11
-4.962833e-12
4.624674e-12
1.100579e-11
-4.835536e-12
4.727298e-12
-1.122751e-11
1.133782e-11
-4.993498e-12
4.760733e-12
-1.136704e-11
1.119313e-11
-5.01799e-12
1.856937e-11
-8.565641e-12
2.104794e-11
-9.560218e-12
1.126219e-11
-1.040928e-11
1.166032e-11
1.153438e-11
-5.136805e-12
5.101072e-12
-1.185695e-11
1.210798e-11
-5.389047e-12
5.269888e-12
-1.230645e-11
1.240388e-11
-5.565386e-12
5.291845e-12
-1.243376e-11
1.225375e-11
-5.585383e-12
2.087293e-11
-9.534065e-12
2.347855e-11
-1.067621e-11
1.245482e-11
-1.164485e-11
1.292436e-11
5.413723e-12
1.270766e-11
-5.722797e-12
5.70137e-12
-1.305031e-11
1.331361e-11
-6.034026e-12
5.880508e-12
-1.350611e-11
1.359437e-11
-6.216711e-12
5.897482e-12
-1.362389e-11
1.344561e-11
-6.229268e-12
2.354786e-11
-1.058499e-11
2.628651e-11
-1.190207e-11
1.384167e-11
-1.303366e-11
1.438472e-11
6.054794e-12
1.407493e-11
-6.411143e-12
6.384938e-12
-1.441655e-11
1.467271e-11
-6.759664e-12
6.572967e-12
-1.483282e-11
1.491772e-11
-6.967048e-12
6.579383e-12
-1.494191e-11
1.477505e-11
-6.949732e-12
2.662499e-11
-1.154558e-11
2.945568e-11
-6.430544e-12
-6.677919e-12
1.543788e-11
-7.140902e-12
1.607331e-11
-7.340143e-12
6.791485e-12
1.565825e-11
-7.199001e-12
7.156483e-12
-1.599124e-11
1.623438e-11
-7.58386e-12
7.507232e-12
-1.626852e-11
1.64262e-11