/*--------------------------------*- C++ -*----------------------------------*\
| =========                 |                                                 |
| \\      /  F ield         | OpenFOAM: The Open Source CFD Toolbox           |
|  \\    /   O peration     | Version:  2206                                  |
|   \\  /    A nd           | Website:  www.openfoam.com                      |
|    \\/     M anipulation  |                                                 |
\*---------------------------------------------------------------------------*/
FoamFile
{
    version     2.0;
    format      ascii;
    arch        "LSB;label=32;scalar=64";
    class       volScalarField;
    location    "2.2";
    object      pS;
}
// * * * * * * * * * * * * * * * * * * * * * * * * * * * * * * * * * * * * * //

dimensions      [1 -1 -2 0 0 0 0];

internalField   nonuniform List<scalar> 
13078
(
0
39.90392
590.9222
675.0677
635.4401
577.4757
516.4484
67.21293
544.3441
730.8559
695.0295
639.1299
579.6861
518.0391
762.7488
812.1913
769.3979
707.4198
645.3915
583.3372
520.4548
946.8195
857.012
784.1183
717.0758
651.6176
587.2892
523.1799
966.06
869.7053
793.1588
723.1302
656.8473
591.0728
525.8957
960.5588
871.7546
797.403
727.1247
659.8054
594.2224
528.4543
953.9564
870.7273
799.1147
729.4978
661.8848
595.8161
530.6259
949.1348
868.82
799.5852
730.6308
663.0584
596.9364
531.556
945.6916
866.9955
799.1507
730.9137
663.6553
597.6376
532.2362
943.2097
865.4506
798.4917
730.8653
663.9201
598.06
532.6962
941.3601
864.1871
797.8303
730.6584
663.9926
598.3042
533.0227
939.8872
863.1874
797.2187
730.3809
663.9581
598.4397
533.2498
938.7084
862.3427
796.6653
730.0957
663.8696
598.506
533.417
937.7105
861.6257
796.1725
729.8251
663.7749
598.5375
533.552
936.8475
861.0002
795.7561
729.9725
664.1718
598.6104
533.6677
936.0653
860.4389
795.3892
730.1856
664.402
598.6533
533.7817
935.3231
859.8927
795.0039
730.0077
664.3376
598.6731
533.8932
934.5935
859.3738
794.6355
729.8059
664.2628
598.6973
534.01
933.8582
858.8521
794.2746
729.5999
664.1975
598.7549
534.1245
933.0976
858.328
793.9187
729.444
664.6873
599.4823
534.3239
932.2997
857.7633
793.5407
729.2819
665.22
599.9725
534.5241
931.4207
857.1554
793.117
729.0446
665.2424
600.0866
534.689
930.4621
856.4925
792.6639
728.8044
665.1858
600.2088
534.9264
929.3893
855.7403
792.1536
728.5368
665.195
601.0258
536.0216
928.1723
854.8932
791.5664
728.2299
665.1775
601.8842
536.7969
926.7897
853.9203
790.9024
727.8673
665.0802
602.1551
537.1706
925.1798
852.7863
790.1209
727.4335
664.9516
602.3103
537.5693
923.3403
851.4823
789.206
726.9067
664.7872
602.5129
538.8569
921.1974
849.9391
788.1261
726.2634
664.5433
602.6476
540.1346
918.9765
848.3916
786.919
725.4834
664.1705
602.6239
540.6457
916.328
846.478
785.4588
724.5249
663.6541
602.4858
540.9396
913.2323
844.6295
784.3443
723.4647
662.9379
602.1516
540.9877
909.8287
842.5432
783.315
723.018
662.282
601.7488
540.8327
906.2632
840.2988
782.2879
722.2962
661.9547
601.8804
541.0927
902.9552
838.7824
782.4146
724.5427
665.0807
604.2771
542.883
900.8442
839.7546
786.4726
731.7362
673.7082
611.7549
547.2928
901.6217
846.7844
798.7672
746.3569
688.2184
620.5475
549.8325
908.499
864.5046
820.7538
766.207
702.8526
627.5934
544.6628
926.3169
892.4976
847.8011
786.0489
712.0806
627.8311
528.6294
959.3709
927.156
874.63
801.9646
714.4866
618.8655
510.8554
1007.494
963.5558
903.0108
813.4347
713.8694
610.0313
506.5784
1071.078
998.9326
928.2005
828.4916
719.0286
618.8051
544.9556
1144.812
1032.348
949.3903
847.0956
749.0353
672.7599
646.2809
1217.357
1050.059
968.5628
876.4291
809.1107
782.4896
779.828
1262.098
1050.757
981.9376
925.1817
905.6474
927.3422
945.5607
1260.637
1040.517
1002.637
993.8002
1022.473
1073.355
1106.508
1236.407
1044.979
1044.602
1072.267
1145.339
1213.438
1227.169
1223.848
1078.662
1115.387
1167.12
1278.625
1334.053
1363.025
1225.385
1134.384
1205.042
1272.129
1392.734
1468.655
1502.024
1238.987
1195.521
1291.89
1373.059
1511.61
1582.232
1599.577
1264.442
1265.804
1362.025
1445.178
1586.096
1642.473
1651.498
1284.521
1314.889
1442.587
1543.375
1671.628
1687.89
1692.203
1288.516
1327.862
1447.582
1541.005
1662.141
1673.861
1658.508
1279.299
1316.378
1429.646
1511.864
1614.298
1597.073
1565.159
1266.243
1298.199
1403.252
1479.514
1563.568
1534.405
1492.057
1249.689
1271.565
1369.369
1442.377
1513.212
1482.19
1438.542
1222.023
1221.702
1307.022
1372.28
1436.907
1407.052
1368.853
1204.398
1188.679
1264.232
1323.303
1387.845
1357.224
1318.483
1191.396
1156.802
1216.464
1263.367
1322.819
1293.163
1254.498
1174.144
1113.291
1147.913
1177.399
1226.823
1207.68
1173.221
1156.392
1071.098
1070.735
1078.277
1127.185
1120.088
1085.053
1137.768
1031.798
1019.467
1010.132
1051.218
1052.245
1017.143
1123.817
1000.492
973.2267
932.1642
956.8528
970.0209
935.7886
1114.303
975.2184
935.1783
872.9573
874.1479
884.6569
882.9906
1115.782
965.4209
916.2196
835.4708
812.0505
818.438
813.2122
1131.535
968.4193
909.3837
820.632
749.3728
727.3768
725.5972
1147.73
982.1323
906.4943
810.9374
703.4568
651.6649
662.5201
1135.69
987.9411
901.0514
798.6566
685.223
598.1048
578.6404
1091.122
980.9443
895.0742
792.3917
680.7237
572.4709
501.5013
1038.055
963.1726
885.0066
785.5694
679.1417
567.1693
468.4703
988.6149
938.2518
871.6632
781.7265
681.2369
575.9537
470.1391
948.4569
912.2309
856.2845
777.9061
688.273
591.2346
492.1486
920.6382
884.6092
836.2534
771.6995
694.5873
609.3658
511.1568
904.7626
860.3502
815.0173
758.3145
692.9634
619.2156
531.3852
898.7054
844.3603
796.0533
742.714
683.8593
616.9135
543.2027
898.0665
837.5228
784.3298
729.7618
671.9127
609.0657
544.0248
900.2002
836.3983
780.1577
723.1631
663.8612
602.9666
540.9963
903.6274
837.9447
780.257
721.2112
661.0489
600.1557
539.3176
907.3014
840.3665
781.7321
721.2294
660.4753
600.1343
539.3653
910.8603
842.9167
783.2094
722.537
661.5743
600.8946
539.9151
914.2304
845.0512
784.3579
723.2054
662.4958
601.5827
540.3043
917.1996
846.9196
785.5439
724.372
663.3242
602.0321
540.3874
919.6934
848.7802
787.0437
725.4013
663.9449
602.2817
540.2309
921.781
850.2864
788.2624
726.2372
664.3908
602.4089
539.8692
923.8063
851.7826
789.3477
726.928
664.703
602.3608
538.6352
925.5584
853.0431
790.2624
727.4729
664.9251
602.2337
537.4697
927.0882
854.1429
791.0401
727.9206
665.0898
602.1293
537.1253
928.4001
855.0708
791.6873
728.2937
665.2106
601.9076
536.8053
929.5688
855.8802
792.252
728.6173
665.2443
601.0299
536.023
930.5918
856.6055
792.7519
728.8798
665.2499
600.2699
534.9781
931.5086
857.238
793.1911
729.1131
665.3109
600.1474
534.7552
932.3378
857.8182
793.5987
729.3335
665.2839
600.0426
534.594
933.0969
858.3497
793.9474
729.4741
664.707
599.5164
534.3859
933.8096
858.8405
794.2753
729.6062
664.227
598.7995
534.1797
934.4881
859.3141
794.5943
729.7945
664.2788
598.7305
534.0662
935.1502
859.7763
794.9244
729.9707
664.3413
598.7084
533.9552
935.8182
860.2557
795.2659
730.1255
664.3985
598.6876
533.8426
936.4984
860.7368
795.5767
729.8608
664.1335
598.6383
533.7296
937.2246
861.2627
795.9247
729.6997
663.7399
598.5669
533.6262
938.0481
861.8576
796.3455
729.9416
663.8328
598.5519
533.5146
938.9908
862.5647
796.8255
730.2097
663.9393
598.5258
533.3938
940.1453
863.3852
797.3611
730.4857
664.0227
598.4627
533.2365
941.5746
864.3735
797.9593
730.7487
664.0561
598.3364
533.0152
943.3875
865.6035
798.6083
730.9525
663.9928
598.1028
532.7031
945.8102
867.1358
799.2279
731.016
663.7476
597.6856
532.2308
949.1797
868.9371
799.3611
730.5469
663.1404
596.9793
531.5592
953.9342
870.8315
799.0351
729.3775
661.9338
595.911
529.6971
960.4229
871.982
797.6864
727.3284
660.0938
593.3822
527.4456
966.2171
870.1304
793.5772
723.771
656.1622
590.1792
524.9434
949.1345
858.0531
785.6548
716.6782
650.9437
586.5062
522.2275
788.2688
819.6983
769.5062
707.1991
644.9392
582.5754
519.4832
87.3782
605.3618
746.5088
695.9982
638.2548
578.5947
516.859
453.0706
385.5435
312.3797
256.9805
183.4918
110.6941
37.72124
454.4788
386.9813
313.792
258.2911
184.6047
111.5706
39.35649
456.3219
388.6144
315.4373
241.6358
185.6785
112.4229
40.23715
458.3567
390.3204
316.8554
261.2449
186.8047
113.2869
41.04981
460.4212
392.0938
318.4645
262.8671
187.9583
114.155
41.61866
462.4367
393.8824
320.1016
264.4021
189.0981
115.021
42.15125
464.3496
395.6246
321.7147
265.8613
189.4185
115.8888
42.66375
466.0141
397.3132
323.294
267.292
189.7302
116.7545
43.13441
466.6175
398.8253
324.7903
268.7275
190.655
117.5357
43.60269
467.0727
399.2958
326.1596
270.1515
191.559
118.3209
44.04725
467.4153
399.6512
326.5518
271.52
192.4634
119.1109
44.4758
467.6948
399.9625
326.8532
271.8117
193.3766
119.9088
44.89236
467.9243
400.2427
327.1458
272.0793
193.5229
120.7349
45.29282
468.1299
400.5065
327.4358
272.356
193.6911
120.8729
45.629
468.3221
400.7727
327.7311
272.6395
193.8729
121.0474
45.41547
468.5156
401.0425
328.0325
272.9363
194.0733
121.24
45.18748
468.7076
401.3201
328.342
273.2592
194.3838
121.444
45.0095
468.9067
401.5997
328.6771
273.7468
197.076
121.6693
44.76043
469.1144
401.8806
329.0231
274.1127
197.5364
121.9027
44.53877
469.3421
402.1827
329.3913
274.4986
197.865
122.1526
44.2854
469.5824
402.5047
329.775
274.9091
198.2118
122.4167
43.94641
469.8512
402.8501
330.1695
275.353
198.58
122.6965
43.66819
470.1344
403.234
330.6133
275.7429
199.0638
122.9888
43.37683
470.5501
403.6657
331.1711
257.9141
201.9739
123.4604
43.09174
470.9726
404.1107
331.6507
276.5217
203.3242
123.8524
42.81281
471.3784
404.6051
332.2228
277.4922
203.9407
124.2251
42.524
471.9455
405.241
332.9285
278.2238
204.5733
124.6569
42.20223
473.6082
406.0002
333.6243
278.9936
205.4373
128.1278
41.90277
474.5847
423.9517
352.1023
279.4253
206.2889
129.5207
41.66605
475.3094
424.9789
353.4324
280.4157
207.1741
130.155
41.43709
477.5463
427.3806
354.3718
281.4478
208.2072
133.0832
41.31799
478.6275
429.2952
355.3246
282.6357
209.4127
136.198
41.36786
478.9114
432.6443
356.5364
283.8667
210.7721
137.5336
41.95037
478.9935
433.6053
358.687
284.807
212.1349
139.6838
50.20913
479.4831
433.9529
360.0967
285.0596
213.096
143.4892
57.59678
478.9773
433.4867
360.7833
282.2598
212.3165
149.7423
85.85328
471.958
425.9382
349.0077
272.292
208.6692
154.8915
82.22437
453.108
403.6376
327.8567
266.005
201.8909
145.0105
85.64731
424.8673
370.8491
303.6165
252.9378
195.4647
144.0168
86.91602
399.3473
341.0193
292.1384
263.4064
230.9108
167.5796
92.50854
410.6849
357.1792
349.667
321.4087
270.4093
190.1718
91.12533
500.7105
453.09
432.4439
379.3526
305.8502
220.9797
95.74315
629.3793
553.1123
516.111
439.2153
343.4411
243.2972
99.09213
762.5373
641.8768
608.3542
526.0952
429.9849
269.8837
118.6111
892.7873
777.7672
740.6892
655.298
499.6076
316.1343
131.7189
1042.373
913.8052
915.2537
776.5082
592.3204
427.2383
172.8225
1204.558
1066.186
1078.088
914.9507
774.4579
486.9225
259.2553
1305.867
1204.046
1166.822
1048.739
815.6361
601.2508
296.6821
1449.099
1337.144
1275.129
1082.197
863.5842
576.5238
353.77
1595.971
1489.911
1345.498
1103.938
819.9957
581.9043
347.9272
1650.883
1619.817
1376.897
1068.743
763.096
523.3435
344.6664
1656.992
1653.67
1341.457
1006.392
719.8022
469.8144
288.0832
1599.784
1635.775
1305.808
1010.928
745.827
469.6598
289.3099
1533.81
1552.775
1285.771
1004.309
792.7292
559.9376
284.5678
1462.835
1490.464
1232.809
980.7055
788.8967
778.0432
606.0333
1430.562
1409.073
1167.829
933.6317
760.3204
645.9692
1355.627
1328.17
1100.236
892.5065
724.196
616.8191
1274.284
1266.208
1031.96
823.3202
657.6
523.4762
1180.115
1171.074
926.5205
757.8077
575.3469
426.3702
255.9406
1103.309
1060.218
827.8051
640.8304
484.9753
319.651
189.8082
1010.609
966.088
795.6798
587.7851
396.4274
277.1721
178.0616
955.9545
919.2052
755.4412
611.2982
482.3037
337.9776
212.7315
891.6035
856.1806
723.074
600.0955
485.9038
346.6373
231.5713
816.8203
794.6475
651.3022
567.2034
435.2468
337.2818
205.5491
742.3918
728.1079
593.3592
480.9199
423.251
312.3043
155.9423
689.38
670.5971
519.2831
454.3652
351.2835
276.4876
111.3092
625.016
610.1998
493.6859
385.8539
316.2321
190.4057
63.19095
547.9404
550.6194
424.4234
356.125
253.3074
167.9019
62.5207
475.8248
483.6145
393.0153
308.9435
241.8955
149.8625
74.70922
401.2537
406.8027
360.0061
287.8202
226.511
142.7048
64.28052
365.8882
330.7429
314.2884
271.172
206.5376
145.9148
61.00307
376.738
300.3573
272.1145
238.627
196.8264
144.8069
60.24228
408.0335
328.1592
275.6277
215.8594
190.3846
142.2021
70.95427
440.5382
362.2615
308.6846
244.8744
181.2557
141.7057
95.999
464.2667
395.5589
333.9976
270.0392
198.7571
145.0421
97.66984
474.7324
417.6002
351.8247
275.3022
207.8264
150.7787
80.42123
477.0781
426.0971
360.5026
282.6696
210.5022
147.198
70.48658
477.266
428.3527
361.2614
284.0739
211.4347
140.5042
52.27137
477.6095
429.2006
358.4659
283.8454
211.0737
138.2161
47.18946
478.0144
429.5574
356.1166
283.1656
210.1796
137.1248
43.97532
477.9274
427.6911
355.0297
282.2181
209.1326
136.05
40.42709
476.923
425.7765
354.104
281.2659
208.1224
134.7603
40.62818
474.8913
423.4415
353.3487
280.3904
207.2206
130.4722
40.89985
474.3001
422.7232
352.5573
279.6259
206.4353
129.6386
41.26077
473.3766
405.782
333.434
278.3178
205.6988
129.0842
41.61258
471.8371
405.1333
332.8449
277.7627
204.8808
125.9444
41.97859
471.3288
404.5698
332.2273
277.1914
204.206
124.4199
42.37305
470.9702
404.1148
331.6883
276.6575
203.625
124.0563
42.72311
470.5725
403.6864
331.1814
276.1554
202.9909
123.7221
43.0845
470.1836
403.2956
330.7171
275.6729
200.0108
123.2647
43.3995
469.9192
402.9342
330.2799
275.2211
198.8267
122.9112
43.72357
469.6626
402.5896
329.8703
274.804
198.4618
122.635
44.05114
469.4184
402.2705
329.4865
274.4042
198.1105
122.3702
44.35152
469.186
401.9716
329.1197
274.0291
197.7806
122.1164
44.64355
468.9813
401.6897
328.7791
273.6689
197.4709
121.878
44.89767
468.7821
401.4101
328.4465
273.2462
195.9956
121.6483
45.12444
468.5931
401.1361
328.1346
272.8532
194.2666
121.4327
45.34496
468.4095
400.8768
327.8394
272.5393
194.061
121.2302
45.57648
468.2329
400.625
327.5543
272.2306
193.8679
121.0409
45.63041
468.0515
400.3794
327.2738
271.9365
193.6932
120.8676
45.59516
467.8601
400.1267
327.0003
271.6432
193.5243
120.3852
45.17553
467.6383
399.8541
326.7216
271.3491
193.0046
119.577
44.73614
467.3744
399.5512
326.3542
270.5106
192.1022
118.7759
44.2781
467.0262
399.145
325.0209
269.08
191.1989
117.9824
43.81861
466.5512
397.7163
323.5727
267.637
190.2963
117.1914
43.33422
465.0468
396.1142
322.0372
266.1737
189.4247
116.3645
42.84108
463.2959
394.4503
320.4597
264.7735
189.7053
115.4896
42.33754
461.4136
392.71
318.8491
263.2943
188.604
114.6157
41.81094
459.4002
390.9152
317.2186
261.8287
187.4607
113.7446
41.2468
457.2897
389.1044
315.5904
260.3786
186.3175
112.873
40.57275
455.2147
387.3471
313.9932
258.9783
185.1776
112.0012
39.68902
453.2358
385.6094
312.4177
257.6282
184.0464
111.1243
38.39605
0
0
0
0
0
0
0
0
0
0
0
0
0
0
0
0
0
0
0
0
0
0
0
0
0
0
0
0
0
0
0
0
0
0
0
0
0
0
0
0
0
0
0
0
0
0
0
0
0
0
0
0
0
0
0
0
0
0
0
0
0
0
0
0
0
0
0
0
0
0
0
0
0
0
0
0
0
0
0
0
0
0
0
0
0
0
0
0
0
0
0
0
0
0
0
0
0
0
0
0
0
0
0
0
0
0
0
0
0
0
0
0
0
0
0
0
0
0
0
0
0
0
0
0
0
0
0
0
0
0
0
0
0
0
0
0
0
0
0
0
0
0
0
0
0
0
0
0
0
0
0
0
0
0
0
0
0
0
0
0
0
0
0
0
0
0
0
0
0
0
0
0
0
0
0
0
0
0
0
0
0
0
0
0
0
0
0
0
0
0
0
0
0
0
0
0
0
0
0
0
0
0
0
0
0
0
0
0
0
0
0
0
0
0
0
0
0
0
0
0
0
0
0
0
0
0
0
0
0
0
0
0
0
0
0
0
0
0
0
0
0
0
0
0
0
0
0
0
0
0
0
0
0
0
0
0
0
0
0
0
0
0
0
0
0
0
0
0
0
0
0
0
0
0
0
0
0
0
0
0
0
0
0
0
0
0
0
0
0
0
0
0
0
0
0
0
0
0
0
0
0
0
0
0
0
0
0
0
0
0
0
0
0
0
0
0
0
0
0
0
0
0
0
0
0
0
0
0
0
0
0
0
0
0
0
0
0
0
0
0
0
0
0
0
0
0
0
0
0
0
0
0
0
0
0
0
0
0
0
0
0
0
0
0
0
0
0
0
0
0
0
0
0
0
0
0
0
0
0
0
0
0
0
0
0
0
0
0
0
0
0
0
0
0
0
0
0
0
0
0
0
0
0
0
0
0
0
0
0
0
0
0
0
0
0
0
0
0
0
0
0
0
0
0
0
0
0
0
0
0
0
0
0
0
0
0
0
0
0
0
0
0
0
0
0
0
0
0
0
0
0
0
0
0
0
0
0
0
0
0
0
0
0
0
0
0
0
0
0
0
0
0
0
0
0
0
0
0
0
0
0
0
0
0
0
0
0
0
0
0
0
0
0
0
0
0
0
0
0
0
0
0
0
0
0
0
0
0
0
0
0
0
0
0
0
0
0
0
0
0
0
0
0
0
0
0
0
0
0
0
0
0
0
0
0
0
0
0
0
0
0
0
0
0
0
0
0
0
0
0
0
0
0
0
0
0
0
0
0
0
0
0
0
0
0
0
0
0
0
0
0
0
0
0
0
0
0
0
0
0
0
0
0
0
0
0
0
0
0
0
0
0
0
0
0
0
0
0
0
0
0
0
0
0
0
0
0
0
0
0
0
0
0
0
0
0
0
0
0
0
0
0
0
0
0
0
0
0
0
0
0
0
0
0
0
0
0
0
0
0
0
0
0
0
0
0
0
0
0
0
0
0
0
0
0
0
0
0
0
0
0
0
0
0
0
0
0
0
0
0
0
0
0
0
0
0
0
0
0
0
0
0
0
0
0
0
0
0
0
0
0
0
0
0
0
0
0
0
0
0
0
0
0.008467812
0
0
0
0
0
0
0
0
0
0
0
0
0
0
0
0
0
2.208865
0
0
0
0
0
0
0
0
0
0
0
0
0
0
0
0
0
3.88719
0
0
0
0
0
0
0
0
0
0
0
0
0
0
0
0
0
5.190807
0
0
0
0
0
0
0
0
0
0
0
0
0
0
0
0
0
11.56089
0
0
0
0
0
0
0
0
0
0
0
0
0
0
0
0
0
16.84843
0
0
0
0
0
0
0
0
0
0
0
0
0
0
0
0
0
21.96236
0
0
0
0
0
0
0
0
0
0
0
0
0
0
0
0
0
22.11913
0
0
0
0
0
0
0
0
0
0
0
0
0
0
0
0
0
36.69412
0
0
0
0
0
0
0
0
0
0
0
0
0
0
0
0
0
53.92037
0
0
0
0
0
0
0
0
0
0
0
0
0
0
0
0
0
98.49986
0
0
0
0
0
0
0
0
0
0
0
0
0
101.6199
13.55507
0
0
0
0
0
0
0
0
164.2154
0
0
0
0
0
0
0
0
0
0
0
0
0
0
0
0
0
0
0
0
0
0
0
0
0
0
0
0
0
0
0
0
0
0
0
0
0
0
0
0
0
0
0
0
0
0
0
0
0
68.77583
0
0
0
0
0
0
51.76099
2.739656
0
0
0
0
0
0
0
49.74537
0
0
0
0
0
0
0
0
0
0
0
26.31427
0
0
0
0
0
0
0
0
0
0
0
0
0
0
0
0
0
23.81801
0
0
0
0
0
0
0
0
0
0
0
0
0
0
0
0
0
19.76251
0
0
0
0
0
0
0
0
0
0
0
0
0
0
0
0
0
16.54322
0
0
0
0
0
0
0
0
0
0
0
0
0
0
0
0
0
12.11315
0
0
0
0
0
0
0
0
0
0
0
0
0
0
0
0
0
8.708996
0
0
0
0
0
0
0
0
0
0
0
0
0
0
0
0
0
7.211211
0
0
0
0
0
0
0
0
0
0
0
0
0
0
0
0
0
4.881501
0
0
0
0
0
0
0
0
0
0
0
0
0
0
0
0
0
3.20437
0
0
0
0
0
0
0
0
0
0
0
0
0
0
0
0
0
0.260894
0
0
0
0
0
0
0
0
0
0
0
0
0
0
0
0
0
0
0
0
0
0
0
0
0
0
0
0
0
0
0
0
0
0
0
0
0
0
0
0
0
0
0
0
0
0
0
0
0
0
0
0
0
0
0
0
0
0
0
0
0
0
0
0
0
0
0
0
0
0
0
0
0
0
0
0
0
0
0
0
0
0
0
0
0
0
0
0
0
0
0
0
0
0
0
0
0
0
0
0
0
0
0
0
0
0
0
0
0
0
0
0
0
0
0
0
0
0
0
0
0
0
0
0
0
0
0
0
0
0
0
0
0
0
0
0
0
0
0
0
0
0
0
0
0
0
0
0
0
0
0
0
0
0
0
0
0
0
0
0
0
0
0
0
0
0
0
0
0
0
0
0
0
0
0
0
0
0
0
0
0
0
0
0
0
0
0
0
0
0
0
0
0
0
0
0
0
0
0
0
0
0
0
0
0
0
0
0
0
0
0
0
0
0
0
0
0
0
0
0
0
0
0
0
0
0
0
0
0
0
0
0
0
0
0
0
0
0
0
0
0
0
0
0
0
0
0
0
0
0
0
0
0
0
0
0
0
0
0
0
0
0
0
0
0
0
0
0
0
0
0
0
0
0
0
0
0
0
0
0
0
0
0
0
0
0
0
0
0
0
0
0
0
0
0
0
0
0
0
0
0
0
0
0
0
0
0
0
0
0
0
0
0
0
0
0
0
0
0
0
0
0
0
0
0
0
0
0
0
0
0
0
0
0
0
0
0
0
0
0
0
0
0
0
0
0
0
0
0
0
0
0
0
0
0
0
0
0
0
0
0
0
0
0
0
0
0
0
0
0
0
0
0
0
0
0
0
0
0
0
0
0
0
0
0
0
0
0
0
0
0
0
0
0
0
0
0
0
0
0
0
0
0
0
0
0
0
0
0
0
0
0
0
0
0
0
0
0
0
0
0
0
0
0
0
0
0
0
0
0
0
0
0
0
0
0
0
0
0
0
0
0
0
0
0
0
0
0
0
0
0
0
0
0
0
0
0
0
0
0
0
0
0
0
0
0
0
0
0
0
0
0
0
0
0
0
0
0
0
0
0
0
0
0
0
0
0
0
0
0
0
0
0
0
0
0
0
0
0
0
0
0
0
0
0
0
0
0
0
0
0
0
0
0
0
0
0
0
0
0
0
0
0
0
0
0
0
0
0
0
0
0
0
0
0
0
0
0
0
0
0
0
0
0
0
0
0
0
0
0
0
0
0
0
0
0
0
0
0
0
0
0
0
0
0
0
0
0
0
0
0
0
0
0
0
0
0
0
0
0
0
0
0
0
0
0
0
0
0
0
0
0
0
0
0
0
0
0
0
0
0
0
0
0
0
0
0
0
0
0
0
0
0
0
0
0
0
0
0
0
0
0
0
0
0
0
0
0
0
0
0
0
0
0
0
0
0
0
0
0
0
0
0
0
0
0
0
0
0
0
0
0
0
0
0
0
0
0
0
0
0
0
0
0
0
0
0
0
0
0
0
0
0
0
0
0
0
0
0
0
0
0
0
0
0
0
0
0
0
0
0
0
0
0
0
0
0
0
0
0
0
0
0
0
0
0
0
0
0
0
0
0
0
0
0
0
0
0
0
0
0
0
0
0
0
0
0
0
0
0
0
0
0
0
0
0
0
0
0
0
0
0
0
0
0
0
0
0
0
0
0
0
0
0
0
0
0
0
0
0
0
0
0
0
0
0
0
0
0
0
0
0
0
0
0
0
0
0
0
0
0
0
0
0
0
0
0
0
0
0
0
0
0
0
0
0
0
0
0
0
0
0
0
0
0
0
0
0
0
0
0
0
0
0
0
0
0
0
0
0
0
0
0
0
0
0
0
0
0
0
0
0
0
0
0
0
0
0
0
0
0
0
0
0
0
0
0
0
0
0
0
0
0
0
0
0
0
0
0
0
0
0
0
0
0
0
0
0
0
0
0
0
0
0
0
0
0
0
0
0
0
0
0
0
0
0
0
0
0
0
0
0
0
0
0
0
0
0
0
0
0
0
0
0
0
0
0
0
0
0
0
0
0
0
0
0
0
0
0
0
0
0
0
0
0
0
0
0
0
0
0
0
0
0
0
0
0
0
0
0
0
0
0
0
0
0
0
0
0
0
0
0
0
0
0
0
0
0
0
0
0
0
0
0
0
0
0
0
0
0
0
0
0
0
0
0
0
0
0
0
0
0
0
0
0
0
0
0
0
0
0
0
0
0
0
0
0
0
0
0
0
0
0
0
0
0
0
0
0
0
0
0
0
0
0
0
0
0
0
0
0
0
0
0
0
0
0
0
0
0
0
0
0
0
0
0
0
0
0
0
0
0
0
0
0
0
0
0
0
0
0
0
0
0
0
0
0
0
0
0
0
0
0
0
0
0
0
0
0
0
0
0
0
0
0
0
0
0
0
0
0
0
0
0
0
0
0
0
0
0
0
0
0
0
0
0
0
0
0
0
0
0
0
0
0
0
0
0
0
0
0
0
0
0
0
0
0
0
0
0
0
0
0
0
0
0
0
0
0
0
0
0
0
0
0
0
0
0
0
0
0
0
0
0
0
0
0
0
0
0
0
0
0
0
0
0
0
0
0
0
0
0
0
0
0
0
0
0
0
0
0
0
0
0
0
0
0
0
0
0
0
0
0
0
0
0
0
0
0
0
0
0
0
0
0
0
0
0
0
0
0
0
0
0
0
0
0
0
0
0
0
0
0
0
0
0
0
0
0
0
0
0
0
0
0
0
0
0
0
0
0
0
0
0
0
0
0
0
0
0
0
0
0
0
0
0
0
0
0
0
0
0
0
0
0
0
0
0
0
0
0
0
0
0
0
0
0
0
0
0
0
0
0
0
0
0
0
0
0
0
0
0
0
0
0
0
0
0
0
0
0
0
0
0
0
0
0
0
0
0
0
0
0
0
0
0
0
0
0
0
0
0
0
0
0
0
0
0
0
0
0
0
0
0
0
0
0
0
0
0
0
0
0
0
0
0
0
0
0
0
0
0
0
0
0
0
0
0
0
0
0
0
0
0
0
0
0
0
0
0
0
0
0
0
0
0
0
0
0
0
0
0
0
0
0
0
0
0
0
0
0
0
0
0
0
0
0
0
0
0
0
0
0
0
0
0
0
0
0
0
0
0
0
0
0
0
0
0
0
0
0
0
0
0
0
0
0
0
0
0
0
0
0
0
0
0
0
0
0
0
0
0
0
0
0
0
0
0
0
0
0
0
0
0
0
0
0
0
0
0
0
0
0
0
0
0
0
0
0
0
0
0
0
0
0
0
0
0
0
0
0
0
0
0
0
0
0
0
0
0
0
0
0
0
0
0
0
0
0
0
0
0
0
0
0
0
0
0
0
0
0
0
0
0
0
0
0
0
0
0
0
0
0
0
0
0
0
0
0
0
0
0
0
0
0
0
0
0
0
0
0
0
0
0
0
0
0
0
0
0
0
0
0
0
0
0
0
0
0
0
0
0
0
0
0
0
0
0
0
0
0
0
0
0
0
0
0
0
0
0
0
0
0
0
0
0
0
0
0
0
0
0
0
0
0
0
0
0
0
0
0
0
0
0
0
0
0
0
0
0
0
0
0
0
0
0
0
0
0
0
0
0
0
0
0
0
0
0
0
0
0
0
0
0
0
0
0
0
0
0
0
0
0
0
0
0
0
0
0
0
0
0
0
0
0
0
0
0
0
0
0
0
0
0
0
0
0
0
0
0
0
0
0
0
0
0
0
0
0
0
0
0
0
0
0
0
0
0
0
0
0
0
0
0
0
0
0
0
0
0
0
0
0
0
0
0
0
0
0
0
0
0
0
0
0
0
0
0
0
0
0
0
0
0
0
0
0
0
0
0
0
0
0
0
0
0
0
0
0
0
0
0
0
0
0
0
0
0
0
0
0
0
0
0
0
0
0
0
0
0
0
0
0
0
0
0
0
0
0
0
0
0
0
0
0
0
0
0
0
0
0
0
0
0
0
0
0
0
0
0
0
0
0
0
0
0
0
0
0
0
0
0
0
0
0
0
0
0
0
0
0
0
0
0
0
0
0
0
0
0
0
0
0
0
0
0
0
0
0
0
0
0
0
0
0
0
0
0
0
0
0
0
0
0
0
0
0
0
0
0
0
0
0
0
0
0
0
0
0
0
0
0
0
0
0
0
0
0
0
0
0
0
0
0
0
0
0
0
0
0
0
0
0
0
0
0
0
0
0
0
0
0
0
0
0
0
0
0
0
0
0
0
0
0
0
0
0
0
0
0
0
0
0
0
0
0
0
0
0
0
0
0
0
0
0
0
0
0
0
0
0
0
0
0
0
0
0
0
0
0
0
0
0
0
0
0
0
0
0
0
0
0
0
0
0
0
0
0
0
0
0
244.3029
133.7928
248.5245
445.9976
340.3446
554.327
629.1323
606.3414
635.5025
645.5805
603.6202
534.2383
586.6808
422.0779
271.3065
569.4239
422.0919
195.6821
118.0943
147.4693
191.9447
0
0
0
0
0
0
0
0
0
0
0
0
0
0
0
0
0
0
0
0
0
0
0
0
0
0
0
20.6294
0
0
41.68185
176.0559
0
0
0
0
0
0
0
0
0
0
0
0
0
0
0
0
0
0
0
0
0
0
0
0
0
0
0
0
0
0
0
0
18.80142
64.08938
0
0
0
0
23.17357
0
0
0
0
0
0
0
0
0
0
0
0
0
0
0
0
0
0
0
0
0
0
0
0
0
0
0
0
0
0
0
220.272
220.9167
257.6178
146.8964
147.3411
184.042
74.99685
75.41156
111.1378
0.248502
0.4408805
38.59386
221.6521
222.1364
259.0186
147.7897
148.2176
185.126
75.85743
76.28588
112.0081
0.6794961
0.7325641
39.80168
148.6385
149.0733
186.0489
76.72572
77.15621
112.8531
0.7546019
0.7772816
40.67064
224.523
225.0984
261.5462
149.5358
149.9899
187.408
77.59479
78.03578
113.7271
0.7996621
0.8216754
41.33985
225.7654
226.4326
263.0879
150.4469
150.8794
188.5327
78.47729
78.9196
114.5921
0.8430671
0.863518
41.89028
151.3302
151.7695
189.6297
79.34797
79.72025
115.4535
0.8831409
0.9029035
42.41035
227.8703
227.7869
265.9949
152.1597
152.5638
189.356
80.09336
80.47076
116.3239
0.9213093
0.9391859
42.90546
153.0093
153.4417
190.2189
80.84937
81.22796
117.1509
0.9568882
0.9730174
43.36666
229.4916
230.0657
268.9172
153.8948
154.3223
191.1253
81.614
81.99309
117.9376
0.9898771
1.006253
43.82134
230.6506
231.2183
270.3674
154.7729
155.1676
192.0178
82.38039
82.76534
118.7228
1.021521
1.037185
44.26728
231.7999
232.3444
271.2188
155.5784
155.9764
192.9234
83.15774
83.54645
119.5158
1.051627
1.065389
44.68482
232.4255
232.5414
271.53
156.3916
156.8101
193.4515
83.94307
84.33631
120.3158
1.078808
1.092769
45.09793
232.6598
232.7664
271.8312
156.874
156.9469
193.617
84.73657
85.16101
120.7868
1.106766
1.122854
45.48254
232.8848
233.0013
272.1333
157.0331
157.1139
193.7841
85.2103
85.29525
120.9606
1.138405
1.222289
45.46621
233.1223
233.2506
272.4281
157.2094
157.2991
193.9672
85.39277
85.47919
121.1459
1.408901
1.437633
45.38179
233.3651
233.5116
272.7392
157.398
157.4977
194.1627
85.58535
85.67545
121.3408
1.43597
1.46227
45.12562
233.7126
235.1294
273.1547
157.5953
157.8059
195.9707
85.78109
85.88175
121.5505
1.506483
1.543993
44.8902
236.5184
236.9067
273.5906
157.9973
158.113
197.3877
85.99026
86.10403
121.7798
1.586989
1.629276
44.65684
237.1109
237.2962
273.9524
158.2336
158.359
197.6958
86.21788
86.33829
122.0224
1.675149
1.721217
44.41428
237.4964
237.7069
274.3227
158.4873
158.6222
198.0285
86.46481
86.58981
122.28
1.760993
1.802905
44.12463
237.9018
238.1372
274.7218
158.7571
158.9033
198.3787
86.72355
86.85249
122.5614
1.843769
1.884718
43.83594
238.3524
238.6258
275.1261
159.0504
159.2038
198.7658
86.99486
87.12357
122.843
1.928708
1.970829
43.53578
238.915
238.7821
275.9497
159.3735
160.4866
200.0108
87.26232
87.40058
123.1963
2.019253
2.064658
43.24471
162.2334
163.1443
202.6913
87.53657
87.68225
123.6635
2.115013
2.167147
42.95345
240.4454
240.4016
276.4976
163.4161
163.6589
203.6411
87.82615
87.97619
124.0283
2.220789
2.273932
42.65648
240.6282
240.9385
277.2274
163.9039
164.1575
204.2364
88.13038
88.28719
124.4238
2.330399
2.389413
42.35653
241.2685
241.6199
277.8651
164.5388
165.7193
204.9758
88.44552
88.681
125.9861
2.450225
2.514098
42.04278
241.9745
242.3915
278.5189
167.8617
169.1025
205.8369
88.96052
89.18695
129.176
2.579954
2.648665
41.77438
389.4481
389.323
423.0755
316.6202
316.6764
352.9335
242.8143
243.2835
279.9358
169.6386
170.0625
206.7239
89.36931
89.55029
129.8268
2.718466
2.79419
41.54354
389.5886
389.9787
423.8674
317.041
317.5014
353.8748
243.7612
244.272
280.928
170.5074
170.9819
207.6776
89.73756
90.01634
130.7496
2.872247
2.953681
41.33113
390.5731
391.1335
426.3354
318.01
318.5368
354.847
244.8505
245.4363
282.0327
171.5999
172.2144
208.8032
92.48311
94.24261
135.1435
3.037508
3.127645
41.30322
391.8158
393.4338
428.4671
319.0905
319.6326
355.9875
246.0992
246.7613
283.2494
172.8175
173.4447
210.0773
94.83661
95.24335
136.8063
3.217896
3.315127
41.54466
394.223
395.0733
430.4002
320.1325
320.553
357.1983
247.4174
248.035
284.3661
174.1513
174.9339
211.4421
96.08124
100.1471
138.5817
3.420357
3.555164
46.57778
396.7508
398.224
430.1613
321.0842
321.3674
359.2977
248.5506
248.9743
285.0241
175.6996
176.5901
212.6971
103.3453
106.4878
141.2017
3.723819
4.056761
53.34654
398.6134
398.0459
428.851
321.8
321.6529
361.5236
248.9711
248.2838
284.4301
177.7038
178.9754
213.0057
110.2345
113.5884
146.1961
4.495129
4.616163
59.24588
395.8652
392.2356
422.7847
319.4484
318.4063
357.4244
246.3866
243.7867
278.5294
180.2721
181.0326
210.8793
117.0524
125.2104
153.2949
5.64391
6.95045
77.89835
384.7027
374.4604
404.0678
314.4849
307.9404
339.0435
241.3249
236.5301
266.8401
179.5298
175.5999
205.9983
131.235
130.1924
151.9589
7.432379
7.748978
83.36111
360.4366
346.1607
372.869
299.992
288.0959
315.8393
229.7808
219.5246
261.3453
168.3829
163.8408
194.863
124.2391
116.3155
139.816
20.1113
21.30768
87.48093
330.5293
317.0998
340.0062
277.7009
268.7938
292.4894
220.5832
230.7107
246.5259
171.6304
181.487
204.3727
112.9393
115.4027
153.5252
24.02295
29.1609
89.9852
308.3434
319.6079
327.0995
276.9256
303.5892
312.9758
252.257
274.294
291.2553
203.7539
221.4775
251.8267
122.2597
135.0422
181.8025
32.73186
45.93061
90.85287
352.2617
398.1568
397.5968
338.0574
368.661
386.3622
296.4139
318.1529
347.687
233.5257
250.5798
288.2985
146.6214
153.9407
210.3021
54.95447
57.88389
92.67507
453.7105
502.8426
527.5129
406.7613
441.2345
470.9939
336.3698
364.371
410.2948
262.4319
276.6647
323.966
162.001
175.1488
232.2733
61.72768
66.4189
96.88965
552.9914
613.3075
656.8716
480.3737
524.8908
572.7796
403.0897
436.2347
475.5943
294.0269
315.5902
383.2018
198.2791
214.1053
250.8082
75.57672
86.68136
106.298
657.0586
737.4268
809.1441
560.0384
646.6463
683.7695
466.5863
519.4885
567.6285
342.8252
408.6662
468.2913
227.8415
242.7721
297.8429
83.54555
78.77443
125.8035
796.4319
863.1177
947.4153
717.9409
775.1557
824.184
570.3152
673.1204
742.8199
465.1402
508.1027
542.6962
254.5853
276.3504
378.0268
83.79871
82.86927
137.7642
952.4831
1008.458
1116.429
850.1691
917.8897
1016.682
764.673
818.6484
854.0069
547.5593
592.5309
692.543
353.384
424.8803
457.5847
118.3997
120.2475
196.1231
1082.221
1171.451
1249.287
1010.274
1095.582
1112.255
845.2421
899.1457
995.0504
681.01
743.4773
786.1626
456.3406
451.0434
577.7722
161.5162
141.4594
268.833
1244.005
1305.621
1402.209
1121.304
1161.89
1226.257
958.0042
990.1264
1040.165
718.9416
721.3191
858.8363
431.9965
455.5724
617.9296
139.9077
166.156
303.8852
1367.225
1396.923
1519.554
1202.595
1211.122
1299.386
956.6429
969.1105
1095.794
720.447
733.026
831.5378
466.2014
433.9661
581.0954
159.5695
226.8752
372.6039
1439.013
1464.209
1633.41
1236.861
1227.489
1325.367
963.86
923.0005
1060.099
676.631
636.2851
809.6319
426.2609
423.3432
541.0216
256.6161
269.6721
347.3039
1501.586
1483.108
1648.429
1220.562
1214.014
1356.538
884.9808
846.6928
1044.366
600.4506
561.1824
730.9612
388.7236
369.2906
480.6816
285.1941
286.8958
321.1746
1462.765
1466.41
1603.108
1187.696
1173.641
1309.728
865.6378
830.5666
978.672
549.8103
581.5535
691.7918
361.2695
346.724
459.3447
230.8995
217.0375
295.4493
1434.495
1407.493
1495.905
1166.37
1149.352
1263.05
863.0247
874.2986
1022.649
573.9133
637.9701
807.4479
375.4984
393.9538
512.4044
1392.591
1344.638
1412.569
1163.327
1154.869
1209.454
860.7493
899.1042
1017.086
679.5737
748.1929
813.136
465.5156
577.9792
628.8519
1339.226
1301.749
1363.079
1114.206
1093.936
1178.339
877.7197
875.3481
944.8261
618.1922
656.937
768.3778
1291.818
1256.285
1339.073
1066.139
1048.84
1133.068
847.331
848.3181
922.802
704.5038
712.0316
751.5687
1212.131
1183.716
1269.046
1017.575
987.0684
1072.355
821.075
783.5828
863.7011
684.8403
644.2338
706.6082
1127.625
1114.766
1197.81
960.1172
931.1103
1020.199
769.9615
729.1869
803.1794
560.8742
483.858
614.3335
1048.485
1017.643
1087.997
880.868
839.6998
906.5507
666.2989
579.6378
698.8384
496.2651
424.4173
515.0834
335.6082
296.8941
327.7218
948.7539
945.1755
1051.396
738.4105
700.5024
811.1705
539.2984
517.0177
607.7638
375.1168
343.798
438.7126
262.7062
233.8701
253.249
893.1116
848.8079
964.8461
694.4641
700.375
785.899
505.8115
523.9095
572.5873
351.2363
360.1284
440.1362
207.9801
232.14
318.5653
125.4127
137.5063
181.8083
841.3137
805.2943
899.0522
666.5507
672.3399
751.7836
532.9859
535.7509
637.9685
373.0536
401.0824
493.487
253.5057
258.9177
363.3927
172.3942
139.6366
241.2048
786.5884
756.1599
813.762
664.2149
637.397
691.8841
529.1838
535.3029
574.5902
397.3708
389.9414
469.8894
265.5731
260.6254
353.5014
154.1359
123.9797
214.5763
712.8403
672.8326
711.6313
597.1217
581.21
615.5885
510.5062
461.7674
537.9472
405.4475
387.5162
446.7758
238.2673
244.317
305.7481
94.91472
59.61212
184.2443
642.4615
620.7543
646.9028