/*--------------------------------*- C++ -*----------------------------------*\
| =========                 |                                                 |
| \\      /  F ield         | OpenFOAM: The Open Source CFD Toolbox           |
|  \\    /   O peration     | Version:  2206                                  |
|   \\  /    A nd           | Website:  www.openfoam.com                      |
|    \\/     M anipulation  |                                                 |
\*---------------------------------------------------------------------------*/
FoamFile
{
    version     2.0;
    format      ascii;
    arch        "LSB;label=32;scalar=64";
    class       volVectorField;
    location    "2.2";
    object      U;
}
// * * * * * * * * * * * * * * * * * * * * * * * * * * * * * * * * * * * * * //

dimensions      [0 1 -1 0 0 0 0];

internalField   nonuniform List<vector> 
13078
(
(-3.797113e-06 -4.448783e-05 -2.065137e-27)
(-3.009788e-06 -1.206282e-05 4.889235e-30)
(-3.721964e-06 1.432623e-06 1.759907e-27)
(-3.921813e-06 5.69195e-06 0)
(-3.911735e-06 8.022223e-06 5.755061e-28)
(-3.855377e-06 1.093134e-05 5.671455e-28)
(-3.769526e-06 1.361676e-05 5.714977e-28)
(-3.145501e-05 -3.051257e-05 0)
(-1.783935e-05 -5.619081e-06 -7.899523e-30)
(-9.500315e-06 4.035305e-06 0)
(-8.102734e-06 6.089905e-06 0)
(-7.304835e-06 8.56679e-06 4.149059e-30)
(-6.759138e-06 1.138666e-05 2.160879e-30)
(-6.301496e-06 1.401989e-05 4.249325e-30)
(4.258702e-06 -2.903487e-06 1.062673e-27)
(-7.147154e-06 1.475567e-06 -3.784851e-28)
(-1.043108e-05 4.393367e-06 -5.315556e-28)
(-1.059545e-05 7.008355e-06 -1.081648e-27)
(-1.006843e-05 9.746609e-06 -5.544439e-28)
(-9.436305e-06 1.243762e-05 0)
(-8.749102e-06 1.498553e-05 3.323338e-33)
(-2.341545e-06 1.145824e-06 1.173138e-28)
(-9.093394e-06 4.287465e-06 2.002795e-28)
(-1.20167e-05 6.287969e-06 5.195415e-28)
(-1.270061e-05 8.689294e-06 3.546318e-28)
(-1.250758e-05 1.133797e-05 -1.485878e-29)
(-1.191348e-05 1.392681e-05 0)
(-1.109452e-05 1.640214e-05 -7.435264e-30)
(-8.482387e-06 1.919927e-06 3.042574e-30)
(-1.211996e-05 5.506688e-06 4.460898e-28)
(-1.42123e-05 8.0625e-06 1.013447e-27)
(-1.498167e-05 1.05733e-05 1.165985e-27)
(-1.48834e-05 1.306336e-05 1.503271e-30)
(-1.431275e-05 1.567606e-05 3.272619e-32)
(-1.339435e-05 1.815676e-05 -5.848847e-28)
(-1.342036e-05 2.148401e-06 0)
(-1.553767e-05 6.196246e-06 -1.448533e-29)
(-1.700684e-05 9.338618e-06 2.18899e-29)
(-1.761717e-05 1.222053e-05 7.376531e-28)
(-1.747167e-05 1.49505e-05 -6.571789e-29)
(-1.677024e-05 1.754901e-05 5.726879e-28)
(-1.574077e-05 2.015277e-05 1.27077e-27)
(-1.828813e-05 2.247746e-06 0)
(-1.948922e-05 6.66164e-06 9.301983e-28)
(-2.034828e-05 1.03602e-05 1.268575e-27)
(-2.070891e-05 1.368425e-05 4.358422e-28)
(-2.036026e-05 1.679417e-05 8.424721e-28)
(-1.951414e-05 1.967555e-05 -7.513453e-29)
(-1.821896e-05 2.234273e-05 0)
(-2.324858e-05 2.350463e-06 -2.37296e-27)
(-2.388803e-05 7.098235e-06 1.180031e-27)
(-2.428864e-05 1.127119e-05 1.167383e-27)
(-2.424925e-05 1.512391e-05 0)
(-2.364167e-05 1.867476e-05 2.18817e-27)
(-2.256149e-05 2.192225e-05 -7.896417e-29)
(-2.103429e-05 2.488898e-05 -8.759394e-29)
(-2.84388e-05 2.496711e-06 -3.45327e-31)
(-2.871414e-05 7.619357e-06 -2.880624e-27)
(-2.872172e-05 1.227229e-05 -1.455174e-27)
(-2.831559e-05 1.664266e-05 -5.877022e-29)
(-2.738336e-05 2.068127e-05 5.124985e-27)
(-2.600014e-05 2.435814e-05 -8.40915e-29)
(-2.416034e-05 2.769372e-05 0)
(-3.397865e-05 2.692972e-06 3.489946e-27)
(-3.40045e-05 8.25548e-06 -3.438746e-27)
(-3.368336e-05 1.341557e-05 -1.676715e-27)
(-3.292513e-05 1.832664e-05 3.200952e-27)
(-3.163336e-05 2.289365e-05 2.112095e-30)
(-2.989417e-05 2.705384e-05 0)
(-2.768106e-05 3.081876e-05 0)
(-3.997955e-05 2.94042e-06 0)
(-3.981996e-05 9.025036e-06 0)
(-3.921464e-05 1.474567e-05 -3.929717e-27)
(-3.81154e-05 2.024105e-05 3.743089e-27)
(-3.644075e-05 2.538325e-05 -2.379769e-30)
(-3.430135e-05 3.00795e-05 0)
(-3.16592e-05 3.433042e-05 0)
(-4.655202e-05 3.24036e-06 0)
(-4.624086e-05 9.940277e-06 4.70446e-27)
(-4.537693e-05 1.629474e-05 -4.567276e-27)
(-4.394064e-05 2.243595e-05 -4.264364e-27)
(-4.186233e-05 2.821221e-05 4.197677e-27)
(-3.928123e-05 3.350346e-05 0)
(-3.615554e-05 3.829881e-05 -3.69706e-27)
(-5.380902e-05 3.595415e-06 0)
(-5.336286e-05 1.101393e-05 5.472184e-27)
(-5.224992e-05 1.809085e-05 5.813523e-29)
(-5.046956e-05 2.495456e-05 -5.002836e-27)
(-4.796871e-05 3.143772e-05 4.722063e-27)
(-4.489958e-05 3.739374e-05 -4.368551e-27)
(-4.123442e-05 4.279736e-05 -3.655583e-30)
(-6.187026e-05 4.009389e-06 6.362375e-27)
(-6.129468e-05 1.226008e-05 0)
(-5.993022e-05 2.016392e-05 6.408359e-29)
(-5.777865e-05 2.783782e-05 8.855264e-29)
(-5.485997e-05 3.510703e-05 1.083164e-26)
(-5.123138e-05 4.181954e-05 -5.004468e-27)
(-4.696701e-05 4.790386e-05 4.528533e-27)
(-7.086445e-05 4.487047e-06 7.287795e-27)
(-7.015916e-05 1.369591e-05 0)
(-6.853872e-05 2.255632e-05 1.41975e-28)
(-6.595736e-05 3.119566e-05 -7.9085e-27)
(-6.270476e-05 3.921743e-05 4.293494e-27)
(-5.837165e-05 4.684247e-05 0)
(-5.343487e-05 5.370174e-05 -5.159589e-27)
(-8.093053e-05 5.033255e-06 0)
(-8.008705e-05 1.533114e-05 8.167719e-27)
(-7.820142e-05 2.524524e-05 0)
(-7.530674e-05 3.483847e-05 -7.765448e-27)
(-7.141153e-05 4.400151e-05 -2.755282e-28)
(-6.641091e-05 5.25622e-05 -3.2888e-28)
(-6.073194e-05 6.028617e-05 -6.254283e-27)
(-9.222385e-05 5.658105e-06 0)
(-9.12278e-05 1.72036e-05 1.861053e-26)
(-8.904037e-05 2.834086e-05 8.877441e-29)
(-8.571545e-05 3.910987e-05 1.226774e-28)
(-8.121975e-05 4.942457e-05 0)
(-7.547656e-05 5.905884e-05 0)
(-6.896473e-05 6.776033e-05 0)
(-0.000104919 6.369685e-06 1.077524e-26)
(-0.0001037542 1.933405e-05 1.061359e-26)
(-0.0001012349 3.185898e-05 1.993381e-28)
(-9.741844e-05 4.396796e-05 1.375941e-28)
(-9.226475e-05 5.557159e-05 0)
(-8.570961e-05 6.642668e-05 8.808891e-27)
(-7.825531e-05 7.623953e-05 9.467444e-28)
(-0.0001192091 7.177149e-06 1.224299e-26)
(-0.0001178556 2.175203e-05 1.205057e-26)
(-0.0001149686 3.585156e-05 3.357273e-28)
(-0.0001106005 4.948171e-05 3.091629e-28)
(-0.0001046881 6.253005e-05 0)
(-9.731233e-05 7.474883e-05 9.540667e-27)
(-8.874418e-05 8.585276e-05 5.325421e-28)
(-0.0001353094 8.091552e-06 1.390503e-26)
(-0.0001337438 2.448968e-05 2.72728e-26)
(-0.0001304532 4.037629e-05 1.319336e-26)
(-0.0001254915 5.576966e-05 0)
(-0.000118683 7.059311e-05 -3.334725e-27)
(-0.0001106442 8.401398e-05 -5.050319e-27)
(-0.0001006099 9.671994e-05 -1.196692e-27)
(-0.0001534587 9.123833e-06 1.578421e-26)
(-0.0001516519 2.757847e-05 3.087522e-26)
(-0.0001479087 4.546517e-05 2.977459e-26)
(-0.0001423047 6.275109e-05 1.387685e-26)
(-0.000134816 7.921538e-05 -4.929055e-28)
(-0.0001254487 9.474254e-05 1.209288e-26)
(-0.0001140183 0.0001090326 -1.034221e-26)
(-0.0001739253 1.028985e-05 0)
(-0.0001718434 3.106802e-05 1.741944e-26)
(-0.0001675908 5.122715e-05 1.678787e-26)
(-0.0001612371 7.071671e-05 3.232862e-26)
(-0.0001527856 8.926762e-05 0)
(-0.0001421553 0.0001068138 1.371128e-26)
(-0.0001292146 0.0001229513 -1.641916e-29)
(-0.000197008 1.16026e-05 -2.023484e-26)
(-0.0001946153 3.499845e-05 0)
(-0.0001898003 5.77191e-05 0)
(-0.0001826181 7.969473e-05 -4.823631e-28)
(-0.000173057 0.0001006199 -1.778688e-26)
(-0.0001609816 0.0001203911 0)
(-0.0001465304 0.0001386007 1.415925e-26)
(-0.0002230362 1.307643e-05 -4.581198e-26)
(-0.0002202938 3.941151e-05 0)
(-0.0002148611 6.501198e-05 0)
(-0.0002067787 8.980156e-05 -2.01621e-26)
(-0.0001960391 0.0001135159 -3.8189e-26)
(-0.0001823115 0.0001361489 1.7848e-26)
(-0.0001666201 0.0001559932 0)
(-0.0002523709 1.472557e-05 -2.591626e-26)
(-0.000249235 4.434989e-05 -1.369539e-28)
(-0.0002431228 7.317067e-05 -2.477225e-26)
(-0.0002340487 0.0001010779 -6.262221e-28)
(-0.0002220503 0.0001277057 -8.120317e-28)
(-0.0002070616 0.0001527862 2.028589e-26)
(-0.0001889564 0.0001760857 0)
(-0.0002854043 1.656436e-05 0)
(-0.0002818316 4.986061e-05 2.868225e-26)
(-0.0002749766 8.22908e-05 -2.7766e-26)
(-0.0002648143 0.0001137301 0)
(-0.0002513754 0.0001437934 2.315343e-26)
(-0.0002346256 0.0001721474 -4.261478e-27)
(-0.0002142678 0.0001986764 -2.45811e-27)
(-0.0003225558 1.860215e-05 3.310288e-26)
(-0.0003185148 5.597857e-05 3.24194e-26)
(-0.0003108586 9.243475e-05 -3.135746e-26)
(-0.0002995352 0.0001278245 0)
(-0.0002845553 0.0001617433 1.999187e-27)
(-0.0002658467 0.0001938143 3.575761e-30)
(-0.0002430404 0.0002239347 -2.768652e-27)
(-0.0003642535 2.084579e-05 3.738298e-26)
(-0.0003597616 6.270957e-05 3.658666e-26)
(-0.0003512332 0.0001036503 -3.543981e-26)
(-0.0003386864 0.0001434442 0)
(-0.0003220893 0.0001816998 0)
(-0.0003013992 0.0002181588 2.951559e-26)
(-0.000276056 0.0002530502 -2.990658e-27)
(-0.0004109471 2.325579e-05 4.223008e-26)
(-0.0004060672 7.005833e-05 4.151945e-26)
(-0.0003965916 0.0001159718 0)
(-0.00038277 0.0001606382 -3.625405e-26)
(-0.0003644349 0.0002036378 2.515505e-27)
(-0.0003415717 0.0002443938 6.390216e-26)
(-0.0003139729 0.0002821382 -1.039821e-26)
(-0.0004629902 2.600689e-05 4.750058e-26)
(-0.000458152 7.774723e-05 0)
(-0.0004475244 0.0001293208 4.587274e-26)
(-0.0004323835 0.0001794974 -4.210615e-26)
(-0.0004122554 0.0002279883 4.076394e-26)
(-0.0003869799 0.0002743204 7.577113e-26)
(-0.0003561298 0.0003178824 3.439163e-26)
(-0.0005214329 2.855558e-05 0)
(-0.0005157175 8.632394e-05 0)
(-0.0005046072 0.0001436349 1.016498e-25)
(-0.0004881879 0.0001999102 0)
(-0.0004663488 0.0002545303 9.224923e-26)
(-0.0004388857 0.0003071659 4.298434e-26)
(-0.0004052983 0.0003575493 -3.914893e-26)
(-0.0005860833 3.164053e-05 6.03433e-26)
(-0.0005793729 9.581097e-05 -5.838104e-26)
(-0.0005687345 0.0001580768 -5.666084e-26)
(-0.0005511205 0.0002213371 0)
(-0.0005273781 0.0002829542 5.218365e-26)
(-0.0004979326 0.0003424062 0)
(-0.0004618194 0.0003993546 -3.489201e-26)
(-0.0006573933 3.458943e-05 6.747957e-26)
(-0.0006509298 0.0001044592 -6.627594e-26)
(-0.0006385631 0.0001746977 -1.924566e-25)
(-0.0006224839 0.0002427634 -1.25717e-25)
(-0.0005962256 0.0003127674 5.50224e-26)
(-0.000565004 0.0003801956 -4.657097e-27)
(-0.0005262689 0.0004453548 5.44826e-27)
(-0.000735258 3.75735e-05 -1.119319e-28)
(-0.0007288136 0.0001133356 -3.475959e-28)
(-0.0007171776 0.0001890174 -7.47068e-26)
(-0.0006998433 0.0002656852 -1.349984e-25)
(-0.0006739066 0.0003431195 7.497149e-26)
(-0.000641338 0.0004197002 -1.02663e-26)
(-0.0006005431 0.0004944771 -2.422662e-26)
(-0.0008196394 4.045688e-05 1.201553e-28)
(-0.000813283 0.000122209 3.745796e-28)
(-0.0008024342 0.0002045948 -7.860482e-26)
(-0.0007844363 0.0002893943 -4.994726e-26)
(-0.0007622284 0.0003712907 4.212635e-26)
(-0.0007288047 0.0004588106 -5.99644e-26)
(-0.0006860482 0.0005450488 0)
(-0.0009100205 4.293157e-05 0)
(-0.0009039947 0.0001297672 0)
(-0.0008947042 0.0002174416 -9.045226e-26)
(-0.0008798326 0.0003075509 -9.545474e-26)
(-0.0008566264 0.0004018488 -1.293276e-25)
(-0.0008300614 0.0004941881 -1.252354e-25)
(-0.0007844536 0.0005950366 0)
(-0.001005338 4.478848e-05 2.644666e-28)
(-0.0009997922 0.000135504 -7.986506e-28)
(-0.0009923888 0.0002275748 -2.776731e-27)
(-0.0009809284 0.0003226531 0)
(-0.0009629619 0.0004219065 -1.914484e-25)
(-0.0009384733 0.0005280978 1.275524e-26)
(-0.0008985533 0.0006415563 3.125147e-26)
(-0.001103842 4.564273e-05 1.128836e-25)
(-0.001098952 0.0001383864 -8.483125e-28)
(-0.001094366 0.0002335417 1.105894e-25)
(-0.001087772 0.0003335094 0)
(-0.001076509 0.000440756 -1.178211e-25)
(-0.001056609 0.0005592754 -2.229155e-26)
(-0.001034461 0.0006798703 1.525137e-25)
(-0.001202774 4.509674e-05 1.230721e-25)
(-0.001199585 0.0001373012 1.212138e-25)
(-0.001199134 0.0002337605 1.21341e-25)
(-0.001199439 0.0003365365 8.099119e-27)
(-0.001198009 0.000448134 2.170968e-26)
(-0.001191011 0.0005709141 -7.638492e-26)
(-0.00117975 0.000711709 6.89689e-26)
(-0.001298953 4.337826e-05 0)
(-0.00129941 0.0001312686 -1.301629e-25)
(-0.001305092 0.0002269991 -1.319439e-25)
(-0.001313878 0.0003310585 -4.025488e-27)
(-0.001324807 0.0004464947 1.431108e-25)
(-0.001333758 0.0005781063 1.411347e-26)
(-0.001336054 0.000733976 0)
(-0.001390441 3.944917e-05 -1.428045e-25)
(-0.001393827 0.0001227914 -2.792068e-25)
(-0.001409034 0.0002112149 -1.339244e-25)
(-0.001428998 0.0003139011 -2.872243e-25)
(-0.001454118 0.0004296759 1.559568e-25)
(-0.001483216 0.0005633414 -1.333639e-25)
(-0.001504827 0.000724658 6.677135e-30)
(-0.001471936 3.412218e-05 -1.510625e-25)
(-0.001482865 0.0001073206 6.533711e-28)
(-0.001503308 0.0001901949 0)
(-0.001540088 0.0002819768 -3.404332e-27)
(-0.001581347 0.0003955526 -3.156422e-25)
(-0.001624291 0.0005355021 -1.61022e-25)
(-0.001658495 0.0007134503 3.461799e-29)
(-0.001539656 2.718658e-05 1.582157e-25)
(-0.00155952 8.717786e-05 -9.894519e-28)
(-0.00159008 0.0001570706 -1.911709e-27)
(-0.001634584 0.0002410556 3.428974e-25)
(-0.00169407 0.0003457485 -2.947465e-25)
(-0.001747666 0.0004975395 -3.118002e-25)
(-0.001796622 0.0006416381 4.035533e-26)
(-0.001589513 1.865399e-05 1.634587e-25)
(-0.001620575 6.19021e-05 0)
(-0.001659727 0.0001157067 -2.689374e-27)
(-0.001715685 0.0001874547 -1.327035e-26)
(-0.00177191 0.0003010159 -2.366887e-25)
(-0.001844142 0.0004177768 -4.363963e-25)
(-0.001851006 0.0005584619 -1.120647e-28)
(-0.001618486 8.741588e-06 0)
(-0.001660668 3.143422e-05 -5.628501e-28)
(-0.001706483 6.653795e-05 -3.192764e-27)
(-0.001766355 0.0001360967 -1.779876e-25)
(-0.001821894 0.0002330486 -1.497307e-25)
(-0.001853651 0.0003311331 -1.316182e-25)
(-0.001831029 0.0004706851 -1.752611e-28)
(-0.001624355 -2.477403e-06 0)
(-0.001673066 -3.344849e-06 3.629213e-30)
(-0.001718861 1.746133e-05 1.426559e-27)
(-0.001773455 7.979582e-05 -1.810379e-25)
(-0.001811848 0.0001547851 2.081296e-26)
(-0.001796594 0.0002596119 -3.096565e-25)
(-0.001754173 0.0004285254 4.638765e-26)
(-0.0016019 -1.510298e-05 1.652939e-25)
(-0.00165193 -3.692543e-05 -7.620464e-28)
(-0.00169156 -2.429176e-05 5.921614e-28)
(-0.001725855 1.924904e-05 -4.644446e-29)
(-0.001732267 8.372115e-05 9.903354e-29)
(-0.001690506 0.0002149502 -1.433221e-25)
(-0.00164311 0.0003846293 -1.30135e-25)
(-0.00154586 -2.74086e-05 1.594672e-25)
(-0.001590529 -6.125912e-05 8.871541e-31)
(-0.001618709 -5.625016e-05 1.617876e-25)
(-0.001625251 -2.565799e-05 -4.053989e-32)
(-0.001597104 5.949513e-05 5.356241e-26)
(-0.001541271 0.0002051594 8.651562e-26)
(-0.001485888 0.0003908019 2.25805e-29)
(-0.001454775 -3.414487e-05 1.500462e-25)
(-0.001487209 -7.507061e-05 1.561387e-30)
(-0.001498345 -7.889721e-05 1.474514e-25)
(-0.00148241 -3.962345e-05 6.21352e-30)
(-0.001432965 6.680332e-05 1.256012e-25)
(-0.00136526 0.0002323467 -1.12566e-25)
(-0.001289629 0.0004360691 -9.653396e-26)
(-0.001329938 -3.331936e-05 2.738874e-25)
(-0.001345984 -7.939257e-05 4.460916e-29)
(-0.001336647 -8.406323e-05 -1.296017e-25)
(-0.001304205 -2.449342e-05 2.153632e-31)
(-0.001247775 0.0001109432 2.158042e-25)
(-0.001176977 0.0003037479 -3.859052e-26)
(-0.001082794 0.0005270184 -1.509643e-27)
(-0.00117233 -2.721167e-05 1.211065e-25)
(-0.001171694 -7.048614e-05 -6.029226e-26)
(-0.001148899 -6.518598e-05 -3.267866e-25)
(-0.00110746 1.838422e-05 1.000575e-25)
(-0.001047464 0.0001829277 8.909837e-26)
(-0.0009737722 0.0004025669 -5.300046e-30)
(-0.0008794057 0.0006522293 -8.374237e-26)
(-0.000982962 -1.587211e-05 5.042239e-26)
(-0.0009717002 -5.181481e-05 -5.036093e-26)
(-0.0009425175 -2.831794e-05 -1.755949e-25)
(-0.0008949943 8.542827e-05 1.853063e-26)
(-0.0008349774 0.0002825675 -9.775233e-26)
(-0.0007599439 0.0005353918 -6.014095e-26)
(-0.000667962 0.0008149545 -4.819999e-30)
(-0.0007696243 -6.647689e-06 3.960226e-26)
(-0.0007554974 -2.844903e-05 3.820831e-26)
(-0.0007247565 1.929255e-05 2.542817e-26)
(-0.0006829432 0.0001614958 -1.417903e-26)
(-0.0006290509 0.0003837343 1.957727e-28)
(-0.0005606065 0.0006709044 -4.306054e-26)
(-0.0004810815 0.001004324 4.82278e-25)
(-0.0005410946 1.381503e-06 -3.684307e-31)
(-0.0005297275 -4.222331e-06 2.690263e-26)
(-0.0005070353 6.351414e-05 3.081442e-26)
(-0.000478776 0.0002296698 -1.265178e-26)
(-0.0004403515 0.0004782839 1.93525e-26)
(-0.0003898426 0.00079683 1.50575e-26)
(-0.0003221522 0.00116381 -1.170704e-25)
(-0.0003049257 8.533489e-06 -2.37073e-30)
(-0.0002991354 1.708112e-05 -2.030307e-30)
(-0.0002892364 9.844774e-05 1.452257e-26)
(-0.0002768871 0.0002821261 -4.483719e-31)
(-0.0002575499 0.0005518952 1.082283e-26)
(-0.0002296378 0.000896364 -3.549166e-26)
(-0.0001886411 0.001293476 -5.331482e-26)
(-6.030321e-05 1.356038e-05 3.708857e-28)
(-6.124406e-05 3.155333e-05 -1.867349e-27)
(-6.586499e-05 0.0001191454 4.496782e-27)
(-7.121825e-05 0.0003122229 1.05792e-26)
(-7.362324e-05 0.0005949795 -3.210823e-30)
(-7.21188e-05 0.0009558214 8.20415e-30)
(-6.582528e-05 0.001373335 -5.970318e-26)
(0.0001899789 1.492671e-05 3.153727e-28)
(0.0001827491 3.742209e-05 2.396687e-27)
(0.0001645714 0.0001245345 -4.287388e-27)
(0.0001411657 0.0003174571 -7.839903e-27)
(0.0001157847 0.0006021891 -6.278357e-26)
(8.882184e-05 0.0009662011 -8.847392e-26)
(5.704599e-05 0.001388292 2.480985e-31)
(0.0004326836 1.151482e-05 1.428296e-31)
(0.0004220028 3.378582e-05 -2.018534e-30)
(0.0003931387 0.0001156344 1.453909e-26)
(0.0003531808 0.0002982047 1.747829e-26)
(0.0003057931 0.0005730164 -2.572778e-30)
(0.0002516049 0.0009264296 3.856519e-26)
(0.0001840876 0.001337291 -5.720012e-26)
(0.0006605578 4.297642e-06 -3.420415e-26)
(0.0006516563 2.322634e-05 -3.3361e-26)
(0.0006178926 9.77278e-05 1.500591e-26)
(0.0005645096 0.0002633378 -1.29451e-26)
(0.0004973434 0.0005201719 -2.80408e-30)
(0.000419035 0.0008546652 -4.801851e-26)
(0.0003231584 0.001247016 -1.528468e-25)
(0.0008774211 -7.151436e-06 -9.080412e-26)
(0.0008703596 5.057793e-06 -8.93245e-26)
(0.0008407759 7.505183e-05 2.081603e-26)
(0.0007806311 0.0002214145 -1.847759e-26)
(0.0006981358 0.0004558614 -3.103074e-26)
(0.0006003963 0.0007666539 -7.318998e-26)
(0.0004894203 0.001137587 -4.594535e-25)
(0.001077111 -2.02531e-05 -5.575784e-26)
(0.001074238 -2.045437e-05 -1.103409e-25)
(0.001056556 4.792812e-05 -2.073468e-25)
(0.001004303 0.0001793329 -5.004647e-26)
(0.0009169118 0.0003921266 4.285761e-26)
(0.000807903 0.0006764543 -6.722269e-26)
(0.000680507 0.001005572 2.394847e-25)
(0.001251307 -3.246974e-05 1.305435e-25)
(0.001256987 -4.684207e-05 -6.652719e-26)
(0.001245071 2.154756e-05 -3.712222e-25)
(0.001211223 0.0001440519 -2.359799e-25)
(0.001132602 0.0003280898 -6.817276e-26)
(0.001023583 0.0005842426 2.705085e-26)
(0.0008929446 0.0008903169 1.6461e-25)
(0.001391444 -3.580447e-05 2.876859e-25)
(0.001409915 -6.367661e-05 -2.729631e-31)
(0.001408583 -2.181576e-06 -1.438392e-25)
(0.001391715 0.0001233044 -1.382931e-25)
(0.00133244 0.000287007 -2.852762e-25)
(0.001229525 0.000517783 -4.482538e-28)
(0.001100449 0.0008045341 1.685147e-25)
(0.001497681 -3.262423e-05 1.547496e-25)
(0.001529255 -6.439484e-05 -8.307793e-28)
(0.001541546 -1.598818e-05 4.918782e-29)
(0.001540616 0.0001100064 5.482487e-30)
(0.001505279 0.000265581 -2.926373e-25)
(0.001417319 0.0004687661 -2.102702e-29)
(0.00130491 0.0007381452 5.690949e-25)
(0.00156974 -2.242865e-05 1.619555e-25)
(0.00160967 -4.861845e-05 1.659965e-25)
(0.001635821 -1.518974e-05 2.643584e-33)
(0.001650863 0.0001009169 1.497308e-29)
(0.001644525 0.0002653566 -1.283375e-25)
(0.00158383 0.0004477445 2.119061e-25)
(0.00149604 0.0006910433 3.328567e-25)
(0.0016074 -8.867563e-06 1.657921e-25)
(0.001648944 -2.015278e-05 1.700389e-25)
(0.001686694 3.472907e-06 2.448041e-30)
(0.001719177 0.0001007322 3.481923e-25)
(0.00173963 0.0002660776 -1.519509e-26)
(0.001718963 0.0004492489 -3.283115e-26)
(0.001647681 0.000671818 -1.48498e-25)
(0.001614004 3.519013e-06 0)
(0.001651223 1.413952e-05 -1.396809e-31)
(0.00169471 4.055983e-05 3.147551e-30)
(0.001747606 0.0001166979 3.543119e-25)
(0.001782249 0.0002732915 1.662441e-25)
(0.001792894 0.0004637887 -2.852252e-26)
(0.00174959 0.0006772824 3.044378e-25)
(0.001595146 1.389416e-05 0)
(0.001625732 4.608158e-05 8.349522e-28)
(0.001666882 8.837655e-05 3.81428e-27)
(0.001725506 0.0001573914 3.671333e-27)
(0.001773516 0.0002829791 2.300418e-28)
(0.001801163 0.0004815152 8.270237e-26)
(0.001808464 0.0006832368 3.945193e-25)
(0.001555438 2.286332e-05 1.599677e-25)
(0.001576201 7.376208e-05 0)
(0.001610247 0.0001338843 0)
(0.001661489 0.0002084104 -3.247719e-30)
(0.001716439 0.0003161922 -1.736781e-25)
(0.001762648 0.0004833946 -2.245039e-26)
(0.001784517 0.0007164278 3.371517e-26)
(0.001496482 3.049606e-05 1.537782e-25)
(0.00150854 9.610805e-05 1.082055e-27)
(0.001533793 0.0001704685 2.033511e-27)
(0.001572059 0.0002575559 1.941845e-26)
(0.001625055 0.0003602448 4.641273e-26)
(0.001672409 0.000504357 4.79173e-26)
(0.001695893 0.0007104508 3.654105e-25)
(0.001422079 3.646413e-05 0)
(0.001427375 0.0001132849 -1.460714e-25)
(0.001443371 0.0001983442 0)
(0.001472004 0.0002917603 6.734887e-27)
(0.001504688 0.0004045221 9.605579e-27)
(0.001541405 0.0005385823 2.464577e-26)
(0.001574057 0.0007044277 5.301571e-25)
(0.001336221 4.082192e-05 0)
(0.001336234 0.0001257997 1.357825e-25)
(0.001346439 0.0002149285 -1.367527e-25)
(0.001360217 0.000316521 0)
(0.001376994 0.0004309541 1.975396e-26)
(0.00139754 0.0005594757 -8.633787e-26)
(0.001410803 0.0007134624 1.397554e-25)
(0.001242597 4.375609e-05 0)
(0.001240948 0.0001320171 3.791328e-25)
(0.001242941 0.0002263612 1.589887e-28)
(0.001246445 0.0003285785 2.656456e-25)
(0.001251292 0.000439252 2.066352e-26)
(0.001251073 0.0005664155 -1.243411e-25)
(0.001242557 0.0007138177 1.194401e-25)
(0.001145852 4.464674e-05 -1.174973e-25)
(0.001142087 0.0001354706 1.179487e-25)
(0.001139119 0.0002294353 -3.039611e-29)
(0.00113591 0.0003289818 2.23733e-25)
(0.001128604 0.0004362104 0)
(0.001115136 0.000552435 0)
(0.00109595 0.0006827306 1.732339e-25)
(0.001048305 4.443948e-05 -1.071977e-25)
(0.001043307 0.0001347352 1.071267e-25)
(0.001037031 0.0002271555 -1.049522e-25)
(0.001028514 0.0003224482 -1.034263e-25)
(0.00101297 0.0004250332 0)
(0.0009890635 0.0005359306 0)
(0.0009626608 0.0006468123 1.175235e-25)
(0.0009525715 4.316489e-05 9.768297e-26)
(0.0009467407 0.0001307958 9.942014e-26)
(0.0009386822 0.0002188686 2.604061e-27)
(0.000925319 0.0003104461 -8.914448e-26)
(0.0009046147 0.0004060077 -2.713701e-26)
(0.0008785468 0.0005026496 1.357337e-25)
(0.0008384326 0.0006077136 -6.638647e-26)
(0.000860845 4.102018e-05 8.849965e-26)
(0.0008548317 0.0001240728 7.601688e-28)
(0.000844775 0.0002078334 -2.516552e-27)
(0.0008289293 0.0002932446 -3.582535e-27)
(0.0008059812 0.0003815393 0)
(0.0007759352 0.0004700008 8.515068e-26)
(0.0007333168 0.0005622594 -7.134815e-26)
(0.0007743401 3.862032e-05 0)
(0.0007682665 0.0001162892 1.402367e-27)
(0.0007569641 0.0001947755 2.382372e-27)
(0.0007388322 0.000275093 -1.69738e-25)
(0.0007168897 0.0003524316 -3.164653e-26)
(0.000682926 0.0004344318 -1.230607e-25)
(0.0006421662 0.0005142931 -4.958038e-26)
(0.0006940202 3.571812e-05 2.124237e-28)
(0.0006877491 0.0001077429 6.612801e-28)
(0.0006761034 0.0001795725 0)
(0.0006589276 0.0002520594 1.837479e-28)
(0.0006335466 0.0003250261 -6.26212e-26)
(0.0006016932 0.0003967968 -5.885646e-26)
(0.0005625959 0.0004665482 1.144448e-26)
(0.0006200151 3.285654e-05 -6.348189e-26)
(0.0006137576 9.918917e-05 6.391635e-26)
(0.0006016555 0.0001657683 -1.112531e-25)
(0.0005859017 0.0002300964 1.287061e-25)
(0.0005604504 0.0002960795 -5.166298e-26)
(0.0005302896 0.0003594155 0)
(0.0004932116 0.0004204543 -1.031976e-26)
(0.0005522963 3.003035e-05 -5.68058e-26)
(0.0005458601 9.09231e-05 5.493281e-26)
(0.0005355436 0.0001499116 -5.328391e-26)
(0.0005185045 0.0002097288 0)
(0.0004956081 0.0002678622 4.89953e-26)
(0.0004673139 0.0003238254 0)
(0.0004327903 0.0003773382 -4.187715e-26)
(0.0004909356 2.709226e-05 0)
(0.0004854935 8.189341e-05 0)
(0.0004748265 0.0001361938 9.550935e-26)
(0.0004590316 0.000189435 0)
(0.0004380495 0.0002410256 8.65388e-26)
(0.0004117309 0.000290661 4.028299e-26)
(0.000379646 0.0003381086 -3.664534e-26)
(0.0004354828 2.466874e-05 4.462651e-26)
(0.0004309105 7.37473e-05 0)
(0.0004207625 0.0001226239 4.155899e-26)
(0.0004062526 0.0001701267 -4.158178e-26)
(0.0003869639 0.0002159763 3.820106e-26)
(0.0003627802 0.0002597293 7.093165e-26)
(0.0003333233 0.0003008184 3.215197e-26)
(0.0003861079 2.205786e-05 3.94984e-26)
(0.0003815196 6.645646e-05 3.854127e-26)
(0.0003725031 0.0001099821 0)
(0.0003592921 0.0001522942 -3.769302e-26)
(0.0003417537 0.0001929882 -2.379329e-27)
(0.0003199006 0.0002315173 6.540704e-26)
(0.0002935558 0.0002671565 9.844254e-27)
(0.000341809 1.97719e-05 3.503747e-26)
(0.0003376011 5.949058e-05 3.427687e-26)
(0.0003295064 9.83152e-05 -3.318384e-26)
(0.0003175362 0.0001360333 0)
(0.0003016819 0.0001722664 0)
(0.0002819239 0.0002067667 2.755346e-26)
(0.0002577499 0.0002397524 -4.708028e-26)
(0.0003022485 1.764444e-05 3.098172e-26)
(0.000298472 5.311121e-05 3.032883e-26)
(0.0002912175 8.769436e-05 -2.93177e-26)
(0.000280429 0.0001212559 0)
(0.0002661332 0.000153405 -1.889821e-27)
(0.0002482804 0.0001837825 -3.334199e-30)
(0.0002265347 0.0002122893 2.615363e-27)
(0.0002669995 1.571215e-05 0)
(0.0002636643 4.731205e-05 2.678844e-26)
(0.0002571754 7.808524e-05 -2.591617e-26)
(0.0002475011 0.000107915 0)
(0.0002346831 0.0001364295 2.490551e-26)
(0.000218705 0.0001633119 4.026594e-27)
(0.0001993008 0.0001884541 2.322096e-27)
(0.0002356562 1.396838e-05 -2.417211e-26)
(0.0002327285 4.208737e-05 1.293956e-28)
(0.0002269444 6.944256e-05 -2.265055e-26)
(0.0002183085 9.593208e-05 5.917363e-28)
(0.0002068663 0.0001212034 7.300262e-28)
(0.0001925659 0.0001450031 1.882107e-26)
(0.0001753003 0.0001671191 0)
(0.0002078207 1.240415e-05 -4.263986e-26)
(0.0002052568 3.740412e-05 0)
(0.0002001142 6.170797e-05 0)
(0.000192421 8.524598e-05 -1.976448e-26)
(0.0001821781 0.0001077618 -3.672671e-26)
(0.0001690781 0.0001292471 1.651329e-26)
(0.0001541005 0.0001480803 0)
(0.0001831221 1.100606e-05 -1.878913e-26)
(0.0001808786 3.321831e-05 1.022406e-28)
(0.0001763164 5.479235e-05 1.696811e-28)
(0.0001694773 7.566489e-05 4.790079e-28)
(0.0001603555 9.554039e-05 -1.527636e-26)
(0.0001488273 0.0001143175 0)
(0.0001350375 0.0001316046 1.301877e-26)
(0.0001612178 9.760806e-06 1.500657e-29)
(0.0001592569 2.949027e-05 1.634617e-26)
(0.0001552211 4.863572e-05 1.581994e-26)
(0.000149166 6.715265e-05 2.985026e-26)
(0.000141099 8.477988e-05 0)
(0.0001309487 0.0001014511 1.259874e-26)
(0.0001186023 0.0001167778 -1.54809e-29)
(0.0001417949 8.654914e-06 1.454562e-26)
(0.0001400822 2.618083e-05 2.856247e-26)
(0.0001365216 4.317183e-05 2.770359e-26)
(0.0001311743 5.960085e-05 1.349689e-26)
(0.0001240213 7.525273e-05 4.654222e-28)
(0.0001150745 9.001494e-05 1.106685e-26)
(0.000104169 0.0001035988 -1.068576e-26)
(0.0001245695 7.676145e-06 1.279182e-26)
(0.0001230728 2.325226e-05 2.50689e-26)
(0.0001199325 3.834745e-05 1.211292e-26)
(0.0001151896 5.298375e-05 0)
(0.00010868 6.708344e-05 3.154026e-27)
(0.000100996 7.985491e-05 4.774979e-27)
(9.141925e-05 9.194682e-05 1.130485e-27)
(0.0001092866 6.809415e-06 1.123789e-26)
(0.0001079781 2.065748e-05 1.096814e-26)
(0.0001052109 3.405946e-05 -3.168018e-28)
(0.0001010246 4.702655e-05 -2.918467e-28)
(9.536142e-05 5.944822e-05 0)
(8.830536e-05 7.108618e-05 8.648279e-27)
(8.01205e-05 8.166789e-05 -5.031857e-28)
(9.57193e-05 6.044304e-06 9.844485e-27)
(9.457666e-05 1.836645e-05 9.613089e-27)
(9.214771e-05 3.027705e-05 -1.880927e-28)
(8.847669e-05 4.180445e-05 -1.298942e-28)
(8.352857e-05 5.28606e-05 0)
(7.72484e-05 6.321174e-05 7.170933e-27)
(7.011757e-05 7.257727e-05 -8.94869e-28)
(8.366315e-05 5.370189e-06 -8.336316e-30)
(8.266738e-05 1.634835e-05 1.683329e-26)
(8.054151e-05 2.694513e-05 -8.376856e-29)
(7.732775e-05 3.720506e-05 -1.158215e-28)
(7.299742e-05 4.704355e-05 0)
(6.748286e-05 5.62431e-05 0)
(6.124261e-05 6.456187e-05 0)
(7.293491e-05 4.77826e-06 0)
(7.207037e-05 1.457487e-05 7.350478e-27)
(7.021815e-05 2.40141e-05 0)
(6.740213e-05 3.316278e-05 -6.551779e-27)
(6.363371e-05 4.191427e-05 2.603607e-28)
(5.881781e-05 5.010191e-05 3.109382e-28)
(5.336364e-05 5.75003e-05 -4.816461e-27)
(6.336941e-05 4.260679e-06 6.518678e-27)
(6.262163e-05 1.302601e-05 0)
(6.10069e-05 2.146885e-05 -1.339635e-28)
(5.847523e-05 2.971771e-05 -4.621235e-27)
(5.53077e-05 3.739234e-05 7.288105e-27)
(5.11192e-05 4.469928e-05 0)
(4.636532e-05 5.128447e-05 -4.486691e-27)
(5.481989e-05 3.807701e-06 5.640664e-27)
(5.417937e-05 1.166558e-05 0)
(5.279141e-05 1.920473e-05 -6.043236e-29)
(5.065321e-05 2.654427e-05 -8.359781e-29)
(4.779124e-05 3.351298e-05 9.460133e-27)
(4.426583e-05 3.996153e-05 -4.337491e-27)
(4.014685e-05 4.581862e-05 3.884212e-27)
(4.715561e-05 3.414499e-06 0)
(4.661943e-05 1.048397e-05 4.725649e-27)
(4.545096e-05 1.724331e-05 -5.477142e-29)
(4.36488e-05 2.382221e-05 -4.338996e-27)
(4.117185e-05 3.005485e-05 4.068572e-27)
(3.817115e-05 3.579517e-05 -3.730201e-27)
(3.461899e-05 4.101457e-05 -3.450438e-30)
(4.02562e-05 3.076223e-06 0)
(3.982497e-05 9.464545e-06 4.062874e-27)
(3.886896e-05 1.554503e-05 -3.927582e-27)
(3.737401e-05 2.14495e-05 -3.77332e-27)
(3.528597e-05 2.702404e-05 3.39373e-27)
(3.274355e-05 3.214504e-05 -2.042584e-28)
(2.970407e-05 3.679612e-05 -2.853653e-27)
(3.401059e-05 2.788945e-06 0)
(3.369207e-05 8.593899e-06 0)
(3.295046e-05 1.408303e-05 -3.320513e-27)
(3.175259e-05 1.939064e-05 3.136943e-27)
(3.003599e-05 2.437999e-05 -2.232775e-30)
(2.79108e-05 2.894972e-05 0)
(2.533487e-05 3.309306e-05 0)
(2.831521e-05 2.549782e-06 2.917519e-27)
(2.812767e-05 7.860568e-06 -2.861331e-27)
(2.761423e-05 1.283414e-05 -1.342985e-27)
(2.671397e-05 1.761048e-05 2.676752e-27)
(2.535184e-05 2.207501e-05 1.978827e-30)
(2.361007e-05 2.615041e-05 -1.714752e-28)
(2.14518e-05 2.98398e-05 -4.438165e-32)
(2.307106e-05 2.357324e-06 -3.058225e-31)
(2.304977e-05 7.255363e-06 -2.332809e-27)
(2.279288e-05 1.177559e-05 -1.092735e-27)
(2.219988e-05 1.607198e-05 5.501156e-29)
(2.117721e-05 2.005987e-05 4.133277e-27)
(1.978623e-05 2.368942e-05 7.96685e-29)
(1.800098e-05 2.697397e-05 0)
(1.817841e-05 2.210973e-06 -1.869133e-27)
(1.838937e-05 6.768383e-06 9.20975e-28)
(1.843295e-05 1.088137e-05 9.002618e-28)
(1.816751e-05 1.473058e-05 0)
(1.746592e-05 1.828e-05 1.635824e-27)
(1.638984e-05 2.150763e-05 7.483563e-29)