/*--------------------------------*- C++ -*----------------------------------*\
| =========                 |                                                 |
| \\      /  F ield         | OpenFOAM: The Open Source CFD Toolbox           |
|  \\    /   O peration     | Version:  2206                                  |
|   \\  /    A nd           | Website:  www.openfoam.com                      |
|    \\/     M anipulation  |                                                 |
\*---------------------------------------------------------------------------*/
FoamFile
{
    version     2.0;
    format      ascii;
    arch        "LSB;label=32;scalar=64";
    class       volVectorField;
    location    "2.2";
    object      U.a;
}
// * * * * * * * * * * * * * * * * * * * * * * * * * * * * * * * * * * * * * //

dimensions      [0 1 -1 0 0 0 0];

internalField   nonuniform List<vector> 
13078
(
(1.991759e-05 -0.000162546 3.417427e-27)
(3.110999e-06 -6.658712e-05 3.431541e-32)
(3.355596e-07 -3.476128e-05 -6.340898e-29)
(-6.848874e-08 -2.064221e-05 0)
(-1.729369e-07 -1.507476e-05 -1.158254e-29)
(-2.269735e-07 -1.169625e-05 -1.12456e-29)
(-2.637188e-07 -9.181817e-06 -1.123617e-29)
(-5.642264e-05 -5.835146e-05 0)
(-2.798981e-05 -4.395029e-05 -3.630289e-32)
(-9.126979e-06 -2.612078e-05 0)
(-3.87156e-06 -1.846299e-05 0)
(-2.139417e-06 -1.432791e-05 3.051981e-33)
(-1.369002e-06 -1.13045e-05 1.563235e-33)
(-9.87635e-07 -8.95353e-06 3.132901e-33)
(-1.679054e-05 -1.257787e-05 3.715345e-31)
(-1.42133e-05 -1.853667e-05 7.845871e-31)
(-8.454024e-06 -1.713715e-05 1.332916e-29)
(-5.045724e-06 -1.479665e-05 2.263955e-29)
(-3.164745e-06 -1.232591e-05 1.12633e-29)
(-2.127913e-06 -1.013087e-05 0)
(-1.538199e-06 -8.217059e-06 -6.390072e-35)
(-4.817572e-06 -4.381131e-06 -5.76476e-31)
(-6.953068e-06 -9.131514e-06 1.799709e-30)
(-6.130017e-06 -1.114245e-05 3.141156e-30)
(-4.591524e-06 -1.100785e-05 1.853076e-30)
(-3.309846e-06 -9.931759e-06 -1.0616e-32)
(-2.425097e-06 -8.570177e-06 0)
(-1.841709e-06 -7.163023e-06 -5.33896e-33)
(-1.860482e-06 -2.279242e-06 -2.941674e-31)
(-3.768014e-06 -5.336881e-06 1.642105e-32)
(-4.09632e-06 -7.263649e-06 2.025812e-30)
(-3.635999e-06 -7.907874e-06 1.109889e-30)
(-2.985402e-06 -7.687709e-06 -1.40974e-29)
(-2.389976e-06 -6.958721e-06 1.264474e-37)
(-1.929899e-06 -5.987936e-06 1.123242e-29)
(-8.291856e-07 -1.425912e-06 0)
(-2.116668e-06 -3.351405e-06 7.328786e-31)
(-2.6951e-06 -4.864541e-06 -7.340937e-31)
(-2.727858e-06 -5.645527e-06 1.425702e-30)
(-2.494186e-06 -5.792449e-06 1.453396e-30)
(-2.179961e-06 -5.478357e-06 -1.135954e-29)
(-1.875342e-06 -4.834144e-06 -2.243244e-29)
(-4.347257e-07 -1.016084e-06 0)
(-1.265568e-06 -2.252573e-06 1.549073e-30)
(-1.800187e-06 -3.360297e-06 -1.016093e-29)
(-2.01867e-06 -4.051018e-06 -1.16939e-29)
(-2.020355e-06 -4.308123e-06 2.969079e-30)
(-1.905625e-06 -4.188388e-06 1.428443e-30)
(-1.747723e-06 -3.771703e-06 0)
(-2.639978e-07 -7.877663e-07 -2.849066e-30)
(-8.14895e-07 -1.597542e-06 1.735061e-30)
(-1.249797e-06 -2.388733e-06 1.734339e-30)
(-1.518706e-06 -2.934119e-06 0)
(-1.63427e-06 -3.178167e-06 3.425995e-30)
(-1.643963e-06 -3.124223e-06 1.427584e-30)
(-1.5952e-06 -2.816615e-06 1.417766e-30)
(-1.817389e-07 -6.457677e-07 3.212999e-32)
(-5.674415e-07 -1.177323e-06 -3.932795e-30)
(-9.130609e-07 -1.738193e-06 -4.817298e-31)
(-1.177604e-06 -2.134843e-06 1.461186e-30)
(-1.344038e-06 -2.3154e-06 8.917961e-30)
(-1.42733e-06 -2.26235e-06 1.423468e-30)
(-1.453703e-06 -1.993342e-06 0)
(-1.399458e-07 -5.496427e-07 3.548975e-30)
(-4.283438e-07 -8.88942e-07 -4.346367e-30)
(-7.079676e-07 -1.278139e-06 -2.13037e-30)
(-9.528023e-07 -1.544245e-06 4.783646e-30)
(-1.138615e-06 -1.64622e-06 -3.704714e-32)
(-1.263814e-06 -1.56105e-06 0)
(-1.340467e-06 -1.292255e-06 0)
(-1.18874e-07 -4.800337e-07 0)
(-3.503269e-07 -6.788686e-07 0)
(-5.850527e-07 -9.363143e-07 -4.762889e-30)
(-8.100398e-07 -1.09191e-06 5.18349e-30)
(-1.001712e-06 -1.114645e-06 3.824554e-32)
(-1.150915e-06 -9.822203e-07 0)
(-1.261187e-06 -6.913021e-07 0)
(-1.096619e-07 -4.267848e-07 0)
(-3.085877e-07 -5.17351e-07 5.404585e-30)
(-5.147828e-07 -6.698173e-07 -5.229302e-30)
(-7.251095e-07 -7.318457e-07 -7.174507e-30)
(-9.183468e-07 -6.798631e-07 3.50084e-30)
(-1.082393e-06 -4.943403e-07 0)
(-1.216057e-06 -1.690728e-07 -1.474951e-30)
(-1.078957e-07 -3.836509e-07 0)
(-2.897464e-07 -3.865501e-07 4.488927e-30)
(-4.796208e-07 -4.523014e-07 -1.440065e-30)
(-6.816615e-07 -4.33605e-07 -6.214585e-30)
(-8.767249e-07 -3.124449e-07 5.453191e-30)
(-1.051633e-06 -7.250314e-08 -5.046392e-30)
(-1.203033e-06 2.934452e-07 3.58142e-32)
(-1.111554e-07 -3.469899e-07 5.420435e-30)
(-2.864387e-07 -2.754601e-07 0)
(-4.689251e-07 -2.665735e-07 -1.434688e-30)
(-6.687668e-07 -1.764193e-07 -1.437911e-30)
(-8.68206e-07 8.918207e-09 1.200561e-29)
(-1.052879e-06 3.027743e-07 -5.498274e-30)
(-1.219373e-06 7.12486e-07 5.051243e-30)
(-1.181657e-07 -3.143337e-07 5.961265e-30)
(-2.942868e-07 -1.767408e-07 0)
(-4.755392e-07 -1.011544e-07 -2.853266e-30)
(-6.745491e-07 5.407509e-08 1.307363e-29)
(-8.81011e-07 2.999635e-07 2.931645e-29)
(-1.080579e-06 6.471346e-07 0)
(-1.262495e-06 1.101941e-06 -5.574133e-30)
(-1.28242e-07 -2.839563e-07 0)
(-3.112128e-07 -8.512672e-08 8.127381e-30)
(-4.979961e-07 5.250029e-08 0)
(-7.057008e-07 2.677626e-07 -4.739105e-30)
(-9.236325e-07 5.710424e-07 2.812251e-30)
(-1.134832e-06 9.723819e-07 2.734319e-30)
(-1.331288e-06 1.473495e-06 -3.39006e-30)
(-1.409817e-07 -2.545003e-07 0)
(-3.354151e-07 3.438332e-09 1.796545e-29)
(-5.317996e-07 2.009845e-07 -1.407838e-30)
(-7.509799e-07 4.750317e-07 -1.389896e-30)
(-9.839673e-07 8.354824e-07 0)
(-1.211122e-06 1.289892e-06 0)
(-1.424132e-06 1.837985e-06 0)
(-1.56309e-07 -2.249684e-07 8.754816e-30)
(-3.663407e-07 9.21393e-08 9.225689e-30)
(-5.764154e-07 3.496914e-07 -2.797229e-30)
(-8.114061e-07 6.827276e-07 -1.37784e-30)
(-1.06293e-06 1.100871e-06 0)
(-1.309123e-06 1.609124e-06 5.544547e-30)
(-1.540741e-06 2.205385e-06 -5.229804e-30)
(-1.742368e-07 -1.943669e-07 9.607345e-30)
(-4.036906e-07 1.838979e-07 1.038729e-29)
(-6.312782e-07 5.034362e-07 -4.165039e-30)
(-8.861093e-07 8.974034e-07 -2.728476e-30)
(-1.160051e-06 1.374932e-06 0)
(-1.429176e-06 1.938994e-06 9.054957e-30)
(-1.681592e-06 2.585387e-06 -2.571919e-30)
(-1.948464e-07 -1.617792e-07 1.008766e-29)
(-4.473955e-07 2.81497e-07 2.461012e-29)
(-6.960829e-07 6.667508e-07 1.186067e-29)
(-9.737281e-07 1.125002e-06 0)
(-1.268191e-06 1.662856e-06 2.152076e-29)
(-1.564458e-06 2.285635e-06 2.639688e-29)
(-1.846462e-06 2.987746e-06 5.064032e-30)
(-2.182186e-07 -1.261809e-07 1.059422e-29)
(-4.976474e-07 3.878655e-07 2.80842e-29)
(-7.715048e-07 8.443676e-07 2.768601e-29)
(-1.077754e-06 1.371952e-06 1.518276e-29)
(-1.403334e-06 1.972597e-06 2.601144e-30)
(-1.731932e-06 2.659021e-06 1.213516e-29)
(-2.040853e-06 3.421844e-06 -1.25606e-29)
(-2.444985e-07 -8.666086e-08 0)
(-5.544826e-07 5.059315e-07 1.661023e-29)
(-8.571005e-07 1.041304e-06 1.597301e-29)
(-1.195685e-06 1.645455e-06 2.782899e-29)
(-1.555289e-06 2.318937e-06 0)
(-1.920745e-06 3.074863e-06 1.331293e-29)
(-2.263332e-06 3.899555e-06 4.859718e-32)
(-2.73786e-07 -4.214742e-08 -1.392451e-29)
(-6.178191e-07 6.387919e-07 0)
(-9.528661e-07 1.262633e-06 0)
(-1.328205e-06 1.952596e-06 2.512387e-30)
(-1.72708e-06 2.707557e-06 -1.219333e-29)
(-2.134162e-06 3.539816e-06 0)
(-2.516999e-06 4.432874e-06 1.239934e-29)
(-3.060541e-07 8.513407e-09 -3.100028e-29)
(-6.874562e-07 7.898417e-07 0)
(-1.058386e-06 1.513962e-06 0)
(-1.474844e-06 2.300978e-06 -1.97783e-29)
(-1.917013e-06 3.147617e-06 -3.497716e-29)
(-2.362854e-06 4.060252e-06 1.542879e-29)
(-2.794844e-06 5.031357e-06 0)
(-3.412559e-07 6.649685e-08 -1.726987e-29)
(-7.629168e-07 9.627415e-07 1.360514e-30)
(-1.17302e-06 1.801524e-06 -1.907047e-29)
(-1.635549e-06 2.699405e-06 2.466291e-30)
(-2.128818e-06 3.650235e-06 2.40326e-30)
(-2.628335e-06 4.651959e-06 1.691663e-29)
(-3.118623e-06 5.713391e-06 0)
(-3.791015e-07 1.33098e-07 0)
(-8.430939e-07 1.161301e-06 2.36708e-29)
(-1.294871e-06 2.131886e-06 -2.267681e-29)
(-1.807554e-06 3.157528e-06 0)
(-2.357601e-06 4.229213e-06 2.469888e-29)
(-2.917769e-06 5.342631e-06 8.706969e-30)
(-3.476023e-06 6.508368e-06 4.26477e-30)
(-4.192769e-07 2.095193e-07 2.161573e-29)
(-9.266357e-07 1.389264e-06 2.637179e-29)
(-1.42152e-06 2.511608e-06 -2.541474e-29)
(-1.98791e-06 3.685045e-06 0)
(-2.600942e-06 4.8978e-06 -4.391051e-30)
(-3.231389e-06 6.143395e-06 2.497045e-33)
(-3.869939e-06 7.431571e-06 4.037539e-30)
(-4.612002e-07 2.968413e-07 2.407424e-29)
(-1.011693e-06 1.649781e-06 2.958691e-29)
(-1.549888e-06 2.946587e-06 -2.834221e-29)
(-2.172368e-06 4.29105e-06 0)
(-2.853734e-06 5.668824e-06 0)
(-3.56217e-06 7.070473e-06 2.341995e-29)
(-4.282012e-06 8.494904e-06 -5.27634e-29)
(-5.047853e-07 3.955169e-07 2.581263e-29)
(-1.097192e-06 1.94467e-06 3.172809e-29)
(-1.676507e-06 3.440592e-06 0)
(-2.355355e-06 4.982133e-06 -3.456163e-29)
(-3.109077e-06 6.552311e-06 -4.006188e-30)
(-3.905437e-06 8.137356e-06 5.585187e-29)
(-4.725961e-06 9.720508e-06 1.025844e-29)
(-5.466842e-07 5.046129e-07 2.990627e-29)
(-1.178282e-06 2.270048e-06 0)
(-1.797284e-06 3.993279e-06 3.329558e-29)
(-2.530206e-06 5.760054e-06 -3.582454e-29)
(-3.356204e-06 7.553123e-06 3.169111e-29)
(-4.244069e-06 9.355884e-06 5.849399e-29)
(-5.176067e-06 1.114751e-05 2.679982e-29)
(-5.897885e-07 6.177454e-07 0)
(-1.259668e-06 2.622054e-06 0)
(-1.912673e-06 4.597067e-06 7.983996e-29)
(-2.69308e-06 6.617629e-06 0)
(-3.58628e-06 8.66602e-06 7.102317e-29)
(-4.563712e-06 1.072413e-05 3.283849e-29)
(-5.606365e-06 1.276537e-05 -2.997875e-29)
(-6.367691e-07 7.388841e-07 3.450454e-29)
(-1.334478e-06 2.986089e-06 -4.837123e-29)
(-2.016758e-06 5.226117e-06 -4.605202e-29)
(-2.844476e-06 7.534211e-06 0)
(-3.795025e-06 9.870455e-06 3.984348e-29)
(-4.854193e-06 1.222388e-05 0)
(-6.00774e-06 1.456542e-05 -3.834939e-29)
(-6.910611e-07 8.574387e-07 4.06792e-29)
(-1.417094e-06 3.33759e-06 -5.059794e-29)
(-2.117299e-06 5.846214e-06 -1.511197e-28)
(-2.982107e-06 8.455516e-06 -9.464367e-29)
(-3.983975e-06 1.112049e-05 4.807255e-29)
(-5.106693e-06 1.380828e-05 2.479325e-30)
(-6.35503e-06 1.650746e-05 -1.957531e-30)
(-7.594413e-07 9.62856e-07 1.05752e-30)
(-1.528752e-06 3.667263e-06 1.171954e-30)
(-2.244957e-06 6.415232e-06 -5.083779e-29)
(-3.139609e-06 9.330358e-06 -1.134984e-28)
(-4.168397e-06 1.233711e-05 4.519681e-29)
(-5.317236e-06 1.538553e-05 4.277757e-30)
(-6.621227e-06 1.848943e-05 6.104593e-30)
(-8.514063e-07 1.039789e-06 -1.049454e-30)
(-1.691402e-06 3.924117e-06 -1.14874e-30)
(-2.429003e-06 6.898316e-06 -6.472029e-29)
(-3.31628e-06 1.007094e-05 -9.215342e-29)
(-4.33607e-06 1.338426e-05 -2.831514e-29)
(-5.474049e-06 1.681032e-05 -5.750957e-29)
(-6.766733e-06 2.032661e-05 0)
(-9.776333e-07 1.069604e-06 0)
(-1.927055e-06 4.05642e-06 0)
(-2.688373e-06 7.20245e-06 -6.705933e-29)
(-3.530364e-06 1.055705e-05 -5.965008e-29)
(-4.473892e-06 1.411656e-05 -3.868213e-29)
(-5.527405e-06 1.78341e-05 -4.727334e-29)
(-6.742771e-06 2.173121e-05 0)
(-1.146347e-06 1.034168e-06 -2.071285e-30)
(-2.242392e-06 4.021523e-06 2.248552e-30)
(-3.014457e-06 7.272816e-06 3.671906e-30)
(-3.775077e-06 1.075899e-05 0)
(-4.585566e-06 1.438474e-05 -1.427324e-28)
(-5.511721e-06 1.822938e-05 -2.585196e-30)
(-6.57488e-06 2.229188e-05 -1.144895e-30)
(-1.35876e-06 9.27396e-07 6.849016e-29)
(-2.611077e-06 3.806335e-06 2.207199e-30)
(-3.370735e-06 7.070042e-06 8.159831e-29)
(-4.041252e-06 1.054483e-05 0)
(-4.729575e-06 1.405648e-05 -7.495171e-29)
(-5.524087e-06 1.765808e-05 -1.024343e-28)
(-6.460982e-06 2.141327e-05 -8.405086e-30)
(-1.60639e-06 7.670276e-07 7.409932e-29)
(-3.003144e-06 3.417831e-06 9.27683e-29)
(-3.761416e-06 6.52197e-06 8.926761e-29)
(-4.407847e-06 9.727938e-06 -5.541222e-30)
(-5.094952e-06 1.278555e-05 -7.348284e-30)
(-5.952376e-06 1.568393e-05 -9.199508e-29)
(-7.087196e-06 1.879721e-05 2.273129e-30)
(-1.866217e-06 5.701307e-07 0)
(-3.414743e-06 2.822522e-06 -1.038217e-28)
(-4.265554e-06 5.483488e-06 -9.762503e-29)
(-5.041459e-06 8.063788e-06 2.785365e-30)
(-5.99908e-06 1.029212e-05 9.187535e-29)
(-7.394232e-06 1.224946e-05 -1.604413e-30)
(-9.754276e-06 1.428218e-05 0)
(-2.114489e-06 3.277612e-07 -8.147762e-29)
(-3.840837e-06 1.944942e-06 -2.308558e-28)
(-4.945805e-06 3.722445e-06 -1.230836e-28)
(-6.150839e-06 5.266591e-06 -2.108966e-28)
(-7.894641e-06 6.30067e-06 1.061562e-28)
(-1.108369e-05 6.894411e-06 -1.579023e-28)
(-1.938258e-05 5.807768e-06 6.677135e-30)
(-2.34103e-06 1.900625e-08 -8.78426e-29)
(-4.262136e-06 6.872334e-07 -2.304038e-30)
(-5.803603e-06 1.058577e-06 0)
(-7.947797e-06 9.972484e-07 9.933993e-31)
(-1.169034e-05 3.521004e-07 -3.226695e-28)
(-2.15174e-05 -3.423766e-06 -3.868657e-28)
(-7.11358e-05 -3.488427e-05 3.461799e-29)
(-2.475288e-06 -4.136749e-07 8.975585e-29)
(-4.63849e-06 -1.066442e-06 4.781788e-30)
(-6.882188e-06 -2.64914e-06 4.235634e-30)
(-1.077754e-05 -4.896953e-06 2.65165e-28)
(-2.033538e-05 -1.031179e-05 -8.249847e-28)
(-6.741856e-05 -4.605777e-05 -2.881482e-27)
(-0.000193881 -0.0001786914 1.942426e-28)
(-2.45253e-06 -1.01143e-06 9.253084e-29)
(-4.976575e-06 -3.448728e-06 0)
(-8.400596e-06 -7.470448e-06 1.056985e-29)
(-1.655755e-05 -1.464027e-05 4.501198e-29)
(-5.007786e-05 -4.530004e-05 -5.498523e-28)
(-0.0001636133 -0.0001724627 -5.488365e-27)
(-0.0002780517 -0.0003570093 -1.120647e-28)
(-2.311249e-06 -1.832171e-06 0)
(-5.496527e-06 -6.454938e-06 1.155759e-29)
(-1.153141e-05 -1.504352e-05 3.500156e-29)
(-3.196869e-05 -3.968527e-05 -6.74935e-28)
(-0.0001109002 -0.0001437054 -2.286737e-27)
(-0.0002341005 -0.0003447012 -3.015117e-27)
(-0.000308701 -0.0005141314 -1.752611e-28)
(-2.260762e-06 -2.858708e-06 0)
(-6.886032e-06 -1.073321e-05 3.629213e-30)
(-1.853762e-05 -3.006826e-05 1.440121e-28)
(-6.494684e-05 -0.0001041699 -1.300907e-27)
(-0.0001660426 -0.0002904386 -7.303647e-29)
(-0.0002536939 -0.0004978722 -4.540327e-27)
(-0.0003068342 -0.0006462942 -9.04029e-28)
(-2.501317e-06 -4.002716e-06 1.010888e-28)
(-9.928643e-06 -1.739699e-05 -1.346218e-29)
(-3.528498e-05 -6.663724e-05 -6.897782e-29)
(-0.0001058947 -0.0002154667 -4.644446e-29)
(-0.0001936059 -0.0004391775 9.903354e-29)
(-0.0002505602 -0.0006230472 -1.681723e-27)
(-0.0002907003 -0.0007619963 -1.32334e-27)
(-2.983301e-06 -5.435855e-06 1.105125e-28)
(-1.567385e-05 -3.062359e-05 8.871541e-31)
(-5.793986e-05 -0.0001299421 1.259964e-27)
(-0.0001303626 -0.0003347337 -4.053989e-32)
(-0.0001942105 -0.0005557072 2.288098e-30)
(-0.0002353554 -0.000720396 3.250487e-28)
(-0.0002693832 -0.0008573502 2.25805e-29)
(-3.695804e-06 -7.727643e-06 1.342789e-28)
(-2.42678e-05 -5.679176e-05 1.561387e-30)
(-7.482463e-05 -0.0002087573 1.406179e-27)
(-0.0001337721 -0.0004336895 6.21352e-30)
(-0.0001769269 -0.0006347698 1.177556e-27)
(-0.0002086951 -0.000787252 -8.970947e-28)
(-0.0002385441 -0.0009276638 -7.879118e-28)
(-5.419538e-06 -1.372222e-05 3.919154e-28)
(-3.237644e-05 -9.671123e-05 -2.053807e-29)
(-7.820176e-05 -0.0002839718 -1.351855e-27)
(-0.0001206163 -0.0005043717 2.153632e-31)
(-0.0001511189 -0.0006838943 1.706344e-27)
(-0.0001761884 -0.000827024 -4.425024e-28)
(-0.0002007434 -0.0009695783 -1.98789e-28)
(-7.23939e-06 -2.396893e-05 3.140271e-28)
(-3.485909e-05 -0.0001411358 -3.346487e-28)
(-6.985062e-05 -0.0003403576 -3.336209e-27)
(-9.921342e-05 -0.0005454726 8.911772e-28)
(-0.0001210357 -0.0007070399 6.266119e-28)
(-0.0001415608 -0.0008441811 -5.300046e-30)
(-0.0001641499 -0.0009885504 -3.979624e-28)
(-7.115659e-06 -3.591947e-05 1.828633e-28)
(-2.779108e-05 -0.0001794847 -3.296613e-28)
(-5.007117e-05 -0.0003789493 -1.670883e-27)
(-6.864712e-05 -0.0005606158 5.555225e-28)
(-8.46629e-05 -0.0007058426 -3.176243e-28)
(-0.000102269 -0.0008379053 -3.865198e-28)
(-0.0001253932 -0.0009815123 -4.819999e-30)
(-5.00732e-06 -4.613279e-05 1.56387e-28)
(-1.572258e-05 -0.000201666 3.03037e-28)
(-2.533575e-05 -0.000389384 3.166893e-28)
(-3.515575e-05 -0.0005560005 -1.963128e-28)
(-4.629574e-05 -0.0006914418 3.884065e-30)
(-6.101145e-05 -0.0008185409 -2.558292e-28)
(-8.47142e-05 -0.0009628104 2.65141e-27)
(-2.225887e-06 -5.191048e-05 -3.684307e-31)
(-4.991914e-06 -0.0002104817 2.117765e-28)
(-7.186673e-06 -0.0003893779 1.834973e-28)
(-1.125649e-05 -0.0005449495 -1.274499e-28)
(-1.774449e-05 -0.0006734849 1.183141e-28)
(-2.870622e-05 -0.0007985493 9.341017e-29)
(-4.906316e-05 -0.0009454671 -7.26193e-28)
(4.415774e-07 -5.226683e-05 -2.37073e-30)
(3.669859e-06 -0.0002075573 -2.030307e-30)
(6.606023e-06 -0.0003803146 1.120488e-28)
(6.780395e-06 -0.0005294642 -4.483719e-31)
(4.346224e-06 -0.000654215 6.94774e-29)
(-2.555524e-06 -0.00077896 -1.631759e-28)
(-1.755392e-05 -0.0009303208 -3.620833e-28)
(2.821771e-06 -4.690259e-05 -1.372524e-29)
(1.127097e-05 -0.0001930576 1.068113e-29)
(1.877227e-05 -0.0003623294 4.935263e-29)
(2.305473e-05 -0.0005095955 2.973466e-29)
(2.49379e-05 -0.000633582 -3.210823e-30)
(2.404636e-05 -0.0007591643 8.20415e-30)
(1.851234e-05 -0.000913487 -4.244525e-28)
(3.892037e-06 -3.678357e-05 -1.238574e-29)
(1.56985e-05 -0.0001666496 -1.139358e-29)
(2.751931e-05 -0.0003339846 2.037764e-29)
(3.615909e-05 -0.0004848449 -1.285e-29)
(4.263607e-05 -0.0006118007 -2.695715e-28)
(4.878389e-05 -0.0007387106 -5.181246e-28)
(5.517107e-05 -0.0008914267 2.480985e-31)
(3.705496e-06 -2.589855e-05 1.428296e-31)
(1.672089e-05 -0.0001337348 -2.018534e-30)
(3.25209e-05 -0.0002963101 5.370464e-29)
(4.567655e-05 -0.0004542776 8.081681e-29)
(5.626364e-05 -0.0005875774 -2.572778e-30)
(6.743003e-05 -0.0007160442 2.212405e-28)
(8.171939e-05 -0.0008635157 -4.31907e-28)
(3.250874e-06 -1.660414e-05 -5.387489e-29)
(1.678671e-05 -9.842923e-05 -1.723888e-28)
(3.702231e-05 -0.0002492676 1.231603e-28)
(5.501462e-05 -0.0004148193 -1.008745e-28)
(6.837356e-05 -0.0005579774 -2.80408e-30)
(8.068796e-05 -0.000690078 -2.683317e-28)
(9.569005e-05 -0.0008323452 -1.132784e-27)
(2.635129e-06 -1.012918e-05 -9.550945e-29)
(1.499677e-05 -6.590919e-05 -3.684037e-28)
(3.855564e-05 -0.0001955618 1.680171e-28)
(6.170663e-05 -0.0003655679 -1.638059e-28)
(7.646398e-05 -0.0005215619 -2.582251e-28)
(8.68235e-05 -0.0006605576 -4.286182e-28)
(9.700327e-05 -0.0008030249 -3.499708e-27)
(2.064487e-06 -6.622298e-06 -4.180403e-29)
(1.154115e-05 -4.153e-05 -3.418776e-28)
(3.428833e-05 -0.0001408117 -1.641279e-27)
(6.206675e-05 -0.0003067387 -1.152453e-27)
(7.872687e-05 -0.0004769504 -1.108385e-28)
(8.607314e-05 -0.000623901 -6.421967e-28)
(8.933449e-05 -0.0007646459 2.006114e-27)
(1.757761e-06 -5.33791e-06 9.311888e-29)
(7.991806e-06 -2.68357e-05 -1.718759e-28)
(2.511875e-05 -9.200686e-05 -2.398099e-27)
(5.562284e-05 -0.0002367493 -2.457637e-27)
(7.79226e-05 -0.0004167261 -1.088661e-27)
(8.530217e-05 -0.0005746219 -2.71956e-28)
(8.54417e-05 -0.0007183467 1.19628e-27)
(1.436254e-06 -4.615807e-06 1.617531e-28)
(5.063841e-06 -1.798652e-05 -2.729631e-31)
(1.656244e-05 -5.562134e-05 -5.686622e-28)
(4.630478e-05 -0.0001627143 -1.295208e-27)
(7.81375e-05 -0.0003419701 -3.163636e-27)
(9.046409e-05 -0.000511418 -9.946483e-30)
(9.187731e-05 -0.0006569575 1.615487e-27)
(1.077166e-06 -3.811935e-06 8.114745e-29)
(2.963852e-06 -1.295765e-05 -8.068815e-30)
(9.143189e-06 -3.244547e-05 -1.479695e-29)
(3.215158e-05 -9.762617e-05 5.482487e-30)
(7.304067e-05 -0.0002548226 -3.759431e-27)
(9.770977e-05 -0.0004344072 -2.102702e-29)
(0.0001069415 -0.0005818141 6.083451e-27)
(7.362418e-07 -2.997259e-06 8.239229e-29)
(1.478308e-06 -9.429049e-06 1.234458e-28)
(4.361164e-06 -1.983269e-05 2.643584e-33)
(1.824665e-05 -5.145555e-05 1.497308e-29)
(6.248032e-05 -0.0001648809 -2.211778e-27)
(0.0001064385 -0.0003415602 4.204934e-28)
(0.000127443 -0.0004923149 3.240935e-27)
(5.56335e-07 -2.061292e-06 8.721024e-29)
(6.836431e-07 -6.681926e-06 1.149905e-28)
(2.006341e-06 -1.303654e-05 2.448041e-30)
(8.558332e-06 -2.519135e-05 7.815389e-28)
(4.106372e-05 -8.225613e-05 2.254059e-28)
(0.0001042322 -0.0002354835 1.147142e-29)
(0.0001429699 -0.0003961993 -2.410549e-27)
(6.135855e-07 -1.179319e-06 0)
(4.520684e-07 -3.943366e-06 -1.396809e-31)
(1.005862e-06 -7.987793e-06 3.147551e-30)
(4.35214e-06 -1.368064e-05 4.404541e-28)
(1.967139e-05 -3.332125e-05 8.418436e-28)
(8.08573e-05 -0.0001310649 3.734484e-29)
(0.0001482697 -0.0002903213 5.972842e-27)
(8.356899e-07 -4.998208e-07 0)
(5.349306e-07 -1.623696e-06 -1.041687e-29)
(5.253859e-07 -3.85979e-06 -1.94627e-29)
(2.029282e-06 -6.658005e-06 -1.370823e-29)
(8.040279e-06 -1.23828e-05 1.737304e-29)
(4.137157e-05 -4.684486e-05 -3.944896e-28)
(0.0001297719 -0.0001708381 6.653161e-27)
(1.030418e-06 -6.619762e-08 9.016167e-29)
(7.179065e-07 7.992915e-08 0)
(3.7064e-07 -5.206977e-07 0)
(9.50733e-07 -1.725538e-06 -3.247719e-30)
(3.563093e-06 -3.638437e-06 -1.662133e-28)
(1.267261e-05 -9.028157e-06 2.505692e-29)
(7.127681e-05 -5.870301e-05 2.97202e-29)
(1.109125e-06 2.075081e-07 8.706716e-29)
(8.777887e-07 1.269841e-06 -4.732913e-30)
(3.588438e-07 2.02435e-06 -4.143246e-30)
(3.90993e-07 2.319348e-06 -3.202188e-29)
(1.480134e-06 2.05924e-06 -3.793896e-29)
(4.922045e-06 1.240404e-06 -1.810948e-29)
(1.695593e-05 -3.326114e-06 1.213611e-27)
(1.100084e-06 3.887677e-07 0)
(9.85118e-07 2.076639e-06 -1.060509e-28)
(4.050133e-07 3.862392e-06 0)
(1.025899e-07 5.38453e-06 -6.656844e-30)
(3.706247e-07 6.439185e-06 -4.682772e-30)
(1.645707e-06 7.191466e-06 -5.399725e-30)
(5.104733e-06 7.749168e-06 6.221982e-28)
(1.043799e-06 5.194652e-07 0)
(1.066899e-06 2.625599e-06 1.016024e-28)
(5.242315e-07 5.079857e-06 -1.016311e-28)
(6.127898e-08 7.4857e-06 0)
(-7.604674e-08 9.561635e-06 -8.888682e-30)
(2.879617e-07 1.133484e-05 -1.099777e-28)
(1.415676e-06 1.315467e-05 1.135624e-28)
(9.70065e-07 6.443844e-07 0)
(1.133457e-06 3.010174e-06 2.827261e-28)
(7.175152e-07 5.811488e-06 -1.053222e-31)
(2.815501e-07 8.722881e-06 1.742974e-28)
(9.913577e-09 1.150428e-05 -8.164173e-30)
(1.091058e-08 1.412737e-05 -9.129374e-29)
(3.807689e-07 1.678687e-05 -8.879615e-30)
(8.86104e-07 7.631871e-07 -6.878049e-29)
(1.163135e-06 3.296665e-06 8.199204e-29)
(9.448854e-07 6.202686e-06 9.15072e-32)
(6.747542e-07 9.323743e-06 1.730921e-28)
(4.707073e-07 1.246891e-05 0)
(4.353806e-07 1.55688e-05 0)
(6.341843e-07 1.877768e-05 1.648262e-28)
(8.091564e-07 8.588176e-07 -6.54016e-29)
(1.164446e-06 3.491296e-06 7.694318e-29)
(1.149259e-06 6.391347e-06 -7.838885e-29)
(1.101694e-06 9.514434e-06 -7.710863e-29)
(1.101122e-06 1.27492e-05 0)
(1.220457e-06 1.608427e-05 0)
(1.485479e-06 1.944915e-05 7.099837e-29)
(7.513616e-07 9.092115e-07 5.78643e-29)
(1.163918e-06 3.580196e-06 6.335051e-29)
(1.313666e-06 6.412414e-06 -3.802096e-30)
(1.485807e-06 9.438505e-06 -7.258614e-29)
(1.730937e-06 1.260911e-05 1.52177e-29)
(2.083665e-06 1.589935e-05 1.455188e-28)
(2.570157e-06 1.923229e-05 -6.270787e-29)
(7.133299e-07 9.111843e-07 5.064117e-29)
(1.184431e-06 3.545944e-06 -2.283188e-30)
(1.46298e-06 6.272891e-06 3.864049e-30)
(1.81426e-06 9.149265e-06 3.154271e-30)
(2.270453e-06 1.218306e-05 0)
(2.826895e-06 1.529754e-05 5.575115e-29)
(3.523356e-06 1.842234e-05 -5.340187e-29)
(6.914125e-07 8.756585e-07 0)
(1.226315e-06 3.408788e-06 -4.663453e-30)
(1.616266e-06 5.99035e-06 -3.98515e-30)
(2.10927e-06 8.720963e-06 -8.719277e-29)
(2.706709e-06 1.154481e-05 2.392384e-29)
(3.409247e-06 1.441821e-05 -1.061184e-28)
(4.24903e-06 1.72939e-05 -4.934721e-29)
(6.772495e-07 8.105685e-07 -2.120192e-30)
(1.276455e-06 3.198861e-06 -2.364854e-30)
(1.761607e-06 5.603966e-06 0)
(2.357416e-06 8.144751e-06 -1.372504e-31)
(3.043138e-06 1.074807e-05 -4.854186e-29)
(3.818034e-06 1.335983e-05 -4.488421e-29)
(4.727344e-06 1.5985e-05 -3.428457e-30)
(6.629204e-07 7.285204e-07 -3.995687e-29)
(1.316929e-06 2.945487e-06 4.229694e-29)
(1.876566e-06 5.174464e-06 -1.190863e-28)
(2.524809e-06 7.489819e-06 7.44765e-29)
(3.254437e-06 9.849539e-06 -4.616443e-29)
(4.064197e-06 1.222028e-05 0)
(4.976479e-06 1.459535e-05 4.230877e-30)
(6.446425e-07 6.385423e-07 -3.287606e-29)
(1.337941e-06 2.682099e-06 4.634735e-29)
(1.945237e-06 4.710853e-06 -4.406594e-29)
(2.620518e-06 6.804247e-06 0)
(3.356965e-06 8.924827e-06 3.803558e-29)
(4.157875e-06 1.106466e-05 0)
(5.027937e-06 1.320356e-05 -3.210826e-29)
(6.207115e-07 5.459302e-07 0)
(1.33058e-06 2.405666e-06 0)
(1.954246e-06 4.234122e-06 7.625393e-29)
(2.628636e-06 6.109363e-06 0)
(3.353649e-06 8.016471e-06 6.777259e-29)
(4.118274e-06 9.941322e-06 3.132077e-29)
(4.921275e-06 1.186546e-05 -2.858586e-29)
(5.911237e-07 4.58336e-07 2.856183e-29)
(1.289454e-06 2.132229e-06 0)
(1.909007e-06 3.764463e-06 3.635615e-29)
(2.569196e-06 5.442946e-06 -3.003792e-29)
(3.262635e-06 7.152979e-06 3.022349e-29)
(3.974465e-06 8.880894e-06 5.575285e-29)
(4.702975e-06 1.061096e-05 2.5532e-29)
(5.557925e-07 3.710742e-07 2.681344e-29)
(1.228924e-06 1.872816e-06 3.281431e-29)
(1.827041e-06 3.322477e-06 0)
(2.45649e-06 4.8203e-06 -2.433861e-29)
(3.104877e-06 6.350936e-06 4.081308e-30)
(3.754842e-06 7.902035e-06 4.592708e-29)
(4.402474e-06 9.459424e-06 -1.058994e-29)
(5.136052e-07 2.899013e-07 2.296119e-29)
(1.149555e-06 1.630103e-06 2.821326e-29)
(1.716559e-06 2.915098e-06 -2.700991e-29)
(2.305485e-06 4.249252e-06 0)
(2.901808e-06 5.618876e-06 0)
(3.487205e-06 7.014794e-06 2.228107e-29)
(4.057548e-06 8.437663e-06 1.082429e-29)
(4.696486e-07 2.158724e-07 2.060153e-29)
(1.06068e-06 1.408895e-06 2.511995e-29)
(1.58826e-06 2.544805e-06 -2.420093e-29)
(2.131074e-06 3.731824e-06 0)
(2.67385e-06 4.958027e-06 4.45111e-30)
(3.19945e-06 6.21625e-06 -2.35524e-33)
(3.707402e-06 7.516774e-06 -4.122947e-30)
(4.25165e-07 1.489801e-07 0)
(9.665905e-07 1.209031e-06 2.252741e-29)
(1.450457e-06 2.211032e-06 -2.156647e-29)
(1.944935e-06 3.266624e-06 0)
(2.435096e-06 4.365977e-06 1.45211e-29)
(2.904289e-06 5.503459e-06 -8.835335e-30)
(3.348175e-06 6.688973e-06 -4.340338e-30)
(3.814758e-07 8.887467e-08 -1.642108e-29)
(8.713735e-07 1.029481e-06 -1.364797e-30)
(1.309775e-06 1.911468e-06 -2.064887e-29)
(1.756032e-06 2.849925e-06 -2.485426e-30)
(2.196214e-06 3.837272e-06 -2.322871e-30)
(2.615007e-06 4.869691e-06 1.603129e-29)
(3.003628e-06 5.954633e-06 0)
(3.395254e-07 3.502152e-08 -2.944086e-29)
(7.779944e-07 8.685843e-07 0)
(1.171234e-06 1.643119e-06 0)
(1.570936e-06 2.477117e-06 -1.381872e-29)
(1.963831e-06 3.365503e-06 -2.837475e-29)
(2.33499e-06 4.312722e-06 1.459881e-29)
(2.675684e-06 5.308287e-06 0)
(3.000713e-07 -1.333589e-08 -1.320604e-29)
(6.889171e-07 7.2427e-07 -1.388481e-30)
(1.038824e-06 1.402595e-06 -1.338313e-30)
(1.395168e-06 2.142886e-06 -2.640243e-30)
(1.746577e-06 2.941959e-06 -1.639869e-29)
(2.083273e-06 3.810405e-06 0)
(2.381929e-06 4.728072e-06 1.169144e-29)
(2.634523e-07 -5.678519e-08 -5.739443e-31)
(6.055241e-07 5.945214e-07 1.229512e-29)
(9.146878e-07 1.186239e-06 1.246955e-29)
(1.23072e-06 1.842137e-06 2.628255e-29)
(1.543274e-06 2.560547e-06 0)
(1.841847e-06 3.352689e-06 1.259933e-29)
(2.105709e-06 4.201079e-06 4.911074e-32)
(2.298716e-07 -9.607091e-08 1.112903e-29)
(5.28589e-07 4.772335e-07 2.515212e-29)
(8.002039e-07 9.906158e-07 2.346687e-29)
(1.079422e-06 1.5702e-06 9.149385e-30)
(1.3572e-06 2.215671e-06 -2.616421e-30)
(1.621124e-06 2.937839e-06 1.146845e-29)
(1.855492e-06 3.723484e-06 -6.962242e-30)
(1.993704e-07 -1.318374e-07 9.51417e-30)
(4.585634e-07 3.704422e-07 2.318918e-29)
(6.959422e-07 8.12342e-07 1.116684e-29)
(9.413287e-07 1.322351e-06 0)
(1.185484e-06 1.904943e-06 -2.162124e-29)
(1.418655e-06 2.562659e-06 -2.654899e-29)
(1.63001e-06 3.28689e-06 -5.099665e-30)
(1.719235e-07 -1.64779e-07 7.914322e-30)
(3.956606e-07 2.719444e-07 1.114554e-29)
(6.027695e-07 6.476815e-07 4.17579e-30)
(8.197147e-07 1.092947e-06 2.738235e-30)
(1.040535e-06 1.615173e-06 0)
(1.246772e-06 2.214034e-06 8.470003e-30)
(1.432008e-06 2.882216e-06 2.587667e-30)
(1.474315e-07 -1.956456e-07 7.092581e-30)
(3.397509e-07 1.795535e-07 1.003142e-29)
(5.201866e-07 4.930425e-07 2.803643e-30)
(7.114986e-07 8.772716e-07 1.382194e-30)
(9.07233e-07 1.340203e-06 0)
(1.090491e-06 1.883391e-06 1.034599e-29)
(1.257032e-06 2.501786e-06 5.257629e-30)
(1.257721e-07 -2.251452e-07 5.813504e-31)
(2.907971e-07 9.112294e-08 1.750908e-29)
(4.484151e-07 3.450287e-07 1.410708e-30)
(6.179731e-07 6.708201e-07 1.393791e-30)
(7.92155e-07 1.076663e-06 0)
(9.560059e-07 1.566664e-06 0)
(1.105761e-06 2.137666e-06 0)
(1.069162e-07 -2.540308e-07 0)
(2.489286e-07 4.452085e-09 7.572408e-30)
(3.877798e-07 1.999256e-07 0)
(5.396736e-07 4.684829e-07 -9.822619e-30)
(6.955848e-07 8.185464e-07 -2.820928e-30)
(8.429243e-07 1.256672e-06 -2.744249e-30)
(9.77774e-07 1.781688e-06 -8.296614e-30)
(9.082598e-08 -2.830838e-07 5.538379e-30)
(2.142771e-07 -8.288395e-08 0)
(3.380742e-07 5.368816e-08 2.857954e-30)
(4.741041e-07 2.654764e-07 -2.644731e-29)
(6.153913e-07 5.602583e-07 -1.65364e-29)
(7.509603e-07 9.456791e-07 0)
(8.730628e-07 1.425473e-06 -5.110978e-30)
(7.761877e-08 -3.133213e-07 5.018611e-30)
(1.879159e-07 -1.739464e-07 0)
(3.027823e-07 -9.883678e-08 1.436864e-30)
(4.322128e-07 5.291899e-08 1.440856e-30)
(5.627952e-07 2.908843e-07 1.104398e-29)
(6.838394e-07 6.246397e-07 -5.03311e-30)
(7.928505e-07 1.060104e-06 4.601832e-30)
(6.762147e-08 -3.459439e-07 0)
(1.707647e-07 -2.724292e-07 6.91707e-30)
(2.817706e-07 -2.636273e-07 1.442116e-30)
(4.059367e-07 -1.762753e-07 -5.739386e-30)
(5.288577e-07 2.274686e-09 4.99003e-30)
(6.405677e-07 2.842482e-07 -4.595493e-30)
(7.377476e-07 6.76031e-07 3.593029e-32)
(6.151111e-08 -3.826485e-07 0)
(1.65411e-07 -3.832719e-07 4.947284e-30)
(2.795758e-07 -4.484598e-07 -4.772586e-30)
(4.03965e-07 -4.318771e-07 -3.813712e-30)
(5.225263e-07 -3.166788e-07 5.899312e-30)
(6.253545e-07 -8.752706e-08 2.815959e-30)
(7.098249e-07 2.619589e-07 -3.832492e-30)
(6.056229e-08 -4.256242e-07 0)
(1.760435e-07 -5.134272e-07 0)
(3.024925e-07 -6.646723e-07 -4.32335e-30)
(4.331356e-07 -7.280539e-07 4.73987e-30)
(5.495904e-07 -6.811968e-07 3.833858e-32)
(6.425562e-07 -5.054454e-07 0)
(7.115866e-07 -1.953036e-07 0)
(6.713299e-08 -4.785746e-07 3.217021e-30)
(2.09674e-07 -6.73745e-07 -3.927119e-30)
(3.606089e-07 -9.289244e-07 -3.371956e-30)
(5.037743e-07 -1.084942e-06 2.892001e-30)
(6.183622e-07 -1.11194e-06 -3.713424e-32)
(6.976588e-07 -9.883389e-07 2.842487e-30)
(7.45569e-07 -7.1144e-07 -2.821189e-35)
(8.536967e-08 -5.474511e-07 3.215262e-32)