/*--------------------------------*- C++ -*----------------------------------*\
| =========                 |                                                 |
| \\      /  F ield         | OpenFOAM: The Open Source CFD Toolbox           |
|  \\    /   O peration     | Version:  2206                                  |
|   \\  /    A nd           | Website:  www.openfoam.com                      |
|    \\/     M anipulation  |                                                 |
\*---------------------------------------------------------------------------*/
FoamFile
{
    version     2.0;
    format      ascii;
    arch        "LSB;label=32;scalar=64";
    class       volVectorField;
    location    "2.2";
    object      U.a_0;
}
// * * * * * * * * * * * * * * * * * * * * * * * * * * * * * * * * * * * * * //

dimensions      [0 1 -1 0 0 0 0];

internalField   nonuniform List<vector> 
13078
(
(1.965407e-05 -0.0001601508 3.367217e-27)
(3.066153e-06 -6.596454e-05 2.39848e-32)
(3.315085e-07 -3.456876e-05 -6.33182e-29)
(-6.801898e-08 -2.059422e-05 0)
(-1.719917e-07 -1.505332e-05 -1.17708e-29)
(-2.258901e-07 -1.168435e-05 -1.147255e-29)
(-2.625052e-07 -9.17855e-06 -1.149311e-29)
(-5.576315e-05 -5.775947e-05 0)
(-2.766582e-05 -4.359572e-05 -4.584065e-32)
(-9.051615e-06 -2.602573e-05 0)
(-3.842096e-06 -1.842275e-05 0)
(-2.12383e-06 -1.430419e-05 1.002814e-33)
(-1.359204e-06 -1.129269e-05 6.21183e-34)
(-9.806141e-07 -8.950731e-06 1.459441e-33)
(-1.664455e-05 -1.251253e-05 9.828265e-31)
(-1.409945e-05 -1.846017e-05 3.463504e-31)
(-8.393037e-06 -1.709074e-05 1.339934e-29)
(-5.010006e-06 -1.476502e-05 2.293987e-29)
(-3.141283e-06 -1.230654e-05 1.146439e-29)
(-2.111689e-06 -1.012193e-05 0)
(-1.526226e-06 -8.216416e-06 -6.543751e-35)
(-4.75966e-06 -4.350606e-06 -2.455307e-31)
(-6.892887e-06 -9.104156e-06 1.048235e-30)
(-6.080794e-06 -1.11178e-05 2.484117e-30)
(-4.554659e-06 -1.098752e-05 1.559088e-30)
(-3.282785e-06 -9.91962e-06 -1.456784e-33)
(-2.404787e-06 -8.566102e-06 0)
(-1.825945e-06 -7.165895e-06 -1.610755e-33)
(-1.832387e-06 -2.270471e-06 -2.948063e-31)
(-3.724961e-06 -5.32399e-06 -4.489266e-31)
(-4.054912e-06 -7.250959e-06 1.145985e-30)
(-3.600992e-06 -7.898343e-06 2.780513e-31)
(-2.957049e-06 -7.683445e-06 -1.397573e-29)
(-2.367103e-06 -6.96033e-06 -1.827815e-35)
(-1.91126e-06 -5.995135e-06 1.151806e-29)
(-8.077871e-07 -1.42363e-06 0)
(-2.080878e-06 -3.347702e-06 7.381335e-31)
(-2.658107e-06 -4.861371e-06 -7.428216e-31)
(-2.694237e-06 -5.644867e-06 9.162914e-31)
(-2.465004e-06 -5.79556e-06 1.483735e-30)
(-2.155073e-06 -5.485719e-06 -1.163709e-29)
(-1.854297e-06 -4.846032e-06 -2.307562e-29)
(-4.133934e-07 -1.016206e-06 0)
(-1.230831e-06 -2.254055e-06 8.618398e-31)
(-1.764021e-06 -3.363594e-06 -1.097026e-29)
(-1.984703e-06 -4.057025e-06 -1.189895e-29)
(-1.98982e-06 -4.317416e-06 2.430841e-30)
(-1.878651e-06 -4.201337e-06 1.466862e-30)
(-1.724307e-06 -3.788449e-06 0)
(-2.404527e-07 -7.890328e-07 -1.513233e-30)
(-7.778836e-07 -1.602106e-06 9.190044e-31)
(-1.211833e-06 -2.396372e-06 9.496298e-31)
(-1.482809e-06 -2.945151e-06 0)
(-1.601562e-06 -3.192619e-06 2.061988e-30)
(-1.614545e-06 -3.142267e-06 1.469576e-30)
(-1.56917e-06 -2.838365e-06 1.46536e-30)
(-1.549224e-07 -6.477336e-07 3.228541e-32)
(-5.262195e-07 -1.184003e-06 -2.017013e-30)
(-8.714238e-07 -1.749073e-06 4.622129e-31)
(-1.138409e-06 -2.149923e-06 1.492725e-30)
(-1.308243e-06 -2.334341e-06 5.741318e-30)
(-1.394905e-06 -2.285117e-06 1.469621e-30)
(-1.424715e-06 -2.019996e-06 0)
(-1.091613e-07 -5.521345e-07 1.725822e-30)
(-3.815998e-07 -8.973102e-07 -2.116445e-30)
(-6.61259e-07 -1.29173e-06 -1.057224e-30)
(-9.091091e-07 -1.562883e-06 2.747167e-30)
(-1.098802e-06 -1.669312e-06 -3.823474e-32)
(-1.22769e-06 -1.58839e-06 0)
(-1.308031e-06 -1.323818e-06 0)
(-8.351707e-08 -4.829863e-07 0)
(-2.969872e-07 -6.887602e-07 0)
(-5.321092e-07 -9.524097e-07 -2.281643e-30)
(-7.60766e-07 -1.11393e-06 2.824753e-30)
(-9.569538e-07 -1.141806e-06 3.961653e-32)
(-1.110328e-06 -1.014179e-06 0)
(-1.224697e-06 -7.279522e-07 0)
(-6.91207e-08 -4.301847e-07 0)
(-2.476309e-07 -5.28746e-07 2.440813e-30)
(-4.545152e-07 -6.884064e-07 -2.373763e-30)
(-6.692108e-07 -7.572829e-07 -4.503701e-30)
(-8.67705e-07 -7.112092e-07 9.45652e-31)
(-1.036532e-06 -5.311374e-07 0)
(-1.174827e-06 -2.111421e-07 6.740719e-31)
(-6.150999e-08 -3.875144e-07 0)
(-2.201168e-07 -3.99517e-07 1.071835e-30)
(-4.109293e-07 -4.735058e-07 -1.474661e-30)
(-6.180769e-07 -4.626538e-07 -3.101135e-30)
(-8.192024e-07 -3.482613e-07 2.58597e-30)
(-9.996221e-07 -1.14514e-07 -2.449924e-30)
(-1.156305e-06 2.454805e-07 3.796742e-32)
(-5.819393e-08 -3.513526e-07 2.252181e-30)
(-2.070005e-07 -2.90127e-07 0)
(-3.906644e-07 -2.90608e-07 -1.473337e-30)
(-5.963964e-07 -2.093948e-07 -1.491825e-30)
(-8.026354e-07 -3.183604e-08 5.435094e-30)
(-9.937364e-07 2.550115e-07 -2.527094e-30)
(-1.166312e-06 6.580077e-07 2.415761e-30)
(-5.781132e-08 -3.192446e-07 2.35071e-30)
(-2.038029e-07 -1.932769e-07 0)
(-3.865455e-07 -1.28286e-07 -2.939583e-30)
(-5.923471e-07 1.681212e-08 1.793875e-29)
(-8.059003e-07 2.536071e-07 2.669541e-29)
(-1.01315e-06 5.928932e-07 0)
(-1.202173e-06 1.040184e-06 -2.570443e-30)
(-5.957516e-08 -2.894749e-07 0)
(-2.082989e-07 -1.037282e-07 3.101456e-30)
(-3.969634e-07 2.20018e-08 0)
(-6.125529e-07 2.259899e-07 -1.380699e-32)
(-8.380751e-07 5.185428e-07 2.982276e-30)
(-1.058077e-06 9.109262e-07 2.933251e-30)
(-1.262726e-06 1.403585e-06 2.574351e-31)
(-6.296003e-08 -2.607028e-07 0)
(-2.184733e-07 -1.74948e-08 6.547976e-30)
(-4.170609e-07 1.666427e-07 -1.462246e-30)
(-6.453084e-07 4.28009e-07 -1.464907e-30)
(-8.867518e-07 7.76185e-07 0)
(-1.123894e-06 1.22041e-06 0)
(-1.346256e-06 1.758928e-06 0)
(-6.775752e-08 -2.319399e-07 3.469489e-30)
(-2.335861e-07 6.8581e-08 2.730297e-30)
(-4.461716e-07 3.110058e-07 -2.919708e-30)
(-6.914818e-07 6.29724e-07 -1.46217e-30)
(-9.525427e-07 1.033934e-06 0)
(-1.210015e-06 1.530603e-06 3.066481e-31)
(-1.452319e-06 2.116027e-06 -5.797736e-30)
(-7.383483e-08 -2.021993e-07 3.61637e-30)
(-2.531348e-07 1.573958e-07 3.028412e-30)
(-4.835822e-07 4.598769e-07 -4.371588e-30)
(-7.501675e-07 8.376865e-07 -2.918192e-30)
(-1.034861e-06 1.299414e-06 0)
(-1.316355e-06 1.850146e-06 3.377372e-30)
(-1.581164e-06 2.484365e-06 -2.891513e-30)
(-8.110969e-08 -1.705714e-07 3.29802e-30)
(-2.7682e-07 2.517108e-07 7.98878e-30)
(-5.288134e-07 6.177671e-07 3.881733e-30)
(-8.200359e-07 1.05787e-06 0)
(-1.126755e-06 1.577904e-06 2.358852e-29)
(-1.435365e-06 2.184804e-06 2.951797e-29)
(-1.732208e-06 2.873392e-06 5.784374e-30)
(-8.948373e-08 -1.360374e-07 2.902701e-30)
(-3.04568e-07 3.544371e-07 9.302604e-30)
(-5.822813e-07 7.894039e-07 9.714613e-30)
(-9.043338e-07 1.296812e-06 6.878493e-30)
(-1.244113e-06 1.877881e-06 2.902526e-30)
(-1.585419e-06 2.545155e-06 4.824766e-30)
(-1.91124e-06 3.29266e-06 -6.522072e-30)
(-9.889736e-08 -9.769482e-08 0)
(-3.360972e-07 4.684592e-07 6.033756e-30)
(-6.431452e-07 9.796606e-07 5.858413e-30)
(-9.998046e-07 1.561203e-06 8.507249e-30)
(-1.375712e-06 2.212795e-06 0)
(-1.75503e-06 2.946663e-06 5.027974e-30)
(-2.116519e-06 3.753844e-06 5.84685e-32)
(-1.092297e-07 -5.447269e-08 -4.104868e-30)
(-3.709945e-07 5.968623e-07 0)
(-7.110977e-07 1.193592e-06 0)
(-1.106973e-06 1.858158e-06 2.806127e-30)
(-1.524392e-06 2.588449e-06 -1.597589e-30)
(-1.946854e-06 3.395495e-06 0)
(-2.350106e-06 4.268012e-06 4.08974e-30)
(-1.202051e-07 -5.214766e-09 -8.81628e-30)
(-4.086873e-07 7.430391e-07 0)
(-7.853773e-07 1.436802e-06 0)
(-1.225171e-06 2.195308e-06 -7.775033e-30)
(-1.688685e-06 3.0142e-06 -1.234022e-29)
(-2.151816e-06 3.898085e-06 4.709371e-30)
(-2.60334e-06 4.843475e-06 0)
(-1.315069e-07 5.126045e-08 -4.749012e-30)
(-4.482769e-07 9.106572e-07 1.444859e-30)
(-8.649009e-07 1.715521e-06 -4.221267e-30)
(-1.353895e-06 2.581469e-06 2.84593e-30)
(-1.871829e-06 3.501385e-06 2.892033e-30)
(-2.391044e-06 4.471226e-06 4.935417e-30)
(-2.900402e-06 5.499973e-06 0)
(-1.425443e-07 1.162624e-07 0)
(-4.88159e-07 1.103547e-06 6.391853e-30)
(-9.472091e-07 2.036284e-06 -6.070446e-30)
(-1.489612e-06 3.026007e-06 0)
(-2.067342e-06 4.062577e-06 1.109411e-29)
(-2.649433e-06 5.139433e-06 1.126575e-29)
(-3.22743e-06 6.265991e-06 5.772658e-30)
(-1.526817e-07 1.910308e-07 5.705298e-30)
(-5.264009e-07 1.325544e-06 6.887045e-30)
(-1.029261e-06 2.405778e-06 -6.702986e-30)
(-1.628778e-06 3.538796e-06 0)
(-2.272437e-06 4.71141e-06 -5.587414e-30)
(-2.926841e-06 5.914659e-06 3.961022e-34)
(-3.586578e-06 7.15719e-06 5.733472e-30)
(-1.610425e-07 2.76713e-07 6.163195e-30)
(-5.604136e-07 1.57998e-06 7.647927e-30)
(-1.107231e-06 2.830188e-06 -7.2457e-30)
(-1.766498e-06 4.129369e-06 0)
(-2.481742e-06 5.461516e-06 0)
(-3.21722e-06 6.815108e-06 6.173941e-30)
(-3.962373e-06 8.190028e-06 -5.127021e-29)
(-1.672663e-07 3.738717e-07 5.653566e-30)
(-5.881515e-07 1.86894e-06 6.874524e-30)
(-1.176642e-06 3.313726e-06 0)
(-1.896297e-06 4.804984e-06 -1.321788e-29)
(-2.687666e-06 6.323962e-06 -5.500403e-30)
(-3.515752e-06 7.856432e-06 1.88097e-29)
(-4.371116e-06 9.39332e-06 1.642816e-29)
(-1.683778e-07 4.816458e-07 7.371209e-30)
(-6.033274e-07 2.188986e-06 0)
(-1.231731e-06 3.856598e-06 6.094179e-30)
(-2.010002e-06 5.568092e-06 -1.109142e-29)
(-2.877641e-06 7.303834e-06 7.924459e-30)
(-3.801214e-06 9.04713e-06 1.466067e-29)
(-4.774838e-06 1.078748e-05 6.857012e-30)
(-1.676236e-07 5.941599e-07 0)
(-6.117193e-07 2.536577e-06 0)
(-1.271428e-06 4.452005e-06 1.961373e-29)
(-2.10158e-06 6.412654e-06 0)
(-3.041005e-06 8.397825e-06 1.739993e-29)
(-4.058562e-06 1.038933e-05 8.04424e-30)
(-5.15125e-06 1.237398e-05 -7.471824e-30)
(-1.640957e-07 7.150306e-07 6.381056e-30)
(-6.061919e-07 2.89787e-06 -1.368936e-29)
(-1.286312e-06 5.0752e-06 -1.2285e-29)
(-2.166976e-06 7.31906e-06 0)
(-3.170278e-06 9.587253e-06 9.596063e-30)
(-4.275011e-06 1.186771e-05 0)
(-5.486991e-06 1.414725e-05 -1.850695e-29)
(-1.624891e-07 8.344767e-07 9.438988e-30)
(-6.017916e-07 3.250674e-06 -1.180309e-29)
(-1.289962e-06 5.693737e-06 -3.700316e-29)
(-2.200259e-06 8.235159e-06 -1.998908e-29)
(-3.26257e-06 1.082809e-05 1.619575e-29)
(-4.43814e-06 1.343787e-05 5.174401e-30)
(-5.75527e-06 1.60701e-05 -5.08148e-30)
(-1.68581e-07 9.420314e-07 1.109834e-30)
(-6.147687e-07 3.585404e-06 1.37606e-30)
(-1.311875e-06 6.270421e-06 -7.324479e-30)
(-2.243125e-06 9.11376e-06 -3.338815e-29)
(-3.330671e-06 1.204511e-05 1.581502e-30)
(-4.539319e-06 1.501203e-05 1.019402e-29)
(-5.92395e-06 1.804507e-05 1.991877e-29)
(-1.914045e-07 1.022651e-06 -1.105413e-30)
(-6.642268e-07 3.851657e-06 -1.367895e-30)
(-1.374354e-06 6.768104e-06 -1.940528e-29)
(-2.292174e-06 9.870775e-06 -6.298018e-29)
(-3.354733e-06 1.310689e-05 -5.346361e-29)
(-4.558627e-06 1.644919e-05 -2.312642e-29)
(-5.949618e-06 1.989513e-05 0)
(-2.418997e-07 1.058475e-06 0)
(-7.732712e-07 4.000631e-06 0)
(-1.496754e-06 7.100121e-06 -1.533863e-29)
(-2.368514e-06 1.039674e-05 -4.78109e-30)
(-3.34176e-06 1.387836e-05 3.764608e-29)
(-4.44366e-06 1.751006e-05 2.64921e-29)
(-5.779238e-06 2.133859e-05 0)
(-3.288605e-07 1.032147e-06 -2.194176e-30)
(-9.49075e-07 3.991843e-06 2.715645e-30)
(-1.668224e-06 7.213921e-06 5.284694e-30)
(-2.459148e-06 1.066074e-05 0)
(-3.297053e-06 1.422517e-05 -3.325531e-29)
(-4.252846e-06 1.797843e-05 -1.018607e-29)
(-5.432983e-06 2.196563e-05 -1.902733e-29)
(-4.548793e-07 9.386033e-07 1.727173e-29)
(-1.167731e-06 3.815127e-06 2.705227e-30)
(-1.855564e-06 7.074233e-06 1.863878e-29)
(-2.552212e-06 1.053294e-05 0)
(-3.267039e-06 1.400138e-05 -8.241789e-30)
(-4.068897e-06 1.750819e-05 -9.049556e-29)
(-5.052133e-06 2.114838e-05 -9.789781e-29)
(-6.142699e-07 7.965357e-07 1.830302e-29)
(-1.402885e-06 3.480321e-06 2.321042e-29)
(-2.068322e-06 6.61293e-06 2.014872e-29)
(-2.731889e-06 9.830854e-06 -1.026471e-29)
(-3.429055e-06 1.285816e-05 -1.985803e-29)
(-4.221966e-06 1.562833e-05 -4.96368e-29)
(-5.176076e-06 1.843671e-05 -3.969345e-29)
(-7.902565e-07 6.231624e-07 0)
(-1.65594e-06 2.954945e-06 -2.852491e-29)
(-2.385047e-06 5.6846e-06 -2.20446e-29)
(-3.150827e-06 8.299971e-06 5.156547e-30)
(-4.033842e-06 1.047014e-05 1.19123e-29)
(-5.099559e-06 1.21465e-05 -9.858603e-30)
(-6.506263e-06 1.35217e-05 0)
(-9.677559e-07 4.099294e-07 -1.734225e-29)
(-1.936785e-06 2.16178e-06 -6.921165e-29)
(-2.859318e-06 4.052021e-06 -4.550953e-29)
(-3.956735e-06 5.629628e-06 -4.741837e-29)
(-5.336749e-06 6.48307e-06 1.368568e-29)
(-7.28063e-06 6.596401e-06 -4.527513e-29)
(-1.16617e-05 4.313488e-06 2.709965e-29)
(-1.126928e-06 1.357052e-07 -1.99921e-29)
(-2.231173e-06 1.002326e-06 -2.708166e-30)
(-3.477003e-06 1.522118e-06 0)
(-5.199889e-06 1.454054e-06 3.054921e-30)
(-7.657761e-06 5.279799e-07 -6.541807e-29)
(-1.302257e-05 -3.718733e-06 -9.793247e-29)
(-4.157978e-05 -3.68789e-05 2.398184e-28)
(-1.19936e-06 -2.602911e-07 1.836277e-29)
(-2.459672e-06 -6.489488e-07 5.408112e-30)
(-4.188968e-06 -2.052959e-06 5.403632e-30)
(-6.889443e-06 -4.324137e-06 1.179815e-29)
(-1.254476e-05 -9.832941e-06 -3.843826e-28)
(-3.955949e-05 -4.426538e-05 1.962694e-30)
(-0.0001336446 -0.0001849023 5.251919e-29)
(-1.113005e-06 -8.261265e-07 1.839437e-29)
(-2.558302e-06 -2.946881e-06 0)
(-4.955119e-06 -6.777391e-06 1.223835e-29)
(-1.005267e-05 -1.370831e-05 -3.275693e-29)
(-2.881572e-05 -4.113698e-05 -3.673642e-28)
(-0.0001073979 -0.0001671362 -3.430227e-28)
(-0.0002153191 -0.0003665901 -1.056808e-27)
(-8.881836e-07 -1.638411e-06 0)
(-2.616916e-06 -5.950394e-06 1.165471e-29)
(-6.304231e-06 -1.390394e-05 3.30022e-29)
(-1.774629e-05 -3.514867e-05 -1.89997e-28)
(-6.855223e-05 -0.0001312903 4.220248e-28)
(-0.0001722201 -0.0003400362 -1.360566e-27)
(-0.0002558014 -0.0005247203 -2.391626e-27)
(-7.323653e-07 -2.707259e-06 0)
(-3.048881e-06 -9.971805e-06 3.143541e-29)
(-9.266813e-06 -2.65636e-05 -5.94844e-30)
(-3.648262e-05 -9.123629e-05 -8.20299e-28)
(-0.0001136704 -0.0002738161 7.031556e-28)
(-0.0002015564 -0.0004954021 5.887354e-28)
(-0.0002643101 -0.0006569671 -7.269271e-28)
(-8.031593e-07 -3.795684e-06 1.931624e-29)
(-4.446803e-06 -1.596614e-05 3.522988e-29)
(-1.809473e-05 -5.766225e-05 2.326754e-31)
(-6.540333e-05 -0.0001946941 -8.472794e-29)
(-0.000144616 -0.0004247276 1.370168e-27)
(-0.0002095258 -0.0006228979 2.826299e-31)
(-0.0002575231 -0.0007725796 3.861348e-28)
(-1.116916e-06 -5.22855e-06 3.73314e-29)
(-7.353488e-06 -2.698635e-05 1.432968e-29)
(-3.254392e-05 -0.0001137677 2.455116e-29)
(-8.937887e-05 -0.0003129686 -6.507915e-31)
(-0.0001552315 -0.0005458576 3.8844e-28)
(-0.0002041566 -0.0007226155 -3.682212e-28)
(-0.0002436432 -0.0008694431 -2.240714e-28)
(-1.433548e-06 -6.916486e-06 2.502636e-29)
(-1.209687e-05 -4.916111e-05 2.564826e-29)
(-4.598939e-05 -0.0001881641 -1.930937e-28)
(-9.919424e-05 -0.0004151714 1.994624e-28)
(-0.0001483935 -0.000628086 1.037803e-29)
(-0.0001863022 -0.0007906185 -1.032724e-28)
(-0.0002195439 -0.0009414204 -1.405439e-28)
(-2.115612e-06 -1.15782e-05 1.230907e-30)
(-1.698498e-05 -8.416928e-05 1.694778e-29)
(-5.118443e-05 -0.0002629392 -2.012968e-28)
(-9.397159e-05 -0.0004901231 3.48716e-30)
(-0.0001305151 -0.0006796922 2.601603e-29)
(-0.0001600625 -0.000831513 6.27885e-29)
(-0.0001872574 -0.0009844598 1.192324e-28)
(-2.79353e-06 -1.994977e-05 -4.785176e-30)
(-1.886026e-05 -0.0001253929 -1.031735e-30)
(-4.756214e-05 -0.0003214922 -2.844071e-30)
(-7.954547e-05 -0.0005349655 5.730343e-34)
(-0.0001060319 -0.0007049975 5.863859e-32)
(-0.0001296341 -0.0008504967 -4.08882e-29)
(-0.0001544856 -0.001005396 -4.355689e-29)
(-2.376646e-06 -3.021162e-05 2.407468e-29)
(-1.418636e-05 -0.0001628863 5.116469e-29)
(-3.37369e-05 -0.0003631346 1.806552e-33)
(-5.482869e-05 -0.0005528421 -1.025044e-28)
(-7.391148e-05 -0.0007056898 -1.131909e-29)
(-9.351724e-05 -0.0008466248 -5.67303e-29)
(-0.0001184157 -0.001001564 -6.454925e-29)
(-9.027532e-07 -3.94293e-05 4.047151e-29)
(-5.741953e-06 -0.0001857377 2.270277e-29)
(-1.442984e-05 -0.0003757284 -4.124601e-30)
(-2.612061e-05 -0.0005496649 -9.015731e-29)
(-3.922367e-05 -0.0006922911 -4.632258e-29)
(-5.518617e-05 -0.0008287819 -3.273642e-29)
(-8.019511e-05 -0.000986436 -1.117661e-28)
(5.707325e-07 -4.496803e-05 -6.361769e-30)
(1.213934e-06 -0.0001957702 -3.549605e-29)
(-6.876782e-07 -0.0003776577 -1.006358e-28)
(-5.965067e-06 -0.0005400811 -1.674683e-29)
(-1.358316e-05 -0.0006756891 3.990097e-29)
(-2.529295e-05 -0.0008109533 -8.454033e-31)
(-4.685363e-05 -0.0009735395 3.365945e-29)
(1.575686e-06 -4.567665e-05 -2.199418e-29)
(6.110627e-06 -0.0001942204 -4.221658e-29)
(9.149835e-06 -0.0003702688 -8.146023e-29)
(8.818822e-06 -0.0005261279 -7.302973e-30)
(5.90793e-06 -0.000658337 2.046129e-29)
(-1.432956e-06 -0.0007947158 2.993646e-29)
(-1.745642e-05 -0.0009644795 8.207602e-29)
(2.284875e-06 -4.11056e-05 -1.154393e-29)
(9.997906e-06 -0.0001810232 -2.756989e-29)
(1.743043e-05 -0.0003535865 3.380889e-29)
(2.185045e-05 -0.0005077085 -1.260013e-29)
(2.381327e-05 -0.0006398398 -7.197599e-29)
(2.281676e-05 -0.0007786044 -1.761677e-30)
(1.684505e-05 -0.0009536736 5.271973e-29)
(2.158446e-06 -3.216355e-05 -2.073733e-29)
(1.108285e-05 -0.0001558471 -3.809748e-29)
(2.21786e-05 -0.0003259303 1.537969e-29)
(3.142958e-05 -0.0004838642 3.282446e-29)
(3.855811e-05 -0.0006194086 -2.532574e-29)
(4.509501e-05 -0.00075999 -4.202413e-29)
(5.204575e-05 -0.0009337144 4.056082e-30)
(1.4925e-06 -2.259683e-05 2.32506e-30)
(9.715193e-06 -0.0001242833 -3.78726e-29)
(2.334685e-05 -0.0002882276 -1.063181e-28)
(3.723109e-05 -0.0004532166 3.760696e-29)
(4.913616e-05 -0.0005951293 -2.705515e-29)
(6.131319e-05 -0.0007364604 -4.160141e-29)
(7.702713e-05 -0.0009032149 -1.176052e-30)
(1.095536e-06 -1.456347e-05 -1.611883e-30)
(8.583622e-06 -9.078008e-05 -2.730051e-30)
(2.438629e-05 -0.0002409298 5.501324e-29)
(4.246199e-05 -0.000413141 4.769213e-29)
(5.774956e-05 -0.0005652564 -7.93352e-29)
(7.174429e-05 -0.0007096494 -1.695752e-29)
(8.862478e-05 -0.0008695308 -2.950533e-29)
(8.011709e-07 -9.092459e-06 -7.211739e-30)
(6.863216e-06 -6.053393e-05 -2.073268e-29)
(2.312997e-05 -0.0001873192 8.785377e-29)
(4.41667e-05 -0.000363121 9.301936e-29)
(6.092534e-05 -0.0005290524 1.122792e-30)
(7.360243e-05 -0.0006806822 9.259181e-30)
(8.594436e-05 -0.0008398529 -3.285262e-28)
(5.147165e-07 -6.239453e-06 3.648314e-30)
(4.425862e-06 -3.839305e-05 2.12753e-29)
(1.749468e-05 -0.0001333552 -3.369113e-29)
(3.898813e-05 -0.0003033293 9.411512e-29)
(5.651248e-05 -0.000484577 -5.30983e-29)
(6.675121e-05 -0.0006445635 2.015809e-28)
(7.28128e-05 -0.0008003285 -1.35262e-28)
(2.593529e-07 -5.268343e-06 8.555002e-30)
(2.235109e-06 -2.514444e-05 3.936539e-29)
(1.024334e-05 -8.598148e-05 6.151019e-30)
(2.997888e-05 -0.0002313644 5.916831e-29)
(4.997397e-05 -0.0004218669 1.400708e-28)
(6.0222e-05 -0.0005930175 1.900513e-28)
(6.363836e-05 -0.0007512199 -1.072171e-29)
(-2.857915e-08 -4.508599e-06 1.770784e-31)
(6.906103e-07 -1.724046e-05 -4.40308e-30)
(5.175048e-06 -5.180094e-05 -4.117824e-29)
(2.136134e-05 -0.0001566903 -1.274859e-28)
(4.502991e-05 -0.0003446686 -1.309134e-28)
(5.887159e-05 -0.0005282528 -1.919712e-28)
(6.369361e-05 -0.0006887043 -4.404761e-28)
(-3.331731e-07 -3.725016e-06 -1.398461e-29)
(-4.616839e-07 -1.248903e-05 1.768383e-31)
(1.395382e-06 -3.044442e-05 4.292023e-29)
(1.170871e-05 -9.283415e-05 8.544527e-29)
(3.69233e-05 -0.0002555018 1.915923e-28)
(5.888674e-05 -0.0004502086 -1.183122e-28)
(7.161703e-05 -0.0006129712 -1.439335e-27)
(-6.176166e-07 -2.851594e-06 -2.219817e-30)
(-1.287424e-06 -9.055174e-06 2.338044e-29)
(-7.596656e-07 -1.90532e-05 4.24681e-32)
(4.5281e-06 -4.899074e-05 1.242085e-28)
(2.818533e-05 -0.0001643996 8.252329e-28)
(6.142049e-05 -0.0003557228 -4.247624e-28)
(8.56477e-05 -0.0005216617 -1.559444e-28)
(-7.645392e-07 -1.916969e-06 1.354027e-29)
(-1.760458e-06 -6.341463e-06 1.570077e-29)
(-1.716152e-06 -1.253234e-05 1.58572e-29)
(6.370631e-07 -2.43508e-05 1.640122e-29)
(1.642695e-05 -8.147259e-05 9.821313e-28)
(5.822282e-05 -0.0002462129 1.200194e-28)
(9.559668e-05 -0.0004237926 9.716771e-29)
(-6.915405e-07 -1.04708e-06 0)
(-1.838311e-06 -3.60834e-06 -2.250775e-30)
(-2.021457e-06 -7.615454e-06 2.844719e-29)
(-7.277385e-07 -1.345244e-05 -7.00545e-29)
(6.219751e-06 -3.321185e-05 2.699483e-28)
(4.183826e-05 -0.0001380153 -7.959473e-29)
(9.633792e-05 -0.0003160967 1.702347e-27)
(-4.531057e-07 -3.908269e-07 0)
(-1.64004e-06 -1.333082e-06 -1.12447e-29)
(-2.053415e-06 -3.471427e-06 -2.204608e-29)
(-1.461849e-06 -6.385149e-06 -4.403675e-29)
(1.319897e-06 -1.269431e-05 1.592094e-28)
(1.837721e-05 -5.005321e-05 -3.257894e-28)
(7.982007e-05 -0.0001909572 -9.389275e-28)
(-2.190187e-07 1.693775e-08 1.967092e-29)
(-1.353894e-06 3.013655e-07 0)
(-1.955174e-06 -2.064202e-07 0)
(-1.784216e-06 -1.468e-06 -2.976077e-29)
(-5.324503e-07 -3.779171e-06 4.099509e-29)
(3.924347e-06 -1.020119e-05 7.056988e-30)
(3.870847e-05 -6.907818e-05 1.449749e-28)
(-8.530714e-08 2.663567e-07 1.990888e-29)
(-1.091415e-06 1.421685e-06 -5.472838e-30)
(-1.805086e-06 2.247099e-06 -5.502749e-30)
(-1.947878e-06 2.529759e-06 -4.554831e-29)
(-1.380713e-06 2.021758e-06 -4.573815e-29)
(4.325677e-07 5.297764e-07 3.329132e-32)
(6.612065e-06 -5.971765e-06 -1.113378e-29)
(-2.754778e-08 4.261134e-07 0)
(-8.725267e-07 2.165117e-06 -2.539793e-29)
(-1.619361e-06 3.992516e-06 0)
(-1.980079e-06 5.523309e-06 -1.095564e-29)
(-1.860944e-06 6.47668e-06 -1.0584e-29)
(-1.131639e-06 6.843611e-06 -1.84179e-30)
(7.574926e-07 6.430058e-06 2.081569e-29)
(-9.180232e-09 5.3875e-07 0)
(-6.649107e-07 2.660253e-06 2.627933e-29)
(-1.341865e-06 5.12846e-06 -2.586431e-29)
(-1.812366e-06 7.531194e-06 0)
(-1.977271e-06 9.555586e-06 -2.070563e-29)
(-1.761377e-06 1.115827e-05 -6.760301e-29)
(-1.060662e-06 1.255074e-05 -7.085282e-30)
(-5.754611e-09 6.495415e-07 0)
(-4.517263e-07 3.00346e-06 7.317266e-29)
(-9.722634e-07 5.791704e-06 -1.97482e-31)
(-1.405717e-06 8.678913e-06 2.923549e-29)
(-1.66853e-06 1.141154e-05 -2.021243e-29)
(-1.687814e-06 1.393102e-05 -2.565011e-29)
(-1.380468e-06 1.640502e-05 -7.874735e-29)
(-5.526754e-09 7.581183e-07 -1.78033e-29)
(-2.673932e-07 3.258874e-06 1.725577e-29)
(-5.688858e-07 6.131594e-06 1.100887e-31)
(-8.297601e-07 9.210179e-06 5.184172e-29)
(-1.013546e-06 1.229416e-05 0)
(-1.0453e-06 1.529816e-05 0)
(-8.18301e-07 1.838741e-05 7.148715e-29)
(1.86363e-09 8.464528e-07 -1.890875e-29)
(-1.179263e-07 3.431909e-06 1.824503e-29)
(-1.964675e-07 6.284122e-06 -2.101565e-29)
(-2.256661e-07 9.351604e-06 -2.097329e-29)
(-2.071134e-07 1.251067e-05 0)
(-7.896893e-08 1.574001e-05 0)
(2.521332e-07 1.901486e-05 6.226377e-30)
(2.428e-08 8.920438e-07 1.541514e-29)
(1.955042e-08 3.507233e-06 8.631164e-30)
(1.270272e-07 6.283759e-06 -5.284267e-30)
(3.260879e-07 9.245368e-06 -2.427888e-29)
(5.890033e-07 1.23317e-05 3.077733e-29)
(9.652254e-07 1.552326e-05 7.085143e-29)
(1.548113e-06 1.878097e-05 -2.759577e-29)
(6.093071e-08 8.911476e-07 1.20688e-29)
(1.677352e-07 3.465738e-06 -2.714851e-30)
(4.210879e-07 6.132352e-06 5.283109e-30)
(8.020031e-07 8.939571e-06 5.177769e-30)
(1.283037e-06 1.188842e-05 0)
(1.885231e-06 1.491566e-05 8.838583e-30)
(2.675433e-06 1.797267e-05 -1.557402e-29)
(1.065916e-07 8.538321e-07 0)
(3.240084e-07 3.324927e-06 -5.457627e-30)
(6.985247e-07 5.843683e-06 -5.329484e-30)
(1.22321e-06 8.502336e-06 8.277802e-30)
(1.859517e-06 1.125009e-05 4.211857e-29)
(2.620591e-06 1.40451e-05 -3.955216e-29)
(3.541117e-06 1.685677e-05 -2.317649e-29)
(1.544387e-07 7.879965e-07 -2.215692e-30)
(4.7566e-07 3.114143e-06 -2.73838e-30)
(9.516412e-07 5.456793e-06 0)
(1.584143e-06 7.928979e-06 -2.42687e-31)
(2.323466e-06 1.046284e-05 -1.399516e-29)
(3.151063e-06 1.3002e-05 -1.30741e-29)
(4.128845e-06 1.556648e-05 -9.657396e-30)
(1.957969e-07 7.05693e-07 -1.192585e-29)
(6.034658e-07 2.861216e-06 6.607712e-30)
(1.158852e-06 5.028526e-06 -5.634902e-29)
(1.850874e-06 7.281735e-06 1.660553e-30)
(2.635377e-06 9.577468e-06 -1.775697e-29)
(3.491689e-06 1.188057e-05 0)
(4.462993e-06 1.419945e-05 9.861158e-30)
(2.272938e-07 6.15985e-07 -7.639689e-30)
(7.008976e-07 2.599814e-06 1.525149e-29)
(1.311396e-06 4.571341e-06 -1.38293e-29)
(2.036164e-06 6.607402e-06 0)
(2.820129e-06 8.668516e-06 1.105827e-29)
(3.660939e-06 1.07456e-05 0)
(4.581042e-06 1.283222e-05 -9.496481e-30)
(2.481777e-07 5.242638e-07 0)
(7.637813e-07 2.327737e-06 0)
(1.397387e-06 4.102763e-06 2.236928e-29)
(2.117556e-06 5.925162e-06 0)
(2.883743e-06 7.777335e-06 1.99532e-29)
(3.683173e-06 9.644829e-06 9.257009e-30)
(4.528751e-06 1.152054e-05 -8.604456e-30)
(2.573969e-07 4.37585e-07 8.387053e-30)
(7.863264e-07 2.059297e-06 0)
(1.41725e-06 3.642103e-06 1.289279e-29)
(2.11862e-06 5.272062e-06 -6.76728e-30)
(2.848728e-06 6.932288e-06 9.029469e-30)
(3.591239e-06 8.608743e-06 1.672896e-29)
(4.354914e-06 1.029426e-05 7.809163e-30)
(2.58076e-07 3.516816e-07 8.84076e-30)
(7.832295e-07 1.805142e-06 1.082451e-29)
(1.391729e-06 3.209529e-06 0)
(2.057803e-06 4.663248e-06 -3.162482e-30)
(2.739014e-06 6.149305e-06 5.419133e-30)
(3.416037e-06 7.654674e-06 9.762498e-30)
(4.092998e-06 9.171468e-06 -1.610861e-29)
(2.488141e-07 2.719233e-07 6.947722e-30)
(7.541259e-07 1.567879e-06 8.604107e-30)
(1.330411e-06 2.811638e-06 -8.163287e-30)
(1.952022e-06 4.106018e-06 0)
(2.577646e-06 5.435794e-06 0)
(3.185957e-06 6.789732e-06 6.911781e-30)
(3.777439e-06 8.168958e-06 3.769456e-29)
(2.344019e-07 1.993531e-07 6.382452e-30)
(7.096572e-07 1.352067e-06 7.710102e-30)
(1.245473e-06 2.450653e-06 -7.488023e-30)
(1.817466e-06 3.60207e-06 0)
(2.38656e-06 4.793098e-06 5.519422e-30)
(2.932382e-06 6.014208e-06 -4.818801e-34)
(3.458037e-06 7.27441e-06 -5.634421e-30)
(2.163422e-07 1.338989e-07 0)
(6.549847e-07 1.157409e-06 7.09144e-30)
(1.146102e-06 2.125764e-06 -6.73524e-30)
(1.666562e-06 3.149599e-06 0)
(2.18038e-06 4.218053e-06 4.73671e-31)
(2.668028e-06 5.323362e-06 -1.111669e-29)
(3.128464e-06 6.474131e-06 -5.68373e-30)
(1.962261e-07 7.517308e-08 -5.235582e-30)
(5.948515e-07 9.827736e-07 -1.440091e-30)
(1.039562e-06 1.834495e-06 -7.634751e-30)
(1.508803e-06 2.744596e-06 -2.824084e-30)
(1.969951e-06 3.704614e-06 -2.737555e-30)
(2.405259e-06 4.708837e-06 5.337184e-30)
(2.809927e-06 5.764646e-06 0)
(1.75289e-07 2.262179e-08 -9.62326e-30)
(5.32732e-07 8.264544e-07 0)
(9.314019e-07 1.573793e-06 0)
(1.351251e-06 2.382363e-06 -2.494325e-30)
(1.762175e-06 3.246104e-06 -7.397141e-30)
(2.147737e-06 4.167784e-06 5.02583e-30)
(2.505006e-06 5.140377e-06 0)
(1.545592e-07 -2.451843e-08 -4.433275e-30)
(4.715216e-07 6.863799e-07 -1.448224e-30)
(8.260875e-07 1.340321e-06 -1.43659e-30)
(1.20007e-06 2.057866e-06 -2.915472e-30)
(1.567059e-06 2.834941e-06 -7.610943e-30)
(1.91651e-06 3.680908e-06 0)
(2.23258e-06 4.580117e-06 4.263815e-30)
(1.346146e-07 -6.684069e-08 -5.810134e-31)
(4.129667e-07 5.605306e-07 2.711332e-30)
(7.261291e-07 1.130427e-06 3.25612e-30)
(1.05762e-06 1.766003e-06 9.01507e-30)
(1.383818e-06 2.464833e-06 0)
(1.693874e-06 3.237269e-06 5.190854e-30)
(1.973886e-06 4.069897e-06 5.789983e-32)
(1.158761e-07 -1.050911e-07 4.267659e-30)
(3.581603e-07 4.468019e-07 8.318628e-30)
(6.331932e-07 9.406775e-07 7.247131e-30)
(9.25877e-07 1.502068e-06 1.299692e-30)
(1.215493e-06 2.129983e-06 -2.88487e-30)
(1.489961e-06 2.835025e-06 4.926761e-30)
(1.738791e-06 3.606904e-06 -8.271389e-31)
(9.858017e-08 -1.399144e-07 3.444679e-30)
(3.078372e-07 3.432359e-07 8.329377e-30)
(5.480994e-07 7.67691e-07 4.032301e-30)
(8.050088e-07 1.261287e-06 0)
(1.059335e-06 1.827864e-06 -2.346299e-29)
(1.30282e-06 2.471363e-06 -2.932865e-29)
(1.526893e-06 3.183462e-06 -5.741181e-30)
(8.288237e-08 -1.719998e-07 2.547338e-30)
(2.624848e-07 2.476615e-07 4.601869e-30)
(4.720529e-07 6.07851e-07 4.35991e-30)
(6.989455e-07 1.038461e-06 2.907337e-30)
(9.286691e-07 1.546452e-06 0)
(1.145325e-06 2.133354e-06 3.382294e-30)
(1.341174e-06 2.790622e-06 2.872449e-30)
(6.884144e-08 -2.020944e-07 2.356391e-30)
(2.222029e-07 1.57902e-07 4.254132e-30)
(4.047732e-07 4.575605e-07 2.91288e-30)
(6.048071e-07 8.287641e-07 1.457405e-30)
(8.084368e-07 1.279107e-06 0)
(1.001217e-06 1.81188e-06 6.098693e-30)
(1.176913e-06 2.420553e-06 5.764083e-30)
(5.647901e-08 -2.309027e-07 5.852968e-31)
(1.871543e-07 7.182457e-08 7.307846e-30)
(3.466296e-07 3.134347e-07 1.459273e-30)
(5.23847e-07 6.27654e-07 1.460746e-30)
(7.050343e-07 1.022373e-06 0)
(8.773251e-07 1.503193e-06 0)
(1.0351e-06 2.065592e-06 0)
(4.589426e-08 -2.591721e-07 0)
(1.576464e-07 -1.275308e-08 3.074568e-30)
(2.980729e-07 1.717772e-07 0)
(4.566244e-07 4.300135e-07 -5.827962e-30)
(6.188404e-07 7.703229e-07 -2.972875e-30)
(7.736279e-07 1.20035e-06 -2.92204e-30)
(9.155125e-07 1.717756e-06 -5.418238e-30)
(3.716684e-08 -2.876777e-07 2.307761e-30)
(1.339749e-07 -9.823622e-08 0)
(2.590109e-07 2.855511e-08 2.935199e-30)
(4.007732e-07 2.310363e-07 -2.352125e-29)
(5.479875e-07 5.175146e-07 -2.098064e-29)
(6.90064e-07 8.957829e-07 0)
(8.182745e-07 1.368798e-06 -2.406812e-30)
(3.052384e-08 -3.17423e-07 2.184358e-30)
(1.174029e-07 -1.876283e-07 0)
(2.332493e-07 -1.212075e-07 1.471516e-30)
(3.67659e-07 2.229443e-08 1.489201e-30)
(5.039685e-07 2.531205e-07 5.150329e-30)
(6.304513e-07 5.804986e-07 -2.363369e-30)
(7.4469e-07 1.009895e-06 2.227828e-30)
(2.638501e-08 -3.496023e-07 0)
(1.089836e-07 -2.84607e-07 3.898835e-30)
(2.20783e-07 -2.834987e-07 1.47321e-30)
(3.492803e-07 -2.034356e-07 -2.951191e-30)
(4.773221e-07 -3.113199e-08 2.418782e-30)
(5.936925e-07 2.451861e-07 -2.262458e-30)
(6.954118e-07 6.31582e-07 3.786685e-32)
(2.550655e-08 -3.859039e-07 0)
(1.114027e-07 -3.940869e-07 2.299566e-30)
(2.261746e-07 -4.660644e-07 -2.220062e-30)
(3.542846e-07 -4.559026e-07 -1.346573e-30)
(4.772899e-07 -3.46195e-07 3.705699e-30)
(5.841532e-07 -1.22036e-07 2.929557e-30)
(6.725927e-07 2.22679e-07 -2.024758e-30)
(2.923245e-08 -4.285062e-07 0)
(1.289344e-07 -5.22985e-07 0)
(2.557772e-07 -6.801852e-07 -2.109088e-30)
(3.895582e-07 -7.491932e-07 2.63269e-30)
(5.098193e-07 -7.071512e-07 3.957913e-32)
(6.062838e-07 -5.358015e-07 0)
(6.788018e-07 -2.298927e-07 0)
(3.997656e-08 -4.810989e-07 1.596008e-30)
(1.686542e-07 -6.821062e-07 -1.943938e-30)
(3.197225e-07 -9.42447e-07 -2.439566e-30)
(4.654651e-07 -1.103348e-06 1.045609e-30)
(5.832825e-07 -1.134546e-06 -3.821375e-32)
(6.656226e-07 -1.014827e-06 2.935243e-30)
(7.166277e-07 -7.417022e-07 1.01339e-36)