/*--------------------------------*- C++ -*----------------------------------*\
| =========                 |                                                 |
| \\      /  F ield         | OpenFOAM: The Open Source CFD Toolbox           |
|  \\    /   O peration     | Version:  2206                                  |
|   \\  /    A nd           | Website:  www.openfoam.com                      |
|    \\/     M anipulation  |                                                 |
\*---------------------------------------------------------------------------*/
FoamFile
{
    version     2.0;
    format      ascii;
    arch        "LSB;label=32;scalar=64";
    class       volVectorField;
    location    "2.2";
    object      U.b;
}
// * * * * * * * * * * * * * * * * * * * * * * * * * * * * * * * * * * * * * //

dimensions      [0 1 -1 0 0 0 0];

internalField   nonuniform List<vector> 
13078
(
(-2.207221e-05 4.649053e-05 -6.290126e-27)
(-1.0689e-05 5.634402e-05 1.098027e-29)
(-9.323944e-06 5.140339e-05 4.27725e-27)
(-9.263422e-06 4.219726e-05 0)
(-9.085113e-06 3.998153e-05 1.387861e-27)
(-8.861363e-06 4.214985e-05 1.365132e-27)
(-8.589697e-06 4.496276e-05 1.372705e-27)
(5.175712e-07 5.136833e-06 0)
(-3.860587e-06 4.716899e-05 -1.872841e-29)
(-1.001908e-05 4.59383e-05 0)
(-1.397327e-05 4.015579e-05 0)
(-1.445348e-05 4.025176e-05 9.8869e-30)
(-1.41966e-05 4.269656e-05 5.140362e-30)
(-1.360828e-05 4.560931e-05 1.008802e-29)
(3.354458e-05 1.055652e-05 2.540656e-27)
(2.702257e-06 2.937038e-05 -9.071446e-28)
(-1.318248e-05 3.435656e-05 -1.289851e-27)
(-1.82995e-05 3.727772e-05 -2.614603e-27)
(-1.962556e-05 4.030276e-05 -1.337582e-27)
(-1.952257e-05 4.358424e-05 0)
(-1.866583e-05 4.689469e-05 7.981607e-33)
(1.125221e-06 8.884294e-06 2.823759e-28)
(-1.208147e-05 2.302151e-05 4.773743e-28)
(-2.021355e-05 3.055882e-05 1.238599e-27)
(-2.396208e-05 3.604364e-05 8.445524e-28)
(-2.524419e-05 4.079133e-05 -3.541985e-29)
(-2.501104e-05 4.498118e-05 0)
(-2.382143e-05 4.881517e-05 -1.765486e-29)
(-1.775931e-05 7.802731e-06 7.717165e-30)
(-2.3785e-05 2.065174e-05 1.069114e-27)
(-2.830298e-05 2.941051e-05 2.422269e-27)
(-3.074189e-05 3.624542e-05 2.784108e-27)
(-3.136319e-05 4.180546e-05 2.31116e-29)
(-3.077394e-05 4.692678e-05 7.790947e-32)
(-2.916584e-05 5.137226e-05 -1.404955e-27)
(-3.1057e-05 7.154992e-06 0)
(-3.428387e-05 1.953223e-05 -3.574184e-29)
(-3.694501e-05 2.912551e-05 5.340815e-29)
(-3.830325e-05 3.704228e-05 1.760512e-27)
(-3.821966e-05 4.368525e-05 -1.587688e-28)
(-3.691761e-05 4.934694e-05 1.379185e-27)
(-3.481812e-05 5.453208e-05 3.050078e-27)
(-4.329069e-05 6.81853e-06 0)
(-4.494281e-05 1.911242e-05 2.227273e-27)
(-4.618987e-05 2.947589e-05 3.050136e-27)
(-4.667826e-05 3.83267e-05 1.057676e-27)
(-4.576855e-05 4.60295e-05 2.005528e-27)
(-4.38313e-05 5.263139e-05 -1.808672e-28)
(-4.088449e-05 5.827796e-05 0)
(-5.54323e-05 6.744709e-06 -5.691664e-27)
(-5.611298e-05 1.924314e-05 2.825691e-27)
(-5.638741e-05 3.030283e-05 2.791418e-27)
(-5.583389e-05 4.021599e-05 0)
(-5.413256e-05 4.895162e-05 5.215096e-27)
(-5.145002e-05 5.651313e-05 -1.899907e-28)
(-4.778526e-05 6.301583e-05 -2.100868e-28)
(-6.800106e-05 6.896445e-06 -8.737987e-31)
(-6.802263e-05 1.990443e-05 -6.89809e-27)
(-6.746539e-05 3.179202e-05 -3.481886e-27)
(-6.602492e-05 4.273477e-05 -1.424642e-28)
(-6.346139e-05 5.254365e-05 1.221341e-26)
(-5.993809e-05 6.112417e-05 -2.021977e-28)
(-5.540916e-05 6.854897e-05 0)
(-8.13521e-05 7.232563e-06 8.370827e-27)
(-8.089312e-05 2.102553e-05 -8.234835e-27)
(-7.962432e-05 3.388669e-05 -4.009728e-27)
(-7.735187e-05 4.593798e-05 7.642147e-27)
(-7.388498e-05 5.689458e-05 5.089814e-30)
(-6.943692e-05 6.657523e-05 0)
(-6.393189e-05 7.501103e-05 0)
(-9.578047e-05 7.72871e-06 0)
(-9.493637e-05 2.257582e-05 0)
(-9.303166e-05 3.65931e-05 -9.397788e-27)
(-8.995215e-05 4.988374e-05 8.937005e-27)
(-8.554304e-05 6.209722e-05 -5.73003e-30)
(-8.008756e-05 7.298086e-05 0)
(-7.349478e-05 8.252942e-05 0)
(-0.0001115637 8.373759e-06 0)
(-0.0001103797 2.454309e-05 1.126612e-26)
(-0.0001078755 3.992847e-05 -1.092277e-26)
(-0.0001039891 5.462783e-05 -1.017977e-26)
(-9.859187e-05 6.824335e-05 1.000888e-26)
(-9.204049e-05 8.046036e-05 0)
(-8.424199e-05 9.124132e-05 -8.783214e-27)
(-0.000128979 9.16525e-06 0)
(-0.0001274709 2.693285e-05 1.310694e-26)
(-0.0001243709 4.392322e-05 1.411293e-28)
(-0.0001196495 6.023125e-05 -1.194561e-26)
(-0.0001132163 7.542868e-05 1.125709e-26)
(-0.0001054614 8.914134e-05 -1.039533e-26)
(-9.632929e-05 0.0001012951 -8.736024e-30)
(-0.0001483171 1.010719e-05 1.526047e-26)
(-0.0001464808 2.976352e-05 0)
(-0.0001427639 4.862503e-05 1.553551e-28)
(-0.0001371316 6.676299e-05 2.135926e-28)
(-0.0001296671 8.373648e-05 2.582255e-26)
(-0.000120537 9.916171e-05 -1.190895e-26)
(-0.0001099296 0.0001128535 1.075421e-26)
(-0.0001698883 1.120756e-05 1.748021e-26)
(-0.0001677097 3.306595e-05 0)
(-0.000163354 5.411928e-05 3.437278e-28)
(-0.000156667 7.446648e-05 -1.891542e-26)
(-0.0001483649 9.313969e-05 1.020174e-26)
(-0.0001375013 0.0001106468 0)
(-0.0001252403 0.0001260955 -1.225312e-26)
(-0.0001940271 1.24756e-05 0)
(-0.0001914739 3.685609e-05 1.956054e-26)
(-0.0001864446 6.033948e-05 0)
(-0.0001789648 8.287442e-05 -1.854894e-26)
(-0.0001690773 0.0001041774 -6.611878e-28)
(-0.0001565696 0.0001238175 -7.869023e-28)
(-0.0001424863 0.0001412313 -1.485752e-26)
(-0.0002211066 1.393362e-05 0)
(-0.0002181338 4.121885e-05 4.456988e-26)
(-0.0002123337 6.753998e-05 2.143991e-28)
(-0.0002037726 9.279255e-05 2.950675e-28)
(-0.0001923916 0.0001167479 0)
(-0.0001780513 0.0001388488 0)
(-0.0001619229 0.0001584912 0)
(-0.0002515455 1.559961e-05 2.584409e-26)
(-0.000248104 4.619957e-05 2.541937e-26)
(-0.0002414513 7.575111e-05 4.809108e-28)
(-0.0002316517 0.0001041118 3.306925e-28)
(-0.0002186303 0.000131044 0)
(-0.0002022829 0.0001559522 2.096801e-26)
(-0.0001838406 0.0001781356 2.256984e-27)
(-0.0002858074 1.749414e-05 2.936452e-26)
(-0.0002818388 5.186488e-05 2.886076e-26)
(-0.0002742372 8.509049e-05 8.091877e-28)
(-0.0002630448 0.0001169879 7.425251e-28)
(-0.000248132 0.0001472639 0)
(-0.0002297458 0.0001753135 2.27057e-26)
(-0.0002085727 0.0002004577 1.269045e-27)
(-0.000324408 1.964244e-05 3.335159e-26)
(-0.0003198455 5.828788e-05 6.53153e-26)
(-0.0003111987 9.568981e-05 3.155457e-26)
(-0.0002985037 0.000131696 0)
(-0.0002813713 0.0001661019 -7.985092e-27)
(-0.0002613103 0.0001969011 -1.206252e-26)
(-0.0002365445 0.0002257296 -2.850747e-27)
(-0.0003679199 2.20693e-05 3.785951e-26)
(-0.0003626816 6.553986e-05 7.394156e-26)
(-0.0003528612 0.000107619 7.121006e-26)
(-0.0003385321 0.0001480342 3.313692e-26)
(-0.0003196752 0.0001862445 -1.179489e-27)
(-0.0002963366 0.0002219359 2.87798e-26)
(-0.0002681418 0.0002543932 -2.455974e-26)
(-0.0004169863 2.481146e-05 0)
(-0.0004109786 7.373553e-05 4.17154e-26)
(-0.0003998362 0.0001211316 4.014964e-26)
(-0.0003836042 0.0001666867 7.720843e-26)
(-0.0003623336 0.0002097456 0)
(-0.0003358599 0.0002501073 3.263214e-26)
(-0.0003039495 0.0002868134 -3.908528e-29)
(-0.0004723232 2.789859e-05 -4.853254e-26)
(-0.0004654476 8.296663e-05 0)
(-0.0004528436 0.0001363567 0)
(-0.000434506 0.0001877112 -1.156059e-27)
(-0.0004104548 0.0002362889 -4.24158e-26)
(-0.0003803974 0.0002817977 0)
(-0.0003447522 0.000323271 3.363116e-26)
(-0.0005347206 3.136342e-05 -1.09877e-25)
(-0.0005268697 9.332833e-05 0)
(-0.0005126586 0.0001534559 0)
(-0.000492029 0.0002113753 -4.814795e-26)
(-0.0004650182 0.0002664441 -9.10559e-26)
(-0.0004308847 0.0003186105 4.248115e-26)
(-0.0003921255 0.000363792 0)
(-0.0006050431 3.523843e-05 -6.215743e-26)
(-0.0005960983 0.0001049177 -3.300386e-28)
(-0.000580118 0.0001725759 -5.924924e-26)
(-0.0005569607 0.0002377638 -1.499714e-27)
(-0.0005267772 0.000299599 -1.940527e-27)
(-0.000489469 0.0003574214 4.828579e-26)
(-0.0004447736 0.0004106137 0)
(-0.0006842309 3.955609e-05 0)
(-0.0006740742 0.0001178418 6.868786e-26)
(-0.0006561595 0.0001939359 -6.640682e-26)
(-0.0006302273 0.0002673561 0)
(-0.0005964171 0.0003371752 5.520085e-26)
(-0.000554715 0.0004025775 -1.016046e-26)
(-0.0005044419 0.0004632133 -5.847792e-27)
(-0.0007732883 4.433708e-05 7.93901e-26)
(-0.0007618311 0.0001321789 7.763631e-26)
(-0.0007418291 0.0002176758 -7.499535e-26)
(-0.0007129302 0.0003002967 0)
(-0.0006752321 0.0003790689 4.775351e-27)
(-0.0006286356 0.0004530716 8.512035e-30)
(-0.0005722879 0.0005219778 -6.5856e-27)
(-0.0008732414 4.959616e-05 8.965244e-26)
(-0.0008605124 0.0001479381 8.761382e-26)
(-0.00083824 0.0002439011 -8.475766e-26)
(-0.0008062096 0.0003367715 0)
(-0.0007644198 0.000425607 0)
(-0.0007128492 0.0005097689 7.025786e-26)
(-0.000650214 0.0005897356 -7.035329e-27)
(-0.0009851653 5.523783e-05 1.012748e-25)
(-0.000971303 0.0001651278 9.942583e-26)
(-0.000946571 0.0002726887 0)
(-0.0009112708 0.0003768875 -8.657291e-26)
(-0.0008650798 0.0004767151 6.006483e-27)
(-0.0008080475 0.0005707749 1.521039e-25)
(-0.0007397519 0.0006572099 -2.472885e-26)
(-0.001109914 6.168266e-05 1.139085e-25)
(-0.001095938 0.0001830887 0)
(-0.001068239 0.0003038504 1.097083e-25)
(-0.001029549 0.0004208587 -1.005515e-25)
(-0.0009788073 0.0005334132 9.720067e-26)
(-0.0009157174 0.0006403606 1.803657e-25)
(-0.000839346 0.0007402152 8.170738e-26)
(-0.001249992 6.763524e-05 0)
(-0.001233685 0.0002031367 0)
(-0.001204616 0.0003372467 2.430874e-25)
(-0.001162626 0.0004684276 0)
(-0.001107516 0.0005951804 2.199641e-25)
(-0.001038884 0.0007166881 1.023201e-25)
(-0.0009556299 0.0008322785 -9.30114e-26)
(-0.00140493 7.486176e-05 1.446954e-25)
(-0.00138602 0.0002253473 -1.397838e-25)
(-0.001357863 0.0003709144 -1.354943e-25)
(-0.001312739 0.000518334 0)
(-0.00125279 0.0006613051 1.244276e-25)
(-0.001179089 0.0007985318 0)
(-0.001089423 0.0009291681 -8.288177e-26)
(-0.001575804 8.176427e-05 1.617942e-25)
(-0.001557254 0.0002455634 -1.586861e-25)
(-0.00152475 0.0004098064 -4.602227e-25)
(-0.001483028 0.0005682382 -3.002177e-25)
(-0.001416738 0.0007306794 1.311857e-25)
(-0.00133845 0.0008863258 -1.109387e-26)
(-0.001242128 0.001035827 1.295256e-26)
(-0.001762351 8.876836e-05 -2.699318e-28)
(-0.00174358 0.0002663539 -8.342252e-28)
(-0.001712611 0.0004432629 -1.786537e-25)
(-0.001667598 0.0006217744 -3.223601e-25)
(-0.001601771 0.0008013901 1.787754e-25)
(-0.001519947 0.0009782271 -2.445424e-26)
(-0.001418315 0.001149865 -5.759269e-26)
(-0.001964478 9.557029e-05 2.896252e-28)
(-0.001945622 0.000287241 8.987985e-28)
(-0.001916324 0.000479858 -1.879604e-25)
(-0.00186955 0.0006774239 -1.192048e-25)
(-0.001812372 0.0008672099 1.005363e-25)
(-0.001728147 0.001069471 -1.427308e-25)
(-0.001621447 0.001267613 0)
(-0.002180968 0.0001014595 0)
(-0.002162609 0.0003051658 0)
(-0.002136895 0.0005102135 -2.163196e-25)
(-0.002097531 0.0007202497 -2.280145e-25)
(-0.002037837 0.0009393037 -3.085414e-25)
(-0.001969652 0.001152558 -2.982582e-25)
(-0.001855662 0.0013847 0)
(-0.00240935 0.0001059636 6.371268e-28)
(-0.002391968 0.0003190003 -1.916382e-27)
(-0.002370789 0.0005345003 -6.650397e-27)
(-0.002339568 0.0007563124 0)
(-0.002292267 0.0009871549 -4.567967e-25)
(-0.002228483 0.001233095 3.039553e-26)
(-0.002127328 0.001494645 7.430455e-26)
(-0.002645621 0.0001081753 2.70651e-25)
(-0.002629926 0.0003263194 -2.036013e-27)
(-0.002615561 0.0005493153 2.646724e-25)
(-0.002595772 0.0007829114 0)
(-0.002564047 0.001032979 -2.812428e-25)
(-0.002510447 0.001308429 -5.298305e-26)
(-0.002450204 0.001586685 3.625643e-25)
(-0.002883504 0.000107125 2.951766e-25)
(-0.002872093 0.0003244351 2.905093e-25)
(-0.002867449 0.0005509048 2.905653e-25)
(-0.002863572 0.0007916318 1.938521e-26)
(-0.002854319 0.001052597 5.186284e-26)
(-0.002830178 0.001338906 -1.819129e-25)
(-0.002793224 0.001665091 1.638606e-25)
(-0.003115736 0.0001033381 0)
(-0.003112874 0.0003110011 -3.121524e-25)
(-0.003122236 0.0005364376 -3.161219e-25)
(-0.003137569 0.0007811088 -9.638354e-27)
(-0.003156101 0.001052204 3.417066e-25)
(-0.003167575 0.001360454 3.362882e-26)
(-0.00315898 0.001723155 0)
(-0.003337757 9.432221e-05 -3.429927e-25)
(-0.003340975 0.000292078 -6.700076e-25)
(-0.003372249 0.0005013337 -3.210071e-25)
(-0.003412378 0.0007441222 -6.873068e-25)
(-0.003462287 0.001017558 3.723649e-25)
(-0.003517678 0.001332342 -3.174525e-25)
(-0.003545953 0.001712419 6.677135e-30)
(-0.003536842 8.204003e-05 -3.631947e-25)
(-0.003556298 0.0002568518 1.572819e-27)
(-0.003598809 0.000454859 0)
(-0.003676966 0.0006738596 -8.153746e-27)
(-0.003761381 0.0009444309 -7.53577e-25)
(-0.003840262 0.001280613 -3.831137e-25)
(-0.003844613 0.00174406 3.461799e-29)
(-0.003703594 6.604035e-05 3.808147e-25)
(-0.003741971 0.0002110386 -2.38497e-27)
(-0.003806941 0.0003807168 -4.594496e-27)
(-0.003900785 0.0005843096 8.210786e-25)
(-0.004021488 0.0008408696 -7.034603e-25)
(-0.00407664 0.001251015 -7.399895e-25)
(-0.004015474 0.001777311 9.595476e-26)
(-0.003827523 4.638537e-05 3.938311e-25)
(-0.003889347 0.0001536738 0)
(-0.003973317 0.000288284 -6.472128e-27)
(-0.004089365 0.0004697811 -3.18719e-26)
(-0.004171683 0.0007836874 -5.658029e-25)
(-0.004184038 0.001239601 -1.036374e-24)
(-0.004040898 0.001832996 -1.120647e-28)
(-0.003899844 2.366728e-05 0)
(-0.003985058 8.464271e-05 -1.369502e-27)
(-0.00408213 0.0001808827 -7.716805e-27)
(-0.004193104 0.0003820504 -4.26083e-25)
(-0.004214432 0.0007598758 -3.559064e-25)
(-0.004119874 0.001276822 -3.115714e-25)
(-0.003962407 0.001849506 -1.752611e-28)
(-0.003913995 -1.939177e-06 0)
(-0.004012261 7.027874e-06 3.629213e-30)
(-0.004103463 8.411874e-05 3.225254e-27)
(-0.004168927 0.0003377314 -4.330444e-25)
(-0.004121287 0.0007795349 5.012074e-26)
(-0.003964631 0.001324005 -7.383963e-25)
(-0.003789682 0.001940131 1.128978e-25)
(-0.003858286 -3.07629e-05 3.983431e-25)
(-0.003957462 -6.434528e-05 -1.813133e-27)
(-0.004017109 3.516486e-05 1.520457e-27)
(-0.004002107 0.0003490549 -4.644446e-29)
(-0.003898318 0.000819832 9.903354e-29)
(-0.003720878 0.001396554 -3.430397e-25)
(-0.003550651 0.002001917 -3.118208e-25)
(-0.003721887 -5.839829e-05 3.842191e-25)
(-0.003803778 -0.0001043133 8.871541e-31)
(-0.003814241 4.741223e-05 3.876016e-25)
(-0.003730796 0.000409674 -4.053989e-32)
(-0.003578115 0.0009282156 1.291941e-25)
(-0.003387506 0.001513662 2.083674e-25)
(-0.003206737 0.00215642 2.25805e-29)
(-0.003501405 -7.140422e-05 3.614849e-25)
(-0.003546107 -0.0001007957 1.561387e-30)
(-0.003505165 0.0001041743 3.533401e-25)
(-0.003386537 0.0005167543 6.21352e-30)
(-0.003210791 0.001059827 3.017133e-25)
(-0.003004666 0.001677606 -2.708543e-25)
(-0.00278043 0.002370313 -2.323349e-25)
(-0.00319864 -6.096804e-05 6.597493e-25)
(-0.003197443 -5.498285e-05 1.364307e-28)
(-0.003114192 0.0001983063 -3.107536e-25)
(-0.002978829 0.0006544723 2.153632e-31)
(-0.002803482 0.001238492 5.195213e-25)
(-0.002598442 0.001909832 -9.277381e-26)
(-0.002335977 0.002653325 -3.372054e-27)
(-0.002817031 -3.17893e-05 2.916234e-25)
(-0.002776558 2.924953e-05 -1.449341e-25)
(-0.002675275 0.0003240599 -7.843256e-25)
(-0.002536 0.0008172882 2.405618e-25)
(-0.002363397 0.001447071 2.147669e-25)
(-0.002156987 0.002175158 -5.300046e-30)
(-0.001896486 0.002985387 -2.022565e-25)
(-0.00236112 1.244016e-05 1.213741e-25)
(-0.002305617 0.0001286061 -1.210643e-25)
(-0.002206924 0.0004684518 -4.220082e-25)
(-0.002067903 0.001002417 4.404431e-26)
(-0.001902257 0.001688524 -2.363476e-25)
(-0.001695691 0.002489334 -1.451602e-25)
(-0.001439987 0.003371162 -4.819999e-30)
(-0.001849562 4.912071e-05 9.531526e-26)
(-0.001801218 0.0002164047 9.178994e-26)
(-0.00171578 0.0005983547 6.100914e-26)
(-0.001602368 0.001179861 -3.402514e-26)
(-0.00145786 0.001912877 4.686818e-28)
(-0.001271277 0.002789631 -1.0395e-25)
(-0.001044772 0.00380187 1.164375e-24)
(-0.001302036 7.663563e-05 -3.684307e-31)
(-0.001271298 0.0002872692 6.462288e-26)
(-0.00121504 0.0007050076 7.420122e-26)
(-0.001141998 0.001328542 -3.041875e-26)
(-0.001040923 0.002115075 4.668643e-26)
(-0.0009029096 0.003063387 3.6317e-26)
(-0.000709919 0.004158831 -2.822707e-25)
(-0.000736015 9.436576e-05 -2.37073e-30)
(-0.0007269035 0.0003344242 -2.030307e-30)
(-0.0007080652 0.0007762391 3.492378e-26)
(-0.0006790605 0.001432769 -4.483719e-31)
(-0.0006294132 0.002264438 2.609139e-26)
(-0.0005519053 0.003273927 -8.562863e-26)
(-0.0004312579 0.004447016 -1.284065e-25)
(-0.0001493846 9.888519e-05 9.136453e-28)
(-0.000163626 0.0003486752 -4.518888e-27)
(-0.0001856069 0.0008003195 1.078885e-26)
(-0.0002047824 0.00147656 2.552549e-26)
(-0.0002134451 0.002337855 -3.210823e-30)
(-0.0002084649 0.003387384 8.20415e-30)
(-0.0001853045 0.004613026 -1.43682e-25)
(0.0004524192 8.785426e-05 7.776139e-28)
(0.0004183405 0.0003252244 5.792804e-27)
(0.000358219 0.0007723986 -1.037404e-26)
(0.0002897341 0.001452593 -1.8914e-26)
(0.0002194095 0.002321968 -1.51343e-25)
(0.0001455084 0.00338005 -2.130035e-25)
(5.969855e-05 0.004613528 2.480985e-31)
(0.00103743 6.425788e-05 1.428296e-31)
(0.0009931342 0.0002698592 -2.018534e-30)
(0.000902203 0.0006971538 3.498732e-26)
(0.0007878173 0.001361787 4.206843e-26)
(0.0006589488 0.00221559 -2.572778e-30)
(0.0005121053 0.003249576 9.279962e-26)
(0.0003287635 0.004447669 -1.374301e-25)
(0.001586907 3.375473e-05 -8.233249e-26)
(0.001545645 0.000194535 -8.009538e-26)
(0.001436996 0.0005870369 3.599254e-26)
(0.001283722 0.001220637 -3.107624e-26)
(0.001103657 0.002044048 -2.80408e-30)
(0.000896961 0.003036664 -1.154671e-25)
(0.000644194 0.004181706 -3.669672e-25)
(0.002109762 -2.956594e-06 -2.185884e-25)
(0.002073534 0.0001048817 -2.144523e-25)
(0.001970173 0.0004560325 4.988512e-26)
(0.001793483 0.001048381 -4.427885e-26)
(0.001574982 0.001834483 -7.44343e-26)
(0.001324455 0.002778802 -1.757723e-25)
(0.001042219 0.003871333 -1.101757e-24)
(0.002590916 -3.944706e-05 -1.342133e-25)
(0.002567417 9.15869e-06 -2.648989e-25)
(0.002492916 0.0003131211 -4.963779e-25)
(0.002328477 0.0008624344 -1.187598e-25)
(0.002096336 0.00161502 1.033192e-25)
(0.001823421 0.00250588 -1.608925e-25)
(0.00151146 0.003493794 5.73285e-25)
(0.003010033 -7.065745e-05 3.141509e-25)
(0.003010064 -7.492284e-05 -1.596629e-25)
(0.002956796 0.0001808768 -8.887225e-25)
(0.002832229 0.0006782168 -5.635509e-25)
(0.002613726 0.001374062 -1.623814e-25)
(0.002341282 0.002211724 6.542235e-26)
(0.002025885 0.0031473 3.938823e-25)
(0.003347183 -7.968686e-05 6.922317e-25)
(0.003380013 -0.0001277503 -2.729631e-31)
(0.00335914 7.27005e-05 -3.445959e-25)
(0.00327462 0.0005235882 -3.300219e-25)
(0.003089164 0.001167926 -6.803913e-25)
(0.002825475 0.001959806 -1.062371e-27)
(0.002512105 0.002850124 4.021165e-25)
(0.003602894 -7.315333e-05 3.723156e-25)
(0.003668086 -0.0001364751 -1.983664e-27)
(0.003686346 7.045969e-06 1.38743e-28)
(0.003647696 0.0004000354 5.482487e-30)
(0.003505962 0.0009925291 -6.961687e-25)
(0.003261314 0.001730842 -2.102702e-29)
(0.002978834 0.002582528 1.355792e-24)
(0.003776877 -4.976303e-05 3.896644e-25)
(0.003862615 -0.0001035196 3.983711e-25)
(0.003917912 -8.695172e-06 2.643584e-33)
(0.003928437 0.0003134833 1.497308e-29)
(0.003849707 0.0008650565 -3.041417e-25)
(0.003643613 0.001548195 5.067598e-25)
(0.003403781 0.002340573 7.923211e-25)
(0.003868662 -1.844582e-05 3.989837e-25)
(0.003958228 -3.902604e-05 4.081096e-25)
(0.004042729 2.656135e-05 2.448041e-30)
(0.004104313 0.000276309 8.325912e-25)
(0.004101609 0.000750461 -3.663841e-26)
(0.003962373 0.001400575 -7.84607e-26)
(0.003738081 0.002155548 -3.514483e-25)
(0.003885389 1.013348e-05 0)
(0.003964958 3.948466e-05 -1.396809e-31)
(0.004063134 0.0001084474 3.147551e-30)
(0.004177395 0.0002984228 8.475467e-25)
(0.00422862 0.0006988549 3.958143e-25)
(0.004163652 0.001287517 -6.807103e-26)
(0.003968139 0.002017849 7.179461e-25)
(0.003839002 3.415246e-05 0)
(0.00390401 0.0001129571 2.02003e-27)
(0.003996657 0.0002173345 9.174334e-27)
(0.004126649 0.0003859446 8.805326e-27)
(0.004221978 0.0006926038 5.24983e-28)
(0.0042317 0.00121126 1.974717e-25)
(0.004124641 0.001861648 9.296782e-25)
(0.00374066 5.509817e-05 3.847274e-25)
(0.003784335 0.0001770321 0)
(0.003860621 0.0003217629 0)
(0.003974409 0.0005011034 -3.247719e-30)
(0.004091482 0.0007596637 -4.142666e-25)
(0.004176385 0.001162592 -5.345071e-26)
(0.004137914 0.001781188 7.998727e-26)
(0.003595736 7.301612e-05 3.69535e-25)
(0.003620508 0.0002289597 2.604454e-27)
(0.003676606 0.0004058515 4.88092e-27)
(0.003760635 0.0006129775 4.65036e-26)
(0.003876118 0.0008568636 1.108159e-25)
(0.003971711 0.001198106 1.140156e-25)
(0.003997245 0.001688839 8.646224e-25)
(0.003414112 8.703724e-05 0)
(0.003423986 0.0002689503 -3.503886e-25)
(0.003458872 0.0004699918 0)
(0.003521356 0.0006904861 1.612125e-26)
(0.003590595 0.0009565093 2.29313e-26)
(0.003665586 0.001271665 5.86534e-26)
(0.003724892 0.001659486 1.256082e-24)
(0.00320574 9.725352e-05 0)
(0.003203633 0.0002980741 3.255493e-25)
(0.003225404 0.000507888 -3.275246e-25)
(0.003253709 0.0007467336 0)
(0.003287047 0.001015443 4.716586e-26)
(0.003326675 0.001316273 -2.053895e-25)
(0.003345671 0.001674875 3.314618e-25)
(0.00297963 0.0001040693 0)
(0.002973437 0.0003122885 9.085293e-25)
(0.002975948 0.0005340464 3.809383e-28)
(0.002980837 0.0007737487 6.351245e-25)
(0.002987348 0.001032719 4.934387e-26)
(0.002979963 0.001329643 -2.960465e-25)
(0.002949891 0.001671865 2.83619e-25)
(0.00274685 0.0001060088 -2.816968e-25)
(0.002735095 0.0003200177 2.825195e-25)
(0.002725767 0.0005406284 -7.289678e-29)
(0.002715094 0.0007736461 5.347188e-25)
(0.00269369 0.001024078 0)
(0.002656336 0.001294713 0)
(0.002603246 0.001596416 4.113992e-25)
(0.002512724 0.0001053661 -2.569707e-25)
(0.002497594 0.0003178832 2.565123e-25)
(0.00248008 0.000534694 -2.510482e-25)
(0.002456826 0.0007574899 -2.471026e-25)
(0.002416204 0.0009967777 0)
(0.002354713 0.001254595 0)
(0.002286264 0.001510733 2.792634e-25)
(0.002283207 0.0001022379 2.34162e-25)
(0.002265958 0.0003082801 2.380374e-25)
(0.002243924 0.0005147039 6.235389e-27)
(0.002208962 0.0007286885 -2.129076e-25)
(0.002156046 0.0009512732 -6.477104e-26)
(0.002089746 0.001175298 3.231052e-25)
(0.001989525 0.00141813 -1.57723e-25)
(0.002063384 9.709605e-05 2.121591e-25)
(0.002045747 0.0002922188 1.823859e-27)
(0.002018862 0.0004884528 -6.025559e-27)
(0.001977873 0.0006878809 -8.563408e-27)
(0.00191955 0.000893295 0)
(0.001843979 0.00109817 2.027087e-25)
(0.001738165 0.001311065 -1.695134e-25)
(0.001856088 9.139648e-05 0)
(0.001838415 0.0002737762 3.365408e-27)
(0.001808589 0.0004576097 5.704752e-27)
(0.00176213 0.00064508 -4.053807e-25)
(0.001706288 0.0008246814 -7.552141e-26)
(0.001621539 0.001014595 -2.928972e-25)
(0.001520426 0.001198542 -1.177728e-25)
(0.001663595 8.453306e-05 5.124431e-28)
(0.001645574 0.0002536116 1.587254e-27)
(0.001615001 0.0004217919 0)
(0.001570895 0.0005908537 4.39162e-28)
(0.001506996 0.0007604018 -1.493044e-25)
(0.001427535 0.000926436 -1.400925e-25)
(0.00133065 0.001086868 2.720555e-26)
(0.001486219 7.778967e-05 -1.522096e-25)
(0.001468363 0.0002334884 1.530467e-25)
(0.001436784 0.0003893783 -2.659954e-25)
(0.001396249 0.0005393108 3.073835e-25)
(0.001332384 0.0006926197 -1.231724e-25)
(0.00125719 0.0008390126 0)
(0.001165418 0.0009792442 -2.453392e-26)
(0.0013239 7.11411e-05 -1.362149e-25)
(0.001305747 0.0002140645 1.315275e-25)
(0.001278555 0.0003520972 -1.27418e-25)
(0.001235119 0.0004916114 0)
(0.001177597 0.0006266064 1.16823e-25)
(0.001107116 0.0007558718 0)
(0.00102175 0.0008786929 -9.949104e-26)
(0.001176811 6.422649e-05 0)
(0.001161192 0.0001928267 0)
(0.001133309 0.0003199499 2.284016e-25)
(0.001093052 0.000444105 0)
(0.001040321 0.0005638598 2.063444e-25)
(0.0009748181 0.0006784548 9.588774e-26)
(0.0008955841 0.0007872949 -8.706095e-26)
(0.001043877 5.853804e-05 1.070171e-25)
(0.001030529 0.0001736999 0)
(0.001004056 0.000288147 9.938323e-26)
(0.0009670603 0.0003989098 -9.930657e-26)
(0.0009185971 0.0005053093 9.108826e-26)
(0.0008584504 0.0006062624 1.688428e-25)
(0.0007857788 0.0007003857 7.638472e-26)
(0.000925514 5.239872e-05 9.472105e-26)
(0.0009123156 0.0001566 9.228998e-26)
(0.0008887286 0.0002585226 0)
(0.0008550345 0.0003571759 -9.002514e-26)
(0.0008109746 0.0004515868 -5.681705e-27)
(0.0007566413 0.0005404315 1.557004e-25)
(0.0006916634 0.0006219551 2.341245e-26)
(0.0008193281 4.702988e-05 8.402756e-26)
(0.0008072322 0.0001402543 8.208238e-26)
(0.0007860244 0.0002311804 -7.936188e-26)
(0.0007554905 0.0003191226 0)
(0.0007156677 0.0004031711 0)
(0.0006665702 0.0004827141 6.55864e-26)
(0.00060701 0.0005582051 -1.119109e-25)
(0.0007245016 4.203074e-05 7.430293e-26)
(0.0007136273 0.0001252823 7.262967e-26)
(0.0006946027 0.0002062875 -7.011661e-26)
(0.0006670807 0.0002845373 0)
(0.0006311828 0.0003590933 -4.514528e-27)
(0.0005868453 0.0004290798 -7.936944e-30)
(0.0005332819 0.0004941821 6.221386e-27)
(0.0006400119 3.748938e-05 0)
(0.000630377 0.0001116695 6.415228e-26)
(0.0006133502 0.0001837631 -6.198227e-26)
(0.0005886694 0.0002533103 0)
(0.0005564887 0.0003194182 5.939476e-26)
(0.0005168194 0.0003813139 9.601273e-27)
(0.0004690468 0.0004386697 5.524639e-27)
(0.0005648849 3.339049e-05 -5.797408e-26)
(0.0005563994 9.940389e-05 3.119361e-28)
(0.0005412167 0.0001635024 -5.417032e-26)
(0.0005191845 0.0002252596 1.417343e-27)
(0.0004904611 0.0002838281 1.744783e-27)
(0.0004549676 0.0003385859 4.47987e-26)
(0.0004124775 0.000388972 0)
(0.0004981677 2.971337e-05 -1.022684e-25)
(0.0004907158 8.840888e-05 0)
(0.0004772153 0.0001453703 0)
(0.0004575899 0.0002002459 -4.720624e-26)
(0.0004318869 0.0002524154 -8.75767e-26)
(0.0003994098 0.000301826 3.930386e-26)
(0.0003625368 0.0003446059 0)
(0.0004389694 2.642696e-05 -4.506479e-26)
(0.0004324354 7.858215e-05 2.469136e-28)
(0.0004204593 0.0001291586 4.078928e-28)
(0.0004030147 0.0001778182 1.148222e-27)
(0.0003801276 0.0002238468 -3.642089e-26)
(0.0003515252 0.0002669612 0)
(0.0003176268 0.0003062395 3.092194e-26)
(0.000386469 2.350026e-05 3.681109e-29)
(0.0003807494 6.983152e-05 3.914983e-26)
(0.0003701569 0.0001147288 3.783841e-26)
(0.000354713 0.0001578975 7.128881e-26)
(0.000334471 0.0001987051 0)
(0.0003092833 0.0002369539 2.99839e-26)
(0.0002789481 0.0002717282 -3.685638e-29)
(0.0003399165 2.0902e-05 3.488678e-26)
(0.0003349164 6.206624e-05 6.840411e-26)
(0.0003255729 0.0001019276 6.626025e-26)
(0.0003119347 0.0001402316 3.223743e-26)
(0.0002939876 0.0001764546 1.113948e-27)
(0.0002717862 0.0002102934 2.63375e-26)
(0.000244992 0.0002410658 -2.538391e-26)
(0.0002986308 1.860375e-05 3.068118e-26)
(0.0002942606 5.51987e-05 6.003646e-26)
(0.0002860236 9.063216e-05 2.897012e-26)
(0.0002739329 0.0001247651 0)
(0.0002576231 0.000157394 7.554163e-27)
(0.0002385372 0.0001866149 1.140709e-26)
(0.0002150024 0.0002139756 2.693469e-27)
(0.0002620007 1.657031e-05 2.695506e-26)
(0.0002581816 4.91192e-05 2.626599e-26)
(0.000250927 8.060112e-05 -7.639144e-28)
(0.0002402559 0.0001108497 -7.011624e-28)
(0.0002260484 0.0001395792 0)
(0.0002085507 0.0001662124 2.058158e-26)
(0.0001884236 0.0001901048 -1.199308e-27)
(0.0002294819 1.477775e-05 2.361292e-26)
(0.0002261498 4.375892e-05 2.302083e-26)
(0.0002197838 7.176583e-05 -4.540092e-28)
(0.0002104244 9.867182e-05 -3.122998e-28)
(0.0001980054 0.0001242452 0)
(0.0001824373 0.0001479181 1.70611e-26)
(0.0001648933 0.0001690252 -2.133753e-27)
(0.0002005847 1.320159e-05 -2.081776e-29)
(0.000197683 3.904698e-05 4.031178e-26)
(0.0001921116 6.399922e-05 -2.024237e-28)
(0.000183915 8.796891e-05 -2.786906e-28)
(0.0001730425 0.0001107336 0)
(0.0001593693 0.0001317618 0)
(0.0001440111 0.0001504785 0)
(0.0001748693 1.182176e-05 0)
(0.0001723503 3.491868e-05 1.760294e-26)
(0.0001674935 5.718779e-05 0)
(0.0001603072 7.859137e-05 -1.56418e-26)
(0.0001508388 9.885518e-05 6.250167e-28)
(0.0001388923 0.0001175666 7.441938e-28)
(0.0001254637 0.0001341873 -1.143406e-26)
(0.0001519398 1.062054e-05 1.563505e-26)
(0.0001497587 3.132948e-05 0)
(0.0001455209 5.130101e-05 -3.245611e-28)
(0.0001390667 7.064101e-05 -1.10056e-26)
(0.0001310867 8.842509e-05 1.740906e-26)
(0.0001206872 0.0001051313 0)
(0.0001089771 0.0001199063 -1.065476e-26)
(0.0001314438 9.575981e-06 1.352899e-26)
(0.000129567 2.819697e-05 0)
(0.0001259111 4.60957e-05 -1.466197e-28)
(0.0001204338 6.335325e-05 -2.017566e-28)
(0.0001132275 7.954308e-05 2.25521e-26)
(0.0001044605 9.429299e-05 -1.032141e-26)
(9.431009e-05 0.0001074202 9.223754e-27)
(0.0001130673 8.678203e-06 0)
(0.0001114764 2.550329e-05 1.131449e-26)
(0.0001083752 4.163186e-05 -1.330813e-28)
(0.0001037341 5.716776e-05 -1.035999e-26)
(9.748403e-05 7.169366e-05 9.698796e-27)
(9.000772e-05 8.484223e-05 -8.875941e-27)
(8.124974e-05 9.65325e-05 -8.248727e-30)
(9.65206e-05 7.91794e-06 0)
(9.520357e-05 2.321554e-05 9.729156e-27)
(9.262796e-05 3.782562e-05 -9.392463e-27)
(8.87439e-05 5.185368e-05 -9.011049e-27)
(8.345208e-05 6.490567e-05 8.087702e-27)
(7.710457e-05 7.666404e-05 -4.902653e-28)
(6.960857e-05 8.707773e-05 -6.775832e-27)
(8.153541e-05 7.28885e-06 0)
(8.049345e-05 2.131126e-05 0)
(7.843337e-05 3.462851e-05 -7.940401e-27)
(7.527148e-05 4.734587e-05 7.489189e-27)
(7.089071e-05 5.910337e-05 -5.379505e-30)
(6.557305e-05 6.96325e-05 0)
(5.922333e-05 7.890708e-05 0)
(6.785991e-05 6.789202e-06 6.997275e-27)
(6.711333e-05 1.977818e-05 -6.85151e-27)
(6.558294e-05 3.200833e-05 -3.209282e-27)
(6.313385e-05 4.358835e-05 6.392163e-27)
(5.962122e-05 5.420162e-05 4.772035e-30)
(5.525593e-05 6.363357e-05 -4.122372e-28)
(4.994896e-05 7.188624e-05 -1.054235e-31)
(5.525069e-05 6.423968e-06 -7.78983e-31)
(5.484891e-05 1.861842e-05 -5.585625e-27)
(5.389185e-05 2.994641e-05 -2.610688e-27)
(5.21699e-05 4.053369e-05 1.334865e-28)
(4.94934e-05 5.012248e-05 9.8529e-27)
(4.60131e-05 5.856333e-05 1.916726e-28)
(4.165467e-05 6.58924e-05 0)
(4.34566e-05 6.205672e-06 -4.482509e-27)
(4.350171e-05 1.784852e-05 2.205018e-27)
(4.319238e-05 2.843877e-05 2.15239e-27)
(4.224484e-05 3.813757e-05 0)
(4.03769e-05 4.679081e-05 3.898127e-27)
(3.771856e-05 5.432351e-05 1.801681e-28)
(3.421659e-05 6.081104e-05 2.003332e-28)
(3.220075e-05 6.160807e-06 0)
(3.287094e-05 1.752396e-05 1.646282e-27)
(3.328802e-05 2.755201e-05 8.842978e-28)
(3.326338e-05 3.636328e-05 -9.830826e-28)
(3.215863e-05 4.41353e-05 1.67048e-27)
(3.025216e-05 5.081672e-05 1.715898e-28)
(2.748275e-05 5.651105e-05 0)