/*--------------------------------*- C++ -*----------------------------------*\
| =========                 |                                                 |
| \\      /  F ield         | OpenFOAM: The Open Source CFD Toolbox           |
|  \\    /   O peration     | Version:  2206                                  |
|   \\  /    A nd           | Website:  www.openfoam.com                      |
|    \\/     M anipulation  |                                                 |
\*---------------------------------------------------------------------------*/
FoamFile
{
    version     2.0;
    format      ascii;
    arch        "LSB;label=32;scalar=64";
    class       volVectorField;
    location    "2.2";
    object      U.b_0;
}
// * * * * * * * * * * * * * * * * * * * * * * * * * * * * * * * * * * * * * //

dimensions      [0 1 -1 0 0 0 0];

internalField   nonuniform List<vector> 
13078
(
(-1.378242e-05 4.067855e-05 -5.959588e-27)
(-6.482699e-06 4.616701e-05 7.558728e-30)
(-5.48587e-06 3.706274e-05 3.54143e-27)
(-5.453557e-06 2.300023e-05 0)
(-5.438583e-06 1.620829e-05 7.826622e-28)
(-5.496605e-06 1.394184e-05 6.456788e-28)
(-5.593447e-06 1.266036e-05 5.504846e-28)
(1.084445e-05 3.246539e-06 0)
(4.546523e-06 4.025175e-05 -2.519537e-29)
(-1.504615e-06 3.261975e-05 0)
(-5.394864e-06 2.122255e-05 0)
(-6.212694e-06 1.627879e-05 3.319609e-30)
(-6.5484e-06 1.407327e-05 2.088561e-30)
(-6.725181e-06 1.275962e-05 4.595856e-30)
(4.962639e-05 8.355082e-06 3.35165e-27)
(1.772516e-05 2.194391e-05 -1.655726e-27)
(1.145387e-06 2.102081e-05 -9.553795e-28)
(-4.471546e-06 1.80558e-05 -1.645527e-27)
(-6.53489e-06 1.574119e-05 -7.064322e-28)
(-7.409171e-06 1.413969e-05 0)
(-7.748642e-06 1.303443e-05 3.068722e-33)
(2.34024e-05 6.203315e-06 1.412816e-27)
(9.336466e-06 1.467269e-05 -1.67398e-27)
(2.305346e-07 1.630303e-05 -7.571757e-28)
(-4.6541e-06 1.608012e-05 -6.943059e-29)
(-7.049242e-06 1.520978e-05 -6.438833e-30)
(-8.207206e-06 1.427078e-05 0)
(-8.671712e-06 1.34611e-05 -5.587923e-30)
(1.05388e-05 4.772331e-06 5.303748e-30)
(3.887748e-06 1.148752e-05 -3.467976e-28)
(-1.683439e-06 1.408462e-05 -2.465902e-28)
(-5.507329e-06 1.490799e-05 2.257783e-28)
(-7.812082e-06 1.484403e-05 4.111755e-28)
(-9.009902e-06 1.449005e-05 1.927559e-32)
(-9.533975e-06 1.400614e-05 -4.934313e-28)
(3.829518e-06 3.824709e-06 0)
(-7.639138e-09 9.542446e-06 -1.985516e-29)
(-3.836465e-06 1.254869e-05 2.713532e-29)
(-6.813657e-06 1.4069e-05 1.999102e-28)
(-8.762903e-06 1.466216e-05 -6.53229e-29)
(-9.895805e-06 1.475231e-05 5.103652e-28)
(-1.039323e-05 1.461943e-05 1.000851e-27)
(-1.201052e-06 3.176333e-06 0)
(-3.528252e-06 8.20722e-06 1.362186e-28)
(-6.130995e-06 1.141586e-05 5.97439e-28)
(-8.419682e-06 1.342938e-05 4.375487e-28)
(-9.991488e-06 1.456287e-05 3.415097e-28)
(-1.093087e-05 1.510827e-05 -6.150742e-29)
(-1.133373e-05 1.528241e-05 0)
(-5.465801e-06 2.756489e-06 -6.090255e-28)
(-6.906173e-06 7.308531e-06 3.393192e-28)
(-8.677609e-06 1.059995e-05 3.970179e-28)
(-1.030401e-05 1.297918e-05 0)
(-1.149832e-05 1.456248e-05 1.006771e-27)
(-1.220217e-05 1.553449e-05 -5.972296e-29)
(-1.244093e-05 1.60582e-05 -6.079459e-29)
(-9.37192e-06 2.504638e-06 -2.838452e-31)
(-1.026219e-05 6.763153e-06 -1.060372e-27)
(-1.142076e-05 1.010816e-05 -5.988371e-28)
(-1.251848e-05 1.276474e-05 -4.722656e-29)
(-1.331611e-05 1.472368e-05 2.41679e-27)
(-1.374022e-05 1.607733e-05 -5.89988e-29)
(-1.377083e-05 1.694929e-05 0)
(-1.314916e-05 2.372979e-06 1.432649e-27)
(-1.368586e-05 6.484289e-06 -1.439794e-27)
(-1.439047e-05 9.900211e-06 -7.318042e-28)
(-1.504375e-05 1.279654e-05 1.466859e-27)
(-1.546036e-05 1.508365e-05 1.444968e-30)
(-1.557976e-05 1.678919e-05 0)
(-1.535829e-05 1.799748e-05 0)
(-1.695302e-05 2.328039e-06 0)
(-1.724953e-05 6.419909e-06 0)
(-1.760657e-05 9.951122e-06 -1.818952e-27)
(-1.788589e-05 1.30802e-05 1.787064e-27)
(-1.794309e-05 1.567448e-05 -1.521778e-30)
(-1.774457e-05 1.77145e-05 0)
(-1.723756e-05 1.925217e-05 0)
(-2.090114e-05 2.352395e-06 0)
(-2.102234e-05 6.533715e-06 2.233362e-27)
(-2.110553e-05 1.023649e-05 -2.200553e-27)
(-2.106228e-05 1.361745e-05 -2.08592e-27)
(-2.078015e-05 1.652016e-05 2.135221e-27)
(-2.02557e-05 1.889185e-05 0)
(-1.943598e-05 2.075888e-05 -2.013724e-27)
(-2.509195e-05 2.433875e-06 0)
(-2.507768e-05 6.802246e-06 2.691128e-27)
(-2.493267e-05 1.074085e-05 3.579523e-29)
(-2.460079e-05 1.440948e-05 -2.513531e-27)
(-2.399644e-05 1.764021e-05 2.42291e-27)
(-2.313686e-05 2.035581e-05 -2.297831e-27)
(-2.197992e-05 2.256129e-05 -1.984818e-30)
(-2.961681e-05 2.565761e-06 3.190795e-27)
(-2.948985e-05 7.212386e-06 0)
(-2.914363e-05 1.145765e-05 3.763891e-29)
(-2.85383e-05 1.546005e-05 5.083394e-29)
(-2.763694e-05 1.904912e-05 5.617617e-27)
(-2.641849e-05 2.21393e-05 -2.645191e-27)
(-2.489878e-05 2.470289e-05 2.450963e-27)
(-3.456393e-05 2.74471e-06 3.720198e-27)
(-3.433692e-05 7.758434e-06 0)
(-3.380633e-05 1.239104e-05 8.038392e-29)
(-3.291398e-05 1.681083e-05 -4.14266e-27)
(-3.177625e-05 2.074296e-05 2.204739e-27)
(-3.013992e-05 2.427411e-05 0)
(-2.822704e-05 2.722953e-05 -2.7914e-27)
(-4.002224e-05 2.969614e-06 0)
(-3.969905e-05 8.436085e-06 4.226742e-27)
(-3.899323e-05 1.351764e-05 0)
(-3.789195e-05 1.835625e-05 -4.05863e-27)
(-3.637086e-05 2.281683e-05 -1.464899e-28)
(-3.434467e-05 2.680125e-05 -1.714361e-28)
(-3.200813e-05 3.018883e-05 -3.371882e-27)
(-4.608708e-05 3.243499e-06 0)
(-4.566533e-05 9.25946e-06 9.72386e-27)
(-4.477422e-05 1.488824e-05 4.782601e-29)
(-4.341386e-05 2.026403e-05 6.515686e-29)
(-4.154613e-05 2.526404e-05 0)
(-3.909709e-05 2.976503e-05 0)
(-3.629445e-05 3.36358e-05 0)
(-5.286296e-05 3.568958e-06 5.671496e-27)
(-5.233738e-05 1.023504e-05 5.588031e-27)
(-5.125165e-05 1.65051e-05 1.057369e-28)
(-4.960845e-05 2.250777e-05 7.208555e-29)
(-4.737132e-05 2.812016e-05 0)
(-4.446925e-05 3.321219e-05 4.710132e-27)
(-4.114769e-05 3.763163e-05 4.74492e-28)
(-6.046439e-05 3.949927e-06 6.485071e-27)
(-5.982609e-05 1.137609e-05 6.383391e-27)
(-5.853058e-05 1.83929e-05 1.76138e-28)
(-5.657769e-05 2.512207e-05 1.604432e-28)
(-5.392551e-05 3.142977e-05 0)
(-5.057008e-05 3.718683e-05 5.125553e-27)
(-4.664153e-05 4.224536e-05 2.659312e-28)
(-6.901888e-05 4.391896e-06 7.405358e-27)
(-6.825564e-05 1.269851e-05 1.452209e-26)
(-6.673299e-05 2.058029e-05 7.030723e-27)
(-6.444987e-05 2.816738e-05 0)
(-6.130888e-05 3.53462e-05 -1.698151e-27)
(-5.757858e-05 4.16975e-05 -2.544465e-27)
(-5.286642e-05 4.754697e-05 -5.967668e-28)
(-7.866926e-05 4.901124e-06 8.446332e-27)
(-7.776419e-05 1.422023e-05 1.651673e-26)
(-7.598768e-05 2.3086e-05 1.593724e-26)
(-7.334783e-05 3.160367e-05 7.445198e-27)
(-6.982039e-05 3.959459e-05 -2.510699e-28)
(-6.538516e-05 4.698626e-05 6.529808e-27)
(-5.99159e-05 5.362938e-05 -5.63884e-27)
(-8.957861e-05 5.487132e-06 0)
(-8.851052e-05 1.597085e-05 9.359628e-27)
(-8.6446e-05 2.597298e-05 9.02348e-27)
(-8.338838e-05 3.559015e-05 1.73849e-26)
(-7.932513e-05 4.462402e-05 0)
(-7.421244e-05 5.302355e-05 7.41764e-27)
(-6.792421e-05 6.059288e-05 -8.247226e-30)
(-0.0001019321 6.158504e-06 -1.092254e-26)
(-0.000100677 1.797641e-05 0)
(-9.828949e-05 2.927903e-05 0)
(-9.476446e-05 4.015369e-05 -2.476323e-28)
(-9.008188e-05 5.038602e-05 -9.589494e-27)
(-8.418767e-05 5.990403e-05 0)
(-7.707296e-05 6.851609e-05 7.691936e-27)
(-0.0001159389 6.925335e-06 -2.483758e-26)
(-0.0001144685 2.026609e-05 0)
(-0.0001117181 3.305217e-05 0)
(-0.0001076751 4.536776e-05 -1.093153e-26)
(-0.0001023221 5.702304e-05 -2.070804e-26)
(-9.551553e-05 6.799718e-05 9.684467e-27)
(-8.769439e-05 7.743832e-05 0)
(-0.0001318351 7.79877e-06 -1.411588e-26)
(-0.0001301158 2.287295e-05 -7.182071e-29)
(-0.0001269546 3.734307e-05 -1.346467e-26)
(-0.0001223261 5.127425e-05 -3.232898e-28)
(-0.0001162384 6.442589e-05 -4.167096e-28)
(-0.0001086773 7.665637e-05 1.102759e-26)
(-9.95535e-05 8.783727e-05 0)
(-0.0001498857 8.790924e-06 0)
(-0.0001478816 2.583535e-05 1.568395e-26)
(-0.0001442559 4.222431e-05 -1.516509e-26)
(-0.0001389641 5.801187e-05 0)
(-0.0001320133 7.294592e-05 1.267129e-26)
(-0.0001234061 8.685718e-05 -2.183656e-27)
(-0.000113021 9.96679e-05 -1.251076e-27)
(-0.0001703846 9.911741e-06 1.821892e-26)
(-0.0001680641 2.9187e-05 1.78208e-26)
(-0.000163919 4.775484e-05 -1.721125e-26)
(-0.000157892 6.56533e-05 0)
(-0.0001499823 8.261831e-05 1.037158e-27)
(-0.0001401792 9.845487e-05 1.948343e-30)
(-0.0001283717 0.0001130797 -1.417999e-27)
(-0.0001936444 1.11702e-05 2.069761e-26)
(-0.0001910016 3.294727e-05 2.022898e-26)
(-0.0001862734 5.398823e-05 -1.955812e-26)
(-0.0001794414 7.428342e-05 0)
(-0.0001704844 9.357251e-05 0)
(-0.0001594119 0.000111718 1.616995e-26)
(-0.0001460491 0.0001287998 -2.400681e-27)
(-0.0002200021 1.254828e-05 2.353368e-26)
(-0.0002170604 3.713128e-05 2.309971e-26)
(-0.0002116832 6.096975e-05 0)
(-0.0002039813 8.397136e-05 -2.012299e-26)
(-0.0001938623 0.0001058548 1.325915e-27)
(-0.0001813577 0.0001263088 3.522109e-26)
(-0.0001664757 0.0001449345 -5.410194e-27)
(-0.0002497613 1.415408e-05 2.666025e-26)
(-0.0002467379 4.161065e-05 0)
(-0.0002405801 6.868255e-05 2.562885e-26)
(-0.0002319542 9.480496e-05 -2.349041e-26)
(-0.0002205905 0.0001197499 2.263085e-26)
(-0.0002064469 0.0001432297 4.186835e-26)
(-0.0001894185 0.0001648873 1.89042e-26)
(-0.0002835916 1.567109e-05 0)
(-0.0002799732 4.665769e-05 0)
(-0.0002734073 7.708408e-05 5.725457e-26)
(-0.0002638646 0.0001067458 0)
(-0.0002512536 0.000135204 5.155856e-26)
(-0.0002355048 0.0001622154 2.388965e-26)
(-0.0002164642 0.0001875754 -2.161059e-26)
(-0.0003214774 1.752058e-05 3.439598e-26)
(-0.000317199 5.23294e-05 -3.323482e-26)
(-0.0003107829 8.573859e-05 -3.218287e-26)
(-0.0003003914 0.0001195078 0)
(-0.0002864071 0.0001520833 2.939361e-26)
(-0.0002691098 0.0001830566 0)
(-0.0002480553 0.0002121297 -1.955126e-26)
(-0.0003637034 1.928429e-05 3.87746e-26)
(-0.0003594841 5.754039e-05 -3.802658e-26)
(-0.0003520516 9.571219e-05 -1.102145e-25)
(-0.0003424261 0.0001324709 -7.174904e-26)
(-0.0003267584 0.0001700867 3.134483e-26)
(-0.0003080342 0.0002058728 -2.547645e-27)
(-0.0002848317 0.0002397751 2.962796e-27)
(-0.0004101524 2.104408e-05 -6.334627e-29)
(-0.0004059326 6.280963e-05 -1.9459e-28)
(-0.0003989351 0.0001043198 -4.309447e-26)
(-0.0003886934 0.0001462751 -7.788927e-26)
(-0.0003731444 0.0001885654 4.287824e-26)
(-0.000353347 0.0002301364 -5.683998e-27)
(-0.0003282977 0.0002700331 -1.335709e-26)
(-0.0004606517 2.26864e-05 6.806901e-29)
(-0.0004565797 6.79233e-05 2.103091e-28)
(-0.0004502321 0.0001134664 -4.581937e-26)
(-0.0004399118 0.0001604411 -2.974317e-26)
(-0.0004268484 0.0002058065 2.350328e-26)
(-0.0004065803 0.0002544488 -3.484797e-26)
(-0.0003798827 0.0003018989 0)
(-0.000514613 2.397827e-05 0)
(-0.0005109794 7.194142e-05 0)
(-0.0005059984 0.0001204874 -5.305865e-26)
(-0.0004981004 0.0001707629 -5.583119e-26)
(-0.0004852594 0.0002238851 -7.471909e-26)
(-0.0004697543 0.0002763141 -7.235494e-26)
(-0.0004412847 0.0003338076 0)
(-0.0005709839 2.474719e-05 1.477217e-28)
(-0.0005680775 7.440562e-05 -4.424754e-28)
(-0.0005649639 0.0001250979 -1.542227e-27)
(-0.0005600875 0.0001781389 0)
(-0.0005515761 0.000234502 -1.136226e-25)
(-0.0005388081 0.0002961198 7.219623e-27)
(-0.0005147305 0.0003631291 1.786936e-26)
(-0.000628203 2.471542e-05 6.660066e-26)
(-0.0006263656 7.454392e-05 -4.626943e-28)
(-0.0006258998 0.000126134 6.558283e-26)
(-0.0006251999 0.0001813979 0)
(-0.0006223006 0.0002423774 -7.010877e-26)
(-0.0006142495 0.0003119567 -1.701709e-26)
(-0.0006037995 0.0003853073 8.710408e-26)
(-0.0006840663 2.361758e-05 7.256895e-26)
(-0.000684006 7.159863e-05 7.172969e-26)
(-0.0006869659 0.0001224376 7.208912e-26)
(-0.0006916308 0.0001779954 4.32674e-27)
(-0.0006963049 0.0002405232 1.178919e-26)
(-0.0006984612 0.0003122043 -4.863254e-26)
(-0.0006984779 0.0003988269 3.923603e-26)
(-0.0007361343 2.160737e-05 0)
(-0.0007387313 6.515627e-05 -7.692985e-26)
(-0.0007459789 0.0001134634 -7.825798e-26)
(-0.0007565012 0.0001676718 -2.067085e-27)
(-0.0007696954 0.0002303283 8.538293e-26)
(-0.0007833233 0.0003051003 7.591222e-27)
(-0.0007942476 0.000398701 0)
(-0.0007826524 1.829445e-05 -8.336405e-26)
(-0.0007870239 5.675489e-05 -1.643574e-25)
(-0.0007998446 9.873293e-05 -8.009943e-26)
(-0.0008168545 0.000149419 -1.705043e-25)
(-0.0008384267 0.0002090804 9.22805e-26)
(-0.0008635202 0.0002817936 -8.181556e-26)
(-0.0008781467 0.0003791356 1.080339e-25)
(-0.0008203014 1.421056e-05 -8.739396e-26)
(-0.0008282176 4.481972e-05 2.795531e-28)
(-0.0008432587 8.085583e-05 0)
(-0.0008685385 0.0001231095 -1.717005e-27)
(-0.0008971301 0.0001786797 -1.861531e-25)
(-0.0009201922 0.0002593963 -8.805027e-26)
(-0.0008984645 0.0004014535 9.976025e-26)
(-0.0008467936 9.484768e-06 9.037975e-26)
(-0.0008584423 3.105353e-05 -3.533609e-28)
(-0.0008769809 5.824505e-05 -7.46749e-28)
(-0.0009032566 9.366356e-05 1.936344e-25)
(-0.0009333889 0.0001499946 -3.727323e-25)
(-0.0009296162 0.0002694041 1.962694e-30)
(-0.0008736361 0.0004125279 5.251919e-29)
(-0.0008599757 4.359416e-06 9.195773e-26)
(-0.0008758752 1.594089e-05 0)
(-0.0008960846 3.440475e-05 -8.741928e-28)
(-0.0009203537 6.666805e-05 -9.888731e-26)
(-0.000925832 0.0001526628 -1.860498e-25)
(-0.0008931082 0.0002791928 2.164453e-26)
(-0.0008180452 0.0004096763 -1.182513e-25)
(-0.0008582682 -9.725751e-07 0)
(-0.0008779546 5.925152e-07 3.151503e-29)
(-0.0008973531 1.338904e-05 -9.571046e-28)
(-0.0009098312 6.251872e-05 -1.927073e-25)
(-0.000882152 0.0001663231 8.609087e-26)
(-0.0008187278 0.0002827972 1.145516e-25)
(-0.0007632587 0.000370975 -8.394028e-26)
(-0.0008406181 -6.155172e-06 0)
(-0.0008610369 -1.384554e-05 9.238197e-26)
(-0.0008729984 3.721399e-06 -5.94844e-30)
(-0.000863991 7.5719e-05 -2.623902e-25)
(-0.0008102846 0.000178323 5.094231e-26)
(-0.0007372217 0.000268944 -1.146871e-25)
(-0.0007158634 0.0003101403 -1.297218e-27)
(-0.0008059101 -1.039612e-05 8.692957e-26)
(-0.0008222088 -2.110061e-05 8.801358e-26)
(-0.0008196561 9.797791e-06 1.787984e-28)
(-0.0007826783 9.372643e-05 -1.808738e-25)
(-0.000716438 0.0001783755 5.006144e-26)
(-0.0006679858 0.000241919 2.826299e-31)
(-0.0006707802 0.0002236287 -6.38756e-26)
(-0.0007543398 -1.138582e-05 1.629444e-25)
(-0.0007624151 -1.386708e-05 1.432968e-29)
(-0.0007415736 3.379349e-05 2.455116e-29)
(-0.0006805032 0.0001132125 -6.507915e-31)
(-0.0006187799 0.0001862947 3.522366e-26)
(-0.0005926361 0.0002059246 1.846278e-25)
(-0.0006105328 0.0001531948 2.067826e-25)
(-0.0006894285 -6.261321e-06 7.45819e-26)
(-0.0006864369 6.647047e-06 -2.956426e-28)
(-0.0006485602 6.509133e-05 -6.424316e-26)
(-0.0005834797 0.0001428542 -2.771166e-26)
(-0.0005340067 0.000193438 -1.578517e-25)
(-0.0005211141 0.0001767811 4.90484e-26)
(-0.0005344889 9.479542e-05 1.071676e-25)
(-0.0006146999 5.120049e-06 -7.843471e-29)
(-0.0005994247 3.501369e-05 -7.057256e-28)
(-0.0005518079 0.0001004601 -5.257925e-26)
(-0.0004952757 0.0001743134 3.48716e-30)
(-0.0004664522 0.0002049346 -7.625939e-26)
(-0.0004652265 0.0001698078 -5.166237e-26)
(-0.0004674367 8.367492e-05 -1.335764e-25)
(-0.0005354713 2.098151e-05 -4.785176e-30)
(-0.0005113213 6.678448e-05 -1.031735e-30)
(-0.0004624361 0.000136092 -2.844071e-30)
(-0.0004204379 0.000204996 5.730343e-34)
(-0.0004078107 0.0002194769 5.863859e-32)
(-0.0004128106 0.0001771418 -2.288686e-26)
(-0.0004130085 9.684741e-05 3.844955e-26)
(-0.000458718 3.602312e-05 2.468101e-26)
(-0.000434904 9.717781e-05 2.250337e-26)
(-0.0003957328 0.0001791878 1.806552e-33)
(-0.0003726165 0.0002370405 -3.009674e-26)
(-0.0003701502 0.0002439626 -1.131909e-29)
(-0.0003739862 0.0002088681 -2.155033e-26)
(-0.000369522 0.0001411669 -6.693591e-27)
(-0.0003872128 4.410455e-05 4.189919e-26)
(-0.0003718541 0.000114378 2.111735e-26)
(-0.0003512243 0.0001975054 -4.124601e-30)
(-0.0003474679 0.0002578884 -2.947149e-26)
(-0.0003541769 0.0002714677 4.9716e-26)
(-0.0003580509 0.0002512995 5.648983e-26)
(-0.0003519582 0.0002097705 -7.039655e-27)
(-0.0003171248 4.592342e-05 2.818035e-28)
(-0.000312775 0.0001196481 2.967595e-27)
(-0.0003110546 0.0002057061 -4.180991e-27)
(-0.0003219554 0.0002689437 1.04149e-26)
(-0.000339273 0.0002947051 1.490296e-26)
(-0.0003473389 0.0002847116 -8.454033e-31)
(-0.0003420181 0.0002759724 -5.450199e-26)
(-0.0002466905 4.337945e-05 -1.279172e-26)
(-0.0002544695 0.0001141563 3.882668e-27)
(-0.0002708913 0.0001991692 -6.096393e-27)
(-0.0002952599 0.0002649195 -7.302973e-30)
(-0.0003180957 0.0002937009 -2.520973e-26)
(-0.0003323919 0.0003074618 -2.910287e-26)
(-0.0003322416 0.0003310885 -5.653028e-26)
(-0.0001741717 3.468014e-05 4.71878e-28)
(-0.000195603 9.383961e-05 4.566694e-28)
(-0.0002304054 0.0001736433 -6.744612e-27)
(-0.0002686131 0.0002419302 9.699581e-27)
(-0.0003001108 0.0002814513 9.622133e-27)
(-0.0003218301 0.0003168246 5.8012e-26)
(-0.000331478 0.0003687987 1.059265e-25)
(-9.328211e-05 1.988207e-05 6.56456e-28)
(-0.0001226774 6.110112e-05 5.206296e-27)
(-0.0001724043 0.0001320943 -1.077848e-26)
(-0.0002238691 0.0002023803 -8.9452e-27)
(-0.0002662232 0.0002527827 2.305546e-26)
(-0.0002987903 0.000303187 5.676376e-26)
(-0.0003247441 0.0003731372 -1.067872e-29)
(-1.514404e-06 4.224066e-06 2.32506e-30)
(-3.191067e-05 2.399899e-05 2.515193e-27)
(-9.194589e-05 8.225207e-05 6.964198e-27)
(-0.0001571001 0.0001514854 -7.907823e-27)
(-0.0002113473 0.0002082768 -6.632807e-27)
(-0.0002564135 0.0002648896 2.674922e-26)
(-0.0002993955 0.0003392881 -1.176052e-30)
(9.461566e-05 -1.174586e-05 -6.164033e-27)
(6.737399e-05 -1.5256e-05 -4.294934e-27)
(2.894322e-06 2.59168e-05 -3.420935e-27)
(-7.546104e-05 9.089825e-05 -6.590906e-27)
(-0.0001424697 0.0001530191 1.412903e-26)
(-0.0001983083 0.0002122845 5.627521e-26)
(-0.0002510243 0.0002856048 9.354929e-26)
(0.0001972295 -2.689257e-05 -2.356978e-26)
(0.0001783023 -5.544179e-05 -2.096072e-26)
(0.0001189546 -3.284015e-05 -1.355575e-26)
(3.707612e-05 2.5004e-05 -1.018966e-26)
(-3.887149e-05 9.28159e-05 1.122792e-30)
(-0.0001003606 0.0001585413 -4.854773e-27)
(-0.0001561359 0.0002314553 -8.362139e-26)
(0.0003100519 -3.736029e-05 -1.743383e-26)
(0.0003049119 -9.018377e-05 6.931469e-28)
(0.0002689455 -8.497851e-05 -1.475913e-26)
(0.0001953502 -3.437487e-05 1.783639e-26)
(0.0001148306 3.915539e-05 -5.30983e-29)
(4.654069e-05 0.0001122514 3.045958e-27)
(-1.929466e-05 0.0001788463 -4.89694e-26)
(0.0004295701 -4.105816e-05 1.090059e-27)
(0.0004369261 -0.0001051114 2.675314e-26)
(0.000421281 -0.0001166211 6.151019e-30)
(0.0003633939 -8.090281e-05 4.113784e-26)
(0.0002806954 -1.203145e-05 -1.067434e-26)
(0.0002073565 6.802351e-05 -4.944451e-26)
(0.000143788 0.0001381767 -1.072171e-29)
(0.0005433785 -3.772892e-05 1.770784e-31)
(0.0005567823 -0.0001082218 -4.40308e-30)
(0.0005569314 -0.0001417666 -2.383272e-27)
(0.0005192329 -0.0001143629 1.09231e-27)
(0.0004457791 -4.619777e-05 5.893645e-26)
(0.000372785 4.81229e-05 3.029426e-26)
(0.0003181158 0.0001333 6.306289e-26)
(0.0006461792 -3.428603e-05 -7.115988e-26)
(0.0006621419 -0.000102384 -5.855632e-28)
(0.0006764301 -0.0001479971 3.178034e-27)
(0.0006681585 -0.0001307621 1.017734e-27)
(0.0006165183 -6.125847e-05 6.269926e-26)
(0.0005468684 4.42453e-05 -5.09176e-26)
(0.0004997172 0.0001482532 4.386015e-26)
(0.0007349398 -2.948018e-05 3.77925e-30)
(0.0007535269 -8.813716e-05 8.246625e-26)
(0.0007776934 -0.0001350773 4.24681e-32)
(0.0007977325 -0.0001307796 8.643285e-26)
(0.0007785316 -5.626436e-05 1.587948e-25)
(0.0007148284 5.06249e-05 -6.88778e-26)
(0.0006654737 0.0001712679 -1.720259e-25)
(0.0008053238 -2.280829e-05 8.695281e-26)
(0.0008263561 -6.791446e-05 8.932955e-26)
(0.0008548266 -0.000106074 9.021223e-26)
(0.0008938549 -0.0001152886 -8.606417e-26)
(0.0009068187 -5.082843e-05 1.903381e-25)
(0.0008648718 5.951503e-05 1.001299e-25)
(0.000810437 0.000199511 9.716771e-29)
(0.0008557261 -1.545009e-05 0)
(0.0008773933 -4.590001e-05 -2.250775e-30)
(0.0009074539 -7.072342e-05 9.794981e-26)
(0.0009543721 -8.153342e-05 -2.007493e-25)
(0.0009945676 -3.735686e-05 1.063753e-25)
(0.0009882312 7.674125e-05 1.152602e-28)
(0.0009392114 0.0002313878 -9.940571e-26)
(0.00088623 -8.29296e-06 0)
(0.0009061684 -2.240014e-05 -7.023681e-28)
(0.0009368726 -3.217348e-05 -1.774909e-27)
(0.0009840515 -3.373503e-05 -1.060644e-25)
(0.001040562 -6.912518e-06 2.208881e-25)
(0.001072939 9.954706e-05 -1.109143e-25)
(0.001053109 0.0002477692 4.193263e-26)
(0.0008977119 -8.217293e-07 9.566762e-26)
(0.0009138908 -1.088667e-07 0)
(0.0009427313 6.000649e-06 0)
(0.000986907 1.939261e-05 -1.048611e-25)
(0.001045376 4.759918e-05 1.104006e-25)
(0.001106903 0.0001224032 7.056988e-30)
(0.001122634 0.0002786359 1.449749e-28)
(0.0008910272 6.240035e-06 9.465074e-26)
(0.0009031265 2.088237e-05 2.044974e-28)
(0.0009281362 4.099516e-05 4.850203e-28)
(0.0009664995 6.91999e-05 3.354238e-27)
(0.001021265 0.0001095394 7.646007e-27)
(0.001082809 0.0001725453 3.329132e-32)
(0.001131776 0.0002953407 -1.113378e-29)
(0.0008683287 1.251744e-05 0)
(0.0008766178 3.935357e-05 -9.274475e-26)
(0.0008965274 7.150461e-05 0)
(0.0009293221 0.0001113516 2.513902e-27)
(0.0009700233 0.0001649621 3.929853e-27)
(0.001020106 0.0002351725 -1.84179e-30)
(0.001078595 0.0003302973 1.266166e-25)
(0.0008322835 1.774097e-05 0)
(0.0008370694 5.468909e-05 8.786102e-26)
(0.0008526948 9.538265e-05 -8.950079e-26)
(0.0008749439 0.0001452909 0)
(0.0009034992 0.0002065151 9.356536e-27)
(0.0009394771 0.0002820747 -6.998893e-26)
(0.0009760078 0.0003806227 1.365402e-25)
(0.000785822 2.178203e-05 0)
(0.000788649 6.560725e-05 2.483638e-25)
(0.0007976989 0.0001138627 8.869625e-29)
(0.0008113775 0.0001689414 1.761385e-25)
(0.000829383 0.0002329291 1.096719e-26)
(0.0008469091 0.0003120896 -8.68722e-26)
(0.000861254 0.0004110117 6.718768e-26)
(0.0007326056 2.42504e-05 -7.723416e-26)
(0.0007330005 7.332253e-05 7.774491e-26)
(0.0007371488 0.0001250724 -1.378961e-29)
(0.0007441134 0.0001821029 1.515992e-25)
(0.0007507076 0.0002468674 0)
(0.0007549672 0.0003212382 0)
(0.0007568693 0.0004104446 1.274916e-25)
(0.0006751112 2.557402e-05 -7.095364e-26)
(0.000673694 7.715776e-05 7.107978e-26)
(0.0006740217 0.0001306611 -7.020142e-26)
(0.0006751021 0.0001874716 -6.988018e-26)
(0.0006731063 0.0002510601 0)
(0.0006665095 0.0003229008 0)
(0.0006588544 0.0003986982 8.074782e-26)
(0.0006159212 2.582545e-05 6.4868e-26)
(0.0006131965 7.77754e-05 6.598806e-26)
(0.0006109372 0.0001304518 1.562747e-27)
(0.0006067186 0.0001863862 -6.037809e-26)
(0.0005987631 0.0002463766 -1.644756e-26)
(0.0005879738 0.0003092432 9.607067e-26)
(0.0005667397 0.0003799049 -4.712199e-26)
(0.0005572997 2.519149e-05 5.881799e-26)
(0.0005539111 7.564635e-05 4.680322e-28)
(0.0005492502 0.0001267885 -1.548525e-27)
(0.0005418444 0.0001796624 -2.215024e-27)
(0.0005305155 0.0002354328 0)
(0.0005145651 0.0002927206 5.753272e-26)
(0.0004893591 0.0003536928 -4.89004e-26)
(0.0005007623 2.414154e-05 0)
(0.0004969547 7.207721e-05 8.764655e-28)
(0.0004907143 0.0001206043 1.488778e-27)
(0.0004807523 0.0001706913 -1.124038e-25)
(0.0004686937 0.000219558 -1.976929e-26)
(0.0004484354 0.0002722152 -8.342867e-26)
(0.0004232493 0.0003240807 -3.404788e-26)
(0.000447503 2.257709e-05 1.354495e-28)
(0.0004433296 6.744098e-05 4.17711e-28)
(0.0004363704 0.0001121044 0)
(0.0004263209 0.0001574129 1.171308e-28)
(0.0004109527 0.0002034273 -4.170342e-26)
(0.0003912342 0.0002490791 -3.926922e-26)
(0.0003664775 0.0002936701 7.264529e-27)
(0.0003980274 2.090743e-05 -4.185088e-26)
(0.0003937375 6.242784e-05 4.208382e-26)
(0.0003861789 0.0001039482 -7.362908e-26)
(0.0003765454 0.000144131 8.456828e-26)
(0.0003605771 0.0001855465 -3.421318e-26)
(0.0003415058 0.0002254182 0)
(0.0003177526 0.0002638961 -6.530829e-27)
(0.0003525924 1.917205e-05 -3.724705e-26)
(0.0003481429 5.733697e-05 3.600317e-26)
(0.000341558 9.408384e-05 -3.491315e-26)
(0.0003307788 0.0001313924 0)
(0.0003162269 0.0001676647 3.206741e-26)
(0.0002981497 0.0002025737 0)
(0.0002759508 0.0002359081 -2.733095e-26)
(0.0003114223 1.730176e-05 0)
(0.0003076174 5.159837e-05 0)
(0.0003007036 8.538227e-05 6.212195e-26)
(0.000290598 0.000118471 0)
(0.0002771813 0.0001504662 5.615457e-26)
(0.0002603163 0.0001811754 2.609064e-26)
(0.0002397159 0.0002104331 -2.367125e-26)
(0.0002743074 1.574656e-05 2.889008e-26)
(0.0002710881 4.638425e-05 0)
(0.0002644815 7.669963e-05 2.684245e-26)
(0.0002551671 0.0001060895 -2.678757e-26)
(0.0002428232 0.0001343561 2.457805e-26)
(0.0002273525 0.0001612221 4.552334e-26)
(0.0002085334 0.0001863166 2.056816e-26)
(0.0002413778 1.405714e-05 2.538739e-26)
(0.000238184 4.168391e-05 2.473565e-26)
(0.0002323235 6.857357e-05 0)
(0.000223857 9.463466e-05 -2.407908e-26)
(0.0002126653 0.0001195855 -1.487557e-27)
(0.000198745 0.0001430924 4.156812e-26)
(0.0001820206 0.0001647027 6.117166e-27)
(0.0002119806 1.258324e-05 2.234992e-26)
(0.0002090696 3.720411e-05 2.182684e-26)
(0.0002038356 6.108651e-05 -2.109096e-26)
(0.0001962029 8.421527e-05 0)
(0.0001861398 0.0001063184 0)
(0.0001736291 0.0001272489 1.737167e-26)
(0.0001583944 0.0001471147 -2.934545e-26)
(0.0001858622 1.121623e-05 1.960465e-26)
(0.0001832693 3.311668e-05 1.915561e-26)
(0.0001786131 5.43e-05 -1.847942e-26)
(0.0001717819 7.479369e-05 0)
(0.0001627721 9.431242e-05 -1.172424e-27)
(0.0001515518 0.0001126366 -2.082328e-30)
(0.0001379482 0.0001296782 1.610191e-27)
(0.0001627108 9.982528e-06 0)
(0.0001604385 2.942449e-05 1.67739e-26)
(0.0001563096 4.819884e-05 -1.619273e-26)
(0.0001502334 6.634358e-05 0)
(0.000142219 8.358131e-05 1.546876e-26)
(0.0001322571 9.97175e-05 2.479547e-27)
(0.0001201931 0.0001146659 1.423753e-27)
(0.0001422265 8.877918e-06 -1.50279e-26)
(0.0001402473 2.612361e-05 8.108276e-29)
(0.0001366005 4.275257e-05 -1.401985e-26)
(0.0001312229 5.881027e-05 3.663175e-28)
(0.0001241271 7.402899e-05 4.49998e-28)
(0.0001152869 8.824709e-05 1.15343e-26)
(0.0001046104 0.0001013206 0)
(0.0001241177 7.895841e-06 -2.624864e-26)
(0.0001223971 2.319017e-05 0)
(0.0001191846 3.791854e-05 0)
(0.0001144355 5.214485e-05 -1.207889e-26)
(0.0001081346 6.565815e-05 -2.236274e-26)
(0.0001001035 7.843583e-05 1.000862e-26)
(9.088834e-05 8.948627e-05 0)
(0.000108114 7.026337e-06 -1.14417e-26)
(0.0001066186 2.059199e-05 6.399916e-29)
(0.0001037949 3.363299e-05 1.052414e-28)
(9.961021e-05 4.621549e-05 2.955251e-28)
(9.404611e-05 5.810021e-05 -9.184377e-27)
(8.703324e-05 6.920448e-05 0)
(7.86001e-05 7.929736e-05 7.739214e-27)
(9.396874e-05 6.259529e-06 9.758515e-30)
(9.266959e-05 1.829979e-05 9.813768e-27)
(9.01951e-05 2.985159e-05 9.471181e-27)
(8.652488e-05 4.099145e-05 1.780335e-26)
(8.164936e-05 5.149838e-05 0)
(7.552054e-05 6.13128e-05 7.4369e-27)
(6.8023e-05 7.020137e-05 -9.352585e-30)
(8.145926e-05 5.585744e-06 8.63271e-27)
(8.033099e-05 1.628574e-05 1.690831e-26)
(7.816951e-05 2.652828e-05 1.635289e-26)
(7.496157e-05 3.639999e-05 7.945763e-27)
(7.068404e-05 4.57041e-05 2.853681e-28)
(6.532484e-05 5.435567e-05 6.429824e-27)
(5.875741e-05 6.217817e-05 -6.173414e-27)
(7.038535e-05 4.996412e-06 7.475375e-27)
(6.940499e-05 1.452376e-05 1.460628e-26)
(6.751929e-05 2.362595e-05 7.03392e-27)
(6.470563e-05 3.241912e-05 0)
(6.085455e-05 4.078333e-05 1.942498e-27)
(5.629757e-05 4.823041e-05 2.912844e-27)
(5.058916e-05 5.514236e-05 6.822527e-28)
(6.056896e-05 4.481339e-06 6.450838e-27)
(5.971742e-05 1.298219e-05 6.272118e-27)
(5.807687e-05 2.10765e-05 -1.98397e-28)
(5.562677e-05 2.887203e-05 -1.812249e-28)
(5.232231e-05 3.622665e-05 0)
(4.818059e-05 4.298844e-05 4.835159e-27)
(4.336311e-05 4.898703e-05 -3.036821e-28)
(5.185294e-05 4.033644e-06 5.532077e-27)
(5.11158e-05 1.164128e-05 5.378975e-27)
(4.969906e-05 1.885929e-05 -1.186537e-28)
(4.758727e-05 2.580453e-05 -8.115354e-29)
(4.474555e-05 3.234828e-05 0)
(4.110994e-05 3.833897e-05 3.884964e-27)
(3.697395e-05 4.360082e-05 -5.409741e-28)
(4.409669e-05 3.646838e-06 -5.767828e-30)
(4.34625e-05 1.048224e-05 9.178705e-27)
(4.224957e-05 1.694083e-05 -5.34011e-29)
(4.044233e-05 2.314746e-05 -7.300928e-29)
(3.800657e-05 2.897443e-05 0)
(3.487305e-05 3.427853e-05 0)
(3.131603e-05 3.890742e-05 0)
(3.717422e-05 3.315885e-06 0)
(3.663484e-05 9.488605e-06 3.883993e-27)
(3.561109e-05 1.529148e-05 0)
(3.407653e-05 2.086039e-05 -3.3987e-27)
(3.201576e-05 2.60538e-05 1.64011e-28)
(2.934584e-05 3.075743e-05 1.92935e-28)
(2.630477e-05 3.482946e-05 -2.384595e-27)
(3.097143e-05 3.03694e-06 3.32862e-27)
(3.052071e-05 8.650785e-06 0)
(2.966884e-05 1.390607e-05 -8.833096e-29)
(2.834207e-05 1.897124e-05 -2.125043e-27)
(2.669017e-05 2.354159e-05 3.88648e-27)
(2.444399e-05 2.772133e-05 0)
(2.186832e-05 3.129839e-05 -2.156343e-27)
(2.538576e-05 2.805277e-06 2.740192e-27)
(2.502261e-05 7.94954e-06 0)
(2.434454e-05 1.272292e-05 -4.081785e-29)
(2.330506e-05 1.728488e-05 -5.546153e-29)
(2.188643e-05 2.145265e-05 4.459789e-27)
(2.009226e-05 2.512312e-05 -2.01586e-27)
(1.794535e-05 2.825384e-05 1.765771e-27)
(2.032391e-05 2.620149e-06 0)
(2.005406e-05 7.384809e-06 2.12634e-27)
(1.955711e-05 1.176326e-05 -3.817451e-29)
(1.878014e-05 1.591814e-05 -1.928853e-27)
(1.765666e-05 1.966751e-05 1.794274e-27)
(1.623886e-05 2.291252e-05 -1.620238e-27)
(1.44842e-05 2.564257e-05 -2.164954e-30)
(1.569646e-05 2.482293e-06 0)
(1.553208e-05 6.955812e-06 1.674209e-27)
(1.522918e-05 1.101471e-05 -1.611724e-27)
(1.471605e-05 1.481878e-05 -1.552807e-27)
(1.390638e-05 1.819262e-05 1.347106e-27)
(1.283388e-05 2.105645e-05 -1.368099e-28)
(1.144277e-05 2.341607e-05 -1.103875e-27)
(1.141674e-05 2.394786e-06 0)
(1.137827e-05 6.667348e-06 0)
(1.129614e-05 1.047574e-05 -1.195241e-27)
(1.106584e-05 1.397815e-05 1.121666e-27)
(1.057896e-05 1.701183e-05 -1.564065e-30)
(9.838822e-06 1.952089e-05 0)
(8.786122e-06 2.152987e-05 0)
(7.394634e-06 2.361723e-06 8.462946e-28)
(7.519989e-06 6.530022e-06 -8.273924e-28)
(7.70266e-06 1.015422e-05 -3.713588e-28)
(7.789691e-06 1.339195e-05 8.153069e-28)
(7.639294e-06 1.610595e-05 1.452516e-30)
(7.223643e-06 1.827276e-05 -1.237613e-28)
(6.484847e-06 1.994111e-05 -1.386226e-32)
(3.5311e-06 2.395862e-06 -2.448744e-31)
(3.887217e-06 6.566198e-06 -4.372796e-28)
(4.404599e-06 1.006403e-05 -1.906809e-28)
(4.857413e-06 1.305896e-05 4.609869e-29)
(5.062883e-06 1.545529e-05 9.680907e-28)
(4.964285e-06 1.727784e-05 6.031168e-29)
(4.512668e-06 1.860634e-05 0)