/*--------------------------------*- C++ -*----------------------------------*\
| =========                 |                                                 |
| \\      /  F ield         | OpenFOAM: The Open Source CFD Toolbox           |
|  \\    /   O peration     | Version:  2206                                  |
|   \\  /    A nd           | Website:  www.openfoam.com                      |
|    \\/     M anipulation  |                                                 |
\*---------------------------------------------------------------------------*/
FoamFile
{
    version     2.0;
    format      ascii;
    arch        "LSB;label=32;scalar=64";
    class       surfaceVectorField;
    location    "2.2";
    object      Ufa;
}
// * * * * * * * * * * * * * * * * * * * * * * * * * * * * * * * * * * * * * //

dimensions      [0 1 -1 0 0 0 0];

internalField   nonuniform List<vector> 
26037
(
(1.156317e-05 -0.0001137925 1.972563e-23)
(-1.749583e-05 -0.0001107702 1.719835e-27)
(1.724848e-06 -5.067004e-05 -3.705535e-25)
(-1.228597e-05 -5.534421e-05 1.59799e-26)
(1.331302e-07 -2.769742e-05 -3.165851e-29)
(-4.38832e-06 -3.044455e-05 -3.17304e-29)
(-1.207421e-07 -1.785932e-05 -5.792027e-30)
(-1.969861e-06 -1.955267e-05 0)
(-1.999599e-07 -1.338566e-05 2.185924e-27)
(-1.156179e-06 -1.470134e-05 -5.789808e-30)
(-2.453478e-07 -1.043906e-05 -1.124088e-29)
(-7.979738e-07 -1.150038e-05 -4.081426e-30)
(-6.256672e-07 -9.067674e-06 -5.616545e-30)
(-2.763856e-07 -8.1744e-06 1.300954e-28)
(-4.225426e-05 -5.105057e-05 -1.809004e-32)
(-3.649133e-05 -3.545884e-05 1.857818e-31)
(-1.861687e-05 -3.509258e-05 -1.826391e-32)
(-2.113445e-05 -3.132548e-05 3.714802e-31)
(-6.489578e-06 -2.228037e-05 0)
(-8.791857e-06 -2.166269e-05 6.614524e-30)
(-3.005243e-06 -1.639537e-05 1.526441e-33)
(-4.45828e-06 -1.662996e-05 1.131892e-29)
(-1.754199e-06 -1.28163e-05 2.307583e-33)
(-2.651951e-06 -1.332692e-05 4.579142e-29)
(-1.178315e-06 -1.012904e-05 2.348087e-33)
(-1.748406e-06 -1.071769e-05 7.816225e-34)
(-1.262892e-06 -8.585297e-06 7.489141e-30)
(-8.84809e-07 -7.988308e-06 -5.60794e-30)
(-1.550262e-05 -1.554771e-05 5.779475e-31)
(-1.081326e-05 -8.479491e-06 2.054087e-25)
(-1.135907e-05 -1.784204e-05 7.001538e-30)
(-1.058535e-05 -1.383375e-05 -5.262232e-26)
(-6.744562e-06 -1.596322e-05 4.196633e-28)
(-7.300794e-06 -1.416248e-05 8.273704e-30)
(-4.1048e-06 -1.356077e-05 -6.175786e-28)
(-4.820197e-06 -1.291691e-05 1.232677e-29)
(-2.646312e-06 -1.12284e-05 5.631447e-30)
(-3.237197e-06 -1.112886e-05 -5.740424e-29)
(-1.83305e-06 -9.173954e-06 -3.195107e-35)
(-2.276452e-06 -9.350529e-06 0)
(-1.689925e-06 -7.690041e-06 -9.354772e-30)
(-1.363678e-06 -7.374143e-06 5.602398e-30)
(-5.884719e-06 -6.754045e-06 6.109482e-31)
(-3.340021e-06 -3.330143e-06 -4.353103e-31)
(-6.544703e-06 -1.01287e-05 2.465281e-30)
(-5.360888e-06 -7.234039e-06 -1.043073e-26)
(-5.358385e-06 -1.107467e-05 1.790207e-28)
(-5.113132e-06 -9.202938e-06 -9.235466e-28)
(-3.951206e-06 -1.047014e-05 9.219908e-31)
(-4.117247e-06 -9.469388e-06 1.455069e-27)
(-2.867454e-06 -9.250907e-06 -5.307794e-33)
(-3.1488e-06 -8.818283e-06 -7.000339e-30)
(-2.133396e-06 -7.866555e-06 -2.66954e-33)
(-2.407492e-06 -7.764456e-06 6.322311e-38)
(-1.885772e-06 -6.575488e-06 5.613463e-30)
(-1.650559e-06 -6.475878e-06 -5.602176e-30)
(-2.8137e-06 -3.806876e-06 -9.948198e-29)
(-1.344992e-06 -1.852545e-06 -1.470698e-31)
(-3.930882e-06 -6.292367e-06 -2.301696e-28)
(-2.94238e-06 -4.344053e-06 3.746839e-31)
(-3.865149e-06 -7.586935e-06 1.56584e-30)
(-3.395713e-06 -6.064066e-06 6.458244e-31)
(-3.310968e-06 -7.797733e-06 -1.981295e-28)
(-3.181937e-06 -6.776812e-06 7.802868e-28)
(-2.688071e-06 -7.323589e-06 -1.032919e-27)
(-2.741544e-06 -6.747005e-06 -9.681962e-28)
(-2.159932e-06 -6.473257e-06 6.756308e-28)
(-2.285717e-06 -6.224086e-06 -5.637206e-30)
(-1.902585e-06 -5.411041e-06 1.729714e-29)
(-1.761754e-06 -5.45029e-06 5.616121e-30)
(-1.472551e-06 -2.388002e-06 3.662257e-31)
(-6.320015e-07 -1.220982e-06 0)
(-2.403634e-06 -4.101838e-06 1.621306e-28)
(-1.691122e-06 -2.801956e-06 1.141001e-30)
(-2.711544e-06 -5.256386e-06 -2.606416e-28)
(-2.247982e-06 -4.112992e-06 -5.443926e-30)
(-2.610946e-06 -5.718887e-06 1.934227e-28)
(-2.374333e-06 -4.850786e-06 -5.113399e-30)
(-2.337279e-06 -5.635493e-06 -4.944699e-30)
(-2.257254e-06 -5.05039e-06 1.055665e-27)
(-2.027845e-06 -5.156569e-06 -1.045649e-27)
(-2.043734e-06 -4.837989e-06 -5.011326e-30)
(-1.811967e-06 -4.306831e-06 -1.129872e-29)
(-1.749251e-06 -4.417656e-06 -8.335565e-28)
(-8.499548e-07 -1.634057e-06 7.741784e-31)
(-3.493581e-07 -9.019142e-07 -1.424673e-30)
(-1.531511e-06 -2.803432e-06 -4.27601e-30)
(-1.04016e-06 -1.924974e-06 3.038953e-28)
(-1.909093e-06 -3.704436e-06 -1.732503e-27)
(-1.524061e-06 -2.872918e-06 5.53872e-28)
(-2.019516e-06 -4.179989e-06 -4.32994e-30)
(-1.76839e-06 -3.492041e-06 -5.841451e-30)
(-1.962975e-06 -4.248121e-06 1.565962e-28)
(-1.827225e-06 -3.743059e-06 3.197571e-30)
(-1.826778e-06 -3.980212e-06 7.15163e-31)
(-1.774722e-06 -3.656233e-06 1.428013e-30)
(-1.671956e-06 -3.297508e-06 7.039103e-31)
(-1.667491e-06 -3.446436e-06 8.630095e-33)
(-5.393704e-07 -1.192616e-06 -5.576353e-31)
(-2.228367e-07 -7.167583e-07 -1.150266e-27)
(-1.032113e-06 -1.992584e-06 1.7347e-30)
(-6.911066e-07 -1.387404e-06 -1.099219e-30)
(-1.382879e-06 -2.658502e-06 8.760162e-31)
(-1.081313e-06 -2.063347e-06 6.259169e-31)
(-1.57689e-06 -3.05685e-06 1.724922e-30)
(-1.348065e-06 -2.534424e-06 7.30691e-31)
(-1.639119e-06 -3.151056e-06 2.42624e-30)
(-1.489069e-06 -2.746728e-06 2.809475e-27)
(-1.619585e-06 -2.970329e-06 1.488522e-28)
(-1.535568e-06 -2.693226e-06 1.425525e-30)
(-1.524384e-06 -2.404915e-06 7.087772e-31)
(-1.557552e-06 -2.558429e-06 -4.888678e-30)
(-3.745373e-07 -9.115826e-07 -1.949788e-30)
(-1.607908e-07 -5.976985e-07 2.098302e-27)
(-7.401105e-07 -1.457429e-06 -2.208666e-30)
(-4.978166e-07 -1.033113e-06 -2.890539e-27)
(-1.043892e-06 -1.934235e-06 1.58862e-28)
(-8.104265e-07 -1.508134e-06 -1.580121e-27)
(-1.261426e-06 -2.225641e-06 5.216683e-30)
(-1.065117e-06 -1.839522e-06 3.122519e-30)
(-1.385707e-06 -2.288732e-06 1.700447e-28)
(-1.241235e-06 -1.980763e-06 3.264314e-27)
(-1.440514e-06 -2.127745e-06 7.118462e-31)
(-1.345487e-06 -1.911644e-06 7.116267e-31)
(-1.39701e-06 -1.642741e-06 0)
(-1.449428e-06 -1.765868e-06 -7.644485e-31)
(-2.841043e-07 -7.193816e-07 -3.975862e-31)
(-1.293403e-07 -5.148312e-07 1.774276e-30)
(-5.680402e-07 -1.083296e-06 -3.239283e-30)
(-3.892421e-07 -7.838878e-07 -2.172894e-30)
(-8.290217e-07 -1.4096e-06 1.288145e-30)
(-6.464105e-07 -1.107199e-06 -3.446812e-30)
(-1.046399e-06 -1.595477e-06 2.355388e-30)
(-8.813229e-07 -1.318057e-06 3.847628e-27)
(-1.201251e-06 -1.603479e-06 -1.851276e-32)
(-1.070064e-06 -1.380392e-06 -3.751329e-27)
(-1.302134e-06 -1.426545e-06 0)
(-1.207272e-06 -1.271587e-06 0)
(-1.300745e-06 -9.917253e-07 0)
(-1.360956e-06 -1.07446e-06 5.804686e-31)
(-2.345671e-07 -5.795815e-07 0)
(-1.141817e-07 -4.534028e-07 0)
(-4.675903e-07 -8.074089e-07 -2.379429e-30)
(-3.293471e-07 -5.980957e-07 2.702616e-30)
(-6.962662e-07 -1.013124e-06 1.537172e-31)
(-5.498051e-07 -8.030438e-07 -4.566955e-27)
(-9.066029e-07 -1.10323e-06 2.59134e-30)
(-7.67464e-07 -9.118602e-07 -9.959269e-31)
(-1.076357e-06 -1.048258e-06 1.911139e-32)
(-9.599206e-07 -8.972187e-07 4.302076e-27)
(-1.206041e-06 -8.366478e-07 0)
(-1.116553e-06 -7.382377e-07 0)
(-1.238532e-06 -4.301398e-07 -7.376009e-31)
(-1.29995e-06 -4.712286e-07 8.959384e-31)
(-2.090954e-07 -4.722351e-07 2.701491e-30)
(-1.086755e-07 -4.052106e-07 0)
(-4.115959e-07 -5.934487e-07 9.224489e-32)
(-2.990378e-07 -4.519361e-07 5.426361e-27)
(-6.18723e-07 -7.003703e-07 -6.190594e-30)
(-4.970733e-07 -5.610385e-07 -3.334412e-30)
(-8.224777e-07 -7.055169e-07 -1.77174e-28)
(-7.032604e-07 -5.827076e-07 -5.102885e-27)
(-1.000419e-06 -5.869039e-07 1.74936e-30)
(-8.974147e-07 -4.961227e-07 4.477155e-30)
(-1.149213e-06 -3.315876e-07 -7.37347e-31)
(-1.066903e-06 -2.833825e-07 -2.523613e-30)
(-1.209447e-06 6.223155e-08 -4.068293e-27)
(-1.268575e-06 6.083866e-08 3.969525e-28)
(-1.987934e-07 -3.853037e-07 2.243777e-30)
(-1.094043e-07 -3.653128e-07 2.710539e-30)
(-3.845992e-07 -4.193273e-07 -8.78019e-29)
(-2.879425e-07 -3.309908e-07 2.244144e-30)
(-5.794403e-07 -4.429627e-07 -3.798952e-30)
(-4.741261e-07 -3.594171e-07 -1.437376e-30)
(-7.799652e-07 -3.724062e-07 -3.345015e-31)
(-6.750755e-07 -3.050005e-07 -3.826171e-30)
(-9.642335e-07 -1.922476e-07 2.001137e-31)
(-8.723234e-07 -1.517808e-07 5.989557e-27)
(-1.127319e-06 1.105964e-07 -2.505745e-30)
(-1.052134e-06 1.151723e-07 -5.131268e-27)
(-1.211095e-06 5.030104e-07 4.606343e-27)
(-1.266405e-06 5.378082e-07 1.791086e-32)
(-1.987699e-07 -3.114654e-07 2.711062e-30)
(-1.145202e-07 -3.306533e-07 5.985475e-27)
(-3.775998e-07 -2.709486e-07 -7.166993e-31)
(-2.901897e-07 -2.260858e-07 0)
(-5.676621e-07 -2.219229e-07 -1.400603e-28)
(-4.720633e-07 -1.838501e-07 -2.144033e-30)
(-7.692168e-07 -8.293417e-08 5.333119e-30)
(-6.715116e-07 -6.129951e-08 5.809341e-30)
(-9.606396e-07 1.561714e-07 3.244426e-30)
(-8.743883e-07 1.537425e-07 7.942875e-27)
(-1.136112e-06 5.077678e-07 -2.243731e-31)
(-1.066582e-06 4.749263e-07 -2.749684e-30)
(-1.240814e-06 9.072557e-07 -2.624648e-31)
(-1.29198e-06 9.740376e-07 -1.135292e-30)
(-2.061984e-07 -2.458179e-07 2.98158e-30)
(-1.230432e-07 -2.991353e-07 2.980206e-30)
(-3.848504e-07 -1.388993e-07 -1.425649e-30)
(-3.025544e-07 -1.309175e-07 4.064344e-30)
(-5.742684e-07 -2.405105e-08 -2.360255e-28)
(-4.865905e-07 -2.428566e-08 -1.426012e-30)
(-7.77411e-07 1.767245e-07 2.890422e-27)
(-6.900584e-07 1.614669e-07 -6.143688e-27)
(-9.814919e-07 4.749704e-07 1.45557e-29)
(-9.021588e-07 4.356996e-07 1.604621e-29)
(-1.171572e-06 8.748179e-07 -2.788169e-30)
(-1.107549e-06 8.098023e-07 1.36747e-30)
(-1.296758e-06 1.287763e-06 -5.935678e-27)
(-1.343678e-06 1.38225e-06 -5.282589e-30)
(-2.196981e-07 -1.848639e-07 4.062381e-30)
(-1.344277e-07 -2.692174e-07 0)
(-4.045705e-07 -1.624949e-08 4.065164e-30)
(-3.230891e-07 -4.082654e-08 9.648595e-27)
(-6.016821e-07 1.600773e-07 -2.365761e-30)
(-5.146826e-07 1.267662e-07 -7.040515e-31)
(-8.13068e-07 4.173276e-07 3.833148e-28)
(-7.281493e-07 3.714621e-07 -3.063596e-30)
(-1.030396e-06 7.741286e-07 2.772855e-30)
(-9.536071e-07 7.033006e-07 1.405846e-30)
(-1.233141e-06 1.223356e-06 5.433085e-28)
(-1.172805e-06 1.131178e-06 1.366876e-30)
(-1.377561e-06 1.655789e-06 -1.694639e-30)
(-1.420733e-06 1.773648e-06 -3.668393e-31)
(-2.381667e-07 -1.259011e-07 8.979768e-30)
(-1.484356e-07 -2.397218e-07 4.378069e-30)
(-4.335721e-07 1.02274e-07 8.282264e-30)
(-3.506221e-07 4.78085e-08 1.099818e-26)
(-6.412581e-07 3.379772e-07 -1.734545e-28)
(-5.538631e-07 2.753635e-07 -2.102666e-30)
(-8.656364e-07 6.525761e-07 -7.05905e-31)
(-7.809632e-07 5.789124e-07 -1.383867e-30)
(-1.098857e-06 1.065533e-06 0)
(-1.023228e-06 9.682037e-07 0)
(-1.317719e-06 1.564408e-06 0)
(-1.259925e-06 1.44955e-06 2.772832e-30)
(-1.482269e-06 2.021736e-06 -2.615514e-30)
(-1.522213e-06 2.158747e-06 -1.309812e-30)
(-2.612896e-07 -6.683824e-08 -2.293423e-28)
(-1.650346e-07 -2.096533e-07 1.021974e-26)
(-4.713395e-07 2.209773e-07 -1.373436e-28)
(-3.847254e-07 1.380412e-07 9.806592e-30)
(-6.937673e-07 5.161537e-07 -1.919823e-28)
(-6.035694e-07 4.265927e-07 -3.481273e-30)
(-9.351342e-07 8.885959e-07 -7.000578e-31)
(-8.484966e-07 7.900999e-07 -2.053297e-30)
(-1.187482e-06 1.358241e-06 2.805066e-30)
(-1.111245e-06 1.237921e-06 0)
(-1.425035e-06 1.907783e-06 -6.74564e-28)
(-1.368883e-06 1.774038e-06 1.069372e-26)
(-1.610977e-06 2.395439e-06 -3.900557e-30)
(-1.648192e-06 2.547507e-06 -7.128781e-28)
(-2.889245e-07 -5.717918e-09 -2.593586e-28)
(-1.842718e-07 -1.780563e-07 9.847543e-30)
(-5.174415e-07 3.437286e-07 -1.535184e-28)
(-4.252143e-07 2.32723e-07 1.418975e-26)
(-7.585357e-07 7.00339e-07 -4.24361e-28)
(-6.633647e-07 5.851253e-07 3.849406e-30)
(-1.020868e-06 1.132511e-06 -1.386269e-30)
(-9.296126e-07 1.01123e-06 -1.364087e-30)
(-1.296101e-06 1.660322e-06 4.577578e-30)
(-1.213778e-06 1.518681e-06 1.074325e-29)
(-1.555572e-06 2.262983e-06 3.232816e-30)
(-1.496015e-06 2.111177e-06 1.766814e-29)
(-1.763762e-06 2.78653e-06 1.245143e-30)
(-1.799384e-06 2.949732e-06 -7.916238e-28)
(-3.210765e-07 5.930721e-08 1.734631e-29)
(-2.062278e-07 -1.439608e-07 1.309707e-26)
(-5.716917e-07 4.741845e-07 1.823782e-29)
(-4.721516e-07 3.347112e-07 1.600463e-26)
(-8.347764e-07 8.958349e-07 5.93583e-30)
(-7.334447e-07 7.555973e-07 1.525407e-26)
(-1.119392e-06 1.391233e-06 1.064586e-29)
(-1.025453e-06 1.24857e-06 7.596146e-30)
(-1.415739e-06 1.97329e-06 5.269358e-27)
(-1.335997e-06 1.818815e-06 1.199512e-29)
(-1.706835e-06 2.640516e-06 2.075863e-27)
(-1.648012e-06 2.472688e-06 1.925312e-29)
(-1.94341e-06 3.204877e-06 -3.751082e-30)
(-1.976485e-06 3.37572e-06 2.530631e-30)
(-3.578831e-07 1.302159e-07 3.631325e-28)
(-2.310144e-07 -1.063986e-07 5.296183e-30)
(-6.345236e-07 6.161825e-07 2.253486e-28)
(-5.256461e-07 4.469325e-07 1.81348e-26)
(-9.24561e-07 1.108251e-06 2.143715e-29)
(-8.139029e-07 9.428792e-07 1.74751e-26)
(-1.240192e-06 1.671852e-06 5.92207e-28)
(-1.136345e-06 1.50876e-06 1.660862e-26)
(-1.564467e-06 2.309486e-06 7.276356e-30)
(-1.479013e-06 2.145915e-06 1.29959e-30)
(-1.888771e-06 3.046689e-06 -4.030219e-31)
(-1.826022e-06 2.867021e-06 1.386527e-26)
(-2.151811e-06 3.660781e-06 -1.312629e-26)
(-2.183653e-06 3.835043e-06 -1.02996e-27)
(-3.994339e-07 2.089229e-07 8.302048e-30)
(-2.587549e-07 -6.437793e-08 -6.963621e-30)
(-7.057323e-07 7.736845e-07 2.36791e-28)
(-5.856792e-07 5.724025e-07 8.303261e-30)
(-1.026319e-06 1.34348e-06 2.189844e-29)
(-9.045323e-07 1.15202e-06 7.984544e-30)
(-1.375198e-06 1.981917e-06 1.393678e-29)
(-1.261521e-06 1.79909e-06 1.88558e-26)
(-1.734214e-06 2.689358e-06 6.518005e-30)
(-1.640795e-06 2.513325e-06 -6.098444e-30)
(-2.094805e-06 3.494277e-06 6.573567e-30)
(-2.027084e-06 3.307378e-06 6.656128e-30)
(-2.38974e-06 4.166167e-06 1.654818e-26)
(-2.420997e-06 4.339297e-06 7.264387e-30)
(-4.457384e-07 2.975122e-07 -6.964879e-30)
(-2.894849e-07 -1.678696e-08 -1.878174e-26)
(-7.852752e-07 9.507777e-07 0)
(-6.521073e-07 7.143634e-07 0)
(-1.140452e-06 1.607716e-06 1.255637e-30)
(-1.005118e-06 1.388357e-06 0)
(-1.52732e-06 2.32976e-06 7.492684e-28)
(-1.401042e-06 2.126863e-06 -2.148731e-26)
(-1.926377e-06 3.115375e-06 -6.223737e-30)
(-1.821571e-06 2.927645e-06 -2.081442e-26)
(-2.328492e-06 3.993543e-06 6.294077e-30)
(-2.247871e-06 3.799528e-06 7.69855e-30)
(-2.654151e-06 4.729558e-06 6.253275e-30)
(-2.69188e-06 4.901852e-06 9.320046e-30)
(-4.966828e-07 3.982578e-07 -1.550609e-29)
(-3.231683e-07 3.754035e-08 -2.104028e-26)
(-8.728452e-07 1.151965e-06 0)
(-7.245932e-07 8.763472e-07 6.804229e-31)
(-1.266522e-06 1.907571e-06 -9.884761e-30)
(-1.115136e-06 1.657814e-06 -9.537809e-30)
(-1.695664e-06 2.724091e-06 -7.984706e-28)
(-1.554668e-06 2.500281e-06 -8.652646e-30)
(-2.13686e-06 3.597931e-06 -1.012139e-29)
(-2.022523e-06 3.399164e-06 -2.057051e-26)
(-2.577922e-06 4.544213e-06 7.746825e-30)
(-2.496471e-06 4.358802e-06 1.37747e-26)
(-2.956599e-06 5.373192e-06 0)
(-2.996197e-06 5.540753e-06 -6.139819e-30)
(-5.520051e-07 5.135759e-07 -7.958311e-30)
(-3.596357e-07 9.98377e-08 -8.633137e-30)
(-9.678822e-07 1.382193e-06 2.948769e-28)
(-8.023408e-07 1.062086e-06 1.25184e-29)
(-1.404181e-06 2.250575e-06 -8.306875e-30)
(-1.233307e-06 1.96679e-06 -2.808024e-26)
(-1.882051e-06 3.174936e-06 9.547064e-28)
(-1.720946e-06 2.928575e-06 1.232748e-30)
(-2.377883e-06 4.150102e-06 9.639864e-30)
(-2.242647e-06 3.939865e-06 2.582759e-26)
(-2.867536e-06 5.170334e-06 8.663201e-30)
(-2.772642e-06 4.997669e-06 1.28077e-29)
(-3.296846e-06 6.111057e-06 2.13311e-30)
(-3.346853e-06 6.267746e-06 -9.006422e-30)
(-6.110076e-07 6.46017e-07 1.183074e-29)
(-3.985881e-07 1.713555e-07 1.081036e-29)
(-1.068886e-06 1.646649e-06 5.067747e-31)
(-8.841226e-07 1.275358e-06 3.232012e-26)
(-1.551095e-06 2.644812e-06 -1.134355e-29)
(-1.357481e-06 2.321846e-06 -2.404618e-29)
(-2.082434e-06 3.693497e-06 1.23431e-29)
(-1.897049e-06 3.421414e-06 0)
(-2.637108e-06 4.785224e-06 2.31144e-27)
(-2.47863e-06 4.563667e-06 1.014856e-29)
(-3.189556e-06 5.910748e-06 2.955962e-27)
(-3.073991e-06 5.743205e-06 4.35302e-30)
(-3.672383e-06 6.970051e-06 4.151146e-30)
(-3.737022e-06 7.107915e-06 6.131023e-32)
(-6.728526e-07 7.980383e-07 2.399277e-29)
(-4.39581e-07 2.532316e-07 2.847977e-26)
(-1.173973e-06 1.950485e-06 4.894476e-31)
(-9.683271e-07 1.519589e-06 2.797952e-29)
(-1.704583e-06 3.098421e-06 -1.271325e-29)
(-1.484907e-06 2.729214e-06 -3.506812e-26)
(-2.294264e-06 4.291539e-06 -2.194375e-30)
(-2.079374e-06 3.988202e-06 0)
(-2.915512e-06 5.519796e-06 -2.517907e-27)
(-2.726607e-06 5.283502e-06 -2.194689e-30)
(-3.542229e-06 6.771087e-06 3.183629e-27)
(-3.396039e-06 6.607074e-06 1.171369e-29)
(-4.074781e-06 7.961957e-06 -2.429162e-29)
(-4.172214e-06 8.083683e-06 -6.668941e-30)
(-7.362358e-07 9.715269e-07 2.682844e-29)
(-4.822916e-07 3.462438e-07 2.494374e-29)
(-1.280729e-06 2.298354e-06 6.288901e-31)
(-1.053501e-06 1.797311e-06 4.080774e-26)
(-1.860983e-06 3.618901e-06 -1.417765e-29)
(-1.612312e-06 3.193725e-06 -1.416654e-29)
(-2.512869e-06 4.980035e-06 0)
(-2.26301e-06 4.636774e-06 -1.728726e-29)
(-3.207414e-06 6.369062e-06 1.169227e-29)
(-2.980619e-06 6.110805e-06 -2.003949e-30)
(-3.915785e-06 7.770614e-06 -1.400476e-29)
(-3.733318e-06 7.60456e-06 2.917964e-26)
(-4.506316e-06 9.114762e-06 -9.41685e-27)
(-4.628441e-06 9.194562e-06 -1.873922e-26)
(-8.005555e-07 1.167495e-06 1.906628e-27)
(-5.249991e-07 4.500795e-07 3.122903e-26)
(-1.386874e-06 2.693057e-06 1.586267e-29)
(-1.136543e-06 2.107042e-06 1.590216e-29)
(-2.015778e-06 4.211443e-06 -1.727312e-29)
(-1.735864e-06 3.717003e-06 1.664785e-29)
(-2.732017e-06 5.767329e-06 -2.690462e-27)
(-2.441809e-06 5.371302e-06 -4.312476e-26)
(-3.506998e-06 7.344958e-06 2.590369e-29)
(-3.231694e-06 7.052995e-06 1.385023e-29)
(-4.314244e-06 8.926888e-06 3.950798e-27)
(-4.073833e-06 8.746993e-06 4.31646e-26)
(-4.950272e-06 1.0435e-05 4.411978e-26)
(-5.113978e-06 1.046233e-05 1.754835e-26)
(-8.605103e-07 1.380098e-06 1.504738e-29)
(-5.675712e-07 5.61386e-07 1.491039e-29)
(-1.488554e-06 3.134252e-06 1.668934e-29)
(-1.217948e-06 2.446369e-06 0)
(-2.163731e-06 4.877099e-06 -1.191689e-27)
(-1.853813e-06 4.29528e-06 5.037328e-26)
(-2.94299e-06 6.656661e-06 -2.084047e-30)
(-2.61055e-06 6.189075e-06 -1.790551e-29)
(-3.799861e-06 8.454592e-06 4.508437e-29)
(-3.47017e-06 8.109894e-06 4.827686e-26)
(-4.708857e-06 1.025011e-05 4.26879e-29)
(-4.402806e-06 1.004042e-05 4.987713e-26)
(-5.390049e-06 1.195675e-05 -1.597747e-30)
(-5.629334e-06 1.197943e-05 3.62269e-29)
(-9.210698e-07 1.607058e-06 0)
(-6.123961e-07 6.784001e-07 1.726037e-29)
(-1.587195e-06 3.612946e-06 4.004534e-29)
(-1.296053e-06 2.803838e-06 -2.414465e-29)
(-2.303116e-06 5.608474e-06 3.989523e-29)
(-1.963088e-06 4.910004e-06 5.801203e-26)
(-3.139468e-06 7.641893e-06 3.549494e-29)
(-2.767346e-06 7.075732e-06 0)
(-4.074694e-06 9.695069e-06 5.194244e-29)
(-3.689462e-06 9.268579e-06 5.318132e-26)
(-5.084071e-06 1.174351e-05 1.487825e-30)
(-4.707794e-06 1.147449e-05 1.641021e-29)
(-5.806258e-06 1.36668e-05 -4.677947e-26)
(-6.12169e-06 1.371118e-05 -1.519837e-29)
(-9.828838e-07 1.851447e-06 5.656696e-27)
(-6.630879e-07 7.982505e-07 3.704642e-26)
(-1.673517e-06 4.09944e-06 -4.721875e-29)
(-1.375068e-06 3.16288e-06 -4.147854e-26)
(-2.43268e-06 6.386437e-06 -2.291099e-29)
(-2.065903e-06 5.536036e-06 -9.244529e-26)
(-3.320115e-06 8.703936e-06 1.993718e-29)
(-2.91099e-06 7.99135e-06 -4.694807e-29)
(-4.324319e-06 1.104717e-05 1.993247e-29)
(-3.888e-06 1.049544e-05 4.395717e-29)
(-5.430552e-06 1.339462e-05 -1.916113e-29)
(-4.979044e-06 1.30166e-05 1.240338e-30)
(-6.180004e-06 1.553717e-05 -2.014145e-29)
(-6.599245e-06 1.567199e-05 -1.529888e-26)
(-1.053487e-06 2.093158e-06 -4.884448e-30)
(-7.244063e-07 9.102274e-07 2.086008e-29)
(-1.763423e-06 4.578342e-06 -1.00317e-28)
(-1.47199e-06 3.502695e-06 -2.468109e-29)
(-2.546773e-06 7.142203e-06 -1.230727e-28)
(-2.180858e-06 6.13328e-06 -3.636845e-26)
(-3.487829e-06 9.801704e-06 4.860714e-27)
(-3.059671e-06 8.894568e-06 -1.218568e-25)
(-4.545534e-06 1.246555e-05 2.526761e-29)
(-4.074368e-06 1.17289e-05 7.793778e-26)
(-5.730451e-06 1.51578e-05 4.214413e-27)
(-5.210291e-06 1.459743e-05 3.37902e-30)
(-6.486393e-06 1.749921e-05 2.076191e-30)
(-7.01114e-06 1.780199e-05 -1.777903e-26)
(-1.143793e-06 2.311536e-06 -3.138604e-27)
(-8.046128e-07 1.001397e-06 3.591758e-33)
(-1.885953e-06 5.037918e-06 -2.476747e-29)
(-1.608988e-06 3.79583e-06 1.103642e-32)
(-2.68279e-06 7.841975e-06 4.786019e-28)
(-2.335778e-06 6.657063e-06 -5.778486e-29)
(-3.66073e-06 1.085363e-05 -2.372845e-27)
(-3.226593e-06 9.69929e-06 -1.028679e-28)
(-4.743837e-06 1.386478e-05 2.47007e-29)
(-4.249059e-06 1.285483e-05 8.863261e-30)
(-5.968859e-06 1.693738e-05 7.995448e-27)
(-5.39318e-06 1.60972e-05 -2.657761e-29)
(-6.691932e-06 1.940871e-05 3.050448e-30)
(-7.326789e-06 2.001395e-05 1.771614e-26)
(-1.27109e-06 2.478166e-06 3.464367e-27)
(-9.13839e-07 1.054755e-06 -5.244964e-31)
(-2.059625e-06 5.408866e-06 -3.288475e-29)
(-1.808315e-06 3.99037e-06 -5.740798e-31)
(-2.865749e-06 8.459662e-06 1.533781e-27)
(-2.557837e-06 7.050628e-06 -4.416869e-26)
(-3.823044e-06 1.171734e-05 2.907445e-27)
(-3.423639e-06 1.031686e-05 -4.008812e-26)
(-4.91176e-06 1.511816e-05 -6.964219e-27)
(-4.403398e-06 1.375022e-05 -3.349362e-29)
(-6.121456e-06 1.857244e-05 -2.87069e-29)
(-5.497108e-06 1.731525e-05 -1.389223e-25)
(-6.752121e-06 2.102879e-05 0)
(-7.488647e-06 2.210098e-05 -1.011943e-31)
(-1.452001e-06 2.55903e-06 0)
(-1.061483e-06 1.051919e-06 -1.036116e-30)
(-2.307381e-06 5.62806e-06 -3.350035e-29)
(-2.083965e-06 4.039024e-06 1.124848e-30)
(-3.108203e-06 8.874767e-06 -6.336498e-29)
(-2.850514e-06 7.237725e-06 -3.167189e-29)
(-3.99364e-06 1.230395e-05 -8.249609e-27)
(-3.652049e-06 1.065832e-05 -2.975609e-29)
(-4.996847e-06 1.596139e-05 -1.735142e-26)
(-4.529899e-06 1.425277e-05 -3.019795e-26)
(-6.145668e-06 1.981821e-05 -2.322422e-29)
(-5.517213e-06 1.803314e-05 -2.480172e-29)
(-6.655408e-06 2.201175e-05 -5.72351e-31)
(-7.434985e-06 2.372797e-05 2.346543e-29)
(-1.693985e-06 2.523717e-06 7.894591e-27)
(-1.252303e-06 9.807813e-07 3.322547e-29)
(-2.628112e-06 5.645747e-06 -5.465032e-28)
(-2.426227e-06 3.913921e-06 2.227865e-30)
(-3.394385e-06 9.01384e-06 1.837809e-30)
(-3.191885e-06 7.171429e-06 4.265775e-29)
(-4.178712e-06 1.256407e-05 -7.108171e-29)
(-3.907132e-06 1.065191e-05 0)
(-5.03359e-06 1.624367e-05 -7.493863e-29)
(-4.656092e-06 1.422051e-05 -6.896644e-26)
(-6.056088e-06 2.030891e-05 5.734911e-27)
(-5.51693e-06 1.794566e-05 -5.219337e-29)
(-6.514693e-06 2.186079e-05 -4.709885e-30)
(-7.191425e-06 2.439615e-05 -2.506261e-26)
(-1.984481e-06 2.362592e-06 -8.346909e-27)
(-1.48268e-06 8.471845e-07 -3.102473e-27)
(-2.990617e-06 5.436615e-06 4.187237e-29)
(-2.806864e-06 3.612102e-06 4.748796e-29)
(-3.705691e-06 8.805175e-06 4.083658e-29)
(-3.56583e-06 6.795883e-06 1.574114e-26)
(-4.384628e-06 1.22954e-05 -3.738897e-29)
(-4.22415e-06 1.013614e-05 -2.772514e-30)
(-5.117253e-06 1.581192e-05 -1.885442e-26)
(-4.912144e-06 1.341986e-05 -4.108669e-29)
(-5.989308e-06 1.952044e-05 1.402313e-25)
(-5.742218e-06 1.665244e-05 -1.930897e-27)
(-6.772319e-06 2.009677e-05 -3.029339e-30)
(-7.007254e-06 2.347745e-05 -4.445854e-26)
(-2.303727e-06 2.086903e-06 -8.992999e-27)
(-1.736725e-06 6.686473e-07 3.709308e-29)
(-3.382188e-06 4.968988e-06 9.101839e-29)
(-3.20847e-06 3.12126e-06 -1.302177e-26)
(-4.084375e-06 8.122709e-06 4.190192e-29)
(-4.013343e-06 6.00297e-06 -4.135708e-30)
(-4.751036e-06 1.125379e-05 1.322172e-26)
(-4.724748e-06 8.895372e-06 -1.375437e-30)
(-5.521574e-06 1.422601e-05 1.649785e-26)
(-5.546864e-06 1.153788e-05 4.230297e-29)
(-6.497398e-06 1.717537e-05 7.442125e-26)
(-6.671853e-06 1.396423e-05 -4.672972e-29)
(-8.40143e-06 1.65578e-05 1.14505e-30)
(-7.708295e-06 2.059031e-05 1.698701e-25)
(-2.634889e-06 1.684407e-06 -5.153271e-29)
(-1.991942e-06 4.483527e-07 -4.09128e-29)
(-3.841098e-06 4.155117e-06 4.207904e-27)
(-3.628913e-06 2.384184e-06 1.246401e-25)
(-4.653607e-06 6.772778e-06 -6.082525e-27)
(-4.603645e-06 4.609825e-06 2.817913e-26)
(-5.519849e-06 9.175161e-06 4.728944e-29)
(-5.595891e-06 6.66649e-06 -1.039546e-28)
(-6.694778e-06 1.126432e-05 3.93404e-26)
(-6.946673e-06 8.29509e-06 3.723942e-26)
(-8.539711e-06 1.322219e-05 -8.258899e-31)
(-9.233341e-06 9.566573e-06 -7.993088e-29)
(-1.463197e-05 9.953159e-06 3.41373e-30)
(-1.192818e-05 1.516009e-05 -1.426591e-29)
(-2.969629e-06 1.1248e-06 -1.554699e-28)
(-2.229459e-06 1.730858e-07 7.131394e-26)
(-4.389302e-06 2.825702e-06 2.931782e-26)
(-4.0553e-06 1.310675e-06 -1.15624e-28)
(-5.551996e-06 4.497748e-06 -1.672564e-28)
(-5.376301e-06 2.392272e-06 -6.163469e-29)
(-7.023406e-06 5.781106e-06 -5.225532e-29)
(-7.038836e-06 3.157764e-06 3.640313e-26)
(-9.487603e-06 6.584363e-06 1.341626e-25)
(-9.782991e-06 3.331292e-06 -1.079418e-28)
(-1.521173e-05 6.289113e-06 -7.606055e-29)
(-1.627252e-05 1.733175e-06 -1.452987e-24)
(-4.508406e-05 -1.459314e-05 2.069945e-29)
(-3.675501e-05 -5.618218e-06 -5.640454e-30)
(-3.299623e-06 3.485896e-07 9.868429e-27)
(-2.410409e-06 -1.976453e-07 1.016351e-30)
(-5.022603e-06 8.686213e-07 -1.167391e-30)
(-4.453481e-06 -1.914152e-07 1.245356e-30)
(-6.867875e-06 1.025174e-06 4.930192e-31)
(-6.352506e-06 -8.188509e-07 2.144494e-30)
(-9.838027e-06 6.615231e-07 -1.624621e-28)
(-9.360435e-06 -1.944953e-06 -1.067004e-26)
(-1.661139e-05 -1.600199e-06 -3.548105e-28)
(-1.592396e-05 -4.890607e-06 -1.585684e-24)
(-4.642337e-05 -2.671449e-05 -1.765236e-28)
(-4.401313e-05 -2.467609e-05 -1.632391e-27)
(-0.0001302697 -0.0001067974 1.146527e-28)
(-0.000130494 -0.0001406688 8.784503e-29)
(-3.555857e-06 -7.434226e-07 4.730991e-29)
(-2.466926e-06 -7.128904e-07 -1.389363e-25)
(-5.757372e-06 -1.85747e-06 -9.207684e-27)
(-4.811232e-06 -2.258072e-06 2.390477e-30)
(-8.795911e-06 -3.76012e-06 1.324191e-28)
(-7.645535e-06 -5.065858e-06 7.410487e-30)
(-1.552373e-05 -7.627403e-06 1.689803e-24)
(-1.3712e-05 -9.851129e-06 1.532155e-28)
(-4.441088e-05 -3.616286e-05 1.597771e-22)
(-3.52359e-05 -2.779021e-05 -6.875956e-28)
(-0.0001318812 -0.0001646645 -1.340945e-27)
(-0.0001125974 -0.0001077937 -1.725713e-22)
(-0.0002284375 -0.0002669435 4.15358e-29)
(-0.0002368605 -0.0004049885 3.068479e-21)
(-3.712708e-06 -2.231737e-06 4.633363e-29)
(-2.385845e-06 -1.421443e-06 4.633994e-29)
(-6.687626e-06 -5.461855e-06 5.281887e-30)
(-5.239831e-06 -4.946365e-06 5.756439e-30)
(-1.246632e-05 -1.106625e-05 -2.313716e-25)
(-9.967829e-06 -1.125422e-05 2.277603e-29)
(-3.308614e-05 -3.537854e-05 -1.182674e-22)
(-2.396404e-05 -2.717238e-05 -3.159322e-28)
(-0.0001098326 -0.0001552687 -3.647776e-21)
(-7.902184e-05 -9.541219e-05 -9.720893e-23)
(-0.0002268166 -0.0004162706 -2.750949e-27)
(-0.000202094 -0.0002590107 -4.253039e-27)
(-0.0002819184 -0.0004325635 -1.429005e-28)
(-0.0003065937 -0.0007288078 -4.231609e-27)
(-3.894622e-06 -4.133478e-06 5.745038e-30)
(-2.290072e-06 -2.348008e-06 0)
(-8.520254e-06 -1.076718e-05 -9.399433e-26)
(-6.196554e-06 -8.590111e-06 7.601945e-30)
(-2.178075e-05 -3.003663e-05 -2.76895e-23)
(-1.485933e-05 -2.242882e-05 8.865618e-29)
(-7.205842e-05 -0.0001316591 4.169042e-22)
(-4.642399e-05 -7.136075e-05 -8.384465e-23)
(-0.0001751607 -0.000378911 2.839059e-21)
(-0.0001312576 -0.0002166564 -1.177425e-27)
(-0.0002972089 -0.0007178881 -1.604514e-27)
(-0.0002310107 -0.0004221302 -5.986585e-22)
(-0.0003268851 -0.0005834567 -5.389682e-28)
(-0.0003442265 -0.001077786 -1.829192e-27)
(-4.555298e-06 -6.76805e-06 1.800394e-30)
(-2.385995e-06 -3.431774e-06 5.061036e-29)
(-1.269665e-05 -2.040898e-05 7.362807e-29)
(-8.437588e-06 -1.409866e-05 -4.999917e-30)
(-4.236469e-05 -8.818896e-05 -8.4232e-22)
(-2.58989e-05 -4.8612e-05 3.554126e-29)
(-0.0001185631 -0.0003131878 2.378424e-21)
(-8.497189e-05 -0.0001597004 -6.74382e-28)
(-0.0002166106 -0.0006648347 -2.302945e-27)
(-0.0001684566 -0.0003625694 1.159411e-29)
(-0.0002987382 -0.001049825 -2.775531e-27)
(-0.0002275424 -0.0005584745 -1.138369e-21)
(-0.0002667499 -0.0007030485 -1.454409e-21)
(-0.0004041658 -0.001430671 5.521846e-20)
(-6.210934e-06 -1.069779e-05 -1.353755e-26)
(-2.748798e-06 -4.720225e-06 -2.988797e-25)
(-2.268182e-05 -5.071784e-05 8.991204e-23)
(-1.225678e-05 -2.398405e-05 -6.275805e-30)
(-7.143881e-05 -0.0002130698 -5.785613e-29)
(-4.254133e-05 -9.811857e-05 5.977712e-28)
(-0.0001597923 -0.0005412768 2.59631e-29)
(-0.0001072884 -0.0002752969 -2.283383e-29)
(-0.0002355631 -0.0009620659 -8.028076e-28)
(-0.0001991668 -0.0004980741 5.079207e-29)
(-0.0002953322 -0.001389123 -1.503134e-27)
(-0.0002144566 -0.0006672566 -7.153576e-28)
(-0.0002420619 -0.0008046892 -6.6835e-28)
(-0.0003513235 -0.001831526 4.569039e-28)
(-9.331827e-06 -1.875591e-05 5.569457e-29)
(-3.305279e-06 -6.580141e-06 1.224042e-28)
(-3.716983e-05 -0.0001192602 6.308572e-28)
(-1.805243e-05 -4.358409e-05 1.224592e-30)
(-9.644065e-05 -0.0003871243 6.308093e-28)
(-5.812227e-05 -0.0001687982 3.934488e-22)
(-0.0001704672 -0.0007852794 1.104908e-30)
(-0.0001124386 -0.0003829569 3.09703e-30)
(-0.000253036 -0.001234697 2.302189e-20)
(-0.0001532361 -0.0005936887 6.041885e-28)
(-0.0003199764 -0.001689604 1.750961e-28)
(-0.0001733332 -0.0007512929 -3.098665e-28)
(-0.0003124403 -0.0009033614 -3.825393e-28)
(-0.0003447283 -0.002209588 -4.570641e-28)
(-1.402464e-05 -4.137995e-05 6.785998e-29)
(-4.059591e-06 -1.068972e-05 2.378676e-23)
(-5.033689e-05 -0.0002217551 7.046165e-28)
(-2.428573e-05 -7.644439e-05 -9.483424e-30)
(-0.0001078595 -0.0005729863 7.056903e-28)
(-6.385473e-05 -0.0002453961 2.772863e-29)
(-0.0001652776 -0.001022104 5.914073e-28)
(-0.0001012037 -0.0004670712 3.213e-30)
(-0.0002161497 -0.001496648 1.418781e-28)
(-0.0001208753 -0.0006560844 2.06611e-21)
(-0.0002693559 -0.001987331 -8.43772e-28)
(-0.0001285547 -0.0008023609 -3.052568e-21)
(-0.0001545602 -0.0009433216 -3.052958e-21)
(-0.0003819427 -0.002524567 -1.350126e-27)
(-1.903586e-05 -8.426454e-05 7.462264e-23)
(-5.078655e-06 -1.872991e-05 5.978317e-23)
(-5.664228e-05 -0.0003372984 -6.867502e-28)
(-2.703702e-05 -0.00011805 -1.748869e-28)
(-0.0001038105 -0.0007447512 -6.746575e-28)