/*--------------------------------*- C++ -*----------------------------------*\
| =========                 |                                                 |
| \\      /  F ield         | OpenFOAM: The Open Source CFD Toolbox           |
|  \\    /   O peration     | Version:  2206                                  |
|   \\  /    A nd           | Website:  www.openfoam.com                      |
|    \\/     M anipulation  |                                                 |
\*---------------------------------------------------------------------------*/
FoamFile
{
    version     2.0;
    format      ascii;
    arch        "LSB;label=32;scalar=64";
    class       surfaceVectorField;
    location    "2.2";
    object      Ufa_0;
}
// * * * * * * * * * * * * * * * * * * * * * * * * * * * * * * * * * * * * * //

dimensions      [0 1 -1 0 0 0 0];

internalField   nonuniform List<vector> 
26037
(
(1.140691e-05 -0.0001123526 1.819414e-23)
(-1.72952e-05 -0.0001092705 1.694567e-27)
(1.700269e-06 -5.026708e-05 -2.688421e-25)
(-1.214897e-05 -5.485473e-05 1.555003e-26)
(1.313309e-07 -2.757789e-05 -3.161319e-29)
(-4.352827e-06 -3.030072e-05 -3.168498e-29)
(-1.20036e-07 -1.782468e-05 -5.886169e-30)
(-1.954905e-06 -1.950856e-05 0)
(-1.989464e-07 -1.336902e-05 2.58305e-27)
(-1.147924e-06 -1.467876e-05 -5.884964e-30)
(-2.442001e-07 -1.043152e-05 -1.148283e-29)
(-7.925459e-07 -1.148852e-05 -6.178704e-30)
(-6.215591e-07 -9.064641e-06 -5.74585e-30)
(-2.751474e-07 -8.174662e-06 6.535357e-28)
(-4.176196e-05 -5.058105e-05 -2.284279e-32)
(-3.608201e-05 -3.512996e-05 4.914519e-31)
(-1.841647e-05 -3.486872e-05 -2.306234e-32)
(-2.09131e-05 -3.110898e-05 1.489831e-31)
(-6.437257e-06 -2.221325e-05 0)
(-8.723286e-06 -2.159178e-05 6.649348e-30)
(-2.982721e-06 -1.636347e-05 5.015551e-34)
(-4.425673e-06 -1.659402e-05 1.146906e-29)
(-1.741508e-06 -1.279858e-05 8.119921e-34)
(-2.632447e-06 -1.330538e-05 3.909615e-29)
(-1.169906e-06 -1.012178e-05 1.040323e-33)
(-1.735412e-06 -1.070731e-05 3.105936e-34)
(-1.253408e-06 -8.583576e-06 3.022732e-30)
(-8.785858e-07 -7.989074e-06 -5.751549e-30)
(-1.537269e-05 -1.547687e-05 6.64763e-31)
(-1.07103e-05 -8.431522e-06 1.838975e-25)
(-1.127141e-05 -1.778081e-05 6.815265e-30)
(-1.049787e-05 -1.378181e-05 -4.279474e-26)
(-6.696252e-06 -1.592436e-05 -1.048707e-27)
(-7.24555e-06 -1.412687e-05 7.983024e-30)
(-4.075214e-06 -1.353532e-05 -1.089406e-27)
(-4.78392e-06 -1.289089e-05 1.233224e-29)
(-2.626469e-06 -1.121429e-05 5.731992e-30)
(-3.211956e-06 -1.11131e-05 -4.349972e-29)
(-1.818952e-06 -9.169212e-06 -3.271948e-35)
(-2.258205e-06 -9.344024e-06 0)
(-1.676073e-06 -7.691156e-06 -3.833717e-30)
(-1.353068e-06 -7.376877e-06 5.751647e-30)
(-5.825673e-06 -6.725e-06 4.009884e-31)
(-3.296998e-06 -3.310495e-06 -2.701705e-31)
(-6.489959e-06 -1.010273e-05 1.760661e-30)
(-5.309255e-06 -7.213914e-06 -1.00824e-26)
(-5.31536e-06 -1.105223e-05 1.483448e-28)
(-5.067835e-06 -9.184272e-06 -1.674957e-27)
(-3.91924e-06 -1.045395e-05 7.794525e-31)
(-4.081318e-06 -9.45442e-06 1.139435e-27)
(-2.843769e-06 -9.242844e-06 -7.283638e-34)
(-3.121115e-06 -8.810052e-06 -6.935354e-30)
(-2.11536e-06 -7.866003e-06 -8.053956e-34)
(-2.385924e-06 -7.763223e-06 -9.138991e-36)
(-1.868592e-06 -6.580523e-06 5.758145e-30)
(-1.636433e-06 -6.481734e-06 -5.754852e-30)
(-2.778131e-06 -3.795948e-06 -1.314112e-28)
(-1.320282e-06 -1.84702e-06 -1.473892e-31)
(-3.888645e-06 -6.279587e-06 -2.233471e-28)
(-2.902995e-06 -4.335758e-06 1.446599e-31)
(-3.826955e-06 -7.575863e-06 7.101128e-31)
(-3.356543e-06 -6.056137e-06 2.01558e-31)
(-3.279285e-06 -7.790885e-06 -1.323303e-28)
(-3.147655e-06 -6.771717e-06 8.502466e-29)
(-2.662456e-06 -7.322315e-06 -4.209147e-28)
(-2.712801e-06 -6.746403e-06 -5.146444e-28)
(-2.139177e-06 -6.477713e-06 1.17833e-28)
(-2.261864e-06 -6.22855e-06 -5.774952e-30)
(-1.88277e-06 -5.420585e-06 -1.87702e-31)
(-1.744831e-06 -5.460071e-06 5.758939e-30)
(-1.443961e-06 -2.384912e-06 3.688516e-31)
(-6.106768e-07 -1.219904e-06 0)
(-2.367248e-06 -4.098417e-06 1.507294e-28)
(-1.655905e-06 -2.800848e-06 7.999905e-31)
(-2.676244e-06 -5.254508e-06 -2.20142e-28)
(-2.211439e-06 -4.113054e-06 -5.85265e-30)
(-2.579546e-06 -5.720158e-06 1.358817e-28)
(-2.340589e-06 -4.853451e-06 -5.471112e-30)
(-2.310241e-06 -5.640784e-06 -5.068104e-30)
(-2.227435e-06 -5.056593e-06 2.3357e-28)
(-2.004878e-06 -5.166256e-06 -3.54377e-28)
(-2.017835e-06 -4.848125e-06 -5.132024e-30)
(-1.789768e-06 -4.32113e-06 -1.162267e-29)
(-1.729925e-06 -4.431796e-06 -1.624705e-28)
(-8.219231e-07 -1.634754e-06 4.307207e-31)
(-3.26966e-07 -9.026104e-07 -7.566907e-31)
(-1.496064e-06 -2.805834e-06 -5.02398e-30)
(-1.004339e-06 -1.927999e-06 -8.332191e-28)
(-1.874023e-06 -3.709116e-06 -1.397372e-27)
(-1.487037e-06 -2.878395e-06 -3.627441e-28)
(-1.987273e-06 -4.187699e-06 -4.702325e-30)
(-1.733512e-06 -3.500565e-06 -5.943882e-30)
(-1.934221e-06 -4.259297e-06 8.623486e-29)
(-1.795651e-06 -3.754934e-06 2.246387e-30)
(-1.801581e-06 -3.995124e-06 7.343982e-31)
(-1.746568e-06 -3.671732e-06 1.468219e-30)
(-1.647269e-06 -3.316739e-06 7.275406e-31)
(-1.645811e-06 -3.465188e-06 2.275478e-33)
(-5.09094e-07 -1.195417e-06 -2.9745e-31)
(-1.977096e-07 -7.183766e-07 1.126757e-27)
(-9.946254e-07 -1.998709e-06 9.343007e-31)
(-6.520553e-07 -1.393029e-06 -5.491866e-31)
(-1.345939e-06 -2.667855e-06 4.796589e-31)
(-1.041572e-06 -2.072609e-06 7.058361e-31)
(-1.542599e-06 -3.069658e-06 1.03817e-30)
(-1.310579e-06 -2.547483e-06 7.46463e-31)
(-1.608057e-06 -3.167363e-06 1.765619e-30)
(-1.454872e-06 -2.763427e-06 5.419444e-28)
(-1.591861e-06 -2.990291e-06 6.419613e-29)
(-1.504696e-06 -2.713634e-06 1.469598e-30)
(-1.496918e-06 -2.429119e-06 7.325708e-31)
(-1.53331e-06 -2.582026e-06 -5.070418e-30)
(-3.4052e-07 -9.157814e-07 -9.920822e-31)
(-1.320521e-07 -5.999298e-07 -5.294285e-28)
(-6.986812e-07 -1.466237e-06 -7.78408e-31)
(-4.539088e-07 -1.040641e-06 3.038435e-28)
(-1.003462e-06 -1.94723e-06 1.103589e-28)
(-7.663262e-07 -1.520373e-06 -4.037138e-29)
(-1.223943e-06 -2.242724e-06 3.632468e-30)
(-1.023742e-06 -1.856385e-06 2.119985e-30)
(-1.351599e-06 -2.309652e-06 8.565836e-29)
(-1.203495e-06 -2.001783e-06 6.000831e-28)
(-1.409807e-06 -2.152528e-06 7.349265e-31)
(-1.311269e-06 -1.936701e-06 7.346999e-31)
(-1.366349e-06 -1.671852e-06 0)
(-1.422291e-06 -1.794447e-06 -4.896387e-31)
(-2.453423e-07 -7.24674e-07 -1.947711e-31)
(-9.634079e-08 -5.175564e-07 8.628082e-31)
(-5.213139e-07 -1.094307e-06 -1.587272e-30)
(-3.392874e-07 -7.930213e-07 -1.058082e-30)
(-7.83804e-07 -1.425729e-06 8.237907e-31)
(-5.966681e-07 -1.122046e-06 -1.669519e-30)
(-1.00466e-06 -1.616424e-06 1.344117e-30)
(-8.349198e-07 -1.33839e-06 5.179642e-28)
(-1.163283e-06 -1.628767e-06 -1.910622e-32)
(-1.027853e-06 -1.405522e-06 -6.573192e-28)
(-1.267854e-06 -1.456075e-06 0)
(-1.168983e-06 -1.301239e-06 0)
(-1.266341e-06 -1.025835e-06 0)
(-1.330503e-06 -1.108107e-06 9.665027e-31)
(-1.902213e-07 -5.858511e-07 0)
(-7.631451e-08 -4.565825e-07 0)
(-4.144487e-07 -8.204368e-07 -1.139856e-30)
(-2.722988e-07 -6.087432e-07 1.220552e-30)
(-6.451368e-07 -1.032194e-06 2.425055e-31)
(-4.932958e-07 -8.203901e-07 -4.80356e-28)
(-8.596044e-07 -1.127913e-06 1.421614e-30)
(-7.149703e-07 -9.355934e-07 -8.397223e-31)
(-1.033687e-06 -1.077899e-06 1.979647e-32)
(-9.123057e-07 -9.264761e-07 7.267466e-28)
(-1.167503e-06 -8.710398e-07 0)
(-1.073406e-06 -7.726191e-07 0)
(-1.199741e-06 -4.695026e-07 3.370933e-31)
(-1.265651e-06 -5.101696e-07 5.220011e-31)
(-1.583493e-07 -4.794631e-07 1.220045e-30)
(-6.530559e-08 -4.088464e-07 0)
(-3.509835e-07 -6.084793e-07 3.560903e-32)
(-2.338589e-07 -4.64122e-07 5.565482e-28)
(-5.606145e-07 -7.223961e-07 -3.426347e-30)
(-4.327037e-07 -5.8094e-07 -1.924147e-30)
(-7.69228e-07 -7.340123e-07 -7.282868e-29)
(-6.436241e-07 -6.099564e-07 -7.385493e-28)
(-9.521695e-07 -6.210658e-07 4.725396e-31)
(-8.434308e-07 -5.297085e-07 1.765928e-30)
(-1.105667e-06 -3.711184e-07 3.369772e-31)
(-1.018055e-06 -3.227905e-07 -1.225164e-30)
(-1.165546e-06 1.721091e-08 -7.704088e-28)
(-1.229806e-06 1.621748e-08 1.119016e-28)
(-1.407891e-07 -3.935299e-07 5.357533e-31)
(-5.983752e-08 -3.694307e-07 1.126224e-30)
(-3.154383e-07 -4.364562e-07 -2.894167e-29)
(-2.135391e-07 -3.448134e-07 5.35841e-31)
(-5.13272e-07 -4.681018e-07 -2.278232e-30)
(-4.007755e-07 -3.820421e-07 -1.473999e-30)
(-7.194359e-07 -4.049543e-07 -2.350658e-31)
(-6.072156e-07 -3.360191e-07 -2.296454e-30)
(-9.094686e-07 -2.312636e-07 6.644713e-32)
(-8.108964e-07 -1.90071e-07 9.986347e-28)
(-1.077949e-06 6.549962e-08 -1.206201e-30)
(-9.966574e-07 7.02808e-08 -8.990841e-28)
(-1.161289e-06 4.517847e-07 8.382716e-28)
(-1.222467e-06 4.869778e-07 1.89877e-32)
(-1.325741e-07 -3.207689e-07 1.126442e-30)
(-5.798372e-08 -3.352957e-07 8.042731e-28)
(-2.987499e-07 -2.903482e-07 -7.360062e-31)
(-2.053775e-07 -2.41694e-07 0)
(-4.923118e-07 -2.504431e-07 -5.220185e-29)
(-3.885803e-07 -2.094395e-07 -2.206518e-30)
(-7.002716e-07 -1.199191e-07 1.997021e-30)
(-5.943535e-07 -9.6423e-08 8.212059e-30)
(-8.982867e-07 1.117898e-07 1.449795e-30)
(-8.042302e-07 1.101936e-07 1.263963e-27)
(-1.08001e-06 4.565254e-07 -5.606822e-32)
(-1.003417e-06 4.239198e-07 -1.263798e-30)
(-1.184224e-06 8.491332e-07 -7.781915e-32)
(-1.242098e-06 9.163289e-07 -1.417447e-30)
(-1.307839e-07 -2.563043e-07 1.175729e-30)
(-5.866992e-08 -3.043566e-07 1.175187e-30)
(-2.951111e-07 -1.607872e-07 -1.468777e-30)
(-2.060223e-07 -1.48494e-07 1.550978e-30)
(-4.886443e-07 -5.626812e-08 -8.080768e-29)
(-3.917294e-07 -5.310822e-08 -1.469152e-30)
(-6.987445e-07 1.34833e-07 8.953112e-28)
(-6.024789e-07 1.219322e-07 -9.341194e-28)
(-9.102498e-07 4.244905e-07 1.325434e-29)
(-8.219778e-07 3.862581e-07 1.482261e-29)
(-1.107699e-06 8.166763e-07 -1.28573e-30)
(-1.035591e-06 7.519471e-07 1.466959e-30)
(-1.232432e-06 1.221923e-06 -1.027523e-27)
(-1.286993e-06 1.316849e-06 -2.484923e-30)
(-1.339131e-07 -1.96659e-07 1.550229e-30)
(-6.123938e-08 -2.750855e-07 0)
(-3.025969e-07 -4.086894e-08 1.551291e-30)
(-2.133518e-07 -6.060293e-08 1.497304e-27)
(-5.045856e-07 1.238679e-07 -6.892451e-33)
(-4.069797e-07 9.433741e-08 -7.31261e-31)
(-7.236602e-07 3.701624e-07 1.077156e-28)
(-6.289066e-07 3.270554e-07 -7.397483e-31)
(-9.492888e-07 7.169492e-07 2.957493e-30)
(-8.623856e-07 6.473914e-07 1.490842e-30)
(-1.160486e-06 1.15751e-06 1.33424e-28)
(-1.090962e-06 1.065702e-06 1.466322e-30)
(-1.304473e-06 1.581298e-06 1.286879e-31)
(-1.356322e-06 1.699618e-06 1.580697e-30)
(-1.406911e-07 -1.391714e-07 3.27291e-30)
(-6.532538e-08 -2.463175e-07 1.735007e-30)
(-3.177316e-07 7.455816e-08 2.544295e-30)
(-2.259895e-07 2.555227e-08 1.769542e-27)
(-5.310478e-07 2.972047e-07 -4.727533e-29)
(-4.315788e-07 2.388398e-07 -2.191116e-30)
(-7.641265e-07 5.993933e-07 -7.440018e-31)
(-6.683614e-07 5.288896e-07 -1.463538e-30)
(-1.006693e-06 1.000916e-06 0)
(-9.196135e-07 9.050746e-07 0)
(-1.235171e-06 1.489955e-06 0)
(-1.166929e-06 1.37554e-06 1.533549e-31)
(-1.399269e-06 1.937521e-06 -2.899547e-30)
(-1.44906e-06 2.075021e-06 -1.448508e-30)
(-1.506438e-07 -8.176869e-08 -2.162918e-29)
(-7.075705e-08 -2.170653e-07 1.690045e-27)
(-3.3984e-07 1.897668e-07 -2.29947e-29)
(-2.433136e-07 1.129988e-07 2.879382e-30)
(-5.686772e-07 4.702069e-07 -4.887366e-29)
(-4.648337e-07 3.854587e-07 -3.645795e-30)
(-8.199018e-07 8.286037e-07 -7.429046e-31)
(-7.207858e-07 7.337287e-07 -2.19033e-30)
(-1.082802e-06 1.285258e-06 1.551377e-31)
(-9.936615e-07 1.16668e-06 0)
(-1.331276e-06 1.823634e-06 -1.468618e-28)
(-1.263131e-06 1.690345e-06 1.84168e-27)
(-1.516722e-06 2.30024e-06 -4.344291e-30)
(-1.565148e-06 2.452864e-06 -1.424146e-28)
(-1.634539e-07 -2.250905e-08 -2.585857e-29)
(-7.742681e-08 -1.863803e-07 3.457168e-30)
(-3.683153e-07 3.085985e-07 -2.492482e-29)
(-2.649231e-07 2.045648e-07 2.412471e-27)
(-6.167098e-07 6.485855e-07 -1.006036e-28)
(-5.061474e-07 5.388403e-07 -2.441082e-31)
(-8.902154e-07 1.064867e-06 -1.482658e-30)
(-7.850525e-07 9.477931e-07 -1.458935e-30)
(-1.177165e-06 1.577877e-06 1.707372e-30)
(-1.080692e-06 1.43844e-06 1.177548e-29)
(-1.448958e-06 2.167792e-06 2.382373e-31)
(-1.375406e-06 2.016363e-06 1.636058e-29)
(-1.656627e-06 2.678834e-06 1.445392e-30)
(-1.705118e-06 2.842762e-06 -1.504432e-28)
(-1.789301e-07 4.044131e-08 5.642567e-30)
(-8.524407e-08 -1.532986e-07 2.280186e-27)
(-4.027687e-07 4.346893e-07 5.936037e-30)
(-2.906316e-07 3.030876e-07 2.786048e-27)
(-6.742896e-07 8.376521e-07 1.942665e-30)
(-5.554915e-07 7.036082e-07 2.64457e-27)
(-9.717628e-07 1.315159e-06 1.166873e-29)
(-8.621561e-07 1.177419e-06 3.441407e-30)
(-1.280457e-06 1.880223e-06 1.06677e-27)
(-1.185801e-06 1.728938e-06 1.317354e-29)
(-1.585235e-06 2.532534e-06 4.021561e-28)
(-1.51047e-06 2.365309e-06 1.714903e-29)
(-1.821704e-06 3.083095e-06 -3.708033e-31)
(-1.869413e-06 3.254763e-06 2.890605e-30)
(-1.969871e-07 1.090489e-07 4.633645e-29)
(-9.412952e-08 -1.168594e-07 1.451097e-30)
(-4.433716e-07 5.718601e-07 3.866408e-29)
(-3.2026e-07 4.114634e-07 3.235376e-27)
(-7.432362e-07 1.043038e-06 8.297181e-30)
(-6.126476e-07 8.845576e-07 3.099327e-27)
(-1.073857e-06 1.586767e-06 1.255862e-28)
(-9.520136e-07 1.429047e-06 2.921613e-27)
(-1.411479e-06 2.205147e-06 3.845138e-30)
(-1.309899e-06 2.045467e-06 1.450167e-30)
(-1.75084e-06 2.924737e-06 -9.360909e-31)
(-1.670188e-06 2.745966e-06 2.397523e-27)
(-2.013854e-06 3.523319e-06 -2.287518e-27)
(-2.062298e-06 3.698487e-06 -1.880409e-28)
(-2.174535e-07 1.852046e-07 3.015764e-30)
(-1.03993e-07 -7.607551e-08 -2.052837e-30)
(-4.895613e-07 7.239855e-07 3.851149e-29)
(-3.534622e-07 5.326798e-07 3.016205e-30)
(-8.213978e-07 1.270352e-06 7.182259e-30)
(-6.770458e-07 1.086657e-06 2.928486e-30)
(-1.187457e-06 1.886528e-06 4.260436e-30)
(-1.053324e-06 1.709725e-06 3.397045e-27)
(-1.561426e-06 2.572156e-06 2.461693e-30)
(-1.45e-06 2.40068e-06 -7.990276e-31)
(-1.938696e-06 3.356847e-06 2.503059e-30)
(-1.850881e-06 3.171095e-06 2.513859e-30)
(-2.233213e-06 4.010867e-06 2.927073e-27)
(-2.283591e-06 4.185247e-06 4.632309e-30)
(-2.400628e-07 2.709866e-07 -2.053208e-30)
(-1.14636e-07 -2.983429e-08 -3.535468e-27)
(-5.40978e-07 8.951361e-07 0)
(-3.897442e-07 6.699724e-07 0)
(-9.089475e-07 1.525777e-06 1.402442e-30)
(-7.4815e-07 1.315233e-06 0)
(-1.315346e-06 2.22277e-06 1.425528e-28)
(-1.165996e-06 2.026786e-06 -3.952549e-27)
(-1.73122e-06 2.983627e-06 -8.154435e-31)
(-1.606462e-06 2.801361e-06 -3.789401e-27)
(-2.15155e-06 3.838462e-06 2.076008e-30)
(-2.049055e-06 3.646279e-06 2.349849e-30)
(-2.475532e-06 4.553261e-06 2.06255e-30)
(-2.535824e-06 4.727475e-06 1.043295e-30)
(-2.64391e-07 3.686693e-07 -4.409831e-30)
(-1.257623e-07 2.303449e-08 -4.074218e-27)
(-5.969555e-07 1.089811e-06 0)
(-4.283708e-07 8.268752e-07 7.226057e-31)
(-1.005176e-06 1.815939e-06 -3.88579e-30)
(-8.250388e-07 1.576205e-06 -2.111204e-30)
(-1.456652e-06 2.604321e-06 -1.513985e-28)
(-1.289449e-06 2.388452e-06 -2.462947e-30)
(-1.91706e-06 3.45011e-06 -3.932867e-30)
(-1.780246e-06 3.258004e-06 -3.81302e-27)
(-2.376626e-06 4.368866e-06 2.364584e-30)
(-2.272452e-06 4.187254e-06 2.601586e-27)
(-2.752123e-06 5.172481e-06 0)
(-2.817688e-06 5.341853e-06 -2.058109e-30)
(-2.898303e-07 4.806761e-07 -1.653284e-30)
(-1.369177e-07 8.377487e-08 -2.374012e-30)
(-6.565019e-07 1.312958e-06 4.596075e-29)
(-4.680888e-07 1.007134e-06 3.918965e-30)
(-1.109289e-06 2.14836e-06 -6.892399e-31)
(-9.05938e-07 1.875955e-06 -5.515483e-27)
(-1.612725e-06 3.04125e-06 1.742301e-28)
(-1.421653e-06 2.803816e-06 1.422506e-30)
(-2.130718e-06 3.985035e-06 3.910898e-30)
(-1.969509e-06 3.782092e-06 4.839123e-27)
(-2.639553e-06 4.973223e-06 2.527484e-30)
(-2.520265e-06 4.805668e-06 8.103749e-30)
(-3.063879e-06 5.88312e-06 2.887311e-30)
(-3.143533e-06 6.041815e-06 -5.068435e-30)
(-3.152838e-07 6.095772e-07 3.194669e-30)
(-1.474896e-07 1.536631e-07 2.853309e-30)
(-7.175871e-07 1.569761e-06 1.633337e-31)
(-5.071304e-07 1.214584e-06 6.630186e-27)
(-1.218287e-06 2.530984e-06 -3.0366e-30)
(-9.880985e-07 2.221094e-06 -6.386808e-30)
(-1.778328e-06 3.544099e-06 5.544208e-30)
(-1.559076e-06 3.282494e-06 0)
(-2.357791e-06 4.59998e-06 4.203313e-28)
(-2.169794e-06 4.38712e-06 2.750277e-30)
(-2.930835e-06 5.688003e-06 5.037042e-28)
(-2.78807e-06 5.527205e-06 5.630858e-30)
(-3.406909e-06 6.711631e-06 5.753064e-30)
(-3.505089e-06 6.850931e-06 -3.265253e-32)
(-3.394641e-07 7.578969e-07 6.295927e-30)
(-1.567224e-07 2.338893e-07 6.048838e-27)
(-7.77725e-07 1.865481e-06 9.489614e-32)
(-5.432311e-07 1.452787e-06 7.267528e-30)
(-1.328881e-06 2.972095e-06 -3.353044e-30)
(-1.068087e-06 2.618059e-06 -7.35982e-27)
(-1.950439e-06 4.124876e-06 -2.792243e-30)
(-1.697498e-06 3.834197e-06 0)
(-2.598963e-06 5.31188e-06 -4.599039e-28)
(-2.376972e-06 5.086614e-06 -2.792642e-30)
(-3.247998e-06 6.519628e-06 5.623886e-28)
(-3.071909e-06 6.364987e-06 3.087818e-30)
(-3.773883e-06 7.672322e-06 -2.269681e-29)
(-3.907679e-06 7.793186e-06 1.851374e-31)
(-3.605737e-07 9.276596e-07 6.904986e-30)
(-1.640003e-07 3.253201e-07 5.908289e-30)
(-8.337604e-07 2.204998e-06 2.027957e-31)
(-5.740783e-07 1.724498e-06 8.885159e-27)
(-1.436712e-06 3.479555e-06 -3.624522e-30)
(-1.141751e-06 3.072047e-06 -3.621683e-30)
(-2.123931e-06 4.795178e-06 0)
(-1.831232e-06 4.467314e-06 -6.611403e-30)
(-2.848924e-06 6.137376e-06 3.082304e-30)
(-2.58457e-06 5.892933e-06 -2.751375e-30)
(-3.583272e-06 7.490613e-06 -2.204522e-29)
(-3.366511e-06 7.336372e-06 6.2263e-27)
(-4.169025e-06 8.798593e-06 -2.917036e-27)
(-4.33163e-06 8.876952e-06 -3.161894e-27)
(-3.773995e-07 1.120086e-06 2.879381e-28)
(-1.676552e-07 4.27736e-07 7.196622e-27)
(-8.824218e-07 2.591461e-06 3.436965e-30)
(-5.954807e-07 2.028595e-06 3.44552e-30)
(-1.536309e-06 4.059107e-06 -6.605995e-30)
(-1.203957e-06 3.585178e-06 3.0471e-30)
(-2.291775e-06 5.564176e-06 -5.202939e-28)
(-1.952948e-06 5.186695e-06 -9.571758e-27)
(-3.101443e-06 7.089824e-06 6.646872e-30)
(-2.782478e-06 6.814124e-06 1.214951e-30)
(-3.941922e-06 8.622299e-06 7.366495e-28)
(-3.658349e-06 8.452101e-06 8.91712e-27)
(-4.573046e-06 1.009133e-05 8.311477e-27)
(-4.799463e-06 1.013993e-05 2.489691e-27)
(-3.844846e-07 1.32968e-06 3.708835e-30)
(-1.678287e-07 5.380743e-07 3.675068e-30)
(-9.18313e-07 3.024952e-06 3.054695e-30)
(-6.072836e-07 2.363032e-06 0)
(-1.620854e-06 4.71241e-06 -2.402648e-28)
(-1.251313e-06 4.154348e-06 1.154796e-26)
(-2.443598e-06 6.435624e-06 -1.588362e-30)
(-2.055549e-06 5.990549e-06 -5.543617e-30)
(-3.339145e-06 8.175077e-06 1.129051e-29)
(-2.959105e-06 7.851095e-06 1.098494e-26)
(-4.286765e-06 9.915205e-06 1.076893e-29)
(-3.929694e-06 9.718579e-06 1.102782e-26)
(-4.962837e-06 1.158098e-05 -3.094961e-31)
(-5.276337e-06 1.162683e-05 1.009759e-29)
(-3.872436e-07 1.554453e-06 0)
(-1.656485e-07 6.54637e-07 3.192026e-30)
(-9.426093e-07 3.497346e-06 9.837662e-30)
(-6.087299e-07 2.716936e-06 -6.833088e-30)
(-1.686761e-06 5.433037e-06 9.800786e-30)
(-1.278526e-06 4.761956e-06 1.306957e-26)
(-2.571072e-06 7.404887e-06 8.695888e-30)
(-2.133936e-06 6.865602e-06 0)
(-3.549473e-06 9.393102e-06 1.272493e-29)
(-3.105376e-06 8.992817e-06 1.26382e-26)
(-4.603897e-06 1.137996e-05 3.00523e-31)
(-4.166554e-06 1.112895e-05 4.019907e-30)
(-5.319112e-06 1.326195e-05 -1.107104e-26)
(-5.725728e-06 1.333043e-05 -3.788001e-30)
(-3.834052e-07 1.797511e-06 8.995639e-28)
(-1.630969e-07 7.748008e-07 8.568663e-27)
(-9.441622e-07 3.979888e-06 -1.299149e-29)
(-6.037447e-07 3.075269e-06 -1.027153e-26)
(-1.728843e-06 6.202826e-06 -6.111818e-30)
(-1.287875e-06 5.384268e-06 -2.208499e-26)
(-2.669015e-06 8.454177e-06 4.80175e-30)
(-2.183083e-06 7.77352e-06 -9.915601e-30)
(-3.722346e-06 1.072701e-05 4.800616e-30)
(-3.216055e-06 1.020757e-05 1.289523e-29)
(-4.880571e-06 1.300685e-05 -9.246927e-30)
(-4.356258e-06 1.265324e-05 2.588611e-30)
(-5.620859e-06 1.510933e-05 -1.178978e-29)
(-6.146088e-06 1.526463e-05 -2.974247e-27)
(-3.817806e-07 2.040206e-06 -1.164612e-30)
(-1.653461e-07 8.882894e-07 5.27267e-30)
(-9.421672e-07 4.459034e-06 -2.426728e-29)
(-6.080556e-07 3.41826e-06 -5.20539e-30)
(-1.742032e-06 6.955873e-06 -2.855365e-29)
(-1.300805e-06 5.984629e-06 -9.155862e-27)
(-2.736499e-06 9.54422e-06 9.45793e-28)
(-2.221424e-06 8.67599e-06 -2.8576e-26)
(-3.850569e-06 1.21336e-05 1.068306e-29)
(-3.296163e-06 1.14366e-05 1.961778e-26)
(-5.096278e-06 1.475333e-05 1.008831e-27)
(-4.488303e-06 1.42254e-05 7.685549e-30)
(-5.839192e-06 1.705826e-05 7.426892e-30)
(-6.49237e-06 1.737856e-05 -3.653582e-27)
(-3.914962e-07 2.262238e-06 -5.354906e-28)
(-1.798291e-07 9.823701e-07 1.746702e-33)
(-9.624443e-07 4.924557e-06 -2.96326e-30)
(-6.392673e-07 3.718612e-06 3.408129e-33)
(-1.767619e-06 7.661931e-06 1.615983e-29)
(-1.342841e-06 6.519492e-06 -1.336994e-29)
(-2.794012e-06 1.059862e-05 -1.244391e-28)
(-2.267305e-06 9.490802e-06 -4.812591e-29)
(-3.936074e-06 1.353138e-05 5.895462e-30)
(-3.342033e-06 1.256994e-05 -2.562475e-29)
(-5.231245e-06 1.65279e-05 2.090568e-27)
(-4.548339e-06 1.572976e-05 -6.445547e-30)
(-5.936208e-06 1.89707e-05 9.953352e-30)
(-6.724478e-06 1.95861e-05 3.909565e-27)
(-4.276364e-07 2.4356e-06 6.126312e-28)
(-2.165481e-07 1.040579e-06 -5.524632e-31)
(-1.018735e-06 5.30757e-06 -1.037247e-29)
(-7.186013e-07 3.926194e-06 -6.836019e-31)
(-1.826132e-06 8.295261e-06 3.130046e-28)
(-1.435418e-06 6.934321e-06 -9.132302e-27)
(-2.820192e-06 1.147882e-05 2.795098e-27)
(-2.330545e-06 1.013681e-05 -1.048194e-26)
(-3.963779e-06 1.479785e-05 -1.061507e-27)
(-3.347876e-06 1.349229e-05 -7.952857e-30)
(-5.255278e-06 1.817529e-05 -1.154395e-29)
(-4.501115e-06 1.697222e-05 -3.588336e-26)
(-5.863697e-06 2.061661e-05 0)
(-6.782735e-06 2.169021e-05 -1.094115e-30)
(-5.07391e-07 2.527951e-06 0)
(-2.853559e-07 1.045308e-06 -1.09759e-30)
(-1.134696e-06 5.548981e-06 -7.66261e-30)
(-8.611151e-07 3.996243e-06 1.358513e-30)
(-1.931426e-06 8.743747e-06 -1.007451e-29)
(-1.582378e-06 7.157068e-06 -5.020607e-30)
(-2.846373e-06 1.210596e-05 -2.312301e-27)
(-2.413736e-06 1.052906e-05 -2.385018e-30)
(-3.888719e-06 1.568081e-05 -8.038341e-27)
(-3.318873e-06 1.405446e-05 -8.197429e-27)
(-5.123097e-06 1.945805e-05 1.301491e-29)
(-4.347105e-06 1.774565e-05 8.04833e-30)
(-5.605135e-06 2.165213e-05 -9.512058e-30)
(-6.601782e-06 2.336148e-05 5.531403e-30)
(-6.387471e-07 2.51039e-06 1.410397e-27)
(-3.919503e-07 9.853501e-07 7.543202e-30)
(-1.308358e-06 5.601503e-06 -3.83239e-28)
(-1.058459e-06 3.903441e-06 2.710433e-30)
(-2.063287e-06 8.935439e-06 2.645018e-30)
(-1.761883e-06 7.144042e-06 1.196562e-29)
(-2.876433e-06 1.243562e-05 -1.656138e-29)
(-2.505552e-06 1.059681e-05 0)
(-3.759406e-06 1.604037e-05 -2.209597e-29)
(-3.281722e-06 1.411315e-05 -1.336835e-26)
(-4.857103e-06 2.001969e-05 2.741927e-27)
(-4.161297e-06 1.774482e-05 -5.008637e-29)
(-5.244853e-06 2.156442e-05 -5.77553e-29)
(-6.195053e-06 2.409468e-05 -5.803155e-27)
(-8.110528e-07 2.375279e-06 -1.440235e-27)
(-5.347708e-07 8.675364e-07 -7.777264e-27)
(-1.511385e-06 5.4433e-06 1.066591e-29)
(-1.285455e-06 3.647712e-06 1.295787e-29)
(-2.203571e-06 8.801731e-06 9.327938e-30)
(-1.962124e-06 6.843446e-06 -5.442858e-27)
(-2.908802e-06 1.22627e-05 -4.11134e-30)
(-2.64221e-06 1.018165e-05 -5.135883e-30)
(-3.658282e-06 1.571177e-05 -6.408769e-27)
(-3.348318e-06 1.342869e-05 -1.406079e-29)
(-4.557047e-06 1.931447e-05 6.007715e-26)
(-4.147074e-06 1.655056e-05 8.783027e-27)
(-5.113782e-06 1.978334e-05 -6.859592e-29)
(-5.739241e-06 2.322362e-05 -6.467549e-27)
(-1.007984e-06 2.135824e-06 -1.467624e-27)
(-7.024706e-07 7.099251e-07 9.162237e-30)
(-1.735521e-06 5.04604e-06 2.167995e-29)
(-1.52929e-06 3.218582e-06 -1.551979e-26)
(-2.399837e-06 8.220211e-06 4.954426e-30)
(-2.226922e-06 6.148954e-06 -9.382291e-31)
(-3.080095e-06 1.134232e-05 5.411745e-27)
(-2.941827e-06 9.064928e-06 -2.549469e-30)
(-3.823567e-06 1.423578e-05 6.732017e-27)
(-3.732013e-06 1.166318e-05 -3.960235e-30)
(-4.680164e-06 1.69756e-05 2.776217e-26)
(-4.661558e-06 1.388471e-05 -2.971688e-29)
(-5.835707e-06 1.599762e-05 -1.999491e-29)
(-5.791134e-06 2.016314e-05 5.978337e-26)
(-1.219953e-06 1.780005e-06 -1.415857e-29)
(-8.798141e-07 5.160599e-07 -8.708159e-30)
(-2.021304e-06 4.322518e-06 1.411779e-27)
(-1.7968e-06 2.558834e-06 5.532899e-26)
(-2.768031e-06 6.992147e-06 -2.320454e-27)
(-2.620891e-06 4.87467e-06 2.53336e-26)
(-3.591936e-06 9.383405e-06 8.531323e-30)
(-3.553981e-06 6.966015e-06 -2.110606e-29)
(-4.565239e-06 1.130499e-05 1.047144e-26)
(-4.686376e-06 8.475188e-06 -2.811635e-26)
(-5.782212e-06 1.281073e-05 -5.074828e-30)
(-6.192421e-06 9.365158e-06 -2.76071e-29)
(-9.142658e-06 8.813888e-06 1.385488e-29)
(-7.707327e-06 1.377917e-05 -1.453378e-28)
(-1.447753e-06 1.277153e-06 -4.303499e-29)
(-1.047985e-06 2.726136e-07 2.498008e-26)
(-2.394674e-06 3.099555e-06 8.064456e-27)
(-2.085939e-06 1.577149e-06 -3.568175e-29)
(-3.411362e-06 4.845086e-06 -4.646974e-29)
(-3.168635e-06 2.788874e-06 -2.278911e-29)
(-4.64725e-06 6.055928e-06 -1.684421e-29)
(-4.571622e-06 3.567079e-06 7.513317e-26)
(-6.307657e-06 6.537207e-06 2.574015e-26)
(-6.496019e-06 3.50986e-06 -2.580811e-29)
(-9.459508e-06 5.446476e-06 -9.284714e-30)
(-1.015716e-05 1.433953e-06 1.315696e-25)
(-2.596032e-05 -1.630463e-05 3.155783e-23)
(-2.11167e-05 -5.049815e-06 -3.542966e-24)
(-1.677918e-06 5.676049e-07 1.330876e-27)
(-1.163824e-06 -6.247532e-08 -8.017694e-31)
(-2.84578e-06 1.258377e-06 -1.372151e-30)
(-2.346503e-06 1.751144e-07 1.357397e-30)
(-4.332092e-06 1.487629e-06 1.516142e-30)
(-3.838421e-06 -2.880102e-07 2.73585e-30)
(-6.44119e-06 9.846154e-07 -3.152515e-29)
(-6.044602e-06 -1.430392e-06 -1.16468e-25)
(-1.034398e-05 -1.61234e-06 -8.169703e-29)
(-1.006461e-05 -4.567664e-06 3.108664e-25)
(-2.726185e-05 -1.961688e-05 -6.819747e-24)
(-2.455078e-05 -2.382356e-05 -4.805622e-29)
(-7.64527e-05 -0.000110203 1.459077e-28)
(-8.754259e-05 -0.0001017199 7.375685e-28)
(-1.828909e-06 -4.549695e-07 1.18917e-29)
(-1.156932e-06 -5.433653e-07 -3.516045e-26)
(-3.322026e-06 -1.349487e-06 -2.054029e-27)
(-2.509985e-06 -1.798191e-06 2.703585e-30)
(-5.515611e-06 -3.169706e-06 8.544983e-30)
(-4.574142e-06 -4.421037e-06 8.829348e-30)
(-9.696883e-06 -7.068099e-06 3.848302e-25)
(-8.501034e-06 -9.096308e-06 -1.085846e-29)
(-2.623516e-05 -2.657352e-05 -1.883419e-28)
(-1.883894e-05 -2.520713e-05 -1.568291e-22)
(-8.656346e-05 -0.0001090896 2.728521e-29)
(-5.994066e-05 -0.0001032373 -1.670301e-28)
(-0.0001357887 -0.0002721138 -5.005276e-28)
(-0.0001772107 -0.0002537295 6.6058e-29)
(-1.834591e-06 -1.88551e-06 9.210743e-30)
(-1.001626e-06 -1.231682e-06 9.211998e-30)
(-3.756027e-06 -4.861729e-06 6.115657e-30)
(-2.588701e-06 -4.442926e-06 5.80481e-30)
(-7.495817e-06 -1.023594e-05 -4.290035e-26)
(-5.631499e-06 -1.033802e-05 2.261205e-29)
(-1.922429e-05 -2.655536e-05 -1.965362e-28)
(-1.253511e-05 -2.435358e-05 -6.299747e-23)
(-6.745569e-05 -9.811681e-05 -3.552705e-28)
(-3.794825e-05 -8.626773e-05 3.607934e-29)
(-0.000161742 -0.0002503257 -3.818011e-22)
(-0.0001023865 -0.0002475678 -8.512616e-28)
(-0.0001567042 -0.0004358952 -6.979004e-21)
(-0.0002430661 -0.0003982244 8.004477e-22)
(-1.747508e-06 -3.782481e-06 5.793312e-30)
(-8.107856e-07 -2.17528e-06 0)
(-4.464383e-06 -9.937487e-06 -2.211162e-26)
(-2.834444e-06 -7.956958e-06 2.152374e-29)
(-1.20191e-05 -2.424923e-05 2.815605e-24)
(-7.119271e-06 -2.008252e-05 1.38308e-29)
(-4.301876e-05 -7.873274e-05 1.153755e-28)
(-1.780939e-05 -6.207101e-05 -4.228997e-22)
(-0.0001185927 -0.0002167401 -4.470342e-28)
(-5.78324e-05 -0.0002000612 1.535174e-21)
(-0.0002101098 -0.0003915693 -3.102758e-21)
(-0.000114215 -0.0004131733 -3.600421e-28)
(-0.0001315124 -0.0005680865 -2.161548e-20)
(-0.0002765094 -0.0005211851 -1.209218e-27)
(-1.881556e-06 -6.312045e-06 1.55946e-29)
(-7.68747e-07 -3.252244e-06 9.670721e-30)
(-6.149572e-06 -1.825512e-05 1.279466e-29)
(-3.759131e-06 -1.299854e-05 -2.095791e-25)
(-2.27155e-05 -5.629441e-05 -4.109199e-28)
(-9.147416e-06 -4.208533e-05 -2.800535e-30)
(-7.511013e-05 -0.0001700294 -5.190517e-29)
(-2.567328e-05 -0.0001396338 -2.290276e-21)
(-0.0001567161 -0.0003517659 6.824969e-22)
(-6.421342e-05 -0.0003420951 1.031219e-27)
(-0.0002296072 -0.0005140127 2.480385e-21)
(-8.68723e-05 -0.0005493137 2.9419e-28)
(-7.55188e-05 -0.0006994885 8.486274e-21)
(-0.0002755046 -0.000614767 -7.886794e-21)
(-2.623002e-06 -9.877335e-06 -7.888168e-27)
(-9.61134e-07 -4.512694e-06 -4.656926e-26)
(-1.125669e-05 -3.585455e-05 -9.740713e-24)
(-3.749406e-06 -2.134005e-05 2.476271e-29)
(-4.129761e-05 -0.0001170542 8.492884e-23)
(-9.620735e-06 -8.474172e-05 1.243365e-29)
(-0.0001035482 -0.0002823771 1.05213e-21)
(-2.975866e-05 -0.0002511803 -4.194881e-29)
(-0.0001758847 -0.0004726575 6.763979e-28)
(-4.876102e-05 -0.0004699401 9.137527e-21)
(-0.000230397 -0.0006120505 1.925615e-28)
(-3.825601e-05 -0.0006552819 -1.771721e-28)
(-1.403487e-06 -0.0007955471 8.917671e-29)
(-0.0002716124 -0.0007157616 5.240494e-21)
(-4.235289e-06 -1.604104e-05 2.582931e-29)
(-1.100343e-06 -6.060821e-06 8.317469e-24)
(-1.991886e-05 -6.608716e-05 1.944404e-29)
(-1.995248e-06 -3.753721e-05 1.999438e-29)
(-6.065423e-05 -0.0001954351 1.196688e-29)
(-6.362729e-06 -0.0001486476 -8.43846e-29)
(-0.0001207247 -0.0003864803 1.907455e-28)
(-1.635566e-05 -0.000358602 9.974351e-29)
(-0.0001747037 -0.0005565393 1.015261e-29)
(-1.168225e-05 -0.0005770355 -6.639272e-21)
(-0.0002147358 -0.0006758718 -9.116543e-21)
(2.102548e-05 -0.0007407644 -2.305775e-28)
(8.20738e-05 -0.0008471452 -1.823205e-28)
(-0.0002522301 -0.0007884743 -4.56857e-29)
(-6.766514e-06 -2.707319e-05 2.539673e-24)
(3.143039e-07 -9.096514e-06 1.312486e-29)
(-2.897558e-05 -0.0001087658 -8.384161e-29)
(2.280682e-06 -6.541441e-05 2.129994e-29)
(-7.219938e-05 -0.0002725519 3.330312e-30)
(4.356462e-06 -0.0002215519 -2.535269e-21)
(-0.0001225901 -0.0004636636 1.203024e-21)
(1.282491e-05 -0.0004443494 1.014272e-28)
(-0.0001644911 -0.0006144749 1.965077e-21)
(4.354215e-05 -0.0006399575 -8.76893e-21)
(-0.0001968448 -0.0007249334 -5.75853e-21)
(9.761934e-05 -0.0007904893 -1.982221e-29)
(0.0001679178 -0.0009295537 -6.782873e-30)
(-0.0002161776 -0.0008200441 -8.406267e-29)
(-9.545344e-06 -4.472383e-05 8.21291e-24)
(2.706017e-06 -1.536826e-05 -1.762475e-30)
(-3.39476e-05 -0.0001569793 -9.226802e-29)
(9.500246e-06 -0.000102376 8.112919e-30)
(-7.210651e-05 -0.0003360543 -9.872649e-29)
(2.340875e-05 -0.0002857841 -1.036753e-28)