/*--------------------------------*- C++ -*----------------------------------*\
| =========                 |                                                 |
| \\      /  F ield         | OpenFOAM: The Open Source CFD Toolbox           |
|  \\    /   O peration     | Version:  2206                                  |
|   \\  /    A nd           | Website:  www.openfoam.com                      |
|    \\/     M anipulation  |                                                 |
\*---------------------------------------------------------------------------*/
FoamFile
{
    version     2.0;
    format      ascii;
    arch        "LSB;label=32;scalar=64";
    class       surfaceVectorField;
    location    "2.2";
    object      Ufb;
}
// * * * * * * * * * * * * * * * * * * * * * * * * * * * * * * * * * * * * * //

dimensions      [0 1 -1 0 0 0 0];

internalField   nonuniform List<vector> 
26037
(
(-1.495841e-05 0.0001110461 1.271041e-21)
(1.10455e-05 2.670878e-05 -3.165535e-27)
(-9.742907e-06 6.489836e-05 -2.349888e-22)
(7.494792e-06 5.179291e-05 4.757543e-24)
(-9.380761e-06 4.220999e-05 2.135524e-27)
(-6.039716e-06 4.868497e-05 2.140373e-27)
(-9.22381e-06 3.844691e-05 6.940212e-28)
(-1.144168e-05 4.117665e-05 0)
(-8.98382e-06 4.050395e-05 6.013611e-24)
(-1.176714e-05 4.011665e-05 6.988815e-28)
(-8.728504e-06 4.339908e-05 1.368918e-27)
(-1.149262e-05 4.242321e-05 6.531142e-27)
(-1.106913e-05 4.528604e-05 6.913994e-28)
(-8.431886e-06 4.632252e-05 1.230772e-25)
(-1.65124e-06 5.5794e-05 -9.332523e-30)
(5.160371e-05 9.069975e-06 1.270428e-27)
(-6.888956e-06 4.788651e-05 -9.422222e-30)
(9.153059e-06 3.866699e-05 -4.600556e-28)
(-1.206718e-05 3.968102e-05 0)
(-9.247048e-06 4.020615e-05 -6.400814e-28)
(-1.423797e-05 3.889411e-05 4.944909e-30)
(-1.52058e-05 3.871755e-05 -1.307202e-27)
(-1.433271e-05 4.106642e-05 7.513551e-30)
(-1.666814e-05 4.02774e-05 1.188132e-25)
(-1.390499e-05 4.40178e-05 7.614253e-30)
(-1.670771e-05 4.314045e-05 2.570198e-30)
(-1.605978e-05 4.625202e-05 2.486061e-26)
(-1.319802e-05 4.703266e-05 7.028378e-28)
(1.813588e-05 2.891958e-05 8.177015e-28)
(9.316759e-06 9.431179e-06 1.691403e-22)
(-5.168588e-06 3.352201e-05 -1.096809e-27)
(-7.271258e-06 2.610409e-05 -5.438208e-23)
(-1.574658e-05 3.594771e-05 1.345814e-24)
(-1.637262e-05 3.248493e-05 -3.519185e-29)
(-1.89656e-05 3.864311e-05 -1.583593e-24)
(-2.059404e-05 3.666603e-05 -8.98415e-28)
(-1.957626e-05 4.182683e-05 -6.687673e-28)
(-2.214369e-05 4.054722e-05 -1.880377e-25)
(-1.909448e-05 4.522403e-05 3.990893e-33)
(-2.21059e-05 4.428279e-05 0)
(-2.114767e-05 4.785498e-05 -3.088635e-26)
(-1.800984e-05 4.849201e-05 -7.227081e-28)
(-5.47287e-06 1.92636e-05 3.798203e-28)
(-1.139599e-05 8.230268e-06 1.450354e-28)
(-1.611504e-05 2.814655e-05 8.550632e-28)
(-1.905058e-05 2.179614e-05 -2.354082e-23)
(-2.209284e-05 3.407441e-05 4.940471e-25)
(-2.431148e-05 2.998231e-05 -2.196808e-24)
(-2.459671e-05 3.873172e-05 4.049254e-28)
(-2.713731e-05 3.615087e-05 3.966405e-24)
(-2.512538e-05 4.300507e-05 -1.770924e-29)
(-2.811231e-05 4.129467e-05 -6.377124e-30)
(-2.441419e-05 4.700612e-05 -8.827628e-30)
(-2.774974e-05 4.595408e-05 3.895438e-32)
(-2.638719e-05 5.009377e-05 -7.11295e-28)
(-2.291245e-05 5.065025e-05 7.259693e-28)
(-2.076962e-05 1.590131e-05 -5.395406e-25)
(-2.508904e-05 7.453314e-06 3.858218e-30)
(-2.602538e-05 2.59988e-05 -6.437653e-25)
(-2.933311e-05 2.008094e-05 5.166335e-28)
(-2.952707e-05 3.350451e-05 2.603983e-27)
(-3.266105e-05 2.926635e-05 1.237809e-27)
(-3.105169e-05 3.945038e-05 -5.498992e-25)
(-3.440381e-05 3.664832e-05 2.48032e-24)
(-3.106351e-05 4.465286e-05 -3.103447e-24)
(-3.463575e-05 4.274325e-05 -2.735543e-24)
(-2.996604e-05 4.935317e-05 2.17835e-24)
(-3.371217e-05 4.81279e-05 6.844638e-28)
(-3.187306e-05 5.295227e-05 7.735862e-26)
(-2.79869e-05 5.348983e-05 -7.02466e-28)
(-3.266901e-05 1.430709e-05 -1.78605e-29)
(-3.735648e-05 6.979779e-06 0)
(-3.560339e-05 2.500547e-05 4.59957e-25)
(-3.966621e-05 1.932033e-05 1.095836e-27)
(-3.762566e-05 3.3657e-05 -7.175165e-25)
(-4.152873e-05 2.930216e-05 1.550632e-27)
(-3.82608e-05 4.07887e-05 5.464164e-25)
(-4.232144e-05 3.768859e-05 1.410203e-27)
(-3.756889e-05 4.685484e-05 6.092029e-28)
(-4.183289e-05 4.486318e-05 3.366801e-24)
(-3.586362e-05 5.223355e-05 -3.180151e-24)
(-4.02269e-05 5.098183e-05 6.047433e-28)
(-3.772792e-05 5.639135e-05 1.536256e-27)
(-3.334718e-05 5.697657e-05 -2.677781e-24)
(-4.411605e-05 1.356294e-05 1.113122e-27)
(-4.933909e-05 6.782514e-06 -2.846111e-27)
(-4.556234e-05 2.476572e-05 2.636602e-27)
(-5.044981e-05 1.918081e-05 1.682104e-24)
(-4.642606e-05 3.436658e-05 -4.89476e-24)
(-5.11876e-05 2.98952e-05 2.484384e-24)
(-4.622019e-05 4.261773e-05 1.5337e-27)
(-5.105745e-05 3.928192e-05 5.283405e-28)
(-4.479903e-05 4.968348e-05 4.558012e-25)
(-4.97605e-05 4.749812e-05 3.61055e-27)
(-4.235914e-05 5.578142e-05 -9.05528e-29)
(-4.746093e-05 5.457914e-05 -1.854295e-28)
(-4.418894e-05 6.06346e-05 -1.043065e-28)
(-3.910158e-05 6.111561e-05 2.868182e-29)
(-5.577233e-05 1.339994e-05 -1.434162e-27)
(-6.157888e-05 6.826109e-06 -5.861263e-24)
(-5.624964e-05 2.513744e-05 2.808573e-27)
(-6.189688e-05 1.958047e-05 -2.036804e-27)
(-5.611242e-05 3.563771e-05 1.409948e-27)
(-6.17279e-05 3.105535e-05 -3.463311e-28)
(-5.497667e-05 4.500722e-05 2.625699e-27)
(-6.070698e-05 4.148654e-05 -7.124165e-29)
(-5.278987e-05 5.310047e-05 2.511067e-27)
(-5.857475e-05 5.075662e-05 9.336947e-24)
(-4.961716e-05 6.011349e-05 4.515947e-25)
(-5.548311e-05 5.882687e-05 -1.96095e-28)
(-5.140742e-05 6.57897e-05 -1.050277e-28)
(-4.55018e-05 6.609504e-05 7.894497e-28)
(-6.801168e-05 1.370186e-05 -3.448535e-27)
(-7.445464e-05 7.07359e-06 9.426485e-24)
(-6.774392e-05 2.613484e-05 -5.191377e-27)
(-7.421974e-05 2.047449e-05 -1.010988e-23)
(-6.675238e-05 3.758675e-05 4.920718e-25)
(-7.32902e-05 3.284945e-05 -5.394903e-24)
(-6.473322e-05 4.805283e-05 6.080391e-27)
(-7.142519e-05 4.434972e-05 3.750082e-27)
(-6.1698e-05 5.721261e-05 4.921068e-25)
(-6.841417e-05 5.472981e-05 1.088245e-23)
(-5.767312e-05 6.521157e-05 -1.011148e-28)
(-6.444333e-05 6.385945e-05 -1.010836e-28)
(-5.944866e-05 7.178871e-05 0)
(-5.26934e-05 7.206065e-05 -1.180687e-27)
(-8.112253e-05 1.437676e-05 7.032967e-29)
(-8.827166e-05 7.492968e-06 4.184913e-27)
(-8.025897e-05 2.769496e-05 -6.124026e-27)
(-8.761433e-05 2.181295e-05 -4.11687e-27)
(-7.850016e-05 4.019938e-05 1.751339e-27)
(-8.602072e-05 3.525236e-05 -6.704132e-27)
(-7.560492e-05 5.182616e-05 3.795243e-27)
(-8.334451e-05 4.792679e-05 1.272104e-23)
(-7.165887e-05 6.212483e-05 2.543422e-30)
(-7.941558e-05 5.950849e-05 -1.253623e-23)
(-6.668391e-05 7.119296e-05 0)
(-7.448206e-05 6.978948e-05 0)
(-6.845865e-05 7.878045e-05 0)
(-6.069879e-05 7.90028e-05 -1.634962e-27)
(-9.53584e-05 1.537454e-05 0)
(-0.0001033081 8.0668e-06 0)
(-9.398456e-05 2.979746e-05 -4.694917e-27)
(-0.0001022946 2.357461e-05 5.633733e-27)
(-9.150884e-05 4.350347e-05 -3.346947e-28)
(-0.0001000912 3.827579e-05 -1.536379e-23)
(-8.773022e-05 5.640428e-05 4.431697e-27)
(-9.661495e-05 5.227459e-05 -6.220299e-28)
(-8.281283e-05 6.794348e-05 -2.86331e-30)
(-9.172514e-05 6.518505e-05 1.439058e-23)
(-7.679067e-05 7.818156e-05 0)
(-8.574452e-05 7.673392e-05 0)
(-7.857796e-05 8.689727e-05 -4.392354e-27)
(-6.967791e-05 8.705246e-05 1.576574e-27)
(-0.0001109717 1.667131e-05 5.63139e-27)
(-0.0001198371 8.78851e-06 0)
(-0.0001091284 3.243867e-05 1.81279e-28)
(-0.0001184961 2.57563e-05 1.824674e-23)
(-0.0001059542 4.753282e-05 -1.055559e-26)
(-0.0001157015 4.194372e-05 -5.390027e-27)
(-0.0001012688 6.186119e-05 -4.81453e-25)
(-0.0001114121 5.745154e-05 -1.684786e-23)
(-9.531327e-05 7.477667e-05 5.001407e-27)
(-0.0001055103 7.185335e-05 1.063307e-26)
(-8.814075e-05 8.630738e-05 -4.390842e-27)
(-9.838814e-05 8.48163e-05 -5.198526e-27)
(-8.995604e-05 9.628205e-05 -1.387317e-23)
(-7.977221e-05 9.635481e-05 1.259544e-24)
(-0.0001282251 1.826223e-05 6.551464e-27)
(-0.0001381395 9.658983e-06 7.631142e-27)
(-0.000125922 3.563228e-05 -2.66392e-25)
(-0.0001364754 2.837005e-05 6.552536e-27)
(-0.0001220376 5.233248e-05 -5.830413e-27)
(-0.0001330794 4.62953e-05 1.482433e-28)
(-0.0001164067 6.827111e-05 -2.523961e-28)
(-0.0001279335 6.352218e-05 -5.865815e-27)
(-0.0001093354 8.274003e-05 4.241015e-28)
(-0.0001209722 7.960235e-05 1.965966e-23)
(-0.0001008949 9.570989e-05 -5.202967e-27)
(-0.0001125877 9.416943e-05 -1.734105e-23)
(-0.0001027558 0.0001070904 1.573634e-23)
(-9.113082e-05 0.0001070674 -4.368929e-30)
(-0.0001473991 2.015527e-05 7.632614e-27)
(-0.0001585146 1.068433e-05 2.505109e-23)
(-0.0001446237 3.940829e-05 7.760774e-29)
(-0.0001565165 3.144061e-05 0)
(-0.0001399804 5.796548e-05 -4.887319e-25)
(-0.0001524886 5.139721e-05 2.495489e-28)
(-0.0001333707 7.569029e-05 1.311192e-26)
(-0.0001463982 7.063719e-05 -9.339687e-27)
(-0.000125096 9.195948e-05 6.936875e-27)
(-0.0001383822 8.844182e-05 2.466686e-23)
(-0.0001152327 0.0001065397 -5.792119e-28)
(-0.0001285393 0.0001049233 -5.95566e-27)
(-0.0001171605 0.0001194931 -7.516634e-28)
(-0.0001039179 0.0001193642 1.046489e-27)
(-0.0001687992 2.236647e-05 8.742883e-27)
(-0.0001812843 1.18732e-05 8.738855e-27)
(-0.0001655331 4.380998e-05 1.717453e-28)
(-0.0001789355 3.499109e-05 9.781842e-27)
(-0.0001600355 6.454322e-05 -8.593774e-25)
(-0.0001742802 5.725806e-05 1.717891e-28)
(-0.0001525201 8.421142e-05 8.997334e-24)
(-0.0001673352 7.871551e-05 -2.271043e-23)
(-0.0001428925 0.0001025439 5.065192e-27)
(-0.0001581163 9.8702e-05 4.762843e-27)
(-0.0001313667 0.0001189618 -6.128986e-27)
(-0.0001464992 0.0001172574 -3.935406e-28)
(-0.0001333827 0.000133685 -2.026999e-23)
(-0.0001183192 0.0001334405 -1.15188e-26)
(-0.0001927508 2.491448e-05 9.777118e-27)
(-0.0002067954 1.324171e-05 0)
(-0.0001889598 4.885227e-05 9.783815e-27)
(-0.0002040487 3.90729e-05 3.22081e-23)
(-0.0001827098 7.196982e-05 -9.259634e-27)
(-0.0001986568 6.397333e-05 1.072198e-28)
(-0.0001740913 9.390692e-05 1.37707e-24)
(-0.000190684 8.78668e-05 -9.121854e-27)
(-0.0001627529 0.0001146654 -7.247382e-28)
(-0.0001800793 0.0001105034 -3.305283e-28)
(-0.0001495202 0.0001331724 1.651723e-24)
(-0.0001667047 0.0001313621 -3.933696e-28)
(-0.0001516597 0.0001498865 -7.427047e-27)
(-0.0001345464 0.0001495173 -7.925063e-27)
(-0.0002196205 2.784452e-05 2.227761e-26)
(-0.000235447 1.480998e-05 1.292399e-26)
(-0.0002152343 5.465968e-05 2.240006e-26)
(-0.0002322593 4.375054e-05 3.66914e-23)
(-0.0002080573 8.057652e-05 -5.488729e-25)
(-0.0002260609 7.168462e-05 3.476803e-28)
(-0.0001981701 0.0001051763 1.498599e-28)
(-0.0002169218 9.848937e-05 3.128837e-28)
(-0.0001851369 0.0001285288 0)
(-0.0002047725 0.0001239422 0)
(-0.0001699779 0.0001493869 0)
(-0.0001894716 0.0001474344 1.048611e-26)
(-0.0001722642 0.0001683427 1.128756e-27)
(-0.000152841 0.0001678418 5.552623e-28)
(-0.0002498251 3.119167e-05 2.171008e-25)
(-0.0002676777 1.65974e-05 4.26878e-23)
(-0.0002447784 6.12877e-05 -3.968686e-25)
(-0.0002639949 4.908041e-05 2.714038e-26)
(-0.0002365564 9.038572e-05 -6.083935e-25)
(-0.0002568987 8.046639e-05 6.450826e-28)
(-0.0002252443 0.0001180215 1.680194e-28)
(-0.0002464485 0.0001105932 5.36651e-28)
(-0.000210358 0.0001442935 1.060801e-26)
(-0.000232566 0.0001392055 0)
(-0.0001930508 0.0001678487 -2.048022e-24)
(-0.0002151744 0.0001656704 3.51654e-23)
(-0.0001955056 0.0001893305 1.762901e-27)
(-0.0001734774 0.0001886918 -2.284517e-24)
(-0.0002838235 3.499938e-05 2.389767e-25)
(-0.0003039761 1.862706e-05 3.135839e-26)
(-0.0002780388 6.882628e-05 -4.42827e-25)
(-0.0002997354 5.513242e-05 4.733248e-23)
(-0.0002686466 0.0001015432 -1.351783e-24)
(-0.0002916407 9.044336e-05 1.618493e-26)
(-0.0002557064 0.000132631 3.77258e-28)
(-0.0002797194 0.0001243931 3.712215e-28)
(-0.0002388338 0.0001620989 1.147848e-26)
(-0.0002638378 0.0001567243 -3.986189e-27)
(-0.0002191401 0.0001888332 1.197133e-26)
(-0.0002443415 0.0001860887 5.437419e-27)
(-0.0002217349 0.000213128 -7.903579e-28)
(-0.000196772 0.00021238 -2.540743e-24)
(-0.0003221272 3.931617e-05 4.932777e-26)
(-0.000344885 2.092405e-05 5.4777e-23)
(-0.000315523 7.737286e-05 4.844136e-26)
(-0.0003400161 6.197877e-05 5.342807e-23)
(-0.0003048557 0.0001142138 1.579191e-26)
(-0.0003308309 0.0001017154 5.130774e-23)
(-0.0002900255 0.0001493477 -3.950054e-27)
(-0.0003174174 0.0001399234 1.657887e-26)
(-0.0002713522 0.0001822752 1.693973e-23)
(-0.0002997489 0.0001762874 -4.558608e-27)
(-0.0002487994 0.0002125993 5.913876e-24)
(-0.0002777858 0.0002095124 8.395581e-27)
(-0.0002514197 0.0002401103 -1.370869e-26)
(-0.0002231038 0.0002392522 -1.424594e-27)
(-0.0003653013 4.419462e-05 -2.004367e-25)
(-0.0003910077 2.351956e-05 1.892645e-26)
(-0.0003577725 8.701847e-05 6.493654e-25)
(-0.0003854173 6.971313e-05 6.054117e-23)
(-0.0003456981 0.0001284494 5.218192e-26)
(-0.0003749777 0.0001144468 5.870562e-23)
(-0.0003291212 0.0001678593 1.984496e-24)
(-0.0003597526 0.0001574277 5.630272e-23)
(-0.0003082238 0.0002048272 1.35117e-26)
(-0.0003397975 0.0001980633 -5.892992e-28)
(-0.0002820178 0.0002394547 1.699002e-27)
(-0.0003149748 0.0002361036 4.594389e-23)
(-0.000284993 0.0002706596 -4.441524e-23)
(-0.000252878 0.0002697028 -3.188462e-24)
(-0.0004139831 4.970509e-05 2.085e-26)
(-0.000443026 2.644678e-05 -2.427104e-26)
(-0.0004054086 9.792302e-05 6.843779e-25)
(-0.0004366202 7.843862e-05 2.085305e-26)
(-0.0003917217 0.0001445959 5.867104e-26)
(-0.000424792 0.0001288272 2.006988e-26)
(-0.0003729828 0.0001890455 3.866604e-26)
(-0.0004075676 0.000177277 6.369643e-23)
(-0.0003493666 0.0002307401 1.597668e-26)
(-0.0003849992 0.000223091 -2.121409e-26)
(-0.0003196423 0.0002698572 1.603249e-26)
(-0.0003568914 0.0002660413 1.631524e-26)
(-0.0003230493 0.0003051028 5.447016e-23)
(-0.0002866182 0.0003041801 1.09704e-26)
(-0.0004688862 5.591048e-05 -2.427542e-26)
(-0.0005016913 2.973702e-05 -7.869211e-23)
(-0.000459147 0.000110206 0)
(-0.0004943675 8.824865e-05 0)
(-0.0004436766 0.0001627916 -5.777735e-28)
(-0.0004810066 0.0001450025 0)
(-0.0004224961 0.0002129289 2.483223e-24)
(-0.0004615729 0.0001996347 -7.262567e-23)
(-0.0003957327 0.0002599721 -2.164993e-26)
(-0.000436061 0.0002514547 -7.141528e-23)
(-0.0003622957 0.0003039454 1.707164e-26)
(-0.000404178 0.0003002675 2.119695e-26)
(-0.0003664975 0.0003434479 1.696097e-26)
(-0.0003249374 0.0003431481 3.381709e-26)
(-0.0005307961 6.287536e-05 -5.495959e-26)
(-0.0005678322 3.342315e-05 -8.824238e-23)
(-0.0005197658 0.0001239949 0)
(-0.0005594775 9.923974e-05 -1.650596e-28)
(-0.0005023458 0.0001832353 -2.406329e-26)
(-0.0005444371 0.0001631267 -2.963263e-26)
(-0.0004785357 0.0002398451 -2.575768e-24)
(-0.0005226292 0.0002246732 -2.481678e-26)
(-0.0004481786 0.0002932889 -2.520722e-26)
(-0.0004942179 0.0002831229 -7.274819e-23)
(-0.0004115219 0.0003425861 2.132987e-26)
(-0.0004591194 0.000338261 5.602328e-23)
(-0.0004169036 0.0003873768 0)
(-0.0003687393 0.0003871755 -1.683138e-26)
(-0.0006005718 7.06652e-05 -3.125579e-26)
(-0.0006423492 3.753767e-05 -3.107224e-26)
(-0.00058811 0.0001394182 8.551643e-25)
(-0.0006328402 0.0001115142 3.41874e-26)
(-0.0005685415 0.0002060879 -3.038732e-26)
(-0.000615943 0.0001833844 -9.447702e-23)
(-0.0005418721 0.0002698084 2.958751e-24)
(-0.0005914586 0.0002526821 -7.49615e-28)
(-0.0005081675 0.0003297865 2.310314e-26)
(-0.0005595363 0.0003185032 8.849972e-23)
(-0.0004676454 0.0003853579 2.472771e-26)
(-0.0005201912 0.0003801231 1.903346e-26)
(-0.0004728258 0.0004370628 -2.924891e-27)
(-0.0004178875 0.0004366343 -1.627051e-26)
(-0.0006791538 7.93453e-05 3.433042e-26)
(-0.0007262231 4.210704e-05 3.970424e-26)
(-0.0006651189 0.0001566276 1.169031e-27)
(-0.0007154464 0.000125165 1.080652e-22)
(-0.0006431958 0.0002316418 -3.321847e-26)
(-0.0006965392 0.0002059538 -7.070234e-26)
(-0.0006133254 0.0003034833 2.758626e-26)
(-0.0006691807 0.0002839677 0)
(-0.0005756006 0.000371314 7.828252e-24)
(-0.0006335026 0.0003582562 2.997882e-26)
(-0.0005302248 0.0004343421 1.164669e-23)
(-0.0005894714 0.0004279537 -5.073975e-27)
(-0.0005363321 0.0004927611 -6.216722e-27)
(-0.0004739728 0.0004927904 4.761598e-28)
(-0.0007675612 8.895609e-05 7.851357e-26)
(-0.0008204827 4.714771e-05 1.201637e-22)
(-0.0007518323 0.0001757369 1.352676e-27)
(-0.0008083674 0.0001402352 8.262561e-26)
(-0.0007273824 0.0002600601 -3.751503e-26)
(-0.0007873012 0.0002309583 -1.179381e-22)
(-0.0006940848 0.0003409977 2.386424e-27)
(-0.0007568864 0.0003186973 0)
(-0.0006519725 0.0004176402 -8.542041e-24)
(-0.0007171907 0.0004024947 2.386765e-27)
(-0.0006011891 0.0004890585 1.269622e-23)
(-0.0006680663 0.0004815746 3.514058e-26)
(-0.0006087495 0.0005559664 -6.8099e-27)
(-0.0005385907 0.000555471 -2.788114e-26)
(-0.0008668804 9.948512e-05 8.863392e-26)
(-0.000926212 5.261756e-05 9.54657e-26)
(-0.0008493764 0.0001968219 1.447545e-27)
(-0.0009127716 0.0001567387 1.352581e-22)
(-0.0008222278 0.0002914857 -4.239839e-26)
(-0.0008893806 0.000258489 -4.236518e-26)
(-0.0007853188 0.0003825775 0)
(-0.0008557611 0.0003570165 -4.33026e-26)
(-0.000738664 0.0004691929 3.507582e-26)
(-0.0008118989 0.000451337 3.004523e-27)
(-0.0006820633 0.0005507258 3.228795e-26)
(-0.0007580478 0.000540442 1.049916e-22)
(-0.0006943659 0.000623925 -4.793915e-23)
(-0.0006160521 0.0006259085 -5.969678e-23)
(-0.0009782428 0.0001108204 -8.254682e-25)
(-0.001044365 5.867108e-05 1.355042e-22)
(-0.0009589331 0.000219935 4.970861e-26)
(-0.001029927 0.0001743258 4.983235e-26)
(-0.0009289239 0.0003260136 -4.326718e-26)
(-0.001003973 0.0002884903 5.485432e-26)
(-0.0008881792 0.0004283478 -8.194353e-24)
(-0.0009670368 0.0003990912 -1.45847e-22)
(-0.0008365692 0.0005257129 7.900848e-26)
(-0.0009185562 0.0005052788 5.162343e-26)
(-0.000774 0.000616522 1.4018e-23)
(-0.0008584232 0.0006057837 1.493436e-22)
(-0.0007859257 0.0006989758 1.569138e-22)
(-0.0007004636 0.000698396 5.508744e-23)
(-0.001102962 0.0001227878 5.731322e-26)
(-0.001176776 6.487745e-05 5.679142e-26)
(-0.001082049 0.0002447976 5.499104e-26)
(-0.001161301 0.0001934017 0)
(-0.001048889 0.0003636724 -3.411814e-24)
(-0.001132602 0.0003208081 1.649253e-22)
(-0.001004183 0.0004787128 -1.726199e-27)
(-0.001092333 0.0004448935 -5.02568e-26)
(-0.0009472684 0.0005888306 1.387578e-25)
(-0.001039366 0.0005645452 1.642998e-22)
(-0.0008776106 0.0006926743 1.311642e-25)
(-0.0009733501 0.0006787766 1.706496e-22)
(-0.0008931731 0.0007865126 -5.677495e-27)
(-0.0007946645 0.0007886425 1.097532e-25)
(-0.001241925 0.0001356947 0)
(-0.001323597 7.149863e-05 7.238168e-26)
(-0.001219101 0.0002711278 1.219254e-25)
(-0.001306402 0.0002144842 -6.977351e-26)
(-0.001183602 0.0004042354 1.214683e-25)
(-0.001276628 0.0003542863 1.806876e-22)
(-0.001135075 0.0005333913 1.099305e-25)
(-0.001233165 0.0004936613 0)
(-0.001073207 0.0006577844 1.611779e-25)
(-0.001175987 0.0006285231 1.805355e-22)
(-0.000997316 0.0007764733 4.834555e-27)
(-0.001104763 0.0007578905 5.113189e-26)
(-0.001018705 0.0008810216 -1.679099e-22)
(-0.000905995 0.0008886338 -4.715412e-26)
(-0.001395548 0.0001502134 -1.80286e-24)
(-0.001486649 7.856091e-05 1.65579e-22)
(-0.001372009 0.0002985718 -1.376522e-25)
(-0.00146845 0.0002357513 -1.602388e-22)
(-0.001335178 0.0004462436 -6.740876e-26)
(-0.001437504 0.0003906687 -3.176448e-22)
(-0.00128273 0.0005917789 6.226204e-26)
(-0.001391934 0.0005434642 -1.489232e-25)
(-0.001215945 0.0007317861 6.224733e-26)
(-0.001329876 0.000696305 1.27806e-25)
(-0.001134266 0.0008662988 -4.141156e-26)
(-0.001253791 0.0008427674 -5.549959e-27)
(-0.001160627 0.0009828426 -3.493297e-26)
(-0.001036398 0.0009931865 -3.299369e-23)
(-0.001566543 0.0001642003 1.817076e-27)
(-0.001665312 8.552485e-05 8.072825e-26)
(-0.001541175 0.0003271969 -3.07829e-25)
(-0.001646819 0.0002562139 -7.966289e-26)
(-0.001504006 0.0004892124 -3.807612e-25)
(-0.00161598 0.0004269165 -1.541825e-22)
(-0.001449545 0.0006524702 1.149477e-23)
(-0.001570864 0.0005955545 -3.988911e-22)
(-0.001377565 0.0008103727 6.001995e-26)
(-0.001503472 0.0007664369 2.48366e-22)
(-0.001290298 0.0009634724 1.27516e-23)
(-0.001423412 0.0009326801 -1.777761e-26)
(-0.001324012 0.001093271 -2.234334e-26)
(-0.001184335 0.001109527 -3.281983e-23)
(-0.001752972 0.0001783016 1.046335e-24)
(-0.001859751 9.243009e-05 9.963839e-30)
(-0.001728132 0.000355192 -8.952021e-26)
(-0.001840701 0.0002770697 3.271273e-29)
(-0.001690571 0.000531941 6.556041e-24)
(-0.001809958 0.0004618842 -1.833109e-25)
(-0.001634254 0.0007127757 -2.598766e-25)
(-0.001764489 0.0006498541 -2.211824e-25)
(-0.001560771 0.0008917088 7.697891e-26)
(-0.001699382 0.0008344035 1.401055e-25)
(-0.001469138 0.001066188 2.281752e-23)
(-0.001616468 0.001024296 -8.351921e-26)
(-0.001512803 0.001209232 -2.87789e-26)
(-0.001356686 0.001235156 2.712567e-23)
(-0.001955056 0.0001919998 -8.59887e-25)
(-0.002069521 9.875187e-05 1.447489e-28)
(-0.001930996 0.0003833751 -9.338294e-26)
(-0.002050693 0.0002964518 4.491723e-28)
(-0.001893301 0.0005769886 4.514182e-25)
(-0.002022944 0.0004953103 -1.671286e-22)
(-0.001841131 0.0007718571 -4.956696e-24)
(-0.001980603 0.0006993816 -1.857328e-22)
(-0.001769745 0.0009706298 -1.138782e-23)
(-0.001919781 0.0009037727 -1.038046e-25)
(-0.001674681 0.00117128 -7.124655e-26)
(-0.001837966 0.001111122 -3.956101e-22)
(-0.001729957 0.001326703 0)
(-0.001557293 0.001366017 4.557382e-27)
(-0.002171794 0.0002038592 0)
(-0.002292606 0.0001039086 3.187091e-28)
(-0.002149764 0.0004074611 -1.080652e-25)
(-0.002274306 0.0003123079 -9.586784e-28)
(-0.002117273 0.0006141049 -2.221508e-25)
(-0.002250318 0.0005226168 -1.114203e-25)
(-0.002068241 0.0008264566 -1.418621e-23)
(-0.002214925 0.0007385869 -1.137437e-25)
(-0.002004053 0.001044123 -4.145194e-23)
(-0.002163131 0.0009638752 -1.696167e-22)
(-0.001911616 0.001273676 -1.465268e-25)
(-0.0020925 0.001193909 -1.329933e-25)
(-0.001980761 0.001440439 3.714601e-26)
(-0.001790532 0.001499482 8.311286e-26)
(-0.002400664 0.0002129137 -1.310964e-24)
(-0.002525946 0.0001071942 1.357054e-25)
(-0.00238139 0.0004261537 -2.638626e-24)
(-0.00250879 0.0003228292 -1.976227e-27)
(-0.002355203 0.0006441468 -3.328559e-27)
(-0.00249034 0.0005421242 1.290899e-25)
(-0.002316025 0.0008699226 -2.274879e-25)
(-0.002463774 0.0007699011 0)
(-0.002261422 0.001105495 -2.21126e-25)
(-0.00242246 0.001010512 -2.576636e-22)
(-0.002176749 0.001363385 3.787241e-23)
(-0.002364635 0.001270998 -1.102959e-26)
(-0.002273678 0.001540798 2.158495e-25)
(-0.002063198 0.001631015 -1.703563e-23)
(-0.002637779 0.000217325 5.350538e-25)
(-0.002764571 0.0001076519 1.338359e-24)
(-0.002622755 0.0004365166 1.312161e-25)
(-0.002750065 0.0003254515 1.442373e-25)
(-0.002605694 0.0006636159 1.324576e-25)
(-0.002740207 0.0005502142 6.090462e-23)
(-0.002579985 0.00090392 -1.402954e-25)
(-0.002727712 0.0007874245 9.699265e-27)
(-0.002537961 0.001163392 -4.152213e-23)
(-0.002707012 0.001042978 -1.14378e-25)
(-0.002480931 0.001441373 4.103763e-22)
(-0.002670612 0.001324158 -1.180821e-22)
(-0.002613765 0.00162734 2.625306e-25)
(-0.002385645 0.001754011 -3.149701e-23)
(-0.00287781 0.000214843 -1.698107e-24)
(-0.003001544 0.0001050644 1.477613e-25)
(-0.002869782 0.0004357167 2.905373e-25)
(-0.002993101 0.0003176546 -4.745842e-23)
(-0.002865539 0.0006678205 1.55086e-25)
(-0.002994673 0.0005436833 -1.263874e-26)
(-0.002858999 0.0009174585 4.697775e-23)
(-0.00299999 0.0007864176 4.864745e-27)
(-0.002842372 0.001190357 4.88371e-23)
(-0.003002993 0.001052571 1.968999e-25)
(-0.002812539 0.001490393 1.072374e-22)
(-0.002993615 0.001350107 -7.397504e-26)
(-0.002973624 0.001694055 8.2542e-26)
(-0.002749585 0.001846656 2.383478e-22)
(-0.003114337 0.0002047524 -1.549393e-25)
(-0.00323099 9.854134e-05 -1.722288e-25)
(-0.003117591 0.0004209378 1.53188e-23)
(-0.003231062 0.0003011385 3.79691e-22)
(-0.003129941 0.0006544534 -2.272062e-23)
(-0.003248768 0.0005188093 1.111799e-22)
(-0.003146898 0.0009101353 1.658727e-25)
(-0.00327569 0.0007625655 -3.481523e-25)
(-0.003161945 0.001197303 8.993247e-23)
(-0.003309953 0.001034819 -2.867707e-23)
(-0.003163608 0.001527047 1.731082e-26)
(-0.003343694 0.001346317 -1.423106e-25)
(-0.003367303 0.001716829 3.41373e-30)
(-0.003155801 0.001904349 6.475076e-27)
(-0.003339366 0.0001890571 -5.049747e-25)
(-0.003443769 8.77147e-05 2.895697e-22)
(-0.003356612 0.0003915699 8.74913e-23)
(-0.003455517 0.0002738737 -3.314085e-25)
(-0.003392509 0.0006178236 -5.052679e-25)
(-0.003492159 0.0004773773 -1.607458e-25)
(-0.003437433 0.0008739478 -1.570871e-25)
(-0.003547091 0.0007090635 3.570573e-22)
(-0.003490103 0.001164483 1.075193e-22)
(-0.003614104 0.0009808486 -1.897793e-25)
(-0.00353206 0.001503648 -1.59587e-25)
(-0.003692188 0.001305453 5.798091e-22)
(-0.003741985 0.00172478 2.069945e-29)
(-0.003517584 0.001911511 4.416008e-26)
(-0.003546566 0.0001647769 1.139794e-23)
(-0.003629624 7.333304e-05 9.060184e-27)
(-0.003577322 0.0003491687 7.969026e-28)
(-0.003658343 0.0002332416 -4.096959e-28)
(-0.003637909 0.0005558343 -4.046665e-27)
(-0.003712709 0.0004166642 -2.326185e-27)
(-0.00371976 0.0008015825 -3.846057e-25)
(-0.003799098 0.0006278522 -9.015517e-22)
(-0.003801221 0.0010902 -5.680977e-25)
(-0.003904511 0.0008921264 1.349355e-21)
(-0.00384358 0.001451376 -1.919029e-25)
(-0.00399946 0.001262497 -5.612966e-25)
(-0.003973177 0.001757334 4.812833e-26)
(-0.003789588 0.001936265 8.784503e-29)
(-0.003722785 0.0001325791 1.894001e-25)
(-0.003778576 5.519717e-05 -5.97733e-22)
(-0.003774411 0.0002899852 -2.930652e-23)
(-0.003828004 0.0001814125 -1.192277e-27)
(-0.003853175 0.0004719514 4.010233e-25)
(-0.003902869 0.0003334574 -5.535608e-27)
(-0.003961933 0.0006889966 8.923407e-22)
(-0.004012342 0.0005248183 3.873467e-25)
(-0.004051086 0.0009816085 1.395041e-21)
(-0.004137866 0.0008064911 -6.347202e-25)
(-0.004048199 0.001412527 -3.212905e-25)
(-0.004169932 0.00124157 3.613108e-21)
(-0.004028958 0.001805001 4.80615e-26)
(-0.003918624 0.001927078 2.849996e-21)
(-0.003858423 9.279985e-05 1.972059e-25)
(-0.003880356 3.372576e-05 1.972327e-25)
(-0.003931354 0.0002147273 -3.234203e-27)
(-0.003953103 0.0001179893 -6.82102e-28)
(-0.004031351 0.000361726 -1.764349e-22)
(-0.004045824 0.0002332244 -7.093974e-27)
(-0.004130977 0.0005612351 -1.283597e-21)
(-0.004171977 0.0004234858 -2.29509e-25)
(-0.00418639 0.0008904316 -9.33756e-21)
(-0.004232409 0.0007682296 1.764517e-21)
(-0.004116536 0.0013784 -5.087472e-25)
(-0.004177635 0.001254126 -6.743531e-25)
(-0.004002477 0.001841064 -1.429005e-28)
(-0.003934686 0.001855736 -7.415065e-25)
(-0.003942286 4.634973e-05 -6.80751e-28)
(-0.003925362 9.597254e-06 0)
(-0.004033794 0.000122409 -1.076957e-22)
(-0.004018362 4.403122e-05 -6.844162e-28)
(-0.004138255 0.0002312439 -5.190416e-22)
(-0.004120678 0.0001309677 -2.331158e-27)
(-0.004205801 0.0004540609 1.211685e-21)
(-0.004222516 0.0003567574 1.903255e-21)
(-0.004173697 0.0008365818 3.626998e-21)
(-0.004189048 0.0007680333 -1.524412e-25)
(-0.004067285 0.001276977 -1.568958e-25)
(-0.004040134 0.001301045 -3.180105e-24)
(-0.003908246 0.001889092 5.625624e-26)
(-0.003875508 0.001679794 -3.722798e-25)
(-0.003962782 -5.237272e-06 1.800394e-30)
(-0.003905482 -1.764577e-05 1.994314e-25)
(-0.004058459 1.452185e-05 1.610023e-27)
(-0.004007065 -3.050989e-05 -9.136206e-28)
(-0.004139638 0.0001073553 -4.074213e-21)
(-0.004091328 5.700634e-05 2.357041e-27)
(-0.004148968 0.0003823174 3.684029e-21)
(-0.004119417 0.0003390044 -2.167892e-25)
(-0.004050052 0.0007746606 -3.434782e-25)
(-0.00402135 0.00079846 2.551816e-26)
(-0.003898996 0.001142646 -3.252397e-25)
(-0.003841992 0.001360372 -2.976085e-23)
(-0.003663156 0.001972304 -1.470849e-22)
(-0.003778868 0.001519343 5.709913e-20)
(-0.003907887 -6.490531e-05 -4.457712e-23)
(-0.003809996 -4.59493e-05 -9.4422e-22)
(-0.003987977 -8.840894e-05 7.608634e-22)
(-0.003906311 -8.610285e-05 -9.046428e-28)
(-0.004012535 3.16138e-05 7.470886e-28)
(-0.003940686 3.958425e-05 1.952229e-25)
(-0.003962549 0.0003300029 2.59631e-29)
(-0.003866921 0.0003796776 -2.283383e-29)
(-0.003821365 0.0006888198 -1.736792e-25)
(-0.003753974 0.0008715754 6.447142e-26)
(-0.00366112 0.0009929617 -3.274828e-25)
(-0.003541274 0.001454716 -7.750839e-26)
(-0.003365298 0.00207885 -1.600628e-25)
(-0.003487556 0.001303902 9.307754e-26)
(-0.003762996 -0.0001252208 1.920915e-25)
(-0.003632441 -6.637309e-05 3.728439e-25)
(-0.003810158 -0.0001562907 1.939341e-25)
(-0.003699346 -0.0001042885 1.224592e-30)
(-0.003775942 5.187745e-06 1.940615e-25)
(-0.003672171 7.491803e-05 -6.004881e-22)
(-0.003664953 0.0003008215 6.355005e-26)
(-0.003551374 0.0004638806 3.09703e-30)
(-0.003521283 0.0006210666 2.314473e-20)
(-0.003366653 0.0009974421 2.175479e-25)
(-0.003367153 0.0009108629 1.050777e-25)
(-0.003148963 0.00160199 -4.059285e-26)
(-0.003067899 0.002249536 -1.1612e-25)
(-0.003148736 0.001232783 -1.833908e-25)
(-0.003524079 -0.0001681539 1.805794e-25)
(-0.003369224 -6.758119e-05 -9.182566e-22)
(-0.00352716 -0.0001781098 1.768586e-25)
(-0.003387463 -7.90534e-05 6.896603e-29)
(-0.003450071 7.532948e-06 1.765455e-25)
(-0.003310039 0.0001511998 2.142971e-26)
(-0.003308957 0.0002865606 1.507368e-25)
(-0.003165601 0.0005869381 3.213e-30)
(-0.003131564 0.0005721066 1.588416e-26)
(-0.002974136 0.001151834 1.561596e-21)
(-0.00294217 0.0008614885 -2.520422e-25)
(-0.002749826 0.001798182 -2.425902e-21)
(-0.002488221 0.002521855 -2.998036e-21)
(-0.002776721 0.001199052 -3.378963e-25)
(-0.003198546 -0.0001774385 3.07729e-22)
(-0.003024693 -4.760867e-05 -7.634787e-22)
(-0.003157878 -0.0001588793 -1.554379e-25)
(-0.002993092 -1.377686e-05 -7.114884e-26)
(-0.003051267 3.558862e-05 -1.551096e-25)
(-0.002883201 0.0002614007 -7.254907e-22)
(-0.002902568 0.0003004626 2.599481e-25)
(-0.002730389 0.000737752 1.197439e-25)
(-0.002724752 0.000582705 2.133387e-25)
(-0.002542491 0.001345729 2.018146e-21)
(-0.002511242 0.0008912363 2.900377e-20)
(-0.0023179 0.002046768 -4.660628e-26)
(-0.00203143 0.002826219 -1.028459e-25)
(-0.002262489 0.001247783 -9.09592e-26)
(-0.002798974 -0.000153887 -1.527788e-21)
(-0.002599353 -1.000553e-05 2.058707e-25)
(-0.002733335 -0.0001031299 -4.629638e-25)
(-0.002531249 8.001285e-05 -1.483026e-22)
(-0.002611908 9.200227e-05 -2.6686e-25)
(-0.002442627 0.000395671 -6.199632e-23)
(-0.002462884 0.0003573346 2.2764e-25)
(-0.002273904 0.0009091287 1.851677e-21)