/*--------------------------------*- C++ -*----------------------------------*\
| =========                 |                                                 |
| \\      /  F ield         | OpenFOAM: The Open Source CFD Toolbox           |
|  \\    /   O peration     | Version:  2206                                  |
|   \\  /    A nd           | Website:  www.openfoam.com                      |
|    \\/     M anipulation  |                                                 |
\*---------------------------------------------------------------------------*/
FoamFile
{
    version     2.0;
    format      ascii;
    arch        "LSB;label=32;scalar=64";
    class       surfaceVectorField;
    location    "2.2";
    object      Ufb_0;
}
// * * * * * * * * * * * * * * * * * * * * * * * * * * * * * * * * * * * * * //

dimensions      [0 1 -1 0 0 0 0];

internalField   nonuniform List<vector> 
26037
(
(-8.741139e-06 0.0001015174 1.238199e-21)
(2.041842e-05 2.284735e-05 -2.999189e-27)
(-5.739807e-06 5.183836e-05 -2.178723e-22)
(1.284591e-05 4.323454e-05 4.454707e-24)
(-5.559938e-06 2.527311e-05 1.768147e-27)
(-4.131393e-07 3.485315e-05 1.772162e-27)
(-5.495294e-06 1.697899e-05 3.913822e-28)
(-5.422009e-06 2.211145e-05 0)
(-5.479524e-06 1.444193e-05 6.776236e-24)
(-5.890976e-06 1.624353e-05 3.929952e-28)
(-5.550254e-06 1.3025e-05 5.980804e-28)
(-6.025941e-06 1.400756e-05 -2.298206e-28)
(-6.159115e-06 1.270999e-05 2.775415e-28)
(-5.656559e-06 1.204932e-05 1.732856e-24)
(7.719158e-06 5.175982e-05 -1.255507e-29)
(6.580524e-05 7.059367e-06 1.675957e-27)
(1.564835e-06 3.750997e-05 -1.267574e-29)
(2.109993e-05 3.15056e-05 -8.351733e-28)
(-3.523873e-06 2.337355e-05 0)
(2.216041e-06 2.687948e-05 -4.741019e-28)
(-5.830201e-06 1.734546e-05 1.660294e-30)
(-4.093767e-06 1.963992e-05 -8.227008e-28)
(-6.390202e-06 1.466326e-05 2.704064e-30)
(-6.071175e-06 1.601011e-05 9.70104e-26)
(-6.641795e-06 1.315194e-05 3.34224e-30)
(-6.879883e-06 1.410652e-05 1.044287e-30)
(-7.204531e-06 1.289703e-05 1.04189e-26)
(-6.767383e-06 1.215675e-05 2.383793e-28)
(3.368868e-05 2.44517e-05 8.493354e-28)
(2.881895e-05 7.001578e-06 1.623388e-22)
(9.509765e-06 2.305508e-05 -1.308642e-27)
(1.109336e-05 1.822151e-05 -5.135141e-23)
(-1.672491e-06 1.949894e-05 -3.729252e-25)
(1.046848e-06 1.869508e-05 -8.570275e-28)
(-5.50882e-06 1.662391e-05 -2.933178e-24)
(-4.067981e-06 1.707616e-05 -8.635793e-28)
(-6.976562e-06 1.470014e-05 -3.532035e-28)
(-6.566626e-06 1.547563e-05 -1.454298e-25)
(-7.581834e-06 1.343229e-05 1.534395e-33)
(-7.708988e-06 1.420529e-05 0)
(-8.169523e-06 1.324779e-05 -1.308362e-26)
(-7.786609e-06 1.251888e-05 -2.401704e-28)
(1.637497e-05 1.383868e-05 -1.297141e-28)
(1.376905e-05 5.370047e-06 7.090028e-28)
(4.819692e-06 1.684057e-05 -1.219099e-27)
(5.440908e-06 1.303763e-05 -2.468398e-23)
(-2.218687e-06 1.68383e-05 4.167766e-25)
(-8.341788e-07 1.518903e-05 -4.468826e-24)
(-5.847519e-06 1.581536e-05 -3.796042e-29)
(-4.922997e-06 1.550419e-05 3.234114e-24)
(-7.628443e-06 1.472979e-05 -3.219292e-30)
(-7.301147e-06 1.50284e-05 2.007773e-28)
(-8.440211e-06 1.382633e-05 -2.794024e-30)
(-8.54032e-06 1.438047e-05 9.63771e-33)
(-9.066355e-06 1.373364e-05 -2.495062e-28)
(-8.711929e-06 1.307506e-05 2.327688e-28)
(7.215985e-06 9.802518e-06 -5.392059e-25)
(6.359626e-06 4.267558e-06 2.651623e-30)
(1.124849e-06 1.373743e-05 -6.197614e-25)
(1.527812e-06 1.04997e-05 -1.833109e-28)
(-3.603141e-06 1.508123e-05 -9.368982e-30)
(-2.891274e-06 1.331076e-05 -1.09724e-28)
(-6.65836e-06 1.516646e-05 -3.744591e-25)
(-6.1405e-06 1.44893e-05 4.173476e-25)
(-8.407784e-06 1.47972e-05 -1.390041e-24)
(-8.210462e-06 1.475644e-05 -1.540345e-24)
(-9.271021e-06 1.429706e-05 5.238127e-25)
(-9.393058e-06 1.462025e-05 2.532799e-28)
(-9.929734e-06 1.431282e-05 2.205285e-26)
(-9.572775e-06 1.376323e-05 -2.467117e-28)
(1.912525e-06 7.6158e-06 -9.921794e-30)
(9.695618e-07 3.487312e-06 0)
(-1.906516e-06 1.168712e-05 4.208681e-25)
(-1.967233e-06 8.867303e-06 5.818657e-29)
(-5.329981e-06 1.378841e-05 -6.141514e-25)
(-5.06453e-06 1.197902e-05 3.120701e-28)
(-7.788465e-06 1.466858e-05 3.908556e-25)
(-7.600679e-06 1.375073e-05 3.183545e-28)
(-9.328296e-06 1.488976e-05 2.221449e-28)
(-9.334618e-06 1.46141e-05 8.902728e-25)
(-1.014207e-05 1.479896e-05 -1.208584e-24)
(-1.035699e-05 1.493091e-05 2.26476e-28)
(-1.082043e-05 1.494852e-05 5.041062e-28)
(-1.04202e-05 1.453286e-05 -6.400448e-25)
(-2.363821e-06 6.248536e-06 6.807779e-29)
(-3.492704e-06 2.960177e-06 -3.045426e-28)
(-4.822258e-06 1.024145e-05 3.656504e-28)
(-5.308792e-06 7.754301e-06 -1.925158e-24)
(-7.266056e-06 1.280153e-05 -3.906156e-24)
(-7.437424e-06 1.100546e-05 -6.091409e-25)
(-9.20828e-06 1.427668e-05 3.893166e-28)
(-9.323976e-06 1.320592e-05 2.185686e-28)
(-1.046093e-05 1.503506e-05 2.577196e-25)
(-1.069833e-05 1.456447e-05 6.741897e-28)
(-1.113174e-05 1.533626e-05 -3.079426e-29)
(-1.151724e-05 1.532322e-05 -6.061507e-29)
(-1.183769e-05 1.566921e-05 -3.018407e-29)
(-1.132452e-05 1.536123e-05 8.020867e-30)
(-6.185596e-06 5.389639e-06 -1.34984e-28)
(-7.489962e-06 2.627722e-06 2.998727e-24)
(-7.790622e-06 9.24685e-06 3.681376e-28)
(-8.617112e-06 7.034541e-06 -3.606133e-28)
(-9.48176e-06 1.208371e-05 2.005341e-28)
(-1.003932e-05 1.035436e-05 -1.010838e-28)
(-1.090491e-05 1.403235e-05 5.068895e-28)
(-1.137313e-05 1.287383e-05 -2.361645e-29)
(-1.185006e-05 1.525061e-05 4.73231e-28)
(-1.235418e-05 1.464518e-05 2.226717e-24)
(-1.232119e-05 1.595434e-05 2.042241e-25)
(-1.291544e-05 1.580804e-05 -5.936083e-29)
(-1.305481e-05 1.650566e-05 -3.039276e-29)
(-1.236476e-05 1.627561e-05 2.075632e-28)
(-9.816796e-06 4.878926e-06 -5.301823e-28)
(-1.127929e-05 2.438045e-06 -7.853983e-25)
(-1.084079e-05 8.634226e-06 -8.297921e-28)
(-1.197022e-05 6.623864e-06 -1.703604e-25)
(-1.196324e-05 1.167315e-05 3.236099e-25)
(-1.287772e-05 1.000527e-05 -5.935331e-25)
(-1.291982e-05 1.397953e-05 1.19374e-27)
(-1.373241e-05 1.278309e-05 7.098631e-28)
(-1.35279e-05 1.559654e-05 2.539469e-25)
(-1.432822e-05 1.49061e-05 2.520305e-24)
(-1.375515e-05 1.667734e-05 -2.950405e-29)
(-1.459792e-05 1.643568e-05 -2.949496e-29)
(-1.450632e-05 1.747562e-05 0)
(-1.360675e-05 1.732593e-05 -3.020083e-28)
(-1.341732e-05 4.614105e-06 -3.16878e-30)
(-1.503361e-05 2.351243e-06 7.162388e-28)
(-1.403771e-05 8.33867e-06 -1.086091e-27)
(-1.543916e-05 6.453257e-06 -7.198011e-28)
(-1.471313e-05 1.154101e-05 3.552867e-28)
(-1.595262e-05 9.927507e-06 -1.275454e-27)
(-1.525326e-05 1.415125e-05 7.287074e-28)
(-1.640552e-05 1.294143e-05 2.454024e-24)
(-1.551972e-05 1.612345e-05 7.220624e-31)
(-1.66345e-05 1.538186e-05 -2.823434e-24)
(-1.546865e-05 1.755992e-05 0)
(-1.659375e-05 1.725458e-05 0)
(-1.623331e-05 1.862736e-05 0)
(-1.508414e-05 1.853234e-05 -4.046567e-28)
(-1.710114e-05 4.528828e-06 0)
(-1.888224e-05 2.342136e-06 0)
(-1.742776e-05 8.295142e-06 -9.087062e-28)
(-1.908416e-05 6.478965e-06 1.116814e-27)
(-1.774434e-05 1.167553e-05 -3.645784e-29)
(-1.929426e-05 1.009635e-05 -2.622795e-24)
(-1.791439e-05 1.456927e-05 8.85983e-28)
(-1.940392e-05 1.335253e-05 -1.495591e-28)
(-1.784339e-05 1.687281e-05 -7.604363e-31)
(-1.928627e-05 1.610053e-05 3.167604e-24)
(-1.74907e-05 1.865046e-05 0)
(-1.892491e-05 1.830626e-05 0)
(-1.826571e-05 2.000838e-05 -1.007033e-27)
(-1.683148e-05 1.994458e-05 3.838155e-28)
(-2.096164e-05 4.578854e-06 1.11635e-27)
(-2.292745e-05 2.396159e-06 0)
(-2.106379e-05 8.471571e-06 1.832345e-29)
(-2.297765e-05 6.671065e-06 3.08039e-24)
(-2.108388e-05 1.206406e-05 -2.143903e-27)
(-2.294139e-05 1.049195e-05 -1.082219e-27)
(-2.091982e-05 1.524675e-05 -2.152289e-25)
(-2.274973e-05 1.401788e-05 -3.385298e-24)
(-2.051739e-05 1.787765e-05 1.066964e-27)
(-2.230294e-05 1.708391e-05 2.279086e-27)
(-1.984548e-05 1.999276e-05 -1.006686e-27)
(-2.161327e-05 1.962732e-05 -1.149105e-27)
(-2.062992e-05 2.166331e-05 -3.283139e-24)
(-1.887865e-05 2.161064e-05 3.978673e-25)
(-2.508474e-05 4.743329e-06 1.345153e-27)
(-2.726277e-05 2.503918e-06 1.595587e-27)
(-2.500515e-05 8.844147e-06 -9.447823e-26)
(-2.719103e-05 7.011361e-06 1.345373e-27)
(-2.476844e-05 1.269744e-05 -1.223718e-27)
(-2.694319e-05 1.110336e-05 3.671721e-29)
(-2.429593e-05 1.619272e-05 -2.576582e-29)
(-2.647551e-05 1.493992e-05 -1.231307e-27)
(-2.3566e-05 1.916627e-05 6.106214e-29)
(-2.571466e-05 1.834899e-05 4.271806e-24)
(-2.255804e-05 2.162711e-05 -1.150114e-27)
(-2.468502e-05 2.125155e-05 -3.903866e-24)
(-2.335315e-05 2.363575e-05 3.629393e-24)
(-2.1253e-05 2.357766e-05 -9.926173e-31)
(-2.955327e-05 5.008868e-06 1.595895e-27)
(-3.197678e-05 2.660441e-06 4.841108e-24)
(-2.931681e-05 9.399982e-06 1.880254e-29)
(-3.179997e-05 7.490475e-06 0)
(-2.884428e-05 1.357395e-05 -1.790708e-25)
(-3.136027e-05 1.192938e-05 5.901311e-29)
(-2.808381e-05 1.741156e-05 2.854627e-27)
(-3.062465e-05 1.61401e-05 -2.043452e-27)
(-2.702665e-05 2.076541e-05 1.48185e-27)
(-2.957267e-05 1.989752e-05 5.193245e-24)
(-2.565828e-05 2.359236e-05 -9.752833e-29)
(-2.817424e-05 2.321091e-05 -1.322859e-27)
(-2.646738e-05 2.597035e-05 -1.707218e-28)
(-2.398352e-05 2.58935e-05 1.977436e-28)
(-3.445038e-05 5.368756e-06 1.86069e-27)
(-3.715708e-05 2.863548e-06 1.859833e-27)
(-3.407172e-05 1.013358e-05 4.016423e-29)
(-3.688451e-05 8.10337e-06 2.113711e-27)
(-3.336326e-05 1.470384e-05 -3.118322e-25)
(-3.627228e-05 1.296022e-05 4.017447e-29)
(-3.23436e-05 1.891811e-05 3.020831e-24)
(-3.53028e-05 1.759244e-05 -4.768023e-24)
(-3.095156e-05 2.270169e-05 1.094659e-27)
(-3.394175e-05 2.178914e-05 1.027515e-27)
(-2.918258e-05 2.592981e-05 -1.396252e-27)
(-3.212418e-05 2.554319e-05 -8.573754e-29)
(-3.001028e-05 2.871397e-05 -4.525065e-24)
(-2.710344e-05 2.860883e-05 -2.657735e-27)
(-3.986061e-05 5.82082e-06 2.11269e-27)
(-4.289382e-05 3.114291e-06 0)
(-3.934618e-05 1.103879e-05 2.114137e-27)
(-4.252409e-05 8.855184e-06 6.744935e-24)
(-3.84432e-05 1.605669e-05 -2.026068e-27)
(-4.172893e-05 1.421003e-05 2.391751e-29)
(-3.714188e-05 2.071447e-05 4.125471e-25)
(-4.050609e-05 1.931723e-05 -1.995624e-27)
(-3.534613e-05 2.500092e-05 -1.591006e-28)
(-3.881644e-05 2.404926e-05 -7.323042e-29)
(-3.317487e-05 2.868072e-05 4.754818e-25)
(-3.658793e-05 2.828946e-05 -8.57003e-29)
(-3.403039e-05 3.191787e-05 -1.685552e-27)
(-3.065363e-05 3.177669e-05 -1.789726e-27)
(-4.587618e-05 6.371219e-06 4.86033e-27)
(-4.928745e-05 3.41548e-06 2.836176e-27)
(-4.521984e-05 1.213754e-05 4.887571e-27)
(-4.881755e-05 9.756083e-06 7.846798e-24)
(-4.409457e-05 1.770089e-05 -1.651509e-25)
(-4.783438e-05 1.570504e-05 7.678698e-29)
(-4.249423e-05 2.289226e-05 3.309209e-29)
(-4.634046e-05 2.139392e-05 6.862194e-29)
(-4.030698e-05 2.771386e-05 0)
(-4.429821e-05 2.670214e-05 0)
(-3.769394e-05 3.189595e-05 0)
(-4.163058e-05 3.149602e-05 2.35554e-27)
(-3.858452e-05 3.564014e-05 2.373015e-28)
(-3.468367e-05 3.54565e-05 1.153263e-28)
(-5.260016e-05 7.024974e-06 8.556544e-26)
(-5.644649e-05 3.770427e-06 9.283262e-24)
(-5.179461e-05 1.343776e-05 -8.593337e-26)
(-5.586919e-05 1.081605e-05 5.985783e-27)
(-5.043074e-05 1.963655e-05 -1.726224e-25)
(-5.468489e-05 1.745893e-05 1.409446e-28)
(-4.850743e-05 2.544586e-05 3.662547e-29)
(-5.289623e-05 2.382437e-05 1.162734e-28)
(-4.59026e-05 3.087404e-05 2.382923e-27)
(-5.046855e-05 2.978634e-05 0)
(-4.280629e-05 3.563169e-05 -5.358658e-25)
(-4.733358e-05 3.520786e-05 7.790724e-24)
(-4.373924e-05 3.994596e-05 3.701876e-28)
(-3.925167e-05 3.971442e-05 -5.590247e-25)
(-6.014524e-05 7.790523e-06 8.939767e-26)
(-6.44915e-05 4.183899e-06 6.945291e-27)
(-5.917845e-05 1.495763e-05 -9.274707e-26)
(-6.379625e-05 1.204968e-05 1.046135e-23)
(-5.7555e-05 2.189493e-05 -3.65569e-25)
(-6.239377e-05 1.949833e-05 3.604111e-27)
(-5.52724e-05 2.841754e-05 8.151709e-29)
(-6.02809e-05 2.6656e-05 8.021274e-29)
(-5.222834e-05 3.451444e-05 2.591135e-27)
(-5.7417e-05 3.339721e-05 -8.477236e-28)
(-4.860204e-05 3.995173e-05 2.692105e-27)
(-5.38178e-05 3.943862e-05 1.316097e-27)
(-4.957352e-05 4.490371e-05 -1.653146e-28)
(-4.442688e-05 4.462501e-05 -6.044229e-25)
(-6.863728e-05 8.678333e-06 1.096246e-26)
(-7.355684e-05 4.661818e-06 1.23012e-23)
(-6.749447e-05 1.671829e-05 1.077783e-26)
(-7.273008e-05 1.347392e-05 1.198498e-23)
(-6.559213e-05 2.451192e-05 3.51862e-27)
(-7.109193e-05 2.184677e-05 1.14849e-23)
(-6.289527e-05 3.188386e-05 -8.400389e-28)
(-6.86528e-05 2.989849e-05 3.724937e-27)
(-5.944411e-05 3.871673e-05 4.211542e-24)
(-6.538922e-05 3.749514e-05 -9.695749e-28)
(-5.519779e-05 4.492389e-05 1.412959e-24)
(-6.125126e-05 4.43625e-05 2.000879e-27)
(-5.618554e-05 5.059901e-05 -3.118604e-27)
(-5.029098e-05 5.027349e-05 -2.982202e-28)
(-7.821675e-05 9.70153e-06 -7.934398e-26)
(-8.379412e-05 5.21219e-06 4.222429e-27)
(-7.687611e-05 1.874271e-05 1.340028e-25)
(-8.281553e-05 1.511271e-05 1.378945e-23)
(-7.466791e-05 2.750263e-05 1.16931e-26)
(-8.09057e-05 2.454569e-05 1.332255e-23)
(-7.158724e-05 3.577915e-05 4.914927e-25)
(-7.807085e-05 3.361208e-05 1.272167e-23)
(-6.764389e-05 4.34742e-05 3.07408e-27)
(-7.429993e-05 4.212464e-05 -1.254402e-28)
(-6.26074e-05 5.060673e-05 3.517138e-28)
(-6.95476e-05 5.002321e-05 1.027328e-23)
(-6.368519e-05 5.712366e-05 -9.910413e-24)
(-5.693858e-05 5.674877e-05 -7.268737e-25)
(-8.904461e-05 1.087856e-05 4.678086e-27)
(-9.537756e-05 5.844093e-06 -5.46234e-27)
(-8.747847e-05 2.107179e-05 1.405776e-25)
(-9.422515e-05 1.699387e-05 4.67877e-27)
(-8.491737e-05 3.095159e-05 1.320239e-26)
(-9.201123e-05 2.76451e-05 4.510631e-27)
(-8.135925e-05 4.030708e-05 8.70637e-27)
(-8.873584e-05 3.788976e-05 1.45823e-23)
(-7.682069e-05 4.90222e-05 3.631672e-27)
(-8.438616e-05 4.752176e-05 -4.796146e-27)
(-7.101646e-05 5.712411e-05 3.644682e-27)
(-7.891955e-05 5.648392e-05 3.708631e-27)
(-7.220632e-05 6.456813e-05 1.22314e-23)
(-6.449016e-05 6.41632e-05 2.572983e-27)
(-0.0001013046 1.222734e-05 -5.463328e-27)
(-0.0001085035 6.566927e-06 -1.856515e-23)
(-9.948348e-05 2.373949e-05 0)
(-0.0001071514 1.914503e-05 0)
(-9.652721e-05 3.49005e-05 -1.237613e-28)
(-0.000104596 3.118806e-05 0)
(-9.242607e-05 4.548918e-05 5.839919e-25)
(-0.0001008269 4.278187e-05 -1.683413e-23)
(-8.719468e-05 5.536666e-05 -4.894683e-27)
(-9.581803e-05 5.372472e-05 -1.636437e-23)
(-8.05744e-05 6.452375e-05 3.904533e-27)
(-8.952229e-05 6.396507e-05 4.832288e-27)
(-8.195844e-05 7.295864e-05 3.879221e-27)
(-7.308797e-05 7.263494e-05 7.713985e-27)
(-0.0001152038 1.376785e-05 -1.242356e-26)
(-0.0001233942 7.391424e-06 -2.120821e-23)
(-0.0001130936 2.678454e-05 0)
(-0.0001218115 2.159746e-05 -3.591911e-29)
(-0.0001096969 3.940718e-05 -5.46334e-27)
(-0.0001188723 3.522394e-05 -6.734155e-27)
(-0.0001050008 5.141468e-05 -6.013998e-25)
(-0.0001145611 4.834538e-05 -5.625809e-27)
(-9.896382e-05 6.269538e-05 -5.721136e-27)
(-0.0001088879 6.074799e-05 -1.698384e-23)
(-9.160716e-05 7.302389e-05 4.86259e-27)
(-0.0001018456 7.238227e-05 1.31483e-23)
(-9.327689e-05 8.267671e-05 0)
(-8.292454e-05 8.231305e-05 -3.875707e-27)
(-0.0001309756 1.552258e-05 -7.096588e-27)
(-0.0001402993 8.329268e-06 -7.05647e-27)
(-0.0001285355 3.025063e-05 1.812293e-25)
(-0.0001384499 2.438698e-05 7.808002e-27)
(-0.0001246406 4.452861e-05 -6.896903e-27)
(-0.000135073 3.981479e-05 -2.289365e-23)
(-0.0001192828 5.811157e-05 6.857209e-25)
(-0.0001301338 5.467226e-05 -1.615927e-28)
(-0.0001124667 7.08333e-05 5.289606e-27)
(-0.0001236407 6.871316e-05 2.082902e-23)
(-0.0001042222 8.254391e-05 5.647356e-27)
(-0.0001156003 8.178534e-05 4.415365e-27)
(-0.000105887 9.378612e-05 -6.257506e-28)
(-9.400068e-05 9.328861e-05 -3.799823e-27)
(-0.0001488838 1.751585e-05 7.838889e-27)
(-0.0001594999 9.391495e-06 9.111566e-27)
(-0.0001460692 3.41908e-05 2.659396e-28)
(-0.0001573474 2.754972e-05 2.695421e-23)
(-0.0001416104 5.035805e-05 -7.585985e-27)
(-0.0001534796 4.502615e-05 -1.618847e-26)
(-0.0001354892 6.576325e-05 6.332395e-27)
(-0.0001478416 6.186705e-05 0)
(-0.0001277167 8.022781e-05 1.771747e-24)
(-0.0001404396 7.781428e-05 6.852084e-27)
(-0.0001183469 9.358702e-05 2.55844e-24)
(-0.0001312753 9.26863e-05 -1.090424e-27)
(-0.0001202343 0.0001064114 -1.334543e-27)
(-0.0001066594 0.000105887 9.895355e-29)
(-0.0001692245 1.976742e-05 1.801994e-26)
(-0.0001813023 1.058731e-05 3.074804e-23)
(-0.000165992 3.865241e-05 3.121605e-28)
(-0.0001788186 3.111212e-05 1.902502e-26)
(-0.000160906 5.696564e-05 -8.609609e-27)
(-0.0001744041 5.091447e-05 -2.985067e-23)
(-0.0001539378 7.444595e-05 5.183074e-28)
(-0.0001679949 7.000912e-05 0)
(-0.0001450887 9.089641e-05 -1.951721e-24)
(-0.0001595847 8.813389e-05 5.183815e-28)
(-0.0001344276 0.000106119 2.830874e-24)
(-0.0001491545 0.0001051234 8.087651e-27)
(-0.0001366364 0.0001209647 -1.908106e-27)
(-0.000121257 0.0001201426 -6.37186e-27)
(-0.0001923236 2.228582e-05 2.046348e-26)
(-0.0002060399 1.191171e-05 2.211615e-26)
(-0.0001886375 4.367595e-05 3.399259e-28)
(-0.0002032157 3.509273e-05 3.514997e-23)
(-0.0001828579 6.442006e-05 -9.783573e-27)
(-0.0001981936 5.752923e-05 -9.775909e-27)
(-0.0001749636 8.426052e-05 0)
(-0.0001909457 7.917532e-05 -1.006525e-26)
(-0.0001649543 0.000102998 8.072752e-27)
(-0.0001814487 9.97582e-05 6.632401e-28)
(-0.0001528436 0.0001205014 7.047217e-27)
(-0.0001697737 0.0001190561 2.666665e-23)
(-0.0001560513 0.0001369786 -1.391235e-23)
(-0.0001387111 0.0001364523 -1.303717e-23)
(-0.0002185329 2.505268e-05 -2.743394e-25)
(-0.0002340276 1.340803e-05 3.650916e-23)
(-0.0002143709 4.929339e-05 1.154886e-26)
(-0.000230932 3.942844e-05 1.15776e-26)
(-0.0002078327 7.2779e-05 -1.005702e-26)
(-0.0002252267 6.488436e-05 1.281447e-26)
(-0.0001989225 9.528919e-05 -1.989179e-24)
(-0.0002170812 8.944532e-05 -3.830506e-23)
(-0.000187611 0.0001165465 1.826266e-26)
(-0.0002063498 0.0001128577 1.198302e-26)
(-0.0001739383 0.0001362011 3.200618e-24)
(-0.0001930337 0.0001348233 3.747254e-23)
(-0.000177082 0.0001549738 3.743889e-23)
(-0.0001579641 0.0001537392 1.155552e-23)
(-0.0002482565 2.805017e-05 1.341414e-26)
(-0.0002658051 1.497194e-05 1.329202e-26)
(-0.0002436501 5.546351e-05 1.284641e-26)
(-0.0002624076 4.421176e-05 0)
(-0.0002362659 8.207967e-05 -8.695827e-25)
(-0.0002559639 7.295312e-05 4.438097e-23)
(-0.0002262731 0.000107672 -4.416204e-28)
(-0.0002468966 0.0001008427 -1.174077e-26)
(-0.0002135198 0.0001319695 3.224373e-26)
(-0.0002349088 0.000127543 4.381858e-23)
(-0.0001979499 0.0001546375 3.041597e-26)
(-0.0002199455 0.0001527881 4.447559e-23)
(-0.000201858 0.000176298 -1.359107e-27)
(-0.0001796087 0.0001752856 2.536735e-26)
(-0.0002818014 3.131661e-05 0)
(-0.0003014811 1.666393e-05 1.720606e-26)
(-0.0002766791 6.209769e-05 2.871719e-26)
(-0.0002976278 4.956158e-05 -1.658927e-26)
(-0.0002686314 9.227337e-05 2.860954e-26)
(-0.0002908594 8.146814e-05 4.883941e-23)
(-0.0002575597 0.0001213834 2.57672e-26)
(-0.000280899 0.0001132034 0)
(-0.0002433806 0.0001491866 3.773252e-26)
(-0.0002676815 0.0001437206 4.973666e-23)
(-0.0002259976 0.0001754107 1.181511e-27)
(-0.0002511528 0.0001727122 1.193826e-26)
(-0.0002312182 0.0001999323 -4.560443e-23)
(-0.0002052906 0.0001998083 -1.095595e-26)
(-0.0003193544 3.503356e-05 -6.318742e-25)
(-0.000341579 1.846975e-05 4.498019e-23)
(-0.0003140058 6.915293e-05 -3.271208e-26)
(-0.0003374384 5.501619e-05 -4.464271e-23)
(-0.0003055584 0.0001030246 -1.601106e-26)
(-0.0003303556 9.081192e-05 -8.881965e-23)
(-0.0002933908 0.000136296 1.47082e-26)
(-0.0003198075 0.0001260402 -3.559117e-26)
(-0.0002777593 0.0001680672 1.470472e-26)
(-0.0003052108 0.000161173 3.036902e-26)
(-0.0002585842 0.0001982455 -9.768716e-27)
(-0.0002871655 0.0001945597 -1.274517e-27)
(-0.0002650143 0.0002260475 -8.286804e-27)
(-0.0002357157 0.0002262249 -8.468806e-24)
(-0.0003615967 3.860829e-05 4.370529e-28)
(-0.0003859289 2.02327e-05 1.934751e-26)
(-0.0003558073 7.652166e-05 -7.373141e-26)
(-0.0003817291 6.024408e-05 -1.908727e-26)
(-0.0003472654 0.0001141455 -9.111184e-26)
(-0.0003747022 0.0001001202 -4.35855e-23)
(-0.0003345121 0.0001520178 2.876982e-24)
(-0.0003643114 0.0001395239 -1.111297e-22)
(-0.0003173889 0.000188488 1.439241e-26)
(-0.0003482959 0.0001794413 7.111325e-23)
(-0.000296434 0.0002235051 3.609992e-24)
(-0.0003289886 0.0002181225 -4.116657e-27)
(-0.0003047491 0.0002550272 -5.202531e-27)
(-0.0002709408 0.00025631 -9.245344e-24)
(-0.0004080437 4.215622e-05 3.172972e-25)
(-0.0004344813 2.193076e-05 2.388883e-30)
(-0.0004024421 8.364828e-05 -2.159054e-26)
(-0.000430247 6.543682e-05 7.959126e-30)
(-0.0003939205 0.0001251485 1.47102e-24)
(-0.0004233675 0.00010898 -4.445806e-26)
(-0.0003808174 0.0001676739 2.220791e-25)
(-0.0004131385 0.0001534354 -5.3911e-26)
(-0.0003632241 0.0002098572 1.855371e-26)
(-0.0003978445 0.0001972239 3.33021e-26)
(-0.0003408229 0.000250739 6.936801e-24)
(-0.0003777151 0.0002424273 -2.024791e-26)
(-0.0003518977 0.0002861172 -6.674499e-27)
(-0.0003129894 0.0002896762 8.741287e-24)
(-0.0004586168 4.547312e-05 -2.391156e-25)
(-0.0004869165 2.338541e-05 3.401953e-29)
(-0.0004534111 9.060378e-05 -2.27685e-26)
(-0.0004829746 6.999078e-05 1.051015e-28)
(-0.0004451528 0.0001365135 3.509508e-25)
(-0.0004771829 0.0001170463 -4.250546e-23)
(-0.0004334232 0.0001829212 2.532383e-24)
(-0.0004681416 0.0001657456 -5.241037e-23)
(-0.000416591 0.00023065 -2.447485e-24)
(-0.0004545018 0.000214998 -2.556037e-26)
(-0.0003932013 0.0002789724 -1.739497e-26)
(-0.0004349844 0.0002654326 -1.173033e-22)
(-0.0004078301 0.0003180296 0)
(-0.0003634389 0.0003253196 1.069289e-27)
(-0.0005127972 4.809198e-05 0)
(-0.0005423679 2.439627e-05 7.389463e-29)
(-0.0005084916 9.607321e-05 -2.650613e-26)
(-0.0005389501 7.32173e-05 -2.213503e-28)
(-0.0005020627 0.0001452264 -5.444107e-26)
(-0.0005346949 0.0001228505 -2.728454e-26)
(-0.0004918031 0.0001963321 -5.370652e-24)
(-0.0005281671 0.000174527 -2.785106e-26)
(-0.0004775902 0.000249453 -1.824484e-23)
(-0.0005177901 0.0002293566 -4.972456e-23)
(-0.000455259 0.0003063444 -3.554618e-26)
(-0.0005022672 0.0002865316 -3.234054e-26)
(-0.0004745689 0.0003487147 8.933172e-27)
(-0.0004241682 0.0003622303 2.012126e-26)
(-0.0005695315 4.966705e-05 -2.798291e-25)
(-0.0005995654 2.47345e-05 3.338929e-26)
(-0.0005665231 9.948725e-05 -1.262749e-24)
(-0.0005969967 7.449291e-05 -4.525899e-28)
(-0.0005625319 0.0001510868 -7.718928e-28)
(-0.0005949819 0.0001256503 3.203981e-26)
(-0.0005558554 0.0002055553 -5.658483e-26)
(-0.0005918563 0.0001798265 0)
(-0.0005454093 0.0002637036 -5.516728e-26)
(-0.0005855795 0.0002385442 -6.163126e-23)
(-0.0005264997 0.0003292165 1.26613e-23)
(-0.0005752939 0.0003041081 -4.821941e-27)
(-0.000554793 0.000374308 5.186586e-26)
(-0.0004977548 0.0003983659 -6.047677e-24)
(-0.0006272849 4.963959e-05 1.04436e-25)
(-0.0006566492 2.412536e-05 -2.252984e-23)
(-0.0006261352 9.986881e-05 3.253479e-26)
(-0.000655453 7.305028e-05 3.563366e-26)
(-0.0006255574 0.0001528136 3.282149e-26)
(-0.0006566162 0.0001242721 -7.320798e-24)
(-0.0006237687 0.0002103729 -3.497311e-26)
(-0.0006584659 0.0001796935 2.164856e-27)
(-0.0006183999 0.0002746598 -1.734908e-23)
(-0.0006593186 0.0002414524 -2.90831e-26)
(-0.0006092246 0.0003462016 1.714611e-22)
(-0.0006569646 0.0003120966 -7.995123e-24)
(-0.0006491262 0.0003924165 6.300581e-26)
(-0.0005875135 0.0004301579 -2.009544e-25)
(-0.0006840369 4.73924e-05 -3.901228e-25)
(-0.0007112248 2.25187e-05 3.6327e-26)
(-0.0006854891 9.635311e-05 7.190936e-26)
(-0.0007122524 6.830754e-05 -4.38892e-23)
(-0.0006893065 0.0001489357 3.82356e-26)
(-0.0007172485 0.00011789 -3.04984e-27)
(-0.0006939846 0.0002074332 1.864768e-23)
(-0.0007248857 0.0001727695 1.127915e-27)
(-0.0006974063 0.0002741128 2.161752e-23)
(-0.0007336098 0.0002353792 4.861531e-26)
(-0.000698528 0.0003509531 5.931615e-23)
(-0.0007409404 0.0003086481 -2.04771e-26)
(-0.0007478198 0.0003985215 1.976449e-26)
(-0.0006906789 0.0004485974 1.016047e-22)
(-0.0007374282 4.284438e-05 -3.818475e-26)
(-0.0007611806 1.982314e-05 -4.186004e-26)
(-0.0007423714 8.83979e-05 4.90138e-24)
(-0.0007647683 6.077575e-05 1.702786e-22)
(-0.0007512545 0.0001390148 -8.127946e-24)
(-0.0007744235 0.0001060088 7.656059e-23)
(-0.0007631181 0.0001966642 4.161776e-26)
(-0.0007882398 0.0001584272 -8.620608e-26)
(-0.0007765353 0.0002644711 3.281188e-23)
(-0.0008059949 0.0002195511 -8.468793e-23)
(-0.0007887135 0.0003463878 3.907668e-27)
(-0.0008263674 0.0002932112 -3.721373e-26)
(-0.0008477439 0.0003878518 5.523306e-26)
(-0.0007995773 0.0004470992 -1.522866e-25)
(-0.0007848211 3.663505e-05 -1.234829e-25)
(-0.0008038569 1.607962e-05 1.075546e-22)
(-0.0007934219 7.627846e-05 2.629476e-23)
(-0.0008101683 5.056109e-05 -8.135031e-26)
(-0.0008084258 0.000122368 -1.255761e-25)
(-0.0008244177 8.948645e-05 -4.011016e-26)
(-0.0008276765 0.0001768851 -3.901672e-26)
(-0.0008450435 0.00013619 2.362791e-22)
(-0.0008510142 0.0002416783 3.883566e-23)
(-0.0008708816 0.00019365 -4.673184e-26)
(-0.0008709491 0.0003216282 1.259247e-26)
(-0.0009018373 0.0002698221 4.417595e-22)
(-0.0009207976 0.0003878622 -1.430351e-21)
(-0.0008596058 0.0004285217 7.052952e-22)
(-0.0008242553 2.837352e-05 2.81969e-24)
(-0.0008365679 1.162004e-05 1.552675e-27)
(-0.0008356517 6.117425e-05 1.416416e-28)
(-0.0008464247 3.769949e-05 -3.748283e-29)
(-0.0008558972 9.953936e-05 -8.521412e-28)
(-0.0008635374 6.916109e-05 -3.780777e-28)
(-0.0008830346 0.0001480537 -9.48605e-26)
(-0.0008904283 0.0001078386 -3.949957e-22)
(-0.00090884 0.0002084672 -1.37036e-25)
(-0.0009234092 0.0001638095 7.493931e-22)
(-0.0009099824 0.0002968683 3.503549e-22)
(-0.0009471344 0.0002625904 -4.408703e-26)
(-0.0008956981 0.0004062393 4.976741e-26)
(-0.0008635491 0.0004585637 1.152182e-25)
(-0.000852618 1.866992e-05 4.505706e-26)
(-0.0008571096 6.631254e-06 -1.712289e-22)
(-0.0008676982 4.308972e-05 -7.877791e-24)
(-0.0008708705 2.321347e-05 -1.766496e-28)
(-0.0008899269 7.314227e-05 9.474437e-26)
(-0.0008907306 4.598609e-05 -8.106267e-28)
(-0.0009187554 0.0001116968 3.909021e-22)
(-0.0009185291 7.941001e-05 4.488483e-26)
(-0.0009322935 0.0001763787 -1.835981e-25)
(-0.000946942 0.0001488881 1.483916e-21)
(-0.0009021062 0.0003165192 2.728521e-29)
(-0.0009180131 0.0002736043 1.060368e-26)
(-0.0007965567 0.0004154158 -5.892693e-26)
(-0.0008262441 0.0005166586 6.6058e-29)
(-0.0008679235 8.061428e-06 4.604665e-26)
(-0.0008635378 1.349723e-06 4.605293e-26)
(-0.0008859894 2.309242e-05 -4.36845e-28)
(-0.0008813603 7.936109e-06 1.569656e-29)
(-0.0009082507 4.436463e-05 -6.349904e-23)
(-0.0009021491 2.348572e-05 -9.156158e-28)
(-0.0009236539 7.961517e-05 -1.415505e-25)
(-0.0009239008 6.392138e-05 4.041461e-22)
(-0.0009122175 0.0001785865 -8.286029e-26)
(-0.0009068278 0.0001593636 -4.696323e-26)
(-0.0008540157 0.0003720731 -5.497242e-22)
(-0.0008162059 0.0002872955 6.804939e-26)
(-0.0006947931 0.000400464 -8.595624e-21)
(-0.0007827966 0.0005316549 1.609129e-21)
(-0.0008680832 -2.854678e-06 1.566547e-29)
(-0.0008541046 -3.884291e-06 0)
(-0.0008877187 2.317168e-06 -4.828746e-23)
(-0.0008750182 -7.137534e-06 4.610721e-26)
(-0.0009038496 1.825397e-05 -2.036794e-22)
(-0.0008931104 7.998882e-06 -4.889481e-28)
(-0.0008967146 7.503197e-05 -5.359903e-26)
(-0.0008916966 6.866238e-05 2.065092e-22)
(-0.0008512272 0.0002232338 9.996619e-26)
(-0.0008167915 0.0001746705 1.35181e-21)
(-0.0007844073 0.0004016119 -5.78929e-21)
(-0.0006891821 0.0002836196 -3.11048e-27)
(-0.000595641 0.0003659656 -2.421012e-20)
(-0.0007515727 0.0004852611 -5.326461e-26)
(-0.0008507662 -1.369928e-05 4.58292e-26)
(-0.0008277277 -8.573803e-06 4.35215e-26)
(-0.0008673062 -1.815622e-05 4.631448e-26)
(-0.0008473991 -1.790747e-05 -2.799802e-22)
(-0.0008697593 4.295124e-06 -1.30488e-25)
(-0.000850955 6.465092e-06 8.813903e-29)
(-0.0008373852 0.0001063821 -1.043528e-25)
(-0.0008083527 8.666044e-05 -1.363092e-21)
(-0.0007725128 0.0002750968 1.076986e-21)
(-0.0006949037 0.0001847121 5.050906e-26)
(-0.000723016 0.0003843882 3.95886e-21)
(-0.0005739737 0.0002661502 -5.728124e-26)
(-0.0004988659 0.000283413 8.873211e-21)
(-0.000714582 0.0004181426 -8.985968e-21)
(-0.0008140808 -2.348734e-05 -1.987725e-23)
(-0.0007840146 -1.11574e-05 -1.848372e-22)
(-0.0008211881 -3.197182e-05 2.713526e-22)
(-0.0007953637 -1.768702e-05 4.394208e-26)
(-0.0008020531 1.499003e-05 -3.733689e-22)
(-0.0007708432 2.249238e-05 1.014101e-28)
(-0.0007487591 0.0001557157 7.791357e-22)
(-0.0006782536 0.0001076884 -8.884406e-26)
(-0.0006891915 0.0002990619 2.470827e-26)
(-0.0005538635 0.0001994242 1.028752e-20)
(-0.0006653803 0.0003449121 -3.183052e-26)
(-0.0004536355 0.0002410907 8.890855e-26)
(-0.0003859902 0.0002141151 6.784078e-26)
(-0.0006787382 0.0003190501 5.443294e-21)
(-0.0007584374 -2.89502e-05 8.147065e-26)
(-0.0007243606 -8.997432e-06 -1.186827e-22)
(-0.0007523087 -2.588873e-05 1.944404e-29)
(-0.0007204376 -3.320561e-06 -1.408046e-28)
(-0.0007112757 6.044412e-05 1.196688e-29)
(-0.0006618694 5.183278e-05 -3.214277e-26)
(-0.0006486836 0.0002062782 1.732641e-26)
(-0.0005447354 0.0001343857 -1.390292e-26)
(-0.0005986315 0.0003063572 1.099172e-25)
(-0.0004203102 0.0002020594 -7.350762e-21)
(-0.0005911946 0.0003168188 -1.045096e-20)
(-0.0003224567 0.0002093255 1.141929e-25)
(-0.0002470848 0.0001844657 1.569905e-25)
(-0.0006152613 0.0002650141 4.802984e-26)
(-0.0006880286 -2.615061e-05 -6.788725e-23)
(-0.0006523578 -5.909959e-07 3.723989e-26)
(-0.0006677556 3.697833e-06 -3.230416e-26)
(-0.0006275462 2.196247e-05 -5.005936e-28)
(-0.0006157413 0.0001220309 -4.596383e-26)
(-0.0005419155 8.715546e-05 -2.791327e-21)
(-0.0005570037 0.0002541132 1.787129e-21)
(-0.0004184537 0.0001677814 -1.384736e-26)
(-0.0005238983 0.000308205 2.552642e-21)
(-0.0003041343 0.0002141798 -9.394335e-21)
(-0.0005215673 0.000285539 -6.149575e-21)
(-0.0002097018 0.0001949184 -1.561558e-27)
(-0.0001139262 0.0001244922 -1.679358e-26)
(-0.0005221631 0.0002415417 6.823289e-26)
(-0.0006071875 -1.150819e-05 -8.129033e-23)
(-0.0005695113 1.343173e-05 -4.178941e-29)
(-0.0005757566 5.012845e-05 -2.666472e-26)
(-0.0005237471 5.304772e-05 -3.594497e-28)
(-0.0005229113 0.0001839195 -2.624209e-26)
(-0.0004254455 0.0001247307 -2.671622e-26)
(-0.000478998 0.0002936915 -3.815616e-26)
(-0.0003073013 0.0002016053 1.751641e-30)
(-0.0004625769 0.0003227412 2.818505e-21)
(-0.0002029595 0.0002309737 -3.827913e-26)
(-0.0004610583 0.0002943506 -9.246879e-26)
(-0.0001078131 0.0002000788 -3.734174e-26)
(-2.284204e-06 0.0001254308 -2.109245e-20)