/*--------------------------------*- C++ -*----------------------------------*\
| =========                 |                                                 |
| \\      /  F ield         | OpenFOAM: The Open Source CFD Toolbox           |
|  \\    /   O peration     | Version:  2206                                  |
|   \\  /    A nd           | Website:  www.openfoam.com                      |
|    \\/     M anipulation  |                                                 |
\*---------------------------------------------------------------------------*/
FoamFile
{
    version     2.0;
    format      ascii;
    arch        "LSB;label=32;scalar=64";
    class       volScalarField;
    location    "11";
    object      alphaEff.a;
}
// * * * * * * * * * * * * * * * * * * * * * * * * * * * * * * * * * * * * * //

dimensions      [0 0 0 0 0 0 0];

internalField   nonuniform List<scalar> 
120
(
0.6101
0.6101
0.6101
0.6101
0.6101
0.6101
0.6101
0.6101
0.6101
0.6101
0.6101
0.6101
0.6101
0.6101
0.6101
0.6101
0.6101
0.6101
0.6101
0.6101
0.6101
0.6101
0.6101
0.6101
0.6101
0.6101
0.610099
0.610099
0.610098
0.610096
0.610093
0.610087
0.610077
0.610057
0.610021
0.609955
0.609833
0.60961
0.609198
0.608442
0.607055
0.60452
0.599908
0.591602
0.576902
0.551673
0.510581
0.449027
0.367495
0.275456
0.188564
0.119322
0.0712278
0.0409209
0.0229793
0.0127481
0.00703804
0.00388947
0.00216487
0.00122369
0.00071107
0.000432178
0.000280534
0.000198107
0.00015331
0.000128967
0.00011574
0.000108552
0.000104647
0.000102525
0.000101372
0.000100745
0.000100405
0.00010022
0.00010012
0.000100065
0.000100035
0.000100019
0.00010001
0.000100006
0.000100003
0.000100002
0.000100001
0.0001
0.0001
0.0001
0.0001
0.0001
0.0001
0.0001
0.0001
0.0001
0.0001
0.0001
0.0001
0.0001
0.0001
0.0001
0.0001
0.0001
0.0001
0.0001
0.0001
0.0001
0.0001
0.0001
0.0001
0.0001
0.0001
0.0001
0.0001
0.0001
0.0001
0.0001
0.0001
0.0001
0.0001
0.0001
0.0001
0.0001
)
;

boundaryField
{
    inlet
    {
        type            cyclic;
    }
    outlet
    {
        type            cyclic;
    }
    top
    {
        type            calculated;
        value           uniform 0.0001;
    }
    bottom
    {
        type            calculated;
        value           uniform 0.6101;
    }
    frontAndBackPlanes
    {
        type            empty;
    }
}


// ************************************************************************* //
