/*--------------------------------*- C++ -*----------------------------------*\
| =========                 |                                                 |
| \\      /  F ield         | OpenFOAM: The Open Source CFD Toolbox           |
|  \\    /   O peration     | Version:  2206                                  |
|   \\  /    A nd           | Website:  www.openfoam.com                      |
|    \\/     M anipulation  |                                                 |
\*---------------------------------------------------------------------------*/
FoamFile
{
    version     2.0;
    format      ascii;
    arch        "LSB;label=32;scalar=64";
    class       volScalarField;
    location    "11";
    object      k.b;
}
// * * * * * * * * * * * * * * * * * * * * * * * * * * * * * * * * * * * * * //

dimensions      [0 2 -2 0 0 0 0];

internalField   nonuniform List<scalar> 
120
(
0
0
0
0
0
0
0
0
0
0
0
0
0
0
0
0
0
0
0
0
0
0
0
0
2.69596e-26
6.43109e-23
3.66834e-21
1.0009e-19
2.95049e-18
6.28007e-17
3.89465e-15
2.87952e-13
7.09424e-12
7.5835e-11
5.28771e-10
3.40711e-09
2.45783e-08
2.06102e-07
1.63478e-06
6.56302e-06
2.70913e-05
0.000119614
0.000519433
0.00184497
0.00493427
0.0102105
0.0173325
0.0254805
0.0338252
0.0417674
0.0489502
0.0551822
0.0603632
0.0644389
0.0673866
0.0692235
0.0700253
0.0699414
0.0691863
0.0680016
0.0666038
0.0651474
0.0637179
0.0623487
0.0610433
0.0597927
0.0585846
0.0574079
0.056254
0.0551163
0.0539901
0.0528723
0.0517606
0.0506533
0.0495493
0.0484479
0.0473483
0.0462506
0.0451542
0.0440585
0.0429639
0.0418708
0.0407786
0.0396872
0.0385966
0.0375067
0.0364176
0.0353291
0.0342413
0.0331541
0.0320674
0.0309812
0.0298955
0.0288103
0.0277254
0.0266408
0.0255566
0.0244726
0.0233888
0.0223052
0.0212217
0.0201382
0.0190547
0.0179712
0.0168876
0.0158038
0.0147197
0.0136353
0.0125505
0.0114653
0.0103795
0.00929297
0.0082057
0.00711748
0.00602841
0.00493705
0.00384987
0.00273358
0.00174626
0.000341319
)
;

boundaryField
{
    inlet
    {
        type            cyclic;
    }
    outlet
    {
        type            cyclic;
    }
    top
    {
        type            zeroGradient;
    }
    bottom
    {
        type            fixedValue;
        value           uniform 1e-06;
    }
    frontAndBackPlanes
    {
        type            empty;
    }
}


// ************************************************************************* //
