/*--------------------------------*- C++ -*----------------------------------*\
| =========                 |                                                 |
| \\      /  F ield         | OpenFOAM: The Open Source CFD Toolbox           |
|  \\    /   O peration     | Version:  2206                                  |
|   \\  /    A nd           | Website:  www.openfoam.com                      |
|    \\/     M anipulation  |                                                 |
\*---------------------------------------------------------------------------*/
FoamFile
{
    version     2.0;
    format      ascii;
    arch        "LSB;label=32;scalar=64";
    class       volScalarField;
    location    "11";
    object      pa;
}
// * * * * * * * * * * * * * * * * * * * * * * * * * * * * * * * * * * * * * //

dimensions      [1 -1 -2 0 0 0 0];

internalField   nonuniform List<scalar> 
120
(
2.66033e-05
0.000141567
0.000508602
0.00137876
0.00313336
0.0063083
0.0116563
0.0202079
0.0333707
0.0530535
0.0818354
0.12319
0.181782
0.263863
0.377795
0.534741
0.74958
1.04212
1.43867
1.97415
2.69473
3.66137
4.9546
6.68159
8.98554
12.0547
16.1323
21.5213
28.5112
37.244
48.8958
63.9362
82.5508
103.937
126.22
144.85
153.281
149.215
137.565
124.683
112.361
100.722
89.7637
79.5509
70.1405
61.5535
53.7672
46.719
40.3232
34.4936
29.1608
24.2805
19.8355
15.8333
12.2986
9.26253
6.74825
4.75504
3.24823
2.16099
1.40815
0.90378
0.573994
0.36196
0.227171
0.142166
0.0889024
0.0557475
0.0352703
0.0227523
0.0151881
0.0106716
0.0079818
0.00635034
0.00531711
0.00460205
0.00426197
0.0029968
0.00586692
0.000867683
7.41461e-16
4.66286e-39
3.86883e-50
4.73791e-61
6.89557e-72
1.08278e-82
1.69843e-93
2.60956e-104
3.87426e-115
5.64775e-126
7.75216e-137
9.84491e-148
1.33797e-158
1.69082e-169
1.95068e-180
2.32918e-191
3.03666e-202
3.64875e-213
4.23033e-224
4.5105e-235
5.60098e-246
6.37483e-257
6.85146e-268
7.34346e-279
6.78354e-290
7.43055e-301
8.19334e-312
9.88131e-323
0
0
0
0
0
0
0
0
0
0
0
0
)
;

boundaryField
{
    inlet
    {
        type            cyclic;
    }
    outlet
    {
        type            cyclic;
    }
    top
    {
        type            slip;
    }
    bottom
    {
        type            zeroGradient;
    }
    frontAndBackPlanes
    {
        type            empty;
    }
}


// ************************************************************************* //
