/*--------------------------------*- C++ -*----------------------------------*\
| =========                 |                                                 |
| \\      /  F ield         | OpenFOAM: The Open Source CFD Toolbox           |
|  \\    /   O peration     | Version:  2206                                  |
|   \\  /    A nd           | Website:  www.openfoam.com                      |
|    \\/     M anipulation  |                                                 |
\*---------------------------------------------------------------------------*/
FoamFile
{
    version     2.0;
    format      ascii;
    arch        "LSB;label=32;scalar=64";
    class       surfaceScalarField;
    location    "11";
    object      phi.a;
}
// * * * * * * * * * * * * * * * * * * * * * * * * * * * * * * * * * * * * * //

dimensions      [0 3 -1 0 0 0 0];

oriented        oriented;

internalField   nonuniform List<scalar> 
119
(
1.18403e-14
3.09411e-14
4.49613e-14
6.36286e-14
7.99308e-14
9.96504e-14
1.19366e-13
1.40615e-13
1.63257e-13
1.87505e-13
2.13539e-13
2.41586e-13
2.71903e-13
3.04793e-13
3.40662e-13
3.80131e-13
4.24114e-13
4.73817e-13
5.30605e-13
5.9567e-13
6.69524e-13
7.5207e-13
8.44957e-13
9.56342e-13
1.10305e-12
1.30586e-12
1.60235e-12
2.12296e-12
3.18671e-12
4.67967e-12
5.34677e-12
6.314e-12
7.96503e-12
1.04047e-11
1.43424e-11
2.14958e-11
3.43766e-11
5.53914e-11
8.60086e-11
1.27577e-10
1.81542e-10
2.48683e-10
3.28577e-10
4.19228e-10
5.1724e-10
6.18151e-10
7.16978e-10
8.09002e-10
8.9054e-10
9.59422e-10
1.01506e-09
1.05824e-09
1.09063e-09
1.11441e-09
1.13183e-09
1.14495e-09
1.15554e-09
1.16524e-09
1.17609e-09
1.19114e-09
1.21517e-09
1.25563e-09
1.32456e-09
1.44194e-09
1.64143e-09
1.97782e-09
2.53495e-09
3.42741e-09
4.77643e-09
6.6414e-09
8.86229e-09
1.09268e-08
1.19675e-08
1.11478e-08
8.23384e-09
6.40758e-09
-3.16249e-09
3.52799e-09
-1.24737e-08
-7.54935e-07
-1.62096e-06
-1.77569e-06
-1.77712e-06
-1.7789e-06
-1.78006e-06
-1.78167e-06
-1.78321e-06
-1.78415e-06
-1.78523e-06
-1.78685e-06
-1.78704e-06
-1.78869e-06
-1.78904e-06
-1.7901e-06
-1.79073e-06
-1.79141e-06
-1.79207e-06
-1.79259e-06
-1.79317e-06
-1.7936e-06
-1.79409e-06
-1.79444e-06
-1.79485e-06
-1.79513e-06
-1.79547e-06
-1.79569e-06
-1.79596e-06
-1.79613e-06
-1.79635e-06
-1.79647e-06
-1.79664e-06
-1.79672e-06
-1.79686e-06
-1.79687e-06
-1.79699e-06
-1.79698e-06
-1.79705e-06
-1.79703e-06
-1.79707e-06
)
;

boundaryField
{
    inlet
    {
        type            cyclic;
        value           nonuniform List<scalar> 
120
(
-1.01637e-12
-3.02481e-12
-5.00882e-12
-6.96841e-12
-8.90359e-12
-1.08144e-11
-1.27008e-11
-1.45627e-11
-1.64004e-11
-1.82136e-11
-2.00024e-11
-2.17669e-11
-2.35071e-11
-2.52229e-11
-2.69143e-11
-2.85815e-11
-3.02242e-11
-3.18427e-11
-3.34369e-11
-3.50067e-11
-3.65523e-11
-3.80735e-11
-3.95705e-11
-4.10432e-11
-4.24916e-11
-4.39158e-11
-4.53157e-11
-4.68974e-11
-4.96811e-11
-6.00227e-11
-1.5508e-10
-1.11915e-09
-5.32981e-09
-1.43004e-08
-2.73659e-08
-4.38664e-08
-6.40252e-08
-8.86238e-08
-1.19135e-07
-1.5797e-07
-2.08252e-07
-2.73807e-07
-3.59212e-07
-4.6938e-07
-6.0836e-07
-7.7765e-07
-9.75058e-07
-1.19498e-06
-1.42983e-06
-1.67178e-06
-1.91391e-06
-2.1508e-06
-2.37854e-06
-2.59453e-06
-2.79719e-06
-2.98575e-06
-3.16008e-06
-3.32065e-06
-3.46853e-06
-3.60528e-06
-3.73273e-06
-3.85269e-06
-3.96663e-06
-4.07562e-06
-4.18037e-06
-4.28127e-06
-4.37853e-06
-4.4722e-06
-4.56226e-06
-4.64865e-06
-4.73138e-06
-4.81076e-06
-4.88799e-06
-4.96559e-06
-5.04772e-06
-5.13996e-06
-5.24611e-06
-5.39139e-06
-5.52427e-06
-5.79113e-06
-6.36021e-06
-6.46481e-06
-6.48619e-06
-6.49578e-06
-6.51148e-06
-6.51988e-06
-6.53368e-06
-6.54182e-06
-6.55419e-06
-6.56117e-06
-6.5716e-06
-6.57985e-06
-6.58666e-06
-6.59585e-06
-6.60092e-06
-6.60928e-06
-6.61377e-06
-6.62102e-06
-6.62499e-06
-6.63123e-06
-6.63469e-06
-6.64001e-06
-6.64297e-06
-6.64743e-06
-6.64994e-06
-6.65359e-06
-6.65569e-06
-6.65859e-06
-6.6603e-06
-6.66251e-06
-6.66386e-06
-6.66544e-06
-6.66648e-06
-6.66747e-06
-6.66819e-06
-6.66879e-06
-6.66918e-06
-6.66946e-06
-6.66959e-06
-6.66965e-06
)
;
    }
    outlet
    {
        type            cyclic;
        value           nonuniform List<scalar> 
120
(
1.01637e-12
3.02481e-12
5.00882e-12
6.96841e-12
8.90359e-12
1.08144e-11
1.27008e-11
1.45627e-11
1.64004e-11
1.82136e-11
2.00024e-11
2.17669e-11
2.35071e-11
2.52229e-11
2.69143e-11
2.85815e-11
3.02242e-11
3.18427e-11
3.34369e-11
3.50067e-11
3.65523e-11
3.80735e-11
3.95705e-11
4.10432e-11
4.24916e-11
4.39158e-11
4.53157e-11
4.68974e-11
4.96811e-11
6.00227e-11
1.5508e-10
1.11915e-09
5.32981e-09
1.43004e-08
2.73659e-08
4.38664e-08
6.40252e-08
8.86238e-08
1.19135e-07
1.5797e-07
2.08252e-07
2.73807e-07
3.59212e-07
4.6938e-07
6.0836e-07
7.7765e-07
9.75058e-07
1.19498e-06
1.42983e-06
1.67178e-06
1.91391e-06
2.1508e-06
2.37854e-06
2.59453e-06
2.79719e-06
2.98575e-06
3.16008e-06
3.32065e-06
3.46853e-06
3.60528e-06
3.73273e-06
3.85269e-06
3.96663e-06
4.07562e-06
4.18037e-06
4.28127e-06
4.37853e-06
4.4722e-06
4.56226e-06
4.64865e-06
4.73138e-06
4.81076e-06
4.88799e-06
4.96559e-06
5.04772e-06
5.13996e-06
5.24611e-06
5.39139e-06
5.52427e-06
5.79113e-06
6.36021e-06
6.46481e-06
6.48619e-06
6.49578e-06
6.51148e-06
6.51988e-06
6.53368e-06
6.54182e-06
6.55419e-06
6.56117e-06
6.5716e-06
6.57985e-06
6.58666e-06
6.59585e-06
6.60092e-06
6.60928e-06
6.61377e-06
6.62102e-06
6.62499e-06
6.63123e-06
6.63469e-06
6.64001e-06
6.64297e-06
6.64743e-06
6.64994e-06
6.65359e-06
6.65569e-06
6.65859e-06
6.6603e-06
6.66251e-06
6.66386e-06
6.66544e-06
6.66648e-06
6.66747e-06
6.66819e-06
6.66879e-06
6.66918e-06
6.66946e-06
6.66959e-06
6.66965e-06
)
;
    }
    top
    {
        type            calculated;
        value           uniform -1.79706e-06;
    }
    bottom
    {
        type            fixedValue;
        value           uniform 0;
    }
    frontAndBackPlanes
    {
        type            empty;
        value           nonuniform List<scalar> 0();
    }
}


// ************************************************************************* //
