/*--------------------------------*- C++ -*----------------------------------*\
| =========                 |                                                 |
| \\      /  F ield         | OpenFOAM: The Open Source CFD Toolbox           |
|  \\    /   O peration     | Version:  2206                                  |
|   \\  /    A nd           | Website:  www.openfoam.com                      |
|    \\/     M anipulation  |                                                 |
\*---------------------------------------------------------------------------*/
FoamFile
{
    version     2.0;
    format      ascii;
    arch        "LSB;label=32;scalar=64";
    class       surfaceScalarField;
    location    "11";
    object      phi.b;
}
// * * * * * * * * * * * * * * * * * * * * * * * * * * * * * * * * * * * * * //

dimensions      [0 3 -1 0 0 0 0];

oriented        oriented;

internalField   nonuniform List<scalar> 
119
(
-1.87525e-14
-4.89147e-14
-7.09956e-14
-1.0037e-13
-1.25992e-13
-1.57031e-13
-1.88073e-13
-2.21508e-13
-2.57069e-13
-2.95087e-13
-3.35864e-13
-3.79808e-13
-4.2735e-13
-4.7895e-13
-5.35179e-13
-5.96945e-13
-6.65676e-13
-7.43325e-13
-8.32078e-13
-9.33755e-13
-1.04904e-12
-1.17767e-12
-1.32222e-12
-1.49555e-12
-1.72395e-12
-2.03964e-12
-2.50086e-12
-3.30996e-12
-4.95971e-12
-7.26736e-12
-8.28453e-12
-9.75482e-12
-1.22546e-11
-1.59112e-11
-2.17219e-11
-3.20108e-11
-4.97257e-11
-7.65493e-11
-1.1146e-10
-1.52097e-10
-1.95396e-10
-2.37636e-10
-2.75295e-10
-3.05816e-10
-3.28029e-10
-3.41951e-10
-3.48316e-10
-3.48154e-10
-3.4249e-10
-3.32169e-10
-3.17789e-10
-2.99723e-10
-2.78178e-10
-2.53314e-10
-2.25401e-10
-1.95025e-10
-1.63282e-10
-1.31815e-10
-1.02558e-10
-7.71916e-11
-5.66513e-11
-4.10024e-11
-2.96759e-11
-2.18214e-11
-1.65811e-11
-1.321e-11
-1.11012e-11
-9.76012e-12
-8.76591e-12
-7.77669e-12
-6.54839e-12
-5.03912e-12
-3.4137e-12
-1.95633e-12
-8.86629e-13
-4.31531e-13
1.25296e-13
-1.14531e-13
2.75082e-13
1.84276e-12
4.55706e-16
4.39631e-16
4.14811e-16
3.78285e-16
3.44544e-16
3.23284e-16
3.18688e-16
3.33788e-16
3.63525e-16
3.88591e-16
3.97229e-16
3.85572e-16
3.52887e-16
3.18246e-16
2.93155e-16
2.86338e-16
2.91026e-16
2.9038e-16
2.76552e-16
2.43705e-16
2.27482e-16
2.03409e-16
2.50067e-16
2.1311e-16
2.8704e-16
1.94493e-16
2.4925e-16
2.52614e-16
2.43565e-16
3.21705e-16
2.84047e-16
2.36653e-16
2.97934e-16
3.16981e-16
2.74229e-16
2.7312e-16
2.78979e-16
2.53511e-16
2.46436e-16
)
;

boundaryField
{
    inlet
    {
        type            cyclic;
        value           nonuniform List<scalar> 
120
(
-3.77784e-08
-3.83816e-08
-3.84027e-08
-3.84311e-08
-3.84544e-08
-3.84805e-08
-3.85065e-08
-3.85333e-08
-3.85607e-08
-3.85888e-08
-3.86176e-08
-3.86472e-08
-3.86777e-08
-3.8709e-08
-3.87412e-08
-3.87745e-08
-3.88088e-08
-3.88444e-08
-3.88811e-08
-3.89194e-08
-3.89596e-08
-3.9002e-08
-3.90473e-08
-3.90947e-08
-3.91433e-08
-3.91928e-08
-3.92452e-08
-3.93063e-08
-3.94009e-08
-3.95815e-08
-3.98349e-08
-4.09819e-08
-4.54213e-08
-5.47196e-08
-6.82928e-08
-8.56798e-08
-1.07477e-07
-1.3495e-07
-1.70076e-07
-2.15809e-07
-2.76669e-07
-3.6148e-07
-4.88553e-07
-6.76858e-07
-9.26786e-07
-1.2217e-06
-1.53984e-06
-1.86282e-06
-2.17827e-06
-2.47914e-06
-2.76209e-06
-3.02593e-06
-3.27065e-06
-3.49676e-06
-3.70504e-06
-3.89631e-06
-4.07147e-06
-4.23147e-06
-4.37742e-06
-4.51053e-06
-4.63211e-06
-4.74347e-06
-4.84586e-06
-4.94037e-06
-5.02796e-06
-5.10946e-06
-5.18554e-06
-5.25679e-06
-5.32371e-06
-5.38671e-06
-5.44616e-06
-5.50237e-06
-5.55562e-06
-5.60614e-06
-5.65415e-06
-5.69983e-06
-5.74334e-06
-5.78484e-06
-5.82445e-06
-5.8623e-06
-5.89849e-06
-5.93312e-06
-5.96628e-06
-5.99804e-06
-6.02849e-06
-6.05768e-06
-6.08568e-06
-6.11255e-06
-6.13834e-06
-6.16309e-06
-6.18685e-06
-6.20966e-06
-6.23156e-06
-6.25258e-06
-6.27275e-06
-6.29211e-06
-6.31067e-06
-6.32847e-06
-6.34553e-06
-6.36187e-06
-6.3775e-06
-6.39245e-06
-6.40673e-06
-6.42035e-06
-6.43334e-06
-6.44568e-06
-6.45741e-06
-6.46851e-06
-6.47901e-06
-6.48889e-06
-6.49816e-06
-6.50682e-06
-6.51486e-06
-6.52227e-06
-6.52902e-06
-6.5351e-06
-6.54047e-06
-6.54506e-06
-6.54873e-06
-6.55157e-06
)
;
    }
    outlet
    {
        type            cyclic;
        value           nonuniform List<scalar> 
120
(
3.77784e-08
3.83816e-08
3.84027e-08
3.84311e-08
3.84544e-08
3.84805e-08
3.85065e-08
3.85333e-08
3.85607e-08
3.85888e-08
3.86176e-08
3.86472e-08
3.86777e-08
3.8709e-08
3.87412e-08
3.87745e-08
3.88088e-08
3.88444e-08
3.88811e-08
3.89194e-08
3.89596e-08
3.9002e-08
3.90473e-08
3.90947e-08
3.91433e-08
3.91928e-08
3.92452e-08
3.93063e-08
3.94009e-08
3.95815e-08
3.98349e-08
4.09819e-08
4.54213e-08
5.47196e-08
6.82928e-08
8.56798e-08
1.07477e-07
1.3495e-07
1.70076e-07
2.15809e-07
2.76669e-07
3.6148e-07
4.88553e-07
6.76858e-07
9.26786e-07
1.2217e-06
1.53984e-06
1.86282e-06
2.17827e-06
2.47914e-06
2.76209e-06
3.02593e-06
3.27065e-06
3.49676e-06
3.70504e-06
3.89631e-06
4.07147e-06
4.23147e-06
4.37742e-06
4.51053e-06
4.63211e-06
4.74347e-06
4.84586e-06
4.94037e-06
5.02796e-06
5.10946e-06
5.18554e-06
5.25679e-06
5.32371e-06
5.38671e-06
5.44616e-06
5.50237e-06
5.55562e-06
5.60614e-06
5.65415e-06
5.69983e-06
5.74334e-06
5.78484e-06
5.82445e-06
5.8623e-06
5.89849e-06
5.93312e-06
5.96628e-06
5.99804e-06
6.02849e-06
6.05768e-06
6.08568e-06
6.11255e-06
6.13834e-06
6.16309e-06
6.18685e-06
6.20966e-06
6.23156e-06
6.25258e-06
6.27275e-06
6.29211e-06
6.31067e-06
6.32847e-06
6.34553e-06
6.36187e-06
6.3775e-06
6.39245e-06
6.40673e-06
6.42035e-06
6.43334e-06
6.44568e-06
6.45741e-06
6.46851e-06
6.47901e-06
6.48889e-06
6.49816e-06
6.50682e-06
6.51486e-06
6.52227e-06
6.52902e-06
6.5351e-06
6.54047e-06
6.54506e-06
6.54873e-06
6.55157e-06
)
;
    }
    top
    {
        type            calculated;
        value           uniform 2.56531e-16;
    }
    bottom
    {
        type            fixedValue;
        value           uniform 0;
    }
    frontAndBackPlanes
    {
        type            empty;
        value           nonuniform List<scalar> 0();
    }
}


// ************************************************************************* //
