/*--------------------------------*- C++ -*----------------------------------*\
| =========                 |                                                 |
| \\      /  F ield         | OpenFOAM: The Open Source CFD Toolbox           |
|  \\    /   O peration     | Version:  2206                                  |
|   \\  /    A nd           | Website:  www.openfoam.com                      |
|    \\/     M anipulation  |                                                 |
\*---------------------------------------------------------------------------*/
FoamFile
{
    version     2.0;
    format      ascii;
    arch        "LSB;label=32;scalar=64";
    class       volTensorField;
    location    "11";
    object      Taua;
}
// * * * * * * * * * * * * * * * * * * * * * * * * * * * * * * * * * * * * * //

dimensions      [1 -1 -2 0 0 0 0];

internalField   nonuniform List<tensor> 
120
(
(-0.454151 0 0 118.694 0.908303 0 0 0 -0.454151)
(-0.0507151 0 0 117.262 0.10143 0 0 0 -0.0507151)
(-0.228768 0 0 115.828 0.457536 0 0 0 -0.228768)
(-0.304595 0 0 114.394 0.60919 0 0 0 -0.304595)
(-0.266003 0 0 112.96 0.532005 0 0 0 -0.266003)
(-0.321763 0 0 111.527 0.643525 0 0 0 -0.321763)
(-0.321697 -6.17858e-16 0 110.094 0.643395 0 0 0 -0.321697)
(-0.346703 0 0 108.661 0.693407 0 0 0 -0.346703)
(-0.369443 0 0 107.229 0.738886 0 0 0 -0.369443)
(-0.395645 -2.47143e-15 0 105.797 0.79129 0 0 0 -0.395645)
(-0.424769 0 0 104.366 0.849539 0 0 0 -0.424769)
(-0.457614 0 0 102.935 0.915228 0 0 0 -0.457614)
(-0.494642 0 0 101.505 0.989285 0 0 0 -0.494642)
(-0.536596 0 0 100.075 1.07319 0 0 0 -0.536596)
(-0.585205 0 0 98.645 1.17041 0 0 0 -0.585205)
(-0.64391 0 0 97.2158 1.28782 0 0 0 -0.64391)
(-0.717514 0 0 95.787 1.43503 0 0 0 -0.717514)
(-0.810805 0 0 94.3586 1.62161 0 0 0 -0.810805)
(-0.926366 0 0 92.9306 1.85273 0 0 0 -0.926366)
(-1.06132 0 0 91.5031 2.12263 0 0 0 -1.06132)
(-1.20463 0 0 90.076 2.40926 0 0 0 -1.20463)
(-1.34628 0 0 88.6494 2.69257 0 0 0 -1.34628)
(-1.51479 0 0 87.2233 3.02958 0 0 0 -1.51479)
(-1.81641 0 0 85.7976 3.63281 0 0 0 -1.81641)
(-2.39261 0 0 84.3723 4.78522 0 0 0 -2.39261)
(-3.30658 0 0 82.9476 6.61317 0 0 0 -3.30658)
(-4.82428 0 0 87.5754 9.64857 0 0 0 -4.82428)
(-6.22464 0 0 94.8163 12.4493 0 0 0 -6.22464)
(-3.75701 0 0 89.2455 7.51402 0 0 0 -3.75701)
(-0.290723 0 0 77.9833 0.581447 0 0 0 -0.290723)
(0.183711 0 0 69.2601 -0.367422 0 0 0 0.183711)
(0.0116693 0 0 64.8392 -0.0233385 0 0 0 0.0116693)
(-0.0517989 0 0 65.5363 0.103598 0 0 0 -0.0517989)
(-0.0676918 0 0 67.9495 0.135384 0 0 0 -0.0676918)
(-0.0693514 0 0 69.1382 0.138703 0 0 0 -0.0693514)
(0.0284237 0 0 68.5482 -0.0568474 0 0 0 0.0284237)
(0.0944707 0 0 67.3952 -0.188941 0 0 0 0.0944707)
(0.00980909 0 0 66.3971 -0.0196182 0 0 0 0.00980909)
(-0.0489601 0 0 64.9419 0.0979203 0 0 0 -0.0489601)
(-0.0322526 0 0 63.4174 0.0645052 0 0 0 -0.0322526)
(-0.0167931 0 0 61.9997 0.0335863 0 0 0 -0.0167931)
(-0.0140907 0 0 60.5941 0.0281814 0 0 0 -0.0140907)
(-0.0132585 0 0 59.0637 0.0265171 0 0 0 -0.0132585)
(-0.0115856 0 0 57.1649 0.0231711 0 0 0 -0.0115856)
(-0.00964852 0 0 54.5755 0.019297 0 0 0 -0.00964852)
(-0.00780717 0 0 51.0965 0.0156143 0 0 0 -0.00780717)
(-0.00615252 0 0 46.7886 0.012305 0 0 0 -0.00615252)
(-0.00471165 0 0 41.9144 0.00942331 0 0 0 -0.00471165)
(-0.0034967 0 0 36.7933 0.00699339 0 0 0 -0.0034967)
(-0.00250738 0 0 31.6975 0.00501477 0 0 0 -0.00250738)
(-0.00173243 0 0 26.8188 0.00346486 0 0 0 -0.00173243)
(-0.00115148 0 0 22.2778 0.00230296 0 0 0 -0.00115148)
(-0.000737019 0 0 18.1458 0.00147404 0 0 0 -0.000737019)
(-0.000457147 0 0 14.4643 0.000914295 0 0 0 -0.000457147)
(-0.000278841 0 0 11.2574 0.000557682 0 0 0 -0.000278841)
(-0.000171528 0 0 8.53626 0.000343056 0 0 0 -0.000171528)
(-0.000110541 0 0 6.29721 0.000221083 0 0 0 -0.000110541)
(-7.90443e-05 0 0 4.51783 0.000158089 0 0 0 -7.90443e-05)
(-6.71068e-05 0 0 3.15514 0.000134214 0 0 0 -6.71068e-05)
(-6.83941e-05 0 0 2.14946 0.000136788 0 0 0 -6.83941e-05)
(-7.76152e-05 0 0 1.43281 0.00015523 0 0 0 -7.76152e-05)
(-9.04416e-05 0 0 0.937819 0.000180883 0 0 0 -9.04416e-05)
(-0.000104237 0 0 0.604757 0.000208474 0 0 0 -0.000104237)
(-0.000118022 0 0 0.385275 0.000236044 0 0 0 -0.000118022)
(-0.000131465 0 0 0.242985 0.000262931 0 0 0 -0.000131465)
(-0.000143792 0 0 0.151933 0.000287584 0 0 0 -0.000143792)
(-0.000153284 0 0 0.094304 0.000306568 0 0 0 -0.000153284)
(-0.000157056 0 0 0.0581879 0.000314112 0 0 0 -0.000157056)
(-0.000151611 0 0 0.0357756 0.000303222 0 0 0 -0.000151611)
(-0.00013381 0 0 0.0220205 0.00026762 0 0 0 -0.00013381)
(-0.000103018 0 0 0.0136889 0.000206036 0 0 0 -0.000103018)
(-6.30038e-05 0 0 0.00872386 0.000126008 0 0 0 -6.30038e-05)
(-2.12945e-05 0 0 0.00581497 4.25889e-05 0 0 0 -2.12945e-05)
(1.10871e-05 0 0 0.00412958 -2.21742e-05 0 0 0 1.10871e-05)
(3.48474e-05 0 0 0.00314646 -6.96947e-05 0 0 0 3.48474e-05)
(-3.22455e-06 0 0 0.002498 6.4491e-06 0 0 0 -3.22455e-06)
(7.39267e-05 0 0 0.00231226 -0.000147853 0 0 0 7.39267e-05)
(-4.32728e-05 0 0 0.00129182 8.65455e-05 0 0 0 -4.32728e-05)
(0.000161903 0 0 0.00351278 -0.000323806 0 0 0 0.000161903)
(0.000196353 0 0 0.000410729 -0.000392707 0 0 0 0.000196353)
(3.85539e-26 0 0 5.5419e-26 -7.71077e-26 0 0 0 3.85539e-26)
(8.61031e-55 0 0 1.0276e-54 -1.72206e-54 0 0 0 8.61031e-55)
(6.29223e-79 0 0 2.47619e-77 -1.25845e-78 0 0 0 6.29223e-79)
(1.19025e-100 0 0 3.03508e-99 -2.38051e-100 0 0 0 1.19025e-100)
(1.63799e-122 0 0 6.14051e-121 -3.27598e-122 0 0 0 1.63799e-122)
(5.62896e-144 0 0 1.39541e-142 -1.12579e-143 0 0 0 5.62896e-144)
(1.32118e-165 0 0 3.3974e-164 -2.64235e-165 0 0 0 1.32118e-165)
(1.91747e-187 0 0 7.51003e-186 -3.83494e-187 0 0 0 1.91747e-187)
(4.82533e-209 0 0 1.56243e-207 -9.65067e-209 0 0 0 4.82533e-209)
(1.55412e-230 0 0 2.98957e-229 -3.10824e-230 0 0 0 1.55412e-230)
(3.25874e-253 0 0 6.05263e-251 -6.51747e-253 0 0 0 3.25874e-253)
(4.79874e-274 0 0 7.8682e-273 -9.59747e-274 0 0 0 4.79874e-274)
(1.90088e-296 0 0 1.5469e-294 -3.80176e-296 0 0 0 1.90088e-296)
(9.03911e-318 0 0 2.20187e-316 -1.80782e-317 0 0 0 9.03911e-318)
(0 0 0 0 -0 0 0 0 0)
(0 0 0 0 -0 0 0 0 0)
(0 0 0 0 -0 0 0 0 0)
(0 0 0 0 -0 0 0 0 0)
(0 0 0 0 -0 0 0 0 0)
(0 0 0 0 -0 0 0 0 0)
(0 0 0 0 -0 0 0 0 0)
(0 0 0 0 -0 0 0 0 0)
(0 0 0 0 -0 0 0 0 0)
(0 0 0 0 -0 0 0 0 0)
(0 0 0 0 -0 0 0 0 0)
(0 0 0 0 -0 0 0 0 0)
(0 0 0 0 -0 0 0 0 0)
(0 0 0 0 -0 0 0 0 0)
(0 0 0 0 -0 0 0 0 0)
(0 0 0 0 -0 0 0 0 0)
(0 0 0 0 -0 0 0 0 0)
(0 0 0 0 -0 0 0 0 0)
(0 0 0 0 -0 0 0 0 0)
(0 0 0 0 -0 0 0 0 0)
(0 0 0 0 -0 0 0 0 0)
(-0 0 0 0 0 0 0 0 -0)
(0 0 0 0 -0 0 0 0 0)
(-0 0 0 0 0 0 0 0 -0)
(0 0 0 0 -0 0 0 0 0)
(-0 0 0 0 0 0 0 0 -0)
)
;

boundaryField
{
    inlet
    {
        type            cyclic;
    }
    outlet
    {
        type            cyclic;
    }
    top
    {
        type            extrapolatedCalculated;
        value           uniform (0 0 0 0 0 0 0 0 0);
    }
    bottom
    {
        type            extrapolatedCalculated;
        value           uniform (-0.85061 0 0 119.408 1.70122 0 0 0 -0.85061);
    }
    frontAndBackPlanes
    {
        type            empty;
    }
}


// ************************************************************************* //
