/*--------------------------------*- C++ -*----------------------------------*\
| =========                 |                                                 |
| \\      /  F ield         | OpenFOAM: The Open Source CFD Toolbox           |
|  \\    /   O peration     | Version:  2206                                  |
|   \\  /    A nd           | Website:  www.openfoam.com                      |
|    \\/     M anipulation  |                                                 |
\*---------------------------------------------------------------------------*/
FoamFile
{
    version     2.0;
    format      ascii;
    arch        "LSB;label=32;scalar=64";
    class       volTensorField;
    location    "11";
    object      Taub;
}
// * * * * * * * * * * * * * * * * * * * * * * * * * * * * * * * * * * * * * //

dimensions      [1 -1 -2 0 0 0 0];

internalField   nonuniform List<tensor> 
120
(
(4.47506e-10 0 0 0.00346752 -8.95011e-10 0 0 0 4.47506e-10)
(7.86734e-10 0 0 2.84277e-05 -1.57347e-09 0 0 0 7.86734e-10)
(5.91814e-10 0 0 2.25543e-06 -1.18363e-09 0 0 0 5.91814e-10)
(6.78808e-10 0 0 2.35475e-06 -1.35762e-09 0 0 0 6.78808e-10)
(7.19502e-10 0 0 2.24924e-06 -1.439e-09 0 0 0 7.19502e-10)
(7.28214e-10 0 0 2.37791e-06 -1.45643e-09 0 0 0 7.28214e-10)
(8.2686e-10 1.91786e-24 0 2.40742e-06 -1.65372e-09 0 0 0 8.2686e-10)
(8.36685e-10 0 0 2.47072e-06 -1.67337e-09 0 0 0 8.36685e-10)
(9.06429e-10 0 0 2.53123e-06 -1.81286e-09 0 0 0 9.06429e-10)
(9.64486e-10 0 0 2.59658e-06 -1.92897e-09 0 0 0 9.64486e-10)
(1.03623e-09 0 0 2.66556e-06 -2.07246e-09 0 0 0 1.03623e-09)
(1.1166e-09 0 0 2.7391e-06 -2.23321e-09 0 0 0 1.1166e-09)
(1.20821e-09 0 0 2.81783e-06 -2.41641e-09 0 0 0 1.20821e-09)
(1.31177e-09 0 0 2.90233e-06 -2.62354e-09 0 0 0 1.31177e-09)
(1.431e-09 0 0 2.99269e-06 -2.862e-09 0 0 0 1.431e-09)
(1.57415e-09 0 0 3.08898e-06 -3.1483e-09 0 0 0 1.57415e-09)
(1.75364e-09 0 0 3.1922e-06 -3.50728e-09 0 0 0 1.75364e-09)
(1.98157e-09 0 0 3.30503e-06 -3.96315e-09 0 0 0 1.98157e-09)
(2.26326e-09 0 0 3.43309e-06 -4.52652e-09 0 0 0 2.26326e-09)
(2.58833e-09 0 0 3.58656e-06 -5.17666e-09 0 0 0 2.58833e-09)
(2.93005e-09 0 0 3.77955e-06 -5.8601e-09 0 0 0 2.93005e-09)
(3.27748e-09 0 0 4.01341e-06 -6.55496e-09 0 0 0 3.27748e-09)
(3.71587e-09 0 0 4.24375e-06 -7.43175e-09 0 0 0 3.71587e-09)
(4.49792e-09 0 0 4.39829e-06 -8.99584e-09 0 0 0 4.49792e-09)
(5.86194e-09 0 0 4.49408e-06 -1.17239e-08 0 0 0 5.86194e-09)
(8.21114e-09 0 0 4.67234e-06 -1.64223e-08 0 0 0 8.21114e-09)
(1.17722e-08 0 0 5.20529e-06 -2.35443e-08 0 0 0 1.17722e-08)
(2.16664e-08 0 0 7.14206e-06 -4.33328e-08 0 0 0 2.16664e-08)
(4.23507e-08 0 0 1.26359e-05 -8.47013e-08 0 0 0 4.23507e-08)
(5.67283e-08 0 0 1.99584e-05 -1.13457e-07 0 0 0 5.67283e-08)
(3.03239e-08 0 0 6.44837e-05 -6.06477e-08 0 0 0 3.03239e-08)
(5.42758e-08 0 0 0.000257625 -1.08552e-07 0 0 0 5.42758e-08)
(2.60828e-08 0 0 0.000634939 -5.21655e-08 0 0 0 2.60828e-08)
(8.70453e-08 0 0 0.00106078 -1.74091e-07 0 0 0 8.70453e-08)
(1.09939e-07 0 0 0.00144387 -2.19877e-07 0 0 0 1.09939e-07)
(2.57689e-07 0 0 0.00184598 -5.15377e-07 0 0 0 2.57689e-07)
(6.55101e-07 0 0 0.00236988 -1.3102e-06 0 0 0 6.55101e-07)
(7.72612e-07 0 0 0.00314883 -1.54522e-06 0 0 0 7.72612e-07)
(9.77696e-07 0 0 0.0044977 -1.95539e-06 0 0 0 9.77696e-07)
(1.48223e-06 0 0 0.00743541 -2.96446e-06 0 0 0 1.48223e-06)
(2.69602e-06 0 0 0.0161135 -5.39205e-06 0 0 0 2.69602e-06)
(5.92537e-06 0 0 0.0502696 -1.18507e-05 0 0 0 5.92537e-06)
(1.26678e-05 0 0 0.194784 -2.53357e-05 0 0 0 1.26678e-05)
(2.48879e-05 0 0 0.691361 -4.97759e-05 0 0 0 2.48879e-05)
(4.17553e-05 0 0 1.91822 -8.35106e-05 0 0 0 4.17553e-05)
(5.35058e-05 0 0 4.15218 -0.000107012 0 0 0 5.35058e-05)
(4.37526e-05 0 0 7.36195 -8.75053e-05 0 0 0 4.37526e-05)
(2.00667e-06 0 0 11.2526 -4.01333e-06 0 0 0 2.00667e-06)
(-7.61405e-05 0 0 15.4517 0.000152281 0 0 0 -7.61405e-05)
(-0.00019137 0 0 19.6464 0.00038274 0 0 0 -0.00019137)
(-0.000344466 0 0 23.6246 0.000688932 0 0 0 -0.000344466)
(-0.000537971 0 0 27.2604 0.00107594 0 0 0 -0.000537971)
(-0.000775517 0 0 30.4853 0.00155103 0 0 0 -0.000775517)
(-0.00105889 0 0 33.2631 0.00211777 0 0 0 -0.00105889)
(-0.00138232 0 0 35.5765 0.00276464 0 0 0 -0.00138232)
(-0.00172425 0 0 37.4206 0.0034485 0 0 0 -0.00172425)
(-0.00204029 0 0 38.8037 0.00408059 0 0 0 -0.00204029)
(-0.00226673 0 0 39.7497 0.00453346 0 0 0 -0.00226673)
(-0.00234201 0 0 40.2993 0.00468401 0 0 0 -0.00234201)
(-0.00223889 0 0 40.5083 0.00447779 0 0 0 -0.00223889)
(-0.00198259 0 0 40.4418 0.00396517 0 0 0 -0.00198259)
(-0.00163737 0 0 40.1662 0.00327474 0 0 0 -0.00163737)
(-0.00127365 0 0 39.741 0.00254729 0 0 0 -0.00127365)
(-0.000941772 0 0 39.2135 0.00188354 0 0 0 -0.000941772)
(-0.000665847 0 0 38.6183 0.00133169 0 0 0 -0.000665847)
(-0.00045156 0 0 37.9797 0.000903121 0 0 0 -0.00045156)
(-0.000296588 0 0 37.3136 0.000593177 0 0 0 -0.000296588)
(-0.000197832 0 0 36.6306 0.000395664 0 0 0 -0.000197832)
(-0.000153491 0 0 35.9374 0.000306982 0 0 0 -0.000153491)
(-0.000159947 0 0 35.2383 0.000319894 0 0 0 -0.000159947)
(-0.000204068 0 0 34.5359 0.000408136 0 0 0 -0.000204068)
(-0.000257616 0 0 33.8319 0.000515231 0 0 0 -0.000257616)
(-0.000285623 0 0 33.1272 0.000571246 0 0 0 -0.000285623)
(-0.0002643 0 0 32.4226 0.0005286 0 0 0 -0.0002643)
(-0.000188586 0 0 31.7183 0.000377171 0 0 0 -0.000188586)
(-0.000127841 0 0 31.0146 0.000255682 0 0 0 -0.000127841)
(-6.5715e-05 0 0 30.3113 0.00013143 0 0 0 -6.5715e-05)
(2.08598e-05 0 0 29.6091 -4.17196e-05 0 0 0 2.08598e-05)
(-0.000127055 0 0 28.9067 0.00025411 0 0 0 -0.000127055)
(-0.000122824 0 0 28.206 0.000245647 0 0 0 -0.000122824)
(0.000170192 0 0 27.5052 -0.000340384 0 0 0 0.000170192)
(9.86859e-05 0 0 26.8053 -0.000197372 0 0 0 9.86859e-05)
(-3.24563e-05 0 0 26.1059 6.49126e-05 0 0 0 -3.24563e-05)
(5.72543e-06 0 0 25.4071 -1.14509e-05 0 0 0 5.72543e-06)
(-9.51798e-07 0 0 24.7088 1.9036e-06 0 0 0 -9.51798e-07)
(2.2911e-07 0 0 24.011 -4.5822e-07 0 0 0 2.2911e-07)
(-3.2105e-08 0 0 23.3137 6.42099e-08 0 0 0 -3.2105e-08)
(-9.73836e-09 0 0 22.6168 1.94767e-08 0 0 0 -9.73836e-09)
(-5.37926e-09 0 0 21.9204 1.07585e-08 0 0 0 -5.37926e-09)
(-4.63275e-09 0 0 21.2243 9.26549e-09 0 0 0 -4.63275e-09)
(-1.7402e-09 0 0 20.5286 3.48041e-09 0 0 0 -1.7402e-09)
(2.92682e-09 0 0 19.8332 -5.85365e-09 0 0 0 2.92682e-09)
(6.89052e-09 0 0 19.1382 -1.3781e-08 0 0 0 6.89052e-09)
(7.76415e-09 0 0 18.4434 -1.55283e-08 0 0 0 7.76415e-09)
(5.59317e-09 0 0 17.7489 -1.11863e-08 0 0 0 5.59317e-09)
(2.08522e-09 0 0 17.0546 -4.17043e-09 0 0 0 2.08522e-09)
(-1.26398e-10 0 0 16.3605 2.52797e-10 0 0 0 -1.26398e-10)
(7.87057e-10 0 0 15.6666 -1.57411e-09 0 0 0 7.87057e-10)
(3.90145e-09 0 0 14.9728 -7.80291e-09 0 0 0 3.90145e-09)
(5.85227e-09 0 0 14.2791 -1.17045e-08 0 0 0 5.85227e-09)
(5.4214e-09 0 0 13.5855 -1.08428e-08 0 0 0 5.4214e-09)
(1.22377e-09 0 0 12.8919 -2.44753e-09 0 0 0 1.22377e-09)
(-1.79056e-09 0 0 12.1983 3.58112e-09 0 0 0 -1.79056e-09)
(-2.74111e-09 0 0 11.5047 5.48222e-09 0 0 0 -2.74111e-09)
(-1.2168e-09 0 0 10.811 2.43359e-09 0 0 0 -1.2168e-09)
(2.93832e-09 0 0 10.1172 -5.87664e-09 0 0 0 2.93832e-09)
(-1.27872e-09 0 0 9.42328 2.55744e-09 0 0 0 -1.27872e-09)
(-2.79062e-09 0 0 8.72914 5.58125e-09 0 0 0 -2.79062e-09)
(-3.40309e-09 0 0 8.03474 6.80618e-09 0 0 0 -3.40309e-09)
(-5.84117e-09 0 0 7.34003 1.16823e-08 0 0 0 -5.84117e-09)
(2.50929e-09 0 0 6.64496 -5.01857e-09 0 0 0 2.50929e-09)
(3.72319e-09 0 0 5.94946 -7.44638e-09 0 0 0 3.72319e-09)
(-4.64416e-09 0 0 5.25346 9.28832e-09 0 0 0 -4.64416e-09)
(-2.82507e-09 0 0 4.55685 5.65015e-09 0 0 0 -2.82507e-09)
(2.7157e-09 0 0 3.85969 -5.43139e-09 0 0 0 2.7157e-09)
(1.59968e-09 0 0 3.16106 -3.19937e-09 0 0 0 1.59968e-09)
(7.56928e-10 0 0 2.46509 -1.51386e-09 0 0 0 7.56928e-10)
(1.85643e-09 0 0 1.75046 -3.71287e-09 0 0 0 1.85643e-09)
(2.7777e-10 0 0 1.11837 -5.55539e-10 0 0 0 2.7777e-10)
(-2.93334e-10 0 0 0.218778 5.86669e-10 0 0 0 -2.93334e-10)
)
;

boundaryField
{
    inlet
    {
        type            cyclic;
    }
    outlet
    {
        type            cyclic;
    }
    top
    {
        type            extrapolatedCalculated;
        value           uniform (0 0 0 0 0 0 0 0 0);
    }
    bottom
    {
        type            extrapolatedCalculated;
        value           uniform (-6.59362e-12 0 0 0.00688011 1.31872e-11 0 0 0 -6.59362e-12);
    }
    frontAndBackPlanes
    {
        type            empty;
    }
}


// ************************************************************************* //
