/*--------------------------------*- C++ -*----------------------------------*\
| =========                 |                                                 |
| \\      /  F ield         | OpenFOAM: The Open Source CFD Toolbox           |
|  \\    /   O peration     | Version:  2206                                  |
|   \\  /    A nd           | Website:  www.openfoam.com                      |
|    \\/     M anipulation  |                                                 |
\*---------------------------------------------------------------------------*/
FoamFile
{
    version     2.0;
    format      ascii;
    arch        "LSB;label=32;scalar=64";
    class       volScalarField;
    location    "11";
    object      Theta;
}
// * * * * * * * * * * * * * * * * * * * * * * * * * * * * * * * * * * * * * //

dimensions      [0 2 -2 0 0 0 0];

internalField   nonuniform List<scalar> 
120
(
2.66674e-11
1.42887e-10
5.1511e-10
1.40517e-09
3.2093e-09
6.4979e-09
1.20742e-08
2.10537e-08
3.49734e-08
5.59386e-08
8.68217e-08
1.31528e-07
1.95355e-07
2.85469e-07
4.11552e-07
5.86662e-07
8.28382e-07
1.16037e-06
1.61442e-06
2.23325e-06
3.07421e-06
4.21431e-06
5.75693e-06
7.84062e-06
1.06506e-05
1.44348e-05
1.95258e-05
2.63737e-05
3.56076e-05
4.81539e-05
6.51714e-05
8.81955e-05
0.000119272
0.000160389
0.000213612
0.000283219
0.000378315
0.000515575
0.000721826
0.00103483
0.0015024
0.00218087
0.00312617
0.00437432
0.00591561
0.00767317
0.00950179
0.0112175
0.0126472
0.0136725
0.0142492
0.0144002
0.0141949
0.0137245
0.0130827
0.0123525
0.0115998
0.0108705
0.0101918
0.0095745
0.00901821
0.00851636
0.00806064
0.00764407
0.00726315
0.00691955
0.00662265
0.00639354
0.00627156
0.00632672
0.00667164
0.00748712
0.00903436
0.0116738
0.0159167
0.0224761
0.0321972
0.046057
0.0599333
0.0711109
0.00247427
1.34067e-15
1.0593e-15
1.05885e-15
1.05702e-15
1.05643e-15
1.05602e-15
1.05474e-15
1.05418e-15
1.05387e-15
1.05275e-15
1.05277e-15
1.05165e-15
1.05144e-15
1.05093e-15
1.05044e-15
1.05018e-15
1.0497e-15
1.04949e-15
1.04908e-15
1.04891e-15
1.04857e-15
1.04843e-15
1.04814e-15
1.04803e-15
1.0478e-15
1.04771e-15
1.04752e-15
1.04745e-15
1.04731e-15
1.04726e-15
1.04715e-15
1.04711e-15
1.04704e-15
1.04703e-15
1.04696e-15
1.04697e-15
1.04692e-15
1.04693e-15
1.0469e-15
)
;

boundaryField
{
    inlet
    {
        type            cyclic;
    }
    outlet
    {
        type            cyclic;
    }
    top
    {
        type            zeroGradient;
    }
    bottom
    {
        type            zeroGradient;
    }
    frontAndBackPlanes
    {
        type            empty;
    }
}


// ************************************************************************* //
