/*--------------------------------*- C++ -*----------------------------------*\
| =========                 |                                                 |
| \\      /  F ield         | OpenFOAM: The Open Source CFD Toolbox           |
|  \\    /   O peration     | Version:  2206                                  |
|   \\  /    A nd           | Website:  www.openfoam.com                      |
|    \\/     M anipulation  |                                                 |
\*---------------------------------------------------------------------------*/
FoamFile
{
    version     2.0;
    format      ascii;
    arch        "LSB;label=32;scalar=64";
    class       volVectorField;
    location    "11";
    object      U.a;
}
// * * * * * * * * * * * * * * * * * * * * * * * * * * * * * * * * * * * * * //

dimensions      [0 1 -1 0 0 0 0];

internalField   nonuniform List<vector> 
120
(
(3.64193e-07 7.78308e-09 0)
(1.08387e-06 8.83886e-09 0)
(1.79479e-06 9.63926e-09 0)
(2.49697e-06 1.72118e-08 0)
(3.19039e-06 2.07874e-08 0)
(3.87508e-06 2.69475e-08 0)
(4.55102e-06 3.25639e-08 0)
(5.21822e-06 3.87216e-08 0)
(5.87668e-06 4.52533e-08 0)
(6.52641e-06 5.22432e-08 0)
(7.16741e-06 5.97339e-08 0)
(7.79968e-06 6.77897e-08 0)
(8.42322e-06 7.64825e-08 0)
(9.03803e-06 8.58936e-08 0)
(9.64412e-06 9.61219e-08 0)
(1.02415e-05 1.07312e-07 0)
(1.08302e-05 1.19689e-07 0)
(1.14101e-05 1.33573e-07 0)
(1.19813e-05 1.49364e-07 0)
(1.25438e-05 1.67478e-07 0)
(1.30976e-05 1.88208e-07 0)
(1.36428e-05 2.11567e-07 0)
(1.41792e-05 2.37481e-07 0)
(1.47069e-05 2.67007e-07 0)
(1.52259e-05 3.03961e-07 0)
(1.57362e-05 3.54575e-07 0)
(1.62378e-05 4.2498e-07 0)
(1.68046e-05 5.3114e-07 0)
(1.78021e-05 7.33059e-07 0)
(2.15077e-05 1.12511e-06 0)
(5.55695e-05 1.15545e-06 0)
(0.000401022 -1.89484e-06 0)
(0.00190981 1.54315e-07 0)
(0.0051242 9.30454e-06 0)
(0.00980592 2.37528e-05 0)
(0.0157185 4.11854e-05 0)
(0.0229419 7.41218e-06 0)
(0.0317563 -2.62571e-05 0)
(0.0426891 -1.3398e-06 0)
(0.0566047 2.9943e-05 0)
(0.0746223 4.73815e-05 0)
(0.0981123 6.36711e-05 0)
(0.128715 8.51183e-05 0)
(0.168191 0.000110865 0)
(0.217991 0.000139399 0)
(0.278653 0.000169451 0)
(0.349389 0.000199629 0)
(0.428192 0.000228443 0)
(0.512347 0.000254584 0)
(0.599043 0.000277154 0)
(0.685806 0.000295747 0)
(0.770689 0.000310417 0)
(0.852294 0.000321563 0)
(0.929688 0.000329791 0)
(1.00231 0.000335787 0)
(1.06987 0.000340208 0)
(1.13234 0.000343626 0)
(1.18988 0.000346528 0)
(1.24287 0.000349427 0)
(1.29187 0.000353036 0)
(1.33754 0.000358464 0)
(1.38052 0.000367443 0)
(1.42135 0.000382711 0)
(1.4604 0.000408749 0)
(1.49794 0.000453098 0)
(1.53409 0.000528358 0)
(1.56894 0.000654696 0)
(1.60251 0.000861958 0)
(1.63478 0.0011878 0)
(1.66574 0.00166583 0)
(1.69538 0.0022925 0)
(1.72382 0.00297728 0)
(1.7515 0.00350834 0)
(1.7793 0.00358678 0)
(1.80873 0.00304734 0)
(1.84179 0.00151084 0)
(1.87982 0.00332263 0)
(1.93188 -0.00713039 0)
(1.97949 0.0133391 0)
(2.07512 -0.0269356 0)
(2.27903 -0.416253 0)
(2.31651 -0.530741 0)
(2.32417 -0.529727 0)
(2.32761 -0.531587 0)
(2.33324 -0.530794 0)
(2.33625 -0.532278 0)
(2.34119 -0.531756 0)
(2.34411 -0.533195 0)
(2.34854 -0.532319 0)
(2.35104 -0.533838 0)
(2.35478 -0.533292 0)
(2.35774 -0.533946 0)
(2.36017 -0.534279 0)
(2.36347 -0.534157 0)
(2.36528 -0.534908 0)
(2.36828 -0.534534 0)
(2.36989 -0.535318 0)
(2.37249 -0.534923 0)
(2.37391 -0.535634 0)
(2.37615 -0.535266 0)
(2.37739 -0.535891 0)
(2.37929 -0.535558 0)
(2.38035 -0.536101 0)
(2.38195 -0.535802 0)
(2.38285 -0.53627 0)
(2.38416 -0.536003 0)
(2.38491 -0.536403 0)
(2.38595 -0.536167 0)
(2.38656 -0.536504 0)
(2.38735 -0.536297 0)
(2.38784 -0.536577 0)
(2.38841 -0.536398 0)
(2.38878 -0.536625 0)
(2.38913 -0.536477 0)
(2.38939 -0.536634 0)
(2.3896 -0.536546 0)
(2.38975 -0.536628 0)
(2.38984 -0.536592 0)
(2.38989 -0.536616 0)
(2.38991 -0.536612 0)
)
;

boundaryField
{
    inlet
    {
        type            cyclic;
    }
    outlet
    {
        type            cyclic;
    }
    top
    {
        type            zeroGradient;
    }
    bottom
    {
        type            fixedValue;
        value           uniform (0 0 0);
    }
    frontAndBackPlanes
    {
        type            empty;
    }
}


// ************************************************************************* //
