/*--------------------------------*- C++ -*----------------------------------*\
| =========                 |                                                 |
| \\      /  F ield         | OpenFOAM: The Open Source CFD Toolbox           |
|  \\    /   O peration     | Version:  2206                                  |
|   \\  /    A nd           | Website:  www.openfoam.com                      |
|    \\/     M anipulation  |                                                 |
\*---------------------------------------------------------------------------*/
FoamFile
{
    version     2.0;
    format      ascii;
    arch        "LSB;label=32;scalar=64";
    class       volVectorField;
    location    "11";
    object      U.b;
}
// * * * * * * * * * * * * * * * * * * * * * * * * * * * * * * * * * * * * * //

dimensions      [0 1 -1 0 0 0 0];

internalField   nonuniform List<vector> 
120
(
(0.013537 3.892e-11 0)
(0.0137532 -1.06048e-08 0)
(0.0137607 -1.85317e-08 0)
(0.0137709 -2.45727e-08 0)
(0.0137792 -3.45491e-08 0)
(0.0137886 -4.15472e-08 0)
(0.0137979 -5.17255e-08 0)
(0.0138075 -6.10463e-08 0)
(0.0138173 -7.14521e-08 0)
(0.0138274 -8.24125e-08 0)
(0.0138377 -9.41816e-08 0)
(0.0138483 -1.06827e-07 0)
(0.0138592 -1.20484e-07 0)
(0.0138705 -1.3528e-07 0)
(0.013882 -1.51367e-07 0)
(0.0138939 -1.68962e-07 0)
(0.0139062 -1.88408e-07 0)
(0.013919 -2.10215e-07 0)
(0.0139321 -2.3501e-07 0)
(0.0139459 -2.63425e-07 0)
(0.0139602 -2.95844e-07 0)
(0.0139755 -3.32267e-07 0)
(0.0139917 -3.72822e-07 0)
(0.0140087 -4.19509e-07 0)
(0.0140261 -4.78383e-07 0)
(0.0140438 -5.57028e-07 0)
(0.0140626 -6.70934e-07 0)
(0.0140845 -8.32965e-07 0)
(0.0141184 -1.17853e-06 0)
(0.0141831 -1.82438e-06 0)
(0.0142739 -2.50461e-06 0)
(0.0146849 -2.53231e-06 0)
(0.0162756 -3.76978e-06 0)
(0.0196075 -3.13896e-06 0)
(0.0244711 -5.7873e-06 0)
(0.0307013 -5.67306e-06 0)
(0.0385118 -1.16673e-05 0)
(0.0483563 -2.0314e-05 0)
(0.0609429 -2.81788e-05 0)
(0.0773302 -3.92088e-05 0)
(0.0991377 -5.10208e-05 0)
(0.129528 -6.54091e-05 0)
(0.175061 -7.78686e-05 0)
(0.242536 -8.74577e-05 0)
(0.332092 -9.48273e-05 0)
(0.437766 -0.000100207 0)
(0.551767 -0.00010332 0)
(0.667499 -0.000104303 0)
(0.780531 -0.000103442 0)
(0.888343 -0.000101038 0)
(0.989732 -9.73287e-05 0)
(1.08427 -9.24677e-05 0)
(1.17196 -8.65401e-05 0)
(1.25298 -7.95922e-05 0)
(1.32761 -7.1675e-05 0)
(1.39615 -6.29038e-05 0)
(1.45892 -5.35249e-05 0)
(1.51625 -4.39595e-05 0)
(1.56855 -3.47696e-05 0)
(1.61624 -2.65261e-05 0)
(1.65981 -1.96376e-05 0)
(1.69971 -1.42503e-05 0)
(1.7364 -1.02709e-05 0)
(1.77027 -7.46694e-06 0)
(1.80165 -5.56939e-06 0)
(1.83085 -4.33295e-06 0)
(1.85812 -3.55542e-06 0)
(1.88365 -3.07406e-06 0)
(1.90763 -2.75326e-06 0)
(1.9302 -2.47757e-06 0)
(1.9515 -2.15577e-06 0)
(1.97165 -1.74288e-06 0)
(1.99073 -1.25977e-06 0)
(2.00883 -7.81072e-07 0)
(2.02603 -3.9635e-07 0)
(2.0424 -1.82285e-07 0)
(2.05799 -1.13695e-09 0)
(2.07286 1.58395e-08 0)
(2.08706 -6.25644e-08 0)
(2.10062 3.81838e-07 0)
(2.11359 2.84006e-07 0)
(2.126 -8.92163e-08 0)
(2.13788 1.57379e-08 0)
(2.14926 -2.45178e-09 0)
(2.16017 6.67998e-10 0)
(2.17063 1.7789e-11 0)
(2.18066 8.13168e-11 0)
(2.19029 9.90178e-11 0)
(2.19953 1.05689e-10 0)
(2.2084 1.1235e-10 0)
(2.21691 1.17072e-10 0)
(2.22509 1.16594e-10 0)
(2.23293 1.0998e-10 0)
(2.24047 9.99832e-11 0)
(2.24769 9.13388e-11 0)
(2.25463 8.65926e-11 0)
(2.26128 8.63547e-11 0)
(2.26766 8.68947e-11 0)
(2.27377 8.44722e-11 0)
(2.27963 7.75407e-11 0)
(2.28523 7.03867e-11 0)
(2.29059 6.44212e-11 0)
(2.2957 6.74041e-11 0)
(2.30058 6.88242e-11 0)
(2.30524 7.42183e-11 0)
(2.30966 7.18888e-11 0)
(2.31386 6.6703e-11 0)
(2.31784 7.52191e-11 0)
(2.3216 7.41261e-11 0)
(2.32514 8.44967e-11 0)
(2.32846 9.05133e-11 0)
(2.33157 7.72176e-11 0)
(2.33445 7.92805e-11 0)
(2.3371 9.18947e-11 0)
(2.33952 8.8719e-11 0)
(2.3417 8.2186e-11 0)
(2.34362 8.24943e-11 0)
(2.34527 7.88998e-11 0)
(2.34659 7.30692e-11 0)
(2.3476 7.71609e-11 0)
)
;

boundaryField
{
    inlet
    {
        type            cyclic;
    }
    outlet
    {
        type            cyclic;
    }
    top
    {
        type            zeroGradient;
    }
    bottom
    {
        type            fixedValue;
        value           uniform (0 0 0);
    }
    frontAndBackPlanes
    {
        type            empty;
    }
}


// ************************************************************************* //
