/*--------------------------------*- C++ -*----------------------------------*\
| =========                 |                                                 |
| \\      /  F ield         | OpenFOAM: The Open Source CFD Toolbox           |
|  \\    /   O peration     | Version:  v2006                                 |
|   \\  /    A nd           | Website:  www.openfoam.com                      |
|    \\/     M anipulation  |                                                 |
\*---------------------------------------------------------------------------*/
FoamFile
{
    version     2.0;
    format      ascii;
    class       volScalarField;
    location    "1380";
    object      p;
}
// * * * * * * * * * * * * * * * * * * * * * * * * * * * * * * * * * * * * * //

dimensions      [1 -1 -2 0 0 0 0];


internalField   nonuniform List<scalar> 
120
(
-0.121002
-4.7811
-9.44154
-14.1023
-18.7635
-23.425
-28.0869
-32.7492
-37.4118
-42.0748
-46.7382
-51.402
-56.0661
-60.7307
-65.3957
-70.061
-74.7268
-79.393
-84.0596
-88.7267
-93.3942
-98.0621
-102.73
-107.399
-112.069
-116.738
-121.408
-126.079
-130.75
-135.422
-140.094
-144.767
-149.44
-154.113
-158.788
-163.462
-168.138
-172.813
-177.49
-182.167
-186.844
-191.522
-196.201
-200.88
-205.56
-210.24
-214.921
-219.603
-224.285
-228.968
-233.652
-238.336
-243.021
-247.707
-252.393
-257.08
-261.768
-266.456
-271.145
-275.835
-280.526
-285.217
-289.909
-294.602
-299.296
-303.991
-308.686
-313.383
-318.08
-322.779
-327.478
-332.179
-336.881
-341.584
-346.288
-350.994
-355.701
-360.409
-365.119
-369.83
-374.542
-379.256
-383.972
-388.688
-393.407
-398.126
-402.847
-407.569
-412.293
-417.015
-421.705
-426.366
-431.027
-435.687
-440.346
-445.006
-449.666
-454.326
-458.985
-463.645
-468.305
-472.965
-477.624
-482.284
-486.944
-491.604
-496.263
-500.923
-505.583
-510.243
-514.902
-519.562
-524.222
-528.882
-533.541
-538.201
-542.861
-547.521
-552.18
-556.84
)
;

boundaryField
{
    inlet
    {
        type            cyclic;
    }
    outlet
    {
        type            cyclic;
    }
    top
    {
        type            calculated;
        value           uniform -559.17;
    }
    bottom
    {
        type            calculated;
        value           uniform 2.20887;
    }
    frontAndBackPlanes
    {
        type            empty;
    }
}


// ************************************************************************* //
