/*--------------------------------*- C++ -*----------------------------------*\
| =========                 |                                                 |
| \\      /  F ield         | OpenFOAM: The Open Source CFD Toolbox           |
|  \\    /   O peration     | Version:  v2006                                 |
|   \\  /    A nd           | Website:  www.openfoam.com                      |
|    \\/     M anipulation  |                                                 |
\*---------------------------------------------------------------------------*/
FoamFile
{
    version     2.0;
    format      ascii;
    class       volScalarField;
    location    "1380";
    object      pff;
}
// * * * * * * * * * * * * * * * * * * * * * * * * * * * * * * * * * * * * * //

dimensions      [1 -1 -2 0 0 0 0];


internalField   nonuniform List<scalar> 
120
(
24.2961
24.0022
23.7086
23.4155
23.1226
22.8302
22.5382
22.2465
21.9552
21.6643
21.3738
21.0838
20.7941
20.5048
20.216
19.9276
19.6396
19.352
19.0649
18.7782
18.492
18.2062
17.9209
17.6361
17.3517
17.0678
16.7844
16.5014
16.219
15.937
15.6556
15.3747
15.0943
14.8144
14.5351
14.2563
13.978
13.7003
13.4231
13.1465
12.8704
12.5949
12.32
12.0456
11.7718
11.4986
11.226
10.9539
10.6824
10.4115
10.1411
9.87134
9.60215
9.33356
9.06556
8.79818
8.53142
8.26531
7.99987
7.73513
7.47111
7.20787
6.94543
6.68385
6.42317
6.16345
5.90473
5.64706
5.39049
5.13505
4.88075
4.62762
4.37563
4.12476
3.87496
3.62617
3.37827
3.13116
2.88469
2.6387
2.393
2.14737
1.90152
1.6549
1.40648
1.15537
0.903875
0.654517
0.420075
0.159468
0
0
0
0
0
0
0
0
0
0
0
0
0
0
0
0
0
0
0
0
0
0
0
0
0
0
0
0
0
0
)
;

boundaryField
{
    inlet
    {
        type            cyclic;
    }
    outlet
    {
        type            cyclic;
    }
    top
    {
        type            calculated;
        value           uniform 0;
    }
    bottom
    {
        type            calculated;
        value           uniform 24.2961;
    }
    frontAndBackPlanes
    {
        type            empty;
    }
}


// ************************************************************************* //
