/*--------------------------------*- C++ -*----------------------------------*\
| =========                 |                                                 |
| \\      /  F ield         | OpenFOAM: The Open Source CFD Toolbox           |
|  \\    /   O peration     | Version:  v2006                                 |
|   \\  /    A nd           | Website:  www.openfoam.com                      |
|    \\/     M anipulation  |                                                 |
\*---------------------------------------------------------------------------*/
FoamFile
{
    version     2.0;
    format      ascii;
    class       surfaceScalarField;
    location    "1380";
    object      phia;
}
// * * * * * * * * * * * * * * * * * * * * * * * * * * * * * * * * * * * * * //

dimensions      [0 3 -1 0 0 0 0];
oriented        oriented;


internalField   nonuniform List<scalar> 
119
(
-8.69077e-16
-1.74896e-15
-2.63987e-15
-3.54202e-15
-4.45566e-15
-5.38101e-15
-6.31832e-15
-7.26784e-15
-8.22984e-15
-9.20459e-15
-1.01924e-14
-1.11934e-14
-1.22081e-14
-1.32367e-14
-1.42795e-14
-1.53369e-14
-1.64093e-14
-1.74969e-14
-1.86001e-14
-1.97194e-14
-2.08551e-14
-2.20078e-14
-2.31777e-14
-2.43655e-14
-2.55714e-14
-2.67962e-14
-2.80402e-14
-2.9304e-14
-3.05881e-14
-3.18931e-14
-3.32194e-14
-3.45677e-14
-3.59385e-14
-3.73322e-14
-3.87495e-14
-4.01907e-14
-4.16564e-14
-4.3147e-14
-4.46628e-14
-4.62042e-14
-4.77715e-14
-4.93649e-14
-5.09847e-14
-5.2631e-14
-5.43038e-14
-5.60034e-14
-5.77299e-14
-5.94833e-14
-6.12639e-14
-6.30721e-14
-6.49082e-14
-6.67731e-14
-6.86678e-14
-7.05937e-14
-7.25528e-14
-7.45477e-14
-7.65817e-14
-7.86589e-14
-8.07844e-14
-8.29642e-14
-8.52057e-14
-8.75169e-14
-8.99074e-14
-9.23874e-14
-9.4968e-14
-9.76609e-14
-1.00478e-13
-1.03431e-13
-1.06531e-13
-1.09788e-13
-1.1321e-13
-1.16802e-13
-1.20567e-13
-1.24504e-13
-1.28609e-13
-1.32876e-13
-1.37292e-13
-1.41848e-13
-1.46528e-13
-1.51323e-13
-1.56226e-13
-1.61241e-13
-1.66391e-13
-1.71743e-13
-1.77465e-13
-1.83835e-13
-1.90931e-13
-1.97505e-13
-2.01295e-13
-3.23064e-13
-2.23793e-12
-7.69764e-11
-5.39051e-11
-8.13339e-11
-8.22719e-11
-8.2274e-11
-8.22764e-11
-8.22766e-11
-8.22766e-11
-8.22766e-11
-8.22766e-11
-8.22766e-11
-8.22766e-11
-8.22766e-11
-8.22766e-11
-8.22766e-11
-8.22766e-11
-8.22766e-11
-8.22766e-11
-8.22766e-11
-8.22766e-11
-8.22766e-11
-8.22766e-11
-8.22766e-11
-8.22766e-11
-8.22766e-11
-8.22766e-11
-8.22565e-11
-8.21697e-11
)
;

boundaryField
{
    inlet
    {
        type            cyclic;
        value           nonuniform List<scalar> 
120
(
-8.14555e-28
-2.44523e-27
-4.07954e-27
-5.68953e-27
-7.30802e-27
-8.93743e-27
-1.05802e-26
-1.2178e-26
-1.37941e-26
-1.54917e-26
-1.72124e-26
-1.89588e-26
-2.07941e-26
-2.266e-26
-2.45591e-26
-2.64938e-26
-2.84668e-26
-3.04806e-26
-3.25378e-26
-3.4641e-26
-3.67929e-26
-3.8996e-26
-4.12532e-26
-4.35672e-26
-4.61836e-26
-4.88624e-26
-5.16066e-26
-5.42979e-26
-5.70606e-26
-5.9898e-26
-6.25706e-26
-6.50819e-26
-6.76781e-26
-7.03629e-26
-7.31397e-26
-7.6012e-26
-7.92281e-26
-8.27936e-26
-8.62274e-26
-9.00195e-26
-9.34472e-26
-9.72443e-26
-1.00931e-25
-1.04758e-25
-1.0873e-25
-1.13098e-25
-1.17142e-25
-1.21353e-25
-1.25498e-25
-1.30314e-25
-1.35323e-25
-1.40534e-25
-1.45955e-25
-1.51595e-25
-1.57463e-25
-1.63809e-25
-1.70397e-25
-1.77234e-25
-1.84331e-25
-1.91198e-25
-1.9832e-25
-2.05703e-25
-2.13344e-25
-2.21239e-25
-2.2938e-25
-2.37267e-25
-2.45861e-25
-2.54656e-25
-2.63628e-25
-2.72748e-25
-2.81985e-25
-2.90815e-25
-2.99683e-25
-3.08546e-25
-3.17353e-25
-3.26055e-25
-3.34596e-25
-3.4292e-25
-3.50969e-25
-3.58684e-25
-3.66003e-25
-3.72863e-25
-3.79201e-25
-3.84954e-25
-3.90059e-25
-3.94455e-25
-3.97055e-25
-3.98849e-25
-3.99806e-25
-4.00201e-25
-4.01166e-25
-1.12898e-24
-2.32167e-24
-3.50255e-24
-4.63074e-24
-5.67796e-24
-6.62119e-24
-7.44206e-24
-8.12822e-24
-8.6735e-24
-9.07612e-24
-9.33867e-24
-9.46666e-24
-9.46825e-24
-9.35326e-24
-9.13256e-24
-8.81765e-24
-8.41987e-24
-7.95034e-24
-7.41947e-24
-6.83681e-24
-6.21099e-24
-5.54959e-24
-4.85943e-24
-4.14603e-24
-3.4145e-24
-2.66907e-24
-1.91342e-24
-1.15079e-24
-3.84152e-25
)
;
    }
    outlet
    {
        type            cyclic;
        value           nonuniform List<scalar> 
120
(
8.14555e-28
2.44523e-27
4.07954e-27
5.68953e-27
7.30802e-27
8.93743e-27
1.05802e-26
1.2178e-26
1.37941e-26
1.54917e-26
1.72124e-26
1.89588e-26
2.07941e-26
2.266e-26
2.45591e-26
2.64938e-26
2.84668e-26
3.04806e-26
3.25378e-26
3.4641e-26
3.67929e-26
3.8996e-26
4.12532e-26
4.35672e-26
4.61836e-26
4.88624e-26
5.16066e-26
5.42979e-26
5.70606e-26
5.9898e-26
6.25706e-26
6.50819e-26
6.76781e-26
7.03629e-26
7.31397e-26
7.6012e-26
7.92281e-26
8.27936e-26
8.62274e-26
9.00195e-26
9.34472e-26
9.72443e-26
1.00931e-25
1.04758e-25
1.0873e-25
1.13098e-25
1.17142e-25
1.21353e-25
1.25498e-25
1.30314e-25
1.35323e-25
1.40534e-25
1.45955e-25
1.51595e-25
1.57463e-25
1.63809e-25
1.70397e-25
1.77234e-25
1.84331e-25
1.91198e-25
1.9832e-25
2.05703e-25
2.13344e-25
2.21239e-25
2.2938e-25
2.37267e-25
2.45861e-25
2.54656e-25
2.63628e-25
2.72748e-25
2.81985e-25
2.90815e-25
2.99683e-25
3.08546e-25
3.17353e-25
3.26055e-25
3.34596e-25
3.4292e-25
3.50969e-25
3.58684e-25
3.66003e-25
3.72863e-25
3.79201e-25
3.84954e-25
3.90059e-25
3.94455e-25
3.97055e-25
3.98849e-25
3.99806e-25
4.00201e-25
4.01166e-25
1.12898e-24
2.32167e-24
3.50255e-24
4.63074e-24
5.67796e-24
6.62119e-24
7.44206e-24
8.12822e-24
8.6735e-24
9.07612e-24
9.33867e-24
9.46666e-24
9.46825e-24
9.35326e-24
9.13256e-24
8.81765e-24
8.41987e-24
7.95034e-24
7.41947e-24
6.83681e-24
6.21099e-24
5.54959e-24
4.85943e-24
4.14603e-24
3.4145e-24
2.66907e-24
1.91342e-24
1.15079e-24
3.84152e-25
)
;
    }
    top
    {
        type            fixedValue;
        value           uniform 0;
    }
    bottom
    {
        type            fixedValue;
        value           uniform 0;
    }
    frontAndBackPlanes
    {
        type            empty;
        value           nonuniform List<scalar> 0();
    }
}


// ************************************************************************* //
