/*--------------------------------*- C++ -*----------------------------------*\
| =========                 |                                                 |
| \\      /  F ield         | OpenFOAM: The Open Source CFD Toolbox           |
|  \\    /   O peration     | Version:  v2006                                 |
|   \\  /    A nd           | Website:  www.openfoam.com                      |
|    \\/     M anipulation  |                                                 |
\*---------------------------------------------------------------------------*/
FoamFile
{
    version     2.0;
    format      ascii;
    class       surfaceScalarField;
    location    "1380";
    object      phib;
}
// * * * * * * * * * * * * * * * * * * * * * * * * * * * * * * * * * * * * * //

dimensions      [0 3 -1 0 0 0 0];
oriented        oriented;


internalField   nonuniform List<scalar> 
119
(
1.30223e-15
2.6201e-15
3.95392e-15
5.30401e-15
6.67068e-15
8.05427e-15
9.45513e-15
1.08736e-14
1.23101e-14
1.37649e-14
1.52385e-14
1.67313e-14
1.82436e-14
1.97759e-14
2.13287e-14
2.29024e-14
2.44975e-14
2.61145e-14
2.7754e-14
2.94164e-14
3.11024e-14
3.28126e-14
3.45475e-14
3.63078e-14
3.80942e-14
3.99073e-14
4.17479e-14
4.36167e-14
4.55144e-14
4.74418e-14
4.93995e-14
5.13884e-14
5.34092e-14
5.54626e-14
5.75491e-14
5.96696e-14
6.18246e-14
6.40146e-14
6.62401e-14
6.85015e-14
7.07992e-14
7.31334e-14
7.55043e-14
7.79119e-14
8.03564e-14
8.28378e-14
8.5356e-14
8.79113e-14
9.05037e-14
9.31335e-14
9.58013e-14
9.85079e-14
1.01255e-13
1.04044e-13
1.06877e-13
1.09759e-13
1.12694e-13
1.15688e-13
1.18747e-13
1.21881e-13
1.25099e-13
1.28413e-13
1.31837e-13
1.35384e-13
1.39071e-13
1.42913e-13
1.46928e-13
1.51131e-13
1.55537e-13
1.6016e-13
1.65008e-13
1.70089e-13
1.75404e-13
1.80951e-13
1.8672e-13
1.92697e-13
1.98863e-13
2.05198e-13
2.11676e-13
2.18275e-13
2.24977e-13
2.31777e-13
2.38692e-13
2.45796e-13
2.5329e-13
2.61517e-13
2.70491e-13
2.78313e-13
2.81105e-13
3.3151e-13
6.29566e-13
2.9972e-13
7.80023e-15
1.39334e-18
1.47913e-18
1.69182e-18
1.84314e-18
2.10155e-18
2.19917e-18
2.36177e-18
2.35035e-18
2.41132e-18
2.30152e-18
2.3245e-18
2.26491e-18
2.34178e-18
2.27665e-18
2.28384e-18
2.15426e-18
2.08734e-18
1.90215e-18
1.81345e-18
1.68445e-18
1.65543e-18
1.56152e-18
1.52216e-18
1.42223e-18
1.3703e-18
1.26307e-18
)
;

boundaryField
{
    inlet
    {
        type            cyclic;
        value           nonuniform List<scalar> 
120
(
-8.14555e-28
-2.44524e-27
-4.08268e-27
-5.68954e-27
-7.30802e-27
-8.9375e-27
-1.05974e-26
-1.2178e-26
-1.37713e-26
-1.54916e-26
-1.72122e-26
-1.89272e-26
-2.07939e-26
-2.266e-26
-2.45591e-26
-2.64938e-26
-2.84668e-26
-3.04806e-26
-3.25378e-26
-3.4641e-26
-3.67929e-26
-3.8996e-26
-4.1252e-26
-4.32854e-26
-4.61823e-26
-4.88631e-26
-5.17692e-26
-5.42986e-26
-5.70622e-26
-6.027e-26
-6.29581e-26
-6.50836e-26
-6.76781e-26
-7.03629e-26
-7.31376e-26
-7.55424e-26
-7.87435e-26
-8.32913e-26
-8.57144e-26
-9.10907e-26
-9.28982e-26
-9.78168e-26
-1.00934e-25
-1.04755e-25
-1.08103e-25
-1.144e-25
-1.1715e-25
-1.2204e-25
-1.24074e-25
-1.30308e-25
-1.35323e-25
-1.40534e-25
-1.45955e-25
-1.51591e-25
-1.56617e-25
-1.63805e-25
-1.70397e-25
-1.77243e-25
-1.86211e-25
-1.91206e-25
-1.9832e-25
-2.05703e-25
-2.13344e-25
-2.21249e-25
-2.31574e-25
-2.35011e-25
-2.45851e-25
-2.54656e-25
-2.63628e-25
-2.7276e-25
-2.84601e-25
-2.90827e-25
-2.99683e-25
-3.08546e-25
-3.17353e-25
-3.26055e-25
-3.34596e-25
-3.4292e-25
-3.50969e-25
-3.58684e-25
-3.66003e-25
-3.72863e-25
-3.79201e-25
-3.84954e-25
-3.90099e-25
-4.02834e-25
-3.97095e-25
-3.9885e-25
-3.99808e-25
-4.00249e-25
-4.09957e-25
-1.13082e-24
-2.32382e-24
-3.5035e-24
-4.63059e-24
-5.67782e-24
-6.62108e-24
-7.4419e-24
-8.12813e-24
-8.67338e-24
-9.07606e-24
-9.33859e-24
-9.46662e-24
-9.46822e-24
-9.35324e-24
-9.13258e-24
-8.81765e-24
-8.41989e-24
-7.95037e-24
-7.41951e-24
-6.83687e-24
-6.21105e-24
-5.5497e-24
-4.85946e-24
-4.1461e-24
-3.41458e-24
-2.66915e-24
-1.9135e-24
-1.15088e-24
-3.84195e-25
)
;
    }
    outlet
    {
        type            cyclic;
        value           nonuniform List<scalar> 
120
(
8.14555e-28
2.44524e-27
4.08268e-27
5.68954e-27
7.30802e-27
8.9375e-27
1.05974e-26
1.2178e-26
1.37713e-26
1.54916e-26
1.72122e-26
1.89272e-26
2.07939e-26
2.266e-26
2.45591e-26
2.64938e-26
2.84668e-26
3.04806e-26
3.25378e-26
3.4641e-26
3.67929e-26
3.8996e-26
4.1252e-26
4.32854e-26
4.61823e-26
4.88631e-26
5.17692e-26
5.42986e-26
5.70622e-26
6.027e-26
6.29581e-26
6.50836e-26
6.76781e-26
7.03629e-26
7.31376e-26
7.55424e-26
7.87435e-26
8.32913e-26
8.57144e-26
9.10907e-26
9.28982e-26
9.78168e-26
1.00934e-25
1.04755e-25
1.08103e-25
1.144e-25
1.1715e-25
1.2204e-25
1.24074e-25
1.30308e-25
1.35323e-25
1.40534e-25
1.45955e-25
1.51591e-25
1.56617e-25
1.63805e-25
1.70397e-25
1.77243e-25
1.86211e-25
1.91206e-25
1.9832e-25
2.05703e-25
2.13344e-25
2.21249e-25
2.31574e-25
2.35011e-25
2.45851e-25
2.54656e-25
2.63628e-25
2.7276e-25
2.84601e-25
2.90827e-25
2.99683e-25
3.08546e-25
3.17353e-25
3.26055e-25
3.34596e-25
3.4292e-25
3.50969e-25
3.58684e-25
3.66003e-25
3.72863e-25
3.79201e-25
3.84954e-25
3.90099e-25
4.02834e-25
3.97095e-25
3.9885e-25
3.99808e-25
4.00249e-25
4.09957e-25
1.13082e-24
2.32382e-24
3.5035e-24
4.63059e-24
5.67782e-24
6.62108e-24
7.4419e-24
8.12813e-24
8.67338e-24
9.07606e-24
9.33859e-24
9.46662e-24
9.46822e-24
9.35324e-24
9.13258e-24
8.81765e-24
8.41989e-24
7.95037e-24
7.41951e-24
6.83687e-24
6.21105e-24
5.5497e-24
4.85946e-24
4.1461e-24
3.41458e-24
2.66915e-24
1.9135e-24
1.15088e-24
3.84195e-25
)
;
    }
    top
    {
        type            fixedValue;
        value           uniform 0;
    }
    bottom
    {
        type            fixedValue;
        value           uniform 0;
    }
    frontAndBackPlanes
    {
        type            empty;
        value           nonuniform List<scalar> 0();
    }
}


// ************************************************************************* //
