/*--------------------------------*- C++ -*----------------------------------*\
| =========                 |                                                 |
| \\      /  F ield         | OpenFOAM: The Open Source CFD Toolbox           |
|  \\    /   O peration     | Version:  v2006                                 |
|   \\  /    A nd           | Website:  www.openfoam.com                      |
|    \\/     M anipulation  |                                                 |
\*---------------------------------------------------------------------------*/
FoamFile
{
    version     2.0;
    format      ascii;
    class       volTensorField;
    location    "1380";
    object      Taua;
}
// * * * * * * * * * * * * * * * * * * * * * * * * * * * * * * * * * * * * * //

dimensions      [1 -1 -2 0 0 0 0];


internalField   nonuniform List<tensor> 
120
(
(0.00169158 0 0 1.14093e-14 -0.00338316 0 0 0 0.00169158)
(0.0017092 0 0 1.14275e-14 -0.0034184 0 0 0 0.0017092)
(0.00173216 0 0 1.13551e-14 -0.00346432 0 0 0 0.00173216)
(0.00175432 0 0 1.12997e-14 -0.00350864 0 0 0 0.00175432)
(0.00177653 0 0 1.13676e-14 -0.00355306 0 0 0 0.00177653)
(0.00179928 0 0 1.14527e-14 -0.00359857 0 0 0 0.00179928)
(0.00182255 0 0 1.13421e-14 -0.0036451 0 0 0 0.00182255)
(0.0018463 0 0 1.12487e-14 -0.0036926 0 0 0 0.0018463)
(0.00187056 0 0 1.15977e-14 -0.00374111 0 0 0 0.00187056)
(0.00189534 0 0 1.1964e-14 -0.00379067 0 0 0 0.00189534)
(0.00192066 0 0 1.21349e-14 -0.00384131 0 0 0 0.00192066)
(0.00194654 0 0 1.25358e-14 -0.00389307 0 0 0 0.00194654)
(0.00197299 0 0 1.29542e-14 -0.00394599 0 0 0 0.00197299)
(0.00200005 0 0 1.31775e-14 -0.0040001 0 0 0 0.00200005)
(0.00202773 0 0 1.34185e-14 -0.00405546 0 0 0 0.00202773)
(0.00205606 0 0 1.36772e-14 -0.00411212 0 0 0 0.00205606)
(0.00208506 0 0 1.39538e-14 -0.00417012 0 0 0 0.00208506)
(0.00211477 0 0 1.42485e-14 -0.00422953 0 0 0 0.00211477)
(0.0021452 0 0 1.45614e-14 -0.00429041 0 0 0 0.0021452)
(0.0021764 0 0 1.48926e-14 -0.0043528 0 0 0 0.0021764)
(0.0022084 0 0 1.52425e-14 -0.00441679 0 0 0 0.0022084)
(0.00224122 0 0 1.56112e-14 -0.00448244 0 0 0 0.00224122)
(0.0022749 0 0 1.59991e-14 -0.00454981 0 0 0 0.0022749)
(0.00230948 0 0 1.72563e-14 -0.00461897 0 0 0 0.00230948)
(0.00234499 0 0 1.85333e-14 -0.00468998 0 0 0 0.00234499)
(0.00238146 0 0 1.89808e-14 -0.00476292 0 0 0 0.00238146)
(0.00241891 0 0 1.90241e-14 -0.00483782 0 0 0 0.00241891)
(0.00245738 0 0 1.90889e-14 -0.00491475 0 0 0 0.00245738)
(0.00249687 0 0 1.96004e-14 -0.00499375 0 0 0 0.00249687)
(0.00253742 0 0 1.9285e-14 -0.00507484 0 0 0 0.00253742)
(0.00257901 0 0 1.81436e-14 -0.00515803 0 0 0 0.00257901)
(0.00262166 0 0 1.78762e-14 -0.00524332 0 0 0 0.00262166)
(0.00266535 0 0 1.84837e-14 -0.0053307 0 0 0 0.00266535)
(0.00271006 0 0 1.91157e-14 -0.00542012 0 0 0 0.00271006)
(0.00275576 0 0 1.9772e-14 -0.00551152 0 0 0 0.00275576)
(0.00280241 3.68135e-17 0 2.13093e-14 -0.00560481 0 0 0 0.00280241)
(0.00284994 0 0 2.37354e-14 -0.00569988 0 0 0 0.00284994)
(0.0028983 0 0 2.44977e-14 -0.0057966 0 0 0 0.0028983)
(0.00294741 0 0 2.52908e-14 -0.00589481 0 0 0 0.00294741)
(0.00299718 0 0 2.52694e-14 -0.00599435 0 0 0 0.00299718)
(0.00304752 0 0 2.52867e-14 -0.00609503 0 0 0 0.00304752)
(0.00309833 0 0 2.61948e-14 -0.00619667 0 0 0 0.00309833)
(0.00314954 0 0 2.62973e-14 -0.00629909 0 0 0 0.00314954)
(0.00320106 0 0 2.72955e-14 -0.00640212 0 0 0 0.00320106)
(0.00325282 0 0 2.91921e-14 -0.00650564 0 0 0 0.00325282)
(0.0033048 0 0 2.94401e-14 -0.00660959 0 0 0 0.0033048)
(0.00335699 0 0 2.88915e-14 -0.00671398 0 0 0 0.00335699)
(0.00340946 0 0 2.9248e-14 -0.00681891 0 0 0 0.00340946)
(0.00346233 0 0 3.13626e-14 -0.00692467 0 0 0 0.00346233)
(0.00351584 0 0 3.43861e-14 -0.00703168 0 0 0 0.00351584)
(0.00357031 0 0 3.57689e-14 -0.00714062 0 0 0 0.00357031)
(0.0036262 0 0 3.7212e-14 -0.0072524 0 0 0 0.0036262)
(0.00368413 0 0 3.87151e-14 -0.00736826 0 0 0 0.00368413)
(0.00374489 0 0 4.02771e-14 -0.00748978 0 0 0 0.00374489)
(0.00380946 0 0 4.27473e-14 -0.00761893 0 0 0 0.00380946)
(0.00387905 0 0 4.52704e-14 -0.00775809 0 0 0 0.00387905)
(0.00395504 0 0 4.69896e-14 -0.00791009 0 0 0 0.00395504)
(0.00403908 0 0 4.8768e-14 -0.00807816 0 0 0 0.00403908)
(0.00413298 -7.36271e-17 0 4.88734e-14 -0.00826595 0 0 0 0.00413298)
(0.00423872 0 0 4.89637e-14 -0.00847743 0 0 0 0.00423872)
(0.0043584 0 0 5.07681e-14 -0.0087168 0 0 0 0.0043584)
(0.00449416 0 0 5.25844e-14 -0.00898833 0 0 0 0.00449416)
(0.00464809 0 0 5.43764e-14 -0.00929619 0 0 0 0.00464809)
(0.00482209 0 0 5.61234e-14 -0.00964418 0 0 0 0.00482209)
(0.00501773 0 0 5.6098e-14 -0.0100355 0 0 0 0.00501773)
(0.00523609 0 0 5.76862e-14 -0.0104722 0 0 0 0.00523609)
(0.00547764 0 0 6.0861e-14 -0.0109553 0 0 0 0.00547764)
(0.00574197 0 0 6.21817e-14 -0.0114839 0 0 0 0.00574197)
(0.00602775 0 0 6.33223e-14 -0.0120555 0 0 0 0.00602775)
(0.00633254 0 0 6.42512e-14 -0.0126651 0 0 0 0.00633254)
(0.0066528 0 0 6.3234e-14 -0.0133056 0 0 0 0.0066528)
(0.00698386 0 0 6.19443e-14 -0.0139677 0 0 0 0.00698386)
(0.00732008 0 0 6.20578e-14 -0.0146402 0 0 0 0.00732008)
(0.0076551 0 0 6.18448e-14 -0.0153102 0 0 0 0.0076551)
(0.00798225 0 0 6.12816e-14 -0.0159645 0 0 0 0.00798225)
(0.00829504 0 0 6.03483e-14 -0.0165901 0 0 0 0.00829504)
(0.00858788 0 0 5.90282e-14 -0.0171758 0 0 0 0.00858788)
(0.00885686 0 0 5.73074e-14 -0.0177137 0 0 0 0.00885686)
(0.0091009 0 0 5.51739e-14 -0.0182018 0 0 0 0.0091009)
(0.00932338 0 0 5.26169e-14 -0.0186468 0 0 0 0.00932338)
(0.00953365 0 0 4.96266e-14 -0.0190673 0 0 0 0.00953365)
(0.00974703 0 0 4.61953e-14 -0.0194941 0 0 0 0.00974703)
(0.00999579 0 0 4.23189e-14 -0.0199916 0 0 0 0.00999579)
(0.0103951 0 0 3.80008e-14 -0.0207901 0 0 0 0.0103951)
(0.0112194 0 0 3.3255e-14 -0.0224387 0 0 0 0.0112194)
(0.0125446 0 0 2.4486e-14 -0.0250891 0 0 0 0.0125446)
(0.0133225 0 0 1.53786e-14 -0.026645 0 0 0 0.0133225)
(0.0128435 0 0 9.62999e-15 -0.025687 0 0 0 0.0128435)
(0.0198708 0 0 4.73051e-15 -0.0397416 0 0 0 0.0198708)
(0.00938632 0 0 3.4635e-16 -0.0187726 0 0 0 0.00938632)
(1.70744e-05 0 0 1.10099e-18 -3.41487e-05 0 0 0 1.70744e-05)
(4.61708e-07 0 0 5.01967e-20 -9.23417e-07 0 0 0 4.61708e-07)
(7.47293e-09 0 0 2.4035e-21 -1.49459e-08 0 0 0 7.47293e-09)
(6.20785e-17 0 0 2.86172e-29 -1.24157e-16 0 0 0 6.20785e-17)
(4.22812e-25 0 0 2.23311e-37 -8.45624e-25 0 0 0 4.22812e-25)
(9.82021e-35 0 0 2.30468e-45 -1.96404e-34 0 0 0 9.82021e-35)
(-1.52847e-43 0 0 4.16775e-53 3.05694e-43 0 0 0 -1.52847e-43)
(2.2751e-51 0 0 9.31198e-61 -4.5502e-51 0 0 0 2.2751e-51)
(1.53801e-59 0 0 2.72557e-68 -3.07601e-59 0 0 0 1.53801e-59)
(-4.36803e-67 0 0 1.76298e-75 8.73606e-67 0 0 0 -4.36803e-67)
(-2.15325e-74 0 0 2.17708e-82 4.3065e-74 0 0 0 -2.15325e-74)
(9.04231e-82 0 0 2.36965e-89 -1.80846e-81 0 0 0 9.04231e-82)
(6.29074e-89 0 0 1.36343e-96 -1.25815e-88 0 0 0 6.29074e-89)
(-1.30764e-96 0 0 -1.7952e-103 2.61527e-96 0 0 0 -1.30764e-96)
(-1.10391e-103 0 0 -7.4093e-110 2.20781e-103 0 0 0 -1.10391e-103)
(9.31251e-112 0 0 -1.49316e-116 -1.8625e-111 0 0 0 9.31251e-112)
(1.39886e-118 0 0 -2.43339e-123 -2.79772e-118 0 0 0 1.39886e-118)
(8.48278e-126 0 0 -3.34818e-130 -1.69656e-125 0 0 0 8.48278e-126)
(1.80653e-132 0 0 -4.22026e-137 -3.61307e-132 0 0 0 1.80653e-132)
(2.77904e-139 0 0 -4.77273e-144 -5.55808e-139 0 0 0 2.77904e-139)
(3.28774e-146 0 0 -5.17972e-151 -6.57547e-146 0 0 0 3.28774e-146)
(2.9025e-153 0 0 -5.27015e-158 -5.80501e-153 0 0 0 2.9025e-153)
(2.03137e-160 0 0 -5.38766e-165 -4.06275e-160 0 0 0 2.03137e-160)
(-5.13478e-167 0 0 -5.37911e-172 1.02696e-166 0 0 0 -5.13478e-167)
(-9.64196e-174 0 0 -5.43133e-179 1.92839e-173 0 0 0 -9.64196e-174)
(-1.84437e-179 0 0 -5.16557e-186 3.68875e-179 0 0 0 -1.84437e-179)
(-8.69698e-184 0 0 -4.68658e-193 1.7394e-183 0 0 0 -8.69698e-184)
(-1.64522e-190 0 0 -3.82692e-200 3.29043e-190 0 0 0 -1.64522e-190)
(-8.92966e-197 0 0 -2.88813e-207 1.78593e-196 0 0 0 -8.92966e-197)
(-5.70472e-201 0 0 -1.91805e-214 1.14094e-200 0 0 0 -5.70472e-201)
)
;

boundaryField
{
    inlet
    {
        type            cyclic;
    }
    outlet
    {
        type            cyclic;
    }
    top
    {
        type            extrapolatedCalculated;
        value           uniform (-1.13986e-200 0 0 -1.92014e-214 2.27971e-200 0 0 0 -1.13986e-200);
    }
    bottom
    {
        type            extrapolatedCalculated;
        value           uniform (0.00168574 0 0 1.14038e-14 -0.00337148 0 0 0 0.00168574);
    }
    frontAndBackPlanes
    {
        type            empty;
    }
}


// ************************************************************************* //
