/*--------------------------------*- C++ -*----------------------------------*\
| =========                 |                                                 |
| \\      /  F ield         | OpenFOAM: The Open Source CFD Toolbox           |
|  \\    /   O peration     | Version:  v2006                                 |
|   \\  /    A nd           | Website:  www.openfoam.com                      |
|    \\/     M anipulation  |                                                 |
\*---------------------------------------------------------------------------*/
FoamFile
{
    version     2.0;
    format      ascii;
    class       volTensorField;
    location    "1380";
    object      Taub;
}
// * * * * * * * * * * * * * * * * * * * * * * * * * * * * * * * * * * * * * //

dimensions      [1 -1 -2 0 0 0 0];


internalField   nonuniform List<tensor> 
120
(
(-1.21092e-07 0 0 5.43106e-19 2.42184e-07 0 0 0 -1.21092e-07)
(-1.22032e-07 0 0 5.44466e-19 2.44064e-07 0 0 0 -1.22032e-07)
(-1.23432e-07 0 0 5.40469e-19 2.46863e-07 0 0 0 -1.23432e-07)
(-1.2495e-07 0 0 5.37282e-19 2.49899e-07 0 0 0 -1.2495e-07)
(-1.26484e-07 0 0 5.41022e-19 2.52967e-07 0 0 0 -1.26484e-07)
(-1.28045e-07 0 0 5.47892e-19 2.56089e-07 0 0 0 -1.28045e-07)
(-1.29636e-07 0 0 5.39723e-19 2.59271e-07 0 0 0 -1.29636e-07)
(-1.3126e-07 0 0 5.286e-19 2.62519e-07 0 0 0 -1.3126e-07)
(-1.32917e-07 0 0 5.51832e-19 2.65834e-07 0 0 0 -1.32917e-07)
(-1.34609e-07 0 0 5.73021e-19 2.69219e-07 0 0 0 -1.34609e-07)
(-1.36337e-07 0 0 5.72096e-19 2.72674e-07 0 0 0 -1.36337e-07)
(-1.38102e-07 0 0 5.96382e-19 2.76204e-07 0 0 0 -1.38102e-07)
(-1.39905e-07 0 0 6.21512e-19 2.7981e-07 0 0 0 -1.39905e-07)
(-1.41748e-07 0 0 6.2686e-19 2.83496e-07 0 0 0 -1.41748e-07)
(-1.43632e-07 0 0 6.38262e-19 2.87264e-07 0 0 0 -1.43632e-07)
(-1.45559e-07 0 0 6.50531e-19 2.91119e-07 0 0 0 -1.45559e-07)
(-1.47531e-07 0 0 6.63648e-19 2.95062e-07 0 0 0 -1.47531e-07)
(-1.49549e-07 0 0 6.77621e-19 2.99098e-07 0 0 0 -1.49549e-07)
(-1.51615e-07 0 0 6.92457e-19 3.0323e-07 0 0 0 -1.51615e-07)
(-1.53731e-07 0 0 7.08166e-19 3.07462e-07 0 0 0 -1.53731e-07)
(-1.55899e-07 0 0 7.24756e-19 3.11799e-07 0 0 0 -1.55899e-07)
(-1.58123e-07 0 0 7.42036e-19 3.16245e-07 0 0 0 -1.58123e-07)
(-1.60402e-07 0 0 7.13744e-19 3.20805e-07 0 0 0 -1.60402e-07)
(-1.62742e-07 0 0 8.20348e-19 3.25483e-07 0 0 0 -1.62742e-07)
(-1.65142e-07 0 0 9.27999e-19 3.30283e-07 0 0 0 -1.65142e-07)
(-1.67604e-07 0 0 9.29447e-19 3.35209e-07 0 0 0 -1.67604e-07)
(-1.70131e-07 0 0 9.04208e-19 3.40262e-07 0 0 0 -1.70131e-07)
(-1.72723e-07 0 0 8.80457e-19 3.45447e-07 0 0 0 -1.72723e-07)
(-1.75383e-07 0 0 9.93211e-19 3.50766e-07 0 0 0 -1.75383e-07)
(-1.7811e-07 0 0 9.80578e-19 3.5622e-07 0 0 0 -1.7811e-07)
(-1.80906e-07 0 0 8.00528e-19 3.61811e-07 0 0 0 -1.80906e-07)
(-1.83769e-07 0 0 7.84906e-19 3.67538e-07 0 0 0 -1.83769e-07)
(-1.86698e-07 0 0 8.77847e-19 3.73397e-07 0 0 0 -1.86698e-07)
(-1.89692e-07 0 0 9.07742e-19 3.79384e-07 0 0 0 -1.89692e-07)
(-1.92746e-07 0 0 8.61105e-19 3.85493e-07 0 0 0 -1.92746e-07)
(-1.95859e-07 -1.74854e-21 0 9.31924e-19 3.91717e-07 0 0 0 -1.95859e-07)
(-1.99025e-07 0 0 1.28809e-18 3.9805e-07 0 0 0 -1.99025e-07)
(-2.0224e-07 0 0 1.15866e-18 4.0448e-07 0 0 0 -2.0224e-07)
(-2.05498e-07 0 0 1.29624e-18 4.10997e-07 0 0 0 -2.05498e-07)
(-2.08794e-07 0 0 1.19384e-18 4.17588e-07 0 0 0 -2.08794e-07)
(-2.1212e-07 0 0 1.11767e-18 4.2424e-07 0 0 0 -2.1212e-07)
(-2.15468e-07 0 0 1.33518e-18 4.30936e-07 0 0 0 -2.15468e-07)
(-2.1883e-07 0 0 1.15273e-18 4.37661e-07 0 0 0 -2.1883e-07)
(-2.22202e-07 0 0 1.19101e-18 4.44404e-07 0 0 0 -2.22202e-07)
(-2.25579e-07 0 0 1.6022e-18 4.51158e-07 0 0 0 -2.25579e-07)
(-2.28959e-07 0 0 1.50266e-18 4.57917e-07 0 0 0 -2.28959e-07)
(-2.32341e-07 0 0 1.26872e-18 4.64683e-07 0 0 0 -2.32341e-07)
(-2.35732e-07 0 0 1.14967e-18 4.71464e-07 0 0 0 -2.35732e-07)
(-2.39138e-07 0 0 1.37278e-18 4.78277e-07 0 0 0 -2.39138e-07)
(-2.42574e-07 0 0 1.86763e-18 4.85147e-07 0 0 0 -2.42574e-07)
(-2.4606e-07 0 0 1.69759e-18 4.92121e-07 0 0 0 -2.4606e-07)
(-2.49631e-07 0 0 1.76479e-18 4.99261e-07 0 0 0 -2.49631e-07)
(-2.53328e-07 0 0 1.83524e-18 5.06656e-07 0 0 0 -2.53328e-07)
(-2.57207e-07 0 0 1.76946e-18 5.14413e-07 0 0 0 -2.57207e-07)
(-2.61335e-07 0 0 2.02659e-18 5.2267e-07 0 0 0 -2.61335e-07)
(-2.65796e-07 0 0 2.28616e-18 5.31591e-07 0 0 0 -2.65796e-07)
(-2.70683e-07 0 0 2.22919e-18 5.41365e-07 0 0 0 -2.70683e-07)
(-2.76103e-07 0 0 2.62306e-18 5.52206e-07 0 0 0 -2.76103e-07)
(-2.82179e-07 3.48876e-21 0 2.31581e-18 5.64357e-07 0 0 0 -2.82179e-07)
(-2.89043e-07 0 0 2.00796e-18 5.78085e-07 0 0 0 -2.89043e-07)
(-2.96835e-07 0 0 2.40354e-18 5.9367e-07 0 0 0 -2.96835e-07)
(-3.05696e-07 0 0 2.49061e-18 6.11393e-07 0 0 0 -3.05696e-07)
(-3.15762e-07 0 0 2.57673e-18 6.31524e-07 0 0 0 -3.15762e-07)
(-3.27152e-07 0 0 3.02106e-18 6.54305e-07 0 0 0 -3.27152e-07)
(-3.39961e-07 0 0 2.28037e-18 6.79921e-07 0 0 0 -3.39961e-07)
(-3.54243e-07 0 0 2.36526e-18 7.08485e-07 0 0 0 -3.54243e-07)
(-3.70009e-07 0 0 3.25389e-18 7.40019e-07 0 0 0 -3.70009e-07)
(-3.87217e-07 0 0 2.94394e-18 7.74434e-07 0 0 0 -3.87217e-07)
(-4.05754e-07 0 0 2.99762e-18 8.11508e-07 0 0 0 -4.05754e-07)
(-4.25432e-07 0 0 3.4721e-18 8.50864e-07 0 0 0 -4.25432e-07)
(-4.45986e-07 0 0 2.99027e-18 8.91972e-07 0 0 0 -4.45986e-07)
(-4.67077e-07 0 0 2.49572e-18 9.34153e-07 0 0 0 -4.67077e-07)
(-4.88292e-07 0 0 2.93137e-18 9.76584e-07 0 0 0 -4.88292e-07)
(-5.0917e-07 0 0 2.92258e-18 1.01834e-06 0 0 0 -5.0917e-07)
(-5.29226e-07 0 0 2.89525e-18 1.05845e-06 0 0 0 -5.29226e-07)
(-5.47995e-07 0 0 2.8504e-18 1.09599e-06 0 0 0 -5.47995e-07)
(-5.65063e-07 0 0 2.78726e-18 1.13013e-06 0 0 0 -5.65063e-07)
(-5.80128e-07 0 0 2.70519e-18 1.16026e-06 0 0 0 -5.80128e-07)
(-5.93061e-07 0 0 2.60363e-18 1.18612e-06 0 0 0 -5.93061e-07)
(-6.03989e-07 0 0 2.4821e-18 1.20798e-06 0 0 0 -6.03989e-07)
(-6.13444e-07 0 0 2.34015e-18 1.22689e-06 0 0 0 -6.13444e-07)
(-6.22813e-07 0 0 2.17743e-18 1.24563e-06 0 0 0 -6.22813e-07)
(-6.35185e-07 0 0 1.99381e-18 1.27037e-06 0 0 0 -6.35185e-07)
(-6.55714e-07 0 0 1.79596e-18 1.31143e-06 0 0 0 -6.55714e-07)
(-6.90134e-07 0 0 2.945e-18 1.38027e-06 0 0 0 -6.90134e-07)
(-7.38425e-07 0 0 1.15155e-18 1.47685e-06 0 0 0 -7.38425e-07)
(-7.65102e-07 0 0 -6.5527e-19 1.5302e-06 0 0 0 -7.65102e-07)
(-4.94265e-07 0 0 4.45576e-19 9.8853e-07 0 0 0 -4.94265e-07)
(5.74823e-06 0 0 2.29559e-19 -1.14965e-05 0 0 0 5.74823e-06)
(1.61451e-06 0 0 1.65968e-18 -3.22901e-06 0 0 0 1.61451e-06)
(1.67963e-05 0 0 1.01249e-16 -3.35925e-05 0 0 0 1.67963e-05)
(-3.53554e-05 0 0 1.29957e-16 7.07108e-05 0 0 0 -3.53554e-05)
(-8.71019e-06 0 0 1.58273e-16 1.74204e-05 0 0 0 -8.71019e-06)
(4.20701e-05 0 0 1.53765e-16 -8.41402e-05 0 0 0 4.20701e-05)
(3.75891e-06 0 0 1.44936e-16 -7.51783e-06 0 0 0 3.75891e-06)
(-3.10852e-06 0 0 1.32683e-16 6.21704e-06 0 0 0 -3.10852e-06)
(-4.36427e-07 0 0 1.17591e-16 8.72854e-07 0 0 0 -4.36427e-07)
(2.21607e-07 0 0 1.00457e-16 -4.43214e-07 0 0 0 2.21607e-07)
(4.45769e-08 0 0 8.20881e-17 -8.91538e-08 0 0 0 4.45769e-08)
(-1.51073e-08 0 0 6.3187e-17 3.02146e-08 0 0 0 -1.51073e-08)
(-4.26791e-09 0 0 4.43422e-17 8.53582e-09 0 0 0 -4.26791e-09)
(9.55654e-10 0 0 2.60342e-17 -1.91131e-09 0 0 0 9.55654e-10)
(3.86871e-10 0 0 8.64105e-18 -7.73741e-10 0 0 0 3.86871e-10)
(-5.27997e-11 0 0 -7.55763e-18 1.05599e-10 0 0 0 -5.27997e-11)
(-3.22598e-11 0 0 -2.23739e-17 6.45197e-11 0 0 0 -3.22598e-11)
(2.15877e-12 0 0 -3.57018e-17 -4.31754e-12 0 0 0 2.15877e-12)
(2.65264e-12 0 0 -4.75064e-17 -5.30529e-12 0 0 0 2.65264e-12)
(1.46722e-12 0 0 -5.78109e-17 -2.93444e-12 0 0 0 1.46722e-12)
(2.87191e-12 0 0 -6.66836e-17 -5.74381e-12 0 0 0 2.87191e-12)
(4.3321e-12 0 0 -7.42245e-17 -8.6642e-12 0 0 0 4.3321e-12)
(5.11517e-12 0 0 -8.05538e-17 -1.02303e-11 0 0 0 5.11517e-12)
(4.73345e-12 0 0 -8.58006e-17 -9.46691e-12 0 0 0 4.73345e-12)
(3.45164e-12 0 0 -9.0095e-17 -6.90328e-12 0 0 0 3.45164e-12)
(2.41539e-12 0 0 -9.35614e-17 -4.83079e-12 0 0 0 2.41539e-12)
(2.24304e-12 0 0 -9.63135e-17 -4.48608e-12 0 0 0 2.24304e-12)
(2.86481e-12 0 0 -9.84512e-17 -5.72962e-12 0 0 0 2.86481e-12)
(3.06182e-12 0 0 -1.00059e-16 -6.12364e-12 0 0 0 3.06182e-12)
(-9.57696e-13 0 0 -1.01205e-16 1.91539e-12 0 0 0 -9.57696e-13)
(-2.84499e-12 0 0 -1.01941e-16 5.68998e-12 0 0 0 -2.84499e-12)
(5.6288e-11 0 0 -1.02325e-16 -1.12576e-10 0 0 0 5.6288e-11)
)
;

boundaryField
{
    inlet
    {
        type            cyclic;
    }
    outlet
    {
        type            cyclic;
    }
    top
    {
        type            extrapolatedCalculated;
        value           uniform (1.13525e-10 0 0 -1.02439e-16 -2.2705e-10 0 0 0 1.13525e-10);
    }
    bottom
    {
        type            extrapolatedCalculated;
        value           uniform (-1.20791e-07 0 0 5.42843e-19 2.41582e-07 0 0 0 -1.20791e-07);
    }
    frontAndBackPlanes
    {
        type            empty;
    }
}


// ************************************************************************* //
