/*--------------------------------*- C++ -*----------------------------------*\
| =========                 |                                                 |
| \\      /  F ield         | OpenFOAM: The Open Source CFD Toolbox           |
|  \\    /   O peration     | Version:  v2006                                 |
|   \\  /    A nd           | Website:  www.openfoam.com                      |
|    \\/     M anipulation  |                                                 |
\*---------------------------------------------------------------------------*/
FoamFile
{
    version     2.0;
    format      ascii;
    class       volVectorField;
    location    "1380";
    object      Ua;
}
// * * * * * * * * * * * * * * * * * * * * * * * * * * * * * * * * * * * * * //

dimensions      [0 1 -1 0 0 0 0];


internalField   nonuniform List<vector> 
120
(
(2.71518e-21 -1.2041e-09 0)
(8.15077e-21 -3.62898e-09 0)
(1.35985e-20 -6.08752e-09 0)
(1.89651e-20 -8.57801e-09 0)
(2.43601e-20 -1.10999e-08 0)
(2.97914e-20 -1.36538e-08 0)
(3.52673e-20 -1.62407e-08 0)
(4.05934e-20 -1.88611e-08 0)
(4.59804e-20 -2.15158e-08 0)
(5.16389e-20 -2.42055e-08 0)
(5.73746e-20 -2.6931e-08 0)
(6.31959e-20 -2.96931e-08 0)
(6.93135e-20 -3.24926e-08 0)
(7.55332e-20 -3.53302e-08 0)
(8.18635e-20 -3.8207e-08 0)
(8.83127e-20 -4.11238e-08 0)
(9.48894e-20 -4.40815e-08 0)
(1.01602e-19 -4.70811e-08 0)
(1.08459e-19 -5.01236e-08 0)
(1.1547e-19 -5.32102e-08 0)
(1.22643e-19 -5.63419e-08 0)
(1.29987e-19 -5.95199e-08 0)
(1.37511e-19 -6.27454e-08 0)
(1.45224e-19 -6.60196e-08 0)
(1.53945e-19 -6.93439e-08 0)
(1.62875e-19 -7.27196e-08 0)
(1.72022e-19 -7.61481e-08 0)
(1.80993e-19 -7.96308e-08 0)
(1.90202e-19 -8.31692e-08 0)
(1.9966e-19 -8.67647e-08 0)
(2.08569e-19 -9.04189e-08 0)
(2.1694e-19 -9.41333e-08 0)
(2.25594e-19 -9.79094e-08 0)
(2.34543e-19 -1.01749e-07 0)
(2.43799e-19 -1.05652e-07 0)
(2.53373e-19 -1.09622e-07 0)
(2.64094e-19 -1.13659e-07 0)
(2.75979e-19 -1.17765e-07 0)
(2.87425e-19 -1.2194e-07 0)
(3.00065e-19 -1.26186e-07 0)
(3.11491e-19 -1.30503e-07 0)
(3.24148e-19 -1.34893e-07 0)
(3.36438e-19 -1.39356e-07 0)
(3.49193e-19 -1.43892e-07 0)
(3.62434e-19 -1.48502e-07 0)
(3.76995e-19 -1.53186e-07 0)
(3.90472e-19 -1.57944e-07 0)
(4.0451e-19 -1.62777e-07 0)
(4.18327e-19 -1.67685e-07 0)
(4.3438e-19 -1.72669e-07 0)
(4.51076e-19 -1.77731e-07 0)
(4.68445e-19 -1.8287e-07 0)
(4.86516e-19 -1.88091e-07 0)
(5.05317e-19 -1.93396e-07 0)
(5.24875e-19 -1.98791e-07 0)
(5.46028e-19 -2.04281e-07 0)
(5.6799e-19 -2.09874e-07 0)
(5.9078e-19 -2.15581e-07 0)
(6.14435e-19 -2.21414e-07 0)
(6.37326e-19 -2.27389e-07 0)
(6.61067e-19 -2.33525e-07 0)
(6.85677e-19 -2.39842e-07 0)
(7.11148e-19 -2.46365e-07 0)
(7.37464e-19 -2.53122e-07 0)
(7.64599e-19 -2.60142e-07 0)
(7.90891e-19 -2.67458e-07 0)
(8.19538e-19 -2.75103e-07 0)
(8.48853e-19 -2.83109e-07 0)
(8.78759e-19 -2.91508e-07 0)
(9.0916e-19 -3.00331e-07 0)
(9.3995e-19 -3.09601e-07 0)
(9.69383e-19 -3.19339e-07 0)
(9.98945e-19 -3.29555e-07 0)
(1.02849e-18 -3.40253e-07 0)
(1.05784e-18 -3.51427e-07 0)
(1.08685e-18 -3.6306e-07 0)
(1.11532e-18 -3.75127e-07 0)
(1.14307e-18 -3.87597e-07 0)
(1.1699e-18 -4.00432e-07 0)
(1.19561e-18 -4.13599e-07 0)
(1.22001e-18 -4.27071e-07 0)
(1.24288e-18 -4.40838e-07 0)
(1.264e-18 -4.54919e-07 0)
(1.28318e-18 -4.69397e-07 0)
(1.3002e-18 -4.84619e-07 0)
(1.31485e-18 -5.01453e-07 0)
(1.32352e-18 -5.20461e-07 0)
(1.3295e-18 -5.39517e-07 0)
(1.33269e-18 -5.57157e-07 0)
(1.334e-18 -5.96291e-07 0)
(1.33722e-18 -9.25701e-07 0)
(3.76326e-18 -0.000113617 0)
(7.7389e-18 -0.000177574 0)
(1.16752e-17 -0.000187416 0)
(1.54358e-17 -0.000227663 0)
(1.89265e-17 -0.000228604 0)
(2.20706e-17 -0.000228511 0)
(2.48069e-17 -0.00022854 0)
(2.70941e-17 -0.000228548 0)
(2.89117e-17 -0.000228547 0)
(3.02537e-17 -0.000228546 0)
(3.11289e-17 -0.000228546 0)
(3.15555e-17 -0.000228546 0)
(3.15608e-17 -0.000228546 0)
(3.11775e-17 -0.000228546 0)
(3.04419e-17 -0.000228546 0)
(2.93922e-17 -0.000228546 0)
(2.80662e-17 -0.000228546 0)
(2.65011e-17 -0.000228546 0)
(2.47316e-17 -0.000228546 0)
(2.27894e-17 -0.000228546 0)
(2.07033e-17 -0.000228546 0)
(1.84986e-17 -0.000228546 0)
(1.61981e-17 -0.000228546 0)
(1.38201e-17 -0.000228546 0)
(1.13817e-17 -0.000228546 0)
(8.89689e-18 -0.000228546 0)
(6.37806e-18 -0.000228518 0)
(3.83597e-18 -0.000228481 0)
(1.28051e-18 -0.000228045 0)
)
;

boundaryField
{
    inlet
    {
        type            cyclic;
    }
    outlet
    {
        type            cyclic;
    }
    top
    {
        type            fixedValue;
        value           uniform (0 0 0);
    }
    bottom
    {
        type            fixedValue;
        value           uniform (0 0 0);
    }
    frontAndBackPlanes
    {
        type            empty;
    }
}


// ************************************************************************* //
