/*--------------------------------*- C++ -*----------------------------------*\
| =========                 |                                                 |
| \\      /  F ield         | OpenFOAM: The Open Source CFD Toolbox           |
|  \\    /   O peration     | Version:  v2006                                 |
|   \\  /    A nd           | Website:  www.openfoam.com                      |
|    \\/     M anipulation  |                                                 |
\*---------------------------------------------------------------------------*/
FoamFile
{
    version     2.0;
    format      ascii;
    class       volVectorField;
    location    "1380";
    object      Ub;
}
// * * * * * * * * * * * * * * * * * * * * * * * * * * * * * * * * * * * * * //

dimensions      [0 1 -1 0 0 0 0];


internalField   nonuniform List<vector> 
120
(
(2.71518e-21 1.81252e-09 0)
(8.15081e-21 5.4556e-09 0)
(1.36089e-20 9.13742e-09 0)
(1.89651e-20 1.28649e-08 0)
(2.43601e-20 1.66382e-08 0)
(2.97917e-20 2.04582e-08 0)
(3.53246e-20 2.43256e-08 0)
(4.05933e-20 2.82415e-08 0)
(4.59042e-20 3.22069e-08 0)
(5.16385e-20 3.62227e-08 0)
(5.73742e-20 4.02901e-08 0)
(6.30906e-20 4.44102e-08 0)
(6.9313e-20 4.85841e-08 0)
(7.55332e-20 5.28129e-08 0)
(8.18635e-20 5.70979e-08 0)
(8.83127e-20 6.14404e-08 0)
(9.48894e-20 6.58418e-08 0)
(1.01602e-19 7.03032e-08 0)
(1.08459e-19 7.48263e-08 0)
(1.1547e-19 7.94125e-08 0)
(1.22643e-19 8.40633e-08 0)
(1.29987e-19 8.87804e-08 0)
(1.37507e-19 9.35653e-08 0)
(1.44285e-19 9.842e-08 0)
(1.53941e-19 1.03346e-07 0)
(1.62877e-19 1.08346e-07 0)
(1.72564e-19 1.13421e-07 0)
(1.80995e-19 1.18573e-07 0)
(1.90207e-19 1.23804e-07 0)
(2.009e-19 1.29117e-07 0)
(2.0986e-19 1.34514e-07 0)
(2.16945e-19 1.39995e-07 0)
(2.25594e-19 1.45564e-07 0)
(2.34543e-19 1.51223e-07 0)
(2.43792e-19 1.56973e-07 0)
(2.51808e-19 1.62817e-07 0)
(2.62478e-19 1.68755e-07 0)
(2.77638e-19 1.7479e-07 0)
(2.85715e-19 1.80922e-07 0)
(3.03636e-19 1.87154e-07 0)
(3.09661e-19 1.93486e-07 0)
(3.26056e-19 1.9992e-07 0)
(3.36447e-19 2.06454e-07 0)
(3.49183e-19 2.13091e-07 0)
(3.60345e-19 2.1983e-07 0)
(3.81335e-19 2.26671e-07 0)
(3.90501e-19 2.33615e-07 0)
(4.068e-19 2.40661e-07 0)
(4.13579e-19 2.4781e-07 0)
(4.34358e-19 2.55063e-07 0)
(4.51076e-19 2.62421e-07 0)
(4.68445e-19 2.69886e-07 0)
(4.86516e-19 2.7746e-07 0)
(5.05304e-19 2.85149e-07 0)
(5.22058e-19 2.92959e-07 0)
(5.46016e-19 3.00899e-07 0)
(5.6799e-19 3.0898e-07 0)
(5.90809e-19 3.17216e-07 0)
(6.20704e-19 3.25626e-07 0)
(6.37354e-19 3.34231e-07 0)
(6.61068e-19 3.43057e-07 0)
(6.85677e-19 3.52134e-07 0)
(7.11148e-19 3.61497e-07 0)
(7.37497e-19 3.71185e-07 0)
(7.71913e-19 3.81238e-07 0)
(7.83372e-19 3.91702e-07 0)
(8.19504e-19 4.02621e-07 0)
(8.48853e-19 4.1404e-07 0)
(8.78759e-19 4.26002e-07 0)
(9.092e-19 4.38545e-07 0)
(9.48671e-19 4.51701e-07 0)
(9.69423e-19 4.65492e-07 0)
(9.98945e-19 4.79927e-07 0)
(1.02849e-18 4.95007e-07 0)
(1.05784e-18 5.10712e-07 0)
(1.08685e-18 5.27012e-07 0)
(1.11532e-18 5.43861e-07 0)
(1.14307e-18 5.61203e-07 0)
(1.1699e-18 5.78974e-07 0)
(1.19561e-18 5.9711e-07 0)
(1.22001e-18 6.15556e-07 0)
(1.24288e-18 6.34279e-07 0)
(1.264e-18 6.53308e-07 0)
(1.28318e-18 6.72799e-07 0)
(1.30033e-18 6.93094e-07 0)
(1.34278e-18 7.147e-07 0)
(1.32365e-18 7.37959e-07 0)
(1.3295e-18 7.61227e-07 0)
(1.33269e-18 7.68051e-07 0)
(1.33416e-18 4.10744e-07 0)
(1.36652e-18 6.69319e-07 0)
(3.76941e-18 -8.01205e-07 0)
(7.74608e-18 5.87609e-06 0)
(1.16783e-17 5.04542e-07 0)
(1.54353e-17 -4.35215e-07 0)
(1.89261e-17 -5.93652e-08 0)
(2.20703e-17 3.1121e-08 0)
(2.48063e-17 6.10704e-09 0)
(2.70938e-17 -2.12419e-09 0)
(2.89113e-17 -5.80328e-10 0)
(3.02535e-17 1.42184e-10 0)
(3.11286e-17 5.9939e-11 0)
(3.15554e-17 -1.18198e-12 0)
(3.15607e-17 1.90113e-12 0)
(3.11775e-17 6.73896e-12 0)
(3.04419e-17 6.74072e-12 0)
(2.93922e-17 6.4151e-12 0)
(2.80663e-17 6.34277e-12 0)
(2.65012e-17 6.19499e-12 0)
(2.47317e-17 5.91193e-12 0)
(2.27896e-17 5.5451e-12 0)
(2.07035e-17 5.14456e-12 0)
(1.8499e-17 4.83499e-12 0)
(1.61982e-17 4.62675e-12 0)
(1.38203e-17 4.47263e-12 0)
(1.13819e-17 4.29025e-12 0)
(8.89716e-18 4.04286e-12 0)
(6.37833e-18 3.83092e-12 0)
(3.83625e-18 4.18653e-12 0)
(1.28065e-18 4.25772e-12 0)
)
;

boundaryField
{
    inlet
    {
        type            cyclic;
    }
    outlet
    {
        type            cyclic;
    }
    top
    {
        type            fixedValue;
        value           uniform (0 0 0);
    }
    bottom
    {
        type            fixedValue;
        value           uniform (0 0 0);
    }
    frontAndBackPlanes
    {
        type            empty;
    }
}


// ************************************************************************* //
