/*--------------------------------*- C++ -*----------------------------------*\
| =========                 |                                                 |
| \\      /  F ield         | OpenFOAM: The Open Source CFD Toolbox           |
|  \\    /   O peration     | Version:  v2006                                 |
|   \\  /    A nd           | Website:  www.openfoam.com                      |
|    \\/     M anipulation  |                                                 |
\*---------------------------------------------------------------------------*/
FoamFile
{
    version     2.0;
    format      ascii;
    class       volScalarField;
    location    "1700";
    object      p;
}
// * * * * * * * * * * * * * * * * * * * * * * * * * * * * * * * * * * * * * //

dimensions      [1 -1 -2 0 0 0 0];


internalField   nonuniform List<scalar> 
120
(
-2.28588
-6.94564
-11.6054
-16.2652
-20.925
-25.5847
-30.2445
-34.9043
-39.5642
-44.224
-48.8838
-53.5436
-58.2035
-62.8633
-67.5232
-72.1831
-76.843
-81.5028
-86.1627
-90.8226
-95.4826
-100.142
-104.802
-109.462
-114.122
-118.782
-123.442
-128.102
-132.762
-137.422
-142.082
-146.742
-151.402
-156.062
-160.722
-165.382
-170.042
-174.703
-179.363
-184.023
-188.683
-193.343
-198.003
-202.663
-207.323
-211.984
-216.644
-221.304
-225.964
-230.624
-235.285
-239.945
-244.605
-249.265
-253.926
-258.586
-263.246
-267.907
-272.567
-277.227
-281.888
-286.548
-291.208
-295.869
-300.529
-305.19
-309.85
-314.51
-319.171
-323.831
-328.492
-333.152
-337.813
-342.473
-347.134
-351.795
-356.455
-361.116
-365.776
-370.437
-375.098
-379.758
-384.419
-389.08
-393.74
-398.401
-403.062
-407.723
-412.384
-417.044
-421.704
-426.367
-431.027
-435.687
-440.346
-445.006
-449.666
-454.326
-458.985
-463.645
-468.305
-472.965
-477.624
-482.284
-486.944
-491.604
-496.263
-500.923
-505.583
-510.243
-514.902
-519.562
-524.222
-528.882
-533.541
-538.201
-542.861
-547.521
-552.18
-556.84
)
;

boundaryField
{
    inlet
    {
        type            cyclic;
    }
    outlet
    {
        type            cyclic;
    }
    top
    {
        type            calculated;
        value           uniform -559.17;
    }
    bottom
    {
        type            calculated;
        value           uniform 0.043992;
    }
    frontAndBackPlanes
    {
        type            empty;
    }
}


// ************************************************************************* //
