/*--------------------------------*- C++ -*----------------------------------*\
| =========                 |                                                 |
| \\      /  F ield         | OpenFOAM: The Open Source CFD Toolbox           |
|  \\    /   O peration     | Version:  v2006                                 |
|   \\  /    A nd           | Website:  www.openfoam.com                      |
|    \\/     M anipulation  |                                                 |
\*---------------------------------------------------------------------------*/
FoamFile
{
    version     2.0;
    format      ascii;
    class       volScalarField;
    location    "1700";
    object      pff;
}
// * * * * * * * * * * * * * * * * * * * * * * * * * * * * * * * * * * * * * //

dimensions      [1 -1 -2 0 0 0 0];


internalField   nonuniform List<scalar> 
120
(
26.2367
25.9424
25.6481
25.3538
25.0596
24.7654
24.4712
24.177
23.8829
23.5888
23.2948
23.0008
22.7068
22.4128
22.1189
21.825
21.5311
21.2373
20.9435
20.6498
20.3561
20.0624
19.7687
19.4751
19.1816
18.888
18.5945
18.3011
18.0077
17.7143
17.421
17.1277
16.8345
16.5413
16.2481
15.955
15.662
15.3689
15.076
14.7831
14.4902
14.1974
13.9046
13.6119
13.3192
13.0266
12.7341
12.4416
12.1491
11.8567
11.5644
11.2721
10.9799
10.6878
10.3957
10.1037
9.81177
9.5199
9.2281
8.93638
8.64473
8.35316
8.06167
7.77026
7.47894
7.1877
6.89656
6.60551
6.31456
6.02372
5.73298
5.44236
5.15185
4.86147
4.57122
4.2811
3.99113
3.70131
3.41165
3.12216
2.83286
2.54377
2.25491
1.96629
1.67795
1.38996
1.10257
0.815362
0.52287
0.222405
0
0
0
0
0
0
0
0
0
0
0
0
0
0
0
0
0
0
0
0
0
0
0
0
0
0
0
0
0
0
)
;

boundaryField
{
    inlet
    {
        type            cyclic;
    }
    outlet
    {
        type            cyclic;
    }
    top
    {
        type            calculated;
        value           uniform 0;
    }
    bottom
    {
        type            calculated;
        value           uniform 26.2367;
    }
    frontAndBackPlanes
    {
        type            empty;
    }
}


// ************************************************************************* //
