/*--------------------------------*- C++ -*----------------------------------*\
| =========                 |                                                 |
| \\      /  F ield         | OpenFOAM: The Open Source CFD Toolbox           |
|  \\    /   O peration     | Version:  v2006                                 |
|   \\  /    A nd           | Website:  www.openfoam.com                      |
|    \\/     M anipulation  |                                                 |
\*---------------------------------------------------------------------------*/
FoamFile
{
    version     2.0;
    format      ascii;
    class       surfaceScalarField;
    location    "1700";
    object      phia;
}
// * * * * * * * * * * * * * * * * * * * * * * * * * * * * * * * * * * * * * //

dimensions      [0 3 -1 0 0 0 0];
oriented        oriented;


internalField   nonuniform List<scalar> 
119
(
-1.87369e-17
-3.76869e-17
-5.68492e-17
-7.62286e-17
-9.58269e-17
-1.15646e-16
-1.35688e-16
-1.55955e-16
-1.76448e-16
-1.97169e-16
-2.18121e-16
-2.39306e-16
-2.60726e-16
-2.82384e-16
-3.04283e-16
-3.26427e-16
-3.48818e-16
-3.7146e-16
-3.94357e-16
-4.17514e-16
-4.40934e-16
-4.64623e-16
-4.88585e-16
-5.12824e-16
-5.37346e-16
-5.62156e-16
-5.8726e-16
-6.12662e-16
-6.38367e-16
-6.64381e-16
-6.90709e-16
-7.17355e-16
-7.44325e-16
-7.71623e-16
-7.99252e-16
-8.27219e-16
-8.55525e-16
-8.84176e-16
-9.13176e-16
-9.42527e-16
-9.72234e-16
-1.0023e-15
-1.03273e-15
-1.06353e-15
-1.09471e-15
-1.12627e-15
-1.15821e-15
-1.19055e-15
-1.22329e-15
-1.25645e-15
-1.29002e-15
-1.32402e-15
-1.35847e-15
-1.39336e-15
-1.42872e-15
-1.46455e-15
-1.50086e-15
-1.53767e-15
-1.575e-15
-1.61285e-15
-1.65126e-15
-1.69024e-15
-1.72984e-15
-1.77009e-15
-1.81105e-15
-1.85276e-15
-1.89532e-15
-1.93878e-15
-1.98324e-15
-2.02877e-15
-2.07544e-15
-2.12332e-15
-2.17244e-15
-2.22282e-15
-2.27443e-15
-2.32727e-15
-2.38134e-15
-2.43674e-15
-2.49378e-15
-2.55305e-15
-2.61562e-15
-2.68316e-15
-2.75794e-15
-2.84283e-15
-2.94106e-15
-3.05558e-15
-3.18891e-15
-3.34539e-15
-3.59609e-15
-7.87568e-15
-4.55048e-12
-6.06258e-11
-5.87277e-11
-8.2099e-11
-8.22706e-11
-8.22745e-11
-8.22765e-11
-8.22766e-11
-8.22766e-11
-8.22766e-11
-8.22766e-11
-8.22766e-11
-8.22766e-11
-8.22766e-11
-8.22766e-11
-8.22766e-11
-8.22766e-11
-8.22766e-11
-8.22766e-11
-8.22766e-11
-8.22766e-11
-8.22766e-11
-8.22766e-11
-8.22766e-11
-8.22766e-11
-8.22766e-11
-8.22766e-11
-8.22565e-11
-8.21697e-11
)
;

boundaryField
{
    inlet
    {
        type            cyclic;
        value           nonuniform List<scalar> 
120
(
-1.19878e-27
-3.59815e-27
-6.00182e-27
-8.38226e-27
-1.07727e-26
-1.3176e-26
-1.55951e-26
-1.79719e-26
-2.03701e-26
-2.28533e-26
-2.53634e-26
-2.79033e-26
-3.05364e-26
-3.32048e-26
-3.59111e-26
-3.8658e-26
-4.1448e-26
-4.42839e-26
-4.71681e-26
-5.0103e-26
-5.30911e-26
-5.61348e-26
-5.92361e-26
-6.23974e-26
-6.58634e-26
-6.93933e-26
-7.29891e-26
-7.6531e-26
-8.01421e-26
-8.38238e-26
-8.73348e-26
-9.06764e-26
-9.40919e-26
-9.75821e-26
-1.01148e-25
-1.04789e-25
-1.08748e-25
-1.13025e-25
-1.17135e-25
-1.21563e-25
-1.25579e-25
-1.29911e-25
-1.34071e-25
-1.38301e-25
-1.42599e-25
-1.47204e-25
-1.51387e-25
-1.5563e-25
-1.59688e-25
-1.64282e-25
-1.68925e-25
-1.73613e-25
-1.78341e-25
-1.83105e-25
-1.87899e-25
-1.92961e-25
-1.98041e-25
-2.03136e-25
-2.08238e-25
-2.12858e-25
-2.17472e-25
-2.22075e-25
-2.26658e-25
-2.31216e-25
-2.3574e-25
-2.39741e-25
-2.44177e-25
-2.48558e-25
-2.52877e-25
-2.57125e-25
-2.61297e-25
-2.64904e-25
-2.68419e-25
-2.71836e-25
-2.75148e-25
-2.78349e-25
-2.81432e-25
-2.84391e-25
-2.87221e-25
-2.89917e-25
-2.92472e-25
-2.94883e-25
-2.97145e-25
-2.99254e-25
-3.01206e-25
-3.02999e-25
-3.03676e-25
-3.04188e-25
-3.04535e-25
-3.04713e-25
-3.04782e-25
-3.02195e-25
-2.96978e-25
-2.91608e-25
-2.86037e-25
-2.80181e-25
-2.74e-25
-2.67461e-25
-2.60534e-25
-2.53182e-25
-2.45377e-25
-2.3709e-25
-2.283e-25
-2.18991e-25
-2.09155e-25
-1.98784e-25
-1.87881e-25
-1.76453e-25
-1.64511e-25
-1.52074e-25
-1.39162e-25
-1.25807e-25
-1.12042e-25
-9.78995e-26
-8.34249e-26
-6.86618e-26
-5.36585e-26
-3.84655e-26
-2.31354e-26
-7.72345e-27
)
;
    }
    outlet
    {
        type            cyclic;
        value           nonuniform List<scalar> 
120
(
1.19878e-27
3.59815e-27
6.00182e-27
8.38226e-27
1.07727e-26
1.3176e-26
1.55951e-26
1.79719e-26
2.03701e-26
2.28533e-26
2.53634e-26
2.79033e-26
3.05364e-26
3.32048e-26
3.59111e-26
3.8658e-26
4.1448e-26
4.42839e-26
4.71681e-26
5.0103e-26
5.30911e-26
5.61348e-26
5.92361e-26
6.23974e-26
6.58634e-26
6.93933e-26
7.29891e-26
7.6531e-26
8.01421e-26
8.38238e-26
8.73348e-26
9.06764e-26
9.40919e-26
9.75821e-26
1.01148e-25
1.04789e-25
1.08748e-25
1.13025e-25
1.17135e-25
1.21563e-25
1.25579e-25
1.29911e-25
1.34071e-25
1.38301e-25
1.42599e-25
1.47204e-25
1.51387e-25
1.5563e-25
1.59688e-25
1.64282e-25
1.68925e-25
1.73613e-25
1.78341e-25
1.83105e-25
1.87899e-25
1.92961e-25
1.98041e-25
2.03136e-25
2.08238e-25
2.12858e-25
2.17472e-25
2.22075e-25
2.26658e-25
2.31216e-25
2.3574e-25
2.39741e-25
2.44177e-25
2.48558e-25
2.52877e-25
2.57125e-25
2.61297e-25
2.64904e-25
2.68419e-25
2.71836e-25
2.75148e-25
2.78349e-25
2.81432e-25
2.84391e-25
2.87221e-25
2.89917e-25
2.92472e-25
2.94883e-25
2.97145e-25
2.99254e-25
3.01206e-25
3.02999e-25
3.03676e-25
3.04188e-25
3.04535e-25
3.04713e-25
3.04782e-25
3.02195e-25
2.96978e-25
2.91608e-25
2.86037e-25
2.80181e-25
2.74e-25
2.67461e-25
2.60534e-25
2.53182e-25
2.45377e-25
2.3709e-25
2.283e-25
2.18991e-25
2.09155e-25
1.98784e-25
1.87881e-25
1.76453e-25
1.64511e-25
1.52074e-25
1.39162e-25
1.25807e-25
1.12042e-25
9.78995e-26
8.34249e-26
6.86618e-26
5.36585e-26
3.84655e-26
2.31354e-26
7.72345e-27
)
;
    }
    top
    {
        type            fixedValue;
        value           uniform 0;
    }
    bottom
    {
        type            fixedValue;
        value           uniform 0;
    }
    frontAndBackPlanes
    {
        type            empty;
        value           nonuniform List<scalar> 0();
    }
}


// ************************************************************************* //
