/*--------------------------------*- C++ -*----------------------------------*\
| =========                 |                                                 |
| \\      /  F ield         | OpenFOAM: The Open Source CFD Toolbox           |
|  \\    /   O peration     | Version:  v2006                                 |
|   \\  /    A nd           | Website:  www.openfoam.com                      |
|    \\/     M anipulation  |                                                 |
\*---------------------------------------------------------------------------*/
FoamFile
{
    version     2.0;
    format      ascii;
    class       surfaceScalarField;
    location    "1700";
    object      phib;
}
// * * * * * * * * * * * * * * * * * * * * * * * * * * * * * * * * * * * * * //

dimensions      [0 3 -1 0 0 0 0];
oriented        oriented;


internalField   nonuniform List<scalar> 
119
(
2.81135e-17
5.65354e-17
8.52641e-17
1.14307e-16
1.43666e-16
1.73344e-16
2.03343e-16
2.33666e-16
2.64315e-16
2.95292e-16
3.266e-16
3.58241e-16
3.9022e-16
4.2254e-16
4.55204e-16
4.88217e-16
5.21584e-16
5.55309e-16
5.89397e-16
6.23854e-16
6.58685e-16
6.93898e-16
7.29497e-16
7.6549e-16
8.01883e-16
8.38684e-16
8.75898e-16
9.13534e-16
9.51596e-16
9.90092e-16
1.02903e-15
1.06841e-15
1.10825e-15
1.14854e-15
1.1893e-15
1.23053e-15
1.27223e-15
1.3144e-15
1.35706e-15
1.4002e-15
1.44383e-15
1.48796e-15
1.53258e-15
1.57771e-15
1.62335e-15
1.6695e-15
1.71618e-15
1.76338e-15
1.81113e-15
1.85943e-15
1.9083e-15
1.95773e-15
2.00774e-15
2.05836e-15
2.10957e-15
2.16141e-15
2.21388e-15
2.26699e-15
2.32077e-15
2.37523e-15
2.43039e-15
2.4863e-15
2.54298e-15
2.6005e-15
2.65891e-15
2.7183e-15
2.77875e-15
2.84037e-15
2.90324e-15
2.96748e-15
3.03317e-15
3.10037e-15
3.16911e-15
3.23937e-15
3.31109e-15
3.38421e-15
3.45868e-15
3.5346e-15
3.61231e-15
3.69259e-15
3.77685e-15
3.86729e-15
3.96696e-15
4.07959e-15
4.20923e-15
4.35918e-15
4.53141e-15
4.72846e-15
5.03912e-15
7.39604e-15
1.11241e-12
1.98692e-13
1.00895e-15
-8.51315e-21
-1.35462e-20
-1.99792e-20
-2.5164e-20
-3.16952e-20
-3.48194e-20
-3.89492e-20
-3.93598e-20
-4.10976e-20
-3.90577e-20
-3.95585e-20
-3.81359e-20
-3.93611e-20
-3.76399e-20
-3.72309e-20
-3.41622e-20
-3.20881e-20
-2.78572e-20
-2.49406e-20
-2.15126e-20
-1.95257e-20
-1.72352e-20
-1.56294e-20
-1.39245e-20
-1.26568e-20
-1.15793e-20
)
;

boundaryField
{
    inlet
    {
        type            cyclic;
        value           nonuniform List<scalar> 
120
(
-1.19877e-27
-3.59815e-27
-6.00176e-27
-8.38226e-27
-1.07727e-26
-1.3176e-26
-1.55952e-26
-1.79719e-26
-2.03699e-26
-2.28533e-26
-2.53634e-26
-2.79029e-26
-3.05364e-26
-3.32048e-26
-3.59111e-26
-3.8658e-26
-4.1448e-26
-4.42839e-26
-4.71681e-26
-5.0103e-26
-5.30911e-26
-5.61348e-26
-5.92361e-26
-6.23925e-26
-6.58634e-26
-6.93933e-26
-7.2992e-26
-7.6531e-26
-8.01422e-26
-8.38305e-26
-8.73419e-26
-9.06764e-26
-9.40919e-26
-9.75821e-26
-1.01148e-25
-1.0478e-25
-1.08739e-25
-1.13034e-25
-1.17126e-25
-1.21582e-25
-1.25569e-25
-1.29921e-25
-1.34071e-25
-1.38301e-25
-1.42587e-25
-1.47228e-25
-1.51387e-25
-1.55643e-25
-1.59661e-25
-1.64282e-25
-1.68925e-25
-1.73613e-25
-1.78341e-25
-1.83105e-25
-1.87884e-25
-1.92961e-25
-1.98041e-25
-2.03136e-25
-2.08272e-25
-2.12858e-25
-2.17472e-25
-2.22075e-25
-2.26658e-25
-2.31216e-25
-2.3578e-25
-2.397e-25
-2.44177e-25
-2.48558e-25
-2.52877e-25
-2.57126e-25
-2.61343e-25
-2.64904e-25
-2.68419e-25
-2.71836e-25
-2.75148e-25
-2.78349e-25
-2.81432e-25
-2.84391e-25
-2.87221e-25
-2.89917e-25
-2.92472e-25
-2.94883e-25
-2.97145e-25
-2.99254e-25
-3.01207e-25
-3.03133e-25
-3.03676e-25
-3.04188e-25
-3.04535e-25
-3.04713e-25
-3.04736e-25
-3.02189e-25
-2.96968e-25
-2.91604e-25
-2.86038e-25
-2.80182e-25
-2.74e-25
-2.67462e-25
-2.60534e-25
-2.53183e-25
-2.45378e-25
-2.37091e-25
-2.28301e-25
-2.18993e-25
-2.09156e-25
-1.98785e-25
-1.87882e-25
-1.76454e-25
-1.64512e-25
-1.52074e-25
-1.39164e-25
-1.25809e-25
-1.12042e-25
-9.7901e-26
-8.34264e-26
-6.86634e-26
-5.36601e-26
-3.84671e-26
-2.31371e-26
-7.7243e-27
)
;
    }
    outlet
    {
        type            cyclic;
        value           nonuniform List<scalar> 
120
(
1.19877e-27
3.59815e-27
6.00176e-27
8.38226e-27
1.07727e-26
1.3176e-26
1.55952e-26
1.79719e-26
2.03699e-26
2.28533e-26
2.53634e-26
2.79029e-26
3.05364e-26
3.32048e-26
3.59111e-26
3.8658e-26
4.1448e-26
4.42839e-26
4.71681e-26
5.0103e-26
5.30911e-26
5.61348e-26
5.92361e-26
6.23925e-26
6.58634e-26
6.93933e-26
7.2992e-26
7.6531e-26
8.01422e-26
8.38305e-26
8.73419e-26
9.06764e-26
9.40919e-26
9.75821e-26
1.01148e-25
1.0478e-25
1.08739e-25
1.13034e-25
1.17126e-25
1.21582e-25
1.25569e-25
1.29921e-25
1.34071e-25
1.38301e-25
1.42587e-25
1.47228e-25
1.51387e-25
1.55643e-25
1.59661e-25
1.64282e-25
1.68925e-25
1.73613e-25
1.78341e-25
1.83105e-25
1.87884e-25
1.92961e-25
1.98041e-25
2.03136e-25
2.08272e-25
2.12858e-25
2.17472e-25
2.22075e-25
2.26658e-25
2.31216e-25
2.3578e-25
2.397e-25
2.44177e-25
2.48558e-25
2.52877e-25
2.57126e-25
2.61343e-25
2.64904e-25
2.68419e-25
2.71836e-25
2.75148e-25
2.78349e-25
2.81432e-25
2.84391e-25
2.87221e-25
2.89917e-25
2.92472e-25
2.94883e-25
2.97145e-25
2.99254e-25
3.01207e-25
3.03133e-25
3.03676e-25
3.04188e-25
3.04535e-25
3.04713e-25
3.04736e-25
3.02189e-25
2.96968e-25
2.91604e-25
2.86038e-25
2.80182e-25
2.74e-25
2.67462e-25
2.60534e-25
2.53183e-25
2.45378e-25
2.37091e-25
2.28301e-25
2.18993e-25
2.09156e-25
1.98785e-25
1.87882e-25
1.76454e-25
1.64512e-25
1.52074e-25
1.39164e-25
1.25809e-25
1.12042e-25
9.7901e-26
8.34264e-26
6.86634e-26
5.36601e-26
3.84671e-26
2.31371e-26
7.7243e-27
)
;
    }
    top
    {
        type            fixedValue;
        value           uniform 0;
    }
    bottom
    {
        type            fixedValue;
        value           uniform 0;
    }
    frontAndBackPlanes
    {
        type            empty;
        value           nonuniform List<scalar> 0();
    }
}


// ************************************************************************* //
