/*--------------------------------*- C++ -*----------------------------------*\
| =========                 |                                                 |
| \\      /  F ield         | OpenFOAM: The Open Source CFD Toolbox           |
|  \\    /   O peration     | Version:  v2006                                 |
|   \\  /    A nd           | Website:  www.openfoam.com                      |
|    \\/     M anipulation  |                                                 |
\*---------------------------------------------------------------------------*/
FoamFile
{
    version     2.0;
    format      ascii;
    class       volTensorField;
    location    "1700";
    object      Taua;
}
// * * * * * * * * * * * * * * * * * * * * * * * * * * * * * * * * * * * * * //

dimensions      [1 -1 -2 0 0 0 0];


internalField   nonuniform List<tensor> 
120
(
(3.64933e-05 0 0 1.67892e-14 -7.29866e-05 0 0 0 3.64933e-05)
(3.67937e-05 0 0 1.68107e-14 -7.35874e-05 0 0 0 3.67937e-05)
(3.72488e-05 0 0 1.67444e-14 -7.44976e-05 0 0 0 3.72488e-05)
(3.76853e-05 0 0 1.66982e-14 -7.53706e-05 0 0 0 3.76853e-05)
(3.8109e-05 0 0 1.67783e-14 -7.6218e-05 0 0 0 3.8109e-05)
(3.85374e-05 0 0 1.68783e-14 -7.70747e-05 0 0 0 3.85374e-05)
(3.89707e-05 0 0 1.67856e-14 -7.79415e-05 0 0 0 3.89707e-05)
(3.94075e-05 0 0 1.67127e-14 -7.88151e-05 0 0 0 3.94075e-05)
(3.98478e-05 0 0 1.70848e-14 -7.96955e-05 0 0 0 3.98478e-05)
(4.02917e-05 0 0 1.74765e-14 -8.05834e-05 0 0 0 4.02917e-05)
(4.07398e-05 0 0 1.76751e-14 -8.14797e-05 0 0 0 4.07398e-05)
(4.11925e-05 0 0 1.81056e-14 -8.2385e-05 0 0 0 4.11925e-05)
(4.16501e-05 0 0 1.85552e-14 -8.33001e-05 0 0 0 4.16501e-05)
(4.2113e-05 0 0 1.88113e-14 -8.4226e-05 0 0 0 4.2113e-05)
(4.25817e-05 0 0 1.90861e-14 -8.51633e-05 0 0 0 4.25817e-05)
(4.30565e-05 0 0 1.93794e-14 -8.61131e-05 0 0 0 4.30565e-05)
(4.35381e-05 0 0 1.96908e-14 -8.70761e-05 0 0 0 4.35381e-05)
(4.40267e-05 0 0 2.00202e-14 -8.80534e-05 0 0 0 4.40267e-05)
(4.45229e-05 0 0 2.03669e-14 -8.90458e-05 0 0 0 4.45229e-05)
(4.50271e-05 0 0 2.07307e-14 -9.00542e-05 0 0 0 4.50271e-05)
(4.55398e-05 0 0 2.11111e-14 -9.10795e-05 0 0 0 4.55398e-05)
(4.60612e-05 0 0 2.15075e-14 -9.21225e-05 0 0 0 4.60612e-05)
(4.65919e-05 0 0 2.19194e-14 -9.31838e-05 0 0 0 4.65919e-05)
(4.71321e-05 0 0 2.31954e-14 -9.42642e-05 0 0 0 4.71321e-05)
(4.76821e-05 0 0 2.44856e-14 -9.53642e-05 0 0 0 4.76821e-05)
(4.82421e-05 0 0 2.49398e-14 -9.64841e-05 0 0 0 4.82421e-05)
(4.88121e-05 0 0 2.4982e-14 -9.76243e-05 0 0 0 4.88121e-05)
(4.93923e-05 0 0 2.50357e-14 -9.87846e-05 0 0 0 4.93923e-05)
(4.99826e-05 0 0 2.55247e-14 -9.99652e-05 0 0 0 4.99826e-05)
(5.05829e-05 0 0 2.51745e-14 -0.000101166 0 0 0 5.05829e-05)
(5.11929e-05 0 0 2.3984e-14 -0.000102386 0 0 0 5.11929e-05)
(5.18124e-05 0 0 2.36496e-14 -0.000103625 0 0 0 5.18124e-05)
(5.24411e-05 0 0 2.417e-14 -0.000104882 0 0 0 5.24411e-05)
(5.30786e-05 0 0 2.4695e-14 -0.000106157 0 0 0 5.30786e-05)
(5.37246e-05 0 0 2.5223e-14 -0.000107449 0 0 0 5.37246e-05)
(5.43788e-05 5.75211e-19 0 2.6601e-14 -0.000108758 0 0 0 5.43788e-05)
(5.50407e-05 0 0 2.88275e-14 -0.000110081 0 0 0 5.50407e-05)
(5.57102e-05 0 0 2.93562e-14 -0.00011142 0 0 0 5.57102e-05)
(5.63872e-05 0 0 2.98811e-14 -0.000112774 0 0 0 5.63872e-05)
(5.70717e-05 0 0 2.95532e-14 -0.000114143 0 0 0 5.70717e-05)
(5.77639e-05 0 0 2.9218e-14 -0.000115528 0 0 0 5.77639e-05)
(5.84642e-05 0 0 2.97219e-14 -0.000116928 0 0 0 5.84642e-05)
(5.91731e-05 0 0 2.93671e-14 -0.000118346 0 0 0 5.91731e-05)
(5.98916e-05 0 0 2.98468e-14 -0.000119783 0 0 0 5.98916e-05)
(6.06205e-05 0 0 3.11586e-14 -0.000121241 0 0 0 6.06205e-05)
(6.1361e-05 0 0 3.07589e-14 -0.000122722 0 0 0 6.1361e-05)
(6.21143e-05 0 0 2.94925e-14 -0.000124229 0 0 0 6.21143e-05)
(6.28819e-05 0 0 2.90519e-14 -0.000125764 0 0 0 6.28819e-05)
(6.36649e-05 0 0 3.0281e-14 -0.00012733 0 0 0 6.36649e-05)
(6.44646e-05 0 0 3.23309e-14 -0.000128929 0 0 0 6.44646e-05)
(6.52822e-05 0 0 3.26592e-14 -0.000130564 0 0 0 6.52822e-05)
(6.61187e-05 0 0 3.29572e-14 -0.000132237 0 0 0 6.61187e-05)
(6.69747e-05 0 0 3.32228e-14 -0.000133949 0 0 0 6.69747e-05)
(6.7851e-05 0 0 3.34539e-14 -0.000135702 0 0 0 6.7851e-05)
(6.87484e-05 0 0 3.44944e-14 -0.000137497 0 0 0 6.87484e-05)
(6.96675e-05 0 0 3.54965e-14 -0.000139335 0 0 0 6.96675e-05)
(7.061e-05 0 0 3.56124e-14 -0.00014122 0 0 0 7.061e-05)
(7.15779e-05 0 0 3.56867e-14 -0.000143156 0 0 0 7.15779e-05)
(7.25748e-05 -1.15042e-18 0 3.4027e-14 -0.00014515 0 0 0 7.25748e-05)
(7.36061e-05 0 0 3.23214e-14 -0.000147212 0 0 0 7.36061e-05)
(7.46792e-05 0 0 3.22598e-14 -0.000149358 0 0 0 7.46792e-05)
(7.58045e-05 0 0 3.21509e-14 -0.000151609 0 0 0 7.58045e-05)
(7.69947e-05 0 0 3.19932e-14 -0.000153989 0 0 0 7.69947e-05)
(7.82656e-05 0 0 3.17858e-14 -0.000156531 0 0 0 7.82656e-05)
(7.96349e-05 0 0 2.98401e-14 -0.00015927 0 0 0 7.96349e-05)
(8.11213e-05 0 0 2.95311e-14 -0.000162243 0 0 0 8.11213e-05)
(8.27426e-05 0 0 3.0859e-14 -0.000165485 0 0 0 8.27426e-05)
(8.45133e-05 0 0 3.04479e-14 -0.000169027 0 0 0 8.45133e-05)
(8.64418e-05 0 0 2.99856e-14 -0.000172884 0 0 0 8.64418e-05)
(8.85266e-05 0 0 2.94722e-14 -0.000177053 0 0 0 8.85266e-05)
(9.07539e-05 0 0 2.72233e-14 -0.000181508 0 0 0 9.07539e-05)
(9.30952e-05 0 0 2.49246e-14 -0.00018619 0 0 0 9.30952e-05)
(9.55087e-05 0 0 2.42621e-14 -0.000191017 0 0 0 9.55087e-05)
(9.79446e-05 0 0 2.3552e-14 -0.000195889 0 0 0 9.79446e-05)
(0.000100359 0 0 2.27954e-14 -0.000200719 0 0 0 0.000100359)
(0.00010274 0 0 2.1994e-14 -0.00020548 0 0 0 0.00010274)
(0.000105143 0 0 2.11495e-14 -0.000210286 0 0 0 0.000105143)
(0.000107746 0 0 2.02638e-14 -0.000215491 0 0 0 0.000107746)
(0.000110911 0 0 1.9339e-14 -0.000221822 0 0 0 0.000110911)
(0.000115273 0 0 1.83775e-14 -0.000230545 0 0 0 0.000115273)
(0.000121757 0 0 1.73816e-14 -0.000243515 0 0 0 0.000121757)
(0.000131231 0 0 1.6354e-14 -0.000262462 0 0 0 0.000131231)
(0.000144293 0 0 1.52973e-14 -0.000288586 0 0 0 0.000144293)
(0.000165066 0 0 1.42145e-14 -0.000330133 0 0 0 0.000165066)
(0.000203886 0 0 1.31083e-14 -0.000407773 0 0 0 0.000203886)
(0.000228651 0 0 8.64444e-15 -0.000457302 0 0 0 0.000228651)
(9.4152e-05 0 0 4.16339e-15 -0.000188304 0 0 0 9.4152e-05)
(0.000129939 0 0 3.00566e-15 -0.000259879 0 0 0 0.000129939)
(0.00233432 0 0 1.83669e-15 -0.00466864 0 0 0 0.00233432)
(0.00747501 0 0 8.65412e-16 -0.01495 0 0 0 0.00747501)
(1.26789e-05 0 0 -3.40505e-21 -2.53577e-05 0 0 0 1.26789e-05)
(3.69858e-07 0 0 -1.77512e-22 -7.39716e-07 0 0 0 3.69858e-07)
(1.22665e-09 0 0 -1.27321e-24 -2.45331e-09 0 0 0 1.22665e-09)
(8.9054e-20 0 0 -1.4757e-34 -1.78108e-19 0 0 0 8.9054e-20)
(5.58099e-30 0 0 -1.94594e-44 -1.1162e-29 0 0 0 5.58099e-30)
(-4.73231e-42 0 0 -4.08174e-54 9.46461e-42 0 0 0 -4.73231e-42)
(-1.94884e-53 0 0 -1.24568e-63 3.89768e-53 0 0 0 -1.94884e-53)
(1.13131e-61 0 0 -4.57684e-73 -2.26263e-61 0 0 0 1.13131e-61)
(2.65761e-72 0 0 -2.00639e-82 -5.31521e-72 0 0 0 2.65761e-72)
(-1.56676e-81 0 0 -9.72655e-92 3.13352e-81 0 0 0 -1.56676e-81)
(-8.7141e-92 0 0 -5.44128e-101 1.74282e-91 0 0 0 -8.7141e-92)
(3.615e-101 0 0 -3.35528e-110 -7.23001e-101 0 0 0 3.615e-101)
(3.99204e-111 0 0 -2.42612e-119 -7.98407e-111 0 0 0 3.99204e-111)
(-1.4114e-120 0 0 -2.00252e-128 2.8228e-120 0 0 0 -1.4114e-120)
(-2.98987e-130 0 0 -2.05312e-137 5.97975e-130 0 0 0 -2.98987e-130)
(1.13972e-139 0 0 -2.51265e-146 -2.27945e-139 0 0 0 1.13972e-139)
(4.35858e-149 0 0 -3.75606e-155 -8.71717e-149 0 0 0 4.35858e-149)
(-2.05377e-158 0 0 -6.23612e-164 4.10753e-158 0 0 0 -2.05377e-158)
(-1.5902e-167 0 0 -1.1645e-172 3.18039e-167 0 0 0 -1.5902e-167)
(-8.36481e-177 0 0 -2.28847e-181 1.67296e-176 0 0 0 -8.36481e-177)
(-3.46486e-185 0 0 -4.90869e-190 6.92972e-185 0 0 0 -3.46486e-185)
(-7.89103e-194 0 0 -1.0927e-198 1.57821e-193 0 0 0 -7.89103e-194)
(-2.20579e-202 0 0 -2.70318e-207 4.41158e-202 0 0 0 -2.20579e-202)
(-4.3634e-209 0 0 -7.28914e-216 8.7268e-209 0 0 0 -4.3634e-209)
(-2.26892e-217 0 0 -2.27873e-224 4.53785e-217 0 0 0 -2.26892e-217)
(-1.38415e-224 0 0 -7.74836e-233 2.7683e-224 0 0 0 -1.38415e-224)
(-2.68438e-230 0 0 -2.90988e-241 5.36876e-230 0 0 0 -2.68438e-230)
(-2.37553e-238 0 0 -1.11088e-249 4.75107e-238 0 0 0 -2.37553e-238)
(-6.70111e-246 0 0 -4.35692e-258 1.34022e-245 0 0 0 -6.70111e-246)
(-2.39672e-251 0 0 -1.62006e-266 4.79344e-251 0 0 0 -2.39672e-251)
)
;

boundaryField
{
    inlet
    {
        type            cyclic;
    }
    outlet
    {
        type            cyclic;
    }
    top
    {
        type            extrapolatedCalculated;
        value           uniform (-4.78886e-251 0 0 -1.62189e-266 9.57773e-251 0 0 0 -4.78886e-251);
    }
    bottom
    {
        type            extrapolatedCalculated;
        value           uniform (3.64226e-05 0 0 1.67829e-14 -7.28451e-05 0 0 0 3.64226e-05);
    }
    frontAndBackPlanes
    {
        type            empty;
    }
}


// ************************************************************************* //
