/*--------------------------------*- C++ -*----------------------------------*\
| =========                 |                                                 |
| \\      /  F ield         | OpenFOAM: The Open Source CFD Toolbox           |
|  \\    /   O peration     | Version:  v2006                                 |
|   \\  /    A nd           | Website:  www.openfoam.com                      |
|    \\/     M anipulation  |                                                 |
\*---------------------------------------------------------------------------*/
FoamFile
{
    version     2.0;
    format      ascii;
    class       volTensorField;
    location    "1700";
    object      Taub;
}
// * * * * * * * * * * * * * * * * * * * * * * * * * * * * * * * * * * * * * //

dimensions      [1 -1 -2 0 0 0 0];


internalField   nonuniform List<tensor> 
120
(
(-2.64946e-09 0 0 7.99455e-19 5.29892e-09 0 0 0 -2.64946e-09)
(-2.2385e-09 0 0 8.00428e-19 4.477e-09 0 0 0 -2.2385e-09)
(-2.98836e-09 0 0 7.97245e-19 5.97671e-09 0 0 0 -2.98836e-09)
(-2.71841e-09 0 0 7.95015e-19 5.43683e-09 0 0 0 -2.71841e-09)
(-2.7175e-09 0 0 7.98781e-19 5.435e-09 0 0 0 -2.7175e-09)
(-2.74724e-09 0 0 8.03524e-19 5.49449e-09 0 0 0 -2.74724e-09)
(-2.77687e-09 0 0 7.99051e-19 5.55374e-09 0 0 0 -2.77687e-09)
(-2.80668e-09 0 0 7.95483e-19 5.61336e-09 0 0 0 -2.80668e-09)
(-2.8367e-09 0 0 8.13212e-19 5.67341e-09 0 0 0 -2.8367e-09)
(-2.86695e-09 0 0 8.31854e-19 5.73389e-09 0 0 0 -2.86695e-09)
(-2.89743e-09 0 0 8.41153e-19 5.79486e-09 0 0 0 -2.89743e-09)
(-2.92818e-09 0 0 8.61667e-19 5.85636e-09 0 0 0 -2.92818e-09)
(-2.95923e-09 0 0 8.8309e-19 5.91846e-09 0 0 0 -2.95923e-09)
(-2.99061e-09 0 0 8.95158e-19 5.98122e-09 0 0 0 -2.99061e-09)
(-3.02235e-09 0 0 9.08185e-19 6.04469e-09 0 0 0 -3.02235e-09)
(-3.05447e-09 0 0 9.2209e-19 6.10895e-09 0 0 0 -3.05447e-09)
(-3.08702e-09 0 0 9.36857e-19 6.17403e-09 0 0 0 -3.08702e-09)
(-3.11999e-09 0 0 9.52471e-19 6.23999e-09 0 0 0 -3.11999e-09)
(-3.15344e-09 0 0 9.68913e-19 6.30687e-09 0 0 0 -3.15344e-09)
(-3.18737e-09 0 0 9.86163e-19 6.37475e-09 0 0 0 -3.18737e-09)
(-3.22184e-09 0 0 1.0042e-18 6.44368e-09 0 0 0 -3.22184e-09)
(-3.25686e-09 0 0 1.02299e-18 6.51372e-09 0 0 0 -3.25686e-09)
(-3.29246e-09 0 0 1.0417e-18 6.58492e-09 0 0 0 -3.29246e-09)
(-3.32867e-09 0 0 1.10314e-18 6.65734e-09 0 0 0 -3.32867e-09)
(-3.36549e-09 0 0 1.16525e-18 6.73099e-09 0 0 0 -3.36549e-09)
(-3.40293e-09 0 0 1.18644e-18 6.80585e-09 0 0 0 -3.40293e-09)
(-3.44097e-09 0 0 1.18788e-18 6.88193e-09 0 0 0 -3.44097e-09)
(-3.47962e-09 0 0 1.18988e-18 6.95924e-09 0 0 0 -3.47962e-09)
(-3.51889e-09 0 0 1.21465e-18 7.03778e-09 0 0 0 -3.51889e-09)
(-3.55876e-09 0 0 1.19796e-18 7.11753e-09 0 0 0 -3.55876e-09)
(-3.59922e-09 0 0 1.139e-18 7.19845e-09 0 0 0 -3.59922e-09)
(-3.64026e-09 0 0 1.12297e-18 7.28052e-09 0 0 0 -3.64026e-09)
(-3.68183e-09 0 0 1.14879e-18 7.36366e-09 0 0 0 -3.68183e-09)
(-3.72389e-09 0 0 1.17366e-18 7.44779e-09 0 0 0 -3.72389e-09)
(-3.76641e-09 0 0 1.19723e-18 7.53281e-09 0 0 0 -3.76641e-09)
(-3.80935e-09 -5.46674e-23 0 1.26258e-18 7.6187e-09 0 0 0 -3.80935e-09)
(-3.8527e-09 0 0 1.37273e-18 7.7054e-09 0 0 0 -3.8527e-09)
(-3.89644e-09 0 0 1.39468e-18 7.79289e-09 0 0 0 -3.89644e-09)
(-3.94057e-09 0 0 1.42137e-18 7.88114e-09 0 0 0 -3.94057e-09)
(-3.98509e-09 0 0 1.40379e-18 7.97018e-09 0 0 0 -3.98509e-09)
(-4.02999e-09 0 0 1.38633e-18 8.05998e-09 0 0 0 -4.02999e-09)
(-4.07527e-09 0 0 1.41339e-18 8.15055e-09 0 0 0 -4.07527e-09)
(-4.12096e-09 0 0 1.39294e-18 8.24192e-09 0 0 0 -4.12096e-09)
(-4.1671e-09 0 0 1.41543e-18 8.3342e-09 0 0 0 -4.1671e-09)
(-4.21377e-09 0 0 1.48356e-18 8.42754e-09 0 0 0 -4.21377e-09)
(-4.26103e-09 0 0 1.46238e-18 8.52206e-09 0 0 0 -4.26103e-09)
(-4.30897e-09 0 0 1.39826e-18 8.61795e-09 0 0 0 -4.30897e-09)
(-4.35768e-09 0 0 1.37469e-18 8.71537e-09 0 0 0 -4.35768e-09)
(-4.40722e-09 0 0 1.43517e-18 8.81444e-09 0 0 0 -4.40722e-09)
(-4.45762e-09 0 0 1.53886e-18 8.91524e-09 0 0 0 -4.45762e-09)
(-4.50893e-09 0 0 1.5499e-18 9.01787e-09 0 0 0 -4.50893e-09)
(-4.56121e-09 0 0 1.56386e-18 9.12243e-09 0 0 0 -4.56121e-09)
(-4.61451e-09 0 0 1.57628e-18 9.22902e-09 0 0 0 -4.61451e-09)
(-4.66885e-09 0 0 1.58448e-18 9.3377e-09 0 0 0 -4.66885e-09)
(-4.72427e-09 0 0 1.63625e-18 9.44853e-09 0 0 0 -4.72427e-09)
(-4.78082e-09 0 0 1.68619e-18 9.56164e-09 0 0 0 -4.78082e-09)
(-4.83856e-09 0 0 1.68892e-18 9.67711e-09 0 0 0 -4.83856e-09)
(-4.89757e-09 0 0 1.69796e-18 9.79515e-09 0 0 0 -4.89757e-09)
(-4.95807e-09 0 0 1.61329e-18 9.91614e-09 0 0 0 -4.95807e-09)
(-5.0204e-09 0 0 1.52647e-18 1.00408e-08 0 0 0 -5.0204e-09)
(-5.08506e-09 0 0 1.52907e-18 1.01701e-08 0 0 0 -5.08506e-09)
(-5.15271e-09 0 0 1.52371e-18 1.03054e-08 0 0 0 -5.15271e-09)
(-5.22418e-09 0 0 1.51605e-18 1.04484e-08 0 0 0 -5.22418e-09)
(-5.30049e-09 0 0 1.51259e-18 1.0601e-08 0 0 0 -5.30049e-09)
(-5.3827e-09 0 0 1.40674e-18 1.07654e-08 0 0 0 -5.3827e-09)
(-5.47191e-09 0 0 1.39204e-18 1.09438e-08 0 0 0 -5.47191e-09)
(-5.56912e-09 0 0 1.46812e-18 1.11382e-08 0 0 0 -5.56912e-09)
(-5.67511e-09 0 0 1.44165e-18 1.13502e-08 0 0 0 -5.67511e-09)
(-5.79016e-09 0 0 1.4195e-18 1.15803e-08 0 0 0 -5.79016e-09)
(-5.91386e-09 0 0 1.40255e-18 1.18277e-08 0 0 0 -5.91386e-09)
(-6.0449e-09 0 0 1.2882e-18 1.20898e-08 0 0 0 -6.0449e-09)
(-6.18104e-09 0 0 1.17153e-18 1.23621e-08 0 0 0 -6.18104e-09)
(-6.31911e-09 0 0 1.14754e-18 1.26382e-08 0 0 0 -6.31911e-09)
(-6.45554e-09 0 0 1.11373e-18 1.29111e-08 0 0 0 -6.45554e-09)
(-6.58742e-09 0 0 1.07768e-18 1.31748e-08 0 0 0 -6.58742e-09)
(-6.71427e-09 0 0 1.03952e-18 1.34285e-08 0 0 0 -6.71427e-09)
(-6.84065e-09 0 0 9.99325e-19 1.36813e-08 0 0 0 -6.84065e-09)
(-6.97964e-09 0 0 9.57187e-19 1.39593e-08 0 0 0 -6.97964e-09)
(-7.1566e-09 0 0 9.13208e-19 1.43132e-08 0 0 0 -7.1566e-09)
(-7.41099e-09 0 0 8.67497e-19 1.4822e-08 0 0 0 -7.41099e-09)
(-7.79728e-09 0 0 8.20171e-19 1.55946e-08 0 0 0 -7.79728e-09)
(-8.39566e-09 0 0 7.71355e-19 1.67913e-08 0 0 0 -8.39566e-09)
(-9.30414e-09 0 0 7.21179e-19 1.86083e-08 0 0 0 -9.30414e-09)
(-1.04319e-08 0 0 6.6988e-19 2.08638e-08 0 0 0 -1.04319e-08)
(-1.13209e-08 0 0 6.39467e-19 2.26419e-08 0 0 0 -1.13209e-08)
(-1.33919e-08 0 0 4.06786e-19 2.67838e-08 0 0 0 -1.33919e-08)
(-2.35369e-08 0 0 1.73598e-19 4.70738e-08 0 0 0 -2.35369e-08)
(-2.35798e-08 0 0 1.41058e-19 4.71596e-08 0 0 0 -2.35798e-08)
(2.56054e-07 0 0 8.61322e-20 -5.12109e-07 0 0 0 2.56054e-07)
(-4.16266e-06 0 0 3.29331e-20 8.32531e-06 0 0 0 -4.16266e-06)
(-6.15683e-05 0 0 -3.3083e-19 0.000123137 0 0 0 -6.15683e-05)
(-2.73719e-05 0 0 -5.26212e-19 5.47438e-05 0 0 0 -2.73719e-05)
(3.22379e-05 0 0 -7.05635e-19 -6.44757e-05 0 0 0 3.22379e-05)
(3.1084e-05 0 0 -7.28587e-19 -6.2168e-05 0 0 0 3.1084e-05)
(-9.09881e-07 0 0 -7.6138e-19 1.81976e-06 0 0 0 -9.09881e-07)
(-2.54998e-06 0 0 -8.02407e-19 5.09996e-06 0 0 0 -2.54998e-06)
(-3.39907e-08 0 0 -8.47864e-19 6.79814e-08 0 0 0 -3.39907e-08)
(2.01899e-07 0 0 -8.97598e-19 -4.03798e-07 0 0 0 2.01899e-07)
(1.24203e-08 0 0 -9.5179e-19 -2.48405e-08 0 0 0 1.24203e-08)
(-1.57802e-08 0 0 -1.01032e-18 3.15605e-08 0 0 0 -1.57802e-08)
(-1.69063e-09 0 0 -1.07271e-18 3.38126e-09 0 0 0 -1.69063e-09)
(1.18665e-09 0 0 -1.1383e-18 -2.37329e-09 0 0 0 1.18665e-09)
(1.94188e-10 0 0 -1.20638e-18 -3.88376e-10 0 0 0 1.94188e-10)
(-8.70433e-11 0 0 -1.27619e-18 1.74087e-10 0 0 0 -8.70433e-11)
(-1.91393e-11 0 0 -1.347e-18 3.82786e-11 0 0 0 -1.91393e-11)
(6.2216e-12 0 0 -1.41805e-18 -1.24432e-11 0 0 0 6.2216e-12)
(1.67223e-12 0 0 -1.48857e-18 -3.34446e-12 0 0 0 1.67223e-12)
(-5.03944e-13 0 0 -1.55783e-18 1.00789e-12 0 0 0 -5.03944e-13)
(-2.15153e-13 0 0 -1.6251e-18 4.30305e-13 0 0 0 -2.15153e-13)
(-5.5389e-14 0 0 -1.68965e-18 1.10778e-13 0 0 0 -5.5389e-14)
(-1.13906e-13 0 0 -1.7508e-18 2.27813e-13 0 0 0 -1.13906e-13)
(-1.20662e-13 0 0 -1.80789e-18 2.41323e-13 0 0 0 -1.20662e-13)
(-1.13509e-13 0 0 -1.86031e-18 2.27018e-13 0 0 0 -1.13509e-13)
(-9.74852e-14 0 0 -1.90749e-18 1.9497e-13 0 0 0 -9.74852e-14)
(-8.2539e-14 0 0 -1.94893e-18 1.65078e-13 0 0 0 -8.2539e-14)
(-6.12071e-14 0 0 -1.98417e-18 1.22414e-13 0 0 0 -6.12071e-14)
(-7.13026e-14 0 0 -2.01284e-18 1.42605e-13 0 0 0 -7.13026e-14)
(-1.23622e-13 0 0 -2.03461e-18 2.47243e-13 0 0 0 -1.23622e-13)
(-3.18927e-13 0 0 -2.04927e-18 6.37854e-13 0 0 0 -3.18927e-13)
(-5.85787e-14 0 0 -2.05717e-18 1.17157e-13 0 0 0 -5.85787e-14)
)
;

boundaryField
{
    inlet
    {
        type            cyclic;
    }
    outlet
    {
        type            cyclic;
    }
    top
    {
        type            extrapolatedCalculated;
        value           uniform (3.72011e-13 0 0 -2.05956e-18 -7.44022e-13 0 0 0 3.72011e-13);
    }
    bottom
    {
        type            extrapolatedCalculated;
        value           uniform (-4.06437e-09 0 0 7.99151e-19 8.12873e-09 0 0 0 -4.06437e-09);
    }
    frontAndBackPlanes
    {
        type            empty;
    }
}


// ************************************************************************* //
