/*--------------------------------*- C++ -*----------------------------------*\
| =========                 |                                                 |
| \\      /  F ield         | OpenFOAM: The Open Source CFD Toolbox           |
|  \\    /   O peration     | Version:  v2006                                 |
|   \\  /    A nd           | Website:  www.openfoam.com                      |
|    \\/     M anipulation  |                                                 |
\*---------------------------------------------------------------------------*/
FoamFile
{
    version     2.0;
    format      ascii;
    class       volVectorField;
    location    "1700";
    object      Ua;
}
// * * * * * * * * * * * * * * * * * * * * * * * * * * * * * * * * * * * * * //

dimensions      [0 1 -1 0 0 0 0];


internalField   nonuniform List<vector> 
120
(
(3.99592e-21 -2.60161e-11 0)
(1.19938e-20 -7.82503e-11 0)
(2.00061e-20 -1.31141e-10 0)
(2.79409e-20 -1.84675e-10 0)
(3.59091e-20 -2.38813e-10 0)
(4.39201e-20 -2.93558e-10 0)
(5.19836e-20 -3.4892e-10 0)
(5.99064e-20 -4.04903e-10 0)
(6.79005e-20 -4.61513e-10 0)
(7.61776e-20 -5.18754e-10 0)
(8.45447e-20 -5.76632e-10 0)
(9.3011e-20 -6.35153e-10 0)
(1.01788e-19 -6.94325e-10 0)
(1.10683e-19 -7.54153e-10 0)
(1.19704e-19 -8.14647e-10 0)
(1.2886e-19 -8.75815e-10 0)
(1.3816e-19 -9.37666e-10 0)
(1.47613e-19 -1.00021e-09 0)
(1.57227e-19 -1.06346e-09 0)
(1.6701e-19 -1.12742e-09 0)
(1.7697e-19 -1.19211e-09 0)
(1.87116e-19 -1.25753e-09 0)
(1.97454e-19 -1.32371e-09 0)
(2.07991e-19 -1.39065e-09 0)
(2.19545e-19 -1.45837e-09 0)
(2.31311e-19 -1.52689e-09 0)
(2.43297e-19 -1.59621e-09 0)
(2.55103e-19 -1.66635e-09 0)
(2.6714e-19 -1.73733e-09 0)
(2.79413e-19 -1.80916e-09 0)
(2.91116e-19 -1.88185e-09 0)
(3.02255e-19 -1.95542e-09 0)
(3.1364e-19 -2.02988e-09 0)
(3.25274e-19 -2.10525e-09 0)
(3.37159e-19 -2.18154e-09 0)
(3.49296e-19 -2.25875e-09 0)
(3.62493e-19 -2.33691e-09 0)
(3.7675e-19 -2.41601e-09 0)
(3.90451e-19 -2.49608e-09 0)
(4.05208e-19 -2.57712e-09 0)
(4.18597e-19 -2.65914e-09 0)
(4.33035e-19 -2.74216e-09 0)
(4.46904e-19 -2.82618e-09 0)
(4.61004e-19 -2.91122e-09 0)
(4.75329e-19 -2.9973e-09 0)
(4.90679e-19 -3.08442e-09 0)
(5.04623e-19 -3.17262e-09 0)
(5.18767e-19 -3.26189e-09 0)
(5.32292e-19 -3.35228e-09 0)
(5.47606e-19 -3.44379e-09 0)
(5.63083e-19 -3.53646e-09 0)
(5.7871e-19 -3.63031e-09 0)
(5.94471e-19 -3.72537e-09 0)
(6.1035e-19 -3.82167e-09 0)
(6.26332e-19 -3.91923e-09 0)
(6.43202e-19 -4.01809e-09 0)
(6.60138e-19 -4.11828e-09 0)
(6.77119e-19 -4.21984e-09 0)
(6.94125e-19 -4.32279e-09 0)
(7.09525e-19 -4.42719e-09 0)
(7.24907e-19 -4.53309e-09 0)
(7.40249e-19 -4.64056e-09 0)
(7.55527e-19 -4.74968e-09 0)
(7.70719e-19 -4.86055e-09 0)
(7.85799e-19 -4.97329e-09 0)
(7.99138e-19 -5.08807e-09 0)
(8.13924e-19 -5.20507e-09 0)
(8.28527e-19 -5.32448e-09 0)
(8.42922e-19 -5.44654e-09 0)
(8.57085e-19 -5.57146e-09 0)
(8.70991e-19 -5.69947e-09 0)
(8.83012e-19 -5.83075e-09 0)
(8.94729e-19 -5.96545e-09 0)
(9.06119e-19 -6.10364e-09 0)
(9.17159e-19 -6.2453e-09 0)
(9.27829e-19 -6.39038e-09 0)
(9.38106e-19 -6.53884e-09 0)
(9.47971e-19 -6.69079e-09 0)
(9.57405e-19 -6.84668e-09 0)
(9.66389e-19 -7.00767e-09 0)
(9.74907e-19 -7.17603e-09 0)
(9.82943e-19 -7.35555e-09 0)
(9.90482e-19 -7.55098e-09 0)
(9.97512e-19 -7.76782e-09 0)
(1.00402e-18 -8.0226e-09 0)
(1.01e-18 -8.35035e-09 0)
(1.01225e-18 -8.67588e-09 0)
(1.01396e-18 -8.61936e-09 0)
(1.01512e-18 -9.04714e-09 0)
(1.01571e-18 -1.52888e-08 0)
(1.01594e-18 -3.04043e-08 0)
(1.00732e-18 -9.37719e-05 0)
(9.89926e-19 -0.000162632 0)
(9.72026e-19 -0.000195773 0)
(9.53458e-19 -0.000228655 0)
(9.33936e-19 -0.000228546 0)
(9.13332e-19 -0.000228515 0)
(8.91537e-19 -0.000228544 0)
(8.68446e-19 -0.000228548 0)
(8.43942e-19 -0.000228546 0)
(8.17924e-19 -0.000228546 0)
(7.90299e-19 -0.000228546 0)
(7.61002e-19 -0.000228546 0)
(7.29972e-19 -0.000228546 0)
(6.97184e-19 -0.000228546 0)
(6.62612e-19 -0.000228546 0)
(6.26271e-19 -0.000228546 0)
(5.88175e-19 -0.000228546 0)
(5.48369e-19 -0.000228546 0)
(5.06913e-19 -0.000228546 0)
(4.63875e-19 -0.000228546 0)
(4.19357e-19 -0.000228546 0)
(3.73472e-19 -0.000228546 0)
(3.26332e-19 -0.000228546 0)
(2.78083e-19 -0.000228546 0)
(2.28873e-19 -0.000228546 0)
(1.78862e-19 -0.000228546 0)
(1.28218e-19 -0.000228518 0)
(7.71181e-20 -0.000228481 0)
(2.57448e-20 -0.000228045 0)
)
;

boundaryField
{
    inlet
    {
        type            cyclic;
    }
    outlet
    {
        type            cyclic;
    }
    top
    {
        type            fixedValue;
        value           uniform (0 0 0);
    }
    bottom
    {
        type            fixedValue;
        value           uniform (0 0 0);
    }
    frontAndBackPlanes
    {
        type            empty;
    }
}


// ************************************************************************* //
