/*--------------------------------*- C++ -*----------------------------------*\
| =========                 |                                                 |
| \\      /  F ield         | OpenFOAM: The Open Source CFD Toolbox           |
|  \\    /   O peration     | Version:  v2006                                 |
|   \\  /    A nd           | Website:  www.openfoam.com                      |
|    \\/     M anipulation  |                                                 |
\*---------------------------------------------------------------------------*/
FoamFile
{
    version     2.0;
    format      ascii;
    class       volVectorField;
    location    "1700";
    object      Ub;
}
// * * * * * * * * * * * * * * * * * * * * * * * * * * * * * * * * * * * * * //

dimensions      [0 1 -1 0 0 0 0];


internalField   nonuniform List<vector> 
120
(
(3.99592e-21 6.0968e-11 0)
(1.19938e-20 9.80062e-11 0)
(2.00059e-20 1.9529e-10 0)
(2.79409e-20 2.77332e-10 0)
(3.59091e-20 3.58424e-10 0)
(4.39201e-20 4.40419e-10 0)
(5.1984e-20 5.23305e-10 0)
(5.99064e-20 6.07086e-10 0)
(6.78997e-20 6.91769e-10 0)
(7.61776e-20 7.77361e-10 0)
(8.45447e-20 8.63868e-10 0)
(9.30096e-20 9.51299e-10 0)
(1.01788e-19 1.03966e-09 0)
(1.10683e-19 1.12897e-09 0)
(1.19704e-19 1.21922e-09 0)
(1.2886e-19 1.31044e-09 0)
(1.3816e-19 1.40264e-09 0)
(1.47613e-19 1.49582e-09 0)
(1.57227e-19 1.59001e-09 0)
(1.6701e-19 1.68521e-09 0)
(1.7697e-19 1.78145e-09 0)
(1.87116e-19 1.87873e-09 0)
(1.97454e-19 1.97708e-09 0)
(2.07975e-19 2.07652e-09 0)
(2.19545e-19 2.17706e-09 0)
(2.31311e-19 2.27872e-09 0)
(2.43307e-19 2.38152e-09 0)
(2.55103e-19 2.48548e-09 0)
(2.67141e-19 2.59061e-09 0)
(2.79435e-19 2.69695e-09 0)
(2.9114e-19 2.80449e-09 0)
(3.02255e-19 2.91327e-09 0)
(3.1364e-19 3.0233e-09 0)
(3.25274e-19 3.1346e-09 0)
(3.37158e-19 3.24717e-09 0)
(3.49267e-19 3.36104e-09 0)
(3.62463e-19 3.47621e-09 0)
(3.76781e-19 3.5927e-09 0)
(3.90419e-19 3.71052e-09 0)
(4.05275e-19 3.82969e-09 0)
(4.18563e-19 3.95021e-09 0)
(4.33071e-19 4.07209e-09 0)
(4.46904e-19 4.19535e-09 0)
(4.61004e-19 4.32001e-09 0)
(4.7529e-19 4.44607e-09 0)
(4.90759e-19 4.57355e-09 0)
(5.04624e-19 4.70248e-09 0)
(5.18809e-19 4.83288e-09 0)
(5.32203e-19 4.96476e-09 0)
(5.47605e-19 5.09816e-09 0)
(5.63083e-19 5.23311e-09 0)
(5.7871e-19 5.36963e-09 0)
(5.94471e-19 5.50775e-09 0)
(6.1035e-19 5.64751e-09 0)
(6.26279e-19 5.78893e-09 0)
(6.43202e-19 5.93206e-09 0)
(6.60138e-19 6.07693e-09 0)
(6.77119e-19 6.22357e-09 0)
(6.94241e-19 6.37202e-09 0)
(7.09526e-19 6.52235e-09 0)
(7.24907e-19 6.6746e-09 0)
(7.40249e-19 6.82887e-09 0)
(7.55527e-19 6.98524e-09 0)
(7.70719e-19 7.14386e-09 0)
(7.85933e-19 7.30489e-09 0)
(7.99001e-19 7.46851e-09 0)
(8.13924e-19 7.63497e-09 0)
(8.28527e-19 7.80452e-09 0)
(8.42922e-19 7.97743e-09 0)
(8.57086e-19 8.15399e-09 0)
(8.71145e-19 8.33444e-09 0)
(8.83013e-19 8.51898e-09 0)
(8.94729e-19 8.70773e-09 0)
(9.06119e-19 8.90069e-09 0)
(9.17159e-19 9.09777e-09 0)
(9.27829e-19 9.2988e-09 0)
(9.38106e-19 9.50365e-09 0)
(9.47971e-19 9.71244e-09 0)
(9.57405e-19 9.92583e-09 0)
(9.66389e-19 1.01455e-08 0)
(9.74907e-19 1.03744e-08 0)
(9.82943e-19 1.06176e-08 0)
(9.90482e-19 1.0883e-08 0)
(9.97512e-19 1.11815e-08 0)
(1.00402e-18 1.15155e-08 0)
(1.01044e-18 1.18683e-08 0)
(1.01225e-18 1.23286e-08 0)
(1.01396e-18 1.32986e-08 0)
(1.01512e-18 1.37631e-08 0)
(1.01571e-18 -2.30224e-09 0)
(1.01579e-18 2.68077e-07 0)
(1.0073e-18 4.69591e-06 0)
(9.89893e-19 4.30873e-06 0)
(9.72012e-19 -1.39962e-07 0)
(9.53459e-19 -3.54458e-07 0)
(9.33938e-19 -3.46321e-09 0)
(9.13333e-19 2.8087e-08 0)
(8.9154e-19 1.63603e-09 0)
(8.68448e-19 -2.20161e-09 0)
(8.43944e-19 -2.27238e-10 0)
(8.17925e-19 1.65727e-10 0)
(7.90302e-19 2.63881e-11 0)
(7.61003e-19 -1.22919e-11 0)
(7.29976e-19 -2.74375e-12 0)
(6.97186e-19 7.66253e-13 0)
(6.62617e-19 1.275e-13 0)
(6.26274e-19 -1.67104e-13 0)
(5.88179e-19 -1.23366e-13 0)
(5.48373e-19 -9.15034e-14 0)
(5.06914e-19 -9.10886e-14 0)
(4.6388e-19 -8.3194e-14 0)
(4.19364e-19 -7.40005e-14 0)
(3.73474e-19 -6.50925e-14 0)
(3.26337e-19 -5.6972e-14 0)
(2.78088e-19 -5.04679e-14 0)
(2.28878e-19 -4.45896e-14 0)
(1.78867e-19 -4.12856e-14 0)
(1.28224e-19 -3.38929e-14 0)
(7.71238e-20 -2.27401e-14 0)
(2.57477e-20 1.39522e-14 0)
)
;

boundaryField
{
    inlet
    {
        type            cyclic;
    }
    outlet
    {
        type            cyclic;
    }
    top
    {
        type            fixedValue;
        value           uniform (0 0 0);
    }
    bottom
    {
        type            fixedValue;
        value           uniform (0 0 0);
    }
    frontAndBackPlanes
    {
        type            empty;
    }
}


// ************************************************************************* //
