/*--------------------------------*- C++ -*----------------------------------*\
| =========                 |                                                 |
| \\      /  F ield         | OpenFOAM: The Open Source CFD Toolbox           |
|  \\    /   O peration     | Version:  2206                                  |
|   \\  /    A nd           | Website:  www.openfoam.com                      |
|    \\/     M anipulation  |                                                 |
\*---------------------------------------------------------------------------*/
FoamFile
{
    version     2.0;
    format      ascii;
    arch        "LSB;label=32;scalar=64";
    class       volScalarField;
    location    "1640";
    object      nuFra;
}
// * * * * * * * * * * * * * * * * * * * * * * * * * * * * * * * * * * * * * //

dimensions      [0 2 -1 0 0 0 0];

internalField   nonuniform List<scalar> 
120
(
1
1
1
1
1
1
1
1
1
1
1
1
1
1
1
1
1
1
1
1
1
1
1
1
1
1
1
1
1
1
1
1
1
1
1
1
1
1
1
1
1
1
1
1
1
1
1
1
1
1
1
1
1
1
1
1
1
1
1
1
1
1
1
1
1
1
1
1
1
1
1
1
1
1
1
1
1
1
1
1
1
1
1
1
1
1
1
1
1
1
4.52346e-07
3.20891e-07
1.48478e-09
1.02146e-09
2.7406e-09
1.43271e-08
6.88885e-08
2.46704e-07
6.6529e-07
1.45144e-06
2.79745e-06
5.17267e-06
9.7627e-06
1.94047e-05
4.01928e-05
8.12478e-05
0.000144112
0.000210638
0.00026218
0.000293866
0.000304761
0.00029404
0.000261222
0.000202638
0.000117139
4.1432e-05
8.51493e-06
9.91173e-07
5.3585e-08
4.77427e-10
)
;

boundaryField
{
    inlet
    {
        type            cyclic;
    }
    outlet
    {
        type            cyclic;
    }
    top
    {
        type            calculated;
        value           uniform 2.40754e-10;
    }
    bottom
    {
        type            calculated;
        value           uniform 1;
    }
    frontAndBackPlanes
    {
        type            empty;
    }
}


// ************************************************************************* //
