/*--------------------------------*- C++ -*----------------------------------*\
| =========                 |                                                 |
| \\      /  F ield         | OpenFOAM: The Open Source CFD Toolbox           |
|  \\    /   O peration     | Version:  2206                                  |
|   \\  /    A nd           | Website:  www.openfoam.com                      |
|    \\/     M anipulation  |                                                 |
\*---------------------------------------------------------------------------*/
FoamFile
{
    version     2.0;
    format      ascii;
    arch        "LSB;label=32;scalar=64";
    class       volScalarField;
    location    "1640";
    object      pff;
}
// * * * * * * * * * * * * * * * * * * * * * * * * * * * * * * * * * * * * * //

dimensions      [1 -1 -2 0 0 0 0];

internalField   nonuniform List<scalar> 
120
(
26.3797
25.8462
25.8467
25.2691
25.2523
24.6866
24.6581
24.1043
24.064
23.5222
23.47
22.9403
22.8761
22.3586
22.2824
21.7771
21.6888
21.1958
21.0954
20.6146
20.5022
20.0336
19.9092
19.4527
19.3165
18.872
18.7241
18.2914
18.1319
17.7108
17.5402
17.1303
16.9488
16.5499
16.3578
15.9694
15.7672
15.389
15.1771
14.8085
14.5875
14.228
13.9984
13.6474
13.4099
13.0668
12.8218
12.4861
12.2344
11.9053
11.6475
11.3245
11.0612
10.7436
10.4755
10.1627
9.89032
9.58175
9.30574
9.00082
8.72172
8.41995
8.13828
7.83917
7.55543
7.25855
6.97316
6.67813
6.3915
6.09798
5.81047
5.51814
5.23013
4.93865
4.65056
4.35949
4.07192
3.78059
3.49448
3.20171
2.91873
2.62238
2.3455
2.04176
1.77611
1.45868
1.21209
0.872666
0.652278
0.276663
0
0
0
0
0
0
0
0
0
0
0
0
0
0
0
0
0
0
0
0
0
0
0
0
0
0
0
0
0
0
)
;

boundaryField
{
    inlet
    {
        type            cyclic;
    }
    outlet
    {
        type            cyclic;
    }
    top
    {
        type            calculated;
        value           uniform 0;
    }
    bottom
    {
        type            calculated;
        value           uniform 26.3797;
    }
    frontAndBackPlanes
    {
        type            empty;
    }
}


// ************************************************************************* //
