/*--------------------------------*- C++ -*----------------------------------*\
| =========                 |                                                 |
| \\      /  F ield         | OpenFOAM: The Open Source CFD Toolbox           |
|  \\    /   O peration     | Version:  2206                                  |
|   \\  /    A nd           | Website:  www.openfoam.com                      |
|    \\/     M anipulation  |                                                 |
\*---------------------------------------------------------------------------*/
FoamFile
{
    version     2.0;
    format      ascii;
    arch        "LSB;label=32;scalar=64";
    class       surfaceScalarField;
    location    "1640";
    object      phi.b;
}
// * * * * * * * * * * * * * * * * * * * * * * * * * * * * * * * * * * * * * //

dimensions      [0 3 -1 0 0 0 0];

oriented        oriented;

internalField   nonuniform List<scalar> 
119
(
6.09009e-17
1.2333e-16
1.85441e-16
2.49351e-16
3.12889e-16
3.78395e-16
4.43492e-16
5.10652e-16
5.77463e-16
6.46332e-16
7.15017e-16
7.85659e-16
8.56379e-16
9.28847e-16
1.00177e-15
1.07614e-15
1.15144e-15
1.22777e-15
1.30561e-15
1.38395e-15
1.46448e-15
1.5449e-15
1.62825e-15
1.7108e-15
1.79707e-15
1.88178e-15
1.97105e-15
2.05795e-15
2.15025e-15
2.23931e-15
2.33463e-15
2.42581e-15
2.52406e-15
2.61729e-15
2.71834e-15
2.8135e-15
2.91713e-15
3.01403e-15
3.11997e-15
3.21837e-15
3.32626e-15
3.42587e-15
3.53526e-15
3.63574e-15
3.74614e-15
3.84708e-15
3.95795e-15
4.05893e-15
4.16969e-15
4.27028e-15
4.38039e-15
4.48019e-15
4.58915e-15
4.68784e-15
4.79527e-15
4.89268e-15
4.99837e-15
5.09451e-15
5.19849e-15
5.29364e-15
5.39624e-15
5.49098e-15
5.59292e-15
5.68819e-15
5.79055e-15
5.88762e-15
5.9919e-15
6.09232e-15
6.20038e-15
6.30585e-15
6.41983e-15
6.53189e-15
6.65412e-15
6.77382e-15
6.90678e-15
7.03418e-15
7.1806e-15
7.3141e-15
7.47731e-15
7.61304e-15
7.79752e-15
7.92889e-15
8.1403e-15
8.25993e-15
8.50021e-15
8.61524e-15
8.84972e-15
9.07582e-15
9.04552e-15
1.3732e-14
2.45711e-14
1.87626e-17
2.91111e-17
3.5242e-21
-5.29102e-21
-7.7068e-21
1.77529e-21
9.96246e-21
3.74315e-21
-1.35941e-21
5.0641e-21
2.08012e-21
-1.05513e-20
-5.31408e-21
1.91576e-21
-5.54048e-21
1.23168e-21
6.83551e-21
-2.45784e-21
6.28847e-21
1.65593e-21
-1.02568e-20
2.54137e-21
-1.63701e-21
-2.66766e-21
-2.00481e-21
7.0181e-21
-2.72564e-21
7.09841e-21
)
;

boundaryField
{
    inlet
    {
        type            cyclic;
        value           nonuniform List<scalar> 
120
(
-4.06261e-27
-1.21942e-26
-2.03409e-26
-2.85122e-26
-3.67185e-26
-4.49695e-26
-5.3276e-26
-6.16454e-26
-7.0089e-26
-7.86191e-26
-8.72422e-26
-9.59675e-26
-1.04809e-25
-1.13773e-25
-1.22869e-25
-1.32107e-25
-1.41497e-25
-1.51047e-25
-1.60767e-25
-1.70665e-25
-1.8075e-25
-1.9103e-25
-2.01515e-25
-2.12197e-25
-2.23125e-25
-2.34266e-25
-2.45648e-25
-2.57253e-25
-2.69111e-25
-2.81237e-25
-2.93601e-25
-3.06204e-25
-3.19088e-25
-3.32237e-25
-3.45654e-25
-3.59314e-25
-3.72932e-25
-3.86864e-25
-4.00966e-25
-4.15454e-25
-4.30048e-25
-4.45025e-25
-4.60169e-25
-4.75579e-25
-4.9119e-25
-5.07141e-25
-5.23148e-25
-5.39443e-25
-5.55788e-25
-5.72462e-25
-5.8922e-25
-6.06105e-25
-6.23098e-25
-6.40178e-25
-6.57285e-25
-6.74507e-25
-6.91704e-25
-7.08884e-25
-7.26109e-25
-7.43284e-25
-7.60443e-25
-7.77466e-25
-7.94323e-25
-8.10983e-25
-8.27502e-25
-8.43476e-25
-8.59431e-25
-8.74958e-25
-8.90116e-25
-9.0487e-25
-9.19289e-25
-9.33028e-25
-9.46365e-25
-9.59164e-25
-9.71395e-25
-9.83027e-25
-9.94031e-25
-1.00438e-24
-1.01404e-24
-1.023e-24
-1.03123e-24
-1.0387e-24
-1.0454e-24
-1.05132e-24
-1.05643e-24
-1.06099e-24
-1.06417e-24
-1.06678e-24
-1.06854e-24
-1.06945e-24
-1.06961e-24
-1.05893e-24
-1.03561e-24
-1.01163e-24
-9.86907e-25
-9.61365e-25
-9.3492e-25
-9.07496e-25
-8.79026e-25
-8.49451e-25
-8.1872e-25
-7.86791e-25
-7.53633e-25
-7.19225e-25
-6.83557e-25
-6.4663e-25
-6.08457e-25
-5.69063e-25
-5.28484e-25
-4.86766e-25
-4.43968e-25
-4.00157e-25
-3.55412e-25
-3.09819e-25
-2.63474e-25
-2.16481e-25
-1.68946e-25
-1.20987e-25
-7.27193e-26
-2.42665e-26
)
;
    }
    outlet
    {
        type            cyclic;
        value           nonuniform List<scalar> 
120
(
4.06261e-27
1.21942e-26
2.03409e-26
2.85122e-26
3.67185e-26
4.49695e-26
5.3276e-26
6.16454e-26
7.0089e-26
7.86191e-26
8.72422e-26
9.59675e-26
1.04809e-25
1.13773e-25
1.22869e-25
1.32107e-25
1.41497e-25
1.51047e-25
1.60767e-25
1.70665e-25
1.8075e-25
1.9103e-25
2.01515e-25
2.12197e-25
2.23125e-25
2.34266e-25
2.45648e-25
2.57253e-25
2.69111e-25
2.81237e-25
2.93601e-25
3.06204e-25
3.19088e-25
3.32237e-25
3.45654e-25
3.59314e-25
3.72932e-25
3.86864e-25
4.00966e-25
4.15454e-25
4.30048e-25
4.45025e-25
4.60169e-25
4.75579e-25
4.9119e-25
5.07141e-25
5.23148e-25
5.39443e-25
5.55788e-25
5.72462e-25
5.8922e-25
6.06105e-25
6.23098e-25
6.40178e-25
6.57285e-25
6.74507e-25
6.91704e-25
7.08884e-25
7.26109e-25
7.43284e-25
7.60443e-25
7.77466e-25
7.94323e-25
8.10983e-25
8.27502e-25
8.43476e-25
8.59431e-25
8.74958e-25
8.90116e-25
9.0487e-25
9.19289e-25
9.33028e-25
9.46365e-25
9.59164e-25
9.71395e-25
9.83027e-25
9.94031e-25
1.00438e-24
1.01404e-24
1.023e-24
1.03123e-24
1.0387e-24
1.0454e-24
1.05132e-24
1.05643e-24
1.06099e-24
1.06417e-24
1.06678e-24
1.06854e-24
1.06945e-24
1.06961e-24
1.05893e-24
1.03561e-24
1.01163e-24
9.86907e-25
9.61365e-25
9.3492e-25
9.07496e-25
8.79026e-25
8.49451e-25
8.1872e-25
7.86791e-25
7.53633e-25
7.19225e-25
6.83557e-25
6.4663e-25
6.08457e-25
5.69063e-25
5.28484e-25
4.86766e-25
4.43968e-25
4.00157e-25
3.55412e-25
3.09819e-25
2.63474e-25
2.16481e-25
1.68946e-25
1.20987e-25
7.27193e-26
2.42665e-26
)
;
    }
    top
    {
        type            fixedValue;
        value           uniform 0;
    }
    bottom
    {
        type            fixedValue;
        value           uniform 0;
    }
    frontAndBackPlanes
    {
        type            empty;
        value           nonuniform List<scalar> 0();
    }
}


// ************************************************************************* //
