/*--------------------------------*- C++ -*----------------------------------*\
| =========                 |                                                 |
| \\      /  F ield         | OpenFOAM: The Open Source CFD Toolbox           |
|  \\    /   O peration     | Version:  2206                                  |
|   \\  /    A nd           | Website:  www.openfoam.com                      |
|    \\/     M anipulation  |                                                 |
\*---------------------------------------------------------------------------*/
FoamFile
{
    version     2.0;
    format      ascii;
    arch        "LSB;label=32;scalar=64";
    class       surfaceScalarField;
    location    "1640";
    object      phi.a;
}
// * * * * * * * * * * * * * * * * * * * * * * * * * * * * * * * * * * * * * //

dimensions      [0 3 -1 0 0 0 0];

oriented        oriented;

internalField   nonuniform List<scalar> 
119
(
-4.059e-17
-8.22132e-17
-1.23641e-16
-1.66284e-16
-2.08695e-16
-2.5244e-16
-2.9593e-16
-3.40815e-16
-3.85487e-16
-4.31554e-16
-4.77516e-16
-5.24807e-16
-5.72174e-16
-6.20734e-16
-6.69622e-16
-7.19497e-16
-7.70022e-16
-8.21259e-16
-8.73535e-16
-9.26179e-16
-9.80311e-16
-1.03441e-15
-1.09049e-15
-1.14607e-15
-1.20418e-15
-1.26128e-15
-1.32147e-15
-1.38011e-15
-1.44241e-15
-1.50258e-15
-1.56698e-15
-1.62867e-15
-1.69513e-15
-1.75828e-15
-1.82673e-15
-1.89127e-15
-1.96155e-15
-2.02737e-15
-2.09933e-15
-2.16628e-15
-2.23966e-15
-2.30755e-15
-2.38208e-15
-2.45068e-15
-2.52604e-15
-2.5951e-15
-2.67093e-15
-2.74018e-15
-2.8161e-15
-2.88525e-15
-2.96091e-15
-3.02971e-15
-3.10479e-15
-3.17304e-15
-3.24729e-15
-3.31488e-15
-3.38819e-15
-3.45515e-15
-3.52755e-15
-3.59409e-15
-3.66584e-15
-3.73239e-15
-3.80399e-15
-3.87122e-15
-3.94345e-15
-4.01228e-15
-4.08622e-15
-4.15776e-15
-4.23474e-15
-4.31022e-15
-4.39181e-15
-4.4724e-15
-4.56032e-15
-4.6469e-15
-4.74302e-15
-4.83582e-15
-4.94228e-15
-5.0405e-15
-5.15998e-15
-5.26134e-15
-5.39753e-15
-5.49811e-15
-5.65595e-15
-5.75166e-15
-5.93446e-15
-6.0324e-15
-6.2204e-15
-6.40818e-15
-6.43669e-15
-1.45639e-14
-1.02116e-13
-2.17801e-13
-2.63397e-11
-6.43211e-11
-7.84768e-11
-8.11838e-11
-8.17463e-11
-8.19031e-11
-8.19612e-11
-8.19878e-11
-8.20016e-11
-8.2009e-11
-8.2013e-11
-8.2015e-11
-8.20159e-11
-8.20164e-11
-8.20166e-11
-8.20167e-11
-8.20168e-11
-8.20169e-11
-8.20169e-11
-8.20168e-11
-8.20167e-11
-8.20166e-11
-8.20163e-11
-8.20154e-11
-8.20108e-11
-8.19717e-11
-8.12477e-11
)
;

boundaryField
{
    inlet
    {
        type            cyclic;
        value           nonuniform List<scalar> 
120
(
-4.06261e-27
-1.21942e-26
-2.03408e-26
-2.85122e-26
-3.67185e-26
-4.49695e-26
-5.32752e-26
-6.16454e-26
-7.00901e-26
-7.86191e-26
-8.72422e-26
-9.5969e-26
-1.04809e-25
-1.13773e-25
-1.22869e-25
-1.32107e-25
-1.41497e-25
-1.51047e-25
-1.60767e-25
-1.70665e-25
-1.8075e-25
-1.9103e-25
-2.01515e-25
-2.1221e-25
-2.23125e-25
-2.34266e-25
-2.4564e-25
-2.57253e-25
-2.69111e-25
-2.8122e-25
-2.93583e-25
-3.06204e-25
-3.19088e-25
-3.32237e-25
-3.45654e-25
-3.59338e-25
-3.72955e-25
-3.8684e-25
-4.0099e-25
-4.15403e-25
-4.30074e-25
-4.44998e-25
-4.60169e-25
-4.75579e-25
-4.91219e-25
-5.0708e-25
-5.23148e-25
-5.39411e-25
-5.55853e-25
-5.72463e-25
-5.8922e-25
-6.06105e-25
-6.23098e-25
-6.40179e-25
-6.57323e-25
-6.74507e-25
-6.91704e-25
-7.08884e-25
-7.26025e-25
-7.43283e-25
-7.60443e-25
-7.77466e-25
-7.94323e-25
-8.10983e-25
-8.2741e-25
-8.43569e-25
-8.59431e-25
-8.74958e-25
-8.90116e-25
-9.0487e-25
-9.19186e-25
-9.33028e-25
-9.46365e-25
-9.59164e-25
-9.71395e-25
-9.83027e-25
-9.94031e-25
-1.00438e-24
-1.01404e-24
-1.023e-24
-1.03123e-24
-1.0387e-24
-1.0454e-24
-1.05132e-24
-1.05643e-24
-1.06071e-24
-1.06417e-24
-1.06678e-24
-1.06854e-24
-1.06945e-24
-1.0698e-24
-1.06565e-24
-1.06266e-24
-7.48296e-25
-3.9557e-25
-2.46715e-25
-1.98382e-25
-1.80661e-25
-1.72738e-25
-1.68525e-25
-1.66022e-25
-1.64477e-25
-1.63546e-25
-1.63019e-25
-1.62741e-25
-1.62597e-25
-1.62517e-25
-1.62468e-25
-1.62433e-25
-1.62407e-25
-1.62387e-25
-1.62371e-25
-1.62359e-25
-1.62349e-25
-1.62342e-25
-1.62334e-25
-1.62317e-25
-1.62243e-25
-1.61671e-25
-1.5401e-25
)
;
    }
    outlet
    {
        type            cyclic;
        value           nonuniform List<scalar> 
120
(
4.06261e-27
1.21942e-26
2.03408e-26
2.85122e-26
3.67185e-26
4.49695e-26
5.32752e-26
6.16454e-26
7.00901e-26
7.86191e-26
8.72422e-26
9.5969e-26
1.04809e-25
1.13773e-25
1.22869e-25
1.32107e-25
1.41497e-25
1.51047e-25
1.60767e-25
1.70665e-25
1.8075e-25
1.9103e-25
2.01515e-25
2.1221e-25
2.23125e-25
2.34266e-25
2.4564e-25
2.57253e-25
2.69111e-25
2.8122e-25
2.93583e-25
3.06204e-25
3.19088e-25
3.32237e-25
3.45654e-25
3.59338e-25
3.72955e-25
3.8684e-25
4.0099e-25
4.15403e-25
4.30074e-25
4.44998e-25
4.60169e-25
4.75579e-25
4.91219e-25
5.0708e-25
5.23148e-25
5.39411e-25
5.55853e-25
5.72463e-25
5.8922e-25
6.06105e-25
6.23098e-25
6.40179e-25
6.57323e-25
6.74507e-25
6.91704e-25
7.08884e-25
7.26025e-25
7.43283e-25
7.60443e-25
7.77466e-25
7.94323e-25
8.10983e-25
8.2741e-25
8.43569e-25
8.59431e-25
8.74958e-25
8.90116e-25
9.0487e-25
9.19186e-25
9.33028e-25
9.46365e-25
9.59164e-25
9.71395e-25
9.83027e-25
9.94031e-25
1.00438e-24
1.01404e-24
1.023e-24
1.03123e-24
1.0387e-24
1.0454e-24
1.05132e-24
1.05643e-24
1.06071e-24
1.06417e-24
1.06678e-24
1.06854e-24
1.06945e-24
1.0698e-24
1.06565e-24
1.06266e-24
7.48296e-25
3.9557e-25
2.46715e-25
1.98382e-25
1.80661e-25
1.72738e-25
1.68525e-25
1.66022e-25
1.64477e-25
1.63546e-25
1.63019e-25
1.62741e-25
1.62597e-25
1.62517e-25
1.62468e-25
1.62433e-25
1.62407e-25
1.62387e-25
1.62371e-25
1.62359e-25
1.62349e-25
1.62342e-25
1.62334e-25
1.62317e-25
1.62243e-25
1.61671e-25
1.5401e-25
)
;
    }
    top
    {
        type            fixedValue;
        value           uniform 0;
    }
    bottom
    {
        type            fixedValue;
        value           uniform 0;
    }
    frontAndBackPlanes
    {
        type            empty;
        value           nonuniform List<scalar> 0();
    }
}


// ************************************************************************* //
