/*--------------------------------*- C++ -*----------------------------------*\
| =========                 |                                                 |
| \\      /  F ield         | OpenFOAM: The Open Source CFD Toolbox           |
|  \\    /   O peration     | Version:  2206                                  |
|   \\  /    A nd           | Website:  www.openfoam.com                      |
|    \\/     M anipulation  |                                                 |
\*---------------------------------------------------------------------------*/
FoamFile
{
    version     2.0;
    format      ascii;
    arch        "LSB;label=32;scalar=64";
    class       volVectorField;
    location    "1640";
    object      U.a;
}
// * * * * * * * * * * * * * * * * * * * * * * * * * * * * * * * * * * * * * //

dimensions      [0 1 -1 0 0 0 0];

internalField   nonuniform List<vector> 
120
(
(1.3542e-20 1.55637e-08 0)
(4.06475e-20 1.79274e-10 0)
(6.78027e-20 -6.36067e-10 0)
(9.50408e-20 -5.09118e-11 0)
(1.22395e-19 -8.72907e-10 0)
(1.49898e-19 -2.86476e-10 0)
(1.77584e-19 -1.11598e-09 0)
(2.05485e-19 -5.28043e-10 0)
(2.33634e-19 -1.36538e-09 0)
(2.62064e-19 -7.76175e-10 0)
(2.90807e-19 -1.62135e-09 0)
(3.19897e-19 -1.03148e-09 0)
(3.49365e-19 -1.88411e-09 0)
(3.79243e-19 -1.2946e-09 0)
(4.09564e-19 -2.15391e-09 0)
(4.40358e-19 -1.56619e-09 0)
(4.71656e-19 -2.431e-09 0)
(5.0349e-19 -1.84688e-09 0)
(5.35889e-19 -2.71564e-09 0)
(5.68882e-19 -2.13732e-09 0)
(6.025e-19 -3.00808e-09 0)
(6.36768e-19 -2.4381e-09 0)
(6.71715e-19 -3.30855e-09 0)
(7.07367e-19 -2.74973e-09 0)
(7.43751e-19 -3.61726e-09 0)
(7.80888e-19 -3.07266e-09 0)
(8.18801e-19 -3.93438e-09 0)
(8.57511e-19 -3.40718e-09 0)
(8.97038e-19 -4.25998e-09 0)
(9.37399e-19 -3.75346e-09 0)
(9.78608e-19 -4.59408e-09 0)
(1.02068e-18 -4.11146e-09 0)
(1.06363e-18 -4.93655e-09 0)
(1.10746e-18 -4.48094e-09 0)
(1.15218e-18 -5.28715e-09 0)
(1.19779e-18 -4.86144e-09 0)
(1.24318e-18 -5.64545e-09 0)
(1.28947e-18 -5.25221e-09 0)
(1.33663e-18 -6.01082e-09 0)
(1.38468e-18 -5.65224e-09 0)
(1.43358e-18 -6.38245e-09 0)
(1.48333e-18 -6.06025e-09 0)
(1.5339e-18 -6.75929e-09 0)
(1.58526e-18 -6.47466e-09 0)
(1.6374e-18 -7.14008e-09 0)
(1.69027e-18 -6.89367e-09 0)
(1.74383e-18 -7.5234e-09 0)
(1.79804e-18 -7.3153e-09 0)
(1.85284e-18 -7.90772e-09 0)
(1.90821e-18 -7.73748e-09 0)
(1.96407e-18 -8.2915e-09 0)
(2.02035e-18 -8.15821e-09 0)
(2.07699e-18 -8.67334e-09 0)
(2.13393e-18 -8.5757e-09 0)
(2.19108e-18 -9.05212e-09 0)
(2.24836e-18 -8.98858e-09 0)
(2.30568e-18 -9.42728e-09 0)
(2.36295e-18 -9.39616e-09 0)
(2.42008e-18 -9.79899e-09 0)
(2.47761e-18 -9.79867e-09 0)
(2.53481e-18 -1.01684e-08 0)
(2.59155e-18 -1.01975e-08 0)
(2.64774e-18 -1.05379e-08 0)
(2.70328e-18 -1.05955e-08 0)
(2.75803e-18 -1.09112e-08 0)
(2.8119e-18 -1.0997e-08 0)
(2.86477e-18 -1.12933e-08 0)
(2.91653e-18 -1.1408e-08 0)
(2.96705e-18 -1.16905e-08 0)
(3.01623e-18 -1.18359e-08 0)
(3.06395e-18 -1.21097e-08 0)
(3.11009e-18 -1.22893e-08 0)
(3.15455e-18 -1.25572e-08 0)
(3.19721e-18 -1.27779e-08 0)
(3.23798e-18 -1.3038e-08 0)
(3.27676e-18 -1.33123e-08 0)
(3.31344e-18 -1.35531e-08 0)
(3.34793e-18 -1.39043e-08 0)
(3.38014e-18 -1.4098e-08 0)
(3.41e-18 -1.4569e-08 0)
(3.43742e-18 -1.46599e-08 0)
(3.46234e-18 -1.53274e-08 0)
(3.48468e-18 -1.52164e-08 0)
(3.50439e-18 -1.62072e-08 0)
(3.52142e-18 -1.57446e-08 0)
(3.53572e-18 -1.72268e-08 0)
(3.54722e-18 -1.62848e-08 0)
(3.55593e-18 -1.82733e-08 0)
(3.5618e-18 -1.7333e-08 0)
(3.56483e-18 -1.85195e-08 0)
(3.566e-18 -6.26652e-08 0)
(3.55215e-18 -4.74924e-07 0)
(3.54221e-18 -7.02335e-07 0)
(2.49432e-18 -0.000145631 0)
(1.31857e-18 -0.000211711 0)
(8.22384e-19 -0.000224271 0)
(6.61274e-19 -0.00022675 0)
(6.02203e-19 -0.000227396 0)
(5.75792e-19 -0.000227621 0)
(5.6175e-19 -0.000227719 0)
(5.53408e-19 -0.000227769 0)
(5.48257e-19 -0.000227796 0)
(5.45153e-19 -0.00022781 0)
(5.43398e-19 -0.000227818 0)
(5.4247e-19 -0.000227821 0)
(5.41989e-19 -0.000227823 0)
(5.41724e-19 -0.000227824 0)
(5.41559e-19 -0.000227824 0)
(5.41444e-19 -0.000227824 0)
(5.41357e-19 -0.000227825 0)
(5.41289e-19 -0.000227825 0)
(5.41236e-19 -0.000227825 0)
(5.41196e-19 -0.000227824 0)
(5.41165e-19 -0.000227824 0)
(5.4114e-19 -0.000227824 0)
(5.41113e-19 -0.000227822 0)
(5.41058e-19 -0.000227818 0)
(5.40811e-19 -0.000227797 0)
(5.38904e-19 -0.000227601 0)
(5.13367e-19 -0.000223775 0)
)
;

boundaryField
{
    inlet
    {
        type            cyclic;
    }
    outlet
    {
        type            cyclic;
    }
    top
    {
        type            fixedValue;
        value           uniform (0 0 0);
    }
    bottom
    {
        type            fixedValue;
        value           uniform (0 0 0);
    }
    frontAndBackPlanes
    {
        type            empty;
    }
}


// ************************************************************************* //
