/*--------------------------------*- C++ -*----------------------------------*\
| =========                 |                                                 |
| \\      /  F ield         | OpenFOAM: The Open Source CFD Toolbox           |
|  \\    /   O peration     | Version:  2206                                  |
|   \\  /    A nd           | Website:  www.openfoam.com                      |
|    \\/     M anipulation  |                                                 |
\*---------------------------------------------------------------------------*/
FoamFile
{
    version     2.0;
    format      ascii;
    arch        "LSB;label=32;scalar=64";
    class       volVectorField;
    location    "1640";
    object      U.b;
}
// * * * * * * * * * * * * * * * * * * * * * * * * * * * * * * * * * * * * * //

dimensions      [0 1 -1 0 0 0 0];

internalField   nonuniform List<vector> 
120
(
(1.3542e-20 1.54339e-08 0)
(4.06474e-20 6.16998e-10 0)
(6.78032e-20 7.18888e-11 0)
(9.50408e-20 9.48451e-10 0)
(1.22395e-19 4.34417e-10 0)
(1.49898e-19 1.30842e-09 0)
(1.77587e-19 7.92669e-10 0)
(2.05485e-19 1.67594e-09 0)
(2.3363e-19 1.16004e-09 0)
(2.62064e-19 2.05283e-09 0)
(2.90807e-19 1.53731e-09 0)
(3.19892e-19 2.43951e-09 0)
(3.49365e-19 1.92527e-09 0)
(3.79243e-19 2.8364e-09 0)
(4.09564e-19 2.32475e-09 0)
(4.40358e-19 3.24394e-09 0)
(4.71656e-19 2.7366e-09 0)
(5.0349e-19 3.6626e-09 0)
(5.35889e-19 3.16165e-09 0)
(5.68882e-19 4.09281e-09 0)
(6.025e-19 3.60068e-09 0)
(6.36768e-19 4.53497e-09 0)
(6.71715e-19 4.0544e-09 0)
(7.07323e-19 4.98946e-09 0)
(7.4375e-19 4.52341e-09 0)
(7.80888e-19 5.45656e-09 0)
(8.18827e-19 5.00816e-09 0)
(8.57511e-19 5.93646e-09 0)
(8.97038e-19 5.50892e-09 0)
(9.37457e-19 6.4292e-09 0)
(9.7867e-19 6.0257e-09 0)
(1.02068e-18 6.93465e-09 0)
(1.06363e-18 6.55825e-09 0)
(1.10746e-18 7.45243e-09 0)
(1.15218e-18 7.106e-09 0)
(1.19771e-18 7.98195e-09 0)
(1.24311e-18 7.66802e-09 0)
(1.28955e-18 8.52232e-09 0)
(1.33655e-18 8.24302e-09 0)
(1.38485e-18 9.07231e-09 0)
(1.43349e-18 8.82928e-09 0)
(1.48342e-18 9.63035e-09 0)
(1.5339e-18 9.42468e-09 0)
(1.58526e-18 1.01945e-08 0)
(1.6373e-18 1.00267e-08 0)
(1.69047e-18 1.07627e-08 0)
(1.74383e-18 1.06327e-08 0)
(1.79814e-18 1.13324e-08 0)
(1.85263e-18 1.12396e-08 0)
(1.90821e-18 1.19012e-08 0)
(1.96407e-18 1.18443e-08 0)
(2.02035e-18 1.24666e-08 0)
(2.07699e-18 1.24442e-08 0)
(2.13393e-18 1.30266e-08 0)
(2.19095e-18 1.30369e-08 0)
(2.24836e-18 1.35795e-08 0)
(2.30568e-18 1.36207e-08 0)
(2.36295e-18 1.4125e-08 0)
(2.42036e-18 1.41955e-08 0)
(2.47761e-18 1.46636e-08 0)
(2.53481e-18 1.47621e-08 0)
(2.59155e-18 1.51978e-08 0)
(2.64774e-18 1.53236e-08 0)
(2.70328e-18 1.57315e-08 0)
(2.75834e-18 1.5885e-08 0)
(2.81159e-18 1.62711e-08 0)
(2.86477e-18 1.64535e-08 0)
(2.91653e-18 1.68244e-08 0)
(2.96705e-18 1.70382e-08 0)
(3.01623e-18 1.74006e-08 0)
(3.0643e-18 1.765e-08 0)
(3.11009e-18 1.80092e-08 0)
(3.15455e-18 1.83006e-08 0)
(3.19721e-18 1.86582e-08 0)
(3.23798e-18 1.90022e-08 0)
(3.27676e-18 1.93525e-08 0)
(3.31344e-18 1.9767e-08 0)
(3.34793e-18 2.00907e-08 0)
(3.38014e-18 2.06075e-08 0)
(3.41e-18 2.08631e-08 0)
(3.43742e-18 2.15382e-08 0)
(3.46234e-18 2.1649e-08 0)
(3.48468e-18 2.25761e-08 0)
(3.50439e-18 2.24211e-08 0)
(3.52142e-18 2.37291e-08 0)
(3.53664e-18 2.31818e-08 0)
(3.54723e-18 2.49158e-08 0)
(3.55593e-18 2.4207e-08 0)
(3.56181e-18 2.54388e-08 0)
(3.56484e-18 1.29228e-08 0)
(3.56537e-18 1.58992e-08 0)
(3.52975e-18 2.01098e-07 0)
(3.45202e-18 1.16584e-08 0)
(3.37209e-18 -1.21874e-08 0)
(3.28969e-18 -2.68936e-09 0)
(3.20455e-18 6.02495e-10 0)
(3.1164e-18 2.92803e-10 0)
(3.02499e-18 -7.20412e-12 0)
(2.93009e-18 -2.40502e-11 0)
(2.8315e-18 -2.73077e-12 0)
(2.72907e-18 1.52707e-12 0)
(2.62264e-18 4.35165e-13 0)
(2.51211e-18 -7.45801e-14 0)
(2.39742e-18 -6.4308e-14 0)
(2.27852e-18 -4.06206e-15 0)
(2.15543e-18 -2.72576e-15 0)
(2.02819e-18 -7.63715e-15 0)
(1.89688e-18 1.17787e-14 0)
(1.76161e-18 8.13597e-15 0)
(1.62255e-18 5.58724e-15 0)
(1.47989e-18 1.04568e-14 0)
(1.33386e-18 -1.17849e-14 0)
(1.18471e-18 -1.20189e-14 0)
(1.03273e-18 7.33165e-17 0)
(8.78248e-19 -5.21836e-15 0)
(7.21602e-19 -4.55209e-15 0)
(5.63155e-19 7.33278e-15 0)
(4.03288e-19 5.11547e-15 0)
(2.42398e-19 6.29166e-15 0)
(8.08883e-20 -8.52277e-15 0)
)
;

boundaryField
{
    inlet
    {
        type            cyclic;
    }
    outlet
    {
        type            cyclic;
    }
    top
    {
        type            fixedValue;
        value           uniform (0 0 0);
    }
    bottom
    {
        type            fixedValue;
        value           uniform (0 0 0);
    }
    frontAndBackPlanes
    {
        type            empty;
    }
}


// ************************************************************************* //
