/*--------------------------------*- C++ -*----------------------------------*\
| =========                 |                                                 |
| \\      /  F ield         | OpenFOAM: The Open Source CFD Toolbox           |
|  \\    /   O peration     | Version:  2206                                  |
|   \\  /    A nd           | Website:  www.openfoam.com                      |
|    \\/     M anipulation  |                                                 |
\*---------------------------------------------------------------------------*/
FoamFile
{
    version     2.0;
    format      ascii;
    arch        "LSB;label=32;scalar=64";
    class       volScalarField;
    location    "1600";
    object      nuEffb;
}
// * * * * * * * * * * * * * * * * * * * * * * * * * * * * * * * * * * * * * //

dimensions      [0 2 -1 0 0 0 0];

internalField   nonuniform List<scalar> 
120
(
0.000131608
0.000131569
0.000131569
0.000131526
0.000131525
0.000131482
0.00013148
0.000131437
0.000131434
0.00013139
0.000131386
0.000131343
0.000131338
0.000131294
0.000131288
0.000131244
0.000131237
0.000131193
0.000131184
0.00013114
0.00013113
0.000131086
0.000131074
0.000131031
0.000131017
0.000130973
0.000130958
0.000130914
0.000130897
0.000130853
0.000130835
0.00013079
0.00013077
0.000130725
0.000130703
0.000130658
0.000130634
0.000130588
0.000130562
0.000130516
0.000130487
0.000130441
0.00013041
0.000130362
0.000130329
0.000130281
0.000130245
0.000130196
0.000130157
0.000130107
0.000130065
0.000130013
0.000129969
0.000129915
0.000129868
0.000129812
0.000129761
0.000129702
0.000129648
0.000129587
0.000129528
0.000129464
0.000129401
0.000129332
0.000129264
0.000129191
0.000129117
0.000129039
0.000128959
0.000128874
0.000128786
0.000128693
0.000128596
0.000128494
0.000128386
0.000128272
0.00012815
0.00012802
0.000127882
0.000127731
0.000127569
0.000127388
0.000127196
0.000126967
0.000126731
0.000126416
0.000126115
0.00012561
0.000125183
0.000123921
6.79414e-05
2.10623e-05
2.10501e-05
2.105e-05
2.105e-05
2.105e-05
2.105e-05
2.105e-05
2.105e-05
2.105e-05
2.105e-05
2.105e-05
2.105e-05
2.105e-05
2.105e-05
2.105e-05
2.105e-05
2.105e-05
2.105e-05
2.105e-05
2.105e-05
2.105e-05
2.105e-05
2.105e-05
2.105e-05
2.105e-05
2.105e-05
2.105e-05
2.105e-05
2.105e-05
)
;

boundaryField
{
    inlet
    {
        type            cyclic;
    }
    outlet
    {
        type            cyclic;
    }
    top
    {
        type            calculated;
        value           uniform 2.105e-05;
    }
    bottom
    {
        type            calculated;
        value           uniform 0.000131608;
    }
    frontAndBackPlanes
    {
        type            empty;
    }
}


// ************************************************************************* //
