/*--------------------------------*- C++ -*----------------------------------*\
| =========                 |                                                 |
| \\      /  F ield         | OpenFOAM: The Open Source CFD Toolbox           |
|  \\    /   O peration     | Version:  2206                                  |
|   \\  /    A nd           | Website:  www.openfoam.com                      |
|    \\/     M anipulation  |                                                 |
\*---------------------------------------------------------------------------*/
FoamFile
{
    version     2.0;
    format      ascii;
    arch        "LSB;label=32;scalar=64";
    class       volScalarField;
    location    "1600";
    object      pff;
}
// * * * * * * * * * * * * * * * * * * * * * * * * * * * * * * * * * * * * * //

dimensions      [1 -1 -2 0 0 0 0];

internalField   nonuniform List<scalar> 
120
(
26.3307
25.797
25.7978
25.2199
25.2035
24.6375
24.6095
24.0553
24.0155
23.4734
23.4217
22.8918
22.828
22.3104
22.2345
21.7293
21.6412
21.1484
21.048
20.5678
20.4551
19.9874
19.8624
19.4071
19.27
18.8271
18.678
18.2471
18.0863
17.6673
17.4949
17.0875
16.904
16.5078
16.3136
15.9282
15.7236
15.3485
15.1342
14.7689
14.5454
14.1892
13.9571
13.6094
13.3694
13.0297
12.7824
12.4499
12.196
11.87
11.6102
11.2902
11.0251
10.7103
10.4406
10.1305
9.85683
9.55077
9.2737
8.9711
8.69122
8.39159
8.10941
7.81226
7.52826
7.23318
6.94777
6.65441
6.36797
6.07603
5.78887
5.4981
5.21051
4.9207
4.63296
4.34385
4.05633
3.76752
3.48083
3.19149
2.90686
2.61529
2.33524
2.03788
1.76754
1.45738
1.20641
0.871039
0.654317
0.260664
0
0
0
0
0
0
0
0
0
0
0
0
0
0
0
0
0
0
0
0
0
0
0
0
0
0
0
0
0
0
)
;

boundaryField
{
    inlet
    {
        type            cyclic;
    }
    outlet
    {
        type            cyclic;
    }
    top
    {
        type            calculated;
        value           uniform 0;
    }
    bottom
    {
        type            calculated;
        value           uniform 26.3307;
    }
    frontAndBackPlanes
    {
        type            empty;
    }
}


// ************************************************************************* //
