/*--------------------------------*- C++ -*----------------------------------*\
| =========                 |                                                 |
| \\      /  F ield         | OpenFOAM: The Open Source CFD Toolbox           |
|  \\    /   O peration     | Version:  2206                                  |
|   \\  /    A nd           | Website:  www.openfoam.com                      |
|    \\/     M anipulation  |                                                 |
\*---------------------------------------------------------------------------*/
FoamFile
{
    version     2.0;
    format      ascii;
    arch        "LSB;label=32;scalar=64";
    class       surfaceScalarField;
    location    "1600";
    object      phi.a;
}
// * * * * * * * * * * * * * * * * * * * * * * * * * * * * * * * * * * * * * //

dimensions      [0 3 -1 0 0 0 0];

oriented        oriented;

internalField   nonuniform List<scalar> 
119
(
-7.88288e-17
-1.60159e-16
-2.40985e-16
-3.23668e-16
-4.05948e-16
-4.90528e-16
-5.74634e-16
-6.61076e-16
-7.47013e-16
-8.35242e-16
-9.23036e-16
-1.01299e-15
-1.10267e-15
-1.19427e-15
-1.28586e-15
-1.37906e-15
-1.47258e-15
-1.56729e-15
-1.66274e-15
-1.75889e-15
-1.85627e-15
-1.95378e-15
-2.05308e-15
-2.15187e-15
-2.25306e-15
-2.35306e-15
-2.45609e-15
-2.55723e-15
-2.66203e-15
-2.76424e-15
-2.87074e-15
-2.97394e-15
-3.08205e-15
-3.18618e-15
-3.29579e-15
-3.4008e-15
-3.51181e-15
-3.61764e-15
-3.72993e-15
-3.83657e-15
-3.95005e-15
-4.05746e-15
-4.17203e-15
-4.28023e-15
-4.3958e-15
-4.50481e-15
-4.62132e-15
-4.7312e-15
-4.84862e-15
-4.95945e-15
-5.07777e-15
-5.18966e-15
-5.30893e-15
-5.42203e-15
-5.54231e-15
-5.65681e-15
-5.77824e-15
-5.8944e-15
-6.01722e-15
-6.13541e-15
-6.26001e-15
-6.3808e-15
-6.50783e-15
-6.63207e-15
-6.76256e-15
-6.89152e-15
-7.02698e-15
-7.16244e-15
-7.30496e-15
-7.44921e-15
-7.60146e-15
-7.75709e-15
-7.92208e-15
-8.09148e-15
-8.27216e-15
-8.45653e-15
-8.65514e-15
-8.85311e-15
-9.07072e-15
-9.27676e-15
-9.51363e-15
-9.71697e-15
-9.97454e-15
-1.01595e-14
-1.04438e-14
-1.05964e-14
-1.09114e-14
-1.10717e-14
-1.13189e-14
-2.13027e-14
1.95418e-12
5.62204e-12
-2.52641e-11
-6.50306e-11
-7.76792e-11
-8.10726e-11
-8.16718e-11
-8.18479e-11
-8.19237e-11
-8.19638e-11
-8.19878e-11
-8.20025e-11
-8.20111e-11
-8.20156e-11
-8.20178e-11
-8.20188e-11
-8.20192e-11
-8.20194e-11
-8.20195e-11
-8.20196e-11
-8.20196e-11
-8.20196e-11
-8.20195e-11
-8.20194e-11
-8.20191e-11
-8.20182e-11
-8.2014e-11
-8.19765e-11
-8.1268e-11
)
;

boundaryField
{
    inlet
    {
        type            cyclic;
        value           nonuniform List<scalar> 
120
(
-3.88506e-27
-1.16606e-26
-1.94511e-26
-2.72667e-26
-3.51173e-26
-4.30129e-26
-5.09635e-26
-5.8979e-26
-6.70696e-26
-7.52453e-26
-8.35161e-26
-9.1892e-26
-1.00383e-25
-1.08999e-25
-1.17751e-25
-1.26647e-25
-1.35698e-25
-1.44914e-25
-1.54304e-25
-1.63879e-25
-1.73647e-25
-1.83618e-25
-1.93802e-25
-2.04207e-25
-2.14844e-25
-2.25719e-25
-2.36841e-25
-2.48217e-25
-2.59856e-25
-2.71765e-25
-2.83948e-25
-2.96413e-25
-3.09165e-25
-3.2221e-25
-3.35552e-25
-3.49194e-25
-3.62805e-25
-3.76721e-25
-3.9094e-25
-4.05463e-25
-4.20286e-25
-4.35407e-25
-4.50821e-25
-4.66522e-25
-4.82505e-25
-4.9876e-25
-5.15274e-25
-5.32038e-25
-5.49037e-25
-5.6626e-25
-5.83686e-25
-6.01299e-25
-6.19076e-25
-6.36995e-25
-6.55034e-25
-6.73167e-25
-6.91366e-25
-7.09603e-25
-7.27849e-25
-7.46236e-25
-7.64565e-25
-7.82799e-25
-8.00901e-25
-8.18832e-25
-8.36553e-25
-8.54021e-25
-8.71204e-25
-8.88056e-25
-9.04538e-25
-9.20609e-25
-9.36227e-25
-9.51348e-25
-9.65936e-25
-9.79952e-25
-9.93358e-25
-1.00612e-24
-1.01819e-24
-1.02955e-24
-1.04016e-24
-1.04998e-24
-1.059e-24
-1.06718e-24
-1.0745e-24
-1.08095e-24
-1.08651e-24
-1.09117e-24
-1.09491e-24
-1.09773e-24
-1.09963e-24
-1.10061e-24
-1.10099e-24
-1.09346e-24
-1.04172e-24
-8.04791e-25
-4.53805e-25
-2.63561e-25
-2.13071e-25
-1.92249e-25
-1.81474e-25
-1.74835e-25
-1.70247e-25
-1.6699e-25
-1.6479e-25
-1.63449e-25
-1.62726e-25
-1.62374e-25
-1.62208e-25
-1.62122e-25
-1.6207e-25
-1.62034e-25
-1.62007e-25
-1.61987e-25
-1.61972e-25
-1.61961e-25
-1.61953e-25
-1.61946e-25
-1.61932e-25
-1.61871e-25
-1.6136e-25
-1.54043e-25
)
;
    }
    outlet
    {
        type            cyclic;
        value           nonuniform List<scalar> 
120
(
3.88506e-27
1.16606e-26
1.94511e-26
2.72667e-26
3.51173e-26
4.30129e-26
5.09635e-26
5.8979e-26
6.70696e-26
7.52453e-26
8.35161e-26
9.1892e-26
1.00383e-25
1.08999e-25
1.17751e-25
1.26647e-25
1.35698e-25
1.44914e-25
1.54304e-25
1.63879e-25
1.73647e-25
1.83618e-25
1.93802e-25
2.04207e-25
2.14844e-25
2.25719e-25
2.36841e-25
2.48217e-25
2.59856e-25
2.71765e-25
2.83948e-25
2.96413e-25
3.09165e-25
3.2221e-25
3.35552e-25
3.49194e-25
3.62805e-25
3.76721e-25
3.9094e-25
4.05463e-25
4.20286e-25
4.35407e-25
4.50821e-25
4.66522e-25
4.82505e-25
4.9876e-25
5.15274e-25
5.32038e-25
5.49037e-25
5.6626e-25
5.83686e-25
6.01299e-25
6.19076e-25
6.36995e-25
6.55034e-25
6.73167e-25
6.91366e-25
7.09603e-25
7.27849e-25
7.46236e-25
7.64565e-25
7.82799e-25
8.00901e-25
8.18832e-25
8.36553e-25
8.54021e-25
8.71204e-25
8.88056e-25
9.04538e-25
9.20609e-25
9.36227e-25
9.51348e-25
9.65936e-25
9.79952e-25
9.93358e-25
1.00612e-24
1.01819e-24
1.02955e-24
1.04016e-24
1.04998e-24
1.059e-24
1.06718e-24
1.0745e-24
1.08095e-24
1.08651e-24
1.09117e-24
1.09491e-24
1.09773e-24
1.09963e-24
1.10061e-24
1.10099e-24
1.09346e-24
1.04172e-24
8.04791e-25
4.53805e-25
2.63561e-25
2.13071e-25
1.92249e-25
1.81474e-25
1.74835e-25
1.70247e-25
1.6699e-25
1.6479e-25
1.63449e-25
1.62726e-25
1.62374e-25
1.62208e-25
1.62122e-25
1.6207e-25
1.62034e-25
1.62007e-25
1.61987e-25
1.61972e-25
1.61961e-25
1.61953e-25
1.61946e-25
1.61932e-25
1.61871e-25
1.6136e-25
1.54043e-25
)
;
    }
    top
    {
        type            fixedValue;
        value           uniform 0;
    }
    bottom
    {
        type            fixedValue;
        value           uniform 0;
    }
    frontAndBackPlanes
    {
        type            empty;
        value           nonuniform List<scalar> 0();
    }
}


// ************************************************************************* //
