/*--------------------------------*- C++ -*----------------------------------*\
| =========                 |                                                 |
| \\      /  F ield         | OpenFOAM: The Open Source CFD Toolbox           |
|  \\    /   O peration     | Version:  2206                                  |
|   \\  /    A nd           | Website:  www.openfoam.com                      |
|    \\/     M anipulation  |                                                 |
\*---------------------------------------------------------------------------*/
FoamFile
{
    version     2.0;
    format      ascii;
    arch        "LSB;label=32;scalar=64";
    class       volVectorField;
    location    "1600";
    object      U.a;
}
// * * * * * * * * * * * * * * * * * * * * * * * * * * * * * * * * * * * * * //

dimensions      [0 1 -1 0 0 0 0];

internalField   nonuniform List<vector> 
120
(
(1.29502e-20 1.5499e-08 0)
(3.88687e-20 1.24282e-11 0)
(6.48371e-20 -9.03158e-10 0)
(9.0889e-20 -4.35667e-10 0)
(1.17058e-19 -1.36251e-09 0)
(1.43376e-19 -8.92701e-10 0)
(1.69878e-19 -1.83247e-09 0)
(1.96597e-19 -1.35988e-09 0)
(2.23565e-19 -2.31278e-09 0)
(2.50818e-19 -1.83723e-09 0)
(2.78387e-19 -2.80302e-09 0)
(3.06307e-19 -2.3249e-09 0)
(3.3461e-19 -3.30281e-09 0)
(3.63331e-19 -2.82307e-09 0)
(3.92502e-19 -3.81179e-09 0)
(4.22156e-19 -3.33186e-09 0)
(4.52326e-19 -4.32958e-09 0)
(4.83046e-19 -3.85139e-09 0)
(5.14347e-19 -4.85574e-09 0)
(5.46263e-19 -4.3817e-09 0)
(5.78824e-19 -5.38986e-09 0)
(6.12062e-19 -4.92277e-09 0)
(6.46007e-19 -5.93151e-09 0)
(6.80692e-19 -5.47452e-09 0)
(7.16145e-19 -6.48026e-09 0)
(7.52395e-19 -6.03677e-09 0)
(7.89469e-19 -7.03571e-09 0)
(8.27391e-19 -6.60928e-09 0)
(8.66187e-19 -7.59743e-09 0)
(9.05882e-19 -7.19171e-09 0)
(9.46494e-19 -8.16505e-09 0)
(9.88043e-19 -7.78361e-09 0)
(1.03055e-18 -8.73816e-09 0)
(1.07403e-18 -8.38446e-09 0)
(1.11851e-18 -9.31641e-09 0)
(1.16398e-18 -8.99369e-09 0)
(1.20935e-18 -9.89947e-09 0)
(1.25574e-18 -9.61071e-09 0)
(1.30313e-18 -1.04871e-08 0)
(1.35154e-18 -1.02349e-08 0)
(1.40095e-18 -1.10792e-08 0)
(1.45136e-18 -1.08657e-08 0)
(1.50274e-18 -1.16756e-08 0)
(1.55507e-18 -1.15025e-08 0)
(1.60835e-18 -1.22763e-08 0)
(1.66253e-18 -1.2145e-08 0)
(1.71758e-18 -1.28815e-08 0)
(1.77346e-18 -1.27926e-08 0)
(1.83012e-18 -1.34916e-08 0)
(1.88753e-18 -1.34454e-08 0)
(1.94562e-18 -1.41069e-08 0)
(2.00433e-18 -1.41031e-08 0)
(2.06359e-18 -1.47282e-08 0)
(2.12332e-18 -1.47661e-08 0)
(2.18345e-18 -1.53562e-08 0)
(2.24389e-18 -1.54346e-08 0)
(2.30455e-18 -1.59919e-08 0)
(2.36534e-18 -1.61096e-08 0)
(2.42616e-18 -1.6637e-08 0)
(2.48745e-18 -1.67922e-08 0)
(2.54855e-18 -1.72933e-08 0)
(2.60933e-18 -1.74847e-08 0)
(2.66967e-18 -1.7964e-08 0)
(2.72944e-18 -1.81907e-08 0)
(2.78851e-18 -1.8654e-08 0)
(2.84674e-18 -1.89158e-08 0)
(2.90401e-18 -1.93703e-08 0)
(2.96019e-18 -1.96686e-08 0)
(3.01513e-18 -2.01226e-08 0)
(3.0687e-18 -2.04605e-08 0)
(3.12076e-18 -2.09239e-08 0)
(3.17116e-18 -2.13064e-08 0)
(3.21979e-18 -2.17884e-08 0)
(3.26651e-18 -2.22232e-08 0)
(3.31119e-18 -2.27293e-08 0)
(3.35372e-18 -2.32271e-08 0)
(3.39397e-18 -2.37533e-08 0)
(3.43183e-18 -2.43309e-08 0)
(3.46719e-18 -2.48526e-08 0)
(3.49994e-18 -2.55407e-08 0)
(3.52999e-18 -2.59963e-08 0)
(3.55726e-18 -2.68582e-08 0)
(3.58168e-18 -2.71239e-08 0)
(3.60318e-18 -2.82922e-08 0)
(3.62172e-18 -2.81477e-08 0)
(3.63725e-18 -2.98772e-08 0)
(3.6497e-18 -2.89889e-08 0)
(3.65911e-18 -3.16343e-08 0)
(3.66544e-18 -2.98859e-08 0)
(3.66871e-18 -3.33216e-08 0)
(3.66996e-18 -8.29849e-08 0)
(3.64488e-18 1.71948e-05 0)
(3.47239e-18 1.35339e-05 0)
(2.68264e-18 -0.000153765 0)
(1.51268e-18 -0.000207683 0)
(8.78535e-19 -0.000223885 0)
(7.10238e-19 -0.000226517 0)
(6.40831e-19 -0.000227215 0)
(6.04913e-19 -0.000227495 0)
(5.82785e-19 -0.000227636 0)
(5.67489e-19 -0.000227718 0)
(5.56634e-19 -0.000227769 0)
(5.49301e-19 -0.0002278 0)
(5.44829e-19 -0.000227817 0)
(5.42419e-19 -0.000227825 0)
(5.41248e-19 -0.000227829 0)
(5.40693e-19 -0.000227831 0)
(5.40406e-19 -0.000227831 0)
(5.40233e-19 -0.000227832 0)
(5.40113e-19 -0.000227832 0)
(5.40025e-19 -0.000227832 0)
(5.39958e-19 -0.000227832 0)
(5.39907e-19 -0.000227832 0)
(5.39871e-19 -0.000227832 0)
(5.39843e-19 -0.000227831 0)
(5.39819e-19 -0.00022783 0)
(5.39774e-19 -0.000227827 0)
(5.3957e-19 -0.000227807 0)
(5.37865e-19 -0.000227619 0)
(5.13475e-19 -0.000223871 0)
)
;

boundaryField
{
    inlet
    {
        type            cyclic;
    }
    outlet
    {
        type            cyclic;
    }
    top
    {
        type            fixedValue;
        value           uniform (0 0 0);
    }
    bottom
    {
        type            fixedValue;
        value           uniform (0 0 0);
    }
    frontAndBackPlanes
    {
        type            empty;
    }
}


// ************************************************************************* //
