/*--------------------------------*- C++ -*----------------------------------*\
| =========                 |                                                 |
| \\      /  F ield         | OpenFOAM: The Open Source CFD Toolbox           |
|  \\    /   O peration     | Version:  2206                                  |
|   \\  /    A nd           | Website:  www.openfoam.com                      |
|    \\/     M anipulation  |                                                 |
\*---------------------------------------------------------------------------*/
FoamFile
{
    version     2.0;
    format      ascii;
    arch        "LSB;label=32;scalar=64";
    class       volVectorField;
    location    "1600";
    object      U.b;
}
// * * * * * * * * * * * * * * * * * * * * * * * * * * * * * * * * * * * * * //

dimensions      [0 1 -1 0 0 0 0];

internalField   nonuniform List<vector> 
120
(
(1.29502e-20 1.54834e-08 0)
(3.88687e-20 8.39441e-10 0)
(6.48381e-20 4.92918e-10 0)
(9.0889e-20 1.51911e-09 0)
(1.17058e-19 1.17543e-09 0)
(1.43376e-19 2.21356e-09 0)
(1.69884e-19 1.8691e-09 0)
(1.96597e-19 2.92297e-09 0)
(2.23558e-19 2.57746e-09 0)
(2.50818e-19 3.64695e-09 0)
(2.78387e-19 3.30047e-09 0)
(3.06297e-19 4.38501e-09 0)
(3.3461e-19 4.03818e-09 0)
(3.63331e-19 5.13666e-09 0)
(3.92502e-19 4.79063e-09 0)
(4.22156e-19 5.90146e-09 0)
(4.52326e-19 5.55786e-09 0)
(4.83046e-19 6.67885e-09 0)
(5.14347e-19 6.33977e-09 0)
(5.46263e-19 7.46826e-09 0)
(5.78824e-19 7.13622e-09 0)
(6.12061e-19 8.26914e-09 0)
(6.46007e-19 7.94702e-09 0)
(6.80608e-19 9.08084e-09 0)
(7.16145e-19 8.77179e-09 0)
(7.52396e-19 9.90274e-09 0)
(7.89517e-19 9.61014e-09 0)
(8.27391e-19 1.07342e-08 0)
(8.66188e-19 1.04615e-08 0)
(9.05991e-19 1.15746e-08 0)
(9.46606e-19 1.13253e-08 0)
(9.88043e-19 1.24232e-08 0)
(1.03055e-18 1.22006e-08 0)
(1.07403e-18 1.32793e-08 0)
(1.11851e-18 1.30867e-08 0)
(1.16384e-18 1.41424e-08 0)
(1.20921e-18 1.39826e-08 0)
(1.25588e-18 1.50117e-08 0)
(1.30299e-18 1.48875e-08 0)
(1.35184e-18 1.58869e-08 0)
(1.4008e-18 1.58004e-08 0)
(1.45152e-18 1.67675e-08 0)
(1.50274e-18 1.67206e-08 0)
(1.55507e-18 1.76532e-08 0)
(1.60818e-18 1.76473e-08 0)
(1.66289e-18 1.85438e-08 0)
(1.71758e-18 1.85798e-08 0)
(1.77364e-18 1.94394e-08 0)
(1.82974e-18 1.95177e-08 0)
(1.88753e-18 2.03403e-08 0)
(1.94562e-18 2.04609e-08 0)
(2.00433e-18 2.1247e-08 0)
(2.06359e-18 2.14094e-08 0)
(2.12332e-18 2.21601e-08 0)
(2.18323e-18 2.23635e-08 0)
(2.24389e-18 2.30807e-08 0)
(2.30455e-18 2.33239e-08 0)
(2.36534e-18 2.40102e-08 0)
(2.42664e-18 2.4292e-08 0)
(2.48746e-18 2.49508e-08 0)
(2.54855e-18 2.52699e-08 0)
(2.60933e-18 2.59057e-08 0)
(2.66967e-18 2.62616e-08 0)
(2.72944e-18 2.68802e-08 0)
(2.78904e-18 2.72732e-08 0)
(2.8462e-18 2.78822e-08 0)
(2.90401e-18 2.83145e-08 0)
(2.96019e-18 2.89233e-08 0)
(3.01513e-18 2.93991e-08 0)
(3.0687e-18 3.00191e-08 0)
(3.12135e-18 3.0545e-08 0)
(3.17116e-18 3.11882e-08 0)
(3.21979e-18 3.17732e-08 0)
(3.26651e-18 3.24496e-08 0)
(3.31119e-18 3.31048e-08 0)
(3.35372e-18 3.38164e-08 0)
(3.39397e-18 3.45557e-08 0)
(3.43183e-18 3.52872e-08 0)
(3.46719e-18 3.61305e-08 0)
(3.49994e-18 3.68346e-08 0)
(3.52999e-18 3.78193e-08 0)
(3.55726e-18 3.83962e-08 0)
(3.58168e-18 3.96016e-08 0)
(3.60318e-18 3.98734e-08 0)
(3.62172e-18 4.14581e-08 0)
(3.63888e-18 4.11554e-08 0)
(3.64971e-18 4.33469e-08 0)
(3.65911e-18 4.22858e-08 0)
(3.66544e-18 4.32874e-08 0)
(3.66871e-18 5.15162e-09 0)
(3.66958e-18 1.01982e-07 0)
(3.64651e-18 -8.01077e-07 0)
(3.59485e-18 8.09205e-07 0)
(3.54037e-18 -8.64864e-07 0)
(3.48245e-18 -2.4134e-07 0)
(3.42053e-18 6.88818e-08 0)
(3.35402e-18 2.3331e-08 0)
(3.2824e-18 -2.90461e-10 0)
(3.20517e-18 -7.12139e-10 0)
(3.12189e-18 -7.88372e-11 0)
(3.03218e-18 5.71051e-12 0)
(2.93573e-18 1.95761e-12 0)
(2.83226e-18 -3.36652e-13 0)
(2.72161e-18 -1.61398e-13 0)
(2.60365e-18 8.94154e-15 0)
(2.47834e-18 1.21345e-14 0)
(2.34571e-18 2.26342e-15 0)
(2.20589e-18 -6.36545e-15 0)
(2.05903e-18 -2.05763e-14 0)
(1.9054e-18 -1.12272e-14 0)
(1.74533e-18 1.187e-14 0)
(1.57919e-18 3.091e-14 0)
(1.40746e-18 1.05562e-15 0)
(1.23063e-18 -9.7571e-15 0)
(1.04927e-18 -2.3849e-14 0)
(8.63992e-19 -1.01292e-14 0)
(6.75455e-19 2.04273e-14 0)
(4.84346e-19 1.74272e-14 0)
(2.91378e-19 3.00612e-15 0)
(9.72878e-20 -1.3482e-14 0)
)
;

boundaryField
{
    inlet
    {
        type            cyclic;
    }
    outlet
    {
        type            cyclic;
    }
    top
    {
        type            fixedValue;
        value           uniform (0 0 0);
    }
    bottom
    {
        type            fixedValue;
        value           uniform (0 0 0);
    }
    frontAndBackPlanes
    {
        type            empty;
    }
}


// ************************************************************************* //
