/*--------------------------------*- C++ -*----------------------------------*\
| =========                 |                                                 |
| \\      /  F ield         | OpenFOAM: The Open Source CFD Toolbox           |
|  \\    /   O peration     | Version:  2206                                  |
|   \\  /    A nd           | Website:  www.openfoam.com                      |
|    \\/     M anipulation  |                                                 |
\*---------------------------------------------------------------------------*/
FoamFile
{
    version     2.0;
    format      ascii;
    arch        "LSB;label=32;scalar=64";
    class       volScalarField;
    location    "1280";
    object      pff;
}
// * * * * * * * * * * * * * * * * * * * * * * * * * * * * * * * * * * * * * //

dimensions      [1 -1 -2 0 0 0 0];

internalField   nonuniform List<scalar> 
120
(
22.6874
22.1535
22.1566
21.5781
21.5654
20.9993
20.9754
20.4227
20.3866
19.8481
19.7992
19.2757
19.2132
18.7053
18.6288
18.137
18.0462
17.5707
17.4653
17.0063
16.8865
16.4439
16.3097
15.8835
15.7351
15.325
15.163
14.7683
14.5933
14.2136
14.0263
13.6608
13.462
13.1099
12.9006
12.5611
12.3422
12.0142
11.787
11.4695
11.235
10.927
10.6863
10.3869
10.141
9.84913
9.59921
9.31398
9.06101
8.78157
8.52647
8.25208
7.99571
7.72572
7.46884
7.20275
6.94603
6.68342
6.42745
6.16801
5.91327
5.65676
5.40362
5.14987
4.89862
4.64751
4.39836
4.14983
3.90301
3.65712
3.41289
3.16984
2.92854
2.68862
2.45047
2.21381
1.97831
1.74415
1.50932
1.26925
1.0229
0.791996
0.580978
0.367704
0.235926
0.104166
0
0
0
0
0
0
0
0
0
0
0
0
0
0
0
0
0
0
0
0
0
0
0
0
0
0
0
0
0
0
0
0
0
0
)
;

boundaryField
{
    inlet
    {
        type            cyclic;
    }
    outlet
    {
        type            cyclic;
    }
    top
    {
        type            calculated;
        value           uniform 0;
    }
    bottom
    {
        type            calculated;
        value           uniform 22.6874;
    }
    frontAndBackPlanes
    {
        type            empty;
    }
}


// ************************************************************************* //
