/*--------------------------------*- C++ -*----------------------------------*\
| =========                 |                                                 |
| \\      /  F ield         | OpenFOAM: The Open Source CFD Toolbox           |
|  \\    /   O peration     | Version:  2206                                  |
|   \\  /    A nd           | Website:  www.openfoam.com                      |
|    \\/     M anipulation  |                                                 |
\*---------------------------------------------------------------------------*/
FoamFile
{
    version     2.0;
    format      ascii;
    arch        "LSB;label=32;scalar=64";
    class       surfaceScalarField;
    location    "1280";
    object      phi.b;
}
// * * * * * * * * * * * * * * * * * * * * * * * * * * * * * * * * * * * * * //

dimensions      [0 3 -1 0 0 0 0];

oriented        oriented;

internalField   nonuniform List<scalar> 
119
(
1.40097e-15
2.83468e-15
4.26928e-15
5.73951e-15
7.21342e-15
8.72234e-15
1.02376e-14
1.17871e-14
1.33459e-14
1.4938e-14
1.65427e-14
1.81799e-14
1.9833e-14
2.15176e-14
2.3222e-14
2.49567e-14
2.67151e-14
2.85029e-14
3.03185e-14
3.21625e-14
3.40384e-14
3.59419e-14
3.78816e-14
3.98484e-14
4.18556e-14
4.38895e-14
4.59683e-14
4.80737e-14
5.02285e-14
5.24106e-14
5.46464e-14
5.69107e-14
5.92334e-14
6.15864e-14
6.40022e-14
6.6451e-14
6.89673e-14
7.152e-14
7.41446e-14
7.68098e-14
7.95514e-14
8.23384e-14
8.52066e-14
8.81256e-14
9.11306e-14
9.41931e-14
9.73467e-14
1.00566e-13
1.03883e-13
1.07275e-13
1.10773e-13
1.14359e-13
1.18061e-13
1.21866e-13
1.25801e-13
1.29856e-13
1.34057e-13
1.384e-13
1.42906e-13
1.47574e-13
1.52425e-13
1.57461e-13
1.627e-13
1.68148e-13
1.73825e-13
1.79745e-13
1.85937e-13
1.9243e-13
1.99272e-13
2.06519e-13
2.14249e-13
2.22554e-13
2.3155e-13
2.41368e-13
2.5215e-13
2.64058e-13
2.77245e-13
2.91849e-13
3.08248e-13
3.2728e-13
3.49016e-13
3.7127e-13
3.92044e-13
4.08967e-13
4.33554e-13
1.10466e-12
1.67975e-12
2.09322e-12
2.21985e-12
2.01054e-12
4.9232e-12
7.74003e-12
1.69942e-14
1.51795e-16
2.85997e-19
-1.80386e-19
1.11015e-19
3.84349e-19
3.67438e-19
2.65415e-19
3.77688e-20
-2.8198e-19
-3.16299e-19
-7.61868e-20
-6.24269e-20
-1.5318e-19
2.08592e-19
3.2938e-19
6.76619e-20
3.18018e-20
-2.52244e-19
-2.18623e-19
-3.72933e-20
9.88456e-20
4.04356e-19
-1.7478e-19
2.33973e-20
-1.33878e-19
2.02837e-20
)
;

boundaryField
{
    inlet
    {
        type            cyclic;
        value           nonuniform List<scalar> 
120
(
-2.57834e-27
-7.74026e-27
-1.29179e-26
-1.81087e-26
-2.33316e-26
-2.85913e-26
-3.39148e-26
-3.92534e-26
-4.46477e-26
-5.01628e-26
-5.57319e-26
-6.1354e-26
-6.71424e-26
-7.30017e-26
-7.8975e-26
-8.50718e-26
-9.13012e-26
-9.76727e-26
-1.04196e-25
-1.1088e-25
-1.17736e-25
-1.24772e-25
-1.31998e-25
-1.39118e-25
-1.47075e-25
-1.54947e-25
-1.63228e-25
-1.7139e-25
-1.79985e-25
-1.89253e-25
-1.98392e-25
-2.07361e-25
-2.17054e-25
-2.27055e-25
-2.37371e-25
-2.47474e-25
-2.58196e-25
-2.70383e-25
-2.80682e-25
-2.94277e-25
-3.04622e-25
-3.18459e-25
-3.30775e-25
-3.44137e-25
-3.57219e-25
-3.73654e-25
-3.86826e-25
-4.02701e-25
-4.15822e-25
-4.33514e-25
-4.50076e-25
-4.67135e-25
-4.84713e-25
-5.02823e-25
-5.20501e-25
-5.40756e-25
-5.60619e-25
-5.8111e-25
-6.045e-25
-6.24143e-25
-6.46746e-25
-6.70122e-25
-6.9431e-25
-7.19379e-25
-7.48098e-25
-7.6945e-25
-8.00359e-25
-8.29637e-25
-8.60185e-25
-8.92152e-25
-9.29039e-25
-9.60834e-25
-9.98e-25
-1.03752e-24
-1.0798e-24
-1.12529e-24
-1.17444e-24
-1.22747e-24
-1.2842e-24
-1.34363e-24
-1.40369e-24
-1.46108e-24
-1.51158e-24
-1.55094e-24
-1.57767e-24
-1.74061e-24
-2.1283e-23
-2.90163e-23
-2.5472e-23
-2.20047e-23
-1.96061e-23
-1.89128e-23
-1.82994e-23
-1.73697e-23
-1.64797e-23
-1.56271e-23
-1.48082e-23
-1.40191e-23
-1.32566e-23
-1.25181e-23
-1.18014e-23
-1.1104e-23
-1.04238e-23
-9.75916e-24
-9.10829e-24
-8.46978e-24
-7.84235e-24
-7.22484e-24
-6.61625e-24
-6.01562e-24
-5.4221e-24
-4.83491e-24
-4.25328e-24
-3.67651e-24
-3.10392e-24
-2.53482e-24
-1.96857e-24
-1.40454e-24
-8.42077e-25
-2.80557e-25
)
;
    }
    outlet
    {
        type            cyclic;
        value           nonuniform List<scalar> 
120
(
2.57834e-27
7.74026e-27
1.29179e-26
1.81087e-26
2.33316e-26
2.85913e-26
3.39148e-26
3.92534e-26
4.46477e-26
5.01628e-26
5.57319e-26
6.1354e-26
6.71424e-26
7.30017e-26
7.8975e-26
8.50718e-26
9.13012e-26
9.76727e-26
1.04196e-25
1.1088e-25
1.17736e-25
1.24772e-25
1.31998e-25
1.39118e-25
1.47075e-25
1.54947e-25
1.63228e-25
1.7139e-25
1.79985e-25
1.89253e-25
1.98392e-25
2.07361e-25
2.17054e-25
2.27055e-25
2.37371e-25
2.47474e-25
2.58196e-25
2.70383e-25
2.80682e-25
2.94277e-25
3.04622e-25
3.18459e-25
3.30775e-25
3.44137e-25
3.57219e-25
3.73654e-25
3.86826e-25
4.02701e-25
4.15822e-25
4.33514e-25
4.50076e-25
4.67135e-25
4.84713e-25
5.02823e-25
5.20501e-25
5.40756e-25
5.60619e-25
5.8111e-25
6.045e-25
6.24143e-25
6.46746e-25
6.70122e-25
6.9431e-25
7.19379e-25
7.48098e-25
7.6945e-25
8.00359e-25
8.29637e-25
8.60185e-25
8.92152e-25
9.29039e-25
9.60834e-25
9.98e-25
1.03752e-24
1.0798e-24
1.12529e-24
1.17444e-24
1.22747e-24
1.2842e-24
1.34363e-24
1.40369e-24
1.46108e-24
1.51158e-24
1.55094e-24
1.57767e-24
1.74061e-24
2.1283e-23
2.90163e-23
2.5472e-23
2.20047e-23
1.96061e-23
1.89128e-23
1.82994e-23
1.73697e-23
1.64797e-23
1.56271e-23
1.48082e-23
1.40191e-23
1.32566e-23
1.25181e-23
1.18014e-23
1.1104e-23
1.04238e-23
9.75916e-24
9.10829e-24
8.46978e-24
7.84235e-24
7.22484e-24
6.61625e-24
6.01562e-24
5.4221e-24
4.83491e-24
4.25328e-24
3.67651e-24
3.10392e-24
2.53482e-24
1.96857e-24
1.40454e-24
8.42077e-25
2.80557e-25
)
;
    }
    top
    {
        type            fixedValue;
        value           uniform 0;
    }
    bottom
    {
        type            fixedValue;
        value           uniform 0;
    }
    frontAndBackPlanes
    {
        type            empty;
        value           nonuniform List<scalar> 0();
    }
}


// ************************************************************************* //
