/*--------------------------------*- C++ -*----------------------------------*\
| =========                 |                                                 |
| \\      /  F ield         | OpenFOAM: The Open Source CFD Toolbox           |
|  \\    /   O peration     | Version:  2206                                  |
|   \\  /    A nd           | Website:  www.openfoam.com                      |
|    \\/     M anipulation  |                                                 |
\*---------------------------------------------------------------------------*/
FoamFile
{
    version     2.0;
    format      ascii;
    arch        "LSB;label=32;scalar=64";
    class       surfaceScalarField;
    location    "1280";
    object      phi.a;
}
// * * * * * * * * * * * * * * * * * * * * * * * * * * * * * * * * * * * * * //

dimensions      [0 3 -1 0 0 0 0];

oriented        oriented;

internalField   nonuniform List<scalar> 
119
(
-9.36166e-16
-1.8946e-15
-2.8541e-15
-3.83788e-15
-4.82457e-15
-5.83516e-15
-6.85049e-15
-7.88926e-15
-8.93477e-15
-1.00032e-14
-1.10806e-14
-1.21803e-14
-1.32913e-14
-1.44241e-14
-1.55707e-14
-1.67384e-14
-1.79227e-14
-1.91275e-14
-2.03516e-14
-2.15956e-14
-2.28618e-14
-2.41475e-14
-2.54583e-14
-2.67883e-14
-2.81463e-14
-2.95234e-14
-3.09315e-14
-3.23589e-14
-3.38204e-14
-3.53017e-14
-3.68202e-14
-3.83593e-14
-3.99389e-14
-4.15406e-14
-4.3186e-14
-4.48553e-14
-4.65716e-14
-4.83144e-14
-5.01073e-14
-5.19297e-14
-5.38056e-14
-5.57145e-14
-5.76802e-14
-5.96829e-14
-6.1746e-14
-6.38509e-14
-6.60201e-14
-6.82369e-14
-7.05228e-14
-7.28633e-14
-7.5279e-14
-7.77582e-14
-8.03203e-14
-8.29568e-14
-8.5686e-14
-8.85027e-14
-9.14238e-14
-9.44469e-14
-9.75878e-14
-1.00847e-13
-1.04237e-13
-1.07762e-13
-1.11435e-13
-1.15261e-13
-1.19254e-13
-1.23426e-13
-1.27797e-13
-1.32391e-13
-1.37241e-13
-1.42388e-13
-1.4789e-13
-1.53815e-13
-1.60245e-13
-1.67279e-13
-1.75023e-13
-1.836e-13
-1.9313e-13
-2.03731e-13
-2.15704e-13
-2.29695e-13
-2.45803e-13
-2.62539e-13
-2.78692e-13
-2.92436e-13
-3.12338e-13
-8.60684e-13
-1.47155e-12
-1.96021e-12
-2.17733e-12
-1.92171e-12
-7.50633e-12
-4.98159e-11
-7.19992e-11
-6.30876e-11
-7.50609e-11
-7.66238e-11
-7.66248e-11
-7.72087e-11
-7.87329e-11
-8.03121e-11
-8.12269e-11
-8.16296e-11
-8.18141e-11
-8.19159e-11
-8.1979e-11
-8.2017e-11
-8.2037e-11
-8.20456e-11
-8.20487e-11
-8.20497e-11
-8.205e-11
-8.20502e-11
-8.20502e-11
-8.20501e-11
-8.205e-11
-8.20495e-11
-8.20467e-11
-8.20182e-11
-8.13895e-11
)
;

boundaryField
{
    inlet
    {
        type            cyclic;
        value           nonuniform List<scalar> 
120
(
-2.57833e-27
-7.74024e-27
-1.29144e-26
-1.81087e-26
-2.33316e-26
-2.85912e-26
-3.38959e-26
-3.92534e-26
-4.46727e-26
-5.01629e-26
-5.5732e-26
-6.13887e-26
-6.71426e-26
-7.30017e-26
-7.8975e-26
-8.50718e-26
-9.13012e-26
-9.76727e-26
-1.04196e-25
-1.1088e-25
-1.17736e-25
-1.24772e-25
-1.31999e-25
-1.39428e-25
-1.47076e-25
-1.54947e-25
-1.63049e-25
-1.71389e-25
-1.79983e-25
-1.88841e-25
-1.97963e-25
-2.0736e-25
-2.17054e-25
-2.27055e-25
-2.37373e-25
-2.47999e-25
-2.58738e-25
-2.69826e-25
-2.81257e-25
-2.93074e-25
-3.0524e-25
-3.17814e-25
-3.30772e-25
-3.44141e-25
-3.57931e-25
-3.72172e-25
-3.86816e-25
-4.01915e-25
-4.17458e-25
-4.33522e-25
-4.50076e-25
-4.67135e-25
-4.84714e-25
-5.02827e-25
-5.21495e-25
-5.4076e-25
-5.60619e-25
-5.811e-25
-6.02238e-25
-6.24133e-25
-6.46746e-25
-6.70122e-25
-6.9431e-25
-7.19367e-25
-7.45358e-25
-7.72285e-25
-8.00372e-25
-8.29637e-25
-8.60185e-25
-8.92136e-25
-9.25644e-25
-9.60818e-25
-9.98e-25
-1.03752e-24
-1.0798e-24
-1.12529e-24
-1.17444e-24
-1.22747e-24
-1.2842e-24
-1.34363e-24
-1.40369e-24
-1.46108e-24
-1.51158e-24
-1.55093e-24
-1.57691e-24
-1.61014e-24
-2.09728e-23
-2.90166e-23
-2.5472e-23
-2.20047e-23
-1.96061e-23
-1.89127e-23
-1.82886e-23
-1.66104e-23
-1.38841e-23
-1.29888e-23
-1.29813e-23
-1.29612e-23
-1.07015e-23
-6.56548e-24
-3.45836e-24
-1.91847e-24
-1.18279e-24
-7.66861e-25
-4.93497e-25
-3.11415e-25
-2.04254e-25
-1.52557e-25
-1.32285e-25
-1.25469e-25
-1.23192e-25
-1.22255e-25
-1.21765e-25
-1.21474e-25
-1.21303e-25
-1.21216e-25
-1.21212e-25
-1.21419e-25
-1.22532e-25
-1.25624e-25
)
;
    }
    outlet
    {
        type            cyclic;
        value           nonuniform List<scalar> 
120
(
2.57833e-27
7.74024e-27
1.29144e-26
1.81087e-26
2.33316e-26
2.85912e-26
3.38959e-26
3.92534e-26
4.46727e-26
5.01629e-26
5.5732e-26
6.13887e-26
6.71426e-26
7.30017e-26
7.8975e-26
8.50718e-26
9.13012e-26
9.76727e-26
1.04196e-25
1.1088e-25
1.17736e-25
1.24772e-25
1.31999e-25
1.39428e-25
1.47076e-25
1.54947e-25
1.63049e-25
1.71389e-25
1.79983e-25
1.88841e-25
1.97963e-25
2.0736e-25
2.17054e-25
2.27055e-25
2.37373e-25
2.47999e-25
2.58738e-25
2.69826e-25
2.81257e-25
2.93074e-25
3.0524e-25
3.17814e-25
3.30772e-25
3.44141e-25
3.57931e-25
3.72172e-25
3.86816e-25
4.01915e-25
4.17458e-25
4.33522e-25
4.50076e-25
4.67135e-25
4.84714e-25
5.02827e-25
5.21495e-25
5.4076e-25
5.60619e-25
5.811e-25
6.02238e-25
6.24133e-25
6.46746e-25
6.70122e-25
6.9431e-25
7.19367e-25
7.45358e-25
7.72285e-25
8.00372e-25
8.29637e-25
8.60185e-25
8.92136e-25
9.25644e-25
9.60818e-25
9.98e-25
1.03752e-24
1.0798e-24
1.12529e-24
1.17444e-24
1.22747e-24
1.2842e-24
1.34363e-24
1.40369e-24
1.46108e-24
1.51158e-24
1.55093e-24
1.57691e-24
1.61014e-24
2.09728e-23
2.90166e-23
2.5472e-23
2.20047e-23
1.96061e-23
1.89127e-23
1.82886e-23
1.66104e-23
1.38841e-23
1.29888e-23
1.29813e-23
1.29612e-23
1.07015e-23
6.56548e-24
3.45836e-24
1.91847e-24
1.18279e-24
7.66861e-25
4.93497e-25
3.11415e-25
2.04254e-25
1.52557e-25
1.32285e-25
1.25469e-25
1.23192e-25
1.22255e-25
1.21765e-25
1.21474e-25
1.21303e-25
1.21216e-25
1.21212e-25
1.21419e-25
1.22532e-25
1.25624e-25
)
;
    }
    top
    {
        type            fixedValue;
        value           uniform 0;
    }
    bottom
    {
        type            fixedValue;
        value           uniform 0;
    }
    frontAndBackPlanes
    {
        type            empty;
        value           nonuniform List<scalar> 0();
    }
}


// ************************************************************************* //
