/*--------------------------------*- C++ -*----------------------------------*\
| =========                 |                                                 |
| \\      /  F ield         | OpenFOAM: The Open Source CFD Toolbox           |
|  \\    /   O peration     | Version:  2206                                  |
|   \\  /    A nd           | Website:  www.openfoam.com                      |
|    \\/     M anipulation  |                                                 |
\*---------------------------------------------------------------------------*/
FoamFile
{
    version     2.0;
    format      ascii;
    arch        "LSB;label=32;scalar=64";
    class       volVectorField;
    location    "1280";
    object      U.a;
}
// * * * * * * * * * * * * * * * * * * * * * * * * * * * * * * * * * * * * * //

dimensions      [0 1 -1 0 0 0 0];

internalField   nonuniform List<vector> 
120
(
(8.59445e-21 1.43728e-08 0)
(2.58008e-20 -3.61649e-09 0)
(4.30478e-20 -6.90904e-09 0)
(6.03624e-20 -8.94656e-09 0)
(7.7772e-20 -1.2375e-08 0)
(9.53041e-20 -1.44276e-08 0)
(1.12986e-19 -1.79899e-08 0)
(1.30845e-19 -2.00678e-08 0)
(1.48909e-19 -2.37614e-08 0)
(1.6721e-19 -2.58757e-08 0)
(1.85773e-19 -2.96975e-08 0)
(2.04629e-19 -3.18607e-08 0)
(2.23809e-19 -3.58073e-08 0)
(2.43339e-19 -3.80329e-08 0)
(2.6325e-19 -4.21006e-08 0)
(2.83573e-19 -4.44028e-08 0)
(3.04337e-19 -4.85881e-08 0)
(3.25576e-19 -5.0982e-08 0)
(3.47319e-19 -5.52813e-08 0)
(3.69601e-19 -5.77825e-08 0)
(3.92452e-19 -6.21926e-08 0)
(4.15907e-19 -6.4817e-08 0)
(4.39998e-19 -6.93352e-08 0)
(4.6476e-19 -7.20994e-08 0)
(4.90255e-19 -7.67236e-08 0)
(5.16489e-19 -7.96442e-08 0)
(5.43496e-19 -8.43738e-08 0)
(5.71297e-19 -8.74676e-08 0)
(5.99943e-19 -9.23033e-08 0)
(6.29469e-19 -9.55875e-08 0)
(6.59876e-19 -1.00532e-07 0)
(6.91199e-19 -1.04024e-07 0)
(7.23513e-19 -1.09083e-07 0)
(7.56852e-19 -1.128e-07 0)
(7.91244e-19 -1.1798e-07 0)
(8.26663e-19 -1.21941e-07 0)
(8.6246e-19 -1.27254e-07 0)
(8.9942e-19 -1.31477e-07 0)
(9.37524e-19 -1.36935e-07 0)
(9.76913e-19 -1.41438e-07 0)
(1.01747e-18 -1.47059e-07 0)
(1.05938e-18 -1.5186e-07 0)
(1.10257e-18 -1.57663e-07 0)
(1.14714e-18 -1.62782e-07 0)
(1.1931e-18 -1.68789e-07 0)
(1.24057e-18 -1.74244e-07 0)
(1.28939e-18 -1.80482e-07 0)
(1.33972e-18 -1.86296e-07 0)
(1.39153e-18 -1.92797e-07 0)
(1.44507e-18 -1.98995e-07 0)
(1.50025e-18 -2.05799e-07 0)
(1.55712e-18 -2.12416e-07 0)
(1.61571e-18 -2.19572e-07 0)
(1.67609e-18 -2.2665e-07 0)
(1.73832e-18 -2.34219e-07 0)
(1.80253e-18 -2.41813e-07 0)
(1.86873e-18 -2.49867e-07 0)
(1.937e-18 -2.58041e-07 0)
(2.00746e-18 -2.66662e-07 0)
(2.08044e-18 -2.7549e-07 0)
(2.15582e-18 -2.84765e-07 0)
(2.23374e-18 -2.94328e-07 0)
(2.31437e-18 -3.04348e-07 0)
(2.39789e-18 -3.14732e-07 0)
(2.48453e-18 -3.25601e-07 0)
(2.57428e-18 -3.36916e-07 0)
(2.66791e-18 -3.48778e-07 0)
(2.76546e-18 -3.61202e-07 0)
(2.86728e-18 -3.74297e-07 0)
(2.97379e-18 -3.88145e-07 0)
(3.08548e-18 -4.02895e-07 0)
(3.20273e-18 -4.18709e-07 0)
(3.32667e-18 -4.35807e-07 0)
(3.45841e-18 -4.54432e-07 0)
(3.59933e-18 -4.74883e-07 0)
(3.75097e-18 -4.97452e-07 0)
(3.91479e-18 -5.22529e-07 0)
(4.09158e-18 -5.50395e-07 0)
(4.28067e-18 -5.8142e-07 0)
(4.47877e-18 -6.16902e-07 0)
(4.67897e-18 -6.59147e-07 0)
(4.87027e-18 -7.06435e-07 0)
(5.0386e-18 -7.52167e-07 0)
(5.16978e-18 -7.96209e-07 0)
(5.25635e-18 -8.28206e-07 0)
(5.36713e-18 -8.54218e-07 0)
(6.99095e-17 -1.58334e-05 0)
(9.67221e-17 -6.91908e-06 0)
(8.49066e-17 -3.48882e-09 0)
(7.3349e-17 1.17792e-05 0)
(6.53537e-17 -0.000107506 0)
(6.30424e-17 -0.00025688 0)
(6.0962e-17 -0.000190395 0)
(5.53681e-17 -0.000140924 0)
(4.62802e-17 -0.000204193 0)
(4.32961e-17 -0.000212856 0)
(4.3271e-17 -0.000212832 0)
(4.32039e-17 -0.000212861 0)
(3.56716e-17 -0.000216076 0)
(2.18849e-17 -0.000221329 0)
(1.15279e-17 -0.000224849 0)
(6.39491e-18 -0.000226411 0)
(3.94263e-18 -0.000227086 0)
(2.5562e-18 -0.000227437 0)
(1.64499e-18 -0.000227652 0)
(1.03805e-18 -0.000227787 0)
(6.80846e-19 -0.000227863 0)
(5.08524e-19 -0.000227898 0)
(4.40951e-19 -0.000227911 0)
(4.18229e-19 -0.000227915 0)
(4.10639e-19 -0.000227917 0)
(4.07517e-19 -0.000227917 0)
(4.05884e-19 -0.000227917 0)
(4.04914e-19 -0.000227917 0)
(4.04342e-19 -0.000227917 0)
(4.04052e-19 -0.000227916 0)
(4.04041e-19 -0.000227914 0)
(4.04732e-19 -0.000227901 0)
(4.0844e-19 -0.000227756 0)
(4.18748e-19 -0.000224408 0)
)
;

boundaryField
{
    inlet
    {
        type            cyclic;
    }
    outlet
    {
        type            cyclic;
    }
    top
    {
        type            fixedValue;
        value           uniform (0 0 0);
    }
    bottom
    {
        type            fixedValue;
        value           uniform (0 0 0);
    }
    frontAndBackPlanes
    {
        type            empty;
    }
}


// ************************************************************************* //
