/*--------------------------------*- C++ -*----------------------------------*\
| =========                 |                                                 |
| \\      /  F ield         | OpenFOAM: The Open Source CFD Toolbox           |
|  \\    /   O peration     | Version:  2206                                  |
|   \\  /    A nd           | Website:  www.openfoam.com                      |
|    \\/     M anipulation  |                                                 |
\*---------------------------------------------------------------------------*/
FoamFile
{
    version     2.0;
    format      ascii;
    arch        "LSB;label=32;scalar=64";
    class       volVectorField;
    location    "1280";
    object      U.b;
}
// * * * * * * * * * * * * * * * * * * * * * * * * * * * * * * * * * * * * * //

dimensions      [0 1 -1 0 0 0 0];

internalField   nonuniform List<vector> 
120
(
(8.59445e-21 1.73459e-08 0)
(2.58009e-20 6.21363e-09 0)
(4.30596e-20 9.53916e-09 0)
(6.03624e-20 1.42476e-08 0)
(7.7772e-20 1.76415e-08 0)
(9.53044e-20 2.25142e-08 0)
(1.13049e-19 2.59536e-08 0)
(1.30845e-19 3.10011e-08 0)
(1.48826e-19 3.44998e-08 0)
(1.67209e-19 3.97208e-08 0)
(1.85773e-19 4.32928e-08 0)
(2.04513e-19 4.86857e-08 0)
(2.23808e-19 5.23461e-08 0)
(2.43339e-19 5.7909e-08 0)
(2.6325e-19 6.16744e-08 0)
(2.83573e-19 6.74055e-08 0)
(3.04337e-19 7.12931e-08 0)
(3.25576e-19 7.71904e-08 0)
(3.47319e-19 8.12186e-08 0)
(3.69601e-19 8.72808e-08 0)
(3.92452e-19 9.14688e-08 0)
(4.15907e-19 9.76946e-08 0)
(4.39994e-19 1.02062e-07 0)
(4.63725e-19 1.08451e-07 0)
(4.9025e-19 1.13018e-07 0)
(5.16491e-19 1.19571e-07 0)
(5.44095e-19 1.24358e-07 0)
(5.713e-19 1.31078e-07 0)
(5.99949e-19 1.36107e-07 0)
(6.30843e-19 1.42998e-07 0)
(6.61308e-19 1.48291e-07 0)
(6.91205e-19 1.5536e-07 0)
(7.23513e-19 1.6094e-07 0)
(7.56852e-19 1.68197e-07 0)
(7.91236e-19 1.74089e-07 0)
(8.24913e-19 1.81547e-07 0)
(8.60655e-19 1.87774e-07 0)
(9.01277e-19 1.95452e-07 0)
(9.35607e-19 2.0204e-07 0)
(9.80924e-19 2.09958e-07 0)
(1.01541e-18 2.16932e-07 0)
(1.06153e-18 2.25114e-07 0)
(1.10258e-18 2.325e-07 0)
(1.14712e-18 2.40975e-07 0)
(1.19073e-18 2.488e-07 0)
(1.24551e-18 2.576e-07 0)
(1.28942e-18 2.65894e-07 0)
(1.34234e-18 2.75057e-07 0)
(1.38607e-18 2.83855e-07 0)
(1.44505e-18 2.93429e-07 0)
(1.50025e-18 3.02773e-07 0)
(1.55712e-18 3.12817e-07 0)
(1.61571e-18 3.22761e-07 0)
(1.67608e-18 3.33348e-07 0)
(1.735e-18 3.43962e-07 0)
(1.80252e-18 3.55183e-07 0)
(1.86873e-18 3.66551e-07 0)
(1.93703e-18 3.78509e-07 0)
(2.015e-18 3.90726e-07 0)
(2.08048e-18 4.03535e-07 0)
(2.15582e-18 4.16707e-07 0)
(2.23374e-18 4.30486e-07 0)
(2.31437e-18 4.44723e-07 0)
(2.39793e-18 4.59598e-07 0)
(2.49366e-18 4.75031e-07 0)
(2.56483e-18 4.91162e-07 0)
(2.66786e-18 5.0798e-07 0)
(2.76546e-18 5.25621e-07 0)
(2.86728e-18 5.44153e-07 0)
(2.97384e-18 5.63751e-07 0)
(3.0968e-18 5.84579e-07 0)
(3.20278e-18 6.06892e-07 0)
(3.32667e-18 6.30962e-07 0)
(3.45841e-18 6.57145e-07 0)
(3.59933e-18 6.85798e-07 0)
(3.75097e-18 7.17365e-07 0)
(3.91479e-18 7.52233e-07 0)
(4.09158e-18 7.90823e-07 0)
(4.28067e-18 8.3402e-07 0)
(4.47877e-18 8.83532e-07 0)
(4.67897e-18 9.39715e-07 0)
(4.87027e-18 9.98928e-07 0)
(5.0386e-18 1.05695e-06 0)
(5.1698e-18 1.1099e-06 0)
(5.2589e-18 1.18871e-06 0)
(5.80203e-18 2.35792e-06 0)
(7.09432e-17 -8.84551e-06 0)
(9.6721e-17 4.28521e-06 0)
(8.49066e-17 1.17111e-05 0)
(7.33491e-17 2.40171e-05 0)
(6.53538e-17 -9.54618e-05 0)
(6.30428e-17 -0.000189984 0)
(6.09981e-17 5.8053e-05 0)
(5.78991e-17 2.35521e-05 0)
(5.49323e-17 -1.28206e-06 0)
(5.20905e-17 -1.92913e-06 0)
(4.93607e-17 -1.64458e-07 0)
(4.67302e-17 1.22345e-07 0)
(4.41885e-17 2.74121e-08 0)
(4.17271e-17 -3.45519e-09 0)
(3.93379e-17 -2.6563e-09 0)
(3.70132e-17 -3.35223e-10 0)
(3.47461e-17 1.55328e-10 0)
(3.25305e-17 3.42229e-11 0)
(3.0361e-17 -1.11074e-11 0)
(2.82326e-17 -3.16678e-12 0)
(2.61412e-17 8.27199e-13 0)
(2.40828e-17 1.15918e-12 0)
(2.20542e-17 6.73459e-13 0)
(2.00521e-17 1.75144e-13 0)
(1.80737e-17 -3.30754e-13 0)
(1.61164e-17 -7.25747e-13 0)
(1.41776e-17 -4.451e-13 0)
(1.2255e-17 1.05786e-13 0)
(1.03464e-17 7.64919e-13 0)
(8.4494e-18 3.63621e-13 0)
(6.56192e-18 -2.29368e-13 0)
(4.6818e-18 -1.91429e-13 0)
(2.80692e-18 -1.47929e-13 0)
(9.35191e-19 1.91851e-14 0)
)
;

boundaryField
{
    inlet
    {
        type            cyclic;
    }
    outlet
    {
        type            cyclic;
    }
    top
    {
        type            fixedValue;
        value           uniform (0 0 0);
    }
    bottom
    {
        type            fixedValue;
        value           uniform (0 0 0);
    }
    frontAndBackPlanes
    {
        type            empty;
    }
}


// ************************************************************************* //
