/*--------------------------------*- C++ -*----------------------------------*\
| =========                 |                                                 |
| \\      /  F ield         | OpenFOAM: The Open Source CFD Toolbox           |
|  \\    /   O peration     | Version:  v2006                                 |
|   \\  /    A nd           | Website:  www.openfoam.com                      |
|    \\/     M anipulation  |                                                 |
\*---------------------------------------------------------------------------*/
FoamFile
{
    version     2.0;
    format      ascii;
    class       volScalarField;
    location    "120";
    object      p;
}
// * * * * * * * * * * * * * * * * * * * * * * * * * * * * * * * * * * * * * //

dimensions      [1 -1 -2 0 0 0 0];


internalField   nonuniform List<scalar> 
120
(
21.8893
17.2264
12.5595
7.88786
3.20988
-1.47773
-6.1793
-10.8938
-15.6084
-20.5022
-25.4133
-30.3202
-35.2257
-40.1309
-45.036
-49.941
-54.846
-59.751
-64.656
-69.561
-74.466
-79.371
-84.276
-89.181
-94.086
-98.991
-103.896
-108.801
-113.706
-118.611
-123.516
-128.421
-133.326
-138.231
-143.136
-148.041
-152.946
-157.851
-162.756
-167.661
-172.566
-177.471
-182.376
-187.281
-192.186
-197.091
-201.996
-206.901
-211.806
-216.711
-221.616
-226.521
-231.426
-236.331
-241.236
-246.141
-251.046
-255.951
-260.856
-265.761
-270.666
-275.571
-280.476
-285.381
-290.286
-295.191
-300.096
-305.001
-309.906
-314.811
-319.716
-324.621
-329.526
-334.431
-339.336
-344.241
-349.146
-354.051
-358.956
-363.861
-368.766
-373.671
-378.576
-383.481
-388.386
-393.291
-398.196
-403.101
-408.006
-412.911
-417.816
-422.721
-427.626
-432.531
-437.436
-442.341
-447.246
-452.151
-457.056
-461.961
-466.866
-471.771
-476.676
-481.581
-486.487
-491.411
-496.242
-500.923
-505.584
-510.243
-514.902
-519.562
-524.222
-528.882
-533.541
-538.201
-542.861
-547.521
-552.18
-556.84
)
;

boundaryField
{
    inlet
    {
        type            cyclic;
    }
    outlet
    {
        type            cyclic;
    }
    top
    {
        type            calculated;
        value           uniform -559.17;
    }
    bottom
    {
        type            calculated;
        value           uniform 24.2192;
    }
    frontAndBackPlanes
    {
        type            empty;
    }
}


// ************************************************************************* //
