/*--------------------------------*- C++ -*----------------------------------*\
| =========                 |                                                 |
| \\      /  F ield         | OpenFOAM: The Open Source CFD Toolbox           |
|  \\    /   O peration     | Version:  v2006                                 |
|   \\  /    A nd           | Website:  www.openfoam.com                      |
|    \\/     M anipulation  |                                                 |
\*---------------------------------------------------------------------------*/
FoamFile
{
    version     2.0;
    format      ascii;
    class       volScalarField;
    location    "120";
    object      p_rbgh;
}
// * * * * * * * * * * * * * * * * * * * * * * * * * * * * * * * * * * * * * //

dimensions      [1 -1 -2 0 0 0 0];


internalField   nonuniform List<scalar> 
120
(
24.2192
24.216
24.2089
24.197
24.1788
24.1509
24.1091
24.0543
23.9995
23.7654
23.5141
23.267
23.0211
22.7757
22.5304
22.2852
22.0399
21.7947
21.5494
21.3042
21.0589
20.8137
20.5684
20.3232
20.0779
19.8327
19.5874
19.3422
19.0969
18.8517
18.6064
18.3612
18.1159
17.8707
17.6254
17.3802
17.1349
16.8897
16.6444
16.3992
16.1539
15.9087
15.6634
15.4182
15.1729
14.9277
14.6824
14.4372
14.1919
13.9467
13.7014
13.4562
13.2109
12.9657
12.7204
12.4752
12.2299
11.9847
11.7394
11.4942
11.2489
11.0037
10.7584
10.5132
10.2679
10.0227
9.7774
9.53215
9.2869
9.04165
8.7964
8.55115
8.3059
8.06065
7.8154
7.57015
7.3249
7.07965
6.8344
6.58915
6.3439
6.09865
5.8534
5.60815
5.3629
5.11765
4.8724
4.62716
4.38191
4.13666
3.89141
3.64616
3.40091
3.15566
2.91041
2.66516
2.41991
2.17466
1.92941
1.68417
1.43889
1.19372
0.94836
0.703179
0.456559
0.192673
0.0213676
4.44186e-05
-0.000733486
-0.000170771
2.84333e-05
1.62957e-05
-1.68665e-06
-1.46001e-06
-1.56238e-07
-6.34607e-08
-1.37269e-07
-1.00722e-07
-5.01181e-08
-1.00672e-08
)
;

boundaryField
{
    inlet
    {
        type            cyclic;
    }
    outlet
    {
        type            cyclic;
    }
    top
    {
        type            fixedValue;
        value           uniform 0;
    }
    bottom
    {
        type            fixedFluxPressure;
        gradient        uniform 0;
        value           uniform 24.2192;
    }
    frontAndBackPlanes
    {
        type            empty;
    }
}


// ************************************************************************* //
