/*--------------------------------*- C++ -*----------------------------------*\
| =========                 |                                                 |
| \\      /  F ield         | OpenFOAM: The Open Source CFD Toolbox           |
|  \\    /   O peration     | Version:  v2006                                 |
|   \\  /    A nd           | Website:  www.openfoam.com                      |
|    \\/     M anipulation  |                                                 |
\*---------------------------------------------------------------------------*/
FoamFile
{
    version     2.0;
    format      ascii;
    class       surfaceScalarField;
    location    "120";
    object      phia;
}
// * * * * * * * * * * * * * * * * * * * * * * * * * * * * * * * * * * * * * //

dimensions      [0 3 -1 0 0 0 0];
oriented        oriented;


internalField   nonuniform List<scalar> 
119
(
-9.29243e-15
-2.08961e-14
-3.55672e-14
-5.50606e-14
-8.53938e-14
-1.30306e-13
-1.75025e-13
-2.25342e-13
-1.42942e-12
-2.03274e-12
-2.22268e-12
-2.28995e-12
-2.31321e-12
-2.32042e-12
-2.32254e-12
-2.32312e-12
-2.32326e-12
-2.3233e-12
-2.32331e-12
-2.32331e-12
-2.32331e-12
-2.32331e-12
-2.32331e-12
-2.32331e-12
-2.32331e-12
-2.32331e-12
-2.32331e-12
-2.32331e-12
-2.32331e-12
-2.32331e-12
-2.32331e-12
-2.32331e-12
-2.32331e-12
-2.32331e-12
-2.32331e-12
-2.32331e-12
-2.32331e-12
-2.32331e-12
-2.32331e-12
-2.32331e-12
-2.32331e-12
-2.32331e-12
-2.32331e-12
-2.32331e-12
-2.32331e-12
-2.32331e-12
-2.32331e-12
-2.32331e-12
-2.32331e-12
-2.32331e-12
-2.32331e-12
-2.32331e-12
-2.32331e-12
-2.32331e-12
-2.32331e-12
-2.32331e-12
-2.32331e-12
-2.32331e-12
-2.32331e-12
-2.32331e-12
-2.32331e-12
-2.32331e-12
-2.32331e-12
-2.32331e-12
-2.32331e-12
-2.32331e-12
-2.32331e-12
-2.32331e-12
-2.32331e-12
-2.32331e-12
-2.32331e-12
-2.32331e-12
-2.32331e-12
-2.32331e-12
-2.32331e-12
-2.32331e-12
-2.32331e-12
-2.32331e-12
-2.32331e-12
-2.32331e-12
-2.32331e-12
-2.32331e-12
-2.32331e-12
-2.32332e-12
-2.32332e-12
-2.32332e-12
-2.32332e-12
-2.32332e-12
-2.32332e-12
-2.32332e-12
-2.32332e-12
-2.32332e-12
-2.32332e-12
-2.32332e-12
-2.32332e-12
-2.32332e-12
-2.32333e-12
-2.32325e-12
-2.32356e-12
-2.32248e-12
-2.32615e-12
-2.31583e-12
-2.33767e-12
-2.34786e-12
-1.97913e-12
-8.31447e-12
-3.41252e-11
-7.99624e-11
-8.24257e-11
-8.22566e-11
-8.22728e-11
-8.22738e-11
-8.22767e-11
-8.22768e-11
-8.22766e-11
-8.22766e-11
-8.22766e-11
-8.22565e-11
-8.21698e-11
)
;

boundaryField
{
    inlet
    {
        type            cyclic;
        value           nonuniform List<scalar> 
120
(
-2.29856e-29
-5.0123e-29
-2.46492e-29
1.46073e-28
5.43764e-28
1.51932e-27
3.80101e-27
8.18021e-27
1.80503e-26
7.35986e-25
8.7773e-25
1.23942e-24
6.78172e-25
3.37951e-25
1.52838e-25
6.46049e-26
3.21122e-26
3.74825e-26
9.01421e-26
2.35197e-25
5.65442e-25
1.2238e-24
2.37311e-24
4.14204e-24
1.74965e-24
-3.09051e-25
-2.4746e-24
-2.86263e-24
-4.3117e-24
-7.20005e-24
-6.97579e-24
-3.51532e-24
-1.12224e-24
8.24014e-25
2.94752e-24
5.74733e-24
4.69321e-24
-4.00538e-25
-4.90966e-25
-5.63072e-24
-1.96627e-24
-3.95872e-24
-2.12535e-24
-1.19788e-24
-1.13552e-24
-6.75109e-24
-3.77211e-24
-1.44104e-24
5.53843e-24
3.43373e-24
2.04747e-24
1.43443e-24
1.58496e-24
2.46994e-24
4.04285e-24
1.35695e-24
-1.27109e-24
-4.44051e-24
-8.74623e-24
-5.0382e-24
-2.81386e-24
-1.838e-24
-1.86227e-24
-2.66233e-24
-4.0551e-24
3.7379e-24
1.98214e-24
2.17152e-25
-1.86002e-24
-4.70903e-24
-8.82615e-24
-4.96775e-24
-2.52993e-24
-1.15851e-24
-4.77863e-25
-1.78678e-25
-6.29586e-26
-2.9102e-26
-4.24476e-26
-1.21925e-25
-3.56886e-25
-9.57605e-25
-2.32478e-24
-5.08658e-24
-1.00189e-23
-1.78882e-23
-1.00188e-23
-5.08653e-24
-2.32473e-24
-9.57517e-25
-3.5655e-25
-1.20552e-25
-3.71894e-26
-1.05198e-26
-2.7418e-27
-6.61443e-28
-1.48332e-28
-3.10446e-29
-6.0858e-30
-1.12133e-30
-1.94657e-31
-3.20148e-32
-4.95516e-33
-7.45464e-34
-1.03863e-34
-1.38067e-35
-7.93258e-36
-6.27036e-36
-4.48889e-36
-3.19932e-36
-2.27234e-36
-1.60852e-36
-1.13386e-36
-7.95081e-37
-5.5325e-37
-3.79967e-37
-2.54439e-37
-1.61309e-37
-8.89267e-38
-2.80698e-38
)
;
    }
    outlet
    {
        type            cyclic;
        value           nonuniform List<scalar> 
120
(
2.29856e-29
5.0123e-29
2.46492e-29
-1.46073e-28
-5.43764e-28
-1.51932e-27
-3.80101e-27
-8.18021e-27
-1.80503e-26
-7.35986e-25
-8.7773e-25
-1.23942e-24
-6.78172e-25
-3.37951e-25
-1.52838e-25
-6.46049e-26
-3.21122e-26
-3.74825e-26
-9.01421e-26
-2.35197e-25
-5.65442e-25
-1.2238e-24
-2.37311e-24
-4.14204e-24
-1.74965e-24
3.09051e-25
2.4746e-24
2.86263e-24
4.3117e-24
7.20005e-24
6.97579e-24
3.51532e-24
1.12224e-24
-8.24014e-25
-2.94752e-24
-5.74733e-24
-4.69321e-24
4.00538e-25
4.90966e-25
5.63072e-24
1.96627e-24
3.95872e-24
2.12535e-24
1.19788e-24
1.13552e-24
6.75109e-24
3.77211e-24
1.44104e-24
-5.53843e-24
-3.43373e-24
-2.04747e-24
-1.43443e-24
-1.58496e-24
-2.46994e-24
-4.04285e-24
-1.35695e-24
1.27109e-24
4.44051e-24
8.74623e-24
5.0382e-24
2.81386e-24
1.838e-24
1.86227e-24
2.66233e-24
4.0551e-24
-3.7379e-24
-1.98214e-24
-2.17152e-25
1.86002e-24
4.70903e-24
8.82615e-24
4.96775e-24
2.52993e-24
1.15851e-24
4.77863e-25
1.78678e-25
6.29586e-26
2.9102e-26
4.24476e-26
1.21925e-25
3.56886e-25
9.57605e-25
2.32478e-24
5.08658e-24
1.00189e-23
1.78882e-23
1.00188e-23
5.08653e-24
2.32473e-24
9.57517e-25
3.5655e-25
1.20552e-25
3.71894e-26
1.05198e-26
2.7418e-27
6.61443e-28
1.48332e-28
3.10446e-29
6.0858e-30
1.12133e-30
1.94657e-31
3.20148e-32
4.95516e-33
7.45464e-34
1.03863e-34
1.38067e-35
7.93258e-36
6.27036e-36
4.48889e-36
3.19932e-36
2.27234e-36
1.60852e-36
1.13386e-36
7.95081e-37
5.5325e-37
3.79967e-37
2.54439e-37
1.61309e-37
8.89267e-38
2.80698e-38
)
;
    }
    top
    {
        type            fixedValue;
        value           uniform 0;
    }
    bottom
    {
        type            fixedValue;
        value           uniform 0;
    }
    frontAndBackPlanes
    {
        type            empty;
        value           nonuniform List<scalar> 0();
    }
}


// ************************************************************************* //
