/*--------------------------------*- C++ -*----------------------------------*\
| =========                 |                                                 |
| \\      /  F ield         | OpenFOAM: The Open Source CFD Toolbox           |
|  \\    /   O peration     | Version:  v2006                                 |
|   \\  /    A nd           | Website:  www.openfoam.com                      |
|    \\/     M anipulation  |                                                 |
\*---------------------------------------------------------------------------*/
FoamFile
{
    version     2.0;
    format      ascii;
    class       surfaceScalarField;
    location    "120";
    object      phib;
}
// * * * * * * * * * * * * * * * * * * * * * * * * * * * * * * * * * * * * * //

dimensions      [0 3 -1 0 0 0 0];
oriented        oriented;


internalField   nonuniform List<scalar> 
119
(
1.33417e-14
2.99178e-14
5.07512e-14
7.82535e-14
1.20828e-13
1.83539e-13
2.44898e-13
2.95352e-13
1.65025e-12
2.14108e-12
2.26203e-12
2.30326e-12
2.31732e-12
2.3216e-12
2.32286e-12
2.3232e-12
2.32329e-12
2.32331e-12
2.32331e-12
2.32331e-12
2.32331e-12
2.32331e-12
2.32331e-12
2.32331e-12
2.32331e-12
2.32331e-12
2.32331e-12
2.32331e-12
2.32331e-12
2.32331e-12
2.32331e-12
2.32331e-12
2.32331e-12
2.32331e-12
2.32331e-12
2.32331e-12
2.32331e-12
2.32331e-12
2.32331e-12
2.32331e-12
2.32331e-12
2.32331e-12
2.32331e-12
2.32331e-12
2.32331e-12
2.32331e-12
2.32331e-12
2.32331e-12
2.32331e-12
2.32331e-12
2.32331e-12
2.32331e-12
2.32331e-12
2.32331e-12
2.32331e-12
2.32331e-12
2.32331e-12
2.32331e-12
2.32331e-12
2.32331e-12
2.32331e-12
2.32331e-12
2.32331e-12
2.32331e-12
2.32331e-12
2.32331e-12
2.32331e-12
2.32331e-12
2.32331e-12
2.32331e-12
2.32331e-12
2.32331e-12
2.32331e-12
2.32331e-12
2.32331e-12
2.32331e-12
2.32331e-12
2.32331e-12
2.32331e-12
2.32332e-12
2.32332e-12
2.32332e-12
2.32332e-12
2.32332e-12
2.32332e-12
2.32332e-12
2.32332e-12
2.32332e-12
2.32332e-12
2.32332e-12
2.32332e-12
2.32332e-12
2.32332e-12
2.32332e-12
2.32332e-12
2.32332e-12
2.32333e-12
2.32328e-12
2.32348e-12
2.32275e-12
2.32516e-12
2.31894e-12
2.33111e-12
2.32985e-12
2.06117e-12
5.22054e-12
4.86892e-12
4.36105e-15
2.76215e-16
-1.4546e-17
-1.93991e-17
-2.55278e-17
-3.04849e-17
-3.65303e-17
-3.9547e-17
-4.31741e-17
-4.34666e-17
-4.46862e-17
-4.21589e-17
)
;

boundaryField
{
    inlet
    {
        type            cyclic;
        value           nonuniform List<scalar> 
120
(
-2.29866e-29
-5.03156e-29
-6.52887e-29
1.4601e-28
5.45051e-28
1.52244e-27
3.37772e-27
8.27772e-27
2.45207e-26
7.35969e-25
8.77738e-25
1.23401e-24
6.7818e-25
3.37957e-25
1.52842e-25
6.46071e-26
3.21137e-26
3.74844e-26
9.01457e-26
2.35204e-25
5.65455e-25
1.22382e-24
2.37313e-24
4.12019e-24
1.74967e-24
-3.09053e-25
-2.46369e-24
-2.86267e-24
-4.31175e-24
-7.17824e-24
-6.95398e-24
-3.51536e-24
-1.12226e-24
8.2402e-25
2.94754e-24
5.72549e-24
4.67137e-24
-3.78663e-25
-5.12838e-25
-5.58701e-24
-1.98816e-24
-3.93689e-24
-2.12539e-24
-1.19792e-24
-1.15742e-24
-6.70738e-24
-3.77212e-24
-1.41918e-24
5.49471e-24
3.43375e-24
2.0475e-24
1.43446e-24
1.58499e-24
2.46996e-24
4.021e-24
1.35695e-24
-1.27111e-24
-4.44055e-24
-8.70254e-24
-5.03826e-24
-2.81391e-24
-1.83804e-24
-1.8623e-24
-2.66234e-24
-4.01138e-24
3.69416e-24
1.98213e-24
2.1714e-25
-1.86004e-24
-4.70908e-24
-8.78247e-24
-4.9678e-24
-2.52997e-24
-1.15853e-24
-4.77878e-25
-1.78685e-25
-6.29618e-26
-2.91038e-26
-4.24502e-26
-1.21931e-25
-3.56901e-25
-9.57635e-25
-2.32483e-24
-5.08666e-24
-1.0019e-23
-1.78009e-23
-1.00189e-23
-5.08662e-24
-2.32479e-24
-9.57548e-25
-3.56564e-25
-1.20558e-25
-3.71917e-26
-1.05205e-26
-2.74203e-27
-6.61505e-28
-1.48347e-28
-3.10483e-29
-6.08658e-30
-1.12148e-30
-1.94687e-31
-3.20201e-32
-4.95605e-33
-7.45604e-34
-1.03884e-34
-1.38087e-35
-7.93401e-36
-6.26864e-36
-4.48554e-36
-3.19862e-36
-2.27255e-36
-1.60863e-36
-1.13394e-36
-7.95143e-37
-5.53291e-37
-3.79992e-37
-2.54461e-37
-1.61325e-37
-8.89377e-38
-2.80742e-38
)
;
    }
    outlet
    {
        type            cyclic;
        value           nonuniform List<scalar> 
120
(
2.29866e-29
5.03156e-29
6.52887e-29
-1.4601e-28
-5.45051e-28
-1.52244e-27
-3.37772e-27
-8.27772e-27
-2.45207e-26
-7.35969e-25
-8.77738e-25
-1.23401e-24
-6.7818e-25
-3.37957e-25
-1.52842e-25
-6.46071e-26
-3.21137e-26
-3.74844e-26
-9.01457e-26
-2.35204e-25
-5.65455e-25
-1.22382e-24
-2.37313e-24
-4.12019e-24
-1.74967e-24
3.09053e-25
2.46369e-24
2.86267e-24
4.31175e-24
7.17824e-24
6.95398e-24
3.51536e-24
1.12226e-24
-8.2402e-25
-2.94754e-24
-5.72549e-24
-4.67137e-24
3.78663e-25
5.12838e-25
5.58701e-24
1.98816e-24
3.93689e-24
2.12539e-24
1.19792e-24
1.15742e-24
6.70738e-24
3.77212e-24
1.41918e-24
-5.49471e-24
-3.43375e-24
-2.0475e-24
-1.43446e-24
-1.58499e-24
-2.46996e-24
-4.021e-24
-1.35695e-24
1.27111e-24
4.44055e-24
8.70254e-24
5.03826e-24
2.81391e-24
1.83804e-24
1.8623e-24
2.66234e-24
4.01138e-24
-3.69416e-24
-1.98213e-24
-2.1714e-25
1.86004e-24
4.70908e-24
8.78247e-24
4.9678e-24
2.52997e-24
1.15853e-24
4.77878e-25
1.78685e-25
6.29618e-26
2.91038e-26
4.24502e-26
1.21931e-25
3.56901e-25
9.57635e-25
2.32483e-24
5.08666e-24
1.0019e-23
1.78009e-23
1.00189e-23
5.08662e-24
2.32479e-24
9.57548e-25
3.56564e-25
1.20558e-25
3.71917e-26
1.05205e-26
2.74203e-27
6.61505e-28
1.48347e-28
3.10483e-29
6.08658e-30
1.12148e-30
1.94687e-31
3.20201e-32
4.95605e-33
7.45604e-34
1.03884e-34
1.38087e-35
7.93401e-36
6.26864e-36
4.48554e-36
3.19862e-36
2.27255e-36
1.60863e-36
1.13394e-36
7.95143e-37
5.53291e-37
3.79992e-37
2.54461e-37
1.61325e-37
8.89377e-38
2.80742e-38
)
;
    }
    top
    {
        type            fixedValue;
        value           uniform 0;
    }
    bottom
    {
        type            fixedValue;
        value           uniform 0;
    }
    frontAndBackPlanes
    {
        type            empty;
        value           nonuniform List<scalar> 0();
    }
}


// ************************************************************************* //
