/*--------------------------------*- C++ -*----------------------------------*\
| =========                 |                                                 |
| \\      /  F ield         | OpenFOAM: The Open Source CFD Toolbox           |
|  \\    /   O peration     | Version:  v2006                                 |
|   \\  /    A nd           | Website:  www.openfoam.com                      |
|    \\/     M anipulation  |                                                 |
\*---------------------------------------------------------------------------*/
FoamFile
{
    version     2.0;
    format      ascii;
    class       volTensorField;
    location    "120";
    object      Taua;
}
// * * * * * * * * * * * * * * * * * * * * * * * * * * * * * * * * * * * * * //

dimensions      [1 -1 -2 0 0 0 0];


internalField   nonuniform List<tensor> 
120
(
(0.0182892 0 0 2.5588e-16 -0.0365784 0 0 0 0.0182892)
(0.0223205 0 0 5.82285e-18 -0.044641 0 0 0 0.0223205)
(0.0288844 0 0 -6.86688e-16 -0.0577687 0 0 0 0.0288844)
(0.0390513 0 0 -1.98945e-15 -0.0781026 0 0 0 0.0390513)
(0.0474712 0 0 -3.98958e-15 -0.0949425 0 0 0 0.0474712)
(0.0333043 0 0 -4.72454e-15 -0.0666087 0 0 0 0.0333043)
(0.0225909 0 0 -5.2726e-15 -0.0451817 0 0 0 0.0225909)
(0.0102835 0 0 -2.59619e-15 -0.0205669 0 0 0 0.0102835)
(9.30582e-07 0 0 -1.40692e-18 -1.86116e-06 0 0 0 9.30582e-07)
(5.49587e-07 0 0 -1.56278e-18 -1.09917e-06 0 0 0 5.49587e-07)
(7.39655e-08 0 0 -8.92583e-19 -1.47931e-07 0 0 0 7.39655e-08)
(3.95787e-07 0 0 3.50769e-19 -7.91574e-07 0 0 0 3.95787e-07)
(1.02377e-07 0 0 1.57975e-18 -2.04753e-07 0 0 0 1.02377e-07)
(3.12384e-08 0 0 9.197e-19 -6.24767e-08 0 0 0 3.12384e-08)
(1.0876e-08 0 0 4.78408e-19 -2.1752e-08 0 0 0 1.0876e-08)
(3.06725e-09 0 0 2.11275e-19 -6.1345e-09 0 0 0 3.06725e-09)
(7.90085e-10 0 0 4.74644e-20 -1.58017e-09 0 0 0 7.90085e-10)
(1.944e-10 0 0 -1.01552e-19 -3.888e-10 0 0 0 1.944e-10)
(4.45225e-11 0 0 -3.46001e-19 -8.90449e-11 0 0 0 4.45225e-11)
(8.90188e-12 0 0 -8.31775e-19 -1.78038e-11 0 0 0 8.90188e-12)
(2.14802e-12 0 0 -1.73005e-18 -4.29604e-12 0 0 0 2.14802e-12)
(3.47617e-13 0 0 -3.16342e-18 -6.95234e-13 0 0 0 3.47617e-13)
(1.0666e-12 0 0 -5.10692e-18 -2.1332e-12 0 0 0 1.0666e-12)
(2.18226e-14 0 0 1.09105e-18 -4.36453e-14 0 0 0 2.18226e-14)
(-2.19245e-13 0 0 7.78941e-18 4.3849e-13 0 0 0 -2.19245e-13)
(-7.32205e-13 0 0 7.39244e-18 1.46441e-12 0 0 0 -7.32205e-13)
(1.43588e-13 0 0 4.46877e-18 -2.87176e-13 0 0 0 1.43588e-13)
(8.6435e-14 0 0 3.21493e-18 -1.7287e-13 0 0 0 8.6435e-14)
(4.42827e-13 0 0 7.59047e-18 -8.85653e-13 0 0 0 4.42827e-13)
(3.08754e-13 0 0 4.66216e-18 -6.17507e-13 0 0 0 3.08754e-13)
(5.59473e-13 0 0 -6.44826e-18 -1.11895e-12 0 0 0 5.59473e-13)
(2.56811e-13 0 0 -1.02437e-17 -5.13621e-13 0 0 0 2.56811e-13)
(1.659e-13 0 0 -7.59384e-18 -3.31801e-13 0 0 0 1.659e-13)
(-6.26313e-15 0 0 -7.12209e-18 1.25263e-14 0 0 0 -6.26313e-15)
(1.72221e-13 0 0 -8.6158e-18 -3.44443e-13 0 0 0 1.72221e-13)
(1.58053e-13 1.17803e-21 0 -3.05496e-18 -3.16107e-13 0 0 0 1.58053e-13)
(2.38184e-13 0 0 1.07588e-17 -4.76367e-13 0 0 0 2.38184e-13)
(2.01508e-13 0 0 9.07231e-18 -4.03017e-13 0 0 0 2.01508e-13)
(2.25774e-13 0 0 9.15282e-18 -4.51549e-13 0 0 0 2.25774e-13)
(1.52369e-13 0 0 2.58177e-18 -3.04738e-13 0 0 0 1.52369e-13)
(1.12209e-13 0 0 -2.926e-18 -2.24417e-13 0 0 0 1.12209e-13)
(6.69545e-14 0 0 2.78404e-19 -1.33909e-13 0 0 0 6.69545e-14)
(8.31179e-14 0 0 -4.83147e-18 -1.66236e-13 0 0 0 8.31179e-14)
(7.67439e-14 0 0 -1.7322e-18 -1.53488e-13 0 0 0 7.67439e-14)
(8.36537e-14 0 0 9.71811e-18 -1.67307e-13 0 0 0 8.36537e-14)
(7.37312e-14 0 0 4.61402e-18 -1.47462e-13 0 0 0 7.37312e-14)
(6.86421e-14 0 0 -9.29258e-18 -1.37284e-13 0 0 0 6.86421e-14)
(5.18916e-14 0 0 -1.62934e-17 -1.03783e-13 0 0 0 5.18916e-14)
(3.80648e-14 0 0 -8.53084e-18 -7.61296e-14 0 0 0 3.80648e-14)
(2.73705e-14 0 0 6.10918e-18 -5.4741e-14 0 0 0 2.73705e-14)
(2.57997e-14 0 0 3.49876e-18 -5.15994e-14 0 0 0 2.57997e-14)
(2.413e-14 0 0 8.09402e-19 -4.826e-14 0 0 0 2.413e-14)
(2.35917e-14 0 0 -1.81214e-18 -4.71834e-14 0 0 0 2.35917e-14)
(2.2423e-14 0 0 -4.30132e-18 -4.48459e-14 0 0 0 2.2423e-14)
(2.0517e-14 0 0 1.94774e-18 -4.1034e-14 0 0 0 2.0517e-14)
(1.7635e-14 0 0 9.2994e-18 -3.52701e-14 0 0 0 1.7635e-14)
(1.34111e-14 0 0 1.01456e-17 -2.68222e-14 0 0 0 1.34111e-14)
(1.27223e-14 0 0 1.30815e-17 -2.54446e-14 0 0 0 1.27223e-14)
(1.22893e-14 -1.17803e-21 0 1.04596e-18 -2.45786e-14 0 0 0 1.22893e-14)
(1.70962e-14 0 0 -1.03816e-17 -3.41923e-14 0 0 0 1.70962e-14)
(1.85222e-14 0 0 -5.60035e-18 -3.70444e-14 0 0 0 1.85222e-14)
(2.74542e-14 0 0 -1.66528e-18 -5.49083e-14 0 0 0 2.74542e-14)
(2.85674e-14 0 0 1.44257e-18 -5.71347e-14 0 0 0 2.85674e-14)
(3.4898e-14 0 0 3.83745e-18 -6.9796e-14 0 0 0 3.4898e-14)
(2.67794e-14 0 0 -1.12004e-17 -5.35589e-14 0 0 0 2.67794e-14)
(3.93072e-14 0 0 -1.05652e-17 -7.86143e-14 0 0 0 3.93072e-14)
(3.30479e-14 0 0 6.16131e-18 -6.60959e-14 0 0 0 3.30479e-14)
(6.41768e-14 0 0 6.72377e-18 -1.28354e-13 0 0 0 6.41768e-14)
(5.87153e-14 0 0 8.62083e-18 -1.17431e-13 0 0 0 5.87153e-14)
(1.13949e-13 0 0 1.21907e-17 -2.27898e-13 0 0 0 1.13949e-13)
(1.0164e-13 0 0 4.52754e-19 -2.03281e-13 0 0 0 1.0164e-13)
(1.44037e-13 0 0 -1.10184e-17 -2.88074e-13 0 0 0 1.44037e-13)
(7.46428e-14 0 0 -6.66618e-18 -1.49286e-13 0 0 0 7.46428e-14)
(1.49966e-13 0 0 -3.59112e-18 -2.99932e-13 0 0 0 1.49966e-13)
(7.88678e-14 0 0 -1.7147e-18 -1.57736e-13 0 0 0 7.88678e-14)
(2.29403e-13 0 0 -7.26083e-19 -4.58805e-13 0 0 0 2.29403e-13)
(1.36734e-13 0 0 -2.61758e-19 -2.73468e-13 0 0 0 1.36734e-13)
(4.02536e-13 0 0 -3.58943e-20 -8.05072e-13 0 0 0 4.02536e-13)
(2.79799e-13 0 0 1.6244e-19 -5.59598e-13 0 0 0 2.79799e-13)
(4.57696e-13 0 0 5.50268e-19 -9.15393e-13 0 0 0 4.57696e-13)
(5.21212e-14 0 0 1.46244e-18 -1.04242e-13 0 0 0 5.21212e-14)
(3.4643e-13 0 0 3.44381e-18 -6.9286e-13 0 0 0 3.4643e-13)
(5.38002e-15 0 0 7.2257e-18 -1.076e-14 0 0 0 5.38002e-15)
(5.20272e-13 0 0 1.34647e-17 -1.04054e-12 0 0 0 5.20272e-13)
(6.89316e-14 0 0 2.24029e-17 -1.37863e-13 0 0 0 6.89316e-14)
(9.50709e-13 0 0 -7.3946e-23 -1.90142e-12 0 0 0 9.50709e-13)
(5.39651e-13 0 0 -2.2403e-17 -1.0793e-12 0 0 0 5.39651e-13)
(9.44979e-13 0 0 -1.34647e-17 -1.88996e-12 0 0 0 9.44979e-13)
(-4.33773e-13 0 0 -7.22578e-18 8.67546e-13 0 0 0 -4.33773e-13)
(1.63658e-13 0 0 -3.44432e-18 -3.27316e-13 0 0 0 1.63658e-13)
(-5.0598e-13 0 0 -1.46469e-18 1.01196e-12 0 0 0 -5.0598e-13)
(-1.89098e-13 0 0 -5.5888e-19 3.78197e-13 0 0 0 -1.89098e-13)
(-1.25268e-12 0 0 -1.92557e-19 2.50537e-12 0 0 0 -1.25268e-12)
(1.15764e-11 0 0 -6.02833e-20 -2.31529e-11 0 0 0 1.15764e-11)
(-2.29249e-12 0 0 -1.72521e-20 4.58497e-12 0 0 0 -2.29249e-12)
(-9.98664e-11 0 0 -4.53858e-21 1.99733e-10 0 0 0 -9.98664e-11)
(-1.46988e-10 0 0 -1.1032e-21 2.93976e-10 0 0 0 -1.46988e-10)
(2.59084e-09 0 0 -2.4893e-22 -5.18167e-09 0 0 0 2.59084e-09)
(-4.41427e-09 0 0 -5.23664e-23 8.82854e-09 0 0 0 -4.41427e-09)
(-1.1898e-08 0 0 -1.0309e-23 2.3796e-08 0 0 0 -1.1898e-08)
(-1.01839e-08 0 0 -1.90659e-24 2.03678e-08 0 0 0 -1.01839e-08)
(4.59963e-07 0 0 -3.31785e-25 -9.19927e-07 0 0 0 4.59963e-07)
(-1.25651e-06 0 0 -5.48266e-26 2.51303e-06 0 0 0 -1.25651e-06)
(-2.82837e-06 0 0 -8.4496e-27 5.65673e-06 0 0 0 -2.82837e-06)
(1.97176e-05 0 0 -1.2766e-27 -3.94352e-05 0 0 0 1.97176e-05)
(3.80302e-05 0 0 -1.75195e-28 -7.60605e-05 0 0 0 3.80302e-05)
(2.89135e-06 0 0 -6.58432e-30 -5.7827e-06 0 0 0 2.89135e-06)
(2.46053e-10 0 0 -1.2323e-33 -4.92106e-10 0 0 0 2.46053e-10)
(2.0802e-10 0 0 -7.43435e-35 -4.16041e-10 0 0 0 2.0802e-10)
(9.5207e-18 0 0 -9.52531e-42 -1.90414e-17 0 0 0 9.5207e-18)
(-1.78523e-24 0 0 -9.97683e-48 3.57046e-24 0 0 0 -1.78523e-24)
(-1.45231e-25 0 0 -1.00556e-48 2.90463e-25 0 0 0 -1.45231e-25)
(2.17279e-27 0 0 -1.08853e-49 -4.34559e-27 0 0 0 2.17279e-27)
(2.46977e-28 0 0 -1.03294e-50 -4.93953e-28 0 0 0 2.46977e-28)
(-1.02882e-30 0 0 -8.44707e-52 2.05765e-30 0 0 0 -1.02882e-30)
(-2.25446e-31 0 0 -5.81721e-53 4.50892e-31 0 0 0 -2.25446e-31)
(-4.15431e-32 0 0 -3.27135e-54 8.30861e-32 0 0 0 -4.15431e-32)
(-5.58354e-33 0 0 -1.43493e-55 1.11671e-32 0 0 0 -5.58354e-33)
(-1.59878e-33 0 0 -4.50537e-57 3.19757e-33 0 0 0 -1.59878e-33)
(-3.06361e-32 0 0 -7.85129e-59 6.12723e-32 0 0 0 -3.06361e-32)
)
;

boundaryField
{
    inlet
    {
        type            cyclic;
    }
    outlet
    {
        type            cyclic;
    }
    top
    {
        type            extrapolatedCalculated;
        value           uniform (-6.12138e-32 0 0 -7.53472e-59 1.22428e-31 0 0 0 -6.12138e-32);
    }
    bottom
    {
        type            extrapolatedCalculated;
        value           uniform (0.0170653 0 0 3.21798e-16 -0.0341307 0 0 0 0.0170653);
    }
    frontAndBackPlanes
    {
        type            empty;
    }
}


// ************************************************************************* //
