/*--------------------------------*- C++ -*----------------------------------*\
| =========                 |                                                 |
| \\      /  F ield         | OpenFOAM: The Open Source CFD Toolbox           |
|  \\    /   O peration     | Version:  v2006                                 |
|   \\  /    A nd           | Website:  www.openfoam.com                      |
|    \\/     M anipulation  |                                                 |
\*---------------------------------------------------------------------------*/
FoamFile
{
    version     2.0;
    format      ascii;
    class       volTensorField;
    location    "120";
    object      Taub;
}
// * * * * * * * * * * * * * * * * * * * * * * * * * * * * * * * * * * * * * //

dimensions      [1 -1 -2 0 0 0 0];


internalField   nonuniform List<tensor> 
120
(
(-1.33333e-06 0 0 1.20904e-20 2.66666e-06 0 0 0 -1.33333e-06)
(-1.56481e-06 0 0 6.97288e-21 3.12962e-06 0 0 0 -1.56481e-06)
(-1.9776e-06 0 0 -3.23373e-20 3.95521e-06 0 0 0 -1.9776e-06)
(-2.78086e-06 0 0 -1.00439e-19 5.56172e-06 0 0 0 -2.78086e-06)
(-4.16703e-06 0 0 -2.26272e-19 8.33407e-06 0 0 0 -4.16703e-06)
(-5.11543e-06 0 0 -4.65141e-19 1.02309e-05 0 0 0 -5.11543e-06)
(-3.00808e-06 0 0 -1.10801e-18 6.01615e-06 0 0 0 -3.00808e-06)
(-4.53536e-05 0 0 -3.46046e-18 9.07072e-05 0 0 0 -4.53536e-05)
(-8.09497e-05 0 0 -1.15484e-16 0.000161899 0 0 0 -8.09497e-05)
(-7.37059e-05 0 0 -1.30723e-16 0.000147412 0 0 0 -7.37059e-05)
(-1.72591e-05 0 0 -7.52424e-17 3.45181e-05 0 0 0 -1.72591e-05)
(2.40742e-05 0 0 3.00033e-17 -4.81485e-05 0 0 0 2.40742e-05)
(5.44862e-06 0 0 1.34494e-16 -1.08972e-05 0 0 0 5.44862e-06)
(1.63087e-06 0 0 7.88083e-17 -3.26175e-06 0 0 0 1.63087e-06)
(6.29217e-07 0 0 4.09999e-17 -1.25843e-06 0 0 0 6.29217e-07)
(1.79062e-07 0 0 1.81072e-17 -3.58124e-07 0 0 0 1.79062e-07)
(4.63188e-08 0 0 4.06791e-18 -9.26376e-08 0 0 0 4.63188e-08)
(1.16199e-08 0 0 -8.70372e-18 -2.32399e-08 0 0 0 1.16199e-08)
(2.71228e-09 0 0 -2.96543e-17 -5.42456e-09 0 0 0 2.71228e-09)
(5.49481e-10 0 0 -7.12875e-17 -1.09896e-09 0 0 0 5.49481e-10)
(1.70578e-10 0 0 -1.48273e-16 -3.41157e-10 0 0 0 1.70578e-10)
(6.10519e-11 0 0 -2.71118e-16 -1.22104e-10 0 0 0 6.10519e-11)
(1.34218e-10 0 0 -4.34402e-16 -2.68437e-10 0 0 0 1.34218e-10)
(2.89117e-11 0 0 9.35083e-17 -5.78234e-11 0 0 0 2.89117e-11)
(-1.7939e-11 0 0 6.64304e-16 3.58779e-11 0 0 0 -1.7939e-11)
(-8.84089e-11 0 0 6.31924e-16 1.76818e-10 0 0 0 -8.84089e-11)
(-2.26699e-11 0 0 3.82995e-16 4.53398e-11 0 0 0 -2.26699e-11)
(-2.78359e-11 0 0 2.77176e-16 5.56718e-11 0 0 0 -2.78359e-11)
(1.00345e-11 0 0 6.47254e-16 -2.00689e-11 0 0 0 1.00345e-11)
(5.15361e-12 0 0 3.96284e-16 -1.03072e-11 0 0 0 5.15361e-12)
(3.21376e-11 0 0 -5.49362e-16 -6.42752e-11 0 0 0 3.21376e-11)
(5.15044e-12 0 0 -8.74649e-16 -1.03009e-11 0 0 0 5.15044e-12)
(-6.95394e-12 0 0 -6.50826e-16 1.39079e-11 0 0 0 -6.95394e-12)
(-2.67932e-11 0 0 -6.10394e-16 5.35863e-11 0 0 0 -2.67932e-11)
(-1.25352e-11 0 0 -7.35129e-16 2.50704e-11 0 0 0 -1.25352e-11)
(-1.21391e-11 -1.00962e-19 0 -2.58542e-16 2.42782e-11 0 0 0 -1.21391e-11)
(-1.41042e-12 0 0 9.15509e-16 2.82083e-12 0 0 0 -1.41042e-12)
(-6.76432e-13 0 0 7.77534e-16 1.35286e-12 0 0 0 -6.76432e-13)
(4.78013e-12 0 0 7.81155e-16 -9.56025e-12 0 0 0 4.78013e-12)
(2.37531e-13 0 0 2.21271e-16 -4.75061e-13 0 0 0 2.37531e-13)
(-2.51396e-12 0 0 -2.47487e-16 5.02792e-12 0 0 0 -2.51396e-12)
(-6.14094e-12 0 0 2.05811e-17 1.22819e-11 0 0 0 -6.14094e-12)
(-3.96897e-12 0 0 -4.10794e-16 7.93793e-12 0 0 0 -3.96897e-12)
(-3.2823e-12 0 0 -1.45176e-16 6.56459e-12 0 0 0 -3.2823e-12)
(-1.11075e-12 0 0 8.26316e-16 2.22151e-12 0 0 0 -1.11075e-12)
(-4.51473e-13 0 0 3.92156e-16 9.02946e-13 0 0 0 -4.51473e-13)
(3.75431e-13 0 0 -7.93131e-16 -7.50863e-13 0 0 0 3.75431e-13)
(-2.11584e-13 0 0 -1.38985e-15 4.23168e-13 0 0 0 -2.11584e-13)
(-8.78009e-13 0 0 -7.27849e-16 1.75602e-12 0 0 0 -8.78009e-13)
(-1.45553e-12 0 0 5.17017e-16 2.91106e-12 0 0 0 -1.45553e-12)
(-1.26024e-12 0 0 2.99855e-16 2.52049e-12 0 0 0 -1.26024e-12)
(-1.05453e-12 0 0 6.9369e-17 2.10907e-12 0 0 0 -1.05453e-12)
(-7.62641e-13 0 0 -1.55306e-16 1.52528e-12 0 0 0 -7.62641e-13)
(-5.99717e-13 0 0 -3.65357e-16 1.19943e-12 0 0 0 -5.99717e-13)
(-6.36312e-13 0 0 1.66932e-16 1.27262e-12 0 0 0 -6.36312e-13)
(-9.01118e-13 0 0 7.93718e-16 1.80224e-12 0 0 0 -9.01118e-13)
(-1.4131e-12 0 0 8.69516e-16 2.82619e-12 0 0 0 -1.4131e-12)
(-1.68996e-12 0 0 1.11458e-15 3.37991e-12 0 0 0 -1.68996e-12)
(-2.02624e-12 1.00962e-19 0 8.96449e-17 4.05248e-12 0 0 0 -2.02624e-12)
(-1.9536e-12 0 0 -8.83185e-16 3.9072e-12 0 0 0 -1.9536e-12)
(-2.32235e-12 0 0 -4.79972e-16 4.6447e-12 0 0 0 -2.32235e-12)
(-2.18189e-12 0 0 -1.42724e-16 4.36377e-12 0 0 0 -2.18189e-12)
(-3.04777e-12 0 0 1.2363e-16 6.09555e-12 0 0 0 -3.04777e-12)
(-3.67026e-12 0 0 3.22321e-16 7.34051e-12 0 0 0 -3.67026e-12)
(-5.75718e-12 0 0 -9.53357e-16 1.15144e-11 0 0 0 -5.75718e-12)
(-5.9198e-12 0 0 -8.98914e-16 1.18396e-11 0 0 0 -5.9198e-12)
(-7.88421e-12 0 0 5.21488e-16 1.57684e-11 0 0 0 -7.88421e-12)
(-6.5302e-12 0 0 5.76254e-16 1.30604e-11 0 0 0 -6.5302e-12)
(-8.92308e-12 0 0 7.3884e-16 1.78462e-11 0 0 0 -8.92308e-12)
(-6.27222e-12 0 0 1.03823e-15 1.25444e-11 0 0 0 -6.27222e-12)
(-1.09025e-11 0 0 3.88039e-17 2.1805e-11 0 0 0 -1.09025e-11)
(-1.13112e-11 0 0 -9.37756e-16 2.26223e-11 0 0 0 -1.13112e-11)
(-2.20868e-11 0 0 -5.71319e-16 4.41737e-11 0 0 0 -2.20868e-11)
(-1.86304e-11 0 0 -3.07776e-16 3.72607e-11 0 0 0 -1.86304e-11)
(-2.80532e-11 0 0 -1.46959e-16 5.61063e-11 0 0 0 -2.80532e-11)
(-1.68423e-11 0 0 -6.22297e-17 3.36845e-11 0 0 0 -1.68423e-11)
(-2.84727e-11 0 0 -2.24344e-17 5.69454e-11 0 0 0 -2.84727e-11)
(-8.33719e-12 0 0 -3.07637e-18 1.66744e-11 0 0 0 -8.33719e-12)
(-2.72868e-11 0 0 1.39224e-17 5.45735e-11 0 0 0 -2.72868e-11)
(-2.13654e-11 0 0 4.71617e-17 4.27308e-11 0 0 0 -2.13654e-11)
(-6.81588e-11 0 0 1.2534e-16 1.36318e-10 0 0 0 -6.81588e-11)
(-4.57117e-11 0 0 2.95153e-16 9.14235e-11 0 0 0 -4.57117e-11)
(-7.71635e-11 0 0 6.19276e-16 1.54327e-10 0 0 0 -7.71635e-11)
(-2.72226e-11 0 0 1.15398e-15 5.44453e-11 0 0 0 -2.72226e-11)
(-6.41105e-11 0 0 1.9069e-15 1.28221e-10 0 0 0 -6.41105e-11)
(1.98313e-11 0 0 -5.65391e-21 -3.96625e-11 0 0 0 1.98313e-11)
(-2.3471e-11 0 0 -1.9069e-15 4.69421e-11 0 0 0 -2.3471e-11)
(-1.24212e-12 0 0 -1.15398e-15 2.48425e-12 0 0 0 -1.24212e-12)
(-1.40209e-10 0 0 -6.19283e-16 2.80419e-10 0 0 0 -1.40209e-10)
(-8.47796e-11 0 0 -2.95197e-16 1.69559e-10 0 0 0 -8.47796e-11)
(-1.30218e-10 0 0 -1.25533e-16 2.60435e-10 0 0 0 -1.30218e-10)
(-7.08722e-11 0 0 -4.78999e-17 1.41744e-10 0 0 0 -7.08722e-11)
(-1.31338e-10 0 0 -1.65036e-17 2.62675e-10 0 0 0 -1.31338e-10)
(1.02538e-09 0 0 -5.1668e-18 -2.05077e-09 0 0 0 1.02538e-09)
(-1.8429e-10 0 0 -1.47867e-18 3.68579e-10 0 0 0 -1.8429e-10)
(-8.36105e-09 0 0 -3.89004e-19 1.67221e-08 0 0 0 -8.36105e-09)
(-1.36585e-08 0 0 -9.45566e-20 2.7317e-08 0 0 0 -1.36585e-08)
(2.27228e-07 0 0 -2.13364e-20 -4.54456e-07 0 0 0 2.27228e-07)
(-3.96599e-07 0 0 -4.48849e-21 7.93197e-07 0 0 0 -3.96599e-07)
(-9.47949e-07 0 0 -8.8365e-22 1.8959e-06 0 0 0 -9.47949e-07)
(-1.20065e-06 0 0 -1.63413e-22 2.4013e-06 0 0 0 -1.20065e-06)
(4.05468e-05 0 0 -2.84469e-23 -8.10936e-05 0 0 0 4.05468e-05)
(-0.000109673 0 0 -4.6956e-24 0.000219347 0 0 0 -0.000109673)
(-0.000238172 0 0 -7.2582e-25 0.000476345 0 0 0 -0.000238172)
(0.00170155 0 0 -1.09574e-25 -0.00340311 0 0 0 0.00170155)
(0.00244925 0 0 -1.47391e-26 -0.00489851 0 0 0 0.00244925)
(-0.00154584 0 0 -8.16269e-28 0.00309168 0 0 0 -0.00154584)
(-0.00104923 0 0 -2.29928e-28 0.00209847 0 0 0 -0.00104923)
(0.000303396 0 0 -2.04646e-28 -0.000606791 0 0 0 0.000303396)
(0.000127772 0 0 -1.47514e-28 -0.000255543 0 0 0 0.000127772)
(-1.76079e-05 0 0 -1.05986e-28 3.52158e-05 0 0 0 -1.76079e-05)
(-1.10103e-05 0 0 -7.58976e-29 2.20206e-05 0 0 0 -1.10103e-05)
(1.01886e-06 0 0 -5.4226e-29 -2.03772e-06 0 0 0 1.01886e-06)
(8.97384e-07 0 0 -3.87051e-29 -1.79477e-06 0 0 0 8.97384e-07)
(-3.14581e-08 0 0 -2.76733e-29 6.29162e-08 0 0 0 -3.14581e-08)
(-7.47464e-08 0 0 -1.99195e-29 1.49493e-07 0 0 0 -7.47464e-08)
(4.94087e-10 0 0 -1.4576e-29 -9.88174e-10 0 0 0 4.94087e-10)
(5.5993e-09 0 0 -1.10335e-29 -1.11986e-08 0 0 0 5.5993e-09)
(9.90006e-11 0 0 -8.88226e-30 -1.98001e-10 0 0 0 9.90006e-11)
(-1.74978e-09 0 0 -7.79982e-30 3.49957e-09 0 0 0 -1.74978e-09)
)
;

boundaryField
{
    inlet
    {
        type            cyclic;
    }
    outlet
    {
        type            cyclic;
    }
    top
    {
        type            extrapolatedCalculated;
        value           uniform (-2.17456e-09 0 0 -7.48552e-30 4.34911e-09 0 0 0 -2.17456e-09);
    }
    bottom
    {
        type            extrapolatedCalculated;
        value           uniform (-1.26204e-06 0 0 1.51655e-20 2.52408e-06 0 0 0 -1.26204e-06);
    }
    frontAndBackPlanes
    {
        type            empty;
    }
}


// ************************************************************************* //
