/*--------------------------------*- C++ -*----------------------------------*\
| =========                 |                                                 |
| \\      /  F ield         | OpenFOAM: The Open Source CFD Toolbox           |
|  \\    /   O peration     | Version:  v2006                                 |
|   \\  /    A nd           | Website:  www.openfoam.com                      |
|    \\/     M anipulation  |                                                 |
\*---------------------------------------------------------------------------*/
FoamFile
{
    version     2.0;
    format      ascii;
    class       volVectorField;
    location    "120";
    object      Ua;
}
// * * * * * * * * * * * * * * * * * * * * * * * * * * * * * * * * * * * * * //

dimensions      [0 1 -1 0 0 0 0];


internalField   nonuniform List<vector> 
120
(
(7.66186e-23 -1.21895e-08 0)
(1.67077e-22 -4.00652e-08 0)
(8.21642e-23 -7.59623e-08 0)
(-4.86912e-22 -1.22592e-07 0)
(-1.81255e-21 -1.87537e-07 0)
(-5.06441e-21 -2.85992e-07 0)
(-1.267e-20 -4.17148e-07 0)
(-2.72674e-20 -5.71383e-07 0)
(-6.01677e-20 -9.8156e-07 0)
(-2.45329e-18 -5.38531e-06 0)
(-2.92577e-18 -4.00482e-06 0)
(-4.13141e-18 -5.8025e-06 0)
(-2.26057e-18 -6.25651e-06 0)
(-1.1265e-18 -6.3867e-06 0)
(-5.09459e-19 -6.43495e-06 0)
(-2.1535e-19 -6.44884e-06 0)
(-1.07041e-19 -6.45248e-06 0)
(-1.24942e-19 -6.45336e-06 0)
(-3.00474e-19 -6.45359e-06 0)
(-7.83991e-19 -6.45361e-06 0)
(-1.88481e-18 -6.45364e-06 0)
(-4.07933e-18 -6.45362e-06 0)
(-7.91037e-18 -6.45364e-06 0)
(-1.38068e-17 -6.45363e-06 0)
(-5.83218e-18 -6.45364e-06 0)
(1.03017e-18 -6.45363e-06 0)
(8.24866e-18 -6.45363e-06 0)
(9.54211e-18 -6.45363e-06 0)
(1.43723e-17 -6.45364e-06 0)
(2.40002e-17 -6.45363e-06 0)
(2.32526e-17 -6.45364e-06 0)
(1.17177e-17 -6.45364e-06 0)
(3.7408e-18 -6.45364e-06 0)
(-2.74671e-18 -6.45364e-06 0)
(-9.82507e-18 -6.45364e-06 0)
(-1.91578e-17 -6.45364e-06 0)
(-1.5644e-17 -6.45364e-06 0)
(1.33513e-18 -6.45364e-06 0)
(1.63655e-18 -6.45364e-06 0)
(1.87691e-17 -6.45364e-06 0)
(6.55422e-18 -6.45364e-06 0)
(1.31957e-17 -6.45364e-06 0)
(7.08451e-18 -6.45364e-06 0)
(3.99294e-18 -6.45364e-06 0)
(3.78508e-18 -6.45364e-06 0)
(2.25036e-17 -6.45364e-06 0)
(1.25737e-17 -6.45364e-06 0)
(4.80347e-18 -6.45364e-06 0)
(-1.84614e-17 -6.45364e-06 0)
(-1.14458e-17 -6.45364e-06 0)
(-6.82491e-18 -6.45364e-06 0)
(-4.78145e-18 -6.45364e-06 0)
(-5.28319e-18 -6.45364e-06 0)
(-8.23314e-18 -6.45364e-06 0)
(-1.34762e-17 -6.45364e-06 0)
(-4.52316e-18 -6.45364e-06 0)
(4.23696e-18 -6.45364e-06 0)
(1.48017e-17 -6.45364e-06 0)
(2.91541e-17 -6.45364e-06 0)
(1.6794e-17 -6.45364e-06 0)
(9.37953e-18 -6.45364e-06 0)
(6.12668e-18 -6.45364e-06 0)
(6.20756e-18 -6.45364e-06 0)
(8.87443e-18 -6.45364e-06 0)
(1.3517e-17 -6.45364e-06 0)
(-1.24597e-17 -6.45364e-06 0)
(-6.60712e-18 -6.45364e-06 0)
(-7.23841e-19 -6.45364e-06 0)
(6.20005e-18 -6.45364e-06 0)
(1.56968e-17 -6.45364e-06 0)
(2.94205e-17 -6.45365e-06 0)
(1.65592e-17 -6.45365e-06 0)
(8.43311e-18 -6.45365e-06 0)
(3.86169e-18 -6.45365e-06 0)
(1.59288e-18 -6.45365e-06 0)
(5.95593e-19 -6.45365e-06 0)
(2.09862e-19 -6.45365e-06 0)
(9.70066e-20 -6.45365e-06 0)
(1.41492e-19 -6.45365e-06 0)
(4.06417e-19 -6.45365e-06 0)
(1.18962e-18 -6.45365e-06 0)
(3.19202e-18 -6.45365e-06 0)
(7.74925e-18 -6.45366e-06 0)
(1.69553e-17 -6.45365e-06 0)
(3.33963e-17 -6.45366e-06 0)
(5.96275e-17 -6.45365e-06 0)
(3.33961e-17 -6.45366e-06 0)
(1.69551e-17 -6.45365e-06 0)
(7.74912e-18 -6.45367e-06 0)
(3.19172e-18 -6.45365e-06 0)
(1.1885e-18 -6.45367e-06 0)
(4.01841e-19 -6.45365e-06 0)
(1.23965e-19 -6.45367e-06 0)
(3.50659e-20 -6.45364e-06 0)
(9.13935e-21 -6.45373e-06 0)
(2.20481e-21 -6.45363e-06 0)
(4.94439e-22 -6.45316e-06 0)
(1.03482e-22 -6.45279e-06 0)
(2.0286e-23 -6.46797e-06 0)
(3.73775e-24 -6.42756e-06 0)
(6.48858e-25 -6.39998e-06 0)
(1.06716e-25 -6.36938e-06 0)
(1.65172e-26 -9.02987e-06 0)
(2.48488e-27 7.96931e-07 0)
(3.46211e-28 7.20907e-06 0)
(4.60222e-29 -0.000112211 0)
(2.64419e-29 -0.000201032 0)
(2.09012e-29 -0.000145305 0)
(1.4963e-29 -0.000207908 0)
(1.06644e-29 -0.000231235 0)
(7.57445e-30 -0.000230062 0)
(5.36172e-30 -0.000228389 0)
(3.77952e-30 -0.000228418 0)
(2.65027e-30 -0.000228551 0)
(1.84417e-30 -0.000228557 0)
(1.26656e-30 -0.000228546 0)
(8.48129e-31 -0.000228545 0)
(5.37697e-31 -0.000228518 0)
(2.96422e-31 -0.000228481 0)
(9.3566e-32 -0.000228046 0)
)
;

boundaryField
{
    inlet
    {
        type            cyclic;
    }
    outlet
    {
        type            cyclic;
    }
    top
    {
        type            fixedValue;
        value           uniform (0 0 0);
    }
    bottom
    {
        type            fixedValue;
        value           uniform (0 0 0);
    }
    frontAndBackPlanes
    {
        type            empty;
    }
}


// ************************************************************************* //
