/*--------------------------------*- C++ -*----------------------------------*\
| =========                 |                                                 |
| \\      /  F ield         | OpenFOAM: The Open Source CFD Toolbox           |
|  \\    /   O peration     | Version:  v2006                                 |
|   \\  /    A nd           | Website:  www.openfoam.com                      |
|    \\/     M anipulation  |                                                 |
\*---------------------------------------------------------------------------*/
FoamFile
{
    version     2.0;
    format      ascii;
    class       volVectorField;
    location    "120";
    object      Ub;
}
// * * * * * * * * * * * * * * * * * * * * * * * * * * * * * * * * * * * * * //

dimensions      [0 1 -1 0 0 0 0];


internalField   nonuniform List<vector> 
120
(
(7.6622e-23 1.91289e-08 0)
(1.67719e-22 6.17092e-08 0)
(2.17629e-22 1.14061e-07 0)
(-4.867e-22 1.81773e-07 0)
(-1.81684e-21 2.83046e-07 0)
(-5.07481e-21 4.35258e-07 0)
(-1.12591e-20 5.94572e-07 0)
(-2.75924e-20 6.18653e-07 0)
(-8.17358e-20 3.36563e-06 0)
(-2.45323e-18 5.71948e-06 0)
(-2.92579e-18 8.17633e-06 0)
(-4.11338e-18 6.86189e-06 0)
(-2.2606e-18 6.5751e-06 0)
(-1.12652e-18 6.49888e-06 0)
(-5.09472e-19 6.46639e-06 0)
(-2.15357e-19 6.45693e-06 0)
(-1.07046e-19 6.45445e-06 0)
(-1.24948e-19 6.45384e-06 0)
(-3.00486e-19 6.45368e-06 0)
(-7.84015e-19 6.45366e-06 0)
(-1.88485e-18 6.45364e-06 0)
(-4.07939e-18 6.45365e-06 0)
(-7.91044e-18 6.45364e-06 0)
(-1.3734e-17 6.45364e-06 0)
(-5.83222e-18 6.45363e-06 0)
(1.03018e-18 6.45364e-06 0)
(8.21229e-18 6.45364e-06 0)
(9.54224e-18 6.45364e-06 0)
(1.43725e-17 6.45364e-06 0)
(2.39275e-17 6.45364e-06 0)
(2.31799e-17 6.45364e-06 0)
(1.17179e-17 6.45364e-06 0)
(3.74086e-18 6.45364e-06 0)
(-2.74673e-18 6.45364e-06 0)
(-9.82515e-18 6.45364e-06 0)
(-1.9085e-17 6.45364e-06 0)
(-1.55712e-17 6.45364e-06 0)
(1.26221e-18 6.45364e-06 0)
(1.70946e-18 6.45364e-06 0)
(1.86234e-17 6.45364e-06 0)
(6.62721e-18 6.45364e-06 0)
(1.3123e-17 6.45364e-06 0)
(7.08462e-18 6.45364e-06 0)
(3.99306e-18 6.45364e-06 0)
(3.85808e-18 6.45364e-06 0)
(2.23579e-17 6.45364e-06 0)
(1.25737e-17 6.45364e-06 0)
(4.73061e-18 6.45364e-06 0)
(-1.83157e-17 6.45364e-06 0)
(-1.14458e-17 6.45364e-06 0)
(-6.82501e-18 6.45364e-06 0)
(-4.78155e-18 6.45364e-06 0)
(-5.28328e-18 6.45364e-06 0)
(-8.23322e-18 6.45364e-06 0)
(-1.34033e-17 6.45364e-06 0)
(-4.52316e-18 6.45364e-06 0)
(4.23703e-18 6.45364e-06 0)
(1.48018e-17 6.45364e-06 0)
(2.90085e-17 6.45364e-06 0)
(1.67942e-17 6.45364e-06 0)
(9.37969e-18 6.45364e-06 0)
(6.12681e-18 6.45364e-06 0)
(6.20766e-18 6.45364e-06 0)
(8.87448e-18 6.45364e-06 0)
(1.33713e-17 6.45364e-06 0)
(-1.23139e-17 6.45364e-06 0)
(-6.6071e-18 6.45364e-06 0)
(-7.23801e-19 6.45365e-06 0)
(6.20015e-18 6.45365e-06 0)
(1.56969e-17 6.45365e-06 0)
(2.92749e-17 6.45365e-06 0)
(1.65593e-17 6.45365e-06 0)
(8.43325e-18 6.45365e-06 0)
(3.86178e-18 6.45365e-06 0)
(1.59293e-18 6.45365e-06 0)
(5.95617e-19 6.45365e-06 0)
(2.09873e-19 6.45365e-06 0)
(9.70128e-20 6.45365e-06 0)
(1.41501e-19 6.45365e-06 0)
(4.06437e-19 6.45365e-06 0)
(1.18967e-18 6.45365e-06 0)
(3.19212e-18 6.45366e-06 0)
(7.74943e-18 6.45365e-06 0)
(1.69555e-17 6.45366e-06 0)
(3.33966e-17 6.45366e-06 0)
(5.93363e-17 6.45367e-06 0)
(3.33965e-17 6.45365e-06 0)
(1.69554e-17 6.45367e-06 0)
(7.7493e-18 6.45365e-06 0)
(3.19183e-18 6.45368e-06 0)
(1.18855e-18 6.45366e-06 0)
(4.01861e-19 6.45369e-06 0)
(1.23972e-19 6.45366e-06 0)
(3.50684e-20 6.4537e-06 0)
(9.1401e-21 6.4536e-06 0)
(2.20502e-21 6.45371e-06 0)
(4.94491e-22 6.45415e-06 0)
(1.03494e-22 6.45462e-06 0)
(2.02886e-23 6.439e-06 0)
(3.73828e-24 6.48106e-06 0)
(6.48958e-25 6.50221e-06 0)
(1.06734e-25 6.56111e-06 0)
(1.65202e-26 3.79788e-06 0)
(2.48535e-27 1.38658e-05 0)
(3.46281e-28 1.97199e-05 0)
(4.60291e-29 -9.97728e-05 0)
(2.64467e-29 -0.000139724 0)
(2.08955e-29 4.30209e-05 0)
(1.49518e-29 1.76405e-05 0)
(1.06621e-29 -2.49338e-06 0)
(7.57516e-30 -1.52768e-06 0)
(5.36212e-30 1.48136e-07 0)
(3.7798e-30 1.2407e-07 0)
(2.65048e-30 -4.71189e-09 0)
(1.8443e-30 -1.05543e-08 0)
(1.26664e-30 7.41819e-12 0)
(8.48203e-31 6.59056e-10 0)
(5.37749e-31 -6.67041e-11 0)
(2.96459e-31 -1.80944e-10 0)
(9.35807e-32 -8.15561e-11 0)
)
;

boundaryField
{
    inlet
    {
        type            cyclic;
    }
    outlet
    {
        type            cyclic;
    }
    top
    {
        type            fixedValue;
        value           uniform (0 0 0);
    }
    bottom
    {
        type            fixedValue;
        value           uniform (0 0 0);
    }
    frontAndBackPlanes
    {
        type            empty;
    }
}


// ************************************************************************* //
