/*--------------------------------*- C++ -*----------------------------------*\
| =========                 |                                                 |
| \\      /  F ield         | OpenFOAM: The Open Source CFD Toolbox           |
|  \\    /   O peration     | Version:  2206                                  |
|   \\  /    A nd           | Website:  www.openfoam.com                      |
|    \\/     M anipulation  |                                                 |
\*---------------------------------------------------------------------------*/
FoamFile
{
    version     2.0;
    format      ascii;
    arch        "LSB;label=32;scalar=64";
    class       volScalarField;
    location    "2";
    object      nuEffa;
}
// * * * * * * * * * * * * * * * * * * * * * * * * * * * * * * * * * * * * * //

dimensions      [0 2 -1 0 0 0 0];

internalField   nonuniform List<scalar> 
120
(
4.21723e-08
4.45011e-08
4.59011e-08
4.7773e-08
5.05636e-08
5.32902e-08
5.63817e-08
5.98586e-08
6.3468e-08
6.68754e-08
6.97117e-08
7.17451e-08
7.32423e-08
7.53279e-08
8.01291e-08
9.05616e-08
1.09227e-07
1.37443e-07
4.42203e-07
2.67348e-06
8.97041e-06
2.00103e-05
3.56939e-05
5.61369e-05
8.16157e-05
0.000112538
0.000149451
0.000192993
0.000243581
0.000301334
0.000366539
0.000440349
0.000524672
0.000621304
0.000731775
0.000856971
0.000997192
0.00115286
0.00132847
0.00153909
0.00176412
0.0019777
0.00217024
0.00260812
0.00277599
0.00303609
0.00310168
0.00228204
0.00090295
7.54936e-05
8.01878e-05
0.000216496
0.000371219
0.000603559
0.000195579
2.74713e-17
6.8006e-35
6.86035e-47
1.00824e-58
1.60347e-70
2.73219e-82
5.17496e-94
1.03665e-105
1.80653e-117
3.21122e-129
6.4449e-141
1.32897e-152
3.3522e-164
8.72069e-176
1.81802e-187
4.37046e-199
1.06894e-210
2.58954e-222
8.24344e-234
2.00852e-245
5.34764e-257
1.53043e-268
4.8846e-280
1.77794e-291
7.39969e-303
2.37664e-314
0
0
0
0
0
0
0
0
0
0
0
0
0
0
0
0
0
0
0
0
0
0
0
0
0
0
0
0
0
0
0
0
0
0
0
0
0
0
0
)
;

boundaryField
{
    inlet
    {
        type            cyclic;
    }
    outlet
    {
        type            cyclic;
    }
    top
    {
        type            calculated;
        value           uniform 0;
    }
    bottom
    {
        type            calculated;
        value           uniform 4.21723e-08;
    }
    frontAndBackPlanes
    {
        type            empty;
    }
}


// ************************************************************************* //
