/*--------------------------------*- C++ -*----------------------------------*\
| =========                 |                                                 |
| \\      /  F ield         | OpenFOAM: The Open Source CFD Toolbox           |
|  \\    /   O peration     | Version:  2206                                  |
|   \\  /    A nd           | Website:  www.openfoam.com                      |
|    \\/     M anipulation  |                                                 |
\*---------------------------------------------------------------------------*/
FoamFile
{
    version     2.0;
    format      ascii;
    arch        "LSB;label=32;scalar=64";
    class       volScalarField;
    location    "2";
    object      pa;
}
// * * * * * * * * * * * * * * * * * * * * * * * * * * * * * * * * * * * * * //

dimensions      [1 -1 -2 0 0 0 0];

internalField   nonuniform List<scalar> 
120
(
1.79558e-09
2.0099e-09
2.1451e-09
2.33602e-09
2.629e-09
2.93412e-09
3.30074e-09
3.73935e-09
4.22585e-09
4.71697e-09
5.1538e-09
5.48962e-09
5.75395e-09
6.12175e-09
6.96803e-09
8.95483e-09
1.31104e-08
2.09053e-08
2.18106e-07
8.04041e-06
9.12717e-05
0.000457228
0.0014616
0.00362691
0.00768693
0.0146531
0.0259098
0.0433341
0.0693734
0.10714
0.160719
0.235826
0.340468
0.485245
0.683939
0.953921
1.31687
1.80059
2.44764
3.33636
4.48882
5.90293
7.60532
10.7061
13.3091
17.0755
20.478
17.6355
7.77775
0.279033
0.0159808
0.0139226
0.00535042
0.00757724
0.000311276
2.53081e-18
1.41347e-41
1.42073e-53
2.08457e-65
3.31439e-77
5.64603e-89
1.06929e-100
2.14161e-112
3.73187e-124
6.63266e-136
1.33112e-147
2.74453e-159
6.92267e-171
1.80077e-182
3.75405e-194
9.02402e-206
2.2071e-217
5.3465e-229
1.70197e-240
4.14671e-252
1.10405e-263
3.15955e-275
1.00842e-286
3.67044e-298
1.52762e-309
4.90607e-321
0
0
0
0
0
0
0
0
0
0
0
0
0
0
0
0
0
0
0
0
0
0
0
0
0
0
0
0
0
0
0
0
0
0
0
0
0
0
0
)
;

boundaryField
{
    inlet
    {
        type            cyclic;
    }
    outlet
    {
        type            cyclic;
    }
    top
    {
        type            slip;
    }
    bottom
    {
        type            zeroGradient;
    }
    frontAndBackPlanes
    {
        type            empty;
    }
}


// ************************************************************************* //
