/*--------------------------------*- C++ -*----------------------------------*\
| =========                 |                                                 |
| \\      /  F ield         | OpenFOAM: The Open Source CFD Toolbox           |
|  \\    /   O peration     | Version:  2206                                  |
|   \\  /    A nd           | Website:  www.openfoam.com                      |
|    \\/     M anipulation  |                                                 |
\*---------------------------------------------------------------------------*/
FoamFile
{
    version     2.0;
    format      ascii;
    arch        "LSB;label=32;scalar=64";
    class       volScalarField;
    location    "2";
    object      pff;
}
// * * * * * * * * * * * * * * * * * * * * * * * * * * * * * * * * * * * * * //

dimensions      [1 -1 -2 0 0 0 0];

internalField   nonuniform List<scalar> 
120
(
583.277
569.955
562.12
549.106
538.048
526.856
515.44
503.971
492.471
480.911
469.306
457.708
446.179
434.759
423.426
412.049
400.338
387.88
374.389
360.259
347.034
336.628
329.599
324.807
320.86
317.103
313.338
309.14
302.198
289.87
272.115
252.136
233.197
216.176
200.623
185.289
169.021
151.597
135.377
125.596
111.786
89.2727
63.3018
72.1994
44.4746
30.3855
13.597
0.368481
0
0
0
0
0
0
0
0
0
0
0
0
0
0
0
0
0
0
0
0
0
0
0
0
0
0
0
0
0
0
0
0
0
0
0
0
0
0
0
0
0
0
0
0
0
0
0
0
0
0
0
0
0
0
0
0
0
0
0
0
0
0
0
0
0
0
0
0
0
0
0
0
)
;

boundaryField
{
    inlet
    {
        type            cyclic;
    }
    outlet
    {
        type            cyclic;
    }
    top
    {
        type            calculated;
        value           uniform 0;
    }
    bottom
    {
        type            calculated;
        value           uniform 583.277;
    }
    frontAndBackPlanes
    {
        type            empty;
    }
}


// ************************************************************************* //
