/*--------------------------------*- C++ -*----------------------------------*\
| =========                 |                                                 |
| \\      /  F ield         | OpenFOAM: The Open Source CFD Toolbox           |
|  \\    /   O peration     | Version:  2206                                  |
|   \\  /    A nd           | Website:  www.openfoam.com                      |
|    \\/     M anipulation  |                                                 |
\*---------------------------------------------------------------------------*/
FoamFile
{
    version     2.0;
    format      ascii;
    arch        "LSB;label=32;scalar=64";
    class       surfaceScalarField;
    location    "2";
    object      phi.b;
}
// * * * * * * * * * * * * * * * * * * * * * * * * * * * * * * * * * * * * * //

dimensions      [0 3 -1 0 0 0 0];

oriented        oriented;

internalField   nonuniform List<scalar> 
119
(
6.20981e-12
1.25627e-11
1.90459e-11
2.56704e-11
3.24917e-11
3.94964e-11
4.67054e-11
5.41408e-11
6.18121e-11
6.97147e-11
7.78238e-11
8.60935e-11
9.44723e-11
1.0294e-10
1.11563e-10
1.20553e-10
1.30298e-10
1.41289e-10
1.53751e-10
1.66837e-10
1.78301e-10
1.86097e-10
1.90334e-10
1.92656e-10
1.94286e-10
1.95519e-10
1.9636e-10
1.96825e-10
1.96978e-10
1.96953e-10
1.96906e-10
1.96937e-10
1.97054e-10
1.97213e-10
1.97361e-10
1.97468e-10
1.97534e-10
1.97584e-10
1.97642e-10
1.97562e-10
1.97179e-10
1.96565e-10
1.96532e-10
1.95813e-10
1.95188e-10
1.52335e-10
-7.11339e-11
-7.16337e-10
-1.43591e-09
-1.81274e-10
-7.01473e-11
-3.27039e-11
-1.895e-11
-7.36374e-12
1.85147e-12
1.9515e-17
2.52378e-17
1.6936e-17
1.24565e-18
-1.18084e-17
-1.70332e-17
-1.46821e-17
-1.12635e-17
-9.90656e-18
-1.00282e-17
-3.36847e-18
1.26027e-17
3.49447e-17
4.67522e-17
3.8129e-17
5.90056e-18
-2.81883e-17
-4.73139e-17
-3.66991e-17
-1.52312e-17
5.7284e-18
7.16074e-18
1.0917e-17
1.21858e-17
2.5614e-17
1.17304e-17
-5.11216e-18
-4.17605e-17
-3.26491e-17
-2.82419e-17
-1.15149e-18
7.85623e-18
-8.6874e-18
3.0558e-17
-1.85029e-17
3.2668e-18
1.71462e-18
3.01762e-18
3.48327e-17
2.09377e-17
-1.75939e-17
-1.23048e-18
4.83202e-18
-2.85305e-17
-2.14795e-17
2.01474e-17
2.1987e-17
-2.31629e-18
1.1917e-18
1.35298e-17
-6.04533e-18
-3.43981e-17
-2.91751e-17
-4.3343e-18
-1.89765e-18
-2.11093e-17
-2.33697e-17
6.24137e-18
3.93191e-17
4.50038e-17
2.45859e-17
3.32892e-20
-1.41964e-17
-1.88245e-17
)
;

boundaryField
{
    inlet
    {
        type            cyclic;
        value           nonuniform List<scalar> 
120
(
-3.79017e-08
-3.85031e-08
-3.85239e-08
-3.85501e-08
-3.85734e-08
-3.85974e-08
-3.86225e-08
-3.86483e-08
-3.86748e-08
-3.87022e-08
-3.87305e-08
-3.87594e-08
-3.8789e-08
-3.88191e-08
-3.88499e-08
-3.88818e-08
-3.89158e-08
-3.89535e-08
-3.89957e-08
-3.90413e-08
-3.90846e-08
-3.91188e-08
-3.9142e-08
-3.91582e-08
-3.9172e-08
-3.91854e-08
-3.9199e-08
-3.92143e-08
-3.92399e-08
-3.92864e-08
-3.9357e-08
-3.94427e-08
-3.9531e-08
-3.96174e-08
-3.97031e-08
-3.97949e-08
-3.99016e-08
-4.00288e-08
-4.01619e-08
-4.02518e-08
-4.03919e-08
-4.06637e-08
-4.10823e-08
-4.09295e-08
-4.15309e-08
-4.20739e-08
-4.5629e-08
-6.36429e-08
-2.44064e-07
-9.95648e-07
-1.43698e-06
-1.65721e-06
-1.81161e-06
-1.92627e-06
-2.01649e-06
-2.08993e-06
-2.15123e-06
-2.20335e-06
-2.24831e-06
-2.28754e-06
-2.32209e-06
-2.35277e-06
-2.38017e-06
-2.4048e-06
-2.42703e-06
-2.44719e-06
-2.46553e-06
-2.48227e-06
-2.49761e-06
-2.51168e-06
-2.52464e-06
-2.53658e-06
-2.54762e-06
-2.55784e-06
-2.56731e-06
-2.57611e-06
-2.58429e-06
-2.5919e-06
-2.59901e-06
-2.60564e-06
-2.61183e-06
-2.61763e-06
-2.62305e-06
-2.62814e-06
-2.63291e-06
-2.63739e-06
-2.6416e-06
-2.64556e-06
-2.64929e-06
-2.6528e-06
-2.65611e-06
-2.65923e-06
-2.66218e-06
-2.66497e-06
-2.6676e-06
-2.67009e-06
-2.67245e-06
-2.67469e-06
-2.67681e-06
-2.67881e-06
-2.68072e-06
-2.68253e-06
-2.68426e-06
-2.68589e-06
-2.68745e-06
-2.68893e-06
-2.69035e-06
-2.69169e-06
-2.69298e-06
-2.6942e-06
-2.69537e-06
-2.69649e-06
-2.69755e-06
-2.69857e-06
-2.69954e-06
-2.70047e-06
-2.70134e-06
-2.70217e-06
-2.70291e-06
-2.70366e-06
)
;
    }
    outlet
    {
        type            cyclic;
        value           nonuniform List<scalar> 
120
(
3.79017e-08
3.85031e-08
3.85239e-08
3.85501e-08
3.85734e-08
3.85974e-08
3.86225e-08
3.86483e-08
3.86748e-08
3.87022e-08
3.87305e-08
3.87594e-08
3.8789e-08
3.88191e-08
3.88499e-08
3.88818e-08
3.89158e-08
3.89535e-08
3.89957e-08
3.90413e-08
3.90846e-08
3.91188e-08
3.9142e-08
3.91582e-08
3.9172e-08
3.91854e-08
3.9199e-08
3.92143e-08
3.92399e-08
3.92864e-08
3.9357e-08
3.94427e-08
3.9531e-08
3.96174e-08
3.97031e-08
3.97949e-08
3.99016e-08
4.00288e-08
4.01619e-08
4.02518e-08
4.03919e-08
4.06637e-08
4.10823e-08
4.09295e-08
4.15309e-08
4.20739e-08
4.5629e-08
6.36429e-08
2.44064e-07
9.95648e-07
1.43698e-06
1.65721e-06
1.81161e-06
1.92627e-06
2.01649e-06
2.08993e-06
2.15123e-06
2.20335e-06
2.24831e-06
2.28754e-06
2.32209e-06
2.35277e-06
2.38017e-06
2.4048e-06
2.42703e-06
2.44719e-06
2.46553e-06
2.48227e-06
2.49761e-06
2.51168e-06
2.52464e-06
2.53658e-06
2.54762e-06
2.55784e-06
2.56731e-06
2.57611e-06
2.58429e-06
2.5919e-06
2.59901e-06
2.60564e-06
2.61183e-06
2.61763e-06
2.62305e-06
2.62814e-06
2.63291e-06
2.63739e-06
2.6416e-06
2.64556e-06
2.64929e-06
2.6528e-06
2.65611e-06
2.65923e-06
2.66218e-06
2.66497e-06
2.6676e-06
2.67009e-06
2.67245e-06
2.67469e-06
2.67681e-06
2.67881e-06
2.68072e-06
2.68253e-06
2.68426e-06
2.68589e-06
2.68745e-06
2.68893e-06
2.69035e-06
2.69169e-06
2.69298e-06
2.6942e-06
2.69537e-06
2.69649e-06
2.69755e-06
2.69857e-06
2.69954e-06
2.70047e-06
2.70134e-06
2.70217e-06
2.70291e-06
2.70366e-06
)
;
    }
    top
    {
        type            calculated;
        value           uniform -1.9565e-17;
    }
    bottom
    {
        type            fixedValue;
        value           uniform 0;
    }
    frontAndBackPlanes
    {
        type            empty;
        value           nonuniform List<scalar> 0();
    }
}


// ************************************************************************* //
