/*--------------------------------*- C++ -*----------------------------------*\
| =========                 |                                                 |
| \\      /  F ield         | OpenFOAM: The Open Source CFD Toolbox           |
|  \\    /   O peration     | Version:  2206                                  |
|   \\  /    A nd           | Website:  www.openfoam.com                      |
|    \\/     M anipulation  |                                                 |
\*---------------------------------------------------------------------------*/
FoamFile
{
    version     2.0;
    format      ascii;
    arch        "LSB;label=32;scalar=64";
    class       surfaceScalarField;
    location    "2";
    object      phi.a;
}
// * * * * * * * * * * * * * * * * * * * * * * * * * * * * * * * * * * * * * //

dimensions      [0 3 -1 0 0 0 0];

oriented        oriented;

internalField   nonuniform List<scalar> 
119
(
-3.93682e-12
-7.96653e-12
-1.20811e-11
-1.62883e-11
-2.06228e-11
-2.50767e-11
-2.96635e-11
-3.43973e-11
-3.92848e-11
-4.43231e-11
-4.94968e-11
-5.47771e-11
-6.01311e-11
-6.55463e-11
-7.10655e-11
-7.68244e-11
-8.30721e-11
-9.01256e-11
-9.81293e-11
-1.06543e-10
-1.13922e-10
-1.1895e-10
-1.21691e-10
-1.23202e-10
-1.24267e-10
-1.25078e-10
-1.25641e-10
-1.25973e-10
-1.26134e-10
-1.2622e-10
-1.26326e-10
-1.26498e-10
-1.26726e-10
-1.26979e-10
-1.27229e-10
-1.27472e-10
-1.2772e-10
-1.27981e-10
-1.28214e-10
-1.28362e-10
-1.28473e-10
-1.28679e-10
-1.28885e-10
-1.28797e-10
-1.29332e-10
-1.01968e-10
4.93167e-11
5.66972e-10
2.2636e-09
1.22243e-09
8.46363e-09
3.24491e-08
1.16699e-07
1.33122e-07
-9.68979e-07
-1.74664e-06
-1.79427e-06
-1.79242e-06
-1.79437e-06
-1.79506e-06
-1.79565e-06
-1.79632e-06
-1.79667e-06
-1.79718e-06
-1.79741e-06
-1.7978e-06
-1.79795e-06
-1.79826e-06
-1.79836e-06
-1.7986e-06
-1.79867e-06
-1.79886e-06
-1.7989e-06
-1.79906e-06
-1.79908e-06
-1.79921e-06
-1.79923e-06
-1.79933e-06
-1.79934e-06
-1.79942e-06
-1.79943e-06
-1.7995e-06
-1.7995e-06
-1.79956e-06
-1.79955e-06
-1.7996e-06
-1.7996e-06
-1.79964e-06
-1.79964e-06
-1.79967e-06
-1.79967e-06
-1.7997e-06
-1.79969e-06
-1.79972e-06
-1.79971e-06
-1.79974e-06
-1.79973e-06
-1.79975e-06
-1.79975e-06
-1.79976e-06
-1.79976e-06
-1.79977e-06
-1.79977e-06
-1.79978e-06
-1.79978e-06
-1.79979e-06
-1.79978e-06
-1.79979e-06
-1.79979e-06
-1.7998e-06
-1.79979e-06
-1.7998e-06
-1.79979e-06
-1.7998e-06
-1.7998e-06
-1.7998e-06
-1.7998e-06
-1.7998e-06
-1.79979e-06
)
;

boundaryField
{
    inlet
    {
        type            cyclic;
        value           nonuniform List<scalar> 
120
(
-9.03612e-13
-2.77275e-12
-4.68809e-12
-6.63814e-12
-8.64284e-12
-1.07056e-11
-1.28284e-11
-1.50178e-11
-1.72787e-11
-1.96117e-11
-2.20125e-11
-2.44702e-11
-2.69698e-11
-2.94997e-11
-3.20659e-11
-3.47085e-11
-3.75146e-11
-4.06135e-11
-4.41205e-11
-4.7965e-11
-5.16619e-11
-5.44761e-11
-5.61382e-11
-5.70469e-11
-5.77336e-11
-5.83954e-11
-5.90351e-11
-5.96532e-11
-6.025e-11
-6.08257e-11
-6.13808e-11
-6.19156e-11
-6.24304e-11
-6.29254e-11
-6.34011e-11
-6.38577e-11
-6.42954e-11
-6.47145e-11
-6.51151e-11
-6.54975e-11
-6.58618e-11
-6.62082e-11
-6.6565e-11
-6.69703e-11
-6.78052e-11
-1.35935e-10
-2.89456e-09
-1.26625e-08
-3.39946e-08
-9.12552e-08
-2.54967e-07
-4.09294e-07
-6.05332e-07
-8.47273e-07
-1.49879e-06
-2.49905e-06
-2.56377e-06
-2.57474e-06
-2.58759e-06
-2.59523e-06
-2.60526e-06
-2.61195e-06
-2.62009e-06
-2.62584e-06
-2.6326e-06
-2.63756e-06
-2.64324e-06
-2.64755e-06
-2.65237e-06
-2.65612e-06
-2.66026e-06
-2.66353e-06
-2.6671e-06
-2.66997e-06
-2.67307e-06
-2.67559e-06
-2.67829e-06
-2.6805e-06
-2.68287e-06
-2.68482e-06
-2.68691e-06
-2.68862e-06
-2.69047e-06
-2.69198e-06
-2.69361e-06
-2.69494e-06
-2.69639e-06
-2.69756e-06
-2.69884e-06
-2.69988e-06
-2.70102e-06
-2.70193e-06
-2.70294e-06
-2.70375e-06
-2.70464e-06
-2.70535e-06
-2.70614e-06
-2.70676e-06
-2.70745e-06
-2.70799e-06
-2.7086e-06
-2.70907e-06
-2.70959e-06
-2.71e-06
-2.71045e-06
-2.7108e-06
-2.71117e-06
-2.71147e-06
-2.71177e-06
-2.71203e-06
-2.71227e-06
-2.71248e-06
-2.71266e-06
-2.71282e-06
-2.71296e-06
-2.71308e-06
-2.71317e-06
-2.71325e-06
-2.7133e-06
-2.71341e-06
)
;
    }
    outlet
    {
        type            cyclic;
        value           nonuniform List<scalar> 
120
(
9.03612e-13
2.77275e-12
4.68809e-12
6.63814e-12
8.64284e-12
1.07056e-11
1.28284e-11
1.50178e-11
1.72787e-11
1.96117e-11
2.20125e-11
2.44702e-11
2.69698e-11
2.94997e-11
3.20659e-11
3.47085e-11
3.75146e-11
4.06135e-11
4.41205e-11
4.7965e-11
5.16619e-11
5.44761e-11
5.61382e-11
5.70469e-11
5.77336e-11
5.83954e-11
5.90351e-11
5.96532e-11
6.025e-11
6.08257e-11
6.13808e-11
6.19156e-11
6.24304e-11
6.29254e-11
6.34011e-11
6.38577e-11
6.42954e-11
6.47145e-11
6.51151e-11
6.54975e-11
6.58618e-11
6.62082e-11
6.6565e-11
6.69703e-11
6.78052e-11
1.35935e-10
2.89456e-09
1.26625e-08
3.39946e-08
9.12552e-08
2.54967e-07
4.09294e-07
6.05332e-07
8.47273e-07
1.49879e-06
2.49905e-06
2.56377e-06
2.57474e-06
2.58759e-06
2.59523e-06
2.60526e-06
2.61195e-06
2.62009e-06
2.62584e-06
2.6326e-06
2.63756e-06
2.64324e-06
2.64755e-06
2.65237e-06
2.65612e-06
2.66026e-06
2.66353e-06
2.6671e-06
2.66997e-06
2.67307e-06
2.67559e-06
2.67829e-06
2.6805e-06
2.68287e-06
2.68482e-06
2.68691e-06
2.68862e-06
2.69047e-06
2.69198e-06
2.69361e-06
2.69494e-06
2.69639e-06
2.69756e-06
2.69884e-06
2.69988e-06
2.70102e-06
2.70193e-06
2.70294e-06
2.70375e-06
2.70464e-06
2.70535e-06
2.70614e-06
2.70676e-06
2.70745e-06
2.70799e-06
2.7086e-06
2.70907e-06
2.70959e-06
2.71e-06
2.71045e-06
2.7108e-06
2.71117e-06
2.71147e-06
2.71177e-06
2.71203e-06
2.71227e-06
2.71248e-06
2.71266e-06
2.71282e-06
2.71296e-06
2.71308e-06
2.71317e-06
2.71325e-06
2.7133e-06
2.71341e-06
)
;
    }
    top
    {
        type            calculated;
        value           uniform -1.7998e-06;
    }
    bottom
    {
        type            fixedValue;
        value           uniform 0;
    }
    frontAndBackPlanes
    {
        type            empty;
        value           nonuniform List<scalar> 0();
    }
}


// ************************************************************************* //
