/*--------------------------------*- C++ -*----------------------------------*\
| =========                 |                                                 |
| \\      /  F ield         | OpenFOAM: The Open Source CFD Toolbox           |
|  \\    /   O peration     | Version:  2206                                  |
|   \\  /    A nd           | Website:  www.openfoam.com                      |
|    \\/     M anipulation  |                                                 |
\*---------------------------------------------------------------------------*/
FoamFile
{
    version     2.0;
    format      ascii;
    arch        "LSB;label=32;scalar=64";
    class       volTensorField;
    location    "2";
    object      Taua;
}
// * * * * * * * * * * * * * * * * * * * * * * * * * * * * * * * * * * * * * //

dimensions      [1 -1 -2 0 0 0 0];

internalField   nonuniform List<tensor> 
120
(
(44.6958 0 0 75.5659 -89.3916 0 0 0 44.6958)
(43.7087 0 0 73.4735 -87.4174 0 0 0 43.7087)
(43.0725 0 0 72.8353 -86.1451 0 0 0 43.0725)
(42.0715 0 0 71.184 -84.1431 0 0 0 42.0715)
(41.2333 0 0 69.6479 -82.4666 0 0 0 41.2333)
(40.3671 0 0 68.2825 -80.7342 0 0 0 40.3671)
(39.4894 8.34559e-14 0 66.8266 -78.9788 0 0 0 39.4894)
(38.6104 0 0 65.336 -77.2207 0 0 0 38.6104)
(37.7297 0 0 63.8341 -75.4593 0 0 0 37.7297)
(36.8457 1.4178e-13 0 62.3136 -73.6913 0 0 0 36.8457)
(35.959 0 0 60.7821 -71.9179 0 0 0 35.959)
(35.0716 0 0 59.2676 -70.1432 0 0 0 35.0716)
(34.1857 0 0 57.8039 -68.3713 0 0 0 34.1857)
(33.3024 0 0 56.4123 -66.6048 0 0 0 33.3024)
(32.4211 0 0 55.0766 -64.8422 0 0 0 32.4211)
(31.5379 0 0 53.7108 -63.0758 0 0 0 31.5379)
(30.6445 0 0 52.1335 -61.2891 0 0 0 30.6445)
(29.7272 0 0 50.1135 -59.4544 0 0 0 29.7272)
(28.7691 0 0 47.5645 -57.5381 0 0 0 28.7691)
(27.7748 0 0 44.8141 -55.5497 0 0 0 27.7748)
(26.8153 0 0 42.5874 -53.6305 0 0 0 26.8153)
(25.9908 0 0 41.6502 -51.9817 0 0 0 25.9908)
(25.2821 0 0 42.6769 -50.5642 0 0 0 25.2821)
(24.4679 0 0 46.5194 -48.9359 0 0 0 24.4679)
(17.3731 0 0 39.6058 -34.7462 0 0 0 17.3731)
(13.2416 0 0 38.2274 -26.4833 0 0 0 13.2416)
(9.17789 0 0 36.9454 -18.3558 0 0 0 9.17789)
(5.42576 0 0 35.6817 -10.8515 0 0 0 5.42576)
(2.62393 0 0 34.4376 -5.24786 0 0 0 2.62393)
(1.40674 0 0 33.2137 -2.81349 0 0 0 1.40674)
(1.7334 0 0 32.01 -3.46679 0 0 0 1.7334)
(2.80126 0 0 30.8259 -5.60253 0 0 0 2.80126)
(3.72514 0 0 29.6606 -7.45027 0 0 0 3.72514)
(4.1208 0 0 28.513 -8.2416 0 0 0 4.1208)
(4.088 0 0 27.3819 -8.176 0 0 0 4.088)
(3.96041 0 0 26.266 -7.92081 0 0 0 3.96041)
(4.04374 0 0 25.1643 -8.08748 0 0 0 4.04374)
(4.26393 0 0 24.0755 -8.52786 0 0 0 4.26393)
(3.7943 0 0 22.9986 -7.5886 0 0 0 3.7943)
(2.41731 0 0 21.9323 -4.83462 0 0 0 2.41731)
(1.81518 0 0 20.8754 -3.63036 0 0 0 1.81518)
(3.39548 0 0 20.6537 -6.79096 0 0 0 3.39548)
(2.75071 0 0 18.8379 -5.50143 0 0 0 2.75071)
(-0.772586 0 0 25.0835 1.54517 0 0 0 -0.772586)
(0.00368118 0 0 15.6453 -0.00736235 0 0 0 0.00368118)
(-0.352256 0 0 12.08 0.704511 0 0 0 -0.352256)
(-0.154104 0 0 11.5713 0.308208 0 0 0 -0.154104)
(0.0406143 0 0 12.2974 -0.0812287 0 0 0 0.0406143)
(-0.228107 0 0 11.1018 0.456215 0 0 0 -0.228107)
(0.00888662 0 0 1.19374 -0.0177732 0 0 0 0.00888662)
(-0.00230476 0 0 0.109691 0.00460952 0 0 0 -0.00230476)
(-0.000747278 0 0 0.0400073 0.00149456 0 0 0 -0.000747278)
(-0.00169589 0 0 0.0104059 0.00339179 0 0 0 -0.00169589)
(0.000713374 0 0 0.016916 -0.00142675 0 0 0 0.000713374)
(0.000120094 0 0 0.000362597 -0.000240189 0 0 0 0.000120094)
(1.82422e-29 0 0 4.17115e-29 -3.64844e-29 0 0 0 1.82422e-29)
(3.28742e-60 0 0 8.05273e-60 -6.57485e-60 0 0 0 3.28742e-60)
(-9.97163e-86 0 0 2.58873e-84 1.99433e-85 0 0 0 -9.97163e-86)
(2.32402e-109 0 0 4.81509e-108 -4.64804e-109 0 0 0 2.32402e-109)
(2.58125e-133 0 0 1.0505e-131 -5.16249e-133 0 0 0 2.58125e-133)
(5.19166e-157 0 0 2.88854e-155 -1.03833e-156 0 0 0 5.19166e-157)
(2.39097e-180 0 0 9.1948e-179 -4.78194e-180 0 0 0 2.39097e-180)
(4.66417e-204 0 0 3.4553e-202 -9.32833e-204 0 0 0 4.66417e-204)
(2.18312e-227 0 0 9.44579e-226 -4.36624e-227 0 0 0 2.18312e-227)
(2.96288e-251 0 0 2.79776e-249 -5.92576e-251 0 0 0 2.96288e-251)
(2.12104e-274 0 0 1.02344e-272 -4.24208e-274 0 0 0 2.12104e-274)
(3.38871e-298 0 0 4.0831e-296 -6.77741e-298 0 0 0 3.38871e-298)
(4.45647e-321 0 0 2.3851e-319 -8.91294e-321 0 0 0 4.45647e-321)
(0 0 0 0 -0 0 0 0 0)
(0 0 0 0 -0 0 0 0 0)
(0 0 0 0 -0 0 0 0 0)
(0 0 0 0 -0 0 0 0 0)
(0 0 0 0 -0 0 0 0 0)
(0 0 0 0 -0 0 0 0 0)
(0 0 0 0 -0 0 0 0 0)
(0 0 0 0 -0 0 0 0 0)
(0 0 0 0 -0 0 0 0 0)
(0 0 0 0 -0 0 0 0 0)
(0 0 0 0 -0 0 0 0 0)
(0 0 0 0 -0 0 0 0 0)
(0 0 0 0 -0 0 0 0 0)
(0 0 0 0 -0 0 0 0 0)
(-0 0 0 0 0 0 0 0 -0)
(0 0 0 0 -0 0 0 0 0)
(-0 0 0 0 0 0 0 0 -0)
(0 0 0 0 -0 0 0 0 0)
(-0 0 0 0 0 0 0 0 -0)
(0 0 0 0 -0 0 0 0 0)
(-0 0 0 0 0 0 0 0 -0)
(0 0 0 0 -0 0 0 0 0)
(-0 0 0 0 0 0 0 0 -0)
(0 0 0 0 -0 0 0 0 0)
(-0 0 0 0 0 0 0 0 -0)
(0 0 0 0 -0 0 0 0 0)
(-0 0 0 0 0 0 0 0 -0)
(0 0 0 0 -0 0 0 0 0)
(-0 0 0 0 0 0 0 0 -0)
(0 0 0 0 -0 0 0 0 0)
(-0 0 0 0 0 0 0 0 -0)
(0 0 0 0 -0 0 0 0 0)
(-0 0 0 0 0 0 0 0 -0)
(0 0 0 0 -0 0 0 0 0)
(-0 0 0 0 0 0 0 0 -0)
(0 0 0 0 -0 0 0 0 0)
(-0 0 0 0 0 0 0 0 -0)
(0 0 0 0 -0 0 0 0 0)
(-0 0 0 0 0 0 0 0 -0)
(0 0 0 0 -0 0 0 0 0)
(-0 0 0 0 0 0 0 0 -0)
(0 0 0 0 -0 0 0 0 0)
(-0 0 0 0 0 0 0 0 -0)
(0 0 0 0 -0 0 0 0 0)
(-0 0 0 0 0 0 0 0 -0)
(0 0 0 0 -0 0 0 0 0)
(-0 0 0 0 0 0 0 0 -0)
(0 0 0 0 -0 0 0 0 0)
(-0 0 0 0 0 0 0 0 -0)
(0 0 0 0 -0 0 0 0 0)
(-0 0 0 0 0 0 0 0 -0)
(0 0 0 0 -0 0 0 0 0)
)
;

boundaryField
{
    inlet
    {
        type            cyclic;
    }
    outlet
    {
        type            cyclic;
    }
    top
    {
        type            extrapolatedCalculated;
        value           uniform (0 0 0 0 0 0 0 0 0);
    }
    bottom
    {
        type            extrapolatedCalculated;
        value           uniform (44.6425 0 0 76.1334 -89.2851 0 0 0 44.6425);
    }
    frontAndBackPlanes
    {
        type            empty;
    }
}


// ************************************************************************* //
