/*--------------------------------*- C++ -*----------------------------------*\
| =========                 |                                                 |
| \\      /  F ield         | OpenFOAM: The Open Source CFD Toolbox           |
|  \\    /   O peration     | Version:  2206                                  |
|   \\  /    A nd           | Website:  www.openfoam.com                      |
|    \\/     M anipulation  |                                                 |
\*---------------------------------------------------------------------------*/
FoamFile
{
    version     2.0;
    format      ascii;
    arch        "LSB;label=32;scalar=64";
    class       volTensorField;
    location    "2";
    object      Taub;
}
// * * * * * * * * * * * * * * * * * * * * * * * * * * * * * * * * * * * * * //

dimensions      [1 -1 -2 0 0 0 0];

internalField   nonuniform List<tensor> 
120
(
(-1.58552e-07 0 0 0.00348241 3.17104e-07 0 0 0 -1.58552e-07)
(-1.6011e-07 0 0 2.83668e-05 3.2022e-07 0 0 0 -1.6011e-07)
(-1.64729e-07 0 0 2.14303e-06 3.29457e-07 0 0 0 -1.64729e-07)
(-1.6831e-07 0 0 2.25553e-06 3.3662e-07 0 0 0 -1.6831e-07)
(-1.72729e-07 0 0 2.15606e-06 3.45457e-07 0 0 0 -1.72729e-07)
(-1.77757e-07 0 0 2.23957e-06 3.55513e-07 0 0 0 -1.77757e-07)
(-1.82949e-07 -4.9145e-22 0 2.32204e-06 3.65897e-07 0 0 0 -1.82949e-07)
(-1.88629e-07 0 0 2.39098e-06 3.77257e-07 0 0 0 -1.88629e-07)
(-1.94543e-07 0 0 2.4635e-06 3.89085e-07 0 0 0 -1.94543e-07)
(-2.00279e-07 -9.83516e-22 0 2.53988e-06 4.00559e-07 0 0 0 -2.00279e-07)
(-2.05359e-07 0 0 2.61167e-06 4.10718e-07 0 0 0 -2.05359e-07)
(-2.09406e-07 0 0 2.67333e-06 4.18813e-07 0 0 0 -2.09406e-07)
(-2.125e-07 0 0 2.7263e-06 4.25e-07 0 0 0 -2.125e-07)
(-2.15553e-07 0 0 2.78198e-06 4.31107e-07 0 0 0 -2.15553e-07)
(-2.20626e-07 0 0 2.86516e-06 4.41252e-07 0 0 0 -2.20626e-07)
(-2.31046e-07 0 0 3.01599e-06 4.62092e-07 0 0 0 -2.31046e-07)
(-2.50994e-07 0 0 3.27847e-06 5.01989e-07 0 0 0 -2.50994e-07)
(-2.81353e-07 0 0 3.65514e-06 5.62706e-07 0 0 0 -2.81353e-07)
(-3.10886e-07 0 0 4.01826e-06 6.21772e-07 0 0 0 -3.10886e-07)
(-3.17186e-07 0 0 4.06748e-06 6.34372e-07 0 0 0 -3.17186e-07)
(-2.78804e-07 0 0 3.54997e-06 5.57608e-07 0 0 0 -2.78804e-07)
(-1.99231e-07 0 0 2.62955e-06 3.98462e-07 0 0 0 -1.99231e-07)
(-1.1764e-07 0 0 1.80447e-06 2.3528e-07 0 0 0 -1.1764e-07)
(-6.6634e-08 0 0 1.37422e-06 1.33268e-07 0 0 0 -6.6634e-08)
(-4.32133e-08 0 0 1.24649e-06 8.64267e-08 0 0 0 -4.32133e-08)
(-3.12727e-08 0 0 1.23693e-06 6.25455e-08 0 0 0 -3.12727e-08)
(-2.1367e-08 0 0 1.32614e-06 4.2734e-08 0 0 0 -2.1367e-08)
(-1.20418e-08 0 0 1.87453e-06 2.40836e-08 0 0 0 -1.20418e-08)
(-4.84798e-09 0 0 3.30438e-06 9.69596e-09 0 0 0 -4.84798e-09)
(-9.52948e-10 0 0 5.37345e-06 1.9059e-09 0 0 0 -9.52948e-10)
(-1.94088e-10 0 0 7.17323e-06 3.88176e-10 0 0 0 -1.94088e-10)
(-1.19514e-09 0 0 7.99313e-06 2.39027e-09 0 0 0 -1.19514e-09)
(-2.74137e-09 0 0 8.03254e-06 5.48274e-09 0 0 0 -2.74137e-09)
(-2.81984e-09 0 0 7.91492e-06 5.63969e-09 0 0 0 -2.81984e-09)
(-4.51069e-09 0 0 8.16933e-06 9.02139e-09 0 0 0 -4.51069e-09)
(3.11941e-10 0 0 9.14589e-06 -6.23883e-10 0 0 0 3.11941e-10)
(-1.76591e-08 0 0 1.07852e-05 3.53182e-08 0 0 0 -1.76591e-08)
(6.08829e-08 0 0 1.20161e-05 -1.21766e-07 0 0 0 6.08829e-08)
(-1.64367e-07 0 0 1.03077e-05 3.28734e-07 0 0 0 -1.64367e-07)
(3.25617e-07 0 0 1.06332e-05 -6.51234e-07 0 0 0 3.25617e-07)
(-5.33684e-07 0 0 1.90694e-05 1.06737e-06 0 0 0 -5.33684e-07)
(8.35915e-07 0 0 3.20387e-05 -1.67183e-06 0 0 0 8.35915e-07)
(-1.15235e-06 0 0 1.23743e-05 2.30469e-06 0 0 0 -1.15235e-06)
(1.54754e-06 0 0 2.08604e-05 -3.09509e-06 0 0 0 1.54754e-06)
(-1.93874e-06 0 0 5.34999e-05 3.87747e-06 0 0 0 -1.93874e-06)
(3.40195e-06 0 0 0.000192609 -6.8039e-06 0 0 0 3.40195e-06)
(3.71987e-06 0 0 0.00103467 -7.43974e-06 0 0 0 3.71987e-06)
(2.82438e-05 0 0 0.0120363 -5.64877e-05 0 0 0 2.82438e-05)
(4.94377e-05 0 0 0.234384 -9.88755e-05 0 0 0 4.94377e-05)
(-0.00215613 0 0 4.70478 0.00431226 0 0 0 -0.00215613)
(-0.00135649 0 0 8.17702 0.00271299 0 0 0 -0.00135649)
(3.61193e-05 0 0 6.23929 -7.22386e-05 0 0 0 3.61193e-05)
(-0.000438998 0 0 5.85745 0.000877996 0 0 0 -0.000438998)
(-6.49412e-06 0 0 5.37795 1.29882e-05 0 0 0 -6.49412e-06)
(-0.000219743 0 0 4.98586 0.000439485 0 0 0 -0.000219743)
(5.16788e-05 0 0 4.62826 -0.000103358 0 0 0 5.16788e-05)
(-7.3941e-06 0 0 4.30347 1.47882e-05 0 0 0 -7.3941e-06)
(9.15783e-06 0 0 4.00505 -1.83157e-05 0 0 0 9.15783e-06)
(-7.73733e-06 0 0 3.72965 1.54747e-05 0 0 0 -7.73733e-06)
(5.27409e-06 0 0 3.4746 -1.05482e-05 0 0 0 5.27409e-06)
(-3.18082e-06 0 0 3.23786 6.36165e-06 0 0 0 -3.18082e-06)
(1.76758e-06 0 0 3.01775 -3.53517e-06 0 0 0 1.76758e-06)
(-9.25328e-07 0 0 2.81286 1.85066e-06 0 0 0 -9.25328e-07)
(4.62018e-07 0 0 2.62199 -9.24036e-07 0 0 0 4.62018e-07)
(-2.21196e-07 0 0 2.44407 4.42391e-07 0 0 0 -2.21196e-07)
(1.0147e-07 0 0 2.27816 -2.02941e-07 0 0 0 1.0147e-07)
(-5.06706e-08 0 0 2.12341 1.01341e-07 0 0 0 -5.06706e-08)
(2.68298e-08 0 0 1.97905 -5.36596e-08 0 0 0 2.68298e-08)
(-1.15644e-08 0 0 1.84437 2.31287e-08 0 0 0 -1.15644e-08)
(2.44909e-09 0 0 1.71872 -4.89817e-09 0 0 0 2.44909e-09)
(1.34077e-09 0 0 1.60152 -2.68154e-09 0 0 0 1.34077e-09)
(1.01829e-09 0 0 1.49221 -2.03657e-09 0 0 0 1.01829e-09)
(5.0792e-10 0 0 1.39027 -1.01584e-09 0 0 0 5.0792e-10)
(-2.23343e-10 0 0 1.29522 4.46685e-10 0 0 0 -2.23343e-10)
(-6.76377e-10 0 0 1.20662 1.35275e-09 0 0 0 -6.76377e-10)
(-5.85142e-10 0 0 1.12405 1.17028e-09 0 0 0 -5.85142e-10)
(-2.52651e-10 0 0 1.04712 5.05302e-10 0 0 0 -2.52651e-10)
(-1.10633e-10 0 0 0.975459 2.21267e-10 0 0 0 -1.10633e-10)
(-1.97175e-10 0 0 0.908723 3.94351e-10 0 0 0 -1.97175e-10)
(-1.21391e-10 0 0 0.846589 2.42782e-10 0 0 0 -1.21391e-10)
(3.06478e-10 0 0 0.788755 -6.12956e-10 0 0 0 3.06478e-10)
(7.69678e-10 0 0 0.734934 -1.53936e-09 0 0 0 7.69678e-10)
(7.2101e-10 0 0 0.68486 -1.44202e-09 0 0 0 7.2101e-10)
(1.22981e-10 0 0 0.638281 -2.45962e-10 0 0 0 1.22981e-10)
(-3.92327e-10 0 0 0.594962 7.84654e-10 0 0 0 -3.92327e-10)
(-5.99539e-10 0 0 0.554682 1.19908e-09 0 0 0 -5.99539e-10)
(-2.68339e-10 0 0 0.517234 5.36678e-10 0 0 0 -2.68339e-10)
(-1.47077e-10 0 0 0.482423 2.94154e-10 0 0 0 -1.47077e-10)
(-9.78103e-11 0 0 0.450066 1.95621e-10 0 0 0 -9.78103e-11)
(3.48947e-10 0 0 0.419995 -6.97894e-10 0 0 0 3.48947e-10)
(6.19872e-11 0 0 0.392048 -1.23974e-10 0 0 0 6.19872e-11)
(-1.90109e-10 0 0 0.366078 3.80218e-10 0 0 0 -1.90109e-10)
(-2.79825e-10 0 0 0.341945 5.5965e-10 0 0 0 -2.79825e-10)
(-4.13639e-10 0 0 0.319518 8.27277e-10 0 0 0 -4.13639e-10)
(2.74623e-10 0 0 0.298676 -5.49246e-10 0 0 0 2.74623e-10)
(5.97926e-10 0 0 0.279306 -1.19585e-09 0 0 0 5.97926e-10)
(1.37109e-11 0 0 0.261303 -2.74219e-11 0 0 0 1.37109e-11)
(3.97394e-11 0 0 0.244567 -7.94788e-11 0 0 0 3.97394e-11)
(4.01484e-10 0 0 0.229008 -8.02968e-10 0 0 0 4.01484e-10)
(-1.68958e-10 0 0 0.21454 3.37916e-10 0 0 0 -1.68958e-10)
(-6.89085e-10 0 0 0.201084 1.37817e-09 0 0 0 -6.89085e-10)
(-1.65814e-10 0 0 0.188566 3.31629e-10 0 0 0 -1.65814e-10)
(3.16402e-10 0 0 0.176918 -6.32804e-10 0 0 0 3.16402e-10)
(5.34483e-11 0 0 0.166076 -1.06897e-10 0 0 0 5.34483e-11)
(-5.7807e-11 0 0 0.15598 1.15614e-10 0 0 0 -5.7807e-11)
(3.68387e-10 0 0 0.146575 -7.36775e-10 0 0 0 3.68387e-10)
(4.83481e-10 0 0 0.137809 -9.66962e-10 0 0 0 4.83481e-10)
(-3.37334e-11 0 0 0.129632 6.74668e-11 0 0 0 -3.37334e-11)
(-3.76679e-10 0 0 0.121996 7.53357e-10 0 0 0 -3.76679e-10)
(-7.75902e-11 0 0 0.114853 1.5518e-10 0 0 0 -7.75902e-11)
(2.45242e-10 0 0 0.108152 -4.90483e-10 0 0 0 2.45242e-10)
(-2.86526e-11 0 0 0.101836 5.73053e-11 0 0 0 -2.86526e-11)
(-5.67671e-10 0 0 0.0958348 1.13534e-09 0 0 0 -5.67671e-10)
(-6.4872e-10 0 0 0.0900481 1.29744e-09 0 0 0 -6.4872e-10)
(-1.62404e-10 0 0 0.0843345 3.24809e-10 0 0 0 -1.62404e-10)
(3.65023e-10 0 0 0.0784025 -7.30046e-10 0 0 0 3.65023e-10)
(5.07297e-10 0 0 0.0720905 -1.01459e-09 0 0 0 5.07297e-10)
(3.26689e-10 0 0 0.0630143 -6.53377e-10 0 0 0 3.26689e-10)
(1.2615e-10 0 0 0.058801 -2.523e-10 0 0 0 1.2615e-10)
(1.27091e-11 0 0 0.0153317 -2.54182e-11 0 0 0 1.27091e-11)
)
;

boundaryField
{
    inlet
    {
        type            cyclic;
    }
    outlet
    {
        type            cyclic;
    }
    top
    {
        type            extrapolatedCalculated;
        value           uniform (0 0 0 0 0 0 0 0 0);
    }
    bottom
    {
        type            extrapolatedCalculated;
        value           uniform (-1.59911e-07 0 0 0.00690999 3.19821e-07 0 0 0 -1.59911e-07);
    }
    frontAndBackPlanes
    {
        type            empty;
    }
}


// ************************************************************************* //
