/*--------------------------------*- C++ -*----------------------------------*\
| =========                 |                                                 |
| \\      /  F ield         | OpenFOAM: The Open Source CFD Toolbox           |
|  \\    /   O peration     | Version:  2206                                  |
|   \\  /    A nd           | Website:  www.openfoam.com                      |
|    \\/     M anipulation  |                                                 |
\*---------------------------------------------------------------------------*/
FoamFile
{
    version     2.0;
    format      ascii;
    arch        "LSB;label=32;scalar=64";
    class       volScalarField;
    location    "2";
    object      Theta;
}
// * * * * * * * * * * * * * * * * * * * * * * * * * * * * * * * * * * * * * //

dimensions      [0 2 -2 0 0 0 0];

internalField   nonuniform List<scalar> 
120
(
1.85329e-15
2.08603e-15
2.23374e-15
2.44622e-15
2.76644e-15
3.10305e-15
3.50907e-15
3.99672e-15
4.54159e-15
5.0981e-15
5.60262e-15
6.00319e-15
6.33037e-15
6.77643e-15
7.76146e-15
1.00388e-14
1.47974e-14
2.37714e-14
2.50076e-13
9.30236e-12
1.06524e-10
5.37435e-10
1.72646e-09
4.29876e-09
9.13679e-09
1.74646e-08
3.09669e-08
5.19542e-08
8.36122e-08
1.3038e-07
1.98452e-07
2.96337e-07
4.35534e-07
6.31531e-07
9.05303e-07
1.28549e-06
1.81152e-06
2.53768e-06
3.53697e-06
4.90126e-06
6.76398e-06
9.33648e-06
1.29338e-05
1.77129e-05
2.43333e-05
3.36747e-05
4.6969e-05
6.76971e-05
0.000103334
0.000142032
0.000415044
0.0030823
0.00981406
0.028368
0.0325812
0.000208546
1.0615e-15
1.05384e-15
1.05038e-15
1.04985e-15
1.04931e-15
1.0491e-15
1.0487e-15
1.04858e-15
1.04828e-15
1.0482e-15
1.04797e-15
1.04792e-15
1.04774e-15
1.04771e-15
1.04758e-15
1.04756e-15
1.04745e-15
1.04744e-15
1.04736e-15
1.04735e-15
1.04729e-15
1.04729e-15
1.04723e-15
1.04724e-15
1.04719e-15
1.0472e-15
1.04716e-15
1.04717e-15
1.04714e-15
1.04715e-15
1.04712e-15
1.04713e-15
1.04711e-15
1.04712e-15
1.0471e-15
1.04711e-15
1.0471e-15
1.04711e-15
1.0471e-15
1.04711e-15
1.0471e-15
1.04711e-15
1.0471e-15
1.04711e-15
1.0471e-15
1.04711e-15
1.04711e-15
1.04711e-15
1.04711e-15
1.04712e-15
1.04712e-15
1.04712e-15
1.04712e-15
1.04713e-15
1.04713e-15
1.04714e-15
1.04714e-15
1.04715e-15
1.04715e-15
1.04715e-15
1.04715e-15
1.04716e-15
1.04717e-15
1.04717e-15
)
;

boundaryField
{
    inlet
    {
        type            cyclic;
    }
    outlet
    {
        type            cyclic;
    }
    top
    {
        type            zeroGradient;
    }
    bottom
    {
        type            zeroGradient;
    }
    frontAndBackPlanes
    {
        type            empty;
    }
}


// ************************************************************************* //
