/*--------------------------------*- C++ -*----------------------------------*\
| =========                 |                                                 |
| \\      /  F ield         | OpenFOAM: The Open Source CFD Toolbox           |
|  \\    /   O peration     | Version:  2206                                  |
|   \\  /    A nd           | Website:  www.openfoam.com                      |
|    \\/     M anipulation  |                                                 |
\*---------------------------------------------------------------------------*/
FoamFile
{
    version     2.0;
    format      ascii;
    arch        "LSB;label=32;scalar=64";
    class       volVectorField;
    location    "2";
    object      U.a;
}
// * * * * * * * * * * * * * * * * * * * * * * * * * * * * * * * * * * * * * //

dimensions      [0 1 -1 0 0 0 0];

internalField   nonuniform List<vector> 
120
(
(3.23788e-07 -5.69582e-07 0)
(9.93549e-07 -1.76796e-06 0)
(1.67987e-06 -2.98974e-06 0)
(2.37862e-06 -4.22522e-06 0)
(3.09696e-06 -5.50234e-06 0)
(3.8361e-06 -6.81382e-06 0)
(4.59675e-06 -8.16227e-06 0)
(5.38129e-06 -9.55307e-06 0)
(6.19142e-06 -1.09894e-05 0)
(7.02741e-06 -1.24719e-05 0)
(7.88766e-06 -1.39983e-05 0)
(8.76832e-06 -1.55617e-05 0)
(9.66398e-06 -1.71517e-05 0)
(1.05705e-05 -1.87592e-05 0)
(1.14901e-05 -2.03858e-05 0)
(1.2437e-05 -2.20554e-05 0)
(1.34425e-05 -2.3825e-05 0)
(1.45529e-05 -2.57866e-05 0)
(1.58095e-05 -2.80374e-05 0)
(1.71871e-05 -3.05665e-05 0)
(1.85118e-05 -3.30619e-05 0)
(1.95202e-05 -3.49736e-05 0)
(2.01158e-05 -3.60647e-05 0)
(2.04414e-05 -3.66108e-05 0)
(2.06875e-05 -3.69667e-05 0)
(2.09246e-05 -3.72466e-05 0)
(2.11539e-05 -3.74514e-05 0)
(2.13753e-05 -3.75825e-05 0)
(2.15892e-05 -3.765e-05 0)
(2.17955e-05 -3.76786e-05 0)
(2.19944e-05 -3.77014e-05 0)
(2.2186e-05 -3.7742e-05 0)
(2.23705e-05 -3.7804e-05 0)
(2.25479e-05 -3.78784e-05 0)
(2.27183e-05 -3.79548e-05 0)
(2.28819e-05 -3.8028e-05 0)
(2.30388e-05 -3.80997e-05 0)
(2.31889e-05 -3.8176e-05 0)
(2.33325e-05 -3.82558e-05 0)
(2.34695e-05 -3.83148e-05 0)
(2.36e-05 -3.83443e-05 0)
(2.37242e-05 -3.83813e-05 0)
(2.3852e-05 -3.84685e-05 0)
(2.39973e-05 -3.85009e-05 0)
(2.42964e-05 -3.84275e-05 0)
(4.87091e-05 -3.85183e-05 0)
(0.0010372 5.01822e-05 0)
(0.0045373 0.000140817 0)
(0.0121812 -6.02321e-05 0)
(0.0326992 0.00187673 0)
(0.0913614 -0.00182857 0)
(0.146661 0.00906021 0)
(0.216907 0.00520644 0)
(0.3036 0.0857913 0)
(0.537057 -0.0352972 0)
(0.895476 -0.502308 0)
(0.918666 -0.535979 0)
(0.922599 -0.535525 0)
(0.927203 -0.534993 0)
(0.929938 -0.536588 0)
(0.933533 -0.535459 0)
(0.935931 -0.536911 0)
(0.938849 -0.535874 0)
(0.940909 -0.537112 0)
(0.94333 -0.536185 0)
(0.945109 -0.537246 0)
(0.947144 -0.536422 0)
(0.948687 -0.537335 0)
(0.950416 -0.536605 0)
(0.95176 -0.537395 0)
(0.953242 -0.53675 0)
(0.954415 -0.537434 0)
(0.955694 -0.536865 0)
(0.956722 -0.53746 0)
(0.957832 -0.536957 0)
(0.958734 -0.537476 0)
(0.959703 -0.537032 0)
(0.960496 -0.537486 0)
(0.961345 -0.537094 0)
(0.962043 -0.537491 0)
(0.962791 -0.537145 0)
(0.963405 -0.537493 0)
(0.964066 -0.537187 0)
(0.964607 -0.537492 0)
(0.965191 -0.537223 0)
(0.965669 -0.53749 0)
(0.966187 -0.537253 0)
(0.966609 -0.537488 0)
(0.967067 -0.537279 0)
(0.96744 -0.537485 0)
(0.967847 -0.537301 0)
(0.968175 -0.537481 0)
(0.968536 -0.537319 0)
(0.968825 -0.537478 0)
(0.969145 -0.537335 0)
(0.969399 -0.537474 0)
(0.969681 -0.537349 0)
(0.969904 -0.537471 0)
(0.970151 -0.537361 0)
(0.970347 -0.537467 0)
(0.970563 -0.537371 0)
(0.970733 -0.537464 0)
(0.970919 -0.53738 0)
(0.971067 -0.537461 0)
(0.971225 -0.537388 0)
(0.971353 -0.537458 0)
(0.971485 -0.537395 0)
(0.971594 -0.537455 0)
(0.971701 -0.537401 0)
(0.971793 -0.537452 0)
(0.971877 -0.537407 0)
(0.971952 -0.537448 0)
(0.972019 -0.537413 0)
(0.972076 -0.537444 0)
(0.972126 -0.537418 0)
(0.972167 -0.53744 0)
(0.972201 -0.537422 0)
(0.972228 -0.537436 0)
(0.972248 -0.537425 0)
(0.972289 -0.53743 0)
)
;

boundaryField
{
    inlet
    {
        type            cyclic;
    }
    outlet
    {
        type            cyclic;
    }
    top
    {
        type            zeroGradient;
    }
    bottom
    {
        type            fixedValue;
        value           uniform (0 0 0);
    }
    frontAndBackPlanes
    {
        type            empty;
    }
}


// ************************************************************************* //
