/*--------------------------------*- C++ -*----------------------------------*\
| =========                 |                                                 |
| \\      /  F ield         | OpenFOAM: The Open Source CFD Toolbox           |
|  \\    /   O peration     | Version:  2206                                  |
|   \\  /    A nd           | Website:  www.openfoam.com                      |
|    \\/     M anipulation  |                                                 |
\*---------------------------------------------------------------------------*/
FoamFile
{
    version     2.0;
    format      ascii;
    arch        "LSB;label=32;scalar=64";
    class       volVectorField;
    location    "2";
    object      U.b;
}
// * * * * * * * * * * * * * * * * * * * * * * * * * * * * * * * * * * * * * //

dimensions      [0 1 -1 0 0 0 0];

internalField   nonuniform List<vector> 
120
(
(0.0135812 9.42884e-07 0)
(0.0137967 2.79661e-06 0)
(0.0138041 4.71834e-06 0)
(0.0138135 6.68051e-06 0)
(0.0138219 8.68584e-06 0)
(0.0138305 1.07514e-05 0)
(0.0138395 1.28745e-05 0)
(0.0138487 1.50615e-05 0)
(0.0138582 1.73175e-05 0)
(0.013868 1.96429e-05 0)
(0.0138782 2.2033e-05 0)
(0.0138885 2.44769e-05 0)
(0.0138991 2.69611e-05 0)
(0.0139099 2.94767e-05 0)
(0.0139209 3.20315e-05 0)
(0.0139324 3.46652e-05 0)
(0.0139446 3.74637e-05 0)
(0.0139581 4.05648e-05 0)
(0.0139732 4.4075e-05 0)
(0.0139895 4.78677e-05 0)
(0.014005 5.15232e-05 0)
(0.0140173 5.44124e-05 0)
(0.0140256 5.61987e-05 0)
(0.0140314 5.71726e-05 0)
(0.0140364 5.77619e-05 0)
(0.0140412 5.81862e-05 0)
(0.014046 5.84954e-05 0)
(0.0140515 5.86873e-05 0)
(0.0140607 5.87777e-05 0)
(0.0140774 5.8801e-05 0)
(0.0141027 5.88001e-05 0)
(0.0141334 5.88055e-05 0)
(0.014165 5.8828e-05 0)
(0.014196 5.88696e-05 0)
(0.0142267 5.88939e-05 0)
(0.0142596 5.89749e-05 0)
(0.0142978 5.88867e-05 0)
(0.0143434 5.93866e-05 0)
(0.0143911 5.74687e-05 0)
(0.0144233 6.32103e-05 0)
(0.0144735 4.98995e-05 0)
(0.0145709 7.56017e-05 0)
(0.0147209 3.05352e-05 0)
(0.0146661 0.000102205 0)
(0.0148816 -5.23683e-06 0)
(0.0150762 0.000146787 0)
(0.0163501 -8.30475e-05 0)
(0.022805 6.34273e-05 0)
(0.0874545 -0.000583598 0)
(0.356767 -0.000147897 0)
(0.514908 4.08948e-06 0)
(0.593823 -2.99205e-05 0)
(0.649149 1.75812e-06 0)
(0.690233 -8.24369e-06 0)
(0.722562 2.02408e-06 0)
(0.748878 -4.89723e-07 0)
(0.770842 4.06825e-07 0)
(0.789517 -2.80243e-07 0)
(0.805628 1.68202e-07 0)
(0.819686 -9.24878e-08 0)
(0.832068 4.78031e-08 0)
(0.843059 -2.36035e-08 0)
(0.852879 1.12333e-08 0)
(0.861703 -5.2039e-09 0)
(0.869669 2.35772e-09 0)
(0.876892 -1.08001e-09 0)
(0.883464 5.14415e-10 0)
(0.889464 -1.79935e-10 0)
(0.894959 4.69157e-11 0)
(0.900003 1.82924e-11 0)
(0.904644 5.51203e-12 0)
(0.908925 -4.11534e-12 0)
(0.91288 -1.13475e-11 0)
(0.916541 -1.24627e-11 0)
(0.919935 -7.69765e-12 0)
(0.923087 -1.45347e-12 0)
(0.926019 1.80288e-12 0)
(0.928748 2.64414e-12 0)
(0.931293 3.59752e-12 0)
(0.933668 5.84701e-12 0)
(0.935888 5.57425e-12 0)
(0.937965 8.38862e-13 0)
(0.939909 -7.05893e-12 0)
(0.941732 -1.10585e-11 0)
(0.943442 -9.10066e-12 0)
(0.945047 -4.50021e-12 0)
(0.946556 9.973e-13 0)
(0.947975 5.65113e-14 0)
(0.94931 3.51683e-12 0)
(0.950569 1.74772e-12 0)
(0.951755 -2.5761e-12 0)
(0.952874 6.54227e-13 0)
(0.953931 8.13478e-13 0)
(0.954929 5.69874e-12 0)
(0.955873 8.35554e-12 0)
(0.956765 6.32626e-13 0)
(0.957611 -2.80728e-12 0)
(0.958411 3.73514e-13 0)
(0.959171 -3.56766e-12 0)
(0.959891 -7.40592e-12 0)
(0.960574 -2.5176e-13 0)
(0.961223 6.29343e-12 0)
(0.96184 3.08794e-12 0)
(0.962427 -1.63503e-13 0)
(0.962985 1.98269e-12 0)
(0.963516 1.04786e-12 0)
(0.964022 -5.84064e-12 0)
(0.964505 -9.35807e-12 0)
(0.964965 -5.10478e-12 0)
(0.965404 -1.02951e-12 0)
(0.965823 -3.36575e-12 0)
(0.966223 -6.60219e-12 0)
(0.966605 -2.70547e-12 0)
(0.96697 6.6714e-12 0)
(0.967318 1.27015e-11 0)
(0.96765 1.05964e-11 0)
(0.967963 3.68912e-12 0)
(0.968259 -2.27251e-12 0)
(0.968525 -5.04545e-12 0)
(0.968794 -5.71391e-12 0)
)
;

boundaryField
{
    inlet
    {
        type            cyclic;
    }
    outlet
    {
        type            cyclic;
    }
    top
    {
        type            zeroGradient;
    }
    bottom
    {
        type            fixedValue;
        value           uniform (0 0 0);
    }
    frontAndBackPlanes
    {
        type            empty;
    }
}


// ************************************************************************* //
