/*--------------------------------*- C++ -*----------------------------------*\
| =========                 |                                                 |
| \\      /  F ield         | OpenFOAM: The Open Source CFD Toolbox           |
|  \\    /   O peration     | Version:  2206                                  |
|   \\  /    A nd           | Website:  www.openfoam.com                      |
|    \\/     M anipulation  |                                                 |
\*---------------------------------------------------------------------------*/
FoamFile
{
    version     2.0;
    format      ascii;
    arch        "LSB;label=32;scalar=64";
    class       volScalarField;
    location    "240";
    object      nuEffb;
}
// * * * * * * * * * * * * * * * * * * * * * * * * * * * * * * * * * * * * * //

dimensions      [0 2 -1 0 0 0 0];

internalField   nonuniform List<scalar> 
120
(
0.000128286
0.000128063
0.000128052
0.000127796
0.000127749
0.00012749
0.000127389
0.000127127
0.000126954
0.000126668
0.000126393
0.000126014
0.000125584
0.000125067
0.000124513
0.000124063
0.000117845
0.000105098
9.87762e-05
9.63436e-05
9.53319e-05
9.49466e-05
9.48048e-05
9.4753e-05
9.47346e-05
9.47282e-05
9.47261e-05
9.47254e-05
9.47251e-05
9.4725e-05
9.4725e-05
9.4725e-05
9.4725e-05
9.4725e-05
9.4725e-05
9.4725e-05
9.4725e-05
9.4725e-05
9.4725e-05
9.4725e-05
9.4725e-05
9.4725e-05
9.4725e-05
9.4725e-05
9.4725e-05
9.4725e-05
9.4725e-05
9.4725e-05
9.4725e-05
9.4725e-05
9.4725e-05
9.4725e-05
9.4725e-05
9.4725e-05
9.4725e-05
9.4725e-05
9.4725e-05
9.4725e-05
9.4725e-05
9.4725e-05
9.4725e-05
9.4725e-05
9.4725e-05
9.4725e-05
9.4725e-05
9.4725e-05
9.4725e-05
9.4725e-05
9.4725e-05
9.4725e-05
9.4725e-05
9.4725e-05
9.4725e-05
9.4725e-05
9.4725e-05
9.4725e-05
9.4725e-05
9.4725e-05
9.4725e-05
9.4725e-05
9.4725e-05
9.4725e-05
9.4725e-05
9.4725e-05
9.4725e-05
9.4725e-05
9.4725e-05
9.4725e-05
9.4725e-05
9.4725e-05
9.4725e-05
9.4725e-05
9.4725e-05
9.4725e-05
9.4725e-05
9.4725e-05
9.47251e-05
9.47251e-05
9.47225e-05
9.47168e-05
9.47751e-05
9.49258e-05
9.44814e-05
8.72894e-05
9.64715e-05
2.21463e-05
2.10519e-05
2.105e-05
2.105e-05
2.105e-05
2.105e-05
2.105e-05
2.105e-05
2.105e-05
2.105e-05
2.105e-05
2.105e-05
2.105e-05
2.105e-05
2.105e-05
)
;

boundaryField
{
    inlet
    {
        type            cyclic;
    }
    outlet
    {
        type            cyclic;
    }
    top
    {
        type            calculated;
        value           uniform 2.105e-05;
    }
    bottom
    {
        type            calculated;
        value           uniform 0.000128286;
    }
    frontAndBackPlanes
    {
        type            empty;
    }
}


// ************************************************************************* //
