/*--------------------------------*- C++ -*----------------------------------*\
| =========                 |                                                 |
| \\      /  F ield         | OpenFOAM: The Open Source CFD Toolbox           |
|  \\    /   O peration     | Version:  2206                                  |
|   \\  /    A nd           | Website:  www.openfoam.com                      |
|    \\/     M anipulation  |                                                 |
\*---------------------------------------------------------------------------*/
FoamFile
{
    version     2.0;
    format      ascii;
    arch        "LSB;label=32;scalar=64";
    class       volScalarField;
    location    "240";
    object      p_rbgh;
}
// * * * * * * * * * * * * * * * * * * * * * * * * * * * * * * * * * * * * * //

dimensions      [1 -1 -2 0 0 0 0];

internalField   nonuniform List<scalar> 
120
(
22.1416
22.1397
22.1359
22.13
22.1218
22.1112
22.0981
22.082
22.0627
22.0396
22.0121
21.979
21.9392
21.8915
21.836
21.7763
21.7167
21.4715
21.2133
20.9629
20.716
20.4702
20.2247
19.9794
19.7341
19.4889
19.2436
18.9984
18.7531
18.5079
18.2626
18.0174
17.7721
17.5269
17.2816
17.0364
16.7911
16.5459
16.3006
16.0554
15.8101
15.5649
15.3196
15.0744
14.8291
14.5839
14.3386
14.0934
13.8481
13.6029
13.3576
13.1124
12.8671
12.6219
12.3766
12.1314
11.8861
11.6409
11.3956
11.1504
10.9051
10.6599
10.4146
10.1694
9.92413
9.67888
9.43363
9.18838
8.94313
8.69788
8.45263
8.20738
7.96213
7.71688
7.47163
7.22638
6.98113
6.73588
6.49063
6.24538
6.00013
5.75488
5.50963
5.26438
5.01913
4.77388
4.52863
4.28338
4.03813
3.79288
3.54763
3.30238
3.05713
2.81188
2.56663
2.32138
2.07613
1.83088
1.58563
1.34036
1.09508
0.850339
0.606061
0.352436
0.0796934
0.0109394
-0.00370351
-0.00130258
6.6754e-05
9.32985e-05
5.79657e-06
-6.35288e-06
-1.23099e-06
3.5723e-07
1.49738e-07
-4.61541e-09
-1.12647e-08
-8.64886e-10
9.62947e-10
2.64097e-10
)
;

boundaryField
{
    inlet
    {
        type            cyclic;
    }
    outlet
    {
        type            cyclic;
    }
    top
    {
        type            fixedValue;
        value           uniform 0;
    }
    bottom
    {
        type            fixedFluxPressure;
        gradient        uniform 0;
        value           uniform 22.1416;
    }
    frontAndBackPlanes
    {
        type            empty;
    }
}


// ************************************************************************* //
