/*--------------------------------*- C++ -*----------------------------------*\
| =========                 |                                                 |
| \\      /  F ield         | OpenFOAM: The Open Source CFD Toolbox           |
|  \\    /   O peration     | Version:  2206                                  |
|   \\  /    A nd           | Website:  www.openfoam.com                      |
|    \\/     M anipulation  |                                                 |
\*---------------------------------------------------------------------------*/
FoamFile
{
    version     2.0;
    format      ascii;
    arch        "LSB;label=32;scalar=64";
    class       surfaceScalarField;
    location    "240";
    object      phi.b;
}
// * * * * * * * * * * * * * * * * * * * * * * * * * * * * * * * * * * * * * //

dimensions      [0 3 -1 0 0 0 0];

oriented        oriented;

internalField   nonuniform List<scalar> 
119
(
7.42687e-15
1.57166e-14
2.41226e-14
3.34405e-14
4.33486e-14
5.42187e-14
6.65446e-14
8.03029e-14
9.66777e-14
1.15884e-13
1.40392e-13
1.70479e-13
2.06669e-13
2.43461e-13
2.65258e-13
2.80463e-13
1.48911e-12
1.987e-12
2.18283e-12
2.27102e-12
2.30409e-12
2.31622e-12
2.32076e-12
2.32242e-12
2.323e-12
2.32321e-12
2.32327e-12
2.3233e-12
2.32331e-12
2.32331e-12
2.32331e-12
2.32331e-12
2.32331e-12
2.32331e-12
2.32331e-12
2.32331e-12
2.32331e-12
2.32331e-12
2.32331e-12
2.32331e-12
2.32331e-12
2.32331e-12
2.32331e-12
2.32331e-12
2.32331e-12
2.32331e-12
2.32331e-12
2.32331e-12
2.32331e-12
2.32331e-12
2.32331e-12
2.32331e-12
2.32331e-12
2.32331e-12
2.32331e-12
2.32331e-12
2.32331e-12
2.32331e-12
2.32331e-12
2.32331e-12
2.32331e-12
2.32331e-12
2.32331e-12
2.32331e-12
2.32331e-12
2.32331e-12
2.32331e-12
2.32331e-12
2.32331e-12
2.32331e-12
2.32331e-12
2.32331e-12
2.32331e-12
2.32331e-12
2.32331e-12
2.32331e-12
2.32331e-12
2.32331e-12
2.32331e-12
2.32331e-12
2.32331e-12
2.32331e-12
2.32331e-12
2.32331e-12
2.32331e-12
2.32331e-12
2.32331e-12
2.32331e-12
2.32331e-12
2.32331e-12
2.32331e-12
2.32331e-12
2.32331e-12
2.32331e-12
2.32331e-12
2.32331e-12
2.32332e-12
2.32335e-12
2.32325e-12
2.32232e-12
2.32377e-12
2.33292e-12
2.38508e-12
2.17591e-12
9.86332e-12
2.27794e-13
6.46258e-16
1.57239e-17
1.44172e-18
1.47963e-18
5.59908e-19
3.90699e-19
-1.20888e-19
-1.03705e-18
-1.60421e-18
-6.52069e-19
-1.4103e-20
4.54741e-19
6.58098e-19
)
;

boundaryField
{
    inlet
    {
        type            cyclic;
        value           nonuniform List<scalar> 
120
(
5.02325e-28
1.50297e-27
2.47458e-27
3.47152e-27
4.42752e-27
5.35667e-27
6.13515e-27
7.12878e-27
8.14901e-27
8.78297e-27
9.57486e-27
1.06616e-26
1.10918e-26
1.18496e-26
1.25127e-26
1.28834e-26
1.46924e-26
3.06379e-25
3.78027e-25
4.08371e-25
4.38381e-25
5.14507e-25
7.90806e-25
1.65518e-24
-3.66962e-25
-1.55943e-24
-2.35927e-24
-2.53864e-24
-2.8161e-24
-3.20085e-24
-3.0696e-24
-2.40461e-24
-1.80498e-24
-1.25012e-24
-7.36715e-25
-2.48835e-25
-3.96885e-25
-1.1945e-24
-1.39086e-24
-2.27825e-24
-1.9521e-24
-2.31526e-24
-2.08799e-24
-1.90816e-24
-1.74657e-24
-2.25559e-24
-1.55887e-24
-9.342e-25
3.00735e-25
2.70716e-25
2.3994e-25
1.79278e-25
8.71603e-26
-3.81462e-26
-1.84772e-25
-9.80681e-25
-1.80387e-24
-2.67227e-24
-3.61821e-24
-3.39506e-24
-3.25696e-24
-3.17941e-24
-3.16587e-24
-3.2201e-24
-3.37362e-24
-2.35075e-24
-2.65509e-24
-3.01058e-24
-3.44797e-24
-3.97017e-24
-4.60804e-24
-4.11367e-24
-3.73992e-24
-3.46101e-24
-3.27944e-24
-3.19809e-24
-3.21992e-24
-3.34794e-24
-3.58511e-24
-3.93425e-24
-4.39793e-24
-4.97831e-24
-5.67703e-24
-6.49509e-24
-7.43321e-24
-8.54762e-24
-7.33621e-24
-6.2974e-24
-5.37135e-24
-4.55397e-24
-3.84129e-24
-3.22935e-24
-2.71457e-24
-2.2942e-24
-1.9649e-24
-1.71439e-24
-1.45622e-24
-1.05204e-24
-6.63066e-25
-3.86996e-25
-2.02643e-25
-9.76277e-26
-4.4055e-26
-1.94527e-26
-8.15262e-27
-7.68948e-27
-6.70628e-27
-5.8258e-27
-5.05187e-27
-4.36752e-27
-3.75866e-27
-3.21344e-27
-2.72181e-27
-2.27507e-27
-1.8656e-27
-1.48657e-27
-1.13175e-27
-7.9537e-28
-4.71947e-28
-1.5622e-28
)
;
    }
    outlet
    {
        type            cyclic;
        value           nonuniform List<scalar> 
120
(
-5.02325e-28
-1.50297e-27
-2.47458e-27
-3.47152e-27
-4.42752e-27
-5.35667e-27
-6.13515e-27
-7.12878e-27
-8.14901e-27
-8.78297e-27
-9.57486e-27
-1.06616e-26
-1.10918e-26
-1.18496e-26
-1.25127e-26
-1.28834e-26
-1.46924e-26
-3.06379e-25
-3.78027e-25
-4.08371e-25
-4.38381e-25
-5.14507e-25
-7.90806e-25
-1.65518e-24
3.66962e-25
1.55943e-24
2.35927e-24
2.53864e-24
2.8161e-24
3.20085e-24
3.0696e-24
2.40461e-24
1.80498e-24
1.25012e-24
7.36715e-25
2.48835e-25
3.96885e-25
1.1945e-24
1.39086e-24
2.27825e-24
1.9521e-24
2.31526e-24
2.08799e-24
1.90816e-24
1.74657e-24
2.25559e-24
1.55887e-24
9.342e-25
-3.00735e-25
-2.70716e-25
-2.3994e-25
-1.79278e-25
-8.71603e-26
3.81462e-26
1.84772e-25
9.80681e-25
1.80387e-24
2.67227e-24
3.61821e-24
3.39506e-24
3.25696e-24
3.17941e-24
3.16587e-24
3.2201e-24
3.37362e-24
2.35075e-24
2.65509e-24
3.01058e-24
3.44797e-24
3.97017e-24
4.60804e-24
4.11367e-24
3.73992e-24
3.46101e-24
3.27944e-24
3.19809e-24
3.21992e-24
3.34794e-24
3.58511e-24
3.93425e-24
4.39793e-24
4.97831e-24
5.67703e-24
6.49509e-24
7.43321e-24
8.54762e-24
7.33621e-24
6.2974e-24
5.37135e-24
4.55397e-24
3.84129e-24
3.22935e-24
2.71457e-24
2.2942e-24
1.9649e-24
1.71439e-24
1.45622e-24
1.05204e-24
6.63066e-25
3.86996e-25
2.02643e-25
9.76277e-26
4.4055e-26
1.94527e-26
8.15262e-27
7.68948e-27
6.70628e-27
5.8258e-27
5.05187e-27
4.36752e-27
3.75866e-27
3.21344e-27
2.72181e-27
2.27507e-27
1.8656e-27
1.48657e-27
1.13175e-27
7.9537e-28
4.71947e-28
1.5622e-28
)
;
    }
    top
    {
        type            fixedValue;
        value           uniform 0;
    }
    bottom
    {
        type            fixedValue;
        value           uniform 0;
    }
    frontAndBackPlanes
    {
        type            empty;
        value           nonuniform List<scalar> 0();
    }
}


// ************************************************************************* //
