/*--------------------------------*- C++ -*----------------------------------*\
| =========                 |                                                 |
| \\      /  F ield         | OpenFOAM: The Open Source CFD Toolbox           |
|  \\    /   O peration     | Version:  2206                                  |
|   \\  /    A nd           | Website:  www.openfoam.com                      |
|    \\/     M anipulation  |                                                 |
\*---------------------------------------------------------------------------*/
FoamFile
{
    version     2.0;
    format      ascii;
    arch        "LSB;label=32;scalar=64";
    class       surfaceScalarField;
    location    "240";
    object      phi.a;
}
// * * * * * * * * * * * * * * * * * * * * * * * * * * * * * * * * * * * * * //

dimensions      [0 3 -1 0 0 0 0];

oriented        oriented;

internalField   nonuniform List<scalar> 
119
(
-5.10823e-15
-1.08217e-14
-1.66299e-14
-2.30856e-14
-2.9968e-14
-3.75458e-14
-4.61603e-14
-5.58191e-14
-6.73477e-14
-8.09423e-14
-9.83655e-14
-1.19906e-13
-1.4602e-13
-1.72903e-13
-1.89299e-13
-2.06945e-13
-1.21664e-12
-1.81127e-12
-2.10222e-12
-2.23728e-12
-2.29121e-12
-2.31149e-12
-2.31906e-12
-2.32183e-12
-2.32281e-12
-2.32314e-12
-2.32325e-12
-2.32329e-12
-2.3233e-12
-2.32331e-12
-2.32331e-12
-2.32331e-12
-2.32331e-12
-2.32331e-12
-2.32331e-12
-2.32331e-12
-2.32331e-12
-2.32331e-12
-2.32331e-12
-2.32331e-12
-2.32331e-12
-2.32331e-12
-2.32331e-12
-2.32331e-12
-2.32331e-12
-2.32331e-12
-2.32331e-12
-2.32331e-12
-2.32331e-12
-2.32331e-12
-2.32331e-12
-2.32331e-12
-2.32331e-12
-2.32331e-12
-2.32331e-12
-2.32331e-12
-2.32331e-12
-2.32331e-12
-2.32331e-12
-2.32331e-12
-2.32331e-12
-2.32331e-12
-2.32331e-12
-2.32331e-12
-2.32331e-12
-2.32331e-12
-2.32331e-12
-2.32331e-12
-2.32331e-12
-2.32331e-12
-2.32331e-12
-2.32331e-12
-2.32331e-12
-2.32331e-12
-2.32331e-12
-2.32331e-12
-2.32331e-12
-2.32331e-12
-2.32331e-12
-2.32331e-12
-2.32331e-12
-2.32331e-12
-2.32331e-12
-2.32331e-12
-2.32331e-12
-2.32331e-12
-2.32331e-12
-2.32331e-12
-2.32331e-12
-2.32331e-12
-2.32331e-12
-2.32331e-12
-2.32331e-12
-2.32331e-12
-2.32331e-12
-2.32331e-12
-2.32332e-12
-2.32339e-12
-2.32342e-12
-2.32166e-12
-2.31982e-12
-2.33361e-12
-2.51946e-12
-2.26796e-12
-2.80347e-11
-3.0792e-11
-5.05851e-11
-9.67974e-11
-7.81763e-11
-7.81666e-11
-7.9393e-11
-8.13526e-11
-8.22433e-11
-8.23405e-11
-8.2344e-11
-8.23442e-11
-8.23441e-11
-8.23406e-11
-8.20722e-11
)
;

boundaryField
{
    inlet
    {
        type            cyclic;
        value           nonuniform List<scalar> 
120
(
5.02326e-28
1.50306e-27
2.49468e-27
3.47161e-27
4.42752e-27
5.35724e-27
6.25703e-27
7.12851e-27
7.97026e-27
8.78212e-27
9.57336e-27
1.03463e-26
1.109e-26
1.18495e-26
1.25129e-26
1.28745e-26
1.30107e-26
3.06387e-25
3.78029e-25
4.08372e-25
4.38382e-25
5.14526e-25
7.90995e-25
1.67241e-24
-3.70365e-25
-1.56454e-24
-2.3572e-24
-2.53936e-24
-2.81621e-24
-3.18415e-24
-3.05286e-24
-2.40447e-24
-1.80498e-24
-1.25012e-24
-7.36856e-25
-2.65575e-25
-4.13489e-25
-1.17817e-24
-1.40706e-24
-2.24531e-24
-1.9683e-24
-2.29879e-24
-2.08785e-24
-1.90829e-24
-1.7629e-24
-2.22252e-24
-1.55846e-24
-9.17865e-25
2.67662e-25
2.70445e-25
2.39937e-25
1.79277e-25
8.71582e-26
-3.82829e-26
-2.01378e-25
-9.80818e-25
-1.80387e-24
-2.672e-24
-3.585e-24
-3.39479e-24
-3.25696e-24
-3.17941e-24
-3.16587e-24
-3.21984e-24
-3.34068e-24
-2.38369e-24
-2.65536e-24
-3.01059e-24
-3.44797e-24
-3.9699e-24
-4.57483e-24
-4.1134e-24
-3.73992e-24
-3.46101e-24
-3.27944e-24
-3.19809e-24
-3.21993e-24
-3.34794e-24
-3.58511e-24
-3.93426e-24
-4.39793e-24
-4.97831e-24
-5.67703e-24
-6.49509e-24
-7.43267e-24
-8.48121e-24
-7.33567e-24
-6.2974e-24
-5.37135e-24
-4.55397e-24
-3.8413e-24
-3.22936e-24
-2.71457e-24
-2.29422e-24
-1.96504e-24
-1.71543e-24
-1.45933e-24
-1.05373e-24
-6.63321e-25
-3.87083e-25
-2.02644e-25
-9.7629e-26
-4.40539e-26
-1.94521e-26
-8.15219e-27
-7.68929e-27
-6.73264e-27
-5.06001e-27
-3.23383e-27
-3.19122e-27
-3.08614e-27
-1.40516e-27
-1.7287e-28
-2.43332e-29
-1.8667e-29
-1.83554e-29
-1.82742e-29
-1.82565e-29
-1.83355e-29
-2.00946e-29
)
;
    }
    outlet
    {
        type            cyclic;
        value           nonuniform List<scalar> 
120
(
-5.02326e-28
-1.50306e-27
-2.49468e-27
-3.47161e-27
-4.42752e-27
-5.35724e-27
-6.25703e-27
-7.12851e-27
-7.97026e-27
-8.78212e-27
-9.57336e-27
-1.03463e-26
-1.109e-26
-1.18495e-26
-1.25129e-26
-1.28745e-26
-1.30107e-26
-3.06387e-25
-3.78029e-25
-4.08372e-25
-4.38382e-25
-5.14526e-25
-7.90995e-25
-1.67241e-24
3.70365e-25
1.56454e-24
2.3572e-24
2.53936e-24
2.81621e-24
3.18415e-24
3.05286e-24
2.40447e-24
1.80498e-24
1.25012e-24
7.36856e-25
2.65575e-25
4.13489e-25
1.17817e-24
1.40706e-24
2.24531e-24
1.9683e-24
2.29879e-24
2.08785e-24
1.90829e-24
1.7629e-24
2.22252e-24
1.55846e-24
9.17865e-25
-2.67662e-25
-2.70445e-25
-2.39937e-25
-1.79277e-25
-8.71582e-26
3.82829e-26
2.01378e-25
9.80818e-25
1.80387e-24
2.672e-24
3.585e-24
3.39479e-24
3.25696e-24
3.17941e-24
3.16587e-24
3.21984e-24
3.34068e-24
2.38369e-24
2.65536e-24
3.01059e-24
3.44797e-24
3.9699e-24
4.57483e-24
4.1134e-24
3.73992e-24
3.46101e-24
3.27944e-24
3.19809e-24
3.21993e-24
3.34794e-24
3.58511e-24
3.93426e-24
4.39793e-24
4.97831e-24
5.67703e-24
6.49509e-24
7.43267e-24
8.48121e-24
7.33567e-24
6.2974e-24
5.37135e-24
4.55397e-24
3.8413e-24
3.22936e-24
2.71457e-24
2.29422e-24
1.96504e-24
1.71543e-24
1.45933e-24
1.05373e-24
6.63321e-25
3.87083e-25
2.02644e-25
9.7629e-26
4.40539e-26
1.94521e-26
8.15219e-27
7.68929e-27
6.73264e-27
5.06001e-27
3.23383e-27
3.19122e-27
3.08614e-27
1.40516e-27
1.7287e-28
2.43332e-29
1.8667e-29
1.83554e-29
1.82742e-29
1.82565e-29
1.83355e-29
2.00946e-29
)
;
    }
    top
    {
        type            fixedValue;
        value           uniform 0;
    }
    bottom
    {
        type            fixedValue;
        value           uniform 0;
    }
    frontAndBackPlanes
    {
        type            empty;
        value           nonuniform List<scalar> 0();
    }
}


// ************************************************************************* //
