/*--------------------------------*- C++ -*----------------------------------*\
| =========                 |                                                 |
| \\      /  F ield         | OpenFOAM: The Open Source CFD Toolbox           |
|  \\    /   O peration     | Version:  2206                                  |
|   \\  /    A nd           | Website:  www.openfoam.com                      |
|    \\/     M anipulation  |                                                 |
\*---------------------------------------------------------------------------*/
FoamFile
{
    version     2.0;
    format      ascii;
    arch        "LSB;label=32;scalar=64";
    class       volVectorField;
    location    "240";
    object      U.a;
}
// * * * * * * * * * * * * * * * * * * * * * * * * * * * * * * * * * * * * * //

dimensions      [0 1 -1 0 0 0 0];

internalField   nonuniform List<vector> 
120
(
(-1.67442e-21 7.99087e-09 0)
(-5.01021e-21 -2.05584e-08 0)
(-8.31558e-21 -3.95611e-08 0)
(-1.1572e-20 -5.28131e-08 0)
(-1.47584e-20 -7.54314e-08 0)
(-1.78575e-20 -9.1043e-08 0)
(-2.08568e-20 -1.17522e-07 0)
(-2.37617e-20 -1.38903e-07 0)
(-2.65675e-20 -1.71162e-07 0)
(-2.92737e-20 -2.02949e-07 0)
(-3.19112e-20 -2.46648e-07 0)
(-3.44878e-20 -2.99746e-07 0)
(-3.69667e-20 -3.66297e-07 0)
(-3.94983e-20 -4.44866e-07 0)
(-4.17096e-20 -5.16024e-07 0)
(-4.29151e-20 -5.35995e-07 0)
(-4.33691e-20 -5.25459e-07 0)
(-1.02129e-18 -2.57927e-05 0)
(-1.2601e-18 -3.09489e-06 0)
(-1.36124e-18 -4.5013e-06 0)
(-1.46127e-18 -5.88266e-06 0)
(-1.71509e-18 -6.27077e-06 0)
(-2.63665e-18 -6.38418e-06 0)
(-5.57472e-18 -6.42873e-06 0)
(1.23455e-18 -6.44575e-06 0)
(5.21513e-18 -6.45148e-06 0)
(7.85733e-18 -6.45309e-06 0)
(8.46453e-18 -6.45349e-06 0)
(9.38735e-18 -6.4536e-06 0)
(1.06138e-17 -6.45363e-06 0)
(1.01762e-17 -6.45364e-06 0)
(8.0149e-18 -6.45364e-06 0)
(6.0166e-18 -6.45364e-06 0)
(4.16708e-18 -6.45364e-06 0)
(2.45619e-18 -6.45364e-06 0)
(8.85251e-19 -6.45364e-06 0)
(1.3783e-18 -6.45364e-06 0)
(3.92722e-18 -6.45364e-06 0)
(4.69021e-18 -6.45364e-06 0)
(7.48436e-18 -6.45364e-06 0)
(6.561e-18 -6.45364e-06 0)
(7.66263e-18 -6.45364e-06 0)
(6.95951e-18 -6.45364e-06 0)
(6.36098e-18 -6.45364e-06 0)
(5.87634e-18 -6.45364e-06 0)
(7.40839e-18 -6.45364e-06 0)
(5.19488e-18 -6.45364e-06 0)
(3.05955e-18 -6.45364e-06 0)
(-8.92205e-19 -6.45364e-06 0)
(-9.01482e-19 -6.45364e-06 0)
(-7.99791e-19 -6.45364e-06 0)
(-5.97591e-19 -6.45364e-06 0)
(-2.90527e-19 -6.45364e-06 0)
(1.2761e-19 -6.45364e-06 0)
(6.71261e-19 -6.45364e-06 0)
(3.26939e-18 -6.45364e-06 0)
(6.0129e-18 -6.45364e-06 0)
(8.90667e-18 -6.45364e-06 0)
(1.195e-17 -6.45365e-06 0)
(1.1316e-17 -6.45364e-06 0)
(1.08565e-17 -6.45364e-06 0)
(1.0598e-17 -6.45364e-06 0)
(1.05529e-17 -6.45364e-06 0)
(1.07328e-17 -6.45364e-06 0)
(1.11356e-17 -6.45364e-06 0)
(7.94564e-18 -6.45364e-06 0)
(8.85122e-18 -6.45364e-06 0)
(1.00353e-17 -6.45364e-06 0)
(1.14932e-17 -6.45364e-06 0)
(1.3233e-17 -6.45364e-06 0)
(1.52494e-17 -6.45364e-06 0)
(1.37113e-17 -6.45364e-06 0)
(1.24664e-17 -6.45364e-06 0)
(1.15367e-17 -6.45364e-06 0)
(1.09315e-17 -6.45364e-06 0)
(1.06603e-17 -6.45364e-06 0)
(1.07331e-17 -6.45364e-06 0)
(1.11598e-17 -6.45364e-06 0)
(1.19504e-17 -6.45364e-06 0)
(1.31142e-17 -6.45364e-06 0)
(1.46598e-17 -6.45364e-06 0)
(1.65944e-17 -6.45364e-06 0)
(1.89234e-17 -6.45364e-06 0)
(2.16503e-17 -6.45364e-06 0)
(2.47756e-17 -6.45364e-06 0)
(2.82707e-17 -6.45364e-06 0)
(2.44522e-17 -6.45364e-06 0)
(2.09913e-17 -6.45364e-06 0)
(1.79045e-17 -6.45364e-06 0)
(1.51799e-17 -6.45364e-06 0)
(1.28043e-17 -6.45364e-06 0)
(1.07645e-17 -6.45364e-06 0)
(9.04857e-18 -6.45364e-06 0)
(7.64739e-18 -6.45364e-06 0)
(6.55012e-18 -6.45365e-06 0)
(5.71809e-18 -6.45374e-06 0)
(4.86443e-18 -6.45401e-06 0)
(3.51244e-18 -6.44991e-06 0)
(2.21107e-18 -6.42694e-06 0)
(1.29028e-18 -6.50767e-06 0)
(6.75479e-19 -7.16247e-06 0)
(3.2543e-19 -5.90212e-06 0)
(1.46846e-19 7.71603e-06 0)
(6.48404e-20 5.72098e-06 0)
(2.7174e-20 -0.000349938 0)
(2.5631e-20 -0.00019544 0)
(2.24421e-20 8.64758e-05 0)
(1.68667e-20 -0.000319603 0)
(1.07794e-20 -0.000217373 0)
(1.06374e-20 -0.000216953 0)
(1.02871e-20 -0.000217306 0)
(4.68386e-21 -0.000223765 0)
(5.76234e-22 -0.000228193 0)
(8.11107e-23 -0.000228714 0)
(6.22232e-23 -0.000228733 0)
(6.11846e-23 -0.000228734 0)
(6.09139e-23 -0.000228734 0)
(6.08551e-23 -0.000228733 0)
(6.11184e-23 -0.000228715 0)
(6.69819e-23 -0.000227242 0)
)
;

boundaryField
{
    inlet
    {
        type            cyclic;
    }
    outlet
    {
        type            cyclic;
    }
    top
    {
        type            fixedValue;
        value           uniform (0 0 0);
    }
    bottom
    {
        type            fixedValue;
        value           uniform (0 0 0);
    }
    frontAndBackPlanes
    {
        type            empty;
    }
}


// ************************************************************************* //
