/*--------------------------------*- C++ -*----------------------------------*\
| =========                 |                                                 |
| \\      /  F ield         | OpenFOAM: The Open Source CFD Toolbox           |
|  \\    /   O peration     | Version:  2206                                  |
|   \\  /    A nd           | Website:  www.openfoam.com                      |
|    \\/     M anipulation  |                                                 |
\*---------------------------------------------------------------------------*/
FoamFile
{
    version     2.0;
    format      ascii;
    arch        "LSB;label=32;scalar=64";
    class       volVectorField;
    location    "240";
    object      U.b;
}
// * * * * * * * * * * * * * * * * * * * * * * * * * * * * * * * * * * * * * //

dimensions      [0 1 -1 0 0 0 0];

internalField   nonuniform List<vector> 
120
(
(-1.67442e-21 2.50858e-08 0)
(-5.0099e-21 3.37525e-08 0)
(-8.24861e-21 5.37197e-08 0)
(-1.15717e-20 8.23868e-08 0)
(-1.47584e-20 1.0463e-07 0)
(-1.78556e-20 1.38352e-07 0)
(-2.04505e-20 1.66097e-07 0)
(-2.37626e-20 2.06729e-07 0)
(-2.71634e-20 2.4525e-07 0)
(-2.92766e-20 2.97997e-07 0)
(-3.19162e-20 3.57564e-07 0)
(-3.55388e-20 4.34429e-07 0)
(-3.69727e-20 5.25735e-07 0)
(-3.94988e-20 6.22197e-07 0)
(-4.1709e-20 6.93436e-07 0)
(-4.29447e-20 7.37283e-07 0)
(-4.89746e-20 3.21095e-06 0)
(-1.02126e-18 -1.56599e-05 0)
(-1.26009e-18 8.32059e-06 0)
(-1.36124e-18 7.79723e-06 0)
(-1.46127e-18 6.80267e-06 0)
(-1.71502e-18 6.55569e-06 0)
(-2.63602e-18 6.49372e-06 0)
(-5.51726e-18 6.46822e-06 0)
(1.22321e-18 6.45804e-06 0)
(5.19811e-18 6.45466e-06 0)
(7.86425e-18 6.45381e-06 0)
(8.46215e-18 6.45366e-06 0)
(9.38699e-18 6.45364e-06 0)
(1.06695e-17 6.45364e-06 0)
(1.0232e-17 6.45364e-06 0)
(8.01536e-18 6.45364e-06 0)
(6.0166e-18 6.45365e-06 0)
(4.16707e-18 6.45364e-06 0)
(2.45572e-18 6.45364e-06 0)
(8.29451e-19 6.45364e-06 0)
(1.32295e-18 6.45364e-06 0)
(3.98166e-18 6.45364e-06 0)
(4.63621e-18 6.45364e-06 0)
(7.59416e-18 6.45364e-06 0)
(6.507e-18 6.45364e-06 0)
(7.71753e-18 6.45365e-06 0)
(6.95995e-18 6.45365e-06 0)
(6.36054e-18 6.45364e-06 0)
(5.82189e-18 6.45364e-06 0)
(7.51863e-18 6.45364e-06 0)
(5.19623e-18 6.45364e-06 0)
(3.114e-18 6.45364e-06 0)
(-1.00245e-18 6.45364e-06 0)
(-9.02386e-19 6.45364e-06 0)
(-7.99801e-19 6.45364e-06 0)
(-5.97594e-19 6.45364e-06 0)
(-2.90534e-19 6.45364e-06 0)
(1.27154e-19 6.45365e-06 0)
(6.15908e-19 6.45365e-06 0)
(3.26894e-18 6.45364e-06 0)
(6.0129e-18 6.45364e-06 0)
(8.90757e-18 6.45364e-06 0)
(1.20607e-17 6.45364e-06 0)
(1.13169e-17 6.45364e-06 0)
(1.08565e-17 6.45364e-06 0)
(1.0598e-17 6.45364e-06 0)
(1.05529e-17 6.45365e-06 0)
(1.07337e-17 6.45364e-06 0)
(1.12454e-17 6.45364e-06 0)
(7.83584e-18 6.45364e-06 0)
(8.85031e-18 6.45364e-06 0)
(1.00353e-17 6.45364e-06 0)
(1.14932e-17 6.45364e-06 0)
(1.32339e-17 6.45364e-06 0)
(1.53601e-17 6.45364e-06 0)
(1.37122e-17 6.45364e-06 0)
(1.24664e-17 6.45364e-06 0)
(1.15367e-17 6.45364e-06 0)
(1.09315e-17 6.45365e-06 0)
(1.06603e-17 6.45364e-06 0)
(1.07331e-17 6.45364e-06 0)
(1.11598e-17 6.45364e-06 0)
(1.19504e-17 6.45364e-06 0)
(1.31142e-17 6.45365e-06 0)
(1.46598e-17 6.45364e-06 0)
(1.65944e-17 6.45364e-06 0)
(1.89234e-17 6.45364e-06 0)
(2.16503e-17 6.45364e-06 0)
(2.47774e-17 6.45364e-06 0)
(2.84921e-17 6.45365e-06 0)
(2.4454e-17 6.45364e-06 0)
(2.09913e-17 6.45364e-06 0)
(1.79045e-17 6.45364e-06 0)
(1.51799e-17 6.45364e-06 0)
(1.28043e-17 6.45364e-06 0)
(1.07645e-17 6.45364e-06 0)
(9.04856e-18 6.45364e-06 0)
(7.64733e-18 6.45365e-06 0)
(6.54966e-18 6.45364e-06 0)
(5.71462e-18 6.45355e-06 0)
(4.85406e-18 6.45325e-06 0)
(3.50679e-18 6.45742e-06 0)
(2.21022e-18 6.48046e-06 0)
(1.28999e-18 6.40042e-06 0)
(6.75477e-19 5.74315e-06 0)
(3.25426e-19 6.98762e-06 0)
(1.4685e-19 2.05006e-05 0)
(6.48423e-20 1.9851e-05 0)
(2.71754e-20 -0.000333799 0)
(2.56316e-20 5.40145e-06 0)
(2.23543e-20 6.02678e-05 0)
(1.94193e-20 4.76157e-06 0)
(1.68396e-20 -3.63329e-06 0)
(1.45584e-20 -8.21471e-07 0)
(1.25289e-20 1.34822e-07 0)
(1.07115e-20 7.57519e-08 0)
(9.07269e-21 -3.21994e-10 0)
(7.58357e-21 -5.97961e-09 0)
(6.21867e-21 -7.29071e-10 0)
(4.95523e-21 3.70855e-10 0)
(3.77251e-21 1.0653e-10 0)
(2.65123e-21 -1.20949e-11 0)
(1.57316e-21 -7.67361e-12 0)
(5.20732e-22 1.52557e-12 0)
)
;

boundaryField
{
    inlet
    {
        type            cyclic;
    }
    outlet
    {
        type            cyclic;
    }
    top
    {
        type            fixedValue;
        value           uniform (0 0 0);
    }
    bottom
    {
        type            fixedValue;
        value           uniform (0 0 0);
    }
    frontAndBackPlanes
    {
        type            empty;
    }
}


// ************************************************************************* //
