/*--------------------------------*- C++ -*----------------------------------*\
| =========                 |                                                 |
| \\      /  F ield         | OpenFOAM: The Open Source CFD Toolbox           |
|  \\    /   O peration     | Version:  2206                                  |
|   \\  /    A nd           | Website:  www.openfoam.com                      |
|    \\/     M anipulation  |                                                 |
\*---------------------------------------------------------------------------*/
FoamFile
{
    version     2.0;
    format      ascii;
    arch        "LSB;label=32;scalar=64";
    class       volScalarField;
    location    "140";
    object      alpha.a;
}
// * * * * * * * * * * * * * * * * * * * * * * * * * * * * * * * * * * * * * //

dimensions      [0 0 0 0 0 0 0];

internalField   nonuniform List<scalar> 
344
(
0.585917
0.585857
0.585812
0.585748
0.585702
0.585636
0.585589
0.585521
0.585473
0.585403
0.585353
0.585281
0.58523
0.585156
0.585104
0.585027
0.584973
0.584893
0.584838
0.584756
0.584699
0.584614
0.584556
0.584467
0.584407
0.584314
0.584252
0.584156
0.584092
0.583992
0.583926
0.583822
0.583753
0.583644
0.583572
0.583458
0.583383
0.583264
0.583186
0.58306
0.582979
0.582846
0.582761
0.582621
0.582531
0.582383
0.582288
0.582131
0.58203
0.581862
0.581756
0.581576
0.581462
0.581268
0.581146
0.580937
0.580805
0.580576
0.580433
0.580182
0.580026
0.579747
0.579574
0.579261
0.579067
0.578711
0.578489
0.578075
0.577815
0.577321
0.577006
0.576391
0.575989
0.575169
0.574613
0.573366
0.572436
0.569605
0.196802
7.82913e-05
1.34038e-11
3.29715e-14
1.56092e-24
9.23757e-35
6.07193e-45
4.29484e-55
3.01228e-65
2.11383e-75
1.35052e-85
9.92318e-96
7.45771e-106
5.73917e-116
4.03531e-126
2.86685e-136
1.84322e-146
1.07946e-156
5.1247e-167
2.35889e-177
9.50784e-188
3.35398e-198
8.99434e-209
1.94166e-219
2.76843e-230
2.12722e-241
1.24964e-252
1.15666e-263
1.26255e-274
1.54425e-285
2.0973e-296
3.82315e-307
3.30844e-317
1.19727e-319
0
0
0
0
0
0
0
4.76449e-317
0
0
0
1.8058e-316
0
0
0
0
0
0
0
0
0
0
1.75432e-316
0
0
0
0
0
0
0
0
0
0
0
0
0
0
0
0
0
0
0
0
0
0
0
0
0
0
0
0
0
0
0
0
0
0
0
0
0
0
0
0
0
0
0
0
0
0
0
0
0
0
0
0
0
0
0
0
0
0
0
0
0
0
0
0
0
0
0
0
0
0
0
0
0
0
0
0
0
0
0
0
0
0
0
0
0
0
0
0
0
0
0
0
0
0
0
0
0
0
0
0
0
0
0
0
0
0
0
0
0
0
0
0
0
0
0
0
0
0
0
0
0
0
0
0
0
0
0
0
0
0
0
0
0
0
0
0
0
0
0
0
0
0
0
0
0
0
0
0
0
0
0
0
0
0
0
0
0
0
0
0
0
0
0
0
0
0
0
0
0
0
0
0
0
0
0
0
0
0
0
0
0
0
0
0
0
0
0
0
0
0
0
0
0
0
0
0
0
0
0
0
0
0
0
0
0
0
0
0
0
)
;

boundaryField
{
    inlet
    {
        type            cyclic;
    }
    outlet
    {
        type            cyclic;
    }
    top
    {
        type            zeroGradient;
    }
    bottom
    {
        type            zeroGradient;
    }
    frontAndBackPlanes
    {
        type            empty;
    }
}


// ************************************************************************* //
