/*--------------------------------*- C++ -*----------------------------------*\
| =========                 |                                                 |
| \\      /  F ield         | OpenFOAM: The Open Source CFD Toolbox           |
|  \\    /   O peration     | Version:  2206                                  |
|   \\  /    A nd           | Website:  www.openfoam.com                      |
|    \\/     M anipulation  |                                                 |
\*---------------------------------------------------------------------------*/
FoamFile
{
    version     2.0;
    format      ascii;
    arch        "LSB;label=32;scalar=64";
    class       volScalarField;
    location    "140";
    object      muI;
}
// * * * * * * * * * * * * * * * * * * * * * * * * * * * * * * * * * * * * * //

dimensions      [0 0 0 0 0 0 0];

internalField   nonuniform List<scalar> 
344
(
0.630001
0.630001
0.63
0.63
0.63
0.63
0.63
0.63
0.63
0.63
0.63
0.63
0.63
0.63
0.63
0.63
0.63
0.63
0.63
0.63
0.63
0.63
0.63
0.63
0.63
0.63
0.63
0.63
0.63
0.63
0.63
0.63
0.63
0.63
0.63
0.63
0.63
0.63
0.63
0.63
0.63
0.63
0.63
0.63
0.63
0.63
0.63
0.63
0.63
0.63
0.63
0.63
0.63
0.63
0.63
0.63
0.63
0.63
0.63
0.63
0.63
0.63
0.63
0.63
0.63
0.63
0.63
0.63
0.63
0.63
0.63
0.63
0.63
0.63
0.63
0.63
0.63
0.630011
1.12577
1.12807
1.12746
1.1246
1.11242
1.06053
0.954499
0.740437
0.876474
0.769885
0.718378
0.630011
0.630012
0.630005
0.630004
0.630002
0.630001
0.630001
0.630002
0.630003
0.630006
0.630031
0.666174
0.866276
1.08025
1.1206
1.11887
0.630032
1.11711
1.11711
0.630006
0.630004
0.630004
0.630004
0.630004
0.630004
0.630004
0.630004
0.630004
0.630004
0.630004
0.630004
0.630004
0.630004
0.630004
0.630004
0.630006
1.11744
1.11744
0.630012
1.11748
1.11697
1.11556
1.11488
0.630006
1.11278
1.11278
0.630001
1.09097
1.09097
0.630004
1.10279
1.101
1.11415
1.11356
0.630007
1.11415
1.11415
0.630005
0.630018
1.04986
1.04986
0.630001
1.05096
1.05096
0.630023
0.630019
0.63002
0.630016
0.63002
1.11981
1.11981
0.630014
1.11886
1.11886
0.630005
0.63003
1.11688
1.11688
0.630016
1.11811
1.11754
1.11759
1.11697
0.630017
1.11812
1.11812
0.630015
0.63003
0.630023
0.630023
0.630023
0.630023
0.630023
0.630023
0.630023
0.630023
0.630023
0.630023
0.630028
0.91853
0.918543
0.63
0.926197
0.926186
0.630029
0.630028
0.630017
1.09206
1.09206
0.630001
1.08454
1.08454
0.630027
0.630028
0.630017
1.11202
1.11202
0.630005
1.11183
1.11183
0.630018
0.630015
0.630015
0.630014
0.630014
1.1197
1.1197
0.630025
1.11967
1.11967
0.630018
0.630015
0.630014
0.630014
0.630015
0.630012
1.11748
1.11748
0.63001
1.11762
1.11762
0.630009
0.630007
0.630007
0.630007
0.630007
0.630007
0.630007
0.630007
0.630006
0.630007
1.11876
1.11876
0.630009
1.11723
1.11723
0.630007
1.11541
1.11541
0.630009
1.11724
1.11724
0.630018
0.630015
0.630015
0.630015
0.630014
0.630016
0.630011
1.11654
1.11654
0.630011
1.11675
1.11601
1.11826
1.11769
0.630022
1.11874
1.11877
0.98296
0.98934
0.630001
0.965399
0.965392
0.630008
0.630034
0.970089
0.970097
0.63
0.963867
0.96386
0.630018
0.630015
1.11453
1.11453
0.630006
1.1136
1.1136
0.630019
0.630015
0.630015
0.630016
0.630013
1.11828
1.11828
0.630012
1.11826
1.11826
0.630018
0.630015
0.630014
0.63002
0.630009
1.1015
1.1015
0.630003
1.10189
1.10189
0.630019
0.630016
0.630016
0.630013
1.1178
1.1178
0.630011
1.11807
1.11807
0.630004
0.630002
0.630002
0.630003
0.630002
1.10714
1.10714
0.630003
1.1061
1.1061
0.630019
0.630016
0.630016
0.630016
0.630013
1.11766
1.11766
0.630011
1.11801
1.11801
0.630003
0.630002
0.630002
0.630001
0.630001
0.630001
0.63
0.63
)
;

boundaryField
{
    inlet
    {
        type            cyclic;
    }
    outlet
    {
        type            cyclic;
    }
    top
    {
        type            calculated;
        value           uniform 0.63;
    }
    bottom
    {
        type            calculated;
        value           uniform 0.630006;
    }
    frontAndBackPlanes
    {
        type            empty;
    }
}


// ************************************************************************* //
