/*--------------------------------*- C++ -*----------------------------------*\
| =========                 |                                                 |
| \\      /  F ield         | OpenFOAM: The Open Source CFD Toolbox           |
|  \\    /   O peration     | Version:  2206                                  |
|   \\  /    A nd           | Website:  www.openfoam.com                      |
|    \\/     M anipulation  |                                                 |
\*---------------------------------------------------------------------------*/
FoamFile
{
    version     2.0;
    format      ascii;
    arch        "LSB;label=32;scalar=64";
    class       volScalarField;
    location    "140";
    object      nuFra;
}
// * * * * * * * * * * * * * * * * * * * * * * * * * * * * * * * * * * * * * //

dimensions      [0 2 -1 0 0 0 0];

internalField   nonuniform List<scalar> 
344
(
0.01
0.01
0.01
0.01
0.01
0.01
0.01
0.01
0.01
0.01
0.01
0.01
0.01
0.01
0.01
0.01
0.01
0.01
0.01
0.01
0.01
0.01
0.01
0.01
0.01
0.01
0.01
0.01
0.01
0.01
0.01
0.01
0.01
0.01
0.01
0.01
0.01
0.01
0.01
0.01
0.01
0.01
0.01
0.01
0.01
0.01
0.01
0.01
0.01
0.01
0.01
0.01
0.01
0.01
0.01
0.01
0.01
0.01
0.01
0.01
0.01
0.01
0.01
0.01
0.01
0.01
0.01
0.01
0.01
0.01
0.01
0.01
0.01
0.01
0.01
0.01
0.01
0.01
5.18528e-11
2.36108e-11
3.10063e-11
6.62271e-11
2.1873e-10
9.23346e-10
2.78537e-09
1.40926e-08
4.86441e-09
1.06939e-08
1.8053e-08
0.000128678
0.000118635
0.000187301
0.000205724
0.000225485
0.000230176
0.000231287
0.000226718
0.000213515
0.000174733
5.28764e-05
4.60885e-08
5.21708e-09
6.4408e-10
1.15894e-10
1.3739e-10
5.20343e-05
1.59522e-10
1.59527e-10
0.000180561
0.000198828
0.000198797
0.000198775
0.0001988
0.000198788
0.000198801
0.000198794
0.0001988
0.000198795
0.000198798
0.000198796
0.000198804
0.00019871
0.000198536
0.000209007
0.000184605
1.5531e-10
1.55308e-10
0.000120078
1.54854e-10
1.6123e-10
1.78981e-10
1.8755e-10
0.000180192
2.14166e-10
2.14168e-10
0.000227866
4.9842e-10
4.9841e-10
0.000201862
3.42393e-10
3.65723e-10
1.96815e-10
2.04299e-10
0.000168456
1.96794e-10
1.96796e-10
0.000193619
8.57486e-05
1.0813e-09
1.08127e-09
0.000230242
1.06465e-09
1.06468e-09
7.13905e-05
8.48502e-05
7.97308e-05
9.70307e-05
7.96911e-05
1.25749e-10
1.25748e-10
0.000110574
1.37547e-10
1.37549e-10
0.000194383
5.49397e-05
1.62443e-10
1.62441e-10
9.62032e-05
1.46986e-10
1.54079e-10
1.53493e-10
1.61239e-10
9.3648e-05
1.46857e-10
1.46859e-10
0.000101563
5.57899e-05
7.05615e-05
7.09152e-05
6.93482e-05
6.995e-05
6.98613e-05
6.98462e-05
6.9866e-05
6.98613e-05
6.98135e-05
6.90481e-05
5.802e-05
3.63238e-09
3.63206e-09
0.000231564
3.43854e-09
3.43882e-09
5.71196e-05
5.87222e-05
8.99315e-05
4.8381e-10
4.83804e-10
0.000227444
5.85187e-10
5.85197e-10
5.99667e-05
5.84751e-05
9.18433e-05
2.2378e-10
2.23778e-10
0.000192968
2.26184e-10
2.26187e-10
8.65536e-05
0.000101573
9.95668e-05
0.000106286
0.000106633
1.27045e-10
1.27043e-10
6.59437e-05
1.27425e-10
1.27428e-10
8.95794e-05
0.000104162
0.000105133
0.000105679
9.97344e-05
0.000123309
1.54878e-10
1.54876e-10
0.000136414
1.53141e-10
1.53143e-10
0.000150623
0.000170163
0.000170535
0.000170541
0.000170516
0.000170613
0.000170632
0.000168096
0.000181956
0.000164366
1.38876e-10
1.38875e-10
0.000149387
1.57951e-10
1.57953e-10
0.000171986
1.80894e-10
1.80892e-10
0.000141838
1.57891e-10
1.57893e-10
8.88666e-05
0.000103571
0.00010415
0.000104384
0.000105416
9.69365e-05
0.000125625
1.66681e-10
1.66679e-10
0.000128077
1.64053e-10
1.7338e-10
1.45031e-10
1.52268e-10
7.23344e-05
1.3912e-10
1.38635e-10
2.20947e-09
2.08954e-09
0.000231059
2.55633e-09
2.55648e-09
0.000154729
4.8199e-05
2.46115e-09
2.461e-09
0.000231784
2.58785e-09
2.58801e-09
8.76816e-05
0.000101865
1.92025e-10
1.92023e-10
0.000183596
2.03797e-10
2.03799e-10
8.50526e-05
9.9566e-05
9.9847e-05
9.80889e-05
0.000113317
1.44876e-10
1.44874e-10
0.000122527
1.45117e-10
1.45119e-10
8.72864e-05
0.000102602
0.000105681
8.04718e-05
0.000150577
3.59293e-10
3.59289e-10
0.000216505
3.54208e-10
3.54212e-10
8.42719e-05
9.79509e-05
9.68626e-05
0.000112249
1.50794e-10
1.50793e-10
0.000125697
1.47506e-10
1.47508e-10
0.000206092
0.000219948
0.000219602
0.00021941
0.000222829
2.86153e-10
2.86151e-10
0.000210624
2.99625e-10
2.99629e-10
8.28875e-05
9.71277e-05
9.77311e-05
9.46384e-05
0.000112251
1.52582e-10
1.52581e-10
0.000126567
1.48151e-10
1.48153e-10
0.000216086
0.000226901
0.000227084
0.000228107
0.00022961
0.000231181
0.000231869
0.000231792
)
;

boundaryField
{
    inlet
    {
        type            cyclic;
    }
    outlet
    {
        type            cyclic;
    }
    top
    {
        type            calculated;
        value           uniform 0.000231873;
    }
    bottom
    {
        type            calculated;
        value           uniform 0.01;
    }
    frontAndBackPlanes
    {
        type            empty;
    }
}


// ************************************************************************* //
