/*--------------------------------*- C++ -*----------------------------------*\
| =========                 |                                                 |
| \\      /  F ield         | OpenFOAM: The Open Source CFD Toolbox           |
|  \\    /   O peration     | Version:  2206                                  |
|   \\  /    A nd           | Website:  www.openfoam.com                      |
|    \\/     M anipulation  |                                                 |
\*---------------------------------------------------------------------------*/
FoamFile
{
    version     2.0;
    format      ascii;
    arch        "LSB;label=32;scalar=64";
    class       volScalarField;
    location    "140";
    object      p_rbgh;
}
// * * * * * * * * * * * * * * * * * * * * * * * * * * * * * * * * * * * * * //

dimensions      [1 -1 -2 0 0 0 0];

internalField   nonuniform List<scalar> 
344
(
-0.0894019
-0.0831947
-0.0832936
-0.0835397
-0.0838768
-0.0842778
-0.0847364
-0.0852344
-0.085762
-0.0862981
-0.0868319
-0.0873422
-0.0878191
-0.0882443
-0.0886106
-0.0889058
-0.0891269
-0.0892703
-0.0893378
-0.0893356
-0.0892701
-0.0891568
-0.0890056
-0.0888388
-0.0886672
-0.0885159
-0.0883934
-0.0883226
-0.0883061
-0.0883598
-0.0884779
-0.0886663
-0.0889099
-0.0892048
-0.0895276
-0.0898681
-0.0901986
-0.0905077
-0.090769
-0.090975
-0.0911067
-0.0911611
-0.0911321
-0.0910166
-0.0908246
-0.0905427
-0.090197
-0.0897525
-0.0892495
-0.0886261
-0.0879312
-0.0870855
-0.0861376
-0.085019
-0.0837641
-0.0823609
-0.0808127
-0.0792151
-0.0775284
-0.0759905
-0.074526
-0.0734974
-0.0728418
-0.0729285
-0.0738085
-0.0756061
-0.0786093
-0.0823557
-0.0873753
-0.0924173
-0.0978767
-0.102227
-0.104727
-0.105736
-0.102896
-0.101143
-0.10135
-0.101686
-0.0758823
-0.0411587
0.0677499
-0.0595316
0.0432502
-0.0296394
0.0208852
-0.0156777
0.0122565
-0.0095953
0.0073651
-0.00553604
0.00410849
-0.00303797
0.00225182
-0.00167716
0.00125481
-0.000941528
0.000707192
-0.000530972
0.000398207
-0.000298256
0.000223171
-0.000166903
0.000124819
-9.33829e-05
6.9909e-05
-5.2376e-05
3.9271e-05
-2.94667e-05
2.21244e-05
-1.66207e-05
1.24914e-05
-9.39075e-06
7.06079e-06
-5.3088e-06
3.99039e-06
-2.99769e-06
2.24935e-06
-1.6847e-06
1.25744e-06
-9.3321e-07
6.85136e-07
-4.93446e-07
3.4599e-07
-2.35106e-07
1.54255e-07
-9.69955e-08
5.81928e-08
-3.29782e-08
1.76106e-08
-8.77244e-09
4.11869e-09
-1.81441e-09
7.77847e-10
-3.2042e-10
1.33744e-10
-5.48801e-11
2.21e-11
-1.03947e-11
3.34734e-12
-1.84167e-12
8.74475e-13
2.08504e-13
8.95284e-13
9.06341e-13
1.1911e-12
1.22726e-12
1.30935e-12
1.28671e-12
1.30621e-12
1.2239e-12
1.16055e-12
1.04575e-12
1.00077e-12
8.45427e-13
6.94389e-13
4.94077e-13
3.36825e-13
1.29066e-13
-4.70987e-14
-2.30832e-13
-3.52906e-13
-5.02359e-13
-6.25182e-13
-7.39446e-13
-8.22822e-13
-8.70706e-13
-9.2185e-13
-8.2821e-13
-1.05419e-12
-9.22525e-13
-9.0643e-13
-8.49383e-13
-8.17908e-13
-7.69821e-13
-7.26947e-13
-6.81353e-13
-6.42559e-13
-5.97733e-13
-5.53861e-13
-5.09143e-13
-4.67247e-13
-4.25354e-13
-3.86231e-13
-3.49433e-13
-3.16812e-13
-2.83827e-13
-2.51872e-13
-2.20748e-13
-1.91804e-13
-1.64143e-13
-1.38788e-13
-1.15758e-13
-9.57044e-14
-7.77715e-14
-6.23232e-14
-4.94661e-14
-3.926e-14
-3.22559e-14
-2.73736e-14
-2.62458e-14
-1.90794e-14
-2.08778e-14
-2.17601e-14
-2.33272e-14
-2.42993e-14
-2.54058e-14
-2.6305e-14
-2.70824e-14
-2.76569e-14
-2.81658e-14
-2.85857e-14
-2.89193e-14
-2.91895e-14
-2.9366e-14
-2.94825e-14
-2.95305e-14
-2.95555e-14
-2.95078e-14
-2.94306e-14
-2.93184e-14
-2.91973e-14
-2.90454e-14
-2.88822e-14
-2.87042e-14
-2.8531e-14
-2.83503e-14
-2.8162e-14
-2.79662e-14
-2.77449e-14
-2.75045e-14
-2.72216e-14
-2.69403e-14
-2.80878e-14
-2.77998e-14
-2.75015e-14
-2.72376e-14
-2.69786e-14
-2.67388e-14
-2.64898e-14
-2.62346e-14
-2.59588e-14
-2.56762e-14
-2.53884e-14
-2.50968e-14
-2.4799e-14
-2.44956e-14
-2.41886e-14
-2.3878e-14
-2.35752e-14
-2.3264e-14
-2.29559e-14
-2.2651e-14
-2.23512e-14
-2.20571e-14
-2.17665e-14
-2.14807e-14
-2.12019e-14
-2.09428e-14
-2.06896e-14
-2.04454e-14
-2.01821e-14
-1.99145e-14
-1.96106e-14
-1.93064e-14
-2.04563e-14
-2.01519e-14
-1.98475e-14
-1.95793e-14
-1.93151e-14
-1.90697e-14
-1.88152e-14
-1.85545e-14
-1.82738e-14
-1.7986e-14
-1.7693e-14
-1.73964e-14
-1.70937e-14
-1.67857e-14
-1.64742e-14
-1.61595e-14
-1.58529e-14
-1.55381e-14
-1.52263e-14
-1.49179e-14
-1.46146e-14
-1.43173e-14
-1.40235e-14
-1.37346e-14
-1.34529e-14
-1.31909e-14
-1.29348e-14
-1.26877e-14
-1.24217e-14
-1.21514e-14
-1.1845e-14
-1.15389e-14
-1.26956e-14
-1.23925e-14
-1.20918e-14
-1.18298e-14
-1.15742e-14
-1.13404e-14
-1.10991e-14
-1.08536e-14
-1.05885e-14
-1.03195e-14
-1.00467e-14
-9.77169e-15
-9.48955e-15
-9.2032e-15
-8.91212e-15
-8.61646e-15
-8.32149e-15
-8.02046e-15
-7.71846e-15
-7.41542e-15
-7.11223e-15
-6.80776e-15
-6.50319e-15
-6.19815e-15
-5.89396e-15
-5.5885e-15
-5.28315e-15
-4.97752e-15
-4.67296e-15
-4.36811e-15
-4.06418e-15
-3.76104e-15
-3.46414e-15
-3.1657e-15
-2.87157e-15
-2.58186e-15
-2.29695e-15
-2.01887e-15
-1.74392e-15
-1.47362e-15
-1.20902e-15
-9.6483e-16
-7.26944e-16
-4.98709e-16
-2.51693e-16
-3.51316e-18
2.80637e-16
5.63256e-16
)
;

boundaryField
{
    inlet
    {
        type            cyclic;
    }
    outlet
    {
        type            cyclic;
    }
    top
    {
        type            fixedValue;
        value           uniform 0;
    }
    bottom
    {
        type            fixedFluxPressure;
        gradient        uniform 0;
        value           uniform -0.0894019;
    }
    frontAndBackPlanes
    {
        type            empty;
    }
}


// ************************************************************************* //
