/*--------------------------------*- C++ -*----------------------------------*\
| =========                 |                                                 |
| \\      /  F ield         | OpenFOAM: The Open Source CFD Toolbox           |
|  \\    /   O peration     | Version:  2206                                  |
|   \\  /    A nd           | Website:  www.openfoam.com                      |
|    \\/     M anipulation  |                                                 |
\*---------------------------------------------------------------------------*/
FoamFile
{
    version     2.0;
    format      ascii;
    arch        "LSB;label=32;scalar=64";
    class       surfaceScalarField;
    location    "140";
    object      phi.b;
}
// * * * * * * * * * * * * * * * * * * * * * * * * * * * * * * * * * * * * * //

dimensions      [0 3 -1 0 0 0 0];

oriented        oriented;

internalField   nonuniform List<scalar> 
343
(
5.81976e-16
1.15974e-15
1.6993e-15
2.20952e-15
2.63955e-15
3.01739e-15
3.28118e-15
3.4764e-15
3.53773e-15
3.52398e-15
3.37476e-15
3.1559e-15
2.82078e-15
2.43372e-15
1.96948e-15
1.48127e-15
9.70764e-16
4.69935e-16
9.14257e-18
-4.091e-16
-7.27832e-16
-9.79609e-16
-1.08772e-15
-1.12093e-15
-9.92225e-16
-8.02816e-16
-4.66036e-16
-1.06448e-16
3.55363e-16
7.83432e-16
1.24901e-15
1.61731e-15
1.95876e-15
2.14847e-15
2.26782e-15
2.20593e-15
2.06515e-15
1.75125e-15
1.38234e-15
8.894e-16
3.72945e-16
-1.85132e-16
-7.63121e-16
-1.28086e-15
-1.87976e-15
-2.31824e-15
-2.97213e-15
-3.38232e-15
-4.17634e-15
-4.67865e-15
-5.67656e-15
-6.38922e-15
-7.52897e-15
-8.469e-15
-9.47801e-15
-1.04672e-14
-1.08368e-14
-1.14312e-14
-1.04887e-14
-9.95805e-15
-7.07727e-15
-4.49212e-15
5.11678e-16
5.95601e-15
1.22718e-14
2.04935e-14
2.58027e-14
3.44285e-14
3.49477e-14
3.76845e-14
3.02814e-14
1.75911e-14
6.85094e-15
-1.91408e-14
-1.23289e-14
1.71472e-15
7.79671e-15
-1.50076e-13
1.10809e-10
1.19858e-13
5.50922e-20
3.08778e-20
3.72034e-20
3.9713e-20
4.61295e-20
4.76174e-20
4.95586e-20
4.71349e-20
5.65839e-20
6.08428e-20
6.56089e-20
6.3321e-20
6.71975e-20
6.38456e-20
6.09102e-20
5.18121e-20
5.24616e-20
4.79828e-20
4.38501e-20
3.49154e-20
2.96927e-20
2.08922e-20
1.20304e-20
-1.35757e-20
-1.27592e-20
-2.62551e-20
-3.99781e-20
-5.09092e-20
-6.52055e-20
-7.41322e-20
-8.34875e-20
-8.65246e-20
-1.01592e-19
-1.08847e-19
-1.16638e-19
-1.14868e-19
-1.21556e-19
-1.18341e-19
-1.15906e-19
-1.05533e-19
-1.14568e-19
-1.15835e-19
-1.1787e-19
-1.10442e-19
-1.10984e-19
-1.02657e-19
-9.48094e-20
-7.99981e-20
-7.53927e-20
-6.55006e-20
-5.59644e-20
-4.25518e-20
-3.07105e-20
-1.82503e-20
-6.1124e-21
-3.20425e-20
9.55169e-21
1.18033e-20
1.3821e-20
1.30711e-20
1.45666e-20
1.44407e-20
1.43892e-20
1.32804e-20
1.42838e-20
1.43081e-20
1.43979e-20
1.36302e-20
1.35848e-20
1.27693e-20
1.20149e-20
1.07232e-20
1.08921e-20
1.06113e-20
1.03852e-20
9.62592e-21
9.30923e-21
8.52725e-21
7.77002e-21
6.66222e-21
6.06297e-21
5.20682e-21
4.36821e-21
3.36226e-21
2.39486e-21
1.44778e-21
5.27217e-22
2.551e-21
-5.21656e-22
-5.99681e-22
-6.54797e-22
-5.51587e-22
-5.70334e-22
-5.24263e-22
-4.79976e-22
-4.09601e-22
-4.04403e-22
-3.78695e-22
-3.54132e-22
-3.2361e-22
-2.98017e-22
-2.69168e-22
-2.4083e-22
-2.12703e-22
-1.96218e-22
-1.81203e-22
-1.6659e-22
-1.52521e-22
-1.38085e-22
-1.24622e-22
-1.11105e-22
-9.86316e-23
-8.44493e-23
-7.12076e-23
-5.79085e-23
-4.58797e-23
-3.22932e-23
-2.05563e-23
-9.12369e-24
-2.94619e-23
2.47956e-24
2.92086e-24
3.04038e-24
1.98459e-24
1.77942e-24
1.31808e-24
8.4956e-25
4.39134e-25
1.51952e-25
-9.02058e-26
-3.40099e-25
-4.10529e-25
-6.21508e-25
-6.75626e-25
-7.37945e-25
-6.69194e-25
-8.01012e-25
-8.27713e-25
-8.60883e-25
-8.05765e-25
-8.18397e-25
-7.6355e-25
-7.11515e-25
-6.06874e-25
-5.68993e-25
-5.04883e-25
-4.41554e-25
-3.72825e-25
-3.07431e-25
-2.52018e-25
-1.91708e-25
2.55409e-25
-1.11763e-25
-9.75284e-26
-7.79897e-26
-8.40178e-26
-7.44345e-26
-8.70162e-26
-9.79305e-26
-1.18878e-25
-1.30469e-25
-1.3949e-25
-1.47858e-25
-1.55212e-25
-1.64923e-25
-1.69411e-25
-1.7408e-25
-1.66306e-25
-1.76969e-25
-1.75239e-25
-1.73689e-25
-1.67014e-25
-1.62668e-25
-1.57409e-25
-1.51542e-25
-1.42116e-25
-1.27315e-25
-1.21336e-25
-1.13775e-25
-1.24231e-25
-1.28093e-25
-1.45761e-25
-1.56203e-25
4.59061e-25
-1.56485e-25
-1.46372e-25
-1.29031e-25
-1.25626e-25
-1.15475e-25
-1.23564e-25
-1.30051e-25
-1.45635e-25
-1.55298e-25
-1.61763e-25
-1.67596e-25
-1.72977e-25
-1.80272e-25
-1.82968e-25
-1.85826e-25
-1.76889e-25
-1.85932e-25
-1.83179e-25
-1.80588e-25
-1.73394e-25
-1.68122e-25
-1.62386e-25
-1.56021e-25
-1.46428e-25
-1.31028e-25
-1.24671e-25
-1.16718e-25
-1.26896e-25
-1.305e-25
-1.47827e-25
-1.57944e-25
4.59267e-25
-1.57712e-25
-1.4772e-25
-1.30493e-25
-1.27947e-25
-1.1774e-25
-1.27239e-25
-1.35023e-25
-1.53739e-25
-1.62993e-25
-1.7143e-25
-1.79091e-25
-1.89224e-25
-1.98783e-25
-2.06692e-25
-2.14724e-25
-2.16393e-25
-2.29683e-25
-2.35644e-25
-2.41836e-25
-2.42881e-25
-2.48493e-25
-2.48761e-25
-2.49356e-25
-2.44879e-25
-2.49311e-25
-2.48589e-25
-2.48199e-25
-2.42244e-25
-2.41107e-25
-2.34454e-25
-2.28059e-25
-2.13905e-25
-2.12101e-25
-2.03321e-25
-1.94701e-25
-1.83648e-25
-1.72626e-25
-1.63314e-25
-1.53218e-25
-1.42153e-25
-1.20103e-25
-1.0937e-25
-9.68335e-26
-1.06134e-25
-1.02708e-25
-1.20628e-25
-1.30898e-25
)
;

boundaryField
{
    inlet
    {
        type            cyclic;
        value           nonuniform List<scalar> 
344
(
1.00737e-23
2.20764e-23
3.41509e-23
4.62331e-23
5.82618e-23
6.27607e-23
6.7229e-23
7.17446e-23
7.58715e-23
7.35793e-23
7.09073e-23
6.83176e-23
6.581e-23
6.33749e-23
6.10123e-23
5.87226e-23
5.65057e-23
5.43615e-23
5.22923e-23
5.03003e-23
4.83877e-23
4.65568e-23
4.48102e-23
4.31497e-23
4.15772e-23
4.00948e-23
3.8704e-23
3.74063e-23
3.6203e-23
3.50951e-23
3.40833e-23
3.31683e-23
3.23504e-23
3.16299e-23
3.10065e-23
3.04802e-23
3.00499e-23
2.9717e-23
2.94789e-23
2.93353e-23
2.92852e-23
2.93278e-23
2.94622e-23
2.9688e-23
3.00048e-23
3.04132e-23
3.09147e-23
3.15115e-23
3.22048e-23
3.29867e-23
3.38201e-23
3.46952e-23
3.29965e-23
3.13345e-23
2.97206e-23
2.81858e-23
2.67362e-23
2.53677e-23
2.40754e-23
2.28553e-23
2.1703e-23
2.06203e-23
1.96012e-23
1.86468e-23
1.77548e-23
1.69248e-23
1.6156e-23
1.54486e-23
1.47983e-23
1.42101e-23
1.36772e-23
1.32062e-23
1.27925e-23
1.24354e-23
1.21354e-23
1.18922e-23
1.17045e-23
1.15775e-23
1.15834e-23
1.06061e-23
7.76049e-24
5.58602e-24
8.15787e-24
3.22228e-24
-1.55963e-24
-1.54528e-23
-1.60534e-23
-1.66256e-23
-1.71725e-23
-2.34329e-23
-2.12446e-23
-1.91402e-23
-1.47316e-23
-1.03924e-23
-8.77303e-24
-7.22916e-24
-5.76196e-24
-5.48775e-24
-5.28986e-24
-4.53978e-24
-3.86216e-24
-3.25521e-24
-2.71518e-24
-2.23708e-24
-1.81571e-24
-1.4458e-24
-1.1221e-24
-8.39435e-25
-5.93092e-25
-4.49212e-25
-3.32642e-25
-2.39173e-25
-1.65256e-25
-1.07698e-25
-6.36452e-26
-3.0592e-26
-6.37343e-27
1.08584e-26
2.26571e-26
2.61846e-26
2.97377e-26
3.10309e-26
3.07414e-26
2.94001e-26
2.74133e-26
2.50856e-26
2.26392e-26
1.98864e-26
1.7277e-26
1.48743e-26
1.2569e-26
1.05183e-26
8.75515e-27
7.23246e-27
5.93268e-27
4.83458e-27
3.91548e-27
3.15272e-27
2.52462e-27
2.01114e-27
1.59418e-27
1.25773e-27
9.8784e-28
7.72548e-28
6.01705e-28
4.66809e-28
3.60797e-28
2.77854e-28
2.13233e-28
1.63091e-28
1.24332e-28
9.44813e-29
7.15735e-29
5.40516e-29
4.06941e-29
3.05452e-29
2.28574e-29
1.70522e-29
1.26822e-29
9.40196e-30
6.94714e-30
5.11646e-30
3.7557e-30
2.74691e-30
2.00203e-30
1.45387e-30
1.05193e-30
7.58295e-31
5.44601e-31
3.89693e-31
2.77856e-31
1.97442e-31
1.3999e-31
9.91719e-32
7.00709e-32
4.95483e-32
3.50775e-32
2.50072e-32
1.80185e-32
1.3168e-32
9.8409e-33
7.51864e-33
5.88699e-33
4.76679e-33
3.97564e-33
3.42423e-33
3.0111e-33
2.69151e-33
2.43905e-33
2.22648e-33
2.03732e-33
1.85441e-33
1.67896e-33
1.50776e-33
1.35261e-33
1.2132e-33
1.08983e-33
9.74004e-34
8.63264e-34
7.71281e-34
6.85551e-34
5.99493e-34
5.22419e-34
4.48471e-34
3.84218e-34
3.29422e-34
2.80913e-34
2.36245e-34
2.00429e-34
1.66418e-34
1.39863e-34
1.14019e-34
9.37633e-35
7.65306e-35
6.11025e-35
5.00372e-35
3.97029e-35
3.01329e-35
2.3806e-35
1.86578e-35
1.36103e-35
1.04573e-35
7.20925e-36
4.99995e-36
3.89335e-36
2.33353e-36
1.22568e-36
4.62471e-37
1.86806e-37
-7.64026e-38
-3.15925e-37
-5.41024e-37
-1.83223e-37
-3.16514e-37
-2.15984e-37
-1.382e-37
-4.50305e-38
4.14291e-39
1.42678e-37
1.97946e-37
3.32018e-37
3.90874e-37
5.20018e-37
6.11895e-37
7.01791e-37
7.90177e-37
8.49567e-37
9.94357e-37
1.10683e-36
1.10654e-36
1.18886e-36
1.29759e-36
1.37818e-36
1.45593e-36
1.5008e-36
1.60055e-36
1.60767e-36
1.73018e-36
1.76114e-36
1.78148e-36
1.87602e-36
1.89379e-36
1.89349e-36
1.89398e-36
1.93087e-36
1.90237e-36
1.69249e-36
1.86632e-36
1.82058e-36
1.73158e-36
1.79745e-36
1.6994e-36
1.67801e-36
1.5863e-36
1.51644e-36
1.43993e-36
1.33368e-36
1.30276e-36
1.21802e-36
1.10678e-36
1.04788e-36
9.64656e-37
9.35256e-37
7.52613e-37
7.29922e-37
6.58834e-37
5.9177e-37
5.28493e-37
4.69641e-37
4.15331e-37
3.65555e-37
3.20242e-37
2.79269e-37
2.42472e-37
2.0965e-37
1.80571e-37
1.54983e-37
1.32618e-37
1.13202e-37
9.64576e-38
8.21058e-38
6.98727e-38
5.94886e-38
5.0689e-38
4.32148e-38
3.68116e-38
3.12286e-38
2.62169e-38
2.15286e-38
1.69151e-38
1.21257e-38
6.90663e-39
1.00076e-39
-5.8529e-39
-1.39186e-38
-2.34624e-38
-3.47497e-38
-4.80412e-38
-6.35869e-38
-8.1621e-38
-1.02357e-37
-1.25983e-37
-1.52646e-37
-1.82417e-37
-2.14875e-37
-2.50018e-37
-2.67586e-37
-3.26601e-37
-3.67374e-37
-4.095e-37
-4.52316e-37
-4.95579e-37
-5.38542e-37
-5.8034e-37
-6.19955e-37
-6.56105e-37
-6.87081e-37
-7.10676e-37
-7.24556e-37
-7.27761e-37
-7.23468e-37
-7.17841e-37
-7.00089e-37
-7.72302e-37
)
;
    }
    outlet
    {
        type            cyclic;
        value           nonuniform List<scalar> 
344
(
-1.00737e-23
-2.20764e-23
-3.41509e-23
-4.62331e-23
-5.82618e-23
-6.27607e-23
-6.7229e-23
-7.17446e-23
-7.58715e-23
-7.35793e-23
-7.09073e-23
-6.83176e-23
-6.581e-23
-6.33749e-23
-6.10123e-23
-5.87226e-23
-5.65057e-23
-5.43615e-23
-5.22923e-23
-5.03003e-23
-4.83877e-23
-4.65568e-23
-4.48102e-23
-4.31497e-23
-4.15772e-23
-4.00948e-23
-3.8704e-23
-3.74063e-23
-3.6203e-23
-3.50951e-23
-3.40833e-23
-3.31683e-23
-3.23504e-23
-3.16299e-23
-3.10065e-23
-3.04802e-23
-3.00499e-23
-2.9717e-23
-2.94789e-23
-2.93353e-23
-2.92852e-23
-2.93278e-23
-2.94622e-23
-2.9688e-23
-3.00048e-23
-3.04132e-23
-3.09147e-23
-3.15115e-23
-3.22048e-23
-3.29867e-23
-3.38201e-23
-3.46952e-23
-3.29965e-23
-3.13345e-23
-2.97206e-23
-2.81858e-23
-2.67362e-23
-2.53677e-23
-2.40754e-23
-2.28553e-23
-2.1703e-23
-2.06203e-23
-1.96012e-23
-1.86468e-23
-1.77548e-23
-1.69248e-23
-1.6156e-23
-1.54486e-23
-1.47983e-23
-1.42101e-23
-1.36772e-23
-1.32062e-23
-1.27925e-23
-1.24354e-23
-1.21354e-23
-1.18922e-23
-1.17045e-23
-1.15775e-23
-1.15834e-23
-1.06061e-23
-7.76049e-24
-5.58602e-24
-8.15787e-24
-3.22228e-24
1.55963e-24
1.54528e-23
1.60534e-23
1.66256e-23
1.71725e-23
2.34329e-23
2.12446e-23
1.91402e-23
1.47316e-23
1.03924e-23
8.77303e-24
7.22916e-24
5.76196e-24
5.48775e-24
5.28986e-24
4.53978e-24
3.86216e-24
3.25521e-24
2.71518e-24
2.23708e-24
1.81571e-24
1.4458e-24
1.1221e-24
8.39435e-25
5.93092e-25
4.49212e-25
3.32642e-25
2.39173e-25
1.65256e-25
1.07698e-25
6.36452e-26
3.0592e-26
6.37343e-27
-1.08584e-26
-2.26571e-26
-2.61846e-26
-2.97377e-26
-3.10309e-26
-3.07414e-26
-2.94001e-26
-2.74133e-26
-2.50856e-26
-2.26392e-26
-1.98864e-26
-1.7277e-26
-1.48743e-26
-1.2569e-26
-1.05183e-26
-8.75515e-27
-7.23246e-27
-5.93268e-27
-4.83458e-27
-3.91548e-27
-3.15272e-27
-2.52462e-27
-2.01114e-27
-1.59418e-27
-1.25773e-27
-9.8784e-28
-7.72548e-28
-6.01705e-28
-4.66809e-28
-3.60797e-28
-2.77854e-28
-2.13233e-28
-1.63091e-28
-1.24332e-28
-9.44813e-29
-7.15735e-29
-5.40516e-29
-4.06941e-29
-3.05452e-29
-2.28574e-29
-1.70522e-29
-1.26822e-29
-9.40196e-30
-6.94714e-30
-5.11646e-30
-3.7557e-30
-2.74691e-30
-2.00203e-30
-1.45387e-30
-1.05193e-30
-7.58295e-31
-5.44601e-31
-3.89693e-31
-2.77856e-31
-1.97442e-31
-1.3999e-31
-9.91719e-32
-7.00709e-32
-4.95483e-32
-3.50775e-32
-2.50072e-32
-1.80185e-32
-1.3168e-32
-9.8409e-33
-7.51864e-33
-5.88699e-33
-4.76679e-33
-3.97564e-33
-3.42423e-33
-3.0111e-33
-2.69151e-33
-2.43905e-33
-2.22648e-33
-2.03732e-33
-1.85441e-33
-1.67896e-33
-1.50776e-33
-1.35261e-33
-1.2132e-33
-1.08983e-33
-9.74004e-34
-8.63264e-34
-7.71281e-34
-6.85551e-34
-5.99493e-34
-5.22419e-34
-4.48471e-34
-3.84218e-34
-3.29422e-34
-2.80913e-34
-2.36245e-34
-2.00429e-34
-1.66418e-34
-1.39863e-34
-1.14019e-34
-9.37633e-35
-7.65306e-35
-6.11025e-35
-5.00372e-35
-3.97029e-35
-3.01329e-35
-2.3806e-35
-1.86578e-35
-1.36103e-35
-1.04573e-35
-7.20925e-36
-4.99995e-36
-3.89335e-36
-2.33353e-36
-1.22568e-36
-4.62471e-37
-1.86806e-37
7.64026e-38
3.15925e-37
5.41024e-37
1.83223e-37
3.16514e-37
2.15984e-37
1.382e-37
4.50305e-38
-4.14291e-39
-1.42678e-37
-1.97946e-37
-3.32018e-37
-3.90874e-37
-5.20018e-37
-6.11895e-37
-7.01791e-37
-7.90177e-37
-8.49567e-37
-9.94357e-37
-1.10683e-36
-1.10654e-36
-1.18886e-36
-1.29759e-36
-1.37818e-36
-1.45593e-36
-1.5008e-36
-1.60055e-36
-1.60767e-36
-1.73018e-36
-1.76114e-36
-1.78148e-36
-1.87602e-36
-1.89379e-36
-1.89349e-36
-1.89398e-36
-1.93087e-36
-1.90237e-36
-1.69249e-36
-1.86632e-36
-1.82058e-36
-1.73158e-36
-1.79745e-36
-1.6994e-36
-1.67801e-36
-1.5863e-36
-1.51644e-36
-1.43993e-36
-1.33368e-36
-1.30276e-36
-1.21802e-36
-1.10678e-36
-1.04788e-36
-9.64656e-37
-9.35256e-37
-7.52613e-37
-7.29922e-37
-6.58834e-37
-5.9177e-37
-5.28493e-37
-4.69641e-37
-4.15331e-37
-3.65555e-37
-3.20242e-37
-2.79269e-37
-2.42472e-37
-2.0965e-37
-1.80571e-37
-1.54983e-37
-1.32618e-37
-1.13202e-37
-9.64576e-38
-8.21058e-38
-6.98727e-38
-5.94886e-38
-5.0689e-38
-4.32148e-38
-3.68116e-38
-3.12286e-38
-2.62169e-38
-2.15286e-38
-1.69151e-38
-1.21257e-38
-6.90663e-39
-1.00076e-39
5.8529e-39
1.39186e-38
2.34624e-38
3.47497e-38
4.80412e-38
6.35869e-38
8.1621e-38
1.02357e-37
1.25983e-37
1.52646e-37
1.82417e-37
2.14875e-37
2.50018e-37
2.67586e-37
3.26601e-37
3.67374e-37
4.095e-37
4.52316e-37
4.95579e-37
5.38542e-37
5.8034e-37
6.19955e-37
6.56105e-37
6.87081e-37
7.10676e-37
7.24556e-37
7.27761e-37
7.23468e-37
7.17841e-37
7.00089e-37
7.72302e-37
)
;
    }
    top
    {
        type            calculated;
        value           uniform 4.22067e-25;
    }
    bottom
    {
        type            fixedValue;
        value           uniform 0;
    }
    frontAndBackPlanes
    {
        type            empty;
        value           nonuniform List<scalar> 0();
    }
}


// ************************************************************************* //
