/*--------------------------------*- C++ -*----------------------------------*\
| =========                 |                                                 |
| \\      /  F ield         | OpenFOAM: The Open Source CFD Toolbox           |
|  \\    /   O peration     | Version:  2206                                  |
|   \\  /    A nd           | Website:  www.openfoam.com                      |
|    \\/     M anipulation  |                                                 |
\*---------------------------------------------------------------------------*/
FoamFile
{
    version     2.0;
    format      ascii;
    arch        "LSB;label=32;scalar=64";
    class       surfaceScalarField;
    location    "140";
    object      phi.a;
}
// * * * * * * * * * * * * * * * * * * * * * * * * * * * * * * * * * * * * * //

dimensions      [0 3 -1 0 0 0 0];

oriented        oriented;

internalField   nonuniform List<scalar> 
343
(
-4.11253e-16
-8.19714e-16
-1.20134e-15
-1.5624e-15
-1.8669e-15
-2.13463e-15
-2.32176e-15
-2.46048e-15
-2.50441e-15
-2.49522e-15
-2.39006e-15
-2.23555e-15
-1.99851e-15
-1.72459e-15
-1.39578e-15
-1.04985e-15
-6.87834e-16
-3.32535e-16
-5.4607e-18
2.91529e-16
5.18043e-16
6.97064e-16
7.7408e-16
7.97844e-16
7.06567e-16
5.72009e-16
3.32484e-16
7.65243e-17
-2.52376e-16
-5.57498e-16
-8.89569e-16
-1.15255e-15
-1.39654e-15
-1.53248e-15
-1.61832e-15
-1.57483e-15
-1.47497e-15
-1.25133e-15
-9.88194e-16
-6.35942e-16
-2.66899e-16
1.32459e-16
5.46446e-16
9.17668e-16
1.34743e-15
1.66259e-15
2.13267e-15
2.42831e-15
3.00004e-15
3.36278e-15
4.08245e-15
4.59777e-15
5.42139e-15
6.10226e-15
6.83396e-15
7.55256e-15
7.82498e-15
8.26046e-15
7.58552e-15
7.20781e-15
5.12719e-15
3.25734e-15
-3.71513e-16
-4.32788e-15
-8.92721e-15
-1.49257e-14
-1.88169e-14
-2.5142e-14
-2.55606e-14
-2.76081e-14
-2.22268e-14
-1.2939e-14
-5.05174e-15
1.41538e-14
9.15041e-15
-1.27831e-15
-5.85726e-15
2.41559e-13
-1.01484e-09
-3.06174e-09
-4.53412e-09
-5.2119e-09
-5.38621e-09
-5.34594e-09
-5.35854e-09
-5.36092e-09
-5.3683e-09
-5.37153e-09
-5.37318e-09
-5.37318e-09
-5.37318e-09
-5.37318e-09
-5.37318e-09
-5.37318e-09
-5.37318e-09
-5.37318e-09
-5.37318e-09
-5.37318e-09
-5.37318e-09
-5.37318e-09
-5.37257e-09
-5.36556e-09
-5.29488e-09
-4.88723e-09
-4.54385e-09
-4.54385e-09
-4.8391e-09
-5.13433e-09
-5.13433e-09
-5.13433e-09
-5.13433e-09
-5.13433e-09
-5.13433e-09
-5.13433e-09
-5.13433e-09
-5.13433e-09
-5.13433e-09
-5.13433e-09
-5.13433e-09
-5.13433e-09
-5.13433e-09
-5.13433e-09
-5.13433e-09
-5.13433e-09
-5.13433e-09
-4.83099e-09
-4.52764e-09
-4.52764e-09
-4.83189e-09
-5.12397e-09
-4.86119e-09
-4.61056e-09
-4.61056e-09
-4.82963e-09
-5.04869e-09
-5.04869e-09
-4.9564e-09
-4.86412e-09
-4.86412e-09
-4.99991e-09
-5.12684e-09
-4.88817e-09
-4.65836e-09
-4.65836e-09
-4.89706e-09
-5.13575e-09
-5.13575e-09
-5.13575e-09
-5.09482e-09
-5.05388e-09
-5.05388e-09
-5.0955e-09
-5.13712e-09
-5.13712e-09
-5.13712e-09
-5.13712e-09
-5.13712e-09
-5.13712e-09
-4.76167e-09
-4.38622e-09
-4.38622e-09
-4.72917e-09
-5.07212e-09
-5.07212e-09
-5.07212e-09
-4.78225e-09
-4.49236e-09
-4.49236e-09
-4.81308e-09
-5.11887e-09
-4.8119e-09
-4.51983e-09
-4.51983e-09
-4.84083e-09
-5.16182e-09
-5.16182e-09
-5.16182e-09
-5.16182e-09
-5.16183e-09
-5.16183e-09
-5.16183e-09
-5.16183e-09
-5.16183e-09
-5.16183e-09
-5.16183e-09
-5.16183e-09
-5.16183e-09
-5.16183e-09
-5.15117e-09
-5.1405e-09
-5.1405e-09
-5.15186e-09
-5.16322e-09
-5.16322e-09
-5.16322e-09
-5.16322e-09
-5.06805e-09
-4.97288e-09
-4.97288e-09
-5.05102e-09
-5.12916e-09
-5.12916e-09
-5.12916e-09
-5.12916e-09
-4.91965e-09
-4.71014e-09
-4.71014e-09
-4.91738e-09
-5.12463e-09
-5.12463e-09
-5.12463e-09
-5.12463e-09
-5.12463e-09
-5.12463e-09
-4.75304e-09
-4.38146e-09
-4.38146e-09
-4.75192e-09
-5.12237e-09
-5.12237e-09
-5.12237e-09
-5.12237e-09
-5.12237e-09
-5.12237e-09
-5.12237e-09
-4.81817e-09
-4.51397e-09
-4.51397e-09
-4.82166e-09
-5.12934e-09
-5.12934e-09
-5.12934e-09
-5.12934e-09
-5.12934e-09
-5.12934e-09
-5.12934e-09
-5.12934e-09
-5.12934e-09
-5.12934e-09
-5.12934e-09
-4.7897e-09
-4.45006e-09
-4.45006e-09
-4.74827e-09
-5.04649e-09
-5.04649e-09
-4.78652e-09
-4.52655e-09
-4.52655e-09
-4.82488e-09
-5.12321e-09
-5.12321e-09
-5.12321e-09
-5.12321e-09
-5.12321e-09
-5.1232e-09
-5.1232e-09
-5.1232e-09
-4.84078e-09
-4.55836e-09
-4.55836e-09
-4.84536e-09
-5.11674e-09
-4.79165e-09
-4.48218e-09
-4.48218e-09
-4.82122e-09
-5.16145e-09
-5.1427e-09
-5.12273e-09
-5.12273e-09
-5.13866e-09
-5.15458e-09
-5.15458e-09
-5.15458e-09
-5.13796e-09
-5.12134e-09
-5.12134e-09
-5.13704e-09
-5.15275e-09
-5.15274e-09
-5.15274e-09
-4.90804e-09
-4.66333e-09
-4.66333e-09
-4.89371e-09
-5.12408e-09
-5.12408e-09
-5.12408e-09
-5.12408e-09
-5.12408e-09
-5.12408e-09
-4.79865e-09
-4.47321e-09
-4.47321e-09
-4.7981e-09
-5.12298e-09
-5.12298e-09
-5.12298e-09
-5.12298e-09
-5.12298e-09
-5.12298e-09
-4.99372e-09
-4.86447e-09
-4.86447e-09
-4.99563e-09
-5.12678e-09
-5.12678e-09
-5.12678e-09
-5.12678e-09
-5.12678e-09
-4.81425e-09
-4.50172e-09
-4.50172e-09
-4.82129e-09
-5.14086e-09
-5.14086e-09
-5.14086e-09
-5.14086e-09
-5.14086e-09
-5.14086e-09
-4.97773e-09
-4.81461e-09
-4.81461e-09
-4.97025e-09
-5.12589e-09
-5.12589e-09
-5.12589e-09
-5.12589e-09
-5.12589e-09
-5.12589e-09
-4.81706e-09
-4.50823e-09
-4.50823e-09
-4.82639e-09
-5.14456e-09
-5.14456e-09
-5.14456e-09
-5.14456e-09
-5.14456e-09
-5.14456e-09
-5.14456e-09
-5.14456e-09
)
;

boundaryField
{
    inlet
    {
        type            cyclic;
        value           nonuniform List<scalar> 
344
(
1.01134e-23
2.20857e-23
3.41513e-23
4.62333e-23
5.82971e-23
6.27608e-23
6.7229e-23
7.17445e-23
7.58689e-23
7.35775e-23
7.09074e-23
6.83176e-23
6.58093e-23
6.33749e-23
6.10129e-23
5.87231e-23
5.65058e-23
5.43615e-23
5.22923e-23
5.03003e-23
4.83877e-23
4.65568e-23
4.48102e-23
4.31497e-23
4.15773e-23
4.00948e-23
3.8704e-23
3.74064e-23
3.62031e-23
3.50951e-23
3.40833e-23
3.31683e-23
3.23505e-23
3.16299e-23
3.10066e-23
3.04803e-23
3.00505e-23
2.97171e-23
2.9479e-23
2.93353e-23
2.92853e-23
2.93279e-23
2.94623e-23
2.96879e-23
3.00047e-23
3.04133e-23
3.09148e-23
3.15116e-23
3.22049e-23
3.29868e-23
3.38207e-23
3.47126e-23
3.29965e-23
3.13353e-23
2.97207e-23
2.81859e-23
2.67362e-23
2.53677e-23
2.40754e-23
2.28553e-23
2.17041e-23
2.06203e-23
1.96014e-23
1.86468e-23
1.77548e-23
1.69248e-23
1.61561e-23
1.54478e-23
1.47993e-23
1.42101e-23
1.36793e-23
1.3207e-23
1.27925e-23
1.24354e-23
1.21354e-23
1.1892e-23
1.17045e-23
1.15765e-23
1.15722e-23
1.03728e-23
8.52983e-24
7.86839e-24
4.85269e-24
-4.80078e-24
-7.40631e-24
-6.73354e-24
-4.37476e-24
-1.77344e-24
-3.85095e-25
-3.84725e-25
-3.84406e-25
-3.84155e-25
-3.83982e-25
-3.83843e-25
-3.83732e-25
-3.83648e-25
-3.83588e-25
-3.83552e-25
-3.83539e-25
-3.83551e-25
-3.83629e-25
-4.33382e-25
-6.43689e-25
-9.70725e-25
-2.37303e-27
-2.35533e-27
-2.36256e-27
6.01973e-26
6.01996e-26
6.02011e-26
6.02028e-26
6.02045e-26
6.02063e-26
6.02079e-26
6.02095e-26
6.02109e-26
6.02121e-26
6.02131e-26
6.02139e-26
6.02145e-26
6.02149e-26
6.02151e-26
6.0215e-26
6.02148e-26
6.02145e-26
6.02077e-26
-2.96111e-24
-2.96113e-24
-2.96111e-24
-8.8505e-25
-2.1718e-25
-1.33783e-26
-1.3378e-26
-1.33779e-26
-2.69901e-27
-2.69901e-27
-2.69899e-27
-1.46007e-27
-1.46007e-27
-1.46005e-27
2.10483e-27
6.6028e-27
1.60126e-26
1.60131e-26
1.60328e-26
6.94498e-24
6.94501e-24
6.94503e-24
6.94522e-24
4.01222e-24
4.00958e-24
4.00698e-24
3.0712e-24
2.87776e-24
-1.44326e-24
-5.5123e-24
-5.50753e-24
-5.4707e-24
-5.46927e-24
-2.06012e-24
-2.06012e-24
-2.0601e-24
-2.99744e-25
-2.99742e-25
-2.9974e-25
-2.99736e-25
-7.86612e-27
-7.86517e-27
-7.86491e-27
4.36284e-26
1.4095e-25
3.54355e-25
3.54358e-25
3.5446e-25
2.53499e-23
1.39595e-23
9.39501e-24
9.27585e-24
9.04411e-24
5.28086e-24
1.18261e-24
-1.6427e-24
-4.55393e-24
-8.21003e-24
-1.13095e-23
-1.57559e-23
-1.98205e-23
-2.3265e-23
-3.48708e-23
-2.38189e-23
-2.3819e-23
-2.38189e-23
-2.27629e-23
-2.29153e-23
-2.66993e-23
-2.96888e-23
-2.97866e-23
-5.98941e-24
-5.99052e-24
-5.99191e-24
-3.0342e-24
-2.94682e-24
-6.51647e-24
-9.3433e-24
-9.28676e-24
9.60695e-24
-1.88157e-24
-1.33701e-23
6.68429e-24
6.80002e-24
3.2692e-24
-3.54245e-26
-4.02172e-24
-7.97437e-24
-7.90353e-24
-1.87855e-24
-1.87852e-24
-1.87846e-24
6.60597e-24
6.6167e-24
6.70571e-24
3.0044e-24
-8.16109e-25
-4.23649e-24
-7.4209e-24
-7.34706e-24
-3.39141e-25
-3.39125e-25
-3.39068e-25
1.44606e-23
1.42914e-23
1.04288e-23
6.86442e-24
3.09881e-24
-7.35533e-25
-6.69308e-25
-2.76037e-25
-3.992e-24
-7.60212e-24
-1.06162e-23
-2.22296e-23
-8.17905e-25
-8.17888e-25
-8.17872e-25
4.08137e-24
4.08139e-24
4.0814e-24
1.31252e-23
1.63669e-24
-9.85183e-24
8.13606e-24
8.13816e-24
8.18403e-24
8.06926e-24
4.27987e-24
4.75391e-25
-3.12478e-24
-6.24906e-24
-6.17918e-24
-6.65922e-26
-6.65764e-26
-6.65765e-26
-2.38198e-25
-2.49872e-25
-2.57692e-25
-2.57694e-25
-2.57677e-25
3.06464e-24
4.24554e-24
5.3218e-24
5.32182e-24
5.32188e-24
8.05123e-24
-3.34429e-24
-8.98575e-24
-8.71667e-24
-1.25197e-23
-1.25198e-23
-1.25198e-23
-1.30426e-23
-1.30427e-23
-1.30427e-23
-1.30425e-23
-4.62227e-26
-4.6196e-26
-4.61952e-26
-6.78544e-27
-6.78529e-27
-6.78523e-27
-6.78518e-27
-6.78513e-27
-6.7851e-27
-6.78505e-27
-4.80536e-30
-4.78954e-30
-4.7892e-30
-5.94774e-34
-5.78797e-34
-5.72668e-34
-5.6839e-34
-5.65103e-34
-5.63396e-34
-5.63341e-34
-2.91758e-37
-2.8992e-37
-2.89883e-37
-1.18709e-40
-1.16439e-40
-1.15636e-40
-1.15131e-40
-1.14881e-40
-1.14845e-40
3.9396e-41
3.93923e-41
3.935e-41
-4.95887e-41
-4.95423e-41
-4.95782e-41
-4.96641e-41
-4.97855e-41
-4.99232e-41
-5.01892e-41
-6.41665e-39
-6.4164e-39
-6.41666e-39
3.25339e-38
3.25357e-38
3.25361e-38
3.25359e-38
3.25353e-38
3.25345e-38
3.25324e-38
-1.36582e-39
-1.36438e-39
-1.36754e-39
-4.50604e-37
-4.50604e-37
-4.50605e-37
-4.50605e-37
-4.50605e-37
-4.50605e-37
-4.50605e-37
-4.50605e-37
-4.50605e-37
)
;
    }
    outlet
    {
        type            cyclic;
        value           nonuniform List<scalar> 
344
(
-1.01134e-23
-2.20857e-23
-3.41513e-23
-4.62333e-23
-5.82971e-23
-6.27608e-23
-6.7229e-23
-7.17445e-23
-7.58689e-23
-7.35775e-23
-7.09074e-23
-6.83176e-23
-6.58093e-23
-6.33749e-23
-6.10129e-23
-5.87231e-23
-5.65058e-23
-5.43615e-23
-5.22923e-23
-5.03003e-23
-4.83877e-23
-4.65568e-23
-4.48102e-23
-4.31497e-23
-4.15773e-23
-4.00948e-23
-3.8704e-23
-3.74064e-23
-3.62031e-23
-3.50951e-23
-3.40833e-23
-3.31683e-23
-3.23505e-23
-3.16299e-23
-3.10066e-23
-3.04803e-23
-3.00505e-23
-2.97171e-23
-2.9479e-23
-2.93353e-23
-2.92853e-23
-2.93279e-23
-2.94623e-23
-2.96879e-23
-3.00047e-23
-3.04133e-23
-3.09148e-23
-3.15116e-23
-3.22049e-23
-3.29868e-23
-3.38207e-23
-3.47126e-23
-3.29965e-23
-3.13353e-23
-2.97207e-23
-2.81859e-23
-2.67362e-23
-2.53677e-23
-2.40754e-23
-2.28553e-23
-2.17041e-23
-2.06203e-23
-1.96014e-23
-1.86468e-23
-1.77548e-23
-1.69248e-23
-1.61561e-23
-1.54478e-23
-1.47993e-23
-1.42101e-23
-1.36793e-23
-1.3207e-23
-1.27925e-23
-1.24354e-23
-1.21354e-23
-1.1892e-23
-1.17045e-23
-1.15765e-23
-1.15722e-23
-1.03728e-23
-8.52983e-24
-7.86839e-24
-4.85269e-24
4.80078e-24
7.40631e-24
6.73354e-24
4.37476e-24
1.77344e-24
3.85095e-25
3.84725e-25
3.84406e-25
3.84155e-25
3.83982e-25
3.83843e-25
3.83732e-25
3.83648e-25
3.83588e-25
3.83552e-25
3.83539e-25
3.83551e-25
3.83629e-25
4.33382e-25
6.43689e-25
9.70725e-25
2.37303e-27
2.35533e-27
2.36256e-27
-6.01973e-26
-6.01996e-26
-6.02011e-26
-6.02028e-26
-6.02045e-26
-6.02063e-26
-6.02079e-26
-6.02095e-26
-6.02109e-26
-6.02121e-26
-6.02131e-26
-6.02139e-26
-6.02145e-26
-6.02149e-26
-6.02151e-26
-6.0215e-26
-6.02148e-26
-6.02145e-26
-6.02077e-26
2.96111e-24
2.96113e-24
2.96111e-24
8.8505e-25
2.1718e-25
1.33783e-26
1.3378e-26
1.33779e-26
2.69901e-27
2.69901e-27
2.69899e-27
1.46007e-27
1.46007e-27
1.46005e-27
-2.10483e-27
-6.6028e-27
-1.60126e-26
-1.60131e-26
-1.60328e-26
-6.94498e-24
-6.94501e-24
-6.94503e-24
-6.94522e-24
-4.01222e-24
-4.00958e-24
-4.00698e-24
-3.0712e-24
-2.87776e-24
1.44326e-24
5.5123e-24
5.50753e-24
5.4707e-24
5.46927e-24
2.06012e-24
2.06012e-24
2.0601e-24
2.99744e-25
2.99742e-25
2.9974e-25
2.99736e-25
7.86612e-27
7.86517e-27
7.86491e-27
-4.36284e-26
-1.4095e-25
-3.54355e-25
-3.54358e-25
-3.5446e-25
-2.53499e-23
-1.39595e-23
-9.39501e-24
-9.27585e-24
-9.04411e-24
-5.28086e-24
-1.18261e-24
1.6427e-24
4.55393e-24
8.21003e-24
1.13095e-23
1.57559e-23
1.98205e-23
2.3265e-23
3.48708e-23
2.38189e-23
2.3819e-23
2.38189e-23
2.27629e-23
2.29153e-23
2.66993e-23
2.96888e-23
2.97866e-23
5.98941e-24
5.99052e-24
5.99191e-24
3.0342e-24
2.94682e-24
6.51647e-24
9.3433e-24
9.28676e-24
-9.60695e-24
1.88157e-24
1.33701e-23
-6.68429e-24
-6.80002e-24
-3.2692e-24
3.54245e-26
4.02172e-24
7.97437e-24
7.90353e-24
1.87855e-24
1.87852e-24
1.87846e-24
-6.60597e-24
-6.6167e-24
-6.70571e-24
-3.0044e-24
8.16109e-25
4.23649e-24
7.4209e-24
7.34706e-24
3.39141e-25
3.39125e-25
3.39068e-25
-1.44606e-23
-1.42914e-23
-1.04288e-23
-6.86442e-24
-3.09881e-24
7.35533e-25
6.69308e-25
2.76037e-25
3.992e-24
7.60212e-24
1.06162e-23
2.22296e-23
8.17905e-25
8.17888e-25
8.17872e-25
-4.08137e-24
-4.08139e-24
-4.0814e-24
-1.31252e-23
-1.63669e-24
9.85183e-24
-8.13606e-24
-8.13816e-24
-8.18403e-24
-8.06926e-24
-4.27987e-24
-4.75391e-25
3.12478e-24
6.24906e-24
6.17918e-24
6.65922e-26
6.65764e-26
6.65765e-26
2.38198e-25
2.49872e-25
2.57692e-25
2.57694e-25
2.57677e-25
-3.06464e-24
-4.24554e-24
-5.3218e-24
-5.32182e-24
-5.32188e-24
-8.05123e-24
3.34429e-24
8.98575e-24
8.71667e-24
1.25197e-23
1.25198e-23
1.25198e-23
1.30426e-23
1.30427e-23
1.30427e-23
1.30425e-23
4.62227e-26
4.6196e-26
4.61952e-26
6.78544e-27
6.78529e-27
6.78523e-27
6.78518e-27
6.78513e-27
6.7851e-27
6.78505e-27
4.80536e-30
4.78954e-30
4.7892e-30
5.94774e-34
5.78797e-34
5.72668e-34
5.6839e-34
5.65103e-34
5.63396e-34
5.63341e-34
2.91758e-37
2.8992e-37
2.89883e-37
1.18709e-40
1.16439e-40
1.15636e-40
1.15131e-40
1.14881e-40
1.14845e-40
-3.9396e-41
-3.93923e-41
-3.935e-41
4.95887e-41
4.95423e-41
4.95782e-41
4.96641e-41
4.97855e-41
4.99232e-41
5.01892e-41
6.41665e-39
6.4164e-39
6.41666e-39
-3.25339e-38
-3.25357e-38
-3.25361e-38
-3.25359e-38
-3.25353e-38
-3.25345e-38
-3.25324e-38
1.36582e-39
1.36438e-39
1.36754e-39
4.50604e-37
4.50604e-37
4.50605e-37
4.50605e-37
4.50605e-37
4.50605e-37
4.50605e-37
4.50605e-37
4.50605e-37
)
;
    }
    top
    {
        type            calculated;
        value           uniform -5.14456e-09;
    }
    bottom
    {
        type            fixedValue;
        value           uniform 0;
    }
    frontAndBackPlanes
    {
        type            empty;
        value           nonuniform List<scalar> 0();
    }
}


// ************************************************************************* //
