/*--------------------------------*- C++ -*----------------------------------*\
| =========                 |                                                 |
| \\      /  F ield         | OpenFOAM: The Open Source CFD Toolbox           |
|  \\    /   O peration     | Version:  2206                                  |
|   \\  /    A nd           | Website:  www.openfoam.com                      |
|    \\/     M anipulation  |                                                 |
\*---------------------------------------------------------------------------*/
FoamFile
{
    version     2.0;
    format      ascii;
    arch        "LSB;label=32;scalar=64";
    class       volVectorField;
    location    "140";
    object      U.a;
}
// * * * * * * * * * * * * * * * * * * * * * * * * * * * * * * * * * * * * * //

dimensions      [0 1 -1 0 0 0 0];

internalField   nonuniform List<vector> 
344
(
(-2.24741e-17 1.05653e-05 0)
(-4.90792e-17 -1.08702e-07 0)
(-7.58917e-17 9.0869e-08 0)
(-1.02741e-16 -1.09455e-07 0)
(-1.29549e-16 8.53216e-08 0)
(-1.39469e-16 -1.14137e-07 0)
(-1.49398e-16 8.11799e-08 0)
(-1.59432e-16 -1.17017e-07 0)
(-1.68597e-16 7.9029e-08 0)
(-1.63505e-16 -1.17686e-07 0)
(-1.57572e-16 7.91607e-08 0)
(-1.51817e-16 -1.16052e-07 0)
(-1.46243e-16 8.15365e-08 0)
(-1.40833e-16 -1.12384e-07 0)
(-1.35584e-16 8.57576e-08 0)
(-1.30496e-16 -1.073e-07 0)
(-1.25568e-16 9.10934e-08 0)
(-1.20803e-16 -1.01707e-07 0)
(-1.16205e-16 9.65776e-08 0)
(-1.11779e-16 -9.66569e-08 0)
(-1.07528e-16 1.01166e-07 0)
(-1.0346e-16 -9.31635e-08 0)
(-9.95783e-17 1.03937e-07 0)
(-9.58882e-17 -9.19823e-08 0)
(-9.23939e-17 1.04315e-07 0)
(-8.90996e-17 -9.34032e-08 0)
(-8.6009e-17 1.02251e-07 0)
(-8.31253e-17 -9.71157e-08 0)
(-8.04512e-17 9.83122e-08 0)
(-7.79891e-17 -1.0221e-07 0)
(-7.57407e-17 9.36143e-08 0)
(-7.37074e-17 -1.07353e-07 0)
(-7.18899e-17 8.95662e-08 0)
(-7.02887e-17 -1.11136e-07 0)
(-6.89035e-17 8.74795e-08 0)
(-6.77339e-17 -1.12477e-07 0)
(-6.67789e-17 8.8164e-08 0)
(-6.6038e-17 -1.1095e-07 0)
(-6.55088e-17 9.16311e-08 0)
(-6.51896e-17 -1.06899e-07 0)
(-6.50784e-17 9.70819e-08 0)
(-6.51731e-17 -1.01209e-07 0)
(-6.54717e-17 1.03251e-07 0)
(-6.59731e-17 -9.48131e-08 0)
(-6.66772e-17 1.08967e-07 0)
(-6.7585e-17 -8.81532e-08 0)
(-6.86995e-17 1.13787e-07 0)
(-7.00257e-17 -8.08417e-08 0)
(-7.15664e-17 1.18268e-07 0)
(-7.33039e-17 -7.19291e-08 0)
(-7.51571e-17 1.23756e-07 0)
(-7.71392e-17 -6.07115e-08 0)
(-7.33256e-17 1.31597e-07 0)
(-6.96341e-17 -4.7899e-08 0)
(-6.60459e-17 1.42038e-07 0)
(-6.26352e-17 -3.65653e-08 0)
(-5.94138e-17 1.53169e-07 0)
(-5.63727e-17 -3.24386e-08 0)
(-5.35009e-17 1.60091e-07 0)
(-5.07895e-17 -4.30885e-08 0)
(-4.82314e-17 1.5462e-07 0)
(-4.58229e-17 -7.55556e-08 0)
(-4.35588e-17 1.26167e-07 0)
(-4.14373e-17 -1.3188e-07 0)
(-3.9455e-17 6.52777e-08 0)
(-3.76107e-17 -2.02833e-07 0)
(-3.59023e-17 -2.77809e-08 0)
(-3.43285e-17 -2.62164e-07 0)
(-3.28874e-17 -1.2682e-07 0)
(-3.15781e-17 -2.67223e-07 0)
(-3.03985e-17 -1.60243e-07 0)
(-2.93489e-17 -1.83214e-07 0)
(-2.84278e-17 -1.66056e-08 0)
(-2.76342e-17 -6.33882e-08 0)
(-2.69676e-17 2.85808e-07 0)
(-2.64268e-17 -1.44254e-07 0)
(-2.60101e-17 1.24155e-07 0)
(-2.57256e-17 -2.47035e-07 0)
(-2.57161e-17 6.80554e-06 0)
(-2.30506e-17 -0.0116627 0)
(-1.89552e-17 -0.032436 0)
(-1.74853e-17 -0.0378541 0)
(-1.07838e-17 -0.0421256 0)
(1.06684e-17 -0.0410982 0)
(1.64585e-17 -0.0413794 0)
(1.49634e-17 -0.041319 0)
(9.72168e-18 -0.041412 0)
(3.94097e-18 -0.0414334 0)
(8.55766e-19 -0.0414597 0)
(8.54944e-19 -0.0414597 0)
(8.54236e-19 -0.0414597 0)
(8.53677e-19 -0.0414597 0)
(8.53294e-19 -0.0414597 0)
(8.52983e-19 -0.0414597 0)
(8.52738e-19 -0.0414597 0)
(8.52551e-19 -0.0414597 0)
(8.52418e-19 -0.0414597 0)
(8.52339e-19 -0.0414597 0)
(8.52309e-19 -0.0414597 0)
(8.52336e-19 -0.0414597 0)
(8.52509e-19 -0.0414597 0)
(9.63072e-19 -0.0414503 0)
(1.43042e-18 -0.0413517 0)
(2.15717e-18 -0.0403591 0)
(5.2734e-21 -0.0350606 0)
(5.23407e-21 -0.0350605 0)
(5.25012e-21 -0.0350606 0)
(-1.33772e-19 -0.0396168 0)
(-1.33777e-19 -0.0396168 0)
(-1.3378e-19 -0.0396168 0)
(-1.33784e-19 -0.0396168 0)
(-1.33788e-19 -0.0396168 0)
(-1.33792e-19 -0.0396168 0)
(-1.33795e-19 -0.0396168 0)
(-1.33799e-19 -0.0396168 0)
(-1.33802e-19 -0.0396168 0)
(-1.33805e-19 -0.0396168 0)
(-1.33807e-19 -0.0396168 0)
(-1.33809e-19 -0.0396168 0)
(-1.3381e-19 -0.0396168 0)
(-1.33811e-19 -0.0396168 0)
(-1.33811e-19 -0.0396168 0)
(-1.33811e-19 -0.0396168 0)
(-1.33811e-19 -0.0396168 0)
(-1.3381e-19 -0.0396168 0)
(-1.33795e-19 -0.0396168 0)
(6.58025e-18 -0.0349355 0)
(6.58029e-18 -0.0349355 0)
(6.58026e-18 -0.0349355 0)
(1.96678e-18 -0.0396306 0)
(4.82622e-19 -0.039443 0)
(2.97296e-20 -0.0355754 0)
(2.97288e-20 -0.0355753 0)
(2.97286e-20 -0.0355754 0)
(5.9978e-21 -0.0389559 0)
(5.99779e-21 -0.0389559 0)
(5.99775e-21 -0.0389559 0)
(3.2446e-21 -0.0375318 0)
(3.2446e-21 -0.0375318 0)
(3.24456e-21 -0.0375318 0)
(-4.67739e-21 -0.0396273 0)
(-1.46729e-20 -0.0394905 0)
(-3.55836e-20 -0.0359442 0)
(-3.55846e-20 -0.0359442 0)
(-3.56285e-20 -0.0359442 0)
(-1.54333e-17 -0.0396277 0)
(-1.54334e-17 -0.0396277 0)
(-1.54334e-17 -0.0396277 0)
(-1.54338e-17 -0.0396277 0)
(-8.91605e-18 -0.038996 0)
(-8.91018e-18 -0.038996 0)
(-8.90441e-18 -0.038996 0)
(-6.82488e-18 -0.0396383 0)
(-6.39502e-18 -0.0396383 0)
(3.20724e-18 -0.0396383 0)
(1.22496e-17 -0.0396382 0)
(1.2239e-17 -0.0396382 0)
(1.21571e-17 -0.0396382 0)
(1.21539e-17 -0.0396382 0)
(4.57804e-18 -0.0338443 0)
(4.57803e-18 -0.0338443 0)
(4.57801e-18 -0.0338443 0)
(6.66097e-19 -0.0391367 0)
(6.66093e-19 -0.0391367 0)
(6.6609e-19 -0.0391367 0)
(6.66079e-19 -0.0391367 0)
(1.74803e-20 -0.0346633 0)
(1.74782e-20 -0.0346633 0)
(1.74776e-20 -0.0346633 0)
(-9.69521e-20 -0.0396125 0)
(-3.13223e-19 -0.0393824 0)
(-7.87456e-19 -0.0348753 0)
(-7.87463e-19 -0.0348752 0)
(-7.8769e-19 -0.0348753 0)
(-5.63331e-17 -0.0398289 0)
(-3.1021e-17 -0.0398289 0)
(-2.08778e-17 -0.0398289 0)
(-2.0613e-17 -0.0398289 0)
(-2.0098e-17 -0.0398289 0)
(-1.17352e-17 -0.0398289 0)
(-2.62802e-18 -0.0398289 0)
(3.65044e-18 -0.0398289 0)
(1.01198e-17 -0.0398289 0)
(1.82445e-17 -0.0398289 0)
(2.51323e-17 -0.0398289 0)
(3.50131e-17 -0.0398289 0)
(4.40456e-17 -0.0398289 0)
(5.17001e-17 -0.0398289 0)
(7.74906e-17 -0.0398289 0)
(5.2931e-17 -0.0396644 0)
(5.29311e-17 -0.0396644 0)
(5.29309e-17 -0.0396644 0)
(5.05842e-17 -0.0398396 0)
(5.0923e-17 -0.0398396 0)
(5.93317e-17 -0.0398396 0)
(6.5975e-17 -0.0398396 0)
(6.61924e-17 -0.0398396 0)
(1.33098e-17 -0.038371 0)
(1.33123e-17 -0.038371 0)
(1.33154e-17 -0.038371 0)
(6.74266e-18 -0.0395768 0)
(6.54849e-18 -0.0395768 0)
(1.4481e-17 -0.0395768 0)
(2.07629e-17 -0.0395768 0)
(2.06372e-17 -0.0395768 0)
(-2.13488e-17 -0.0363437 0)
(4.18127e-18 -0.0363436 0)
(2.97113e-17 -0.0363437 0)
(-1.4854e-17 -0.0395419 0)
(-1.51112e-17 -0.0395419 0)
(-7.26489e-18 -0.0395419 0)
(7.8721e-20 -0.0395419 0)
(8.93716e-18 -0.0395419 0)
(1.77208e-17 -0.0395419 0)
(1.75634e-17 -0.0395419 0)
(4.17456e-18 -0.0338076 0)
(4.17448e-18 -0.0338075 0)
(4.17436e-18 -0.0338076 0)
(-1.46799e-17 -0.0395245 0)
(-1.47038e-17 -0.0395245 0)
(-1.49016e-17 -0.0395245 0)
(-6.67644e-18 -0.0395245 0)
(1.81357e-18 -0.0395245 0)
(9.41442e-18 -0.0395245 0)
(1.64909e-17 -0.0395245 0)
(1.63268e-17 -0.0395245 0)
(7.53647e-19 -0.03483 0)
(7.53612e-19 -0.03483 0)
(7.53485e-19 -0.03483 0)
(-3.21346e-17 -0.0395782 0)
(-3.17586e-17 -0.0395782 0)
(-2.31752e-17 -0.0395782 0)
(-1.52543e-17 -0.0395782 0)
(-6.88625e-18 -0.0395782 0)
(1.63452e-18 -0.0395782 0)
(1.48735e-18 -0.0395782 0)
(6.13415e-19 -0.0395782 0)
(8.87111e-18 -0.0395782 0)
(1.68936e-17 -0.0395782 0)
(2.35916e-17 -0.0395782 0)
(4.93992e-17 -0.0395782 0)
(1.81757e-18 -0.0343369 0)
(1.81753e-18 -0.0343368 0)
(1.81749e-18 -0.0343369 0)
(-9.0697e-18 -0.0389389 0)
(-9.06975e-18 -0.0389389 0)
(-9.06978e-18 -0.0389389 0)
(-2.91671e-17 -0.0349271 0)
(-3.63709e-18 -0.034927 0)
(2.1893e-17 -0.0349271 0)
(-1.80801e-17 -0.0395309 0)
(-1.80848e-17 -0.0395309 0)
(-1.81867e-17 -0.0395309 0)
(-1.79317e-17 -0.0395309 0)
(-9.51083e-18 -0.0395309 0)
(-1.05642e-18 -0.0395309 0)
(6.94396e-18 -0.0395309 0)
(1.38868e-17 -0.0395309 0)
(1.37315e-17 -0.0395309 0)
(1.47983e-19 -0.0351725 0)
(1.47947e-19 -0.0351725 0)
(1.47948e-19 -0.0351725 0)
(5.2933e-19 -0.0396015 0)
(5.55272e-19 -0.0393605 0)
(5.72648e-19 -0.0345848 0)
(5.72653e-19 -0.0345847 0)
(5.72615e-19 -0.0345848 0)
(-6.81032e-18 -0.0398167 0)
(-9.43453e-18 -0.0398353 0)
(-1.18262e-17 -0.0395273 0)
(-1.18263e-17 -0.0395273 0)
(-1.18264e-17 -0.0395273 0)
(-1.78916e-17 -0.039773 0)
(7.43177e-18 -0.039773 0)
(1.99683e-17 -0.039773 0)
(1.93704e-17 -0.039773 0)
(2.78216e-17 -0.0395165 0)
(2.78219e-17 -0.0395165 0)
(2.78218e-17 -0.0395165 0)
(2.89836e-17 -0.0397588 0)
(2.89838e-17 -0.0397588 0)
(2.89837e-17 -0.0397588 0)
(2.89834e-17 -0.0397588 0)
(1.02717e-19 -0.0359825 0)
(1.02658e-19 -0.0359825 0)
(1.02656e-19 -0.0359825 0)
(1.50788e-20 -0.0395377 0)
(1.50784e-20 -0.0395377 0)
(1.50783e-20 -0.0395377 0)
(1.50782e-20 -0.0395377 0)
(1.50781e-20 -0.0395377 0)
(1.5078e-20 -0.0395377 0)
(1.50779e-20 -0.0395377 0)
(1.06786e-23 -0.0345155 0)
(1.06434e-23 -0.0345155 0)
(1.06427e-23 -0.0345155 0)
(1.32172e-27 -0.0395292 0)
(1.28622e-27 -0.0395292 0)
(1.2726e-27 -0.0395292 0)
(1.26309e-27 -0.0395292 0)
(1.25578e-27 -0.0395292 0)
(1.25199e-27 -0.0395292 0)
(1.25187e-27 -0.0395292 0)
(6.4835e-31 -0.0375345 0)
(6.44267e-31 -0.0375345 0)
(6.44184e-31 -0.0375345 0)
(2.63799e-34 -0.0395585 0)
(2.58754e-34 -0.0395585 0)
(2.56968e-34 -0.0395585 0)
(2.55848e-34 -0.0395585 0)
(2.5529e-34 -0.0395585 0)
(2.55211e-34 -0.0395585 0)
(-8.75467e-35 -0.0347355 0)
(-8.75384e-35 -0.0347354 0)
(-8.74445e-35 -0.0347355 0)
(1.10197e-34 -0.0396671 0)
(1.10094e-34 -0.0396671 0)
(1.10174e-34 -0.0396671 0)
(1.10365e-34 -0.0396671 0)
(1.10634e-34 -0.0396671 0)
(1.1094e-34 -0.0396671 0)
(1.11532e-34 -0.0396671 0)
(1.42592e-32 -0.0371498 0)
(1.42587e-32 -0.0371497 0)
(1.42593e-32 -0.0371498 0)
(-7.22976e-32 -0.0395516 0)
(-7.23015e-32 -0.0395516 0)
(-7.23024e-32 -0.0395516 0)
(-7.2302e-32 -0.0395516 0)
(-7.23007e-32 -0.0395516 0)
(-7.2299e-32 -0.0395516 0)
(-7.22942e-32 -0.0395516 0)
(3.03515e-33 -0.0347858 0)
(3.03194e-33 -0.0347857 0)
(3.03897e-33 -0.0347858 0)
(1.00134e-30 -0.0396956 0)
(1.00134e-30 -0.0396956 0)
(1.00134e-30 -0.0396956 0)
(1.00134e-30 -0.0396956 0)
(1.00134e-30 -0.0396956 0)
(1.00134e-30 -0.0396956 0)
(1.00134e-30 -0.0396956 0)
(1.00134e-30 -0.0396956 0)
(1.00134e-30 -0.0396956 0)
)
;

boundaryField
{
    inlet
    {
        type            cyclic;
    }
    outlet
    {
        type            cyclic;
    }
    top
    {
        type            zeroGradient;
    }
    bottom
    {
        type            fixedValue;
        value           uniform (0 0 0);
    }
    frontAndBackPlanes
    {
        type            empty;
    }
}


// ************************************************************************* //
