/*--------------------------------*- C++ -*----------------------------------*\
| =========                 |                                                 |
| \\      /  F ield         | OpenFOAM: The Open Source CFD Toolbox           |
|  \\    /   O peration     | Version:  2206                                  |
|   \\  /    A nd           | Website:  www.openfoam.com                      |
|    \\/     M anipulation  |                                                 |
\*---------------------------------------------------------------------------*/
FoamFile
{
    version     2.0;
    format      ascii;
    arch        "LSB;label=32;scalar=64";
    class       volVectorField;
    location    "140";
    object      U.b;
}
// * * * * * * * * * * * * * * * * * * * * * * * * * * * * * * * * * * * * * //

dimensions      [0 1 -1 0 0 0 0];

internalField   nonuniform List<vector> 
344
(
(-2.2386e-17 1.01446e-05 0)
(-4.90586e-17 -3.31235e-07 0)
(-7.58908e-17 1.06687e-07 0)
(-1.0274e-16 -8.27094e-08 0)
(-1.29471e-16 1.15748e-07 0)
(-1.39468e-16 -7.52869e-08 0)
(-1.49398e-16 1.21141e-07 0)
(-1.59432e-16 -7.09077e-08 0)
(-1.68603e-16 1.23722e-07 0)
(-1.6351e-16 -6.95669e-08 0)
(-1.57572e-16 1.23105e-07 0)
(-1.51817e-16 -7.14324e-08 0)
(-1.46245e-16 1.19409e-07 0)
(-1.40833e-16 -7.61801e-08 0)
(-1.35583e-16 1.13254e-07 0)
(-1.30495e-16 -8.29976e-08 0)
(-1.25568e-16 1.05714e-07 0)
(-1.20803e-16 -9.06722e-08 0)
(-1.16205e-16 9.81699e-08 0)
(-1.11778e-16 -9.77767e-08 0)
(-1.07528e-16 9.20807e-08 0)
(-1.0346e-16 -1.02921e-07 0)
(-9.95782e-17 8.86992e-08 0)
(-9.58882e-17 -1.05054e-07 0)
(-9.23939e-17 8.87693e-08 0)
(-8.90996e-17 -1.03744e-07 0)
(-8.60089e-17 9.22844e-08 0)
(-8.31252e-17 -9.93741e-08 0)
(-8.04511e-17 9.83872e-08 0)
(-7.7989e-17 -9.3148e-08 0)
(-7.57407e-17 1.05498e-07 0)
(-7.37073e-17 -8.68563e-08 0)
(-7.18898e-17 1.1168e-07 0)
(-7.02886e-17 -8.24181e-08 0)
(-6.89034e-17 1.15173e-07 0)
(-6.77338e-17 -8.13223e-08 0)
(-6.67776e-17 1.14913e-07 0)
(-6.60379e-17 -8.41407e-08 0)
(-6.55088e-17 1.10861e-07 0)
(-6.51895e-17 -9.03229e-08 0)
(-6.50783e-17 1.03931e-07 0)
(-6.5173e-17 -9.84509e-08 0)
(-6.54716e-17 9.54764e-08 0)
(-6.59734e-17 -1.06871e-07 0)
(-6.66774e-17 8.6568e-08 0)
(-6.75849e-17 -1.14525e-07 0)
(-6.86994e-17 7.73247e-08 0)
(-7.00256e-17 -1.21557e-07 0)
(-7.15663e-17 6.68262e-08 0)
(-7.33038e-17 -1.29279e-07 0)
(-7.51557e-17 5.3801e-08 0)
(-7.71004e-17 -1.39416e-07 0)
(-7.33255e-17 3.79702e-08 0)
(-6.96322e-17 -1.52754e-07 0)
(-6.60459e-17 2.15321e-08 0)
(-6.26352e-17 -1.67679e-07 0)
(-5.94138e-17 1.01078e-08 0)
(-5.63727e-17 -1.79029e-07 0)
(-5.35009e-17 1.25783e-08 0)
(-5.07895e-17 -1.77625e-07 0)
(-4.82288e-17 3.92296e-08 0)
(-4.58228e-17 -1.51111e-07 0)
(-4.35581e-17 9.74906e-08 0)
(-4.14373e-17 -8.74343e-08 0)
(-3.9455e-17 1.84837e-07 0)
(-3.76106e-17 1.68339e-08 0)
(-3.59023e-17 2.79983e-07 0)
(-3.43303e-17 1.40997e-07 0)
(-3.28852e-17 3.36812e-07 0)
(-3.1578e-17 2.19666e-07 0)
(-3.03938e-17 2.95681e-07 0)
(-2.9347e-17 1.3936e-07 0)
(-2.84278e-17 1.46815e-07 0)
(-2.76341e-17 -1.44916e-07 0)
(-2.69675e-17 6.5341e-08 0)
(-2.6427e-17 -2.16902e-07 0)
(-2.60101e-17 1.63487e-07 0)
(-2.57278e-17 -1.25804e-06 0)
(-2.57409e-17 -5.91261e-06 0)
(-2.35691e-17 0.00730754 0)
(-1.72455e-17 -0.00632951 0)
(-1.24134e-17 0.00486221 0)
(-1.81286e-17 -0.00358536 0)
(-7.16063e-18 0.00264414 0)
(3.46583e-18 -0.00198169 0)
(3.43396e-17 0.00150465 0)
(3.56742e-17 -0.001145 0)
(3.69459e-17 0.000866182 0)
(3.81611e-17 -0.000650065 0)
(5.20732e-17 0.00048514 0)
(4.72102e-17 -0.000361347 0)
(4.25339e-17 0.000269369 0)
(3.27369e-17 -0.00020122 0)
(2.30942e-17 0.000150617 0)
(1.94956e-17 -0.000112887 0)
(1.60648e-17 8.4648e-05 0)
(1.28044e-17 -6.34626e-05 0)
(1.2195e-17 4.75569e-05 0)
(1.17552e-17 -3.56204e-05 0)
(1.00884e-17 2.66718e-05 0)
(8.58258e-18 -1.99706e-05 0)
(7.2338e-18 1.49565e-05 0)
(6.03372e-18 -1.12061e-05 0)
(4.97129e-18 8.40085e-06 0)
(4.0349e-18 -6.30157e-06 0)
(3.21289e-18 4.72961e-06 0)
(2.49356e-18 -3.55164e-06 0)
(1.86541e-18 2.66823e-06 0)
(1.31798e-18 -2.00527e-06 0)
(9.98248e-19 1.50743e-06 0)
(7.39206e-19 -1.13341e-06 0)
(5.31496e-19 8.52294e-07 0)
(3.67236e-19 -6.40959e-07 0)
(2.39329e-19 4.82065e-07 0)
(1.41434e-19 -3.62619e-07 0)
(6.79822e-20 2.72857e-07 0)
(1.41632e-20 -2.05462e-07 0)
(-2.41298e-20 1.54928e-07 0)
(-5.03492e-20 -1.17138e-07 0)
(-5.8188e-20 8.8996e-08 0)
(-6.60837e-20 -6.82088e-08 0)
(-6.89576e-20 5.29255e-08 0)
(-6.83142e-20 -4.01801e-08 0)
(-6.53335e-20 2.97247e-08 0)
(-6.09184e-20 -2.13312e-08 0)
(-5.57457e-20 1.47568e-08 0)
(-5.03092e-20 -9.77249e-09 0)
(-4.41919e-20 6.13603e-09 0)
(-3.83933e-20 -3.61807e-09 0)
(-3.30541e-20 1.98069e-09 0)
(-2.7931e-20 -1.00223e-09 0)
(-2.3374e-20 4.68751e-10 0)
(-1.94559e-20 -2.06978e-10 0)
(-1.60721e-20 8.73999e-11 0)
(-1.31837e-20 -3.64435e-11 0)
(-1.07435e-20 1.48348e-11 0)
(-8.70107e-21 -6.32765e-12 0)
(-7.00604e-21 2.71521e-12 0)
(-5.61027e-21 -9.89223e-13 0)
(-4.46921e-21 5.53523e-13 0)
(-3.54263e-21 -8.05577e-14 0)
(-2.79495e-21 1.90672e-13 0)
(-2.1952e-21 7.98112e-14 0)
(-1.71677e-21 1.19252e-13 0)
(-1.33712e-21 9.96987e-14 0)
(-1.03735e-21 1.13822e-13 0)
(-8.01771e-22 1.09878e-13 0)
(-6.17452e-22 1.08611e-13 0)
(-4.73852e-22 1.04644e-13 0)
(-3.62424e-22 1.02164e-13 0)
(-2.76292e-22 9.60551e-14 0)
(-2.09959e-22 8.71436e-14 0)
(-1.59052e-22 8.26165e-14 0)
(-1.20115e-22 8.35694e-14 0)
(-9.04313e-23 8.11121e-14 0)
(-6.78783e-23 7.72547e-14 0)
(-5.07943e-23 7.29118e-14 0)
(-3.78937e-23 6.91426e-14 0)
(-2.81828e-23 6.30274e-14 0)
(-2.08932e-23 5.56125e-14 0)
(-1.54381e-23 4.87857e-14 0)
(-1.13699e-23 4.3865e-14 0)
(-8.34601e-24 3.67341e-14 0)
(-6.10425e-24 3.02789e-14 0)
(-4.44897e-24 2.13425e-14 0)
(-3.23082e-24 1.68136e-14 0)
(-2.33762e-24 2.95618e-15 0)
(-1.6851e-24 1.47829e-14 0)
(-1.21022e-24 1.06297e-14 0)
(-8.65985e-25 -8.91196e-15 0)
(-6.17458e-25 -3.03523e-15 0)
(-4.3876e-25 -5.39771e-15 0)
(-3.11089e-25 -3.96647e-15 0)
(-2.20382e-25 -4.42728e-15 0)
(-1.55713e-25 -3.82407e-15 0)
(-1.10107e-25 -3.43455e-15 0)
(-7.79499e-26 -3.08554e-15 0)
(-5.55716e-26 -3.06839e-15 0)
(-4.00411e-26 -2.81379e-15 0)
(-2.92623e-26 -2.6213e-15 0)
(-2.18687e-26 -2.39198e-15 0)
(-1.67081e-26 -2.19427e-15 0)
(-1.30822e-26 -1.97248e-15 0)
(-1.05929e-26 -1.73963e-15 0)
(-8.83476e-27 -1.56409e-15 0)
(-7.6094e-27 -1.46419e-15 0)
(-6.69133e-27 -1.34117e-15 0)
(-5.98114e-27 -1.23172e-15 0)
(-5.42012e-27 -1.11885e-15 0)
(-4.94774e-27 -1.0167e-15 0)
(-4.52737e-27 -9.10121e-16 0)
(-4.12091e-27 -8.08891e-16 0)
(-3.73103e-27 -7.03004e-16 0)
(-3.35058e-27 -6.04892e-16 0)
(-3.0058e-27 -4.93941e-16 0)
(-2.69599e-27 -4.0806e-16 0)
(-2.42185e-27 -2.86484e-16 0)
(-2.16445e-27 -2.37973e-16 0)
(-1.91836e-27 -3.98761e-17 0)
(-1.71396e-27 -1.9264e-16 0)
(-1.52345e-27 -1.46946e-16 0)
(-1.33221e-27 9.46005e-17 0)
(-1.16093e-27 -9.51629e-18 0)
(-9.96603e-28 3.31568e-17 0)
(-8.53819e-28 7.56979e-18 0)
(-7.32049e-28 1.57075e-17 0)
(-6.24252e-28 7.0741e-18 0)
(-5.24989e-28 5.30311e-18 0)
(-4.45399e-28 1.46974e-18 0)
(-3.69818e-28 9.05915e-19 0)
(-3.10806e-28 -1.9817e-18 0)
(-2.53376e-28 -2.78592e-18 0)
(-2.08363e-28 -4.06425e-18 0)
(-1.70068e-28 -4.99024e-18 0)
(-1.35783e-28 -5.45972e-18 0)
(-1.11194e-28 -5.47994e-18 0)
(-8.82288e-29 -5.74203e-18 0)
(-6.6962e-29 -6.25548e-18 0)
(-5.29022e-29 -6.54621e-18 0)
(-4.14619e-29 -6.43011e-18 0)
(-3.02451e-29 -6.27121e-18 0)
(-2.32384e-29 -6.11473e-18 0)
(-1.60205e-29 -5.69592e-18 0)
(-1.1111e-29 -5.09407e-18 0)
(-8.65189e-30 -4.52798e-18 0)
(-5.18562e-30 -4.14358e-18 0)
(-2.72373e-30 -3.64538e-18 0)
(-1.02771e-30 -3.11012e-18 0)
(-4.15125e-31 -2.78581e-18 0)
(1.69784e-31 -1.57698e-18 0)
(7.02057e-31 -2.64883e-18 0)
(1.20228e-30 6.93044e-19 0)
(4.07163e-31 1.00829e-18 0)
(7.03364e-31 -1.7483e-18 0)
(4.79964e-31 -8.4547e-20 0)
(3.07111e-31 -7.92614e-19 0)
(1.00068e-31 -5.73806e-19 0)
(-9.20647e-33 -6.12918e-19 0)
(-3.17063e-31 -6.97354e-19 0)
(-4.3988e-31 -8.42597e-19 0)
(-7.37818e-31 -9.77302e-19 0)
(-8.68608e-31 -1.03009e-18 0)
(-1.1556e-30 -1.10461e-18 0)
(-1.35977e-30 -1.16938e-18 0)
(-1.55953e-30 -1.23663e-18 0)
(-1.75595e-30 -1.28703e-18 0)
(-1.88793e-30 -1.31578e-18 0)
(-2.20968e-30 -1.32419e-18 0)
(-2.45963e-30 -1.33562e-18 0)
(-2.45898e-30 -1.34907e-18 0)
(-2.64191e-30 -1.34365e-18 0)
(-2.88353e-30 -1.31582e-18 0)
(-3.06263e-30 -1.27163e-18 0)
(-3.2354e-30 -1.23209e-18 0)
(-3.33512e-30 -1.17847e-18 0)
(-3.55678e-30 -1.1504e-18 0)
(-3.57261e-30 -1.04251e-18 0)
(-3.84484e-30 -9.50993e-19 0)
(-3.91364e-30 -8.79634e-19 0)
(-3.95884e-30 -9.17592e-19 0)
(-4.16893e-30 -1.05631e-18 0)
(-4.20842e-30 -6.74335e-19 0)
(-4.20776e-30 -1.85244e-18 0)
(-4.20885e-30 1.52404e-18 0)
(-4.29081e-30 1.52288e-18 0)
(-4.22749e-30 -1.85578e-18 0)
(-3.7611e-30 -6.80405e-19 0)
(-4.14738e-30 -1.06519e-18 0)
(-4.04574e-30 -9.29585e-19 0)
(-3.84796e-30 -8.94634e-19 0)
(-3.99433e-30 -9.70332e-19 0)
(-3.77646e-30 -1.06649e-18 0)
(-3.72891e-30 -1.17848e-18 0)
(-3.52511e-30 -1.2097e-18 0)
(-3.36987e-30 -1.26798e-18 0)
(-3.19984e-30 -1.31342e-18 0)
(-2.96373e-30 -1.36423e-18 0)
(-2.89503e-30 -1.39861e-18 0)
(-2.70671e-30 -1.41338e-18 0)
(-2.4595e-30 -1.41044e-18 0)
(-2.32863e-30 -1.41084e-18 0)
(-2.14368e-30 -1.4146e-18 0)
(-2.07835e-30 -1.40063e-18 0)
(-1.67247e-30 -1.36706e-18 0)
(-1.62205e-30 -1.31706e-18 0)
(-1.46407e-30 -1.27242e-18 0)
(-1.31505e-30 -1.21487e-18 0)
(-1.17443e-30 -1.18436e-18 0)
(-1.04365e-30 -1.07332e-18 0)
(-9.22957e-31 -9.78362e-19 0)
(-8.12344e-31 -9.03673e-19 0)
(-7.11649e-31 -9.39254e-19 0)
(-6.20599e-31 -1.07587e-18 0)
(-5.38828e-31 -6.91194e-19 0)
(-4.65889e-31 -1.86661e-18 0)
(-4.01268e-31 1.51758e-18 0)
(-3.44406e-31 1.51848e-18 0)
(-2.94707e-31 -1.86534e-18 0)
(-2.51561e-31 -6.9075e-19 0)
(-2.1435e-31 -1.07994e-18 0)
(-1.82457e-31 -9.47204e-19 0)
(-1.55273e-31 -9.17682e-19 0)
(-1.32197e-31 -1.0038e-18 0)
(-1.12642e-31 -1.11678e-18 0)
(-9.60329e-32 -1.23912e-18 0)
(-8.18037e-32 -1.277e-18 0)
(-6.93968e-32 -1.34994e-18 0)
(-5.82597e-32 -1.42016e-18 0)
(-4.78414e-32 -1.49854e-18 0)
(-3.75892e-32 -1.56214e-18 0)
(-2.6946e-32 -1.62087e-18 0)
(-1.53481e-32 -1.66882e-18 0)
(-2.22392e-33 -1.72647e-18 0)
(1.30064e-32 -1.79053e-18 0)
(3.09301e-32 -1.8418e-18 0)
(5.21386e-32 -1.86999e-18 0)
(7.72217e-32 -1.89625e-18 0)
(1.06758e-31 -1.9183e-18 0)
(1.41304e-31 -1.92137e-18 0)
(1.8138e-31 -1.90724e-18 0)
(2.27461e-31 -1.90708e-18 0)
(2.79963e-31 -1.92052e-18 0)
(3.39214e-31 -1.91653e-18 0)
(4.05371e-31 -1.89263e-18 0)
(4.775e-31 -1.86474e-18 0)
(5.55595e-31 -1.83438e-18 0)
(5.94635e-31 -1.77977e-18 0)
(7.25779e-31 -1.71054e-18 0)
(8.16388e-31 -1.64913e-18 0)
(9.1e-31 -1.59779e-18 0)
(1.00515e-30 -1.5335e-18 0)
(1.10129e-30 -1.46122e-18 0)
(1.19676e-30 -1.37371e-18 0)
(1.28964e-30 -1.29374e-18 0)
(1.37768e-30 -1.20803e-18 0)
(1.45801e-30 -1.15695e-18 0)
(1.52685e-30 -1.01454e-18 0)
(1.57928e-30 -8.77523e-19 0)
(1.61012e-30 -7.67179e-19 0)
(1.61725e-30 -7.83281e-19 0)
(1.60771e-30 -8.88868e-19 0)
(1.5952e-30 -4.7658e-19 0)
(1.55575e-30 -1.65979e-18 0)
(1.71623e-30 1.48811e-18 0)
)
;

boundaryField
{
    inlet
    {
        type            cyclic;
    }
    outlet
    {
        type            cyclic;
    }
    top
    {
        type            zeroGradient;
    }
    bottom
    {
        type            fixedValue;
        value           uniform (0 0 0);
    }
    frontAndBackPlanes
    {
        type            empty;
    }
}


// ************************************************************************* //
