/*--------------------------------*- C++ -*----------------------------------*\
| =========                 |                                                 |
| \\      /  F ield         | OpenFOAM: The Open Source CFD Toolbox           |
|  \\    /   O peration     | Version:  2206                                  |
|   \\  /    A nd           | Website:  www.openfoam.com                      |
|    \\/     M anipulation  |                                                 |
\*---------------------------------------------------------------------------*/
FoamFile
{
    version     2.0;
    format      ascii;
    arch        "LSB;label=32;scalar=64";
    class       volScalarField;
    location    "1300";
    object      nuFra;
}
// * * * * * * * * * * * * * * * * * * * * * * * * * * * * * * * * * * * * * //

dimensions      [0 2 -1 0 0 0 0];

internalField   nonuniform List<scalar> 
120
(
1
1
1
1
1
1
1
1
1
1
1
1
1
1
1
1
1
1
1
1
1
1
1
1
1
1
1
1
1
1
1
1
1
1
1
1
1
1
1
1
1
1
1
1
1
1
1
1
1
1
1
1
1
1
1
1
1
1
1
1
1
1
1
1
1
1
1
1
1
1
1
1
1
1
1
1
1
1
1
1
1
1
1
0.911444
0.321853
0.273615
1
3.0061e-08
1.2497e-08
9.60695e-10
5.25386e-06
1.54494e-09
3.35095e-09
1.41699e-09
5.36325e-09
5.97177e-08
1.52349e-06
7.03264e-07
4.65337e-07
4.52252e-07
2.47442e-07
1.35338e-07
1.08348e-07
1.33809e-07
2.48101e-07
6.49647e-07
2.15306e-06
7.70225e-06
2.5968e-05
7.56053e-05
0.00016835
0.000260934
0.000303452
0.000284677
0.000195173
7.26335e-05
1.33391e-05
1.32133e-06
6.1001e-08
4.76657e-10
)
;

boundaryField
{
    inlet
    {
        type            cyclic;
    }
    outlet
    {
        type            cyclic;
    }
    top
    {
        type            calculated;
        value           uniform 2.40125e-10;
    }
    bottom
    {
        type            calculated;
        value           uniform 1;
    }
    frontAndBackPlanes
    {
        type            empty;
    }
}


// ************************************************************************* //
