/*--------------------------------*- C++ -*----------------------------------*\
| =========                 |                                                 |
| \\      /  F ield         | OpenFOAM: The Open Source CFD Toolbox           |
|  \\    /   O peration     | Version:  2206                                  |
|   \\  /    A nd           | Website:  www.openfoam.com                      |
|    \\/     M anipulation  |                                                 |
\*---------------------------------------------------------------------------*/
FoamFile
{
    version     2.0;
    format      ascii;
    arch        "LSB;label=32;scalar=64";
    class       volScalarField;
    location    "1300";
    object      pff;
}
// * * * * * * * * * * * * * * * * * * * * * * * * * * * * * * * * * * * * * //

dimensions      [1 -1 -2 0 0 0 0];

internalField   nonuniform List<scalar> 
120
(
23.0309
22.4969
22.5001
21.9215
21.9089
21.3425
21.3188
20.7657
20.73
20.1909
20.1425
19.6181
19.5564
19.0475
18.9719
18.4788
18.3891
17.9121
17.8081
17.3473
17.2289
16.7845
16.6519
16.2235
16.077
15.6645
15.5044
15.1073
14.9343
14.552
14.3667
13.9986
13.8019
13.4471
13.2398
12.8976
12.6807
12.3501
12.1246
11.8046
11.5717
11.2613
11.022
10.7202
10.4756
10.1816
9.93264
9.64538
9.39317
9.11188
8.8573
8.58124
8.32516
8.05367
7.79685
7.52938
7.27249
7.00858
6.75219
6.49147
6.23607
5.97825
5.72422
5.46912
5.21681
4.96436
4.7141
4.46433
4.21645
3.96949
3.72432
3.48034
3.23809
2.99717
2.75777
2.51968
2.28261
2.04642
1.81035
1.57439
1.33415
1.08637
0.847404
0.633076
0.43763
0.294323
0.224805
0
0
0
0.00525454
0
0
0
0
0
0
0
0
0
0
0
0
0
0
0
0
0
0
0
0
0
0
0
0
0
0
0
0
0
)
;

boundaryField
{
    inlet
    {
        type            cyclic;
    }
    outlet
    {
        type            cyclic;
    }
    top
    {
        type            calculated;
        value           uniform 0;
    }
    bottom
    {
        type            calculated;
        value           uniform 23.0309;
    }
    frontAndBackPlanes
    {
        type            empty;
    }
}


// ************************************************************************* //
