/*--------------------------------*- C++ -*----------------------------------*\
| =========                 |                                                 |
| \\      /  F ield         | OpenFOAM: The Open Source CFD Toolbox           |
|  \\    /   O peration     | Version:  2206                                  |
|   \\  /    A nd           | Website:  www.openfoam.com                      |
|    \\/     M anipulation  |                                                 |
\*---------------------------------------------------------------------------*/
FoamFile
{
    version     2.0;
    format      ascii;
    arch        "LSB;label=32;scalar=64";
    class       surfaceScalarField;
    location    "1300";
    object      phi.b;
}
// * * * * * * * * * * * * * * * * * * * * * * * * * * * * * * * * * * * * * //

dimensions      [0 3 -1 0 0 0 0];

oriented        oriented;

internalField   nonuniform List<scalar> 
119
(
1.38331e-15
2.79842e-15
4.21436e-15
5.66487e-15
7.11896e-15
8.60703e-15
1.01012e-14
1.16286e-14
1.3165e-14
1.47336e-14
1.63141e-14
1.79257e-14
1.95523e-14
2.12091e-14
2.28848e-14
2.45896e-14
2.63166e-14
2.80714e-14
2.9852e-14
3.16597e-14
3.34976e-14
3.53618e-14
3.726e-14
3.91837e-14
4.11459e-14
4.31336e-14
4.51639e-14
4.72196e-14
4.93223e-14
5.14515e-14
5.36321e-14
5.58398e-14
5.8103e-14
6.03953e-14
6.27476e-14
6.51309e-14
6.75781e-14
7.00595e-14
7.2609e-14
7.51958e-14
7.78548e-14
8.05556e-14
8.3333e-14
8.61576e-14
8.90641e-14
9.20242e-14
9.50714e-14
9.81809e-14
1.01384e-13
1.0466e-13
1.08037e-13
1.11498e-13
1.15069e-13
1.18737e-13
1.22526e-13
1.26424e-13
1.30454e-13
1.34608e-13
1.38906e-13
1.43344e-13
1.47942e-13
1.527e-13
1.57639e-13
1.62767e-13
1.68111e-13
1.73689e-13
1.79534e-13
1.85677e-13
1.92161e-13
1.99027e-13
2.06325e-13
2.14101e-13
2.224e-13
2.31267e-13
2.40736e-13
2.50846e-13
2.61645e-13
2.73225e-13
2.8575e-13
2.99677e-13
3.16251e-13
3.3691e-13
3.61731e-13
3.98761e-13
4.68684e-13
5.22908e-13
5.18585e-13
1.6011e-12
2.08291e-12
1.75793e-12
8.17725e-12
1.10646e-12
1.83569e-15
2.08645e-16
2.17645e-17
-4.88053e-20
-2.76923e-19
1.04287e-19
3.15238e-19
-5.10537e-20
-1.84255e-19
4.86168e-20
4.54339e-20
3.31847e-20
1.67746e-19
-2.10173e-20
-1.78289e-19
-5.30624e-21
-1.22487e-19
-1.72014e-19
1.15186e-19
1.13931e-19
2.5775e-19
2.69122e-19
-1.72613e-19
-1.69988e-19
-4.47148e-19
-9.3826e-21
1.02009e-19
)
;

boundaryField
{
    inlet
    {
        type            cyclic;
        value           nonuniform List<scalar> 
120
(
-2.65228e-27
-7.96221e-27
-1.32881e-26
-1.86278e-26
-2.40001e-26
-2.94101e-26
-3.48846e-26
-4.0376e-26
-4.59245e-26
-5.15947e-26
-5.73208e-26
-6.31021e-26
-6.90506e-26
-7.50724e-26
-8.12104e-26
-8.74738e-26
-9.38719e-26
-1.00414e-25
-1.0711e-25
-1.1397e-25
-1.21002e-25
-1.28217e-25
-1.35624e-25
-1.42931e-25
-1.51067e-25
-1.59125e-25
-1.6759e-25
-1.75943e-25
-1.84727e-25
-1.94179e-25
-2.03509e-25
-2.12678e-25
-2.22559e-25
-2.32746e-25
-2.4325e-25
-2.53526e-25
-2.64462e-25
-2.76814e-25
-2.87326e-25
-3.01071e-25
-3.11642e-25
-3.25639e-25
-3.3816e-25
-3.51718e-25
-3.65017e-25
-3.8161e-25
-3.95034e-25
-4.1112e-25
-4.24543e-25
-4.42457e-25
-4.593e-25
-4.76666e-25
-4.94582e-25
-5.13067e-25
-5.3119e-25
-5.51892e-25
-5.72291e-25
-5.93385e-25
-6.17423e-25
-6.37911e-25
-6.61426e-25
-6.85839e-25
-7.11209e-25
-7.37622e-25
-7.67773e-25
-7.91028e-25
-8.23763e-25
-8.55178e-25
-8.88076e-25
-9.22592e-25
-9.62056e-25
-9.96742e-25
-1.03657e-24
-1.0784e-24
-1.12223e-24
-1.16803e-24
-1.21562e-24
-1.26461e-24
-1.31436e-24
-1.36391e-24
-1.41222e-24
-1.45907e-24
-1.50654e-24
-1.56281e-24
-1.66828e-24
-1.91234e-24
-1.98016e-24
-2.13267e-24
-2.29797e-23
-2.21502e-23
-2.01406e-23
-1.98139e-23
-1.90239e-23
-1.81062e-23
-1.72224e-23
-1.63612e-23
-1.55236e-23
-1.47078e-23
-1.39125e-23
-1.31364e-23
-1.2379e-23
-1.16392e-23
-1.09164e-23
-1.02097e-23
-9.5182e-24
-8.84095e-24
-8.17696e-24
-7.52518e-24
-6.88454e-24
-6.25398e-24
-5.63248e-24
-5.019e-24
-4.41258e-24
-3.81228e-24
-3.21718e-24
-2.62643e-24
-2.03918e-24
-1.45463e-24
-8.71997e-25
-2.90503e-25
)
;
    }
    outlet
    {
        type            cyclic;
        value           nonuniform List<scalar> 
120
(
2.65228e-27
7.96221e-27
1.32881e-26
1.86278e-26
2.40001e-26
2.94101e-26
3.48846e-26
4.0376e-26
4.59245e-26
5.15947e-26
5.73208e-26
6.31021e-26
6.90506e-26
7.50724e-26
8.12104e-26
8.74738e-26
9.38719e-26
1.00414e-25
1.0711e-25
1.1397e-25
1.21002e-25
1.28217e-25
1.35624e-25
1.42931e-25
1.51067e-25
1.59125e-25
1.6759e-25
1.75943e-25
1.84727e-25
1.94179e-25
2.03509e-25
2.12678e-25
2.22559e-25
2.32746e-25
2.4325e-25
2.53526e-25
2.64462e-25
2.76814e-25
2.87326e-25
3.01071e-25
3.11642e-25
3.25639e-25
3.3816e-25
3.51718e-25
3.65017e-25
3.8161e-25
3.95034e-25
4.1112e-25
4.24543e-25
4.42457e-25
4.593e-25
4.76666e-25
4.94582e-25
5.13067e-25
5.3119e-25
5.51892e-25
5.72291e-25
5.93385e-25
6.17423e-25
6.37911e-25
6.61426e-25
6.85839e-25
7.11209e-25
7.37622e-25
7.67773e-25
7.91028e-25
8.23763e-25
8.55178e-25
8.88076e-25
9.22592e-25
9.62056e-25
9.96742e-25
1.03657e-24
1.0784e-24
1.12223e-24
1.16803e-24
1.21562e-24
1.26461e-24
1.31436e-24
1.36391e-24
1.41222e-24
1.45907e-24
1.50654e-24
1.56281e-24
1.66828e-24
1.91234e-24
1.98016e-24
2.13267e-24
2.29797e-23
2.21502e-23
2.01406e-23
1.98139e-23
1.90239e-23
1.81062e-23
1.72224e-23
1.63612e-23
1.55236e-23
1.47078e-23
1.39125e-23
1.31364e-23
1.2379e-23
1.16392e-23
1.09164e-23
1.02097e-23
9.5182e-24
8.84095e-24
8.17696e-24
7.52518e-24
6.88454e-24
6.25398e-24
5.63248e-24
5.019e-24
4.41258e-24
3.81228e-24
3.21718e-24
2.62643e-24
2.03918e-24
1.45463e-24
8.71997e-25
2.90503e-25
)
;
    }
    top
    {
        type            fixedValue;
        value           uniform 0;
    }
    bottom
    {
        type            fixedValue;
        value           uniform 0;
    }
    frontAndBackPlanes
    {
        type            empty;
        value           nonuniform List<scalar> 0();
    }
}


// ************************************************************************* //
