/*--------------------------------*- C++ -*----------------------------------*\
| =========                 |                                                 |
| \\      /  F ield         | OpenFOAM: The Open Source CFD Toolbox           |
|  \\    /   O peration     | Version:  2206                                  |
|   \\  /    A nd           | Website:  www.openfoam.com                      |
|    \\/     M anipulation  |                                                 |
\*---------------------------------------------------------------------------*/
FoamFile
{
    version     2.0;
    format      ascii;
    arch        "LSB;label=32;scalar=64";
    class       surfaceScalarField;
    location    "1300";
    object      phi.a;
}
// * * * * * * * * * * * * * * * * * * * * * * * * * * * * * * * * * * * * * //

dimensions      [0 3 -1 0 0 0 0];

oriented        oriented;

internalField   nonuniform List<scalar> 
119
(
-9.24076e-16
-1.86981e-15
-2.81658e-15
-3.78693e-15
-4.7601e-15
-5.75647e-15
-6.7574e-15
-7.78103e-15
-8.81111e-15
-9.86333e-15
-1.09241e-14
-1.20063e-14
-1.30992e-14
-1.4213e-14
-1.53399e-14
-1.64869e-14
-1.76494e-14
-1.88315e-14
-2.00317e-14
-2.12508e-14
-2.24908e-14
-2.37493e-14
-2.50315e-14
-2.63318e-14
-2.76588e-14
-2.90039e-14
-3.03785e-14
-3.17715e-14
-3.31971e-14
-3.46416e-14
-3.61216e-14
-3.76215e-14
-3.91599e-14
-4.07194e-14
-4.23204e-14
-4.39441e-14
-4.56123e-14
-4.73052e-14
-4.90455e-14
-5.08131e-14
-5.26312e-14
-5.44797e-14
-5.63818e-14
-5.83182e-14
-6.0312e-14
-6.23448e-14
-6.4439e-14
-6.65783e-14
-6.87839e-14
-7.10416e-14
-7.33716e-14
-7.57617e-14
-7.82308e-14
-8.07692e-14
-8.3394e-14
-8.60979e-14
-8.88964e-14
-9.17846e-14
-9.47766e-14
-9.78702e-14
-1.01079e-13
-1.04405e-13
-1.07862e-13
-1.11458e-13
-1.1521e-13
-1.19133e-13
-1.23251e-13
-1.27586e-13
-1.3217e-13
-1.37033e-13
-1.42211e-13
-1.47739e-13
-1.53653e-13
-1.59986e-13
-1.6677e-13
-1.74036e-13
-1.81829e-13
-1.90224e-13
-1.99351e-13
-2.09559e-13
-2.21771e-13
-2.37056e-13
-2.55516e-13
-2.82972e-13
-3.34294e-13
-3.74554e-13
-3.9326e-13
-1.35452e-12
-1.98869e-12
-1.53003e-12
-1.57543e-11
-1.91852e-11
-4.37e-11
-9.06392e-11
-8.12426e-11
-8.04618e-11
-8.04972e-11
-8.05474e-11
-8.06246e-11
-8.07208e-11
-8.08804e-11
-8.11632e-11
-8.15171e-11
-8.18055e-11
-8.19622e-11
-8.20223e-11
-8.20405e-11
-8.20456e-11
-8.20471e-11
-8.20476e-11
-8.20478e-11
-8.20479e-11
-8.20479e-11
-8.20478e-11
-8.20477e-11
-8.20471e-11
-8.20442e-11
-8.20149e-11
-8.13789e-11
)
;

boundaryField
{
    inlet
    {
        type            cyclic;
        value           nonuniform List<scalar> 
120
(
-2.65228e-27
-7.9622e-27
-1.32846e-26
-1.86277e-26
-2.40001e-26
-2.941e-26
-3.4866e-26
-4.0376e-26
-4.59492e-26
-5.15948e-26
-5.73209e-26
-6.31363e-26
-6.90508e-26
-7.50724e-26
-8.12104e-26
-8.74738e-26
-9.38719e-26
-1.00414e-25
-1.0711e-25
-1.1397e-25
-1.21002e-25
-1.28217e-25
-1.35626e-25
-1.43237e-25
-1.51069e-25
-1.59124e-25
-1.67413e-25
-1.75942e-25
-1.84725e-25
-1.93774e-25
-2.03088e-25
-2.12676e-25
-2.22559e-25
-2.32747e-25
-2.43252e-25
-2.54039e-25
-2.64992e-25
-2.76268e-25
-2.87889e-25
-2.99893e-25
-3.12246e-25
-3.25008e-25
-3.38157e-25
-3.51721e-25
-3.65713e-25
-3.80162e-25
-3.95025e-25
-4.10352e-25
-4.2614e-25
-4.42464e-25
-4.593e-25
-4.76666e-25
-4.94582e-25
-5.13071e-25
-5.32158e-25
-5.51896e-25
-5.72291e-25
-5.93375e-25
-6.15226e-25
-6.37901e-25
-6.61426e-25
-6.85839e-25
-7.11209e-25
-7.3761e-25
-7.65123e-25
-7.93767e-25
-8.23776e-25
-8.55178e-25
-8.88076e-25
-9.22578e-25
-9.58787e-25
-9.96727e-25
-1.03657e-24
-1.0784e-24
-1.12223e-24
-1.16803e-24
-1.21562e-24
-1.26461e-24
-1.31436e-24
-1.36391e-24
-1.41222e-24
-1.45907e-24
-1.50653e-24
-1.56263e-24
-1.66763e-24
-1.89662e-24
-1.97942e-24
-2.00031e-24
-2.29804e-23
-2.21493e-23
-2.01403e-23
-1.98187e-23
-1.89711e-23
-1.55031e-23
-8.8283e-24
-7.67888e-24
-7.59989e-24
-7.43899e-24
-7.09485e-24
-6.71691e-24
-6.27504e-24
-5.33995e-24
-3.71045e-24
-1.97988e-24
-8.4711e-25
-3.55256e-25
-1.95433e-25
-1.49307e-25
-1.35505e-25
-1.30833e-25
-1.28919e-25
-1.27942e-25
-1.27359e-25
-1.26993e-25
-1.26771e-25
-1.26653e-25
-1.26633e-25
-1.26844e-25
-1.28011e-25
-1.31184e-25
)
;
    }
    outlet
    {
        type            cyclic;
        value           nonuniform List<scalar> 
120
(
2.65228e-27
7.9622e-27
1.32846e-26
1.86277e-26
2.40001e-26
2.941e-26
3.4866e-26
4.0376e-26
4.59492e-26
5.15948e-26
5.73209e-26
6.31363e-26
6.90508e-26
7.50724e-26
8.12104e-26
8.74738e-26
9.38719e-26
1.00414e-25
1.0711e-25
1.1397e-25
1.21002e-25
1.28217e-25
1.35626e-25
1.43237e-25
1.51069e-25
1.59124e-25
1.67413e-25
1.75942e-25
1.84725e-25
1.93774e-25
2.03088e-25
2.12676e-25
2.22559e-25
2.32747e-25
2.43252e-25
2.54039e-25
2.64992e-25
2.76268e-25
2.87889e-25
2.99893e-25
3.12246e-25
3.25008e-25
3.38157e-25
3.51721e-25
3.65713e-25
3.80162e-25
3.95025e-25
4.10352e-25
4.2614e-25
4.42464e-25
4.593e-25
4.76666e-25
4.94582e-25
5.13071e-25
5.32158e-25
5.51896e-25
5.72291e-25
5.93375e-25
6.15226e-25
6.37901e-25
6.61426e-25
6.85839e-25
7.11209e-25
7.3761e-25
7.65123e-25
7.93767e-25
8.23776e-25
8.55178e-25
8.88076e-25
9.22578e-25
9.58787e-25
9.96727e-25
1.03657e-24
1.0784e-24
1.12223e-24
1.16803e-24
1.21562e-24
1.26461e-24
1.31436e-24
1.36391e-24
1.41222e-24
1.45907e-24
1.50653e-24
1.56263e-24
1.66763e-24
1.89662e-24
1.97942e-24
2.00031e-24
2.29804e-23
2.21493e-23
2.01403e-23
1.98187e-23
1.89711e-23
1.55031e-23
8.8283e-24
7.67888e-24
7.59989e-24
7.43899e-24
7.09485e-24
6.71691e-24
6.27504e-24
5.33995e-24
3.71045e-24
1.97988e-24
8.4711e-25
3.55256e-25
1.95433e-25
1.49307e-25
1.35505e-25
1.30833e-25
1.28919e-25
1.27942e-25
1.27359e-25
1.26993e-25
1.26771e-25
1.26653e-25
1.26633e-25
1.26844e-25
1.28011e-25
1.31184e-25
)
;
    }
    top
    {
        type            fixedValue;
        value           uniform 0;
    }
    bottom
    {
        type            fixedValue;
        value           uniform 0;
    }
    frontAndBackPlanes
    {
        type            empty;
        value           nonuniform List<scalar> 0();
    }
}


// ************************************************************************* //
