/*--------------------------------*- C++ -*----------------------------------*\
| =========                 |                                                 |
| \\      /  F ield         | OpenFOAM: The Open Source CFD Toolbox           |
|  \\    /   O peration     | Version:  2206                                  |
|   \\  /    A nd           | Website:  www.openfoam.com                      |
|    \\/     M anipulation  |                                                 |
\*---------------------------------------------------------------------------*/
FoamFile
{
    version     2.0;
    format      ascii;
    arch        "LSB;label=32;scalar=64";
    class       volVectorField;
    location    "1300";
    object      U.a;
}
// * * * * * * * * * * * * * * * * * * * * * * * * * * * * * * * * * * * * * //

dimensions      [0 1 -1 0 0 0 0];

internalField   nonuniform List<vector> 
120
(
(8.84092e-21 1.43928e-08 0)
(2.65407e-20 -3.56776e-09 0)
(4.4282e-20 -6.82003e-09 0)
(6.20925e-20 -8.82713e-09 0)
(8.00003e-20 -1.22113e-08 0)
(9.80334e-20 -1.42331e-08 0)
(1.1622e-19 -1.77472e-08 0)
(1.34587e-19 -1.97933e-08 0)
(1.53164e-19 -2.34345e-08 0)
(1.71983e-19 -2.55155e-08 0)
(1.9107e-19 -2.92806e-08 0)
(2.10454e-19 -3.14081e-08 0)
(2.30169e-19 -3.52933e-08 0)
(2.50241e-19 -3.74797e-08 0)
(2.70701e-19 -4.14812e-08 0)
(2.91579e-19 -4.37398e-08 0)
(3.12906e-19 -4.78536e-08 0)
(3.34714e-19 -5.01983e-08 0)
(3.57034e-19 -5.44207e-08 0)
(3.79899e-19 -5.6866e-08 0)
(4.0334e-19 -6.11936e-08 0)
(4.27391e-19 -6.3755e-08 0)
(4.52085e-19 -6.81851e-08 0)
(4.77455e-19 -7.08781e-08 0)
(5.03563e-19 -7.54091e-08 0)
(5.30414e-19 -7.82502e-08 0)
(5.58045e-19 -8.28816e-08 0)
(5.86473e-19 -8.58873e-08 0)
(6.15751e-19 -9.06203e-08 0)
(6.45913e-19 -9.38075e-08 0)
(6.76959e-19 -9.86448e-08 0)
(7.0892e-19 -1.0203e-07 0)
(7.41864e-19 -1.06977e-07 0)
(7.75822e-19 -1.10578e-07 0)
(8.1084e-19 -1.1564e-07 0)
(8.46798e-19 -1.19473e-07 0)
(8.83308e-19 -1.2466e-07 0)
(9.20893e-19 -1.28741e-07 0)
(9.59631e-19 -1.34064e-07 0)
(9.99645e-19 -1.38411e-07 0)
(1.04082e-18 -1.43883e-07 0)
(1.08336e-18 -1.48512e-07 0)
(1.12719e-18 -1.54152e-07 0)
(1.1724e-18 -1.5908e-07 0)
(1.21904e-18 -1.64909e-07 0)
(1.26721e-18 -1.70156e-07 0)
(1.31675e-18 -1.76202e-07 0)
(1.36784e-18 -1.81792e-07 0)
(1.42047e-18 -1.88086e-07 0)
(1.47488e-18 -1.94046e-07 0)
(1.531e-18 -2.00628e-07 0)
(1.58889e-18 -2.0699e-07 0)
(1.64861e-18 -2.13906e-07 0)
(1.71024e-18 -2.20708e-07 0)
(1.77386e-18 -2.28008e-07 0)
(1.83965e-18 -2.35291e-07 0)
(1.90764e-18 -2.43029e-07 0)
(1.97792e-18 -2.50838e-07 0)
(2.05075e-18 -2.59074e-07 0)
(2.12634e-18 -2.6746e-07 0)
(2.20475e-18 -2.7626e-07 0)
(2.28613e-18 -2.85288e-07 0)
(2.3707e-18 -2.94736e-07 0)
(2.4587e-18 -3.04495e-07 0)
(2.55041e-18 -3.14712e-07 0)
(2.64589e-18 -3.25341e-07 0)
(2.74592e-18 -3.36507e-07 0)
(2.85059e-18 -3.48217e-07 0)
(2.96025e-18 -3.6059e-07 0)
(3.07526e-18 -3.73681e-07 0)
(3.19596e-18 -3.87606e-07 0)
(3.32242e-18 -4.02446e-07 0)
(3.45524e-18 -4.18318e-07 0)
(3.59466e-18 -4.35301e-07 0)
(3.74078e-18 -4.53503e-07 0)
(3.89344e-18 -4.72989e-07 0)
(4.05206e-18 -4.93871e-07 0)
(4.21538e-18 -5.16282e-07 0)
(4.38121e-18 -5.40504e-07 0)
(4.54635e-18 -5.66986e-07 0)
(4.70741e-18 -5.97197e-07 0)
(4.86357e-18 -6.34813e-07 0)
(5.02175e-18 -6.82112e-07 0)
(5.20878e-18 -7.37155e-07 0)
(5.55876e-18 -8.33012e-07 0)
(6.32206e-18 -1.02481e-06 0)
(6.59808e-18 -1.05977e-06 0)
(6.66772e-18 -1.05257e-06 0)
(7.66015e-17 -8.41875e-06 0)
(7.3831e-17 1.61461e-05 0)
(6.71345e-17 -0.000233508 0)
(6.60623e-17 -0.000194112 0)
(6.3237e-17 0.000109458 0)
(5.16769e-17 -0.000270994 0)
(2.94277e-17 -0.000228065 0)
(2.55963e-17 -0.000223454 0)
(2.5333e-17 -0.000223558 0)
(2.47966e-17 -0.000223648 0)
(2.36495e-17 -0.000223837 0)
(2.23897e-17 -0.000224077 0)
(2.09168e-17 -0.000224372 0)
(1.77998e-17 -0.000224964 0)
(1.23682e-17 -0.000225943 0)
(6.59962e-18 -0.00022693 0)
(2.8237e-18 -0.000227545 0)
(1.18419e-18 -0.0002278 0)
(6.51445e-19 -0.000227879 0)
(4.97692e-19 -0.000227901 0)
(4.51682e-19 -0.000227908 0)
(4.36111e-19 -0.00022791 0)
(4.29731e-19 -0.00022791 0)
(4.26473e-19 -0.000227911 0)
(4.24529e-19 -0.000227911 0)
(4.2331e-19 -0.000227911 0)
(4.22571e-19 -0.00022791 0)
(4.22177e-19 -0.00022791 0)
(4.22111e-19 -0.000227908 0)
(4.22812e-19 -0.000227894 0)
(4.26702e-19 -0.000227744 0)
(4.37279e-19 -0.000224361 0)
)
;

boundaryField
{
    inlet
    {
        type            cyclic;
    }
    outlet
    {
        type            cyclic;
    }
    top
    {
        type            fixedValue;
        value           uniform (0 0 0);
    }
    bottom
    {
        type            fixedValue;
        value           uniform (0 0 0);
    }
    frontAndBackPlanes
    {
        type            empty;
    }
}


// ************************************************************************* //
