/*--------------------------------*- C++ -*----------------------------------*\
| =========                 |                                                 |
| \\      /  F ield         | OpenFOAM: The Open Source CFD Toolbox           |
|  \\    /   O peration     | Version:  2206                                  |
|   \\  /    A nd           | Website:  www.openfoam.com                      |
|    \\/     M anipulation  |                                                 |
\*---------------------------------------------------------------------------*/
FoamFile
{
    version     2.0;
    format      ascii;
    arch        "LSB;label=32;scalar=64";
    class       volVectorField;
    location    "1300";
    object      U.b;
}
// * * * * * * * * * * * * * * * * * * * * * * * * * * * * * * * * * * * * * //

dimensions      [0 1 -1 0 0 0 0];

internalField   nonuniform List<vector> 
120
(
(8.84093e-21 1.73247e-08 0)
(2.65407e-20 6.13621e-09 0)
(4.42936e-20 9.41513e-09 0)
(6.20925e-20 1.40641e-08 0)
(8.00003e-20 1.74102e-08 0)
(9.80337e-20 2.22183e-08 0)
(1.16282e-19 2.56085e-08 0)
(1.34587e-19 3.05861e-08 0)
(1.53082e-19 3.40337e-08 0)
(1.71982e-19 3.91794e-08 0)
(1.91069e-19 4.26971e-08 0)
(2.1034e-19 4.80083e-08 0)
(2.30169e-19 5.16095e-08 0)
(2.50241e-19 5.70835e-08 0)
(2.70701e-19 6.0784e-08 0)
(2.91579e-19 6.64196e-08 0)
(3.12906e-19 7.0236e-08 0)
(3.34714e-19 7.603e-08 0)
(3.57034e-19 7.99775e-08 0)
(3.79899e-19 8.59273e-08 0)
(4.0334e-19 9.00251e-08 0)
(4.27391e-19 9.61308e-08 0)
(4.52081e-19 1.00398e-07 0)
(4.76437e-19 1.06658e-07 0)
(5.03558e-19 1.11113e-07 0)
(5.30417e-19 1.1753e-07 0)
(5.58633e-19 1.22195e-07 0)
(5.86476e-19 1.2877e-07 0)
(6.15757e-19 1.33665e-07 0)
(6.47262e-19 1.40404e-07 0)
(6.78364e-19 1.45551e-07 0)
(7.08926e-19 1.52462e-07 0)
(7.41864e-19 1.57882e-07 0)
(7.75822e-19 1.64972e-07 0)
(8.10832e-19 1.7069e-07 0)
(8.45085e-19 1.77972e-07 0)
(8.81539e-19 1.84008e-07 0)
(9.22712e-19 1.91496e-07 0)
(9.57754e-19 1.97874e-07 0)
(1.00357e-18 2.05586e-07 0)
(1.03881e-18 2.12328e-07 0)
(1.08546e-18 2.20285e-07 0)
(1.1272e-18 2.27415e-07 0)
(1.17239e-18 2.35643e-07 0)
(1.21672e-18 2.43189e-07 0)
(1.27203e-18 2.51722e-07 0)
(1.31678e-18 2.59714e-07 0)
(1.3704e-18 2.68589e-07 0)
(1.41514e-18 2.77065e-07 0)
(1.47486e-18 2.86332e-07 0)
(1.531e-18 2.95332e-07 0)
(1.58889e-18 3.05048e-07 0)
(1.64861e-18 3.14624e-07 0)
(1.71022e-18 3.24852e-07 0)
(1.77063e-18 3.3506e-07 0)
(1.83964e-18 3.4587e-07 0)
(1.90764e-18 3.56769e-07 0)
(1.97795e-18 3.68236e-07 0)
(2.05808e-18 3.79893e-07 0)
(2.12637e-18 3.921e-07 0)
(2.20475e-18 4.04593e-07 0)
(2.28613e-18 4.1764e-07 0)
(2.3707e-18 4.31071e-07 0)
(2.45874e-18 4.45093e-07 0)
(2.55924e-18 4.59618e-07 0)
(2.63676e-18 4.74818e-07 0)
(2.74588e-18 4.90678e-07 0)
(2.85059e-18 5.07355e-07 0)
(2.96025e-18 5.24898e-07 0)
(3.07531e-18 5.43463e-07 0)
(3.20685e-18 5.63145e-07 0)
(3.32247e-18 5.841e-07 0)
(3.45524e-18 6.06432e-07 0)
(3.59466e-18 6.30286e-07 0)
(3.74077e-18 6.55747e-07 0)
(3.89344e-18 6.82939e-07 0)
(4.05206e-18 7.11976e-07 0)
(4.21538e-18 7.43073e-07 0)
(4.38121e-18 7.7659e-07 0)
(4.54635e-18 8.13533e-07 0)
(4.70741e-18 8.5654e-07 0)
(4.86357e-18 9.08666e-07 0)
(5.02179e-18 9.71265e-07 0)
(5.20936e-18 1.06505e-06 0)
(5.56095e-18 1.2273e-06 0)
(6.37446e-18 1.33717e-06 0)
(6.60052e-18 1.26797e-06 0)
(7.10892e-18 3.8858e-06 0)
(7.65991e-17 1.99423e-06 0)
(7.3834e-17 2.82991e-05 0)
(6.71352e-17 -0.000224468 0)
(6.60465e-17 -6.27182e-05 0)
(6.3413e-17 7.95558e-05 0)
(6.03542e-17 1.15411e-05 0)
(5.74081e-17 -4.43738e-06 0)
(5.45375e-17 -1.24245e-06 0)
(5.17453e-17 1.79755e-08 0)
(4.90261e-17 7.47544e-08 0)
(4.63749e-17 9.72477e-09 0)
(4.37882e-17 -5.56372e-09 0)
(4.12632e-17 -1.32642e-09 0)
(3.87974e-17 3.77623e-10 0)
(3.6388e-17 1.60648e-10 0)
(3.40323e-17 -2.61104e-12 0)
(3.17273e-17 -1.1263e-11 0)
(2.94698e-17 -1.52328e-12 0)
(2.72565e-17 2.64095e-13 0)
(2.50839e-17 -4.65954e-14 0)
(2.29485e-17 -1.58433e-13 0)
(2.08466e-17 -3.9625e-13 0)
(1.87749e-17 -7.78783e-14 0)
(1.673e-17 2.97515e-13 0)
(1.47086e-17 4.81579e-13 0)
(1.27076e-17 7.06983e-13 0)
(1.07239e-17 1.33659e-13 0)
(8.75475e-18 -4.47441e-13 0)
(6.79726e-18 -8.08807e-13 0)
(4.84877e-18 -6.12386e-13 0)
(2.90666e-18 1.03143e-13 0)
(9.68342e-19 6.26685e-13 0)
)
;

boundaryField
{
    inlet
    {
        type            cyclic;
    }
    outlet
    {
        type            cyclic;
    }
    top
    {
        type            fixedValue;
        value           uniform (0 0 0);
    }
    bottom
    {
        type            fixedValue;
        value           uniform (0 0 0);
    }
    frontAndBackPlanes
    {
        type            empty;
    }
}


// ************************************************************************* //
