/*--------------------------------*- C++ -*----------------------------------*\
| =========                 |                                                 |
| \\      /  F ield         | OpenFOAM: The Open Source CFD Toolbox           |
|  \\    /   O peration     | Version:  2206                                  |
|   \\  /    A nd           | Website:  www.openfoam.com                      |
|    \\/     M anipulation  |                                                 |
\*---------------------------------------------------------------------------*/
FoamFile
{
    version     2.0;
    format      ascii;
    arch        "LSB;label=32;scalar=64";
    class       volScalarField;
    location    "1420";
    object      pff;
}
// * * * * * * * * * * * * * * * * * * * * * * * * * * * * * * * * * * * * * //

dimensions      [1 -1 -2 0 0 0 0];

internalField   nonuniform List<scalar> 
120
(
25.0543
24.5199
24.5232
23.9436
23.9315
23.3635
23.3407
22.7851
22.751
22.2084
22.1625
21.6335
21.5752
21.0603
20.9892
20.4889
20.4047
19.9193
19.8217
19.3513
19.2404
18.785
18.6608
18.2205
18.0831
17.6575
17.5073
17.0962
16.9335
16.5365
16.3617
15.9782
15.792
15.4214
15.2244
14.866
14.6589
14.3119
14.0955
13.759
13.5341
13.2074
12.9748
12.6569
12.4176
12.1076
11.8622
11.5593
11.3088
11.0121
10.7573
10.466
10.2076
9.92095
9.65974
9.37699
9.11356
8.83414
8.56908
8.29244
8.02624
7.75191
7.48501
7.21258
6.94534
6.6745
6.4072
6.13768
5.87054
5.60215
5.33534
5.06791
4.80156
4.53497
4.2692
4.00333
3.73824
3.47298
3.20866
2.94396
2.68032
2.41653
2.15255
1.89159
1.6239
1.36991
1.09548
0.841684
0.579211
0.265076
0
0
0
0
0
0
0
0
0
0
0
0
0
0
0
0
0
0
0
0
0
0
0
0
0
0
0
0
0
0
)
;

boundaryField
{
    inlet
    {
        type            cyclic;
    }
    outlet
    {
        type            cyclic;
    }
    top
    {
        type            calculated;
        value           uniform 0;
    }
    bottom
    {
        type            calculated;
        value           uniform 25.0543;
    }
    frontAndBackPlanes
    {
        type            empty;
    }
}


// ************************************************************************* //
