/*--------------------------------*- C++ -*----------------------------------*\
| =========                 |                                                 |
| \\      /  F ield         | OpenFOAM: The Open Source CFD Toolbox           |
|  \\    /   O peration     | Version:  2206                                  |
|   \\  /    A nd           | Website:  www.openfoam.com                      |
|    \\/     M anipulation  |                                                 |
\*---------------------------------------------------------------------------*/
FoamFile
{
    version     2.0;
    format      ascii;
    arch        "LSB;label=32;scalar=64";
    class       surfaceScalarField;
    location    "1420";
    object      phi.b;
}
// * * * * * * * * * * * * * * * * * * * * * * * * * * * * * * * * * * * * * //

dimensions      [0 3 -1 0 0 0 0];

oriented        oriented;

internalField   nonuniform List<scalar> 
119
(
1.13387e-15
2.29253e-15
3.45223e-15
4.63994e-15
5.83136e-15
7.05137e-15
8.27773e-15
9.53302e-15
1.07975e-14
1.20912e-14
1.33971e-14
1.4732e-14
1.60822e-14
1.74611e-14
1.88584e-14
2.02838e-14
2.17306e-14
2.32045e-14
2.47026e-14
2.62266e-14
2.77772e-14
2.93523e-14
3.09561e-14
3.25827e-14
3.42395e-14
3.5917e-14
3.76261e-14
3.93535e-14
4.11132e-14
4.28884e-14
4.46963e-14
4.65169e-14
4.83698e-14
5.02325e-14
5.21268e-14
5.40279e-14
5.59594e-14
5.78946e-14
5.98588e-14
6.18239e-14
6.38159e-14
6.58061e-14
6.78211e-14
6.9832e-14
7.18652e-14
7.38923e-14
7.59392e-14
7.7978e-14
8.00341e-14
8.20809e-14
8.41422e-14
8.61931e-14
8.82558e-14
9.03073e-14
9.2368e-14
9.4417e-14
9.64725e-14
9.8516e-14
1.00563e-13
1.02599e-13
1.04635e-13
1.06659e-13
1.08681e-13
1.10691e-13
1.12697e-13
1.14689e-13
1.16675e-13
1.18646e-13
1.20607e-13
1.22553e-13
1.24485e-13
1.264e-13
1.283e-13
1.30181e-13
1.32043e-13
1.33884e-13
1.35705e-13
1.37502e-13
1.39272e-13
1.41018e-13
1.42719e-13
1.4441e-13
1.4601e-13
1.47631e-13
1.49151e-13
1.5057e-13
1.52331e-13
1.53477e-13
1.56405e-13
1.85298e-13
7.71966e-14
2.88308e-17
2.94468e-17
-4.71559e-19
-3.33076e-19
-2.77611e-20
1.77158e-19
2.30683e-19
3.07556e-19
3.5749e-19
1.44901e-19
-2.10029e-19
-3.66493e-19
-3.14579e-19
-1.73326e-19
6.68973e-20
2.43281e-19
2.31549e-19
1.80773e-19
7.37697e-20
-1.09294e-19
-2.30199e-19
-2.63036e-19
-1.18663e-19
9.92586e-20
2.99618e-19
2.74689e-19
9.13598e-20
-1.9319e-19
)
;

boundaryField
{
    inlet
    {
        type            cyclic;
        value           nonuniform List<scalar> 
120
(
-3.11847e-27
-9.36124e-27
-1.56204e-26
-2.18964e-26
-2.8207e-26
-3.45584e-26
-4.09749e-26
-4.74195e-26
-5.39274e-26
-6.05537e-26
-6.72466e-26
-7.40077e-26
-8.09308e-26
-8.79411e-26
-9.50757e-26
-1.02344e-25
-1.09757e-25
-1.17323e-25
-1.25053e-25
-1.32956e-25
-1.41043e-25
-1.49324e-25
-1.57809e-25
-1.66257e-25
-1.75443e-25
-1.84616e-25
-1.94182e-25
-2.03711e-25
-2.1366e-25
-2.24227e-25
-2.34762e-25
-2.45233e-25
-2.56375e-25
-2.67854e-25
-2.7968e-25
-2.91451e-25
-3.03702e-25
-3.1727e-25
-3.29427e-25
-3.4437e-25
-3.56827e-25
-3.72231e-25
-3.86566e-25
-4.01897e-25
-4.17177e-25
-4.35276e-25
-4.50994e-25
-4.69019e-25
-4.8511e-25
-5.0494e-25
-5.24101e-25
-5.43848e-25
-5.64192e-25
-5.85132e-25
-6.05945e-25
-6.28833e-25
-6.51581e-25
-6.74906e-25
-7.00376e-25
-7.23315e-25
-7.48334e-25
-7.73818e-25
-7.99715e-25
-8.25979e-25
-8.54313e-25
-8.77435e-25
-9.06181e-25
-9.33186e-25
-9.60155e-25
-9.87004e-25
-1.01559e-24
-1.03981e-24
-1.06553e-24
-1.09067e-24
-1.1151e-24
-1.13868e-24
-1.16128e-24
-1.18278e-24
-1.20305e-24
-1.22197e-24
-1.23941e-24
-1.25528e-24
-1.26946e-24
-1.28186e-24
-1.29243e-24
-1.30588e-24
-1.30752e-24
-1.31195e-24
-1.31433e-24
-1.31534e-24
-1.31877e-24
-1.47088e-24
-1.80759e-24
-2.13635e-24
-2.45239e-24
-2.75127e-24
-3.02881e-24
-3.28113e-24
-3.50472e-24
-3.69649e-24
-3.85381e-24
-3.9745e-24
-4.0569e-24
-4.09985e-24
-4.1027e-24
-4.06531e-24
-3.988e-24
-3.87157e-24
-3.71725e-24
-3.52667e-24
-3.30182e-24
-3.04505e-24
-2.75897e-24
-2.44646e-24
-2.11063e-24
-1.75476e-24
-1.38231e-24
-9.96825e-25
-6.01972e-25
-2.01469e-25
)
;
    }
    outlet
    {
        type            cyclic;
        value           nonuniform List<scalar> 
120
(
3.11847e-27
9.36124e-27
1.56204e-26
2.18964e-26
2.8207e-26
3.45584e-26
4.09749e-26
4.74195e-26
5.39274e-26
6.05537e-26
6.72466e-26
7.40077e-26
8.09308e-26
8.79411e-26
9.50757e-26
1.02344e-25
1.09757e-25
1.17323e-25
1.25053e-25
1.32956e-25
1.41043e-25
1.49324e-25
1.57809e-25
1.66257e-25
1.75443e-25
1.84616e-25
1.94182e-25
2.03711e-25
2.1366e-25
2.24227e-25
2.34762e-25
2.45233e-25
2.56375e-25
2.67854e-25
2.7968e-25
2.91451e-25
3.03702e-25
3.1727e-25
3.29427e-25
3.4437e-25
3.56827e-25
3.72231e-25
3.86566e-25
4.01897e-25
4.17177e-25
4.35276e-25
4.50994e-25
4.69019e-25
4.8511e-25
5.0494e-25
5.24101e-25
5.43848e-25
5.64192e-25
5.85132e-25
6.05945e-25
6.28833e-25
6.51581e-25
6.74906e-25
7.00376e-25
7.23315e-25
7.48334e-25
7.73818e-25
7.99715e-25
8.25979e-25
8.54313e-25
8.77435e-25
9.06181e-25
9.33186e-25
9.60155e-25
9.87004e-25
1.01559e-24
1.03981e-24
1.06553e-24
1.09067e-24
1.1151e-24
1.13868e-24
1.16128e-24
1.18278e-24
1.20305e-24
1.22197e-24
1.23941e-24
1.25528e-24
1.26946e-24
1.28186e-24
1.29243e-24
1.30588e-24
1.30752e-24
1.31195e-24
1.31433e-24
1.31534e-24
1.31877e-24
1.47088e-24
1.80759e-24
2.13635e-24
2.45239e-24
2.75127e-24
3.02881e-24
3.28113e-24
3.50472e-24
3.69649e-24
3.85381e-24
3.9745e-24
4.0569e-24
4.09985e-24
4.1027e-24
4.06531e-24
3.988e-24
3.87157e-24
3.71725e-24
3.52667e-24
3.30182e-24
3.04505e-24
2.75897e-24
2.44646e-24
2.11063e-24
1.75476e-24
1.38231e-24
9.96825e-25
6.01972e-25
2.01469e-25
)
;
    }
    top
    {
        type            fixedValue;
        value           uniform 0;
    }
    bottom
    {
        type            fixedValue;
        value           uniform 0;
    }
    frontAndBackPlanes
    {
        type            empty;
        value           nonuniform List<scalar> 0();
    }
}


// ************************************************************************* //
