/*--------------------------------*- C++ -*----------------------------------*\
| =========                 |                                                 |
| \\      /  F ield         | OpenFOAM: The Open Source CFD Toolbox           |
|  \\    /   O peration     | Version:  2206                                  |
|   \\  /    A nd           | Website:  www.openfoam.com                      |
|    \\/     M anipulation  |                                                 |
\*---------------------------------------------------------------------------*/
FoamFile
{
    version     2.0;
    format      ascii;
    arch        "LSB;label=32;scalar=64";
    class       surfaceScalarField;
    location    "1420";
    object      phi.a;
}
// * * * * * * * * * * * * * * * * * * * * * * * * * * * * * * * * * * * * * //

dimensions      [0 3 -1 0 0 0 0];

oriented        oriented;

internalField   nonuniform List<scalar> 
119
(
-7.56383e-16
-1.52958e-15
-2.30382e-15
-3.09708e-15
-3.89315e-15
-4.70866e-15
-5.52876e-15
-6.36859e-15
-7.21496e-15
-8.08118e-15
-8.956e-15
-9.85065e-15
-1.0756e-14
-1.1681e-14
-1.26187e-14
-1.35758e-14
-1.45476e-14
-1.55382e-14
-1.65454e-14
-1.75707e-14
-1.86143e-14
-1.9675e-14
-2.07555e-14
-2.18519e-14
-2.29693e-14
-2.41014e-14
-2.52552e-14
-2.64222e-14
-2.76116e-14
-2.88123e-14
-3.00357e-14
-3.12686e-14
-3.25241e-14
-3.37872e-14
-3.50724e-14
-3.63633e-14
-3.76755e-14
-3.89916e-14
-4.0328e-14
-4.16664e-14
-4.3024e-14
-4.43819e-14
-4.57576e-14
-4.7132e-14
-4.85228e-14
-4.99109e-14
-5.13138e-14
-5.27131e-14
-5.41255e-14
-5.55334e-14
-5.69527e-14
-5.8367e-14
-5.97911e-14
-6.12097e-14
-6.26366e-14
-6.40578e-14
-6.54856e-14
-6.69077e-14
-6.8335e-14
-6.97566e-14
-7.11819e-14
-7.26017e-14
-7.40236e-14
-7.54402e-14
-7.68575e-14
-7.82694e-14
-7.96806e-14
-8.10863e-14
-8.24899e-14
-8.38876e-14
-8.5282e-14
-8.66701e-14
-8.80541e-14
-8.94316e-14
-9.08049e-14
-9.21716e-14
-9.35342e-14
-9.48909e-14
-9.62418e-14
-9.75907e-14
-9.89242e-14
-1.00272e-13
-1.01579e-13
-1.02933e-13
-1.04253e-13
-1.0556e-13
-1.07182e-13
-1.08484e-13
-1.11418e-13
-1.86399e-13
-2.95306e-13
-3.2509e-13
-2.6225e-11
-6.39508e-11
-7.80152e-11
-8.07142e-11
-8.13305e-11
-8.15476e-11
-8.16636e-11
-8.17478e-11
-8.18202e-11
-8.1885e-11
-8.19401e-11
-8.19819e-11
-8.20091e-11
-8.2024e-11
-8.20309e-11
-8.20336e-11
-8.20345e-11
-8.20349e-11
-8.2035e-11
-8.2035e-11
-8.2035e-11
-8.2035e-11
-8.20348e-11
-8.20342e-11
-8.20309e-11
-8.1999e-11
-8.134e-11
)
;

boundaryField
{
    inlet
    {
        type            cyclic;
        value           nonuniform List<scalar> 
120
(
-3.11846e-27
-9.36123e-27
-1.56176e-26
-2.18964e-26
-2.8207e-26
-3.45584e-26
-4.09596e-26
-4.74195e-26
-5.39476e-26
-6.05538e-26
-6.72467e-26
-7.40357e-26
-8.09309e-26
-8.79411e-26
-9.50757e-26
-1.02344e-25
-1.09757e-25
-1.17323e-25
-1.25053e-25
-1.32956e-25
-1.41043e-25
-1.49324e-25
-1.5781e-25
-1.6651e-25
-1.75444e-25
-1.84615e-25
-1.94035e-25
-2.03711e-25
-2.13658e-25
-2.2389e-25
-2.34411e-25
-2.45231e-25
-2.56375e-25
-2.67854e-25
-2.79682e-25
-2.91878e-25
-3.04141e-25
-3.16819e-25
-3.29892e-25
-3.434e-25
-3.57323e-25
-3.71714e-25
-3.86563e-25
-4.019e-25
-4.17739e-25
-4.34111e-25
-4.50986e-25
-4.68407e-25
-4.86373e-25
-5.04946e-25
-5.24101e-25
-5.43848e-25
-5.64192e-25
-5.85135e-25
-6.06679e-25
-6.28836e-25
-6.51581e-25
-6.74899e-25
-6.98776e-25
-7.23308e-25
-7.48334e-25
-7.73818e-25
-7.99715e-25
-8.2597e-25
-8.52523e-25
-8.79257e-25
-9.06189e-25
-9.33186e-25
-9.60155e-25
-9.86995e-25
-1.0136e-24
-1.0398e-24
-1.06553e-24
-1.09067e-24
-1.1151e-24
-1.13868e-24
-1.16128e-24
-1.18278e-24
-1.20305e-24
-1.22197e-24
-1.23941e-24
-1.25528e-24
-1.26946e-24
-1.28186e-24
-1.2924e-24
-1.30101e-24
-1.3075e-24
-1.31195e-24
-1.31432e-24
-1.31532e-24
-1.31625e-24
-1.35776e-24
-1.36373e-24
-1.3866e-24
-9.89754e-25
-7.22681e-25
-6.05215e-25
-5.42019e-25
-4.95709e-25
-4.52139e-25
-4.04979e-25
-3.52386e-25
-2.97216e-25
-2.46157e-25
-2.06096e-25
-1.80028e-25
-1.66082e-25
-1.599e-25
-1.57524e-25
-1.56623e-25
-1.56219e-25
-1.55995e-25
-1.55854e-25
-1.55766e-25
-1.55716e-25
-1.55701e-25
-1.55734e-25
-1.55905e-25
-1.56553e-25
-1.55587e-25
)
;
    }
    outlet
    {
        type            cyclic;
        value           nonuniform List<scalar> 
120
(
3.11846e-27
9.36123e-27
1.56176e-26
2.18964e-26
2.8207e-26
3.45584e-26
4.09596e-26
4.74195e-26
5.39476e-26
6.05538e-26
6.72467e-26
7.40357e-26
8.09309e-26
8.79411e-26
9.50757e-26
1.02344e-25
1.09757e-25
1.17323e-25
1.25053e-25
1.32956e-25
1.41043e-25
1.49324e-25
1.5781e-25
1.6651e-25
1.75444e-25
1.84615e-25
1.94035e-25
2.03711e-25
2.13658e-25
2.2389e-25
2.34411e-25
2.45231e-25
2.56375e-25
2.67854e-25
2.79682e-25
2.91878e-25
3.04141e-25
3.16819e-25
3.29892e-25
3.434e-25
3.57323e-25
3.71714e-25
3.86563e-25
4.019e-25
4.17739e-25
4.34111e-25
4.50986e-25
4.68407e-25
4.86373e-25
5.04946e-25
5.24101e-25
5.43848e-25
5.64192e-25
5.85135e-25
6.06679e-25
6.28836e-25
6.51581e-25
6.74899e-25
6.98776e-25
7.23308e-25
7.48334e-25
7.73818e-25
7.99715e-25
8.2597e-25
8.52523e-25
8.79257e-25
9.06189e-25
9.33186e-25
9.60155e-25
9.86995e-25
1.0136e-24
1.0398e-24
1.06553e-24
1.09067e-24
1.1151e-24
1.13868e-24
1.16128e-24
1.18278e-24
1.20305e-24
1.22197e-24
1.23941e-24
1.25528e-24
1.26946e-24
1.28186e-24
1.2924e-24
1.30101e-24
1.3075e-24
1.31195e-24
1.31432e-24
1.31532e-24
1.31625e-24
1.35776e-24
1.36373e-24
1.3866e-24
9.89754e-25
7.22681e-25
6.05215e-25
5.42019e-25
4.95709e-25
4.52139e-25
4.04979e-25
3.52386e-25
2.97216e-25
2.46157e-25
2.06096e-25
1.80028e-25
1.66082e-25
1.599e-25
1.57524e-25
1.56623e-25
1.56219e-25
1.55995e-25
1.55854e-25
1.55766e-25
1.55716e-25
1.55701e-25
1.55734e-25
1.55905e-25
1.56553e-25
1.55587e-25
)
;
    }
    top
    {
        type            fixedValue;
        value           uniform 0;
    }
    bottom
    {
        type            fixedValue;
        value           uniform 0;
    }
    frontAndBackPlanes
    {
        type            empty;
        value           nonuniform List<scalar> 0();
    }
}


// ************************************************************************* //
