/*--------------------------------*- C++ -*----------------------------------*\
| =========                 |                                                 |
| \\      /  F ield         | OpenFOAM: The Open Source CFD Toolbox           |
|  \\    /   O peration     | Version:  2206                                  |
|   \\  /    A nd           | Website:  www.openfoam.com                      |
|    \\/     M anipulation  |                                                 |
\*---------------------------------------------------------------------------*/
FoamFile
{
    version     2.0;
    format      ascii;
    arch        "LSB;label=32;scalar=64";
    class       volVectorField;
    location    "1420";
    object      U.a;
}
// * * * * * * * * * * * * * * * * * * * * * * * * * * * * * * * * * * * * * //

dimensions      [0 1 -1 0 0 0 0];

internalField   nonuniform List<vector> 
120
(
(1.03949e-20 1.46378e-08 0)
(3.12041e-20 -2.8729e-09 0)
(5.20585e-20 -5.62474e-09 0)
(7.29881e-20 -7.17387e-09 0)
(9.40233e-20 -1.00321e-08 0)
(1.15195e-19 -1.1596e-08 0)
(1.36532e-19 -1.45631e-08 0)
(1.58065e-19 -1.61517e-08 0)
(1.79825e-19 -1.92292e-08 0)
(2.01846e-19 -2.08534e-08 0)
(2.24156e-19 -2.40419e-08 0)
(2.46786e-19 -2.57131e-08 0)
(2.6977e-19 -2.90124e-08 0)
(2.93137e-19 -3.07425e-08 0)
(3.16919e-19 -3.41515e-08 0)
(3.41148e-19 -3.59521e-08 0)
(3.65856e-19 -3.94686e-08 0)
(3.91077e-19 -4.1351e-08 0)
(4.16842e-19 -4.4972e-08 0)
(4.43187e-19 -4.69466e-08 0)
(4.70143e-19 -5.06679e-08 0)
(4.97747e-19 -5.27444e-08 0)
(5.26032e-19 -5.65606e-08 0)
(5.55035e-19 -5.87471e-08 0)
(5.84814e-19 -6.26519e-08 0)
(6.15384e-19 -6.49551e-08 0)
(6.46783e-19 -6.89407e-08 0)
(6.79035e-19 -7.13658e-08 0)
(7.12194e-19 -7.54236e-08 0)
(7.46301e-19 -7.79737e-08 0)
(7.81368e-19 -8.20941e-08 0)
(8.17438e-19 -8.47706e-08 0)
(8.54583e-19 -8.89434e-08 0)
(8.92845e-19 -9.17457e-08 0)
(9.32273e-19 -9.59602e-08 0)
(9.72928e-19 -9.88861e-08 0)
(1.0138e-18 -1.03131e-07 0)
(1.05606e-18 -1.06177e-07 0)
(1.09964e-18 -1.10442e-07 0)
(1.14467e-18 -1.13602e-07 0)
(1.19108e-18 -1.17878e-07 0)
(1.23905e-18 -1.21145e-07 0)
(1.28854e-18 -1.25421e-07 0)
(1.33967e-18 -1.28788e-07 0)
(1.39246e-18 -1.33056e-07 0)
(1.44704e-18 -1.36515e-07 0)
(1.50329e-18 -1.40767e-07 0)
(1.56136e-18 -1.4431e-07 0)
(1.62124e-18 -1.48541e-07 0)
(1.68315e-18 -1.52157e-07 0)
(1.747e-18 -1.56362e-07 0)
(1.81283e-18 -1.60042e-07 0)
(1.88064e-18 -1.64219e-07 0)
(1.95045e-18 -1.67954e-07 0)
(2.02226e-18 -1.721e-07 0)
(2.09612e-18 -1.75882e-07 0)
(2.17194e-18 -1.79995e-07 0)
(2.24966e-18 -1.83814e-07 0)
(2.32925e-18 -1.87896e-07 0)
(2.41103e-18 -1.91743e-07 0)
(2.49445e-18 -1.95794e-07 0)
(2.57939e-18 -1.99662e-07 0)
(2.66572e-18 -2.03681e-07 0)
(2.75323e-18 -2.07562e-07 0)
(2.84174e-18 -2.11551e-07 0)
(2.93086e-18 -2.15436e-07 0)
(3.02063e-18 -2.19395e-07 0)
(3.11062e-18 -2.23276e-07 0)
(3.20052e-18 -2.27204e-07 0)
(3.28998e-18 -2.31074e-07 0)
(3.37866e-18 -2.34969e-07 0)
(3.466e-18 -2.38821e-07 0)
(3.55178e-18 -2.42681e-07 0)
(3.63558e-18 -2.4651e-07 0)
(3.717e-18 -2.50333e-07 0)
(3.79559e-18 -2.54139e-07 0)
(3.87093e-18 -2.57926e-07 0)
(3.94259e-18 -2.61709e-07 0)
(4.01016e-18 -2.65464e-07 0)
(4.07322e-18 -2.69214e-07 0)
(4.13138e-18 -2.72958e-07 0)
(4.18426e-18 -2.76622e-07 0)
(4.23154e-18 -2.80445e-07 0)
(4.27288e-18 -2.83886e-07 0)
(4.30801e-18 -2.87969e-07 0)
(4.33669e-18 -2.91218e-07 0)
(4.35832e-18 -2.95225e-07 0)
(4.37315e-18 -3.00244e-07 0)
(4.38108e-18 -3.02432e-07 0)
(4.3844e-18 -3.22666e-07 0)
(4.38749e-18 -7.47602e-07 0)
(4.52586e-18 -8.39538e-07 0)
(4.54576e-18 -9.24994e-07 0)
(4.62199e-18 -0.000144776 0)
(3.29918e-18 -0.000210515 0)
(2.40894e-18 -0.000222903 0)
(2.01738e-18 -0.000225509 0)
(1.80673e-18 -0.000226327 0)
(1.65236e-18 -0.000226715 0)
(1.50713e-18 -0.000226971 0)
(1.34993e-18 -0.000227183 0)
(1.17462e-18 -0.000227374 0)
(9.90719e-19 -0.000227543 0)
(8.20524e-19 -0.00022768 0)
(6.86987e-19 -0.000227775 0)
(6.00093e-19 -0.000227831 0)
(5.53608e-19 -0.000227858 0)
(5.33001e-19 -0.000227869 0)
(5.25079e-19 -0.000227873 0)
(5.22078e-19 -0.000227874 0)
(5.20732e-19 -0.000227875 0)
(5.19984e-19 -0.000227875 0)
(5.19515e-19 -0.000227875 0)
(5.1922e-19 -0.000227875 0)
(5.19055e-19 -0.000227875 0)
(5.19004e-19 -0.000227874 0)
(5.19113e-19 -0.000227871 0)
(5.19682e-19 -0.000227856 0)
(5.21842e-19 -0.000227694 0)
(5.18624e-19 -0.000224194 0)
)
;

boundaryField
{
    inlet
    {
        type            cyclic;
    }
    outlet
    {
        type            cyclic;
    }
    top
    {
        type            fixedValue;
        value           uniform (0 0 0);
    }
    bottom
    {
        type            fixedValue;
        value           uniform (0 0 0);
    }
    frontAndBackPlanes
    {
        type            empty;
    }
}


// ************************************************************************* //
