/*--------------------------------*- C++ -*----------------------------------*\
| =========                 |                                                 |
| \\      /  F ield         | OpenFOAM: The Open Source CFD Toolbox           |
|  \\    /   O peration     | Version:  2206                                  |
|   \\  /    A nd           | Website:  www.openfoam.com                      |
|    \\/     M anipulation  |                                                 |
\*---------------------------------------------------------------------------*/
FoamFile
{
    version     2.0;
    format      ascii;
    arch        "LSB;label=32;scalar=64";
    class       volVectorField;
    location    "1420";
    object      U.b;
}
// * * * * * * * * * * * * * * * * * * * * * * * * * * * * * * * * * * * * * //

dimensions      [0 1 -1 0 0 0 0];

internalField   nonuniform List<vector> 
120
(
(1.03949e-20 1.6991e-08 0)
(3.12041e-20 5.07591e-09 0)
(5.2068e-20 7.66598e-09 0)
(7.29882e-20 1.15639e-08 0)
(9.40233e-20 1.42176e-08 0)
(1.15195e-19 1.8245e-08 0)
(1.36583e-19 2.09408e-08 0)
(1.58065e-19 2.51135e-08 0)
(1.79758e-19 2.78659e-08 0)
(2.01846e-19 3.21875e-08 0)
(2.24155e-19 3.50106e-08 0)
(2.46692e-19 3.94841e-08 0)
(2.69769e-19 4.23922e-08 0)
(2.93137e-19 4.70191e-08 0)
(3.16919e-19 5.00263e-08 0)
(3.41148e-19 5.48068e-08 0)
(3.65856e-19 5.79269e-08 0)
(3.91077e-19 6.28601e-08 0)
(4.16842e-19 6.6106e-08 0)
(4.43187e-19 7.1189e-08 0)
(4.70143e-19 7.4572e-08 0)
(4.97747e-19 7.98006e-08 0)
(5.26028e-19 8.33305e-08 0)
(5.5419e-19 8.86983e-08 0)
(5.84811e-19 9.2383e-08 0)
(6.15386e-19 9.78816e-08 0)
(6.47272e-19 1.01727e-07 0)
(6.79037e-19 1.07346e-07 0)
(7.12199e-19 1.11355e-07 0)
(7.47425e-19 1.17084e-07 0)
(7.82539e-19 1.21256e-07 0)
(8.17443e-19 1.27082e-07 0)
(8.54583e-19 1.31416e-07 0)
(8.92845e-19 1.37323e-07 0)
(9.32266e-19 1.41815e-07 0)
(9.71502e-19 1.47788e-07 0)
(1.01234e-18 1.52432e-07 0)
(1.05757e-18 1.58456e-07 0)
(1.09809e-18 1.63243e-07 0)
(1.1479e-18 1.69302e-07 0)
(1.18942e-18 1.74221e-07 0)
(1.24077e-18 1.803e-07 0)
(1.28855e-18 1.85341e-07 0)
(1.33966e-18 1.91426e-07 0)
(1.39059e-18 1.96576e-07 0)
(1.45092e-18 2.02653e-07 0)
(1.50331e-18 2.07899e-07 0)
(1.5634e-18 2.13957e-07 0)
(1.61703e-18 2.19287e-07 0)
(1.68313e-18 2.25316e-07 0)
(1.747e-18 2.30715e-07 0)
(1.81283e-18 2.36707e-07 0)
(1.88064e-18 2.42162e-07 0)
(1.95044e-18 2.48111e-07 0)
(2.01982e-18 2.53608e-07 0)
(2.09611e-18 2.59508e-07 0)
(2.17194e-18 2.65034e-07 0)
(2.24969e-18 2.70882e-07 0)
(2.33459e-18 2.76425e-07 0)
(2.41105e-18 2.82216e-07 0)
(2.49445e-18 2.87763e-07 0)
(2.57939e-18 2.93495e-07 0)
(2.66572e-18 2.99033e-07 0)
(2.75326e-18 3.04703e-07 0)
(2.84771e-18 3.10219e-07 0)
(2.92478e-18 3.15821e-07 0)
(3.0206e-18 3.21302e-07 0)
(3.11062e-18 3.26831e-07 0)
(3.20052e-18 3.32262e-07 0)
(3.29001e-18 3.3771e-07 0)
(3.3853e-18 3.43075e-07 0)
(3.46603e-18 3.48432e-07 0)
(3.55178e-18 3.53717e-07 0)
(3.63558e-18 3.58972e-07 0)
(3.71699e-18 3.64162e-07 0)
(3.79559e-18 3.69303e-07 0)
(3.87093e-18 3.74386e-07 0)
(3.94259e-18 3.794e-07 0)
(4.01016e-18 3.8435e-07 0)
(4.07322e-18 3.89228e-07 0)
(4.13138e-18 3.93982e-07 0)
(4.18426e-18 3.98733e-07 0)
(4.23154e-18 4.03162e-07 0)
(4.27288e-18 4.07814e-07 0)
(4.30809e-18 4.11861e-07 0)
(4.35293e-18 4.16076e-07 0)
(4.3584e-18 4.20687e-07 0)
(4.37315e-18 4.23545e-07 0)
(4.38109e-18 4.30802e-07 0)
(4.38448e-18 2.13517e-07 0)
(4.39591e-18 1.72858e-07 0)
(4.90295e-18 6.15704e-07 0)
(6.02531e-18 1.41466e-08 0)
(7.12118e-18 -3.96104e-08 0)
(8.17464e-18 -6.76697e-09 0)
(9.17091e-18 2.15966e-09 0)
(1.0096e-17 8.06653e-10 0)
(1.09371e-17 -5.53096e-11 0)
(1.16824e-17 -6.91074e-11 0)
(1.23216e-17 -4.2259e-12 0)
(1.2846e-17 5.46624e-12 0)
(1.32483e-17 9.48859e-13 0)
(1.3523e-17 -1.12054e-12 0)
(1.36662e-17 -1.17401e-12 0)
(1.36757e-17 -7.43607e-13 0)
(1.3551e-17 -1.34482e-13 0)
(1.32933e-17 4.92128e-13 0)
(1.29052e-17 7.33335e-13 0)
(1.23908e-17 6.29452e-13 0)
(1.17556e-17 3.85791e-13 0)
(1.10061e-17 -4.97871e-14 0)
(1.01502e-17 -5.2267e-13 0)
(9.19656e-18 -7.72509e-13 0)
(8.15486e-18 -6.06838e-13 0)
(7.03543e-18 -3.69036e-14 0)
(5.84922e-18 6.32177e-13 0)
(4.6077e-18 9.22039e-13 0)
(3.32275e-18 5.64481e-13 0)
(2.00657e-18 -2.79474e-13 0)
(6.71564e-19 -7.39439e-13 0)
)
;

boundaryField
{
    inlet
    {
        type            cyclic;
    }
    outlet
    {
        type            cyclic;
    }
    top
    {
        type            fixedValue;
        value           uniform (0 0 0);
    }
    bottom
    {
        type            fixedValue;
        value           uniform (0 0 0);
    }
    frontAndBackPlanes
    {
        type            empty;
    }
}


// ************************************************************************* //
