/*--------------------------------*- C++ -*----------------------------------*\
| =========                 |                                                 |
| \\      /  F ield         | OpenFOAM: The Open Source CFD Toolbox           |
|  \\    /   O peration     | Version:  v2006                                 |
|   \\  /    A nd           | Website:  www.openfoam.com                      |
|    \\/     M anipulation  |                                                 |
\*---------------------------------------------------------------------------*/
FoamFile
{
    version     2.0;
    format      ascii;
    class       volScalarField;
    location    "1720";
    object      p;
}
// * * * * * * * * * * * * * * * * * * * * * * * * * * * * * * * * * * * * * //

dimensions      [1 -1 -2 0 0 0 0];


internalField   nonuniform List<scalar> 
120
(
-2.29343
-6.95318
-11.6129
-16.2727
-20.9325
-25.5923
-30.2521
-34.9118
-39.5716
-44.2315
-48.8913
-53.5511
-58.2109
-62.8707
-67.5306
-72.1904
-76.8503
-81.5101
-86.17
-90.8299
-95.4898
-100.15
-104.81
-109.469
-114.129
-118.789
-123.449
-128.109
-132.769
-137.429
-142.089
-146.749
-151.409
-156.069
-160.729
-165.389
-170.049
-174.709
-179.369
-184.029
-188.689
-193.349
-198.009
-202.669
-207.329
-211.989
-216.65
-221.31
-225.97
-230.63
-235.29
-239.95
-244.61
-249.27
-253.931
-258.591
-263.251
-267.911
-272.571
-277.232
-281.892
-286.552
-291.212
-295.873
-300.533
-305.193
-309.854
-314.514
-319.174
-323.835
-328.495
-333.155
-337.816
-342.476
-347.136
-351.797
-356.457
-361.118
-365.778
-370.439
-375.099
-379.76
-384.42
-389.081
-393.741
-398.402
-403.062
-407.723
-412.384
-417.044
-421.704
-426.367
-431.027
-435.687
-440.346
-445.006
-449.666
-454.326
-458.985
-463.645
-468.305
-472.965
-477.624
-482.284
-486.944
-491.604
-496.263
-500.923
-505.583
-510.243
-514.902
-519.562
-524.222
-528.882
-533.541
-538.201
-542.861
-547.521
-552.18
-556.84
)
;

boundaryField
{
    inlet
    {
        type            cyclic;
    }
    outlet
    {
        type            cyclic;
    }
    top
    {
        type            calculated;
        value           uniform -559.17;
    }
    bottom
    {
        type            calculated;
        value           uniform 0.0364496;
    }
    frontAndBackPlanes
    {
        type            empty;
    }
}


// ************************************************************************* //
