/*--------------------------------*- C++ -*----------------------------------*\
| =========                 |                                                 |
| \\      /  F ield         | OpenFOAM: The Open Source CFD Toolbox           |
|  \\    /   O peration     | Version:  v2006                                 |
|   \\  /    A nd           | Website:  www.openfoam.com                      |
|    \\/     M anipulation  |                                                 |
\*---------------------------------------------------------------------------*/
FoamFile
{
    version     2.0;
    format      ascii;
    class       volScalarField;
    location    "1720";
    object      pff;
}
// * * * * * * * * * * * * * * * * * * * * * * * * * * * * * * * * * * * * * //

dimensions      [1 -1 -2 0 0 0 0];


internalField   nonuniform List<scalar> 
120
(
26.2438
25.9495
25.6552
25.3609
25.0667
24.7724
24.4783
24.1841
23.89
23.5959
23.3018
23.0078
22.7138
22.4198
22.1259
21.832
21.5381
21.2443
20.9505
20.6567
20.363
20.0693
19.7756
19.482
19.1884
18.8948
18.6013
18.3078
18.0144
17.721
17.4277
17.1343
16.8411
16.5478
16.2546
15.9615
15.6684
15.3753
15.0823
14.7893
14.4964
14.2035
13.9107
13.6179
13.3252
13.0325
12.7399
12.4474
12.1549
11.8624
11.57
11.2777
10.9854
10.6932
10.401
10.109
9.81693
9.52498
9.2331
8.9413
8.64956
8.35791
8.06633
7.77483
7.48342
7.1921
6.90086
6.60972
6.31867
6.02773
5.73688
5.44615
5.15553
4.86503
4.57465
4.2844
3.99429
3.70434
3.41455
3.12494
2.83552
2.54631
2.25735
1.96863
1.68019
1.39208
1.10455
0.817226
0.524919
0.225548
0
0
0
0
0
0
0
0
0
0
0
0
0
0
0
0
0
0
0
0
0
0
0
0
0
0
0
0
0
0
)
;

boundaryField
{
    inlet
    {
        type            cyclic;
    }
    outlet
    {
        type            cyclic;
    }
    top
    {
        type            calculated;
        value           uniform 0;
    }
    bottom
    {
        type            calculated;
        value           uniform 26.2438;
    }
    frontAndBackPlanes
    {
        type            empty;
    }
}


// ************************************************************************* //
