/*--------------------------------*- C++ -*----------------------------------*\
| =========                 |                                                 |
| \\      /  F ield         | OpenFOAM: The Open Source CFD Toolbox           |
|  \\    /   O peration     | Version:  v2006                                 |
|   \\  /    A nd           | Website:  www.openfoam.com                      |
|    \\/     M anipulation  |                                                 |
\*---------------------------------------------------------------------------*/
FoamFile
{
    version     2.0;
    format      ascii;
    class       surfaceScalarField;
    location    "1720";
    object      phia;
}
// * * * * * * * * * * * * * * * * * * * * * * * * * * * * * * * * * * * * * //

dimensions      [0 3 -1 0 0 0 0];
oriented        oriented;


internalField   nonuniform List<scalar> 
119
(
-1.50677e-17
-3.03081e-17
-4.57216e-17
-6.13112e-17
-7.70788e-17
-9.30261e-17
-1.09155e-16
-1.25468e-16
-1.41966e-16
-1.58653e-16
-1.7553e-16
-1.92599e-16
-2.09862e-16
-2.27324e-16
-2.44985e-16
-2.62849e-16
-2.80918e-16
-2.99196e-16
-3.17684e-16
-3.36387e-16
-3.55306e-16
-3.74445e-16
-3.93808e-16
-4.13396e-16
-4.33214e-16
-4.53263e-16
-4.73549e-16
-4.94072e-16
-5.14838e-16
-5.35849e-16
-5.57108e-16
-5.7862e-16
-6.00388e-16
-6.22416e-16
-6.44708e-16
-6.6727e-16
-6.90105e-16
-7.1322e-16
-7.3662e-16
-7.60312e-16
-7.84302e-16
-8.08597e-16
-8.33204e-16
-8.5813e-16
-8.83384e-16
-9.08973e-16
-9.34905e-16
-9.61187e-16
-9.87828e-16
-1.01484e-15
-1.04222e-15
-1.06998e-15
-1.09813e-15
-1.12669e-15
-1.15565e-15
-1.18504e-15
-1.21486e-15
-1.24514e-15
-1.27588e-15
-1.30712e-15
-1.33888e-15
-1.37117e-15
-1.40401e-15
-1.43744e-15
-1.47146e-15
-1.50608e-15
-1.5413e-15
-1.57711e-15
-1.61348e-15
-1.65038e-15
-1.68778e-15
-1.72566e-15
-1.76406e-15
-1.80307e-15
-1.84289e-15
-1.88389e-15
-1.92665e-15
-1.97199e-15
-2.02097e-15
-2.07487e-15
-2.13507e-15
-2.20287e-15
-2.27921e-15
-2.36439e-15
-2.45779e-15
-2.55806e-15
-2.66222e-15
-2.77605e-15
-2.95553e-15
-6.51444e-15
-4.04359e-12
-6.49747e-11
-5.84544e-11
-8.20551e-11
-8.22711e-11
-8.22745e-11
-8.22765e-11
-8.22766e-11
-8.22766e-11
-8.22766e-11
-8.22766e-11
-8.22766e-11
-8.22766e-11
-8.22766e-11
-8.22766e-11
-8.22766e-11
-8.22766e-11
-8.22766e-11
-8.22766e-11
-8.22766e-11
-8.22766e-11
-8.22766e-11
-8.22766e-11
-8.22766e-11
-8.22766e-11
-8.22766e-11
-8.22766e-11
-8.22565e-11
-8.21697e-11
)
;

boundaryField
{
    inlet
    {
        type            cyclic;
        value           nonuniform List<scalar> 
120
(
-1.22417e-27
-3.6743e-27
-6.12867e-27
-8.55972e-27
-1.10007e-26
-1.34543e-26
-1.59235e-26
-1.83502e-26
-2.0798e-26
-2.33304e-26
-2.58894e-26
-2.84776e-26
-3.11586e-26
-3.38741e-26
-3.66269e-26
-3.94195e-26
-4.22545e-26
-4.51342e-26
-4.80611e-26
-5.10376e-26
-5.4066e-26
-5.71483e-26
-6.02868e-26
-6.34834e-26
-6.69828e-26
-7.0544e-26
-7.41688e-26
-7.77374e-26
-8.13725e-26
-8.50754e-26
-8.86047e-26
-9.19613e-26
-9.53885e-26
-9.88869e-26
-1.02457e-25
-1.06098e-25
-1.10054e-25
-1.14323e-25
-1.18421e-25
-1.22831e-25
-1.26826e-25
-1.31131e-25
-1.3526e-25
-1.39454e-25
-1.43709e-25
-1.48267e-25
-1.52398e-25
-1.56584e-25
-1.60578e-25
-1.65104e-25
-1.69674e-25
-1.74283e-25
-1.78928e-25
-1.83603e-25
-1.88305e-25
-1.93268e-25
-1.98247e-25
-2.03236e-25
-2.08228e-25
-2.12735e-25
-2.17234e-25
-2.21718e-25
-2.26181e-25
-2.30616e-25
-2.35017e-25
-2.38894e-25
-2.43205e-25
-2.47461e-25
-2.51655e-25
-2.55781e-25
-2.59831e-25
-2.63318e-25
-2.66716e-25
-2.70019e-25
-2.73221e-25
-2.76316e-25
-2.79298e-25
-2.82162e-25
-2.84901e-25
-2.87512e-25
-2.89989e-25
-2.92327e-25
-2.94524e-25
-2.96576e-25
-2.98478e-25
-3.00229e-25
-3.00872e-25
-3.01359e-25
-3.01688e-25
-3.01857e-25
-3.01922e-25
-2.9888e-25
-2.9249e-25
-2.85906e-25
-2.79153e-25
-2.722e-25
-2.65006e-25
-2.57538e-25
-2.49771e-25
-2.41682e-25
-2.3325e-25
-2.24458e-25
-2.15293e-25
-2.05742e-25
-1.958e-25
-1.85463e-25
-1.74736e-25
-1.63618e-25
-1.52125e-25
-1.40266e-25
-1.2806e-25
-1.15528e-25
-1.02694e-25
-8.95851e-26
-7.62323e-26
-6.26683e-26
-4.89284e-26
-3.50497e-26
-2.10708e-26
-7.03205e-27
)
;
    }
    outlet
    {
        type            cyclic;
        value           nonuniform List<scalar> 
120
(
1.22417e-27
3.6743e-27
6.12867e-27
8.55972e-27
1.10007e-26
1.34543e-26
1.59235e-26
1.83502e-26
2.0798e-26
2.33304e-26
2.58894e-26
2.84776e-26
3.11586e-26
3.38741e-26
3.66269e-26
3.94195e-26
4.22545e-26
4.51342e-26
4.80611e-26
5.10376e-26
5.4066e-26
5.71483e-26
6.02868e-26
6.34834e-26
6.69828e-26
7.0544e-26
7.41688e-26
7.77374e-26
8.13725e-26
8.50754e-26
8.86047e-26
9.19613e-26
9.53885e-26
9.88869e-26
1.02457e-25
1.06098e-25
1.10054e-25
1.14323e-25
1.18421e-25
1.22831e-25
1.26826e-25
1.31131e-25
1.3526e-25
1.39454e-25
1.43709e-25
1.48267e-25
1.52398e-25
1.56584e-25
1.60578e-25
1.65104e-25
1.69674e-25
1.74283e-25
1.78928e-25
1.83603e-25
1.88305e-25
1.93268e-25
1.98247e-25
2.03236e-25
2.08228e-25
2.12735e-25
2.17234e-25
2.21718e-25
2.26181e-25
2.30616e-25
2.35017e-25
2.38894e-25
2.43205e-25
2.47461e-25
2.51655e-25
2.55781e-25
2.59831e-25
2.63318e-25
2.66716e-25
2.70019e-25
2.73221e-25
2.76316e-25
2.79298e-25
2.82162e-25
2.84901e-25
2.87512e-25
2.89989e-25
2.92327e-25
2.94524e-25
2.96576e-25
2.98478e-25
3.00229e-25
3.00872e-25
3.01359e-25
3.01688e-25
3.01857e-25
3.01922e-25
2.9888e-25
2.9249e-25
2.85906e-25
2.79153e-25
2.722e-25
2.65006e-25
2.57538e-25
2.49771e-25
2.41682e-25
2.3325e-25
2.24458e-25
2.15293e-25
2.05742e-25
1.958e-25
1.85463e-25
1.74736e-25
1.63618e-25
1.52125e-25
1.40266e-25
1.2806e-25
1.15528e-25
1.02694e-25
8.95851e-26
7.62323e-26
6.26683e-26
4.89284e-26
3.50497e-26
2.10708e-26
7.03205e-27
)
;
    }
    top
    {
        type            fixedValue;
        value           uniform 0;
    }
    bottom
    {
        type            fixedValue;
        value           uniform 0;
    }
    frontAndBackPlanes
    {
        type            empty;
        value           nonuniform List<scalar> 0();
    }
}


// ************************************************************************* //
