/*--------------------------------*- C++ -*----------------------------------*\
| =========                 |                                                 |
| \\      /  F ield         | OpenFOAM: The Open Source CFD Toolbox           |
|  \\    /   O peration     | Version:  v2006                                 |
|   \\  /    A nd           | Website:  www.openfoam.com                      |
|    \\/     M anipulation  |                                                 |
\*---------------------------------------------------------------------------*/
FoamFile
{
    version     2.0;
    format      ascii;
    class       surfaceScalarField;
    location    "1720";
    object      phib;
}
// * * * * * * * * * * * * * * * * * * * * * * * * * * * * * * * * * * * * * //

dimensions      [0 3 -1 0 0 0 0];
oriented        oriented;


internalField   nonuniform List<scalar> 
119
(
2.26076e-17
4.54653e-17
6.85736e-17
9.19367e-17
1.15557e-16
1.39437e-16
1.63579e-16
1.87986e-16
2.1266e-16
2.37605e-16
2.62823e-16
2.88318e-16
3.14092e-16
3.40149e-16
3.66492e-16
3.93125e-16
4.20052e-16
4.47275e-16
4.748e-16
5.02629e-16
5.30767e-16
5.59217e-16
5.87984e-16
6.17071e-16
6.46482e-16
6.76222e-16
7.06294e-16
7.36702e-16
7.67451e-16
7.98544e-16
8.29985e-16
8.6178e-16
8.93933e-16
9.26449e-16
9.59333e-16
9.92592e-16
1.02623e-15
1.06026e-15
1.09468e-15
1.1295e-15
1.16474e-15
1.20039e-15
1.23648e-15
1.273e-15
1.30997e-15
1.34739e-15
1.38529e-15
1.42366e-15
1.46252e-15
1.50187e-15
1.54172e-15
1.58209e-15
1.62298e-15
1.6644e-15
1.70637e-15
1.7489e-15
1.79201e-15
1.83571e-15
1.88002e-15
1.92498e-15
1.97062e-15
2.01694e-15
2.064e-15
2.11179e-15
2.16035e-15
2.20967e-15
2.25973e-15
2.31051e-15
2.36195e-15
2.41401e-15
2.46662e-15
2.51974e-15
2.57338e-15
2.62766e-15
2.68286e-15
2.73948e-15
2.79831e-15
2.86047e-15
2.92745e-15
3.001e-15
3.08298e-15
3.17507e-15
3.2784e-15
3.39305e-15
3.51764e-15
3.64948e-15
3.78309e-15
3.9239e-15
4.14197e-15
6.11765e-15
9.87661e-13
2.0631e-13
1.50839e-15
1.37816e-20
1.8024e-20
2.37781e-20
2.87222e-20
3.5081e-20
3.88786e-20
4.37613e-20
4.56936e-20
4.91697e-20
4.95773e-20
5.30853e-20
5.48241e-20
5.96677e-20
6.06788e-20
6.35543e-20
6.24015e-20
6.32213e-20
6.01956e-20
6.06391e-20
5.92753e-20
6.14284e-20
6.00921e-20
6.07796e-20
5.79762e-20
5.71938e-20
5.28128e-20
)
;

boundaryField
{
    inlet
    {
        type            cyclic;
        value           nonuniform List<scalar> 
120
(
-1.22417e-27
-3.6743e-27
-6.12859e-27
-8.55972e-27
-1.10007e-26
-1.34543e-26
-1.59235e-26
-1.83502e-26
-2.07979e-26
-2.33304e-26
-2.58894e-26
-2.84773e-26
-3.11586e-26
-3.38741e-26
-3.66269e-26
-3.94195e-26
-4.22545e-26
-4.51342e-26
-4.80611e-26
-5.10376e-26
-5.4066e-26
-5.71483e-26
-6.02868e-26
-6.34797e-26
-6.69828e-26
-7.0544e-26
-7.4171e-26
-7.77374e-26
-8.13725e-26
-8.50806e-26
-8.86101e-26
-9.19613e-26
-9.53885e-26
-9.88869e-26
-1.02457e-25
-1.06092e-25
-1.10047e-25
-1.14331e-25
-1.18414e-25
-1.22847e-25
-1.26818e-25
-1.3114e-25
-1.3526e-25
-1.39454e-25
-1.437e-25
-1.48286e-25
-1.52398e-25
-1.56594e-25
-1.60557e-25
-1.65104e-25
-1.69674e-25
-1.74283e-25
-1.78928e-25
-1.83603e-25
-1.88292e-25
-1.93268e-25
-1.98247e-25
-2.03236e-25
-2.08256e-25
-2.12735e-25
-2.17234e-25
-2.21718e-25
-2.26181e-25
-2.30616e-25
-2.35049e-25
-2.38861e-25
-2.43205e-25
-2.47461e-25
-2.51655e-25
-2.55781e-25
-2.59868e-25
-2.63318e-25
-2.66716e-25
-2.70019e-25
-2.73221e-25
-2.76316e-25
-2.79298e-25
-2.82162e-25
-2.84901e-25
-2.87512e-25
-2.89989e-25
-2.92327e-25
-2.94524e-25
-2.96576e-25
-2.98479e-25
-3.00341e-25
-3.00873e-25
-3.01359e-25
-3.01688e-25
-3.01857e-25
-3.01867e-25
-2.98872e-25
-2.92478e-25
-2.859e-25
-2.79154e-25
-2.72201e-25
-2.65006e-25
-2.57539e-25
-2.49772e-25
-2.41683e-25
-2.33251e-25
-2.24459e-25
-2.15293e-25
-2.05743e-25
-1.95801e-25
-1.85465e-25
-1.74736e-25
-1.6362e-25
-1.52126e-25
-1.40267e-25
-1.28061e-25
-1.15529e-25
-1.02695e-25
-8.95865e-26
-7.62337e-26
-6.26698e-26
-4.89299e-26
-3.50512e-26
-2.10723e-26
-7.03283e-27
)
;
    }
    outlet
    {
        type            cyclic;
        value           nonuniform List<scalar> 
120
(
1.22417e-27
3.6743e-27
6.12859e-27
8.55972e-27
1.10007e-26
1.34543e-26
1.59235e-26
1.83502e-26
2.07979e-26
2.33304e-26
2.58894e-26
2.84773e-26
3.11586e-26
3.38741e-26
3.66269e-26
3.94195e-26
4.22545e-26
4.51342e-26
4.80611e-26
5.10376e-26
5.4066e-26
5.71483e-26
6.02868e-26
6.34797e-26
6.69828e-26
7.0544e-26
7.4171e-26
7.77374e-26
8.13725e-26
8.50806e-26
8.86101e-26
9.19613e-26
9.53885e-26
9.88869e-26
1.02457e-25
1.06092e-25
1.10047e-25
1.14331e-25
1.18414e-25
1.22847e-25
1.26818e-25
1.3114e-25
1.3526e-25
1.39454e-25
1.437e-25
1.48286e-25
1.52398e-25
1.56594e-25
1.60557e-25
1.65104e-25
1.69674e-25
1.74283e-25
1.78928e-25
1.83603e-25
1.88292e-25
1.93268e-25
1.98247e-25
2.03236e-25
2.08256e-25
2.12735e-25
2.17234e-25
2.21718e-25
2.26181e-25
2.30616e-25
2.35049e-25
2.38861e-25
2.43205e-25
2.47461e-25
2.51655e-25
2.55781e-25
2.59868e-25
2.63318e-25
2.66716e-25
2.70019e-25
2.73221e-25
2.76316e-25
2.79298e-25
2.82162e-25
2.84901e-25
2.87512e-25
2.89989e-25
2.92327e-25
2.94524e-25
2.96576e-25
2.98479e-25
3.00341e-25
3.00873e-25
3.01359e-25
3.01688e-25
3.01857e-25
3.01867e-25
2.98872e-25
2.92478e-25
2.859e-25
2.79154e-25
2.72201e-25
2.65006e-25
2.57539e-25
2.49772e-25
2.41683e-25
2.33251e-25
2.24459e-25
2.15293e-25
2.05743e-25
1.95801e-25
1.85465e-25
1.74736e-25
1.6362e-25
1.52126e-25
1.40267e-25
1.28061e-25
1.15529e-25
1.02695e-25
8.95865e-26
7.62337e-26
6.26698e-26
4.89299e-26
3.50512e-26
2.10723e-26
7.03283e-27
)
;
    }
    top
    {
        type            fixedValue;
        value           uniform 0;
    }
    bottom
    {
        type            fixedValue;
        value           uniform 0;
    }
    frontAndBackPlanes
    {
        type            empty;
        value           nonuniform List<scalar> 0();
    }
}


// ************************************************************************* //
