/*--------------------------------*- C++ -*----------------------------------*\
| =========                 |                                                 |
| \\      /  F ield         | OpenFOAM: The Open Source CFD Toolbox           |
|  \\    /   O peration     | Version:  v2006                                 |
|   \\  /    A nd           | Website:  www.openfoam.com                      |
|    \\/     M anipulation  |                                                 |
\*---------------------------------------------------------------------------*/
FoamFile
{
    version     2.0;
    format      ascii;
    class       volTensorField;
    location    "1720";
    object      Taua;
}
// * * * * * * * * * * * * * * * * * * * * * * * * * * * * * * * * * * * * * //

dimensions      [1 -1 -2 0 0 0 0];


internalField   nonuniform List<tensor> 
120
(
(2.93463e-05 0 0 1.71447e-14 -5.86927e-05 0 0 0 2.93463e-05)
(2.95963e-05 0 0 1.71658e-14 -5.91926e-05 0 0 0 2.95963e-05)
(2.9959e-05 0 0 1.7099e-14 -5.99179e-05 0 0 0 2.9959e-05)
(3.03134e-05 0 0 1.7052e-14 -6.06269e-05 0 0 0 3.03134e-05)
(3.06601e-05 0 0 1.71311e-14 -6.13201e-05 0 0 0 3.06601e-05)
(3.10087e-05 0 0 1.72299e-14 -6.20175e-05 0 0 0 3.10087e-05)
(3.1362e-05 0 0 1.71356e-14 -6.27239e-05 0 0 0 3.1362e-05)
(3.17192e-05 0 0 1.70608e-14 -6.34385e-05 0 0 0 3.17192e-05)
(3.20805e-05 0 0 1.74307e-14 -6.41609e-05 0 0 0 3.20805e-05)
(3.24458e-05 0 0 1.78197e-14 -6.48917e-05 0 0 0 3.24458e-05)
(3.28156e-05 0 0 1.80153e-14 -6.56312e-05 0 0 0 3.28156e-05)
(3.31898e-05 0 0 1.84422e-14 -6.63797e-05 0 0 0 3.31898e-05)
(3.35688e-05 0 0 1.88878e-14 -6.71375e-05 0 0 0 3.35688e-05)
(3.39526e-05 0 0 1.91393e-14 -6.79051e-05 0 0 0 3.39526e-05)
(3.43414e-05 0 0 1.94089e-14 -6.86827e-05 0 0 0 3.43414e-05)
(3.47354e-05 0 0 1.96964e-14 -6.94707e-05 0 0 0 3.47354e-05)
(3.51347e-05 0 0 2.00013e-14 -7.02694e-05 0 0 0 3.51347e-05)
(3.55395e-05 0 0 2.03233e-14 -7.10789e-05 0 0 0 3.55395e-05)
(3.59498e-05 0 0 2.0662e-14 -7.18997e-05 0 0 0 3.59498e-05)
(3.63659e-05 0 0 2.10169e-14 -7.27318e-05 0 0 0 3.63659e-05)
(3.67877e-05 0 0 2.13874e-14 -7.35755e-05 0 0 0 3.67877e-05)
(3.72154e-05 0 0 2.17729e-14 -7.44308e-05 0 0 0 3.72154e-05)
(3.7649e-05 0 0 2.21729e-14 -7.5298e-05 0 0 0 3.7649e-05)
(3.80886e-05 0 0 2.3436e-14 -7.61772e-05 0 0 0 3.80886e-05)
(3.85342e-05 0 0 2.47121e-14 -7.70683e-05 0 0 0 3.85342e-05)
(3.89858e-05 0 0 2.51511e-14 -7.79716e-05 0 0 0 3.89858e-05)
(3.94435e-05 0 0 2.51768e-14 -7.8887e-05 0 0 0 3.94435e-05)
(3.99075e-05 0 0 2.5213e-14 -7.98149e-05 0 0 0 3.99075e-05)
(4.03777e-05 0 0 2.5683e-14 -8.07554e-05 0 0 0 4.03777e-05)
(4.08545e-05 0 0 2.53126e-14 -8.17089e-05 0 0 0 4.08545e-05)
(4.13379e-05 0 0 2.41007e-14 -8.26759e-05 0 0 0 4.13379e-05)
(4.18284e-05 0 0 2.37435e-14 -8.36569e-05 0 0 0 4.18284e-05)
(4.23263e-05 0 0 2.42396e-14 -8.46527e-05 0 0 0 4.23263e-05)
(4.28321e-05 0 0 2.47391e-14 -8.56643e-05 0 0 0 4.28321e-05)
(4.33463e-05 0 0 2.52403e-14 -8.66926e-05 0 0 0 4.33463e-05)
(4.38696e-05 5.75211e-19 0 2.65902e-14 -8.77391e-05 0 0 0 4.38696e-05)
(4.44025e-05 0 0 2.87872e-14 -8.8805e-05 0 0 0 4.44025e-05)
(4.4946e-05 0 0 2.92852e-14 -8.98919e-05 0 0 0 4.4946e-05)
(4.55006e-05 0 0 2.97785e-14 -9.10012e-05 0 0 0 4.55006e-05)
(4.60673e-05 0 0 2.94179e-14 -9.21346e-05 0 0 0 4.60673e-05)
(4.66468e-05 0 0 2.90491e-14 -9.32935e-05 0 0 0 4.66468e-05)
(4.72397e-05 0 0 2.95184e-14 -9.44794e-05 0 0 0 4.72397e-05)
(4.78467e-05 0 0 2.91283e-14 -9.56934e-05 0 0 0 4.78467e-05)
(4.84682e-05 0 0 2.95721e-14 -9.69365e-05 0 0 0 4.84682e-05)
(4.91047e-05 0 0 3.08473e-14 -9.82094e-05 0 0 0 4.91047e-05)
(4.97563e-05 0 0 3.04108e-14 -9.95125e-05 0 0 0 4.97563e-05)
(5.0423e-05 0 0 2.91075e-14 -0.000100846 0 0 0 5.0423e-05)
(5.11048e-05 0 0 2.86298e-14 -0.00010221 0 0 0 5.11048e-05)
(5.18018e-05 0 0 2.98219e-14 -0.000103604 0 0 0 5.18018e-05)
(5.25137e-05 0 0 3.1835e-14 -0.000105027 0 0 0 5.25137e-05)
(5.3241e-05 0 0 3.21272e-14 -0.000106482 0 0 0 5.3241e-05)
(5.39839e-05 0 0 3.23897e-14 -0.000107968 0 0 0 5.39839e-05)
(5.47435e-05 0 0 3.26208e-14 -0.000109487 0 0 0 5.47435e-05)
(5.55213e-05 0 0 3.28186e-14 -0.000111043 0 0 0 5.55213e-05)
(5.63196e-05 0 0 3.3827e-14 -0.000112639 0 0 0 5.63196e-05)
(5.71413e-05 0 0 3.47985e-14 -0.000114283 0 0 0 5.71413e-05)
(5.79901e-05 0 0 3.48857e-14 -0.00011598 0 0 0 5.79901e-05)
(5.88703e-05 0 0 3.49332e-14 -0.000117741 0 0 0 5.88703e-05)
(5.97862e-05 -1.15042e-18 0 3.32491e-14 -0.000119572 0 0 0 5.97862e-05)
(6.0742e-05 0 0 3.15216e-14 -0.000121484 0 0 0 6.0742e-05)
(6.17409e-05 0 0 3.14404e-14 -0.000123482 0 0 0 6.17409e-05)
(6.27843e-05 0 0 3.13146e-14 -0.000125569 0 0 0 6.27843e-05)
(6.38709e-05 0 0 3.11429e-14 -0.000127742 0 0 0 6.38709e-05)
(6.49957e-05 0 0 3.09246e-14 -0.000129991 0 0 0 6.49957e-05)
(6.61493e-05 0 0 2.89712e-14 -0.000132299 0 0 0 6.61493e-05)
(6.73176e-05 0 0 2.86578e-14 -0.000134635 0 0 0 6.73176e-05)
(6.8482e-05 0 0 2.99844e-14 -0.000136964 0 0 0 6.8482e-05)
(6.96212e-05 0 0 2.95757e-14 -0.000139242 0 0 0 6.96212e-05)
(7.07147e-05 0 0 2.91192e-14 -0.000141429 0 0 0 7.07147e-05)
(7.17485e-05 0 0 2.86154e-14 -0.000143497 0 0 0 7.17485e-05)
(7.27247e-05 0 0 2.63797e-14 -0.000145449 0 0 0 7.27247e-05)
(7.36736e-05 0 0 2.40979e-14 -0.000147347 0 0 0 7.36736e-05)
(7.46704e-05 0 0 2.34557e-14 -0.000149341 0 0 0 7.46704e-05)
(7.58529e-05 0 0 2.27693e-14 -0.000151706 0 0 0 7.58529e-05)
(7.74392e-05 0 0 2.20399e-14 -0.000154878 0 0 0 7.74392e-05)
(7.97396e-05 0 0 2.12691e-14 -0.000159479 0 0 0 7.97396e-05)
(8.3156e-05 0 0 2.04585e-14 -0.000166312 0 0 0 8.3156e-05)
(8.81564e-05 0 0 1.96097e-14 -0.000176313 0 0 0 8.81564e-05)
(9.5223e-05 0 0 1.87249e-14 -0.000190446 0 0 0 9.5223e-05)
(0.000104784 0 0 1.78062e-14 -0.000209567 0 0 0 0.000104784)
(0.000117078 0 0 1.68557e-14 -0.000234156 0 0 0 0.000117078)
(0.000131701 0 0 1.58759e-14 -0.000263402 0 0 0 0.000131701)
(0.000147355 0 0 1.48693e-14 -0.00029471 0 0 0 0.000147355)
(0.000165433 0 0 1.38384e-14 -0.000330866 0 0 0 0.000165433)
(0.000193792 0 0 1.2786e-14 -0.000387583 0 0 0 0.000193792)
(0.00020163 0 0 8.37814e-15 -0.00040326 0 0 0 0.00020163)
(5.55281e-05 0 0 3.95445e-15 -0.000111056 0 0 0 5.55281e-05)
(2.98071e-05 0 0 2.85437e-15 -5.96142e-05 0 0 0 2.98071e-05)
(0.00203474 0 0 1.74388e-15 -0.00406948 0 0 0 0.00203474)
(0.0067671 0 0 8.21272e-16 -0.0135342 0 0 0 0.0067671)
(1.295e-05 0 0 -4.02531e-21 -2.59001e-05 0 0 0 1.295e-05)
(3.69262e-07 0 0 -2.07277e-22 -7.38523e-07 0 0 0 3.69262e-07)
(1.79932e-09 0 0 -2.34351e-24 -3.59864e-09 0 0 0 1.79932e-09)
(1.5607e-19 0 0 -3.43799e-34 -3.12141e-19 0 0 0 1.5607e-19)
(8.82239e-30 0 0 -3.64834e-44 -1.76448e-29 0 0 0 8.82239e-30)
(-2.85141e-42 0 0 -4.56798e-54 5.70282e-42 0 0 0 -2.85141e-42)
(-2.36798e-54 0 0 -8.15897e-64 4.73595e-54 0 0 0 -2.36798e-54)
(4.7948e-62 0 0 -2.11221e-73 -9.58959e-62 0 0 0 4.7948e-62)
(7.10555e-73 0 0 -7.75334e-83 -1.42111e-72 0 0 0 7.10555e-73)
(-5.13241e-82 0 0 -3.4054e-92 1.02648e-81 0 0 0 -5.13241e-82)
(-2.42119e-92 0 0 -1.74285e-101 4.84238e-92 0 0 0 -2.42119e-92)
(1.00439e-101 0 0 -9.49107e-111 -2.00879e-101 0 0 0 1.00439e-101)
(8.15007e-112 0 0 -5.63017e-120 -1.63001e-111 0 0 0 8.15007e-112)
(-2.38713e-121 0 0 -3.40433e-129 4.77426e-121 0 0 0 -2.38713e-121)
(-3.18868e-131 0 0 -2.23153e-138 6.37735e-131 0 0 0 -3.18868e-131)
(6.9494e-141 0 0 -1.54137e-147 -1.38988e-140 0 0 0 6.9494e-141)
(1.41231e-150 0 0 -1.20114e-156 -2.82463e-150 0 0 0 1.41231e-150)
(-3.21931e-160 0 0 -1.01841e-165 6.43862e-160 0 0 0 -3.21931e-160)
(-1.1715e-169 0 0 -1.01396e-174 2.34301e-169 0 0 0 -1.1715e-169)
(3.62001e-179 0 0 -1.16859e-183 -7.24002e-179 0 0 0 3.62001e-179)
(5.82518e-188 0 0 -1.64392e-192 -1.16504e-187 0 0 0 5.82518e-188)
(5.11587e-197 0 0 -2.61525e-201 -1.02317e-196 0 0 0 5.11587e-197)
(-6.84602e-206 0 0 -4.83649e-210 1.3692e-205 0 0 0 -6.84602e-206)
(-6.37475e-212 0 0 -9.93122e-219 1.27495e-211 0 0 0 -6.37475e-212)
(-2.57914e-220 0 0 -2.39666e-227 5.15828e-220 0 0 0 -2.57914e-220)
(-1.25661e-227 0 0 -6.45433e-236 2.51322e-227 0 0 0 -1.25661e-227)
(-2.01943e-233 0 0 -2.00219e-244 4.03885e-233 0 0 0 -2.01943e-233)
(-1.55736e-241 0 0 -6.64678e-253 3.11473e-241 0 0 0 -1.55736e-241)
(-4.01585e-249 0 0 -2.37963e-261 8.0317e-249 0 0 0 -4.01585e-249)
(-1.36392e-254 0 0 -8.39601e-270 2.72784e-254 0 0 0 -1.36392e-254)
)
;

boundaryField
{
    inlet
    {
        type            cyclic;
    }
    outlet
    {
        type            cyclic;
    }
    top
    {
        type            extrapolatedCalculated;
        value           uniform (-2.72524e-254 0 0 -8.40359e-270 5.45047e-254 0 0 0 -2.72524e-254);
    }
    bottom
    {
        type            extrapolatedCalculated;
        value           uniform (2.92781e-05 0 0 1.71384e-14 -5.85562e-05 0 0 0 2.92781e-05);
    }
    frontAndBackPlanes
    {
        type            empty;
    }
}


// ************************************************************************* //
