/*--------------------------------*- C++ -*----------------------------------*\
| =========                 |                                                 |
| \\      /  F ield         | OpenFOAM: The Open Source CFD Toolbox           |
|  \\    /   O peration     | Version:  v2006                                 |
|   \\  /    A nd           | Website:  www.openfoam.com                      |
|    \\/     M anipulation  |                                                 |
\*---------------------------------------------------------------------------*/
FoamFile
{
    version     2.0;
    format      ascii;
    class       volTensorField;
    location    "1720";
    object      Taub;
}
// * * * * * * * * * * * * * * * * * * * * * * * * * * * * * * * * * * * * * //

dimensions      [1 -1 -2 0 0 0 0];


internalField   nonuniform List<tensor> 
120
(
(-2.2758e-09 0 0 8.16379e-19 4.55159e-09 0 0 0 -2.2758e-09)
(-1.64234e-09 0 0 8.17334e-19 3.28468e-09 0 0 0 -1.64234e-09)
(-2.27426e-09 0 0 8.14128e-19 4.54851e-09 0 0 0 -2.27426e-09)
(-2.32897e-09 0 0 8.11866e-19 4.65794e-09 0 0 0 -2.32897e-09)
(-2.18656e-09 0 0 8.15581e-19 4.37313e-09 0 0 0 -2.18656e-09)
(-2.2104e-09 0 0 8.2025e-19 4.42079e-09 0 0 0 -2.2104e-09)
(-2.23474e-09 0 0 8.15715e-19 4.46948e-09 0 0 0 -2.23474e-09)
(-2.25914e-09 0 0 8.12085e-19 4.51828e-09 0 0 0 -2.25914e-09)
(-2.28379e-09 0 0 8.29677e-19 4.56758e-09 0 0 0 -2.28379e-09)
(-2.3087e-09 0 0 8.48176e-19 4.61739e-09 0 0 0 -2.3087e-09)
(-2.33388e-09 0 0 8.57367e-19 4.66775e-09 0 0 0 -2.33388e-09)
(-2.35933e-09 0 0 8.77689e-19 4.71867e-09 0 0 0 -2.35933e-09)
(-2.38508e-09 0 0 8.98897e-19 4.77016e-09 0 0 0 -2.38508e-09)
(-2.41113e-09 0 0 9.10769e-19 4.82226e-09 0 0 0 -2.41113e-09)
(-2.43749e-09 0 0 9.23549e-19 4.87498e-09 0 0 0 -2.43749e-09)
(-2.46417e-09 0 0 9.37175e-19 4.92834e-09 0 0 0 -2.46417e-09)
(-2.49118e-09 0 0 9.5163e-19 4.98237e-09 0 0 0 -2.49118e-09)
(-2.51853e-09 0 0 9.66897e-19 5.03706e-09 0 0 0 -2.51853e-09)
(-2.54622e-09 0 0 9.82953e-19 5.09244e-09 0 0 0 -2.54622e-09)
(-2.57426e-09 0 0 9.99776e-19 5.14851e-09 0 0 0 -2.57426e-09)
(-2.60265e-09 0 0 1.01734e-18 5.20529e-09 0 0 0 -2.60265e-09)
(-2.63139e-09 0 0 1.03562e-18 5.26278e-09 0 0 0 -2.63139e-09)
(-2.66049e-09 0 0 1.05395e-18 5.32098e-09 0 0 0 -2.66049e-09)
(-2.68995e-09 0 0 1.11459e-18 5.37991e-09 0 0 0 -2.68995e-09)
(-2.71978e-09 0 0 1.17583e-18 5.43955e-09 0 0 0 -2.71978e-09)
(-2.74996e-09 0 0 1.19637e-18 5.49991e-09 0 0 0 -2.74996e-09)
(-2.78049e-09 0 0 1.19715e-18 5.56099e-09 0 0 0 -2.78049e-09)
(-2.8114e-09 0 0 1.19842e-18 5.62279e-09 0 0 0 -2.8114e-09)
(-2.84267e-09 0 0 1.22192e-18 5.68534e-09 0 0 0 -2.84267e-09)
(-2.87432e-09 0 0 1.20427e-18 5.74864e-09 0 0 0 -2.87432e-09)
(-2.90636e-09 0 0 1.1448e-18 5.81272e-09 0 0 0 -2.90636e-09)
(-2.93881e-09 0 0 1.1277e-18 5.87763e-09 0 0 0 -2.93881e-09)
(-2.9717e-09 0 0 1.15211e-18 5.9434e-09 0 0 0 -2.9717e-09)
(-3.00504e-09 0 0 1.17576e-18 6.01009e-09 0 0 0 -3.00504e-09)
(-3.03888e-09 0 0 1.19837e-18 6.07776e-09 0 0 0 -3.03888e-09)
(-3.07324e-09 -5.46675e-23 0 1.26239e-18 6.14649e-09 0 0 0 -3.07324e-09)
(-3.10818e-09 0 0 1.37018e-18 6.21637e-09 0 0 0 -3.10818e-09)
(-3.14374e-09 0 0 1.39133e-18 6.28749e-09 0 0 0 -3.14374e-09)
(-3.17997e-09 0 0 1.41612e-18 6.35994e-09 0 0 0 -3.17997e-09)
(-3.21691e-09 0 0 1.39739e-18 6.43383e-09 0 0 0 -3.21691e-09)
(-3.25462e-09 0 0 1.37865e-18 6.50924e-09 0 0 0 -3.25462e-09)
(-3.29312e-09 0 0 1.40336e-18 6.58623e-09 0 0 0 -3.29312e-09)
(-3.33244e-09 0 0 1.38198e-18 6.66489e-09 0 0 0 -3.33244e-09)
(-3.37262e-09 0 0 1.40279e-18 6.74524e-09 0 0 0 -3.37262e-09)
(-3.41367e-09 0 0 1.46794e-18 6.82733e-09 0 0 0 -3.41367e-09)
(-3.45558e-09 0 0 1.44545e-18 6.91117e-09 0 0 0 -3.45558e-09)
(-3.49836e-09 0 0 1.38039e-18 6.99673e-09 0 0 0 -3.49836e-09)
(-3.542e-09 0 0 1.35557e-18 7.084e-09 0 0 0 -3.542e-09)
(-3.58647e-09 0 0 1.41383e-18 7.17293e-09 0 0 0 -3.58647e-09)
(-3.63175e-09 0 0 1.51441e-18 7.2635e-09 0 0 0 -3.63175e-09)
(-3.67785e-09 0 0 1.52465e-18 7.3557e-09 0 0 0 -3.67785e-09)
(-3.72479e-09 0 0 1.53694e-18 7.44958e-09 0 0 0 -3.72479e-09)
(-3.77262e-09 0 0 1.54772e-18 7.54523e-09 0 0 0 -3.77262e-09)
(-3.82142e-09 0 0 1.55487e-18 7.64284e-09 0 0 0 -3.82142e-09)
(-3.87134e-09 0 0 1.6046e-18 7.74269e-09 0 0 0 -3.87134e-09)
(-3.92256e-09 0 0 1.65256e-18 7.84513e-09 0 0 0 -3.92256e-09)
(-3.9753e-09 0 0 1.65446e-18 7.95061e-09 0 0 0 -3.9753e-09)
(-4.02981e-09 0 0 1.66107e-18 8.05962e-09 0 0 0 -4.02981e-09)
(-4.08634e-09 5.4544e-23 0 1.57641e-18 8.17268e-09 0 0 0 -4.08634e-09)
(-4.14512e-09 0 0 1.48972e-18 8.29023e-09 0 0 0 -4.14512e-09)
(-4.2063e-09 0 0 1.49024e-18 8.41259e-09 0 0 0 -4.2063e-09)
(-4.26989e-09 0 0 1.48408e-18 8.53978e-09 0 0 0 -4.26989e-09)
(-4.33572e-09 0 0 1.47576e-18 8.67144e-09 0 0 0 -4.33572e-09)
(-4.40335e-09 0 0 1.47048e-18 8.8067e-09 0 0 0 -4.40335e-09)
(-4.47202e-09 0 0 1.36694e-18 8.94404e-09 0 0 0 -4.47202e-09)
(-4.54066e-09 0 0 1.352e-18 9.08131e-09 0 0 0 -4.54066e-09)
(-4.60791e-09 0 0 1.42537e-18 9.21581e-09 0 0 0 -4.60791e-09)
(-4.67227e-09 0 0 1.40035e-18 9.34454e-09 0 0 0 -4.67227e-09)
(-4.73236e-09 0 0 1.37849e-18 9.46472e-09 0 0 0 -4.73236e-09)
(-4.78732e-09 0 0 1.3605e-18 9.57464e-09 0 0 0 -4.78732e-09)
(-4.83747e-09 0 0 1.24829e-18 9.67495e-09 0 0 0 -4.83747e-09)
(-4.88519e-09 0 0 1.13392e-18 9.77037e-09 0 0 0 -4.88519e-09)
(-4.9359e-09 0 0 1.10941e-18 9.87181e-09 0 0 0 -4.9359e-09)
(-4.99931e-09 0 0 1.07672e-18 9.99862e-09 0 0 0 -4.99931e-09)
(-5.09034e-09 0 0 1.04197e-18 1.01807e-08 0 0 0 -5.09034e-09)
(-5.2297e-09 0 0 1.00526e-18 1.04594e-08 0 0 0 -5.2297e-09)
(-5.44346e-09 0 0 9.66676e-19 1.08869e-08 0 0 0 -5.44346e-09)
(-5.76107e-09 0 0 9.26293e-19 1.15221e-08 0 0 0 -5.76107e-09)
(-6.21122e-09 0 0 8.84211e-19 1.24224e-08 0 0 0 -6.21122e-09)
(-6.81419e-09 0 0 8.4053e-19 1.36284e-08 0 0 0 -6.81419e-09)
(-7.57314e-09 0 0 7.95358e-19 1.51463e-08 0 0 0 -7.57314e-09)
(-8.47811e-09 0 0 7.48809e-19 1.69562e-08 0 0 0 -8.47811e-09)
(-9.50216e-09 0 0 7.01001e-19 1.90043e-08 0 0 0 -9.50216e-09)
(-1.04247e-08 0 0 6.52145e-19 2.08494e-08 0 0 0 -1.04247e-08)
(-1.06753e-08 0 0 6.20557e-19 2.13505e-08 0 0 0 -1.06753e-08)
(-1.14404e-08 0 0 3.94257e-19 2.28808e-08 0 0 0 -1.14404e-08)
(-1.93103e-08 0 0 1.67504e-19 3.86207e-08 0 0 0 -1.93103e-08)
(-1.82066e-08 0 0 1.33971e-19 3.64132e-08 0 0 0 -1.82066e-08)
(2.54347e-07 0 0 8.17745e-20 -5.08694e-07 0 0 0 2.54347e-07)
(-4.74098e-06 0 0 2.94199e-20 9.48195e-06 0 0 0 -4.74098e-06)
(-6.66559e-05 0 0 -3.91178e-19 0.000133312 0 0 0 -6.66559e-05)
(-2.90683e-05 0 0 -6.35684e-19 5.81367e-05 0 0 0 -2.90683e-05)
(3.52583e-05 0 0 -8.64765e-19 -7.05166e-05 0 0 0 3.52583e-05)
(3.30673e-05 0 0 -8.88195e-19 -6.61345e-05 0 0 0 3.30673e-05)
(-1.36356e-06 0 0 -9.13193e-19 2.72713e-06 0 0 0 -1.36356e-06)
(-2.6373e-06 0 0 -9.43049e-19 5.2746e-06 0 0 0 -2.6373e-06)
(-2.0396e-08 0 0 -9.77352e-19 4.0792e-08 0 0 0 -2.0396e-08)
(2.10733e-07 0 0 -1.01549e-18 -4.21466e-07 0 0 0 2.10733e-07)
(9.49081e-09 0 0 -1.05694e-18 -1.89816e-08 0 0 0 9.49081e-09)
(-1.60776e-08 0 0 -1.10126e-18 3.21552e-08 0 0 0 -1.60776e-08)
(-1.57086e-09 0 0 -1.14809e-18 3.14173e-09 0 0 0 -1.57086e-09)
(1.22712e-09 0 0 -1.19702e-18 -2.45424e-09 0 0 0 1.22712e-09)
(1.76664e-10 0 0 -1.2476e-18 -3.53327e-10 0 0 0 1.76664e-10)
(-8.80039e-11 0 0 -1.29933e-18 1.76008e-10 0 0 0 -8.80039e-11)
(-1.88505e-11 0 0 -1.3517e-18 3.7701e-11 0 0 0 -1.88505e-11)
(6.12479e-12 0 0 -1.40415e-18 -1.22496e-11 0 0 0 6.12479e-12)
(1.67521e-12 0 0 -1.45615e-18 -3.35042e-12 0 0 0 1.67521e-12)
(-4.56144e-13 0 0 -1.50716e-18 9.12287e-13 0 0 0 -4.56144e-13)
(-1.76677e-13 0 0 -1.55665e-18 3.53355e-13 0 0 0 -1.76677e-13)
(4.20567e-14 0 0 -1.60409e-18 -8.41134e-14 0 0 0 4.20567e-14)
(4.89645e-14 0 0 -1.64898e-18 -9.7929e-14 0 0 0 4.89645e-14)
(2.5001e-14 0 0 -1.69087e-18 -5.0002e-14 0 0 0 2.5001e-14)
(1.69448e-15 0 0 -1.7293e-18 -3.38897e-15 0 0 0 1.69448e-15)
(-9.12898e-15 0 0 -1.76388e-18 1.8258e-14 0 0 0 -9.12898e-15)
(5.27483e-15 0 0 -1.79423e-18 -1.05497e-14 0 0 0 5.27483e-15)
(2.70069e-14 0 0 -1.82003e-18 -5.40139e-14 0 0 0 2.70069e-14)
(7.94469e-14 0 0 -1.84101e-18 -1.58894e-13 0 0 0 7.94469e-14)
(7.97752e-14 0 0 -1.85694e-18 -1.5955e-13 0 0 0 7.97752e-14)
(3.58962e-13 0 0 -1.86766e-18 -7.17924e-13 0 0 0 3.58962e-13)
(1.69253e-12 0 0 -1.87344e-18 -3.38505e-12 0 0 0 1.69253e-12)
)
;

boundaryField
{
    inlet
    {
        type            cyclic;
    }
    outlet
    {
        type            cyclic;
    }
    top
    {
        type            extrapolatedCalculated;
        value           uniform (2.70145e-12 0 0 -1.87519e-18 -5.4029e-12 0 0 0 2.70145e-12);
    }
    bottom
    {
        type            extrapolatedCalculated;
        value           uniform (-3.33239e-09 0 0 8.16081e-19 6.66478e-09 0 0 0 -3.33239e-09);
    }
    frontAndBackPlanes
    {
        type            empty;
    }
}


// ************************************************************************* //
