/*--------------------------------*- C++ -*----------------------------------*\
| =========                 |                                                 |
| \\      /  F ield         | OpenFOAM: The Open Source CFD Toolbox           |
|  \\    /   O peration     | Version:  v2006                                 |
|   \\  /    A nd           | Website:  www.openfoam.com                      |
|    \\/     M anipulation  |                                                 |
\*---------------------------------------------------------------------------*/
FoamFile
{
    version     2.0;
    format      ascii;
    class       volVectorField;
    location    "1720";
    object      Ua;
}
// * * * * * * * * * * * * * * * * * * * * * * * * * * * * * * * * * * * * * //

dimensions      [0 1 -1 0 0 0 0];


internalField   nonuniform List<vector> 
120
(
(4.08057e-21 -2.09129e-11 0)
(1.22477e-20 -6.29337e-11 0)
(2.04289e-20 -1.05474e-10 0)
(2.85324e-20 -1.48531e-10 0)
(3.66689e-20 -1.92083e-10 0)
(4.48477e-20 -2.36131e-10 0)
(5.30783e-20 -2.8068e-10 0)
(6.11674e-20 -3.25736e-10 0)
(6.93267e-20 -3.71306e-10 0)
(7.7768e-20 -4.17395e-10 0)
(8.62979e-20 -4.64009e-10 0)
(9.49254e-20 -5.11154e-10 0)
(1.03862e-19 -5.58837e-10 0)
(1.12914e-19 -6.07064e-10 0)
(1.2209e-19 -6.55844e-10 0)
(1.31398e-19 -7.05182e-10 0)
(1.40848e-19 -7.55088e-10 0)
(1.50447e-19 -8.05567e-10 0)
(1.60204e-19 -8.56629e-10 0)
(1.70125e-19 -9.08281e-10 0)
(1.8022e-19 -9.60531e-10 0)
(1.90494e-19 -1.01339e-09 0)
(2.00956e-19 -1.06686e-09 0)
(2.11611e-19 -1.12096e-09 0)
(2.23276e-19 -1.17569e-09 0)
(2.35147e-19 -1.23105e-09 0)
(2.47229e-19 -1.28707e-09 0)
(2.59125e-19 -1.34375e-09 0)
(2.71242e-19 -1.40109e-09 0)
(2.83585e-19 -1.45912e-09 0)
(2.95349e-19 -1.51782e-09 0)
(3.06538e-19 -1.57722e-09 0)
(3.17962e-19 -1.63733e-09 0)
(3.29623e-19 -1.69816e-09 0)
(3.41523e-19 -1.75971e-09 0)
(3.53661e-19 -1.822e-09 0)
(3.66847e-19 -1.88505e-09 0)
(3.81078e-19 -1.94887e-09 0)
(3.94737e-19 -2.01347e-09 0)
(4.09438e-19 -2.07887e-09 0)
(4.22754e-19 -2.14509e-09 0)
(4.37104e-19 -2.21214e-09 0)
(4.50867e-19 -2.28006e-09 0)
(4.64845e-19 -2.34885e-09 0)
(4.79031e-19 -2.41854e-09 0)
(4.94224e-19 -2.48915e-09 0)
(5.07994e-19 -2.5607e-09 0)
(5.21945e-19 -2.63321e-09 0)
(5.3526e-19 -2.70671e-09 0)
(5.50347e-19 -2.78122e-09 0)
(5.65579e-19 -2.85675e-09 0)
(5.80944e-19 -2.93334e-09 0)
(5.96427e-19 -3.01099e-09 0)
(6.12011e-19 -3.08975e-09 0)
(6.27682e-19 -3.16962e-09 0)
(6.44228e-19 -3.25066e-09 0)
(6.60824e-19 -3.33289e-09 0)
(6.77452e-19 -3.41635e-09 0)
(6.94094e-19 -3.50109e-09 0)
(7.09118e-19 -3.58716e-09 0)
(7.24114e-19 -3.67463e-09 0)
(7.39061e-19 -3.76357e-09 0)
(7.53937e-19 -3.85402e-09 0)
(7.68721e-19 -3.94605e-09 0)
(7.83389e-19 -4.03972e-09 0)
(7.96313e-19 -4.13505e-09 0)
(8.10683e-19 -4.23206e-09 0)
(8.24869e-19 -4.33071e-09 0)
(8.3885e-19 -4.43097e-09 0)
(8.52602e-19 -4.53276e-09 0)
(8.66103e-19 -4.63597e-09 0)
(8.77725e-19 -4.74054e-09 0)
(8.89053e-19 -4.84646e-09 0)
(9.00064e-19 -4.95388e-09 0)
(9.10738e-19 -5.06319e-09 0)
(9.21054e-19 -5.17514e-09 0)
(9.30994e-19 -5.29101e-09 0)
(9.40539e-19 -5.41273e-09 0)
(9.4967e-19 -5.54289e-09 0)
(9.58372e-19 -5.68479e-09 0)
(9.66628e-19 -5.84227e-09 0)
(9.74425e-19 -6.0193e-09 0)
(9.81748e-19 -6.21856e-09 0)
(9.88586e-19 -6.44031e-09 0)
(9.94928e-19 -6.69123e-09 0)
(1.00076e-18 -6.994e-09 0)
(1.00291e-18 -7.26731e-09 0)
(1.00453e-18 -7.15266e-09 0)
(1.00563e-18 -7.35247e-09 0)
(1.00619e-18 -1.29662e-08 0)
(1.00641e-18 -2.6687e-08 0)
(9.96267e-19 -9.57856e-05 0)
(9.74967e-19 -0.000168059 0)
(9.53019e-19 -0.000195402 0)
(9.30511e-19 -0.000228602 0)
(9.07332e-19 -0.000228545 0)
(8.83352e-19 -0.000228514 0)
(8.58459e-19 -0.000228545 0)
(8.32571e-19 -0.000228548 0)
(8.05606e-19 -0.000228546 0)
(7.77501e-19 -0.000228546 0)
(7.48193e-19 -0.000228546 0)
(7.17643e-19 -0.000228546 0)
(6.85805e-19 -0.000228546 0)
(6.52668e-19 -0.000228546 0)
(6.18211e-19 -0.000228546 0)
(5.82452e-19 -0.000228546 0)
(5.45394e-19 -0.000228546 0)
(5.07083e-19 -0.000228546 0)
(4.67553e-19 -0.000228546 0)
(4.26867e-19 -0.000228546 0)
(3.85093e-19 -0.000228546 0)
(3.42313e-19 -0.000228546 0)
(2.98617e-19 -0.000228546 0)
(2.54108e-19 -0.000228546 0)
(2.08894e-19 -0.000228546 0)
(1.63095e-19 -0.000228546 0)
(1.16832e-19 -0.000228518 0)
(7.02359e-20 -0.000228481 0)
(2.34402e-20 -0.000228045 0)
)
;

boundaryField
{
    inlet
    {
        type            cyclic;
    }
    outlet
    {
        type            cyclic;
    }
    top
    {
        type            fixedValue;
        value           uniform (0 0 0);
    }
    bottom
    {
        type            fixedValue;
        value           uniform (0 0 0);
    }
    frontAndBackPlanes
    {
        type            empty;
    }
}


// ************************************************************************* //
