/*--------------------------------*- C++ -*----------------------------------*\
| =========                 |                                                 |
| \\      /  F ield         | OpenFOAM: The Open Source CFD Toolbox           |
|  \\    /   O peration     | Version:  v2006                                 |
|   \\  /    A nd           | Website:  www.openfoam.com                      |
|    \\/     M anipulation  |                                                 |
\*---------------------------------------------------------------------------*/
FoamFile
{
    version     2.0;
    format      ascii;
    class       volVectorField;
    location    "1720";
    object      Ub;
}
// * * * * * * * * * * * * * * * * * * * * * * * * * * * * * * * * * * * * * //

dimensions      [0 1 -1 0 0 0 0];


internalField   nonuniform List<vector> 
120
(
(4.08056e-21 4.99878e-11 0)
(1.22477e-20 8.65654e-11 0)
(2.04286e-20 1.48537e-10 0)
(2.85324e-20 2.23039e-10 0)
(3.66689e-20 2.883e-10 0)
(4.48477e-20 3.54263e-10 0)
(5.30784e-20 4.20961e-10 0)
(6.11674e-20 4.88391e-10 0)
(6.93262e-20 5.5656e-10 0)
(7.7768e-20 6.25477e-10 0)
(8.62979e-20 6.95148e-10 0)
(9.49244e-20 7.65583e-10 0)
(1.03862e-19 8.3679e-10 0)
(1.12914e-19 9.08779e-10 0)
(1.2209e-19 9.81558e-10 0)
(1.31398e-19 1.05514e-09 0)
(1.40848e-19 1.12953e-09 0)
(1.50447e-19 1.20474e-09 0)
(1.60204e-19 1.28078e-09 0)
(1.70125e-19 1.35766e-09 0)
(1.8022e-19 1.43539e-09 0)
(1.90494e-19 1.51399e-09 0)
(2.00956e-19 1.59345e-09 0)
(2.11599e-19 1.67381e-09 0)
(2.23276e-19 1.75506e-09 0)
(2.35147e-19 1.83721e-09 0)
(2.47237e-19 1.92028e-09 0)
(2.59125e-19 2.00428e-09 0)
(2.71242e-19 2.08922e-09 0)
(2.83602e-19 2.17512e-09 0)
(2.95367e-19 2.26197e-09 0)
(3.06538e-19 2.3498e-09 0)
(3.17962e-19 2.43862e-09 0)
(3.29623e-19 2.52844e-09 0)
(3.41523e-19 2.61927e-09 0)
(3.53639e-19 2.71114e-09 0)
(3.66823e-19 2.80405e-09 0)
(3.81102e-19 2.89803e-09 0)
(3.94712e-19 2.9931e-09 0)
(4.0949e-19 3.08928e-09 0)
(4.22728e-19 3.18658e-09 0)
(4.37132e-19 3.28504e-09 0)
(4.50867e-19 3.38468e-09 0)
(4.64845e-19 3.48552e-09 0)
(4.79e-19 3.58759e-09 0)
(4.94287e-19 3.69092e-09 0)
(5.07994e-19 3.79553e-09 0)
(5.21979e-19 3.90146e-09 0)
(5.3519e-19 4.00872e-09 0)
(5.50346e-19 4.11734e-09 0)
(5.65579e-19 4.22735e-09 0)
(5.80944e-19 4.33877e-09 0)
(5.96427e-19 4.45163e-09 0)
(6.12011e-19 4.56595e-09 0)
(6.27641e-19 4.68177e-09 0)
(6.44227e-19 4.79913e-09 0)
(6.60824e-19 4.91806e-09 0)
(6.77453e-19 5.03863e-09 0)
(6.94186e-19 5.16088e-09 0)
(7.09118e-19 5.28488e-09 0)
(7.24114e-19 5.4107e-09 0)
(7.39061e-19 5.53842e-09 0)
(7.53937e-19 5.66812e-09 0)
(7.68721e-19 5.79985e-09 0)
(7.83496e-19 5.93366e-09 0)
(7.96203e-19 6.06957e-09 0)
(8.10682e-19 6.20757e-09 0)
(8.24869e-19 6.34759e-09 0)
(8.3885e-19 6.48951e-09 0)
(8.52602e-19 6.63321e-09 0)
(8.66226e-19 6.77851e-09 0)
(8.77726e-19 6.92529e-09 0)
(8.89053e-19 7.07354e-09 0)
(9.00064e-19 7.22345e-09 0)
(9.10738e-19 7.37559e-09 0)
(9.21054e-19 7.53108e-09 0)
(9.30994e-19 7.69173e-09 0)
(9.40539e-19 7.86024e-09 0)
(9.4967e-19 8.0402e-09 0)
(9.58372e-19 8.23605e-09 0)
(9.66628e-19 8.45264e-09 0)
(9.74425e-19 8.6946e-09 0)
(9.81748e-19 8.96621e-09 0)
(9.88586e-19 9.27047e-09 0)
(9.94929e-19 9.59832e-09 0)
(1.00114e-18 9.91817e-09 0)
(1.00291e-18 1.02929e-08 0)
(1.00453e-18 1.10916e-08 0)
(1.00563e-18 1.14005e-08 0)
(1.00619e-18 -4.40503e-09 0)
(1.00622e-18 3.01034e-07 0)
(9.96239e-19 5.08231e-06 0)
(9.74928e-19 4.59444e-06 0)
(9.53001e-19 -2.06408e-07 0)
(9.30512e-19 -3.66271e-07 0)
(9.07336e-19 -1.84757e-09 0)
(8.83354e-19 2.93739e-08 0)
(8.58462e-19 1.21222e-09 0)
(8.32573e-19 -2.24003e-09 0)
(8.05609e-19 -2.11584e-10 0)
(7.77503e-19 1.71916e-10 0)
(7.48197e-19 2.40752e-11 0)
(7.17644e-19 -1.21745e-11 0)
(6.85809e-19 -2.42764e-12 0)
(6.5267e-19 1.02771e-12 0)
(6.18216e-19 4.00286e-13 0)
(5.82453e-19 1.08873e-13 0)
(5.45399e-19 1.48973e-13 0)
(5.07086e-19 1.77303e-13 0)
(4.67557e-19 1.75478e-13 0)
(4.26871e-19 1.70994e-13 0)
(3.85098e-19 1.68132e-13 0)
(3.42317e-19 1.67243e-13 0)
(2.98622e-19 1.67878e-13 0)
(2.54112e-19 1.68613e-13 0)
(2.08899e-19 1.67087e-13 0)
(1.631e-19 1.64561e-13 0)
(1.16837e-19 1.55168e-13 0)
(7.02411e-20 1.52594e-13 0)
(2.34428e-20 1.01317e-13 0)
)
;

boundaryField
{
    inlet
    {
        type            cyclic;
    }
    outlet
    {
        type            cyclic;
    }
    top
    {
        type            fixedValue;
        value           uniform (0 0 0);
    }
    bottom
    {
        type            fixedValue;
        value           uniform (0 0 0);
    }
    frontAndBackPlanes
    {
        type            empty;
    }
}


// ************************************************************************* //
