/*--------------------------------*- C++ -*----------------------------------*\
| =========                 |                                                 |
| \\      /  F ield         | OpenFOAM: The Open Source CFD Toolbox           |
|  \\    /   O peration     | Version:  2206                                  |
|   \\  /    A nd           | Website:  www.openfoam.com                      |
|    \\/     M anipulation  |                                                 |
\*---------------------------------------------------------------------------*/
FoamFile
{
    version     2.0;
    format      ascii;
    arch        "LSB;label=32;scalar=64";
    class       volScalarField;
    location    "13";
    object      p_rbgh;
}
// * * * * * * * * * * * * * * * * * * * * * * * * * * * * * * * * * * * * * //

dimensions      [1 -1 -2 0 0 0 0];

internalField   nonuniform List<scalar> 
120
(
10.2802
10.2802
10.2802
10.2802
10.2802
10.2802
10.2802
10.2802
10.2802
10.2802
10.2802
10.2802
10.2803
10.2803
10.2803
10.2803
10.2803
10.2803
10.2803
10.2803
10.2804
10.2804
10.2804
10.2804
10.2805
10.2805
10.2805
10.2806
10.2806
10.2808
10.2809
10.2808
10.2808
10.2814
10.2822
10.2848
10.2858
10.2843
10.2844
10.2856
10.2864
10.2854
10.2776
10.2505
10.1805
10.0424
9.82251
9.52573
9.16881
8.76976
8.34006
7.88155
7.38718
6.84402
6.23822
5.56171
4.8198
4.03687
3.25555
2.52629
1.8913
1.37273
0.971454
0.673809
0.459977
0.309963
0.206578
0.136287
0.0889934
0.0574223
0.0364713
0.0226504
0.0136481
0.00791025
0.00438563
0.00236711
0.00118968
0.000524013
0.000479011
0.00159247
-0.00273453
0.000432308
-0.000174374
-8.40764e-05
-9.84589e-05
-9.40672e-05
-9.26324e-05
-9.14144e-05
-8.99439e-05
-8.84927e-05
-8.63143e-05
-8.43785e-05
-8.19587e-05
-7.90721e-05
-7.57577e-05
-7.25084e-05
-6.82655e-05
-6.46045e-05
-6.04259e-05
-5.61921e-05
-5.25962e-05
-4.90983e-05
-4.55451e-05
-4.24192e-05
-3.9711e-05
-3.70218e-05
-3.41092e-05
-3.1346e-05
-2.87715e-05
-2.61935e-05
-2.36031e-05
-2.08964e-05
-1.82685e-05
-1.5808e-05
-1.32696e-05
-1.06961e-05
-8.2966e-06
-6.08183e-06
-3.75937e-06
-1.26671e-06
)
;

boundaryField
{
    inlet
    {
        type            cyclic;
    }
    outlet
    {
        type            cyclic;
    }
    top
    {
        type            fixedValue;
        value           uniform 0;
    }
    bottom
    {
        type            fixedFluxPressure;
        gradient        uniform 0;
        value           uniform 10.2802;
    }
    frontAndBackPlanes
    {
        type            empty;
    }
}


// ************************************************************************* //
