/*--------------------------------*- C++ -*----------------------------------*\
| =========                 |                                                 |
| \\      /  F ield         | OpenFOAM: The Open Source CFD Toolbox           |
|  \\    /   O peration     | Version:  2206                                  |
|   \\  /    A nd           | Website:  www.openfoam.com                      |
|    \\/     M anipulation  |                                                 |
\*---------------------------------------------------------------------------*/
FoamFile
{
    version     2.0;
    format      ascii;
    arch        "LSB;label=32;scalar=64";
    class       volScalarField;
    location    "13";
    object      pa;
}
// * * * * * * * * * * * * * * * * * * * * * * * * * * * * * * * * * * * * * //

dimensions      [1 -1 -2 0 0 0 0];

internalField   nonuniform List<scalar> 
120
(
6.78852e-05
0.000271195
0.000837744
0.00206792
0.00441472
0.00850387
0.015212
0.0257316
0.0416891
0.0652845
0.0994865
0.148288
0.217045
0.312931
0.445526
0.627616
0.876224
1.214
1.671
2.28709
3.115
4.22432
5.70678
7.68398
10.3175
13.8197
18.4582
24.5365
32.2974
42.4493
55.7152
72.5416
92.7702
115.205
137.221
153.202
157.305
149.915
137.314
124.565
112.466
101.018
90.2521
80.2357
71.0119
62.5878
54.9293
47.9677
41.6171
35.7953
30.4376
25.5043
20.9819
16.8803
13.2271
10.0574
7.40118
5.26707
3.63105
2.43477
1.59676
1.03008
0.656903
0.415691
0.261719
0.164278
0.103025
0.0647746
0.0410762
0.026548
0.0177636
0.0125293
0.0094293
0.0075544
0.00634044
0.00543921
0.00478272
0.00391371
0.00449384
0.00124234
2.29906e-15
1.2525e-38
6.46941e-50
7.07298e-61
7.95923e-72
1.01719e-82
1.44542e-93
2.1568e-104
3.34892e-115
5.59242e-126
7.75795e-137
1.33722e-147
2.21063e-158
3.6772e-169
6.25795e-180
1.05642e-190
1.66011e-201
2.64787e-212
3.9502e-223
5.81436e-234
8.1536e-245
1.21227e-255
1.99773e-266
3.6291e-277
7.03404e-288
1.41923e-298
2.9432e-309
6.0528e-320
0
0
0
0
0
0
0
0
0
0
0
0
)
;

boundaryField
{
    inlet
    {
        type            cyclic;
    }
    outlet
    {
        type            cyclic;
    }
    top
    {
        type            slip;
    }
    bottom
    {
        type            zeroGradient;
    }
    frontAndBackPlanes
    {
        type            empty;
    }
}


// ************************************************************************* //
