/*--------------------------------*- C++ -*----------------------------------*\
| =========                 |                                                 |
| \\      /  F ield         | OpenFOAM: The Open Source CFD Toolbox           |
|  \\    /   O peration     | Version:  2206                                  |
|   \\  /    A nd           | Website:  www.openfoam.com                      |
|    \\/     M anipulation  |                                                 |
\*---------------------------------------------------------------------------*/
FoamFile
{
    version     2.0;
    format      ascii;
    arch        "LSB;label=32;scalar=64";
    class       surfaceScalarField;
    location    "13";
    object      phi.a;
}
// * * * * * * * * * * * * * * * * * * * * * * * * * * * * * * * * * * * * * //

dimensions      [0 3 -1 0 0 0 0];

oriented        oriented;

internalField   nonuniform List<scalar> 
119
(
9.04648e-15
2.37802e-14
3.35119e-14
4.78446e-14
5.95368e-14
7.42477e-14
8.84979e-14
1.03984e-13
1.20357e-13
1.3784e-13
1.56565e-13
1.7672e-13
1.98523e-13
2.22235e-13
2.48202e-13
2.76927e-13
3.09141e-13
3.45833e-13
3.88207e-13
4.37519e-13
4.94749e-13
5.60517e-13
6.36571e-13
7.29364e-13
8.52264e-13
1.02016e-12
1.27525e-12
1.74187e-12
2.54036e-12
2.83361e-12
3.28217e-12
3.96218e-12
5.05356e-12
6.68703e-12
9.43794e-12
1.44741e-11
2.3199e-11
3.67786e-11
5.58387e-11
8.10004e-11
1.13013e-10
1.52094e-10
1.97634e-10
2.48229e-10
3.01795e-10
3.55757e-10
4.07388e-10
4.54236e-10
4.94496e-10
5.27206e-10
5.52245e-10
5.70174e-10
5.81996e-10
5.88932e-10
5.92227e-10
5.93017e-10
5.92294e-10
5.91068e-10
5.90794e-10
5.93973e-10
6.04716e-10
6.29128e-10
6.75057e-10
7.5043e-10
8.60121e-10
9.98705e-10
1.1396e-09
1.22147e-09
1.13912e-09
7.44701e-10
-1.16968e-10
-1.55504e-09
-3.62376e-09
-6.33211e-09
-9.63724e-09
-1.49925e-08
-2.16186e-08
-3.05001e-08
-4.93684e-08
-6.70882e-07
-1.56702e-06
-1.77481e-06
-1.77617e-06
-1.77799e-06
-1.77945e-06
-1.78104e-06
-1.7823e-06
-1.78368e-06
-1.78478e-06
-1.78598e-06
-1.78691e-06
-1.78795e-06
-1.78875e-06
-1.78965e-06
-1.79033e-06
-1.79111e-06
-1.79168e-06
-1.79234e-06
-1.79282e-06
-1.79338e-06
-1.79378e-06
-1.79424e-06
-1.79457e-06
-1.79496e-06
-1.79522e-06
-1.79554e-06
-1.79574e-06
-1.79599e-06
-1.79614e-06
-1.79634e-06
-1.79645e-06
-1.7966e-06
-1.79666e-06
-1.79678e-06
-1.79678e-06
-1.79688e-06
-1.79686e-06
-1.79692e-06
-1.7969e-06
)
;

boundaryField
{
    inlet
    {
        type            cyclic;
        value           nonuniform List<scalar> 
120
(
-1.03151e-12
-3.07021e-12
-5.08448e-12
-7.07433e-12
-9.03977e-12
-1.09808e-11
-1.28974e-11
-1.47896e-11
-1.66574e-11
-1.85008e-11
-2.03198e-11
-2.21144e-11
-2.38847e-11
-2.56306e-11
-2.7352e-11
-2.90492e-11
-3.07219e-11
-3.23703e-11
-3.39944e-11
-3.55941e-11
-3.71694e-11
-3.87204e-11
-4.02471e-11
-4.17494e-11
-4.32275e-11
-4.46812e-11
-4.61106e-11
-4.80739e-11
-5.35505e-11
-8.77398e-11
-4.4969e-10
-2.74327e-09
-9.30292e-09
-2.03934e-08
-3.51141e-08
-5.3218e-08
-7.5191e-08
-1.02019e-07
-1.35488e-07
-1.78243e-07
-2.33536e-07
-3.05321e-07
-3.98195e-07
-5.16788e-07
-6.64464e-07
-8.41785e-07
-1.04576e-06
-1.27042e-06
-1.50832e-06
-1.75199e-06
-1.99504e-06
-2.23246e-06
-2.46068e-06
-2.6773e-06
-2.88086e-06
-3.07063e-06
-3.24642e-06
-3.40858e-06
-3.55799e-06
-3.69604e-06
-3.82447e-06
-3.94507e-06
-4.0594e-06
-4.16863e-06
-4.27355e-06
-4.37466e-06
-4.47223e-06
-4.5664e-06
-4.65727e-06
-4.74489e-06
-4.82931e-06
-4.91071e-06
-4.98968e-06
-5.06778e-06
-5.14792e-06
-5.23481e-06
-5.33368e-06
-5.45587e-06
-5.58787e-06
-5.8457e-06
-6.42459e-06
-6.57274e-06
-6.59433e-06
-6.60403e-06
-6.61989e-06
-6.62863e-06
-6.64288e-06
-6.65073e-06
-6.66351e-06
-6.67055e-06
-6.68195e-06
-6.68824e-06
-6.69838e-06
-6.70396e-06
-6.71293e-06
-6.71787e-06
-6.72573e-06
-6.73006e-06
-6.73691e-06
-6.74067e-06
-6.74655e-06
-6.7498e-06
-6.75477e-06
-6.75754e-06
-6.76167e-06
-6.76399e-06
-6.76732e-06
-6.76924e-06
-6.77184e-06
-6.77338e-06
-6.77531e-06
-6.7765e-06
-6.77782e-06
-6.77869e-06
-6.77949e-06
-6.78005e-06
-6.78048e-06
-6.78074e-06
-6.78088e-06
-6.78093e-06
)
;
    }
    outlet
    {
        type            cyclic;
        value           nonuniform List<scalar> 
120
(
1.03151e-12
3.07021e-12
5.08448e-12
7.07433e-12
9.03977e-12
1.09808e-11
1.28974e-11
1.47896e-11
1.66574e-11
1.85008e-11
2.03198e-11
2.21144e-11
2.38847e-11
2.56306e-11
2.7352e-11
2.90492e-11
3.07219e-11
3.23703e-11
3.39944e-11
3.55941e-11
3.71694e-11
3.87204e-11
4.02471e-11
4.17494e-11
4.32275e-11
4.46812e-11
4.61106e-11
4.80739e-11
5.35505e-11
8.77398e-11
4.4969e-10
2.74327e-09
9.30292e-09
2.03934e-08
3.51141e-08
5.3218e-08
7.5191e-08
1.02019e-07
1.35488e-07
1.78243e-07
2.33536e-07
3.05321e-07
3.98195e-07
5.16788e-07
6.64464e-07
8.41785e-07
1.04576e-06
1.27042e-06
1.50832e-06
1.75199e-06
1.99504e-06
2.23246e-06
2.46068e-06
2.6773e-06
2.88086e-06
3.07063e-06
3.24642e-06
3.40858e-06
3.55799e-06
3.69604e-06
3.82447e-06
3.94507e-06
4.0594e-06
4.16863e-06
4.27355e-06
4.37466e-06
4.47223e-06
4.5664e-06
4.65727e-06
4.74489e-06
4.82931e-06
4.91071e-06
4.98968e-06
5.06778e-06
5.14792e-06
5.23481e-06
5.33368e-06
5.45587e-06
5.58787e-06
5.8457e-06
6.42459e-06
6.57274e-06
6.59433e-06
6.60403e-06
6.61989e-06
6.62863e-06
6.64288e-06
6.65073e-06
6.66351e-06
6.67055e-06
6.68195e-06
6.68824e-06
6.69838e-06
6.70396e-06
6.71293e-06
6.71787e-06
6.72573e-06
6.73006e-06
6.73691e-06
6.74067e-06
6.74655e-06
6.7498e-06
6.75477e-06
6.75754e-06
6.76167e-06
6.76399e-06
6.76732e-06
6.76924e-06
6.77184e-06
6.77338e-06
6.77531e-06
6.7765e-06
6.77782e-06
6.77869e-06
6.77949e-06
6.78005e-06
6.78048e-06
6.78074e-06
6.78088e-06
6.78093e-06
)
;
    }
    top
    {
        type            calculated;
        value           uniform -1.79692e-06;
    }
    bottom
    {
        type            fixedValue;
        value           uniform 0;
    }
    frontAndBackPlanes
    {
        type            empty;
        value           nonuniform List<scalar> 0();
    }
}


// ************************************************************************* //
