/*--------------------------------*- C++ -*----------------------------------*\
| =========                 |                                                 |
| \\      /  F ield         | OpenFOAM: The Open Source CFD Toolbox           |
|  \\    /   O peration     | Version:  2206                                  |
|   \\  /    A nd           | Website:  www.openfoam.com                      |
|    \\/     M anipulation  |                                                 |
\*---------------------------------------------------------------------------*/
FoamFile
{
    version     2.0;
    format      ascii;
    arch        "LSB;label=32;scalar=64";
    class       surfaceScalarField;
    location    "13";
    object      phi.b;
}
// * * * * * * * * * * * * * * * * * * * * * * * * * * * * * * * * * * * * * //

dimensions      [0 3 -1 0 0 0 0];

oriented        oriented;

internalField   nonuniform List<scalar> 
119
(
-1.44136e-14
-3.76737e-14
-5.29276e-14
-7.54641e-14
-9.39245e-14
-1.17194e-13
-1.39681e-13
-1.64034e-13
-1.89783e-13
-2.17272e-13
-2.46621e-13
-2.78184e-13
-3.12422e-13
-3.49663e-13
-3.90357e-13
-4.35372e-13
-4.85833e-13
-5.43242e-13
-6.09462e-13
-6.86497e-13
-7.75851e-13
-8.7842e-13
-9.96904e-13
-1.14138e-12
-1.33265e-12
-1.59382e-12
-1.99036e-12
-2.71465e-12
-3.95151e-12
-4.39872e-12
-5.08276e-12
-6.11555e-12
-7.76302e-12
-1.01999e-11
-1.42292e-11
-2.13822e-11
-3.31282e-11
-4.99063e-11
-7.06868e-11
-9.39076e-11
-1.17882e-10
-1.40609e-10
-1.60261e-10
-1.75683e-10
-1.8647e-10
-1.92777e-10
-1.95072e-10
-1.93935e-10
-1.89917e-10
-1.83465e-10
-1.74903e-10
-1.64445e-10
-1.52224e-10
-1.38349e-10
-1.22979e-10
-1.06417e-10
-8.9206e-11
-7.21722e-11
-5.63242e-11
-4.259e-11
-3.15217e-11
-2.31701e-11
-1.71755e-11
-1.29684e-11
-9.9676e-12
-7.68421e-12
-5.77293e-12
-4.042e-12
-2.44242e-12
-1.02526e-12
1.02144e-13
8.53227e-13
1.23197e-12
1.31852e-12
1.21703e-12
1.15059e-12
9.9926e-13
9.68881e-13
8.8688e-13
2.12715e-12
-3.44276e-16
-3.68587e-16
-3.93435e-16
-4.11543e-16
-4.18885e-16
-3.85444e-16
-3.52801e-16
-3.35734e-16
-3.48834e-16
-3.80621e-16
-4.17058e-16
-4.47725e-16
-4.64533e-16
-5.15062e-16
-5.10566e-16
-6.18188e-16
-5.32567e-16
-5.86703e-16
-5.9696e-16
-5.19686e-16
-4.95812e-16
-4.93485e-16
-4.44114e-16
-3.96941e-16
-3.91726e-16
-4.01138e-16
-3.67899e-16
-3.36676e-16
-3.27538e-16
-3.41409e-16
-3.58541e-16
-3.48147e-16
-3.31585e-16
-3.43905e-16
-3.537e-16
-3.38641e-16
-3.15342e-16
-3.31784e-16
-3.78636e-16
)
;

boundaryField
{
    inlet
    {
        type            cyclic;
        value           nonuniform List<scalar> 
120
(
-3.77792e-08
-3.83829e-08
-3.84036e-08
-3.84324e-08
-3.84555e-08
-3.84819e-08
-3.85079e-08
-3.85349e-08
-3.85624e-08
-3.85906e-08
-3.86196e-08
-3.86493e-08
-3.86799e-08
-3.87114e-08
-3.87439e-08
-3.87774e-08
-3.88121e-08
-3.8848e-08
-3.88853e-08
-3.89241e-08
-3.89649e-08
-3.9008e-08
-3.9054e-08
-3.91028e-08
-3.91537e-08
-3.9207e-08
-3.92662e-08
-3.93448e-08
-3.94779e-08
-3.96552e-08
-4.01778e-08
-4.26751e-08
-4.95047e-08
-6.09857e-08
-7.63246e-08
-9.5531e-08
-1.19504e-07
-1.49715e-07
-1.88427e-07
-2.38928e-07
-3.06399e-07
-4.01536e-07
-5.43738e-07
-7.47506e-07
-1.00821e-06
-1.30789e-06
-1.62613e-06
-1.94656e-06
-2.25843e-06
-2.55576e-06
-2.83568e-06
-3.09724e-06
-3.34048e-06
-3.56588e-06
-3.77414e-06
-3.966e-06
-4.14223e-06
-4.30368e-06
-4.45129e-06
-4.58616e-06
-4.7095e-06
-4.82256e-06
-4.92654e-06
-5.02255e-06
-5.11153e-06
-5.19432e-06
-5.27161e-06
-5.344e-06
-5.41199e-06
-5.476e-06
-5.53641e-06
-5.59353e-06
-5.64764e-06
-5.69898e-06
-5.74777e-06
-5.7942e-06
-5.83842e-06
-5.8806e-06
-5.92086e-06
-5.95933e-06
-5.99612e-06
-6.03132e-06
-6.06503e-06
-6.09732e-06
-6.12827e-06
-6.15795e-06
-6.18642e-06
-6.21373e-06
-6.23995e-06
-6.26511e-06
-6.28927e-06
-6.31246e-06
-6.33472e-06
-6.35609e-06
-6.3766e-06
-6.39628e-06
-6.41515e-06
-6.43324e-06
-6.45058e-06
-6.46719e-06
-6.48308e-06
-6.49827e-06
-6.51278e-06
-6.52663e-06
-6.53982e-06
-6.55237e-06
-6.56428e-06
-6.57556e-06
-6.58622e-06
-6.59626e-06
-6.60568e-06
-6.61447e-06
-6.62263e-06
-6.63015e-06
-6.637e-06
-6.64317e-06
-6.64861e-06
-6.65327e-06
-6.657e-06
-6.65987e-06
)
;
    }
    outlet
    {
        type            cyclic;
        value           nonuniform List<scalar> 
120
(
3.77792e-08
3.83829e-08
3.84036e-08
3.84324e-08
3.84555e-08
3.84819e-08
3.85079e-08
3.85349e-08
3.85624e-08
3.85906e-08
3.86196e-08
3.86493e-08
3.86799e-08
3.87114e-08
3.87439e-08
3.87774e-08
3.88121e-08
3.8848e-08
3.88853e-08
3.89241e-08
3.89649e-08
3.9008e-08
3.9054e-08
3.91028e-08
3.91537e-08
3.9207e-08
3.92662e-08
3.93448e-08
3.94779e-08
3.96552e-08
4.01778e-08
4.26751e-08
4.95047e-08
6.09857e-08
7.63246e-08
9.5531e-08
1.19504e-07
1.49715e-07
1.88427e-07
2.38928e-07
3.06399e-07
4.01536e-07
5.43738e-07
7.47506e-07
1.00821e-06
1.30789e-06
1.62613e-06
1.94656e-06
2.25843e-06
2.55576e-06
2.83568e-06
3.09724e-06
3.34048e-06
3.56588e-06
3.77414e-06
3.966e-06
4.14223e-06
4.30368e-06
4.45129e-06
4.58616e-06
4.7095e-06
4.82256e-06
4.92654e-06
5.02255e-06
5.11153e-06
5.19432e-06
5.27161e-06
5.344e-06
5.41199e-06
5.476e-06
5.53641e-06
5.59353e-06
5.64764e-06
5.69898e-06
5.74777e-06
5.7942e-06
5.83842e-06
5.8806e-06
5.92086e-06
5.95933e-06
5.99612e-06
6.03132e-06
6.06503e-06
6.09732e-06
6.12827e-06
6.15795e-06
6.18642e-06
6.21373e-06
6.23995e-06
6.26511e-06
6.28927e-06
6.31246e-06
6.33472e-06
6.35609e-06
6.3766e-06
6.39628e-06
6.41515e-06
6.43324e-06
6.45058e-06
6.46719e-06
6.48308e-06
6.49827e-06
6.51278e-06
6.52663e-06
6.53982e-06
6.55237e-06
6.56428e-06
6.57556e-06
6.58622e-06
6.59626e-06
6.60568e-06
6.61447e-06
6.62263e-06
6.63015e-06
6.637e-06
6.64317e-06
6.64861e-06
6.65327e-06
6.657e-06
6.65987e-06
)
;
    }
    top
    {
        type            calculated;
        value           uniform -4.04643e-16;
    }
    bottom
    {
        type            fixedValue;
        value           uniform 0;
    }
    frontAndBackPlanes
    {
        type            empty;
        value           nonuniform List<scalar> 0();
    }
}


// ************************************************************************* //
