/*--------------------------------*- C++ -*----------------------------------*\
| =========                 |                                                 |
| \\      /  F ield         | OpenFOAM: The Open Source CFD Toolbox           |
|  \\    /   O peration     | Version:  2206                                  |
|   \\  /    A nd           | Website:  www.openfoam.com                      |
|    \\/     M anipulation  |                                                 |
\*---------------------------------------------------------------------------*/
FoamFile
{
    version     2.0;
    format      ascii;
    arch        "LSB;label=32;scalar=64";
    class       volTensorField;
    location    "13";
    object      Taua;
}
// * * * * * * * * * * * * * * * * * * * * * * * * * * * * * * * * * * * * * //

dimensions      [1 -1 -2 0 0 0 0];

internalField   nonuniform List<tensor> 
120
(
(-0.408561 0 0 120.472 0.817122 0 0 0 -0.408561)
(0.0205411 0 0 119.04 -0.0410821 0 0 0 0.0205411)
(-0.158791 0 0 117.605 0.317582 0 0 0 -0.158791)
(-0.233866 0 0 116.171 0.467732 0 0 0 -0.233866)
(-0.190778 0 0 114.737 0.381555 0 0 0 -0.190778)
(-0.240034 0 0 113.303 0.480067 0 0 0 -0.240034)
(-0.232513 -6.17858e-16 0 111.869 0.465027 0 0 0 -0.232513)
(-0.252682 0 0 110.435 0.505364 0 0 0 -0.252682)
(-0.267138 0 0 109.002 0.534277 0 0 0 -0.267138)
(-0.285255 -6.17859e-16 0 107.569 0.57051 0 0 0 -0.285255)
(-0.305501 0 0 106.137 0.611003 0 0 0 -0.305501)
(-0.328829 0 0 104.704 0.657659 0 0 0 -0.328829)
(-0.355701 0 0 103.272 0.711403 0 0 0 -0.355701)
(-0.386841 0 0 101.84 0.773682 0 0 0 -0.386841)
(-0.423607 0 0 100.409 0.847214 0 0 0 -0.423607)
(-0.468577 0 0 98.9773 0.937154 0 0 0 -0.468577)
(-0.525467 0 0 97.5463 1.05093 0 0 0 -0.525467)
(-0.598472 0 0 96.1157 1.19694 0 0 0 -0.598472)
(-0.691113 0 0 94.6853 1.38223 0 0 0 -0.691113)
(-0.804226 0 0 93.2552 1.60845 0 0 0 -0.804226)
(-0.933306 0 0 91.8254 1.86661 0 0 0 -0.933306)
(-1.07243 0 0 90.3959 2.14486 0 0 0 -1.07243)
(-1.24003 0 0 88.9668 2.48006 0 0 0 -1.24003)
(-1.5129 0 0 87.538 3.02579 0 0 0 -1.5129)
(-2.00406 0 0 86.1096 4.00812 0 0 0 -2.00406)
(-2.73547 0 0 84.6815 5.47095 0 0 0 -2.73547)
(-4.12221 0 0 99.6489 8.24442 0 0 0 -4.12221)
(-3.12532 0 0 94.2654 6.25065 0 0 0 -3.12532)
(-0.654944 0 0 84.9026 1.30989 0 0 0 -0.654944)
(0.243506 0 0 75.3837 -0.487013 0 0 0 0.243506)
(0.09812 0 0 68.8298 -0.19624 0 0 0 0.09812)
(-0.0308121 0 0 67.0915 0.0616242 0 0 0 -0.0308121)
(-0.0516017 0 0 69.109 0.103203 0 0 0 -0.0516017)
(-0.0689733 0 0 71.0707 0.137947 0 0 0 -0.0689733)
(-0.0438099 0 0 71.3789 0.0876198 0 0 0 -0.0438099)
(0.0721619 0 0 70.3447 -0.144324 0 0 0 0.0721619)
(0.08 0 0 69.2496 -0.16 0 0 0 0.08)
(-0.0174938 0 0 68.1233 0.0349875 0 0 0 -0.0174938)
(-0.0400159 0 0 66.553 0.0800319 0 0 0 -0.0400159)
(-0.0165195 0 0 65.0643 0.033039 0 0 0 -0.0165195)
(-0.00836589 0 0 63.6543 0.0167318 0 0 0 -0.00836589)
(-0.00770155 0 0 62.2172 0.0154031 0 0 0 -0.00770155)
(-0.00722437 0 0 60.6085 0.0144487 0 0 0 -0.00722437)
(-0.0062074 0 0 58.5627 0.0124148 0 0 0 -0.0062074)
(-0.00510997 0 0 55.7793 0.0102199 0 0 0 -0.00510997)
(-0.0040945 0 0 52.1176 0.008189 0 0 0 -0.0040945)
(-0.00318952 0 0 47.6836 0.00637904 0 0 0 -0.00318952)
(-0.0024053 0 0 42.747 0.00481059 0 0 0 -0.0024053)
(-0.00174735 0 0 37.6082 0.0034947 0 0 0 -0.00174735)
(-0.00121485 0 0 32.5149 0.0024297 0 0 0 -0.00121485)
(-0.000801147 0 0 27.6395 0.00160229 0 0 0 -0.000801147)
(-0.000494698 0 0 23.0904 0.000989397 0 0 0 -0.000494698)
(-0.000280148 0 0 18.9327 0.000560296 0 0 0 -0.000280148)
(-0.000139908 0 0 15.2057 0.000279817 0 0 0 -0.000139908)
(-5.58458e-05 0 0 11.934 0.000111692 0 0 0 -5.58458e-05)
(-1.10779e-05 0 0 9.13193 2.21558e-05 0 0 0 -1.10779e-05)
(8.07112e-06 0 0 6.80123 -1.61422e-05 0 0 0 8.07112e-06)
(1.06583e-05 0 0 4.92681 -2.13167e-05 0 0 0 1.06583e-05)
(1.53487e-06 0 0 3.47333 -3.06974e-06 0 0 0 1.53487e-06)
(-1.62147e-05 0 0 2.38727 3.24293e-05 0 0 0 -1.62147e-05)
(-3.8843e-05 0 0 1.60415 7.76861e-05 0 0 0 -3.8843e-05)
(-6.13221e-05 0 0 1.05744 0.000122644 0 0 0 -6.13221e-05)
(-7.83033e-05 0 0 0.686176 0.000156607 0 0 0 -7.83033e-05)
(-8.58077e-05 0 0 0.439627 0.000171615 0 0 0 -8.58077e-05)
(-8.20501e-05 0 0 0.278755 0.0001641 0 0 0 -8.20501e-05)
(-6.73565e-05 0 0 0.175246 0.000134713 0 0 0 -6.73565e-05)
(-4.40643e-05 0 0 0.109418 8.81286e-05 0 0 0 -4.40643e-05)
(-1.6274e-05 0 0 0.0679843 3.25481e-05 0 0 0 -1.6274e-05)
(1.10969e-05 0 0 0.0421582 -2.21939e-05 0 0 0 1.10969e-05)
(3.32962e-05 0 0 0.0262166 -6.65924e-05 0 0 0 3.32962e-05)
(4.72782e-05 0 0 0.0164743 -9.45564e-05 0 0 0 4.72782e-05)
(5.2635e-05 0 0 0.0105777 -0.00010527 0 0 0 5.2635e-05)
(5.12356e-05 0 0 0.00703318 -0.000102471 0 0 0 5.12356e-05)
(4.48708e-05 0 0 0.0049029 -8.97417e-05 0 0 0 4.48708e-05)
(4.5007e-05 0 0 0.00361341 -9.0014e-05 0 0 0 4.5007e-05)
(3.27299e-05 0 0 0.00278074 -6.54599e-05 0 0 0 3.27299e-05)
(6.45598e-05 0 0 0.00229889 -0.00012912 0 0 0 6.45598e-05)
(-1.37967e-05 0 0 0.00164755 2.75934e-05 0 0 0 -1.37967e-05)
(0.000137144 0 0 0.00244616 -0.000274288 0 0 0 0.000137144)
(0.000278612 0 0 0.000663528 -0.000557224 0 0 0 0.000278612)
(1.17044e-25 0 0 1.84172e-25 -2.34088e-25 0 0 0 1.17044e-25)
(3.69593e-54 0 0 4.51403e-54 -7.39187e-54 0 0 0 3.69593e-54)
(1.67444e-78 0 0 6.98192e-77 -3.34888e-78 0 0 0 1.67444e-78)
(2.70228e-100 0 0 6.82253e-99 -5.40456e-100 0 0 0 2.70228e-100)
(2.74966e-122 0 0 8.3293e-121 -5.49932e-122 0 0 0 2.74966e-122)
(4.88472e-144 0 0 1.27252e-142 -9.76945e-144 0 0 0 4.88472e-144)
(7.85971e-166 0 0 2.47435e-164 -1.57194e-165 0 0 0 7.85971e-166)
(1.91232e-187 0 0 5.14447e-186 -3.82464e-187 0 0 0 1.91232e-187)
(3.65107e-209 0 0 1.19306e-207 -7.30213e-209 0 0 0 3.65107e-209)
(1.12052e-230 0 0 3.09933e-229 -2.24104e-230 0 0 0 1.12052e-230)
(1.68128e-252 0 0 5.72763e-251 -3.36256e-252 0 0 0 1.68128e-252)
(5.56877e-274 0 0 1.581e-272 -1.11375e-273 0 0 0 5.56877e-274)
(1.17145e-295 0 0 4.14088e-294 -2.34291e-295 0 0 0 1.17145e-295)
(3.63425e-317 0 0 1.06047e-315 -7.2685e-317 0 0 0 3.63425e-317)
(0 0 0 0 -0 0 0 0 0)
(0 0 0 0 -0 0 0 0 0)
(0 0 0 0 -0 0 0 0 0)
(0 0 0 0 -0 0 0 0 0)
(0 0 0 0 -0 0 0 0 0)
(0 0 0 0 -0 0 0 0 0)
(0 0 0 0 -0 0 0 0 0)
(0 0 0 0 -0 0 0 0 0)
(0 0 0 0 -0 0 0 0 0)
(0 0 0 0 -0 0 0 0 0)
(0 0 0 0 -0 0 0 0 0)
(0 0 0 0 -0 0 0 0 0)
(0 0 0 0 -0 0 0 0 0)
(0 0 0 0 -0 0 0 0 0)
(0 0 0 0 -0 0 0 0 0)
(0 0 0 0 -0 0 0 0 0)
(0 0 0 0 -0 0 0 0 0)
(0 0 0 0 -0 0 0 0 0)
(0 0 0 0 -0 0 0 0 0)
(0 0 0 0 -0 0 0 0 0)
(0 0 0 0 -0 0 0 0 0)
(0 0 0 0 -0 0 0 0 0)
(-0 0 0 0 0 0 0 0 -0)
(0 0 0 0 -0 0 0 0 0)
(-0 0 0 0 0 0 0 0 -0)
(0 0 0 0 -0 0 0 0 0)
)
;

boundaryField
{
    inlet
    {
        type            cyclic;
    }
    outlet
    {
        type            cyclic;
    }
    top
    {
        type            extrapolatedCalculated;
        value           uniform (0 0 0 0 0 0 0 0 0);
    }
    bottom
    {
        type            extrapolatedCalculated;
        value           uniform (-0.82762 0 0 121.186 1.65524 0 0 0 -0.82762);
    }
    frontAndBackPlanes
    {
        type            empty;
    }
}


// ************************************************************************* //
