/*--------------------------------*- C++ -*----------------------------------*\
| =========                 |                                                 |
| \\      /  F ield         | OpenFOAM: The Open Source CFD Toolbox           |
|  \\    /   O peration     | Version:  2206                                  |
|   \\  /    A nd           | Website:  www.openfoam.com                      |
|    \\/     M anipulation  |                                                 |
\*---------------------------------------------------------------------------*/
FoamFile
{
    version     2.0;
    format      ascii;
    arch        "LSB;label=32;scalar=64";
    class       volTensorField;
    location    "13";
    object      Taub;
}
// * * * * * * * * * * * * * * * * * * * * * * * * * * * * * * * * * * * * * //

dimensions      [1 -1 -2 0 0 0 0];

internalField   nonuniform List<tensor> 
120
(
(3.39208e-10 0 0 0.00346763 -6.78417e-10 0 0 0 3.39208e-10)
(6.178e-10 0 0 2.84363e-05 -1.2356e-09 0 0 0 6.178e-10)
(4.09099e-10 0 0 2.25693e-06 -8.18198e-10 0 0 0 4.09099e-10)
(5.11261e-10 0 0 2.36434e-06 -1.02252e-09 0 0 0 5.11261e-10)
(5.3277e-10 0 0 2.25438e-06 -1.06554e-09 0 0 0 5.3277e-10)
(5.31956e-10 0 0 2.39024e-06 -1.06391e-09 0 0 0 5.31956e-10)
(6.1142e-10 2.87682e-24 0 2.41397e-06 -1.22284e-09 0 0 0 6.1142e-10)
(6.0167e-10 0 0 2.48164e-06 -1.20334e-09 0 0 0 6.0167e-10)
(6.60326e-10 0 0 2.5421e-06 -1.32065e-09 0 0 0 6.60326e-10)
(6.96191e-10 1.91916e-24 0 2.60866e-06 -1.39238e-09 0 0 0 6.96191e-10)
(7.46244e-10 0 0 2.67885e-06 -1.49249e-09 0 0 0 7.46244e-10)
(8.02829e-10 0 0 2.75386e-06 -1.60566e-09 0 0 0 8.02829e-10)
(8.6996e-10 0 0 2.83431e-06 -1.73992e-09 0 0 0 8.6996e-10)
(9.46804e-10 0 0 2.92099e-06 -1.89361e-09 0 0 0 9.46804e-10)
(1.03677e-09 0 0 3.01446e-06 -2.07355e-09 0 0 0 1.03677e-09)
(1.14746e-09 0 0 3.11531e-06 -2.29493e-09 0 0 0 1.14746e-09)
(1.28731e-09 0 0 3.22486e-06 -2.57461e-09 0 0 0 1.28731e-09)
(1.46557e-09 0 0 3.34557e-06 -2.93114e-09 0 0 0 1.46557e-09)
(1.69058e-09 0 0 3.482e-06 -3.38116e-09 0 0 0 1.69058e-09)
(1.96525e-09 0 0 3.64217e-06 -3.93051e-09 0 0 0 1.96525e-09)
(2.27352e-09 0 0 3.83885e-06 -4.54704e-09 0 0 0 2.27352e-09)
(2.62248e-09 0 0 4.07963e-06 -5.24495e-09 0 0 0 2.62248e-09)
(3.02296e-09 0 0 4.33994e-06 -6.04592e-09 0 0 0 3.02296e-09)
(3.77783e-09 0 0 4.56818e-06 -7.55566e-09 0 0 0 3.77783e-09)
(4.82651e-09 0 0 4.77312e-06 -9.65302e-09 0 0 0 4.82651e-09)
(6.90185e-09 0 0 5.15518e-06 -1.38037e-08 0 0 0 6.90185e-09)
(1.00783e-08 0 0 6.3235e-06 -2.01566e-08 0 0 0 1.00783e-08)
(1.9386e-08 0 0 9.71526e-06 -3.87721e-08 0 0 0 1.9386e-08)
(3.02589e-08 0 0 1.42597e-05 -6.05178e-08 0 0 0 3.02589e-08)
(9.26296e-09 0 0 3.21982e-05 -1.85259e-08 0 0 0 9.26296e-09)
(3.06129e-08 0 0 0.000139106 -6.12257e-08 0 0 0 3.06129e-08)
(2.72214e-08 0 0 0.000430365 -5.44428e-08 0 0 0 2.72214e-08)
(1.18379e-08 0 0 0.000847107 -2.36758e-08 0 0 0 1.18379e-08)
(5.79799e-08 0 0 0.00124581 -1.1596e-07 0 0 0 5.79799e-08)
(6.75435e-08 0 0 0.00161543 -1.35087e-07 0 0 0 6.75435e-08)
(2.17943e-07 0 0 0.00204528 -4.35885e-07 0 0 0 2.17943e-07)
(4.45399e-07 0 0 0.00263616 -8.90798e-07 0 0 0 4.45399e-07)
(4.57741e-07 0 0 0.00355437 -9.15481e-07 0 0 0 4.57741e-07)
(5.70433e-07 0 0 0.0052464 -1.14087e-06 0 0 0 5.70433e-07)
(1.00489e-06 0 0 0.00924767 -2.00978e-06 0 0 0 1.00489e-06)
(1.89257e-06 0 0 0.0220313 -3.78513e-06 0 0 0 1.89257e-06)
(4.07048e-06 0 0 0.073575 -8.14096e-06 0 0 0 4.07048e-06)
(8.44425e-06 0 0 0.27881 -1.68885e-05 0 0 0 8.44425e-06)
(1.57606e-05 0 0 0.915085 -3.15212e-05 0 0 0 1.57606e-05)
(2.43905e-05 0 0 2.34573 -4.87809e-05 0 0 0 2.43905e-05)
(2.80246e-05 0 0 4.7775 -5.60493e-05 0 0 0 2.80246e-05)
(1.80067e-05 0 0 8.1173 -3.60134e-05 0 0 0 1.80067e-05)
(-1.01751e-05 0 0 12.0582 2.03501e-05 0 0 0 -1.01751e-05)
(-5.81862e-05 0 0 16.2516 0.000116372 0 0 0 -5.81862e-05)
(-0.000125983 0 0 20.4154 0.000251966 0 0 0 -0.000125983)
(-0.000213629 0 0 24.3613 0.000427257 0 0 0 -0.000213629)
(-0.00032196 0 0 27.9771 0.00064392 0 0 0 -0.00032196)
(-0.000452237 0 0 31.2007 0.000904474 0 0 0 -0.000452237)
(-0.000604787 0 0 33.9977 0.00120957 0 0 0 -0.000604787)
(-0.000776436 0 0 36.3497 0.00155287 0 0 0 -0.000776436)
(-0.000956637 0 0 38.2485 0.00191327 0 0 0 -0.000956637)
(-0.00112359 0 0 39.6973 0.00224718 0 0 0 -0.00112359)
(-0.00124453 0 0 40.7136 0.00248906 0 0 0 -0.00124453)
(-0.00128521 0 0 41.3311 0.00257042 0 0 0 -0.00128521)
(-0.00122735 0 0 41.5994 0.0024547 0 0 0 -0.00122735)
(-0.00108187 0 0 41.5792 0.00216374 0 0 0 -0.00108187)
(-0.00088568 0 0 41.3355 0.00177136 0 0 0 -0.00088568)
(-0.000684045 0 0 40.9287 0.00136809 0 0 0 -0.000684045)
(-0.000512226 0 0 40.4087 0.00102445 0 0 0 -0.000512226)
(-0.0003874 0 0 39.8129 0.0007748 0 0 0 -0.0003874)
(-0.000310847 0 0 39.1679 0.000621693 0 0 0 -0.000310847)
(-0.000273138 0 0 38.4915 0.000546277 0 0 0 -0.000273138)
(-0.000258509 0 0 37.7954 0.000517019 0 0 0 -0.000258509)
(-0.000249085 0 0 37.0871 0.00049817 0 0 0 -0.000249085)
(-0.000229101 0 0 36.3716 0.000458202 0 0 0 -0.000229101)
(-0.000189027 0 0 35.6518 0.000378055 0 0 0 -0.000189027)
(-0.000131118 0 0 34.9296 0.000262235 0 0 0 -0.000131118)
(-6.85831e-05 0 0 34.2063 0.000137166 0 0 0 -6.85831e-05)
(-1.58637e-05 0 0 33.4824 3.17275e-05 0 0 0 -1.58637e-05)
(1.30238e-05 0 0 32.7584 -2.60477e-05 0 0 0 1.30238e-05)
(2.15007e-05 0 0 32.0346 -4.30014e-05 0 0 0 2.15007e-05)
(2.60829e-05 0 0 31.311 -5.21659e-05 0 0 0 2.60829e-05)
(3.24284e-05 0 0 30.588 -6.48567e-05 0 0 0 3.24284e-05)
(-8.70239e-05 0 0 29.8649 0.000174048 0 0 0 -8.70239e-05)
(-2.6135e-05 0 0 29.1428 5.227e-05 0 0 0 -2.6135e-05)
(0.000229297 0 0 28.4207 -0.000458594 0 0 0 0.000229297)
(0.000105575 0 0 27.699 -0.00021115 0 0 0 0.000105575)
(-3.64256e-05 0 0 26.9777 7.28513e-05 0 0 0 -3.64256e-05)
(6.46838e-06 0 0 26.2567 -1.29368e-05 0 0 0 6.46838e-06)
(-1.06704e-06 0 0 25.536 2.13407e-06 0 0 0 -1.06704e-06)
(2.38541e-07 0 0 24.8156 -4.77082e-07 0 0 0 2.38541e-07)
(-4.99947e-08 0 0 24.0955 9.99894e-08 0 0 0 -4.99947e-08)
(-9.30458e-09 0 0 23.3757 1.86092e-08 0 0 0 -9.30458e-09)
(3.43761e-09 0 0 22.6561 -6.87521e-09 0 0 0 3.43761e-09)
(8.03566e-09 0 0 21.9367 -1.60713e-08 0 0 0 8.03566e-09)
(8.53937e-09 0 0 21.2175 -1.70787e-08 0 0 0 8.53937e-09)
(6.69797e-09 0 0 20.4986 -1.33959e-08 0 0 0 6.69797e-09)
(6.84045e-09 0 0 19.7798 -1.36809e-08 0 0 0 6.84045e-09)
(7.33364e-09 0 0 19.0612 -1.46673e-08 0 0 0 7.33364e-09)
(9.84631e-09 0 0 18.3427 -1.96926e-08 0 0 0 9.84631e-09)
(7.99908e-09 0 0 17.6244 -1.59982e-08 0 0 0 7.99908e-09)
(-7.58519e-10 0 0 16.9061 1.51704e-09 0 0 0 -7.58519e-10)
(2.08722e-09 0 0 16.188 -4.17444e-09 0 0 0 2.08722e-09)
(7.0165e-11 0 0 15.4699 -1.4033e-10 0 0 0 7.0165e-11)
(-1.04784e-08 0 0 14.752 2.09568e-08 0 0 0 -1.04784e-08)
(-8.11623e-09 0 0 14.034 1.62325e-08 0 0 0 -8.11623e-09)
(-4.94621e-09 0 0 13.3161 9.89242e-09 0 0 0 -4.94621e-09)
(-9.07215e-09 0 0 12.5982 1.81443e-08 0 0 0 -9.07215e-09)
(-9.16213e-09 0 0 11.8802 1.83243e-08 0 0 0 -9.16213e-09)
(-3.19593e-09 0 0 11.1623 6.39186e-09 0 0 0 -3.19593e-09)
(-1.23633e-09 0 0 10.4442 2.47266e-09 0 0 0 -1.23633e-09)
(-5.05025e-09 0 0 9.72612 1.01005e-08 0 0 0 -5.05025e-09)
(-6.11518e-09 0 0 9.00789 1.22304e-08 0 0 0 -6.11518e-09)
(-2.2248e-09 0 0 8.28952 4.44959e-09 0 0 0 -2.2248e-09)
(1.98575e-09 0 0 7.57099 -3.97151e-09 0 0 0 1.98575e-09)
(2.27879e-09 0 0 6.85226 -4.55758e-09 0 0 0 2.27879e-09)
(-8.38063e-10 0 0 6.13329 1.67613e-09 0 0 0 -8.38063e-10)
(-1.52507e-09 0 0 5.41404 3.05014e-09 0 0 0 -1.52507e-09)
(7.52272e-10 0 0 4.69445 -1.50454e-09 0 0 0 7.52272e-10)
(7.22806e-10 0 0 3.97463 -1.44561e-09 0 0 0 7.22806e-10)
(-1.64404e-09 0 0 3.25367 3.28809e-09 0 0 0 -1.64404e-09)
(-1.61211e-09 0 0 2.5359 3.22423e-09 0 0 0 -1.61211e-09)
(1.34491e-09 0 0 1.79956 -2.68983e-09 0 0 0 1.34491e-09)
(3.83112e-09 0 0 1.14852 -7.66224e-09 0 0 0 3.83112e-09)
(1.13587e-09 0 0 0.224482 -2.27174e-09 0 0 0 1.13587e-09)
)
;

boundaryField
{
    inlet
    {
        type            cyclic;
    }
    outlet
    {
        type            cyclic;
    }
    top
    {
        type            extrapolatedCalculated;
        value           uniform (0 0 0 0 0 0 0 0 0);
    }
    bottom
    {
        type            extrapolatedCalculated;
        value           uniform (-9.11997e-11 0 0 0.00688029 1.82399e-10 0 0 0 -9.11997e-11);
    }
    frontAndBackPlanes
    {
        type            empty;
    }
}


// ************************************************************************* //
