/*--------------------------------*- C++ -*----------------------------------*\
| =========                 |                                                 |
| \\      /  F ield         | OpenFOAM: The Open Source CFD Toolbox           |
|  \\    /   O peration     | Version:  2206                                  |
|   \\  /    A nd           | Website:  www.openfoam.com                      |
|    \\/     M anipulation  |                                                 |
\*---------------------------------------------------------------------------*/
FoamFile
{
    version     2.0;
    format      ascii;
    arch        "LSB;label=32;scalar=64";
    class       volScalarField;
    location    "13";
    object      Theta;
}
// * * * * * * * * * * * * * * * * * * * * * * * * * * * * * * * * * * * * * //

dimensions      [0 2 -2 0 0 0 0];

internalField   nonuniform List<scalar> 
120
(
6.8061e-11
2.73803e-10
8.48635e-10
2.10812e-09
4.52278e-09
8.76198e-09
1.57619e-08
2.68169e-08
4.37053e-08
6.88583e-08
1.05587e-07
1.58387e-07
2.3335e-07
3.38708e-07
4.85576e-07
6.88929e-07
9.68925e-07
1.35267e-06
1.87659e-06
2.58959e-06
3.55731e-06
4.86787e-06
6.63958e-06
9.03105e-06
1.22547e-05
1.65949e-05
2.24351e-05
3.03011e-05
4.09443e-05
5.53603e-05
7.48566e-05
0.000101228
0.000136515
0.000182491
0.000241777
0.00032017
0.000429156
0.000588644
0.000829063
0.00119129
0.00172548
0.00248834
0.00353122
0.0048786
0.00650354
0.00831124
0.0101457
0.0118243
0.0131862
0.0141296
0.0146244
0.0147025
0.0144366
0.0139174
0.0132363
0.0124737
0.0116933
0.0109401
0.0102412
0.00960797
0.00904032
0.00853155
0.00807262
0.00765548
0.00727524
0.00693199
0.00663313
0.00639729
0.00626135
0.00629265
0.00660765
0.00739645
0.00894626
0.011663
0.0160843
0.0228949
0.0326891
0.0461068
0.0607292
0.0783516
0.00528551
2.27671e-15
1.06076e-15
1.06021e-15
1.05883e-15
1.05826e-15
1.05711e-15
1.05662e-15
1.05563e-15
1.05521e-15
1.05435e-15
1.05399e-15
1.05325e-15
1.05294e-15
1.05231e-15
1.05205e-15
1.05151e-15
1.0513e-15
1.05084e-15
1.05066e-15
1.05028e-15
1.05012e-15
1.04981e-15
1.04969e-15
1.04943e-15
1.04933e-15
1.04913e-15
1.04905e-15
1.0489e-15
1.04884e-15
1.04872e-15
1.04869e-15
1.0486e-15
1.04858e-15
1.04853e-15
1.04853e-15
1.04848e-15
1.0485e-15
1.04847e-15
1.04849e-15
)
;

boundaryField
{
    inlet
    {
        type            cyclic;
    }
    outlet
    {
        type            cyclic;
    }
    top
    {
        type            zeroGradient;
    }
    bottom
    {
        type            zeroGradient;
    }
    frontAndBackPlanes
    {
        type            empty;
    }
}


// ************************************************************************* //
