/*--------------------------------*- C++ -*----------------------------------*\
| =========                 |                                                 |
| \\      /  F ield         | OpenFOAM: The Open Source CFD Toolbox           |
|  \\    /   O peration     | Version:  2206                                  |
|   \\  /    A nd           | Website:  www.openfoam.com                      |
|    \\/     M anipulation  |                                                 |
\*---------------------------------------------------------------------------*/
FoamFile
{
    version     2.0;
    format      ascii;
    arch        "LSB;label=32;scalar=64";
    class       volVectorField;
    location    "13";
    object      U.a;
}
// * * * * * * * * * * * * * * * * * * * * * * * * * * * * * * * * * * * * * //

dimensions      [0 1 -1 0 0 0 0];

internalField   nonuniform List<vector> 
120
(
(3.69617e-07 7.57272e-09 0)
(1.10014e-06 7.38062e-09 0)
(1.82191e-06 6.82092e-09 0)
(2.53492e-06 1.31924e-08 0)
(3.23919e-06 1.53804e-08 0)
(3.93471e-06 2.01748e-08 0)
(4.62148e-06 2.41656e-08 0)
(5.29951e-06 2.86848e-08 0)
(5.96879e-06 3.34138e-08 0)
(6.62933e-06 3.84621e-08 0)
(7.28113e-06 4.38541e-08 0)
(7.92419e-06 4.96434e-08 0)
(8.55852e-06 5.58892e-08 0)
(9.18411e-06 6.2662e-08 0)
(9.80097e-06 7.00476e-08 0)
(1.04091e-05 7.8166e-08 0)
(1.10085e-05 8.71974e-08 0)
(1.15991e-05 9.7398e-08 0)
(1.21811e-05 1.09101e-07 0)
(1.27543e-05 1.22693e-07 0)
(1.33188e-05 1.38536e-07 0)
(1.38746e-05 1.56851e-07 0)
(1.44216e-05 1.77786e-07 0)
(1.49599e-05 2.02236e-07 0)
(1.54896e-05 2.33157e-07 0)
(1.60105e-05 2.75583e-07 0)
(1.65226e-05 3.33274e-07 0)
(1.72261e-05 4.26452e-07 0)
(1.91886e-05 5.98436e-07 0)
(3.14395e-05 7.5538e-07 0)
(0.000161136 -7.77131e-07 0)
(0.000982988 -3.31404e-06 0)
(0.00333348 3.59361e-06 0)
(0.00730748 1.08529e-05 0)
(0.0125823 3.05212e-05 0)
(0.0190694 3.25101e-05 0)
(0.0269429 -1.36736e-05 0)
(0.0365562 -2.80943e-05 0)
(0.0485488 2.97127e-06 0)
(0.0638691 2.11724e-05 0)
(0.0836822 2.97318e-05 0)
(0.109405 3.91262e-05 0)
(0.142684 5.16424e-05 0)
(0.185179 6.62225e-05 0)
(0.238095 8.19819e-05 0)
(0.301634 9.8228e-05 0)
(0.374724 0.000114184 0)
(0.455227 0.000129049 0)
(0.54047 0.000142162 0)
(0.627786 0.000153102 0)
(0.714876 0.000161711 0)
(0.799951 0.000168072 0)
(0.881726 0.000172435 0)
(0.959346 0.000175148 0)
(1.03229 0.000176591 0)
(1.10029 0.000177127 0)
(1.16328 0.000177068 0)
(1.22139 0.000176696 0)
(1.27492 0.000176344 0)
(1.32439 0.000176559 0)
(1.37041 0.000178289 0)
(1.41362 0.000183041 0)
(1.45459 0.000192934 0)
(1.49373 0.000210465 0)
(1.53133 0.000237868 0)
(1.56756 0.000275658 0)
(1.60252 0.000319954 0)
(1.63626 0.000358663 0)
(1.66882 0.000367572 0)
(1.70022 0.000308158 0)
(1.73047 0.000132687 0)
(1.75964 -0.000203378 0)
(1.78794 -0.000725136 0)
(1.81592 -0.00143345 0)
(1.84464 -0.00228195 0)
(1.87577 -0.00366986 0)
(1.9112 -0.00463229 0)
(1.95498 -0.0103433 0)
(2.00228 -0.00234408 0)
(2.09467 -0.0338383 0)
(2.3021 -0.380023 0)
(2.35519 -0.530523 0)
(2.36292 -0.529417 0)
(2.3664 -0.53133 0)
(2.37208 -0.530505 0)
(2.37521 -0.532203 0)
(2.38032 -0.531454 0)
(2.38313 -0.532958 0)
(2.38771 -0.532278 0)
(2.39023 -0.533609 0)
(2.39432 -0.532995 0)
(2.39657 -0.534168 0)
(2.40021 -0.533617 0)
(2.40221 -0.534646 0)
(2.40542 -0.534153 0)
(2.40719 -0.535053 0)
(2.41001 -0.534615 0)
(2.41156 -0.535394 0)
(2.41401 -0.53501 0)
(2.41536 -0.535682 0)
(2.41747 -0.535342 0)
(2.41863 -0.535924 0)
(2.42042 -0.535617 0)
(2.42141 -0.536123 0)
(2.42288 -0.535846 0)
(2.42372 -0.536281 0)
(2.42491 -0.536033 0)
(2.4256 -0.536402 0)
(2.42653 -0.536185 0)
(2.42708 -0.536492 0)
(2.42777 -0.536304 0)
(2.4282 -0.536555 0)
(2.42867 -0.536396 0)
(2.42899 -0.536589 0)
(2.42927 -0.536469 0)
(2.42947 -0.536589 0)
(2.42963 -0.536528 0)
(2.42972 -0.536579 0)
(2.42977 -0.536562 0)
(2.42979 -0.536569 0)
)
;

boundaryField
{
    inlet
    {
        type            cyclic;
    }
    outlet
    {
        type            cyclic;
    }
    top
    {
        type            zeroGradient;
    }
    bottom
    {
        type            fixedValue;
        value           uniform (0 0 0);
    }
    frontAndBackPlanes
    {
        type            empty;
    }
}


// ************************************************************************* //
