/*--------------------------------*- C++ -*----------------------------------*\
| =========                 |                                                 |
| \\      /  F ield         | OpenFOAM: The Open Source CFD Toolbox           |
|  \\    /   O peration     | Version:  2206                                  |
|   \\  /    A nd           | Website:  www.openfoam.com                      |
|    \\/     M anipulation  |                                                 |
\*---------------------------------------------------------------------------*/
FoamFile
{
    version     2.0;
    format      ascii;
    arch        "LSB;label=32;scalar=64";
    class       volVectorField;
    location    "13";
    object      U.b;
}
// * * * * * * * * * * * * * * * * * * * * * * * * * * * * * * * * * * * * * //

dimensions      [0 1 -1 0 0 0 0];

internalField   nonuniform List<vector> 
120
(
(0.0135373 5.38319e-10 0)
(0.0137536 -8.54722e-09 0)
(0.013761 -1.40446e-08 0)
(0.0137714 -1.82026e-08 0)
(0.0137796 -2.61083e-08 0)
(0.0137891 -3.07716e-08 0)
(0.0137984 -3.86555e-08 0)
(0.0138081 -4.51901e-08 0)
(0.0138179 -5.28409e-08 0)
(0.013828 -6.0755e-08 0)
(0.0138384 -6.92475e-08 0)
(0.0138491 -7.8337e-08 0)
(0.01386 -8.81581e-08 0)
(0.0138713 -9.88238e-08 0)
(0.013883 -1.10449e-07 0)
(0.013895 -1.23226e-07 0)
(0.0139074 -1.37449e-07 0)
(0.0139203 -1.53509e-07 0)
(0.0139336 -1.71915e-07 0)
(0.0139475 -1.93254e-07 0)
(0.0139622 -2.18102e-07 0)
(0.0139776 -2.46668e-07 0)
(0.0139941 -2.79694e-07 0)
(0.0140116 -3.17638e-07 0)
(0.0140298 -3.6835e-07 0)
(0.0140489 -4.30857e-07 0)
(0.0140701 -5.30179e-07 0)
(0.0140983 -6.6705e-07 0)
(0.014146 -9.84211e-07 0)
(0.0142095 -1.37496e-06 0)
(0.0143968 -1.20066e-06 0)
(0.0152916 -2.08939e-06 0)
(0.0177389 -1.83485e-06 0)
(0.0218528 -2.36445e-06 0)
(0.0273491 -3.17663e-06 0)
(0.0342313 -3.91714e-06 0)
(0.0428215 -8.12279e-06 0)
(0.0536469 -1.37584e-05 0)
(0.0675185 -1.76644e-05 0)
(0.0856141 -2.41856e-05 0)
(0.109791 -3.14449e-05 0)
(0.143881 -3.92016e-05 0)
(0.194836 -4.556e-05 0)
(0.267851 -5.04656e-05 0)
(0.361267 -5.41594e-05 0)
(0.468651 -5.67292e-05 0)
(0.582687 -5.80559e-05 0)
(0.697503 -5.82522e-05 0)
(0.809257 -5.74824e-05 0)
(0.915795 -5.59076e-05 0)
(1.0161 -5.36531e-05 0)
(1.10982 -5.08031e-05 0)
(1.19698 -4.74084e-05 0)
(1.27775 -4.35011e-05 0)
(1.35238 -3.91155e-05 0)
(1.42112 -3.43137e-05 0)
(1.48427 -2.92188e-05 0)
(1.54212 -2.40395e-05 0)
(1.59502 -1.90632e-05 0)
(1.64334 -1.45969e-05 0)
(1.68754 -1.08737e-05 0)
(1.72805 -7.98467e-06 0)
(1.76531 -5.87455e-06 0)
(1.79971 -4.3917e-06 0)
(1.8316 -3.3538e-06 0)
(1.86126 -2.59491e-06 0)
(1.88896 -1.98807e-06 0)
(1.9149 -1.45311e-06 0)
(1.93926 -9.55945e-07 0)
(1.9622 -5.00101e-07 0)
(1.98384 -1.13473e-07 0)
(2.00431 1.69757e-07 0)
(2.0237 3.35366e-07 0)
(2.0421 3.97042e-07 0)
(2.05958 3.86364e-07 0)
(2.07621 3.5635e-07 0)
(2.09206 3.20962e-07 0)
(2.10718 2.78977e-07 0)
(2.1216 2.27006e-07 0)
(2.13539 5.25607e-07 0)
(2.14857 2.99557e-07 0)
(2.16118 -9.87389e-08 0)
(2.17326 1.72255e-08 0)
(2.18483 -2.94833e-09 0)
(2.19592 4.77576e-10 0)
(2.20656 -2.24935e-10 0)
(2.21676 -1.23278e-10 0)
(2.22655 -1.00511e-10 0)
(2.23594 -1.00372e-10 0)
(2.24496 -1.08892e-10 0)
(2.25361 -1.19793e-10 0)
(2.26192 -1.29376e-10 0)
(2.2699 -1.35759e-10 0)
(2.27756 -1.45597e-10 0)
(2.28491 -1.53079e-10 0)
(2.29196 -1.68785e-10 0)
(2.29872 -1.71887e-10 0)
(2.3052 -1.67002e-10 0)
(2.31142 -1.76798e-10 0)
(2.31737 -1.67168e-10 0)
(2.32306 -1.51986e-10 0)
(2.3285 -1.47843e-10 0)
(2.3337 -1.40124e-10 0)
(2.33867 -1.25891e-10 0)
(2.34339 -1.1771e-10 0)
(2.34789 -1.17969e-10 0)
(2.35216 -1.14598e-10 0)
(2.3562 -1.05023e-10 0)
(2.36002 -9.85853e-11 0)
(2.36362 -9.90514e-11 0)
(2.36699 -1.04071e-10 0)
(2.37014 -1.05561e-10 0)
(2.37306 -1.0158e-10 0)
(2.37576 -1.00813e-10 0)
(2.37822 -1.04057e-10 0)
(2.38043 -1.0336e-10 0)
(2.38238 -9.77509e-11 0)
(2.38404 -9.64594e-11 0)
(2.38538 -1.04485e-10 0)
(2.38641 -1.20127e-10 0)
)
;

boundaryField
{
    inlet
    {
        type            cyclic;
    }
    outlet
    {
        type            cyclic;
    }
    top
    {
        type            zeroGradient;
    }
    bottom
    {
        type            fixedValue;
        value           uniform (0 0 0);
    }
    frontAndBackPlanes
    {
        type            empty;
    }
}


// ************************************************************************* //
