/*--------------------------------*- C++ -*----------------------------------*\
| =========                 |                                                 |
| \\      /  F ield         | OpenFOAM: The Open Source CFD Toolbox           |
|  \\    /   O peration     | Version:  2206                                  |
|   \\  /    A nd           | Website:  www.openfoam.com                      |
|    \\/     M anipulation  |                                                 |
\*---------------------------------------------------------------------------*/
FoamFile
{
    version     2.0;
    format      ascii;
    arch        "LSB;label=32;scalar=64";
    class       volScalarField;
    location    "1.2";
    object      alpha.a_0;
}
// * * * * * * * * * * * * * * * * * * * * * * * * * * * * * * * * * * * * * //

dimensions      [0 0 0 0 0 0 0];

internalField   nonuniform List<scalar> 
13078
(
0.5771863
0.5716796
0.5815334
0.5812616
0.5806324
0.5798936
0.5790324
0.5740482
0.58203
0.5819519
0.5813251
0.5806647
0.5799151
0.5790528
0.5830688
0.5826634
0.58204
0.5813953
0.5807087
0.579946
0.5790789
0.58335
0.5827117
0.5820904
0.581448
0.5807497
0.5799781
0.579107
0.5833523
0.5827299
0.5821193
0.5814746
0.5807828
0.5800083
0.5791346
0.5833279
0.5827289
0.5821313
0.5814906
0.5807981
0.5800336
0.5791608
0.5833067
0.5827219
0.5821367
0.5815017
0.5808086
0.580044
0.5791838
0.5832919
0.5827143
0.5821392
0.5815077
0.5808148
0.5800511
0.5791917
0.5832817
0.582708
0.5821377
0.5815094
0.5808184
0.5800561
0.5791976
0.5832745
0.5827031
0.5821358
0.58151
0.5808207
0.5800598
0.5792021
0.5832694
0.5826994
0.5821341
0.5815101
0.5808222
0.5800625
0.579206
0.5832655
0.5826969
0.5821328
0.5815101
0.5808234
0.5800649
0.5792093
0.5832626
0.5826948
0.5821318
0.5815101
0.5808243
0.5800669
0.5792123
0.5832603
0.5826933
0.5821312
0.5815106
0.5808257
0.580069
0.5792153
0.5832584
0.5826922
0.582131
0.5815146
0.5808321
0.5800715
0.5792182
0.5832569
0.5826915
0.5821312
0.5815198
0.5808374
0.5800739
0.5792212
0.5832555
0.5826907
0.5821312
0.581521
0.5808391
0.5800761
0.5792243
0.5832543
0.5826903
0.5821314
0.581522
0.5808408
0.5800784
0.5792276
0.5832531
0.5826899
0.5821317
0.5815231
0.5808429
0.5800815
0.579231
0.583252
0.5826897
0.5821323
0.5815248
0.5808505
0.5800924
0.5792354
0.583251
0.5826894
0.5821329
0.5815268
0.5808598
0.5801015
0.5792399
0.5832497
0.5826891
0.5821335
0.5815283
0.5808631
0.5801054
0.5792442
0.5832485
0.582689
0.5821343
0.5815302
0.580866
0.5801099
0.5792497
0.5832471
0.5826888
0.5821352
0.5815323
0.58087
0.580122
0.5792667
0.5832455
0.5826885
0.582136
0.5815346
0.5808743
0.580137
0.5792815
0.5832437
0.5826882
0.5821371
0.5815372
0.5808784
0.5801437
0.5792891
0.5832414
0.5826877
0.5821382
0.58154
0.580883
0.5801502
0.579298
0.5832388
0.582687
0.5821392
0.581543
0.5808883
0.5801582
0.579318
0.5832357
0.5826861
0.5821403
0.5815464
0.5808941
0.5801672
0.5793429
0.5832333
0.5826862
0.5821417
0.58155
0.5809003
0.580176
0.5793562
0.5832301
0.5826857
0.5821427
0.5815538
0.5809071
0.5801858
0.5793702
0.5832246
0.5826857
0.582148
0.5815586
0.5809142
0.5801964
0.5793853
0.5832175
0.5826857
0.5821553
0.5815702
0.5809229
0.5802079
0.5794001
0.583209
0.5826828
0.5821615
0.5815788
0.5809321
0.5802202
0.5794161
0.5831992
0.5826788
0.5821637
0.5815908
0.5809518
0.5802355
0.5794333
0.5831881
0.5826747
0.5821658
0.5816062
0.5809776
0.5802651
0.5794538
0.5831765
0.5826711
0.5821686
0.5816165
0.5810035
0.5802891
0.5794758
0.5831657
0.5826694
0.5821736
0.5816268
0.5810206
0.5803226
0.5795172
0.5831572
0.5826711
0.5821824
0.581642
0.5810442
0.5803719
0.5795629
0.5831549
0.5826826
0.5822036
0.5816799
0.5811027
0.5804521
0.5796557
0.5831617
0.5827182
0.5822731
0.5817791
0.5812397
0.5805971
0.5797335
0.5831954
0.582804
0.582431
0.5820057
0.5814631
0.5806662
0.5794416
0.5832802
0.5829877
0.582702
0.582293
0.5815858
0.5803538
0.5786633
0.5834534
0.583263
0.5830004
0.5824283
0.5813132
0.579654
0.5776558
0.5837283
0.5835617
0.5831547
0.5821969
0.5807077
0.578804
0.576684
0.5840692
0.5837673
0.5830574
0.5816908
0.5799845
0.5781025
0.5759563
0.5844226
0.5837634
0.5826889
0.581135
0.5793587
0.577452
0.5755336
0.5847085
0.5835536
0.5822458
0.5806599
0.5788561
0.5770366
0.5750501
0.5848313
0.5832247
0.5818173
0.5801981
0.5784593
0.5767016
0.5748374
0.584777
0.5828995
0.5814173
0.5797603
0.5780347
0.5763736
0.574839
0.5845809
0.5826412
0.5811337
0.5793518
0.5776488
0.5760598
0.5746129
0.5842931
0.5824045
0.5808315
0.5790404
0.5773679
0.5758319
0.574319
0.5839955
0.5821965
0.5805498
0.5787829
0.5770779
0.5755083
0.5739839
0.5837415
0.5820426
0.5803787
0.57857
0.5767666
0.5751195
0.5737956
0.5835373
0.5819239
0.5802489
0.5784211
0.576568
0.574911
0.5736149
0.5833874
0.5818515
0.5801813
0.5783599
0.576511
0.5748705
0.5735512
0.5834109
0.5818766
0.5802038
0.5783848
0.5765415
0.5748983
0.5735536
0.5835967
0.5819788
0.5802942
0.5784691
0.5766312
0.5749738
0.5736309
0.5838354
0.5821261
0.5804472
0.578639
0.5768501
0.5751981
0.5738119
0.5841258
0.5823167
0.5806519
0.5788812
0.5771867
0.5756141
0.5740318
0.5844497
0.5825565
0.5809778
0.5791838
0.5775081
0.5759671
0.5744388
0.5847469
0.5828129
0.5812963
0.5795114
0.5778205
0.5762424
0.5748084
0.584931
0.5830725
0.5816133
0.5799759
0.5782664
0.5766216
0.5751098
0.5849656
0.5833962
0.5820404
0.5804612
0.5787479
0.5770149
0.57517
0.5848154
0.5837036
0.582474
0.580956
0.5791972
0.5773897
0.5754346
0.5845098
0.5838827
0.5828893
0.5814302
0.5797295
0.577869
0.5759823
0.5841396
0.5838585
0.5832096
0.5819524
0.58036
0.5785555
0.5764809
0.5837845
0.5836343
0.5832638
0.5823908
0.5810385
0.5792757
0.5772506
0.5834956
0.5833221
0.5830793
0.5825558
0.5815513
0.5800637
0.5782004
0.5833097
0.5830321
0.5827627
0.5823793
0.5817326
0.5806366
0.579096
0.5832153
0.5828338
0.5824746
0.5820678
0.5815536
0.5808113
0.5796822
0.5831756
0.5827391
0.5823041
0.5818233
0.5812944
0.5806656
0.5798381
0.5831651
0.5826995
0.5822282
0.5817095
0.5811362
0.580489
0.5797024
0.5831658
0.5826855
0.5822018
0.5816626
0.5810656
0.5803971
0.5795911
0.5831727
0.582681
0.5821886
0.5816436
0.581037
0.580341
0.5795379
0.5831822
0.58268
0.5821797
0.5816281
0.5810105
0.5803009
0.5794912
0.5831926
0.5826814
0.5821736
0.5816156
0.5809838
0.5802699
0.5794657
0.5832026
0.5826842
0.5821702
0.5815986
0.5809606
0.5802448
0.5794436
0.5832116
0.5826868
0.5821667
0.581585
0.5809391
0.580228
0.5794242
0.5832196
0.582689
0.5821596
0.5815752
0.5809286
0.5802139
0.5794064
0.5832265
0.5826885
0.5821514
0.5815625
0.5809187
0.5802012
0.57939
0.5832318
0.582688
0.5821454
0.581557
0.5809106
0.5801895
0.5793738
0.5832348
0.5826882
0.582144
0.5815526
0.5809031
0.5801788
0.5793589
0.5832369
0.5826877
0.5821422
0.5815484
0.5808962
0.5801694
0.579345
0.5832399
0.5826884
0.5821408
0.5815447
0.5808899
0.5801599
0.5793198
0.5832424
0.5826889
0.5821394
0.5815413
0.5808844
0.5801517
0.5792993
0.5832446
0.5826893
0.5821382
0.5815382
0.5808796
0.5801449
0.5792902
0.5832463
0.5826894
0.5821369
0.5815354
0.5808752
0.5801378
0.5792822
0.5832478
0.5826895
0.5821358
0.5815331
0.5808708
0.5801227
0.5792674
0.5832491
0.5826897
0.5821349
0.5815309
0.5808667
0.5801106
0.5792502
0.5832503
0.5826897
0.582134
0.5815289
0.5808637
0.5801059
0.5792446
0.5832514
0.5826898
0.5821334
0.5815272
0.5808601
0.5801019
0.5792403
0.5832523
0.58269
0.5821326
0.5815251
0.5808507
0.5800926
0.5792356
0.5832533
0.5826901
0.5821319
0.5815232
0.5808431
0.5800816
0.579231
0.5832543
0.5826903
0.5821313
0.581522
0.5808409
0.5800785
0.5792277
0.5832553
0.5826906
0.582131
0.5815209
0.5808392
0.5800762
0.5792245
0.5832565
0.5826911
0.5821309
0.5815197
0.5808374
0.580074
0.5792214
0.5832577
0.5826916
0.5821305
0.5815143
0.580832
0.5800716
0.5792184
0.5832591
0.5826924
0.5821305
0.5815102
0.5808256
0.580069
0.5792156
0.5832609
0.5826934
0.5821308
0.5815097
0.5808243
0.5800672
0.5792128
0.5832631
0.582695
0.5821315
0.5815096
0.5808234
0.5800654
0.5792101
0.583266
0.582697
0.5821326
0.5815095
0.5808224
0.5800634
0.5792073
0.5832699
0.5826997
0.5821339
0.5815095
0.5808213
0.5800612
0.5792041
0.583275
0.5827032
0.5821355
0.5815094
0.5808199
0.5800586
0.5792004
0.5832821
0.5827082
0.5821373
0.5815088
0.5808178
0.580055
0.5791958
0.5832922
0.5827145
0.5821362
0.5815052
0.580814
0.58005
0.5791894
0.583307
0.582722
0.5821346
0.5814985
0.5808075
0.5800425
0.5791685
0.5833281
0.5827293
0.5821315
0.5814904
0.5807978
0.5800208
0.5791444
0.5833521
0.5827304
0.5821197
0.5814755
0.5807719
0.5799945
0.5791185
0.5833486
0.5827121
0.5820941
0.581439
0.5807382
0.5799649
0.5790908
0.583058
0.5826712
0.5820326
0.5813865
0.580698
0.5799328
0.5790626
0.5741311
0.5821054
0.5819789
0.581315
0.5806505
0.5798994
0.5790348
0.5780175
0.5767453
0.5750504
0.5734412
0.5705871
0.5661238
0.5561338
0.5780401
0.5767739
0.575087
0.5734841
0.5706394
0.5661964
0.5565067
0.5780659
0.5768038
0.5751257
0.5729267
0.5706897
0.5662673
0.5567413
0.5780932
0.5768345
0.5751617
0.5735773
0.570743
0.5663387
0.5569596
0.5781203
0.5768656
0.5751999
0.5736216
0.570796
0.5664102
0.557123
0.5781468
0.5768969
0.5752385
0.5736675
0.5708485
0.5664814
0.5572832
0.5781725
0.5769277
0.5752767
0.5737118
0.5708644
0.5665525
0.5574406
0.5781955
0.5769579
0.5753144
0.573755
0.5708791
0.5666229
0.557596
0.5782027
0.5769856
0.5753502
0.5737988
0.5709215
0.5666864
0.5577502
0.5782082
0.5769937
0.5753834
0.5738423
0.5709633
0.5667499
0.5579031
0.578213
0.5769999
0.5753931
0.5738845
0.5710051
0.5668132
0.558055
0.5782174
0.5770059
0.5754007
0.5738944
0.5710471
0.5668766
0.5582055
0.5782216
0.5770118
0.5754084
0.5739035
0.5710554
0.5669412
0.5583545
0.5782257
0.5770175
0.5754162
0.5739128
0.5710646
0.5669554
0.5584984
0.5782298
0.5770235
0.5754242
0.5739224
0.5710743
0.5669717
0.5584996
0.578234
0.5770297
0.5754324
0.5739324
0.5710846
0.5669892
0.5585071
0.5782383
0.5770361
0.5754409
0.5739431
0.5711001
0.5670072
0.5585052
0.5782428
0.5770425
0.5754499
0.5739585
0.5712218
0.5670263
0.5585005
0.5782475
0.5770489
0.5754591
0.5739699
0.5712398
0.5670458
0.5585018
0.5782524
0.5770557
0.5754688
0.5739818
0.5712549
0.5670663
0.5584968
0.5782577
0.5770629
0.5754788
0.5739945
0.5712707
0.5670878
0.5584721
0.5782634
0.5770705
0.5754892
0.574008
0.5712872
0.5671103
0.558462
0.5782694
0.5770787
0.5755006
0.5740206
0.5713083
0.567134
0.5584497
0.5782771
0.5770875
0.5755135
0.5734757
0.5714252
0.5671697
0.558437
0.5782853
0.5770968
0.5755256
0.5740529
0.5714876
0.5671991
0.5584217
0.5782934
0.5771069
0.5755392
0.574069
0.5715121
0.5672272
0.5584031
0.5783041
0.577119
0.5755548
0.5740878
0.5715375
0.5672612
0.5583702
0.5783322
0.5771324
0.5755706
0.5741075
0.5715711
0.5675024
0.5583335
0.5783545
0.577472
0.5760141
0.5741276
0.571603
0.5675986
0.5583082
0.5783708
0.577484
0.5760303
0.574151
0.5716338
0.56764
0.5582771
0.5784106
0.5775292
0.5760509
0.5741762
0.5716674
0.5678087
0.5582504
0.5784433
0.5775759
0.5760735
0.5742043
0.5717042
0.5680191
0.5582269
0.5784651
0.5776437
0.5761029
0.5742349
0.5717442
0.5680813
0.5582418
0.5784853
0.5776745
0.5761695
0.5742677
0.5717871
0.5681592
0.5591001
0.5785066
0.5777021
0.5762484
0.5743045
0.571832
0.5682294
0.5592535
0.5785294
0.57773
0.5763489
0.574357
0.5718739
0.5682983
0.5623482
0.5785524
0.5777591
0.576384
0.5744708
0.5719052
0.5683641
0.5609341
0.57858
0.5777872
0.5764135
0.5745426
0.5718885
0.5683247
0.5628729
0.5786122
0.5778127
0.5764021
0.5744912
0.5714867
0.5675492
0.5642497
0.5786229
0.5777826
0.5760763
0.5736298
0.5704323
0.5669737
0.5642364
0.5783627
0.5773054
0.574928
0.5720613
0.569057
0.5670532
0.562247
0.5776254
0.5762175
0.5734174
0.5702799
0.5677043
0.5667864
0.5608534
0.5764001
0.5750081
0.5720827
0.5691316
0.5669071
0.566464
0.5599692
0.5751772
0.5737402
0.5707301
0.5676038
0.5662042
0.5656025
0.559537
0.5742366
0.572726
0.5695329
0.5662214
0.5657681
0.5644219
0.557877
0.5734728
0.5716737
0.5678408
0.5654215
0.5647734
0.5639776
0.5573089
0.5728591
0.5708941
0.5670092
0.5644504
0.5645507
0.5638991
0.5604942
0.5724719
0.570214
0.5666684
0.5640844
0.5638178
0.5644052
0.5635563
0.5722164
0.5700893
0.5663441
0.5635179
0.5640371
0.5636374
0.5640389
0.5720525
0.5695044
0.5653458
0.5640761
0.5641471
0.5638973
0.5641856
0.5715896
0.5693425
0.5655681
0.5653219
0.5648732
0.5632511
0.562915
0.5710659
0.5683184
0.5662409
0.5652856
0.5642556
0.5629769
0.5606854
0.5709478
0.5681929
0.5655528
0.5646669
0.564494
0.5633826
0.5619658
0.5707266
0.5676111
0.5650363
0.5646798
0.5646773
0.5657793
0.5640099
0.570741
0.567496
0.5644967
0.5639833
0.566043
0.5675417
0.5615484
0.570749
0.567447
0.5649983
0.5641494
0.5662002
0.5677671
0.5707508
0.5675875
0.5655071
0.5635442
0.5661471
0.5678767
0.5706996
0.567396
0.5652273
0.5645664
0.5668384
0.567719
0.5706925
0.5671174
0.5662472
0.5668704
0.5658507
0.5660409
0.5641951
0.5709918
0.567412
0.5664771
0.5655814
0.5655763
0.5643975
0.5607032
0.5712805
0.5676
0.5661022
0.5648183
0.5649933
0.5641556
0.5621046
0.5719411
0.5682667
0.5661122
0.565087
0.5651413
0.565631
0.5617617
0.5724671
0.5693294
0.5659619
0.5651186
0.5660529
0.5652861
0.5619944
0.5726868
0.569985
0.5667452
0.564744
0.5652188
0.5642708
0.5641799
0.5730072
0.5704966
0.56707
0.564238
0.564043
0.5649671
0.5649328
0.5734176
0.5708386
0.5679122
0.5640909
0.5641221
0.5646157
0.5627577
0.5740919
0.5716902
0.5684794
0.5655426
0.5643417
0.5648491
0.5623008
0.5749208
0.5724546
0.5697809
0.566462
0.5650942
0.5642656
0.5616738
0.5758061
0.5734764
0.5709928
0.5676985
0.5655854
0.5641964
0.5606075
0.5769466
0.574641
0.5720188
0.5692305
0.5662248
0.5648862
0.5585956
0.5779749
0.5759472
0.5734218
0.570241
0.5674298
0.5657361
0.5589825
0.5785481
0.5770534
0.5747169
0.5715631
0.5686243
0.5665563
0.5606885
0.5786952
0.577679
0.5758071
0.573146
0.5700981
0.5669371
0.5624632
0.5786442
0.5778025
0.5763644
0.5742305
0.5709998
0.5668977
0.5640385
0.5786013
0.5777865
0.5764354
0.5745809
0.5717338
0.5679432
0.5640777
0.5785689
0.5777591
0.576415
0.5745093
0.5719098
0.5684346
0.562482
0.5785426
0.5777319
0.5763807
0.5744274
0.5719017
0.5683541
0.5610027
0.5785173
0.5777049
0.576319
0.5743369
0.5718648
0.5682776
0.5595912
0.5784935
0.5776785
0.5762228
0.5742938
0.5718185
0.5682014
0.5591818
0.5784714
0.5776517
0.5761305
0.5742576
0.5717722
0.5681266
0.558813
0.5784481
0.5775972
0.5760929
0.574224
0.5717286
0.5680546
0.558228
0.5784143
0.5775521
0.5760654
0.5741932
0.5716888
0.5679747
0.5582419
0.5783733
0.5774924
0.5760428
0.5741655
0.5716524
0.5676779
0.5582618
0.5783564
0.5774702
0.5760215
0.574141
0.5716197
0.5676204
0.5582888
0.5783337
0.5771336
0.5755717
0.5741138
0.5715887
0.567578
0.5583126
0.5783053
0.5771201
0.5755557
0.5740944
0.5715536
0.5673547
0.5583419
0.5782943
0.5771078
0.5755402
0.574076
0.5715246
0.5672418
0.5583755
0.5782861
0.5770975
0.5755263
0.5740588
0.5714994
0.5672123
0.5583964
0.5782777
0.5770879
0.5755131
0.5740424
0.5714727
0.5671847
0.5584167
0.5782698
0.5770791
0.575501
0.5740268
0.5713466
0.5671492
0.55843
0.5782637
0.5770708
0.5754895
0.5740121
0.571295
0.5671206
0.5584431
0.578258
0.577063
0.5754787
0.5739985
0.571278
0.5670975
0.5584589
0.5782526
0.5770558
0.5754686
0.5739854
0.5712618
0.5670755
0.5584683
0.5782475
0.577049
0.5754589
0.5739732
0.5712465
0.5670545
0.5584792
0.5782429
0.5770425
0.5754498
0.5739616
0.571232
0.5670345
0.5584849
0.5782384
0.5770361
0.5754409
0.5739478
0.5711664
0.5670152
0.558485
0.5782341
0.5770298
0.5754324
0.5739352
0.5710893
0.5669967
0.5584853
0.57823
0.5770238
0.5754244
0.5739248
0.571079
0.5669791
0.5584841
0.5782261
0.577018
0.5754165
0.5739147
0.571069
0.5669622
0.558486
0.5782222
0.5770125
0.5754089
0.5739051
0.5710598
0.5669465
0.558406
0.5782184
0.577007
0.5754016
0.5738956
0.5710509
0.5669074
0.5582581
0.5782145
0.5770013
0.5753943
0.5738865
0.5710261
0.5668442
0.5581084
0.5782103
0.5769956
0.5753851
0.5738604
0.5709848
0.5667809
0.5579573
0.5782055
0.5769881
0.5753523
0.5738171
0.5709431
0.5667177
0.5578054
0.5781993
0.5769613
0.5753173
0.5737732
0.5709015
0.5666543
0.5576524
0.5781775
0.576932
0.5752802
0.5737288
0.5708613
0.5665877
0.5574986
0.5781532
0.576902
0.5752425
0.5736864
0.570874
0.5665169
0.5573435
0.5781277
0.5768712
0.5752043
0.5736413
0.5708234
0.5664459
0.5571866
0.5781011
0.5768399
0.5751658
0.5735964
0.5707709
0.5663748
0.5570272
0.5780734
0.5768083
0.5751273
0.5735514
0.5707184
0.5663035
0.5568449
0.5780457
0.5767772
0.5750891
0.5735072
0.5706658
0.5662323
0.5566161
0.5780187
0.576746
0.5750512
0.5734636
0.5706134
0.5661607
0.5563308
0.004183672
6.989937e-09
6.502323e-14
1.45896e-19
1.670224e-25
1.167686e-31
5.61121e-38
1.916668e-44
3.751556e-51
6.694095e-58
1.115233e-64
1.808437e-71
3.227455e-78
6.64899e-85
2.865779e-91
8.351622e-98
3.790596e-104
1.561272e-110
0.008204082
3.882932e-09
9.763818e-15
2.179109e-20
2.961728e-26
2.550208e-32
1.584233e-38
7.328334e-45
2.071531e-51
5.438605e-58
1.307822e-64
2.866617e-71
5.931142e-78
1.137319e-84
2.957409e-91
2.262091e-98
2.345912e-105
2.24916e-112
0.00862293
1.662294e-08
2.392753e-14
3.140966e-20
3.244503e-26
2.44689e-32
1.480856e-38
7.203209e-45
2.30755e-51
6.714055e-58
1.873501e-64
4.940862e-71
1.198309e-77
2.617312e-84
7.645183e-91
6.686469e-98
7.562629e-105
7.350921e-112
0.009243587
2.081567e-08
3.545452e-14
5.391348e-20
5.972464e-26
4.608173e-32
2.788773e-38
1.369545e-44
4.481068e-51
1.40016e-57
4.198234e-64
1.199317e-70
3.196499e-77
7.7913e-84
2.506245e-90
2.446162e-97
3.12656e-104
3.396323e-111
0.01004581
2.424708e-08
4.841129e-14
8.211348e-20
1.006224e-25
8.441637e-32
5.498287e-38
2.878907e-44
1.023733e-50
3.477626e-57
1.159303e-63
3.647352e-70
1.070268e-76
2.896547e-83
2.2907e-92
1.51188e-96
1.463281e-103
2.046256e-110
0.01101679
2.825377e-08
6.356869e-14
1.2068e-19
1.649744e-25
1.52173e-31
1.094248e-37
6.326575e-44
2.488815e-50
9.60718e-57
3.602171e-63
1.283681e-69
4.157025e-76
1.25647e-82
2.957431e-89
7.581048e-96
1.084763e-102
1.537607e-109
0.0121402
3.314793e-08
8.328936e-14
1.760758e-19
2.671489e-25
2.746826e-31
2.200433e-37
1.433477e-43
6.43238e-50
2.847711e-56
1.221077e-62
4.915368e-69
1.820099e-75
6.129692e-82
1.958872e-88
4.671148e-95
7.743016e-102
1.224277e-108
0.01340201
3.920866e-08
1.095521e-13
2.563204e-19
4.336786e-25
4.948806e-31
4.490438e-37
3.332029e-43
1.717956e-49
8.986163e-56
4.412377e-62
2.028844e-68
8.50339e-75
3.257899e-81
1.165301e-87
3.120707e-94
5.796664e-101
1.052142e-107
0.01479105
4.704146e-08
1.456859e-13
3.776616e-19
7.127382e-25
9.127796e-31
9.36762e-37
7.99732e-43
4.829581e-49
2.919199e-55
1.675599e-61
8.851815e-68
4.245123e-74
1.837901e-80
7.363545e-87
2.227892e-93
4.727796e-100
9.862574e-107
0.01629777
5.678617e-08
1.964614e-13
5.651579e-19
1.200006e-24
1.726107e-30
2.017228e-36
1.990722e-42
1.411798e-48
9.971987e-55
6.656881e-61
4.043837e-67
2.23505e-73
1.091586e-79
4.950483e-86
1.718506e-92
4.161113e-99
9.847699e-106
0.0179156
6.90745e-08
2.674676e-13
8.656081e-19
2.073516e-24
3.387567e-30
4.51871e-36
5.181454e-42
4.32405e-48
3.58474e-54
2.76953e-60
1.950442e-66
1.228506e-72
6.8623e-79
3.515992e-85
1.388436e-91
3.7855e-98
1.017314e-104
0.01964256
8.548336e-08
3.758676e-13
1.376618e-18
3.774274e-24
7.013888e-30
1.08342e-35
1.444422e-41
1.411563e-47
1.372433e-53
1.227192e-59
9.908017e-66
7.134924e-72
4.520273e-78
2.618175e-84
1.164675e-90
3.667749e-97
1.109143e-103
0.02147851
1.080513e-07
5.554612e-13
2.350068e-18
7.462704e-24
1.602507e-29
2.8689e-35
4.43297e-41
5.033517e-47
5.668227e-53
5.820848e-59
5.394936e-65
4.416439e-71
3.169693e-77
2.09481e-83
1.032339e-89
3.666496e-96
1.266297e-102
0.02355879
1.612082e-07
9.890326e-13
4.934141e-18
1.899075e-23
4.746043e-29
9.629627e-35
1.672239e-40
2.142424e-46
2.712459e-52
3.172334e-58
3.297081e-64
3.034991e-70
2.466505e-76
1.821108e-82
1.005463e-88
4.068657e-95
1.585162e-101
0.03244554
3.152574e-07
2.488964e-12
1.514673e-17
6.685759e-23
1.951217e-28
4.634415e-34
9.344146e-40
1.411017e-45
2.122069e-51
2.891348e-57
3.519523e-63
3.764611e-69
3.525953e-75
2.961485e-81
1.81304e-87
8.613835e-94
3.845594e-100
0.0357487
2.751921e-09
1.093645e-12
7.152012e-18
3.132602e-23
9.475756e-29
2.730573e-34
7.326695e-40
1.479382e-45
2.857656e-51
4.785273e-57
6.922745e-63
8.715874e-69
9.510444e-75
9.361562e-81
6.595387e-87
3.626233e-93
1.901513e-99
0.03721368
4.218112e-07
0
7.785256e-18
4.932896e-23
1.599712e-28
3.949937e-34
9.920218e-40
2.284565e-45
5.552137e-51
1.218885e-56
2.34838e-62
3.907079e-68
5.553817e-74
6.946391e-80
6.115955e-86
4.392642e-92
2.958563e-98
0.03920354
4.378477e-07
4.727833e-12
0
7.700949e-23
3.514901e-28
1.070466e-33
2.584993e-39
5.234785e-45
1.229674e-50
2.816554e-56
5.847082e-62
1.059109e-67
1.643559e-73
2.273736e-79
2.203828e-85
1.694458e-91
1.238222e-97
0.04184126
4.620078e-07
6.205668e-12
5.540821e-17
2.126503e-25
6.161761e-28
2.552433e-33
7.80689e-39
1.743004e-44
4.312949e-50
1.108611e-55
2.727221e-61
5.836013e-67
1.050481e-72
1.64646e-78
1.754719e-84
1.528602e-90
1.229034e-96
0.04451825
5.319898e-07
8.475522e-12
9.527763e-17
7.538632e-22
1.319305e-29
8.28984e-33
3.325004e-38
8.958638e-44
2.158947e-49
4.720509e-55
1.005759e-60
2.023203e-66
3.701261e-72
7.248503e-78
7.042928e-84
6.994993e-90
6.372891e-96
0.04721695
6.453929e-07
9.782381e-12
1.166179e-16
1.047062e-21
6.275892e-27
0
5.515893e-38
2.194303e-43
8.237174e-49
2.435883e-54
5.89282e-60
1.23169e-65
2.313444e-71
4.912001e-77
3.006033e-83
5.573389e-89
8.218478e-95
0.05002305
8.603759e-07
1.351504e-11
1.662498e-16
1.656805e-21
1.148073e-26
7.004672e-32
0
6.35501e-43
2.716275e-48
1.103419e-53
3.514835e-59
8.970462e-65
1.883129e-70
3.654057e-76
3.934426e-82
4.687957e-88
5.000434e-94
0.05300349
1.107727e-06
2.029373e-11
2.825442e-16
3.153963e-21
2.454225e-26
1.680106e-31
1.042079e-36
7.794937e-44
1.317935e-47
5.395631e-53
2.046054e-58
6.358788e-64
1.626549e-69
3.644558e-75
4.543174e-81
6.015994e-87
7.02819e-93
0.05614259
1.40893e-06
3.039051e-11
4.868988e-16
6.09542e-21
5.251707e-26
4.008469e-31
2.789848e-36
1.636698e-41
1.567876e-48
2.820471e-52
1.125352e-57
4.079749e-63
1.215647e-68
3.291335e-74
4.964208e-80
7.811978e-86
1.049496e-91
0.05951644
1.741209e-06
4.414864e-11
8.182594e-16
1.166513e-20
1.121829e-25
9.557345e-31
7.48673e-36
4.966009e-41
3.386031e-46
9.804896e-53
5.297215e-57
1.851598e-62
7.010677e-68
2.283137e-73
4.136374e-79
7.694481e-85
1.204862e-90
0.06302182
2.13962e-06
6.286247e-11
1.346889e-15
2.198947e-20
2.381817e-25
2.26285e-30
1.989823e-35
1.493841e-40
1.155485e-45
7.770192e-51
4.245491e-57
1.10728e-61
4.84021e-67
0
1.771994e-78
5.815571e-84
1.309272e-89
0.06677818
2.629925e-06
8.940901e-11
2.207917e-15
4.134717e-20
5.060928e-25
5.383133e-30
5.302091e-35
4.48844e-40
3.939779e-45
3.0086e-50
1.924869e-55
3.534017e-61
2.797678e-66
8.208076e-72
2.261506e-77
5.619487e-83
1.220848e-88
0.07078024
3.23279e-06
1.276525e-10
3.661302e-15
7.950739e-20
1.121094e-24
1.367433e-29
1.543729e-34
1.485986e-39
1.486153e-44
1.283747e-49
9.467798e-55
5.884203e-60
1.322488e-65
6.393298e-71
1.984193e-76
5.739293e-82
1.475806e-87
0.07496505
3.980924e-06
1.825008e-10
6.108551e-15
1.533822e-19
2.440866e-24
3.362285e-29
4.272465e-34
4.499405e-39
5.022575e-44
4.841544e-49
4.001618e-54
2.832302e-59
2.015106e-64
3.250925e-70
1.593583e-75
5.156673e-81
1.51416e-86
0.07949089
4.888136e-06
2.591928e-10
1.01715e-14
3.040409e-19
5.422948e-24
8.542472e-29
1.235609e-33
1.518087e-38
1.927337e-43
2.125405e-48
2.017591e-53
1.635362e-58
1.356017e-63
1.231684e-69
4.458415e-75
1.503897e-80
7.858557e-86
0.08426408
5.97392e-06
3.634759e-10
1.706521e-14
4.828774e-19
8.70009e-24
1.570776e-28
2.500383e-33
3.455889e-38
5.002678e-43
6.469819e-48
7.180556e-53
6.73417e-58
5.223134e-63
2.783143e-68
1.564203e-73
7.561213e-79
3.9286e-84
0.08926538
7.150198e-06
4.710169e-10
2.260323e-14
7.394318e-19
1.967966e-23
3.831964e-28
6.506581e-33
1.332951e-37
2.016906e-42
2.927036e-47
3.512454e-52
3.656467e-57
2.944186e-62
1.807066e-67
1.204014e-72
7.142591e-78
4.135575e-83
0.09470779
8.346463e-06
5.809169e-10
2.677017e-14
1.096624e-18
3.574247e-23
8.670764e-28
1.86683e-32
3.925497e-37
6.990675e-42
1.209372e-46
1.770582e-51
2.405934e-56
0
7.649163e-67
2.54758e-72
1.433083e-77
0
0.1008608
8.556286e-06
6.645493e-10
3.352076e-14
1.377993e-18
4.991551e-23
1.369799e-27
3.296258e-32
7.916298e-37
1.635104e-41
3.256864e-46
5.497682e-51
8.228565e-56
8.040496e-61
7.948753e-66
6.954091e-71
6.306822e-76
2.277506e-81
0.1182412
1.54615e-05
1.522771e-09
1.095738e-13
8.180271e-19
7.80462e-23
2.766968e-27
7.334649e-32
1.002846e-36
5.586543e-41
1.209725e-45
2.428204e-50
5.04774e-55
4.804818e-60
5.691377e-65
5.732403e-70
5.368425e-75
2.149806e-80
0.1268575
2.128521e-05
2.751886e-09
2.670544e-13
1.571316e-17
6.181241e-22
2.247347e-26
2.422877e-31
2.847322e-35
7.365957e-40
1.799001e-44
3.780935e-49
7.315147e-54
6.343136e-59
8.493126e-64
1.160586e-68
0
8.616189e-79
0.1385891
2.46904e-05
3.747597e-09
4.070724e-13
2.764202e-17
1.465515e-21
6.168995e-26
2.198709e-30
8.257926e-35
2.587395e-39
7.683092e-44
2.13633e-48
4.454209e-53
7.155237e-58
1.189518e-62
1.992537e-67
1.397241e-72
1.290824e-77
0.2381617
4.494624e-05
6.036324e-09
8.431587e-13
6.594568e-17
4.056723e-21
1.970403e-25
8.468345e-30
3.774569e-34
1.425987e-38
5.332278e-43
1.851326e-47
3.409249e-52
7.364866e-57
1.462868e-61
2.501067e-66
1.95268e-71
2.234165e-76
0.3620219
8.569144e-05
9.336015e-09
1.469049e-12
1.169405e-16
6.726629e-21
3.198431e-25
1.39668e-29
6.82439e-34
3.000676e-38
1.318822e-42
5.730424e-47
1.410398e-51
3.890646e-56
9.988897e-61
1.311939e-65
1.805261e-70
2.223504e-75
0.4569154
7.772933e-05
7.321036e-09
1.797503e-12
1.086638e-16
4.468116e-21
1.57435e-25
6.091078e-30
2.740884e-34
1.194989e-38
5.660017e-43
2.927073e-47
6.275371e-53
4.134302e-57
1.37655e-61
2.176215e-66
8.933533e-71
1.479995e-75
0.507483
0.001358042
2.851972e-07
2.0648e-11
6.075056e-16
1.591476e-20
4.083459e-25
1.323831e-29
5.639206e-34
2.589641e-38
1.335453e-42
6.250415e-47
2.276749e-51
1.02517e-55
0
7.490875e-67
1.191561e-70
3.656e-75
0.5177666
0.001094565
2.715197e-07
1.840085e-11
3.812899e-16
1.094126e-20
6.033924e-25
4.126983e-29
2.836537e-33
1.642745e-37
9.315151e-42
3.07164e-46
1.101941e-50
4.007904e-55
0
6.012333e-66
5.819882e-70
2.524814e-74
0.524038
0.000543877
4.57623e-09
1.932148e-13
1.488747e-17
1.704137e-21
2.578813e-25
3.091849e-29
3.242027e-33
2.806247e-37
2.332869e-41
1.562731e-45
9.867744e-50
4.398523e-54
2.648533e-58
7.54972e-63
0
0
0.5305557
0.0004117909
6.88654e-09
1.120598e-12
3.664996e-16
1.083331e-19
3.144096e-23
7.225323e-27
1.495776e-30
2.523271e-34
2.728637e-38
3.357525e-42
3.576051e-46
2.879836e-50
1.991072e-54
9.526659e-59
0
5.514154e-67
0.5378674
0.0005871671
1.030139e-08
3.088864e-12
1.461172e-15
8.792886e-19
4.991783e-22
2.063276e-25
8.459358e-29
1.082031e-32
0
6.214395e-40
1.397631e-43
1.40763e-47
1.207428e-51
0
7.811906e-60
5.099798e-64
0.5430572
0.000566291
2.023798e-08
8.855022e-12
1.786546e-14
1.402616e-17
1.50358e-20
1.255752e-23
7.721784e-27
5.044611e-30
2.048466e-33
7.90639e-37
1.403651e-40
2.356052e-44
2.973749e-48
2.779165e-52
1.069447e-56
2.869141e-62
0.5499422
0.000125686
2.881e-07
4.521725e-10
7.732072e-13
1.028114e-15
1.109315e-18
9.839481e-22
6.837329e-25
5.504753e-28
2.59762e-31
4.541116e-35
9.903161e-39
3.220273e-42
1.080811e-46
0
1.4134e-55
1.141324e-59
0.5538472
0.01584522
1.136092e-05
8.560157e-09
1.300294e-11
3.151046e-14
4.515518e-17
5.734948e-20
4.331573e-23
3.604136e-26
6.269283e-30
1.885998e-33
1.574125e-36
1.226528e-40
0
8.329997e-49
0
3.095734e-58
0.5582021
0.0550163
5.397506e-05
1.43269e-07
5.276699e-10
1.812724e-12
2.429849e-15
3.635686e-18
5.772958e-21
3.140424e-24
1.15096e-27
6.360043e-31
1.752595e-34
8.92665e-39
2.651788e-42
0
9.137239e-52
0
0.5630973
0.1174733
0.0003547013
1.846511e-06
0
1.328532e-25
3.954121e-27
1.621307e-30
1.36899e-34
3.55818e-38
9.51677e-43
1.298909e-46
1.585846e-51
1.260067e-55
0.5620531
0.5015078
0
1.951021e-31
1.89033e-34
1.082412e-38
3.336233e-44
2.93797e-47
3.957765e-52
9.55824e-57
0.5571946
0
2.279458e-34
4.345541e-38
0
1.573985e-47
7.552e-52
3.484279e-56
5.054694e-33
3.81939e-36
6.985085e-42
5.334883e-46
0
7.537336e-57
1.975931e-37
3.928868e-41
1.275842e-46
2.1968e-50
1.857626e-55
1.407767e-39
2.995019e-42
3.852827e-46
4.557481e-51
5.142528e-56
1.563718e-40
3.572559e-44
1.471821e-48
5.714888e-53
6.93922e-58
6.056371e-43
2.2067e-46
1.402691e-50
2.476577e-55
1.838092e-60
3.087502e-45
5.742469e-49
0
4.874565e-58
2.314546e-63
1.294634e-47
1.78761e-51
5.401049e-58
0
1.933465e-66
2.071688e-45
1.715119e-50
1.144207e-54
1.521185e-59
0
2.335559e-69
0.5594281
2.023015e-43
2.977254e-50
2.217204e-57
0
5.475308e-67
1.211349e-72
0.560899
0.5331542
1.903948e-38
0
6.607332e-50
1.645815e-56
1.273842e-59
0
0
0.5627399
0.1942728
0.0007484978
0
0
1.568898e-36
1.212007e-41
4.195222e-47
2.155533e-53
0
1.302248e-64
0
0.5616844
0.07494662
7.624142e-05
2.366615e-07
2.484367e-09
3.279148e-12
2.853949e-15
2.592506e-18
1.071604e-22
1.665703e-26
1.489613e-30
1.804222e-35
6.631622e-41
3.175053e-47
0
1.089144e-58
1.238275e-64
5.454536e-70
0.5544172
0.03254294
1.476212e-05
1.786775e-08
3.15381e-11
4.941305e-14
3.057156e-17
1.753241e-20
1.097772e-23
7.927701e-28
1.144181e-31
0
0
4.353255e-46
3.095557e-52
4.965679e-58
1.175448e-63
3.681211e-71
0.5501819
0.002843287
1.74167e-06
5.153326e-10
6.022687e-13
6.111456e-16
3.74187e-19
1.815576e-22
6.733008e-26
1.471588e-29
1.777547e-33
9.547686e-38
2.037961e-42
0
6.884884e-53
7.129547e-59
7.918098e-66
0
0.546586
0.0003820284
4.625815e-09
7.271092e-11
3.432838e-14
1.283856e-17
6.308101e-21
2.252976e-24
5.900319e-28
2.783171e-31
2.246658e-35
2.482302e-39
2.881049e-44
6.491965e-49
0
1.085665e-61
0
0
0.5375798
0.0004975548
8.851214e-09
1.145434e-12
5.307305e-16
2.024609e-19
9.885574e-23
2.738787e-26
5.385944e-30
1.504974e-33
1.977727e-37
2.024332e-41
0
4.11147e-51
4.447619e-57
3.255636e-63
2.859421e-68
1.113854e-75
0.5354405
0.0004130507
1.116213e-09
7.214801e-14
1.580599e-17
3.152104e-21
9.967405e-25
2.145335e-28
4.993545e-32
6.280276e-36
4.541952e-40
6.378285e-44
1.364853e-48
2.100424e-53
5.74099e-59
2.073121e-65
1.660594e-70
1.244783e-77
0.5311016
0.0003575886
0
6.960745e-15
4.736216e-19
4.029095e-23
6.83412e-27
1.038599e-30
1.943307e-34
2.290478e-38
3.150388e-42
1.698058e-46
6.719786e-51
6.482072e-56
2.103731e-61
8.895278e-68
3.03328e-73
1.056464e-79