/*--------------------------------*- C++ -*----------------------------------*\
| =========                 |                                                 |
| \\      /  F ield         | OpenFOAM: The Open Source CFD Toolbox           |
|  \\    /   O peration     | Version:  2206                                  |
|   \\  /    A nd           | Website:  www.openfoam.com                      |
|    \\/     M anipulation  |                                                 |
\*---------------------------------------------------------------------------*/
FoamFile
{
    version     2.0;
    format      ascii;
    arch        "LSB;label=32;scalar=64";
    class       volScalarField;
    location    "1.2";
    object      alpha.a;
}
// * * * * * * * * * * * * * * * * * * * * * * * * * * * * * * * * * * * * * //

dimensions      [0 0 0 0 0 0 0];

internalField   nonuniform List<scalar> 
13078
(
0.5783353
0.5716885
0.5815331
0.5812611
0.5806321
0.5798934
0.5790322
0.5740571
0.5820305
0.5819515
0.5813247
0.5806645
0.5799149
0.5790526
0.5830694
0.5826631
0.5820397
0.5813952
0.5807085
0.5799459
0.5790787
0.5833501
0.5827116
0.5820903
0.581448
0.5807496
0.579978
0.5791069
0.5833525
0.58273
0.5821193
0.5814746
0.5807827
0.5800082
0.5791345
0.5833282
0.582729
0.5821313
0.5814906
0.5807981
0.5800336
0.5791607
0.583307
0.582722
0.5821368
0.5815017
0.5808086
0.5800439
0.5791836
0.5832922
0.5827144
0.5821393
0.5815078
0.5808148
0.5800511
0.5791916
0.5832819
0.5827081
0.5821378
0.5815095
0.5808184
0.5800561
0.5791975
0.5832747
0.5827032
0.5821358
0.58151
0.5808206
0.5800597
0.579202
0.5832696
0.5826995
0.5821341
0.5815101
0.5808222
0.5800625
0.5792059
0.5832657
0.5826969
0.5821328
0.5815101
0.5808233
0.5800648
0.5792092
0.5832628
0.5826949
0.5821318
0.5815101
0.5808243
0.5800669
0.5792122
0.5832604
0.5826934
0.5821312
0.5815105
0.5808257
0.5800689
0.5792152
0.5832586
0.5826923
0.582131
0.5815145
0.5808321
0.5800714
0.5792181
0.583257
0.5826915
0.5821312
0.5815198
0.5808374
0.5800738
0.5792211
0.5832557
0.5826907
0.5821312
0.5815209
0.5808391
0.580076
0.5792242
0.5832544
0.5826902
0.5821313
0.581522
0.5808408
0.5800784
0.5792275
0.5832532
0.5826899
0.5821317
0.5815231
0.5808429
0.5800815
0.5792309
0.5832521
0.5826896
0.5821322
0.5815248
0.5808504
0.5800923
0.5792353
0.583251
0.5826893
0.5821329
0.5815267
0.5808598
0.5801015
0.5792398
0.5832498
0.5826891
0.5821335
0.5815283
0.580863
0.5801053
0.5792441
0.5832485
0.582689
0.5821343
0.5815302
0.5808659
0.5801099
0.5792497
0.5832471
0.5826887
0.5821351
0.5815322
0.5808699
0.5801219
0.5792666
0.5832455
0.5826884
0.5821359
0.5815345
0.5808742
0.5801369
0.5792814
0.5832437
0.5826881
0.582137
0.5815371
0.5808783
0.5801436
0.579289
0.5832414
0.5826875
0.5821381
0.5815399
0.5808829
0.5801501
0.5792979
0.5832387
0.5826869
0.5821391
0.5815429
0.5808881
0.5801581
0.5793179
0.5832356
0.5826859
0.5821401
0.5815462
0.5808939
0.5801671
0.5793428
0.5832332
0.582686
0.5821415
0.5815498
0.5809001
0.5801759
0.579356
0.5832299
0.5826854
0.5821425
0.5815535
0.5809068
0.5801856
0.57937
0.5832243
0.5826854
0.5821477
0.5815583
0.5809139
0.5801961
0.5793851
0.5832172
0.5826853
0.5821548
0.5815698
0.5809225
0.5802075
0.5793998
0.5832087
0.5826823
0.582161
0.5815782
0.5809315
0.5802197
0.5794156
0.5831988
0.5826783
0.5821631
0.5815901
0.5809512
0.5802349
0.5794327
0.5831876
0.582674
0.5821651
0.5816054
0.5809767
0.5802643
0.579453
0.5831758
0.5826703
0.5821676
0.5816155
0.5810024
0.580288
0.5794747
0.5831649
0.5826684
0.5821725
0.5816255
0.5810192
0.5803211
0.5795157
0.5831563
0.5826699
0.5821811
0.5816406
0.5810426
0.5803701
0.5795609
0.5831539
0.5826812
0.5822021
0.5816782
0.5811007
0.5804498
0.5796527
0.5831606
0.5827167
0.5822714
0.5817771
0.5812373
0.5805934
0.5797268
0.5831941
0.5828024
0.5824291
0.5820032
0.581459
0.5806571
0.5794243
0.5832789
0.5829859
0.5826995
0.5822885
0.5815753
0.5803324
0.578631
0.583452
0.5832608
0.5829961
0.5824179
0.5812903
0.5796173
0.5776123
0.5837265
0.5835581
0.5831454
0.5821751
0.5806714
0.5787584
0.5766339
0.5840662
0.5837595
0.5830389
0.5816554
0.5799396
0.5780534
0.5759042
0.5844165
0.5837486
0.5826589
0.5810916
0.5793092
0.5774011
0.5754812
0.5846966
0.5835287
0.582206
0.5806133
0.5788061
0.5769861
0.5749952
0.5848102
0.5831893
0.5817719
0.5801497
0.578411
0.5766526
0.5747837
0.5847447
0.5828562
0.5813696
0.5797125
0.5779877
0.5763258
0.5747898
0.5845364
0.5825921
0.5810865
0.5793057
0.5776041
0.5760152
0.5745684
0.584237
0.5823514
0.5807843
0.5789953
0.5773253
0.5757912
0.5742799
0.5839303
0.58214
0.5805009
0.5787387
0.5770371
0.5754706
0.5739499
0.5836704
0.581984
0.5803292
0.5785259
0.5767264
0.5750819
0.5737602
0.5834627
0.5818641
0.5801995
0.5783778
0.5765294
0.5748755
0.5735812
0.5833106
0.5817912
0.5801318
0.5783173
0.5764739
0.5748381
0.5735235
0.5833342
0.5818162
0.5801542
0.5783421
0.5765048
0.5748674
0.5735297
0.5835223
0.5819192
0.5802446
0.5784257
0.5765933
0.5749406
0.5736015
0.5837648
0.5820676
0.5803972
0.5785944
0.5768098
0.5751603
0.5737752
0.5840614
0.5822598
0.5806018
0.5788355
0.577144
0.5755727
0.5739905
0.5843948
0.5825027
0.5809285
0.5791358
0.5774618
0.5759206
0.5743914
0.584704
0.5827631
0.5812468
0.579462
0.5777714
0.5761916
0.5747562
0.5849008
0.5830292
0.5815636
0.5799243
0.5782143
0.5765673
0.5750531
0.5849466
0.5833618
0.5819936
0.5804091
0.5786943
0.5769594
0.5751088
0.5848052
0.5836804
0.5824342
0.5809067
0.5791423
0.5773332
0.5753726
0.5845047
0.5838699
0.5828608
0.5813859
0.5796765
0.5778129
0.5759235
0.584137
0.5838521
0.5831932
0.5819185
0.5803138
0.5785027
0.5764234
0.5837828
0.5836312
0.5832561
0.5823714
0.5810035
0.5792288
0.5771971
0.5834941
0.5833199
0.5830757
0.5825472
0.5815311
0.5800285
0.5781564
0.5833083
0.5830303
0.5827603
0.5823755
0.5817239
0.5806177
0.5790651
0.5832141
0.5828322
0.5824727
0.5820653
0.5815501
0.5808038
0.5796666
0.5831745
0.5827376
0.5823024
0.5818213
0.5812921
0.5806624
0.5798325
0.5831641
0.5826982
0.5822267
0.5817078
0.5811343
0.5804868
0.5796998
0.5831649
0.5826844
0.5822005
0.5816612
0.581064
0.5803953
0.5795892
0.5831719
0.58268
0.5821875
0.5816424
0.5810357
0.5803396
0.5795364
0.5831816
0.5826792
0.5821788
0.5816272
0.5810095
0.5802999
0.5794901
0.5831921
0.5826807
0.5821729
0.5816149
0.580983
0.5802691
0.5794649
0.5832022
0.5826836
0.5821696
0.581598
0.58096
0.5802442
0.5794431
0.5832113
0.5826864
0.5821662
0.5815845
0.5809386
0.5802275
0.5794239
0.5832193
0.5826887
0.5821592
0.5815748
0.5809282
0.5802136
0.5794061
0.5832262
0.5826882
0.5821511
0.5815622
0.5809184
0.580201
0.5793898
0.5832316
0.5826878
0.5821452
0.5815568
0.5809104
0.5801893
0.5793736
0.5832346
0.5826879
0.5821438
0.5815524
0.5809029
0.5801787
0.5793588
0.5832369
0.5826875
0.582142
0.5815483
0.5808961
0.5801693
0.5793449
0.5832398
0.5826883
0.5821406
0.5815446
0.5808898
0.5801598
0.5793197
0.5832424
0.5826888
0.5821393
0.5815412
0.5808843
0.5801516
0.5792993
0.5832446
0.5826892
0.5821381
0.5815381
0.5808795
0.5801448
0.5792901
0.5832463
0.5826893
0.5821368
0.5815354
0.5808752
0.5801378
0.5792822
0.5832479
0.5826894
0.5821358
0.5815331
0.5808707
0.5801226
0.5792673
0.5832492
0.5826896
0.5821348
0.5815308
0.5808666
0.5801105
0.5792501
0.5832503
0.5826896
0.582134
0.5815288
0.5808636
0.5801058
0.5792446
0.5832514
0.5826898
0.5821333
0.5815271
0.5808601
0.5801018
0.5792402
0.5832524
0.58269
0.5821325
0.581525
0.5808506
0.5800925
0.5792355
0.5832534
0.5826901
0.5821319
0.5815232
0.580843
0.5800816
0.5792309
0.5832544
0.5826903
0.5821313
0.581522
0.5808409
0.5800785
0.5792276
0.5832554
0.5826906
0.582131
0.5815209
0.5808391
0.5800762
0.5792244
0.5832566
0.5826911
0.5821309
0.5815196
0.5808373
0.5800739
0.5792213
0.5832578
0.5826916
0.5821305
0.5815143
0.580832
0.5800715
0.5792183
0.5832592
0.5826924
0.5821305
0.5815102
0.5808255
0.580069
0.5792155
0.583261
0.5826934
0.5821308
0.5815097
0.5808242
0.5800671
0.5792127
0.5832632
0.582695
0.5821316
0.5815096
0.5808234
0.5800653
0.57921
0.5832662
0.5826971
0.5821326
0.5815095
0.5808224
0.5800634
0.5792072
0.5832701
0.5826997
0.5821339
0.5815095
0.5808213
0.5800612
0.579204
0.5832753
0.5827033
0.5821356
0.5815094
0.5808199
0.5800585
0.5792003
0.5832823
0.5827083
0.5821374
0.5815089
0.5808177
0.5800549
0.5791957
0.5832924
0.5827146
0.5821363
0.5815052
0.5808139
0.5800499
0.5791893
0.5833072
0.5827222
0.5821347
0.5814986
0.5808075
0.5800425
0.5791684
0.5833284
0.5827294
0.5821316
0.5814904
0.5807977
0.5800207
0.5791443
0.5833523
0.5827304
0.5821197
0.5814755
0.5807719
0.5799944
0.5791184
0.5833488
0.582712
0.582094
0.581439
0.5807381
0.5799648
0.5790907
0.5830586
0.582671
0.5820323
0.5813863
0.5806979
0.5799327
0.5790624
0.5741402
0.5821063
0.5819787
0.5813147
0.5806502
0.5798992
0.5790346
0.5780173
0.5767451
0.5750503
0.5734411
0.570587
0.5661239
0.5561338
0.5780399
0.5767737
0.5750868
0.5734839
0.5706393
0.5661965
0.5565068
0.5780657
0.5768036
0.5751255
0.5729266
0.5706897
0.5662674
0.5567415
0.578093
0.5768343
0.5751615
0.5735772
0.570743
0.5663388
0.5569598
0.5781201
0.5768655
0.5751998
0.5736216
0.570796
0.5664102
0.5571232
0.5781467
0.5768967
0.5752384
0.5736675
0.5708485
0.5664815
0.5572834
0.5781723
0.5769275
0.5752766
0.5737117
0.5708644
0.5665526
0.5574408
0.5781954
0.5769577
0.5753143
0.573755
0.5708792
0.5666231
0.5575963
0.5782026
0.5769854
0.5753501
0.5737988
0.5709215
0.5666866
0.5577505
0.5782081
0.5769936
0.5753833
0.5738423
0.5709634
0.5667501
0.5579034
0.5782128
0.5769998
0.575393
0.5738845
0.5710052
0.5668134
0.5580553
0.5782173
0.5770058
0.5754006
0.5738944
0.5710472
0.5668768
0.5582058
0.5782215
0.5770117
0.5754083
0.5739035
0.5710555
0.5669414
0.5583549
0.5782256
0.5770175
0.5754161
0.5739129
0.5710647
0.5669556
0.5584987
0.5782296
0.5770235
0.5754242
0.5739224
0.5710744
0.566972
0.5584999
0.5782339
0.5770296
0.5754324
0.5739324
0.5710848
0.5669895
0.5585073
0.5782382
0.577036
0.5754409
0.5739432
0.5711003
0.5670075
0.5585057
0.5782427
0.5770424
0.5754499
0.5739586
0.571222
0.5670267
0.5585009
0.5782474
0.5770489
0.5754591
0.57397
0.57124
0.5670463
0.5585023
0.5782524
0.5770557
0.5754688
0.5739819
0.5712552
0.5670668
0.5584973
0.5782576
0.5770629
0.5754788
0.5739946
0.5712709
0.5670883
0.5584727
0.5782633
0.5770705
0.5754892
0.5740081
0.5712875
0.5671109
0.5584626
0.5782693
0.5770786
0.5755006
0.5740207
0.5713086
0.5671347
0.5584503
0.5782771
0.5770875
0.5755136
0.5734759
0.5714255
0.5671704
0.5584377
0.5782853
0.5770968
0.5755257
0.5740532
0.5714879
0.5671998
0.5584225
0.5782933
0.5771069
0.5755393
0.5740692
0.5715126
0.567228
0.5584039
0.5783041
0.577119
0.575555
0.5740881
0.571538
0.5672622
0.5583711
0.5783321
0.5771324
0.5755708
0.5741078
0.5715717
0.5675033
0.5583345
0.5783544
0.5774721
0.5760143
0.574128
0.5716037
0.5675997
0.5583094
0.5783707
0.5774841
0.5760305
0.5741514
0.5716345
0.5676411
0.5582786
0.5784106
0.5775293
0.5760512
0.5741767
0.5716681
0.5678099
0.558252
0.5784432
0.577576
0.5760737
0.5742048
0.571705
0.5680204
0.5582285
0.5784649
0.5776438
0.5761031
0.5742354
0.5717451
0.5680827
0.5582437
0.578485
0.5776745
0.5761696
0.5742682
0.571788
0.5681607
0.5591018
0.5785062
0.5777019
0.5762485
0.574305
0.571833
0.5682309
0.5592555
0.5785287
0.5777297
0.5763489
0.5743575
0.5718749
0.5682999
0.5623459
0.5785514
0.5777584
0.5763837
0.5744711
0.5719062
0.5683658
0.5609351
0.5785785
0.5777861
0.5764129
0.5745426
0.5718894
0.5683262
0.5628687
0.57861
0.577811
0.5764009
0.5744909
0.5714861
0.5675502
0.5642191
0.5786186
0.5777789
0.5760714
0.5736237
0.5704279
0.5669934
0.5642155
0.5783514
0.5772927
0.5749116
0.5720474
0.5690593
0.5670936
0.5623116
0.577601
0.5761904
0.5733907
0.5702629
0.5677393
0.5668518
0.5609848
0.5763632
0.5749706
0.5720474
0.5691148
0.566992
0.5665227
0.5601297
0.5751327
0.5736934
0.5706916
0.5676028
0.566317
0.5656639
0.5596649
0.5741858
0.572673
0.5694944
0.5662851
0.56586
0.5644921
0.5580024
0.5734185
0.5716204
0.5678278
0.5655313
0.5648617
0.5640074
0.557294
0.5728048
0.5708408
0.5670379
0.5645972
0.5646328
0.5639211
0.5605032
0.572418
0.570164
0.5667134
0.564252
0.5639599
0.5644873
0.5636066
0.5721613
0.5700398
0.5663881
0.5637107
0.5641578
0.5636988
0.5641318
0.5720028
0.5694568
0.5654299
0.564264
0.5642405
0.5638996
0.5642846
0.5715527
0.5693105
0.5658319
0.5655366
0.5649795
0.5632492
0.5629588
0.5710631
0.5684103
0.5665696
0.5654519
0.5643181
0.5629761
0.5605534
0.5709515
0.5683233
0.5658492
0.5647989
0.5645305
0.5633627
0.5618923
0.570707
0.5676637
0.5652374
0.5648623
0.5647874
0.5658237
0.5638701
0.5707172
0.5674956
0.5645517
0.5640819
0.5662049
0.5674747
0.5615038
0.5707376
0.5674594
0.5650313
0.5641692
0.5661996
0.5677163
0.5707482
0.567622
0.5655328
0.563572
0.5661095
0.5678397
0.5706871
0.567426
0.5653077
0.5646892
0.566982
0.5677005
0.5706746
0.5671559
0.5664469
0.5670056
0.5659774
0.5660652
0.5641557
0.5709817
0.567517
0.5667083
0.565711
0.5656492
0.564354
0.5606664
0.571254
0.5676932
0.566375
0.5649875
0.565087
0.5641945
0.5619732
0.5718937
0.5682592
0.5663577
0.5652763
0.5652601
0.565721
0.5618763
0.5724093
0.5692813
0.5661068
0.5653153
0.5660925
0.5652904
0.56212
0.5726232
0.5699266
0.5667761
0.5649662
0.5652554
0.5642329
0.5642325
0.5729443
0.5704371
0.5670664
0.5644102
0.5642468
0.5650988
0.564881
0.5733552
0.5707796
0.5678988
0.5642446
0.5643089
0.5647571
0.5627985
0.574032
0.5716335
0.5684553
0.5656701
0.5644838
0.5648764
0.5624562
0.5748668
0.5724002
0.5697393
0.5665287
0.5652074
0.564287
0.5618798
0.5757574
0.5734255
0.5709529
0.5676858
0.5656302
0.5642332
0.5606186
0.5769083
0.5745963
0.5719782
0.5692072
0.5662298
0.5648952
0.5585863
0.5779503
0.5759127
0.5733892
0.570218
0.5674369
0.5657654
0.5590328
0.5785376
0.5770332
0.5746946
0.5715422
0.5686214
0.5665903
0.5607674
0.5786915
0.5776728
0.5757969
0.5731344
0.5700903
0.566959
0.5625105
0.5786422
0.5778004
0.5763626
0.574228
0.5709955
0.5669005
0.5640054
0.5786
0.5777852
0.5764346
0.5745809
0.5717346
0.5679436
0.5640588
0.578568
0.5777582
0.5764146
0.5745095
0.5719107
0.5684361
0.5624805
0.578542
0.5777313
0.5763806
0.5744277
0.5719026
0.5683557
0.5610035
0.5785169
0.5777046
0.576319
0.5743374
0.5718658
0.5682792
0.5595942
0.5784932
0.5776784
0.5762229
0.5742943
0.5718195
0.568203
0.5591837
0.5784713
0.5776516
0.5761308
0.5742582
0.5717731
0.5681282
0.5588144
0.578448
0.5775971
0.5760931
0.5742245
0.5717295
0.568056
0.5582297
0.5784143
0.5775521
0.5760656
0.5741938
0.5716896
0.567976
0.5582434
0.5783733
0.5774925
0.576043
0.574166
0.5716531
0.5676792
0.5582633
0.5783564
0.5774703
0.5760217
0.5741414
0.5716204
0.5676215
0.5582902
0.5783336
0.5771337
0.5755719
0.5741141
0.5715893
0.567579
0.5583138
0.5783053
0.5771201
0.5755559
0.5740947
0.5715541
0.5673557
0.5583429
0.5782943
0.5771079
0.5755404
0.5740763
0.5715251
0.5672427
0.5583764
0.578286
0.5770975
0.5755264
0.574059
0.5714998
0.5672131
0.5583972
0.5782777
0.5770879
0.5755132
0.5740426
0.571473
0.5671855
0.5584175
0.5782697
0.577079
0.5755011
0.5740269
0.5713469
0.5671498
0.5584307
0.5782637
0.5770708
0.5754896
0.5740122
0.5712953
0.5671212
0.5584437
0.5782579
0.577063
0.5754788
0.5739986
0.5712783
0.5670981
0.5584595
0.5782525
0.5770557
0.5754687
0.5739855
0.571262
0.5670761
0.5584688
0.5782474
0.5770489
0.5754589
0.5739733
0.5712467
0.567055
0.5584797
0.5782428
0.5770424
0.5754498
0.5739616
0.5712322
0.567035
0.5584854
0.5782383
0.577036
0.5754409
0.5739478
0.5711666
0.5670156
0.5584855
0.578234
0.5770297
0.5754324
0.5739352
0.5710895
0.5669971
0.5584857
0.5782299
0.5770237
0.5754243
0.5739248
0.5710791
0.5669794
0.5584845
0.578226
0.5770179
0.5754165
0.5739147
0.5710692
0.5669625
0.5584863
0.5782221
0.5770124
0.5754089
0.5739051
0.5710599
0.5669468
0.5584064
0.5782183
0.5770069
0.5754015
0.5738956
0.571051
0.5669076
0.5582585
0.5782143
0.5770012
0.5753943
0.5738864
0.5710262
0.5668444
0.5581088
0.5782102
0.5769955
0.575385
0.5738604
0.5709848
0.5667811
0.5579577
0.5782054
0.576988
0.5753523
0.573817
0.5709432
0.5667179
0.5578057
0.5781992
0.5769612
0.5753172
0.5737731
0.5709015
0.5666545
0.5576528
0.5781774
0.5769318
0.5752801
0.5737287
0.5708613
0.5665879
0.5574989
0.578153
0.5769018
0.5752424
0.5736863
0.5708741
0.566517
0.5573438
0.5781275
0.576871
0.5752042
0.5736412
0.5708234
0.566446
0.5571869
0.5781009
0.5768397
0.5751657
0.5735963
0.5707709
0.5663749
0.5570273
0.5780732
0.5768081
0.5751272
0.5735513
0.5707183
0.5663036
0.5568451
0.5780455
0.576777
0.575089
0.5735071
0.5706657
0.5662324
0.5566163
0.5780185
0.5767458
0.575051
0.5734635
0.5706133
0.5661608
0.5563308
0.004188501
6.651817e-09
6.370046e-14
1.470952e-19
1.716746e-25
1.208016e-31
5.817942e-38
1.982419e-44
3.888895e-51
6.886019e-58
1.15493e-64
1.883723e-71
3.369942e-78
6.972663e-85
3.005634e-91
8.720972e-98
3.988051e-104
1.654058e-110
0.008230945
3.833369e-09
9.698128e-15
2.204967e-20
3.053437e-26
2.642161e-32
1.643132e-38
7.577071e-45
2.140791e-51
5.595395e-58
1.352854e-64
2.985222e-71
6.209632e-78
1.19717e-84
3.101466e-91
2.364522e-98
2.451051e-105
2.366363e-112
0.00864996
1.67733e-08
2.40659e-14
3.18879e-20
3.339068e-26
2.526753e-32
1.528838e-38
7.418406e-45
2.376204e-51
6.888359e-58
1.93527e-64
5.138889e-71
1.254199e-77
2.761461e-84
8.043948e-91
7.05074e-98
7.972852e-105
7.816244e-112
0.009272054
2.105693e-08
3.568648e-14
5.475399e-20
6.152156e-26
4.766184e-32
2.887931e-38
1.415246e-44
4.635875e-51
1.443039e-57
4.355944e-64
1.25264e-70
3.363398e-77
8.26005e-84
2.646164e-90
2.594683e-97
3.326278e-104
3.647167e-111
0.01007646
2.447863e-08
4.863281e-14
8.329821e-20
1.035187e-25
8.730655e-32
5.695656e-38
2.981401e-44
1.061451e-50
3.592547e-57
1.206444e-63
3.822305e-70
1.130824e-76
3.08447e-83
1.445727e-91
1.706499e-96
1.577153e-103
2.207433e-110
0.01105027
2.845522e-08
6.373709e-14
1.222248e-19
1.694712e-25
1.572343e-31
1.133584e-37
6.552934e-44
2.586148e-50
9.95889e-57
3.758667e-63
1.348399e-69
4.406883e-76
1.343462e-82
3.217701e-89
8.473176e-96
1.172482e-102
1.681864e-109
0.01217706
3.330822e-08
8.335024e-14
1.780369e-19
2.740049e-25
2.835496e-31
2.278701e-37
1.485148e-43
6.697328e-50
2.955232e-56
1.277041e-62
5.179609e-69
1.934731e-75
6.579711e-82
2.116715e-88
5.251641e-95
8.452736e-102
1.353084e-108
0.01344275
3.932422e-08
1.094689e-13
2.588829e-19
4.443395e-25
5.105542e-31
4.646599e-37
3.451803e-43
1.790343e-49
9.33768e-56
4.621063e-62
2.142933e-68
9.069472e-75
3.507239e-81
1.263901e-87
3.52974e-94
6.379123e-101
1.170228e-107
0.01483605
4.71164e-08
1.454303e-13
3.811427e-19
7.295369e-25
9.412998e-31
9.692496e-37
8.28454e-43
5.038619e-49
3.037707e-55
1.757828e-61
9.371519e-68
4.538145e-74
1.98556e-80
8.020386e-87
2.530897e-93
5.233937e-100
1.103154e-106
0.01634742
5.683508e-08
1.959987e-13
5.700788e-19
1.227648e-24
1.779263e-30
2.086258e-36
2.062655e-42
1.472878e-48
1.039023e-54
6.995887e-61
4.288081e-67
2.393528e-73
1.182103e-79
5.405451e-86
1.953836e-92
4.625632e-99
1.107236e-105
0.01797031
6.912167e-08
2.668005e-13
8.730763e-19
2.120356e-24
3.49093e-30
4.673265e-36
5.36802e-42
4.512376e-48
3.737665e-54
2.913063e-60
2.071623e-66
1.31783e-72
7.446061e-79
3.850611e-85
1.579422e-91
4.235199e-98
1.151871e-104
0.01970273
8.557599e-08
3.750296e-13
1.388544e-18
3.85874e-24
7.2271e-30
1.120008e-35
1.495873e-41
1.472982e-47
1.43176e-53
1.292545e-59
1.05374e-65
7.670458e-72
4.915799e-78
2.874339e-84
1.326311e-90
4.118165e-97
1.260836e-103
0.0215445
1.082731e-07
5.5453e-13
2.371014e-18
7.625666e-24
1.650738e-29
2.964212e-35
4.590721e-41
5.257347e-47
5.922569e-53
6.140119e-59
5.748486e-65
4.756666e-71
3.454516e-77
2.303805e-83
1.177884e-89
4.138349e-96
1.444852e-102
0.02363153
1.619164e-07
9.875463e-13
4.975548e-18
1.937209e-23
4.88512e-29
9.954376e-35
1.733612e-40
2.241527e-46
2.839326e-52
3.351013e-58
3.519362e-64
3.276505e-70
2.694513e-76
2.008369e-82
1.148016e-88
4.60539e-95
1.815514e-101
0.03253897
3.179475e-07
2.490947e-12
1.530016e-17
6.827521e-23
2.006211e-28
4.786222e-34
9.686416e-40
1.47517e-45
2.223878e-51
3.058444e-57
3.762111e-63
4.068755e-69
3.854626e-75
3.270984e-81
2.074253e-87
9.767589e-94
4.414364e-100
0.03585557
1.269091e-09
1.113651e-12
7.252298e-18
3.223092e-23
9.806003e-29
2.824808e-34
7.589657e-40
1.544921e-45
2.996562e-51
5.0706e-57
7.415654e-63
9.436751e-69
1.041681e-74
1.035523e-80
7.548472e-87
4.121896e-93
2.182899e-99
0.03721425
4.170603e-07
0
8.125024e-18
5.019341e-23
1.65564e-28
4.11836e-34
1.030881e-39
2.380147e-45
5.789476e-51
1.281733e-56
2.493234e-62
4.19217e-68
6.033944e-74
7.621877e-80
6.92203e-86
4.939161e-92
3.361113e-98
0.03924324
4.278607e-07
4.675241e-12
0
8.151999e-23
3.608283e-28
1.114108e-33
2.707724e-39
5.51582e-45
1.291109e-50
2.976805e-56
6.234647e-62
1.141706e-67
1.793656e-73
2.506387e-79
2.500166e-85
1.922578e-91
1.419108e-97
0.04189007
4.526235e-07
6.130895e-12
5.552719e-17
0
6.642319e-28
2.634551e-33
8.159417e-39
1.843151e-44
4.544944e-50
1.171599e-55
2.902014e-61
6.282629e-67
1.146164e-72
1.816962e-78
1.995248e-84
1.73765e-90
1.413628e-96
0.04457422
5.257049e-07
8.377486e-12
9.536814e-17
7.653586e-22
0
8.803453e-33
3.446841e-38
9.469676e-44
2.303091e-49
5.073995e-55
1.086862e-60
2.202193e-66
4.067443e-72
7.971267e-78
8.006706e-84
7.962369e-90
7.338304e-96
0.04727952
6.437944e-07
9.715204e-12
1.170114e-16
1.063438e-21
6.446988e-27
0
6.03888e-38
2.284513e-43
8.664401e-49
2.602409e-54
6.384677e-60
1.349922e-65
2.5601e-71
5.434745e-77
2.671006e-83
6.452955e-89
9.241057e-95
0.05009259
8.599501e-07
1.346598e-11
1.673436e-16
1.685194e-21
1.17972e-26
7.239135e-32
2.275005e-39
7.047978e-43
2.840727e-48
1.169035e-53
3.780299e-59
9.802686e-65
2.088596e-70
4.060302e-76
4.520901e-82
5.385863e-88
5.803625e-94
0.0530808
1.107399e-06
2.023288e-11
2.84741e-16
3.21127e-21
2.524372e-26
1.73808e-31
1.083818e-36
1.274679e-43
1.417693e-47
5.708068e-53
2.197393e-58
6.920592e-64
1.797126e-69
4.046869e-75
5.223632e-81
6.931722e-87
8.200154e-93
0.05622847
1.408573e-06
3.031019e-11
4.911061e-16
6.214757e-21
5.412024e-26
4.153292e-31
2.905292e-36
1.720922e-41
3.548806e-48
3.053545e-52
1.205194e-57
4.447654e-63
1.340695e-68
3.64024e-74
5.677826e-80
8.979209e-86
1.224047e-91
0.05961175
1.741767e-06
4.405258e-11
8.258788e-16
1.190795e-20
1.157866e-25
9.915216e-31
7.802988e-36
5.225269e-41
3.582406e-46
1.581129e-52
5.560925e-57
2.011966e-62
7.686398e-68
2.524232e-73
4.708858e-79
8.816838e-85
1.402024e-90
0.06312765
2.141389e-06
6.274851e-11
1.360252e-15
2.246776e-20
2.462255e-25
2.351506e-30
2.076406e-35
1.573317e-40
1.223415e-45
8.309811e-51
6.754207e-57
1.167214e-61
5.281535e-67
0
1.758975e-78
6.462277e-84
1.49826e-89
0.06689576
2.633802e-06
8.92955e-11
2.231176e-15
4.227255e-20
5.236586e-25
5.600157e-30
5.537667e-35
4.730376e-40
4.173652e-45
3.219281e-50
2.083566e-55
4.139242e-61
3.032092e-66
9.247548e-72
2.556549e-77
6.416922e-83
1.406816e-88
0.07091104
3.239503e-06
1.275635e-10
3.701802e-15
8.130843e-20
1.15963e-24
1.422643e-29
1.61311e-34
1.566988e-39
1.575647e-44
1.374846e-49
1.024444e-54
6.439892e-60
1.532686e-65
7.060459e-71
2.249838e-76
6.540298e-82
1.694157e-87
0.07511075
3.99109e-06
1.824604e-10
6.180016e-15
1.569471e-19
2.52748e-24
3.502122e-29
4.469148e-34
4.745435e-39
5.332034e-44
5.191574e-49
4.333184e-54
3.100547e-59
2.214935e-64
3.77413e-70
1.77738e-75
5.889498e-81
1.733979e-86
0.07965342
4.903365e-06
2.592737e-10
1.030007e-14
3.112698e-19
5.616147e-24
8.897455e-29
1.292777e-33
1.604124e-38
2.047701e-43
2.280509e-48
2.185816e-53
1.790747e-58
1.487897e-63
1.018402e-69
5.691145e-75
1.694462e-80
8.791202e-86
0.08444596
5.995605e-06
3.636244e-10
1.731009e-14
4.868734e-19
9.007652e-24
1.639927e-28
2.626672e-33
3.653269e-38
5.322875e-43
6.946094e-48
7.781576e-53
7.374434e-58
5.749954e-63
3.116638e-68
1.758916e-73
8.567543e-79
4.450059e-84
0.08946872
7.173652e-06
4.708836e-10
2.282584e-14
7.570979e-19
2.046759e-23
4.008675e-28
6.844497e-33
1.341495e-37
2.159884e-42
3.141874e-47
3.815503e-52
4.00875e-57
3.274613e-62
2.018686e-67
1.351221e-72
8.055904e-78
4.672394e-83
0.09493538
8.365055e-06
5.791439e-10
2.691179e-14
1.124131e-18
3.71447e-23
9.070668e-28
1.963069e-32
4.144211e-37
7.44336e-42
1.297456e-46
1.918523e-51
2.618757e-56
0
8.233204e-67
3.096514e-72
1.633735e-77
0
0.1011216
8.490775e-06
6.609303e-10
3.367919e-14
1.40881e-18
5.177168e-23
1.432874e-27
3.466863e-32
8.351155e-37
1.739947e-41
3.490637e-46
5.948889e-51
8.961503e-56
8.849888e-61
8.81985e-66
7.769471e-71
7.061965e-76
2.613595e-81
0.1185528
1.562682e-05
1.524447e-09
1.10621e-13
8.834937e-19
8.030284e-23
2.884036e-27
7.726952e-32
1.101769e-36
5.971619e-41
1.295165e-45
2.619717e-50
5.45528e-55
5.278621e-60
6.302824e-65
6.398496e-70
5.98568e-75
2.43848e-80
0.1272254
2.155461e-05
2.764937e-09
2.708746e-13
1.612264e-17
6.376785e-22
2.333549e-26
2.724068e-31
3.014883e-35
7.859598e-40
1.935673e-44
4.100973e-49
7.934573e-54
7.006816e-59
9.378943e-64
1.283023e-68
0
8.777756e-79
0.1389919
2.493074e-05
3.758192e-09
4.121222e-13
2.835101e-17
1.513277e-21
6.415132e-26
2.304723e-30
8.708136e-35
2.756757e-39
8.245176e-44
2.302939e-48
4.860912e-53
7.840903e-58
1.312602e-62
2.204171e-67
1.567293e-72
1.453675e-77
0.2385511
4.537981e-05
5.998737e-09
8.483441e-13
6.735073e-17
4.17461e-21
2.042025e-25
8.832229e-30
3.959801e-34
1.509779e-38
5.67815e-43
1.982194e-47
3.71813e-52
7.999897e-57
1.60135e-61
2.752933e-66
2.182858e-71
2.495003e-76
0.362359
8.584532e-05
9.271398e-09
1.488415e-12
1.204985e-16
6.98449e-21
3.331282e-25
1.463346e-29
7.171594e-34
3.175383e-38
1.403238e-42
6.13304e-47
1.526546e-51
4.239091e-56
1.093529e-60
1.4515e-65
2.00901e-70
2.487963e-75
0.4570213
7.75164e-05
7.334215e-09
1.813838e-12
1.116355e-16
4.638392e-21
1.636476e-25
6.340258e-30
2.860949e-34
1.253337e-38
5.972313e-43
3.103342e-47
6.956462e-53
4.462473e-57
1.488545e-61
2.402388e-66
9.776771e-71
1.634136e-75
0.5073437
0.001368836
2.916934e-07
2.111456e-11
6.261011e-16
1.648979e-20
4.227614e-25
1.36605e-29
5.818032e-34
2.678137e-38
1.389798e-42
6.541097e-47
2.404533e-51
1.09162e-55
0
8.272728e-67
1.292358e-70
4.004931e-75
0.5172635
0.001100742
2.737102e-07
1.877329e-11
3.877175e-16
1.09311e-20
5.985213e-25
4.098741e-29
2.841907e-33
1.660776e-37
9.554816e-42
3.153018e-46
1.159323e-50
4.256702e-55
0
6.139106e-66
6.009888e-70
2.681513e-74
0.5232321
0.0005371526
4.664524e-09
1.913135e-13
1.450789e-17
1.644794e-21
2.50919e-25
3.019696e-29
3.19182e-33
2.789921e-37
2.33078e-41
1.584913e-45
1.001025e-49
4.918182e-54
2.736819e-58
7.912735e-63
0
0
0.5296496
0.000406996
6.583792e-09
1.079075e-12
3.541496e-16
1.03589e-19
3.019526e-23
6.946267e-27
1.444075e-30
2.448922e-34
2.602693e-38
3.303e-42
3.548354e-46
2.886926e-50
2.020139e-54
9.87246e-59
0
5.645236e-67
0.5369502
0.0005794019
1.015523e-08
2.974076e-12
1.4129e-15
8.440946e-19
4.812398e-22
1.981466e-25
8.210448e-29
1.052459e-32
0
5.996077e-40
1.366399e-43
1.389139e-47
1.224577e-51
0
7.794612e-60
5.332257e-64
0.542021
0.0005487364
1.94128e-08
8.479825e-12
1.720985e-14
1.336147e-17
1.444633e-20
1.203672e-23
7.380034e-27
4.846589e-30
1.968828e-33
7.647911e-37
1.348688e-40
2.307383e-44
2.954815e-48
2.798152e-52
1.01386e-56
2.317613e-62
0.5491974
0.0001637092
2.809156e-07
4.337637e-10
7.447736e-13
9.947704e-16
1.065193e-18
9.438342e-22
6.530745e-25
5.26755e-28
2.503517e-31
3.779985e-35
9.726592e-39
3.18221e-42
1.064364e-46
0
1.45506e-55
1.17054e-59
0.553421
0.01538303
1.100616e-05
8.248721e-09
1.245776e-11
3.04225e-14
4.340121e-17
5.526739e-20
4.172334e-23
3.491309e-26
6.022989e-30
1.796226e-33
1.546263e-36
1.207286e-40
0
8.371505e-49
0
3.299394e-58
0.557668
0.05396453
5.123353e-05
1.386122e-07
5.137968e-10
1.756997e-12
2.323451e-15
3.512203e-18
5.589657e-21
3.021128e-24
1.027555e-27
6.249493e-31
1.715863e-34
4.422471e-39
2.659503e-42
0
9.84273e-52
0
0.5628874
0.1163182
0.0003462707
1.822866e-06
0
1.513882e-25
3.888659e-27
1.482768e-30
1.07319e-34
3.609552e-38
9.297373e-43
1.319241e-46
1.558097e-51
1.273371e-55
0.5620333
0.4989724
0
1.928356e-31
1.900422e-34
1.074537e-38
0
2.989343e-47
3.152295e-52
9.305583e-57
0.5571126
0
2.238618e-34
4.377523e-38
0
1.42514e-47
7.452095e-52
3.495961e-56
4.987942e-33
3.819538e-36
1.214316e-41
5.179383e-46
0
7.817748e-57
2.002904e-37
3.954496e-41
1.306607e-46
2.276455e-50
1.771728e-55
1.484714e-39
3.090372e-42
3.964154e-46
4.366134e-51
4.905719e-56
1.578894e-40
3.648394e-44
1.479077e-48
5.800705e-53
6.987914e-58
6.240453e-43
2.25458e-46
1.411078e-50
2.469452e-55
1.841867e-60
3.214988e-45
5.949102e-49
0
5.044319e-58
2.454671e-63
1.406967e-47
1.924276e-51
5.053611e-58
0
2.041411e-66
1.707533e-45
1.691591e-50
1.275116e-54
1.64103e-59
0
2.558933e-69
0.5590875
1.986835e-43
2.889475e-50
2.464186e-57
0
5.247059e-67
8.606681e-73
0.5608918
0.531624
1.693654e-38
0
6.323973e-50
8.87828e-57
1.25513e-59
0
0
0.5626271
0.1927265
0.0007377717
0
0
1.522509e-36
1.174779e-41
3.796223e-47
2.054035e-53
0
1.257886e-64
0
0.5613259
0.0737629
7.439515e-05
2.291298e-07
2.447614e-09
3.146897e-12
2.731417e-15
2.519856e-18
0
1.39464e-26
1.451019e-30
1.981449e-35
6.443398e-41
3.080263e-47
0
1.050239e-58
1.168688e-64
5.29782e-70
0.5535293
0.03187696
1.41175e-05
1.729782e-08
3.059465e-11
4.776058e-14
2.938125e-17
1.699216e-20
1.064405e-23
7.693432e-28
1.092244e-31
0
0
4.225042e-46
3.155837e-52
4.742942e-58
1.147943e-63
3.389574e-71
0.5494029
0.002738122
1.691837e-06
4.782226e-10
5.801689e-13
5.929875e-16
3.609802e-19
1.758526e-22
6.550238e-26
1.378327e-29
1.755481e-33
9.396154e-38
2.017521e-42
0
6.65753e-53
7.106868e-59
7.467463e-66
0
0.545807
0.0003696853
3.311552e-09
6.943226e-11
3.316171e-14
1.24177e-17
6.109153e-21
2.185716e-24
5.729329e-28
2.737421e-31
2.218305e-35
2.426851e-39
2.915495e-44
6.502352e-49
0
9.558298e-62
0
0
0.5366448
0.0004841734
8.647299e-09
1.126108e-12
5.163824e-16
1.952538e-19
9.587483e-23
2.662199e-26
5.243581e-30
1.477936e-33
1.960785e-37
2.018832e-41
0
4.07838e-51
4.464697e-57
3.227899e-63
2.890274e-68
1.104297e-75
0.5347011
0.0004051638
1.072301e-09
6.952506e-14
1.532922e-17
3.044155e-21
9.71083e-25
2.100675e-28
4.914469e-32
6.228378e-36
4.32316e-40
6.369777e-44
1.389758e-48
2.109845e-53
5.743189e-59
2.096271e-65
1.65716e-70
1.252105e-77
0.5303911
0.0003579774
0
6.715596e-15
4.620613e-19
3.911921e-23
6.693463e-27
1.025205e-30
1.929027e-34
2.283099e-38
3.19359e-42
1.726024e-46
6.793211e-51
6.435724e-56
2.103609e-61
8.832426e-68