/*--------------------------------*- C++ -*----------------------------------*\
| =========                 |                                                 |
| \\      /  F ield         | OpenFOAM: The Open Source CFD Toolbox           |
|  \\    /   O peration     | Version:  2206                                  |
|   \\  /    A nd           | Website:  www.openfoam.com                      |
|    \\/     M anipulation  |                                                 |
\*---------------------------------------------------------------------------*/
FoamFile
{
    version     2.0;
    format      ascii;
    arch        "LSB;label=32;scalar=64";
    class       volScalarField;
    location    "1.2";
    object      alpha.b;
}
// * * * * * * * * * * * * * * * * * * * * * * * * * * * * * * * * * * * * * //

dimensions      [0 0 0 0 0 0 0];

internalField   nonuniform List<scalar> 
13078
(
0.4216647
0.4283115
0.4184669
0.4187389
0.4193679
0.4201066
0.4209678
0.4259429
0.4179695
0.4180485
0.4186753
0.4193355
0.4200851
0.4209474
0.4169306
0.4173369
0.4179603
0.4186048
0.4192915
0.4200541
0.4209213
0.4166499
0.4172884
0.4179097
0.418552
0.4192504
0.420022
0.4208931
0.4166475
0.41727
0.4178807
0.4185254
0.4192173
0.4199918
0.4208655
0.4166718
0.417271
0.4178687
0.4185094
0.4192019
0.4199664
0.4208393
0.416693
0.417278
0.4178632
0.4184983
0.4191914
0.4199561
0.4208164
0.4167078
0.4172856
0.4178607
0.4184922
0.4191852
0.4199489
0.4208084
0.4167181
0.4172919
0.4178622
0.4184905
0.4191816
0.4199439
0.4208025
0.4167253
0.4172968
0.4178642
0.41849
0.4191794
0.4199403
0.420798
0.4167304
0.4173005
0.4178659
0.4184899
0.4191778
0.4199375
0.4207941
0.4167343
0.4173031
0.4178672
0.4184899
0.4191767
0.4199352
0.4207908
0.4167372
0.4173051
0.4178682
0.4184899
0.4191757
0.4199331
0.4207878
0.4167396
0.4173066
0.4178688
0.4184895
0.4191743
0.4199311
0.4207848
0.4167414
0.4173077
0.417869
0.4184855
0.4191679
0.4199286
0.4207819
0.416743
0.4173085
0.4178688
0.4184802
0.4191626
0.4199262
0.4207789
0.4167443
0.4173093
0.4178688
0.4184791
0.4191609
0.419924
0.4207758
0.4167456
0.4173098
0.4178687
0.418478
0.4191592
0.4199216
0.4207725
0.4167468
0.4173101
0.4178683
0.4184769
0.4191571
0.4199185
0.4207691
0.4167479
0.4173104
0.4178678
0.4184752
0.4191496
0.4199077
0.4207647
0.416749
0.4173107
0.4178671
0.4184733
0.4191402
0.4198985
0.4207602
0.4167502
0.4173109
0.4178665
0.4184717
0.419137
0.4198947
0.4207559
0.4167515
0.417311
0.4178657
0.4184698
0.4191341
0.4198901
0.4207503
0.4167529
0.4173113
0.4178649
0.4184678
0.4191301
0.4198781
0.4207334
0.4167545
0.4173116
0.4178641
0.4184655
0.4191258
0.4198631
0.4207186
0.4167563
0.4173119
0.417863
0.4184629
0.4191217
0.4198564
0.420711
0.4167586
0.4173125
0.4178619
0.4184601
0.4191171
0.4198499
0.4207021
0.4167613
0.4173131
0.4178609
0.4184571
0.4191119
0.4198419
0.4206821
0.4167644
0.4173141
0.4178599
0.4184538
0.4191061
0.4198329
0.4206572
0.4167668
0.417314
0.4178585
0.4184502
0.4190999
0.4198241
0.420644
0.4167701
0.4173146
0.4178575
0.4184465
0.4190932
0.4198144
0.42063
0.4167757
0.4173146
0.4178523
0.4184417
0.4190861
0.4198039
0.4206149
0.4167828
0.4173147
0.4178452
0.4184302
0.4190775
0.4197925
0.4206002
0.4167913
0.4173177
0.417839
0.4184218
0.4190685
0.4197803
0.4205844
0.4168012
0.4173217
0.4178369
0.4184099
0.4190488
0.4197651
0.4205673
0.4168124
0.417326
0.4178349
0.4183946
0.4190233
0.4197357
0.420547
0.4168242
0.4173297
0.4178324
0.4183845
0.4189976
0.419712
0.4205253
0.4168351
0.4173316
0.4178275
0.4183745
0.4189808
0.4196789
0.4204843
0.4168437
0.4173301
0.4178189
0.4183594
0.4189574
0.4196299
0.4204391
0.4168461
0.4173188
0.4177979
0.4183218
0.4188993
0.4195502
0.4203473
0.4168394
0.4172833
0.4177286
0.4182229
0.4187627
0.4194066
0.4202732
0.4168059
0.4171976
0.4175709
0.4179968
0.418541
0.4193429
0.4205757
0.4167211
0.4170141
0.4173005
0.4177115
0.4184247
0.4196676
0.421369
0.416548
0.4167392
0.4170039
0.4175821
0.4187097
0.4203827
0.4223877
0.4162735
0.4164419
0.4168546
0.4178249
0.4193286
0.4212416
0.4233661
0.4159338
0.4162405
0.4169611
0.4183446
0.4200604
0.4219466
0.4240958
0.4155835
0.4162514
0.4173411
0.4189084
0.4206908
0.4225989
0.4245188
0.4153034
0.4164713
0.417794
0.4193867
0.4211939
0.4230139
0.4250048
0.4151898
0.4168107
0.4182281
0.4198503
0.421589
0.4233474
0.4252163
0.4152553
0.4171438
0.4186304
0.4202875
0.4220123
0.4236742
0.4252102
0.4154636
0.4174079
0.4189135
0.4206943
0.4223959
0.4239848
0.4254316
0.415763
0.4176486
0.4192157
0.4210047
0.4226747
0.4242088
0.4257201
0.4160697
0.41786
0.4194991
0.4212613
0.4229629
0.4245294
0.4260501
0.4163296
0.418016
0.4196708
0.4214741
0.4232736
0.4249181
0.4262398
0.4165373
0.4181359
0.4198005
0.4216222
0.4234706
0.4251245
0.4264188
0.4166894
0.4182088
0.4198682
0.4216827
0.4235261
0.4251619
0.4264765
0.4166658
0.4181838
0.4198458
0.4216579
0.4234952
0.4251326
0.4264703
0.4164777
0.4180808
0.4197554
0.4215743
0.4234067
0.4250594
0.4263985
0.4162352
0.4179324
0.4196028
0.4214056
0.4231902
0.4248397
0.4262248
0.4159386
0.4177402
0.4193982
0.4211645
0.422856
0.4244273
0.4260095
0.4156052
0.4174973
0.4190715
0.4208642
0.4225382
0.4240794
0.4256086
0.415296
0.4172369
0.4187532
0.420538
0.4222286
0.4238084
0.4252438
0.4150992
0.4169708
0.4184364
0.4200757
0.4217857
0.4234327
0.4249469
0.4150534
0.4166382
0.4180064
0.4195909
0.4213057
0.4230406
0.4248912
0.4151948
0.4163196
0.4175658
0.4190933
0.4208577
0.4226668
0.4246274
0.4154953
0.4161301
0.4171392
0.4186141
0.4203235
0.4221871
0.4240765
0.415863
0.4161479
0.4168068
0.4180815
0.4196862
0.4214973
0.4235766
0.4162172
0.4163688
0.4167439
0.4176286
0.4189965
0.4207712
0.4228029
0.4165059
0.4166801
0.4169243
0.4174528
0.4184689
0.4199715
0.4218436
0.4166917
0.4169697
0.4172397
0.4176245
0.4182761
0.4193823
0.4209349
0.4167859
0.4171678
0.4175273
0.4179347
0.4184499
0.4191962
0.4203334
0.4168255
0.4172624
0.4176976
0.4181787
0.4187079
0.4193376
0.4201675
0.4168359
0.4173018
0.4177733
0.4182922
0.4188657
0.4195132
0.4203002
0.4168351
0.4173156
0.4177995
0.4183388
0.418936
0.4196047
0.4204108
0.4168281
0.41732
0.4178125
0.4183576
0.4189643
0.4196604
0.4204636
0.4168184
0.4173208
0.4178212
0.4183728
0.4189905
0.4197001
0.4205099
0.4168079
0.4173193
0.4178271
0.4183851
0.419017
0.4197309
0.4205351
0.4167978
0.4173164
0.4178304
0.418402
0.41904
0.4197558
0.4205569
0.4167887
0.4173136
0.4178338
0.4184155
0.4190614
0.4197725
0.4205761
0.4167807
0.4173113
0.4178408
0.4184252
0.4190718
0.4197864
0.4205939
0.4167738
0.4173118
0.4178489
0.4184378
0.4190816
0.419799
0.4206102
0.4167684
0.4173122
0.4178548
0.4184432
0.4190896
0.4198107
0.4206264
0.4167654
0.4173121
0.4178562
0.4184476
0.4190971
0.4198213
0.4206412
0.4167631
0.4173125
0.417858
0.4184517
0.4191039
0.4198307
0.4206551
0.4167602
0.4173117
0.4178594
0.4184554
0.4191102
0.4198402
0.4206803
0.4167576
0.4173112
0.4178607
0.4184588
0.4191157
0.4198484
0.4207007
0.4167554
0.4173108
0.4178619
0.4184619
0.4191205
0.4198552
0.4207099
0.4167537
0.4173107
0.4178632
0.4184646
0.4191248
0.4198622
0.4207178
0.4167521
0.4173106
0.4178642
0.4184669
0.4191293
0.4198774
0.4207327
0.4167508
0.4173104
0.4178652
0.4184692
0.4191334
0.4198895
0.4207499
0.4167497
0.4173104
0.417866
0.4184712
0.4191364
0.4198942
0.4207554
0.4167486
0.4173102
0.4178667
0.4184729
0.4191399
0.4198982
0.4207598
0.4167476
0.41731
0.4178675
0.418475
0.4191494
0.4199075
0.4207645
0.4167466
0.4173099
0.4178681
0.4184768
0.419157
0.4199184
0.4207691
0.4167456
0.4173097
0.4178687
0.418478
0.4191591
0.4199215
0.4207724
0.4167446
0.4173094
0.417869
0.4184791
0.4191609
0.4199238
0.4207756
0.4167434
0.4173089
0.4178691
0.4184804
0.4191627
0.4199261
0.4207787
0.4167422
0.4173084
0.4178695
0.4184857
0.419168
0.4199285
0.4207817
0.4167408
0.4173076
0.4178695
0.4184898
0.4191745
0.419931
0.4207845
0.416739
0.4173066
0.4178692
0.4184903
0.4191758
0.4199329
0.4207873
0.4167368
0.417305
0.4178684
0.4184904
0.4191766
0.4199347
0.42079
0.4167338
0.4173029
0.4178674
0.4184905
0.4191776
0.4199366
0.4207928
0.4167299
0.4173003
0.4178661
0.4184905
0.4191787
0.4199388
0.420796
0.4167247
0.4172967
0.4178644
0.4184906
0.4191801
0.4199415
0.4207997
0.4167177
0.4172917
0.4178626
0.4184911
0.4191823
0.4199451
0.4208043
0.4167076
0.4172854
0.4178637
0.4184948
0.4191861
0.4199501
0.4208107
0.4166928
0.4172778
0.4178653
0.4185014
0.4191925
0.4199575
0.4208316
0.4166716
0.4172706
0.4178684
0.4185096
0.4192023
0.4199793
0.4208557
0.4166477
0.4172696
0.4178803
0.4185245
0.4192281
0.4200056
0.4208816
0.4166512
0.417288
0.417906
0.418561
0.4192619
0.4200352
0.4209093
0.4169414
0.417329
0.4179677
0.4186137
0.4193021
0.4200673
0.4209376
0.4258598
0.4178937
0.4180213
0.4186853
0.4193498
0.4201008
0.4209654
0.4219827
0.4232549
0.4249497
0.4265589
0.429413
0.4338761
0.4438662
0.4219601
0.4232263
0.4249132
0.4265161
0.4293607
0.4338035
0.4434932
0.4219343
0.4231964
0.4248745
0.4270734
0.4293103
0.4337326
0.4432585
0.421907
0.4231657
0.4248385
0.4264228
0.429257
0.4336612
0.4430402
0.4218799
0.4231345
0.4248002
0.4263784
0.429204
0.4335898
0.4428768
0.4218533
0.4231033
0.4247616
0.4263325
0.4291515
0.4335185
0.4427166
0.4218277
0.4230725
0.4247234
0.4262883
0.4291356
0.4334474
0.4425592
0.4218046
0.4230423
0.4246857
0.426245
0.4291208
0.4333769
0.4424037
0.4217974
0.4230146
0.4246499
0.4262012
0.4290785
0.4333134
0.4422495
0.4217919
0.4230064
0.4246167
0.4261577
0.4290366
0.4332499
0.4420966
0.4217872
0.4230002
0.424607
0.4261155
0.4289948
0.4331866
0.4419447
0.4217827
0.4229942
0.4245994
0.4261056
0.4289528
0.4331232
0.4417942
0.4217785
0.4229883
0.4245917
0.4260965
0.4289445
0.4330586
0.4416451
0.4217744
0.4229825
0.4245839
0.4260871
0.4289353
0.4330444
0.4415013
0.4217704
0.4229765
0.4245758
0.4260776
0.4289256
0.433028
0.4415001
0.4217661
0.4229704
0.4245676
0.4260676
0.4289152
0.4330105
0.4414927
0.4217618
0.422964
0.4245591
0.4260568
0.4288997
0.4329925
0.4414943
0.4217573
0.4229576
0.4245501
0.4260414
0.428778
0.4329733
0.4414991
0.4217526
0.4229511
0.4245409
0.42603
0.42876
0.4329537
0.4414977
0.4217476
0.4229443
0.4245312
0.4260181
0.4287448
0.4329332
0.4415027
0.4217424
0.4229371
0.4245212
0.4260054
0.4287291
0.4329117
0.4415273
0.4217367
0.4229295
0.4245108
0.4259919
0.4287125
0.4328891
0.4415374
0.4217307
0.4229214
0.4244994
0.4259793
0.4286914
0.4328653
0.4415497
0.4217229
0.4229125
0.4244864
0.4265241
0.4285745
0.4328296
0.4415623
0.4217147
0.4229032
0.4244743
0.4259468
0.4285121
0.4328002
0.4415775
0.4217067
0.4228931
0.4244607
0.4259308
0.4284874
0.432772
0.4415961
0.4216959
0.422881
0.424445
0.4259119
0.428462
0.4327378
0.4416289
0.4216679
0.4228676
0.4244292
0.4258922
0.4284283
0.4324967
0.4416655
0.4216456
0.4225279
0.4239857
0.425872
0.4283963
0.4324003
0.4416906
0.4216293
0.4225159
0.4239695
0.4258486
0.4283655
0.4323589
0.4417214
0.4215894
0.4224707
0.4239488
0.4258233
0.4283319
0.4321901
0.441748
0.4215568
0.422424
0.4239263
0.4257952
0.428295
0.4319796
0.4417715
0.4215351
0.4223562
0.4238969
0.4257646
0.4282549
0.4319173
0.4417563
0.421515
0.4223255
0.4238304
0.4257318
0.428212
0.4318393
0.4408982
0.4214938
0.4222981
0.4237515
0.425695
0.428167
0.4317691
0.4407445
0.4214713
0.4222703
0.4236511
0.4256425
0.4281251
0.4317001
0.4376541
0.4214486
0.4222416
0.4236163
0.4255289
0.4280938
0.4316342
0.4390649
0.4214215
0.4222139
0.4235871
0.4254574
0.4281106
0.4316738
0.4371313
0.42139
0.422189
0.4235991
0.4255091
0.4285139
0.4324498
0.4357809
0.4213814
0.4222211
0.4239286
0.4263763
0.4295721
0.4330066
0.4357845
0.4216486
0.4227073
0.4250884
0.4279526
0.4309407
0.4329064
0.4376884
0.422399
0.4238096
0.4266093
0.4297371
0.4322607
0.4331482
0.4390152
0.4236368
0.4250294
0.4279526
0.4308852
0.433008
0.4334773
0.4398703
0.4248673
0.4263066
0.4293084
0.4323972
0.433683
0.4343361
0.4403351
0.4258142
0.427327
0.4305056
0.4337149
0.43414
0.4355079
0.4419976
0.4265815
0.4283796
0.4321722
0.4344687
0.4351383
0.4359926
0.442706
0.4271952
0.4291592
0.4329621
0.4354028
0.4353672
0.4360789
0.4394968
0.427582
0.429836
0.4332866
0.435748
0.4360401
0.4355127
0.4363934
0.4278387
0.4299602
0.4336119
0.4362893
0.4358422
0.4363012
0.4358682
0.4279972
0.4305432
0.4345701
0.435736
0.4357595
0.4361004
0.4357154
0.4284473
0.4306895
0.4341681
0.4344634
0.4350205
0.4367508
0.4370412
0.4289369
0.4315897
0.4334304
0.4345481
0.4356819
0.4370239
0.4394466
0.4290485
0.4316767
0.4341508
0.4352011
0.4354695
0.4366373
0.4381077
0.429293
0.4323363
0.4347626
0.4351377
0.4352126
0.4341763
0.4361299
0.4292828
0.4325044
0.4354483
0.4359181
0.4337951
0.4325253
0.4384962
0.4292624
0.4325406
0.4349687
0.4358308
0.4338004
0.4322837
0.4292518
0.432378
0.4344672
0.436428
0.4338905
0.4321603
0.4293129
0.432574
0.4346923
0.4353108
0.433018
0.4322995
0.4293254
0.4328441
0.4335531
0.4329944
0.4340226
0.4339348
0.4358443
0.4290183
0.432483
0.4332917
0.434289
0.4343508
0.435646
0.4393336
0.428746
0.4323068
0.433625
0.4350125
0.434913
0.4358055
0.4380268
0.4281063
0.4317408
0.4336423
0.4347237
0.4347399
0.434279
0.4381237
0.4275907
0.4307187
0.4338932
0.4346847
0.4339075
0.4347096
0.43788
0.4273768
0.4300734
0.4332239
0.4350338
0.4347446
0.4357671
0.4357675
0.4270557
0.4295629
0.4329336
0.4355898
0.4357532
0.4349012
0.435119
0.4266448
0.4292204
0.4321012
0.4357554
0.4356911
0.4352429
0.4372015
0.425968
0.4283665
0.4315447
0.4343299
0.4355162
0.4351236
0.4375438
0.4251332
0.4275998
0.4302607
0.4334713
0.4347926
0.435713
0.4381202
0.4242426
0.4265745
0.4290471
0.4323142
0.4343698
0.4357668
0.4393814
0.4230917
0.4254037
0.4280218
0.4307928
0.4337702
0.4351048
0.4414137
0.4220497
0.4240873
0.4266108
0.429782
0.4325631
0.4342346
0.4409672
0.4214624
0.4229668
0.4253054
0.4284578
0.4313786
0.4334097
0.4392326
0.4213085
0.4223272
0.4242031
0.4268656
0.4299097
0.433041
0.4374895
0.4213578
0.4221996
0.4236374
0.425772
0.4290045
0.4330995
0.4359946
0.4214
0.4222148
0.4235654
0.4254191
0.4282654
0.4320564
0.4359412
0.421432
0.4222418
0.4235854
0.4254905
0.4280893
0.4315639
0.4375195
0.421458
0.4222687
0.4236194
0.4255723
0.4280974
0.4316443
0.4389965
0.4214831
0.4222954
0.423681
0.4256626
0.4281342
0.4317208
0.4404058
0.4215068
0.4223216
0.4237771
0.4257057
0.4281805
0.431797
0.4408163
0.4215287
0.4223484
0.4238692
0.4257418
0.4282269
0.4318718
0.4411856
0.421552
0.4224029
0.4239069
0.4257755
0.4282705
0.431944
0.4417703
0.4215857
0.4224479
0.4239344
0.4258062
0.4283104
0.432024
0.4417566
0.4216267
0.4225075
0.423957
0.425834
0.4283469
0.4323208
0.4417367
0.4216436
0.4225297
0.4239783
0.4258586
0.4283796
0.4323785
0.4417098
0.4216664
0.4228663
0.4244281
0.4258859
0.4284107
0.432421
0.4416862
0.4216947
0.4228799
0.4244441
0.4259053
0.4284459
0.4326443
0.4416571
0.4217057
0.4228921
0.4244596
0.4259237
0.4284749
0.4327573
0.4416236
0.421714
0.4229025
0.4244736
0.425941
0.4285002
0.4327869
0.4416028
0.4217223
0.4229121
0.4244868
0.4259574
0.428527
0.4328145
0.4415825
0.4217303
0.422921
0.4244989
0.4259731
0.4286531
0.4328502
0.4415693
0.4217363
0.4229292
0.4245104
0.4259878
0.4287047
0.4328788
0.4415563
0.4217421
0.422937
0.4245212
0.4260014
0.4287217
0.4329019
0.4415405
0.4217475
0.4229443
0.4245313
0.4260145
0.428738
0.4329239
0.4415312
0.4217526
0.4229511
0.4245411
0.4260267
0.4287533
0.432945
0.4415203
0.4217572
0.4229576
0.4245502
0.4260384
0.4287678
0.432965
0.4415146
0.4217617
0.422964
0.4245591
0.4260522
0.4288334
0.4329844
0.4415145
0.421766
0.4229703
0.4245676
0.4260648
0.4289105
0.4330029
0.4415143
0.4217701
0.4229763
0.4245757
0.4260752
0.4289209
0.4330206
0.4415155
0.421774
0.4229821
0.4245835
0.4260853
0.4289308
0.4330375
0.4415137
0.4217779
0.4229876
0.4245911
0.4260949
0.4289401
0.4330532
0.4415936
0.4217817
0.4229931
0.4245985
0.4261044
0.428949
0.4330924
0.4417415
0.4217857
0.4229988
0.4246057
0.4261136
0.4289738
0.4331556
0.4418912
0.4217898
0.4230045
0.424615
0.4261396
0.4290152
0.4332189
0.4420423
0.4217946
0.423012
0.4246477
0.426183
0.4290568
0.4332821
0.4421943
0.4218008
0.4230388
0.4246828
0.4262269
0.4290985
0.4333455
0.4423472
0.4218226
0.4230682
0.4247199
0.4262713
0.4291387
0.4334121
0.4425011
0.421847
0.4230982
0.4247576
0.4263137
0.4291259
0.433483
0.4426562
0.4218725
0.423129
0.4247958
0.4263588
0.4291766
0.433554
0.4428131
0.4218991
0.4231603
0.4248343
0.4264037
0.4292291
0.4336251
0.4429727
0.4219268
0.4231919
0.4248728
0.4264487
0.4292817
0.4336964
0.4431549
0.4219545
0.423223
0.424911
0.4264929
0.4293343
0.4337676
0.4433837
0.4219815
0.4232542
0.424949
0.4265365
0.4293867
0.4338392
0.4436692
0.9958115
1
1
1
1
1
1
1
1
1
1
1
1
1
1
1
1
1
0.9917691
1
1
1
1
1
1
1
1
1
1
1
1
1
1
1
1
1
0.99135
1
1
1
1
1
1
1
1
1
1
1
1
1
1
1
1
1
0.9907279
1
1
1
1
1
1
1
1
1
1
1
1
1
1
1
1
1
0.9899235
1
1
1
1
1
1
1
1
1
1
1
1
1
1
1
1
1
0.9889497
1
1
1
1
1
1
1
1
1
1
1
1
1
1
1
1
1
0.9878229
1
1
1
1
1
1
1
1
1
1
1
1
1
1
1
1
1
0.9865572
1
1
1
1
1
1
1
1
1
1
1
1
1
1
1
1
1
0.985164
1
1
1
1
1
1
1
1
1
1
1
1
1
1
1
1
1
0.9836526
0.9999999
1
1
1
1
1
1
1
1
1
1
1
1
1
1
1
1
0.9820297
0.9999999
1
1
1
1
1
1
1
1
1
1
1
1
1
1
1
1
0.9802973
0.9999999
1
1
1
1
1
1
1
1
1
1
1
1
1
1
1
1
0.9784555
0.9999999
1
1
1
1
1
1
1
1
1
1
1
1
1
1
1
1
0.9763685
0.9999998
1
1
1
1
1
1
1
1
1
1
1
1
1
1
1
1
0.967461
0.9999997
1
1
1
1
1
1
1
1
1
1
1
1
1
1
1
1
0.9641444
1
1
1
1
1
1
1
1
1
1
1
1
1
1
1
1
1
0.9627858
0.9999996
1
1
1
1
1
1
1
1
1
1
1
1
1
1
1
1
0.9607568
0.9999996
1
1
1
1
1
1
1
1
1
1
1
1
1
1
1
1
0.9581099
0.9999995
1
1
1
1
1
1
1
1
1
1
1
1
1
1
1
1
0.9554258
0.9999995
1
1
1
1
1
1
1
1
1
1
1
1
1
1
1
1
0.9527205
0.9999994
1
1
1
1
1
1
1
1
1
1
1
1
1
1
1
1
0.9499074
0.9999991
1
1
1
1
1
1
1
1
1
1
1
1
1
1
1
1
0.9469192
0.9999989
1
1
1
1
1
1
1
1
1
1
1
1
1
1
1
1
0.9437715
0.9999986
1
1
1
1
1
1
1
1
1
1
1
1
1
1
1
1
0.9403882
0.9999983
1
1
1
1
1
1
1
1
1
1
1
1
1
1
1
1
0.9368723
0.9999979
1
1
1
1
1
1
1
1
1
1
1
1
1
1
1
1
0.9331042
0.9999974
1
1
1
1
1
1
1
1
1
1
1
1
1
1
1
1
0.929089
0.9999968
1
1
1
1
1
1
1
1
1
1
1
1
1
1
1
1
0.9248893
0.999996
1
1
1
1
1
1
1
1
1
1
1
1
1
1
1
1
0.9203466
0.9999951
1
1
1
1
1
1
1
1
1
1
1
1
1
1
1
1
0.915554
0.999994
1
1
1
1
1
1
1
1
1
1
1
1
1
1
1
1
0.9105313
0.9999928
1
1
1
1
1
1
1
1
1
1
1
1
1
1
1
1
0.9050646
0.9999916
1
1
1
1
1
1
1
1
1
1
1
1
1
1
1
1
0.8988784
0.9999915
1
1
1
1
1
1
1
1
1
1
1
1
1
1
1
1
0.8814472
0.9999844
1
1
1
1
1
1
1
1
1
1
1
1
1
1
1
1
0.8727746
0.9999784
1
1
1
1
1
1
1
1
1
1
1
1
1
1
1
1
0.8610081
0.9999751
1
1
1
1
1
1
1
1
1
1
1
1
1
1
1
1
0.7614489
0.9999546
1
1
1
1
1
1
1
1
1
1
1
1
1
1
1
1
0.637641
0.9999142
1
1
1
1
1
1
1
1
1
1
1
1
1
1
1
1
0.5429787
0.9999225
1
1
1
1
1
1
1
1
1
1
1
1
1
1
1
1
0.4926563
0.9986312
0.9999997
1
1
1
1
1
1
1
1
1
1
1
1
1
1
1
0.4827365
0.9988993
0.9999997
1
1
1
1
1
1
1
1
1
1
1
1
1
1
1
0.4767679
0.9994628
1
1
1
1
1
1
1
1
1
1
1
1
1
1
1
1
0.4703504
0.999593
1
1
1
1
1
1
1
1
1
1
1
1
1
1
1
1
0.4630498
0.9994206
1
1
1
1
1
1
1
1
1
1
1
1
1
1
1
1
0.457979
0.9994513
1
1
1
1
1
1
1
1
1
1
1
1
1
1
1
1
0.4508026
0.9998363
0.9999997
1
1
1
1
1
1
1
1
1
1
1
1
1
1
1
0.446579
0.984617
0.999989
1
1
1
1
1
1
1
1
1
1
1
1
1
1
1
0.442332
0.9460355
0.9999488
0.9999999
1
1
1
1
1
1
1
1
1
1
1
1
1
1
0.4371126
0.8836818
0.9996537
0.9999982
1
1
1
1
1
1
1
1
1
1
0.4379667
0.5010276
1
1
1
1
1
1
1
1
0.4428874
1
1
1
1
1
1
1
1
1
1
1
1
1
1
1
1
1
1
1
1
1
1
1
1
1
1
1
1
1
1
1
1
1
1
1
1
1
1
1
1
1
1
1
1
1
1
1
1
1
0.4409125
1
1
1
1
1
1
0.4391082
0.468376
1
1
1
1
1
1
1
0.4373729
0.8072735
0.9992622
1
1
1
1
1
1
1
1
1
0.4386741
0.9262371
0.9999256
0.9999998
1
1
1
1
1
1
1
1
1
1
1
1
1
1
0.4464707
0.968123
0.9999859
1
1
1
1
1
1
1
1
1
1
1
1
1
1
1
0.4505971
0.9972619
0.9999983
1
1
1
1
1
1
1
1
1
1
1
1
1
1
1
0.454193
0.9996303
1
1
1
1
1
1
1
1
1
1
1
1
1
1
1
1
0.4633552
0.9995158
1
1
1
1
1
1
1
1
1
1
1
1
1
1
1
1
0.4652989
0.9995948
1
1
1
1
1
1
1
1
1
1
1
1
1
1
1
1
0.4696089
0.999642
1
1
1
1
1
1
1
1
1
1
1
1
1
1
1
1
0.4764906
0.9993741
1
1
1
1
1
1
1
1
1
1
1
1
1
1
1
1
0.4842625
0.9990261
0.9999999
1
1
1
1
1
1
1
1
1
1
1
1
1
1
1
0.4952023
0.998856
0.9999999
1
1
1
1
1
1
1
1
1
1
1
1
1
1
1
0.5726207
0.9998823
1
1
1
1
1
1
1
1
1
1
1
1
1
1
1
1
0.6258116
1
1
1
1
1
1
1
1
1
1
1
1
1
1
1
1
1
0.8260093
0.9999704
1
1
1
1
1
1
1
1
1
1
1
1
1
1
1
1
0.8514492
0.9999739
1
1
1
1
1
1
1
1
1
1
1
1
1
1
1
1
0.8683455
0.9999801
1
1
1
1
1
1
1
1
1
1
1
1
1
1
1
1
0.8867349
0.9999859
1
1
1
1
1
1
1
1
1
1
1
1
1
1
1
1
0.9015413
0.9999938
1
1
1
1
1
1
1
1
1
1
1
1
1
1
1
1
0.9073908
0.9999932
1
1
1
1
1
1
1
1
1
1
1
1
1
1
1
1
0.9126919
0.9999939
1
1
1
1
1
1
1
1
1
1
1
1
1
1
1
1
0.9177132
0.9999949
1
1
1
1
1
1
1
1
1
1
1
1
1
1
1
1
0.9224843
0.9999958
1
1
1
1
1
1
1
1
1
1
1
1
1
1
1
1
0.9269233
0.9999965
1
1
1
1
1
1
1
1
1
1
1
1
1
1
1
1
0.9310822
0.9999972
1
1
1
1
1
1
1
1
1
1
1
1
1
1
1
1
0.9350326
0.9999977
1
1
1
1
1
1
1
1
1
1
1
1
1
1
1
1
0.9388177
0.9999981
1
1
1
1
1
1
1
1
1
1
1
1
1
1
1
1
0.9421593
0.9999985
1
1
1
1
1
1
1
1
1
1
1
1
1
1
1
1
0.9455695
0.9999988
1
1
1
1
1
1
1
1
1
1
1
1
1
1
1
1
0.9486246
0.999999
1
1
1
1
1
1
1
1
1
1
1
1
1
1
1
1
0.9515388
0.9999992
1
1
1
1
1
1
1
1
1
1
1
1
1
1
1
1
0.9542405
0.9999994
1
1
1
1
1
1
1
1
1
1
1
1
1
1
1
1
0.9569168
0.9999995
1
1
1
1
1
1
1
1
1
1
1
1
1
1
1
1
0.9597053
0.9999996
1
1
1
1
1
1
1
1
1
1
1
1
1
1
1
1
0.9622997
0.9999996
1
1
1
1
1
1
1
1
1
1
1
1
1
1
1
1
0.9647408
0.9999997
1
1
1
1
1
1
1
1
1
1
1
1
1
1
1
1
0.9667015
0.9999999
1
1
1
1
1
1
1
1
1
1
1
1
1
1
1
1
0.9729939
0.9999999
1
1
1
1
1
1
1
1
1
1
1
1
1
1
1
1
0.977069
0.9999999
1
1
1
1
1
1
1
1
1
1
1
1
1
1
1
1
0.978945
0.9999999
1
1
1
1
1
1
1
1
1
1
1
1
1
1
1
1
0.9807077
0.9999999
1
1
1
1
1
1
1
1
1
1
1
1
1
1
1
1
0.9823654
1
1
1
1
1
1
1
1
1
1
1
1
1
1
1
1
1
0.9839203
1
1
1
1
1
1
1
1
1
1
1
1
1
1
1
1
1
0.9853712
1
1
1
1
1
1
1
1
1
1
1
1
1
1
1
1
1
0.9867129
1
1
1
1
1
1
1
1
1
1
1
1
1
1
1
1
1
0.9879373
1
1
1
1
1
1
1
1
1
1
1
1
1
1
1
1
1
0.989034
1
1
1
1
1
1
1
1
1
1
1
1
1
1
1
1
1
0.98999
1
1
1
1
1
1
1
1
1
1
1
1
1
1
1
1
1
0.9907934
1
1
1
1
1
1
1
1
1
1
1
1
1
1
1
1
1
0.9914407
1
1
1
1
1
1
1
1
1
1
1
1
1
1
1
1
1
0.9928824
1
1
1
1
1
1
1
1
1
1
1
1
1
1
1
1
1
1
1
1
1
1
1
1
1
1
1
1
1
1
1
1
1
1
1
1
1
1
1
1
1
1
1
1
1
1
1
1
1
1
1
1
1
1
1
1
1
1
1
1
1
1
1
1
1
1
1
1
1
1
1
1
1
1
1
1
1
1
1
1
1
1
1
1
1
1
1
1
1
1
1
1
1
1
1
1
1
1
1
1
1
1
1
1
1
1
1
1
1
1
1
1
1
1
1
1
1
1
1
1
1
1
1
1
1
1
1
1
1
1
1
1
1
1
1
1
1
1
1
1
1
1
1
1
1
1
1
1
1
1
1
1
1
1
1
1
1
1
1
1
1
1
1
1
1
1
1
1
1
1
1
1
1
1
1
1
1
1
1
1
1
1
1
1
1
1
1
1
1
1
1
1
1
1
1
1
1
1
1
1
1
1
1
1
1
1
1
1
1
1
1
1
1
1
1
1
1
1
1
1
1
1
1
1
1
1
1
1
1
1
1
1
1
1
1
1
1
1
1
1
1
1
1
1
1
1
1
1
1
1
1
1
1
1
1
1
1
1
1
1
1
1
1
1
1
1
1
1
1
1
1
1
1
1
1
1
1
1
1
1
1
1
1
1
1
1
1
1
1
1
1
1
1
1
1
1
1
1
1
1
1
1
1
1
1
1
1
1
1
1
1
1
1
1
1
1
1
1
1
1
1
1
1
1
1
1
1
1
1
1
1
1
1
1
1
1
1
1
1
1
1
1
1
1
1
1
1
1
1
1
1
1
1
1
1
1
1
1
1
1
1
1
1
1
1
1
1
1
1
1
1
1
1
1
1
1
1
1
1
1
1
1
1
1
1
1
1
1
1
1
1
1
1
1
1
1
1
1
1
1
1
1
1
1
1
1
1
1
1
1
1
1
1
1
1
1
1
1
1
1
1
1
1
1
1
1
1
1
1
1
1
1
1
1
1
1
1
1
1
1
1
1
1
1
1
1
1
1
1
1
1
1
1
1
1
1
1
1
1
1
1
1
1
1
1
1
1
1
1
1
1
1
1
1
1
1
1
1
1
1
1
1
1
1
1
1
1
1
1
1
1
1
1
1
1
1
1
1
1
1
1
1
1
1
1
1
1
1
1
1
1
1
1
1
1
1
1
1
1
1
1
1
1
1
1
1
1
1
1
1
1
1
1
1
1
1
1
1
1
1
1
1
1
1
1
1
1
1
1
1
1
1
1
1
1
1
1
1
1
1
1
1
1
1
1
1
1
1
1
1
1
1
1
1
1
1
1
1
1
1
1
1
1
1
1
1
1
1
1
1
1
1
1
1
1
1
1
1
1
1
1
1
1
1
1
1
1
1
1
1
1
1
1
1
1
1
1
1
1
1
1
1
1
1
1
1
1
1
1
1
1
1
1
1
1
1
1
1
1
1
1
1
1
1
1
1
1
1
1
1
1
1
1
1
1
1
1
1
1
1
1
1
1
1
1
1
1
1
1
1
1
1
1
1
1
1
1
1
1
1
1
1
1
1
1
1
1
1
1
1
1
1
1
1
1
1
1
1
1
1
1
1
1
1
1
1
1
1
1
1
1
1
1
1
1
1
1
1
1
1
1
1
1
1
1
1
1
1
1
1
1
1
1
1
1
1
1
1
1
1
1
1
1
1
1
1
1
1
1
1
1
1
1
1
1
1
1
1
1
1
1
1
1
1
1
1
1
1
1
1
1
1
1
1
1
1
1
1
1
1
1
1
1
1
1
1
1
1
1
1
1
1
1
1
1
1
1
1
1
1
1
1
1
1
1
1
1
1
1
1
1
1
1
1
1
1
1
1
1
1
1
1
1
1
1
1
1
1
1
1
1
1
1
1
1
1
1
1
1
1
1
1
1
1
1
1
1
1
1
1
1
1
1
1
1
1
1
1
1
1
1
1
1
1
1
1
1
1
1
1
1
1
1
1
1
1
1
1
1
1
1
1
1
1
1
1
1
1
1
1
1
1
1
1
1
1
1
1
1
1
1
1
1
1
1
1
1
1
1
1
1
1
1
1
1
1
1
1
1
1
1
1
1
1
1
1
1
1
1
1
1
1
1
1
1
1
1
1
1
1
1
1
1
1
1
1
1
1
1
1
1
1
1
1
1
1
1
1
1
1
1
1
1
1
1
1
1
1
1
1
1
1
1
1
1
1
1
1
1
1
1
1
1
1
1
1
1
1
1
1
1
1
1
1
1
1
1
1
1
1
1
1
1
1
1
1
1
1
1
1
1
1
1
1
1
1
1
1
1
1
1
1
1
1
1
1
1
1
1
1
1
1
1
1
1
1
1
1
1
1
1
1
1
1
1
1
1
1
1
1
1
1
1
1
1
1
1
1
1
1
1
1
1
1
1
1
1
1
1
1
1
1
1
1
1
1
1
1
1
1
1
1
1
1
1
1
1
1
1
1
1
1
1
1
1
1
1
1
1
1
1
1
1
1
1
1
1
1
1
1
1
1
1
1
1
1
1
1
1
1
1
1
1
1
1
1
1
1
1
1
1
1
1
1
1
1
1
1
1
1
1
1
1
1
1
1
1
1
1
1
1
1
1
1
1
1
1
1
1
1
1
1
1
1
1
1
1
1
1
1
1
1
1
1
1
1
1
1
1
1
1
1
1
1
1
1
1
1
1
1
1
1
1
1
1
1
1
1
1
1
1
1
1
1
1
1
1
1
1
1
1
1
1
1
1
1
1
1
1
1
1
1
1
1
1
1
1
1
1
1
1
1
1
1
1
1
1
1
1
1
1
1
1
1
1
1
1
1
1
0.440005
0.4417115
0.4393913
0.4353382
0.4397629
0.4318776
0.4320501
0.4303591
0.429105
0.4322002
0.4290332
0.4304091
0.4321311
0.432075
0.4399041
0.4334648
0.4384706
0.4372261
0.4408775
0.4393775
0.4381006
1
1
0.9999997
1
1
1
1
1
1
1
1
1
1
1
1
1
1
1
0.9999821
0.9999322
0.9991342
0.9999999
1
1
1
1
0.9817193
0.474075
1
1
0.4429558
0.4405537
1
1
1
1
1
1
1
1
1
1
1
1
1
1
1
1
1
1
1
1
1
1
1
1
1
1
1
1
1
1
1
1
0.4434403
0.4413096
1
1
1
0.9892966
0.5031234
1
1
1
0.9999451
0.9999834
0.9996634
0.9999999
0.9999986
1
1
1
1
1
1
1
0.9999999
1
1
1
1
1
1
1
1
1
1
1
1
1
1
1
0.4278535
0.4278281
0.4265374
0.4313506
0.4313229
0.4293868
0.4374631
0.4374089
0.4338386
0.4998179
0.489441
0.4436648
0.4278019
0.4277768
0.4264958
0.4312964
0.4312701
0.4293359
0.4373532
0.4372986
0.4337676
0.481937
0.4812248
0.4433749
0.4312442
0.4312177
0.4292875
0.4372433
0.4371887
0.4336972
0.4805724
0.4799656
0.4431433
0.4276991
0.4276716
0.4264082
0.4311905
0.4311633
0.4292298
0.4371338
0.4370784
0.4336251
0.4794024
0.4788845
0.4429582
0.4276466
0.4276213
0.4263619
0.4311359
0.4311098
0.4291776
0.4370233
0.4369683
0.4335538
0.4784114
0.4779813
0.4427961
0.4310829
0.4310565
0.4291274
0.4369153
0.436869
0.433483
0.4775919
0.4772419
0.4426376
0.4275671
0.4275718
0.4262733
0.4310327
0.4310083
0.4291399
0.4368226
0.436776
0.433412
0.4769289
0.4766515
0.442481
0.4309819
0.4309558
0.4290991
0.4367294
0.4366829
0.4333449
0.4764076
0.4761968
0.4423261
0.4275078
0.4274865
0.4261847
0.4309291
0.4309034
0.429057
0.436636
0.4365898
0.4332812
0.4760166
0.475866
0.4421729
0.4274649
0.4274438
0.426141
0.4308769
0.4308533
0.4290156
0.4365432
0.4364967
0.433218
0.4757446
0.47565
0.4420205
0.4274224
0.4274022
0.4261149
0.4308292
0.4308054
0.428974
0.4364501
0.4364037
0.4331546
0.4755833
0.4755437
0.4418689
0.4273987
0.427394
0.4261053
0.4307813
0.4307566
0.4289486
0.4363569
0.4363107
0.4330913
0.4755301
0.475545
0.4417192
0.4273891
0.4273847
0.4260954
0.4307516
0.4307463
0.4289396
0.4362641
0.4362155
0.4330522
0.4755868
0.4756579
0.4415717
0.4273797
0.427375
0.4260854
0.4307403
0.4307345
0.4289303
0.436206
0.4361936
0.4330361
0.4757458
0.4757697
0.4414909
0.4273698
0.4273649
0.4260758
0.4307281
0.4307219
0.4289206
0.4361805
0.4361677
0.433019
0.4769023
0.4764655
0.4414921
0.42736
0.4273543
0.4260655
0.4307154
0.4307088
0.4289105
0.4361534
0.4361406
0.4330015
0.4776539
0.4756227
0.4414928
0.4273462
0.4272999
0.4260521
0.4307022
0.4306903
0.4288332
0.4361266
0.4361128
0.4329833
0.4758787
0.4749483
0.4414944
0.4272435
0.4272329
0.4260378
0.4306793
0.430672
0.4287668
0.4360984
0.4360833
0.4329639
0.474632
0.4742071
0.4414951
0.4272253
0.4272186
0.4260262
0.4306646
0.430657
0.4287526
0.4360683
0.4360527
0.4329437
0.4738535
0.4734798
0.4414994
0.4272111
0.4272036
0.4260143
0.4306492
0.4306412
0.4287374
0.4360365
0.4360203
0.4329225
0.4731631
0.4728455
0.4415127
0.4271963
0.427188
0.4260015
0.4306331
0.4306245
0.4287213
0.436003
0.4359864
0.4329
0.4725375
0.4722427
0.4415228
0.42718
0.427171
0.425988
0.4306159
0.4306069
0.428704
0.4359681
0.4359507
0.4328772
0.4719379
0.4716508
0.4415379
0.4271613
0.4271519
0.4259755
0.4305955
0.4305357
0.4286528
0.4359323
0.4359131
0.4328493
0.4713394
0.4710508
0.4415511
0.4304403
0.43039
0.4285291
0.4358936
0.4358731
0.4328143
0.4707459
0.4704423
0.441568
0.4271213
0.4271095
0.4259439
0.430376
0.4303629
0.4284997
0.4358528
0.4358312
0.4327863
0.4701408
0.4698487
0.4415885
0.4271006
0.4270905
0.4259245
0.4303498
0.4303362
0.4284751
0.4358091
0.4357865
0.4327571
0.4695499
0.4692495
0.4416123
0.4270796
0.4270685
0.4259061
0.430317
0.4302591
0.4284464
0.4357629
0.4357314
0.4326451
0.46895
0.4686466
0.4416478
0.4270571
0.4270448
0.4258873
0.4301488
0.4300823
0.4284122
0.4356955
0.4356646
0.4324219
0.4683445
0.4680437
0.4416802
0.4232084
0.4231987
0.4225314
0.4248697
0.4248565
0.4239793
0.4270321
0.4270184
0.4258605
0.4300605
0.4300416
0.4283807
0.4356389
0.4356125
0.4323801
0.4677463
0.4674383
0.4417061
0.4231911
0.4231826
0.4225099
0.4248474
0.4248366
0.4239596
0.4270045
0.4269902
0.4258354
0.4300221
0.4300021
0.4283486
0.4355855
0.4355426
0.4323223
0.4671307
0.4668226
0.4417368
0.4231706
0.4231591
0.4224514
0.4248248
0.4248129
0.4239376
0.4269745
0.4269593
0.4258091
0.4299763
0.429949
0.4283133
0.4353142
0.4351269
0.4320265
0.4665168
0.4662075
0.4417609
0.4231424
0.4231053
0.4224077
0.4247999
0.4247868
0.4239114
0.4269423
0.4269253
0.4257802
0.4299257
0.4299019
0.4282753
0.4350776
0.4350433
0.4319492
0.4659058
0.4655947
0.4417803
0.4230711
0.4230497
0.4223545
0.4247732
0.4247588
0.4238758
0.426908
0.4268898
0.4257486
0.4298771
0.4298513
0.4282348
0.4349849
0.4347626
0.4318789
0.4652725
0.4648918
0.4412066
0.4230142
0.4229662
0.42233
0.4247411
0.4247213
0.4237849
0.4268721
0.4268523
0.425715
0.4298261
0.4297988
0.4281902
0.4345133
0.4344423
0.4318058
0.4644911
0.4637064
0.4408565
0.422944
0.4229283
0.422306
0.4246803
0.4246212
0.4236917
0.4268332
0.4268146
0.4256736
0.4297713
0.4297433
0.4281452
0.4343864
0.4343264
0.4317319
0.462915
0.4626417
0.4405018
0.4229126
0.4228985
0.4222818
0.4245769
0.4245285
0.4236326
0.4267973
0.4267759
0.4255837
0.4297191
0.4296987
0.4281072
0.4343587
0.4341948
0.4316707
0.4612247
0.4597625
0.4392494
0.4228831
0.4228698
0.4222584
0.4244606
0.4244331
0.4236009
0.426759
0.4267402
0.4254974
0.4296861
0.4296849
0.4280872
0.4340384
0.4338209
0.4316152
0.459478
0.4590107
0.4383191
0.4228557
0.4228448
0.4222367
0.4244214
0.4244288
0.4235818
0.4267158
0.4267391
0.4254215
0.4297621
0.4299915
0.4282374
0.4336698
0.4338306
0.4319592
0.4509764
0.448463
0.4361174
0.4228455
0.4228745
0.4222358
0.4244807
0.4246539
0.4236765
0.4268613
0.42719
0.4258221
0.4303814
0.4309417
0.4290524
0.4341852
0.4345244
0.4328899
0.4475462
0.4454184
0.4354861
0.4229969
0.4233134
0.4224534
0.4250629
0.4256977
0.4244182
0.4277852
0.4286382
0.4271069
0.4315327
0.4320426