/*--------------------------------*- C++ -*----------------------------------*\
| =========                 |                                                 |
| \\      /  F ield         | OpenFOAM: The Open Source CFD Toolbox           |
|  \\    /   O peration     | Version:  2206                                  |
|   \\  /    A nd           | Website:  www.openfoam.com                      |
|    \\/     M anipulation  |                                                 |
\*---------------------------------------------------------------------------*/
FoamFile
{
    version     2.0;
    format      ascii;
    arch        "LSB;label=32;scalar=64";
    class       volScalarField;
    location    "1.2";
    object      ddt0(alpha.a);
}
// * * * * * * * * * * * * * * * * * * * * * * * * * * * * * * * * * * * * * //

dimensions      [0 0 -1 0 0 0 0];

internalField   nonuniform List<scalar> 
13078
(
0.29932
0.002350572
-6.554074e-05
-0.0001391891
-7.111969e-05
-4.847959e-05
-4.971553e-05
0.002337554
0.0001253917
-0.0001125039
-9.268399e-05
-5.436185e-05
-4.299402e-05
-4.71741e-05
0.0001454826
-7.802678e-05
-7.073773e-05
-4.74624e-05
-3.367613e-05
-3.386654e-05
-4.294979e-05
3.163784e-05
-3.10444e-05
-2.382953e-05
-1.643008e-05
-1.729832e-05
-2.583188e-05
-3.879458e-05
6.677593e-05
1.003867e-05
6.272025e-06
1.463429e-06
-6.97616e-06
-2.037126e-05
-3.555552e-05
7.347562e-05
2.7329e-05
2.031524e-05
1.03598e-05
-2.684859e-06
-1.765361e-05
-3.326554e-05
7.185001e-05
3.162801e-05
2.430121e-05
1.235322e-05
-1.604881e-06
-1.720298e-05
-3.190587e-05
6.742878e-05
3.008533e-05
2.342347e-05
1.107951e-05
-2.78914e-06
-1.748455e-05
-3.126606e-05
6.199259e-05
2.601126e-05
1.9785e-05
8.086206e-06
-4.756537e-06
-1.808087e-05
-3.046126e-05
5.645055e-05
2.118902e-05
1.560812e-05
4.867557e-06
-6.668586e-06
-1.864435e-05
-2.982996e-05
5.117119e-05
1.663323e-05
1.164881e-05
1.972904e-06
-8.378519e-06
-1.921805e-05
-2.92963e-05
4.638016e-05
1.254065e-05
8.193561e-06
-5.000089e-07
-9.901332e-06
-1.967322e-05
-2.876577e-05
4.216798e-05
9.021181e-06
5.209192e-06
-2.704033e-06
-1.118522e-05
-1.995438e-05
-2.810722e-05
3.852413e-05
5.971609e-06
2.484042e-06
-4.728845e-06
-1.225172e-05
-2.015801e-05
-2.750275e-05
3.528841e-05
3.159035e-06
6.086239e-08
-6.493408e-06
-1.338272e-05
-2.028693e-05
-2.719296e-05
3.223204e-05
5.04913e-07
-2.089501e-06
-7.613555e-06
-1.400709e-05
-2.067915e-05
-2.709521e-05
2.930934e-05
-1.83325e-06
-4.095114e-06
-9.25287e-06
-1.519139e-05
-2.118592e-05
-2.689096e-05
2.655258e-05
-3.929716e-06
-5.985486e-06
-1.078178e-05
-1.62387e-05
-2.14169e-05
-2.64332e-05
2.393279e-05
-6.074964e-06
-7.977037e-06
-1.23865e-05
-1.706326e-05
-2.14064e-05
-2.602426e-05
2.127173e-05
-8.427399e-06
-1.007718e-05
-1.383359e-05
-1.804089e-05
-2.202507e-05
-2.550406e-05
1.833207e-05
-1.090326e-05
-1.218246e-05
-1.525164e-05
-1.824154e-05
-2.171789e-05
-2.475308e-05
1.507874e-05
-1.346143e-05
-1.43938e-05
-1.692263e-05
-1.941839e-05
-2.201709e-05
-2.399513e-05
1.164184e-05
-1.623289e-05
-1.697014e-05
-1.881115e-05
-2.048252e-05
-2.202628e-05
-2.308753e-05
7.896959e-06
-1.949431e-05
-1.995491e-05
-2.107717e-05
-2.176219e-05
-2.316814e-05
-2.339952e-05
3.517023e-06
-2.341922e-05
-2.349365e-05
-2.391403e-05
-2.371063e-05
-2.305976e-05
-2.21889e-05
-1.663421e-06
-2.796642e-05
-2.786291e-05
-2.769724e-05
-2.660501e-05
-2.47662e-05
-2.209224e-05
-7.63893e-06
-3.348682e-05
-3.340799e-05
-3.264485e-05
-3.063519e-05
-2.746942e-05
-2.255623e-05
-1.452697e-05
-4.040065e-05
-4.044631e-05
-3.921416e-05
-3.667325e-05
-3.220532e-05
-2.675661e-05
-2.281693e-05
-4.875481e-05
-4.920245e-05
-4.802183e-05
-4.49892e-05
-3.99375e-05
-3.072008e-05
-3.267291e-05
-5.955259e-05
-6.015674e-05
-5.942291e-05
-5.630509e-05
-5.090077e-05
-4.001437e-05
-4.440052e-05
-7.173383e-05
-7.387775e-05
-7.363303e-05
-7.068579e-05
-6.468766e-05
-5.207973e-05
-5.821902e-05
-8.698847e-05
-9.089502e-05
-9.104833e-05
-8.896079e-05
-8.277083e-05
-6.886942e-05
-7.458813e-05
-0.0001048919
-0.0001126185
-0.0001151144
-0.0001119186
-0.0001065699
-9.129017e-05
-9.385302e-05
-0.0001273489
-0.0001372494
-0.000142221
-0.0001425539
-0.0001379508
-0.0001224777
-0.000116537
-0.0001541628
-0.0001683973
-0.0001786397
-0.0001829084
-0.0001796811
-0.0001658861
-0.0001433459
-0.0001862755
-0.0002064123
-0.00022116
-0.0002318784
-0.0002389789
-0.0002257433
-0.0001741219
-0.0002245637
-0.0002520387
-0.0002749229
-0.0002941044
-0.000313736
-0.0003109754
-0.0002085904
-0.0002681009
-0.0003053054
-0.0003380763
-0.0003695173
-0.0004000658
-0.0004223029
-0.0002452159
-0.000316806
-0.0003646752
-0.000408325
-0.0004535369
-0.0005011712
-0.0005678937
-0.0002818616
-0.0003682887
-0.0004260019
-0.000482039
-0.0005387826
-0.0006449078
-0.0008706739
-0.0003151285
-0.0004174908
-0.00049161
-0.0005536245
-0.0006879042
-0.001071653
-0.001767321
-0.0003457407
-0.000460397
-0.0005529755
-0.0007078528
-0.001188399
-0.002219192
-0.002949931
-0.0003730177
-0.0005044954
-0.000695523
-0.001289704
-0.002581942
-0.003509891
-0.003585646
-0.0004031764
-0.0006304531
-0.001227475
-0.002651973
-0.004027489
-0.004128385
-0.002879423
-0.0005056969
-0.001047921
-0.002506434
-0.003895292
-0.004230676
-0.003166144
-0.001061832
-0.0008554972
-0.002222167
-0.003941476
-0.004106868
-0.002809032
-0.0005713324
0.001525048
-0.00176184
-0.003630809
-0.004397807
-0.003146996
-0.0002149164
0.002709776
0.004706118
-0.003341207
-0.004589817
-0.003774835
-0.001040737
0.002692963
0.005605247
0.008013545
-0.005356002
-0.004845492
-0.002251362
0.001715288
0.005791879
0.00867155
0.01064534
-0.007216191
-0.004589332
-0.0002172626
0.004706833
0.00908864
0.01198686
0.01348075
-0.008496675
-0.004019287
0.001415074
0.007517913
0.0122096
0.01545665
0.01752991
-0.00896307
-0.003040301
0.003397108
0.009660522
0.01448897
0.01813722
0.02148829
-0.009017486
-0.002219404
0.005404495
0.0115143
0.01645411
0.02033628
0.02425998
-0.008881192
-0.001639511
0.006535055
0.01295488
0.01808871
0.02186731
0.02422332
-0.008551339
-0.001225868
0.007317316
0.01400357
0.01935679
0.02324641
0.02536558
-0.008007169
-0.0008562608
0.007831924
0.01467381
0.02026514
0.02456637
0.02757002
-0.007958942
-0.0007517759
0.007941903
0.01481964
0.02060793
0.02531612
0.02907768
-0.008426551
-0.001030136
0.007492031
0.01424302
0.01994822
0.02439016
0.02728236
-0.008684456
-0.001459832
0.006656204
0.01314311
0.01850016
0.02234624
0.02453576
-0.008722176
-0.002076947
0.005458219
0.01161358
0.01655884
0.01999772
0.02278598
-0.008545206
-0.002930719
0.003355547
0.009593581
0.01424892
0.01734627
0.01986601
-0.007948373
-0.003885812
0.001233694
0.007177131
0.01169468
0.01460603
0.01637341
-0.006585938
-0.004341667
-0.0003599568
0.004328725
0.008569146
0.01130511
0.01272814
-0.004734857
-0.004393277
-0.002217897
0.001378997
0.005295367
0.008120058
0.009975442
-0.002852385
-0.003998201
-0.003433004
-0.001179417
0.002220779
0.004995195
0.007365052
-0.001472246
-0.003061223
-0.003753698
-0.002899568
-0.0004481409
0.002323954
0.004336527
-0.0007415626
-0.001824286
-0.003227481
-0.003385085
-0.002524552
-0.000650386
0.001604989
-0.0004870203
-0.000900398
-0.002017957
-0.003035325
-0.003407132
-0.002704859
-0.0007201196
-0.0004034241
-0.000615027
-0.001036672
-0.002082165
-0.003047147
-0.003183627
-0.002440751
-0.0003717864
-0.0005127784
-0.0006794912
-0.001072692
-0.001980602
-0.002636033
-0.002731937
-0.000345261
-0.0004619265
-0.0005559207
-0.0006888004
-0.0009960276
-0.001742091
-0.002163638
-0.0003158912
-0.0004143485
-0.0004861926
-0.0005507775
-0.000659456
-0.0009054485
-0.001410401
-0.0002834398
-0.0003646723
-0.0004192159
-0.0004729985
-0.0005298465
-0.0006128487
-0.0007527115
-0.000247395
-0.0003142424
-0.0003580133
-0.0003986194
-0.0004407253
-0.0004860955
-0.0005404313
-0.000212003
-0.0002665984
-0.0002999298
-0.000329577
-0.0003568731
-0.0003849453
-0.0004044168
-0.0001777032
-0.0002237579
-0.0002478489
-0.000266464
-0.0002837348
-0.0002986939
-0.0002946964
-0.0001470733
-0.0001860942
-0.0002025272
-0.0002139729
-0.000223333
-0.0002243976
-0.0002111648
-0.0001202355
-0.0001544686
-0.0001648551
-0.0001722453
-0.0001735602
-0.0001675897
-0.0001516123
-9.7139e-05
-0.0001271118
-0.000134079
-0.000136398
-0.0001336757
-0.0001261824
-0.0001084287
-7.738061e-05
-0.0001049791
-0.0001092474
-0.0001089926
-0.0001035657
-9.538851e-05
-7.782712e-05
-6.060885e-05
-8.657687e-05
-8.778419e-05
-8.543007e-05
-8.096347e-05
-7.253343e-05
-5.651995e-05
-4.632265e-05
-7.094833e-05
-7.095002e-05
-6.833991e-05
-6.324109e-05
-5.551988e-05
-4.123819e-05
-3.400871e-05
-5.887479e-05
-5.750054e-05
-5.467412e-05
-4.990098e-05
-4.307836e-05
-3.078284e-05
-2.402572e-05
-4.813065e-05
-4.691794e-05
-4.399528e-05
-3.997265e-05
-3.355588e-05
-2.281303e-05
-1.546519e-05
-3.980159e-05
-3.831069e-05
-3.60299e-05
-3.246279e-05
-2.699272e-05
-2.096544e-05
-8.18937e-06
-3.309541e-05
-3.171071e-05
-3.008234e-05
-2.711317e-05
-2.33281e-05
-1.79269e-05
-2.244693e-06
-2.760804e-05
-2.662799e-05
-2.564033e-05
-2.363714e-05
-2.13949e-05
-1.865984e-05
2.769634e-06
-2.309763e-05
-2.250897e-05
-2.201145e-05
-2.140292e-05
-2.03235e-05
-1.936767e-05
7.379208e-06
-1.927069e-05
-1.903279e-05
-1.961898e-05
-2.014139e-05
-2.123501e-05
-2.115354e-05
1.135133e-05
-1.624112e-05
-1.622513e-05
-1.776865e-05
-1.905384e-05
-2.066332e-05
-2.124999e-05
1.464123e-05
-1.332384e-05
-1.388304e-05
-1.616678e-05
-1.849944e-05
-2.076988e-05
-2.251232e-05
1.762323e-05
-1.095617e-05
-1.188929e-05
-1.473642e-05
-1.737679e-05
-2.05463e-05
-2.331765e-05
2.053216e-05
-8.839879e-06
-1.008885e-05
-1.340726e-05
-1.730107e-05
-2.106899e-05
-2.405224e-05
2.312147e-05
-6.729692e-06
-8.288639e-06
-1.214486e-05
-1.632353e-05
-2.040214e-05
-2.470207e-05
2.561783e-05
-4.778783e-06
-6.449761e-06
-1.081509e-05
-1.572975e-05
-2.041022e-05
-2.5291e-05
2.810556e-05
-2.728304e-06
-4.633269e-06
-9.587852e-06
-1.492433e-05
-2.042263e-05
-2.585199e-05
3.0666e-05
-5.580969e-07
-2.790624e-06
-8.043769e-06
-1.404429e-05
-2.030279e-05
-2.615097e-05
3.330508e-05
1.848774e-06
-8.502526e-07
-7.024813e-06
-1.365399e-05
-2.014455e-05
-2.642014e-05
3.630562e-05
4.258865e-06
1.230555e-06
-5.435848e-06
-1.255125e-05
-1.99854e-05
-2.677361e-05
3.963792e-05
6.956326e-06
3.501638e-06
-3.77602e-06
-1.157624e-05
-1.965076e-05
-2.714917e-05
4.325528e-05
9.914282e-06
6.053899e-06
-1.882595e-06
-1.042958e-05
-1.926079e-05
-2.751581e-05
4.725352e-05
1.329263e-05
9.066479e-06
3.250627e-07
-9.144399e-06
-1.891691e-05
-2.803236e-05
5.18397e-05
1.720636e-05
1.249016e-05
2.827469e-06
-7.717843e-06
-1.855752e-05
-2.862428e-05
5.704769e-05
2.165848e-05
1.632112e-05
5.618282e-06
-6.075789e-06
-1.816688e-05
-2.929412e-05
6.24371e-05
2.642329e-05
2.042876e-05
8.727328e-06
-4.216573e-06
-1.759239e-05
-3.010727e-05
6.775836e-05
3.049476e-05
2.346426e-05
1.115866e-05
-2.471936e-06
-1.713579e-05
-3.062615e-05
7.218624e-05
3.186556e-05
2.433714e-05
1.251786e-05
-1.670724e-06
-1.671098e-05
-3.168331e-05
7.364171e-05
2.719468e-05
1.995134e-05
1.003563e-05
-2.369103e-06
-1.772171e-05
-3.331986e-05
6.656967e-05
9.57736e-06
5.877243e-06
1.7699e-06
-7.239107e-06
-2.070228e-05
-3.565849e-05
3.12356e-05
-3.191016e-05
-2.219918e-05
-1.65441e-05
-1.745811e-05
-2.607985e-05
-3.896733e-05
0.0001463339
-7.724066e-05
-7.199315e-05
-4.643457e-05
-3.29696e-05
-3.374571e-05
-4.29319e-05
0.0024057
0.0002318736
-6.784981e-05
-8.760822e-05
-5.485988e-05
-4.390136e-05
-4.789243e-05
-5.638065e-05
-5.633149e-05
-4.53396e-05
-3.460799e-05
-1.683646e-05
1.666588e-05
2.318111e-05
-5.498128e-05
-5.585316e-05
-4.551093e-05
-3.443543e-05
-1.42544e-05
1.700552e-05
3.855483e-05
-5.275186e-05
-5.434351e-05
-4.380752e-05
-2.816134e-05
-1.212516e-05
1.752175e-05
4.127009e-05
-5.004545e-05
-5.220162e-05
-4.266314e-05
-2.569057e-05
-1.141462e-05
1.974068e-05
4.4634e-05
-4.74616e-05
-4.988034e-05
-4.02705e-05
-2.569901e-05
-9.137439e-06
2.311207e-05
5.124736e-05
-4.520186e-05
-4.738976e-05
-3.765735e-05
-2.169636e-05
-5.961606e-06
2.717238e-05
5.897096e-05
-4.297515e-05
-4.476421e-05
-3.465024e-05
-1.822699e-05
-1.085782e-06
3.203428e-05
6.690473e-05
-4.100065e-05
-4.193843e-05
-3.16757e-05
-1.500584e-05
2.783562e-06
3.740744e-05
7.487216e-05
-3.9359e-05
-3.953819e-05
-2.874877e-05
-1.180022e-05
7.190047e-06
4.329682e-05
8.28943e-05
-3.769792e-05
-3.729285e-05
-2.584913e-05
-8.359758e-06
1.161583e-05
4.951121e-05
9.031156e-05
-3.62537e-05
-3.47917e-05
-2.26134e-05
-4.945507e-06
1.60983e-05
5.592813e-05
9.495015e-05
-3.475233e-05
-3.239324e-05
-1.956462e-05
-1.519269e-06
2.043614e-05
6.251663e-05
9.837621e-05
-3.329927e-05
-3.027791e-05
-1.663961e-05
1.987422e-06
2.537633e-05
6.918426e-05
9.87467e-05
-3.21582e-05
-2.846485e-05
-1.388483e-05
5.055665e-06
3.037851e-05
7.730715e-05
8.097268e-05
-3.128779e-05
-2.686542e-05
-1.137205e-05
8.075805e-06
3.539528e-05
8.574978e-05
7.394421e-05
-3.049658e-05
-2.525381e-05
-8.856496e-06
1.117268e-05
4.030581e-05
9.343224e-05
3.591215e-05
-2.963165e-05
-2.358352e-05
-6.205939e-06
1.437705e-05
4.795567e-05
0.0001016563
0.0001515868
-2.868737e-05
-2.198475e-05
-3.67036e-06
1.809403e-05
5.035747e-05
0.0001114917
0.0001329927
-2.76716e-05
-2.035439e-05
-9.943745e-07
2.185131e-05
5.482206e-05
0.000121649
0.0001392328
-2.658504e-05
-1.857888e-05
2.000094e-06
2.556647e-05
6.103804e-05
0.0001324455
0.0001483116
-2.5467e-05
-1.664491e-05
5.032588e-06
2.934179e-05
6.747683e-05
0.0001438317
0.0001607833
-2.41307e-05
-1.42859e-05
8.447116e-06
3.351269e-05
7.401913e-05
0.0001556823
0.0001712904
-2.237101e-05
-1.112282e-05
1.304677e-05
3.808238e-05
8.281733e-05
0.0001681067
0.0001832167
-1.996779e-05
-7.733865e-06
1.90298e-05
5.525055e-05
9.225332e-05
0.0001819161
0.0001965041
-1.749757e-05
-3.316782e-06
2.450222e-05
6.791227e-05
9.983575e-05
0.0001973065
0.0002118451
-1.488707e-05
1.7435e-06
3.312648e-05
6.531782e-05
0.0001106771
0.0002164009
0.0002306464
-1.203324e-05
8.056824e-06
4.321058e-05
7.832141e-05
0.0001243414
0.0002399092
0.0002587853
-1.212693e-05
1.264762e-05
5.042008e-05
9.395348e-05
0.0001410644
0.0002526341
0.0002951273
-1.238258e-05
2.455714e-05
5.925507e-05
9.831341e-05
0.0001596166
0.0002755909
0.0003418675
-1.760471e-05
1.880903e-05
5.086956e-05
0.0001096955
0.0001792591
0.0003018122
0.0003972382
-2.945228e-05
7.6496e-06
5.250643e-05
0.000119587
0.0001987722
0.0003067188
0.0004283791
-3.998149e-05
4.954775e-06
5.264001e-05
0.0001279076
0.0002171254
0.0003564525
0.0004489555
-5.92832e-05
-2.852072e-06
5.045271e-05
0.0001330716
0.000233959
0.0003857164
0.0005427854
-8.64702e-05
-2.385644e-05
2.65279e-05
0.0001331616
0.0002466576
0.0004028437
0.0004891468
-0.0001272662
-5.622294e-05
5.103417e-06
0.0001274314
0.0002544029
0.000423748
0.0005555397
-0.0001881699
-0.0001046644
-2.170345e-05
0.0001222141
0.0002552388
0.0004394966
-0.0003999995
-0.0002779518
-0.0001834015
-8.025514e-05
6.301415e-05
0.0002550002
0.0004588839
0.0002634165
-0.0004039595
-0.0003070088
-0.0001711484
-7.209545e-07
0.0002467285
0.000436698
-0.0009968865
-0.0006310231
-0.000504364
-0.000332612
-0.0001006905
0.0004988054
0.001865633
-0.006578967
-0.00125846
-0.001069769
-0.000723483
0.0002475864
0.002044069
0.0102672
-0.0003898957
-0.002250358
-0.001708749
-0.0007964801
0.001162569
0.006453656
0.02088729
0.02671868
-0.003005448
-0.001998881
-0.000108793
0.003692471
0.0194351
0.03111648
0.04808661
-0.002683537
-0.001936236
0.001170888
0.007584662
0.03896031
0.03225562
0.05951662
-0.001641277
-0.0005114258
0.00308134
0.01619504
0.05174365
0.03514598
0.05366577
0.0008206373
0.001200674
0.007035011
0.03572244
0.04692604
0.04071686
0.05309774
0.00323082
0.00437367
0.01630482
0.05273347
0.04352027
0.02959671
0.01631485
0.006471643
0.007484815
0.0337072
0.06350842
0.04610856
0.02826094
0.02980623
0.008834819
0.01116836
0.04038281
0.07502928
0.06565277
0.04942179
0.03317152
0.01170662
0.01194879
0.04359264
0.08798108
0.06229126
0.03956364
0.04411097
0.01440241
0.01614188
0.05768887
0.0912012
0.05809
0.02450942
0.04607509
0.02048883
0.02111149
0.1167087
0.09847694
0.05309489
0.01909558
0.03596641
0.03328099
0.0623947
0.1347639
0.07043625
0.04295603
0.02829801
0.004853988
0.03664958
0.07862126
0.1208211
0.06179902
0.0379931
0.0298057
0.008267549
0.02975489
0.05196949
0.09552896
0.08206065
0.05699614
0.03992034
-0.008873553
0.02856162
0.0336374
0.0490744
0.05694006
0.07221142
0.0009427797
0.02732752
0.03270333
0.03782628
0.04284204
0.03215441
0.02503764
0.020874
0.03591082
0.04593056
0.04065708
0.03259419
0.01489436
0.03003428
0.03286594
0.04422575
0.05821156
0.06336801
0.06645179
0.01740689
0.03097194
0.04761291
0.09662236
0.07065945
0.06434
0.03430123
0.01747766
0.03253483
0.0705975
0.105858
0.06409602
0.05359784
0.02837002
0.01321359
0.02642441
0.06506573
0.1174218
0.07466429
0.05543128
0.04711364
-0.00532639
0.01866516
0.03038139
0.1113584
0.08713261
0.0677106
0.05821634
0.05247812
0.01363455
0.01800873
0.08308684
0.09664238
0.04659914
0.03622638
0.05666047
0.0108164
0.01334291
0.04368325
0.1067501
0.04286118
0.01888409
0.04208058
0.008191684
0.01037445
0.03070788
0.08253467
0.09225652
0.05625268
0.01304738
0.00605546
0.008897731
0.02385544
0.07384794
0.08155451
0.06712597
0.03659179
0.003436958
0.005840975
0.01857773
0.06157618
0.06756151
0.03265548
0.06676919
0.001099295
0.004011263
0.009195389
0.04241756
0.05439272
0.03367473
0.0831123
-0.0006794784
0.0009539401
0.005308827
0.01515702
0.03151933
0.02952533
0.03417054
-0.001883225
-0.0007857469
0.002615203
0.007943917
0.01817801
0.01818643
0.01226486
-0.002016583
-0.001713152
0.0005999166
0.005143357
0.01483395
0.02182799
0.02869897
-0.001679278
-0.001713663
-0.0003279484
0.002737515
0.008235466
0.02266782
0.03771839
-0.001068237
-0.001254366
-0.0005128402
0.0008891008
0.003040506
0.01429432
0.02230406
-0.0005666923
-0.0006170086
-0.0004986505
4.23937e-05
0.001327383
0.005261132
-0.004179233
-0.0003825055
-0.0003751178
-0.000225799
-2.787553e-05
0.0002081837
0.0007300181
-0.004177074
-0.0002619104
-0.0002484805
-0.0001108849
4.416251e-05
0.0002376242
0.0004059043
-0.0004048932
-0.000172483
-0.0001570997
-3.43315e-05
7.716556e-05
0.0002567831
0.0004359533
0.0002365568
-0.0001110685
-9.516788e-05
9.264672e-06
0.0001365612
0.000267135
0.0004450254
0.0008096965
-7.000897e-05
-5.420282e-05
3.785035e-05
0.0001486002
0.0002698953
0.0004329148
0.0005342416
-4.33145e-05
-2.675944e-05
6.986102e-05
0.0001512488
0.0002590775
0.0004126542
0.0004120585
-2.538423e-05
-2.058638e-05
6.780988e-05
0.0001456376
0.000239648
0.0003796103
0.0004797512
-1.739471e-05
-9.053704e-06
6.516256e-05
0.0001352585
0.0002176033
0.0003546763
0.0004240535
-7.365042e-06
7.048939e-06
6.138954e-05
0.0001232061
0.0001958308
0.0003309351
0.0004296477
-4.34351e-06
5.675899e-06
5.568724e-05
0.000110529
0.0001746497
0.000291679
0.0003724454
-5.607698e-06
1.839419e-05
5.536501e-05
8.356884e-05
0.0001541792
0.0002689005
0.0003248748
-7.026203e-06
1.249263e-05
4.802661e-05
7.163148e-05
0.0001361095
0.000248405
0.0002823144
-1.147085e-05
5.524214e-06
3.704639e-05
5.961656e-05
0.0001202959
0.0002303484
0.0002510897
-1.472391e-05
-5.333178e-07
2.830616e-05
4.939703e-05
0.0001075005
0.0002105687
0.0002293223
-1.774982e-05
-5.268885e-06
2.145131e-05
4.119685e-05
9.842185e-05
0.0001939488
0.0002120631
-2.03145e-05
-9.097718e-06
1.573546e-05
3.544486e-05
8.518963e-05
0.0001796086
0.0001982071
-2.220423e-05
-1.210474e-05
1.136485e-05
3.046365e-05
8.109815e-05
0.0001659562
0.0001862615
-2.374224e-05
-1.447386e-05
7.68341e-06
2.589226e-05
7.367837e-05
0.000153466
0.0001745604
-2.505812e-05
-1.667168e-05
4.287924e-06
2.195534e-05
6.689864e-05
0.0001417652
0.0001639957
-2.634255e-05
-1.865914e-05
1.405284e-06
1.790548e-05
6.05354e-05
0.0001308805
0.0001547818
-2.739433e-05
-2.024673e-05
-1.403459e-06
1.439938e-05
5.472716e-05
0.0001206897
0.0001433529
-2.826017e-05
-2.181791e-05
-4.013933e-06
1.122264e-05
4.569415e-05
0.0001111931
0.0001287257
-2.908822e-05
-2.33452e-05
-6.514819e-06
7.586729e-06
4.597989e-05
0.0001021111
0.0001095734
-2.993475e-05
-2.487476e-05
-8.964172e-06
4.576769e-06
4.097038e-05
9.36378e-05
0.0001129212
-3.082842e-05
-2.644565e-05
-1.135954e-05
1.452416e-06
3.630653e-05
8.633481e-05
8.670466e-05
-3.176539e-05
-2.808017e-05
-1.389265e-05
-1.888908e-06
3.163218e-05
7.847923e-05
0.000105003
-3.278339e-05
-2.985384e-05
-1.648319e-05
-5.597839e-06
2.685643e-05
7.160469e-05
0.0001092806
-3.404893e-05
-3.191735e-05
-1.929979e-05
-8.857387e-06
2.270617e-05
6.501607e-05
0.000108411
-3.551121e-05
-3.416711e-05
-2.215812e-05
-1.198758e-05
1.841427e-05
5.869792e-05
0.000104671
-3.712197e-05
-3.646917e-05
-2.482181e-05
-1.556333e-05
1.418431e-05
5.24695e-05
9.864506e-05
-3.875672e-05
-3.880227e-05
-2.777231e-05
-1.90507e-05
9.927232e-06
4.636132e-05
9.118441e-05
-4.05956e-05
-4.145228e-05
-3.084169e-05
-2.303931e-05
5.001345e-06
4.060973e-05
8.270775e-05
-4.275806e-05
-4.404813e-05
-3.381728e-05
-2.656293e-05
-2.764008e-07
3.513682e-05
7.352097e-05
-4.494602e-05
-4.673798e-05
-3.680634e-05
-2.956589e-05
-3.529682e-06
3.007394e-05
6.445901e-05
-4.740719e-05
-4.94318e-05
-3.940313e-05
-3.148715e-05
-7.110843e-06
2.568153e-05
5.542186e-05
-4.990828e-05
-5.178267e-05
-4.158679e-05
-3.315798e-05
-1.01781e-05
2.200997e-05
4.791836e-05
-5.255352e-05
-5.389041e-05
-4.333451e-05
-3.41413e-05
-1.255087e-05
1.927901e-05
4.197936e-05
-5.556863e-05
-5.618767e-05
-4.594191e-05
-3.448678e-05
-1.405394e-05
1.775232e-05
1.401876e-05
0.0008238694
-9.626796e-08
-4.049558e-13
2.627351e-19
1.186383e-24
1.01768e-30
5.114432e-37
1.574619e-43
3.129566e-50
4.336258e-57
9.308657e-64
1.808939e-70
3.488597e-77
8.075961e-84
3.616245e-90
9.095142e-97
4.938567e-103
2.320836e-109
0.006965099
-1.490569e-08
-2.075726e-14
6.354711e-20
2.364043e-25
2.336887e-31
1.473162e-37
6.074865e-44
1.611379e-50
3.679159e-57
1.082212e-63
2.904818e-70
6.913616e-77
1.500332e-83
3.672149e-90
2.403309e-97
2.59545e-104
2.938252e-111
0.007015846
3.719011e-08
2.9052e-14
1.177557e-19
2.413871e-25
2.009884e-31
1.188605e-37
5.22649e-44
1.594214e-50
4.06663e-57
1.494467e-63
4.897577e-70
1.398714e-76
3.642332e-83
1.022332e-89
8.770451e-97
1.030892e-103
1.179406e-110
0.007378374
5.924364e-08
5.035422e-14
2.080174e-19
4.597668e-25
3.990495e-31
2.477793e-37
1.125897e-43
3.686019e-50
1.029127e-56
3.881196e-63
1.333938e-69
4.221798e-76
1.19406e-82
3.599948e-89
3.606555e-96
5.077803e-103
6.400376e-110
0.007941522
5.407332e-08
4.276594e-14
2.907109e-19
7.399259e-25
7.312743e-31
4.943528e-37
2.529803e-43
9.086398e-50
2.789856e-56
1.173522e-62
4.411123e-69
1.542179e-75
4.814337e-82
2.737979e-89
8.158231e-95
2.777173e-102
4.15512e-109
0.008676527
4.274937e-08
2.175167e-14
3.735903e-19
1.146462e-24
1.280166e-30
9.872696e-37
5.633805e-43
2.367467e-49
8.695881e-56
3.929172e-62
1.6422e-68
6.387548e-75
2.237006e-81
6.708516e-88
2.341819e-94
2.217264e-101
3.716643e-108
0.009557902
2.752281e-08
-1.668293e-14
4.639805e-19
1.74098e-24
2.241807e-30
1.965678e-36
1.283085e-42
6.558965e-49
2.674427e-55
1.41476e-61
6.746025e-68
2.944314e-74
1.160715e-80
4.075065e-87
1.51779e-93
1.807467e-100
3.322142e-107
0.01057852
9.289162e-09
-6.914721e-14
5.924019e-19
2.698014e-24
3.961591e-30
3.92967e-36
2.997171e-42
1.803856e-48
8.81343e-55
5.307351e-61
2.926435e-67
1.460056e-73
6.448524e-80
2.549011e-86
1.072946e-92
1.485837e-99
3.048218e-106
0.01168273
-6.687346e-09
-1.338973e-13
7.877217e-19
4.234174e-24
7.209591e-30
8.198311e-36
7.247831e-42
5.257891e-48
2.985718e-54
2.104557e-60
1.33904e-66
7.58153e-73
3.828986e-79
1.701763e-85
7.972324e-92
1.29232e-98
3.017924e-105
0.01286159
-2.023546e-08
-2.152641e-13
1.092124e-18
6.948053e-24
1.342663e-29
1.742335e-35
1.813892e-41
1.533387e-47
1.05899e-53
8.70384e-60
6.310913e-66
4.110063e-72
2.349572e-78
1.179822e-84
6.201104e-91
1.185374e-97
3.159975e-104
0.01422452
-3.062884e-08
-3.102343e-13
1.642105e-18
1.174002e-23
2.61e-29
3.904095e-35
4.71232e-41
4.751416e-47
3.893975e-53
3.695953e-59
3.140758e-65
2.320217e-71
1.517744e-77
8.688096e-84
5.037242e-90
1.149279e-96
3.478848e-103
0.01562932
-3.165262e-08
-4.095535e-13
2.613416e-18
2.114115e-23
5.383344e-29
9.251535e-35
1.302659e-40
1.559572e-46
1.516073e-52
1.688932e-58
1.634607e-64
1.394296e-70
1.029711e-76
6.657483e-83
4.265259e-89
1.152099e-95
3.9147e-102
0.01714847
-9.730099e-09
-5.156382e-13
4.613846e-18
4.070152e-23
1.217974e-28
2.411729e-34
4.004379e-40
5.70979e-46
6.527961e-52
8.272465e-58
9.206898e-64
8.870976e-70
7.423958e-76
5.436828e-82
3.840045e-88
1.208172e-94
4.609291e-101
0.01891854
9.066063e-08
-8.65278e-13
8.980936e-18
9.481879e-23
3.510838e-28
8.235277e-34
1.562892e-39
2.537774e-45
3.264529e-51
4.638862e-57
5.793054e-63
6.306159e-69
5.951702e-75
4.875296e-81
3.760535e-87
1.37414e-93
5.944065e-100
0.02459835
5.968395e-07
-4.356631e-13
3.562218e-17
3.545826e-22
1.386687e-27
3.851721e-33
8.737465e-39
1.646177e-44
2.630508e-50
4.350213e-56
6.341999e-62
7.955913e-68
8.587945e-74
8.066041e-80
6.895935e-86
2.962149e-92
1.468448e-98
0.02840194
-6.032558e-07
1.164638e-11
2.431163e-17
2.309632e-22
8.423136e-28
2.403247e-33
6.747947e-39
1.690045e-44
3.606649e-50
7.452544e-56
1.290656e-61
1.887501e-67
2.370011e-73
2.591879e-79
2.51396e-85
1.272651e-91
7.265235e-98
-0.002135029
-1.659709e-06
-1.178145e-11
9.264696e-17
2.140096e-22
1.427707e-27
4.308889e-33
9.942167e-39
2.462882e-44
6.165925e-50
1.646864e-55
3.810599e-61
7.5093e-67
1.264287e-72
1.773297e-78
2.137924e-84
1.4156e-90
1.04748e-96
0.008982372
-3.187792e-06
-1.735896e-11
-7.779906e-17
1.235468e-21
2.357292e-27
1.12043e-32
3.158573e-38
7.258881e-44
1.596026e-49
4.200963e-55
1.019981e-60
2.175991e-66
3.949413e-72
6.102401e-78
7.832488e-84
5.892593e-90
4.693363e-96
0.01141218
-3.255313e-06
-2.485198e-11
-2.691082e-18
-2.826464e-21
1.323678e-26
2.091306e-32
9.11776e-38
2.597106e-43
6.027001e-49
1.651122e-54
4.612511e-60
1.180584e-65
2.52502e-71
4.482461e-77
6.369444e-83
5.408684e-89
4.790514e-95
0.01321615
-2.410894e-06
-3.270815e-11
-3.555003e-17
2.697852e-21
-2.467111e-26
2.198829e-31
3.138079e-37
1.333261e-42
3.761339e-48
9.237605e-54
2.126889e-59
4.705801e-65
9.630942e-71
1.89604e-76
2.526425e-82
2.512645e-88
2.505728e-94
0.01483112
-1.13437e-06
-2.485822e-11
3.307239e-17
3.85587e-21
4.288556e-26
3.975248e-32
1.457078e-36
2.336696e-42
1.123963e-47
4.392387e-53
1.295331e-58
3.106975e-64
6.471353e-70
1.377138e-75
-9.054608e-82
2.277797e-87
2.723006e-93
0.01653345
-8.765746e-07
-2.264628e-11
1.911068e-16
6.785033e-21
7.953622e-26
6.007309e-31
1.318081e-36
8.893368e-42
3.223342e-47
1.740228e-52
7.036486e-58
2.199644e-63
5.405075e-69
1.063827e-74
1.520015e-80
1.811774e-86
2.080148e-92
0.01843604
-1.079302e-06
-3.038306e-11
4.16152e-16
1.379947e-20
1.7683e-25
1.489338e-30
1.08656e-35
1.152306e-41
4.453223e-46
8.187629e-52
4.02493e-57
1.489609e-62
4.508308e-68
1.057342e-73
1.770165e-79
2.377675e-85
3.03682e-91
0.02052582
-1.349573e-06
-4.249126e-11
8.321006e-16
2.891517e-20
4.057795e-25
3.730287e-30
3.013189e-35
2.2198e-40
5.155987e-46
1.032574e-50
2.096795e-56
9.788933e-62
3.30899e-67
9.211013e-73
1.865725e-78
3.045142e-84
4.534835e-90
0.02283139
-1.401354e-06
-5.604929e-11
1.547858e-15
5.928177e-20
9.151156e-25
9.239108e-30
8.271236e-35
6.848837e-40
5.208463e-45
1.606898e-50
7.844679e-56
4.189872e-61
1.801612e-66
6.407896e-72
1.503078e-77
2.940273e-83
5.139798e-89
0.02539488
-1.467967e-06
-7.399765e-11
2.77206e-15
1.174807e-19
2.05058e-24
2.295648e-29
2.269991e-34
2.104475e-39
1.8057e-44
1.439107e-49
6.817024e-55
1.758425e-60
1.156312e-65
-1.843106e-114
-1.35494e-78
1.744936e-82
5.028164e-88
0.02826578
-1.362935e-06
-9.211978e-11
4.910488e-15
2.281838e-19
4.492563e-24
5.6348e-29
6.192455e-34
6.424713e-39
6.235515e-44
5.634843e-49
4.243915e-54
1.614013e-59
6.47358e-65
2.78486e-70
7.784685e-76
2.103788e-81
4.883792e-87
0.0315024
-1.194684e-06
-1.120888e-10
8.679018e-15
4.451872e-19
9.858675e-24
1.436963e-28
1.830215e-33
2.158078e-38
2.393545e-43
2.442826e-48
2.081338e-53
1.487288e-58
5.593272e-64
1.831537e-69
7.026775e-75
2.11712e-80
5.75326e-86
0.03515687
-1.00679e-06
-1.359533e-10
1.559792e-14
8.849276e-19
2.223743e-23
3.652344e-28
5.205754e-33
6.564706e-38
8.302819e-43
9.412219e-48
8.908853e-53
7.196656e-58
5.340385e-63
1.376944e-68
4.964708e-74
1.940536e-79
5.811258e-85
0.03929802
-5.696162e-07
-1.543418e-10
2.880642e-14
1.803197e-18
4.971948e-23
9.304385e-28
1.518874e-32
2.309932e-37
3.240215e-42
4.183192e-47
4.534801e-52
4.181015e-57
3.541472e-62
-5.781151e-68
3.344128e-73
4.898065e-79
2.471818e-84
0.04407536
-4.082211e-08
-2.071324e-10
5.66078e-14
7.764566e-19
7.890356e-23
1.823147e-27
3.368839e-32
5.299706e-37
8.632401e-42
1.288586e-46
1.625621e-51
1.727712e-56
1.417151e-61
8.93133e-67
5.209529e-72
2.685701e-77
1.384129e-82
0.04935891
-7.972795e-07
-3.596814e-10
4.506784e-14
4.422254e-18
2.060875e-22
4.672683e-27
9.043249e-32
1.119446e-37
3.864481e-41
5.839132e-46
8.227887e-51
9.519911e-56
8.945059e-61
5.675125e-66
3.952197e-71
2.447328e-76
1.436044e-81
0.05532853
-5.110665e-06
-1.04749e-09
1.577089e-14
7.001993e-18
3.680092e-22
1.063057e-26
2.589648e-31
5.921446e-36
1.231869e-40
2.40528e-45
4.034614e-50
5.774337e-55
-2.884035e-66
1.910724e-65
1.419995e-70
5.231616e-76
2.280399e-149
0.0638492
-3.395238e-05
-1.613109e-09
1.454038e-14
7.736621e-18
4.8943e-22
1.685288e-26
4.616703e-31
1.183742e-35
2.870789e-40
6.421239e-45
1.237387e-49
2.002329e-54
2.217564e-59
2.366591e-64
2.210601e-69
2.029861e-74
9.105416e-80
0.07663991
3.254955e-05
-5.442947e-10
2.309272e-13
1.618015e-17
6.365802e-22
3.161199e-26
1.071365e-30
2.741988e-35
1.095987e-39
2.349728e-44
5.288907e-49
1.118296e-53
1.293538e-58
1.671149e-63
1.811757e-68
1.665868e-73
7.735535e-79
0.09075574
5.482099e-05
1.71996e-09
9.249087e-13
1.059165e-16
5.160723e-21
2.347526e-25
8.401906e-30
4.855409e-34
1.371898e-38
3.790439e-43
8.845876e-48
1.700076e-52
1.798439e-57
2.437685e-62
3.328059e-67
-6.031657e-116
7.572089e-78
0.09965169
3.84428e-05
8.578297e-10
1.214173e-12
1.859668e-16
1.279593e-20
6.741331e-25
2.944649e-29
1.259129e-33
4.743231e-38
1.568106e-42
4.637329e-47
1.135107e-51
1.895584e-56
3.39084e-61
5.771318e-66
4.643775e-71
4.427577e-76
0.1013089
7.396094e-05
-1.397894e-08
1.226828e-12
3.750601e-16
3.207857e-20
1.998794e-24
1.030882e-28