/*--------------------------------*- C++ -*----------------------------------*\
| =========                 |                                                 |
| \\      /  F ield         | OpenFOAM: The Open Source CFD Toolbox           |
|  \\    /   O peration     | Version:  2206                                  |
|   \\  /    A nd           | Website:  www.openfoam.com                      |
|    \\/     M anipulation  |                                                 |
\*---------------------------------------------------------------------------*/
FoamFile
{
    version     2.0;
    format      ascii;
    arch        "LSB;label=32;scalar=64";
    class       volScalarField;
    location    "1.2";
    object      ddt0(k.b);
}
// * * * * * * * * * * * * * * * * * * * * * * * * * * * * * * * * * * * * * //

dimensions      [0 2 -3 0 0 0 0];

internalField   nonuniform List<scalar> 
13078
(
-6.71864e-13
-7.000752e-10
-6.896522e-10
-6.93262e-10
-6.981348e-10
-7.036885e-10
-7.101004e-10
-1.182129e-12
-6.572679e-10
-6.887401e-10
-6.931029e-10
-6.980113e-10
-7.035728e-10
-7.099704e-10
-9.962184e-13
-6.570066e-10
-6.885359e-10
-6.929128e-10
-6.978669e-10
-7.034428e-10
-7.098334e-10
-1.129353e-12
-6.572473e-10
-6.884594e-10
-6.927728e-10
-6.977334e-10
-7.033137e-10
-7.096956e-10
-1.049208e-12
-6.573258e-10
-6.884226e-10
-6.927295e-10
-6.9762e-10
-7.031896e-10
-7.095606e-10
-1.024586e-12
-6.573746e-10
-6.884081e-10
-6.927059e-10
-6.975922e-10
-7.03079e-10
-7.094285e-10
-1.028322e-12
-6.573729e-10
-6.883913e-10
-6.926707e-10
-6.975736e-10
-7.030555e-10
-7.093085e-10
-1.047373e-12
-6.5734e-10
-6.88374e-10
-6.926466e-10
-6.975609e-10
-7.030415e-10
-7.092852e-10
-1.075794e-12
-6.573068e-10
-6.883732e-10
-6.926389e-10
-6.975522e-10
-7.030293e-10
-7.092699e-10
-1.110286e-12
-6.572556e-10
-6.88374e-10
-6.926328e-10
-6.975441e-10
-7.030183e-10
-7.092559e-10
-1.150792e-12
-6.571929e-10
-6.883746e-10
-6.926269e-10
-6.975358e-10
-7.030075e-10
-7.092416e-10
-1.198811e-12
-6.571202e-10
-6.883745e-10
-6.926209e-10
-6.97528e-10
-7.029967e-10
-7.09228e-10
-1.256518e-12
-6.570409e-10
-6.883744e-10
-6.926142e-10
-6.975204e-10
-7.029863e-10
-7.092142e-10
-1.326683e-12
-6.569545e-10
-6.88374e-10
-6.926058e-10
-6.975099e-10
-7.029747e-10
-7.091991e-10
-1.412466e-12
-6.568625e-10
-6.883734e-10
-6.925727e-10
-6.974619e-10
-7.029591e-10
-7.091842e-10
-1.517293e-12
-6.567649e-10
-6.883719e-10
-6.925319e-10
-6.974235e-10
-7.029447e-10
-7.091684e-10
-1.645555e-12
-6.566638e-10
-6.883727e-10
-6.925197e-10
-6.974101e-10
-7.029316e-10
-7.091525e-10
-1.802467e-12
-6.565578e-10
-6.883744e-10
-6.925091e-10
-6.973979e-10
-7.029187e-10
-7.091363e-10
-1.994468e-12
-6.564468e-10
-6.883764e-10
-6.924987e-10
-6.97384e-10
-7.029017e-10
-7.091194e-10
-2.229789e-12
-6.563309e-10
-6.883789e-10
-6.924851e-10
-6.973309e-10
-7.028258e-10
-7.090968e-10
-2.518662e-12
-6.562105e-10
-6.883827e-10
-6.924701e-10
-6.97267e-10
-7.027663e-10
-7.090745e-10
-2.874394e-12
-6.560849e-10
-6.883883e-10
-6.924579e-10
-6.972466e-10
-7.02746e-10
-7.090563e-10
-3.313725e-12
-6.559529e-10
-6.883943e-10
-6.924444e-10
-6.972301e-10
-7.027244e-10
-7.090327e-10
-3.858194e-12
-6.558153e-10
-6.884022e-10
-6.924309e-10
-6.972089e-10
-7.026465e-10
-7.089201e-10
-4.535348e-12
-6.556701e-10
-6.884121e-10
-6.924166e-10
-6.971862e-10
-7.025541e-10
-7.088337e-10
-5.380521e-12
-6.555163e-10
-6.884227e-10
-6.924008e-10
-6.971658e-10
-7.025234e-10
-7.088028e-10
-6.438673e-12
-6.553565e-10
-6.884352e-10
-6.923841e-10
-6.971449e-10
-7.024975e-10
-7.087721e-10
-7.759618e-12
-6.551621e-10
-6.884486e-10
-6.923663e-10
-6.97122e-10
-7.024662e-10
-7.086557e-10
-9.426135e-12
-6.549962e-10
-6.884629e-10
-6.92347e-10
-6.970968e-10
-7.0243e-10
-7.085195e-10
-1.139485e-11
-6.544631e-10
-6.884709e-10
-6.923247e-10
-6.970695e-10
-7.023979e-10
-7.084723e-10
-1.407777e-11
-6.538749e-10
-6.884858e-10
-6.92299e-10
-6.970384e-10
-7.023616e-10
-7.084234e-10
-1.749163e-11
-6.529677e-10
-6.884539e-10
-6.922636e-10
-6.970025e-10
-7.023193e-10
-7.08366e-10
-2.186891e-11
-6.518079e-10
-6.884414e-10
-6.921734e-10
-6.969544e-10
-7.022694e-10
-7.08309e-10
-2.745528e-11
-6.512994e-10
-6.884154e-10
-6.920982e-10
-6.968975e-10
-7.02209e-10
-7.082422e-10
-3.459988e-11
-6.507668e-10
-6.884005e-10
-6.91992e-10
-6.967511e-10
-7.021249e-10
-7.081605e-10
-4.367119e-11
-6.501424e-10
-6.883732e-10
-6.918616e-10
-6.965556e-10
-7.019111e-10
-7.080486e-10
-5.504078e-11
-6.494252e-10
-6.883299e-10
-6.917601e-10
-6.963641e-10
-7.01726e-10
-7.0791e-10
-6.902449e-11
-6.48617e-10
-6.882614e-10
-6.916516e-10
-6.962172e-10
-7.014665e-10
-7.075663e-10
-8.570498e-11
-6.477855e-10
-6.88158e-10
-6.915158e-10
-6.960333e-10
-7.011348e-10
-7.072151e-10
-1.045492e-10
-6.465111e-10
-6.87977e-10
-6.913001e-10
-6.957268e-10
-7.00708e-10
-7.065756e-10
-1.259128e-10
-6.440517e-10
-6.875541e-10
-6.908637e-10
-6.951073e-10
-6.999269e-10
-7.05162e-10
-1.486697e-10
-6.414585e-10
-6.869153e-10
-6.898983e-10
-6.940526e-10
-6.97991e-10
-7.007308e-10
-1.709481e-10
-6.393987e-10
-6.857452e-10
-6.885142e-10
-6.917651e-10
-6.931009e-10
-6.933698e-10
-1.905059e-10
-6.367619e-10
-6.842049e-10
-6.865408e-10
-6.872264e-10
-6.857206e-10
-6.857442e-10
-2.043577e-10
-6.32937e-10
-6.823896e-10
-6.824533e-10
-6.805101e-10
-6.787796e-10
-6.780856e-10
-2.108171e-10
-6.271586e-10
-6.790815e-10
-6.757923e-10
-6.732276e-10
-6.714729e-10
-6.708955e-10
-2.091731e-10
-6.198066e-10
-6.735901e-10
-6.694059e-10
-6.651044e-10
-6.630885e-10
-6.630383e-10
-1.976742e-10
-6.11151e-10
-6.664426e-10
-6.629156e-10
-6.577107e-10
-6.55762e-10
-6.536394e-10
-1.764497e-10
-6.008643e-10
-6.593851e-10
-6.557013e-10
-6.511754e-10
-6.490551e-10
-6.469388e-10
-1.481606e-10
-5.907006e-10
-6.528638e-10
-6.494163e-10
-6.447299e-10
-6.418805e-10
-6.416783e-10
-1.159271e-10
-5.793847e-10
-6.47715e-10
-6.44363e-10
-6.395005e-10
-6.36106e-10
-6.349755e-10
-8.330115e-11
-5.655998e-10
-6.424325e-10
-6.396939e-10
-6.351729e-10
-6.321136e-10
-6.29487e-10
-5.326967e-11
-5.552414e-10
-6.368974e-10
-6.361038e-10
-6.319995e-10
-6.295486e-10
-6.259927e-10
-2.710862e-11
-5.487621e-10
-6.33151e-10
-6.328439e-10
-6.290579e-10
-6.26404e-10
-6.243189e-10
-8.494018e-12
-5.445826e-10
-6.30596e-10
-6.306533e-10
-6.271628e-10
-6.244717e-10
-6.228293e-10
8.739202e-13
-5.416068e-10
-6.29057e-10
-6.294348e-10
-6.261438e-10
-6.23574e-10
-6.221728e-10
-4.674223e-12
-5.413546e-10
-6.289505e-10
-6.293414e-10
-6.260568e-10
-6.234799e-10
-6.220115e-10
-1.753203e-11
-5.439537e-10
-6.304015e-10
-6.305248e-10
-6.270635e-10
-6.243776e-10
-6.226254e-10
-3.731115e-11
-5.478827e-10
-6.329193e-10
-6.326806e-10
-6.289037e-10
-6.262028e-10
-6.239083e-10
-6.262484e-11
-5.541281e-10
-6.366032e-10
-6.358279e-10
-6.316725e-10
-6.29117e-10
-6.253422e-10
-9.183502e-11
-5.643462e-10
-6.421143e-10
-6.393163e-10
-6.347255e-10
-6.315602e-10
-6.287797e-10
-1.245126e-10
-5.78157e-10
-6.475185e-10
-6.441116e-10
-6.39113e-10
-6.355369e-10
-6.342057e-10
-1.576163e-10
-5.892812e-10
-6.527181e-10
-6.491386e-10
-6.442781e-10
-6.412083e-10
-6.407583e-10
-1.859868e-10
-5.992075e-10
-6.592641e-10
-6.554472e-10
-6.507305e-10
-6.483652e-10
-6.460416e-10
-2.052799e-10
-6.093385e-10
-6.663568e-10
-6.627281e-10
-6.573622e-10
-6.552105e-10
-6.528017e-10
-2.130946e-10
-6.180134e-10
-6.735341e-10
-6.693394e-10
-6.649143e-10
-6.626459e-10
-6.622915e-10
-2.105173e-10
-6.255402e-10
-6.790165e-10
-6.757811e-10
-6.731472e-10
-6.71172e-10
-6.698836e-10
-2.003157e-10
-6.315756e-10
-6.822722e-10
-6.824293e-10
-6.805014e-10
-6.786072e-10
-6.775089e-10
-1.839735e-10
-6.358002e-10
-6.840504e-10
-6.864576e-10
-6.871857e-10
-6.857081e-10
-6.860865e-10
-1.634481e-10
-6.388149e-10
-6.85617e-10
-6.88381e-10
-6.916355e-10
-6.931762e-10
-6.935423e-10
-1.417052e-10
-6.411479e-10
-6.868479e-10
-6.897669e-10
-6.93878e-10
-6.979654e-10
-7.006553e-10
-1.204261e-10
-6.43645e-10
-6.875433e-10
-6.90765e-10
-6.949922e-10
-6.998395e-10
-7.051735e-10
-1.009656e-10
-6.458793e-10
-6.879623e-10
-6.912504e-10
-6.9568e-10
-7.006826e-10
-7.065572e-10
-8.377326e-11
-6.472639e-10
-6.881467e-10
-6.914905e-10
-6.960288e-10
-7.011277e-10
-7.072088e-10
-6.859055e-11
-6.482541e-10
-6.882556e-10
-6.916358e-10
-6.962215e-10
-7.01472e-10
-7.075698e-10
-5.572068e-11
-6.493508e-10
-6.88322e-10
-6.917641e-10
-6.964068e-10
-7.017592e-10
-7.079203e-10
-4.508872e-11
-6.502479e-10
-6.883814e-10
-6.918651e-10
-6.965918e-10
-7.01977e-10
-7.080609e-10
-3.643782e-11
-6.509652e-10
-6.884057e-10
-6.919949e-10
-6.967574e-10
-7.021329e-10
-7.081675e-10
-2.948444e-11
-6.515647e-10
-6.884208e-10
-6.921012e-10
-6.96902e-10
-7.022144e-10
-7.082491e-10
-2.384696e-11
-6.520434e-10
-6.88445e-10
-6.921762e-10
-6.96958e-10
-7.022746e-10
-7.083154e-10
-1.931851e-11
-6.531844e-10
-6.884569e-10
-6.922657e-10
-6.970056e-10
-7.023234e-10
-7.083716e-10
-1.5704e-11
-6.540687e-10
-6.884875e-10
-6.923007e-10
-6.970411e-10
-7.023653e-10
-7.084278e-10
-1.281297e-11
-6.546262e-10
-6.884718e-10
-6.923264e-10
-6.970718e-10
-7.024013e-10
-7.08476e-10
-1.063967e-11
-6.551512e-10
-6.884633e-10
-6.923481e-10
-6.97099e-10
-7.024326e-10
-7.085221e-10
-8.787906e-12
-6.553011e-10
-6.884486e-10
-6.923671e-10
-6.971234e-10
-7.024678e-10
-7.086578e-10
-7.305316e-12
-6.554814e-10
-6.884348e-10
-6.923849e-10
-6.971457e-10
-7.024988e-10
-7.087745e-10
-6.109935e-12
-6.556282e-10
-6.884222e-10
-6.924013e-10
-6.971665e-10
-7.025248e-10
-7.088048e-10
-5.15024e-12
-6.557703e-10
-6.884119e-10
-6.924168e-10
-6.971868e-10
-7.025555e-10
-7.088356e-10
-4.378616e-12
-6.559048e-10
-6.884019e-10
-6.92431e-10
-6.972095e-10
-7.026474e-10
-7.089213e-10
-3.756826e-12
-6.560326e-10
-6.88394e-10
-6.924448e-10
-6.972306e-10
-7.027251e-10
-7.090337e-10
-3.254497e-12
-6.561559e-10
-6.883881e-10
-6.924582e-10
-6.972473e-10
-7.027467e-10
-7.090569e-10
-2.847548e-12
-6.562737e-10
-6.883823e-10
-6.924705e-10
-6.972678e-10
-7.027671e-10
-7.090756e-10
-2.517038e-12
-6.563872e-10
-6.883784e-10
-6.924854e-10
-6.973313e-10
-7.028266e-10
-7.090981e-10
-2.247831e-12
-6.564967e-10
-6.88376e-10
-6.924988e-10
-6.973843e-10
-7.029026e-10
-7.091208e-10
-2.028193e-12
-6.566024e-10
-6.883741e-10
-6.92509e-10
-6.973982e-10
-7.029195e-10
-7.091374e-10
-1.848725e-12
-6.56704e-10
-6.883724e-10
-6.925196e-10
-6.974105e-10
-7.029323e-10
-7.091535e-10
-1.702149e-12
-6.568015e-10
-6.883718e-10
-6.925319e-10
-6.974238e-10
-7.029454e-10
-7.091696e-10
-1.583044e-12
-6.568961e-10
-6.883736e-10
-6.925729e-10
-6.974622e-10
-7.029599e-10
-7.091855e-10
-1.486334e-12
-6.569858e-10
-6.883746e-10
-6.926062e-10
-6.975105e-10
-7.029756e-10
-7.092003e-10
-1.407502e-12
-6.570709e-10
-6.883752e-10
-6.92615e-10
-6.975214e-10
-7.029873e-10
-7.092154e-10
-1.343115e-12
-6.571499e-10
-6.883756e-10
-6.92622e-10
-6.975292e-10
-7.029978e-10
-7.092291e-10
-1.290181e-12
-6.57224e-10
-6.883762e-10
-6.926281e-10
-6.975369e-10
-7.030084e-10
-7.092426e-10
-1.246113e-12
-6.57291e-10
-6.883762e-10
-6.926339e-10
-6.975446e-10
-7.030186e-10
-7.092565e-10
-1.208848e-12
-6.573493e-10
-6.88376e-10
-6.926396e-10
-6.975519e-10
-7.030287e-10
-7.092697e-10
-1.177312e-12
-6.573936e-10
-6.883771e-10
-6.926462e-10
-6.975591e-10
-7.030396e-10
-7.092838e-10
-1.153112e-12
-6.574436e-10
-6.883934e-10
-6.926679e-10
-6.975693e-10
-7.030513e-10
-7.093054e-10
-1.138528e-12
-6.574696e-10
-6.884061e-10
-6.926978e-10
-6.97583e-10
-7.030714e-10
-7.094233e-10
-1.137587e-12
-6.5745e-10
-6.884099e-10
-6.927109e-10
-6.976032e-10
-7.031771e-10
-7.095525e-10
-1.161091e-12
-6.574026e-10
-6.884236e-10
-6.927367e-10
-6.977052e-10
-7.032951e-10
-7.096845e-10
-1.094714e-12
-6.572848e-10
-6.884595e-10
-6.928479e-10
-6.978248e-10
-7.034186e-10
-7.098203e-10
-7.949038e-13
-6.572904e-10
-6.886047e-10
-6.929934e-10
-6.979586e-10
-7.035478e-10
-7.099585e-10
-9.512154e-13
-6.592078e-10
-6.888339e-10
-6.932079e-10
-6.981163e-10
-7.036839e-10
-7.100991e-10
-7.176922e-10
-7.273244e-10
-7.403373e-10
-7.529142e-10
-7.756542e-10
-8.120452e-10
2.019764e-09
-7.175364e-10
-7.271185e-10
-7.400623e-10
-7.525759e-10
-7.752346e-10
-8.117173e-10
-6.96909e-10
-7.173782e-10
-7.269158e-10
-7.397978e-10
-7.569698e-10
-7.748409e-10
-8.111198e-10
-6.965258e-10
-7.172205e-10
-7.267136e-10
-7.395229e-10
-7.519138e-10
-7.74412e-10
-8.105279e-10
-6.974721e-10
-7.17068e-10
-7.26513e-10
-7.392587e-10
-7.515707e-10
-7.740031e-10
-8.099411e-10
-6.995604e-10
-7.169167e-10
-7.263133e-10
-7.389926e-10
-7.512416e-10
-7.735989e-10
-8.093597e-10
-7.025335e-10
-7.167677e-10
-7.261149e-10
-7.387282e-10
-7.50923e-10
-7.734938e-10
-8.087866e-10
-7.063221e-10
-7.166301e-10
-7.259176e-10
-7.384657e-10
-7.506106e-10
-7.733949e-10
-8.082225e-10
-7.109673e-10
-7.166024e-10
-7.257345e-10
-7.38216e-10
-7.502908e-10
-7.73078e-10
-8.077159e-10
-7.164499e-10
-7.165832e-10
-7.25695e-10
-7.379825e-10
-7.499724e-10
-7.727639e-10
-8.072136e-10
-7.229427e-10
-7.165651e-10
-7.256677e-10
-7.379287e-10
-7.496638e-10
-7.724516e-10
-8.067161e-10
-7.301917e-10
-7.165461e-10
-7.25639e-10
-7.378895e-10
-7.496044e-10
-7.721386e-10
-8.062214e-10
-7.389447e-10
-7.165269e-10
-7.256101e-10
-7.378489e-10
-7.495538e-10
-7.720971e-10
-8.057205e-10
-7.489178e-10
-7.165067e-10
-7.255805e-10
-7.378071e-10
-7.495009e-10
-7.720502e-10
-8.056418e-10
-7.616543e-10
-7.164863e-10
-7.255495e-10
-7.377641e-10
-7.494458e-10
-7.72001e-10
-8.055618e-10
-7.979486e-10
-7.164651e-10
-7.255177e-10
-7.377197e-10
-7.493897e-10
-7.719496e-10
-8.054765e-10
-8.301363e-10
-7.164438e-10
-7.254848e-10
-7.376748e-10
-7.493319e-10
-7.718754e-10
-8.053889e-10
-9.274834e-10
-7.164218e-10
-7.254523e-10
-7.376277e-10
-7.49239e-10
-7.709079e-10
-8.05313e-10
-9.81717e-10
-7.163993e-10
-7.254213e-10
-7.375811e-10
-7.491775e-10
-7.708077e-10
-8.052397e-10
-9.910523e-10
-7.163757e-10
-7.253895e-10
-7.375328e-10
-7.491148e-10
-7.707322e-10
-8.051671e-10
-9.870981e-10
-7.163526e-10
-7.253568e-10
-7.374837e-10
-7.490516e-10
-7.706561e-10
-8.050962e-10
-9.694476e-10
-7.163281e-10
-7.25323e-10
-7.374341e-10
-7.489869e-10
-7.705798e-10
-8.050177e-10
-9.51446e-10
-7.163033e-10
-7.252883e-10
-7.373799e-10
-7.489228e-10
-7.704868e-10
-8.049353e-10
-9.323491e-10
-7.162695e-10
-7.252534e-10
-7.373398e-10
-7.532532e-10
-7.696188e-10
-8.047613e-10
-9.182347e-10
-7.162364e-10
-7.252167e-10
-7.372688e-10
-7.488383e-10
-7.691842e-10
-8.046458e-10
-9.084054e-10
-7.162099e-10
-7.251821e-10
-7.372203e-10
-7.48713e-10
-7.690736e-10
-8.045578e-10
-8.977187e-10
-7.161755e-10
-7.251443e-10
-7.371648e-10
-7.486417e-10
-7.689622e-10
-8.044431e-10
-8.884815e-10
-7.160079e-10
-7.250991e-10
-7.371057e-10
-7.485676e-10
-7.687932e-10
-8.025608e-10
-8.773235e-10
-7.158802e-10
-7.226559e-10
-7.338298e-10
-7.484825e-10
-7.686572e-10
-8.019476e-10
-8.703576e-10
-7.158414e-10
-7.225713e-10
-7.337181e-10
-7.484099e-10
-7.685553e-10
-8.018292e-10
-8.613514e-10
-7.155926e-10
-7.222975e-10
-7.336696e-10
-7.483392e-10
-7.684579e-10
-8.01031e-10
-1.97993e-09
-7.154363e-10
-7.22086e-10
-7.336182e-10
-7.482674e-10
-7.683582e-10
-7.993321e-10
-2.087629e-09
-7.153504e-10
-7.216797e-10
-7.335301e-10
-7.481943e-10
-7.682651e-10
-7.991751e-10
-1.888881e-09
-7.152733e-10
-7.215573e-10
-7.330876e-10
-7.481196e-10
-7.681754e-10
-7.988853e-10
-2.190167e-09
-7.151797e-10
-7.214458e-10
-7.326109e-10
-7.480224e-10
-7.680903e-10
-7.985959e-10
-8.685238e-10
-7.150647e-10
-7.213277e-10
-7.320121e-10
-7.478864e-10
-7.68009e-10
-7.984282e-10
-8.009512e-10
-7.149214e-10
-7.211825e-10
-7.318043e-10
-7.468996e-10
-7.679014e-10
-7.985543e-10
-8.604832e-10
-7.147125e-10
-7.20991e-10
-7.31588e-10
-7.461087e-10
-7.673948e-10
-7.989613e-10
-8.517744e-10
-7.144008e-10
-7.206997e-10
-7.312632e-10
-7.451395e-10
-7.650309e-10
-7.970894e-10
-9.852739e-10
-7.13583e-10
-7.200528e-10
-7.295302e-10
-7.409476e-10
-7.591344e-10
-7.943279e-10
-1.271962e-09
-7.106955e-10
-7.157567e-10
-7.229274e-10
-7.347076e-10
-7.538952e-10
-7.882175e-10
-1.148574e-09
-7.038223e-10
-7.072235e-10
-7.149756e-10
-7.280105e-10
-7.473357e-10
-7.765067e-10
-1.027065e-09
-6.957669e-10
-7.004884e-10
-7.074457e-10
-7.20141e-10
-7.387394e-10
-7.65471e-10
-1.302203e-09
-6.893881e-10
-6.933708e-10
-7.01821e-10
-7.112704e-10
-7.307142e-10
-7.582266e-10
-8.786066e-10
-6.809463e-10
-6.859992e-10
-6.926342e-10
-7.056227e-10
-7.202401e-10
-7.504896e-10
-9.572612e-10
-6.723025e-10
-6.790105e-10
-6.859526e-10
-6.942235e-10
-7.138619e-10
-7.391061e-10
-9.548388e-10
-6.637526e-10
-6.70439e-10
-6.764807e-10
-6.884877e-10
-7.035949e-10
-7.360308e-10
-1.394197e-09
-6.571702e-10
-6.633027e-10
-6.714666e-10
-6.78538e-10
-6.990672e-10
-7.247755e-10
-8.569778e-10
-6.478502e-10
-6.575885e-10
-6.625041e-10
-6.699432e-10
-6.913309e-10
-7.186958e-10
-7.732581e-10
-6.415964e-10
-6.477204e-10
-6.538379e-10
-6.657408e-10
-6.858895e-10
-7.095178e-10
-7.228814e-10
-6.344705e-10
-6.418023e-10
-6.474134e-10
-6.63329e-10
-6.83886e-10
-7.019128e-10
-7.040083e-10
-6.281231e-10
-6.325348e-10
-6.438977e-10
-6.556206e-10
-6.722575e-10
-6.94773e-10
-7.196803e-10
-6.243656e-10
-6.269911e-10
-6.3749e-10
-6.482601e-10
-6.666738e-10
-6.893968e-10
-7.150553e-10
-6.212456e-10
-6.231131e-10
-6.316966e-10
-6.463351e-10
-6.61773e-10
-6.887572e-10
-7.170324e-10
-6.201385e-10
-6.206335e-10
-6.286644e-10
-6.423256e-10
-6.650825e-10
-6.797529e-10
-6.801102e-10
-6.199183e-10
-6.197151e-10
-6.291396e-10
-6.412084e-10
-6.59384e-10
-6.747762e-10
-6.196978e-10
-6.19258e-10
-6.29778e-10
-6.390064e-10
-6.580108e-10
-6.736143e-10
-6.196819e-10
-6.176716e-10
-6.292568e-10
-6.424243e-10
-6.619475e-10
-6.747507e-10
-6.205134e-10
-6.170689e-10
-6.333644e-10
-6.480413e-10
-6.624243e-10
-6.798182e-10
-6.961357e-10
-6.235138e-10
-6.187493e-10
-6.350667e-10
-6.471479e-10
-6.63033e-10
-6.873761e-10
-7.176964e-10
-6.273567e-10
-6.224198e-10
-6.396411e-10
-6.51466e-10
-6.702497e-10
-6.916525e-10
-7.196732e-10
-6.337177e-10
-6.296539e-10
-6.444529e-10
-6.567663e-10
-6.775994e-10
-7.039876e-10
-7.220973e-10
-6.406726e-10
-6.371721e-10
-6.511412e-10
-6.643687e-10
-6.85109e-10
-7.074569e-10
-6.944982e-10
-6.469702e-10
-6.467593e-10
-6.579764e-10
-6.67051e-10
-6.910784e-10
-7.12461e-10
-7.413319e-10
-6.559838e-10
-6.558307e-10
-6.6346e-10
-6.74187e-10
-6.932545e-10
-7.21987e-10
-8.983109e-10
-6.627435e-10
-6.633014e-10
-6.737378e-10
-6.778564e-10
-6.989872e-10
-7.264009e-10
-1.015033e-09
-6.712208e-10
-6.726144e-10
-6.801922e-10
-6.906331e-10
-7.043207e-10
-7.346759e-10
-9.189149e-10
-6.805605e-10
-6.808961e-10
-6.897492e-10
-6.978689e-10
-7.146997e-10
-7.407309e-10
-1.006906e-09
-6.875437e-10
-6.895311e-10
-6.983132e-10
-7.075666e-10
-7.221021e-10
-7.509155e-10
-1.638707e-09
-6.954578e-10
-6.965437e-10
-7.038002e-10
-7.162569e-10
-7.299782e-10
-7.556409e-10
-9.531057e-10
-7.03248e-10
-7.04138e-10
-7.115571e-10
-7.231726e-10
-7.410505e-10
-7.672561e-10
-1.326056e-09
-7.104761e-10
-7.121695e-10
-7.195e-10
-7.300734e-10
-7.496702e-10
-7.790629e-10
-1.005416e-09
-7.136133e-10
-7.191142e-10
-7.266437e-10
-7.376655e-10
-7.561514e-10
-7.905446e-10
-1.182628e-09
-7.144024e-10
-7.205264e-10
-7.309813e-10
-7.436648e-10
-7.618465e-10
-7.938636e-10
-1.136194e-09
-7.147178e-10
-7.208537e-10
-7.31439e-10
-7.45477e-10
-7.67226e-10
-7.985673e-10
-1.014389e-09
-7.149295e-10
-7.210745e-10
-7.317003e-10
-7.46651e-10
-7.676327e-10
-7.986891e-10
-8.908433e-10
-7.150737e-10
-7.212385e-10
-7.319134e-10
-7.472474e-10
-7.679428e-10
-7.985337e-10
-8.58985e-10
-7.151883e-10
-7.213694e-10
-7.322518e-10
-7.479551e-10
-7.680422e-10
-7.985464e-10
-9.050518e-10
-7.152812e-10
-7.214801e-10
-7.328435e-10
-7.480823e-10
-7.681303e-10
-7.986473e-10
-8.981516e-10
-7.153574e-10
-7.215869e-10
-7.334943e-10
-7.481597e-10
-7.682194e-10
-7.987475e-10
-2.248883e-09
-7.15442e-10
-7.218609e-10
-7.335766e-10
-7.482332e-10
-7.6831e-10
-7.99266e-10
-2.227819e-09
-7.155971e-10
-7.221125e-10
-7.336465e-10
-7.483051e-10
-7.684058e-10
-7.995277e-10
-2.065881e-09
-7.158453e-10
-7.225254e-10
-7.336962e-10
-7.483758e-10
-7.685064e-10
-8.017034e-10
-8.038407e-10
-7.158835e-10
-7.225731e-10
-7.33747e-10
-7.484463e-10
-7.686062e-10
-8.018896e-10
-8.693558e-10
-7.160102e-10
-7.251013e-10
-7.371078e-10
-7.485059e-10
-7.687177e-10
-8.020326e-10
-8.742855e-10
-7.161775e-10
-7.25147e-10
-7.371668e-10
-7.485819e-10
-7.688895e-10
-8.037294e-10
-8.836952e-10
-7.162123e-10
-7.251845e-10
-7.372226e-10
-7.48656e-10
-7.690217e-10
-8.045188e-10
-8.934777e-10
-7.162385e-10
-7.252198e-10
-7.372772e-10
-7.487285e-10
-7.69133e-10
-8.046078e-10
-9.031386e-10
-7.162713e-10
-7.252557e-10
-7.373317e-10
-7.48801e-10
-7.692639e-10
-8.046989e-10
-9.130117e-10
-7.163047e-10
-7.252902e-10
-7.373839e-10
-7.488722e-10
-7.701875e-10
-8.048664e-10
-9.262149e-10
-7.16329e-10
-7.253244e-10
-7.374355e-10
-7.489415e-10
-7.705452e-10
-8.049863e-10
-9.380716e-10
-7.163535e-10
-7.253584e-10
-7.374859e-10
-7.490088e-10
-7.706227e-10
-8.050677e-10
-9.530828e-10
-7.163772e-10
-7.253911e-10
-7.375352e-10
-7.490752e-10
-7.707008e-10
-8.051457e-10
-9.686849e-10
-7.16401e-10
-7.254232e-10
-7.375839e-10
-7.49139e-10
-7.707762e-10
-8.052208e-10
-9.794682e-10
-7.164233e-10
-7.254545e-10
-7.376305e-10
-7.492011e-10
-7.708501e-10
-8.052934e-10
-9.803118e-10
-7.164454e-10
-7.254869e-10
-7.376776e-10
-7.49283e-10
-7.713307e-10
-8.053671e-10
-9.636865e-10
-7.164667e-10
-7.255198e-10
-7.377227e-10
-7.493565e-10
-7.719289e-10
-8.054373e-10
-9.240599e-10
-7.164879e-10
-7.255517e-10
-7.377671e-10
-7.494147e-10
-7.719798e-10
-8.055205e-10
-8.434018e-10
-7.165083e-10
-7.255828e-10
-7.378104e-10
-7.494717e-10
-7.720319e-10
-8.056145e-10
-7.788827e-10
-7.165284e-10
-7.256124e-10
-7.378524e-10
-7.495265e-10
-7.720806e-10
-8.056981e-10
-7.558601e-10
-7.165475e-10
-7.256412e-10
-7.378927e-10
-7.495799e-10
-7.721277e-10
-8.059891e-10
-7.443802e-10
-7.165663e-10
-7.256699e-10
-7.379319e-10
-7.496308e-10
-7.723044e-10
-8.064811e-10
-7.351428e-10
-7.165843e-10
-7.25697e-10
-7.379857e-10
-7.498157e-10
-7.726143e-10
-8.069776e-10
-7.272491e-10
-7.166029e-10
-7.257361e-10
-7.382188e-10
-7.501337e-10
-7.729279e-10
-8.074771e-10
-7.202868e-10
-7.166297e-10
-7.259184e-10
-7.384678e-10
-7.504547e-10
-7.732427e-10
-8.079817e-10
-7.143867e-10
-7.167661e-10
-7.261149e-10
-7.387294e-10
-7.507767e-10
-7.735458e-10
-8.085148e-10
-7.093028e-10
-7.169138e-10
-7.263123e-10
-7.389933e-10
-7.510832e-10
-7.734159e-10
-8.09084e-10
-7.050912e-10
-7.170636e-10
-7.265112e-10
-7.392584e-10
-7.514108e-10
-7.738067e-10
-8.096595e-10
-7.016665e-10
-7.172146e-10
-7.267114e-10
-7.395255e-10
-7.5174e-10
-7.742113e-10
-8.102421e-10
-6.990213e-10
-7.173717e-10
-7.269138e-10
-7.397943e-10
-7.520721e-10
-7.746191e-10
-8.108294e-10
-6.973183e-10
-7.17531e-10
-7.271169e-10
-7.400647e-10
-7.524047e-10
-7.750305e-10
-8.114215e-10
-6.966912e-10
-7.17692e-10
-7.273245e-10
-7.40337e-10
-7.527401e-10
-7.754444e-10
-8.120279e-10
-6.112847e-10
-2.620312e-07
-2.232421e-07
-2.223019e-07
-2.223012e-07
-2.223012e-07
-2.223012e-07
-2.223012e-07
-2.223012e-07
-2.223012e-07
-2.223012e-07
-2.223012e-07
-2.223012e-07
-2.223012e-07
-2.223012e-07
-2.223012e-07
-2.223012e-07
-2.223012e-07
-2.223012e-07
-2.615594e-07
-2.226764e-07
-2.223013e-07
-2.223011e-07
-2.223011e-07
-2.223011e-07
-2.223011e-07
-2.223011e-07
-2.223011e-07
-2.223011e-07
-2.223011e-07
-2.223011e-07
-2.223011e-07
-2.223011e-07
-2.223011e-07
-2.223011e-07
-2.223011e-07
-2.223011e-07
-2.635538e-07
-2.227486e-07
-2.223012e-07
-2.22301e-07
-2.22301e-07
-2.22301e-07
-2.22301e-07
-2.22301e-07
-2.22301e-07
-2.22301e-07
-2.22301e-07
-2.22301e-07
-2.22301e-07
-2.22301e-07
-2.22301e-07
-2.22301e-07
-2.22301e-07
-2.22301e-07
-2.651125e-07
-2.227628e-07
-2.223012e-07
-2.22301e-07
-2.22301e-07
-2.22301e-07
-2.22301e-07
-2.22301e-07
-2.22301e-07
-2.22301e-07
-2.22301e-07
-2.22301e-07
-2.22301e-07
-2.22301e-07
-2.22301e-07
-2.22301e-07
-2.22301e-07
-2.22301e-07
-2.67111e-07
-2.227713e-07
-2.223013e-07
-2.22301e-07
-2.22301e-07
-2.22301e-07
-2.22301e-07
-2.22301e-07
-2.22301e-07
-2.22301e-07
-2.22301e-07
-2.22301e-07
-2.22301e-07
-2.22301e-07
-2.22301e-07
-2.22301e-07
-2.22301e-07
-2.22301e-07
-2.695742e-07
-2.227841e-07
-2.223013e-07
-2.22301e-07
-2.22301e-07
-2.22301e-07
-2.22301e-07
-2.22301e-07
-2.22301e-07
-2.22301e-07
-2.22301e-07
-2.22301e-07
-2.22301e-07
-2.22301e-07
-2.22301e-07
-2.22301e-07
-2.22301e-07
-2.22301e-07
-2.724022e-07
-2.22799e-07
-2.223013e-07
-2.22301e-07
-2.22301e-07
-2.22301e-07
-2.22301e-07
-2.22301e-07
-2.22301e-07
-2.22301e-07
-2.22301e-07
-2.22301e-07
-2.22301e-07
-2.22301e-07
-2.22301e-07
-2.22301e-07
-2.22301e-07
-2.22301e-07
-2.755239e-07
-2.228157e-07
-2.223013e-07
-2.22301e-07
-2.22301e-07
-2.22301e-07
-2.22301e-07
-2.22301e-07
-2.22301e-07
-2.22301e-07
-2.22301e-07
-2.22301e-07
-2.22301e-07
-2.22301e-07
-2.22301e-07
-2.22301e-07
-2.22301e-07
-2.22301e-07
-2.788364e-07
-2.228336e-07
-2.223013e-07
-2.22301e-07
-2.22301e-07
-2.22301e-07
-2.22301e-07
-2.22301e-07
-2.22301e-07
-2.22301e-07
-2.22301e-07
-2.22301e-07
-2.22301e-07
-2.22301e-07
-2.22301e-07
-2.22301e-07
-2.22301e-07
-2.22301e-07
-2.823132e-07
-2.22853e-07
-2.223013e-07
-2.22301e-07
-2.22301e-07
-2.22301e-07
-2.22301e-07
-2.22301e-07
-2.22301e-07
-2.22301e-07
-2.22301e-07
-2.22301e-07
-2.22301e-07
-2.22301e-07
-2.22301e-07
-2.22301e-07
-2.22301e-07
-2.22301e-07
-2.858505e-07
-2.228743e-07
-2.223013e-07
-2.22301e-07
-2.22301e-07
-2.22301e-07
-2.22301e-07
-2.22301e-07
-2.22301e-07
-2.22301e-07
-2.22301e-07
-2.22301e-07
-2.22301e-07
-2.22301e-07
-2.22301e-07
-2.22301e-07
-2.22301e-07
-2.22301e-07
-2.894523e-07
-2.228993e-07
-2.223014e-07
-2.22301e-07
-2.22301e-07
-2.22301e-07
-2.22301e-07
-2.22301e-07
-2.22301e-07
-2.22301e-07
-2.22301e-07
-2.22301e-07
-2.22301e-07
-2.22301e-07
-2.22301e-07
-2.22301e-07
-2.22301e-07
-2.22301e-07
-2.929227e-07
-2.229285e-07
-2.223014e-07
-2.22301e-07
-2.22301e-07
-2.22301e-07
-2.22301e-07
-2.22301e-07
-2.22301e-07
-2.22301e-07
-2.22301e-07
-2.22301e-07
-2.22301e-07
-2.22301e-07
-2.22301e-07
-2.22301e-07
-2.22301e-07
-2.22301e-07
-2.977503e-07
-2.229774e-07
-2.223014e-07
-2.22301e-07
-2.22301e-07
-2.22301e-07
-2.22301e-07
-2.22301e-07
-2.22301e-07
-2.22301e-07
-2.22301e-07
-2.22301e-07
-2.22301e-07
-2.22301e-07
-2.22301e-07
-2.22301e-07
-2.22301e-07
-2.22301e-07
-2.808784e-07
-2.232131e-07
-2.223016e-07
-2.22301e-07
-2.22301e-07
-2.22301e-07
-2.22301e-07
-2.22301e-07
-2.22301e-07
-2.22301e-07
-2.22301e-07
-2.22301e-07
-2.22301e-07
-2.22301e-07
-2.22301e-07
-2.22301e-07
-2.22301e-07
-2.22301e-07
-2.768922e-07
-2.238661e-07
-2.223008e-07
-2.22301e-07
-2.22301e-07
-2.22301e-07
-2.22301e-07
-2.22301e-07
-2.22301e-07
-2.22301e-07
-2.22301e-07
-2.22301e-07
-2.22301e-07
-2.22301e-07
-2.22301e-07
-2.22301e-07
-2.22301e-07
-2.22301e-07
-2.863088e-07
-2.233126e-07
-2.223056e-07
-2.223004e-07
-2.22301e-07
-2.22301e-07
-2.22301e-07
-2.22301e-07
-2.22301e-07
-2.22301e-07
-2.22301e-07
-2.22301e-07
-2.22301e-07
-2.22301e-07
-2.22301e-07
-2.22301e-07
-2.22301e-07
-2.22301e-07
-2.575816e-07
-2.23311e-07
-2.223036e-07
-2.223024e-07
-2.223007e-07
-2.22301e-07
-2.22301e-07
-2.22301e-07
-2.22301e-07
-2.22301e-07
-2.22301e-07
-2.22301e-07
-2.22301e-07
-2.22301e-07
-2.22301e-07
-2.22301e-07
-2.22301e-07
-2.22301e-07
-2.441891e-07
-2.234028e-07
-2.223022e-07
-2.223018e-07
-2.223018e-07
-2.223009e-07
-2.22301e-07
-2.22301e-07
-2.22301e-07
-2.22301e-07
-2.22301e-07
-2.22301e-07
-2.22301e-07
-2.22301e-07
-2.22301e-07
-2.22301e-07
-2.22301e-07
-2.22301e-07
-2.33108e-07
-2.235742e-07
-2.223022e-07
-2.223011e-07
-2.223012e-07
-2.223012e-07
-2.22301e-07
-2.22301e-07
-2.22301e-07
-2.22301e-07
-2.22301e-07
-2.22301e-07
-2.22301e-07
-2.22301e-07
-2.22301e-07
-2.22301e-07
-2.22301e-07
-2.22301e-07
-2.229427e-07
-2.238128e-07
-2.223023e-07
-2.22301e-07
-2.22301e-07
-2.223011e-07
-2.22301e-07
-2.22301e-07
-2.22301e-07
-2.22301e-07
-2.22301e-07
-2.22301e-07
-2.22301e-07
-2.22301e-07
-2.22301e-07
-2.22301e-07
-2.22301e-07
-2.22301e-07
-2.14622e-07
-2.239715e-07
-2.223024e-07
-2.22301e-07
-2.22301e-07
-2.22301e-07
-2.22301e-07
-2.22301e-07
-2.22301e-07
-2.22301e-07
-2.22301e-07
-2.22301e-07
-2.22301e-07
-2.22301e-07
-2.22301e-07
-2.22301e-07
-2.22301e-07
-2.22301e-07
-2.073222e-07
-2.241233e-07
-2.223025e-07
-2.22301e-07
-2.22301e-07
-2.22301e-07
-2.22301e-07
-2.22301e-07
-2.22301e-07
-2.22301e-07
-2.22301e-07
-2.22301e-07
-2.22301e-07
-2.22301e-07
-2.22301e-07
-2.22301e-07
-2.22301e-07
-2.22301e-07
-2.002477e-07
-2.242704e-07
-2.223027e-07
-2.22301e-07
-2.22301e-07
-2.22301e-07
-2.22301e-07
-2.22301e-07
-2.22301e-07
-2.22301e-07
-2.22301e-07
-2.22301e-07
-2.22301e-07
-2.22301e-07
-2.22301e-07
-2.22301e-07
-2.22301e-07
-2.22301e-07
-1.930392e-07
-2.244539e-07
-2.223029e-07
-2.22301e-07
-2.22301e-07
-2.22301e-07
-2.22301e-07
-2.22301e-07
-2.22301e-07
-2.22301e-07
-2.22301e-07
-2.22301e-07
-2.22301e-07
-2.22301e-07
-2.22301e-07
-2.22301e-07
-2.22301e-07
-2.22301e-07
-1.864675e-07
-2.246322e-07
-2.223031e-07
-2.22301e-07
-2.22301e-07
-2.22301e-07
-2.22301e-07
-2.22301e-07
-2.22301e-07
-2.22301e-07
-2.22301e-07
-2.22301e-07
-2.22301e-07
-2.22301e-07
-2.22301e-07
-2.22301e-07
-2.22301e-07
-2.22301e-07
-1.801342e-07
-2.248398e-07
-2.223033e-07
-2.22301e-07
-2.22301e-07
-2.22301e-07
-2.22301e-07
-2.22301e-07
-2.22301e-07
-2.22301e-07
-2.22301e-07
-2.22301e-07
-2.22301e-07
-2.22301e-07
-2.22301e-07
-2.22301e-07
-2.22301e-07
-2.22301e-07
-1.738049e-07
-2.250512e-07
-2.223035e-07
-2.22301e-07
-2.22301e-07
-2.22301e-07
-2.22301e-07
-2.22301e-07
-2.22301e-07
-2.22301e-07
-2.22301e-07
-2.22301e-07
-2.22301e-07
-2.22301e-07
-2.22301e-07
-2.22301e-07
-2.22301e-07
-2.22301e-07
-1.681972e-07
-2.252973e-07
-2.223039e-07
-2.223011e-07
-2.223011e-07
-2.22301e-07
-2.22301e-07
-2.22301e-07
-2.22301e-07
-2.22301e-07
-2.22301e-07
-2.22301e-07
-2.22301e-07
-2.22301e-07
-2.22301e-07
-2.22301e-07
-2.22301e-07
-2.22301e-07
-1.628613e-07
-2.255487e-07
-2.223041e-07
-2.223057e-07
-2.223054e-07
-2.223011e-07
-2.22301e-07
-2.22301e-07
-2.22301e-07
-2.22301e-07
-2.22301e-07
-2.22301e-07
-2.22301e-07
-2.22301e-07
-2.22301e-07
-2.22301e-07
-2.22301e-07
-2.22301e-07
-1.543148e-07
-2.258248e-07
-2.223044e-07
-2.222908e-07
-2.222996e-07
-2.223011e-07
-2.22301e-07
-2.223008e-07
-2.223011e-07
-2.22301e-07
-2.22301e-07
-2.22301e-07
-2.22301e-07
-2.22301e-07