/*--------------------------------*- C++ -*----------------------------------*\
| =========                 |                                                 |
| \\      /  F ield         | OpenFOAM: The Open Source CFD Toolbox           |
|  \\    /   O peration     | Version:  2206                                  |
|   \\  /    A nd           | Website:  www.openfoam.com                      |
|    \\/     M anipulation  |                                                 |
\*---------------------------------------------------------------------------*/
FoamFile
{
    version     2.0;
    format      ascii;
    arch        "LSB;label=32;scalar=64";
    class       volScalarField;
    location    "1.2";
    object      ddt0(omega.b);
}
// * * * * * * * * * * * * * * * * * * * * * * * * * * * * * * * * * * * * * //

dimensions      [0 0 -2 0 0 0 0];

internalField   nonuniform List<scalar> 
13078
(
-1.121612e-07
-0.3757835
-0.4104616
-0.4120463
-0.4130654
-0.4141918
-0.4154735
-1.945583e-07
-0.367413
-0.4106021
-0.4120484
-0.4130522
-0.4141732
-0.4154499
-1.513903e-07
-0.3671157
-0.4105968
-0.4120429
-0.4130415
-0.4141574
-0.4154286
-1.863521e-07
-0.3670746
-0.410617
-0.4120396
-0.4130319
-0.4141427
-0.4154086
-1.822601e-07
-0.3668995
-0.4106287
-0.4120464
-0.4130224
-0.414128
-0.4153891
-1.839162e-07
-0.3666632
-0.4106322
-0.4120514
-0.4130256
-0.4141139
-0.4153694
-1.898152e-07
-0.3663631
-0.4106215
-0.412049
-0.413028
-0.4141147
-0.4153508
-1.986826e-07
-0.3660264
-0.4106053
-0.4120462
-0.413029
-0.4141161
-0.4153501
-2.097954e-07
-0.3656859
-0.4105991
-0.4120452
-0.4130292
-0.4141164
-0.4153503
-2.228577e-07
-0.3653145
-0.4105918
-0.4120438
-0.4130286
-0.4141161
-0.4153499
-2.381172e-07
-0.3649114
-0.4105837
-0.4120421
-0.4130275
-0.4141152
-0.4153489
-2.560933e-07
-0.3644708
-0.4105748
-0.4120404
-0.4130262
-0.414114
-0.4153478
-2.774669e-07
-0.363986
-0.4105652
-0.4120385
-0.4130249
-0.4141128
-0.4153464
-3.03084e-07
-0.3634479
-0.4105548
-0.4120364
-0.4130231
-0.4141113
-0.4153448
-3.339642e-07
-0.362849
-0.4105428
-0.4120293
-0.4130137
-0.414109
-0.4153431
-3.712995e-07
-0.3621815
-0.4105293
-0.4120209
-0.4130065
-0.414107
-0.4153414
-4.166258e-07
-0.3614344
-0.4105155
-0.4120182
-0.4130041
-0.4141054
-0.4153399
-4.718638e-07
-0.3605983
-0.4105004
-0.4120159
-0.4130023
-0.414104
-0.4153385
-5.394503e-07
-0.359662
-0.4104835
-0.4120138
-0.4130003
-0.4141021
-0.4153371
-6.225066e-07
-0.3586151
-0.4104648
-0.4120113
-0.4129904
-0.4140881
-0.4153349
-7.24995e-07
-0.3574452
-0.4104442
-0.4120085
-0.4129789
-0.4140783
-0.4153331
-8.520351e-07
-0.3561382
-0.4104215
-0.4120062
-0.412976
-0.4140763
-0.4153324
-1.010139e-06
-0.3546797
-0.4103961
-0.4120039
-0.4129742
-0.4140746
-0.4153315
-1.207638e-06
-0.3530565
-0.4103682
-0.4120019
-0.4129719
-0.4140613
-0.4153122
-1.455139e-06
-0.3512548
-0.4103375
-0.4119997
-0.4129695
-0.4140466
-0.4153
-1.766118e-06
-0.349262
-0.4103035
-0.4119974
-0.4129677
-0.4140441
-0.4152989
-2.157594e-06
-0.3470784
-0.4102663
-0.411995
-0.4129663
-0.4140433
-0.4152994
-2.650558e-06
-0.3447784
-0.4102247
-0.4119925
-0.4129649
-0.414042
-0.4152819
-3.274321e-06
-0.3422271
-0.410181
-0.4119898
-0.4129633
-0.4140401
-0.4152632
-4.055855e-06
-0.3408911
-0.4101231
-0.4119861
-0.4129615
-0.4140396
-0.4152624
-5.093766e-06
-0.3354931
-0.4100778
-0.4119821
-0.412959
-0.4140385
-0.4152618
-6.369452e-06
-0.3315154
-0.4100601
-0.4119757
-0.4129553
-0.4140361
-0.4152592
-7.977096e-06
-0.3267821
-0.4099064
-0.4119583
-0.4129489
-0.4140321
-0.4152563
-9.985022e-06
-0.3234506
-0.4097991
-0.4119442
-0.4129393
-0.4140255
-0.4152511
-1.249024e-05
-0.3202537
-0.4097305
-0.4119215
-0.4129157
-0.4140132
-0.4152423
-1.558717e-05
-0.3173965
-0.409663
-0.4118902
-0.4128789
-0.4139698
-0.4152272
-1.936304e-05
-0.3150298
-0.4096036
-0.4118671
-0.412838
-0.4139496
-0.4152027
-2.38834e-05
-0.3134258
-0.4095518
-0.4118453
-0.412808
-0.4138969
-0.4151221
-2.917077e-05
-0.313697
-0.4095109
-0.4118209
-0.412773
-0.4138309
-0.4150952
-3.525832e-05
-0.3195172
-0.4094853
-0.4117902
-0.412735
-0.413769
-0.4149677
-4.224385e-05
-0.3135231
-0.409622
-0.411735
-0.4126616
-0.4136539
-0.4145902
-4.928231e-05
-0.3139612
-0.4094304
-0.4116701
-0.4125218
-0.4131293
-0.41283
-5.611679e-05
-0.3194611
-0.4093084
-0.4115212
-0.4120136
-0.4112683
-0.4097714
-6.222809e-05
-0.3286661
-0.4092694
-0.4109942
-0.4104015
-0.4084334
-0.4066852
-6.705318e-05
-0.3458425
-0.4091529
-0.4094946
-0.4076375
-0.4056506
-0.4035627
-7.024675e-05
-0.3535551
-0.4086484
-0.4069494
-0.4046654
-0.4027017
-0.4007225
-7.069386e-05
-0.3720768
-0.4068821
-0.4044547
-0.4015822
-0.3993807
-0.3979305
-0.0007393022
-0.3992704
-0.4049439
-0.4018769
-0.3986928
-0.3967595
-0.3941507
-0.008812049
-0.4324861
-0.4031709
-0.3990693
-0.3961055
-0.3941371
-0.3915847
-0.02844422
-0.4695263
-0.4015638
-0.3966052
-0.3936013
-0.3913699
-0.3901925
-0.06213321
-0.514233
-0.4006469
-0.394581
-0.391512
-0.3891704
-0.3877792
-0.1083089
-0.5431946
-0.3991226
-0.39287
-0.3898486
-0.3874596
-0.3853114
-0.149679
-0.5676881
-0.3975548
-0.3912967
-0.3884524
-0.3860022
-0.384212
-0.179152
-0.582058
-0.3963035
-0.3899514
-0.3871691
-0.3849542
-0.3837148
-0.2006748
-0.5911194
-0.3953532
-0.3889857
-0.3863054
-0.3842467
-0.3828298
-0.2192735
-0.5982633
-0.3947739
-0.3883727
-0.3857389
-0.3836402
-0.3822171
-0.2190708
-0.5994914
-0.3947764
-0.3883817
-0.3857827
-0.3836771
-0.3820674
-0.2004193
-0.5936841
-0.3953388
-0.388986
-0.386334
-0.3841434
-0.3820308
-0.1788877
-0.5842344
-0.3962995
-0.3899778
-0.3872309
-0.3852064
-0.3831976
-0.1492346
-0.5682415
-0.3976103
-0.3913411
-0.3885582
-0.3866803
-0.3842344
-0.1077601
-0.5413663
-0.3991179
-0.3929633
-0.3900818
-0.3879463
-0.3857815
-0.06158346
-0.5102176
-0.4006307
-0.3945847
-0.3915138
-0.3892376
-0.3882097
-0.02813791
-0.4647065
-0.4016447
-0.3967299
-0.393745
-0.3915733
-0.3905893
-0.008623184
-0.4284745
-0.4033161
-0.3993022
-0.3963417
-0.3945109
-0.392276
-0.000723004
-0.396995
-0.4051297
-0.4022014
-0.3990334
-0.397244
-0.3948542
-7.108401e-05
-0.3715739
-0.4070593
-0.4047858
-0.4020003
-0.3998748
-0.3985898
-6.988283e-05
-0.354194
-0.4087733
-0.407225
-0.4051168
-0.4032494
-0.4012825
-6.604442e-05
-0.3468009
-0.409233
-0.4096735
-0.4080086
-0.4061574
-0.4042208
-6.081057e-05
-0.3292387
-0.4093107
-0.4110731
-0.4105733
-0.4088666
-0.4074898
-5.454796e-05
-0.319502
-0.4093277
-0.411529
-0.4120699
-0.4115856
-0.4103376
-4.78195e-05
-0.3135778
-0.4094092
-0.4116658
-0.4125484
-0.4132507
-0.4130346
-4.106675e-05
-0.3121059
-0.4095365
-0.411741
-0.4126789
-0.4136866
-0.4147086
-3.452285e-05
-0.3157164
-0.4094449
-0.4118028
-0.4127517
-0.4137939
-0.4149987
-2.876014e-05
-0.3116986
-0.4094695
-0.4118326
-0.4127868
-0.4138512
-0.4151111
-2.372712e-05
-0.311644
-0.4095295
-0.4118527
-0.4128234
-0.4139146
-0.4151401
-1.93908e-05
-0.3140447
-0.4096125
-0.4118766
-0.4128585
-0.4139648
-0.4152183
-1.57381e-05
-0.3168027
-0.4096571
-0.4118983
-0.4128964
-0.4139921
-0.4152398
-1.269198e-05
-0.3208097
-0.4097255
-0.4119279
-0.412922
-0.4140232
-0.4152523
-1.02233e-05
-0.323393
-0.4097984
-0.4119496
-0.4129463
-0.4140331
-0.4152596
-8.220438e-06
-0.3267984
-0.4099071
-0.4119629
-0.4129542
-0.4140383
-0.4152631
-6.600825e-06
-0.3315482
-0.4100617
-0.4119792
-0.4129596
-0.4140411
-0.4152644
-5.303612e-06
-0.3355694
-0.4100803
-0.411985
-0.4129624
-0.4140424
-0.4152657
-4.241418e-06
-0.340976
-0.4101259
-0.4119886
-0.4129643
-0.4140427
-0.4152655
-3.434484e-06
-0.3423479
-0.4101839
-0.4119916
-0.4129655
-0.4140425
-0.4152655
-2.78684e-06
-0.3449039
-0.4102275
-0.411994
-0.4129665
-0.4140437
-0.4152838
-2.272686e-06
-0.3472028
-0.4102688
-0.4119962
-0.4129675
-0.4140447
-0.4153011
-1.863031e-06
-0.3493796
-0.4103058
-0.4119983
-0.4129687
-0.4140454
-0.4153002
-1.536791e-06
-0.3513633
-0.4103397
-0.4120004
-0.4129703
-0.4140476
-0.415301
-1.276657e-06
-0.3531552
-0.41037
-0.4120025
-0.4129726
-0.4140621
-0.415313
-1.06881e-06
-0.3547689
-0.4103977
-0.4120046
-0.4129748
-0.4140752
-0.415332
-9.022781e-07
-0.3562185
-0.410423
-0.4120067
-0.4129766
-0.4140768
-0.4153329
-7.684005e-07
-0.3575173
-0.4104455
-0.4120089
-0.4129793
-0.4140788
-0.4153336
-6.603643e-07
-0.3586797
-0.4104658
-0.4120115
-0.4129906
-0.4140885
-0.4153353
-5.72812e-07
-0.3597197
-0.4104844
-0.4120139
-0.4130004
-0.4141024
-0.4153375
-5.015715e-07
-0.3606497
-0.4105011
-0.4120159
-0.4130024
-0.4141043
-0.4153388
-4.433565e-07
-0.3614797
-0.4105161
-0.4120181
-0.4130043
-0.4141057
-0.4153403
-3.956178e-07
-0.362221
-0.4105298
-0.4120207
-0.4130065
-0.4141073
-0.4153419
-3.563965e-07
-0.3628823
-0.4105432
-0.4120292
-0.4130137
-0.4141093
-0.4153436
-3.240531e-07
-0.3634743
-0.410555
-0.4120362
-0.4130232
-0.4141116
-0.4153452
-2.972501e-07
-0.3640043
-0.4105653
-0.4120384
-0.4130252
-0.4141133
-0.4153471
-2.749534e-07
-0.3644797
-0.4105747
-0.4120403
-0.4130266
-0.4141147
-0.4153487
-2.562864e-07
-0.3649092
-0.4105834
-0.4120421
-0.413028
-0.4141161
-0.4153501
-2.405267e-07
-0.3652994
-0.4105914
-0.4120438
-0.4130293
-0.4141173
-0.4153515
-2.270824e-07
-0.3656568
-0.4105986
-0.4120454
-0.4130302
-0.414118
-0.4153523
-2.15574e-07
-0.3659838
-0.4106052
-0.4120469
-0.4130306
-0.4141184
-0.4153528
-2.061426e-07
-0.3663099
-0.4106224
-0.4120508
-0.4130307
-0.414118
-0.4153542
-1.988898e-07
-0.3666053
-0.4106351
-0.4120549
-0.4130299
-0.4141183
-0.4153737
-1.939028e-07
-0.3668464
-0.4106359
-0.4120527
-0.4130286
-0.4141337
-0.4153941
-1.915515e-07
-0.3670431
-0.4106317
-0.4120493
-0.4130401
-0.4141494
-0.415414
-1.689202e-07
-0.3671227
-0.4106221
-0.412056
-0.413051
-0.4141643
-0.4154337
-1.256893e-07
-0.3674008
-0.4106402
-0.412061
-0.4130613
-0.4141791
-0.4154538
-1.634781e-07
-0.3697238
-0.4106805
-0.4120735
-0.4130735
-0.4141949
-0.4154749
-0.4169763
-0.4188678
-0.4213991
-0.4238105
-0.4280999
-0.4348284
-0.4537498
-0.416947
-0.4188289
-0.4213475
-0.4237458
-0.4280223
-0.4347211
-0.4446213
-0.4169196
-0.4187919
-0.4212979
-0.4245884
-0.4279459
-0.434615
-0.4442923
-0.4168934
-0.4187557
-0.4212477
-0.4236246
-0.4278713
-0.4345106
-0.4439787
-0.4168687
-0.4187204
-0.4211993
-0.4235623
-0.4277978
-0.4344078
-0.4437542
-0.416844
-0.4186854
-0.4211515
-0.4235031
-0.4277251
-0.4343061
-0.4435403
-0.4168193
-0.4186506
-0.421104
-0.4234457
-0.4277086
-0.4342061
-0.4433365
-0.416796
-0.4186157
-0.4210566
-0.4233893
-0.4276927
-0.434108
-0.4431451
-0.4167937
-0.418583
-0.4210118
-0.4233315
-0.4276373
-0.4340218
-0.4429661
-0.4167926
-0.4185782
-0.4209697
-0.4232739
-0.4275824
-0.4339367
-0.4428026
-0.4167914
-0.4185756
-0.4209625
-0.4232182
-0.4275281
-0.4338528
-0.4426482
-0.4167897
-0.4185726
-0.420958
-0.4232102
-0.4274738
-0.43377
-0.4425197
-0.4167878
-0.4185694
-0.4209534
-0.4232043
-0.4274712
-0.4336867
-0.4424111
-0.4167857
-0.4185662
-0.4209486
-0.4231981
-0.427468
-0.4336818
-0.4423378
-0.4167836
-0.4185628
-0.4209439
-0.4231917
-0.4274647
-0.4336742
-0.4426999
-0.4167815
-0.4185595
-0.4209392
-0.4231856
-0.4274617
-0.4336681
-0.4431929
-0.4167797
-0.4185562
-0.4209348
-0.4231799
-0.4274567
-0.4336616
-0.4444649
-0.4167778
-0.4185534
-0.4209304
-0.4231683
-0.4272837
-0.4336596
-0.4458092
-0.4167762
-0.4185512
-0.4209268
-0.4231629
-0.4272743
-0.4336594
-0.4463627
-0.4167746
-0.4185494
-0.4209233
-0.4231581
-0.4272708
-0.4336607
-0.446781
-0.4167736
-0.4185479
-0.4209204
-0.4231542
-0.4272685
-0.4336644
-0.4470182
-0.4167728
-0.4185468
-0.420918
-0.4231512
-0.4272676
-0.4336701
-0.4471227
-0.4167724
-0.4185462
-0.4209162
-0.4231497
-0.4272663
-0.4336784
-0.447167
-0.4167709
-0.4185465
-0.420919
-0.4240001
-0.4271142
-0.433673
-0.4472662
-0.4167703
-0.4185469
-0.4209142
-0.4231643
-0.4270528
-0.4336822
-0.4474443
-0.416772
-0.4185494
-0.4209169
-0.4231478
-0.4270532
-0.4337023
-0.4476148
-0.4167739
-0.4185529
-0.4209198
-0.4231514
-0.4270555
-0.4337232
-0.4478597
-0.4167498
-0.4185555
-0.4209239
-0.4231559
-0.4270497
-0.4334234
-0.4481035
-0.4167344
-0.4180904
-0.4203088
-0.4231607
-0.4270537
-0.4333647
-0.4484186
-0.4167399
-0.4180813
-0.4202909
-0.4231722
-0.4270695
-0.4334023
-0.4488008
-0.4166974
-0.4180514
-0.4203031
-0.4231866
-0.4270916
-0.433244
-0.4491299
-0.4166843
-0.4180159
-0.4203171
-0.4232041
-0.4271178
-0.4330583
-0.4495456
-0.416679
-0.4179838
-0.4203265
-0.4232247
-0.4271517
-0.4331155
-0.4500831
-0.4166752
-0.4179805
-0.4202423
-0.4232485
-0.4271915
-0.4331456
-0.4491958
-0.4166686
-0.4179934
-0.4201779
-0.4232732
-0.4272358
-0.433224
-0.4506139
-0.4166557
-0.4180093
-0.4201071
-0.423277
-0.4272763
-0.4333555
-0.4506278
-0.4166359
-0.4180308
-0.4200718
-0.4230345
-0.4272734
-0.433501
-0.4512537
-0.4166085
-0.4180603
-0.4200104
-0.4226433
-0.4273192
-0.4337364
-0.4524249
-0.4165553
-0.4180673
-0.4198503
-0.4226322
-0.4253326
-0.4322355
-0.4522933
-0.4162467
-0.4181007
-0.4187603
-0.4198796
-0.4220583
-0.4312748
-0.4462083
-0.4150242
-0.4162295
-0.4151556
-0.4162538
-0.4198729
-0.4286707
-0.4429075
-0.412081
-0.4119689
-0.4113162
-0.4124828
-0.4177032
-0.4247424
-0.4366953
-0.4085817
-0.4090502
-0.4074737
-0.4087736
-0.4157831
-0.4212932
-0.4312741
-0.405727
-0.4053892
-0.4043218
-0.4047969
-0.4101057
-0.4184063
-0.4295057
-0.4025088
-0.4023929
-0.4004664
-0.402209
-0.4069252
-0.4155242
-0.4275174
-0.3988591
-0.3986368
-0.3970087
-0.4006708
-0.404922
-0.4119242
-0.4261294
-0.3956978
-0.3952797
-0.3931044
-0.3964811
-0.4006099
-0.4109325
-0.4246399
-0.3934099
-0.3918607
-0.3913785
-0.3917056
-0.398618
-0.4069915
-0.4213505
-0.3902253
-0.3902996
-0.3881993
-0.3888335
-0.395749
-0.4042247
-0.4180893
-0.387842
-0.3860645
-0.3848149
-0.3881413
-0.3944638
-0.4019293
-0.4135917
-0.3842298
-0.3837934
-0.3827983
-0.388233
-0.3946993
-0.3999583
-0.4081076
-0.3815131
-0.382042
-0.3818442
-0.3855062
-0.3910007
-0.3979317
-0.4059684
-0.3795824
-0.3776827
-0.3820691
-0.3826222
-0.3890146
-0.3966875
-0.405665
-0.3782277
-0.3766514
-0.3773995
-0.3821949
-0.3878164
-0.3980172
-0.406355
-0.3788027
-0.376166
-0.3787275
-0.3809727
-0.3900104
-0.3986867
-0.3966676
-0.3794187
-0.3770717
-0.377001
-0.3802499
-0.3886173
-0.3972063
-0.3773636
-0.3758738
-0.3791113
-0.3786207
-0.3872721
-0.3953531
-0.377244
-0.3751065
-0.3767568
-0.3808711
-0.3901246
-0.3977066
-0.3778362
-0.3748216
-0.3800249
-0.3843837
-0.388937
-0.3954211
-0.4020194
-0.3806021
-0.3757945
-0.3792013
-0.383577
-0.3888652
-0.3965954
-0.4067995
-0.3820042
-0.3770462
-0.3806813
-0.3842206
-0.3912887
-0.3983021
-0.4072294
-0.3857283
-0.3821856
-0.3836397
-0.3866104
-0.3936962
-0.4028158
-0.4059738
-0.3887308
-0.3830449
-0.3850211
-0.3890396
-0.396466
-0.4027137
-0.4071816
-0.3909935
-0.389331
-0.3878463
-0.3922433
-0.3973928
-0.4032426
-0.416063
-0.3942751
-0.3925376
-0.3896299
-0.3913807
-0.3972547
-0.4071357
-0.4230777
-0.3966467
-0.3939642
-0.3939448
-0.3918558
-0.4002495
-0.4088492
-0.4246787
-0.3998618
-0.3993214
-0.3959817
-0.3975441
-0.4016002
-0.4121274
-0.4299278
-0.4034577
-0.4007227
-0.4004657
-0.4000902
-0.406188
-0.4132974
-0.4340232
-0.4060497
-0.4044226
-0.4040118
-0.4046234
-0.4080349
-0.4198147
-0.4353875
-0.4092523
-0.407333
-0.4065581
-0.4084551
-0.4108786
-0.4185635
-0.4317189
-0.4124106
-0.4106615
-0.4108391
-0.4113033
-0.4163378
-0.4222399
-0.4323516
-0.4151751
-0.4142603
-0.4141424
-0.4147737
-0.4196314
-0.4285747
-0.4396789
-0.4163403
-0.4171556
-0.4174732
-0.4186054
-0.4231887
-0.4306691
-0.4433161
-0.4165883
-0.4177135
-0.4197235
-0.4217834
-0.4244026
-0.4318237
-0.4476537
-0.4166306
-0.4178235
-0.4199764
-0.4229155
-0.4270809
-0.4332772
-0.452042
-0.4166532
-0.4178737
-0.4200612
-0.4230167
-0.4272181
-0.4336835
-0.4542146
-0.4166693
-0.4179061
-0.4201105
-0.4231025
-0.4272933
-0.4334258
-0.4509909
-0.4166795
-0.4179265
-0.4201358
-0.4232931
-0.4272615
-0.4332765
-0.4520832
-0.4166839
-0.417934
-0.4202279
-0.4232678
-0.4272173
-0.433176
-0.4501851
-0.4166858
-0.4179601
-0.4203364
-0.423241
-0.4271742
-0.4331352
-0.4497432
-0.4166893
-0.4179757
-0.4203238
-0.4232175
-0.4271356
-0.4330819
-0.4499049
-0.4167016
-0.4180072
-0.4203126
-0.4231973
-0.4271043
-0.4330585
-0.4493501
-0.4167434
-0.4180796
-0.4202987
-0.4231804
-0.4270802
-0.4334269
-0.449014
-0.4167366
-0.4180822
-0.4202875
-0.4231671
-0.4270611
-0.4333817
-0.4486354
-0.4167514
-0.4185567
-0.4209254
-0.4231455
-0.4270494
-0.433353
-0.4482577
-0.4167752
-0.4185542
-0.4209207
-0.4231434
-0.4270544
-0.4336123
-0.4479886
-0.4167733
-0.4185506
-0.4209177
-0.4231404
-0.4270542
-0.4337139
-0.4477467
-0.4167714
-0.4185483
-0.4209163
-0.4231389
-0.427053
-0.4336917
-0.4475466
-0.4167718
-0.4185472
-0.4209162
-0.4231392
-0.4270584
-0.433675
-0.4473614
-0.4167731
-0.4185468
-0.4209168
-0.4231406
-0.4272147
-0.4336775
-0.4472369
-0.4167732
-0.4185472
-0.4209184
-0.4231431
-0.4272677
-0.4336746
-0.4470997
-0.416774
-0.4185483
-0.4209207
-0.4231465
-0.4272682
-0.4336677
-0.4469726
-0.4167751
-0.4185498
-0.4209237
-0.4231508
-0.4272703
-0.4336633
-0.4468482
-0.4167766
-0.4185517
-0.4209273
-0.4231556
-0.4272733
-0.4336614
-0.4466015
-0.4167783
-0.4185539
-0.420931
-0.4231608
-0.4272772
-0.4336612
-0.4461835
-0.4167801
-0.4185568
-0.4209354
-0.4231703
-0.4273563
-0.4336624
-0.4455428
-0.416782
-0.4185601
-0.4209399
-0.4231789
-0.4274609
-0.4336631
-0.4446471
-0.4167842
-0.4185635
-0.4209448
-0.4231853
-0.4274635
-0.4336689
-0.4431792
-0.4167864
-0.4185671
-0.4209498
-0.4231919
-0.4274676
-0.4336809
-0.4425151
-0.4167887
-0.4185706
-0.4209547
-0.4231984
-0.4274713
-0.4336878
-0.4423994
-0.4167908
-0.418574
-0.4209596
-0.4232049
-0.427475
-0.4337322
-0.4424734
-0.4167928
-0.4185773
-0.4209643
-0.4232111
-0.4275036
-0.4338142
-0.4425897
-0.4167945
-0.4185802
-0.4209719
-0.4232433
-0.4275575
-0.4338978
-0.4427306
-0.416796
-0.4185855
-0.4210142
-0.423301
-0.4276124
-0.4339822
-0.4428864
-0.4167988
-0.4186185
-0.4210594
-0.4233592
-0.4276677
-0.4340681
-0.4430596
-0.4168227
-0.4186539
-0.421107
-0.4234174
-0.4277208
-0.4341599
-0.4432436
-0.416848
-0.418689
-0.4211548
-0.4234728
-0.4276937
-0.4342591
-0.4434387
-0.416873
-0.4187241
-0.4212026
-0.4235322
-0.427764
-0.4343596
-0.4436434
-0.4168977
-0.4187592
-0.4212509
-0.4235922
-0.4278368
-0.4344615
-0.4438571
-0.4169233
-0.4187948
-0.4212997
-0.423653
-0.4279105
-0.4345647
-0.444112
-0.4169497
-0.4188309
-0.4213492
-0.4237145
-0.4279854
-0.4346692
-0.4444432
-0.4169771
-0.4188684
-0.4213996
-0.4237774
-0.4280612
-0.4347748
-0.4453547
-2.523853
-1.982282
-2.077071
-2.077126
-2.077126
-2.077126
-2.077126
-2.077126
-2.077126
-2.077126
-2.077126
-2.077126
-2.077126
-2.077126
-2.077126
-2.077126
-2.077126
-2.077126
-2.20778
-2.066427
-2.077118
-2.077124
-2.077124
-2.077124
-2.077124
-2.077124
-2.077124
-2.077124
-2.077124
-2.077124
-2.077124
-2.077124
-2.077124
-2.077124
-2.077124
-2.077124
-2.219629
-2.06605
-2.077119
-2.077123
-2.077123
-2.077123
-2.077123
-2.077123
-2.077123
-2.077123
-2.077123
-2.077123
-2.077123
-2.077123
-2.077123
-2.077123
-2.077123
-2.077123
-2.229084
-2.066361
-2.07712
-2.077123
-2.077123
-2.077123
-2.077123
-2.077123
-2.077123
-2.077123
-2.077123
-2.077123
-2.077123
-2.077123
-2.077123
-2.077123
-2.077123
-2.077123
-2.240842
-2.066715
-2.077119
-2.077123
-2.077123
-2.077123
-2.077123
-2.077123
-2.077123
-2.077123
-2.077123
-2.077123
-2.077123
-2.077123
-2.077123
-2.077123
-2.077123
-2.077123
-2.255293
-2.066795
-2.077119
-2.077123
-2.077123
-2.077123
-2.077123
-2.077123
-2.077123
-2.077123
-2.077123
-2.077123
-2.077123
-2.077123
-2.077123
-2.077123
-2.077123
-2.077123
-2.272061
-2.066764
-2.077119
-2.077123
-2.077123
-2.077123
-2.077123
-2.077123
-2.077123
-2.077123
-2.077123
-2.077123
-2.077123
-2.077123
-2.077123
-2.077123
-2.077123
-2.077123
-2.29096
-2.066678
-2.077119
-2.077123
-2.077123
-2.077123
-2.077123
-2.077123
-2.077123
-2.077123
-2.077123
-2.077123
-2.077123
-2.077123
-2.077123
-2.077123
-2.077123
-2.077123
-2.311581
-2.06657
-2.077119
-2.077123
-2.077123
-2.077123
-2.077123
-2.077123
-2.077123
-2.077123
-2.077123
-2.077123
-2.077123
-2.077123
-2.077123
-2.077123
-2.077123
-2.077123
-2.334071
-2.066433
-2.077119
-2.077123
-2.077123
-2.077123
-2.077123
-2.077123
-2.077123
-2.077123
-2.077123
-2.077123
-2.077123
-2.077123
-2.077123
-2.077123
-2.077123
-2.077123
-2.357791
-2.06626
-2.077119
-2.077123
-2.077123
-2.077123
-2.077123
-2.077123
-2.077123
-2.077123
-2.077123
-2.077123
-2.077123
-2.077123
-2.077123
-2.077123
-2.077123
-2.077123
-2.383404
-2.066026
-2.077119
-2.077123
-2.077123
-2.077123
-2.077123
-2.077123
-2.077123
-2.077123
-2.077123
-2.077123
-2.077123
-2.077123
-2.077123
-2.077123
-2.077123
-2.077123
-2.409913
-2.065582
-2.077118
-2.077123
-2.077123
-2.077123
-2.077123
-2.077123
-2.077123
-2.077123
-2.077123
-2.077123
-2.077123
-2.077123
-2.077123
-2.077123
-2.077123
-2.077123
-2.445881
-2.064508
-2.077118
-2.077123
-2.077123
-2.077123
-2.077123
-2.077123
-2.077123
-2.077123
-2.077123
-2.077123
-2.077123
-2.077123
-2.077123
-2.077123
-2.077123
-2.077123
-2.464203
-2.059128
-2.077118
-2.077123
-2.077123
-2.077123
-2.077123
-2.077123
-2.077123
-2.077123
-2.077123
-2.077123
-2.077123
-2.077123
-2.077123
-2.077123
-2.077123
-2.077123
-2.483682
-2.034303
-2.077126
-2.077124
-2.077122
-2.077123
-2.077123
-2.077123
-2.077123
-2.077123
-2.077123
-2.077123
-2.077123
-2.077123
-2.077123
-2.077123
-2.077123
-2.077123
-2.733592
-2.057889
-2.077001
-2.07713
-2.077123
-2.077123
-2.077123
-2.077123
-2.077123
-2.077123
-2.077123
-2.077123
-2.077123
-2.077123
-2.077123
-2.077123
-2.077123
-2.077123
-2.552305
-2.059111
-2.077052
-2.077094
-2.077127
-2.077123
-2.077123
-2.077123
-2.077123
-2.077123
-2.077123
-2.077123
-2.077123
-2.077123
-2.077123
-2.077123
-2.077123
-2.077123
-2.49768
-2.060819
-2.077111
-2.077101
-2.077107
-2.077124
-2.077123
-2.077123
-2.077123
-2.077123
-2.077123
-2.077123
-2.077123
-2.077123
-2.077123
-2.077123
-2.077123
-2.077123
-2.456472
-2.061843
-2.077115
-2.077122
-2.077115
-2.077118
-2.077123
-2.077123
-2.077123
-2.077123
-2.077123
-2.077123
-2.077123
-2.077123
-2.077123
-2.077123
-2.077123
-2.077123
-2.419689
-2.062148
-2.077116
-2.077123
-2.077123
-2.07712
-2.077122
-2.077123
-2.077123
-2.077123
-2.077123
-2.077123
-2.077123
-2.077123
-2.077123
-2.077123
-2.077123
-2.077123
-2.394969
-2.062047
-2.077116
-2.077123
-2.077123
-2.077123
-2.077122
-2.077123
-2.077123
-2.077123
-2.077123
-2.077123
-2.077123
-2.077123
-2.077123
-2.077123
-2.077123
-2.077123
-2.376164
-2.061478
-2.077117
-2.077123
-2.077123
-2.077123
-2.077123
-2.077123
-2.077123
-2.077123
-2.077123
-2.077123
-2.077123
-2.077123
-2.077123
-2.077123
-2.077123
-2.077123
-2.358782
-2.061188
-2.077117
-2.077123
-2.077123
-2.077123
-2.077123
-2.077123
-2.077123
-2.077123
-2.077123
-2.077123
-2.077123
-2.077123
-2.077123
-2.077123
-2.077123
-2.077123
-2.346823
-2.061397
-2.077117
-2.077123
-2.077123
-2.077123
-2.077123
-2.077123
-2.077123
-2.077123
-2.077123
-2.077123
-2.077123
-2.077123
-2.077123
-2.077123
-2.077123
-2.077123
-2.338293
-2.061309
-2.077117
-2.077123
-2.077123
-2.077123
-2.077123
-2.077123
-2.077123
-2.077123
-2.077123
-2.077123
-2.077123
-2.077123
-2.077123
-2.077123
-2.077123
-2.077123
-2.328463
-2.061604
-2.077117
-2.077123
-2.077123
-2.077123
-2.077123
-2.077123
-2.077123
-2.077123
-2.077123
-2.077123
-2.077123
-2.077123
-2.077123
-2.077123
-2.077123
-2.077123
-2.32408
-2.06188
-2.077117
-2.077123
-2.077123
-2.077123
-2.077123
-2.077123
-2.077123
-2.077123
-2.077123
-2.077123
-2.077123
-2.077123
-2.077123
-2.077123
-2.077123
-2.077123
-2.322971
-2.0623
-2.077116
-2.077122
-2.07712
-2.077123
-2.077123
-2.077123
-2.077123
-2.077123
-2.077123
-2.077123
-2.077123
-2.077123
-2.077123
-2.077123
-2.077123
-2.077123
-2.32423
-2.062838
-2.077116
-2.077027
-2.077019
-2.077121
-2.077123
-2.077123
-2.077123
-2.077123
-2.077123
-2.077123
-2.077123
-2.077123
-2.077123
-2.077123
-2.077123
-2.077123
-2.326099
-2.06412
-2.077103
-2.078365
-2.076198
-2.077124
-2.077123
-2.077131
-2.077118
-2.077124
-2.077123
-2.077123
-2.077123
-2.077123
-2.077123
-2.077123
-2.077123
-2.077123
-2.335211
-2.06509
-2.07708
-2.070168
-2.073797
-2.077031
-2.077122
-2.077009
-2.077054
-2.077118
-2.077123
-2.077123
-2.077123
-2.077124
-2.077123
-2.077123
-2.077123
-2.077123
-2.354736
-2.068932
-2.077081
-2.07453
-2.078026
-2.077113
-2.07712
-2.077093
-2.0771
-2.077123
-2.077123
-2.077123
-2.077124
-2.077124
-2.077123
-2.077123
-2.077123
-2.077124
-2.376099
-2.061415
-2.077057
-2.075566
-2.06878
-2.076479
-2.077112
-2.077116
-2.077121
-2.077123
-2.077123
-2.077123
-2.077123
-2.077123
-2.077123
-2.077123
-2.077124
-2.077123
-2.340422
-2.073324
-2.076401
-2.045161
-2.076584
-2.062555
-2.077095
-2.077105
-2.07703
-2.077129
-2.077123
-2.077123
-2.077124
-2.077123
-2.077123
-2.077123
-2.077125
-2.077123
-2.371041
-2.068492
-2.073054
-2.075605
-2.061691
-2.072708
-2.076998
-2.076563
-2.077026
-2.07708
-2.077123
-2.077124
-2.077122
-2.077123
-2.077123
-2.077124
-2.077123
-2.077123
-2.407187
-2.005236
-2.06704
-2.077035
-2.076024
-2.076659
-2.0771
-2.077419
-2.077275
-2.077289
-2.077206
-2.077106
-2.077132
-2.077122
-2.077124
-2.077123
-2.07712
-2.077123
-1.928528
-2.166203
-2.043024
-2.051182
-2.070337
-2.073797
-2.076088
-2.078507
-2.079259
-2.078057
-2.078677
-2.078685
-2.077609
-2.077242
-2.077103
-2.07713
-2.077123
-2.077123
-1.599725
-1.99355
-1.99948
-2.036132
-2.065763
-2.07096
-2.075172
-2.077733
-2.080173
-2.078507
-2.080078
-2.081602
-2.08043
-2.080132
-2.078714
-2.077246
-2.077112
-2.077124
-1.344335
-1.97394
-1.9425
-2.052248
-2.066233
-2.069086
-2.074457
-2.073543
-2.08046
-2.079173
-2.081527
-2.084587
-2.082808
-2.083416
-2.084069
-2.080774
-2.078051
-2.077099
-0.8837542
-2.358068
-1.995487
-2.062457
-2.065628
-2.06805
-2.073853
-2.074431
-2.081078
-2.079999
-2.083216
-2.084285
-2.085337
-2.086494
-2.084533
-2.084966
-2.083652
-2.079989
-0.8235795
-2.170775
-1.978478
-2.059695
-2.064715
-2.073219
-2.073321
-2.074132
-2.081556
-2.08094
-2.085029
-2.083384
-2.088097
-2.09185
-2.088334
-2.088753
-2.087632
-2.085598
-0.6938404
-2.051013
-2.078077
-2.06791
-2.063933
-2.058927
-2.072833
-2.074045
-2.081837
-2.081965
-2.087395
-2.086943
-2.090909
-2.087266
-2.092421
-2.092816
-2.092088
-2.086824
-0.5956941
-1.919672
-1.998561
-2.063242
-2.063479
-2.066495
-2.072486
-2.074195
-2.081862
-2.083064
-2.088113
-2.08963
-2.094119
-2.093322
-2.096088
-2.097233
-2.091286
-2.096227
-0.4037855
-2.011518
-2.023403
-2.088447
-2.066587
-2.066265
-2.072504
-2.074585
-2.081075
-2.084532
-2.084872
-2.092001
-2.093487
-2.096964
-2.100146
-2.094847
-2.102695
-2.094719
-0.2521561
-1.267553
-2.208969
-2.013726
-2.052728
-2.067972
-2.072414
-2.075218
-2.080697
-2.086844
-2.087009
-2.094928
-2.093312
-2.100275
-2.097712
-2.106484
-2.098173
-2.103644
-0.4787124
-1.655287
-2.027846
-2.104789
-2.063363
-2.07067
-2.072356
-2.078577
-2.079998
-2.08671
-2.089418
-2.091218
-2.097797
-2.097991
-2.106374
-2.100383
-2.10942
-2.101348
-0.4135712
1.472825
-1.865933
-2.112125
-2.067254
-2.069495
-2.072895
-2.077124
-2.079391
-2.084623
-2.091716
-2.090487
-2.096379
-2.103522
-2.103902
-2.11027
-2.107559
-2.110955
-0.4119125
1.722708
-1.959848
-2.06491
-2.046637
-2.070663
-2.074187
-2.078444
-2.091869
-2.08287
-2.085992
-2.096097
-2.099275
-2.100722
-2.108309
-2.107409
-2.11026
-2.110229
-0.3971912
0.7917847
-1.744335
-2.0537
-2.157771
-2.122411
-2.090516
-2.090387
-2.095676
-2.100054
-2.104362
-2.106883
-2.11124
-2.113356
-0.4077912
1.582861
-2.059994
-2.114029
-2.091891
-2.101708
-2.106632
-2.112207
-2.110203
-2.112556
-0.419147
-2.078502
-2.096966
-2.102714
-2.105092
-2.108954
-2.116386
-2.117692
-2.107434
-2.101825
-2.107181
-2.111082
-2.115835
-2.118654
-2.087605
-2.103875
-2.11117
-2.113614
-2.116504
-2.124746
-2.105951
-2.113114
-2.11683
-2.119544
-2.066035
-2.103755
-2.10936
-2.114983
-2.118105
-2.102329
-2.104281
-2.110892
-2.116004
-2.119051
-2.11765
-2.102724
-2.112881
-2.116561
-2.119683
-2.100501
-2.107812
-2.116302
-2.116066
-2.115222
-2.077282
-2.101637
-2.11006
-2.11083
-2.117077
-2.119519
-0.4188957
-2.063583
-2.104371
-2.10399
-2.107983
-2.115232
-2.11689
-0.3796016
0.5255584
-2.085828
-2.090753
-2.107009
-2.105437
-2.115066
-2.113702
-2.11254
-0.3775444
-0.2235192
-2.133111
-2.149107
-2.149528
-2.07842
-2.113053
-2.086302
-2.109154
-2.109583
-2.114646
-2.116219
-0.3868595
0.4808758
-1.961402
-1.917136
-2.159244
-2.100082
-2.073537
-2.053617
-2.168412
-2.056395
-2.07361
-2.097547
-2.098553
-2.107853
-2.107486
-2.111454
-2.111752
-2.108861
-0.3945783
2.018416
-2.059862
-2.162343
-2.061427
-2.068342
-2.076349
-2.07916
-2.077592
-2.075987
-2.101358
-2.090388
-2.096276
-2.110583
-2.104352
-2.109598
-2.109087
-2.109376
-0.4013336
0.04177577
-1.886912
-2.125
-2.07975
-2.068919
-2.076862
-2.084463
-2.08204
-2.088824
-2.088817
-2.099666
-2.101498
-2.095174
-2.109862
-2.10673
-2.106856
-2.105021
-0.525749
-1.678964
-2.079315
-2.136098
-2.07054
-2.071574
-2.078469
-2.080756
-2.086514
-2.093405
-2.090076
-2.10197
-2.092671
-2.108797
-2.097923
-2.104634
-2.103244
-2.10064
-0.5261584
-1.650556
-2.141663
-2.033329
-2.08638
-2.073999
-2.079455
-2.081749
-2.088717
-2.093202
-2.096368
-2.092722
-2.101822
-2.093838
-2.101428
-2.101209
-2.09619
-2.096638
-0.4378949
-1.744266
-2.102599
-2.074257
-2.070399
-2.074925
-2.08019
-2.081698
-2.091185
-2.084144
-2.096772
-2.091182
-2.098354
-2.094665
-2.104251
-2.093013
-2.098647
-2.089453
-0.6723145
-1.980076
-2.061519
-2.07511
-2.070115
-2.076094
-2.080527
-2.081605
-2.090904
-2.083891
-2.089649
-2.090486
-2.090632
-2.093196
-2.087285
-2.09261
-2.085979
-2.086302
-0.9424488
-2.174465
-2.010545
-2.072046
-2.075162
-2.078425
-2.080635
-2.081275
-2.089799
-2.0834
-2.092326
-2.088673
-2.088835
-2.094868
-2.087387
-2.091333
-2.083181
-2.081085
-1.061524
-2.346452
-2.048926
-2.065263
-2.07367
-2.069473
-2.080156
-2.080742
-2.087843
-2.083763
-2.088173
-2.085744
-2.085621
-2.084016
-2.084406
-2.079074
-2.07912
-2.075657
-0.9936663
-2.475486
-1.875431
-2.073222
-2.073449
-2.074169
-2.079578
-2.079889
-2.085316
-2.081943
-2.08593
-2.085379
-2.082012
-2.081198
-2.08136
-2.077004
-2.075552
-2.076266
-1.366317
-2.06534
-2.009039
-2.073774
-2.07411
-2.074969
-2.07862
-2.082372
-2.082205
-2.080032
-2.078298
-2.078719
-2.078571
-2.077202
-2.075489