/*--------------------------------*- C++ -*----------------------------------*\
| =========                 |                                                 |
| \\      /  F ield         | OpenFOAM: The Open Source CFD Toolbox           |
|  \\    /   O peration     | Version:  2206                                  |
|   \\  /    A nd           | Website:  www.openfoam.com                      |
|    \\/     M anipulation  |                                                 |
\*---------------------------------------------------------------------------*/
FoamFile
{
    version     2.0;
    format      ascii;
    arch        "LSB;label=32;scalar=64";
    class       volVectorField;
    location    "1.2";
    object      ddt0(U.b);
}
// * * * * * * * * * * * * * * * * * * * * * * * * * * * * * * * * * * * * * //

dimensions      [0 1 -2 0 0 0 0];

internalField   nonuniform List<vector> 
13078
(
(-2.684938e-05 -7.305087e-05 2.961814e-26)
(-2.507806e-05 -0.0001373432 -9.408701e-29)
(-1.541858e-05 -0.0001071105 -4.104615e-26)
(-1.966829e-05 -0.0001330434 0)
(-2.050088e-05 -0.0002363094 -3.642754e-26)
(-1.958553e-05 -0.0003358388 -4.725488e-26)
(-1.807996e-05 -0.0004195529 -5.682741e-26)
(-7.02276e-06 -7.449383e-05 0)
(4.911065e-05 -6.310027e-05 -3.347272e-28)
(7.578639e-05 -0.0001122023 0)
(5.174776e-05 -0.0001520099 0)
(3.700498e-05 -0.0002405925 -3.390513e-28)
(3.530706e-05 -0.0003332784 -1.611695e-28)
(4.071745e-05 -0.0004141315 -3.163662e-28)
(0.0001442276 3.853383e-05 3.499595e-26)
(0.0001154704 2.312271e-05 -3.667235e-26)
(0.0001212294 -8.026565e-05 1.828291e-26)
(0.0001000051 -0.0001528988 5.533447e-26)
(8.674844e-05 -0.0002402232 3.813845e-26)
(8.899985e-05 -0.0003262527 0)
(9.985184e-05 -0.0004035375 -3.237288e-31)
(0.0003110026 1.142988e-05 6.543e-26)
(0.0002106753 -6.172267e-06 -1.139241e-25)
(0.0001711668 -7.436037e-05 -1.077029e-25)
(0.0001437169 -0.0001482769 -5.031725e-26)
(0.0001369076 -0.000232733 1.655277e-27)
(0.0001447059 -0.0003134854 0)
(0.0001608049 -0.0003877936 8.14848e-28)
(0.0003059495 -6.951052e-06 -1.135938e-28)
(0.0002519639 -3.09337e-05 -7.395867e-26)
(0.0002146781 -7.881499e-05 -1.414968e-25)
(0.0001940887 -0.0001469516 -1.395977e-25)
(0.0001906248 -0.0002215644 2.314431e-26)
(0.0002031499 -0.0002971635 -3.613009e-30)
(0.0002237195 -0.0003682154 5.425829e-26)
(0.0003028061 -9.312745e-06 0)
(0.0002788421 -3.738928e-05 7.536819e-28)
(0.0002558227 -8.346803e-05 -1.29447e-27)
(0.000244621 -0.0001443193 -8.44171e-26)
(0.0002477913 -0.0002112888 4.946817e-27)
(0.0002627768 -0.0002769743 -4.726e-26)
(0.0002875717 -0.0003450817 -1.153723e-25)
(0.0003214791 -1.184192e-05 0)
(0.0003065307 -4.262696e-05 -1.048566e-25)
(0.0002946267 -8.542518e-05 -1.236104e-25)
(0.0002939448 -0.0001379929 -2.962628e-26)
(0.0003036301 -0.0001967697 -9.501401e-26)
(0.0003234189 -0.0002559662 6.046129e-27)
(0.0003506113 -0.0003167475 0)
(0.0003426437 -1.309331e-05 2.454156e-25)
(0.0003343353 -4.38261e-05 -1.21583e-25)
(0.0003319897 -8.162157e-05 -1.20189e-25)
(0.000339383 -0.0001267287 0)
(0.0003561491 -0.0001772658 -2.347136e-25)
(0.0003819378 -0.0002294305 6.082267e-27)
(0.0004119009 -0.0002866797 7.201454e-27)
(0.0003647545 -1.242141e-05 2.455903e-29)
(0.0003609815 -4.018157e-05 2.77461e-25)
(0.00036562 -7.195883e-05 1.403755e-25)
(0.0003801327 -0.0001091375 3.866367e-27)
(0.0004033094 -0.0001510942 -5.356961e-25)
(0.0004354042 -0.0001977205 6.129639e-27)
(0.000469901 -0.0002504468 0)
(0.0003847683 -9.917302e-06 -3.142966e-25)
(0.0003839519 -3.1789e-05 3.126759e-25)
(0.0003937758 -5.616248e-05 1.554482e-25)
(0.0004144388 -8.495578e-05 -3.072699e-25)
(0.0004446816 -0.0001182237 -1.410753e-28)
(0.0004811355 -0.0001587239 0)
(0.0005235687 -0.0002067956 0)
(0.0003991637 -5.753795e-06 0)
(0.0004003559 -1.916121e-05 0)
(0.0004143322 -3.450038e-05 3.46815e-25)
(0.0004415222 -5.30216e-05 -3.437435e-25)
(0.0004771979 -7.892115e-05 1.487403e-28)
(0.0005200231 -0.000112888 0)
(0.0005711656 -0.0001537619 0)
(0.0004046114 -1.923923e-07 0)
(0.0004074004 -2.726228e-06 -3.845401e-25)
(0.000425788 -6.428966e-06 3.83377e-25)
(0.0004579058 -1.529336e-05 3.76208e-25)
(0.0004995357 -3.250192e-05 -3.847533e-25)
(0.000551654 -5.703002e-05 0)
(0.0006121535 -9.084686e-05 3.914739e-25)
(0.00039806 6.73398e-06 0)
(0.0004027301 1.802931e-05 -4.227847e-25)
(0.0004246258 2.613242e-05 -2.802774e-27)
(0.0004618514 2.882786e-05 4.170493e-25)
(0.0005122818 2.357636e-05 -4.167012e-25)
(0.0005738302 8.963231e-06 4.156156e-25)
(0.0006451905 -1.657013e-05 2.102349e-28)
(0.0003768062 1.534921e-05 -4.585604e-25)
(0.0003830965 4.179006e-05 0)
(0.0004084214 6.397474e-05 -2.802044e-27)
(0.0004530872 8.139305e-05 -3.968219e-27)
(0.0005127922 8.928854e-05 -9.089224e-25)
(0.0005849558 8.619687e-05 4.537983e-25)
(0.0006687366 7.056664e-05 -4.53071e-25)
(0.000338512 2.497094e-05 -4.952091e-25)
(0.0003452895 6.932291e-05 0)
(0.0003759524 0.0001083991 -5.574879e-27)
(0.0004280569 0.0001431727 5.43172e-25)
(0.0004985548 0.0001653385 -4.158399e-25)
(0.000583131 0.0001759864 0)
(0.0006810529 0.0001721057 4.918892e-25)
(0.0002798339 3.509806e-05 0)
(0.0002873803 0.0001005072 -5.30961e-25)
(0.0003240446 0.000160205 0)
(0.0003845138 0.0002136923 5.389432e-25)
(0.0004672093 0.00025449 1.027e-26)
(0.0005664134 0.0002803332 1.283037e-26)
(0.0006803181 0.0002898341 5.472067e-25)
(0.0001965897 4.649192e-05 0)
(0.0002066337 0.0001363352 -1.135019e-24)
(0.0002498704 0.0002203463 -2.766936e-27)
(0.0003204003 0.0002956788 -3.930603e-27)
(0.0004171226 0.0003567825 0)
(0.0005327553 0.0004006382 0)
(0.0006646518 0.0004256734 0)
(8.533404e-05 6.015069e-05 -6.033609e-25)
(9.900301e-05 0.0001780864 -6.045272e-25)
(0.0001498301 0.0002896286 -5.468861e-27)
(0.0002321867 0.0003903543 -3.885737e-27)
(0.0003449876 0.0004747864 0)
(0.0004794492 0.0005394256 -6.230413e-25)
(0.0006320302 0.0005820985 -3.085694e-26)
(-5.780858e-05 7.622036e-05 -6.384288e-25)
(-4.009213e-05 0.0002266012 -6.399292e-25)
(1.979683e-05 0.000369628 -8.013082e-27)
(0.0001160121 0.0004996466 -7.624345e-27)
(0.0002472513 0.0006110892 0)
(0.0004036044 0.0006992061 -6.511674e-25)
(0.0005801245 0.0007621026 -1.533726e-26)
(-0.0002379616 9.496797e-05 -6.725276e-25)
(-0.0002155242 0.0002828982 -1.347497e-24)
(-0.0001449866 0.0004622232 -6.76843e-25)
(-3.275096e-05 0.0006264076 0)
(0.0001187319 0.0007710193 6.797175e-26)
(0.0002998293 0.0008818013 1.129547e-25)
(0.0005060536 0.0009691709 3.010779e-26)
(-0.0004610864 0.0001167524 -7.051708e-25)
(-0.0004330162 0.0003481382 -1.413011e-24)
(-0.0003499199 0.0005692724 -1.420243e-24)
(-0.0002190183 0.0007721396 -7.104665e-25)
(-4.624412e-05 0.0009502502 9.379247e-27)
(0.0001667542 0.001096901 -7.287659e-25)
(0.0004072892 0.001209044 7.260412e-25)
(-0.0007341035 0.0001420485 0)
(-0.0006992703 0.000423839 -7.367138e-25)
(-0.0006014311 0.0006934902 -7.418757e-25)
(-0.0004484608 0.0009417989 -1.504989e-24)
(-0.0002481273 0.001160776 0)
(5.614161e-07 0.001343892 -7.699595e-25)
(0.0002806199 0.001486028 3.462546e-28)
(-0.001065085 0.0001713924 7.623143e-25)
(-0.001022133 0.0005116124 0)
(-0.0009071221 0.0008374619 0)
(-0.0007285076 0.001138323 5.777193e-27)
(-0.0004952499 0.001404861 8.06809e-25)
(-0.0002054063 0.001630022 0)
(0.0001207392 0.001806484 -8.305882e-25)
(-0.001463413 0.0002054198 1.571632e-24)
(-0.001410749 0.0006133329 0)
(-0.001275764 0.001004305 0)
(-0.001067506 0.00136633 8.11093e-25)
(-0.0007964618 0.001689487 1.659795e-24)
(-0.0004623398 0.001969996 -8.527334e-25)
(-8.331476e-05 0.002175781 0)
(-0.001939867 0.0002448105 8.044028e-25)
(-0.001875642 0.0007310277 7.542828e-28)
(-0.001717497 0.001197296 8.263512e-25)
(-0.001474925 0.001629847 4.141989e-27)
(-0.001160378 0.002016329 6.19589e-27)
(-0.0007803983 0.002348929 -8.910765e-25)
(-0.0003325431 0.002615089 0)
(-0.002506796 0.0002903065 0)
(-0.002428919 0.0008669593 -8.260691e-25)
(-0.002244066 0.001420341 8.430757e-25)
(-0.001962033 0.001935067 0)
(-0.001596784 0.002397451 -8.855973e-25)
(-0.001157478 0.002797284 2.565593e-26)
(-0.0006336943 0.003122577 1.82443e-26)
(-0.003178236 0.0003426813 -8.210892e-25)
(-0.00308447 0.001023522 -8.333123e-25)
(-0.002868983 0.001677414 8.542354e-25)
(-0.002541984 0.002287072 0)
(-0.002119017 0.002837146 -4.782003e-27)
(-0.001610122 0.003315655 -1.265437e-28)
(-0.001000914 0.003710619 1.340965e-26)
(-0.003969804 0.000402779 -8.160178e-25)
(-0.003858365 0.001202899 -8.312474e-25)
(-0.003607566 0.001972822 8.572529e-25)
(-0.003229441 0.002692138 0)
(-0.002740699 0.003344051 0)
(-0.002153368 0.003917134 -9.858187e-25)
(-0.001457041 0.004409388 1.036868e-24)
(-0.00489939 0.000470803 -7.985811e-25)
(-0.004768658 0.001407785 -8.172319e-25)
(-0.004477266 0.002311292 0)
(-0.004041271 0.00315696 8.991379e-25)
(-0.003476892 0.003925844 6.104382e-27)
(-0.002797667 0.004600556 -2.018807e-24)
(-0.002003902 0.005164876 -4.31222e-27)
(-0.005984069 0.0005505533 -7.678053e-25)
(-0.005840178 0.001633998 0)
(-0.005499586 0.002695558 -8.24693e-25)
(-0.004998233 0.003689446 8.874693e-25)
(-0.004348697 0.004597784 -9.452444e-25)
(-0.003563008 0.005403787 -2.040236e-24)
(-0.002641911 0.006091458 -1.104492e-24)
(-0.007257456 0.000631815 0)
(-0.007080273 0.001898127 0)
(-0.006697416 0.00313087 -1.588625e-24)
(-0.00612455 0.004295307 0)
(-0.005382435 0.005366382 -1.864555e-24)
(-0.004482227 0.006327538 -1.022382e-24)
(-0.003426176 0.007165551 1.124839e-24)
(-0.008728124 0.0007296315 -6.492146e-25)
(-0.008516653 0.002199449 6.922062e-25)
(-0.008107066 0.003599337 7.429014e-25)
(-0.007453547 0.004969257 0)
(-0.006606249 0.006235274 -9.029975e-25)
(-0.00558237 0.007376583 0)
(-0.004376144 0.008374829 1.20791e-24)
(-0.01042081 0.0008333036 -5.608278e-25)
(-0.01020197 0.002503623 5.989629e-25)
(-0.0097211 0.004158453 1.991161e-24)
(-0.009034048 0.005695865 1.468632e-24)
(-0.008057317 0.007203599 -9.003125e-25)
(-0.006899764 0.008565897 -5.127466e-26)
(-0.005523383 0.009773353 5.460455e-26)
(-0.01235057 0.0009451252 -1.856456e-27)
(-0.01211575 0.002835979 -5.470944e-27)
(-0.01162125 0.004698733 5.197427e-25)
(-0.01083786 0.006521836 1.377687e-24)
(-0.009775354 0.008269616 -6.593892e-25)
(-0.00848194 0.009895171 -1.375822e-25)
(-0.006928246 0.0113614 -2.998588e-25)
(-0.01453088 0.001061134 2.261876e-27)
(-0.01428025 0.003188697 6.717842e-27)
(-0.01377125 0.005300724 4.673427e-25)
(-0.01292317 0.007420941 1.102665e-24)
(-0.01184289 0.009364131 7.7908e-25)
(-0.01040088 0.01132989 1.022752e-24)
(-0.008654519 0.01312981 0)
(-0.01696175 0.001173443 0)
(-0.01670312 0.003530553 0)
(-0.01620057 0.005880003 2.57754e-25)
(-0.0153925 0.00824057 2.21859e-25)
(-0.0142117 0.01063104 -4.375357e-25)
(-0.0127726 0.01281192 -1.993249e-25)
(-0.01078955 0.01505744 0)
(-0.01962584 0.001274785 6.14353e-27)
(-0.01937132 0.003843298 -1.847728e-26)
(-0.01889649 0.006425205 -6.154013e-26)
(-0.01813931 0.009037854 0)
(-0.01703936 0.01169478 6.473104e-25)
(-0.01550394 0.01439855 2.689391e-25)
(-0.01344287 0.0170971 6.273045e-25)
(-0.02248479 0.001354272 2.952413e-25)
(-0.0222548 0.004094973 -2.072586e-26)
(-0.02184371 0.006882036 1.661689e-25)
(-0.02118138 0.009754741 0)
(-0.02020724 0.01276321 -1.701353e-25)
(-0.01870494 0.01600351 2.543322e-24)
(-0.01684769 0.01907097 3.794349e-24)
(-0.02547281 0.001400043 5.440883e-25)
(-0.02530142 0.004245038 4.720255e-25)
(-0.02499275 0.00718418 4.246304e-25)
(-0.02449332 0.01025959 2.148926e-25)
(-0.02375062 0.01353577 5.648722e-25)
(-0.02258859 0.01709149 1.05701e-24)
(-0.02076475 0.02102519 1.745405e-24)
(-0.02850671 0.001412889 0)
(-0.02843458 0.004244322 -7.060515e-25)
(-0.02827413 0.007265941 -6.983171e-25)
(-0.02799634 0.01048317 -1.14019e-25)
(-0.02758879 0.01399615 8.184984e-25)
(-0.02686616 0.01800404 3.878156e-25)
(-0.02528689 0.02282524 0)
(-0.03152789 0.00135452 -1.087553e-24)
(-0.03150468 0.004166176 -1.885454e-24)
(-0.03158757 0.007050475 -6.823587e-25)
(-0.031584 0.01029601 -1.851414e-24)
(-0.03157449 0.01391071 1.171503e-24)
(-0.03144903 0.01822332 -3.486983e-25)
(-0.03060075 0.02376244 2.387274e-22)
(-0.03439698 0.001263488 -1.347408e-24)
(-0.03450328 0.003874132 2.297549e-26)
(-0.03469204 0.006684326 0)
(-0.035069 0.009653153 -7.779908e-26)
(-0.0354224 0.0133178 -2.352818e-24)
(-0.03578503 0.01819292 -2.983422e-22)
(-0.03498973 0.02548477 3.81782e-23)
(-0.03704296 0.001137416 1.612056e-24)
(-0.03725483 0.003488641 -4.274573e-26)
(-0.03764194 0.006033698 -7.402517e-26)
(-0.03808643 0.009020198 3.751441e-24)
(-0.03879356 0.01281585 6.354738e-23)
(-0.03883277 0.01934667 -2.156012e-22)
(-0.03652992 0.02957256 2.743182e-23)
(-0.03941365 0.0009802909 1.861051e-24)
(-0.0397232 0.003058711 0)
(-0.04029728 0.005510303 -1.429192e-25)
(-0.04100337 0.008856478 8.118147e-23)
(-0.04099949 0.01442131 1.095834e-21)
(-0.03917092 0.02353218 6.014912e-22)
(-0.03427205 0.03724283 2.856296e-22)
(-0.04147997 0.0008334019 0)
(-0.04199299 0.002684049 -7.687231e-26)
(-0.04286806 0.005437878 8.635686e-23)
(-0.04361484 0.01050752 2.794836e-24)
(-0.04187749 0.0191093 5.145964e-22)
(-0.03694141 0.03164006 -1.532502e-22)
(-0.02867714 0.04675899 3.572152e-22)
(-0.04315914 0.0007047139 0)
(-0.04412628 0.002577959 -3.944264e-22)
(-0.0453051 0.006357632 -6.193762e-23)
(-0.04502092 0.01417509 7.318779e-22)
(-0.04099832 0.02677423 -6.012376e-22)
(-0.03307022 0.04263564 -1.437764e-22)
(-0.0219548 0.06145655 4.931176e-22)
(-0.04438646 0.0005054504 2.520962e-24)
(-0.04601604 0.002806369 -3.478715e-22)
(-0.04680471 0.008699157 1.435518e-22)
(-0.0443415 0.02039353 6.660709e-22)
(-0.03844964 0.03680835 1.721984e-21)
(-0.02831418 0.05604963 2.643649e-22)
(-0.01458695 0.07739914 -4.038683e-23)
(-0.04510033 0.0004009035 4.922707e-23)
(-0.047002 0.003756447 -1.131067e-22)
(-0.04647291 0.01276707 2.716357e-22)
(-0.04234276 0.02802663 -6.210854e-22)
(-0.03465953 0.04903009 1.646383e-21)
(-0.0231935 0.07191766 4.723949e-22)
(-0.007927172 0.09670237 5.159109e-22)
(-0.04505819 0.0006466338 -3.968207e-22)
(-0.04636852 0.005745426 -5.128946e-23)
(-0.04460132 0.01804362 -6.84616e-22)
(-0.03957299 0.03702123 -3.851371e-22)
(-0.03079938 0.06133175 -5.778715e-22)
(-0.01844887 0.08744915 1.220603e-22)
(-0.002182559 0.117216 -3.240337e-24)
(-0.04381333 0.001313715 -2.917429e-22)
(-0.04397081 0.008650186 1.46567e-22)
(-0.0414337 0.02403664 -3.348265e-22)
(-0.03608719 0.04627275 3.564266e-22)
(-0.02743182 0.07427549 -8.675807e-23)
(-0.01488279 0.1052727 -8.869664e-23)
(0.00233804 0.1388783 -6.317157e-22)
(-0.04090688 0.002486268 9.217178e-23)
(-0.04009107 0.01264369 -9.628831e-24)
(-0.03736567 0.03013323 2.15778e-22)
(-0.03205955 0.05537003 3.433699e-22)
(-0.0239488 0.08746022 -1.379242e-22)
(-0.01314769 0.1231776 -3.785148e-22)
(0.001368494 0.1614042 -2.950127e-22)
(-0.03586178 0.003956879 -1.509857e-22)
(-0.03500465 0.01663375 -1.044215e-23)
(-0.03268507 0.03696863 -5.015498e-23)
(-0.0280443 0.06453227 -2.081933e-23)
(-0.02234736 0.09880125 -4.377049e-22)
(-0.01637207 0.1380166 7.867936e-22)
(-0.008450078 0.1822437 2.098441e-21)
(-0.02879241 0.00521546 -4.450802e-23)
(-0.02846636 0.01996931 9.369368e-23)
(-0.0267528 0.04148983 -6.697639e-23)
(-0.02426963 0.06965035 1.648652e-22)
(-0.02335577 0.1028582 -1.519906e-23)
(-0.0248257 0.1422018 1.252573e-22)
(-0.02689797 0.1902625 -3.685041e-22)
(-0.02036194 0.006321195 1.594162e-22)
(-0.02037861 0.02237589 1.203559e-22)
(-0.01942402 0.04407852 -4.700757e-23)
(-0.01894528 0.0700342 4.889396e-23)
(-0.02173335 0.09921903 9.36863e-23)
(-0.02754398 0.1348957 1.789945e-22)
(-0.03362589 0.1787433 8.36112e-23)
(-0.01125953 0.00725622 6.652874e-23)
(-0.01122813 0.02408001 2.472682e-23)
(-0.01050793 0.04548354 -3.41477e-23)
(-0.01033829 0.06895721 -1.757704e-23)
(-0.01250534 0.09500653 6.645496e-23)
(-0.01558811 0.1289061 6.642988e-23)
(-0.0170277 0.178199 -8.996755e-23)
(-0.001556624 0.007936538 2.780121e-24)
(-0.00130053 0.02536772 -8.722256e-26)
(-0.0006027332 0.04679999 -2.863078e-23)
(0.0003303252 0.06958556 4.830514e-23)
(0.001106806 0.0952563 1.402073e-22)
(0.002030037 0.1302297 -1.222656e-22)
(0.00447997 0.1793932 -3.779504e-22)
(0.008594698 0.008058609 -2.653862e-24)
(0.008840691 0.02580833 5.16217e-24)
(0.009211591 0.04798823 3.516329e-23)
(0.0105609 0.07193586 4.919054e-23)
(0.0138285 0.09817027 1.86754e-22)
(0.01786922 0.1340571 1.121911e-22)
(0.0208113 0.1841777 -1.950883e-25)
(0.01764702 0.007616978 1.679588e-24)
(0.01819331 0.02507986 -1.750084e-23)
(0.01805021 0.04801225 1.078311e-22)
(0.0188644 0.07419099 2.929625e-23)
(0.02274752 0.1027472 -1.021768e-22)
(0.02822381 0.1382207 -3.416997e-23)
(0.03357772 0.1813152 2.315327e-22)
(0.02571586 0.006748229 -7.849415e-23)
(0.02633432 0.02349866 3.767389e-23)
(0.02553806 0.04669896 1.713561e-22)
(0.0248641 0.07514959 3.539693e-24)
(0.02654629 0.105843 -1.432633e-22)
(0.03104822 0.1435131 3.446715e-23)
(0.03631418 0.1889939 2.274807e-22)
(0.0330771 0.005603485 -1.150518e-22)
(0.03343068 0.02088706 5.212705e-23)
(0.03181805 0.04344028 8.664517e-23)
(0.02894434 0.07268793 -1.170112e-23)
(0.02663198 0.1063427 -2.045826e-22)
(0.02685696 0.1450358 9.255848e-24)
(0.02642137 0.192724 6.76704e-22)
(0.03921904 0.004366875 1.477157e-22)
(0.03910967 0.01749372 7.601904e-24)
(0.03719734 0.0385969 3.88451e-22)
(0.03261844 0.06675427 1.887513e-22)
(0.02687831 0.1010819 -6.010165e-23)
(0.02090744 0.1394057 7.653035e-22)
(0.01409349 0.1816042 1.735546e-21)
(0.04341958 0.002912116 -8.416544e-23)
(0.04323838 0.01366596 -7.401092e-23)
(0.04105536 0.03184743 1.175925e-23)
(0.03610281 0.05766857 4.046854e-22)
(0.02868931 0.08998121 3.756277e-22)
(0.01915286 0.1262819 -2.334615e-22)
(0.007414605 0.1655563 7.26208e-22)
(0.04553558 0.00165944 -2.671236e-22)
(0.04605804 0.009667284 -7.351167e-22)
(0.04384729 0.0258886 -8.932758e-23)
(0.03880838 0.0491007 1.9172e-22)
(0.03106802 0.07828489 5.741411e-22)
(0.01986909 0.1112015 -2.344213e-22)
(0.00516912 0.147641 4.072856e-22)
(0.04610814 0.0008828603 -1.962847e-22)
(0.04749091 0.006593844 -5.376256e-22)
(0.04583913 0.01966467 2.334942e-22)
(0.04105286 0.04001155 -6.390428e-22)
(0.03270012 0.06607179 1.212539e-22)
(0.02075253 0.09528184 4.128542e-22)
(0.004405762 0.1276552 -5.621041e-22)
(0.04558509 0.000629079 -1.935994e-22)
(0.04741193 0.00449671 5.408963e-22)
(0.04674084 0.01428641 -4.372241e-22)
(0.0426087 0.03080851 -8.532444e-22)
(0.0346608 0.05349488 1.115214e-21)
(0.02269649 0.07851051 -6.124767e-22)
(0.005472828 0.105228 -1.78462e-21)
(0.04435132 0.0008299637 2.515545e-24)
(0.0457641 0.003518705 8.796943e-22)
(0.04620611 0.0098881 -4.534545e-22)
(0.04324711 0.02257652 -1.459482e-21)
(0.0366455 0.04012953 7.99971e-22)
(0.02561262 0.06107245 -3.406888e-22)
(0.01014415 0.08417806 -1.969238e-22)
(0.04255319 0.0009709616 0)
(0.04324949 0.003300605 4.200651e-22)
(0.04408754 0.007389696 -5.34817e-22)
(0.0430642 0.01563415 -7.747748e-22)
(0.03805773 0.02906905 -2.365601e-22)
(0.02898421 0.04587947 -2.120326e-22)
(0.01612622 0.06590858 1.312199e-22)
(0.04032478 0.001060639 0)
(0.04067546 0.003353364 9.528905e-26)
(0.04121263 0.00640014 -2.56713e-22)
(0.04128522 0.01157469 1.964912e-22)
(0.03844966 0.02036927 -8.567644e-23)
(0.0320817 0.03318426 6.654824e-22)
(0.02209705 0.04892606 -4.421308e-23)
(0.03782369 0.001154203 1.666743e-24)
(0.03799708 0.003570734 0)
(0.03827302 0.006264808 0)
(0.03850103 0.009659287 1.22184e-22)
(0.03761851 0.01504028 1.115196e-22)
(0.03435301 0.02377672 8.453985e-22)
(0.02773196 0.03639682 9.332876e-23)
(0.03514112 0.00124217 1.382538e-24)
(0.03522426 0.003787255 4.722894e-26)
(0.0353661 0.006469234 8.083435e-26)
(0.03547187 0.009438437 8.904382e-25)
(0.03556813 0.01295387 -1.331766e-24)
(0.0346443 0.01868374 -9.65719e-24)
(0.03102691 0.02760688 8.07622e-22)
(0.03233213 0.001300176 0)
(0.03233901 0.00396003 -1.069485e-24)
(0.03234292 0.006745714 0)
(0.03240493 0.009596175 2.241831e-25)
(0.03239975 0.01289172 2.991863e-25)
(0.03223551 0.01699475 1.281804e-22)
(0.03094104 0.02288609 4.162449e-22)
(0.02943607 0.001333203 0)
(0.02935874 0.004069161 7.771667e-25)
(0.02929485 0.006825777 -7.323182e-25)
(0.02911455 0.009814331 0)
(0.02887903 0.01304519 5.782849e-25)
(0.02861333 0.01662592 1.030519e-24)
(0.02777776 0.0211116 2.012575e-22)
(0.02649931 0.001345454 0)
(0.0263952 0.004034082 1.566478e-24)
(0.02617554 0.006840731 3.092844e-27)
(0.02581312 0.009781982 1.142409e-24)
(0.02537091 0.01285412 5.494073e-25)
(0.02467736 0.01632471 -1.124032e-25)
(0.02341796 0.02036308 3.450009e-24)
(0.02361274 0.001309945 -3.28407e-25)
(0.02344998 0.003958195 3.155902e-25)
(0.02313778 0.006662023 -1.334438e-27)
(0.02264963 0.009456512 9.887335e-26)
(0.02195222 0.01238964 0)
(0.02096645 0.01553234 0)
(0.01953653 0.01899753 -1.773383e-24)
(0.02081445 0.001254401 -9.345316e-26)
(0.02061498 0.003789717 6.569361e-26)
(0.02023101 0.006361502 2.831211e-26)
(0.01964641 0.008958707 1.275916e-25)
(0.01877177 0.01170089 0)
(0.01751358 0.01462531 0)
(0.01602962 0.01744349 -1.460868e-25)
(0.01815632 0.001177594 -1.060258e-25)
(0.01793733 0.003555748 -9.193377e-26)
(0.01752106 0.005922973 5.490055e-26)
(0.01684352 0.008340883 4.113593e-25)
(0.01585304 0.0108212 -5.994814e-25)
(0.01458572 0.01325028 -2.071644e-24)
(0.01287256 0.01580787 1.160951e-24)
(0.0156864 0.001083171 -2.817005e-25)
(0.01546993 0.003262595 1.415988e-26)
(0.01502404 0.00543805 -4.692073e-26)
(0.01430938 0.007618806 -6.4823e-26)
(0.01328776 0.009816839 0)
(0.01200773 0.01192967 -6.484885e-25)
(0.01033822 0.01405904 1.01101e-24)
(0.01343008 0.0009852919 0)
(0.01322304 0.002953257 2.373496e-26)
(0.01277011 0.004920942 3.889125e-26)
(0.01202027 0.006898007 8.672254e-25)
(0.01108055 0.008728488 -5.562746e-25)
(0.009796952 0.01059972 2.004649e-24)
(0.008266234 0.01234298 1.276146e-24)
(0.01140521 0.0008790237 3.259852e-27)
(0.01120505 0.002639971 9.53596e-27)
(0.01076538 0.004380054 0)
(0.01006968 0.00609019 1.52071e-27)
(0.009124404 0.007744044 8.677325e-25)
(0.007966655 0.009301837 9.995972e-25)
(0.006571447 0.01073523 1.301384e-25)
(0.00960636 0.0007783373 6.683899e-25)
(0.009416789 0.002339795 -6.827121e-25)
(0.008986088 0.003891728 1.654826e-24)
(0.008371668 0.005342023 -1.508403e-24)
(0.007490347 0.0067746 9.71082e-25)
(0.006442164 0.008085372 0)
(0.005186894 0.009268681 -9.218399e-26)
(0.008022595 0.0006839348 7.427089e-25)
(0.007836576 0.002063018 -7.81163e-25)
(0.007468595 0.003381037 8.268576e-25)
(0.006876403 0.004676948 0)
(0.006104943 0.00588398 -9.720254e-25)
(0.005168141 0.006984375 0)
(0.00405618 0.00796216 1.181235e-24)
(0.006641901 0.0005939917 0)
(0.006485702 0.00178574 0)
(0.006138174 0.002949647 -1.738904e-24)
(0.005614684 0.004054463 0)
(0.004933483 0.005077693 -1.988388e-24)
(0.004102983 0.006004907 -1.075789e-24)
(0.003122006 0.006824085 1.168684e-24)
(0.005442952 0.0005189708 -8.407022e-25)
(0.005315964 0.001541429 0)
(0.005004399 0.002546008 -9.005482e-25)
(0.004542948 0.003490719 9.38875e-25)
(0.003942627 0.004359348 -1.00127e-24)
(0.003213176 0.005136636 -2.138071e-24)
(0.002353242 0.005807123 -1.145312e-24)
(0.004419376 0.0004446561 -8.643899e-25)
(0.004302858 0.001330605 -8.820883e-25)
(0.004034746 0.00218726 0)
(0.003631006 0.002992121 9.449334e-25)
(0.00310641 0.003727896 -2.8438e-27)
(0.002472703 0.004378552 -2.104066e-24)
(0.001729119 0.004928724 -7.866331e-27)
(0.003540655 0.0003810134 -8.747139e-25)
(0.003440764 0.001138596 -8.883206e-25)
(0.003208663 0.001869384 9.119732e-25)
(0.002856597 0.002554509 0)
(0.002399944 0.003178548 0)
(0.001849399 0.003731132 -1.028102e-24)
(0.001194549 0.004210689 1.109357e-24)
(0.002791468 0.0003244349 -8.743458e-25)
(0.00270701 0.0009695288 -8.852808e-25)
(0.00250657 0.001590455 9.042312e-25)
(0.002200572 0.002171169 0)
(0.001803392 0.002697437 7.059392e-27)
(0.001324083 0.003158209 1.319539e-28)
(0.0007487746 0.003542727 -1.61968e-26)
(0.002155662 0.0002748709 0)
(0.002085261 0.0008212198 -8.737007e-25)
(0.001912497 0.001346524 8.891436e-25)
(0.001647342 0.001836441 0)
(0.001302772 0.002278195 -9.461403e-25)
(0.0008871568 0.002662377 -3.003438e-26)
(0.0003900077 0.002978259 -2.059436e-26)
(0.001618981 0.0002316192 8.492611e-25)
(0.001560764 0.000691869 -9.069355e-28)
(0.001412316 0.001133934 8.660496e-25)
(0.001183275 0.001544925 -4.814092e-27)
(0.0008852711 0.001913228 -6.587319e-27)
(0.0005242722 0.002231573 -9.272946e-25)
(9.681264e-05 0.002488571 0)
(0.001168485 0.0001940211 1.654779e-24)
(0.001120659 0.0005794219 0)
(0.0009934644 0.0009492551 0)
(0.0007960534 0.001292235 8.604476e-25)
(0.0005383037 0.001598983 1.748342e-24)
(0.0002198316 0.001865951 -8.873702e-25)
(-0.0001437686 0.002062626 0)
(0.0007926948 0.0001614314 8.010641e-25)
(0.0007536574 0.0004819031 -1.297529e-27)
(0.000644948 0.0007890443 -2.247943e-27)
(0.0004750982 0.001072814 -6.68191e-27)
(0.0002526159 0.001324264 8.246951e-25)
(-2.446418e-05 0.001536639 0)
(-0.0003382195 0.001703134 -8.622366e-25)
(0.000481492 0.0001332588 -2.30985e-28)
(0.0004498744 0.0003975407 -7.760162e-25)
(0.0003572045 0.0006504404 -7.817464e-25)
(0.0002114212 0.0008832328 -1.573445e-24)
(1.998878e-05 0.001088195 0)
(-0.000218249 0.001258983 -8.016276e-25)
(-0.000488191 0.001390678 3.630219e-28)
(0.0002260221 0.0001089578 -7.388365e-25)
(0.0002006567 0.0003246882 -1.481925e-24)
(0.0001218475 0.0005306661 -1.491627e-24)
(-3.032848e-06 0.000719349 -7.573393e-25)
(-0.0001682345 0.0008843421 -9.878804e-27)
(-0.0003725452 0.001019077 -7.591136e-25)
(-0.0006043798 0.001120502 7.859459e-25)
(1.857626e-05 8.806152e-05 -7.047371e-25)
(-1.495182e-06 0.0002618784 -1.411201e-24)
(-6.842616e-05 0.0004273605 -7.082224e-25)
(-0.000175477 0.0005785299 0)
(-0.0003201347 0.0007107432 -7.116882e-26)
(-0.0004939793 0.0008103799 -1.179162e-25)
(-0.0006922924 0.0008869538 -3.134256e-26)
(-0.0001475373 7.016838e-05 -6.694345e-25)
(-0.0001630072 0.0002077765 -6.684838e-25)
(-0.0002198303 0.0003380078 8.372588e-27)
(-0.0003114925 0.0004560704 7.955029e-27)
(-0.0004366862 0.0005560248 0)
(-0.0005862771 0.0006332737 -6.790731e-25)
(-0.0007555461 0.0006859294 1.591578e-26)
(-0.0002780753 5.50375e-05 -6.328074e-25)
(-0.0002893638 0.0001613692 -6.314773e-25)
(-0.0003376698 0.0002608933 5.689953e-27)
(-0.0004159695 0.0003507014 4.038331e-27)
(-0.0005232208 0.0004245885 0)
(-0.0006514136 0.0004790383 -6.236538e-25)
(-0.0007970784 0.0005120145 3.193337e-26)
(-0.0003771657 4.250618e-05 2.758778e-28)
(-0.000386011 0.0001217026 -1.188571e-24)
(-0.0004267968 0.0001941814 2.869381e-27)
(-0.0004935189 0.0002597524 4.071935e-27)
(-0.0005851152 0.0003112123 0)
(-0.0006947048 0.0003457243 0)
(-0.0008199026 0.0003616947 0)
(-0.0004491987 3.095601e-05 0)
(-0.0004572202 8.698452e-05 -5.569311e-25)
(-0.0004911509 0.0001369829 0)
(-0.0005479074 0.0001815236 5.482941e-25)
(-0.0006258093 0.0002135192 -1.059982e-26)
(-0.0007192048 0.0002308158 -1.323288e-26)
(-0.0008264577 0.0002320227 5.397415e-25)
(-0.0004990013 2.033017e-05 -5.199285e-25)
(-0.0005059301 5.663028e-05 0)
(-0.0005339909 8.816072e-05 5.740721e-27)
(-0.0005825374 0.0001146552 4.653478e-25)
(-0.0006486579 0.0001290121 -5.961684e-25)
(-0.000727635 0.0001319203 0)
(-0.0008189409 0.0001205944 5.145633e-25)
(-0.000529726 1.094747e-05 -4.822271e-25)
(-0.0005347797 3.05012e-05 0)
(-0.0005589215 4.641093e-05 2.876909e-27)
(-0.0005998323 5.639682e-05 4.076307e-27)
(-0.0006552923 5.729269e-05 -9.541709e-25)
(-0.0007221859 4.754501e-05 4.759531e-25)
(-0.0007994561 2.552187e-05 -4.746719e-25)
(-0.0005438241 3.264959e-06 0)
(-0.0005470176 7.577429e-06 -4.41877e-25)
(-0.0005674459 1.043561e-05 2.871731e-27)
(-0.0006027543 7.718459e-06 4.391789e-25)
(-0.0006484338 -4.102181e-06 -4.383614e-25)
(-0.0007050017 -2.431832e-05 4.368016e-25)
(-0.000770067 -5.506137e-05 2.157981e-28)
(-0.0005438294 -3.158123e-06 0)
(-0.0005457291 -1.127237e-05 -4.061356e-25)
(-0.0005620354 -2.108243e-05 4.047319e-25)
(-0.0005923491 -3.419865e-05 4.053049e-25)
(-0.0006312888 -5.531761e-05 -3.953458e-25)
(-0.0006781292 -8.515207e-05 1.282979e-26)
(-0.0007326702 -0.000122952 3.962838e-25)
(-0.0005321811 -8.465108e-06 0)
(-0.0005329885 -2.693451e-05 0)
(-0.0005460678 -4.684778e-05 3.674436e-25)
(-0.0005705211 -7.037313e-05 -3.640054e-25)
(-0.0006040859 -9.920428e-05 1.520903e-28)
(-0.0006435701 -0.0001354951 0)
(-0.0006887761 -0.0001798666 0)
(-0.0005113939 -1.268495e-05 -3.341631e-25)
(-0.0005109678 -3.951179e-05 3.325711e-25)
(-0.0005208801 -6.781225e-05 1.625725e-25)
(-0.0005405625 -9.977744e-05 -3.309184e-25)
(-0.0005677897 -0.0001363045 -1.439664e-28)
(-0.000602192 -0.0001781151 1.25483e-26)
(-0.0006391661 -0.0002270094 6.815112e-30)
(-0.0004841432 -1.563949e-05 2.553314e-29)
(-0.0004819839 -4.872404e-05 2.96439e-25)
(-0.0004882562 -8.392578e-05 1.444031e-25)
(-0.0005031465 -0.0001231476 -3.924768e-27)
(-0.0005249038 -0.0001669181 -5.834744e-25)
(-0.000553347 -0.0002133186 -6.210948e-27)
(-0.000585395 -0.0002661442 0)
(-0.0004534388 -1.714345e-05 2.631297e-25)
(-0.0004485913 -5.408879e-05 -1.305586e-25)
(-0.0004501019 -9.479261e-05 -1.293217e-25)
(-0.0004596168 -0.0001404371 0)
(-0.0004760126 -0.0001904914 -2.530214e-25)
(-0.0004989146 -0.0002429366 -6.150422e-27)
(-0.000527441 -0.0002996347 -7.27864e-27)
(-0.0004226017 -1.695831e-05 0)
(-0.0004133657 -5.514516e-05 -1.132602e-25)
(-0.0004080336 -0.0001003034 -9.062134e-26)
(-0.0004115683 -0.0001517767 3.000668e-26)
(-0.0004222083 -0.0002083343 -1.138133e-25)
(-0.0004406272 -0.0002667452 -6.10035e-27)
(-0.0004649027 -0.0003263537 0)
(-0.0003944718 -1.491073e-05 0)
(-0.000378828 -5.135049e-05 -7.860608e-28)
(-0.000364719 -9.959826e-05 1.330877e-27)
(-0.0003593503 -0.0001577494 -9.28333e-26)
(-0.0003643728 -0.0002209843 -4.881128e-27)
(-0.000378567 -0.0002845541 4.752274e-26)
(-0.0004007253 -0.0003511139 1.103279e-25)
(-0.0003753783 -1.152938e-05 1.227684e-28)
(-0.0003465839 -4.346885e-05 -7.927741e-26)
(-0.0003203112 -9.365732e-05 -1.543486e-25)
(-0.0003053741 -0.0001586236 -1.48008e-25)
(-0.0003038694 -0.0002285241 1.172762e-25)
(-0.0003157861 -0.0003014184 4.761663e-26)
(-0.0003346142 -0.0003709931 -2.391506e-27)
(-0.0003565323 -3.303014e-06 6.732732e-26)
(-0.0003128157 -2.878045e-05 -1.292536e-25)
(-0.0002746436 -8.428106e-05 -1.247896e-25)
(-0.0002500912 -0.0001558362 -6.121792e-26)
(-0.0002447353 -0.000236469 1.894722e-27)