/*--------------------------------*- C++ -*----------------------------------*\
| =========                 |                                                 |
| \\      /  F ield         | OpenFOAM: The Open Source CFD Toolbox           |
|  \\    /   O peration     | Version:  2206                                  |
|   \\  /    A nd           | Website:  www.openfoam.com                      |
|    \\/     M anipulation  |                                                 |
\*---------------------------------------------------------------------------*/
FoamFile
{
    version     2.0;
    format      ascii;
    arch        "LSB;label=32;scalar=64";
    class       surfaceVectorField;
    location    "1.2";
    object      ddtCorrDdt0(Ufa);
}
// * * * * * * * * * * * * * * * * * * * * * * * * * * * * * * * * * * * * * //

dimensions      [0 1 -2 0 0 0 0];

internalField   nonuniform List<vector> 
26037
(
(-3.144526e-05 0.0002505874 -4.481746e-24)
(0.0001696109 6.270787e-05 5.640931e-29)
(-6.418397e-06 1.320796e-05 -1.926887e-23)
(-4.661769e-05 2.505007e-05 -9.577526e-26)
(-5.686627e-08 -0.0001017216 -8.757946e-29)
(-2.272307e-05 -0.000107546 -8.777834e-29)
(-8.574457e-07 -6.556285e-05 -4.011835e-30)
(-9.959206e-06 -8.751022e-05 0)
(-7.996617e-07 -2.072904e-05 4.970281e-26)
(-5.451999e-06 -3.710932e-05 -4.048159e-30)
(-4.028569e-07 6.917108e-06 -1.192823e-29)
(-2.646649e-06 -1.34131e-06 8.942405e-29)
(-9.968172e-07 1.649036e-05 -6.576885e-30)
(-1.968064e-07 1.870446e-05 1.3138e-26)
(0.0001566077 -0.0001658497 -3.203123e-32)
(0.0001570901 -0.0001623644 -2.740925e-30)
(-6.297148e-05 -9.539117e-05 -3.23391e-32)
(-7.927177e-05 -8.611187e-05 -4.164174e-30)
(-3.262323e-05 -9.328605e-05 0)
(-4.282453e-05 -9.806474e-05 1.675525e-30)
(-1.456339e-05 -5.904872e-05 -3.681563e-32)
(-2.161199e-05 -7.186859e-05 5.756382e-30)
(-7.301775e-06 -1.772885e-05 -5.434795e-32)
(-1.230293e-05 -2.790561e-05 2.896164e-28)
(-3.241428e-06 8.227124e-06 -5.271531e-32)
(-5.814164e-06 2.738136e-06 -1.754395e-32)
(-2.060947e-06 1.777847e-05 -8.301329e-31)
(-1.058847e-06 1.912418e-05 -7.494267e-30)
(-7.852787e-05 -8.306697e-05 -6.898728e-30)
(-5.496e-05 -5.604199e-05 -1.417066e-24)
(-5.936725e-05 -8.866918e-05 -2.522177e-30)
(-5.640135e-05 -6.793754e-05 1.482436e-25)
(-3.1721e-05 -7.651781e-05 -5.359426e-27)
(-3.437283e-05 -7.236818e-05 -1.109188e-29)
(-1.935151e-05 -4.071038e-05 -1.159904e-26)
(-2.397573e-05 -4.509348e-05 5.92483e-32)
(-1.081634e-05 -7.443846e-06 4.211199e-30)
(-1.442988e-05 -1.257113e-05 3.794254e-29)
(-4.633886e-06 1.228589e-05 -3.686688e-35)
(-6.64429e-06 9.199912e-06 0)
(-2.208952e-06 1.955558e-05 3.442362e-29)
(-1.377644e-06 2.010057e-05 7.500626e-30)
(-3.291096e-05 -4.087585e-05 -7.580064e-30)
(-2.092266e-05 -1.997002e-05 6.308331e-30)
(-3.156966e-05 -5.146128e-05 -2.680653e-29)
(-2.654496e-05 -3.573809e-05 3.364497e-26)
(-2.655704e-05 -4.058386e-05 6.651504e-28)
(-2.587481e-05 -3.509517e-05 7.623367e-27)
(-1.905605e-05 -1.683548e-05 -5.605426e-30)
(-2.083519e-05 -1.762675e-05 3.470296e-27)
(-1.025745e-05 4.069312e-06 1.863791e-31)
(-1.224159e-05 1.512134e-06 2.982337e-30)
(-4.219089e-06 1.646729e-05 9.423788e-32)
(-5.493949e-06 1.480283e-05 -4.12544e-34)
(-1.617963e-06 2.057864e-05 6.097765e-30)
(-1.057509e-06 2.067613e-05 -7.244129e-30)
(-1.45538e-05 -1.480541e-05 -1.622948e-27)
(-7.564153e-06 -5.437684e-06 -8.037294e-33)
(-2.085768e-05 -1.937483e-05 -2.447051e-27)
(-1.592407e-05 -1.216971e-05 -8.637992e-30)
(-2.011091e-05 -1.198718e-05 -3.26238e-29)
(-1.843661e-05 -9.279266e-06 -1.671368e-29)
(-1.398976e-05 8.359595e-07 7.468553e-28)
(-1.429602e-05 4.568448e-07 -4.555671e-27)
(-7.46712e-06 1.228194e-05 1.71727e-26)
(-8.419105e-06 1.069496e-05 -4.868886e-27)
(-2.892584e-06 1.89129e-05 -4.90426e-27)
(-3.678079e-06 1.778728e-05 -5.122259e-30)
(-8.486576e-07 2.017684e-05 5.492878e-30)
(-4.704783e-07 2.020035e-05 6.003516e-30)
(-8.926635e-06 -2.790541e-06 7.541319e-32)
(-4.238144e-06 -4.146906e-07 0)
(-1.348365e-05 -2.09165e-06 1.477141e-27)
(-1.037562e-05 -3.172547e-07 -1.174673e-29)
(-1.260376e-05 3.208927e-06 -1.45635e-27)
(-1.153572e-05 3.263226e-06 -1.398292e-29)
(-8.712409e-06 1.033594e-05 -2.135733e-28)
(-8.894553e-06 9.111868e-06 -1.286467e-29)
(-4.615382e-06 1.621773e-05 -4.613024e-30)
(-5.232108e-06 1.46574e-05 1.115656e-27)
(-1.628708e-06 1.905495e-05 7.180857e-27)
(-2.208618e-06 1.797936e-05 -4.552843e-30)
(-3.989077e-07 1.843517e-05 -1.267343e-29)
(-5.243754e-08 1.858715e-05 2.118223e-28)
(-5.68339e-06 2.064689e-06 -1.181598e-29)
(-2.953308e-06 1.343201e-06 2.167876e-29)
(-8.417341e-06 5.021013e-06 -2.566826e-29)
(-7.010392e-06 4.106346e-06 -1.337227e-28)
(-7.814275e-06 9.185583e-06 -9.159124e-27)
(-7.653002e-06 7.696129e-06 8.136872e-27)
(-5.399852e-06 1.345176e-05 -1.414931e-29)
(-5.952977e-06 1.15903e-05 -3.151626e-30)
(-2.823749e-06 1.641155e-05 -2.53502e-28)
(-3.559873e-06 1.469705e-05 -3.781846e-29)
(-9.769466e-07 1.734591e-05 6.501239e-31)
(-1.60518e-06 1.617374e-05 1.283256e-30)
(-5.12927e-07 1.58994e-05 7.484959e-31)
(-8.016154e-08 1.62403e-05 -3.763779e-31)
(-4.278904e-06 3.388543e-06 8.210062e-30)
(-2.5432e-06 1.683969e-06 -6.906407e-27)
(-6.24821e-06 6.769496e-06 -2.689792e-29)
(-5.870639e-06 4.916221e-06 1.68262e-29)
(-5.807002e-06 1.007651e-05 -1.355851e-29)
(-6.385935e-06 8.066471e-06 2.016321e-30)
(-4.101216e-06 1.285261e-05 -2.704289e-29)
(-5.093971e-06 1.085335e-05 3.858005e-31)
(-2.341201e-06 1.445984e-05 -2.620685e-29)
(-3.317319e-06 1.279047e-05 2.760744e-26)
(-1.144471e-06 1.471832e-05 5.567165e-28)
(-1.92951e-06 1.357843e-05 1.24892e-30)
(-1.188657e-06 1.327873e-05 7.53671e-31)
(-6.053556e-07 1.372038e-05 -6.058761e-30)
(-4.134532e-06 3.214725e-06 3.029067e-29)
(-2.689133e-06 1.48959e-06 2.250338e-26)
(-6.008715e-06 6.211774e-06 4.573694e-29)
(-6.12115e-06 4.343176e-06 -2.855454e-26)
(-5.687609e-06 8.815978e-06 1.112188e-27)
(-6.731664e-06 6.913576e-06 -1.727315e-26)
(-4.298733e-06 1.080586e-05 -6.093717e-29)
(-5.620676e-06 9.030289e-06 -3.393622e-29)
(-2.906175e-06 1.191037e-05 6.872044e-28)
(-4.093416e-06 1.046648e-05 2.746641e-26)
(-1.974662e-06 1.214029e-05 6.150294e-31)
(-2.907257e-06 1.115046e-05 6.148398e-31)
(-2.235583e-06 1.116298e-05 0)
(-1.515534e-06 1.155405e-05 1.582508e-29)
(-4.675945e-06 2.620571e-06 6.753426e-30)
(-3.127253e-06 1.191563e-06 -2.683733e-29)
(-6.844993e-06 5.044061e-06 5.050911e-29)
(-7.105886e-06 3.50359e-06 3.360649e-29)
(-6.678515e-06 7.106399e-06 -1.686534e-29)
(-7.956511e-06 5.566681e-06 5.395498e-29)
(-5.405512e-06 8.7024e-06 -3.407849e-29)
(-6.929987e-06 7.290267e-06 3.876967e-26)
(-4.095165e-06 9.708557e-06 -1.358049e-32)
(-5.430178e-06 8.562031e-06 -5.666823e-26)
(-3.169617e-06 1.017464e-05 0)
(-4.216232e-06 9.383436e-06 0)
(-3.442606e-06 9.794027e-06 0)
(-2.614529e-06 1.00764e-05 1.955676e-29)
(-5.557874e-06 2.076701e-06 0)
(-3.710571e-06 9.569383e-07 0)
(-8.218703e-06 4.025541e-06 3.703645e-29)
(-8.450296e-06 2.843522e-06 -3.980989e-29)
(-8.221413e-06 5.732884e-06 6.183421e-32)
(-9.605072e-06 4.566453e-06 -5.396017e-26)
(-6.94552e-06 7.160677e-06 -3.755742e-29)
(-8.598921e-06 6.093057e-06 2.998696e-30)
(-5.552386e-06 8.239136e-06 1.357247e-32)
(-6.999257e-06 7.36575e-06 4.227699e-26)
(-4.490541e-06 9.004544e-06 0)
(-5.63078e-06 8.400022e-06 0)
(-4.672529e-06 9.181725e-06 4.422052e-29)
(-3.750968e-06 9.345542e-06 -1.99164e-29)
(-6.604039e-06 1.72549e-06 -3.979333e-29)
(-4.373732e-06 8.221596e-07 0)
(-9.838153e-06 3.383742e-06 3.384778e-31)
(-9.976185e-06 2.466808e-06 7.129546e-26)
(-9.996878e-06 4.910927e-06 8.10573e-29)
(-1.144771e-05 4.022252e-06 4.000494e-29)
(-8.642829e-06 6.309531e-06 -1.185052e-27)
(-1.041299e-05 5.495202e-06 -5.907548e-26)
(-7.078629e-06 7.529347e-06 -4.186719e-29)
(-8.637408e-06 6.856946e-06 -8.66185e-29)
(-5.814567e-06 8.579445e-06 4.420529e-29)
(-7.053263e-06 8.116963e-06 4.554227e-29)
(-5.877456e-06 9.215164e-06 -4.16531e-26)
(-4.859003e-06 9.275865e-06 3.463653e-27)
(-7.747139e-06 1.564642e-06 -4.268727e-29)
(-5.098852e-06 7.734243e-07 -3.56909e-29)
(-1.15878e-05 3.104696e-06 -7.113794e-28)
(-1.162711e-05 2.338145e-06 -4.269425e-29)
(-1.187914e-05 4.591463e-06 4.355415e-29)
(-1.341196e-05 3.86583e-06 -3.785206e-31)
(-1.039621e-05 6.055472e-06 -1.145302e-30)
(-1.230685e-05 5.389891e-06 4.402301e-29)
(-8.613343e-06 7.447905e-06 8.657177e-31)
(-1.031059e-05 6.896479e-06 6.188941e-26)
(-7.118316e-06 8.755255e-06 4.556009e-29)
(-8.478782e-06 8.382764e-06 -5.885436e-26)
(-7.071854e-06 9.753775e-06 4.964048e-26)
(-5.939348e-06 9.735153e-06 1.718941e-32)
(-8.980478e-06 1.547528e-06 -3.569779e-29)
(-5.891942e-06 7.857729e-07 8.231367e-26)
(-1.345343e-05 3.098836e-06 -1.762191e-31)
(-1.341139e-05 2.388608e-06 0)
(-1.385642e-05 4.648664e-06 -1.812389e-27)
(-1.550674e-05 3.989068e-06 -4.676631e-31)
(-1.220955e-05 6.245486e-06 -9.674141e-29)
(-1.430467e-05 5.636283e-06 5.179198e-29)
(-1.017734e-05 7.835477e-06 -4.679675e-29)
(-1.20534e-05 7.329464e-06 8.509366e-26)
(-8.434903e-06 9.384221e-06 -1.310618e-30)
(-9.946872e-06 9.054866e-06 4.88409e-29)
(-8.298339e-06 1.067735e-05 3.371002e-30)
(-7.028394e-06 1.060232e-05 9.508792e-32)
(-1.032466e-05 1.626897e-06 -3.729934e-29)
(-6.769009e-06 8.384149e-07 -3.728215e-29)
(-1.546741e-05 3.278634e-06 -2.910754e-31)
(-1.536459e-05 2.559847e-06 -4.879908e-29)
(-1.597214e-05 4.963514e-06 -3.667719e-27)
(-1.777911e-05 4.302814e-06 -2.911497e-31)
(-1.415473e-05 6.728329e-06 4.179669e-26)
(-1.647377e-05 6.125664e-06 -1.112266e-25)
(-1.182229e-05 8.561016e-06 -4.659884e-29)
(-1.392858e-05 8.046083e-06 -4.638555e-29)
(-9.813254e-06 1.035212e-05 5.353018e-29)
(-1.150649e-05 1.002934e-05 6.412285e-31)
(-9.602143e-06 1.190165e-05 -6.253238e-26)
(-8.171127e-06 1.178865e-05 1.088147e-28)
(-1.181118e-05 1.770491e-06 -4.877551e-29)
(-7.750153e-06 9.184763e-07 0)
(-1.767997e-05 3.58438e-06 -4.880892e-29)
(-1.753218e-05 2.815183e-06 1.378904e-25)
(-1.828588e-05 5.457991e-06 5.149431e-29)
(-2.028446e-05 4.751827e-06 -6.843224e-32)
(-1.626904e-05 7.427839e-06 7.367345e-27)
(-1.883163e-05 6.792544e-06 5.143783e-29)
(-1.359265e-05 9.535842e-06 1.119546e-30)
(-1.595476e-05 8.976754e-06 4.765549e-31)
(-1.1297e-05 1.158432e-05 6.422589e-27)
(-1.320211e-05 1.124239e-05 6.4095e-31)
(-1.102385e-05 1.337777e-05 5.750764e-29)
(-9.406083e-06 1.323839e-05 5.85661e-29)
(-1.347375e-05 1.9611e-06 -9.986208e-29)
(-8.854936e-06 1.01935e-06 -3.960885e-29)
(-2.014159e-05 3.983778e-06 -9.999902e-29)
(-1.995864e-05 3.135356e-06 1.626792e-25)
(-2.083717e-05 6.086716e-06 -2.621458e-27)
(-2.307872e-05 5.30783e-06 -1.079378e-31)
(-1.856569e-05 8.313447e-06 -1.128608e-31)
(-2.144109e-05 7.609357e-06 -1.55549e-31)
(-1.553741e-05 1.071347e-05 0)
(-1.819613e-05 1.009167e-05 0)
(-1.29306e-05 1.304253e-05 0)
(-1.508442e-05 1.266872e-05 -5.991965e-29)
(-1.260518e-05 1.509024e-05 -8.963506e-31)
(-1.076879e-05 1.492528e-05 -8.519747e-31)
(-1.534281e-05 2.190118e-06 -1.085585e-27)
(-1.010132e-05 1.137831e-06 1.562363e-25)
(-2.290157e-05 4.461128e-06 -2.162485e-27)
(-2.268398e-05 3.510934e-06 -1.008248e-28)
(-2.369094e-05 6.831614e-06 -3.048697e-27)
(-2.621005e-05 5.957155e-06 7.539698e-32)
(-2.112929e-05 9.353873e-06 -4.51729e-32)
(-2.435889e-05 8.558166e-06 2.331524e-32)
(-1.771182e-05 1.208284e-05 -6.061621e-29)
(-2.070552e-05 1.138004e-05 0)
(-1.47608e-05 1.472428e-05 -8.783383e-27)
(-1.720165e-05 1.431312e-05 1.114974e-25)
(-1.439031e-05 1.705392e-05 -1.102365e-30)
(-1.229689e-05 1.685356e-05 -8.918059e-27)
(-1.744593e-05 2.453564e-06 -1.558792e-27)
(-1.150797e-05 1.272901e-06 -7.756997e-29)
(-2.599911e-05 5.009166e-06 -2.617061e-27)
(-2.574671e-05 3.939013e-06 2.190086e-25)
(-2.688759e-05 7.685042e-06 -7.017389e-27)
(-2.971984e-05 6.695681e-06 -5.123068e-29)
(-2.400131e-05 1.054522e-05 6.88405e-32)
(-2.762368e-05 9.635912e-06 6.773899e-32)
(-2.016182e-05 1.365174e-05 -6.23045e-29)
(-2.353629e-05 1.283798e-05 -2.88532e-30)
(-1.683275e-05 1.665287e-05 -6.173705e-29)
(-1.960665e-05 1.618532e-05 -6.486566e-29)
(-1.642348e-05 1.930745e-05 -3.774236e-31)
(-1.40323e-05 1.905549e-05 -1.048488e-26)
(-1.981277e-05 2.7515e-06 -1.369162e-28)
(-1.30961e-05 1.425768e-06 2.131628e-25)
(-2.947518e-05 5.628291e-06 -1.500187e-28)
(-2.919177e-05 4.424054e-06 2.572911e-25)
(-3.04665e-05 8.648925e-06 -5.138293e-29)
(-3.365958e-05 7.532531e-06 2.424888e-25)
(-2.722317e-05 1.189397e-05 -2.859164e-30)
(-3.128583e-05 1.085838e-05 -5.371986e-29)
(-2.298768e-05 1.5399e-05 1.030189e-25)
(-2.677162e-05 1.449683e-05 -3.400608e-30)
(-1.919456e-05 1.887341e-05 2.486404e-26)
(-2.236647e-05 1.834841e-05 -6.782348e-29)
(-1.875469e-05 2.192264e-05 6.900136e-29)
(-1.601908e-05 2.159029e-05 -1.709393e-31)
(-2.247987e-05 3.089437e-06 2.489905e-27)
(-1.489057e-05 1.600176e-06 -3.639353e-29)
(-3.338535e-05 6.331563e-06 3.388965e-27)
(-3.307399e-05 4.979225e-06 2.979279e-25)
(-3.448982e-05 9.74593e-06 -1.534545e-28)
(-3.809934e-05 8.494309e-06 2.816342e-25)
(-3.0859e-05 1.343937e-05 1.052087e-26)
(-3.541561e-05 1.226919e-05 2.596909e-25)
(-2.619649e-05 1.740275e-05 -6.414814e-29)
(-3.038801e-05 1.641491e-05 -5.267334e-31)
(-2.188354e-05 2.145069e-05 6.355875e-30)
(-2.547765e-05 2.087339e-05 1.979092e-25)
(-2.145602e-05 2.501171e-05 -1.433706e-25)
(-1.831664e-05 2.456345e-05 -1.419258e-26)
(-2.549027e-05 3.478697e-06 -4.429376e-29)
(-1.691884e-05 1.801694e-06 2.956077e-29)
(-3.779868e-05 7.145768e-06 4.109682e-27)
(-3.745391e-05 5.623383e-06 -4.430023e-29)
(-3.903786e-05 1.102324e-05 -1.498224e-28)
(-4.311667e-05 9.617758e-06 -4.739011e-29)
(-3.496321e-05 1.524468e-05 -1.026084e-28)
(-4.009939e-05 1.392959e-05 2.9715e-25)
(-2.97758e-05 1.980846e-05 -6.36523e-29)
(-3.44836e-05 1.869987e-05 5.333045e-29)
(-2.499394e-05 2.451088e-05 -6.39661e-29)
(-2.905994e-05 2.388212e-05 -6.500114e-29)
(-2.464163e-05 2.871477e-05 1.648978e-25)
(-2.103762e-05 2.814087e-05 -7.766816e-29)
(-2.888894e-05 3.932326e-06 2.956611e-29)
(-1.921031e-05 2.036553e-06 -3.349697e-25)
(-4.278421e-05 8.099828e-06 0)
(-4.239486e-05 6.376762e-06 0)
(-4.419276e-05 1.253069e-05 -1.017637e-30)
(-4.878785e-05 1.09398e-05 0)
(-3.96407e-05 1.73869e-05 1.543976e-26)
(-4.54174e-05 1.589484e-05 -3.439681e-25)
(-3.38921e-05 2.267954e-05 5.442612e-29)
(-3.916419e-05 2.141046e-05 -2.921877e-25)
(-2.864848e-05 2.817756e-05 -7.189384e-29)
(-3.323342e-05 2.742394e-05 -6.128068e-29)
(-2.841263e-05 3.308216e-05 -7.142778e-29)
(-2.43068e-05 3.247749e-05 -1.464823e-28)
(-3.272386e-05 4.463744e-06 4.834424e-29)
(-2.179722e-05 2.310976e-06 -3.884511e-25)
(-4.841285e-05 9.221961e-06 0)
(-4.796599e-05 7.259424e-06 -4.278586e-31)
(-5.002932e-05 1.431166e-05 4.491423e-29)
(-5.519559e-05 1.249595e-05 2.972281e-29)
(-4.496331e-05 1.992257e-05 -1.838888e-26)
(-5.145275e-05 1.821414e-05 4.310318e-29)
(-3.862522e-05 2.606939e-05 4.457542e-29)
(-4.451117e-05 2.459702e-05 -3.748036e-25)
(-3.300884e-05 3.239844e-05 -6.166495e-29)
(-3.812161e-05 3.154067e-05 2.935391e-25)
(-3.279995e-05 3.808561e-05 0)
(-2.814837e-05 3.751519e-05 8.083663e-29)
(-3.704823e-05 5.085691e-06 1.673008e-29)
(-2.471416e-05 2.630072e-06 1.714741e-29)
(-5.476539e-05 1.053938e-05 6.709182e-27)
(-5.424154e-05 8.288225e-06 -1.514819e-29)
(-5.663881e-05 1.640721e-05 2.791192e-29)
(-6.243073e-05 1.431621e-05 -5.124747e-25)
(-5.102149e-05 2.289578e-05 2.115635e-26)
(-5.830115e-05 2.09272e-05 -1.81629e-30)
(-4.404888e-05 3.000616e-05 -5.901388e-29)
(-5.059534e-05 2.828501e-05 4.423691e-25)
(-3.797395e-05 3.712815e-05 -5.832788e-29)
(-4.356199e-05 3.615378e-05 -6.956663e-29)
(-3.753675e-05 4.34328e-05 -6.951392e-30)
(-3.233776e-05 4.286572e-05 8.761184e-29)
(-4.191788e-05 5.807362e-06 -1.471113e-29)
(-2.799678e-05 2.996385e-06 2.858427e-30)
(-6.192611e-05 1.207179e-05 6.200533e-30)
(-6.129666e-05 9.471088e-06 6.232046e-25)
(-6.411581e-05 1.884592e-05 2.094199e-29)
(-7.057749e-05 1.64111e-05 3.000077e-29)
(-5.789815e-05 2.632758e-05 -4.490864e-29)
(-6.603376e-05 2.403526e-05 0)
(-5.014011e-05 3.44277e-05 5.140014e-26)
(-5.744382e-05 3.24307e-05 -3.793108e-29)
(-4.329029e-05 4.229843e-05 7.631758e-26)
(-4.9481e-05 4.113038e-05 -1.266291e-29)
(-4.231585e-05 4.862703e-05 -1.585575e-29)
(-3.664727e-05 4.821167e-05 1.778351e-31)
(-4.738734e-05 6.629906e-06 1.261834e-30)
(-3.167604e-05 3.409239e-06 5.911642e-25)
(-6.997017e-05 1.381805e-05 7.469472e-30)
(-6.92046e-05 1.080512e-05 1.292061e-29)
(-7.252147e-05 2.161129e-05 9.075947e-30)
(-7.971167e-05 1.876948e-05 -6.796936e-25)
(-6.560569e-05 3.015096e-05 6.977846e-30)
(-7.469027e-05 2.74998e-05 0)
(-5.682074e-05 3.913357e-05 -5.791283e-26)
(-6.501833e-05 3.691861e-05 6.978844e-30)
(-4.871487e-05 4.728844e-05 7.71222e-26)
(-5.570749e-05 4.612083e-05 -3.622638e-29)
(-4.656099e-05 5.278293e-05 1.396126e-28)
(-4.022953e-05 5.234862e-05 7.353949e-29)
(-5.350033e-05 7.547204e-06 3.106391e-29)
(-3.577767e-05 3.866347e-06 4.999604e-29)
(-7.897342e-05 1.576626e-05 8.716186e-30)
(-7.804377e-05 1.228442e-05 8.376768e-25)
(-8.191026e-05 2.467017e-05 -5.807701e-30)
(-8.992149e-05 2.13794e-05 -5.803151e-30)
(-7.413287e-05 3.428184e-05 0)
(-8.433723e-05 3.130124e-05 -1.786478e-30)
(-6.394384e-05 4.391071e-05 -3.615859e-29)
(-7.334842e-05 4.173021e-05 1.053358e-29)
(-5.377662e-05 5.149279e-05 1.094606e-28)
(-6.2229e-05 5.111708e-05 5.663822e-25)
(-5.023554e-05 5.589099e-05 -2.776595e-25)
(-4.200878e-05 5.365411e-05 -6.636039e-25)
(-6.030644e-05 8.554835e-06 2.566681e-26)
(-4.025916e-05 4.359255e-06 6.980557e-25)
(-8.902625e-05 1.791103e-05 3.535223e-29)
(-8.784019e-05 1.388959e-05 3.544022e-29)
(-9.238263e-05 2.802411e-05 -1.785016e-30)
(-0.0001013071 2.423701e-05 4.985691e-29)
(-8.358758e-05 3.87659e-05 -6.988575e-26)
(-9.510456e-05 3.546777e-05 -8.60296e-25)
(-7.166827e-05 4.894891e-05 -5.132595e-29)
(-8.263598e-05 4.702628e-05 2.176158e-29)
(-5.879885e-05 5.546285e-05 7.982472e-26)
(-6.949095e-05 5.670505e-05 7.698144e-25)
(-5.434236e-05 5.968984e-05 7.377013e-25)
(-4.245497e-05 5.323467e-05 4.119342e-25)
(-6.765503e-05 9.610029e-06 5.336771e-29)
(-4.511031e-05 4.871472e-06 5.288183e-29)
(-0.0001001972 2.024925e-05 4.998118e-29)
(-9.868531e-05 1.561039e-05 0)
(-0.00010407 3.169919e-05 -3.408859e-26)
(-0.0001139564 2.732178e-05 1.060428e-24)
(-9.419392e-05 4.374603e-05 -1.403346e-29)
(-0.0001071205 3.999489e-05 -2.523739e-29)
(-8.049939e-05 5.480261e-05 -1.033853e-29)
(-9.307712e-05 5.288677e-05 9.357879e-25)
(-6.511003e-05 6.094682e-05 -5.816881e-29)
(-7.790743e-05 6.327797e-05 8.605557e-25)
(-5.990504e-05 6.546714e-05 -1.42113e-29)
(-4.490349e-05 5.603215e-05 -1.690432e-28)
(-7.570114e-05 1.071738e-05 0)
(-5.047951e-05 5.396128e-06 1.050685e-28)
(-0.0001125301 2.273396e-05 1.463364e-28)
(-0.0001104269 1.736747e-05 -1.183056e-28)
(-0.0001170491 3.564543e-05 1.457879e-28)
(-0.0001278065 3.049119e-05 1.410272e-24)
(-0.0001060501 4.915502e-05 6.502962e-29)
(-0.0001203922 4.474849e-05 0)
(-9.053131e-05 6.138403e-05 7.21796e-29)
(-0.0001046955 5.913294e-05 1.121171e-24)
(-7.277489e-05 6.782282e-05 2.944443e-29)
(-8.744987e-05 7.054376e-05 7.080347e-30)
(-6.67361e-05 7.260014e-05 -9.098787e-25)
(-4.94297e-05 6.176325e-05 2.270059e-29)
(-8.47008e-05 1.186383e-05 9.940069e-26)
(-5.639446e-05 5.891845e-06 1.020362e-24)
(-0.0001257781 2.512736e-05 -2.22123e-28)
(-0.0001229339 1.897799e-05 -1.112259e-24)
(-0.0001312331 3.967558e-05 -1.030075e-28)
(-0.0001426956 3.347652e-05 -2.456698e-24)
(-0.0001190916 5.476096e-05 5.872472e-29)
(-0.0001347268 4.933741e-05 -2.517553e-28)
(-0.0001016689 6.831693e-05 5.871085e-29)
(-0.0001172851 6.536115e-05 1.274161e-28)
(-8.147407e-05 7.534883e-05 5.165009e-29)
(-9.787797e-05 7.793942e-05 -2.508599e-29)
(-7.428566e-05 8.008743e-05 7.987933e-29)
(-5.492379e-05 6.85956e-05 -3.215714e-25)
(-9.433317e-05 1.285846e-05 -2.406229e-29)
(-6.262267e-05 6.251331e-06 1.357889e-28)
(-0.0001397051 2.72074e-05 -5.901257e-28)
(-0.0001358634 2.016625e-05 -1.629346e-28)
(-0.0001463289 4.31656e-05 -6.870517e-28)
(-0.0001579081 3.574093e-05 -1.222477e-24)
(-0.0001329573 6.008138e-05 1.283497e-25)
(-0.0001495096 5.313565e-05 -3.273355e-24)
(-0.0001135565 7.501936e-05 4.363239e-29)
(-0.0001302299 7.082025e-05 1.598049e-24)
(-9.075836e-05 8.271451e-05 1.248437e-25)
(-0.0001087134 8.46557e-05 -8.411694e-29)
(-8.210311e-05 8.703615e-05 -1.055882e-28)
(-6.051668e-05 7.518888e-05 -3.916813e-25)
(-0.0001041105 1.345198e-05 -5.809301e-26)
(-6.895209e-05 6.321994e-06 7.450864e-32)
(-0.0001539077 2.85943e-05 -2.054504e-28)
(-0.0001487602 2.050641e-05 2.926894e-31)
(-0.0001611832 4.547073e-05 6.591171e-26)
(-0.0001722416 3.653169e-05 -4.283184e-28)
(-0.0001466141 6.410996e-05 -2.113102e-25)
(-0.0001630732 5.492519e-05 -3.206989e-28)
(-0.0001254326 8.051173e-05 1.210605e-28)
(-0.0001424378 7.40683e-05 4.657046e-28)
(-0.0001001387 8.901624e-05 2.569748e-25)
(-0.0001190988 8.939996e-05 -1.229181e-28)
(-8.964184e-05 9.23208e-05 -1.336086e-28)
(-6.59884e-05 8.088404e-05 4.553647e-25)
(-0.0001135936 1.326535e-05 6.573408e-26)
(-7.50885e-05 5.862897e-06 6.396598e-31)
(-0.0001671023 2.841764e-05 -2.216974e-28)
(-0.0001606878 1.926289e-05 2.456971e-30)
(-0.0001743851 4.565344e-05 1.784291e-26)
(-0.0001846318 3.473269e-05 -1.508723e-24)
(-0.0001590155 6.498126e-05 -5.716197e-25)
(-0.0001741268 5.298272e-05 -1.291414e-24)
(-0.0001361221 8.312403e-05 -3.255903e-25)
(-0.0001524108 7.320275e-05 -2.788576e-28)
(-0.0001086838 9.275575e-05 -6.37912e-29)
(-0.0001279837 9.04277e-05 -3.124469e-24)
(-9.611085e-05 9.444577e-05 0)
(-7.081859e-05 8.449923e-05 1.99981e-29)
(-0.0001221735 1.17383e-05 0)
(-8.067033e-05 4.576675e-06 1.562523e-30)
(-0.0001782464 2.55677e-05 -2.988339e-28)
(-0.0001707587 1.56133e-05 -5.935809e-30)
(-0.0001844686 4.191011e-05 -6.22996e-28)
(-0.0001938617 2.90759e-05 -3.190121e-28)
(-0.0001678155 6.098132e-05 -6.782448e-26)
(-0.0001809369 4.611004e-05 -3.232206e-28)
(-0.0001443981 8.056358e-05 7.333796e-25)
(-0.0001585314 6.676228e-05 -1.617759e-24)
(-0.0001152875 9.221272e-05 -4.98976e-28)
(-0.0001348563 8.684475e-05 -4.111643e-28)
(-0.0001015974 9.329558e-05 2.142381e-28)
(-7.405547e-05 8.434824e-05 6.103308e-29)
(-0.0001292419 8.318779e-06 1.672617e-25)
(-8.540979e-05 2.210332e-06 3.767083e-28)
(-0.0001864173 1.911687e-05 1.290402e-26)
(-0.0001784933 8.976349e-06 -1.245861e-29)
(-0.0001904167 3.325107e-05 -2.010911e-29)
(-0.0001997735 1.902307e-05 4.193634e-28)
(-0.0001719344 5.172819e-05 -6.111653e-28)
(-0.0001843007 3.447909e-05 0)
(-0.0001495088 7.272875e-05 -5.433666e-28)
(-0.0001624486 5.655185e-05 -2.045038e-24)
(-0.0001206046 8.812685e-05 -1.875565e-25)
(-0.0001424866 8.21366e-05 4.274192e-28)
(-0.0001105761 9.593786e-05 1.396057e-27)
(-7.561384e-05 8.12283e-05 -6.635476e-25)
(-0.0001346379 2.725548e-06 -1.851986e-25)
(-8.937781e-05 -1.267783e-06 4.684684e-25)
(-0.0001918887 8.876939e-06 4.323186e-28)
(-0.0001846338 -4.895239e-07 5.25106e-28)
(-0.0001937415 2.023438e-05 4.395881e-28)
(-0.000204609 5.584505e-06 1.075243e-24)
(-0.0001749673 3.921864e-05 -4.625366e-28)
(-0.0001889799 2.087132e-05 6.474655e-29)
(-0.0001561441 6.520596e-05 -4.062396e-25)
(-0.000172002 4.882957e-05 -2.921358e-28)
(-0.0001325004 9.003726e-05 -2.642976e-25)
(-0.0001624816 8.844945e-05 -1.883982e-24)
(-0.0001377702 0.0001245015 1.964392e-27)
(-7.874353e-05 8.811233e-05 -1.643367e-24)
(-0.0001392981 -4.63582e-06 -2.041588e-25)
(-9.313321e-05 -5.48904e-06 4.372969e-28)
(-0.0001973868 -3.790768e-06 1.051886e-27)
(-0.0001921075 -1.127245e-05 5.048757e-25)
(-0.0001999138 6.195261e-06 5.853287e-28)
(-0.0002146086 -7.703429e-06 -8.563662e-29)
(-0.0001861021 3.040577e-05 2.100119e-25)
(-0.0002052958 1.225992e-05 3.10343e-29)
(-0.0001783431 7.136263e-05 4.307849e-25)
(-0.0002017767 5.564589e-05 8.251606e-28)
(-0.0001679738 0.0001214294 9.137608e-25)
(-0.0002111422 0.0001236516 3.753802e-29)
(-0.0002181236 0.0001848998 7.736354e-28)
(-0.0001158814 0.0001231424 1.43141e-25)
(-0.0001455278 -1.22822e-05 -6.029477e-28)
(-9.848831e-05 -9.477517e-06 -5.603049e-28)
(-0.0002094049 -1.521989e-05 3.907131e-26)
(-0.0002067614 -2.019293e-05 1.350273e-24)
(-0.0002200329 -1.673781e-06 -7.680621e-26)
(-0.0002403999 -1.456591e-05 -2.785701e-25)
(-0.0002210109 3.739429e-05 6.202461e-28)
(-0.0002486595 1.899364e-05 -1.399794e-27)
(-0.0002345676 0.0001075288 7.061878e-25)
(-0.0002691242 9.014692e-05 1.21601e-25)
(-0.0002616811 0.000185014 1.51177e-28)
(-0.000329299 0.0001927291 8.22936e-29)
(-0.0004671557 0.0002746455 1.066537e-25)
(-0.0002809535 0.0002008612 3.380103e-25)
(-0.0001587846 -1.747767e-05 -1.913668e-27)
(-0.0001084435 -1.176704e-05 1.04777e-24)
(-0.0002377795 -1.960616e-05 4.424896e-25)
(-0.0002363299 -2.253241e-05 -1.3455e-27)
(-0.0002692818 6.203515e-06 -1.990198e-27)
(-0.0002944451 -6.961368e-06 -6.191397e-28)
(-0.0002967976 7.166997e-05 -6.426315e-28)
(-0.000332232 5.116841e-05 9.036604e-25)
(-0.0003635323 0.0001748292 1.617812e-24)
(-0.0004139033 0.0001564914 -3.474676e-28)
(-0.0005291996 0.0002789626 1.036708e-25)
(-0.0006621895 0.0002867782 1.710162e-23)
(-0.001161512 0.0004181007 -1.273643e-20)
(-0.0007449055 0.0001871426 -1.19086e-20)
(-0.0001850801 -1.693974e-05 2.146458e-25)
(-0.0001255585 -1.041365e-05 5.8662e-29)
(-0.0002921712 -1.012024e-05 6.386725e-30)
(-0.0002860965 -1.288455e-05 -4.811289e-30)
(-0.0003579128 3.810025e-05 -3.332066e-29)
(-0.000380762 2.260291e-05 -3.134784e-29)
(-0.0004507354 0.0001368004 -1.117411e-27)
(-0.0004889286 0.0001077515 -7.114071e-24)
(-0.0007122752 0.0002676283 -1.254819e-25)
(-0.0007890647 0.0002300962 4.841322e-23)
(-0.001284662 9.12865e-05 -1.137927e-19)
(-0.001580999 0.0004079647 4.28942e-20)
(-0.002838638 0.0006630683 -2.557499e-19)
(-0.001979286 -0.001374021 -6.797433e-19)
(-0.0002262138 -6.519964e-06 6.58116e-28)
(-0.0001489984 -2.71782e-06 -1.584148e-24)
(-0.0003732542 1.927825e-05 -1.934514e-25)
(-0.0003525728 1.46988e-05 -1.108018e-29)
(-0.0005095597 9.069741e-05 2.162757e-27)
(-0.0005221935 6.748957e-05 -1.827238e-28)
(-0.0008303066 0.0002009457 3.027967e-23)
(-0.0008634712 0.0001497694 2.698959e-26)
(-0.001652278 2.741286e-05 -1.149821e-19)
(-0.001749491 0.0002840825 2.290105e-20)
(-0.002998703 -0.001748476 4.441747e-20)
(-0.003502057 0.0005677622 -2.43364e-19)
(-0.005630456 0.001039257 -4.53302e-19)
(-0.004178997 -0.005878383 -3.298974e-20)
(-0.0002750116 1.832065e-05 7.211028e-28)
(-0.000168429 1.408496e-05 7.212011e-28)
(-0.0005009479 6.259883e-05 -1.513842e-28)
(-0.0004503992 4.708691e-05 -1.13143e-28)
(-0.0008686733 0.0001244875 -7.63542e-24)
(-0.0008303754 8.166832e-05 1.045325e-26)
(-0.001722066 -2.594598e-05 -9.851831e-20)
(-0.00165869 0.0001471261 -1.220122e-21)
(-0.003521107 -0.001674588 5.896381e-18)
(-0.003463217 0.0003406159 -4.053636e-19)
(-0.005646455 -0.006069239 2.335756e-18)
(-0.006666954 0.0007045307 2.73604e-19)
(-0.008931945 0.001476444 -2.660915e-18)
(-0.006978034 -0.01309478 9.898644e-19)
(-0.0003428378 4.254365e-05 -1.129189e-28)
(-0.0001808692 3.725206e-05 0)
(-0.0007805858 6.544952e-05 -6.319473e-24)
(-0.0006506724 3.006422e-05 -1.082912e-25)
(-0.001600783 -1.962331e-05 -1.74903e-20)
(-0.001428258 2.385161e-05 -5.019317e-21)
(-0.003214374 -0.001604685 1.256465e-19)
(-0.002966921 8.614603e-05 6.91019e-20)
(-0.0057016 -0.005780503 -9.014152e-19)
(-0.005596522 0.0003859689 1.839046e-19)
(-0.009057241 -0.01248505 -4.175513e-17)
(-0.008895589 0.001065304 5.407425e-19)
(-0.01337342 0.0014137 5.053131e-18)
(-0.009611785 -0.02243437 1.756302e-17)
(-0.0004855238 2.401478e-05 -1.075619e-25)
(-0.0002547664 1.909792e-06 3.533618e-28)
(-0.001294185 -1.456769e-05 -4.792881e-22)
(-0.001030526 -6.850185e-05 1.01066e-21)
(-0.002699084 -0.0009823476 -5.446013e-19)
(-0.002339394 -0.0001074501 3.342619e-21)
(-0.004927307 -0.005170341 -4.594711e-19)
(-0.004752243 -9.189059e-05 -1.518865e-18)
(-0.007619719 -0.01203967 -5.287784e-18)
(-0.007644302 0.0003363227 9.112644e-19)
(-0.01017261 -0.02138616 -5.769881e-18)
(-0.01060552 0.001191396 -1.71016e-18)
(-0.01318083 0.002032403 1.319398e-18)
(-0.01370599 -0.03335262 -3.845234e-17)
(-0.0007942736 -9.175301e-05 -4.127714e-24)
(-0.0004147987 -7.595322e-05 -1.960155e-24)
(-0.002011411 -0.0005679897 3.278433e-21)
(-0.001572725 -0.000217183 8.085262e-21)
(-0.003839419 -0.003573479 -1.318544e-18)
(-0.003362826 -0.0003171381 -2.008284e-19)
(-0.006501576 -0.01007228 2.520629e-18)
(-0.005856337 -0.0002903611 8.133099e-19)
(-0.008824052 -0.01975632 -2.997415e-19)
(-0.009962233 -9.731051e-05 -1.427447e-17)
(-0.01084818 -0.03193482 -1.474871e-17)
(-0.01176709 0.001022626 5.219426e-19)
(-0.01424091 0.001901778 -4.625245e-18)
(-0.01202668 -0.04670405 -1.344164e-18)
(-0.001166658 -0.0002378682 2.343732e-21)
(-0.0006227807 -0.0001444315 -1.314311e-21)
(-0.002734943 -0.002193945 8.656822e-21)
(-0.002190176 -0.0004254029 2.553341e-20)
(-0.004713666 -0.007736008 1.405764e-18)
(-0.004293226 -0.0006552955 -3.57638e-19)
(-0.006926093 -0.01646156 5.834445e-18)
(-0.006663777 -0.0006979684 6.466153e-19)
(-0.01003289 -0.02827446 1.537781e-17)
(-0.009148286 -0.0002669039 -2.273274e-18)
(-0.0126366 -0.04242384 -3.339359e-17)
(-0.01143975 0.0006571454 7.447634e-19)
(-0.01943748 0.000359257 -2.572279e-17)
(-0.01251763 -0.06026795 -3.230389e-17)
(-0.001551424 -0.00079426 -2.686377e-21)
(-0.0008733785 -0.0002388405 1.092408e-20)
(-0.003312025 -0.004878201 -7.339555e-21)
(-0.002771493 -0.0007346251 -4.05049e-20)
(-0.005173203 -0.01281041 -4.707136e-19)
(-0.00496962 -0.001150765 2.041827e-18)
(-0.00693655 -0.02403099 -7.770219e-18)
(-0.007159958 -0.001306408 -2.702078e-19)
(-0.008694261 -0.03790041 -1.919915e-17)
(-0.009226348 -0.0008876064 8.519066e-19)
(-0.0105829 -0.05397195 5.965516e-18)
(-0.01126178 0.0001418084 -7.1449e-18)
(-0.01447805 0.001406395 1.86645e-17)
(-0.01513012 -0.0728694 -2.595258e-17)
(-0.00186542 -0.001964787 3.798881e-20)
(-0.00110422 -0.0003609252 -1.040899e-19)
(-0.003657836 -0.008089606 -1.0262e-18)
(-0.003181489 -0.001128327 4.780961e-19)
(-0.005287304 -0.01816015 3.774778e-18)
(-0.00539333 -0.001771332 -5.278784e-19)
(-0.006722167 -0.0315444 1.740076e-17)
(-0.007404734 -0.00200956 7.594777e-19)
(-0.008155014 -0.04751766 3.854719e-18)
(-0.009335222 -0.00150467 -7.063692e-18)
(-0.009954052 -0.06552455 -1.48458e-17)
(-0.0112566 -0.0001335803 5.733223e-18)
(-0.01364662 0.001840968 1.658207e-18)