/*--------------------------------*- C++ -*----------------------------------*\
| =========                 |                                                 |
| \\      /  F ield         | OpenFOAM: The Open Source CFD Toolbox           |
|  \\    /   O peration     | Version:  2206                                  |
|   \\  /    A nd           | Website:  www.openfoam.com                      |
|    \\/     M anipulation  |                                                 |
\*---------------------------------------------------------------------------*/
FoamFile
{
    version     2.0;
    format      ascii;
    arch        "LSB;label=32;scalar=64";
    class       surfaceVectorField;
    location    "1.2";
    object      ddtCorrDdt0(Ufb);
}
// * * * * * * * * * * * * * * * * * * * * * * * * * * * * * * * * * * * * * //

dimensions      [0 1 -2 0 0 0 0];

internalField   nonuniform List<vector> 
26037
(
(-3.003188e-05 -0.0002734633 -3.587963e-21)
(-0.0002951152 -8.342718e-05 1.490547e-26)
(-1.938384e-05 -8.599585e-05 -7.726978e-22)
(7.213686e-05 -0.0001004458 1.941547e-23)
(-1.630872e-05 -5.497264e-05 -2.049331e-26)
(7.491968e-05 -0.0001095077 -2.053985e-26)
(-1.996268e-05 -0.0001781801 -1.821615e-26)
(2.691526e-05 -0.000142522 0)
(-2.020354e-05 -0.000294586 9.103652e-23)
(1.182238e-05 -0.0002384502 -1.83835e-26)
(-1.89822e-05 -0.0003855928 -5.204127e-26)
(8.996467e-06 -0.0003345584 1.590059e-25)
(1.162139e-05 -0.0004168421 -2.857202e-26)
(-1.733598e-05 -0.0004605612 4.885527e-23)
(2.095078e-05 -6.469003e-05 -1.667974e-28)
(3.325205e-05 -1.922641e-05 1.749935e-26)
(6.220702e-05 -9.413894e-05 -1.684006e-28)
(4.790546e-05 -2.145807e-05 -1.838571e-26)
(6.423094e-05 -0.0001053876 0)
(0.0001097172 -9.627989e-05 9.072796e-27)
(4.444367e-05 -0.0001926045 -1.695757e-28)
(8.127691e-05 -0.0001524503 2.766513e-26)
(3.602119e-05 -0.0002941 -2.501074e-28)
(6.421662e-05 -0.000240407 7.718127e-25)
(3.788056e-05 -0.0003806732 -2.387698e-28)
(6.265932e-05 -0.0003297654 -8.05853e-29)
(7.022662e-05 -0.0004088345 -1.875364e-26)
(4.445923e-05 -0.0004542961 -3.26562e-26)
(0.0001298942 0.0001142193 -8.185438e-28)
(0.0003237293 2.844714e-05 -2.027641e-21)
(0.0001183163 -3.758236e-05 -9.437136e-27)
(0.000177156 8.973367e-06 2.965702e-22)
(0.0001107525 -0.0001078067 9.50975e-23)
(0.0001495968 -7.718078e-05 -4.423335e-26)
(9.337101e-05 -0.0001967247 -1.488415e-24)
(0.0001223714 -0.000150605 2.917561e-27)
(8.776999e-05 -0.0002887836 1.906855e-26)
(0.000111659 -0.0002364783 1.283921e-25)
(9.432051e-05 -0.0003704784 -1.61868e-31)
(0.0001165378 -0.0003198693 0)
(0.0001299763 -0.0003956657 1.137088e-25)
(0.0001066133 -0.0004425106 3.291819e-26)
(0.0002608895 5.062296e-05 -2.419661e-26)
(0.0002820843 1.268111e-06 3.265555e-26)
(0.0001910786 -3.348989e-05 -1.108374e-25)
(0.000235947 -1.838692e-05 9.740986e-23)
(0.0001574046 -0.0001063228 3.215964e-24)
(0.0001936014 -7.655806e-05 2.799821e-23)
(0.0001402969 -0.0001914418 -2.43522e-26)
(0.0001690704 -0.0001476059 7.334557e-24)
(0.0001407291 -0.0002772585 8.276061e-28)
(0.0001634949 -0.0002271913 1.231792e-26)
(0.0001526729 -0.0003550267 4.074331e-28)
(0.0001735445 -0.0003053248 -1.806488e-30)
(0.0001919061 -0.0003780049 2.753619e-26)
(0.0001702104 -0.0004255441 -3.216801e-26)
(0.0002789771 -8.627058e-06 -3.35535e-24)
(0.0002930831 -8.555686e-06 -5.679153e-29)
(0.0002334759 -4.499695e-05 -6.350286e-24)
(0.0002642863 -3.420302e-05 -3.659894e-26)
(0.0002043434 -0.0001082416 -1.405431e-25)
(0.0002352689 -8.114077e-05 -7.139386e-26)
(0.000192357 -0.0001850634 1.020527e-24)
(0.0002190404 -0.0001456475 -6.641176e-24)
(0.0001968137 -0.000262814 3.744923e-23)
(0.0002191003 -0.0002164605 -2.104556e-24)
(0.0002133728 -0.0003359848 -3.523373e-23)
(0.0002328082 -0.0002871445 -2.345474e-26)
(0.000255512 -0.0003566487 -1.16519e-25)
(0.0002353428 -0.0004045801 2.712871e-26)
(0.0002908336 -1.840465e-05 3.766213e-28)
(0.0003111283 -1.061629e-05 0)
(0.0002674279 -5.420118e-05 3.896478e-24)
(0.0002918494 -4.003978e-05 -5.205476e-26)
(0.0002502061 -0.0001109067 -4.049456e-24)
(0.0002748357 -8.446276e-05 -6.240588e-26)
(0.0002462071 -0.0001778798 -1.094387e-25)
(0.0002690215 -0.0001411733 -5.710813e-26)
(0.00025527 -0.0002465497 -2.112247e-26)
(0.0002757753 -0.0002040277 1.392629e-24)
(0.0002751048 -0.0003138268 3.033952e-23)
(0.00029315 -0.0002665358 -2.079776e-26)
(0.000319404 -0.0003310182 -5.811041e-26)
(0.0003011791 -0.0003799548 1.489023e-23)
(0.0003140099 -2.43027e-05 -5.240407e-26)
(0.0003312932 -1.249772e-05 1.227198e-25)
(0.0003006149 -6.038678e-05 -1.141856e-25)
(0.0003198525 -4.324885e-05 -1.245059e-23)
(0.0002943177 -0.0001095898 -2.093016e-23)
(0.0003134526 -8.351397e-05 1.627807e-24)
(0.0002988098 -0.0001671945 -6.246493e-26)
(0.0003169129 -0.0001323447 -1.479921e-26)
(0.0003135242 -0.0002279025 -2.016752e-24)
(0.0003305417 -0.0001869913 -1.648741e-25)
(0.0003369905 -0.0002894685 3.02705e-27)
(0.0003530933 -0.0002426815 6.0642e-27)
(0.0003820749 -0.0003017824 3.575469e-27)
(0.0003661187 -0.0003514827 -1.588009e-27)
(0.0003384914 -2.705008e-05 6.196693e-26)
(0.0003536301 -1.276012e-05 3.09115e-24)
(0.0003331659 -6.066784e-05 -1.208868e-25)
(0.0003478608 -4.199583e-05 7.796382e-26)
(0.0003356525 -0.0001023657 -6.070757e-26)
(0.0003494514 -7.676402e-05 1.013883e-26)
(0.0003478251 -0.0001517111 -1.181737e-25)
(0.000360776 -0.0001178819 1.933443e-27)
(0.0003690483 -0.0002045708 -1.142495e-25)
(0.0003810084 -0.0001641282 5.304729e-23)
(0.0003969095 -0.0002614733 -4.417698e-24)
(0.0004103104 -0.0002135122 6.105956e-27)
(0.0004414178 -0.0002685421 3.60019e-27)
(0.0004293451 -0.0003182728 -2.909247e-26)
(0.0003628688 -2.578049e-05 1.387047e-25)
(0.0003756574 -1.113277e-05 3.7729e-23)
(0.0003633003 -5.477846e-05 2.08974e-25)
(0.000373512 -3.594355e-05 -4.385848e-23)
(0.0003727992 -8.917097e-05 1.587956e-24)
(0.0003810711 -6.400615e-05 -2.880018e-23)
(0.0003918058 -0.0001299782 -2.678765e-25)
(0.0003987795 -9.697089e-05 -1.517114e-25)
(0.0004193653 -0.0001747773 -7.254229e-25)
(0.0004251123 -0.0001346121 4.639188e-23)
(0.0004526505 -0.0002238171 3.065303e-27)
(0.0004601661 -0.0001781471 3.064358e-27)
(0.000498186 -0.0002285644 0)
(0.0004902916 -0.0002785215 6.603901e-26)
(0.0003843603 -2.07724e-05 -8.984558e-28)
(0.0003937436 -7.761327e-06 -1.571295e-25)
(0.0003888607 -4.315178e-05 2.34127e-25)
(0.0003940468 -2.539786e-05 1.563171e-25)
(0.000403994 -6.935828e-05 -7.33347e-26)
(0.0004060555 -4.525025e-05 2.511449e-25)
(0.0004296724 -0.0001018177 -1.525644e-25)
(0.0004296263 -6.890319e-05 6.757522e-23)
(0.0004629143 -0.0001409071 -7.049649e-29)
(0.0004639663 -9.844607e-05 -1.267016e-22)
(0.0005023498 -0.0001822517 0)
(0.0005019303 -0.0001357499 0)
(0.0005488097 -0.0001802203 0)
(0.0005475181 -0.0002318298 8.362782e-26)
(0.0003997595 -1.274466e-05 0)
(0.0004044936 -2.861879e-06 0)
(0.0004073388 -2.624453e-05 1.732607e-25)
(0.0004064545 -1.083641e-05 -1.922931e-25)
(0.0004277733 -4.318231e-05 5.464205e-27)
(0.0004223345 -2.03703e-05 -9.571819e-23)
(0.000459492 -6.80692e-05 -1.704922e-25)
(0.0004531488 -3.397644e-05 1.625663e-26)
(0.0004986252 -9.49549e-05 7.432588e-29)
(0.0004902476 -5.562981e-05 7.85647e-23)
(0.0005455947 -0.0001314161 0)
(0.0005379522 -8.487078e-05 0)
(0.0005934061 -0.0001222323 1.957702e-25)
(0.0005996414 -0.0001761903 -8.432373e-26)
(0.0004060052 -1.922611e-06 -1.922131e-25)
(0.0004046531 3.415668e-06 0)
(0.0004165862 -4.575676e-06 -9.139675e-28)
(0.0004081715 7.7841e-06 1.312213e-22)
(0.000441658 -1.198755e-05 3.798342e-25)
(0.0004290683 1.001467e-05 1.902594e-25)
(0.0004788843 -2.286023e-05 -1.433326e-24)
(0.0004624354 6.905527e-06 -1.05156e-22)
(0.0005256154 -4.25751e-05 -1.922601e-25)
(0.0005086232 -4.34315e-06 -4.007295e-25)
(0.0005819051 -7.137191e-05 1.957028e-25)
(0.0005652006 -2.392846e-05 2.078422e-25)
(0.0006307451 -5.3621e-05 -8.662116e-23)
(0.0006459633 -0.0001101522 7.250053e-24)
(0.0004003937 1.134553e-05 -2.113277e-25)
(0.0003913794 1.121794e-05 -2.293074e-25)
(0.0004136671 2.121166e-05 9.028838e-25)
(0.0003971447 3.009407e-05 -2.113623e-25)
(0.0004430205 2.914283e-05 2.046282e-25)
(0.0004199985 4.520433e-05 -2.802409e-27)
(0.0004872706 2.845449e-05 -3.12697e-27)
(0.0004609868 5.530324e-05 2.065338e-25)
(0.0005430816 1.906124e-05 -2.822927e-28)
(0.0005157257 5.656643e-05 1.330709e-22)
(0.0006095122 -6.997277e-07 2.079502e-25)
(0.0005822544 4.770482e-05 -1.19649e-22)
(0.0006594141 2.710424e-05 1.024923e-22)
(0.0006851886 -3.207605e-05 1.051395e-28)
(0.0003799492 2.685511e-05 -2.293517e-25)
(0.0003621497 2.036559e-05 1.903333e-22)
(0.0003957483 5.344185e-05 -1.399763e-27)
(0.0003688681 5.576513e-05 0)
(0.0004304947 7.505374e-05 -3.194517e-24)
(0.0003966116 8.638109e-05 -4.188572e-27)
(0.0004831688 8.827956e-05 -4.597619e-25)
(0.0004448771 0.000112483 2.692807e-25)
(0.0005489202 9.104083e-05 -2.268425e-25)
(0.0005095923 0.0001273043 1.62061e-22)
(0.0006268494 8.200378e-05 4.373591e-28)
(0.0005873788 0.0001312237 2.269443e-25)
(0.0006777605 0.0001214624 1.949981e-26)
(0.0007157621 5.967052e-05 -9.410612e-27)
(0.0003418977 4.436443e-05 -2.476833e-25)
(0.000314785 3.029752e-05 -2.475691e-25)
(0.0003606111 8.93305e-05 -2.785516e-27)
(0.0003215066 8.515169e-05 -2.655232e-25)
(0.0004018099 0.0001282834 -6.524318e-24)
(0.000354986 0.0001345321 -2.786227e-27)
(0.0004632673 0.0001578375 7.391223e-23)
(0.0004107711 0.0001788144 -1.935978e-22)
(0.0005411563 0.0001746609 -2.064656e-25)
(0.000486895 0.0002102094 -2.024933e-25)
(0.0006321237 0.0001782304 2.46042e-25)
(0.0005784778 0.0002283349 6.416642e-27)
(0.0006839509 0.0002311181 -1.365835e-22)
(0.0007359384 0.000166703 4.919257e-25)
(0.0002836047 6.617095e-05 -2.65395e-25)
(0.000244752 4.110901e-05 0)
(0.0003057074 0.0001314437 -2.655767e-25)
(0.0002529917 0.0001187016 2.537201e-22)
(0.0003542376 0.000190032 2.690404e-25)
(0.0002927486 0.0001905411 -1.383729e-27)
(0.0004252743 0.0002383261 1.198288e-23)
(0.0003578116 0.0002549457 2.673598e-25)
(0.0005173701 0.0002718863 1.15643e-26)
(0.000446999 0.0003059375 5.133982e-27)
(0.0006234272 0.0002897986 1.248105e-23)
(0.0005538868 0.0003406922 6.413855e-27)
(0.0006761932 0.0003579271 2.735403e-25)
(0.000743968 0.0002907536 2.82656e-25)
(0.0002016102 9.153859e-05 -5.673225e-25)
(0.0001482473 5.368018e-05 -3.01726e-25)
(0.0002282473 0.0001802931 -5.690949e-25)
(0.0001599446 0.000157553 3.02523e-22)
(0.0002851013 0.0002616334 -4.735749e-24)
(0.0002065798 0.0002553034 -4.118155e-27)
(0.0003680142 0.0003309782 -1.996288e-27)
(0.000282519 0.0003433094 -3.908165e-27)
(0.0004756209 0.0003839272 0)
(0.0003866092 0.0004161323 0)
(0.0005987777 0.0004185697 0)
(0.000511007 0.0004702723 -3.115834e-25)
(0.0006525236 0.0005040861 -1.543208e-26)
(0.000738167 0.0004338022 -9.053643e-27)
(9.216675e-05 0.0001197617 -1.768491e-25)
(2.220828e-05 6.861217e-05 3.596346e-22)
(0.0001244114 0.0002364465 -3.670411e-24)
(3.766536e-05 0.0002027484 -6.222314e-25)
(0.0001909682 0.0003442104 -5.530965e-24)
(9.258709e-05 0.0003300027 -6.74123e-27)
(0.0002876935 0.0004379334 -1.974279e-27)
(0.0001812785 0.0004453459 -5.755424e-27)
(0.0004130304 0.0005132219 -3.152055e-25)
(0.0003025275 0.0005433431 0)
(0.0005558288 0.0005670014 -1.644507e-23)
(0.000447203 0.0006195673 2.373174e-22)
(0.0006108273 0.0006723326 -2.309532e-26)
(0.0007167883 0.0005984056 -1.635232e-23)
(-4.895251e-05 0.00015245 4.695088e-26)
(-0.0001380817 8.610261e-05 -6.55481e-25)
(-1.015356e-05 0.0003012833 -4.445868e-24)
(-0.0001183187 0.0002552296 4.038515e-22)
(6.785713e-05 0.0004395496 -1.290231e-23)
(-5.359457e-05 0.0004163699 -3.424944e-25)
(0.0001805943 0.000561393 -3.873734e-27)
(5.002401e-05 0.000563434 -3.811751e-27)
(0.0003263273 0.0006623031 -3.291865e-25)
(0.0001909099 0.0006914234 3.393176e-26)
(0.0004920223 0.0007379149 -3.327764e-25)
(0.000359337 0.0007902537 -2.716521e-25)
(0.0005485773 0.0008658615 7.379825e-27)
(0.000677806 0.0007877223 -1.895239e-23)
(-0.0002267456 0.0001903708 -1.009892e-24)
(-0.0003381504 0.0001064658 4.855139e-22)
(-0.0001802622 0.0003763218 -1.012297e-24)
(-0.0003132783 0.0003160894 4.681125e-22)
(-8.890614e-05 0.0005499002 -3.387351e-25)
(-0.0002371123 0.0005162731 4.40243e-22)
(4.221672e-05 0.0007045065 3.362416e-26)
(-0.0001165034 0.0006997705 -3.554564e-25)
(0.0002092119 0.0008347454 1.739443e-22)
(4.351667e-05 0.00086164 3.84716e-26)
(0.0004040038 0.0009348353 4.628612e-23)
(0.0002401376 0.0009900096 -3.08667e-25)
(0.0004625257 0.001089426 3.78185e-25)
(0.0006188841 0.001005547 1.504566e-26)
(-0.0004470546 0.0002343337 -2.302407e-24)
(-0.0005843991 0.0001301225 -3.525238e-25)
(-0.0003914756 0.0004632322 4.478061e-24)
(-0.000553404 0.0003866682 5.435927e-22)
(-0.0002844801 0.0006773948 -1.065512e-24)
(-0.0004636097 0.00063201 5.14323e-22)
(-0.000132789 0.0008689791 2.027818e-23)
(-0.0003225523 0.0008575418 4.763471e-22)
(5.827334e-05 0.001033228 -3.525862e-25)
(-0.0001374135 0.001056071 4.686082e-27)
(0.0002889124 0.00116317 9.848218e-27)
(9.200103e-05 0.001221009 3.395433e-22)
(0.0003507908 0.00134791 -2.873879e-22)
(0.000537727 0.001256872 -2.523704e-23)
(-0.000716691 0.0002852856 -3.682209e-25)
(-0.0008842571 0.0001575835 3.81232e-25)
(-0.0006503597 0.0005638963 6.078745e-24)
(-0.0008459223 0.0004685371 -3.682747e-25)
(-0.0005249572 0.000825338 -1.123268e-24)
(-0.0007402863 0.0007662262 -3.708466e-25)
(-0.0003484197 0.001060614 -7.536996e-25)
(-0.0005755418 0.001040741 5.52192e-22)
(-0.0001263118 0.001263328 -3.769717e-25)
(-0.0003601577 0.001283431 4.035222e-25)
(0.0001428987 0.00142699 -3.785812e-25)
(-9.264615e-05 0.00148766 -3.849601e-25)
(0.0002089223 0.001646629 3.44947e-22)
(0.000431621 0.0015473 -3.818991e-25)
(-0.001043614 0.0003444323 3.813009e-25)
(-0.001246448 0.000189436 -7.624531e-22)
(-0.0009646383 0.0006806547 0)
(-0.001199284 0.0005634407 0)
(-0.000817828 0.0009968026 2.887317e-27)
(-0.001075175 0.0009217802 0)
(-0.0006120239 0.001282504 2.919971e-23)
(-0.0008828674 0.001253144 -6.471445e-22)
(-0.0003532784 0.001529929 4.118126e-25)
(-0.0006319148 0.001547909 -5.919635e-22)
(-3.976062e-05 0.00173233 -4.21618e-25)
(-0.0003207293 0.001800584 -4.25491e-25)
(3.111838e-05 0.001990144 -4.188848e-25)
(0.0002965572 0.001883809 -8.557856e-25)
(-0.001437087 0.0004129624 7.861175e-25)
(-0.001681009 0.0002263441 -8.851029e-22)
(-0.001343269 0.0008159333 0)
(-0.001623312 0.0006733358 3.772334e-28)
(-0.001171649 0.001195551 4.053665e-25)
(-0.001477779 0.001101871 4.132872e-25)
(-0.0009320949 0.00154011 -3.084888e-23)
(-0.001253779 0.001499058 4.074956e-25)
(-0.0006316071 0.001841188 4.208377e-25)
(-0.0009631708 0.001853835 -6.556096e-22)
(-0.0002728717 0.00208967 -4.281591e-25)
(-0.0006109862 0.002161799 4.994876e-22)
(-0.0001981666 0.00239669 0)
(0.000126616 0.002275563 4.541916e-25)
(-0.001907762 0.0004922534 4.027352e-25)
(-0.002199454 0.0002690224 4.021176e-25)
(-0.001796584 0.0009724207 1.119951e-23)
(-0.00212925 0.000800371 -4.127592e-25)
(-0.001596226 0.001425428 4.154294e-25)
(-0.001958884 0.001310099 -9.393018e-22)
(-0.001317673 0.001837675 3.803969e-23)
(-0.001698009 0.00178363 2.070326e-27)
(-0.0009708279 0.00219846 -4.411989e-25)
(-0.001359786 0.002207954 8.048491e-22)
(-0.0005616966 0.002501666 -4.563305e-25)
(-0.0009528659 0.002574181 -4.322522e-25)
(-0.0004698767 0.00286996 9.125255e-27)
(-8.281073e-05 0.002732988 4.690686e-25)
(-0.002467867 0.0005838135 -4.128721e-25)
(-0.00281497 0.0003182344 -4.106396e-25)
(-0.002336509 0.001153171 8.150997e-27)
(-0.002730056 0.0009468827 1.145456e-21)
(-0.002103067 0.001691223 4.217291e-25)
(-0.002531182 0.001550404 8.486572e-25)
(-0.001779428 0.002182772 -4.425715e-25)
(-0.002228295 0.002112469 0)
(-0.001377477 0.002616059 9.865579e-23)
(-0.00183621 0.002618558 -4.450276e-25)
(-0.0009022999 0.002982209 1.37965e-22)
(-0.00136467 0.003057605 1.275962e-26)
(-0.000800941 0.003417934 1.58268e-26)
(-0.0003394946 0.003266887 -3.848985e-27)
(-0.003131364 0.0006891908 -8.271983e-25)
(-0.003542419 0.0003747849 1.361629e-21)
(-0.002976745 0.001361416 1.010554e-26)
(-0.003440493 0.001115158 -8.322797e-25)
(-0.002705504 0.001997633 4.273153e-25)
(-0.003208985 0.001826937 -1.260123e-21)
(-0.002330524 0.00258086 -2.389748e-27)
(-0.002858256 0.002491278 0)
(-0.00186497 0.003097731 -1.132704e-22)
(-0.002404645 0.003092107 -2.39009e-27)
(-0.00131336 0.003537486 1.536532e-22)
(-0.001858586 0.003617741 -4.930763e-25)
(-0.001205736 0.004060963 5.238539e-25)
(-0.0006572636 0.003886349 5.434503e-25)
(-0.003914113 0.0008097309 -8.236267e-25)
(-0.004398636 0.0004391972 -8.072963e-25)
(-0.003732961 0.001600554 1.281206e-26)
(-0.004277531 0.001307701 1.548603e-21)
(-0.003418525 0.00234993 4.288243e-25)
(-0.004008607 0.002144225 4.284884e-25)
(-0.002985094 0.00303919 0)
(-0.003603578 0.002926547 4.497367e-25)
(-0.002447336 0.003653463 -4.921641e-25)
(-0.003080059 0.003636732 3.053493e-27)
(-0.001811064 0.004182662 7.816354e-27)
(-0.002452404 0.004260529 1.001674e-21)
(-0.001721756 0.004792149 -5.016553e-22)
(-0.001071204 0.004610433 -1.193336e-21)
(-0.004834104 0.0009464895 -1.096857e-23)
(-0.005401622 0.0005133532 1.716676e-21)
(-0.004622909 0.001874308 -4.085806e-25)
(-0.005260382 0.001523504 -4.095977e-25)
(-0.004259288 0.002753815 4.493688e-25)
(-0.004948467 0.002505995 -4.123479e-25)
(-0.003759103 0.003565547 -1.257896e-22)
(-0.004482279 0.00342563 -1.615393e-21)
(-0.003137319 0.004291045 -1.005704e-24)
(-0.003877664 0.004264054 -4.697772e-25)
(-0.002401944 0.004913529 1.644713e-22)
(-0.003147716 0.005004242 1.401964e-21)
(-0.00229361 0.005630456 1.263273e-21)
(-0.001551765 0.005416309 5.954301e-22)
(-0.005912483 0.001097839 -3.863224e-25)
(-0.006576933 0.0005941386 -3.828052e-25)
(-0.005669384 0.002183735 -4.133757e-25)
(-0.006413983 0.001769841 0)
(-0.005248824 0.003214902 -5.799643e-23)
(-0.006052145 0.002916358 1.994141e-21)
(-0.004673486 0.004170264 -2.841711e-26)
(-0.005517577 0.003995304 4.435672e-25)
(-0.00395589 0.005030854 -1.492406e-24)
(-0.004823851 0.004984828 1.798721e-21)
(-0.003103384 0.005780516 -1.573574e-24)
(-0.003983144 0.005868218 1.698901e-21)
(-0.002996379 0.006630862 1.049886e-26)
(-0.002111047 0.006404741 -1.72946e-24)
(-0.007169804 0.0012699 0)
(-0.007939781 0.0006841445 -3.247597e-25)
(-0.006888173 0.002532373 -7.968069e-25)
(-0.007748653 0.002052352 3.455169e-25)
(-0.006410696 0.003738072 -7.938201e-25)
(-0.007342608 0.003367783 2.401225e-21)
(-0.005753499 0.004859937 -9.318409e-25)
(-0.0067343 0.004635671 0)
(-0.004932374 0.005879357 -1.443725e-24)
(-0.005944883 0.005804168 2.135319e-21)
(-0.003954886 0.006780288 4.924763e-26)
(-0.004985944 0.006855175 -5.109098e-25)
(-0.003862808 0.007773343 -1.670511e-21)
(-0.002819284 0.007550166 5.702614e-25)
(-0.008623201 0.001466377 -1.961944e-23)
(-0.009517258 0.0007852634 2.532831e-21)
(-0.00831271 0.002913566 7.173981e-25)
(-0.009308763 0.002355997 -2.413096e-21)
(-0.007778436 0.004315002 3.695953e-25)
(-0.008856053 0.00388364 -4.869285e-21)
(-0.00702936 0.005636833 -4.518487e-25)
(-0.008169393 0.005334538 7.285163e-25)
(-0.006094317 0.006841811 -4.517419e-25)
(-0.007270262 0.006723368 -9.016553e-25)
(-0.004979315 0.00791743 6.035276e-25)
(-0.006182815 0.007975238 -2.565131e-26)
(-0.004895126 0.009077835 6.308766e-25)
(-0.0036857 0.008837376 -5.208194e-22)
(-0.01031155 0.001675885 1.811553e-26)
(-0.01132336 0.0008934761 -2.812254e-25)
(-0.009964046 0.003334584 1.287557e-24)
(-0.01109904 0.002673989 2.963735e-25)
(-0.009379024 0.004948105 1.731663e-24)
(-0.01062021 0.004434917 -2.58661e-21)
(-0.008540642 0.00649662 2.058826e-22)
(-0.009868479 0.006117025 -5.901445e-21)
(-0.00747802 0.007924337 -4.756386e-25)
(-0.008842225 0.007741759 3.181361e-21)
(-0.00621159 0.009215549 2.415722e-22)
(-0.007618796 0.009235598 -9.44514e-26)
(-0.006155143 0.0105723 -1.227441e-25)
(-0.004727617 0.0103389 -5.954082e-22)
(-0.01223323 0.001900874 1.4287e-23)
(-0.01337542 0.001007756 2.035722e-28)
(-0.01186906 0.003779768 2.564749e-25)
(-0.01313065 0.003017016 6.264459e-28)
(-0.01123758 0.005624366 1.737356e-22)
(-0.01262423 0.005004876 4.935207e-25)
(-0.01029942 0.007431304 -2.500009e-22)
(-0.01180504 0.006976674 1.240718e-24)
(-0.00912715 0.009124275 -3.980192e-25)
(-0.01070046 0.00881778 5.157952e-26)
(-0.00770505 0.01067697 5.12334e-22)
(-0.009343149 0.0106182 4.418659e-25)
(-0.007700808 0.01225198 -1.498386e-25)
(-0.006019509 0.01205729 6.4842e-22)
(-0.01440564 0.002134268 -1.310276e-23)
(-0.01568258 0.001121975 1.130441e-27)
(-0.01402611 0.004252924 2.366697e-25)
(-0.01542529 0.00336441 3.357225e-27)
(-0.0133537 0.006355457 -5.662197e-23)
(-0.01491607 0.005595526 -3.135139e-21)
(-0.01238499 0.008415521 -1.160636e-21)
(-0.01409602 0.007840809 -3.318098e-21)
(-0.01111272 0.01039943 -4.222818e-22)
(-0.01292911 0.01000722 1.713609e-25)
(-0.009525651 0.01228783 5.105246e-25)
(-0.0114396 0.01207024 -5.585406e-21)
(-0.009600899 0.01410128 0)
(-0.007625355 0.01398859 2.650752e-26)
(-0.01683251 0.002360206 0)
(-0.01823616 0.001228519 3.07317e-27)
(-0.01645203 0.004711797 1.287643e-25)
(-0.01797446 0.003691622 -9.24334e-27)
(-0.01579763 0.007060792 2.398563e-25)
(-0.01747706 0.006157848 9.800842e-26)
(-0.01481267 0.009419066 4.943857e-23)
(-0.01669015 0.008645473 1.106731e-25)
(-0.01349568 0.0117422 1.140929e-21)
(-0.01556034 0.01117732 -3.789901e-21)
(-0.01176281 0.01401701 -9.792337e-26)
(-0.0140177 0.01362475 3.61436e-26)
(-0.0119571 0.01608862 3.135993e-25)
(-0.009630898 0.01613052 -6.08765e-25)
(-0.01949866 0.002564048 -1.529162e-23)
(-0.02101061 0.001318085 1.507581e-25)
(-0.0191341 0.005134458 6.431816e-24)
(-0.02076057 0.00397322 -1.960213e-26)
(-0.01851829 0.007730264 -3.080116e-26)
(-0.02030562 0.006658522 5.238057e-26)
(-0.01759153 0.01036051 3.223651e-25)
(-0.0195767 0.009402498 0)
(-0.01629609 0.01303693 4.6428e-25)
(-0.01851171 0.01223773 -4.978695e-21)
(-0.01444866 0.01577864 1.729573e-23)
(-0.01696536 0.01521149 1.398925e-24)
(-0.01489526 0.01808358 2.182427e-24)
(-0.01215502 0.01845076 -8.364934e-22)
(-0.02236987 0.002723937 8.83257e-25)
(-0.0239557 0.001379064 1.047763e-21)
(-0.02204945 0.00547917 7.265e-26)
(-0.02374204 0.004172841 2.25651e-25)
(-0.02151297 0.008300938 8.316067e-26)
(-0.02337225 0.007036747 2.078115e-21)
(-0.02069575 0.011226 -8.487042e-26)
(-0.02277402 0.01001205 1.075201e-25)
(-0.01947489 0.0143057 -3.985472e-22)
(-0.02189666 0.01315622 1.980567e-25)
(-0.01778379 0.01751541 8.594206e-22)
(-0.02057235 0.01656609 -4.831024e-21)
(-0.01862057 0.0200806 2.762847e-24)
(-0.0153742 0.02085056 -1.560773e-21)
(-0.02538728 0.002811674 -2.194661e-23)
(-0.02699541 0.001405848 2.72363e-25)
(-0.02514722 0.005697325 4.483339e-25)
(-0.02685277 0.004245462 4.183079e-22)
(-0.02474349 0.00869002 3.198472e-25)
(-0.02660734 0.007227048 -1.36585e-25)
(-0.02412287 0.01185057 4.717053e-22)
(-0.02620539 0.01037453 5.033838e-26)
(-0.02317332 0.01524318 6.442145e-22)
(-0.02559271 0.01377189 6.917861e-25)
(-0.02171352 0.01894404 7.604676e-22)
(-0.0245977 0.01755836 7.218945e-25)
(-0.02287647 0.02193623 8.792182e-25)
(-0.01929516 0.02310036 1.929357e-21)
(-0.0284711 0.002803832 -3.504543e-25)
(-0.03005537 0.001381319 -5.460989e-25)
(-0.02835441 0.00573174 1.371956e-22)
(-0.03000077 0.0042021 2.940353e-21)
(-0.02813557 0.008832034 -2.229378e-22)
(-0.02993116 0.007157917 5.912371e-22)
(-0.02779361 0.012161 3.518114e-25)
(-0.02978607 0.01038987 -9.818951e-25)
(-0.02723044 0.01585704 1.435562e-21)
(-0.02958281 0.01395342 9.419852e-24)
(-0.02610419 0.02014221 1.996325e-25)
(-0.02918101 0.01811259 1.872199e-26)
(-0.02811926 0.02329493 1.22042e-22)
(-0.02416567 0.02516356 5.777743e-22)
(-0.03151652 0.002720412 -1.482782e-24)
(-0.03301946 0.001304951 2.523824e-21)
(-0.03154678 0.005561468 7.293092e-22)
(-0.03307537 0.004014565 -9.232574e-25)
(-0.03158643 0.008633163 -1.270432e-24)
(-0.03320244 0.006860472 -3.416943e-25)
(-0.03158041 0.01200561 -3.388604e-25)
(-0.03337542 0.009972324 6.222502e-21)
(-0.03151508 0.01584271 2.317763e-21)
(-0.03363617 0.01360342 -5.880697e-25)
(-0.03103342 0.0206169 1.185271e-22)
(-0.03398756 0.01817952 1.625922e-20)
(-0.03368021 0.02455727 -1.222679e-18)
(-0.02929065 0.02676491 8.516461e-20)
(-0.0344501 0.00254445 5.524751e-23)
(-0.03579061 0.001195174 1.33319e-25)
(-0.03459684 0.005215758 1.164103e-26)
(-0.03595548 0.003675623 -9.945235e-27)
(-0.03488188 0.00808949 -3.861131e-26)
(-0.0362893 0.006346923 -3.747881e-26)
(-0.03525025 0.01135119 -1.226724e-24)
(-0.03677945 0.009311557 -1.769616e-20)
(-0.03560957 0.01533585 -1.505178e-22)
(-0.03754726 0.0130285 4.157484e-20)
(-0.03540227 0.02080004 -4.754385e-19)
(-0.0383333 0.01868335 1.756667e-18)
(-0.03735149 0.02740127 -2.184025e-18)
(-0.03323446 0.02819166 -1.013551e-18)
(-0.03714886 0.002292746 7.854552e-25)
(-0.0383034 0.001053009 -3.435571e-21)
(-0.03744822 0.004710489 -2.44629e-22)
(-0.03857433 0.003267161 -2.136914e-26)
(-0.03786223 0.007373619 1.805262e-24)
(-0.03912197 0.0057603 -1.085564e-25)
(-0.03845479 0.01056737 1.32754e-20)
(-0.0398902 0.008911167 4.312264e-23)
(-0.03883444 0.01493666 -5.57373e-19)
(-0.04069664 0.01350246 -8.420899e-20)
(-0.03771919 0.02139843 3.721546e-20)
(-0.04022158 0.0212748 -9.625345e-19)
(-0.03680574 0.03326044 -1.522112e-18)
(-0.0336883 0.02952929 -6.524467e-20)
(-0.03956841 0.001972686 9.318974e-25)
(-0.04052456 0.0009007048 9.320244e-25)
(-0.04001094 0.004166657 -7.141851e-26)
(-0.04094372 0.002864816 -3.828747e-26)
(-0.04065191 0.006872174 -3.127231e-21)
(-0.04177296 0.005459296 4.307062e-23)
(-0.0410152 0.0106144 -6.517197e-19)
(-0.04270487 0.009653326 6.812646e-20)
(-0.04026535 0.01614176 1.133599e-17)
(-0.04197358 0.01676716 -3.955774e-18)
(-0.03682822 0.02385889 2.542285e-18)
(-0.03911203 0.02740093 3.945083e-19)
(-0.03337119 0.0416865 -4.274263e-18)
(-0.03029097 0.03322364 9.854993e-19)
(-0.04173608 0.001653125 -3.821163e-26)
(-0.04247159 0.0007590286 0)
(-0.04243245 0.003915431 -1.484178e-21)
(-0.043224 0.002615174 -1.968266e-22)
(-0.04324698 0.007072961 -2.484403e-19)
(-0.04433164 0.005868616 -2.650116e-19)
(-0.0427624 0.01267237 2.560698e-19)
(-0.04479733 0.01227422 5.439654e-19)
(-0.03955263 0.02074262 -1.181052e-18)
(-0.04197641 0.02289922 1.139447e-18)
(-0.03354393 0.03007527 -4.8256e-17)
(-0.03613874 0.0371625 1.229845e-18)
(-0.02860265 0.05349851 3.206056e-18)
(-0.02319267 0.03990138 1.905723e-17)
(-0.04364034 0.001351598 -1.956686e-22)
(-0.04396341 0.0005924544 1.262125e-24)
(-0.04472815 0.003716246 -1.985014e-19)
(-0.04529416 0.002678911 1.108879e-18)
(-0.04522464 0.007959106 -1.997884e-18)
(-0.04640908 0.007525789 2.274824e-19)
(-0.04304653 0.01586048 -5.036473e-19)
(-0.04541257 0.01718144 -4.460056e-18)
(-0.03715627 0.02591624 -5.863945e-18)
(-0.04079956 0.03160503 1.546341e-18)
(-0.02809231 0.03638654 -6.317831e-18)
(-0.03227362 0.04920445 -2.220572e-18)
(-0.02085152 0.06941204 1.926324e-18)
(-0.01619016 0.04728782 -3.931338e-17)
(-0.04520094 0.001146558 -1.481652e-21)
(-0.04490954 0.0004418412 -7.830482e-21)
(-0.04641616 0.003848201 -5.944824e-20)
(-0.04684098 0.003259744 -1.230728e-20)
(-0.04563135 0.009777445 -2.0341e-18)
(-0.0470831 0.01070908 -1.199026e-18)
(-0.04178017 0.01890294 2.376496e-18)
(-0.0438768 0.02423117 1.408746e-18)
(-0.03362316 0.03070407 -4.816572e-19)
(-0.03925125 0.0424981 -1.902619e-17)
(-0.02200735 0.04322808 -1.54438e-17)
(-0.02822332 0.06346293 -4.395148e-19)
(-0.01433969 0.08648151 -5.584587e-18)
(-0.006175101 0.05613042 -1.89336e-18)
(-0.04604882 0.001016418 1.104949e-19)
(-0.04540421 0.0005009693 -1.005315e-19)
(-0.04674151 0.004726891 5.210033e-20)
(-0.0471211 0.004721417 5.704488e-19)
(-0.04446035 0.01243737 1.662449e-18)
(-0.04606371 0.01537121 -2.281188e-19)
(-0.03879746 0.02333947 6.485093e-18)
(-0.04192435 0.03246941 2.093857e-18)
(-0.03025807 0.03586687 1.599695e-17)
(-0.03419866 0.05520765 -1.405297e-18)
(-0.01787298 0.04941131 -3.403157e-17)
(-0.02289134 0.07979832 4.54395e-19)
(-0.01369686 0.1053832 -2.819333e-17)
(0.0005908276 0.06728515 -3.2223e-17)
(-0.04570823 0.0008621588 -3.057154e-20)
(-0.04476371 0.0009564423 1.277296e-18)
(-0.04549079 0.005903407 4.457434e-20)
(-0.04564477 0.007163679 -3.710609e-19)
(-0.04215444 0.0154949 -2.704681e-19)
(-0.04389294 0.0209778 4.337324e-18)
(-0.03541918 0.02838193 -8.049694e-18)
(-0.03911308 0.04155636 -3.525239e-19)
(-0.0252007 0.04438026 -1.920767e-17)
(-0.03171695 0.067624 1.381137e-18)
(-0.01163381 0.06201889 5.888575e-18)
(-0.01973947 0.09616435 -8.136701e-18)
(-0.003223488 0.1280282 1.973368e-17)
(0.004690539 0.07966464 -2.597464e-17)
(-0.04388564 0.001380586 1.3175e-19)
(-0.04285164 0.001862094 -4.803256e-19)
(-0.04272179 0.007668639 -1.274393e-18)
(-0.04263286 0.01057293 9.521321e-20)
(-0.03884131 0.01850183 4.086689e-18)
(-0.04029061 0.02697208 -1.158956e-18)
(-0.03200883 0.03351327 1.799562e-17)
(-0.03579982 0.05067431 5.711978e-20)
(-0.0217094 0.05149009 3.913613e-18)
(-0.02868532 0.08061262 -6.259709e-18)
(-0.007340168 0.07122352 -1.483157e-17)
(-0.01662714 0.1139586 6.880956e-18)
(-0.0006287986 0.149899 1.958684e-18)
(0.01072727 0.0937932 -1.664803e-17)
(-0.04054265 0.002232373 -1.32522e-19)
(-0.03892634 0.003205224 8.147358e-20)
(-0.03896113 0.00972348 -4.550159e-18)
(-0.03802068 0.01465123 -2.338805e-20)
(-0.03486753 0.02179076 5.739253e-18)
(-0.03715532 0.03325285 -4.75793e-19)
(-0.02834554 0.03821442 -1.485928e-18)
(-0.03200136 0.05959818 -5.884618e-19)
(-0.01926425 0.05809081 6.289572e-18)
(-0.02573514 0.09260707 1.800524e-18)
(-0.007114903 0.08278019 -2.333657e-17)
(-0.01721165 0.129865 8.52611e-18)
(-0.005632717 0.1709605 -8.992926e-18)
(0.00983434 0.1106812 -6.862734e-17)
(-0.03543318 0.00327998 -1.641096e-19)
(-0.03279659 0.004572891 5.95164e-19)
(-0.03394989 0.01191392 -2.930922e-18)
(-0.0324292 0.01829303 -8.942586e-20)
(-0.0312465 0.02492607 1.474176e-18)
(-0.03060065 0.03925874 1.59709e-19)
(-0.02690744 0.04341038 -1.120813e-17)
(-0.02788247 0.06709665 -3.91752e-18)
(-0.02216889 0.06665839 -2.582629e-18)
(-0.02455144 0.1008284 4.331546e-18)
(-0.01637483 0.09607086 1.230105e-16)
(-0.02364982 0.1400235 6.844108e-18)
(-0.03124913 0.183759 -1.083767e-17)
(-0.00653573 0.1328195 2.232791e-16)
(-0.02861761 0.004374032 4.130436e-20)
(-0.02483911 0.005760922 -1.601633e-19)
(-0.02764436 0.01312938 2.508111e-19)