/*--------------------------------*- C++ -*----------------------------------*\
| =========                 |                                                 |
| \\      /  F ield         | OpenFOAM: The Open Source CFD Toolbox           |
|  \\    /   O peration     | Version:  2206                                  |
|   \\  /    A nd           | Website:  www.openfoam.com                      |
|    \\/     M anipulation  |                                                 |
\*---------------------------------------------------------------------------*/
FoamFile
{
    version     2.0;
    format      ascii;
    arch        "LSB;label=32;scalar=64";
    class       volVectorField;
    location    "1.2";
    object      ddtCorrDdt0(U.a);
}
// * * * * * * * * * * * * * * * * * * * * * * * * * * * * * * * * * * * * * //

dimensions      [0 1 -2 0 0 0 0];

internalField   nonuniform List<vector> 
13078
(
(-4.934568e-05 0.0003649968 1.12089e-28)
(-1.342129e-05 0.0001358753 2.492702e-32)
(5.527881e-07 -0.0001114725 -1.754133e-28)
(-6.644999e-07 -9.198558e-05 0)
(-1.050273e-06 -3.914341e-05 -8.022621e-30)
(-5.488916e-07 -2.306589e-06 -1.077304e-29)
(-2.567195e-07 1.614615e-05 -1.308337e-29)
(0.0003912827 -0.0002435474 0)
(-7.966045e-05 -8.726368e-05 -6.427993e-32)
(-4.607426e-05 -0.0001036133 0)
(-1.927156e-05 -8.303428e-05 0)
(-9.857964e-06 -3.507518e-05 -7.360953e-32)
(-4.745616e-06 -3.760171e-07 -3.508768e-32)
(-1.737227e-06 1.683457e-05 -7.034205e-32)
(-7.820158e-05 -8.123443e-05 -5.481419e-30)
(-7.885455e-05 -8.494421e-05 -8.317594e-30)
(-3.953302e-05 -9.243231e-05 3.376409e-30)
(-2.395751e-05 -6.07012e-05 1.151364e-29)
(-1.474972e-05 -2.073589e-05 8.422698e-30)
(-6.883143e-06 5.852331e-06 0)
(-2.384668e-06 1.872239e-05 -7.373211e-35)
(-3.185684e-05 -3.085885e-05 1.263376e-29)
(-3.396628e-05 -5.093445e-05 -2.781664e-29)
(-2.913594e-05 -5.199818e-05 -2.578079e-29)
(-2.399408e-05 -2.924222e-05 -1.157387e-29)
(-1.410992e-05 -4.406102e-06 3.727727e-31)
(-6.405217e-06 1.254756e-05 0)
(-2.033022e-06 2.038878e-05 1.884716e-31)
(-9.984634e-06 -9.082755e-06 -1.607611e-32)
(-1.912822e-05 -2.054467e-05 -1.742857e-29)
(-2.261443e-05 -1.819412e-05 -3.31559e-29)
(-1.762928e-05 -5.83718e-06 -3.209636e-29)
(-1.034425e-05 7.521253e-06 5.631976e-30)
(-4.582497e-06 1.705814e-05 -8.250955e-34)
(-1.202714e-06 2.07685e-05 1.200722e-29)
(-5.13741e-06 -1.79305e-06 0)
(-1.272028e-05 -3.796338e-06 1.509144e-31)
(-1.4259e-05 -3.648617e-07 -2.722852e-31)
(-1.096166e-05 6.752139e-06 -1.937891e-29)
(-6.466075e-06 1.391541e-05 1.080082e-30)
(-2.759842e-06 1.852743e-05 -1.032103e-29)
(-4.946371e-07 1.958517e-05 -2.516179e-29)
(-3.3385e-06 9.63437e-07 0)
(-8.030451e-06 3.161425e-06 -2.364288e-29)
(-8.80821e-06 6.896845e-06 -2.771444e-29)
(-6.814282e-06 1.148654e-05 -6.309183e-30)
(-3.997896e-06 1.53996e-05 -2.19203e-29)
(-1.650202e-06 1.742336e-05 1.298536e-30)
(-3.019143e-07 1.726813e-05 0)
(-2.567912e-06 1.722901e-06 4.335326e-29)
(-5.990843e-06 5.050787e-06 -2.695255e-29)
(-6.506132e-06 8.490149e-06 -2.684318e-29)
(-5.093465e-06 1.169385e-05 0)
(-3.122686e-06 1.399468e-05 -5.37119e-29)
(-1.560574e-06 1.492445e-05 1.26798e-30)
(-7.282411e-07 1.451128e-05 1.507567e-30)
(-2.518821e-06 1.645032e-06 3.926872e-33)
(-5.751132e-06 4.781663e-06 6.059406e-29)
(-6.266718e-06 7.643056e-06 3.085564e-29)
(-5.095747e-06 1.001302e-05 7.714974e-31)
(-3.513226e-06 1.15865e-05 -1.217549e-28)
(-2.299821e-06 1.223272e-05 1.229865e-30)
(-1.649404e-06 1.204653e-05 0)
(-2.860476e-06 1.334135e-06 -5.368108e-29)
(-6.492438e-06 3.904733e-06 6.722192e-29)
(-7.198133e-06 6.184218e-06 3.376868e-29)
(-6.147198e-06 8.047601e-06 -6.863965e-29)
(-4.674769e-06 9.346708e-06 -2.717684e-32)
(-3.51624e-06 1.006846e-05 0)
(-2.822884e-06 1.027967e-05 0)
(-3.395626e-06 1.048956e-06 0)
(-7.721372e-06 3.102465e-06 0)
(-8.716878e-06 4.949229e-06 7.413566e-29)
(-7.714546e-06 6.532944e-06 -7.571696e-29)
(-6.188084e-06 7.777458e-06 2.71611e-32)
(-4.917448e-06 8.698574e-06 0)
(-4.063496e-06 9.3085e-06 0)
(-4.02775e-06 8.648424e-07 0)
(-9.181856e-06 2.584525e-06 -7.961027e-29)
(-1.049559e-05 4.183675e-06 8.042577e-29)
(-9.486436e-06 5.653059e-06 8.170369e-29)
(-7.812217e-06 6.954075e-06 -8.378514e-29)
(-6.345934e-06 8.101484e-06 0)
(-5.283021e-06 9.054929e-06 8.8426e-29)
(-4.722467e-06 7.793641e-07 0)
(-1.077366e-05 2.348981e-06 -8.540066e-29)
(-1.240339e-05 3.860716e-06 -4.042938e-31)
(-1.134227e-05 5.337215e-06 8.857009e-29)
(-9.465018e-06 6.759732e-06 -8.945104e-29)
(-7.762742e-06 8.13234e-06 9.106947e-29)
(-6.473666e-06 9.375264e-06 3.43716e-32)
(-5.478511e-06 7.67336e-07 -7.137332e-29)
(-1.248463e-05 2.327125e-06 0)
(-1.442398e-05 3.870784e-06 -3.527552e-31)
(-1.327526e-05 5.442351e-06 -5.212081e-31)
(-1.115937e-05 7.033137e-06 -1.915613e-28)
(-9.197389e-06 8.632987e-06 9.766239e-29)
(-7.672179e-06 1.013205e-05 -1.003158e-28)
(-6.309144e-06 8.04028e-07 -7.457497e-29)
(-1.434272e-05 2.44986e-06 0)
(-1.659365e-05 4.107144e-06 -5.825528e-31)
(-1.534088e-05 5.83043e-06 1.042281e-28)
(-1.296025e-05 7.628499e-06 -9.385416e-29)
(-1.070017e-05 9.476764e-06 0)
(-8.927056e-06 1.122232e-05 1.07018e-28)
(-7.233531e-06 8.725683e-07 0)
(-1.639178e-05 2.669543e-06 -9.758246e-29)
(-1.89691e-05 4.49807e-06 0)
(-1.760046e-05 6.417687e-06 1.031537e-28)
(-1.489801e-05 8.462309e-06 9.53299e-31)
(-1.231578e-05 1.058152e-05 1.282166e-30)
(-1.027993e-05 1.258056e-05 1.150418e-28)
(-8.272206e-06 9.641049e-07 0)
(-1.867871e-05 2.960475e-06 -1.997899e-28)
(-2.160552e-05 5.005211e-06 -1.368387e-31)
(-2.006699e-05 7.166751e-06 -2.222178e-31)
(-1.701632e-05 9.490682e-06 0)
(-1.409232e-05 1.190279e-05 0)
(-1.17709e-05 1.417447e-05 0)
(-9.4438e-06 1.074268e-06 -7.920574e-29)
(-2.124581e-05 3.309816e-06 -1.010079e-28)
(-2.455855e-05 5.610005e-06 -7.904784e-32)
(-2.282123e-05 8.051474e-06 -8.890843e-32)
(-1.938177e-05 1.069216e-05 0)
(-1.608092e-05 1.343411e-05 -1.198152e-28)
(-1.344307e-05 1.600541e-05 -1.792282e-30)
(-1.076598e-05 1.201005e-06 -7.859549e-29)
(-2.413049e-05 3.71155e-06 -1.006418e-28)
(-2.786915e-05 6.303774e-06 2.29779e-31)
(-2.590362e-05 9.064292e-06 1.35493e-31)
(-2.203657e-05 1.206741e-05 0)
(-1.832815e-05 1.519223e-05 -1.232452e-28)
(-1.534184e-05 1.810173e-05 -4.127647e-31)
(-1.225827e-05 1.34433e-06 -7.654478e-29)
(-2.737263e-05 4.165878e-06 -1.973306e-28)
(-3.157933e-05 7.086973e-06 -1.026707e-28)
(-2.935163e-05 1.020701e-05 0)
(-2.504895e-05 1.361049e-05 -5.779842e-30)
(-2.091063e-05 1.719132e-05 -5.702917e-30)
(-1.751174e-05 2.051347e-05 -3.420656e-31)
(-1.394363e-05 1.506649e-06 -7.279977e-29)
(-3.102226e-05 4.681508e-06 -1.894226e-28)
(-3.575026e-05 7.977321e-06 -1.99496e-28)
(-3.322829e-05 1.150841e-05 -1.073723e-28)
(-2.84795e-05 1.537047e-05 -1.054263e-30)
(-2.38239e-05 1.950086e-05 -1.297197e-28)
(-2.000212e-05 2.333067e-05 1.383008e-28)
(-1.584877e-05 1.693039e-06 0)
(-3.513889e-05 5.276089e-06 -8.862024e-29)
(-4.046056e-05 9.010391e-06 -9.480353e-29)
(-3.761397e-05 1.302897e-05 -2.048887e-28)
(-3.230398e-05 1.745727e-05 0)
(-2.714027e-05 2.224453e-05 -1.300089e-28)
(-2.291595e-05 2.669148e-05 -2.427816e-32)
(-1.800197e-05 1.909551e-06 5.910993e-29)
(-3.978412e-05 5.969644e-06 0)
(-4.578671e-05 1.022403e-05 0)
(-4.259742e-05 1.482902e-05 -2.036177e-30)
(-3.667449e-05 1.994112e-05 1.066298e-28)
(-3.099133e-05 2.551869e-05 0)
(-2.637604e-05 3.073868e-05 -1.41631e-28)
(-2.043385e-05 2.162606e-06 9.66514e-29)
(-4.502329e-05 6.782652e-06 0)
(-5.180518e-05 1.165426e-05 0)
(-4.825192e-05 1.695922e-05 8.986835e-29)
(-4.166691e-05 2.287866e-05 2.07415e-28)
(-3.549864e-05 2.933603e-05 -1.228136e-28)
(-3.049893e-05 3.546576e-05 0)
(-2.317814e-05 2.458208e-06 3.430196e-29)
(-5.092912e-05 7.734713e-06 -8.555086e-31)
(-5.860489e-05 1.333604e-05 5.942956e-29)
(-5.467101e-05 1.946728e-05 -3.633752e-30)
(-4.736816e-05 2.631156e-05 -4.433827e-30)
(-4.071125e-05 3.370501e-05 -1.138968e-28)
(-3.5101e-05 4.069271e-05 0)
(-2.627047e-05 2.800588e-06 0)
(-5.757759e-05 8.839977e-06 -2.943383e-29)
(-6.627833e-05 1.529446e-05 4.186499e-29)
(-6.195138e-05 2.238495e-05 0)
(-5.384083e-05 3.025589e-05 -8.986338e-29)
(-4.642431e-05 3.859676e-05 -2.532495e-29)
(-3.998728e-05 4.616974e-05 -1.389806e-29)
(-2.974639e-05 3.19058e-06 5.715531e-30)
(-6.504288e-05 1.010011e-05 -3.195552e-30)
(-7.490166e-05 1.752548e-05 1.81435e-29)
(-7.013914e-05 2.568305e-05 0)
(-6.106759e-05 3.460264e-05 1.396301e-29)
(-5.255645e-05 4.366088e-05 -1.084248e-32)
(-4.466511e-05 5.108228e-05 -1.781316e-29)
(-3.363242e-05 3.626035e-06 3.309144e-29)
(-7.339899e-05 1.150788e-05 2.903323e-29)
(-8.455041e-05 2.00108e-05 -1.161004e-29)
(-7.926775e-05 2.931355e-05 0)
(-6.899271e-05 3.923133e-05 0)
(-5.887984e-05 4.857849e-05 -7.242668e-29)
(-4.849171e-05 5.449009e-05 2.978309e-28)
(-3.795276e-05 4.104407e-06 6.68885e-29)
(-8.272598e-05 1.305818e-05 7.071056e-29)
(-9.532548e-05 2.274486e-05 0)
(-8.943725e-05 3.328539e-05 -3.571623e-30)
(-7.773196e-05 4.422514e-05 2.105817e-29)
(-6.559702e-05 5.364842e-05 -1.238027e-28)
(-5.195271e-05 5.725932e-05 -8.078239e-29)
(-4.260081e-05 4.612228e-06 1.060669e-28)
(-9.302655e-05 1.47218e-05 0)
(-0.0001073321 2.572636e-05 9.971348e-29)
(-0.0001008077 3.764603e-05 -5.049383e-29)
(-8.757353e-05 4.982274e-05 2.246437e-29)
(-7.341683e-05 5.975647e-05 -4.318148e-29)
(-5.67604e-05 6.211204e-05 -7.323389e-29)
(-4.764211e-05 5.126962e-06 0)
(-0.0001043806 1.649266e-05 0)
(-0.0001206286 2.891359e-05 2.917566e-28)
(-0.0001134742 4.233906e-05 0)
(-9.861928e-05 5.594534e-05 1.301202e-28)
(-8.243375e-05 6.679363e-05 1.416849e-29)
(-6.308063e-05 6.881837e-05 4.477686e-29)
(-5.335541e-05 5.66242e-06 2.100385e-28)
(-0.0001165432 1.824138e-05 -2.370127e-28)
(-0.0001351276 3.208112e-05 -2.070493e-28)
(-0.0001273777 4.715696e-05 0)
(-0.0001108186 6.231445e-05 1.173585e-28)
(-9.250968e-05 7.428678e-05 0)
(-7.042321e-05 7.636825e-05 1.033733e-28)
(-5.947645e-05 6.117976e-06 2.728241e-28)
(-0.0001293043 1.970313e-05 -3.219251e-28)
(-0.0001503326 3.486894e-05 -8.641722e-28)
(-0.0001422717 5.154697e-05 -5.075192e-28)
(-0.0001238201 6.840479e-05 1.374779e-28)
(-0.0001033008 8.158429e-05 -5.014465e-29)
(-7.820019e-05 8.379829e-05 5.641633e-29)
(-6.581637e-05 6.381189e-06 -1.131875e-30)
(-0.0001424661 2.062433e-05 -4.335595e-30)
(-0.0001654072 3.659403e-05 -4.075801e-28)
(-0.0001567763 5.470606e-05 -6.055464e-28)
(-0.0001367148 7.323077e-05 3.610306e-28)
(-0.0001141911 8.771925e-05 -1.18053e-28)
(-8.607114e-05 9.026539e-05 -2.673791e-28)
(-7.21367e-05 6.259244e-06 1.279883e-30)
(-0.0001551135 2.038418e-05 4.916424e-30)
(-0.0001791288 3.646514e-05 -4.490219e-28)
(-0.0001694915 5.513897e-05 -3.359961e-29)
(-0.0001484113 7.491659e-05 5.728126e-28)
(-0.0001241205 9.107797e-05 -1.277952e-28)
(-9.329902e-05 9.436789e-05 0)
(-7.808848e-05 5.463215e-06 0)
(-0.0001663232 1.813805e-05 0)
(-0.0001901904 3.299965e-05 -5.981909e-28)
(-0.000178715 5.087152e-05 -6.479392e-28)
(-0.0001565158 7.147528e-05 -1.132178e-27)
(-0.0001321053 8.974777e-05 -1.015675e-27)
(-9.904779e-05 9.451551e-05 0)
(-8.329613e-05 3.687463e-06 3.123618e-30)
(-0.0001752531 1.308651e-05 -1.186558e-29)
(-0.0001975996 2.5152e-05 -4.017762e-29)
(-0.0001832194 4.136573e-05 0)
(-0.0001605589 6.218737e-05 -1.227222e-27)
(-0.0001377159 8.395838e-05 1.864844e-28)
(-0.0001042973 9.206441e-05 4.285486e-28)
(-8.755843e-05 7.316659e-07 7.499535e-28)
(-0.000181784 4.866241e-06 -1.305105e-29)
(-0.0002020088 1.28966e-05 8.783705e-28)
(-0.000185459 2.759663e-05 0)
(-0.0001644266 5.092425e-05 -9.27223e-28)
(-0.0001474497 8.027572e-05 6.71427e-28)
(-0.0001173356 9.993303e-05 2.398903e-27)
(-9.121721e-05 -3.267858e-06 8.7357e-28)
(-0.0001875238 -5.848408e-06 1.063258e-27)
(-0.0002072548 -1.723253e-06 1.040509e-27)
(-0.0001925605 1.415054e-05 1.294042e-28)
(-0.000179629 4.673711e-05 3.405771e-28)
(-0.0001770432 9.631495e-05 -2.194027e-28)
(-0.0001581548 0.0001487055 1.535804e-27)
(-9.504591e-05 -7.714793e-06 0)
(-0.0001967482 -1.673893e-05 -1.214744e-27)
(-0.0002220055 -1.369198e-05 -1.212819e-27)
(-0.0002180611 1.036813e-05 -6.721795e-29)
(-0.0002239654 6.453494e-05 1.308974e-27)
(-0.0002452267 0.0001508969 2.936837e-28)
(-0.0002791276 0.0002216208 0)
(-0.0001018694 -1.122296e-05 -1.115844e-27)
(-0.0002167708 -2.365325e-05 -2.726519e-27)
(-0.0002590979 -1.545474e-05 -1.236413e-27)
(-0.0002793425 2.763334e-05 -2.734892e-27)
(-0.0003142265 0.0001157234 1.4466e-27)
(-0.0004129422 0.0002343752 -1.281382e-28)
(-0.0006467239 0.0003253577 2.086237e-25)
(-0.0001149561 -1.230651e-05 -1.221479e-27)
(-0.0002554922 -2.142479e-05 1.260526e-29)
(-0.0003298416 1.564065e-06 0)
(-0.000386399 7.528296e-05 -6.713879e-29)
(-0.0005137879 0.0001973862 -2.146812e-27)
(-0.0009102764 0.0003391607 -2.485321e-25)
(-0.001648668 0.0005121531 -6.822434e-26)
(-0.0001360901 -8.519079e-06 1.337082e-27)
(-0.0003165115 -4.369835e-06 -2.216423e-29)
(-0.0004302987 4.312732e-05 -6.191575e-29)
(-0.0005916361 0.0001403492 4.466615e-27)
(-0.001072508 0.0002640096 1.361505e-25)
(-0.0022001 0.0004814678 -3.514804e-25)
(-0.003707478 0.000838146 -1.871027e-25)
(-0.0001618289 3.084829e-06 1.440083e-27)
(-0.0003885276 3.376792e-05 0)
(-0.0006134954 9.174368e-05 -3.029426e-28)
(-0.001125534 0.0001589356 4.876309e-26)
(-0.002334142 0.000317566 2.722904e-24)
(-0.004423184 0.0006984435 3.427227e-24)
(-0.00643965 0.001336952 1.017313e-24)
(-0.0001749577 2.512788e-05 0)
(-0.0005126868 6.051456e-05 -2.271648e-28)
(-0.001047408 7.159278e-05 2.122754e-26)
(-0.002152314 0.0001381781 -6.572043e-26)
(-0.0042265 0.0003891518 1.530885e-24)
(-0.006913035 0.001021547 1.136304e-24)
(-0.008885948 0.001877124 4.235059e-24)
(-0.0001866208 4.927542e-05 0)
(-0.0007891403 -5.067839e-07 -2.168221e-25)
(-0.001802394 -2.387779e-05 -5.601293e-25)
(-0.003540403 5.406957e-05 1.456238e-24)
(-0.006089065 0.000449388 -3.350318e-24)
(-0.00866897 0.001287613 -7.690021e-25)
(-0.0102705 0.002237651 6.410796e-24)
(-0.0003226689 -4.532807e-05 7.058026e-28)
(-0.0012671 -0.000135187 -2.680381e-25)
(-0.002751327 -0.0001808926 -2.497443e-27)
(-0.004855373 -9.795991e-05 3.054563e-24)
(-0.007273776 0.0003914508 1.021399e-23)
(-0.009376401 0.001339103 1.23566e-24)
(-0.01055305 0.002294756 -1.692276e-24)
(-0.0005067144 -0.0001065297 1.343299e-25)
(-0.001827339 -0.0002955961 7.758115e-26)
(-0.003618037 -0.0004294461 8.580888e-25)
(-0.005649515 -0.0003907663 -2.588306e-24)
(-0.007599641 0.0001358242 1.044855e-23)
(-0.009157409 0.001120616 3.779125e-24)
(-0.01019994 0.002183296 5.080869e-24)
(-0.0007335315 -0.0001819241 -2.629077e-25)
(-0.002367736 -0.0005422686 8.136365e-26)
(-0.00420494 -0.0008291258 -2.441679e-24)
(-0.005905178 -0.0008856591 -2.049193e-24)
(-0.007300818 -0.0004161421 -3.973126e-24)
(-0.008442827 0.0005897577 -4.048984e-25)
(-0.009361163 0.001889292 1.775052e-24)
(-0.0009598999 -0.000291896 -3.218416e-25)
(-0.002763507 -0.0008979138 4.547954e-25)
(-0.00446089 -0.001383335 -1.123173e-24)
(-0.005829202 -0.001548792 1.937607e-24)
(-0.006879366 -0.001068929 5.896728e-25)
(-0.007859125 0.0001085616 -1.517976e-24)
(-0.00908877 0.001773962 -6.351881e-24)
(-0.001119562 -0.0004213231 4.300566e-25)
(-0.002933764 -0.001318606 -8.840878e-25)
(-0.004433071 -0.002026623 7.8846e-25)
(-0.005559871 -0.002228983 1.133436e-24)
(-0.006370919 -0.001562084 -1.569532e-26)
(-0.006961611 0.0001544683 -2.961103e-24)
(-0.00803202 0.002599294 -3.221861e-24)
(-0.001141746 -0.0005231379 -3.381282e-25)
(-0.002831567 -0.001727102 -1.289979e-25)
(-0.004136766 -0.002650201 -6.612459e-25)
(-0.005028133 -0.002840334 -1.273821e-24)
(-0.005758196 -0.00193859 -3.281911e-24)
(-0.006663515 0.0003632058 1.061958e-23)
(-0.006250875 0.004597134 2.782039e-23)
(-0.001025638 -0.0005904928 -1.856249e-25)
(-0.002484082 -0.002099446 4.467852e-25)
(-0.003521367 -0.003238885 -4.538536e-25)
(-0.004150447 -0.003448668 1.334701e-24)
(-0.00448596 -0.00226028 1.631516e-25)
(-0.005220044 0.0002210897 -4.537502e-25)
(-0.005192461 0.00598215 -3.671686e-24)
(-0.0008013377 -0.0006196849 5.342152e-25)
(-0.001934022 -0.002390271 6.425286e-25)
(-0.002699444 -0.003714539 -1.957145e-25)
(-0.003146096 -0.003940906 5.210621e-25)
(-0.003360954 -0.002746245 5.563984e-25)
(-0.003069498 5.523677e-05 1.340057e-24)
(-0.003704738 0.005634625 3.603423e-24)
(-0.0005099793 -0.0006215773 2.165761e-25)
(-0.001225644 -0.002566483 7.669727e-26)
(-0.001672333 -0.003979516 -4.812385e-25)
(-0.001926548 -0.004135155 -1.935948e-25)
(-0.002128296 -0.002778756 7.016974e-25)
(-0.00205609 0.0006729365 4.498618e-25)
(-0.002044143 0.006677254 -3.060767e-24)
(-0.0001755604 -0.0006159061 7.645078e-26)
(-0.0003922816 -0.002632054 -3.313402e-27)
(-0.0004861711 -0.004035254 -4.518223e-25)
(-0.0005302228 -0.004055346 4.819771e-25)
(-0.0006405533 -0.002400894 1.565853e-24)
(-0.0007185838 0.001671792 -4.328825e-24)
(-0.0004310871 0.008700507 -1.352845e-23)
(0.0001782512 -0.0006291507 1.98392e-26)
(0.0004901818 -0.002640947 1.21605e-25)
(0.0007496096 -0.003994605 3.386785e-25)
(0.0009250631 -0.003920165 5.490754e-25)
(0.001141508 -0.002136713 1.825163e-24)
(0.001575807 0.002164626 -1.119929e-24)
(0.001608548 0.00991662 -6.471028e-24)
(0.000516731 -0.0006566251 2.180217e-26)
(0.001307571 -0.002585924 -1.306193e-25)
(0.001893213 -0.003882556 7.776766e-25)
(0.00229055 -0.003873404 5.684787e-25)
(0.00278471 -0.002211404 -3.130839e-25)
(0.003430965 0.00184297 -2.247215e-26)
(0.00355342 0.009004634 2.963631e-24)
(0.0008147154 -0.0006651003 -2.84675e-25)
(0.001998939 -0.00240182 1.333236e-25)
(0.002876068 -0.003583573 8.922087e-25)
(0.003478195 -0.003645492 2.328231e-26)
(0.003990393 -0.00222802 -1.082241e-24)
(0.004259389 0.001028522 -2.537217e-25)
(0.005190367 0.007265567 5.167464e-24)
(0.001038619 -0.0006320317 -3.701357e-25)
(0.002532099 -0.002092757 1.902505e-25)
(0.003667035 -0.003088783 4.546972e-25)
(0.00446749 -0.003158378 -3.337307e-26)
(0.005022215 -0.001842476 -1.46636e-25)
(0.005896136 0.0006691703 2.498692e-24)
(0.006856499 0.005671723 1.179074e-23)
(0.00113822 -0.0005475078 4.050269e-25)
(0.002854712 -0.00169795 1.356116e-25)
(0.004256848 -0.002480916 2.369401e-24)
(0.005317414 -0.002533313 2.069896e-24)
(0.0062075 -0.00149708 -1.857975e-24)
(0.007454063 0.0006335136 7.824695e-24)
(0.00789096 0.003847709 2.061197e-23)
(0.001085579 -0.0004249673 -1.91651e-25)
(0.002906626 -0.00127312 1.520694e-25)
(0.004511811 -0.001862637 4.055582e-25)
(0.005814009 -0.001919489 3.370431e-24)
(0.006836454 -0.001153785 2.522952e-24)
(0.007826381 0.0004861556 -1.090076e-24)
(0.008854408 0.002503291 5.733e-24)
(0.000899404 -0.0002838653 -3.883816e-25)
(0.002663207 -0.000846095 -2.125047e-24)
(0.00446069 -0.001237416 -4.113868e-25)
(0.006028789 -0.001258767 1.555079e-24)
(0.007274783 -0.0006224524 2.6613e-24)
(0.008304329 0.0006573413 -3.29593e-24)
(0.009304245 0.002259804 4.45355e-24)
(0.0006652096 -0.0001725462 -2.825688e-26)
(0.002200791 -0.0004987487 -1.074039e-24)
(0.004066334 -0.0007182814 9.754341e-25)
(0.00596448 -0.0006626628 -2.984422e-24)
(0.007617899 -3.043507e-05 9.178955e-25)
(0.008864598 0.001140003 1.963026e-24)
(0.009555384 0.002542764 -3.174966e-24)
(0.0004484548 -0.0001053476 -3.038272e-26)
(0.001633007 -0.0002651907 8.903081e-25)
(0.003335619 -0.0003558332 -1.261299e-24)
(0.005451285 -0.0002447855 -4.755729e-24)
(0.007639834 0.0003965131 5.229631e-24)
(0.009356599 0.001532702 -7.862796e-24)
(0.01023239 0.00269276 -1.815246e-23)
(0.0002860612 -3.859013e-05 8.402297e-28)
(0.001090905 -0.0001101762 7.728215e-25)
(0.002402081 -0.000139165 -1.014244e-24)
(0.004400788 -1.856166e-05 -5.74989e-24)
(0.006904672 0.0005234889 3.223896e-24)
(0.009173665 0.001567052 -3.1417e-24)
(0.0103614 0.002605409 -1.801251e-24)
(0.0001638272 4.616435e-05 0)
(0.0006843319 -5.655206e-06 1.718221e-25)
(0.001498759 -8.006454e-06 -5.92394e-25)
(0.002988541 8.539034e-05 -1.638024e-24)
(0.005380963 0.0004825505 -1.85483e-24)
(0.008013854 0.001334877 -1.376691e-24)
(0.009721075 0.002325886 3.155218e-24)
(0.0001576315 2.023393e-05 0)
(0.0004522992 4.095963e-05 2.130681e-28)
(0.0008629842 5.986696e-05 -1.585601e-25)
(0.001710171 0.0001366398 1.980085e-25)
(0.003444978 0.0003745938 -1.279291e-25)
(0.005934253 0.0009494214 3.651302e-24)
(0.00800112 0.001769489 -7.686033e-25)
(0.000146171 -1.525059e-06 1.350362e-27)
(0.0003456602 1.655771e-05 0)
(0.0005290577 6.155048e-05 0)
(0.0008908111 0.0001352153 9.813037e-27)
(0.001780417 0.0002896194 -4.695785e-25)
(0.003495531 0.0006102459 2.222349e-24)
(0.005423598 0.001140257 -2.314524e-24)
(0.0001235145 -1.181054e-05 1.238035e-27)
(0.0002817319 -1.493191e-05 2.389998e-29)
(0.0003740378 2.312609e-05 6.241141e-29)
(0.0004982143 0.0001054295 1.33415e-27)
(0.0008190858 0.0002275231 -1.706264e-25)
(0.001642226 0.0004135108 -1.493898e-25)
(0.00289084 0.0006810146 2.121075e-24)
(0.0001074325 -1.34364e-05 0)
(0.000232347 -2.66774e-05 -1.413995e-27)
(0.0002899474 -1.047605e-05 0)
(0.0003311883 5.110654e-05 1.603197e-28)
(0.0004303563 0.0001578581 3.434159e-28)
(0.0006966341 0.000292472 1.637288e-25)
(0.001216621 0.000425567 2.358957e-25)
(9.706408e-05 -1.132623e-05 0)
(0.0002035092 -2.478064e-05 1.257278e-27)
(0.0002367479 -1.934353e-05 -1.245489e-27)
(0.0002468505 1.761514e-05 0)
(0.0002734444 9.742418e-05 4.209666e-28)
(0.0003499756 0.0002022179 1.023186e-27)
(0.0005037313 0.0002806684 8.377107e-26)
(9.19938e-05 -7.030586e-06 0)
(0.0001898871 -1.537642e-05 3.316754e-27)
(0.0002117149 -1.283787e-05 2.176424e-30)
(0.0002025045 8.728023e-06 2.307129e-27)
(0.0002007343 5.709737e-05 3.278654e-28)
(0.0002125641 0.0001339483 -8.865907e-28)
(0.0002247021 0.0001908894 4.011798e-27)
(8.882043e-05 -2.382296e-06 -7.734885e-28)
(0.0001836943 -3.53175e-06 9.731205e-28)
(0.0002028828 1.250283e-06 -6.52879e-31)
(0.0001862014 1.662399e-05 1.671605e-27)
(0.0001684324 4.635073e-05 0)
(0.0001581725 8.748044e-05 0)
(0.0001282341 0.0001158937 6.152688e-28)
(8.5495e-05 1.54273e-06 -6.560299e-28)
(0.0001788542 7.064264e-06 8.168995e-28)
(0.0001994883 1.615455e-05 -7.700793e-28)
(0.0001824737 3.117325e-05 -7.225902e-28)
(0.0001591012 5.37197e-05 0)
(0.0001382954 8.024363e-05 0)
(0.0001062131 9.253378e-05 8.257932e-28)
(8.126434e-05 4.260843e-06 5.539052e-28)
(0.0001723416 1.469529e-05 7.161452e-28)
(0.0001949887 2.766534e-05 3.664262e-29)
(0.0001805601 4.443698e-05 -5.321254e-28)
(0.0001566039 6.523623e-05 -3.962996e-28)
(0.0001318316 8.57361e-05 3.501581e-28)
(9.722913e-05 9.212059e-05 -1.17201e-28)
(7.603243e-05 5.778484e-06 4.596856e-28)
(0.0001631137 1.904062e-05 1.013587e-29)
(0.000186892 3.44597e-05 -3.339183e-29)
(0.0001753473 5.265834e-05 -4.719148e-29)
(0.0001524427 7.320899e-05 0)
(0.0001269621 9.083473e-05 4.325874e-28)
(9.38026e-05 9.490602e-05 -2.06565e-28)
(7.020033e-05 6.393125e-06 0)
(0.000151685 2.074061e-05 1.794518e-29)
(0.0001753137 3.704227e-05 2.997453e-29)
(0.0001655323 5.580817e-05 -1.028411e-27)
(0.0001442114 7.546993e-05 -4.201319e-28)
(0.0001197112 9.128381e-05 -2.92963e-28)
(8.913664e-05 9.424054e-05 2.65703e-29)
(6.403057e-05 6.405032e-06 2.080909e-30)
(0.0001390824 2.0667e-05 7.976491e-30)
(0.000161488 3.664763e-05 0)
(0.0001527312 5.471623e-05 1.913514e-30)
(0.0001326966 7.311365e-05 -2.042177e-28)
(0.000110335 8.741798e-05 -1.319395e-28)
(8.272102e-05 8.986201e-05 1.229727e-28)
(5.784339e-05 6.091149e-06 -2.242076e-28)
(0.0001261257 1.959556e-05 2.805001e-28)
(0.0001466245 3.467796e-05 -3.465438e-28)
(0.0001385105 5.125951e-05 5.237741e-28)
(0.0001202349 6.799571e-05 -9.302472e-29)
(0.0001000494 8.106366e-05 0)
(7.556341e-05 8.329998e-05 -1.037018e-28)
(5.189265e-05 5.62004e-06 -1.682574e-28)
(0.0001136689 1.808788e-05 1.859368e-28)
(0.0001318035 3.181902e-05 -1.580151e-28)
(0.0001240779 4.678246e-05 0)
(0.0001077578 6.182587e-05 7.569596e-29)
(8.984227e-05 7.371582e-05 0)
(6.837932e-05 7.585817e-05 4.088272e-29)
(4.634843e-05 5.085159e-06 0)
(0.0001018433 1.634196e-05 0)
(0.0001177355 2.865524e-05 2.060511e-28)
(0.0001106515 4.19711e-05 0)
(9.605907e-05 5.54692e-05 5.718832e-29)
(8.026825e-05 6.62425e-05 -1.844901e-29)
(6.149458e-05 6.832107e-05 7.317668e-29)
(4.145839e-05 4.575378e-06 7.387825e-29)
(9.081084e-05 1.458826e-05 0)
(0.0001048362 2.549479e-05 4.745262e-29)
(9.840923e-05 3.731302e-05 -3.531873e-29)
(8.543773e-05 4.938809e-05 -9.666204e-30)
(7.164766e-05 5.92464e-05 -1.008297e-28)
(5.549658e-05 6.163112e-05 -9.854567e-29)
(3.69465e-05 4.072596e-06 3.744873e-29)
(8.079289e-05 1.294164e-05 3.21733e-29)
(9.316852e-05 2.254166e-05 0)
(8.738953e-05 3.299128e-05 -5.554763e-30)
(7.593322e-05 4.383829e-05 -1.917097e-29)
(6.412443e-05 5.318622e-05 -1.290053e-28)
(5.090286e-05 5.679873e-05 7.344496e-29)
(3.274563e-05 3.598006e-06 7.938921e-30)
(7.170464e-05 1.140533e-05 -1.661146e-30)
(8.267214e-05 1.98326e-05 1.773192e-29)
(7.750011e-05 2.905695e-05 0)
(6.745365e-05 3.889437e-05 0)
(5.762277e-05 4.816843e-05 -9.558976e-29)
(4.757483e-05 5.404419e-05 -3.042211e-29)
(2.896143e-05 3.165446e-06 -1.664123e-29)
(6.354717e-05 1.000928e-05 -3.052322e-29)
(7.32502e-05 1.73699e-05 4.430516e-29)
(6.859359e-05 2.546396e-05 0)
(5.972988e-05 3.432124e-05 -1.25831e-29)
(5.14642e-05 4.331951e-05 1.370752e-32)
(4.38504e-05 5.069035e-05 1.595359e-29)
(2.557215e-05 2.777669e-06 0)
(5.624756e-05 8.759324e-06 -5.38784e-29)
(6.481181e-05 1.515998e-05 6.534855e-29)
(6.058243e-05 2.220259e-05 0)
(5.26596e-05 3.003088e-05 -8.952338e-29)
(4.545829e-05 3.832723e-05 2.255006e-29)
(3.924765e-05 4.583636e-05 1.231269e-29)
(2.255351e-05 2.437155e-06 5.224431e-29)
(4.973836e-05 7.662792e-06 7.62005e-31)
(5.729027e-05 1.321999e-05 8.318891e-29)
(5.344269e-05 1.931687e-05 3.220676e-30)
(4.630612e-05 2.613358e-05 3.753593e-30)
(3.983398e-05 3.348783e-05 -1.315227e-28)
(3.43961e-05 4.037288e-05 0)
(1.98724e-05 2.143206e-06 1.290412e-28)
(4.39506e-05 6.71777e-06 0)
(5.061644e-05 1.155238e-05 0)
(4.713583e-05 1.683226e-05 1.029828e-28)
(4.069436e-05 2.273305e-05 2.359586e-28)
(3.4684e-05 2.915066e-05 -1.392969e-28)
(2.980946e-05 3.51382e-05 0)
(1.749534e-05 1.89135e-06 7.379972e-29)
(3.881231e-05 5.90966e-06 4.307656e-31)
(4.470345e-05 1.013123e-05 6.7734e-31)
(4.157209e-05 1.471642e-05 1.794058e-30)
(3.577191e-05 1.981748e-05 1.271073e-28)
(3.022887e-05 2.537039e-05 0)
(2.573622e-05 3.048944e-05 -1.556312e-28)
(1.538994e-05 1.675325e-06 4.184758e-32)
(3.425434e-05 5.218735e-06 -1.043081e-28)
(3.946678e-05 8.921814e-06 -1.097834e-28)
(3.6663e-05 1.292165e-05 -2.356858e-28)
(3.145604e-05 1.734252e-05 0)
(2.6417e-05 2.212243e-05 -1.441169e-28)
(2.231955e-05 2.653263e-05 -1.412176e-32)
(1.352664e-05 1.489154e-06 -8.511887e-29)
(3.021424e-05 4.625223e-06 -2.194365e-28)
(3.483377e-05 7.88919e-06 -2.28253e-28)
(3.233934e-05 1.139887e-05 -1.199067e-28)
(2.767339e-05 1.525087e-05 7.497127e-31)
(2.312485e-05 1.937965e-05 -1.4283e-28)
(1.942217e-05 2.320675e-05 1.492138e-28)
(1.187832e-05 1.327094e-06 -8.78067e-29)
(2.663249e-05 4.110122e-06 -2.251352e-28)
(3.07313e-05 6.997581e-06 -1.162294e-28)
(2.85168e-05 1.009179e-05 0)
(2.42781e-05 1.347847e-05 3.769704e-30)
(2.022822e-05 1.705337e-05 2.626864e-30)
(1.693034e-05 2.037714e-05 -3.877571e-31)
(1.04193e-05 1.183972e-06 -8.897194e-29)
(2.345172e-05 3.65616e-06 -1.135108e-28)
(2.708395e-05 6.213122e-06 -2.063682e-32)
(2.51199e-05 8.943782e-06 5.737715e-32)
(2.130026e-05 1.192342e-05 0)
(1.766373e-05 1.503449e-05 -1.345047e-28)
(1.475765e-05 1.793846e-05 7.415626e-31)
(9.127382e-06 1.05713e-06 -8.882936e-29)
(2.062383e-05 3.253883e-06 -1.128543e-28)
(2.383316e-05 5.517404e-06 2.039015e-31)
(2.208883e-05 7.92631e-06 1.752333e-31)
(1.86834e-05 1.053899e-05 0)
(1.543905e-05 1.32613e-05 -1.288552e-28)
(1.286427e-05 1.582051e-05 2.383992e-30)
(7.984091e-06 9.457058e-07 1.182322e-32)
(1.811083e-05 2.90063e-06 -2.218267e-28)
(2.093947e-05 4.906223e-06 1.928791e-31)
(1.938854e-05 7.033066e-06 2.996583e-31)
(1.636199e-05 9.326987e-06 0)
(1.348184e-05 1.171754e-05 0)
(1.120992e-05 1.397558e-05 0)
(6.972645e-06 8.498028e-07 0)
(1.587821e-05 2.597196e-06 -1.079049e-28)
(1.836572e-05 4.3805e-06 0)
(1.698259e-05 6.26178e-06 1.115884e-28)
(1.429753e-05 8.276101e-06 -1.130963e-30)
(1.174887e-05 1.037602e-05 -1.493254e-30)
(9.751014e-06 1.236591e-05 1.202193e-28)
(6.075572e-06 7.710921e-07 -8.232325e-29)
(1.388809e-05 2.347865e-06 0)
(1.606227e-05 3.945059e-06 6.703665e-31)
(1.479733e-05 5.620987e-06 1.026047e-28)
(1.243035e-05 7.389159e-06 -1.212188e-28)
(1.019426e-05 9.224856e-06 0)
(8.447313e-06 1.097297e-05 1.152014e-28)
(5.274683e-06 7.138947e-07 -7.866484e-29)
(1.209867e-05 2.164508e-06 0)
(1.398156e-05 3.616446e-06 3.917935e-31)
(1.282913e-05 5.121723e-06 5.77052e-31)
(1.072667e-05 6.680361e-06 -2.084425e-28)
(8.778108e-06 8.280179e-06 1.05728e-28)
(7.264332e-06 9.803653e-06 -1.080038e-28)
(4.552458e-06 6.877822e-07 0)
(1.046861e-05 2.074449e-06 -9.34159e-29)
(1.207186e-05 3.435888e-06 4.393559e-31)
(1.102276e-05 4.810701e-06 9.689141e-29)
(9.162342e-06 6.193568e-06 -9.740225e-29)
(7.463953e-06 7.584741e-06 9.867674e-29)
(6.167964e-06 8.888783e-06 3.690142e-32)
(3.892972e-06 7.098145e-07 0)
(8.961774e-06 2.127362e-06 -8.767082e-29)
(1.028628e-05 3.478879e-06 8.835315e-29)
(9.315153e-06 4.784648e-06 9.089646e-29)
(7.669556e-06 6.028467e-06 -8.960769e-29)
(6.202786e-06 7.219099e-06 2.251532e-30)
(5.113687e-06 8.289674e-06 9.271756e-29)
(3.284872e-06 8.044751e-07 0)
(7.555193e-06 2.391914e-06 0)
(8.594125e-06 3.851189e-06 8.169523e-29)
(7.667492e-06 5.171968e-06 -8.316376e-29)
(6.20163e-06 6.318269e-06 2.869223e-32)
(4.943284e-06 7.305946e-06 0)
(4.053635e-06 8.106795e-06 0)
(2.730902e-06 9.970671e-07 -5.948214e-29)
(6.264317e-06 2.936347e-06 7.447033e-29)
(7.015279e-06 4.661912e-06 3.683404e-29)
(6.089562e-06 6.115611e-06 -7.656837e-29)
(4.750391e-06 7.223836e-06 -2.848032e-32)
(3.661362e-06 8.003992e-06 2.459636e-30)
(2.955868e-06 8.478584e-06 1.622325e-33)
(2.26672e-06 1.290157e-06 4.235783e-33)
(5.191172e-06 3.763129e-06 6.743356e-29)
(5.682958e-06 5.938158e-06 3.319475e-29)
(4.704946e-06 7.688342e-06 -8.004869e-31)
(3.401901e-06 8.86608e-06 -1.370902e-28)
(2.402385e-06 9.461549e-06 -1.269037e-30)
(1.833594e-06 9.551937e-06 0)
(1.987824e-06 1.607957e-06 4.839552e-29)
(4.587828e-06 4.662026e-06 -3.015216e-29)
(4.9184e-06 7.435437e-06 -3.009917e-29)