/*--------------------------------*- C++ -*----------------------------------*\
| =========                 |                                                 |
| \\      /  F ield         | OpenFOAM: The Open Source CFD Toolbox           |
|  \\    /   O peration     | Version:  2206                                  |
|   \\  /    A nd           | Website:  www.openfoam.com                      |
|    \\/     M anipulation  |                                                 |
\*---------------------------------------------------------------------------*/
FoamFile
{
    version     2.0;
    format      ascii;
    arch        "LSB;label=32;scalar=64";
    class       volScalarField;
    location    "1.2";
    object      k.b;
}
// * * * * * * * * * * * * * * * * * * * * * * * * * * * * * * * * * * * * * //

dimensions      [0 2 -2 0 0 0 0];

internalField   nonuniform List<scalar> 
13078
(
2.469002e-13
2.934776e-10
3.13563e-10
3.154397e-10
3.176819e-10
3.202618e-10
3.232555e-10
2.471305e-13
2.705139e-10
3.127302e-10
3.153223e-10
3.176095e-10
3.20202e-10
3.231918e-10
2.379979e-13
2.699745e-10
3.125553e-10
3.151921e-10
3.175189e-10
3.201284e-10
3.231202e-10
2.448287e-13
2.702916e-10
3.124892e-10
3.15095e-10
3.174348e-10
3.200539e-10
3.230463e-10
2.534533e-13
2.703997e-10
3.124537e-10
3.150552e-10
3.17365e-10
3.19983e-10
3.229739e-10
2.631175e-13
2.704594e-10
3.124397e-10
3.150322e-10
3.17341e-10
3.199212e-10
3.229037e-10
2.735435e-13
2.704609e-10
3.124232e-10
3.150098e-10
3.173246e-10
3.199032e-10
3.228408e-10
2.850382e-13
2.704268e-10
3.124065e-10
3.149957e-10
3.173142e-10
3.198914e-10
3.228249e-10
2.979388e-13
2.70392e-10
3.124069e-10
3.149914e-10
3.173076e-10
3.198822e-10
3.228137e-10
3.126473e-13
2.703369e-10
3.124072e-10
3.149886e-10
3.173025e-10
3.198747e-10
3.228042e-10
3.296396e-13
2.702682e-10
3.124066e-10
3.149863e-10
3.17298e-10
3.19868e-10
3.227951e-10
3.494922e-13
2.701882e-10
3.124049e-10
3.14984e-10
3.172939e-10
3.198617e-10
3.227867e-10
3.728905e-13
2.700997e-10
3.124026e-10
3.149814e-10
3.172901e-10
3.198557e-10
3.227784e-10
4.006965e-13
2.700028e-10
3.123995e-10
3.149778e-10
3.172848e-10
3.198492e-10
3.227697e-10
4.339838e-13
2.698989e-10
3.12395e-10
3.149625e-10
3.17262e-10
3.198409e-10
3.227609e-10
4.740959e-13
2.697879e-10
3.123892e-10
3.149431e-10
3.172434e-10
3.19833e-10
3.227517e-10
5.227498e-13
2.696712e-10
3.123846e-10
3.149374e-10
3.172367e-10
3.198256e-10
3.227422e-10
5.82156e-13
2.695482e-10
3.123795e-10
3.149323e-10
3.172302e-10
3.198181e-10
3.227323e-10
6.551059e-13
2.694182e-10
3.123739e-10
3.149271e-10
3.172227e-10
3.198082e-10
3.227218e-10
7.452027e-13
2.692819e-10
3.123675e-10
3.149201e-10
3.171969e-10
3.197711e-10
3.227083e-10
8.569998e-13
2.691389e-10
3.12361e-10
3.149123e-10
3.171652e-10
3.197407e-10
3.226945e-10
9.963546e-13
2.689891e-10
3.123543e-10
3.149058e-10
3.171542e-10
3.197286e-10
3.226821e-10
1.17066e-12
2.688318e-10
3.123468e-10
3.148984e-10
3.171445e-10
3.19715e-10
3.226663e-10
1.389303e-12
2.686673e-10
3.12339e-10
3.148907e-10
3.171321e-10
3.196756e-10
3.226095e-10
1.664071e-12
2.684949e-10
3.12331e-10
3.148823e-10
3.171186e-10
3.196276e-10
3.225627e-10
2.009706e-12
2.683142e-10
3.12322e-10
3.14873e-10
3.17106e-10
3.196084e-10
3.225415e-10
2.444487e-12
2.681285e-10
3.123127e-10
3.148631e-10
3.170925e-10
3.195905e-10
3.225184e-10
2.990159e-12
2.679127e-10
3.12302e-10
3.148523e-10
3.170775e-10
3.195693e-10
3.224564e-10
3.673755e-12
2.67727e-10
3.122918e-10
3.148406e-10
3.170609e-10
3.195451e-10
3.223819e-10
4.51818e-12
2.671724e-10
3.122704e-10
3.148273e-10
3.17043e-10
3.195219e-10
3.223478e-10
5.57073e-12
2.665775e-10
3.122617e-10
3.148129e-10
3.17023e-10
3.19496e-10
3.223124e-10
6.891564e-12
2.656021e-10
3.122416e-10
3.147941e-10
3.17001e-10
3.194671e-10
3.222722e-10
8.520386e-12
2.643588e-10
3.121647e-10
3.147489e-10
3.169736e-10
3.194346e-10
3.222319e-10
1.050802e-11
2.639355e-10
3.121062e-10
3.147089e-10
3.169421e-10
3.193979e-10
3.22187e-10
1.291274e-11
2.634926e-10
3.120765e-10
3.146597e-10
3.168631e-10
3.193506e-10
3.221365e-10
1.57862e-11
2.629943e-10
3.120402e-10
3.14603e-10
3.167692e-10
3.192386e-10
3.22074e-10
1.916531e-11
2.624477e-10
3.119992e-10
3.145555e-10
3.166851e-10
3.191353e-10
3.219987e-10
2.306264e-11
2.618604e-10
3.119495e-10
3.145054e-10
3.166176e-10
3.190147e-10
3.21821e-10
2.743889e-11
2.612563e-10
3.118881e-10
3.144411e-10
3.165285e-10
3.188688e-10
3.21621e-10
3.215693e-11
2.601299e-10
3.117897e-10
3.143272e-10
3.163597e-10
3.186404e-10
3.212981e-10
3.712043e-11
2.580294e-10
3.115903e-10
3.140753e-10
3.160093e-10
3.182178e-10
3.207649e-10
4.221926e-11
2.558426e-10
3.111318e-10
3.135029e-10
3.154183e-10
3.174644e-10
3.195323e-10
4.704601e-11
2.545558e-10
3.104463e-10
3.127411e-10
3.144601e-10
3.161228e-10
3.178233e-10
5.114554e-11
2.529923e-10
3.096517e-10
3.119526e-10
3.131774e-10
3.142719e-10
3.162673e-10
5.399127e-11
2.507203e-10
3.089098e-10
3.107916e-10
3.115889e-10
3.127518e-10
3.14557e-10
5.519147e-11
2.474785e-10
3.079479e-10
3.090495e-10
3.098211e-10
3.110017e-10
3.128023e-10
5.474765e-11
2.439894e-10
3.064943e-10
3.074325e-10
3.076602e-10
3.088004e-10
3.105585e-10
5.237094e-11
2.413881e-10
3.047124e-10
3.057139e-10
3.056745e-10
3.06679e-10
3.078826e-10
4.804455e-11
2.387975e-10
3.02993e-10
3.037515e-10
3.038876e-10
3.047953e-10
3.058767e-10
4.193644e-11
2.365157e-10
3.014479e-10
3.020825e-10
3.021276e-10
3.027037e-10
3.040678e-10
3.432129e-11
2.333218e-10
3.002509e-10
3.007795e-10
3.007324e-10
3.01042e-10
3.019715e-10
2.558263e-11
2.288079e-10
2.988698e-10
2.994985e-10
2.995345e-10
2.999122e-10
3.004844e-10
1.705638e-11
2.263339e-10
2.974839e-10
2.985999e-10
2.987781e-10
2.993626e-10
2.995172e-10
9.647719e-12
2.246696e-10
2.965074e-10
2.97728e-10
2.980714e-10
2.986047e-10
2.990343e-10
4.191874e-12
2.234934e-10
2.958677e-10
2.97173e-10
2.976472e-10
2.98183e-10
2.987969e-10
1.140133e-12
2.228306e-10
2.95505e-10
2.968756e-10
2.974217e-10
2.980118e-10
2.987385e-10
1.193153e-12
2.226877e-10
2.954417e-10
2.968094e-10
2.97351e-10
2.97938e-10
2.986611e-10
4.264562e-12
2.231361e-10
2.957522e-10
2.970562e-10
2.975189e-10
2.980454e-10
2.986503e-10
9.725096e-12
2.241196e-10
2.963468e-10
2.975642e-10
2.978844e-10
2.98388e-10
2.987825e-10
1.711223e-11
2.25552e-10
2.972367e-10
2.983386e-10
2.98468e-10
2.989907e-10
2.991016e-10
2.563028e-11
2.278499e-10
2.985346e-10
2.991313e-10
2.991277e-10
2.994605e-10
2.999669e-10
3.436841e-11
2.323331e-10
2.999425e-10
3.004649e-10
3.00329e-10
3.005342e-10
3.013428e-10
4.200871e-11
2.355059e-10
3.011226e-10
3.01702e-10
3.016354e-10
3.020781e-10
3.03293e-10
4.81492e-11
2.377852e-10
3.026519e-10
3.033318e-10
3.033355e-10
3.04092e-10
3.050571e-10
5.24981e-11
2.404464e-10
3.043919e-10
3.052905e-10
3.051213e-10
3.060136e-10
3.07049e-10
5.486495e-11
2.431867e-10
3.062362e-10
3.070721e-10
3.071504e-10
3.081094e-10
3.09683e-10
5.527893e-11
2.468371e-10
3.077639e-10
3.087599e-10
3.093564e-10
3.103374e-10
3.118087e-10
5.404085e-11
2.502104e-10
3.087632e-10
3.105783e-10
3.112121e-10
3.121678e-10
3.136877e-10
5.115756e-11
2.526259e-10
3.095226e-10
3.117961e-10
3.129325e-10
3.138332e-10
3.157184e-10
4.702818e-11
2.543141e-10
3.103404e-10
3.126195e-10
3.142865e-10
3.158425e-10
3.173822e-10
4.219148e-11
2.556912e-10
3.110538e-10
3.134028e-10
3.152702e-10
3.172983e-10
3.192336e-10
3.70915e-11
2.576204e-10
3.115183e-10
3.139978e-10
3.159106e-10
3.181134e-10
3.206536e-10
3.211135e-11
2.594062e-10
3.117338e-10
3.142775e-10
3.163053e-10
3.185929e-10
3.212441e-10
2.738222e-11
2.605092e-10
3.118402e-10
3.144078e-10
3.165054e-10
3.188398e-10
3.215878e-10
2.301659e-11
2.612143e-10
3.119168e-10
3.144824e-10
3.166032e-10
3.18995e-10
3.217986e-10
1.913035e-11
2.621113e-10
3.119845e-10
3.145456e-10
3.166883e-10
3.19135e-10
3.219856e-10
1.576248e-11
2.628634e-10
3.120322e-10
3.145943e-10
3.167724e-10
3.192603e-10
3.22065e-10
1.290643e-11
2.634756e-10
3.120691e-10
3.146526e-10
3.168582e-10
3.193442e-10
3.221279e-10
1.051165e-11
2.640106e-10
3.121027e-10
3.147036e-10
3.169366e-10
3.19392e-10
3.221811e-10
8.525937e-12
2.644289e-10
3.121619e-10
3.147449e-10
3.169693e-10
3.194304e-10
3.22228e-10
6.897109e-12
2.656749e-10
3.122401e-10
3.147911e-10
3.169978e-10
3.194639e-10
3.222698e-10
5.575526e-12
2.666465e-10
3.12261e-10
3.148104e-10
3.170206e-10
3.194939e-10
3.223107e-10
4.523098e-12
2.672332e-10
3.122699e-10
3.148255e-10
3.170411e-10
3.195205e-10
3.223466e-10
3.677944e-12
2.677874e-10
3.122917e-10
3.148392e-10
3.170597e-10
3.19544e-10
3.22381e-10
2.993219e-12
2.679685e-10
3.123021e-10
3.148511e-10
3.170765e-10
3.195684e-10
3.224556e-10
2.446521e-12
2.681798e-10
3.123128e-10
3.148622e-10
3.170916e-10
3.195897e-10
3.225181e-10
2.010875e-12
2.68361e-10
3.123221e-10
3.148724e-10
3.171052e-10
3.196078e-10
3.225414e-10
1.66455e-12
2.685374e-10
3.123313e-10
3.148817e-10
3.171181e-10
3.196274e-10
3.225627e-10
1.389252e-12
2.687058e-10
3.123394e-10
3.1489e-10
3.171317e-10
3.196753e-10
3.226094e-10
1.170224e-12
2.688665e-10
3.123471e-10
3.14898e-10
3.171441e-10
3.197147e-10
3.226664e-10
9.95653e-13
2.690204e-10
3.123546e-10
3.149054e-10
3.171539e-10
3.197284e-10
3.22682e-10
8.561318e-13
2.691672e-10
3.123613e-10
3.149122e-10
3.171653e-10
3.197407e-10
3.226947e-10
7.442423e-13
2.693077e-10
3.123679e-10
3.1492e-10
3.171969e-10
3.197712e-10
3.227087e-10
6.54109e-13
2.694417e-10
3.123743e-10
3.149271e-10
3.172227e-10
3.198085e-10
3.227224e-10
5.811617e-13
2.695699e-10
3.123801e-10
3.149323e-10
3.172303e-10
3.198183e-10
3.227327e-10
5.217854e-13
2.696917e-10
3.123853e-10
3.149375e-10
3.172368e-10
3.198258e-10
3.227425e-10
4.731843e-13
2.698077e-10
3.123901e-10
3.149433e-10
3.172436e-10
3.198332e-10
3.22752e-10
4.331632e-13
2.699185e-10
3.123961e-10
3.149629e-10
3.172623e-10
3.198412e-10
3.227613e-10
3.999914e-13
2.700228e-10
3.12401e-10
3.149784e-10
3.172851e-10
3.198495e-10
3.227699e-10
3.722934e-13
2.701208e-10
3.124045e-10
3.149821e-10
3.172905e-10
3.198559e-10
3.227784e-10
3.489974e-13
2.702115e-10
3.124071e-10
3.149849e-10
3.172943e-10
3.198616e-10
3.227863e-10
3.292469e-13
2.702951e-10
3.124093e-10
3.149873e-10
3.172982e-10
3.198675e-10
3.227942e-10
3.123623e-13
2.703701e-10
3.124106e-10
3.149895e-10
3.173021e-10
3.198734e-10
3.228025e-10
2.97784e-13
2.704346e-10
3.12411e-10
3.149917e-10
3.173062e-10
3.198796e-10
3.22811e-10
2.850584e-13
2.704832e-10
3.124109e-10
3.149946e-10
3.173108e-10
3.198871e-10
3.228205e-10
2.738268e-13
2.705377e-10
3.124263e-10
3.150056e-10
3.17318e-10
3.19896e-10
3.228343e-10
2.637873e-13
2.705645e-10
3.124385e-10
3.15022e-10
3.173289e-10
3.199102e-10
3.228945e-10
2.546196e-13
2.705404e-10
3.124416e-10
3.150341e-10
3.173451e-10
3.199668e-10
3.229616e-10
2.464993e-13
2.70481e-10
3.124549e-10
3.150569e-10
3.174042e-10
3.200319e-10
3.230315e-10
2.414293e-13
2.703255e-10
3.124881e-10
3.15129e-10
3.174766e-10
3.201021e-10
3.231042e-10
2.390183e-13
2.703081e-10
3.126113e-10
3.152279e-10
3.175601e-10
3.201766e-10
3.231783e-10
2.491233e-13
2.72715e-10
3.127642e-10
3.153671e-10
3.176584e-10
3.202546e-10
3.232527e-10
3.268069e-10
3.313141e-10
3.374024e-10
3.432988e-10
3.539703e-10
3.714291e-10
1.439122e-09
3.267321e-10
3.31216e-10
3.372715e-10
3.431404e-10
3.537723e-10
3.711343e-10
6.723831e-10
3.266533e-10
3.311177e-10
3.371457e-10
3.451923e-10
3.535915e-10
3.708495e-10
6.705962e-10
3.265731e-10
3.310188e-10
3.370132e-10
3.42824e-10
3.533824e-10
3.705656e-10
6.683541e-10
3.264949e-10
3.309198e-10
3.368859e-10
3.426581e-10
3.531864e-10
3.70283e-10
6.661926e-10
3.264174e-10
3.30821e-10
3.367566e-10
3.42499e-10
3.529926e-10
3.700023e-10
6.639706e-10
3.263417e-10
3.30723e-10
3.366281e-10
3.423451e-10
3.52939e-10
3.697253e-10
6.61714e-10
3.262723e-10
3.306259e-10
3.365006e-10
3.421942e-10
3.52889e-10
3.694515e-10
6.59438e-10
3.262553e-10
3.30536e-10
3.363792e-10
3.420399e-10
3.52735e-10
3.692026e-10
6.571471e-10
3.262429e-10
3.305138e-10
3.362657e-10
3.418863e-10
3.525822e-10
3.68955e-10
6.548492e-10
3.262314e-10
3.304975e-10
3.362364e-10
3.417373e-10
3.5243e-10
3.687087e-10
6.525375e-10
3.262198e-10
3.304807e-10
3.362139e-10
3.417049e-10
3.52277e-10
3.684625e-10
6.502032e-10
3.262084e-10
3.304638e-10
3.361907e-10
3.416761e-10
3.522506e-10
3.682122e-10
6.478068e-10
3.261965e-10
3.304467e-10
3.361667e-10
3.416461e-10
3.522211e-10
3.681643e-10
6.445572e-10
3.261845e-10
3.304286e-10
3.361418e-10
3.416148e-10
3.521899e-10
3.681036e-10
6.297579e-10
3.261718e-10
3.304099e-10
3.361159e-10
3.415823e-10
3.521567e-10
3.680413e-10
6.20268e-10
3.261589e-10
3.303904e-10
3.360892e-10
3.41548e-10
3.521096e-10
3.679777e-10
6.061058e-10
3.261453e-10
3.303706e-10
3.360609e-10
3.414964e-10
3.516442e-10
3.679098e-10
5.785162e-10
3.261312e-10
3.30351e-10
3.36032e-10
3.41459e-10
3.515841e-10
3.678393e-10
5.542823e-10
3.261161e-10
3.303303e-10
3.360016e-10
3.4142e-10
3.515342e-10
3.677643e-10
5.27287e-10
3.261007e-10
3.303086e-10
3.359699e-10
3.413794e-10
3.514822e-10
3.676845e-10
4.982941e-10
3.260839e-10
3.302856e-10
3.359371e-10
3.413366e-10
3.51428e-10
3.676006e-10
4.782216e-10
3.260665e-10
3.302612e-10
3.359003e-10
3.412929e-10
3.513623e-10
3.675121e-10
4.60367e-10
3.260439e-10
3.302355e-10
3.358675e-10
3.432901e-10
3.509411e-10
3.673797e-10
4.458238e-10
3.260207e-10
3.302082e-10
3.358226e-10
3.412111e-10
3.507081e-10
3.67273e-10
4.343078e-10
3.259993e-10
3.301799e-10
3.357834e-10
3.411422e-10
3.50628e-10
3.67173e-10
4.236094e-10
3.259717e-10
3.301478e-10
3.35739e-10
3.410861e-10
3.505438e-10
3.670546e-10
4.145705e-10
3.258826e-10
3.301114e-10
3.356895e-10
3.410262e-10
3.50429e-10
3.661045e-10
4.056562e-10
3.258109e-10
3.289484e-10
3.341284e-10
3.409537e-10
3.503244e-10
3.65741e-10
4.000234e-10
3.257711e-10
3.289021e-10
3.340721e-10
3.408883e-10
3.502283e-10
3.656031e-10
3.95694e-10
3.256456e-10
3.287518e-10
3.3402e-10
3.408167e-10
3.501265e-10
3.649602e-10
9.836201e-10
3.255527e-10
3.286286e-10
3.339632e-10
3.40739e-10
3.500161e-10
3.642384e-10
9.090993e-10
3.254929e-10
3.28397e-10
3.338881e-10
3.406547e-10
3.498985e-10
3.640232e-10
7.746907e-10
3.254378e-10
3.283164e-10
3.336512e-10
3.405638e-10
3.497721e-10
3.637489e-10
6.56024e-10
3.25376e-10
3.2823e-10
3.333648e-10
3.404596e-10
3.496364e-10
3.634907e-10
3.922401e-10
3.253055e-10
3.281388e-10
3.330639e-10
3.40315e-10
3.494948e-10
3.632423e-10
3.735789e-10
3.252267e-10
3.280331e-10
3.329424e-10
3.398144e-10
3.493364e-10
3.630407e-10
3.804624e-10
3.251225e-10
3.27907e-10
3.328125e-10
3.394007e-10
3.491005e-10
3.630011e-10
3.902647e-10
3.249707e-10
3.277451e-10
3.326831e-10
3.390935e-10
3.485877e-10
3.629549e-10
4.000026e-10
3.24635e-10
3.274643e-10
3.323485e-10
3.385169e-10
3.475326e-10
3.623084e-10
4.166541e-10
3.23804e-10
3.264714e-10
3.312759e-10
3.379732e-10
3.47188e-10
3.599861e-10
4.116592e-10
3.222727e-10
3.249167e-10
3.300111e-10
3.374269e-10
3.46342e-10
3.564799e-10
4.113577e-10
3.208254e-10
3.238101e-10
3.28944e-10
3.360043e-10
3.442393e-10
3.532106e-10
4.555513e-10
3.198124e-10
3.226491e-10
3.283557e-10
3.346549e-10
3.422221e-10
3.518615e-10
3.907066e-10
3.178891e-10
3.211356e-10
3.264863e-10
3.339159e-10
3.38992e-10
3.502647e-10
4.144186e-10
3.156362e-10
3.196414e-10
3.257419e-10
3.309057e-10
3.375959e-10
3.465607e-10
4.043257e-10
3.134389e-10
3.176404e-10
3.23435e-10
3.29704e-10
3.346845e-10
3.454638e-10
5.12638e-10
3.115402e-10
3.157489e-10
3.219458e-10
3.26894e-10
3.33981e-10
3.422627e-10
4.052602e-10
3.086275e-10
3.138248e-10
3.192255e-10
3.243024e-10
3.314382e-10
3.413448e-10
3.685227e-10
3.066491e-10
3.111967e-10
3.171454e-10
3.222654e-10
3.293277e-10
3.381308e-10
3.668522e-10
3.045904e-10
3.092136e-10
3.147007e-10
3.203621e-10
3.279196e-10
3.358489e-10
3.566988e-10
3.029955e-10
3.072245e-10
3.131462e-10
3.178771e-10
3.24466e-10
3.332588e-10
3.474068e-10
3.017615e-10
3.054153e-10
3.114905e-10
3.158832e-10
3.223242e-10
3.307332e-10
3.530638e-10
3.008309e-10
3.042989e-10
3.096649e-10
3.149036e-10
3.200226e-10
3.280032e-10
3.401091e-10
3.0047e-10
3.03441e-10
3.090234e-10
3.138047e-10
3.196612e-10
3.226252e-10
3.284565e-10
3.004823e-10
3.031117e-10
3.087056e-10
3.134416e-10
3.173893e-10
3.206131e-10
3.0041e-10
3.028607e-10
3.086608e-10
3.134109e-10
3.17228e-10
3.207963e-10
3.002963e-10
3.024263e-10
3.084962e-10
3.134096e-10
3.177182e-10
3.204406e-10
3.005047e-10
3.025091e-10
3.090722e-10
3.134744e-10
3.190682e-10
3.247488e-10
3.316056e-10
3.012756e-10
3.028597e-10
3.097009e-10
3.14467e-10
3.199465e-10
3.290213e-10
3.43049e-10
3.023361e-10
3.041205e-10
3.115487e-10
3.166485e-10
3.227353e-10
3.30809e-10
3.45384e-10
3.037864e-10
3.057035e-10
3.127804e-10
3.18086e-10
3.252182e-10
3.339256e-10
3.464371e-10
3.057168e-10
3.076343e-10
3.154624e-10
3.20649e-10
3.270452e-10
3.363489e-10
3.648555e-10
3.076495e-10
3.101364e-10
3.16952e-10
3.218213e-10
3.297712e-10
3.385876e-10
3.674201e-10
3.10386e-10
3.126313e-10
3.186618e-10
3.247751e-10
3.316439e-10
3.406695e-10
4.090559e-10
3.123191e-10
3.150429e-10
3.212308e-10
3.264867e-10
3.332506e-10
3.419832e-10
4.314643e-10
3.14497e-10
3.171379e-10
3.230258e-10
3.291797e-10
3.34873e-10
3.44338e-10
4.381445e-10
3.168972e-10
3.193708e-10
3.248242e-10
3.30844e-10
3.370647e-10
3.465465e-10
4.2354e-10
3.184627e-10
3.212477e-10
3.265283e-10
3.327169e-10
3.393278e-10
3.494532e-10
4.703312e-10
3.200635e-10
3.225488e-10
3.275617e-10
3.342732e-10
3.414862e-10
3.507955e-10
3.963459e-10
3.217025e-10
3.238547e-10
3.287596e-10
3.356525e-10
3.440541e-10
3.539673e-10
4.372222e-10
3.235536e-10
3.253549e-10
3.3013e-10
3.366989e-10
3.459236e-10
3.573646e-10
4.13317e-10
3.245554e-10
3.271753e-10
3.315846e-10
3.377666e-10
3.467406e-10
3.609416e-10
4.194368e-10
3.249342e-10
3.27608e-10
3.325734e-10
3.388371e-10
3.477252e-10
3.624132e-10
4.100412e-10
3.251002e-10
3.277984e-10
3.327226e-10
3.391764e-10
3.491116e-10
3.631261e-10
4.080211e-10
3.252117e-10
3.279391e-10
3.328583e-10
3.39531e-10
3.492221e-10
3.629371e-10
3.934244e-10
3.252948e-10
3.280622e-10
3.329876e-10
3.400122e-10
3.494149e-10
3.631465e-10
3.874217e-10
3.253683e-10
3.281694e-10
3.331898e-10
3.403908e-10
3.4956e-10
3.633716e-10
3.985305e-10
3.254326e-10
3.282681e-10
3.334908e-10
3.405102e-10
3.49701e-10
3.636053e-10
3.830417e-10
3.254894e-10
3.283315e-10
3.33836e-10
3.406066e-10
3.498336e-10
3.638567e-10
7.78493e-10
3.255503e-10
3.285078e-10
3.339234e-10
3.406958e-10
3.499567e-10
3.641415e-10
9.262324e-10
3.256439e-10
3.28659e-10
3.339906e-10
3.407775e-10
3.500712e-10
3.643867e-10
9.655316e-10
3.257702e-10
3.28868e-10
3.340458e-10
3.408527e-10
3.501784e-10
3.654978e-10
4.17814e-10
3.258105e-10
3.289078e-10
3.34098e-10
3.409221e-10
3.502774e-10
3.656756e-10
3.98674e-10
3.258823e-10
3.301114e-10
3.356898e-10
3.409934e-10
3.503747e-10
3.6582e-10
4.027473e-10
3.259716e-10
3.30148e-10
3.357394e-10
3.410537e-10
3.504928e-10
3.666895e-10
4.099325e-10
3.259994e-10
3.301802e-10
3.357842e-10
3.411116e-10
3.50589e-10
3.671256e-10
4.184635e-10
3.260209e-10
3.302088e-10
3.358257e-10
3.411661e-10
3.506715e-10
3.672278e-10
4.275369e-10
3.260442e-10
3.302363e-10
3.358654e-10
3.412182e-10
3.507592e-10
3.67326e-10
4.380507e-10
3.260668e-10
3.302618e-10
3.359023e-10
3.412678e-10
3.512158e-10
3.67456e-10
4.516519e-10
3.260841e-10
3.30286e-10
3.359376e-10
3.413147e-10
3.514027e-10
3.675608e-10
4.654549e-10
3.261008e-10
3.303093e-10
3.359711e-10
3.413588e-10
3.514583e-10
3.676464e-10
4.841217e-10
3.261166e-10
3.30331e-10
3.360028e-10
3.414011e-10
3.515121e-10
3.677285e-10
5.045136e-10
3.261319e-10
3.303518e-10
3.360334e-10
3.414409e-10
3.515627e-10
3.678062e-10
5.28581e-10
3.261459e-10
3.303715e-10
3.360622e-10
3.414789e-10
3.51611e-10
3.678797e-10
5.558901e-10
3.261594e-10
3.303913e-10
3.360905e-10
3.415255e-10
3.518514e-10
3.679496e-10
5.819562e-10
3.261723e-10
3.304107e-10
3.361172e-10
3.415673e-10
3.521429e-10
3.680159e-10
6.068043e-10
3.261849e-10
3.304293e-10
3.361429e-10
3.416009e-10
3.521761e-10
3.680788e-10
6.249529e-10
3.261968e-10
3.304471e-10
3.361676e-10
3.416333e-10
3.522083e-10
3.681407e-10
6.403712e-10
3.262083e-10
3.30464e-10
3.361914e-10
3.416642e-10
3.522385e-10
3.681964e-10
6.466646e-10
3.262194e-10
3.304805e-10
3.362142e-10
3.416942e-10
3.522676e-10
3.683453e-10
6.490617e-10
3.262304e-10
3.304968e-10
3.362363e-10
3.417228e-10
3.523567e-10
3.685906e-10
6.513592e-10
3.262413e-10
3.305126e-10
3.362652e-10
3.418136e-10
3.525077e-10
3.688368e-10
6.536275e-10
3.262528e-10
3.305341e-10
3.36378e-10
3.419669e-10
3.526602e-10
3.690834e-10
6.558772e-10
3.262685e-10
3.306228e-10
3.364985e-10
3.421215e-10
3.52813e-10
3.693315e-10
6.581241e-10
3.263362e-10
3.307188e-10
3.36625e-10
3.42277e-10
3.5296e-10
3.695916e-10
6.603646e-10
3.264103e-10
3.308156e-10
3.367528e-10
3.424248e-10
3.529029e-10
3.698672e-10
6.626004e-10
3.264861e-10
3.309137e-10
3.368814e-10
3.425826e-10
3.530902e-10
3.701453e-10
6.64824e-10
3.265634e-10
3.310127e-10
3.370109e-10
3.427407e-10
3.53284e-10
3.704263e-10
6.670245e-10
3.266438e-10
3.311126e-10
3.371409e-10
3.428999e-10
3.534789e-10
3.707087e-10
6.692474e-10
3.267248e-10
3.312122e-10
3.372711e-10
3.430583e-10
3.536748e-10
3.709924e-10
6.714678e-10
3.268057e-10
3.313134e-10
3.374016e-10
3.432171e-10
3.538711e-10
3.712794e-10
6.74217e-10
3.824142e-07
4.591623e-07
4.5939e-07
4.593901e-07
4.593901e-07
4.593901e-07
4.593901e-07
4.593901e-07
4.593901e-07
4.593901e-07
4.593901e-07
4.593901e-07
4.593901e-07
4.593901e-07
4.593901e-07
4.593901e-07
4.593901e-07
4.593901e-07
3.977772e-07
4.592717e-07
4.593907e-07
4.593907e-07
4.593907e-07
4.593907e-07
4.593907e-07
4.593907e-07
4.593907e-07
4.593907e-07
4.593907e-07
4.593907e-07
4.593907e-07
4.593907e-07
4.593907e-07
4.593907e-07
4.593907e-07
4.593907e-07
3.952842e-07
4.592536e-07
4.593907e-07
4.593907e-07
4.593907e-07
4.593907e-07
4.593907e-07
4.593907e-07
4.593907e-07
4.593907e-07
4.593907e-07
4.593907e-07
4.593907e-07
4.593907e-07
4.593907e-07
4.593907e-07
4.593907e-07
4.593907e-07
3.925831e-07
4.592469e-07
4.593907e-07
4.593907e-07
4.593907e-07
4.593907e-07
4.593907e-07
4.593907e-07
4.593907e-07
4.593907e-07
4.593907e-07
4.593907e-07
4.593907e-07
4.593907e-07
4.593907e-07
4.593907e-07
4.593907e-07
4.593907e-07
3.894117e-07
4.592399e-07
4.593907e-07
4.593907e-07
4.593907e-07
4.593907e-07
4.593907e-07
4.593907e-07
4.593907e-07
4.593907e-07
4.593907e-07
4.593907e-07
4.593907e-07
4.593907e-07
4.593907e-07
4.593907e-07
4.593907e-07
4.593907e-07
3.857825e-07
4.592321e-07
4.593907e-07
4.593907e-07
4.593907e-07
4.593907e-07
4.593907e-07
4.593907e-07
4.593907e-07
4.593907e-07
4.593907e-07
4.593907e-07
4.593907e-07
4.593907e-07
4.593907e-07
4.593907e-07
4.593907e-07
4.593907e-07
3.817428e-07
4.592239e-07
4.593907e-07
4.593907e-07
4.593907e-07
4.593907e-07
4.593907e-07
4.593907e-07
4.593907e-07
4.593907e-07
4.593907e-07
4.593907e-07
4.593907e-07
4.593907e-07
4.593907e-07
4.593907e-07
4.593907e-07
4.593907e-07
3.773378e-07
4.592155e-07
4.593907e-07
4.593907e-07
4.593907e-07
4.593907e-07
4.593907e-07
4.593907e-07
4.593907e-07
4.593907e-07
4.593907e-07
4.593907e-07
4.593907e-07
4.593907e-07
4.593907e-07
4.593907e-07
4.593907e-07
4.593907e-07
3.726045e-07
4.592071e-07
4.593907e-07
4.593907e-07
4.593907e-07
4.593907e-07
4.593907e-07
4.593907e-07
4.593907e-07
4.593907e-07
4.593907e-07
4.593907e-07
4.593907e-07
4.593907e-07
4.593907e-07
4.593907e-07
4.593907e-07
4.593907e-07
3.675768e-07
4.591987e-07
4.593907e-07
4.593907e-07
4.593907e-07
4.593907e-07
4.593907e-07
4.593907e-07
4.593907e-07
4.593907e-07
4.593907e-07
4.593907e-07
4.593907e-07
4.593907e-07
4.593907e-07
4.593907e-07
4.593907e-07
4.593907e-07
3.622765e-07
4.591903e-07
4.593907e-07
4.593907e-07
4.593907e-07
4.593907e-07
4.593907e-07
4.593907e-07
4.593907e-07
4.593907e-07
4.593907e-07
4.593907e-07
4.593907e-07
4.593907e-07
4.593907e-07
4.593907e-07
4.593907e-07
4.593907e-07
3.567079e-07
4.591813e-07
4.593906e-07
4.593907e-07
4.593907e-07
4.593907e-07
4.593907e-07
4.593907e-07
4.593907e-07
4.593907e-07
4.593907e-07
4.593907e-07
4.593907e-07
4.593907e-07
4.593907e-07
4.593907e-07
4.593907e-07
4.593907e-07
3.508462e-07
4.591697e-07
4.593906e-07
4.593907e-07
4.593907e-07
4.593907e-07
4.593907e-07
4.593907e-07
4.593907e-07
4.593907e-07
4.593907e-07
4.593907e-07
4.593907e-07
4.593907e-07
4.593907e-07
4.593907e-07
4.593907e-07
4.593907e-07
3.44023e-07
4.59148e-07
4.593906e-07
4.593907e-07
4.593907e-07
4.593907e-07
4.593907e-07
4.593907e-07
4.593907e-07
4.593907e-07
4.593907e-07
4.593907e-07
4.593907e-07
4.593907e-07
4.593907e-07
4.593907e-07
4.593907e-07
4.593907e-07
2.974084e-07
4.590228e-07
4.593906e-07
4.593907e-07
4.593907e-07
4.593907e-07
4.593907e-07
4.593907e-07
4.593907e-07
4.593907e-07
4.593907e-07
4.593907e-07
4.593907e-07
4.593907e-07
4.593907e-07
4.593907e-07
4.593907e-07
4.593907e-07
2.821102e-07
4.588852e-07
4.59391e-07
4.593907e-07
4.593907e-07
4.593907e-07
4.593907e-07
4.593907e-07
4.593907e-07
4.593907e-07
4.593907e-07
4.593907e-07
4.593907e-07
4.593907e-07
4.593907e-07
4.593907e-07
4.593907e-07
4.593907e-07
2.628302e-07
4.58873e-07
4.593894e-07
4.59391e-07
4.593907e-07
4.593907e-07
4.593907e-07
4.593907e-07
4.593907e-07
4.593907e-07
4.593907e-07
4.593907e-07
4.593907e-07
4.593907e-07
4.593907e-07
4.593907e-07
4.593907e-07
4.593907e-07
2.46202e-07
4.588401e-07
4.5939e-07
4.593902e-07
4.593909e-07
4.593907e-07
4.593907e-07
4.593907e-07
4.593907e-07
4.593907e-07
4.593907e-07
4.593907e-07
4.593907e-07
4.593907e-07
4.593907e-07
4.593907e-07
4.593907e-07
4.593907e-07
2.3123e-07
4.588051e-07
4.593904e-07
4.593905e-07
4.593904e-07
4.593907e-07
4.593907e-07
4.593907e-07
4.593907e-07
4.593907e-07
4.593907e-07
4.593907e-07
4.593907e-07
4.593907e-07
4.593907e-07
4.593907e-07
4.593907e-07
4.593907e-07
2.173344e-07
4.587671e-07
4.593904e-07
4.593907e-07
4.593907e-07
4.593907e-07
4.593907e-07
4.593907e-07
4.593907e-07
4.593907e-07
4.593907e-07
4.593907e-07
4.593907e-07
4.593907e-07
4.593907e-07
4.593907e-07
4.593907e-07
4.593907e-07
2.042393e-07
4.587159e-07
4.593904e-07
4.593907e-07
4.593907e-07
4.593907e-07
4.593907e-07
4.593907e-07
4.593907e-07
4.593907e-07
4.593907e-07
4.593907e-07
4.593907e-07
4.593907e-07
4.593907e-07
4.593907e-07
4.593907e-07
4.593907e-07
1.926101e-07
4.586458e-07
4.593904e-07
4.593907e-07
4.593907e-07
4.593907e-07
4.593907e-07
4.593907e-07
4.593907e-07
4.593907e-07
4.593907e-07
4.593907e-07
4.593907e-07
4.593907e-07
4.593907e-07
4.593907e-07
4.593907e-07
4.593907e-07
1.820593e-07
4.585889e-07
4.593903e-07
4.593907e-07
4.593907e-07
4.593907e-07
4.593907e-07
4.593907e-07
4.593907e-07
4.593907e-07
4.593907e-07
4.593907e-07
4.593907e-07
4.593907e-07
4.593907e-07
4.593907e-07
4.593907e-07
4.593907e-07
1.718014e-07
4.585198e-07
4.593903e-07
4.593907e-07
4.593907e-07
4.593907e-07
4.593907e-07
4.593907e-07
4.593907e-07
4.593907e-07
4.593907e-07
4.593907e-07
4.593907e-07
4.593907e-07
4.593907e-07
4.593907e-07
4.593907e-07
4.593907e-07
1.614603e-07
4.584376e-07
4.593903e-07
4.593907e-07
4.593907e-07
4.593907e-07
4.593907e-07
4.593907e-07
4.593907e-07
4.593907e-07
4.593907e-07
4.593907e-07
4.593907e-07
4.593907e-07
4.593907e-07
4.593907e-07
4.593907e-07
4.593907e-07
1.517503e-07
4.583629e-07
4.593902e-07
4.593907e-07
4.593907e-07
4.593907e-07
4.593907e-07
4.593907e-07
4.593907e-07
4.593907e-07
4.593907e-07
4.593907e-07
4.593907e-07
4.593907e-07
4.593907e-07
4.593907e-07
4.593907e-07
4.593907e-07
1.423563e-07
4.582979e-07
4.593902e-07
4.593907e-07
4.593907e-07
4.593907e-07
4.593907e-07
4.593907e-07
4.593907e-07
4.593907e-07
4.593907e-07
4.593907e-07
4.593907e-07
4.593907e-07
4.593907e-07
4.593907e-07
4.593907e-07
4.593907e-07
1.329914e-07
4.582192e-07
4.593901e-07
4.593907e-07
4.593907e-07
4.593907e-07
4.593907e-07
4.593907e-07
4.593907e-07
4.593907e-07
4.593907e-07
4.593907e-07
4.593907e-07
4.593907e-07
4.593907e-07
4.593907e-07
4.593907e-07
4.593907e-07
1.24268e-07
4.581254e-07
4.593901e-07
4.593907e-07
4.593907e-07
4.593907e-07
4.593907e-07
4.593907e-07
4.593907e-07
4.593907e-07
4.593907e-07
4.593907e-07
4.593907e-07
4.593907e-07
4.593907e-07
4.593907e-07
4.593907e-07
4.593907e-07
1.157745e-07
4.580601e-07
4.5939e-07
4.593894e-07
4.593895e-07
4.593907e-07
4.593907e-07
4.593907e-07
4.593907e-07
4.593907e-07
4.593907e-07
4.593907e-07
4.593907e-07
4.593907e-07
4.593907e-07
4.593907e-07
4.593907e-07
4.593907e-07
1.084919e-07
4.580118e-07
4.5939e-07
4.593662e-07
4.593681e-07
4.593905e-07
4.593907e-07
4.593908e-07
4.593907e-07
4.593907e-07
4.593907e-07
4.593907e-07
4.593907e-07
4.593907e-07
4.593907e-07
4.593907e-07
4.593907e-07
4.593907e-07
1.005488e-07
4.580324e-07
4.5939e-07
4.593492e-07
4.593674e-07
4.593901e-07
4.593907e-07
4.593899e-07
4.593899e-07
4.593907e-07
4.593907e-07
4.593907e-07
4.593907e-07
4.593907e-07
4.593907e-07
4.593907e-07
4.593907e-07
4.593907e-07
9.242187e-08
4.581578e-07
4.593913e-07
4.594004e-07
4.594021e-07
4.593907e-07
4.593907e-07
4.593906e-07
4.593906e-07
4.593907e-07
4.593907e-07
4.593907e-07
4.593907e-07
4.593907e-07
4.593907e-07
4.593907e-07
4.593907e-07
4.593907e-07
8.416529e-08
4.589635e-07
4.593889e-07
4.593486e-07
4.593457e-07
4.593869e-07
4.593907e-07
4.593907e-07
4.593907e-07
4.593907e-07
4.593907e-07
4.593907e-07
4.593907e-07
4.593907e-07
4.593907e-07
4.593907e-07
4.593907e-07
4.593907e-07
6.449144e-08
4.572703e-07
4.593783e-07
4.591855e-07
4.591973e-07
4.592476e-07
4.593905e-07
4.593908e-07
4.593903e-07
4.593906e-07
4.593907e-07
4.593907e-07
4.593907e-07
4.593907e-07
4.593907e-07
4.593907e-07
4.593907e-07
4.593907e-07
5.581031e-08
4.576738e-07
4.593755e-07
4.593826e-07
4.593234e-07
4.593706e-07
4.593903e-07
4.593885e-07
4.593873e-07
4.593907e-07
4.593907e-07
4.593907e-07
4.593907e-07
4.593907e-07
4.593907e-07
4.593907e-07
4.593907e-07
4.593907e-07
4.612379e-08
4.577745e-07
4.593641e-07
4.593938e-07
4.593939e-07
4.593907e-07
4.593997e-07
4.593985e-07
4.593904e-07
4.5939e-07
4.593889e-07
4.593898e-07
4.593907e-07
4.593908e-07
4.593907e-07
4.593907e-07
4.593907e-07
4.593907e-07
1.53679e-09
4.55799e-07
4.590211e-07
4.591996e-07
4.592059e-07
4.592258e-07
4.593585e-07
4.594913e-07
4.595185e-07
4.594529e-07
4.594646e-07
4.594443e-07
4.593916e-07
4.593886e-07
4.593904e-07
4.593907e-07
4.593907e-07
4.593907e-07
7.703617e-09
4.513403e-07
4.585489e-07
4.587578e-07
4.588809e-07
4.590136e-07