/*--------------------------------*- C++ -*----------------------------------*\
| =========                 |                                                 |
| \\      /  F ield         | OpenFOAM: The Open Source CFD Toolbox           |
|  \\    /   O peration     | Version:  2206                                  |
|   \\  /    A nd           | Website:  www.openfoam.com                      |
|    \\/     M anipulation  |                                                 |
\*---------------------------------------------------------------------------*/
FoamFile
{
    version     2.0;
    format      ascii;
    arch        "LSB;label=32;scalar=64";
    class       volScalarField;
    location    "1.2";
    object      k.b_0;
}
// * * * * * * * * * * * * * * * * * * * * * * * * * * * * * * * * * * * * * //

dimensions      [0 2 -2 0 0 0 0];

internalField   nonuniform List<scalar> 
13078
(
2.493305e-13
2.959829e-10
3.16031e-10
3.179206e-10
3.201803e-10
3.227801e-10
3.257967e-10
2.512782e-13
2.728657e-10
3.15195e-10
3.178027e-10
3.201075e-10
3.227198e-10
3.257325e-10
2.414938e-13
2.723254e-10
3.150193e-10
3.176718e-10
3.200164e-10
3.226458e-10
3.256605e-10
2.487897e-13
2.726433e-10
3.149529e-10
3.175742e-10
3.199318e-10
3.225709e-10
3.255861e-10
2.57139e-13
2.727517e-10
3.149174e-10
3.175343e-10
3.198616e-10
3.224995e-10
3.255132e-10
2.667078e-13
2.728116e-10
3.149033e-10
3.175111e-10
3.198374e-10
3.224373e-10
3.254426e-10
2.771353e-13
2.728131e-10
3.148868e-10
3.174886e-10
3.19821e-10
3.224192e-10
3.253792e-10
2.886859e-13
2.727788e-10
3.1487e-10
3.174745e-10
3.198105e-10
3.224073e-10
3.253632e-10
3.01677e-13
2.727439e-10
3.148704e-10
3.174701e-10
3.19804e-10
3.223981e-10
3.25352e-10
3.164988e-13
2.726887e-10
3.148706e-10
3.174673e-10
3.197988e-10
3.223905e-10
3.253424e-10
3.336265e-13
2.726197e-10
3.1487e-10
3.17465e-10
3.197943e-10
3.223838e-10
3.253333e-10
3.536412e-13
2.725395e-10
3.148684e-10
3.174627e-10
3.197902e-10
3.223775e-10
3.253248e-10
3.772355e-13
2.724507e-10
3.148661e-10
3.1746e-10
3.197863e-10
3.223715e-10
3.253165e-10
4.052805e-13
2.723535e-10
3.14863e-10
3.174564e-10
3.197809e-10
3.22365e-10
3.253077e-10
4.38861e-13
2.722492e-10
3.148584e-10
3.17441e-10
3.19758e-10
3.223566e-10
3.252989e-10
4.793319e-13
2.72138e-10
3.148527e-10
3.174214e-10
3.197393e-10
3.223486e-10
3.252896e-10
5.284258e-13
2.720209e-10
3.148481e-10
3.174157e-10
3.197325e-10
3.223412e-10
3.252801e-10
5.883712e-13
2.718974e-10
3.14843e-10
3.174106e-10
3.19726e-10
3.223336e-10
3.252701e-10
6.619821e-13
2.717671e-10
3.148373e-10
3.174053e-10
3.197184e-10
3.223237e-10
3.252596e-10
7.528902e-13
2.716304e-10
3.14831e-10
3.173983e-10
3.196924e-10
3.222863e-10
3.25246e-10
8.656849e-13
2.71487e-10
3.148245e-10
3.173905e-10
3.196605e-10
3.222556e-10
3.252321e-10
1.00627e-12
2.713367e-10
3.148178e-10
3.173839e-10
3.196494e-10
3.222435e-10
3.252196e-10
1.182096e-12
2.711789e-10
3.148103e-10
3.173764e-10
3.196397e-10
3.222299e-10
3.252037e-10
1.402626e-12
2.71014e-10
3.148026e-10
3.173687e-10
3.196272e-10
3.221901e-10
3.251465e-10
1.679742e-12
2.708411e-10
3.147946e-10
3.173602e-10
3.196136e-10
3.221418e-10
3.250994e-10
2.02831e-12
2.706599e-10
3.147857e-10
3.173509e-10
3.196009e-10
3.221225e-10
3.250781e-10
2.466763e-12
2.704736e-10
3.147764e-10
3.173409e-10
3.195874e-10
3.221046e-10
3.250548e-10
3.017019e-12
2.702571e-10
3.147658e-10
3.173301e-10
3.195723e-10
3.220832e-10
3.249925e-10
3.706395e-12
2.700708e-10
3.147556e-10
3.173183e-10
3.195556e-10
3.220589e-10
3.249175e-10
4.557632e-12
2.695143e-10
3.147342e-10
3.173049e-10
3.195376e-10
3.220355e-10
3.248832e-10
5.61945e-12
2.689173e-10
3.147256e-10
3.172904e-10
3.195175e-10
3.220096e-10
3.248476e-10
6.952058e-12
2.679387e-10
3.147054e-10
3.172715e-10
3.194953e-10
3.219805e-10
3.248073e-10
8.595936e-12
2.666913e-10
3.146284e-10
3.17226e-10
3.194678e-10
3.219478e-10
3.247667e-10
1.060272e-11
2.662662e-10
3.145699e-10
3.171857e-10
3.19436e-10
3.219109e-10
3.247215e-10
1.303185e-11
2.658214e-10
3.145401e-10
3.171361e-10
3.193566e-10
3.218633e-10
3.246707e-10
1.59362e-11
2.653209e-10
3.145036e-10
3.170789e-10
3.192619e-10
3.217506e-10
3.246079e-10
1.935392e-11
2.647718e-10
3.144626e-10
3.170311e-10
3.191771e-10
3.216466e-10
3.245321e-10
2.329863e-11
2.641815e-10
3.144126e-10
3.169806e-10
3.191091e-10
3.21525e-10
3.243532e-10
2.77313e-11
2.635745e-10
3.143508e-10
3.169158e-10
3.190194e-10
3.21378e-10
3.241519e-10
3.25129e-11
2.624434e-10
3.142518e-10
3.168011e-10
3.188495e-10
3.21148e-10
3.238267e-10
3.754835e-11
2.603342e-10
3.140509e-10
3.165477e-10
3.184969e-10
3.207226e-10
3.232889e-10
4.272392e-11
2.58138e-10
3.135901e-10
3.159718e-10
3.17902e-10
3.199632e-10
3.220446e-10
4.762556e-11
2.568438e-10
3.129004e-10
3.152051e-10
3.169367e-10
3.18609e-10
3.203173e-10
5.17901e-11
2.552708e-10
3.121002e-10
3.144102e-10
3.156422e-10
3.167397e-10
3.187426e-10
5.468022e-11
2.529849e-10
3.113522e-10
3.132388e-10
3.140373e-10
3.152022e-10
3.170127e-10
5.589804e-11
2.497224e-10
3.103809e-10
3.114806e-10
3.122516e-10
3.134334e-10
3.152389e-10
5.544302e-11
2.462078e-10
3.089135e-10
3.098474e-10
3.100697e-10
3.1121e-10
3.129737e-10
5.30204e-11
2.435786e-10
3.071131e-10
3.081118e-10
3.080637e-10
3.090681e-10
3.102724e-10
4.861466e-11
2.409554e-10
3.053749e-10
3.061303e-10
3.062589e-10
3.071658e-10
3.082473e-10
4.240493e-11
2.386411e-10
3.03812e-10
3.044447e-10
3.044818e-10
3.050545e-10
3.064227e-10
3.467849e-11
2.354098e-10
3.025996e-10
3.031284e-10
3.030728e-10
3.033772e-10
3.043074e-10
2.58319e-11
2.308493e-10
3.012036e-10
3.018344e-10
3.018627e-10
3.022359e-10
3.028045e-10
1.72123e-11
2.283406e-10
2.998028e-10
3.009261e-10
3.010977e-10
3.016794e-10
3.018265e-10
9.725729e-12
2.266546e-10
2.988153e-10
3.000452e-10
3.003834e-10
3.009132e-10
3.013389e-10
4.216218e-12
2.254642e-10
2.98168e-10
2.99484e-10
2.999539e-10
3.004862e-10
3.010979e-10
1.138643e-12
2.247914e-10
2.978007e-10
2.99183e-10
2.997255e-10
3.003124e-10
3.010376e-10
1.208557e-12
2.246478e-10
2.977372e-10
2.991167e-10
2.996548e-10
3.002386e-10
3.0096e-10
4.315438e-12
2.251049e-10
2.980521e-10
2.993671e-10
2.998258e-10
3.003488e-10
3.009512e-10
9.832293e-12
2.261016e-10
2.986544e-10
2.998813e-10
3.001965e-10
3.006967e-10
3.010867e-10
1.729365e-11
2.27555e-10
2.995552e-10
3.006647e-10
3.007876e-10
3.013074e-10
3.014101e-10
2.590161e-11
2.298872e-10
3.008682e-10
3.014672e-10
3.014558e-10
3.017838e-10
3.022863e-10
3.474746e-11
2.34417e-10
3.022912e-10
3.028138e-10
3.026694e-10
3.02869e-10
3.036779e-10
4.250207e-11
2.376266e-10
3.034869e-10
3.040644e-10
3.039896e-10
3.044286e-10
3.05647e-10
4.874523e-11
2.399375e-10
3.050341e-10
3.057109e-10
3.057069e-10
3.064622e-10
3.074271e-10
5.31684e-11
2.426307e-10
3.06793e-10
3.076889e-10
3.075109e-10
3.084026e-10
3.094383e-10
5.557085e-11
2.453989e-10
3.086557e-10
3.094877e-10
3.095605e-10
3.105194e-10
3.120982e-10
5.598424e-11
2.490753e-10
3.101969e-10
3.111915e-10
3.117878e-10
3.127699e-10
3.142447e-10
5.471841e-11
2.524703e-10
3.112052e-10
3.130258e-10
3.136615e-10
3.146192e-10
3.161439e-10
5.178418e-11
2.54901e-10
3.119707e-10
3.142535e-10
3.153976e-10
3.16302e-10
3.181959e-10
4.758775e-11
2.566e-10
3.12794e-10
3.15083e-10
3.167627e-10
3.183292e-10
3.198777e-10
4.267853e-11
2.579855e-10
3.135118e-10
3.158713e-10
3.177534e-10
3.19797e-10
3.217462e-10
3.750678e-11
2.599238e-10
3.139788e-10
3.164698e-10
3.183977e-10
3.206179e-10
3.231777e-10
3.24606e-11
2.617175e-10
3.141958e-10
3.167512e-10
3.187949e-10
3.211005e-10
3.237726e-10
2.76728e-11
2.628255e-10
3.143029e-10
3.168824e-10
3.189963e-10
3.213489e-10
3.241187e-10
2.32551e-11
2.635341e-10
3.143799e-10
3.169576e-10
3.190947e-10
3.215053e-10
3.243307e-10
1.932456e-11
2.64435e-10
3.144478e-10
3.170212e-10
3.191805e-10
3.216463e-10
3.24519e-10
1.591996e-11
2.651904e-10
3.144957e-10
3.170702e-10
3.192653e-10
3.217724e-10
3.245989e-10
1.303392e-11
2.658051e-10
3.145327e-10
3.17129e-10
3.193517e-10
3.21857e-10
3.246622e-10
1.061495e-11
2.663422e-10
3.145664e-10
3.171804e-10
3.194306e-10
3.21905e-10
3.247157e-10
8.609561e-12
2.667622e-10
3.146257e-10
3.172219e-10
3.194635e-10
3.219436e-10
3.247628e-10
6.964886e-12
2.680123e-10
3.147038e-10
3.172685e-10
3.194921e-10
3.219773e-10
3.248048e-10
5.630628e-12
2.68987e-10
3.147248e-10
3.172879e-10
3.195151e-10
3.220074e-10
3.24846e-10
4.568051e-12
2.695757e-10
3.147337e-10
3.173032e-10
3.195357e-10
3.220342e-10
3.24882e-10
3.715255e-12
2.701317e-10
3.147555e-10
3.173169e-10
3.195544e-10
3.220578e-10
3.249166e-10
3.024017e-12
2.703134e-10
3.147658e-10
3.173289e-10
3.195713e-10
3.220823e-10
3.249917e-10
2.472103e-12
2.705253e-10
3.147765e-10
3.173401e-10
3.195864e-10
3.221037e-10
3.250546e-10
2.032253e-12
2.70707e-10
3.147858e-10
3.173502e-10
3.196002e-10
3.22122e-10
3.25078e-10
1.682555e-12
2.708839e-10
3.147949e-10
3.173596e-10
3.196131e-10
3.221416e-10
3.250995e-10
1.404546e-12
2.710528e-10
3.14803e-10
3.17368e-10
3.196267e-10
3.221899e-10
3.251464e-10
1.183336e-12
2.712139e-10
3.148107e-10
3.17376e-10
3.196392e-10
3.222296e-10
3.252038e-10
1.007004e-12
2.713683e-10
3.148182e-10
3.173835e-10
3.196491e-10
3.222433e-10
3.252195e-10
8.660571e-13
2.715155e-10
3.148248e-10
3.173903e-10
3.196606e-10
3.222557e-10
3.252322e-10
7.530114e-13
2.716564e-10
3.148314e-10
3.173982e-10
3.196924e-10
3.222864e-10
3.252464e-10
6.619376e-13
2.717907e-10
3.148378e-10
3.174053e-10
3.197184e-10
3.22324e-10
3.252601e-10
5.88224e-13
2.719194e-10
3.148436e-10
3.174106e-10
3.19726e-10
3.223338e-10
3.252705e-10
5.282224e-13
2.720415e-10
3.148487e-10
3.174158e-10
3.197326e-10
3.223414e-10
3.252803e-10
4.791113e-13
2.721579e-10
3.148535e-10
3.174217e-10
3.197395e-10
3.223488e-10
3.2529e-10
4.386764e-13
2.722689e-10
3.148595e-10
3.174414e-10
3.197583e-10
3.223568e-10
3.252993e-10
4.05169e-13
2.723736e-10
3.148645e-10
3.17457e-10
3.197813e-10
3.223652e-10
3.253079e-10
3.77198e-13
2.72472e-10
3.148679e-10
3.174608e-10
3.197867e-10
3.223716e-10
3.253165e-10
3.536794e-13
2.725628e-10
3.148706e-10
3.174636e-10
3.197906e-10
3.223774e-10
3.253245e-10
3.337464e-13
2.726468e-10
3.148728e-10
3.17466e-10
3.197944e-10
3.223833e-10
3.253324e-10
3.167107e-13
2.72722e-10
3.14874e-10
3.174682e-10
3.197984e-10
3.223893e-10
3.253407e-10
3.020058e-13
2.727867e-10
3.148745e-10
3.174704e-10
3.198025e-10
3.223956e-10
3.253492e-10
2.89175e-13
2.728355e-10
3.148743e-10
3.174733e-10
3.198072e-10
3.22403e-10
3.253588e-10
2.778655e-13
2.728901e-10
3.148898e-10
3.174845e-10
3.198144e-10
3.22412e-10
3.253727e-10
2.677834e-13
2.729171e-10
3.14902e-10
3.17501e-10
3.198254e-10
3.224262e-10
3.254333e-10
2.586209e-13
2.728929e-10
3.149052e-10
3.175131e-10
3.198416e-10
3.224833e-10
3.255009e-10
2.505839e-13
2.728333e-10
3.149186e-10
3.17536e-10
3.19901e-10
3.225488e-10
3.255712e-10
2.452395e-13
2.726774e-10
3.149519e-10
3.176085e-10
3.199739e-10
3.226194e-10
3.256444e-10
2.418104e-13
2.7266e-10
3.150756e-10
3.177079e-10
3.200579e-10
3.226944e-10
3.25719e-10
2.524535e-13
2.750738e-10
3.152294e-10
3.178479e-10
3.201568e-10
3.227729e-10
3.257939e-10
3.293753e-10
3.339169e-10
3.400519e-10
3.459932e-10
3.567461e-10
3.743352e-10
1.431966e-09
3.293e-10
3.338182e-10
3.3992e-10
3.458336e-10
3.565466e-10
3.740392e-10
6.748748e-10
3.292206e-10
3.337192e-10
3.397933e-10
3.479013e-10
3.563644e-10
3.737523e-10
6.730868e-10
3.291399e-10
3.336195e-10
3.396598e-10
3.455149e-10
3.561538e-10
3.734663e-10
6.708481e-10
3.290611e-10
3.335198e-10
3.395315e-10
3.453478e-10
3.559563e-10
3.731816e-10
6.686944e-10
3.289831e-10
3.334202e-10
3.394013e-10
3.451875e-10
3.557611e-10
3.728988e-10
6.664831e-10
3.289068e-10
3.333215e-10
3.392718e-10
3.450324e-10
3.557071e-10
3.726197e-10
6.642402e-10
3.288369e-10
3.332237e-10
3.391434e-10
3.448804e-10
3.556568e-10
3.72344e-10
6.619807e-10
3.288198e-10
3.331332e-10
3.390211e-10
3.44725e-10
3.555017e-10
3.720932e-10
6.597099e-10
3.288073e-10
3.331108e-10
3.389068e-10
3.445702e-10
3.553477e-10
3.718438e-10
6.574353e-10
3.287958e-10
3.330944e-10
3.388773e-10
3.444201e-10
3.551944e-10
3.715957e-10
6.551502e-10
3.287841e-10
3.330775e-10
3.388546e-10
3.443875e-10
3.550403e-10
3.713478e-10
6.528467e-10
3.287726e-10
3.330606e-10
3.388312e-10
3.443586e-10
3.550137e-10
3.710957e-10
6.504865e-10
3.287607e-10
3.330433e-10
3.388071e-10
3.443284e-10
3.54984e-10
3.710475e-10
6.472824e-10
3.287486e-10
3.330252e-10
3.38782e-10
3.442969e-10
3.549527e-10
3.709865e-10
6.326143e-10
3.287359e-10
3.330063e-10
3.38756e-10
3.442642e-10
3.549193e-10
3.709239e-10
6.23239e-10
3.287228e-10
3.329867e-10
3.387292e-10
3.442297e-10
3.548719e-10
3.7086e-10
6.094337e-10
3.287092e-10
3.329668e-10
3.387007e-10
3.441777e-10
3.54403e-10
3.707919e-10
5.820335e-10
3.28695e-10
3.32947e-10
3.386716e-10
3.441401e-10
3.543427e-10
3.707211e-10
5.578322e-10
3.286798e-10
3.329263e-10
3.38641e-10
3.441009e-10
3.542924e-10
3.706458e-10
5.308217e-10
3.286643e-10
3.329044e-10
3.386092e-10
3.440601e-10
3.542401e-10
3.705658e-10
5.01765e-10
3.286475e-10
3.328813e-10
3.385761e-10
3.44017e-10
3.541857e-10
3.704816e-10
4.816279e-10
3.286299e-10
3.328568e-10
3.385392e-10
3.439731e-10
3.541197e-10
3.703928e-10
4.637048e-10
3.286073e-10
3.32831e-10
3.385062e-10
3.459858e-10
3.536954e-10
3.702597e-10
4.491111e-10
3.285839e-10
3.328036e-10
3.384611e-10
3.43891e-10
3.534608e-10
3.701527e-10
4.375598e-10
3.285624e-10
3.327751e-10
3.384217e-10
3.438216e-10
3.533803e-10
3.700523e-10
4.26823e-10
3.285347e-10
3.327428e-10
3.383771e-10
3.437653e-10
3.532957e-10
3.699335e-10
4.17751e-10
3.28445e-10
3.327063e-10
3.383274e-10
3.437052e-10
3.531804e-10
3.689767e-10
4.087966e-10
3.283728e-10
3.315345e-10
3.367545e-10
3.436323e-10
3.530753e-10
3.686109e-10
4.031387e-10
3.283329e-10
3.31488e-10
3.366979e-10
3.435666e-10
3.529788e-10
3.684727e-10
3.987769e-10
3.282065e-10
3.313366e-10
3.366456e-10
3.434948e-10
3.528766e-10
3.678268e-10
9.907119e-10
3.28113e-10
3.312127e-10
3.365886e-10
3.434168e-10
3.527659e-10
3.67099e-10
9.165682e-10
3.280529e-10
3.309797e-10
3.365132e-10
3.433323e-10
3.526479e-10
3.668832e-10
7.814405e-10
3.279976e-10
3.308986e-10
3.362747e-10
3.432411e-10
3.525212e-10
3.666079e-10
6.638453e-10
3.279354e-10
3.308119e-10
3.359866e-10
3.431366e-10
3.523852e-10
3.663486e-10
3.953468e-10
3.278645e-10
3.307202e-10
3.356836e-10
3.429915e-10
3.522432e-10
3.660996e-10
3.764439e-10
3.277852e-10
3.30614e-10
3.355613e-10
3.424874e-10
3.520845e-10
3.658984e-10
3.8354e-10
3.276803e-10
3.304872e-10
3.354306e-10
3.420708e-10
3.518468e-10
3.658602e-10
3.933133e-10
3.275273e-10
3.303243e-10
3.353001e-10
3.417601e-10
3.513272e-10
3.65811e-10
4.035226e-10
3.271887e-10
3.300411e-10
3.349609e-10
3.411734e-10
3.502574e-10
3.651617e-10
4.211552e-10
3.263497e-10
3.290373e-10
3.338722e-10
3.406151e-10
3.499004e-10
3.628274e-10
4.157344e-10
3.248006e-10
3.274609e-10
3.325875e-10
3.400531e-10
3.490386e-10
3.592828e-10
4.150224e-10
3.233334e-10
3.263372e-10
3.315022e-10
3.386108e-10
3.469133e-10
3.559782e-10
4.601412e-10
3.223047e-10
3.251601e-10
3.309005e-10
3.372383e-10
3.448757e-10
3.546105e-10
3.938709e-10
3.203606e-10
3.236281e-10
3.290069e-10
3.364819e-10
3.416157e-10
3.529927e-10
4.178139e-10
3.18084e-10
3.22116e-10
3.282419e-10
3.334415e-10
3.401965e-10
3.492542e-10
4.077153e-10
3.15863e-10
3.20091e-10
3.259106e-10
3.322196e-10
3.372577e-10
3.481442e-10
5.17408e-10
3.139451e-10
3.181795e-10
3.244041e-10
3.293804e-10
3.365366e-10
3.449114e-10
4.082902e-10
3.110057e-10
3.162357e-10
3.216573e-10
3.267624e-10
3.339703e-10
3.439704e-10
3.713136e-10
3.090074e-10
3.135802e-10
3.195511e-10
3.247135e-10
3.318441e-10
3.407241e-10
3.694639e-10
3.069278e-10
3.115763e-10
3.170862e-10
3.228037e-10
3.304277e-10
3.384137e-10
3.592441e-10
3.05313e-10
3.095589e-10
3.155208e-10
3.202878e-10
3.269322e-10
3.358001e-10
3.500216e-10
3.040662e-10
3.077321e-10
3.13842e-10
3.182702e-10
3.247694e-10
3.332495e-10
3.55641e-10
3.03127e-10
3.066005e-10
3.119965e-10
3.172837e-10
3.224511e-10
3.305174e-10
3.427058e-10
3.027636e-10
3.057349e-10
3.113445e-10
3.161694e-10
3.220995e-10
3.251038e-10
3.309322e-10
3.027754e-10
3.054029e-10
3.110281e-10
3.158019e-10
3.198062e-10
3.230741e-10
3.027027e-10
3.051506e-10
3.109857e-10
3.157636e-10
3.196398e-10
3.232534e-10
3.025891e-10
3.047105e-10
3.108205e-10
3.15776e-10
3.20146e-10
3.229023e-10
3.027994e-10
3.04791e-10
3.114101e-10
3.158616e-10
3.214987e-10
3.272319e-10
3.341352e-10
3.035788e-10
3.05148e-10
3.120477e-10
3.168512e-10
3.223809e-10
3.31533e-10
3.456552e-10
3.046528e-10
3.064217e-10
3.139088e-10
3.190488e-10
3.251948e-10
3.333381e-10
3.479959e-10
3.061234e-10
3.080273e-10
3.151576e-10
3.205056e-10
3.277087e-10
3.365008e-10
3.490664e-10
3.080746e-10
3.099834e-10
3.178643e-10
3.230955e-10
3.295613e-10
3.389397e-10
3.673833e-10
3.100274e-10
3.125167e-10
3.193734e-10
3.242764e-10
3.323074e-10
3.411963e-10
3.70112e-10
3.127904e-10
3.150385e-10
3.211016e-10
3.272515e-10
3.341883e-10
3.433089e-10
4.122156e-10
3.147431e-10
3.174739e-10
3.237002e-10
3.289783e-10
3.358107e-10
3.446407e-10
4.349987e-10
3.169443e-10
3.195942e-10
3.255142e-10
3.317065e-10
3.374549e-10
3.470185e-10
4.414042e-10
3.193694e-10
3.218516e-10
3.273393e-10
3.333924e-10
3.396726e-10
3.492523e-10
4.271249e-10
3.209527e-10
3.237503e-10
3.290654e-10
3.352919e-10
3.419571e-10
3.521844e-10
4.760219e-10
3.225726e-10
3.250687e-10
3.301133e-10
3.368708e-10
3.441385e-10
3.535363e-10
3.997477e-10
3.242304e-10
3.26393e-10
3.313289e-10
3.382682e-10
3.467358e-10
3.56742e-10
4.418845e-10
3.260992e-10
3.279127e-10
3.327188e-10
3.393321e-10
3.486275e-10
3.601798e-10
4.169288e-10
3.271092e-10
3.2975e-10
3.341905e-10
3.404164e-10
3.494593e-10
3.637876e-10
4.236506e-10
3.274908e-10
3.301865e-10
3.351894e-10
3.415002e-10
3.504579e-10
3.652642e-10
4.140772e-10
3.276579e-10
3.303781e-10
3.353402e-10
3.418443e-10
3.518573e-10
3.659852e-10
4.116452e-10
3.277702e-10
3.305196e-10
3.354768e-10
3.42203e-10
3.519692e-10
3.657953e-10
3.966099e-10
3.278538e-10
3.306433e-10
3.356069e-10
3.426863e-10
3.521632e-10
3.660042e-10
3.904939e-10
3.279277e-10
3.307509e-10
3.358103e-10
3.430675e-10
3.523085e-10
3.662294e-10
4.017673e-10
3.279923e-10
3.3085e-10
3.361134e-10
3.431874e-10
3.524499e-10
3.664634e-10
3.862549e-10
3.280494e-10
3.309138e-10
3.36461e-10
3.432841e-10
3.525829e-10
3.667152e-10
7.865223e-10
3.281107e-10
3.310911e-10
3.365486e-10
3.433735e-10
3.527062e-10
3.670018e-10
9.341943e-10
3.282048e-10
3.312432e-10
3.366161e-10
3.434555e-10
3.528211e-10
3.67248e-10
9.729231e-10
3.28332e-10
3.314537e-10
3.366715e-10
3.43531e-10
3.529287e-10
3.683669e-10
4.206917e-10
3.283724e-10
3.314936e-10
3.367238e-10
3.436006e-10
3.530281e-10
3.685454e-10
4.017857e-10
3.284447e-10
3.327064e-10
3.383277e-10
3.436721e-10
3.531257e-10
3.686902e-10
4.058767e-10
3.285346e-10
3.327431e-10
3.383775e-10
3.437327e-10
3.532445e-10
3.695659e-10
4.130957e-10
3.285625e-10
3.327754e-10
3.384225e-10
3.437908e-10
3.533411e-10
3.700048e-10
4.216618e-10
3.285841e-10
3.328042e-10
3.384642e-10
3.438456e-10
3.53424e-10
3.701073e-10
4.307699e-10
3.286075e-10
3.328317e-10
3.385041e-10
3.438979e-10
3.535122e-10
3.702058e-10
4.41319e-10
3.286302e-10
3.328574e-10
3.385412e-10
3.439478e-10
3.539721e-10
3.703364e-10
4.549676e-10
3.286477e-10
3.328818e-10
3.385767e-10
3.439949e-10
3.541603e-10
3.704416e-10
4.688131e-10
3.286644e-10
3.329051e-10
3.386103e-10
3.440392e-10
3.542162e-10
3.705276e-10
4.875338e-10
3.286803e-10
3.32927e-10
3.386422e-10
3.440818e-10
3.542702e-10
3.706099e-10
5.079818e-10
3.286956e-10
3.329478e-10
3.38673e-10
3.441219e-10
3.543211e-10
3.706879e-10
5.320882e-10
3.287098e-10
3.329677e-10
3.38702e-10
3.441601e-10
3.543697e-10
3.707616e-10
5.594011e-10
3.287234e-10
3.329876e-10
3.387304e-10
3.44207e-10
3.546118e-10
3.708318e-10
5.854085e-10
3.287364e-10
3.330071e-10
3.387573e-10
3.44249e-10
3.549054e-10
3.708983e-10
6.101161e-10
3.28749e-10
3.330258e-10
3.387832e-10
3.442829e-10
3.549389e-10
3.709616e-10
6.27981e-10
3.287609e-10
3.330438e-10
3.38808e-10
3.443155e-10
3.549712e-10
3.710238e-10
6.431578e-10
3.287726e-10
3.330608e-10
3.38832e-10
3.443465e-10
3.550016e-10
3.710798e-10
6.493687e-10
3.287837e-10
3.330773e-10
3.388549e-10
3.443767e-10
3.550309e-10
3.712297e-10
6.517249e-10
3.287948e-10
3.330938e-10
3.388771e-10
3.444055e-10
3.551205e-10
3.714768e-10
6.539891e-10
3.288057e-10
3.331097e-10
3.389062e-10
3.44497e-10
3.552727e-10
3.717247e-10
6.562288e-10
3.288173e-10
3.331313e-10
3.390199e-10
3.446514e-10
3.554263e-10
3.719732e-10
6.584536e-10
3.288331e-10
3.332206e-10
3.391413e-10
3.448072e-10
3.555802e-10
3.722231e-10
6.606789e-10
3.289013e-10
3.333173e-10
3.392687e-10
3.449638e-10
3.557283e-10
3.724851e-10
6.629012e-10
3.289759e-10
3.334149e-10
3.393975e-10
3.451127e-10
3.556707e-10
3.727628e-10
6.651218e-10
3.290523e-10
3.335137e-10
3.39527e-10
3.452717e-10
3.558594e-10
3.730429e-10
6.673332e-10
3.291301e-10
3.336134e-10
3.396575e-10
3.45431e-10
3.560547e-10
3.73326e-10
6.695242e-10
3.29211e-10
3.33714e-10
3.397884e-10
3.455913e-10
3.56251e-10
3.736104e-10
6.717408e-10
3.292926e-10
3.338144e-10
3.399196e-10
3.45751e-10
3.564484e-10
3.738962e-10
6.739588e-10
3.293741e-10
3.339163e-10
3.40051e-10
3.459109e-10
3.566462e-10
3.741855e-10
6.763965e-10
3.833549e-07
4.599644e-07
4.601887e-07
4.601888e-07
4.601888e-07
4.601888e-07
4.601888e-07
4.601888e-07
4.601888e-07
4.601888e-07
4.601888e-07
4.601888e-07
4.601888e-07
4.601888e-07
4.601888e-07
4.601888e-07
4.601888e-07
4.601888e-07
3.987169e-07
4.600717e-07
4.601894e-07
4.601894e-07
4.601894e-07
4.601894e-07
4.601894e-07
4.601894e-07
4.601894e-07
4.601894e-07
4.601894e-07
4.601894e-07
4.601894e-07
4.601894e-07
4.601894e-07
4.601894e-07
4.601894e-07
4.601894e-07
3.962311e-07
4.600539e-07
4.601894e-07
4.601894e-07
4.601894e-07
4.601894e-07
4.601894e-07
4.601894e-07
4.601894e-07
4.601894e-07
4.601894e-07
4.601894e-07
4.601894e-07
4.601894e-07
4.601894e-07
4.601894e-07
4.601894e-07
4.601894e-07
3.935355e-07
4.600472e-07
4.601894e-07
4.601894e-07
4.601894e-07
4.601894e-07
4.601894e-07
4.601894e-07
4.601894e-07
4.601894e-07
4.601894e-07
4.601894e-07
4.601894e-07
4.601894e-07
4.601894e-07
4.601894e-07
4.601894e-07
4.601894e-07
3.903714e-07
4.600403e-07
4.601894e-07
4.601894e-07
4.601894e-07
4.601894e-07
4.601894e-07
4.601894e-07
4.601894e-07
4.601894e-07
4.601894e-07
4.601894e-07
4.601894e-07
4.601894e-07
4.601894e-07
4.601894e-07
4.601894e-07
4.601894e-07
3.86751e-07
4.600325e-07
4.601894e-07
4.601894e-07
4.601894e-07
4.601894e-07
4.601894e-07
4.601894e-07
4.601894e-07
4.601894e-07
4.601894e-07
4.601894e-07
4.601894e-07
4.601894e-07
4.601894e-07
4.601894e-07
4.601894e-07
4.601894e-07
3.827214e-07
4.600244e-07
4.601894e-07
4.601894e-07
4.601894e-07
4.601894e-07
4.601894e-07
4.601894e-07
4.601894e-07
4.601894e-07
4.601894e-07
4.601894e-07
4.601894e-07
4.601894e-07
4.601894e-07
4.601894e-07
4.601894e-07
4.601894e-07
3.783276e-07
4.600161e-07
4.601894e-07
4.601894e-07
4.601894e-07
4.601894e-07
4.601894e-07
4.601894e-07
4.601894e-07
4.601894e-07
4.601894e-07
4.601894e-07
4.601894e-07
4.601894e-07
4.601894e-07
4.601894e-07
4.601894e-07
4.601894e-07
3.736062e-07
4.600077e-07
4.601894e-07
4.601894e-07
4.601894e-07
4.601894e-07
4.601894e-07
4.601894e-07
4.601894e-07
4.601894e-07
4.601894e-07
4.601894e-07
4.601894e-07
4.601894e-07
4.601894e-07
4.601894e-07
4.601894e-07
4.601894e-07
3.68591e-07
4.599994e-07
4.601894e-07
4.601894e-07
4.601894e-07
4.601894e-07
4.601894e-07
4.601894e-07
4.601894e-07
4.601894e-07
4.601894e-07
4.601894e-07
4.601894e-07
4.601894e-07
4.601894e-07
4.601894e-07
4.601894e-07
4.601894e-07
3.633035e-07
4.599911e-07
4.601894e-07
4.601894e-07
4.601894e-07
4.601894e-07
4.601894e-07
4.601894e-07
4.601894e-07
4.601894e-07
4.601894e-07
4.601894e-07
4.601894e-07
4.601894e-07
4.601894e-07
4.601894e-07
4.601894e-07
4.601894e-07
3.577477e-07
4.599822e-07
4.601893e-07
4.601894e-07
4.601894e-07
4.601894e-07
4.601894e-07
4.601894e-07
4.601894e-07
4.601894e-07
4.601894e-07
4.601894e-07
4.601894e-07
4.601894e-07
4.601894e-07
4.601894e-07
4.601894e-07
4.601894e-07
3.518985e-07
4.599707e-07
4.601893e-07
4.601894e-07
4.601894e-07
4.601894e-07
4.601894e-07
4.601894e-07
4.601894e-07
4.601894e-07
4.601894e-07
4.601894e-07
4.601894e-07
4.601894e-07
4.601894e-07
4.601894e-07
4.601894e-07
4.601894e-07
3.450925e-07
4.599492e-07
4.601893e-07
4.601894e-07
4.601894e-07
4.601894e-07
4.601894e-07
4.601894e-07
4.601894e-07
4.601894e-07
4.601894e-07
4.601894e-07
4.601894e-07
4.601894e-07
4.601894e-07
4.601894e-07
4.601894e-07
4.601894e-07
2.984171e-07
4.598248e-07
4.601893e-07
4.601894e-07
4.601894e-07
4.601894e-07
4.601894e-07
4.601894e-07
4.601894e-07
4.601894e-07
4.601894e-07
4.601894e-07
4.601894e-07
4.601894e-07
4.601894e-07
4.601894e-07
4.601894e-07
4.601894e-07
2.831048e-07
4.596896e-07
4.601897e-07
4.601894e-07
4.601894e-07
4.601894e-07
4.601894e-07
4.601894e-07
4.601894e-07
4.601894e-07
4.601894e-07
4.601894e-07
4.601894e-07
4.601894e-07
4.601894e-07
4.601894e-07
4.601894e-07
4.601894e-07
2.638556e-07
4.596753e-07
4.601881e-07
4.601897e-07
4.601894e-07
4.601894e-07
4.601894e-07
4.601894e-07
4.601894e-07
4.601894e-07
4.601894e-07
4.601894e-07
4.601894e-07
4.601894e-07
4.601894e-07
4.601894e-07
4.601894e-07
4.601894e-07
2.471257e-07
4.596424e-07
4.601887e-07
4.601889e-07
4.601895e-07
4.601894e-07
4.601894e-07
4.601894e-07
4.601894e-07
4.601894e-07
4.601894e-07
4.601894e-07
4.601894e-07
4.601894e-07
4.601894e-07
4.601894e-07
4.601894e-07
4.601894e-07
2.321059e-07
4.596078e-07
4.601891e-07
4.601892e-07
4.601891e-07
4.601894e-07
4.601894e-07
4.601894e-07
4.601894e-07
4.601894e-07
4.601894e-07
4.601894e-07
4.601894e-07
4.601894e-07
4.601894e-07
4.601894e-07
4.601894e-07
4.601894e-07
2.181706e-07
4.595705e-07
4.601891e-07
4.601894e-07
4.601894e-07
4.601894e-07
4.601894e-07
4.601894e-07
4.601894e-07
4.601894e-07
4.601894e-07
4.601894e-07
4.601894e-07
4.601894e-07
4.601894e-07
4.601894e-07
4.601894e-07
4.601894e-07
2.05039e-07
4.5952e-07
4.601891e-07
4.601894e-07
4.601894e-07
4.601894e-07
4.601894e-07
4.601894e-07
4.601894e-07
4.601894e-07
4.601894e-07
4.601894e-07
4.601894e-07
4.601894e-07
4.601894e-07
4.601894e-07
4.601894e-07
4.601894e-07
1.9338e-07
4.594505e-07
4.601891e-07
4.601894e-07
4.601894e-07
4.601894e-07
4.601894e-07
4.601894e-07
4.601894e-07
4.601894e-07
4.601894e-07
4.601894e-07
4.601894e-07
4.601894e-07
4.601894e-07
4.601894e-07
4.601894e-07
4.601894e-07
1.82803e-07
4.593942e-07
4.60189e-07
4.601894e-07
4.601894e-07
4.601894e-07
4.601894e-07
4.601894e-07
4.601894e-07
4.601894e-07
4.601894e-07
4.601894e-07
4.601894e-07
4.601894e-07
4.601894e-07
4.601894e-07
4.601894e-07
4.601894e-07
1.725197e-07
4.593256e-07
4.60189e-07
4.601894e-07
4.601894e-07
4.601894e-07
4.601894e-07
4.601894e-07
4.601894e-07
4.601894e-07
4.601894e-07
4.601894e-07
4.601894e-07
4.601894e-07
4.601894e-07
4.601894e-07
4.601894e-07
4.601894e-07
1.621527e-07
4.592441e-07
4.60189e-07
4.601894e-07
4.601894e-07
4.601894e-07
4.601894e-07
4.601894e-07
4.601894e-07
4.601894e-07
4.601894e-07
4.601894e-07
4.601894e-07
4.601894e-07
4.601894e-07
4.601894e-07
4.601894e-07
4.601894e-07
1.524191e-07
4.5917e-07
4.601889e-07
4.601894e-07
4.601894e-07
4.601894e-07
4.601894e-07
4.601894e-07
4.601894e-07
4.601894e-07
4.601894e-07
4.601894e-07
4.601894e-07
4.601894e-07
4.601894e-07
4.601894e-07
4.601894e-07
4.601894e-07
1.430023e-07
4.591058e-07
4.601889e-07
4.601894e-07
4.601894e-07
4.601894e-07
4.601894e-07
4.601894e-07
4.601894e-07
4.601894e-07
4.601894e-07
4.601894e-07
4.601894e-07
4.601894e-07
4.601894e-07
4.601894e-07
4.601894e-07
4.601894e-07
1.336147e-07
4.590278e-07
4.601889e-07
4.601894e-07
4.601894e-07
4.601894e-07
4.601894e-07
4.601894e-07
4.601894e-07
4.601894e-07
4.601894e-07
4.601894e-07
4.601894e-07
4.601894e-07
4.601894e-07
4.601894e-07
4.601894e-07
4.601894e-07
1.248712e-07
4.589349e-07
4.601888e-07
4.601894e-07
4.601894e-07
4.601894e-07
4.601894e-07
4.601894e-07
4.601894e-07
4.601894e-07
4.601894e-07
4.601894e-07
4.601894e-07
4.601894e-07
4.601894e-07
4.601894e-07
4.601894e-07
4.601894e-07
1.163585e-07
4.588705e-07
4.601887e-07
4.601881e-07
4.601882e-07
4.601894e-07
4.601894e-07
4.601894e-07
4.601894e-07
4.601894e-07
4.601894e-07
4.601894e-07
4.601894e-07
4.601894e-07
4.601894e-07
4.601894e-07
4.601894e-07
4.601894e-07
1.090455e-07
4.588232e-07
4.601887e-07
4.601648e-07
4.601668e-07
4.601892e-07
4.601894e-07
4.601895e-07
4.601894e-07
4.601894e-07
4.601894e-07
4.601894e-07
4.601894e-07
4.601894e-07
4.601894e-07
4.601894e-07
4.601894e-07
4.601894e-07
1.010864e-07
4.588445e-07
4.601888e-07
4.601484e-07
4.601663e-07
4.601888e-07
4.601894e-07
4.601886e-07
4.601886e-07
4.601894e-07
4.601894e-07
4.601894e-07
4.601894e-07
4.601894e-07
4.601894e-07
4.601894e-07
4.601894e-07
4.601894e-07
9.294861e-08
4.589707e-07
4.6019e-07
4.601991e-07
4.602007e-07
4.601894e-07
4.601894e-07
4.601893e-07
4.601893e-07
4.601894e-07
4.601894e-07
4.601894e-07
4.601894e-07
4.601894e-07
4.601894e-07
4.601894e-07
4.601894e-07
4.601894e-07
8.467643e-08
4.597728e-07
4.601876e-07
4.601475e-07
4.601448e-07
4.601857e-07
4.601894e-07
4.601894e-07
4.601894e-07
4.601894e-07
4.601894e-07
4.601894e-07
4.601894e-07
4.601894e-07
4.601894e-07
4.601894e-07
4.601894e-07
4.601894e-07
6.495161e-08
4.58089e-07
4.601771e-07
4.599861e-07
4.599969e-07
4.600472e-07
4.601892e-07
4.601895e-07
4.60189e-07
4.601893e-07
4.601894e-07
4.601894e-07
4.601894e-07
4.601894e-07
4.601894e-07
4.601894e-07
4.601894e-07
4.601894e-07
5.625773e-08
4.584961e-07
4.601744e-07
4.601814e-07
4.601231e-07
4.601696e-07
4.60189e-07
4.601872e-07
4.60186e-07
4.601894e-07
4.601894e-07
4.601894e-07
4.601894e-07
4.601894e-07
4.601894e-07
4.601894e-07
4.601894e-07
4.601894e-07
4.65613e-08
4.586068e-07
4.601632e-07
4.601925e-07
4.601926e-07
4.601894e-07
4.601984e-07
4.601972e-07
4.601892e-07
4.601887e-07
4.601876e-07
4.601885e-07
4.601894e-07
4.601895e-07
4.601894e-07
4.601894e-07
4.601894e-07
4.601894e-07
1.794426e-09
4.566148e-07
4.59822e-07
4.599991e-07
4.600049e-07
4.600246e-07
4.601555e-07
4.602867e-07
4.60314e-07
4.602496e-07
4.602617e-07
4.602423e-07
4.601904e-07
4.601873e-07
4.601891e-07
4.601894e-07
4.601894e-07
4.601894e-07
8.068114e-09
4.521995e-07
4.593552e-07
4.595615e-07
4.596824e-07