/*--------------------------------*- C++ -*----------------------------------*\
| =========                 |                                                 |
| \\      /  F ield         | OpenFOAM: The Open Source CFD Toolbox           |
|  \\    /   O peration     | Version:  2206                                  |
|   \\  /    A nd           | Website:  www.openfoam.com                      |
|    \\/     M anipulation  |                                                 |
\*---------------------------------------------------------------------------*/
FoamFile
{
    version     2.0;
    format      ascii;
    arch        "LSB;label=32;scalar=64";
    class       volScalarField;
    location    "1.2";
    object      muEff;
}
// * * * * * * * * * * * * * * * * * * * * * * * * * * * * * * * * * * * * * //

dimensions      [1 -1 -1 0 0 0 0];

internalField   nonuniform List<scalar> 
13078
(
0.0368053
0.0368053
0.0368053
0.0368053
0.0368053
0.0368053
0.0368053
0.0368053
0.0368053
0.0368053
0.0368053
0.0368053
0.0368053
0.0368053
0.0368053
0.0368053
0.0368053
0.0368053
0.0368053
0.0368053
0.0368053
0.0368053
0.0368053
0.0368053
0.0368053
0.0368053
0.0368053
0.0368053
0.0368053
0.0368053
0.0368053
0.0368053
0.0368053
0.0368053
0.0368053
0.0368053
0.0368053
0.0368053
0.0368053
0.0368053
0.0368053
0.0368053
0.0368053
0.0368053
0.0368053
0.0368053
0.0368053
0.0368053
0.0368053
0.0368053
0.0368053
0.0368053
0.0368053
0.0368053
0.0368053
0.0368053
0.0368053
0.0368053
0.0368053
0.0368053
0.0368053
0.0368053
0.0368053
0.0368053
0.0368053
0.0368053
0.0368053
0.0368053
0.0368053
0.0368053
0.0368053
0.0368053
0.0368053
0.0368053
0.0368053
0.0368053
0.0368053
0.0368053
0.0368053
0.0368053
0.0368053
0.0368053
0.0368053
0.0368053
0.0368053
0.0368053
0.0368053
0.0368053
0.0368053
0.0368053
0.0368053
0.0368053
0.0368053
0.0368053
0.0368053
0.0368053
0.0368053
0.0368053
0.0368053
0.0368053
0.0368053
0.0368053
0.0368053
0.0368053
0.0368053
0.0368053
0.0368053
0.0368053
0.0368053
0.0368053
0.0368053
0.0368053
0.0368053
0.0368053
0.0368053
0.0368053
0.0368053
0.0368053
0.0368053
0.0368053
0.0368053
0.0368053
0.0368053
0.0368053
0.0368053
0.0368053
0.0368053
0.0368053
0.0368053
0.0368053
0.0368053
0.0368053
0.0368053
0.0368053
0.0368053
0.0368053
0.0368053
0.0368053
0.0368053
0.0368053
0.0368053
0.0368053
0.0368053
0.0368053
0.0368053
0.0368053
0.0368053
0.0368053
0.0368053
0.0368053
0.0368053
0.0368053
0.0368053
0.0368053
0.0368053
0.0368053
0.0368053
0.0368053
0.0368053
0.0368053
0.0368053
0.0368053
0.0368053
0.0368053
0.0368053
0.0368053
0.0368053
0.0368053
0.0368053
0.0368053
0.0368053
0.0368053
0.0368053
0.0368053
0.0368053
0.0368053
0.0368053
0.0368053
0.0368053
0.0368053
0.0368053
0.0368053
0.0368053
0.0368053
0.0368053
0.0368053
0.0368053
0.0368053
0.0368053
0.0368053
0.0368053
0.0368053
0.0368053
0.0368053
0.0368053
0.0368053
0.0368053
0.0368053
0.0368053
0.0368053
0.0368053
0.0368053
0.0368053
0.0368053
0.0368053
0.0368053
0.0368053
0.0368053
0.0368053
0.0368053
0.0368053
0.0368053
0.0368053
0.0368053
0.0368053
0.0368053
0.0368053
0.0368053
0.0368053
0.0368053
0.0368053
0.0368053
0.0368053
0.0368053
0.0368053
0.0368053
0.0368053
0.0368053
0.0368053
0.0368053
0.0368053
0.0368053
0.0368053
0.0368053
0.0368053
0.0368053
0.0368053
0.0368053
0.0368053
0.0368053
0.0368053
0.0368053
0.0368053
0.0368053
0.0368053
0.0368053
0.0368053
0.0368053
0.0368053
0.0368053
0.0368053
0.0368053
0.0368053
0.0368053
0.0368053
0.0368053
0.0368053
0.0368053
0.0368053
0.0368053
0.0368053
0.0368053
0.0368053
0.0368053
0.0368053
0.0368053
0.0368053
0.0368053
0.0368053
0.0368053
0.0368053
0.0368053
0.0368053
0.0368053
0.0368053
0.0368053
0.0368053
0.0368053
0.0368053
0.0368053
0.0368053
0.0368053
0.0368053
0.0368053
0.0368053
0.0368053
0.0368053
0.0368053
0.0368053
0.0368053
0.0368053
0.0368053
0.0368053
0.0368053
0.0368053
0.0368053
0.0368053
0.0368053
0.0368053
0.0368053
0.0368053
0.0368053
0.0368053
0.0368053
0.0368053
0.0368053
0.0368053
0.0368053
0.0368053
0.0368053
0.0368053
0.0368053
0.0368053
0.0368053
0.0368053
0.0368053
0.0368053
0.0368053
0.0368053
0.0368053
0.0368053
0.0368053
0.0368053
0.0368053
0.0368053
0.0368053
0.0368053
0.0368053
0.0368053
0.0368053
0.0368053
0.0368053
0.0368053
0.0368053
0.0368053
0.0368053
0.0368053
0.0368053
0.0368053
0.0368053
0.0368053
0.0368053
0.0368053
0.0368053
0.0368053
0.0368053
0.0368053
0.0368053
0.0368053
0.0368053
0.0368053
0.0368053
0.0368053
0.0368053
0.0368053
0.0368053
0.0368053
0.0368053
0.0368053
0.0368053
0.0368053
0.0368053
0.0368053
0.0368053
0.0368053
0.0368053
0.0368053
0.0368053
0.0368053
0.0368053
0.0368053
0.0368053
0.0368053
0.0368053
0.0368053
0.0368053
0.0368053
0.0368053
0.0368053
0.0368053
0.0368053
0.0368053
0.0368053
0.0368053
0.0368053
0.0368053
0.0368053
0.0368053
0.0368053
0.0368053
0.0368053
0.0368053
0.0368053
0.0368053
0.0368053
0.0368053
0.0368053
0.0368053
0.0368053
0.0368053
0.0368053
0.0368053
0.0368053
0.0368053
0.0368053
0.0368053
0.0368053
0.0368053
0.0368053
0.0368053
0.0368053
0.0368053
0.0368053
0.0368053
0.0368053
0.0368053
0.0368053
0.0368053
0.0368053
0.0368053
0.0368053
0.0368053
0.0368053
0.0368053
0.0368053
0.0368053
0.0368053
0.0368053
0.0368053
0.0368053
0.0368053
0.0368053
0.0368053
0.0368053
0.0368053
0.0368053
0.0368053
0.0368053
0.0368053
0.0368053
0.0368053
0.0368053
0.0368053
0.0368053
0.0368053
0.0368053
0.0368053
0.0368053
0.0368053
0.0368053
0.0368053
0.0368053
0.0368053
0.0368053
0.0368053
0.0368053
0.0368053
0.0368053
0.0368053
0.0368053
0.0368053
0.0368053
0.0368053
0.0368053
0.0368053
0.0368053
0.0368053
0.0368053
0.0368053
0.0368053
0.0368053
0.0368053
0.0368053
0.0368053
0.0368053
0.0368053
0.0368053
0.0368053
0.0368053
0.0368053
0.0368053
0.0368053
0.0368053
0.0368053
0.0368053
0.0368053
0.0368053
0.0368053
0.0368053
0.0368053
0.0368053
0.0368053
0.0368053
0.0368053
0.0368053
0.0368053
0.0368053
0.0368053
0.0368053
0.0368053
0.0368053
0.0368053
0.0368053
0.0368053
0.0368053
0.0368053
0.0368053
0.0368053
0.0368053
0.0368053
0.0368053
0.0368053
0.0368053
0.0368053
0.0368053
0.0368053
0.0368053
0.0368053
0.0368053
0.0368053
0.0368053
0.0368053
0.0368053
0.0368053
0.0368053
0.0368053
0.0368053
0.0368053
0.0368053
0.0368053
0.0368053
0.0368053
0.0368053
0.0368053
0.0368053
0.0368053
0.0368053
0.0368053
0.0368053
0.0368053
0.0368053
0.0368053
0.0368053
0.0368053
0.0368053
0.0368053
0.0368053
0.0368053
0.0368053
0.0368053
0.0368053
0.0368053
0.0368053
0.0368053
0.0368053
0.0368053
0.0368053
0.0368053
0.0368053
0.0368053
0.0368053
0.0368053
0.0368053
0.0368053
0.0368053
0.0368053
0.0368053
0.0368053
0.0368053
0.0368053
0.0368053
0.0368053
0.0368053
0.0368053
0.0368053
0.0368053
0.0368053
0.0368053
0.0368053
0.0368053
0.0368053
0.0368053
0.0368053
0.0368053
0.0368053
0.0368053
0.0368053
0.0368053
0.0368053
0.0368053
0.0368053
0.0368053
0.0368053
0.0368053
0.0368053
0.0368053
0.0368053
0.0368053
0.0368053
0.0368053
0.0368053
0.0368053
0.0368053
0.0368053
0.0368053
0.0368053
0.0368053
0.0368053
0.0368053
0.0368053
0.0368053
0.0368053
0.0368053
0.0368053
0.0368053
0.0368053
0.0368053
0.0368053
0.0368053
0.0368053
0.0368053
0.0368053
0.0368053
0.0368053
0.0368053
0.0368053
0.0368053
0.0368053
0.0368053
0.0368053
0.0368053
0.0368053
0.0368053
0.0368053
0.0368053
0.0368053
0.0368053
0.0368053
0.0368053
0.0368053
0.0368053
0.0368053
0.0368053
0.0368053
0.0368053
0.0368053
0.0368053
0.0368053
0.0368053
0.0368053
0.0368053
0.0368053
0.0368053
0.0368053
0.0368053
0.0368053
0.0368053
0.0368053
0.0368053
0.0368053
0.0368053
0.0368053
0.0368053
0.0368053
0.0368053
0.0368053
0.0368053
0.0368053
0.0368053
0.0368053
0.0368053
0.0368053
0.0368053
0.0368053
0.0368053
0.0368053
0.0368053
0.0368053
0.0368053
0.0368053
0.0368053
0.0368053
0.0368053
0.0368053
0.0368053
0.0368053
0.0368053
0.0368053
0.0368053
0.0368053
0.0368053
0.0368053
0.0368053
0.0368053
0.0368053
0.0368053
0.0368053
0.0368053
0.0368053
0.0368053
0.0368053
0.0368053
0.0368053
0.0368053
0.0368053
0.0368053
0.0368053
0.0368053
0.0368053
0.0368053
0.0368053
0.0368053
0.0368053
0.0368053
0.0368053
0.0368053
0.0368053
0.0368053
0.0368053
0.0368053
0.0368053
0.0368053
0.0368053
0.0368053
0.0368053
0.0368053
0.0368053
0.0368053
0.0368053
0.0368053
0.0368053
0.0368053
0.0368053
0.0368053
0.0368053
0.0368053
0.0368053
0.0368053
0.0368053
0.0368053
0.0368053
0.0368053
0.0368053
0.0368053
0.0368053
0.0368053
0.0368053
0.0368053
0.0368053
0.0368053
0.0368053
0.0368053
0.0368053
0.0368053
0.0368053
0.0368053
0.0368053
0.0368053
0.0368053
0.0368053
0.0368053
0.0368053
0.0368053
0.0368053
0.0368053
0.0368053
0.0368053
0.0368053
0.0368053
0.0368053
0.0368053
0.0368053
0.0368053
0.0368053
0.0368053
0.0368053
0.0368053
0.0368053
0.0368053
0.0368053
0.0368053
0.0368053
0.0368053
0.0368053
0.0368053
0.0368053
0.0368053
0.0368053
0.0368053
0.0368053
0.0368053
0.0368053
0.0368053
0.0368053
0.0368053
0.0368053
0.0368053
0.0368053
0.0368053
0.0368053
0.0368053
0.0368053
0.0368053
0.0368053
0.0368053
0.0368053
0.0368053
0.0368053
0.0368053
0.0368053
0.0368053
0.0368053
0.0368053
0.0368053
0.0368053
0.0368053
0.0368053
0.0368053
0.0368053
0.0368053
0.0368053
0.0368053
0.0368053
0.0368053
0.0368053
0.0368053
0.0368053
0.0368053
0.0368053
0.0368053
0.0368053
0.0368053
0.0368053
0.0368053
0.0368053
0.0368053
0.0368053
0.0368053
0.0368053
0.0368053
0.0368053
0.0368053
0.0368053
0.0368053
0.0368053
0.0368053
0.0368053
0.0368053
0.0368053
0.0368053
0.0368053
0.0368053
0.0368053
0.0368053
0.0368053
0.0368053
0.0368053
0.0368053
0.0368053
0.0368053
0.0368053
0.0368053
0.0368053
0.0368053
0.0368053
0.0368053
0.0368053
0.0368053
0.0368053
0.0368053
0.0368053
0.0368053
0.0368053
0.0368053
0.0368053
0.0368053
0.0368053
0.0368053
0.0368053
0.0368053
0.0368053
0.0368053
0.0368053
0.0368053
0.0368053
0.0368053
0.0368053
0.0368053
0.0368053
0.0368053
0.0368053
0.0368053
0.0368053
0.0368053
0.0368053
0.0368053
0.0368053
0.0368053
0.0368053
0.0368053
0.0368053
0.0368053
0.0368053
0.0368053
0.0368053
0.0368053
0.0368053
0.0368053
0.0368053
0.0368053
0.0368053
0.0368053
0.0368053
0.0368053
0.0368053
0.0368053
0.0368053
0.0368053
0.0368053
0.0368053
0.0368053
0.0368053
0.0368053
0.0368053
0.0368053
0.0368053
0.0368053
0.0368053
0.0368053
0.0368053
0.0368053
0.0368053
0.0368053
0.0368053
0.0368053
0.0368053
0.0368053
0.0368053
0.0368053
0.0368053
0.0368053
0.0368053
0.0368053
0.0368053
0.0368053
0.0368053
0.0368053
0.0368053
0.0368053
0.0368053
0.0368053
0.0368053
0.0368053
0.0368053
0.0368053
0.0368053
0.0368053
0.0368053
0.0368053
0.0368053
0.0368053
0.0368053
0.0368053
0.0368053
0.0368053
0.0368053
0.0368053
0.0368053
0.0368053
0.0368053
0.0368053
0.0368053
0.0368053
0.0368053
0.0368053
0.0368053
0.0368053
0.0368053
0.0368053
0.0368053
0.0368053
0.0368053
0.0368053
0.0368053
0.0368053
0.0368053
0.0368053
0.0368053
0.0368053
0.0368053
0.0368053
0.0368053
0.0368053
0.0368053
0.0368053
0.0368053
0.0368053
0.0368053
0.0368053
0.0368053
0.0368053
0.0368053
0.0368053
0.0368053
0.0368053
0.0368053
0.0368053
0.0368053
0.0368053
0.0368053
0.0368053
0.0368053
0.0368053
0.0368053
0.0368053
0.0368053
0.0368053
0.0368053
0.0368053
0.0368053
0.0368053
0.0368053
0.0368053
0.0368053
0.0368053
0.0368053
0.0368053
0.0368053
0.0368053
0.0368053
0.0368053
0.0368053
0.0368053
0.0368053
0.0368053
0.0368053
0.0368053
0.0368053
0.0368053
0.0368053
0.0368053
0.0368053
0.0368053
0.0368053
0.0368053
0.0368053
0.0368053
0.0368053
0.0368053
0.0368053
0.0368053
0.0368053
0.0368053
0.0368053
0.0368053
0.0368053
0.0368053
0.0368053
0.0368053
0.0368053
0.0368053
0.0368053
0.0368053
0.0368053
0.0368053
0.0368053
0.0368053
0.0368053
0.0368053
0.0368053
0.0368053
0.0368053
0.0368053
0.0368053
0.0368053
0.0368053
0.0368053
0.0368053
0.0368053
0.0368053
0.0368053
0.0368053
0.0368053
0.0368053
0.0368053
0.0368053
0.0368053
0.0368053
0.0368053
0.0368053
0.0368053
0.0368053
0.0368053
0.0368053
0.0368053
0.0368053
0.0368053
0.0368053
0.0368053
0.0368053
0.0368053
0.0368053
0.0368053
0.0368053
0.0368053
0.0368053
0.0368053
0.0368053
0.0368053
0.0368053
0.0368053
0.0368053
0.0368053
0.0368053
0.0368053
0.0368053
0.0368053
0.0368053
0.0368053
0.0368053
0.0368053
0.0368053
0.0368053
0.0368053
0.0368053
0.0368053
0.0368053
0.0368053
0.0368053
0.0368053
0.0368053
0.0368053
0.0368053
0.0368053
0.0368053
0.0368053
0.0368053
0.0368053
0.0368053
0.0368053
0.0368053
0.0368053
0.0368053
0.0368053
0.0368053
0.0368053
0.0368053
0.0368053
0.0368053
0.0368053
0.0368053
0.0368053
0.0368053
0.0368053
0.0368053
0.0368053
0.0368053
0.0368053
0.0368053
0.0368053
0.0368053
0.0368053
0.0368053
0.0368053
0.0368053
0.0368053
0.0368053
0.0368053
0.0368053
0.0368053
0.0368053
0.0368053
0.0368053
0.0368053
0.0368053
0.0368053
0.0368053
0.0368053
0.0368053
0.0368053
0.0368053
0.0368053
0.0368053
0.0368053
0.0368053
0.0368053
0.0368053
0.0368053
0.0368053
0.0368053
0.0368053
0.0368053
0.0368053
0.0368053
0.0368053
0.0368053
0.0368053
0.0368053
0.0368053
0.0368053
0.0368053
0.0368053
0.0368053
0.0368053
0.0368053
0.0368053
0.0368053
0.0368053
0.0368053
0.0368053
0.0368053
0.0368053
0.0368053
0.0368053
0.0368053
0.0368053
0.0368053
0.0368053
0.0368053
0.0368053
0.0368053
0.0368053
0.0368053
0.0368053
0.0368053
0.0368053
0.0368053
0.0368053
0.0368053
0.0368053
0.0368053
0.0368053
0.0368053
0.0368053
0.0368053
0.0368053
0.0368053
0.0368053
0.0368053
0.0368053
0.0368053
0.0368053
0.0368053
0.0368053
0.0368053
0.0368053
0.0368053
0.0368053
0.0368053
0.0368053
0.0368053
0.0368053
0.0368053
0.0368053
0.0368053
0.0368053
0.0368053
0.0368053
0.0368053
0.0368053
0.0368053
0.0368053
0.0368053
0.0368053
0.0368053
0.0368053
0.0368053
0.0368053
0.0368053
0.0368053
0.0368053
0.0368053
0.0368053
0.0368053
0.0368053
0.0368053
0.0368053
0.0368053
0.0368053
0.0368053
0.0368053
0.0368053
0.0368053
0.0368053
0.0368053
0.0368053
0.0368053
0.0368053
0.0368053
0.0368053
0.0368053
0.0368053
0.0368053
0.0368053
0.0368053
0.0368053
0.0368053
0.0368053
0.0368053
0.0368053
0.0368053
0.0368053
0.0368053
0.0368053
0.0368053
0.0368053
0.0368053
0.0368053
0.0368053
0.0368053
0.0368053
0.0368053
0.0368053
0.0368053
0.0368053
0.0368053
0.0368053
0.0368053
0.0368053
0.0368053
0.0368053
0.0368053
0.0368053
0.0368053
0.0368053
0.0368053
0.0368053
0.0368053
0.0368053
0.0368053
0.0368053
0.0368053
0.0368053
0.0368053
0.0368053
0.0368053
0.0368053
0.0368053
0.0368053
0.0368053
0.0368053
0.0368053
0.0368053
0.0368053
0.0368053
0.0368053
0.0368053
0.0368053
0.0368053
0.0368053
0.0368053
0.0368053
0.0368053
0.0368053
0.0368053
0.0368053
0.0368053
0.0368053
0.0368053
0.0368053
0.0368053
0.0368053
0.0368053
0.0368053
0.0368053
0.0368053
0.0368053
0.0368053
0.0368053
0.0368053
0.0368053
0.0368053
0.0368053
0.0368053
0.0368053
0.0368053
0.0368053
0.0368053
0.0368053
0.0368053
0.0368053
0.0368053
0.0368053
0.0368053
0.0368053
0.0368053
0.0368053
0.0368053
0.0368053
0.0368053
0.0368053
0.0368053
0.0368053
0.0368053
0.0368053
0.0368053
0.0368053
0.0368053
0.0368053
0.0368053
0.0368053
0.0368053
0.0368053
0.0368053
0.0368053
0.0368053
0.0368053
0.0368053
0.0368053
0.0368053
0.0368053
0.0368053
0.0368053
0.0368053
0.0368053
0.0368053
0.0368053
0.0368053
0.0368053
0.0368053
0.0368053
0.0368053
0.0368053
0.0368053
0.0368053
0.0368053
0.0368053
0.0368053
0.0368053
0.0368053
0.0368053
0.0368053
0.0368053
0.0368053
0.0368053
0.0368053
0.0368053
0.0368053
0.0368053
0.0368053
0.0368053
0.0368053
0.0368053
0.0368053
0.0368053
0.0368053
0.0368053
0.0368053
0.0368053
0.0368053
0.0368053
0.0368053
0.0368053
0.0368053
0.0368053
0.0368053
0.0368053
0.0368053
0.0368053
0.0368053
0.0368053
0.0368053
0.0368053
0.0368053
0.0368053
0.0368053
0.0368053
0.0368053
0.0368053
0.0368053
0.0368053
0.0368053
0.0368053
0.0368053
0.0368053
0.0368053
0.0368053
0.0368053
0.0368053
0.0368053
0.0368053
0.0368053
0.0368053
0.0368053
0.0368053
0.0368053
0.0368053
0.0368053
0.0368053
0.0368053
0.0368053
0.0368053
0.0368053
0.0368053
0.0368053
0.0368053
0.0368053
0.0368053
0.0368053
0.0368053
0.0368053
0.0368053
0.0368053
0.0368053
0.0368053
0.0368053
0.0368053
0.0368053
0.0368053
0.0368053
0.0368053
0.0368053
0.0368053
0.0368053
0.0368053
0.0368053
0.0368053
0.0368053
0.0368053
0.0368053
0.0368053
0.0368053
0.0368053
0.0368053
0.0368053
0.0368053
0.0368053
0.0368053
0.0368053
0.0368053
0.0368053
0.0368053
0.0368053
0.0368053
0.0368053
0.0368053
0.0368053
0.0368053
0.0368053
0.0368053
0.0368053
0.0368053
0.0368053
0.0368053
0.0368053
0.0368053
0.0368053
0.0368053
0.0368053
0.0368053
0.0368053
0.0368053
0.0368053
0.0368053
0.0368053
0.0368053
0.0368053
0.0368053
0.0368053
0.0368053
0.0368053
0.0368053
0.0368053
0.0368053
0.0368053
0.001010775
0.00100323
0.001010419
0.001023949
0.001046565
0.001101016
0.00126243
0.001408877
0.001458081
0.001387545
0.001337482
0.001300891
0.001273371
0.001252139
0.001235343
0.001221756
0.001210868
0.001201878
0.001021108
0.001014517
0.001015507
0.001027155
0.001050422
0.001110337
0.001312485
0.001617718
0.001461978
0.001384736
0.001336349
0.001300556
0.001273671
0.001252624
0.001235881
0.001222489
0.00121155
0.001202627
0.001022189
0.00101635
0.001024062
0.001038137
0.001067757
0.00115001
0.001472392
0.001754386
0.001475485
0.001371375
0.001328177
0.001295724
0.001270447
0.001250535
0.001234505
0.001221603
0.001210928
0.001202141
0.001023791
0.001024265
0.001029294
0.001048388
0.001094792
0.001223696
0.001522532
0.00166317
0.001486568
0.001368904
0.001315679
0.001286883
0.001264442
0.001246151
0.001231543
0.001219112
0.001209006
0.00120066
0.001025866
0.001030865
0.001036376
0.001053269
0.001092894
0.00118849
0.001390261
0.00171257
0.001532168
0.001360412
0.001297217
0.001275362
0.00125617
0.001240036
0.001227642
0.001214823
0.001206039
0.001198314
0.001028385
0.001032004
0.001042858
0.001055172
0.001086089
0.001159282
0.00129814
0.00153103
0.001471079
0.001367333
0.00128341
0.001262797
0.001246553
0.001232759
0.0012221
0.001209624
0.001202324
0.001195108
0.00103131
0.001031369
0.001047972
0.001055845
0.001080592
0.001140097
0.001249089
0.001491949
0.001455354
0.001342932
0.001272606
0.001249524
0.001235961
0.001224298
0.001215991
0.001203586
0.001197739
0.001191269
0.001034608
0.001030433
0.001051702
0.00105604
0.001076518
0.001127222
0.001221049
0.001383641
0.001393495
0.001349294
0.001258655
0.001235205
0.001224854
0.001215303
0.001209163
0.001196995
0.001192586
0.001186889
0.001038255
0.001029547
0.001054429
0.001056159
0.001073791
0.001118565
0.001205059
0.001310912
0.001374374
0.001311692
0.001253183
0.001221832
0.001213901
0.001206236
0.001201737
0.001190201
0.001187034
0.001182147
0.001042229
0.001028674
0.001056672
0.001056375
0.001072471
0.001113111
0.001192011
0.001266287
0.001334163
0.00127858
0.001250767
0.001209757
0.001203473
0.001197244
0.001194201
0.001183314
0.001181218
0.001177032
0.001046519
0.001027867
0.001058707
0.001056897
0.001072515
0.001110415
0.001183414
0.001251426
0.001290599
0.00126491
0.00124528
0.001202324
0.001193565
0.001188392
0.001186751
0.001176212
0.001175213
0.001171739
0.001051124
0.001026708
0.001059669
0.001057405
0.001074034
0.0011106
0.001179474
0.001245569
0.001263486
0.001250112
0.001242338
0.001194633
0.00118366
0.001179848
0.001179154
0.001169419
0.001169139
0.001166312
0.001056048
0.001023596
0.001053719
0.001056696
0.001076819
0.001114177
0.00118107
0.0012407
0.001248592
0.001231228
0.001223934
0.001195088
0.001174675
0.001171649
0.001171882
0.001162475
0.001163103
0.001160832
0.001061665
0.00101672
0.001035005
0.001051428
0.001080084
0.001122518
0.001190742
0.001240357
0.001234673
0.001213261
0.001224335
0.00118917
0.001167148
0.001163758
0.001164792
0.001155722
0.001157081
0.001155314
0.001086084
0.001008804
0.001019867
0.001033325
0.001066945
0.001139525
0.001212448
0.00124542
0.001223096
0.001204917
0.001204432
0.001189055
0.001160468
0.00115618
0.001157784
0.001149266
0.001151083
0.001149804
0.001095358
0.001005966
0.001016766
0.001026624
0.001039269
0.001102947
0.001237897
0.001243437
0.00121298
0.001193144
0.0012006
0.001173606
0.001155159
0.001148925
0.001150986
0.001142939
0.001145196
0.001144339
0.00109918
0.001007763
0.001019797
0.001027748
0.001033416
0.001055215
0.001142979
0.001222597
0.001201438
0.001181124
0.001177854
0.00117235
0.001150686
0.001141882
0.001144372
0.00113675
0.001139448
0.001138916
0.001104932
0.001009935
0.001021731
0.001029578
0.001031584
0.001043981
0.001076495
0.001167999
0.001177268
0.001169612
0.001171137
0.001162617
0.0011443
0.001135647
0.001137979
0.001130777
0.00113377
0.001133598
0.001112501
0.001012419
0.001026493
0.001029026
0.001034412
0.00103873
0.001058493
0.001117237
0.00116358
0.001158462
0.001162528
0.00114917
0.001140178
0.00112881
0.001131794
0.001124767
0.001128288
0.00112836
0.001120247
0.001015509
0.001031855
0.00104062
0.001030723
0.001043355
0.0010502
0.001089995
0.001145472
0.001152602
0.001147384
0.001147215
0.001129549
0.001123102
0.001125188
0.001119072
0.001122745
0.001123176
0.001128127
0.001017445
0.001038277
0.001048281
0.001037542
0.001036566
0.001057951
0.00107438
0.001138019
0.001145357
0.00114075
0.001134324
0.001124315
0.001118046
0.001114872
0.001117676
0.001117635
0.00111815
0.0011364
0.001018525
0.001039072
0.00105051
0.001042614
0.001040521
0.001047604
0.00108904
0.001127979
0.001135483
0.00113522
0.00112329
0.001122124
0.00111166
0.001110967
0.001111282
0.001112503
0.001113167
0.001145276
0.00101765
0.00103711
0.001045828
0.001049808
0.001041878
0.00105117
0.001071808
0.001149213
0.00112665
0.001126188
0.001119541
0.001113699
0.001106713
0.001105501
0.001106645
0.001107388
0.001108429
0.001154727
0.001017186
0.001034251
0.001040064
0.001055007
0.001043058
0.001052469
0.001077975
0.001123588
0.001130714
0.001117763
0.001116315
0.001106005
0.001101406
0.001100421
0.001101825
0.001102454
0.001103636
0.001165002
0.001017388
0.001030619
0.00103487
0.001053293
0.001044324
0.001054008
0.001085545
0.00112776
0.001121858
0.001112897
0.001107262
0.001101562
0.001096886
0.001096813
0.001097216
0.001097645
0.001098982
0.001175811
0.001017118
0.00102787
0.001030615
0.001045052
0.001045773
0.001055718
0.001093243
0.00113008
0.00111596
0.001106048
0.001100868
0.001095452
0.001090845
0.001088658
0.001091731
0.001092921
0.001094385
0.001187547
0.001016877
0.001025225
0.001027093
0.001037288
0.00104644
0.001057121
0.001094115
0.001125705
0.001109463
0.001098596
0.001094065
0.001088659
0.001089958
0.00108467
0.001087744
0.00108855
0.001089548
0.001200229
0.001016556
0.001023068
0.001024377
0.001031666
0.00104004
0.001055167
0.001087433
0.001118089
0.001102066
0.001092806
0.001087091
0.001084062
0.00108371
0.00107915
0.001082658
0.00108402
0.001085189
0.001213691
0.00101652
0.001021117
0.001022437
0.001027044
0.001032902
0.001047569
0.001075707
0.001105203
0.001094276
0.001086355
0.00108249
0.001078767
0.001078215
0.001074925
0.001078372
0.001079519
0.001082441
0.001228486
0.0010162
0.001019097
0.001021868
0.001019982
0.001027468
0.001040907
0.00106582
0.001086503
0.001085835
0.001080394
0.001078989
0.001072789
0.00107178
0.001072947
0.001074033
0.001075048
0.001076106
0.001244364
0.001016398
0.001015237
0.001016578
0.001014724
0.001024733
0.001038483
0.00104973
0.001051208
0.001071908
0.001075805
0.001071563
0.001070593
0.001067654
0.001067949
0.001069664
0.00107086
0.001074427
0.00126131
0.001015402
0.001012301
0.001013965
0.001014153
0.001025783
0.001038482
0.001047104
0.001054041
0.001077589
0.001073397
0.001066637
0.001065971
0.001062547
0.001064041
0.001065354
0.00106694
0.001068606
0.001280118
0.001014701
0.001010343
0.001007848
0.001014547
0.001021254
0.001031102
0.001040384
0.001047234
0.001066091
0.001067054
0.001062949
0.001061276
0.001059075
0.001059972
0.001061113
0.001062637
0.001061413
0.001301875
0.00100869
0.001010784
0.001007567
0.001010655
0.001020096
0.001024492
0.001035829
0.001042587
0.001052851
0.001059645
0.001058129
0.001055163
0.001054725
0.001056001
0.001056999
0.001057901
0.001059359
0.001366044
0.001010317
0.00101319
0.001007256
0.001006371
0.001015406
0.001016364
0.001031394
0.001026584
0.001059127
0.001051533
0.001050607
0.001050771
0.00104888
0.00105137
0.001053961
0.001057334
0.001056807
0.00139965
0.001007008
0.001007057
0.001006147
0.001007499
0.001023489
0.001017383
0.001014419
0.001038192
0.0010471
0.001043563
0.001045399
0.001046682
0.001047093
0.001047805
0.00104817
0.001047772
0.001050667
0.001447158
0.001004167
0.001004323
0.001005246
0.001007256
0.001013213
0.001015757
0.001024434
0.001030042
0.001037978
0.001040946
0.001040718
0.00104075
0.001041706
0.001043694
0.001044543
0.001045801
0.001048419
0.001964891
0.001001647
0.001003972
0.001006035
0.001007695
0.001010554
0.001014681
0.001020425
0.001026935
0.001033285
0.001036842
0.001038223
0.001039796
0.001039562
0.001041154
0.00104033
0.001042824
0.001044514
0.003156179
0.001000964
0.001005001
0.00100441
0.001006366
0.001009678
0.001014046
0.001019566
0.00102432
0.001029298
0.001033256
0.001036191
0.001035045
0.001035909
0.00103752
0.001040311
0.001039661
0.001041085
0.005300766
0.001001632
0.001001827
0.001003706
0.001006555
0.00101078
0.001014589
0.001019327
0.001023837
0.001027151
0.001029625
0.001031681
0.001032633
0.001032759
0.00103402
0.001034453
0.001035555
0.001037651
0.0368053
0.001003966
0.001003479
0.00100406
0.001007797
0.001013142
0.001015266
0.001019284
0.001023608
0.001026451
0.001027138
0.001028003
0.001027511
0.001028753
0.001030967
0.001031256
0.001033194
0.001034718
0.0368053
0.001003182
0.001004898
0.001007233
0.001012021
0.001015074
0.001014742
0.001019406
0.001023341
0.001024102
0.001024743
0.001025815
0.001026323
0.001025368
0.001027799
0.001028542
0.001030319
0.001032098
0.0368053
0.001001682
0.001011776
0.001016891
0.001015239
0.001010067
0.001018261
0.00102155
0.001021151
0.001021719
0.001022895
0.00102078
0.001021817
0.001022363
0.001024024
0.001025848
0.00102743
0.001029432
0.0368053
0.001001327
0.001003968
0.00100655
0.001010111
0.001011839
0.001018457
0.001020129
0.001018202
0.001018619
0.001020594
0.001020375
0.001019682
0.001021144
0.001021406
0.001023284
0.001024924
0.001026314
0.0368053
0.001001723
0.001006826
0.001003698
0.001008059
0.001013391
0.001013939
0.001015472
0.001015682
0.001015142
0.001015356
0.001015711
0.001016736
0.001018104
0.00101858
0.001020648
0.001022696
0.001023031
0.0368053
0.001001593
0.001002218
0.001002733
0.001005139
0.00101142
0.001011113
0.001012692
0.00101298
0.001013416
0.001012878
0.001014185
0.001014844
0.001015477
0.001016517
0.001018706
0.001019734
0.001022109
0.0368053
0.001000614
0.001000827
0.001003635
0.001005629
0.001008369
0.00101021
0.001010282
0.001010469
0.001010737
0.001011046
0.001012235
0.001012327
0.001012632
0.001015786
0.001016131
0.001017566
0.00101873
0.0368053
0.001039655
0.00100098
0.001002831
0.001010351
0.00100935
0.001008947
0.001008497
0.001008065
0.001008271
0.001009462
0.001009533
0.001009888
0.001012469
0.001012412
0.001014362
0.001016037
0.001017562
0.0368053
0.001147956
0.001004641
0.001004253
0.001007943
0.001008193
0.001007075
0.001008929
0.001004887
0.001006212
0.001007831
0.001007695
0.001009286
0.001010112
0.001010283
0.001012623
0.001013227
0.001015782
0.0368053
0.001357696
0.001001973
0.001003137
0.001005847
0.001008245
0.001005779
0.001005949
0.00100729
0.001007381
0.001011495
0.001010026
0.001013369
0.00101389
0.0368053
0.0368053
0.001004784
0.00100529
0.001005582
0.00100762
0.001008509
0.00100987
0.001011003
0.001012832
0.0368053
0.001003804
0.001004522
0.001006496
0.001006952
0.001008667
0.001010149
0.001011574
0.001003841
0.001005537
0.001006922
0.001007891
0.001009102
0.001011075
0.001004752
0.001005716
0.00100737
0.00100875
0.001010101
0.001004364
0.001005822
0.001007119
0.001008164
0.001009706
0.001004679
0.001005075
0.001006442
0.001007945
0.001009405
0.001004178
0.001005248
0.001006469
0.001007805
0.001009262
0.001004478
0.001005501
0.001006383
0.001007835
0.001009271
0.001004521
0.001005169
0.001006669
0.00100807
0.001009309
0.00100394
0.001005142
0.00100653
0.001006642
0.00100797
0.00100994
0.0368053
0.001004296
0.001005332
0.001005992
0.001007156
0.001008693
0.001010145
0.0368053
0.0368053
0.001004524
0.001004249
0.001005947
0.001006828
0.001008255
0.001008288
0.001010239
0.0368053
0.001697104
0.001003538
0.001003566
0.001004218
0.001004695
0.001006089
0.001005453
0.001008338
0.001008039
0.001010716
0.001011273
0.0368053
0.001209395
0.001004104
0.001002002
0.001002879
0.00100306
0.001003227
0.001003419
0.001004556
0.00100411
0.001004696
0.001005445
0.001006256
0.001007853
0.001007101
0.001009734
0.00100994
0.00101093
0.0368053
0.001084196
0.001001673
0.001010819
0.001003854
0.001004052
0.001004044
0.001004327
0.001004701
0.001005075
0.001005578
0.001006393
0.001006247
0.001008654
0.001009039
0.001009841
0.001010745
0.001012903
0.0368053
0.001007102
0.001001039
0.001008135
0.001005306
0.001005195
0.001004904
0.001005177
0.001005581
0.001005501
0.001006704
0.001007221
0.00100822
0.001007534
0.001010716
0.001010356
0.00101269
0.001012244
0.0368053
0.001001154
0.001001507
0.001005041
0.001012824
0.001006765
0.001006109
0.001006073
0.001006306
0.001006959
0.001007179
0.001008019
0.001008182
0.001010497
0.001009651
0.001011977
0.001012401
0.001015502
0.0368053
0.00100144
0.001003504
0.001005991
0.001010093
0.001006776
0.001007409
0.001007202
0.001007238
0.00100809
0.001008591
0.001009622
0.001008583
0.001010937
0.001012248
0.00101236
0.00101409
0.001014085
0.0368053
0.001001274
0.001007115
0.001017047
0.00101105
0.001008636
0.001008615
0.001008322
0.001008344
0.001008829
0.001008427
0.001010337
0.001011132
0.001010896
0.001013007
0.00101411
0.001014848
0.001017155
0.0368053
0.001001181
0.001003385
0.001017349
0.0010117
0.001010106
0.001010022
0.001009688
0.001009835
0.001010392
0.001010587
0.001010876
0.00101287
0.001011837
0.001013952
0.001015055
0.001016666
0.00101709
0.0368053
0.001001893
0.00100473
0.001006317
0.001008675
0.001015137
0.001011328
0.001011364
0.001011892
0.001011765
0.001012483
0.001012052
0.00101352
0.00101408
0.001015766
0.001016756
0.001017808
0.001019836
0.0368053
0.001002921
0.001001904
0.001003239
0.001006022
0.001009012
0.001013351
0.001013562