/*--------------------------------*- C++ -*----------------------------------*\
| =========                 |                                                 |
| \\      /  F ield         | OpenFOAM: The Open Source CFD Toolbox           |
|  \\    /   O peration     | Version:  2206                                  |
|   \\  /    A nd           | Website:  www.openfoam.com                      |
|    \\/     M anipulation  |                                                 |
\*---------------------------------------------------------------------------*/
FoamFile
{
    version     2.0;
    format      ascii;
    arch        "LSB;label=32;scalar=64";
    class       volScalarField;
    location    "1.2";
    object      muI;
}
// * * * * * * * * * * * * * * * * * * * * * * * * * * * * * * * * * * * * * //

dimensions      [0 0 0 0 0 0 0];

internalField   nonuniform List<scalar> 
13078
(
0.6300008
0.6300006
0.6300002
0.6300002
0.6300001
0.63
0.63
0.630001
0.6300002
0.6300002
0.6300001
0.6300001
0.63
0.63
0.6300002
0.6300002
0.6300001
0.6300001
0.6300001
0.63
0.63
0.6300001
0.6300001
0.6300001
0.6300001
0.63
0.63
0.63
0.6300001
0.6300001
0.63
0.63
0.63
0.63
0.63
0.6300001
0.63
0.63
0.63
0.63
0.63
0.63
0.63
0.63
0.63
0.63
0.63
0.63
0.63
0.63
0.63
0.63
0.63
0.63
0.63
0.63
0.63
0.63
0.63
0.63
0.63
0.63
0.63
0.63
0.63
0.63
0.63
0.63
0.63
0.63
0.63
0.63
0.63
0.63
0.63
0.63
0.63
0.63
0.63
0.63
0.63
0.63
0.63
0.63
0.63
0.63
0.63
0.63
0.63
0.63
0.63
0.63
0.63
0.63
0.63
0.63
0.63
0.63
0.63
0.63
0.63
0.63
0.63
0.63
0.63
0.63
0.63
0.63
0.63
0.63
0.63
0.63
0.63
0.63
0.63
0.63
0.63
0.63
0.63
0.63
0.63
0.63
0.63
0.63
0.63
0.63
0.63
0.63
0.63
0.63
0.63
0.63
0.63
0.63
0.63
0.63
0.63
0.63
0.63
0.63
0.63
0.63
0.63
0.63
0.63
0.63
0.63
0.63
0.63
0.63
0.63
0.63
0.63
0.63
0.63
0.63
0.63
0.63
0.63
0.63
0.63
0.63
0.63
0.63
0.63
0.63
0.63
0.6300001
0.63
0.63
0.63
0.63
0.63
0.63
0.6300001
0.63
0.63
0.63
0.63
0.63
0.63
0.6300001
0.63
0.63
0.63
0.63
0.63
0.6300001
0.6300001
0.63
0.63
0.63
0.63
0.6300001
0.6300001
0.6300001
0.63
0.63
0.63
0.63
0.6300001
0.6300001
0.6300001
0.63
0.63
0.63
0.6300001
0.6300001
0.6300001
0.6300001
0.63
0.6300001
0.6300001
0.6300001
0.6300001
0.6300001
0.6300001
0.63
0.6300001
0.6300001
0.6300001
0.6300001
0.6300001
0.6300001
0.63
0.6300001
0.6300001
0.6300001
0.6300001
0.6300001
0.6300001
0.6300001
0.6300001
0.6300001
0.6300001
0.6300001
0.6300001
0.6300001
0.6300001
0.6300001
0.6300001
0.6300001
0.6300001
0.6300001
0.6300001
0.6300001
0.6300001
0.6300001
0.6300001
0.6300001
0.6300002
0.6300002
0.6300001
0.6300001
0.6300001
0.6300002
0.6300002
0.6300002
0.6300002
0.6300001
0.6300002
0.6300002
0.6300002
0.6300002
0.6300002
0.6300003
0.6300001
0.6300002
0.6300002
0.6300002
0.6300003
0.6300003
0.6300003
0.6300002
0.6300002
0.6300002
0.6300003
0.6300003
0.6300004
0.6300005
0.6300002
0.6300003
0.6300003
0.6300003
0.6300004
0.6300007
0.6300011
0.6300002
0.6300003
0.6300004
0.6300004
0.6300007
0.6300015
0.6300026
0.6300003
0.6300004
0.6300005
0.6300008
0.6300017
0.6300031
0.6300045
0.6300003
0.6300005
0.6300008
0.6300017
0.6300034
0.6300051
0.630006
0.6300004
0.6300008
0.6300016
0.6300032
0.630005
0.6300062
0.6300068
0.6300006
0.6300014
0.6300029
0.6300048
0.630006
0.6300063
0.6300067
0.6300011
0.6300025
0.6300043
0.6300058
0.6300063
0.630006
0.6300058
0.630002
0.6300037
0.6300053
0.6300059
0.6300059
0.6300054
0.6300053
0.6300032
0.6300048
0.6300057
0.6300057
0.6300052
0.6300047
0.6300047
0.6300046
0.6300056
0.6300057
0.6300052
0.6300047
0.6300043
0.6300042
0.6300059
0.6300061
0.6300053
0.6300046
0.6300044
0.6300045
0.6300048
0.6300071
0.6300063
0.6300049
0.6300042
0.6300043
0.630005
0.6300056
0.6300079
0.6300066
0.6300048
0.6300041
0.6300046
0.6300057
0.6300067
0.6300085
0.6300068
0.6300048
0.6300042
0.630005
0.6300063
0.6300075
0.6300087
0.630007
0.6300049
0.6300044
0.6300054
0.630007
0.6300085
0.6300088
0.6300071
0.630005
0.6300046
0.6300058
0.6300077
0.6300098
0.6300088
0.630007
0.630005
0.6300046
0.6300059
0.630008
0.6300104
0.6300087
0.6300069
0.6300049
0.6300045
0.6300057
0.6300077
0.6300095
0.6300084
0.6300067
0.6300048
0.6300044
0.6300054
0.6300069
0.6300077
0.6300078
0.6300065
0.6300049
0.6300044
0.6300051
0.6300059
0.6300061
0.6300068
0.6300063
0.6300052
0.6300046
0.6300048
0.6300051
0.6300051
0.6300056
0.630006
0.6300056
0.6300051
0.630005
0.6300049
0.6300047
0.6300042
0.6300055
0.6300059
0.6300057
0.6300053
0.630005
0.6300048
0.6300028
0.6300045
0.6300057
0.6300061
0.6300058
0.6300054
0.6300056
0.6300017
0.6300033
0.630005
0.630006
0.6300063
0.6300061
0.6300062
0.6300009
0.6300021
0.6300038
0.6300055
0.6300064
0.6300064
0.6300065
0.6300006
0.6300012
0.6300024
0.6300043
0.6300057
0.6300064
0.630007
0.6300004
0.6300006
0.6300013
0.6300026
0.6300044
0.6300058
0.6300067
0.6300003
0.6300004
0.6300007
0.6300013
0.6300027
0.6300043
0.6300056
0.6300003
0.6300003
0.6300004
0.6300007
0.6300013
0.6300025
0.6300039
0.6300002
0.6300003
0.6300003
0.6300004
0.6300006
0.6300011
0.6300021
0.6300002
0.6300002
0.6300003
0.6300003
0.6300004
0.6300005
0.6300009
0.6300002
0.6300002
0.6300002
0.6300003
0.6300003
0.6300004
0.6300005
0.6300001
0.6300002
0.6300002
0.6300002
0.6300002
0.6300003
0.6300003
0.6300001
0.6300002
0.6300002
0.6300002
0.6300002
0.6300002
0.6300002
0.6300001
0.6300001
0.6300001
0.6300002
0.6300002
0.6300002
0.6300002
0.6300001
0.6300001
0.6300001
0.6300001
0.6300001
0.6300002
0.6300002
0.6300001
0.6300001
0.6300001
0.6300001
0.6300001
0.6300001
0.6300001
0.6300001
0.6300001
0.6300001
0.6300001
0.6300001
0.6300001
0.6300001
0.6300001
0.6300001
0.6300001
0.6300001
0.6300001
0.6300001
0.6300001
0.63
0.6300001
0.6300001
0.6300001
0.6300001
0.6300001
0.6300001
0.63
0.6300001
0.6300001
0.6300001
0.6300001
0.6300001
0.6300001
0.63
0.63
0.63
0.6300001
0.6300001
0.6300001
0.6300001
0.63
0.63
0.63
0.63
0.6300001
0.6300001
0.6300001
0.63
0.63
0.63
0.63
0.6300001
0.6300001
0.6300001
0.63
0.63
0.63
0.63
0.63
0.6300001
0.6300001
0.63
0.63
0.63
0.63
0.63
0.63
0.6300001
0.63
0.63
0.63
0.63
0.63
0.63
0.6300001
0.63
0.63
0.63
0.63
0.63
0.63
0.6300001
0.63
0.63
0.63
0.63
0.63
0.63
0.63
0.63
0.63
0.63
0.63
0.63
0.63
0.63
0.63
0.63
0.63
0.63
0.63
0.63
0.63
0.63
0.63
0.63
0.63
0.63
0.63
0.63
0.63
0.63
0.63
0.63
0.63
0.63
0.63
0.63
0.63
0.63
0.63
0.63
0.63
0.63
0.63
0.63
0.63
0.63
0.63
0.63
0.63
0.63
0.63
0.63
0.63
0.63
0.63
0.63
0.63
0.63
0.63
0.63
0.63
0.63
0.63
0.63
0.63
0.63
0.63
0.63
0.63
0.63
0.63
0.63
0.63
0.63
0.63
0.63
0.63
0.63
0.63
0.63
0.63
0.63
0.63
0.63
0.63
0.63
0.63
0.63
0.63
0.63
0.63
0.63
0.63
0.63
0.63
0.63
0.63
0.63
0.63
0.63
0.63
0.63
0.63
0.63
0.63
0.63
0.63
0.63
0.63
0.63
0.63
0.63
0.63
0.63
0.63
0.63
0.63
0.63
0.63
0.63
0.63
0.63
0.63
0.63
0.63
0.63
0.6300001
0.63
0.63
0.63
0.63
0.63
0.63
0.6300001
0.6300001
0.63
0.63
0.63
0.63
0.63
0.6300001
0.6300001
0.6300001
0.6300001
0.63
0.63
0.63
0.6300002
0.6300002
0.6300001
0.6300001
0.63
0.63
0.63
0.630001
0.6300002
0.6300002
0.6300001
0.6300001
0.63
0.63
0.63
0.6300001
0.63
0.63
0.63
0.63
0.6300001
0.63
0.6300001
0.63
0.63
0.63
0.63
0.6300001
0.63
0.6300001
0.63
0.63
0.63
0.63
0.6300001
0.63
0.6300001
0.63
0.63
0.63
0.63
0.6300001
0.63
0.6300001
0.63
0.63
0.63
0.63
0.6300001
0.63
0.63
0.63
0.63
0.63
0.63
0.6300001
0.63
0.63
0.63
0.63
0.63
0.63
0.6300001
0.63
0.63
0.63
0.63
0.63
0.63
0.6300001
0.63
0.63
0.63
0.63
0.63
0.63
0.6300001
0.63
0.63
0.63
0.63
0.63
0.63
0.6300001
0.63
0.63
0.63
0.63
0.63
0.63
0.6300001
0.63
0.63
0.63
0.63
0.63
0.63
0.6300001
0.63
0.63
0.63
0.63
0.63
0.63
0.6300001
0.63
0.63
0.63
0.63
0.63
0.63
0.6300001
0.63
0.63
0.63
0.63
0.63
0.63
0.6300001
0.63
0.63
0.63
0.63
0.63
0.63
0.6300001
0.63
0.63
0.63
0.63
0.63
0.63
0.6300001
0.63
0.6300001
0.63
0.63
0.63
0.63
0.6300001
0.63
0.6300001
0.63
0.63
0.63
0.63
0.6300001
0.63
0.6300001
0.6300001
0.63
0.63
0.63
0.6300001
0.6300001
0.6300001
0.6300001
0.63
0.63
0.63
0.6300001
0.6300001
0.6300001
0.6300001
0.63
0.63
0.63
0.6300001
0.6300001
0.6300001
0.6300001
0.63
0.6300001
0.6300001
0.6300001
0.6300001
0.6300001
0.6300001
0.6300001
0.6300001
0.6300001
0.6300001
0.6300001
0.6300001
0.6300001
0.6300001
0.6300001
0.6300001
0.6300001
0.6300001
0.6300001
0.6300001
0.6300001
0.6300001
0.6300001
0.6300001
0.6300001
0.6300001
0.6300001
0.6300001
0.6300001
0.6300001
0.6300001
0.6300001
0.6300001
0.6300001
0.6300001
0.6300001
0.6300001
0.6300002
0.6300001
0.6300001
0.6300001
0.6300001
0.6300001
0.6300001
0.6300002
0.6300001
0.6300001
0.6300001
0.6300001
0.6300001
0.6300001
0.6300002
0.6300001
0.6300001
0.6300001
0.6300001
0.6300001
0.6300001
0.6300002
0.6300001
0.6300001
0.6300001
0.6300001
0.6300001
0.6300002
0.6300003
0.6300001
0.6300001
0.6300001
0.6300001
0.6300002
0.6300002
0.6300003
0.6300001
0.6300001
0.6300001
0.6300001
0.6300002
0.6300002
0.6300003
0.6300001
0.6300001
0.6300001
0.6300001
0.6300002
0.6300002
0.6300003
0.6300002
0.6300001
0.6300001
0.6300001
0.6300001
0.6300002
0.6300029
0.6300002
0.6300002
0.6300002
0.6300001
0.6300001
0.6300001
0.6300001
0.6300003
0.6300002
0.6300002
0.6300001
0.6300002
0.6300003
0.6300017
0.6300004
0.6300003
0.6300003
0.6300003
0.6300003
0.6300011
0.6300078
0.6300008
0.6300007
0.6300009
0.6300008
0.6300012
0.6300098
0.6300054
0.6300019
0.630002
0.6300024
0.6300023
0.6300074
0.630023
0.6300407
0.6300038
0.630004
0.6300041
0.630005
0.6300242
0.6300368
0.6300921
0.6300058
0.6300058
0.6300061
0.6300103
0.6300515
0.630051
0.6301446
0.6300071
0.6300071
0.630008
0.6300197
0.630085
0.6300732
0.6300997
0.6300076
0.630008
0.6300102
0.6300455
0.6300737
0.6300512
0.6300976
0.6300077
0.6300078
0.6300182
0.6300737
0.6300538
0.6300267
0.6300218
0.6300071
0.6300072
0.630041
0.6300942
0.6300546
0.6300432
0.6300396
0.6300067
0.6300073
0.6300507
0.6301154
0.6300858
0.6300786
0.6301158
0.6300061
0.6300064
0.6300493
0.6301325
0.6301127
0.6300901
0.6301043
0.6300054
0.6300053
0.6300631
0.6301494
0.6302111
0.6301876
0.6302167
0.6300077
0.6300078
0.630141
0.6302547
0.6301894
0.630085
0.6300693
0.6300156
0.630049
0.6302325
0.6301719
0.6300501
0.6300847
0.6302995
0.630018
0.6300718
0.6302014
0.6301132
0.6300537
0.6301661
0.6302392
0.6300137
0.6300423
0.6301168
0.630125
0.6300718
0.6300491
0.6302115
0.630013
0.6300234
0.6300451
0.6300597
0.6300945
0.6300122
0.6304546
0.6300158
0.630026
0.6300356
0.6300351
0.6300216
0.6300412
0.6300186
0.6300328
0.6300402
0.6300557
0.6300122
0.6300653
0.6300179
0.6300347
0.6300635
0.6300799
0.630075
0.6300037
0.6300168
0.6300468
0.6301321
0.6301075
0.6300732
0.6301016
0.6303617
0.630016
0.6300667
0.6301706
0.6301323
0.6300386
0.6301994
0.6302219
0.6300115
0.6300513
0.6301704
0.6301315
0.6300526
0.630055
0.630178
0.630007
0.6300163
0.630133
0.6301688
0.6301087
0.6300984
0.6301428
0.6300061
0.6300056
0.6300745
0.6302325
0.630216
0.6301751
0.6302621
0.630007
0.6300067
0.6300445
0.6301736
0.6301904
0.6301743
0.6301626
0.6300076
0.630008
0.6300316
0.6301251
0.6301406
0.630124
0.6300211
0.630008
0.6300086
0.6300272
0.6301114
0.6301044
0.630085
0.6300328
0.6300082
0.6300091
0.6300193
0.6300988
0.6301097
0.6300505
0.6302271
0.6300078
0.6300089
0.6300119
0.6300615
0.6300946
0.6300923
0.6302321
0.6300069
0.6300085
0.630008
0.6300164
0.6300485
0.6300539
0.6300759
0.6300053
0.630007
0.6300064
0.6300082
0.6300165
0.630018
0.630017
0.6300033
0.630005
0.6300046
0.630005
0.6300141
0.6300193
0.6300511
0.6300016
0.6300028
0.630003
0.6300031
0.6300079
0.6300226
0.6300422
0.6300007
0.6300011
0.6300014
0.6300015
0.6300023
0.630015
0.6300311
0.6300004
0.6300004
0.6300004
0.6300004
0.6300005
0.630003
0.6300099
0.6300003
0.6300003
0.6300002
0.6300002
0.6300002
0.6300004
0.630005
0.6300002
0.6300002
0.6300002
0.6300001
0.6300002
0.6300002
0.6300001
0.6300002
0.6300002
0.6300001
0.6300001
0.6300002
0.6300002
0.6300002
0.6300001
0.6300002
0.6300001
0.6300002
0.6300002
0.6300002
0.6300005
0.6300001
0.6300001
0.6300001
0.6300002
0.6300002
0.6300002
0.6300004
0.6300001
0.6300001
0.6300001
0.6300002
0.6300002
0.6300002
0.6300005
0.6300001
0.6300001
0.6300001
0.6300001
0.6300002
0.6300002
0.6300003
0.6300001
0.6300001
0.6300001
0.6300001
0.6300001
0.6300002
0.6300003
0.6300001
0.6300001
0.6300001
0.6300001
0.6300001
0.6300001
0.6300002
0.6300001
0.6300001
0.6300001
0.6300001
0.6300001
0.6300001
0.6300002
0.6300001
0.6300001
0.6300001
0.6300001
0.6300001
0.6300001
0.6300002
0.6300001
0.6300001
0.6300001
0.6300001
0.6300001
0.6300001
0.6300002
0.6300001
0.6300001
0.6300001
0.6300001
0.6300001
0.6300001
0.6300001
0.6300001
0.6300001
0.6300001
0.6300001
0.6300001
0.6300001
0.6300001
0.6300001
0.6300001
0.6300001
0.6300001
0.6300001
0.6300001
0.6300001
0.6300001
0.6300001
0.6300001
0.6300001
0.6300001
0.6300001
0.6300001
0.6300001
0.6300001
0.6300001
0.6300001
0.6300001
0.6300001
0.6300001
0.6300001
0.6300001
0.6300001
0.6300001
0.63
0.63
0.6300001
0.63
0.6300001
0.63
0.63
0.63
0.63
0.6300001
0.63
0.6300001
0.63
0.63
0.63
0.63
0.6300001
0.63
0.63
0.63
0.63
0.63
0.63
0.6300001
0.63
0.63
0.63
0.63
0.63
0.63
0.6300001
0.63
0.63
0.63
0.63
0.63
0.63
0.6300001
0.63
0.63
0.63
0.63
0.63
0.63
0.6300001
0.63
0.63
0.63
0.63
0.63
0.63
0.6300001
0.63
0.63
0.63
0.63
0.63
0.63
0.6300001
0.63
0.63
0.63
0.63
0.63
0.63
0.6300001
0.63
0.63
0.63
0.63
0.63
0.63
0.6300001
0.63
0.63
0.63
0.63
0.63
0.63
0.6300001
0.63
0.63
0.63
0.63
0.63
0.63
0.6300001
0.63
0.63
0.63
0.63
0.63
0.63
0.6300001
0.63
0.63
0.63
0.63
0.63
0.63
0.6300001
0.63
0.63
0.63
0.63
0.63
0.63
0.6300001
0.63
0.63
0.63
0.63
0.63
0.63
0.6300001
0.63
0.63
0.63
0.63
0.63
0.63
0.6300001
0.63
0.6300001
0.63
0.63
0.63
0.63
0.6300001
0.63
0.6300001
0.63
0.63
0.63
0.63
0.6300001
0.63
0.6300001
0.63
0.63
0.63
0.63
0.6300001
1.123454
1.047663
0.9199868
0.8018175
0.7282514
0.6774581
0.6486049
0.6419819
0.6407015
0.6426373
0.6444984
0.6462469
0.6478673
0.6493564
0.6507225
0.6519768
0.653097
0.6541117
1.122821
0.8722044
0.8625948
0.7857622
0.7214138
0.6735708
0.645649
0.6379463
0.6406117
0.642729
0.6445469
0.6462649
0.6478479
0.6493197
0.6506757
0.6519053
0.6530236
0.6540237
1.122685
0.8549184
0.8011973
0.7472681
0.6994975
0.6622897
0.640379
0.636511
0.6403118
0.643184
0.6449064
0.6465284
0.6480587
0.649479
0.6507956
0.6519919
0.6530906
0.6540808
1.122653
0.8000981
0.7765212
0.7248989
0.6804613
0.6517885
0.6393875
0.6374036
0.640078
0.6432717
0.6454919
0.6470333
0.6484647
0.6498223
0.6510586
0.6522388
0.6533001
0.654256
1.12264
0.7703644
0.7521694
0.7169335
0.6814534
0.6557991
0.6425499
0.6368919
0.6392182
0.6435823
0.6464461
0.6477393
0.649055
0.6503217
0.6514152
0.6526772
0.6536313
0.6545389
1.122632
0.7661964
0.735826
0.7141706
0.6853532
0.6604449
0.6463956
0.6392379
0.6404077
0.6433281
0.6472401
0.6485792
0.6497904
0.6509499
0.6519432
0.6532323
0.6540593
0.6549365
1.122628
0.7684882
0.7256436
0.7132341
0.6889579
0.6645254
0.6495909
0.6399683
0.6407653
0.6442697
0.647917
0.6495571
0.6506688
0.6517307
0.6525561
0.6539121
0.6546094
0.6554297
1.122623
0.7720076
0.7193435
0.7129659
0.6919439
0.6679346
0.6520462
0.6427651
0.6424474
0.6440116
0.6488737
0.6507345
0.6516777
0.6526273
0.6532828
0.654701
0.6552583
0.6560168
1.122619
0.7754942
0.7152283
0.7128039
0.6941146
0.6706303
0.6537427
0.6457276
0.6430791
0.6456885
0.6492775
0.6519694
0.6527736
0.6536089
0.6541283
0.6555704
0.6559969
0.6566837
1.122613
0.7790926
0.7121106
0.7125103
0.695221
0.672533
0.6553329
0.648338
0.6446414
0.6475363
0.6494612
0.6532178
0.6539252
0.6546703
0.6550513
0.6565163
0.6568183
0.6574423
1.122606
0.7825664
0.7094694
0.7118098
0.6951836
0.6735409
0.6565022
0.6494108
0.6468174
0.6484325
0.649892
0.6540593
0.6551325
0.6558122
0.6560357
0.6575679
0.6577225
0.6582739
1.122597
0.7878301
0.7082781
0.7111392
0.6939154
0.6734702
0.6570749
0.6498688
0.6485311
0.6495117
0.6501308
0.6549964
0.6564672
0.6570194
0.6571224
0.6586545
0.6587012
0.6591805
1.122586
0.8037709
0.7162631
0.7120783
0.691713
0.6721475
0.6568399
0.6502663
0.6496297
0.651087
0.6517656
0.654939
0.6578066
0.6582886
0.6582508
0.6598574
0.6597446
0.6601568
1.122566
0.8516906
0.7562598
0.7197794
0.6893145
0.6693535
0.6554989
0.650295
0.6507809
0.6528412
0.6517272
0.6557078
0.6590371
0.6596277
0.659445
0.6611278
0.6608635
0.661208
1.122444
0.9431072
0.8271634
0.7616454
0.7002903
0.6646637
0.6529275
0.6498807
0.6518464
0.6537589
0.6538145
0.6557231
0.6602242
0.6610384
0.6607287
0.6624474
0.662065
0.6623331
1.122603
0.9910063
0.8512857
0.7882253
0.7443145
0.676597
0.6505024
0.6500409
0.6528709
0.6551864
0.6542631
0.6579749
0.6612386
0.6625201
0.6620851
0.6638535
0.6633383
0.663532
1.122875
0.9595338
0.8276588
0.783092
0.7613428
0.7141102
0.6638442
0.6518948
0.6541636
0.656832
0.6573174
0.6581754
0.6621476
0.6641002
0.6635244
0.6653515
0.6646826
0.6648125
1.122941
0.92664
0.8148057
0.7753696
0.7677048
0.7334144
0.6919612
0.6588926
0.6574064
0.6586225
0.6583717
0.6598319
0.6635409
0.6656325
0.6650436
0.666928
0.6661209
0.6661664
1.122916
0.8949149
0.7888439
0.7776209
0.7581148
0.7457027
0.7097389
0.6710778
0.6596593
0.6605996
0.6598478
0.6624679
0.6645058
0.6674782
0.6666497
0.6686622
0.6676271
0.6676063
1.122872
0.8625868
0.7667281
0.7409699
0.7709004
0.734746
0.7217815
0.6830464
0.6632762
0.6617519
0.6628535
0.6628902
0.6672696
0.6691717
0.6685353
0.6704618
0.6692824
0.6691485
1.122829
0.8455891
0.7468945
0.7250889
0.7488814
0.75162
0.7104313
0.6936337
0.6650338
0.6633021
0.6643687
0.6659754
0.668799
0.6708039
0.6718997
0.6709288
0.6709426
0.6707691
1.122794
0.8370248
0.7448168
0.7212681
0.7363642
0.7412074
0.726313
0.6835921
0.6677155
0.6656747
0.6657423
0.6691133
0.6694771
0.6730698
0.6733305
0.6732116
0.6727565
0.6725129
1.122768
0.8439261
0.7500786
0.7296719
0.7224395
0.73802
0.720193
0.6957908
0.6624586
0.6681016
0.6682377
0.6703075
0.6723196
0.6750044
0.675505
0.6750322
0.6747302
0.6743141
1.122741
0.8477539
0.7586244
0.7423224
0.7144028
0.7353873
0.7181476
0.6908422
0.6690215
0.6669453
0.6708992
0.6713943
0.6752958
0.6772815
0.6777299
0.6770935
0.6768142
0.6762974
1.122711
0.8460814
0.7712941
0.7566787
0.7168969
0.7326984
0.7158391
0.6856899
0.6677786
0.6695612
0.6726116
0.6747811
0.6772116
0.6794099
0.6794457
0.6792477
0.6790393
0.6783996
1.12268
0.8483425
0.7825555
0.7713107
0.7312127
0.7297794
0.7134094
0.6812679
0.6671211
0.6715176
0.675278
0.6775252
0.680125
0.6825693
0.6838137
0.6820809
0.6814391
0.6806707
1.122645
0.8503984
0.7950781
0.7860465
0.7495821
0.7284881
0.7115132
0.6808108
0.6683808
0.673908
0.6785827
0.6808369
0.6838132
0.6830673
0.6862411
0.6843517
0.6838768
0.6833003
1.122608
0.8531831
0.8067713
0.7994993
0.7674071
0.7423813
0.7141777
0.6845374
0.6707894
0.6769859
0.6815007
0.6847424
0.68663
0.6868578
0.6899811
0.6875495
0.6866574
0.6859132
1.122567
0.8535103
0.8187215
0.8104811
0.7862709
0.7630727
0.7263774
0.6925741
0.67563
0.6807275
0.6851897
0.6876614
0.6902591
0.6906642
0.6931943
0.6905488
0.6897162
0.6876947
1.122522
0.856363
0.832709
0.8139517
0.8263564
0.784343
0.7402837
0.7014186
0.6850992
0.6855102
0.6890959
0.690098
0.6949513
0.695815
0.6948175
0.6939165
0.6930953
0.6922622
1.122473
0.8546236
0.8651557
0.8529166
0.8701413
0.7976171
0.7463506
0.7225707
0.7201322
0.6957042
0.6924972
0.6960037
0.6968608
0.6995964
0.6993127
0.6977028
0.696623
0.6935953
1.122421
0.863752
0.8962808
0.8778572
0.8758998
0.7922771
0.7463528
0.7272355
0.7157906
0.6911298
0.6944411
0.7005955
0.7012647
0.7049147
0.703278
0.7018972
0.700295
0.6986869
1.12237
0.8705737
0.9210103
0.9581278
0.8719033
0.8178293
0.7694759
0.7415407
0.726994
0.7011439
0.7001823
0.7044674
0.7063639
0.7090097
0.7079105
0.7065542
0.704814
0.7062048
1.122325
0.9451561
0.9151317
0.962751
0.9168299
0.8255675
0.7988893
0.753771
0.7364242
0.7175635
0.7083069
0.710202
0.7141824
0.7148036
0.7130192
0.7116751
0.710495
0.7086584
1.122076
0.9218915
0.8861662
0.9679808
0.9835546
0.8635514
0.8547995
0.7683972
0.788415
0.7089452
0.7196115
0.7211084
0.72084
0.7240329
0.7198718
0.7159081
0.7112326
0.7119306
1.121784
0.9731796
0.9713911
0.9876562
0.9638782
0.8043715
0.8460882
0.8731903
0.7471229
0.7272444
0.7342994
0.7305181
0.728028
0.7272563
0.7259468
0.7252888
0.7260067
0.72101
1.121498
1.028319
1.023685
1.004857
0.9679855
0.8859101
0.8602709
0.7991981
0.7735268
0.7476954
0.74019
0.740733
0.7406586
0.738414
0.7340201
0.7322473
0.7297238
0.7248437
1.119514
1.088693
1.031183
0.9897317
0.9606338
0.9181698
0.8705605
0.8233086
0.7867728
0.76178
0.7508342
0.7470384
0.7429873
0.7435717
0.7396983
0.741672
0.7359014
0.7323068
1.117786
1.1093
1.00972
1.02186
0.9836333
0.9302496
0.8770073
0.8292997
0.7998031
0.7765051
0.7618759
0.752707
0.7561379
0.7535338
0.7489413
0.7417182
0.7433241
0.7398606
1.022797
1.091143
1.081245
1.036987
0.9802257
0.9151871
0.8714798
0.8310215
0.8024334
0.7857802
0.775182
0.7673525
0.7639917
0.7635598
0.7593653
0.7579822
0.7545875
0.7485837
0.6452851
1.115087
1.042034
1.029282
0.9589504
0.8866923
0.8648756
0.831337
0.803704
0.789044
0.7858409
0.7819714
0.7841491
0.7787583
0.7699796
0.7689039
0.7620857
0.7571523
0.6360664
1.118123
1.011826
0.9683664
0.8996135
0.866714
0.8699624
0.8304496
0.8052072
0.8009838
0.7975648
0.7921213
0.7896544
0.7943527
0.7828664
0.779648
0.7724455
0.7658608
0.6329473
1.120537
0.9025711
0.8502184
0.8651375
0.9247798
0.8390505
0.8159413
0.8184956
0.8148825
0.8077718
0.8209282
0.8142657
0.8109281
0.8014056
0.7919601
0.7845124
0.7759608
0.6308485
1.121339
1.031264
0.9803157
0.9241766
0.9018126
0.8375288
0.8253413
0.8395068
0.8362884
0.8221711
0.8236544
0.8284732
0.8185408
0.8168611
0.8055345
0.7966235
0.7896995
0.6304689
1.122326
0.9754151
1.03716
0.9547086
0.8839688
0.8781203
0.8629293
0.8609685
0.8660607
0.8640196
0.8607
0.8515435
0.840276
0.8365892
0.8218084
0.8089438
0.8069865
0.6307888
1.123811
1.07156
1.059184
1.006976
0.9069751
0.9108635
0.8917551
0.8885037
0.883693
0.8896438
0.875574
0.8689587
0.8628815
0.8534457
0.8356303
0.8281005
0.8124657
0.6301995
1.124243
1.107224
1.038557
0.997392
0.9498012
0.9228205
0.9218421
0.9193074
0.9157483
0.9117275
0.8970605
0.8959845
0.892441
0.8600054
0.8568684
0.8445852
0.8354518
0.6301377
1.123621
1.103857
1.05687
0.9209054
0.9349732
0.9409285
0.9477986
0.954619
0.9513392
0.9333338
0.9323224
0.9272842
0.8943286
0.894985
0.873763
0.8577226
0.8446179
0.6302564
1.121718
1.019708
1.025161
0.9565748
0.9525721
0.9710841
0.9411932
1.012035
0.9864553
0.9583977
0.9606252
0.9359076
0.9241717
0.9218278
0.8925441
0.8857593
0.8600473
0.6300684
1.11866
1.099774
1.049888
0.9932525
0.9517512
0.9945413
0.9913255
0.9674048
0.9658686
0.906044
0.9253566
0.8842012
0.8786333
0.6301391
0.6430413
1.014121
1.003991
0.9983107
0.9618712
0.9476121
0.9275311
0.9122757
0.8901634
0.6304017
1.034837
1.019521
0.9812788
0.9732102
0.9451817
0.923649
0.9050519
1.034023
0.999175
0.9737446
0.9574197
0.9386212
0.9113561
1.014771
0.9957421
0.9660571
0.9439164
0.9243206
1.022813
0.9937309
0.9703272
0.9530411
0.9298429
1.01627
1.008248
0.9822587
0.9565429
0.9341613
1.026756
1.004807
0.9817705
0.9588213
0.9362578
1.020432
0.999858
0.9833337
0.9583386
0.9361207
1.01954
1.006376
0.9781946
0.9545428
0.9355614
1.03187
1.006913
0.9806812
0.9786776
0.9561396
0.9265571
0.6304777
1.02426
1.003154
0.9905205
0.9696961
0.9447848
0.9237078
0.6300247
0.6322666
1.019475
1.025251
0.9913627
0.9753854
0.9515887
0.9510657
0.9224179
0.630322
1.116812
1.084654
1.040086
1.025906
1.015941
0.9887146
1.0008
0.950292
0.9550321
0.9160272
0.9088277
0.6301424
1.121281
1.032343
1.076879
1.055752
1.051552
1.047722
1.043369
1.01881
1.028217
1.015919
1.000946
0.9856464
0.9580497
0.9706432
0.9294448
0.926552
0.9132171
0.6307871
1.123805
1.08602
0.914671
1.033744
1.029452
1.029629
1.023597
1.015814
1.008253
0.9983769
0.9831421
0.9858156
0.9453818
0.9395529
0.9279436
0.9156398
0.8893619
0.6306221
1.123636
1.101675
0.9535039
1.003674
1.005859
1.011674
1.006206
0.9983234
0.9998721
0.9775646
0.9685776
0.9521544
0.9632997
0.9160285
0.920837
0.8917754
0.8969614
0.6305504
1.123562
1.089367
1.008922
0.890255
0.9764877
0.9883543
0.989015
0.9847345
0.9730912
0.9692997
0.9553571
0.9527547
0.9189354
0.9306255
0.9001334
0.8951186
0.8626464
0.6302626
1.123574
1.041472
0.9905447
0.9244263
0.97629
0.9653942
0.9688952
0.9682817
0.9542225
0.9463424
0.931046
0.9464746
0.9131278
0.8969138
0.8955955
0.8765517
0.87661
0.6312358
1.122684
0.9703915
0.8488968
0.911667
0.9456501
0.9459713
0.9505403
0.9501968
0.9427056
0.9488875
0.9210947
0.9106185
0.9136614
0.8881958
0.8763508
0.8689153
0.8479869
0.6307561
1.121988
1.044139
0.8463725
0.903508
0.9242418
0.9254033
0.9301034
0.9280201
0.9203446
0.9177308
0.9139316
0.8897361
0.9018355
0.8779893
0.8669053
0.8521543
0.848531
0.6321082
1.120844
1.015217
0.9845214
0.945058
0.8661058
0.9081369
0.9076843
0.9011621
0.9027123
0.8941611
0.8992408
0.8825759
0.8766526
0.8601958
0.851372
0.8426321
0.8273841
0.6367631
1.116553
1.079307
1.04745
0.9899671
0.9399574
0.8844007
0.8821167
0.8817695
0.8829662
0.8742064
0.8793306
0.8702226
0.8553753
0.8502598
0.8410101
0.8307711
0.8198168
0.6485599
1.113972
1.064944
1.04485
1.002554
0.9599565
0.9115509
0.8855209
0.8731287
0.8660075
0.8577921
0.8642279
0.854729
0.8444928
0.8455225
0.8236926
0.8152196
0.8016734
1.116536
1.108751
1.049805
1.026145
1.005215
0.9740699
0.9323932
0.8933105
0.8681963
0.8535455
0.8455179
0.845036
0.8401318
0.8321248
0.8202516
0.8184837
0.7981634
0.7876119
1.116289
1.112008
1.05174
1.039331
1.014311
0.9842606
0.9465576
0.9035361
0.8725475
0.8485913
0.8339743
0.8289615
0.826917
0.8149931
0.7978597
0.7984311
0.7867667
0.7779173
1.120445
1.084045
1.055773
1.025759
1.005096
0.978309
0.9455131
0.8997173
0.8772669
0.8480311
0.8315444
0.8106639
0.8063221
0.7988671
0.7905527
0.7785651
0.7802422
0.7685963
1.121065
1.057094
1.042525
1.018283
1.000334
0.9611584
0.9392213
0.8630029
0.8829379
0.8502932
0.8206571
0.8063878
0.8000204
0.7905778
0.7821856
0.7717378
0.7651654
0.760351
1.121567
1.055839
1.01517
1.004986
1.014189
0.9107527
0.9155441
0.9054729
0.826005
0.8402825
0.8126603
0.7951385
0.782409
0.7777267
0.7717945
0.7655769
0.7688243
0.7550831
1.121907
1.045389
0.9718079
1.024469
0.9577822
0.9193573
0.9113656
0.88388
0.8633418
0.8245491
0.8002984
0.7855312
0.7745619
0.7696434
0.7629141
0.755824
0.744649
0.7490537
1.122195
1.044463
0.9705365
1.003076
0.8960686
0.9017471
0.8892742
0.8646422
0.8453889
0.8209107
0.7945411
0.778333
0.7658234
0.7598732
0.7542235
0.7493118
0.7398825
0.738525
1.122277
1.010709
0.9794337
0.9463151
0.8874698
0.8807217
0.8656575
0.8477387
0.8386136
0.804443
0.7850174
0.7701628
0.7556917
0.7534448
0.7457295
0.7413561
0.7358313
0.7363436
1.122352
0.9862738
0.9495111
0.8899818
0.8584112
0.870211
0.8421683
0.8374609
0.8052224
0.7923359
0.7751122
0.7609059
0.7487356
0.7438778
0.7384951
0.7342262
0.7297854
0.7240359
1.122417
0.9731002
0.9066027
0.8217067
0.9214687
0.8121844
0.8149246
0.8190623
0.7781636
0.7807467
0.7645932
0.7517564
0.7414516
0.7359773
0.7312853
0.7277723
0.7237371
0.7179902
1.122476
0.9611738
0.8739651
0.84842
0.8848536
0.802082
0.7926775
0.7925994
0.7744829
0.7659911
0.7539462
0.7431342
0.7335523
0.7293222
0.7247664
0.7214802
0.7183623
0.7141147
1.122528
0.9547211
0.8627086
0.8613219
0.8306814
0.7734242
0.7707014
0.7715018
0.7662519
0.7556835
0.7451196
0.7353944
0.7267465
0.7211699
0.7198683
0.7160836
0.7130219
0.7092134
1.122576
0.9485735
0.8542754
0.8561446
0.7825081
0.7598196
0.7509027
0.7567242
0.7566701
0.747195
0.7374
0.7283873
0.7206541
0.7146812
0.7143895
0.7107829
0.7082304
0.7056395
1.122619
0.9423966
0.8430322
0.8410817
0.7483188
0.7504292
0.7367923
0.7465562
0.7481496
0.7397418
0.7304565
0.721773
0.7141986
0.7091946
0.7078853
0.7058948
0.7037167
0.7014262
1.122659
0.9365108
0.8278428
0.8212019
0.7283011
0.736566
0.7269891
0.7375948
0.7406455
0.7328082
0.7233202
0.7155925
0.708941
0.7047284
0.7063993
0.7013754
0.699536
0.6974828
1.122694
0.934477
0.8161285
0.7983102
0.7180616
0.7266502
0.7180595
0.7293637
0.7334274
0.7246768
0.7189983
0.7102521
0.7040797
0.7004776
0.6995369
0.6972304
0.6956449
0.6938386
1.122729
0.9226754
0.7967141
0.768921
0.712684
0.71973
0.7092088
0.7210711
0.7245055
0.7229702
0.7130954
0.7053259
0.6998168
0.6964306
0.6952191
0.6932722
0.6920052
0.6904274
1.122758
0.9218968
0.7807624
0.7345042
0.711421
0.714562
0.700321
0.7098067
0.7256222
0.7158721
0.708394
0.7009916
0.6956997
0.6924288
0.6913061
0.6896664
0.6886357
0.6872599
1.122785
0.9167344
0.761904
0.6880642
0.7151882
0.7110618
0.6933311
0.7140555
0.7166946
0.711472
0.7040452
0.6969014
0.6917448
0.6887509
0.6875761
0.6867719
0.6855422
0.6843257
1.122817
0.9093651
0.7392924
0.6655563
0.7238515
0.7094724
0.6848535
0.7051348
0.7125831
0.706976
0.6997819
0.6929001
0.6879731
0.6849144
0.6852222
0.6830298
0.6825523
0.6815962
1.122858
0.9059894
0.7226827
0.7205565
0.7252924
0.7063176
0.6747989
0.7045316
0.7078549
0.7023548
0.6955355
0.6890014
0.6844107
0.6818511
0.6811284
0.6810788
0.6797999
0.6790285
1.122902
0.8990904
0.7445367
0.7360909
0.7453792
0.6992555
0.6686143
0.7050158
0.7032224
0.6974121
0.6911519
0.68523
0.6810614
0.6789553
0.6777784
0.6786762
0.6772581
0.6766397
1.122902
0.9026782
0.7674583
0.772287
0.7388931
0.6889258
0.679615
0.7040381
0.6988246
0.6934877
0.6867765
0.6813237
0.6779235
0.676184
0.6750579
0.6761519
0.6748944
0.6744075
1.122881
0.8678824
0.8255815
0.7734256
0.7329602
0.6817864
0.6972387
0.7001976
0.6940957
0.6899636
0.6842054
0.6785075
0.6747863
0.6735594
0.6726037
0.6737076
0.6726685
0.6723077
1.122924
0.8823198
0.856539
0.7807878
0.7258079
0.6914545
0.7022318
0.6951853
0.6886418
0.6857265
0.67973
0.6753102
0.6727568
0.6710786
0.6702982
0.671413
0.6705621
0.6703355
1.122573
0.8638272
0.8168372
0.759911
0.7107052
0.7038456
0.6996824
0.6896384
0.6853203
0.6803558
0.675231
0.672046
0.6698765
0.6687754
0.6681181
0.6692684
0.6685977
0.6684743
1.122561
0.8508903
0.7821846
0.7491837
0.7174709
0.7065325
0.6942701
0.6838581
0.681766
0.6759247
0.6710973
0.6684658
0.6671351
0.6665126
0.6660477
0.6672811
0.6667116
0.6667344
1.122567
0.8449735
0.7695278
0.7510841
0.723203
0.7047625
0.6881144
0.6780807
0.6780182
0.6702545
0.6679025
0.6661374
0.6646136
0.6643946
0.6641242
0.6653087
0.6649865
0.6651055
1.122583
0.8364147
0.7581982
0.7488269
0.7226226
0.6999192
0.6814014
0.6727019
0.6726303
0.666155
0.6641137
0.6630814
0.6623812
0.6623691
0.6622981
0.6635102
0.6633403
0.6635769