/*--------------------------------*- C++ -*----------------------------------*\
| =========                 |                                                 |
| \\      /  F ield         | OpenFOAM: The Open Source CFD Toolbox           |
|  \\    /   O peration     | Version:  2206                                  |
|   \\  /    A nd           | Website:  www.openfoam.com                      |
|    \\/     M anipulation  |                                                 |
\*---------------------------------------------------------------------------*/
FoamFile
{
    version     2.0;
    format      ascii;
    arch        "LSB;label=32;scalar=64";
    class       volScalarField;
    location    "1.2";
    object      nuEffb;
}
// * * * * * * * * * * * * * * * * * * * * * * * * * * * * * * * * * * * * * //

dimensions      [0 2 -1 0 0 0 0];

internalField   nonuniform List<scalar> 
13078
(
4.829598e-05
4.145476e-05
5.234422e-05
5.197649e-05
5.114385e-05
5.019579e-05
4.912964e-05
4.368479e-05
5.302868e-05
5.29189e-05
5.20621e-05
5.118613e-05
5.022303e-05
4.915445e-05
5.451139e-05
5.39228e-05
5.304156e-05
5.215714e-05
5.124368e-05
5.026215e-05
4.918622e-05
5.492488e-05
5.399246e-05
5.311207e-05
5.22286e-05
5.129754e-05
5.030284e-05
4.922047e-05
5.492847e-05
5.401886e-05
5.315256e-05
5.226466e-05
5.134105e-05
5.034105e-05
4.925414e-05
5.489239e-05
5.401741e-05
5.316943e-05
5.228648e-05
5.136118e-05
5.03733e-05
4.928614e-05
5.486096e-05
5.400738e-05
5.3177e-05
5.230151e-05
5.137498e-05
5.038643e-05
4.931417e-05
5.483905e-05
5.399652e-05
5.318058e-05
5.230974e-05
5.13832e-05
5.039551e-05
4.932391e-05
5.482389e-05
5.398734e-05
5.317841e-05
5.231204e-05
5.138792e-05
5.040189e-05
4.933107e-05
5.48133e-05
5.398032e-05
5.317569e-05
5.23128e-05
5.139088e-05
5.040647e-05
4.933662e-05
5.480575e-05
5.397501e-05
5.317332e-05
5.231292e-05
5.13929e-05
5.041001e-05
4.934135e-05
5.479991e-05
5.39713e-05
5.317149e-05
5.231287e-05
5.139441e-05
5.041298e-05
4.934541e-05
5.47956e-05
5.396838e-05
5.317011e-05
5.231297e-05
5.13957e-05
5.041559e-05
4.934917e-05
5.479212e-05
5.396623e-05
5.316922e-05
5.231352e-05
5.139749e-05
5.041818e-05
4.935284e-05
5.47894e-05
5.396463e-05
5.316893e-05
5.231894e-05
5.140594e-05
5.042144e-05
4.935637e-05
5.478713e-05
5.396348e-05
5.316917e-05
5.232612e-05
5.141289e-05
5.042443e-05
4.936004e-05
5.478511e-05
5.396243e-05
5.316919e-05
5.232763e-05
5.141512e-05
5.042724e-05
4.936383e-05
5.478326e-05
5.396174e-05
5.316943e-05
5.232903e-05
5.141738e-05
5.043023e-05
4.936784e-05
5.478154e-05
5.396118e-05
5.316991e-05
5.233055e-05
5.142018e-05
5.043418e-05
4.9372e-05
5.477988e-05
5.396085e-05
5.317067e-05
5.23329e-05
5.143007e-05
5.044795e-05
4.937738e-05
5.477829e-05
5.396041e-05
5.317154e-05
5.233554e-05
5.144241e-05
5.045965e-05
4.938296e-05
5.477645e-05
5.39601e-05
5.317239e-05
5.233763e-05
5.144667e-05
5.046456e-05
4.938817e-05
5.477459e-05
5.39599e-05
5.317351e-05
5.234018e-05
5.145055e-05
5.047035e-05
4.939501e-05
5.477252e-05
5.395953e-05
5.317466e-05
5.2343e-05
5.14558e-05
5.048567e-05
4.941584e-05
5.477014e-05
5.395915e-05
5.317587e-05
5.234614e-05
5.146151e-05
5.050479e-05
4.943394e-05
5.476745e-05
5.395863e-05
5.317737e-05
5.234961e-05
5.146689e-05
5.051334e-05
4.944333e-05
5.476404e-05
5.395785e-05
5.317882e-05
5.23534e-05
5.147292e-05
5.052171e-05
4.945429e-05
5.476015e-05
5.395688e-05
5.318029e-05
5.235753e-05
5.147986e-05
5.05319e-05
4.947885e-05
5.475556e-05
5.395551e-05
5.318171e-05
5.236204e-05
5.148751e-05
5.054335e-05
4.950949e-05
5.475197e-05
5.395562e-05
5.318366e-05
5.236691e-05
5.149565e-05
5.055457e-05
4.952578e-05
5.474714e-05
5.39548e-05
5.318502e-05
5.2372e-05
5.150454e-05
5.056705e-05
4.954304e-05
5.473892e-05
5.395483e-05
5.319229e-05
5.237843e-05
5.151392e-05
5.05805e-05
4.956161e-05
5.472847e-05
5.39547e-05
5.320233e-05
5.23941e-05
5.152532e-05
5.059503e-05
4.957974e-05
5.471583e-05
5.39504e-05
5.321096e-05
5.240566e-05
5.153722e-05
5.061072e-05
4.959931e-05
5.470125e-05
5.394453e-05
5.321388e-05
5.242187e-05
5.156317e-05
5.063011e-05
4.962039e-05
5.468482e-05
5.393841e-05
5.321663e-05
5.24427e-05
5.159706e-05
5.066781e-05
4.964545e-05
5.466754e-05
5.393312e-05
5.322026e-05
5.245646e-05
5.163118e-05
5.06983e-05
4.967239e-05
5.465147e-05
5.393043e-05
5.322709e-05
5.247019e-05
5.165348e-05
5.074088e-05
4.972318e-05
5.463881e-05
5.393259e-05
5.323916e-05
5.249072e-05
5.16845e-05
5.080392e-05
4.977928e-05
5.463521e-05
5.394881e-05
5.326854e-05
5.254223e-05
5.176194e-05
5.090688e-05
4.989367e-05
5.464508e-05
5.399975e-05
5.3366e-05
5.267801e-05
5.194457e-05
5.10933e-05
4.998631e-05
5.469443e-05
5.412322e-05
5.358888e-05
5.299069e-05
5.224355e-05
5.117645e-05
4.960996e-05
5.481944e-05
5.438951e-05
5.397509e-05
5.339013e-05
5.240164e-05
5.07554e-05
4.864667e-05
5.507635e-05
5.479271e-05
5.440435e-05
5.357303e-05
5.201579e-05
4.98496e-05
4.745744e-05
5.548823e-05
5.523487e-05
5.462276e-05
5.32307e-05
5.119515e-05
4.879908e-05
4.636303e-05
5.600557e-05
5.553814e-05
5.446675e-05
5.251106e-05
5.025423e-05
4.796598e-05
4.55757e-05
5.654825e-05
5.552166e-05
5.391682e-05
5.174974e-05
4.946813e-05
4.721735e-05
4.513006e-05
5.698905e-05
5.519081e-05
5.32741e-05
5.111924e-05
4.885643e-05
4.67518e-05
4.462746e-05
5.716972e-05
5.468735e-05
5.267087e-05
5.052118e-05
4.83853e-05
4.638359e-05
4.441178e-05
5.706551e-05
5.420107e-05
5.212261e-05
4.996846e-05
4.788955e-05
4.602769e-05
4.441798e-05
5.673625e-05
5.382106e-05
5.174291e-05
4.946382e-05
4.744812e-05
4.569393e-05
4.419421e-05
5.62691e-05
5.347894e-05
5.134311e-05
4.908486e-05
4.713173e-05
4.545583e-05
4.390555e-05
5.579753e-05
5.318157e-05
5.097303e-05
4.87754e-05
4.680859e-05
4.511896e-05
4.357932e-05
5.540353e-05
5.296397e-05
5.075127e-05
4.85215e-05
4.646458e-05
4.471638e-05
4.33938e-05
5.509227e-05
5.279798e-05
5.058475e-05
4.83461e-05
4.624879e-05
4.450519e-05
4.322005e-05
5.486636e-05
5.269734e-05
5.049837e-05
4.827479e-05
4.61884e-05
4.446705e-05
4.316425e-05
5.490124e-05
5.273187e-05
5.052696e-05
4.830401e-05
4.622198e-05
4.449694e-05
4.317027e-05
5.518136e-05
5.287414e-05
5.064255e-05
4.840272e-05
4.631865e-05
4.457156e-05
4.323968e-05
5.554604e-05
5.308033e-05
5.083896e-05
4.8603e-05
4.655651e-05
4.479705e-05
4.340843e-05
5.59982e-05
5.334972e-05
5.110422e-05
4.88917e-05
4.692796e-05
4.522575e-05
4.36193e-05
5.651442e-05
5.369357e-05
5.153321e-05
4.925571e-05
4.728609e-05
4.559313e-05
4.401665e-05
5.700079e-05
5.406656e-05
5.195737e-05
4.965665e-05
4.763974e-05
4.588296e-05
4.438387e-05
5.731437e-05
5.445261e-05
5.238565e-05
5.023482e-05
4.815384e-05
4.629018e-05
4.468677e-05
5.738788e-05
5.494215e-05
5.297738e-05
5.08543e-05
4.872227e-05
4.672217e-05
4.474406e-05
5.716174e-05
5.541857e-05
5.359609e-05
5.150432e-05
4.926371e-05
4.71406e-05
4.501687e-05
5.668638e-05
5.570548e-05
5.420774e-05
5.214469e-05
4.992345e-05
4.768747e-05
4.559622e-05
5.611452e-05
5.56785e-05
5.469313e-05
5.28731e-05
5.073148e-05
4.849392e-05
4.61335e-05
5.557334e-05
5.534456e-05
5.478576e-05
5.350716e-05
5.163256e-05
4.936942e-05
4.698745e-05
5.513917e-05
5.488016e-05
5.452066e-05
5.375701e-05
5.234145e-05
5.036679e-05
4.808607e-05
5.4863e-05
5.445419e-05
5.406252e-05
5.351301e-05
5.260494e-05
5.112496e-05
4.916962e-05
5.472377e-05
5.41663e-05
5.365079e-05
5.307723e-05
5.236734e-05
5.136875e-05
4.991103e-05
5.466554e-05
5.40299e-05
5.34097e-05
5.273891e-05
5.201818e-05
5.118337e-05
5.011914e-05
5.465028e-05
5.397311e-05
5.330309e-05
5.258283e-05
5.180669e-05
5.095478e-05
4.995253e-05
5.465145e-05
5.395332e-05
5.32664e-05
5.251889e-05
5.171304e-05
5.083646e-05
4.981453e-05
5.466171e-05
5.39471e-05
5.324807e-05
5.249326e-05
5.16753e-05
5.076461e-05
4.974892e-05
5.467596e-05
5.394585e-05
5.323592e-05
5.24724e-05
5.16405e-05
5.07135e-05
4.969148e-05
5.46914e-05
5.394804e-05
5.322763e-05
5.24556e-05
5.160541e-05
5.067405e-05
4.966025e-05
5.470631e-05
5.395221e-05
5.322299e-05
5.243258e-05
5.157491e-05
5.064202e-05
4.963324e-05
5.471968e-05
5.395615e-05
5.321821e-05
5.241418e-05
5.154661e-05
5.062068e-05
4.960948e-05
5.473148e-05
5.395945e-05
5.320839e-05
5.240101e-05
5.153284e-05
5.060283e-05
4.958758e-05
5.474174e-05
5.395878e-05
5.319712e-05
5.238373e-05
5.151984e-05
5.058668e-05
4.956739e-05
5.474964e-05
5.395818e-05
5.318879e-05
5.237642e-05
5.150923e-05
5.057181e-05
4.954744e-05
5.47541e-05
5.395844e-05
5.318682e-05
5.237042e-05
5.149941e-05
5.055818e-05
4.952917e-05
5.475737e-05
5.395783e-05
5.318433e-05
5.236481e-05
5.149034e-05
5.054613e-05
4.95121e-05
5.476176e-05
5.395891e-05
5.318244e-05
5.235984e-05
5.148208e-05
5.053411e-05
4.948105e-05
5.476558e-05
5.395961e-05
5.318058e-05
5.235517e-05
5.147479e-05
5.05236e-05
4.945594e-05
5.476883e-05
5.396021e-05
5.31789e-05
5.235099e-05
5.146843e-05
5.05149e-05
4.944466e-05
5.477132e-05
5.39604e-05
5.317712e-05
5.234725e-05
5.146273e-05
5.050591e-05
4.943491e-05
5.477362e-05
5.396054e-05
5.31756e-05
5.234412e-05
5.145684e-05
5.048659e-05
4.941665e-05
5.477553e-05
5.396082e-05
5.317433e-05
5.234112e-05
5.145145e-05
5.047118e-05
4.939559e-05
5.477727e-05
5.396088e-05
5.317312e-05
5.233838e-05
5.144747e-05
5.046521e-05
4.938877e-05
5.477887e-05
5.396109e-05
5.317218e-05
5.233606e-05
5.144285e-05
5.046012e-05
4.938343e-05
5.478033e-05
5.396132e-05
5.31711e-05
5.233321e-05
5.143035e-05
5.044826e-05
4.937762e-05
5.478181e-05
5.39615e-05
5.317017e-05
5.233067e-05
5.142033e-05
5.043431e-05
4.937208e-05
5.478326e-05
5.396184e-05
5.31694e-05
5.232907e-05
5.141754e-05
5.043036e-05
4.936797e-05
5.478479e-05
5.396226e-05
5.316898e-05
5.232758e-05
5.141521e-05
5.042745e-05
4.93641e-05
5.478648e-05
5.396297e-05
5.316881e-05
5.232587e-05
5.141286e-05
5.042461e-05
4.936028e-05
5.47883e-05
5.396369e-05
5.316831e-05
5.231857e-05
5.140583e-05
5.042153e-05
4.935655e-05
5.479038e-05
5.396479e-05
5.31682e-05
5.231299e-05
5.139733e-05
5.041829e-05
4.935313e-05
5.479306e-05
5.396631e-05
5.31687e-05
5.231235e-05
5.139563e-05
5.041589e-05
4.934972e-05
5.47963e-05
5.396862e-05
5.316975e-05
5.231217e-05
5.139445e-05
5.041361e-05
4.934643e-05
5.480071e-05
5.397154e-05
5.317117e-05
5.231215e-05
5.139321e-05
5.041116e-05
4.934296e-05
5.480648e-05
5.397539e-05
5.317306e-05
5.231214e-05
5.139174e-05
5.040838e-05
4.933902e-05
5.481406e-05
5.398054e-05
5.317538e-05
5.231201e-05
5.138986e-05
5.040499e-05
4.933452e-05
5.482448e-05
5.398768e-05
5.317784e-05
5.231126e-05
5.138707e-05
5.04004e-05
4.932888e-05
5.483944e-05
5.39968e-05
5.317638e-05
5.230627e-05
5.138207e-05
5.039406e-05
4.932114e-05
5.486133e-05
5.400762e-05
5.317415e-05
5.229723e-05
5.137354e-05
5.03846e-05
4.929557e-05
5.489265e-05
5.401807e-05
5.316972e-05
5.228616e-05
5.136075e-05
5.035697e-05
4.926614e-05
5.492816e-05
5.401951e-05
5.315321e-05
5.226598e-05
5.13268e-05
5.032361e-05
4.923447e-05
5.492289e-05
5.3993e-05
5.311719e-05
5.221641e-05
5.12825e-05
5.028604e-05
4.920073e-05
5.44956e-05
5.393406e-05
5.303116e-05
5.214523e-05
5.122975e-05
5.024547e-05
4.916634e-05
4.376689e-05
5.313436e-05
5.295663e-05
5.204855e-05
5.116746e-05
5.020314e-05
4.913254e-05
4.792397e-05
4.648517e-05
4.468388e-05
4.30848e-05
4.04849e-05
3.693272e-05
3.068061e-05
4.795018e-05
4.651672e-05
4.472141e-05
4.312608e-05
4.053002e-05
3.698615e-05
3.088054e-05
4.798027e-05
4.65497e-05
4.476123e-05
4.25947e-05
4.057358e-05
3.703842e-05
3.100746e-05
4.801208e-05
4.658354e-05
4.479833e-05
4.321617e-05
4.06198e-05
3.709116e-05
3.112635e-05
4.804365e-05
4.661801e-05
4.483781e-05
4.325909e-05
4.066577e-05
3.71441e-05
3.121585e-05
4.807471e-05
4.665262e-05
4.487766e-05
4.330361e-05
4.071147e-05
3.7197e-05
3.130405e-05
4.810466e-05
4.668675e-05
4.491723e-05
4.334664e-05
4.072538e-05
3.724995e-05
3.13911e-05
4.813165e-05
4.672028e-05
4.495633e-05
4.338872e-05
4.07382e-05
3.730257e-05
3.14775e-05
4.81401e-05
4.675105e-05
4.499345e-05
4.343141e-05
4.077514e-05
3.735008e-05
3.156361e-05
4.814654e-05
4.676009e-05
4.502801e-05
4.347393e-05
4.081174e-05
3.739766e-05
3.164939e-05
4.815212e-05
4.676701e-05
4.503807e-05
4.351521e-05
4.084836e-05
3.744526e-05
3.173497e-05
4.815735e-05
4.677375e-05
4.504599e-05
4.352494e-05
4.088519e-05
3.749302e-05
3.182019e-05
4.816224e-05
4.678025e-05
4.5054e-05
4.353382e-05
4.089246e-05
3.75418e-05
3.190498e-05
4.816705e-05
4.678668e-05
4.506215e-05
4.354302e-05
4.090053e-05
3.755255e-05
3.198713e-05
4.817182e-05
4.679337e-05
4.507054e-05
4.355242e-05
4.090906e-05
3.756494e-05
3.19878e-05
4.817678e-05
4.680024e-05
4.507913e-05
4.356224e-05
4.091816e-05
3.757818e-05
3.199204e-05
4.818185e-05
4.680734e-05
4.508795e-05
4.357278e-05
4.093182e-05
3.759182e-05
3.199117e-05
4.818713e-05
4.681449e-05
4.509734e-05
4.35879e-05
4.103905e-05
3.760632e-05
3.198841e-05
4.819261e-05
4.682168e-05
4.510697e-05
4.359906e-05
4.105499e-05
3.762116e-05
3.198918e-05
4.819846e-05
4.682929e-05
4.511709e-05
4.361082e-05
4.106836e-05
3.763677e-05
3.198632e-05
4.820462e-05
4.68373e-05
4.512756e-05
4.362327e-05
4.108233e-05
3.765309e-05
3.197225e-05
4.821134e-05
4.684579e-05
4.513841e-05
4.363657e-05
4.109698e-05
3.767028e-05
3.196647e-05
4.821838e-05
4.685491e-05
4.515032e-05
4.364901e-05
4.111565e-05
3.768833e-05
3.195944e-05
4.82275e-05
4.686481e-05
4.516393e-05
4.311834e-05
4.121953e-05
3.771555e-05
3.195226e-05
4.823712e-05
4.687521e-05
4.517656e-05
4.3681e-05
4.127514e-05
3.773796e-05
3.194353e-05
4.82466e-05
4.688648e-05
4.519079e-05
4.369682e-05
4.129711e-05
3.775947e-05
3.193295e-05
4.825927e-05
4.690001e-05
4.520721e-05
4.371539e-05
4.13198e-05
3.778554e-05
3.19142e-05
4.829227e-05
4.691501e-05
4.522374e-05
4.373493e-05
4.134994e-05
3.797066e-05
3.189335e-05
4.831856e-05
4.72978e-05
4.569297e-05
4.375484e-05
4.137859e-05
3.804505e-05
3.187907e-05
4.83378e-05
4.731143e-05
4.571023e-05
4.377797e-05
4.140626e-05
3.80771e-05
3.186151e-05
4.838481e-05
4.736277e-05
4.573234e-05
4.380305e-05
4.143642e-05
3.820821e-05
3.184639e-05
4.84234e-05
4.741597e-05
4.575645e-05
4.383092e-05
4.146956e-05
3.83729e-05
3.183305e-05
4.844914e-05
4.749336e-05
4.578799e-05
4.386131e-05
4.150565e-05
3.842189e-05
3.184171e-05
4.847291e-05
4.75285e-05
4.585935e-05
4.389387e-05
4.154435e-05
3.848336e-05
3.233573e-05
4.849811e-05
4.755999e-05
4.59442e-05
4.393051e-05
4.158501e-05
3.853882e-05
3.242558e-05
4.852482e-05
4.759178e-05
4.605266e-05
4.39828e-05
4.162291e-05
3.859347e-05
3.432862e-05
4.855182e-05
4.762483e-05
4.609042e-05
4.409645e-05
4.165128e-05
3.864577e-05
3.343656e-05
4.858409e-05
4.765664e-05
4.612206e-05
4.416821e-05
4.163607e-05
3.861434e-05
3.466974e-05
4.862156e-05
4.768528e-05
4.610905e-05
4.411626e-05
4.127352e-05
3.80068e-05
3.557847e-05
4.863178e-05
4.764837e-05
4.575396e-05
4.326118e-05
4.03481e-05
3.75811e-05
3.557605e-05
4.831499e-05
4.709496e-05
4.454195e-05
4.177963e-05
3.9204e-05
3.765712e-05
3.430646e-05
4.744455e-05
4.588161e-05
4.303637e-05
4.020704e-05
3.815332e-05
3.747417e-05
3.346735e-05
4.606814e-05
4.460229e-05
4.177961e-05
3.924931e-05
3.758005e-05
3.722769e-05
3.29451e-05
4.476867e-05
4.332881e-05
4.057523e-05
3.804744e-05
3.707505e-05
3.659755e-05
3.266712e-05
4.381206e-05
4.235675e-05
3.956154e-05
3.705149e-05
3.673983e-05
3.576727e-05
3.170514e-05
4.306307e-05
4.139357e-05
3.82222e-05
3.650192e-05
3.602562e-05
3.543333e-05
3.130988e-05
4.248011e-05
4.070479e-05
3.761479e-05
3.58404e-05
3.586518e-05
3.537445e-05
3.317147e-05
4.211986e-05
4.012295e-05
3.737018e-05
3.560115e-05
3.540091e-05
3.576394e-05
3.516123e-05
4.188368e-05
4.001771e-05
3.712765e-05
3.523154e-05
3.553634e-05
3.522351e-05
3.55185e-05
4.1739e-05
3.953039e-05
3.642914e-05
3.560945e-05
3.559325e-05
3.535976e-05
3.562364e-05
4.133298e-05
3.940969e-05
3.671935e-05
3.650575e-05
3.61086e-05
3.492165e-05
3.472908e-05
4.089912e-05
3.868116e-05
3.726264e-05
3.644487e-05
3.564675e-05
3.474055e-05
3.320209e-05
4.08014e-05
3.861199e-05
3.673195e-05
3.598149e-05
3.579391e-05
3.499742e-05
3.403736e-05
4.058855e-05
3.809463e-05
3.629149e-05
3.602602e-05
3.597336e-05
3.671343e-05
3.533973e-05
4.059739e-05
3.79647e-05
3.580873e-05
3.548431e-05
3.699234e-05
3.794858e-05
3.379128e-05
4.061514e-05
3.793678e-05
3.61452e-05
3.554416e-05
3.698846e-05
3.813545e-05
4.06243e-05
3.806234e-05
3.650299e-05
3.51379e-05
3.692222e-05
3.823148e-05
4.057135e-05
3.79111e-05
3.634167e-05
3.590461e-05
3.757247e-05
3.812317e-05
4.056053e-05
3.77045e-05
3.717129e-05
3.759033e-05
3.68254e-05
3.688971e-05
3.553494e-05
4.082777e-05
3.798122e-05
3.736634e-05
3.663166e-05
3.658694e-05
3.567153e-05
3.327121e-05
4.106733e-05
3.811752e-05
3.711796e-05
3.611428e-05
3.618468e-05
3.556155e-05
3.408899e-05
4.163992e-05
3.85612e-05
3.710514e-05
3.631929e-05
3.630772e-05
3.66389e-05
3.402717e-05
4.211175e-05
3.938566e-05
3.692018e-05
3.634711e-05
3.690972e-05
3.632933e-05
3.418307e-05
4.231032e-05
3.992231e-05
3.741724e-05
3.609918e-05
3.630434e-05
3.5588e-05
3.558774e-05
4.261143e-05
4.035597e-05
3.763643e-05
3.571047e-05
3.559755e-05
3.619302e-05
3.603918e-05
4.300234e-05
4.06516e-05
3.82776e-05
3.559607e-05
3.564042e-05
3.595217e-05
3.462359e-05
4.366014e-05
4.140533e-05
3.871706e-05
3.660209e-05
3.576149e-05
3.603593e-05
3.440013e-05
4.449626e-05
4.210339e-05
3.97652e-05
3.723214e-05
3.627019e-05
3.56253e-05
3.402938e-05
4.542013e-05
4.306985e-05
4.080262e-05
3.811173e-05
3.657326e-05
3.558822e-05
3.324198e-05
4.666547e-05
4.422229e-05
4.171661e-05
3.932492e-05
3.701066e-05
3.604917e-05
3.203739e-05
4.784626e-05
4.558471e-05
4.303496e-05
4.016884e-05
3.79195e-05
3.667105e-05
3.229551e-05
4.853534e-05
4.68042e-05
4.432151e-05
4.132361e-05
3.884988e-05
3.727805e-05
3.333321e-05
4.871891e-05
4.752654e-05
4.54619e-05
4.279152e-05
4.006044e-05
3.755511e-05
3.443537e-05
4.866002e-05
4.767306e-05
4.606756e-05
4.385396e-05
4.083988e-05
3.751086e-05
3.543193e-05
4.860964e-05
4.765563e-05
4.614561e-05
4.420672e-05
4.149624e-05
3.831271e-05
3.54685e-05
4.857156e-05
4.762455e-05
4.612394e-05
4.413496e-05
4.165537e-05
3.870172e-05
3.441587e-05
4.854063e-05
4.75937e-05
4.608704e-05
4.405301e-05
4.164806e-05
3.863776e-05
3.347891e-05
4.851078e-05
4.756307e-05
4.602035e-05
4.396277e-05
4.16147e-05
3.857707e-05
3.262518e-05
4.848272e-05
4.753299e-05
4.591668e-05
4.391987e-05
4.157283e-05
3.851677e-05
3.238355e-05
4.845667e-05
4.750234e-05
4.581762e-05
4.388388e-05
4.153096e-05
3.845768e-05
3.216877e-05
4.842908e-05
4.74401e-05
4.577727e-05
4.385045e-05
4.149162e-05
3.840089e-05
3.183373e-05
4.838922e-05
4.738875e-05
4.574783e-05
4.381995e-05
4.145572e-05
3.833807e-05
3.184154e-05
4.834082e-05
4.732096e-05
4.572362e-05
4.379245e-05
4.142297e-05
3.810663e-05
3.185286e-05
4.832086e-05
4.729572e-05
4.570088e-05
4.37681e-05
4.139357e-05
3.806192e-05
3.186812e-05
4.829405e-05
4.691643e-05
4.522492e-05
4.374112e-05
4.136573e-05
3.802906e-05
3.188157e-05
4.826065e-05
4.690127e-05
4.520821e-05
4.372197e-05
4.133422e-05
3.785714e-05
3.189813e-05
4.824771e-05
4.688754e-05
4.519191e-05
4.370377e-05
4.13083e-05
3.777069e-05
3.191722e-05
4.823805e-05
4.687601e-05
4.517729e-05
4.368673e-05
4.128573e-05
3.77481e-05
3.192911e-05
4.822818e-05
4.686522e-05
4.516351e-05
4.367055e-05
4.126184e-05
3.772701e-05
3.194069e-05
4.821889e-05
4.685535e-05
4.515079e-05
4.365508e-05
4.114964e-05
3.769988e-05
3.194825e-05
4.821173e-05
4.684614e-05
4.513877e-05
4.364059e-05
4.110386e-05
3.76781e-05
3.19557e-05
4.820499e-05
4.683741e-05
4.51275e-05
4.362722e-05
4.108884e-05
3.766052e-05
3.19647e-05
4.819868e-05
4.682933e-05
4.511693e-05
4.361437e-05
4.107443e-05
3.764377e-05
3.197005e-05
4.819268e-05
4.682173e-05
4.510677e-05
4.360236e-05
4.106088e-05
3.76278e-05
3.197627e-05
4.818723e-05
4.681452e-05
4.509724e-05
4.35909e-05
4.104805e-05
3.761262e-05
3.197953e-05
4.818198e-05
4.680737e-05
4.508795e-05
4.357731e-05
4.099013e-05
3.759791e-05
3.197958e-05
4.817697e-05
4.680034e-05
4.507914e-05
4.356494e-05
4.092231e-05
3.758391e-05
3.197968e-05
4.817212e-05
4.679367e-05
4.50707e-05
4.355474e-05
4.091321e-05
3.757055e-05
3.197899e-05
4.816753e-05
4.678722e-05
4.506256e-05
4.354483e-05
4.090447e-05
3.755776e-05
3.198003e-05
4.8163e-05
4.678104e-05
4.505462e-05
4.353542e-05
4.089633e-05
3.754583e-05
3.193438e-05
4.815853e-05
4.677491e-05
4.504697e-05
4.352613e-05
4.088849e-05
3.751628e-05
3.18501e-05
4.815389e-05
4.676864e-05
4.503939e-05
4.351713e-05
4.086678e-05
3.746862e-05
3.176519e-05
4.814899e-05
4.676227e-05
4.502974e-05
4.349165e-05
4.083053e-05
3.742102e-05
3.167991e-05
4.814342e-05
4.675393e-05
4.499572e-05
4.344926e-05
4.079411e-05
3.737358e-05
3.159453e-05
4.813611e-05
4.67241e-05
4.495929e-05
4.340639e-05
4.075771e-05
3.732607e-05
3.150898e-05
4.81106e-05
4.669152e-05
4.492086e-05
4.336313e-05
4.072266e-05
3.727627e-05
3.142333e-05
4.808209e-05
4.665825e-05
4.488181e-05
4.332188e-05
4.073375e-05
3.722345e-05
3.133737e-05
4.805231e-05
4.662417e-05
4.484235e-05
4.327814e-05
4.068962e-05
3.717063e-05
3.125085e-05
4.80213e-05
4.658951e-05
4.480264e-05
4.32346e-05
4.064401e-05
3.711788e-05
3.11633e-05
4.798898e-05
4.655464e-05
4.476296e-05
4.319108e-05
4.059839e-05
3.706515e-05
3.106378e-05
4.795678e-05
4.652034e-05
4.472362e-05
4.314838e-05
4.055285e-05
3.701256e-05
3.093962e-05
4.792533e-05
4.648594e-05
4.468466e-05
4.310639e-05
4.050757e-05
3.695988e-05
3.078591e-05
1.014792e-06
1e-06
1e-06
1e-06
1e-06
1e-06
1e-06
1e-06
1e-06
1e-06
1e-06
1e-06
1e-06
1e-06
1e-06
1e-06
1e-06
1e-06
1.029324e-06
1e-06
1e-06
1e-06
1e-06
1e-06
1e-06
1e-06
1e-06
1e-06
1e-06
1e-06
1e-06
1e-06
1e-06
1e-06
1e-06
1e-06
1.030845e-06
1e-06
1e-06
1e-06
1e-06
1e-06
1e-06
1e-06
1e-06
1e-06
1e-06
1e-06
1e-06
1e-06
1e-06
1e-06
1e-06
1e-06
1.033108e-06
1e-06
1e-06
1e-06
1e-06
1e-06
1e-06
1e-06
1e-06
1e-06
1e-06
1e-06
1e-06
1e-06
1e-06
1e-06
1e-06
1e-06
1.036044e-06
1e-06
1e-06
1e-06
1e-06
1e-06
1e-06
1e-06
1e-06
1e-06
1e-06
1e-06
1e-06
1e-06
1e-06
1e-06
1e-06
1e-06
1.039611e-06
1e-06
1e-06
1e-06
1e-06
1e-06
1e-06
1e-06
1e-06
1e-06
1e-06
1e-06
1e-06
1e-06
1e-06
1e-06
1e-06
1e-06
1.043757e-06
1e-06
1e-06
1e-06
1e-06
1e-06
1e-06
1e-06
1e-06
1e-06
1e-06
1e-06
1e-06
1e-06
1e-06
1e-06
1e-06
1e-06
1.04844e-06
1e-06
1e-06
1e-06
1e-06
1e-06
1e-06
1e-06
1e-06
1e-06
1e-06
1e-06
1e-06
1e-06
1e-06
1e-06
1e-06
1e-06
1.053624e-06
1e-06
1e-06
1e-06
1e-06
1e-06
1e-06
1e-06
1e-06
1e-06
1e-06
1e-06
1e-06
1e-06
1e-06
1e-06
1e-06
1e-06
1.059283e-06
1e-06
1e-06
1e-06
1e-06
1e-06
1e-06
1e-06
1e-06
1e-06
1e-06
1e-06
1e-06
1e-06
1e-06
1e-06
1e-06
1e-06
1.065401e-06
1e-06
1e-06
1e-06
1e-06
1e-06
1e-06
1e-06
1e-06
1e-06
1e-06
1e-06
1e-06
1e-06
1e-06
1e-06
1e-06
1e-06
1.071981e-06
1e-06
1e-06
1e-06
1e-06
1e-06
1e-06
1e-06
1e-06
1e-06
1e-06
1e-06
1e-06
1e-06
1e-06
1e-06
1e-06
1e-06
1.079031e-06
1e-06
1e-06
1e-06
1e-06
1e-06
1e-06
1e-06
1e-06
1e-06
1e-06
1e-06
1e-06
1e-06
1e-06
1e-06
1e-06
1e-06
1.08709e-06
1.000001e-06
1e-06
1e-06
1e-06
1e-06
1e-06
1e-06
1e-06
1e-06
1e-06
1e-06
1e-06
1e-06
1e-06
1e-06
1e-06
1e-06
1.122335e-06
1.000001e-06
1e-06
1e-06
1e-06
1e-06
1e-06
1e-06
1e-06
1e-06
1e-06
1e-06
1e-06
1e-06
1e-06
1e-06
1e-06
1e-06
1.13582e-06
1e-06
1e-06
1e-06
1e-06
1e-06
1e-06
1e-06
1e-06
1e-06
1e-06
1e-06
1e-06
1e-06
1e-06
1e-06
1e-06
1e-06
1.141402e-06
1.000001e-06
1e-06
1e-06
1e-06
1e-06
1e-06
1e-06
1e-06
1e-06
1e-06
1e-06
1e-06
1e-06
1e-06
1e-06
1e-06
1e-06
1.149803e-06
1.000001e-06
1e-06
1e-06
1e-06
1e-06
1e-06
1e-06
1e-06
1e-06
1e-06
1e-06
1e-06
1e-06
1e-06
1e-06
1e-06
1e-06
1.160878e-06
1.000002e-06
1e-06
1e-06
1e-06
1e-06
1e-06
1e-06
1e-06
1e-06
1e-06
1e-06
1e-06
1e-06
1e-06
1e-06
1e-06
1e-06
1.172245e-06
1.000002e-06
1e-06
1e-06
1e-06
1e-06
1e-06
1e-06
1e-06
1e-06
1e-06
1e-06
1e-06
1e-06
1e-06
1e-06
1e-06
1e-06
1.183843e-06
1.000002e-06
1e-06
1e-06
1e-06
1e-06
1e-06
1e-06
1e-06
1e-06
1e-06
1e-06
1e-06
1e-06
1e-06
1e-06
1e-06
1e-06
1.196057e-06
1.000003e-06
1e-06
1e-06
1e-06
1e-06
1e-06
1e-06
1e-06
1e-06
1e-06
1e-06
1e-06
1e-06
1e-06
1e-06
1e-06
1e-06
1.209204e-06
1.000004e-06
1e-06
1e-06
1e-06
1e-06
1e-06
1e-06
1e-06
1e-06
1e-06
1e-06
1e-06
1e-06
1e-06
1e-06
1e-06
1e-06
1.223249e-06
1.000005e-06
1e-06
1e-06
1e-06
1e-06
1e-06
1e-06
1e-06
1e-06
1e-06
1e-06
1e-06
1e-06
1e-06
1e-06
1e-06
1e-06
1.238576e-06
1.000006e-06
1e-06
1e-06
1e-06
1e-06
1e-06
1e-06
1e-06
1e-06
1e-06
1e-06
1e-06
1e-06
1e-06
1e-06
1e-06
1e-06
1.254761e-06
1.000007e-06
1e-06
1e-06
1e-06
1e-06
1e-06
1e-06
1e-06
1e-06
1e-06
1e-06
1e-06
1e-06
1e-06
1e-06
1e-06
1e-06
1.272404e-06
1.000009e-06
1e-06
1e-06
1e-06
1e-06
1e-06
1e-06
1e-06
1e-06
1e-06
1e-06
1e-06
1e-06
1e-06
1e-06
1e-06
1e-06
1.29155e-06
1.000011e-06
1e-06
1e-06
1e-06
1e-06
1e-06
1e-06
1e-06
1e-06
1e-06
1e-06
1e-06
1e-06
1e-06
1e-06
1e-06
1e-06
1.311969e-06
1.000014e-06
1e-06
1e-06
1e-06
1e-06
1e-06
1e-06
1e-06
1e-06
1e-06
1e-06
1e-06
1e-06
1e-06
1e-06
1e-06
1e-06
1.334518e-06
1.000017e-06
1e-06
1e-06
1e-06
1e-06
1e-06
1e-06
1e-06
1e-06
1e-06
1e-06
1e-06
1e-06
1e-06
1e-06
1e-06
1e-06
1.358844e-06
1.000021e-06
1e-06
1e-06
1e-06
1e-06
1e-06
1e-06
1e-06
1e-06
1e-06
1e-06
1e-06
1e-06
1e-06
1e-06
1e-06
1e-06
1.384949e-06
1.000025e-06
1e-06
1e-06
1e-06
1e-06
1e-06
1e-06
1e-06
1e-06
1e-06
1e-06
1e-06
1e-06
1e-06
1e-06
1e-06
1e-06
1.414094e-06
1.000029e-06
1e-06
1e-06
1e-06
1e-06
1e-06
1e-06
1e-06
1e-06
1e-06
1e-06
1e-06
1e-06
1e-06
1e-06
1e-06
1e-06
1.448028e-06
1.00003e-06
1e-06
1e-06
1e-06
1e-06
1e-06
1e-06
1e-06
1e-06
1e-06
1e-06
1e-06
1e-06
1e-06
1e-06
1e-06
1e-06
1.549454e-06
1.000055e-06
1e-06
1e-06
1e-06
1e-06
1e-06
1e-06
1e-06
1e-06
1e-06
1e-06
1e-06
1e-06
1e-06
1e-06
1e-06
1e-06
1.603343e-06
1.000075e-06
1e-06
1e-06
1e-06
1e-06
1e-06
1e-06
1e-06
1e-06
1e-06
1e-06
1e-06
1e-06
1e-06
1e-06
1e-06
1e-06
1.680419e-06
1.000087e-06
1e-06
1e-06
1e-06
1e-06
1e-06
1e-06
1e-06
1e-06
1e-06
1e-06
1e-06
1e-06
1e-06
1e-06
1e-06
1e-06
2.579971e-06
1.000159e-06
1e-06
1e-06
1e-06
1e-06
1e-06
1e-06
1e-06
1e-06
1e-06
1e-06
1e-06
1e-06
1e-06
1e-06
1e-06
1e-06
4.949088e-06
1.000301e-06
1e-06
1e-06
1e-06
1e-06
1e-06
1e-06
1e-06
1e-06
1e-06
1e-06
1e-06
1e-06
1e-06
1e-06
1e-06
1e-06
9.670933e-06
1.000271e-06
1e-06
1e-06
1e-06
1e-06
1e-06
1e-06
1e-06
1e-06
1e-06
1e-06
1e-06
1e-06
1e-06
1e-06
1e-06
1e-06
1.570594e-05
1.004805e-06
1.000001e-06
1e-06
1e-06
1e-06
1e-06
1e-06
1e-06
1e-06
1e-06
1e-06
1e-06
1e-06
1e-06
1e-06
1e-06
1e-06
1.761181e-05
1.003862e-06
1.000001e-06
1e-06
1e-06
1e-06
1e-06
1e-06
1e-06
1e-06
1e-06
1e-06
1e-06
1e-06
1e-06
1e-06
1e-06
1e-06
1.894733e-05
1.001882e-06
1e-06
1e-06
1e-06
1e-06
1e-06
1e-06
1e-06
1e-06
1e-06
1e-06
1e-06
1e-06
1e-06
1e-06
1e-06
1e-06
2.057898e-05
1.001426e-06
1e-06
1e-06
1e-06
1e-06
1e-06
1e-06
1e-06
1e-06
1e-06
1e-06
1e-06
1e-06
1e-06
1e-06
1e-06
1e-06
2.273735e-05
1.00203e-06
1e-06
1e-06
1e-06
1e-06
1e-06
1e-06
1e-06
1e-06
1e-06
1e-06
1e-06
1e-06
1e-06
1e-06
1e-06
1e-06
2.446899e-05
1.001923e-06
1e-06
1e-06
1e-06
1e-06
1e-06
1e-06
1e-06
1e-06
1e-06
1e-06
1e-06
1e-06
1e-06
1e-06
1e-06
1e-06
2.733006e-05
1.000573e-06
1.000001e-06
1e-06
1e-06
1e-06
1e-06
1e-06
1e-06
1e-06
1e-06
1e-06
1e-06
1e-06
1e-06
1e-06
1e-06
1e-06
2.929076e-05
1.055667e-06
1.000039e-06
1e-06
1e-06
1e-06
1e-06
1e-06
1e-06
1e-06
1e-06
1e-06
1e-06
1e-06
1e-06
1e-06
1e-06
1e-06
3.151746e-05
1.213127e-06
1.000179e-06
1e-06
1e-06
1e-06
1e-06
1e-06
1e-06
1e-06
1e-06
1e-06
1e-06
1e-06
1e-06
1e-06
1e-06
1e-06
3.468202e-05
1.535949e-06
1.001213e-06
1.000006e-06
1e-06
1e-06
1e-06
1e-06
1e-06
1e-06
1e-06
1e-06
1e-06
1e-06
3.412746e-05
1.434312e-05
1e-06
1e-06
1e-06
1e-06
1e-06
1e-06
1e-06
1e-06
3.121005e-05
1e-06
1e-06
1e-06
1e-06
1e-06
1e-06
1e-06
1e-06
1e-06
1e-06
1e-06
1e-06
1e-06
1e-06
1e-06
1e-06
1e-06
1e-06
1e-06
1e-06
1e-06
1e-06
1e-06
1e-06
1e-06
1e-06
1e-06
1e-06
1e-06
1e-06
1e-06
1e-06
1e-06
1e-06
1e-06
1e-06
1e-06
1e-06
1e-06
1e-06
1e-06
1e-06
1e-06
1e-06
1e-06
1e-06
1e-06
1e-06
1e-06
3.232737e-05
1e-06
1e-06
1e-06
1e-06
1e-06
1e-06
3.340982e-05
2.112808e-05
1e-06
1e-06
1e-06
1e-06
1e-06
1e-06
1e-06
3.45114e-05
2.10168e-06
1.002586e-06
1e-06
1e-06
1e-06
1e-06
1e-06
1e-06
1e-06
1e-06
1e-06
3.367967e-05
1.305371e-06
1.00026e-06
1.000001e-06
1e-06
1e-06
1e-06
1e-06
1e-06
1e-06
1e-06
1e-06
1e-06
1e-06
1e-06
1e-06
1e-06
1e-06
2.934416e-05
1.119667e-06
1.000049e-06
1e-06
1e-06
1e-06
1e-06
1e-06
1e-06
1e-06
1e-06
1e-06
1e-06
1e-06
1e-06
1e-06
1e-06
1e-06
2.742026e-05
1.00964e-06
1.000006e-06
1e-06
1e-06
1e-06
1e-06
1e-06
1e-06
1e-06
1e-06
1e-06
1e-06
1e-06
1e-06
1e-06
1e-06
1e-06
2.591173e-05
1.001295e-06
1e-06
1e-06
1e-06
1e-06
1e-06
1e-06
1e-06
1e-06
1e-06
1e-06
1e-06
1e-06
1e-06
1e-06
1e-06
1e-06
2.263963e-05
1.001696e-06
1e-06
1e-06
1e-06
1e-06
1e-06
1e-06
1e-06
1e-06
1e-06
1e-06
1e-06
1e-06
1e-06
1e-06
1e-06
1e-06
2.203376e-05
1.001419e-06
1e-06
1e-06
1e-06
1e-06
1e-06
1e-06
1e-06
1e-06
1e-06
1e-06
1e-06
1e-06
1e-06
1e-06
1e-06
1e-06
2.078239e-05
1.001254e-06
1e-06
1e-06
1e-06
1e-06
1e-06
1e-06
1e-06
1e-06
1e-06
1e-06
1e-06
1e-06
1e-06
1e-06
1e-06
1e-06
1.901339e-05
1.002193e-06
1e-06
1e-06
1e-06
1e-06
1e-06
1e-06
1e-06
1e-06
1e-06
1e-06
1e-06
1e-06
1e-06
1e-06
1e-06
1e-06
1.729488e-05
1.003416e-06
1e-06
1e-06
1e-06
1e-06
1e-06
1e-06
1e-06
1e-06
1e-06
1e-06
1e-06
1e-06
1e-06
1e-06
1e-06
1e-06
1.527017e-05
1.004014e-06
1e-06
1e-06
1e-06
1e-06
1e-06
1e-06
1e-06
1e-06
1e-06
1e-06
1e-06
1e-06
1e-06
1e-06
1e-06
1e-06
7.64747e-06
1.000412e-06
1e-06
1e-06
1e-06
1e-06
1e-06
1e-06
1e-06
1e-06
1e-06
1e-06
1e-06
1e-06
1e-06
1e-06
1e-06
1e-06
5.322863e-06
1e-06
1e-06
1e-06
1e-06
1e-06
1e-06
1e-06
1e-06
1e-06
1e-06
1e-06
1e-06
1e-06
1e-06
1e-06
1e-06
1e-06
1.940393e-06
1.000104e-06
1e-06
1e-06
1e-06
1e-06
1e-06
1e-06
1e-06
1e-06
1e-06
1e-06
1e-06
1e-06
1e-06
1e-06
1e-06
1e-06
1.746631e-06
1.000091e-06
1e-06
1e-06
1e-06
1e-06
1e-06
1e-06
1e-06
1e-06
1e-06
1e-06
1e-06
1e-06
1e-06
1e-06
1e-06
1e-06
1.631804e-06
1.00007e-06
1e-06
1e-06
1e-06
1e-06
1e-06
1e-06
1e-06
1e-06
1e-06
1e-06
1e-06
1e-06
1e-06
1e-06
1e-06
1e-06
1.517744e-06
1.000049e-06
1e-06
1e-06
1e-06
1e-06
1e-06
1e-06
1e-06
1e-06
1e-06
1e-06
1e-06
1e-06
1e-06
1e-06
1e-06
1e-06
1.433295e-06
1.000022e-06
1e-06
1e-06
1e-06
1e-06
1e-06
1e-06
1e-06
1e-06
1e-06
1e-06
1e-06
1e-06
1e-06
1e-06
1e-06
1e-06
1.401597e-06
1.000024e-06
1e-06
1e-06
1e-06
1e-06
1e-06
1e-06
1e-06
1e-06
1e-06
1e-06
1e-06
1e-06
1e-06
1e-06
1e-06
1e-06
1.373642e-06
1.000021e-06
1e-06
1e-06
1e-06
1e-06
1e-06
1e-06
1e-06
1e-06
1e-06
1e-06
1e-06
1e-06
1e-06
1e-06