/*--------------------------------*- C++ -*----------------------------------*\
| =========                 |                                                 |
| \\      /  F ield         | OpenFOAM: The Open Source CFD Toolbox           |
|  \\    /   O peration     | Version:  2206                                  |
|   \\  /    A nd           | Website:  www.openfoam.com                      |
|    \\/     M anipulation  |                                                 |
\*---------------------------------------------------------------------------*/
FoamFile
{
    version     2.0;
    format      ascii;
    arch        "LSB;label=32;scalar=64";
    class       volScalarField;
    location    "1.2";
    object      nuFra;
}
// * * * * * * * * * * * * * * * * * * * * * * * * * * * * * * * * * * * * * //

dimensions      [0 2 -1 0 0 0 0];

internalField   nonuniform List<scalar> 
13078
(
51.66584
41.46697
100
100
100
100
100
29.89209
100
100
100
100
100
100
100
100
100
100
100
100
100
100
100
100
100
100
100
100
100
100
100
100
100
100
100
100
100
100
100
100
100
100
100
100
100
100
100
100
100
100
100
100
100
100
100
100
100
100
100
100
100
100
100
100
100
100
100
100
100
100
100
100
100
100
100
100
100
100
100
100
100
100
100
100
100
100
100
100
100
100
100
100
100
100
100
100
100
100
100
100
100
100
100
100
100
100
100
100
100
100
100
100
100
100
100
100
100
100
100
100
100
100
100
100
100
100
100
100
100
100
100
100
100
100
100
100
100
100
100
100
100
100
100
100
100
100
100
100
100
100
100
100
100
100
100
100
100
100
100
100
100
100
100
100
100
100
100
100
100
100
100
100
100
100
100
100
100
100
100
100
100
100
100
100
100
100
100
100
100
100
100
100
100
100
100
100
100
100
100
100
100
100
100
100
100
100
100
100
100
100
100
100
100
100
100
100
100
100
100
100
100
100
100
100
100
100
100
100
100
100
100
100
100
100
100
100
100
100
100
100
100
100
100
100
100
100
100
100
100
100
100
100
100
100
100
100
100
100
100
100
100
100
100
100
100
100
100
100
100
100
100
100
100
100
100
100
100
100
100
82.45393
100
100
100
100
100
70.50498
38.08877
100
100
100
100
65.54127
31.04175
16.44443
100
100
100
63.38252
28.59131
14.55044
8.96851
100
100
66.087
30.06514
14.27768
8.521615
6.345358
100
74.09912
33.6224
15.80662
9.260049
6.553725
5.237545
93.2002
40.42262
18.54437
10.27014
7.347047
6.165792
5.084675
53.75533
23.11375
12.41738
8.281076
6.751474
6.218014
5.645979
30.75538
15.17821
9.744714
7.801385
6.933444
6.677845
6.023629
19.34524
11.40178
8.732772
7.852522
7.660655
7.583464
6.737817
13.48873
9.605334
8.579475
8.414637
8.323897
8.064328
7.496301
10.26904
8.726734
8.94351
9.274771
8.650253
7.539478
6.56319
8.411818
8.238292
9.455184
9.954101
8.555877
6.717042
5.431055
7.32486
7.783264
9.523825
9.904488
7.855802
5.767298
4.50674
6.733197
7.439816
9.349413
9.487341
7.153806
5.091442
3.983873
6.430567
7.190556
9.06699
8.949226
6.517035
4.517136
3.442558
6.288461
7.068788
8.877792
8.583209
6.10208
4.124755
2.989103
6.298671
7.130318
8.989252
8.645625
6.013044
3.964061
2.809474
6.464718
7.324472
9.25771
8.94828
6.185827
4.127793
3.090194
6.819594
7.583921
9.40859
9.193347
6.603932
4.721499
3.881591
7.514364
7.902156
9.336023
9.258241
7.201136
5.623798
4.924642
8.786975
8.342893
9.038578
8.999424
7.737671
6.637073
6.080284
10.97099
8.88688
8.533494
8.330123
7.688237
7.09799
6.677285
14.81912
9.975632
8.366898
7.739869
7.388909
7.13122
6.7006
21.96952
12.26619
8.848556
7.505031
6.986476
6.700174
5.781498
36.06935
17.10303
10.39855
7.834327
6.599636
6.088904
5.285455
64.01662
27.39046
14.11427
8.847035
6.786132
5.962603
5.207763
100
49.64411
22.54202
11.83314
7.914472
6.249606
5.024572
100
88.01843
42.72542
19.67461
10.8153
7.194198
5.502779
100
100
80.73854
39.15416
18.1853
10.2104
7.044189
100
100
100
78.38745
37.96454
18.7781
10.74699
100
100
100
100
80.75969
40.92819
20.91343
100
100
100
100
100
84.80978
48.96229
100
100
100
100
100
100
95.21183
100
100
100
100
100
100
100
100
100
100
100
100
100
100
100
100
100
100
100
100
100
100
100
100
100
100
100
100
100
100
100
100
100
100
100
100
100
100
100
100
100
100
100
100
100
100
100
100
100
100
100
100
100
100
100
100
100
100
100
100
100
100
100
100
100
100
100
100
100
100
100
100
100
100
100
100
100
100
100
100
100
100
100
100
100
100
100
100
100
100
100
100
100
100
100
100
100
100
100
100
100
100
100
100
100
100
100
100
100
100
100
100
100
100
100
100
100
100
100
100
100
100
100
100
100
100
100
100
100
100
100
100
100
100
100
100
100
100
100
100
100
100
100
100
100
100
100
100
100
100
100
100
100
100
100
100
100
100
100
100
100
100
100
100
100
100
100
100
100
100
100
100
100
100
100
100
100
100
100
100
100
100
100
100
100
100
100
100
100
100
100
100
100
100
100
100
100
100
100
100
100
100
100
100
100
100
100
100
100
100
100
100
100
100
100
100
100
100
100
100
100
100
100
100
100
100
100
100
100
100
100
100
100
100
100
100
100
100
100
100
100
100
100
100
100
100
100
100
100
100
100
100
100
100
100
100
100
100
100
100
100
100
100
100
100
100
30.75007
100
100
100
100
100
100
100
100
100
100
100
100
100
100
100
100
100
100
100
100
100
100
100
100
100
100
100
100
100
100
100
100
100
100
100
100
100
100
100
100
100
100
100
100
100
100
100
100
100
100
100
100
100
100
100
100
100
100
100
100
100
100
100
100
100
100
100
100
100
100
100
100
100
100
100
100
100
100
100
100
100
100
100
100
100
100
100
100
100
100
100
100
100
100
100
100
100
100
100
100
100
100
100
100
100
100
100
100
100
100
100
100
100
100
100
100
100
100
100
100
100
100
100
100
100
100
100
100
100
100
100
100
100
100
100
100
100
100
100
100
100
100
100
100
100
100
100
100
100
100
100
100
100
100
100
100
100
100
100
100
100
100
100
100
100
100
100
100
100
100
100
100
100
100
100
100
100
100
100
100
100
100
100
100
100
100
100
100
100
100
100
100
100
100
91.43217
100
100
100
100
100
100
76.15274
100
100
100
100
100
100
66.13777
100
100
100
100
100
100
58.64953
100
100
100
100
100
100
50.54692
100
100
100
100
100
100
45.25759
100
100
100
100
100
100
37.65919
100
100
100
100
100
100
37.75051
100
100
100
100
100
100
44.61134
100
100
100
100
100
100
5.290593
100
100
100
100
100
100
100
100
100
100
100
100
82.60133
9.280398
100
100
100
100
97.63329
19.21558
2.215559
50.45015
52.08468
39.33869
36.55454
20.3094
2.039512
3.163662
20.46435
18.95497
13.39513
11.82896
3.037799
0.8766104
0.3812836
9.815912
8.639802
7.077467
4.778139
0.8609806
0.5398639
0.1568809
6.070167
5.50204
4.399389
2.198132
0.3883686
0.382411
0.09558901
4.523095
4.155497
3.094469
1.049648
0.2268973
0.2541587
0.13532
3.986221
3.482171
2.259325
0.4233623
0.2551051
0.3403392
0.1269371
3.756173
3.345025
1.155185
0.2505404
0.3306801
0.6366176
0.5491289
3.944592
3.450723
0.4896753
0.1862291
0.3216782
0.3915385
0.3561622
4.113382
3.292744
0.3890029
0.1492069
0.1974666
0.2216567
0.1434791
4.388973
3.69228
0.3926287
0.1261439
0.1519699
0.1853681
0.1639681
4.91899
4.373145
0.2911014
0.1153005
0.08146166
0.08999155
0.07957039
3.39637
2.920936
0.1331368
0.07248984
0.09455538
0.1918948
0.2317257
1.62468
0.4421837
0.08408841
0.1069309
0.3449196
0.1897924
0.04718355
1.394337
0.3006435
0.09326528
0.1565993
0.3254302
0.09877438
0.06340436
1.80261
0.4915884
0.1555245
0.1423473
0.2469282
0.3823346
0.07971902
1.900396
0.8809099
0.3879513
0.2854808
0.2028001
1.690585
0.03267303
1.573467
0.7889387
0.5040425
0.4874933
0.8849685
0.5055443
1.336031
0.6323567
0.4590995
0.2978658
1.564684
0.3213515
1.382655
0.5907313
0.2872344
0.2205578
0.2668887
5.581492
1.473347
0.431598
0.1469943
0.1864117
0.25833
0.1871001
0.04732976
1.572201
0.3089342
0.1154483
0.1409235
0.4811606
0.08678717
0.06404932
2.227103
0.4055442
0.1134591
0.1361854
0.3422076
0.3118715
0.0855642
3.776636
1.318806
0.1452521
0.1078273
0.1672333
0.189629
0.1061362
4.495306
4.050697
0.2558508
0.0784478
0.08812154
0.1040213
0.05856508
3.977212
3.555945
0.4443379
0.1030922
0.09546924
0.09863377
0.1057304
3.740893
3.034351
0.6368264
0.1387383
0.1223638
0.1453458
0.8458032
3.62982
2.875263
0.7735948
0.1544372
0.1654271
0.2082417
0.4851741
3.678005
2.887995
1.124304
0.1882661
0.158844
0.3528189
0.06879317
4.088028
3.061604
1.965383
0.3170411
0.1915837
0.1868314
0.0653039
4.835104
3.424634
3.124083
1.2665
0.3827165
0.3188759
0.186888
6.836595
4.495136
4.17459
2.756421
1.164599
0.9917998
0.7505116
11.68671
6.799054
6.311803
4.851312
1.459715
0.9670809
0.2555512
25.51497
12.86036
10.49092
8.475315
2.770109
0.8667962
0.3383208
61.2668
35.41448
24.37364
19.40311
10.45064
1.332787
0.5039352
100
87.76615
79.85672
68.89559
49.5738
6.534661
1.70968
100
100
100
100
100
50.93001
3.418772
100
100
100
100
100
100
100
100
100
100
100
100
100
59.68498
100
100
100
100
100
86.9227
27.28686
100
100
100
100
100
87.26682
36.9528
100
100
100
100
100
91.68696
26.55584
100
100
100
100
100
100
39.18942
100
100
100
100
100
100
44.16873
100
100
100
100
100
100
52.5816
100
100
100
100
100
100
59.63938
100
100
100
100
100
100
67.92954
100
100
100
100
100
100
79.58668
100
100
100
100
100
100
97.03798
100
100
100
100
100
100
100
100
100
100
100
100
100
100
100
100
100
100
100
100
100
100
100
100
100
100
100
100
100
100
100
100
100
100
100
100
100
100
100
100
100
100
100
100
100
100
100
100
100
100
100
100
100
100
100
100
100
100
100
100
100
100
100
100
100
100
100
100
100
100
100
100
100
100
100
100
100
100
100
100
100
100
100
100
100
100
100
100
100
100
100
100
100
100
100
100
100
100
100
100
100
100
100
100
100
100
100
100
100
100
100
100
100
100
100
100
100
100
100
100
100
100
100
100
100
100
100
100
100
100
100
100
100
100
100
100
100
100
100
100
100
100
100
100
100
100
100
100
100
100
100
100
100
100
100
100
100
100
100
100
100
100
100
100
100
100
100
100
100
100
100
100
100
100
100
8.577959e-11
1.18867e-09
3.834597e-09
8.814411e-09
1.713825e-08
3.717927e-08
9.658825e-08
1.504883e-07
1.685981e-07
1.426371e-07
1.242112e-07
1.10744e-07
1.006151e-07
9.280067e-08
8.661854e-08
8.161796e-08
7.761067e-08
7.430179e-08
9.414131e-11
5.342955e-09
5.707506e-09
9.994415e-09
1.855778e-08
4.060978e-08
1.150111e-07
2.273529e-07
1.700325e-07
1.416031e-07
1.237944e-07
1.106205e-07
1.007253e-07
9.297906e-08
8.681689e-08
8.188762e-08
7.786147e-08
7.457762e-08
9.592918e-11
6.017705e-09
8.856206e-09
1.403656e-08
2.493804e-08
5.52116e-08
1.738652e-07
2.776539e-07
1.750038e-07
1.366856e-07
1.207865e-07
1.088421e-07
9.953868e-08
9.221034e-08
8.631043e-08
8.156147e-08
7.763268e-08
7.439843e-08
9.635623e-11
8.930962e-09
1.078166e-08
1.780939e-08
3.488848e-08
8.23319e-08
1.923193e-07
2.440816e-07
1.790827e-07
1.357762e-07
1.161867e-07
1.055883e-07
9.732864e-08
9.059647e-08
8.522013e-08
8.064478e-08
7.692547e-08
7.385363e-08
9.653037e-11
1.135983e-08
1.338814e-08
1.960566e-08
3.418999e-08
6.937427e-08
1.436368e-07
2.622635e-07
1.958659e-07
1.326508e-07
1.093915e-07
1.01348e-07
9.428411e-08
8.8346e-08
8.378445e-08
7.906624e-08
7.583313e-08
7.299019e-08
9.662845e-11
1.177907e-08
1.577395e-08
2.030609e-08
3.168518e-08
5.862434e-08
1.097314e-07
1.954473e-07
1.73382e-07
1.351978e-07
1.043099e-07
9.672311e-08
9.074441e-08
8.566752e-08
8.174461e-08
7.715274e-08
7.446578e-08
7.181003e-08
9.669345e-11
1.15456e-08
1.765637e-08
2.055382e-08
2.966199e-08
5.156308e-08
9.167806e-08
1.810635e-07
1.675943e-07
1.262171e-07
1.003333e-07
9.183818e-08
8.684615e-08
8.25537e-08
7.949606e-08
7.493032e-08
7.27783e-08
7.039722e-08
9.674876e-11
1.120091e-08
1.902926e-08
2.062578e-08
2.816254e-08
4.68243e-08
8.135791e-08
1.412001e-07
1.448271e-07
1.285586e-07
9.519878e-08
8.656783e-08
8.275807e-08
7.924284e-08
7.698317e-08
7.250454e-08
7.088199e-08
6.878504e-08
9.681073e-11
1.087491e-08
2.003272e-08
2.066945e-08
2.715915e-08
4.363806e-08
7.547251e-08
1.14432e-07
1.377894e-07
1.147192e-07
9.318464e-08
8.164608e-08
7.872706e-08
7.59058e-08
7.425001e-08
7.000411e-08
6.883837e-08
6.703961e-08
9.688572e-11
1.055347e-08
2.085832e-08
2.074907e-08
2.667311e-08
4.163097e-08
7.067023e-08
9.800788e-08
1.229897e-07
1.025323e-07
9.229565e-08
7.720166e-08
7.488893e-08
7.259609e-08
7.147625e-08
6.746943e-08
6.669788e-08
6.515701e-08
9.697713e-11
1.025661e-08
2.160732e-08
2.094122e-08
2.668926e-08
4.063854e-08
6.7506e-08
9.253796e-08
1.069559e-07
9.750079e-08
9.027589e-08
7.446586e-08
7.124204e-08
6.933842e-08
6.873438e-08
6.485538e-08
6.448779e-08
6.320915e-08
9.70946e-11
9.830016e-09
2.196138e-08
2.112823e-08
2.724841e-08
4.070666e-08
6.605577e-08
9.038237e-08
9.697672e-08
9.205455e-08
8.919322e-08
7.163539e-08
6.759657e-08
6.619348e-08
6.593801e-08
6.235526e-08
6.225222e-08
6.12118e-08
9.723866e-11
8.684553e-09
1.977158e-08
2.086719e-08
2.827337e-08
4.202311e-08
6.664328e-08
8.859029e-08
9.1495e-08
8.510419e-08
8.241973e-08
7.180257e-08
6.428954e-08
6.317575e-08
6.326176e-08
5.97995e-08
6.003045e-08
5.919484e-08
9.750874e-11
6.153639e-09
1.288385e-08
1.892822e-08
2.947509e-08
4.509305e-08
7.020316e-08
8.846393e-08
8.637215e-08
7.849135e-08
8.2567e-08
6.962444e-08
6.151943e-08
6.027154e-08
6.065231e-08
5.731404e-08
5.781423e-08
5.716388e-08
9.911816e-11
3.239889e-09
7.312115e-09
1.226543e-08
2.463926e-08
5.135275e-08
7.819214e-08
9.032769e-08
8.211115e-08
7.542014e-08
7.52419e-08
6.958231e-08
5.906055e-08
5.74824e-08
5.807282e-08
5.493791e-08
5.560642e-08
5.513597e-08
9.701614e-11
2.19597e-09
6.170932e-09
9.799052e-09
1.4453e-08
3.789011e-08
8.75587e-08
8.959775e-08
7.838799e-08
7.108734e-08
7.383161e-08
6.38963e-08
5.710683e-08
5.481246e-08
5.557085e-08
5.260902e-08
5.343967e-08
5.312436e-08
9.342206e-11
2.856724e-09
7.286221e-09
1.021278e-08
1.22989e-08
2.032191e-08
5.26238e-08
8.192746e-08
7.413998e-08
6.666327e-08
6.545987e-08
6.343398e-08
5.546058e-08
5.222021e-08
5.313673e-08
5.033116e-08
5.132408e-08
5.112835e-08
9.255122e-11
3.656088e-09
7.998095e-09
1.088631e-08
1.162458e-08
1.618732e-08
2.815428e-08
6.183267e-08
6.524392e-08
6.242618e-08
6.298763e-08
5.985159e-08
5.310998e-08
4.992525e-08
5.078358e-08
4.813278e-08
4.923446e-08
4.917109e-08
9.288512e-11
4.570568e-09
9.750873e-09
1.068316e-08
1.266526e-08
1.425474e-08
2.152868e-08
4.314932e-08
6.020619e-08
5.83224e-08
5.981898e-08
5.490242e-08
5.159303e-08
4.740897e-08
4.850719e-08
4.592077e-08
4.721671e-08
4.724338e-08
9.34589e-11
5.707819e-09
1.172425e-08
1.495024e-08
1.13076e-08
1.595679e-08
1.847621e-08
3.312278e-08
5.354143e-08
5.616576e-08
5.424494e-08
5.418311e-08
4.768082e-08
4.530793e-08
4.607586e-08
4.382478e-08
4.517682e-08
4.533547e-08
9.402755e-11
6.420198e-09
1.408813e-08
1.777013e-08
1.381748e-08
1.345833e-08
2.132896e-08
2.737561e-08
5.079817e-08
5.349897e-08
5.180332e-08
4.943833e-08
4.575461e-08
4.344716e-08
4.227896e-08
4.33109e-08
4.329589e-08
4.34853e-08
9.449799e-11
6.817365e-09
1.438074e-08
1.859027e-08
1.568417e-08
1.491399e-08
1.752078e-08
3.277159e-08
4.710323e-08
4.986479e-08
4.976829e-08
4.537735e-08
4.494814e-08
4.109666e-08
4.084191e-08
4.095775e-08
4.140689e-08
4.165129e-08
9.483808e-11
6.495139e-09
1.365855e-08
1.686711e-08
1.833182e-08
1.541337e-08
1.883323e-08
2.642911e-08
5.491846e-08
4.661385e-08
4.64437e-08
4.399727e-08
4.184714e-08
3.927615e-08
3.883004e-08
3.925107e-08
3.95246e-08
3.99076e-08
9.51998e-11
6.324141e-09
1.260627e-08
1.474574e-08
2.024551e-08
1.584779e-08
1.931142e-08
2.869884e-08
4.54869e-08
4.810975e-08
4.334314e-08
4.281006e-08
3.90153e-08
3.732292e-08
3.696013e-08
3.747707e-08
3.770834e-08
3.814367e-08
9.558623e-11
6.398206e-09
1.126949e-08
1.283394e-08
1.961464e-08
1.631366e-08
1.987782e-08
3.148525e-08
4.702263e-08
4.485004e-08
4.155197e-08
3.947827e-08
3.73801e-08
3.565903e-08
3.563225e-08
3.578078e-08
3.593839e-08
3.643069e-08
9.600144e-11
6.29831e-09
1.025752e-08
1.126789e-08
1.658135e-08
1.684689e-08
2.050704e-08
3.431854e-08
4.787629e-08
4.26793e-08
3.903114e-08
3.712494e-08
3.51314e-08
3.343567e-08
3.263103e-08
3.376185e-08
3.41999e-08
3.473875e-08
9.645891e-11
6.209025e-09
9.283963e-09
9.971574e-09
1.37241e-08
1.709255e-08
2.102356e-08
3.463932e-08
4.626615e-08
4.028831e-08
3.62885e-08
3.462088e-08
3.263133e-08
3.310919e-08
3.116303e-08
3.229448e-08
3.259121e-08
3.295846e-08
9.695567e-11
6.090364e-09
8.490209e-09
8.97206e-09
1.165482e-08
1.473694e-08
2.030423e-08
3.217979e-08
4.346302e-08
3.756585e-08
3.415738e-08
3.205415e-08
3.093941e-08
3.080982e-08
2.913154e-08
3.042262e-08
3.09238e-08
3.135396e-08
9.749015e-11
6.076587e-09
7.772017e-09
8.258046e-09
9.953596e-09
1.210951e-08
1.750783e-08
2.786414e-08
3.872023e-08
3.469842e-08
3.178317e-08
3.036083e-08
2.899054e-08
2.878729e-08
2.757626e-08
2.884491e-08
2.926716e-08
3.034251e-08
9.808987e-11
5.957952e-09
7.028643e-09
8.048558e-09
7.354553e-09
1.01096e-08
1.505585e-08
2.422529e-08
3.183764e-08
3.159165e-08
2.958942e-08
2.907209e-08
2.679008e-08
2.64188e-08
2.684849e-08
2.724795e-08
2.762182e-08
2.801109e-08
9.873655e-11
6.029979e-09
5.607884e-09
6.101609e-09
5.419133e-09
9.102999e-09
1.416375e-08
1.830327e-08
1.884715e-08
2.646592e-08
2.790025e-08
2.633898e-08
2.598193e-08
2.490039e-08
2.500866e-08
2.563986e-08
2.608011e-08
2.739306e-08
9.942298e-11
5.662261e-09
4.527601e-09
5.13971e-09
5.209198e-09
9.489647e-09
1.416344e-08
1.733688e-08
1.989005e-08
2.855697e-08
2.701402e-08
2.452597e-08
2.428099e-08
2.302052e-08
2.357045e-08
2.405357e-08
2.463751e-08
2.525054e-08
1.001028e-10
5.403074e-09
3.806716e-09
2.88839e-09
5.354003e-09
7.822779e-09
1.144722e-08
1.486335e-08
1.738469e-08
2.432487e-08
2.467958e-08
2.316845e-08
2.255293e-08
2.17427e-08
2.207274e-08
2.249282e-08
2.305369e-08
2.260342e-08
1.006983e-10
3.190454e-09
3.96899e-09
2.785017e-09
3.921571e-09
7.396334e-09
9.014204e-09
1.318689e-08
1.567421e-08
1.945199e-08
2.195269e-08
2.139472e-08
2.030302e-08
2.014168e-08
2.061144e-08
2.097855e-08
2.131074e-08
2.184719e-08
1.039935e-10
3.782837e-09
4.85464e-09
2.670613e-09
2.3447e-09
5.670076e-09
6.022653e-09
1.155473e-08
9.784239e-09
2.176183e-08
1.896702e-08
1.862602e-08
1.868636e-08
1.799032e-08
1.890693e-08
1.986048e-08
2.1102e-08
2.090787e-08
1.07866e-10
2.559432e-09
2.597403e-09
2.26229e-09
2.760136e-09
8.645161e-09
6.397903e-09
5.306933e-09
1.405657e-08
1.733512e-08
1.603347e-08
1.670911e-08
1.718159e-08
1.733277e-08
1.759472e-08
1.772898e-08
1.75826e-08
1.864809e-08
1.116479e-10
1.510795e-09
1.591044e-09
1.9307e-09
2.67051e-09
4.863194e-09
5.799543e-09
8.992834e-09
1.105704e-08
1.397798e-08
1.507037e-08
1.498655e-08
1.499799e-08
1.53501e-08
1.608176e-08
1.639415e-08
1.685734e-08
1.782083e-08
1.380237e-10
5.64263e-10
1.461821e-09
2.221099e-09
2.832089e-09
3.884473e-09
5.403565e-09
7.517663e-09
9.913564e-09
1.22506e-08
1.355979e-08
1.406822e-08
1.464693e-08
1.456101e-08
1.514694e-08
1.484349e-08
1.576132e-08
1.63835e-08
1.610859e-10
2.75728e-10
1.840766e-09
1.62299e-09
2.343106e-09
3.561841e-09
5.169769e-09
7.201257e-09
8.951175e-09
1.078312e-08
1.224003e-08
1.332002e-08
1.289842e-08
1.321639e-08
1.380946e-08
1.483651e-08
1.45973e-08
1.512159e-08
1.827607e-08
5.291607e-10
6.723624e-10
1.363972e-09
2.412598e-09
3.967436e-09
5.369584e-09
7.113434e-09
8.773176e-09
9.992966e-09
1.090351e-08
1.166038e-08
1.201079e-08
1.205702e-08
1.252127e-08
1.268069e-08
1.30862e-08
1.385748e-08
7.615898e-05
1.972972e-10
1.280369e-09
1.494284e-09
2.869838e-09
4.837106e-09
5.618689e-09
7.097488e-09
8.68896e-09
9.73536e-09
9.988086e-09
1.030656e-08
1.012549e-08
1.058272e-08
1.139754e-08
1.150403e-08
1.221699e-08
1.277792e-08
0.0003051858
1.565798e-10
1.802321e-09
2.66228e-09
4.424265e-09
5.548165e-09
5.425792e-09
7.142458e-09
8.590762e-09
8.870657e-09
9.106678e-09
9.501282e-09
9.688264e-09
9.33661e-09
1.023156e-08
1.050514e-08
1.115915e-08
1.181388e-08
0.0008239968
1.244125e-10
4.33428e-09
6.216781e-09
5.608585e-09
3.705361e-09
6.72085e-09
7.931652e-09
7.784829e-09
7.99358e-09
8.42673e-09
7.648288e-09
8.029955e-09
8.230655e-09
8.842138e-09
9.513339e-09
1.009575e-08
1.083239e-08
0.003823988
1.137586e-10
1.460451e-09
2.410751e-09
3.721443e-09
4.357205e-09
6.793193e-09
7.408372e-09
6.699338e-09
6.852861e-09
7.579723e-09
7.498923e-09
7.243894e-09
7.782262e-09
7.878362e-09
8.569583e-09
9.173212e-09
9.684794e-09
0.009633364
1.006852e-10
2.512378e-09
1.361091e-09
2.966248e-09
4.928519e-09
5.13044e-09
5.694388e-09
5.771747e-09
5.573121e-09
5.651851e-09
5.782428e-09
6.159917e-09
6.663256e-09
6.838337e-09
7.599647e-09
8.353192e-09
8.476495e-09
0.007230719
8.106297e-11
8.16214e-10
1.005845e-09
1.89132e-09
4.203176e-09
4.090179e-09
4.671363e-09
4.777192e-09
4.937867e-09
4.739834e-09
5.220855e-09
5.463303e-09
5.696261e-09
6.079307e-09
6.884777e-09
7.263223e-09
8.137368e-09
0.04011804
7.536424e-11
3.041284e-10
1.337822e-09
2.071933e-09
3.080167e-09
3.757788e-09
3.784174e-09
3.853186e-09
3.951721e-09
4.065412e-09
4.503238e-09
4.536892e-09
4.649313e-09
5.810159e-09
5.937201e-09
6.465316e-09
6.893462e-09
0.07141348
8.357378e-11
3.50503e-10
1.042064e-09
3.809568e-09
3.441132e-09
3.293e-09
3.127413e-09
2.968304e-09
3.044183e-09
3.482695e-09
3.508511e-09
3.639135e-09
4.589121e-09
4.568354e-09
5.286124e-09
5.902308e-09
6.463841e-09
0.04747452
1.087356e-10
1.66093e-09
1.565348e-09
2.923601e-09
3.015523e-09
2.603948e-09
3.286519e-09
1.798515e-09
2.286278e-09
2.882294e-09
2.832283e-09
3.417598e-09
3.721572e-09
3.784561e-09
4.646009e-09
4.868241e-09
5.808479e-09
0.2337232
1.494087e-10
4.072578e-10
1.152853e-09
2.15199e-09
3.034587e-09
2.126926e-09
2.189697e-09
2.683084e-09
2.716501e-09
4.230613e-09
3.69003e-09
4.920655e-09
5.112411e-09
0.1098442
5.93929e-05
1.760749e-09
1.946885e-09
2.054337e-09
2.804523e-09
3.131837e-09
3.632655e-09
4.049759e-09
4.722898e-09
0.02945484
1.399998e-09
1.664227e-09
2.39102e-09
2.558786e-09
3.189839e-09
3.73555e-09
4.260011e-09
1.413705e-09
2.037838e-09
2.547499e-09
2.904413e-09
3.349871e-09
4.076045e-09
1.749023e-09
2.103689e-09
2.712389e-09
3.220308e-09
3.717598e-09
1.606279e-09
2.142671e-09
2.620127e-09
3.004663e-09
3.572369e-09
1.722112e-09
1.867818e-09
2.371023e-09
2.924328e-09
3.461673e-09
1.537721e-09
1.931632e-09
2.380975e-09
2.872744e-09
3.408805e-09
1.648139e-09
2.024839e-09
2.349178e-09
2.883628e-09
3.412244e-09
1.663902e-09
1.902433e-09
2.454483e-09
2.970054e-09
3.426305e-09
1.450144e-09
1.892479e-09
2.403252e-09
2.444491e-09
2.933513e-09
3.658272e-09
0.0274089
1.581025e-09
1.96258e-09
2.205533e-09
2.633656e-09
3.199376e-09
3.733975e-09
0.5830196
0.001563954
1.665049e-09
1.563782e-09
2.188966e-09
2.512999e-09
3.038369e-09
3.050561e-09
3.768627e-09
0.04896637
1.741324e-10
6.226098e-10
1.312478e-09
1.552434e-09
1.728019e-09
2.241242e-09
2.006969e-09
3.068654e-09
2.958828e-09
3.943929e-09
4.149024e-09
0.1033233
1.145287e-10
1.442119e-09
7.367404e-10
1.059636e-09
1.12624e-09
1.187715e-09
1.258476e-09
1.676846e-09
1.512558e-09
1.728401e-09
2.004199e-09
2.302501e-09
2.890153e-09
2.613365e-09
3.582701e-09
3.658407e-09
4.022993e-09
0.01255961
8.113941e-11
6.028127e-10
3.981933e-09
1.418421e-09
1.491365e-09
1.48833e-09
1.592571e-09
1.730294e-09
1.86774e-09
2.053071e-09
2.353064e-09
2.299105e-09
3.185038e-09
3.326827e-09
3.621845e-09
3.954757e-09
4.749045e-09
0.01299347
8.337232e-11
3.807596e-10
2.993972e-09
1.952813e-09
1.912033e-09
1.805092e-09
1.905592e-09
2.054094e-09
2.024571e-09
2.467547e-09
2.657723e-09
3.025215e-09
2.772889e-09
3.943893e-09
3.811428e-09
4.67071e-09
4.506328e-09
0.01237396
8.434354e-11
5.545801e-10
1.855425e-09
4.719919e-09
2.489956e-09
2.248397e-09
2.235285e-09
2.320853e-09
2.561302e-09
2.642171e-09
2.951387e-09
3.011292e-09
3.863395e-09
3.552125e-09
4.408331e-09
4.564138e-09
5.705481e-09
0.0169631
8.419435e-11
1.289615e-09
2.205057e-09
3.714779e-09
2.494082e-09
2.726867e-09
2.650876e-09
2.66411e-09
2.977415e-09
3.162056e-09
3.541282e-09
3.1589e-09
4.025526e-09
4.507814e-09
4.549115e-09
5.185952e-09
5.183879e-09
0.003298459
9.594809e-11
2.61875e-09
6.274092e-09
4.067141e-09
3.17861e-09
3.170921e-09
3.062841e-09
3.070886e-09
3.249636e-09
3.101668e-09
3.804425e-09
4.097225e-09
4.010408e-09
4.787325e-09
5.193104e-09
5.464928e-09
6.313901e-09
0.004437568
1.051599e-10
1.245876e-09
6.385245e-09
4.306105e-09
3.719702e-09
3.68879e-09
3.565623e-09
3.619842e-09
3.824833e-09
3.896599e-09
4.002772e-09
4.736821e-09
4.35651e-09
5.135054e-09
5.540879e-09
6.133904e-09
6.290062e-09
0.00116687
1.203374e-10
1.741004e-09
2.325152e-09
3.192812e-09
5.571392e-09
4.169148e-09
4.182378e-09
4.37695e-09
4.330024e-09
4.594434e-09
4.435718e-09
4.975901e-09
5.182363e-09
5.80254e-09
6.167242e-09
6.554161e-09
7.300563e-09
0.0002552656
1.776062e-10
7.008392e-10
1.192107e-09
2.216448e-09
3.316856e-09
4.913913e-09
4.991618e-09
5.003531e-09
4.962582e-09
5.27007e-09
5.088005e-09
5.41611e-09
5.998736e-09
6.214996e-09
6.629036e-09
7.126125e-09
7.710278e-09
5.544202e-05
2.123205e-10
9.167472e-10
1.234284e-09
1.973843e-09
2.847242e-09
4.070463e-09
4.876225e-09
5.309179e-09
5.575157e-09
5.899478e-09
5.643763e-09
6.025587e-09
6.469486e-09
6.423182e-09
7.496856e-09
7.973792e-09
8.824092e-09
1.778267e-10
2.832192e-10
1.154188e-09
1.548283e-09
1.924026e-09
2.540641e-09
3.506701e-09
4.6215e-09
5.491973e-09
6.07511e-09
6.423384e-09
6.445012e-09
6.67e-09
7.057856e-09
7.685949e-09
7.785501e-09
9.06472e-09
9.847177e-09
1.811494e-10
2.388918e-10
1.123243e-09
1.324969e-09
1.757322e-09
2.330418e-09
3.156922e-09
4.305262e-09
5.330392e-09
6.287425e-09
6.965887e-09
7.218665e-09
7.325039e-09
7.987082e-09
9.085973e-09
9.046042e-09
9.914051e-09
1.065685e-08
1.256297e-10
6.314624e-10
1.059316e-09
1.55498e-09
1.926247e-09
2.452115e-09
3.181892e-09
4.42108e-09
5.160569e-09
6.311959e-09
7.087029e-09
8.246831e-09
8.518917e-09
9.01574e-09
9.619563e-09
1.059968e-08
1.045381e-08
1.153477e-08
1.174009e-10
1.038539e-09
1.272308e-09
1.686199e-09
2.015803e-09
2.820384e-09
3.335017e-09
5.691505e-09
4.963547e-09
6.213559e-09
7.663348e-09
8.514711e-09
8.936281e-09
9.617654e-09
1.028853e-08
1.122677e-08
1.188654e-08
1.240963e-08
1.107408e-10
1.058266e-09
1.741856e-09
1.928289e-09
1.759523e-09
4.093365e-09
3.957434e-09
4.247515e-09
7.373127e-09
6.662949e-09
8.125665e-09
9.279598e-09
1.026978e-08
1.067376e-08
1.122133e-08
1.184346e-08
1.151197e-08
1.30257e-08
1.062265e-10
1.225518e-09
2.588527e-09
1.577379e-09
2.896203e-09
3.851819e-09
4.075771e-09
4.931527e-09
5.678253e-09
7.450721e-09
8.917271e-09
1.001303e-08
1.096064e-08
1.143066e-08
1.212668e-08
1.293609e-08
1.440481e-08
1.379442e-08
1.02413e-10
1.2406e-09
2.615647e-09
1.964043e-09
4.534255e-09
4.359191e-09
4.751915e-09
5.627713e-09
6.429166e-09
7.649257e-09
9.322896e-09
1.062011e-08
1.181778e-08
1.246355e-08
1.313094e-08
1.375999e-08
1.511817e-08
1.533237e-08
1.013264e-10
1.822674e-09
2.428888e-09
3.162707e-09
4.811303e-09
5.039655e-09
5.588581e-09
6.324809e-09
6.741524e-09
8.640488e-09
1.005462e-08
1.137956e-08
1.295201e-08
1.322747e-08
1.425095e-08
1.489136e-08
1.577307e-08
1.568758e-08
1.003426e-10
2.289914e-09
3.086983e-09
4.728812e-09
5.874347e-09
5.416541e-09
6.575469e-09
6.796446e-09
8.589777e-09
9.485259e-09
1.090991e-08
1.234749e-08
1.383705e-08
1.451633e-08
1.533714e-08
1.604611e-08
1.684576e-08
1.79897e-08
9.947911e-11
2.561112e-09
4.214132e-09
7.605246e-09
3.794281e-09
8.15433e-09
7.991104e-09
7.752735e-09
1.063505e-08
1.041052e-08
1.194686e-08
1.344085e-08
1.487686e-08
1.574862e-08
1.656809e-08
1.723144e-08
1.805287e-08
1.934912e-08
9.870125e-11
2.820042e-09
5.2788e-09
6.294916e-09
4.898643e-09
8.796669e-09
9.459841e-09
9.465646e-09
1.096795e-08
1.180035e-08
1.316518e-08
1.462524e-08
1.616319e-08
1.693316e-08
1.783687e-08
1.8543e-08
1.926022e-08
2.032072e-08
9.800578e-11
2.965959e-09
5.703039e-09
5.757723e-09
7.130674e-09
1.106667e-08
1.132695e-08
1.124946e-08
1.177333e-08
1.2953e-08
1.433746e-08
1.584658e-08
1.743393e-08
1.861223e-08
1.890774e-08
1.981644e-08
2.061071e-08
2.168253e-08
9.737927e-11
3.109078e-09
6.044513e-09
5.966944e-09
1.026149e-08
1.246962e-08
1.355089e-08
1.282855e-08
1.283497e-08
1.404663e-08
1.551382e-08
1.711199e-08
1.872835e-08
2.017329e-08
2.024897e-08
2.122885e-08
2.197575e-08
2.278447e-08
9.680415e-11
3.257151e-09
6.535847e-09
6.62571e-09
1.389324e-08
1.361258e-08
1.561337e-08
1.413509e-08
1.391614e-08
1.514013e-08
1.672054e-08
1.84781e-08
2.029876e-08
2.168806e-08
2.208043e-08
2.270238e-08
2.342069e-08
2.422253e-08
9.627197e-11
3.402462e-09
7.276629e-09
7.633116e-09
1.712864e-08
1.565073e-08
1.738567e-08
1.548213e-08
1.500001e-08
1.629418e-08
1.814166e-08
1.99401e-08
2.176307e-08
2.308194e-08
2.254171e-08
2.42409e-08
2.492337e-08
2.572842e-08
9.581546e-11
3.453677e-09
7.920766e-09
9.054466e-09
1.933201e-08
1.745316e-08
1.933252e-08
1.69253e-08
1.618504e-08
1.78555e-08
1.910995e-08
2.138033e-08
2.32981e-08
2.456963e-08
2.492303e-08
2.583076e-08
2.649117e-08
2.7283e-08
9.535875e-11
3.761691e-09
9.166781e-09
1.150233e-08
2.070189e-08
1.893962e-08
2.168388e-08
1.863438e-08
1.78912e-08
1.821682e-08
2.059099e-08
2.288607e-08
2.481691e-08
2.616e-08
2.667392e-08
2.754049e-08
2.813327e-08
2.890576e-08
9.496832e-11
3.782697e-09
1.040918e-08
1.599823e-08
2.104927e-08
2.020414e-08
2.462781e-08
2.150897e-08
1.766074e-08
1.986952e-08
2.192647e-08
2.438043e-08
2.646781e-08
2.793242e-08
2.84707e-08
2.92928e-08
2.983284e-08
3.058365e-08
9.460809e-11
3.924228e-09
1.223695e-08
3.014042e-08
2.004294e-08
2.115001e-08
2.751346e-08
2.033626e-08
1.966449e-08
2.103505e-08
2.330969e-08
2.596524e-08
2.825805e-08
2.977152e-08
3.040793e-08
3.08586e-08
3.157269e-08
3.231059e-08
9.418614e-11
4.133424e-09
1.521065e-08
5.003465e-08
1.802862e-08
2.160644e-08
3.198647e-08
2.294836e-08
2.072927e-08
2.236064e-08
2.48301e-08
2.771211e-08
3.018999e-08
3.194944e-08
3.176366e-08
3.313352e-08
3.344689e-08
3.409171e-08
9.364292e-11
4.232227e-09
1.827897e-08
1.875046e-08
1.772824e-08
2.256759e-08
3.946206e-08
2.314712e-08
2.20897e-08
2.389146e-08
2.65379e-08
2.963908e-08
3.225797e-08
3.391749e-08
3.441586e-08
3.445057e-08
3.536938e-08
3.594659e-08
9.307128e-11
4.440345e-09
1.442096e-08
1.572965e-08
1.430053e-08
2.50306e-08
4.597917e-08
2.298733e-08
2.358958e-08
2.575702e-08
2.854612e-08
3.175898e-08
3.446274e-08
3.600232e-08
3.692134e-08
3.621631e-08
3.734205e-08
3.785429e-08
9.306385e-11
4.33105e-09
1.164961e-08
1.117424e-08
1.527377e-08
2.967892e-08
3.550616e-08
2.331209e-08
2.519694e-08
2.744196e-08
3.085599e-08
3.427981e-08
3.680561e-08
3.82404e-08
3.922801e-08
3.826794e-08
3.937542e-08
3.982105e-08
9.334833e-11
5.503823e-09
7.395592e-09
1.106653e-08