/*--------------------------------*- C++ -*----------------------------------*\
| =========                 |                                                 |
| \\      /  F ield         | OpenFOAM: The Open Source CFD Toolbox           |
|  \\    /   O peration     | Version:  2206                                  |
|   \\  /    A nd           | Website:  www.openfoam.com                      |
|    \\/     M anipulation  |                                                 |
\*---------------------------------------------------------------------------*/
FoamFile
{
    version     2.0;
    format      ascii;
    arch        "LSB;label=32;scalar=64";
    class       volScalarField;
    location    "1.2";
    object      omega.b_0;
}
// * * * * * * * * * * * * * * * * * * * * * * * * * * * * * * * * * * * * * //

dimensions      [0 0 -1 0 0 0 0];

internalField   nonuniform List<scalar> 
13078
(
6.495683
0.5848612
0.5233166
0.5238102
0.5250957
0.5265712
0.5282733
6.57947
0.5728652
0.5228336
0.5237425
0.5250541
0.526537
0.5282372
6.585492
0.5719574
0.5227506
0.5236673
0.5250021
0.526495
0.5281966
6.591679
0.5714033
0.5227035
0.5236114
0.5249538
0.5264525
0.5281547
6.598133
0.5712136
0.5226776
0.5235884
0.5249137
0.526412
0.5281136
6.604802
0.5711338
0.522666
0.523575
0.5248998
0.5263767
0.5280738
6.611848
0.5711421
0.5226614
0.523562
0.5248904
0.5263664
0.5280381
6.619131
0.5711963
0.52266
0.5235539
0.5248844
0.5263596
0.528029
6.626655
0.5712454
0.5226597
0.5235514
0.5248807
0.5263544
0.5280227
6.634488
0.5713158
0.5226603
0.5235498
0.5248777
0.5263501
0.5280173
6.642682
0.5714004
0.5226609
0.5235485
0.5248751
0.5263463
0.5280121
6.651186
0.5714953
0.5226612
0.5235472
0.5248728
0.5263427
0.5280074
6.660084
0.5715989
0.5226613
0.5235457
0.5248706
0.5263393
0.5280027
6.669375
0.5717103
0.5226611
0.5235436
0.5248676
0.5263356
0.5279977
6.679072
0.5718284
0.5226607
0.5235349
0.5248545
0.5263308
0.5279928
6.689206
0.5719528
0.52266
0.5235238
0.5248439
0.5263263
0.5279876
6.69983
0.5720827
0.5226593
0.5235205
0.52484
0.5263221
0.5279822
6.710875
0.5722174
0.5226585
0.5235176
0.5248363
0.5263178
0.5279766
6.722538
0.5723581
0.5226574
0.5235146
0.524832
0.5263122
0.5279707
6.734686
0.5725031
0.522656
0.5235106
0.5248172
0.5262911
0.527963
6.747501
0.5726538
0.5226546
0.5235061
0.524799
0.5262737
0.5279552
6.760849
0.5728088
0.5226532
0.5235024
0.5247927
0.5262669
0.5279482
6.77492
0.5729684
0.5226513
0.5234982
0.5247872
0.5262593
0.5279392
6.789678
0.5731325
0.5226493
0.5234938
0.5247801
0.5262368
0.5279073
6.805169
0.5733006
0.5226473
0.5234891
0.5247724
0.5262092
0.5278809
6.821431
0.5734727
0.5226447
0.5234838
0.5247653
0.5261985
0.527869
6.838694
0.5736444
0.522642
0.5234783
0.5247577
0.5261885
0.5278566
6.860783
0.5738516
0.5226396
0.5234723
0.5247493
0.5261764
0.5278216
6.889513
0.574005
0.5226358
0.5234658
0.5247401
0.5261628
0.5277782
6.964902
0.5746916
0.52264
0.5234586
0.5247302
0.5261501
0.5277601
7.077899
0.5753068
0.5226275
0.5234504
0.5247192
0.5261359
0.5277398
7.116328
0.5764719
0.5225997
0.5234392
0.5247068
0.5261202
0.5277179
7.153722
0.5779732
0.5226144
0.5234185
0.5246908
0.5261026
0.5276967
7.186842
0.5783887
0.5226074
0.5234019
0.5246724
0.5260815
0.5276726
7.221338
0.5788264
0.5225991
0.5233758
0.5246472
0.5260524
0.5276437
7.257503
0.5793335
0.5225923
0.5233307
0.5245976
0.5260094
0.5276057
7.295302
0.5799013
0.522585
0.5233077
0.524529
0.5259782
0.5275623
7.335034
0.5805259
0.5225741
0.5232837
0.5244906
0.525914
0.5275057
7.385168
0.5812082
0.5225579
0.5232502
0.5244413
0.5257828
0.5274543
7.498025
0.5827708
0.5225317
0.5231836
0.5243492
0.5256511
0.5273025
7.673725
0.5852417
0.5224239
0.5230323
0.5241468
0.5254171
0.5268711
7.748896
0.5878362
0.5222614
0.5227527
0.5238159
0.5249945
0.5261299
7.810548
0.5888695
0.5219128
0.5223567
0.5233788
0.524118
0.5250525
7.878363
0.5897863
0.5215166
0.52184
0.5226053
0.5230948
0.5239852
7.986781
0.5913742
0.5211547
0.5210752
0.521367
0.522124
0.5230486
8.166379
0.5937025
0.5205965
0.5199497
0.5201966
0.5208217
0.5219474
8.255061
0.5959856
0.5196816
0.5188993
0.5188435
0.5193662
0.5204152
8.326248
0.5958251
0.5184873
0.5177125
0.5175183
0.5181111
0.5186703
8.389866
0.5945445
0.517323
0.5163911
0.5162592
0.5167002
0.5172723
8.446411
0.5925817
0.5162479
0.5152605
0.5150511
0.5152985
0.5161899
8.527593
0.5917733
0.515456
0.5143699
0.5141023
0.5142156
0.5149457
8.756111
0.5914013
0.5145611
0.5135562
0.5133463
0.5134703
0.5137367
8.831605
0.5891546
0.513556
0.512828
0.5127555
0.5129922
0.5132439
8.860806
0.5879617
0.5128324
0.5121966
0.5122544
0.5125804
0.51305
8.873055
0.5874959
0.5122902
0.5117346
0.5118777
0.5121893
0.5125852
8.870542
0.5867663
0.5119312
0.5114123
0.5115722
0.5118523
0.5122848
8.870761
0.5868811
0.5119307
0.5114007
0.5115617
0.5118475
0.5122905
8.873341
0.5877838
0.5122901
0.5117331
0.5118867
0.51222
0.5126488
8.861104
0.5884121
0.5128325
0.5122023
0.5122732
0.5126172
0.5131111
8.832105
0.5898022
0.5135641
0.5128479
0.5127879
0.5130465
0.5133083
8.756719
0.5921623
0.5145675
0.5135747
0.5133772
0.5134952
0.5137501
8.528175
0.5924726
0.5154452
0.514359
0.5141016
0.5142159
0.5149371
8.446754
0.593104
0.5162207
0.515232
0.5150316
0.5152818
0.5161625
8.390078
0.5948664
0.5172786
0.516343
0.5162225
0.5166606
0.5172097
8.326267
0.5959229
0.5184264
0.5176464
0.5174463
0.5180289
0.5185579
8.255061
0.5958942
0.5196108
0.5188154
0.5187534
0.5192833
0.520329
8.166379
0.5934997
0.5205172
0.5198587
0.5201027
0.5207161
0.5216843
7.986781
0.5911557
0.5210792
0.5209902
0.5212672
0.521933
0.522795
7.878363
0.5896152
0.5214488
0.5217594
0.5224535
0.5229138
0.5239481
7.810548
0.5887697
0.5218577
0.5222676
0.5232452
0.5240121
0.5249698
7.74911
0.5878175
0.5222212
0.522681
0.5237311
0.5249281
0.5260299
7.678128
0.585707
0.5224115
0.5229873
0.5241017
0.5253684
0.5268128
7.535474
0.5836871
0.5225184
0.5231626
0.5243271
0.5256217
0.5272635
7.439015
0.5822979
0.5225511
0.5232395
0.5244251
0.5257656
0.5274348
7.388641
0.5815254
0.5225708
0.5232724
0.5244792
0.5259067
0.5274951
7.344498
0.5805141
0.5225776
0.5233005
0.524541
0.5259771
0.527555
7.300797
0.5796749
0.5225892
0.5233266
0.5246025
0.526008
0.5276022
7.237693
0.5790334
0.5225988
0.5233723
0.5246407
0.5260493
0.52764
7.190731
0.5784395
0.5226055
0.5233992
0.5246694
0.5260785
0.5276695
7.154755
0.5780181
0.522613
0.5234164
0.5246884
0.5261004
0.5276946
7.116393
0.5764974
0.5225984
0.5234376
0.524705
0.5261185
0.5277165
7.077899
0.5753249
0.5226264
0.5234491
0.5247179
0.5261347
0.5277389
6.964902
0.5747026
0.522639
0.5234576
0.5247292
0.5261494
0.5277595
6.889513
0.5740123
0.5226348
0.523465
0.5247394
0.5261622
0.5277777
6.860783
0.5738557
0.5226387
0.5234716
0.5247487
0.5261759
0.5278213
6.838694
0.5736464
0.5226412
0.5234778
0.5247572
0.526188
0.5278564
6.821431
0.5734733
0.522644
0.5234835
0.5247649
0.5261982
0.5278689
6.805169
0.5733002
0.5226467
0.5234887
0.5247721
0.5262091
0.5278809
6.789678
0.5731314
0.5226489
0.5234934
0.5247798
0.5262367
0.5279072
6.77492
0.5729666
0.5226509
0.523498
0.5247869
0.5262591
0.5279393
6.760849
0.5728066
0.5226528
0.5235022
0.5247925
0.5262668
0.5279482
6.747501
0.572651
0.5226542
0.5235061
0.524799
0.5262738
0.5279553
6.734686
0.5724998
0.5226557
0.5235106
0.5248172
0.5262912
0.5279632
6.722538
0.5723541
0.5226571
0.5235146
0.524832
0.5263124
0.527971
6.710875
0.5722126
0.5226583
0.5235176
0.5248363
0.526318
0.5279768
6.69983
0.5720769
0.5226592
0.5235206
0.5248401
0.5263222
0.5279823
6.689206
0.5719459
0.52266
0.5235239
0.524844
0.5263264
0.5279877
6.679072
0.5718199
0.5226608
0.5235351
0.5248546
0.526331
0.527993
6.669375
0.5716996
0.5226614
0.523544
0.5248678
0.5263357
0.5279979
6.660084
0.5715854
0.5226617
0.5235461
0.5248708
0.5263394
0.5280027
6.651186
0.5714779
0.5226617
0.5235477
0.5248731
0.5263426
0.5280072
6.642682
0.5713777
0.5226616
0.5235491
0.5248752
0.526346
0.5280116
6.634488
0.5712859
0.5226611
0.5235503
0.5248775
0.5263494
0.5280163
6.626655
0.571205
0.5226606
0.5235516
0.5248798
0.5263529
0.5280211
6.619131
0.5711401
0.5226606
0.5235533
0.5248825
0.5263572
0.5280265
6.611848
0.5710617
0.5226606
0.5235595
0.5248866
0.5263623
0.5280343
6.604802
0.5710157
0.5226619
0.5235691
0.5248929
0.5263703
0.5280685
6.598133
0.571035
0.522666
0.5235761
0.5249022
0.5264027
0.5281066
6.591679
0.5711127
0.5226772
0.5235893
0.5249361
0.5264399
0.5281462
6.585492
0.5713659
0.5227007
0.5236308
0.5249777
0.52648
0.5281875
6.57947
0.5715169
0.5227476
0.5236878
0.5250257
0.5265225
0.5282295
6.495683
0.5698818
0.5228267
0.5237682
0.5250822
0.526567
0.5282717
0.5302787
0.5328026
0.5361754
0.539402
0.5451478
0.5542557
0.5801136
0.5302367
0.532748
0.5361034
0.5393159
0.5450423
0.5541054
0.580776
0.5301923
0.5326932
0.5360339
0.540431
0.5449456
0.5539587
0.5801357
0.5301472
0.532638
0.5359611
0.5391443
0.5448344
0.5538124
0.5795633
0.5301031
0.5325828
0.5358909
0.5390533
0.5447299
0.5536668
0.5790975
0.5300595
0.5325277
0.5358197
0.5389666
0.5446266
0.553522
0.5786444
0.5300168
0.532473
0.5357488
0.5388827
0.544598
0.553379
0.5782026
0.5299777
0.5324188
0.5356785
0.5388004
0.5445712
0.5532377
0.5777692
0.5299682
0.5323686
0.5356115
0.5387163
0.544489
0.5531091
0.5773425
0.5299612
0.5323562
0.5355489
0.5386325
0.5444074
0.5529812
0.5769223
0.5299547
0.5323471
0.5355328
0.5385512
0.5443261
0.5528539
0.5765076
0.5299482
0.5323378
0.5355204
0.5385336
0.5442443
0.5527266
0.5760982
0.5299418
0.5323284
0.5355076
0.5385179
0.5442303
0.552597
0.5756929
0.5299351
0.5323188
0.5354944
0.5385016
0.5442146
0.5525711
0.5752783
0.5299283
0.5323088
0.5354806
0.5384845
0.5441979
0.5525414
0.5752807
0.5299212
0.5322983
0.5354664
0.5384668
0.5441802
0.5525101
0.5751168
0.529914
0.5322874
0.5354517
0.5384481
0.544155
0.5524782
0.5749865
0.5299064
0.5322764
0.5354361
0.53842
0.5439065
0.5524443
0.5745987
0.5298984
0.5322655
0.5354202
0.5383997
0.5438744
0.5524095
0.5742182
0.52989
0.532254
0.5354035
0.5383785
0.5438477
0.552373
0.5737697
0.5298813
0.5322419
0.5353861
0.5383564
0.54382
0.552335
0.5732783
0.5298719
0.5322292
0.5353679
0.5383331
0.5437911
0.5522951
0.5729005
0.5298621
0.5322157
0.5353477
0.5383106
0.543756
0.5522535
0.5725373
0.5298495
0.5322014
0.5353295
0.5394011
0.5435305
0.552189
0.5722211
0.5298365
0.5321863
0.535305
0.5382659
0.5434059
0.5521367
0.5719723
0.5298245
0.5321707
0.5352846
0.5382278
0.543363
0.5520882
0.5717235
0.5298089
0.5321528
0.5352596
0.5381971
0.5433184
0.5520293
0.5715353
0.529759
0.5321322
0.5352373
0.5381648
0.5432573
0.5515395
0.5713477
0.5297194
0.531484
0.5343696
0.5381289
0.5432018
0.5513534
0.5712013
0.5297049
0.5314621
0.5343388
0.5380912
0.543151
0.551283
0.5710899
0.5296289
0.5313865
0.5343109
0.5380532
0.5430976
0.5509527
0.5709377
0.5295733
0.5313048
0.5342804
0.5380122
0.5430398
0.5505587
0.5708129
0.5295431
0.5312122
0.5342354
0.5379681
0.5429786
0.5504592
0.5707349
0.5295129
0.5311655
0.5341129
0.5379212
0.5429135
0.550309
0.56854
0.5294788
0.5311366
0.5340137
0.537863
0.5428449
0.5501902
0.5684846
0.529441
0.5311098
0.5337939
0.5377844
0.5427765
0.5500839
0.5648768
0.5293962
0.5310858
0.5337169
0.5375353
0.5427257
0.5499817
0.5660586
0.5293361
0.5310677
0.5336652
0.5374649
0.542609
0.5500974
0.5655229
0.5292623
0.5310428
0.5336289
0.5372603
0.5424121
0.5502477
0.5625812
0.5291442
0.5310668
0.5335031
0.5369308
0.5422693
0.5502362
0.5621267
0.5288502
0.5303538
0.532805
0.5366478
0.5420332
0.5494158
0.5632179
0.5277546
0.5290782
0.532318
0.5365002
0.5416497
0.5478856
0.5605402
0.5267135
0.5283298
0.531421
0.5355132
0.5406849
0.546349
0.5580645
0.5261439
0.5276071
0.5310513
0.5347496
0.5395252
0.5455814
0.557532
0.5248228
0.5267954
0.5299848
0.5344259
0.5381801
0.5448261
0.5585085
0.5236183
0.5260484
0.5296274
0.5325967
0.5376811
0.5427803
0.5570881
0.5220451
0.5247366
0.5281223
0.5320707
0.5353073
0.5421149
0.5534341
0.5209258
0.5237039
0.5272522
0.530222
0.5348258
0.5398124
0.5499122
0.5190791
0.5225782
0.5257046
0.528938
0.5330869
0.5393737
0.5485519
0.5178837
0.5207015
0.5245128
0.5279352
0.5323021
0.5381454
0.5473005
0.5168025
0.5196421
0.5230791
0.5269555
0.5320413
0.5374776
0.544833
0.515577
0.5182407
0.5219346
0.5254577
0.5303312
0.536367
0.5444181
0.5148006
0.5170452
0.5207908
0.5240289
0.5286016
0.534711
0.5423947
0.514139
0.5165324
0.5197979
0.5233073
0.526988
0.5326005
0.5408505
0.5136593
0.5160201
0.5190736
0.5227568
0.5265421
0.5304206
0.5368333
0.5133917
0.515736
0.5186904
0.521889
0.5252904
0.5292627
0.5133566
0.515641
0.5182261
0.5213065
0.5243009
0.5279447
0.513716
0.5158205
0.5189364
0.5222085
0.5257981
0.5297803
0.5141888
0.5160451
0.5195016
0.5226247
0.5265556
0.5309201
0.5376744
0.5147975
0.5163651
0.5199091
0.5235137
0.527346
0.5336089
0.5443883
0.5155376
0.51705
0.5212443
0.5249682
0.5296371
0.5352881
0.5438843
0.5167485
0.5185595
0.523004
0.5261792
0.5310988
0.5371639
0.5448039
0.5178066
0.5190064
0.523882
0.5276614
0.5320648
0.5378697
0.5464656
0.5189739
0.5209059
0.5250621
0.5283685
0.5329968
0.5385666
0.5480002
0.5207498
0.522615
0.525918
0.5297718
0.5338372
0.5396091
0.5494102
0.5219032
0.5236064
0.5276102
0.5303832
0.535367
0.5406876
0.5520236
0.5233241
0.5253562
0.5284946
0.532357
0.5361662
0.5425159
0.5563148
0.5247053
0.5263022
0.5297305
0.5331934
0.5380494
0.5434914
0.5581823
0.5256221
0.5274925
0.5307701
0.534438
0.5389065
0.5451702
0.5574433
0.5264966
0.5281923
0.5309586
0.5350983
0.5398108
0.5458266
0.5581343
0.5274615
0.5288486
0.5316368
0.5358377
0.5410916
0.547317
0.5589338
0.5286484
0.5300784
0.5325127
0.5361854
0.5418013
0.5486234
0.5620496
0.5291141
0.5309032
0.5331344
0.5366898
0.5419336
0.5500725
0.5634134
0.529241
0.5311206
0.5336044
0.5370652
0.5425116
0.5502553
0.5624361
0.5293234
0.5311308
0.5336266
0.5372055
0.5426835
0.5503531
0.5633327
0.5293875
0.5311521
0.5336884
0.5377315
0.5426593
0.5500019
0.5654412
0.529435
0.5311582
0.5337574
0.537648
0.5427384
0.5500228
0.5659994
0.5294746
0.5311658
0.5338582
0.5378195
0.542807
0.5501316
0.568392
0.52951
0.5311698
0.534049
0.5378938
0.5428776
0.5502508
0.568702
0.5295412
0.5312338
0.5342091
0.5379437
0.5429453
0.550396
0.5695201
0.529572
0.531297
0.5342561
0.5379896
0.5430089
0.5505062
0.5708497
0.5296281
0.5313436
0.5342954
0.5380325
0.5430685
0.5506343
0.5709127
0.5297048
0.531459
0.5343249
0.5380724
0.5431248
0.551244
0.5710741
0.5297193
0.5315013
0.534353
0.5381086
0.543177
0.5513199
0.5711883
0.5297588
0.5321322
0.5352377
0.5381502
0.5432283
0.5513936
0.5712935
0.5298089
0.532153
0.5352599
0.5381841
0.5432918
0.5518412
0.5714602
0.5298246
0.5321709
0.5352843
0.5382141
0.5433423
0.552065
0.5716441
0.5298366
0.5321867
0.535307
0.5382427
0.5433862
0.552115
0.5718547
0.5298497
0.5322018
0.5353287
0.5382703
0.5434329
0.5521628
0.5720803
0.5298623
0.532216
0.535349
0.5382967
0.5436779
0.5522266
0.5723705
0.529872
0.5322294
0.5353683
0.5383219
0.5437777
0.5522773
0.5726512
0.5298814
0.5322423
0.5353867
0.5383456
0.5438073
0.552318
0.5730017
0.5298902
0.5322544
0.5354042
0.5383685
0.543836
0.5523569
0.5733723
0.5298988
0.532266
0.535421
0.5383901
0.5438629
0.5523942
0.5737794
0.5299067
0.532277
0.5354368
0.5384107
0.5438887
0.5524299
0.5742489
0.5299143
0.5322879
0.5354524
0.538436
0.544017
0.5524643
0.5746603
0.5299215
0.5322988
0.5354671
0.5384587
0.5441729
0.5524973
0.5750115
0.5299286
0.5323091
0.5354813
0.538477
0.5441906
0.552529
0.5752459
0.5299353
0.5323191
0.5354949
0.5384947
0.5442078
0.5525594
0.5753149
0.5299418
0.5323285
0.535508
0.5385115
0.5442239
0.5525882
0.5755441
0.529948
0.5323377
0.5355205
0.5385278
0.5442394
0.5526659
0.5759488
0.5299542
0.5323468
0.5355327
0.5385434
0.5442869
0.5527928
0.576357
0.5299603
0.5323556
0.5355486
0.5385929
0.5443676
0.5529201
0.5767692
0.5299668
0.5323675
0.5356109
0.5386765
0.544449
0.5530476
0.5771856
0.5299756
0.5324171
0.5356773
0.5387609
0.5445306
0.5531757
0.5776071
0.5300138
0.5324706
0.5357471
0.5388456
0.5446091
0.5533101
0.5780342
0.5300555
0.5325247
0.5358175
0.5389262
0.5445788
0.5534524
0.578468
0.5300982
0.5325794
0.5358884
0.5390122
0.5446786
0.5535958
0.5789101
0.5301417
0.5326346
0.5359598
0.5390983
0.544782
0.5537407
0.5793624
0.5301869
0.5326903
0.5360314
0.539185
0.5448859
0.5538862
0.5798637
0.5302325
0.5327459
0.5361031
0.5392713
0.5449904
0.5540323
0.5804552
0.530278
0.5328023
0.5361749
0.5393576
0.545095
0.5541803
0.5816683
4.947736
5.38439
5.36738
5.367373
5.367373
5.367373
5.367373
5.367373
5.367373
5.367373
5.367373
5.367373
5.367373
5.367373
5.367373
5.367373
5.367373
5.367373
5.200538
5.3707
5.36738
5.367379
5.367379
5.367379
5.367379
5.367379
5.367379
5.367379
5.367379
5.367379
5.367379
5.367379
5.367379
5.367379
5.367379
5.367379
5.188663
5.370836
5.36738
5.367379
5.367379
5.367379
5.367379
5.367379
5.367379
5.367379
5.367379
5.367379
5.367379
5.367379
5.367379
5.367379
5.367379
5.367379
5.176577
5.37082
5.36738
5.367379
5.367379
5.367379
5.367379
5.367379
5.367379
5.367379
5.367379
5.367379
5.367379
5.367379
5.367379
5.367379
5.367379
5.367379
5.16272
5.370853
5.36738
5.367379
5.367379
5.367379
5.367379
5.367379
5.367379
5.367379
5.367379
5.367379
5.367379
5.367379
5.367379
5.367379
5.367379
5.367379
5.146951
5.370937
5.36738
5.367379
5.367379
5.367379
5.367379
5.367379
5.367379
5.367379
5.367379
5.367379
5.367379
5.367379
5.367379
5.367379
5.367379
5.367379
5.129376
5.371034
5.36738
5.367379
5.367379
5.367379
5.367379
5.367379
5.367379
5.367379
5.367379
5.367379
5.367379
5.367379
5.367379
5.367379
5.367379
5.367379
5.110139
5.37113
5.36738
5.367379
5.367379
5.367379
5.367379
5.367379
5.367379
5.367379
5.367379
5.367379
5.367379
5.367379
5.367379
5.367379
5.367379
5.367379
5.089372
5.37122
5.36738
5.367379
5.367379
5.367379
5.367379
5.367379
5.367379
5.367379
5.367379
5.367379
5.367379
5.367379
5.367379
5.367379
5.367379
5.367379
5.067215
5.371296
5.36738
5.367379
5.367379
5.367379
5.367379
5.367379
5.367379
5.367379
5.367379
5.367379
5.367379
5.367379
5.367379
5.367379
5.367379
5.367379
5.043781
5.371357
5.36738
5.367379
5.367379
5.367379
5.367379
5.367379
5.367379
5.367379
5.367379
5.367379
5.367379
5.367379
5.367379
5.367379
5.367379
5.367379
5.019139
5.371412
5.36738
5.367379
5.367379
5.367379
5.367379
5.367379
5.367379
5.367379
5.367379
5.367379
5.367379
5.367379
5.367379
5.367379
5.367379
5.367379
4.993311
5.37149
5.36738
5.367379
5.367379
5.367379
5.367379
5.367379
5.367379
5.367379
5.367379
5.367379
5.367379
5.367379
5.367379
5.367379
5.367379
5.367379
4.96346
5.371735
5.36738
5.367379
5.367379
5.367379
5.367379
5.367379
5.367379
5.367379
5.367379
5.367379
5.367379
5.367379
5.367379
5.367379
5.367379
5.367379
4.745596
5.372434
5.36738
5.367379
5.367379
5.367379
5.367379
5.367379
5.367379
5.367379
5.367379
5.367379
5.367379
5.367379
5.367379
5.367379
5.367379
5.367379
4.667961
5.377154
5.367363
5.367379
5.36738
5.367379
5.367379
5.367379
5.367379
5.367379
5.367379
5.367379
5.367379
5.367379
5.367379
5.367379
5.367379
5.367379
4.549182
5.373861
5.367464
5.367371
5.36738
5.367379
5.367379
5.367379
5.367379
5.367379
5.367379
5.367379
5.367379
5.367379
5.367379
5.367379
5.367379
5.367379
4.442175
5.374283
5.367413
5.36741
5.367375
5.367379
5.367379
5.367379
5.367379
5.367379
5.367379
5.367379
5.367379
5.367379
5.367379
5.367379
5.367379
5.367379
4.346372
5.373981
5.367382
5.367394
5.367397
5.367379
5.367379
5.367379
5.367379
5.367379
5.367379
5.367379
5.367379
5.367379
5.367379
5.367379
5.367379
5.367379
4.251156
5.37366
5.367381
5.36738
5.367383
5.367383
5.367379
5.367379
5.367379
5.367379
5.367379
5.367379
5.367379
5.367379
5.367379
5.367379
5.367379
5.367379
4.15649
5.373171
5.367381
5.367379
5.36738
5.367381
5.36738
5.367379
5.367379
5.367379
5.367379
5.367379
5.367379
5.367379
5.367379
5.367379
5.367379
5.367379
4.071079
5.372853
5.367381
5.367379
5.367379
5.367379
5.36738
5.367379
5.367379
5.367379
5.367379
5.367379
5.367379
5.367379
5.367379
5.367379
5.367379
5.367379
3.99084
5.372546
5.36738
5.367379
5.367379
5.367379
5.367379
5.367379
5.367379
5.367379
5.367379
5.367379
5.367379
5.367379
5.367379
5.367379
5.367379
5.367379
3.910727
5.372478
5.36738
5.367379
5.367379
5.367379
5.367379
5.367379
5.367379
5.367379
5.367379
5.367379
5.367379
5.367379
5.367379
5.367379
5.367379
5.367379
3.833249
5.37244
5.36738
5.367379
5.367379
5.367379
5.367379
5.367379
5.367379
5.367379
5.367379
5.367379
5.367379
5.367379
5.367379
5.367379
5.367379
5.367379
3.756981
5.372518
5.36738
5.367379
5.367379
5.367379
5.367379
5.367379
5.367379
5.367379
5.367379
5.367379
5.367379
5.367379
5.367379
5.367379
5.367379
5.367379
3.677236
5.372415
5.36738
5.367379
5.36738
5.367379
5.367379
5.367379
5.367379
5.367379
5.367379
5.367379
5.367379
5.367379
5.367379
5.367379
5.367379
5.367379
3.599624
5.372385
5.36738
5.367379
5.36738
5.367379
5.367379
5.367379
5.367379
5.367379
5.367379
5.367379
5.367379
5.367379
5.367379
5.367379
5.367379
5.367379
3.523086
5.372421
5.36738
5.36738
5.36738
5.367379
5.367379
5.367379
5.367379
5.367379
5.367379
5.367379
5.367379
5.367379
5.367379
5.367379
5.367379
5.367379
3.445451
5.372234
5.36738
5.36742
5.367417
5.36738
5.367379
5.367379
5.367379
5.367379
5.367379
5.367379
5.367379
5.367379
5.367379
5.367379
5.367379
5.367379
3.365343
5.371995
5.367383
5.368604
5.368521
5.367388
5.36738
5.367377
5.367381
5.367379
5.367379
5.367379
5.367379
5.367379
5.367379
5.367379
5.367379
5.367379
3.288154
5.371979
5.367388
5.370045
5.36867
5.367402
5.36738
5.367457
5.367452
5.367381
5.367379
5.367379
5.367379
5.367379
5.367379
5.367379
5.367379
5.367379
3.212871
5.372966
5.367376
5.36773
5.366946
5.367381
5.367381
5.367387
5.367385
5.367379
5.367379
5.367379
5.367379
5.36738
5.367379
5.367379
5.367379
5.36738
3.131044
5.371414
5.367464
5.370288
5.371434
5.367516
5.367383
5.367382
5.36738
5.367379
5.367379
5.367379
5.36738
5.36738
5.367379
5.367379
5.36738
5.36738
2.899371
5.380892
5.368024
5.380721
5.375186
5.375972
5.367389
5.367382
5.367419
5.367392
5.367379
5.367379
5.36738
5.36738
5.367379
5.367379
5.367379
5.36738
2.810536
5.374763
5.368889
5.367727
5.371765
5.368458
5.367416
5.367604
5.367687
5.367394
5.36738
5.367379
5.36738
5.36738
5.367379
5.36738
5.367381
5.367379
2.693796
5.434801
5.370771
5.367522
5.367668
5.367406
5.367523
5.367506
5.367436
5.367376
5.367358
5.367366
5.367395
5.36738
5.367379
5.367381
5.367381
5.367379
1.671591
5.413705
5.387166
5.372886
5.365965
5.365564
5.366981
5.368415
5.36874
5.368029
5.368202
5.368012
5.367429
5.367355
5.367374
5.367384
5.36738
5.367379
0.8425848
5.467822
5.385519
5.367462
5.362944
5.363398
5.366063
5.369066
5.369958
5.368615
5.369878
5.370457
5.369646
5.368883
5.36777
5.367365
5.367379
5.367379
0.3295176
5.718527
5.415569
5.362725
5.359553
5.361498
5.365171
5.365204
5.370815
5.369309
5.371567
5.374546
5.372389
5.372622
5.372416
5.369164
5.36751
5.367363
0.3258054
5.393229
5.418592
5.354991
5.357129
5.359951
5.36435
5.364894
5.37154
5.370294
5.373576
5.376157
5.375396
5.376373
5.375452
5.373873
5.371731
5.368507
0.4804442
5.303432
5.405824
5.354012
5.354726
5.358994
5.363669
5.364618
5.372184
5.371586
5.375967
5.375372
5.378771
5.381707
5.378528
5.378555
5.376934
5.37402
0.7121941
5.438381
5.389518
5.352678
5.353591
5.358431
5.363227
5.364626
5.372688
5.373186
5.378574
5.378218
5.382444
5.382389
5.383235
5.383552
5.382325
5.377905
0.7592262
5.539829
5.378962
5.352515
5.35486
5.355117
5.363016
5.364936
5.373054
5.375075
5.381016
5.381642
5.38647
5.385
5.388024
5.388869
5.385157
5.384971
0.7248221
5.555893
5.457745
5.346761
5.351259
5.355381
5.363033
5.36554
5.372998
5.377463
5.37924
5.384928
5.388914
5.389647
5.392984
5.390845
5.392362
5.388603
0.7046277
5.510032
5.4109
5.380365
5.362666
5.356382
5.3633
5.366426
5.373067
5.379603
5.380144
5.388697
5.387924
5.394155
5.394981
5.397434
5.394454
5.395082
0.6439443
5.391693
5.645989
5.364
5.355422
5.358974
5.363742
5.36884
5.373465
5.381664
5.384086
5.388703
5.392268
5.395849
5.399605
5.398874
5.401192
5.398229
0.5795581
4.64636
5.510411
5.361999
5.365911
5.363725
5.364303
5.369725
5.373579
5.377655
5.386854
5.386576
5.394944
5.399173
5.402486
5.404718
5.405481
5.404189
0.5957535
3.457309
5.624763
5.404186
5.426855
5.361822
5.36495
5.369915
5.370543
5.380714
5.384264
5.391238
5.396153
5.398797
5.405174
5.40473
5.408609
5.408543
0.5914488
2.654702
5.581709
5.457424
5.443003
5.434861
5.384969
5.388108
5.395157
5.400965
5.404457
5.407801
5.407448
5.411992
0.5656
0.8189372
5.407539
5.395635
5.396397
5.402627
5.405142
5.410965
5.412239
5.411304
0.5590075
5.436586
5.39332
5.400357
5.407098
5.409108
5.413639
5.41642
5.392235
5.3967
5.405399
5.41197
5.417191
5.418701
5.406425
5.40572
5.411271
5.415827
5.418959
5.480827
5.405605
5.412904
5.417769
5.420658
5.407815
5.404856
5.412706
5.417781
5.420858
5.393955
5.404865
5.4127
5.418237
5.421416
5.366124
5.406783
5.414931
5.41955
5.422488
5.436429
5.408582
5.416122
5.418448
5.421534
5.473308
5.402059
5.41133
5.415845
5.420423
5.419421
0.556306
5.417799
5.406414
5.411102
5.415357
5.420175
5.421672
0.5693082
1.236715
5.437462
5.399953
5.406168
5.412423
5.415745
5.416729
5.418646
0.5846851
2.256672
5.16959
5.412912
5.431629
5.400548
5.406367
5.41103
5.410668
5.414043
5.418837
5.416668
0.5894933
3.0935
5.641337
5.440161
5.360314
5.365079
5.375475
5.386025
5.456854
5.410116
5.392003
5.397521
5.404245
5.409555
5.411654
5.41602
5.413718
5.414885
0.6045146
4.192637
5.672051
5.353787
5.372589
5.369914
5.372852
5.378162
5.385453
5.391129
5.395603
5.39723
5.403937
5.409935
5.413343
5.410138
5.415081
5.409751
0.6287313
5.233893
5.477413
5.358638
5.368692
5.375109
5.373957
5.380347
5.384057
5.386513
5.394564
5.395996
5.405482
5.405359
5.408325
5.412421
5.407134
5.408719
0.6927353
5.514723
5.633368
5.356725
5.366683
5.369413
5.374763
5.378146
5.384486
5.39031
5.392234
5.401229
5.399853
5.404205
5.405627
5.403717
5.407079
5.400377
0.7375245
5.589602
5.375344
5.449511
5.371312
5.368089
5.375198
5.377992
5.385009
5.392898
5.393865
5.397408
5.398456
5.401339
5.399628
5.403683
5.39792
5.397871
0.7499609
5.545741
5.410806
5.368309
5.366124
5.367971
5.375357
5.377532
5.385584
5.387514
5.393289
5.393409
5.398435
5.39575
5.4019
5.395273
5.394819
5.389641
0.7719377
5.601506
5.418524
5.365808
5.368264
5.367874
5.375227
5.376789
5.384914
5.385125
5.387657
5.389539
5.393203
5.39059
5.3919
5.388768
5.38752
5.382862
0.6663978
5.584908
5.43098
5.362165
5.368235
5.378924
5.374726
5.375803
5.383515
5.38221
5.385451
5.385542
5.387754
5.390921
5.385854
5.388119
5.380626
5.378238
0.3999839
5.52159
5.578126
5.367585
5.366354
5.372164
5.374068
5.374586
5.381439
5.379511
5.385662
5.381275
5.382878
5.382972
5.380095
5.378019
5.374168
5.370509
0.3059443
5.440094
5.447883
5.364791
5.366861
5.369679
5.373046
5.373188
5.378742
5.376604
5.381828
5.379981
5.377872
5.37714
5.376144
5.371876
5.368862
5.366966
0.5234347
5.665165
5.401558
5.365731
5.367381
5.369141
5.371781
5.373394
5.375578
5.37361
5.374175
5.374085
5.372937
5.371618
5.369564
5.367199
5.367163
5.367347
0.8398644
5.75069
5.395226
5.369724
5.368313
5.368613
5.370239
5.371998
5.372036
5.370618
5.370523
5.369094
5.368244
5.367319
5.367129
5.36733
5.36737
5.367379
2.26753
5.483167
5.390339
5.371251
5.369072
5.368183
5.368539
5.368572
5.368261
5.367846
5.367451
5.36729
5.36729
5.367332
5.367366
5.36738
5.36738
5.367379
2.568465
5.376526
5.368967
5.368119
5.36795
5.367503
5.36745
5.367344
5.367291
5.367359
5.367355
5.367371
5.367382
5.367378
5.367379
5.36738
5.367388
5.367379
2.71717
5.39054
5.367923
5.367415
5.371979
5.366055
5.367434
5.367615
5.367598
5.367407
5.367379
5.367379
5.36738
5.367379
5.367379
5.367379
5.367391
5.367379
2.898803
5.529384
5.369037
5.392885
5.378004
5.375882
5.367393
5.367392
5.367412
5.367405
5.367379
5.367379
5.36738
5.367379
5.367379
5.367379
5.36738
5.367379
3.130167
5.437984
5.368291
5.377697
5.374984
5.367605
5.367384
5.367384
5.36738
5.36738
5.367379
5.367379
5.367379
5.36738
5.367379
5.367379
5.36738
5.36738
3.224175
5.377542
5.367467
5.368373
5.367962
5.367384
5.367381
5.367373
5.367362
5.367379
5.367379
5.367379
5.367379
5.36738
5.367379
5.367379
5.367379
5.36738
3.309711
5.378701
5.367386
5.370194
5.368213
5.367383
5.36738
5.367528
5.3675
5.367379
5.367379
5.367379
5.367379
5.367379
5.367379
5.367379
5.367379
5.367379
3.394107
5.378328
5.367387
5.369184
5.369946
5.36738
5.36738
5.367388
5.367382
5.367379
5.367379
5.367379
5.367379
5.367379
5.367379
5.367379
5.367379
5.367379
3.477591
5.377487
5.367381
5.367423
5.367446
5.36738
5.36738
5.36738
5.367379
5.367379
5.367379
5.367379
5.367379
5.367379
5.367379
5.367379
5.367379
5.367379
3.556179
5.376863
5.36738
5.36738
5.367381
5.367379
5.367379
5.367379
5.367379
5.367379
5.367379
5.367379
5.367379
5.367379
5.367379
5.367379
5.367379
5.367379
3.638012
5.376271
5.36738
5.367379
5.36738
5.367379
5.367379
5.367379
5.367379
5.367379
5.367379
5.367379
5.367379
5.367379
5.367379
5.367379
5.367379
5.367379
3.718088
5.375747
5.36738
5.367379
5.36738
5.367379
5.367379
5.367379
5.367379
5.367379
5.367379
5.367379
5.367379
5.367379
5.36738
5.367379
5.367379
5.367379
3.795119
5.375081
5.36738
5.367379
5.36738
5.367379
5.367379
5.367379
5.367379
5.367379
5.367379
5.367379
5.367379
5.367379
5.36738
5.367379
5.367379
5.367379
3.871469
5.37501
5.36738
5.367379
5.36738
5.367379
5.367379
5.367379
5.367379
5.367379
5.367379
5.367379
5.367379
5.367379
5.367379
5.367379
5.367379
5.367379
3.952395
5.374531
5.36738
5.367379
5.36738
5.367379
5.367379
5.367379
5.36738
5.367379
5.367379
5.367379
5.367379
5.367379
5.367379
5.367379
5.367379
5.367379
4.029835
5.374616
5.367381
5.367379
5.36738
5.367379
5.367379
5.36738
5.367379
5.367379
5.367379
5.367379
5.367379
5.367379
5.367379
5.367379
5.367379
5.367379
4.112042
5.374603
5.367381
5.367379
5.36738
5.367379
5.36738
5.36738
5.367379
5.367379
5.367379
5.367379
5.367379
5.367379
5.367379
5.367379
5.367379
5.367379
4.193632
5.374787
5.367381
5.367379
5.36738
5.367381
5.367381
5.367379
5.367379
5.367379
5.367379
5.367379
5.367379
5.367379
5.367379
5.367379
5.367379
5.367379
4.283317
5.374497
5.367381
5.36738
5.367383
5.367385
5.36738
5.367379
5.367379
5.367379
5.367379
5.367379
5.367379
5.367379
5.367379
5.367379
5.367379
5.367379
4.380918
5.374005