/*--------------------------------*- C++ -*----------------------------------*\
| =========                 |                                                 |
| \\      /  F ield         | OpenFOAM: The Open Source CFD Toolbox           |
|  \\    /   O peration     | Version:  2206                                  |
|   \\  /    A nd           | Website:  www.openfoam.com                      |
|    \\/     M anipulation  |                                                 |
\*---------------------------------------------------------------------------*/
FoamFile
{
    version     2.0;
    format      ascii;
    arch        "LSB;label=32;scalar=64";
    class       volScalarField;
    location    "1.2";
    object      omega.b;
}
// * * * * * * * * * * * * * * * * * * * * * * * * * * * * * * * * * * * * * //

dimensions      [0 0 -1 0 0 0 0];

internalField   nonuniform List<scalar> 
13078
(
6.495683
0.5835131
0.5218438
0.5223318
0.5236136
0.525085
0.5267825
6.57947
0.5715473
0.5213603
0.5222641
0.523572
0.5250509
0.5267465
6.585492
0.5706408
0.5212774
0.5221889
0.5235201
0.525009
0.526706
6.591679
0.5700869
0.5212302
0.5221329
0.5234718
0.5249665
0.5266641
6.598133
0.5698977
0.5212043
0.5221099
0.5234317
0.5249261
0.5266231
6.604802
0.5698188
0.5211927
0.5220965
0.5234178
0.5248908
0.5265834
6.611848
0.569828
0.5211881
0.5220835
0.5234084
0.5248805
0.5265477
6.619131
0.5698834
0.5211867
0.5220755
0.5234025
0.5248737
0.5265387
6.626655
0.5699337
0.5211864
0.522073
0.5233987
0.5248685
0.5265324
6.634488
0.5700055
0.5211871
0.5220714
0.5233957
0.5248642
0.526527
6.642682
0.5700915
0.5211877
0.5220701
0.5233932
0.5248604
0.5265218
6.651186
0.570188
0.521188
0.5220688
0.5233908
0.5248568
0.5265171
6.660084
0.5702933
0.5211881
0.5220673
0.5233886
0.5248534
0.5265124
6.669375
0.5704067
0.521188
0.5220652
0.5233856
0.5248497
0.5265074
6.679072
0.570527
0.5211877
0.5220565
0.5233726
0.524845
0.5265025
6.689206
0.5706538
0.521187
0.5220454
0.523362
0.5248405
0.5264973
6.69983
0.5707863
0.5211863
0.5220422
0.5233581
0.5248363
0.5264919
6.710875
0.570924
0.5211856
0.5220392
0.5233544
0.524832
0.5264863
6.722538
0.5710681
0.5211846
0.5220362
0.5233501
0.5248264
0.5264804
6.734686
0.5712168
0.5211833
0.5220323
0.5233353
0.5248053
0.5264727
6.747501
0.5713718
0.5211819
0.5220278
0.5233172
0.524788
0.526465
6.760849
0.5715315
0.5211806
0.5220241
0.5233109
0.5247811
0.526458
6.77492
0.5716963
0.5211788
0.5220199
0.5233054
0.5247735
0.526449
6.789678
0.5718662
0.5211769
0.5220155
0.5232983
0.5247511
0.5264171
6.805169
0.5720408
0.521175
0.5220108
0.5232907
0.5247236
0.5263907
6.821431
0.5722201
0.5211725
0.5220056
0.5232835
0.5247129
0.5263789
6.838694
0.5723996
0.5211699
0.522
0.5232759
0.5247029
0.5263664
6.860783
0.572615
0.5211677
0.521994
0.5232675
0.5246907
0.5263316
6.889513
0.5727777
0.521164
0.5219876
0.5232583
0.5246772
0.5262882
6.964902
0.573469
0.5211685
0.5219804
0.5232485
0.5246645
0.5262701
7.077899
0.5741037
0.5211562
0.5219722
0.5232375
0.5246503
0.5262498
7.116328
0.5752832
0.5211284
0.521961
0.5232251
0.5246346
0.5262279
7.153722
0.5768016
0.5211437
0.5219404
0.5232091
0.524617
0.5262067
7.186842
0.5772291
0.5211371
0.5219238
0.5231908
0.524596
0.5261826
7.221338
0.5776785
0.521129
0.5218978
0.5231656
0.5245669
0.5261538
7.257503
0.5781961
0.5211224
0.5218528
0.5231161
0.524524
0.5261158
7.295302
0.5787725
0.5211154
0.5218299
0.5230477
0.5244929
0.5260725
7.335034
0.579403
0.5211047
0.5218059
0.5230094
0.5244289
0.5260162
7.385168
0.5800845
0.5210886
0.5217726
0.5229603
0.524298
0.5259649
7.498025
0.5816262
0.5210625
0.5217061
0.5228683
0.5241664
0.5258135
7.673725
0.5841187
0.5209542
0.521555
0.5226661
0.5239329
0.5253829
7.748896
0.5867115
0.5207923
0.5212756
0.5223358
0.5235106
0.524641
7.810547
0.5877251
0.5204442
0.5208801
0.5218989
0.5226327
0.5235615
7.878363
0.588609
0.5200482
0.5203641
0.5211238
0.5216065
0.5224911
7.986781
0.5901354
0.5196861
0.5195976
0.5198824
0.5206333
0.5215525
8.166379
0.5924372
0.5191255
0.5184683
0.518709
0.5193288
0.5204505
8.255061
0.5946532
0.5182071
0.5174154
0.5173532
0.5178718
0.5189166
8.326243
0.5943893
0.5170077
0.5162273
0.5160278
0.5166165
0.5171712
8.389798
0.5929797
0.5158388
0.5149043
0.5147686
0.5152055
0.515774
8.446192
0.5908744
0.5147599
0.5137725
0.513559
0.513803
0.514691
8.527115
0.5898953
0.5139659
0.5128809
0.5126091
0.5127192
0.5134468
8.755282
0.5894087
0.5130695
0.5120669
0.5118536
0.5119757
0.5122405
8.830459
0.5870632
0.5120612
0.5113389
0.5112629
0.5114984
0.5117479
8.859433
0.5858109
0.5113376
0.5107075
0.5107614
0.5110849
0.511553
8.871518
0.5853073
0.5107961
0.5102463
0.510385
0.5106938
0.5110887
8.868862
0.5845481
0.5104375
0.5099247
0.5100803
0.510358
0.5107899
8.869081
0.584659
0.5104365
0.5099126
0.5100691
0.5103524
0.5107951
8.871801
0.5855872
0.5107955
0.510244
0.5103929
0.5107238
0.5111535
8.85973
0.5862547
0.511337
0.5107121
0.5107785
0.5111193
0.5116138
8.830956
0.5877091
0.5120679
0.5113569
0.5112927
0.5115476
0.5118088
8.755886
0.5901757
0.513074
0.5120825
0.5118807
0.5119956
0.5122484
8.527693
0.5906083
0.5139538
0.5128682
0.512606
0.5127161
0.5134327
8.446532
0.5914137
0.514731
0.5137414
0.5135361
0.5137818
0.5146578
8.390009
0.5933162
0.5157925
0.5148532
0.5147279
0.5151605
0.5157043
8.326262
0.5944959
0.5169451
0.5161578
0.5159516
0.516529
0.5170518
8.255061
0.5945649
0.518135
0.5173287
0.5172591
0.5177835
0.5188233
8.166379
0.5922337
0.5190456
0.5183752
0.5186113
0.5192179
0.52018
7.986781
0.5899151
0.5196103
0.5195113
0.5197798
0.5204376
0.5212923
7.878363
0.5884371
0.5199803
0.5202831
0.5209706
0.5214221
0.5224494
7.810547
0.5876259
0.5203891
0.520791
0.5217649
0.5225252
0.5234753
7.74911
0.5866947
0.5207523
0.5212039
0.5222508
0.5234439
0.5245394
7.678127
0.5845892
0.5209421
0.5215099
0.522621
0.5238841
0.525324
7.535474
0.5825559
0.5210493
0.521685
0.5228461
0.5241369
0.5257744
7.439015
0.581181
0.5210819
0.5217618
0.522944
0.5242807
0.5259453
7.388641
0.5804085
0.5211014
0.5217946
0.522998
0.5244215
0.5260055
7.344498
0.5793884
0.521108
0.5218226
0.5230596
0.5244918
0.5260652
7.300797
0.5785392
0.5211193
0.5218487
0.523121
0.5245226
0.5261123
7.237693
0.5778832
0.5211287
0.5218943
0.5231591
0.5245637
0.5261501
7.190731
0.5772799
0.5211352
0.5219211
0.5231877
0.5245929
0.5261795
7.154755
0.5768462
0.5211423
0.5219383
0.5232067
0.5246148
0.5262046
7.116393
0.5753084
0.521127
0.5219594
0.5232233
0.5246329
0.5262265
7.077899
0.5741214
0.521155
0.5219708
0.5232362
0.5246491
0.5262489
6.964902
0.5734797
0.5211674
0.5219794
0.5232475
0.5246638
0.5262695
6.889513
0.5727844
0.5211631
0.5219868
0.5232577
0.5246766
0.5262877
6.860783
0.5726186
0.5211668
0.5219933
0.523267
0.5246902
0.5263312
6.838694
0.5724011
0.5211692
0.5219995
0.5232754
0.5247024
0.5263663
6.821431
0.5722202
0.5211718
0.5220052
0.5232831
0.5247126
0.5263788
6.805169
0.57204
0.5211744
0.5220104
0.5232903
0.5247235
0.5263908
6.789678
0.5718647
0.5211764
0.5220151
0.523298
0.524751
0.5264171
6.77492
0.5716941
0.5211783
0.5220197
0.5233051
0.5247734
0.526449
6.760849
0.5715289
0.5211802
0.5220239
0.5233107
0.524781
0.5264579
6.747501
0.5713687
0.5211815
0.5220277
0.5233172
0.524788
0.526465
6.734686
0.5712132
0.5211829
0.5220322
0.5233353
0.5248054
0.526473
6.722538
0.5710638
0.5211843
0.5220363
0.5233501
0.5248265
0.5264807
6.710875
0.570919
0.5211854
0.5220392
0.5233544
0.5248321
0.5264865
6.69983
0.5707804
0.5211862
0.5220422
0.5233582
0.5248364
0.526492
6.689206
0.5706466
0.521187
0.5220456
0.5233621
0.5248406
0.5264975
6.679072
0.5705183
0.5211878
0.5220567
0.5233727
0.5248451
0.5265027
6.669375
0.5703959
0.5211883
0.5220655
0.5233858
0.5248499
0.5265076
6.660084
0.5702797
0.5211886
0.5220677
0.5233889
0.5248535
0.5265124
6.651186
0.5701705
0.5211885
0.5220693
0.5233911
0.5248568
0.5265169
6.642682
0.5700688
0.5211884
0.5220706
0.5233933
0.5248601
0.5265213
6.634488
0.5699756
0.5211879
0.5220719
0.5233955
0.5248635
0.526526
6.626655
0.5698934
0.5211873
0.5220731
0.5233978
0.524867
0.5265308
6.619131
0.5698274
0.5211873
0.5220748
0.5234005
0.5248713
0.5265362
6.611848
0.5697478
0.5211873
0.5220811
0.5234047
0.5248764
0.526544
6.604802
0.5697008
0.5211886
0.5220906
0.5234109
0.5248845
0.5265781
6.598133
0.5697193
0.5211926
0.5220976
0.5234202
0.5249167
0.5266161
6.591679
0.5697963
0.5212039
0.5221108
0.5234541
0.5249539
0.5266557
6.585492
0.5700492
0.5212274
0.5221523
0.5234957
0.5249939
0.5266969
6.57947
0.5701993
0.5212742
0.5222093
0.5235436
0.5250364
0.5267388
6.495683
0.5685556
0.5213532
0.5222897
0.5236
0.5250809
0.5267809
0.5287826
0.5312997
0.5346634
0.5378814
0.5436117
0.5526954
0.5784854
0.5287406
0.5312452
0.5345916
0.5377955
0.5435065
0.5525455
0.5791806
0.5286963
0.5311905
0.5345222
0.5389075
0.5434101
0.5523992
0.5785415
0.5286513
0.5311355
0.5344496
0.5376243
0.5432992
0.5522534
0.5779703
0.5286074
0.5310804
0.5343796
0.5375335
0.543195
0.552108
0.5775053
0.5285638
0.5310254
0.5343085
0.5374471
0.5430918
0.5519637
0.577053
0.5285213
0.5309708
0.5342378
0.5373633
0.5430633
0.551821
0.5766119
0.5284822
0.5309168
0.5341677
0.5372813
0.5430366
0.5516801
0.5761791
0.5284727
0.5308667
0.5341009
0.5371974
0.5429546
0.5515518
0.575753
0.5284657
0.5308543
0.5340384
0.5371138
0.5428732
0.5514242
0.5753334
0.5284593
0.5308452
0.5340223
0.5370327
0.5427921
0.5512972
0.5749193
0.5284528
0.5308359
0.53401
0.5370151
0.5427105
0.5511702
0.5745104
0.5284463
0.5308265
0.5339972
0.5369994
0.5426965
0.5510409
0.5741055
0.5284396
0.530817
0.533984
0.5369831
0.5426808
0.551015
0.5736911
0.5284329
0.5308069
0.5339703
0.5369661
0.5426641
0.5509853
0.5736923
0.5284258
0.5307965
0.533956
0.5369484
0.5426465
0.5509541
0.5735266
0.5284185
0.5307856
0.5339413
0.5369297
0.5426212
0.5509221
0.5733916
0.5284109
0.5307746
0.5339258
0.5369017
0.5423733
0.5508883
0.572999
0.528403
0.5307637
0.5339099
0.5368813
0.5423412
0.5508535
0.5726165
0.5283945
0.5307522
0.5338931
0.5368601
0.5423146
0.5508169
0.5721665
0.5283859
0.5307402
0.5338758
0.536838
0.5422869
0.550779
0.5716743
0.5283765
0.5307274
0.5338576
0.5368148
0.5422581
0.5507391
0.5712961
0.5283667
0.5307139
0.5338374
0.5367923
0.5422229
0.5506974
0.5709328
0.5283541
0.5306996
0.5338192
0.5378798
0.541998
0.5506329
0.5706162
0.5283411
0.5306845
0.5337947
0.5367476
0.5418736
0.5505806
0.5703667
0.5283291
0.5306689
0.5337743
0.5367095
0.5418307
0.550532
0.5701173
0.5283135
0.530651
0.5337493
0.5366788
0.5417861
0.5504731
0.5699283
0.5282636
0.5306304
0.533727
0.5366464
0.541725
0.5499843
0.5697399
0.5282242
0.5299838
0.5328615
0.5366106
0.5416695
0.5497984
0.5695923
0.5282096
0.5299619
0.5328307
0.5365729
0.5416186
0.5497279
0.5694795
0.5281338
0.5298865
0.5328028
0.5365347
0.5415651
0.5493982
0.5693261
0.5280782
0.5298049
0.5327722
0.5364937
0.5415072
0.5490048
0.5691999
0.528048
0.5297124
0.5327272
0.5364495
0.5414459
0.5489052
0.56912
0.5280178
0.5296657
0.5326051
0.5364026
0.5413807
0.5487548
0.5669284
0.5279838
0.5296368
0.5325061
0.5363442
0.541312
0.5486357
0.5668679
0.527946
0.5296099
0.5322865
0.5362656
0.5412434
0.548529
0.5632602
0.5279012
0.5295859
0.5322097
0.5360174
0.5411926
0.5484262
0.5644397
0.5278412
0.5295677
0.5321582
0.5359483
0.5410757
0.5485411
0.5638995
0.5277677
0.5295427
0.5321224
0.5357438
0.5408832
0.5486912
0.5609497
0.5276507
0.5295667
0.531998
0.5354166
0.5407422
0.5486718
0.5605088
0.5273573
0.5288531
0.5313007
0.5351346
0.5405047
0.5478459
0.5616021
0.5262612
0.5275787
0.5308139
0.5349876
0.5401177
0.5463246
0.5589362
0.5252181
0.5268292
0.5299166
0.5340001
0.5391476
0.544794
0.556469
0.5246469
0.5261042
0.5295473
0.5332372
0.5379927
0.5440254
0.5559264
0.5233218
0.5252903
0.5284804
0.5329186
0.5366476
0.5432688
0.5569196
0.5221181
0.5245449
0.52813
0.5310825
0.5361558
0.5412255
0.5554952
0.5205445
0.5232343
0.5266234
0.5305676
0.5337822
0.5405653
0.5518364
0.5194256
0.5222041
0.5257582
0.5287237
0.5333103
0.5382647
0.548329
0.5175789
0.5210825
0.5242124
0.5274424
0.5315743
0.537838
0.5469754
0.5163879
0.5192074
0.5230245
0.526436
0.5307876
0.5366169
0.5457415
0.5153116
0.518155
0.5215888
0.5254528
0.5305276
0.5359576
0.5432963
0.5140909
0.5167548
0.5204499
0.5239697
0.5288291
0.5348509
0.5428916
0.5133186
0.515568
0.5193101
0.5225464
0.5271093
0.533208
0.5408699
0.5126578
0.5150605
0.5183255
0.5218259
0.5254982
0.5310925
0.5393329
0.5121731
0.5145468
0.5175996
0.5212806
0.5250478
0.5289139
0.5353468
0.5119041
0.5142567
0.5172174
0.520416
0.5238017
0.5277623
0.5118752
0.5141677
0.51675
0.519838
0.5228172
0.5264508
0.5122345
0.5143496
0.5174638
0.5207308
0.524302
0.5282764
0.5127069
0.5145756
0.5180221
0.5211333
0.5250622
0.5294204
0.5361684
0.5133088
0.5148923
0.5184264
0.5220252
0.5258502
0.5321021
0.5428641
0.5140462
0.5155728
0.5197618
0.5234768
0.5281339
0.5337717
0.542351
0.5152481
0.5170682
0.5215112
0.5246791
0.5295802
0.5356286
0.5432706
0.5163024
0.5175169
0.5223835
0.526154
0.5305385
0.5363308
0.5449225
0.5174657
0.519399
0.5235611
0.526856
0.5314695
0.5370252
0.5464243
0.5192401
0.5211063
0.5244128
0.5282651
0.5323103
0.5380592
0.5478095
0.520393
0.5220984
0.5261016
0.5288719
0.5338377
0.5391283
0.550419
0.5218145
0.523842
0.5269856
0.5308424
0.5346281
0.5409553
0.554693
0.5231971
0.524792
0.5282178
0.5316767
0.5365126
0.541922
0.5565547
0.5241167
0.525984
0.5292587
0.5329178
0.5373714
0.5435975
0.5558117
0.524995
0.5266863
0.5294467
0.5335783
0.5382738
0.5442677
0.5565279
0.5259634
0.5273451
0.5301259
0.534318
0.5395524
0.5457572
0.5573275
0.5271538
0.5285771
0.5310044
0.5346647
0.5402634
0.5470449
0.5604296
0.5276201
0.5294044
0.5316276
0.5351722
0.5403956
0.5485008
0.5617957
0.5277463
0.5296218
0.5320983
0.535549
0.5409792
0.5486908
0.5608145
0.5278285
0.5296316
0.5321197
0.5356881
0.5411511
0.5487963
0.5617077
0.5278925
0.5296527
0.5321812
0.5362136
0.5411264
0.5484458
0.5638119
0.52794
0.5296587
0.53225
0.5361299
0.5412052
0.5484676
0.5643814
0.5279795
0.5296662
0.5323508
0.5363006
0.5412739
0.548577
0.5667701
0.5280149
0.5296702
0.5325412
0.5363751
0.5413447
0.5486965
0.5670868
0.5280461
0.5297342
0.5327009
0.5364251
0.5414126
0.5488419
0.5679065
0.5280768
0.5297973
0.5327479
0.5364711
0.5414763
0.5489523
0.5692354
0.5281329
0.5298438
0.5327873
0.5365141
0.541536
0.5490805
0.5693004
0.5282095
0.5299589
0.5328168
0.536554
0.5415924
0.5496889
0.5694629
0.528224
0.5300012
0.532845
0.5365903
0.5416446
0.5497649
0.5695785
0.5282635
0.5306304
0.5337274
0.5366319
0.541696
0.5498386
0.5696851
0.5283135
0.5306512
0.5337496
0.5366658
0.5417594
0.5502854
0.5698528
0.5283292
0.5306691
0.533774
0.5366958
0.54181
0.5505088
0.5700375
0.5283412
0.5306849
0.5337967
0.5367244
0.5418539
0.5505589
0.5702488
0.5283542
0.5307001
0.5338184
0.536752
0.5419006
0.5506067
0.5704751
0.5283669
0.5307142
0.5338387
0.5367785
0.542145
0.5506705
0.5707658
0.5283766
0.5307276
0.533858
0.5368036
0.5422446
0.5507212
0.5710469
0.528386
0.5307405
0.5338764
0.5368273
0.5422742
0.550762
0.5713979
0.5283948
0.5307526
0.5338938
0.5368502
0.5423029
0.5508009
0.5717689
0.5284034
0.5307642
0.5339107
0.5368718
0.5423298
0.5508382
0.5721769
0.5284112
0.5307751
0.5339265
0.5368924
0.5423556
0.5508738
0.5726479
0.5284188
0.5307861
0.533942
0.5369177
0.5424836
0.5509083
0.5730616
0.5284261
0.530797
0.5339567
0.5369403
0.5426391
0.5509413
0.5734159
0.5284331
0.5308073
0.5339709
0.5369586
0.5426568
0.5509729
0.5736555
0.5284398
0.5308172
0.5339845
0.5369762
0.542674
0.5510033
0.5737272
0.5284463
0.5308266
0.5339976
0.536993
0.5426901
0.551032
0.5739568
0.5284525
0.5308358
0.5340101
0.5370093
0.5427055
0.5511096
0.5743612
0.5284587
0.5308449
0.5340223
0.5370249
0.542753
0.5512363
0.574769
0.5284648
0.5308537
0.5340381
0.5370743
0.5428335
0.5513632
0.5751807
0.5284713
0.5308656
0.5341002
0.5371577
0.5429147
0.5514904
0.5755964
0.5284801
0.530915
0.5341665
0.5372418
0.5429961
0.5516182
0.5760174
0.5285182
0.5309685
0.5342361
0.5373263
0.5430743
0.5517523
0.5764438
0.5285598
0.5310224
0.5343064
0.5374068
0.5430441
0.5518942
0.5768769
0.5286024
0.531077
0.5343771
0.5374925
0.5431438
0.5520373
0.5773183
0.5286458
0.5311321
0.5344483
0.5375784
0.5432469
0.5521818
0.5777698
0.528691
0.5311877
0.5345197
0.5376649
0.5433505
0.5523269
0.5782702
0.5287365
0.5312431
0.5345913
0.5377509
0.5434547
0.5524727
0.5788605
0.5287819
0.5312993
0.5346629
0.5378371
0.5435591
0.5526203
0.5800704
4.938677
5.377269
5.359916
5.359909
5.359909
5.359909
5.359909
5.359909
5.359909
5.359909
5.359909
5.359909
5.359909
5.359909
5.359909
5.359909
5.359909
5.359909
5.192603
5.363274
5.359916
5.359915
5.359915
5.359915
5.359915
5.359915
5.359915
5.359915
5.359915
5.359915
5.359915
5.359915
5.359915
5.359915
5.359915
5.359915
5.180685
5.363412
5.359916
5.359915
5.359915
5.359915
5.359915
5.359915
5.359915
5.359915
5.359915
5.359915
5.359915
5.359915
5.359915
5.359915
5.359915
5.359915
5.168565
5.363394
5.359916
5.359915
5.359915
5.359915
5.359915
5.359915
5.359915
5.359915
5.359915
5.359915
5.359915
5.359915
5.359915
5.359915
5.359915
5.359915
5.154666
5.363427
5.359916
5.359915
5.359915
5.359915
5.359915
5.359915
5.359915
5.359915
5.359915
5.359915
5.359915
5.359915
5.359915
5.359915
5.359915
5.359915
5.138845
5.36351
5.359916
5.359915
5.359915
5.359915
5.359915
5.359915
5.359915
5.359915
5.359915
5.359915
5.359915
5.359915
5.359915
5.359915
5.359915
5.359915
5.12121
5.363607
5.359916
5.359915
5.359915
5.359915
5.359915
5.359915
5.359915
5.359915
5.359915
5.359915
5.359915
5.359915
5.359915
5.359915
5.359915
5.359915
5.101905
5.363704
5.359916
5.359915
5.359915
5.359915
5.359915
5.359915
5.359915
5.359915
5.359915
5.359915
5.359915
5.359915
5.359915
5.359915
5.359915
5.359915
5.081063
5.363794
5.359916
5.359915
5.359915
5.359915
5.359915
5.359915
5.359915
5.359915
5.359915
5.359915
5.359915
5.359915
5.359915
5.359915
5.359915
5.359915
5.058826
5.363871
5.359916
5.359915
5.359915
5.359915
5.359915
5.359915
5.359915
5.359915
5.359915
5.359915
5.359915
5.359915
5.359915
5.359915
5.359915
5.359915
5.035306
5.363932
5.359916
5.359915
5.359915
5.359915
5.359915
5.359915
5.359915
5.359915
5.359915
5.359915
5.359915
5.359915
5.359915
5.359915
5.359915
5.359915
5.010572
5.363988
5.359916
5.359915
5.359915
5.359915
5.359915
5.359915
5.359915
5.359915
5.359915
5.359915
5.359915
5.359915
5.359915
5.359915
5.359915
5.359915
4.984649
5.364067
5.359916
5.359915
5.359915
5.359915
5.359915
5.359915
5.359915
5.359915
5.359915
5.359915
5.359915
5.359915
5.359915
5.359915
5.359915
5.359915
4.95467
5.364317
5.359916
5.359915
5.359915
5.359915
5.359915
5.359915
5.359915
5.359915
5.359915
5.359915
5.359915
5.359915
5.359915
5.359915
5.359915
5.359915
4.73674
5.365036
5.359916
5.359915
5.359915
5.359915
5.359915
5.359915
5.359915
5.359915
5.359915
5.359915
5.359915
5.359915
5.359915
5.359915
5.359915
5.359915
4.659036
5.369844
5.359899
5.359915
5.359915
5.359915
5.359915
5.359915
5.359915
5.359915
5.359915
5.359915
5.359915
5.359915
5.359915
5.359915
5.359915
5.359915
4.539385
5.366466
5.36
5.359907
5.359915
5.359915
5.359915
5.359915
5.359915
5.359915
5.359915
5.359915
5.359915
5.359915
5.359915
5.359915
5.359915
5.359915
4.433016
5.366884
5.359949
5.359946
5.35991
5.359915
5.359915
5.359915
5.359915
5.359915
5.359915
5.359915
5.359915
5.359915
5.359915
5.359915
5.359915
5.359915
4.337407
5.366576
5.359918
5.35993
5.359933
5.359914
5.359915
5.359915
5.359915
5.359915
5.359915
5.359915
5.359915
5.359915
5.359915
5.359915
5.359915
5.359915
4.242339
5.366252
5.359917
5.359916
5.359919
5.359919
5.359915
5.359915
5.359915
5.359915
5.359915
5.359915
5.359915
5.359915
5.359915
5.359915
5.359915
5.359915
4.147805
5.365762
5.359917
5.359915
5.359915
5.359917
5.359916
5.359915
5.359915
5.359915
5.359915
5.359915
5.359915
5.359915
5.359915
5.359915
5.359915
5.359915
4.062483
5.365443
5.359917
5.359915
5.359915
5.359915
5.359916
5.359915
5.359915
5.359915
5.359915
5.359915
5.359915
5.359915
5.359915
5.359915
5.359915
5.359915
3.982312
5.365139
5.359916
5.359915
5.359915
5.359915
5.359915
5.359915
5.359915
5.359915
5.359915
5.359915
5.359915
5.359915
5.359915
5.359915
5.359915
5.359915
3.902262
5.365072
5.359916
5.359915
5.359915
5.359915
5.359915
5.359915
5.359915
5.359915
5.359915
5.359915
5.359915
5.359915
5.359915
5.359915
5.359915
5.359915
3.824828
5.365033
5.359916
5.359915
5.359915
5.359915
5.359915
5.359915
5.359915
5.359915
5.359915
5.359915
5.359915
5.359915
5.359915
5.359915
5.359915
5.359915
3.748591
5.365112
5.359916
5.359915
5.359915
5.359915
5.359915
5.359915
5.359915
5.359915
5.359915
5.359915
5.359915
5.359915
5.359915
5.359915
5.359915
5.359915
3.668882
5.365007
5.359916
5.359915
5.359915
5.359915
5.359915
5.359915
5.359915
5.359915
5.359915
5.359915
5.359915
5.359915
5.359915
5.359915
5.359915
5.359915
3.591287
5.364976
5.359916
5.359915
5.359915
5.359915
5.359915
5.359915
5.359915
5.359915
5.359915
5.359915
5.359915
5.359915
5.359915
5.359915
5.359915
5.359915
3.514754
5.365011
5.359916
5.359916
5.359916
5.359915
5.359915
5.359915
5.359915
5.359915
5.359915
5.359915
5.359915
5.359915
5.359915
5.359915
5.359915
5.359915
3.437115
5.364822
5.359916
5.359956
5.359953
5.359916
5.359915
5.359915
5.359915
5.359915
5.359915
5.359915
5.359915
5.359915
5.359915
5.359915
5.359915
5.359915
3.357002
5.364578
5.359919
5.361136
5.36106
5.359924
5.359916
5.359912
5.359917
5.359915
5.359915
5.359915
5.359915
5.359915
5.359915
5.359915
5.359915
5.359915
3.279781
5.364558
5.359924
5.362607
5.361218
5.359939
5.359916
5.359993
5.359988
5.359916
5.359915
5.359915
5.359915
5.359915
5.359915
5.359915
5.359915
5.359915
3.204428
5.365532
5.359912
5.360275
5.359478
5.359917
5.359917
5.359923
5.359921
5.359915
5.359915
5.359915
5.359915
5.359916
5.359915
5.359915
5.359915
5.359916
3.122539
5.364003
5.36
5.36283
5.364
5.360054
5.359919
5.359918
5.359915
5.359915
5.359915
5.359915
5.359915
5.359915
5.359915
5.359915
5.359916
5.359916
2.89097
5.373444
5.360563
5.373372
5.367724
5.368561
5.359925
5.359918
5.359955
5.359928
5.359915
5.359915
5.359916
5.359915
5.359915
5.359915
5.359915
5.359915
2.802037
5.367336
5.36144
5.360268
5.364357
5.36101
5.359953
5.360141
5.360223
5.35993
5.359915
5.359915
5.359916
5.359916
5.359915
5.359915
5.359917
5.359915
2.685183
5.427603
5.363344
5.360058
5.360208
5.359942
5.36006
5.360042
5.359971
5.359911
5.359893
5.359902
5.359931
5.359916
5.359915
5.359917
5.359917
5.359915
1.664638
5.405891
5.379805
5.365506
5.358508
5.358099
5.359538
5.360991
5.361315
5.360589
5.360756
5.360556
5.359964
5.35989
5.35991
5.35992
5.359916
5.359915
0.8368578
5.460582
5.378275
5.360066
5.355462
5.355928
5.358642
5.361699
5.362598
5.361226
5.362501
5.363076
5.362237
5.361446
5.360308
5.359901
5.359915
5.359915
0.3247899
5.711297
5.408479
5.355227
5.35204
5.354022
5.357769
5.357817
5.363516
5.361974
5.364265
5.367284
5.365072
5.365289
5.365054
5.36173
5.360046
5.359899
0.3226995
5.384529
5.411258
5.347418
5.349593
5.352469
5.356966
5.357526
5.364295
5.363014
5.36635
5.368976
5.368177
5.369153
5.368197
5.366558
5.364351
5.361058
0.4775776
5.29528
5.3985
5.346414
5.347172
5.351484
5.356297
5.357272
5.364983
5.364362
5.368819
5.368218
5.371653
5.374617
5.371372
5.371368
5.369689
5.366691
0.7096559
5.430581
5.381787
5.345068
5.346025
5.350951
5.355865
5.3573
5.36552
5.366016
5.371501
5.37114
5.375427
5.375373
5.376198
5.376497
5.375218
5.370696
0.7573157
5.53257
5.371444
5.344932
5.347284
5.347606
5.35566
5.357627
5.365907
5.367956
5.374021
5.374643
5.379552
5.378054
5.381109
5.381946
5.378159
5.377911
0.7235555
5.548671
5.450054
5.339048
5.343668
5.347871
5.355676
5.358244
5.365857
5.370391
5.372225
5.378004
5.382079
5.382802
5.386185
5.384014
5.385497
5.381668
0.7037781
5.504563
5.402482
5.372861
5.355125
5.34887
5.35594
5.359139
5.36592
5.372571
5.37314
5.381841
5.381079
5.387405
5.388267
5.39071
5.387686
5.388277
0.6423118
5.385936
5.638354
5.356127
5.347847
5.35147
5.356375
5.361572
5.36631
5.374678
5.377125
5.38188
5.385488
5.389157
5.392951
5.392234
5.394542
5.39153
0.5780289
4.652013
5.503362
5.354084
5.358337
5.356233
5.356924
5.362461
5.366395
5.370588
5.379937
5.379685
5.388212
5.39251
5.395925
5.398159
5.398956
5.397595
0.5942735
3.463622
5.617306
5.396513
5.419364
5.354333
5.357553
5.362608
5.363319
5.373624
5.377293
5.384391
5.389397
5.392145
5.398636
5.3982
5.402138
5.402067
0.5900061
2.657635
5.575176
5.449766
5.435481
5.427587
5.377899
5.381209
5.388391
5.394331
5.397917
5.401327
5.400968
5.405574
0.5640909
0.824788
5.400574
5.388607
5.389613
5.395976
5.398592
5.40453
5.405839
5.404893
0.5574514
5.429646
5.386454
5.393666
5.400555
5.402647
5.407255
5.410078
5.385287
5.38996
5.398816
5.40553
5.410861
5.412395
5.39969
5.399134
5.404803
5.409468
5.412671
5.473949
5.398969
5.406441
5.411418
5.414371
5.401076
5.398215
5.40624
5.411434
5.414578
5.387079
5.398213
5.406219
5.411878
5.415126
5.359192
5.400145
5.408455
5.413191
5.416193
5.429612
5.401935
5.409654
5.412056
5.415231
5.466452
5.395257
5.404707
5.409383
5.414058
5.413039
0.554749
5.410984
5.399665
5.40449
5.408877
5.41379
5.415318
0.5679091
1.239216
5.43047
5.39309
5.399426
5.405848
5.409229
5.410261
5.412238
0.5832766
2.255535
5.161539
5.405469
5.424293
5.393635
5.399469
5.404364
5.404026
5.407504
5.412386
5.410181
0.5880712
3.095143
5.633854
5.43297
5.352338
5.357424
5.368017
5.378737
5.449253
5.403047
5.384932
5.390573
5.39743
5.402821
5.405019
5.409482
5.407161
5.408371
0.6030883
4.200283
5.66411
5.34565
5.364937
5.362354
5.365379
5.370794
5.378194
5.384006
5.388573
5.390285
5.397101
5.403209
5.406735
5.40348
5.40853
5.403109
0.6272926
5.234233
5.470122
5.350584
5.360982
5.367523
5.366478
5.372985
5.376793
5.379297
5.387536
5.388984
5.398658
5.398587
5.401593
5.40579
5.400423
5.402054
0.6909183
5.508239
5.625325
5.348646
5.358975
5.361793
5.367275
5.37074
5.377211
5.383139
5.385143
5.39429
5.392957
5.397356
5.398858
5.396916
5.400358
5.393545
0.7357374
5.583199
5.367164
5.44186
5.363536
5.360441
5.367705
5.370565
5.377726
5.385773
5.386745
5.390422
5.391477
5.39447
5.392727
5.396872
5.391032
5.390985
0.7485325
5.539039
5.402766
5.360553
5.358408
5.360315
5.36786
5.370091
5.378298
5.380309
5.386149
5.386347
5.391467
5.388769
5.395013
5.388317
5.387844
5.382603
0.7695952
5.593842
5.410646
5.35809
5.36056
5.360218
5.367729
5.369335
5.377617
5.377871
5.380465
5.382398
5.386156
5.383498
5.384879
5.381677
5.380437
5.375689
0.6631584
5.576649
5.423421
5.354407
5.360532
5.371284
5.367229
5.368339
5.376203
5.37491
5.378205
5.378327
5.380611
5.383825
5.37871
5.381008
5.37341
5.370987
0.3963314
5.512837
5.570485
5.359893
5.358687
5.36458
5.366574
5.367116
5.374106
5.372163
5.378444
5.37399
5.375649
5.375771
5.372843
5.370762
5.366837
5.363124
0.3023869
5.430937
5.440931
5.357126
5.359234
5.362104
5.365559
5.365715
5.371384
5.369221
5.374561
5.372684
5.370565
5.369839
5.36883
5.364505
5.361442
5.359505
0.5185329
5.657531
5.394206
5.358123
5.359799
5.361595
5.3643
5.36594
5.368192
5.366196
5.366802
5.366721
5.365557
5.36423
5.362155
5.359744
5.359699
5.359882
0.8342802
5.743103
5.387989
5.362207
5.360784
5.361098
5.362766
5.364567
5.364618
5.36318
5.3631
5.361654
5.360801
5.359864
5.359666
5.359866
5.359905
5.359915
2.259135
5.475989
5.383046
5.363815
5.361604
5.360703
5.361074
5.361119
5.36081
5.360389
5.359993
5.359827
5.359826
5.359867
5.359901
5.359916
5.359916
5.359915
2.560112
5.369118
5.361525
5.360666
5.360493
5.360039
5.359987
5.35988
5.359826
5.359894
5.359891
5.359907
5.359918
5.359914
5.359915
5.359916
5.359924
5.359915
2.708859
5.383357
5.360459
5.359954
5.364524
5.358583
5.359971
5.360152
5.360136
5.359943
5.359915
5.359915
5.359916
5.359915
5.359915
5.359915
5.359927
5.359915
2.890445
5.522005
5.361586
5.385539
5.370575
5.368483
5.359929
5.359928
5.359948
5.359941
5.359915
5.359915
5.359916
5.359915
5.359915
5.359915
5.359916
5.359915
3.121693
5.431194
5.360836
5.370293
5.367565
5.360144
5.35992
5.35992
5.359916
5.359916
5.359915
5.359915
5.359915
5.359916
5.359915
5.359915
5.359915
5.359916
3.215822
5.370209
5.360005
5.360919
5.360505
5.359919
5.359917
5.359909
5.359898
5.359915
5.359915
5.359915
5.359915
5.359915
5.359915
5.359915
5.359915
5.359916
3.301383
5.371373
5.359921
5.362744
5.360748
5.359919
5.359916
5.360066
5.360037
5.359915
5.359915
5.359915
5.359915
5.359915
5.359915
5.359915
5.359915
5.359915
3.385784
5.370997
5.359923
5.361736
5.362509
5.359916
5.359916
5.359924
5.359918
5.359915
5.359915
5.359915
5.359915
5.359915
5.359915
5.359915
5.359915
5.359915
3.469261
5.370146
5.359917
5.35996
5.359982
5.359915
5.359915
5.359915
5.359915
5.359915
5.359915
5.359915
5.359915
5.359915
5.359915
5.359915
5.359915
5.359915
3.547848
5.369516
5.359916
5.359916
5.359917
5.359915
5.359915
5.359915
5.359915
5.359915
5.359915
5.359915
5.359915
5.359915
5.359915
5.359915
5.359915
5.359915
3.629655
5.368917
5.359916
5.359915
5.359916
5.359915
5.359915
5.359915
5.359915
5.359915
5.359915
5.359915
5.359915
5.359915
5.359915
5.359915
5.359915
5.359915
3.709702
5.368387
5.359916
5.359915
5.359916
5.359915
5.359915
5.359915
5.359915
5.359915
5.359915
5.359915
5.359915
5.359915
5.359915
5.359915
5.359915
5.359915
3.786708
5.367716
5.359916
5.359915
5.359915
5.359915
5.359915
5.359915
5.359915
5.359915
5.359915
5.359915
5.359915
5.359915
5.359915
5.359915
5.359915
5.359915
3.863023
5.367638
5.359916
5.359915
5.359915
5.359915
5.359915
5.359915
5.359915
5.359915
5.359915
5.359915
5.359915
5.359915
5.359915
5.359915
5.359915
5.359915
3.943891
5.367153
5.359916
5.359915
5.359915
5.359915
5.359915
5.359915
5.359915
5.359915
5.359915
5.359915
5.359915
5.359915
5.359915
5.359915
5.359915
5.359915
4.021277
5.367234
5.359916
5.359915
5.359915
5.359915
5.359915
5.359916
5.359915
5.359915
5.359915
5.359915
5.359915
5.359915
5.359915
5.359915
5.359915
5.359915
4.103402
5.367218
5.359917
5.359915
5.359915
5.359915
5.359916
5.359916
5.359915
5.359915
5.359915
5.359915
5.359915
5.359915
5.359915
5.359915
5.359915
5.359915
4.184912
5.367399
5.359917
5.359915
5.359915
5.359917
5.359917
5.359915
5.359915
5.359915
5.359915
5.359915
5.359915
5.359915
5.359915
5.359915
5.359915
5.359915
4.274486
5.367105
5.359917
5.359916
5.359919
5.359921
5.359915
5.359915
5.359915