/*--------------------------------*- C++ -*----------------------------------*\
| =========                 |                                                 |
| \\      /  F ield         | OpenFOAM: The Open Source CFD Toolbox           |
|  \\    /   O peration     | Version:  2206                                  |
|   \\  /    A nd           | Website:  www.openfoam.com                      |
|    \\/     M anipulation  |                                                 |
\*---------------------------------------------------------------------------*/
FoamFile
{
    version     2.0;
    format      ascii;
    arch        "LSB;label=32;scalar=64";
    class       volScalarField;
    location    "1.2";
    object      p_rbgh;
}
// * * * * * * * * * * * * * * * * * * * * * * * * * * * * * * * * * * * * * //

dimensions      [1 -1 -2 0 0 0 0];

internalField   nonuniform List<scalar> 
13078
(
17.55434
16.41432
14.88543
13.49291
12.26219
11.03099
9.756708
17.33121
16.20829
14.87507
13.61683
12.4092
11.17469
9.889978
16.68958
15.94314
14.94563
13.83473
12.66837
11.43257
10.12975
16.53235
16.00402
15.18746
14.18509
13.04987
11.80752
10.47826
16.82925
16.38415
15.64959
14.68969
13.56911
12.307
10.94109
17.44892
17.03515
16.3303
15.37888
14.23743
12.94529
11.5277
18.34784
17.93907
17.23634
16.27183
15.08568
13.73362
12.25423
19.51806
19.09844
18.38161
17.37714
16.12902
14.70381
13.13149
20.9692
20.52715
19.77421
18.7136
17.3897
15.87296
14.19218
22.72197
22.24861
21.44563
20.31211
18.89359
17.26471
15.45307
24.80466
24.29195
23.42608
22.20251
20.66894
18.90521
16.9377
27.25159
26.69148
25.74958
24.41785
22.74703
20.8234
18.67225
30.10267
29.48659
28.45461
26.99504
25.16274
23.05142
20.68576
33.40349
32.72206
31.58462
29.97615
27.95708
25.62522
23.01058
37.20596
36.44875
35.18949
33.42303
31.20517
28.58776
25.68308
41.56888
40.72441
39.32629
37.39861
34.91785
31.98163
28.74416
46.55891
45.61392
44.05407
41.9077
39.13834
35.85754
32.24022
52.25183
51.19156
49.44651
47.04747
43.94901
40.27603
36.2244
58.73354
57.54135
55.58496
52.89787
49.42592
45.30976
40.7577
66.10121
64.75847
62.56165
59.54895
55.69314
51.11637
45.9161
74.46465
72.95044
70.48125
67.10424
62.86908
57.68338
51.77151
83.9477
82.23831
79.46014
75.66502
70.91263
65.07418
58.41208
94.68983
92.75874
89.63136
85.36434
80.02183
73.45345
65.95516
106.8478
104.6654
101.1445
96.34666
90.34441
83.04625
74.69245
120.5972
118.1307
114.1676
108.7757
102.0448
94.04665
84.5469
136.1341
133.3471
128.8885
122.8316
115.2726
106.2993
95.59096
153.6768
150.5298
145.518
138.7209
130.24
120.1664
108.1228
173.4676
169.9213
164.291
156.6743
147.1735
135.8908
122.57
195.775
191.7847
185.4681
176.9489
166.3275
153.7365
139.2649
220.9139
216.489
209.3476
199.8302
187.9777
173.9097
157.7271
249.2413
244.253
236.2473
225.6401
212.452
196.7777
178.7148
280.9522
275.4766
266.736
254.7777
240.1153
222.725
202.6856
316.4733
310.6411
301.0934
287.9964
271.4006
252.16
229.9631
356.1479
349.7379
339.7116
325.1871
306.7446
285.5566
261.0989
400.3379
393.2869
382.4214
366.9796
347.3478
323.5657
296.6838
449.3873
441.6867
430.0122
414.2367
393.3176
367.7331
337.4427
503.6008
495.2544
482.7854
466.1541
445.0687
417.2462
384.0633
563.2308
554.2673
541.0881
523.6304
501.6509
473.1488
438.9445
628.4665
618.9708
605.1802
587.1157
564.5582
536.9033
500.5252
699.5584
689.7823
675.3029
656.8178
633.9444
606.0914
570.0985
776.5018
766.6817
752.1964
733.0235
710.1752
682.7662
649.6985
858.585
849.3836
835.4725
816.8972
793.5906
767.1043
735.7962
945.6492
936.6347
924.6081
907.6261
886.07
860.0339
830.6513
1037.195
1028.549
1017.755
1004.615
986.5617
963.6962
933.8871
1132.695
1124.93
1115.567
1105.871
1094.048
1075.035
1047.475
1230.983
1224.901
1219.415
1213.653
1204.738
1191.411
1165.593
1330.094
1326.877
1326.636
1325.68
1320.225
1307.183
1285.077
1428.774
1428.542
1432.948
1438.037
1436.785
1426.5
1402.122
1525.326
1528.58
1537.419
1546.468
1549.718
1542.059
1515.612
1617.658
1624.295
1637.049
1649.023
1653.713
1645.904
1621.23
1703.989
1714.356
1729.613
1742.563
1747.606
1738.943
1713.145
1781.149
1794.291
1812.363
1827.291
1832.621
1823.07
1793.708
1845.533
1859.708
1879.857
1895.748
1900.269
1887.8
1852.592
1895.468
1909.977
1930.19
1945.345
1947.639
1930.931
1890.596
1929.849
1944.521
1964.642
1979.058
1979.498
1959.53
1914.219
1947.802
1962.636
1982.842
1997.084
1996.893
1975.693
1928.049
1947.976
1962.819
1983.035
1997.337
1997.365
1976.619
1929.784
1930.249
1944.89
1964.99
1979.515
1980.389
1961.226
1917.385
1895.853
1910.192
1930.216
1945.316
1947.825
1931.583
1892.247
1845.689
1859.486
1879.167
1894.645
1898.83
1886.028
1850.479
1780.962
1793.486
1810.689
1824.668
1828.93
1818.057
1787.003
1703.478
1713.016
1727.017
1738.5
1741.951
1731.435
1703.488
1616.943
1622.692
1633.993
1644.233
1647.055
1637.199
1610.291
1524.504
1526.996
1534.407
1541.62
1542.872
1533.091
1504.338
1427.827
1427.084
1430.319
1433.674
1430.401
1418.005
1391.522
1328.933
1325.469
1324.475
1322.124
1314.876
1299.894
1275.869
1229.489
1223.331
1217.515
1210.909
1200.599
1185.709
1159.327
1130.785
1122.996
1113.543
1103.493
1090.904
1071.487
1043.426
1034.832
1026.15
1015.315
1002.113
984.3584
961.4663
930.4071
942.849
933.7688
921.6984
905.1116
884.0477
858.2579
826.586
855.4035
846.1465
832.4511
814.2381
791.3379
763.9864
730.8428
773.0405
763.3452
749.0944
730.2048
706.817
678.2722
643.5056
695.9921
686.3858
672.1488
653.3466
629.7295
600.7776
563.7509
624.8402
615.5624
601.9136
583.3523
559.9449
531.6733
494.5474
559.6171
550.8483
537.5922
519.7775
497.168
468.2579
433.5797
500.0829
491.8011
479.2014
462.2358
440.275
412.4414
379.3882
446.0378
438.3494
426.5274
410.6287
389.2893
363.2618
333.4448
397.1655
390.1497
379.2094
363.7271
344.0441
320.1973
293.3621
353.218
346.8268
336.8002
322.2858
303.8631
282.7064
258.327
313.8204
308.0139
298.4939
285.4365
268.8979
249.7352
227.6559
278.5776
273.1335
264.4372
252.5396
237.9549
220.6676
200.766
247.1353
242.1822
234.2299
223.6925
210.5942
195.0343
177.1162
219.0602
214.671
207.5857
198.1425
186.3841
172.4326
156.3919
194.1523
190.1975
183.936
175.4909
164.9625
152.4843
138.1468
172.0535
168.5407
162.9633
155.4175
146.0053
134.8288
121.6356
152.4489
149.3328
144.3702
137.6395
129.2408
119.2646
107.338
135.0707
132.3118
127.8984
121.9023
114.4183
105.5332
94.92917
119.6781
117.2369
113.3148
107.978
101.3151
93.39644
83.98935
106.0546
103.8947
100.4107
95.66276
89.72205
82.49746
74.22659
94.00561
92.09456
89.00037
84.7784
79.49161
72.99063
65.56834
83.35724
81.66569
78.91742
75.16307
70.46125
64.68402
58.09108
73.95425
72.45597
70.01379
66.67384
62.48481
57.35483
51.50591
65.65858
64.33012
62.15785
59.17903
55.36624
50.84016
45.6969
58.34762
57.16832
55.23437
52.57845
49.14646
45.07738
40.57712
51.9127
50.86414
49.13978
46.76962
43.70823
40.079
36.07552
46.25766
45.32342
43.78282
41.66345
38.92877
35.68893
32.11681
41.29753
40.46303
39.08302
37.18087
34.73283
31.83522
28.64039
36.95742
36.20957
34.96757
33.22574
31.03895
28.45794
25.59351
33.17152
32.49901
31.37821
29.79362
27.80454
25.50711
22.93043
29.88186
29.27444
28.25874
26.82246
25.01925
22.94097
20.61123
27.0374
26.48585
25.56017
24.25151
22.60921
20.71758
18.60065
24.59334
24.08938
23.24004
22.03973
20.53449
18.80206
16.86742
22.5104
22.04643
21.26087
20.1513
18.76133
17.16335
15.38351
20.75443
20.3232
19.58955
18.55436
17.25966
15.77362
14.12368
19.29626
18.89043
18.19648
17.22012
16.00245
14.60784
13.06527
18.11236
17.72323
17.05019
16.11861
14.96496
13.64342
12.19228
17.18667
16.80381
16.1411
15.23117
14.1257
12.86398
11.47273
16.51361
16.12126
15.45175
14.54824
13.46961
12.23809
10.89549
16.10527
15.67697
14.97004
14.05006
12.96608
11.75378
10.44395
16.00886
15.49262
14.69652
13.70998
12.60386
11.39588
10.10753
16.36138
15.61733
14.61316
13.51748
12.36915
11.15525
9.878789
17.167
16.02748
14.69813
13.44978
12.2506
11.02608
9.753768
8.446177
7.122261
5.804062
4.817037
3.533736
2.297304
1.170691
8.56591
7.226632
5.89304
4.872612
3.570449
2.307128
1.118141
8.779926
7.410183
6.040828
4.674534
3.642636
2.339938
1.120224
9.091382
7.678492
6.264627
5.147133
3.753595
2.397838
1.133261
9.504905
8.033349
6.552067
5.377574
3.908825
2.481008
1.154658
10.02906
8.484196
6.921467
5.667136
4.10812
2.590014
1.184225
10.67491
9.040324
7.378256
6.025649
4.337373
2.726862
1.22267
11.45939
9.712996
7.931321
6.46116
4.617588
2.894362
1.271123
12.39147
10.51888
8.591717
6.984402
4.970319
3.095869
1.327958
13.50416
11.46386
9.375021
7.604835
5.389441
3.336202
1.39717
14.81361
12.58127
10.28291
8.336532
5.883986
3.621552
1.481116
16.34291
13.88675
11.34966
9.180686
6.467507
3.959479
1.584255
18.11775
15.40257
12.59064
10.16869
7.142778
4.362768
1.705651
20.16664
17.15316
14.02633
11.31742
7.940918
4.834262
1.864619
22.5212
19.16504
15.6778
12.64458
8.875337
5.424674
2.123584
25.21697
21.46741
17.56686
14.16531
9.948818
6.108647
2.415824
28.2943
24.09366
19.7185
15.89535
11.16725
6.878206
2.943998
31.79973
27.08287
22.16387
17.86774
12.72058
7.687637
3.168195
35.78683
30.4807
24.93937
20.09201
14.28072
8.579365
3.448953
40.31765
34.34051
28.08999
22.61301
16.0401
9.584671
3.777172
45.46288
38.72377
31.66686
25.47299
18.03341
10.72288
4.15268
51.30326
43.70137
35.72961
28.71711
20.29298
12.01238
4.57823
57.93118
49.35456
40.35642
32.3777
22.86168
13.4747
5.059154
65.46391
55.76947
45.58603
35.01455
26.16209
15.15937
5.604227
74.00698
63.06399
51.61055
41.40186
29.70004
17.05588
6.221874
83.68565
71.31404
58.32866
46.81855
33.60211
19.21317
6.922625
94.70293
80.68151
66.00043
52.98073
38.02865
21.67832
7.718147
107.6324
91.30946
74.73728
60.00791
43.11206
25.17132
8.623308
122.3558
104.9588
86.88774
68.0409
48.92743
28.71154
9.650063
138.6304
118.9494
98.57975
77.32179
55.59641
32.5537
10.82259
157.8644
135.8302
112.0337
87.97127
63.27881
37.59691
12.21837
180.0984
154.889
127.5263
100.2849
72.20296
43.95709
13.79901
204.9065
178.0272
145.5901
114.636
82.63593
50.28714
15.62491
233.3525
203.2655
167.9566
131.5246
94.99285
57.92738
19.5908
266.1821
232.5719
194.3223
151.6707
109.8643
67.06163
22.45652
304.1164
266.6455
226.5371
176.143
128.1384
78.39194
26.76078
347.9772
306.4856
262.6836
209.5938
151.2251
93.32185
34.12833
398.7739
353.1158
305.6776
248.7315
182.4886
114.1645
43.43676
457.3449
407.5759
357.1666
299.1658
226.0219
144.6676
58.10821
527.0392
470.8561
418.4351
357.5174
281.2001
187.0541
82.49841
605.6992
544.062
490.1411
426.3466
349.7262
241.0866
117.128
695.261
632.9889
575.8236
507.8027
421.6724
303.8089
153.3318
791.5644
727.4933
671.0572
599.0545
497.6397
363.1184
186.6238
894.8337
827.8057
769.9819
694.347
581.6327
419.7733
221.0479
1008.53
945.0377
887.4142
799.4505
667.5709
468.498
246.023
1128.058
1061.866
1001.368
911.4314
747.003
529.502
263.1259
1245.618
1176.747
1111.625
1008.785
840.4731
596.4257
304.9326
1356.377
1286.797
1213.294
1106.015
924.803
678.7027
384.6701
1468.306
1391.266
1311.888
1191.288
998.2428
748.6572
453.5155
1572.724
1490.419
1400.12
1266.935
1057.128
795.8228
510.2749
1668.3
1596.999
1496.952
1336.934
1107.491
824.9899
519.0251
1744.023
1675.261
1577.784
1398.022
1143.226
824.9146
496.9567
1796.928
1731.223
1622.712
1430.955
1161.266
826.7529
517.7623
1824.804
1752.875
1631.503
1443.423
1172.186
840.4379
499.4831
1839.314
1757.725
1618.989
1422.482
1149.132
787.2431
485.113
1849.244
1761.177
1608.106
1393.508
1094.451
702.6307
1852.291
1765.788
1610.87
1393.85
1084.662
678.8043
1845.389
1767.883
1626.244
1423.624
1137.198
759.7359
1828.8
1763.712
1638.063
1442.034
1170.557
837.4212
541.4616
1794.669
1746.012
1629.216
1442.787
1170.981
845.5829
538.7377
1734.832
1696.756
1595.308
1417.715
1161.198
858.066
543.0747
1655.93
1624.746
1531.698
1367.834
1129.116
851.5478
563.279
1559.175
1529.06
1426.011
1283.779
1066.39
803.2306
522.7343
1454.56
1423.606
1338.5
1210.833
1010.314
756.4867
455.3895
1344.252
1326.031
1244.671
1135.439
958.9377
711.0965
381.0148
1234.53
1216.706
1148.73
1050.699
894.5447
657.0126
347.541
1120.009
1110.055
1043.2
953.6582
802.7394
585.6316
312.9867
1002.737
992.5853
929.6581
844.6052
705.1668
503.5467
269.4864
889.7106
877.1927
815.0282
726.4795
604.5887
428.4082
208.3471
783.4886
767.4079
706.2672
625.6133
511.3948
363.544
169.8792
686.999
669.3984
609.7137
531.7622
431.038
303.415
148.1294
597.9403
577.7935
518.9375
447.067
362.9544
252.5047
123.3916
519.3513
496.9449
441.6981
377.2298
301.6398
201.3715
97.635
450.4578
430.0443
377.4334
317.3378
243.1582
158.7586
68.89585
392.8926
372.6688
323.3147
267.2026
195.6136
124.6976
50.49567
343.0913
323.5302
277.9457
222.6759
162.0524
101.1535
38.3217
300.1174
281.5076
239.7894
189.0278
136.6058
84.15339
31.1347
262.9342
245.548
206.9278
160.8916
116.854
71.62139
24.1603
230.7199
214.7065
178.4857
139.3622
100.9019
61.76012
21.16181
202.7706
188.05
154.0304
121.4192
87.70892
53.57103
17.84089
178.361
164.034
134.9036
106.1966
76.61187
46.80187
14.89469
156.4521
143.8514
118.4585
93.153
67.14512
40.99312
13.23804
137.475
125.644
104.2485
81.88742
58.99445
34.69973
11.72427
121.4012
110.8005
91.86569
72.08727
51.93155
30.59066
10.46489
106.8442
90.68579
74.28447
63.49148
45.78003
27.02911
9.362945
94.04937
80.16662
65.63386
56.05894
40.38146
23.36265
8.393666
83.13853
70.88428
58.02181
49.54528
35.69312
20.50566
7.538875
73.54907
62.70151
51.32012
43.82065
31.58669
18.22114
6.785037
65.08852
55.4897
45.41873
38.78374
27.97107
16.21004
6.119601
57.62499
49.13374
40.22184
34.35035
24.4273
14.42129
5.528629
51.0557
43.53232
35.64451
30.44835
21.59537
12.85354
5.006457
45.26408
38.59582
31.61237
27.0126
19.19533
11.47922
4.544088
40.15931
34.24619
28.0608
23.98717
17.0815
10.26789
4.135295
35.66221
30.41483
24.93306
21.32355
15.22142
9.202237
3.775582
31.70302
27.04124
22.17878
18.97847
13.58543
8.269138
3.463053
28.22007
24.07191
19.75205
16.90376
12.06774
7.460585
3.220417
25.15967
21.46008
17.61337
15.07774
10.70229
6.75143
3.094042
22.47524
19.16565
15.72817
13.46022
9.558626
6.021079
2.761287
20.12705
17.1559
14.07253
12.02955
8.521825
5.279754
2.111207
18.08081
15.40369
12.62898
10.78006
7.626713
4.704497
1.89484
16.30631
13.88457
11.37984
9.70163
6.869825
4.246305
1.740992
14.77625
12.57551
10.30602
8.777585
6.229177
3.864476
1.619435
13.46584
11.45491
9.392514
7.985621
5.683719
3.544867
1.520541
12.35265
10.50753
8.605165
7.307058
5.221065
3.27554
1.437317
11.42115
9.700541
7.941686
6.732839
4.830234
3.048719
1.368441
10.63901
9.027773
7.386259
6.250946
4.503255
2.858281
1.308228
9.997113
8.472482
6.927578
5.853049
4.258523
2.700192
1.257324
9.478431
8.023146
6.556094
5.527354
4.031793
2.571336
1.21567
9.071528
7.670092
6.263848
5.268704
3.851261
2.469389
1.182656
8.767361
7.405583
6.044349
5.071429
3.713812
2.392371
1.158152
8.559525
7.223955
5.892543
4.930818
3.616091
2.338842
1.140774
8.444415
7.121601
5.80467
4.842885
3.554632
2.308487
1.138113
0.6316293
0.6379797
0.63778
0.6334128
0.6281174
0.6218352
0.6136002
0.6058406
0.5963388
0.5860452
0.5750826
0.5634889
0.5512947
0.5385317
0.5252193
0.511412
0.4971514
0.4824643
0.640857
0.6392934
0.6353505
0.6303757
0.6248953
0.6185058
0.6100368
0.6015874
0.5921697
0.5820012
0.5711432
0.5596409
0.5475306
0.5348482
0.5215693
0.5077923
0.4936113
0.4790062
0.6364237
0.640019
0.6338467
0.6281309
0.6222272
0.6154451
0.6072703
0.5982438
0.5886956
0.5785744
0.5677833
0.55634
0.5442815
0.5316469
0.5183698
0.5045912
0.4904565
0.4759006
0.6336734
0.6381463
0.6326255
0.6265454
0.6202766
0.6131409
0.6051556
0.595393
0.5858191
0.57576
0.565011
0.5535923
0.5415502
0.5289284
0.5156195
0.5018061
0.4876836
0.4731434
0.6314447
0.6367433
0.6320223
0.6258163
0.6190902
0.6117206
0.6044205
0.5928623
0.5835662
0.5735919
0.5628391
0.5514039
0.5393388
0.5266924
0.5133724
0.4994354
0.4852884
0.4707298
0.6304684
0.6358742
0.6318768
0.6257148
0.6185997
0.6109377
0.6035372
0.5915049
0.5821134
0.5721221
0.5612817
0.5497793
0.5376477
0.5249376
0.5116774
0.4974806
0.4832661
0.4686544
0.6306007
0.6355921
0.6322796
0.6262074
0.6187641
0.6106563
0.6029482
0.5909539
0.5816797
0.5714398
0.5603459
0.5487154
0.5364734
0.523661
0.5103028
0.4959229
0.4816113
0.4669109
0.6329382
0.6356645
0.6332939
0.6272938
0.6195866
0.6108665
0.6019523
0.5930788
0.5823184
0.5714676
0.5599961
0.5481956
0.5358088
0.5228589
0.5093619
0.4947641
0.4803181
0.4654919
0.6321196
0.6373945
0.6350346
0.6289896
0.6211061
0.6119097
0.6021025
0.595832
0.5832734
0.5720449
0.5603633
0.5481961
0.5356484
0.5225287
0.5088579
0.4939983
0.4793792
0.4643893
0.6342624
0.6393685
0.6373152
0.6312412
0.6232938
0.6139416
0.604545
0.5981951
0.5837333
0.5750238
0.5613945
0.5487518
0.5360018
0.5226722
0.5087858
0.4936191
0.478787
0.4635933
0.63603
0.642739
0.6399401
0.6339672
0.6260276
0.6166075
0.6071292
0.5986132
0.5878442
0.5763851
0.5623738
0.5498682
0.5368791
0.5232911
0.5091422
0.4936238
0.4785338
0.463095
0.6433981
0.6449143
0.6428702
0.6371104
0.6292232
0.619776
0.6099123
0.5997728
0.5903562
0.5773801
0.5644545
0.5515922
0.5382848
0.5243853
0.5099236
0.4940052
0.4786098
0.4628803
0.6444303
0.6494813
0.646324
0.6405712
0.6328609
0.6235369
0.6134594
0.6029151
0.5922288
0.5800739
0.5671473
0.5538893
0.540215
0.5259529
0.5111279
0.4947506
0.479002
0.4629346
0.6407314
0.6534191
0.6503075
0.6441898
0.6369585
0.6279587
0.6178181
0.6070142
0.5956396
0.5835279
0.5703573
0.5567716
0.5426682
0.5279912
0.5127489
0.4958514
0.4796968
0.4632416
0.6519723
0.6485709
0.654176
0.6479183
0.641536
0.6330925
0.6229897
0.6119236
0.6000685
0.5876907
0.5742649
0.5602105
0.5456451
0.5304988
0.5147806
0.4972962
0.4806788
0.4637818
0.6508693
0.6420296
0.6571494
0.6524369
0.6460785
0.6388871
0.6290517
0.6177003
0.6053718
0.5926183
0.5787791
0.5642951
0.5491609
0.5334764
0.5172164
0.4990713
0.4819296
0.4645331
0.6454969
0.6420769
0.662298
0.6592806
0.6525648
0.6453599
0.6360858
0.6244007
0.6115414
0.5983382
0.5840397
0.568941
0.5532239
0.5369224
0.5200479
0.5011604
0.4834278
0.4654695
0.684073
0.6645551
0.6767312
0.6699311
0.6618564
0.6536147
0.6440483
0.6321144
0.6186655
0.6048642
0.5899667
0.5742365
0.5578252
0.5408322
0.5232644
0.5035441
0.485148
0.4665602
0.7128911
0.6929336
0.6918425
0.6829059
0.6735815
0.6638181
0.6533021
0.6408905
0.6267031
0.6122485
0.5966388
0.5801865
0.5629802
0.5452016
0.526852
0.5061987
0.4870601
0.4677701
0.7309617
0.7119141
0.7068916
0.6976785
0.687126
0.6756709
0.6639511
0.6507357
0.635764
0.6204902
0.6041061
0.5867533
0.568701
0.5500246
0.5307768
0.5090939
0.4891289
0.4690579
0.7458632
0.7222703
0.7233963
0.714191
0.7015741
0.6890625
0.6759828
0.6617689
0.6458384
0.6296616
0.6123345
0.5940289
0.5749561
0.555287
0.5342051
0.5121607
0.4913131
0.4703751
0.7607415
0.740387
0.7412732
0.7323052
0.7172197
0.7039151
0.6896213
0.6740208
0.6569974
0.6397997
0.621364
0.601982
0.5817596
0.5609725
0.5384118
0.5154099
0.4935608
0.4716654
0.7804172
0.7577885
0.7603216
0.7512212
0.7349408
0.7203896
0.7048547
0.6878272
0.669341
0.6509051
0.6312611
0.6105879
0.5891134
0.5670572
0.543126
0.5187904
0.4958121
0.4728619
0.8044714
0.7776429
0.7810567
0.7716655
0.754674
0.7385795
0.7216869
0.7032236
0.6831512
0.6630531
0.6419788
0.6198856
0.5970032
0.5735182
0.5480483
0.5222243
0.497995
0.4738832
0.8330725
0.7997595
0.8039462
0.7940853
0.7760321
0.7584881
0.7401747
0.7201141
0.6983429
0.6765615
0.6536179
0.6298846
0.6053997
0.58031
0.5531189
0.5256365
0.5000228
0.4746338
0.8662841
0.8240269
0.8290728
0.8188727
0.800028
0.7801286
0.7604199
0.7385764
0.7149593
0.6913585
0.6664615
0.6406269
0.6142751
0.5873196
0.5574356
0.5289389
0.5017925
0.4750021
0.9044143
0.8507657
0.8568081
0.8462807
0.8267643
0.8038795
0.7826344
0.7587776
0.7331246
0.707445
0.6804112
0.6523143
0.6236299
0.5945742
0.561243
0.5320013
0.5031792
0.4748574
0.9474589
0.8805254
0.887264
0.8764853
0.856132
0.8308114
0.8070793
0.780989
0.7529273
0.724906
0.6953847
0.6648072
0.6336065
0.6020495
0.5659843
0.5347095
0.5040388
0.4740495
0.9953582
0.9132888
0.9209616
0.9098471
0.8886203
0.8611959
0.8341358
0.8054183
0.7745474
0.7437657
0.7113671
0.6780137
0.644017
0.609675
0.5704661
0.5368994
0.5041977
0.4723964
1.048555
0.9495735
0.958843
0.9474055
0.9248936
0.8945092
0.8641815
0.8323397
0.7982352
0.7641349
0.7284457
0.6918466
0.6546963
0.6151792
0.5745723
0.53841
0.5034456
0.469681
1.107592
0.9908959
1.003507
0.9911085
0.9652448
0.9313839
0.8974187
0.8619897
0.8242289
0.785974
0.7466024
0.7061672
0.6654877
0.6215858
0.5780968
0.5391066
0.5016496
0.4657469
1.178935
1.041315
1.05631
1.042767
1.009091
0.9716529
0.934357
0.8950912
0.8534714
0.809444
0.7657409
0.7209496
0.6762063
0.6279975
0.580676
0.5386207
0.4984876
0.4576186
1.278579
1.09627
1.12881
1.113127
1.062019
1.017707
0.9756651
0.9311081
0.8841309
0.8348078
0.7857019
0.7360406
0.686363
0.6306432
0.5818951
0.5364865
0.4933929
0.4483213
1.38294
1.186476
1.209846
1.186395
1.123982
1.072232
1.022765
0.9710805
0.9175993
0.8617895
0.8064003
0.7510847
0.6959525
0.6330922
0.5812984
0.5322509
0.4857865
0.4347534
1.481648
1.215339
1.245587
1.244218
1.176022
1.134828
1.077178
1.015874
0.9545692
0.8903323
0.8277201
0.7656392
0.7042238
0.6348468
0.5783638
0.5253856
0.4710434
0.4207953
1.607656
1.28235
1.305206
1.302226
1.255895
1.207255
1.13853
1.066541
0.9957747
0.9199771
0.8492048
0.7791349
0.7049954
0.6336391
0.5723965
0.5150281
0.4549532
0.40356
1.768319
1.40951
1.401201
1.391591
1.341271
1.284752
1.207091
1.122861
1.037891
0.9503838
0.8699611
0.7909712
0.7079157
0.6292253
0.5625892
0.5005427
0.4326501
0.382126
2.26653
1.637754
1.515888
1.502607
1.444076
1.374858
1.282746
1.181922
1.082937
0.980649
0.8891185
0.7997178
0.6993664
0.6203277
0.5479599
0.4744698
0.408411
0.3558473
3.261009
1.824067
1.67926
1.638194
1.567283
1.478548
1.366314
1.245369
1.129157
1.010324
0.9054427
0.8047011
0.6921451
0.6057231
0.5270082
0.4408585
0.378503
0.3239248
4.549957
2.080033
1.847384
1.805718
1.711155
1.596729
1.457806
1.312039
1.174663
1.037301
0.9172195
0.7952709
0.6780231
0.583959
0.4929906
0.4065289
0.3416998
0.2855299
7.436833
2.428941
2.084808
2.002265
1.875355
1.729652
1.55603
1.380053
1.217365
1.058906
0.9228647
0.7827344
0.6552847
0.5528658
0.4480058
0.3634294
0.296891
0.2397772
6.683239
3.011385
2.338637
2.21676
2.061467
1.87126
1.656852
1.447388
1.255745
1.073666
0.918848
0.7473842
0.6217107
0.5023373
0.3911458
0.3107028
0.2429765
0.1854303
7.260638
3.594909
2.711971
2.422897
2.269659
2.007329
1.754044
1.509635
1.287299
1.078272
0.9029931
0.7109479
0.5745022
0.4407011
0.3280894
0.2464981
0.1782971
0.1154601
6.029162
3.750132
2.889638
2.676637
2.430158
2.141292
1.850169
1.565427
1.308211
1.068898
0.8494152
0.6565549
0.5087952
0.3519949
0.2508748
0.1686183
0.09399857
0.03798971
7.965384
3.858929
3.123323
2.926391
2.602943
2.283191
1.94684
1.612851
1.306157
1.039519
0.7841616
0.58175
0.4027228
0.2568679
0.1559225
0.06571125
6.957067e-05
-0.05110344
9.6295
3.954751
3.438531
3.192233
2.830447
2.436398
2.031886
1.648029
1.282895
0.9850283
0.6801178
0.4787958
0.2674977
0.1409938
0.03215422
-0.05045654
-0.1112994
-0.1551789
21.4552
3.848027
3.696123
3.489138
3.059448
2.622685
2.119861
1.662478
1.238086
0.8785013
0.5580765
0.3231209
0.1224861
-0.009882572
-0.114681
-0.1909414
-0.237413
-0.2672448
69.87885
3.988337
4.191086
3.90372
3.326112
2.812952
2.199998
1.636611
1.153101
0.7061267
0.3796445
0.1183897
-0.06875942
-0.199672
-0.2919207
-0.3443146
-0.3799499
-0.3932305
104.4042
5.250061
5.039579
4.347626
3.778166
3.013719
2.262715
1.566784
0.9612192
0.4961371
0.1401827
-0.134436
-0.3114407
-0.4252659
-0.4944915
-0.5217404
-0.5289282
-0.5268459
173.63
7.795655
6.14476
4.94419
0.7000775
0.1665002
-0.1900387
-0.4432284
-0.603315
-0.6849247
-0.7180897
-0.713187
-0.6962616
-0.6638924
216.0667
10.16699
-0.5979414
-0.8433833
-0.9432625
-0.9722244
-0.9595121
-0.9180975
-0.864263
-0.8065485
200.0715
-1.28836
-1.33795
-1.298754
-1.213744
-1.127307
-1.030269
-0.9353976
-1.767872
-1.619349
-1.462282
-1.314978
-1.177921
-1.058336
-1.907645
-1.68188
-1.480353
-1.304919
-1.155867
-2.158844
-1.849317
-1.599139
-1.395429
-1.22288
-2.283899
-1.941455
-1.661921
-1.438096
-1.254241
-2.273272
-1.933929
-1.652293
-1.42755
-1.243552
-2.14698
-1.823814
-1.571073
-1.362663
-1.190554
-1.859316
-1.6385
-1.427617
-1.253061
-1.103057
-1.656154
-1.543337
-1.382273
-1.240915
-1.101241
-0.983676
247.0057
-1.244816
-1.1779
-1.105062
-1.015789
-0.9235011
-0.8378641
259.2953
24.00843
-0.6394679
-0.7589221
-0.8117915
-0.8113633
-0.7802714
-0.7388774
-0.6847904
202.6515
11.17411
7.801079
0.5895003
0.1252629
-0.1914361
-0.3694711
-0.4761864
-0.5303551
-0.5413687
-0.5383458
-0.5212108
123.5233
7.188178
6.580294
5.794046
4.904061
3.968878
3.103759
2.275071
1.545162
0.9730108
0.5136689
0.1928285
-0.03388758
-0.1796218
-0.274889
-0.3220514
-0.3490581
-0.3593498
61.23215
5.484395
5.709274
5.188067
4.511574
3.785383
3.031649
2.33037
1.74839
1.210199
0.8103374
0.4885531
0.2485891
0.07827554
-0.04272251
-0.1186446
-0.1751918
-0.2062412
42.80965
5.048975
5.272016
4.706602
4.121133
3.555226
2.928442
2.363541
1.849607
1.402856
1.020537
0.7060914
0.4772445
0.2980248
0.1586579
0.05637003
-0.01297142
-0.06195984
18.33406
5.000231
4.654479
4.276671
3.801603
3.322676
2.810117
2.331838
1.889921
1.51475
1.153799
0.8933399
0.6393724
0.4768484
0.3315516
0.2157099
0.127427
0.06997726
9.897709
4.75189
4.213217
3.896121
3.512341
3.09944
2.682346
2.276644
1.896772
1.577981
1.245211
1.013725
0.7820978
0.6055171
0.4661008
0.347007
0.2619154
0.1835037
6.336358
4.592719
3.77872
3.54073
3.238119
2.897623
2.548793
2.205312
1.892953
1.601166
1.330814
1.092199
0.8921928
0.7077522
0.5770958
0.4616851
0.361412
0.2873458
6.013466
4.311249
3.385728
3.221002
2.982515
2.704501
2.413436
2.123044
1.855079
1.599814
1.369858
1.145417
0.9733552
0.7985495
0.6595626
0.5515268
0.4543576
0.3685269
5.965237
3.831749
3.038096
2.934566
2.747893
2.527652
2.279939
2.034411
1.804233
1.582262
1.391046
1.177165
1.019477
0.8621441
0.724199
0.6188257
0.5277144
0.4446542
6.98363
3.321047
2.785461
2.686865
2.536039
2.359818
2.149723
1.942669
1.745589
1.552645
1.383545
1.203121
1.048624
0.9172225
0.7748408
0.6722954
0.5831357
0.5049804
7.933077
2.926853
2.556648
2.472251
2.345206
2.199911
2.025476
1.851124
1.682455
1.514782
1.365918
1.210237
1.064573
0.9444372
0.8227546
0.7137316
0.627493
0.5510037
5.05341
2.567781
2.34378
2.281765
2.174744
2.05479
1.909113
1.761928
1.617052
1.47156
1.339999
1.209941
1.070711
0.9598324
0.8573395
0.7452596
0.6622458
0.5882564
4.071826
2.360963
2.188761
2.115279
2.022814
1.922389
1.800603
1.675269
1.551582
1.42513
1.308919
1.196044
1.068248
0.9666525
0.8721172
0.7731882
0.6888623
0.6178595
2.491909
2.062601
2.046421
1.968436
1.888338
1.803541
1.700425
1.593998
1.486972
1.376922
1.274521
1.1737
1.06552
0.9668485
0.8797954
0.7934997
0.708785
0.6408318
2.190266
1.885995
1.889012
1.842468
1.767501
1.696538
1.609172
1.518584
1.424953
1.328848
1.238323
1.14892
1.053814
0.9616037
0.8815364
0.8058281
0.722646
0.6580567
1.987899
1.688804
1.749941
1.738487
1.657913
1.599213
1.524744
1.445118
1.365941
1.281715
1.20164
1.121636
1.038869
0.952685
0.8788013
0.808872
0.736934
0.6702959
1.748368
1.581218
1.646526
1.63034
1.561132
1.510283
1.447545
1.37847
1.308386
1.236075
1.164928
1.09326
1.02189
0.9405097
0.8725567
0.8077592
0.7429852
0.678582
1.650982
1.525544
1.572585
1.526713
1.475555
1.431313
1.377732
1.317766
1.256076
1.192396
1.128844
1.064456
0.9998634
0.9261374
0.8636234
0.8036106
0.7462446
0.6845259
1.557401
1.457805
1.49522
1.448153
1.401355
1.361872
1.314466
1.261706
1.207277
1.150679
1.093734
1.035691
0.9772611
0.9134923
0.8526475
0.7970404
0.7437459
0.6887998
1.468903
1.380145
1.426569
1.390491
1.343334
1.299646
1.256901
1.21003
1.160889
1.111042
1.059805
1.007311
0.9542462
0.8970527
0.8401348
0.7885893
0.7388862
0.6900559
1.390284
1.295027
1.365171
1.334828
1.284694
1.242342
1.204001
1.162257
1.117754
1.073468
1.027196
0.9795676
0.931181
0.8789212
0.8265452
0.778745
0.732355
0.687653
1.316717
1.239147
1.30351
1.275562
1.225711
1.188836
1.155083
1.117857
1.077918
1.037936
0.9959988
0.952639
0.9083849
0.8626578
0.81237
0.7681175
0.7249264
0.6827207
1.252285
1.189876
1.248648
1.220052
1.166966
1.139066
1.109848
1.076636
1.040691
1.004434
0.9662627
0.9266425
0.886044
0.8447693
0.7979489
0.7569306
0.7165123
0.6767983
1.195209
1.145012
1.19768
1.167419
1.115097
1.093506
1.068171
1.038436
1.005926
0.9728954
0.9380003
0.9016576
0.8643197
0.8264894
0.7834851
0.7452253
0.7073464
0.6699606
1.144037
1.103933
1.149644
1.119963
1.070371
1.051977
1.029981
1.003102
0.973494
0.9432447
0.9111972
0.8777596
0.8435949
0.8087491
0.7690154
0.733196
0.697637
0.6623947
1.097395
1.065744
1.104547
1.075269
1.032234
1.01466
0.9948415
0.9704188
0.9432554
0.9153921
0.8858185
0.8552438
0.8238314
0.7915198
0.7564661
0.7209906
0.6875543
0.6542888
1.05478
1.029439
1.06183
1.032009
0.9979936
0.9808453
0.9625104
0.9401905
0.9150582
0.8892397
0.8621944
0.8340829
0.8048125
0.7746635
0.7420021
0.7087408
0.6772422
0.6457917
1.015686
0.9964466
1.02303
0.9928928
0.9669334
0.9497512
0.9324572
0.912138
0.8887334
0.865043
0.8401524
0.8138988
0.7865536
0.758329
0.7277625
0.6965555
0.6668207
0.6370341
0.9814129
0.9656138
0.9864122
0.9591716
0.9372603
0.9207234
0.9045419
0.8859851
0.8644382
0.8426074
0.8192759
0.7946931
0.7690589
0.7425546
0.7138698
0.6845165
0.6563871
0.6281245
0.951697
0.9394078
0.9521566
0.9278722
0.9083735
0.8935046
0.8786157
0.8618901
0.8419902
0.8214477
0.7995292
0.7764322
0.7523242
0.7273627
0.7003833
0.6726893
0.6460214
0.6191554
0.9259206
0.9137326
0.9210479
0.8965987
0.8812737
0.8682444
0.8549558
0.8396019
0.8208694
0.8015106
0.7808533
0.7590825
0.7363407
0.7127633
0.6881124
0.6611652
0.6357877
0.6102023
0.9008384
0.8895793
0.8916587
0.8698083
0.8565428
0.845261
0.8334825
0.8187379
0.8010217
0.7827288
0.7631953
0.7426123
0.7210963
0.6987633
0.6756758
0.6499156
0.6257404
0.601326
0.8708741
0.859452
0.8627231
0.8459713
0.834284
0.8247103
0.8137336
0.7992663
0.7823678
0.765043
0.746512
0.7269912
0.7065767
0.6853645
0.6634099
0.6389884
0.6159217
0.5925777
0.8179161
0.8208689
0.8383158
0.8240844
0.8146664
0.8059411
0.7953193
0.7810571
0.7647997
0.7483287
0.7307621
0.7121916