/*--------------------------------*- C++ -*----------------------------------*\
| =========                 |                                                 |
| \\      /  F ield         | OpenFOAM: The Open Source CFD Toolbox           |
|  \\    /   O peration     | Version:  2206                                  |
|   \\  /    A nd           | Website:  www.openfoam.com                      |
|    \\/     M anipulation  |                                                 |
\*---------------------------------------------------------------------------*/
FoamFile
{
    version     2.0;
    format      ascii;
    arch        "LSB;label=32;scalar=64";
    class       volScalarField;
    location    "1.2";
    object      pff;
}
// * * * * * * * * * * * * * * * * * * * * * * * * * * * * * * * * * * * * * //

dimensions      [1 -1 -2 0 0 0 0];

internalField   nonuniform List<scalar> 
13078
(
477.6002
209.2255
733.3033
706.3778
648.303
586.8519
523.355
278.2365
785.5809
777.0032
712.5749
651.1576
588.5509
524.7677
908.9677
858.2746
786.5916
719.5057
655.0593
590.997
526.5813
945.9788
864.155
792.1467
724.7512
658.7269
593.5499
528.5425
946.3048
866.3909
795.3502
727.4096
661.7021
595.9554
530.4754
943.0275
866.2682
796.688
729.0223
663.0824
597.9916
532.3183
940.1803
865.4177
797.289
730.135
664.0295
598.8222
533.9363
938.1992
864.4985
797.5727
730.7441
664.5942
599.397
534.4996
936.8306
863.7217
797.4004
730.9145
664.9187
599.8012
534.9137
935.8757
863.1273
797.185
730.9714
665.1226
600.0916
535.2353
935.1949
862.6789
796.9967
730.9803
665.2614
600.3159
535.509
934.6696
862.365
796.8517
730.9761
665.3652
600.5039
535.7443
934.2806
862.1183
796.7417
730.9837
665.4541
600.6696
535.9624
933.9675
861.9372
796.6708
731.0243
665.5773
600.8344
536.175
933.7226
861.8015
796.6483
731.4266
666.1591
601.0407
536.3798
933.5185
861.705
796.6669
731.959
666.6377
601.2306
536.5924
933.3371
861.6156
796.669
732.0713
666.7916
601.4091
536.8126
933.1702
861.5573
796.688
732.1749
666.9474
601.599
537.0453
933.0159
861.5107
796.7256
732.2875
667.1401
601.8503
537.287
932.8668
861.4822
796.7863
732.4619
667.8225
602.7255
537.5995
932.7233
861.4456
796.8555
732.6586
668.6744
603.47
537.9238
932.558
861.4191
796.9226
732.8133
668.9685
603.7832
538.2266
932.3904
861.4024
797.0114
733.0027
669.2367
604.1517
538.6245
932.2049
861.371
797.1033
733.2122
669.5997
605.1292
539.8379
931.9911
861.3391
797.1993
733.4456
669.9942
606.3502
540.8943
931.7488
861.2952
797.3181
733.7034
670.3666
606.8969
541.443
931.4432
861.229
797.4331
733.9855
670.7843
607.4326
542.0833
931.094
861.1474
797.5499
734.2926
671.2651
608.0848
543.5219
930.6813
861.0315
797.663
734.6285
671.7952
608.8188
545.3197
930.359
861.0414
797.818
734.9904
672.3598
609.5391
546.278
929.9261
860.972
797.9253
735.3694
672.9768
610.3405
547.2943
929.1891
860.974
798.5031
735.8484
673.628
611.2048
548.3901
928.2523
860.9631
799.3018
737.017
674.4203
612.1401
549.4608
927.1208
860.6008
799.9892
737.8798
675.2486
613.1512
550.6192
925.8168
860.1052
800.2215
739.0907
677.0568
614.4028
551.8686
924.3493
859.5901
800.4404
740.6497
679.4236
616.8417
553.3568
922.8069
859.1437
800.7297
741.6811
681.8136
618.8194
554.9606
921.375
858.9171
801.2738
742.7109
683.3792
621.5902
557.9939
920.2486
859.099
802.2364
744.2534
685.5618
625.7108
561.3589
919.9287
860.4662
804.5837
748.1343
691.0344
632.4871
568.2714
920.8064
864.7717
812.4083
758.4407
704.0784
644.9029
573.9188
925.2072
875.2779
830.5286
782.6038
725.8528
650.503
551.2502
936.4291
898.2808
862.6855
814.3544
737.5797
622.5378
496.4447
959.8317
934.0212
899.5768
829.2296
709.2179
565.6004
434.8307
998.3149
974.5008
918.8214
801.5613
651.7676
504.8157
383.6299
1048.375
1003.06
905.0421
745.7842
590.5012
460.3891
349.8399
1103.006
1001.492
857.7712
690.1699
542.8934
423.1612
331.7852
1149.022
970.4056
805.0286
646.6459
507.9941
401.2393
312.3148
1168.317
924.5751
757.896
607.3989
482.3452
384.5454
304.2417
1157.157
881.9537
716.9816
572.8271
456.474
368.9365
304.4716
1122.449
849.7445
689.6868
542.6413
434.3728
354.7581
296.2658
1074.629
821.5509
661.8436
520.8122
419.0602
344.9092
285.9399
1028.01
797.6519
636.871
503.5079
403.8645
331.3451
274.6142
990.3032
780.5155
622.2683
489.6522
388.1694
315.6922
268.3335
961.2962
767.6406
611.4783
480.2586
378.5734
307.7178
262.5547
940.6693
759.9173
605.9397
476.48
375.9216
306.2947
260.72
943.8307
762.5605
607.7687
478.0253
377.3943
307.4094
260.9174
969.5293
773.5271
615.2068
483.2748
381.6591
310.2064
263.2026
1003.813
789.6423
628.0104
494.0667
392.3155
318.7809
268.8247
1047.648
811.097
645.6366
509.9567
409.4258
335.5985
275.9831
1099.536
839.15
674.9692
530.5659
426.4766
350.5615
289.8802
1150.268
870.4438
704.9998
554.0232
443.8603
362.7343
303.2094
1183.95
903.8014
736.3866
589.2874
470.1257
380.3991
314.5641
1191.958
947.5497
781.563
629.0194
500.5831
399.875
316.7491
1167.46
991.722
831.1196
672.9611
531.0259
419.4833
327.3189
1117.266
1019.101
882.5274
718.5946
570.0819
446.2487
350.6896
1059.167
1016.501
925.091
773.4465
620.9781
488.1655
373.5237
1006.417
984.755
933.3951
823.8477
681.9107
537.137
412.2202
965.6238
941.9191
909.7853
844.4084
733.0974
597.5802
466.5947
940.3653
903.9401
870.1004
824.3246
752.8803
647.0312
525.6334
927.8312
878.9674
835.6185
789.3981
735.0224
663.6017
569.3263
922.6293
867.3277
815.9359
763.1
709.3906
650.9707
582.0933
921.2692
862.5185
807.35
751.2045
694.213
635.6588
571.8545
921.3733
860.8467
804.4121
746.3739
687.5747
627.8459
563.482
922.2877
860.3222
802.9473
744.4442
684.9144
623.1388
559.5357
923.5582
860.2173
801.9783
742.8772
682.4674
619.8079
556.099
924.9362
860.4013
801.3171
741.6164
680.008
617.2464
554.2374
926.2692
860.7537
800.9473
739.8921
677.8759
615.1725
552.6315
927.4651
861.0861
800.566
738.516
675.9023
613.794
551.2214
928.5223
861.3648
799.7839
737.5327
674.9437
612.6424
549.9247
929.4414
861.3075
798.8878
736.2438
674.0393
611.6027
548.7313
930.1499
861.2572
798.2256
735.6992
673.3023
610.6463
547.5538
930.5508
861.2791
798.0689
735.2521
672.6202
609.7705
546.4777
930.8443
861.2279
797.8707
734.8343
671.9912
608.9974
545.4731
931.2386
861.3189
797.7206
734.4647
671.4185
608.2266
543.6507
931.581
861.3782
797.5734
734.1171
670.9141
607.5536
542.1799
931.8736
861.4281
797.4394
733.8063
670.4733
606.9966
541.5203
932.0972
861.4448
797.2984
733.5282
670.0787
606.4221
540.9511
932.3037
861.4566
797.1774
733.2958
669.6713
605.188
539.8852
932.4755
861.48
797.077
733.0726
669.299
604.2047
538.6586
932.632
861.4854
796.9809
732.8693
669.0238
603.8247
538.2616
932.7758
861.5028
796.9062
732.6967
668.7046
603.5003
537.951
932.9072
861.5222
796.8203
732.4849
667.8419
602.7452
537.6133
933.0397
861.5372
796.7464
732.2963
667.1504
601.8586
537.2916
933.1709
861.5661
796.6856
732.1781
666.9579
601.6073
537.0528
933.3082
861.6014
796.6521
732.0671
666.7978
601.4223
536.8283
933.4605
861.6615
796.6382
731.9404
666.6356
601.2425
536.6067
933.6235
861.7221
796.599
731.3987
666.1516
601.0469
536.3904
933.8112
861.8155
796.5899
730.9852
665.5663
600.8408
536.1917
934.0524
861.9436
796.63
730.9378
665.4494
600.6888
535.9943
934.3438
862.1392
796.7131
730.9245
665.3684
600.5444
535.8036
934.7414
862.3856
796.8258
730.923
665.2828
600.3887
535.6023
935.261
862.7105
796.9755
730.9226
665.1817
600.2122
535.3741
935.9444
863.146
797.16
730.9123
665.0522
599.9974
535.1135
936.8838
863.7499
797.3554
730.8567
664.8606
599.7066
534.7872
938.2351
864.5224
797.2392
730.487
664.5171
599.3047
534.3393
940.2142
865.4386
797.0622
729.8178
663.9307
598.7064
532.8623
943.0516
866.324
796.7112
728.9986
663.0531
596.9597
531.1658
946.2767
866.4466
795.4017
727.5074
660.7266
594.8567
529.3457
945.7973
864.2004
792.5506
723.8542
657.7014
592.4949
527.4114
907.578
859.2228
785.7756
718.6344
654.1133
589.953
525.4463
281.0821
793.9089
779.9429
711.5916
649.8959
587.3099
523.52
458.2339
389.0949
314.4544
258.1249
183.8061
110.672
38.59245
459.578
390.5166
315.8839
259.4706
184.9319
111.5665
40.07431
461.1242
392.0072
317.4063
242.5639
186.0238
112.4472
41.03793
462.7639
393.5414
318.8299
262.4269
187.1878
113.3412
41.95689
464.3955
395.1087
320.3506
263.8445
188.3514
114.2445
42.65923
466.0048
396.6876
321.8912
265.3216
189.5135
115.1525
43.36041
467.5612
398.249
323.4268
266.7552
189.8684
116.0671
44.06119
468.9671
399.7883
324.9497
268.1633
190.1961
116.9817
44.76547
469.4081
401.2048
326.4008
269.5978
191.1424
117.8123
45.47614
469.7447
401.6219
327.7563
271.0322
192.0835
118.6488
46.19284
470.0358
401.9409
328.1516
272.431
193.0291
119.4903
46.91674
470.3095
402.2522
328.4632
272.7613
193.9835
120.3393
47.64628
470.5652
402.5525
328.7789
273.0633
194.1726
121.2114
48.38094
470.8167
402.8502
329.0999
273.3765
194.3824
121.4042
49.10125
471.0661
403.1595
329.4306
273.6964
194.6043
121.6268
49.10711
471.3259
403.4775
329.7697
274.0311
194.8412
121.8651
49.14455
471.5913
403.8063
330.1181
274.3911
195.1976
122.1108
49.13689
471.8681
404.1379
330.4892
274.9076
198.0115
122.3726
49.11254
472.1552
404.4711
330.8702
275.2894
198.4327
122.6409
49.11931
472.4623
404.8243
331.271
275.6921
198.7863
122.9235
49.0941
472.7853
405.1965
331.6862
276.1191
199.1564
123.2196
48.97017
473.1385
405.5912
332.1168
276.5758
199.5451
123.5321
48.91927
473.5084
406.0152
332.5898
277.0033
200.0414
123.861
48.85751
473.9874
406.4763
333.1309
259.2179
202.8204
124.3582
48.79447
474.4941
406.9607
333.6339
278.1057
204.3203
124.7687
48.71792
474.9929
407.4868
334.2015
278.652
204.9154
125.1636
48.62524
475.661
408.1182
334.8571
279.2943
205.5314
125.6438
48.4614
477.4041
408.8195
335.5182
279.9714
206.3521
129.0946
48.27969
478.7966
427.0434
354.7177
280.6628
207.1343
130.5021
48.15558
479.8174
427.7039
355.4404
281.4675
207.8921
131.1122
48.00324
482.3194
430.1992
356.3676
282.3424
208.7204
133.6315
47.87234
484.3808
432.7972
357.3807
283.3169
209.6338
136.8498
47.75713
485.7593
436.5985
358.7093
284.3828
210.6319
137.8189
47.83196
487.0357
438.3331
361.7304
285.5282
211.7067
139.0425
52.25153
488.3914
439.892
365.3488
286.8215
212.8404
140.1537
53.0886
489.8316
441.4706
370.0152
288.6749
213.9012
141.2556
73.43326
491.2911
443.1164
371.651
292.7363
214.6981
142.3163
63.25199
493.0396
444.7049
373.0259
295.3239
214.2706
141.6782
77.6496
495.0763
446.139
372.4598
293.4491
204.2766
129.7768
89.81494
495.6328
444.2913
357.276
263.9137
180.4262
121.9177
89.78071
478.607
417.3087
309.0943
218.333
154.0352
123.2929
73.1657
434.198
362.677
256.5529
176.9928
132.5722
120.0037
63.58376
370.685
311.3643
218.3324
155.0187
121.8987
115.6819
58.13707
317.6915
266.1603
186.0652
130.5474
113.0676
105.1881
55.3911
282.6571
235.2812
161.9314
112.6682
107.4892
92.52041
46.66337
257.4185
207.5444
133.9026
103.6632
96.32571
87.77769
43.40701
239.0347
189.3433
122.5256
93.58532
93.94842
86.9617
60.45107
228.2034
174.9706
118.1651
90.13665
87.32773
92.4721
84.05646
221.315
172.4655
113.9633
85.0059
89.21984
84.89701
88.96877
217.177
161.2311
102.5146
90.25457
90.02441
86.75912
90.45643
205.89
158.54
107.1556
103.7241
97.57373
80.88355
78.40205
194.3456
143.0378
116.2872
102.7619
90.78607
78.54824
60.76955
191.8173
141.6304
107.3608
95.66715
92.90722
81.8767
69.97733
186.4
131.4468
100.3693
96.33166
95.54627
107.0593
86.48339
186.6227
128.9823
93.12287
88.48915
111.6705
128.6791
67.15814
187.0701
128.4575
98.12816
89.33004
111.6053
132.2287
187.3013
130.8308
103.6803
83.74324
110.4967
134.0826
185.9678
127.9763
101.1472
94.52832
121.7622
131.9931
185.696
124.1561
114.7104
122.084
108.8922
109.9559
89.20002
192.4971
129.2936
118.0977
105.7361
105.018
91.1405
61.49321
198.7591
131.8848
113.7978
97.65956
98.72905
89.57553
70.58044
214.3787
140.6041
113.5792
100.7996
100.6203
105.8528
69.85881
227.9639
158.0083
110.4628
101.2318
110.2886
100.9555
71.68989
233.8805
170.219
118.9944
97.43148
100.568
89.95005
89.94632
243.0827
180.6193
122.9174
91.69973
90.08547
98.85644
96.52879
255.453
187.992
134.9802
90.0645
90.69572
95.23156
77.06836
277.3864
207.8665
143.7725
105.2608
92.43659
96.48005
74.30194
307.3842
227.7175
166.5697
115.7589
100.0405
90.48015
69.88452
343.4514
257.6387
191.8488
131.7739
104.799
89.95307
61.18631
397.2747
297.2859
216.5421
156.671
111.9788
96.67858
49.54598
454.2679
350.213
256.5071
176.0719
128.1335
106.3719
51.88024
490.3999
403.6608
300.9125
205.6349
146.5167
116.5548
62.14813
500.3983
438.2364
345.1574
248.7214
173.4791
121.4502
74.73293
497.1735
445.5266
370.6601
284.1247
192.8098
120.6577
87.75829
494.4273
444.6545
374.0518
296.7201
210.3715
135.6666
88.26802
492.36
443.1023
373.1076
294.1228
214.8134
143.4582
74.49421
490.6858
441.5661
371.5042
291.1786
214.6076
142.1536
63.70876
489.0742
440.0451
368.62
287.9638
213.6711
140.9243
54.98577
487.563
438.5553
364.1718
286.4454
212.5002
139.7111
52.69576
486.1637
437.0411
359.9611
285.1763
211.3342
138.5304
50.72353
484.6848
433.9793
358.2575
284.0016
210.2435
137.403
47.76306
482.5542
431.4664
357.0181
282.9332
209.252
136.1642
47.83042
479.9777
428.1663
356.0016
281.9726
208.3509
131.6763
47.92828
478.9181
426.9428
355.0488
281.1242
207.5443
130.8229
48.06047
477.4985
408.8863
335.5653
280.1864
206.7827
130.1984
48.17726
475.734
408.1771
334.8969
279.5223
205.9236
126.9698
48.32131
475.0517
407.536
334.2459
278.892
205.2189
125.3701
48.48773
474.5426
406.998
333.6631
278.3034
204.607
124.9547
48.59165
474.0234
406.4955
333.1145
277.7452
203.9608
124.5679
48.69304
473.5349
406.0357
332.6083
277.2124
200.9474
124.0717
48.75927
473.1588
405.6073
332.1311
276.714
199.728
123.6745
48.82467
472.8049
405.2017
331.6838
276.2546
199.3292
123.3546
48.90372
472.4735
404.8262
331.2646
275.8138
198.9472
123.0505
48.9508
472.1588
404.4737
330.8624
275.4023
198.5886
122.761
49.00551
471.8732
404.1392
330.4854
275.0101
198.2492
122.4863
49.03419
471.598
403.8078
330.1179
274.5458
196.7239
122.2206
49.03471
471.3355
403.4822
329.77
274.1234
194.9494
121.9682
49.03558
471.082
403.1732
329.4371
273.7755
194.7123
121.7276
49.02951
470.8416
402.875
329.1159
273.4381
194.4847
121.4979
49.03864
470.6047
402.5894
328.8033
273.1178
194.273
121.2836
48.63774
470.3711
402.3058
328.5021
272.8019
194.0694
120.7546
47.90448
470.1282
402.0161
328.2039
272.4962
193.506
119.905
47.17439
469.8726
401.7222
327.8244
271.632
192.5683
119.0611
46.45004
469.5816
401.3377
326.4896
270.1992
191.6298
118.2249
45.73351
469.2
399.9638
325.0653
268.7561
190.6953
117.392
45.02428
467.8703
398.4678
323.5679
267.3064
189.799
116.5238
44.32286
466.3883
396.9446
322.0521
265.9297
190.0823
115.6087
43.62759
464.8438
395.3893
320.5256
264.4758
188.9571
114.6991
42.93637
463.2395
393.8123
318.9956
263.0348
187.7998
113.7964
42.24578
461.5726
392.231
317.4727
261.6007
186.6478
112.8996
41.47123
459.9167
390.6802
315.9683
260.1998
185.5035
112.0108
40.52059
458.3037
389.1299
314.4841
258.828
184.371
111.1259
39.36747
0
0
0
0
0
0
0
0
0
0
0
0
0
0
0
0
0
0
0
0
0
0
0
0
0
0
0
0
0
0
0
0
0
0
0
0
0
0
0
0
0
0
0
0
0
0
0
0
0
0
0
0
0
0
0
0
0
0
0
0
0
0
0
0
0
0
0
0
0
0
0
0
0
0
0
0
0
0
0
0
0
0
0
0
0
0
0
0
0
0
0
0
0
0
0
0
0
0
0
0
0
0
0
0
0
0
0
0
0
0
0
0
0
0
0
0
0
0
0
0
0
0
0
0
0
0
0
0
0
0
0
0
0
0
0
0
0
0
0
0
0
0
0
0
0
0
0
0
0
0
0
0
0
0
0
0
0
0
0
0
0
0
0
0
0
0
0
0
0
0
0
0
0
0
0
0
0
0
0
0
0
0
0
0
0
0
0
0
0
0
0
0
0
0
0
0
0
0
0
0
0
0
0
0
0
0
0
0
0
0
0
0
0
0
0
0
0
0
0
0
0
0
0
0
0
0
0
0
0
0
0
0
0
0
0
0
0
0
0
0
0
0
0
0
0
0
0
0
0
0
0
0
0
0
0
0
0
0
0
0
0
0
0
0
0
0
0
0
0
0
0
0
0
0
0
0
0
0
0
0
0
0
0
0
0
0
0
0
0
0
0
0
0
0
0
0
0
0
0
0
0
0
0
0
0
0
0
0
0
0
0
0
0
0
0
0
0
0
0
0
0
0
0
0
0
0
0
0
0
0
0
0
0
0
0
0
0
0
0
0
0
0
0
0
0
0
0
0
0
0
0
0
0
0
0
0
0
0
0
0
0
0
0
0
0
0
0
0
0
0
0
0
0
0
0
0
0
0
0
0
0
0
0
0
0
0
0
0
0
0
0
0
0
0
0
0
0
0
0
0
0
0
0
0
0
0
0
0
0
0
0
0
0
0
0
0
0
0
0
0
0
0
0
0
0
0
0
0
0
0
0
0
0
0
0
0
0
0
0
0
0
0
0
0
0
0
0
0
0
0
0
0
0
0
0
0
0
0
0
0
0
0
0
0
0
0
0
0
0
0
0
0
0
0
0
0
0
0
0
0
0
0
0
0
0
0
0
0
0
0
0
0
0
0
0
0
0
0
0
0
0
0
0
0
0
0
0
0
0
0
0
0
0
0
0
0
0
0
0
0
0
0
0
0
0
0
0
0
0
0
0
0
0
0
0
0
0
0
0
0
0
0
0
0
0
0
0
0
0
0
0
0
0
0
0
0
0
0
0
0
0
0
0
0
0
0
0
0
0
0
0
0
0
0
0
0
0
0
0
0
0
0
0
0
0
0
0
0
0
0
0
0
0
0
0
0
0
0
0
0
0
0
0
0
0
0
0
0
0
0
0
0
0
0
0
0
0
0
0
0
0
0
0
0
0
0
0
0
0
0
0
0
0
0
0
0
0
0
0
0
0
0
0
0
0
0
0
0
0
0
0
0
0
0
0
0
0
0
0
0
0
0
0
0
0
0
0
0
0
0
0
0
0
0
0
0
0
0
0
0
0
0
0
0
0
0
0
0
0
0
0
0
0
0
0
0
0
0
0
0
0
0
0.0001294073
0
0
0
0
0
0
0
0
0
0
0
0
0
0
0
0
0
0.4181694
0
0
0
0
0
0
0
0
0
0
0
0
0
0
0
0
0
1.048324
0
0
0
0
0
0
0
0
0
0
0
0
0
0
0
0
0
1.798959
0
0
0
0
0
0
0
0
0
0
0
0
0
0
0
0
0
3.205596
0
0
0
0
0
0
0
0
0
0
0
0
0
0
0
0
0
6.210699
0
0
0
0
0
0
0
0
0
0
0
0
0
0
0
0
0
9.90349
0
0
0
0
0
0
0
0
0
0
0
0
0
0
0
0
0
19.50063
0
0
0
0
0
0
0
0
0
0
0
0
0
0
0
0
0
29.43524
0
0
0
0
0
0
0
0
0
0
0
0
0
0
0
0
0
45.09418
0
0
0
0
0
0
0
0
0
0
0
0
0
0
0
0
0
77.80487
0
0
0
0
0
0
0
0
0
0
0
0
0
71.03252
0.184713
0
0
0
0
0
0
0
0
42.61348
0
0
0
0
0
0
0
0
0
0
0
0
0
0
0
0
0
0
0
0
0
0
0
0
0
0
0
0
0
0
0
0
0
0
0
0
0
0
0
0
0
0
0
0
0
0
0
0
0
52.17416
0
0
0
0
0
0
62.96492
3.830414
0
0
0
0
0
0
0
75.66956
0
0
0
0
0
0
0
0
0
0
0
65.90923
0
0
0
0
0
0
0
0
0
0
0
0
0
0
0
0
0
29.75213
0
0
0
0
0
0
0
0
0
0
0
0
0
0
0
0
0
19.89032
0
0
0
0
0
0
0
0
0
0
0
0
0
0
0
0
0
14.11655
0
0
0
0
0
0
0
0
0
0
0
0
0
0
0
0
0
6.040015
0
0
0
0
0
0
0
0
0
0
0
0
0
0
0
0
0
5.060888
0
0
0
0
0
0
0
0
0
0
0
0
0
0
0
0
0
3.427143
0
0
0
0
0
0
0
0
0
0
0
0
0
0
0
0
0
1.844466
0
0
0
0
0
0
0
0
0
0
0
0
0
0
0
0
0
0.9121215
0
0
0
0
0
0
0
0
0
0
0
0
0
0
0
0
0
0.327864
0
0
0
0
0
0
0
0
0
0
0
0
0
0
0
0
0
0
0
0
0
0
0
0
0
0
0
0
0
0
0
0
0
0
0
0
0
0
0
0
0
0
0
0
0
0
0
0
0
0
0
0
0
0
0
0
0
0
0
0
0
0
0
0
0
0
0
0
0
0
0
0
0
0
0
0
0
0
0
0
0
0
0
0
0
0
0
0
0
0
0
0
0
0
0
0
0
0
0
0
0
0
0
0
0
0
0
0
0
0
0
0
0
0
0
0
0
0
0
0
0
0
0
0
0
0
0
0
0
0
0
0
0
0
0
0
0
0
0
0
0
0
0
0
0
0
0
0
0
0
0
0
0
0
0
0
0
0
0
0
0
0
0
0
0
0
0
0
0
0
0
0
0
0
0
0
0
0
0
0
0
0
0
0
0
0
0
0
0
0
0
0
0
0
0
0
0
0
0
0
0
0
0
0
0
0
0
0
0
0
0
0
0
0
0
0
0
0
0
0
0
0
0
0
0
0
0
0
0
0
0
0
0
0
0
0
0
0
0
0
0
0
0
0
0
0
0
0
0
0
0
0
0
0
0
0
0
0
0
0
0
0
0
0
0
0
0
0
0
0
0
0
0
0
0
0
0
0
0
0
0
0
0
0
0
0
0
0
0
0
0
0
0
0
0
0
0
0
0
0
0
0
0
0
0
0
0
0
0
0
0
0
0
0
0
0
0
0
0
0
0
0
0
0
0
0
0
0
0
0
0
0
0
0
0
0
0
0
0
0
0
0
0
0
0
0
0
0
0
0
0
0
0
0
0
0
0
0
0
0
0
0
0
0
0
0
0
0
0
0
0
0
0
0
0
0
0
0
0
0
0
0
0
0
0
0
0
0
0
0
0
0
0
0
0
0
0
0
0
0
0
0
0
0
0
0
0
0
0
0
0
0
0
0
0
0
0
0
0
0
0
0
0
0
0
0
0
0
0
0
0
0
0
0
0
0
0
0
0
0
0
0
0
0
0
0
0
0
0
0
0
0
0
0
0
0
0
0
0
0
0
0
0
0
0
0
0
0
0
0
0
0
0
0
0
0
0
0
0
0
0
0
0
0
0
0
0
0
0
0
0
0
0
0
0
0
0
0
0
0
0
0
0
0
0
0
0
0
0
0
0
0
0
0
0
0
0
0
0
0
0
0
0
0
0
0
0
0
0
0
0
0
0
0
0
0
0
0
0
0
0
0
0
0
0
0
0
0
0
0
0
0
0
0
0
0
0
0
0
0
0
0
0
0
0
0
0
0
0
0
0
0
0
0
0
0
0
0
0
0
0
0
0
0
0
0
0
0
0
0
0
0
0
0
0
0
0
0
0
0
0
0
0
0
0
0
0
0
0
0
0
0
0
0
0
0
0
0
0
0
0
0
0
0
0
0
0
0
0
0
0
0
0
0
0
0
0
0
0
0
0
0
0
0
0
0
0
0
0
0
0
0
0
0
0
0
0
0
0
0
0
0
0
0
0
0
0
0
0
0
0
0
0
0
0
0
0
0
0
0
0
0
0
0
0
0
0
0
0
0
0
0
0
0
0
0
0
0
0
0
0
0
0
0
0
0
0
0
0
0
0
0
0
0
0
0
0
0
0
0
0
0
0
0
0
0
0
0
0
0
0
0
0
0
0
0
0
0
0
0
0
0
0
0
0
0
0
0
0
0
0
0
0
0
0
0
0
0
0
0
0
0
0
0
0
0
0
0
0
0
0
0
0
0
0
0
0
0
0
0
0
0
0
0
0
0
0
0
0
0
0
0
0
0
0
0
0
0
0
0
0
0
0
0
0
0
0
0
0
0
0
0
0
0
0
0
0
0
0
0
0
0
0
0
0
0
0
0
0
0
0
0
0
0
0
0
0
0
0
0
0
0
0
0
0
0
0
0
0
0
0
0
0
0
0
0
0
0
0
0
0
0
0
0
0
0
0
0
0
0
0
0
0
0
0
0
0
0
0
0
0
0
0
0
0
0
0
0
0
0
0
0
0
0
0
0
0
0
0
0
0
0
0
0
0
0
0
0
0
0
0
0
0
0
0
0
0
0
0
0
0
0
0
0
0
0
0
0
0
0
0
0
0
0
0
0
0
0
0
0
0
0
0
0
0
0
0
0
0
0
0
0
0
0
0
0
0
0
0
0
0
0
0
0
0
0
0
0
0
0
0
0
0
0
0
0
0
0
0
0
0
0
0
0
0
0
0
0
0
0
0
0
0
0
0
0
0
0
0
0
0
0
0
0
0
0
0
0
0
0
0
0
0
0
0
0
0
0
0
0
0
0
0
0
0
0
0
0
0
0
0
0
0
0
0
0
0
0
0
0
0
0
0
0
0
0
0
0
0
0
0
0
0
0
0
0
0
0
0
0
0
0
0
0
0
0
0
0
0
0
0
0
0
0
0
0
0
0
0
0
0
0
0
0
0
0
0
0
0
0
0
0
0
0
0
0
0
0
0
0
0
0
0
0
0
0
0
0
0
0
0
0
0
0
0
0
0
0
0
0
0
0
0
0
0
0
0
0
0
0
0
0
0
0
0
0
0
0
0
0
0
0
0
0
0
0
0
0
0
0
0
0
0
0
0
0
0
0
0
0
0
0
0
0
0
0
0
0
0
0
0
0
0
0
0
0
0
0
0
0
0
0
0
0
0
0
0
0
0
0
0
0
0
0
0
0
0
0
0
0
0
0
0
0
0
0
0
0
0
0
0
0
0
0
0
0
0
0
0
0
0
0
0
0
0
0
0
0
0
0
0
0
0
0
0
0
0
0
0
0
0
0
0
0
0
0
0
0
0
0
0
0
0
0
0
0
0
0
0
0
0
0
0
0
0
0
0
0
0
0
0
0
0
0
0
0
0
0
0
0
0
0
0
0
0
0
0
0
0
0
0
0
0
0
0
0
0
0
0
0
0
0
0
0
0
0
0
0
0
0
0
0
0
0
0
0
0
0
0
0
0
0
0
0
0
0
0
0
0
0
0
0
0
0
0
0
0
0
0
0
0
0
0
0
0
0
0
0
0
0
0
0
0
0
0
0
0
0
0
0
0
0
0
0
0
0
0
0
0
0
0
0
0
0
0
0
0
0
0
0
0
0
0
0
0
0
0
0
0
0
0
0
0
0
0
0
0
0
0
0
0
0
0
0
0
0
0
0
0
0
0
0
0
0
0
0
0
0
0
0
0
0
0
0
0
0
0
0
0
0
0
0
0
0
0
0
0
0
0
0
0
0
0
0
0
0
0
0
0
0
0
0
0
0
0
0
0
0
0
0
0
0
0
0
0
0
0
0
0
0
0
0
0
0
0
0
0
0
0
0
0
0
0
0
0
0
0
0
0
0
0
0
0
0
0
0
0
0
0
0
0
0
0
0
0
0
0
0
0
0
0
0
0
0
0
0
0
0
0
0
0
0
0
0
0
0
0
0
0
0
0
0
0
0
0
0
0
0
0
0
0
0
0
0
0
0
0
0
0
0
0
0
0
0
0
0
0
0
0
0
0
0
0
0
0
0
0
0
0
0
0
0
0
0
0
0
0
0
0
0
0
0
0
0
0
0
0
0
0
0
0
0
0
0
0
0
0
0
0
0
0
0
0
0
0
0
0
0
0
0
0
0
0
0
0
0
0
0
0
0
0
0
0
0
0
0
0
0
0
0
0
0
0
0
0
0
0
0
0
0
0
0
0
0
0
0
0
0
0
0
0
0
0
0
0
0
0
0
0
0
0
0
0
0
0
0
0
0
0
0
0
0
0
0
0
0
0
0
0
0
0
0
0
0
0
0
0
0
0
0
0
0
0
0
0
0
0
0
0
0
0
0
0
0
0
0
0
0
0
0
0
0
0
0
0
0
0
0
0
0
0
0
0
0
0
0
0
0
0
0
0
0
0
0
0
0
0
0
0
0
0
0
0
0
0
0
0
0
0
0
0
0
0
0
0
0
0
0
0
0
0
0
0
0
0
0
0
0
0
0
0
0
0
0
0
0
0
0
0
0
0
0
0
0
0
0
0
0
0
0
0
0
0
0
0
0
0
0
0
0
0
0
0
0
0
0
0
0
0
0
0
0
0
0
0
0
0
0
0
0
0
0
0
0
0
0
0
0
0
0
0
0
0
0
0
0
0
0
0
0
0
0
0
0
0
0
0
0
0
0
0
0
0
0
0
0
0
0
0
0
0
0
0
0
0
0
0
0
0
0
0
0
0
0
0
0
0
0
0
0
0
0
0
0
0
0
0
0
0
0
0
0
0
0
0
0
0
0
0
0
0
0
0
0
0
0
0
0
0
0
0
0
0
0
0
0
0
0
0
0
0
0
0
0
0
0
0
0
0
0
0
0
0
0
0
0
0
0
0
0
0
0
0
0
0
0
0
0
0
0
0
57.32649
48.05236
61.12251
94.24685
58.79221
138.4389
135.7633
164.6883
190.5489
133.4795
192.1601
163.7425
134.5251
135.3817
57.93259
115.8431
67.34032
76.86592
52.3632
61.21104
70.03046
0
0
0
0
0
0
0
0
0
0
0
0
0
0
0
0
0
0
0
0
0
0
0
0
0
0
0
2.292468
0
0
42.318
54.14878
0
0
0
0
0
0
0
0
0
0
0
0
0
0
0
0
0
0
0
0
0
0
0
0
0
0
0
0
0
0
0
0
40.28935
50.07967
0
0
0
0
0.1491748
0
0
0
0
0
0
0
0
0
0
0
0
0
0
0
0
0
0
0
0
0
0
0
0
0
0
0
0
0
0
0
220.9258
221.5934
258.7995
146.9857
147.4511
184.369
74.94391
75.37925
111.1327
0.208561
0.5657157
39.3848
222.288
222.9549
260.1082
147.8965
148.3412
185.4686
75.82854
76.2719
112.0118
1.127359
1.202642
40.55672
148.7805
149.2315
186.5215
76.72453
77.1743
112.8891
1.275896
1.347931
41.5203
225.0318
225.7727
262.8913
149.6955
150.162
187.7847
77.62852
78.09061
113.797
1.418368
1.486305
42.30777
226.4475
227.1326
264.3747
150.6319
151.0821
188.9347
78.55269
79.01731
114.7024
1.551169
1.612553
43.01099
151.549
152.0066
190.0504
79.46776
79.86344
115.6081
1.670188
1.723731
43.7103
228.6086
228.4823
267.2407
152.4211
152.8477
189.7719
80.26236
80.66532
116.5259
1.77305
1.81792
44.41397
153.311
153.7691
190.6818
81.07061
81.47646
117.3996
1.858296
1.893923
45.12171
230.2366
230.8245
270.1424
154.2404
154.6959
191.6253
81.88899
82.29684
118.2364
1.924905
1.951181
45.83344
231.4247
232.0093
271.5846
155.1657
155.5869
192.5572
82.71078
83.12553
119.0729
1.972632
1.989506
46.55405
232.6044
233.1695
272.4521
156.0174
156.4433
193.5018
83.54463
83.96354
119.9187
2.001489
2.008639
47.28256
233.2673
233.3988
272.7724
156.8778
157.3223
194.0793
84.38849
84.81022
120.7695
2.011085
2.008389
48.01416
233.5356
233.6592
273.1021
157.4133
157.5091
194.2844
85.23804
85.68607
121.2972
2.000858
1.988087
48.7473
233.7996
233.9307
273.4338
157.6175
157.7223
194.4966
85.77433
85.88914
121.5167
1.972416
1.968168
49.15368
234.0756
234.2149
273.755
157.8393
157.9503
194.7193
86.01128
86.13004
121.7488
1.777294
1.848638
49.14771
234.3527
234.5108
274.1002
158.0684
158.1888
194.9508
86.26334
86.38275
121.9871
1.660879
1.994402
49.14419
234.7414
236.0469
274.5491
158.3088
158.5249
196.7308
86.51415
86.64341
122.2356
1.948954
2.119218
49.13596
237.6516
237.9559
275.0297
158.726
158.8594
198.2722
86.77837
86.92003
122.5009
2.180405
2.265391
49.13236
238.1738
238.3644
275.4198
158.9937
159.1344
198.6058
87.06084
87.20843
122.7787
2.338625
2.418593
49.11103
238.5808
238.7951
275.8212
159.2759
159.4231
198.9615
87.36133
87.51512
123.0702
2.488514
2.560646
49.04392
239.0056
239.2433
276.2522
159.5712
159.7287
199.3381
87.67842
87.83676
123.3809
2.632615
2.703382
48.99286
239.4742
239.7334
276.7085
159.8876
160.0525
199.7453
88.01078
88.17647
123.6961
2.77857
2.851318
48.91688
240.0111
240.2847
277.1316
160.2638
161.3709
200.9534
88.35232
88.53696
124.0833
2.932393
3.009606
48.8507
163.1526
164.1035
203.9081
88.72449
88.92143
124.5715
3.093388
3.179157
48.76556
241.1697
241.5125
278.2054
164.3688
164.6167
204.6183
89.11716
89.32661
124.9627
3.266724
3.353863
48.66303
241.7705
242.0667
278.8648
164.8659
165.1237
205.2134
89.54079
89.76105
125.3726
3.445426
3.540048
48.54405
242.3853
242.707
279.4938
165.4903
166.6013
205.9123
89.99085
90.29934
126.9578
3.637003
3.73797
48.36769
243.0413
243.4021
280.1362
168.7401
170.0433
206.7461
90.65207
90.95677
130.1856
3.841327
3.94712
48.20711
391.4083
391.8885
426.8492
317.5931
318.1172
355.0033
243.7741
244.1762
281.0585
170.4732
170.8464
207.5194
91.21155
91.47312
130.7997
4.054642
4.169119
48.07894
392.2724
392.6943
428.0358
318.4773
318.9038
355.8855
244.5879
245.0073
281.9247
171.2324
171.6298
208.3086
91.74269
92.17093
131.6539
4.286768
4.407978
47.92765
393.2946
393.8718
431.2724
319.3715
319.8438
356.8737
245.4723
245.9248
282.8328
172.1454
172.6912
209.1809
94.49285
96.44515
136.1255
4.531722
4.660521
47.80923
394.7121
396.5824
433.7103
320.3612
320.8832
358.0526
246.4283
246.9334
283.8389
173.157
173.6376
210.1248
96.96688
97.33041
137.3211
4.789717
4.926825
47.714
398.3208
399.4081
436.6992
321.4287
322.0045
359.6619
247.45
247.9948
284.9385
174.1371
174.6587
211.1355
97.95453
100.3696
138.4192
5.072991
5.251488
50.61388
401.2236
403.6939
438.0832
322.7152
323.5109
363.8127
248.5252
249.1199
286.1181
175.1726
175.728
212.2559
103.1564
103.9655
139.5717
5.446329
5.849691
52.47722
404.8423
405.6524
439.4428
325.168
327.5732
368.1192
249.6947
250.2573
287.5757
176.2902
176.8661
213.3923
104.6074
105.3013
140.7461
6.287619
6.446546
54.44067
406.4689
407.2032
440.8187
329.3849
331.3832
370.8849
250.7823
251.431
290.7701
177.3634
177.7844
214.3576
104.9265
106.8405
141.7273
7.33988
8.396761
62.03864
408.0056
408.7048
442.1523
334.204
335.3568
372.3751
251.9443
252.5195
293.8723
178.0461
178.0703
214.8667
108.702
111.3518
142.6244
8.620138
9.000546
68.42809
409.4414
410.012
443.3923
335.8455
335.536
373.2782
253.2642
252.5536
296.6324
176.479
171.8419
211.0702
113.2335
111.2313
137.1658
19.17753
24.46246
86.59952
409.9751
408.4561
443.4483
333.3681
326.2382
368.8305
248.8501
239.1842
282.3833
164.2657
154.0183
191.7293
106.9544
103.0303
123.5207
26.7596
33.02975
92.73957
402.1127
386.2127
431.1592
310.0725
286.7261
335.9815
222.7306
201.3002
241.5873
143.9677
135.878
168.8973
100.1905
100.251
124.2151
42.15022
50.13283
80.24809
360.8844
333.8724
382.6007
261.0525
236.9003
282.0875
180.9279
163.67
196.4558
131.5726
133.6618
142.4346
101.0761
99.36606
123.3296
51.32424
51.42559
66.55527
305.17
283.6785
325.0019
216.0977
202.0253
238.8803
150.2094
139.5029
164.4113
129.5397
125.2807
126.6906
97.47173
91.64557
117.3931
51.1144
51.64497
60.6774
261.8263
240.9709
272.7965
183.4695
168.8187
200.8518
130.7795
127.1892
144.2489
120.0893
115.7791
117.6216
90.32307
90.25859
109.3184
58.09717
64.01337
52.84527
220.9542
204.7025
233.6467
156.833
140.3139
171.714
121.147
113.0619
122.5619
112.8104
110.3505
113.1423
94.22096
89.82274
98.98671
65.51149
72.41996
53.22144
196.0765
181.6108
206.6828
131.2257
123.4716
147.0491
105.3033
100.0041
108.037
103.5688
103.0119
103.1387
83.72891
77.4767
89.49027
63.63527
60.41673
44.66514
167.7974
163.9898
185.7661
114.4227
109.3641
126.2667
93.94332
94.24517
99.4592
98.27895
92.73079
92.75402
75.41292
73.091
85.91802
52.60181
50.75804
44.46711
154.5396
147.2479
171.4166
102.9787
102.3386
123.0913
91.50373
87.37711
89.16212
94.07511
99.09056
92.06089
86.81087
92.21943
93.36089
68.24911
63.89438
69.70898
139.9894
139.3938
166.8045
100.5565
96.54246
113.799
84.50272
87.31172
88.87449
94.49714
89.40235
85.34335
94.14433
91.05866
93.45648
70.96656
81.84214
89.34438
138.2731
134.164
157.8379
94.60238
96.01835
109.5308
87.66005
86.55628
87.2293
85.53465
89.21051
90.46717
87.56873
78.53676
82.97589
89.56663
89.11594
89.52069
126.9549
121.1674
148.3514
92.71809
94.83882
101.7981
91.45366
99.03858
93.7658
89.95368
86.22305
98.09399
76.72315
76.87316
83.7847
92.53775
103.4284
85.53935
119.4632
122.1574
134.5313
102.3685
115.6914
117.1106
99.63712
97.95129
110.1812
85.06336
78.43459
89.4975
69.63937
68.15284
80.69587
76.27002
67.04598
64.62195
121.8479
123.4732
132.0217
112.902
101.1421
111.6669
96.6061
97.63478
98.55586
80.68106
86.98356
91.67341
67.1262
67.79165
77.33026
61.33416
40.34994
65.54183
118.784
113.4993
127.0937
97.41151
99.98344
104.2748
95.25234
94.73439
97.01325
86.69576
87.08403
87.47797
80.78901
99.68232
91.7709
108.9615
106.0776
123.9772
97.21065
93.03266
95.8124
96.55296
102.1978
94.1399
98.6081
113.9566
108.3898
104.0841
103.3672
120.8819
107.6531
107.0177
126.6469
88.40985
90.36277
93.13786
94.3881
97.85303
87.87208
123.5095
120.6926
114.2586
109.6031
113.6379
129.7777
93.47892
90.65771
102.2009
94.62975
93.16057
84.05536
124.9727
128.0094
113.2963
115.9122
115.5812
131.5893
87.69668
91.0995
103.3132
93.78463
95.18782
85.98584
128.6761
130.5368
115.4074
113.0732
113.0935
129.8488
96.45155
104.24
105.1442
102.2569
110.8326
105.9711
124.4318
112.8139
116.3206
114.1377
119.8234
134.1288
118.3031
118.5065
119.9269
118.8459
109.8046
114.2882
103.093
101.5242
105.8133
93.96783
84.74858
98.34278
122.8146
124.6631
144.5254
111.0271
102.2385
115.4621
106.2727
101.4505
98.24465
99.44913
98.69083
103.401
81.58064
76.2792
85.01859
123.7463
119.8691
147.8447
101.7445
106.6657
111.9796
101.2487
98.80602
97.08903
97.38859
92.51148
98.29377
74.70206
84.66318
94.95244
39.35823
66.47933
72.60467
124.6294
126.0784
169.2448
106.4088
100.9465
110.6179
96.61444
98.12818
100.4901
97.22258
107.0736
110.5647
88.23622
88.64746
116.031
65.21616
50.61168
73.58818
130.4316
137.3294
173.2167
102.6738
103.045
112.5213
106.4354
104.4072
102.0325
103.4391
101.5735
102.9728
83.99311
73.83241
92.06769
65.00743
64.50251
74.83276
146.1044
152.1556
185.4761
105.647
101.9793
123.5786
97.27693
93.3665
91.3993
100.3062
95.26959
97.01934
80.57656
95.80592
91.68393
91.17394
97.34324
95.95444
154.525