/*--------------------------------*- C++ -*----------------------------------*\
| =========                 |                                                 |
| \\      /  F ield         | OpenFOAM: The Open Source CFD Toolbox           |
|  \\    /   O peration     | Version:  2206                                  |
|   \\  /    A nd           | Website:  www.openfoam.com                      |
|    \\/     M anipulation  |                                                 |
\*---------------------------------------------------------------------------*/
FoamFile
{
    version     2.0;
    format      ascii;
    arch        "LSB;label=32;scalar=64";
    class       surfaceScalarField;
    location    "1.2";
    object      phi.a;
}
// * * * * * * * * * * * * * * * * * * * * * * * * * * * * * * * * * * * * * //

dimensions      [0 3 -1 0 0 0 0];

oriented        oriented;

internalField   nonuniform List<scalar> 
26037
(
-2.125635e-11
-7.705048e-12
-2.768732e-11
-6.68522e-12
-2.204806e-11
-2.905242e-12
-1.558591e-11
-1.213057e-12
-1.227756e-11
-5.884541e-13
-1.026179e-11
-3.327737e-13
-2.231113e-13
-8.576486e-12
-2.665642e-11
-1.2168e-11
-2.429498e-11
-1.168361e-11
-1.836568e-11
-5.658411e-12
-1.420934e-11
-2.753505e-12
-1.172448e-11
-1.503129e-12
-9.990449e-12
-9.293911e-13
-6.576318e-13
-8.413208e-12
-1.111913e-11
-6.181516e-12
-1.437237e-11
-6.817611e-12
-1.319038e-11
-4.99162e-12
-1.172528e-11
-2.844957e-12
-1.04427e-11
-1.817494e-12
-9.242667e-12
-1.263666e-12
-9.682558e-13
-7.903964e-12
-5.778947e-12
-2.112357e-12
-8.601206e-12
-3.413225e-12
-9.64973e-12
-3.294115e-12
-9.407753e-12
-2.587417e-12
-9.004434e-12
-1.745276e-12
-8.264595e-12
-1.375545e-12
-1.14926e-12
-7.16193e-12
-3.652253e-12
-7.868504e-13
-5.780086e-12
-1.728295e-12
-7.190736e-12
-2.084577e-12
-7.858846e-12
-1.952115e-12
-7.680207e-12
-1.76617e-12
-7.225481e-12
-1.362164e-12
-1.232979e-12
-6.28876e-12
-2.765154e-12
-3.594283e-13
-4.392393e-12
-9.541511e-13
-5.716333e-12
-1.368133e-12
-6.495676e-12
-1.487819e-12
-6.727887e-12
-1.514673e-12
-6.198805e-12
-1.488862e-12
-1.256282e-12
-5.354316e-12
-2.340301e-12
-2.197813e-13
-3.631444e-12
-6.112528e-13
-4.799944e-12
-9.389136e-13
-5.455217e-12
-1.23641e-12
-5.665096e-12
-1.320458e-12
-5.358842e-12
-1.37935e-12
-1.380826e-12
-4.400374e-12
-2.080876e-12
-1.754203e-13
-3.12228e-12
-4.6276e-13
-4.029626e-12
-7.409637e-13
-4.590352e-12
-1.044609e-12
-4.711127e-12
-1.17108e-12
-4.357849e-12
-1.276961e-12
-1.322589e-12
-3.539493e-12
-1.880217e-12
-1.629899e-13
-2.719075e-12
-3.95489e-13
-3.433878e-12
-6.318683e-13
-3.838157e-12
-9.142124e-13
-3.843077e-12
-1.057878e-12
-3.41612e-12
-1.188031e-12
-1.262976e-12
-2.565519e-12
-1.704674e-12
-1.617296e-13
-2.366346e-12
-3.635043e-13
-2.910493e-12
-5.677778e-13
-3.162986e-12
-8.248587e-13
-3.050977e-12
-9.736345e-13
-2.544e-12
-1.117117e-12
-1.213326e-12
-1.64751e-12
-1.545823e-12
-1.652475e-13
-2.049111e-12
-3.489665e-13
-2.440691e-12
-5.297046e-13
-2.554899e-12
-7.647566e-13
-2.332817e-12
-9.156285e-13
-1.74605e-12
-1.068672e-12
-1.182467e-12
-7.985311e-13
-1.402737e-12
-1.720916e-13
-1.76415e-12
-3.459482e-13
-2.019721e-12
-5.107192e-13
-2.009626e-12
-7.298044e-13
-1.686042e-12
-8.841947e-13
-1.022113e-12
-1.046514e-12
-1.176909e-12
-2.071976e-14
-1.274211e-12
-1.821994e-13
-1.509185e-12
-3.529852e-13
-1.643686e-12
-5.08535e-13
-1.521823e-12
-7.184768e-13
-1.104856e-12
-8.801792e-13
-3.667958e-13
-1.053242e-12
-1.200777e-12
6.901502e-13
-1.158977e-12
-1.95813e-13
-1.280679e-12
-3.699342e-13
-1.306722e-12
-5.215135e-13
-1.085687e-12
-7.233756e-13
-5.801675e-13
-8.996093e-13
2.292124e-13
-1.088968e-12
-1.256351e-12
1.342677e-12
-1.054529e-12
-2.132267e-13
-1.07387e-12
-3.972085e-13
-1.002283e-12
-5.505014e-13
-7.154301e-13
-7.318834e-13
-1.01375e-13
-9.702373e-13
7.776803e-13
-1.158738e-12
-1.345859e-12
1.947904e-12
-9.582356e-13
-2.345996e-13
-8.833651e-13
-4.348826e-13
-7.194348e-13
-5.976581e-13
-3.288616e-13
-7.915691e-13
3.453729e-13
-1.04938e-12
1.290184e-12
-1.259869e-12
-1.470433e-12
2.51803e-12
-8.671401e-13
-2.601464e-13
-7.032883e-13
-4.827218e-13
-4.533597e-13
-6.595957e-13
1.893547e-14
-8.704994e-13
7.682326e-13
-1.151091e-12
1.779323e-12
-1.392266e-12
-1.6306e-12
3.065707e-12
-7.787679e-13
-2.901294e-13
-5.285741e-13
-5.411163e-13
-1.952598e-13
-7.374207e-13
3.555708e-13
-9.712312e-13
1.179966e-12
-1.280945e-12
2.257436e-12
-1.558186e-12
-1.827972e-12
3.60339e-12
-6.906102e-13
-3.248603e-13
-3.543833e-13
-6.104108e-13
6.208407e-14
-8.313847e-13
6.913323e-13
-1.092649e-12
1.588783e-12
-1.430585e-12
2.736167e-12
-1.752498e-12
-2.063608e-12
4.143174e-12
-6.003822e-13
-3.646283e-13
-1.762149e-13
-6.913756e-13
3.253164e-13
-9.42896e-13
1.034076e-12
-1.237667e-12
1.98058e-12
-1.598397e-12
3.226777e-12
-1.999658e-12
-2.346238e-12
4.697298e-12
-5.05538e-13
-4.098644e-13
1.070575e-14
-7.848596e-13
6.010262e-13
-1.07312e-12
1.394621e-12
-1.410322e-12
2.41835e-12
-1.822149e-12
3.741947e-12
-2.284421e-12
-2.679268e-12
5.278327e-12
-4.037056e-13
-4.609437e-13
2.117637e-13
-8.913466e-13
8.977761e-13
-1.222522e-12
1.781892e-12
-1.608793e-12
2.889964e-12
-2.078598e-12
4.29607e-12
-2.610441e-12
-3.068026e-12
5.903362e-12
-2.920573e-13
-5.180986e-13
4.32383e-13
-1.0112e-12
1.22398e-12
-1.392077e-12
2.208397e-12
-1.835845e-12
3.410832e-12
-2.373447e-12
4.905238e-12
-2.975851e-12
-3.514987e-12
6.596958e-12
-1.674175e-13
-5.814088e-13
6.789261e-13
-1.144562e-12
1.589268e-12
-1.582379e-12
2.687977e-12
-2.093958e-12
3.998735e-12
-2.7134e-12
5.562032e-12
-3.391448e-12
-4.053574e-12
7.387138e-12
-2.626243e-14
-6.505872e-13
9.587923e-13
-1.290371e-12
2.005324e-12
-1.792208e-12
3.236304e-12
-2.382952e-12
4.675948e-12
-3.102562e-12
6.341155e-12
-3.895153e-12
-4.689482e-12
8.304811e-12
1.354462e-13
-7.247808e-13
1.2803e-12
-1.445818e-12
2.485479e-12
-2.017208e-12
3.872726e-12
-2.697933e-12
5.466019e-12
-3.534917e-12
7.277048e-12
-4.464631e-12
-5.417681e-12
9.383227e-12
3.219999e-13
-8.02265e-13
1.652129e-12
-1.60586e-12
3.042771e-12
-2.24953e-12
4.614844e-12
-3.029308e-12
6.391258e-12
-4.001344e-12
8.377133e-12
-5.092676e-12
-6.215354e-12
1.063669e-11
5.374962e-13
-8.79809e-13
2.083482e-12
-1.763334e-12
3.689984e-12
-2.476145e-12
5.478712e-12
-3.359715e-12
7.47007e-12
-4.48174e-12
9.656171e-12
-5.760593e-12
-7.063278e-12
1.201567e-11
7.882753e-13
-9.508705e-13
2.584048e-12
-1.902426e-12
4.440726e-12
-2.676969e-12
6.480379e-12
-3.661926e-12
8.719001e-12
-4.941983e-12
1.11344e-11
-6.429433e-12
-7.965353e-12
1.360684e-11
1.069315e-12
-1.002827e-12
3.16471e-12
-2.010359e-12
5.310893e-12
-2.827014e-12
7.640094e-12
-3.900038e-12
1.01653e-11
-5.334828e-12
1.285421e-11
-7.040529e-12
-8.832965e-12
1.555707e-11
1.401328e-12
-1.048073e-12
3.835056e-12
-2.056021e-12
6.317679e-12
-2.882711e-12
8.978513e-12
-4.026004e-12
1.183029e-11
-5.601794e-12
1.483088e-11
-7.526876e-12
-9.59976e-12
1.780579e-11
1.787393e-12
-1.070323e-12
4.610293e-12
-2.02761e-12
7.486363e-12
-2.751501e-12
1.052482e-11
-3.955583e-12
1.374413e-11
-5.661886e-12
1.709424e-11
-7.796521e-12
-1.016266e-11
2.038596e-11
2.232998e-12
-1.058803e-12
5.456188e-12
-1.888154e-12
8.892019e-12
-2.53668e-12
1.231829e-11
-3.461686e-12
1.594367e-11
-5.394925e-12
1.968745e-11
-7.719288e-12
-1.037822e-11
2.332859e-11
2.745289e-12
-9.978065e-13
6.46874e-12
-1.588314e-12
1.027191e-11
-1.998939e-12
1.435215e-11
-2.660087e-12
1.845166e-11
-4.616359e-12
2.264174e-11
-7.101492e-12
-1.003732e-11
2.669214e-11
3.329931e-12
-8.67783e-13
7.628745e-12
-1.070557e-12
1.199863e-11
-1.088501e-12
1.696038e-11
-1.661377e-12
2.132294e-11
-2.614198e-12
2.595635e-11
-5.560844e-12
-8.825582e-12
3.047811e-11
3.983107e-12
-6.425219e-13
8.916685e-12
-2.540257e-13
1.388393e-11
3.497567e-13
1.903067e-11
2.846028e-13
2.505918e-11
-6.899878e-13
2.962177e-11
-1.795878e-12
-6.242802e-12
3.462329e-11
4.693014e-12
-2.893896e-13
1.030784e-11
9.6023e-13
1.590751e-11
2.477836e-12
2.155152e-11
3.288357e-12
2.732492e-11
3.029506e-12
3.336209e-11
2.972492e-12
-1.673737e-12
3.894913e-11
5.438609e-12
2.254535e-13
1.176157e-11
2.672015e-12
1.800295e-11
5.465149e-12
2.419949e-11
7.541203e-12
3.050367e-11
8.35977e-12
3.894322e-11
7.916098e-12
7.943371e-12
4.338083e-11
6.201551e-12
9.183219e-13
1.323823e-11
4.961276e-12
2.012474e-11
9.421648e-12
2.687294e-11
1.320181e-11
3.358171e-11
1.565036e-11
4.055368e-11
1.652094e-11
1.92002e-11
4.761113e-11
7.024417e-12
1.728765e-12
1.479277e-11
7.9589e-12
2.233976e-11
1.44157e-11
2.976654e-11
2.026012e-11
3.715996e-11
2.476252e-11
4.507383e-11
2.786429e-11
3.143209e-11
5.823226e-11
7.626879e-12
2.699132e-12
1.694083e-11
1.073984e-11
2.509772e-11
2.100632e-11
3.338579e-11
2.870087e-11
4.236165e-11
3.61577e-11
5.354937e-11
4.541952e-11
6.013806e-11
5.798722e-11
8.459442e-12
3.73474e-12
1.823818e-11
1.408552e-11
3.022707e-11
2.578203e-11
3.964069e-11
4.107061e-11
5.355398e-11
5.439868e-11
5.223393e-11
7.928162e-11
1.147063e-10
-3.317833e-11
9.653413e-12
4.712273e-12
2.094408e-11
1.749888e-11
3.413512e-11
3.259538e-11
5.699104e-11
5.389245e-11
5.823796e-11
9.652782e-11
-4.639758e-11
1.412614e-10
1.98808e-10
-3.170724e-10
1.158217e-11
5.471131e-12
2.608554e-11
2.127085e-11
4.702194e-11
4.41236e-11
6.473092e-11
8.450247e-11
-1.208701e-11
1.527589e-10
-3.081973e-10
2.280448e-10
2.988148e-10
-7.932665e-10
1.545572e-11
6.026364e-12
3.791606e-11
2.772342e-11
6.856793e-11
6.713811e-11
6.050479e-12
1.378516e-10
-2.50963e-10
2.380911e-10
-7.581023e-10
3.406806e-10
3.337033e-10
-1.427873e-09
2.271351e-11
7.410446e-12
6.606705e-11
3.967476e-11
6.564967e-11
1.066985e-10
-1.721775e-10
2.101067e-10
-6.290806e-10
3.279329e-10
-1.308249e-09
4.438468e-10
5.169987e-10
-2.340142e-09
4.091437e-11
1.186599e-11
8.218676e-11
6.437442e-11
-3.922067e-11
1.604916e-10
-4.472921e-10
2.883424e-10
-1.110346e-09
3.72095e-10
-1.991751e-09
5.115743e-10
5.751824e-10
-3.045714e-09
7.369783e-11
2.135429e-11
4.906644e-11
9.911916e-11
-2.32461e-10
2.181187e-10
-7.899731e-10
3.555041e-10
-1.72956e-09
4.825872e-10
-2.883971e-09
5.869839e-10
3.360582e-10
-3.984763e-09
9.609567e-11
3.486249e-11
-3.77999e-11
1.359027e-10
-4.762027e-10
2.654689e-10
-1.210894e-09
3.972506e-10
-2.211491e-09
5.13529e-10
-3.422242e-09
6.094022e-10
6.290486e-10
-5.237766e-09
8.765925e-11
4.954993e-11
-1.502918e-10
1.655039e-10
-7.325084e-10
2.906708e-10
-1.630517e-09
4.059764e-10
-2.791471e-09
5.000894e-10
-4.144115e-09
5.767682e-10
6.353915e-10
-5.697753e-09
3.388228e-11
5.910318e-11
-3.078436e-10
1.812784e-10
-9.706468e-10
2.649374e-10
-2.009934e-09
3.772276e-10
-3.326755e-09
4.555734e-10
-4.841373e-09
5.114408e-10
5.091839e-10
-6.451067e-09
-6.328142e-11
6.212976e-11
-4.878841e-10
1.789181e-10
-1.348728e-09
2.858719e-10
-2.630565e-09
3.536619e-10
-4.281672e-09
4.575809e-10
-6.198877e-09
5.060476e-10
-1.903407e-10
-7.614816e-09
-1.559075e-10
5.564323e-11
-6.484145e-10
1.543292e-10
-1.544378e-09
2.439588e-10
-2.810033e-09
3.190847e-10
-4.339434e-09
3.932603e-10
-6.097378e-09
4.537601e-10
2.526234e-10
-8.669367e-09
-2.252929e-10
4.084588e-11
-7.629635e-10
1.114113e-10
-1.706906e-09
1.748489e-10
-2.984847e-09
2.306894e-10
-4.5204e-09
2.842801e-10
-6.246129e-09
3.371298e-10
3.586353e-10
-8.365689e-09
-2.833246e-10
2.078999e-11
-8.569956e-10
5.834729e-11
-1.854524e-09
9.583174e-11
-3.204248e-09
1.334756e-10
-4.83542e-09
1.722642e-10
-6.668507e-09
2.118729e-10
2.511559e-10
-8.672603e-09
-3.450602e-10
-2.330757e-13
-9.648163e-10
7.547354e-12
-2.041898e-09
2.756305e-11
-3.517659e-09
6.013834e-11
-5.330514e-09
9.996893e-11
-7.404243e-09
1.412557e-10
1.804835e-10
-9.677473e-09
-3.466509e-10
-2.232153e-11
-9.697634e-10
-4.531172e-11
-2.050885e-09
-4.292398e-11
-3.531379e-09
-1.580886e-11
-5.351126e-09
2.417495e-11
-7.435799e-09
6.589323e-11
1.054158e-10
-9.728364e-09
-2.883541e-10
-4.243965e-11
-8.703673e-10
-9.805594e-11
-1.876624e-09
-1.215382e-10
-3.235661e-09
-1.139102e-10
-4.879267e-09
-9.125675e-11
-6.729281e-09
-6.494395e-11
-3.643356e-12
-8.759207e-09
-2.340665e-10
-5.563207e-11
-7.824012e-10
-1.37945e-10
-1.735953e-09
-1.886177e-10
-3.023449e-09
-2.035962e-10
-4.570842e-09
-2.055285e-10
-6.310627e-09
-1.876329e-10
1.087133e-10
-8.452572e-09
-1.683747e-10
-6.053554e-11
-6.719738e-10
-1.610476e-10
-1.576725e-09
-2.322623e-10
-2.851629e-09
-2.45149e-10
-4.391071e-09
-2.828032e-10
-6.159825e-09
-2.533056e-10
5.608522e-10
-8.759603e-09
-7.914152e-11
-5.639414e-11
-5.151157e-10
-1.632195e-10
-1.387547e-09
-2.13432e-10
-2.679088e-09
-2.799663e-10
-4.341736e-09
-2.928733e-10
-6.269939e-09
-2.67011e-10
-1.633763e-10
-7.674631e-09
1.538731e-11
-4.66585e-11
-3.392463e-10
-1.474766e-10
-1.006468e-09
-2.413991e-10
-2.049067e-09
-3.108721e-10
-3.368591e-09
-3.431909e-10
-4.884836e-09
-3.41323e-10
-3.053715e-10
-6.493591e-09
6.917326e-11
-3.228318e-11
-1.815045e-10
-1.187066e-10
-7.697455e-10
-2.188224e-10
-1.670163e-09
-3.076076e-10
-2.832287e-09
-3.663295e-10
-4.185916e-09
-3.886659e-10
-3.178144e-10
-5.744957e-09
7.964419e-11
-1.99596e-11
-6.820875e-11
-8.603578e-11
-5.142928e-10
-1.78443e-10
-1.251394e-09
-2.756602e-10
-2.252913e-09
-3.495077e-10
-3.465001e-09
-3.869279e-10
-2.984555e-11
-5.303319e-09
6.164789e-11
-1.101901e-11
2.290245e-11
-5.64629e-11
-2.689835e-10
-1.317696e-10
-8.307134e-10
-2.228051e-10
-1.779068e-09
-2.481023e-10
-2.936947e-09
-3.274777e-10
-3.172593e-10
-4.016439e-09
3.413636e-11
-7.122047e-12
6.351336e-11
-3.610755e-11
-7.096523e-11
-8.968548e-11
-4.903432e-10
-1.583094e-10
-1.148948e-09
-2.307566e-10
-2.026133e-09
-2.915743e-10
-3.012247e-10
-3.074439e-09
2.005281e-11
-5.923188e-12
5.552945e-11
-2.590356e-11
4.149209e-11
-5.824568e-11
-2.058444e-10
-1.08041e-10
-6.648551e-10
-1.706728e-10
-1.338838e-09
-2.262514e-10
-1.679867e-10
-2.363716e-09
1.439829e-11
-5.097187e-12
3.356532e-11
-1.980198e-11
5.624797e-11
-3.9472e-11
-1.75766e-11
-7.025141e-11
-2.825814e-10
-1.143747e-10
-7.940358e-10
-1.464641e-10
-1.769979e-10
-1.465866e-09
1.112583e-11
-4.005664e-12
2.468527e-11
-1.552976e-11
4.243232e-11
-2.905373e-11
5.255485e-11
-4.634459e-11
-3.917314e-11
-7.520407e-11
-3.351513e-10
-9.971695e-11
-1.189408e-10
-8.135039e-10
9.41768e-12
-2.865353e-12
2.047862e-11
-1.161633e-11
3.294696e-11
-2.18358e-11
5.157212e-11
-3.439103e-11
4.774391e-11
-4.48308e-11
-5.674386e-11
-6.144394e-11
-7.810924e-11
-3.22551e-10
8.419946e-12
-1.795773e-12
1.814586e-11
-8.113588e-12
2.951542e-11
-1.636218e-11
3.91448e-11
-2.297528e-11
5.179208e-11
-2.923869e-11
5.125236e-11
-3.71112e-11
-4.483188e-11
-4.175675e-11
7.718117e-12
-8.671943e-13
1.692203e-11
-5.310993e-12
2.541694e-11
-1.02658e-11
3.414008e-11
-1.491721e-11
4.418719e-11
-1.917472e-11
5.381928e-11
-2.069064e-11
-2.25054e-11
5.660045e-11
7.146839e-12
-1.276796e-13
1.512754e-11
-2.641197e-12
2.299997e-11
-5.741121e-12
3.132996e-11
-8.76118e-12
3.875015e-11
-1.002313e-11
4.682713e-11
-1.021177e-11
-1.210329e-11
5.954014e-11
6.39146e-12
4.602727e-13
1.366558e-11
-6.622306e-13
2.087475e-11
-2.286033e-12
2.805964e-11
-3.662368e-12
3.515557e-11
-3.443964e-12
4.250217e-11
-2.414998e-12
-1.972279e-12
4.99305e-11
5.639881e-12
8.737327e-13
1.221021e-11
7.487284e-13
1.893339e-11
1.251503e-13
2.533692e-11
2.291933e-13
3.202511e-11
1.158103e-12
4.053406e-11
1.967625e-12
6.573767e-12
4.548759e-11
4.891218e-12
1.136959e-12
1.079772e-11
1.673476e-12
1.663643e-11
1.926427e-12
2.257587e-11
2.698968e-12
2.919619e-11
3.891536e-12
3.497513e-11
6.469693e-12
1.04203e-11
4.076263e-11
4.16889e-12
1.285548e-12
9.325042e-12
2.274115e-12
1.451716e-11
3.018209e-12
1.986754e-11
4.206772e-12
2.568923e-11
5.726584e-12
3.090315e-11
8.938761e-12
1.231564e-11
3.610679e-11
3.508585e-12
1.350349e-12
7.992343e-12
2.614874e-12
1.254763e-11
3.630675e-12
1.762506e-11
4.86658e-12
2.222838e-11
7.161158e-12
2.702948e-11
9.889678e-12
1.295711e-11
3.16559e-11
2.901315e-12
1.355458e-12
6.783094e-12
2.752439e-12
1.074029e-11
3.912236e-12
1.497391e-11
5.313322e-12
1.920715e-11
7.518634e-12
2.349303e-11
1.004087e-11
1.279964e-11
2.759357e-11
2.367099e-12
1.318017e-12
5.72091e-12
2.753405e-12
9.253981e-12
3.927159e-12
1.282656e-11
5.465603e-12
1.654588e-11
7.421011e-12
2.034446e-11
9.71475e-12
1.214954e-11
2.399531e-11
1.899896e-12
1.253669e-12
4.819639e-12
2.669449e-12
7.807438e-12
3.847824e-12
1.093499e-11
5.272516e-12
1.421455e-11
7.051794e-12
1.759038e-11
9.099078e-12
1.121504e-11
2.086499e-11
1.49383e-12
1.172879e-12
4.016498e-12
2.517782e-12
6.578808e-12
3.622561e-12
9.302132e-12
4.925015e-12
1.219253e-11
6.522265e-12
1.52e-11
8.320577e-12
1.01411e-11
1.813878e-11
1.142315e-12
1.091715e-12
3.310338e-12
2.316247e-12
5.518131e-12
3.328277e-12
7.892997e-12
4.500107e-12
1.044256e-11
5.909432e-12
1.312856e-11
7.46682e-12
9.018434e-12
1.579625e-11
8.487254e-13
9.946172e-13
2.700642e-12
2.101083e-12
4.604577e-12
3.007616e-12
6.677956e-12
4.042402e-12
8.932195e-12
5.267228e-12
1.134088e-11
6.599481e-12
7.91285e-12
1.377899e-11
5.860368e-13
8.952502e-13
2.176702e-12
1.880307e-12
3.820193e-12
2.681912e-12
5.634561e-12
3.584115e-12
7.636744e-12
4.638189e-12
9.814058e-12
5.772533e-12
6.926997e-12
1.211522e-11
3.615768e-13
7.998925e-13
1.727712e-12
1.668584e-12
3.147886e-12
2.368492e-12
4.740274e-12
3.148463e-12
6.525636e-12
4.051452e-12
8.506922e-12
5.015438e-12
5.994505e-12
1.074513e-11
1.682416e-13
7.11155e-13
1.342936e-12
1.471077e-12
2.572601e-12
2.077575e-12
3.976983e-12
2.748839e-12
5.578852e-12
3.522073e-12
7.388487e-12
4.342579e-12
5.157597e-12
9.48219e-12
1.765757e-15
6.301108e-13
1.012322e-12
1.290992e-12
2.080055e-12
1.814241e-12
3.326558e-12
2.391394e-12
4.775182e-12
3.054686e-12
6.441055e-12
3.756629e-12
4.43413e-12
8.398718e-12
-1.424139e-13
5.571931e-13
7.265959e-13
1.129744e-12
1.656088e-12
1.580503e-12
2.769627e-12
2.078082e-12
4.089445e-12
2.652058e-12
5.646091e-12
3.282482e-12
3.816439e-12
7.477316e-12
-2.688011e-13
4.923074e-13
4.769546e-13
9.873273e-13
1.286834e-12
1.375736e-12
2.285828e-12
1.806329e-12
3.498424e-12
2.306017e-12
4.997566e-12
2.861023e-12
3.314313e-12
6.688252e-12
-3.809404e-13
4.349468e-13
2.55678e-13
8.624968e-13
9.600783e-13
1.197634e-12
1.859018e-12
1.571227e-12
2.977664e-12
2.007593e-12
4.389625e-12
2.488226e-12
2.880314e-12
5.996079e-12
-4.821362e-13
3.845004e-13
5.626577e-14
7.538421e-13
6.661233e-13
1.043604e-12
1.475445e-12
1.368015e-12
2.510195e-12
1.748937e-12
3.840297e-12
2.16413e-12
2.509506e-12
5.376033e-12
-5.750334e-13
3.403722e-13
-1.266879e-13
6.600313e-13
3.963873e-13
9.118621e-13
1.122678e-12
1.196983e-12
2.079908e-12
1.552644e-12
3.335626e-12
1.881716e-12
2.194704e-12
4.806469e-12
-6.621604e-13
3.019352e-13
-2.98562e-13
5.795953e-13
1.425754e-13
8.00211e-13
7.924769e-13
1.052691e-12
1.705916e-12
1.37578e-12
2.862725e-12
1.659284e-12
1.931458e-12
4.271516e-12
-7.459515e-13
2.686401e-13
-4.639787e-13
5.112075e-13
-1.01723e-13
7.063464e-13
4.739108e-13
9.313139e-13
1.31832e-12
1.221125e-12
2.408283e-12
1.468163e-12
1.709414e-12
3.758661e-12
-8.285518e-13
2.400159e-13
-6.270719e-13
4.540264e-13
-3.424615e-13
6.293195e-13
1.599806e-13
8.328968e-13
9.340835e-13
1.095907e-12
1.961599e-12
1.312077e-12
1.526162e-12
3.255522e-12
-9.121258e-13
2.157304e-13
-7.920981e-13
4.072522e-13
-5.861309e-13
5.674107e-13
-1.586216e-13
7.537559e-13
5.460182e-13
9.934368e-13
1.511648e-12
1.187411e-12
1.378715e-12
2.750162e-12
-9.989077e-13
1.954495e-13
-9.636294e-13
3.707534e-13
-8.407003e-13
5.232401e-13
-5.060979e-13
7.227346e-13
1.425897e-13
9.01338e-13
1.046978e-12
1.093507e-12
1.265648e-12
2.23083e-12
-1.09163e-12
1.789231e-13
-1.147026e-12
3.44208e-13
-1.110622e-12
4.943903e-13
-8.333172e-13
6.958218e-13
-2.839216e-13
8.577783e-13
5.558976e-13
1.032496e-12
1.185691e-12
1.685749e-12
-1.192858e-12
1.659132e-13
-1.347491e-12
3.272411e-13
-1.406194e-12
4.799881e-13
-1.21641e-12
6.843258e-13
-7.466297e-13
8.366762e-13
2.736174e-14
9.999103e-13
1.137246e-12
1.103064e-12
-1.305403e-12
1.562407e-13
-1.570079e-12
3.201604e-13
-1.734157e-12
4.81669e-13
-1.642606e-12
6.955947e-13
-1.256427e-12
8.426326e-13
-5.508677e-13
9.966015e-13
1.119281e-12
4.711066e-13
-1.431034e-12
1.498332e-13
-1.819379e-12
3.233254e-13
-2.101775e-12
5.003913e-13
-2.119317e-12
7.304111e-13
-1.823928e-12
8.751503e-13
-1.189832e-12
1.021261e-12
1.129507e-12
-2.207735e-13
-1.571558e-12
1.46844e-13
-2.09901e-12
3.380827e-13
-2.514775e-12
5.383413e-13
-2.654087e-12
7.899969e-13
-2.457709e-12
9.334523e-13
-1.898288e-12
1.0714e-12
1.163734e-12
-9.806121e-13
-1.727688e-12
1.486927e-13
-2.41104e-12
3.704378e-13
-2.976958e-12
6.028468e-13
-3.251934e-12
8.788898e-13
-3.163175e-12
1.017935e-12
-2.681042e-12
1.143523e-12
1.21572e-12
-1.811974e-12
-1.900876e-12
1.618458e-13
-2.758863e-12
4.382867e-13
-3.495719e-12
7.131895e-13
-3.916916e-12
1.00429e-12
-3.942331e-12
1.131401e-12
-3.537986e-12
1.233782e-12
1.276946e-12
-2.708992e-12
-2.099029e-12
2.078225e-13
-3.158883e-12
5.918467e-13
-4.129695e-12
9.588104e-13
-4.6629e-12
1.155245e-12
-4.797603e-12
1.280078e-12
-4.46094e-12
1.33855e-12
1.199842e-12
-3.539186e-12
-2.355953e-12
3.505607e-13
-3.659308e-12
9.39179e-13
-4.798032e-12
1.353277e-12
-5.509354e-12
1.461566e-12
-5.734253e-12
1.484362e-12
-5.260608e-12
1.258731e-12
1.215341e-12
-4.458841e-12
-2.777883e-12
7.832645e-13
-4.414203e-12
1.719688e-12
-5.743627e-12
2.068489e-12
-6.533883e-12
1.932852e-12
-6.551412e-12
1.504853e-12
-6.226084e-12
1.330417e-12
1.199424e-12
-5.389349e-12
-3.661126e-12
2.119083e-12
-5.793249e-12
3.412028e-12
-7.201456e-12
3.280777e-12
-7.615077e-12
2.290757e-12
-7.676296e-12
1.723248e-12
-7.228763e-12
1.354637e-12
1.124664e-12
-6.303681e-12
-5.781301e-12
6.197851e-12
-8.588993e-12
6.827271e-12
-9.31787e-12
4.581947e-12
-9.35307e-12
2.813246e-12
-8.969506e-12
1.809905e-12
-8.248195e-12
1.256709e-12
9.544698e-13
-7.158685e-12
-1.107093e-11
1.217456e-11
-1.393356e-11
1.125401e-11
-1.302677e-11
5.514468e-12
-1.161681e-11
2.740733e-12
-1.03846e-11
1.512516e-12
-9.210536e-12
9.350286e-13
6.533373e-13
-7.886466e-12
-2.566347e-11
-2.384984e-11
-1.809769e-11
-1.406837e-11
-1.16582e-11
-9.953836e-12
-8.387309e-12
-6.889485e-12
-1.692491e-13
-5.28885e-12
-1.35219e-13
-2.008282e-12
-1.044207e-13
-2.009514e-12
-1.759968e-12
1.074219e-14
1.548912e-12
-1.387472e-12
4.945397e-15
1.293939e-12
-1.267158e-12
1.078549e-14
1.308976e-12
-1.520006e-12
1.052737e-14
-6.769211e-12
-5.168323e-13
-5.181758e-12
-4.302536e-13
-1.971685e-12
-3.627689e-13
-1.92841e-12
4.495769e-14
-1.731499e-12
-8.997936e-14
5.318761e-14
1.52059e-12
-1.357192e-12
-1.122644e-13
3.625637e-14
1.262502e-12
-1.23374e-12
-8.209945e-14
3.496775e-14
1.271788e-12
-1.47139e-12
-7.662951e-14
-6.369727e-12
-7.987795e-13
-4.828039e-12
-6.878875e-13
-3.561205e-12
-6.058209e-13
-1.366616e-12
-2.932643e-13
1.755314e-13
1.431539e-13
-1.300973e-12
-2.364641e-13
1.655899e-13
-1.224704e-12
-2.12063e-13
1.258427e-13
1.132491e-12
-1.102252e-12
-1.672652e-13
1.159433e-13
1.135566e-12
-1.32549e-12
-1.541144e-13
-5.752646e-12
-9.999354e-13
-4.283615e-12
-8.89626e-13
-1.573338e-12
-7.992826e-13
-1.484313e-12
-1.355362e-12
-3.420427e-13
2.558129e-13
1.157382e-12
-1.002638e-12
-3.00452e-13
2.066986e-13
9.121578e-13
-8.809522e-13
-2.444694e-13
1.908705e-13
9.095094e-13
-1.08939e-12
-2.260725e-13
-4.981407e-12
-1.128169e-12
-3.577617e-12
-1.034225e-12
-1.261921e-12
-9.423737e-13
-1.142253e-12
3.713181e-13
-1.058972e-12
-4.059411e-13
3.460165e-13
8.605412e-13
-7.04281e-13
-3.861283e-13
2.804679e-13
6.160125e-13
-5.844875e-13
-3.141352e-13
2.596464e-13
6.091815e-13
-7.816328e-13
-2.914219e-13
-4.114904e-12
-1.19992e-12
-2.761623e-12
-1.131452e-12
-8.793597e-13
-1.049923e-12
-7.436404e-13
4.381825e-13
-6.87223e-13
-4.669444e-13
4.205758e-13
-3.459387e-13
-4.498046e-13
4.961193e-13
3.451525e-13
2.619964e-13
-2.309157e-13
-3.735764e-13
3.210833e-13
2.522384e-13
-4.177196e-13
-3.485972e-13
-3.201681e-12
-1.233376e-12
-1.883558e-12
-1.192373e-12
-4.57808e-13
-1.126868e-12
-3.142362e-13
-2.717751e-13
-5.162658e-13
4.925353e-13
4.750228e-13
5.33441e-14
5.297338e-14
-4.697143e-13
3.996711e-13
-1.320232e-13
1.626895e-13
-4.234252e-13
3.741193e-13
-1.444369e-13
-1.433318e-14
-3.978189e-13
-2.277139e-12
-1.309273e-12
-9.836727e-13
-1.230403e-12
-1.894617e-14
-1.183201e-12
1.26838e-13
5.342645e-13
1.580408e-13
-5.504048e-13
4.870839e-13
4.71929e-13
-5.062652e-13
-3.462699e-13
4.451794e-13
-5.496249e-13
5.806417e-13
-4.655869e-13
4.199654e-13
-5.659095e-13
4.139482e-13
-4.409326e-13
-1.37757e-12
-1.280134e-12
-8.973416e-14
-1.248456e-12
4.211657e-13
-1.232142e-12
5.649325e-13
5.947616e-13
-5.789573e-13
5.651431e-13
5.243272e-13
-7.788463e-13
9.009238e-13
-5.417269e-13
4.852575e-13
-9.772812e-13
1.009559e-12
-5.046162e-13
4.611893e-13
-9.990981e-13
8.542594e-13
-4.811171e-13
-4.436583e-13
-1.255678e-12
8.403149e-13
-1.249551e-12
8.522672e-13
-1.20499e-12
9.910571e-13
5.927477e-13
1.024115e-12
-6.068214e-13
5.590392e-13
-1.206582e-12
1.327279e-12
-5.769123e-13
5.241469e-13
-1.404093e-12
1.438975e-12
-5.442753e-13
5.012518e-13
-1.433716e-12
1.296261e-12
-5.2198e-13
4.329827e-13
-1.247208e-12
1.724663e-12
-1.264245e-12
1.321338e-12
-1.240418e-12
1.466581e-12
6.220031e-13
1.439138e-12
-5.837799e-13
5.958313e-13
-1.621902e-12
1.743273e-12
-6.163131e-13
5.655397e-13
-1.822093e-12
1.860966e-12
-5.884656e-13
5.439044e-13
-1.861955e-12
1.732137e-12
-5.672283e-13
1.245176e-12
-1.262615e-12
2.556303e-12
-1.301547e-12
1.743761e-12
-1.297028e-12
1.882714e-12
5.956166e-13
1.914344e-12
-6.101955e-13
6.388284e-13
-2.097795e-12
2.143054e-12
-5.837753e-13
6.133841e-13
-2.226354e-12
2.270189e-12
-6.407303e-13
5.92656e-13
-2.278202e-12
2.156353e-12
-6.20569e-13
1.995604e-12
-1.307191e-12
3.332924e-12
-1.367301e-12
2.142453e-12
-1.381357e-12
2.274454e-12
6.27874e-13
2.317361e-12
-6.491914e-13
6.048716e-13
-2.503599e-12
2.626779e-12
-6.297607e-13
6.710253e-13
-2.708823e-12
2.662148e-12
-6.081945e-13
6.513694e-13
-2.678498e-12
2.564527e-12
-6.857467e-13
2.691522e-12
-1.384184e-12
4.06037e-12
-1.465327e-12
2.518495e-12
-1.497047e-12
2.644485e-12
6.740947e-13
2.698499e-12
-7.030003e-13
6.58086e-13
-2.889573e-12
3.016804e-12
-6.90499e-13
6.391865e-13
-3.102389e-12
3.150932e-12
-6.744043e-13
7.242772e-13
-3.165823e-12
2.94976e-12
-6.60558e-13
3.343232e-12
-1.49602e-12
4.747822e-12
-1.597981e-12
2.875692e-12
-1.646794e-12
2.99738e-12
7.359285e-13
3.061263e-12
-7.729901e-13
7.264937e-13
-3.258264e-12
3.39011e-12
-7.66767e-13
7.130962e-13
-3.478643e-12
3.523876e-12
-7.553768e-13
7.012148e-13
-3.517302e-12
3.341677e-12
-7.458808e-13
3.962311e-12
-1.644281e-12
5.406193e-12
-1.767624e-12
3.21895e-12
-1.832614e-12
3.338019e-12
8.142623e-13
3.410725e-12
-8.601036e-13
8.108383e-13
-3.615226e-12
3.753793e-12
-8.592651e-13
8.006325e-13
-3.851502e-12
3.915581e-12
-8.497976e-13
7.906559e-13
-3.954337e-12
3.835764e-12
-8.404463e-13
4.561236e-12
-1.830847e-12
6.046909e-12
-1.976904e-12
3.553524e-12
-2.058966e-12
3.672042e-12
9.101295e-13
3.751357e-12
-9.642461e-13
9.120078e-13
-3.964465e-12
4.109848e-12
-9.644957e-13
9.024036e-13
-4.214657e-12
4.290113e-12
-9.591625e-13
8.934835e-13
-4.345779e-12
4.257541e-12
-9.501365e-13
5.151908e-12
-2.057883e-12
6.681598e-12
-2.229086e-12
3.884669e-12
-2.329173e-12
4.003979e-12
1.029138e-12
4.088884e-12
-1.096574e-12
9.517968e-13
-4.295009e-12
4.461405e-12
-1.018146e-12
1.020524e-12
-4.567635e-12
4.638652e-12
-1.088041e-12
1.010502e-12
-4.674795e-12
4.573441e-12
-1.077219e-12
5.746739e-12
-2.328434e-12
7.322461e-12
-2.52743e-12
4.218539e-12
-2.646519e-12
4.341196e-12
1.168246e-12
4.427837e-12
-1.245828e-12
1.091587e-12
-4.635457e-12
4.815158e-12
-1.172109e-12
1.160942e-12
-4.9249e-12
4.997872e-12
-1.239845e-12
1.149142e-12
-5.034192e-12
4.933568e-12
-1.227255e-12
6.357374e-12
-2.64767e-12
7.980901e-12
-2.876848e-12
4.561117e-12
-3.015876e-12
4.688476e-12
1.329647e-12
4.775721e-12
-1.419988e-12
1.259919e-12
-4.991264e-12
5.178668e-12
-1.355428e-12
1.324897e-12
-5.292558e-12
5.368514e-12
-1.416905e-12
1.311267e-12
-5.405954e-12
5.306562e-12
-1.402333e-12
6.997345e-12
-3.021902e-12
8.669563e-12
-3.284057e-12
4.917173e-12
-3.442664e-12
5.050617e-12
1.517144e-12
5.136775e-12
-1.62133e-12
1.458957e-12
-5.36044e-12
5.557167e-12
-1.571058e-12
1.515656e-12
-5.676181e-12
5.756044e-12
-1.622193e-12
1.500123e-12
-5.795223e-12
5.696587e-12
-1.605813e-12
7.68535e-12
-3.46029e-12
9.406935e-12
-3.759948e-12
5.293059e-12
-3.936699e-12
5.436569e-12
1.73274e-12
5.515035e-12
-1.851396e-12
1.691596e-12
-5.747109e-12
5.954457e-12
-1.822128e-12
1.735844e-12
-6.079981e-12
6.164791e-12
-1.857896e-12
1.718846e-12
-6.20672e-12
6.110471e-12
-1.839906e-12
8.448472e-12
-3.974938e-12
1.022656e-11
-4.323824e-12
5.708149e-12
-4.531864e-12
5.882662e-12
1.977719e-12
5.927991e-12
-2.107232e-12
1.963028e-12
-6.164309e-12
6.376281e-12
-2.111835e-12
1.987915e-12
-6.51032e-12
6.600455e-12
-2.1267e-12
1.969068e-12
-6.645283e-12
6.552429e-12
-2.107442e-12
9.320075e-12
-4.589583e-12
1.117231e-11
-4.993297e-12
1.262227e-11
-5.239015e-12
6.705233e-12
-2.650362e-12
2.315518e-12
2.268599e-12
6.884182e-12
-2.628239e-12
2.280797e-12
6.859103e-12
-2.462625e-12
2.277217e-12
-6.98287e-12
7.073584e-12
-2.44083e-12
2.254531e-12
-7.119166e-12
7.029298e-12
-2.413021e-12
1.032136e-11
-5.316195e-12
1.220918e-11
-5.782501e-12
6.709326e-12
-6.050333e-12
6.898315e-12
6.928251e-12
-2.831885e-12
2.636945e-12
-7.160289e-12
7.349829e-12
-2.825877e-12
2.614615e-12
-7.507682e-12
7.594399e-12
-2.801965e-12
2.582062e-12
-7.637732e-12
7.5492e-12
-2.763754e-12
1.150145e-11
-6.166193e-12
1.344748e-11
-6.708958e-12
7.294196e-12
-7.011728e-12
7.535717e-12
3.025051e-12
7.49196e-12
-3.250604e-12
3.036767e-12
-7.736733e-12
7.938299e-12
-3.265313e-12
3.004271e-12
-8.094346e-12
8.172625e-12
-3.223275e-12
2.957713e-12
-8.207336e-12
8.117603e-12
-3.164481e-12
1.287408e-11
-7.129334e-12
1.489029e-11
-7.760946e-12
8.007453e-12
-8.131615e-12
8.292607e-12
3.499356e-12
8.191719e-12
-3.77135e-12
3.5106e-12
-8.429635e-12
8.62086e-12
-3.776138e-12
3.459796e-12
-8.754537e-12
8.825894e-12
-3.72301e-12
3.386108e-12
-8.845529e-12
8.743789e-12
-3.629346e-12
1.440192e-11
-8.224278e-12
1.647088e-11
-4.397572e-12
-4.489393e-12
8.828799e-12
-4.663278e-12
9.159811e-12
-4.69536e-12
4.065941e-12
9.013967e-12
-4.384815e-12
4.06257e-12
-9.242275e-12
9.417286e-12
-4.3738e-12
4.055452e-12
-9.485505e-12