/*--------------------------------*- C++ -*----------------------------------*\
| =========                 |                                                 |
| \\      /  F ield         | OpenFOAM: The Open Source CFD Toolbox           |
|  \\    /   O peration     | Version:  2206                                  |
|   \\  /    A nd           | Website:  www.openfoam.com                      |
|    \\/     M anipulation  |                                                 |
\*---------------------------------------------------------------------------*/
FoamFile
{
    version     2.0;
    format      ascii;
    arch        "LSB;label=32;scalar=64";
    class       surfaceScalarField;
    location    "1.2";
    object      phi.b;
}
// * * * * * * * * * * * * * * * * * * * * * * * * * * * * * * * * * * * * * //

dimensions      [0 3 -1 0 0 0 0];

oriented        oriented;

internalField   nonuniform List<scalar> 
26037
(
3.309608e-11
6.533264e-13
4.389784e-11
1.036143e-12
3.975282e-11
-4.248844e-12
3.932698e-11
-9.278573e-12
4.302029e-11
-9.879521e-12
4.74254e-11
-9.503662e-12
-8.919275e-12
5.130584e-11
2.843793e-11
1.491418e-11
3.499542e-11
-1.223593e-12
3.71645e-11
-1.088795e-11
3.954239e-11
-1.537407e-11
4.360172e-11
-1.620601e-11
4.805199e-11
-1.563381e-11
-1.455235e-11
5.19804e-11
2.405259e-11
-1.683436e-12
3.188297e-11
-1.134927e-11
3.558324e-11
-1.72366e-11
4.003945e-11
-2.182028e-11
4.481725e-11
-2.241918e-11
4.950952e-11
-2.16335e-11
-2.015746e-11
5.356469e-11
1.857942e-11
-1.788617e-11
2.878743e-11
-2.241712e-11
3.632897e-11
-2.574706e-11
4.072845e-11
-2.699262e-11
4.642059e-11
-2.88649e-11
5.156552e-11
-2.776022e-11
-2.589305e-11
5.589369e-11
1.62441e-11
-3.088659e-11
2.729435e-11
-3.28881e-11
3.632393e-11
-3.45558e-11
4.390552e-11
-3.460615e-11
4.836789e-11
-3.364193e-11
5.414017e-11
-3.429646e-11
-3.198011e-11
5.890941e-11
1.51775e-11
-4.280227e-11
2.68262e-11
-4.338011e-11
3.69616e-11
-4.390099e-11
4.573804e-11
-4.302181e-11
5.330131e-11
-4.13308e-11
5.722138e-11
-3.889427e-11
-3.861447e-11
6.257595e-11
1.488945e-11
-5.462117e-11
2.713928e-11
-5.433845e-11
3.78952e-11
-5.368144e-11
4.808804e-11
-5.273144e-11
5.664064e-11
-4.996346e-11
6.386408e-11
-4.682033e-11
-4.297546e-11
6.691945e-11
1.515486e-11
-6.693555e-11
2.813509e-11
-6.610425e-11
4.01359e-11
-6.474857e-11
5.113636e-11
-6.329989e-11
6.064153e-11
-5.961418e-11
6.874387e-11
-5.568695e-11
-5.101843e-11
7.541158e-11
1.583852e-11
-8.017041e-11
2.972102e-11
-7.894268e-11
4.277253e-11
-7.701247e-11
5.484538e-11
-7.507621e-11
6.538983e-11
-7.042011e-11
7.446017e-11
-6.561288e-11
-5.999345e-11
8.200228e-11
1.683999e-11
-9.463765e-11
3.181299e-11
-9.307144e-11
4.601671e-11
-9.06065e-11
5.928459e-11
-8.820627e-11
7.096827e-11
-8.249426e-11
8.111227e-11
-7.670808e-11
-7.002068e-11
8.964351e-11
1.811144e-11
-1.105929e-10
3.43836e-11
-1.086985e-10
4.990477e-11
-1.056982e-10
6.451323e-11
-1.028346e-10
7.747074e-11
-9.596713e-11
8.881309e-11
-8.909284e-11
-8.121662e-11
9.845242e-11
1.96409e-11
-1.282743e-10
3.74387e-11
-1.26036e-10
5.4474e-11
-1.224717e-10
7.060383e-11
-1.191295e-10
8.499661e-11
-1.109896e-10
9.768723e-11
-1.029104e-10
-9.370857e-11
1.085642e-10
2.143397e-11
-1.479254e-10
4.10058e-11
-1.453135e-10
5.978307e-11
-1.411382e-10
7.763436e-11
-1.372775e-10
9.366774e-11
-1.277565e-10
1.078725e-10
-1.183215e-10
-1.076418e-10
1.201324e-10
2.351236e-11
-1.698126e-10
4.51323e-11
-1.667873e-10
6.590561e-11
-1.619375e-10
8.55202e-11
-1.573151e-10
1.036101e-10
-1.466857e-10
1.195256e-10
-1.355214e-10
-1.231904e-10
1.33341e-10
2.590261e-11
-1.942325e-10
4.987664e-11
-1.907484e-10
7.284071e-11
-1.850492e-10
9.241935e-11
-1.774129e-10
1.147715e-10
-1.69974e-10
1.328343e-10
-1.549405e-10
-1.405531e-10
1.484026e-10
2.86325e-11
-2.215134e-10
5.527828e-11
-2.175035e-10
8.091648e-11
-2.109474e-10
1.049549e-10
-2.020568e-10
1.279356e-10
-1.939852e-10
1.48034e-10
-1.764691e-10
-1.599572e-10
1.655785e-10
3.1755e-11
-2.520404e-10
6.146494e-11
-2.474388e-10
9.009444e-11
-2.399466e-10
1.171309e-10
-2.298004e-10
1.427376e-10
-2.207175e-10
1.653385e-10
-2.005785e-10
-1.81692e-10
1.85143e-10
3.530557e-11
-2.862377e-10
6.849556e-11
-2.80967e-10
1.005034e-10
-2.7243e-10
1.307768e-10
-2.608778e-10
1.59516e-10
-2.506736e-10
1.85019e-10
-2.276695e-10
-2.060772e-10
2.073985e-10
3.932924e-11
-3.24578e-10
7.646178e-11
-3.185504e-10
1.122985e-10
-3.088492e-10
1.462347e-10
-2.957188e-10
1.780635e-10
-2.838238e-10
2.073235e-10
-2.58616e-10
-2.335025e-10
2.326608e-10
4.38747e-11
-3.675859e-10
8.546229e-11
-3.607041e-10
1.256404e-10
-3.497192e-10
1.635211e-10
-3.346049e-10
1.94368e-10
-3.160612e-10
2.321262e-10
-2.981711e-10
-2.648034e-10
2.612585e-10
4.899142e-11
-4.158387e-10
9.558068e-11
-4.079805e-10
1.405956e-10
-3.955408e-10
1.833125e-10
-3.784322e-10
2.230035e-10
-3.572065e-10
2.609822e-10
-3.380608e-10
-2.996912e-10
2.936142e-10
5.474472e-11
-4.699827e-10
1.069686e-10
-4.61023e-10
1.574751e-10
-4.469799e-10
2.055243e-10
-4.277108e-10
2.505832e-10
-4.038296e-10
2.930674e-10
-3.825697e-10
-3.390698e-10
3.300957e-10
6.118919e-11
-5.307228e-10
1.19726e-10
-5.205242e-10
1.763914e-10
-5.047185e-10
2.303937e-10
-4.830751e-10
2.810957e-10
-4.562193e-10
3.2821e-10
-4.318434e-10
-3.844699e-10
3.711356e-10
6.83816e-11
-5.988254e-10
1.339652e-10
-5.872373e-10
1.97519e-10
-5.69506e-10
2.582409e-10
-5.453111e-10
3.150627e-10
-5.148673e-10
3.600853e-10
-4.791069e-10
-4.436776e-10
4.16657e-10
7.63724e-11
-6.751126e-10
1.497849e-10
-6.619707e-10
2.209869e-10
-6.42131e-10
2.890992e-10
-6.151186e-10
3.533339e-10
-5.810945e-10
4.126006e-10
-5.40702e-10
-5.029433e-10
4.690464e-10
8.521239e-11
-7.604638e-10
1.673025e-10
-7.456077e-10
2.470234e-10
-7.235041e-10
3.234969e-10
-6.935133e-10
3.959704e-10
-6.557762e-10
4.637419e-10
-6.109928e-10
-5.697109e-10
5.274996e-10
9.489105e-11
-8.557551e-10
1.865804e-10
-8.391142e-10
2.757207e-10
-8.145766e-10
3.614642e-10
-7.814612e-10
4.430444e-10
-7.398409e-10
5.196664e-10
-6.903893e-10
-6.445379e-10
5.912282e-10
1.048507e-10
-9.613122e-10
2.076103e-10
-9.440146e-10
3.071103e-10
-9.163523e-10
4.030981e-10
-8.800091e-10
4.948428e-10
-8.344248e-10
5.809928e-10
-7.796381e-10
-7.171319e-10
6.501445e-10
1.159425e-10
-1.078328e-09
2.303841e-10
-1.060993e-09
3.411794e-10
-1.029845e-09
4.483641e-10
-9.901994e-10
5.510133e-10
-9.403654e-10
6.476911e-10
-8.798393e-10
-8.08518e-10
7.354342e-10
1.182824e-10
-1.198102e-09
2.532131e-10
-1.198939e-09
3.77759e-10
-1.157601e-09
4.974632e-10
-1.113462e-09
6.128814e-10
-1.059655e-09
7.231221e-10
-9.941839e-10
-9.166214e-10
8.270584e-10
1.392812e-10
-1.339357e-09
2.781364e-10
-1.341398e-09
4.164551e-10
-1.299777e-09
5.49803e-10
-1.251051e-09
6.792379e-10
-1.193683e-09
8.044502e-10
-1.124236e-09
-1.040971e-09
9.239383e-10
1.526285e-10
-1.49453e-09
2.819057e-10
-1.474932e-09
4.510534e-10
-1.473629e-09
6.042624e-10
-1.409376e-09
7.488352e-10
-1.343744e-09
8.897745e-10
-1.270935e-09
-1.182822e-09
1.025863e-09
1.661138e-10
-1.663859e-09
3.266081e-10
-1.640422e-09
4.601151e-10
-1.612767e-09
6.564293e-10
-1.611995e-09
8.206423e-10
-1.514561e-09
9.795282e-10
-1.436747e-09
-1.345411e-09
1.135196e-09
1.786857e-10
-1.846544e-09
3.542226e-10
-1.821889e-09
5.274735e-10
-1.792653e-09
7.090438e-10
-1.801304e-09
8.925239e-10
-1.706132e-09
1.071127e-09
-1.62379e-09
-1.531815e-09
1.249071e-09
1.904825e-10
-2.041935e-09
3.782168e-10
-2.016675e-09
5.649051e-10
-1.987309e-09
7.090161e-10
-1.954671e-09
9.502599e-10
-1.957633e-09
1.160426e-09
-1.844452e-09
-1.744078e-09
1.362171e-09
2.003695e-10
-2.248255e-09
3.980484e-10
-2.22272e-09
5.974359e-10
-2.19626e-09
7.952271e-10
-2.163347e-09
9.532964e-10
-2.128231e-09
1.23721e-09
-2.141985e-09
-1.9899e-09
1.469767e-09
2.077412e-10
-2.463115e-09
4.131334e-10
-2.437997e-09
6.211442e-10
-2.4157e-09
8.344319e-10
-2.389704e-09
1.052444e-09
-2.360961e-09
1.30048e-09
-2.407273e-09
-2.27094e-09
1.564489e-09
2.113992e-10
-2.682906e-09
4.215184e-10
-2.659699e-09
6.353224e-10
-2.643051e-09
8.570678e-10
-2.627059e-09
1.087742e-09
-2.609353e-09
1.256574e-09
-2.596922e-09
-2.665599e-09
1.628625e-09
2.058165e-10
-2.898448e-09
4.205142e-10
-2.887817e-09
6.359039e-10
-2.874285e-09
8.600155e-10
-2.869592e-09
1.09785e-09
-2.868321e-09
1.348614e-09
-2.871722e-09
-3.00373e-09
1.657843e-09
1.711813e-10
-3.080698e-09
3.990516e-10
-3.131206e-09
6.199673e-10
-3.113601e-09
8.427462e-10
-3.113947e-09
1.082267e-09
-3.132824e-09
1.3409e-09
-3.159826e-09
-3.208903e-09
1.507405e-09
1.844189e-10
-3.277395e-09
3.166668e-10
-3.281072e-09
5.690266e-10
-3.387906e-09
7.978273e-10
-3.36811e-09
1.030291e-09
-3.396235e-09
1.28813e-09
-3.460294e-09
-3.547277e-09
1.562199e-09
1.682324e-10
-3.459472e-09
3.28308e-10
-3.460794e-09
4.182921e-10
-3.503413e-09
7.003078e-10
-3.683288e-09
9.381145e-10
-3.681407e-09
1.168647e-09
-3.772317e-09
-3.890984e-09
1.383576e-09
1.390187e-10
-3.61452e-09
2.782078e-10
-3.622637e-09
4.137399e-10
-3.669598e-09
4.514145e-10
-3.773098e-09
7.483938e-10
-4.078316e-09
9.117976e-10
-4.094748e-09
-4.186063e-09
9.999015e-10
9.422977e-11
-3.728035e-09
2.00952e-10
-3.757554e-09
3.084121e-10
-3.824687e-09
3.977161e-10
-3.957826e-09
2.68568e-10
-4.135148e-09
4.452729e-10
-4.530707e-09
-4.427395e-09
4.304633e-10
1.482078e-11
-3.768087e-09
8.824598e-11
-3.873816e-09
1.318033e-10
-3.95682e-09
1.370294e-10
-4.133051e-09
2.099595e-11
-4.265714e-09
-4.154895e-10
-4.393405e-09
-4.832458e-09
-3.003193e-10
-2.492016e-11
-3.780119e-09
-1.178267e-10
-3.859193e-09
-2.282295e-10
-4.00828e-09
-2.917033e-10
-4.321131e-09
-4.855095e-10
-4.34593e-09
-7.872051e-10
-4.357945e-09
-4.380138e-09
-1.508693e-09
-1.090471e-10
-3.737612e-09
-2.526701e-10
-3.850166e-09
-4.829113e-10
-3.99999e-09
-9.457878e-10
-4.141752e-09
-1.105967e-09
-4.462637e-09
-1.446941e-09
-4.248857e-09
-4.215823e-09
-1.816018e-09
-2.275729e-10
-3.632087e-09
-5.159081e-10
-3.763305e-09
-8.832751e-10
-3.894126e-09
-1.301188e-09
-3.981755e-09
-1.977011e-09
-4.023633e-09
-2.458305e-09
-3.968864e-09
-4.343835e-09
-2.509564e-09
-3.783704e-10
-3.453542e-09
-8.299991e-10
-3.570072e-09
-1.319239e-09
-3.670004e-09
-1.794503e-09
-3.726666e-09
-2.258629e-09
-3.722394e-09
-2.709543e-09
-3.644651e-09
-3.57293e-09
-3.605944e-09
-5.482141e-10
-3.193083e-09
-1.144848e-09
-3.26859e-09
-1.720469e-09
-3.337324e-09
-2.259889e-09
-3.352521e-09
-2.76453e-09
-3.31643e-09
-3.254185e-09
-3.220124e-09
-3.089692e-09
-3.781403e-09
-7.731896e-10
-2.792882e-09
-1.552077e-09
-2.813564e-09
-2.066971e-09
-3.041915e-09
-2.637675e-09
-2.893542e-09
-3.206991e-09
-2.788072e-09
-3.796661e-09
-2.635874e-09
-2.504524e-09
-4.353256e-09
-8.855865e-10
-2.338734e-09
-1.699974e-09
-2.314038e-09
-2.637023e-09
-2.291351e-09
-3.365278e-09
-2.246066e-09
-4.097034e-09
-2.059909e-09
-4.854023e-09
-1.838129e-09
-2.136619e-09
-5.138278e-09
-9.942232e-10
-1.820569e-09
-1.838225e-09
-1.782675e-09
-2.552862e-09
-1.728604e-09
-3.202266e-09
-1.640696e-09
-3.759048e-09
-1.475247e-09
-4.311247e-09
-1.217292e-09
-1.003199e-09
-5.339547e-09
-1.063283e-09
-1.260472e-09
-1.930686e-09
-1.22764e-09
-2.615803e-09
-1.180672e-09
-3.175289e-09
-1.105005e-09
-3.628939e-09
-9.720747e-10
-4.002754e-09
-7.557282e-10
-4.414042e-10
-4.450756e-09
-1.114346e-09
-6.621184e-10
-2.012602e-09
-6.427793e-10
-2.709587e-09
-6.122367e-10
-3.261107e-09
-5.616691e-10
-3.682567e-09
-4.791421e-10
-3.970442e-09
-3.508976e-10
-1.618762e-10
-4.099234e-09
-1.1743e-09
-8.817216e-12
-2.133724e-09
-5.632383e-13
-2.892438e-09
1.934966e-11
-3.502351e-09
4.893779e-11
-3.970536e-09
7.941703e-11
-4.275262e-09
1.032321e-10
1.131831e-10
-4.34359e-09
-1.176681e-09
6.479287e-10
-2.139856e-09
6.464883e-10
-2.90663e-09
6.58984e-10
-3.530265e-09
6.727985e-10
-4.020182e-09
6.618254e-10
-4.358812e-09
5.992416e-10
4.569246e-10
-4.477821e-09
-1.11884e-09
1.254541e-09
-2.026887e-09
1.243866e-09
-2.742354e-09
1.245596e-09
-3.320499e-09
1.241779e-09
-3.778586e-09
1.195176e-09
-4.125562e-09
1.073095e-09
8.59091e-10
-4.363071e-09
-1.064875e-09
1.822789e-09
-1.943116e-09
1.81117e-09
-2.647623e-09
1.809537e-09
-3.231567e-09
1.797913e-09
-3.715222e-09
1.727545e-09
-4.139026e-09
1.581982e-09
1.518455e-09
-4.699936e-09
-9.889091e-10
2.344952e-09
-1.840156e-09
2.347362e-09
-2.569005e-09
2.376994e-09
-3.233733e-09
2.407508e-09
-3.805641e-09
2.315455e-09
-4.383928e-09
2.208021e-09
2.676763e-09
-5.476452e-09
-8.709611e-10
2.797668e-09
-1.685246e-09
2.841765e-09
-2.629572e-09
3.116544e-09
-3.362855e-09
3.0358e-09
-4.096062e-09
3.015522e-09
-4.8529e-09
2.963672e-09
2.951376e-09
-5.099434e-09
-7.495045e-10
3.192098e-09
-1.518692e-09
3.283514e-09
-2.032657e-09
3.390934e-09
-2.600927e-09
3.464086e-09
-3.163752e-09
3.501382e-09
-3.742714e-09
3.49145e-09
3.457281e-09
-4.272799e-09
-5.225986e-10
3.448634e-09
-1.10353e-09
3.572688e-09
-1.671907e-09
3.699741e-09
-2.207801e-09
3.802913e-09
-2.708916e-09
3.861109e-09
-3.193786e-09
3.859428e-09
3.876404e-09
-3.714145e-09
-3.568465e-10
3.627356e-09
-7.886991e-10
3.757891e-09
-1.265175e-09
3.902313e-09
-1.735291e-09
4.023872e-09
-2.197176e-09
4.117043e-09
-2.644736e-09
4.127587e-09
4.58973e-09
-3.546388e-09
-2.142456e-10
3.736727e-09
-4.831741e-10
3.843773e-09
-8.322942e-10
3.994143e-09
-1.239511e-09
4.154202e-09
-1.911284e-09
4.512805e-09
-2.39398e-09
4.357829e-09
4.387215e-09
-2.429012e-09
-1.038974e-10
3.784194e-09
-2.33578e-10
3.85807e-09
-4.441391e-10
4.000299e-09
-8.90538e-10
4.316135e-09
-1.047394e-09
4.368341e-09
-1.381833e-09
4.42348e-09
4.488134e-09
-1.732085e-09
-2.480469e-11
3.775881e-09
-1.120172e-10
3.880214e-09
-2.079546e-10
3.958043e-09
-2.556119e-10
4.130835e-09
-4.378741e-10
4.273733e-09
-7.225832e-10
4.420535e-09
4.788898e-09
-1.318663e-09
1.326503e-11
3.738346e-09
8.673855e-11
3.768841e-09
1.359233e-10
3.836003e-09
1.549623e-10
3.966766e-09
6.229181e-11
4.138142e-09
-2.74653e-10
4.463705e-09
4.478081e-09
-2.641682e-10
9.383925e-11
3.62527e-09
1.996898e-10
3.635281e-09
3.084995e-10
3.685344e-09
4.100924e-10
3.787122e-09
3.571513e-10
4.036102e-09
4.82584e-10
4.104177e-09
4.292481e-09
4.076311e-10
1.404946e-10
3.46875e-09
2.805699e-10
3.472045e-09
4.205611e-10
3.514982e-09
5.03099e-10
3.659239e-09
7.684991e-10
3.690104e-09
9.400816e-10
3.797229e-09
3.967397e-09
1.068739e-09
1.712034e-10
3.283645e-09
3.361412e-10
3.287216e-09
4.570042e-10
3.368356e-09
7.145998e-10
3.369338e-09
9.496468e-10
3.412778e-09
1.169001e-09
3.508505e-09
3.56737e-09
1.454548e-09
1.892803e-10
3.081978e-09
3.432013e-10
3.115739e-09
5.823422e-10
3.107407e-09
8.081094e-10
3.118011e-09
1.027786e-09
3.162288e-09
1.329012e-09
3.167934e-09
3.203815e-09
1.637249e-09
1.843153e-10
2.886496e-09
4.082359e-10
2.876429e-09
6.294514e-10
2.867947e-09
8.393771e-10
2.886421e-09
1.10919e-09
2.867259e-09
1.387202e-09
2.861222e-09
2.976843e-09
1.578278e-09
2.094568e-10
2.667183e-09
4.263014e-10
2.646248e-09
6.44455e-10
2.634163e-09
8.778237e-10
2.63474e-09
1.126142e-09
2.598174e-09
1.386875e-09
2.576948e-09
2.629737e-09
1.705956e-09
2.141375e-10
2.444504e-09
4.251449e-10
2.423714e-09
6.317436e-10
2.414127e-09
8.719919e-10
2.379062e-09
1.107089e-09
2.345773e-09
1.287181e-09
2.376645e-09
2.235535e-09
1.659448e-09
2.091173e-10
2.228109e-09
4.085391e-10
2.214395e-09
6.278137e-10
2.183524e-09
8.46335e-10
2.147771e-09
1.041417e-09
2.136125e-09
1.315447e-09
2.086078e-09
1.953454e-09
1.581172e-09
2.008136e-10
2.021186e-09
4.008181e-10
2.006004e-09
6.032171e-10
1.971717e-09
8.040534e-10
1.936358e-09
9.894347e-10
1.938578e-09
1.248867e-09
1.813901e-09
1.71303e-09
1.476672e-09
1.869667e-10
1.82915e-09
3.797512e-10
1.806154e-09
5.68334e-10
1.775315e-09
7.142428e-10
1.781493e-09
9.58236e-10
1.684774e-09
1.163403e-09
1.598824e-09
1.504089e-09
1.362463e-09
1.785998e-10
1.646409e-09
3.551494e-10
1.623675e-09
5.288729e-10
1.595095e-09
7.104617e-10
1.59244e-09
8.935109e-10
1.494028e-09
1.070171e-09
1.414235e-09
1.321051e-09
1.245368e-09
1.657194e-10
1.477354e-09
3.265509e-10
1.457858e-09
4.60421e-10
1.455736e-09
6.557662e-10
1.39106e-09
8.189974e-10
1.324566e-09
9.761461e-10
1.250644e-09
1.161543e-09
1.129324e-09
1.521643e-10
1.322545e-09
2.813793e-10
1.324407e-09
4.497601e-10
1.282788e-09
6.021611e-10
1.233787e-09
7.456414e-10
1.175946e-09
8.849937e-10
1.10598e-09
1.022336e-09
1.018984e-09
1.385948e-10
1.181897e-09
2.767996e-10
1.182623e-09
4.143829e-10
1.141474e-09
5.468686e-10
1.097284e-09
6.752027e-10
1.043334e-09
7.990046e-10
9.777401e-10
9.001613e-10
9.168036e-10
1.175776e-10
1.062766e-09
2.51585e-10
1.045631e-09
3.753013e-10
1.014665e-09
4.94111e-10
9.751154e-10
6.084937e-10
9.253568e-10
7.17525e-10
8.649525e-10
7.93848e-10
8.200836e-10
1.150339e-10
9.466112e-10
2.286107e-10
9.295458e-10
3.385684e-10
9.021129e-10
4.448832e-10
8.659682e-10
5.465946e-10
8.205905e-10
6.422569e-10
7.660592e-10
7.038492e-10
7.289529e-10
1.039321e-10
8.419357e-10
2.05826e-10
8.255385e-10
3.045054e-10
8.01247e-10
3.996765e-10
7.683833e-10
4.905853e-10
7.270397e-10
5.758909e-10
6.778955e-10
6.320199e-10
6.4456e-10
9.399447e-11
7.475111e-10
1.848586e-10
7.328806e-10
2.732232e-10
7.110246e-10
3.582201e-10
6.813029e-10
4.3907e-10
6.438656e-10
5.149736e-10
5.994102e-10
5.581264e-10
5.858283e-10
8.436954e-11
6.629775e-10
1.656858e-10
6.500359e-10
2.44689e-10
6.304294e-10
3.204907e-10
6.036778e-10
3.923328e-10
5.699434e-10
4.595169e-10
5.29859e-10
4.920857e-10
5.227248e-10
7.559442e-11
5.87446e-10
1.482926e-10
5.760303e-10
2.18838e-10
5.585084e-10
2.863483e-10
5.345495e-10
3.500364e-10
5.043639e-10
4.088435e-10
4.688429e-10
4.333562e-10
4.648911e-10
6.767052e-11
5.200333e-10
1.326005e-10
5.099795e-10
1.955555e-10
4.943556e-10
2.557325e-10
4.729182e-10
3.120784e-10
4.462708e-10
3.569568e-10
4.218199e-10
3.749449e-10
4.128406e-10
6.054241e-11
4.599185e-10
1.184828e-10
4.510776e-10
1.746026e-10
4.371883e-10
2.281091e-10
4.180948e-10
2.78365e-10
3.943884e-10
3.25086e-10
3.730163e-10
3.300095e-10
3.676318e-10
5.415716e-11
4.063393e-10
1.058369e-10
3.985764e-10
1.558448e-10
3.862641e-10
2.034409e-10
3.693024e-10
2.480909e-10
3.482216e-10
2.901912e-10
3.289531e-10
2.91032e-10
3.268887e-10
4.845683e-11
3.585958e-10
9.454882e-11
3.517886e-10
1.391072e-10
3.409068e-10
1.814102e-10
3.259121e-10
2.207413e-10
3.07473e-10
2.583568e-10
2.894771e-10
2.564981e-10
2.90694e-10
4.338662e-11
3.160469e-10
8.451845e-11
3.100757e-10
1.242773e-10
3.004558e-10
1.617883e-10
2.874099e-10
1.924961e-10
2.754027e-10
2.29745e-10
2.504712e-10
2.255209e-10
2.586032e-10
3.888154e-11
2.781198e-10
7.559506e-11
2.728895e-10
1.110461e-10
2.64414e-10
1.446333e-10
2.529233e-10
1.76154e-10
2.425794e-10
2.051238e-10
2.198451e-10
1.983654e-10
2.302322e-10
3.489276e-11
2.442942e-10
6.769581e-11
2.397186e-10
9.9348e-11
2.322696e-10
1.292993e-10
2.221646e-10
1.577403e-10
2.129312e-10
1.829908e-10
1.930281e-10
1.742266e-10
2.051569e-10
3.137182e-11
2.141008e-10
6.072327e-11
2.10103e-10
8.902398e-11
2.035733e-10
1.157634e-10
1.947052e-10
1.41095e-10
1.864749e-10
1.634621e-10
1.691666e-10
1.527241e-10
1.830605e-10
2.827546e-11
1.871167e-10
5.458761e-11
1.836318e-10
7.992172e-11
1.779425e-10
1.036958e-10
1.703033e-10
1.264171e-10
1.627162e-10
1.463008e-10
1.478601e-10
1.335357e-10
1.636509e-10
2.556818e-11
1.629574e-10
4.923087e-11
1.599193e-10
7.191959e-11
1.55057e-10
9.137912e-11
1.502915e-10
1.133835e-10
1.3976e-10
1.312473e-10
1.286417e-10
1.163585e-10
1.466481e-10
2.319719e-11
1.412953e-10
4.452601e-11
1.38658e-10
6.504027e-11
1.34453e-10
8.443528e-11
1.304279e-10
1.02328e-10
1.210033e-10
1.18091e-10
1.115905e-10
1.009498e-10
1.317816e-10
2.113514e-11
1.218333e-10
4.04347e-11
1.195551e-10
5.897387e-11
1.159434e-10
7.662354e-11
1.124208e-10
9.250196e-11
1.043555e-10
1.065933e-10
9.628218e-11
8.710536e-11
1.187765e-10
1.93539e-11
1.043066e-10
3.689503e-11
1.023539e-10
5.371548e-11
9.928264e-11
6.967159e-11
9.622121e-11
8.394421e-11
8.940432e-11
9.656022e-11
8.252002e-11
7.465339e-11
1.07405e-10
1.782716e-11
8.847891e-11
3.385502e-11
8.682722e-11
4.918486e-11
8.425846e-11
6.365376e-11
8.163529e-11
7.652592e-11
7.595312e-11
8.783117e-11
7.014296e-11
6.345451e-11
9.74758e-11
1.653957e-11
7.413161e-11
3.127659e-11
7.277169e-11
4.531775e-11
7.068597e-11
5.848563e-11
6.849145e-11
7.012569e-11
6.384431e-11
8.02686e-11
5.900819e-11
5.338682e-11
8.883584e-11
1.548592e-11
6.105045e-11
2.913593e-11
5.999814e-11
4.206581e-11
5.840004e-11
5.409285e-11
5.664128e-11
6.464276e-11
5.294568e-11
7.375045e-11
4.899501e-11
4.433748e-11
8.135531e-11
1.468533e-11
4.899707e-11
2.743496e-11
4.832055e-11
3.938545e-11
4.726986e-11
5.041467e-11
4.594515e-11
5.99901e-11
4.314524e-11
6.817343e-11
3.999667e-11
3.619516e-11
7.492493e-11
1.419593e-11
3.76649e-11
2.623111e-11
3.75201e-11
3.712561e-11
3.733401e-11
4.739321e-11
3.613383e-11
5.609373e-11
3.432667e-11
6.34439e-11
3.191142e-11
3.160335e-11
6.671824e-11
1.410111e-11
2.665175e-11
2.558502e-11
2.733985e-11
3.596639e-11
2.793744e-11
4.505938e-11
2.753041e-11
5.288347e-11
2.643552e-11
5.709651e-11
2.703523e-11
2.488103e-11
6.254696e-11
1.456108e-11
1.536249e-11
2.558814e-11
1.747442e-11
3.514404e-11
1.918372e-11
4.328011e-11
1.976458e-11
4.825096e-11
2.136775e-11
5.421103e-11
2.041177e-11
1.87587e-11
5.906182e-11
1.581081e-11
2.793247e-12
2.63894e-11
7.472052e-12
3.492805e-11
1.086124e-11
4.035242e-11
1.434416e-11
4.652139e-11
1.488935e-11
5.184737e-11
1.432152e-11
1.308052e-11
5.621754e-11
1.832264e-11
-1.315737e-11
2.818601e-11
-3.284706e-12
3.404478e-11
4.143615e-12
3.983583e-11
7.800342e-12
4.51614e-11
8.820572e-12
4.99727e-11
8.538331e-12
7.659177e-12
5.399426e-11
2.401067e-11
-2.960397e-11
3.077607e-11
-1.226774e-11
3.542428e-11
-3.137258e-12
3.960339e-11
1.684143e-12
4.413614e-11
2.900967e-12
4.858192e-11
2.8059e-12
2.288625e-12
5.241242e-11
2.77912e-11
3.550534e-11
3.74067e-11
3.957173e-11
4.346808e-11
4.777075e-11
5.156784e-11
5.42972e-11
-8.255159e-12
5.654246e-11
-7.543665e-12
2.923468e-11
-6.85459e-12
2.918506e-11
2.949124e-11
-2.228371e-12
-2.970998e-11
2.978779e-11
-1.988958e-12
-2.979799e-11
2.95426e-11
-1.615312e-12
-2.859889e-11
2.446861e-11
9.535666e-13
5.502668e-11
-1.324317e-11
5.728041e-11
-1.177628e-11
2.980174e-11
-1.007087e-11
2.902849e-11
2.946866e-12
2.979948e-11
-3.294483e-12
2.392427e-12
-3.010038e-11
3.027722e-11
-2.837636e-12
1.902145e-12
-3.046845e-11
3.063842e-11
-2.272045e-12
1.213846e-12
-3.079796e-11
2.998915e-11
-1.6883e-12
5.67433e-11
-1.83066e-11
5.922937e-11
-1.623457e-11
6.160948e-11
-1.413291e-11
3.11357e-11
-5.331139e-12
4.205987e-12
4.488092e-12
3.145174e-11
-5.649438e-12
3.38116e-12
3.125913e-11
-3.763041e-12
2.652438e-12
-3.1466e-11
3.162579e-11
-3.023748e-12
1.930894e-12
-3.164619e-11
3.05225e-11
-2.084127e-12
5.926154e-11
-2.350384e-11
6.178e-11
-2.070909e-11
3.093656e-11
-1.749765e-11
3.251432e-11
3.212945e-11
-6.844516e-12
4.459386e-12
-3.242822e-11
3.265388e-11
-4.970784e-12
3.40447e-12
-3.289065e-11
3.303549e-11
-3.773001e-12
2.297188e-12
-3.300566e-11
3.180509e-11
-2.402642e-12
6.264436e-11
-2.903513e-11
6.55614e-11
-2.558078e-11
3.379177e-11
-2.172594e-11
3.429181e-11
7.705521e-12
3.403319e-11
-8.269094e-12
5.516721e-12
-3.435733e-11
3.460434e-11
-6.065037e-12
4.138625e-12
-3.483801e-11
3.496881e-11
-4.507911e-12
2.531525e-12
-3.491384e-11
3.368048e-11
-2.65899e-12
6.679153e-11
-3.503957e-11
7.010031e-11
-3.08517e-11
3.610126e-11
-2.617378e-11
3.672357e-11
9.412702e-12
3.637339e-11
-1.000531e-11
6.65322e-12
3.704075e-11
-7.255429e-12
-3.675558e-11
4.886542e-12
-3.729589e-11
3.742782e-11
-5.275202e-12
2.792834e-12
-3.735622e-11
3.605162e-11
-2.928602e-12
7.173237e-11
-4.16479e-11
7.552942e-11
-3.662677e-11
3.893924e-11
-3.101937e-11
3.968762e-11
3.919668e-11
-1.188445e-11
1.130154e-11
7.934611e-12
-3.915226e-11
3.999357e-11
-9.085431e-12
5.678156e-12
-4.029236e-11
4.043311e-11
-6.096948e-12
3.06186e-12
-4.034741e-11
3.894509e-11
-3.203573e-12
7.752405e-11
-4.55985e-11
8.192368e-11
-4.301912e-11
4.232383e-11
-3.637644e-11
4.318361e-11
1.333731e-11
4.264186e-11
-1.398696e-11
9.835742e-12
4.354407e-11
-1.059437e-11
-4.309641e-11
6.534902e-12
-4.386913e-11
4.402052e-11
-6.988363e-12
3.360275e-12
-4.389928e-11
4.230216e-11
-3.433427e-12
8.805468e-11
-5.354863e-11
8.935126e-11
-4.635097e-11
4.627253e-11
-4.233894e-11
4.725059e-11
4.66374e-11
-1.632363e-11
1.561947e-11
1.141977e-11
-4.718027e-11
4.77089e-11
-1.227076e-11
7.471971e-12
-4.80914e-11
4.828028e-11
-7.989125e-12
3.557238e-12
-4.81771e-11
4.651181e-11
-3.727167e-12
9.657413e-11
-6.241098e-11
1.021154e-10
-5.397471e-11
5.083164e-11
-4.482484e-11
5.193705e-11
1.817167e-11
5.126509e-11
-1.895245e-11
1.320013e-11
-5.191694e-11
5.254526e-11
-1.416459e-11
8.547224e-12
-5.300528e-11
5.324576e-11
-9.145813e-12
3.916415e-12
-5.315814e-11
5.132661e-11
-4.114638e-12
1.063815e-10
-7.230982e-11
1.127865e-10
-6.248525e-11
5.824726e-11
-5.190216e-11
5.974052e-11
2.105306e-11
5.659383e-11
-1.975806e-11
1.522222e-11
-5.736527e-11
5.811262e-11
-1.632236e-11
9.792563e-12
-5.866971e-11
5.897453e-11
-1.048876e-11
4.383094e-12
-5.89064e-11
5.693035e-11
-4.669658e-12
1.176019e-10
-8.335742e-11
1.249802e-10
-7.200097e-11
6.466421e-11
-5.983484e-11
6.634218e-11
2.203551e-11
6.511315e-11
-2.285972e-11
1.753894e-11
-6.59352e-11
6.444018e-11
-1.642059e-11
1.123809e-11
-6.518473e-11
6.558776e-11
-1.207007e-11
4.80887e-12
-6.554028e-11
6.323957e-11
-5.041147e-12
1.304013e-10
-9.56802e-11
1.388357e-10
-8.261136e-11
7.193612e-11
-6.869265e-11
7.38126e-11
2.544071e-11
7.247848e-11
-2.637304e-11
1.771462e-11
-7.347092e-11
7.44318e-11
-1.907994e-11
1.301999e-11
-7.519362e-11
7.323216e-11
-1.153445e-11
5.378821e-12
-7.345601e-11
7.105993e-11
-5.859208e-12
1.449664e-10
-1.094088e-10
1.545391e-10
-9.440693e-11
8.012605e-11
-7.849e-11
8.221787e-11
2.927416e-11
8.073862e-11
-3.029368e-11
2.060009e-11
-8.188378e-11
8.302472e-11
-2.217167e-11
1.27006e-11
-8.403042e-11
8.49163e-11
-1.411791e-11
6.621482e-12
-8.55929e-11
8.09939e-11
-5.351732e-12
1.615506e-10
-1.247153e-10
1.723569e-10
-1.074923e-10
8.935397e-11
-8.924958e-11
9.171134e-11
3.350128e-11
8.997248e-11
-3.454617e-11
2.382927e-11
-9.115161e-11
9.226902e-11
-2.540661e-11
1.570864e-11
-9.314653e-11
9.386659e-11
-1.699983e-11
8.763742e-12
-9.521446e-11
9.993433e-11
-1.76299e-11
1.804416e-10
-1.417993e-10
1.926532e-10
-1.220487e-10
9.984256e-11
-1.010923e-10
1.025317e-10
3.804554e-11
1.004409e-10
-3.909301e-11
2.697988e-11
-1.016174e-10
1.026811e-10
-2.853968e-11
1.714744e-11
-1.034735e-10
1.043399e-10
-1.866219e-11
-1.411939e-12
-1.073125e-10
1.194035e-10
-1.582363e-11
2.019827e-10
-1.609294e-10
2.158319e-10
-1.383173e-10
1.118586e-10
-1.142895e-10
1.149689e-10
4.294394e-11
1.123997e-10
-4.396111e-11
3.013568e-11
-1.134866e-10
1.145991e-10
-3.179533e-11
1.924863e-11
-1.150047e-10
1.143158e-10
-1.927579e-11
1.268987e-11
-1.111941e-10
9.867079e-11
-4.309068e-12
2.265043e-10
-1.824017e-10
2.422718e-10
-1.565875e-10
1.256235e-10
-1.290852e-10
1.291524e-10
4.852653e-11
1.262764e-10
-4.967806e-11
3.210191e-11
-1.278425e-10
1.289045e-10
-3.382751e-11
1.978329e-11
-1.2961e-10
1.296372e-10
-2.059656e-11
6.10015e-12
-1.287967e-10
1.234962e-10
-5.8083e-12
2.54386e-10
-2.065764e-10
2.723891e-10
-1.771863e-10
1.413864e-10
-1.458382e-10
1.453599e-10
5.459233e-11
1.422104e-10
-5.594692e-11
3.58021e-11
-1.440661e-10
1.453587e-10
-3.782612e-11
2.163043e-11
-1.463077e-10
1.466016e-10
-2.279861e-11
6.476917e-12
-1.459758e-10
1.4056e-10
-6.671087e-12
2.859911e-10
-2.338455e-10
3.065728e-10
-2.004652e-10
1.592704e-10
-1.648204e-10
1.637723e-10
6.156132e-11
1.602471e-10
-6.310314e-11
4.012032e-11
-1.624162e-10
1.639437e-10
-4.244779e-11
2.407571e-11
-1.650893e-10
1.654932e-10
-2.54527e-11
7.076058e-12
-1.648245e-10
1.589003e-10
-7.404417e-12
3.217495e-10
-2.64609e-10
3.453072e-10
-2.268276e-10
1.795633e-10
-1.863865e-10
1.846719e-10
6.946832e-11
1.806895e-10
-7.119832e-11
4.506394e-11
-1.831641e-10
1.84931e-10
-4.770988e-11
2.690613e-11
-1.862523e-10
1.867311e-10
-2.846993e-11
7.680057e-12
-1.859702e-10
1.793543e-10
-8.030705e-12
3.621166e-10
-2.993537e-10
3.890993e-10
-2.567239e-10
2.027024e-10
-2.113424e-10
2.085869e-10
7.836579e-11
2.037941e-10
-8.010222e-11
5.066645e-11
-2.065976e-10
2.086292e-10
-5.366731e-11
3.011092e-11
-2.101431e-10
2.106955e-10
-3.187603e-11
8.362497e-12
-2.098192e-10
2.023862e-10
-8.694989e-12
4.075406e-10
-3.385831e-10
4.380896e-10
-2.90295e-10
2.306602e-10
-2.377854e-10
2.309835e-10
8.768686e-11
2.289612e-10
-8.667953e-11
5.704757e-11
-2.329778e-10
2.352195e-10
-6.035398e-11
3.374986e-11
-2.370712e-10
2.377978e-10
-3.58338e-11
9.053084e-12
-2.368217e-10
2.28559e-10
-9.450386e-12
4.588473e-10
-3.836964e-10
4.944719e-10
-3.290709e-10
5.266888e-10
-2.73146e-10
2.668847e-10
-1.006401e-10
8.967119e-11
9.401443e-11
2.746407e-10
-1.011346e-10
6.756518e-11
2.702124e-10
-7.184692e-11
3.784656e-11
-2.681878e-10
2.686474e-10
-3.981925e-11
9.828742e-12
-2.674569e-10
2.582217e-10
-1.025041e-11
5.161749e-10
-4.338485e-10
5.547623e-10
-3.708827e-10
2.810694e-10
-3.031253e-10
3.005515e-10
2.961782e-10
-1.16559e-10
8.073041e-11
-2.975025e-10
3.005751e-10
-8.486692e-11
4.240204e-11
-3.024993e-10
3.03459e-10
-4.504313e-11
1.065769e-11
-3.0219e-10
2.918831e-10
-1.111309e-11
5.820071e-10
-4.915078e-10
6.27395e-10
-4.196089e-10
3.284258e-10
-3.449559e-10
3.375842e-10
1.282954e-10
3.312505e-10
-1.318998e-10
9.003871e-11
-3.360577e-10
3.40293e-10
-9.543772e-11
4.775786e-11
-3.422234e-10
3.432256e-10
-5.062103e-11
1.155876e-11
-3.417258e-10
3.302123e-10
-1.204882e-11
6.56614e-10
-5.602427e-10
7.073717e-10
-4.738759e-10
3.699905e-10
-3.914161e-10
3.804713e-10
1.455114e-10
3.733774e-10
-1.496995e-10
1.015818e-10
-3.794268e-10
3.844817e-10
-1.078888e-10
5.36139e-11
-3.869652e-10
3.881481e-10
-5.686304e-11
1.253128e-11
-3.865671e-10
3.737675e-10
-1.309307e-11
7.43262e-10
-6.569723e-10
7.956193e-10
-2.612941e-10
-2.686836e-10
4.168381e-10
-2.272305e-10
4.283609e-10
-2.175043e-10
1.653553e-10
4.21265e-10
-1.706367e-10
1.158341e-10
-4.287299e-10
4.357098e-10
-1.24139e-10
5.321503e-11
-4.473896e-10
4.402169e-10
-4.864589e-11
1.357464e-11
-4.378144e-10
4.234589e-10
-1.409134e-11
3.906012e-10
-7.361259e-10
4.202465e-10
4.249774e-10
-2.965806e-10
-4.334326e-10
4.557571e-10
-2.50693e-10
1.892886e-10
-4.652331e-10
4.747458e-10
-1.99875e-10
1.327388e-10
-4.846173e-10
4.924282e-10