/*--------------------------------*- C++ -*----------------------------------*\
| =========                 |                                                 |
| \\      /  F ield         | OpenFOAM: The Open Source CFD Toolbox           |
|  \\    /   O peration     | Version:  2206                                  |
|   \\  /    A nd           | Website:  www.openfoam.com                      |
|    \\/     M anipulation  |                                                 |
\*---------------------------------------------------------------------------*/
FoamFile
{
    version     2.0;
    format      ascii;
    arch        "LSB;label=32;scalar=64";
    class       volVectorField;
    location    "1.2";
    object      U.a;
}
// * * * * * * * * * * * * * * * * * * * * * * * * * * * * * * * * * * * * * //

dimensions      [0 1 -1 0 0 0 0];

internalField   nonuniform List<vector> 
13078
(
(2.436588e-08 -5.492207e-06 4.404228e-29)
(6.707286e-08 -1.164664e-05 1.267261e-33)
(-4.237876e-09 -1.065656e-05 -2.479782e-29)
(1.276676e-08 -7.16714e-06 0)
(1.400832e-08 -5.433834e-06 -1.149574e-29)
(1.139448e-08 -4.494619e-06 -1.147347e-29)
(8.412153e-09 -3.805297e-06 -1.144738e-29)
(-5.66778e-06 -9.825172e-06 0)
(-5.29556e-06 -1.092588e-05 -9.25456e-34)
(-2.184775e-06 -8.446866e-06 0)
(-9.512867e-07 -6.342998e-06 0)
(-4.69665e-07 -5.117858e-06 1.465849e-33)
(-2.6875e-07 -4.348486e-06 6.847033e-34)
(-1.806913e-07 -3.722875e-06 1.341414e-33)
(-3.575137e-06 -3.065796e-06 -6.394079e-31)
(-3.413578e-06 -5.587573e-06 8.262217e-31)
(-2.082027e-06 -5.601124e-06 1.175181e-29)
(-1.18099e-06 -4.997712e-06 2.314003e-29)
(-6.960492e-07 -4.445866e-06 1.15005e-29)
(-4.512117e-07 -3.976201e-06 0)
(-3.285676e-07 -3.483745e-06 -6.510957e-35)
(-1.18793e-06 -1.483193e-06 -7.222132e-31)
(-1.708239e-06 -3.014494e-06 1.893303e-30)
(-1.424682e-06 -3.686871e-06 3.112648e-30)
(-1.019045e-06 -3.831651e-06 1.76832e-30)
(-7.130289e-07 -3.740595e-06 -5.75292e-33)
(-5.279319e-07 -3.516336e-06 0)
(-4.213758e-07 -3.149283e-06 -2.575985e-33)
(-4.070579e-07 -9.43237e-07 -2.953573e-31)
(-8.321904e-07 -1.899451e-06 -5.524214e-32)
(-8.813489e-07 -2.606528e-06 1.780907e-30)
(-7.691502e-07 -2.99521e-06 7.557502e-31)
(-6.387633e-07 -3.133191e-06 -1.413732e-29)
(-5.374746e-07 -3.054003e-06 -1.140086e-35)
(-4.687545e-07 -2.769931e-06 1.143764e-29)
(-1.57309e-07 -7.449795e-07 0)
(-4.228418e-07 -1.407354e-06 7.394709e-31)
(-5.462339e-07 -2.017695e-06 -7.436567e-31)
(-5.677846e-07 -2.432439e-06 1.188519e-30)
(-5.473663e-07 -2.633119e-06 1.478722e-30)
(-5.170232e-07 -2.61704e-06 -1.156786e-29)
(-4.862013e-07 -2.376258e-06 -2.287269e-29)
(-7.587408e-08 -6.589414e-07 0)
(-2.41142e-07 -1.162675e-06 1.266773e-30)
(-3.611547e-07 -1.666463e-06 -1.059783e-29)
(-4.322782e-07 -2.031932e-06 -1.186542e-29)
(-4.709366e-07 -2.218183e-06 2.680047e-30)
(-4.868671e-07 -2.203079e-06 1.455326e-30)
(-4.868097e-07 -1.981261e-06 0)
(-5.016651e-08 -6.08909e-07 -2.241421e-30)
(-1.642401e-07 -1.010725e-06 1.35169e-30)
(-2.689815e-07 -1.421436e-06 1.345536e-30)
(-3.536449e-07 -1.719469e-06 0)
(-4.160477e-07 -1.860084e-06 2.666304e-30)
(-4.571229e-07 -1.81711e-06 1.455355e-30)
(-4.785589e-07 -1.586049e-06 1.44784e-30)
(-4.302862e-08 -5.704492e-07 3.222897e-32)
(-1.316292e-07 -8.930291e-07 -2.962827e-30)
(-2.20472e-07 -1.225138e-06 1.50247e-32)
(-3.046742e-07 -1.45366e-06 1.482698e-30)
(-3.765518e-07 -1.539948e-06 7.137514e-30)
(-4.311779e-07 -1.459946e-06 1.452644e-30)
(-4.668772e-07 -1.20783e-06 0)
(-4.226483e-08 -5.365034e-07 2.592201e-30)
(-1.178828e-07 -7.903172e-07 -3.165414e-30)
(-1.945992e-07 -1.053145e-06 -1.552019e-30)
(-2.740573e-07 -1.217256e-06 3.662299e-30)
(-3.48631e-07 -1.250219e-06 -3.778575e-32)
(-4.108163e-07 -1.131546e-06 0)
(-4.567081e-07 -8.550489e-07 0)
(-4.383109e-08 -5.05561e-07 0)
(-1.127062e-07 -6.976368e-07 0)
(-1.80737e-07 -8.987752e-07 -3.397764e-30)
(-2.553038e-07 -1.004953e-06 3.868216e-30)
(-3.304522e-07 -9.886029e-07 3.907096e-32)
(-3.977817e-07 -8.325574e-07 0)
(-4.518746e-07 -5.305641e-07 0)
(-4.670878e-08 -4.776197e-07 0)
(-1.123926e-07 -6.141654e-07 3.761345e-30)
(-1.747147e-07 -7.602553e-07 -3.636549e-30)
(-2.459448e-07 -8.147965e-07 -5.673803e-30)
(-3.218263e-07 -7.53695e-07 2.048354e-30)
(-3.937739e-07 -5.624281e-07 0)
(-4.553437e-07 -2.347788e-07 -2.273987e-31)
(-5.077741e-08 -4.524375e-07 0)
(-1.15939e-07 -5.393022e-07 2.57114e-30)
(-1.752436e-07 -6.364821e-07 -1.460285e-30)
(-2.453255e-07 -6.449065e-07 -4.452632e-30)
(-3.232735e-07 -5.432017e-07 3.821017e-30)
(-4.002128e-07 -3.18915e-07 -3.558803e-30)
(-4.692771e-07 3.423057e-08 3.705167e-32)
(-5.610915e-08 -4.298205e-07 3.629762e-30)
(-1.23258e-07 -4.721793e-07 0)
(-1.818891e-07 -5.255785e-07 -1.456976e-30)
(-2.53104e-07 -4.925234e-07 -1.469001e-30)
(-3.351207e-07 -3.53781e-07 8.25706e-30)
(-4.178905e-07 -9.831009e-08 -3.797287e-30)
(-4.949715e-07 2.800372e-07 3.536429e-30)
(-6.285412e-08 -4.092755e-07 3.90726e-30)
(-1.34349e-07 -4.113807e-07 0)
(-1.940123e-07 -4.251669e-07 -2.902691e-30)
(-2.654334e-07 -3.542529e-07 1.585204e-29)
(-3.528443e-07 -1.817697e-07 2.781883e-29)
(-4.463348e-07 1.039073e-07 0)
(-5.332077e-07 5.071496e-07 -3.851406e-30)
(-7.114321e-08 -3.902973e-07 0)
(-1.497289e-07 -3.553606e-07 5.252774e-30)
(-2.140063e-07 -3.327165e-07 0)
(-2.928501e-07 -2.274277e-07 -2.034166e-30)
(-3.881804e-07 -2.346355e-08 2.909339e-30)
(-4.890593e-07 2.922022e-07 2.847815e-30)
(-5.853327e-07 7.203216e-07 -1.300585e-30)
(-8.102945e-08 -3.722943e-07 0)
(-1.690615e-07 -3.023834e-07 1.140919e-29)
(-2.394695e-07 -2.452976e-07 -1.438859e-30)
(-3.254091e-07 -1.071823e-07 -1.43271e-30)
(-4.312476e-07 1.276861e-07 0)
(-5.437453e-07 4.71657e-07 0)
(-6.513753e-07 9.246037e-07 0)
(-9.26764e-08 -3.548236e-07 5.709329e-30)
(-1.926492e-07 -2.509752e-07 5.482834e-30)
(-2.713574e-07 -1.604384e-07 -2.867146e-30)
(-3.668778e-07 9.585024e-09 -1.426021e-30)
(-4.853594e-07 2.748495e-07 0)
(-6.115933e-07 6.468363e-07 2.535365e-30)
(-7.321322e-07 1.12486e-06 -5.553846e-30)
(-1.062126e-07 -3.373699e-07 6.143598e-30)
(-2.206734e-07 -1.997047e-07 6.132874e-30)
(-3.099014e-07 -7.579992e-08 -4.283247e-30)
(-4.173054e-07 1.261053e-07 -2.83711e-30)
(-5.508263e-07 4.217356e-07 0)
(-6.93568e-07 8.219921e-07 5.785773e-30)
(-8.286293e-07 1.325838e-06 -2.754628e-30)
(-1.217946e-07 -3.19487e-07 6.149327e-30)
(-2.534083e-07 -1.472257e-07 1.496947e-29)
(-3.553529e-07 1.079664e-08 7.236891e-30)
(-4.761957e-07 2.453382e-07 0)
(-6.22695e-07 5.706629e-07 2.270775e-29)
(-7.844344e-07 9.987287e-07 2.818728e-29)
(-9.411519e-07 1.532016e-06 5.476901e-30)
(-1.395925e-07 -3.006462e-07 6.118099e-30)
(-2.913981e-07 -9.208955e-08 1.715507e-29)
(-4.08901e-07 1.016223e-07 1.723907e-29)
(-5.476099e-07 3.701141e-07 1.036193e-29)
(-7.16862e-07 7.250867e-07 2.774738e-30)
(-9.011727e-07 1.183622e-06 7.907142e-30)
(-1.075756e-06 1.748437e-06 -9.083737e-30)
(-1.598362e-07 -2.804519e-07 0)
(-3.350053e-07 -3.281904e-08 1.043497e-29)
(-4.706312e-07 1.994242e-07 1.007454e-29)
(-6.294573e-07 5.046601e-07 1.658223e-29)
(-8.217824e-07 8.942848e-07 0)
(-1.032896e-06 1.386274e-06 8.510759e-30)
(-1.231943e-06 1.981982e-06 5.428973e-32)
(-1.827154e-07 -2.583319e-07 -8.170002e-30)
(-3.845074e-07 3.219269e-08 0)
(-5.412596e-07 3.068393e-07 0)
(-7.237332e-07 6.528121e-07 2.683248e-30)
(-9.435695e-07 1.081213e-06 -6.024249e-30)
(-1.185663e-06 1.610454e-06 0)
(-1.414745e-06 2.240906e-06 7.597007e-30)
(-2.083256e-07 -2.336439e-07 -1.795083e-29)
(-4.402317e-07 1.048049e-07 0)
(-6.213411e-07 4.269813e-07 0)
(-8.314526e-07 8.190182e-07 -1.274717e-29)
(-1.082905e-06 1.291885e-06 -2.17589e-29)
(-1.355031e-06 1.860744e-06 9.188508e-30)
(-1.621702e-06 2.530549e-06 0)
(-2.367668e-07 -2.057437e-07 -9.874826e-30)
(-5.023311e-07 1.871129e-07 1.410248e-30)
(-7.114134e-07 5.635657e-07 -1.031908e-29)
(-9.544243e-07 1.008716e-06 2.689574e-30)
(-1.246161e-06 1.533074e-06 2.690163e-30)
(-1.564988e-06 2.147109e-06 9.926752e-30)
(-1.877831e-06 2.866659e-06 0)
(-2.678628e-07 -1.73824e-07 0)
(-5.702345e-07 2.814656e-07 1.342552e-29)
(-8.106605e-07 7.207424e-07 -1.285011e-29)
(-1.091688e-06 1.228287e-06 0)
(-1.430525e-06 1.814411e-06 1.670818e-29)
(-1.80241e-06 2.489196e-06 1.021334e-29)
(-2.172542e-06 3.268704e-06 5.149539e-30)
(-3.012771e-07 -1.370432e-07 1.213369e-29)
(-6.427582e-07 3.904097e-07 1.476519e-29)
(-9.172265e-07 9.027565e-07 -1.429372e-29)
(-1.241456e-06 1.483642e-06 0)
(-1.63579e-06 2.143404e-06 -5.1023e-30)
(-2.072223e-06 2.891361e-06 1.265053e-33)
(-2.511861e-06 3.740747e-06 5.038106e-30)
(-3.361833e-07 -9.429659e-08 1.334623e-29)
(-7.175519e-07 5.166823e-07 1.645303e-29)
(-1.027508e-06 1.113972e-06 -1.574425e-29)
(-1.399069e-06 1.780584e-06 0)
(-1.856613e-06 2.526945e-06 0)
(-2.367527e-06 3.360316e-06 1.32832e-29)
(-2.879518e-06 4.280703e-06 -5.204962e-29)
(-3.715338e-07 -4.446453e-08 1.367313e-29)
(-7.913766e-07 6.632719e-07 1.67679e-29)
(-1.135631e-06 1.358987e-06 0)
(-1.556416e-06 2.125082e-06 -2.181479e-29)
(-2.083684e-06 2.971741e-06 -4.908825e-30)
(-2.681925e-06 3.902507e-06 3.403046e-29)
(-3.289445e-06 4.899243e-06 1.395097e-29)
(-4.028613e-07 1.43339e-08 1.625823e-29)
(-8.560574e-07 8.322586e-07 0)
(-1.23232e-06 1.64288e-06 1.687266e-29)
(-1.7012e-06 2.524133e-06 -2.097268e-29)
(-2.300752e-06 3.486619e-06 1.750642e-29)
(-2.993068e-06 4.53203e-06 3.255875e-29)
(-3.707008e-06 5.635574e-06 1.512591e-29)
(-4.308738e-07 7.95529e-08 0)
(-9.093353e-07 1.027268e-06 0)
(-1.30781e-06 1.971385e-06 4.326912e-29)
(-1.818289e-06 2.985417e-06 0)
(-2.488059e-06 4.080166e-06 3.885939e-29)
(-3.277928e-06 5.25597e-06 1.811145e-29)
(-4.105638e-06 6.481754e-06 -1.67783e-29)
(-4.518192e-07 1.557745e-07 1.725414e-29)
(-9.328152e-07 1.250602e-06 -2.712329e-29)
(-1.338772e-06 2.347034e-06 -2.54218e-29)
(-1.886176e-06 3.518261e-06 0)
(-2.620202e-06 4.763943e-06 2.159902e-29)
(-3.508132e-06 6.086425e-06 0)
(-4.461012e-06 7.448771e-06 -2.683389e-29)
(-4.627593e-07 2.434459e-07 2.139044e-29)
(-9.220186e-07 1.504021e-06 -2.666745e-29)
(-1.306357e-06 2.77485e-06 -8.093979e-29)
(-1.865554e-06 4.125624e-06 -4.891725e-29)
(-2.660069e-06 5.549892e-06 2.878027e-29)
(-3.641167e-06 7.038769e-06 4.172457e-30)
(-4.72391e-06 8.557147e-06 -3.905781e-30)
(-4.579239e-07 3.443514e-07 1.091336e-30)
(-8.607745e-07 1.801739e-06 1.303067e-30)
(-1.187927e-06 3.263122e-06 -2.386938e-29)
(-1.730045e-06 4.818946e-06 -6.417598e-29)
(-2.558421e-06 6.445093e-06 1.839132e-29)
(-3.617181e-06 8.122358e-06 8.047238e-30)
(-4.828682e-06 9.819896e-06 1.48473e-29)
(-4.3052e-07 4.59738e-07 -1.085963e-30)
(-7.274342e-07 2.142354e-06 -1.290925e-30)
(-9.435054e-07 3.827553e-06 -3.651497e-29)
(-1.403859e-06 5.596594e-06 -7.456606e-29)
(-2.212066e-06 7.436356e-06 -4.466177e-29)
(-3.341451e-06 9.331992e-06 -3.680348e-29)
(-4.674328e-06 1.123298e-05 0)
(-3.710597e-07 5.88998e-07 0)
(-4.92807e-07 2.522254e-06 0)
(-5.230976e-07 4.451644e-06 -3.460007e-29)
(-8.17242e-07 6.436253e-06 -2.519223e-29)
(-1.521234e-06 8.496652e-06 9.798599e-30)
(-2.642954e-06 1.062431e-05 -6.630203e-31)
(-4.107397e-06 1.276366e-05 0)
(-2.667537e-07 7.298675e-07 -2.151964e-30)
(-1.175164e-07 2.934319e-06 2.554189e-30)
(1.412464e-07 5.123399e-06 4.728925e-30)
(1.187459e-07 7.339893e-06 0)
(-3.540574e-07 9.594328e-06 -7.393757e-29)
(-1.388896e-06 1.194899e-05 -7.645183e-30)
(-2.921148e-06 1.434137e-05 -1.309722e-29)
(-1.020434e-07 8.780721e-07 3.604259e-29)
(4.448147e-07 3.365972e-06 2.530316e-30)
(1.129168e-06 5.821724e-06 4.159245e-29)
(1.523529e-06 8.269008e-06 0)
(1.41978e-06 1.071906e-05 -3.243491e-29)
(6.597394e-07 1.325166e-05 -9.732201e-29)
(-7.68403e-07 1.586771e-05 -6.982962e-29)
(1.376911e-07 1.027712e-06 3.869969e-29)
(1.236012e-06 3.801673e-06 4.849362e-29)
(2.511414e-06 6.527028e-06 4.516207e-29)
(3.499718e-06 9.203076e-06 -8.636584e-30)
(3.953656e-06 1.18428e-05 -1.569804e-29)
(3.703358e-06 1.453001e-05 -6.601578e-29)
(2.4823e-06 1.736945e-05 -2.667654e-29)
(4.590358e-07 1.17044e-06 0)
(2.273769e-06 4.224604e-06 -5.585697e-29)
(4.315751e-06 7.241145e-06 -4.932419e-29)
(6.086314e-06 1.018254e-05 4.321681e-30)
(7.296494e-06 1.307718e-05 4.040549e-29)
(7.708927e-06 1.602135e-05 -7.513551e-30)
(7.268142e-06 1.924524e-05 0)
(8.466102e-07 1.30026e-06 -4.093573e-29)
(3.533757e-06 4.647864e-06 -1.28083e-28)
(6.510724e-06 8.006025e-06 -7.348858e-29)
(9.229967e-06 1.134873e-05 -1.063077e-28)
(1.133739e-05 1.466034e-05 4.83599e-29)
(1.301914e-05 1.841614e-05 -8.726236e-29)
(1.497804e-05 2.349502e-05 -9.890326e-30)
(1.28299e-06 1.449781e-06 -4.519404e-29)
(4.938526e-06 5.132474e-06 -2.532661e-30)
(8.998941e-06 8.981669e-06 0)
(1.27651e-05 1.292321e-05 2.491136e-30)
(1.648385e-05 1.74761e-05 -1.777303e-28)
(2.17512e-05 2.420055e-05 -3.178517e-28)
(3.080228e-05 3.480742e-05 -2.105972e-29)
(1.719307e-06 1.649789e-06 4.531994e-29)
(6.416905e-06 5.852664e-06 5.112633e-30)
(1.156699e-05 1.03936e-05 5.382062e-30)
(1.723192e-05 1.586129e-05 1.334063e-28)
(2.545935e-05 2.429385e-05 -4.578298e-28)
(4.052343e-05 3.880916e-05 3.107533e-28)
(6.221528e-05 5.672681e-05 -3.074548e-30)
(2.095848e-06 1.985216e-06 4.703977e-29)
(7.777758e-06 6.990753e-06 0)
(1.48399e-05 1.323225e-05 1.535062e-29)
(2.561799e-05 2.318045e-05 2.808995e-29)
(4.533939e-05 4.075731e-05 4.540089e-29)
(7.568707e-05 6.416187e-05 1.496365e-27)
(0.0001094044 8.405279e-05 2.274857e-27)
(2.332479e-06 2.527018e-06 0)
(9.409458e-06 9.259151e-06 1.513391e-29)
(2.090146e-05 1.994655e-05 2.751373e-29)
(4.317701e-05 3.965007e-05 5.024373e-29)
(8.031668e-05 6.765493e-05 9.182006e-29)
(0.000125202 9.379689e-05 7.660262e-29)
(0.0001665104 0.0001094014 2.95011e-27)
(2.606199e-06 3.498396e-06 0)
(1.242119e-05 1.416812e-05 1.211695e-28)
(3.363052e-05 3.484387e-05 -4.946458e-30)
(7.201663e-05 6.648873e-05 -1.165726e-27)
(0.0001250422 9.850257e-05 -8.605264e-28)
(0.0001793325 0.0001204131 -7.580134e-28)
(0.0002249149 0.0001304305 4.027869e-28)
(3.385837e-06 5.715232e-06 8.159761e-29)
(1.999613e-05 2.607125e-05 2.252131e-28)
(5.501835e-05 6.00836e-05 -3.597319e-29)
(0.0001083395 9.948401e-05 -1.526231e-27)
(0.0001703084 0.0001289106 -2.979893e-27)
(0.0002287098 0.0001438629 -9.629127e-28)
(0.0002759778 0.0001488587 -5.962687e-30)
(6.044158e-06 1.174967e-05 1.441083e-28)
(3.309355e-05 4.736739e-05 -2.490185e-28)
(8.159094e-05 9.25658e-05 5.710897e-28)
(0.0001440438 0.000133119 -6.52753e-30)
(0.0002091813 0.0001576205 -2.70949e-27)
(0.0002668918 0.0001670482 8.366974e-28)
(0.0003136795 0.0001678257 1.088088e-27)
(1.082057e-05 2.224432e-05 -3.07335e-29)
(4.943698e-05 7.633492e-05 -2.70823e-29)
(0.0001074123 0.0001280256 1.075157e-27)
(0.0001729782 0.0001655636 4.913734e-30)
(0.0002356714 0.0001839683 -3.297565e-28)
(0.0002899146 0.0001884484 7.159562e-28)
(0.0003354542 0.000186248 -5.002714e-28)
(1.710877e-05 3.612517e-05 2.85602e-30)
(6.494716e-05 0.0001083243 9.779987e-28)
(0.0001262976 0.0001628478 -6.13892e-29)
(0.0001890226 0.000195769 7.111833e-28)
(0.0002462197 0.0002078131 -1.365459e-28)
(0.0002962767 0.0002066388 7.278459e-28)
(0.0003386547 0.000201035 -7.78227e-28)
(2.32381e-05 5.075699e-05 -1.214416e-28)
(7.57374e-05 0.0001383876 5.327514e-28)
(0.0001341766 0.0001946562 6.215775e-28)
(0.000189514 0.0002234175 6.734815e-28)
(0.0002387293 0.0002306084 5.940166e-28)
(0.0002829663 0.000224921 3.16866e-28)
(0.0003203858 0.0002153507 3.879717e-28)
(2.636528e-05 6.299016e-05 -1.55514e-28)
(7.784186e-05 0.0001632325 3.304873e-28)
(0.0001296769 0.0002220984 1.072343e-27)
(0.0001745931 0.0002492372 4.644046e-29)
(0.0002147107 0.0002549084 4.374262e-28)
(0.0002513843 0.0002476897 -2.712115e-29)
(0.0002829383 0.0002358872 1.773641e-29)
(2.510259e-05 7.198547e-05 -4.787548e-29)
(7.014006e-05 0.0001826411 1.372887e-28)
(0.0001115194 0.0002445285 -2.270381e-29)
(0.0001461729 0.0002733738 -2.864252e-28)
(0.0001774474 0.0002808022 -1.136501e-28)
(0.0002067503 0.0002750304 -4.39329e-29)
(0.0002344152 0.0002655362 3.848644e-28)
(1.957007e-05 7.717812e-05 1.353847e-28)
(5.327269e-05 0.0001955261 -1.514388e-29)
(8.320347e-05 0.0002613466 -1.245696e-28)
(0.0001081286 0.0002926288 -3.082008e-28)
(0.0001308799 0.0003025403 1.010706e-28)
(0.0001527562 0.0002991966 -1.694535e-28)
(0.0001734381 0.0002953224 1.949708e-28)
(1.093242e-05 7.919505e-05 1.0001e-28)
(2.918503e-05 0.0002020859 4.119167e-29)
(4.56051e-05 0.0002711072 2.348439e-29)
(5.953954e-05 0.0003046031 -2.522117e-29)
(7.235338e-05 0.0003167221 1.066673e-28)
(8.477329e-05 0.000315969 4.169563e-29)
(9.701546e-05 0.0003158552 1.964179e-28)
(-5.390592e-08 7.9383e-05 3.324332e-29)
(1.621165e-08 0.0002035508 3.690408e-29)
(9.028357e-07 0.000273833 7.661407e-29)
(1.831694e-06 0.0003081848 5.134384e-30)
(2.176008e-06 0.0003211929 -3.29412e-28)
(1.202751e-06 0.0003217703 -1.889034e-28)
(-1.043655e-06 0.0003238811 6.453128e-29)
(-1.199521e-05 7.931043e-05 -1.64987e-30)
(-3.065254e-05 0.0002023707 1.55919e-29)
(-4.590936e-05 0.0002712817 -7.065993e-29)
(-5.898136e-05 0.0003043067 -6.320623e-29)
(-7.281274e-05 0.0003157907 1.179817e-29)
(-9.038141e-05 0.0003140933 4.630925e-29)
(-0.0001127886 0.0003129938 7.787099e-29)
(-2.231516e-05 7.873745e-05 9.116758e-29)
(-5.788065e-05 0.0001985871 9.034604e-29)
(-8.779487e-05 0.0002642155 -5.008894e-29)
(-0.0001135194 0.0002946315 -4.085901e-31)
(-0.0001402635 0.0003032918 -1.359817e-28)
(-0.0001723267 0.000297623 1.582488e-29)
(-0.0002093223 0.00029168 2.756605e-28)
(-2.956557e-05 7.588268e-05 1.486759e-28)
(-7.843399e-05 0.0001899159 1.535124e-29)
(-0.0001207656 0.0002516872 -1.45419e-28)
(-0.0001573231 0.000279583 -1.986957e-30)
(-0.0001944647 0.0002857386 1.461457e-28)
(-0.0002357056 0.0002773983 -3.167552e-28)
(-0.0002769445 0.0002683988 1.590917e-28)
(-3.28045e-05 6.956105e-05 -2.601644e-32)
(-9.02049e-05 0.0001752645 1.80332e-29)
(-0.0001430285 0.0002334289 -1.851417e-29)
(-0.0001893948 0.0002594642 3.797146e-29)
(-0.0002349326 0.000263875 4.830462e-28)
(-0.0002813054 0.0002546301 -2.847702e-28)
(-0.0003230722 0.0002422402 -5.659737e-28)
(-3.117694e-05 5.949037e-05 9.756094e-30)
(-9.162179e-05 0.0001543729 2.759485e-28)
(-0.0001536675 0.0002100338 9.969836e-28)
(-0.000210157 0.0002352655 -1.146599e-27)
(-0.0002638792 0.0002390572 -5.326049e-28)
(-0.0003148167 0.0002302225 1.008384e-27)
(-0.0003568974 0.0002179238 8.955525e-28)
(-2.536282e-05 4.663515e-05 1.273185e-30)
(-8.305617e-05 0.0001284776 -2.359809e-28)
(-0.0001494755 0.0001817144 6.202563e-28)
(-0.0002153109 0.0002090012 -4.74889e-28)
(-0.0002765961 0.0002151133 2.608451e-28)
(-0.0003325656 0.0002087873 -2.311742e-33)
(-0.0003794784 0.0001991773 -8.531762e-28)
(-1.748061e-05 3.213156e-05 2.521083e-29)
(-6.697567e-05 9.792748e-05 -8.7778e-28)
(-0.0001332321 0.0001489951 3.417167e-30)
(-0.0002039747 0.0001806154 -7.697631e-30)
(-0.0002707576 0.0001921775 2.705643e-28)
(-0.0003300744 0.0001908243 1.043559e-28)
(-0.0003803736 0.0001853016 -7.631506e-28)
(-1.046646e-05 1.91019e-05 2.567667e-29)
(-4.813337e-05 6.666971e-05 -6.386504e-29)
(-0.0001073188 0.000113997 4.912785e-28)
(-0.0001772624 0.0001499661 8.54575e-30)
(-0.0002464511 0.0001682601 8.791217e-29)
(-0.0003074156 0.0001730677 -9.256819e-28)
(-0.0003589988 0.0001714809 4.148964e-28)
(-5.651812e-06 9.834558e-06 1.183902e-28)
(-3.0633e-05 3.991089e-05 2.882888e-28)
(-7.704287e-05 7.967424e-05 -3.955879e-30)
(-0.0001397086 0.0001176898 -3.681249e-28)
(-0.0002075601 0.0001422609 1.831202e-27)
(-0.0002692448 0.0001526846 -1.249274e-27)
(-0.0003204727 0.0001548769 -4.472254e-28)
(-3.207509e-06 4.867863e-06 6.42231e-29)
(-1.808172e-05 2.164902e-05 -1.536624e-28)
(-4.935483e-05 5.003506e-05 -3.601387e-29)
(-9.901493e-05 8.514347e-05 -1.542263e-27)
(-0.000159807 0.0001138926 1.566318e-27)
(-0.0002195805 0.0001303096 2.117572e-28)
(-0.0002698293 0.0001374451 -1.285021e-27)
(-2.60101e-06 3.236584e-06 0)
(-1.160153e-05 1.235494e-05 -1.0585e-28)
(-2.944525e-05 2.878665e-05 1.199774e-30)
(-6.235802e-05 5.505051e-05 -4.941305e-28)
(-0.0001107297 8.441619e-05 1.898316e-28)
(-0.000163726 0.0001071858 -9.204874e-28)
(-0.0002106367 0.0001196484 2.982806e-27)
(-2.270555e-06 2.419386e-06 0)
(-8.890492e-06 8.557094e-06 -1.340603e-29)
(-1.858266e-05 1.729363e-05 -2.157711e-29)
(-3.646006e-05 3.279578e-05 -6.837261e-29)
(-6.742809e-05 5.629874e-05 1.016071e-27)
(-0.0001079931 8.122973e-05 -1.753043e-28)
(-0.0001486734 9.883677e-05 2.978873e-27)
(-1.846845e-06 1.898764e-06 4.721007e-29)
(-7.099688e-06 6.725892e-06 0)
(-1.339226e-05 1.241749e-05 0)
(-2.197211e-05 2.045033e-05 -1.433498e-28)
(-3.708314e-05 3.426797e-05 8.840244e-28)
(-6.167353e-05 5.433114e-05 1.042111e-28)
(-9.218262e-05 7.453928e-05 -1.954453e-28)
(-1.364423e-06 1.60407e-06 4.548223e-29)
(-5.418793e-06 5.719268e-06 -5.109131e-30)
(-1.003749e-05 1.018078e-05 -5.15561e-30)
(-1.489254e-05 1.524165e-05 -5.398166e-29)
(-2.105765e-05 2.213644e-05 1.816293e-28)
(-3.202912e-05 3.382927e-05 -2.138574e-28)
(-4.914033e-05 4.994218e-05 6.273527e-30)
(-8.892773e-07 1.440792e-06 0)
(-3.817309e-06 5.115256e-06 -5.525868e-29)
(-7.225774e-06 8.963925e-06 0)
(-1.048051e-05 1.292826e-05 -9.726185e-30)
(-1.347184e-05 1.725939e-05 -1.113844e-29)
(-1.703739e-05 2.298848e-05 -1.1557e-28)
(-2.316987e-05 3.197051e-05 2.291743e-28)
(-4.608741e-07 1.317119e-06 0)
(-2.419266e-06 4.705444e-06 5.373632e-29)
(-4.739331e-06 8.127442e-06 -5.320676e-29)
(-6.91018e-06 1.156718e-05 0)
(-8.601506e-06 1.502589e-05 -1.71417e-29)
(-9.714643e-06 1.873614e-05 -1.053827e-28)
(-1.069081e-05 2.333765e-05 9.459404e-29)
(-1.043942e-07 1.199513e-06 0)
(-1.249779e-06 4.323545e-06 1.488802e-28)
(-2.68553e-06 7.439343e-06 -1.630081e-31)
(-3.938637e-06 1.052732e-05 8.07964e-29)
(-4.732931e-06 1.359718e-05 -1.593695e-29)
(-4.866567e-06 1.673784e-05 -4.985992e-29)
(-4.194594e-06 2.002912e-05 -6.551663e-29)
(1.730823e-07 1.063335e-06 -3.625745e-29)
(-3.361805e-07 3.919298e-06 4.055607e-29)
(-1.079878e-06 6.757029e-06 1.031743e-31)
(-1.60974e-06 9.586979e-06 9.4821e-29)
(-1.692319e-06 1.240396e-05 0)
(-1.207115e-06 1.526967e-05 0)
(7.647973e-08 1.827355e-05 1.057789e-28)
(3.68376e-07 9.161601e-07 -3.569345e-29)
(3.282528e-07 3.489191e-06 3.934855e-29)
(1.003301e-07 6.059043e-06 -4.155866e-29)
(9.702277e-08 8.644404e-06 -4.098052e-29)
(5.141899e-07 1.125168e-05 0)
(1.471877e-06 1.394068e-05 0)
(2.979139e-06 1.669227e-05 2.910334e-29)
(4.928707e-07 7.678615e-07 3.074474e-29)
(7.756971e-07 3.057623e-06 2.832561e-29)
(9.054704e-07 5.349699e-06 -4.766281e-30)
(1.259311e-06 7.687182e-06 -4.165734e-29)
(2.00306e-06 1.008066e-05 2.543294e-29)
(3.201758e-06 1.255448e-05 9.818655e-29)
(4.795488e-06 1.504711e-05 -4.068889e-29)
(5.624208e-07 6.251645e-07 2.603886e-29)
(1.050916e-06 2.637942e-06 -2.564268e-30)
(1.409153e-06 4.658073e-06 4.788961e-30)
(1.978308e-06 6.74064e-06 4.474517e-30)
(2.903457e-06 8.907795e-06 0)
(4.175287e-06 1.113189e-05 2.589512e-29)
(5.690137e-06 1.334405e-05 -2.967051e-29)
(5.923963e-07 4.941276e-07 0)
(1.198287e-06 2.247173e-06 -5.180621e-30)
(1.689691e-06 4.009727e-06 -4.860108e-30)
(2.379765e-06 5.85921e-06 -2.636488e-29)
(3.362493e-06 7.778635e-06 3.578506e-29)
(4.606234e-06 9.743044e-06 -6.440124e-29)
(5.998805e-06 1.169779e-05 -3.326204e-29)
(5.944597e-07 3.748852e-07 -2.182518e-30)
(1.257278e-06 1.894441e-06 -2.607066e-30)
(1.814837e-06 3.420354e-06 0)
(2.548768e-06 5.041015e-06 -2.050691e-31)
(3.519322e-06 6.726663e-06 -2.682873e-29)
(4.670585e-06 8.452278e-06 -2.50408e-29)
(5.928263e-06 1.018238e-05 -7.434786e-30)
(5.767818e-07 2.697809e-07 -2.229241e-29)
(1.2537e-06 1.583331e-06 1.97979e-29)
(1.831501e-06 2.907833e-06 -7.971192e-29)
(2.548608e-06 4.309499e-06 2.866461e-29)
(3.458272e-06 5.777307e-06 -2.847361e-29)
(4.512124e-06 7.298049e-06 0)
(5.62698e-06 8.832095e-06 7.82031e-30)
(5.464317e-07 1.780333e-07 -1.705968e-29)
(1.209473e-06 1.317291e-06 2.687187e-29)
(1.77603e-06 2.457118e-06 -2.515995e-29)
(2.451998e-06 3.667334e-06 0)
(3.278449e-06 4.944121e-06 2.131506e-29)
(4.222125e-06 6.286196e-06 0)
(5.195135e-06 7.652479e-06 -1.834858e-29)
(5.089129e-07 9.793247e-08 0)
(1.138262e-06 1.082078e-06 0)
(1.668808e-06 2.060611e-06 4.277181e-29)
(2.283607e-06 3.10419e-06 0)
(3.027013e-06 4.220891e-06 3.833957e-29)
(3.8589e-06 5.407728e-06 1.784593e-29)
(4.697568e-06 6.630368e-06 -1.650953e-29)
(4.671544e-07 2.93297e-08 1.607432e-29)
(1.0441e-06 8.765101e-07 0)
(1.52818e-06 1.714176e-06 2.188114e-29)
(2.081613e-06 2.617785e-06 -1.572376e-29)
(2.739535e-06 3.595656e-06 1.726914e-29)
(3.46328e-06 4.646804e-06 3.208326e-29)
(4.182308e-06 5.744069e-06 1.488846e-29)
(4.239975e-07 -3.237687e-08 1.576217e-29)
(9.449422e-07 6.987146e-07 1.930155e-29)
(1.376917e-06 1.415639e-06 0)
(1.865961e-06 2.198759e-06 -1.139616e-29)
(2.439496e-06 3.05632e-06 4.915618e-30)
(3.061399e-06 3.989942e-06 2.411061e-29)
(3.670768e-06 4.979904e-06 -1.400665e-29)
(3.786266e-07 -8.457919e-08 1.318084e-29)
(8.42296e-07 5.45103e-07 1.624652e-29)
(1.223601e-06 1.159144e-06 -1.553965e-29)
(1.650259e-06 1.838912e-06 0)
(2.144523e-06 2.593346e-06 0)
(2.673517e-06 3.428299e-06 1.308768e-29)
(3.185049e-06 4.342535e-06 2.705692e-29)
(3.355164e-07 -1.291279e-07 1.19783e-29)
(7.438745e-07 4.134983e-07 1.457164e-29)
(1.076309e-06 9.392957e-07 -1.410285e-29)
(1.44511e-06 1.530578e-06 0)
(1.868807e-06 2.19673e-06 5.108505e-30)
(2.319462e-06 2.946181e-06 -1.240968e-33)
(2.758261e-06 3.791094e-06 -5.04702e-30)
(2.954722e-07 -1.672698e-07 0)
(6.521706e-07 3.005876e-07 1.32443e-29)
(9.397019e-07 7.50993e-07 -1.267169e-29)
(1.25684e-06 1.267137e-06 0)
(1.61944e-06 1.858754e-06 6.160619e-30)
(2.002839e-06 2.535438e-06 -1.022691e-29)
(2.372422e-06 3.312441e-06 -5.15746e-30)
(2.589786e-07 -2.001369e-07 -9.738086e-30)
(5.687227e-07 2.034377e-07 -1.410747e-30)
(8.161783e-07 5.893908e-07 -1.290568e-29)
(1.088494e-06 1.042068e-06 -2.691703e-30)
(1.399637e-06 1.571576e-06 -2.575056e-30)
(1.727989e-06 2.188051e-06 9.770936e-30)
(2.040797e-06 2.906786e-06 0)
(2.261605e-07 -2.286367e-07 -1.7694e-29)
(4.939747e-07 1.193489e-07 0)
(7.06447e-07 4.499239e-07 0)
(9.405305e-07 8.488851e-07 -7.155605e-30)
(1.207882e-06 1.326858e-06 -1.61031e-29)
(1.487819e-06 1.8986e-06 9.039661e-30)
(1.755101e-06 2.568696e-06 0)
(1.970421e-07 -2.536963e-07 -8.049177e-30)
(4.280501e-07 4.572887e-08 -1.424477e-30)
(6.104944e-07 3.283025e-07 -1.397527e-30)
(8.12741e-07 6.809161e-07 -2.80603e-30)
(1.045645e-06 1.114416e-06 -1.131302e-29)
(1.294321e-06 1.646912e-06 0)
(1.52417e-06 2.278309e-06 7.462376e-30)
(1.71351e-07 -2.759365e-07 -5.781654e-31)
(3.703371e-07 -1.955961e-08 6.717481e-30)
(5.270625e-07 2.205962e-07 7.122947e-30)
(7.022051e-07 5.325114e-07 1.630831e-29)
(9.05328e-07 9.273235e-07 0)
(1.121899e-06 1.422737e-06 8.377351e-30)
(1.321685e-06 2.019604e-06 5.435259e-32)
(1.488103e-07 -2.96042e-07 7.169103e-30)
(3.200502e-07 -7.843394e-08 1.545083e-29)
(4.548894e-07 1.236384e-07 1.414665e-29)
(6.070047e-07 3.992146e-07 4.654215e-30)
(7.851388e-07 7.596364e-07 -2.776604e-30)
(9.739509e-07 1.22181e-06 7.780154e-30)
(1.149218e-06 1.78791e-06 -3.530127e-30)
(1.291012e-07 -3.145128e-07 6.047131e-30)
(2.765087e-07 -1.324328e-07 1.471483e-29)
(3.926299e-07 3.473325e-08 7.111225e-30)
(5.243964e-07 2.771143e-07 0)
(6.781137e-07 6.086383e-07 -2.27199e-29)
(8.436482e-07 1.040875e-06 -2.820575e-29)
(1.001091e-06 1.575798e-06 -5.481322e-30)
(1.119405e-07 -3.318083e-07 4.883097e-30)
(2.390575e-07 -1.830913e-07 7.457063e-30)
(3.397464e-07 -4.880469e-08 4.284705e-30)
(4.559272e-07 1.62119e-07 2.838421e-30)
(5.953095e-07 4.651421e-07 0)
(7.41197e-07 8.705736e-07 5.67072e-30)
(8.771469e-07 1.376745e-06 2.756684e-30)
(9.70474e-08 -3.484321e-07 4.451336e-30)
(2.069342e-07 -2.317973e-07 6.816639e-30)
(2.946638e-07 -1.291926e-07 2.868059e-30)
(3.97094e-07 5.147771e-08 1.426636e-30)
(5.202584e-07 3.257545e-07 0)
(6.491346e-07 7.043096e-07 8.055339e-30)
(7.707621e-07 1.18578e-06 5.557706e-30)
(8.416704e-08 -3.647921e-07 5.836341e-31)
(1.796333e-07 -2.798265e-07 1.191451e-29)
(2.567956e-07 -2.083938e-07 1.439291e-30)
(3.480028e-07 -5.744511e-08 1.433293e-30)
(4.574631e-07 1.884343e-07 0)
(5.721927e-07 5.406893e-07 0)
(6.811567e-07 9.984692e-07 0)
(7.314286e-08 -3.813298e-07 0)
(1.568108e-07 -3.284166e-07 5.14662e-30)
(2.256956e-07 -2.884888e-07 0)
(3.081497e-07 -1.675679e-07 -7.695796e-30)
(4.060718e-07 4.983571e-08 -2.910717e-30)
(5.088507e-07 3.757886e-07 -2.849393e-30)
(6.06722e-07 8.102031e-07 -6.833005e-30)
(6.378604e-08 -3.984608e-07 3.82553e-30)
(1.380073e-07 -3.78883e-07 0)
(2.001407e-07 -3.71718e-07 2.903488e-30)
(2.734037e-07 -2.815483e-07 -2.496719e-29)
(3.623577e-07 -9.272137e-08 -1.892094e-29)
(4.574023e-07 2.054243e-07 0)
(5.461509e-07 6.164303e-07 -3.753744e-30)
(5.597313e-08 -4.167395e-07 3.550845e-30)
(1.234279e-07 -4.328217e-07 0)
(1.822801e-07 -4.607536e-07 1.457369e-30)
(2.535185e-07 -4.041078e-07 1.469535e-30)
(3.359365e-07 -2.454002e-07 8.061011e-30)
(4.199194e-07 2.486069e-08 -3.700741e-30)
(4.992245e-07 4.124676e-07 3.441303e-30)
(4.957078e-08 -4.366502e-07 0)
(1.124876e-07 -4.917495e-07 5.405067e-30)
(1.696397e-07 -5.580205e-07 1.460677e-30)
(2.379067e-07 -5.378227e-07 -4.355867e-30)
(3.151386e-07 -4.120352e-07 3.725503e-30)
(3.929683e-07 -1.701682e-07 -3.46439e-30)
(4.646987e-07 1.937453e-07 3.707404e-32)
(4.447119e-08 -4.587815e-07 0)
(1.052791e-07 -5.572272e-07 3.667798e-30)
(1.629546e-07 -6.65966e-07 -3.542735e-30)
(2.304966e-07 -6.860361e-07 -2.627206e-30)
(3.046237e-07 -5.962033e-07 4.862814e-30)
(3.773065e-07 -3.843171e-07 2.884325e-30)
(4.421542e-07 -4.445628e-08 -3.004074e-30)
(4.060156e-08 -4.834029e-07 0)
(1.019003e-07 -6.304326e-07 0)
(1.625345e-07 -7.869812e-07 -3.305488e-30)
(2.315554e-07 -8.520729e-07 3.774689e-30)
(3.042269e-07 -8.01815e-07 3.909065e-32)
(3.725624e-07 -6.219087e-07 0)
(4.308828e-07 -3.064558e-07 0)
(3.796637e-08 -5.108498e-07 2.52061e-30)
(1.024319e-07 -7.123463e-07 -3.075016e-30)
(1.686797e-07 -9.22843e-07 -2.974647e-30)
(2.41156e-07 -1.038579e-06 2.088075e-30)
(3.134661e-07 -1.032116e-06 -3.780471e-32)
(3.778248e-07 -8.864033e-07 2.900206e-30)
(4.294974e-07 -5.95601e-07 -1.567229e-35)
(3.665372e-08 -5.412543e-07 3.223349e-32)
(1.078386e-07 -8.03491e-07 -2.873667e-30)
(1.827606e-07 -1.074722e-06 -2.879711e-30)
(2.600598e-07 -1.24738e-06 -1.48326e-30)