/*--------------------------------*- C++ -*----------------------------------*\
| =========                 |                                                 |
| \\      /  F ield         | OpenFOAM: The Open Source CFD Toolbox           |
|  \\    /   O peration     | Version:  2206                                  |
|   \\  /    A nd           | Website:  www.openfoam.com                      |
|    \\/     M anipulation  |                                                 |
\*---------------------------------------------------------------------------*/
FoamFile
{
    version     2.0;
    format      ascii;
    arch        "LSB;label=32;scalar=64";
    class       volVectorField;
    location    "1.2";
    object      U.a_0;
}
// * * * * * * * * * * * * * * * * * * * * * * * * * * * * * * * * * * * * * //

dimensions      [0 1 -1 0 0 0 0];

internalField   nonuniform List<vector> 
13078
(
(3.521977e-08 -5.801836e-06 4.726121e-29)
(6.253141e-08 -1.164892e-05 1.179775e-33)
(-2.56781e-10 -1.031849e-05 -2.477684e-29)
(1.719048e-08 -6.899998e-06 0)
(1.736315e-08 -5.304497e-06 -1.150359e-29)
(1.348327e-08 -4.475831e-06 -1.148065e-29)
(9.595712e-09 -3.848985e-06 -1.145469e-29)
(-6.024484e-06 -9.583851e-06 0)
(-5.271094e-06 -1.059019e-05 -9.920458e-34)
(-2.119279e-06 -8.087524e-06 0)
(-9.000204e-07 -6.091536e-06 0)
(-4.384534e-07 -5.001529e-06 1.376774e-33)
(-2.525661e-07 -4.336261e-06 6.390735e-34)
(-1.73644e-07 -3.769084e-06 1.254204e-33)
(-3.573683e-06 -2.939813e-06 -6.355062e-31)
(-3.329002e-06 -5.317041e-06 8.22131e-31)
(-1.984416e-06 -5.328138e-06 1.176011e-29)
(-1.106561e-06 -4.81455e-06 2.315598e-29)
(-6.498698e-07 -4.370578e-06 1.150799e-29)
(-4.271216e-07 -3.983836e-06 0)
(-3.182793e-07 -3.537111e-06 -6.515316e-35)
(-1.154862e-06 -1.41418e-06 -7.191057e-31)
(-1.625674e-06 -2.861127e-06 1.880966e-30)
(-1.3337e-06 -3.531522e-06 3.096169e-30)
(-9.466746e-07 -3.732763e-06 1.758535e-30)
(-6.668201e-07 -3.714748e-06 -5.392753e-33)
(-5.036148e-07 -3.547244e-06 0)
(-4.112144e-07 -3.210066e-06 -2.407308e-33)
(-3.815248e-07 -9.145425e-07 -2.954009e-31)
(-7.719997e-07 -1.833659e-06 -6.615717e-32)
(-8.128954e-07 -2.54371e-06 1.755688e-30)
(-7.12584e-07 -2.966763e-06 7.273863e-31)
(-6.014179e-07 -3.147831e-06 -1.413107e-29)
(-5.177734e-07 -3.102563e-06 -1.214486e-35)
(-4.607731e-07 -2.83449e-06 1.144551e-29)
(-1.406067e-07 -7.376722e-07 0)
(-3.827994e-07 -1.391661e-06 7.397042e-31)
(-4.996456e-07 -2.010322e-06 -7.439918e-31)
(-5.284452e-07 -2.447059e-06 1.171171e-30)
(-5.210099e-07 -2.672245e-06 1.479628e-30)
(-5.029062e-07 -2.673808e-06 -1.157567e-29)
(-4.804523e-07 -2.439522e-06 -2.28908e-29)
(-6.443781e-08 -6.610625e-07 0)
(-2.138987e-07 -1.170257e-06 1.246529e-30)
(-3.293779e-07 -1.684999e-06 -1.062347e-29)
(-4.051971e-07 -2.065531e-06 -1.187155e-29)
(-4.52539e-07 -2.265871e-06 2.660564e-30)
(-4.765719e-07 -2.259423e-06 1.456389e-30)
(-4.818688e-07 -2.039071e-06 0)
(-4.096873e-08 -6.140992e-07 -2.201736e-30)
(-1.429298e-07 -1.026055e-06 1.32684e-30)
(-2.443576e-07 -1.447758e-06 1.32068e-30)
(-3.323741e-07 -1.756772e-06 0)
(-4.009042e-07 -1.906077e-06 2.619164e-30)
(-4.475002e-07 -1.867563e-06 1.456495e-30)
(-4.724633e-07 -1.636269e-06 1.449149e-30)
(-3.404332e-08 -5.758323e-07 3.223337e-32)
(-1.113048e-07 -9.08732e-07 -2.9042e-30)
(-1.969992e-07 -1.250504e-06 4.454269e-32)
(-2.838134e-07 -1.487462e-06 1.483537e-30)
(-3.605142e-07 -1.579847e-06 7.030934e-30)
(-4.194067e-07 -1.502879e-06 1.453875e-30)
(-4.57872e-07 -1.250693e-06 0)
(-3.228573e-08 -5.411199e-07 2.537531e-30)
(-9.546606e-08 -8.038521e-07 -3.097848e-30)
(-1.68421e-07 -1.074719e-06 -1.518922e-30)
(-2.500074e-07 -1.245661e-06 3.597978e-30)
(-3.289314e-07 -1.28365e-06 -3.781695e-32)
(-3.950697e-07 -1.167949e-06 0)
(-4.437376e-07 -8.923499e-07 0)
(-3.220767e-08 -5.093503e-07 0)
(-8.650937e-08 -7.088455e-07 0)
(-1.497352e-07 -9.167155e-07 -3.322789e-30)
(-2.261038e-07 -1.028806e-06 3.795498e-30)
(-3.056396e-07 -1.017201e-06 3.910626e-32)
(-3.771781e-07 -8.646238e-07 0)
(-4.345039e-07 -5.646689e-07 0)
(-3.310381e-08 -4.808389e-07 0)
(-8.155995e-08 -6.237699e-07 3.67476e-30)
(-1.37855e-07 -7.758069e-07 -3.552086e-30)
(-2.106897e-07 -8.358751e-07 -5.593097e-30)
(-2.912968e-07 -7.796567e-07 1.969746e-30)
(-3.680164e-07 -5.925335e-07 0)
(-4.334903e-07 -2.679758e-07 -1.567408e-31)
(-3.498671e-08 -4.553847e-07 0)
(-7.999046e-08 -5.481529e-07 2.473427e-30)
(-1.319896e-07 -6.509973e-07 -1.461113e-30)
(-2.035896e-07 -6.649671e-07 -4.360869e-30)
(-2.86781e-07 -5.685314e-07 3.734425e-30)
(-3.692151e-07 -3.491102e-07 -3.477746e-30)
(-4.429477e-07 2.742047e-11 3.710604e-32)
(-3.795291e-08 -4.327354e-07 3.541425e-30)
(-8.180033e-08 -4.809722e-07 0)
(-1.318198e-07 -5.401491e-07 -1.457883e-30)
(-2.045547e-07 -5.129584e-07 -1.47028e-30)
(-2.92443e-07 -3.800464e-07 8.062907e-30)
(-3.815296e-07 -1.301905e-07 -3.706547e-30)
(-4.640953e-07 2.433309e-07 3.45235e-30)
(-4.21233e-08 -4.123261e-07 3.808543e-30)
(-8.692834e-08 -4.206119e-07 0)
(-1.36625e-07 -4.405728e-07 -2.904678e-30)
(-2.096076e-07 -3.760399e-07 1.598533e-29)
(-3.035611e-07 -2.100916e-07 2.773643e-29)
(-4.043412e-07 6.914583e-08 0)
(-4.975716e-07 4.6678e-07 -3.757615e-30)
(-4.757769e-08 -3.935978e-07 0)
(-9.576924e-08 -3.653726e-07 5.117168e-30)
(-1.48636e-07 -3.495014e-07 0)
(-2.291004e-07 -2.512642e-07 -1.903874e-30)
(-3.318128e-07 -5.468034e-08 2.913253e-30)
(-4.410222e-07 2.536428e-07 2.852432e-30)
(-5.445819e-07 6.753537e-07 -1.190718e-30)
(-5.43129e-08 -3.759283e-07 0)
(-1.078516e-07 -3.134314e-07 1.110685e-29)
(-1.65282e-07 -2.638797e-07 -1.44007e-30)
(-2.530105e-07 -1.336593e-07 -1.434394e-30)
(-3.671666e-07 9.287601e-08 0)
(-4.890909e-07 4.28529e-07 0)
(-6.050139e-07 8.742131e-07 0)
(-6.243901e-08 -3.588588e-07 5.572602e-30)
(-1.233493e-07 -2.632681e-07 5.314018e-30)
(-1.873459e-07 -1.811667e-07 -2.869829e-30)
(-2.848621e-07 -2.001933e-08 -1.427883e-30)
(-4.127103e-07 2.358293e-07 0)
(-5.49575e-07 5.984009e-07 2.389544e-30)
(-6.795186e-07 1.068224e-06 -5.566651e-30)
(-7.203437e-08 -3.418675e-07 5.991294e-30)
(-1.423258e-07 -2.134324e-07 5.944963e-30)
(-2.149161e-07 -9.899673e-08 -4.2877e-30)
(-3.245584e-07 9.290967e-08 -2.841231e-30)
(-4.686018e-07 3.778847e-07 0)
(-6.232696e-07 7.674558e-07 5.629461e-30)
(-7.689676e-07 1.262039e-06 -2.761701e-30)
(-8.320097e-08 -3.245093e-07 5.97962e-30)
(-1.6493e-07 -1.625821e-07 1.455208e-29)
(-2.480949e-07 -1.520159e-08 7.034541e-30)
(-3.714579e-07 2.080641e-07 0)
(-5.296479e-07 5.21363e-07 2.275168e-29)
(-7.046207e-07 9.372299e-07 2.825417e-29)
(-8.734676e-07 1.459956e-06 5.492554e-30)
(-9.604511e-08 -3.062647e-07 5.928949e-30)
(-1.915548e-07 -1.092995e-07 1.669105e-29)
(-2.87877e-07 7.243065e-08 1.679068e-29)
(-4.294129e-07 3.281832e-07 1.015107e-29)
(-6.115327e-07 6.695577e-07 2.781128e-30)
(-8.106651e-07 1.114075e-06 7.713515e-30)
(-9.988981e-07 1.666717e-06 -8.915091e-30)
(-1.107224e-07 -2.867561e-07 0)
(-2.223855e-07 -5.216721e-08 1.017759e-29)
(-3.341099e-07 1.665305e-07 9.826094e-30)
(-4.960798e-07 4.572956e-07 1.610219e-29)
(-7.027488e-07 8.313732e-07 0)
(-9.302921e-07 1.307193e-06 8.295702e-30)
(-1.14444e-06 1.888778e-06 5.450082e-32)
(-1.273444e-07 -2.654328e-07 -7.935534e-30)
(-2.575113e-07 1.035303e-08 0)
(-3.872621e-07 2.696113e-07 0)
(-5.731689e-07 5.990547e-07 2.689307e-30)
(-8.08941e-07 1.009582e-06 -5.762433e-30)
(-1.069146e-06 1.520108e-06 0)
(-1.314788e-06 2.134071e-06 7.378296e-30)
(-1.459226e-07 -2.416744e-07 -1.742812e-29)
(-2.970614e-07 8.005322e-08 0)
(-4.476378e-07 3.846721e-07 0)
(-6.614426e-07 7.577545e-07 -1.245718e-29)
(-9.305546e-07 1.210051e-06 -2.120402e-29)
(-1.222431e-06 1.757467e-06 8.921231e-30)
(-1.507146e-06 2.408161e-06 0)
(-1.664653e-07 -2.14856e-07 -9.583337e-30)
(-3.409728e-07 1.589687e-07 1.41195e-30)
(-5.155014e-07 5.153299e-07 -9.970941e-30)
(-7.624333e-07 9.387243e-07 2.697297e-30)
(-1.073743e-06 1.439523e-06 2.700112e-30)
(-1.414088e-06 2.029363e-06 9.633296e-30)
(-1.747393e-06 2.727612e-06 0)
(-1.88701e-07 -1.841832e-07 0)
(-3.884535e-07 2.494091e-07 1.302707e-29)
(-5.897658e-07 6.656772e-07 -1.246514e-29)
(-8.749282e-07 1.148306e-06 0)
(-1.2356e-06 1.707706e-06 1.638249e-29)
(-1.631816e-06 2.355752e-06 1.026509e-29)
(-2.025868e-06 3.112999e-06 5.180031e-30)
(-2.122001e-07 -1.488171e-07 1.177045e-29)
(-4.381062e-07 3.539185e-07 1.432035e-29)
(-6.683426e-07 8.399813e-07 -1.386476e-29)
(-9.970027e-07 1.392529e-06 0)
(-1.416015e-06 2.022515e-06 -5.126437e-30)
(-1.88088e-06 2.742195e-06 1.215583e-33)
(-2.35017e-06 3.57093e-06 5.072215e-30)
(-2.360723e-07 -1.076458e-07 1.294017e-29)
(-4.873749e-07 4.752554e-07 1.59563e-29)
(-7.473915e-07 1.042654e-06 -1.526538e-29)
(-1.123853e-06 1.677317e-06 0)
(-1.609738e-06 2.391132e-06 0)
(-2.154923e-06 3.196152e-06 1.288124e-29)
(-2.705333e-06 4.101404e-06 -5.195827e-29)
(-2.592139e-07 -5.954087e-08 1.321831e-29)
(-5.328005e-07 6.16421e-07 1.620908e-29)
(-8.207331e-07 1.278293e-06 0)
(-1.247008e-06 2.008547e-06 -2.133055e-29)
(-1.806956e-06 2.819852e-06 -4.939067e-30)
(-2.446592e-06 3.722795e-06 3.317721e-29)
(-3.103344e-06 4.711794e-06 1.407405e-29)
(-2.774717e-07 -2.566951e-09 1.575087e-29)
(-5.662701e-07 7.796087e-07 0)
(-8.788123e-07 1.551989e-06 1.626485e-29)
(-1.353682e-06 2.393043e-06 -2.041859e-29)
(-1.990485e-06 3.3167e-06 1.697427e-29)
(-2.731426e-06 4.333632e-06 3.157255e-29)
(-3.505295e-06 5.434438e-06 1.467296e-29)
(-2.914189e-07 6.081328e-08 0)
(-5.85275e-07 9.685108e-07 0)
(-9.117513e-07 1.869675e-06 4.19272e-29)
(-1.428538e-06 2.83871e-06 0)
(-2.140242e-06 3.890441e-06 3.767285e-29)
(-2.985861e-06 5.035679e-06 1.756325e-29)
(-3.883236e-06 6.260701e-06 -1.627906e-29)
(-2.964527e-07 1.351405e-07 1.66188e-29)
(-5.722231e-07 1.185896e-06 -2.63448e-29)
(-8.967132e-07 2.234733e-06 -2.466986e-29)
(-1.450482e-06 3.355714e-06 0)
(-2.231223e-06 4.553723e-06 2.093616e-29)
(-3.182163e-06 5.842737e-06 0)
(-4.214386e-06 7.204863e-06 -2.639781e-29)
(-2.904907e-07 2.212402e-07 2.068036e-29)
(-5.233323e-07 1.434453e-06 -2.579196e-29)
(-8.163038e-07 2.653523e-06 -7.838915e-29)
(-1.381085e-06 3.94906e-06 -4.727219e-29)
(-2.227658e-06 5.320505e-06 2.808625e-29)
(-3.279206e-06 6.772629e-06 4.229965e-30)
(-4.451739e-06 8.290932e-06 -3.97102e-30)
(-2.68424e-07 3.213167e-07 1.092566e-30)
(-4.22998e-07 1.729332e-06 1.307858e-30)
(-6.504307e-07 3.136512e-06 -2.288754e-29)
(-1.197966e-06 4.632832e-06 -6.240705e-29)
(-2.083128e-06 6.201173e-06 1.743998e-29)
(-3.219258e-06 7.838037e-06 8.177969e-30)
(-4.531061e-06 9.53502e-06 1.514478e-29)
(-2.242913e-07 4.372877e-07 -1.087335e-30)
(-2.526853e-07 2.071234e-06 -1.296275e-30)
(-3.626138e-07 3.70197e-06 -3.54844e-29)
(-8.293989e-07 5.40983e-06 -7.39465e-29)
(-1.697183e-06 7.187962e-06 -4.526013e-29)
(-2.910399e-06 9.038297e-06 -3.609052e-29)
(-4.353356e-06 1.093694e-05 0)
(-1.495465e-07 5.694277e-07 0)
(1.429992e-08 2.45905e-06 0)
(9.362015e-08 4.337615e-06 -3.340504e-29)
(-2.093886e-07 6.26274e-06 -2.393651e-29)
(-9.749667e-07 8.25826e-06 1.156373e-29)
(-2.182042e-06 1.033347e-05 9.873044e-31)
(-3.766298e-06 1.24662e-05 0)
(-3.218066e-08 7.162493e-07 -2.155264e-30)
(4.15762e-07 2.887529e-06 2.566712e-30)
(7.847585e-07 5.033502e-06 4.771798e-30)
(7.499219e-07 7.193118e-06 0)
(2.17463e-07 9.378472e-06 -7.147466e-29)
(-8.989042e-07 1.166675e-05 -7.842284e-30)
(-2.557029e-06 1.404312e-05 -1.354978e-29)
(1.435211e-07 8.73679e-07 3.479259e-29)
(9.997973e-07 3.343901e-06 2.544209e-30)
(1.795644e-06 5.766265e-06 4.008641e-29)
(2.179261e-06 8.155923e-06 0)
(2.026448e-06 1.052126e-05 -3.086926e-29)
(1.202516e-06 1.295867e-05 -9.735883e-29)
(-3.468482e-07 1.55313e-05 -7.230573e-29)
(3.941843e-07 1.034785e-06 3.731453e-29)
(1.816067e-06 3.808534e-06 4.678588e-29)
(3.213015e-06 6.506685e-06 4.347744e-29)
(4.207579e-06 9.11212e-06 -8.772832e-30)
(4.644343e-06 1.162849e-05 -1.605793e-29)
(4.374069e-06 1.415926e-05 -6.518604e-29)
(3.04839e-06 1.688657e-05 -2.83176e-29)
(7.306136e-07 1.188367e-06 0)
(2.897904e-06 4.255282e-06 -5.398173e-29)
(5.093625e-06 7.238396e-06 -4.744953e-29)
(6.915511e-06 1.007301e-05 4.392176e-30)
(8.171386e-06 1.277208e-05 3.842086e-29)
(8.629994e-06 1.545691e-05 -7.893278e-30)
(8.220363e-06 1.851065e-05 0)
(1.145632e-06 1.323885e-06 -3.929791e-29)
(4.243781e-06 4.683053e-06 -1.240068e-28)
(7.442293e-06 7.980106e-06 -7.156777e-29)
(1.029442e-05 1.114969e-05 -1.022052e-28)
(1.2531e-05 1.416373e-05 4.661869e-29)
(1.448022e-05 1.758455e-05 -8.951177e-29)
(1.701525e-05 2.249817e-05 -7.931111e-29)
(1.631514e-06 1.468572e-06 -4.344415e-29)
(5.793983e-06 5.138266e-06 -2.545398e-30)
(1.018527e-05 8.871224e-06 0)
(1.418972e-05 1.254755e-05 2.589809e-30)
(1.831137e-05 1.673311e-05 -1.798575e-28)
(2.471288e-05 2.314824e-05 -3.022634e-28)
(3.580025e-05 3.353271e-05 -1.344269e-28)
(2.138513e-06 1.646894e-06 4.345861e-29)
(7.47802e-06 5.782469e-06 5.133554e-30)
(1.308163e-05 1.012971e-05 5.486944e-30)
(1.929565e-05 1.528255e-05 1.310145e-28)
(2.896926e-05 2.343298e-05 -1.514581e-28)
(4.730131e-05 3.760601e-05 -3.742401e-28)
(7.319668e-05 5.494098e-05 7.003994e-28)
(2.590341e-06 1.938322e-06 4.507829e-29)
(9.053054e-06 6.79087e-06 0)
(1.690977e-05 1.281935e-05 1.610253e-29)
(2.931568e-05 2.260427e-05 2.724946e-29)
(5.271258e-05 3.996287e-05 2.825972e-28)
(8.910996e-05 6.267132e-05 -9.086095e-28)
(0.0001284448 8.120707e-05 9.638531e-28)
(2.851369e-06 2.40666e-06 0)
(1.10215e-05 8.97882e-06 1.586017e-29)
(2.428138e-05 1.966708e-05 2.976651e-29)
(5.010496e-05 3.93423e-05 -5.912465e-29)
(9.357668e-05 6.687665e-05 -4.643434e-29)
(0.0001462418 9.153045e-05 1.246477e-27)
(0.0001931499 0.0001050813 1.175045e-27)
(3.160517e-06 3.341735e-06 0)
(1.482311e-05 1.413702e-05 -4.874542e-29)
(3.936254e-05 3.503494e-05 -7.776393e-29)
(8.332538e-05 6.662821e-05 -2.978524e-28)
(0.0001441381 9.759135e-05 -2.154764e-28)
(0.0002060101 0.0001172517 2.068369e-28)
(0.0002563188 0.0001249086 1.44549e-27)
(4.313028e-06 5.864478e-06 8.497739e-29)
(2.387293e-05 2.661452e-05 2.341168e-28)
(6.376476e-05 6.094571e-05 7.892753e-29)
(0.0001237863 0.0001001443 -1.382714e-28)
(0.0001931315 0.0001280754 -2.073141e-28)
(0.0002578137 0.0001403898 9.832106e-28)
(0.0003086752 0.0001430063 -9.441074e-29)
(7.516783e-06 1.215246e-05 1.308537e-28)
(3.874034e-05 4.856675e-05 7.22011e-28)
(9.309597e-05 9.429457e-05 -5.912976e-30)
(0.0001619837 0.0001346072 -8.96163e-29)
(0.000233042 0.0001574577 -1.151097e-27)
(0.0002954328 0.0001642514 2.005835e-27)
(0.0003452313 0.0001625244 5.261827e-27)
(1.296735e-05 2.295234e-05 -2.201881e-28)
(5.677052e-05 7.842541e-05 -6.541669e-29)
(0.0001207449 0.0001310004 -6.006631e-28)
(0.0001916853 0.000168463 6.743107e-29)
(0.000258655 0.0001853691 -1.978565e-27)
(0.0003164875 0.0001872466 1.271997e-27)
(0.0003649425 0.0001822403 4.770031e-27)
(1.992201e-05 3.724221e-05 4.7933e-29)
(7.349032e-05 0.0001115872 -6.089987e-28)
(0.0001403768 0.0001674877 -5.79561e-28)
(0.0002074101 0.0002005784 5.209591e-28)
(0.0002678841 0.0002110409 -8.537384e-29)
(0.0003211427 0.0002066246 1.48277e-27)
(0.0003668212 0.0001971897 -1.634268e-28)
(2.651392e-05 5.23263e-05 5.458125e-28)
(8.477623e-05 0.0001429807 -2.272759e-29)
(0.0001480924 0.0002012115 1.193826e-28)
(0.0002069534 0.0002301973 1.288725e-27)
(0.0002587909 0.0002352116 2.024965e-28)
(0.000305918 0.0002246404 1.054098e-27)
(0.0003470624 0.0002084188 2.761492e-28)
(2.970127e-05 6.490682e-05 1.410177e-29)
(8.654477e-05 0.0001690985 -1.200029e-28)
(0.0001426074 0.0002305194 1.638166e-28)
(0.0001902609 0.0002578108 4.779265e-28)
(0.0002323242 0.0002604493 -7.110808e-28)
(0.0002710546 0.0002461297 -2.50765e-28)
(0.0003058511 0.0002235619 2.79676e-28)
(2.80856e-05 7.411998e-05 -3.468369e-28)
(7.774618e-05 0.0001896556 -4.113201e-28)
(0.0001225046 0.0002547253 -2.539058e-28)
(0.0001591958 0.0002838198 6.478399e-29)
(0.0001918426 0.0002877124 1.683324e-28)
(0.0002222685 0.0002731647 -5.945051e-28)
(0.0002512512 0.0002495977 -2.104542e-28)
(2.188122e-05 7.939933e-05 -2.301701e-29)
(5.915401e-05 0.000203419 -1.607174e-28)
(9.158948e-05 0.0002729297 5.439926e-29)
(0.0001179722 0.0003044566 3.786861e-29)
(0.000141759 0.0003104533 1.584692e-28)
(0.0001644698 0.0002975772 1.527427e-28)
(0.0001853927 0.0002797003 -9.027481e-29)
(1.238076e-05 8.141739e-05 8.214762e-29)
(3.28507e-05 0.0002104858 -1.451524e-29)
(5.075353e-05 0.0002834143 6.7542e-30)
(6.556044e-05 0.0003169152 -6.588315e-29)
(7.910392e-05 0.0003245224 4.080666e-29)
(9.224713e-05 0.0003132938 1.068858e-32)
(0.0001050559 0.0002984931 2.394215e-29)
(4.17532e-07 8.159152e-05 -1.870052e-29)
(1.102438e-06 0.0002121196 -7.521842e-29)
(2.313432e-06 0.0002862333 4.329134e-29)
(3.446085e-06 0.0003201964 7.612925e-29)
(4.03315e-06 0.0003279154 1.951912e-28)
(3.219305e-06 0.000316574 4.8634e-29)
(1.25747e-06 0.0003020145 -1.302628e-28)
(-1.255182e-05 8.15686e-05 -1.884592e-29)
(-3.227806e-05 0.0002109531 -7.45986e-29)
(-4.839111e-05 0.0002835185 3.114796e-29)
(-6.199668e-05 0.000315938 6.287434e-29)
(-7.637736e-05 0.0003217451 1.965487e-28)
(-9.513148e-05 0.0003070716 -9.440772e-29)
(-0.0001192373 0.0002871282 -2.427317e-28)
(-2.386641e-05 8.10886e-05 6.511648e-30)
(-6.203216e-05 0.0002070055 -1.157124e-31)
(-9.387212e-05 0.0002761132 -7.093826e-30)
(-0.0001208207 0.0003060582 -6.630616e-30)
(-0.0001488793 0.0003094048 -8.192437e-30)
(-0.0001832452 0.0002912718 1.512339e-31)
(-0.0002233659 0.0002670921 -1.353476e-28)
(-3.200453e-05 7.826625e-05 1.416813e-28)
(-8.473516e-05 0.0001977911 1.595389e-28)
(-0.0001299232 0.0002627459 -1.756246e-28)
(-0.0001683571 0.0002904041 -2.794765e-29)
(-0.0002073221 0.0002919625 -1.588293e-28)
(-0.0002510814 0.0002728293 6.099924e-30)
(-0.0002953973 0.0002482498 2.201564e-28)
(-3.591265e-05 7.184008e-05 -4.368313e-31)
(-9.815448e-05 0.0001822045 1.786402e-28)
(-0.0001546666 0.0002430634 -1.950689e-28)
(-0.0002035732 0.000268961 3.950635e-28)
(-0.0002513042 0.0002695381 -2.07241e-29)
(-0.0003001645 0.0002516465 -3.187244e-28)
(-0.000345529 0.0002267155 -2.691085e-28)
(-3.457864e-05 6.149001e-05 -1.44252e-28)
(-0.0001005618 0.000160105 6.226435e-29)
(-0.0001671548 0.0002178628 -6.163538e-28)
(-0.0002269413 0.0002428922 -7.749629e-28)
(-0.0002834003 0.0002435598 2.300098e-28)
(-0.0003373979 0.0002282845 -2.633121e-28)
(-0.0003837049 0.000207277 1.183609e-27)
(-2.859649e-05 4.821251e-05 2.135159e-29)
(-9.215122e-05 0.0001328938 2.861015e-28)
(-0.0001638137 0.0001876916 -3.241347e-28)
(-0.0002337472 0.0002147587 -9.30994e-29)
(-0.0002983133 0.0002184579 1.208931e-27)
(-0.0003577912 0.000207553 -3.689866e-32)
(-0.0004086221 0.0001923673 6.506669e-28)
(-2.015263e-05 3.320904e-05 2.650592e-28)
(-7.531729e-05 0.0001009876 5.799186e-28)
(-0.0001474775 0.0001531112 -7.067573e-28)
(-0.000223196 0.0001844296 -1.022728e-28)
(-0.0002938907 0.0001939236 1.166993e-27)
(-0.0003566388 0.000189075 -2.257547e-28)
(-0.0004098981 0.0001798286 -1.098137e-27)
(-1.243059e-05 1.97584e-05 1.745132e-28)
(-5.501824e-05 6.85668e-05 -4.373623e-28)
(-0.0001203491 0.0001165448 -6.899293e-28)
(-0.0001963373 0.0001520625 1.393578e-28)
(-0.0002706102 0.0001682987 8.843934e-28)
(-0.0003354661 0.0001699207 -9.260691e-29)
(-0.000389535 0.0001651174 4.753031e-27)
(-6.959348e-06 1.018867e-05 1.250415e-28)
(-3.570925e-05 4.09481e-05 -6.296382e-29)
(-8.773622e-05 8.107986e-05 -5.440861e-29)
(-0.0001571459 0.0001186191 -8.706022e-28)
(-0.0002316659 0.0001411311 1.20545e-27)
(-0.0002985135 0.0001483667 -1.959132e-27)
(-0.0003524642 0.0001476655 5.122933e-27)
(-4.026794e-06 4.978808e-06 6.626557e-29)
(-2.142436e-05 2.205126e-05 1.801049e-28)
(-5.702958e-05 5.066043e-05 -5.308425e-30)
(-0.0001130908 8.544391e-05 -1.314938e-28)
(-0.0001815226 0.0001125097 3.055009e-27)
(-0.0002480314 0.0001259274 -7.812421e-28)
(-0.000301902 0.0001303421 2.334383e-29)
(-3.180197e-06 3.146254e-06 0)
(-1.35746e-05 1.217798e-05 -1.691276e-31)
(-3.421277e-05 2.88163e-05 1.996486e-29)
(-7.194542e-05 5.496187e-05 8.870044e-29)
(-0.00012763 8.325439e-05 7.704441e-28)
(-0.000188321 0.0001036844 -5.040062e-28)
(-0.0002401895 0.0001135923 2.477482e-27)
(-2.759425e-06 2.325516e-06 0)
(-1.03172e-05 8.315904e-06 -1.408845e-29)
(-2.140743e-05 1.702547e-05 -1.327322e-29)
(-4.202227e-05 3.240137e-05 -2.799121e-28)
(-7.828e-05 5.540226e-05 5.612096e-28)
(-0.0001260215 7.896625e-05 1.954582e-27)
(-0.0001724719 9.459072e-05 2.40497e-27)
(-2.291645e-06 1.868421e-06 4.539604e-29)
(-8.233654e-06 6.572318e-06 0)
(-1.519774e-05 1.209313e-05 0)
(-2.496194e-05 1.992802e-05 -1.350857e-28)
(-4.278177e-05 3.344199e-05 2.616979e-28)
(-7.229781e-05 5.290238e-05 2.798067e-27)
(-0.0001080984 7.204043e-05 -2.612004e-30)
(-1.74136e-06 1.612901e-06 4.380172e-29)
(-6.360036e-06 5.686229e-06 -5.135555e-30)
(-1.136286e-05 9.982807e-06 -5.266633e-30)
(-1.666707e-05 1.477141e-05 -5.704712e-29)
(-2.383417e-05 2.136019e-05 -1.141524e-28)
(-3.714402e-05 3.270187e-05 5.013575e-28)
(-5.766522e-05 4.842793e-05 6.316548e-29)
(-1.207893e-06 1.466233e-06 0)
(-4.587535e-06 5.143734e-06 -5.330424e-29)
(-8.271402e-06 8.897972e-06 0)
(-1.171835e-05 1.262392e-05 -9.988252e-30)
(-1.503351e-05 1.663093e-05 -1.191658e-29)
(-1.934904e-05 2.205322e-05 1.720342e-30)
(-2.688299e-05 3.084884e-05 1.28491e-28)
(-7.407864e-07 1.342955e-06 0)
(-3.075798e-06 4.749888e-06 5.194344e-29)
(-5.583926e-06 8.123234e-06 -5.142597e-29)
(-7.854618e-06 1.140959e-05 0)
(-9.646709e-06 1.459662e-05 -1.771475e-29)
(-1.095884e-05 1.801487e-05 -1.094677e-28)
(-1.227557e-05 2.246014e-05 8.761794e-30)
(-3.636588e-07 1.216653e-06 0)
(-1.843134e-06 4.353999e-06 1.439674e-28)
(-3.416491e-06 7.441187e-06 -1.653863e-31)
(-4.70186e-06 1.043332e-05 7.745106e-29)
(-5.517212e-06 1.33275e-05 -1.624843e-29)
(-5.670624e-06 1.623758e-05 -4.901801e-29)
(-4.982211e-06 1.938665e-05 -7.084949e-29)
(-7.473952e-08 1.06827e-06 -3.50668e-29)
(-8.980045e-07 3.921362e-06 3.905717e-29)
(-1.757217e-06 6.732098e-06 1.036926e-31)
(-2.284177e-06 9.496107e-06 9.209699e-29)
(-2.333351e-06 1.220211e-05 0)
(-1.807836e-06 1.49337e-05 0)
(-4.076025e-07 1.785317e-05 1.046432e-28)
(1.299016e-07 9.09523e-07 -3.462386e-29)
(-2.136577e-07 3.461443e-06 3.800975e-29)
(-5.514748e-07 5.996004e-06 -4.026441e-29)
(-5.404677e-07 8.524778e-06 -3.973186e-29)
(-6.567044e-08 1.105331e-05 0)
(9.66602e-07 1.365959e-05 0)
(2.596939e-06 1.638032e-05 2.773606e-29)
(2.650018e-07 7.525457e-07 2.978145e-29)
(2.540983e-07 3.006289e-06 2.709261e-29)
(2.744685e-07 5.253184e-06 -4.801415e-30)
(6.419801e-07 7.533249e-06 -4.059831e-29)
(1.450149e-06 9.859427e-06 2.579583e-29)
(2.735762e-06 1.227338e-05 9.667138e-29)
(4.455595e-06 1.475587e-05 -3.999577e-29)
(3.475582e-07 6.046259e-07 2.51744e-29)
(5.556796e-07 2.572074e-06 -2.574189e-30)
(8.056229e-07 4.540004e-06 4.821356e-30)
(1.384398e-06 6.562707e-06 4.520303e-30)
(2.373484e-06 8.665836e-06 0)
(3.733755e-06 1.084028e-05 2.491377e-29)
(5.36736e-06 1.304867e-05 -2.890204e-29)
(3.9244e-07 4.712759e-07 0)
(7.357367e-07 2.175032e-06 -5.19822e-30)
(1.122911e-06 3.882629e-06 -4.88972e-30)
(1.820081e-06 5.670986e-06 -2.430424e-29)
(2.863068e-06 7.529544e-06 3.617788e-29)
(4.191067e-06 9.45002e-06 -6.301555e-29)
(5.692516e-06 1.140354e-05 -3.272803e-29)
(4.107888e-07 3.518185e-07 -2.184571e-30)
(8.313855e-07 1.822043e-06 -2.6151e-30)
(1.291485e-06 3.293879e-06 0)
(2.031356e-06 4.855397e-06 -2.073173e-31)
(3.058533e-06 6.483893e-06 -2.609667e-29)
(4.286448e-06 8.169857e-06 -2.437292e-29)
(5.642513e-06 9.899698e-06 -7.560618e-30)
(4.098757e-07 2.477271e-07 -2.167938e-29)
(8.661603e-07 1.514303e-06 1.902266e-29)
(1.354781e-06 2.787469e-06 -7.835207e-29)
(2.077753e-06 4.134386e-06 2.711165e-29)
(3.038846e-06 5.549936e-06 -2.786594e-29)
(4.161893e-06 7.034383e-06 0)
(5.364278e-06 8.568218e-06 7.931775e-30)
(3.958949e-07 1.576131e-07 -1.650929e-29)
(8.589904e-07 1.2533e-06 2.61968e-29)
(1.345979e-06 2.34604e-06 -2.450684e-29)
(2.028344e-06 3.506528e-06 0)
(2.900672e-06 4.736142e-06 2.073523e-29)
(3.905918e-06 6.045077e-06 0)
(4.955991e-06 7.410861e-06 -1.785994e-29)
(3.73748e-07 7.940662e-08 0)
(8.23166e-07 1.02403e-06 0)
(1.283275e-06 1.960107e-06 4.160456e-29)
(1.904254e-06 2.95918e-06 0)
(2.68868e-06 4.033323e-06 3.730079e-29)
(3.574882e-06 5.189879e-06 1.73637e-29)
(4.481098e-06 6.411497e-06 -1.606786e-29)
(3.455647e-07 1.262193e-08 1.563337e-29)
(7.621715e-07 8.245002e-07 0)
(1.183807e-06 1.624375e-06 2.136891e-29)
(1.743005e-06 2.488235e-06 -1.521645e-29)
(2.437268e-06 3.427699e-06 1.680303e-29)
(3.208312e-06 4.450651e-06 3.121596e-29)
(3.985417e-06 5.545008e-06 1.448829e-29)
(3.150319e-07 -4.728428e-08 1.536762e-29)
(6.932425e-07 6.524262e-07 1.881973e-29)
(1.069947e-06 1.335907e-06 0)
(1.564206e-06 2.083586e-06 -1.093121e-29)
(2.169564e-06 2.906177e-06 4.941679e-30)
(2.831687e-06 3.812264e-06 2.329845e-29)
(3.488742e-06 4.794445e-06 -1.411359e-29)
(2.814745e-07 -9.778056e-08 1.28272e-29)
(6.181535e-07 5.041686e-07 1.581373e-29)
(9.504007e-07 1.088665e-06 -1.51219e-29)
(1.381672e-06 1.736833e-06 0)
(1.903496e-06 2.459064e-06 0)
(2.465755e-06 3.265962e-06 1.273456e-29)
(3.014468e-06 4.165192e-06 2.763412e-29)
(2.490585e-07 -1.407717e-07 1.166176e-29)
(5.445486e-07 3.774383e-07 1.418384e-29)
(8.335073e-07 8.772495e-07 -1.372848e-29)
(1.206459e-06 1.440486e-06 0)
(1.654131e-06 2.077149e-06 5.129447e-30)
(2.132357e-06 2.798605e-06 -1.197558e-33)
(2.599824e-06 3.623112e-06 -5.076753e-30)
(2.186387e-07 -1.775135e-07 0)
(4.751205e-07 2.689095e-07 1.289683e-29)
(7.242017e-07 6.965574e-07 -1.233569e-29)
(1.045217e-06 1.18802e-06 0)
(1.429022e-06 1.753143e-06 5.837791e-30)
(1.836014e-06 2.403349e-06 -1.027201e-29)
(2.228747e-06 3.158454e-06 -5.184095e-30)
(1.907572e-07 -2.091457e-07 -9.483955e-30)
(4.115924e-07 1.75627e-07 -1.412225e-30)
(6.250912e-07 5.416994e-07 -1.260677e-29)
(9.011004e-07 9.728069e-07 -2.698431e-30)
(1.231267e-06 1.478943e-06 -2.583307e-30)
(1.580517e-06 2.071492e-06 9.51384e-30)
(1.91323e-06 2.769472e-06 0)
(1.656241e-07 -2.365741e-07 -1.723837e-29)
(3.546046e-07 9.489411e-08 0)
(5.370929e-07 4.080915e-07 0)
(7.746816e-07 7.882499e-07 -6.890302e-30)
(1.059221e-06 1.245811e-06 -1.560276e-29)
(1.358386e-06 1.79639e-06 8.805764e-30)
(1.643323e-06 2.448055e-06 0)
(1.43352e-07 -2.607122e-07 -7.844887e-30)
(3.044878e-07 2.415876e-08 -1.425671e-30)
(4.604452e-07 2.915031e-07 -1.399509e-30)
(6.659793e-07 6.277141e-07 -2.811613e-30)
(9.144154e-07 1.043464e-06 -1.109816e-29)
(1.18074e-06 1.557466e-06 0)
(1.426777e-06 2.172914e-06 7.270915e-30)
(1.237558e-07 -2.821604e-07 -5.783069e-31)
(2.608338e-07 -3.8656e-08 6.490697e-30)
(3.941479e-07 1.881007e-07 6.902983e-30)
(5.723321e-07 4.856587e-07 1.588994e-29)
(7.894564e-07 8.650191e-07 0)
(1.022037e-06 1.344395e-06 8.189663e-30)
(1.236521e-06 1.927421e-06 5.453836e-32)
(1.066394e-07 -3.015833e-07 7.004862e-30)
(2.230455e-07 -9.54026e-08 1.504633e-29)
(3.371769e-07 9.483023e-08 1.375338e-29)
(4.920613e-07 3.577793e-07 4.461901e-30)
(6.827827e-07 7.046885e-07 -2.782231e-30)
(8.860458e-07 1.152923e-06 7.611481e-30)
(1.074563e-06 1.706959e-06 -3.367735e-30)
(9.175848e-08 -3.194605e-07 5.899766e-30)
(1.90623e-07 -1.475549e-07 1.43524e-29)
(2.884228e-07 9.112836e-09 6.935488e-30)
(4.226936e-07 2.403367e-07 0)
(5.878792e-07 5.599279e-07 -2.275873e-29)
(7.663343e-07 9.800315e-07 -2.826489e-29)
(9.355551e-07 1.504443e-06 -5.495167e-30)
(7.890029e-08 -3.362331e-07 4.750895e-30)
(1.630808e-07 -1.965894e-07 7.295006e-30)
(2.475746e-07 -7.162605e-08 4.28864e-30)
(3.660123e-07 1.29426e-07 2.842066e-30)
(5.157479e-07 4.218997e-07 0)
(6.733038e-07 8.167215e-07 5.535185e-30)
(8.196015e-07 1.313678e-06 2.762956e-30)
(6.784519e-08 -3.523945e-07 4.332947e-30)
(1.398006e-07 -2.438603e-07 6.671427e-30)
(2.132414e-07 -1.495422e-07 2.870436e-30)
(3.177108e-07 2.238566e-08 1.428288e-30)
(4.501174e-07 2.873627e-07 0)
(5.894187e-07 6.565894e-07 7.93916e-30)
(7.202184e-07 1.129916e-06 5.56909e-30)
(5.838996e-08 -3.683485e-07 5.837196e-31)
(1.203944e-07 -2.906306e-07 1.165433e-29)
(1.849757e-07 -2.265758e-07 1.440368e-30)
(2.780305e-07 -8.338184e-08 1.434792e-30)
(3.957176e-07 1.542855e-07 0)
(5.197118e-07 4.983118e-07 0)
(6.367835e-07 9.488857e-07 0)
(5.042466e-08 -3.845377e-07 0)
(1.046262e-07 -3.381401e-07 5.030242e-30)
(1.62461e-07 -3.04806e-07 0)
(2.465985e-07 -1.907837e-07 -7.589377e-30)
(3.51835e-07 1.936122e-08 -2.914213e-30)
(4.628184e-07 3.38051e-07 -2.85352e-30)
(5.678317e-07 7.660949e-07 -6.748138e-30)
(4.38092e-08 -4.013832e-07 3.741182e-30)
(9.215275e-08 -3.877205e-07 0)
(1.446283e-07 -3.864964e-07 2.905267e-30)
(2.195039e-07 -3.025219e-07 -2.488571e-29)
(3.14946e-07 -1.201082e-07 -1.903879e-29)
(4.171869e-07 1.71654e-07 0)
(5.121904e-07 5.770472e-07 -3.673928e-30)
(3.847053e-08 -4.19455e-07 3.475801e-30)
(8.330084e-08 -4.410101e-07 0)
(1.337756e-07 -4.743743e-07 1.458185e-30)
(2.065535e-07 -4.233384e-07 1.470686e-30)
(2.947882e-07 -2.703279e-07 7.896639e-30)
(3.850279e-07 -5.666632e-09 -3.624002e-30)
(4.697642e-07 3.770347e-07 3.370305e-30)
(3.432448e-08 -4.392694e-07 0)
(7.760633e-08 -4.996208e-07 5.323569e-30)
(1.275883e-07 -5.710118e-07 1.461424e-30)
(1.973374e-07 -5.559787e-07 -4.278743e-30)
(2.797422e-07 -4.352932e-07 3.652814e-30)
(3.630313e-07 -1.983312e-07 -3.39646e-30)
(4.394322e-07 1.613754e-07 3.712308e-32)
(3.130633e-08 -4.614696e-07 0)
(7.526403e-08 -5.652692e-07 3.595436e-30)
(1.269382e-07 -6.790956e-07 -3.472265e-30)
(1.959659e-07 -7.040997e-07 -2.558199e-30)
(2.746984e-07 -6.189052e-07 4.799837e-30)
(3.521168e-07 -4.112638e-07 2.887207e-30)
(4.209188e-07 -7.486403e-08 -2.948699e-30)
(2.936666e-08 -4.863966e-07 0)
(7.641741e-08 -6.393323e-07 0)
(1.321978e-07 -8.01325e-07 -3.243614e-30)
(2.027919e-07 -8.714111e-07 3.714907e-30)
(2.796138e-07 -8.254862e-07 3.912266e-32)
(3.520497e-07 -6.491774e-07 0)
(4.136517e-07 -3.363327e-07 0)
(2.848137e-08 -5.144446e-07 2.475721e-30)
(8.105124e-08 -7.229453e-07 -3.019714e-30)
(1.43541e-07 -9.397368e-07 -2.948262e-30)
(2.177843e-07 -1.060922e-06 2.035147e-30)
(2.939647e-07 -1.05872e-06 -3.783311e-32)
(3.619408e-07 -9.159924e-07 2.902662e-30)
(4.16308e-07 -6.267998e-07 -1.476362e-35)
(2.860345e-08 -5.457047e-07 3.223725e-32)
(8.97528e-08 -8.165033e-07 -2.826249e-30)
(1.618388e-07 -1.095397e-06 -2.857046e-30)
(2.412222e-07 -1.274483e-06 -1.484025e-30)