/*--------------------------------*- C++ -*----------------------------------*\
| =========                 |                                                 |
| \\      /  F ield         | OpenFOAM: The Open Source CFD Toolbox           |
|  \\    /   O peration     | Version:  2206                                  |
|   \\  /    A nd           | Website:  www.openfoam.com                      |
|    \\/     M anipulation  |                                                 |
\*---------------------------------------------------------------------------*/
FoamFile
{
    version     2.0;
    format      ascii;
    arch        "LSB;label=32;scalar=64";
    class       volVectorField;
    location    "1.2";
    object      U.b;
}
// * * * * * * * * * * * * * * * * * * * * * * * * * * * * * * * * * * * * * //

dimensions      [0 1 -1 0 0 0 0];

internalField   nonuniform List<vector> 
13078
(
(-2.794591e-06 5.671374e-06 -5.07985e-28)
(-2.931986e-06 1.492427e-05 2.338869e-30)
(-2.636426e-06 1.557276e-05 1.274223e-27)
(-2.59569e-06 1.644756e-05 0)
(-2.541233e-06 1.688391e-05 5.416065e-28)
(-2.462468e-06 1.838495e-05 5.565079e-28)
(-2.360403e-06 2.000121e-05 5.784823e-28)
(1.389765e-06 2.049475e-06 0)
(-2.013422e-06 1.128969e-05 -2.538787e-30)
(-3.525946e-06 1.471039e-05 0)
(-4.983843e-06 1.581459e-05 0)
(-5.142244e-06 1.701055e-05 3.624526e-30)
(-4.918075e-06 1.86489e-05 1.80412e-30)
(-4.57994e-06 2.029644e-05 3.409947e-30)
(2.302118e-06 4.063994e-06 3.026802e-28)
(-2.74575e-06 1.026446e-05 -5.917944e-29)
(-5.930547e-06 1.324599e-05 -4.548264e-28)
(-7.339478e-06 1.542776e-05 -9.860966e-28)
(-7.572933e-06 1.730706e-05 -5.309916e-28)
(-7.283168e-06 1.919111e-05 0)
(-6.773081e-06 2.093389e-05 3.384829e-33)
(-3.620135e-06 3.51062e-06 -1.136827e-28)
(-6.822668e-06 9.003897e-06 4.688155e-28)
(-8.93026e-06 1.255257e-05 6.537187e-28)
(-9.873551e-06 1.529056e-05 3.767682e-28)
(-1.00101e-05 1.775909e-05 -1.443372e-29)
(-9.636912e-06 1.994326e-05 0)
(-8.981349e-06 2.184594e-05 -6.640746e-30)
(-9.706974e-06 3.184506e-06 2.924474e-30)
(-1.119772e-05 8.412106e-06 5.209664e-28)
(-1.230713e-05 1.231581e-05 1.095635e-27)
(-1.274937e-05 1.558459e-05 1.179593e-27)
(-1.259641e-05 1.835187e-05 2.551223e-29)
(-1.20965e-05 2.088584e-05 3.065506e-32)
(-1.128286e-05 2.300918e-05 -6.065716e-28)
(-1.477186e-05 3.004745e-06 0)
(-1.543941e-05 8.165647e-06 -1.414401e-29)
(-1.59023e-05 1.23889e-05 2.15822e-29)
(-1.594723e-05 1.608404e-05 7.302688e-28)
(-1.55382e-05 1.928158e-05 -6.728353e-29)
(-1.475432e-05 2.200761e-05 5.931429e-28)
(-1.376103e-05 2.44149e-05 1.314941e-27)
(-1.954684e-05 2.953582e-06 0)
(-1.976576e-05 8.192465e-06 9.538888e-28)
(-1.977061e-05 1.274081e-05 1.277595e-27)
(-1.952913e-05 1.679775e-05 4.489288e-28)
(-1.882241e-05 2.040892e-05 8.022353e-28)
(-1.780827e-05 2.349893e-05 -7.820897e-29)
(-1.647131e-05 2.607014e-05 0)
(-2.439153e-05 3.005884e-06 -2.407611e-27)
(-2.434783e-05 8.440163e-06 1.185118e-27)
(-2.407443e-05 1.329933e-05 1.156079e-27)
(-2.3485e-05 1.778556e-05 0)
(-2.250594e-05 2.179291e-05 2.10415e-27)
(-2.121613e-05 2.52484e-05 -8.237725e-29)
(-1.959663e-05 2.815424e-05 -9.06492e-29)
(-2.952195e-05 3.139419e-06 -3.862032e-31)
(-2.930472e-05 8.88671e-06 -2.862869e-27)
(-2.879211e-05 1.412445e-05 -1.436811e-27)
(-2.791793e-05 1.903108e-05 -6.199415e-29)
(-2.664134e-05 2.345813e-05 4.948389e-27)
(-2.503762e-05 2.730835e-05 -8.763176e-29)
(-2.307501e-05 3.057734e-05 0)
(-3.509016e-05 3.335074e-06 3.469644e-27)
(-3.474295e-05 9.494099e-06 -3.40213e-27)
(-3.401848e-05 1.517423e-05 -1.649653e-27)
(-3.287177e-05 2.054307e-05 3.127767e-27)
(-3.127463e-05 2.542992e-05 2.206587e-30)
(-2.932038e-05 2.971617e-05 0)
(-2.696749e-05 3.339089e-05 0)
(-4.121205e-05 3.583721e-06 0)
(-4.075129e-05 1.024864e-05 0)
(-3.982425e-05 1.644467e-05 -3.869342e-27)
(-3.839954e-05 2.23367e-05 3.669626e-27)
(-3.645673e-05 2.773773e-05 -2.476776e-30)
(-3.411343e-05 3.251135e-05 0)
(-3.13237e-05 3.664087e-05 0)
(-4.798866e-05 3.882671e-06 0)
(-4.74166e-05 1.114843e-05 4.651011e-27)
(-4.628328e-05 1.794379e-05 -4.505128e-27)
(-4.456489e-05 2.443284e-05 -4.189587e-27)
(-4.22469e-05 3.041577e-05 4.129276e-27)
(-3.947256e-05 3.573866e-05 0)
(-3.619619e-05 4.037822e-05 -3.639633e-27)
(-5.551859e-05 4.233376e-06 0)
(-5.483031e-05 1.22011e-05 5.419838e-27)
(-5.347832e-05 1.968886e-05 6.141564e-29)
(-5.144098e-05 2.685986e-05 -4.935613e-27)
(-4.871728e-05 3.350465e-05 4.657178e-27)
(-4.546214e-05 3.944957e-05 -4.310059e-27)
(-4.164403e-05 4.466137e-05 -3.682157e-30)
(-6.390683e-05 4.639852e-06 6.31968e-27)
(-6.309316e-05 1.341944e-05 0)
(-6.150437e-05 2.170543e-05 6.714683e-29)
(-5.910678e-05 2.965132e-05 9.163941e-29)
(-5.596975e-05 3.704148e-05 1.0714e-26)
(-5.215728e-05 4.370272e-05 -4.955073e-27)
(-4.773484e-05 4.955843e-05 4.493151e-27)
(-7.32693e-05 5.107419e-06 7.24553e-27)
(-7.231931e-05 1.482125e-05 0)
(-7.047686e-05 2.403331e-05 1.474724e-28)
(-6.765093e-05 3.291079e-05 -7.886157e-27)
(-6.417888e-05 4.101384e-05 4.205502e-27)
(-5.96545e-05 4.855472e-05 0)
(-5.454825e-05 5.514933e-05 -5.133375e-27)
(-8.373511e-05 5.64158e-06 0)
(-8.263255e-05 1.641836e-05 8.110209e-27)
(-8.051871e-05 2.665527e-05 0)
(-7.737991e-05 3.645511e-05 -7.710332e-27)
(-7.324368e-05 4.567012e-05 -2.782524e-28)
(-6.804286e-05 5.410933e-05 -3.290913e-28)
(-6.217815e-05 6.153061e-05 -6.230522e-27)
(-9.545199e-05 6.252393e-06 0)
(-9.417704e-05 1.824758e-05 1.848594e-26)
(-9.175005e-05 2.967753e-05 9.06967e-29)
(-8.817085e-05 4.062066e-05 1.241488e-28)
(-8.341145e-05 5.095479e-05 0)
(-7.74527e-05 6.043625e-05 0)
(-7.073556e-05 6.880329e-05 0)
(-0.0001085877 6.947566e-06 1.071989e-26)
(-0.0001071202 2.032785e-05 1.05431e-26)
(-0.0001043473 3.311171e-05 2.021237e-28)
(-0.0001002622 4.536209e-05 1.383389e-28)
(-9.482185e-05 5.695444e-05 0)
(-8.80308e-05 6.762753e-05 8.762329e-27)
(-8.03512e-05 7.707906e-05 9.305547e-28)
(-0.0001233287 7.735484e-06 1.217438e-26)
(-0.0001216454 2.268636e-05 1.19651e-26)
(-0.0001184889 3.700561e-05 3.380461e-28)
(-0.0001138382 5.074118e-05 3.089598e-28)
(-0.0001076192 6.374857e-05 0)
(-9.998217e-05 7.575679e-05 9.489829e-27)
(-9.117517e-05 8.647615e-05 5.21618e-28)
(-0.000139883 8.626193e-06 1.381647e-26)
(-0.0001379575 2.535221e-05 2.705661e-26)
(-0.0001343805 4.141127e-05 1.308545e-26)
(-0.000129122 5.686371e-05 0)
(-0.0001219967 7.161125e-05 -3.293424e-27)
(-0.000113677 8.479237e-05 -4.959025e-27)
(-0.0001033947 9.710044e-05 -1.168404e-27)
(-0.0001584808 9.629087e-06 1.566661e-26)
(-0.0001562818 2.835276e-05 3.059695e-26)
(-0.0001522364 4.635684e-05 2.950081e-26)
(-0.0001463241 6.365474e-05 1.375486e-26)
(-0.000138527 8.000854e-05 -4.848448e-28)
(-0.0001288472 9.527247e-05 1.201506e-26)
(-0.0001171722 0.0001091396 -1.031975e-26)
(-0.0001793794 1.075779e-05 0)
(-0.0001768716 3.173045e-05 1.723865e-26)
(-0.0001723046 5.193754e-05 1.661274e-26)
(-0.0001656388 7.137937e-05 3.200492e-26)
(-0.0001568894 8.977054e-05 0)
(-0.0001459299 0.0001070194 1.36107e-26)
(-0.0001327509 0.0001227147 -1.596239e-29)
(-0.0002028628 1.20227e-05 -2.002138e-26)
(-0.0002000099 3.55176e-05 0)
(-0.0001948736 5.819656e-05 0)
(-0.0001873847 8.004537e-05 -4.720789e-28)
(-0.0001775465 0.0001007484 -1.759646e-26)
(-0.0001651496 0.0001201854 0)
(-0.0001504654 0.00013793 1.40814e-26)
(-0.0002292418 1.343526e-05 -4.524187e-26)
(-0.0002260048 3.974743e-05 0)
(-0.0002202507 6.519151e-05 0)
(-0.0002118764 8.975149e-05 -1.990733e-26)
(-0.0002008926 0.0001131546 -3.775738e-26)
(-0.000186887 0.0001354015 1.767431e-26)
(-0.0001709865 0.0001547614 0)
(-0.0002588538 1.500613e-05 -2.553884e-26)
(-0.0002551905 4.445187e-05 -1.339824e-28)
(-0.000248767 7.297067e-05 -2.438234e-26)
(-0.0002394321 0.0001005229 -6.06912e-28)
(-0.0002272439 0.0001267459 -7.850671e-28)
(-0.0002120744 0.0001513903 2.006252e-26)
(-0.0001937708 0.0001741871 0)
(-0.0002920613 1.674509e-05 0)
(-0.000287931 4.966364e-05 2.816371e-26)
(-0.0002807901 8.160415e-05 -2.727256e-26)
(-0.0002704238 0.0001125255 0)
(-0.0002568855 0.00014206 2.28479e-26)
(-0.0002400824 0.0001698995 -4.094688e-27)
(-0.0002195841 0.0001959053 -2.358217e-27)
(-0.0003292461 1.865644e-05 3.246e-26)
(-0.0003246205 5.540138e-05 3.17535e-26)
(-0.0003167238 9.112529e-05 -3.072784e-26)
(-0.000305285 0.0001257817 0)
(-0.0002903412 0.000159 1.914601e-27)
(-0.0002717561 0.0001904489 3.522426e-30)
(-0.0002489457 0.0002200323 -2.646933e-27)
(-0.0003707906 2.074094e-05 3.655534e-26)
(-0.0003656895 6.165202e-05 3.573838e-26)
(-0.0003569896 0.0001015491 -3.463952e-26)
(-0.0003444546 0.0001403287 0)
(-0.0003280778 0.0001776489 0)
(-0.0003077441 0.0002133076 2.906908e-26)
(-0.000282636 0.0002476062 -3.882682e-27)
(-0.0004170907 2.295565e-05 4.117215e-26)
(-0.0004115719 6.840324e-05 4.043378e-26)
(-0.000402024 0.0001128737 0)
(-0.00038839 0.0001561622 -3.545971e-26)
(-0.000370525 0.000197927 2.38274e-27)
(-0.0003483263 0.000237676 6.294618e-26)
(-0.0003213463 0.0002747222 -9.853775e-27)
(-0.0004684231 2.544875e-05 4.616492e-26)
(-0.0004629242 7.533517e-05 0)
(-0.0004523502 0.0001249701 4.45621e-26)
(-0.0004376279 0.0001733014 -4.104568e-26)
(-0.0004183113 0.0002201604 3.983779e-26)
(-0.0003941344 0.0002652159 7.439823e-26)
(-0.0003644309 0.0003080192 3.397652e-26)
(-0.0005257437 2.770798e-05 0)
(-0.0005193869 8.302104e-05 0)
(-0.0005084468 0.0001377694 9.848841e-26)
(-0.000492732 0.0001915702 0)
(-0.0004721589 0.0002440066 8.994865e-26)
(-0.0004463793 0.000294941 4.21408e-26)
(-0.0004146377 0.000344283 -3.865859e-26)
(-0.0005887575 3.04059e-05 5.822992e-26)
(-0.0005814671 9.133986e-05 -5.632858e-26)
(-0.0005711209 0.0001503343 -5.473675e-26)
(-0.0005545092 0.0002103479 0)
(-0.0005326145 0.0002690466 5.075735e-26)
(-0.000505608 0.0003262193 0)
(-0.0004722685 0.0003817958 -3.498614e-26)
(-0.000657831 3.295174e-05 6.487455e-26)
(-0.0006507985 9.872601e-05 -6.368905e-26)
(-0.0006389428 0.0001646843 -1.852503e-25)
(-0.0006241094 0.0002286132 -1.212511e-25)
(-0.0006003986 0.0002946976 5.358364e-26)
(-0.0005725516 0.0003589937 -4.281111e-27)
(-0.0005378419 0.0004221988 5.026623e-27)
(-0.0007328277 3.54883e-05 -1.028764e-28)
(-0.0007257662 0.0001062041 -3.170356e-28)
(-0.0007148163 0.0001765977 -7.152673e-26)
(-0.0006990101 0.0002479366 -1.300954e-25)
(-0.000676219 0.0003202154 7.200937e-26)
(-0.0006481484 0.0003923513 -9.335341e-27)
(-0.000613003 0.0004641379 -2.212022e-26)
(-0.0008136733 3.7901e-05 1.092169e-28)
(-0.0008065604 0.0001135572 3.379819e-28)
(-0.0007964698 0.0001893621 -7.524929e-26)
(-0.0007803608 0.0002673677 -4.982938e-26)
(-0.0007616755 0.0003428781 3.757888e-26)
(-0.0007338606 0.0004242139 -5.912726e-26)
(-0.0006987626 0.0005057902 0)
(-0.0008999253 3.995813e-05 0)
(-0.0008929059 0.000119779 0)
(-0.000884286 0.0001997751 -8.611821e-26)
(-0.0008714575 0.0002816965 -9.066561e-26)
(-0.0008521424 0.0003674148 -1.205435e-25)
(-0.0008318471 0.0004516605 -1.172964e-25)
(-0.0007961839 0.0005450391 0)
(-0.0009907633 4.154142e-05 2.357337e-28)
(-0.0009840098 0.0001246354 -7.058553e-28)
(-0.0009771185 0.0002081636 -2.449033e-27)
(-0.0009675086 0.0002936626 0)
(-0.0009533482 0.0003823708 -1.83156e-25)
(-0.0009350519 0.0004770122 1.111239e-26)
(-0.0009063712 0.0005787921 2.721831e-26)
(-0.001084985 4.243813e-05 1.06726e-25)
(-0.001078851 0.0001275129 -7.490027e-28)
(-0.001074208 0.0002134891 1.04762e-25)
(-0.00106838 0.0003022305 0)
(-0.001059778 0.0003958733 -1.112835e-25)
(-0.001044994 0.0004981233 -3.113376e-26)
(-0.001032637 0.0006016497 1.281084e-25)
(-0.00118082 4.240945e-05 1.162472e-25)
(-0.001176065 0.0001275786 1.146244e-25)
(-0.001174112 0.0002144211 1.147794e-25)
(-0.001172946 0.0003043652 6.981732e-27)
(-0.001171429 0.0003993233 1.844146e-26)
(-0.00116682 0.000501458 -7.749889e-26)
(-0.001161207 0.0006161947 5.679436e-26)
(-0.001276255 4.164137e-05 0)
(-0.001273759 0.0001237547 -1.232083e-25)
(-0.001275274 0.0002096982 -1.247249e-25)
(-0.001279217 0.0002994335 -3.440784e-27)
(-0.001285626 0.0003950008 1.338635e-25)
(-0.001292021 0.0005001577 1.150798e-26)
(-0.001294587 0.0006205892 0)
(-0.001370138 3.904305e-05 -1.354257e-25)
(-0.001367788 0.0001182468 -2.648468e-25)
(-0.00137543 0.000197329 -1.274184e-25)
(-0.001385469 0.0002846408 -2.707632e-25)
(-0.001400624 0.0003780577 1.452768e-25)
(-0.001421648 0.0004804053 -1.273673e-25)
(-0.001445106 0.0005976002 -9.890326e-30)
(-0.001458131 3.525447e-05 -1.440398e-25)
(-0.001458283 0.0001063404 5.920763e-28)
(-0.001467739 0.0001805837 0)
(-0.00148919 0.0002570928 -2.968079e-27)
(-0.001515685 0.0003458624 -2.967687e-25)
(-0.001554237 0.000445493 -3.050347e-25)
(-0.001596451 0.0005701718 -2.105972e-29)
(-0.001536829 2.971238e-05 1.520247e-25)
(-0.00153905 8.965066e-05 -8.917686e-28)
(-0.001554976 0.0001522267 -1.608054e-27)
(-0.001582796 0.0002207051 3.214929e-25)
(-0.001632283 0.0002945509 -3.051713e-25)
(-0.001684827 0.000399011 1.665586e-25)
(-0.001731607 0.0005436854 1.118102e-26)
(-0.001601915 2.202041e-05 1.585869e-25)
(-0.001607354 6.681361e-05 0)
(-0.001631737 0.0001139054 -2.009661e-27)
(-0.001677152 0.0001667615 -3.043033e-27)
(-0.001733484 0.0002400847 4.540089e-29)
(-0.001795888 0.0003516891 3.535892e-25)
(-0.001833936 0.000527673 3.572708e-25)
(-0.001649003 1.190787e-05 0)
(-0.001660593 3.584848e-05 -2.474492e-28)
(-0.001697635 6.138846e-05 -5.910015e-28)
(-0.001760776 0.0001033105 -8.382961e-28)
(-0.001818416 0.000185811 -2.11411e-27)
(-0.001857599 0.0003205242 7.660262e-29)
(-0.001890807 0.0005053797 3.840634e-25)
(-0.001674717 -1.28274e-06 0)
(-0.001695908 -5.473732e-06 1.694161e-25)
(-0.001746931 -3.361345e-06 -4.946458e-30)
(-0.001815889 3.690809e-05 -3.7323e-25)
(-0.001863087 0.0001396141 -1.966499e-25)
(-0.001883074 0.0003011678 -2.085493e-25)
(-0.00188173 0.0005236973 -1.578161e-26)
(-0.001675278 -1.971282e-05 1.667669e-25)
(-0.001710701 -5.6813e-05 1.714934e-25)
(-0.001768583 -6.838915e-05 -1.829556e-27)
(-0.001820787 -1.974221e-05 -3.838317e-25)
(-0.001858128 0.0001038772 -6.015371e-25)
(-0.001856127 0.0003016182 -2.053348e-25)
(-0.001833792 0.0005571147 -5.962687e-30)
(-0.00164739 -4.288314e-05 1.647357e-25)
(-0.00169328 -0.0001113307 -1.712305e-25)
(-0.00174645 -0.0001257219 1.829115e-25)
(-0.001783488 -6.08062e-05 -6.52753e-30)
(-0.001798271 9.315405e-05 -4.156388e-25)
(-0.001778588 0.0003244304 8.351918e-28)
(-0.001746371 0.0006304872 -2.486402e-26)
(-0.001587854 -6.563819e-05 -6.062932e-28)
(-0.001631767 -0.0001612214 -1.507484e-27)
(-0.001672307 -0.0001732841 3.494031e-25)
(-0.001696919 -8.678688e-05 2.100072e-28)
(-0.001697653 9.62129e-05 -3.887848e-27)
(-0.001667183 0.0003669759 1.994004e-25)
(-0.001616615 0.0007214287 -1.883848e-25)
(-0.001492852 -8.196464e-05 2.85602e-30)
(-0.001521566 -0.0001986229 3.193208e-25)
(-0.001544717 -0.0002058079 -1.936063e-28)
(-0.001556437 -9.738077e-05 1.752527e-25)
(-0.001546509 0.0001167444 -3.126285e-27)
(-0.00151047 0.0004198371 1.821108e-25)
(-0.001453443 0.0007955748 -1.724856e-25)
(-0.001357532 -9.224037e-05 -6.891703e-26)
(-0.001364808 -0.0002176931 1.455949e-25)
(-0.001371159 -0.0002137617 1.549975e-25)
(-0.00136725 -8.648524e-05 1.56674e-25)
(-0.001341597 0.0001562446 1.571152e-25)
(-0.001290338 0.0004797139 -1.059104e-26)
(-0.001228119 0.0008598152 -5.982181e-26)
(-0.001176583 -8.961856e-05 -5.916141e-26)
(-0.001167242 -0.0002173612 6.989768e-26)
(-0.001159547 -0.0002072238 2.707724e-25)
(-0.001135054 -4.938683e-05 4.644046e-29)
(-0.001088955 0.0002252259 1.293658e-25)
(-0.001007941 0.0005768214 -2.712115e-29)
(-0.0009081339 0.0009720665 1.773641e-29)
(-0.0009572483 -8.485368e-05 -5.392164e-28)
(-0.0009388996 -0.0002050391 4.956302e-26)
(-0.0009206284 -0.0001705259 -2.270381e-29)
(-0.0008875329 1.620727e-05 -5.862226e-26)
(-0.0008292394 0.0003296963 7.244887e-28)
(-0.000728675 0.0007369673 -4.39329e-29)
(-0.0005898429 0.001196828 -8.708137e-26)
(-0.0007103414 -7.994536e-05 3.658965e-26)
(-0.0006916148 -0.0001895071 -1.514388e-29)
(-0.0006725869 -0.000136011 -3.818244e-26)
(-0.0006450766 8.202792e-05 -7.821855e-26)
(-0.0005934971 0.0004396546 3.73448e-26)
(-0.0005033092 0.000910744 -3.166029e-26)
(-0.0003600543 0.001463752 2.454741e-26)
(-0.0004447664 -7.644373e-05 2.294307e-26)
(-0.0004329689 -0.0001761607 2.396433e-27)
(-0.0004215826 -0.0001093832 -1.658355e-26)
(-0.0004055447 0.0001316183 -2.1127e-26)
(-0.0003744492 0.000523411 2.187783e-26)
(-0.0003175962 0.001041832 -2.695921e-26)
(-0.0002224083 0.001667388 2.078224e-26)
(-0.0001595007 -7.623254e-05 1.122193e-27)
(-0.0001607082 -0.0001702512 2.10733e-27)
(-0.0001613908 -9.768057e-05 4.698271e-27)
(-0.0001605977 0.0001536437 1.449817e-30)
(-0.0001566744 0.0005618247 1.435982e-26)
(-0.0001468546 0.001102011 4.131826e-26)
(-0.0001287741 0.001763034 2.599344e-27)
(0.0001400949 -7.648441e-05 -1.195398e-28)
(0.0001228569 -0.0001717828 4.295034e-27)
(0.0001092044 -0.0001012102 -4.703839e-27)
(9.479564e-05 0.0001464492 -2.04096e-27)
(7.19893e-05 0.0005486952 1.179817e-29)
(3.291841e-05 0.00107995 5.14084e-27)
(-2.887743e-05 0.001728572 2.279578e-27)
(0.000429076 -7.679505e-05 2.272412e-26)
(0.0004014645 -0.000179641 1.406831e-26)
(0.0003783396 -0.0001179901 -2.138098e-26)
(0.0003515967 0.000114829 -4.085901e-31)
(0.0003069162 0.0004949753 4.463668e-27)
(0.0002309294 0.0009963191 3.612732e-26)
(0.0001102676 0.00159221 2.774877e-26)
(0.0006995489 -7.984984e-05 3.656693e-26)
(0.000668773 -0.0001922819 1.535124e-29)
(0.0006414543 -0.0001444552 -3.855059e-26)
(0.0006070833 6.548873e-05 -1.986957e-30)
(0.0005481434 0.0004127714 3.665063e-26)
(0.000449676 0.0008686683 -1.873742e-26)
(0.0003030467 0.001393654 5.422688e-26)
(0.0009508984 -8.38829e-05 -2.601644e-32)
(0.0009242961 -0.0002047694 1.80332e-29)
(0.0009006027 -0.0001742173 -1.851417e-29)
(0.0008634535 7.564131e-06 3.797146e-29)
(0.0008018729 0.0003162792 5.013368e-26)
(0.0006999818 0.0007169458 -4.828692e-26)
(0.0005712594 0.001166981 1.303216e-25)
(0.001173224 -8.733887e-05 9.478098e-28)
(0.001158894 -0.0002123625 6.535436e-26)
(0.00114752 -0.0002029931 2.672693e-25)
(0.00112022 -4.577717e-05 -1.686693e-25)
(0.001070893 0.0002301165 -7.580103e-27)
(0.0009881139 0.0005846523 -5.271082e-26)
(0.0008962369 0.0009874581 -1.354004e-25)
(0.001355167 -8.846817e-05 1.273185e-30)
(0.001359479 -0.0002076576 -7.315686e-26)
(0.001363211 -0.0002015501 1.553175e-25)
(0.001355349 -7.313746e-05 -1.503317e-25)
(0.001324252 0.0001718687 1.832032e-27)
(0.001267124 0.0004996822 -2.311742e-33)
(0.001200284 0.0008879659 -1.197029e-25)
(0.001490411 -7.762167e-05 2.521083e-29)
(0.001516719 -0.0001864669 -3.147667e-25)
(0.001536103 -0.0001891544 4.209348e-27)
(0.001542785 -7.844496e-05 -7.697631e-30)
(0.001526599 0.0001376319 2.359786e-27)
(0.001483384 0.000443407 -5.405539e-27)
(0.001418763 0.0008232424 -2.021221e-25)
(0.001585601 -6.160995e-05 5.567488e-28)
(0.001626828 -0.0001496398 -1.52561e-27)
(0.001662964 -0.0001556453 1.740508e-25)
(0.001682372 -6.546662e-05 8.54575e-30)
(0.001677063 0.0001196072 8.791217e-29)
(0.001639677 0.0003926304 -1.914554e-25)
(0.001581883 0.0007503418 4.148964e-28)
(0.001646377 -4.000004e-05 1.641887e-25)
(0.001689396 -0.0001024737 1.715813e-25)
(0.001737651 -0.0001103047 -3.955879e-30)
(0.001769257 -3.987318e-05 -1.000044e-26)
(0.0017783 0.0001176234 3.886522e-25)
(0.001752355 0.0003506738 -1.992775e-25)
(0.001712938 0.0006587572 -2.175258e-25)
(0.001676074 -1.829477e-05 1.664336e-25)
(0.00170902 -5.16457e-05 -1.710863e-25)
(0.001762205 -5.765668e-05 -1.842219e-27)
(0.001808773 -2.952678e-06 -3.818247e-25)
(0.001840126 0.0001248835 1.978531e-25)
(0.001831982 0.0003258296 -7.120102e-27)
(0.001802242 0.0005864589 -2.013169e-25)
(0.001677307 -1.016362e-06 0)
(0.001697003 -3.672344e-06 -1.694213e-25)
(0.001744751 1.734334e-06 1.199774e-30)
(0.001808435 4.688167e-05 -1.837688e-25)
(0.001850245 0.0001550602 -3.955943e-28)
(0.001865525 0.0003201538 -2.036187e-25)
(0.001858137 0.0005464292 3.947402e-25)
(0.001652933 1.171854e-05 0)
(0.001664295 3.564339e-05 2.620101e-28)
(0.001700068 6.24863e-05 6.921092e-28)
(0.00176032 0.0001076425 9.757485e-28)
(0.001814092 0.0001950666 3.73309e-25)
(0.001849946 0.0003351799 -2.035993e-25)
(0.001876952 0.0005273167 3.749113e-25)
(0.001606524 2.195857e-05 1.590222e-25)
(0.001612477 6.661615e-05 0)
(0.001637419 0.0001140379 0)
(0.001682775 0.0001685754 -1.676242e-25)
(0.001738101 0.0002458936 5.185739e-25)
(0.001795171 0.0003643279 1.284491e-26)
(0.001831156 0.0005458395 2.042711e-26)
(0.001541223 3.000801e-05 1.524215e-25)
(0.001544352 9.040233e-05 9.035216e-28)
(0.001561754 0.0001533958 1.626437e-27)
(0.001591435 0.0002230305 1.367268e-26)
(0.001640152 0.0003007085 3.406331e-25)
(0.001691591 0.0004099546 -1.674908e-25)
(0.001737193 0.000564545 6.273527e-30)
(0.001461564 3.582401e-05 0)
(0.001462756 0.0001079813 -1.44362e-25)
(0.001473949 0.0001831914 0)
(0.001496273 0.0002617609 5.497575e-27)
(0.001524418 0.0003532902 7.639386e-27)
(0.001562122 0.0004588709 -1.526755e-25)
(0.001604943 0.0005906601 1.565487e-25)
(0.001372102 3.975213e-05 0)
(0.001370926 0.000120298 1.342998e-25)
(0.001379092 0.0002013881 -1.352586e-25)
(0.001390339 0.0002906277 0)
(0.001405846 0.0003880204 1.646672e-26)
(0.001427912 0.0004945271 -9.494111e-26)
(0.001448548 0.0006215338 1.40056e-25)
(0.001276558 4.231861e-05 0)
(0.001274645 0.0001262267 3.75162e-25)
(0.001276691 0.0002138937 1.470859e-28)
(0.001280638 0.0003065651 2.619425e-25)
(0.001287426 0.0004045062 1.792901e-26)
(0.001291859 0.0005153716 -1.243798e-25)
(0.001290477 0.0006428342 9.883225e-26)
(0.001179115 4.307858e-05 -1.163095e-25)
(0.001175054 0.0001296368 1.167103e-25)
(0.001173212 0.0002180959 -2.528305e-29)
(0.001171932 0.0003104726 2.230785e-25)
(0.001168596 0.0004086955 0)
(0.001161506 0.0005144963 0)
(0.001151473 0.0006330143 1.812722e-25)
(0.001081535 4.297388e-05 -1.063913e-25)
(0.00107598 0.000129322 1.062617e-25)
(0.001070979 0.0002171038 -1.043725e-25)
(0.001064988 0.0003069891 -1.031734e-25)
(0.001053894 0.0004033889 0)
(0.001036319 0.0005077474 0)
(0.001019903 0.0006128517 1.172336e-25)
(0.0009858408 4.197694e-05 9.721934e-26)
(0.0009793795 0.0001262741 9.87228e-26)
(0.0009723942 0.0002105693 2.403451e-27)
(0.0009614459 0.0002980783 -8.945684e-26)
(0.0009446239 0.0003896391 -2.485134e-26)
(0.0009244739 0.0004828124 1.409618e-25)
(0.0008929603 0.0005853591 -6.956166e-26)
(0.0008939268 4.018811e-05 8.835464e-26)
(0.0008872835 0.0001206715 7.134264e-28)
(0.0008781101 0.0002015384 -2.353197e-27)
(0.0008641802 0.0002840746 -3.349248e-27)
(0.0008442952 0.0003697936 0)
(0.0008192232 0.0004563834 8.575529e-26)
(0.0007831308 0.0005481044 -7.328253e-26)
(0.0008069186 3.812364e-05 0)
(0.0008002215 0.0001139529 1.329199e-27)
(0.0007895835 0.00019039 2.253862e-27)
(0.0007727593 0.0002688019 -1.692328e-25)
(0.0007533221 0.0003446571 -2.978103e-26)
(0.0007230545 0.000425846 -1.260555e-25)
(0.0006868634 0.0005062934 -5.195874e-26)
(0.0007257842 3.55327e-05 2.050673e-28)
(0.0007188691 0.0001064058 6.339449e-28)
(0.0007076048 0.0001770114 0)
(0.0006912714 0.000248419 1.777945e-28)
(0.0006677418 0.000320604 -6.348088e-26)
(0.0006384913 0.0003922699 -6.007022e-26)
(0.0006023668 0.0004631135 1.101665e-26)
(0.0006507024 3.292536e-05 -6.405682e-26)
(0.0006437456 9.865374e-05 6.439259e-26)
(0.0006317099 0.0001645878 -1.128105e-25)
(0.0006165076 0.0002283846 1.29657e-25)
(0.0005922956 0.000294179 -5.271278e-26)
(0.0005637913 0.0003579349 0)
(0.0005284744 0.0004202884 -1.001966e-26)
(0.0005817155 3.03096e-05 -5.75185e-26)
(0.0005744881 9.106469e-05 5.560997e-26)
(0.0005640493 0.0001498752 -5.399697e-26)
(0.0005472353 0.0002096328 0)
(0.0005250446 0.0002679598 4.994741e-26)
(0.0004976891 0.0003245921 0)
(0.0004640501 0.0003794276 -4.323489e-26)
(0.0005189162 2.756684e-05 0)
(0.0005126278 8.260473e-05 0)
(0.0005016731 0.0001370757 9.707925e-26)
(0.00048587 0.0001905577 0)
(0.0004651606 0.0002425985 8.846943e-26)
(0.0004392365 0.0002930272 4.138555e-26)
(0.0004074088 0.0003417367 -3.789771e-26)
(0.0004618975 2.52784e-05 4.550992e-26)
(0.0004564744 7.483677e-05 0)
(0.0004459372 0.0001241476 4.240794e-26)
(0.0004312099 0.000172136 -4.245511e-26)
(0.0004118688 0.0002186069 3.916394e-26)
(0.0003876807 0.0002632116 7.304674e-26)
(0.0003580236 0.000305496 3.330796e-26)
(0.0004109125 2.277359e-05 4.041871e-26)
(0.0004054791 6.786724e-05 3.940602e-26)
(0.0003959972 0.0001119991 0)
(0.0003824127 0.0001549453 -3.857905e-26)
(0.0003645955 0.0001963473 -2.362347e-27)
(0.0003424649 0.000235704 6.740875e-26)
(0.0003156039 0.0002723294 9.783071e-27)
(0.0003649796 2.055755e-05 3.597393e-26)
(0.0003599643 6.111352e-05 3.516002e-26)
(0.0003513473 0.0001006759 -3.406423e-26)
(0.0003388939 0.0001391277 0)
(0.0003226073 0.0001761166 0)
(0.0003023874 0.0002114322 2.851708e-26)
(0.000277444 0.0002453652 -4.798182e-26)
(0.0003238001 1.847951e-05 3.191583e-26)
(0.0003192561 5.488223e-05 3.121299e-26)
(0.0003114485 9.028718e-05 -3.019259e-26)
(0.0003001067 0.0001246393 0)
(0.0002852731 0.0001575616 -1.896359e-27)
(0.0002668231 0.0001887201 -3.454627e-30)
(0.0002441905 0.0002180146 2.621562e-27)
(0.0002869647 1.657896e-05 0)
(0.0002829081 4.91765e-05 2.765898e-26)
(0.0002758549 8.082003e-05 -2.677347e-26)
(0.0002655884 0.0001114638 0)
(0.0002521643 0.0001407373 2.577517e-26)
(0.0002354973 0.0001683324 4.055134e-27)
(0.0002151703 0.0001941132 2.335684e-27)
(0.0002540831 1.485286e-05 -2.506286e-26)
(0.000250484 4.400248e-05 1.325615e-28)
(0.0002441414 7.224847e-05 -2.34763e-26)
(0.0002349007 9.954941e-05 6.007524e-28)
(0.0002228195 0.0001255422 7.394629e-28)
(0.0002077732 0.0001499802 1.962671e-26)
(0.0001896113 0.0001726076 0)
(0.0002247698 1.329522e-05 -4.43502e-26)
(0.0002215873 3.933671e-05 0)
(0.0002159048 6.45317e-05 0)
(0.0002076143 8.886329e-05 -2.055671e-26)
(0.0001967258 0.0001120583 -3.827772e-26)
(0.0001828287 0.000134115 1.726506e-26)
(0.0001670342 0.0001533153 0)
(0.0001986623 1.189534e-05 -1.960288e-26)
(0.0001958542 3.514376e-05 1.0612e-28)
(0.0001907793 5.759569e-05 1.74751e-28)
(0.0001833629 7.923671e-05 4.911685e-28)
(0.0001736069 9.975136e-05 -1.598708e-26)
(0.0001613012 0.0001190175 0)
(0.0001467139 0.0001366096 1.370514e-26)
(0.0001754243 1.064209e-05 1.610644e-29)
(0.0001729525 3.139046e-05 1.708584e-26)
(0.0001684367 5.139036e-05 1.653938e-26)
(0.0001618321 7.064249e-05 3.124145e-26)
(0.000153152 8.886137e-05 0)
(0.0001422698 0.0001059535 1.324658e-26)
(0.0001291762 0.0001215074 -1.578156e-29)
(0.000154747 9.523822e-06 1.526585e-26)
(0.0001525759 2.804304e-05 2.994263e-26)
(0.0001485721 4.585771e-05 2.904887e-26)
(0.0001427105 6.298211e-05 1.416071e-26)
(0.0001349716 7.917829e-05 4.795377e-28)
(0.0001253566 9.429953e-05 1.166878e-26)
(0.0001137555 0.0001080395 -1.128831e-26)
(0.0001363483 8.5301e-06 1.346477e-26)
(0.0001344438 2.506917e-05 2.635638e-26)
(0.0001308999 4.09545e-05 1.273819e-26)
(0.0001256824 5.624737e-05 0)
(0.0001186066 7.084863e-05 3.259251e-27)
(0.0001103372 8.390357e-05 4.906977e-27)
(0.000100116 9.609821e-05 1.155648e-27)
(0.0001199733 7.64736e-06 1.186407e-26)
(0.0001183047 2.242663e-05 1.156438e-26)
(0.0001151735 3.658624e-05 -3.339444e-28)
(0.0001105547 5.017558e-05 -3.052646e-28)
(0.0001043738 6.305002e-05 0)
(9.67792e-05 7.494016e-05 9.17132e-27)
(8.80173e-05 8.555876e-05 -5.156759e-28)
(0.0001053935 6.866342e-06 1.042342e-26)
(0.0001039352 2.008836e-05 1.016508e-26)
(0.0001011803 3.272496e-05 -1.995606e-28)
(9.711849e-05 4.484054e-05 -1.366087e-28)
(9.170647e-05 5.631044e-05 0)
(8.494819e-05 6.687481e-05 7.641662e-27)
(7.730131e-05 7.623326e-05 -9.194208e-28)
(9.240251e-05 6.177147e-06 -9.480887e-30)
(9.113154e-05 1.802563e-05 1.785312e-26)
(8.871592e-05 2.931923e-05 -8.948839e-29)
(8.515231e-05 4.013792e-05 -1.225138e-28)
(8.041275e-05 5.035925e-05 0)
(7.447822e-05 5.974029e-05 0)
(6.77856e-05 6.801945e-05 0)
(8.081489e-05 5.571377e-06 0)
(7.971139e-05 1.62116e-05 7.820251e-27)
(7.760262e-05 2.63221e-05 0)
(7.447262e-05 3.600711e-05 -6.980426e-27)
(7.034874e-05 4.511895e-05 2.744471e-28)
(6.516572e-05 5.346644e-05 3.246325e-28)
(5.932165e-05 6.08062e-05 -5.208816e-27)
(7.046339e-05 5.041525e-06 6.966792e-27)
(6.950786e-05 1.462772e-05 0)
(6.766449e-05 2.372234e-05 -1.452609e-28)
(6.484168e-05 3.249349e-05 -4.937685e-27)
(6.137383e-05 4.050479e-05 7.788047e-27)
(5.686266e-05 4.79645e-05 0)
(5.177571e-05 5.448833e-05 -4.860297e-27)
(6.120055e-05 4.577766e-06 6.050977e-27)
(6.037675e-05 1.323772e-05 0)
(5.878074e-05 2.1415e-05 -6.605915e-29)
(5.637862e-05 2.926465e-05 -9.017986e-29)
(5.32413e-05 3.657275e-05 1.017725e-26)
(4.943617e-05 4.31662e-05 -4.687568e-27)
(4.503114e-05 4.896634e-05 4.227436e-27)
(5.289733e-05 4.174565e-06 0)
(5.219377e-05 1.202949e-05 5.083918e-27)
(5.082775e-05 1.941669e-05 -6.033634e-29)
(4.877819e-05 2.650139e-05 -4.674526e-27)
(4.604789e-05 3.307585e-05 4.395442e-27)
(4.279446e-05 3.89671e-05 -4.048675e-27)
(3.898984e-05 4.414033e-05 -3.618891e-30)
(4.543812e-05 3.826183e-06 0)
(4.484438e-05 1.098472e-05 4.397033e-27)
(4.368896e-05 1.768704e-05 -4.249974e-27)
(4.195007e-05 2.410009e-05 -4.085849e-27)
(3.961813e-05 3.002542e-05 3.684103e-27)
(3.683964e-05 3.530889e-05 -2.177609e-28)
(3.357136e-05 3.992621e-05 -3.135119e-27)
(3.871972e-05 3.52775e-06 0)
(3.822842e-05 1.008847e-05 0)
(3.726823e-05 1.619894e-05 -3.618698e-27)
(3.581332e-05 2.202608e-05 3.417656e-27)
(3.384908e-05 2.738309e-05 -2.422748e-30)
(3.149617e-05 3.213188e-05 0)
(2.870972e-05 3.625371e-05 0)
(3.264896e-05 3.275959e-06 3.227795e-27)
(3.225688e-05 9.329304e-06 -3.157623e-27)
(3.14826e-05 1.493138e-05 -1.478098e-27)
(3.029282e-05 2.024916e-05 2.94197e-27)
(2.866704e-05 2.510769e-05 2.154746e-30)
(2.669974e-05 2.938423e-05 -1.844395e-28)
(2.434809e-05 3.306457e-05 -4.914697e-32)
(2.713726e-05 3.070007e-06 -3.696404e-31)
(2.684867e-05 8.702275e-06 -2.622351e-27)
(2.625887e-05 1.387101e-05 -1.222741e-27)
(2.532366e-05 1.874545e-05 6.047756e-29)
(2.401117e-05 2.316456e-05 4.58976e-27)
(2.239469e-05 2.702231e-05 8.588881e-29)
(2.043586e-05 3.030947e-05 0)
(2.209227e-05 2.91347e-06 -2.180959e-27)
(2.192605e-05 8.210973e-06 1.067599e-27)
(2.152888e-05 1.301492e-05 1.033549e-27)
(2.085228e-05 1.749733e-05 0)
(1.983036e-05 2.152476e-05 1.846356e-27)
(1.853259e-05 2.500843e-05 8.067344e-29)