/*--------------------------------*- C++ -*----------------------------------*\
| =========                 |                                                 |
| \\      /  F ield         | OpenFOAM: The Open Source CFD Toolbox           |
|  \\    /   O peration     | Version:  2206                                  |
|   \\  /    A nd           | Website:  www.openfoam.com                      |
|    \\/     M anipulation  |                                                 |
\*---------------------------------------------------------------------------*/
FoamFile
{
    version     2.0;
    format      ascii;
    arch        "LSB;label=32;scalar=64";
    class       volVectorField;
    location    "1.2";
    object      U.b_0;
}
// * * * * * * * * * * * * * * * * * * * * * * * * * * * * * * * * * * * * * //

dimensions      [0 1 -1 0 0 0 0];

internalField   nonuniform List<vector> 
13078
(
(-2.665018e-06 5.598472e-06 -5.150181e-28)
(-2.776434e-06 1.472723e-05 2.210444e-30)
(-2.493765e-06 1.532789e-05 1.24331e-27)
(-2.456897e-06 1.612232e-05 0)
(-2.405691e-06 1.66311e-05 5.303296e-28)
(-2.329958e-06 1.818592e-05 5.487216e-28)
(-2.230869e-06 1.981171e-05 5.720088e-28)
(1.468656e-06 2.109647e-06 0)
(-1.88506e-06 1.117211e-05 -2.633886e-30)
(-3.427445e-06 1.448139e-05 0)
(-4.821783e-06 1.553182e-05 0)
(-4.94655e-06 1.676991e-05 3.479906e-30)
(-4.716083e-06 1.844846e-05 1.723459e-30)
(-4.385631e-06 2.010082e-05 3.246815e-30)
(2.32525e-06 3.941487e-06 3.050577e-28)
(-2.637513e-06 9.985065e-06 -6.10551e-29)
(-5.773077e-06 1.294512e-05 -4.396402e-28)
(-7.113508e-06 1.514108e-05 -9.601553e-28)
(-7.308789e-06 1.706477e-05 -5.211683e-28)
(-7.01402e-06 1.898149e-05 0)
(-6.517772e-06 2.072473e-05 3.346585e-33)
(-3.739831e-06 3.401591e-06 -1.182996e-28)
(-6.764742e-06 8.737845e-06 4.674239e-28)
(-8.738402e-06 1.22469e-05 6.412891e-28)
(-9.591242e-06 1.500505e-05 3.651766e-28)
(-9.688008e-06 1.75111e-05 -1.392045e-29)
(-9.31174e-06 1.971983e-05 0)
(-8.674159e-06 2.161879e-05 -6.363388e-30)
(-9.714647e-06 3.094474e-06 2.826375e-30)
(-1.10761e-05 8.186563e-06 5.143371e-28)
(-1.206006e-05 1.204011e-05 1.072171e-27)
(-1.241882e-05 1.531405e-05 1.145743e-27)
(-1.22285e-05 1.810418e-05 3.660756e-29)
(-1.172806e-05 2.065036e-05 2.956135e-32)
(-1.093398e-05 2.27637e-05 -6.002343e-28)
(-1.463469e-05 2.934125e-06 0)
(-1.521648e-05 7.984472e-06 -1.380632e-29)
(-1.558767e-05 1.215487e-05 2.115388e-29)
(-1.556876e-05 1.583853e-05 7.09761e-28)
(-1.513279e-05 1.904018e-05 -6.643687e-29)
(-1.435148e-05 2.176464e-05 5.866372e-28)
(-1.337773e-05 2.415346e-05 1.299654e-27)
(-1.927734e-05 2.900516e-06 0)
(-1.944119e-05 8.051517e-06 9.346797e-28)
(-1.93869e-05 1.254721e-05 1.250696e-27)
(-1.910353e-05 1.657909e-05 4.433226e-28)
(-1.838172e-05 2.017695e-05 7.773447e-28)
(-1.737402e-05 2.32507e-05 -7.736765e-29)
(-1.605684e-05 2.579559e-05 0)
(-2.40118e-05 2.966106e-06 -2.360327e-27)
(-2.393322e-05 8.330005e-06 1.160438e-27)
(-2.362463e-05 1.313783e-05 1.129807e-27)
(-2.301315e-05 1.758888e-05 0)
(-2.202947e-05 2.156884e-05 2.047451e-27)
(-2.074976e-05 2.499574e-05 -8.1524e-29)
(-1.914872e-05 2.786681e-05 -8.963402e-29)
(-2.905393e-05 3.108359e-06 -3.816009e-31)
(-2.881354e-05 8.796802e-06 -2.804593e-27)
(-2.828175e-05 1.398408e-05 -1.406394e-27)
(-2.739941e-05 1.884834e-05 -6.141367e-29)
(-2.612629e-05 2.32375e-05 4.825399e-27)
(-2.453553e-05 2.704994e-05 -8.676006e-29)
(-2.259055e-05 3.02776e-05 0)
(-3.455049e-05 3.308903e-06 3.404436e-27)
(-3.418577e-05 9.41537e-06 -3.33647e-27)
(-3.345148e-05 1.504491e-05 -1.616444e-27)
(-3.230538e-05 2.036614e-05 3.061099e-27)
(-3.071729e-05 2.520759e-05 2.185615e-30)
(-2.877742e-05 2.944937e-05 0)
(-2.644208e-05 3.307786e-05 0)
(-4.061098e-05 3.55964e-06 0)
(-4.013444e-05 1.017432e-05 0)
(-3.920223e-05 1.631851e-05 -3.797075e-27)
(-3.778332e-05 2.21586e-05 3.597518e-27)
(-3.585253e-05 2.750921e-05 -2.454652e-30)
(-3.352466e-05 3.223362e-05 0)
(-3.075256e-05 3.631282e-05 0)
(-4.733101e-05 3.858887e-06 0)
(-4.674255e-05 1.107408e-05 4.57322e-27)
(-4.560588e-05 1.781524e-05 -4.427281e-27)
(-4.389569e-05 2.424896e-05 -4.112658e-27)
(-4.159127e-05 3.017762e-05 4.050935e-27)
(-3.883341e-05 3.544729e-05 0)
(-3.557488e-05 4.003341e-05 -3.560022e-27)
(-5.480534e-05 4.208854e-06 0)
(-5.409877e-05 1.212395e-05 5.336341e-27)
(-5.274333e-05 1.95549e-05 6.103862e-29)
(-5.071517e-05 2.666726e-05 -4.852665e-27)
(-4.800628e-05 3.325411e-05 4.574017e-27)
(-4.476821e-05 3.914257e-05 -4.22675e-27)
(-4.096837e-05 4.429804e-05 -3.65053e-30)
(-6.313666e-05 4.613995e-06 6.230997e-27)
(-6.230196e-05 1.333833e-05 0)
(-6.070855e-05 2.156445e-05 6.677701e-29)
(-5.832087e-05 2.944809e-05 9.109442e-29)
(-5.519944e-05 3.677701e-05 1.05363e-26)
(-5.140448e-05 4.337869e-05 -4.865756e-27)
(-4.700078e-05 4.917509e-05 4.403295e-27)
(-7.243972e-05 5.080079e-06 7.15168e-27)
(-7.14652e-05 1.473559e-05 0)
(-6.961684e-05 2.388452e-05 1.467595e-28)
(-6.68012e-05 3.269612e-05 -7.785599e-27)
(-6.334469e-05 4.07354e-05 4.121104e-27)
(-5.883877e-05 4.821292e-05 0)
(-5.375178e-05 5.474491e-05 -5.037096e-27)
(-8.284286e-05 5.612884e-06 0)
(-8.171195e-05 1.632797e-05 8.011352e-27)
(-7.959066e-05 2.649796e-05 0)
(-7.646117e-05 3.622873e-05 -7.609644e-27)
(-7.23428e-05 4.537566e-05 -2.769e-28)
(-6.716064e-05 5.37486e-05 -3.273792e-28)
(-6.131546e-05 6.110433e-05 -6.125594e-27)
(-9.449334e-05 6.222419e-06 0)
(-9.318615e-05 1.815243e-05 1.827849e-26)
(-9.075001e-05 2.951134e-05 9.037338e-29)
(-8.717993e-05 4.038177e-05 1.236659e-28)
(-8.244016e-05 5.064438e-05 0)
(-7.650066e-05 6.005648e-05 0)
(-6.980311e-05 6.835493e-05 0)
(-0.0001075588 6.916231e-06 1.061174e-26)
(-0.0001060549 2.022781e-05 1.04347e-26)
(-0.0001032711 3.293652e-05 2.015319e-28)
(-9.919534e-05 4.511033e-05 1.378941e-28)
(-9.377653e-05 5.662774e-05 0)
(-8.700574e-05 6.722856e-05 8.64761e-27)
(-7.934574e-05 7.660872e-05 9.26837e-28)
(-0.0001222256 7.7027e-06 1.206205e-26)
(-0.0001205015 2.258123e-05 1.185249e-26)
(-0.0001173324 3.682117e-05 3.372695e-28)
(-0.0001126915 5.047622e-05 3.081685e-28)
(-0.0001064963 6.340515e-05 0)
(-9.888137e-05 7.533859e-05 9.371087e-27)
(-9.009382e-05 8.598418e-05 5.199375e-28)
(-0.0001387015 8.591807e-06 1.37004e-26)
(-0.0001367304 2.524151e-05 2.682397e-26)
(-0.0001331394 4.12169e-05 1.296802e-26)
(-0.0001278917 5.658508e-05 0)
(-0.0001207927 7.125079e-05 -3.287986e-27)
(-0.0001124968 8.4356e-05 -4.949341e-27)
(-0.0001022349 9.658723e-05 -1.16553e-27)
(-0.0001572161 9.592863e-06 1.554734e-26)
(-0.0001549664 2.823573e-05 3.03579e-26)
(-0.0001509058 4.615112e-05 2.925928e-26)
(-0.0001450061 6.336031e-05 1.363264e-26)
(-0.0001372361 7.962951e-05 -4.841222e-28)
(-0.0001275868 9.481364e-05 1.188718e-26)
(-0.0001159331 0.0001086032 -1.018779e-26)
(-0.0001780259 1.071938e-05 0)
(-0.0001754621 3.160599e-05 1.711654e-26)
(-0.000170879 5.171867e-05 1.648923e-26)
(-0.0001642284 7.106664e-05 3.175334e-26)
(-0.0001555091 8.936974e-05 0)
(-0.0001445868 0.0001065366 1.347888e-26)
(-0.0001314322 0.0001221536 -1.593543e-29)
(-0.0002014138 1.198156e-05 -1.989763e-26)
(-0.0001984993 3.538408e-05 0)
(-0.0001933466 5.796201e-05 0)
(-0.0001858764 7.971139e-05 -4.719274e-28)
(-0.0001760732 0.0001003225 -1.746485e-26)
(-0.0001637211 0.0001196751 0)
(-0.0001490674 0.0001373413 1.393995e-26)
(-0.0002276888 1.339058e-05 -4.499199e-26)
(-0.0002243846 3.96024e-05 0)
(-0.0002186146 6.493744e-05 0)
(-0.0002102644 8.939159e-05 -1.977789e-26)
(-0.0001993226 0.0001126992 -3.749128e-26)
(-0.0001853695 0.0001348592 1.753696e-26)
(-0.0001695081 0.0001541423 0)
(-0.0002571859 1.495675e-05 -2.541339e-26)
(-0.00025345 4.429189e-05 -1.340819e-28)
(-0.0002470124 7.269167e-05 -2.425539e-26)
(-0.0002377091 0.0001001299 -6.071823e-28)
(-0.0002255724 0.0001262524 -7.854035e-28)
(-0.0002104616 0.0001508083 1.992403e-26)
(-0.000192215 0.0001735271 0)
(-0.000290264 1.668934e-05 0)
(-0.0002860564 4.948398e-05 2.803873e-26)
(-0.0002789052 8.129306e-05 -2.714618e-26)
(-0.0002685809 0.0001120908 0)
(-0.0002551069 0.0001415186 2.271377e-26)
(-0.0002383741 0.0001692677 -4.098161e-27)
(-0.0002179535 0.0001951972 -2.360274e-27)
(-0.0003273005 1.859194e-05 3.233524e-26)
(-0.0003225943 5.51952e-05 3.162968e-26)
(-0.0003146941 9.077206e-05 -3.060316e-26)
(-0.0003033124 0.0001252938 0)
(-0.0002884507 0.0001583999 1.916646e-27)
(-0.000269953 0.0001897582 3.504707e-30)
(-0.0002472442 0.000219268 -2.650178e-27)
(-0.0003686709 2.066418e-05 3.643124e-26)
(-0.0003634884 6.140946e-05 3.561622e-26)
(-0.0003547968 0.0001011389 -3.451754e-26)
(-0.0003423414 0.0001397701 0)
(-0.0003260742 0.0001769736 0)
(-0.0003058552 0.0002125467 2.893822e-26)
(-0.0002808746 0.0002467803 -3.701015e-27)
(-0.0004147609 2.286145e-05 4.104821e-26)
(-0.0004091643 6.81095e-05 4.031354e-26)
(-0.0003996437 0.0001123841 0)
(-0.0003861224 0.0001555054 -3.534041e-26)
(-0.0003684087 0.0001971468 2.385955e-27)
(-0.0003463694 0.0002368175 6.269896e-26)
(-0.0003195561 0.0002738225 -9.871852e-27)
(-0.0004658365 2.533095e-05 4.603959e-26)
(-0.0004602654 7.497363e-05 0)
(-0.0004497478 0.0001243704 4.444792e-26)
(-0.0004351851 0.0001725058 -4.093471e-26)
(-0.000416079 0.0002192286 3.973097e-26)
(-0.0003921276 0.0002642087 7.418499e-26)
(-0.0003626554 0.0003069865 3.386611e-26)
(-0.0005228333 2.755872e-05 0)
(-0.0005164148 8.255972e-05 0)
(-0.0005055727 0.0001370138 9.826518e-26)
(-0.0004900814 0.0001905783 0)
(-0.0004697979 0.0002428562 8.976301e-26)
(-0.0004443359 0.000293715 4.205441e-26)
(-0.0004129202 0.0003430604 -3.857399e-26)
(-0.0005854389 3.021608e-05 5.809208e-26)
(-0.0005780975 9.075176e-05 -5.620248e-26)
(-0.000567899 0.0001493794 -5.462604e-26)
(-0.0005515981 0.0002090891 0)
(-0.0005300949 0.0002675876 5.068047e-26)
(-0.0005035295 0.0003246699 0)
(-0.0004706527 0.0003802699 -3.492105e-26)
(-0.0006539946 3.270631e-05 6.472188e-26)
(-0.0006469188 9.79777e-05 -6.355111e-26)
(-0.0006352674 0.0001634517 -1.849009e-25)
(-0.000620851 0.0002270039 -1.210733e-25)
(-0.0005976634 0.0002928164 5.352359e-26)
(-0.0005704179 0.0003569854 -4.283125e-27)
(-0.0005363576 0.0004202202 5.032762e-27)
(-0.0007283333 3.517393e-05 -1.025912e-28)
(-0.0007212445 0.0001052522 -3.161626e-28)
(-0.0007105421 0.0001750362 -7.139024e-26)
(-0.0006952782 0.0002458526 -1.299231e-25)
(-0.000673178 0.0003177606 7.195142e-26)
(-0.0006459064 0.0003897049 -9.330595e-27)
(-0.0006116555 0.0004615009 -2.212918e-26)
(-0.0008083562 3.750634e-05 1.087489e-28)
(-0.0008012366 0.0001123665 3.365675e-28)
(-0.0007914421 0.0001874117 -7.510188e-26)
(-0.0007759702 0.0002647174 -4.981853e-26)
(-0.000758161 0.0003397238 3.746821e-26)
(-0.0007313957 0.0004207198 -5.917199e-26)
(-0.0006974964 0.0005022113 0)
(-0.0008936036 3.947515e-05 0)
(-0.0008865963 0.000118322 0)
(-0.0008783143 0.0001973788 -8.592265e-26)
(-0.0008661706 0.0002784181 -9.049276e-26)
(-0.0008478804 0.0003633383 -1.202874e-25)
(-0.000828926 0.0004470725 -1.17179e-25)
(-0.0007948309 0.0005401487 0)
(-0.0009832535 4.097053e-05 2.338949e-28)
(-0.0009765213 0.000122909 -7.003647e-28)
(-0.0009699853 0.0002053 -2.430899e-27)
(-0.0009610876 0.0002896938 0)
(-0.0009479998 0.000377333 -1.829488e-25)
(-0.0009312986 0.0004710269 1.104517e-26)
(-0.0009046031 0.000572126 2.708045e-26)
(-0.001076125 4.179072e-05 1.06323e-25)
(-0.001070004 0.0001255457 -7.42036e-28)
(-0.001065692 0.0002101901 1.044354e-25)
(-0.001060546 0.0002975741 0)
(-0.001052983 0.0003898053 -1.11027e-25)
(-0.001039849 0.0004905214 -3.179247e-26)
(-0.001029816 0.0005928143 1.26956e-25)
(-0.001170497 4.170888e-05 1.157572e-25)
(-0.001165715 0.0001254362 1.141753e-25)
(-0.001164017 0.0002107752 1.143618e-25)
(-0.001163409 0.000299115 6.90515e-27)
(-0.001162755 0.0003922919 1.823852e-26)
(-0.001159534 0.00049234 -7.77443e-26)
(-0.001156437 0.000604697 5.611732e-26)
(-0.00126443 4.09208e-05 0)
(-0.001261819 0.0001215495 -1.226791e-25)
(-0.001263453 0.0002058582 -1.242092e-25)
(-0.001267725 0.00029378 -3.397967e-27)
(-0.00127463 0.0003872091 1.333323e-25)
(-0.001281941 0.0004895867 1.134795e-26)
(-0.001286814 0.0006061461 0)
(-0.001356829 3.83543e-05 -1.347534e-25)
(-0.001354256 0.0001160522 -2.636268e-25)
(-0.001361811 0.0001935079 -1.269126e-25)
(-0.001371871 0.0002789054 -2.695836e-25)
(-0.00138706 0.0003699399 1.445917e-25)
(-0.001408373 0.0004687738 -1.270602e-25)
(-0.001433526 0.0005803953 -1.653888e-25)
(-0.001443404 3.460023e-05 -1.43287e-25)
(-0.001443181 0.0001042695 5.839885e-28)
(-0.001452382 0.0001769007 0)
(-0.001473587 0.0002515907 -2.93823e-27)
(-0.001499836 0.0003376952 -2.954684e-25)
(-0.00153835 0.0004324824 -3.134981e-25)
(-0.001582631 0.0005480792 -1.925489e-25)
(-0.001520697 2.907802e-05 1.511851e-25)
(-0.001522437 8.76675e-05 -8.770181e-28)
(-0.001538016 0.0001487305 -1.582853e-27)
(-0.001565702 0.0002151095 3.197926e-25)
(-0.00161518 0.0002852644 1.261307e-26)
(-0.00166861 0.000381456 -1.677721e-25)
(-0.001719865 0.0005114988 1.744067e-25)
(-0.001584239 2.136367e-05 1.576421e-25)
(-0.001589212 6.471246e-05 0)
(-0.001613431 0.0001099128 -1.94733e-27)
(-0.001658937 0.0001594358 -2.917223e-27)
(-0.001716451 0.0002251694 3.567404e-25)
(-0.001783343 0.0003228926 2.554888e-26)
(-0.001830101 0.0004784517 2.088545e-25)
(-0.001629467 1.108238e-05 0)
(-0.001640691 3.304656e-05 -1.973655e-28)
(-0.001677774 5.534842e-05 -4.692672e-28)
(-0.001741905 9.017511e-05 5.513636e-28)
(-0.001802853 0.0001584532 1.565144e-27)
(-0.001850298 0.0002721218 -2.152943e-27)
(-0.001899864 0.0004333745 -3.021102e-26)
(-0.001652892 -2.577779e-06 0)
(-0.00167351 -1.006955e-05 -3.196084e-27)
(-0.001724561 -1.449827e-05 -4.543092e-27)
(-0.001796464 1.315139e-05 -4.648535e-27)
(-0.001850236 9.435778e-05 -2.091653e-27)
(-0.001881582 0.0002278645 -2.277591e-27)
(-0.001901977 0.000419129 -2.658904e-26)
(-0.00165055 -2.155107e-05 1.652488e-25)
(-0.001684561 -6.43193e-05 1.714633e-25)
(-0.001742737 -8.770155e-05 7.892753e-29)
(-0.001799881 -5.960367e-05 -1.382714e-28)
(-0.001847881 3.80053e-05 -2.073141e-28)
(-0.001860288 0.0002015421 2.098238e-25)
(-0.001863059 0.000417795 -9.441074e-29)
(-0.001619169 -4.548443e-05 1.62522e-25)
(-0.001662619 -0.0001231112 3.43904e-25)
(-0.001716759 -0.000155817 -3.440725e-27)
(-0.001760329 -0.0001179359 -6.806691e-27)
(-0.001787208 3.560433e-06 -2.023985e-25)
(-0.001785739 0.0001963467 4.128938e-25)
(-0.00178211 0.000454264 8.141889e-25)
(-0.00155569 -6.935751e-05 -1.576817e-25)
(-0.001596844 -0.0001782938 -1.713685e-27)
(-0.001639094 -0.0002145968 -1.778571e-25)
(-0.001670919 -0.0001603836 6.743107e-29)
(-0.001684779 -1.430747e-05 -4.012879e-25)
(-0.001674048 0.0002101191 3.940369e-25)
(-0.001653691 0.0005056041 7.685568e-25)
(-0.001457071 -8.73596e-05 4.710914e-29)
(-0.001483344 -0.0002216849 -1.577654e-25)
(-0.001508763 -0.0002580007 -1.673349e-25)
(-0.00152783 -0.0001866098 1.653457e-25)
(-0.00153074 -1.515763e-05 -5.972101e-27)
(-0.001514435 0.0002333713 3.638332e-25)
(-0.001486156 0.0005417664 1.451878e-26)
(-0.001319532 -9.989909e-05 2.030624e-25)
(-0.001324501 -0.0002472935 -2.272759e-29)
(-0.001332763 -0.0002753685 1.193826e-28)
(-0.001334859 -0.0001894709 3.237553e-25)
(-0.001319491 4.083299e-06 6.133463e-27)
(-0.001284613 0.0002639738 1.56816e-25)
(-0.001245384 0.0005652886 -1.669065e-26)
(-0.001139065 -9.927474e-05 1.099663e-27)
(-0.001126861 -0.0002520783 -5.32508e-26)
(-0.001119159 -0.0002774843 6.541159e-27)
(-0.001096992 -0.0001626111 1.311846e-25)
(-0.001053618 5.809193e-05 -1.93424e-25)
(-0.0009799299 0.0003387941 -6.188916e-26)
(-0.0008872251 0.0006447342 2.79676e-28)
(-0.0009240032 -9.595e-05 -9.580219e-26)
(-0.0009021467 -0.0002422768 -9.9336e-26)
(-0.0008817626 -0.0002420133 -5.715497e-26)
(-0.0008460073 -9.565173e-05 4.912301e-27)
(-0.0007828291 0.0001650802 3.178796e-27)
(-0.0006767568 0.0005022819 -3.346544e-26)
(-0.0005229348 0.0008777687 3.108193e-26)
(-0.000685116 -9.200302e-05 -2.469483e-29)
(-0.0006631337 -0.0002275662 -3.544838e-26)
(-0.0006413268 -0.0002053973 4.462642e-27)
(-0.0006086238 -2.394242e-05 2.03044e-27)
(-0.0005506217 0.0002863235 3.453652e-26)
(-0.0004474872 0.0007043128 -1.017556e-26)
(-0.0002761901 0.001210763 2.31179e-26)
(-0.0004303727 -8.928215e-05 2.238989e-26)
(-0.0004166217 -0.0002146224 -1.451524e-29)
(-0.0004035727 -0.0001765098 1.76267e-26)
(-0.0003839677 3.05093e-05 -3.528124e-27)
(-0.0003490921 0.0003809086 1.062013e-26)
(-0.0002834975 0.0008624044 1.068858e-32)
(-0.0001689861 0.001460494 2.394215e-29)
(-0.0001579821 -8.973149e-05 -5.470148e-28)
(-0.0001591105 -0.0002094927 -3.968224e-27)
(-0.0001601485 -0.0001645234 2.553682e-27)
(-0.0001594844 5.362512e-05 3.271018e-27)
(-0.0001560269 0.0004216494 1.480083e-27)
(-0.0001473833 0.0009305838 4.194831e-29)
(-0.0001283508 0.00156777 9.528536e-26)
(0.0001277854 -9.03064e-05 -5.487056e-28)
(0.0001091073 -0.0002120199 -3.979242e-27)
(9.35083e-05 -0.0001702306 3.031498e-27)
(7.55689e-05 4.314511e-05 3.329177e-27)
(4.881652e-05 0.0004027227 -2.108118e-27)
(1.976179e-06 0.000899253 1.494965e-26)
(-7.475756e-05 0.001518251 1.230445e-25)
(0.0004050479 -9.024805e-05 6.511648e-30)
(0.0003745206 -0.0002201007 -1.157124e-31)
(0.0003486694 -0.0001893212 -7.093826e-30)
(0.0003171813 7.408099e-06 -6.630616e-30)
(0.0002672426 0.0003413568 -8.192437e-30)
(0.0001801787 0.0007957622 1.512339e-31)
(3.589136e-05 0.001355259 -1.168762e-26)
(0.0006661639 -9.248447e-05 3.523565e-26)
(0.0006316651 -0.0002322899 3.787909e-26)
(0.000601554 -0.0002176545 -3.884642e-26)
(0.0005627814 -4.587064e-05 -2.065216e-27)
(0.0004986186 0.0002511053 -3.526658e-26)
(0.0003909459 0.0006472534 6.099924e-30)
(0.0002227616 0.001114587 -4.326165e-26)
(0.0009107349 -9.535114e-05 6.603134e-31)
(0.0008804149 -0.0002432505 4.962217e-26)
(0.0008548979 -0.0002477725 -5.12355e-26)
(0.0008162103 -0.0001064883 1.03656e-25)
(0.0007516192 0.0001502556 6.308954e-30)
(0.0006481313 0.0004814019 -4.669958e-26)
(0.0005104745 0.0008480272 -2.691085e-28)
(0.001129547 -9.720662e-05 -5.747019e-26)
(0.001112089 -0.000247697 2.606341e-27)
(0.001100447 -0.0002738686 -5.34251e-26)
(0.001075252 -0.0001585969 4.219816e-26)
(0.001028289 6.55264e-05 1.74343e-25)
(0.0009518473 0.0003526928 -6.372931e-26)
(0.0008664254 0.0006740393 7.820576e-26)
(0.001311503 -9.633151e-05 2.135159e-29)
(0.001313155 -0.0002379074 1.227525e-25)
(0.001317903 -0.0002641346 -2.422008e-26)
(0.001314317 -0.0001768144 -1.010246e-26)
(0.001290482 1.951361e-05 3.133881e-25)
(0.001244681 0.0002843113 -3.689866e-32)
(0.001193056 0.0005944623 1.551886e-25)
(0.001449548 -8.328939e-05 1.474754e-25)
(0.001473186 -0.0002105254 1.568097e-25)
(0.001493851 -0.0002433893 -1.665586e-25)
(0.001505732 -0.0001709645 -9.284547e-27)
(0.001498679 3.048966e-07 3.484886e-25)
(0.001469923 0.0002480512 8.33967e-28)
(0.001427047 0.000552905 -1.789835e-25)
(0.001549195 -6.568355e-05 1.557496e-25)
(0.001587705 -0.0001680173 -1.670026e-25)
(0.001624956 -0.0001998401 -1.763563e-25)
(0.001649942 -0.0001444271 1.393578e-28)
(0.001655043 -2.93038e-07 1.928137e-25)
(0.001634242 0.0002205838 -9.260691e-29)
(0.001603983 0.0005085082 5.225759e-25)
(0.001615049 -4.306954e-05 1.616714e-25)
(0.001655885 -0.000115802 -1.080184e-27)
(0.001705103 -0.0001436368 -6.097293e-27)
(0.001742671 -0.0001030514 -1.969799e-25)
(0.001762805 1.727068e-05 3.739026e-25)
(0.001754331 0.0002056767 -2.092212e-25)
(0.001743757 0.0004569323 8.001377e-25)
(0.001649697 -2.073719e-05 1.647044e-25)
(0.001681566 -6.095225e-05 1.708838e-25)
(0.001735482 -8.025248e-05 -2.087182e-27)
(0.001787507 -4.858107e-05 -1.725306e-25)
(0.001829943 4.940587e-05 4.201946e-25)
(0.001837419 0.0002102468 -2.082929e-25)
(0.001834809 0.0004235002 2.334383e-29)
(0.001655455 -2.960078e-06 0)
(0.001675063 -1.038816e-05 -1.691276e-31)
(0.001723423 -1.268232e-05 1.996486e-29)
(0.001791206 1.820286e-05 8.870044e-29)
(0.001841278 0.0001021136 1.954892e-25)
(0.001870224 0.000234516 5.697887e-27)
(0.001888261 0.0004226061 4.229015e-25)
(0.001635055 1.018506e-05 0)
(0.001646447 3.085724e-05 1.619501e-28)
(0.001682969 5.338882e-05 5.047801e-28)
(0.001745572 9.039599e-05 -1.774219e-25)
(0.001804996 0.0001620418 1.865926e-25)
(0.001852487 0.0002786235 3.859854e-25)
(0.001900863 0.0004432998 3.986359e-25)
(0.001591853 2.07467e-05 1.58358e-25)
(0.001597817 6.288142e-05 0)
(0.001623364 0.0001074776 0)
(0.001670113 0.0001580215 -1.674935e-25)
(0.001728963 0.0002274784 -9.584716e-27)
(0.001794367 0.0003319998 7.099866e-25)
(0.001844556 0.0004935638 -2.612004e-30)
(0.001529099 2.900523e-05 1.519609e-25)
(0.001532213 8.735572e-05 8.74726e-28)
(0.001550095 0.0001482468 1.579372e-27)
(0.001580872 0.000215527 1.3145e-26)
(0.001631568 0.0002899709 3.116652e-26)
(0.001686979 0.0003924683 3.519729e-25)
(0.001741558 0.0005354675 2.227543e-26)
(0.001451457 3.498731e-05 0)
(0.001452664 0.0001054292 -1.441044e-25)
(0.001464317 0.0001789149 0)
(0.001487522 0.0002558646 5.404082e-27)
(0.001516876 0.0003455577 7.52333e-27)
(0.001556519 0.0004483058 1.720342e-30)
(0.001603807 0.0005748404 -2.505212e-26)
(0.001363649 3.904261e-05 0)
(0.001362522 0.0001181253 1.341468e-25)
(0.001371143 0.0001978294 -1.351752e-25)
(0.001383171 0.0002857161 0)
(0.001399679 0.0003817475 1.63043e-26)
(0.001423038 0.0004866823 -9.560841e-26)
(0.001445904 0.0006113375 6.108004e-28)
(0.001269511 4.170405e-05 0)
(0.001267647 0.0001243984 3.749168e-25)
(0.001270125 0.0002108841 1.462838e-28)
(0.001274834 0.0003024386 2.619616e-25)
(0.001282569 0.0003993386 1.781553e-26)
(0.001288178 0.0005090376 -1.246481e-25)
(0.001288642 0.0006350103 9.817499e-26)
(0.001173281 4.255952e-05 -1.162462e-25)
(0.001169251 0.000128085 1.166747e-25)
(0.0011678 0.0002155684 -2.499624e-29)
(0.001167245 0.0003070514 2.232839e-25)
(0.001164831 0.0004044476 0)
(0.00115891 0.0005093965 0)
(0.001150604 0.000627032 1.821861e-25)
(0.001076747 4.254267e-05 -1.063765e-25)
(0.001071195 0.0001280308 1.062731e-25)
(0.001066541 0.000215008 -1.044291e-25)
(0.001061204 0.0003041926 -1.032865e-25)
(0.001050983 0.0003999558 0)
(0.00103458 0.0005037026 0)
(0.001019653 0.0006084132 1.175936e-25)
(0.0009819377 4.162747e-05 9.723672e-26)
(0.0009754533 0.0001252225 9.875873e-26)
(0.0009687593 0.0002088772 2.399171e-27)
(0.0009583842 0.000295827 -8.958247e-26)
(0.0009423786 0.000386909 -2.483328e-26)
(0.0009232856 0.0004797618 1.414622e-25)
(0.0008929751 0.0005821392 -6.987297e-26)
(0.000890753 3.991239e-05 8.839258e-26)
(0.0008840612 0.0001198413 7.130069e-28)
(0.00087512 0.0002001995 -2.352524e-27)
(0.0008616867 0.000282302 -3.349935e-27)
(0.0008425302 0.0003676945 0)
(0.0008183048 0.0004541353 8.598417e-26)
(0.0007831532 0.000545856 -7.354557e-26)
(0.0008043284 3.791286e-05 0)
(0.0007975586 0.0001133178 1.33013e-27)
(0.0007870976 0.000189362 2.255979e-27)
(0.0007707077 0.0002674417 -1.694793e-25)
(0.0007518582 0.0003431134 -2.983897e-26)
(0.0007222295 0.0004242381 -1.263704e-25)
(0.0006867592 0.0005047658 -5.211772e-26)
(0.000723646 3.537733e-05 2.054227e-28)
(0.0007166401 0.0001059297 6.350315e-28)
(0.000705507 0.0001762332 0)
(0.0006895296 0.0002474082 1.781561e-28)
(0.0006664341 0.0003194753 -6.359109e-26)
(0.0006376642 0.0003911386 -6.019498e-26)
(0.0006020696 0.0004620924 1.105982e-26)
(0.0006489052 3.281457e-05 -6.40994e-26)
(0.0006418472 9.830746e-05 6.444605e-26)
(0.0006299081 0.0001640149 -1.129011e-25)
(0.0006149664 0.0002276593 1.298335e-25)
(0.0005910668 0.0002933795 -5.277733e-26)
(0.0005629163 0.0003571493 0)
(0.0005279738 0.0004196051 -1.00629e-26)
(0.0005801694 3.023267e-05 -5.755126e-26)
(0.0005728385 9.081438e-05 5.564483e-26)
(0.0005624588 0.0001494645 -5.403695e-26)
(0.000545823 0.0002091072 0)
(0.0005238583 0.0002673886 4.999327e-26)
(0.0004967521 0.0003240414 0)
(0.000463368 0.0003789604 -4.327006e-26)
(0.0005175555 2.751185e-05 0)
(0.0005111626 8.242403e-05 0)
(0.0005002308 0.0001367748 9.712451e-26)
(0.0004845456 0.0001901741 0)
(0.0004639954 0.0002421823 8.850492e-26)
(0.0004382399 0.0002926282 4.139547e-26)
(0.0004065793 0.0003413964 -3.789436e-26)
(0.0004606745 2.524004e-05 4.551531e-26)
(0.0004551455 7.470878e-05 0)
(0.0004446039 0.000123927 4.240963e-26)
(0.0004299523 0.0001718476 -4.245987e-26)
(0.0004107186 0.0002182885 3.915755e-26)
(0.0003866395 0.0002628984 7.301214e-26)
(0.0003570895 0.0003052104 3.327513e-26)
(0.0004097922 2.274592e-05 4.041036e-26)
(0.0004042528 6.77706e-05 3.939691e-26)
(0.0003947505 0.0001118282 0)
(0.000381212 0.0001547154 -3.856885e-26)
(0.0003634644 0.0001960851 -2.371749e-27)
(0.0003414014 0.0002354345 6.734391e-26)
(0.0003146086 0.0002720681 9.824053e-27)
(0.0003639395 2.053702e-05 3.595333e-26)
(0.0003588205 6.10376e-05 3.513822e-26)
(0.0003501739 0.0001005355 -3.40384e-26)
(0.0003377467 0.0001389318 0)
(0.0003215046 0.0001758836 0)
(0.0003013262 0.0002111784 2.846333e-26)
(0.0002764296 0.0002450967 -4.800661e-26)
(0.0003228242 1.846288e-05 3.188402e-26)
(0.000318182 5.481815e-05 3.117962e-26)
(0.0003103405 9.016461e-05 -3.01549e-26)
(0.000299013 0.0001244625 0)
(0.000284209 0.000157343 -1.902965e-27)
(0.0002657869 0.0001884696 -3.446649e-30)
(0.0002431887 0.0002177371 2.630667e-27)
(0.0002860433 1.656429e-05 0)
(0.0002818955 4.911894e-05 2.761588e-26)
(0.0002748075 8.070768e-05 -2.672623e-26)
(0.0002645483 0.0001112982 0)
(0.0002511456 0.0001405275 2.571894e-26)
(0.0002344997 0.0001680858 4.067863e-27)
(0.0002141951 0.000193834 2.342912e-27)
(0.0002532104 1.483898e-05 -2.501359e-26)
(0.0002495278 4.394819e-05 1.329758e-28)
(0.0002431513 7.214191e-05 -2.34208e-26)
(0.0002339137 9.939074e-05 6.024245e-28)
(0.0002218485 0.0001253386 7.415024e-28)
(0.0002068193 0.000149737 1.954967e-26)
(0.0001886685 0.0001723272 0)
(0.0002239423 1.328142e-05 -4.42392e-26)
(0.0002206839 3.928373e-05 0)
(0.0002149692 6.442815e-05 0)
(0.0002066791 8.870853e-05 -2.049228e-26)
(0.0001958027 0.0001118579 -3.813443e-26)
(0.0001819215 0.0001338728 1.718457e-26)
(0.0001661282 0.0001530328 0)
(0.000197878 1.188119e-05 -1.954272e-26)
(0.0001950014 3.50908e-05 1.063673e-28)
(0.0001898966 5.749314e-05 1.75109e-28)
(0.000182479 7.90831e-05 4.920973e-28)
(0.0001727325 9.955033e-05 -1.59107e-26)
(0.0001604402 0.0001187722 0)
(0.0001458498 0.0001363204 1.361313e-26)
(0.0001746824 1.062738e-05 1.614043e-29)
(0.0001721489 3.133679e-05 1.702148e-26)
(0.0001676058 5.128767e-05 1.647218e-26)
(0.0001609995 7.048881e-05 3.109856e-26)
(0.0001523278 8.865931e-05 0)
(0.0001414559 0.0001057054 1.316355e-26)
(0.0001283577 0.0001212124 -1.579039e-29)
(0.0001540471 9.50846e-06 1.520052e-26)
(0.0001518209 2.798839e-05 2.980993e-26)
(0.0001477925 4.575451e-05 2.891136e-26)
(0.0001419291 6.282826e-05 1.408875e-26)
(0.0001341985 7.897533e-05 4.79867e-28)
(0.0001245911 9.40491e-05 1.158655e-26)
(0.0001129862 0.0001077401 -1.119894e-26)
(0.0001356905 8.514113e-06 1.33987e-26)
(0.0001337368 2.501358e-05 2.622242e-26)
(0.0001301709 4.085084e-05 1.266911e-26)
(0.000124952 5.609337e-05 0)
(0.0001178856 7.064493e-05 3.260591e-27)
(0.000109621 8.365235e-05 4.907652e-27)
(9.939847e-05 9.579665e-05 1.155283e-27)
(0.0001193575 7.630806e-06 1.179823e-26)
(0.0001176452 2.237023e-05 1.149778e-26)
(0.0001144948 3.64822e-05 -3.338826e-28)
(0.0001098752 5.002124e-05 -3.051304e-28)
(0.0001037035 6.284583e-05 0)
(9.611389e-05 7.468753e-05 9.093209e-27)
(8.735273e-05 8.525612e-05 -5.151177e-28)
(0.0001048198 6.849287e-06 1.035867e-26)
(0.0001033227 2.003141e-05 1.009973e-26)
(0.0001005513 3.262106e-05 -1.993902e-28)
(9.648959e-05 4.468699e-05 -1.364546e-28)
(9.108638e-05 5.610754e-05 0)
(8.433336e-05 6.66234e-05 7.567398e-27)
(7.668949e-05 7.593198e-05 -9.177001e-28)
(9.187052e-05 6.159658e-06 -9.473271e-30)
(9.056559e-05 1.79685e-05 1.772633e-26)
(8.813589e-05 2.921623e-05 -8.935066e-29)
(8.45733e-05 3.998614e-05 -1.222879e-28)
(7.984228e-05 5.015881e-05 0)
(7.391374e-05 5.949177e-05 0)
(6.722592e-05 6.772168e-05 0)
(8.032396e-05 5.553827e-06 0)
(7.919111e-05 1.615489e-05 7.759369e-27)
(7.707052e-05 2.622064e-05 0)
(7.394264e-05 3.58579e-05 -6.917956e-27)
(6.982696e-05 4.492201e-05 2.736642e-28)
(6.465086e-05 5.322226e-05 3.236046e-28)
(5.881313e-05 6.051373e-05 -5.140442e-27)
(7.001295e-05 5.024236e-06 6.90913e-27)
(6.903211e-05 1.457197e-05 0)
(6.717902e-05 2.362286e-05 -1.448333e-28)
(6.436e-05 3.234729e-05 -4.882272e-27)
(6.089948e-05 4.031263e-05 7.720686e-27)
(5.639638e-05 4.772601e-05 0)
(5.1317e-05 5.420263e-05 -4.795722e-27)
(6.078985e-05 4.560887e-06 5.99659e-27)
(5.994421e-05 1.318315e-05 0)
(5.834065e-05 2.13177e-05 -6.58157e-29)
(5.594281e-05 2.912205e-05 -8.981091e-29)
(5.281364e-05 3.638498e-05 1.006418e-26)
(4.901707e-05 4.293383e-05 -4.629697e-27)
(4.462049e-05 4.868835e-05 4.168038e-27)
(5.252558e-05 4.158041e-06 0)
(5.180324e-05 1.197634e-05 5.033212e-27)
(5.04315e-05 1.932194e-05 -6.00713e-29)
(4.838685e-05 2.636273e-05 -4.623162e-27)
(4.566477e-05 3.289355e-05 4.343272e-27)
(4.242057e-05 3.874153e-05 -3.995595e-27)
(3.862514e-05 4.387062e-05 -3.595344e-30)
(4.510493e-05 3.809877e-06 0)
(4.449507e-05 1.093253e-05 4.350129e-27)
(4.333498e-05 1.759471e-05 -4.202857e-27)
(4.160127e-05 2.396524e-05 -4.038276e-27)
(3.927785e-05 2.984829e-05 3.636917e-27)
(3.650886e-05 3.509015e-05 -2.163518e-28)
(3.325032e-05 3.966481e-05 -3.086145e-27)
(3.842579e-05 3.511234e-06 0)
(3.792027e-05 1.003614e-05 0)
(3.695561e-05 1.610748e-05 -3.575814e-27)
(3.550506e-05 2.189399e-05 3.37475e-27)
(3.354927e-05 2.721041e-05 -2.405769e-30)
(3.120611e-05 3.191917e-05 0)
(2.842977e-05 3.600012e-05 0)
(3.239716e-05 3.258291e-06 3.189955e-27)
(3.199141e-05 9.274451e-06 -3.119607e-27)
(3.121114e-05 1.483787e-05 -1.459192e-27)
(3.00236e-05 2.011703e-05 2.902974e-27)
(2.840485e-05 2.493762e-05 2.138274e-30)
(2.644746e-05 2.917643e-05 -1.829762e-28)
(2.410621e-05 3.281781e-05 -4.83177e-32)
(2.693414e-05 3.049461e-06 -3.667123e-31)
(2.663009e-05 8.640644e-06 -2.589701e-27)
(2.602979e-05 1.377036e-05 -1.206305e-27)
(2.509213e-05 1.860876e-05 6.001669e-29)
(2.37838e-05 2.299394e-05 4.519876e-27)
(2.217639e-05 2.681744e-05 8.515376e-29)
(2.022877e-05 3.006834e-05 0)
(2.194963e-05 2.887339e-06 -2.155877e-27)
(2.176227e-05 8.13599e-06 1.054513e-27)
(2.134544e-05 1.289948e-05 1.019574e-27)
(2.065774e-05 1.734952e-05 0)
(1.963485e-05 2.134897e-05 1.815977e-27)
(1.834439e-05 2.480421e-05 7.993919e-29)