/*--------------------------------*- C++ -*----------------------------------*\
| =========                 |                                                 |
| \\      /  F ield         | OpenFOAM: The Open Source CFD Toolbox           |
|  \\    /   O peration     | Version:  2206                                  |
|   \\  /    A nd           | Website:  www.openfoam.com                      |
|    \\/     M anipulation  |                                                 |
\*---------------------------------------------------------------------------*/
FoamFile
{
    version     2.0;
    format      ascii;
    arch        "LSB;label=32;scalar=64";
    class       surfaceVectorField;
    location    "1.2";
    object      Ufa;
}
// * * * * * * * * * * * * * * * * * * * * * * * * * * * * * * * * * * * * * //

dimensions      [0 1 -1 0 0 0 0];

internalField   nonuniform List<vector> 
26037
(
(4.570136e-08 -8.557664e-06 4.361732e-26)
(-2.80246e-06 -7.644563e-06 2.216448e-29)
(3.148152e-08 -1.115057e-05 -3.062611e-26)
(-2.594902e-06 -1.128867e-05 4.669374e-28)
(4.277176e-09 -8.909297e-06 -1.238093e-29)
(-1.093088e-06 -9.552613e-06 -1.240904e-29)
(1.338311e-08 -6.300614e-06 -5.748623e-30)
(-4.691679e-07 -6.755096e-06 0)
(1.270039e-08 -4.964263e-06 5.398609e-28)
(-2.278276e-07 -5.275847e-06 -5.747202e-30)
(9.903705e-09 -4.149926e-06 -1.146043e-29)
(-1.286799e-07 -4.421553e-06 -6.246282e-30)
(-8.613974e-08 -3.764086e-06 -5.723048e-30)
(7.652201e-09 -3.468975e-06 -4.591843e-28)
(-5.482298e-06 -1.037048e-05 -4.611626e-34)
(-4.619144e-06 -6.445139e-06 -3.197291e-31)
(-3.749792e-06 -9.693566e-06 -4.65595e-34)
(-4.360077e-06 -8.274018e-06 4.099659e-31)
(-1.565745e-06 -7.391088e-06 0)
(-2.133629e-06 -7.034681e-06 5.83177e-30)
(-7.104067e-07 -5.730351e-06 7.331409e-34)
(-1.066068e-06 -5.670406e-06 1.156914e-29)
(-3.692045e-07 -4.733181e-06 1.075263e-33)
(-5.828393e-07 -4.781866e-06 1.109135e-29)
(-2.24719e-07 -4.035645e-06 1.013067e-33)
(-3.599756e-07 -4.162344e-06 3.423539e-34)
(-2.546252e-07 -3.603311e-06 1.15907e-30)
(-1.591793e-07 -3.399617e-06 -5.709547e-30)
(-3.494402e-06 -4.325367e-06 9.300499e-32)
(-2.381518e-06 -2.274428e-06 1.902283e-27)
(-2.753676e-06 -5.594049e-06 6.24082e-30)
(-2.560863e-06 -4.300918e-06 -6.489051e-28)
(-1.630103e-06 -5.298411e-06 7.286928e-28)
(-1.755802e-06 -4.651238e-06 7.464913e-30)
(-9.384074e-07 -4.721664e-06 -1.299815e-29)
(-1.100607e-06 -4.419195e-06 1.25369e-29)
(-5.736258e-07 -4.211009e-06 5.750045e-30)
(-7.045172e-07 -4.093236e-06 -8.180582e-30)
(-3.898875e-07 -3.729927e-06 -3.255551e-35)
(-4.895591e-07 -3.74627e-06 0)
(-3.749625e-07 -3.316514e-06 -2.952484e-30)
(-2.955515e-07 -3.190979e-06 5.706389e-30)
(-1.447938e-06 -2.248224e-06 5.848091e-31)
(-7.976351e-07 -1.2132e-06 -5.08768e-31)
(-1.56755e-06 -3.347942e-06 2.498292e-30)
(-1.270259e-06 -2.456924e-06 -1.792328e-27)
(-1.221235e-06 -3.75939e-06 6.384169e-29)
(-1.153007e-06 -3.146668e-06 -2.737724e-28)
(-8.661607e-07 -3.786105e-06 8.820074e-31)
(-8.950059e-07 -3.416541e-06 4.436837e-28)
(-6.20476e-07 -3.628416e-06 -2.876348e-33)
(-6.761594e-07 -3.439207e-06 -7.017696e-30)
(-4.746517e-07 -3.332753e-06 -1.288021e-33)
(-5.326843e-07 -3.285171e-06 -5.700378e-36)
(-4.450493e-07 -2.95961e-06 5.717451e-30)
(-3.888136e-07 -2.889033e-06 -5.705442e-30)
(-6.195022e-07 -1.421009e-06 -1.966203e-29)
(-2.822285e-07 -8.44101e-07 -1.476647e-31)
(-8.565772e-07 -2.250121e-06 -6.424283e-29)
(-6.275284e-07 -1.65338e-06 3.421522e-31)
(-8.250032e-07 -2.801639e-06 1.266078e-30)
(-7.137848e-07 -2.312104e-06 5.185935e-31)
(-7.040102e-07 -3.064073e-06 -9.831642e-29)
(-6.684541e-07 -2.713851e-06 4.885211e-28)
(-5.881831e-07 -3.093581e-06 -7.252103e-28)
(-5.933753e-07 -2.884982e-06 -5.010711e-28)
(-5.031128e-07 -2.911903e-06 6.648558e-28)
(-5.273052e-07 -2.837159e-06 -5.740593e-30)
(-4.774567e-07 -2.573095e-06 7.945067e-30)
(-4.436899e-07 -2.534729e-06 5.718727e-30)
(-2.89998e-07 -1.07597e-06 3.695199e-31)
(-1.165981e-07 -7.019569e-07 0)
(-4.84058e-07 -1.710081e-06 4.514875e-29)
(-3.319838e-07 -1.285007e-06 1.003139e-30)
(-5.57052e-07 -2.225819e-06 -9.437587e-29)
(-4.53751e-07 -1.842212e-06 -5.666995e-30)
(-5.575687e-07 -2.532774e-06 9.22953e-29)
(-5.002113e-07 -2.232816e-06 -5.317857e-30)
(-5.322144e-07 -2.625017e-06 -5.036044e-30)
(-5.091248e-07 -2.42568e-06 6.733985e-28)
(-5.016307e-07 -2.496731e-06 -7.931131e-28)
(-5.020275e-07 -2.411541e-06 -5.102888e-30)
(-4.864822e-07 -2.180212e-06 -1.152046e-29)
(-4.709828e-07 -2.156275e-06 -6.786625e-28)
(-1.584699e-07 -9.10717e-07 6.330939e-31)
(-6.300659e-08 -6.339223e-07 -1.12082e-30)
(-3.008417e-07 -1.413232e-06 -4.635216e-30)
(-2.026594e-07 -1.08668e-06 4.625021e-28)
(-3.966069e-07 -1.848574e-06 -6.843079e-28)
(-3.148923e-07 -1.543547e-06 5.104257e-28)
(-4.516928e-07 -2.125395e-06 -4.56048e-30)
(-3.928848e-07 -1.875552e-06 -5.927133e-30)
(-4.789038e-07 -2.210557e-06 9.520235e-29)
(-4.434518e-07 -2.039106e-06 2.673174e-30)
(-4.868383e-07 -2.092242e-06 7.286221e-31)
(-4.719594e-07 -2.010068e-06 1.45534e-30)
(-4.82688e-07 -1.78504e-06 7.188419e-31)
(-4.806903e-07 -1.770269e-06 4.372604e-33)
(-1.071876e-07 -8.09802e-07 -4.453615e-31)
(-4.657066e-08 -5.89676e-07 -1.122953e-27)
(-2.165546e-07 -1.215817e-06 1.348616e-30)
(-1.478959e-07 -9.518681e-07 -8.058364e-31)
(-3.108812e-07 -1.568871e-06 6.796316e-31)
(-2.446793e-07 -1.323252e-06 6.800478e-31)
(-3.850634e-07 -1.790193e-06 1.342432e-30)
(-3.291141e-07 -1.586545e-06 7.414486e-31)
(-4.365965e-07 -1.838512e-06 2.060497e-30)
(-3.962571e-07 -1.699995e-06 1.687865e-27)
(-4.678391e-07 -1.701524e-06 9.694717e-29)
(-4.441116e-07 -1.638503e-06 1.453999e-30)
(-4.726838e-07 -1.39691e-06 7.23812e-31)
(-4.803664e-07 -1.382505e-06 -4.998797e-30)
(-8.731677e-08 -7.317466e-07 -1.464887e-30)
(-4.261068e-08 -5.534732e-07 1.52578e-27)
(-1.760144e-07 -1.058909e-06 -1.475112e-30)
(-1.24709e-07 -8.416655e-07 -1.957185e-27)
(-2.621144e-07 -1.338097e-06 7.54077e-29)
(-2.07487e-07 -1.139129e-06 -9.913726e-28)
(-3.408742e-07 -1.497045e-06 4.330665e-30)
(-2.893176e-07 -1.335448e-06 2.572566e-30)
(-4.038803e-07 -1.499849e-06 1.014253e-28)
(-3.625451e-07 -1.395063e-06 1.867359e-27)
(-4.490246e-07 -1.333832e-06 7.264364e-31)
(-4.209547e-07 -1.295719e-06 7.262124e-31)
(-4.617552e-07 -1.03141e-06 0)
(-4.75454e-07 -1.001924e-06 -5.926817e-31)
(-8.006324e-08 -6.634357e-07 -2.857971e-31)
(-4.300454e-08 -5.210285e-07 1.295946e-30)
(-1.562093e-07 -9.215849e-07 -2.359382e-30)
(-1.152399e-07 -7.439686e-07 -1.582497e-30)
(-2.338858e-07 -1.13423e-06 1.02611e-30)
(-1.876134e-07 -9.759473e-07 -2.47502e-30)
(-3.116211e-07 -1.233786e-06 1.798509e-30)
(-2.646271e-07 -1.111094e-06 2.182046e-27)
(-3.797416e-07 -1.190771e-06 -1.888185e-32)
(-3.394911e-07 -1.119391e-06 -2.06331e-27)
(-4.337583e-07 -9.932411e-07 0)
(-4.042529e-07 -9.820264e-07 0)
(-4.542504e-07 -6.927778e-07 0)
(-4.70783e-07 -6.430684e-07 8.141724e-31)
(-7.825875e-08 -6.016415e-07 0)
(-4.521968e-08 -4.915867e-07 0)
(-1.466927e-07 -7.980836e-07 -1.697444e-30)
(-1.124872e-07 -6.558936e-07 1.880897e-30)
(-2.175961e-07 -9.512033e-07 1.938908e-31)
(-1.776647e-07 -8.295036e-07 -2.569045e-27)
(-2.931631e-07 -9.966401e-07 1.93911e-30)
(-2.50565e-07 -9.098652e-07 -9.031168e-31)
(-3.641369e-07 -9.104542e-07 1.952385e-32)
(-3.260839e-07 -8.711299e-07 2.297889e-27)
(-4.248234e-07 -6.815041e-07 0)
(-3.957274e-07 -6.974693e-07 0)
(-4.535645e-07 -3.826446e-07 -1.137187e-31)
(-4.707891e-07 -3.110534e-07 6.726941e-31)
(-7.954099e-08 -5.459526e-07 1.880115e-30)
(-4.868586e-08 -4.650244e-07 0)
(-1.435266e-07 -6.87109e-07 6.560064e-32)
(-1.140954e-07 -5.767256e-07 2.995116e-27)
(-2.099155e-07 -7.87151e-07 -4.64333e-30)
(-1.749107e-07 -6.98357e-07 -2.548261e-30)
(-2.841798e-07 -7.839304e-07 -1.028761e-28)
(-2.455692e-07 -7.298416e-07 -2.72636e-27)
(-3.578217e-07 -6.579207e-07 1.023556e-30)
(-3.224882e-07 -6.484307e-07 2.934812e-30)
(-4.245532e-07 -3.985456e-07 -1.136795e-31)
(-3.96938e-07 -4.406491e-07 -1.779696e-30)
(-4.622616e-07 -1.00248e-07 -2.098579e-27)
(-4.787726e-07 -6.709196e-09 2.251052e-28)
(-8.334831e-08 -4.959481e-07 1.285177e-30)
(-5.337832e-08 -4.411247e-07 1.815096e-30)
(-1.455649e-07 -5.878094e-07 -5.050632e-29)
(-1.195189e-07 -5.057325e-07 1.285387e-30)
(-2.098679e-07 -6.405844e-07 -2.938676e-30)
(-1.784893e-07 -5.810185e-07 -1.45863e-30)
(-2.846079e-07 -5.935703e-07 -2.830497e-31)
(-2.491418e-07 -5.687085e-07 -2.960768e-30)
(-3.61767e-07 -4.309001e-07 1.287976e-31)
(-3.291225e-07 -4.485021e-07 3.096421e-27)
(-4.347385e-07 -1.422822e-07 -1.761198e-30)
(-4.089903e-07 -2.085913e-07 -2.642405e-27)
(-4.820707e-07 1.571598e-07 2.352538e-27)
(-4.971038e-07 2.716222e-07 1.852973e-32)
(-8.967316e-08 -4.510978e-07 1.815447e-30)
(-5.940811e-08 -4.195433e-07 3.144809e-27)
(-1.525471e-07 -4.988129e-07 -7.278331e-31)
(-1.287135e-07 -4.417717e-07 0)
(-2.170746e-07 -5.091833e-07 -8.335152e-29)
(-1.878636e-07 -4.753649e-07 -2.17989e-30)
(-2.944126e-07 -4.225624e-07 3.429674e-30)
(-2.591877e-07 -4.234653e-07 7.181353e-30)
(-3.765491e-07 -2.258133e-07 2.223521e-30)
(-3.438417e-07 -2.681887e-07 4.111455e-27)
(-4.564245e-07 9.09311e-08 -1.310255e-31)
(-4.320359e-07 2.781645e-09 -1.899021e-30)
(-5.140299e-07 3.936178e-07 -1.581977e-31)
(-5.272976e-07 5.273002e-07 -1.294057e-30)
(-9.859029e-08 -4.104472e-07 1.954251e-30)
(-6.691565e-08 -3.997811e-07 1.95335e-30)
(-1.6416e-07 -4.182252e-07 -1.450344e-30)
(-1.419384e-07 -3.833615e-07 2.626809e-30)
(-2.294444e-07 -3.899304e-07 -1.376268e-28)
(-2.039196e-07 -3.789175e-07 -1.450714e-30)
(-3.08982e-07 -2.682335e-07 1.719842e-27)
(-2.791366e-07 -2.905155e-07 -3.148577e-27)
(-3.99916e-07 -3.781512e-08 1.381212e-29)
(-3.70438e-07 -1.025026e-07 1.534704e-29)
(-4.897881e-07 3.05717e-07 -1.926465e-30)
(-4.676196e-07 1.980798e-07 1.424231e-30)
(-5.592041e-07 6.137612e-07 -3.009572e-27)
(-5.703218e-07 7.646736e-07 -3.676745e-30)
(-1.104235e-07 -3.729701e-07 2.625541e-30)
(-7.59921e-08 -3.8129e-07 0)
(-1.818559e-07 -3.439915e-07 2.627339e-30)
(-1.592804e-07 -3.288623e-07 4.9515e-27)
(-2.53365e-07 -2.800879e-07 -1.015456e-30)
(-2.266281e-07 -2.889938e-07 -7.195651e-31)
(-3.398159e-07 -1.268532e-07 2.275106e-28)
(-3.090345e-07 -1.672679e-07 -1.733276e-30)
(-4.391758e-07 1.362254e-07 2.878238e-30)
(-4.096161e-07 5.213243e-08 1.454381e-30)
(-5.372355e-07 5.065578e-07 3.077048e-28)
(-5.163157e-07 3.819523e-07 1.423612e-30)
(-6.182799e-07 8.224897e-07 -6.501427e-31)
(-6.273596e-07 9.885024e-07 7.482643e-31)
(-1.250311e-07 -3.37505e-07 5.702719e-30)
(-8.674638e-08 -3.635524e-07 2.855095e-30)
(-2.042528e-07 -2.73795e-07 4.987461e-30)
(-1.807257e-07 -2.766687e-07 5.603947e-27)
(-2.823877e-07 -1.762461e-07 -1.002989e-28)
(-2.552897e-07 -2.028541e-07 -2.153138e-30)
(-3.774937e-07 8.493632e-09 -7.276495e-31)
(-3.460272e-07 -4.878075e-08 -1.429364e-30)
(-4.881464e-07 3.017835e-07 0)
(-4.581913e-07 2.012822e-07 0)
(-5.976065e-07 6.984564e-07 0)
(-5.775701e-07 5.592692e-07 1.267938e-30)
(-6.916699e-07 1.02476e-06 -2.777573e-30)
(-6.988028e-07 1.203776e-06 -1.388722e-30)
(-1.42646e-07 -3.030934e-07 -1.080235e-28)
(-9.932419e-08 -3.460893e-07 5.175726e-27)
(-2.319888e-07 -2.056624e-07 -7.725436e-29)
(-2.065151e-07 -2.25328e-07 5.807913e-30)
(-3.190592e-07 -7.544713e-08 -1.095004e-28)
(-2.904898e-07 -1.181038e-07 -3.57534e-30)
(-4.251606e-07 1.401739e-07 -7.245375e-31)
(-3.919597e-07 6.786346e-08 -2.13171e-30)
(-5.492226e-07 4.63176e-07 1.282677e-30)
(-5.179665e-07 3.483027e-07 0)
(-6.719165e-07 8.862069e-07 -3.737086e-28)
(-6.524424e-07 7.344027e-07 5.462947e-27)
(-7.802849e-07 1.225377e-06 -4.153916e-30)
(-7.855864e-07 1.415377e-06 -3.878551e-28)
(-1.634234e-07 -2.687619e-07 -1.233018e-28)
(-1.138681e-07 -3.284199e-07 6.146463e-30)
(-2.652706e-07 -1.377087e-07 -8.519856e-29)
(-2.368761e-07 -1.73452e-07 7.155433e-27)
(-3.635367e-07 2.511804e-08 -2.367131e-28)
(-3.324691e-07 -3.24852e-08 1.477966e-30)
(-4.829874e-07 2.716443e-07 -1.441463e-30)
(-4.465973e-07 1.857358e-07 -1.418398e-30)
(-6.229862e-07 6.24213e-07 2.924898e-30)
(-5.865728e-07 4.96089e-07 1.13358e-29)
(-7.611991e-07 1.074458e-06 1.50918e-30)
(-7.385175e-07 9.097805e-07 1.69119e-29)
(-8.84749e-07 1.428908e-06 1.360152e-30)
(-8.888538e-07 1.628074e-06 -4.255638e-28)
(-1.875783e-07 -2.336158e-07 1.055783e-29)
(-1.305412e-07 -3.100568e-07 6.572698e-27)
(-3.043611e-07 -6.817187e-08 1.110465e-29)
(-2.722187e-07 -1.196424e-07 8.042359e-27)
(-4.157181e-07 1.28053e-07 3.621799e-30)
(-3.819527e-07 5.622882e-08 7.69368e-27)
(-5.486653e-07 4.063605e-07 1.123304e-29)
(-5.117628e-07 3.077731e-07 5.184219e-30)
(-7.03245e-07 7.84006e-07 2.950204e-27)
(-6.699859e-07 6.48418e-07 1.267188e-29)
(-8.63557e-07 1.268187e-06 1.110906e-27)
(-8.427374e-07 1.091354e-06 1.802887e-29)
(-1.008332e-06 1.640267e-06 -1.805729e-30)
(-1.009585e-06 1.846728e-06 2.736953e-30)
(-2.154682e-07 -1.966652e-07 1.78963e-28)
(-1.495432e-07 -2.905379e-07 3.058515e-30)
(-3.50127e-07 4.810829e-09 1.222439e-28)
(-3.129938e-07 -6.243726e-08 9.068689e-27)
(-4.782245e-07 2.359207e-07 1.380202e-29)
(-4.395675e-07 1.505449e-07 8.775443e-27)
(-6.320531e-07 5.473376e-07 3.164795e-28)
(-5.883476e-07 4.374148e-07 8.3993e-27)
(-8.072418e-07 9.500971e-07 5.291523e-30)
(-7.691816e-07 8.097584e-07 1.386321e-30)
(-9.898091e-07 1.470583e-06 -7.192275e-31)
(-9.668761e-07 1.284987e-06 7.151123e-27)
(-1.153711e-06 1.86525e-06 -6.760272e-27)
(-1.152367e-06 2.076259e-06 -5.417918e-28)
(-2.473887e-07 -1.569761e-07 5.215561e-30)
(-1.710842e-07 -2.693789e-07 -4.085804e-30)
(-4.027916e-07 8.334659e-08 1.254078e-28)
(-3.595238e-07 -2.930436e-10 5.216323e-30)
(-5.500096e-07 3.52098e-07 1.332698e-29)
(-5.057231e-07 2.53157e-07 5.036032e-30)
(-7.254653e-07 6.992973e-07 8.304392e-30)
(-6.763861e-07 5.787673e-07 9.461682e-27)
(-9.251428e-07 1.135334e-06 4.166863e-30)
(-8.824838e-07 9.877868e-07 -3.013004e-30)
(-1.134027e-06 1.689157e-06 4.214181e-30)
(-1.10909e-06 1.498383e-06 4.255162e-30)
(-1.32312e-06 2.111421e-06 8.468096e-27)
(-1.318264e-06 2.323569e-06 5.756426e-30)
(-2.835737e-07 -1.134589e-07 -4.086542e-30)
(-1.953064e-07 -2.459731e-07 -9.28419e-27)
(-4.628519e-07 1.695588e-07 0)
(-4.121095e-07 6.852163e-08 0)
(-6.324556e-07 4.798812e-07 1.34103e-30)
(-5.810516e-07 3.669395e-07 0)
(-8.334737e-07 8.66818e-07 3.875545e-28)
(-7.77357e-07 7.359517e-07 -1.071338e-26)
(-1.062093e-06 1.340508e-06 -3.074905e-30)
(-1.013003e-06 1.186577e-06 -1.038823e-26)
(-1.301947e-06 1.930694e-06 3.856345e-30)
(-1.269968e-06 1.735356e-06 4.584818e-30)
(-1.517035e-06 2.384491e-06 3.831346e-30)
(-1.512587e-06 2.59829e-06 4.551051e-30)
(-3.242346e-07 -6.486312e-08 -8.978857e-30)
(-2.223082e-07 -2.196766e-07 -1.034343e-26)
(-5.307493e-07 2.659343e-07 0)
(-4.709924e-07 1.459859e-07 7.05296e-31)
(-7.263498e-07 6.230543e-07 -6.370756e-30)
(-6.661011e-07 4.953079e-07 -5.160934e-30)
(-9.570282e-07 1.055323e-06 -4.135088e-28)
(-8.926813e-07 9.139106e-07 -5.026467e-30)
(-1.217092e-06 1.572538e-06 -6.49837e-30)
(-1.164359e-06 1.412595e-06 -1.039092e-26)
(-1.487795e-06 2.194477e-06 4.613568e-30)
(-1.460793e-06 2.005232e-06 7.077055e-27)
(-1.749797e-06 2.699008e-06 0)
(-1.738252e-06 2.912642e-06 -3.794985e-30)
(-3.694977e-07 -9.819873e-09 -4.234489e-30)
(-2.520509e-07 -1.897642e-07 -4.936385e-30)
(-6.068284e-07 3.75378e-07 1.468537e-28)
(-5.359613e-07 2.343203e-07 7.419364e-30)
(-8.328643e-07 7.86198e-07 -3.817645e-30)
(-7.607284e-07 6.421949e-07 -1.381866e-26)
(-1.100215e-06 1.270941e-06 4.811587e-28)
(-1.022763e-06 1.118554e-06 1.344353e-30)
(-1.405132e-06 1.839435e-06 6.298445e-30)
(-1.338072e-06 1.673812e-06 1.303673e-26)
(-1.717618e-06 2.498438e-06 5.083604e-30)
(-1.683535e-06 2.318338e-06 1.007019e-29)
(-2.024954e-06 3.067772e-06 2.575646e-30)
(-2.012445e-06 3.275756e-06 -6.746453e-30)
(-4.189897e-07 5.324835e-08 6.710121e-30)
(-2.842797e-07 -1.554109e-07 6.068251e-30)
(-6.903964e-07 5.011386e-07 2.932522e-31)
(-6.061399e-07 3.359739e-07 1.570354e-26)
(-9.511097e-07 9.745662e-07 -6.42797e-30)
(-8.636005e-07 8.117971e-07 -1.357213e-29)
(-1.261019e-06 1.521396e-06 8.349802e-30)
(-1.166245e-06 1.356026e-06 0)
(-1.616085e-06 2.151328e-06 1.13164e-27)
(-1.532852e-06 1.978987e-06 5.798924e-30)
(-1.982611e-06 2.868993e-06 1.49415e-27)
(-1.937037e-06 2.690375e-06 5.105292e-30)
(-2.341888e-06 3.504769e-06 5.093819e-30)
(-2.331289e-06 3.704103e-06 7.766501e-33)
(-4.719476e-07 1.260287e-07 1.34489e-29)
(-3.184147e-07 -1.156451e-07 1.373039e-26)
(-7.799341e-07 6.466129e-07 2.418634e-31)
(-6.797529e-07 4.535784e-07 1.56092e-29)
(-1.079265e-06 1.193242e-06 -7.150168e-30)
(-9.719876e-07 1.008421e-06 -1.702966e-26)
(-1.438518e-06 1.813559e-06 -2.549813e-30)
(-1.319899e-06 1.632188e-06 0)
(-1.853555e-06 2.516839e-06 -1.1912e-27)
(-1.745856e-06 2.335269e-06 -2.550178e-30)
(-2.286236e-06 3.305135e-06 1.534951e-27)
(-2.219518e-06 3.125909e-06 6.643629e-30)
(-2.694874e-06 4.010076e-06 -2.343409e-29)
(-2.701212e-06 4.204707e-06 -2.704253e-30)
(-5.26721e-07 2.103386e-07 1.489842e-29)
(-3.535251e-07 -6.93491e-08 1.350974e-29)
(-8.724946e-07 8.154107e-07 3.580278e-31)
(-7.540162e-07 5.900188e-07 1.953595e-26)
(-1.213202e-06 1.447311e-06 -7.875757e-30)
(-1.081151e-06 1.236546e-06 -7.869587e-30)
(-1.627719e-06 2.153785e-06 0)
(-1.47734e-06 1.952923e-06 -1.091146e-29)
(-2.111682e-06 2.943219e-06 6.631557e-30)
(-1.969779e-06 2.749462e-06 -2.45546e-30)
(-2.619039e-06 3.812613e-06 -1.881124e-29)
(-2.524559e-06 3.63174e-06 1.481229e-26)
(-3.086724e-06 4.593534e-06 -4.818639e-27)
(-3.102045e-06 4.760663e-06 -8.108695e-27)
(-5.811475e-07 3.081727e-07 9.299768e-28)
(-3.868493e-07 -1.506089e-08 1.463001e-26)
(-9.635181e-07 1.01133e-06 8.383225e-30)
(-8.231142e-07 7.475977e-07 8.404092e-30)
(-1.345929e-06 1.74206e-06 -1.090254e-29)
(-1.183481e-06 1.500966e-06 8.436359e-30)
(-1.819911e-06 2.548428e-06 -1.240104e-27)
(-1.628349e-06 2.324712e-06 -2.089705e-26)
(-2.382611e-06 3.437115e-06 1.454836e-29)
(-2.191769e-06 3.229322e-06 6.303679e-30)
(-2.984609e-06 4.39945e-06 1.771771e-27)
(-2.837061e-06 4.217461e-06 2.213508e-26)
(-3.497941e-06 5.267923e-06 2.378531e-26)
(-3.547422e-06 5.387541e-06 9.172674e-27)
(-6.280396e-07 4.199043e-07 8.180351e-30)
(-4.165685e-07 4.705771e-08 8.105874e-30)
(-1.044658e-06 1.238788e-06 8.457386e-30)
(-8.822166e-07 9.299331e-07 0)
(-1.466752e-06 2.083703e-06 -5.465234e-28)
(-1.269515e-06 1.807185e-06 2.381646e-26)
(-2.000821e-06 3.005364e-06 -1.743006e-30)
(-1.75923e-06 2.754897e-06 -1.048238e-29)
(-2.646697e-06 4.00928e-06 2.5028e-29)
(-2.393899e-06 3.783562e-06 2.360955e-26)
(-3.349112e-06 5.082669e-06 2.386488e-29)
(-3.134986e-06 4.894213e-06 2.497427e-26)
(-3.905758e-06 6.058823e-06 -8.308455e-31)
(-4.018996e-06 6.165655e-06 2.103794e-29)
(-6.674904e-07 5.473118e-07 0)
(-4.409438e-07 1.177076e-07 8.631119e-30)
(-1.109198e-06 1.500947e-06 2.17025e-29)
(-9.206135e-07 1.138781e-06 -1.353867e-29)
(-1.563207e-06 2.47894e-06 2.162115e-29)
(-1.32256e-06 2.158249e-06 2.784778e-26)
(-2.153016e-06 3.532765e-06 1.942059e-29)
(-1.851552e-06 3.25172e-06 0)
(-2.882752e-06 4.667959e-06 2.849172e-29)
(-2.553561e-06 4.422242e-06 2.576812e-26)
(-3.691018e-06 5.867969e-06 6.987649e-31)
(-3.392475e-06 5.671463e-06 9.050741e-30)
(-4.283019e-06 6.966012e-06 -2.439112e-26)
(-4.474535e-06 7.061895e-06 -8.506116e-30)
(-6.904274e-07 6.978114e-07 2.749987e-27)
(-4.569046e-07 1.996608e-07 1.704528e-26)
(-1.134545e-06 1.795546e-06 -2.627777e-29)
(-9.26962e-07 1.378044e-06 -1.859177e-26)
(-1.613839e-06 2.935809e-06 -1.264741e-29)
(-1.322068e-06 2.560832e-06 -4.311349e-26)
(-2.253472e-06 4.141873e-06 1.080788e-29)
(-1.875112e-06 3.819603e-06 -2.426544e-29)
(-3.063926e-06 5.425067e-06 1.080533e-29)
(-2.639425e-06 5.156883e-06 2.51889e-29)
(-3.984232e-06 6.767404e-06 -1.340745e-29)
(-3.573969e-06 6.562901e-06 2.087366e-30)
(-4.591784e-06 8.00337e-06 -1.536227e-29)
(-4.904122e-06 8.093258e-06 -6.41576e-27)
(-6.920143e-07 8.715918e-07 -2.599054e-30)
(-4.599466e-07 2.939464e-07 1.123665e-29)
(-1.112117e-06 2.132547e-06 -5.351107e-29)
(-8.909034e-07 1.653093e-06 -1.266495e-29)
(-1.584062e-06 3.445739e-06 -6.503681e-29)
(-1.246244e-06 3.021158e-06 -1.65212e-26)
(-2.266612e-06 4.844974e-06 2.049695e-27)
(-1.796872e-06 4.473534e-06 -5.834332e-26)
(-3.150795e-06 6.294836e-06 1.647187e-29)
(-2.608419e-06 5.997528e-06 3.562743e-26)
(-4.182187e-06 7.797718e-06 1.304663e-27)
(-3.628361e-06 7.580905e-06 6.110879e-30)
(-4.775438e-06 9.188993e-06 5.476945e-30)
(-5.243738e-06 9.268329e-06 -7.232719e-27)
(-6.591896e-07 1.071315e-06 -1.473691e-27)
(-4.438372e-07 4.020954e-07 2.230723e-33)
(-1.023939e-06 2.530633e-06 -1.125148e-29)
(-7.935659e-07 1.972165e-06 5.433245e-33)
(-1.453234e-06 4.024558e-06 1.169978e-28)
(-1.065064e-06 3.545611e-06 -3.019748e-29)
(-2.149651e-06 5.642743e-06 -9.105676e-28)
(-1.567157e-06 5.206282e-06 -6.935057e-29)
(-3.088745e-06 7.285464e-06 1.321003e-29)
(-2.386213e-06 6.935104e-06 -1.27729e-29)
(-4.222591e-06 8.970829e-06 1.860116e-27)
(-3.47842e-06 8.726498e-06 -1.435032e-29)
(-4.750481e-06 1.052693e-05 7.419152e-30)
(-5.433533e-06 1.0611e-05 6.6406e-27)
(-5.788667e-07 1.299167e-06 1.594623e-27)
(-4.004494e-07 5.244202e-07 -5.427427e-31)
(-8.353007e-07 2.98363e-06 -1.887538e-29)
(-6.09625e-07 2.332431e-06 -6.451366e-31)
(-1.170106e-06 4.698131e-06 9.582423e-28)
(-7.326314e-07 4.139992e-06 -1.871787e-26)
(-1.805482e-06 6.510765e-06 2.219224e-27)
(-1.106834e-06 6.021286e-06 -1.467671e-26)
(-2.783416e-06 8.395586e-06 -2.434788e-27)
(-1.866342e-06 7.966059e-06 -1.745794e-29)
(-4.008997e-06 1.028432e-05 -1.83711e-29)
(-2.995689e-06 9.96916e-06 -6.124673e-26)
(-4.389814e-06 1.199807e-05 0)
(-5.371882e-06 1.212049e-05 -7.339688e-31)
(-4.318916e-07 1.553604e-06 0)
(-3.186242e-07 6.594844e-07 -1.076474e-30)
(-5.07939e-07 3.486129e-06 -1.728491e-29)
(-3.046967e-07 2.728418e-06 1.277744e-30)
(-6.697629e-07 5.44104e-06 -2.99092e-29)
(-1.903061e-07 4.787758e-06 -1.492344e-29)
(-1.162902e-06 7.447483e-06 -4.224668e-27)
(-3.47808e-07 6.889142e-06 -1.256699e-29)
(-2.078033e-06 9.552513e-06 -9.423661e-27)
(-9.284053e-07 9.053979e-06 -1.013264e-26)
(-3.387945e-06 1.17131e-05 -3.257254e-31)
(-2.011315e-06 1.129055e-05 -4.17403e-30)
(-3.512925e-06 1.355249e-05 -6.547506e-30)
(-4.903565e-06 1.376977e-05 1.294813e-29)
(-1.921918e-07 1.829926e-06 3.555297e-27)
(-1.842035e-07 8.040157e-07 1.695399e-29)
(1.176025e-08 4.027977e-06 2.219172e-29)
(1.640582e-07 3.150274e-06 2.542247e-30)
(1.300069e-07 6.230441e-06 2.366852e-30)
(6.358366e-07 5.472789e-06 2.31714e-29)
(-1.167161e-07 8.462354e-06 -3.682143e-29)
(8.220882e-07 7.804809e-06 0)
(-8.546488e-07 1.073295e-05 -4.186979e-29)
(5.346114e-07 1.015746e-05 -2.664822e-26)
(-2.173446e-06 1.317353e-05 4.200021e-27)
(-3.70724e-07 1.259624e-05 -5.219946e-29)
(-1.862256e-06 1.5091e-05 -4.095468e-29)
(-3.810756e-06 1.548435e-05 -7.323735e-27)
(1.711873e-07 2.119695e-06 -3.698525e-27)
(1.786421e-08 9.529126e-07 4.048613e-28)
(7.867294e-07 4.592869e-06 2.204644e-29)
(8.405682e-07 3.583835e-06 2.551208e-29)
(1.326166e-06 7.044077e-06 2.08153e-29)
(1.820865e-06 6.174584e-06 8.720663e-27)
(1.47177e-06 9.490774e-06 -1.617985e-29)
(2.512572e-06 8.736383e-06 -4.321259e-30)
(1.048937e-06 1.195392e-05 -8.517419e-27)
(2.689325e-06 1.1282e-05 -2.40508e-29)
(-4.927236e-08 1.454949e-05 6.430033e-26)
(2.210193e-06 1.390286e-05 -8.173983e-28)
(8.696479e-07 1.662393e-05 -4.810501e-29)
(-1.778238e-06 1.717255e-05 -2.23706e-26)
(6.860159e-07 2.411085e-06 -3.852204e-27)
(2.979771e-07 1.098976e-06 1.937253e-29)
(1.873552e-06 5.163959e-06 4.682827e-29)
(1.752951e-06 4.012351e-06 -3.497093e-28)
(3.005161e-06 7.863761e-06 1.828472e-29)
(3.413305e-06 6.883934e-06 -2.05932e-30)
(3.726434e-06 1.052114e-05 3.581891e-27)
(4.793968e-06 9.693113e-06 -2.153574e-30)
(3.829115e-06 1.317918e-05 6.262653e-27)
(5.626755e-06 1.24605e-05 1.237602e-29)
(3.116972e-06 1.589226e-05 2.638682e-26)
(5.710574e-06 1.527694e-05 -3.671935e-29)
(4.860848e-06 1.830081e-05 -1.343786e-29)
(1.438369e-06 1.87864e-05 1.624848e-26)
(1.359773e-06 2.684877e-06 -2.772506e-29)
(6.532692e-07 1.2356e-06 -2.055528e-29)
(3.297021e-06 5.736118e-06 4.545459e-28)
(2.902487e-06 4.435909e-06 3.822568e-26)
(5.201239e-06 8.711998e-06 -9.977935e-28)
(5.404603e-06 7.620581e-06 7.853859e-28)
(6.690843e-06 1.162808e-05 2.234701e-29)
(7.65682e-06 1.07651e-05 -5.094071e-29)
(7.50212e-06 1.454381e-05 1.445322e-26)
(9.31941e-06 1.386938e-05 4.81027e-26)
(7.494956e-06 1.758175e-05 -3.867686e-30)
(1.037508e-05 1.722184e-05 -4.747855e-29)
(1.12251e-05 2.141907e-05 -5.056195e-30)
(6.724953e-06 2.095847e-05 2.93172e-31)
(2.177641e-06 2.956894e-06 -8.410285e-29)
(1.064529e-06 1.375071e-06 2.426526e-26)
(5.0113e-06 6.314311e-06 5.950653e-27)
(4.241336e-06 4.892145e-06 -6.478273e-29)
(7.87859e-06 9.687285e-06 -8.999767e-29)
(7.752373e-06 8.493046e-06 -3.679975e-29)
(1.028443e-05 1.300472e-05 -2.891787e-29)
(1.097716e-05 1.212652e-05 -9.399555e-26)
(1.217728e-05 1.653231e-05 4.028235e-26)
(1.391236e-05 1.60666e-05 -6.451917e-29)
(1.399299e-05 2.093085e-05 -4.879001e-29)
(1.740598e-05 2.131191e-05 -7.749855e-25)
(2.289774e-05 2.916712e-05 -1.549195e-29)
(1.639948e-05 2.492986e-05 1.117111e-29)
(3.106998e-06 3.286051e-06 3.310408e-27)
(1.50056e-06 1.549797e-06 9.339092e-32)
(6.94164e-06 7.030949e-06 -1.283227e-30)
(5.678196e-06 5.493164e-06 1.296979e-30)
(1.086802e-05 1.093661e-05 1.236339e-30)
(1.029907e-05 9.696521e-06 2.724928e-30)
(1.464307e-05 1.521905e-05 -8.852388e-29)
(1.499853e-05 1.439027e-05 3.250583e-25)
(1.912042e-05 2.083136e-05 -2.478723e-28)
(2.091499e-05 2.08301e-05 -1.575835e-24)
(2.619761e-05 2.58291e-05 -1.698426e-28)
(3.101678e-05 3.148118e-05 4.475742e-24)
(4.57496e-05 4.572384e-05 -1.205269e-29)
(3.671721e-05 1.909526e-05 9.676073e-29)
(4.065831e-06 3.748142e-06 2.523573e-29)
(1.906635e-06 1.817481e-06 -4.629303e-26)
(8.985098e-06 8.116292e-06 -4.167322e-27)
(7.096855e-06 6.421762e-06 2.555871e-30)
(1.434988e-05 1.307637e-05 6.827489e-29)
(1.320947e-05 1.181655e-05 1.037853e-29)
(2.131418e-05 2.003681e-05 3.552048e-25)
(2.150741e-05 1.958368e-05 7.985769e-29)
(3.300773e-05 2.786066e-05 -6.818542e-29)
(3.504534e-05 3.246279e-05 -2.066965e-28)
(5.088422e-05 2.139174e-05 1.537696e-28)
(5.643568e-05 5.109523e-05 -1.146885e-22)
(8.245857e-05 7.006137e-05 1.131347e-27)
(7.275729e-05 -1.200885e-05 7.949607e-22)
(4.93261e-06 4.483169e-06 2.355456e-29)
(2.212756e-06 2.255584e-06 2.355777e-29)
(1.130679e-05 1.010817e-05 7.670894e-30)
(8.590458e-06 8.120565e-06 7.537683e-30)
(2.021094e-05 1.818417e-05 -5.820468e-26)
(1.787341e-05 1.658698e-05 2.142705e-29)
(3.520294e-05 2.891614e-05 3.655557e-29)
(3.433936e-05 3.142728e-05 3.919083e-29)
(5.874438e-05 2.852295e-05 7.651272e-28)
(6.227709e-05 5.441448e-05 6.910171e-29)
(9.065041e-05 -3.538508e-06 -1.613493e-21)
(9.206461e-05 7.765819e-05 7.879738e-28)
(0.0001287137 9.559736e-05 -7.536111e-22)
(0.0001212234 -7.194305e-05 -5.628326e-29)
(5.850288e-06 5.872469e-06 7.522753e-30)
(2.468469e-06 3.01478e-06 0)
(1.516688e-05 1.461293e-05 -5.589488e-27)
(1.091208e-05 1.170835e-05 6.803743e-29)
(3.200711e-05 2.844313e-05 3.886376e-29)
(2.711796e-05 2.727298e-05 1.154166e-29)
(6.136469e-05 3.315558e-05 -2.124615e-22)
(5.666447e-05 5.28261e-05 -5.494166e-28)
(0.0001003208 9.296024e-06 8.441264e-29)
(0.0001003447 8.291953e-05 -3.850011e-28)
(0.0001328951 -5.107781e-05 1.501826e-27)
(0.0001463725 0.000106882 -3.514131e-28)
(0.0001629939 0.000114357 1.680003e-27)
(0.0001769401 -0.0001575988 -5.5648e-21)
(7.475271e-06 8.793884e-06 6.011023e-29)
(2.994306e-06 4.608114e-06 4.085204e-29)
(2.299125e-05 2.447496e-05 5.831767e-29)
(1.624213e-05 2.017662e-05 -1.353579e-25)
(5.231544e-05 3.967997e-05 -5.811431e-28)
(4.426269e-05 4.76726e-05 -2.073759e-29)
(9.757909e-05 2.314552e-05 -1.012038e-27)
(8.584652e-05 8.241363e-05 3.876914e-22)
(0.0001493947 -3.223115e-05 -8.094286e-28)
(0.0001412888 0.0001129268 2.748712e-22)
(0.0001933947 -0.0001282553 -5.234687e-21)
(0.0001953245 0.000131472 3.990195e-22)
(0.0002346077 0.0001385194 1.920405e-28)
(0.0002062942 -0.0002606952 -1.552998e-27)
(1.168007e-05 1.58924e-05 3.261096e-26)
(4.709534e-06 8.734125e-06 -3.023955e-25)
(3.743041e-05 3.86046e-05 2.286985e-23)
(2.642569e-05 3.672413e-05 -1.219972e-29)
(8.071795e-05 4.192015e-05 -7.700713e-28)
(6.753804e-05 7.631677e-05 2.68395e-28)
(0.0001342399 2.101751e-06 -2.248417e-27)
(0.0001234013 0.0001163607 -7.535217e-28)
(0.0001944654 -8.964745e-05 -1.95981e-27)
(0.0001691725 0.0001402829 1.83302e-21)
(0.0002424451 -0.0002230293 -4.865884e-28)
(0.0002321182 0.0001537572 -9.652743e-29)
(0.0002704595 0.0001559916 5.263086e-28)
(0.0002789565 -0.0003912098 -1.319492e-27)
(1.955651e-05 2.920389e-05 -8.764592e-25)
(8.407157e-06 1.699813e-05 5.663753e-29)
(5.716681e-05 4.9929e-05 1.605271e-28)
(4.079844e-05 6.182548e-05 2.232006e-23)
(0.0001118008 3.24795e-05 2.831972e-28)
(9.269608e-05 0.0001101824 -8.570209e-23)
(0.0001725004 -3.386402e-05 -1.333658e-27)
(0.0001545134 0.0001491195 -7.901822e-31)
(0.0002198326 -0.0001537968 1.215585e-20)
(0.0002143361 0.0001705147 -1.491259e-27)
(0.0002575864 -0.0003138694 -3.656311e-20)
(0.0002657517 0.0001772313 7.740122e-28)
(0.0002413779 0.0001625775 2.944857e-28)
(0.0003100884 -0.0005215119 2.819717e-20)
(3.009914e-05 4.462707e-05 1.196023e-23)
(1.380584e-05 2.917404e-05 -1.393687e-29)
(7.810355e-05 5.62401e-05 5.234885e-28)
(5.612334e-05 9.22411e-05 -5.057052e-23)
(0.0001388381 1.570252e-05 1.355608e-21)
(0.0001137032 0.0001452033 -1.493319e-22)
(0.0002005326 -8.148879e-05 -2.654685e-21)
(0.0001748309 0.0001802445 3.581326e-28)
(0.0002536004 -0.0002296697 8.590041e-21)
(0.0002310807 0.0001952453 -2.329695e-28)
(0.0002934573 -0.0004160064 1.228214e-28)
(0.0002791899 0.0001966663 -6.548974e-22)
(0.0003069606 0.000191432 1.400563e-21)
(0.0002955386 -0.0006373206 2.543184e-27)
(4.095515e-05 5.727078e-05 4.899393e-28)
(1.979667e-05 4.337695e-05 -5.896752e-29)
(9.506817e-05 5.939355e-05 4.589702e-28)
(6.854876e-05 0.0001229696 -8.115489e-23)
(0.0001560747 -3.74264e-06 3.248237e-28)
(0.0001250813 0.0001781067 2.422684e-22)
(0.0002135089 -0.0001294806 2.877079e-28)
(0.0001807217 0.00020892 -4.064417e-22)
(0.0002625052 -0.0003077506 5.341344e-21)
(0.0002292922 0.0002182402 2.273212e-28)
(0.0003009656 -0.0005230758 -2.172507e-29)