/*--------------------------------*- C++ -*----------------------------------*\
| =========                 |                                                 |
| \\      /  F ield         | OpenFOAM: The Open Source CFD Toolbox           |
|  \\    /   O peration     | Version:  2206                                  |
|   \\  /    A nd           | Website:  www.openfoam.com                      |
|    \\/     M anipulation  |                                                 |
\*---------------------------------------------------------------------------*/
FoamFile
{
    version     2.0;
    format      ascii;
    arch        "LSB;label=32;scalar=64";
    class       surfaceVectorField;
    location    "1.2";
    object      Ufa_0;
}
// * * * * * * * * * * * * * * * * * * * * * * * * * * * * * * * * * * * * * //

dimensions      [0 1 -1 0 0 0 0];

internalField   nonuniform List<vector> 
26037
(
(4.888941e-08 -8.713793e-06 5.026998e-26)
(-2.974052e-06 -7.680505e-06 2.378442e-29)
(3.11887e-08 -1.09832e-05 -2.252161e-26)
(-2.584876e-06 -1.112309e-05 5.187557e-28)
(8.479286e-09 -8.606776e-06 -1.237046e-29)
(-1.058402e-06 -9.203916e-06 -1.239855e-29)
(1.727244e-08 -6.102377e-06 -5.752544e-30)
(-4.413338e-07 -6.495793e-06 0)
(1.542237e-08 -4.890192e-06 4.302351e-28)
(-2.105473e-07 -5.153015e-06 -5.751168e-30)
(1.154001e-08 -4.162369e-06 -1.146767e-29)
(-1.195443e-07 -4.406046e-06 -6.364728e-30)
(-8.202456e-08 -3.809034e-06 -5.726747e-30)
(8.599059e-09 -3.523434e-06 -4.998256e-28)
(-5.649062e-06 -1.008233e-05 -4.943448e-34)
(-4.797044e-06 -6.261502e-06 -3.177781e-31)
(-3.70494e-06 -9.346146e-06 -4.990961e-34)
(-4.305751e-06 -7.970695e-06 4.079003e-31)
(-1.507391e-06 -7.085896e-06 0)
(-2.052197e-06 -6.718193e-06 5.83589e-30)
(-6.691706e-07 -5.546471e-06 6.885903e-34)
(-1.003224e-06 -5.453091e-06 1.157711e-29)
(-3.455069e-07 -4.668897e-06 1.007911e-33)
(-5.441449e-07 -4.686057e-06 1.077142e-29)
(-2.131034e-07 -4.05263e-06 9.466467e-34)
(-3.398387e-07 -4.160049e-06 3.195389e-34)
(-2.459573e-07 -3.653098e-06 1.209537e-30)
(-1.544439e-07 -3.455708e-06 -5.713652e-30)
(-3.451409e-06 -4.127185e-06 9.291265e-32)
(-2.364286e-06 -2.176933e-06 2.549956e-27)
(-2.66264e-06 -5.322315e-06 6.24287e-30)
(-2.477308e-06 -4.088975e-06 -9.951522e-28)
(-1.54412e-06 -5.070483e-06 6.711992e-28)
(-1.661485e-06 -4.436626e-06 7.460918e-30)
(-8.7811e-07 -4.592461e-06 2.582006e-29)
(-1.027201e-06 -4.277844e-06 1.254008e-29)
(-5.384913e-07 -4.177177e-06 5.753791e-30)
(-6.583233e-07 -4.042669e-06 -8.085707e-30)
(-3.726984e-07 -3.760422e-06 -3.25773e-35)
(-4.653551e-07 -3.765542e-06 0)
(-3.647372e-07 -3.373588e-06 -3.094599e-30)
(-2.887942e-07 -3.2512e-06 5.710693e-30)
(-1.390136e-06 -2.137075e-06 5.801991e-31)
(-7.683378e-07 -1.164347e-06 -5.072362e-31)
(-1.480809e-06 -3.193607e-06 2.483901e-30)
(-1.198888e-06 -2.347348e-06 -1.908363e-27)
(-1.139587e-06 -3.632365e-06 6.021885e-29)
(-1.073292e-06 -3.037588e-06 -3.750082e-28)
(-8.068605e-07 -3.723706e-06 8.772912e-31)
(-8.304798e-07 -3.352612e-06 4.251816e-28)
(-5.852133e-07 -3.630944e-06 -2.696272e-33)
(-6.343484e-07 -3.433449e-06 -7.014415e-30)
(-4.574125e-07 -3.378595e-06 -1.203681e-33)
(-5.106748e-07 -3.324906e-06 -6.072374e-36)
(-4.359775e-07 -3.022281e-06 5.721472e-30)
(-3.822891e-07 -2.952847e-06 -5.709796e-30)
(-5.766503e-07 -1.373784e-06 -1.738164e-29)
(-2.611106e-07 -8.261011e-07 -1.476865e-31)
(-7.922874e-07 -2.185816e-06 -5.713303e-29)
(-5.774132e-07 -1.61264e-06 3.368118e-31)
(-7.625194e-07 -2.756087e-06 1.23928e-30)
(-6.562644e-07 -2.277009e-06 5.058164e-31)
(-6.570465e-07 -3.057152e-06 -9.829605e-29)
(-6.205006e-07 -2.706936e-06 4.849485e-28)
(-5.596483e-07 -3.125157e-06 -7.507464e-28)
(-5.614842e-07 -2.911776e-06 -5.024244e-28)
(-4.892716e-07 -2.96846e-06 6.911761e-28)
(-5.103749e-07 -2.889792e-06 -5.744466e-30)
(-4.705915e-07 -2.637006e-06 7.932519e-30)
(-4.386685e-07 -2.599083e-06 5.722664e-30)
(-2.616325e-07 -1.064474e-06 3.696365e-31)
(-1.025277e-07 -6.993642e-07 0)
(-4.407681e-07 -1.698523e-06 4.065941e-29)
(-2.983403e-07 -1.280952e-06 9.931325e-31)
(-5.141026e-07 -2.22949e-06 -8.963402e-29)
(-4.145622e-07 -1.847784e-06 -5.679972e-30)
(-5.24725e-07 -2.559655e-06 9.162874e-29)
(-4.66982e-07 -2.256896e-06 -5.329612e-30)
(-5.119698e-07 -2.672952e-06 -5.039488e-30)
(-4.867476e-07 -2.469086e-06 6.67638e-28)
(-4.916923e-07 -2.556742e-06 -8.041733e-28)
(-4.898079e-07 -2.468098e-06 -5.10629e-30)
(-4.811343e-07 -2.240769e-06 -1.152958e-29)
(-4.672637e-07 -2.2174e-06 -6.835691e-28)
(-1.391337e-07 -9.155666e-07 6.229764e-31)
(-5.268838e-08 -6.37578e-07 -1.100976e-30)
(-2.713432e-07 -1.426267e-06 -4.658143e-30)
(-1.783823e-07 -1.098137e-06 4.850643e-28)
(-3.671709e-07 -1.874621e-06 -6.587193e-28)
(-2.867031e-07 -1.565988e-06 5.217179e-28)
(-4.289727e-07 -2.166071e-06 -4.573314e-30)
(-3.687121e-07 -1.911004e-06 -5.930194e-30)
(-4.645584e-07 -2.262574e-06 9.5468e-29)
(-4.266822e-07 -2.085946e-06 2.639861e-30)
(-4.792167e-07 -2.149318e-06 7.291544e-31)
(-4.620013e-07 -2.063466e-06 1.456442e-30)
(-4.771743e-07 -1.839082e-06 7.194919e-31)
(-4.77008e-07 -1.825338e-06 4.111892e-33)
(-9.193521e-08 -8.200588e-07 -4.379352e-31)
(-3.747848e-08 -5.949626e-07 -1.150398e-27)
(-1.935893e-07 -1.23664e-06 1.323763e-30)
(-1.270783e-07 -9.673848e-07 -7.88943e-31)
(-2.879168e-07 -1.60063e-06 6.670766e-31)
(-2.206313e-07 -1.349095e-06 6.82388e-31)
(-3.668776e-07 -1.831872e-06 1.318698e-30)
(-3.080491e-07 -1.622097e-06 7.418682e-31)
(-4.242149e-07 -1.886736e-06 2.03751e-30)
(-3.806676e-07 -1.74294e-06 1.643237e-27)
(-4.599797e-07 -1.75186e-06 9.658788e-29)
(-4.334157e-07 -1.685195e-06 1.455185e-30)
(-4.651344e-07 -1.443451e-06 7.244664e-31)
(-4.751142e-07 -1.430358e-06 -5.003914e-30)
(-7.266348e-08 -7.422851e-07 -1.43558e-30)
(-3.312854e-08 -5.58473e-07 1.520995e-27)
(-1.541171e-07 -1.079441e-06 -1.431028e-30)
(-1.033388e-07 -8.562844e-07 -1.939124e-27)
(-2.399334e-07 -1.367636e-06 7.384419e-29)
(-1.826622e-07 -1.162599e-06 -9.733724e-28)
(-3.224425e-07 -1.533918e-06 4.277403e-30)
(-2.668634e-07 -1.366551e-06 2.540823e-30)
(-3.899771e-07 -1.541267e-06 1.002886e-28)
(-3.446777e-07 -1.431727e-06 1.806999e-27)
(-4.386362e-07 -1.376731e-06 7.270521e-31)
(-4.07197e-07 -1.335387e-06 7.268279e-31)
(-4.507685e-07 -1.071492e-06 0)
(-4.672454e-07 -1.043153e-06 -5.820597e-31)
(-6.386705e-08 -6.725064e-07 -2.793666e-31)
(-3.220399e-08 -5.252314e-07 1.268614e-30)
(-1.319134e-07 -9.391371e-07 -2.309037e-30)
(-9.0934e-08 -7.563403e-07 -1.548718e-30)
(-2.087599e-07 -1.159183e-06 1.01104e-30)
(-1.590246e-07 -9.957044e-07 -2.42098e-30)
(-2.897625e-07 -1.264724e-06 1.766572e-30)
(-2.380037e-07 -1.137223e-06 2.112823e-27)
(-3.620197e-07 -1.22569e-06 -1.889744e-32)
(-3.172364e-07 -1.150406e-06 -1.988697e-27)
(-4.193995e-07 -1.030095e-06 0)
(-3.860791e-07 -1.016261e-06 0)
(-4.390811e-07 -7.284804e-07 0)
(-4.588067e-07 -6.795462e-07 8.27973e-31)
(-5.935072e-08 -6.091351e-07 0)
(-3.260677e-08 -4.95091e-07 0)
(-1.180955e-07 -8.126559e-07 -1.659988e-30)
(-8.397397e-08 -6.663001e-07 1.8376e-30)
(-1.87485e-07 -9.720676e-07 1.9586e-31)
(-1.437356e-07 -8.462495e-07 -2.487206e-27)
(-2.661734e-07 -1.022886e-06 1.903045e-30)
(-2.183393e-07 -9.323312e-07 -8.991178e-31)
(-3.4143e-07 -9.407892e-07 1.954149e-32)
(-2.984144e-07 -8.984098e-07 2.213966e-27)
(-4.05836e-07 -7.14591e-07 0)
(-3.725484e-07 -7.285551e-07 0)
(-4.339538e-07 -4.162955e-07 -7.838373e-32)
(-4.547453e-07 -3.450535e-07 6.590758e-31)
(-5.732475e-08 -5.523588e-07 1.836835e-30)
(-3.398972e-08 -4.681078e-07 0)
(-1.096831e-07 -6.996852e-07 6.446551e-32)
(-8.07068e-08 -5.859533e-07 2.896862e-27)
(-1.738487e-07 -8.05435e-07 -4.560724e-30)
(-1.348558e-07 -7.133904e-07 -2.506449e-30)
(-2.513059e-07 -8.074712e-07 -1.006309e-28)
(-2.070758e-07 -7.504113e-07 -2.629473e-27)
(-3.296797e-07 -6.859572e-07 9.842765e-31)
(-2.889791e-07 -6.740764e-07 2.852212e-30)
(-4.007474e-07 -4.301983e-07 -7.835674e-32)
(-3.685621e-07 -4.707995e-07 -1.73916e-30)
(-4.381717e-07 -1.339482e-07 -2.019032e-27)
(-4.58631e-07 -4.036725e-08 2.20787e-28)
(-5.748175e-08 -5.01841e-07 1.236335e-30)
(-3.640693e-08 -4.440559e-07 1.770923e-30)
(-1.059669e-07 -5.994906e-07 -4.965409e-29)
(-8.081819e-08 -5.145545e-07 1.236537e-30)
(-1.67364e-07 -6.578406e-07 -2.893759e-30)
(-1.318299e-07 -5.955616e-07 -1.459498e-30)
(-2.455146e-07 -6.162883e-07 -2.811712e-31)
(-2.040018e-07 -5.889565e-07 -2.915528e-30)
(-3.280237e-07 -4.586661e-07 1.260821e-31)
(-2.895405e-07 -4.742997e-07 2.986934e-27)
(-4.060745e-07 -1.74483e-07 -1.720635e-30)
(-3.753129e-07 -2.396293e-07 -2.545473e-27)
(-4.534696e-07 1.217048e-07 2.264341e-27)
(-4.728853e-07 2.365312e-07 1.855692e-32)
(-5.986986e-08 -4.56945e-07 1.771265e-30)
(-3.996698e-08 -4.225262e-07 3.035862e-27)
(-1.067875e-07 -5.104929e-07 -7.282864e-31)
(-8.427705e-08 -4.507839e-07 0)
(-1.677563e-07 -5.266528e-07 -8.151019e-29)
(-1.34138e-07 -4.903533e-07 -2.181338e-30)
(-2.488206e-07 -4.45936e-07 3.331251e-30)
(-2.07007e-07 -4.445756e-07 7.247281e-30)
(-3.370331e-07 -2.548916e-07 2.171965e-30)
(-2.978809e-07 -2.954775e-07 3.961365e-27)
(-4.228055e-07 5.663589e-08 -1.276803e-31)
(-3.928619e-07 -3.053915e-08 -1.853642e-30)
(-4.807757e-07 3.550794e-07 -1.533245e-31)
(-4.989384e-07 4.893766e-07 -1.300163e-30)
(-6.451878e-08 -4.165808e-07 1.904877e-30)
(-4.47702e-08 -4.029569e-07 1.903999e-30)
(-1.117595e-07 -4.305426e-07 -1.451337e-30)
(-9.125121e-08 -3.929833e-07 2.558996e-30)
(-1.728318e-07 -4.085031e-07 -1.346435e-28)
(-1.425423e-07 -3.950133e-07 -1.451707e-30)
(-2.56416e-07 -2.932787e-07 1.672724e-27)
(-2.193313e-07 -3.133326e-07 -3.040178e-27)
(-3.543031e-07 -6.938252e-08 1.377121e-29)
(-3.176112e-07 -1.322741e-07 1.530785e-29)
(-4.509745e-07 2.681477e-07 -1.879551e-30)
(-4.226064e-07 1.614188e-07 1.42654e-30)
(-5.210127e-07 5.710918e-07 -2.901335e-27)
(-5.376237e-07 7.228127e-07 -3.586992e-30)
(-7.16658e-08 -3.796184e-07 2.55776e-30)
(-5.085415e-08 -3.847574e-07 0)
(-1.22193e-07 -3.573899e-07 2.559512e-30)
(-1.016991e-07 -3.393926e-07 4.780058e-27)
(-1.888037e-07 -3.003946e-07 -9.50414e-31)
(-1.568523e-07 -3.066776e-07 -7.201709e-31)
(-2.797031e-07 -1.543283e-07 2.209648e-28)
(-2.409615e-07 -1.924256e-07 -1.669008e-30)
(-3.870193e-07 1.012936e-07 2.882507e-30)
(-3.493946e-07 1.911841e-08 1.456337e-30)
(-4.928446e-07 4.647886e-07 3.003174e-28)
(-4.649725e-07 3.41108e-07 1.42592e-30)
(-5.74726e-07 7.748096e-07 -5.952217e-31)
(-5.899935e-07 9.41794e-07 8.061437e-31)
(-8.107358e-08 -3.448372e-07 5.551598e-30)
(-5.827286e-08 -3.673872e-07 2.786721e-30)
(-1.365565e-07 -2.886101e-07 4.835631e-30)
(-1.154747e-07 -2.883395e-07 5.411013e-27)
(-2.090935e-07 -1.987731e-07 -9.756756e-29)
(-1.761936e-07 -2.225097e-07 -2.155086e-30)
(-3.091883e-07 -2.208702e-08 -7.285052e-31)
(-2.688231e-07 -7.682197e-08 -1.431138e-30)
(-4.288331e-07 2.627629e-07 0)
(-3.898297e-07 1.643666e-07 0)
(-5.471022e-07 6.516907e-07 0)
(-5.192366e-07 5.134868e-07 1.195012e-30)
(-6.421849e-07 9.712452e-07 -2.783977e-30)
(-6.563132e-07 1.151402e-06 -1.391954e-30)
(-9.288401e-08 -3.112476e-07 -1.027736e-28)
(-6.712026e-08 -3.503559e-07 4.997212e-27)
(-1.553358e-07 -2.221731e-07 -7.525712e-29)
(-1.326956e-07 -2.383387e-07 5.629547e-30)
(-2.360444e-07 -1.006104e-07 -1.063749e-28)
(-2.009952e-07 -1.400668e-07 -3.578908e-30)
(-3.477524e-07 1.059347e-07 -7.254837e-31)
(-3.045819e-07 3.646289e-08 -2.134702e-30)
(-4.819517e-07 4.193885e-07 1.208904e-30)
(-4.405338e-07 3.068668e-07 0)
(-6.146047e-07 8.336637e-07 -3.644544e-28)
(-5.86289e-07 6.829172e-07 5.286367e-27)
(-7.2415e-07 1.165158e-06 -4.163854e-30)
(-7.373871e-07 1.356508e-06 -3.798078e-28)
(-1.071681e-07 -2.778638e-07 -1.175002e-28)
(-7.748652e-08 -3.331801e-07 5.985456e-30)
(-1.786072e-07 -1.561711e-07 -8.289434e-29)
(-1.534679e-07 -1.879945e-07 6.910153e-27)
(-2.696692e-07 -3.074718e-09 -2.296742e-28)
(-2.313517e-07 -5.708326e-08 1.374545e-30)
(-3.954167e-07 2.332036e-07 -1.443557e-30)
(-3.478594e-07 1.505004e-07 -1.420459e-30)
(-5.467908e-07 5.74956e-07 2.845877e-30)
(-4.9895e-07 4.495176e-07 1.135773e-29)
(-6.962271e-07 1.01528e-06 1.427599e-30)
(-6.634994e-07 8.517858e-07 1.686644e-29)
(-8.210812e-07 1.360979e-06 1.364439e-30)
(-8.34214e-07 1.56177e-06 -4.165871e-28)
(-1.240511e-07 -2.43793e-07 1.026432e-29)
(-8.947563e-08 -3.153776e-07 6.344038e-27)
(-2.064965e-07 -8.884929e-08 1.079474e-29)
(-1.780633e-07 -1.359261e-07 7.764871e-27)
(-3.09719e-07 9.641891e-08 3.52053e-30)
(-2.678163e-07 2.86332e-08 7.429908e-27)
(-4.497107e-07 3.631348e-07 1.125477e-29)
(-4.002967e-07 2.681689e-07 5.078722e-30)
(-6.167889e-07 7.286255e-07 2.851987e-27)
(-5.707589e-07 5.959817e-07 1.269691e-29)
(-7.898672e-07 1.20135e-06 1.08134e-27)
(-7.575728e-07 1.025824e-06 1.796526e-29)
(-9.36064e-07 1.563376e-06 -1.713556e-30)
(-9.47604e-07 1.771836e-06 2.744775e-30)
(-1.43783e-07 -2.080659e-07 1.713118e-28)
(-1.032181e-07 -2.964996e-07 2.963957e-30)
(-2.396974e-07 -1.839017e-08 1.185641e-28)
(-2.067683e-07 -8.071689e-08 8.75411e-27)
(-3.586133e-07 2.003584e-07 1.347234e-29)
(-3.108001e-07 1.195014e-07 8.473689e-27)
(-5.202761e-07 4.986185e-07 3.063692e-28)
(-4.62565e-07 3.927661e-07 8.112713e-27)
(-7.091806e-07 8.87689e-07 5.199831e-30)
(-6.570009e-07 7.50535e-07 1.389514e-30)
(-9.062313e-07 1.394851e-06 -7.289265e-31)
(-8.703245e-07 1.210671e-06 6.915768e-27)
(-1.071534e-06 1.777786e-06 -6.553341e-27)
(-1.081927e-06 1.991267e-06 -5.301492e-28)
(-1.665336e-07 -1.697873e-07 5.086917e-30)
(-1.188481e-07 -2.760819e-07 -3.968547e-30)
(-2.782257e-07 5.722543e-08 1.214994e-28)
(-2.397226e-07 -2.088769e-08 5.08766e-30)
(-4.150596e-07 3.119677e-07 1.296279e-29)
(-3.604696e-07 2.180952e-07 4.911839e-30)
(-5.992483e-07 6.44167e-07 8.06399e-30)
(-5.344204e-07 5.282052e-07 9.141346e-27)
(-8.141531e-07 1.0645e-06 4.061571e-30)
(-7.556575e-07 9.205138e-07 -2.882057e-30)
(-1.039096e-06 1.602894e-06 4.108498e-30)
(-9.995357e-07 1.413669e-06 4.147639e-30)
(-1.229398e-06 2.011404e-06 8.213595e-27)
(-1.2379e-06 2.226465e-06 5.678303e-30)
(-1.924036e-07 -1.279124e-07 -3.969264e-30)
(-1.364265e-07 -2.535393e-07 -8.94881e-27)
(-3.223606e-07 1.400248e-07 0)
(-2.77034e-07 4.52251e-08 0)
(-4.801739e-07 4.343873e-07 1.344058e-30)
(-4.172078e-07 3.271697e-07 0)
(-6.908644e-07 8.041326e-07 3.734697e-28)
(-6.170756e-07 6.784396e-07 -1.03505e-26)
(-9.363311e-07 1.259707e-06 -2.941269e-30)
(-8.695205e-07 1.109844e-06 -1.005371e-26)
(-1.193836e-06 1.831972e-06 3.745324e-30)
(-1.145433e-06 1.638558e-06 4.451454e-30)
(-1.409851e-06 2.269946e-06 3.721045e-30)
(-1.420527e-06 2.486748e-06 4.331464e-30)
(-2.214633e-07 -8.123543e-08 -8.717405e-30)
(-1.55964e-07 -2.282486e-07 -9.961546e-27)
(-3.723187e-07 2.324037e-07 0)
(-3.187366e-07 1.195369e-07 7.061472e-31)
(-5.544923e-07 5.712664e-07 -6.225827e-30)
(-4.813008e-07 4.50034e-07 -4.986817e-30)
(-7.958376e-07 9.8378e-07 -3.972302e-28)
(-7.116871e-07 8.482809e-07 -4.877655e-30)
(-1.074481e-06 1.480125e-06 -6.348908e-30)
(-1.001975e-06 1.324897e-06 -1.003817e-26)
(-1.36418e-06 2.081677e-06 4.479368e-30)
(-1.318966e-06 1.894654e-06 6.849624e-27)
(-1.62729e-06 2.568271e-06 0)
(-1.632776e-06 2.784807e-06 -3.68458e-30)
(-2.536855e-07 -2.842709e-08 -4.087837e-30)
(-1.773284e-07 -1.995007e-07 -4.79067e-30)
(-4.282004e-07 3.371879e-07 1.414728e-28)
(-3.644012e-07 2.042188e-07 7.22094e-30)
(-6.38912e-07 7.270825e-07 -3.639639e-30)
(-5.523332e-07 5.905428e-07 -1.332086e-26)
(-9.180052e-07 1.189168e-06 4.61574e-28)
(-8.18395e-07 1.043566e-06 1.348213e-30)
(-1.243444e-06 1.733813e-06 6.157111e-30)
(-1.154407e-06 1.57368e-06 1.259097e-26)
(-1.576702e-06 2.370289e-06 4.933322e-30)
(-1.522787e-06 2.192735e-06 9.949508e-30)
(-1.886405e-06 2.920392e-06 2.590897e-30)
(-1.892707e-06 3.131137e-06 -6.638125e-30)
(-2.885385e-07 3.206401e-08 6.510973e-30)
(-2.001707e-07 -1.664783e-07 5.886587e-30)
(-4.890669e-07 4.575777e-07 2.863457e-31)
(-4.129343e-07 3.016986e-07 1.510782e-26)
(-7.322818e-07 9.070413e-07 -6.235398e-30)
(-6.287202e-07 7.52875e-07 -1.316515e-29)
(-1.055171e-06 1.428051e-06 8.187041e-30)
(-9.356461e-07 1.270477e-06 0)
(-1.433301e-06 2.031273e-06 1.090791e-27)
(-1.325509e-06 1.865186e-06 5.624067e-30)
(-1.823662e-06 2.7247e-06 1.441604e-27)
(-1.756075e-06 2.549067e-06 5.131132e-30)
(-2.187716e-06 3.342006e-06 5.126119e-30)
(-2.197545e-06 3.543677e-06 5.831774e-33)
(-3.25107e-07 1.019226e-07 1.304487e-29)
(-2.238327e-07 -1.282077e-07 1.31661e-26)
(-5.531755e-07 5.969795e-07 2.337437e-31)
(-4.623529e-07 4.14618e-07 1.513842e-29)
(-8.32596e-07 1.116296e-06 -6.935586e-30)
(-7.074973e-07 9.413722e-07 -1.639257e-26)
(-1.206398e-06 1.707557e-06 -2.561875e-30)
(-1.060073e-06 1.534996e-06 0)
(-1.647966e-06 2.381833e-06 -1.147374e-27)
(-1.512539e-06 2.206915e-06 -2.562242e-30)
(-2.109327e-06 3.145906e-06 1.483123e-27)
(-2.017553e-06 2.969242e-06 6.442584e-30)
(-2.526963e-06 3.835529e-06 -2.337143e-29)
(-2.556215e-06 4.032941e-06 -2.536322e-30)
(-3.616274e-07 1.829852e-07 1.444707e-29)
(-2.473224e-07 -8.356317e-08 1.307929e-29)
(-6.173535e-07 7.590351e-07 3.489894e-31)
(-5.096558e-07 5.458782e-07 1.873695e-26)
(-9.355347e-07 1.360017e-06 -7.636212e-30)
(-7.836548e-07 1.160538e-06 -7.630229e-30)
(-1.366667e-06 2.034244e-06 0)
(-1.185037e-06 1.843019e-06 -1.066926e-29)
(-1.881917e-06 2.793243e-06 6.430883e-30)
(-1.707985e-06 2.605607e-06 -2.470587e-30)
(-2.425307e-06 3.64101e-06 -1.897086e-29)
(-2.300586e-06 3.459792e-06 1.443187e-26)
(-2.90651e-06 4.410113e-06 -4.906773e-27)
(-2.950597e-06 4.585431e-06 -7.853297e-27)
(-3.958072e-07 2.772593e-07 8.949596e-28)
(-2.680143e-07 -3.104997e-08 1.395444e-26)
(-6.767788e-07 9.475477e-07 8.103838e-30)
(-5.489931e-07 6.978527e-07 8.12401e-30)
(-1.033775e-06 1.643443e-06 -1.066053e-29)
(-8.492982e-07 1.415172e-06 8.132454e-30)
(-1.526835e-06 2.414213e-06 -1.175255e-27)
(-1.299897e-06 2.200896e-06 -2.011932e-26)
(-2.126568e-06 3.27131e-06 1.410688e-29)
(-1.898282e-06 3.068412e-06 6.022374e-30)
(-2.773805e-06 4.215872e-06 1.713522e-27)
(-2.588581e-06 4.0284e-06 2.148467e-26)
(-3.304039e-06 5.07362e-06 2.313673e-26)
(-3.393037e-06 5.212712e-06 8.758468e-27)
(-4.20969e-07 3.852729e-07 7.925073e-30)
(-2.841439e-07 2.923374e-08 7.852921e-30)
(-7.229304e-07 1.166959e-06 8.152724e-30)
(-5.752954e-07 8.742233e-07 0)
(-1.116239e-06 1.9727e-06 -5.121982e-28)
(-8.947537e-07 1.710882e-06 2.279965e-26)
(-1.671919e-06 2.854855e-06 -1.731757e-30)
(-1.390608e-06 2.615994e-06 -1.020544e-29)
(-2.360728e-06 3.825117e-06 2.426896e-29)
(-2.064867e-06 3.603734e-06 2.278761e-26)
(-3.117358e-06 4.882896e-06 2.314461e-29)
(-2.858141e-06 4.684863e-06 2.42537e-26)
(-3.693711e-06 5.847726e-06 -8.075636e-31)
(-3.856641e-06 5.983538e-06 2.043977e-29)
(-4.367422e-07 5.088183e-07 0)
(-2.935503e-07 9.801897e-08 8.313299e-30)
(-7.490252e-07 1.420634e-06 2.102943e-29)
(-5.783429e-07 1.077052e-06 -1.315009e-29)
(-1.170304e-06 2.354701e-06 2.09506e-29)
(-9.03657e-07 2.05127e-06 2.647059e-26)
(-1.784222e-06 3.364543e-06 1.88276e-29)
(-1.438871e-06 3.097096e-06 0)
(-2.562792e-06 4.462946e-06 2.762417e-29)
(-2.185176e-06 4.222264e-06 2.477457e-26)
(-3.433719e-06 5.647287e-06 6.733218e-31)
(-3.083468e-06 5.439466e-06 8.776796e-30)
(-4.048501e-06 6.733514e-06 -2.381219e-26)
(-4.297521e-06 6.862965e-06 -8.253016e-30)
(-4.332555e-07 6.553597e-07 2.634425e-27)
(-2.93106e-07 1.782389e-07 1.60031e-26)
(-7.334697e-07 1.707179e-06 -2.551248e-29)
(-5.472422e-07 1.310893e-06 -1.748095e-26)
(-1.174979e-06 2.798239e-06 -1.227332e-29)
(-8.560603e-07 2.444019e-06 -4.049775e-26)
(-1.841153e-06 3.955452e-06 1.047619e-29)
(-1.415261e-06 3.650101e-06 -2.344941e-29)
(-2.706435e-06 5.198104e-06 1.047372e-29)
(-2.228765e-06 4.93708e-06 2.451047e-29)
(-3.697907e-06 6.523588e-06 -1.318957e-29)
(-3.23002e-06 6.30798e-06 2.116135e-30)
(-4.332398e-06 7.7483e-06 -1.517701e-29)
(-4.708838e-06 7.873654e-06 -6.128364e-27)
(-4.067226e-07 8.257906e-07 -2.517651e-30)
(-2.790852e-07 2.713242e-07 1.088237e-29)
(-6.682391e-07 2.037376e-06 -5.180703e-29)
(-4.726787e-07 1.582102e-06 -1.222535e-29)
(-1.096783e-06 3.296962e-06 -6.293589e-29)
(-7.322887e-07 2.897165e-06 -1.52836e-26)
(-1.808421e-06 4.641719e-06 1.907425e-27)
(-1.288558e-06 4.292175e-06 -5.491134e-26)
(-2.753623e-06 6.047045e-06 1.615375e-29)
(-2.154604e-06 5.760872e-06 3.408273e-26)
(-3.865092e-06 7.531519e-06 1.19575e-27)
(-3.248441e-06 7.305667e-06 6.205019e-30)
(-4.490562e-06 8.91344e-06 5.593188e-30)
(-5.029863e-06 9.028743e-06 -6.84769e-27)
(-3.456512e-07 1.023663e-06 -1.409963e-27)
(-2.459975e-07 3.79351e-07 2.159147e-33)
(-5.36428e-07 2.431186e-06 -1.075939e-29)
(-3.373294e-07 1.900399e-06 5.151266e-33)
(-9.183892e-07 3.86881e-06 2.909911e-29)
(-5.058865e-07 3.419513e-06 -2.919125e-29)
(-1.646337e-06 5.427322e-06 -6.457553e-28)
(-1.014011e-06 5.019841e-06 -6.815406e-29)
(-2.652207e-06 7.021283e-06 1.280069e-29)
(-1.891412e-06 6.688969e-06 -1.354978e-29)
(-3.87479e-06 8.686206e-06 1.610067e-27)
(-3.064002e-06 8.437492e-06 -1.392884e-29)
(-4.441217e-06 1.023646e-05 7.567805e-30)
(-5.201795e-06 1.035492e-05 6.152388e-27)
(-2.384802e-07 1.252455e-06 1.52375e-27)
(-1.86603e-07 5.034085e-07 -5.434283e-31)
(-3.075636e-07 2.885313e-06 -1.836357e-29)
(-1.187254e-07 2.265268e-06 -6.478102e-31)
(-5.923807e-07 4.542434e-06 9.514224e-28)
(-1.338428e-07 4.02019e-06 -1.709279e-26)
(-1.260628e-06 6.293353e-06 3.14874e-27)
(-5.155179e-07 5.841222e-06 -1.324773e-26)
(-2.310944e-06 8.124239e-06 -2.066256e-27)
(-1.335841e-06 7.722655e-06 -1.68757e-29)
(-3.633077e-06 9.989422e-06 -1.801521e-29)
(-2.549993e-06 9.67687e-06 -5.802869e-26)
(-4.058841e-06 1.170132e-05 0)
(-5.12454e-06 1.185476e-05 -7.555495e-31)
(-6.768656e-08 1.512295e-06 0)
(-9.060356e-08 6.428896e-07 -1.078125e-30)
(5.392543e-08 3.397526e-06 -1.668792e-29)
(2.154675e-07 2.673423e-06 1.284009e-30)
(-5.746505e-08 5.297351e-06 -2.868391e-29)
(4.39777e-07 4.6858e-06 -1.430485e-29)
(-5.85287e-07 7.24212e-06 -4.179737e-27)
(2.716939e-07 6.729026e-06 -1.194058e-29)
(-1.574135e-06 9.288062e-06 -1.061481e-26)
(-3.693604e-07 8.827026e-06 -8.215716e-27)
(-2.987986e-06 1.141886e-05 4.850381e-31)
(-1.535861e-06 1.100403e-05 -3.452691e-30)
(-3.160398e-06 1.325463e-05 -6.773748e-30)
(-4.644658e-06 1.35044e-05 1.26084e-29)
(1.916271e-07 1.799803e-06 3.378138e-27)
(5.584798e-08 7.950107e-07 1.632706e-29)
(6.001108e-07 3.959645e-06 -3.675217e-30)
(7.081647e-07 3.115847e-06 2.555455e-30)
(7.673571e-07 6.11213e-06 2.388311e-30)
(1.290801e-06 5.400119e-06 2.243937e-29)
(4.84751e-07 8.281182e-06 -3.559488e-29)
(1.465505e-06 7.674888e-06 0)
(-3.225666e-07 1.048497e-05 -4.069362e-29)
(1.123671e-06 9.95064e-06 -2.411581e-26)
(-1.747904e-06 1.288307e-05 4.481156e-27)
(1.454054e-07 1.230865e-05 -5.231693e-29)
(-1.470075e-06 1.4774e-05 -4.240087e-29)
(-3.540944e-06 1.522299e-05 -6.472407e-27)
(5.713509e-07 2.106546e-06 -3.502738e-27)
(2.688847e-07 9.542537e-07 -3.706682e-29)
(1.397416e-06 4.554117e-06 2.130094e-29)
(1.408066e-06 3.576229e-06 2.466515e-29)
(1.987276e-06 6.959836e-06 2.006159e-29)
(2.504887e-06 6.136691e-06 7.552876e-27)
(2.103028e-06 9.335443e-06 -1.539885e-29)
(3.194349e-06 8.634367e-06 -4.38943e-30)
(1.624433e-06 1.170972e-05 -8.02935e-27)
(3.338032e-06 1.107592e-05 -2.344973e-29)
(4.333272e-07 1.423493e-05 6.533879e-26)
(2.818077e-06 1.357025e-05 1.930295e-27)
(1.363984e-06 1.621379e-05 -5.016073e-29)
(-1.477698e-06 1.688224e-05 -1.907133e-26)
(1.104046e-06 2.418137e-06 -3.636252e-27)
(5.620108e-07 1.11147e-06 1.867913e-29)
(2.514365e-06 5.157225e-06 4.513207e-29)
(2.354955e-06 4.031075e-06 -7.575833e-28)
(3.709889e-06 7.808152e-06 1.737364e-29)
(4.153008e-06 6.872382e-06 -1.965124e-30)
(4.425718e-06 1.03686e-05 3.317617e-27)
(5.562508e-06 9.592866e-06 -2.186389e-30)
(4.509864e-06 1.28871e-05 5.618267e-27)
(6.409567e-06 1.220076e-05 1.120312e-29)
(3.737441e-06 1.546758e-05 2.819334e-26)
(6.506713e-06 1.480919e-05 -3.649527e-29)
(5.618916e-06 1.769306e-05 -1.426451e-29)
(1.868674e-06 1.83693e-05 2.200193e-26)
(1.806347e-06 2.709227e-06 -2.679426e-29)
(9.386502e-07 1.25639e-06 -1.973287e-29)
(3.998196e-06 5.750051e-06 4.250501e-28)
(3.569527e-06 4.468841e-06 3.658871e-26)
(6.004781e-06 8.655867e-06 -9.096213e-28)
(6.25872e-06 7.606338e-06 8.53389e-28)
(7.542867e-06 1.14209e-05 2.139089e-29)
(8.603522e-06 1.061086e-05 -4.885614e-29)
(8.400035e-06 1.41094e-05 1.433937e-26)
(1.035387e-05 1.346848e-05 5.241288e-26)
(8.431136e-06 1.69346e-05 -4.063155e-30)
(1.156727e-05 1.652355e-05 -4.879524e-29)
(1.273365e-05 2.055054e-05 -4.054593e-29)
(7.620483e-06 2.028903e-05 -1.090724e-29)
(2.680248e-06 2.986354e-06 -8.125722e-29)
(1.388359e-06 1.396278e-06 2.303002e-26)
(5.831283e-06 6.319189e-06 5.596818e-27)
(5.024731e-06 4.912516e-06 -6.276809e-29)
(8.877002e-06 9.574297e-06 -8.697943e-29)
(8.811159e-06 8.424931e-06 -3.583789e-29)
(1.141351e-05 1.265678e-05 -2.773936e-29)
(1.221962e-05 1.184025e-05 -1.03892e-25)
(1.350448e-05 1.586833e-05 4.097353e-26)
(1.542302e-05 1.544702e-05 -6.645308e-29)
(1.574054e-05 2.001709e-05 -8.44396e-29)
(1.962029e-05 2.037005e-05 -8.791269e-25)
(2.643802e-05 2.803231e-05 -7.867316e-26)
(1.869916e-05 2.417593e-05 -3.073761e-23)
(3.708468e-06 3.298444e-06 3.085264e-27)
(1.884477e-06 1.55774e-06 3.645293e-32)
(7.960324e-06 6.979436e-06 -1.289681e-30)
(6.636714e-06 5.460896e-06 1.301102e-30)
(1.217261e-05 1.069453e-05 1.285309e-30)
(1.165176e-05 9.508398e-06 2.77803e-30)
(1.627116e-05 1.46578e-05 -8.95493e-29)
(1.674266e-05 1.39133e-05 3.666715e-25)
(2.151568e-05 1.993376e-05 -2.411316e-28)
(2.35723e-05 2.002937e-05 -1.800121e-24)
(3.018311e-05 2.511783e-05 -3.363009e-23)
(3.591838e-05 3.035652e-05 2.87911e-24)
(5.393122e-05 4.420772e-05 2.836588e-28)
(4.258205e-05 2.038598e-05 -3.954431e-22)
(4.805681e-06 3.7117e-06 2.431461e-29)
(2.363523e-06 1.792581e-06 -4.513564e-26)
(1.027237e-05 7.949507e-06 -4.166883e-27)
(8.265169e-06 6.286719e-06 2.566329e-30)
(1.613426e-05 1.265786e-05 6.715326e-29)
(1.500275e-05 1.147799e-05 1.080772e-29)
(2.409558e-05 1.931852e-05 3.378709e-25)
(2.44036e-05 1.900637e-05 7.825464e-29)
(3.818539e-05 2.729537e-05 -2.644015e-28)
(4.054504e-05 3.164377e-05 -2.338551e-23)
(5.982493e-05 2.316323e-05 1.633242e-28)
(6.672288e-05 4.97754e-05 -6.357333e-28)
(9.810858e-05 6.780285e-05 -1.15358e-22)
(8.493784e-05 -4.768604e-06 2.116199e-28)
(5.816929e-06 4.359952e-06 2.257237e-29)
(2.719477e-06 2.172022e-06 2.257545e-29)
(1.297914e-05 9.80191e-06 8.046635e-30)
(1.003366e-05 7.880628e-06 7.899408e-30)
(2.309202e-05 1.769059e-05 -5.111848e-26)
(2.05985e-05 1.62408e-05 2.292877e-29)
(4.070553e-05 2.858879e-05 1.521238e-28)
(3.967872e-05 3.098735e-05 -1.603121e-29)
(6.932255e-05 3.033933e-05 1.626384e-21)
(7.284557e-05 5.364404e-05 1.145987e-28)
(0.0001071971 3.927516e-06 4.35258e-29)
(0.0001105399 7.597445e-05 1.666775e-28)
(0.0001529915 9.217896e-05 1.06681e-27)
(0.0001414402 -5.534e-05 2.946482e-21)
(6.912561e-06 5.672778e-06 7.883761e-30)
(3.005198e-06 2.876192e-06 0)
(1.766463e-05 1.433384e-05 2.722806e-27)
(1.291834e-05 1.155238e-05 -1.6373e-29)
(3.716099e-05 2.831831e-05 -1.462087e-29)
(3.166617e-05 2.722594e-05 -2.314403e-29)
(7.148609e-05 3.514948e-05 1.861101e-22)
(6.590152e-05 5.275099e-05 -1.768547e-28)
(0.0001175939 1.660154e-05 5.829264e-28)
(0.0001170197 8.211232e-05 -1.310707e-28)
(0.0001582942 -3.540311e-05 -1.028214e-20)
(0.0001715484 0.0001042633 7.133167e-28)
(0.0001968034 0.0001102497 1.309891e-27)
(0.0002048037 -0.0001289854 1.355012e-27)
(8.946159e-06 8.700501e-06 -2.418181e-29)
(3.735209e-06 4.6046e-06 4.254414e-29)
(2.705293e-05 2.455859e-05 -1.347463e-25)
(1.93882e-05 2.043544e-05 9.404338e-29)
(6.086185e-05 4.119752e-05 -1.870148e-28)
(5.158701e-05 4.820916e-05 1.984835e-30)
(0.0001129488 3.011892e-05 1.074825e-21)
(9.989707e-05 8.289843e-05 -2.182097e-28)
(0.0001725986 -1.669813e-05 -4.971e-30)
(0.0001633395 0.0001121506 -2.114645e-28)
(0.0002233434 -0.0001010494 -4.584032e-21)
(0.00022501 0.000128293 5.951981e-28)
(0.0002698731 0.0001330983 6.515323e-28)
(0.0002425581 -0.0002178787 -2.581415e-20)
(1.408015e-05 1.624138e-05 4.025046e-26)
(5.909215e-06 9.010198e-06 -3.221619e-25)
(4.374212e-05 3.98648e-05 1.566847e-28)
(3.121485e-05 3.759763e-05 -4.773788e-24)
(9.283478e-05 4.734032e-05 -2.806612e-29)
(7.785738e-05 7.762592e-05 3.639017e-29)
(0.0001539536 1.59041e-05 -1.725727e-28)
(0.0001407785 0.0001174904 -1.135321e-28)
(0.0002211202 -6.374666e-05 3.947975e-28)
(0.0001956401 0.0001402301 -6.776178e-28)
(0.0002745276 -0.0001817383 4.468171e-28)
(0.0002638313 0.0001508535 -5.558105e-22)
(0.0003071068 0.0001508029 2.511488e-27)
(0.0003138534 -0.0003304602 1.554865e-27)
(2.311482e-05 3.005643e-05 4.261918e-28)
(1.021902e-05 1.755375e-05 -4.476744e-29)
(6.575733e-05 5.387966e-05 -9.048783e-23)
(4.738925e-05 6.34776e-05 -1.756877e-23)
(0.0001266247 4.402752e-05 7.278871e-22)
(0.0001055321 0.0001125628 -3.034508e-28)
(0.0001937761 -1.099782e-05 -6.108023e-28)
(0.0001738057 0.0001513799 -1.086287e-29)
(0.0002482701 -0.0001159931 4.252261e-28)
(0.0002396435 0.0001712863 3.048366e-22)
(0.0002916288 -0.0002579847 3.617484e-27)
(0.0002962301 0.0001754721 -4.718523e-22)
(0.0002841062 0.000160042 -1.244587e-20)
(0.0003450677 -0.0004420558 4.076666e-27)
(3.483939e-05 4.661427e-05 1.044466e-23)
(1.631445e-05 3.008866e-05 6.230021e-24)
(8.846955e-05 6.445981e-05 -3.327784e-28)
(6.428791e-05 9.493351e-05 3.978317e-23)
(0.0001550143 3.486634e-05 -2.66996e-28)
(0.0001281118 0.0001490595 1.159665e-22)
(0.0002218208 -4.757868e-05 -9.530874e-28)
(0.0001948035 0.0001841974 2.942498e-28)
(0.000279477 -0.0001779548 7.523952e-21)
(0.0002557496 0.00019772 3.55528e-22)
(0.0003237223 -0.0003435809 2.977954e-27)
(0.00030831 0.0001962869 -4.948039e-22)
(0.000341818 0.0001879953 2.230001e-27)
(0.00033338 -0.0005399039 6.394311e-27)
(4.663698e-05 6.131983e-05 -2.802106e-28)
(2.291096e-05 4.472405e-05 -1.387264e-23)
(0.0001064386 7.276019e-05 -5.942984e-28)
(7.770463e-05 0.0001269121 -3.210431e-28)
(0.0001724978 2.364331e-05 -2.939603e-29)
(0.0001401457 0.0001837693 -2.357998e-28)
(0.0002340246 -8.44126e-05 3.004295e-21)
(0.000200539 0.0002148462 -3.160342e-22)
(0.0002868182 -0.0002422663 6.977707e-28)
(0.0002531584 0.0002223636 -4.840487e-22)
(0.0003294568 -0.0004347286 6.634536e-28)
(0.0002994812 0.0002146205 -6.668721e-22)