/*--------------------------------*- C++ -*----------------------------------*\
| =========                 |                                                 |
| \\      /  F ield         | OpenFOAM: The Open Source CFD Toolbox           |
|  \\    /   O peration     | Version:  2206                                  |
|   \\  /    A nd           | Website:  www.openfoam.com                      |
|    \\/     M anipulation  |                                                 |
\*---------------------------------------------------------------------------*/
FoamFile
{
    version     2.0;
    format      ascii;
    arch        "LSB;label=32;scalar=64";
    class       surfaceVectorField;
    location    "1.2";
    object      Ufb;
}
// * * * * * * * * * * * * * * * * * * * * * * * * * * * * * * * * * * * * * //

dimensions      [0 1 -1 0 0 0 0];

internalField   nonuniform List<vector> 
26037
(
(-2.788059e-06 1.338986e-05 6.620356e-23)
(1.24635e-07 3.90141e-06 -2.556457e-28)
(-2.724544e-06 1.774316e-05 -5.318849e-23)
(3.977278e-07 1.312023e-05 9.241788e-25)
(-2.614084e-06 1.611307e-05 6.361874e-28)
(-1.693947e-06 1.514647e-05 6.376321e-28)
(-2.581961e-06 1.594574e-05 2.708386e-28)
(-3.613299e-06 1.613116e-05 0)
(-2.505493e-06 1.744104e-05 2.070544e-24)
(-3.845668e-06 1.694723e-05 2.726185e-28)
(-2.410851e-06 1.922388e-05 5.674954e-28)
(-3.699288e-06 1.851692e-05 -1.1727e-27)
(-3.472258e-06 2.014882e-05 2.909475e-28)
(-2.297545e-06 2.079475e-05 -1.129814e-24)
(-3.041616e-07 1.106623e-05 -1.265099e-30)
(5.827982e-06 3.197691e-06 1.51352e-28)
(-2.737047e-06 1.41577e-05 -1.277258e-30)
(-8.639636e-07 1.083309e-05 -3.067544e-29)
(-4.260768e-06 1.509747e-05 0)
(-4.284522e-06 1.398652e-05 -2.257051e-28)
(-5.069324e-06 1.607863e-05 1.812798e-30)
(-5.987408e-06 1.562132e-05 -4.930108e-28)
(-5.032173e-06 1.772258e-05 2.714292e-30)
(-6.309872e-06 1.715882e-05 1.508419e-26)
(-4.748093e-06 1.952085e-05 2.607054e-30)
(-6.087729e-06 1.892001e-05 9.020662e-31)
(-5.666773e-06 2.061517e-05 3.131904e-27)
(-4.383178e-06 2.110625e-05 3.004595e-28)
(-2.194496e-07 9.359986e-06 1.218496e-28)
(-8.073206e-07 3.781942e-06 3.12369e-24)
(-4.323515e-06 1.241859e-05 -2.552577e-28)
(-4.858761e-06 9.631484e-06 -1.56673e-24)
(-6.634138e-06 1.450232e-05 1.732296e-24)
(-7.311105e-06 1.290655e-05 9.525207e-29)
(-7.4571e-06 1.632288e-05 -4.817929e-25)
(-8.49657e-06 1.53598e-05 -3.099395e-28)
(-7.427871e-06 1.825838e-05 -2.654864e-28)
(-8.731334e-06 1.753311e-05 -3.898934e-26)
(-7.026428e-06 2.015201e-05 1.692452e-33)
(-8.425616e-06 1.95672e-05 0)
(-7.851679e-06 2.138993e-05 -8.219724e-27)
(-6.46046e-06 2.178572e-05 -3.089661e-28)
(-5.220047e-06 7.232676e-06 1.774026e-28)
(-7.253985e-06 3.325846e-06 -5.53744e-29)
(-7.867964e-06 1.121701e-05 5.605569e-28)
(-9.240577e-06 8.699653e-06 -4.851611e-24)
(-9.403118e-06 1.41677e-05 1.56469e-25)
(-1.063741e-05 1.243336e-05 -7.715601e-25)
(-9.939481e-06 1.664651e-05 1.813269e-28)
(-1.124723e-05 1.543848e-05 1.121142e-24)
(-9.821647e-06 1.894995e-05 -7.216577e-30)
(-1.124378e-05 1.805326e-05 5.387069e-30)
(-9.306651e-06 2.102563e-05 -3.320447e-30)
(-1.08146e-05 2.041458e-05 1.532739e-32)
(-1.008819e-05 2.242758e-05 -3.06602e-28)
(-8.56438e-06 2.276675e-05 3.120576e-28)
(-1.045166e-05 6.326558e-06 -1.702676e-25)
(-1.243715e-05 3.087209e-06 1.462099e-30)
(-1.174781e-05 1.064006e-05 -1.86915e-25)
(-1.340692e-05 8.285615e-06 2.533858e-28)
(-1.252899e-05 1.41707e-05 1.137798e-27)
(-1.409889e-05 1.235262e-05 5.58595e-28)
(-1.267272e-05 1.714105e-05 -2.238785e-25)
(-1.428674e-05 1.583663e-05 1.286139e-24)
(-1.234367e-05 1.978329e-05 -1.776991e-24)
(-1.399639e-05 1.881552e-05 -1.260053e-24)
(-1.168661e-05 2.211e-05 1.738446e-24)
(-1.336361e-05 2.144257e-05 2.943643e-28)
(-1.246247e-05 2.371209e-05 3.863424e-26)
(-1.076029e-05 2.402637e-05 -3.032809e-28)
(-1.510528e-05 5.914179e-06 -7.067883e-30)
(-1.719746e-05 2.977711e-06 0)
(-1.566886e-05 1.046267e-05 1.300303e-25)
(-1.759724e-05 8.179263e-06 4.699026e-28)
(-1.592445e-05 1.443331e-05 -2.438716e-25)
(-1.779675e-05 1.256645e-05 6.491105e-28)
(-1.574231e-05 1.78632e-05 2.317914e-25)
(-1.764577e-05 1.644318e-05 5.900427e-28)
(-1.514645e-05 2.083024e-05 2.62498e-28)
(-1.709395e-05 1.984837e-05 1.804573e-24)
(-1.425468e-05 2.340282e-05 -2.065678e-24)
(-1.620386e-05 2.275032e-05 2.598702e-28)
(-1.505125e-05 2.523649e-05 6.623062e-28)
(-1.312359e-05 2.555287e-05 -1.850289e-24)
(-1.965612e-05 5.805014e-06 4.767239e-28)
(-2.192897e-05 2.981315e-06 -1.203923e-27)
(-1.976794e-05 1.059765e-05 1.114915e-27)
(-2.199768e-05 8.318612e-06 1.262181e-24)
(-1.964756e-05 1.493965e-05 -1.80491e-24)
(-2.185699e-05 1.302375e-05 1.530664e-24)
(-1.917367e-05 1.880086e-05 6.263644e-28)
(-2.140273e-05 1.729719e-05 2.242534e-28)
(-1.831486e-05 2.214408e-05 2.454523e-25)
(-2.056481e-05 2.110486e-05 1.453289e-27)
(-1.714025e-05 2.498284e-05 -3.915604e-29)
(-1.941922e-05 2.43772e-05 -8.029338e-29)
(-1.795644e-05 2.710724e-05 -4.500667e-29)
(-1.570922e-05 2.735666e-05 1.120811e-29)
(-2.436958e-05 5.911256e-06 -6.117425e-28)
(-2.686763e-05 3.076224e-06 -3.782646e-24)
(-2.421115e-05 1.098413e-05 1.170614e-27)
(-2.672704e-05 8.667319e-06 -8.391272e-28)
(-2.37823e-05 1.569258e-05 5.839366e-28)
(-2.632627e-05 1.371616e-05 -1.408193e-28)
(-2.299177e-05 1.998694e-05 1.059398e-27)
(-2.558678e-05 1.841407e-05 -3.100124e-29)
(-2.186032e-05 2.371677e-05 1.010285e-27)
(-2.446231e-05 2.263001e-05 4.675209e-24)
(-2.040607e-05 2.690207e-05 2.597125e-25)
(-2.302268e-05 2.628242e-05 -8.500486e-29)
(-2.124262e-05 2.936935e-05 -4.531784e-29)
(-1.86259e-05 2.952749e-05 3.372077e-28)
(-2.941327e-05 6.180925e-06 -1.431234e-27)
(-3.218358e-05 3.242257e-06 5.19739e-24)
(-2.904851e-05 1.160843e-05 -2.15042e-27)
(-3.189792e-05 9.195428e-06 -5.341468e-24)
(-2.835951e-05 1.671825e-05 2.148987e-25)
(-3.127669e-05 1.465444e-05 -2.722965e-24)
(-2.72747e-05 2.144419e-05 2.461413e-27)
(-3.026625e-05 1.979359e-05 1.532985e-27)
(-2.583864e-05 2.558352e-05 2.597651e-25)
(-2.883458e-05 2.444911e-05 5.183679e-24)
(-2.4056e-05 2.915032e-05 -4.382279e-29)
(-2.706417e-05 2.851683e-05 -4.380928e-29)
(-2.491729e-05 3.198818e-05 0)
(-2.19241e-05 3.212115e-05 -4.74085e-28)
(-3.491651e-05 6.574656e-06 3.472323e-29)
(-3.800226e-05 3.465625e-06 1.734615e-27)
(-3.43809e-05 1.243126e-05 -2.526615e-27)
(-3.759845e-05 9.877439e-06 -1.700839e-27)
(-3.345124e-05 1.799414e-05 7.124591e-28)
(-3.677382e-05 1.581543e-05 -2.759652e-27)
(-3.206696e-05 2.318904e-05 1.553374e-27)
(-3.549185e-05 2.144734e-05 5.948004e-24)
(-3.029653e-05 2.777743e-05 1.10265e-30)
(-3.372895e-05 2.658959e-05 -5.743276e-24)
(-2.814362e-05 3.176771e-05 0)
(-3.159024e-05 3.111892e-05 0)
(-2.903077e-05 3.502048e-05 0)
(-2.560305e-05 3.512856e-05 -6.700274e-28)
(-4.098164e-05 7.074421e-06 0)
(-4.442734e-05 3.740592e-06 0)
(-4.028805e-05 1.344232e-05 -1.933033e-27)
(-4.391318e-05 1.070565e-05 2.325784e-27)
(-3.911972e-05 1.952397e-05 -1.427458e-28)
(-4.288677e-05 1.720114e-05 -7.079204e-24)
(-3.742043e-05 2.524448e-05 1.819637e-27)
(-4.132134e-05 2.339328e-05 -2.602469e-28)
(-3.528394e-05 3.033495e-05 -1.237651e-30)
(-3.919981e-05 2.90833e-05 6.389729e-24)
(-3.271825e-05 3.479868e-05 0)
(-3.665248e-05 3.413085e-05 0)
(-3.363262e-05 3.851475e-05 -1.820126e-27)
(-2.971931e-05 3.859669e-05 6.49128e-28)
(-4.770262e-05 7.675053e-06 2.324816e-27)
(-5.15559e-05 4.066674e-06 0)
(-4.685031e-05 1.46433e-05 7.690524e-29)
(-5.092937e-05 1.168305e-05 8.250205e-24)
(-4.543377e-05 2.13216e-05 -4.349192e-27)
(-4.969219e-05 1.882431e-05 -2.221528e-27)
(-4.339655e-05 2.763905e-05 -2.473757e-25)
(-4.782323e-05 2.565606e-05 -7.43431e-24)
(-4.085842e-05 3.329594e-05 2.063387e-27)
(-4.53109e-05 3.196774e-05 4.393265e-27)
(-3.783406e-05 3.829161e-05 -1.819499e-27)
(-4.231072e-05 3.760078e-05 -2.155386e-27)
(-3.877845e-05 4.252573e-05 -5.963403e-24)
(-3.432452e-05 4.257926e-05 6.110573e-25)
(-5.517445e-05 8.379628e-06 2.70909e-27)
(-5.948796e-05 4.446671e-06 3.160216e-27)
(-5.415478e-05 1.604593e-05 -1.316827e-25)
(-5.87414e-05 1.281989e-05 2.709533e-27)
(-5.247143e-05 2.341081e-05 -2.407403e-27)
(-5.727778e-05 2.070641e-05 6.428167e-29)
(-5.006797e-05 3.040525e-05 -1.012376e-28)
(-5.507471e-05 2.826651e-05 -2.421906e-27)
(-4.708817e-05 3.670816e-05 1.707525e-28)
(-5.214174e-05 3.528157e-05 8.447577e-24)
(-4.355277e-05 4.230213e-05 -2.157257e-27)
(-4.863375e-05 4.15838e-05 -7.415586e-24)
(-4.453085e-05 4.711672e-05 6.680163e-24)
(-3.94741e-05 4.71374e-05 -1.841465e-30)
(-6.35e-05 9.196163e-06 3.160825e-27)
(-6.833322e-05 4.885315e-06 1.085532e-23)
(-6.229933e-05 1.766918e-05 3.354324e-29)
(-6.74562e-05 1.413152e-05 0)
(-6.03194e-05 2.582277e-05 -2.469707e-25)
(-6.574583e-05 2.288012e-05 1.073128e-28)
(-5.752607e-05 3.357073e-05 5.441751e-27)
(-6.31651e-05 3.129065e-05 -3.892576e-27)
(-5.406089e-05 4.06257e-05 2.871192e-27)
(-5.980319e-05 3.902936e-05 1.05307e-23)
(-4.994569e-05 4.689384e-05 -2.317289e-28)
(-5.570198e-05 4.613682e-05 -2.478029e-27)
(-5.096264e-05 5.236172e-05 -3.21036e-28)
(-4.523011e-05 5.23435e-05 4.242527e-28)
(-7.279433e-05 1.013545e-05 3.623917e-27)
(-7.821391e-05 5.388037e-06 3.622247e-27)
(-7.139856e-05 1.95365e-05 7.368531e-29)
(-7.719521e-05 1.563266e-05 4.055757e-27)
(-6.907437e-05 2.860679e-05 -4.40571e-25)
(-7.523327e-05 2.535654e-05 7.37041e-29)
(-6.591573e-05 3.717137e-05 4.554124e-24)
(-7.231149e-05 3.470204e-05 -9.663295e-24)
(-6.189959e-05 4.509814e-05 2.088042e-27)
(-6.845438e-05 4.336043e-05 1.960556e-27)
(-5.709951e-05 5.214052e-05 -2.567703e-27)
(-6.362241e-05 5.134266e-05 -1.645831e-28)
(-5.816083e-05 5.834909e-05 -8.536184e-24)
(-5.166537e-05 5.828442e-05 -4.840424e-27)
(-8.318387e-05 1.120887e-05 4.053798e-27)
(-8.926603e-05 5.96274e-06 0)
(-8.157583e-05 2.166143e-05 4.056575e-27)
(-8.808419e-05 1.734801e-05 1.367477e-23)
(-7.89514e-05 3.173751e-05 -3.848998e-27)
(-8.582319e-05 2.818068e-05 4.53569e-29)
(-7.5341e-05 4.126006e-05 6.800543e-25)
(-8.248479e-05 3.855202e-05 -3.790978e-27)
(-7.061384e-05 5.021125e-05 -3.039522e-28)
(-7.804861e-05 4.832983e-05 -1.390986e-28)
(-6.510714e-05 5.813227e-05 7.97569e-25)
(-7.249063e-05 5.728508e-05 -1.645116e-28)
(-6.622572e-05 6.517765e-05 -3.114543e-27)
(-5.886759e-05 6.506184e-05 -3.319964e-27)
(-9.481458e-05 1.24366e-05 9.239927e-27)
(-0.000101649 6.618276e-06 5.360754e-27)
(-9.296377e-05 2.409727e-05 9.291602e-27)
(-0.0001002858 1.930516e-05 1.548665e-23)
(-8.996213e-05 3.535135e-05 -2.694445e-25)
(-9.769725e-05 3.141113e-05 1.464208e-28)
(-8.582783e-05 4.599383e-05 6.305313e-29)
(-9.388185e-05 4.300712e-05 1.312454e-28)
(-8.039683e-05 5.604305e-05 0)
(-8.880295e-05 5.397426e-05 0)
(-7.409015e-05 6.496075e-05 0)
(-8.244632e-05 6.404629e-05 4.382047e-27)
(-7.527944e-05 7.295366e-05 4.653863e-28)
(-6.694349e-05 7.278703e-05 2.282758e-28)
(-0.000107854 1.38334e-05 1.38142e-25)
(-0.0001155389 7.362737e-06 1.792338e-23)
(-0.000105734 2.686678e-05 -1.872269e-25)
(-0.0001139726 2.152735e-05 1.125423e-26)
(-0.0001023067 3.945614e-05 -2.925272e-25)
(-0.0001110202 3.507784e-05 2.700987e-28)
(-9.758504e-05 5.137831e-05 7.028769e-29)
(-0.0001066698 4.806993e-05 2.236668e-28)
(-9.138526e-05 6.266528e-05 4.432988e-27)
(-0.000100873 6.037349e-05 0)
(-8.418632e-05 7.272953e-05 -9.590833e-25)
(-9.364938e-05 7.170814e-05 1.494933e-23)
(-8.546141e-05 8.179215e-05 7.260394e-28)
(-7.601951e-05 8.158e-05 -1.042104e-24)
(-0.0001224871 1.541718e-05 1.465917e-25)
(-0.0001311327 8.205409e-06 1.299556e-26)
(-0.0001200675 3.000666e-05 -2.045463e-25)
(-0.0001293385 2.404273e-05 1.980084e-23)
(-0.0001161658 4.411103e-05 -6.353485e-25)
(-0.0001259835 3.923073e-05 6.713014e-27)
(-0.0001107778 5.748755e-05 1.569745e-28)
(-0.0001210381 5.382386e-05 1.544628e-28)
(-0.0001037568 7.013372e-05 4.79742e-27)
(-0.0001144225 6.769741e-05 -1.64409e-27)
(-9.557057e-05 8.154865e-05 4.999011e-27)
(-0.0001063233 8.026717e-05 2.313539e-27)
(-9.692989e-05 9.180312e-05 -3.231907e-28)
(-8.624184e-05 9.156778e-05 -1.144394e-24)
(-0.0001389204 1.720716e-05 2.043419e-26)
(-0.0001486494 9.156031e-06 2.281019e-23)
(-0.0001361694 3.35557e-05 2.007369e-26)
(-0.0001465997 2.687953e-05 2.227164e-23)
(-0.0001317531 4.938089e-05 6.548789e-27)
(-0.000142807 4.390954e-05 2.145887e-23)
(-0.0001255958 6.445051e-05 -1.629186e-27)
(-0.0001372604 6.028373e-05 6.881749e-27)
(-0.0001178402 7.856169e-05 7.834641e-24)
(-0.000129935 7.58578e-05 -1.879361e-27)
(-0.0001084824 9.151905e-05 2.65175e-24)
(-0.0001208204 9.007224e-05 3.54337e-27)
(-0.0001098889 0.0001031409 -5.745531e-27)
(-9.778049e-05 0.0001028872 -5.838824e-28)
(-0.0001573815 1.922341e-05 -1.288235e-25)
(-0.0001683309 1.022627e-05 7.831938e-27)
(-0.0001542595 3.754907e-05 2.851138e-25)
(-0.0001659903 3.007292e-05 2.513275e-23)
(-0.0001492808 5.528807e-05 2.163132e-26)
(-0.0001616993 4.917697e-05 2.446242e-23)
(-0.0001424327 7.215528e-05 8.892988e-25)
(-0.0001554301 6.754524e-05 2.360216e-23)
(-0.0001337772 8.798203e-05 5.644754e-27)
(-0.0001471999 8.491826e-05 -2.422393e-28)
(-0.0001229179 0.00010278 6.75544e-28)
(-0.0001369089 0.0001011809 1.961396e-23)
(-0.0001245108 0.0001159512 -1.902071e-23)
(-0.0001108094 0.0001156962 -1.396531e-24)
(-0.0001781258 2.149189e-05 8.616144e-27)
(-0.000190449 1.142811e-05 -1.001265e-26)
(-0.0001745886 4.204606e-05 2.956266e-25)
(-0.0001877826 3.366019e-05 8.617403e-27)
(-0.0001689723 6.196321e-05 2.430551e-26)
(-0.0001829473 5.510147e-05 8.304329e-27)
(-0.0001612697 8.094144e-05 1.602809e-26)
(-0.0001758918 7.574489e-05 2.65489e-23)
(-0.0001515212 9.876128e-05 6.663791e-27)
(-0.0001666316 9.529046e-05 -8.800795e-27)
(-0.0001392319 0.000115484 6.687241e-27)
(-0.0001550112 0.0001136404 6.805003e-27)
(-0.0001410529 0.0001303483 2.323541e-23)
(-0.0001255491 0.0001301604 4.658342e-27)
(-0.0002014366 2.403493e-05 -1.001446e-26)
(-0.0002153005 1.277253e-05 -3.232242e-23)
(-0.0001974423 4.708853e-05 0)
(-0.0002122707 3.767412e-05 0)
(-0.0001911298 6.945078e-05 -2.359349e-28)
(-0.000206842 6.173375e-05 0)
(-0.0001824719 9.079883e-05 1.074292e-24)
(-0.0001989278 8.493632e-05 -3.012084e-23)
(-0.0001714744 0.0001108724 -8.981607e-27)
(-0.0001885222 0.0001069882 -2.972925e-23)
(-0.0001576922 0.0001296805 7.14791e-27)
(-0.0001754011 0.0001278205 8.819003e-27)
(-0.000159895 0.0001463121 7.101573e-27)
(-0.0001422643 0.0001464557 1.417299e-26)
(-0.0002276236 2.687499e-05 -2.262962e-26)
(-0.0002432103 1.427065e-05 -3.606173e-23)
(-0.0002231284 5.272122e-05 0)
(-0.0002397764 4.214743e-05 -6.700755e-29)
(-0.0002160643 7.782247e-05 -9.949246e-27)
(-0.0002337064 6.912667e-05 -1.219446e-26)
(-0.0002063894 0.0001018535 -1.101528e-24)
(-0.0002248811 9.518012e-05 -1.025421e-26)
(-0.0001939829 0.0001245992 -1.042336e-26)
(-0.0002133646 0.0001199926 -3.048438e-23)
(-0.0001789422 0.0001456808 8.874305e-27)
(-0.0001990316 0.0001434978 2.385364e-23)
(-0.0001817136 0.0001645483 0)
(-0.0001613479 0.0001648078 -7.091622e-27)
(-0.0002570225 3.00336e-05 -1.284136e-26)
(-0.0002745279 1.593267e-05 -1.276676e-26)
(-0.0002519795 5.898642e-05 3.505952e-25)
(-0.0002706463 4.71125e-05 1.401835e-26)
(-0.0002441003 8.713124e-05 -1.249991e-26)
(-0.0002638796 7.734e-05 -3.868392e-23)
(-0.0002333392 0.0001141049 1.235682e-24)
(-0.0002540459 0.0001065746 -3.033581e-28)
(-0.0002196772 0.0001395953 9.609882e-27)
(-0.0002412025 0.0001344515 3.703162e-23)
(-0.000203137 0.0001633582 1.027425e-26)
(-0.0002252741 0.000160697 7.971843e-27)
(-0.000205905 0.0001851108 -1.17951e-27)
(-0.0001827393 0.0001853894 -6.897988e-27)
(-0.0002899965 3.353045e-05 1.407632e-26)
(-0.0003096291 1.776558e-05 1.623375e-26)
(-0.0002843614 6.593107e-05 4.572763e-28)
(-0.0003052615 5.25951e-05 4.373656e-23)
(-0.0002756079 9.747255e-05 -1.364246e-26)
(-0.0002977573 8.642495e-05 -2.90007e-26)
(-0.0002636559 0.000127789 1.141809e-26)
(-0.0002868689 0.0001192116 0)
(-0.0002484979 0.0001565633 3.184545e-24)
(-0.0002726468 0.0001505858 1.23774e-26)
(-0.0002300967 0.0001834935 4.842771e-24)
(-0.0002549844 0.0001802289 -2.044776e-27)
(-0.0002333764 0.0002080411 -2.502585e-27)
(-0.0002071307 0.0002086666 1.931655e-28)
(-0.0003269338 3.73737e-05 3.21069e-26)
(-0.0003489022 1.977134e-05 4.821186e-23)
(-0.000320673 7.358326e-05 5.260139e-28)
(-0.0003440272 5.859777e-05 3.374616e-26)
(-0.0003110055 0.0001088838 -1.537103e-26)
(-0.0003357503 9.640595e-05 -4.774646e-23)
(-0.0002978146 0.0001429139 9.567989e-28)
(-0.0003237724 0.0001331219 0)
(-0.0002810641 0.0001753431 -3.378242e-24)
(-0.0003081185 0.0001683892 9.569357e-28)
(-0.0002606453 0.0002058366 5.125901e-24)
(-0.0002886293 0.0002019428 1.453936e-26)
(-0.0002647172 0.0002338682 -3.263256e-27)
(-0.0002352392 0.0002345217 -1.16597e-26)
(-0.0003682413 4.154714e-05 3.614718e-26)
(-0.0003927488 2.192822e-05 3.886458e-26)
(-0.0003613396 8.195165e-05 5.573775e-28)
(-0.0003873785 6.510979e-05 5.401304e-23)
(-0.0003507233 0.0001213892 -1.732776e-26)
(-0.0003782907 0.0001072894 -1.731418e-26)
(-0.0003362678 0.0001595278 0)
(-0.0003652096 0.0001483216 -1.773647e-26)
(-0.0003179227 0.0001960527 1.451256e-26)
(-0.0003481212 0.0001878606 1.191879e-27)
(-0.0002954037 0.0002307723 1.288168e-26)
(-0.0003270198 0.0002255629 4.441617e-23)
(-0.0003017177 0.0002613483 -2.100817e-23)
(-0.0002689244 0.0002632921 -2.136529e-23)
(-0.0004143346 4.599759e-05 -4.122662e-25)
(-0.0004415122 2.428483e-05 5.310099e-23)
(-0.0004067965 9.103269e-05 2.021514e-26)
(-0.0004357766 7.195601e-05 2.026546e-26)
(-0.0003952081 0.0001349852 -1.772196e-26)
(-0.0004258143 0.0001190102 2.228113e-26)
(-0.0003794591 0.0001776279 -3.097622e-24)
(-0.0004116441 0.00016482 -5.902133e-23)
(-0.000359428 0.0002185409 3.264509e-26)
(-0.0003930189 0.0002091321 2.111842e-26)
(-0.0003348763 0.0002571457 5.291807e-24)
(-0.0003697594 0.0002515372 6.34985e-23)
(-0.0003412887 0.0002914847 6.926125e-23)
(-0.0003055617 0.0002925403 2.288562e-23)
(-0.0004656871 5.060205e-05 2.322795e-26)
(-0.0004958468 2.666357e-05 2.301647e-26)
(-0.0004576221 0.0001006657 2.233666e-26)
(-0.0004897705 7.929209e-05 0)
(-0.0004449872 0.0001496272 -1.272312e-24)
(-0.0004788855 0.0001314724 6.523424e-23)
(-0.0004279714 0.0001972988 -6.247056e-28)
(-0.0004636783 0.0001825358 -2.051509e-26)
(-0.0004062255 0.0002433738 5.710747e-26)
(-0.0004436822 0.0002321849 6.7228e-23)
(-0.0003793142 0.0002874354 5.423965e-26)
(-0.0004186005 0.0002801837 7.155211e-23)
(-0.0003876912 0.0003262642 -2.351628e-27)
(-0.0003465761 0.0003290004 4.593268e-26)
(-0.0005225989 5.553252e-05 0)
(-0.0005557683 2.915293e-05 2.912862e-26)
(-0.0005138985 0.0001107527 4.939885e-26)
(-0.0005490948 8.727398e-05 -2.811659e-26)
(-0.0005005824 0.0001651782 4.921368e-26)
(-0.00053795 0.0001441356 7.165438e-23)
(-0.0004824472 0.0002183268 4.495325e-26)
(-0.0005218227 0.000201071 0)
(-0.0004592726 0.0002700777 6.605926e-26)
(-0.0005006982 0.0002566399 7.319171e-23)
(-0.0004305323 0.0003202211 1.815652e-27)
(-0.0004742303 0.0003106965 2.105881e-26)
(-0.0004417843 0.0003631661 -7.329316e-23)
(-0.0003951421 0.0003686044 -1.95988e-26)
(-0.0005851401 6.095338e-05 -8.238435e-25)
(-0.0006218688 3.177389e-05 6.352279e-23)
(-0.0005763187 0.0001209733 -5.553756e-26)
(-0.0006149302 9.51448e-05 -6.103891e-23)
(-0.0005627696 0.0001809424 -2.723167e-26)
(-0.000603561 0.0001576287 -1.227549e-22)
(-0.0005435495 0.000240351 2.539834e-26)
(-0.0005869502 0.0002195566 -6.01467e-26)
(-0.0005191143 0.0002981863 2.539234e-26)
(-0.0005645528 0.0002819973 5.21702e-26)
(-0.0004889436 0.0003547209 -1.748069e-26)
(-0.0005370407 0.0003427444 -2.141722e-27)
(-0.0005028549 0.0004021432 -1.496655e-26)
(-0.0004520505 0.0004093721 -9.812287e-24)
(-0.0006543198 6.611591e-05 6.982804e-28)
(-0.0006938958 3.431846e-05 3.237226e-26)
(-0.0006449338 0.0001314597 -1.238144e-25)
(-0.0006869155 0.000102562 -3.196398e-26)
(-0.0006315687 0.0001966604 -1.534671e-25)
(-0.0006758638 0.0001707832 -5.899437e-23)
(-0.0006121338 0.0002627044 3.764463e-24)
(-0.0006598108 0.0002384879 -1.571478e-22)
(-0.0005864663 0.0003273393 2.46407e-26)
(-0.0006360738 0.000307612 9.600484e-23)
(-0.0005552024 0.0003911763 3.132086e-24)
(-0.0006080665 0.0003758311 -6.809572e-27)
(-0.0005728604 0.000443342 -8.555754e-27)
(-0.0005165113 0.00045379 -8.275485e-24)
(-0.0007292989 7.122157e-05 5.204933e-25)
(-0.0007718673 3.679314e-05 3.214688e-30)
(-0.0007203042 0.0001415093 -3.583227e-26)
(-0.0007647039 0.0001099825 1.063422e-29)
(-0.0007070772 0.000211951 2.178153e-24)
(-0.0007539874 0.0001830987 -7.338957e-26)
(-0.0006874666 0.0002844301 1.20387e-24)
(-0.0007381907 0.0002577458 -9.012042e-26)
(-0.0006621554 0.0003567236 3.126429e-26)
(-0.0007159894 0.0003316 5.499197e-26)
(-0.000630582 0.0004285844 3.741194e-24)
(-0.0006881132 0.0004084546 -3.420044e-26)
(-0.0006530858 0.0004851576 -1.105341e-26)
(-0.0005911977 0.0005003338 4.117725e-24)
(-0.0008101187 7.607824e-05 -4.872044e-25)
(-0.0008555922 3.901897e-05 5.458445e-29)
(-0.000801523 0.0001513925 -3.739648e-26)
(-0.000848466 0.0001167601 1.689056e-28)
(-0.0007885418 0.0002276074 7.199521e-25)
(-0.000839068 0.0001946668 -5.997387e-23)
(-0.0007710796 0.0003048051 3.435428e-24)
(-0.0008249762 0.0002747168 -6.369969e-23)
(-0.0007476018 0.0003841623 -1.426722e-24)
(-0.0008050266 0.0003553288 -4.140579e-26)
(-0.0007162784 0.0004654424 -2.95144e-26)
(-0.0007787465 0.000438 -1.464303e-22)
(-0.0007442209 0.0005256222 0)
(-0.0006773395 0.0005468923 1.744211e-27)
(-0.0008964173 8.021829e-05 0)
(-0.0009443772 4.082445e-05 1.179208e-28)
(-0.0008885998 0.0001597257 -4.302146e-26)
(-0.0009373788 0.0001222887 -3.531072e-28)
(-0.000877892 0.0002402848 -8.83856e-26)
(-0.0009294757 0.0002040601 -4.425781e-26)
(-0.0008619834 0.0003231411 -6.743975e-24)
(-0.0009182756 0.0002877825 -4.5228e-26)
(-0.000842106 0.0004085986 -2.534034e-23)
(-0.0009022194 0.0003751013 -5.708067e-23)
(-0.0008136974 0.0004996143 -5.762478e-26)
(-0.0008810157 0.0004647272 -5.272548e-26)
(-0.0008473792 0.0005621947 1.360686e-26)
(-0.0007760477 0.000591699 3.504873e-26)
(-0.0009873881 8.340214e-05 -8.862402e-25)
(-0.001037265 4.203915e-05 5.350507e-26)
(-0.0009805674 0.0001662768 -4.615709e-25)
(-0.001030639 0.0001261365 -7.274398e-28)
(-0.0009723208 0.0002505453 -1.225754e-27)
(-0.001024654 0.0002109036 5.118765e-26)
(-0.000960462 0.0003373085 -9.121297e-26)
(-0.001016581 0.0002980478 0)
(-0.000944504 0.0004277491 -8.918208e-26)
(-0.001004606 0.0003892741 -8.888941e-23)
(-0.0009203984 0.0005271954 2.013886e-23)
(-0.0009884576 0.0004876476 -9.876833e-27)
(-0.0009640576 0.000590355 7.675864e-26)
(-0.0008884329 0.0006318194 6.680193e-24)
(-0.001081919 8.520064e-05 7.119279e-25)
(-0.001132819 4.243157e-05 4.403982e-24)
(-0.001076533 0.0001702522 5.196613e-26)
(-0.001127011 0.0001275808 5.693796e-26)
(-0.001071301 0.0002572359 5.242906e-26)
(-0.001123578 0.0002140016 2.714192e-23)
(-0.001064101 0.0003477915 -5.551275e-26)
(-0.001119844 0.0003033611 3.493265e-27)
(-0.001052589 0.000444261 -1.566285e-23)
(-0.001114733 0.00039767 -4.629955e-26)
(-0.001039025 0.0005473072 1.746992e-22)
(-0.001106074 0.0004998957 -4.26777e-23)
(-0.001094075 0.0006093984 9.22067e-26)
(-0.001016061 0.0006632831 1.107539e-23)
(-0.001178445 8.500127e-05 2.997902e-25)
(-0.00122907 4.197745e-05 5.819172e-26)
(-0.00117509 0.0001707167 1.147018e-25)
(-0.00122486 0.000125663 -5.794219e-24)
(-0.001173535 0.0002586519 6.092457e-26)
(-0.001224341 0.0002120868 -4.917673e-27)
(-0.001172201 0.0003506666 1.172153e-23)
(-0.001225557 0.0003019402 1.767356e-27)
(-0.001169156 0.0004486854 1.513226e-23)
(-0.001227459 0.0003972419 7.619836e-26)
(-0.001164163 0.0005546848 3.895113e-23)
(-0.001227331 0.0005009694 -3.29265e-26)
(-0.001226575 0.0006184858 2.860921e-26)
(-0.001152814 0.0006790389 8.548945e-23)
(-0.001275015 8.244795e-05 -6.115543e-26)
(-0.001324461 4.026059e-05 -6.800203e-26)
(-0.001274522 0.0001663711 2.199772e-24)
(-0.001321861 0.0001208934 1.018092e-22)
(-0.001277252 0.0002538085 -4.047372e-24)
(-0.001325319 0.0002035314 1.58772e-23)
(-0.001282435 0.0003456826 6.51483e-26)
(-0.001331997 0.0002920677 -1.369756e-25)
(-0.001288848 0.0004450766 2.467106e-23)
(-0.001342661 0.0003865619 2.246537e-23)
(-0.001293326 0.0005558091 5.923863e-27)
(-0.001355669 0.0004903553 -5.808741e-26)
(-0.001369126 0.000609029 -5.056195e-30)
(-0.00130244 0.000679916 -2.147401e-27)
(-0.001368974 7.819596e-05 -1.995325e-25)
(-0.001415981 3.701679e-05 8.177442e-23)
(-0.0013716 0.000156773 1.439906e-23)
(-0.001415002 0.0001121259 -1.310171e-25)
(-0.001380493 0.0002402421 -1.995256e-25)
(-0.001423123 0.0001887906 -6.380534e-26)
(-0.001393067 0.0003300845 -6.259249e-26)
(-0.00143702 0.0002710057 2.829528e-23)
(-0.001411154 0.0004271218 2.145102e-23)
(-0.001456893 0.0003620781 -7.542132e-26)
(-0.001433368 0.0005355989 -6.404029e-26)
(-0.001485951 0.0004630923 -9.088876e-23)
(-0.001520609 0.0005838748 -1.549195e-29)
(-0.001456441 0.0006597669 1.117111e-29)
(-0.001458207 7.075598e-05 -1.533183e-25)
(-0.001500139 3.228396e-05 4.091984e-27)
(-0.001462957 0.0001420509 2.999882e-28)
(-0.001501095 9.780786e-05 -1.512035e-28)
(-0.001478446 0.0002170386 -1.473043e-27)
(-0.001513807 0.0001660803 -8.141551e-28)
(-0.001502589 0.0003009197 -1.513426e-25)
(-0.001537124 0.0002387774 -1.046451e-22)
(-0.001535016 0.0003936658 -3.009065e-25)
(-0.001571791 0.0003207427 -1.091923e-22)
(-0.001575481 0.0004972736 -1.529255e-25)
(-0.001620085 0.0004222457 3.072659e-23)
(-0.001669942 0.0005564568 5.588979e-27)
(-0.001614409 0.0006194241 -1.718909e-26)
(-0.001537938 5.966473e-05 7.564038e-26)
(-0.00157305 2.557942e-05 -1.68621e-22)
(-0.001546997 0.0001200971 -3.922855e-24)
(-0.001576331 7.799245e-05 -4.458066e-28)
(-0.001568658 0.0001848796 1.571176e-25)
(-0.001595662 0.0001328552 -1.809349e-27)
(-0.001607431 0.0002559157 5.651411e-23)
(-0.001630879 0.0001932686 1.56481e-25)
(-0.001659157 0.0003373728 -6.602097e-26)
(-0.001685658 0.0002669669 -1.528553e-25)
(-0.001708933 0.0004333662 8.883526e-26)
(-0.001745331 0.0003752827 -5.450095e-22)
(-0.001792568 0.0005348701 1.835355e-25)
(-0.00175277 0.0005477649 9.514817e-22)
(-0.001604631 4.418697e-05 7.941036e-26)
(-0.001630239 1.659248e-05 7.942118e-26)
(-0.001619538 9.042777e-05 -1.004253e-27)
(-0.001637819 5.107129e-05 -1.23246e-28)
(-0.001654374 0.0001397868 -4.756966e-24)
(-0.001667107 8.747986e-05 -1.300928e-27)
(-0.001704861 0.0001948578 -1.532687e-27)
(-0.001722123 0.0001347364 -1.938278e-27)
(-0.001767031 0.0002579451 1.754148e-25)
(-0.001784062 0.0002117762 -1.057208e-27)
(-0.001817928 0.0003450834 -1.99211e-21)
(-0.001845403 0.0003332387 1.772039e-25)
(-0.001883118 0.0005147602 -1.895471e-21)
(-0.0018493 0.0004618508 -2.154246e-28)
(-0.001654763 2.389828e-05 -1.230018e-28)
(-0.00166762 4.908487e-06 0)
(-0.001679134 5.042042e-05 1.830323e-23)
(-0.001682686 1.480392e-05 8.44015e-26)
(-0.001729246 7.605359e-05 -7.144859e-28)
(-0.001726524 2.915101e-05 -3.026325e-28)
(-0.001789974 0.0001130742 -3.256319e-22)
(-0.001797017 6.982951e-05 -1.844847e-25)
(-0.001839714 0.0001656764 -1.047733e-27)
(-0.001854054 0.0001616699 -9.951435e-26)
(-0.001888269 0.0002428495 1.905292e-25)
(-0.001891283 0.0003088313 -1.069129e-25)
(-0.001935115 0.0005062393 1.846989e-25)
(-0.001901005 0.0003536583 -5.774121e-21)
(-0.001685219 -1.265835e-06 8.40446e-26)
(-0.00168147 -1.093593e-05 8.349227e-26)
(-0.001721337 -4.454567e-06 8.498253e-26)
(-0.00170901 -3.176655e-05 -2.643241e-22)
(-0.001781992 -7.826965e-06 -1.852692e-25)
(-0.001766366 -3.702563e-05 -9.335863e-28)
(-0.001841092 1.371389e-05 -2.843104e-25)
(-0.001834843 6.552983e-06 1.488885e-21)
(-0.001876055 6.299321e-05 -2.025812e-25)
(-0.001880816 0.0001202955 9.231077e-22)
(-0.001890914 0.0001409922 -5.534405e-21)
(-0.001895806 0.0002993728 1.200884e-21)
(-0.001891737 0.0005379785 -7.647872e-27)
(-0.001912931 0.0002516047 -1.920427e-25)
(-0.001692957 -3.58528e-05 6.318831e-24)
(-0.001668579 -3.180001e-05 -3.431934e-22)
(-0.0017397 -7.580484e-05 6.820429e-23)
(-0.001711232 -8.472571e-05 -8.317704e-29)
(-0.00179517 -0.0001022426 -1.900031e-25)
(-0.001770243 -9.797163e-05 9.079557e-26)
(-0.001845339 -9.590062e-05 -4.919888e-25)
(-0.001818119 -4.180915e-05 -1.886717e-25)
(-0.001862894 -3.899698e-05 -4.011587e-25)
(-0.001864909 9.329537e-05 3.271794e-21)
(-0.001855149 4.631737e-05 -1.031319e-25)
(-0.001847256 0.0003101911 -1.060785e-25)
(-0.001829216 0.0005894792 -1.209977e-26)
(-0.001824901 0.0001617668 -1.924482e-25)
(-0.001670334 -8.208192e-05 -1.289953e-23)
(-0.001626418 -5.488628e-05 8.201755e-26)
(-0.001720116 -0.0001575995 5.620918e-27)
(-0.001675239 -0.0001371686 6.035688e-22)
(-0.001766133 -0.0002004226 9.174258e-26)
(-0.00172605 -0.0001506483 -7.889582e-22)
(-0.001794852 -0.0001937096 -2.040782e-25)
(-0.001760922 -7.522322e-05 1.020562e-28)
(-0.001807738 -0.0001271609 1.291202e-20)
(-0.001772751 9.288433e-05 -2.048556e-25)
(-0.001796269 -2.26307e-05 -3.787343e-20)
(-0.001749342 0.0003444938 1.039243e-25)
(-0.001782188 0.0006584375 -1.06565e-25)
(-0.001733874 0.0001286875 2.837845e-20)
(-0.00160986 -0.0001350784 5.588535e-23)
(-0.001550109 -7.450619e-05 -3.016847e-28)
(-0.001652491 -0.0002417167 1.737731e-25)
(-0.00159043 -0.0001808837 -6.528214e-22)
(-0.001686262 -0.000295329 1.709221e-21)
(-0.001627633 -0.0001908741 -9.055675e-22)
(-0.001701444 -0.0002823362 -2.971653e-21)
(-0.00165098 -9.376142e-05 8.775218e-26)
(-0.001692031 -0.0002054218 9.018789e-21)
(-0.001651801 0.0001044785 -3.50635e-27)
(-0.001661658 -7.873605e-05 1.028372e-26)
(-0.001623767 0.0003911967 -1.661764e-21)
(-0.001582602 0.0007555739 2.323031e-21)
(-0.001648637 9.30018e-05 2.420441e-25)
(-0.001507341 -0.0001847825 1.59502e-25)
(-0.001437047 -8.789948e-05 -3.427673e-26)
(-0.001533896 -0.0003159965 1.597682e-25)
(-0.001457874 -0.0002089354 -6.354543e-22)
(-0.0015525 -0.0003746124 8.751287e-26)
(-0.001475953 -0.0002109761 7.898169e-22)
(-0.00155596 -0.0003537921 8.614508e-26)
(-0.001486009 -9.365485e-05 -1.128946e-21)
(-0.00153756 -0.0002667379 5.54753e-21)
(-0.001475677 0.0001342259 7.668425e-26)
(-0.001498783 -0.0001330563 5.628527e-27)
(-0.001442429 0.0004467764 8.61953e-26)
(-0.001396308 0.0008239314 -1.161212e-25)
(-0.001463007 4.307181e-05 2.902841e-25)
(-0.001362021 -0.0002255897 3.775887e-26)
(-0.001278193 -9.138096e-05 2.85961e-22)