/*--------------------------------*- C++ -*----------------------------------*\
| =========                 |                                                 |
| \\      /  F ield         | OpenFOAM: The Open Source CFD Toolbox           |
|  \\    /   O peration     | Version:  2206                                  |
|   \\  /    A nd           | Website:  www.openfoam.com                      |
|    \\/     M anipulation  |                                                 |
\*---------------------------------------------------------------------------*/
FoamFile
{
    version     2.0;
    format      ascii;
    arch        "LSB;label=32;scalar=64";
    class       surfaceVectorField;
    location    "1.2";
    object      Ufb_0;
}
// * * * * * * * * * * * * * * * * * * * * * * * * * * * * * * * * * * * * * //

dimensions      [0 1 -1 0 0 0 0];

internalField   nonuniform List<vector> 
26037
(
(-2.640228e-06 1.347499e-05 7.088972e-23)
(5.367401e-07 3.9053e-06 -2.591852e-28)
(-2.57785e-06 1.742131e-05 -5.103709e-23)
(5.364563e-07 1.296265e-05 9.231111e-25)
(-2.475541e-06 1.571323e-05 6.207533e-28)
(-1.653644e-06 1.490926e-05 6.22163e-28)
(-2.444799e-06 1.565645e-05 2.651994e-28)
(-3.489719e-06 1.582714e-05 0)
(-2.371024e-06 1.723864e-05 1.818789e-24)
(-3.687984e-06 1.67005e-05 2.669076e-28)
(-2.279383e-06 1.905318e-05 5.603655e-28)
(-3.533965e-06 1.831719e-05 -1.48677e-27)
(-3.310672e-06 1.995627e-05 2.876291e-28)
(-2.169269e-06 2.060735e-05 -1.304822e-24)
(-2.006355e-07 1.099979e-05 -1.312488e-30)
(5.91128e-06 3.167659e-06 1.525409e-28)
(-2.624507e-06 1.394362e-05 -1.325102e-30)
(-7.209917e-07 1.063598e-05 -3.165505e-29)
(-4.131485e-06 1.478271e-05 0)
(-4.156454e-06 1.372185e-05 -2.181691e-28)
(-4.890483e-06 1.581476e-05 1.740467e-30)
(-5.799019e-06 1.533659e-05 -4.800412e-28)
(-4.832954e-06 1.752199e-05 2.601653e-30)
(-6.082727e-06 1.691735e-05 1.419677e-26)
(-4.549532e-06 1.934446e-05 2.485156e-30)
(-5.852243e-06 1.871498e-05 8.617352e-31)
(-5.441088e-06 2.041278e-05 3.41362e-27)
(-4.194787e-06 2.091121e-05 2.96834e-28)
(-1.538329e-07 9.059426e-06 1.221017e-28)
(-9.625993e-07 3.662316e-06 5.381019e-24)
(-4.190913e-06 1.208881e-05 -2.486777e-28)
(-4.823898e-06 9.35705e-06 -2.582669e-24)
(-6.442798e-06 1.418285e-05 1.457291e-24)
(-7.149047e-06 1.260277e-05 9.673485e-29)
(-7.211988e-06 1.606089e-05 -4.552097e-25)
(-8.245755e-06 1.50737e-05 -3.026194e-28)
(-7.160904e-06 1.804952e-05 -2.605749e-28)
(-8.437792e-06 1.728797e-05 -3.925634e-26)
(-6.763849e-06 1.996118e-05 1.67333e-33)
(-8.126719e-06 1.935068e-05 0)
(-7.568466e-06 2.117178e-05 -8.851176e-27)
(-6.215021e-06 2.157472e-05 -3.050885e-28)
(-5.25101e-06 6.983085e-06 1.743974e-28)
(-7.327966e-06 3.225937e-06 -5.773171e-29)
(-7.743623e-06 1.089006e-05 5.536887e-28)
(-9.166676e-06 8.453283e-06 -5.186257e-24)
(-9.165913e-06 1.385391e-05 1.447051e-25)
(-1.042358e-05 1.214243e-05 -1.005737e-24)
(-9.637254e-06 1.638193e-05 1.757828e-28)
(-1.094235e-05 1.516035e-05 1.092398e-24)
(-9.497761e-06 1.872769e-05 -6.959955e-30)
(-1.089762e-05 1.780542e-05 1.115105e-29)
(-8.990188e-06 2.081531e-05 -3.181765e-30)
(-1.046561e-05 2.018513e-05 1.478054e-32)
(-9.758081e-06 2.219127e-05 -3.032947e-28)
(-8.269475e-06 2.253513e-05 3.082493e-28)
(-1.039474e-05 6.134871e-06 -1.59346e-25)
(-1.236995e-05 3.006976e-06 1.413054e-30)
(-1.156399e-05 1.03599e-05 -1.677725e-25)
(-1.323498e-05 8.082245e-06 2.502403e-28)
(-1.224001e-05 1.388377e-05 1.109119e-27)
(-1.381768e-05 1.209777e-05 5.466494e-28)
(-1.23235e-05 1.688284e-05 -2.250752e-25)
(-1.393087e-05 1.557865e-05 1.314696e-24)
(-1.197531e-05 1.955129e-05 -1.879532e-24)
(-1.360836e-05 1.857101e-05 -1.291708e-24)
(-1.132774e-05 2.18808e-05 1.859198e-24)
(-1.297619e-05 2.120338e-05 2.911353e-28)
(-1.209488e-05 2.345863e-05 3.959539e-26)
(-1.04245e-05 2.377321e-05 -3.001123e-28)
(-1.492526e-05 5.769257e-06 -6.899133e-30)
(-1.698807e-05 2.9161e-06 0)
(-1.540045e-05 1.023678e-05 1.181159e-25)
(-1.731899e-05 8.018372e-06 4.604663e-28)
(-1.55778e-05 1.418427e-05 -2.319665e-25)
(-1.744438e-05 1.235276e-05 6.35457e-28)
(-1.535037e-05 1.762012e-05 2.322719e-25)
(-1.724182e-05 1.621113e-05 5.769622e-28)
(-1.474231e-05 2.059425e-05 2.596734e-28)
(-1.666941e-05 1.961175e-05 1.835831e-24)
(-1.386145e-05 2.315857e-05 -2.150688e-24)
(-1.578429e-05 2.250479e-05 2.570117e-28)
(-1.465155e-05 2.496855e-05 6.546065e-28)
(-1.275292e-05 2.528001e-05 -1.920332e-24)
(-1.935911e-05 5.697907e-06 4.671238e-28)
(-2.159766e-05 2.935155e-06 -1.180279e-27)
(-1.941397e-05 1.042004e-05 1.09188e-27)
(-2.162281e-05 8.193262e-06 1.373376e-24)
(-1.924305e-05 1.472809e-05 -1.748977e-24)
(-2.143669e-05 1.284639e-05 1.602849e-24)
(-1.874049e-05 1.857571e-05 6.110733e-28)
(-2.095231e-05 1.708961e-05 2.214529e-28)
(-1.787738e-05 2.190815e-05 2.508296e-25)
(-2.010545e-05 2.087687e-05 1.412492e-27)
(-1.671586e-05 2.472683e-05 -3.873482e-29)
(-1.896865e-05 2.412677e-05 -7.94461e-29)
(-1.752535e-05 2.68263e-05 -4.450264e-29)
(-1.530613e-05 2.706683e-05 1.081218e-29)
(-2.397242e-05 5.831563e-06 -6.004303e-28)
(-2.643836e-05 3.041021e-06 -4.010706e-24)
(-2.377897e-05 1.0843e-05 1.145139e-27)
(-2.626989e-05 8.567451e-06 -8.223242e-28)
(-2.332159e-05 1.551064e-05 5.706667e-28)
(-2.584358e-05 1.356533e-05 -1.387368e-28)
(-2.251759e-05 1.977666e-05 1.030852e-27)
(-2.509052e-05 1.822441e-05 -3.071096e-29)
(-2.138889e-05 2.348115e-05 9.823787e-28)
(-2.396654e-05 2.240765e-05 4.675303e-24)
(-1.994891e-05 2.663607e-05 2.649336e-25)
(-2.253909e-05 2.602686e-05 -8.414238e-29)
(-2.077706e-05 2.907574e-05 -4.481033e-29)
(-1.818902e-05 2.922192e-05 3.329585e-28)
(-2.893368e-05 6.118834e-06 -1.402102e-27)
(-3.167619e-05 3.213787e-06 5.347408e-24)
(-2.854775e-05 1.149094e-05 -2.106062e-27)
(-3.1371e-05 9.111218e-06 -5.457036e-24)
(-2.784512e-05 1.655549e-05 2.130613e-25)
(-3.073655e-05 1.451965e-05 -2.753799e-24)
(-2.675792e-05 2.124263e-05 2.399759e-27)
(-2.97235e-05 1.961377e-05 1.499939e-27)
(-2.533006e-05 2.534565e-05 2.618571e-25)
(-2.829882e-05 2.422761e-05 5.16486e-24)
(-2.356272e-05 2.887333e-05 -4.338687e-29)
(-2.654271e-05 2.825418e-05 -4.337349e-29)
(-2.441346e-05 3.168175e-05 0)
(-2.14496e-05 3.180015e-05 -4.591451e-28)
(-3.436808e-05 6.522297e-06 3.493018e-29)
(-3.743001e-05 3.440577e-06 1.702014e-27)
(-3.381881e-05 1.232654e-05 -2.477167e-27)
(-3.701011e-05 9.800969e-06 -1.668013e-27)
(-3.288454e-05 1.784069e-05 6.962859e-28)
(-3.617883e-05 1.568771e-05 -2.706911e-27)
(-3.150512e-05 2.298958e-05 1.520277e-27)
(-3.49008e-05 2.12698e-05 5.937505e-24)
(-2.974638e-05 2.753441e-05 1.09217e-30)
(-3.314931e-05 2.636412e-05 -5.695279e-24)
(-2.760943e-05 3.147915e-05 0)
(-3.102543e-05 3.084661e-05 0)
(-2.848364e-05 3.469989e-05 0)
(-2.508699e-05 3.479199e-05 -6.523973e-28)
(-4.037268e-05 7.026226e-06 0)
(-4.379736e-05 3.716686e-06 0)
(-3.966861e-05 1.334223e-05 -1.896931e-27)
(-4.326742e-05 1.063133e-05 2.286883e-27)
(-3.850056e-05 1.937206e-05 -1.418453e-28)
(-4.223721e-05 1.707378e-05 -7.072503e-24)
(-3.681027e-05 2.50417e-05 1.783868e-27)
(-4.067956e-05 2.321223e-05 -2.578314e-28)
(-3.468746e-05 3.008224e-05 -1.226595e-30)
(-3.857083e-05 2.884993e-05 6.350514e-24)
(-3.213829e-05 3.449645e-05 0)
(-3.603969e-05 3.384625e-05 0)
(-3.303753e-05 3.817828e-05 -1.780314e-27)
(-2.915734e-05 3.824351e-05 6.313263e-28)
(-4.703677e-05 7.627449e-06 2.285932e-27)
(-5.087062e-05 4.042514e-06 0)
(-4.617458e-05 1.454252e-05 7.686576e-29)
(-5.022688e-05 1.160729e-05 8.237029e-24)
(-4.476042e-05 2.116614e-05 -4.271799e-27)
(-4.898678e-05 1.869303e-05 -2.182799e-27)
(-4.273419e-05 2.742776e-05 -2.472946e-25)
(-4.712652e-05 2.546777e-05 -7.401217e-24)
(-4.021103e-05 3.30311e-05 2.024241e-27)
(-4.462861e-05 3.172335e-05 4.312514e-27)
(-3.720383e-05 3.797386e-05 -1.779701e-27)
(-4.164529e-05 3.730155e-05 -2.113724e-27)
(-3.813105e-05 4.217161e-05 -5.917756e-24)
(-3.371254e-05 4.220794e-05 6.136753e-25)
(-5.445206e-05 8.330616e-06 2.667354e-27)
(-5.874685e-05 4.421455e-06 3.115869e-27)
(-5.342152e-05 1.594142e-05 -1.330394e-25)
(-5.798079e-05 1.274073e-05 2.667791e-27)
(-5.174097e-05 2.324769e-05 -2.366612e-27)
(-5.651314e-05 2.056891e-05 6.390825e-29)
(-4.934962e-05 3.018305e-05 -1.020017e-28)
(-5.431979e-05 2.806854e-05 -2.380706e-27)
(-4.638571e-05 3.642909e-05 1.708791e-28)
(-5.14021e-05 3.502402e-05 8.405288e-24)
(-4.286797e-05 4.196716e-05 -2.115579e-27)
(-4.791142e-05 4.126824e-05 -7.371675e-24)
(-4.382703e-05 4.674333e-05 6.636008e-24)
(-3.880814e-05 4.674622e-05 -1.825648e-30)
(-6.271933e-05 9.144806e-06 3.11647e-27)
(-6.753413e-05 4.85868e-06 1.082165e-23)
(-6.150582e-05 1.755896e-05 3.335849e-29)
(-6.663441e-05 1.40481e-05 0)
(-5.952847e-05 2.565065e-05 -2.464791e-25)
(-6.491878e-05 2.27352e-05 1.067714e-28)
(-5.674802e-05 3.333603e-05 5.351977e-27)
(-6.234813e-05 3.108166e-05 -3.842629e-27)
(-5.329934e-05 4.033101e-05 2.827138e-27)
(-5.900235e-05 3.875788e-05 1.047819e-23)
(-4.920225e-05 4.654033e-05 -2.319839e-28)
(-5.491877e-05 4.580387e-05 -2.433362e-27)
(-5.01984e-05 5.196779e-05 -3.178067e-28)
(-4.450617e-05 5.193083e-05 4.232215e-28)
(-7.195249e-05 1.008145e-05 3.576976e-27)
(-7.735398e-05 5.359972e-06 3.575328e-27)
(-7.05415e-05 1.942015e-05 7.33291e-29)
(-7.630878e-05 1.55446e-05 4.00632e-27)
(-6.821946e-05 2.842505e-05 -4.398532e-25)
(-7.434015e-05 2.520344e-05 7.33478e-29)
(-6.507377e-05 3.692407e-05 4.536642e-24)
(-7.142784e-05 3.448145e-05 -9.63123e-24)
(-6.10747e-05 4.47872e-05 2.046139e-27)
(-6.758789e-05 4.307391e-05 1.919092e-27)
(-5.629342e-05 5.176758e-05 -2.519545e-27)
(-6.277429e-05 5.099136e-05 -1.637268e-28)
(-5.733217e-05 5.79337e-05 -8.496943e-24)
(-5.087935e-05 5.784908e-05 -4.743611e-27)
(-8.227745e-05 1.115176e-05 4.004386e-27)
(-8.834166e-05 5.933352e-06 0)
(-8.065151e-05 2.153837e-05 4.007128e-27)
(-8.712942e-05 1.725519e-05 1.363285e-23)
(-7.802801e-05 3.154529e-05 -3.798735e-27)
(-8.486013e-05 2.801888e-05 4.519521e-29)
(-7.443107e-05 4.099892e-05 6.769794e-25)
(-8.15308e-05 3.831934e-05 -3.740903e-27)
(-6.97224e-05 4.988275e-05 -3.02418e-28)
(-7.711345e-05 4.802733e-05 -1.384225e-28)
(-6.423469e-05 5.773907e-05 7.984615e-25)
(-7.157435e-05 5.691479e-05 -1.636557e-28)
(-6.532901e-05 6.474029e-05 -3.062091e-27)
(-5.80155e-05 6.46031e-05 -3.266228e-27)
(-9.383981e-05 1.237629e-05 9.136235e-27)
(-0.0001006563 6.587567e-06 5.30667e-27)
(-9.196831e-05 2.396728e-05 9.187677e-27)
(-9.925882e-05 1.920752e-05 1.54408e-23)
(-8.896664e-05 3.514819e-05 -2.686025e-25)
(-9.666016e-05 3.124039e-05 1.459632e-28)
(-8.484657e-05 4.571842e-05 6.280787e-29)
(-9.285391e-05 4.276175e-05 1.307815e-28)
(-7.943528e-05 5.569691e-05 0)
(-8.779551e-05 5.365565e-05 0)
(-7.314792e-05 6.454706e-05 0)
(-8.145851e-05 6.365688e-05 4.324676e-27)
(-7.431126e-05 7.249427e-05 4.63527e-28)
(-6.602161e-05 7.230472e-05 2.270628e-28)
(-0.0001068069 1.377009e-05 1.395511e-25)
(-0.0001144741 7.330616e-06 1.78717e-23)
(-0.0001046633 2.672979e-05 -1.880602e-25)
(-0.0001128692 2.142471e-05 1.114373e-26)
(-0.0001012352 3.92419e-05 -2.914718e-25)
(-0.0001099049 3.489798e-05 2.694145e-28)
(-9.652879e-05 5.108816e-05 7.00617e-29)
(-0.000105564 4.781153e-05 2.230487e-28)
(-9.035019e-05 6.230123e-05 4.37495e-27)
(-9.978979e-05 6.003837e-05 0)
(-8.317107e-05 7.229537e-05 -9.605136e-25)
(-9.258707e-05 7.129953e-05 1.492324e-23)
(-8.441868e-05 8.131096e-05 7.233405e-28)
(-7.502448e-05 8.107432e-05 -1.048348e-24)
(-0.0001213636 1.535075e-05 1.481025e-25)
(-0.0001299918 8.171753e-06 1.288136e-26)
(-0.0001189173 2.986243e-05 -2.05308e-25)
(-0.0001281542 2.393475e-05 1.974665e-23)
(-0.0001150143 4.38854e-05 -6.328218e-25)
(-0.0001247857 3.904127e-05 6.653897e-27)
(-0.0001096428 5.718226e-05 1.565725e-28)
(-0.0001198505 5.355203e-05 1.540672e-28)
(-0.0001026451 6.975137e-05 4.737392e-27)
(-0.0001132599 6.734543e-05 -1.641375e-27)
(-9.44795e-05 8.109423e-05 4.938887e-27)
(-0.0001051842 7.983989e-05 2.258582e-27)
(-9.580996e-05 9.130051e-05 -3.225946e-28)
(-8.517073e-05 9.103925e-05 -1.15159e-24)
(-0.0001377161 1.713734e-05 2.025986e-26)
(-0.0001474278 9.120641e-06 2.274178e-23)
(-0.0001349353 3.340364e-05 1.989863e-26)
(-0.0001453299 2.67656e-05 2.220844e-23)
(-0.0001305173 4.914312e-05 6.490017e-27)
(-0.0001415224 4.370943e-05 2.140251e-23)
(-0.0001243786 6.412995e-05 -1.626496e-27)
(-0.0001359873 5.999714e-05 6.8206e-27)
(-0.0001166482 7.816181e-05 7.802055e-24)
(-0.0001286879 7.548796e-05 -1.876297e-27)
(-0.0001073126 9.104454e-05 2.655161e-24)
(-0.0001196009 8.962457e-05 3.484147e-27)
(-0.0001086895 0.000102616 -5.678093e-27)
(-9.663094e-05 0.0001023364 -5.824463e-28)
(-0.0001560914 1.914971e-05 -1.308798e-25)
(-0.0001670237 1.018884e-05 7.772313e-27)
(-0.0001529365 3.738807e-05 2.853422e-25)
(-0.0001646295 2.995208e-05 2.505804e-23)
(-0.0001479565 5.503636e-05 2.144942e-26)
(-0.0001603227 4.896459e-05 2.439608e-23)
(-0.0001411282 7.181678e-05 8.844246e-25)
(-0.0001540671 6.724159e-05 2.354524e-23)
(-0.0001325013 8.756154e-05 5.582413e-27)
(-0.0001458651 8.45283e-05 -2.418783e-28)
(-0.0001216683 0.0001022824 6.795855e-28)
(-0.0001356079 0.0001007101 1.958571e-23)
(-0.0001232319 0.0001154025 -1.90197e-23)
(-0.0001095805 0.0001151223 -1.405761e-24)
(-0.0001767442 2.141361e-05 8.55511e-27)
(-0.0001890501 1.13882e-05 -9.950771e-27)
(-0.000173171 4.187469e-05 2.958578e-25)
(-0.0001863246 3.353109e-05 8.556361e-27)
(-0.0001675543 6.169543e-05 2.411799e-26)
(-0.0001814728 5.487467e-05 8.242588e-27)
(-0.0001598743 8.058221e-05 1.590209e-26)
(-0.0001744339 7.542145e-05 2.648671e-23)
(-0.0001501591 9.83177e-05 6.599254e-27)
(-0.0001652059 9.487707e-05 -8.734975e-27)
(-0.0001379012 0.0001149618 6.622412e-27)
(-0.0001536263 0.0001131438 6.739098e-27)
(-0.0001396945 0.0001297733 2.324015e-23)
(-0.0001242411 0.0001295621 4.587337e-27)
(-0.0001999568 2.395094e-05 -9.95257e-27)
(-0.0002138025 1.272944e-05 -3.219269e-23)
(-0.0001959235 4.690458e-05 0)
(-0.000210708 3.753469e-05 0)
(-0.0001896122 6.916402e-05 -2.358592e-28)
(-0.0002052627 6.148931e-05 0)
(-0.0001809811 9.041588e-05 1.066336e-24)
(-0.0001973694 8.458929e-05 -3.004808e-23)
(-0.000170023 0.0001104022 -8.914434e-27)
(-0.0001870015 0.0001065475 -2.968742e-23)
(-0.0001562793 0.00012913 7.076108e-27)
(-0.0001739292 0.0001272941 8.750472e-27)
(-0.0001584578 0.0001457083 7.030236e-27)
(-0.0001408776 0.0001458304 1.402698e-26)
(-0.0002260371 2.678363e-05 -2.250463e-26)
(-0.0002416037 1.422338e-05 -3.589443e-23)
(-0.0002215003 5.252145e-05 0)
(-0.0002380995 4.199473e-05 -6.705729e-29)
(-0.0002144403 7.751224e-05 -9.884557e-27)
(-0.0002320139 6.885997e-05 -1.213097e-26)
(-0.0002047984 0.0001014419 -1.090956e-24)
(-0.0002232159 9.480357e-05 -1.018964e-26)
(-0.0001924388 0.0001240986 -1.035621e-26)
(-0.0002117453 0.000119518 -3.041822e-23)
(-0.0001774443 0.0001450988 8.805344e-27)
(-0.0001974665 0.0001429355 2.383124e-23)
(-0.0001801963 0.0001639087 0)
(-0.0001598828 0.0001641522 -7.014125e-27)
(-0.0002553183 2.99325e-05 -1.277866e-26)
(-0.0002728004 1.58798e-05 -1.270405e-26)
(-0.0002502319 5.87663e-05 3.498064e-25)
(-0.0002688432 4.694242e-05 1.395579e-26)
(-0.0002423616 8.679124e-05 -1.243655e-26)
(-0.0002620635 7.704475e-05 -3.852868e-23)
(-0.000231642 0.0001136568 1.222943e-24)
(-0.0002522656 0.0001061607 -3.034932e-28)
(-0.000218035 0.0001390546 9.54066e-27)
(-0.0002394793 0.0001339339 3.694941e-23)
(-0.000201552 0.0001627352 1.020332e-26)
(-0.0002236143 0.00016009 7.900929e-27)
(-0.000204312 0.0001844267 -1.180538e-27)
(-0.0001812012 0.0001846955 -6.818279e-27)
(-0.0002881607 3.341627e-05 1.401385e-26)
(-0.0003077644 1.770504e-05 1.617136e-26)
(-0.0002824816 6.568441e-05 4.579186e-28)
(-0.0003033169 5.240183e-05 4.349029e-23)
(-0.000273744 9.709465e-05 -1.357925e-26)
(-0.0002958045 8.609252e-05 -2.887518e-26)
(-0.0002618451 0.0001272951 1.135106e-26)
(-0.0002849641 0.0001187501 0)
(-0.0002467543 0.0001559727 3.163299e-24)
(-0.0002708137 0.000150015 1.231138e-26)
(-0.0002284262 0.0001828213 4.82555e-24)
(-0.000253229 0.0001795675 -2.046521e-27)
(-0.0002317105 0.0002073049 -2.505236e-27)
(-0.0002055268 0.000207927 1.93246e-28)
(-0.0003249479 3.724158e-05 3.198261e-26)
(-0.0003468785 1.970014e-05 4.782808e-23)
(-0.0003186451 7.330127e-05 5.263869e-28)
(-0.0003419211 5.837292e-05 3.362317e-26)
(-0.0003090043 0.0001084567 -1.530866e-26)
(-0.0003336448 9.602385e-05 -4.749726e-23)
(-0.000295883 0.0001423627 9.578207e-28)
(-0.0003217329 0.0001325984 0)
(-0.0002792172 0.0001746932 -3.354161e-24)
(-0.000306172 0.0001677515 9.579576e-28)
(-0.0002588917 0.000205107 5.11058e-24)
(-0.0002867807 0.0002012171 1.447391e-26)
(-0.0002629838 0.0002330733 -3.174277e-27)
(-0.0002335779 0.000233729 -1.158264e-26)
(-0.0003660809 4.139009e-05 3.602404e-26)
(-0.0003905363 2.184193e-05 3.874055e-26)
(-0.0003591427 8.162142e-05 5.572607e-28)
(-0.0003850845 6.484096e-05 5.356592e-23)
(-0.0003485703 0.0001208961 -1.726674e-26)
(-0.000376012 0.000106839 -1.725321e-26)
(-0.0003342094 0.0001589014 0)
(-0.0003630239 0.0001477135 -1.767679e-26)
(-0.0003159763 0.0001953286 1.444723e-26)
(-0.0003460618 0.0001871328 1.193487e-27)
(-0.0002935775 0.0002299797 1.290435e-26)
(-0.0003250922 0.0002247534 4.461447e-23)
(-0.0002999295 0.0002604857 -2.152451e-23)
(-0.0002672159 0.0002624455 -2.13796e-23)
(-0.000411966 4.580513e-05 -4.141371e-25)
(-0.0004390693 2.417781e-05 5.244672e-23)
(-0.0004044025 9.063516e-05 2.015503e-26)
(-0.0004332584 7.162745e-05 2.02052e-26)
(-0.0003928843 0.0001344006 -1.766234e-26)
(-0.0004233343 0.0001184648 2.222404e-26)
(-0.0003772672 0.0001768971 -3.033416e-24)
(-0.0004092961 0.0001640933 -5.871351e-23)
(-0.0003573914 0.0002177129 3.252317e-26)
(-0.0003908469 0.000208276 2.106659e-26)
(-0.0003330024 0.0002562643 5.279304e-24)
(-0.0003677744 0.0002506045 6.363634e-23)
(-0.0003394974 0.0002905189 6.962213e-23)
(-0.0003038564 0.0002916357 2.273174e-23)
(-0.0004630646 5.036416e-05 2.316489e-26)
(-0.0004931196 2.652865e-05 2.295399e-26)
(-0.0004549916 0.0001001755 2.227943e-26)
(-0.0004869756 7.887901e-05 0)
(-0.0004424647 0.0001489141 -1.232432e-24)
(-0.0004761629 0.0001307936 6.455676e-23)
(-0.0004256339 0.000196419 -6.225785e-28)
(-0.0004611425 0.0001816414 -2.045963e-26)
(-0.000404106 0.0002423927 5.694747e-26)
(-0.000441391 0.0002311434 6.699379e-23)
(-0.0003774228 0.0002864124 5.40777e-26)
(-0.0004165733 0.0002790671 7.164469e-23)
(-0.0003859326 0.0003251372 -2.364508e-27)
(-0.0003449286 0.0003279755 4.576144e-26)
(-0.000519658 5.522855e-05 0)
(-0.0005526801 2.89817e-05 2.905967e-26)
(-0.0005109756 0.0001101307 4.928688e-26)
(-0.0005459498 8.674737e-05 -2.805365e-26)
(-0.0004978202 0.0001642845 4.910213e-26)
(-0.0005349282 0.0001432791 7.056916e-23)
(-0.0004799414 0.0002172348 4.486048e-26)
(-0.0005190597 0.0001999445 0)
(-0.0004570704 0.0002688722 6.592322e-26)
(-0.0004982692 0.0002553344 7.270255e-23)
(-0.0004286516 0.0003189866 1.814597e-27)
(-0.0004721722 0.0003093085 2.101564e-26)
(-0.0004401091 0.0003617921 -7.366001e-23)
(-0.0003935913 0.0003674137 -1.955591e-26)
(-0.0005817963 6.056743e-05 -8.275981e-25)
(-0.0006183267 3.155393e-05 6.196442e-23)
(-0.0005730229 0.0001201877 -5.54191e-26)
(-0.0006113364 9.447404e-05 -5.963287e-23)
(-0.0005597042 0.000179807 -2.717659e-26)
(-0.000600146 0.0001565322 -1.199153e-22)
(-0.0005408344 0.0002389653 2.535987e-26)
(-0.0005838955 0.0002181219 -6.005852e-26)
(-0.0005168153 0.0002966578 2.535388e-26)
(-0.0005619456 0.0002803259 5.210174e-26)
(-0.0004870964 0.0003531639 -1.744817e-26)
(-0.0005349444 0.0003409647 -2.14273e-27)
(-0.000501301 0.000400391 -1.493096e-26)
(-0.0004506655 0.0004078982 -9.616953e-24)
(-0.0006504618 6.561734e-05 6.906779e-28)
(-0.0006897734 3.403563e-05 3.22961e-26)
(-0.0006411553 0.0001304585 -1.235719e-25)
(-0.0006827557 0.000101709 -3.189466e-26)
(-0.0006281015 0.0001952069 -1.53203e-25)
(-0.0006719275 0.000169382 -5.719815e-23)
(-0.0006091397 0.000260923 3.583913e-24)
(-0.0006563563 0.0002366364 -1.536811e-22)
(-0.0005840321 0.0003253613 2.460968e-26)
(-0.0006332152 0.0003054419 9.473772e-23)
(-0.0005533935 0.0003891519 2.970704e-24)
(-0.0006058992 0.0003735022 -6.808205e-27)
(-0.0005714493 0.0004410338 -8.557168e-27)
(-0.000515356 0.0004518797 -7.893732e-24)
(-0.0007247909 7.058383e-05 5.142005e-25)
(-0.0007670108 3.643515e-05 3.123077e-30)
(-0.0007159059 0.0001402376 -3.576376e-26)
(-0.0007598299 0.0001089079 1.036294e-29)
(-0.0007030687 0.0002100946 1.97582e-24)
(-0.0007493845 0.0001813393 -7.324762e-26)
(-0.0006840851 0.0002821142 1.6603e-24)
(-0.0007341898 0.000255374 -9.002851e-26)
(-0.000659515 0.000354132 3.123775e-26)
(-0.0007127747 0.0003287949 5.490797e-26)
(-0.0006287875 0.0004258981 3.275724e-24)
(-0.0006858027 0.000405382 -3.42204e-26)
(-0.0006518062 0.0004820477 -1.105789e-26)
(-0.0005903252 0.0004977701 3.452091e-24)
(-0.0008047983 7.527844e-05 -4.776465e-25)
(-0.0008498256 3.857628e-05 5.435053e-29)
(-0.0007963471 0.000149804 -3.73236e-26)
(-0.0008427043 0.0001154323 1.681988e-28)
(-0.0007838279 0.0002252887 8.427329e-25)
(-0.0008336272 0.0001924892 -5.735585e-23)
(-0.0007671267 0.0003018544 5.440061e-24)
(-0.0008201957 0.0002717445 -6.093624e-23)
(-0.0007446192 0.0003807794 -8.399681e-25)
(-0.0008012236 0.0003517049 -4.133323e-26)
(-0.0007144145 0.0004618473 -2.953672e-26)
(-0.0007761343 0.0004339608 -1.431076e-22)
(-0.0007429732 0.0005213837 0)
(-0.0006767545 0.0005433545 1.744877e-27)
(-0.0008901017 7.924019e-05 0)
(-0.0009375121 4.029366e-05 1.170009e-28)
(-0.0008824591 0.0001577816 -4.292376e-26)
(-0.0009305353 0.0001206929 -3.503605e-28)
(-0.0008722619 0.0002374261 -8.820137e-26)
(-0.000922988 0.0002014254 -4.415102e-26)
(-0.0008572001 0.0003194417 -7.045174e-24)
(-0.0009124949 0.0002841532 -4.514178e-26)
(-0.0008385135 0.0004042016 -2.799013e-23)
(-0.0008974986 0.0003705301 -5.303894e-23)
(-0.0008115751 0.0004948014 -5.756714e-26)
(-0.0008777839 0.000459424 -5.270096e-26)
(-0.0008459216 0.0005564091 1.353794e-26)
(-0.0007756472 0.0005867545 3.518558e-26)
(-0.000979889 8.22463e-05 -8.666413e-25)
(-0.001029122 4.142674e-05 5.330255e-26)
(-0.0009732565 0.0001639693 -5.282419e-25)
(-0.001022519 0.000124286 -7.212108e-28)
(-0.0009655435 0.0002471118 -1.216678e-27)
(-0.00101689 0.0002078178 5.10333e-26)
(-0.0009545753 0.0003327916 -9.110977e-26)
(-0.001009532 0.0002937294 0)
(-0.0009399282 0.0004221905 -8.910761e-26)
(-0.0009986389 0.0003837131 -8.427832e-23)
(-0.0009176626 0.0005207979 2.080179e-23)
(-0.0009841796 0.000480839 -1.023792e-26)
(-0.0009619729 0.0005826079 7.61226e-26)
(-0.0008879352 0.0006249121 8.16238e-24)
(-0.001073066 8.388939e-05 7.002418e-25)
(-0.001123252 4.175564e-05 3.335531e-24)
(-0.001067851 0.0001676151 5.180643e-26)
(-0.001117446 0.0001255235 5.671691e-26)
(-0.001063126 0.0002532551 5.226559e-26)
(-0.001114318 0.0002105256 2.513455e-23)
(-0.001056785 0.0003424383 -5.538478e-26)
(-0.001111226 0.0002984026 3.454947e-27)
(-0.001046599 0.0004374731 -1.536742e-23)
(-0.001107101 0.0003911121 -4.627318e-26)
(-0.001035038 0.0005390434 1.786118e-22)
(-0.001099999 0.0004915094 -3.571316e-23)
(-0.001090494 0.0005991941 9.12936e-26)
(-0.001014896 0.0006538045 1.378182e-23)
(-0.00116811 8.358307e-05 3.049939e-25)
(-0.001217993 4.126723e-05 5.794644e-26)
(-0.001164868 0.0001678275 1.142685e-25)
(-0.001213729 0.0001234884 -6.274182e-24)
(-0.001163719 0.0002542191 6.067735e-26)
(-0.001213405 0.0002083422 -4.868819e-27)
(-0.001163094 0.000344564 1.133393e-23)
(-0.001215084 0.0002964851 1.750509e-27)
(-0.001161171 0.0004406989 1.426608e-23)
(-0.001217716 0.0003898231 7.583114e-26)
(-0.001158085 0.0005444595 3.821197e-23)
(-0.001218798 0.0004911126 -3.312915e-26)
(-0.001220512 0.0006055 2.826816e-26)
(-0.001150052 0.0006663708 8.557212e-23)
(-0.001263133 8.100444e-05 -6.089277e-26)
(-0.001311867 3.955771e-05 -6.766444e-26)
(-0.001262642 0.0001633575 2.144475e-24)
(-0.001309107 0.0001186955 1.000589e-22)
(-0.001265596 0.0002490913 -3.892625e-24)
(-0.001312593 0.0001997019 1.531039e-23)
(-0.00127119 0.0003390391 6.490435e-26)
(-0.001319451 0.0002863735 -1.36365e-25)
(-0.001278307 0.0004360939 2.263811e-23)
(-0.00133037 0.0003786078 2.29175e-23)
(-0.001284359 0.0005436962 5.841489e-27)
(-0.001343902 0.0004792592 -5.801336e-26)
(-0.001359082 0.0005931999 -8.455112e-26)
(-0.001296824 0.0006636107 -6.313e-27)
(-0.001355555 7.679218e-05 -1.985889e-25)
(-0.001401937 3.634713e-05 8.062618e-23)
(-0.001358025 0.0001537854 1.411294e-23)
(-0.001400635 0.0001099969 -1.304163e-25)
(-0.001366885 0.0002354854 -1.986808e-25)
(-0.001408595 0.0001850432 -6.355208e-26)
(-0.001379485 0.0003232893 -6.234592e-26)
(-0.001422334 0.0002653942 1.952361e-23)
(-0.001397729 0.0004176473 1.729236e-23)
(-0.001441891 0.0003539595 -7.511522e-26)
(-0.001420924 0.0005218652 -1.461187e-25)
(-0.001470584 0.0004508308 -1.256981e-22)
(-0.001506243 0.000564345 -9.099946e-23)
(-0.001447466 0.0006394238 -1.165684e-22)
(-0.001443293 6.941224e-05 -1.977768e-25)
(-0.001484708 3.16398e-05 4.048064e-27)
(-0.001447729 0.0001392032 2.958904e-28)
(-0.001485215 9.578247e-05 -1.478512e-28)
(-0.001462965 0.0002124943 -1.458229e-27)
(-0.001497531 0.0001625 -8.013959e-28)
(-0.001486856 0.0002943417 -1.506711e-25)
(-0.001520456 0.000233269 -7.681007e-23)
(-0.001519134 0.0003838958 -3.044937e-25)
(-0.001554419 0.0003121069 -1.894579e-22)
(-0.001560591 0.0004815146 -9.054219e-23)
(-0.001602117 0.0004071223 -5.476323e-23)
(-0.00165444 0.0005295203 -8.775484e-27)
(-0.001604136 0.000594433 -6.147877e-22)
(-0.001521566 5.835672e-05 7.522757e-26)
(-0.001556201 2.492963e-05 -1.711222e-22)
(-0.001530211 0.0001173722 -3.856899e-24)
(-0.001558957 7.595001e-05 -4.384326e-28)
(-0.001551629 0.0001805549 1.562951e-25)
(-0.001577823 0.0001291252 -1.765537e-27)
(-0.001590298 0.0002491382 3.108157e-23)
(-0.001612607 0.0001868419 1.557092e-25)
(-0.001642456 0.0003259515 -7.883648e-26)
(-0.001667177 0.0002550696 -1.247031e-22)
(-0.001694861 0.0004136117 3.395171e-27)
(-0.001728673 0.0003524343 -7.317064e-26)
(-0.001782189 0.0004944166 -3.289839e-22)
(-0.001746465 0.0005170163 8.515803e-26)
(-0.001586723 4.283942e-05 7.893725e-26)
(-0.001611737 1.584343e-05 7.894801e-26)
(-0.001601313 8.753607e-05 -9.731049e-28)
(-0.001618781 4.862264e-05 -9.830099e-29)
(-0.001636107 0.0001347056 1.176445e-24)
(-0.001647776 8.248357e-05 -1.20892e-27)
(-0.001687187 0.0001856488 1.729685e-25)
(-0.001702764 0.0001245608 -1.17917e-27)
(-0.001751894 0.0002409387 2.546716e-21)
(-0.001766795 0.0001905893 1.753934e-25)
(-0.001809492 0.0003174923 1.187586e-25)
(-0.001834046 0.000294881 1.172697e-26)
(-0.00188327 0.0004546507 9.230978e-26)
(-0.001853068 0.0004231942 3.230797e-21)
(-0.001635043 2.228807e-05 -9.810628e-29)
(-0.001646983 3.843967e-06 0)
(-0.001659249 4.641153e-05 2.258212e-23)
(-0.001661539 1.110696e-05 -1.693493e-27)
(-0.001709859 6.804701e-05 4.037986e-29)
(-0.00170533 2.061099e-05 -2.4738e-27)
(-0.001772679 9.758654e-05 2.764525e-22)
(-0.001777553 5.148192e-05 -2.012998e-27)
(-0.001827911 0.0001383098 -2.447388e-28)
(-0.001839197 0.0001254002 -2.657504e-28)
(-0.001887475 0.000202014 -1.154638e-20)
(-0.001886289 0.0002477163 -2.216866e-27)
(-0.001945809 0.0004186653 -2.840508e-26)
(-0.001921313 0.0003023641 9.539246e-26)
(-0.001663107 -3.6764e-06 -1.585526e-27)
(-0.001658197 -1.25033e-05 8.273223e-26)
(-0.001698925 -1.111629e-05 -2.325932e-23)
(-0.001684821 -3.783815e-05 8.497194e-26)
(-0.001760982 -2.220285e-05 -4.595433e-27)
(-0.00174217 -5.231979e-05 -2.190696e-27)
(-0.001824844 -1.374948e-05 1.398553e-21)
(-0.001814225 -2.51841e-05 -2.397579e-27)
(-0.001868534 2.154543e-05 -2.184335e-27)
(-0.001868974 6.492968e-05 -1.165464e-27)
(-0.001898971 8.430677e-05 -4.878291e-21)
(-0.00189559 0.0002127965 1.038208e-25)
(-0.001914384 0.0004156837 -1.292867e-26)
(-0.001945719 0.0001810646 -2.683015e-20)
(-0.00166752 -3.960766e-05 8.673444e-24)
(-0.001642202 -3.40268e-05 -3.478892e-22)
(-0.001713683 -8.651129e-05 8.595055e-26)
(-0.001682761 -9.436726e-05 -4.334229e-22)
(-0.001771662 -0.0001252316 -2.806612e-29)
(-0.001742386 -0.0001226849 -1.685757e-27)
(-0.001829149 -0.0001352501 -1.725727e-28)
(-0.001796218 -9.046192e-05 -3.528912e-27)
(-0.001859336 -9.641783e-05 1.060166e-25)
(-0.001852041 1.591899e-05 -1.009627e-25)
(-0.001870618 -2.733195e-05 1.053356e-25)
(-0.00185145 0.0001967502 -1.243004e-21)
(-0.001856993 0.0004326126 3.96068e-25)
(-0.001872341 6.945862e-05 2.020044e-25)
(-0.001640888 -8.741194e-05 2.531392e-25)
(-0.001596142 -5.804111e-05 2.328733e-27)
(-0.001689903 -0.0001733621 -1.749804e-22)
(-0.001642125 -0.0001515742 -5.882874e-22)
(-0.001739574 -0.000232797 9.916959e-22)
(-0.001694143 -0.0001863247 -9.069663e-26)
(-0.001777242 -0.0002464227 -1.02842e-25)
(-0.001735265 -0.0001405391 -3.359574e-27)
(-0.001803821 -0.0002017434 1.048301e-25)
(-0.00175864 -7.272393e-06 1.117253e-21)
(-0.001813845 -0.0001188281 6.115266e-25)
(-0.001753089 0.0002017024 -1.179367e-21)
(-0.001805998 0.0004646149 -1.543965e-20)
(-0.001787309 9.265319e-06 6.115802e-25)
(-0.001576308 -0.0001421288 4.719691e-23)
(-0.001515884 -7.904521e-05 4.534465e-22)
(-0.00161837 -0.0002625319 -8.969933e-26)
(-0.001553442 -0.0002009189 6.330982e-22)
(-0.001656485 -0.0003356626 -8.899601e-26)
(-0.001592186 -0.0002375623 8.646086e-22)
(-0.001681586 -0.0003453468 -2.001238e-25)
(-0.001622164 -0.000175072 8.272652e-26)
(-0.001688016 -0.0002928924 8.065417e-21)
(-0.001634948 -1.65819e-05 1.290584e-21)
(-0.001681072 -0.0001920691 5.766866e-25)
(-0.00162575 0.0002196887 -1.500736e-21)
(-0.001611942 0.0005206353 3.803343e-25)
(-0.001699428 -5.000159e-05 9.529318e-25)
(-0.001470324 -0.0001939751 -7.878174e-26)
(-0.001399583 -9.437894e-05 -5.228126e-22)
(-0.001496728 -0.0003416259 -1.625441e-25)
(-0.001417976 -0.0002351626 -8.028781e-26)
(-0.001520025 -0.0004219823 -1.023359e-27)
(-0.001437812 -0.0002677244 -8.497594e-26)
(-0.001533321 -0.0004268949 3.374104e-21)
(-0.001453868 -0.0001896134 -1.050528e-21)
(-0.001530709 -0.0003685379 1.787119e-25)
(-0.001454396 -7.601336e-06 -1.370583e-21)
(-0.001515151 -0.0002661466 1.899785e-25)
(-0.001439158 0.0002459059 -1.851871e-21)
(-0.001418773 0.0005499233 -1.094987e-27)
(-0.001512154 -0.000127143 1.75584e-20)
(-0.001322786 -0.0002369209 1.02067e-25)
(-0.001239579 -0.000100012 -2.651451e-22)