/*--------------------------------*- C++ -*----------------------------------*\
| =========                 |                                                 |
| \\      /  F ield         | OpenFOAM: The Open Source CFD Toolbox           |
|  \\    /   O peration     | Version:  v2006                                 |
|   \\  /    A nd           | Website:  www.openfoam.com                      |
|    \\/     M anipulation  |                                                 |
\*---------------------------------------------------------------------------*/
FoamFile
{
    version     2.0;
    format      ascii;
    class       volScalarField;
    location    "1340";
    object      p;
}
// * * * * * * * * * * * * * * * * * * * * * * * * * * * * * * * * * * * * * //

dimensions      [1 -1 -2 0 0 0 0];


internalField   nonuniform List<scalar> 
120
(
0.589791
-4.07032
-8.73078
-13.3916
-18.0528
-22.7144
-27.3763
-32.0387
-36.7014
-41.3645
-46.028
-50.6919
-55.3563
-60.021
-64.6861
-69.3517
-74.0177
-78.6841
-83.351
-88.0183
-92.6861
-97.3543
-102.023
-106.692
-111.362
-116.032
-120.703
-125.374
-130.045
-134.717
-139.39
-144.063
-148.737
-153.411
-158.086
-162.761
-167.437
-172.114
-176.791
-181.469
-186.147
-190.826
-195.506
-200.186
-204.867
-209.549
-214.231
-218.914
-223.598
-228.283
-232.968
-237.654
-242.341
-247.029
-251.717
-256.406
-261.097
-265.788
-270.48
-275.173
-279.867
-284.562
-289.258
-293.955
-298.653
-303.352
-308.053
-312.754
-317.457
-322.161
-326.867
-331.574
-336.282
-340.992
-345.704
-350.417
-355.132
-359.849
-364.568
-369.29
-374.013
-378.74
-383.469
-388.202
-392.938
-397.679
-402.423
-407.169
-411.926
-416.692
-421.636
-426.36
-431.029
-435.687
-440.346
-445.006
-449.666
-454.326
-458.985
-463.645
-468.305
-472.965
-477.624
-482.284
-486.944
-491.604
-496.263
-500.923
-505.583
-510.243
-514.902
-519.562
-524.222
-528.882
-533.541
-538.201
-542.861
-547.521
-552.18
-556.84
)
;

boundaryField
{
    inlet
    {
        type            cyclic;
    }
    outlet
    {
        type            cyclic;
    }
    top
    {
        type            calculated;
        value           uniform -559.17;
    }
    bottom
    {
        type            calculated;
        value           uniform 2.91967;
    }
    frontAndBackPlanes
    {
        type            empty;
    }
}


// ************************************************************************* //
