/*--------------------------------*- C++ -*----------------------------------*\
| =========                 |                                                 |
| \\      /  F ield         | OpenFOAM: The Open Source CFD Toolbox           |
|  \\    /   O peration     | Version:  v2006                                 |
|   \\  /    A nd           | Website:  www.openfoam.com                      |
|    \\/     M anipulation  |                                                 |
\*---------------------------------------------------------------------------*/
FoamFile
{
    version     2.0;
    format      ascii;
    class       volScalarField;
    location    "1340";
    object      pff;
}
// * * * * * * * * * * * * * * * * * * * * * * * * * * * * * * * * * * * * * //

dimensions      [1 -1 -2 0 0 0 0];


internalField   nonuniform List<scalar> 
120
(
23.6112
23.3173
23.0239
22.7308
22.4381
22.1458
21.8538
21.5623
21.2712
20.9805
20.6903
20.4004
20.111
19.822
19.5334
19.2453
18.9576
18.6704
18.3837
18.0974
17.8116
17.5262
17.2414
16.957
16.6731
16.3898
16.1069
15.8246
15.5428
15.2615
14.9808
14.7006
14.421
14.142
13.8635
13.5856
13.3083
13.0316
12.7556
12.4801
12.2053
11.9312
11.6577
11.3849
11.1128
10.8413
10.5706
10.3007
10.0314
9.76295
9.49523
9.2283
8.96216
8.69683
8.43233
8.16867
7.90588
7.64396
7.38295
7.12286
6.86372
6.60555
6.34838
6.09223
5.83713
5.58309
5.33013
5.07829
4.82756
4.57798
4.32955
4.08231
3.83627
3.59148
3.34797
3.10579
2.86499
2.62559
2.38758
2.15085
1.91509
1.6796
1.4429
1.20362
0.965966
0.741864
0.535724
0.353382
0.166014
0
0
0
0
0
0
0
0
0
0
0
0
0
0
0
0
0
0
0
0
0
0
0
0
0
0
0
0
0
0
0
)
;

boundaryField
{
    inlet
    {
        type            cyclic;
    }
    outlet
    {
        type            cyclic;
    }
    top
    {
        type            calculated;
        value           uniform 0;
    }
    bottom
    {
        type            calculated;
        value           uniform 23.6112;
    }
    frontAndBackPlanes
    {
        type            empty;
    }
}


// ************************************************************************* //
