/*--------------------------------*- C++ -*----------------------------------*\
| =========                 |                                                 |
| \\      /  F ield         | OpenFOAM: The Open Source CFD Toolbox           |
|  \\    /   O peration     | Version:  v2006                                 |
|   \\  /    A nd           | Website:  www.openfoam.com                      |
|    \\/     M anipulation  |                                                 |
\*---------------------------------------------------------------------------*/
FoamFile
{
    version     2.0;
    format      ascii;
    class       surfaceScalarField;
    location    "1340";
    object      phia;
}
// * * * * * * * * * * * * * * * * * * * * * * * * * * * * * * * * * * * * * //

dimensions      [0 3 -1 0 0 0 0];
oriented        oriented;


internalField   nonuniform List<scalar> 
119
(
-8.98172e-16
-1.80784e-15
-2.72926e-15
-3.66269e-15
-4.60841e-15
-5.56671e-15
-6.53787e-15
-7.52222e-15
-8.52007e-15
-9.53175e-15
-1.05576e-14
-1.15981e-14
-1.26534e-14
-1.37242e-14
-1.48106e-14
-1.59133e-14
-1.70325e-14
-1.81689e-14
-1.93229e-14
-2.04949e-14
-2.16855e-14
-2.28952e-14
-2.41245e-14
-2.53741e-14
-2.66446e-14
-2.79365e-14
-2.92505e-14
-3.05872e-14
-3.19474e-14
-3.33319e-14
-3.47413e-14
-3.61766e-14
-3.76386e-14
-3.91283e-14
-4.06467e-14
-4.21948e-14
-4.37738e-14
-4.5385e-14
-4.70296e-14
-4.8709e-14
-5.04246e-14
-5.2178e-14
-5.39707e-14
-5.58044e-14
-5.76809e-14
-5.9602e-14
-6.15695e-14
-6.35854e-14
-6.56518e-14
-6.77709e-14
-6.99449e-14
-7.21763e-14
-7.4468e-14
-7.68228e-14
-7.9244e-14
-8.17353e-14
-8.43008e-14
-8.69451e-14
-8.9673e-14
-9.24901e-14
-9.54025e-14
-9.84166e-14
-1.01539e-13
-1.04778e-13
-1.08141e-13
-1.11636e-13
-1.15272e-13
-1.19059e-13
-1.23009e-13
-1.27136e-13
-1.31458e-13
-1.35996e-13
-1.4078e-13
-1.45846e-13
-1.51243e-13
-1.57029e-13
-1.63277e-13
-1.70073e-13
-1.77514e-13
-1.85715e-13
-1.94811e-13
-2.04993e-13
-2.16551e-13
-2.29908e-13
-2.44906e-13
-2.59758e-13
-2.71789e-13
-2.80701e-13
-3.13704e-13
-1.31092e-12
-2.91538e-11
-2.26282e-12
-1.07809e-10
-8.22287e-11
-8.22873e-11
-8.22713e-11
-8.22755e-11
-8.22771e-11
-8.22767e-11
-8.22766e-11
-8.22766e-11
-8.22766e-11
-8.22766e-11
-8.22766e-11
-8.22766e-11
-8.22766e-11
-8.22766e-11
-8.22766e-11
-8.22766e-11
-8.22766e-11
-8.22766e-11
-8.22766e-11
-8.22766e-11
-8.22766e-11
-8.22766e-11
-8.22766e-11
-8.22766e-11
-8.22565e-11
-8.21697e-11
)
;

boundaryField
{
    inlet
    {
        type            cyclic;
        value           nonuniform List<scalar> 
120
(
-7.71703e-28
-2.31665e-27
-3.86517e-27
-5.38929e-27
-6.92176e-27
-8.46499e-27
-1.00214e-26
-1.15326e-26
-1.30618e-26
-1.46722e-26
-1.63054e-26
-1.79639e-26
-1.97109e-26
-2.14882e-26
-2.32982e-26
-2.51434e-26
-2.70263e-26
-2.89494e-26
-3.09154e-26
-3.29266e-26
-3.49858e-26
-3.70954e-26
-3.9258e-26
-4.14763e-26
-4.39955e-26
-4.65757e-26
-4.92194e-26
-5.18081e-26
-5.44658e-26
-5.71952e-26
-5.97566e-26
-6.21529e-26
-6.46295e-26
-6.71897e-26
-6.98364e-26
-7.25706e-26
-7.56406e-26
-7.90526e-26
-8.23228e-26
-8.59401e-26
-8.91817e-26
-9.27793e-26
-9.62533e-26
-9.98512e-26
-1.03579e-25
-1.07686e-25
-1.1145e-25
-1.15366e-25
-1.19198e-25
-1.23682e-25
-1.28343e-25
-1.33192e-25
-1.3824e-25
-1.43499e-25
-1.4898e-25
-1.54941e-25
-1.61152e-25
-1.67629e-25
-1.74391e-25
-1.80964e-25
-1.8784e-25
-1.95041e-25
-2.02579e-25
-2.10468e-25
-2.18715e-25
-2.26844e-25
-2.35829e-25
-2.45183e-25
-2.54901e-25
-2.6497e-25
-2.75373e-25
-2.85597e-25
-2.96098e-25
-3.06837e-25
-3.17768e-25
-3.28836e-25
-3.3998e-25
-3.51127e-25
-3.62192e-25
-3.73075e-25
-3.83659e-25
-3.93808e-25
-4.03365e-25
-4.12152e-25
-4.19976e-25
-4.26631e-25
-4.30957e-25
-4.33733e-25
-4.36088e-25
-4.51037e-25
-1.87178e-23
-1.90279e-23
-1.94105e-23
-1.954e-23
-1.9451e-23
-1.91786e-23
-1.8755e-23
-1.82086e-23
-1.75648e-23
-1.68456e-23
-1.60698e-23
-1.52531e-23
-1.44089e-23
-1.35474e-23
-1.26772e-23
-1.18044e-23
-1.09342e-23
-1.00697e-23
-9.21352e-24
-8.36681e-24
-7.53046e-24
-6.70456e-24
-5.88879e-24
-5.0827e-24
-4.28514e-24
-3.49522e-24
-2.71168e-24
-1.93319e-24
-1.15836e-24
-3.85786e-25
)
;
    }
    outlet
    {
        type            cyclic;
        value           nonuniform List<scalar> 
120
(
7.71703e-28
2.31665e-27
3.86517e-27
5.38929e-27
6.92176e-27
8.46499e-27
1.00214e-26
1.15326e-26
1.30618e-26
1.46722e-26
1.63054e-26
1.79639e-26
1.97109e-26
2.14882e-26
2.32982e-26
2.51434e-26
2.70263e-26
2.89494e-26
3.09154e-26
3.29266e-26
3.49858e-26
3.70954e-26
3.9258e-26
4.14763e-26
4.39955e-26
4.65757e-26
4.92194e-26
5.18081e-26
5.44658e-26
5.71952e-26
5.97566e-26
6.21529e-26
6.46295e-26
6.71897e-26
6.98364e-26
7.25706e-26
7.56406e-26
7.90526e-26
8.23228e-26
8.59401e-26
8.91817e-26
9.27793e-26
9.62533e-26
9.98512e-26
1.03579e-25
1.07686e-25
1.1145e-25
1.15366e-25
1.19198e-25
1.23682e-25
1.28343e-25
1.33192e-25
1.3824e-25
1.43499e-25
1.4898e-25
1.54941e-25
1.61152e-25
1.67629e-25
1.74391e-25
1.80964e-25
1.8784e-25
1.95041e-25
2.02579e-25
2.10468e-25
2.18715e-25
2.26844e-25
2.35829e-25
2.45183e-25
2.54901e-25
2.6497e-25
2.75373e-25
2.85597e-25
2.96098e-25
3.06837e-25
3.17768e-25
3.28836e-25
3.3998e-25
3.51127e-25
3.62192e-25
3.73075e-25
3.83659e-25
3.93808e-25
4.03365e-25
4.12152e-25
4.19976e-25
4.26631e-25
4.30957e-25
4.33733e-25
4.36088e-25
4.51037e-25
1.87178e-23
1.90279e-23
1.94105e-23
1.954e-23
1.9451e-23
1.91786e-23
1.8755e-23
1.82086e-23
1.75648e-23
1.68456e-23
1.60698e-23
1.52531e-23
1.44089e-23
1.35474e-23
1.26772e-23
1.18044e-23
1.09342e-23
1.00697e-23
9.21352e-24
8.36681e-24
7.53046e-24
6.70456e-24
5.88879e-24
5.0827e-24
4.28514e-24
3.49522e-24
2.71168e-24
1.93319e-24
1.15836e-24
3.85786e-25
)
;
    }
    top
    {
        type            fixedValue;
        value           uniform 0;
    }
    bottom
    {
        type            fixedValue;
        value           uniform 0;
    }
    frontAndBackPlanes
    {
        type            empty;
        value           nonuniform List<scalar> 0();
    }
}


// ************************************************************************* //
