/*--------------------------------*- C++ -*----------------------------------*\
| =========                 |                                                 |
| \\      /  F ield         | OpenFOAM: The Open Source CFD Toolbox           |
|  \\    /   O peration     | Version:  v2006                                 |
|   \\  /    A nd           | Website:  www.openfoam.com                      |
|    \\/     M anipulation  |                                                 |
\*---------------------------------------------------------------------------*/
FoamFile
{
    version     2.0;
    format      ascii;
    class       surfaceScalarField;
    location    "1340";
    object      phib;
}
// * * * * * * * * * * * * * * * * * * * * * * * * * * * * * * * * * * * * * //

dimensions      [0 3 -1 0 0 0 0];
oriented        oriented;


internalField   nonuniform List<scalar> 
119
(
1.34516e-15
2.70695e-15
4.08573e-15
5.48188e-15
6.89578e-15
8.32783e-15
9.77846e-15
1.12481e-14
1.27372e-14
1.42463e-14
1.57757e-14
1.73262e-14
1.88981e-14
2.04921e-14
2.21088e-14
2.37486e-14
2.54124e-14
2.71007e-14
2.88142e-14
3.05536e-14
3.23196e-14
3.4113e-14
3.59346e-14
3.77851e-14
3.96653e-14
4.15762e-14
4.35186e-14
4.54935e-14
4.75018e-14
4.95446e-14
5.1623e-14
5.37382e-14
5.58914e-14
5.80839e-14
6.0317e-14
6.25925e-14
6.49117e-14
6.72764e-14
6.96884e-14
7.21497e-14
7.46622e-14
7.7228e-14
7.98494e-14
8.25287e-14
8.52682e-14
8.80704e-14
9.09379e-14
9.38735e-14
9.68799e-14
9.99601e-14
1.03117e-13
1.06355e-13
1.09676e-13
1.13086e-13
1.16588e-13
1.20188e-13
1.2389e-13
1.27702e-13
1.31631e-13
1.35682e-13
1.39866e-13
1.4419e-13
1.48664e-13
1.53298e-13
1.58102e-13
1.63087e-13
1.68266e-13
1.73651e-13
1.79258e-13
1.85105e-13
1.91216e-13
1.97619e-13
2.04355e-13
2.11474e-13
2.1904e-13
2.27132e-13
2.3585e-13
2.45306e-13
2.55632e-13
2.66975e-13
2.7951e-13
2.93474e-13
3.09232e-13
3.27319e-13
3.47436e-13
3.66964e-13
3.82024e-13
3.91642e-13
4.10196e-13
1.45522e-12
9.82427e-12
4.37289e-15
6.63736e-16
1.87105e-18
2.03797e-18
2.37326e-18
2.6169e-18
3.00808e-18
3.16186e-18
3.40449e-18
3.39029e-18
3.47564e-18
3.30912e-18
3.32773e-18
3.2258e-18
3.31578e-18
3.207e-18
3.19744e-18
2.99976e-18
2.88556e-18
2.61227e-18
2.46557e-18
2.26864e-18
2.20384e-18
2.06242e-18
1.99255e-18
1.85293e-18
1.77472e-18
1.63606e-18
)
;

boundaryField
{
    inlet
    {
        type            cyclic;
        value           nonuniform List<scalar> 
120
(
-7.71703e-28
-2.31666e-27
-3.86843e-27
-5.3893e-27
-6.92176e-27
-8.46507e-27
-1.00392e-26
-1.15326e-26
-1.30382e-26
-1.46721e-26
-1.63053e-26
-1.79312e-26
-1.97108e-26
-2.14882e-26
-2.32982e-26
-2.51434e-26
-2.70263e-26
-2.89494e-26
-3.09154e-26
-3.29266e-26
-3.49858e-26
-3.70954e-26
-3.92567e-26
-4.1183e-26
-4.39942e-26
-4.65764e-26
-4.93888e-26
-5.18088e-26
-5.44675e-26
-5.75836e-26
-6.01615e-26
-6.21546e-26
-6.46295e-26
-6.71896e-26
-6.98342e-26
-7.2078e-26
-7.5132e-26
-7.95756e-26
-8.17833e-26
-8.70679e-26
-8.8603e-26
-9.33836e-26
-9.62559e-26
-9.98483e-26
-1.02914e-25
-1.09069e-25
-1.1146e-25
-1.16098e-25
-1.17675e-25
-1.23675e-25
-1.28343e-25
-1.33192e-25
-1.3824e-25
-1.43494e-25
-1.4806e-25
-1.54937e-25
-1.61152e-25
-1.67638e-25
-1.76471e-25
-1.80973e-25
-1.8784e-25
-1.95041e-25
-2.02579e-25
-2.10479e-25
-2.21206e-25
-2.24274e-25
-2.35817e-25
-2.45183e-25
-2.54901e-25
-2.64984e-25
-2.78404e-25
-2.85611e-25
-2.96098e-25
-3.06837e-25
-3.17768e-25
-3.28836e-25
-3.3998e-25
-3.51127e-25
-3.62192e-25
-3.73075e-25
-3.83659e-25
-3.93808e-25
-4.03365e-25
-4.12152e-25
-4.20032e-25
-4.38281e-25
-4.31014e-25
-4.33742e-25
-4.36755e-25
-5.70293e-25
-1.87171e-23
-1.90278e-23
-1.94109e-23
-1.954e-23
-1.94509e-23
-1.91786e-23
-1.8755e-23
-1.82087e-23
-1.75649e-23
-1.68457e-23
-1.60699e-23
-1.52533e-23
-1.4409e-23
-1.35475e-23
-1.26772e-23
-1.18045e-23
-1.09343e-23
-1.00698e-23
-9.21357e-24
-8.36691e-24
-7.53056e-24
-6.70466e-24
-5.88893e-24
-5.08275e-24
-4.28523e-24
-3.49531e-24
-2.71177e-24
-1.93328e-24
-1.15845e-24
-3.85829e-25
)
;
    }
    outlet
    {
        type            cyclic;
        value           nonuniform List<scalar> 
120
(
7.71703e-28
2.31666e-27
3.86843e-27
5.3893e-27
6.92176e-27
8.46507e-27
1.00392e-26
1.15326e-26
1.30382e-26
1.46721e-26
1.63053e-26
1.79312e-26
1.97108e-26
2.14882e-26
2.32982e-26
2.51434e-26
2.70263e-26
2.89494e-26
3.09154e-26
3.29266e-26
3.49858e-26
3.70954e-26
3.92567e-26
4.1183e-26
4.39942e-26
4.65764e-26
4.93888e-26
5.18088e-26
5.44675e-26
5.75836e-26
6.01615e-26
6.21546e-26
6.46295e-26
6.71896e-26
6.98342e-26
7.2078e-26
7.5132e-26
7.95756e-26
8.17833e-26
8.70679e-26
8.8603e-26
9.33836e-26
9.62559e-26
9.98483e-26
1.02914e-25
1.09069e-25
1.1146e-25
1.16098e-25
1.17675e-25
1.23675e-25
1.28343e-25
1.33192e-25
1.3824e-25
1.43494e-25
1.4806e-25
1.54937e-25
1.61152e-25
1.67638e-25
1.76471e-25
1.80973e-25
1.8784e-25
1.95041e-25
2.02579e-25
2.10479e-25
2.21206e-25
2.24274e-25
2.35817e-25
2.45183e-25
2.54901e-25
2.64984e-25
2.78404e-25
2.85611e-25
2.96098e-25
3.06837e-25
3.17768e-25
3.28836e-25
3.3998e-25
3.51127e-25
3.62192e-25
3.73075e-25
3.83659e-25
3.93808e-25
4.03365e-25
4.12152e-25
4.20032e-25
4.38281e-25
4.31014e-25
4.33742e-25
4.36755e-25
5.70293e-25
1.87171e-23
1.90278e-23
1.94109e-23
1.954e-23
1.94509e-23
1.91786e-23
1.8755e-23
1.82087e-23
1.75649e-23
1.68457e-23
1.60699e-23
1.52533e-23
1.4409e-23
1.35475e-23
1.26772e-23
1.18045e-23
1.09343e-23
1.00698e-23
9.21357e-24
8.36691e-24
7.53056e-24
6.70466e-24
5.88893e-24
5.08275e-24
4.28523e-24
3.49531e-24
2.71177e-24
1.93328e-24
1.15845e-24
3.85829e-25
)
;
    }
    top
    {
        type            fixedValue;
        value           uniform 0;
    }
    bottom
    {
        type            fixedValue;
        value           uniform 0;
    }
    frontAndBackPlanes
    {
        type            empty;
        value           nonuniform List<scalar> 0();
    }
}


// ************************************************************************* //
