/*--------------------------------*- C++ -*----------------------------------*\
| =========                 |                                                 |
| \\      /  F ield         | OpenFOAM: The Open Source CFD Toolbox           |
|  \\    /   O peration     | Version:  v2006                                 |
|   \\  /    A nd           | Website:  www.openfoam.com                      |
|    \\/     M anipulation  |                                                 |
\*---------------------------------------------------------------------------*/
FoamFile
{
    version     2.0;
    format      ascii;
    class       volTensorField;
    location    "1340";
    object      Taua;
}
// * * * * * * * * * * * * * * * * * * * * * * * * * * * * * * * * * * * * * //

dimensions      [1 -1 -2 0 0 0 0];


internalField   nonuniform List<tensor> 
120
(
(0.00174825 0 0 1.08092e-14 -0.00349651 0 0 0 0.00174825)
(0.00176702 0 0 1.08272e-14 -0.00353405 0 0 0 0.00176702)
(0.00179147 0 0 1.07542e-14 -0.00358295 0 0 0 0.00179147)
(0.00181514 0 0 1.06981e-14 -0.00363028 0 0 0 0.00181514)
(0.00183892 0 0 1.0765e-14 -0.00367785 0 0 0 0.00183892)
(0.00186334 0 0 1.08487e-14 -0.00372669 0 0 0 0.00186334)
(0.00188838 0 0 1.07366e-14 -0.00377675 0 0 0 0.00188838)
(0.00191401 0 0 1.06415e-14 -0.00382801 0 0 0 0.00191401)
(0.00194026 0 0 1.09885e-14 -0.00388052 0 0 0 0.00194026)
(0.00196717 0 0 1.13526e-14 -0.00393434 0 0 0 0.00196717)
(0.00199476 0 0 1.15211e-14 -0.00398953 0 0 0 0.00199476)
(0.00202307 0 0 1.19194e-14 -0.00404614 0 0 0 0.00202307)
(0.00205212 0 0 1.2335e-14 -0.00410424 0 0 0 0.00205212)
(0.00208194 0 0 1.25553e-14 -0.00416389 0 0 0 0.00208194)
(0.00211257 0 0 1.27931e-14 -0.00422514 0 0 0 0.00211257)
(0.00214404 0 0 1.30484e-14 -0.00428807 0 0 0 0.00214404)
(0.00217637 0 0 1.33213e-14 -0.00435274 0 0 0 0.00217637)
(0.00220961 0 0 1.36118e-14 -0.00441921 0 0 0 0.00220961)
(0.00224377 0 0 1.39202e-14 -0.00448755 0 0 0 0.00224377)
(0.00227891 0 0 1.42464e-14 -0.00455782 0 0 0 0.00227891)
(0.00231504 0 0 1.45906e-14 -0.00463009 0 0 0 0.00231504)
(0.00235221 0 0 1.49528e-14 -0.00470442 0 0 0 0.00235221)
(0.00239045 0 0 1.53332e-14 -0.0047809 0 0 0 0.00239045)
(0.0024298 0 0 1.65814e-14 -0.0048596 0 0 0 0.0024298)
(0.00247031 0 0 1.78479e-14 -0.00494061 0 0 0 0.00247031)
(0.00251201 0 0 1.82836e-14 -0.00502402 0 0 0 0.00251201)
(0.00255496 0 0 1.83134e-14 -0.00510993 0 0 0 0.00255496)
(0.00259923 0 0 1.83622e-14 -0.00519846 0 0 0 0.00259923)
(0.00264487 0 0 1.88548e-14 -0.00528974 0 0 0 0.00264487)
(0.00269196 0 0 1.85179e-14 -0.00538393 0 0 0 0.00269196)
(0.00274059 0 0 1.73519e-14 -0.00548117 0 0 0 0.00274059)
(0.00279083 0 0 1.70553e-14 -0.00558167 0 0 0 0.00279083)
(0.00284281 0 0 1.76288e-14 -0.00568562 0 0 0 0.00284281)
(0.00289662 0 0 1.82242e-14 -0.00579324 0 0 0 0.00289662)
(0.0029524 0 0 1.88334e-14 -0.00590479 0 0 0 0.0029524)
(0.00301026 3.68135e-17 0 2.03147e-14 -0.00602053 0 0 0 0.00301026)
(0.00307036 0 0 2.26869e-14 -0.00614071 0 0 0 0.00307036)
(0.00313282 0 0 2.33875e-14 -0.00626564 0 0 0 0.00313282)
(0.00319781 0 0 2.41064e-14 -0.00639561 0 0 0 0.00319781)
(0.00326545 0 0 2.40063e-14 -0.00653091 0 0 0 0.00326545)
(0.00333592 0 0 2.39373e-14 -0.00667183 0 0 0 0.00333592)
(0.00340934 0 0 2.47505e-14 -0.00681867 0 0 0 0.00340934)
(0.00348586 0 0 2.47516e-14 -0.00697171 0 0 0 0.00348586)
(0.00356561 0 0 2.56404e-14 -0.00713123 0 0 0 0.00356561)
(0.00364875 0 0 2.74202e-14 -0.0072975 0 0 0 0.00364875)
(0.0037354 0 0 2.75496e-14 -0.00747079 0 0 0 0.0037354)
(0.0038257 0 0 2.68809e-14 -0.00765141 0 0 0 0.0038257)
(0.00391983 0 0 2.71155e-14 -0.00783967 0 0 0 0.00391983)
(0.00401797 0 0 2.91063e-14 -0.00803595 0 0 0 0.00401797)
(0.00412035 0 0 3.20099e-14 -0.00824069 0 0 0 0.00412035)
(0.00422723 0 0 3.32869e-14 -0.00845446 0 0 0 0.00422723)
(0.00433896 0 0 3.46389e-14 -0.00867793 0 0 0 0.00433896)
(0.00445597 0 0 3.60715e-14 -0.00891195 0 0 0 0.00445597)
(0.00457877 0 0 3.75903e-14 -0.00915754 0 0 0 0.00457877)
(0.00470796 0 0 4.00485e-14 -0.00941593 0 0 0 0.00470796)
(0.00484427 0 0 4.26021e-14 -0.00968854 0 0 0 0.00484427)
(0.00498849 0 0 4.44072e-14 -0.00997698 0 0 0 0.00498849)
(0.00514151 0 0 4.63359e-14 -0.010283 0 0 0 0.00514151)
(0.00530428 -7.36271e-17 0 4.66719e-14 -0.0106086 0 0 0 0.00530428)
(0.00547776 0 0 4.70712e-14 -0.0109555 0 0 0 0.00547776)
(0.00566292 0 0 4.927e-14 -0.0113258 0 0 0 0.00566292)
(0.0058607 0 0 5.15875e-14 -0.0117214 0 0 0 0.0058607)
(0.00607197 0 0 5.39939e-14 -0.0121439 0 0 0 0.00607197)
(0.00629758 0 0 5.64758e-14 -0.0125952 0 0 0 0.00629758)
(0.00653841 0 0 5.73182e-14 -0.0130768 0 0 0 0.00653841)
(0.00679546 0 0 5.98979e-14 -0.0135909 0 0 0 0.00679546)
(0.00707008 0 0 6.41866e-14 -0.0141402 0 0 0 0.00707008)
(0.00736426 0 0 6.67521e-14 -0.0147285 0 0 0 0.00736426)
(0.00768104 0 0 6.92553e-14 -0.0153621 0 0 0 0.00768104)
(0.00802502 0 0 7.16533e-14 -0.01605 0 0 0 0.00802502)
(0.00840291 0 0 7.21949e-14 -0.0168058 0 0 0 0.00840291)
(0.00882418 0 0 7.25379e-14 -0.0176484 0 0 0 0.00882418)
(0.00930154 0 0 7.43389e-14 -0.0186031 0 0 0 0.00930154)
(0.00985128 0 0 7.58428e-14 -0.0197026 0 0 0 0.00985128)
(0.0104933 0 0 7.69967e-14 -0.0209865 0 0 0 0.0104933)
(0.0112504 0 0 7.77436e-14 -0.0225007 0 0 0 0.0112504)
(0.0121475 0 0 7.80177e-14 -0.0242951 0 0 0 0.0121475)
(0.0132106 0 0 7.77402e-14 -0.0264213 0 0 0 0.0132106)
(0.0144653 0 0 7.68166e-14 -0.0289306 0 0 0 0.0144653)
(0.0159365 0 0 7.51347e-14 -0.031873 0 0 0 0.0159365)
(0.0176632 0 0 7.25662e-14 -0.0353263 0 0 0 0.0176632)
(0.019777 0 0 6.89708e-14 -0.0395541 0 0 0 0.019777)
(0.0225986 0 0 6.42054e-14 -0.0451971 0 0 0 0.0225986)
(0.0261737 0 0 5.81392e-14 -0.0523474 0 0 0 0.0261737)
(0.0291079 0 0 5.06778e-14 -0.0582157 0 0 0 0.0291079)
(0.0286243 0 0 3.84331e-14 -0.0572486 0 0 0 0.0286243)
(0.0228525 0 0 2.48542e-14 -0.0457049 0 0 0 0.0228525)
(0.0182655 0 0 1.79597e-14 -0.036531 0 0 0 0.0182655)
(0.00939939 0 0 7.28822e-15 -0.0187988 0 0 0 0.00939939)
(7.21019e-05 0 0 3.53149e-17 -0.000144204 0 0 0 7.21019e-05)
(1.59706e-05 0 0 3.25257e-17 -3.19411e-05 0 0 0 1.59706e-05)
(-3.7769e-07 0 0 9.31888e-21 7.55381e-07 0 0 0 -3.7769e-07)
(7.30397e-10 0 0 2.20162e-23 -1.46079e-09 0 0 0 7.30397e-10)
(1.22676e-17 0 0 3.55072e-32 -2.45352e-17 0 0 0 1.22676e-17)
(-2.33044e-23 0 0 -2.53428e-36 4.66088e-23 0 0 0 -2.33044e-23)
(-1.30566e-30 0 0 -1.81812e-42 2.61132e-30 0 0 0 -1.30566e-30)
(-2.08176e-38 0 0 -5.57415e-49 4.16351e-38 0 0 0 -2.08176e-38)
(3.56899e-45 0 0 -1.11282e-55 -7.13799e-45 0 0 0 3.56899e-45)
(5.87199e-53 0 0 -1.8104e-62 -1.1744e-52 0 0 0 5.87199e-53)
(-4.53856e-60 0 0 -2.40308e-69 9.07711e-60 0 0 0 -4.53856e-60)
(-8.19585e-68 0 0 -2.83464e-76 1.63917e-67 0 0 0 -8.19585e-68)
(3.48801e-75 0 0 -2.8648e-83 -6.97602e-75 0 0 0 3.48801e-75)
(7.02621e-83 0 0 -2.66325e-90 -1.40524e-82 0 0 0 7.02621e-83)
(-1.79326e-90 0 0 -2.23079e-97 3.58651e-90 0 0 0 -1.79326e-90)
(-4.68157e-98 0 0 -1.96105e-104 9.36314e-98 0 0 0 -4.68157e-98)
(1.04283e-105 0 0 -1.98831e-111 -2.08565e-105 0 0 0 1.04283e-105)
(5.75323e-113 0 0 -2.58651e-118 -1.15065e-112 0 0 0 5.75323e-113)
(-2.39118e-121 0 0 -3.69792e-125 4.78235e-121 0 0 0 -2.39118e-121)
(1.30629e-127 0 0 -5.36405e-132 -2.61257e-127 0 0 0 1.30629e-127)
(4.3238e-134 0 0 -7.04013e-139 -8.6476e-134 0 0 0 4.3238e-134)
(6.04984e-141 0 0 -8.3907e-146 -1.20997e-140 0 0 0 6.04984e-141)
(5.70367e-148 0 0 -8.53484e-153 -1.14073e-147 0 0 0 5.70367e-148)
(3.95083e-155 0 0 -7.69237e-160 -7.90166e-155 0 0 0 3.95083e-155)
(-4.04766e-162 0 0 -6.02689e-167 8.09531e-162 0 0 0 -4.04766e-162)
(-6.4022e-169 0 0 -4.34659e-174 1.28044e-168 0 0 0 -6.4022e-169)
(-9.42267e-175 0 0 -2.82244e-181 1.88453e-174 0 0 0 -9.42267e-175)
(-3.05552e-179 0 0 -1.71341e-188 6.11105e-179 0 0 0 -3.05552e-179)
(-3.98982e-186 0 0 -9.49489e-196 7.97963e-186 0 0 0 -3.98982e-186)
(-1.51947e-192 0 0 -4.97271e-203 3.03893e-192 0 0 0 -1.51947e-192)
(-7.19608e-197 0 0 -2.43399e-210 1.43922e-196 0 0 0 -7.19608e-197)
)
;

boundaryField
{
    inlet
    {
        type            cyclic;
    }
    outlet
    {
        type            cyclic;
    }
    top
    {
        type            extrapolatedCalculated;
        value           uniform (-1.43784e-196 0 0 -2.43241e-210 2.87569e-196 0 0 0 -1.43784e-196);
    }
    bottom
    {
        type            extrapolatedCalculated;
        value           uniform (0.00174199 0 0 1.08039e-14 -0.00348399 0 0 0 0.00174199);
    }
    frontAndBackPlanes
    {
        type            empty;
    }
}


// ************************************************************************* //
