/*--------------------------------*- C++ -*----------------------------------*\
| =========                 |                                                 |
| \\      /  F ield         | OpenFOAM: The Open Source CFD Toolbox           |
|  \\    /   O peration     | Version:  v2006                                 |
|   \\  /    A nd           | Website:  www.openfoam.com                      |
|    \\/     M anipulation  |                                                 |
\*---------------------------------------------------------------------------*/
FoamFile
{
    version     2.0;
    format      ascii;
    class       volTensorField;
    location    "1340";
    object      Taub;
}
// * * * * * * * * * * * * * * * * * * * * * * * * * * * * * * * * * * * * * //

dimensions      [1 -1 -2 0 0 0 0];


internalField   nonuniform List<tensor> 
120
(
(-1.25085e-07 0 0 5.14483e-19 2.5017e-07 0 0 0 -1.25085e-07)
(-1.26087e-07 0 0 5.15849e-19 2.52174e-07 0 0 0 -1.26087e-07)
(-1.27579e-07 0 0 5.1181e-19 2.55159e-07 0 0 0 -1.27579e-07)
(-1.29199e-07 0 0 5.08568e-19 2.58398e-07 0 0 0 -1.29199e-07)
(-1.3084e-07 0 0 5.12277e-19 2.61681e-07 0 0 0 -1.3084e-07)
(-1.32515e-07 0 0 5.19183e-19 2.6503e-07 0 0 0 -1.32515e-07)
(-1.34226e-07 0 0 5.10845e-19 2.68453e-07 0 0 0 -1.34226e-07)
(-1.35978e-07 0 0 4.99411e-19 2.71957e-07 0 0 0 -1.35978e-07)
(-1.37772e-07 0 0 5.22776e-19 2.75545e-07 0 0 0 -1.37772e-07)
(-1.3961e-07 0 0 5.4399e-19 2.7922e-07 0 0 0 -1.3961e-07)
(-1.41493e-07 0 0 5.42633e-19 2.82987e-07 0 0 0 -1.41493e-07)
(-1.43424e-07 0 0 5.66979e-19 2.86848e-07 0 0 0 -1.43424e-07)
(-1.45404e-07 0 0 5.92161e-19 2.90809e-07 0 0 0 -1.45404e-07)
(-1.47436e-07 0 0 5.97181e-19 2.94873e-07 0 0 0 -1.47436e-07)
(-1.49522e-07 0 0 6.08429e-19 2.99044e-07 0 0 0 -1.49522e-07)
(-1.51664e-07 0 0 6.20533e-19 3.03327e-07 0 0 0 -1.51664e-07)
(-1.53863e-07 0 0 6.33471e-19 3.07726e-07 0 0 0 -1.53863e-07)
(-1.56122e-07 0 0 6.47247e-19 3.12245e-07 0 0 0 -1.56122e-07)
(-1.58443e-07 0 0 6.61867e-19 3.16886e-07 0 0 0 -1.58443e-07)
(-1.60828e-07 0 0 6.77333e-19 3.21656e-07 0 0 0 -1.60828e-07)
(-1.63279e-07 0 0 6.93649e-19 3.26559e-07 0 0 0 -1.63279e-07)
(-1.65799e-07 0 0 7.1061e-19 3.31598e-07 0 0 0 -1.65799e-07)
(-1.6839e-07 0 0 6.80067e-19 3.3678e-07 0 0 0 -1.6839e-07)
(-1.71054e-07 0 0 7.88135e-19 3.42109e-07 0 0 0 -1.71054e-07)
(-1.73795e-07 0 0 8.97185e-19 3.4759e-07 0 0 0 -1.73795e-07)
(-1.76615e-07 0 0 8.97315e-19 3.5323e-07 0 0 0 -1.76615e-07)
(-1.79517e-07 0 0 8.7028e-19 3.59033e-07 0 0 0 -1.79517e-07)
(-1.82505e-07 0 0 8.44642e-19 3.6501e-07 0 0 0 -1.82505e-07)
(-1.85584e-07 0 0 9.60348e-19 3.71167e-07 0 0 0 -1.85584e-07)
(-1.88758e-07 0 0 9.46844e-19 3.77516e-07 0 0 0 -1.88758e-07)
(-1.92034e-07 0 0 7.60043e-19 3.84067e-07 0 0 0 -1.92034e-07)
(-1.95416e-07 0 0 7.42866e-19 3.90833e-07 0 0 0 -1.95416e-07)
(-1.98913e-07 0 0 8.37061e-19 3.97826e-07 0 0 0 -1.98913e-07)
(-2.02531e-07 0 0 8.65205e-19 4.05062e-07 0 0 0 -2.02531e-07)
(-2.06277e-07 0 0 8.12548e-19 4.12554e-07 0 0 0 -2.06277e-07)
(-2.10161e-07 -1.74819e-21 0 8.80521e-19 4.20322e-07 0 0 0 -2.10161e-07)
(-2.14191e-07 0 0 1.24605e-18 4.28383e-07 0 0 0 -2.14191e-07)
(-2.18378e-07 0 0 1.1053e-18 4.36755e-07 0 0 0 -2.18378e-07)
(-2.2273e-07 0 0 1.24496e-18 4.45459e-07 0 0 0 -2.2273e-07)
(-2.27257e-07 0 0 1.13309e-18 4.54514e-07 0 0 0 -2.27257e-07)
(-2.31969e-07 0 0 1.04924e-18 4.63938e-07 0 0 0 -2.31969e-07)
(-2.36874e-07 0 0 1.27129e-18 4.73748e-07 0 0 0 -2.36874e-07)
(-2.41981e-07 0 0 1.07381e-18 4.83961e-07 0 0 0 -2.41981e-07)
(-2.47298e-07 0 0 1.10589e-18 4.94596e-07 0 0 0 -2.47298e-07)
(-2.52834e-07 0 0 1.53123e-18 5.05669e-07 0 0 0 -2.52834e-07)
(-2.58599e-07 0 0 1.41897e-18 5.17198e-07 0 0 0 -2.58599e-07)
(-2.64601e-07 0 0 1.16716e-18 5.29201e-07 0 0 0 -2.64601e-07)
(-2.7085e-07 0 0 1.03177e-18 5.417e-07 0 0 0 -2.7085e-07)
(-2.77358e-07 0 0 1.25775e-18 5.54717e-07 0 0 0 -2.77358e-07)
(-2.84139e-07 0 0 1.77081e-18 5.68277e-07 0 0 0 -2.84139e-07)
(-2.91208e-07 0 0 1.57951e-18 5.82416e-07 0 0 0 -2.91208e-07)
(-2.98589e-07 0 0 1.6423e-18 5.97178e-07 0 0 0 -2.98589e-07)
(-3.0631e-07 0 0 1.70933e-18 6.1262e-07 0 0 0 -3.0631e-07)
(-3.14404e-07 0 0 1.62914e-18 6.28807e-07 0 0 0 -3.14404e-07)
(-3.2291e-07 0 0 1.89808e-18 6.4582e-07 0 0 0 -3.2291e-07)
(-3.31876e-07 0 0 2.17147e-18 6.63753e-07 0 0 0 -3.31876e-07)
(-3.41353e-07 0 0 2.10635e-18 6.82706e-07 0 0 0 -3.41353e-07)
(-3.51394e-07 0 0 2.54011e-18 7.02789e-07 0 0 0 -3.51394e-07)
(-3.6206e-07 3.48761e-21 0 2.21076e-18 7.24119e-07 0 0 0 -3.6206e-07)
(-3.7341e-07 0 0 1.88455e-18 7.4682e-07 0 0 0 -3.7341e-07)
(-3.85506e-07 0 0 2.33161e-18 7.71011e-07 0 0 0 -3.85506e-07)
(-3.98403e-07 0 0 2.44252e-18 7.96806e-07 0 0 0 -3.98403e-07)
(-4.12156e-07 0 0 2.5579e-18 8.24311e-07 0 0 0 -4.12156e-07)
(-4.26814e-07 0 0 3.08565e-18 8.53629e-07 0 0 0 -4.26814e-07)
(-4.42429e-07 0 0 2.28488e-18 8.84857e-07 0 0 0 -4.42429e-07)
(-4.59057e-07 0 0 2.41968e-18 9.18114e-07 0 0 0 -4.59057e-07)
(-4.76783e-07 0 0 3.46196e-18 9.53566e-07 0 0 0 -4.76783e-07)
(-4.9574e-07 0 0 3.15908e-18 9.91479e-07 0 0 0 -4.9574e-07)
(-5.16129e-07 0 0 3.27716e-18 1.03226e-06 0 0 0 -5.16129e-07)
(-5.38258e-07 0 0 3.88895e-18 1.07652e-06 0 0 0 -5.38258e-07)
(-5.62576e-07 0 0 3.41237e-18 1.12515e-06 0 0 0 -5.62576e-07)
(-5.8971e-07 0 0 2.92657e-18 1.17942e-06 0 0 0 -5.8971e-07)
(-6.20487e-07 0 0 3.5097e-18 1.24097e-06 0 0 0 -6.20487e-07)
(-6.55952e-07 0 0 3.58209e-18 1.3119e-06 0 0 0 -6.55952e-07)
(-6.97359e-07 0 0 3.63558e-18 1.39472e-06 0 0 0 -6.97359e-07)
(-7.4613e-07 0 0 3.66976e-18 1.49226e-06 0 0 0 -7.4613e-07)
(-8.03767e-07 0 0 3.68152e-18 1.60753e-06 0 0 0 -8.03767e-07)
(-8.71761e-07 0 0 3.66717e-18 1.74352e-06 0 0 0 -8.71761e-07)
(-9.51603e-07 0 0 3.62226e-18 1.90321e-06 0 0 0 -9.51603e-07)
(-1.04527e-06 0 0 3.54151e-18 2.09053e-06 0 0 0 -1.04527e-06)
(-1.15632e-06 0 0 3.41892e-18 2.31263e-06 0 0 0 -1.15632e-06)
(-1.28999e-06 0 0 3.24789e-18 2.57998e-06 0 0 0 -1.28999e-06)
(-1.45228e-06 0 0 3.0218e-18 2.90455e-06 0 0 0 -1.45228e-06)
(-1.62954e-06 0 0 2.74364e-18 3.25908e-06 0 0 0 -1.62954e-06)
(-1.7348e-06 0 0 4.29771e-18 3.4696e-06 0 0 0 -1.7348e-06)
(-1.62848e-06 0 0 1.80462e-18 3.25696e-06 0 0 0 -1.62848e-06)
(-1.28085e-06 0 0 -7.4502e-19 2.5617e-06 0 0 0 -1.28085e-06)
(-7.28393e-06 0 0 9.41133e-19 1.45679e-05 0 0 0 -7.28393e-06)
(-2.51778e-05 0 0 2.23317e-17 5.03556e-05 0 0 0 -2.51778e-05)
(0.00570228 0 0 2.89986e-15 -0.0114046 0 0 0 0.00570228)
(-8.3846e-05 0 0 2.76905e-15 0.000167692 0 0 0 -8.3846e-05)
(-0.0028112 0 0 4.66952e-17 0.0056224 0 0 0 -0.0028112)
(4.28152e-05 0 0 3.4142e-17 -8.56303e-05 0 0 0 4.28152e-05)
(0.000428833 0 0 2.66533e-18 -0.000857665 0 0 0 0.000428833)
(1.39772e-05 0 0 -2.4089e-17 -2.79544e-05 0 0 0 1.39772e-05)
(-3.2966e-05 0 0 -4.63885e-17 6.59319e-05 0 0 0 -3.2966e-05)
(-2.41647e-06 0 0 -6.46571e-17 4.83294e-06 0 0 0 -2.41647e-06)
(2.48012e-06 0 0 -7.93327e-17 -4.96024e-06 0 0 0 2.48012e-06)
(2.88514e-07 0 0 -9.08553e-17 -5.77028e-07 0 0 0 2.88514e-07)
(-1.82302e-07 0 0 -9.96558e-17 3.64605e-07 0 0 0 -1.82302e-07)
(-2.99689e-08 0 0 -1.06146e-16 5.99379e-08 0 0 0 -2.99689e-08)
(1.30457e-08 0 0 -1.10712e-16 -2.60913e-08 0 0 0 1.30457e-08)
(2.92424e-09 0 0 -1.13703e-16 -5.84848e-09 0 0 0 2.92424e-09)
(-8.96515e-10 0 0 -1.15435e-16 1.79303e-09 0 0 0 -8.96515e-10)
(-2.69971e-10 0 0 -1.16183e-16 5.39941e-10 0 0 0 -2.69971e-10)
(5.87914e-11 0 0 -1.16182e-16 -1.17583e-10 0 0 0 5.87914e-11)
(2.50559e-11 0 0 -1.15633e-16 -5.01118e-11 0 0 0 2.50559e-11)
(-6.0304e-13 0 0 -1.14699e-16 1.20608e-12 0 0 0 -6.0304e-13)
(2.8125e-12 0 0 -1.13514e-16 -5.62501e-12 0 0 0 2.8125e-12)
(6.85414e-12 0 0 -1.12187e-16 -1.37083e-11 0 0 0 6.85414e-12)
(7.94029e-12 0 0 -1.10803e-16 -1.58806e-11 0 0 0 7.94029e-12)
(7.27848e-12 0 0 -1.09428e-16 -1.4557e-11 0 0 0 7.27848e-12)
(5.57882e-12 0 0 -1.08114e-16 -1.11576e-11 0 0 0 5.57882e-12)
(4.14876e-12 0 0 -1.069e-16 -8.29753e-12 0 0 0 4.14876e-12)
(3.737e-12 0 0 -1.05816e-16 -7.47401e-12 0 0 0 3.737e-12)
(4.20905e-12 0 0 -1.04885e-16 -8.41809e-12 0 0 0 4.20905e-12)
(4.23039e-12 0 0 -1.04123e-16 -8.46078e-12 0 0 0 4.23039e-12)
(-3.93969e-13 0 0 -1.03542e-16 7.87939e-13 0 0 0 -3.93969e-13)
(-1.94989e-12 0 0 -1.0315e-16 3.89978e-12 0 0 0 -1.94989e-12)
(7.09617e-11 0 0 -1.02939e-16 -1.41923e-10 0 0 0 7.09617e-11)
)
;

boundaryField
{
    inlet
    {
        type            cyclic;
    }
    outlet
    {
        type            cyclic;
    }
    top
    {
        type            extrapolatedCalculated;
        value           uniform (1.41124e-10 0 0 -1.02875e-16 -2.82248e-10 0 0 0 1.41124e-10);
    }
    bottom
    {
        type            extrapolatedCalculated;
        value           uniform (-1.24765e-07 0 0 5.14225e-19 2.49531e-07 0 0 0 -1.24765e-07);
    }
    frontAndBackPlanes
    {
        type            empty;
    }
}


// ************************************************************************* //
