/*--------------------------------*- C++ -*----------------------------------*\
| =========                 |                                                 |
| \\      /  F ield         | OpenFOAM: The Open Source CFD Toolbox           |
|  \\    /   O peration     | Version:  v2006                                 |
|   \\  /    A nd           | Website:  www.openfoam.com                      |
|    \\/     M anipulation  |                                                 |
\*---------------------------------------------------------------------------*/
FoamFile
{
    version     2.0;
    format      ascii;
    class       volVectorField;
    location    "1340";
    object      Ua;
}
// * * * * * * * * * * * * * * * * * * * * * * * * * * * * * * * * * * * * * //

dimensions      [0 1 -1 0 0 0 0];


internalField   nonuniform List<vector> 
120
(
(2.57234e-21 -1.24428e-09 0)
(7.72216e-21 -3.75072e-09 0)
(1.28839e-20 -6.29292e-09 0)
(1.79643e-20 -8.86922e-09 0)
(2.30725e-20 -1.1479e-08 0)
(2.82166e-20 -1.41233e-08 0)
(3.34046e-20 -1.68029e-08 0)
(3.8442e-20 -1.95186e-08 0)
(4.35394e-20 -2.22715e-08 0)
(4.89072e-20 -2.50622e-08 0)
(5.43513e-20 -2.78919e-08 0)
(5.98797e-20 -3.07616e-08 0)
(6.57031e-20 -3.36721e-08 0)
(7.16273e-20 -3.66247e-08 0)
(7.76606e-20 -3.96205e-08 0)
(8.38112e-20 -4.26607e-08 0)
(9.00876e-20 -4.57464e-08 0)
(9.64981e-20 -4.88789e-08 0)
(1.03051e-19 -5.20595e-08 0)
(1.09755e-19 -5.52896e-08 0)
(1.16619e-19 -5.85707e-08 0)
(1.23651e-19 -6.1904e-08 0)
(1.3086e-19 -6.52913e-08 0)
(1.38254e-19 -6.87339e-08 0)
(1.46652e-19 -7.22336e-08 0)
(1.55252e-19 -7.57919e-08 0)
(1.64065e-19 -7.94107e-08 0)
(1.72694e-19 -8.30918e-08 0)
(1.81553e-19 -8.68371e-08 0)
(1.90651e-19 -9.06486e-08 0)
(1.99189e-19 -9.45284e-08 0)
(2.07176e-19 -9.84788e-08 0)
(2.15432e-19 -1.02502e-07 0)
(2.23966e-19 -1.06601e-07 0)
(2.32788e-19 -1.10778e-07 0)
(2.41902e-19 -1.15037e-07 0)
(2.52135e-19 -1.19379e-07 0)
(2.63509e-19 -1.23809e-07 0)
(2.74409e-19 -1.2833e-07 0)
(2.86467e-19 -1.32946e-07 0)
(2.97272e-19 -1.3766e-07 0)
(3.09264e-19 -1.42477e-07 0)
(3.20844e-19 -1.47401e-07 0)
(3.32837e-19 -1.52436e-07 0)
(3.45264e-19 -1.57588e-07 0)
(3.58952e-19 -1.62861e-07 0)
(3.71501e-19 -1.68261e-07 0)
(3.84553e-19 -1.73792e-07 0)
(3.97326e-19 -1.7946e-07 0)
(4.12273e-19 -1.85272e-07 0)
(4.27811e-19 -1.91233e-07 0)
(4.43975e-19 -1.9735e-07 0)
(4.60801e-19 -2.0363e-07 0)
(4.78329e-19 -2.10081e-07 0)
(4.96601e-19 -2.16712e-07 0)
(5.1647e-19 -2.23532e-07 0)
(5.37174e-19 -2.30553e-07 0)
(5.58763e-19 -2.37785e-07 0)
(5.81304e-19 -2.45243e-07 0)
(6.03212e-19 -2.5294e-07 0)
(6.26133e-19 -2.60893e-07 0)
(6.50136e-19 -2.6912e-07 0)
(6.75264e-19 -2.77638e-07 0)
(7.01558e-19 -2.86468e-07 0)
(7.29051e-19 -2.95631e-07 0)
(7.56147e-19 -3.0515e-07 0)
(7.86096e-19 -3.15047e-07 0)
(8.17277e-19 -3.2535e-07 0)
(8.4967e-19 -3.36088e-07 0)
(8.83235e-19 -3.47296e-07 0)
(9.17911e-19 -3.59016e-07 0)
(9.51992e-19 -3.71304e-07 0)
(9.86995e-19 -3.84228e-07 0)
(1.02279e-18 -3.9788e-07 0)
(1.05923e-18 -4.12375e-07 0)
(1.09612e-18 -4.2786e-07 0)
(1.13327e-18 -4.44519e-07 0)
(1.17042e-18 -4.62568e-07 0)
(1.20731e-18 -4.82263e-07 0)
(1.24358e-18 -5.03897e-07 0)
(1.27886e-18 -5.27796e-07 0)
(1.31269e-18 -5.54363e-07 0)
(1.34455e-18 -5.84302e-07 0)
(1.37384e-18 -6.1893e-07 0)
(1.39992e-18 -6.59084e-07 0)
(1.4221e-18 -7.02096e-07 0)
(1.43652e-18 -7.40867e-07 0)
(1.44578e-18 -7.67388e-07 0)
(1.45363e-18 -7.93055e-07 0)
(1.50346e-18 -9.90551e-07 0)
(6.23928e-17 -0.000374049 0)
(6.34263e-17 -9.22056e-05 0)
(6.47016e-17 -9.33201e-05 0)
(6.51333e-17 -0.000262097 0)
(6.48366e-17 -0.000233189 0)
(6.39288e-17 -0.000228868 0)
(6.25167e-17 -0.000228191 0)
(6.06954e-17 -0.000228506 0)
(5.85495e-17 -0.000228572 0)
(5.61519e-17 -0.00022855 0)
(5.3566e-17 -0.000228544 0)
(5.08438e-17 -0.000228546 0)
(4.80298e-17 -0.000228546 0)
(4.51579e-17 -0.000228546 0)
(4.22572e-17 -0.000228546 0)
(3.9348e-17 -0.000228546 0)
(3.64474e-17 -0.000228546 0)
(3.35656e-17 -0.000228546 0)
(3.07117e-17 -0.000228546 0)
(2.78894e-17 -0.000228546 0)
(2.51015e-17 -0.000228546 0)
(2.23485e-17 -0.000228546 0)
(1.96293e-17 -0.000228546 0)
(1.69423e-17 -0.000228546 0)
(1.42838e-17 -0.000228546 0)
(1.16507e-17 -0.000228546 0)
(9.03893e-18 -0.000228546 0)
(6.44396e-18 -0.000228518 0)
(3.86119e-18 -0.000228481 0)
(1.28595e-18 -0.000228045 0)
)
;

boundaryField
{
    inlet
    {
        type            cyclic;
    }
    outlet
    {
        type            cyclic;
    }
    top
    {
        type            fixedValue;
        value           uniform (0 0 0);
    }
    bottom
    {
        type            fixedValue;
        value           uniform (0 0 0);
    }
    frontAndBackPlanes
    {
        type            empty;
    }
}


// ************************************************************************* //
