/*--------------------------------*- C++ -*----------------------------------*\
| =========                 |                                                 |
| \\      /  F ield         | OpenFOAM: The Open Source CFD Toolbox           |
|  \\    /   O peration     | Version:  v2006                                 |
|   \\  /    A nd           | Website:  www.openfoam.com                      |
|    \\/     M anipulation  |                                                 |
\*---------------------------------------------------------------------------*/
FoamFile
{
    version     2.0;
    format      ascii;
    class       volVectorField;
    location    "1340";
    object      Ub;
}
// * * * * * * * * * * * * * * * * * * * * * * * * * * * * * * * * * * * * * //

dimensions      [0 1 -1 0 0 0 0];


internalField   nonuniform List<vector> 
120
(
(2.57234e-21 1.87237e-09 0)
(7.72221e-21 5.63628e-09 0)
(1.28948e-20 9.44157e-09 0)
(1.79643e-20 1.32955e-08 0)
(2.30725e-20 1.71984e-08 0)
(2.82169e-20 2.11513e-08 0)
(3.34639e-20 2.51552e-08 0)
(3.84419e-20 2.92113e-08 0)
(4.34606e-20 3.33208e-08 0)
(4.89069e-20 3.74851e-08 0)
(5.43508e-20 4.17055e-08 0)
(5.97706e-20 4.59834e-08 0)
(6.57027e-20 5.03202e-08 0)
(7.16273e-20 5.47176e-08 0)
(7.76606e-20 5.9177e-08 0)
(8.38112e-20 6.37002e-08 0)
(9.00876e-20 6.82888e-08 0)
(9.64981e-20 7.29447e-08 0)
(1.03051e-19 7.76697e-08 0)
(1.09755e-19 8.24657e-08 0)
(1.16619e-19 8.73346e-08 0)
(1.23651e-19 9.22785e-08 0)
(1.30856e-19 9.72995e-08 0)
(1.37277e-19 1.024e-07 0)
(1.46647e-19 1.07582e-07 0)
(1.55255e-19 1.12848e-07 0)
(1.64629e-19 1.182e-07 0)
(1.72696e-19 1.23641e-07 0)
(1.81558e-19 1.29173e-07 0)
(1.91945e-19 1.348e-07 0)
(2.00538e-19 1.40525e-07 0)
(2.07182e-19 1.46349e-07 0)
(2.15432e-19 1.52278e-07 0)
(2.23965e-19 1.58314e-07 0)
(2.32781e-19 1.64462e-07 0)
(2.4026e-19 1.70724e-07 0)
(2.5044e-19 1.77106e-07 0)
(2.65252e-19 1.83612e-07 0)
(2.72611e-19 1.90247e-07 0)
(2.90226e-19 1.97016e-07 0)
(2.95343e-19 2.03925e-07 0)
(3.11279e-19 2.10979e-07 0)
(3.20853e-19 2.18184e-07 0)
(3.32828e-19 2.25547e-07 0)
(3.43048e-19 2.33074e-07 0)
(3.63562e-19 2.40772e-07 0)
(3.71533e-19 2.48647e-07 0)
(3.86994e-19 2.56708e-07 0)
(3.92249e-19 2.64962e-07 0)
(4.1225e-19 2.73417e-07 0)
(4.27811e-19 2.82081e-07 0)
(4.43975e-19 2.90963e-07 0)
(4.60801e-19 3.00074e-07 0)
(4.78315e-19 3.09424e-07 0)
(4.93534e-19 3.19025e-07 0)
(5.16456e-19 3.28891e-07 0)
(5.37174e-19 3.39035e-07 0)
(5.58794e-19 3.49474e-07 0)
(5.88238e-19 3.60227e-07 0)
(6.03243e-19 3.71313e-07 0)
(6.26133e-19 3.82753e-07 0)
(6.50136e-19 3.94572e-07 0)
(6.75264e-19 4.06795e-07 0)
(7.01596e-19 4.19448e-07 0)
(7.37352e-19 4.32559e-07 0)
(7.47579e-19 4.46159e-07 0)
(7.86057e-19 4.6028e-07 0)
(8.17277e-19 4.74956e-07 0)
(8.4967e-19 4.90227e-07 0)
(8.83281e-19 5.06141e-07 0)
(9.28012e-19 5.22757e-07 0)
(9.52038e-19 5.40148e-07 0)
(9.86995e-19 5.58412e-07 0)
(1.02279e-18 5.77673e-07 0)
(1.05923e-18 5.98093e-07 0)
(1.09612e-18 6.19871e-07 0)
(1.13327e-18 6.43255e-07 0)
(1.17042e-18 6.68537e-07 0)
(1.20731e-18 6.96056e-07 0)
(1.24358e-18 7.26196e-07 0)
(1.27886e-18 7.59415e-07 0)
(1.31269e-18 7.96318e-07 0)
(1.34455e-18 8.37683e-07 0)
(1.37384e-18 8.84482e-07 0)
(1.40011e-18 9.36675e-07 0)
(1.46094e-18 9.89953e-07 0)
(1.43671e-18 1.03578e-06 0)
(1.44581e-18 1.06799e-06 0)
(1.45585e-18 1.48014e-06 0)
(1.90098e-18 2.60752e-06 0)
(6.23903e-17 -0.000357984 0)
(6.34261e-17 8.1964e-06 0)
(6.47031e-17 5.9734e-05 0)
(6.51334e-17 1.77353e-06 0)
(6.48364e-17 -4.59896e-06 0)
(6.39288e-17 -3.23318e-07 0)
(6.25167e-17 3.46556e-07 0)
(6.06955e-17 3.91972e-08 0)
(5.85496e-17 -2.55088e-08 0)
(5.61522e-17 -4.08531e-09 0)
(5.35662e-17 1.84e-09 0)
(5.08442e-17 4.10594e-10 0)
(4.80299e-17 -1.17097e-10 0)
(4.51584e-17 -2.80962e-11 0)
(4.22574e-17 1.7397e-11 0)
(3.93485e-17 1.24045e-11 0)
(3.64476e-17 8.57719e-12 0)
(3.35661e-17 8.6456e-12 0)
(3.07119e-17 8.66766e-12 0)
(2.78897e-17 8.22367e-12 0)
(2.51019e-17 7.63941e-12 0)
(2.23489e-17 7.03248e-12 0)
(1.96298e-17 6.5475e-12 0)
(1.69425e-17 6.19555e-12 0)
(1.42841e-17 5.92511e-12 0)
(1.1651e-17 5.63493e-12 0)
(9.03922e-18 5.29367e-12 0)
(6.44425e-18 5.00029e-12 0)
(3.86148e-18 5.35278e-12 0)
(1.2861e-18 5.29281e-12 0)
)
;

boundaryField
{
    inlet
    {
        type            cyclic;
    }
    outlet
    {
        type            cyclic;
    }
    top
    {
        type            fixedValue;
        value           uniform (0 0 0);
    }
    bottom
    {
        type            fixedValue;
        value           uniform (0 0 0);
    }
    frontAndBackPlanes
    {
        type            empty;
    }
}


// ************************************************************************* //
