/*--------------------------------*- C++ -*----------------------------------*\
| =========                 |                                                 |
| \\      /  F ield         | OpenFOAM: The Open Source CFD Toolbox           |
|  \\    /   O peration     | Version:  v2006                                 |
|   \\  /    A nd           | Website:  www.openfoam.com                      |
|    \\/     M anipulation  |                                                 |
\*---------------------------------------------------------------------------*/
FoamFile
{
    version     2.0;
    format      ascii;
    class       volScalarField;
    location    "1140";
    object      p;
}
// * * * * * * * * * * * * * * * * * * * * * * * * * * * * * * * * * * * * * //

dimensions      [1 -1 -2 0 0 0 0];


internalField   nonuniform List<scalar> 
120
(
3.92527
-0.734901
-5.39549
-10.0565
-14.718
-19.3799
-24.0422
-28.705
-33.3682
-38.0319
-42.6961
-47.3608
-52.0259
-56.6916
-61.3577
-66.0244
-70.6915
-75.3592
-80.0275
-84.6962
-89.3656
-94.0354
-98.7059
-103.377
-108.049
-112.721
-117.394
-122.067
-126.741
-131.416
-136.091
-140.767
-145.444
-150.122
-154.8
-159.479
-164.158
-168.839
-173.52
-178.202
-182.885
-187.568
-192.253
-196.938
-201.625
-206.312
-211
-215.689
-220.379
-225.071
-229.763
-234.457
-239.151
-243.847
-248.544
-253.243
-257.942
-262.643
-267.346
-272.05
-276.756
-281.463
-286.172
-290.883
-295.596
-300.312
-305.03
-309.75
-314.473
-319.2
-323.93
-328.665
-333.404
-338.147
-342.893
-347.641
-352.41
-357.261
-362.176
-367.088
-371.995
-376.902
-381.807
-386.713
-391.618
-396.523
-401.428
-406.333
-411.238
-416.143
-421.049
-425.955
-430.89
-435.67
-440.348
-445.007
-449.666
-454.326
-458.985
-463.645
-468.305
-472.965
-477.624
-482.284
-486.944
-491.604
-496.263
-500.923
-505.583
-510.243
-514.902
-519.562
-524.222
-528.882
-533.541
-538.201
-542.861
-547.521
-552.18
-556.84
)
;

boundaryField
{
    inlet
    {
        type            cyclic;
    }
    outlet
    {
        type            cyclic;
    }
    top
    {
        type            calculated;
        value           uniform -559.17;
    }
    bottom
    {
        type            calculated;
        value           uniform 6.25514;
    }
    frontAndBackPlanes
    {
        type            empty;
    }
}


// ************************************************************************* //
