/*--------------------------------*- C++ -*----------------------------------*\
| =========                 |                                                 |
| \\      /  F ield         | OpenFOAM: The Open Source CFD Toolbox           |
|  \\    /   O peration     | Version:  v2006                                 |
|   \\  /    A nd           | Website:  www.openfoam.com                      |
|    \\/     M anipulation  |                                                 |
\*---------------------------------------------------------------------------*/
FoamFile
{
    version     2.0;
    format      ascii;
    class       volScalarField;
    location    "1140";
    object      pff;
}
// * * * * * * * * * * * * * * * * * * * * * * * * * * * * * * * * * * * * * //

dimensions      [1 -1 -2 0 0 0 0];


internalField   nonuniform List<scalar> 
120
(
20.1742
19.8807
19.5876
19.295
19.0028
18.7111
18.4199
18.1291
17.8388
17.549
17.2597
16.9709
16.6826
16.3948
16.1076
15.8208
15.5346
15.249
14.9639
14.6794
14.3954
14.112
13.8292
13.547
13.2654
12.9845
12.7041
12.4244
12.1454
11.867
11.5893
11.3123
11.036
10.7604
10.4856
10.2115
9.93816
9.6656
9.39382
9.12285
8.85271
8.5834
8.31495
8.04737
7.7807
7.51496
7.25017
6.98636
6.72355
6.46179
6.2011
5.9415
5.68303
5.4257
5.16953
4.91455
4.66077
4.4082
4.15685
3.90676
3.65796
3.4105
3.16444
2.91985
2.6768
2.43532
2.19537
1.95669
1.71857
1.47953
1.23812
1.00018
0.776023
0.570993
0.386084
0.198788
0.0703934
0
0
0
0
0
0
0
0
0
0
0
0
0
0
0
0
0
0
0
0
0
0
0
0
0
0
0
0
0
0
0
0
0
0
0
0
0
0
0
0
0
0
0
)
;

boundaryField
{
    inlet
    {
        type            cyclic;
    }
    outlet
    {
        type            cyclic;
    }
    top
    {
        type            calculated;
        value           uniform 0;
    }
    bottom
    {
        type            calculated;
        value           uniform 20.1742;
    }
    frontAndBackPlanes
    {
        type            empty;
    }
}


// ************************************************************************* //
