/*--------------------------------*- C++ -*----------------------------------*\
| =========                 |                                                 |
| \\      /  F ield         | OpenFOAM: The Open Source CFD Toolbox           |
|  \\    /   O peration     | Version:  v2006                                 |
|   \\  /    A nd           | Website:  www.openfoam.com                      |
|    \\/     M anipulation  |                                                 |
\*---------------------------------------------------------------------------*/
FoamFile
{
    version     2.0;
    format      ascii;
    class       surfaceScalarField;
    location    "1140";
    object      phia;
}
// * * * * * * * * * * * * * * * * * * * * * * * * * * * * * * * * * * * * * //

dimensions      [0 3 -1 0 0 0 0];
oriented        oriented;


internalField   nonuniform List<scalar> 
119
(
-1.05921e-15
-2.13426e-15
-3.22558e-15
-4.33362e-15
-5.45887e-15
-6.60179e-15
-7.76291e-15
-8.94273e-15
-1.01418e-14
-1.13607e-14
-1.25999e-14
-1.38601e-14
-1.51419e-14
-1.6446e-14
-1.77729e-14
-1.91235e-14
-2.04985e-14
-2.18986e-14
-2.33247e-14
-2.47776e-14
-2.62584e-14
-2.7768e-14
-2.93076e-14
-3.08781e-14
-3.2481e-14
-3.41173e-14
-3.57887e-14
-3.74963e-14
-3.92419e-14
-4.10271e-14
-4.28534e-14
-4.47226e-14
-4.66366e-14
-4.85974e-14
-5.06069e-14
-5.26672e-14
-5.47807e-14
-5.69498e-14
-5.91771e-14
-6.14655e-14
-6.38183e-14
-6.6239e-14
-6.87318e-14
-7.13011e-14
-7.39522e-14
-7.66907e-14
-7.9523e-14
-8.24559e-14
-8.54969e-14
-8.86539e-14
-9.19352e-14
-9.53494e-14
-9.89055e-14
-1.02613e-13
-1.06482e-13
-1.10523e-13
-1.1475e-13
-1.19181e-13
-1.23837e-13
-1.28748e-13
-1.33956e-13
-1.39514e-13
-1.45493e-13
-1.51981e-13
-1.59088e-13
-1.66941e-13
-1.75689e-13
-1.85502e-13
-1.96599e-13
-2.09279e-13
-2.23989e-13
-2.40298e-13
-2.5626e-13
-2.69635e-13
-2.82589e-13
-3.60302e-13
-8.40149e-13
-1.66639e-12
-2.02215e-12
-2.17885e-12
-2.25384e-12
-2.2897e-12
-2.30701e-12
-2.31543e-12
-2.31951e-12
-2.32162e-12
-2.32183e-12
-2.32457e-12
-2.32141e-12
-2.32215e-12
-2.42808e-12
-1.7199e-12
-1.42069e-11
-5.61405e-11
-8.36752e-11
-8.26874e-11
-8.19523e-11
-8.22717e-11
-8.22742e-11
-8.22768e-11
-8.22768e-11
-8.22766e-11
-8.22766e-11
-8.22766e-11
-8.22766e-11
-8.22766e-11
-8.22766e-11
-8.22766e-11
-8.22766e-11
-8.22766e-11
-8.22766e-11
-8.22766e-11
-8.22766e-11
-8.22766e-11
-8.22766e-11
-8.22766e-11
-8.22766e-11
-8.22565e-11
-8.21697e-11
)
;

boundaryField
{
    inlet
    {
        type            cyclic;
        value           nonuniform List<scalar> 
120
(
-5.85529e-28
-1.75764e-27
-2.93218e-27
-4.08046e-27
-5.23448e-27
-6.39592e-27
-7.5665e-27
-8.68729e-27
-9.82078e-27
-1.10295e-26
-1.22547e-26
-1.34983e-26
-1.48231e-26
-1.61704e-26
-1.75426e-26
-1.89417e-26
-2.03703e-26
-2.18307e-26
-2.33255e-26
-2.48573e-26
-2.64287e-26
-2.80427e-26
-2.97022e-26
-3.14101e-26
-3.34121e-26
-3.5469e-26
-3.75841e-26
-3.96396e-26
-4.17604e-26
-4.39501e-26
-4.59702e-26
-4.78246e-26
-4.97598e-26
-5.17801e-26
-5.389e-26
-5.60899e-26
-5.86303e-26
-6.15193e-26
-6.42728e-26
-6.73802e-26
-7.01192e-26
-7.32209e-26
-7.62051e-26
-7.93181e-26
-8.25636e-26
-8.61876e-26
-8.94656e-26
-9.28849e-26
-9.62052e-26
-1.00155e-25
-1.0425e-25
-1.08489e-25
-1.12872e-25
-1.17396e-25
-1.22057e-25
-1.27095e-25
-1.32261e-25
-1.37548e-25
-1.42955e-25
-1.47979e-25
-1.53093e-25
-1.58294e-25
-1.63576e-25
-1.68933e-25
-1.74365e-25
-1.79379e-25
-1.8497e-25
-1.90635e-25
-1.96355e-25
-2.02072e-25
-2.07681e-25
-2.12489e-25
-2.16803e-25
-2.20378e-25
-2.23472e-25
-2.29707e-25
-3.04895e-25
-9.43434e-24
-1.60294e-23
-1.89751e-23
-2.24196e-23
-2.6795e-23
-3.21899e-23
-3.86453e-23
-4.61837e-23
-5.48995e-23
-4.58357e-23
-3.79254e-23
-3.10541e-23
-2.51993e-23
-2.03538e-23
-1.65412e-23
-1.40382e-23
-1.3609e-23
-1.29408e-23
-1.21814e-23
-1.14458e-23
-1.07358e-23
-1.00521e-23
-9.39421e-24
-8.76257e-24
-8.15656e-24
-7.57577e-24
-7.01894e-24
-6.48505e-24
-5.97257e-24
-5.47995e-24
-5.00565e-24
-4.54795e-24
-4.10528e-24
-3.67605e-24
-3.25873e-24
-2.85182e-24
-2.454e-24
-2.06379e-24
-1.68e-24
-1.30137e-24
-9.26712e-25
-5.54862e-25
-1.84708e-25
)
;
    }
    outlet
    {
        type            cyclic;
        value           nonuniform List<scalar> 
120
(
5.85529e-28
1.75764e-27
2.93218e-27
4.08046e-27
5.23448e-27
6.39592e-27
7.5665e-27
8.68729e-27
9.82078e-27
1.10295e-26
1.22547e-26
1.34983e-26
1.48231e-26
1.61704e-26
1.75426e-26
1.89417e-26
2.03703e-26
2.18307e-26
2.33255e-26
2.48573e-26
2.64287e-26
2.80427e-26
2.97022e-26
3.14101e-26
3.34121e-26
3.5469e-26
3.75841e-26
3.96396e-26
4.17604e-26
4.39501e-26
4.59702e-26
4.78246e-26
4.97598e-26
5.17801e-26
5.389e-26
5.60899e-26
5.86303e-26
6.15193e-26
6.42728e-26
6.73802e-26
7.01192e-26
7.32209e-26
7.62051e-26
7.93181e-26
8.25636e-26
8.61876e-26
8.94656e-26
9.28849e-26
9.62052e-26
1.00155e-25
1.0425e-25
1.08489e-25
1.12872e-25
1.17396e-25
1.22057e-25
1.27095e-25
1.32261e-25
1.37548e-25
1.42955e-25
1.47979e-25
1.53093e-25
1.58294e-25
1.63576e-25
1.68933e-25
1.74365e-25
1.79379e-25
1.8497e-25
1.90635e-25
1.96355e-25
2.02072e-25
2.07681e-25
2.12489e-25
2.16803e-25
2.20378e-25
2.23472e-25
2.29707e-25
3.04895e-25
9.43434e-24
1.60294e-23
1.89751e-23
2.24196e-23
2.6795e-23
3.21899e-23
3.86453e-23
4.61837e-23
5.48995e-23
4.58357e-23
3.79254e-23
3.10541e-23
2.51993e-23
2.03538e-23
1.65412e-23
1.40382e-23
1.3609e-23
1.29408e-23
1.21814e-23
1.14458e-23
1.07358e-23
1.00521e-23
9.39421e-24
8.76257e-24
8.15656e-24
7.57577e-24
7.01894e-24
6.48505e-24
5.97257e-24
5.47995e-24
5.00565e-24
4.54795e-24
4.10528e-24
3.67605e-24
3.25873e-24
2.85182e-24
2.454e-24
2.06379e-24
1.68e-24
1.30137e-24
9.26712e-25
5.54862e-25
1.84708e-25
)
;
    }
    top
    {
        type            fixedValue;
        value           uniform 0;
    }
    bottom
    {
        type            fixedValue;
        value           uniform 0;
    }
    frontAndBackPlanes
    {
        type            empty;
        value           nonuniform List<scalar> 0();
    }
}


// ************************************************************************* //
