/*--------------------------------*- C++ -*----------------------------------*\
| =========                 |                                                 |
| \\      /  F ield         | OpenFOAM: The Open Source CFD Toolbox           |
|  \\    /   O peration     | Version:  v2006                                 |
|   \\  /    A nd           | Website:  www.openfoam.com                      |
|    \\/     M anipulation  |                                                 |
\*---------------------------------------------------------------------------*/
FoamFile
{
    version     2.0;
    format      ascii;
    class       surfaceScalarField;
    location    "1140";
    object      phib;
}
// * * * * * * * * * * * * * * * * * * * * * * * * * * * * * * * * * * * * * //

dimensions      [0 3 -1 0 0 0 0];
oriented        oriented;


internalField   nonuniform List<scalar> 
119
(
1.58203e-15
3.1869e-15
4.81523e-15
6.46767e-15
8.14487e-15
9.84754e-15
1.15764e-14
1.33321e-14
1.51155e-14
1.69273e-14
1.87684e-14
2.06395e-14
2.25416e-14
2.44756e-14
2.64423e-14
2.84428e-14
3.04782e-14
3.25494e-14
3.46578e-14
3.68045e-14
3.89909e-14
4.12183e-14
4.34883e-14
4.58025e-14
4.81625e-14
5.05702e-14
5.30275e-14
5.55364e-14
5.8099e-14
6.07175e-14
6.33944e-14
6.6132e-14
6.89328e-14
7.17996e-14
7.47351e-14
7.77423e-14
8.08241e-14
8.39841e-14
8.72258e-14
9.05532e-14
9.39707e-14
9.74833e-14
1.01097e-13
1.04817e-13
1.08651e-13
1.12607e-13
1.16694e-13
1.20921e-13
1.25299e-13
1.29837e-13
1.34548e-13
1.39443e-13
1.44534e-13
1.49833e-13
1.55354e-13
1.61111e-13
1.67123e-13
1.73412e-13
1.80007e-13
1.8695e-13
1.94296e-13
2.02119e-13
2.10515e-13
2.19606e-13
2.2954e-13
2.40492e-13
2.52655e-13
2.66256e-13
2.81571e-13
2.9898e-13
3.19054e-13
3.41109e-13
3.62311e-13
3.79397e-13
3.94934e-13
4.98637e-13
1.07014e-12
1.87767e-12
2.13379e-12
2.23421e-12
2.28102e-12
2.30293e-12
2.31345e-12
2.31856e-12
2.32103e-12
2.32231e-12
2.32237e-12
2.32426e-12
2.32286e-12
2.31963e-12
2.3688e-12
1.88215e-12
7.59887e-12
4.26535e-12
3.21191e-14
4.42288e-15
1.44195e-17
1.48046e-17
1.42513e-17
1.40778e-17
1.30877e-17
1.25201e-17
1.12556e-17
1.06561e-17
9.8201e-18
9.65566e-18
9.03546e-18
8.77361e-18
8.05534e-18
7.617e-18
6.78498e-18
6.34149e-18
5.78542e-18
5.62073e-18
5.24326e-18
5.07965e-18
4.70664e-18
4.51488e-18
4.1256e-18
)
;

boundaryField
{
    inlet
    {
        type            cyclic;
        value           nonuniform List<scalar> 
120
(
-5.85529e-28
-1.75765e-27
-2.93604e-27
-4.08048e-27
-5.23448e-27
-6.39601e-27
-7.58761e-27
-8.68726e-27
-9.79266e-27
-1.10294e-26
-1.22545e-26
-1.34592e-26
-1.48229e-26
-1.61704e-26
-1.75426e-26
-1.89417e-26
-2.03703e-26
-2.18307e-26
-2.33255e-26
-2.48573e-26
-2.64287e-26
-2.80427e-26
-2.97006e-26
-3.10541e-26
-3.34106e-26
-3.54699e-26
-3.77907e-26
-3.96405e-26
-4.17625e-26
-4.44267e-26
-4.6468e-26
-4.78268e-26
-4.97599e-26
-5.17801e-26
-5.38872e-26
-5.54773e-26
-5.79962e-26
-6.21729e-26
-6.35969e-26
-6.87972e-26
-6.93901e-26
-7.39844e-26
-7.62085e-26
-7.93143e-26
-8.17159e-26
-8.7958e-26
-8.94778e-26
-9.38293e-26
-9.42334e-26
-1.00146e-25
-1.0425e-25
-1.08489e-25
-1.12872e-25
-1.1739e-25
-1.2083e-25
-1.27089e-25
-1.32261e-25
-1.37561e-25
-1.45801e-25
-1.47992e-25
-1.53093e-25
-1.58294e-25
-1.63576e-25
-1.6895e-25
-1.77974e-25
-1.75598e-25
-1.84952e-25
-1.90635e-25
-1.96355e-25
-2.02096e-25
-2.127e-25
-2.12513e-25
-2.16803e-25
-2.2038e-25
-2.23488e-25
-2.30201e-25
-3.52684e-25
-9.58922e-24
-1.60293e-23
-1.89751e-23
-2.24197e-23
-2.67951e-23
-3.21899e-23
-3.86453e-23
-4.61837e-23
-5.48122e-23
-4.58357e-23
-3.79255e-23
-3.10542e-23
-2.51993e-23
-2.03538e-23
-1.65412e-23
-1.40382e-23
-1.36092e-23
-1.29397e-23
-1.21798e-23
-1.14452e-23
-1.07359e-23
-1.00521e-23
-9.39432e-24
-8.76261e-24
-8.15666e-24
-7.57581e-24
-7.01904e-24
-6.48512e-24
-5.97263e-24
-5.48002e-24
-5.00568e-24
-4.548e-24
-4.10533e-24
-3.6761e-24
-3.25878e-24
-2.85189e-24
-2.45402e-24
-2.06384e-24
-1.68005e-24
-1.30142e-24
-9.26755e-25
-5.54904e-25
-1.84729e-25
)
;
    }
    outlet
    {
        type            cyclic;
        value           nonuniform List<scalar> 
120
(
5.85529e-28
1.75765e-27
2.93604e-27
4.08048e-27
5.23448e-27
6.39601e-27
7.58761e-27
8.68726e-27
9.79266e-27
1.10294e-26
1.22545e-26
1.34592e-26
1.48229e-26
1.61704e-26
1.75426e-26
1.89417e-26
2.03703e-26
2.18307e-26
2.33255e-26
2.48573e-26
2.64287e-26
2.80427e-26
2.97006e-26
3.10541e-26
3.34106e-26
3.54699e-26
3.77907e-26
3.96405e-26
4.17625e-26
4.44267e-26
4.6468e-26
4.78268e-26
4.97599e-26
5.17801e-26
5.38872e-26
5.54773e-26
5.79962e-26
6.21729e-26
6.35969e-26
6.87972e-26
6.93901e-26
7.39844e-26
7.62085e-26
7.93143e-26
8.17159e-26
8.7958e-26
8.94778e-26
9.38293e-26
9.42334e-26
1.00146e-25
1.0425e-25
1.08489e-25
1.12872e-25
1.1739e-25
1.2083e-25
1.27089e-25
1.32261e-25
1.37561e-25
1.45801e-25
1.47992e-25
1.53093e-25
1.58294e-25
1.63576e-25
1.6895e-25
1.77974e-25
1.75598e-25
1.84952e-25
1.90635e-25
1.96355e-25
2.02096e-25
2.127e-25
2.12513e-25
2.16803e-25
2.2038e-25
2.23488e-25
2.30201e-25
3.52684e-25
9.58922e-24
1.60293e-23
1.89751e-23
2.24197e-23
2.67951e-23
3.21899e-23
3.86453e-23
4.61837e-23
5.48122e-23
4.58357e-23
3.79255e-23
3.10542e-23
2.51993e-23
2.03538e-23
1.65412e-23
1.40382e-23
1.36092e-23
1.29397e-23
1.21798e-23
1.14452e-23
1.07359e-23
1.00521e-23
9.39432e-24
8.76261e-24
8.15666e-24
7.57581e-24
7.01904e-24
6.48512e-24
5.97263e-24
5.48002e-24
5.00568e-24
4.548e-24
4.10533e-24
3.6761e-24
3.25878e-24
2.85189e-24
2.45402e-24
2.06384e-24
1.68005e-24
1.30142e-24
9.26755e-25
5.54904e-25
1.84729e-25
)
;
    }
    top
    {
        type            fixedValue;
        value           uniform 0;
    }
    bottom
    {
        type            fixedValue;
        value           uniform 0;
    }
    frontAndBackPlanes
    {
        type            empty;
        value           nonuniform List<scalar> 0();
    }
}


// ************************************************************************* //
