/*--------------------------------*- C++ -*----------------------------------*\
| =========                 |                                                 |
| \\      /  F ield         | OpenFOAM: The Open Source CFD Toolbox           |
|  \\    /   O peration     | Version:  v2006                                 |
|   \\  /    A nd           | Website:  www.openfoam.com                      |
|    \\/     M anipulation  |                                                 |
\*---------------------------------------------------------------------------*/
FoamFile
{
    version     2.0;
    format      ascii;
    class       volTensorField;
    location    "1140";
    object      Taua;
}
// * * * * * * * * * * * * * * * * * * * * * * * * * * * * * * * * * * * * * //

dimensions      [1 -1 -2 0 0 0 0];


internalField   nonuniform List<tensor> 
120
(
(0.00206201 0 0 8.20108e-15 -0.00412403 0 0 0 0.00206201)
(0.00208796 0 0 8.21329e-15 -0.00417592 0 0 0 0.00208796)
(0.00212179 0 0 8.12989e-15 -0.00424358 0 0 0 0.00212179)
(0.00215471 0 0 8.05803e-15 -0.00430943 0 0 0 0.00215471)
(0.002188 0 0 8.10411e-15 -0.004376 0 0 0 0.002188)
(0.00222235 0 0 8.16209e-15 -0.0044447 0 0 0 0.00222235)
(0.00225772 0 0 8.01981e-15 -0.00451545 0 0 0 0.00225772)
(0.00229411 0 0 7.89e-15 -0.00458821 0 0 0 0.00229411)
(0.00233153 0 0 8.19775e-15 -0.00466305 0 0 0 0.00233153)
(0.00237003 0 0 8.51868e-15 -0.00474005 0 0 0 0.00237003)
(0.00240965 0 0 8.64083e-15 -0.00481929 0 0 0 0.00240965)
(0.00245042 0 0 8.98936e-15 -0.00490085 0 0 0 0.00245042)
(0.0024924 0 0 9.35241e-15 -0.00498481 0 0 0 0.0024924)
(0.00253564 0 0 9.5182e-15 -0.00507129 0 0 0 0.00253564)
(0.00258019 0 0 9.69957e-15 -0.00516039 0 0 0 0.00258019)
(0.00262612 0 0 9.89712e-15 -0.00525225 0 0 0 0.00262612)
(0.0026735 0 0 1.01114e-14 -0.00534701 0 0 0 0.0026735)
(0.00272242 0 0 1.03432e-14 -0.00544484 0 0 0 0.00272242)
(0.00277296 0 0 1.05929e-14 -0.00554591 0 0 0 0.00277296)
(0.00282522 0 0 1.08613e-14 -0.00565044 0 0 0 0.00282522)
(0.00287932 0 0 1.11492e-14 -0.00575863 0 0 0 0.00287932)
(0.00293537 0 0 1.14571e-14 -0.00587074 0 0 0 0.00293537)
(0.00299351 0 0 1.17858e-14 -0.00598703 0 0 0 0.00299351)
(0.00305388 0 0 1.29848e-14 -0.00610776 0 0 0 0.00305388)
(0.00311661 0 0 1.42061e-14 -0.00623323 0 0 0 0.00311661)
(0.00318186 0 0 1.46018e-14 -0.00636373 0 0 0 0.00318186)
(0.00324978 0 0 1.45971e-14 -0.00649956 0 0 0 0.00324978)
(0.00332051 0 0 1.4617e-14 -0.00664103 0 0 0 0.00332051)
(0.00339422 0 0 1.50868e-14 -0.00678843 0 0 0 0.00339422)
(0.00347104 0 0 1.47344e-14 -0.00694208 0 0 0 0.00347104)
(0.00355114 0 0 1.35609e-14 -0.00710227 0 0 0 0.00355114)
(0.00363465 0 0 1.32639e-14 -0.0072693 0 0 0 0.00363465)
(0.00372174 0 0 1.38442e-14 -0.00744348 0 0 0 0.00372174)
(0.00381257 0 0 1.44556e-14 -0.00762514 0 0 0 0.00381257)
(0.00390733 0 0 1.50843e-14 -0.00781466 0 0 0 0.00390733)
(0.00400624 3.68135e-17 0 1.65909e-14 -0.00801247 0 0 0 0.00400624)
(0.00410956 0 0 1.90029e-14 -0.00821911 0 0 0 0.00410956)
(0.00421762 0 0 1.97489e-14 -0.00843524 0 0 0 0.00421762)
(0.00433083 0 0 2.05132e-14 -0.00866166 0 0 0 0.00433083)
(0.0044497 0 0 2.04622e-14 -0.0088994 0 0 0 0.0044497)
(0.00457485 0 0 2.04423e-14 -0.00914969 0 0 0 0.00457485)
(0.00470701 0 0 2.13007e-14 -0.00941402 0 0 0 0.00470701)
(0.00484707 0 0 2.13401e-14 -0.00969413 0 0 0 0.00484707)
(0.004996 0 0 2.2255e-14 -0.00999199 0 0 0 0.004996)
(0.00515488 0 0 2.40433e-14 -0.0103098 0 0 0 0.00515488)
(0.00532488 0 0 2.41568e-14 -0.0106498 0 0 0 0.00532488)
(0.00550715 0 0 2.34409e-14 -0.0110143 0 0 0 0.00550715)
(0.00570284 0 0 2.35887e-14 -0.0114057 0 0 0 0.00570284)
(0.005913 0 0 2.54453e-14 -0.011826 0 0 0 0.005913)
(0.00613853 0 0 2.81564e-14 -0.0122771 0 0 0 0.00613853)
(0.00638021 0 0 2.91701e-14 -0.0127604 0 0 0 0.00638021)
(0.00663866 0 0 3.01775e-14 -0.0132773 0 0 0 0.00663866)
(0.00691451 0 0 3.11725e-14 -0.013829 0 0 0 0.00691451)
(0.00720858 0 0 3.21483e-14 -0.0144172 0 0 0 0.00720858)
(0.00752225 0 0 3.39476e-14 -0.0150445 0 0 0 0.00752225)
(0.00785796 0 0 3.57122e-14 -0.0157159 0 0 0 0.00785796)
(0.00821993 0 0 3.65843e-14 -0.0164399 0 0 0 0.00821993)
(0.00861498 0 0 3.74291e-14 -0.01723 0 0 0 0.00861498)
(0.00905353 -7.36271e-17 0 3.65104e-14 -0.0181071 0 0 0 0.00905353)
(0.00955054 0 0 3.54838e-14 -0.0191011 0 0 0 0.00955054)
(0.0101264 0 0 3.6102e-14 -0.0202527 0 0 0 0.0101264)
(0.0108071 0 0 3.66893e-14 -0.0216142 0 0 0 0.0108071)
(0.0116245 0 0 3.72359e-14 -0.0232489 0 0 0 0.0116245)
(0.0126146 0 0 3.77622e-14 -0.0252292 0 0 0 0.0126146)
(0.013816 0 0 3.65628e-14 -0.0276319 0 0 0 0.013816)
(0.0152664 0 0 3.71172e-14 -0.0305329 0 0 0 0.0152664)
(0.016999 0 0 3.93961e-14 -0.033998 0 0 0 0.016999)
(0.0190522 0 0 3.98472e-14 -0.0381044 0 0 0 0.0190522)
(0.0215549 0 0 4.00269e-14 -0.0431098 0 0 0 0.0215549)
(0.0248242 0 0 3.96423e-14 -0.0496483 0 0 0 0.0248242)
(0.0287518 0 0 3.6461e-14 -0.0575037 0 0 0 0.0287518)
(0.0316605 0 0 3.19256e-14 -0.063321 0 0 0 0.0316605)
(0.0306647 0 0 2.76119e-14 -0.0613293 0 0 0 0.0306647)
(0.0260136 0 0 2.3344e-14 -0.0520273 0 0 0 0.0260136)
(0.02345 0 0 2.602e-14 -0.0469001 0 0 0 0.02345)
(0.0131639 0 0 3.21579e-14 -0.0263278 0 0 0 0.0131639)
(0.00384381 0 0 3.28317e-14 -0.00768761 0 0 0 0.00384381)
(3.17419e-07 0 0 2.97876e-17 -6.34838e-07 0 0 0 3.17419e-07)
(-1.30616e-06 0 0 1.73096e-17 2.61232e-06 0 0 0 -1.30616e-06)
(5.2118e-07 0 0 1.13728e-17 -1.04236e-06 0 0 0 5.2118e-07)
(2.98939e-07 0 0 1.37958e-17 -5.97879e-07 0 0 0 2.98939e-07)
(1.00034e-07 0 0 1.71643e-17 -2.00069e-07 0 0 0 1.00034e-07)
(4.85888e-08 0 0 2.07768e-17 -9.71777e-08 0 0 0 4.85888e-08)
(2.46135e-08 0 0 2.45113e-17 -4.9227e-08 0 0 0 2.46135e-08)
(1.35712e-08 0 0 2.84573e-17 -2.71425e-08 0 0 0 1.35712e-08)
(1.09404e-09 0 0 -6.09171e-19 -2.18809e-09 0 0 0 1.09404e-09)
(-1.40583e-08 0 0 -2.9707e-17 2.81167e-08 0 0 0 -1.40583e-08)
(5.52455e-08 0 0 -2.58715e-17 -1.10491e-07 0 0 0 5.52455e-08)
(3.67969e-07 0 0 -2.22642e-17 -7.35939e-07 0 0 0 3.67969e-07)
(-1.86474e-06 0 0 -1.87425e-17 3.72949e-06 0 0 0 -1.86474e-06)
(-3.19923e-06 0 0 -1.51214e-17 6.39846e-06 0 0 0 -3.19923e-06)
(3.54857e-05 0 0 -1.08011e-17 -7.09714e-05 0 0 0 3.54857e-05)
(4.50878e-05 0 0 -5.71004e-18 -9.01756e-05 0 0 0 4.50878e-05)
(-2.25428e-06 0 0 -5.39889e-19 4.50857e-06 0 0 0 -2.25428e-06)
(-7.00672e-10 0 0 -3.30001e-21 1.40134e-09 0 0 0 -7.00672e-10)
(2.80528e-09 0 0 -5.57881e-22 -5.61056e-09 0 0 0 2.80528e-09)
(5.40964e-17 0 0 -7.37097e-29 -1.08193e-16 0 0 0 5.40964e-17)
(-1.78171e-24 0 0 -5.31165e-36 3.56343e-24 0 0 0 -1.78171e-24)
(-1.79283e-32 0 0 -2.94799e-43 3.58566e-32 0 0 0 -1.79283e-32)
(3.9105e-40 0 0 -1.63509e-50 -7.82101e-40 0 0 0 3.9105e-40)
(3.12239e-47 0 0 -3.35058e-57 -6.24479e-47 0 0 0 3.12239e-47)
(-3.85393e-54 0 0 -2.39628e-63 7.70787e-54 0 0 0 -3.85393e-54)
(-1.4436e-60 0 0 -1.66465e-69 2.88719e-60 0 0 0 -1.4436e-60)
(8.68451e-68 0 0 -8.78673e-76 -1.7369e-67 0 0 0 8.68451e-68)
(2.98751e-74 0 0 -3.7571e-82 -5.97501e-74 0 0 0 2.98751e-74)
(-5.5569e-82 0 0 -1.28743e-88 1.11138e-81 0 0 0 -5.5569e-82)
(-2.60289e-88 0 0 -3.84136e-95 5.20578e-88 0 0 0 -2.60289e-88)
(3.02041e-96 0 0 -9.58883e-102 -6.04081e-96 0 0 0 3.02041e-96)
(1.95207e-102 0 0 -2.10419e-108 -3.90415e-102 0 0 0 1.95207e-102)
(1.62879e-109 0 0 -3.86612e-115 -3.25757e-109 0 0 0 1.62879e-109)
(2.37705e-116 0 0 -6.1893e-122 -4.75409e-116 0 0 0 2.37705e-116)
(3.18687e-123 0 0 -8.17129e-129 -6.37375e-123 0 0 0 3.18687e-123)
(2.812e-130 0 0 -9.42132e-136 -5.624e-130 0 0 0 2.812e-130)
(-3.0996e-139 0 0 -9.30137e-143 6.19921e-139 0 0 0 -3.0996e-139)
(-1.58735e-144 0 0 -8.43206e-150 3.17469e-144 0 0 0 -1.58735e-144)
(-4.55869e-150 0 0 -6.74069e-157 9.11739e-150 0 0 0 -4.55869e-150)
(-1.83251e-154 0 0 -4.95576e-164 3.66503e-154 0 0 0 -1.83251e-154)
(-2.80049e-161 0 0 -3.20293e-171 5.60098e-161 0 0 0 -2.80049e-161)
(-1.20534e-167 0 0 -1.89154e-178 2.41069e-167 0 0 0 -1.20534e-167)
(-5.99236e-172 0 0 -9.70758e-186 1.19847e-171 0 0 0 -5.99236e-172)
)
;

boundaryField
{
    inlet
    {
        type            cyclic;
    }
    outlet
    {
        type            cyclic;
    }
    top
    {
        type            extrapolatedCalculated;
        value           uniform (-1.19733e-171 0 0 -9.69789e-186 2.39466e-171 0 0 0 -1.19733e-171);
    }
    bottom
    {
        type            extrapolatedCalculated;
        value           uniform (0.00205336 0 0 8.19741e-15 -0.00410672 0 0 0 0.00205336);
    }
    frontAndBackPlanes
    {
        type            empty;
    }
}


// ************************************************************************* //
