/*--------------------------------*- C++ -*----------------------------------*\
| =========                 |                                                 |
| \\      /  F ield         | OpenFOAM: The Open Source CFD Toolbox           |
|  \\    /   O peration     | Version:  v2006                                 |
|   \\  /    A nd           | Website:  www.openfoam.com                      |
|    \\/     M anipulation  |                                                 |
\*---------------------------------------------------------------------------*/
FoamFile
{
    version     2.0;
    format      ascii;
    class       volTensorField;
    location    "1140";
    object      Taub;
}
// * * * * * * * * * * * * * * * * * * * * * * * * * * * * * * * * * * * * * //

dimensions      [1 -1 -2 0 0 0 0];


internalField   nonuniform List<tensor> 
120
(
(-1.47123e-07 0 0 3.90091e-19 2.94245e-07 0 0 0 -1.47123e-07)
(-1.48517e-07 0 0 3.91288e-19 2.97034e-07 0 0 0 -1.48517e-07)
(-1.50577e-07 0 0 3.86655e-19 3.01155e-07 0 0 0 -1.50577e-07)
(-1.52819e-07 0 0 3.82572e-19 3.05637e-07 0 0 0 -1.52819e-07)
(-1.55107e-07 0 0 3.85393e-19 3.10215e-07 0 0 0 -1.55107e-07)
(-1.57454e-07 0 0 3.91626e-19 3.14908e-07 0 0 0 -1.57454e-07)
(-1.59863e-07 0 0 3.81303e-19 3.19727e-07 0 0 0 -1.59863e-07)
(-1.6234e-07 0 0 3.66934e-19 3.24681e-07 0 0 0 -1.6234e-07)
(-1.64887e-07 0 0 3.89717e-19 3.29774e-07 0 0 0 -1.64887e-07)
(-1.67505e-07 0 0 4.09612e-19 3.3501e-07 0 0 0 -1.67505e-07)
(-1.70198e-07 0 0 4.04261e-19 3.40395e-07 0 0 0 -1.70198e-07)
(-1.72967e-07 0 0 4.27278e-19 3.45933e-07 0 0 0 -1.72967e-07)
(-1.75816e-07 0 0 4.51002e-19 3.51631e-07 0 0 0 -1.75816e-07)
(-1.78748e-07 0 0 4.52378e-19 3.57495e-07 0 0 0 -1.78748e-07)
(-1.81766e-07 0 0 4.60936e-19 3.63533e-07 0 0 0 -1.81766e-07)
(-1.84876e-07 0 0 4.70289e-19 3.69753e-07 0 0 0 -1.84876e-07)
(-1.88082e-07 0 0 4.80437e-19 3.76165e-07 0 0 0 -1.88082e-07)
(-1.9139e-07 0 0 4.91409e-19 3.82779e-07 0 0 0 -1.9139e-07)
(-1.94804e-07 0 0 5.03235e-19 3.89608e-07 0 0 0 -1.94804e-07)
(-1.98332e-07 0 0 5.15947e-19 3.96665e-07 0 0 0 -1.98332e-07)
(-2.01982e-07 0 0 5.29575e-19 4.03964e-07 0 0 0 -2.01982e-07)
(-2.05761e-07 0 0 5.43896e-19 4.11522e-07 0 0 0 -2.05761e-07)
(-2.09677e-07 0 0 5.00555e-19 4.19355e-07 0 0 0 -2.09677e-07)
(-2.13741e-07 0 0 6.16613e-19 4.27482e-07 0 0 0 -2.13741e-07)
(-2.17961e-07 0 0 7.33861e-19 4.35921e-07 0 0 0 -2.17961e-07)
(-2.22346e-07 0 0 7.27883e-19 4.44692e-07 0 0 0 -2.22346e-07)
(-2.26907e-07 0 0 6.92993e-19 4.53813e-07 0 0 0 -2.26907e-07)
(-2.31653e-07 0 0 6.59887e-19 4.63305e-07 0 0 0 -2.31653e-07)
(-2.36593e-07 0 0 7.95138e-19 4.73187e-07 0 0 0 -2.36593e-07)
(-2.41738e-07 0 0 7.81659e-19 4.83477e-07 0 0 0 -2.41738e-07)
(-2.47098e-07 0 0 5.6475e-19 4.94195e-07 0 0 0 -2.47098e-07)
(-2.5268e-07 0 0 5.46717e-19 5.0536e-07 0 0 0 -2.5268e-07)
(-2.58496e-07 0 0 6.56497e-19 5.16991e-07 0 0 0 -2.58496e-07)
(-2.64554e-07 0 0 6.85341e-19 5.29109e-07 0 0 0 -2.64554e-07)
(-2.70868e-07 0 0 6.13851e-19 5.41736e-07 0 0 0 -2.70868e-07)
(-2.77451e-07 -3.49227e-21 0 6.82142e-19 5.54902e-07 0 0 0 -2.77451e-07)
(-2.8432e-07 0 0 1.11141e-18 5.68641e-07 0 0 0 -2.8432e-07)
(-2.91498e-07 0 0 9.29558e-19 5.82995e-07 0 0 0 -2.91498e-07)
(-2.9901e-07 0 0 1.09935e-18 5.9802e-07 0 0 0 -2.9901e-07)
(-3.0689e-07 0 0 9.61291e-19 6.13781e-07 0 0 0 -3.0689e-07)
(-3.1518e-07 0 0 8.60626e-19 6.3036e-07 0 0 0 -3.1518e-07)
(-3.23927e-07 0 0 1.13113e-18 6.47853e-07 0 0 0 -3.23927e-07)
(-3.33187e-07 0 0 8.84067e-19 6.66374e-07 0 0 0 -3.33187e-07)
(-3.43025e-07 0 0 9.13406e-19 6.8605e-07 0 0 0 -3.43025e-07)
(-3.53512e-07 0 0 1.43335e-18 7.07023e-07 0 0 0 -3.53512e-07)
(-3.6472e-07 0 0 1.28694e-18 7.2944e-07 0 0 0 -3.6472e-07)
(-3.76725e-07 0 0 9.73336e-19 7.5345e-07 0 0 0 -3.76725e-07)
(-3.89597e-07 0 0 7.88258e-19 7.79194e-07 0 0 0 -3.89597e-07)
(-4.03398e-07 0 0 1.04686e-18 8.06796e-07 0 0 0 -4.03398e-07)
(-4.1818e-07 0 0 1.65972e-18 8.36359e-07 0 0 0 -4.1818e-07)
(-4.33984e-07 0 0 1.38224e-18 8.67968e-07 0 0 0 -4.33984e-07)
(-4.50846e-07 0 0 1.4282e-18 9.01693e-07 0 0 0 -4.50846e-07)
(-4.68803e-07 0 0 1.4741e-18 9.37606e-07 0 0 0 -4.68803e-07)
(-4.87905e-07 0 0 1.31773e-18 9.7581e-07 0 0 0 -4.87905e-07)
(-5.08245e-07 0 0 1.60571e-18 1.01649e-06 0 0 0 -5.08245e-07)
(-5.29989e-07 0 0 1.89194e-18 1.05998e-06 0 0 0 -5.29989e-07)
(-5.53424e-07 0 0 1.7328e-18 1.10685e-06 0 0 0 -5.53424e-07)
(-5.79008e-07 0 0 2.24018e-18 1.15802e-06 0 0 0 -5.79008e-07)
(-6.07445e-07 6.95897e-21 0 1.7254e-18 1.21489e-06 0 0 0 -6.07445e-07)
(-6.39739e-07 0 0 1.20579e-18 1.27948e-06 0 0 0 -6.39739e-07)
(-6.77235e-07 0 0 1.70309e-18 1.35447e-06 0 0 0 -6.77235e-07)
(-7.21633e-07 0 0 1.7325e-18 1.44327e-06 0 0 0 -7.21633e-07)
(-7.74953e-07 0 0 1.76055e-18 1.54991e-06 0 0 0 -7.74953e-07)
(-8.39436e-07 0 0 2.37826e-18 1.67887e-06 0 0 0 -8.39436e-07)
(-9.17363e-07 0 0 1.09779e-18 1.83473e-06 0 0 0 -9.17363e-07)
(-1.01093e-06 0 0 1.15167e-18 2.02186e-06 0 0 0 -1.01093e-06)
(-1.12258e-06 0 0 2.48093e-18 2.24517e-06 0 0 0 -1.12258e-06)
(-1.25588e-06 0 0 1.88047e-18 2.51176e-06 0 0 0 -1.25588e-06)
(-1.41454e-06 0 0 1.889e-18 2.82907e-06 0 0 0 -1.41454e-06)
(-1.60348e-06 0 0 2.69271e-18 3.20696e-06 0 0 0 -1.60348e-06)
(-1.79946e-06 0 0 1.71507e-18 3.59892e-06 0 0 0 -1.79946e-06)
(-1.9046e-06 0 0 6.74897e-19 3.80919e-06 0 0 0 -1.9046e-06)
(-1.81492e-06 0 0 1.2929e-18 3.62984e-06 0 0 0 -1.81492e-06)
(-1.59136e-06 0 0 1.09754e-18 3.18272e-06 0 0 0 -1.59136e-06)
(-4.74479e-06 0 0 1.61038e-18 9.48959e-06 0 0 0 -4.74479e-06)
(-1.84413e-05 0 0 2.11401e-17 3.68827e-05 0 0 0 -1.84413e-05)
(8.69431e-05 0 0 1.52712e-15 -0.000173886 0 0 0 8.69431e-05)
(-9.3665e-05 0 0 2.45894e-15 0.00018733 0 0 0 -9.3665e-05)
(-0.000177817 0 0 1.43644e-15 0.000355634 0 0 0 -0.000177817)
(2.11956e-05 0 0 9.67479e-16 -4.23911e-05 0 0 0 2.11956e-05)
(1.49963e-05 0 0 1.17813e-15 -2.99925e-05 0 0 0 1.49963e-05)
(3.54305e-06 0 0 1.46852e-15 -7.08609e-06 0 0 0 3.54305e-06)
(1.76741e-06 0 0 1.77916e-15 -3.53481e-06 0 0 0 1.76741e-06)
(9.48509e-07 0 0 2.09986e-15 -1.89702e-06 0 0 0 9.48509e-07)
(5.99834e-07 0 0 2.42531e-15 -1.19967e-06 0 0 0 5.99834e-07)
(-1.83159e-07 0 0 -5.22021e-17 3.66317e-07 0 0 0 -1.83159e-07)
(-1.29157e-06 0 0 -2.5328e-15 2.58315e-06 0 0 0 -1.29157e-06)
(4.41214e-06 0 0 -2.21713e-15 -8.82428e-06 0 0 0 4.41214e-06)
(3.22344e-05 0 0 -1.90837e-15 -6.44687e-05 0 0 0 3.22344e-05)
(-0.000159763 0 0 -1.60566e-15 0.000319527 0 0 0 -0.000159763)
(-0.000276409 0 0 -1.29712e-15 0.000552818 0 0 0 -0.000276409)
(0.00310826 0 0 -9.35261e-16 -0.00621652 0 0 0 0.00310826)
(0.00201714 0 0 -4.67303e-16 -0.00403428 0 0 0 0.00201714)
(-0.00229844 0 0 -9.89558e-17 0.00459688 0 0 0 -0.00229844)
(-0.000776247 0 0 -9.54391e-17 0.00155249 0 0 0 -0.000776247)
(0.000442138 0 0 -9.96492e-17 -0.000884277 0 0 0 0.000442138)
(9.13387e-05 0 0 -9.62483e-17 -0.000182677 0 0 0 9.13387e-05)
(-2.99942e-05 0 0 -9.2862e-17 5.99885e-05 0 0 0 -2.99942e-05)
(-8.45341e-06 0 0 -8.94248e-17 1.69068e-05 0 0 0 -8.45341e-06)
(1.98166e-06 0 0 -8.59556e-17 -3.96331e-06 0 0 0 1.98166e-06)
(7.48026e-07 0 0 -8.25001e-17 -1.49605e-06 0 0 0 7.48026e-07)
(-1.22715e-07 0 0 -7.91103e-17 2.4543e-07 0 0 0 -1.22715e-07)
(-6.39132e-08 0 0 -7.58322e-17 1.27826e-07 0 0 0 -6.39132e-08)
(6.89543e-09 0 0 -7.27034e-17 -1.37909e-08 0 0 0 6.89543e-09)
(5.38739e-09 0 0 -6.97522e-17 -1.07748e-08 0 0 0 5.38739e-09)
(-2.72982e-10 0 0 -6.69984e-17 5.45965e-10 0 0 0 -2.72982e-10)
(-4.2313e-10 0 0 -6.44547e-17 8.46261e-10 0 0 0 -4.2313e-10)
(1.89198e-11 0 0 -6.21269e-17 -3.78396e-11 0 0 0 1.89198e-11)
(5.45332e-11 0 0 -6.0016e-17 -1.09066e-10 0 0 0 5.45332e-11)
(2.43907e-11 0 0 -5.81189e-17 -4.87813e-11 0 0 0 2.43907e-11)
(2.16179e-11 0 0 -5.64297e-17 -4.32357e-11 0 0 0 2.16179e-11)
(2.13174e-11 0 0 -5.49408e-17 -4.26347e-11 0 0 0 2.13174e-11)
(1.60102e-11 0 0 -5.36438e-17 -3.20203e-11 0 0 0 1.60102e-11)
(1.11679e-11 0 0 -5.25302e-17 -2.23358e-11 0 0 0 1.11679e-11)
(9.61581e-12 0 0 -5.15919e-17 -1.92316e-11 0 0 0 9.61581e-12)
(1.06299e-11 0 0 -5.08217e-17 -2.12598e-11 0 0 0 1.06299e-11)
(1.07112e-11 0 0 -5.02132e-17 -2.14225e-11 0 0 0 1.07112e-11)
(-2.03732e-13 0 0 -4.97613e-17 4.07464e-13 0 0 0 -2.03732e-13)
(-3.1341e-12 0 0 -4.94622e-17 6.2682e-12 0 0 0 -3.1341e-12)
(1.78133e-10 0 0 -4.93026e-17 -3.56267e-10 0 0 0 1.78133e-10)
)
;

boundaryField
{
    inlet
    {
        type            cyclic;
    }
    outlet
    {
        type            cyclic;
    }
    top
    {
        type            extrapolatedCalculated;
        value           uniform (3.5213e-10 0 0 -4.92548e-17 -7.04261e-10 0 0 0 3.5213e-10);
    }
    bottom
    {
        type            extrapolatedCalculated;
        value           uniform (-1.46673e-07 0 0 3.89914e-19 2.93346e-07 0 0 0 -1.46673e-07);
    }
    frontAndBackPlanes
    {
        type            empty;
    }
}


// ************************************************************************* //
