/*--------------------------------*- C++ -*----------------------------------*\
| =========                 |                                                 |
| \\      /  F ield         | OpenFOAM: The Open Source CFD Toolbox           |
|  \\    /   O peration     | Version:  v2006                                 |
|   \\  /    A nd           | Website:  www.openfoam.com                      |
|    \\/     M anipulation  |                                                 |
\*---------------------------------------------------------------------------*/
FoamFile
{
    version     2.0;
    format      ascii;
    class       volVectorField;
    location    "1140";
    object      Ua;
}
// * * * * * * * * * * * * * * * * * * * * * * * * * * * * * * * * * * * * * //

dimensions      [0 1 -1 0 0 0 0];


internalField   nonuniform List<vector> 
120
(
(1.95176e-21 -1.46668e-09 0)
(5.85878e-21 -4.42478e-09 0)
(9.77394e-21 -7.43227e-09 0)
(1.36015e-20 -1.0487e-08 0)
(1.74483e-20 -1.35886e-08 0)
(2.13197e-20 -1.67385e-08 0)
(2.52217e-20 -1.99382e-08 0)
(2.89576e-20 -2.31891e-08 0)
(3.27359e-20 -2.64927e-08 0)
(3.6765e-20 -2.98506e-08 0)
(4.0849e-20 -3.32642e-08 0)
(4.49944e-20 -3.67353e-08 0)
(4.94103e-20 -4.02654e-08 0)
(5.39014e-20 -4.38564e-08 0)
(5.84752e-20 -4.75101e-08 0)
(6.31391e-20 -5.12284e-08 0)
(6.7901e-20 -5.50133e-08 0)
(7.27691e-20 -5.8867e-08 0)
(7.77516e-20 -6.27917e-08 0)
(8.28575e-20 -6.67897e-08 0)
(8.80958e-20 -7.08637e-08 0)
(9.34758e-20 -7.50163e-08 0)
(9.90073e-20 -7.92505e-08 0)
(1.047e-19 -8.35692e-08 0)
(1.11374e-19 -8.79759e-08 0)
(1.1823e-19 -9.24738e-08 0)
(1.2528e-19 -9.70669e-08 0)
(1.32132e-19 -1.01759e-07 0)
(1.39201e-19 -1.06554e-07 0)
(1.465e-19 -1.11457e-07 0)
(1.53234e-19 -1.16471e-07 0)
(1.59415e-19 -1.21603e-07 0)
(1.65866e-19 -1.26856e-07 0)
(1.726e-19 -1.32236e-07 0)
(1.79633e-19 -1.37749e-07 0)
(1.86966e-19 -1.434e-07 0)
(1.95434e-19 -1.49195e-07 0)
(2.05064e-19 -1.55142e-07 0)
(2.14243e-19 -1.61246e-07 0)
(2.24601e-19 -1.67515e-07 0)
(2.33731e-19 -1.73959e-07 0)
(2.4407e-19 -1.80586e-07 0)
(2.54017e-19 -1.87408e-07 0)
(2.64394e-19 -1.94435e-07 0)
(2.75212e-19 -2.01682e-07 0)
(2.87292e-19 -2.09163e-07 0)
(2.98219e-19 -2.16896e-07 0)
(3.09616e-19 -2.24898e-07 0)
(3.20684e-19 -2.3319e-07 0)
(3.3385e-19 -2.41792e-07 0)
(3.475e-19 -2.50728e-07 0)
(3.61631e-19 -2.60022e-07 0)
(3.7624e-19 -2.69696e-07 0)
(3.91319e-19 -2.79777e-07 0)
(4.06858e-19 -2.90292e-07 0)
(4.2365e-19 -3.01269e-07 0)
(4.40869e-19 -3.12743e-07 0)
(4.58492e-19 -3.24755e-07 0)
(4.76516e-19 -3.37358e-07 0)
(4.93264e-19 -3.50622e-07 0)
(5.1031e-19 -3.64645e-07 0)
(5.27647e-19 -3.79555e-07 0)
(5.45252e-19 -3.95522e-07 0)
(5.6311e-19 -4.12767e-07 0)
(5.81216e-19 -4.31564e-07 0)
(5.97931e-19 -4.52242e-07 0)
(6.16566e-19 -4.75182e-07 0)
(6.35452e-19 -5.0081e-07 0)
(6.54515e-19 -5.29617e-07 0)
(6.73572e-19 -5.62395e-07 0)
(6.9227e-19 -6.00543e-07 0)
(7.08297e-19 -6.44544e-07 0)
(7.22675e-19 -6.91002e-07 0)
(7.34594e-19 -7.32157e-07 0)
(7.44908e-19 -7.65326e-07 0)
(7.6569e-19 -8.1623e-07 0)
(1.01632e-18 -1.09863e-06 0)
(3.14478e-17 -1.15926e-05 0)
(5.34313e-17 -2.77425e-06 0)
(6.32503e-17 -4.39334e-06 0)
(7.47321e-17 -5.70269e-06 0)
(8.93168e-17 -6.08784e-06 0)
(1.073e-16 -6.27211e-06 0)
(1.28818e-16 -6.36498e-06 0)
(1.53946e-16 -6.41263e-06 0)
(1.82998e-16 -6.44249e-06 0)
(1.52786e-16 -6.41888e-06 0)
(1.26418e-16 -6.36217e-06 0)
(1.03514e-16 -6.73452e-06 0)
(8.39977e-17 -8.46546e-06 0)
(6.78459e-17 3.91153e-06 0)
(5.51372e-17 9.85253e-06 0)
(4.6794e-17 -0.000203579 0)
(4.53633e-17 -0.000221677 0)
(4.3136e-17 -0.000157757 0)
(4.06047e-17 -0.000218646 0)
(3.81528e-17 -0.000232931 0)
(3.57859e-17 -0.000229256 0)
(3.35069e-17 -0.000228256 0)
(3.1314e-17 -0.00022844 0)
(2.92086e-17 -0.000228564 0)
(2.71885e-17 -0.000228555 0)
(2.52526e-17 -0.000228545 0)
(2.33965e-17 -0.000228545 0)
(2.16168e-17 -0.000228546 0)
(1.99086e-17 -0.000228546 0)
(1.82665e-17 -0.000228546 0)
(1.66855e-17 -0.000228546 0)
(1.51598e-17 -0.000228546 0)
(1.36843e-17 -0.000228546 0)
(1.22535e-17 -0.000228546 0)
(1.08624e-17 -0.000228546 0)
(9.50606e-18 -0.000228546 0)
(8.17999e-18 -0.000228546 0)
(6.87931e-18 -0.000228546 0)
(5.60001e-18 -0.000228546 0)
(4.33791e-18 -0.000228546 0)
(3.08904e-18 -0.000228518 0)
(1.84954e-18 -0.000228481 0)
(6.15692e-19 -0.000228045 0)
)
;

boundaryField
{
    inlet
    {
        type            cyclic;
    }
    outlet
    {
        type            cyclic;
    }
    top
    {
        type            fixedValue;
        value           uniform (0 0 0);
    }
    bottom
    {
        type            fixedValue;
        value           uniform (0 0 0);
    }
    frontAndBackPlanes
    {
        type            empty;
    }
}


// ************************************************************************* //
