/*--------------------------------*- C++ -*----------------------------------*\
| =========                 |                                                 |
| \\      /  F ield         | OpenFOAM: The Open Source CFD Toolbox           |
|  \\    /   O peration     | Version:  v2006                                 |
|   \\  /    A nd           | Website:  www.openfoam.com                      |
|    \\/     M anipulation  |                                                 |
\*---------------------------------------------------------------------------*/
FoamFile
{
    version     2.0;
    format      ascii;
    class       volVectorField;
    location    "1140";
    object      Ub;
}
// * * * * * * * * * * * * * * * * * * * * * * * * * * * * * * * * * * * * * //

dimensions      [0 1 -1 0 0 0 0];


internalField   nonuniform List<vector> 
120
(
(1.95176e-21 2.20257e-09 0)
(5.85884e-21 6.63471e-09 0)
(9.7868e-21 1.11242e-08 0)
(1.36016e-20 1.56806e-08 0)
(1.74483e-20 2.03053e-08 0)
(2.132e-20 2.49998e-08 0)
(2.5292e-20 2.97661e-08 0)
(2.89575e-20 3.4606e-08 0)
(3.26422e-20 3.95218e-08 0)
(3.67646e-20 4.45154e-08 0)
(4.08484e-20 4.95892e-08 0)
(4.48641e-20 5.47454e-08 0)
(4.94097e-20 5.99863e-08 0)
(5.39014e-20 6.53145e-08 0)
(5.84752e-20 7.07324e-08 0)
(6.31391e-20 7.62429e-08 0)
(6.7901e-20 8.18486e-08 0)
(7.27691e-20 8.75527e-08 0)
(7.77516e-20 9.33583e-08 0)
(8.28575e-20 9.92686e-08 0)
(8.80958e-20 1.05287e-07 0)
(9.34758e-20 1.11418e-07 0)
(9.9002e-20 1.17665e-07 0)
(1.03514e-19 1.24033e-07 0)
(1.11369e-19 1.30525e-07 0)
(1.18233e-19 1.37148e-07 0)
(1.25969e-19 1.43905e-07 0)
(1.32135e-19 1.50803e-07 0)
(1.39208e-19 1.57848e-07 0)
(1.48089e-19 1.65045e-07 0)
(1.54893e-19 1.724e-07 0)
(1.59423e-19 1.79921e-07 0)
(1.65866e-19 1.87615e-07 0)
(1.726e-19 1.95487e-07 0)
(1.79624e-19 2.03547e-07 0)
(1.84924e-19 2.11802e-07 0)
(1.93321e-19 2.2026e-07 0)
(2.07243e-19 2.2893e-07 0)
(2.1199e-19 2.37823e-07 0)
(2.29324e-19 2.46948e-07 0)
(2.313e-19 2.56317e-07 0)
(2.46615e-19 2.65944e-07 0)
(2.54028e-19 2.75844e-07 0)
(2.64381e-19 2.86031e-07 0)
(2.72386e-19 2.96527e-07 0)
(2.93193e-19 3.0735e-07 0)
(2.98259e-19 3.18524e-07 0)
(3.12764e-19 3.30074e-07 0)
(3.14111e-19 3.42029e-07 0)
(3.3382e-19 3.54416e-07 0)
(3.47499e-19 3.67266e-07 0)
(3.61631e-19 3.80611e-07 0)
(3.7624e-19 3.94484e-07 0)
(3.91301e-19 4.08918e-07 0)
(4.02767e-19 4.2395e-07 0)
(4.23632e-19 4.39618e-07 0)
(4.40869e-19 4.5597e-07 0)
(4.58536e-19 4.73062e-07 0)
(4.86004e-19 4.90968e-07 0)
(4.93308e-19 5.09787e-07 0)
(5.1031e-19 5.29655e-07 0)
(5.27647e-19 5.50752e-07 0)
(5.45252e-19 5.73318e-07 0)
(5.63166e-19 5.97655e-07 0)
(5.93248e-19 6.2414e-07 0)
(5.85328e-19 6.53214e-07 0)
(6.16507e-19 6.85388e-07 0)
(6.35451e-19 7.21255e-07 0)
(6.54516e-19 7.61542e-07 0)
(6.73652e-19 8.07072e-07 0)
(7.09e-19 8.58876e-07 0)
(7.08378e-19 9.16375e-07 0)
(7.22676e-19 9.74656e-07 0)
(7.346e-19 1.0268e-06 0)
(7.44959e-19 1.07159e-06 0)
(7.67338e-19 1.31618e-06 0)
(1.17561e-18 2.19862e-06 0)
(3.19641e-17 -4.01217e-06 0)
(5.3431e-17 8.17009e-06 0)
(6.32503e-17 7.60666e-06 0)
(7.47322e-17 6.77008e-06 0)
(8.93169e-17 6.61126e-06 0)
(1.073e-16 6.53436e-06 0)
(1.28818e-16 6.49354e-06 0)
(1.53946e-16 6.47115e-06 0)
(1.82707e-16 6.45356e-06 0)
(1.52786e-16 6.48336e-06 0)
(1.26418e-16 6.53967e-06 0)
(1.03514e-16 6.1892e-06 0)
(8.39978e-17 4.39009e-06 0)
(6.78461e-17 1.68361e-05 0)
(5.51373e-17 2.28402e-05 0)
(4.67941e-17 -0.000193057 0)
(4.53639e-17 -0.000103722 0)
(4.31325e-17 6.20916e-05 0)
(4.05992e-17 1.25377e-05 0)
(3.81507e-17 -4.2198e-06 0)
(3.57862e-17 -1.16477e-06 0)
(3.3507e-17 2.79896e-07 0)
(3.13144e-17 1.03404e-07 0)
(2.92087e-17 -1.73896e-08 0)
(2.71889e-17 -8.81384e-09 0)
(2.52527e-17 1.01994e-09 0)
(2.33968e-17 7.74343e-10 0)
(2.16171e-17 -1.45008e-11 0)
(1.99088e-17 -3.38658e-11 0)
(1.82667e-17 2.64517e-11 0)
(1.66856e-17 2.96117e-11 0)
(1.516e-17 2.36134e-11 0)
(1.36844e-17 2.14307e-11 0)
(1.22537e-17 1.99543e-11 0)
(1.08626e-17 1.81876e-11 0)
(9.5063e-18 1.67563e-11 0)
(8.18008e-18 1.57858e-11 0)
(6.87946e-18 1.50809e-11 0)
(5.60016e-18 1.43433e-11 0)
(4.33806e-18 1.34863e-11 0)
(3.08918e-18 1.27364e-11 0)
(1.84968e-18 1.35168e-11 0)
(6.15762e-19 1.32065e-11 0)
)
;

boundaryField
{
    inlet
    {
        type            cyclic;
    }
    outlet
    {
        type            cyclic;
    }
    top
    {
        type            fixedValue;
        value           uniform (0 0 0);
    }
    bottom
    {
        type            fixedValue;
        value           uniform (0 0 0);
    }
    frontAndBackPlanes
    {
        type            empty;
    }
}


// ************************************************************************* //
