/*--------------------------------*- C++ -*----------------------------------*\
| =========                 |                                                 |
| \\      /  F ield         | OpenFOAM: The Open Source CFD Toolbox           |
|  \\    /   O peration     | Version:  2206                                  |
|   \\  /    A nd           | Website:  www.openfoam.com                      |
|    \\/     M anipulation  |                                                 |
\*---------------------------------------------------------------------------*/
FoamFile
{
    version     2.0;
    format      ascii;
    arch        "LSB;label=32;scalar=64";
    class       volScalarField;
    location    "1760";
    object      pff;
}
// * * * * * * * * * * * * * * * * * * * * * * * * * * * * * * * * * * * * * //

dimensions      [1 -1 -2 0 0 0 0];

internalField   nonuniform List<scalar> 
120
(
26.436
25.9026
25.9029
25.3255
25.3084
24.7429
24.7141
24.1604
24.1198
23.5781
23.5257
22.9958
22.9317
22.4136
22.3378
21.8316
21.7441
21.2496
21.1505
20.6677
20.5571
20.0859
19.9639
19.5041
19.3709
18.9224
18.7781
18.3407
18.1855
17.7591
17.5933
17.1775
17.0013
16.5958
16.4096
16.0142
15.8183
15.4326
15.2273
14.8509
14.6367
14.2691
14.0465
13.6873
13.4567
13.1055
12.8674
12.5236
12.2785
11.9416
11.6901
11.3595
11.1022
10.7775
10.5148
10.1953
9.92793
9.61314
9.34157
9.03096
8.75575
8.44879
8.17047
7.86665
7.58575
7.28457
7.00161
6.70255
6.41809
6.12061
5.83525
5.53875
5.25315
4.95695
4.67193
4.37513
4.09177
3.79322
3.5129
3.21108
2.93561
2.62865
2.36011
2.04613
1.78614
1.46487
1.21161
0.889856
0.628103
0.335488
0
0
0
0
0
0
0
0
0
0
0
0
0
0
0
0
0
0
0
0
0
0
0
0
0
0
0
0
0
0
)
;

boundaryField
{
    inlet
    {
        type            cyclic;
    }
    outlet
    {
        type            cyclic;
    }
    top
    {
        type            calculated;
        value           uniform 0;
    }
    bottom
    {
        type            calculated;
        value           uniform 26.436;
    }
    frontAndBackPlanes
    {
        type            empty;
    }
}


// ************************************************************************* //
