/*--------------------------------*- C++ -*----------------------------------*\
| =========                 |                                                 |
| \\      /  F ield         | OpenFOAM: The Open Source CFD Toolbox           |
|  \\    /   O peration     | Version:  2206                                  |
|   \\  /    A nd           | Website:  www.openfoam.com                      |
|    \\/     M anipulation  |                                                 |
\*---------------------------------------------------------------------------*/
FoamFile
{
    version     2.0;
    format      ascii;
    arch        "LSB;label=32;scalar=64";
    class       surfaceScalarField;
    location    "1760";
    object      phi.a;
}
// * * * * * * * * * * * * * * * * * * * * * * * * * * * * * * * * * * * * * //

dimensions      [0 3 -1 0 0 0 0];

oriented        oriented;

internalField   nonuniform List<scalar> 
119
(
-8.37254e-18
-1.69024e-17
-2.54679e-17
-3.41585e-17
-4.29389e-17
-5.18001e-17
-6.08037e-17
-6.98272e-17
-7.9067e-17
-8.82421e-17
-9.77332e-17
-1.07048e-16
-1.16806e-16
-1.26246e-16
-1.36289e-16
-1.4584e-16
-1.56186e-16
-1.65833e-16
-1.765e-16
-1.86228e-16
-1.97232e-16
-2.07027e-16
-2.18387e-16
-2.28235e-16
-2.39964e-16
-2.49854e-16
-2.61967e-16
-2.71887e-16
-2.84395e-16
-2.9434e-16
-3.07249e-16
-3.17215e-16
-3.30531e-16
-3.40517e-16
-3.5424e-16
-3.64249e-16
-3.78375e-16
-3.88415e-16
-4.02935e-16
-4.13018e-16
-4.27919e-16
-4.38059e-16
-4.53323e-16
-4.6354e-16
-4.79145e-16
-4.89461e-16
-5.05381e-16
-5.15819e-16
-5.32026e-16
-5.42612e-16
-5.59073e-16
-5.69833e-16
-5.86515e-16
-5.97473e-16
-6.14343e-16
-6.25517e-16
-6.42545e-16
-6.53948e-16
-6.71107e-16
-6.82739e-16
-7.00013e-16
-7.11853e-16
-7.29241e-16
-7.41242e-16
-7.58769e-16
-7.70841e-16
-7.8857e-16
-8.00562e-16
-8.18614e-16
-8.30292e-16
-8.48869e-16
-8.59887e-16
-8.79294e-16
-8.89179e-16
-9.09831e-16
-9.17997e-16
-9.40348e-16
-9.46254e-16
-9.70495e-16
-9.74206e-16
-9.99265e-16
-1.0032e-15
-1.02371e-15
-1.03804e-15
-1.03491e-15
-1.09503e-15
-1.00425e-15
-1.2345e-15
-8.19413e-16
-3.48643e-15
-7.66456e-15
-8.64771e-15
-2.63858e-11
-6.47814e-11
-7.89781e-11
-8.15037e-11
-8.19127e-11
-8.19872e-11
-8.20034e-11
-8.20077e-11
-8.20091e-11
-8.20096e-11
-8.20099e-11
-8.20101e-11
-8.20102e-11
-8.20103e-11
-8.20103e-11
-8.20104e-11
-8.20104e-11
-8.20103e-11
-8.20103e-11
-8.20102e-11
-8.20101e-11
-8.20099e-11
-8.20095e-11
-8.20083e-11
-8.20027e-11
-8.19583e-11
-8.11902e-11
)
;

boundaryField
{
    inlet
    {
        type            cyclic;
        value           nonuniform List<scalar> 
120
(
-4.57224e-27
-1.37224e-26
-2.28859e-26
-3.20714e-26
-4.1288e-26
-5.05443e-26
-5.9849e-26
-6.92107e-26
-7.86381e-26
-8.81393e-26
-9.77227e-26
-1.07396e-25
-1.17168e-25
-1.27046e-25
-1.37037e-25
-1.47148e-25
-1.57387e-25
-1.67761e-25
-1.78275e-25
-1.88936e-25
-1.99749e-25
-2.1072e-25
-2.21854e-25
-2.33155e-25
-2.44628e-25
-2.56275e-25
-2.681e-25
-2.80105e-25
-2.92292e-25
-3.04662e-25
-3.17216e-25
-3.29954e-25
-3.42875e-25
-3.55978e-25
-3.6926e-25
-3.8272e-25
-3.96016e-25
-4.09481e-25
-4.23109e-25
-4.36894e-25
-4.50828e-25
-4.64905e-25
-4.79116e-25
-4.93449e-25
-5.07897e-25
-5.22445e-25
-5.37084e-25
-5.51798e-25
-5.66575e-25
-5.81399e-25
-5.96255e-25
-6.11126e-25
-6.25996e-25
-6.40845e-25
-6.55655e-25
-6.70408e-25
-6.85084e-25
-6.99665e-25
-7.14131e-25
-7.28628e-25
-7.42967e-25
-7.57123e-25
-7.71071e-25
-7.84789e-25
-7.98251e-25
-8.11435e-25
-8.24319e-25
-8.36878e-25
-8.4909e-25
-8.60932e-25
-8.72382e-25
-8.83418e-25
-8.94017e-25
-9.04161e-25
-9.13827e-25
-9.22997e-25
-9.31652e-25
-9.39774e-25
-9.47345e-25
-9.5435e-25
-9.60774e-25
-9.66602e-25
-9.71822e-25
-9.76422e-25
-9.80392e-25
-9.83722e-25
-9.86404e-25
-9.88432e-25
-9.898e-25
-9.90504e-25
-9.90773e-25
-9.91215e-25
-9.91305e-25
-6.78626e-25
-3.40368e-25
-2.08442e-25
-1.74709e-25
-1.66489e-25
-1.64307e-25
-1.63641e-25
-1.63401e-25
-1.63297e-25
-1.63241e-25
-1.63204e-25
-1.63177e-25
-1.63154e-25
-1.63136e-25
-1.6312e-25
-1.63107e-25
-1.63095e-25
-1.63086e-25
-1.63077e-25
-1.6307e-25
-1.63064e-25
-1.63058e-25
-1.63049e-25
-1.63025e-25
-1.62925e-25
-1.62229e-25
-1.5389e-25
)
;
    }
    outlet
    {
        type            cyclic;
        value           nonuniform List<scalar> 
120
(
4.57224e-27
1.37224e-26
2.28859e-26
3.20714e-26
4.1288e-26
5.05443e-26
5.9849e-26
6.92107e-26
7.86381e-26
8.81393e-26
9.77227e-26
1.07396e-25
1.17168e-25
1.27046e-25
1.37037e-25
1.47148e-25
1.57387e-25
1.67761e-25
1.78275e-25
1.88936e-25
1.99749e-25
2.1072e-25
2.21854e-25
2.33155e-25
2.44628e-25
2.56275e-25
2.681e-25
2.80105e-25
2.92292e-25
3.04662e-25
3.17216e-25
3.29954e-25
3.42875e-25
3.55978e-25
3.6926e-25
3.8272e-25
3.96016e-25
4.09481e-25
4.23109e-25
4.36894e-25
4.50828e-25
4.64905e-25
4.79116e-25
4.93449e-25
5.07897e-25
5.22445e-25
5.37084e-25
5.51798e-25
5.66575e-25
5.81399e-25
5.96255e-25
6.11126e-25
6.25996e-25
6.40845e-25
6.55655e-25
6.70408e-25
6.85084e-25
6.99665e-25
7.14131e-25
7.28628e-25
7.42967e-25
7.57123e-25
7.71071e-25
7.84789e-25
7.98251e-25
8.11435e-25
8.24319e-25
8.36878e-25
8.4909e-25
8.60932e-25
8.72382e-25
8.83418e-25
8.94017e-25
9.04161e-25
9.13827e-25
9.22997e-25
9.31652e-25
9.39774e-25
9.47345e-25
9.5435e-25
9.60774e-25
9.66602e-25
9.71822e-25
9.76422e-25
9.80392e-25
9.83722e-25
9.86404e-25
9.88432e-25
9.898e-25
9.90504e-25
9.90773e-25
9.91215e-25
9.91305e-25
6.78626e-25
3.40368e-25
2.08442e-25
1.74709e-25
1.66489e-25
1.64307e-25
1.63641e-25
1.63401e-25
1.63297e-25
1.63241e-25
1.63204e-25
1.63177e-25
1.63154e-25
1.63136e-25
1.6312e-25
1.63107e-25
1.63095e-25
1.63086e-25
1.63077e-25
1.6307e-25
1.63064e-25
1.63058e-25
1.63049e-25
1.63025e-25
1.62925e-25
1.62229e-25
1.5389e-25
)
;
    }
    top
    {
        type            fixedValue;
        value           uniform 0;
    }
    bottom
    {
        type            fixedValue;
        value           uniform 0;
    }
    frontAndBackPlanes
    {
        type            empty;
        value           nonuniform List<scalar> 0();
    }
}


// ************************************************************************* //
