/*--------------------------------*- C++ -*----------------------------------*\
| =========                 |                                                 |
| \\      /  F ield         | OpenFOAM: The Open Source CFD Toolbox           |
|  \\    /   O peration     | Version:  2206                                  |
|   \\  /    A nd           | Website:  www.openfoam.com                      |
|    \\/     M anipulation  |                                                 |
\*---------------------------------------------------------------------------*/
FoamFile
{
    version     2.0;
    format      ascii;
    arch        "LSB;label=32;scalar=64";
    class       volVectorField;
    location    "1760";
    object      U.a;
}
// * * * * * * * * * * * * * * * * * * * * * * * * * * * * * * * * * * * * * //

dimensions      [0 1 -1 0 0 0 0];

internalField   nonuniform List<vector> 
120
(
(1.52408e-20 1.56036e-08 0)
(4.57415e-20 3.17955e-10 0)
(7.62863e-20 -4.11858e-10 0)
(1.06905e-19 2.70504e-10 0)
(1.37627e-19 -4.60371e-10 0)
(1.68481e-19 2.21823e-10 0)
(1.99497e-19 -5.09597e-10 0)
(2.30702e-19 1.71798e-10 0)
(2.62127e-19 -5.59721e-10 0)
(2.93798e-19 1.20456e-10 0)
(3.25742e-19 -6.10682e-10 0)
(3.57988e-19 6.77134e-11 0)
(3.9056e-19 -6.6241e-10 0)
(4.23486e-19 1.34767e-11 0)
(4.56789e-19 -7.14827e-10 0)
(4.90494e-19 -4.23513e-11 0)
(5.24625e-19 -7.6785e-10 0)
(5.59203e-19 -9.98712e-11 0)
(5.9425e-19 -8.21396e-10 0)
(6.29786e-19 -1.59184e-10 0)
(6.65831e-19 -8.75379e-10 0)
(7.02402e-19 -2.20391e-10 0)
(7.39515e-19 -9.29717e-10 0)
(7.77185e-19 -2.83585e-10 0)
(8.15426e-19 -9.84334e-10 0)
(8.5425e-19 -3.48854e-10 0)
(8.93665e-19 -1.03916e-09 0)
(9.33682e-19 -4.16272e-10 0)
(9.74305e-19 -1.09414e-09 0)
(1.01554e-18 -4.85901e-10 0)
(1.05739e-18 -1.14924e-09 0)
(1.09985e-18 -5.57785e-10 0)
(1.14292e-18 -1.20443e-09 0)
(1.18659e-18 -6.31948e-10 0)
(1.23087e-18 -1.25971e-09 0)
(1.27573e-18 -7.08392e-10 0)
(1.32005e-18 -1.3151e-09 0)
(1.36494e-18 -7.87094e-10 0)
(1.41036e-18 -1.37065e-09 0)
(1.45631e-18 -8.68005e-10 0)
(1.50276e-18 -1.42641e-09 0)
(1.54968e-18 -9.51048e-10 0)
(1.59705e-18 -1.48248e-09 0)
(1.64483e-18 -1.03612e-09 0)
(1.69299e-18 -1.53895e-09 0)
(1.74148e-18 -1.12311e-09 0)
(1.79028e-18 -1.59597e-09 0)
(1.83933e-18 -1.21186e-09 0)
(1.88858e-18 -1.65365e-09 0)
(1.938e-18 -1.3022e-09 0)
(1.98752e-18 -1.71216e-09 0)
(2.03709e-18 -1.39396e-09 0)
(2.08665e-18 -1.77162e-09 0)
(2.13615e-18 -1.48695e-09 0)
(2.18552e-18 -1.83219e-09 0)
(2.23469e-18 -1.58098e-09 0)
(2.28361e-18 -1.89396e-09 0)
(2.33222e-18 -1.67589e-09 0)
(2.38044e-18 -1.95701e-09 0)
(2.42876e-18 -1.77151e-09 0)
(2.47656e-18 -2.02133e-09 0)
(2.52374e-18 -1.86777e-09 0)
(2.57024e-18 -2.08682e-09 0)
(2.61596e-18 -1.96466e-09 0)
(2.66084e-18 -2.15321e-09 0)
(2.70478e-18 -2.06232e-09 0)
(2.74773e-18 -2.21998e-09 0)
(2.78959e-18 -2.16112e-09 0)
(2.8303e-18 -2.28629e-09 0)
(2.86977e-18 -2.26173e-09 0)
(2.90794e-18 -2.35082e-09 0)
(2.94473e-18 -2.36531e-09 0)
(2.98006e-18 -2.41163e-09 0)
(3.01387e-18 -2.47359e-09 0)
(3.04609e-18 -2.46603e-09 0)
(3.07666e-18 -2.58891e-09 0)
(3.10551e-18 -2.51072e-09 0)
(3.13258e-18 -2.71385e-09 0)
(3.15782e-18 -2.54267e-09 0)
(3.18117e-18 -2.84949e-09 0)
(3.20258e-18 -2.56225e-09 0)
(3.22201e-18 -2.98976e-09 0)
(3.23941e-18 -2.58321e-09 0)
(3.25474e-18 -3.10422e-09 0)
(3.26797e-18 -2.66312e-09 0)
(3.27907e-18 -3.08493e-09 0)
(3.28801e-18 -3.0022e-09 0)
(3.29477e-18 -2.56959e-09 0)
(3.29933e-18 -4.3036e-09 0)
(3.30168e-18 -2.41797e-10 0)
(3.30258e-18 -1.92273e-08 0)
(3.30405e-18 -2.33276e-08 0)
(3.30435e-18 -2.46873e-08 0)
(2.26209e-18 -0.000146563 0)
(1.13456e-18 -0.000213333 0)
(6.94805e-19 -0.000225434 0)
(5.82362e-19 -0.000227364 0)
(5.54963e-19 -0.000227706 0)
(5.47688e-19 -0.000227778 0)
(5.4547e-19 -0.000227796 0)
(5.44671e-19 -0.000227802 0)
(5.44322e-19 -0.000227804 0)
(5.44135e-19 -0.000227805 0)
(5.44013e-19 -0.000227806 0)
(5.43922e-19 -0.000227806 0)
(5.43848e-19 -0.000227806 0)
(5.43786e-19 -0.000227806 0)
(5.43734e-19 -0.000227807 0)
(5.43689e-19 -0.000227807 0)
(5.43651e-19 -0.000227807 0)
(5.43618e-19 -0.000227806 0)
(5.43591e-19 -0.000227806 0)
(5.43567e-19 -0.000227806 0)
(5.43547e-19 -0.000227806 0)
(5.43526e-19 -0.000227805 0)
(5.43495e-19 -0.000227803 0)
(5.43417e-19 -0.000227798 0)
(5.43082e-19 -0.000227772 0)
(5.40763e-19 -0.000227551 0)
(5.12966e-19 -0.000223505 0)
)
;

boundaryField
{
    inlet
    {
        type            cyclic;
    }
    outlet
    {
        type            cyclic;
    }
    top
    {
        type            fixedValue;
        value           uniform (0 0 0);
    }
    bottom
    {
        type            fixedValue;
        value           uniform (0 0 0);
    }
    frontAndBackPlanes
    {
        type            empty;
    }
}


// ************************************************************************* //
