/*--------------------------------*- C++ -*----------------------------------*\
| =========                 |                                                 |
| \\      /  F ield         | OpenFOAM: The Open Source CFD Toolbox           |
|  \\    /   O peration     | Version:  2206                                  |
|   \\  /    A nd           | Website:  www.openfoam.com                      |
|    \\/     M anipulation  |                                                 |
\*---------------------------------------------------------------------------*/
FoamFile
{
    version     2.0;
    format      ascii;
    arch        "LSB;label=32;scalar=64";
    class       volVectorField;
    location    "1760";
    object      U.b;
}
// * * * * * * * * * * * * * * * * * * * * * * * * * * * * * * * * * * * * * //

dimensions      [0 1 -1 0 0 0 0];

internalField   nonuniform List<vector> 
120
(
(1.52408e-20 1.53551e-08 0)
(4.57414e-20 4.32558e-10 0)
(7.62864e-20 -2.70489e-10 0)
(1.06905e-19 4.59172e-10 0)
(1.37627e-19 -1.86778e-10 0)
(1.68481e-19 5.44709e-10 0)
(1.99497e-19 -1.12864e-10 0)
(2.30702e-19 6.19171e-10 0)
(2.62126e-19 -3.7198e-11 0)
(2.93798e-19 6.94994e-10 0)
(3.25742e-19 4.03042e-11 0)
(3.57987e-19 7.72102e-10 0)
(3.9056e-19 1.1973e-10 0)
(4.23486e-19 8.50423e-10 0)
(4.56789e-19 2.0117e-10 0)
(4.90494e-19 9.29876e-10 0)
(5.24625e-19 2.84722e-10 0)
(5.59203e-19 1.01038e-09 0)
(5.9425e-19 3.70484e-10 0)
(6.29786e-19 1.09185e-09 0)
(6.65831e-19 4.58553e-10 0)
(7.02402e-19 1.17419e-09 0)
(7.39514e-19 5.49021e-10 0)
(7.77176e-19 1.25734e-09 0)
(8.15426e-19 6.41976e-10 0)
(8.54249e-19 1.34121e-09 0)
(8.93671e-19 7.3749e-10 0)
(9.33682e-19 1.42574e-09 0)
(9.74305e-19 8.35629e-10 0)
(1.01555e-18 1.51087e-09 0)
(1.0574e-18 9.36436e-10 0)
(1.09985e-18 1.59657e-09 0)
(1.14292e-18 1.03994e-09 0)
(1.18659e-18 1.68283e-09 0)
(1.23087e-18 1.14615e-09 0)
(1.27571e-18 1.76964e-09 0)
(1.32004e-18 1.25504e-09 0)
(1.36495e-18 1.85703e-09 0)
(1.41035e-18 1.36656e-09 0)
(1.45634e-18 1.94502e-09 0)
(1.50274e-18 1.48065e-09 0)
(1.5497e-18 2.0337e-09 0)
(1.59705e-18 1.5972e-09 0)
(1.64483e-18 2.12312e-09 0)
(1.69297e-18 1.71608e-09 0)
(1.74152e-18 2.21339e-09 0)
(1.79028e-18 1.83714e-09 0)
(1.83935e-18 2.30462e-09 0)
(1.88854e-18 1.9602e-09 0)
(1.938e-18 2.39691e-09 0)
(1.98752e-18 2.08505e-09 0)
(2.03709e-18 2.49037e-09 0)
(2.08665e-18 2.21149e-09 0)
(2.13615e-18 2.58511e-09 0)
(2.18549e-18 2.33929e-09 0)
(2.23469e-18 2.68119e-09 0)
(2.28361e-18 2.46822e-09 0)
(2.33222e-18 2.77865e-09 0)
(2.38049e-18 2.59806e-09 0)
(2.42876e-18 2.87746e-09 0)
(2.47656e-18 2.72862e-09 0)
(2.52374e-18 2.97747e-09 0)
(2.57024e-18 2.85976e-09 0)
(2.61596e-18 3.07839e-09 0)
(2.6609e-18 2.99144e-09 0)
(2.70472e-18 3.17973e-09 0)
(2.74773e-18 3.12376e-09 0)
(2.78959e-18 3.28064e-09 0)
(2.8303e-18 3.25707e-09 0)
(2.86977e-18 3.37989e-09 0)
(2.90801e-18 3.39205e-09 0)
(2.94473e-18 3.47562e-09 0)
(2.98006e-18 3.52983e-09 0)
(3.01387e-18 3.56526e-09 0)
(3.04609e-18 3.67206e-09 0)
(3.07666e-18 3.64554e-09 0)
(3.10551e-18 3.82067e-09 0)
(3.13258e-18 3.71292e-09 0)
(3.15782e-18 3.97676e-09 0)
(3.18117e-18 3.76562e-09 0)
(3.20258e-18 4.1368e-09 0)
(3.22201e-18 3.81011e-09 0)
(3.23941e-18 4.28093e-09 0)
(3.25474e-18 3.88119e-09 0)
(3.26797e-18 4.33734e-09 0)
(3.27924e-18 4.10625e-09 0)
(3.28801e-18 4.0668e-09 0)
(3.29477e-18 4.93549e-09 0)
(3.29933e-18 2.6042e-09 0)
(3.30168e-18 4.75939e-09 0)
(3.30175e-18 -1.19255e-09 0)
(3.2564e-18 1.44477e-08 0)
(3.15897e-18 1.67929e-09 0)
(3.06014e-18 -1.43112e-10 0)
(2.95994e-18 -2.07908e-10 0)
(2.85835e-18 -1.19027e-11 0)
(2.75538e-18 1.37262e-11 0)
(2.65101e-18 2.79226e-12 0)
(2.54525e-18 -6.58983e-13 0)
(2.43811e-18 -2.90428e-13 0)
(2.3296e-18 1.70782e-14 0)
(2.21972e-18 2.34373e-14 0)
(2.10852e-18 -5.81734e-15 0)
(1.99601e-18 -1.1681e-14 0)
(1.88222e-18 -7.15495e-15 0)
(1.7672e-18 -2.32254e-15 0)
(1.65099e-18 2.02476e-15 0)
(1.53364e-18 6.15026e-15 0)
(1.41522e-18 7.67722e-15 0)
(1.29577e-18 5.87396e-15 0)
(1.17538e-18 1.16036e-15 0)
(1.05411e-18 -5.36059e-15 0)
(9.32037e-19 -9.25214e-15 0)
(8.09253e-19 -7.30254e-15 0)
(6.8584e-19 -6.07343e-16 0)
(5.61889e-19 6.77915e-15 0)
(4.37493e-19 9.74209e-15 0)
(3.12748e-19 5.83178e-15 0)
(1.87752e-19 -2.88457e-15 0)
(6.26058e-20 -7.54691e-15 0)
)
;

boundaryField
{
    inlet
    {
        type            cyclic;
    }
    outlet
    {
        type            cyclic;
    }
    top
    {
        type            fixedValue;
        value           uniform (0 0 0);
    }
    bottom
    {
        type            fixedValue;
        value           uniform (0 0 0);
    }
    frontAndBackPlanes
    {
        type            empty;
    }
}


// ************************************************************************* //
