/*--------------------------------*- C++ -*----------------------------------*\
| =========                 |                                                 |
| \\      /  F ield         | OpenFOAM: The Open Source CFD Toolbox           |
|  \\    /   O peration     | Version:  v2006                                 |
|   \\  /    A nd           | Website:  www.openfoam.com                      |
|    \\/     M anipulation  |                                                 |
\*---------------------------------------------------------------------------*/
FoamFile
{
    version     2.0;
    format      ascii;
    class       volScalarField;
    location    "1120";
    object      p;
}
// * * * * * * * * * * * * * * * * * * * * * * * * * * * * * * * * * * * * * //

dimensions      [1 -1 -2 0 0 0 0];


internalField   nonuniform List<scalar> 
120
(
4.28914
-0.371037
-5.03164
-9.69268
-14.3542
-19.0161
-23.6785
-28.3413
-33.0046
-37.6684
-42.3327
-46.9974
-51.6627
-56.3284
-60.9947
-65.6615
-70.3288
-74.9966
-79.665
-84.334
-89.0035
-93.6736
-98.3442
-103.016
-107.687
-112.36
-117.033
-121.707
-126.381
-131.056
-135.732
-140.408
-145.085
-149.763
-154.442
-159.121
-163.801
-168.482
-173.164
-177.847
-182.53
-187.214
-191.899
-196.585
-201.272
-205.96
-210.649
-215.339
-220.03
-224.723
-229.416
-234.11
-238.806
-243.503
-248.201
-252.901
-257.602
-262.305
-267.009
-271.714
-276.422
-281.131
-285.843
-290.556
-295.271
-299.989
-304.709
-309.432
-314.159
-318.889
-323.625
-328.366
-333.113
-337.865
-342.618
-347.367
-352.271
-357.187
-362.097
-367.005
-371.911
-376.816
-381.722
-386.627
-391.532
-396.437
-401.342
-406.247
-411.152
-416.057
-420.961
-425.868
-430.786
-435.652
-440.345
-445.007
-449.666
-454.326
-458.985
-463.645
-468.305
-472.965
-477.624
-482.284
-486.944
-491.604
-496.263
-500.923
-505.583
-510.243
-514.902
-519.562
-524.222
-528.882
-533.541
-538.201
-542.861
-547.521
-552.18
-556.84
)
;

boundaryField
{
    inlet
    {
        type            cyclic;
    }
    outlet
    {
        type            cyclic;
    }
    top
    {
        type            calculated;
        value           uniform -559.17;
    }
    bottom
    {
        type            calculated;
        value           uniform 6.61901;
    }
    frontAndBackPlanes
    {
        type            empty;
    }
}


// ************************************************************************* //
