/*--------------------------------*- C++ -*----------------------------------*\
| =========                 |                                                 |
| \\      /  F ield         | OpenFOAM: The Open Source CFD Toolbox           |
|  \\    /   O peration     | Version:  v2006                                 |
|   \\  /    A nd           | Website:  www.openfoam.com                      |
|    \\/     M anipulation  |                                                 |
\*---------------------------------------------------------------------------*/
FoamFile
{
    version     2.0;
    format      ascii;
    class       volScalarField;
    location    "1120";
    object      pff;
}
// * * * * * * * * * * * * * * * * * * * * * * * * * * * * * * * * * * * * * //

dimensions      [1 -1 -2 0 0 0 0];


internalField   nonuniform List<scalar> 
120
(
19.8294
19.5359
19.2429
18.9503
18.6582
18.3665
18.0754
17.7847
17.4945
17.2048
16.9156
16.6269
16.3388
16.0511
15.764
15.4774
15.1914
14.906
14.6211
14.3367
14.053
13.7699
13.4873
13.2054
12.9241
12.6434
12.3634
12.084
11.8053
11.5272
11.2499
10.9733
10.6974
10.4222
10.1478
9.87414
9.60128
9.32923
9.05799
8.78759
8.51805
8.24937
7.98158
7.71469
7.44873
7.18372
6.91967
6.65662
6.3946
6.13363
5.87375
5.615
5.35743
5.10107
4.84597
4.59215
4.33964
4.08846
3.8386
3.59006
3.34281
3.09682
2.85204
2.60845
2.36599
2.1246
1.88406
1.64376
1.40268
1.1595
0.927407
0.718606
0.536113
0.370192
0.180924
0
0
0
0
0
0
0
0
0
0
0
0
0
0
0
0
0
0
0
0
0
0
0
0
0
0
0
0
0
0
0
0
0
0
0
0
0
0
0
0
0
0
0
0
0
)
;

boundaryField
{
    inlet
    {
        type            cyclic;
    }
    outlet
    {
        type            cyclic;
    }
    top
    {
        type            calculated;
        value           uniform 0;
    }
    bottom
    {
        type            calculated;
        value           uniform 19.8294;
    }
    frontAndBackPlanes
    {
        type            empty;
    }
}


// ************************************************************************* //
