/*--------------------------------*- C++ -*----------------------------------*\
| =========                 |                                                 |
| \\      /  F ield         | OpenFOAM: The Open Source CFD Toolbox           |
|  \\    /   O peration     | Version:  v2006                                 |
|   \\  /    A nd           | Website:  www.openfoam.com                      |
|    \\/     M anipulation  |                                                 |
\*---------------------------------------------------------------------------*/
FoamFile
{
    version     2.0;
    format      ascii;
    class       surfaceScalarField;
    location    "1120";
    object      phia;
}
// * * * * * * * * * * * * * * * * * * * * * * * * * * * * * * * * * * * * * //

dimensions      [0 3 -1 0 0 0 0];
oriented        oriented;


internalField   nonuniform List<scalar> 
119
(
-1.07882e-15
-2.17401e-15
-3.28601e-15
-4.41529e-15
-5.56232e-15
-6.7276e-15
-7.91166e-15
-9.11506e-15
-1.03384e-14
-1.15822e-14
-1.28472e-14
-1.4134e-14
-1.54433e-14
-1.67758e-14
-1.81324e-14
-1.95138e-14
-2.09207e-14
-2.23542e-14
-2.3815e-14
-2.5304e-14
-2.68224e-14
-2.83709e-14
-2.99509e-14
-3.15633e-14
-3.32095e-14
-3.48907e-14
-3.66084e-14
-3.8364e-14
-4.01592e-14
-4.19957e-14
-4.38756e-14
-4.58007e-14
-4.77734e-14
-4.97958e-14
-5.18705e-14
-5.40001e-14
-5.61872e-14
-5.84347e-14
-6.07456e-14
-6.31229e-14
-6.557e-14
-6.80904e-14
-7.06881e-14
-7.33674e-14
-7.61332e-14
-7.89912e-14
-8.19478e-14
-8.50108e-14
-8.8189e-14
-9.14926e-14
-9.4933e-14
-9.85232e-14
-1.02277e-13
-1.0621e-13
-1.10338e-13
-1.14676e-13
-1.19242e-13
-1.24051e-13
-1.29123e-13
-1.34478e-13
-1.40145e-13
-1.46166e-13
-1.52603e-13
-1.59553e-13
-1.67163e-13
-1.75654e-13
-1.85358e-13
-1.9677e-13
-2.10548e-13
-2.27782e-13
-2.47729e-13
-2.69029e-13
-2.87387e-13
-3.0028e-13
-3.18393e-13
-1.21874e-12
-1.81073e-12
-2.08362e-12
-2.20843e-12
-2.26821e-12
-2.29669e-12
-2.31045e-12
-2.31713e-12
-2.32034e-12
-2.32191e-12
-2.32264e-12
-2.32284e-12
-2.32464e-12
-2.31679e-12
-2.34047e-12
-2.3123e-12
-2.17531e-12
-5.95006e-12
-3.82284e-11
-4.04408e-11
-8.34903e-11
-8.22685e-11
-8.22748e-11
-8.22726e-11
-8.22764e-11
-8.22769e-11
-8.22766e-11
-8.22766e-11
-8.22766e-11
-8.22766e-11
-8.22766e-11
-8.22766e-11
-8.22766e-11
-8.22766e-11
-8.22766e-11
-8.22766e-11
-8.22766e-11
-8.22766e-11
-8.22766e-11
-8.22766e-11
-8.22766e-11
-8.22766e-11
-8.22565e-11
-8.21697e-11
)
;

boundaryField
{
    inlet
    {
        type            cyclic;
        value           nonuniform List<scalar> 
120
(
-5.71703e-28
-1.71607e-27
-2.86266e-27
-3.98263e-27
-5.10785e-27
-6.23988e-27
-7.3803e-27
-8.47007e-27
-9.57156e-27
-1.07472e-26
-1.19381e-26
-1.31462e-26
-1.44341e-26
-1.57432e-26
-1.70756e-26
-1.84335e-26
-1.98192e-26
-2.12352e-26
-2.26838e-26
-2.41678e-26
-2.56897e-26
-2.72524e-26
-2.88587e-26
-3.05117e-26
-3.24568e-26
-3.44547e-26
-3.65089e-26
-3.85013e-26
-4.05569e-26
-4.26791e-26
-4.46295e-26
-4.64119e-26
-4.82727e-26
-5.02162e-26
-5.22472e-26
-5.43657e-26
-5.68229e-26
-5.96276e-26
-6.22957e-26
-6.53172e-26
-6.79706e-26
-7.09879e-26
-7.389e-26
-7.69244e-26
-8.00964e-26
-8.36532e-26
-8.68725e-26
-9.02433e-26
-9.3527e-26
-9.74544e-26
-1.01543e-25
-1.05794e-25
-1.10207e-25
-1.14783e-25
-1.19519e-25
-1.24654e-25
-1.2994e-25
-1.35371e-25
-1.40943e-25
-1.46152e-25
-1.51463e-25
-1.56868e-25
-1.62348e-25
-1.67889e-25
-1.73479e-25
-1.78621e-25
-1.84334e-25
-1.90147e-25
-1.96101e-25
-2.0222e-25
-2.08482e-25
-2.1427e-25
-2.19945e-25
-2.24766e-25
-2.28574e-25
-2.34812e-25
-1.15676e-23
-1.43979e-23
-1.61997e-23
-1.86349e-23
-2.19849e-23
-2.63247e-23
-3.16995e-23
-3.81427e-23
-4.5676e-23
-5.43941e-23
-4.53391e-23
-3.74428e-23
-3.05859e-23
-2.47373e-23
-1.98665e-23
-1.60001e-23
-1.33349e-23
-1.23474e-23
-1.18755e-23
-1.11051e-23
-1.03828e-23
-9.70555e-24
-9.06956e-24
-8.46948e-24
-7.90131e-24
-7.36155e-24
-6.84699e-24
-6.35495e-24
-5.88292e-24
-5.42891e-24
-4.99094e-24
-4.56749e-24
-4.15697e-24
-3.75816e-24
-3.36976e-24
-2.99066e-24
-2.61976e-24
-2.25611e-24
-1.89859e-24
-1.5463e-24
-1.19826e-24
-8.53515e-25
-5.11126e-25
-1.70167e-25
)
;
    }
    outlet
    {
        type            cyclic;
        value           nonuniform List<scalar> 
120
(
5.71703e-28
1.71607e-27
2.86266e-27
3.98263e-27
5.10785e-27
6.23988e-27
7.3803e-27
8.47007e-27
9.57156e-27
1.07472e-26
1.19381e-26
1.31462e-26
1.44341e-26
1.57432e-26
1.70756e-26
1.84335e-26
1.98192e-26
2.12352e-26
2.26838e-26
2.41678e-26
2.56897e-26
2.72524e-26
2.88587e-26
3.05117e-26
3.24568e-26
3.44547e-26
3.65089e-26
3.85013e-26
4.05569e-26
4.26791e-26
4.46295e-26
4.64119e-26
4.82727e-26
5.02162e-26
5.22472e-26
5.43657e-26
5.68229e-26
5.96276e-26
6.22957e-26
6.53172e-26
6.79706e-26
7.09879e-26
7.389e-26
7.69244e-26
8.00964e-26
8.36532e-26
8.68725e-26
9.02433e-26
9.3527e-26
9.74544e-26
1.01543e-25
1.05794e-25
1.10207e-25
1.14783e-25
1.19519e-25
1.24654e-25
1.2994e-25
1.35371e-25
1.40943e-25
1.46152e-25
1.51463e-25
1.56868e-25
1.62348e-25
1.67889e-25
1.73479e-25
1.78621e-25
1.84334e-25
1.90147e-25
1.96101e-25
2.0222e-25
2.08482e-25
2.1427e-25
2.19945e-25
2.24766e-25
2.28574e-25
2.34812e-25
1.15676e-23
1.43979e-23
1.61997e-23
1.86349e-23
2.19849e-23
2.63247e-23
3.16995e-23
3.81427e-23
4.5676e-23
5.43941e-23
4.53391e-23
3.74428e-23
3.05859e-23
2.47373e-23
1.98665e-23
1.60001e-23
1.33349e-23
1.23474e-23
1.18755e-23
1.11051e-23
1.03828e-23
9.70555e-24
9.06956e-24
8.46948e-24
7.90131e-24
7.36155e-24
6.84699e-24
6.35495e-24
5.88292e-24
5.42891e-24
4.99094e-24
4.56749e-24
4.15697e-24
3.75816e-24
3.36976e-24
2.99066e-24
2.61976e-24
2.25611e-24
1.89859e-24
1.5463e-24
1.19826e-24
8.53515e-25
5.11126e-25
1.70167e-25
)
;
    }
    top
    {
        type            fixedValue;
        value           uniform 0;
    }
    bottom
    {
        type            fixedValue;
        value           uniform 0;
    }
    frontAndBackPlanes
    {
        type            empty;
        value           nonuniform List<scalar> 0();
    }
}


// ************************************************************************* //
