/*--------------------------------*- C++ -*----------------------------------*\
| =========                 |                                                 |
| \\      /  F ield         | OpenFOAM: The Open Source CFD Toolbox           |
|  \\    /   O peration     | Version:  v2006                                 |
|   \\  /    A nd           | Website:  www.openfoam.com                      |
|    \\/     M anipulation  |                                                 |
\*---------------------------------------------------------------------------*/
FoamFile
{
    version     2.0;
    format      ascii;
    class       surfaceScalarField;
    location    "1120";
    object      phib;
}
// * * * * * * * * * * * * * * * * * * * * * * * * * * * * * * * * * * * * * //

dimensions      [0 3 -1 0 0 0 0];
oriented        oriented;


internalField   nonuniform List<scalar> 
119
(
1.61083e-15
3.24526e-15
4.90394e-15
6.58749e-15
8.29659e-15
1.0032e-14
1.17943e-14
1.35845e-14
1.54032e-14
1.72514e-14
1.913e-14
2.10398e-14
2.29819e-14
2.49573e-14
2.6967e-14
2.90122e-14
3.10939e-14
3.32135e-14
3.53721e-14
3.7571e-14
3.98116e-14
4.20953e-14
4.44236e-14
4.67981e-14
4.92205e-14
5.16926e-14
5.42164e-14
5.67939e-14
5.94276e-14
6.21197e-14
6.4873e-14
6.76904e-14
7.05747e-14
7.35293e-14
7.65576e-14
7.96631e-14
8.28495e-14
8.61208e-14
8.9481e-14
9.29343e-14
9.64853e-14
1.00139e-13
1.039e-13
1.07775e-13
1.11771e-13
1.15894e-13
1.20155e-13
1.24563e-13
1.29131e-13
1.33872e-13
1.38804e-13
1.43942e-13
1.49307e-13
1.54919e-13
1.60799e-13
1.66968e-13
1.73449e-13
1.80262e-13
1.87431e-13
1.94983e-13
2.02956e-13
2.11402e-13
2.20407e-13
2.301e-13
2.40682e-13
2.52453e-13
2.65865e-13
2.8159e-13
3.00508e-13
3.24101e-13
3.51253e-13
3.79974e-13
4.0407e-13
4.19293e-13
4.31289e-13
1.49517e-12
1.99057e-12
2.17359e-12
2.25266e-12
2.28981e-12
2.30717e-12
2.31552e-12
2.31957e-12
2.32152e-12
2.32247e-12
2.32292e-12
2.323e-12
2.32416e-12
2.31947e-12
2.33376e-12
2.30923e-12
2.19059e-12
4.088e-12
7.08772e-12
7.17823e-15
2.70344e-16
8.98984e-18
9.44127e-18
9.19469e-18
9.15694e-18
8.53506e-18
8.18249e-18
7.3427e-18
6.94346e-18
6.38358e-18
6.27399e-18
5.86533e-18
5.69334e-18
5.22159e-18
4.93177e-18
4.38572e-18
4.0951e-18
3.7335e-18
3.62981e-18
3.38653e-18
3.28396e-18
3.04121e-18
2.91714e-18
2.6593e-18
)
;

boundaryField
{
    inlet
    {
        type            cyclic;
        value           nonuniform List<scalar> 
120
(
-5.71703e-28
-1.71608e-27
-2.86659e-27
-3.98264e-27
-5.10785e-27
-6.23997e-27
-7.40181e-27
-8.47004e-27
-9.5429e-27
-1.07471e-26
-1.1938e-26
-1.31064e-26
-1.44339e-26
-1.57432e-26
-1.70756e-26
-1.84335e-26
-1.98192e-26
-2.12352e-26
-2.26838e-26
-2.41678e-26
-2.56897e-26
-2.72524e-26
-2.88571e-26
-3.01479e-26
-3.24552e-26
-3.44557e-26
-3.67202e-26
-3.85023e-26
-4.0559e-26
-4.31669e-26
-4.5139e-26
-4.64141e-26
-4.82727e-26
-5.02162e-26
-5.22443e-26
-5.37379e-26
-5.6173e-26
-6.02978e-26
-6.16023e-26
-6.67716e-26
-6.7222e-26
-7.17723e-26
-7.38935e-26
-7.69205e-26
-7.92242e-26
-8.54756e-26
-8.68851e-26
-9.12162e-26
-9.14945e-26
-9.74452e-26
-1.01543e-25
-1.05794e-25
-1.10207e-25
-1.14777e-25
-1.18249e-25
-1.24648e-25
-1.2994e-25
-1.35384e-25
-1.43906e-25
-1.46166e-25
-1.51463e-25
-1.56868e-25
-1.62348e-25
-1.67906e-25
-1.77266e-25
-1.7465e-25
-1.84315e-25
-1.90147e-25
-1.96101e-25
-2.02246e-25
-2.13969e-25
-2.14299e-25
-2.19949e-25
-2.24778e-25
-2.28936e-25
-2.99169e-25
-1.15674e-23
-1.43979e-23
-1.61997e-23
-1.8635e-23
-2.1985e-23
-2.63247e-23
-3.16996e-23
-3.81428e-23
-4.56761e-23
-5.43067e-23
-4.53391e-23
-3.74428e-23
-3.0586e-23
-2.47373e-23
-1.98665e-23
-1.60001e-23
-1.33349e-23
-1.23475e-23
-1.1875e-23
-1.11036e-23
-1.03821e-23
-9.70567e-24
-9.06964e-24
-8.46955e-24
-7.90139e-24
-7.36161e-24
-6.84706e-24
-6.35499e-24
-5.88299e-24
-5.42895e-24
-4.991e-24
-4.56752e-24
-4.15703e-24
-3.7582e-24
-3.3698e-24
-2.9907e-24
-2.61983e-24
-2.25613e-24
-1.89863e-24
-1.54634e-24
-1.1983e-24
-8.53554e-25
-5.11165e-25
-1.70186e-25
)
;
    }
    outlet
    {
        type            cyclic;
        value           nonuniform List<scalar> 
120
(
5.71703e-28
1.71608e-27
2.86659e-27
3.98264e-27
5.10785e-27
6.23997e-27
7.40181e-27
8.47004e-27
9.5429e-27
1.07471e-26
1.1938e-26
1.31064e-26
1.44339e-26
1.57432e-26
1.70756e-26
1.84335e-26
1.98192e-26
2.12352e-26
2.26838e-26
2.41678e-26
2.56897e-26
2.72524e-26
2.88571e-26
3.01479e-26
3.24552e-26
3.44557e-26
3.67202e-26
3.85023e-26
4.0559e-26
4.31669e-26
4.5139e-26
4.64141e-26
4.82727e-26
5.02162e-26
5.22443e-26
5.37379e-26
5.6173e-26
6.02978e-26
6.16023e-26
6.67716e-26
6.7222e-26
7.17723e-26
7.38935e-26
7.69205e-26
7.92242e-26
8.54756e-26
8.68851e-26
9.12162e-26
9.14945e-26
9.74452e-26
1.01543e-25
1.05794e-25
1.10207e-25
1.14777e-25
1.18249e-25
1.24648e-25
1.2994e-25
1.35384e-25
1.43906e-25
1.46166e-25
1.51463e-25
1.56868e-25
1.62348e-25
1.67906e-25
1.77266e-25
1.7465e-25
1.84315e-25
1.90147e-25
1.96101e-25
2.02246e-25
2.13969e-25
2.14299e-25
2.19949e-25
2.24778e-25
2.28936e-25
2.99169e-25
1.15674e-23
1.43979e-23
1.61997e-23
1.8635e-23
2.1985e-23
2.63247e-23
3.16996e-23
3.81428e-23
4.56761e-23
5.43067e-23
4.53391e-23
3.74428e-23
3.0586e-23
2.47373e-23
1.98665e-23
1.60001e-23
1.33349e-23
1.23475e-23
1.1875e-23
1.11036e-23
1.03821e-23
9.70567e-24
9.06964e-24
8.46955e-24
7.90139e-24
7.36161e-24
6.84706e-24
6.35499e-24
5.88299e-24
5.42895e-24
4.991e-24
4.56752e-24
4.15703e-24
3.7582e-24
3.3698e-24
2.9907e-24
2.61983e-24
2.25613e-24
1.89863e-24
1.54634e-24
1.1983e-24
8.53554e-25
5.11165e-25
1.70186e-25
)
;
    }
    top
    {
        type            fixedValue;
        value           uniform 0;
    }
    bottom
    {
        type            fixedValue;
        value           uniform 0;
    }
    frontAndBackPlanes
    {
        type            empty;
        value           nonuniform List<scalar> 0();
    }
}


// ************************************************************************* //
