/*--------------------------------*- C++ -*----------------------------------*\
| =========                 |                                                 |
| \\      /  F ield         | OpenFOAM: The Open Source CFD Toolbox           |
|  \\    /   O peration     | Version:  v2006                                 |
|   \\  /    A nd           | Website:  www.openfoam.com                      |
|    \\/     M anipulation  |                                                 |
\*---------------------------------------------------------------------------*/
FoamFile
{
    version     2.0;
    format      ascii;
    class       volTensorField;
    location    "1120";
    object      Taua;
}
// * * * * * * * * * * * * * * * * * * * * * * * * * * * * * * * * * * * * * //

dimensions      [1 -1 -2 0 0 0 0];


internalField   nonuniform List<tensor> 
120
(
(0.00210022 0 0 8.00719e-15 -0.00420043 0 0 0 0.00210022)
(0.00212704 0 0 8.01834e-15 -0.00425409 0 0 0 0.00212704)
(0.00216201 0 0 7.93297e-15 -0.00432403 0 0 0 0.00216201)
(0.00219601 0 0 7.85818e-15 -0.00439202 0 0 0 0.00219601)
(0.00223036 0 0 7.90038e-15 -0.00446072 0 0 0 0.00223036)
(0.00226581 0 0 7.95358e-15 -0.00453163 0 0 0 0.00226581)
(0.00230234 0 0 7.80568e-15 -0.00460468 0 0 0 0.00230234)
(0.00233993 0 0 7.66944e-15 -0.00467986 0 0 0 0.00233993)
(0.00237865 0 0 7.96997e-15 -0.00475729 0 0 0 0.00237865)
(0.00241854 0 0 8.28297e-15 -0.00483709 0 0 0 0.00241854)
(0.00245968 0 0 8.39659e-15 -0.00491936 0 0 0 0.00245968)
(0.00250211 0 0 8.73598e-15 -0.00500422 0 0 0 0.00250211)
(0.0025459 0 0 9.0894e-15 -0.00509179 0 0 0 0.0025459)
(0.0025911 0 0 9.2451e-15 -0.0051822 0 0 0 0.0025911)
(0.00263777 0 0 9.416e-15 -0.00527554 0 0 0 0.00263777)
(0.00268598 0 0 9.60272e-15 -0.00537195 0 0 0 0.00268598)
(0.00273578 0 0 9.80589e-15 -0.00547155 0 0 0 0.00273578)
(0.00278723 0 0 1.00262e-14 -0.00557447 0 0 0 0.00278723)
(0.00284042 0 0 1.02642e-14 -0.00568084 0 0 0 0.00284042)
(0.00289541 0 0 1.05207e-14 -0.00579082 0 0 0 0.00289541)
(0.00295229 0 0 1.07962e-14 -0.00590458 0 0 0 0.00295229)
(0.00301116 0 0 1.10916e-14 -0.00602232 0 0 0 0.00301116)
(0.00307212 0 0 1.14075e-14 -0.00614425 0 0 0 0.00307212)
(0.00313532 0 0 1.25931e-14 -0.00627063 0 0 0 0.00313532)
(0.00320089 0 0 1.38007e-14 -0.00640178 0 0 0 0.00320089)
(0.00326901 0 0 1.41823e-14 -0.00653801 0 0 0 0.00326901)
(0.00333986 0 0 1.41631e-14 -0.00667973 0 0 0 0.00333986)
(0.00341367 0 0 1.41681e-14 -0.00682735 0 0 0 0.00341367)
(0.00349067 0 0 1.46223e-14 -0.00698134 0 0 0 0.00349067)
(0.00357111 0 0 1.42541e-14 -0.00714222 0 0 0 0.00357111)
(0.00365524 0 0 1.30645e-14 -0.00731049 0 0 0 0.00365524)
(0.00374335 0 0 1.27512e-14 -0.00748669 0 0 0 0.00374335)
(0.00383569 0 0 1.33153e-14 -0.00767139 0 0 0 0.00383569)
(0.00393255 0 0 1.39108e-14 -0.00786509 0 0 0 0.00393255)
(0.00403417 0 0 1.45233e-14 -0.00806834 0 0 0 0.00403417)
(0.00414081 3.68135e-17 0 1.60152e-14 -0.00828161 0 0 0 0.00414081)
(0.00425271 0 0 1.84165e-14 -0.00850541 0 0 0 0.00425271)
(0.00437011 0 0 1.91547e-14 -0.00874023 0 0 0 0.00437011)
(0.00449329 0 0 1.99138e-14 -0.00898658 0 0 0 0.00449329)
(0.00462254 0 0 1.98621e-14 -0.00924508 0 0 0 0.00462254)
(0.00475824 0 0 1.98474e-14 -0.00951648 0 0 0 0.00475824)
(0.00490087 0 0 2.07179e-14 -0.00980174 0 0 0 0.00490087)
(0.00505109 0 0 2.07776e-14 -0.0101022 0 0 0 0.00505109)
(0.00520975 0 0 2.17223e-14 -0.0104195 0 0 0 0.00520975)
(0.00537797 0 0 2.3551e-14 -0.0107559 0 0 0 0.00537797)
(0.00555718 0 0 2.37166e-14 -0.0111144 0 0 0 0.00555718)
(0.00574912 0 0 2.30651e-14 -0.0114982 0 0 0 0.00574912)
(0.00595588 0 0 2.32906e-14 -0.0119118 0 0 0 0.00595588)
(0.00617982 0 0 2.52391e-14 -0.0123596 0 0 0 0.00617982)
(0.00642354 0 0 2.80559e-14 -0.0128471 0 0 0 0.00642354)
(0.0066897 0 0 2.91877e-14 -0.0133794 0 0 0 0.0066897)
(0.00698091 0 0 3.03257e-14 -0.0139618 0 0 0 0.00698091)
(0.0072995 0 0 3.14623e-14 -0.014599 0 0 0 0.0072995)
(0.00764733 0 0 3.25892e-14 -0.0152947 0 0 0 0.00764733)
(0.00802571 0 0 3.45473e-14 -0.0160514 0 0 0 0.00802571)
(0.00843539 0 0 3.64746e-14 -0.0168708 0 0 0 0.00843539)
(0.00887687 0 0 3.75091e-14 -0.0177537 0 0 0 0.00887687)
(0.00935108 0 0 3.8512e-14 -0.0187022 0 0 0 0.00935108)
(0.00986074 -1.47254e-16 0 3.77349e-14 -0.0197215 0 0 0 0.00986074)
(0.0104124 0 0 3.68193e-14 -0.0208248 0 0 0 0.0104124)
(0.0110196 0 0 3.75048e-14 -0.0220392 0 0 0 0.0110196)
(0.0117071 0 0 3.80977e-14 -0.0234143 0 0 0 0.0117071)
(0.0125169 0 0 3.85736e-14 -0.0250338 0 0 0 0.0125169)
(0.0135141 0 0 3.89562e-14 -0.0270282 0 0 0 0.0135141)
(0.0147956 0 0 3.7564e-14 -0.0295912 0 0 0 0.0147956)
(0.0165023 0 0 3.79932e-14 -0.0330046 0 0 0 0.0165023)
(0.0188396 0 0 4.03413e-14 -0.0376792 0 0 0 0.0188396)
(0.022161 0 0 4.11861e-14 -0.044322 0 0 0 0.022161)
(0.0271067 0 0 4.22539e-14 -0.0542134 0 0 0 0.0271067)
(0.0334429 0 0 4.33335e-14 -0.0668859 0 0 0 0.0334429)
(0.0389389 0 0 4.21751e-14 -0.0778778 0 0 0 0.0389389)
(0.039866 0 0 3.9457e-14 -0.0797321 0 0 0 0.039866)
(0.0294351 0 0 3.06613e-14 -0.0588703 0 0 0 0.0294351)
(0.0202648 0 0 2.14308e-14 -0.0405296 0 0 0 0.0202648)
(0.00993473 0 0 8.10235e-15 -0.0198695 0 0 0 0.00993473)
(2.1045e-06 0 0 2.25806e-17 -4.20899e-06 0 0 0 2.1045e-06)
(4.18777e-07 0 0 2.64157e-17 -8.37554e-07 0 0 0 4.18777e-07)
(-1.16147e-06 0 0 8.33984e-18 2.32294e-06 0 0 0 -1.16147e-06)
(4.74244e-07 0 0 7.51425e-18 -9.48487e-07 0 0 0 4.74244e-07)
(2.08654e-07 0 0 1.01891e-17 -4.17309e-07 0 0 0 2.08654e-07)
(7.87212e-08 0 0 1.34984e-17 -1.57442e-07 0 0 0 7.87212e-08)
(3.95974e-08 0 0 1.70257e-17 -7.91949e-08 0 0 0 3.95974e-08)
(1.92049e-08 0 0 2.06963e-17 -3.84098e-08 0 0 0 1.92049e-08)
(9.37407e-09 0 0 2.44672e-17 -1.87481e-08 0 0 0 9.37407e-09)
(5.9052e-09 0 0 2.84445e-17 -1.18104e-08 0 0 0 5.9052e-09)
(2.7629e-09 0 0 -5.89712e-19 -5.5258e-09 0 0 0 2.7629e-09)
(-2.28863e-08 0 0 -2.96661e-17 4.57725e-08 0 0 0 -2.28863e-08)
(5.59809e-09 0 0 -2.58185e-17 -1.11962e-08 0 0 0 5.59809e-09)
(3.92346e-07 0 0 -2.22295e-17 -7.84692e-07 0 0 0 3.92346e-07)
(-8.28153e-07 0 0 -1.8785e-17 1.65631e-06 0 0 0 -8.28153e-07)
(-2.90633e-06 0 0 -1.5225e-17 5.81267e-06 0 0 0 -2.90633e-06)
(1.19333e-05 0 0 -1.14637e-17 -2.38665e-05 0 0 0 1.19333e-05)
(4.91268e-05 0 0 -6.4182e-18 -9.82536e-05 0 0 0 4.91268e-05)
(4.51719e-06 0 0 -1.59599e-18 -9.03438e-06 0 0 0 4.51719e-06)
(-1.57388e-08 0 0 -1.51426e-21 3.14775e-08 0 0 0 -1.57388e-08)
(2.65721e-10 0 0 -3.27323e-23 -5.31442e-10 0 0 0 2.65721e-10)
(3.73683e-17 0 0 -5.89921e-30 -7.47365e-17 0 0 0 3.73683e-17)
(-6.28776e-25 0 0 -2.20065e-36 1.25755e-24 0 0 0 -6.28776e-25)
(-9.01245e-31 0 0 -4.18001e-42 1.80249e-30 0 0 0 -9.01245e-31)
(3.34595e-38 0 0 -6.28986e-48 -6.6919e-38 0 0 0 3.34595e-38)
(1.24241e-43 0 0 -6.36141e-54 -2.48483e-43 0 0 0 1.24241e-43)
(1.88023e-51 0 0 -4.45011e-60 -3.76045e-51 0 0 0 1.88023e-51)
(-3.94545e-57 0 0 -2.35036e-66 7.89089e-57 0 0 0 -3.94545e-57)
(-1.00659e-64 0 0 -9.15115e-73 2.01317e-64 0 0 0 -1.00659e-64)
(3.97646e-71 0 0 -2.83819e-79 -7.95291e-71 0 0 0 3.97646e-71)
(1.13298e-78 0 0 -6.96162e-86 -2.26596e-78 0 0 0 1.13298e-78)
(-1.61714e-85 0 0 -1.46487e-92 3.23428e-85 0 0 0 -1.61714e-85)
(-4.36766e-93 0 0 -2.55267e-99 8.73531e-93 0 0 0 -4.36766e-93)
(4.25515e-100 0 0 -3.8675e-106 -8.5103e-100 0 0 0 4.25515e-100)
(2.38679e-107 0 0 -4.86515e-113 -4.77359e-107 0 0 0 2.38679e-107)
(1.32575e-114 0 0 -5.27509e-120 -2.65149e-114 0 0 0 1.32575e-114)
(1.23327e-121 0 0 -4.67757e-127 -2.46653e-121 0 0 0 1.23327e-121)
(7.62136e-129 0 0 -3.58096e-134 -1.52427e-128 0 0 0 7.62136e-129)
(-2.00949e-136 0 0 -2.3238e-141 4.01897e-136 0 0 0 -2.00949e-136)
(-3.83127e-143 0 0 -1.36902e-148 7.66253e-143 0 0 0 -3.83127e-143)
(-5.25623e-149 0 0 -7.06147e-156 1.05125e-148 0 0 0 -5.25623e-149)
(-1.33926e-153 0 0 -3.33084e-163 2.67852e-153 0 0 0 -1.33926e-153)
(-1.31086e-160 0 0 -1.37998e-170 2.62173e-160 0 0 0 -1.31086e-160)
(-3.62188e-167 0 0 -5.2345e-178 7.24376e-167 0 0 0 -3.62188e-167)
(-1.16807e-171 0 0 -1.74317e-185 2.33615e-171 0 0 0 -1.16807e-171)
)
;

boundaryField
{
    inlet
    {
        type            cyclic;
    }
    outlet
    {
        type            cyclic;
    }
    top
    {
        type            extrapolatedCalculated;
        value           uniform (-2.33392e-171 0 0 -1.74157e-185 4.66784e-171 0 0 0 -2.33392e-171);
    }
    bottom
    {
        type            extrapolatedCalculated;
        value           uniform (0.00209127 0 0 8.00385e-15 -0.00418254 0 0 0 0.00209127);
    }
    frontAndBackPlanes
    {
        type            empty;
    }
}


// ************************************************************************* //
