/*--------------------------------*- C++ -*----------------------------------*\
| =========                 |                                                 |
| \\      /  F ield         | OpenFOAM: The Open Source CFD Toolbox           |
|  \\    /   O peration     | Version:  v2006                                 |
|   \\  /    A nd           | Website:  www.openfoam.com                      |
|    \\/     M anipulation  |                                                 |
\*---------------------------------------------------------------------------*/
FoamFile
{
    version     2.0;
    format      ascii;
    class       volTensorField;
    location    "1120";
    object      Taub;
}
// * * * * * * * * * * * * * * * * * * * * * * * * * * * * * * * * * * * * * //

dimensions      [1 -1 -2 0 0 0 0];


internalField   nonuniform List<tensor> 
120
(
(-1.49801e-07 0 0 3.80842e-19 2.99603e-07 0 0 0 -1.49801e-07)
(-1.51244e-07 0 0 3.82e-19 3.02488e-07 0 0 0 -1.51244e-07)
(-1.53371e-07 0 0 3.77262e-19 3.06743e-07 0 0 0 -1.53371e-07)
(-1.55684e-07 0 0 3.73028e-19 3.11368e-07 0 0 0 -1.55684e-07)
(-1.58046e-07 0 0 3.75677e-19 3.16091e-07 0 0 0 -1.58046e-07)
(-1.60466e-07 0 0 3.81749e-19 3.20932e-07 0 0 0 -1.60466e-07)
(-1.62953e-07 0 0 3.71092e-19 3.25905e-07 0 0 0 -1.62953e-07)
(-1.65511e-07 0 0 3.56262e-19 3.31022e-07 0 0 0 -1.65511e-07)
(-1.68144e-07 0 0 3.78857e-19 3.36289e-07 0 0 0 -1.68144e-07)
(-1.70856e-07 0 0 3.98464e-19 3.41713e-07 0 0 0 -1.70856e-07)
(-1.73651e-07 0 0 3.92491e-19 3.47301e-07 0 0 0 -1.73651e-07)
(-1.76531e-07 0 0 4.152e-19 3.53062e-07 0 0 0 -1.76531e-07)
(-1.79501e-07 0 0 4.38591e-19 3.59003e-07 0 0 0 -1.79501e-07)
(-1.82565e-07 0 0 4.39362e-19 3.6513e-07 0 0 0 -1.82565e-07)
(-1.85726e-07 0 0 4.47421e-19 3.71453e-07 0 0 0 -1.85726e-07)
(-1.88989e-07 0 0 4.56258e-19 3.77978e-07 0 0 0 -1.88989e-07)
(-1.92357e-07 0 0 4.65876e-19 3.84714e-07 0 0 0 -1.92357e-07)
(-1.95834e-07 0 0 4.76303e-19 3.91669e-07 0 0 0 -1.95834e-07)
(-1.99426e-07 0 0 4.87573e-19 3.98852e-07 0 0 0 -1.99426e-07)
(-2.03136e-07 0 0 4.99714e-19 4.06272e-07 0 0 0 -2.03136e-07)
(-2.0697e-07 0 0 5.1276e-19 4.13941e-07 0 0 0 -2.0697e-07)
(-2.10936e-07 0 0 5.26477e-19 4.21871e-07 0 0 0 -2.10936e-07)
(-2.15039e-07 0 0 4.81242e-19 4.30078e-07 0 0 0 -2.15039e-07)
(-2.19289e-07 0 0 5.9795e-19 4.38577e-07 0 0 0 -2.19289e-07)
(-2.23695e-07 0 0 7.15831e-19 4.4739e-07 0 0 0 -2.23695e-07)
(-2.28268e-07 0 0 7.08669e-19 4.56537e-07 0 0 0 -2.28268e-07)
(-2.33022e-07 0 0 6.72314e-19 4.66044e-07 0 0 0 -2.33022e-07)
(-2.3797e-07 0 0 6.37735e-19 4.7594e-07 0 0 0 -2.3797e-07)
(-2.43127e-07 0 0 7.7484e-19 4.86255e-07 0 0 0 -2.43127e-07)
(-2.4851e-07 0 0 7.60707e-19 4.97021e-07 0 0 0 -2.4851e-07)
(-2.54136e-07 0 0 5.39296e-19 5.08272e-07 0 0 0 -2.54136e-07)
(-2.60022e-07 0 0 5.20382e-19 5.20044e-07 0 0 0 -2.60022e-07)
(-2.66186e-07 0 0 6.31314e-19 5.32371e-07 0 0 0 -2.66186e-07)
(-2.72643e-07 0 0 6.59398e-19 5.45286e-07 0 0 0 -2.72643e-07)
(-2.79411e-07 0 0 5.84635e-19 5.58823e-07 0 0 0 -2.79411e-07)
(-2.86506e-07 -3.49178e-21 0 6.52105e-19 5.73011e-07 0 0 0 -2.86506e-07)
(-2.93941e-07 0 0 1.08874e-18 5.87882e-07 0 0 0 -2.93941e-07)
(-3.01732e-07 0 0 9.00991e-19 6.03465e-07 0 0 0 -3.01732e-07)
(-3.09897e-07 0 0 1.07419e-18 6.19793e-07 0 0 0 -3.09897e-07)
(-3.18452e-07 0 0 9.32358e-19 6.36904e-07 0 0 0 -3.18452e-07)
(-3.27423e-07 0 0 8.29553e-19 6.54847e-07 0 0 0 -3.27423e-07)
(-3.36842e-07 0 0 1.10658e-18 6.73684e-07 0 0 0 -3.36842e-07)
(-3.4675e-07 0 0 8.5379e-19 6.935e-07 0 0 0 -3.4675e-07)
(-3.57204e-07 0 0 8.83946e-19 7.14408e-07 0 0 0 -3.57204e-07)
(-3.68279e-07 0 0 1.4184e-18 7.36558e-07 0 0 0 -3.68279e-07)
(-3.80068e-07 0 0 1.26995e-18 7.60136e-07 0 0 0 -3.80068e-07)
(-3.92686e-07 0 0 9.51492e-19 7.85372e-07 0 0 0 -3.92686e-07)
(-4.06268e-07 0 0 7.63874e-19 8.12537e-07 0 0 0 -4.06268e-07)
(-4.20968e-07 0 0 1.0321e-18 8.41936e-07 0 0 0 -4.20968e-07)
(-4.3695e-07 0 0 1.66466e-18 8.739e-07 0 0 0 -4.3695e-07)
(-4.5438e-07 0 0 1.38282e-18 9.08761e-07 0 0 0 -4.5438e-07)
(-4.73419e-07 0 0 1.43488e-18 9.46837e-07 0 0 0 -4.73419e-07)
(-4.94201e-07 0 0 1.48742e-18 9.88402e-07 0 0 0 -4.94201e-07)
(-5.16832e-07 0 0 1.33116e-18 1.03366e-06 0 0 0 -5.16832e-07)
(-5.41373e-07 0 0 1.63365e-18 1.08275e-06 0 0 0 -5.41373e-07)
(-5.67855e-07 0 0 1.93456e-18 1.13571e-06 0 0 0 -5.67855e-07)
(-5.96292e-07 0 0 1.77614e-18 1.19258e-06 0 0 0 -5.96292e-07)
(-6.2674e-07 0 0 2.30994e-18 1.25348e-06 0 0 0 -6.2674e-07)
(-6.5939e-07 6.95675e-21 0 1.7827e-18 1.31878e-06 0 0 0 -6.5939e-07)
(-6.94713e-07 0 0 1.2492e-18 1.38943e-06 0 0 0 -6.94713e-07)
(-7.33673e-07 0 0 1.76862e-18 1.46735e-06 0 0 0 -7.33673e-07)
(-7.78013e-07 0 0 1.79832e-18 1.55603e-06 0 0 0 -7.78013e-07)
(-8.30625e-07 0 0 1.8231e-18 1.66125e-06 0 0 0 -8.30625e-07)
(-8.95989e-07 0 0 2.46288e-18 1.79198e-06 0 0 0 -8.95989e-07)
(-9.80745e-07 0 0 1.11298e-18 1.96149e-06 0 0 0 -9.80745e-07)
(-1.09485e-06 0 0 1.16286e-18 2.18969e-06 0 0 0 -1.09485e-06)
(-1.25321e-06 0 0 2.55531e-18 2.50643e-06 0 0 0 -1.25321e-06)
(-1.47082e-06 0 0 1.94243e-18 2.94164e-06 0 0 0 -1.47082e-06)
(-1.77004e-06 0 0 1.99275e-18 3.54009e-06 0 0 0 -1.77004e-06)
(-2.11621e-06 0 0 2.94086e-18 4.23243e-06 0 0 0 -2.11621e-06)
(-2.39574e-06 0 0 1.98218e-18 4.79148e-06 0 0 0 -2.39574e-06)
(-2.41448e-06 0 0 9.82573e-19 4.82897e-06 0 0 0 -2.41448e-06)
(-1.94387e-06 0 0 1.72007e-18 3.88775e-06 0 0 0 -1.94387e-06)
(-6.8055e-07 0 0 1.47327e-18 1.3611e-06 0 0 0 -6.8055e-07)
(-3.352e-05 0 0 1.21691e-17 6.70399e-05 0 0 0 -3.352e-05)
(4.30488e-05 0 0 1.83087e-15 -8.60977e-05 0 0 0 4.30488e-05)
(-7.77276e-05 0 0 2.19181e-15 0.000155455 0 0 0 -7.77276e-05)
(-0.000133373 0 0 7.05895e-16 0.000266746 0 0 0 -0.000133373)
(2.23713e-05 0 0 6.40218e-16 -4.47425e-05 0 0 0 2.23713e-05)
(9.47332e-06 0 0 8.7077e-16 -1.89466e-05 0 0 0 9.47332e-06)
(2.75669e-06 0 0 1.15529e-15 -5.51339e-06 0 0 0 2.75669e-06)
(1.49187e-06 0 0 1.45821e-15 -2.98374e-06 0 0 0 1.49187e-06)
(7.2495e-07 0 0 1.77319e-15 -1.4499e-06 0 0 0 7.2495e-07)
(3.59056e-07 0 0 2.09661e-15 -7.18111e-07 0 0 0 3.59056e-07)
(2.90507e-07 0 0 2.4245e-15 -5.81014e-07 0 0 0 2.90507e-07)
(1.40644e-07 0 0 -5.05379e-17 -2.81289e-07 0 0 0 1.40644e-07)
(-2.01486e-06 0 0 -2.52932e-15 4.02973e-06 0 0 0 -2.01486e-06)
(3.2881e-07 0 0 -2.21272e-15 -6.5762e-07 0 0 0 3.2881e-07)
(3.43797e-05 0 0 -1.90534e-15 -6.87593e-05 0 0 0 3.43797e-05)
(-7.28519e-05 0 0 -1.60896e-15 0.000145704 0 0 0 -7.28519e-05)
(-0.000243008 0 0 -1.30732e-15 0.000486015 0 0 0 -0.000243008)
(0.00101611 0 0 -9.81207e-16 -0.00203223 0 0 0 0.00101611)
(0.00363978 0 0 -5.49064e-16 -0.00727956 0 0 0 0.00363978)
(-0.00116265 0 0 -1.73334e-16 0.00232529 0 0 0 -0.00116265)
(-0.00167743 0 0 -8.29893e-17 0.00335486 0 0 0 -0.00167743)
(0.000290574 0 0 -9.95193e-17 -0.000581149 0 0 0 0.000290574)
(0.000215068 0 0 -9.31823e-17 -0.000430135 0 0 0 0.000215068)
(-1.38693e-05 0 0 -8.74834e-17 2.77386e-05 0 0 0 -1.38693e-05)
(-1.75556e-05 0 0 -8.23981e-17 3.51112e-05 0 0 0 -1.75556e-05)
(3.57934e-07 0 0 -7.78737e-17 -7.15867e-07 0 0 0 3.57934e-07)
(1.4004e-06 0 0 -7.38532e-17 -2.80079e-06 0 0 0 1.4004e-06)
(3.05003e-08 0 0 -7.02796e-17 -6.10007e-08 0 0 0 3.05003e-08)
(-1.09238e-07 0 0 -6.70993e-17 2.18476e-07 0 0 0 -1.09238e-07)
(-6.9908e-09 0 0 -6.42634e-17 1.39816e-08 0 0 0 -6.9908e-09)
(8.38238e-09 0 0 -6.17288e-17 -1.67648e-08 0 0 0 8.38238e-09)
(9.49898e-10 0 0 -5.94584e-17 -1.8998e-09 0 0 0 9.49898e-10)
(-6.13055e-10 0 0 -5.74212e-17 1.22611e-09 0 0 0 -6.13055e-10)
(-9.27134e-11 0 0 -5.55913e-17 1.85427e-10 0 0 0 -9.27134e-11)
(5.78075e-11 0 0 -5.39482e-17 -1.15615e-10 0 0 0 5.78075e-11)
(2.54595e-11 0 0 -5.24753e-17 -5.0919e-11 0 0 0 2.54595e-11)
(1.29205e-11 0 0 -5.11599e-17 -2.5841e-11 0 0 0 1.29205e-11)
(1.31732e-11 0 0 -4.99923e-17 -2.63464e-11 0 0 0 1.31732e-11)
(1.04616e-11 0 0 -4.89653e-17 -2.09231e-11 0 0 0 1.04616e-11)
(7.2005e-12 0 0 -4.80737e-17 -1.4401e-11 0 0 0 7.2005e-12)
(6.10627e-12 0 0 -4.73138e-17 -1.22125e-11 0 0 0 6.10627e-12)
(6.88513e-12 0 0 -4.6683e-17 -1.37703e-11 0 0 0 6.88513e-12)
(7.05824e-12 0 0 -4.61798e-17 -1.41165e-11 0 0 0 7.05824e-12)
(-3.87097e-13 0 0 -4.58031e-17 7.74194e-13 0 0 0 -3.87097e-13)
(-2.94466e-12 0 0 -4.55522e-17 5.88932e-12 0 0 0 -2.94466e-12)
(1.16113e-10 0 0 -4.54177e-17 -2.32225e-10 0 0 0 1.16113e-10)
)
;

boundaryField
{
    inlet
    {
        type            cyclic;
    }
    outlet
    {
        type            cyclic;
    }
    top
    {
        type            extrapolatedCalculated;
        value           uniform (2.30736e-10 0 0 -4.53773e-17 -4.61471e-10 0 0 0 2.30736e-10);
    }
    bottom
    {
        type            extrapolatedCalculated;
        value           uniform (-1.49335e-07 0 0 3.8068e-19 2.98671e-07 0 0 0 -1.49335e-07);
    }
    frontAndBackPlanes
    {
        type            empty;
    }
}


// ************************************************************************* //
