/*--------------------------------*- C++ -*----------------------------------*\
| =========                 |                                                 |
| \\      /  F ield         | OpenFOAM: The Open Source CFD Toolbox           |
|  \\    /   O peration     | Version:  v2006                                 |
|   \\  /    A nd           | Website:  www.openfoam.com                      |
|    \\/     M anipulation  |                                                 |
\*---------------------------------------------------------------------------*/
FoamFile
{
    version     2.0;
    format      ascii;
    class       volVectorField;
    location    "1120";
    object      Ua;
}
// * * * * * * * * * * * * * * * * * * * * * * * * * * * * * * * * * * * * * //

dimensions      [0 1 -1 0 0 0 0];


internalField   nonuniform List<vector> 
120
(
(1.90568e-21 -1.49376e-09 0)
(5.72022e-21 -4.50685e-09 0)
(9.54219e-21 -7.57103e-09 0)
(1.32754e-20 -1.0684e-08 0)
(1.70262e-20 -1.38453e-08 0)
(2.07996e-20 -1.70565e-08 0)
(2.4601e-20 -2.03191e-08 0)
(2.82336e-20 -2.36346e-08 0)
(3.19052e-20 -2.70046e-08 0)
(3.5824e-20 -3.04307e-08 0)
(3.97938e-20 -3.39147e-08 0)
(4.38208e-20 -3.74584e-08 0)
(4.81137e-20 -4.10636e-08 0)
(5.24773e-20 -4.47324e-08 0)
(5.69186e-20 -4.84667e-08 0)
(6.14449e-20 -5.22688e-08 0)
(6.6064e-20 -5.61409e-08 0)
(7.07839e-20 -6.00853e-08 0)
(7.56128e-20 -6.41045e-08 0)
(8.05593e-20 -6.82008e-08 0)
(8.56324e-20 -7.23771e-08 0)
(9.08414e-20 -7.66359e-08 0)
(9.61958e-20 -8.09804e-08 0)
(1.01706e-19 -8.54134e-08 0)
(1.08189e-19 -8.99384e-08 0)
(1.14849e-19 -9.45588e-08 0)
(1.21696e-19 -9.92784e-08 0)
(1.28338e-19 -1.04101e-07 0)
(1.3519e-19 -1.09032e-07 0)
(1.42264e-19 -1.14075e-07 0)
(1.48765e-19 -1.19235e-07 0)
(1.54706e-19 -1.24518e-07 0)
(1.60909e-19 -1.2993e-07 0)
(1.67387e-19 -1.35477e-07 0)
(1.74157e-19 -1.41166e-07 0)
(1.81219e-19 -1.47003e-07 0)
(1.8941e-19 -1.52997e-07 0)
(1.98759e-19 -1.59154e-07 0)
(2.07652e-19 -1.65483e-07 0)
(2.17724e-19 -1.71992e-07 0)
(2.26569e-19 -1.7869e-07 0)
(2.36626e-19 -1.85587e-07 0)
(2.463e-19 -1.92693e-07 0)
(2.56415e-19 -2.00019e-07 0)
(2.66988e-19 -2.07578e-07 0)
(2.78844e-19 -2.15384e-07 0)
(2.89575e-19 -2.23455e-07 0)
(3.00811e-19 -2.3181e-07 0)
(3.11757e-19 -2.40472e-07 0)
(3.24848e-19 -2.49467e-07 0)
(3.38476e-19 -2.58825e-07 0)
(3.52646e-19 -2.6858e-07 0)
(3.67358e-19 -2.7877e-07 0)
(3.8261e-19 -2.89436e-07 0)
(3.98395e-19 -3.0062e-07 0)
(4.15512e-19 -3.12367e-07 0)
(4.33133e-19 -3.24721e-07 0)
(4.51235e-19 -3.37729e-07 0)
(4.69811e-19 -3.51438e-07 0)
(4.87173e-19 -3.65903e-07 0)
(5.04877e-19 -3.81188e-07 0)
(5.22892e-19 -3.97387e-07 0)
(5.41161e-19 -4.14637e-07 0)
(5.59629e-19 -4.3315e-07 0)
(5.78262e-19 -4.53249e-07 0)
(5.95404e-19 -4.75423e-07 0)
(6.14446e-19 -5.00398e-07 0)
(6.33824e-19 -5.2925e-07 0)
(6.53671e-19 -5.63715e-07 0)
(6.74066e-19 -6.06698e-07 0)
(6.94941e-19 -6.59267e-07 0)
(7.14233e-19 -7.17952e-07 0)
(7.33148e-19 -7.75078e-07 0)
(7.49221e-19 -8.18718e-07 0)
(7.61913e-19 -8.56678e-07 0)
(7.82707e-19 -9.41897e-07 0)
(3.85588e-17 -1.14246e-05 0)
(4.79932e-17 -3.18722e-06 0)
(5.39989e-17 -4.97371e-06 0)
(6.21164e-17 -5.86129e-06 0)
(7.32831e-17 -6.15844e-06 0)
(8.7749e-17 -6.30975e-06 0)
(1.05665e-16 -6.38437e-06 0)
(1.27142e-16 -6.41941e-06 0)
(1.52253e-16 -6.43792e-06 0)
(1.81314e-16 -6.45315e-06 0)
(1.5113e-16 -6.45371e-06 0)
(1.24809e-16 -6.32238e-06 0)
(1.01953e-16 -6.4857e-06 0)
(8.24576e-17 -8.56487e-06 0)
(6.62215e-17 -1.75992e-06 0)
(5.33336e-17 8.11376e-06 0)
(4.44496e-17 -6.97511e-05 0)
(4.1158e-17 -0.000271473 0)
(3.9585e-17 -0.000111056 0)
(3.70171e-17 -0.000142355 0)
(3.46094e-17 -0.000232233 0)
(3.23518e-17 -0.00023101 0)
(3.02319e-17 -0.00022848 0)
(2.82316e-17 -0.000228345 0)
(2.63377e-17 -0.000228543 0)
(2.45385e-17 -0.000228562 0)
(2.28233e-17 -0.000228547 0)
(2.11832e-17 -0.000228545 0)
(1.96097e-17 -0.000228546 0)
(1.80964e-17 -0.000228546 0)
(1.66365e-17 -0.000228546 0)
(1.5225e-17 -0.000228546 0)
(1.38566e-17 -0.000228546 0)
(1.25272e-17 -0.000228546 0)
(1.12325e-17 -0.000228546 0)
(9.96887e-18 -0.000228546 0)
(8.73254e-18 -0.000228546 0)
(7.52037e-18 -0.000228546 0)
(6.32863e-18 -0.000228546 0)
(5.15432e-18 -0.000228546 0)
(3.99419e-18 -0.000228546 0)
(2.84505e-18 -0.000228518 0)
(1.70375e-18 -0.000228481 0)
(5.67223e-19 -0.000228045 0)
)
;

boundaryField
{
    inlet
    {
        type            cyclic;
    }
    outlet
    {
        type            cyclic;
    }
    top
    {
        type            fixedValue;
        value           uniform (0 0 0);
    }
    bottom
    {
        type            fixedValue;
        value           uniform (0 0 0);
    }
    frontAndBackPlanes
    {
        type            empty;
    }
}


// ************************************************************************* //
