/*--------------------------------*- C++ -*----------------------------------*\
| =========                 |                                                 |
| \\      /  F ield         | OpenFOAM: The Open Source CFD Toolbox           |
|  \\    /   O peration     | Version:  v2006                                 |
|   \\  /    A nd           | Website:  www.openfoam.com                      |
|    \\/     M anipulation  |                                                 |
\*---------------------------------------------------------------------------*/
FoamFile
{
    version     2.0;
    format      ascii;
    class       volVectorField;
    location    "1120";
    object      Ub;
}
// * * * * * * * * * * * * * * * * * * * * * * * * * * * * * * * * * * * * * //

dimensions      [0 1 -1 0 0 0 0];


internalField   nonuniform List<vector> 
120
(
(1.90568e-21 2.24271e-09 0)
(5.72027e-21 6.75612e-09 0)
(9.55529e-21 1.13288e-08 0)
(1.32755e-20 1.59706e-08 0)
(1.70262e-20 2.06827e-08 0)
(2.07999e-20 2.5467e-08 0)
(2.46727e-20 3.03253e-08 0)
(2.82335e-20 3.52596e-08 0)
(3.18097e-20 4.02723e-08 0)
(3.58236e-20 4.53656e-08 0)
(3.97932e-20 5.0542e-08 0)
(4.3688e-20 5.58039e-08 0)
(4.81132e-20 6.11542e-08 0)
(5.24773e-20 6.65955e-08 0)
(5.69186e-20 7.21308e-08 0)
(6.14449e-20 7.7763e-08 0)
(6.6064e-20 8.34954e-08 0)
(7.07839e-20 8.9331e-08 0)
(7.56127e-20 9.52734e-08 0)
(8.05593e-20 1.01326e-07 0)
(8.56324e-20 1.07492e-07 0)
(9.08414e-20 1.13777e-07 0)
(9.61905e-20 1.20183e-07 0)
(1.00493e-19 1.26715e-07 0)
(1.08184e-19 1.33378e-07 0)
(1.14852e-19 1.40177e-07 0)
(1.22401e-19 1.47116e-07 0)
(1.28341e-19 1.54202e-07 0)
(1.35197e-19 1.61441e-07 0)
(1.4389e-19 1.68839e-07 0)
(1.50463e-19 1.76403e-07 0)
(1.54714e-19 1.84141e-07 0)
(1.60909e-19 1.92061e-07 0)
(1.67387e-19 2.00172e-07 0)
(1.74148e-19 2.08483e-07 0)
(1.79126e-19 2.17003e-07 0)
(1.87243e-19 2.25743e-07 0)
(2.00993e-19 2.34714e-07 0)
(2.05341e-19 2.43925e-07 0)
(2.22572e-19 2.5339e-07 0)
(2.24073e-19 2.6312e-07 0)
(2.39241e-19 2.73128e-07 0)
(2.46312e-19 2.83428e-07 0)
(2.56402e-19 2.94036e-07 0)
(2.64081e-19 3.0497e-07 0)
(2.84919e-19 3.16249e-07 0)
(2.89617e-19 3.27897e-07 0)
(3.04054e-19 3.39941e-07 0)
(3.04982e-19 3.52412e-07 0)
(3.24817e-19 3.65347e-07 0)
(3.38476e-19 3.78788e-07 0)
(3.52646e-19 3.9278e-07 0)
(3.67358e-19 4.07375e-07 0)
(3.82591e-19 4.22628e-07 0)
(3.94162e-19 4.38596e-07 0)
(4.15493e-19 4.55338e-07 0)
(4.33133e-19 4.72913e-07 0)
(4.51281e-19 4.91382e-07 0)
(4.79688e-19 5.10807e-07 0)
(4.87218e-19 5.3126e-07 0)
(5.04877e-19 5.52833e-07 0)
(5.22892e-19 5.75655e-07 0)
(5.41161e-19 5.99925e-07 0)
(5.59688e-19 6.25949e-07 0)
(5.90886e-19 6.54195e-07 0)
(5.82167e-19 6.85375e-07 0)
(6.14383e-19 7.20563e-07 0)
(6.33824e-19 7.61378e-07 0)
(6.53671e-19 8.09809e-07 0)
(6.74153e-19 8.68845e-07 0)
(7.1323e-19 9.38384e-07 0)
(7.1433e-19 1.01452e-06 0)
(7.33164e-19 1.08533e-06 0)
(7.4926e-19 1.13295e-06 0)
(7.63119e-19 1.12684e-06 0)
(9.97231e-19 3.18206e-06 0)
(3.85579e-17 -1.53913e-06 0)
(4.7993e-17 8.18185e-06 0)
(5.3999e-17 7.21327e-06 0)
(6.21165e-17 6.70129e-06 0)
(7.32832e-17 6.58388e-06 0)
(8.77491e-17 6.5178e-06 0)
(1.05665e-16 6.48449e-06 0)
(1.27143e-16 6.46948e-06 0)
(1.52254e-16 6.46055e-06 0)
(1.81022e-16 6.45011e-06 0)
(1.5113e-16 6.45118e-06 0)
(1.24809e-16 6.58445e-06 0)
(1.01953e-16 6.42925e-06 0)
(8.24577e-17 4.29189e-06 0)
(6.62217e-17 1.12829e-05 0)
(5.33337e-17 2.05328e-05 0)
(4.44497e-17 -5.63566e-05 0)
(4.11583e-17 -0.000221602 0)
(3.95834e-17 4.15676e-05 0)
(3.70119e-17 2.98254e-05 0)
(3.46069e-17 -2.02329e-06 0)
(3.23522e-17 -2.43878e-06 0)
(3.02321e-17 5.73689e-08 0)
(2.82318e-17 1.94886e-07 0)
(2.6338e-17 3.67208e-09 0)
(2.45387e-17 -1.51998e-08 0)
(2.28235e-17 -9.03541e-10 0)
(2.11833e-17 1.18791e-09 0)
(1.961e-17 1.4521e-10 0)
(1.80965e-17 -6.9603e-11 0)
(1.66367e-17 2.70734e-12 0)
(1.52251e-17 2.23668e-11 0)
(1.38568e-17 1.66161e-11 0)
(1.25273e-17 1.36946e-11 0)
(1.12327e-17 1.27967e-11 0)
(9.96901e-18 1.17563e-11 0)
(8.73275e-18 1.08205e-11 0)
(7.52044e-18 1.01868e-11 0)
(6.32877e-18 9.74025e-12 0)
(5.15446e-18 9.27078e-12 0)
(3.99432e-18 8.70735e-12 0)
(2.84518e-18 8.21191e-12 0)
(1.70388e-18 8.76542e-12 0)
(5.67287e-19 8.65367e-12 0)
)
;

boundaryField
{
    inlet
    {
        type            cyclic;
    }
    outlet
    {
        type            cyclic;
    }
    top
    {
        type            fixedValue;
        value           uniform (0 0 0);
    }
    bottom
    {
        type            fixedValue;
        value           uniform (0 0 0);
    }
    frontAndBackPlanes
    {
        type            empty;
    }
}


// ************************************************************************* //
