/*--------------------------------*- C++ -*----------------------------------*\
| =========                 |                                                 |
| \\      /  F ield         | OpenFOAM: The Open Source CFD Toolbox           |
|  \\    /   O peration     | Version:  v2006                                 |
|   \\  /    A nd           | Website:  www.openfoam.com                      |
|    \\/     M anipulation  |                                                 |
\*---------------------------------------------------------------------------*/
FoamFile
{
    version     2.0;
    format      ascii;
    class       volScalarField;
    location    "1740";
    object      p;
}
// * * * * * * * * * * * * * * * * * * * * * * * * * * * * * * * * * * * * * //

dimensions      [1 -1 -2 0 0 0 0];


internalField   nonuniform List<scalar> 
120
(
-2.299
-6.95875
-11.6185
-16.2783
-20.938
-25.5978
-30.2576
-34.9174
-39.5772
-44.237
-48.8968
-53.5566
-58.2164
-62.8762
-67.536
-72.1959
-76.8557
-81.5156
-86.1754
-90.8353
-95.4951
-100.155
-104.815
-109.475
-114.135
-118.795
-123.454
-128.114
-132.774
-137.434
-142.094
-146.754
-151.414
-156.074
-160.734
-165.394
-170.054
-174.714
-179.374
-184.034
-188.694
-193.354
-198.014
-202.674
-207.334
-211.994
-216.654
-221.314
-225.974
-230.634
-235.294
-239.954
-244.614
-249.274
-253.934
-258.594
-263.255
-267.915
-272.575
-277.235
-281.895
-286.555
-291.215
-295.876
-300.536
-305.196
-309.856
-314.516
-319.177
-323.837
-328.497
-333.157
-337.818
-342.478
-347.138
-351.799
-356.459
-361.119
-365.78
-370.44
-375.1
-379.761
-384.421
-389.081
-393.742
-398.402
-403.063
-407.723
-412.383
-417.044
-421.703
-426.367
-431.027
-435.687
-440.346
-445.006
-449.666
-454.326
-458.985
-463.645
-468.305
-472.965
-477.624
-482.284
-486.944
-491.604
-496.263
-500.923
-505.583
-510.243
-514.902
-519.562
-524.222
-528.882
-533.541
-538.201
-542.861
-547.521
-552.18
-556.84
)
;

boundaryField
{
    inlet
    {
        type            cyclic;
    }
    outlet
    {
        type            cyclic;
    }
    top
    {
        type            calculated;
        value           uniform -559.17;
    }
    bottom
    {
        type            calculated;
        value           uniform 0.0308729;
    }
    frontAndBackPlanes
    {
        type            empty;
    }
}


// ************************************************************************* //
