/*--------------------------------*- C++ -*----------------------------------*\
| =========                 |                                                 |
| \\      /  F ield         | OpenFOAM: The Open Source CFD Toolbox           |
|  \\    /   O peration     | Version:  v2006                                 |
|   \\  /    A nd           | Website:  www.openfoam.com                      |
|    \\/     M anipulation  |                                                 |
\*---------------------------------------------------------------------------*/
FoamFile
{
    version     2.0;
    format      ascii;
    class       volScalarField;
    location    "1740";
    object      pff;
}
// * * * * * * * * * * * * * * * * * * * * * * * * * * * * * * * * * * * * * //

dimensions      [1 -1 -2 0 0 0 0];


internalField   nonuniform List<scalar> 
120
(
26.2496
25.9553
25.661
25.3667
25.0725
24.7783
24.4841
24.1899
23.8958
23.6017
23.3076
23.0136
22.7196
22.4256
22.1316
21.8377
21.5438
21.25
20.9562
20.6624
20.3686
20.0749
19.7812
19.4876
19.1939
18.9004
18.6068
18.3133
18.0199
17.7264
17.433
17.1397
16.8464
16.5531
16.2599
15.9667
15.6736
15.3805
15.0874
14.7944
14.5015
14.2086
13.9157
13.6229
13.3301
13.0374
12.7447
12.4521
12.1595
11.867
11.5746
11.2822
10.9899
10.6976
10.4054
10.1132
9.82116
9.52914
9.2372
8.94532
8.65352
8.36179
8.07014
7.77858
7.48709
7.19569
6.90438
6.61316
6.32204
6.03101
5.74009
5.44928
5.15857
4.86799
4.57753
4.2872
3.99701
3.70698
3.4171
3.12739
2.83787
2.54855
2.25945
1.97058
1.68196
1.39365
1.10591
0.818426
0.526406
0.228278
0
0
0
0
0
0
0
0
0
0
0
0
0
0
0
0
0
0
0
0
0
0
0
0
0
0
0
0
0
0
)
;

boundaryField
{
    inlet
    {
        type            cyclic;
    }
    outlet
    {
        type            cyclic;
    }
    top
    {
        type            calculated;
        value           uniform 0;
    }
    bottom
    {
        type            calculated;
        value           uniform 26.2496;
    }
    frontAndBackPlanes
    {
        type            empty;
    }
}


// ************************************************************************* //
