/*--------------------------------*- C++ -*----------------------------------*\
| =========                 |                                                 |
| \\      /  F ield         | OpenFOAM: The Open Source CFD Toolbox           |
|  \\    /   O peration     | Version:  v2006                                 |
|   \\  /    A nd           | Website:  www.openfoam.com                      |
|    \\/     M anipulation  |                                                 |
\*---------------------------------------------------------------------------*/
FoamFile
{
    version     2.0;
    format      ascii;
    class       surfaceScalarField;
    location    "1740";
    object      phia;
}
// * * * * * * * * * * * * * * * * * * * * * * * * * * * * * * * * * * * * * //

dimensions      [0 3 -1 0 0 0 0];
oriented        oriented;


internalField   nonuniform List<scalar> 
119
(
-1.24594e-17
-2.5062e-17
-3.78083e-17
-5.07006e-17
-6.37406e-17
-7.69299e-17
-9.02701e-17
-1.03763e-16
-1.1741e-16
-1.31214e-16
-1.45175e-16
-1.59296e-16
-1.73578e-16
-1.88025e-16
-2.02636e-16
-2.17415e-16
-2.32362e-16
-2.47481e-16
-2.62773e-16
-2.78239e-16
-2.93882e-16
-3.09704e-16
-3.25706e-16
-3.41891e-16
-3.5826e-16
-3.74816e-16
-3.91561e-16
-4.08497e-16
-4.25626e-16
-4.4295e-16
-4.60474e-16
-4.78197e-16
-4.96125e-16
-5.14259e-16
-5.32602e-16
-5.51157e-16
-5.69928e-16
-5.88915e-16
-6.08123e-16
-6.27554e-16
-6.4721e-16
-6.67093e-16
-6.87207e-16
-7.07552e-16
-7.28132e-16
-7.48949e-16
-7.70009e-16
-7.91316e-16
-8.12876e-16
-8.347e-16
-8.56797e-16
-8.79183e-16
-9.01875e-16
-9.24894e-16
-9.48266e-16
-9.72018e-16
-9.96182e-16
-1.02079e-15
-1.04588e-15
-1.07147e-15
-1.09761e-15
-1.12431e-15
-1.15159e-15
-1.17947e-15
-1.20794e-15
-1.23699e-15
-1.2666e-15
-1.29677e-15
-1.32747e-15
-1.35869e-15
-1.39044e-15
-1.42278e-15
-1.45577e-15
-1.48956e-15
-1.5243e-15
-1.5602e-15
-1.59747e-15
-1.63627e-15
-1.67668e-15
-1.71862e-15
-1.76172e-15
-1.80524e-15
-1.84798e-15
-1.88801e-15
-1.92318e-15
-1.94925e-15
-1.96517e-15
-1.92217e-15
-2.01804e-15
-4.49929e-15
-1.25793e-11
-6.91283e-11
-6.44514e-11
-8.21104e-11
-8.22694e-11
-8.22746e-11
-8.22766e-11
-8.22766e-11
-8.22766e-11
-8.22766e-11
-8.22766e-11
-8.22766e-11
-8.22766e-11
-8.22766e-11
-8.22766e-11
-8.22766e-11
-8.22766e-11
-8.22766e-11
-8.22766e-11
-8.22766e-11
-8.22766e-11
-8.22766e-11
-8.22766e-11
-8.22766e-11
-8.22766e-11
-8.22766e-11
-8.22766e-11
-8.22565e-11
-8.21697e-11
)
;

boundaryField
{
    inlet
    {
        type            cyclic;
        value           nonuniform List<scalar> 
120
(
-1.24922e-27
-3.74941e-27
-6.25376e-27
-8.73468e-27
-1.12253e-26
-1.37285e-26
-1.62469e-26
-1.87226e-26
-2.12189e-26
-2.37995e-26
-2.64061e-26
-2.90414e-26
-3.17688e-26
-3.453e-26
-3.73277e-26
-4.01643e-26
-4.30422e-26
-4.59638e-26
-4.89314e-26
-5.19472e-26
-5.50134e-26
-5.81319e-26
-6.13049e-26
-6.45342e-26
-6.80641e-26
-7.16538e-26
-7.53046e-26
-7.88968e-26
-8.25528e-26
-8.62737e-26
-8.98181e-26
-9.31866e-26
-9.66224e-26
-1.00126e-25
-1.03697e-25
-1.07336e-25
-1.11285e-25
-1.15544e-25
-1.19627e-25
-1.24018e-25
-1.27989e-25
-1.32266e-25
-1.36362e-25
-1.40517e-25
-1.4473e-25
-1.4924e-25
-1.53319e-25
-1.57447e-25
-1.61379e-25
-1.65838e-25
-1.70336e-25
-1.74869e-25
-1.79433e-25
-1.84023e-25
-1.88635e-25
-1.93505e-25
-1.98387e-25
-2.03275e-25
-2.08163e-25
-2.12564e-25
-2.16954e-25
-2.21326e-25
-2.25676e-25
-2.29996e-25
-2.3428e-25
-2.38041e-25
-2.42235e-25
-2.46375e-25
-2.50453e-25
-2.54464e-25
-2.58401e-25
-2.61777e-25
-2.65067e-25
-2.68265e-25
-2.71366e-25
-2.74363e-25
-2.77251e-25
-2.80025e-25
-2.82681e-25
-2.85213e-25
-2.87618e-25
-2.8989e-25
-2.92028e-25
-2.94026e-25
-2.95882e-25
-2.97594e-25
-2.98206e-25
-2.98669e-25
-2.98981e-25
-2.99143e-25
-2.99205e-25
-2.95763e-25
-2.88576e-25
-2.81177e-25
-2.73634e-25
-2.65926e-25
-2.58024e-25
-2.49909e-25
-2.41563e-25
-2.32969e-25
-2.24114e-25
-2.14985e-25
-2.05574e-25
-1.95872e-25
-1.85878e-25
-1.75588e-25
-1.65006e-25
-1.54135e-25
-1.42985e-25
-1.31563e-25
-1.19884e-25
-1.07964e-25
-9.5822e-26
-8.34755e-26
-7.09496e-26
-5.8268e-26
-4.54568e-26
-3.25433e-26
-1.9556e-26
-6.52486e-27
)
;
    }
    outlet
    {
        type            cyclic;
        value           nonuniform List<scalar> 
120
(
1.24922e-27
3.74941e-27
6.25376e-27
8.73468e-27
1.12253e-26
1.37285e-26
1.62469e-26
1.87226e-26
2.12189e-26
2.37995e-26
2.64061e-26
2.90414e-26
3.17688e-26
3.453e-26
3.73277e-26
4.01643e-26
4.30422e-26
4.59638e-26
4.89314e-26
5.19472e-26
5.50134e-26
5.81319e-26
6.13049e-26
6.45342e-26
6.80641e-26
7.16538e-26
7.53046e-26
7.88968e-26
8.25528e-26
8.62737e-26
8.98181e-26
9.31866e-26
9.66224e-26
1.00126e-25
1.03697e-25
1.07336e-25
1.11285e-25
1.15544e-25
1.19627e-25
1.24018e-25
1.27989e-25
1.32266e-25
1.36362e-25
1.40517e-25
1.4473e-25
1.4924e-25
1.53319e-25
1.57447e-25
1.61379e-25
1.65838e-25
1.70336e-25
1.74869e-25
1.79433e-25
1.84023e-25
1.88635e-25
1.93505e-25
1.98387e-25
2.03275e-25
2.08163e-25
2.12564e-25
2.16954e-25
2.21326e-25
2.25676e-25
2.29996e-25
2.3428e-25
2.38041e-25
2.42235e-25
2.46375e-25
2.50453e-25
2.54464e-25
2.58401e-25
2.61777e-25
2.65067e-25
2.68265e-25
2.71366e-25
2.74363e-25
2.77251e-25
2.80025e-25
2.82681e-25
2.85213e-25
2.87618e-25
2.8989e-25
2.92028e-25
2.94026e-25
2.95882e-25
2.97594e-25
2.98206e-25
2.98669e-25
2.98981e-25
2.99143e-25
2.99205e-25
2.95763e-25
2.88576e-25
2.81177e-25
2.73634e-25
2.65926e-25
2.58024e-25
2.49909e-25
2.41563e-25
2.32969e-25
2.24114e-25
2.14985e-25
2.05574e-25
1.95872e-25
1.85878e-25
1.75588e-25
1.65006e-25
1.54135e-25
1.42985e-25
1.31563e-25
1.19884e-25
1.07964e-25
9.5822e-26
8.34755e-26
7.09496e-26
5.8268e-26
4.54568e-26
3.25433e-26
1.9556e-26
6.52486e-27
)
;
    }
    top
    {
        type            fixedValue;
        value           uniform 0;
    }
    bottom
    {
        type            fixedValue;
        value           uniform 0;
    }
    frontAndBackPlanes
    {
        type            empty;
        value           nonuniform List<scalar> 0();
    }
}


// ************************************************************************* //
