/*--------------------------------*- C++ -*----------------------------------*\
| =========                 |                                                 |
| \\      /  F ield         | OpenFOAM: The Open Source CFD Toolbox           |
|  \\    /   O peration     | Version:  v2006                                 |
|   \\  /    A nd           | Website:  www.openfoam.com                      |
|    \\/     M anipulation  |                                                 |
\*---------------------------------------------------------------------------*/
FoamFile
{
    version     2.0;
    format      ascii;
    class       surfaceScalarField;
    location    "1740";
    object      phib;
}
// * * * * * * * * * * * * * * * * * * * * * * * * * * * * * * * * * * * * * //

dimensions      [0 3 -1 0 0 0 0];
oriented        oriented;


internalField   nonuniform List<scalar> 
119
(
1.8694e-17
3.75956e-17
5.67052e-17
7.60262e-17
9.55605e-17
1.1531e-16
1.35278e-16
1.55466e-16
1.75876e-16
1.96511e-16
2.17373e-16
2.38465e-16
2.59788e-16
2.81345e-16
3.0314e-16
3.25173e-16
3.47448e-16
3.69967e-16
3.92732e-16
4.15746e-16
4.39011e-16
4.6253e-16
4.86305e-16
5.10338e-16
5.34632e-16
5.59189e-16
5.84012e-16
6.09104e-16
6.34467e-16
6.60105e-16
6.8602e-16
7.12216e-16
7.38696e-16
7.65463e-16
7.92521e-16
8.19873e-16
8.47522e-16
8.75471e-16
9.03724e-16
9.32283e-16
9.6115e-16
9.90328e-16
1.01982e-15
1.04962e-15
1.07975e-15
1.11019e-15
1.14096e-15
1.17206e-15
1.2035e-15
1.23528e-15
1.26744e-15
1.29998e-15
1.33292e-15
1.36631e-15
1.40016e-15
1.43452e-15
1.46944e-15
1.50495e-15
1.54111e-15
1.57794e-15
1.61551e-15
1.65383e-15
1.69292e-15
1.7328e-15
1.77345e-15
1.81486e-15
1.85699e-15
1.8998e-15
1.94327e-15
1.98736e-15
2.03208e-15
2.07748e-15
2.12366e-15
2.17079e-15
2.21908e-15
2.26879e-15
2.3202e-15
2.37351e-15
2.42876e-15
2.48575e-15
2.54388e-15
2.60198e-15
2.65815e-15
2.70945e-15
2.75253e-15
2.78095e-15
2.79261e-15
2.71704e-15
2.82839e-15
4.22615e-15
3.0709e-12
2.09967e-13
5.82553e-16
-1.77456e-20
-2.30496e-20
-3.02089e-20
-3.64177e-20
-4.43588e-20
-4.92367e-20
-5.5438e-20
-5.80872e-20
-6.26363e-20
-6.34875e-20
-6.81863e-20
-7.07344e-20
-7.71251e-20
-7.87279e-20
-8.26511e-20
-8.14901e-20
-8.28279e-20
-7.92781e-20
-8.0198e-20
-7.87697e-20
-8.18596e-20
-8.03245e-20
-8.13931e-20
-7.7806e-20
-7.6851e-20
-7.10755e-20
)
;

boundaryField
{
    inlet
    {
        type            cyclic;
        value           nonuniform List<scalar> 
120
(
-1.24922e-27
-3.74941e-27
-6.25367e-27
-8.73468e-27
-1.12253e-26
-1.37285e-26
-1.62469e-26
-1.87226e-26
-2.12189e-26
-2.37995e-26
-2.64061e-26
-2.90412e-26
-3.17688e-26
-3.453e-26
-3.73277e-26
-4.01643e-26
-4.30422e-26
-4.59638e-26
-4.89314e-26
-5.19472e-26
-5.50134e-26
-5.81319e-26
-6.13049e-26
-6.45313e-26
-6.80641e-26
-7.16538e-26
-7.53064e-26
-7.88968e-26
-8.25528e-26
-8.62779e-26
-8.98224e-26
-9.31866e-26
-9.66224e-26
-1.00126e-25
-1.03697e-25
-1.07331e-25
-1.1128e-25
-1.1555e-25
-1.19621e-25
-1.24031e-25
-1.27983e-25
-1.32272e-25
-1.36362e-25
-1.40517e-25
-1.44723e-25
-1.49256e-25
-1.53319e-25
-1.57455e-25
-1.61362e-25
-1.65838e-25
-1.70336e-25
-1.74869e-25
-1.79433e-25
-1.84023e-25
-1.88625e-25
-1.93505e-25
-1.98387e-25
-2.03275e-25
-2.08186e-25
-2.12564e-25
-2.16953e-25
-2.21326e-25
-2.25676e-25
-2.29996e-25
-2.34306e-25
-2.38014e-25
-2.42235e-25
-2.46375e-25
-2.50453e-25
-2.54464e-25
-2.58432e-25
-2.61777e-25
-2.65067e-25
-2.68265e-25
-2.71366e-25
-2.74363e-25
-2.77251e-25
-2.80025e-25
-2.82681e-25
-2.85213e-25
-2.87618e-25
-2.8989e-25
-2.92028e-25
-2.94026e-25
-2.95883e-25
-2.9768e-25
-2.98206e-25
-2.98669e-25
-2.98981e-25
-2.99143e-25
-2.99142e-25
-2.95759e-25
-2.88557e-25
-2.81172e-25
-2.73635e-25
-2.65927e-25
-2.58025e-25
-2.4991e-25
-2.41564e-25
-2.3297e-25
-2.24115e-25
-2.14986e-25
-2.05574e-25
-1.95873e-25
-1.85879e-25
-1.75589e-25
-1.65007e-25
-1.54136e-25
-1.42985e-25
-1.31564e-25
-1.19886e-25
-1.07966e-25
-9.58226e-26
-8.34768e-26
-7.0951e-26
-5.82694e-26
-4.54582e-26
-3.25448e-26
-1.95575e-26
-6.52558e-27
)
;
    }
    outlet
    {
        type            cyclic;
        value           nonuniform List<scalar> 
120
(
1.24922e-27
3.74941e-27
6.25367e-27
8.73468e-27
1.12253e-26
1.37285e-26
1.62469e-26
1.87226e-26
2.12189e-26
2.37995e-26
2.64061e-26
2.90412e-26
3.17688e-26
3.453e-26
3.73277e-26
4.01643e-26
4.30422e-26
4.59638e-26
4.89314e-26
5.19472e-26
5.50134e-26
5.81319e-26
6.13049e-26
6.45313e-26
6.80641e-26
7.16538e-26
7.53064e-26
7.88968e-26
8.25528e-26
8.62779e-26
8.98224e-26
9.31866e-26
9.66224e-26
1.00126e-25
1.03697e-25
1.07331e-25
1.1128e-25
1.1555e-25
1.19621e-25
1.24031e-25
1.27983e-25
1.32272e-25
1.36362e-25
1.40517e-25
1.44723e-25
1.49256e-25
1.53319e-25
1.57455e-25
1.61362e-25
1.65838e-25
1.70336e-25
1.74869e-25
1.79433e-25
1.84023e-25
1.88625e-25
1.93505e-25
1.98387e-25
2.03275e-25
2.08186e-25
2.12564e-25
2.16953e-25
2.21326e-25
2.25676e-25
2.29996e-25
2.34306e-25
2.38014e-25
2.42235e-25
2.46375e-25
2.50453e-25
2.54464e-25
2.58432e-25
2.61777e-25
2.65067e-25
2.68265e-25
2.71366e-25
2.74363e-25
2.77251e-25
2.80025e-25
2.82681e-25
2.85213e-25
2.87618e-25
2.8989e-25
2.92028e-25
2.94026e-25
2.95883e-25
2.9768e-25
2.98206e-25
2.98669e-25
2.98981e-25
2.99143e-25
2.99142e-25
2.95759e-25
2.88557e-25
2.81172e-25
2.73635e-25
2.65927e-25
2.58025e-25
2.4991e-25
2.41564e-25
2.3297e-25
2.24115e-25
2.14986e-25
2.05574e-25
1.95873e-25
1.85879e-25
1.75589e-25
1.65007e-25
1.54136e-25
1.42985e-25
1.31564e-25
1.19886e-25
1.07966e-25
9.58226e-26
8.34768e-26
7.0951e-26
5.82694e-26
4.54582e-26
3.25448e-26
1.95575e-26
6.52558e-27
)
;
    }
    top
    {
        type            fixedValue;
        value           uniform 0;
    }
    bottom
    {
        type            fixedValue;
        value           uniform 0;
    }
    frontAndBackPlanes
    {
        type            empty;
        value           nonuniform List<scalar> 0();
    }
}


// ************************************************************************* //
