/*--------------------------------*- C++ -*----------------------------------*\
| =========                 |                                                 |
| \\      /  F ield         | OpenFOAM: The Open Source CFD Toolbox           |
|  \\    /   O peration     | Version:  v2006                                 |
|   \\  /    A nd           | Website:  www.openfoam.com                      |
|    \\/     M anipulation  |                                                 |
\*---------------------------------------------------------------------------*/
FoamFile
{
    version     2.0;
    format      ascii;
    class       volTensorField;
    location    "1740";
    object      Taua;
}
// * * * * * * * * * * * * * * * * * * * * * * * * * * * * * * * * * * * * * //

dimensions      [1 -1 -2 0 0 0 0];


internalField   nonuniform List<tensor> 
120
(
(2.4267e-05 0 0 1.74952e-14 -4.8534e-05 0 0 0 2.4267e-05)
(2.44766e-05 0 0 1.75159e-14 -4.89532e-05 0 0 0 2.44766e-05)
(2.47736e-05 0 0 1.74485e-14 -4.95472e-05 0 0 0 2.47736e-05)
(2.50663e-05 0 0 1.74006e-14 -5.01326e-05 0 0 0 2.50663e-05)
(2.53563e-05 0 0 1.74784e-14 -5.07126e-05 0 0 0 2.53563e-05)
(2.5646e-05 0 0 1.75755e-14 -5.12921e-05 0 0 0 2.5646e-05)
(2.59393e-05 0 0 1.74793e-14 -5.18785e-05 0 0 0 2.59393e-05)
(2.62361e-05 0 0 1.74021e-14 -5.24722e-05 0 0 0 2.62361e-05)
(2.65363e-05 0 0 1.77691e-14 -5.30726e-05 0 0 0 2.65363e-05)
(2.68399e-05 0 0 1.81549e-14 -5.36798e-05 0 0 0 2.68399e-05)
(2.7147e-05 0 0 1.83467e-14 -5.4294e-05 0 0 0 2.7147e-05)
(2.74576e-05 0 0 1.87695e-14 -5.49152e-05 0 0 0 2.74576e-05)
(2.77718e-05 0 0 1.92103e-14 -5.55436e-05 0 0 0 2.77718e-05)
(2.80896e-05 0 0 1.94564e-14 -5.61793e-05 0 0 0 2.80896e-05)
(2.84111e-05 0 0 1.972e-14 -5.68222e-05 0 0 0 2.84111e-05)
(2.87362e-05 0 0 2.00008e-14 -5.74725e-05 0 0 0 2.87362e-05)
(2.90651e-05 0 0 2.02983e-14 -5.81301e-05 0 0 0 2.90651e-05)
(2.93975e-05 0 0 2.06121e-14 -5.87951e-05 0 0 0 2.93975e-05)
(2.97337e-05 0 0 2.09418e-14 -5.94674e-05 0 0 0 2.97337e-05)
(3.00736e-05 0 0 2.12868e-14 -6.01472e-05 0 0 0 3.00736e-05)
(3.04172e-05 0 0 2.16466e-14 -6.08343e-05 0 0 0 3.04172e-05)
(3.07645e-05 0 0 2.20205e-14 -6.15289e-05 0 0 0 3.07645e-05)
(3.11155e-05 0 0 2.24079e-14 -6.22311e-05 0 0 0 3.11155e-05)
(3.14705e-05 0 0 2.36572e-14 -6.29409e-05 0 0 0 3.14705e-05)
(3.18293e-05 0 0 2.49186e-14 -6.36586e-05 0 0 0 3.18293e-05)
(3.21921e-05 0 0 2.53417e-14 -6.43843e-05 0 0 0 3.21921e-05)
(3.25592e-05 0 0 2.53505e-14 -6.51183e-05 0 0 0 3.25592e-05)
(3.29305e-05 0 0 2.53686e-14 -6.5861e-05 0 0 0 3.29305e-05)
(3.33064e-05 0 0 2.58194e-14 -6.66128e-05 0 0 0 3.33064e-05)
(3.3687e-05 0 0 2.54285e-14 -6.7374e-05 0 0 0 3.3687e-05)
(3.40725e-05 0 0 2.4195e-14 -6.8145e-05 0 0 0 3.40725e-05)
(3.44631e-05 0 0 2.38151e-14 -6.89263e-05 0 0 0 3.44631e-05)
(3.48591e-05 0 0 2.42872e-14 -6.97181e-05 0 0 0 3.48591e-05)
(3.52604e-05 0 0 2.47616e-14 -7.05208e-05 0 0 0 3.52604e-05)
(3.56673e-05 0 0 2.52366e-14 -7.13345e-05 0 0 0 3.56673e-05)
(3.60796e-05 5.75211e-19 0 2.6559e-14 -7.21593e-05 0 0 0 3.60796e-05)
(3.64975e-05 0 0 2.87275e-14 -7.29949e-05 0 0 0 3.64975e-05)
(3.69206e-05 0 0 2.91961e-14 -7.38412e-05 0 0 0 3.69206e-05)
(3.73489e-05 0 0 2.9659e-14 -7.46977e-05 0 0 0 3.73489e-05)
(3.7782e-05 0 0 2.92673e-14 -7.55641e-05 0 0 0 3.7782e-05)
(3.82198e-05 0 0 2.88666e-14 -7.64397e-05 0 0 0 3.82198e-05)
(3.86621e-05 0 0 2.93032e-14 -7.73242e-05 0 0 0 3.86621e-05)
(3.91088e-05 0 0 2.888e-14 -7.82176e-05 0 0 0 3.91088e-05)
(3.95601e-05 0 0 2.92901e-14 -7.91203e-05 0 0 0 3.95601e-05)
(4.00166e-05 0 0 3.05313e-14 -8.00332e-05 0 0 0 4.00166e-05)
(4.04792e-05 0 0 3.00607e-14 -8.09585e-05 0 0 0 4.04792e-05)
(4.09496e-05 0 0 2.87232e-14 -8.18992e-05 0 0 0 4.09496e-05)
(4.143e-05 0 0 2.82115e-14 -8.286e-05 0 0 0 4.143e-05)
(4.19236e-05 0 0 2.93696e-14 -8.38472e-05 0 0 0 4.19236e-05)
(4.24344e-05 0 0 3.13492e-14 -8.48689e-05 0 0 0 4.24344e-05)
(4.29674e-05 0 0 3.16086e-14 -8.59349e-05 0 0 0 4.29674e-05)
(4.35284e-05 0 0 3.18392e-14 -8.70568e-05 0 0 0 4.35284e-05)
(4.41238e-05 0 0 3.20393e-14 -8.82475e-05 0 0 0 4.41238e-05)
(4.47605e-05 0 0 3.22071e-14 -8.95209e-05 0 0 0 4.47605e-05)
(4.54454e-05 0 0 3.31869e-14 -9.08908e-05 0 0 0 4.54454e-05)
(4.61851e-05 0 0 3.41314e-14 -9.23702e-05 0 0 0 4.61851e-05)
(4.6985e-05 0 0 3.41933e-14 -9.39699e-05 0 0 0 4.6985e-05)
(4.78487e-05 0 0 3.42174e-14 -9.56974e-05 0 0 0 4.78487e-05)
(4.87775e-05 -1.15042e-18 0 3.25119e-14 -9.7555e-05 0 0 0 4.87775e-05)
(4.97695e-05 0 0 3.07654e-14 -9.9539e-05 0 0 0 4.97695e-05)
(5.08191e-05 0 0 3.06675e-14 -0.000101638 0 0 0 5.08191e-05)
(5.19169e-05 0 0 3.05274e-14 -0.000103834 0 0 0 5.19169e-05)
(5.30496e-05 0 0 3.03442e-14 -0.000106099 0 0 0 5.30496e-05)
(5.42007e-05 0 0 3.01171e-14 -0.000108401 0 0 0 5.42007e-05)
(5.53524e-05 0 0 2.8158e-14 -0.000110705 0 0 0 5.53524e-05)
(5.6487e-05 0 0 2.78416e-14 -0.000112974 0 0 0 5.6487e-05)
(5.75904e-05 0 0 2.91682e-14 -0.000115181 0 0 0 5.75904e-05)
(5.86559e-05 0 0 2.87628e-14 -0.000117312 0 0 0 5.86559e-05)
(5.9688e-05 0 0 2.83129e-14 -0.000119376 0 0 0 5.9688e-05)
(6.07066e-05 0 0 2.78188e-14 -0.000121413 0 0 0 6.07066e-05)
(6.17504e-05 0 0 2.55963e-14 -0.000123501 0 0 0 6.17504e-05)
(6.28775e-05 0 0 2.33308e-14 -0.000125755 0 0 0 6.28775e-05)
(6.41635e-05 0 0 2.2708e-14 -0.000128327 0 0 0 6.41635e-05)
(6.56943e-05 0 0 2.20442e-14 -0.000131389 0 0 0 6.56943e-05)
(6.75531e-05 0 0 2.13406e-14 -0.000135106 0 0 0 6.75531e-05)
(6.98008e-05 0 0 2.05985e-14 -0.000139602 0 0 0 6.98008e-05)
(7.24498e-05 0 0 1.98195e-14 -0.0001449 0 0 0 7.24498e-05)
(7.54308e-05 0 0 1.90052e-14 -0.000150862 0 0 0 7.54308e-05)
(7.8559e-05 0 0 1.81576e-14 -0.000157118 0 0 0 7.8559e-05)
(8.15221e-05 0 0 1.72785e-14 -0.000163044 0 0 0 8.15221e-05)
(8.38394e-05 0 0 1.637e-14 -0.000167679 0 0 0 8.38394e-05)
(8.45739e-05 0 0 1.54345e-14 -0.000169148 0 0 0 8.45739e-05)
(8.21294e-05 0 0 1.44741e-14 -0.000164259 0 0 0 8.21294e-05)
(7.80301e-05 0 0 1.34914e-14 -0.00015606 0 0 0 7.80301e-05)
(7.85144e-05 0 0 1.24887e-14 -0.000157029 0 0 0 7.85144e-05)
(6.04703e-05 0 0 8.13253e-15 -0.000120941 0 0 0 6.04703e-05)
(-0.00012837 0 0 3.76165e-15 0.00025674 0 0 0 -0.00012837)
(-0.00015546 0 0 2.71491e-15 0.000310921 0 0 0 -0.00015546)
(0.0014022 0 0 1.65842e-15 -0.00280441 0 0 0 0.0014022)
(0.0094681 0 0 7.80726e-16 -0.0189362 0 0 0 0.0094681)
(1.8619e-05 0 0 -4.57121e-21 -3.7238e-05 0 0 0 1.8619e-05)
(3.89007e-07 0 0 -2.24618e-22 -7.78013e-07 0 0 0 3.89007e-07)
(4.1818e-10 0 0 -9.22841e-25 -8.3636e-10 0 0 0 4.1818e-10)
(3.20811e-20 0 0 -1.07615e-34 -6.41621e-20 0 0 0 3.20811e-20)
(2.32916e-30 0 0 -1.43608e-44 -4.65831e-30 0 0 0 2.32916e-30)
(-2.49889e-42 0 0 -3.25221e-54 4.99778e-42 0 0 0 -2.49889e-42)
(2.3151e-52 0 0 -1.0476e-63 -4.63019e-52 0 0 0 2.3151e-52)
(5.47832e-62 0 0 -3.79839e-73 -1.09566e-61 0 0 0 5.47832e-62)
(3.15546e-73 0 0 -1.52156e-82 -6.31092e-73 0 0 0 3.15546e-73)
(-7.58055e-82 0 0 -6.19996e-92 1.51611e-81 0 0 0 -7.58055e-82)
(-2.37094e-93 0 0 -2.65825e-101 4.74189e-93 0 0 0 -2.37094e-93)
(8.86171e-102 0 0 -1.1367e-110 -1.77234e-101 0 0 0 8.86171e-102)
(4.11532e-112 0 0 -5.07888e-120 -8.23064e-112 0 0 0 4.11532e-112)
(-1.43085e-121 0 0 -2.2639e-129 2.8617e-121 0 0 0 -1.43085e-121)
(-7.36342e-132 0 0 -1.08487e-138 1.47268e-131 0 0 0 -7.36342e-132)
(2.23374e-141 0 0 -5.48866e-148 -4.46747e-141 0 0 0 2.23374e-141)
(2.9444e-151 0 0 -3.13446e-157 -5.8888e-151 0 0 0 2.9444e-151)
(-4.46663e-161 0 0 -1.91443e-166 8.93325e-161 0 0 0 -4.46663e-161)
(-6.28098e-171 0 0 -1.29347e-175 1.2562e-170 0 0 0 -6.28098e-171)
(6.3203e-181 0 0 -9.06945e-185 -1.26406e-180 0 0 0 6.3203e-181)
(-1.41436e-189 0 0 -6.80019e-194 2.82873e-189 0 0 0 -1.41436e-189)
(-1.00471e-198 0 0 -5.18451e-203 2.00942e-198 0 0 0 -1.00471e-198)
(-6.54754e-208 0 0 -4.39527e-212 1.30951e-207 0 0 0 -6.54754e-208)
(-2.92422e-214 0 0 -4.29401e-221 5.84843e-214 0 0 0 -2.92422e-214)
(-6.35296e-223 0 0 -5.52709e-230 1.27059e-222 0 0 0 -6.35296e-223)
(-1.91158e-230 0 0 -9.16548e-239 3.82315e-230 0 0 0 -1.91158e-230)
(-2.13972e-236 0 0 -1.97598e-247 4.27943e-236 0 0 0 -2.13972e-236)
(-1.26001e-244 0 0 -4.99991e-256 2.52001e-244 0 0 0 -1.26001e-244)
(-2.68253e-252 0 0 -1.47613e-264 5.36505e-252 0 0 0 -2.68253e-252)
(-8.03752e-258 0 0 -4.59175e-273 1.6075e-257 0 0 0 -8.03752e-258)
)
;

boundaryField
{
    inlet
    {
        type            cyclic;
    }
    outlet
    {
        type            cyclic;
    }
    top
    {
        type            extrapolatedCalculated;
        value           uniform (-1.60597e-257 0 0 -4.59502e-273 3.21194e-257 0 0 0 -1.60597e-257);
    }
    bottom
    {
        type            extrapolatedCalculated;
        value           uniform (2.42076e-05 0 0 1.74891e-14 -4.84152e-05 0 0 0 2.42076e-05);
    }
    frontAndBackPlanes
    {
        type            empty;
    }
}


// ************************************************************************* //
