/*--------------------------------*- C++ -*----------------------------------*\
| =========                 |                                                 |
| \\      /  F ield         | OpenFOAM: The Open Source CFD Toolbox           |
|  \\    /   O peration     | Version:  v2006                                 |
|   \\  /    A nd           | Website:  www.openfoam.com                      |
|    \\/     M anipulation  |                                                 |
\*---------------------------------------------------------------------------*/
FoamFile
{
    version     2.0;
    format      ascii;
    class       volTensorField;
    location    "1740";
    object      Taub;
}
// * * * * * * * * * * * * * * * * * * * * * * * * * * * * * * * * * * * * * //

dimensions      [1 -1 -2 0 0 0 0];


internalField   nonuniform List<tensor> 
120
(
(-1.98628e-09 0 0 8.33072e-19 3.97257e-09 0 0 0 -1.98628e-09)
(-1.24541e-09 0 0 8.34005e-19 2.49083e-09 0 0 0 -1.24541e-09)
(-1.78711e-09 0 0 8.30769e-19 3.57423e-09 0 0 0 -1.78711e-09)
(-2.02782e-09 0 0 8.28463e-19 4.05564e-09 0 0 0 -2.02782e-09)
(-1.8085e-09 0 0 8.32115e-19 3.61699e-09 0 0 0 -1.8085e-09)
(-1.828e-09 0 0 8.36697e-19 3.656e-09 0 0 0 -1.828e-09)
(-1.84834e-09 0 0 8.32075e-19 3.69668e-09 0 0 0 -1.84834e-09)
(-1.86862e-09 0 0 8.2835e-19 3.73724e-09 0 0 0 -1.86862e-09)
(-1.88911e-09 0 0 8.45788e-19 3.77821e-09 0 0 0 -1.88911e-09)
(-1.90981e-09 0 0 8.6412e-19 3.81961e-09 0 0 0 -1.90981e-09)
(-1.93072e-09 0 0 8.7316e-19 3.86144e-09 0 0 0 -1.93072e-09)
(-1.95185e-09 0 0 8.93264e-19 3.9037e-09 0 0 0 -1.95185e-09)
(-1.9732e-09 0 0 9.14228e-19 3.9464e-09 0 0 0 -1.9732e-09)
(-1.99477e-09 0 0 9.25858e-19 3.98954e-09 0 0 0 -1.99477e-09)
(-2.01656e-09 0 0 9.38351e-19 4.03313e-09 0 0 0 -2.01656e-09)
(-2.03858e-09 0 0 9.51658e-19 4.07715e-09 0 0 0 -2.03858e-09)
(-2.06081e-09 0 0 9.65761e-19 4.12162e-09 0 0 0 -2.06081e-09)
(-2.08326e-09 0 0 9.80637e-19 4.16652e-09 0 0 0 -2.08326e-09)
(-2.10593e-09 0 0 9.96265e-19 4.21186e-09 0 0 0 -2.10593e-09)
(-2.12882e-09 0 0 1.01262e-18 4.25763e-09 0 0 0 -2.12882e-09)
(-2.15192e-09 0 0 1.02967e-18 4.30384e-09 0 0 0 -2.15192e-09)
(-2.17524e-09 0 0 1.04739e-18 4.35048e-09 0 0 0 -2.17524e-09)
(-2.19877e-09 0 0 1.06527e-18 4.39755e-09 0 0 0 -2.19877e-09)
(-2.22253e-09 0 0 1.12511e-18 4.44506e-09 0 0 0 -2.22253e-09)
(-2.24651e-09 0 0 1.18551e-18 4.49302e-09 0 0 0 -2.24651e-09)
(-2.27072e-09 0 0 1.20536e-18 4.54143e-09 0 0 0 -2.27072e-09)
(-2.29516e-09 0 0 1.20541e-18 4.59032e-09 0 0 0 -2.29516e-09)
(-2.31985e-09 0 0 1.2059e-18 4.6397e-09 0 0 0 -2.31985e-09)
(-2.3448e-09 0 0 1.22823e-18 4.68959e-09 0 0 0 -2.3448e-09)
(-2.37001e-09 0 0 1.20959e-18 4.74002e-09 0 0 0 -2.37001e-09)
(-2.3955e-09 0 0 1.14947e-18 4.791e-09 0 0 0 -2.3955e-09)
(-2.42127e-09 0 0 1.13129e-18 4.84255e-09 0 0 0 -2.42127e-09)
(-2.44735e-09 0 0 1.15437e-18 4.8947e-09 0 0 0 -2.44735e-09)
(-2.47372e-09 0 0 1.17683e-18 4.94745e-09 0 0 0 -2.47372e-09)
(-2.5004e-09 0 0 1.19842e-18 5.0008e-09 0 0 0 -2.5004e-09)
(-2.52738e-09 -2.73338e-23 0 1.26114e-18 5.05475e-09 0 0 0 -2.52738e-09)
(-2.55464e-09 0 0 1.36688e-18 5.10928e-09 0 0 0 -2.55464e-09)
(-2.58218e-09 0 0 1.38711e-18 5.16436e-09 0 0 0 -2.58218e-09)
(-2.60998e-09 0 0 1.41017e-18 5.21996e-09 0 0 0 -2.60998e-09)
(-2.63801e-09 0 0 1.39026e-18 5.27603e-09 0 0 0 -2.63801e-09)
(-2.66626e-09 0 0 1.37022e-18 5.33252e-09 0 0 0 -2.66626e-09)
(-2.69471e-09 0 0 1.39288e-18 5.38942e-09 0 0 0 -2.69471e-09)
(-2.72335e-09 0 0 1.37046e-18 5.4467e-09 0 0 0 -2.72335e-09)
(-2.75219e-09 0 0 1.3897e-18 5.50439e-09 0 0 0 -2.75219e-09)
(-2.78127e-09 0 0 1.45231e-18 5.56254e-09 0 0 0 -2.78127e-09)
(-2.81065e-09 0 0 1.42852e-18 5.62129e-09 0 0 0 -2.81065e-09)
(-2.84043e-09 0 0 1.36244e-18 5.68086e-09 0 0 0 -2.84043e-09)
(-2.87077e-09 0 0 1.3364e-18 5.74155e-09 0 0 0 -2.87077e-09)
(-2.90189e-09 0 0 1.3927e-18 5.80379e-09 0 0 0 -2.90189e-09)
(-2.93406e-09 0 0 1.49068e-18 5.86813e-09 0 0 0 -2.93406e-09)
(-2.96762e-09 0 0 1.50004e-18 5.93523e-09 0 0 0 -2.96762e-09)
(-3.00293e-09 0 0 1.51081e-18 6.00587e-09 0 0 0 -3.00293e-09)
(-3.04045e-09 0 0 1.52013e-18 6.08089e-09 0 0 0 -3.04045e-09)
(-3.0806e-09 0 0 1.52627e-18 6.1612e-09 0 0 0 -3.0806e-09)
(-3.12385e-09 0 0 1.57424e-18 6.2477e-09 0 0 0 -3.12385e-09)
(-3.1706e-09 0 0 1.62052e-18 6.34119e-09 0 0 0 -3.1706e-09)
(-3.22117e-09 0 0 1.62162e-18 6.44235e-09 0 0 0 -3.22117e-09)
(-3.27579e-09 0 0 1.62623e-18 6.55158e-09 0 0 0 -3.27579e-09)
(-3.33447e-09 5.45441e-23 0 1.54146e-18 6.66895e-09 0 0 0 -3.33447e-09)
(-3.39702e-09 0 0 1.45476e-18 6.79405e-09 0 0 0 -3.39702e-09)
(-3.46299e-09 0 0 1.45361e-18 6.92599e-09 0 0 0 -3.46299e-09)
(-3.53167e-09 0 0 1.44678e-18 7.06334e-09 0 0 0 -3.53167e-09)
(-3.60208e-09 0 0 1.43791e-18 7.20416e-09 0 0 0 -3.60208e-09)
(-3.67306e-09 0 0 1.43121e-18 7.34611e-09 0 0 0 -3.67306e-09)
(-3.74334e-09 0 0 1.32945e-18 7.48669e-09 0 0 0 -3.74334e-09)
(-3.81174e-09 0 0 1.31436e-18 7.62349e-09 0 0 0 -3.81174e-09)
(-3.87731e-09 0 0 1.38568e-18 7.75462e-09 0 0 0 -3.87731e-09)
(-3.93959e-09 0 0 1.36186e-18 7.87918e-09 0 0 0 -3.93959e-09)
(-3.99893e-09 0 0 1.34031e-18 7.99786e-09 0 0 0 -3.99893e-09)
(-4.05668e-09 0 0 1.32165e-18 8.11336e-09 0 0 0 -4.05668e-09)
(-4.1154e-09 0 0 1.21122e-18 8.2308e-09 0 0 0 -4.1154e-09)
(-4.17888e-09 0 0 1.09878e-18 8.35775e-09 0 0 0 -4.17888e-09)
(-4.25189e-09 0 0 1.07405e-18 8.50378e-09 0 0 0 -4.25189e-09)
(-4.3397e-09 0 0 1.04243e-18 8.67941e-09 0 0 0 -4.3397e-09)
(-4.44706e-09 0 0 1.00891e-18 8.89412e-09 0 0 0 -4.44706e-09)
(-4.57681e-09 0 0 9.73569e-19 9.15363e-09 0 0 0 -4.57681e-09)
(-4.72815e-09 0 0 9.36486e-19 9.4563e-09 0 0 0 -4.72815e-09)
(-4.89453e-09 0 0 8.97741e-19 9.78906e-09 0 0 0 -4.89453e-09)
(-5.06131e-09 0 0 8.57422e-19 1.01226e-08 0 0 0 -5.06131e-09)
(-5.20241e-09 0 0 8.15623e-19 1.04048e-08 0 0 0 -5.20241e-09)
(-5.27828e-09 0 0 7.72444e-19 1.05566e-08 0 0 0 -5.27828e-09)
(-5.24663e-09 0 0 7.27991e-19 1.04933e-08 0 0 0 -5.24663e-09)
(-5.06543e-09 0 0 6.82375e-19 1.01309e-08 0 0 0 -5.06543e-09)
(-4.53955e-09 0 0 6.35774e-19 9.0791e-09 0 0 0 -4.53955e-09)
(-3.18206e-09 0 0 6.02226e-19 6.36412e-09 0 0 0 -3.18206e-09)
(-1.99807e-09 0 0 3.82701e-19 3.99615e-09 0 0 0 -1.99807e-09)
(-5.92334e-09 0 0 1.62768e-19 1.18467e-08 0 0 0 -5.92334e-09)
(-1.11471e-09 0 0 1.27442e-19 2.22942e-09 0 0 0 -1.11471e-09)
(1.82881e-07 0 0 7.77618e-20 -3.65761e-07 0 0 0 1.82881e-07)
(-5.47725e-06 0 0 2.62774e-20 1.09545e-05 0 0 0 -5.47725e-06)
(-0.000144828 0 0 -4.4343e-19 0.000289656 0 0 0 -0.000144828)
(-1.5098e-05 0 0 -7.16229e-19 3.0196e-05 0 0 0 -1.5098e-05)
(7.4695e-05 0 0 -9.72409e-19 -0.00014939 0 0 0 7.4695e-05)
(1.92483e-05 0 0 -9.94688e-19 -3.84965e-05 0 0 0 1.92483e-05)
(-1.24954e-06 0 0 -1.01621e-18 2.49908e-06 0 0 0 -1.24954e-06)
(-2.21955e-06 0 0 -1.04054e-18 4.4391e-06 0 0 0 -2.21955e-06)
(2.0013e-07 0 0 -1.06765e-18 -4.00259e-07 0 0 0 2.0013e-07)
(1.40003e-07 0 0 -1.09727e-18 -2.80006e-07 0 0 0 1.40003e-07)
(2.71612e-09 0 0 -1.12918e-18 -5.43224e-09 0 0 0 2.71612e-09)
(-1.38916e-08 0 0 -1.16312e-18 2.77832e-08 0 0 0 -1.38916e-08)
(-1.04446e-10 0 0 -1.19878e-18 2.08891e-10 0 0 0 -1.04446e-10)
(9.27623e-10 0 0 -1.23587e-18 -1.85525e-09 0 0 0 9.27623e-10)
(1.02756e-10 0 0 -1.27402e-18 -2.05512e-10 0 0 0 1.02756e-10)
(-8.06801e-11 0 0 -1.31289e-18 1.6136e-10 0 0 0 -8.06801e-11)
(-8.94558e-12 0 0 -1.3521e-18 1.78912e-11 0 0 0 -8.94558e-12)
(5.4374e-12 0 0 -1.39127e-18 -1.08748e-11 0 0 0 5.4374e-12)
(1.30571e-12 0 0 -1.43e-18 -2.61143e-12 0 0 0 1.30571e-12)
(-3.37949e-13 0 0 -1.46792e-18 6.75898e-13 0 0 0 -3.37949e-13)
(-7.35186e-14 0 0 -1.50464e-18 1.47037e-13 0 0 0 -7.35186e-14)
(1.12582e-14 0 0 -1.5398e-18 -2.25165e-14 0 0 0 1.12582e-14)
(-2.76714e-14 0 0 -1.57303e-18 5.53428e-14 0 0 0 -2.76714e-14)
(-2.69888e-14 0 0 -1.60399e-18 5.39775e-14 0 0 0 -2.69888e-14)
(7.03568e-15 0 0 -1.63238e-18 -1.40714e-14 0 0 0 7.03568e-15)
(2.4e-14 0 0 -1.6579e-18 -4.79999e-14 0 0 0 2.4e-14)
(4.42747e-15 0 0 -1.68028e-18 -8.85494e-15 0 0 0 4.42747e-15)
(-2.67402e-14 0 0 -1.6993e-18 5.34804e-14 0 0 0 -2.67402e-14)
(-8.53992e-14 0 0 -1.71476e-18 1.70798e-13 0 0 0 -8.53992e-14)
(-8.55249e-14 0 0 -1.7265e-18 1.7105e-13 0 0 0 -8.55249e-14)
(-4.23095e-13 0 0 -1.73439e-18 8.4619e-13 0 0 0 -4.23095e-13)
(-2.36939e-12 0 0 -1.73865e-18 4.73878e-12 0 0 0 -2.36939e-12)
)
;

boundaryField
{
    inlet
    {
        type            cyclic;
    }
    outlet
    {
        type            cyclic;
    }
    top
    {
        type            extrapolatedCalculated;
        value           uniform (-3.93171e-12 0 0 -1.73994e-18 7.86342e-12 0 0 0 -3.93171e-12);
    }
    bottom
    {
        type            extrapolatedCalculated;
        value           uniform (-2.79951e-09 0 0 8.32779e-19 5.59902e-09 0 0 0 -2.79951e-09);
    }
    frontAndBackPlanes
    {
        type            empty;
    }
}


// ************************************************************************* //
