/*--------------------------------*- C++ -*----------------------------------*\
| =========                 |                                                 |
| \\      /  F ield         | OpenFOAM: The Open Source CFD Toolbox           |
|  \\    /   O peration     | Version:  v2006                                 |
|   \\  /    A nd           | Website:  www.openfoam.com                      |
|    \\/     M anipulation  |                                                 |
\*---------------------------------------------------------------------------*/
FoamFile
{
    version     2.0;
    format      ascii;
    class       volVectorField;
    location    "1740";
    object      Ua;
}
// * * * * * * * * * * * * * * * * * * * * * * * * * * * * * * * * * * * * * //

dimensions      [0 1 -1 0 0 0 0];


internalField   nonuniform List<vector> 
120
(
(4.16406e-21 -1.72911e-11 0)
(1.2498e-20 -5.20432e-11 0)
(2.08459e-20 -8.72242e-11 0)
(2.91156e-20 -1.22825e-10 0)
(3.74178e-20 -1.58842e-10 0)
(4.57617e-20 -1.95271e-10 0)
(5.41564e-20 -2.32117e-10 0)
(6.24086e-20 -2.69383e-10 0)
(7.07298e-20 -3.07077e-10 0)
(7.93315e-20 -3.45201e-10 0)
(8.80202e-20 -3.83762e-10 0)
(9.68046e-20 -4.22764e-10 0)
(1.05896e-19 -4.62212e-10 0)
(1.151e-19 -5.02112e-10 0)
(1.24426e-19 -5.42469e-10 0)
(1.33881e-19 -5.83287e-10 0)
(1.43474e-19 -6.24572e-10 0)
(1.53213e-19 -6.6633e-10 0)
(1.63105e-19 -7.08565e-10 0)
(1.73157e-19 -7.51283e-10 0)
(1.83378e-19 -7.94489e-10 0)
(1.93773e-19 -8.38189e-10 0)
(2.0435e-19 -8.82388e-10 0)
(2.15114e-19 -9.27091e-10 0)
(2.2688e-19 -9.72303e-10 0)
(2.38846e-19 -1.01803e-09 0)
(2.51015e-19 -1.06428e-09 0)
(2.62989e-19 -1.11106e-09 0)
(2.75176e-19 -1.15837e-09 0)
(2.87579e-19 -1.20622e-09 0)
(2.99394e-19 -1.25462e-09 0)
(3.10622e-19 -1.30357e-09 0)
(3.22075e-19 -1.35308e-09 0)
(3.33753e-19 -1.40317e-09 0)
(3.45657e-19 -1.45383e-09 0)
(3.57787e-19 -1.50507e-09 0)
(3.70951e-19 -1.55691e-09 0)
(3.85147e-19 -1.60935e-09 0)
(3.98757e-19 -1.6624e-09 0)
(4.13394e-19 -1.71606e-09 0)
(4.26631e-19 -1.77035e-09 0)
(4.40886e-19 -1.82526e-09 0)
(4.54539e-19 -1.88081e-09 0)
(4.6839e-19 -1.937e-09 0)
(4.82434e-19 -1.99384e-09 0)
(4.97468e-19 -2.05133e-09 0)
(5.11063e-19 -2.10949e-09 0)
(5.24823e-19 -2.16833e-09 0)
(5.37931e-19 -2.22787e-09 0)
(5.52794e-19 -2.28811e-09 0)
(5.67787e-19 -2.34911e-09 0)
(5.82898e-19 -2.41088e-09 0)
(5.9811e-19 -2.47347e-09 0)
(6.13411e-19 -2.53695e-09 0)
(6.28784e-19 -2.60136e-09 0)
(6.45018e-19 -2.66679e-09 0)
(6.6129e-19 -2.73332e-09 0)
(6.77583e-19 -2.80103e-09 0)
(6.93878e-19 -2.87003e-09 0)
(7.08547e-19 -2.9404e-09 0)
(7.23178e-19 -3.01223e-09 0)
(7.37754e-19 -3.08559e-09 0)
(7.52252e-19 -3.16056e-09 0)
(7.66653e-19 -3.23716e-09 0)
(7.80935e-19 -3.31542e-09 0)
(7.9347e-19 -3.39531e-09 0)
(8.07451e-19 -3.47681e-09 0)
(8.21249e-19 -3.55986e-09 0)
(8.34844e-19 -3.6444e-09 0)
(8.48214e-19 -3.73039e-09 0)
(8.61338e-19 -3.81785e-09 0)
(8.72591e-19 -3.90682e-09 0)
(8.83558e-19 -3.9975e-09 0)
(8.94218e-19 -4.09015e-09 0)
(9.04552e-19 -4.18519e-09 0)
(9.14542e-19 -4.28316e-09 0)
(9.2417e-19 -4.38462e-09 0)
(9.33418e-19 -4.49016e-09 0)
(9.4227e-19 -4.60014e-09 0)
(9.50711e-19 -4.71461e-09 0)
(9.58726e-19 -4.83306e-09 0)
(9.66301e-19 -4.95415e-09 0)
(9.73425e-19 -5.0747e-09 0)
(9.80086e-19 -5.18881e-09 0)
(9.86274e-19 -5.29764e-09 0)
(9.9198e-19 -5.41313e-09 0)
(9.94019e-19 -5.47042e-09 0)
(9.95563e-19 -5.04636e-09 0)
(9.96605e-19 -5.02624e-09 0)
(9.97142e-19 -9.05265e-09 0)
(9.97349e-19 -3.2078e-08 0)
(9.85875e-19 -0.000137681 0)
(9.61921e-19 -0.000184101 0)
(9.37257e-19 -0.000203774 0)
(9.12114e-19 -0.000228644 0)
(8.86419e-19 -0.00022851 0)
(8.6008e-19 -0.000228524 0)
(8.3303e-19 -0.000228546 0)
(8.0521e-19 -0.000228548 0)
(7.76563e-19 -0.000228546 0)
(7.47046e-19 -0.000228546 0)
(7.16616e-19 -0.000228546 0)
(6.85246e-19 -0.000228546 0)
(6.52906e-19 -0.000228546 0)
(6.19593e-19 -0.000228546 0)
(5.85293e-19 -0.000228546 0)
(5.50021e-19 -0.000228546 0)
(5.13782e-19 -0.000228546 0)
(4.76616e-19 -0.000228546 0)
(4.38543e-19 -0.000228546 0)
(3.99613e-19 -0.000228546 0)
(3.5988e-19 -0.000228546 0)
(3.19407e-19 -0.000228546 0)
(2.78252e-19 -0.000228546 0)
(2.36499e-19 -0.000228546 0)
(1.94227e-19 -0.000228546 0)
(1.51523e-19 -0.000228546 0)
(1.08478e-19 -0.000228518 0)
(6.51868e-20 -0.000228481 0)
(2.17495e-20 -0.000228045 0)
)
;

boundaryField
{
    inlet
    {
        type            cyclic;
    }
    outlet
    {
        type            cyclic;
    }
    top
    {
        type            fixedValue;
        value           uniform (0 0 0);
    }
    bottom
    {
        type            fixedValue;
        value           uniform (0 0 0);
    }
    frontAndBackPlanes
    {
        type            empty;
    }
}


// ************************************************************************* //
