/*--------------------------------*- C++ -*----------------------------------*\
| =========                 |                                                 |
| \\      /  F ield         | OpenFOAM: The Open Source CFD Toolbox           |
|  \\    /   O peration     | Version:  v2006                                 |
|   \\  /    A nd           | Website:  www.openfoam.com                      |
|    \\/     M anipulation  |                                                 |
\*---------------------------------------------------------------------------*/
FoamFile
{
    version     2.0;
    format      ascii;
    class       volVectorField;
    location    "1740";
    object      Ub;
}
// * * * * * * * * * * * * * * * * * * * * * * * * * * * * * * * * * * * * * //

dimensions      [0 1 -1 0 0 0 0];


internalField   nonuniform List<vector> 
120
(
(4.16406e-21 4.19943e-11 0)
(1.2498e-20 7.71874e-11 0)
(2.08456e-20 1.16725e-10 0)
(2.91156e-20 1.84428e-10 0)
(3.74178e-20 2.38417e-10 0)
(4.57617e-20 2.92963e-10 0)
(5.41564e-20 3.48127e-10 0)
(6.24086e-20 4.03899e-10 0)
(7.07296e-20 4.60286e-10 0)
(7.93315e-20 5.17294e-10 0)
(8.80202e-20 5.74929e-10 0)
(9.6804e-20 6.33198e-10 0)
(1.05896e-19 6.92108e-10 0)
(1.151e-19 7.51665e-10 0)
(1.24426e-19 8.11877e-10 0)
(1.33881e-19 8.72749e-10 0)
(1.43474e-19 9.34289e-10 0)
(1.53213e-19 9.96503e-10 0)
(1.63105e-19 1.0594e-09 0)
(1.73157e-19 1.12298e-09 0)
(1.83378e-19 1.18726e-09 0)
(1.93773e-19 1.25224e-09 0)
(2.0435e-19 1.31792e-09 0)
(2.15104e-19 1.38432e-09 0)
(2.2688e-19 1.45144e-09 0)
(2.38846e-19 1.51929e-09 0)
(2.51021e-19 1.58788e-09 0)
(2.62989e-19 1.6572e-09 0)
(2.75176e-19 1.72728e-09 0)
(2.87593e-19 1.79811e-09 0)
(2.99408e-19 1.86972e-09 0)
(3.10622e-19 1.94209e-09 0)
(3.22075e-19 2.01525e-09 0)
(3.33753e-19 2.08921e-09 0)
(3.45657e-19 2.16397e-09 0)
(3.57769e-19 2.23953e-09 0)
(3.70933e-19 2.31593e-09 0)
(3.85166e-19 2.39315e-09 0)
(3.98737e-19 2.4712e-09 0)
(4.13435e-19 2.55011e-09 0)
(4.26609e-19 2.62987e-09 0)
(4.40908e-19 2.71048e-09 0)
(4.54539e-19 2.79197e-09 0)
(4.6839e-19 2.87432e-09 0)
(4.82409e-19 2.95755e-09 0)
(4.97519e-19 3.04167e-09 0)
(5.11063e-19 3.12669e-09 0)
(5.2485e-19 3.21261e-09 0)
(5.37875e-19 3.29947e-09 0)
(5.52794e-19 3.38729e-09 0)
(5.67787e-19 3.4761e-09 0)
(5.82898e-19 3.56595e-09 0)
(5.9811e-19 3.65691e-09 0)
(6.13411e-19 3.74905e-09 0)
(6.2875e-19 3.84244e-09 0)
(6.45018e-19 3.9372e-09 0)
(6.6129e-19 4.03344e-09 0)
(6.77583e-19 4.13127e-09 0)
(6.93952e-19 4.23081e-09 0)
(7.08547e-19 4.33221e-09 0)
(7.23178e-19 4.43555e-09 0)
(7.37754e-19 4.54095e-09 0)
(7.52252e-19 4.64846e-09 0)
(7.66653e-19 4.75814e-09 0)
(7.81021e-19 4.86996e-09 0)
(7.93381e-19 4.98391e-09 0)
(8.0745e-19 5.0999e-09 0)
(8.21249e-19 5.21784e-09 0)
(8.34844e-19 5.33763e-09 0)
(8.48214e-19 5.4592e-09 0)
(8.61439e-19 5.58252e-09 0)
(8.72592e-19 5.70769e-09 0)
(8.83558e-19 5.83489e-09 0)
(8.94218e-19 5.96452e-09 0)
(9.04552e-19 6.0971e-09 0)
(9.14542e-19 6.23328e-09 0)
(9.2417e-19 6.37377e-09 0)
(9.33418e-19 6.51918e-09 0)
(9.4227e-19 6.66982e-09 0)
(9.50711e-19 6.82542e-09 0)
(9.58726e-19 6.9847e-09 0)
(9.66301e-19 7.14501e-09 0)
(9.73425e-19 7.30252e-09 0)
(9.80086e-19 7.452e-09 0)
(9.86275e-19 7.57778e-09 0)
(9.92266e-19 7.64506e-09 0)
(9.94021e-19 7.69909e-09 0)
(9.95563e-19 8.00501e-09 0)
(9.96605e-19 7.76691e-09 0)
(9.97142e-19 -3.13727e-09 0)
(9.9714e-19 3.42368e-07 0)
(9.85863e-19 1.10481e-05 0)
(9.61857e-19 2.57367e-06 0)
(9.37239e-19 -1.57025e-07 0)
(9.12116e-19 -3.13927e-07 0)
(8.86422e-19 3.0429e-08 0)
(8.60083e-19 1.90467e-08 0)
(8.33033e-19 4.05832e-10 0)
(8.05212e-19 -1.9564e-09 0)
(7.76567e-19 -1.63677e-12 0)
(7.47049e-19 1.27599e-10 0)
(7.1662e-19 1.4032e-11 0)
(6.85248e-19 -1.15621e-11 0)
(6.52911e-19 -1.38333e-12 0)
(6.19595e-19 5.41417e-13 0)
(5.85297e-19 -4.13204e-14 0)
(5.50023e-19 -2.74295e-13 0)
(5.13788e-19 -2.37202e-13 0)
(4.76618e-19 -2.23596e-13 0)
(4.38547e-19 -2.26173e-13 0)
(3.99618e-19 -2.25285e-13 0)
(3.59885e-19 -2.22022e-13 0)
(3.19409e-19 -2.21237e-13 0)
(2.78256e-19 -2.23077e-13 0)
(2.36503e-19 -2.24837e-13 0)
(1.94231e-19 -2.23741e-13 0)
(1.51527e-19 -2.20826e-13 0)
(1.08483e-19 -2.1093e-13 0)
(6.51916e-20 -2.07995e-13 0)
(2.17519e-20 -1.47458e-13 0)
)
;

boundaryField
{
    inlet
    {
        type            cyclic;
    }
    outlet
    {
        type            cyclic;
    }
    top
    {
        type            fixedValue;
        value           uniform (0 0 0);
    }
    bottom
    {
        type            fixedValue;
        value           uniform (0 0 0);
    }
    frontAndBackPlanes
    {
        type            empty;
    }
}


// ************************************************************************* //
