/*--------------------------------*- C++ -*----------------------------------*\
| =========                 |                                                 |
| \\      /  F ield         | OpenFOAM: The Open Source CFD Toolbox           |
|  \\    /   O peration     | Version:  v2006                                 |
|   \\  /    A nd           | Website:  www.openfoam.com                      |
|    \\/     M anipulation  |                                                 |
\*---------------------------------------------------------------------------*/
FoamFile
{
    version     2.0;
    format      ascii;
    class       volScalarField;
    location    "1660";
    object      p;
}
// * * * * * * * * * * * * * * * * * * * * * * * * * * * * * * * * * * * * * //

dimensions      [1 -1 -2 0 0 0 0];


internalField   nonuniform List<scalar> 
120
(
-2.26131
-6.92107
-11.5808
-16.2406
-20.9004
-25.5603
-30.2201
-34.8799
-39.5398
-44.1997
-48.8595
-53.5194
-58.1794
-62.8393
-67.4992
-72.1592
-76.8191
-81.4791
-86.1391
-90.7992
-95.4592
-100.119
-104.779
-109.439
-114.099
-118.76
-123.42
-128.08
-132.74
-137.4
-142.06
-146.721
-151.381
-156.041
-160.701
-165.362
-170.022
-174.682
-179.343
-184.003
-188.663
-193.324
-197.984
-202.645
-207.305
-211.965
-216.626
-221.286
-225.947
-230.607
-235.268
-239.929
-244.589
-249.25
-253.91
-258.571
-263.232
-267.892
-272.553
-277.214
-281.875
-286.535
-291.196
-295.857
-300.518
-305.179
-309.839
-314.5
-319.161
-323.822
-328.483
-333.144
-337.805
-342.466
-347.127
-351.788
-356.449
-361.11
-365.771
-370.432
-375.094
-379.755
-384.416
-389.077
-393.738
-398.4
-403.061
-407.722
-412.383
-417.045
-421.705
-426.366
-431.027
-435.687
-440.346
-445.006
-449.666
-454.326
-458.985
-463.645
-468.305
-472.965
-477.624
-482.284
-486.944
-491.604
-496.263
-500.923
-505.583
-510.243
-514.902
-519.562
-524.222
-528.882
-533.541
-538.201
-542.861
-547.521
-552.18
-556.84
)
;

boundaryField
{
    inlet
    {
        type            cyclic;
    }
    outlet
    {
        type            cyclic;
    }
    top
    {
        type            calculated;
        value           uniform -559.17;
    }
    bottom
    {
        type            calculated;
        value           uniform 0.0685619;
    }
    frontAndBackPlanes
    {
        type            empty;
    }
}


// ************************************************************************* //
