/*--------------------------------*- C++ -*----------------------------------*\
| =========                 |                                                 |
| \\      /  F ield         | OpenFOAM: The Open Source CFD Toolbox           |
|  \\    /   O peration     | Version:  v2006                                 |
|   \\  /    A nd           | Website:  www.openfoam.com                      |
|    \\/     M anipulation  |                                                 |
\*---------------------------------------------------------------------------*/
FoamFile
{
    version     2.0;
    format      ascii;
    class       volScalarField;
    location    "1660";
    object      p_p_total;
}
// * * * * * * * * * * * * * * * * * * * * * * * * * * * * * * * * * * * * * //

dimensions      [1 -1 -2 0 0 0 0];


internalField   nonuniform List<scalar> 
120
(
26.2157
25.9213
25.6271
25.3328
25.0386
24.7444
24.4502
24.1561
23.862
23.568
23.274
22.98
22.686
22.3921
22.0983
21.8044
21.5106
21.2169
20.9232
20.6295
20.3359
20.0423
19.7487
19.4552
19.1617
18.8683
18.5749
18.2816
17.9883
17.6951
17.4019
17.1087
16.8156
16.5226
16.2296
15.9366
15.6437
15.3508
15.058
14.7653
14.4726
14.18
13.8874
13.5949
13.3024
13.01
12.7176
12.4254
12.1331
11.841
11.5489
11.2568
10.9649
10.673
10.3811
10.0894
9.7977
9.50609
9.21456
8.9231
8.63173
8.34043
8.04922
7.7581
7.46706
7.17612
6.88527
6.59452
6.30388
6.01334
5.72291
5.43259
5.1424
4.85233
4.5624
4.27261
3.98298
3.6935
3.4042
3.11509
2.82617
2.53747
2.249
1.96078
1.67283
1.38523
1.09829
0.811357
0.518218
0.214241
0
0
0
0
0
0
0
0
0
0
0
0
0
0
0
0
0
0
0
0
0
0
0
0
0
0
0
0
0
0
)
;

boundaryField
{
    inlet
    {
        type            cyclic;
    }
    outlet
    {
        type            cyclic;
    }
    top
    {
        type            calculated;
        value           uniform 0;
    }
    bottom
    {
        type            calculated;
        value           uniform 26.2157;
    }
    frontAndBackPlanes
    {
        type            empty;
    }
}


// ************************************************************************* //
