/*--------------------------------*- C++ -*----------------------------------*\
| =========                 |                                                 |
| \\      /  F ield         | OpenFOAM: The Open Source CFD Toolbox           |
|  \\    /   O peration     | Version:  v2006                                 |
|   \\  /    A nd           | Website:  www.openfoam.com                      |
|    \\/     M anipulation  |                                                 |
\*---------------------------------------------------------------------------*/
FoamFile
{
    version     2.0;
    format      ascii;
    class       surfaceScalarField;
    location    "1660";
    object      phia;
}
// * * * * * * * * * * * * * * * * * * * * * * * * * * * * * * * * * * * * * //

dimensions      [0 3 -1 0 0 0 0];
oriented        oriented;


internalField   nonuniform List<scalar> 
119
(
-3.20906e-17
-6.45499e-17
-9.73823e-17
-1.30592e-16
-1.64183e-16
-1.98159e-16
-2.32524e-16
-2.67283e-16
-3.02438e-16
-3.37995e-16
-3.73958e-16
-4.10329e-16
-4.47114e-16
-4.84315e-16
-5.21936e-16
-5.59981e-16
-5.98452e-16
-6.37354e-16
-6.76688e-16
-7.16457e-16
-7.56663e-16
-7.97308e-16
-8.38395e-16
-8.79923e-16
-9.21895e-16
-9.64311e-16
-1.00717e-15
-1.05047e-15
-1.09422e-15
-1.13841e-15
-1.18304e-15
-1.2281e-15
-1.27361e-15
-1.31955e-15
-1.36593e-15
-1.41273e-15
-1.45996e-15
-1.50762e-15
-1.55569e-15
-1.60419e-15
-1.65309e-15
-1.70241e-15
-1.75214e-15
-1.80227e-15
-1.85281e-15
-1.90375e-15
-1.95508e-15
-2.00681e-15
-2.05893e-15
-2.11144e-15
-2.16434e-15
-2.21762e-15
-2.27129e-15
-2.32534e-15
-2.37976e-15
-2.43457e-15
-2.48974e-15
-2.54529e-15
-2.6012e-15
-2.65748e-15
-2.71413e-15
-2.77114e-15
-2.82852e-15
-2.88627e-15
-2.94441e-15
-3.00296e-15
-3.06194e-15
-3.1214e-15
-3.18141e-15
-3.24206e-15
-3.30349e-15
-3.36586e-15
-3.42941e-15
-3.49441e-15
-3.5612e-15
-3.63019e-15
-3.70182e-15
-3.77658e-15
-3.85493e-15
-3.93734e-15
-4.02418e-15
-4.11574e-15
-4.21217e-15
-4.31352e-15
-4.4197e-15
-4.53051e-15
-4.64189e-15
-4.76694e-15
-4.994e-15
-1.10967e-14
-1.03645e-12
-7.52932e-11
-5.79049e-11
-8.16935e-11
-8.22724e-11
-8.22745e-11
-8.22764e-11
-8.22766e-11
-8.22766e-11
-8.22766e-11
-8.22766e-11
-8.22766e-11
-8.22766e-11
-8.22766e-11
-8.22766e-11
-8.22766e-11
-8.22766e-11
-8.22766e-11
-8.22766e-11
-8.22766e-11
-8.22766e-11
-8.22766e-11
-8.22766e-11
-8.22766e-11
-8.22766e-11
-8.22766e-11
-8.22766e-11
-8.22565e-11
-8.21697e-11
)
;

boundaryField
{
    inlet
    {
        type            cyclic;
        value           nonuniform List<scalar> 
120
(
-1.14736e-27
-3.44393e-27
-5.74484e-27
-8.02261e-27
-1.03105e-26
-1.26115e-26
-1.49283e-26
-1.72033e-26
-1.94999e-26
-2.18819e-26
-2.42914e-26
-2.67313e-26
-2.92651e-26
-3.18349e-26
-3.44437e-26
-3.70942e-26
-3.97892e-26
-4.25316e-26
-4.53239e-26
-4.8169e-26
-5.10694e-26
-5.40279e-26
-5.70468e-26
-6.01288e-26
-6.35189e-26
-6.69767e-26
-7.05045e-26
-7.3983e-26
-7.75356e-26
-8.11641e-26
-8.46276e-26
-8.79279e-26
-9.13087e-26
-9.47714e-26
-9.83169e-26
-1.01946e-25
-1.05902e-25
-1.10185e-25
-1.1431e-25
-1.18762e-25
-1.22813e-25
-1.2719e-25
-1.31406e-25
-1.35704e-25
-1.4008e-25
-1.44776e-25
-1.49062e-25
-1.53419e-25
-1.57603e-25
-1.62336e-25
-1.6713e-25
-1.71981e-25
-1.76884e-25
-1.81834e-25
-1.86825e-25
-1.92094e-25
-1.97393e-25
-2.02716e-25
-2.08055e-25
-2.12921e-25
-2.17788e-25
-2.2265e-25
-2.27499e-25
-2.32327e-25
-2.37125e-25
-2.41404e-25
-2.46118e-25
-2.50778e-25
-2.55375e-25
-2.599e-25
-2.64345e-25
-2.6822e-25
-2.71998e-25
-2.75671e-25
-2.79231e-25
-2.82671e-25
-2.85983e-25
-2.8916e-25
-2.92196e-25
-2.95083e-25
-2.97816e-25
-3.00389e-25
-3.02798e-25
-3.05037e-25
-3.07102e-25
-3.0899e-25
-3.09744e-25
-3.10315e-25
-3.10701e-25
-3.109e-25
-3.10977e-25
-3.10486e-25
-3.09467e-25
-3.08144e-25
-3.06447e-25
-3.04294e-25
-3.01598e-25
-2.98277e-25
-2.94253e-25
-2.89457e-25
-2.83827e-25
-2.77312e-25
-2.69869e-25
-2.61462e-25
-2.52074e-25
-2.4169e-25
-2.30311e-25
-2.17944e-25
-2.04614e-25
-1.90351e-25
-1.75196e-25
-1.59202e-25
-1.4243e-25
-1.2495e-25
-1.06839e-25
-8.81815e-26
-6.9069e-26
-4.95969e-26
-2.98651e-26
-9.97727e-27
)
;
    }
    outlet
    {
        type            cyclic;
        value           nonuniform List<scalar> 
120
(
1.14736e-27
3.44393e-27
5.74484e-27
8.02261e-27
1.03105e-26
1.26115e-26
1.49283e-26
1.72033e-26
1.94999e-26
2.18819e-26
2.42914e-26
2.67313e-26
2.92651e-26
3.18349e-26
3.44437e-26
3.70942e-26
3.97892e-26
4.25316e-26
4.53239e-26
4.8169e-26
5.10694e-26
5.40279e-26
5.70468e-26
6.01288e-26
6.35189e-26
6.69767e-26
7.05045e-26
7.3983e-26
7.75356e-26
8.11641e-26
8.46276e-26
8.79279e-26
9.13087e-26
9.47714e-26
9.83169e-26
1.01946e-25
1.05902e-25
1.10185e-25
1.1431e-25
1.18762e-25
1.22813e-25
1.2719e-25
1.31406e-25
1.35704e-25
1.4008e-25
1.44776e-25
1.49062e-25
1.53419e-25
1.57603e-25
1.62336e-25
1.6713e-25
1.71981e-25
1.76884e-25
1.81834e-25
1.86825e-25
1.92094e-25
1.97393e-25
2.02716e-25
2.08055e-25
2.12921e-25
2.17788e-25
2.2265e-25
2.27499e-25
2.32327e-25
2.37125e-25
2.41404e-25
2.46118e-25
2.50778e-25
2.55375e-25
2.599e-25
2.64345e-25
2.6822e-25
2.71998e-25
2.75671e-25
2.79231e-25
2.82671e-25
2.85983e-25
2.8916e-25
2.92196e-25
2.95083e-25
2.97816e-25
3.00389e-25
3.02798e-25
3.05037e-25
3.07102e-25
3.0899e-25
3.09744e-25
3.10315e-25
3.10701e-25
3.109e-25
3.10977e-25
3.10486e-25
3.09467e-25
3.08144e-25
3.06447e-25
3.04294e-25
3.01598e-25
2.98277e-25
2.94253e-25
2.89457e-25
2.83827e-25
2.77312e-25
2.69869e-25
2.61462e-25
2.52074e-25
2.4169e-25
2.30311e-25
2.17944e-25
2.04614e-25
1.90351e-25
1.75196e-25
1.59202e-25
1.4243e-25
1.2495e-25
1.06839e-25
8.81815e-26
6.9069e-26
4.95969e-26
2.98651e-26
9.97727e-27
)
;
    }
    top
    {
        type            fixedValue;
        value           uniform 0;
    }
    bottom
    {
        type            fixedValue;
        value           uniform 0;
    }
    frontAndBackPlanes
    {
        type            empty;
        value           nonuniform List<scalar> 0();
    }
}


// ************************************************************************* //
