/*--------------------------------*- C++ -*----------------------------------*\
| =========                 |                                                 |
| \\      /  F ield         | OpenFOAM: The Open Source CFD Toolbox           |
|  \\    /   O peration     | Version:  v2006                                 |
|   \\  /    A nd           | Website:  www.openfoam.com                      |
|    \\/     M anipulation  |                                                 |
\*---------------------------------------------------------------------------*/
FoamFile
{
    version     2.0;
    format      ascii;
    class       surfaceScalarField;
    location    "1660";
    object      phib;
}
// * * * * * * * * * * * * * * * * * * * * * * * * * * * * * * * * * * * * * //

dimensions      [0 3 -1 0 0 0 0];
oriented        oriented;


internalField   nonuniform List<scalar> 
119
(
4.81477e-17
9.68296e-17
1.46052e-16
1.9582e-16
2.46139e-16
2.97014e-16
3.48451e-16
4.00455e-16
4.53032e-16
5.06185e-16
5.59921e-16
6.14245e-16
6.69161e-16
7.24673e-16
7.80787e-16
8.37506e-16
8.94834e-16
9.52775e-16
1.01133e-15
1.0705e-15
1.1303e-15
1.19072e-15
1.25175e-15
1.31342e-15
1.37571e-15
1.43862e-15
1.50215e-15
1.5663e-15
1.63107e-15
1.69646e-15
1.76245e-15
1.82906e-15
1.89626e-15
1.96406e-15
2.03246e-15
2.10144e-15
2.171e-15
2.24113e-15
2.31182e-15
2.38307e-15
2.45488e-15
2.52722e-15
2.6001e-15
2.67351e-15
2.74744e-15
2.82189e-15
2.89683e-15
2.97228e-15
3.04822e-15
3.12464e-15
3.20154e-15
3.2789e-15
3.35673e-15
3.435e-15
3.51371e-15
3.59285e-15
3.67241e-15
3.75238e-15
3.83275e-15
3.9135e-15
3.99463e-15
4.07612e-15
4.15796e-15
4.24016e-15
4.32272e-15
4.40565e-15
4.48898e-15
4.57275e-15
4.65705e-15
4.74198e-15
4.82772e-15
4.91447e-15
5.00254e-15
5.09228e-15
5.18414e-15
5.27864e-15
5.37635e-15
5.47786e-15
5.58374e-15
5.69449e-15
5.81047e-15
5.93182e-15
6.0584e-15
6.18977e-15
6.3251e-15
6.46298e-15
6.59563e-15
6.73705e-15
6.99595e-15
1.04363e-14
2.53781e-13
2.3931e-13
5.05553e-15
3.0278e-20
3.98057e-20
5.26122e-20
6.36733e-20
7.78275e-20
8.64068e-20
9.73712e-20
1.0189e-19
1.09829e-19
1.11054e-19
1.19178e-19
1.23405e-19
1.34531e-19
1.37096e-19
1.43823e-19
1.41507e-19
1.43636e-19
1.37097e-19
1.38438e-19
1.35655e-19
1.40849e-19
1.38002e-19
1.39754e-19
1.33438e-19
1.3174e-19
1.217e-19
)
;

boundaryField
{
    inlet
    {
        type            cyclic;
        value           nonuniform List<scalar> 
120
(
-1.14736e-27
-3.44392e-27
-5.74483e-27
-8.02261e-27
-1.03105e-26
-1.26115e-26
-1.49287e-26
-1.72033e-26
-1.94993e-26
-2.18819e-26
-2.42914e-26
-2.67304e-26
-2.92651e-26
-3.18349e-26
-3.44437e-26
-3.70942e-26
-3.97892e-26
-4.25316e-26
-4.53239e-26
-4.8169e-26
-5.10694e-26
-5.40279e-26
-5.70468e-26
-6.01196e-26
-6.35189e-26
-6.69768e-26
-7.05099e-26
-7.3983e-26
-7.75356e-26
-8.11764e-26
-8.46405e-26
-8.79279e-26
-9.13087e-26
-9.47714e-26
-9.83168e-26
-1.0193e-25
-1.05886e-25
-1.10201e-25
-1.14293e-25
-1.18797e-25
-1.22795e-25
-1.27209e-25
-1.31407e-25
-1.35704e-25
-1.4006e-25
-1.44818e-25
-1.49062e-25
-1.53441e-25
-1.57557e-25
-1.62336e-25
-1.6713e-25
-1.71981e-25
-1.76884e-25
-1.81833e-25
-1.86798e-25
-1.92094e-25
-1.97393e-25
-2.02716e-25
-2.08114e-25
-2.12921e-25
-2.17788e-25
-2.2265e-25
-2.27499e-25
-2.32327e-25
-2.37192e-25
-2.41336e-25
-2.46118e-25
-2.50778e-25
-2.55375e-25
-2.599e-25
-2.6442e-25
-2.6822e-25
-2.71998e-25
-2.75671e-25
-2.79231e-25
-2.82671e-25
-2.85983e-25
-2.8916e-25
-2.92196e-25
-2.95083e-25
-2.97816e-25
-3.00389e-25
-3.02798e-25
-3.05037e-25
-3.07103e-25
-3.09193e-25
-3.09745e-25
-3.10315e-25
-3.10701e-25
-3.109e-25
-3.10973e-25
-3.10484e-25
-3.09465e-25
-3.08143e-25
-3.06447e-25
-3.04294e-25
-3.01598e-25
-2.98277e-25
-2.94253e-25
-2.89457e-25
-2.83828e-25
-2.77313e-25
-2.69869e-25
-2.61464e-25
-2.52075e-25
-2.41691e-25
-2.30311e-25
-2.17945e-25
-2.04615e-25
-1.90352e-25
-1.75197e-25
-1.59204e-25
-1.42432e-25
-1.24952e-25
-1.06841e-25
-8.81835e-26
-6.9071e-26
-4.9599e-26
-2.98672e-26
-9.97836e-27
)
;
    }
    outlet
    {
        type            cyclic;
        value           nonuniform List<scalar> 
120
(
1.14736e-27
3.44392e-27
5.74483e-27
8.02261e-27
1.03105e-26
1.26115e-26
1.49287e-26
1.72033e-26
1.94993e-26
2.18819e-26
2.42914e-26
2.67304e-26
2.92651e-26
3.18349e-26
3.44437e-26
3.70942e-26
3.97892e-26
4.25316e-26
4.53239e-26
4.8169e-26
5.10694e-26
5.40279e-26
5.70468e-26
6.01196e-26
6.35189e-26
6.69768e-26
7.05099e-26
7.3983e-26
7.75356e-26
8.11764e-26
8.46405e-26
8.79279e-26
9.13087e-26
9.47714e-26
9.83168e-26
1.0193e-25
1.05886e-25
1.10201e-25
1.14293e-25
1.18797e-25
1.22795e-25
1.27209e-25
1.31407e-25
1.35704e-25
1.4006e-25
1.44818e-25
1.49062e-25
1.53441e-25
1.57557e-25
1.62336e-25
1.6713e-25
1.71981e-25
1.76884e-25
1.81833e-25
1.86798e-25
1.92094e-25
1.97393e-25
2.02716e-25
2.08114e-25
2.12921e-25
2.17788e-25
2.2265e-25
2.27499e-25
2.32327e-25
2.37192e-25
2.41336e-25
2.46118e-25
2.50778e-25
2.55375e-25
2.599e-25
2.6442e-25
2.6822e-25
2.71998e-25
2.75671e-25
2.79231e-25
2.82671e-25
2.85983e-25
2.8916e-25
2.92196e-25
2.95083e-25
2.97816e-25
3.00389e-25
3.02798e-25
3.05037e-25
3.07103e-25
3.09193e-25
3.09745e-25
3.10315e-25
3.10701e-25
3.109e-25
3.10973e-25
3.10484e-25
3.09465e-25
3.08143e-25
3.06447e-25
3.04294e-25
3.01598e-25
2.98277e-25
2.94253e-25
2.89457e-25
2.83828e-25
2.77313e-25
2.69869e-25
2.61464e-25
2.52075e-25
2.41691e-25
2.30311e-25
2.17945e-25
2.04615e-25
1.90352e-25
1.75197e-25
1.59204e-25
1.42432e-25
1.24952e-25
1.06841e-25
8.81835e-26
6.9071e-26
4.9599e-26
2.98672e-26
9.97836e-27
)
;
    }
    top
    {
        type            fixedValue;
        value           uniform 0;
    }
    bottom
    {
        type            fixedValue;
        value           uniform 0;
    }
    frontAndBackPlanes
    {
        type            empty;
        value           nonuniform List<scalar> 0();
    }
}


// ************************************************************************* //
