/*--------------------------------*- C++ -*----------------------------------*\
| =========                 |                                                 |
| \\      /  F ield         | OpenFOAM: The Open Source CFD Toolbox           |
|  \\    /   O peration     | Version:  v2006                                 |
|   \\  /    A nd           | Website:  www.openfoam.com                      |
|    \\/     M anipulation  |                                                 |
\*---------------------------------------------------------------------------*/
FoamFile
{
    version     2.0;
    format      ascii;
    class       volTensorField;
    location    "1660";
    object      Taua;
}
// * * * * * * * * * * * * * * * * * * * * * * * * * * * * * * * * * * * * * //

dimensions      [1 -1 -2 0 0 0 0];


internalField   nonuniform List<tensor> 
120
(
(6.2476e-05 0 0 1.60695e-14 -0.000124952 0 0 0 6.2476e-05)
(6.30359e-05 0 0 1.60912e-14 -0.000126072 0 0 0 6.30359e-05)
(6.38356e-05 0 0 1.60254e-14 -0.000127671 0 0 0 6.38356e-05)
(6.45803e-05 0 0 1.59799e-14 -0.000129161 0 0 0 6.45803e-05)
(6.53162e-05 0 0 1.6061e-14 -0.000130632 0 0 0 6.53162e-05)
(6.60641e-05 0 0 1.61624e-14 -0.000132128 0 0 0 6.60641e-05)
(6.68213e-05 0 0 1.60714e-14 -0.000133643 0 0 0 6.68213e-05)
(6.75861e-05 0 0 1.60006e-14 -0.000135172 0 0 0 6.75861e-05)
(6.83586e-05 0 0 1.63753e-14 -0.000136717 0 0 0 6.83586e-05)
(6.91389e-05 0 0 1.67702e-14 -0.000138278 0 0 0 6.91389e-05)
(6.99269e-05 0 0 1.69727e-14 -0.000139854 0 0 0 6.99269e-05)
(7.07224e-05 0 0 1.74077e-14 -0.000141445 0 0 0 7.07224e-05)
(7.15253e-05 0 0 1.78628e-14 -0.000143051 0 0 0 7.15253e-05)
(7.23354e-05 0 0 1.81253e-14 -0.000144671 0 0 0 7.23354e-05)
(7.31524e-05 0 0 1.84075e-14 -0.000146305 0 0 0 7.31524e-05)
(7.39761e-05 0 0 1.87094e-14 -0.000147952 0 0 0 7.39761e-05)
(7.48059e-05 0 0 1.90307e-14 -0.000149612 0 0 0 7.48059e-05)
(7.56416e-05 0 0 1.93713e-14 -0.000151283 0 0 0 7.56416e-05)
(7.64827e-05 0 0 1.9731e-14 -0.000152965 0 0 0 7.64827e-05)
(7.73287e-05 0 0 2.01094e-14 -0.000154657 0 0 0 7.73287e-05)
(7.8179e-05 0 0 2.05061e-14 -0.000156358 0 0 0 7.8179e-05)
(7.90331e-05 0 0 2.09209e-14 -0.000158066 0 0 0 7.90331e-05)
(7.98904e-05 0 0 2.13533e-14 -0.000159781 0 0 0 7.98904e-05)
(8.07502e-05 0 0 2.26523e-14 -0.0001615 0 0 0 8.07502e-05)
(8.16117e-05 0 0 2.39677e-14 -0.000163223 0 0 0 8.16117e-05)
(8.24744e-05 0 0 2.44496e-14 -0.000164949 0 0 0 8.24744e-05)
(8.33375e-05 0 0 2.4522e-14 -0.000166675 0 0 0 8.33375e-05)
(8.42002e-05 0 0 2.46088e-14 -0.0001684 0 0 0 8.42002e-05)
(8.50619e-05 0 0 2.51337e-14 -0.000170124 0 0 0 8.50619e-05)
(8.59218e-05 0 0 2.48222e-14 -0.000171844 0 0 0 8.59218e-05)
(8.67792e-05 0 0 2.36733e-14 -0.000173558 0 0 0 8.67792e-05)
(8.76334e-05 0 0 2.33838e-14 -0.000175267 0 0 0 8.76334e-05)
(8.84839e-05 0 0 2.39523e-14 -0.000176968 0 0 0 8.84839e-05)
(8.93301e-05 0 0 2.45287e-14 -0.00017866 0 0 0 8.93301e-05)
(9.01714e-05 0 0 2.51112e-14 -0.000180343 0 0 0 9.01714e-05)
(9.10074e-05 1.15042e-18 0 2.6547e-14 -0.000182015 0 0 0 9.10074e-05)
(9.18379e-05 0 0 2.8835e-14 -0.000183676 0 0 0 9.18379e-05)
(9.26624e-05 0 0 2.94278e-14 -0.000185325 0 0 0 9.26624e-05)
(9.34809e-05 0 0 3.00196e-14 -0.000186962 0 0 0 9.34809e-05)
(9.42932e-05 0 0 2.97614e-14 -0.000188586 0 0 0 9.42932e-05)
(9.50993e-05 0 0 2.94985e-14 -0.000190199 0 0 0 9.50993e-05)
(9.58993e-05 0 0 3.00774e-14 -0.000191799 0 0 0 9.58993e-05)
(9.66933e-05 0 0 2.97997e-14 -0.000193387 0 0 0 9.66933e-05)
(9.74816e-05 0 0 3.03588e-14 -0.000194963 0 0 0 9.74816e-05)
(9.82643e-05 0 0 3.1752e-14 -0.000196529 0 0 0 9.82643e-05)
(9.90417e-05 0 0 3.14346e-14 -0.000198083 0 0 0 9.90417e-05)
(9.98142e-05 0 0 3.02514e-14 -0.000199628 0 0 0 9.98142e-05)
(0.000100582 0 0 2.9895e-14 -0.000201164 0 0 0 0.000100582)
(0.000101345 0 0 3.12091e-14 -0.00020269 0 0 0 0.000101345)
(0.000102104 0 0 3.33442e-14 -0.000204208 0 0 0 0.000102104)
(0.000102858 0 0 3.37567e-14 -0.000205716 0 0 0 0.000102858)
(0.000103608 0 0 3.41377e-14 -0.000207216 0 0 0 0.000103608)
(0.000104353 0 0 3.44848e-14 -0.000208707 0 0 0 0.000104353)
(0.000105094 0 0 3.47953e-14 -0.000210188 0 0 0 0.000105094)
(0.00010583 0 0 3.59129e-14 -0.00021166 0 0 0 0.00010583)
(0.000106561 0 0 3.6989e-14 -0.000213122 0 0 0 0.000106561)
(0.000107286 0 0 3.7175e-14 -0.000214573 0 0 0 0.000107286)
(0.000108007 0 0 3.73153e-14 -0.000216014 0 0 0 0.000108007)
(0.000108723 -2.30085e-18 0 3.57163e-14 -0.000217446 0 0 0 0.000108723)
(0.000109435 0 0 3.40657e-14 -0.00021887 0 0 0 0.000109435)
(0.000110145 0 0 3.4054e-14 -0.000220289 0 0 0 0.000110145)
(0.000110855 0 0 3.3989e-14 -0.000221711 0 0 0 0.000110855)
(0.000111571 0 0 3.38687e-14 -0.000223142 0 0 0 0.000111571)
(0.000112299 0 0 3.36917e-14 -0.000224599 0 0 0 0.000112299)
(0.00011305 0 0 3.17681e-14 -0.0002261 0 0 0 0.00011305)
(0.000113838 0 0 3.14744e-14 -0.000227676 0 0 0 0.000113838)
(0.000114686 0 0 3.28103e-14 -0.000229372 0 0 0 0.000114686)
(0.000115623 0 0 3.23983e-14 -0.000231245 0 0 0 0.000115623)
(0.00011669 0 0 3.19267e-14 -0.000233379 0 0 0 0.00011669)
(0.000117941 0 0 3.13955e-14 -0.000235881 0 0 0 0.000117941)
(0.000119444 0 0 2.91195e-14 -0.000238888 0 0 0 0.000119444)
(0.000121285 0 0 2.67851e-14 -0.00024257 0 0 0 0.000121285)
(0.000123562 0 0 2.60792e-14 -0.000247125 0 0 0 0.000123562)
(0.000126388 0 0 2.53174e-14 -0.000252775 0 0 0 0.000126388)
(0.000129877 0 0 2.4501e-14 -0.000259754 0 0 0 0.000129877)
(0.000134142 0 0 2.36318e-14 -0.000268285 0 0 0 0.000134142)
(0.000139277 0 0 2.27118e-14 -0.000278554 0 0 0 0.000139277)
(0.000145337 0 0 2.17433e-14 -0.000290673 0 0 0 0.000145337)
(0.000152328 0 0 2.07287e-14 -0.000304656 0 0 0 0.000152328)
(0.000160224 0 0 1.96707e-14 -0.000320447 0 0 0 0.000160224)
(0.000168931 0 0 1.85723e-14 -0.000337862 0 0 0 0.000168931)
(0.000177883 0 0 1.74364e-14 -0.000355767 0 0 0 0.000177883)
(0.000186166 0 0 1.62663e-14 -0.000372331 0 0 0 0.000186166)
(0.000197658 0 0 1.50654e-14 -0.000395317 0 0 0 0.000197658)
(0.000223189 0 0 1.3837e-14 -0.000446378 0 0 0 0.000223189)
(0.000215158 0 0 9.24767e-15 -0.000430317 0 0 0 0.000215158)
(1.71803e-05 0 0 4.63814e-15 -3.43606e-05 0 0 0 1.71803e-05)
(7.79405e-05 0 0 3.34912e-15 -0.000155881 0 0 0 7.79405e-05)
(0.00278306 0 0 2.04696e-15 -0.00556613 0 0 0 0.00278306)
(0.00688405 0 0 9.65428e-16 -0.0137681 0 0 0 0.00688405)
(1.41581e-05 0 0 -5.61216e-22 -2.83161e-05 0 0 0 1.41581e-05)
(3.91011e-07 0 0 -3.25609e-23 -7.82021e-07 0 0 0 3.91011e-07)
(5.45058e-09 0 0 -1.43099e-24 -1.09012e-08 0 0 0 5.45058e-09)
(1.60555e-19 0 0 -1.03684e-34 -3.2111e-19 0 0 0 1.60555e-19)
(2.47721e-29 0 0 -2.73272e-44 -4.95441e-29 0 0 0 2.47721e-29)
(1.73832e-40 0 0 -2.04811e-53 -3.47665e-40 0 0 0 1.73832e-40)
(-1.39227e-50 0 0 -1.93963e-62 2.78454e-50 0 0 0 -1.39227e-50)
(8.59323e-60 0 0 -1.93698e-71 -1.71865e-59 0 0 0 8.59323e-60)
(7.85037e-70 0 0 -2.1347e-80 -1.57007e-69 0 0 0 7.85037e-70)
(-4.82654e-79 0 0 -2.4913e-89 9.65308e-79 0 0 0 -4.82654e-79)
(2.62767e-89 0 0 -3.31216e-98 -5.25535e-89 0 0 0 2.62767e-89)
(-7.13316e-99 0 0 -4.84063e-107 1.42663e-98 0 0 0 -7.13316e-99)
(1.09691e-107 0 0 -8.08198e-116 -2.19381e-107 0 0 0 1.09691e-107)
(-8.05166e-117 0 0 -1.43257e-124 1.61033e-116 0 0 0 -8.05166e-117)
(-6.54521e-127 0 0 -2.83843e-133 1.30904e-126 0 0 0 -6.54521e-127)
(8.08204e-136 0 0 -6.06959e-142 -1.61641e-135 0 0 0 8.08204e-136)
(5.31135e-145 0 0 -1.48894e-150 -1.06227e-144 0 0 0 5.31135e-145)
(-9.4723e-154 0 0 -3.95689e-159 1.89446e-153 0 0 0 -9.4723e-154)
(-6.57672e-163 0 0 -1.1839e-167 1.31534e-162 0 0 0 -6.57672e-163)
(9.4311e-172 0 0 -3.75447e-176 -1.88622e-171 0 0 0 9.4311e-172)
(5.64816e-180 0 0 -1.30455e-184 -1.12963e-179 0 0 0 5.64816e-180)
(1.25934e-188 0 0 -4.65748e-193 -2.51869e-188 0 0 0 1.25934e-188)
(-2.83178e-197 0 0 -1.80148e-201 5.66355e-197 0 0 0 -2.83178e-197)
(-3.45976e-203 0 0 -7.2301e-210 6.91951e-203 0 0 0 -3.45976e-203)
(-2.47241e-211 0 0 -3.13674e-218 4.94481e-211 0 0 0 -2.47241e-211)
(-1.91221e-218 0 0 -1.35874e-226 3.82441e-218 0 0 0 -1.91221e-218)
(-4.31927e-224 0 0 -5.98275e-235 8.63855e-224 0 0 0 -4.31927e-224)
(-4.15873e-232 0 0 -2.49786e-243 8.31746e-232 0 0 0 -4.15873e-232)
(-1.22055e-239 0 0 -1.02274e-251 2.44109e-239 0 0 0 -1.22055e-239)
(-4.43826e-245 0 0 -3.87339e-260 8.87651e-245 0 0 0 -4.43826e-245)
)
;

boundaryField
{
    inlet
    {
        type            cyclic;
    }
    outlet
    {
        type            cyclic;
    }
    top
    {
        type            extrapolatedCalculated;
        value           uniform (-8.86805e-245 0 0 -3.87988e-260 1.77361e-244 0 0 0 -8.86805e-245);
    }
    bottom
    {
        type            extrapolatedCalculated;
        value           uniform (6.23357e-05 0 0 1.6063e-14 -0.000124671 0 0 0 6.23357e-05);
    }
    frontAndBackPlanes
    {
        type            empty;
    }
}


// ************************************************************************* //
