/*--------------------------------*- C++ -*----------------------------------*\
| =========                 |                                                 |
| \\      /  F ield         | OpenFOAM: The Open Source CFD Toolbox           |
|  \\    /   O peration     | Version:  v2006                                 |
|   \\  /    A nd           | Website:  www.openfoam.com                      |
|    \\/     M anipulation  |                                                 |
\*---------------------------------------------------------------------------*/
FoamFile
{
    version     2.0;
    format      ascii;
    class       volTensorField;
    location    "1660";
    object      Taub;
}
// * * * * * * * * * * * * * * * * * * * * * * * * * * * * * * * * * * * * * //

dimensions      [1 -1 -2 0 0 0 0];


internalField   nonuniform List<tensor> 
120
(
(-4.48087e-09 0 0 7.6518e-19 8.96175e-09 0 0 0 -4.48087e-09)
(-4.20514e-09 0 0 7.66177e-19 8.41029e-09 0 0 0 -4.20514e-09)
(-4.85613e-09 0 0 7.6301e-19 9.71226e-09 0 0 0 -4.85613e-09)
(-4.6077e-09 0 0 7.60808e-19 9.21541e-09 0 0 0 -4.6077e-09)
(-4.65791e-09 0 0 7.64631e-19 9.31581e-09 0 0 0 -4.65791e-09)
(-4.70955e-09 0 0 7.69484e-19 9.4191e-09 0 0 0 -4.70955e-09)
(-4.76129e-09 0 0 7.65049e-19 9.52258e-09 0 0 0 -4.76129e-09)
(-4.81352e-09 0 0 7.6148e-19 9.62704e-09 0 0 0 -4.81352e-09)
(-4.86623e-09 0 0 7.7944e-19 9.73247e-09 0 0 0 -4.86623e-09)
(-4.91942e-09 0 0 7.98294e-19 9.83883e-09 0 0 0 -4.91942e-09)
(-4.97306e-09 0 0 8.07638e-19 9.94612e-09 0 0 0 -4.97306e-09)
(-5.02715e-09 0 0 8.28454e-19 1.00543e-08 0 0 0 -5.02715e-09)
(-5.08167e-09 0 0 8.50219e-19 1.01633e-08 0 0 0 -5.08167e-09)
(-5.13661e-09 0 0 8.6251e-19 1.02732e-08 0 0 0 -5.13661e-09)
(-5.19194e-09 0 0 8.75891e-19 1.03839e-08 0 0 0 -5.19194e-09)
(-5.24764e-09 0 0 8.90206e-19 1.04953e-08 0 0 0 -5.24764e-09)
(-5.30367e-09 0 0 9.05446e-19 1.06073e-08 0 0 0 -5.30367e-09)
(-5.36001e-09 0 0 9.21599e-19 1.072e-08 0 0 0 -5.36001e-09)
(-5.41662e-09 0 0 9.38655e-19 1.08332e-08 0 0 0 -5.41662e-09)
(-5.47346e-09 0 0 9.566e-19 1.09469e-08 0 0 0 -5.47346e-09)
(-5.53049e-09 0 0 9.75417e-19 1.1061e-08 0 0 0 -5.53049e-09)
(-5.58766e-09 0 0 9.95082e-19 1.11753e-08 0 0 0 -5.58766e-09)
(-5.64492e-09 0 0 1.01406e-18 1.12898e-08 0 0 0 -5.64492e-09)
(-5.70223e-09 0 0 1.07731e-18 1.14045e-08 0 0 0 -5.70223e-09)
(-5.75953e-09 0 0 1.14133e-18 1.15191e-08 0 0 0 -5.75953e-09)
(-5.81676e-09 0 0 1.16353e-18 1.16335e-08 0 0 0 -5.81676e-09)
(-5.87386e-09 0 0 1.166e-18 1.17477e-08 0 0 0 -5.87386e-09)
(-5.93079e-09 0 0 1.16917e-18 1.18616e-08 0 0 0 -5.93079e-09)
(-5.98748e-09 0 0 1.19698e-18 1.1975e-08 0 0 0 -5.98748e-09)
(-6.04388e-09 0 0 1.18217e-18 1.20878e-08 0 0 0 -6.04388e-09)
(-6.09993e-09 0 0 1.1233e-18 1.21999e-08 0 0 0 -6.09993e-09)
(-6.15558e-09 0 0 1.10937e-18 1.23112e-08 0 0 0 -6.15558e-09)
(-6.21079e-09 0 0 1.13844e-18 1.24216e-08 0 0 0 -6.21079e-09)
(-6.26549e-09 0 0 1.16575e-18 1.2531e-08 0 0 0 -6.26549e-09)
(-6.31965e-09 0 0 1.19076e-18 1.26393e-08 0 0 0 -6.31965e-09)
(-6.37322e-09 -5.46672e-23 0 1.25884e-18 1.27464e-08 0 0 0 -6.37322e-09)
(-6.42618e-09 0 0 1.37544e-18 1.28524e-08 0 0 0 -6.42618e-09)
(-6.47849e-09 0 0 1.39802e-18 1.2957e-08 0 0 0 -6.47849e-09)
(-6.53015e-09 0 0 1.42931e-18 1.30603e-08 0 0 0 -6.53015e-09)
(-6.58112e-09 0 0 1.4136e-18 1.31622e-08 0 0 0 -6.58112e-09)
(-6.6314e-09 0 0 1.39844e-18 1.32628e-08 0 0 0 -6.6314e-09)
(-6.68097e-09 0 0 1.43158e-18 1.33619e-08 0 0 0 -6.68097e-09)
(-6.72983e-09 0 0 1.41211e-18 1.34597e-08 0 0 0 -6.72983e-09)
(-6.77798e-09 0 0 1.43826e-18 1.3556e-08 0 0 0 -6.77798e-09)
(-6.82542e-09 0 0 1.51477e-18 1.36508e-08 0 0 0 -6.82542e-09)
(-6.87215e-09 0 0 1.49595e-18 1.37443e-08 0 0 0 -6.87215e-09)
(-6.91818e-09 0 0 1.43283e-18 1.38364e-08 0 0 0 -6.91818e-09)
(-6.96351e-09 0 0 1.41142e-18 1.3927e-08 0 0 0 -6.96351e-09)
(-7.00812e-09 0 0 1.47763e-18 1.40162e-08 0 0 0 -7.00812e-09)
(-7.05199e-09 0 0 1.5902e-18 1.4104e-08 0 0 0 -7.05199e-09)
(-7.09509e-09 0 0 1.60199e-18 1.41902e-08 0 0 0 -7.09509e-09)
(-7.13741e-09 0 0 1.61987e-18 1.42748e-08 0 0 0 -7.13741e-09)
(-7.1789e-09 0 0 1.63614e-18 1.43578e-08 0 0 0 -7.1789e-09)
(-7.21953e-09 0 0 1.64625e-18 1.44391e-08 0 0 0 -7.21953e-09)
(-7.25923e-09 0 0 1.70353e-18 1.45185e-08 0 0 0 -7.25923e-09)
(-7.29797e-09 0 0 1.75883e-18 1.45959e-08 0 0 0 -7.29797e-09)
(-7.33569e-09 0 0 1.76304e-18 1.46714e-08 0 0 0 -7.33569e-09)
(-7.37234e-09 0 0 1.77917e-18 1.47447e-08 0 0 0 -7.37234e-09)
(-7.40788e-09 2.18174e-22 0 1.69337e-18 1.48158e-08 0 0 0 -7.40788e-09)
(-7.44234e-09 0 0 1.60514e-18 1.48847e-08 0 0 0 -7.44234e-09)
(-7.47576e-09 0 0 1.61408e-18 1.49515e-08 0 0 0 -7.47576e-09)
(-7.50828e-09 0 0 1.61082e-18 1.50166e-08 0 0 0 -7.50828e-09)
(-7.54014e-09 0 0 1.60493e-18 1.50803e-08 0 0 0 -7.54014e-09)
(-7.57176e-09 0 0 1.60727e-18 1.51435e-08 0 0 0 -7.57176e-09)
(-7.60375e-09 0 0 1.49359e-18 1.52075e-08 0 0 0 -7.60375e-09)
(-7.63705e-09 0 0 1.47966e-18 1.52741e-08 0 0 0 -7.63705e-09)
(-7.67305e-09 0 0 1.56497e-18 1.53461e-08 0 0 0 -7.67305e-09)
(-7.7137e-09 0 0 1.53401e-18 1.54274e-08 0 0 0 -7.7137e-09)
(-7.76163e-09 0 0 1.5114e-18 1.55233e-08 0 0 0 -7.76163e-09)
(-7.82034e-09 0 0 1.49834e-18 1.56407e-08 0 0 0 -7.82034e-09)
(-7.89425e-09 0 0 1.37791e-18 1.57885e-08 0 0 0 -7.89425e-09)
(-7.9887e-09 0 0 1.25477e-18 1.59774e-08 0 0 0 -7.9887e-09)
(-8.10989e-09 0 0 1.23346e-18 1.62198e-08 0 0 0 -8.10989e-09)
(-8.26455e-09 0 0 1.1972e-18 1.65291e-08 0 0 0 -8.26455e-09)
(-8.45945e-09 0 0 1.15831e-18 1.69189e-08 0 0 0 -8.45945e-09)
(-8.70065e-09 0 0 1.11692e-18 1.74013e-08 0 0 0 -8.70065e-09)
(-8.99249e-09 0 0 1.07314e-18 1.7985e-08 0 0 0 -8.99249e-09)
(-9.33653e-09 0 0 1.02706e-18 1.86731e-08 0 0 0 -9.33653e-09)
(-9.73022e-09 0 0 9.7882e-19 1.94604e-08 0 0 0 -9.73022e-09)
(-1.01643e-08 0 0 9.28536e-19 2.03285e-08 0 0 0 -1.01643e-08)
(-1.0623e-08 0 0 8.76348e-19 2.1246e-08 0 0 0 -1.0623e-08)
(-1.11031e-08 0 0 8.22403e-19 2.22062e-08 0 0 0 -1.11031e-08)
(-1.16098e-08 0 0 7.66855e-19 2.32196e-08 0 0 0 -1.16098e-08)
(-1.19166e-08 0 0 7.1002e-19 2.38331e-08 0 0 0 -1.19166e-08)
(-1.14562e-08 0 0 6.8511e-19 2.29125e-08 0 0 0 -1.14562e-08)
(-1.21569e-08 0 0 4.35168e-19 2.43138e-08 0 0 0 -1.21569e-08)
(-2.17972e-08 0 0 1.84599e-19 4.35945e-08 0 0 0 -2.17972e-08)
(-2.10818e-08 0 0 1.57132e-19 4.21636e-08 0 0 0 -2.10818e-08)
(2.53793e-07 0 0 9.60282e-20 -5.07586e-07 0 0 0 2.53793e-07)
(-1.93174e-06 0 0 4.44767e-20 3.86348e-06 0 0 0 -1.93174e-06)
(4.51179e-06 0 0 -5.4558e-20 -9.02358e-06 0 0 0 4.51179e-06)
(-3.31656e-05 0 0 -1.0206e-19 6.63311e-05 0 0 0 -3.31656e-05)
(-4.11735e-06 0 0 -1.56143e-19 8.2347e-06 0 0 0 -4.11735e-06)
(3.60745e-05 0 0 -2.01185e-19 -7.21489e-05 0 0 0 3.60745e-05)
(2.11835e-06 0 0 -2.56594e-19 -4.2367e-06 0 0 0 2.11835e-06)
(-2.68023e-06 0 0 -3.2321e-19 5.36046e-06 0 0 0 -2.68023e-06)
(-2.92312e-07 0 0 -4.01072e-19 5.84624e-07 0 0 0 -2.92312e-07)
(1.97593e-07 0 0 -4.89603e-19 -3.95185e-07 0 0 0 1.97593e-07)
(1.9837e-08 0 0 -5.87904e-19 -3.96739e-08 0 0 0 1.9837e-08)
(-1.31702e-08 0 0 -6.94934e-19 2.63405e-08 0 0 0 -1.31702e-08)
(8.00442e-10 0 0 -8.0954e-19 -1.60088e-09 0 0 0 8.00442e-10)
(-1.45426e-10 0 0 -9.30485e-19 2.90853e-10 0 0 0 -1.45426e-10)
(1.51776e-10 0 0 -1.05646e-18 -3.03552e-10 0 0 0 1.51776e-10)
(-6.58897e-11 0 0 -1.18611e-18 1.31779e-10 0 0 0 -6.58897e-11)
(-2.55831e-12 0 0 -1.31801e-18 5.11662e-12 0 0 0 -2.55831e-12)
(1.83744e-12 0 0 -1.45074e-18 -3.67488e-12 0 0 0 1.83744e-12)
(5.88268e-13 0 0 -1.58283e-18 -1.17654e-12 0 0 0 5.88268e-13)
(-3.88166e-13 0 0 -1.71285e-18 7.76331e-13 0 0 0 -3.88166e-13)
(-9.46601e-14 0 0 -1.83935e-18 1.8932e-13 0 0 0 -9.46601e-14)
(4.56395e-14 0 0 -1.96094e-18 -9.12791e-14 0 0 0 4.56395e-14)
(8.22081e-14 0 0 -2.07628e-18 -1.64416e-13 0 0 0 8.22081e-14)
(5.34852e-14 0 0 -2.1841e-18 -1.0697e-13 0 0 0 5.34852e-14)
(-4.48664e-15 0 0 -2.28319e-18 8.97329e-15 0 0 0 -4.48664e-15)
(-3.36618e-14 0 0 -2.37245e-18 6.73236e-14 0 0 0 -3.36618e-14)
(-9.68964e-16 0 0 -2.4509e-18 1.93793e-15 0 0 0 -9.68964e-16)
(5.26154e-14 0 0 -2.51765e-18 -1.05231e-13 0 0 0 5.26154e-14)
(1.58084e-13 0 0 -2.57198e-18 -3.16167e-13 0 0 0 1.58084e-13)
(1.54697e-13 0 0 -2.61326e-18 -3.09395e-13 0 0 0 1.54697e-13)
(7.41863e-13 0 0 -2.64105e-18 -1.48373e-12 0 0 0 7.41863e-13)
(4.03037e-12 0 0 -2.65604e-18 -8.06074e-12 0 0 0 4.03037e-12)
)
;

boundaryField
{
    inlet
    {
        type            cyclic;
    }
    outlet
    {
        type            cyclic;
    }
    top
    {
        type            extrapolatedCalculated;
        value           uniform (6.64348e-12 0 0 -2.66056e-18 -1.3287e-11 0 0 0 6.64348e-12);
    }
    bottom
    {
        type            extrapolatedCalculated;
        value           uniform (-5.6803e-09 0 0 7.6487e-19 1.13606e-08 0 0 0 -5.6803e-09);
    }
    frontAndBackPlanes
    {
        type            empty;
    }
}


// ************************************************************************* //
