/*--------------------------------*- C++ -*----------------------------------*\
| =========                 |                                                 |
| \\      /  F ield         | OpenFOAM: The Open Source CFD Toolbox           |
|  \\    /   O peration     | Version:  v2006                                 |
|   \\  /    A nd           | Website:  www.openfoam.com                      |
|    \\/     M anipulation  |                                                 |
\*---------------------------------------------------------------------------*/
FoamFile
{
    version     2.0;
    format      ascii;
    class       volVectorField;
    location    "1660";
    object      Ua;
}
// * * * * * * * * * * * * * * * * * * * * * * * * * * * * * * * * * * * * * //

dimensions      [0 1 -1 0 0 0 0];


internalField   nonuniform List<vector> 
120
(
(3.82452e-21 -4.45255e-11 0)
(1.14798e-20 -1.33977e-10 0)
(1.91495e-20 -2.24628e-10 0)
(2.6742e-20 -3.16365e-10 0)
(3.43684e-20 -4.09143e-10 0)
(4.20382e-20 -5.02982e-10 0)
(4.97611e-20 -5.97898e-10 0)
(5.73443e-20 -6.939e-10 0)
(6.49998e-20 -7.91001e-10 0)
(7.29398e-20 -8.8921e-10 0)
(8.09714e-20 -9.8854e-10 0)
(8.91042e-20 -1.089e-09 0)
(9.75502e-20 -1.1906e-09 0)
(1.06116e-19 -1.29336e-09 0)
(1.14812e-19 -1.39728e-09 0)
(1.23647e-19 -1.50237e-09 0)
(1.32631e-19 -1.60864e-09 0)
(1.41772e-19 -1.7161e-09 0)
(1.5108e-19 -1.82476e-09 0)
(1.60563e-19 -1.93462e-09 0)
(1.70231e-19 -2.04569e-09 0)
(1.80093e-19 -2.15799e-09 0)
(1.90156e-19 -2.2715e-09 0)
(2.00429e-19 -2.38625e-09 0)
(2.1173e-19 -2.50222e-09 0)
(2.23256e-19 -2.61942e-09 0)
(2.35015e-19 -2.73786e-09 0)
(2.4661e-19 -2.85753e-09 0)
(2.58452e-19 -2.97843e-09 0)
(2.70547e-19 -3.10056e-09 0)
(2.82092e-19 -3.22392e-09 0)
(2.93093e-19 -3.3485e-09 0)
(3.04362e-19 -3.4743e-09 0)
(3.15905e-19 -3.60131e-09 0)
(3.27723e-19 -3.72953e-09 0)
(3.3982e-19 -3.85895e-09 0)
(3.53006e-19 -3.98955e-09 0)
(3.67282e-19 -4.12134e-09 0)
(3.81032e-19 -4.2543e-09 0)
(3.95872e-19 -4.38843e-09 0)
(4.09376e-19 -4.52371e-09 0)
(4.23966e-19 -4.66014e-09 0)
(4.38022e-19 -4.79771e-09 0)
(4.52346e-19 -4.93641e-09 0)
(4.66935e-19 -5.07623e-09 0)
(4.82586e-19 -5.21716e-09 0)
(4.96872e-19 -5.3592e-09 0)
(5.11397e-19 -5.50234e-09 0)
(5.25344e-19 -5.64658e-09 0)
(5.4112e-19 -5.7919e-09 0)
(5.571e-19 -5.9383e-09 0)
(5.73269e-19 -6.08578e-09 0)
(5.89612e-19 -6.23433e-09 0)
(6.06112e-19 -6.38393e-09 0)
(6.22751e-19 -6.5346e-09 0)
(6.40315e-19 -6.68631e-09 0)
(6.57978e-19 -6.83906e-09 0)
(6.7572e-19 -6.99284e-09 0)
(6.93517e-19 -7.14765e-09 0)
(7.09735e-19 -7.30347e-09 0)
(7.2596e-19 -7.46032e-09 0)
(7.42167e-19 -7.61817e-09 0)
(7.58331e-19 -7.77705e-09 0)
(7.74423e-19 -7.93695e-09 0)
(7.90418e-19 -8.0979e-09 0)
(8.04679e-19 -8.25995e-09 0)
(8.20394e-19 -8.42315e-09 0)
(8.35927e-19 -8.58762e-09 0)
(8.51249e-19 -8.7535e-09 0)
(8.66333e-19 -8.92102e-09 0)
(8.8115e-19 -9.09048e-09 0)
(8.94066e-19 -9.26229e-09 0)
(9.06659e-19 -9.437e-09 0)
(9.18903e-19 -9.61532e-09 0)
(9.30771e-19 -9.79811e-09 0)
(9.42237e-19 -9.9864e-09 0)
(9.53277e-19 -1.01814e-08 0)
(9.63868e-19 -1.03843e-08 0)
(9.73985e-19 -1.05966e-08 0)
(9.83609e-19 -1.08196e-08 0)
(9.92719e-19 -1.10544e-08 0)
(1.0013e-18 -1.13022e-08 0)
(1.00933e-18 -1.15626e-08 0)
(1.01679e-18 -1.18341e-08 0)
(1.02367e-18 -1.21274e-08 0)
(1.02997e-18 -1.24718e-08 0)
(1.03248e-18 -1.27421e-08 0)
(1.03438e-18 -1.25209e-08 0)
(1.03567e-18 -1.29648e-08 0)
(1.03633e-18 -2.04725e-08 0)
(1.03659e-18 -3.26335e-08 0)
(1.03495e-18 -0.000104486 0)
(1.03156e-18 -0.000181333 0)
(1.02715e-18 -0.000193679 0)
(1.02149e-18 -0.000228104 0)
(1.01431e-18 -0.000228586 0)
(1.00533e-18 -0.000228516 0)
(9.94256e-19 -0.000228543 0)
(9.80843e-19 -0.000228548 0)
(9.64856e-19 -0.000228546 0)
(9.46091e-19 -0.000228546 0)
(9.24374e-19 -0.000228546 0)
(8.99562e-19 -0.000228546 0)
(8.71542e-19 -0.000228546 0)
(8.40248e-19 -0.000228546 0)
(8.05632e-19 -0.000228546 0)
(7.67702e-19 -0.000228546 0)
(7.26479e-19 -0.000228546 0)
(6.82046e-19 -0.000228546 0)
(6.34504e-19 -0.000228546 0)
(5.83985e-19 -0.000228546 0)
(5.30674e-19 -0.000228546 0)
(4.74767e-19 -0.000228546 0)
(4.16499e-19 -0.000228546 0)
(3.56129e-19 -0.000228546 0)
(2.93938e-19 -0.000228546 0)
(2.3023e-19 -0.000228546 0)
(1.65323e-19 -0.000228518 0)
(9.95502e-20 -0.000228481 0)
(3.32576e-20 -0.000228045 0)
)
;

boundaryField
{
    inlet
    {
        type            cyclic;
    }
    outlet
    {
        type            cyclic;
    }
    top
    {
        type            fixedValue;
        value           uniform (0 0 0);
    }
    bottom
    {
        type            fixedValue;
        value           uniform (0 0 0);
    }
    frontAndBackPlanes
    {
        type            empty;
    }
}


// ************************************************************************* //
