/*--------------------------------*- C++ -*----------------------------------*\
| =========                 |                                                 |
| \\      /  F ield         | OpenFOAM: The Open Source CFD Toolbox           |
|  \\    /   O peration     | Version:  v2006                                 |
|   \\  /    A nd           | Website:  www.openfoam.com                      |
|    \\/     M anipulation  |                                                 |
\*---------------------------------------------------------------------------*/
FoamFile
{
    version     2.0;
    format      ascii;
    class       volVectorField;
    location    "1660";
    object      Ub;
}
// * * * * * * * * * * * * * * * * * * * * * * * * * * * * * * * * * * * * * //

dimensions      [0 1 -1 0 0 0 0];


internalField   nonuniform List<vector> 
120
(
(3.82452e-21 8.52082e-11 0)
(1.14797e-20 1.83656e-10 0)
(1.91494e-20 3.3754e-10 0)
(2.6742e-20 4.75064e-10 0)
(3.43684e-20 6.14053e-10 0)
(4.20382e-20 7.54603e-10 0)
(4.97624e-20 8.96706e-10 0)
(5.73443e-20 1.04038e-09 0)
(6.49978e-20 1.18563e-09 0)
(7.29398e-20 1.33248e-09 0)
(8.09714e-20 1.48093e-09 0)
(8.91012e-20 1.63102e-09 0)
(9.75502e-20 1.78274e-09 0)
(1.06116e-19 1.93611e-09 0)
(1.14812e-19 2.09115e-09 0)
(1.23647e-19 2.24786e-09 0)
(1.32631e-19 2.40626e-09 0)
(1.41772e-19 2.56636e-09 0)
(1.5108e-19 2.72816e-09 0)
(1.60563e-19 2.89167e-09 0)
(1.70231e-19 3.0569e-09 0)
(1.80093e-19 3.22386e-09 0)
(1.90156e-19 3.39255e-09 0)
(2.00399e-19 3.56297e-09 0)
(2.1173e-19 3.73512e-09 0)
(2.23256e-19 3.909e-09 0)
(2.35033e-19 4.08461e-09 0)
(2.4661e-19 4.26195e-09 0)
(2.58452e-19 4.44101e-09 0)
(2.70588e-19 4.62177e-09 0)
(2.82135e-19 4.80424e-09 0)
(2.93093e-19 4.98841e-09 0)
(3.04362e-19 5.17425e-09 0)
(3.15905e-19 5.36175e-09 0)
(3.27723e-19 5.55091e-09 0)
(3.39768e-19 5.7417e-09 0)
(3.52952e-19 5.93411e-09 0)
(3.67337e-19 6.12811e-09 0)
(3.80976e-19 6.32369e-09 0)
(3.9599e-19 6.52083e-09 0)
(4.09316e-19 6.71951e-09 0)
(4.24029e-19 6.91971e-09 0)
(4.38022e-19 7.12141e-09 0)
(4.52346e-19 7.32458e-09 0)
(4.66866e-19 7.52921e-09 0)
(4.82728e-19 7.73527e-09 0)
(4.96873e-19 7.94275e-09 0)
(5.11472e-19 8.15162e-09 0)
(5.2519e-19 8.36187e-09 0)
(5.4112e-19 8.57347e-09 0)
(5.571e-19 8.7864e-09 0)
(5.73269e-19 9.00064e-09 0)
(5.89612e-19 9.21616e-09 0)
(6.06112e-19 9.43295e-09 0)
(6.22661e-19 9.65096e-09 0)
(6.40314e-19 9.87019e-09 0)
(6.57978e-19 1.00906e-08 0)
(6.7572e-19 1.03121e-08 0)
(6.93713e-19 1.05348e-08 0)
(7.09736e-19 1.07586e-08 0)
(7.2596e-19 1.09834e-08 0)
(7.42167e-19 1.12092e-08 0)
(7.58331e-19 1.1436e-08 0)
(7.74424e-19 1.16638e-08 0)
(7.90639e-19 1.18926e-08 0)
(8.04453e-19 1.21224e-08 0)
(8.20393e-19 1.23533e-08 0)
(8.35926e-19 1.25854e-08 0)
(8.51249e-19 1.28188e-08 0)
(8.66334e-19 1.30539e-08 0)
(8.81399e-19 1.32909e-08 0)
(8.94067e-19 1.35305e-08 0)
(9.06659e-19 1.37734e-08 0)
(9.18903e-19 1.40204e-08 0)
(9.30771e-19 1.42727e-08 0)
(9.42237e-19 1.45316e-08 0)
(9.53277e-19 1.47987e-08 0)
(9.63868e-19 1.50754e-08 0)
(9.73985e-19 1.53634e-08 0)
(9.83609e-19 1.56641e-08 0)
(9.92719e-19 1.59786e-08 0)
(1.0013e-18 1.63074e-08 0)
(1.00933e-18 1.66512e-08 0)
(1.01679e-18 1.7011e-08 0)
(1.02368e-18 1.73738e-08 0)
(1.03064e-18 1.77061e-08 0)
(1.03248e-18 1.81119e-08 0)
(1.03438e-18 1.90307e-08 0)
(1.03567e-18 1.93945e-08 0)
(1.03633e-18 3.56712e-09 0)
(1.03658e-18 1.37425e-07 0)
(1.03495e-18 -3.40351e-07 0)
(1.03155e-18 5.0374e-06 0)
(1.02714e-18 2.77059e-07 0)
(1.02149e-18 -3.74449e-07 0)
(1.01431e-18 -4.07334e-08 0)
(1.00533e-18 2.76357e-08 0)
(9.94256e-19 3.11885e-09 0)
(9.80844e-19 -2.00687e-09 0)
(9.64857e-19 1.42937e-10 0)
(9.46093e-19 -3.10876e-11 0)
(9.24375e-19 2.28552e-11 0)
(8.99563e-19 -9.27088e-12 0)
(8.71545e-19 8.59404e-14 0)
(8.4025e-19 6.13809e-13 0)
(8.05637e-19 4.69735e-13 0)
(7.67704e-19 3.38159e-13 0)
(7.26485e-19 3.81484e-13 0)
(6.82051e-19 3.96391e-13 0)
(6.34506e-19 3.95685e-13 0)
(5.83991e-19 3.89544e-13 0)
(5.30679e-19 3.83352e-13 0)
(4.74773e-19 3.8152e-13 0)
(4.16505e-19 3.84025e-13 0)
(3.56135e-19 3.8657e-13 0)
(2.93945e-19 3.8417e-13 0)
(2.30237e-19 3.78677e-13 0)
(1.6533e-19 3.60455e-13 0)
(9.95574e-20 3.55469e-13 0)
(3.32612e-20 2.49162e-13 0)
)
;

boundaryField
{
    inlet
    {
        type            cyclic;
    }
    outlet
    {
        type            cyclic;
    }
    top
    {
        type            fixedValue;
        value           uniform (0 0 0);
    }
    bottom
    {
        type            fixedValue;
        value           uniform (0 0 0);
    }
    frontAndBackPlanes
    {
        type            empty;
    }
}


// ************************************************************************* //
