/*--------------------------------*- C++ -*----------------------------------*\
| =========                 |                                                 |
| \\      /  F ield         | OpenFOAM: The Open Source CFD Toolbox           |
|  \\    /   O peration     | Version:  v2006                                 |
|   \\  /    A nd           | Website:  www.openfoam.com                      |
|    \\/     M anipulation  |                                                 |
\*---------------------------------------------------------------------------*/
FoamFile
{
    version     2.0;
    format      ascii;
    class       volScalarField;
    location    "1360";
    object      p;
}
// * * * * * * * * * * * * * * * * * * * * * * * * * * * * * * * * * * * * * //

dimensions      [1 -1 -2 0 0 0 0];


internalField   nonuniform List<scalar> 
120
(
0.128259
-4.53184
-9.1923
-13.8531
-18.5143
-23.1758
-27.8378
-32.5001
-37.1627
-41.8258
-46.4893
-51.1531
-55.8174
-60.482
-65.1471
-69.8126
-74.4785
-79.1448
-83.8115
-88.4787
-93.1464
-97.8145
-102.483
-107.152
-111.821
-116.491
-121.162
-125.833
-130.504
-135.176
-139.849
-144.521
-149.195
-153.869
-158.544
-163.219
-167.894
-172.571
-177.247
-181.925
-186.603
-191.281
-195.961
-200.641
-205.321
-210.002
-214.684
-219.367
-224.05
-228.734
-233.418
-238.104
-242.79
-247.477
-252.165
-256.853
-261.543
-266.233
-270.924
-275.616
-280.309
-285.002
-289.697
-294.393
-299.09
-303.787
-308.486
-313.186
-317.887
-322.589
-327.293
-331.997
-336.703
-341.409
-346.117
-350.826
-355.537
-360.248
-364.961
-369.676
-374.392
-379.109
-383.829
-388.551
-393.276
-398.004
-402.738
-407.478
-412.226
-416.98
-421.701
-426.365
-431.027
-435.687
-440.346
-445.006
-449.666
-454.326
-458.985
-463.645
-468.305
-472.965
-477.624
-482.284
-486.944
-491.604
-496.263
-500.923
-505.583
-510.243
-514.902
-519.562
-524.222
-528.882
-533.541
-538.201
-542.861
-547.521
-552.18
-556.84
)
;

boundaryField
{
    inlet
    {
        type            cyclic;
    }
    outlet
    {
        type            cyclic;
    }
    top
    {
        type            calculated;
        value           uniform -559.17;
    }
    bottom
    {
        type            calculated;
        value           uniform 2.45813;
    }
    frontAndBackPlanes
    {
        type            empty;
    }
}


// ************************************************************************* //
