/*--------------------------------*- C++ -*----------------------------------*\
| =========                 |                                                 |
| \\      /  F ield         | OpenFOAM: The Open Source CFD Toolbox           |
|  \\    /   O peration     | Version:  v2006                                 |
|   \\  /    A nd           | Website:  www.openfoam.com                      |
|    \\/     M anipulation  |                                                 |
\*---------------------------------------------------------------------------*/
FoamFile
{
    version     2.0;
    format      ascii;
    class       volScalarField;
    location    "1360";
    object      p_p_total;
}
// * * * * * * * * * * * * * * * * * * * * * * * * * * * * * * * * * * * * * //

dimensions      [1 -1 -2 0 0 0 0];


internalField   nonuniform List<scalar> 
120
(
23.9538
23.6599
23.3664
23.0733
22.7805
22.4882
22.1962
21.9046
21.6134
21.3227
21.0323
20.7424
20.4528
20.1637
19.8751
19.5868
19.299
19.0117
18.7248
18.4383
18.1524
17.8669
17.5818
17.2973
17.0132
16.7297
16.4466
16.1641
15.882
15.6005
15.3195
15.0391
14.7591
14.4798
14.201
13.9228
13.6451
13.368
13.0916
12.8157
12.5404
12.2658
11.9918
11.7185
11.4458
11.1737
10.9024
10.6317
10.3618
10.0925
9.82398
9.55619
9.28916
9.02289
8.75741
8.49273
8.22887
7.96585
7.70367
7.44236
7.18192
6.92237
6.66371
6.40596
6.14909
5.89313
5.63804
5.38382
5.13044
4.87788
4.62612
4.37511
4.12483
3.87524
3.62632
3.37805
3.13043
2.8835
2.6373
2.39192
2.14746
1.90399
1.66143
1.41932
1.17562
0.934061
0.7125
0.532226
0.382887
0.192173
0
0
0
0
0
0
0
0
0
0
0
0
0
0
0
0
0
0
0
0
0
0
0
0
0
0
0
0
0
0
)
;

boundaryField
{
    inlet
    {
        type            cyclic;
    }
    outlet
    {
        type            cyclic;
    }
    top
    {
        type            calculated;
        value           uniform 0;
    }
    bottom
    {
        type            calculated;
        value           uniform 23.9538;
    }
    frontAndBackPlanes
    {
        type            empty;
    }
}


// ************************************************************************* //
