/*--------------------------------*- C++ -*----------------------------------*\
| =========                 |                                                 |
| \\      /  F ield         | OpenFOAM: The Open Source CFD Toolbox           |
|  \\    /   O peration     | Version:  v2006                                 |
|   \\  /    A nd           | Website:  www.openfoam.com                      |
|    \\/     M anipulation  |                                                 |
\*---------------------------------------------------------------------------*/
FoamFile
{
    version     2.0;
    format      ascii;
    class       surfaceScalarField;
    location    "1360";
    object      phia;
}
// * * * * * * * * * * * * * * * * * * * * * * * * * * * * * * * * * * * * * //

dimensions      [0 3 -1 0 0 0 0];
oriented        oriented;


internalField   nonuniform List<scalar> 
119
(
-8.84235e-16
-1.77964e-15
-2.68647e-15
-3.60498e-15
-4.53545e-15
-5.47816e-15
-6.4334e-15
-7.40146e-15
-8.38267e-15
-9.37734e-15
-1.03858e-14
-1.14084e-14
-1.24456e-14
-1.34976e-14
-1.45648e-14
-1.56478e-14
-1.67468e-14
-1.78622e-14
-1.89947e-14
-2.01445e-14
-2.13121e-14
-2.24981e-14
-2.37028e-14
-2.4927e-14
-2.6171e-14
-2.74354e-14
-2.87208e-14
-3.00279e-14
-3.13572e-14
-3.27094e-14
-3.40853e-14
-3.54856e-14
-3.6911e-14
-3.83623e-14
-3.98405e-14
-4.13465e-14
-4.28811e-14
-4.44453e-14
-4.60403e-14
-4.76671e-14
-4.93268e-14
-5.10207e-14
-5.27499e-14
-5.45159e-14
-5.632e-14
-5.81638e-14
-6.00488e-14
-6.19768e-14
-6.39497e-14
-6.59694e-14
-6.80381e-14
-7.01583e-14
-7.23324e-14
-7.45632e-14
-7.68537e-14
-7.92068e-14
-8.16257e-14
-8.41138e-14
-8.66741e-14
-8.931e-14
-9.20245e-14
-9.48201e-14
-9.76993e-14
-1.00664e-13
-1.03715e-13
-1.06854e-13
-1.1008e-13
-1.13393e-13
-1.16793e-13
-1.20277e-13
-1.23845e-13
-1.27497e-13
-1.31235e-13
-1.35065e-13
-1.39e-13
-1.43063e-13
-1.47291e-13
-1.51748e-13
-1.56531e-13
-1.61788e-13
-1.67738e-13
-1.74703e-13
-1.83154e-13
-1.93737e-13
-2.07445e-13
-2.25238e-13
-2.4774e-13
-2.70339e-13
-2.88416e-13
-4.61749e-13
5.22786e-14
-3.97029e-11
-6.43748e-11
-8.21759e-11
-8.22736e-11
-8.22744e-11
-8.22763e-11
-8.22767e-11
-8.22766e-11
-8.22766e-11
-8.22766e-11
-8.22766e-11
-8.22766e-11
-8.22766e-11
-8.22766e-11
-8.22766e-11
-8.22766e-11
-8.22766e-11
-8.22766e-11
-8.22766e-11
-8.22766e-11
-8.22766e-11
-8.22766e-11
-8.22766e-11
-8.22766e-11
-8.22766e-11
-8.22766e-11
-8.22565e-11
-8.21697e-11
)
;

boundaryField
{
    inlet
    {
        type            cyclic;
        value           nonuniform List<scalar> 
120
(
-7.93043e-28
-2.38068e-27
-3.97193e-27
-5.53882e-27
-7.11414e-27
-8.7003e-27
-1.02997e-26
-1.18541e-26
-1.34266e-26
-1.50805e-26
-1.67573e-26
-1.84597e-26
-2.02507e-26
-2.20721e-26
-2.39265e-26
-2.58163e-26
-2.77441e-26
-2.97123e-26
-3.17236e-26
-3.37804e-26
-3.58855e-26
-3.80413e-26
-4.02505e-26
-4.25158e-26
-4.50826e-26
-4.77109e-26
-5.04035e-26
-5.30418e-26
-5.57501e-26
-5.85314e-26
-6.11459e-26
-6.3597e-26
-6.61304e-26
-6.87495e-26
-7.14578e-26
-7.42568e-26
-7.73951e-26
-8.08794e-26
-8.42265e-26
-8.79261e-26
-9.12557e-26
-9.49481e-26
-9.85239e-26
-1.02232e-25
-1.06078e-25
-1.10313e-25
-1.14216e-25
-1.1828e-25
-1.22271e-25
-1.26926e-25
-1.31769e-25
-1.3681e-25
-1.4206e-25
-1.47529e-25
-1.53229e-25
-1.59413e-25
-1.6585e-25
-1.72549e-25
-1.79528e-25
-1.86304e-25
-1.93366e-25
-2.00726e-25
-2.08389e-25
-2.16358e-25
-2.24633e-25
-2.32724e-25
-2.41596e-25
-2.50752e-25
-2.60175e-25
-2.69845e-25
-2.79732e-25
-2.89314e-25
-2.99038e-25
-3.08856e-25
-3.18709e-25
-3.28534e-25
-3.38257e-25
-3.47797e-25
-3.57065e-25
-3.65965e-25
-3.74396e-25
-3.8226e-25
-3.89463e-25
-3.95937e-25
-4.01658e-25
-4.06671e-25
-4.10143e-25
-4.13596e-25
-4.17585e-25
-4.25419e-25
-4.43121e-24
-6.10202e-24
-8.62995e-24
-1.05665e-23
-1.19831e-23
-1.29728e-23
-1.36137e-23
-1.39701e-23
-1.40944e-23
-1.40299e-23
-1.38117e-23
-1.34687e-23
-1.30245e-23
-1.24983e-23
-1.19062e-23
-1.12615e-23
-1.05752e-23
-9.85648e-24
-9.11274e-24
-8.35032e-24
-7.57421e-24
-6.78842e-24
-5.99606e-24
-5.19967e-24
-4.40077e-24
-3.60073e-24
-2.80031e-24
-1.99993e-24
-1.19978e-24
-3.99875e-25
)
;
    }
    outlet
    {
        type            cyclic;
        value           nonuniform List<scalar> 
120
(
7.93043e-28
2.38068e-27
3.97193e-27
5.53882e-27
7.11414e-27
8.7003e-27
1.02997e-26
1.18541e-26
1.34266e-26
1.50805e-26
1.67573e-26
1.84597e-26
2.02507e-26
2.20721e-26
2.39265e-26
2.58163e-26
2.77441e-26
2.97123e-26
3.17236e-26
3.37804e-26
3.58855e-26
3.80413e-26
4.02505e-26
4.25158e-26
4.50826e-26
4.77109e-26
5.04035e-26
5.30418e-26
5.57501e-26
5.85314e-26
6.11459e-26
6.3597e-26
6.61304e-26
6.87495e-26
7.14578e-26
7.42568e-26
7.73951e-26
8.08794e-26
8.42265e-26
8.79261e-26
9.12557e-26
9.49481e-26
9.85239e-26
1.02232e-25
1.06078e-25
1.10313e-25
1.14216e-25
1.1828e-25
1.22271e-25
1.26926e-25
1.31769e-25
1.3681e-25
1.4206e-25
1.47529e-25
1.53229e-25
1.59413e-25
1.6585e-25
1.72549e-25
1.79528e-25
1.86304e-25
1.93366e-25
2.00726e-25
2.08389e-25
2.16358e-25
2.24633e-25
2.32724e-25
2.41596e-25
2.50752e-25
2.60175e-25
2.69845e-25
2.79732e-25
2.89314e-25
2.99038e-25
3.08856e-25
3.18709e-25
3.28534e-25
3.38257e-25
3.47797e-25
3.57065e-25
3.65965e-25
3.74396e-25
3.8226e-25
3.89463e-25
3.95937e-25
4.01658e-25
4.06671e-25
4.10143e-25
4.13596e-25
4.17585e-25
4.25419e-25
4.43121e-24
6.10202e-24
8.62995e-24
1.05665e-23
1.19831e-23
1.29728e-23
1.36137e-23
1.39701e-23
1.40944e-23
1.40299e-23
1.38117e-23
1.34687e-23
1.30245e-23
1.24983e-23
1.19062e-23
1.12615e-23
1.05752e-23
9.85648e-24
9.11274e-24
8.35032e-24
7.57421e-24
6.78842e-24
5.99606e-24
5.19967e-24
4.40077e-24
3.60073e-24
2.80031e-24
1.99993e-24
1.19978e-24
3.99875e-25
)
;
    }
    top
    {
        type            fixedValue;
        value           uniform 0;
    }
    bottom
    {
        type            fixedValue;
        value           uniform 0;
    }
    frontAndBackPlanes
    {
        type            empty;
        value           nonuniform List<scalar> 0();
    }
}


// ************************************************************************* //
