/*--------------------------------*- C++ -*----------------------------------*\
| =========                 |                                                 |
| \\      /  F ield         | OpenFOAM: The Open Source CFD Toolbox           |
|  \\    /   O peration     | Version:  v2006                                 |
|   \\  /    A nd           | Website:  www.openfoam.com                      |
|    \\/     M anipulation  |                                                 |
\*---------------------------------------------------------------------------*/
FoamFile
{
    version     2.0;
    format      ascii;
    class       surfaceScalarField;
    location    "1360";
    object      phib;
}
// * * * * * * * * * * * * * * * * * * * * * * * * * * * * * * * * * * * * * //

dimensions      [0 3 -1 0 0 0 0];
oriented        oriented;


internalField   nonuniform List<scalar> 
119
(
1.32461e-15
2.66539e-15
4.02269e-15
5.39689e-15
6.78836e-15
8.19752e-15
9.62475e-15
1.10705e-14
1.25352e-14
1.40193e-14
1.55233e-14
1.70477e-14
1.8593e-14
2.01597e-14
2.17483e-14
2.33595e-14
2.49937e-14
2.66516e-14
2.83338e-14
3.00409e-14
3.17735e-14
3.35324e-14
3.53183e-14
3.71318e-14
3.89737e-14
4.08448e-14
4.27459e-14
4.46778e-14
4.66415e-14
4.86378e-14
5.06677e-14
5.27324e-14
5.48327e-14
5.69699e-14
5.91452e-14
6.13599e-14
6.36151e-14
6.59123e-14
6.8253e-14
7.06386e-14
7.30707e-14
7.5551e-14
7.80812e-14
8.06631e-14
8.32987e-14
8.59899e-14
8.8739e-14
9.15485e-14
9.44207e-14
9.73585e-14
1.00365e-13
1.03443e-13
1.06597e-13
1.09829e-13
1.13145e-13
1.16547e-13
1.20041e-13
1.23631e-13
1.27321e-13
1.31115e-13
1.35018e-13
1.39032e-13
1.4316e-13
1.47404e-13
1.51766e-13
1.56245e-13
1.60841e-13
1.65551e-13
1.70374e-13
1.75305e-13
1.80343e-13
1.85484e-13
1.90732e-13
1.96091e-13
2.01577e-13
2.07219e-13
2.1307e-13
2.19213e-13
2.25783e-13
2.32984e-13
2.41117e-13
2.50625e-13
2.62152e-13
2.7657e-13
2.95211e-13
3.19362e-13
3.49868e-13
3.80166e-13
4.02957e-13
4.88037e-13
-1.53689e-14
1.70133e-13
4.56436e-16
1.738e-18
2.08031e-18
2.59738e-18
3.01726e-18
3.58974e-18
3.88565e-18
4.28432e-18
4.37492e-18
4.5982e-18
4.51026e-18
4.68367e-18
4.69295e-18
4.96827e-18
4.93433e-18
5.04709e-18
4.85103e-18
4.79411e-18
4.45871e-18
4.35411e-18
4.13931e-18
4.16272e-18
3.99455e-18
3.95842e-18
3.73761e-18
3.64002e-18
3.3635e-18
)
;

boundaryField
{
    inlet
    {
        type            cyclic;
        value           nonuniform List<scalar> 
120
(
-7.93043e-28
-2.38069e-27
-3.97513e-27
-5.53883e-27
-7.11414e-27
-8.70038e-27
-1.03172e-26
-1.18541e-26
-1.34034e-26
-1.50804e-26
-1.67572e-26
-1.84275e-26
-2.02505e-26
-2.20721e-26
-2.39265e-26
-2.58163e-26
-2.77441e-26
-2.97123e-26
-3.17236e-26
-3.37804e-26
-3.58855e-26
-3.80413e-26
-4.02493e-26
-4.22277e-26
-4.50814e-26
-4.77117e-26
-5.05699e-26
-5.30426e-26
-5.57518e-26
-5.89127e-26
-6.15433e-26
-6.35987e-26
-6.61304e-26
-6.87494e-26
-7.14557e-26
-7.37739e-26
-7.68966e-26
-8.13918e-26
-8.36981e-26
-8.90303e-26
-9.06894e-26
-9.55392e-26
-9.85265e-26
-1.02229e-25
-1.05429e-25
-1.11664e-25
-1.14225e-25
-1.18994e-25
-1.20786e-25
-1.26919e-25
-1.31769e-25
-1.3681e-25
-1.4206e-25
-1.47525e-25
-1.52336e-25
-1.59409e-25
-1.6585e-25
-1.72559e-25
-1.8154e-25
-1.86313e-25
-1.93366e-25
-2.00726e-25
-2.08389e-25
-2.16369e-25
-2.27025e-25
-2.30259e-25
-2.41585e-25
-2.50752e-25
-2.60176e-25
-2.69858e-25
-2.82596e-25
-2.89327e-25
-2.99038e-25
-3.08856e-25
-3.18709e-25
-3.28534e-25
-3.38257e-25
-3.47797e-25
-3.57065e-25
-3.65965e-25
-3.74396e-25
-3.8226e-25
-3.89463e-25
-3.95937e-25
-4.01705e-25
-4.16642e-25
-4.10194e-25
-4.13604e-25
-4.17731e-25
-4.48404e-25
-4.54107e-24
-6.10219e-24
-8.63513e-24
-1.05676e-23
-1.19829e-23
-1.29725e-23
-1.36136e-23
-1.39699e-23
-1.40943e-23
-1.40298e-23
-1.38117e-23
-1.34687e-23
-1.30245e-23
-1.24983e-23
-1.19063e-23
-1.12616e-23
-1.05753e-23
-9.85651e-24
-9.11282e-24
-8.3504e-24
-7.5743e-24
-6.78851e-24
-5.99619e-24
-5.19972e-24
-4.40085e-24
-3.60082e-24
-2.8004e-24
-2.00002e-24
-1.19987e-24
-3.99919e-25
)
;
    }
    outlet
    {
        type            cyclic;
        value           nonuniform List<scalar> 
120
(
7.93043e-28
2.38069e-27
3.97513e-27
5.53883e-27
7.11414e-27
8.70038e-27
1.03172e-26
1.18541e-26
1.34034e-26
1.50804e-26
1.67572e-26
1.84275e-26
2.02505e-26
2.20721e-26
2.39265e-26
2.58163e-26
2.77441e-26
2.97123e-26
3.17236e-26
3.37804e-26
3.58855e-26
3.80413e-26
4.02493e-26
4.22277e-26
4.50814e-26
4.77117e-26
5.05699e-26
5.30426e-26
5.57518e-26
5.89127e-26
6.15433e-26
6.35987e-26
6.61304e-26
6.87494e-26
7.14557e-26
7.37739e-26
7.68966e-26
8.13918e-26
8.36981e-26
8.90303e-26
9.06894e-26
9.55392e-26
9.85265e-26
1.02229e-25
1.05429e-25
1.11664e-25
1.14225e-25
1.18994e-25
1.20786e-25
1.26919e-25
1.31769e-25
1.3681e-25
1.4206e-25
1.47525e-25
1.52336e-25
1.59409e-25
1.6585e-25
1.72559e-25
1.8154e-25
1.86313e-25
1.93366e-25
2.00726e-25
2.08389e-25
2.16369e-25
2.27025e-25
2.30259e-25
2.41585e-25
2.50752e-25
2.60176e-25
2.69858e-25
2.82596e-25
2.89327e-25
2.99038e-25
3.08856e-25
3.18709e-25
3.28534e-25
3.38257e-25
3.47797e-25
3.57065e-25
3.65965e-25
3.74396e-25
3.8226e-25
3.89463e-25
3.95937e-25
4.01705e-25
4.16642e-25
4.10194e-25
4.13604e-25
4.17731e-25
4.48404e-25
4.54107e-24
6.10219e-24
8.63513e-24
1.05676e-23
1.19829e-23
1.29725e-23
1.36136e-23
1.39699e-23
1.40943e-23
1.40298e-23
1.38117e-23
1.34687e-23
1.30245e-23
1.24983e-23
1.19063e-23
1.12616e-23
1.05753e-23
9.85651e-24
9.11282e-24
8.3504e-24
7.5743e-24
6.78851e-24
5.99619e-24
5.19972e-24
4.40085e-24
3.60082e-24
2.8004e-24
2.00002e-24
1.19987e-24
3.99919e-25
)
;
    }
    top
    {
        type            fixedValue;
        value           uniform 0;
    }
    bottom
    {
        type            fixedValue;
        value           uniform 0;
    }
    frontAndBackPlanes
    {
        type            empty;
        value           nonuniform List<scalar> 0();
    }
}


// ************************************************************************* //
