/*--------------------------------*- C++ -*----------------------------------*\
| =========                 |                                                 |
| \\      /  F ield         | OpenFOAM: The Open Source CFD Toolbox           |
|  \\    /   O peration     | Version:  v2006                                 |
|   \\  /    A nd           | Website:  www.openfoam.com                      |
|    \\/     M anipulation  |                                                 |
\*---------------------------------------------------------------------------*/
FoamFile
{
    version     2.0;
    format      ascii;
    class       volTensorField;
    location    "1360";
    object      Taua;
}
// * * * * * * * * * * * * * * * * * * * * * * * * * * * * * * * * * * * * * //

dimensions      [1 -1 -2 0 0 0 0];


internalField   nonuniform List<tensor> 
120
(
(0.0017211 0 0 1.1108e-14 -0.00344221 0 0 0 0.0017211)
(0.00173934 0 0 1.11261e-14 -0.00347868 0 0 0 0.00173934)
(0.00176311 0 0 1.10535e-14 -0.00352622 0 0 0 0.00176311)
(0.00178613 0 0 1.09977e-14 -0.00357226 0 0 0 0.00178613)
(0.00180927 0 0 1.10652e-14 -0.00361854 0 0 0 0.00180927)
(0.00183303 0 0 1.11496e-14 -0.00366607 0 0 0 0.00183303)
(0.0018574 0 0 1.10384e-14 -0.0037148 0 0 0 0.0018574)
(0.00188235 0 0 1.09442e-14 -0.0037647 0 0 0 0.00188235)
(0.0019079 0 0 1.12922e-14 -0.0038158 0 0 0 0.0019079)
(0.00193408 0 0 1.16574e-14 -0.00386817 0 0 0 0.00193408)
(0.00196092 0 0 1.18272e-14 -0.00392183 0 0 0 0.00196092)
(0.00198843 0 0 1.22268e-14 -0.00397685 0 0 0 0.00198843)
(0.00201664 0 0 1.26437e-14 -0.00403327 0 0 0 0.00201664)
(0.00204557 0 0 1.28654e-14 -0.00409113 0 0 0 0.00204557)
(0.00207525 0 0 1.31047e-14 -0.00415049 0 0 0 0.00207525)
(0.0021057 0 0 1.33615e-14 -0.00421139 0 0 0 0.0021057)
(0.00213694 0 0 1.3636e-14 -0.00427388 0 0 0 0.00213694)
(0.00216901 0 0 1.39283e-14 -0.00433802 0 0 0 0.00216901)
(0.00220192 0 0 1.42384e-14 -0.00440385 0 0 0 0.00220192)
(0.00223572 0 0 1.45666e-14 -0.00447143 0 0 0 0.00223572)
(0.00227041 0 0 1.4913e-14 -0.00454082 0 0 0 0.00227041)
(0.00230604 0 0 1.52777e-14 -0.00461208 0 0 0 0.00230604)
(0.00234263 0 0 1.56609e-14 -0.00468527 0 0 0 0.00234263)
(0.00238023 0 0 1.69124e-14 -0.00476047 0 0 0 0.00238023)
(0.00241888 0 0 1.81829e-14 -0.00483775 0 0 0 0.00241888)
(0.0024586 0 0 1.86231e-14 -0.0049172 0 0 0 0.0024586)
(0.00249946 0 0 1.86582e-14 -0.00499892 0 0 0 0.00249946)
(0.0025415 0 0 1.87132e-14 -0.00508301 0 0 0 0.0025415)
(0.00258479 0 0 1.92134e-14 -0.00516957 0 0 0 0.00258479)
(0.00262937 0 0 1.88853e-14 -0.00525874 0 0 0 0.00262937)
(0.00267532 0 0 1.77297e-14 -0.00535064 0 0 0 0.00267532)
(0.00272271 0 0 1.74455e-14 -0.00544542 0 0 0 0.00272271)
(0.00277161 0 0 1.80336e-14 -0.00554323 0 0 0 0.00277161)
(0.00282211 0 0 1.86461e-14 -0.00564421 0 0 0 0.00282211)
(0.00287427 0 0 1.92756e-14 -0.00574854 0 0 0 0.00287427)
(0.00292819 3.68135e-17 0 2.07805e-14 -0.00585637 0 0 0 0.00292819)
(0.00298395 0 0 2.31792e-14 -0.00596789 0 0 0 0.00298395)
(0.00304163 0 0 2.39099e-14 -0.00608327 0 0 0 0.00304163)
(0.00310135 0 0 2.46635e-14 -0.00620269 0 0 0 0.00310135)
(0.00316318 0 0 2.46023e-14 -0.00632635 0 0 0 0.00316318)
(0.00322723 0 0 2.45769e-14 -0.00645446 0 0 0 0.00322723)
(0.00329361 0 0 2.54387e-14 -0.00658722 0 0 0 0.00329361)
(0.00336244 0 0 2.54931e-14 -0.00672489 0 0 0 0.00336244)
(0.00343387 0 0 2.64406e-14 -0.00686773 0 0 0 0.00343387)
(0.00350803 0 0 2.82841e-14 -0.00701607 0 0 0 0.00350803)
(0.00358512 0 0 2.8481e-14 -0.00717024 0 0 0 0.00358512)
(0.00366533 0 0 2.78835e-14 -0.00733066 0 0 0 0.00366533)
(0.0037489 0 0 2.81926e-14 -0.00749779 0 0 0 0.0037489)
(0.00383609 0 0 3.02607e-14 -0.00767218 0 0 0 0.00383609)
(0.00392721 0 0 3.32425e-14 -0.00785441 0 0 0 0.00392721)
(0.00402257 0 0 3.45955e-14 -0.00804514 0 0 0 0.00402257)
(0.00412253 0 0 3.60197e-14 -0.00824506 0 0 0 0.00412253)
(0.00422745 0 0 3.7518e-14 -0.0084549 0 0 0 0.00422745)
(0.00433769 0 0 3.90926e-14 -0.00867538 0 0 0 0.00433769)
(0.00445359 0 0 4.15933e-14 -0.00890717 0 0 0 0.00445359)
(0.00457544 0 0 4.41713e-14 -0.00915088 0 0 0 0.00457544)
(0.00470348 0 0 4.59767e-14 -0.00940695 0 0 0 0.00470348)
(0.00483782 0 0 4.78734e-14 -0.00967565 0 0 0 0.00483782)
(0.00497848 -7.36271e-17 0 4.81408e-14 -0.00995696 0 0 0 0.00497848)
(0.00512529 0 0 4.84335e-14 -0.0102506 0 0 0 0.00512529)
(0.00527792 0 0 5.04774e-14 -0.0105558 0 0 0 0.00527792)
(0.00543583 0 0 5.25815e-14 -0.0108717 0 0 0 0.00543583)
(0.0055983 0 0 5.47124e-14 -0.0111966 0 0 0 0.0055983)
(0.00576441 0 0 5.68521e-14 -0.0115288 0 0 0 0.00576441)
(0.00593306 0 0 5.72793e-14 -0.0118661 0 0 0 0.00593306)
(0.00610306 0 0 5.93714e-14 -0.0122061 0 0 0 0.00610306)
(0.00627319 0 0 6.30992e-14 -0.0125464 0 0 0 0.00627319)
(0.0064423 0 0 6.50286e-14 -0.0128846 0 0 0 0.0064423)
(0.00660953 0 0 6.68246e-14 -0.0132191 0 0 0 0.00660953)
(0.00677451 0 0 6.8447e-14 -0.013549 0 0 0 0.00677451)
(0.00693775 0 0 6.81426e-14 -0.0138755 0 0 0 0.00693775)
(0.00710118 0 0 6.75729e-14 -0.0142024 0 0 0 0.00710118)
(0.00726889 0 0 6.8396e-14 -0.0145378 0 0 0 0.00726889)
(0.00744834 0 0 6.88488e-14 -0.0148967 0 0 0 0.00744834)
(0.007652 0 0 6.88752e-14 -0.015304 0 0 0 0.007652)
(0.00789981 0 0 6.84181e-14 -0.0157996 0 0 0 0.00789981)
(0.00822264 0 0 6.74204e-14 -0.0164453 0 0 0 0.00822264)
(0.00866695 0 0 6.58267e-14 -0.0173339 0 0 0 0.00866695)
(0.0093006 0 0 6.35864e-14 -0.0186012 0 0 0 0.0093006)
(0.0102209 0 0 6.06599e-14 -0.0204417 0 0 0 0.0102209)
(0.0115681 0 0 5.70315e-14 -0.0231361 0 0 0 0.0115681)
(0.0135347 0 0 5.27314e-14 -0.0270695 0 0 0 0.0135347)
(0.0163779 0 0 4.78704e-14 -0.0327559 0 0 0 0.0163779)
(0.0206108 0 0 4.26833e-14 -0.0412215 0 0 0 0.0206108)
(0.0269696 0 0 3.75693e-14 -0.0539391 0 0 0 0.0269696)
(0.0352504 0 0 2.96987e-14 -0.0705007 0 0 0 0.0352504)
(0.0396471 0 0 2.28476e-14 -0.0792943 0 0 0 0.0396471)
(0.0292308 0 0 1.83685e-14 -0.0584616 0 0 0 0.0292308)
(0.0208288 0 0 1.84454e-14 -0.0416577 0 0 0 0.0208288)
(0.0100701 0 0 9.22354e-15 -0.0201401 0 0 0 0.0100701)
(9.98116e-06 0 0 8.8589e-18 -1.99623e-05 0 0 0 9.98116e-06)
(2.71651e-07 0 0 1.252e-19 -5.43303e-07 0 0 0 2.71651e-07)
(6.80341e-10 0 0 2.2094e-22 -1.36068e-09 0 0 0 6.80341e-10)
(1.77973e-17 0 0 6.38356e-30 -3.55945e-17 0 0 0 1.77973e-17)
(1.58174e-25 0 0 1.44168e-37 -3.16348e-25 0 0 0 1.58174e-25)
(-1.72441e-34 0 0 4.05051e-45 3.44882e-34 0 0 0 -1.72441e-34)
(-4.61242e-42 0 0 3.00733e-52 9.22484e-42 0 0 0 -4.61242e-42)
(4.33966e-49 0 0 3.24292e-59 -8.67931e-49 0 0 0 4.33966e-49)
(2.40924e-56 0 0 9.23535e-67 -4.81847e-56 0 0 0 2.40924e-56)
(-1.39137e-63 0 0 -8.68553e-73 2.78274e-63 0 0 0 -1.39137e-63)
(-8.27554e-71 0 0 -3.12144e-79 1.65511e-70 0 0 0 -8.27554e-71)
(2.69957e-78 0 0 -6.87801e-86 -5.39914e-78 0 0 0 2.69957e-78)
(1.72346e-85 0 0 -1.21504e-92 -3.44693e-85 0 0 0 1.72346e-85)
(-3.05165e-93 0 0 -1.73991e-99 6.1033e-93 0 0 0 -3.05165e-93)
(-2.35181e-100 0 0 -2.22681e-106 4.70362e-100 0 0 0 -2.35181e-100)
(4.02513e-109 0 0 -2.53308e-113 -8.05027e-109 0 0 0 4.02513e-109)
(1.13804e-115 0 0 -2.78611e-120 -2.27608e-115 0 0 0 1.13804e-115)
(-8.10852e-124 0 0 -2.89152e-127 1.6217e-123 0 0 0 -8.10852e-124)
(7.99047e-130 0 0 -3.06838e-134 -1.59809e-129 0 0 0 7.99047e-130)
(2.03256e-136 0 0 -3.29173e-141 -4.06511e-136 0 0 0 2.03256e-136)
(2.9971e-143 0 0 -3.74598e-148 -5.9942e-143 0 0 0 2.9971e-143)
(2.92674e-150 0 0 -4.15912e-155 -5.85349e-150 0 0 0 2.92674e-150)
(1.93876e-157 0 0 -4.52826e-162 -3.87752e-157 0 0 0 1.93876e-157)
(-3.71997e-164 0 0 -4.53687e-169 7.43995e-164 0 0 0 -3.71997e-164)
(-6.67226e-171 0 0 -4.33157e-176 1.33445e-170 0 0 0 -6.67226e-171)
(-1.2198e-176 0 0 -3.72526e-183 2.43961e-176 0 0 0 -1.2198e-176)
(-5.17973e-181 0 0 -2.97669e-190 1.03595e-180 0 0 0 -5.17973e-181)
(-8.60516e-188 0 0 -2.11006e-197 1.72103e-187 0 0 0 -8.60516e-188)
(-4.06579e-194 0 0 -1.37587e-204 8.13158e-194 0 0 0 -4.06579e-194)
(-2.24908e-198 0 0 -7.88069e-212 4.49815e-198 0 0 0 -2.24908e-198)
)
;

boundaryField
{
    inlet
    {
        type            cyclic;
    }
    outlet
    {
        type            cyclic;
    }
    top
    {
        type            extrapolatedCalculated;
        value           uniform (-4.49386e-198 0 0 -7.87993e-212 8.98773e-198 0 0 0 -4.49386e-198);
    }
    bottom
    {
        type            extrapolatedCalculated;
        value           uniform (0.00171503 0 0 1.11026e-14 -0.00343006 0 0 0 0.00171503);
    }
    frontAndBackPlanes
    {
        type            empty;
    }
}


// ************************************************************************* //
