/*--------------------------------*- C++ -*----------------------------------*\
| =========                 |                                                 |
| \\      /  F ield         | OpenFOAM: The Open Source CFD Toolbox           |
|  \\    /   O peration     | Version:  v2006                                 |
|   \\  /    A nd           | Website:  www.openfoam.com                      |
|    \\/     M anipulation  |                                                 |
\*---------------------------------------------------------------------------*/
FoamFile
{
    version     2.0;
    format      ascii;
    class       volTensorField;
    location    "1360";
    object      Taub;
}
// * * * * * * * * * * * * * * * * * * * * * * * * * * * * * * * * * * * * * //

dimensions      [1 -1 -2 0 0 0 0];


internalField   nonuniform List<tensor> 
120
(
(-1.23175e-07 0 0 5.28736e-19 2.46349e-07 0 0 0 -1.23175e-07)
(-1.24148e-07 0 0 5.301e-19 2.48296e-07 0 0 0 -1.24148e-07)
(-1.256e-07 0 0 5.26083e-19 2.51199e-07 0 0 0 -1.256e-07)
(-1.27176e-07 0 0 5.2287e-19 2.54351e-07 0 0 0 -1.27176e-07)
(-1.28773e-07 0 0 5.26597e-19 2.57547e-07 0 0 0 -1.28773e-07)
(-1.30404e-07 0 0 5.33489e-19 2.60808e-07 0 0 0 -1.30404e-07)
(-1.32071e-07 0 0 5.25237e-19 2.64141e-07 0 0 0 -1.32071e-07)
(-1.33777e-07 0 0 5.13955e-19 2.67554e-07 0 0 0 -1.33777e-07)
(-1.35524e-07 0 0 5.37261e-19 2.71048e-07 0 0 0 -1.35524e-07)
(-1.37313e-07 0 0 5.58467e-19 2.74625e-07 0 0 0 -1.37313e-07)
(-1.39145e-07 0 0 5.57318e-19 2.7829e-07 0 0 0 -1.39145e-07)
(-1.41023e-07 0 0 5.81639e-19 2.82045e-07 0 0 0 -1.41023e-07)
(-1.42947e-07 0 0 6.06798e-19 2.85893e-07 0 0 0 -1.42947e-07)
(-1.44919e-07 0 0 6.11972e-19 2.89838e-07 0 0 0 -1.44919e-07)
(-1.46941e-07 0 0 6.23291e-19 2.93881e-07 0 0 0 -1.46941e-07)
(-1.49014e-07 0 0 6.35468e-19 2.98028e-07 0 0 0 -1.49014e-07)
(-1.5114e-07 0 0 6.48483e-19 3.0228e-07 0 0 0 -1.5114e-07)
(-1.53321e-07 0 0 6.62342e-19 3.06641e-07 0 0 0 -1.53321e-07)
(-1.55557e-07 0 0 6.77049e-19 3.11115e-07 0 0 0 -1.55557e-07)
(-1.57852e-07 0 0 6.92611e-19 3.15704e-07 0 0 0 -1.57852e-07)
(-1.60206e-07 0 0 7.09034e-19 3.20413e-07 0 0 0 -1.60206e-07)
(-1.62622e-07 0 0 7.26117e-19 3.25245e-07 0 0 0 -1.62622e-07)
(-1.65102e-07 0 0 6.96552e-19 3.30205e-07 0 0 0 -1.65102e-07)
(-1.67649e-07 0 0 8.03937e-19 3.35297e-07 0 0 0 -1.67649e-07)
(-1.70263e-07 0 0 9.12329e-19 3.40527e-07 0 0 0 -1.70263e-07)
(-1.7295e-07 0 0 9.13017e-19 3.45899e-07 0 0 0 -1.7295e-07)
(-1.7571e-07 0 0 8.86738e-19 3.51421e-07 0 0 0 -1.7571e-07)
(-1.78549e-07 0 0 8.61895e-19 3.57097e-07 0 0 0 -1.78549e-07)
(-1.81469e-07 0 0 9.76285e-19 3.62937e-07 0 0 0 -1.81469e-07)
(-1.84474e-07 0 0 9.6314e-19 3.68948e-07 0 0 0 -1.84474e-07)
(-1.87569e-07 0 0 7.79246e-19 3.75138e-07 0 0 0 -1.87569e-07)
(-1.90759e-07 0 0 7.62728e-19 3.81517e-07 0 0 0 -1.90759e-07)
(-1.94047e-07 0 0 8.56378e-19 3.88095e-07 0 0 0 -1.94047e-07)
(-1.9744e-07 0 0 8.85336e-19 3.9488e-07 0 0 0 -1.9744e-07)
(-2.00942e-07 0 0 8.35248e-19 4.01884e-07 0 0 0 -2.00942e-07)
(-2.04558e-07 -1.74837e-21 0 9.04417e-19 4.09116e-07 0 0 0 -2.04558e-07)
(-2.08294e-07 0 0 1.26618e-18 4.16589e-07 0 0 0 -2.08294e-07)
(-2.12157e-07 0 0 1.13038e-18 4.24313e-07 0 0 0 -2.12157e-07)
(-2.16151e-07 0 0 1.26939e-18 4.32302e-07 0 0 0 -2.16151e-07)
(-2.20283e-07 0 0 1.16172e-18 4.40566e-07 0 0 0 -2.20283e-07)
(-2.24559e-07 0 0 1.08147e-18 4.49119e-07 0 0 0 -2.24559e-07)
(-2.28987e-07 0 0 1.30205e-18 4.57974e-07 0 0 0 -2.28987e-07)
(-2.33573e-07 0 0 1.11132e-18 4.67145e-07 0 0 0 -2.33573e-07)
(-2.38326e-07 0 0 1.14655e-18 4.76652e-07 0 0 0 -2.38326e-07)
(-2.43257e-07 0 0 1.567e-18 4.86514e-07 0 0 0 -2.43257e-07)
(-2.48377e-07 0 0 1.46077e-18 4.96753e-07 0 0 0 -2.48377e-07)
(-2.53699e-07 0 0 1.21729e-18 5.07398e-07 0 0 0 -2.53699e-07)
(-2.59239e-07 0 0 1.08942e-18 5.18478e-07 0 0 0 -2.59239e-07)
(-2.65013e-07 0 0 1.3157e-18 5.30027e-07 0 0 0 -2.65013e-07)
(-2.71041e-07 0 0 1.82313e-18 5.42081e-07 0 0 0 -2.71041e-07)
(-2.77341e-07 0 0 1.64176e-18 5.54683e-07 0 0 0 -2.77341e-07)
(-2.83938e-07 0 0 1.70802e-18 5.67877e-07 0 0 0 -2.83938e-07)
(-2.90854e-07 0 0 1.77819e-18 5.81708e-07 0 0 0 -2.90854e-07)
(-2.98111e-07 0 0 1.70509e-18 5.96222e-07 0 0 0 -2.98111e-07)
(-3.0573e-07 0 0 1.9716e-18 6.1146e-07 0 0 0 -3.0573e-07)
(-3.13728e-07 0 0 2.24171e-18 6.27456e-07 0 0 0 -3.13728e-07)
(-3.22116e-07 0 0 2.18099e-18 6.44232e-07 0 0 0 -3.22116e-07)
(-3.30897e-07 0 0 2.60216e-18 6.61794e-07 0 0 0 -3.30897e-07)
(-3.40065e-07 6.97644e-21 0 2.28074e-18 6.8013e-07 0 0 0 -3.40065e-07)
(-3.49605e-07 0 0 1.96064e-18 6.9921e-07 0 0 0 -3.49605e-07)
(-3.59488e-07 0 0 2.38929e-18 7.18977e-07 0 0 0 -3.59488e-07)
(-3.69672e-07 0 0 2.49006e-18 7.39345e-07 0 0 0 -3.69672e-07)
(-3.80101e-07 0 0 2.59236e-18 7.60202e-07 0 0 0 -3.80101e-07)
(-3.90704e-07 0 0 3.08783e-18 7.81408e-07 0 0 0 -3.90704e-07)
(-4.01399e-07 0 0 2.30113e-18 8.02799e-07 0 0 0 -4.01399e-07)
(-4.12095e-07 0 0 2.41164e-18 8.2419e-07 0 0 0 -4.12095e-07)
(-4.22698e-07 0 0 3.39377e-18 8.45396e-07 0 0 0 -4.22698e-07)
(-4.33126e-07 0 0 3.07821e-18 8.66251e-07 0 0 0 -4.33126e-07)
(-4.43312e-07 0 0 3.16287e-18 8.86624e-07 0 0 0 -4.43312e-07)
(-4.53227e-07 0 0 3.71081e-18 9.06455e-07 0 0 0 -4.53227e-07)
(-4.62905e-07 0 0 3.2217e-18 9.25809e-07 0 0 0 -4.62905e-07)
(-4.72477e-07 0 0 2.72021e-18 9.44953e-07 0 0 0 -4.72477e-07)
(-4.82228e-07 0 0 3.23e-18 9.64456e-07 0 0 0 -4.82228e-07)
(-4.92677e-07 0 0 3.25275e-18 9.85354e-07 0 0 0 -4.92677e-07)
(-5.047e-07 0 0 3.25314e-18 1.0094e-06 0 0 0 -5.047e-07)
(-5.19697e-07 0 0 3.23064e-18 1.03939e-06 0 0 0 -5.19697e-07)
(-5.39818e-07 0 0 3.18257e-18 1.07964e-06 0 0 0 -5.39818e-07)
(-5.68277e-07 0 0 3.10633e-18 1.13655e-06 0 0 0 -5.68277e-07)
(-6.09766e-07 0 0 2.99956e-18 1.21953e-06 0 0 0 -6.09766e-07)
(-6.70927e-07 0 0 2.86042e-18 1.34185e-06 0 0 0 -6.70927e-07)
(-7.61095e-07 0 0 2.68819e-18 1.52219e-06 0 0 0 -7.61095e-07)
(-8.94035e-07 0 0 2.48436e-18 1.78807e-06 0 0 0 -8.94035e-07)
(-1.08785e-06 0 0 2.2542e-18 2.17569e-06 0 0 0 -1.08785e-06)
(-1.36395e-06 0 0 2.01654e-18 2.7279e-06 0 0 0 -1.36395e-06)
(-1.73596e-06 0 0 3.40805e-18 3.47193e-06 0 0 0 -1.73596e-06)
(-2.21124e-06 0 0 1.39608e-18 4.42247e-06 0 0 0 -2.21124e-06)
(-2.62226e-06 0 0 -4.99235e-19 5.24452e-06 0 0 0 -2.62226e-06)
(-3.52914e-06 0 0 1.23708e-18 7.05827e-06 0 0 0 -3.52914e-06)
(7.08782e-06 0 0 5.7058e-18 -1.41756e-05 0 0 0 7.08782e-06)
(0.000719712 0 0 6.74626e-16 -0.00143942 0 0 0 0.000719712)
(0.000155445 0 0 7.96977e-16 -0.00031089 0 0 0 0.000155445)
(-0.000358419 0 0 2.78716e-16 0.000716838 0 0 0 -0.000358419)
(-7.82952e-05 0 0 2.97669e-16 0.00015659 0 0 0 -7.82952e-05)
(7.0388e-05 0 0 2.23155e-16 -0.000140776 0 0 0 7.0388e-05)
(9.60144e-06 0 0 1.60306e-16 -1.92029e-05 0 0 0 9.60144e-06)
(-5.41149e-06 0 0 1.08699e-16 1.0823e-05 0 0 0 -5.41149e-06)
(-1.02671e-06 0 0 6.64866e-17 2.05342e-06 0 0 0 -1.02671e-06)
(4.05323e-07 0 0 3.20463e-17 -8.10646e-07 0 0 0 4.05323e-07)
(1.01695e-07 0 0 3.99189e-18 -2.03391e-07 0 0 0 1.01695e-07)
(-2.91417e-08 0 0 -1.88385e-17 5.82834e-08 0 0 0 -2.91417e-08)
(-9.68877e-09 0 0 -3.74016e-17 1.93775e-08 0 0 0 -9.68877e-09)
(1.98374e-09 0 0 -5.2475e-17 -3.96748e-09 0 0 0 1.98374e-09)
(8.94528e-10 0 0 -6.46856e-17 -1.78906e-09 0 0 0 8.94528e-10)
(-1.25361e-10 0 0 -7.45378e-17 2.50721e-10 0 0 0 -1.25361e-10)
(-8.489e-11 0 0 -8.24389e-17 1.6978e-10 0 0 0 -8.489e-11)
(1.09014e-12 0 0 -8.87214e-17 -2.18028e-12 0 0 0 1.09014e-12)
(3.63922e-12 0 0 -9.36601e-17 -7.27845e-12 0 0 0 3.63922e-12)
(-2.52678e-13 0 0 -9.74858e-17 5.05357e-13 0 0 0 -2.52678e-13)
(2.64001e-12 0 0 -1.00395e-16 -5.28002e-12 0 0 0 2.64001e-12)
(6.33261e-12 0 0 -1.02555e-16 -1.26652e-11 0 0 0 6.33261e-12)
(8.31154e-12 0 0 -1.04113e-16 -1.66231e-11 0 0 0 8.31154e-12)
(7.40218e-12 0 0 -1.05194e-16 -1.48044e-11 0 0 0 7.40218e-12)
(4.60812e-12 0 0 -1.05906e-16 -9.21625e-12 0 0 0 4.60812e-12)
(2.65862e-12 0 0 -1.06342e-16 -5.31723e-12 0 0 0 2.65862e-12)
(2.94326e-12 0 0 -1.0658e-16 -5.88651e-12 0 0 0 2.94326e-12)
(5.05321e-12 0 0 -1.06684e-16 -1.01064e-11 0 0 0 5.05321e-12)
(6.0241e-12 0 0 -1.06707e-16 -1.20482e-11 0 0 0 6.0241e-12)
(-3.44039e-12 0 0 -1.06689e-16 6.88078e-12 0 0 0 -3.44039e-12)
(-6.97136e-12 0 0 -1.0666e-16 1.39427e-11 0 0 0 -6.97136e-12)
(1.48812e-10 0 0 -1.06639e-16 -2.97625e-10 0 0 0 1.48812e-10)
)
;

boundaryField
{
    inlet
    {
        type            cyclic;
    }
    outlet
    {
        type            cyclic;
    }
    top
    {
        type            extrapolatedCalculated;
        value           uniform (2.99028e-10 0 0 -1.06632e-16 -5.98055e-10 0 0 0 2.99028e-10);
    }
    bottom
    {
        type            extrapolatedCalculated;
        value           uniform (-1.22865e-07 0 0 5.28475e-19 2.45729e-07 0 0 0 -1.22865e-07);
    }
    frontAndBackPlanes
    {
        type            empty;
    }
}


// ************************************************************************* //
