/*--------------------------------*- C++ -*----------------------------------*\
| =========                 |                                                 |
| \\      /  F ield         | OpenFOAM: The Open Source CFD Toolbox           |
|  \\    /   O peration     | Version:  v2006                                 |
|   \\  /    A nd           | Website:  www.openfoam.com                      |
|    \\/     M anipulation  |                                                 |
\*---------------------------------------------------------------------------*/
FoamFile
{
    version     2.0;
    format      ascii;
    class       volVectorField;
    location    "1360";
    object      Ua;
}
// * * * * * * * * * * * * * * * * * * * * * * * * * * * * * * * * * * * * * //

dimensions      [0 1 -1 0 0 0 0];


internalField   nonuniform List<vector> 
120
(
(2.64348e-21 -1.22502e-09 0)
(7.9356e-21 -3.69242e-09 0)
(1.32398e-20 -6.19456e-09 0)
(1.84627e-20 -8.72987e-09 0)
(2.37138e-20 -1.12978e-08 0)
(2.9001e-20 -1.38992e-08 0)
(3.43325e-20 -1.6535e-08 0)
(3.95138e-20 -1.92061e-08 0)
(4.47555e-20 -2.19132e-08 0)
(5.02682e-20 -2.46572e-08 0)
(5.58578e-20 -2.74391e-08 0)
(6.15322e-20 -3.02598e-08 0)
(6.75023e-20 -3.31203e-08 0)
(7.35738e-20 -3.60216e-08 0)
(7.97551e-20 -3.89648e-08 0)
(8.60544e-20 -4.19509e-08 0)
(9.24803e-20 -4.49811e-08 0)
(9.9041e-20 -4.80564e-08 0)
(1.05745e-19 -5.11782e-08 0)
(1.12601e-19 -5.43477e-08 0)
(1.19618e-19 -5.7566e-08 0)
(1.26804e-19 -6.08345e-08 0)
(1.34168e-19 -6.41547e-08 0)
(1.41719e-19 -6.75278e-08 0)
(1.50275e-19 -7.09553e-08 0)
(1.59036e-19 -7.44388e-08 0)
(1.68012e-19 -7.79799e-08 0)
(1.76806e-19 -8.15802e-08 0)
(1.85834e-19 -8.52413e-08 0)
(1.95105e-19 -8.89653e-08 0)
(2.0382e-19 -9.27538e-08 0)
(2.1199e-19 -9.6609e-08 0)
(2.20435e-19 -1.00533e-07 0)
(2.29165e-19 -1.04528e-07 0)
(2.38193e-19 -1.08596e-07 0)
(2.47523e-19 -1.1274e-07 0)
(2.57984e-19 -1.16962e-07 0)
(2.69598e-19 -1.21266e-07 0)
(2.80755e-19 -1.25653e-07 0)
(2.93087e-19 -1.30127e-07 0)
(3.04186e-19 -1.3469e-07 0)
(3.16494e-19 -1.39347e-07 0)
(3.28413e-19 -1.44101e-07 0)
(3.40773e-19 -1.48954e-07 0)
(3.53595e-19 -1.53912e-07 0)
(3.6771e-19 -1.58977e-07 0)
(3.80719e-19 -1.64155e-07 0)
(3.94266e-19 -1.6945e-07 0)
(4.0757e-19 -1.74866e-07 0)
(4.23085e-19 -1.8041e-07 0)
(4.39229e-19 -1.86087e-07 0)
(4.56033e-19 -1.91903e-07 0)
(4.73533e-19 -1.97865e-07 0)
(4.91765e-19 -2.03981e-07 0)
(5.10765e-19 -2.10259e-07 0)
(5.31378e-19 -2.16706e-07 0)
(5.52832e-19 -2.23331e-07 0)
(5.75165e-19 -2.30144e-07 0)
(5.98426e-19 -2.37154e-07 0)
(6.21013e-19 -2.44369e-07 0)
(6.44553e-19 -2.51797e-07 0)
(6.69087e-19 -2.59448e-07 0)
(6.94631e-19 -2.67328e-07 0)
(7.21194e-19 -2.75443e-07 0)
(7.48776e-19 -2.83798e-07 0)
(7.75745e-19 -2.92395e-07 0)
(8.0532e-19 -3.01235e-07 0)
(8.3584e-19 -3.10318e-07 0)
(8.67252e-19 -3.19642e-07 0)
(8.99482e-19 -3.29203e-07 0)
(9.32439e-19 -3.38998e-07 0)
(9.6438e-19 -3.49025e-07 0)
(9.96794e-19 -3.59287e-07 0)
(1.02952e-18 -3.69793e-07 0)
(1.06236e-18 -3.80568e-07 0)
(1.09511e-18 -3.91656e-07 0)
(1.12752e-18 -4.03139e-07 0)
(1.15932e-18 -4.15149e-07 0)
(1.19022e-18 -4.27901e-07 0)
(1.21988e-18 -4.41722e-07 0)
(1.24799e-18 -4.57104e-07 0)
(1.2742e-18 -4.74774e-07 0)
(1.29821e-18 -4.95774e-07 0)
(1.31979e-18 -5.21568e-07 0)
(1.33886e-18 -5.54662e-07 0)
(1.35557e-18 -5.98624e-07 0)
(1.36714e-18 -6.55378e-07 0)
(1.37865e-18 -7.18798e-07 0)
(1.39195e-18 -7.73809e-07 0)
(1.41806e-18 -8.52303e-07 0)
(1.47707e-17 -4.45937e-05 0)
(2.03401e-17 -6.48095e-05 0)
(2.87665e-17 -0.000135695 0)
(3.52218e-17 -0.000202285 0)
(3.99436e-17 -0.00022918 0)
(4.32425e-17 -0.000228685 0)
(4.53789e-17 -0.000228486 0)
(4.65668e-17 -0.000228532 0)
(4.69813e-17 -0.00022855 0)
(4.67662e-17 -0.000228547 0)
(4.60391e-17 -0.000228546 0)
(4.48957e-17 -0.000228546 0)
(4.34149e-17 -0.000228546 0)
(4.16609e-17 -0.000228546 0)
(3.96874e-17 -0.000228546 0)
(3.75384e-17 -0.000228546 0)
(3.52507e-17 -0.000228546 0)
(3.28549e-17 -0.000228546 0)
(3.03758e-17 -0.000228546 0)
(2.78344e-17 -0.000228546 0)
(2.52474e-17 -0.000228546 0)
(2.26281e-17 -0.000228546 0)
(1.99869e-17 -0.000228546 0)
(1.73322e-17 -0.000228546 0)
(1.46692e-17 -0.000228546 0)
(1.20024e-17 -0.000228546 0)
(9.33436e-18 -0.000228546 0)
(6.66644e-18 -0.000228518 0)
(3.99926e-18 -0.000228481 0)
(1.33292e-18 -0.000228045 0)
)
;

boundaryField
{
    inlet
    {
        type            cyclic;
    }
    outlet
    {
        type            cyclic;
    }
    top
    {
        type            fixedValue;
        value           uniform (0 0 0);
    }
    bottom
    {
        type            fixedValue;
        value           uniform (0 0 0);
    }
    frontAndBackPlanes
    {
        type            empty;
    }
}


// ************************************************************************* //
