/*--------------------------------*- C++ -*----------------------------------*\
| =========                 |                                                 |
| \\      /  F ield         | OpenFOAM: The Open Source CFD Toolbox           |
|  \\    /   O peration     | Version:  v2006                                 |
|   \\  /    A nd           | Website:  www.openfoam.com                      |
|    \\/     M anipulation  |                                                 |
\*---------------------------------------------------------------------------*/
FoamFile
{
    version     2.0;
    format      ascii;
    class       volVectorField;
    location    "1360";
    object      Ub;
}
// * * * * * * * * * * * * * * * * * * * * * * * * * * * * * * * * * * * * * //

dimensions      [0 1 -1 0 0 0 0];


internalField   nonuniform List<vector> 
120
(
(2.64348e-21 1.84374e-09 0)
(7.93565e-21 5.54981e-09 0)
(1.32504e-20 9.29609e-09 0)
(1.84628e-20 1.30897e-08 0)
(2.37138e-20 1.6931e-08 0)
(2.90013e-20 2.08209e-08 0)
(3.43908e-20 2.47605e-08 0)
(3.95137e-20 2.87509e-08 0)
(4.46779e-20 3.27934e-08 0)
(5.02679e-20 3.68892e-08 0)
(5.58573e-20 4.10395e-08 0)
(6.14249e-20 4.52458e-08 0)
(6.75018e-20 4.95094e-08 0)
(7.35738e-20 5.38318e-08 0)
(7.97551e-20 5.82144e-08 0)
(8.60544e-20 6.26587e-08 0)
(9.24803e-20 6.71664e-08 0)
(9.9041e-20 7.1739e-08 0)
(1.05745e-19 7.63782e-08 0)
(1.12601e-19 8.10858e-08 0)
(1.19618e-19 8.58635e-08 0)
(1.26804e-19 9.07132e-08 0)
(1.34164e-19 9.56367e-08 0)
(1.40759e-19 1.00636e-07 0)
(1.50271e-19 1.05713e-07 0)
(1.59039e-19 1.10871e-07 0)
(1.68566e-19 1.1611e-07 0)
(1.76809e-19 1.21434e-07 0)
(1.85839e-19 1.26845e-07 0)
(1.96376e-19 1.32345e-07 0)
(2.05144e-19 1.37938e-07 0)
(2.11996e-19 1.43625e-07 0)
(2.20435e-19 1.4941e-07 0)
(2.29165e-19 1.55296e-07 0)
(2.38186e-19 1.61286e-07 0)
(2.45913e-19 1.67383e-07 0)
(2.56322e-19 1.73592e-07 0)
(2.71306e-19 1.79915e-07 0)
(2.78994e-19 1.86357e-07 0)
(2.96768e-19 1.92922e-07 0)
(3.02298e-19 1.99614e-07 0)
(3.18464e-19 2.06437e-07 0)
(3.28422e-19 2.13397e-07 0)
(3.40763e-19 2.20498e-07 0)
(3.5143e-19 2.27745e-07 0)
(3.72212e-19 2.35144e-07 0)
(3.8075e-19 2.42701e-07 0)
(3.96647e-19 2.50422e-07 0)
(4.02621e-19 2.58314e-07 0)
(4.23063e-19 2.66384e-07 0)
(4.39229e-19 2.74641e-07 0)
(4.56033e-19 2.83093e-07 0)
(4.73533e-19 2.91749e-07 0)
(4.91752e-19 3.0062e-07 0)
(5.07787e-19 3.09716e-07 0)
(5.31364e-19 3.19048e-07 0)
(5.52832e-19 3.28628e-07 0)
(5.75195e-19 3.38468e-07 0)
(6.05134e-19 3.48581e-07 0)
(6.21043e-19 3.58977e-07 0)
(6.44553e-19 3.69667e-07 0)
(6.69087e-19 3.80662e-07 0)
(6.94631e-19 3.91971e-07 0)
(7.2123e-19 4.03599e-07 0)
(7.5675e-19 4.15551e-07 0)
(7.6753e-19 4.27828e-07 0)
(8.05282e-19 4.4043e-07 0)
(8.3584e-19 4.53352e-07 0)
(8.67252e-19 4.66588e-07 0)
(8.99526e-19 4.80131e-07 0)
(9.41986e-19 4.93972e-07 0)
(9.64424e-19 5.08105e-07 0)
(9.96794e-19 5.22531e-07 0)
(1.02952e-18 5.37261e-07 0)
(1.06236e-18 5.52326e-07 0)
(1.09511e-18 5.67791e-07 0)
(1.12752e-18 5.83772e-07 0)
(1.15932e-18 6.00464e-07 0)
(1.19022e-18 6.18179e-07 0)
(1.21988e-18 6.37396e-07 0)
(1.24799e-18 6.58831e-07 0)
(1.2742e-18 6.8353e-07 0)
(1.29821e-18 7.13048e-07 0)
(1.31979e-18 7.49536e-07 0)
(1.33902e-18 7.95856e-07 0)
(1.38881e-18 8.55002e-07 0)
(1.36731e-18 9.30309e-07 0)
(1.37868e-18 1.0146e-06 0)
(1.39244e-18 1.14532e-06 0)
(1.49468e-18 5.8231e-07 0)
(1.51369e-17 -4.28438e-05 0)
(2.03406e-17 -1.0445e-05 0)
(2.87838e-17 9.80441e-06 0)
(3.52254e-17 1.30031e-06 0)
(3.99429e-17 -7.55099e-07 0)
(4.32417e-17 -1.40088e-07 0)
(4.53785e-17 5.6727e-08 0)
(4.65665e-17 1.39386e-08 0)
(4.69811e-17 -4.07907e-09 0)
(4.67661e-17 -1.31764e-09 0)
(4.6039e-17 2.92729e-10 0)
(4.48958e-17 1.35855e-10 0)
(4.34149e-17 -4.86982e-12 0)
(4.16611e-17 1.65947e-12 0)
(3.96876e-17 1.39366e-11 0)
(3.75386e-17 1.43946e-11 0)
(3.5251e-17 1.37731e-11 0)
(3.2855e-17 1.38486e-11 0)
(3.03761e-17 1.3811e-11 0)
(2.78347e-17 1.34526e-11 0)
(2.52477e-17 1.2861e-11 0)
(2.26284e-17 1.22057e-11 0)
(1.99873e-17 1.17505e-11 0)
(1.73324e-17 1.15144e-11 0)
(1.46695e-17 1.13517e-11 0)
(1.20027e-17 1.10728e-11 0)
(9.33466e-18 1.05936e-11 0)
(6.66674e-18 1.01691e-11 0)
(3.99956e-18 1.11097e-11 0)
(1.33306e-18 1.12149e-11 0)
)
;

boundaryField
{
    inlet
    {
        type            cyclic;
    }
    outlet
    {
        type            cyclic;
    }
    top
    {
        type            fixedValue;
        value           uniform (0 0 0);
    }
    bottom
    {
        type            fixedValue;
        value           uniform (0 0 0);
    }
    frontAndBackPlanes
    {
        type            empty;
    }
}


// ************************************************************************* //
