/*--------------------------------*- C++ -*----------------------------------*\
| =========                 |                                                 |
| \\      /  F ield         | OpenFOAM: The Open Source CFD Toolbox           |
|  \\    /   O peration     | Version:  2206                                  |
|   \\  /    A nd           | Website:  www.openfoam.com                      |
|    \\/     M anipulation  |                                                 |
\*---------------------------------------------------------------------------*/
FoamFile
{
    version     2.0;
    format      ascii;
    arch        "LSB;label=32;scalar=64";
    class       volScalarField;
    location    "1740";
    object      pff;
}
// * * * * * * * * * * * * * * * * * * * * * * * * * * * * * * * * * * * * * //

dimensions      [1 -1 -2 0 0 0 0];

internalField   nonuniform List<scalar> 
120
(
26.4318
25.8984
25.8987
25.3213
25.3042
24.7387
24.7099
24.1563
24.1156
23.574
23.5215
22.9917
22.9275
22.4096
22.3336
21.8276
21.7399
21.2457
21.1463
20.6638
20.5529
20.0821
19.9597
19.5004
19.3667
18.9188
18.7739
18.3372
18.1813
17.7557
17.5891
17.1742
16.9971
16.5927
16.4055
16.0111
15.8142
15.4296
15.2232
14.848
14.6327
14.2663
14.0426
13.6846
13.4529
13.1029
12.8637
12.5211
12.2749
11.9392
11.6866
11.3572
11.0989
10.7752
10.5116
10.1931
9.92489
9.61107
9.3387
9.02898
8.75304
8.44691
8.16793
7.86489
7.58339
7.28292
6.99942
6.70105
6.41605
6.11928
5.83334
5.5376
5.25136
4.95601
4.67024
4.37443
4.09016
3.79276
3.51138
3.21084
2.93425
2.62848
2.35914
2.04571
1.78606
1.46347
1.21343
0.886178
0.633236
0.32759
0
0
0
0
0
0
0
0
0
0
0
0
0
0
0
0
0
0
0
0
0
0
0
0
0
0
0
0
0
0
)
;

boundaryField
{
    inlet
    {
        type            cyclic;
    }
    outlet
    {
        type            cyclic;
    }
    top
    {
        type            calculated;
        value           uniform 0;
    }
    bottom
    {
        type            calculated;
        value           uniform 26.4318;
    }
    frontAndBackPlanes
    {
        type            empty;
    }
}


// ************************************************************************* //
