/*--------------------------------*- C++ -*----------------------------------*\
| =========                 |                                                 |
| \\      /  F ield         | OpenFOAM: The Open Source CFD Toolbox           |
|  \\    /   O peration     | Version:  2206                                  |
|   \\  /    A nd           | Website:  www.openfoam.com                      |
|    \\/     M anipulation  |                                                 |
\*---------------------------------------------------------------------------*/
FoamFile
{
    version     2.0;
    format      ascii;
    arch        "LSB;label=32;scalar=64";
    class       surfaceScalarField;
    location    "1740";
    object      phi.b;
}
// * * * * * * * * * * * * * * * * * * * * * * * * * * * * * * * * * * * * * //

dimensions      [0 3 -1 0 0 0 0];

oriented        oriented;

internalField   nonuniform List<scalar> 
119
(
1.70739e-17
3.44951e-17
5.19141e-17
6.96904e-17
8.75117e-17
1.05639e-16
1.23881e-16
1.42343e-16
1.61026e-16
1.79806e-16
1.98953e-16
2.18029e-16
2.37667e-16
2.57016e-16
2.7717e-16
2.96766e-16
3.17464e-16
3.37282e-16
3.58552e-16
3.78564e-16
4.00433e-16
4.20612e-16
4.43105e-16
4.63426e-16
4.86564e-16
5.07005e-16
5.30806e-16
5.51348e-16
5.75823e-16
5.96449e-16
6.21604e-16
6.42303e-16
6.68138e-16
6.88903e-16
7.15407e-16
7.36238e-16
7.63394e-16
7.84295e-16
8.12076e-16
8.33055e-16
8.61425e-16
8.82495e-16
9.11409e-16
9.32587e-16
9.6199e-16
9.83294e-16
1.01313e-15
1.03458e-15
1.06477e-15
1.08638e-15
1.11685e-15
1.13866e-15
1.16933e-15
1.19133e-15
1.22213e-15
1.24433e-15
1.27517e-15
1.29758e-15
1.32839e-15
1.35099e-15
1.38172e-15
1.40446e-15
1.43509e-15
1.45791e-15
1.48846e-15
1.51123e-15
1.54179e-15
1.56432e-15
1.59509e-15
1.61707e-15
1.64838e-15
1.66932e-15
1.70172e-15
1.72091e-15
1.75516e-15
1.7716e-15
1.80865e-15
1.82118e-15
1.86183e-15
1.86963e-15
1.91329e-15
1.91801e-15
1.95865e-15
1.97153e-15
1.98422e-15
2.05147e-15
1.94352e-15
2.25076e-15
1.63821e-15
4.2344e-15
2.23723e-15
8.85927e-19
2.87357e-17
-4.32144e-21
-3.53766e-21
-1.82734e-21
9.97877e-22
3.45758e-21
4.37595e-21
3.90779e-21
1.80824e-21
-1.73538e-21
-4.06386e-21
-3.40444e-21
-1.77535e-21
-5.51857e-22
1.23801e-21
2.71385e-21
2.67817e-21
1.87722e-21
-1.51514e-22
-2.79987e-21
-3.47633e-21
-2.06366e-21
8.34023e-22
3.24755e-21
3.22764e-21
1.01203e-21
-1.94688e-21
)
;

boundaryField
{
    inlet
    {
        type            cyclic;
        value           nonuniform List<scalar> 
120
(
-4.49183e-27
-1.34814e-26
-2.24846e-26
-3.15107e-26
-4.05687e-26
-4.96676e-26
-5.88167e-26
-6.80242e-26
-7.72992e-26
-8.66512e-26
-9.60877e-26
-1.05617e-25
-1.15249e-25
-1.2499e-25
-1.34849e-25
-1.44832e-25
-1.54948e-25
-1.65204e-25
-1.75607e-25
-1.86162e-25
-1.96876e-25
-2.07756e-25
-2.18806e-25
-2.30027e-25
-2.41436e-25
-2.53026e-25
-2.64805e-25
-2.7677e-25
-2.8893e-25
-3.0129e-25
-3.13841e-25
-3.26583e-25
-3.39526e-25
-3.52664e-25
-3.65995e-25
-3.7951e-25
-3.92884e-25
-4.06453e-25
-4.20175e-25
-4.34102e-25
-4.48156e-25
-4.62401e-25
-4.76775e-25
-4.91296e-25
-5.05939e-25
-5.20731e-25
-5.35589e-25
-5.50564e-25
-5.65583e-25
-5.80707e-25
-5.95861e-25
-6.11045e-25
-6.2624e-25
-6.41427e-25
-6.56576e-25
-6.71697e-25
-6.86739e-25
-7.01692e-25
-7.16565e-25
-7.31448e-25
-7.46205e-25
-7.60781e-25
-7.7515e-25
-7.89289e-25
-8.03196e-25
-8.16753e-25
-8.30079e-25
-8.43054e-25
-8.55677e-25
-8.67924e-25
-8.79799e-25
-8.91197e-25
-9.02175e-25
-9.12686e-25
-9.22706e-25
-9.32216e-25
-9.41195e-25
-9.49624e-25
-9.57484e-25
-9.64758e-25
-9.7143e-25
-9.77486e-25
-9.8291e-25
-9.87692e-25
-9.91819e-25
-9.95347e-25
-9.9807e-25
-1.00018e-24
-1.0016e-24
-1.00233e-24
-1.00237e-24
-9.88877e-25
-9.59856e-25
-9.30389e-25
-9.00483e-25
-8.70127e-25
-8.39317e-25
-8.08048e-25
-7.76315e-25
-7.44116e-25
-7.11454e-25
-6.78329e-25
-6.44746e-25
-6.10713e-25
-5.76238e-25
-5.41332e-25
-5.06011e-25
-4.70289e-25
-4.34187e-25
-3.97723e-25
-3.60923e-25
-3.2381e-25
-2.86412e-25
-2.48758e-25
-2.10879e-25
-1.72806e-25
-1.34573e-25
-9.62149e-26
-5.77663e-26
-1.92633e-26
)
;
    }
    outlet
    {
        type            cyclic;
        value           nonuniform List<scalar> 
120
(
4.49183e-27
1.34814e-26
2.24846e-26
3.15107e-26
4.05687e-26
4.96676e-26
5.88167e-26
6.80242e-26
7.72992e-26
8.66512e-26
9.60877e-26
1.05617e-25
1.15249e-25
1.2499e-25
1.34849e-25
1.44832e-25
1.54948e-25
1.65204e-25
1.75607e-25
1.86162e-25
1.96876e-25
2.07756e-25
2.18806e-25
2.30027e-25
2.41436e-25
2.53026e-25
2.64805e-25
2.7677e-25
2.8893e-25
3.0129e-25
3.13841e-25
3.26583e-25
3.39526e-25
3.52664e-25
3.65995e-25
3.7951e-25
3.92884e-25
4.06453e-25
4.20175e-25
4.34102e-25
4.48156e-25
4.62401e-25
4.76775e-25
4.91296e-25
5.05939e-25
5.20731e-25
5.35589e-25
5.50564e-25
5.65583e-25
5.80707e-25
5.95861e-25
6.11045e-25
6.2624e-25
6.41427e-25
6.56576e-25
6.71697e-25
6.86739e-25
7.01692e-25
7.16565e-25
7.31448e-25
7.46205e-25
7.60781e-25
7.7515e-25
7.89289e-25
8.03196e-25
8.16753e-25
8.30079e-25
8.43054e-25
8.55677e-25
8.67924e-25
8.79799e-25
8.91197e-25
9.02175e-25
9.12686e-25
9.22706e-25
9.32216e-25
9.41195e-25
9.49624e-25
9.57484e-25
9.64758e-25
9.7143e-25
9.77486e-25
9.8291e-25
9.87692e-25
9.91819e-25
9.95347e-25
9.9807e-25
1.00018e-24
1.0016e-24
1.00233e-24
1.00237e-24
9.88877e-25
9.59856e-25
9.30389e-25
9.00483e-25
8.70127e-25
8.39317e-25
8.08048e-25
7.76315e-25
7.44116e-25
7.11454e-25
6.78329e-25
6.44746e-25
6.10713e-25
5.76238e-25
5.41332e-25
5.06011e-25
4.70289e-25
4.34187e-25
3.97723e-25
3.60923e-25
3.2381e-25
2.86412e-25
2.48758e-25
2.10879e-25
1.72806e-25
1.34573e-25
9.62149e-26
5.77663e-26
1.92633e-26
)
;
    }
    top
    {
        type            fixedValue;
        value           uniform 0;
    }
    bottom
    {
        type            fixedValue;
        value           uniform 0;
    }
    frontAndBackPlanes
    {
        type            empty;
        value           nonuniform List<scalar> 0();
    }
}


// ************************************************************************* //
