/*--------------------------------*- C++ -*----------------------------------*\
| =========                 |                                                 |
| \\      /  F ield         | OpenFOAM: The Open Source CFD Toolbox           |
|  \\    /   O peration     | Version:  2206                                  |
|   \\  /    A nd           | Website:  www.openfoam.com                      |
|    \\/     M anipulation  |                                                 |
\*---------------------------------------------------------------------------*/
FoamFile
{
    version     2.0;
    format      ascii;
    arch        "LSB;label=32;scalar=64";
    class       surfaceScalarField;
    location    "1740";
    object      phi.a;
}
// * * * * * * * * * * * * * * * * * * * * * * * * * * * * * * * * * * * * * //

dimensions      [0 3 -1 0 0 0 0];

oriented        oriented;

internalField   nonuniform List<scalar> 
119
(
-1.1379e-17
-2.29936e-17
-3.46116e-17
-4.64726e-17
-5.83683e-17
-7.04727e-17
-8.26592e-17
-9.49977e-17
-1.07489e-16
-1.20051e-16
-1.32864e-16
-1.45635e-16
-1.58787e-16
-1.71753e-16
-1.85263e-16
-1.98407e-16
-2.12294e-16
-2.256e-16
-2.39884e-16
-2.53335e-16
-2.68035e-16
-2.81613e-16
-2.96748e-16
-3.10438e-16
-3.26022e-16
-3.3981e-16
-3.55857e-16
-3.6973e-16
-3.8625e-16
-4.00199e-16
-4.17197e-16
-4.31216e-16
-4.48693e-16
-4.62779e-16
-4.80731e-16
-4.94885e-16
-5.13301e-16
-5.27527e-16
-5.46393e-16
-5.60699e-16
-5.79992e-16
-5.94389e-16
-6.14082e-16
-6.28582e-16
-6.48642e-16
-6.63262e-16
-6.8365e-16
-6.98404e-16
-7.19077e-16
-7.33984e-16
-7.54894e-16
-7.6997e-16
-7.91068e-16
-8.06325e-16
-8.27561e-16
-8.4301e-16
-8.64337e-16
-8.79982e-16
-9.01358e-16
-9.17195e-16
-9.38592e-16
-9.54601e-16
-9.76011e-16
-9.92154e-16
-1.0136e-15
-1.02981e-15
-1.05137e-15
-1.06752e-15
-1.08935e-15
-1.10524e-15
-1.12759e-15
-1.14292e-15
-1.16618e-15
-1.18048e-15
-1.20522e-15
-1.21785e-15
-1.24479e-15
-1.25498e-15
-1.28474e-15
-1.29201e-15
-1.32432e-15
-1.32991e-15
-1.36081e-15
-1.37276e-15
-1.3852e-15
-1.4364e-15
-1.36592e-15
-1.58935e-15
-1.16473e-15
-4.49991e-15
-9.34314e-15
-1.03964e-14
-2.63678e-11
-6.47361e-11
-7.89356e-11
-8.1481e-11
-8.19039e-11
-8.19844e-11
-8.20028e-11
-8.2008e-11
-8.20097e-11
-8.20104e-11
-8.20108e-11
-8.2011e-11
-8.20111e-11
-8.20112e-11
-8.20113e-11
-8.20113e-11
-8.20113e-11
-8.20113e-11
-8.20112e-11
-8.20112e-11
-8.2011e-11
-8.20108e-11
-8.20104e-11
-8.20093e-11
-8.20039e-11
-8.19603e-11
-8.11992e-11
)
;

boundaryField
{
    inlet
    {
        type            cyclic;
        value           nonuniform List<scalar> 
120
(
-4.49182e-27
-1.34814e-26
-2.24846e-26
-3.15107e-26
-4.05687e-26
-4.96676e-26
-5.88165e-26
-6.80242e-26
-7.72995e-26
-8.66512e-26
-9.60877e-26
-1.05618e-25
-1.15249e-25
-1.2499e-25
-1.34849e-25
-1.44832e-25
-1.54948e-25
-1.65204e-25
-1.75607e-25
-1.86162e-25
-1.96876e-25
-2.07756e-25
-2.18806e-25
-2.30031e-25
-2.41436e-25
-2.53026e-25
-2.64803e-25
-2.7677e-25
-2.8893e-25
-3.01285e-25
-3.13836e-25
-3.26583e-25
-3.39526e-25
-3.52664e-25
-3.65995e-25
-3.79517e-25
-3.9289e-25
-4.06447e-25
-4.20182e-25
-4.34089e-25
-4.48162e-25
-4.62394e-25
-4.76775e-25
-4.91296e-25
-5.05946e-25
-5.20715e-25
-5.35589e-25
-5.50556e-25
-5.656e-25
-5.80707e-25
-5.95861e-25
-6.11045e-25
-6.2624e-25
-6.41427e-25
-6.56586e-25
-6.71697e-25
-6.86739e-25
-7.01692e-25
-7.16543e-25
-7.31448e-25
-7.46205e-25
-7.60781e-25
-7.7515e-25
-7.89289e-25
-8.03173e-25
-8.16777e-25
-8.30079e-25
-8.43054e-25
-8.55677e-25
-8.67924e-25
-8.79772e-25
-8.91197e-25
-9.02175e-25
-9.12686e-25
-9.22706e-25
-9.32216e-25
-9.41195e-25
-9.49624e-25
-9.57484e-25
-9.64758e-25
-9.7143e-25
-9.77486e-25
-9.8291e-25
-9.87692e-25
-9.91819e-25
-9.95282e-25
-9.9807e-25
-1.00018e-24
-1.0016e-24
-1.00233e-24
-1.00261e-24
-1.00308e-24
-1.00317e-24
-6.87691e-25
-3.45629e-25
-2.11181e-25
-1.75951e-25
-1.66996e-25
-1.64489e-25
-1.63682e-25
-1.6338e-25
-1.63246e-25
-1.63176e-25
-1.63131e-25
-1.63099e-25
-1.63074e-25
-1.63053e-25
-1.63036e-25
-1.63021e-25
-1.63008e-25
-1.62998e-25
-1.62989e-25
-1.62981e-25
-1.62975e-25
-1.62968e-25
-1.6296e-25
-1.62937e-25
-1.6284e-25
-1.62161e-25
-1.53915e-25
)
;
    }
    outlet
    {
        type            cyclic;
        value           nonuniform List<scalar> 
120
(
4.49182e-27
1.34814e-26
2.24846e-26
3.15107e-26
4.05687e-26
4.96676e-26
5.88165e-26
6.80242e-26
7.72995e-26
8.66512e-26
9.60877e-26
1.05618e-25
1.15249e-25
1.2499e-25
1.34849e-25
1.44832e-25
1.54948e-25
1.65204e-25
1.75607e-25
1.86162e-25
1.96876e-25
2.07756e-25
2.18806e-25
2.30031e-25
2.41436e-25
2.53026e-25
2.64803e-25
2.7677e-25
2.8893e-25
3.01285e-25
3.13836e-25
3.26583e-25
3.39526e-25
3.52664e-25
3.65995e-25
3.79517e-25
3.9289e-25
4.06447e-25
4.20182e-25
4.34089e-25
4.48162e-25
4.62394e-25
4.76775e-25
4.91296e-25
5.05946e-25
5.20715e-25
5.35589e-25
5.50556e-25
5.656e-25
5.80707e-25
5.95861e-25
6.11045e-25
6.2624e-25
6.41427e-25
6.56586e-25
6.71697e-25
6.86739e-25
7.01692e-25
7.16543e-25
7.31448e-25
7.46205e-25
7.60781e-25
7.7515e-25
7.89289e-25
8.03173e-25
8.16777e-25
8.30079e-25
8.43054e-25
8.55677e-25
8.67924e-25
8.79772e-25
8.91197e-25
9.02175e-25
9.12686e-25
9.22706e-25
9.32216e-25
9.41195e-25
9.49624e-25
9.57484e-25
9.64758e-25
9.7143e-25
9.77486e-25
9.8291e-25
9.87692e-25
9.91819e-25
9.95282e-25
9.9807e-25
1.00018e-24
1.0016e-24
1.00233e-24
1.00261e-24
1.00308e-24
1.00317e-24
6.87691e-25
3.45629e-25
2.11181e-25
1.75951e-25
1.66996e-25
1.64489e-25
1.63682e-25
1.6338e-25
1.63246e-25
1.63176e-25
1.63131e-25
1.63099e-25
1.63074e-25
1.63053e-25
1.63036e-25
1.63021e-25
1.63008e-25
1.62998e-25
1.62989e-25
1.62981e-25
1.62975e-25
1.62968e-25
1.6296e-25
1.62937e-25
1.6284e-25
1.62161e-25
1.53915e-25
)
;
    }
    top
    {
        type            fixedValue;
        value           uniform 0;
    }
    bottom
    {
        type            fixedValue;
        value           uniform 0;
    }
    frontAndBackPlanes
    {
        type            empty;
        value           nonuniform List<scalar> 0();
    }
}


// ************************************************************************* //
