/*--------------------------------*- C++ -*----------------------------------*\
| =========                 |                                                 |
| \\      /  F ield         | OpenFOAM: The Open Source CFD Toolbox           |
|  \\    /   O peration     | Version:  2206                                  |
|   \\  /    A nd           | Website:  www.openfoam.com                      |
|    \\/     M anipulation  |                                                 |
\*---------------------------------------------------------------------------*/
FoamFile
{
    version     2.0;
    format      ascii;
    arch        "LSB;label=32;scalar=64";
    class       volVectorField;
    location    "1740";
    object      U.a;
}
// * * * * * * * * * * * * * * * * * * * * * * * * * * * * * * * * * * * * * //

dimensions      [0 1 -1 0 0 0 0];

internalField   nonuniform List<vector> 
120
(
(1.49727e-20 1.55994e-08 0)
(4.49379e-20 3.05689e-10 0)
(7.49487e-20 -4.33536e-10 0)
(1.05036e-19 2.41056e-10 0)
(1.35229e-19 -4.99248e-10 0)
(1.65559e-19 1.74985e-10 0)
(1.96055e-19 -5.66498e-10 0)
(2.26747e-19 1.07283e-10 0)
(2.57665e-19 -6.35044e-10 0)
(2.88837e-19 3.78809e-11 0)
(3.20292e-19 -7.04823e-10 0)
(3.52059e-19 -3.3312e-11 0)
(3.84163e-19 -7.7576e-10 0)
(4.16633e-19 -1.06396e-10 0)
(4.49495e-19 -8.47771e-10 0)
(4.82774e-19 -1.81477e-10 0)
(5.16495e-19 -9.20762e-10 0)
(5.50681e-19 -2.58667e-10 0)
(5.85355e-19 -9.9464e-10 0)
(6.2054e-19 -3.38077e-10 0)
(6.56255e-19 -1.0693e-09 0)
(6.9252e-19 -4.19814e-10 0)
(7.29353e-19 -1.14466e-09 0)
(7.6677e-19 -5.0398e-10 0)
(8.04788e-19 -1.22062e-09 0)
(8.43419e-19 -5.90664e-10 0)
(8.82675e-19 -1.29711e-09 0)
(9.22567e-19 -6.7994e-10 0)
(9.63101e-19 -1.37404e-09 0)
(1.00428e-18 -7.71863e-10 0)
(1.04612e-18 -1.45138e-09 0)
(1.08861e-18 -8.66463e-10 0)
(1.13175e-18 -1.52909e-09 0)
(1.17555e-18 -9.63746e-10 0)
(1.21998e-18 -1.60714e-09 0)
(1.26506e-18 -1.06369e-09 0)
(1.30963e-18 -1.68555e-09 0)
(1.35482e-18 -1.16624e-09 0)
(1.40061e-18 -1.76435e-09 0)
(1.44696e-18 -1.2713e-09 0)
(1.49387e-18 -1.84356e-09 0)
(1.54131e-18 -1.37875e-09 0)
(1.58925e-18 -1.92326e-09 0)
(1.63765e-18 -1.48845e-09 0)
(1.68649e-18 -2.00353e-09 0)
(1.73572e-18 -1.60019e-09 0)
(1.7853e-18 -2.08444e-09 0)
(1.83519e-18 -1.71377e-09 0)
(1.88533e-18 -2.1661e-09 0)
(1.93569e-18 -1.82893e-09 0)
(1.9862e-18 -2.2486e-09 0)
(2.03682e-18 -1.94542e-09 0)
(2.08747e-18 -2.33203e-09 0)
(2.13809e-18 -2.06295e-09 0)
(2.18862e-18 -2.41648e-09 0)
(2.23899e-18 -2.18124e-09 0)
(2.28913e-18 -2.502e-09 0)
(2.33897e-18 -2.30003e-09 0)
(2.38848e-18 -2.58861e-09 0)
(2.43816e-18 -2.41909e-09 0)
(2.48735e-18 -2.6763e-09 0)
(2.53594e-18 -2.53825e-09 0)
(2.58383e-18 -2.76495e-09 0)
(2.63096e-18 -2.65748e-09 0)
(2.67724e-18 -2.85435e-09 0)
(2.72259e-18 -2.77692e-09 0)
(2.76693e-18 -2.94411e-09 0)
(2.81018e-18 -2.89699e-09 0)
(2.85226e-18 -3.03354e-09 0)
(2.89308e-18 -3.01856e-09 0)
(2.93257e-18 -3.12152e-09 0)
(2.97066e-18 -3.14304e-09 0)
(3.00725e-18 -3.20631e-09 0)
(3.04229e-18 -3.2727e-09 0)
(3.07569e-18 -3.28528e-09 0)
(3.10739e-18 -3.41073e-09 0)
(3.13732e-18 -3.35478e-09 0)
(3.16541e-18 -3.56113e-09 0)
(3.19161e-18 -3.4105e-09 0)
(3.21586e-18 -3.72751e-09 0)
(3.2381e-18 -3.4497e-09 0)
(3.25829e-18 -3.9083e-09 0)
(3.27637e-18 -3.47952e-09 0)
(3.29231e-18 -4.081e-09 0)
(3.30606e-18 -3.54547e-09 0)
(3.31761e-18 -4.1492e-09 0)
(3.3269e-18 -3.83373e-09 0)
(3.33393e-18 -3.74799e-09 0)
(3.33867e-18 -5.09673e-09 0)
(3.34111e-18 -1.3707e-09 0)
(3.34205e-18 -2.37539e-08 0)
(3.34358e-18 -2.81129e-08 0)
(3.34389e-18 -2.96082e-08 0)
(2.2923e-18 -0.000146458 0)
(1.1521e-18 -0.000213187 0)
(7.03938e-19 -0.000225344 0)
(5.86502e-19 -0.000227328 0)
(5.56653e-19 -0.000227694 0)
(5.48296e-19 -0.000227775 0)
(5.45608e-19 -0.000227796 0)
(5.446e-19 -0.000227803 0)
(5.44154e-19 -0.000227806 0)
(5.43919e-19 -0.000227807 0)
(5.43771e-19 -0.000227808 0)
(5.43664e-19 -0.000227808 0)
(5.4358e-19 -0.000227809 0)
(5.4351e-19 -0.000227809 0)
(5.43452e-19 -0.000227809 0)
(5.43403e-19 -0.000227809 0)
(5.43361e-19 -0.000227809 0)
(5.43325e-19 -0.000227809 0)
(5.43295e-19 -0.000227809 0)
(5.43271e-19 -0.000227809 0)
(5.43249e-19 -0.000227808 0)
(5.43228e-19 -0.000227808 0)
(5.43198e-19 -0.000227806 0)
(5.43124e-19 -0.000227801 0)
(5.428e-19 -0.000227776 0)
(5.40538e-19 -0.000227559 0)
(5.13051e-19 -0.000223548 0)
)
;

boundaryField
{
    inlet
    {
        type            cyclic;
    }
    outlet
    {
        type            cyclic;
    }
    top
    {
        type            fixedValue;
        value           uniform (0 0 0);
    }
    bottom
    {
        type            fixedValue;
        value           uniform (0 0 0);
    }
    frontAndBackPlanes
    {
        type            empty;
    }
}


// ************************************************************************* //
