/*--------------------------------*- C++ -*----------------------------------*\
| =========                 |                                                 |
| \\      /  F ield         | OpenFOAM: The Open Source CFD Toolbox           |
|  \\    /   O peration     | Version:  2206                                  |
|   \\  /    A nd           | Website:  www.openfoam.com                      |
|    \\/     M anipulation  |                                                 |
\*---------------------------------------------------------------------------*/
FoamFile
{
    version     2.0;
    format      ascii;
    arch        "LSB;label=32;scalar=64";
    class       volVectorField;
    location    "1740";
    object      U.b;
}
// * * * * * * * * * * * * * * * * * * * * * * * * * * * * * * * * * * * * * //

dimensions      [0 1 -1 0 0 0 0];

internalField   nonuniform List<vector> 
120
(
(1.49728e-20 1.53637e-08 0)
(4.49379e-20 4.50042e-10 0)
(7.49488e-20 -2.50482e-10 0)
(1.05036e-19 5.15141e-10 0)
(1.35229e-19 -1.29351e-10 0)
(1.65559e-19 6.16248e-10 0)
(1.96056e-19 -2.91397e-11 0)
(2.26747e-19 7.17868e-10 0)
(2.57664e-19 7.33957e-11 0)
(2.88837e-19 8.21407e-10 0)
(3.20292e-19 1.78323e-10 0)
(3.52057e-19 9.26794e-10 0)
(3.84163e-19 2.85737e-10 0)
(4.16633e-19 1.03395e-09 0)
(4.49495e-19 3.95736e-10 0)
(4.82774e-19 1.14278e-09 0)
(5.16495e-19 5.08423e-10 0)
(5.50681e-19 1.2532e-09 0)
(5.85355e-19 6.23907e-10 0)
(6.20539e-19 1.3651e-09 0)
(6.56255e-19 7.42289e-10 0)
(6.9252e-19 1.47839e-09 0)
(7.29353e-19 8.63664e-10 0)
(7.66758e-19 1.59296e-09 0)
(8.04788e-19 9.88121e-10 0)
(8.43419e-19 1.70872e-09 0)
(8.82682e-19 1.11573e-09 0)
(9.22567e-19 1.82559e-09 0)
(9.63101e-19 1.24654e-09 0)
(1.0043e-18 1.94349e-09 0)
(1.04614e-18 1.38058e-09 0)
(1.08861e-18 2.06238e-09 0)
(1.13175e-18 1.51785e-09 0)
(1.17555e-18 2.18219e-09 0)
(1.21998e-18 1.65832e-09 0)
(1.26503e-18 2.30292e-09 0)
(1.30961e-18 1.80193e-09 0)
(1.35484e-18 2.42454e-09 0)
(1.40058e-18 1.94859e-09 0)
(1.44701e-18 2.54705e-09 0)
(1.49385e-18 2.09814e-09 0)
(1.54134e-18 2.67049e-09 0)
(1.58925e-18 2.25043e-09 0)
(1.63765e-18 2.79486e-09 0)
(1.68646e-18 2.40523e-09 0)
(1.73577e-18 2.92021e-09 0)
(1.7853e-18 2.56229e-09 0)
(1.83521e-18 3.04656e-09 0)
(1.88528e-18 2.72133e-09 0)
(1.93569e-18 3.17395e-09 0)
(1.9862e-18 2.88202e-09 0)
(2.03682e-18 3.30239e-09 0)
(2.08747e-18 3.04402e-09 0)
(2.13809e-18 3.43189e-09 0)
(2.18859e-18 3.20697e-09 0)
(2.23899e-18 3.56243e-09 0)
(2.28913e-18 3.3705e-09 0)
(2.33897e-18 3.69394e-09 0)
(2.38855e-18 3.53426e-09 0)
(2.43816e-18 3.82631e-09 0)
(2.48735e-18 3.69796e-09 0)
(2.53594e-18 3.95938e-09 0)
(2.58383e-18 3.86137e-09 0)
(2.63096e-18 4.09286e-09 0)
(2.67732e-18 4.02443e-09 0)
(2.72251e-18 4.22632e-09 0)
(2.76693e-18 4.18729e-09 0)
(2.81018e-18 4.3591e-09 0)
(2.85226e-18 4.35045e-09 0)
(2.89308e-18 4.49019e-09 0)
(2.93266e-18 4.51489e-09 0)
(2.97066e-18 4.61803e-09 0)
(3.00725e-18 4.68222e-09 0)
(3.04229e-18 4.74027e-09 0)
(3.07569e-18 4.85488e-09 0)
(3.10739e-18 4.85357e-09 0)
(3.13732e-18 5.036e-09 0)
(3.16541e-18 4.95366e-09 0)
(3.19161e-18 5.22864e-09 0)
(3.21586e-18 5.03657e-09 0)
(3.2381e-18 5.43255e-09 0)
(3.25829e-18 5.10372e-09 0)
(3.27637e-18 5.63347e-09 0)
(3.29231e-18 5.18011e-09 0)
(3.30606e-18 5.76778e-09 0)
(3.31782e-18 5.37938e-09 0)
(3.3269e-18 5.59702e-09 0)
(3.33393e-18 6.17031e-09 0)
(3.33867e-18 4.14425e-09 0)
(3.34111e-18 5.47303e-09 0)
(3.34122e-18 -5.96186e-10 0)
(3.29626e-18 1.77301e-08 0)
(3.19952e-18 1.79702e-09 0)
(3.1013e-18 -3.51965e-10 0)
(3.00161e-18 -2.46898e-10 0)
(2.90042e-18 -1.15685e-12 0)
(2.79772e-18 1.81207e-11 0)
(2.69349e-18 2.57196e-12 0)
(2.58772e-18 -1.02101e-12 0)
(2.48039e-18 -3.20812e-13 0)
(2.37151e-18 4.21761e-14 0)
(2.2611e-18 2.97918e-14 0)
(2.14915e-18 -7.57813e-15 0)
(2.03571e-18 -1.35236e-14 0)
(1.92079e-18 -8.14429e-15 0)
(1.80444e-18 -3.23119e-15 0)
(1.6867e-18 1.17163e-15 0)
(1.56763e-18 5.96531e-15 0)
(1.44729e-18 8.23114e-15 0)
(1.32574e-18 7.07822e-15 0)
(1.20308e-18 2.72553e-15 0)
(1.07937e-18 -4.54884e-15 0)
(9.54707e-19 -9.84936e-15 0)
(8.29194e-19 -8.77934e-15 0)
(7.02929e-19 -1.92748e-15 0)
(5.7602e-19 6.52942e-15 0)
(4.48577e-19 1.03833e-14 0)
(3.20716e-19 6.53219e-15 0)
(1.92554e-19 -2.69845e-15 0)
(6.42109e-20 -7.76539e-15 0)
)
;

boundaryField
{
    inlet
    {
        type            cyclic;
    }
    outlet
    {
        type            cyclic;
    }
    top
    {
        type            fixedValue;
        value           uniform (0 0 0);
    }
    bottom
    {
        type            fixedValue;
        value           uniform (0 0 0);
    }
    frontAndBackPlanes
    {
        type            empty;
    }
}


// ************************************************************************* //
