/*--------------------------------*- C++ -*----------------------------------*\
| =========                 |                                                 |
| \\      /  F ield         | OpenFOAM: The Open Source CFD Toolbox           |
|  \\    /   O peration     | Version:  v2006                                 |
|   \\  /    A nd           | Website:  www.openfoam.com                      |
|    \\/     M anipulation  |                                                 |
\*---------------------------------------------------------------------------*/
FoamFile
{
    version     2.0;
    format      ascii;
    class       volScalarField;
    location    "220";
    object      nuEffb;
}
// * * * * * * * * * * * * * * * * * * * * * * * * * * * * * * * * * * * * * //

dimensions      [0 2 -1 0 0 0 0];


internalField   nonuniform List<scalar> 
120
(
0.000128093
0.000127957
0.000127812
0.000127655
0.000127486
0.000127299
0.000127092
0.000126859
0.000126589
0.000126268
0.000125883
0.000125447
0.000124988
0.000124518
0.000123626
0.000112871
0.000101435
9.71495e-05
9.56408e-05
9.50616e-05
9.48446e-05
9.47663e-05
9.47387e-05
9.47294e-05
9.47264e-05
9.47255e-05
9.47252e-05
9.47251e-05
9.47251e-05
9.47251e-05
9.47251e-05
9.47251e-05
9.47251e-05
9.47251e-05
9.47251e-05
9.47251e-05
9.47251e-05
9.4725e-05
9.4725e-05
9.4725e-05
9.4725e-05
9.4725e-05
9.4725e-05
9.4725e-05
9.4725e-05
9.4725e-05
9.4725e-05
9.4725e-05
9.4725e-05
9.4725e-05
9.4725e-05
9.4725e-05
9.4725e-05
9.4725e-05
9.4725e-05
9.4725e-05
9.4725e-05
9.4725e-05
9.4725e-05
9.4725e-05
9.4725e-05
9.4725e-05
9.4725e-05
9.4725e-05
9.4725e-05
9.4725e-05
9.4725e-05
9.4725e-05
9.4725e-05
9.4725e-05
9.4725e-05
9.4725e-05
9.4725e-05
9.4725e-05
9.4725e-05
9.4725e-05
9.4725e-05
9.4725e-05
9.4725e-05
9.4725e-05
9.4725e-05
9.4725e-05
9.4725e-05
9.4725e-05
9.4725e-05
9.4725e-05
9.4725e-05
9.47249e-05
9.47249e-05
9.47249e-05
9.47249e-05
9.47249e-05
9.47249e-05
9.47249e-05
9.4725e-05
9.47247e-05
9.47253e-05
9.47251e-05
9.47204e-05
9.4742e-05
9.46987e-05
9.47493e-05
9.47947e-05
8.9287e-05
0.000116067
2.73379e-05
2.10523e-05
2.105e-05
2.105e-05
2.105e-05
2.105e-05
2.105e-05
2.105e-05
2.105e-05
2.105e-05
2.105e-05
2.105e-05
2.105e-05
2.105e-05
2.105e-05
)
;

boundaryField
{
    inlet
    {
        type            cyclic;
    }
    outlet
    {
        type            cyclic;
    }
    top
    {
        type            calculated;
        value           uniform 2.105e-05;
    }
    bottom
    {
        type            calculated;
        value           uniform 0.000128093;
    }
    frontAndBackPlanes
    {
        type            empty;
    }
}


// ************************************************************************* //
