/*--------------------------------*- C++ -*----------------------------------*\
| =========                 |                                                 |
| \\      /  F ield         | OpenFOAM: The Open Source CFD Toolbox           |
|  \\    /   O peration     | Version:  v2006                                 |
|   \\  /    A nd           | Website:  www.openfoam.com                      |
|    \\/     M anipulation  |                                                 |
\*---------------------------------------------------------------------------*/
FoamFile
{
    version     2.0;
    format      ascii;
    class       volScalarField;
    location    "220";
    object      p;
}
// * * * * * * * * * * * * * * * * * * * * * * * * * * * * * * * * * * * * * //

dimensions      [1 -1 -2 0 0 0 0];


internalField   nonuniform List<scalar> 
120
(
20.0536
15.3917
10.7276
6.06112
1.39211
-3.27957
-7.9541
-12.6317
-17.3128
-21.9979
-26.6878
-31.3841
-36.0898
-40.808
-45.536
-50.2605
-55.155
-60.0671
-64.9746
-69.8805
-74.7858
-79.6909
-84.5959
-89.5009
-94.4059
-99.3109
-104.216
-109.121
-114.026
-118.931
-123.836
-128.741
-133.646
-138.551
-143.456
-148.361
-153.266
-158.171
-163.076
-167.981
-172.886
-177.791
-182.696
-187.601
-192.506
-197.411
-202.316
-207.221
-212.126
-217.031
-221.936
-226.841
-231.746
-236.651
-241.556
-246.461
-251.366
-256.271
-261.176
-266.081
-270.986
-275.891
-280.796
-285.701
-290.606
-295.511
-300.416
-305.321
-310.226
-315.131
-320.036
-324.941
-329.846
-334.751
-339.656
-344.561
-349.466
-354.371
-359.276
-364.181
-369.086
-373.991
-378.896
-383.801
-388.706
-393.611
-398.516
-403.421
-408.326
-413.231
-418.136
-423.041
-427.946
-432.851
-437.756
-442.661
-447.566
-452.471
-457.376
-462.281
-467.186
-472.091
-476.997
-481.903
-486.841
-491.598
-496.264
-500.924
-505.583
-510.243
-514.902
-519.562
-524.222
-528.882
-533.541
-538.201
-542.861
-547.521
-552.18
-556.84
)
;

boundaryField
{
    inlet
    {
        type            cyclic;
    }
    outlet
    {
        type            cyclic;
    }
    top
    {
        type            calculated;
        value           uniform -559.17;
    }
    bottom
    {
        type            calculated;
        value           uniform 22.3835;
    }
    frontAndBackPlanes
    {
        type            empty;
    }
}


// ************************************************************************* //
