/*--------------------------------*- C++ -*----------------------------------*\
| =========                 |                                                 |
| \\      /  F ield         | OpenFOAM: The Open Source CFD Toolbox           |
|  \\    /   O peration     | Version:  v2006                                 |
|   \\  /    A nd           | Website:  www.openfoam.com                      |
|    \\/     M anipulation  |                                                 |
\*---------------------------------------------------------------------------*/
FoamFile
{
    version     2.0;
    format      ascii;
    class       volScalarField;
    location    "220";
    object      p_rbgh;
}
// * * * * * * * * * * * * * * * * * * * * * * * * * * * * * * * * * * * * * //

dimensions      [1 -1 -2 0 0 0 0];


internalField   nonuniform List<scalar> 
120
(
22.3835
22.3814
22.377
22.3702
22.361
22.3491
22.3343
22.3164
22.2951
22.2697
22.2396
22.2031
22.1571
22.0986
22.0304
21.9656
21.7309
21.4786
21.2308
20.9847
20.7391
20.4937
20.2484
20.0032
19.7579
19.5127
19.2674
19.0222
18.7769
18.5317
18.2864
18.0412
17.7959
17.5507
17.3054
17.0602
16.8149
16.5697
16.3244
16.0792
15.8339
15.5887
15.3434
15.0982
14.8529
14.6077
14.3624
14.1172
13.8719
13.6267
13.3814
13.1362
12.8909
12.6457
12.4004
12.1552
11.9099
11.6647
11.4194
11.1742
10.9289
10.6837
10.4384
10.1932
9.94793
9.70268
9.45743
9.21218
8.96693
8.72168
8.47643
8.23118
7.98593
7.74068
7.49543
7.25018
7.00493
6.75968
6.51443
6.26918
6.02393
5.77868
5.53343
5.28818
5.04293
4.79768
4.55243
4.30718
4.06193
3.81668
3.57143
3.32618
3.08093
2.83568
2.59043
2.34518
2.09993
1.85468
1.60943
1.36415
1.11896
0.873992
0.62761
0.381189
0.102494
0.00608318
-0.000992903
-0.000442377
-3.33103e-05
3.21066e-05
3.97169e-06
-2.34724e-06
-4.01659e-07
1.76166e-07
4.77747e-08
-5.23452e-09
1.69496e-09
5.24023e-09
3.74108e-09
1.86734e-09
)
;

boundaryField
{
    inlet
    {
        type            cyclic;
    }
    outlet
    {
        type            cyclic;
    }
    top
    {
        type            fixedValue;
        value           uniform 0;
    }
    bottom
    {
        type            fixedFluxPressure;
        gradient        uniform 0;
        value           uniform 22.3835;
    }
    frontAndBackPlanes
    {
        type            empty;
    }
}


// ************************************************************************* //
