/*--------------------------------*- C++ -*----------------------------------*\
| =========                 |                                                 |
| \\      /  F ield         | OpenFOAM: The Open Source CFD Toolbox           |
|  \\    /   O peration     | Version:  v2006                                 |
|   \\  /    A nd           | Website:  www.openfoam.com                      |
|    \\/     M anipulation  |                                                 |
\*---------------------------------------------------------------------------*/
FoamFile
{
    version     2.0;
    format      ascii;
    class       surfaceScalarField;
    location    "220";
    object      phia;
}
// * * * * * * * * * * * * * * * * * * * * * * * * * * * * * * * * * * * * * //

dimensions      [0 3 -1 0 0 0 0];
oriented        oriented;


internalField   nonuniform List<scalar> 
119
(
-5.94656e-15
-1.23011e-14
-1.90845e-14
-2.63337e-14
-3.41134e-14
-4.25334e-14
-5.17934e-14
-6.22927e-14
-7.48033e-14
-9.00216e-14
-1.10587e-13
-1.41195e-13
-1.82476e-13
-2.18361e-13
-2.60081e-13
-1.388e-12
-1.99069e-12
-2.19506e-12
-2.27432e-12
-2.30547e-12
-2.31699e-12
-2.32114e-12
-2.32259e-12
-2.32307e-12
-2.32323e-12
-2.32328e-12
-2.32329e-12
-2.3233e-12
-2.3233e-12
-2.3233e-12
-2.3233e-12
-2.3233e-12
-2.3233e-12
-2.3233e-12
-2.3233e-12
-2.3233e-12
-2.32331e-12
-2.32331e-12
-2.32331e-12
-2.32331e-12
-2.32331e-12
-2.32331e-12
-2.32331e-12
-2.32331e-12
-2.32331e-12
-2.32331e-12
-2.32331e-12
-2.32331e-12
-2.32331e-12
-2.32331e-12
-2.32331e-12
-2.32331e-12
-2.32331e-12
-2.32331e-12
-2.32331e-12
-2.32331e-12
-2.32331e-12
-2.32331e-12
-2.32331e-12
-2.32331e-12
-2.32331e-12
-2.32331e-12
-2.32331e-12
-2.32331e-12
-2.32331e-12
-2.32331e-12
-2.32331e-12
-2.32331e-12
-2.32331e-12
-2.32331e-12
-2.32331e-12
-2.32331e-12
-2.32331e-12
-2.32331e-12
-2.32331e-12
-2.32331e-12
-2.32331e-12
-2.32331e-12
-2.32331e-12
-2.32331e-12
-2.32331e-12
-2.32331e-12
-2.32331e-12
-2.32331e-12
-2.32331e-12
-2.32331e-12
-2.32331e-12
-2.32331e-12
-2.32332e-12
-2.32332e-12
-2.32332e-12
-2.32332e-12
-2.32332e-12
-2.32331e-12
-2.32332e-12
-2.32331e-12
-2.3233e-12
-2.32349e-12
-2.32262e-12
-2.32414e-12
-2.32602e-12
-2.30963e-12
-2.50362e-12
-1.71352e-12
-1.90671e-11
-2.40702e-11
-1.51365e-10
-8.20896e-11
-8.23e-11
-8.22764e-11
-8.22756e-11
-8.22769e-11
-8.22767e-11
-8.22766e-11
-8.22766e-11
-8.22766e-11
-8.22766e-11
-8.22565e-11
-8.21697e-11
)
;

boundaryField
{
    inlet
    {
        type            cyclic;
        value           nonuniform List<scalar> 
120
(
1.69724e-28
5.07094e-28
8.39628e-28
1.19471e-27
1.53844e-27
1.86746e-27
2.17835e-27
2.53105e-27
2.85916e-27
3.09404e-27
3.30295e-27
3.51627e-27
3.72202e-27
4.03214e-27
4.40469e-27
4.90662e-27
1.56309e-25
2.32088e-25
4.0527e-25
7.44616e-25
1.31958e-24
2.19971e-24
3.42928e-24
5.01603e-24
2.12258e-24
-7.0725e-25
-3.77796e-24
-5.0284e-24
-7.1117e-24
-1.02366e-23
-9.74817e-24
-5.54883e-24
-2.11436e-24
9.04862e-25
3.84279e-24
6.97596e-24
5.70282e-24
-4.28303e-26
-9.61095e-25
-6.83777e-24
-3.66255e-24
-5.88982e-24
-4.12773e-24
-3.19264e-24
-3.03373e-24
-8.35837e-24
-4.80606e-24
-1.67862e-24
6.11183e-24
4.61759e-24
3.55721e-24
3.03068e-24
3.08929e-24
3.68934e-24
4.71297e-24
1.19081e-24
-2.44311e-24
-6.54348e-24
-1.14548e-23
-7.91369e-24
-5.48746e-24
-4.10579e-24
-3.65297e-24
-3.96528e-24
-4.91617e-24
3.14822e-24
1.33847e-24
-8.62111e-25
-3.62664e-24
-7.13957e-24
-1.1618e-23
-7.68576e-24
-4.80819e-24
-2.8279e-24
-1.56562e-24
-8.27904e-25
-4.5098e-25
-3.2932e-25
-4.32168e-25
-8.15797e-25
-1.63601e-24
-3.15682e-24
-5.74261e-24
-9.81925e-24
-1.57992e-23
-2.40723e-23
-1.5799e-23
-9.81874e-24
-5.74116e-24
-3.15266e-24
-1.62447e-24
-7.85365e-25
-3.56452e-25
-1.52038e-25
-6.10275e-26
-2.30898e-26
-8.24869e-27
-2.78755e-27
-8.92749e-28
-2.71416e-28
-7.85306e-29
-2.16115e-29
-5.71802e-30
-1.49076e-30
-3.03419e-31
-2.75962e-31
-2.32045e-31
-1.90165e-31
-1.55318e-31
-1.26366e-31
-1.02341e-31
-8.24179e-32
-6.59004e-32
-5.21738e-32
-4.07128e-32
-3.10509e-32
-2.27872e-32
-1.556e-32
-9.04895e-33
-2.9571e-33
)
;
    }
    outlet
    {
        type            cyclic;
        value           nonuniform List<scalar> 
120
(
-1.69724e-28
-5.07094e-28
-8.39628e-28
-1.19471e-27
-1.53844e-27
-1.86746e-27
-2.17835e-27
-2.53105e-27
-2.85916e-27
-3.09404e-27
-3.30295e-27
-3.51627e-27
-3.72202e-27
-4.03214e-27
-4.40469e-27
-4.90662e-27
-1.56309e-25
-2.32088e-25
-4.0527e-25
-7.44616e-25
-1.31958e-24
-2.19971e-24
-3.42928e-24
-5.01603e-24
-2.12258e-24
7.0725e-25
3.77796e-24
5.0284e-24
7.1117e-24
1.02366e-23
9.74817e-24
5.54883e-24
2.11436e-24
-9.04862e-25
-3.84279e-24
-6.97596e-24
-5.70282e-24
4.28303e-26
9.61095e-25
6.83777e-24
3.66255e-24
5.88982e-24
4.12773e-24
3.19264e-24
3.03373e-24
8.35837e-24
4.80606e-24
1.67862e-24
-6.11183e-24
-4.61759e-24
-3.55721e-24
-3.03068e-24
-3.08929e-24
-3.68934e-24
-4.71297e-24
-1.19081e-24
2.44311e-24
6.54348e-24
1.14548e-23
7.91369e-24
5.48746e-24
4.10579e-24
3.65297e-24
3.96528e-24
4.91617e-24
-3.14822e-24
-1.33847e-24
8.62111e-25
3.62664e-24
7.13957e-24
1.1618e-23
7.68576e-24
4.80819e-24
2.8279e-24
1.56562e-24
8.27904e-25
4.5098e-25
3.2932e-25
4.32168e-25
8.15797e-25
1.63601e-24
3.15682e-24
5.74261e-24
9.81925e-24
1.57992e-23
2.40723e-23
1.5799e-23
9.81874e-24
5.74116e-24
3.15266e-24
1.62447e-24
7.85365e-25
3.56452e-25
1.52038e-25
6.10275e-26
2.30898e-26
8.24869e-27
2.78755e-27
8.92749e-28
2.71416e-28
7.85306e-29
2.16115e-29
5.71802e-30
1.49076e-30
3.03419e-31
2.75962e-31
2.32045e-31
1.90165e-31
1.55318e-31
1.26366e-31
1.02341e-31
8.24179e-32
6.59004e-32
5.21738e-32
4.07128e-32
3.10509e-32
2.27872e-32
1.556e-32
9.04895e-33
2.9571e-33
)
;
    }
    top
    {
        type            fixedValue;
        value           uniform 0;
    }
    bottom
    {
        type            fixedValue;
        value           uniform 0;
    }
    frontAndBackPlanes
    {
        type            empty;
        value           nonuniform List<scalar> 0();
    }
}


// ************************************************************************* //
