/*--------------------------------*- C++ -*----------------------------------*\
| =========                 |                                                 |
| \\      /  F ield         | OpenFOAM: The Open Source CFD Toolbox           |
|  \\    /   O peration     | Version:  v2006                                 |
|   \\  /    A nd           | Website:  www.openfoam.com                      |
|    \\/     M anipulation  |                                                 |
\*---------------------------------------------------------------------------*/
FoamFile
{
    version     2.0;
    format      ascii;
    class       surfaceScalarField;
    location    "220";
    object      phib;
}
// * * * * * * * * * * * * * * * * * * * * * * * * * * * * * * * * * * * * * //

dimensions      [0 3 -1 0 0 0 0];
oriented        oriented;


internalField   nonuniform List<scalar> 
119
(
8.63734e-15
1.78438e-14
2.76443e-14
3.80863e-14
4.92545e-14
6.12976e-14
7.44869e-14
8.9373e-14
1.07021e-13
1.28361e-13
1.57065e-13
1.99673e-13
2.56891e-13
3.05384e-13
3.4257e-13
1.61833e-12
2.11332e-12
2.24474e-12
2.29367e-12
2.31264e-12
2.31955e-12
2.32204e-12
2.3229e-12
2.32319e-12
2.32328e-12
2.3233e-12
2.32331e-12
2.32331e-12
2.32331e-12
2.32331e-12
2.32331e-12
2.32331e-12
2.32331e-12
2.32331e-12
2.32331e-12
2.32331e-12
2.32331e-12
2.32331e-12
2.32331e-12
2.32331e-12
2.32331e-12
2.32331e-12
2.32331e-12
2.32331e-12
2.32331e-12
2.32331e-12
2.32331e-12
2.32331e-12
2.32331e-12
2.32331e-12
2.32331e-12
2.32331e-12
2.32331e-12
2.32331e-12
2.32331e-12
2.32331e-12
2.32331e-12
2.32331e-12
2.32331e-12
2.32331e-12
2.32331e-12
2.32331e-12
2.32331e-12
2.32331e-12
2.32331e-12
2.32331e-12
2.32331e-12
2.32331e-12
2.32331e-12
2.32331e-12
2.32331e-12
2.32331e-12
2.32331e-12
2.32331e-12
2.32331e-12
2.32331e-12
2.32331e-12
2.32331e-12
2.32331e-12
2.32331e-12
2.32331e-12
2.32331e-12
2.32331e-12
2.32331e-12
2.32331e-12
2.32331e-12
2.32332e-12
2.32332e-12
2.32332e-12
2.32332e-12
2.32332e-12
2.32332e-12
2.32332e-12
2.32332e-12
2.32332e-12
2.32331e-12
2.32331e-12
2.32342e-12
2.32282e-12
2.324e-12
2.32599e-12
2.31112e-12
2.41065e-12
1.87165e-12
9.01185e-12
9.85536e-13
2.39e-15
1.18779e-17
4.66307e-18
4.13809e-18
4.12845e-18
4.67187e-18
5.19332e-18
6.0579e-18
6.44635e-18
6.98118e-18
6.98429e-18
7.14774e-18
6.74112e-18
)
;

boundaryField
{
    inlet
    {
        type            cyclic;
        value           nonuniform List<scalar> 
120
(
1.69723e-28
5.06988e-28
8.16801e-28
1.19461e-27
1.53844e-27
1.86682e-27
2.04099e-27
2.53133e-27
3.05804e-27
3.09499e-27
3.30479e-27
3.87747e-27
3.72448e-27
4.03343e-27
4.41289e-27
5.83674e-27
1.56307e-25
2.32092e-25
4.05277e-25
7.44626e-25
1.31959e-24
2.19973e-24
3.42929e-24
4.99418e-24
2.12258e-24
-7.07257e-25
-3.76705e-24
-5.02843e-24
-7.11174e-24
-1.02148e-23
-9.72634e-24
-5.54886e-24
-2.11438e-24
9.04858e-25
3.84279e-24
6.9541e-24
5.68096e-24
-2.09627e-26
-9.82962e-25
-6.79405e-24
-3.68443e-24
-5.86799e-24
-4.12776e-24
-3.19267e-24
-3.05562e-24
-8.31465e-24
-4.80606e-24
-1.65676e-24
6.0681e-24
4.6176e-24
3.55723e-24
3.0307e-24
3.08932e-24
3.68935e-24
4.6911e-24
1.1908e-24
-2.44313e-24
-6.5435e-24
-1.14111e-23
-7.91373e-24
-5.4875e-24
-4.10583e-24
-3.653e-24
-3.9653e-24
-4.87245e-24
3.10447e-24
1.33845e-24
-8.62132e-25
-3.62667e-24
-7.1396e-24
-1.15743e-23
-7.6858e-24
-4.80822e-24
-2.82793e-24
-1.56564e-24
-8.27919e-25
-4.5099e-25
-3.29329e-25
-4.32179e-25
-8.15815e-25
-1.63604e-24
-3.15686e-24
-5.74267e-24
-9.81933e-24
-1.57993e-23
-2.39849e-23
-1.57991e-23
-9.81882e-24
-5.74122e-24
-3.1527e-24
-1.6245e-24
-7.85382e-25
-3.56461e-25
-1.52043e-25
-6.10296e-26
-2.30907e-26
-8.24906e-27
-2.78769e-27
-8.92799e-28
-2.71433e-28
-7.8536e-29
-2.16131e-29
-5.71849e-30
-1.49088e-30
-3.0345e-31
-2.75972e-31
-2.31943e-31
-1.90135e-31
-1.55318e-31
-1.26371e-31
-1.02344e-31
-8.24216e-32
-6.59024e-32
-5.21765e-32
-4.0714e-32
-3.10528e-32
-2.27879e-32
-1.5561e-32
-9.04978e-33
-2.95748e-33
)
;
    }
    outlet
    {
        type            cyclic;
        value           nonuniform List<scalar> 
120
(
-1.69723e-28
-5.06988e-28
-8.16801e-28
-1.19461e-27
-1.53844e-27
-1.86682e-27
-2.04099e-27
-2.53133e-27
-3.05804e-27
-3.09499e-27
-3.30479e-27
-3.87747e-27
-3.72448e-27
-4.03343e-27
-4.41289e-27
-5.83674e-27
-1.56307e-25
-2.32092e-25
-4.05277e-25
-7.44626e-25
-1.31959e-24
-2.19973e-24
-3.42929e-24
-4.99418e-24
-2.12258e-24
7.07257e-25
3.76705e-24
5.02843e-24
7.11174e-24
1.02148e-23
9.72634e-24
5.54886e-24
2.11438e-24
-9.04858e-25
-3.84279e-24
-6.9541e-24
-5.68096e-24
2.09627e-26
9.82962e-25
6.79405e-24
3.68443e-24
5.86799e-24
4.12776e-24
3.19267e-24
3.05562e-24
8.31465e-24
4.80606e-24
1.65676e-24
-6.0681e-24
-4.6176e-24
-3.55723e-24
-3.0307e-24
-3.08932e-24
-3.68935e-24
-4.6911e-24
-1.1908e-24
2.44313e-24
6.5435e-24
1.14111e-23
7.91373e-24
5.4875e-24
4.10583e-24
3.653e-24
3.9653e-24
4.87245e-24
-3.10447e-24
-1.33845e-24
8.62132e-25
3.62667e-24
7.1396e-24
1.15743e-23
7.6858e-24
4.80822e-24
2.82793e-24
1.56564e-24
8.27919e-25
4.5099e-25
3.29329e-25
4.32179e-25
8.15815e-25
1.63604e-24
3.15686e-24
5.74267e-24
9.81933e-24
1.57993e-23
2.39849e-23
1.57991e-23
9.81882e-24
5.74122e-24
3.1527e-24
1.6245e-24
7.85382e-25
3.56461e-25
1.52043e-25
6.10296e-26
2.30907e-26
8.24906e-27
2.78769e-27
8.92799e-28
2.71433e-28
7.8536e-29
2.16131e-29
5.71849e-30
1.49088e-30
3.0345e-31
2.75972e-31
2.31943e-31
1.90135e-31
1.55318e-31
1.26371e-31
1.02344e-31
8.24216e-32
6.59024e-32
5.21765e-32
4.0714e-32
3.10528e-32
2.27879e-32
1.5561e-32
9.04978e-33
2.95748e-33
)
;
    }
    top
    {
        type            fixedValue;
        value           uniform 0;
    }
    bottom
    {
        type            fixedValue;
        value           uniform 0;
    }
    frontAndBackPlanes
    {
        type            empty;
        value           nonuniform List<scalar> 0();
    }
}


// ************************************************************************* //
