/*--------------------------------*- C++ -*----------------------------------*\
| =========                 |                                                 |
| \\      /  F ield         | OpenFOAM: The Open Source CFD Toolbox           |
|  \\    /   O peration     | Version:  v2006                                 |
|   \\  /    A nd           | Website:  www.openfoam.com                      |
|    \\/     M anipulation  |                                                 |
\*---------------------------------------------------------------------------*/
FoamFile
{
    version     2.0;
    format      ascii;
    class       volTensorField;
    location    "220";
    object      Taua;
}
// * * * * * * * * * * * * * * * * * * * * * * * * * * * * * * * * * * * * * //

dimensions      [1 -1 -2 0 0 0 0];


internalField   nonuniform List<tensor> 
120
(
(0.0116162 0 0 -2.36887e-15 -0.0232324 0 0 0 0.0116162)
(0.0122927 0 0 -2.34467e-15 -0.0245853 0 0 0 0.0122927)
(0.0131847 0 0 -2.40667e-15 -0.0263694 0 0 0 0.0131847)
(0.0141 0 0 -2.44585e-15 -0.0282 0 0 0 0.0141)
(0.0151258 0 0 -2.35461e-15 -0.0302515 0 0 0 0.0151258)
(0.0163592 0 0 -2.23968e-15 -0.0327184 0 0 0 0.0163592)
(0.0179976 0 0 -2.32255e-15 -0.0359951 0 0 0 0.0179976)
(0.0204598 0 0 -2.38286e-15 -0.0409195 0 0 0 0.0204598)
(0.024267 0 0 -1.97047e-15 -0.0485341 0 0 0 0.024267)
(0.0302097 0 0 -1.55323e-15 -0.0604195 0 0 0 0.0302097)
(0.0404834 0 0 -1.47782e-15 -0.0809668 0 0 0 0.0404834)
(0.044504 0 0 -1.12343e-15 -0.089008 0 0 0 0.044504)
(0.0316014 0 0 -7.62448e-16 -0.0632027 0 0 0 0.0316014)
(0.0216664 0 0 -6.38308e-16 -0.0433328 0 0 0 0.0216664)
(0.0103307 0 0 -2.46168e-16 -0.0206615 0 0 0 0.0103307)
(1.06866e-06 0 0 -2.94981e-19 -2.13731e-06 0 0 0 1.06866e-06)
(5.38561e-07 0 0 -4.14884e-19 -1.07712e-06 0 0 0 5.38561e-07)
(-9.32501e-08 0 0 -4.42735e-19 1.865e-07 0 0 0 -9.32501e-08)
(4.04448e-07 0 0 -9.02465e-19 -8.08895e-07 0 0 0 4.04448e-07)
(1.20823e-07 0 0 -1.60368e-18 -2.41646e-07 0 0 0 1.20823e-07)
(4.28003e-08 0 0 -2.54848e-18 -8.56007e-08 0 0 0 4.28003e-08)
(1.74306e-08 0 0 -3.69302e-18 -3.48611e-08 0 0 0 1.74306e-08)
(6.22916e-09 0 0 -4.92902e-18 -1.24583e-08 0 0 0 6.22916e-09)
(2.12774e-09 0 0 2.2868e-18 -4.25548e-09 0 0 0 2.12774e-09)
(7.09151e-10 0 0 1.00158e-17 -1.4183e-09 0 0 0 7.09151e-10)
(2.24333e-10 0 0 1.0326e-17 -4.48667e-10 0 0 0 2.24333e-10)
(6.91341e-11 0 0 7.56203e-18 -1.38268e-10 0 0 0 6.91341e-11)
(2.04529e-11 0 0 5.83405e-18 -4.09058e-11 0 0 0 2.04529e-11)
(6.60387e-12 0 0 9.11432e-18 -1.32077e-11 0 0 0 6.60387e-12)
(2.18167e-12 0 0 4.61382e-18 -4.36334e-12 0 0 0 2.18167e-12)
(1.80741e-12 0 0 -8.20357e-18 -3.61483e-12 0 0 0 1.80741e-12)
(7.60659e-13 0 0 -1.33592e-17 -1.52132e-12 0 0 0 7.60659e-13)
(5.15747e-13 0 0 -1.1294e-17 -1.03149e-12 0 0 0 5.15747e-13)
(1.1138e-13 0 0 -1.0425e-17 -2.22759e-13 0 0 0 1.1138e-13)
(7.72482e-13 0 0 -1.06244e-17 -1.54496e-12 0 0 0 7.72482e-13)
(6.70279e-13 1.17803e-21 0 -3.25505e-18 -1.34056e-12 0 0 0 6.70279e-13)
(8.62849e-13 0 0 1.22829e-17 -1.7257e-12 0 0 0 8.62849e-13)
(6.80172e-13 0 0 1.16618e-17 -1.36034e-12 0 0 0 6.80172e-13)
(8.29152e-13 0 0 1.18911e-17 -1.6583e-12 0 0 0 8.29152e-13)
(5.35855e-13 0 0 4.72754e-18 -1.07171e-12 0 0 0 5.35855e-13)
(4.43106e-13 0 0 -1.6589e-18 -8.86213e-13 0 0 0 4.43106e-13)
(2.89371e-13 0 0 8.14067e-19 -5.78743e-13 0 0 0 2.89371e-13)
(4.29989e-13 0 0 -4.72008e-18 -8.59977e-13 0 0 0 4.29989e-13)
(3.75552e-13 0 0 -1.91449e-18 -7.51105e-13 0 0 0 3.75552e-13)
(4.05172e-13 0 0 9.04003e-18 -8.10344e-13 0 0 0 4.05172e-13)
(3.3275e-13 0 0 3.10157e-18 -6.655e-13 0 0 0 3.3275e-13)
(3.32218e-13 0 0 -1.16896e-17 -6.64435e-13 0 0 0 3.32218e-13)
(2.3936e-13 0 0 -1.91063e-17 -4.78719e-13 0 0 0 2.3936e-13)
(1.95897e-13 0 0 -1.10184e-17 -3.91794e-13 0 0 0 1.95897e-13)
(1.46358e-13 0 0 4.4706e-18 -2.92716e-13 0 0 0 1.46358e-13)
(1.59205e-13 0 0 2.77711e-18 -3.1841e-13 0 0 0 1.59205e-13)
(1.37658e-13 0 0 8.18847e-19 -2.75316e-13 0 0 0 1.37658e-13)
(1.33661e-13 0 0 -1.15266e-18 -2.67322e-13 0 0 0 1.33661e-13)
(1.11665e-13 0 0 -2.84142e-18 -2.23331e-13 0 0 0 1.11665e-13)
(1.0115e-13 0 0 4.37243e-18 -2.023e-13 0 0 0 1.0115e-13)
(7.74474e-14 0 0 1.25231e-17 -1.54895e-13 0 0 0 7.74474e-14)
(6.17116e-14 0 0 1.3535e-17 -1.23423e-13 0 0 0 6.17116e-14)
(5.04753e-14 0 0 1.57705e-17 -1.00951e-13 0 0 0 5.04753e-14)
(4.83239e-14 -1.17803e-21 0 2.39787e-18 -9.66478e-14 0 0 0 4.83239e-14)
(4.65451e-14 0 0 -1.04429e-17 -9.30902e-14 0 0 0 4.65451e-14)
(4.26972e-14 0 0 -6.66382e-18 -8.53943e-14 0 0 0 4.26972e-14)
(4.43034e-14 0 0 -3.21035e-18 -8.86069e-14 0 0 0 4.43034e-14)
(3.88846e-14 0 0 -2.45897e-19 -7.77693e-14 0 0 0 3.88846e-14)
(3.84169e-14 0 0 2.21059e-18 -7.68338e-14 0 0 0 3.84169e-14)
(2.50563e-14 0 0 -1.24486e-17 -5.01126e-14 0 0 0 2.50563e-14)
(3.57654e-14 0 0 -1.09456e-17 -7.15308e-14 0 0 0 3.57654e-14)
(2.9127e-14 0 0 7.01808e-18 -5.82541e-14 0 0 0 2.9127e-14)
(5.40057e-14 0 0 8.68894e-18 -1.08011e-13 0 0 0 5.40057e-14)
(4.04793e-14 0 0 1.09856e-17 -8.09586e-14 0 0 0 4.04793e-14)
(8.23029e-14 0 0 1.39849e-17 -1.64606e-13 0 0 0 8.23029e-14)
(6.28842e-14 0 0 9.55841e-19 -1.25768e-13 0 0 0 6.28842e-14)
(8.77213e-14 0 0 -1.19172e-17 -1.75443e-13 0 0 0 8.77213e-14)
(2.146e-14 0 0 -8.50127e-18 -4.292e-14 0 0 0 2.146e-14)
(9.18411e-14 0 0 -5.6745e-18 -1.83682e-13 0 0 0 9.18411e-14)
(5.34036e-14 0 0 -3.49999e-18 -1.06807e-13 0 0 0 5.34036e-14)
(1.65965e-13 0 0 -1.95061e-18 -3.31931e-13 0 0 0 1.65965e-13)
(8.0044e-14 0 0 -8.72523e-19 -1.60088e-13 0 0 0 8.0044e-14)
(2.65255e-13 0 0 -3.292e-20 -5.3051e-13 0 0 0 2.65255e-13)
(1.73506e-13 0 0 8.51336e-19 -3.47012e-13 0 0 0 1.73506e-13)
(2.56036e-13 0 0 2.10673e-18 -5.12071e-13 0 0 0 2.56036e-13)
(-3.93144e-14 0 0 4.09679e-18 7.86288e-14 0 0 0 -3.93144e-14)
(2.01997e-13 0 0 7.18655e-18 -4.03995e-13 0 0 0 2.01997e-13)
(9.18183e-14 0 0 1.16593e-17 -1.83637e-13 0 0 0 9.18183e-14)
(3.98886e-13 0 0 1.7599e-17 -7.97772e-13 0 0 0 3.98886e-13)
(8.94342e-14 0 0 2.49428e-17 -1.78868e-13 0 0 0 8.94342e-14)
(5.84366e-13 0 0 -3.26565e-22 -1.16873e-12 0 0 0 5.84366e-13)
(3.75852e-13 0 0 -2.49437e-17 -7.51704e-13 0 0 0 3.75852e-13)
(4.84464e-13 0 0 -1.76012e-17 -9.68929e-13 0 0 0 4.84464e-13)
(-3.54097e-13 0 0 -1.16656e-17 7.08194e-13 0 0 0 -3.54097e-13)
(4.50381e-13 0 0 -7.2042e-18 -9.00762e-13 0 0 0 4.50381e-13)
(-2.09297e-12 0 0 -4.14276e-18 4.18594e-12 0 0 0 -2.09297e-12)
(5.54444e-12 0 0 -2.21903e-18 -1.10889e-11 0 0 0 5.54444e-12)
(-4.26132e-12 0 0 -1.10832e-18 8.52264e-12 0 0 0 -4.26132e-12)
(3.62492e-11 0 0 -5.16993e-19 -7.24984e-11 0 0 0 3.62492e-11)
(-2.79656e-10 0 0 -2.2566e-19 5.59311e-10 0 0 0 -2.79656e-10)
(5.98736e-10 0 0 -9.23627e-20 -1.19747e-09 0 0 0 5.98736e-10)
(1.55206e-09 0 0 -3.5529e-20 -3.10413e-09 0 0 0 1.55206e-09)
(-8.14581e-09 0 0 -1.28729e-20 1.62916e-08 0 0 0 -8.14581e-09)
(-1.21773e-08 0 0 -4.40309e-21 2.43545e-08 0 0 0 -1.21773e-08)
(1.03857e-07 0 0 -1.42505e-21 -2.07714e-07 0 0 0 1.03857e-07)
(2.80498e-07 0 0 -4.3708e-22 -5.60996e-07 0 0 0 2.80498e-07)
(-2.34596e-06 0 0 -1.27443e-22 4.69192e-06 0 0 0 -2.34596e-06)
(-3.09128e-06 0 0 -3.5228e-23 6.18255e-06 0 0 0 -3.09128e-06)
(4.41845e-05 0 0 -9.11245e-24 -8.83691e-05 0 0 0 4.41845e-05)
(2.50108e-05 0 0 -2.39486e-24 -5.00216e-05 0 0 0 2.50108e-05)
(-1.32472e-06 0 0 -1.96438e-26 2.64944e-06 0 0 0 -1.32472e-06)
(2.23389e-09 0 0 -9.40114e-30 -4.46779e-09 0 0 0 2.23389e-09)
(1.1571e-12 0 0 -3.77953e-32 -2.31421e-12 0 0 0 1.1571e-12)
(-1.10787e-18 0 0 -7.67092e-39 2.21574e-18 0 0 0 -1.10787e-18)
(-2.59035e-27 0 0 -4.3065e-46 5.1807e-27 0 0 0 -2.59035e-27)
(-3.71454e-35 0 0 -3.78594e-53 7.42907e-35 0 0 0 -3.71454e-35)
(1.38491e-41 0 0 -2.03567e-59 -2.76981e-41 0 0 0 1.38491e-41)
(3.74298e-45 0 0 -2.52415e-62 -7.48597e-45 0 0 0 3.74298e-45)
(-1.11997e-46 0 0 -1.56009e-63 2.23995e-46 0 0 0 -1.11997e-46)
(-1.70416e-48 0 0 -8.35456e-65 3.40832e-48 0 0 0 -1.70416e-48)
(2.49655e-50 0 0 -3.78266e-66 -4.99309e-50 0 0 0 2.49655e-50)
(-2.48224e-50 0 0 -1.40033e-67 4.96448e-50 0 0 0 -2.48224e-50)
(-1.90972e-51 0 0 -4.01447e-69 3.81945e-51 0 0 0 -1.90972e-51)
(-3.01825e-52 0 0 -8.04435e-71 6.03649e-52 0 0 0 -3.01825e-52)
(-3.27033e-51 0 0 -8.60054e-73 6.54066e-51 0 0 0 -3.27033e-51)
)
;

boundaryField
{
    inlet
    {
        type            cyclic;
    }
    outlet
    {
        type            cyclic;
    }
    top
    {
        type            extrapolatedCalculated;
        value           uniform (-6.53442e-51 0 0 -8.47329e-73 1.30688e-50 0 0 0 -6.53442e-51);
    }
    bottom
    {
        type            extrapolatedCalculated;
        value           uniform (0.0113907 0 0 -2.37614e-15 -0.0227814 0 0 0 0.0113907);
    }
    frontAndBackPlanes
    {
        type            empty;
    }
}


// ************************************************************************* //
