/*--------------------------------*- C++ -*----------------------------------*\
| =========                 |                                                 |
| \\      /  F ield         | OpenFOAM: The Open Source CFD Toolbox           |
|  \\    /   O peration     | Version:  v2006                                 |
|   \\  /    A nd           | Website:  www.openfoam.com                      |
|    \\/     M anipulation  |                                                 |
\*---------------------------------------------------------------------------*/
FoamFile
{
    version     2.0;
    format      ascii;
    class       volTensorField;
    location    "220";
    object      Taub;
}
// * * * * * * * * * * * * * * * * * * * * * * * * * * * * * * * * * * * * * //

dimensions      [1 -1 -2 0 0 0 0];


internalField   nonuniform List<tensor> 
120
(
(-8.1231e-07 0 0 -1.11905e-19 1.62462e-06 0 0 0 -8.1231e-07)
(-8.48938e-07 0 0 -1.06972e-19 1.69788e-06 0 0 0 -8.48938e-07)
(-9.01324e-07 0 0 -1.13636e-19 1.80265e-06 0 0 0 -9.01324e-07)
(-9.61004e-07 0 0 -1.19215e-19 1.92201e-06 0 0 0 -9.61004e-07)
(-1.02978e-06 0 0 -1.11007e-19 2.05955e-06 0 0 0 -1.02978e-06)
(-1.11454e-06 0 0 -8.2954e-20 2.22907e-06 0 0 0 -1.11454e-06)
(-1.22901e-06 0 0 -1.09637e-19 2.45802e-06 0 0 0 -1.22901e-06)
(-1.40018e-06 0 0 -1.67711e-19 2.80036e-06 0 0 0 -1.40018e-06)
(-1.65017e-06 0 0 -9.28889e-20 3.30033e-06 0 0 0 -1.65017e-06)
(-2.061e-06 0 0 -4.06338e-20 4.122e-06 0 0 0 -2.061e-06)
(-2.8508e-06 0 0 -1.28737e-19 5.7016e-06 0 0 0 -2.8508e-06)
(-3.98467e-06 0 0 -6.89782e-20 7.96933e-06 0 0 0 -3.98467e-06)
(-4.46132e-06 0 0 -2.56057e-20 8.92265e-06 0 0 0 -4.46132e-06)
(-2.12683e-06 0 0 -1.12896e-19 4.25366e-06 0 0 0 -2.12683e-06)
(-4.3892e-05 0 0 -2.951e-19 8.77841e-05 0 0 0 -4.3892e-05)
(-6.31133e-05 0 0 -2.4169e-17 0.000126227 0 0 0 -6.31133e-05)
(-7.21144e-05 0 0 -3.47551e-17 0.000144229 0 0 0 -7.21144e-05)
(-3.30074e-05 0 0 -3.76766e-17 6.60148e-05 0 0 0 -3.30074e-05)
(2.31249e-05 0 0 -7.71342e-17 -4.62499e-05 0 0 0 2.31249e-05)
(5.9496e-06 0 0 -1.37303e-16 -1.18992e-05 0 0 0 5.9496e-06)
(2.02994e-06 0 0 -2.18336e-16 -4.05989e-06 0 0 0 2.02994e-06)
(9.09246e-07 0 0 -3.16466e-16 -1.81849e-06 0 0 0 9.09246e-07)
(3.29342e-07 0 0 -4.19137e-16 -6.58683e-07 0 0 0 3.29342e-07)
(1.13811e-07 0 0 1.95986e-16 -2.27622e-07 0 0 0 1.13811e-07)
(3.87798e-08 0 0 8.55113e-16 -7.75597e-08 0 0 0 3.87798e-08)
(1.24337e-08 0 0 8.83336e-16 -2.48675e-08 0 0 0 1.24337e-08)
(3.91554e-09 0 0 6.48096e-16 -7.83108e-09 0 0 0 3.91554e-09)
(1.18425e-09 0 0 5.01641e-16 -2.3685e-09 0 0 0 1.18425e-09)
(4.18985e-10 0 0 7.77852e-16 -8.37971e-10 0 0 0 4.18985e-10)
(1.50821e-10 0 0 3.92141e-16 -3.01641e-10 0 0 0 1.50821e-10)
(1.41956e-10 0 0 -6.99797e-16 -2.83913e-10 0 0 0 1.41956e-10)
(3.6748e-11 0 0 -1.14165e-15 -7.34959e-11 0 0 0 3.6748e-11)
(-5.3611e-12 0 0 -9.67937e-16 1.07222e-11 0 0 0 -5.3611e-12)
(-5.74273e-11 0 0 -8.93464e-16 1.14855e-10 0 0 0 -5.74273e-11)
(-1.6528e-12 0 0 -9.07273e-16 3.3056e-12 0 0 0 -1.6528e-12)
(-6.12752e-12 -1.00962e-19 0 -2.7569e-16 1.2255e-11 0 0 0 -6.12752e-12)
(1.94488e-11 0 0 1.04613e-15 -3.88977e-11 0 0 0 1.94488e-11)
(9.78861e-12 0 0 9.99463e-16 -1.95772e-11 0 0 0 9.78861e-12)
(2.69531e-11 0 0 1.01584e-15 -5.39063e-11 0 0 0 2.69531e-11)
(3.7087e-13 0 0 4.0517e-16 -7.41739e-13 0 0 0 3.7087e-13)
(-9.65741e-12 0 0 -1.38892e-16 1.93148e-11 0 0 0 -9.65741e-12)
(-2.39407e-11 0 0 6.64904e-17 4.78813e-11 0 0 0 -2.39407e-11)
(-8.43296e-12 0 0 -4.01247e-16 1.68659e-11 0 0 0 -8.43296e-12)
(-8.19298e-12 0 0 -1.608e-16 1.6386e-11 0 0 0 -8.19298e-12)
(5.15244e-13 0 0 7.68201e-16 -1.03049e-12 0 0 0 5.15244e-13)
(-6.14852e-13 0 0 2.62533e-16 1.2297e-12 0 0 0 -6.14852e-13)
(3.49868e-12 0 0 -9.98559e-16 -6.99737e-12 0 0 0 3.49868e-12)
(-2.19918e-12 0 0 -1.63092e-15 4.39836e-12 0 0 0 -2.19918e-12)
(-4.26438e-12 0 0 -9.41037e-16 8.52877e-12 0 0 0 -4.26438e-12)
(-6.96175e-12 0 0 3.76584e-16 1.39235e-11 0 0 0 -6.96175e-12)
(-3.58398e-12 0 0 2.38006e-16 7.16796e-12 0 0 0 -3.58398e-12)
(-3.0334e-12 0 0 7.01781e-17 6.0668e-12 0 0 0 -3.0334e-12)
(-9.12811e-13 0 0 -9.87858e-17 1.82562e-12 0 0 0 -9.12811e-13)
(-7.65915e-13 0 0 -2.40238e-16 1.53183e-12 0 0 0 -7.65915e-13)
(-6.55337e-14 0 0 3.74736e-16 1.31067e-13 0 0 0 -6.55337e-14)
(-1.06496e-12 0 0 1.07e-15 2.12992e-12 0 0 0 -1.06496e-12)
(-1.6836e-12 0 0 1.16e-15 3.3672e-12 0 0 0 -1.6836e-12)
(-2.0432e-12 0 0 1.34503e-15 4.08639e-12 0 0 0 -2.0432e-12)
(-1.60504e-12 1.00962e-19 0 2.05508e-16 3.21009e-12 0 0 0 -1.60504e-12)
(-1.17671e-12 0 0 -8.88435e-16 2.35341e-12 0 0 0 -1.17671e-12)
(-1.05117e-12 0 0 -5.71113e-16 2.10233e-12 0 0 0 -1.05117e-12)
(-6.31334e-13 0 0 -2.7514e-16 1.26267e-12 0 0 0 -6.31334e-13)
(-1.10091e-12 0 0 -2.1077e-17 2.20181e-12 0 0 0 -1.10091e-12)
(-1.37153e-12 0 0 1.82895e-16 2.74306e-12 0 0 0 -1.37153e-12)
(-2.97829e-12 0 0 -1.06033e-15 5.95659e-12 0 0 0 -2.97829e-12)
(-2.4637e-12 0 0 -9.31519e-16 4.92741e-12 0 0 0 -2.4637e-12)
(-3.53937e-12 0 0 5.94917e-16 7.07874e-12 0 0 0 -3.53937e-12)
(-1.83766e-12 0 0 7.44675e-16 3.67531e-12 0 0 0 -1.83766e-12)
(-3.79822e-12 0 0 9.41502e-16 7.59644e-12 0 0 0 -3.79822e-12)
(-1.08441e-12 0 0 1.192e-15 2.16881e-12 0 0 0 -1.08441e-12)
(-4.38433e-12 0 0 8.19199e-17 8.76866e-12 0 0 0 -4.38433e-12)
(-4.16897e-12 0 0 -1.01479e-15 8.33793e-12 0 0 0 -4.16897e-12)
(-1.23875e-11 0 0 -7.2859e-16 2.4775e-11 0 0 0 -1.23875e-11)
(-8.0438e-12 0 0 -4.86327e-16 1.60876e-11 0 0 0 -8.0438e-12)
(-1.31832e-11 0 0 -2.99964e-16 2.63664e-11 0 0 0 -1.31832e-11)
(-4.60846e-12 0 0 -1.67176e-16 9.21692e-12 0 0 0 -4.60846e-12)
(-1.42554e-11 0 0 -7.47792e-17 2.85107e-11 0 0 0 -1.42554e-11)
(-1.99461e-13 0 0 -2.82124e-18 3.98922e-13 0 0 0 -1.99461e-13)
(-1.23928e-11 0 0 7.29638e-17 2.47857e-11 0 0 0 -1.23928e-11)
(-1.02648e-11 0 0 1.80557e-16 2.05295e-11 0 0 0 -1.02648e-11)
(-4.24101e-11 0 0 3.51113e-16 8.48203e-11 0 0 0 -4.24101e-11)
(-2.45287e-11 0 0 6.15917e-16 4.90574e-11 0 0 0 -2.45287e-11)
(-3.58646e-11 0 0 9.99245e-16 7.17293e-11 0 0 0 -3.58646e-11)
(-8.23916e-12 0 0 1.5083e-15 1.64783e-11 0 0 0 -8.23916e-12)
(-3.60411e-11 0 0 2.12457e-15 7.20823e-11 0 0 0 -3.60411e-11)
(7.47295e-12 0 0 -2.72277e-20 -1.49459e-11 0 0 0 7.47295e-12)
(-1.46795e-11 0 0 -2.12464e-15 2.93589e-11 0 0 0 -1.46795e-11)
(-1.15588e-11 0 0 -1.50849e-15 2.31177e-11 0 0 0 -1.15588e-11)
(-9.42513e-11 0 0 -9.99792e-16 1.88503e-10 0 0 0 -9.42513e-11)
(-2.21974e-11 0 0 -6.17431e-16 4.43947e-11 0 0 0 -2.21974e-11)
(-2.43527e-10 0 0 -3.55054e-16 4.87054e-10 0 0 0 -2.43527e-10)
(4.6231e-10 0 0 -1.90182e-16 -9.2462e-10 0 0 0 4.6231e-10)
(-4.8778e-10 0 0 -9.49889e-17 9.7556e-10 0 0 0 -4.8778e-10)
(3.39219e-09 0 0 -4.43092e-17 -6.78438e-09 0 0 0 3.39219e-09)
(-2.47697e-08 0 0 -1.93404e-17 4.95395e-08 0 0 0 -2.47697e-08)
(5.24895e-08 0 0 -7.91609e-18 -1.04979e-07 0 0 0 5.24895e-08)
(1.33381e-07 0 0 -3.04508e-18 -2.66762e-07 0 0 0 1.33381e-07)
(-7.07983e-07 0 0 -1.1033e-18 1.41597e-06 0 0 0 -7.07983e-07)
(-9.81969e-07 0 0 -3.77385e-19 1.96394e-06 0 0 0 -9.81969e-07)
(8.66871e-06 0 0 -1.22132e-19 -1.73374e-05 0 0 0 8.66871e-06)
(2.44073e-05 0 0 -3.74646e-20 -4.88146e-05 0 0 0 2.44073e-05)
(-0.000199642 0 0 -1.09223e-20 0.000399283 0 0 0 -0.000199642)
(-0.000274829 0 0 -3.01876e-21 0.000549659 0 0 0 -0.000274829)
(0.0038903 0 0 -7.94865e-22 -0.0077806 0 0 0 0.0038903)
(0.000624928 0 0 -1.9502e-22 -0.00124986 0 0 0 0.000624928)
(-0.00229137 0 0 -5.70358e-24 0.00458274 0 0 0 -0.00229137)
(-0.000126354 0 0 -5.72215e-24 0.000252709 0 0 0 -0.000126354)
(0.000297302 0 0 -5.10767e-24 -0.000594604 0 0 0 0.000297302)
(2.40778e-05 0 0 -4.25039e-24 -4.81556e-05 0 0 0 2.40778e-05)
(-2.23666e-05 0 0 -3.53121e-24 4.47332e-05 0 0 0 -2.23666e-05)
(-2.83307e-06 0 0 -2.92962e-24 5.66614e-06 0 0 0 -2.83307e-06)
(1.63839e-06 0 0 -2.42912e-24 -3.27678e-06 0 0 0 1.63839e-06)
(2.91889e-07 0 0 -2.01609e-24 -5.83778e-07 0 0 0 2.91889e-07)
(-1.16564e-07 0 0 -1.67901e-24 2.33127e-07 0 0 0 -1.16564e-07)
(-2.79802e-08 0 0 -1.40807e-24 5.59604e-08 0 0 0 -2.79802e-08)
(7.9597e-09 0 0 -1.19492e-24 -1.59194e-08 0 0 0 7.9597e-09)
(2.57758e-09 0 0 -1.03266e-24 -5.15515e-09 0 0 0 2.57758e-09)
(-5.2975e-10 0 0 -9.15761e-25 1.0595e-09 0 0 0 -5.2975e-10)
(-2.38948e-10 0 0 -8.40131e-25 4.77896e-10 0 0 0 -2.38948e-10)
(3.32258e-10 0 0 -8.00384e-25 -6.64516e-10 0 0 0 3.32258e-10)
)
;

boundaryField
{
    inlet
    {
        type            cyclic;
    }
    outlet
    {
        type            cyclic;
    }
    top
    {
        type            extrapolatedCalculated;
        value           uniform (6.31212e-10 0 0 -7.88563e-25 -1.26242e-09 0 0 0 6.31212e-10);
    }
    bottom
    {
        type            extrapolatedCalculated;
        value           uniform (-7.99855e-07 0 0 -1.12266e-19 1.59971e-06 0 0 0 -7.99855e-07);
    }
    frontAndBackPlanes
    {
        type            empty;
    }
}


// ************************************************************************* //
