/*--------------------------------*- C++ -*----------------------------------*\
| =========                 |                                                 |
| \\      /  F ield         | OpenFOAM: The Open Source CFD Toolbox           |
|  \\    /   O peration     | Version:  v2006                                 |
|   \\  /    A nd           | Website:  www.openfoam.com                      |
|    \\/     M anipulation  |                                                 |
\*---------------------------------------------------------------------------*/
FoamFile
{
    version     2.0;
    format      ascii;
    class       volVectorField;
    location    "220";
    object      Ua;
}
// * * * * * * * * * * * * * * * * * * * * * * * * * * * * * * * * * * * * * //

dimensions      [0 1 -1 0 0 0 0];


internalField   nonuniform List<vector> 
120
(
(-5.65747e-22 -8.1362e-09 0)
(-1.69031e-21 -2.5053e-08 0)
(-2.79876e-21 -4.32581e-08 0)
(-3.98238e-21 -6.27235e-08 0)
(-5.12814e-21 -8.35438e-08 0)
(-6.22487e-21 -1.0594e-07 0)
(-7.26116e-21 -1.30284e-07 0)
(-8.43682e-21 -1.57362e-07 0)
(-9.53055e-21 -1.88741e-07 0)
(-1.03135e-20 -2.26696e-07 0)
(-1.10098e-20 -2.75054e-07 0)
(-1.17209e-20 -3.42363e-07 0)
(-1.24067e-20 -4.41067e-07 0)
(-1.34405e-20 -5.56174e-07 0)
(-1.46823e-20 -6.72791e-07 0)
(-1.63554e-20 -9.23162e-07 0)
(-5.21031e-19 -6.17599e-06 0)
(-7.73627e-19 -3.87221e-06 0)
(-1.3509e-18 -5.65162e-06 0)
(-2.48205e-18 -6.16915e-06 0)
(-4.39859e-18 -6.34047e-06 0)
(-7.33238e-18 -6.41353e-06 0)
(-1.14309e-17 -6.44005e-06 0)
(-1.67201e-17 -6.44912e-06 0)
(-7.07527e-18 -6.45221e-06 0)
(2.3575e-18 -6.45317e-06 0)
(1.25932e-17 -6.45349e-06 0)
(1.67613e-17 -6.45356e-06 0)
(2.37057e-17 -6.4536e-06 0)
(3.4122e-17 -6.4536e-06 0)
(3.24939e-17 -6.45362e-06 0)
(1.84961e-17 -6.45361e-06 0)
(7.04787e-18 -6.45362e-06 0)
(-3.01621e-18 -6.45362e-06 0)
(-1.28093e-17 -6.45362e-06 0)
(-2.32532e-17 -6.45362e-06 0)
(-1.90094e-17 -6.45363e-06 0)
(1.42768e-19 -6.45363e-06 0)
(3.20365e-18 -6.45363e-06 0)
(2.27926e-17 -6.45363e-06 0)
(1.22085e-17 -6.45363e-06 0)
(1.96327e-17 -6.45363e-06 0)
(1.37591e-17 -6.45363e-06 0)
(1.06421e-17 -6.45363e-06 0)
(1.01124e-17 -6.45364e-06 0)
(2.78612e-17 -6.45364e-06 0)
(1.60202e-17 -6.45364e-06 0)
(5.59539e-18 -6.45364e-06 0)
(-2.03728e-17 -6.45364e-06 0)
(-1.5392e-17 -6.45364e-06 0)
(-1.18574e-17 -6.45364e-06 0)
(-1.01023e-17 -6.45364e-06 0)
(-1.02976e-17 -6.45364e-06 0)
(-1.22978e-17 -6.45364e-06 0)
(-1.57099e-17 -6.45364e-06 0)
(-3.96935e-18 -6.45364e-06 0)
(8.14372e-18 -6.45364e-06 0)
(2.18116e-17 -6.45364e-06 0)
(3.81828e-17 -6.45364e-06 0)
(2.6379e-17 -6.45364e-06 0)
(1.82915e-17 -6.45364e-06 0)
(1.3686e-17 -6.45364e-06 0)
(1.21766e-17 -6.45364e-06 0)
(1.32176e-17 -6.45364e-06 0)
(1.63872e-17 -6.45364e-06 0)
(-1.04941e-17 -6.45364e-06 0)
(-4.46158e-18 -6.45364e-06 0)
(2.8737e-18 -6.45364e-06 0)
(1.20888e-17 -6.45364e-06 0)
(2.37986e-17 -6.45364e-06 0)
(3.87268e-17 -6.45364e-06 0)
(2.56192e-17 -6.45364e-06 0)
(1.60273e-17 -6.45365e-06 0)
(9.42632e-18 -6.45364e-06 0)
(5.21872e-18 -6.45365e-06 0)
(2.75968e-18 -6.45364e-06 0)
(1.50327e-18 -6.45365e-06 0)
(1.09773e-18 -6.45365e-06 0)
(1.44056e-18 -6.45365e-06 0)
(2.71932e-18 -6.45365e-06 0)
(5.45338e-18 -6.45365e-06 0)
(1.05227e-17 -6.45365e-06 0)
(1.9142e-17 -6.45365e-06 0)
(3.27308e-17 -6.45365e-06 0)
(5.2664e-17 -6.45365e-06 0)
(8.02409e-17 -6.45365e-06 0)
(5.26634e-17 -6.45366e-06 0)
(3.27291e-17 -6.45365e-06 0)
(1.91372e-17 -6.45366e-06 0)
(1.05089e-17 -6.45365e-06 0)
(5.4149e-18 -6.45366e-06 0)
(2.61788e-18 -6.45364e-06 0)
(1.18817e-18 -6.45369e-06 0)
(5.06794e-19 -6.45361e-06 0)
(2.03425e-19 -6.4539e-06 0)
(7.6966e-20 -6.45201e-06 0)
(2.74956e-20 -6.45732e-06 0)
(9.29183e-21 -6.46088e-06 0)
(2.97583e-21 -6.41077e-06 0)
(9.04721e-22 -6.3913e-06 0)
(2.61769e-22 -7.00418e-06 0)
(7.20384e-23 -7.99443e-06 0)
(1.90601e-23 6.39911e-06 0)
(4.96922e-24 9.66166e-06 0)
(1.0114e-24 -0.000256144 0)
(9.19874e-25 -0.000117207 0)
(7.73482e-25 -0.000208012 0)
(6.33883e-25 -0.000321078 0)
(5.17727e-25 -0.000231502 0)
(4.21221e-25 -0.000228936 0)
(3.41136e-25 -0.000228315 0)
(2.74726e-25 -0.000228505 0)
(2.19668e-25 -0.000228563 0)
(1.73913e-25 -0.00022855 0)
(1.35709e-25 -0.000228545 0)
(1.03503e-25 -0.000228546 0)
(7.59572e-26 -0.000228546 0)
(5.18667e-26 -0.000228518 0)
(3.01632e-26 -0.000228481 0)
(9.85701e-27 -0.000228045 0)
)
;

boundaryField
{
    inlet
    {
        type            cyclic;
    }
    outlet
    {
        type            cyclic;
    }
    top
    {
        type            fixedValue;
        value           uniform (0 0 0);
    }
    bottom
    {
        type            fixedValue;
        value           uniform (0 0 0);
    }
    frontAndBackPlanes
    {
        type            empty;
    }
}


// ************************************************************************* //
