/*--------------------------------*- C++ -*----------------------------------*\
| =========                 |                                                 |
| \\      /  F ield         | OpenFOAM: The Open Source CFD Toolbox           |
|  \\    /   O peration     | Version:  v2006                                 |
|   \\  /    A nd           | Website:  www.openfoam.com                      |
|    \\/     M anipulation  |                                                 |
\*---------------------------------------------------------------------------*/
FoamFile
{
    version     2.0;
    format      ascii;
    class       volVectorField;
    location    "220";
    object      Ub;
}
// * * * * * * * * * * * * * * * * * * * * * * * * * * * * * * * * * * * * * //

dimensions      [0 1 -1 0 0 0 0];


internalField   nonuniform List<vector> 
120
(
(-5.65745e-22 1.20922e-08 0)
(-1.68996e-21 3.70297e-08 0)
(-2.72267e-21 6.34449e-08 0)
(-3.98203e-21 9.15694e-08 0)
(-5.12813e-21 1.21617e-07 0)
(-6.22273e-21 1.53928e-07 0)
(-6.80329e-21 1.89137e-07 0)
(-8.43778e-21 2.28419e-07 0)
(-1.01935e-20 2.74049e-07 0)
(-1.03166e-20 3.28553e-07 0)
(-1.1016e-20 3.99206e-07 0)
(-1.29249e-20 5.01828e-07 0)
(-1.24149e-20 6.41646e-07 0)
(-1.34448e-20 7.73564e-07 0)
(-1.47096e-20 7.71335e-07 0)
(-1.94558e-20 3.45572e-06 0)
(-5.21024e-19 4.7378e-06 0)
(-7.73639e-19 8.15035e-06 0)
(-1.35092e-18 6.91895e-06 0)
(-2.48209e-18 6.61377e-06 0)
(-4.39863e-18 6.52276e-06 0)
(-7.33242e-18 6.47849e-06 0)
(-1.1431e-17 6.46215e-06 0)
(-1.66473e-17 6.45653e-06 0)
(-7.07527e-18 6.45456e-06 0)
(2.35752e-18 6.45394e-06 0)
(1.25568e-17 6.45373e-06 0)
(1.67614e-17 6.45368e-06 0)
(2.37058e-17 6.45365e-06 0)
(3.40492e-17 6.45365e-06 0)
(3.24211e-17 6.45364e-06 0)
(1.84962e-17 6.45364e-06 0)
(7.04793e-18 6.45364e-06 0)
(-3.01619e-18 6.45364e-06 0)
(-1.28093e-17 6.45364e-06 0)
(-2.31803e-17 6.45364e-06 0)
(-1.89365e-17 6.45364e-06 0)
(6.98757e-20 6.45364e-06 0)
(3.27654e-18 6.45364e-06 0)
(2.26468e-17 6.45364e-06 0)
(1.22814e-17 6.45364e-06 0)
(1.956e-17 6.45364e-06 0)
(1.37592e-17 6.45364e-06 0)
(1.06422e-17 6.45364e-06 0)
(1.01854e-17 6.45364e-06 0)
(2.77155e-17 6.45364e-06 0)
(1.60202e-17 6.45364e-06 0)
(5.52253e-18 6.45364e-06 0)
(-2.0227e-17 6.45364e-06 0)
(-1.5392e-17 6.45364e-06 0)
(-1.18574e-17 6.45364e-06 0)
(-1.01023e-17 6.45364e-06 0)
(-1.02977e-17 6.45364e-06 0)
(-1.22978e-17 6.45364e-06 0)
(-1.5637e-17 6.45364e-06 0)
(-3.96933e-18 6.45364e-06 0)
(8.14377e-18 6.45364e-06 0)
(2.18117e-17 6.45364e-06 0)
(3.80371e-17 6.45364e-06 0)
(2.63791e-17 6.45364e-06 0)
(1.82917e-17 6.45364e-06 0)
(1.36861e-17 6.45364e-06 0)
(1.21767e-17 6.45364e-06 0)
(1.32177e-17 6.45364e-06 0)
(1.62415e-17 6.45364e-06 0)
(-1.03482e-17 6.45364e-06 0)
(-4.46151e-18 6.45364e-06 0)
(2.87377e-18 6.45364e-06 0)
(1.20889e-17 6.45364e-06 0)
(2.37987e-17 6.45364e-06 0)
(3.85811e-17 6.45364e-06 0)
(2.56193e-17 6.45364e-06 0)
(1.60274e-17 6.45364e-06 0)
(9.42642e-18 6.45365e-06 0)
(5.21879e-18 6.45364e-06 0)
(2.75973e-18 6.45365e-06 0)
(1.5033e-18 6.45365e-06 0)
(1.09776e-18 6.45365e-06 0)
(1.4406e-18 6.45365e-06 0)
(2.71938e-18 6.45365e-06 0)
(5.45347e-18 6.45365e-06 0)
(1.05229e-17 6.45365e-06 0)
(1.91422e-17 6.45365e-06 0)
(3.27311e-17 6.45365e-06 0)
(5.26643e-17 6.45365e-06 0)
(7.99496e-17 6.45366e-06 0)
(5.26637e-17 6.45365e-06 0)
(3.27294e-17 6.45366e-06 0)
(1.91374e-17 6.45365e-06 0)
(1.0509e-17 6.45366e-06 0)
(5.41499e-18 6.45365e-06 0)
(2.61794e-18 6.45368e-06 0)
(1.1882e-18 6.45362e-06 0)
(5.06809e-19 6.45371e-06 0)
(2.03432e-19 6.45339e-06 0)
(7.69691e-20 6.45536e-06 0)
(2.74969e-20 6.44989e-06 0)
(9.2923e-21 6.44647e-06 0)
(2.976e-21 6.4971e-06 0)
(9.04778e-22 6.51194e-06 0)
(2.61787e-22 5.91915e-06 0)
(7.20438e-23 4.88443e-06 0)
(1.90616e-23 1.9229e-05 0)
(4.96959e-24 2.32039e-05 0)
(1.0115e-24 -0.000245799 0)
(9.19905e-25 -1.5727e-05 0)
(7.73144e-25 4.14749e-05 0)
(6.33784e-25 3.22708e-06 0)
(5.17728e-25 -3.12596e-06 0)
(4.21238e-25 -3.85048e-07 0)
(3.41146e-25 2.29443e-07 0)
(2.74739e-25 3.99658e-08 0)
(2.19675e-25 -1.63459e-08 0)
(1.73922e-25 -3.82304e-09 0)
(1.35713e-25 1.1408e-09 0)
(1.03509e-25 3.74512e-10 0)
(7.59597e-26 -5.33008e-11 0)
(5.18701e-26 -1.21733e-11 0)
(3.01659e-26 2.61715e-11 0)
(9.85827e-27 2.36734e-11 0)
)
;

boundaryField
{
    inlet
    {
        type            cyclic;
    }
    outlet
    {
        type            cyclic;
    }
    top
    {
        type            fixedValue;
        value           uniform (0 0 0);
    }
    bottom
    {
        type            fixedValue;
        value           uniform (0 0 0);
    }
    frontAndBackPlanes
    {
        type            empty;
    }
}


// ************************************************************************* //
