/*--------------------------------*- C++ -*----------------------------------*\
| =========                 |                                                 |
| \\      /  F ield         | OpenFOAM: The Open Source CFD Toolbox           |
|  \\    /   O peration     | Version:  v2006                                 |
|   \\  /    A nd           | Website:  www.openfoam.com                      |
|    \\/     M anipulation  |                                                 |
\*---------------------------------------------------------------------------*/
FoamFile
{
    version     2.0;
    format      ascii;
    class       volScalarField;
    location    "1160";
    object      p;
}
// * * * * * * * * * * * * * * * * * * * * * * * * * * * * * * * * * * * * * //

dimensions      [1 -1 -2 0 0 0 0];


internalField   nonuniform List<scalar> 
120
(
3.57139
-1.08877
-5.74935
-10.4103
-15.0718
-19.7336
-24.3959
-29.0587
-33.7218
-38.3855
-43.0496
-47.7142
-52.3792
-57.0448
-61.7108
-66.3773
-71.0444
-75.7119
-80.38
-85.0486
-89.7177
-94.3874
-99.0576
-103.728
-108.4
-113.072
-117.744
-122.418
-127.091
-131.766
-136.441
-141.117
-145.793
-150.47
-155.148
-159.826
-164.505
-169.185
-173.866
-178.548
-183.23
-187.913
-192.597
-197.282
-201.967
-206.654
-211.341
-216.03
-220.719
-225.41
-230.101
-234.794
-239.487
-244.182
-248.878
-253.575
-258.274
-262.974
-267.675
-272.377
-277.081
-281.787
-286.495
-291.204
-295.915
-300.628
-305.343
-310.061
-314.781
-319.504
-324.229
-328.958
-333.69
-338.426
-343.167
-347.915
-352.676
-357.45
-362.216
-367.119
-372.032
-376.94
-381.847
-386.753
-391.658
-396.564
-401.469
-406.374
-411.279
-416.183
-421.09
-425.996
-430.936
-435.678
-440.348
-445.007
-449.666
-454.326
-458.985
-463.645
-468.305
-472.965
-477.624
-482.284
-486.944
-491.604
-496.263
-500.923
-505.583
-510.243
-514.902
-519.562
-524.222
-528.882
-533.541
-538.201
-542.861
-547.521
-552.18
-556.84
)
;

boundaryField
{
    inlet
    {
        type            cyclic;
    }
    outlet
    {
        type            cyclic;
    }
    top
    {
        type            calculated;
        value           uniform -559.17;
    }
    bottom
    {
        type            calculated;
        value           uniform 5.90126;
    }
    frontAndBackPlanes
    {
        type            empty;
    }
}


// ************************************************************************* //
