/*--------------------------------*- C++ -*----------------------------------*\
| =========                 |                                                 |
| \\      /  F ield         | OpenFOAM: The Open Source CFD Toolbox           |
|  \\    /   O peration     | Version:  v2006                                 |
|   \\  /    A nd           | Website:  www.openfoam.com                      |
|    \\/     M anipulation  |                                                 |
\*---------------------------------------------------------------------------*/
FoamFile
{
    version     2.0;
    format      ascii;
    class       volScalarField;
    location    "1160";
    object      pff;
}
// * * * * * * * * * * * * * * * * * * * * * * * * * * * * * * * * * * * * * //

dimensions      [1 -1 -2 0 0 0 0];


internalField   nonuniform List<scalar> 
120
(
20.5188
20.2252
19.9321
19.6394
19.3472
19.0554
18.7641
18.4733
18.1829
17.893
17.6036
17.3147
17.0263
16.7383
16.4509
16.164
15.8777
15.5918
15.3065
15.0218
14.7376
14.454
14.171
13.8885
13.6067
13.3254
13.0448
12.7648
12.4855
12.2068
11.9287
11.6514
11.3747
11.0987
10.8234
10.5489
10.275
10.002
9.72968
9.45816
9.18745
8.91756
8.64851
8.38032
8.11302
7.84662
7.58115
7.31663
7.05309
6.79054
6.529
6.26849
6.00904
5.75066
5.49338
5.23723
4.98223
4.72843
4.47587
4.22462
3.97473
3.72626
3.47927
3.23381
2.98988
2.74744
2.50638
2.26648
2.02739
1.78841
1.54825
1.30571
1.06286
0.827801
0.618966
0.448561
0.320006
0.164647
0
0
0
0
0
0
0
0
0
0
0
0
0
0
0
0
0
0
0
0
0
0
0
0
0
0
0
0
0
0
0
0
0
0
0
0
0
0
0
0
0
0
)
;

boundaryField
{
    inlet
    {
        type            cyclic;
    }
    outlet
    {
        type            cyclic;
    }
    top
    {
        type            calculated;
        value           uniform 0;
    }
    bottom
    {
        type            calculated;
        value           uniform 20.5188;
    }
    frontAndBackPlanes
    {
        type            empty;
    }
}


// ************************************************************************* //
