/*--------------------------------*- C++ -*----------------------------------*\
| =========                 |                                                 |
| \\      /  F ield         | OpenFOAM: The Open Source CFD Toolbox           |
|  \\    /   O peration     | Version:  v2006                                 |
|   \\  /    A nd           | Website:  www.openfoam.com                      |
|    \\/     M anipulation  |                                                 |
\*---------------------------------------------------------------------------*/
FoamFile
{
    version     2.0;
    format      ascii;
    class       surfaceScalarField;
    location    "1160";
    object      phia;
}
// * * * * * * * * * * * * * * * * * * * * * * * * * * * * * * * * * * * * * //

dimensions      [0 3 -1 0 0 0 0];
oriented        oriented;


internalField   nonuniform List<scalar> 
119
(
-1.04085e-15
-2.09699e-15
-3.16883e-15
-4.25678e-15
-5.36128e-15
-6.48278e-15
-7.62175e-15
-8.77867e-15
-9.95405e-15
-1.11484e-14
-1.23623e-14
-1.35963e-14
-1.48509e-14
-1.61269e-14
-1.74249e-14
-1.87455e-14
-2.00895e-14
-2.14577e-14
-2.28508e-14
-2.42698e-14
-2.57156e-14
-2.7189e-14
-2.86912e-14
-3.02232e-14
-3.17861e-14
-3.3381e-14
-3.50092e-14
-3.66719e-14
-3.83705e-14
-4.01063e-14
-4.18808e-14
-4.36955e-14
-4.5552e-14
-4.74521e-14
-4.93977e-14
-5.13907e-14
-5.34335e-14
-5.55285e-14
-5.76783e-14
-5.9886e-14
-6.21548e-14
-6.44882e-14
-6.689e-14
-6.93645e-14
-7.19159e-14
-7.4549e-14
-7.72686e-14
-8.00799e-14
-8.29881e-14
-8.59989e-14
-8.91184e-14
-9.23532e-14
-9.57109e-14
-9.92004e-14
-1.02833e-13
-1.06621e-13
-1.10581e-13
-1.14735e-13
-1.19106e-13
-1.23725e-13
-1.28626e-13
-1.33847e-13
-1.39432e-13
-1.45424e-13
-1.51867e-13
-1.58807e-13
-1.66289e-13
-1.7437e-13
-1.83134e-13
-1.92737e-13
-2.03503e-13
-2.16042e-13
-2.30336e-13
-2.48399e-13
-2.75416e-13
-3.19188e-13
-3.66792e-13
-4.31896e-13
-1.42422e-12
-1.94211e-12
-2.14272e-12
-2.23585e-12
-2.28096e-12
-2.30273e-12
-2.31328e-12
-2.31873e-12
-2.32038e-12
-2.32147e-12
-2.33067e-12
-2.2964e-12
-2.55772e-12
-1.88147e-12
-2.38148e-11
-6.32604e-11
-1.41588e-10
-8.14081e-11
-8.23033e-11
-8.22733e-11
-8.22751e-11
-8.22771e-11
-8.22767e-11
-8.22766e-11
-8.22766e-11
-8.22766e-11
-8.22766e-11
-8.22766e-11
-8.22766e-11
-8.22766e-11
-8.22766e-11
-8.22766e-11
-8.22766e-11
-8.22766e-11
-8.22766e-11
-8.22766e-11
-8.22766e-11
-8.22766e-11
-8.22766e-11
-8.22565e-11
-8.21697e-11
)
;

boundaryField
{
    inlet
    {
        type            cyclic;
        value           nonuniform List<scalar> 
120
(
-6.0053e-28
-1.80272e-27
-3.00753e-27
-4.18637e-27
-5.37137e-27
-6.56434e-27
-7.7671e-27
-8.92082e-27
-1.00881e-26
-1.13316e-26
-1.25926e-26
-1.38731e-26
-1.52361e-26
-1.66229e-26
-1.80359e-26
-1.94774e-26
-2.09497e-26
-2.24555e-26
-2.39972e-26
-2.55777e-26
-2.71995e-26
-2.88657e-26
-3.05791e-26
-3.23428e-26
-3.44026e-26
-3.65191e-26
-3.86957e-26
-4.08147e-26
-4.30008e-26
-4.52578e-26
-4.73468e-26
-4.92719e-26
-5.12792e-26
-5.33728e-26
-5.55566e-26
-5.78316e-26
-6.04472e-26
-6.34104e-26
-6.62375e-26
-6.94167e-26
-7.22248e-26
-7.53921e-26
-7.84375e-26
-8.16061e-26
-8.49005e-26
-8.85654e-26
-9.18755e-26
-9.53166e-26
-9.86474e-26
-1.02595e-25
-1.06675e-25
-1.10885e-25
-1.15224e-25
-1.1969e-25
-1.24278e-25
-1.2923e-25
-1.34297e-25
-1.39475e-25
-1.44765e-25
-1.49668e-25
-1.54662e-25
-1.59749e-25
-1.64925e-25
-1.7019e-25
-1.75541e-25
-1.80483e-25
-1.8599e-25
-1.91551e-25
-1.97137e-25
-2.02709e-25
-2.08235e-25
-2.13211e-25
-2.18302e-25
-2.23912e-25
-2.3209e-25
-2.49529e-25
-2.90027e-25
-3.66936e-25
-5.38328e-25
-1.78719e-23
-2.26883e-23
-2.72294e-23
-3.26673e-23
-3.91406e-23
-4.66865e-23
-5.54014e-23
-4.63305e-23
-3.84083e-23
-3.15281e-23
-2.56729e-23
-2.08552e-23
-1.70964e-23
-1.46434e-23
-1.43722e-23
-1.36501e-23
-1.28988e-23
-1.21678e-23
-1.14579e-23
-1.07688e-23
-1.01006e-23
-9.45335e-24
-8.82687e-24
-8.22105e-24
-7.63522e-24
-7.06901e-24
-6.5214e-24
-5.99175e-24
-5.47882e-24
-4.98174e-24
-4.4992e-24
-4.03008e-24
-3.57312e-24
-3.12705e-24
-2.69067e-24
-2.26257e-24
-1.84156e-24
-1.42631e-24
-1.01556e-24
-6.07999e-25
-2.02384e-25
)
;
    }
    outlet
    {
        type            cyclic;
        value           nonuniform List<scalar> 
120
(
6.0053e-28
1.80272e-27
3.00753e-27
4.18637e-27
5.37137e-27
6.56434e-27
7.7671e-27
8.92082e-27
1.00881e-26
1.13316e-26
1.25926e-26
1.38731e-26
1.52361e-26
1.66229e-26
1.80359e-26
1.94774e-26
2.09497e-26
2.24555e-26
2.39972e-26
2.55777e-26
2.71995e-26
2.88657e-26
3.05791e-26
3.23428e-26
3.44026e-26
3.65191e-26
3.86957e-26
4.08147e-26
4.30008e-26
4.52578e-26
4.73468e-26
4.92719e-26
5.12792e-26
5.33728e-26
5.55566e-26
5.78316e-26
6.04472e-26
6.34104e-26
6.62375e-26
6.94167e-26
7.22248e-26
7.53921e-26
7.84375e-26
8.16061e-26
8.49005e-26
8.85654e-26
9.18755e-26
9.53166e-26
9.86474e-26
1.02595e-25
1.06675e-25
1.10885e-25
1.15224e-25
1.1969e-25
1.24278e-25
1.2923e-25
1.34297e-25
1.39475e-25
1.44765e-25
1.49668e-25
1.54662e-25
1.59749e-25
1.64925e-25
1.7019e-25
1.75541e-25
1.80483e-25
1.8599e-25
1.91551e-25
1.97137e-25
2.02709e-25
2.08235e-25
2.13211e-25
2.18302e-25
2.23912e-25
2.3209e-25
2.49529e-25
2.90027e-25
3.66936e-25
5.38328e-25
1.78719e-23
2.26883e-23
2.72294e-23
3.26673e-23
3.91406e-23
4.66865e-23
5.54014e-23
4.63305e-23
3.84083e-23
3.15281e-23
2.56729e-23
2.08552e-23
1.70964e-23
1.46434e-23
1.43722e-23
1.36501e-23
1.28988e-23
1.21678e-23
1.14579e-23
1.07688e-23
1.01006e-23
9.45335e-24
8.82687e-24
8.22105e-24
7.63522e-24
7.06901e-24
6.5214e-24
5.99175e-24
5.47882e-24
4.98174e-24
4.4992e-24
4.03008e-24
3.57312e-24
3.12705e-24
2.69067e-24
2.26257e-24
1.84156e-24
1.42631e-24
1.01556e-24
6.07999e-25
2.02384e-25
)
;
    }
    top
    {
        type            fixedValue;
        value           uniform 0;
    }
    bottom
    {
        type            fixedValue;
        value           uniform 0;
    }
    frontAndBackPlanes
    {
        type            empty;
        value           nonuniform List<scalar> 0();
    }
}


// ************************************************************************* //
