/*--------------------------------*- C++ -*----------------------------------*\
| =========                 |                                                 |
| \\      /  F ield         | OpenFOAM: The Open Source CFD Toolbox           |
|  \\    /   O peration     | Version:  v2006                                 |
|   \\  /    A nd           | Website:  www.openfoam.com                      |
|    \\/     M anipulation  |                                                 |
\*---------------------------------------------------------------------------*/
FoamFile
{
    version     2.0;
    format      ascii;
    class       surfaceScalarField;
    location    "1160";
    object      phib;
}
// * * * * * * * * * * * * * * * * * * * * * * * * * * * * * * * * * * * * * //

dimensions      [0 3 -1 0 0 0 0];
oriented        oriented;


internalField   nonuniform List<scalar> 
119
(
1.55506e-15
3.13218e-15
4.73194e-15
6.35492e-15
8.00175e-15
9.67305e-15
1.13695e-14
1.30918e-14
1.48406e-14
1.66166e-14
1.84207e-14
2.02536e-14
2.21162e-14
2.40093e-14
2.59339e-14
2.78909e-14
2.98814e-14
3.19064e-14
3.39671e-14
3.60646e-14
3.82004e-14
4.03756e-14
4.25918e-14
4.48504e-14
4.71529e-14
4.9501e-14
5.18963e-14
5.43407e-14
5.68359e-14
5.93838e-14
6.19865e-14
6.46461e-14
6.73648e-14
7.0145e-14
7.29893e-14
7.59006e-14
7.88818e-14
8.19364e-14
8.50682e-14
8.82811e-14
9.15798e-14
9.49691e-14
9.84542e-14
1.02041e-13
1.05735e-13
1.09544e-13
1.13473e-13
1.1753e-13
1.21722e-13
1.26056e-13
1.3054e-13
1.35184e-13
1.39998e-13
1.44994e-13
1.50185e-13
1.55591e-13
1.61234e-13
1.67142e-13
1.73348e-13
1.79894e-13
1.86826e-13
1.94199e-13
2.02068e-13
2.10492e-13
2.1953e-13
2.29237e-13
2.39668e-13
2.50893e-13
2.63013e-13
2.76225e-13
2.9095e-13
3.08001e-13
3.27273e-13
3.51566e-13
3.88143e-13
4.47848e-13
5.11434e-13
5.66791e-13
1.66378e-12
2.08143e-12
2.21173e-12
2.26989e-12
2.2976e-12
2.31085e-12
2.31726e-12
2.32055e-12
2.32147e-12
2.32237e-12
2.3292e-12
2.30209e-12
2.43801e-12
1.95346e-12
9.74416e-12
1.17818e-12
1.42187e-14
1.44114e-17
9.75624e-18
9.74214e-18
9.13865e-18
8.88167e-18
8.0973e-18
7.63936e-18
6.72935e-18
6.28294e-18
5.69266e-18
5.56284e-18
5.15003e-18
4.98594e-18
4.53546e-18
4.27627e-18
3.76672e-18
3.51291e-18
3.18464e-18
3.1111e-18
2.89572e-18
2.82067e-18
2.60425e-18
2.50593e-18
2.26889e-18
)
;

boundaryField
{
    inlet
    {
        type            cyclic;
        value           nonuniform List<scalar> 
120
(
-6.0053e-28
-1.80273e-27
-3.01131e-27
-4.18638e-27
-5.37137e-27
-6.56443e-27
-7.78782e-27
-8.92079e-27
-1.00605e-26
-1.13315e-26
-1.25924e-26
-1.38348e-26
-1.52359e-26
-1.66229e-26
-1.80359e-26
-1.94774e-26
-2.09497e-26
-2.24555e-26
-2.39972e-26
-2.55777e-26
-2.71995e-26
-2.88657e-26
-3.05775e-26
-3.19943e-26
-3.4401e-26
-3.652e-26
-3.88979e-26
-4.08156e-26
-4.30029e-26
-4.57239e-26
-4.78335e-26
-4.9274e-26
-5.12792e-26
-5.33728e-26
-5.55539e-26
-5.72336e-26
-5.98284e-26
-6.4048e-26
-6.55783e-26
-7.0798e-26
-7.15143e-26
-7.61359e-26
-7.84408e-26
-8.16024e-26
-8.40757e-26
-9.02874e-26
-9.18873e-26
-9.62344e-26
-9.67321e-26
-1.02587e-25
-1.06675e-25
-1.10885e-25
-1.15224e-25
-1.19684e-25
-1.23092e-25
-1.29224e-25
-1.34297e-25
-1.39487e-25
-1.47505e-25
-1.49681e-25
-1.54662e-25
-1.59749e-25
-1.64925e-25
-1.70206e-25
-1.78995e-25
-1.76875e-25
-1.85973e-25
-1.91551e-25
-1.97138e-25
-2.02731e-25
-2.12834e-25
-2.13233e-25
-2.18302e-25
-2.23917e-25
-2.32121e-25
-2.49632e-25
-2.90315e-25
-3.68656e-25
-6.47627e-25
-1.78715e-23
-2.26883e-23
-2.72295e-23
-3.26673e-23
-3.91407e-23
-4.66866e-23
-5.5314e-23
-4.63305e-23
-3.84084e-23
-3.15281e-23
-2.5673e-23
-2.08552e-23
-1.70964e-23
-1.46435e-23
-1.43722e-23
-1.36483e-23
-1.28981e-23
-1.21678e-23
-1.1458e-23
-1.07689e-23
-1.01007e-23
-9.4534e-24
-8.82697e-24
-8.22109e-24
-7.63532e-24
-7.06904e-24
-6.52149e-24
-5.99178e-24
-5.4789e-24
-4.98178e-24
-4.49925e-24
-4.03013e-24
-3.57317e-24
-3.12712e-24
-2.6907e-24
-2.26262e-24
-1.84161e-24
-1.42636e-24
-1.0156e-24
-6.08045e-25
-2.02406e-25
)
;
    }
    outlet
    {
        type            cyclic;
        value           nonuniform List<scalar> 
120
(
6.0053e-28
1.80273e-27
3.01131e-27
4.18638e-27
5.37137e-27
6.56443e-27
7.78782e-27
8.92079e-27
1.00605e-26
1.13315e-26
1.25924e-26
1.38348e-26
1.52359e-26
1.66229e-26
1.80359e-26
1.94774e-26
2.09497e-26
2.24555e-26
2.39972e-26
2.55777e-26
2.71995e-26
2.88657e-26
3.05775e-26
3.19943e-26
3.4401e-26
3.652e-26
3.88979e-26
4.08156e-26
4.30029e-26
4.57239e-26
4.78335e-26
4.9274e-26
5.12792e-26
5.33728e-26
5.55539e-26
5.72336e-26
5.98284e-26
6.4048e-26
6.55783e-26
7.0798e-26
7.15143e-26
7.61359e-26
7.84408e-26
8.16024e-26
8.40757e-26
9.02874e-26
9.18873e-26
9.62344e-26
9.67321e-26
1.02587e-25
1.06675e-25
1.10885e-25
1.15224e-25
1.19684e-25
1.23092e-25
1.29224e-25
1.34297e-25
1.39487e-25
1.47505e-25
1.49681e-25
1.54662e-25
1.59749e-25
1.64925e-25
1.70206e-25
1.78995e-25
1.76875e-25
1.85973e-25
1.91551e-25
1.97138e-25
2.02731e-25
2.12834e-25
2.13233e-25
2.18302e-25
2.23917e-25
2.32121e-25
2.49632e-25
2.90315e-25
3.68656e-25
6.47627e-25
1.78715e-23
2.26883e-23
2.72295e-23
3.26673e-23
3.91407e-23
4.66866e-23
5.5314e-23
4.63305e-23
3.84084e-23
3.15281e-23
2.5673e-23
2.08552e-23
1.70964e-23
1.46435e-23
1.43722e-23
1.36483e-23
1.28981e-23
1.21678e-23
1.1458e-23
1.07689e-23
1.01007e-23
9.4534e-24
8.82697e-24
8.22109e-24
7.63532e-24
7.06904e-24
6.52149e-24
5.99178e-24
5.4789e-24
4.98178e-24
4.49925e-24
4.03013e-24
3.57317e-24
3.12712e-24
2.6907e-24
2.26262e-24
1.84161e-24
1.42636e-24
1.0156e-24
6.08045e-25
2.02406e-25
)
;
    }
    top
    {
        type            fixedValue;
        value           uniform 0;
    }
    bottom
    {
        type            fixedValue;
        value           uniform 0;
    }
    frontAndBackPlanes
    {
        type            empty;
        value           nonuniform List<scalar> 0();
    }
}


// ************************************************************************* //
