/*--------------------------------*- C++ -*----------------------------------*\
| =========                 |                                                 |
| \\      /  F ield         | OpenFOAM: The Open Source CFD Toolbox           |
|  \\    /   O peration     | Version:  v2006                                 |
|   \\  /    A nd           | Website:  www.openfoam.com                      |
|    \\/     M anipulation  |                                                 |
\*---------------------------------------------------------------------------*/
FoamFile
{
    version     2.0;
    format      ascii;
    class       volTensorField;
    location    "1160";
    object      Taua;
}
// * * * * * * * * * * * * * * * * * * * * * * * * * * * * * * * * * * * * * //

dimensions      [1 -1 -2 0 0 0 0];


internalField   nonuniform List<tensor> 
120
(
(0.00202623 0 0 8.41136e-15 -0.00405247 0 0 0 0.00202623)
(0.00205128 0 0 8.42449e-15 -0.00410255 0 0 0 0.00205128)
(0.00208391 0 0 8.34279e-15 -0.00416782 0 0 0 0.00208391)
(0.00211563 0 0 8.27346e-15 -0.00423127 0 0 0 0.00211563)
(0.00214766 0 0 8.3229e-15 -0.00429533 0 0 0 0.00214766)
(0.00218068 0 0 8.38504e-15 -0.00436137 0 0 0 0.00218068)
(0.00221466 0 0 8.24768e-15 -0.00442932 0 0 0 0.00221466)
(0.00224957 0 0 8.12352e-15 -0.00449915 0 0 0 0.00224957)
(0.00228546 0 0 8.43766e-15 -0.00457092 0 0 0 0.00228546)
(0.00232237 0 0 8.76566e-15 -0.00464474 0 0 0 0.00232237)
(0.00236033 0 0 8.89548e-15 -0.00472067 0 0 0 0.00236033)
(0.00239941 0 0 9.2523e-15 -0.00479881 0 0 0 0.00239941)
(0.00243964 0 0 9.62421e-15 -0.00487927 0 0 0 0.00243964)
(0.00248108 0 0 9.79934e-15 -0.00496216 0 0 0 0.00248108)
(0.0025238 0 0 9.99056e-15 -0.0050476 0 0 0 0.0025238)
(0.00256787 0 0 1.01984e-14 -0.00513573 0 0 0 0.00256787)
(0.00261335 0 0 1.04235e-14 -0.0052267 0 0 0 0.00261335)
(0.00266034 0 0 1.06663e-14 -0.00532068 0 0 0 0.00266034)
(0.00270891 0 0 1.09276e-14 -0.00541783 0 0 0 0.00270891)
(0.00275917 0 0 1.12079e-14 -0.00551833 0 0 0 0.00275917)
(0.00281119 0 0 1.1508e-14 -0.00562238 0 0 0 0.00281119)
(0.00286508 0 0 1.18285e-14 -0.00573015 0 0 0 0.00286508)
(0.00292093 0 0 1.21701e-14 -0.00584185 0 0 0 0.00292093)
(0.00297884 0 0 1.33822e-14 -0.00595768 0 0 0 0.00297884)
(0.00303891 0 0 1.46169e-14 -0.00607782 0 0 0 0.00303891)
(0.00310124 0 0 1.5026e-14 -0.00620248 0 0 0 0.00310124)
(0.00316592 0 0 1.50347e-14 -0.00633184 0 0 0 0.00316592)
(0.00323306 0 0 1.50679e-14 -0.00646612 0 0 0 0.00323306)
(0.00330277 0 0 1.55507e-14 -0.00660554 0 0 0 0.00330277)
(0.00337516 0 0 1.5211e-14 -0.00675033 0 0 0 0.00337516)
(0.00345038 0 0 1.40494e-14 -0.00690076 0 0 0 0.00345038)
(0.00352857 0 0 1.37633e-14 -0.00705714 0 0 0 0.00352857)
(0.00360992 0 0 1.43533e-14 -0.00721985 0 0 0 0.00360992)
(0.00369466 0 0 1.49709e-14 -0.00738933 0 0 0 0.00369466)
(0.00378305 0 0 1.56057e-14 -0.00756611 0 0 0 0.00378305)
(0.00387541 3.68135e-17 0 1.71171e-14 -0.00775083 0 0 0 0.00387541)
(0.00397211 0 0 1.95258e-14 -0.00794422 0 0 0 0.00397211)
(0.00407357 0 0 2.0266e-14 -0.00814713 0 0 0 0.00407357)
(0.00418026 0 0 2.1022e-14 -0.00836052 0 0 0 0.00418026)
(0.00429271 0 0 2.09555e-14 -0.00858542 0 0 0 0.00429271)
(0.00441147 0 0 2.09142e-14 -0.00882295 0 0 0 0.00441147)
(0.00453713 0 0 2.17446e-14 -0.00907426 0 0 0 0.00453713)
(0.00467025 0 0 2.17487e-14 -0.0093405 0 0 0 0.00467025)
(0.0048114 0 0 2.26206e-14 -0.00962281 0 0 0 0.0048114)
(0.00496111 0 0 2.43578e-14 -0.00992222 0 0 0 0.00496111)
(0.00511987 0 0 2.44123e-14 -0.0102397 0 0 0 0.00511987)
(0.00528811 0 0 2.36291e-14 -0.0105762 0 0 0 0.00528811)
(0.00546628 0 0 2.37017e-14 -0.0109326 0 0 0 0.00546628)
(0.00565483 0 0 2.5475e-14 -0.0113097 0 0 0 0.00565483)
(0.00585434 0 0 2.80958e-14 -0.0117087 0 0 0 0.00585434)
(0.00606562 0 0 2.90143e-14 -0.0121312 0 0 0 0.00606562)
(0.00628988 0 0 2.99225e-14 -0.0125798 0 0 0 0.00628988)
(0.0065289 0 0 3.0816e-14 -0.0130578 0 0 0 0.0065289)
(0.00678529 0 0 3.16903e-14 -0.0135706 0 0 0 0.00678529)
(0.00706268 0 0 3.33909e-14 -0.0141254 0 0 0 0.00706268)
(0.00736594 0 0 3.50638e-14 -0.0147319 0 0 0 0.00736594)
(0.00770128 0 0 3.58569e-14 -0.0154026 0 0 0 0.00770128)
(0.00807627 0 0 3.66379e-14 -0.0161525 0 0 0 0.00807627)
(0.00849959 -1.47254e-16 0 3.56786e-14 -0.0169992 0 0 0 0.00849959)
(0.00898063 0 0 3.46424e-14 -0.0179613 0 0 0 0.00898063)
(0.00952876 0 0 3.52811e-14 -0.0190575 0 0 0 0.00952876)
(0.0101524 0 0 3.59203e-14 -0.0203048 0 0 0 0.0101524)
(0.010858 0 0 3.65447e-14 -0.021716 0 0 0 0.010858)
(0.0116493 0 0 3.71546e-14 -0.0232985 0 0 0 0.0116493)
(0.0125271 0 0 3.60246e-14 -0.0250541 0 0 0 0.0125271)
(0.0134916 0 0 3.65712e-14 -0.0269832 0 0 0 0.0134916)
(0.0145467 0 0 3.87399e-14 -0.0290935 0 0 0 0.0145467)
(0.0157065 0 0 3.90168e-14 -0.0314129 0 0 0 0.0157065)
(0.0170202 0 0 3.90527e-14 -0.0340404 0 0 0 0.0170202)
(0.0186736 0 0 3.88402e-14 -0.0373472 0 0 0 0.0186736)
(0.0210566 0 0 3.67552e-14 -0.0421133 0 0 0 0.0210566)
(0.0242981 0 0 3.52353e-14 -0.0485962 0 0 0 0.0242981)
(0.0282932 0 0 3.74527e-14 -0.0565863 0 0 0 0.0282932)
(0.0353528 0 0 4.82577e-14 -0.0707055 0 0 0 0.0353528)
(0.0357347 0 0 6.15631e-14 -0.0714694 0 0 0 0.0357347)
(0.0251347 0 0 6.5448e-14 -0.0502694 0 0 0 0.0251347)
(0.0169828 0 0 6.63956e-14 -0.0339656 0 0 0 0.0169828)
(0.00798884 0 0 3.28034e-14 -0.0159777 0 0 0 0.00798884)
(6.68613e-07 0 0 3.39232e-17 -1.33723e-06 0 0 0 6.68613e-07)
(4.2681e-07 0 0 4.06136e-17 -8.5362e-07 0 0 0 4.2681e-07)
(1.64254e-07 0 0 1.67276e-17 -3.28509e-07 0 0 0 1.64254e-07)
(3.75794e-07 0 0 1.76414e-17 -7.51588e-07 0 0 0 3.75794e-07)
(1.30874e-07 0 0 2.09467e-17 -2.61749e-07 0 0 0 1.30874e-07)
(6.06506e-08 0 0 2.45916e-17 -1.21301e-07 0 0 0 6.06506e-08)
(3.27314e-08 0 0 2.84889e-17 -6.54629e-08 0 0 0 3.27314e-08)
(5.94817e-10 0 0 -6.23472e-19 -1.18963e-09 0 0 0 5.94817e-10)
(9.25875e-10 0 0 -2.97442e-17 -1.85175e-09 0 0 0 9.25875e-10)
(1.73361e-07 0 0 -2.59105e-17 -3.46722e-07 0 0 0 1.73361e-07)
(1.55373e-07 0 0 -2.22899e-17 -3.10747e-07 0 0 0 1.55373e-07)
(-2.74554e-06 0 0 -1.86632e-17 5.49108e-06 0 0 0 -2.74554e-06)
(-2.9715e-06 0 0 -1.50576e-17 5.943e-06 0 0 0 -2.9715e-06)
(5.29935e-05 0 0 -1.03144e-17 -0.000105987 0 0 0 5.29935e-05)
(3.73316e-05 0 0 -5.19027e-18 -7.46632e-05 0 0 0 3.73316e-05)
(-1.03458e-06 0 0 -1.26437e-19 2.06915e-06 0 0 0 -1.03458e-06)
(8.36928e-09 0 0 -1.03434e-21 -1.67386e-08 0 0 0 8.36928e-09)
(9.09988e-14 0 0 -5.23373e-25 -1.81998e-13 0 0 0 9.09988e-14)
(-1.73256e-18 0 0 -3.2654e-31 3.46513e-18 0 0 0 -1.73256e-18)
(-2.19743e-26 0 0 -7.90108e-38 4.39487e-26 0 0 0 -2.19743e-26)
(-9.73363e-34 0 0 -2.20778e-44 1.94673e-33 0 0 0 -9.73363e-34)
(1.71193e-40 0 0 -5.97943e-51 -3.42386e-40 0 0 0 1.71193e-40)
(6.90399e-48 0 0 -1.39999e-57 -1.3808e-47 0 0 0 6.90399e-48)
(-5.7844e-55 0 0 -2.60934e-64 1.15688e-54 0 0 0 -5.7844e-55)
(-2.09364e-62 0 0 -4.11809e-71 4.18728e-62 0 0 0 -2.09364e-62)
(9.12028e-70 0 0 -5.54673e-78 -1.82406e-69 0 0 0 9.12028e-70)
(4.23079e-77 0 0 -8.33996e-85 -8.46158e-77 0 0 0 4.23079e-77)
(-2.05936e-84 0 0 -1.81572e-91 4.11873e-84 0 0 0 -2.05936e-84)
(-2.60406e-91 0 0 -5.57783e-98 5.20812e-91 0 0 0 -2.60406e-91)
(1.55879e-98 0 0 -1.71522e-104 -3.11758e-98 0 0 0 1.55879e-98)
(3.09261e-105 0 0 -4.876e-111 -6.18521e-105 0 0 0 3.09261e-105)
(2.14709e-112 0 0 -1.17334e-117 -4.29418e-112 0 0 0 2.14709e-112)
(4.99481e-119 0 0 -2.47367e-124 -9.98963e-119 0 0 0 4.99481e-119)
(9.34864e-126 0 0 -4.29503e-131 -1.86973e-125 0 0 0 9.34864e-126)
(1.05314e-132 0 0 -6.533e-138 -2.10628e-132 0 0 0 1.05314e-132)
(-7.32358e-140 0 0 -8.50868e-145 1.46472e-139 0 0 0 -7.32358e-140)
(-2.52557e-146 0 0 -1.02296e-151 5.05114e-146 0 0 0 -2.52557e-146)
(-6.78311e-152 0 0 -1.08467e-158 1.35662e-151 0 0 0 -6.78311e-152)
(-3.58131e-156 0 0 -1.06197e-165 7.16261e-156 0 0 0 -3.58131e-156)
(-7.2844e-163 0 0 -9.13258e-173 1.45688e-162 0 0 0 -7.2844e-163)
(-4.18674e-169 0 0 -7.20044e-180 8.37348e-169 0 0 0 -4.18674e-169)
(-2.77261e-173 0 0 -4.92167e-187 5.54521e-173 0 0 0 -2.77261e-173)
)
;

boundaryField
{
    inlet
    {
        type            cyclic;
    }
    outlet
    {
        type            cyclic;
    }
    top
    {
        type            extrapolatedCalculated;
        value           uniform (-5.53993e-173 0 0 -4.91652e-187 1.10799e-172 0 0 0 -5.53993e-173);
    }
    bottom
    {
        type            extrapolatedCalculated;
        value           uniform (0.00201787 0 0 8.40742e-15 -0.00403573 0 0 0 0.00201787);
    }
    frontAndBackPlanes
    {
        type            empty;
    }
}


// ************************************************************************* //
