/*--------------------------------*- C++ -*----------------------------------*\
| =========                 |                                                 |
| \\      /  F ield         | OpenFOAM: The Open Source CFD Toolbox           |
|  \\    /   O peration     | Version:  v2006                                 |
|   \\  /    A nd           | Website:  www.openfoam.com                      |
|    \\/     M anipulation  |                                                 |
\*---------------------------------------------------------------------------*/
FoamFile
{
    version     2.0;
    format      ascii;
    class       volTensorField;
    location    "1160";
    object      Taub;
}
// * * * * * * * * * * * * * * * * * * * * * * * * * * * * * * * * * * * * * //

dimensions      [1 -1 -2 0 0 0 0];


internalField   nonuniform List<tensor> 
120
(
(-1.44612e-07 0 0 4.00122e-19 2.89224e-07 0 0 0 -1.44612e-07)
(-1.45957e-07 0 0 4.0135e-19 2.91913e-07 0 0 0 -1.45957e-07)
(-1.47944e-07 0 0 3.96809e-19 2.95889e-07 0 0 0 -1.47944e-07)
(-1.50105e-07 0 0 3.92857e-19 3.00209e-07 0 0 0 -1.50105e-07)
(-1.52308e-07 0 0 3.95827e-19 3.04616e-07 0 0 0 -1.52308e-07)
(-1.54564e-07 0 0 4.02194e-19 3.09129e-07 0 0 0 -1.54564e-07)
(-1.56879e-07 0 0 3.92168e-19 3.13758e-07 0 0 0 -1.56879e-07)
(-1.59257e-07 0 0 3.78216e-19 3.18514e-07 0 0 0 -1.59257e-07)
(-1.617e-07 0 0 4.01154e-19 3.234e-07 0 0 0 -1.617e-07)
(-1.64211e-07 0 0 4.21301e-19 3.28422e-07 0 0 0 -1.64211e-07)
(-1.66792e-07 0 0 4.16522e-19 3.33584e-07 0 0 0 -1.66792e-07)
(-1.69446e-07 0 0 4.39812e-19 3.38892e-07 0 0 0 -1.69446e-07)
(-1.72177e-07 0 0 4.63836e-19 3.44355e-07 0 0 0 -1.72177e-07)
(-1.74989e-07 0 0 4.65779e-19 3.49979e-07 0 0 0 -1.74989e-07)
(-1.77886e-07 0 0 4.74806e-19 3.55772e-07 0 0 0 -1.77886e-07)
(-1.80872e-07 0 0 4.84649e-19 3.61743e-07 0 0 0 -1.80872e-07)
(-1.83952e-07 0 0 4.95307e-19 3.67903e-07 0 0 0 -1.83952e-07)
(-1.87131e-07 0 0 5.06809e-19 3.74262e-07 0 0 0 -1.87131e-07)
(-1.90415e-07 0 0 5.19184e-19 3.80831e-07 0 0 0 -1.90415e-07)
(-1.93811e-07 0 0 5.32462e-19 3.87621e-07 0 0 0 -1.93811e-07)
(-1.97323e-07 0 0 5.46673e-19 3.94646e-07 0 0 0 -1.97323e-07)
(-2.00958e-07 0 0 5.61597e-19 4.01917e-07 0 0 0 -2.00958e-07)
(-2.04723e-07 0 0 5.20095e-19 4.09447e-07 0 0 0 -2.04723e-07)
(-2.08624e-07 0 0 6.35551e-19 4.17249e-07 0 0 0 -2.08624e-07)
(-2.12668e-07 0 0 7.52203e-19 4.25335e-07 0 0 0 -2.12668e-07)
(-2.16859e-07 0 0 7.4736e-19 4.33718e-07 0 0 0 -2.16859e-07)
(-2.21205e-07 0 0 7.13846e-19 4.42409e-07 0 0 0 -2.21205e-07)
(-2.25712e-07 0 0 6.82097e-19 4.51423e-07 0 0 0 -2.25712e-07)
(-2.30386e-07 0 0 8.15508e-19 4.60773e-07 0 0 0 -2.30386e-07)
(-2.35237e-07 0 0 8.02534e-19 4.70474e-07 0 0 0 -2.35237e-07)
(-2.40272e-07 0 0 5.89744e-19 4.80543e-07 0 0 0 -2.40272e-07)
(-2.45501e-07 0 0 5.72334e-19 4.91002e-07 0 0 0 -2.45501e-07)
(-2.50937e-07 0 0 6.80749e-19 5.01874e-07 0 0 0 -2.50937e-07)
(-2.56594e-07 0 0 7.09893e-19 5.13187e-07 0 0 0 -2.56594e-07)
(-2.62489e-07 0 0 6.41084e-19 5.24977e-07 0 0 0 -2.62489e-07)
(-2.68643e-07 -3.49274e-21 0 7.09717e-19 5.37286e-07 0 0 0 -2.68643e-07)
(-2.75081e-07 0 0 1.1313e-18 5.50161e-07 0 0 0 -2.75081e-07)
(-2.8183e-07 0 0 9.54462e-19 5.63659e-07 0 0 0 -2.8183e-07)
(-2.88921e-07 0 0 1.12036e-18 5.77842e-07 0 0 0 -2.88921e-07)
(-2.96389e-07 0 0 9.85131e-19 5.92778e-07 0 0 0 -2.96389e-07)
(-3.04269e-07 0 0 8.85767e-19 6.08539e-07 0 0 0 -3.04269e-07)
(-3.12598e-07 0 0 1.14924e-18 6.25196e-07 0 0 0 -3.12598e-07)
(-3.21411e-07 0 0 9.06877e-19 6.42822e-07 0 0 0 -3.21411e-07)
(-3.30744e-07 0 0 9.34696e-19 6.61488e-07 0 0 0 -3.30744e-07)
(-3.4063e-07 0 0 1.44045e-18 6.8126e-07 0 0 0 -3.4063e-07)
(-3.51098e-07 0 0 1.29542e-18 7.02197e-07 0 0 0 -3.51098e-07)
(-3.62176e-07 0 0 9.86054e-19 7.24352e-07 0 0 0 -3.62176e-07)
(-3.73889e-07 0 0 8.0318e-19 7.47777e-07 0 0 0 -3.73889e-07)
(-3.86263e-07 0 0 1.05292e-18 7.72526e-07 0 0 0 -3.86263e-07)
(-3.99334e-07 0 0 1.64783e-18 7.98668e-07 0 0 0 -3.99334e-07)
(-4.13153e-07 0 0 1.37511e-18 8.26306e-07 0 0 0 -4.13153e-07)
(-4.27801e-07 0 0 1.41644e-18 8.55602e-07 0 0 0 -4.27801e-07)
(-4.43398e-07 0 0 1.45759e-18 8.86797e-07 0 0 0 -4.43398e-07)
(-4.6012e-07 0 0 1.30312e-18 9.20239e-07 0 0 0 -4.6012e-07)
(-4.78209e-07 0 0 1.57977e-18 9.56418e-07 0 0 0 -4.78209e-07)
(-4.97989e-07 0 0 1.85501e-18 9.95978e-07 0 0 0 -4.97989e-07)
(-5.19865e-07 0 0 1.69875e-18 1.03973e-06 0 0 0 -5.19865e-07)
(-5.44319e-07 0 0 2.18591e-18 1.08864e-06 0 0 0 -5.44319e-07)
(-5.71902e-07 6.96104e-21 0 1.6866e-18 1.1438e-06 0 0 0 -5.71902e-07)
(-6.03201e-07 0 0 1.18389e-18 1.2064e-06 0 0 0 -6.03201e-07)
(-6.38782e-07 0 0 1.66496e-18 1.27756e-06 0 0 0 -6.38782e-07)
(-6.79125e-07 0 0 1.69679e-18 1.35825e-06 0 0 0 -6.79125e-07)
(-7.24566e-07 0 0 1.72845e-18 1.44913e-06 0 0 0 -7.24566e-07)
(-7.75245e-07 0 0 2.3248e-18 1.55049e-06 0 0 0 -7.75245e-07)
(-8.31119e-07 0 0 1.10159e-18 1.66224e-06 0 0 0 -8.31119e-07)
(-8.92095e-07 0 0 1.15232e-18 1.78419e-06 0 0 0 -8.92095e-07)
(-9.58459e-07 0 0 2.42269e-18 1.91692e-06 0 0 0 -9.58459e-07)
(-1.03192e-06 0 0 1.84224e-18 2.06383e-06 0 0 0 -1.03192e-06)
(-1.11715e-06 0 0 1.84394e-18 2.2343e-06 0 0 0 -1.11715e-06)
(-1.22326e-06 0 0 2.58774e-18 2.44652e-06 0 0 0 -1.22326e-06)
(-1.36921e-06 0 0 1.73034e-18 2.73843e-06 0 0 0 -1.36921e-06)
(-1.5543e-06 0 0 9.00306e-19 3.10859e-06 0 0 0 -1.5543e-06)
(-1.84288e-06 0 0 1.75802e-18 3.68577e-06 0 0 0 -1.84288e-06)
(-2.48804e-06 0 0 2.27168e-18 4.97608e-06 0 0 0 -2.48804e-06)
(-3.78582e-06 0 0 4.22297e-18 7.57164e-06 0 0 0 -3.78582e-06)
(-4.90531e-06 0 0 9.54634e-18 9.81062e-06 0 0 0 -4.90531e-06)
(-1.92792e-06 0 0 1.95038e-17 3.85583e-06 0 0 0 -1.92792e-06)
(-3.7722e-05 0 0 5.84344e-17 7.54439e-05 0 0 0 -3.7722e-05)
(-7.60398e-05 0 0 2.78171e-15 0.00015208 0 0 0 -7.60398e-05)
(-6.54805e-05 0 0 3.39339e-15 0.000130961 0 0 0 -6.54805e-05)
(-1.22234e-05 0 0 1.42027e-15 2.44469e-05 0 0 0 -1.22234e-05)
(1.88329e-05 0 0 1.50515e-15 -3.76658e-05 0 0 0 1.88329e-05)
(4.91705e-06 0 0 1.79132e-15 -9.8341e-06 0 0 0 4.91705e-06)
(2.17387e-06 0 0 2.10538e-15 -4.34773e-06 0 0 0 2.17387e-06)
(1.34717e-06 0 0 2.42724e-15 -2.69434e-06 0 0 0 1.34717e-06)
(-6.81751e-07 0 0 -5.34197e-17 1.3635e-06 0 0 0 -6.81751e-07)
(-1.92429e-07 0 0 -2.53583e-15 3.84858e-07 0 0 0 -1.92429e-07)
(1.45666e-05 0 0 -2.22038e-15 -2.91331e-05 0 0 0 1.45666e-05)
(1.31046e-05 0 0 -1.91021e-15 -2.62092e-05 0 0 0 1.31046e-05)
(-0.000232219 0 0 -1.60005e-15 0.000464438 0 0 0 -0.000232219)
(-0.000271061 0 0 -1.28864e-15 0.000542121 0 0 0 -0.000271061)
(0.00465952 0 0 -9.05161e-16 -0.00931904 0 0 0 0.00465952)
(0.000638049 0 0 -4.28715e-16 -0.0012761 0 0 0 0.000638049)
(-0.00262224 0 0 -7.23707e-17 0.00524448 0 0 0 -0.00262224)
(-0.00014141 0 0 -9.83144e-17 0.000282821 0 0 0 -0.00014141)
(0.000443795 0 0 -9.86874e-17 -0.000887589 0 0 0 0.000443795)
(3.22352e-05 0 0 -9.59924e-17 -6.44704e-05 0 0 0 3.22352e-05)
(-3.34758e-05 0 0 -9.32484e-17 6.69516e-05 0 0 0 -3.34758e-05)
(-3.91066e-06 0 0 -9.04759e-17 7.82131e-06 0 0 0 -3.91066e-06)
(2.46305e-06 0 0 -8.7688e-17 -4.9261e-06 0 0 0 2.46305e-06)
(4.08467e-07 0 0 -8.49033e-17 -8.16934e-07 0 0 0 4.08467e-07)
(-1.76187e-07 0 0 -8.2144e-17 3.52374e-07 0 0 0 -1.76187e-07)
(-3.93745e-08 0 0 -7.94332e-17 7.87489e-08 0 0 0 -3.93745e-08)
(1.22042e-08 0 0 -7.67935e-17 -2.44083e-08 0 0 0 1.22042e-08)
(3.66768e-09 0 0 -7.42458e-17 -7.33536e-09 0 0 0 3.66768e-09)
(-7.85211e-10 0 0 -7.18086e-17 1.57042e-09 0 0 0 -7.85211e-10)
(-3.15501e-10 0 0 -6.94974e-17 6.31001e-10 0 0 0 -3.15501e-10)
(5.89442e-11 0 0 -6.73251e-17 -1.17888e-10 0 0 0 5.89442e-11)
(4.02479e-11 0 0 -6.53017e-17 -8.04959e-11 0 0 0 4.02479e-11)
(1.13183e-11 0 0 -6.34351e-17 -2.26366e-11 0 0 0 1.13183e-11)
(1.20965e-11 0 0 -6.17309e-17 -2.4193e-11 0 0 0 1.20965e-11)
(1.27102e-11 0 0 -6.01931e-17 -2.54204e-11 0 0 0 1.27102e-11)
(9.24289e-12 0 0 -5.88243e-17 -1.84858e-11 0 0 0 9.24289e-12)
(6.18718e-12 0 0 -5.7626e-17 -1.23744e-11 0 0 0 6.18718e-12)
(5.19908e-12 0 0 -5.65991e-17 -1.03982e-11 0 0 0 5.19908e-12)
(5.61737e-12 0 0 -5.57438e-17 -1.12347e-11 0 0 0 5.61737e-12)
(5.84864e-12 0 0 -5.50601e-17 -1.16973e-11 0 0 0 5.84864e-12)
(1.44638e-12 0 0 -5.45477e-17 -2.89275e-12 0 0 0 1.44638e-12)
(2.97116e-12 0 0 -5.42063e-17 -5.94232e-12 0 0 0 2.97116e-12)
(9.2675e-11 0 0 -5.40233e-17 -1.8535e-10 0 0 0 9.2675e-11)
)
;

boundaryField
{
    inlet
    {
        type            cyclic;
    }
    outlet
    {
        type            cyclic;
    }
    top
    {
        type            extrapolatedCalculated;
        value           uniform (1.76529e-10 0 0 -5.39683e-17 -3.53058e-10 0 0 0 1.76529e-10);
    }
    bottom
    {
        type            extrapolatedCalculated;
        value           uniform (-1.44179e-07 0 0 3.99931e-19 2.88359e-07 0 0 0 -1.44179e-07);
    }
    frontAndBackPlanes
    {
        type            empty;
    }
}


// ************************************************************************* //
