/*--------------------------------*- C++ -*----------------------------------*\
| =========                 |                                                 |
| \\      /  F ield         | OpenFOAM: The Open Source CFD Toolbox           |
|  \\    /   O peration     | Version:  v2006                                 |
|   \\  /    A nd           | Website:  www.openfoam.com                      |
|    \\/     M anipulation  |                                                 |
\*---------------------------------------------------------------------------*/
FoamFile
{
    version     2.0;
    format      ascii;
    class       volVectorField;
    location    "1160";
    object      Ua;
}
// * * * * * * * * * * * * * * * * * * * * * * * * * * * * * * * * * * * * * //

dimensions      [0 1 -1 0 0 0 0];


internalField   nonuniform List<vector> 
120
(
(2.00177e-21 -1.44133e-09 0)
(6.00905e-21 -4.3479e-09 0)
(1.00251e-20 -7.30212e-09 0)
(1.39546e-20 -1.03019e-08 0)
(1.79046e-20 -1.33468e-08 0)
(2.18811e-20 -1.64381e-08 0)
(2.58903e-20 -1.95773e-08 0)
(2.97361e-20 -2.27657e-08 0)
(3.3627e-20 -2.60047e-08 0)
(3.77719e-20 -2.92956e-08 0)
(4.19752e-20 -3.264e-08 0)
(4.62438e-20 -3.60394e-08 0)
(5.07869e-20 -3.94954e-08 0)
(5.54097e-20 -4.30098e-08 0)
(6.01196e-20 -4.65842e-08 0)
(6.49245e-20 -5.02206e-08 0)
(6.98324e-20 -5.3921e-08 0)
(7.48516e-20 -5.76873e-08 0)
(7.99908e-20 -6.15219e-08 0)
(8.52589e-20 -6.54271e-08 0)
(9.0665e-20 -6.94053e-08 0)
(9.62189e-20 -7.34591e-08 0)
(1.0193e-19 -7.75912e-08 0)
(1.07809e-19 -8.18046e-08 0)
(1.14675e-19 -8.61022e-08 0)
(1.2173e-19 -9.04872e-08 0)
(1.28986e-19 -9.49628e-08 0)
(1.36049e-19 -9.95326e-08 0)
(1.43336e-19 -1.042e-07 0)
(1.50859e-19 -1.08969e-07 0)
(1.57823e-19 -1.13843e-07 0)
(1.6424e-19 -1.18827e-07 0)
(1.70931e-19 -1.23925e-07 0)
(1.77909e-19 -1.29141e-07 0)
(1.85189e-19 -1.34481e-07 0)
(1.92772e-19 -1.3995e-07 0)
(2.01491e-19 -1.45554e-07 0)
(2.11368e-19 -1.51299e-07 0)
(2.20792e-19 -1.57193e-07 0)
(2.31389e-19 -1.63243e-07 0)
(2.40749e-19 -1.69457e-07 0)
(2.51307e-19 -1.75847e-07 0)
(2.61458e-19 -1.82421e-07 0)
(2.7202e-19 -1.8919e-07 0)
(2.83002e-19 -1.96168e-07 0)
(2.95218e-19 -2.03365e-07 0)
(3.06252e-19 -2.10796e-07 0)
(3.17722e-19 -2.18474e-07 0)
(3.28825e-19 -2.26414e-07 0)
(3.41984e-19 -2.3463e-07 0)
(3.55582e-19 -2.4314e-07 0)
(3.69617e-19 -2.51961e-07 0)
(3.8408e-19 -2.61111e-07 0)
(3.98965e-19 -2.70615e-07 0)
(4.14261e-19 -2.80498e-07 0)
(4.30766e-19 -2.90794e-07 0)
(4.47655e-19 -3.01543e-07 0)
(4.64915e-19 -3.12797e-07 0)
(4.82549e-19 -3.24618e-07 0)
(4.98895e-19 -3.37082e-07 0)
(5.15541e-19 -3.50277e-07 0)
(5.32496e-19 -3.64307e-07 0)
(5.49751e-19 -3.79284e-07 0)
(5.673e-19 -3.9533e-07 0)
(5.85136e-19 -4.12568e-07 0)
(6.0161e-19 -4.31121e-07 0)
(6.19966e-19 -4.51115e-07 0)
(6.38505e-19 -4.72684e-07 0)
(6.57125e-19 -4.95991e-07 0)
(6.75698e-19 -5.21313e-07 0)
(6.94116e-19 -5.49344e-07 0)
(7.10703e-19 -5.81474e-07 0)
(7.27673e-19 -6.18767e-07 0)
(7.46372e-19 -6.62312e-07 0)
(7.73633e-19 -7.19775e-07 0)
(8.31762e-19 -8.11008e-07 0)
(9.66758e-19 -9.42279e-07 0)
(1.22312e-18 -1.11131e-06 0)
(1.79443e-18 -1.54698e-06 0)
(5.95729e-17 -4.56147e-06 0)
(7.56277e-17 -3.87474e-06 0)
(9.07648e-17 -5.48032e-06 0)
(1.08891e-16 -6.00045e-06 0)
(1.30469e-16 -6.22453e-06 0)
(1.55622e-16 -6.3462e-06 0)
(1.84671e-16 -6.41135e-06 0)
(1.54435e-16 -6.3496e-06 0)
(1.28028e-16 -6.41664e-06 0)
(1.05094e-16 -7.33999e-06 0)
(8.55765e-17 -7.30437e-06 0)
(6.95173e-17 8.36091e-06 0)
(5.69879e-17 9.62083e-06 0)
(4.88114e-17 -0.00031079 0)
(4.79072e-17 -0.000186322 0)
(4.55003e-17 -0.000229509 0)
(4.29959e-17 -0.000305539 0)
(4.05593e-17 -0.000232086 0)
(3.81929e-17 -0.000229087 0)
(3.58961e-17 -0.000228195 0)
(3.36686e-17 -0.000228489 0)
(3.15112e-17 -0.000228572 0)
(2.94229e-17 -0.000228552 0)
(2.74035e-17 -0.000228544 0)
(2.54507e-17 -0.000228546 0)
(2.35634e-17 -0.000228546 0)
(2.1738e-17 -0.000228546 0)
(1.99725e-17 -0.000228546 0)
(1.82627e-17 -0.000228546 0)
(1.66058e-17 -0.000228546 0)
(1.49973e-17 -0.000228546 0)
(1.34336e-17 -0.000228546 0)
(1.19104e-17 -0.000228546 0)
(1.04235e-17 -0.000228546 0)
(8.96891e-18 -0.000228546 0)
(7.54192e-18 -0.000228546 0)
(6.13853e-18 -0.000228546 0)
(4.75438e-18 -0.000228546 0)
(3.38519e-18 -0.000228518 0)
(2.02666e-18 -0.000228481 0)
(6.74612e-19 -0.000228045 0)
)
;

boundaryField
{
    inlet
    {
        type            cyclic;
    }
    outlet
    {
        type            cyclic;
    }
    top
    {
        type            fixedValue;
        value           uniform (0 0 0);
    }
    bottom
    {
        type            fixedValue;
        value           uniform (0 0 0);
    }
    frontAndBackPlanes
    {
        type            empty;
    }
}


// ************************************************************************* //
