/*--------------------------------*- C++ -*----------------------------------*\
| =========                 |                                                 |
| \\      /  F ield         | OpenFOAM: The Open Source CFD Toolbox           |
|  \\    /   O peration     | Version:  v2006                                 |
|   \\  /    A nd           | Website:  www.openfoam.com                      |
|    \\/     M anipulation  |                                                 |
\*---------------------------------------------------------------------------*/
FoamFile
{
    version     2.0;
    format      ascii;
    class       volVectorField;
    location    "1160";
    object      Ub;
}
// * * * * * * * * * * * * * * * * * * * * * * * * * * * * * * * * * * * * * //

dimensions      [0 1 -1 0 0 0 0];


internalField   nonuniform List<vector> 
120
(
(2.00177e-21 2.16497e-09 0)
(6.00911e-21 6.52089e-09 0)
(1.00377e-20 1.09321e-08 0)
(1.39546e-20 1.5408e-08 0)
(1.79046e-20 1.99495e-08 0)
(2.18814e-20 2.45583e-08 0)
(2.59594e-20 2.9236e-08 0)
(2.9736e-20 3.39845e-08 0)
(3.3535e-20 3.88057e-08 0)
(3.77715e-20 4.37016e-08 0)
(4.19747e-20 4.86743e-08 0)
(4.6116e-20 5.3726e-08 0)
(5.07864e-20 5.88589e-08 0)
(5.54097e-20 6.40755e-08 0)
(6.01196e-20 6.93782e-08 0)
(6.49245e-20 7.47697e-08 0)
(6.98324e-20 8.02527e-08 0)
(7.48516e-20 8.58301e-08 0)
(7.99908e-20 9.15051e-08 0)
(8.52589e-20 9.72809e-08 0)
(9.0665e-20 1.03161e-07 0)
(9.62188e-20 1.09149e-07 0)
(1.01925e-19 1.15249e-07 0)
(1.06648e-19 1.21464e-07 0)
(1.1467e-19 1.278e-07 0)
(1.21733e-19 1.34259e-07 0)
(1.2966e-19 1.40848e-07 0)
(1.36052e-19 1.47571e-07 0)
(1.43343e-19 1.54432e-07 0)
(1.52413e-19 1.61437e-07 0)
(1.59445e-19 1.68591e-07 0)
(1.64247e-19 1.75901e-07 0)
(1.70931e-19 1.83371e-07 0)
(1.77909e-19 1.9101e-07 0)
(1.8518e-19 1.98822e-07 0)
(1.90779e-19 2.06817e-07 0)
(1.99428e-19 2.15002e-07 0)
(2.13493e-19 2.23387e-07 0)
(2.18594e-19 2.3198e-07 0)
(2.35993e-19 2.40794e-07 0)
(2.38381e-19 2.4984e-07 0)
(2.53786e-19 2.5913e-07 0)
(2.61469e-19 2.6868e-07 0)
(2.72008e-19 2.78504e-07 0)
(2.80252e-19 2.88619e-07 0)
(3.00958e-19 2.99042e-07 0)
(3.06291e-19 3.09791e-07 0)
(3.20781e-19 3.20885e-07 0)
(3.2244e-19 3.32344e-07 0)
(3.41955e-19 3.44188e-07 0)
(3.55582e-19 3.56439e-07 0)
(3.69616e-19 3.69121e-07 0)
(3.8408e-19 3.8226e-07 0)
(3.98947e-19 3.95888e-07 0)
(4.10307e-19 4.10041e-07 0)
(4.30748e-19 4.24767e-07 0)
(4.47655e-19 4.40121e-07 0)
(4.64957e-19 4.56174e-07 0)
(4.91685e-19 4.73012e-07 0)
(4.98937e-19 4.90739e-07 0)
(5.15542e-19 5.09478e-07 0)
(5.32496e-19 5.29366e-07 0)
(5.49751e-19 5.50555e-07 0)
(5.67354e-19 5.73203e-07 0)
(5.96649e-19 5.97471e-07 0)
(5.89583e-19 6.23517e-07 0)
(6.1991e-19 6.51495e-07 0)
(6.38504e-19 6.8158e-07 0)
(6.57125e-19 7.14032e-07 0)
(6.7577e-19 7.49312e-07 0)
(7.09448e-19 7.88233e-07 0)
(7.10776e-19 8.32412e-07 0)
(7.27673e-19 8.82626e-07 0)
(7.46391e-19 9.44415e-07 0)
(7.73736e-19 1.03398e-06 0)
(8.32108e-19 1.17495e-06 0)
(9.67715e-19 1.333e-06 0)
(1.22885e-18 1.2926e-06 0)
(2.15876e-18 3.63961e-06 0)
(5.95716e-17 6.07711e-06 0)
(7.56277e-17 7.89269e-06 0)
(9.07649e-17 6.8825e-06 0)
(1.08891e-16 6.64408e-06 0)
(1.30469e-16 6.55554e-06 0)
(1.55622e-16 6.49933e-06 0)
(1.8438e-16 6.46578e-06 0)
(1.54435e-16 6.54477e-06 0)
(1.28028e-16 6.47861e-06 0)
(1.05094e-16 5.57368e-06 0)
(8.55766e-17 5.60492e-06 0)
(6.95175e-17 2.10635e-05 0)
(5.69881e-17 2.36454e-05 0)
(4.88117e-17 -0.0002987 0)
(4.79074e-17 -1.68985e-05 0)
(4.54943e-17 6.19003e-05 0)
(4.29935e-17 4.30511e-06 0)
(4.05593e-17 -4.67719e-06 0)
(3.81933e-17 -5.3078e-07 0)
(3.58963e-17 3.44807e-07 0)
(3.36689e-17 5.58917e-08 0)
(3.15113e-17 -2.46966e-08 0)
(2.94232e-17 -5.38606e-09 0)
(2.74036e-17 1.73478e-09 0)
(2.54511e-17 5.20853e-10 0)
(2.35635e-17 -9.60787e-11 0)
(2.17383e-17 -2.9368e-11 0)
(1.99726e-17 2.17177e-11 0)
(1.8263e-17 1.7963e-11 0)
(1.66059e-17 1.28749e-11 0)
(1.49975e-17 1.19251e-11 0)
(1.34338e-17 1.1177e-11 0)
(1.19106e-17 1.01104e-11 0)
(1.04237e-17 9.27022e-12 0)
(8.969e-18 8.72375e-12 0)
(7.54208e-18 8.34202e-12 0)
(6.13869e-18 7.94379e-12 0)
(4.75454e-18 7.49931e-12 0)
(3.38534e-18 7.06639e-12 0)
(2.02682e-18 7.28233e-12 0)
(6.74688e-19 6.62066e-12 0)
)
;

boundaryField
{
    inlet
    {
        type            cyclic;
    }
    outlet
    {
        type            cyclic;
    }
    top
    {
        type            fixedValue;
        value           uniform (0 0 0);
    }
    bottom
    {
        type            fixedValue;
        value           uniform (0 0 0);
    }
    frontAndBackPlanes
    {
        type            empty;
    }
}


// ************************************************************************* //
