/*--------------------------------*- C++ -*----------------------------------*\
| =========                 |                                                 |
| \\      /  F ield         | OpenFOAM: The Open Source CFD Toolbox           |
|  \\    /   O peration     | Version:  2206                                  |
|   \\  /    A nd           | Website:  www.openfoam.com                      |
|    \\/     M anipulation  |                                                 |
\*---------------------------------------------------------------------------*/
FoamFile
{
    version     2.0;
    format      ascii;
    arch        "LSB;label=32;scalar=64";
    class       volScalarField;
    location    "1800";
    object      pff;
}
// * * * * * * * * * * * * * * * * * * * * * * * * * * * * * * * * * * * * * //

dimensions      [1 -1 -2 0 0 0 0];

internalField   nonuniform List<scalar> 
120
(
26.4414
25.908
25.9083
25.3309
25.3139
24.7483
24.7196
24.1658
24.1253
23.5833
23.5312
23.001
22.9372
22.4188
22.3434
21.8366
21.7497
21.2545
21.1561
20.6725
20.5627
20.0906
19.9695
19.5087
19.3766
18.9268
18.7838
18.345
18.1913
17.7632
17.599
17.1815
17.007
16.5997
16.4153
16.0179
15.8239
15.4361
15.2329
14.8543
14.6422
14.2724
14.0519
13.6905
13.462
13.1085
12.8726
12.5265
12.2836
11.9444
11.695
11.3623
11.1069
10.7801
10.5193
10.1978
9.93223
9.61557
9.34565
9.03329
8.7596
8.45101
8.1741
7.86874
7.58916
7.28651
7.00482
6.70431
6.42111
6.12216
5.8381
5.54004
5.25588
4.95794
4.67454
4.3758
4.09426
3.79359
3.51519
3.21129
2.93748
2.62902
2.36105
2.0474
1.78515
1.46832
1.20706
0.897269
0.618608
0.347932
0
0
0
0
0
0
0
0
0
0
0
0
0
0
0
0
0
0
0
0
0
0
0
0
0
0
0
0
0
0
)
;

boundaryField
{
    inlet
    {
        type            cyclic;
    }
    outlet
    {
        type            cyclic;
    }
    top
    {
        type            calculated;
        value           uniform 0;
    }
    bottom
    {
        type            calculated;
        value           uniform 26.4414;
    }
    frontAndBackPlanes
    {
        type            empty;
    }
}


// ************************************************************************* //
