/*--------------------------------*- C++ -*----------------------------------*\
| =========                 |                                                 |
| \\      /  F ield         | OpenFOAM: The Open Source CFD Toolbox           |
|  \\    /   O peration     | Version:  2206                                  |
|   \\  /    A nd           | Website:  www.openfoam.com                      |
|    \\/     M anipulation  |                                                 |
\*---------------------------------------------------------------------------*/
FoamFile
{
    version     2.0;
    format      ascii;
    arch        "LSB;label=32;scalar=64";
    class       surfaceScalarField;
    location    "1800";
    object      phi.a;
}
// * * * * * * * * * * * * * * * * * * * * * * * * * * * * * * * * * * * * * //

dimensions      [0 3 -1 0 0 0 0];

oriented        oriented;

internalField   nonuniform List<scalar> 
119
(
-4.72025e-18
-9.50766e-18
-1.43568e-17
-1.92168e-17
-2.42131e-17
-2.91301e-17
-3.4271e-17
-3.92523e-17
-4.45496e-17
-4.95903e-17
-5.5056e-17
-6.01463e-17
-6.57917e-17
-7.09199e-17
-7.67572e-17
-8.19107e-17
-8.79529e-17
-9.31189e-17
-9.93795e-17
-1.04545e-16
-1.11037e-16
-1.1619e-16
-1.22927e-16
-1.28055e-16
-1.35049e-16
-1.40142e-16
-1.47404e-16
-1.52452e-16
-1.59992e-16
-1.64988e-16
-1.72811e-16
-1.77751e-16
-1.8586e-16
-1.90742e-16
-1.99139e-16
-2.03962e-16
-2.12643e-16
-2.17413e-16
-2.26372e-16
-2.31095e-16
-2.40321e-16
-2.45009e-16
-2.54489e-16
-2.59155e-16
-2.68872e-16
-2.73534e-16
-2.83466e-16
-2.88143e-16
-2.98268e-16
-3.0298e-16
-3.13275e-16
-3.18044e-16
-3.28483e-16
-3.33328e-16
-3.43889e-16
-3.48826e-16
-3.59491e-16
-3.64529e-16
-3.75287e-16
-3.80424e-16
-3.91276e-16
-3.96494e-16
-4.07461e-16
-4.12715e-16
-4.23845e-16
-4.29057e-16
-4.40436e-16
-4.4548e-16
-4.57243e-16
-4.61938e-16
-4.74277e-16
-4.78376e-16
-4.91536e-16
-4.94752e-16
-5.08974e-16
-5.11076e-16
-5.26431e-16
-5.27521e-16
-5.43433e-16
-5.44705e-16
-5.58705e-16
-5.6439e-16
-5.68853e-16
-5.91021e-16
-5.63609e-16
-6.3163e-16
-4.99245e-16
-6.63251e-16
-1.49239e-16
-2.00432e-15
-4.86963e-11
-6.99152e-11
-2.71746e-11
-6.73133e-11
-7.86878e-11
-8.12057e-11
-8.19031e-11
-8.19895e-11
-8.2003e-11
-8.20064e-11
-8.20075e-11
-8.2008e-11
-8.20082e-11
-8.20084e-11
-8.20085e-11
-8.20085e-11
-8.20086e-11
-8.20086e-11
-8.20086e-11
-8.20085e-11
-8.20085e-11
-8.20084e-11
-8.20083e-11
-8.2008e-11
-8.20076e-11
-8.20064e-11
-8.20006e-11
-8.19551e-11
-8.11783e-11
)
;

boundaryField
{
    inlet
    {
        type            cyclic;
        value           nonuniform List<scalar> 
120
(
-4.72554e-27
-1.4182e-26
-2.36507e-26
-3.31398e-26
-4.26576e-26
-5.22123e-26
-6.18122e-26
-7.14651e-26
-8.11789e-26
-9.09614e-26
-1.0082e-25
-1.10762e-25
-1.20795e-25
-1.30925e-25
-1.4116e-25
-1.51506e-25
-1.61969e-25
-1.72554e-25
-1.83269e-25
-1.94116e-25
-2.05103e-25
-2.16232e-25
-2.27508e-25
-2.38935e-25
-2.50515e-25
-2.62251e-25
-2.74146e-25
-2.86201e-25
-2.98416e-25
-3.10792e-25
-3.2333e-25
-3.36027e-25
-3.48883e-25
-3.61895e-25
-3.75061e-25
-3.88377e-25
-4.01502e-25
-4.14768e-25
-4.28169e-25
-4.41698e-25
-4.55349e-25
-4.69112e-25
-4.82979e-25
-4.9694e-25
-5.10986e-25
-5.25104e-25
-5.39284e-25
-5.53511e-25
-5.67774e-25
-5.82057e-25
-5.96346e-25
-6.10626e-25
-6.2488e-25
-6.39092e-25
-6.53244e-25
-6.67318e-25
-6.81293e-25
-6.95151e-25
-7.0888e-25
-7.22642e-25
-7.36236e-25
-7.49633e-25
-7.62813e-25
-7.75758e-25
-7.88447e-25
-8.00859e-25
-8.12975e-25
-8.24774e-25
-8.36234e-25
-8.47337e-25
-8.58062e-25
-8.68389e-25
-8.783e-25
-8.87777e-25
-8.96802e-25
-9.05357e-25
-9.13425e-25
-9.20992e-25
-9.28043e-25
-9.34562e-25
-9.40537e-25
-9.45956e-25
-9.50808e-25
-9.55081e-25
-9.58768e-25
-9.61861e-25
-9.6435e-25
-9.66233e-25
-9.67502e-25
-9.68157e-25
-9.68409e-25
-9.53905e-25
-8.90433e-25
-6.06737e-25
-3.7536e-25
-2.35904e-25
-1.7434e-25
-1.65874e-25
-1.64177e-25
-1.63686e-25
-1.63505e-25
-1.63424e-25
-1.6338e-25
-1.6335e-25
-1.63326e-25
-1.63307e-25
-1.63291e-25
-1.63277e-25
-1.63265e-25
-1.63255e-25
-1.63246e-25
-1.63238e-25
-1.63232e-25
-1.63226e-25
-1.6322e-25
-1.6321e-25
-1.63185e-25
-1.63079e-25
-1.62361e-25
-1.53895e-25
)
;
    }
    outlet
    {
        type            cyclic;
        value           nonuniform List<scalar> 
120
(
4.72554e-27
1.4182e-26
2.36507e-26
3.31398e-26
4.26576e-26
5.22123e-26
6.18122e-26
7.14651e-26
8.11789e-26
9.09614e-26
1.0082e-25
1.10762e-25
1.20795e-25
1.30925e-25
1.4116e-25
1.51506e-25
1.61969e-25
1.72554e-25
1.83269e-25
1.94116e-25
2.05103e-25
2.16232e-25
2.27508e-25
2.38935e-25
2.50515e-25
2.62251e-25
2.74146e-25
2.86201e-25
2.98416e-25
3.10792e-25
3.2333e-25
3.36027e-25
3.48883e-25
3.61895e-25
3.75061e-25
3.88377e-25
4.01502e-25
4.14768e-25
4.28169e-25
4.41698e-25
4.55349e-25
4.69112e-25
4.82979e-25
4.9694e-25
5.10986e-25
5.25104e-25
5.39284e-25
5.53511e-25
5.67774e-25
5.82057e-25
5.96346e-25
6.10626e-25
6.2488e-25
6.39092e-25
6.53244e-25
6.67318e-25
6.81293e-25
6.95151e-25
7.0888e-25
7.22642e-25
7.36236e-25
7.49633e-25
7.62813e-25
7.75758e-25
7.88447e-25
8.00859e-25
8.12975e-25
8.24774e-25
8.36234e-25
8.47337e-25
8.58062e-25
8.68389e-25
8.783e-25
8.87777e-25
8.96802e-25
9.05357e-25
9.13425e-25
9.20992e-25
9.28043e-25
9.34562e-25
9.40537e-25
9.45956e-25
9.50808e-25
9.55081e-25
9.58768e-25
9.61861e-25
9.6435e-25
9.66233e-25
9.67502e-25
9.68157e-25
9.68409e-25
9.53905e-25
8.90433e-25
6.06737e-25
3.7536e-25
2.35904e-25
1.7434e-25
1.65874e-25
1.64177e-25
1.63686e-25
1.63505e-25
1.63424e-25
1.6338e-25
1.6335e-25
1.63326e-25
1.63307e-25
1.63291e-25
1.63277e-25
1.63265e-25
1.63255e-25
1.63246e-25
1.63238e-25
1.63232e-25
1.63226e-25
1.6322e-25
1.6321e-25
1.63185e-25
1.63079e-25
1.62361e-25
1.53895e-25
)
;
    }
    top
    {
        type            fixedValue;
        value           uniform 0;
    }
    bottom
    {
        type            fixedValue;
        value           uniform 0;
    }
    frontAndBackPlanes
    {
        type            empty;
        value           nonuniform List<scalar> 0();
    }
}


// ************************************************************************* //
