/*--------------------------------*- C++ -*----------------------------------*\
| =========                 |                                                 |
| \\      /  F ield         | OpenFOAM: The Open Source CFD Toolbox           |
|  \\    /   O peration     | Version:  2206                                  |
|   \\  /    A nd           | Website:  www.openfoam.com                      |
|    \\/     M anipulation  |                                                 |
\*---------------------------------------------------------------------------*/
FoamFile
{
    version     2.0;
    format      ascii;
    arch        "LSB;label=32;scalar=64";
    class       surfaceScalarField;
    location    "1800";
    object      phi.b;
}
// * * * * * * * * * * * * * * * * * * * * * * * * * * * * * * * * * * * * * //

dimensions      [0 3 -1 0 0 0 0];

oriented        oriented;

internalField   nonuniform List<scalar> 
119
(
7.08266e-18
1.42636e-17
2.1534e-17
2.88177e-17
3.63031e-17
4.36664e-17
5.13622e-17
5.88153e-17
6.67388e-17
7.42742e-17
8.24428e-17
9.00455e-17
9.84755e-17
1.06127e-16
1.14837e-16
1.22518e-16
1.31526e-16
1.39218e-16
1.48542e-16
1.56225e-16
1.65886e-16
1.7354e-16
1.83557e-16
1.91164e-16
2.01553e-16
2.09097e-16
2.19874e-16
2.27342e-16
2.38518e-16
2.45897e-16
2.57482e-16
2.64765e-16
2.76762e-16
2.83945e-16
2.96354e-16
3.03437e-16
3.16251e-16
3.23239e-16
3.36448e-16
3.43351e-16
3.56937e-16
3.63771e-16
3.77712e-16
3.84496e-16
3.98763e-16
4.05521e-16
4.20083e-16
4.26842e-16
4.41662e-16
4.48451e-16
4.6349e-16
4.70337e-16
4.85558e-16
4.9249e-16
5.07854e-16
5.14892e-16
5.30368e-16
5.37522e-16
5.53091e-16
5.60353e-16
5.76012e-16
5.83349e-16
5.99123e-16
6.06466e-16
6.22416e-16
6.29642e-16
6.45887e-16
6.52805e-16
6.69531e-16
6.75864e-16
6.93337e-16
6.98713e-16
7.17269e-16
7.21258e-16
7.41223e-16
7.43467e-16
7.64904e-16
7.65527e-16
7.87544e-16
7.88236e-16
8.07189e-16
8.13974e-16
8.18779e-16
8.48815e-16
8.07357e-16
9.02086e-16
7.10394e-16
9.39195e-16
2.09954e-16
1.88549e-15
1.16482e-11
6.46369e-15
2.80925e-17
-4.67489e-22
3.69029e-22
4.5777e-22
9.76046e-23
1.02551e-22
-3.40103e-22
-5.93715e-22
3.06113e-22
3.67982e-22
-2.80441e-22
3.7991e-22
2.16878e-22
-6.45272e-22
-3.52725e-24
-1.87505e-22
1.99884e-22
8.28273e-22
-5.62091e-22
4.51163e-23
-7.23984e-22
5.29838e-22
1.23992e-22
3.62909e-22
-5.08558e-22
-6.38177e-23
-1.51828e-22
)
;

boundaryField
{
    inlet
    {
        type            cyclic;
        value           nonuniform List<scalar> 
120
(
-4.72554e-27
-1.4182e-26
-2.36507e-26
-3.31398e-26
-4.26576e-26
-5.22123e-26
-6.18123e-26
-7.14651e-26
-8.11788e-26
-9.09614e-26
-1.0082e-25
-1.10762e-25
-1.20795e-25
-1.30925e-25
-1.4116e-25
-1.51506e-25
-1.61969e-25
-1.72554e-25
-1.83269e-25
-1.94116e-25
-2.05103e-25
-2.16232e-25
-2.27508e-25
-2.38933e-25
-2.50515e-25
-2.62251e-25
-2.74147e-25
-2.86201e-25
-2.98416e-25
-3.10794e-25
-3.23332e-25
-3.36027e-25
-3.48883e-25
-3.61895e-25
-3.75061e-25
-3.88373e-25
-4.015e-25
-4.14771e-25
-4.28167e-25
-4.41704e-25
-4.55346e-25
-4.69115e-25
-4.82979e-25
-4.9694e-25
-5.10983e-25
-5.25111e-25
-5.39284e-25
-5.53515e-25
-5.67767e-25
-5.82057e-25
-5.96346e-25
-6.10626e-25
-6.2488e-25
-6.39091e-25
-6.5324e-25
-6.67317e-25
-6.81293e-25
-6.95151e-25
-7.0889e-25
-7.22642e-25
-7.36236e-25
-7.49633e-25
-7.62813e-25
-7.75758e-25
-7.88457e-25
-8.00849e-25
-8.12975e-25
-8.24774e-25
-8.36234e-25
-8.47337e-25
-8.58073e-25
-8.68389e-25
-8.783e-25
-8.87777e-25
-8.96802e-25
-9.05357e-25
-9.13425e-25
-9.20992e-25
-9.28043e-25
-9.34562e-25
-9.40537e-25
-9.45956e-25
-9.50808e-25
-9.55081e-25
-9.58769e-25
-9.61889e-25
-9.64351e-25
-9.66233e-25
-9.67502e-25
-9.68156e-25
-9.68154e-25
-9.54434e-25
-9.2515e-25
-8.95483e-25
-8.65442e-25
-8.35031e-25
-8.04255e-25
-7.7312e-25
-7.41631e-25
-7.09796e-25
-6.77621e-25
-6.45114e-25
-6.12284e-25
-5.7914e-25
-5.45694e-25
-5.11957e-25
-4.77942e-25
-4.43663e-25
-4.09135e-25
-3.74374e-25
-3.39397e-25
-3.04221e-25
-2.68865e-25
-2.33349e-25
-1.97691e-25
-1.61913e-25
-1.26037e-25
-9.00823e-26
-5.40724e-26
-1.80289e-26
)
;
    }
    outlet
    {
        type            cyclic;
        value           nonuniform List<scalar> 
120
(
4.72554e-27
1.4182e-26
2.36507e-26
3.31398e-26
4.26576e-26
5.22123e-26
6.18123e-26
7.14651e-26
8.11788e-26
9.09614e-26
1.0082e-25
1.10762e-25
1.20795e-25
1.30925e-25
1.4116e-25
1.51506e-25
1.61969e-25
1.72554e-25
1.83269e-25
1.94116e-25
2.05103e-25
2.16232e-25
2.27508e-25
2.38933e-25
2.50515e-25
2.62251e-25
2.74147e-25
2.86201e-25
2.98416e-25
3.10794e-25
3.23332e-25
3.36027e-25
3.48883e-25
3.61895e-25
3.75061e-25
3.88373e-25
4.015e-25
4.14771e-25
4.28167e-25
4.41704e-25
4.55346e-25
4.69115e-25
4.82979e-25
4.9694e-25
5.10983e-25
5.25111e-25
5.39284e-25
5.53515e-25
5.67767e-25
5.82057e-25
5.96346e-25
6.10626e-25
6.2488e-25
6.39091e-25
6.5324e-25
6.67317e-25
6.81293e-25
6.95151e-25
7.0889e-25
7.22642e-25
7.36236e-25
7.49633e-25
7.62813e-25
7.75758e-25
7.88457e-25
8.00849e-25
8.12975e-25
8.24774e-25
8.36234e-25
8.47337e-25
8.58073e-25
8.68389e-25
8.783e-25
8.87777e-25
8.96802e-25
9.05357e-25
9.13425e-25
9.20992e-25
9.28043e-25
9.34562e-25
9.40537e-25
9.45956e-25
9.50808e-25
9.55081e-25
9.58769e-25
9.61889e-25
9.64351e-25
9.66233e-25
9.67502e-25
9.68156e-25
9.68154e-25
9.54434e-25
9.2515e-25
8.95483e-25
8.65442e-25
8.35031e-25
8.04255e-25
7.7312e-25
7.41631e-25
7.09796e-25
6.77621e-25
6.45114e-25
6.12284e-25
5.7914e-25
5.45694e-25
5.11957e-25
4.77942e-25
4.43663e-25
4.09135e-25
3.74374e-25
3.39397e-25
3.04221e-25
2.68865e-25
2.33349e-25
1.97691e-25
1.61913e-25
1.26037e-25
9.00823e-26
5.40724e-26
1.80289e-26
)
;
    }
    top
    {
        type            fixedValue;
        value           uniform 0;
    }
    bottom
    {
        type            fixedValue;
        value           uniform 0;
    }
    frontAndBackPlanes
    {
        type            empty;
        value           nonuniform List<scalar> 0();
    }
}


// ************************************************************************* //
