/*--------------------------------*- C++ -*----------------------------------*\
| =========                 |                                                 |
| \\      /  F ield         | OpenFOAM: The Open Source CFD Toolbox           |
|  \\    /   O peration     | Version:  2206                                  |
|   \\  /    A nd           | Website:  www.openfoam.com                      |
|    \\/     M anipulation  |                                                 |
\*---------------------------------------------------------------------------*/
FoamFile
{
    version     2.0;
    format      ascii;
    arch        "LSB;label=32;scalar=64";
    class       volVectorField;
    location    "1800";
    object      U.a;
}
// * * * * * * * * * * * * * * * * * * * * * * * * * * * * * * * * * * * * * //

dimensions      [0 1 -1 0 0 0 0];

internalField   nonuniform List<vector> 
120
(
(1.57518e-20 1.56096e-08 0)
(4.72733e-20 3.32056e-10 0)
(7.88356e-20 -3.84786e-10 0)
(1.10466e-19 3.05189e-10 0)
(1.42192e-19 -4.12212e-10 0)
(1.74041e-19 2.77784e-10 0)
(2.06041e-19 -4.39689e-10 0)
(2.38217e-19 2.49276e-10 0)
(2.70596e-19 -4.67336e-10 0)
(3.03205e-19 2.19829e-10 0)
(3.36067e-19 -4.95319e-10 0)
(3.69207e-19 1.89441e-10 0)
(4.0265e-19 -5.23572e-10 0)
(4.36418e-19 1.58047e-10 0)
(4.70534e-19 -5.52026e-10 0)
(5.0502e-19 1.25577e-10 0)
(5.39896e-19 -5.80612e-10 0)
(5.75182e-19 9.19594e-11 0)
(6.10895e-19 -6.09256e-10 0)
(6.47055e-19 5.71164e-11 0)
(6.83676e-19 -6.37886e-10 0)
(7.20773e-19 2.09726e-11 0)
(7.5836e-19 -6.6643e-10 0)
(7.96449e-19 -1.65456e-11 0)
(8.3505e-19 -6.94821e-10 0)
(8.74172e-19 -5.55077e-11 0)
(9.13821e-19 -7.22999e-10 0)
(9.54002e-19 -9.59753e-11 0)
(9.9472e-19 -7.50914e-10 0)
(1.03597e-18 -1.37999e-10 0)
(1.07777e-18 -7.78525e-10 0)
(1.12009e-18 -1.81615e-10 0)
(1.16294e-18 -8.05803e-10 0)
(1.20632e-18 -2.26844e-10 0)
(1.2502e-18 -8.32736e-10 0)
(1.29459e-18 -2.73689e-10 0)
(1.33834e-18 -8.59329e-10 0)
(1.38256e-18 -3.22131e-10 0)
(1.42723e-18 -8.85604e-10 0)
(1.47233e-18 -3.72134e-10 0)
(1.51783e-18 -9.11605e-10 0)
(1.56371e-18 -4.23639e-10 0)
(1.60993e-18 -9.37392e-10 0)
(1.65647e-18 -4.76569e-10 0)
(1.70329e-18 -9.63047e-10 0)
(1.75035e-18 -5.30824e-10 0)
(1.79761e-18 -9.88665e-10 0)
(1.84504e-18 -5.8629e-10 0)
(1.89258e-18 -1.01436e-09 0)
(1.94019e-18 -6.42838e-10 0)
(1.98782e-18 -1.04024e-09 0)
(2.03542e-18 -7.00331e-10 0)
(2.08293e-18 -1.06643e-09 0)
(2.13031e-18 -7.58631e-10 0)
(2.17748e-18 -1.09304e-09 0)
(2.22439e-18 -8.1761e-10 0)
(2.27098e-18 -1.12016e-09 0)
(2.31717e-18 -8.77165e-10 0)
(2.36293e-18 -1.14784e-09 0)
(2.40881e-18 -9.37233e-10 0)
(2.45412e-18 -1.17608e-09 0)
(2.49878e-18 -9.97826e-10 0)
(2.54271e-18 -1.20477e-09 0)
(2.58586e-18 -1.05906e-09 0)
(2.62816e-18 -1.23365e-09 0)
(2.66953e-18 -1.1212e-09 0)
(2.70992e-18 -1.26229e-09 0)
(2.74925e-18 -1.18475e-09 0)
(2.78745e-18 -1.28997e-09 0)
(2.82446e-18 -1.25045e-09 0)
(2.86021e-18 -1.31567e-09 0)
(2.89463e-18 -1.31942e-09 0)
(2.92767e-18 -1.338e-09 0)
(2.95926e-18 -1.39301e-09 0)
(2.98934e-18 -1.35533e-09 0)
(3.01786e-18 -1.47262e-09 0)
(3.04475e-18 -1.36637e-09 0)
(3.06997e-18 -1.55862e-09 0)
(3.09348e-18 -1.37169e-09 0)
(3.11521e-18 -1.64775e-09 0)
(3.13512e-18 -1.37808e-09 0)
(3.15319e-18 -1.72605e-09 0)
(3.16936e-18 -1.40949e-09 0)
(3.1836e-18 -1.75038e-09 0)
(3.19589e-18 -1.53427e-09 0)
(3.2062e-18 -1.59461e-09 0)
(3.2145e-18 -1.91909e-09 0)
(3.22078e-18 -8.48643e-10 0)
(3.22501e-18 -2.86263e-09 0)
(3.22719e-18 1.89294e-09 0)
(3.22803e-18 -8.28431e-09 0)
(3.17968e-18 -0.00034928 0)
(2.96811e-18 9.80418e-06 0)
(2.02246e-18 -0.000160724 0)
(1.2512e-18 -0.000213318 0)
(7.86345e-19 -0.000223843 0)
(5.81133e-19 -0.000227299 0)
(5.52914e-19 -0.000227718 0)
(5.47255e-19 -0.000227779 0)
(5.45619e-19 -0.000227793 0)
(5.45017e-19 -0.000227798 0)
(5.44747e-19 -0.000227799 0)
(5.44599e-19 -0.0002278 0)
(5.44498e-19 -0.000227801 0)
(5.44421e-19 -0.000227801 0)
(5.44357e-19 -0.000227801 0)
(5.44303e-19 -0.000227802 0)
(5.44257e-19 -0.000227802 0)
(5.44217e-19 -0.000227802 0)
(5.44183e-19 -0.000227802 0)
(5.44153e-19 -0.000227801 0)
(5.44128e-19 -0.000227801 0)
(5.44106e-19 -0.000227801 0)
(5.44086e-19 -0.000227801 0)
(5.44065e-19 -0.0002278 0)
(5.44033e-19 -0.000227798 0)
(5.43951e-19 -0.000227793 0)
(5.43598e-19 -0.000227766 0)
(5.41202e-19 -0.00022754 0)
(5.12985e-19 -0.00022345 0)
)
;

boundaryField
{
    inlet
    {
        type            cyclic;
    }
    outlet
    {
        type            cyclic;
    }
    top
    {
        type            fixedValue;
        value           uniform (0 0 0);
    }
    bottom
    {
        type            fixedValue;
        value           uniform (0 0 0);
    }
    frontAndBackPlanes
    {
        type            empty;
    }
}


// ************************************************************************* //
