/*--------------------------------*- C++ -*----------------------------------*\
| =========                 |                                                 |
| \\      /  F ield         | OpenFOAM: The Open Source CFD Toolbox           |
|  \\    /   O peration     | Version:  2206                                  |
|   \\  /    A nd           | Website:  www.openfoam.com                      |
|    \\/     M anipulation  |                                                 |
\*---------------------------------------------------------------------------*/
FoamFile
{
    version     2.0;
    format      ascii;
    arch        "LSB;label=32;scalar=64";
    class       volVectorField;
    location    "1800";
    object      U.b;
}
// * * * * * * * * * * * * * * * * * * * * * * * * * * * * * * * * * * * * * //

dimensions      [0 1 -1 0 0 0 0];

internalField   nonuniform List<vector> 
120
(
(1.57518e-20 1.5348e-08 0)
(4.72732e-20 4.10637e-10 0)
(7.88357e-20 -3.08767e-10 0)
(1.10466e-19 4.12149e-10 0)
(1.42192e-19 -2.59951e-10 0)
(1.74041e-19 4.527e-10 0)
(2.06041e-19 -2.15379e-10 0)
(2.38217e-19 4.98465e-10 0)
(2.70596e-19 -1.70636e-10 0)
(3.03205e-19 5.40501e-10 0)
(3.36067e-19 -1.26417e-10 0)
(3.69206e-19 5.83112e-10 0)
(4.0265e-19 -8.0959e-11 0)
(4.36418e-19 6.26231e-10 0)
(4.70534e-19 -3.42012e-11 0)
(5.0502e-19 6.69788e-10 0)
(5.39896e-19 1.39246e-11 0)
(5.75182e-19 7.1371e-10 0)
(6.10895e-19 6.34887e-11 0)
(6.47055e-19 7.57923e-10 0)
(6.83676e-19 1.14564e-10 0)
(7.20773e-19 8.02354e-10 0)
(7.5836e-19 1.67221e-10 0)
(7.96444e-19 8.4693e-10 0)
(8.3505e-19 2.21528e-10 0)
(8.74172e-19 8.91589e-10 0)
(9.13823e-19 2.77546e-10 0)
(9.54002e-19 9.36273e-10 0)
(9.9472e-19 3.35327e-10 0)
(1.03598e-18 9.80932e-10 0)
(1.07777e-18 3.9491e-10 0)
(1.12009e-18 1.02553e-09 0)
(1.16294e-18 4.56317e-10 0)
(1.20632e-18 1.07004e-09 0)
(1.2502e-18 5.19554e-10 0)
(1.29458e-18 1.11445e-09 0)
(1.33833e-18 5.84607e-10 0)
(1.38257e-18 1.15877e-09 0)
(1.42722e-18 6.51439e-10 0)
(1.47235e-18 1.20302e-09 0)
(1.51782e-18 7.19997e-10 0)
(1.56372e-18 1.24725e-09 0)
(1.60993e-18 7.90204e-10 0)
(1.65647e-18 1.2915e-09 0)
(1.70328e-18 8.6196e-10 0)
(1.75037e-18 1.33587e-09 0)
(1.79761e-18 9.35149e-10 0)
(1.84505e-18 1.38043e-09 0)
(1.89256e-18 1.00964e-09 0)
(1.94019e-18 1.42529e-09 0)
(1.98782e-18 1.08527e-09 0)
(2.03542e-18 1.47053e-09 0)
(2.08293e-18 1.16191e-09 0)
(2.1303e-18 1.51626e-09 0)
(2.17747e-18 1.23939e-09 0)
(2.22439e-18 1.56255e-09 0)
(2.27098e-18 1.31757e-09 0)
(2.31717e-18 1.60944e-09 0)
(2.36297e-18 1.39635e-09 0)
(2.40881e-18 1.65691e-09 0)
(2.45412e-18 1.47566e-09 0)
(2.49878e-18 1.70488e-09 0)
(2.54271e-18 1.55554e-09 0)
(2.58586e-18 1.75313e-09 0)
(2.62819e-18 1.63611e-09 0)
(2.6695e-18 1.80125e-09 0)
(2.70992e-18 1.71769e-09 0)
(2.74925e-18 1.84863e-09 0)
(2.78745e-18 1.80083e-09 0)
(2.82446e-18 1.89432e-09 0)
(2.86024e-18 1.88634e-09 0)
(2.89463e-18 1.93703e-09 0)
(2.92767e-18 1.9753e-09 0)
(2.95926e-18 1.97518e-09 0)
(2.98934e-18 2.0689e-09 0)
(3.01786e-18 2.00719e-09 0)
(3.04475e-18 2.16774e-09 0)
(3.06997e-18 2.03255e-09 0)
(3.09348e-18 2.27e-09 0)
(3.11521e-18 2.0547e-09 0)
(3.13512e-18 2.36649e-09 0)
(3.15319e-18 2.08856e-09 0)
(3.16936e-18 2.42777e-09 0)
(3.1836e-18 2.17913e-09 0)
(3.1959e-18 2.36674e-09 0)
(3.2063e-18 2.4374e-09 0)
(3.2145e-18 1.90113e-09 0)
(3.22078e-18 3.02121e-09 0)
(3.22501e-18 -7.31261e-10 0)
(3.22719e-18 -2.74307e-09 0)
(3.22718e-18 1.41259e-06 0)
(3.18145e-18 5.00999e-05 0)
(3.08383e-18 3.79151e-07 0)
(2.98494e-18 -4.10618e-07 0)
(2.88481e-18 -1.49693e-07 0)
(2.78344e-18 4.27965e-08 0)
(2.68085e-18 3.766e-08 0)
(2.57707e-18 -3.06585e-09 0)
(2.4721e-18 -4.31966e-09 0)
(2.36599e-18 -3.50306e-10 0)
(2.25874e-18 1.78534e-10 0)
(2.15038e-18 4.38215e-11 0)
(2.04095e-18 -2.47973e-12 0)
(1.93047e-18 -3.08493e-12 0)
(1.81898e-18 3.88072e-14 0)
(1.70652e-18 3.1026e-13 0)
(1.59314e-18 3.4719e-14 0)
(1.47888e-18 -1.62858e-14 0)
(1.36378e-18 -4.46388e-15 0)
(1.24791e-18 1.21113e-15 0)
(1.13132e-18 3.21617e-16 0)
(1.01407e-18 -7.42343e-16 0)
(8.96218e-19 -8.27087e-16 0)
(7.77829e-19 -1.04991e-16 0)
(6.5897e-19 1.03698e-15 0)
(5.39711e-19 6.14928e-16 0)
(4.20122e-19 -4.03173e-16 0)
(3.00274e-19 -8.95166e-16 0)
(1.80241e-19 -2.08349e-16 0)
(6.00964e-20 6.83578e-16 0)
)
;

boundaryField
{
    inlet
    {
        type            cyclic;
    }
    outlet
    {
        type            cyclic;
    }
    top
    {
        type            fixedValue;
        value           uniform (0 0 0);
    }
    bottom
    {
        type            fixedValue;
        value           uniform (0 0 0);
    }
    frontAndBackPlanes
    {
        type            empty;
    }
}


// ************************************************************************* //
