/*--------------------------------*- C++ -*----------------------------------*\
| =========                 |                                                 |
| \\      /  F ield         | OpenFOAM: The Open Source CFD Toolbox           |
|  \\    /   O peration     | Version:  2206                                  |
|   \\  /    A nd           | Website:  www.openfoam.com                      |
|    \\/     M anipulation  |                                                 |
\*---------------------------------------------------------------------------*/
FoamFile
{
    version     2.0;
    format      ascii;
    arch        "LSB;label=32;scalar=64";
    class       volScalarField;
    location    "1400";
    object      pff;
}
// * * * * * * * * * * * * * * * * * * * * * * * * * * * * * * * * * * * * * //

dimensions      [1 -1 -2 0 0 0 0];

internalField   nonuniform List<scalar> 
120
(
24.737
24.2026
24.2059
23.6264
23.6144
23.0465
23.0238
22.4684
22.4343
21.892
21.8459
21.3175
21.2587
20.7446
20.6728
20.1735
20.0883
19.6039
19.5053
19.036
18.9238
18.4697
18.3439
17.9049
17.7657
17.3417
17.1894
16.7799
16.615
16.2197
16.0427
15.661
15.4726
15.1039
14.9048
14.5485
14.3394
13.9948
13.7768
13.443
13.2169
12.8932
12.66
12.3455
12.1062
11.8001
11.5556
11.2571
11.0084
10.7166
10.4645
10.1787
9.92396
9.64343
9.38671
9.11068
8.8526
8.5804
8.32146
8.05248
7.79307
7.52673
7.26717
7.00299
6.74349
6.48106
6.22178
5.96075
5.70181
5.44191
5.18336
4.92437
4.66626
4.40802
4.15038
3.89274
3.63562
3.37841
3.1219
2.86486
2.6091
2.35205
2.09663
1.84063
1.5818
1.33362
1.05831
0.818437
0.548563
0.265495
0
0
0
0
0
0
0
0
0
0
0
0
0
0
0
0
0
0
0
0
0
0
0
0
0
0
0
0
0
0
)
;

boundaryField
{
    inlet
    {
        type            cyclic;
    }
    outlet
    {
        type            cyclic;
    }
    top
    {
        type            calculated;
        value           uniform 0;
    }
    bottom
    {
        type            calculated;
        value           uniform 24.737;
    }
    frontAndBackPlanes
    {
        type            empty;
    }
}


// ************************************************************************* //
