/*--------------------------------*- C++ -*----------------------------------*\
| =========                 |                                                 |
| \\      /  F ield         | OpenFOAM: The Open Source CFD Toolbox           |
|  \\    /   O peration     | Version:  2206                                  |
|   \\  /    A nd           | Website:  www.openfoam.com                      |
|    \\/     M anipulation  |                                                 |
\*---------------------------------------------------------------------------*/
FoamFile
{
    version     2.0;
    format      ascii;
    arch        "LSB;label=32;scalar=64";
    class       surfaceScalarField;
    location    "1400";
    object      phi.a;
}
// * * * * * * * * * * * * * * * * * * * * * * * * * * * * * * * * * * * * * //

dimensions      [0 3 -1 0 0 0 0];

oriented        oriented;

internalField   nonuniform List<scalar> 
119
(
-8.21291e-16
-1.66055e-15
-2.50034e-15
-3.35959e-15
-4.22058e-15
-5.10053e-15
-5.98335e-15
-6.88452e-15
-7.78982e-15
-8.71272e-15
-9.64111e-15
-1.05862e-14
-1.15383e-14
-1.25062e-14
-1.34826e-14
-1.44738e-14
-1.5475e-14
-1.64901e-14
-1.75169e-14
-1.85566e-14
-1.96098e-14
-2.0675e-14
-2.17556e-14
-2.28478e-14
-2.39572e-14
-2.50779e-14
-2.62182e-14
-2.73697e-14
-2.85435e-14
-2.97291e-14
-3.09398e-14
-3.21635e-14
-3.34156e-14
-3.46825e-14
-3.59815e-14
-3.72978e-14
-3.86503e-14
-4.00232e-14
-4.14367e-14
-4.28743e-14
-4.43569e-14
-4.58676e-14
-4.74276e-14
-4.902e-14
-5.06654e-14
-5.23469e-14
-5.40845e-14
-5.58613e-14
-5.7696e-14
-5.95718e-14
-6.15055e-14
-6.3481e-14
-6.55127e-14
-6.75847e-14
-6.97093e-14
-7.18712e-14
-7.408e-14
-7.63212e-14
-7.8602e-14
-8.09089e-14
-8.32469e-14
-8.56036e-14
-8.79822e-14
-9.03718e-14
-9.27741e-14
-9.51796e-14
-9.75891e-14
-9.99948e-14
-1.02397e-13
-1.04789e-13
-1.07171e-13
-1.09538e-13
-1.1189e-13
-1.14223e-13
-1.16539e-13
-1.18833e-13
-1.21108e-13
-1.23361e-13
-1.25596e-13
-1.27811e-13
-1.30009e-13
-1.32206e-13
-1.34369e-13
-1.3662e-13
-1.38785e-13
-1.41183e-13
-1.44143e-13
-1.46912e-13
-1.51219e-13
-2.47904e-13
9.44602e-14
-4.00963e-11
-7.63065e-11
-6.03672e-11
-7.50505e-11
-8.04989e-11
-8.11189e-11
-8.13676e-11
-8.15154e-11
-8.16322e-11
-8.17373e-11
-8.1832e-11
-8.19108e-11
-8.19684e-11
-8.20045e-11
-8.20236e-11
-8.20321e-11
-8.20354e-11
-8.20365e-11
-8.20369e-11
-8.2037e-11
-8.20371e-11
-8.20371e-11
-8.2037e-11
-8.20368e-11
-8.20362e-11
-8.20331e-11
-8.2002e-11
-8.13507e-11
)
;

boundaryField
{
    inlet
    {
        type            cyclic;
        value           nonuniform List<scalar> 
120
(
-3.03835e-27
-9.12081e-27
-1.52167e-26
-2.13349e-26
-2.74845e-26
-3.36744e-26
-3.99137e-26
-4.6211e-26
-5.25758e-26
-5.90178e-26
-6.55457e-26
-7.21686e-26
-7.88967e-26
-8.57384e-26
-9.27033e-26
-9.98007e-26
-1.0704e-25
-1.14432e-25
-1.21985e-25
-1.29709e-25
-1.37615e-25
-1.45712e-25
-1.54011e-25
-1.62523e-25
-1.71264e-25
-1.80238e-25
-1.89457e-25
-1.98927e-25
-2.08664e-25
-2.18679e-25
-2.28974e-25
-2.3956e-25
-2.50459e-25
-2.61684e-25
-2.73253e-25
-2.85191e-25
-2.97194e-25
-3.0961e-25
-3.22417e-25
-3.35651e-25
-3.49287e-25
-3.63385e-25
-3.77934e-25
-3.92968e-25
-4.08505e-25
-4.24578e-25
-4.4116e-25
-4.583e-25
-4.75999e-25
-4.9433e-25
-5.13273e-25
-5.32844e-25
-5.53057e-25
-5.73925e-25
-5.95457e-25
-6.1768e-25
-6.40576e-25
-6.64143e-25
-6.88378e-25
-7.13382e-25
-7.3901e-25
-7.65237e-25
-7.92026e-25
-8.1933e-25
-8.47094e-25
-8.75195e-25
-9.03669e-25
-9.32371e-25
-9.61201e-25
-9.9005e-25
-1.0188e-24
-1.04725e-24
-1.07534e-24
-1.10291e-24
-1.12982e-24
-1.15591e-24
-1.18102e-24
-1.20499e-24
-1.22767e-24
-1.2489e-24
-1.26854e-24
-1.28644e-24
-1.30246e-24
-1.3165e-24
-1.32844e-24
-1.3382e-24
-1.34553e-24
-1.35054e-24
-1.35318e-24
-1.35424e-24
-1.35538e-24
-1.58428e-24
-1.75216e-24
-1.64508e-24
-1.39473e-24
-1.09574e-24
-9.57252e-25
-8.68899e-25
-7.93735e-25
-7.14452e-25
-6.22696e-25
-5.18086e-25
-4.09657e-25
-3.12555e-25
-2.39483e-25
-1.93852e-25
-1.70256e-25
-1.60048e-25
-1.56201e-25
-1.54788e-25
-1.54179e-25
-1.53851e-25
-1.53648e-25
-1.53521e-25
-1.53448e-25
-1.53424e-25
-1.53464e-25
-1.53697e-25
-1.54685e-25
-1.55695e-25
)
;
    }
    outlet
    {
        type            cyclic;
        value           nonuniform List<scalar> 
120
(
3.03835e-27
9.12081e-27
1.52167e-26
2.13349e-26
2.74845e-26
3.36744e-26
3.99137e-26
4.6211e-26
5.25758e-26
5.90178e-26
6.55457e-26
7.21686e-26
7.88967e-26
8.57384e-26
9.27033e-26
9.98007e-26
1.0704e-25
1.14432e-25
1.21985e-25
1.29709e-25
1.37615e-25
1.45712e-25
1.54011e-25
1.62523e-25
1.71264e-25
1.80238e-25
1.89457e-25
1.98927e-25
2.08664e-25
2.18679e-25
2.28974e-25
2.3956e-25
2.50459e-25
2.61684e-25
2.73253e-25
2.85191e-25
2.97194e-25
3.0961e-25
3.22417e-25
3.35651e-25
3.49287e-25
3.63385e-25
3.77934e-25
3.92968e-25
4.08505e-25
4.24578e-25
4.4116e-25
4.583e-25
4.75999e-25
4.9433e-25
5.13273e-25
5.32844e-25
5.53057e-25
5.73925e-25
5.95457e-25
6.1768e-25
6.40576e-25
6.64143e-25
6.88378e-25
7.13382e-25
7.3901e-25
7.65237e-25
7.92026e-25
8.1933e-25
8.47094e-25
8.75195e-25
9.03669e-25
9.32371e-25
9.61201e-25
9.9005e-25
1.0188e-24
1.04725e-24
1.07534e-24
1.10291e-24
1.12982e-24
1.15591e-24
1.18102e-24
1.20499e-24
1.22767e-24
1.2489e-24
1.26854e-24
1.28644e-24
1.30246e-24
1.3165e-24
1.32844e-24
1.3382e-24
1.34553e-24
1.35054e-24
1.35318e-24
1.35424e-24
1.35538e-24
1.58428e-24
1.75216e-24
1.64508e-24
1.39473e-24
1.09574e-24
9.57252e-25
8.68899e-25
7.93735e-25
7.14452e-25
6.22696e-25
5.18086e-25
4.09657e-25
3.12555e-25
2.39483e-25
1.93852e-25
1.70256e-25
1.60048e-25
1.56201e-25
1.54788e-25
1.54179e-25
1.53851e-25
1.53648e-25
1.53521e-25
1.53448e-25
1.53424e-25
1.53464e-25
1.53697e-25
1.54685e-25
1.55695e-25
)
;
    }
    top
    {
        type            fixedValue;
        value           uniform 0;
    }
    bottom
    {
        type            fixedValue;
        value           uniform 0;
    }
    frontAndBackPlanes
    {
        type            empty;
        value           nonuniform List<scalar> 0();
    }
}


// ************************************************************************* //
