/*--------------------------------*- C++ -*----------------------------------*\
| =========                 |                                                 |
| \\      /  F ield         | OpenFOAM: The Open Source CFD Toolbox           |
|  \\    /   O peration     | Version:  2206                                  |
|   \\  /    A nd           | Website:  www.openfoam.com                      |
|    \\/     M anipulation  |                                                 |
\*---------------------------------------------------------------------------*/
FoamFile
{
    version     2.0;
    format      ascii;
    arch        "LSB;label=32;scalar=64";
    class       volVectorField;
    location    "1400";
    object      U.a;
}
// * * * * * * * * * * * * * * * * * * * * * * * * * * * * * * * * * * * * * //

dimensions      [0 1 -1 0 0 0 0];

internalField   nonuniform List<vector> 
120
(
(1.01278e-20 1.45484e-08 0)
(3.04027e-20 -3.14509e-09 0)
(5.07223e-20 -6.08014e-09 0)
(7.11163e-20 -7.81024e-09 0)
(9.16149e-20 -1.08542e-08 0)
(1.12248e-19 -1.2593e-08 0)
(1.33046e-19 -1.57433e-08 0)
(1.54037e-19 -1.74971e-08 0)
(1.75253e-19 -2.07502e-08 0)
(1.96726e-19 -2.25262e-08 0)
(2.18486e-19 -2.58777e-08 0)
(2.40562e-19 -2.76836e-08 0)
(2.62989e-19 -3.11288e-08 0)
(2.85795e-19 -3.29726e-08 0)
(3.09011e-19 -3.65062e-08 0)
(3.32669e-19 -3.83966e-08 0)
(3.56801e-19 -4.2013e-08 0)
(3.81439e-19 -4.39588e-08 0)
(4.06615e-19 -4.76525e-08 0)
(4.32363e-19 -4.96631e-08 0)
(4.58716e-19 -5.34288e-08 0)
(4.85707e-19 -5.5514e-08 0)
(5.13371e-19 -5.9347e-08 0)
(5.41742e-19 -6.15174e-08 0)
(5.7088e-19 -6.54141e-08 0)
(6.00795e-19 -6.76813e-08 0)
(6.31524e-19 -7.16398e-08 0)
(6.63091e-19 -7.40166e-08 0)
(6.95547e-19 -7.8037e-08 0)
(7.28929e-19 -8.05378e-08 0)
(7.63247e-19 -8.46233e-08 0)
(7.98535e-19 -8.72642e-08 0)
(8.34865e-19 -9.14211e-08 0)
(8.7228e-19 -9.42207e-08 0)
(9.10845e-19 -9.8459e-08 0)
(9.50635e-19 -1.01438e-07 0)
(9.90646e-19 -1.05771e-07 0)
(1.03203e-18 -1.08952e-07 0)
(1.07472e-18 -1.13398e-07 0)
(1.11884e-18 -1.16805e-07 0)
(1.16429e-18 -1.21385e-07 0)
(1.21128e-18 -1.25042e-07 0)
(1.25978e-18 -1.29777e-07 0)
(1.30989e-18 -1.33709e-07 0)
(1.36168e-18 -1.38623e-07 0)
(1.41526e-18 -1.4285e-07 0)
(1.47053e-18 -1.47965e-07 0)
(1.52767e-18 -1.52504e-07 0)
(1.58666e-18 -1.57835e-07 0)
(1.64777e-18 -1.62697e-07 0)
(1.71091e-18 -1.68256e-07 0)
(1.77615e-18 -1.73441e-07 0)
(1.84352e-18 -1.7923e-07 0)
(1.91308e-18 -1.84728e-07 0)
(1.98486e-18 -1.90741e-07 0)
(2.05893e-18 -1.96532e-07 0)
(2.13525e-18 -2.02751e-07 0)
(2.21381e-18 -2.08804e-07 0)
(2.29459e-18 -2.15202e-07 0)
(2.37794e-18 -2.21476e-07 0)
(2.46337e-18 -2.28018e-07 0)
(2.55079e-18 -2.34465e-07 0)
(2.64009e-18 -2.4111e-07 0)
(2.7311e-18 -2.4768e-07 0)
(2.82365e-18 -2.54386e-07 0)
(2.91732e-18 -2.61026e-07 0)
(3.01223e-18 -2.6775e-07 0)
(3.1079e-18 -2.74412e-07 0)
(3.204e-18 -2.81115e-07 0)
(3.30017e-18 -2.87757e-07 0)
(3.396e-18 -2.94404e-07 0)
(3.49084e-18 -3.0099e-07 0)
(3.58446e-18 -3.07554e-07 0)
(3.67637e-18 -3.14057e-07 0)
(3.76606e-18 -3.20518e-07 0)
(3.85303e-18 -3.26921e-07 0)
(3.93673e-18 -3.33264e-07 0)
(4.01664e-18 -3.39563e-07 0)
(4.09224e-18 -3.4578e-07 0)
(4.16301e-18 -3.5198e-07 0)
(4.22846e-18 -3.58086e-07 0)
(4.28812e-18 -3.64187e-07 0)
(4.34155e-18 -3.70297e-07 0)
(4.38834e-18 -3.76201e-07 0)
(4.42815e-18 -3.82802e-07 0)
(4.46066e-18 -3.88227e-07 0)
(4.48509e-18 -3.96116e-07 0)
(4.50179e-18 -4.04693e-07 0)
(4.51061e-18 -4.11499e-07 0)
(4.51415e-18 -4.38353e-07 0)
(4.51792e-18 -9.39274e-07 0)
(5.28092e-18 9.56913e-05 0)
(5.84055e-18 -0.000282041 0)
(5.48361e-18 -0.000141098 0)
(4.6491e-18 -0.000194647 0)
(3.65248e-18 -0.000222338 0)
(3.19084e-18 -0.000224877 0)
(2.89633e-18 -0.000225784 0)
(2.64578e-18 -0.000226259 0)
(2.38151e-18 -0.000226605 0)
(2.07565e-18 -0.000226908 0)
(1.72695e-18 -0.000227188 0)
(1.36552e-18 -0.000227434 0)
(1.04185e-18 -0.000227626 0)
(7.98276e-19 -0.000227754 0)
(6.46172e-19 -0.000227826 0)
(5.67522e-19 -0.00022786 0)
(5.33494e-19 -0.000227874 0)
(5.20671e-19 -0.000227878 0)
(5.15959e-19 -0.00022788 0)
(5.1393e-19 -0.00022788 0)
(5.12837e-19 -0.000227881 0)
(5.12161e-19 -0.000227881 0)
(5.11736e-19 -0.000227881 0)
(5.11495e-19 -0.00022788 0)
(5.11412e-19 -0.00022788 0)
(5.11546e-19 -0.000227877 0)
(5.12322e-19 -0.000227862 0)
(5.15615e-19 -0.000227705 0)
(5.18985e-19 -0.000224244 0)
)
;

boundaryField
{
    inlet
    {
        type            cyclic;
    }
    outlet
    {
        type            cyclic;
    }
    top
    {
        type            fixedValue;
        value           uniform (0 0 0);
    }
    bottom
    {
        type            fixedValue;
        value           uniform (0 0 0);
    }
    frontAndBackPlanes
    {
        type            empty;
    }
}


// ************************************************************************* //
