/*--------------------------------*- C++ -*----------------------------------*\
| =========                 |                                                 |
| \\      /  F ield         | OpenFOAM: The Open Source CFD Toolbox           |
|  \\    /   O peration     | Version:  2206                                  |
|   \\  /    A nd           | Website:  www.openfoam.com                      |
|    \\/     M anipulation  |                                                 |
\*---------------------------------------------------------------------------*/
FoamFile
{
    version     2.0;
    format      ascii;
    arch        "LSB;label=32;scalar=64";
    class       volVectorField;
    location    "1400";
    object      U.b;
}
// * * * * * * * * * * * * * * * * * * * * * * * * * * * * * * * * * * * * * //

dimensions      [0 1 -1 0 0 0 0];

internalField   nonuniform List<vector> 
120
(
(1.01278e-20 1.71263e-08 0)
(3.04027e-20 5.48272e-09 0)
(5.07327e-20 8.34468e-09 0)
(7.11164e-20 1.25179e-08 0)
(9.16149e-20 1.54379e-08 0)
(1.12248e-19 1.97394e-08 0)
(1.33101e-19 2.26902e-08 0)
(1.54036e-19 2.71285e-08 0)
(1.7518e-19 3.01189e-08 0)
(1.96726e-19 3.46904e-08 0)
(2.18485e-19 3.77284e-08 0)
(2.40461e-19 4.24291e-08 0)
(2.62988e-19 4.55234e-08 0)
(2.85795e-19 5.03484e-08 0)
(3.09011e-19 5.35081e-08 0)
(3.32669e-19 5.84521e-08 0)
(3.56801e-19 6.16869e-08 0)
(3.81439e-19 6.67445e-08 0)
(4.06615e-19 7.00643e-08 0)
(4.32363e-19 7.523e-08 0)
(4.58716e-19 7.86458e-08 0)
(4.85707e-19 8.39152e-08 0)
(5.13367e-19 8.74389e-08 0)
(5.40857e-19 9.28082e-08 0)
(5.70876e-19 9.64526e-08 0)
(6.00797e-19 1.0192e-07 0)
(6.32033e-19 1.057e-07 0)
(6.63093e-19 1.11267e-07 0)
(6.95552e-19 1.152e-07 0)
(7.3009e-19 1.20871e-07 0)
(7.64454e-19 1.24977e-07 0)
(7.9854e-19 1.3076e-07 0)
(8.34865e-19 1.35061e-07 0)
(8.7228e-19 1.4097e-07 0)
(9.10838e-19 1.45494e-07 0)
(9.49173e-19 1.51547e-07 0)
(9.89143e-19 1.56323e-07 0)
(1.03358e-18 1.62544e-07 0)
(1.07313e-18 1.67606e-07 0)
(1.12216e-18 1.74021e-07 0)
(1.16259e-18 1.79404e-07 0)
(1.21306e-18 1.86046e-07 0)
(1.25979e-18 1.91783e-07 0)
(1.30988e-18 1.98684e-07 0)
(1.35973e-18 2.04808e-07 0)
(1.41932e-18 2.11999e-07 0)
(1.47056e-18 2.18537e-07 0)
(1.52981e-18 2.26043e-07 0)
(1.58219e-18 2.33015e-07 0)
(1.64775e-18 2.40853e-07 0)
(1.71091e-18 2.48265e-07 0)
(1.77615e-18 2.56442e-07 0)
(1.84352e-18 2.64288e-07 0)
(1.91307e-18 2.72796e-07 0)
(1.98215e-18 2.81052e-07 0)
(2.05892e-18 2.89869e-07 0)
(2.13525e-18 2.98496e-07 0)
(2.21384e-18 3.07583e-07 0)
(2.30069e-18 3.16527e-07 0)
(2.37797e-18 3.25834e-07 0)
(2.46337e-18 3.35027e-07 0)
(2.55079e-18 3.44493e-07 0)
(2.64009e-18 3.53861e-07 0)
(2.73113e-18 3.63417e-07 0)
(2.83081e-18 3.72882e-07 0)
(2.90997e-18 3.82459e-07 0)
(3.0122e-18 3.91943e-07 0)
(3.1079e-18 4.01473e-07 0)
(3.204e-18 4.10904e-07 0)
(3.30021e-18 4.20327e-07 0)
(3.40431e-18 4.29641e-07 0)
(3.49088e-18 4.38902e-07 0)
(3.58446e-18 4.48043e-07 0)
(3.67637e-18 4.57095e-07 0)
(3.76606e-18 4.66019e-07 0)
(3.85303e-18 4.74822e-07 0)
(3.93673e-18 4.83493e-07 0)
(4.01664e-18 4.92012e-07 0)
(4.09224e-18 5.00401e-07 0)
(4.16301e-18 5.08612e-07 0)
(4.22846e-18 5.16682e-07 0)
(4.28812e-18 5.24611e-07 0)
(4.34155e-18 5.32266e-07 0)
(4.38834e-18 5.40123e-07 0)
(4.42825e-18 5.47207e-07 0)
(4.48234e-18 5.55236e-07 0)
(4.4852e-18 5.63926e-07 0)
(4.50179e-18 5.71349e-07 0)
(4.51062e-18 5.78224e-07 0)
(4.51424e-18 2.35094e-07 0)
(4.52995e-18 1.33751e-06 0)
(5.29254e-18 3.33947e-05 0)
(7.01169e-18 3.53347e-06 0)
(8.68883e-18 -3.51218e-06 0)
(1.02969e-17 -5.07531e-07 0)
(1.1811e-17 7.05136e-08 0)
(1.32082e-17 1.72886e-08 0)
(1.44682e-17 8.07487e-10 0)
(1.55734e-17 -8.25458e-11 0)
(1.65089e-17 -7.1554e-12 0)
(1.72634e-17 9.97949e-12 0)
(1.78286e-17 2.23455e-12 0)
(1.81995e-17 -4.52514e-13 0)
(1.8374e-17 -9.57846e-14 0)
(1.83532e-17 -1.89897e-13 0)
(1.81408e-17 -2.93499e-13 0)
(1.77429e-17 1.65396e-14 0)
(1.71674e-17 2.26215e-14 0)
(1.64244e-17 2.07729e-13 0)
(1.5525e-17 2.94461e-13 0)
(1.44816e-17 -1.17726e-13 0)
(1.33073e-17 -1.24398e-13 0)
(1.20158e-17 -2.09253e-13 0)
(1.06209e-17 -8.11207e-14 0)
(9.13676e-18 1.22167e-13 0)
(7.57743e-18 1.07231e-13 0)
(5.95685e-18 9.70093e-14 0)
(4.28887e-18 -4.78134e-16 0)
(2.58716e-18 -4.63729e-14 0)
(8.65274e-19 -4.62993e-14 0)
)
;

boundaryField
{
    inlet
    {
        type            cyclic;
    }
    outlet
    {
        type            cyclic;
    }
    top
    {
        type            fixedValue;
        value           uniform (0 0 0);
    }
    bottom
    {
        type            fixedValue;
        value           uniform (0 0 0);
    }
    frontAndBackPlanes
    {
        type            empty;
    }
}


// ************************************************************************* //
