/*--------------------------------*- C++ -*----------------------------------*\
| =========                 |                                                 |
| \\      /  F ield         | OpenFOAM: The Open Source CFD Toolbox           |
|  \\    /   O peration     | Version:  2206                                  |
|   \\  /    A nd           | Website:  www.openfoam.com                      |
|    \\/     M anipulation  |                                                 |
\*---------------------------------------------------------------------------*/
FoamFile
{
    version     2.0;
    format      ascii;
    arch        "LSB;label=32;scalar=64";
    class       volScalarField;
    location    "2.8";
    object      alpha.a;
}
// * * * * * * * * * * * * * * * * * * * * * * * * * * * * * * * * * * * * * //

dimensions      [0 0 0 0 0 0 0];

internalField   nonuniform List<scalar> 
13078
(
0.4306159
0.5496894
0.5786515
0.5805777
0.5803657
0.579691
0.5788597
0.5595349
0.5778798
0.5809742
0.5809567
0.5804302
0.5797221
0.578885
0.580848
0.581708
0.5816737
0.5811666
0.5805165
0.5797767
0.5789253
0.5832815
0.5825291
0.5819375
0.5813028
0.5806055
0.5798384
0.5789724
0.5835804
0.5827528
0.582069
0.58139
0.5806829
0.5798989
0.57902
0.5835436
0.5827948
0.5821326
0.5814504
0.5807301
0.5799496
0.5790651
0.5834788
0.5827914
0.5821595
0.5814859
0.5807643
0.5799778
0.5791029
0.5834282
0.5827729
0.5821675
0.5815031
0.5807838
0.5799981
0.579121
0.5833908
0.5827527
0.5821632
0.581508
0.5807939
0.5800106
0.5791345
0.5833633
0.5827346
0.582155
0.5815076
0.5807982
0.5800179
0.5791433
0.5833425
0.5827192
0.5821461
0.5815044
0.580799
0.5800218
0.5791492
0.5833257
0.5827066
0.5821374
0.5814998
0.5807978
0.5800234
0.5791529
0.583312
0.5826956
0.5821293
0.5814948
0.5807955
0.5800236
0.5791551
0.5833002
0.5826861
0.5821218
0.5814897
0.5807927
0.580023
0.5791565
0.5832898
0.5826775
0.5821151
0.5814889
0.5807953
0.5800226
0.5791574
0.5832802
0.5826695
0.5821088
0.5814886
0.5807958
0.5800217
0.579158
0.5832709
0.5826617
0.5821023
0.5814843
0.580793
0.5800204
0.5791584
0.5832617
0.582654
0.5820958
0.5814795
0.5807899
0.5800189
0.5791588
0.5832524
0.5826462
0.5820893
0.5814746
0.5807866
0.5800176
0.5791589
0.5832426
0.5826382
0.5820827
0.5814701
0.5807898
0.5800246
0.5791604
0.5832322
0.5826295
0.5820756
0.5814652
0.5807929
0.5800282
0.5791616
0.5832209
0.5826202
0.5820678
0.5814592
0.5807902
0.5800271
0.5791621
0.5832085
0.5826101
0.5820594
0.581453
0.5807862
0.5800258
0.5791633
0.5831948
0.5825987
0.58205
0.5814461
0.5807827
0.5800334
0.5791764
0.5831793
0.5825861
0.5820395
0.5814385
0.5807785
0.5800407
0.5791842
0.583162
0.5825719
0.5820279
0.5814298
0.580773
0.5800405
0.5791865
0.5831423
0.5825559
0.5820147
0.5814201
0.5807667
0.5800384
0.5791887
0.5831202
0.5825379
0.582
0.5814091
0.5807598
0.5800363
0.5792035
0.5830949
0.5825174
0.5819835
0.5813967
0.5807517
0.5800327
0.5792166
0.5830689
0.582497
0.5819659
0.5813831
0.5807422
0.5800272
0.5792188
0.5830387
0.5824732
0.5819461
0.5813682
0.5807316
0.5800204
0.5792173
0.5830053
0.5824514
0.5819309
0.5813531
0.5807197
0.5800119
0.5792121
0.58297
0.5824279
0.5819179
0.581347
0.5807105
0.5800042
0.5792053
0.5829351
0.5824057
0.5819077
0.5813392
0.580707
0.5800058
0.579207
0.5829043
0.5823945
0.5819122
0.5813667
0.5807482
0.5800408
0.5792371
0.5828892
0.5824081
0.581956
0.5814476
0.5808588
0.5801579
0.579326
0.5829017
0.5824775
0.5820834
0.5816207
0.5810596
0.580318
0.5794269
0.5829669
0.5826464
0.5823148
0.5818664
0.5812965
0.5805087
0.5794856
0.5831233
0.5829087
0.582604
0.5821408
0.5815214
0.5806995
0.5794763
0.5833955
0.5832246
0.582901
0.5824106
0.5817343
0.5808456
0.5795402
0.5837542
0.583543
0.5832192
0.5826571
0.5819508
0.5810128
0.5797224
0.5841811
0.5838258
0.5835095
0.5829458
0.5821704
0.5812533
0.5801877
0.5846222
0.5840854
0.5837466
0.5832096
0.5825241
0.5817006
0.5809907
0.5850421
0.5842471
0.5839674
0.583429
0.5829169
0.5824042
0.5817799
0.5853188
0.5843387
0.5840919
0.5836906
0.5833358
0.5830879
0.5827266
0.5854253
0.5843792
0.5842275
0.5839909
0.5837749
0.583617
0.5834054
0.5854427
0.5844439
0.5843901
0.5842378
0.5842058
0.5840931
0.5837449
0.5854813
0.5846362
0.5846755
0.5845245
0.5846286
0.5844355
0.5840783
0.5855605
0.5849146
0.5850198
0.584894
0.584942
0.5847263
0.5842412
0.5856845
0.5851977
0.5853447
0.585248
0.5852858
0.5849328
0.5842544
0.5858556
0.5855187
0.5856097
0.5854987
0.5854644
0.5849757
0.5843605
0.5859888
0.5857369
0.5858997
0.5858106
0.5856311
0.585004
0.5846229
0.5860207
0.5858142
0.5859572
0.5858128
0.5855661
0.5850346
0.5848878
0.5859636
0.585769
0.5858899
0.585693
0.5854205
0.5850302
0.5850704
0.5858601
0.5856642
0.5857531
0.5855341
0.5853043
0.5850685
0.5851466
0.5857202
0.5855021
0.5855729
0.5853852
0.5852419
0.5850997
0.5851343
0.5855002
0.5852135
0.5852858
0.5851694
0.5851331
0.5850131
0.5850196
0.5852952
0.5849719
0.5850796
0.585039
0.5850754
0.5849227
0.5849169
0.5850873
0.5847236
0.5848573
0.5848598
0.5849373
0.5847465
0.5847094
0.5848433
0.5844165
0.5845469
0.5845741
0.5846744
0.5845091
0.5844413
0.5845831
0.5840966
0.5841691
0.5841753
0.5843111
0.5841429
0.5839742
0.584337
0.5837958
0.5838547
0.5838217
0.5839787
0.5838313
0.5835687
0.5841398
0.5835193
0.583543
0.5833822
0.5835142
0.5834225
0.5830417
0.5840268
0.5833006
0.5832501
0.5829811
0.583034
0.582948
0.5826834
0.5840141
0.5831813
0.5830389
0.5826455
0.5826053
0.5825307
0.5822328
0.5841179
0.5831708
0.5829051
0.5824274
0.5820582
0.5818789
0.5816009
0.584221
0.5832648
0.5828288
0.5822403
0.5815425
0.5811664
0.5810869
0.5842043
0.583324
0.5827657
0.582044
0.5811994
0.580524
0.5802908
0.5840174
0.5833208
0.582742
0.5819377
0.5810002
0.5800201
0.5792909
0.5837299
0.5832393
0.5826863
0.5818802
0.5808941
0.5797247
0.5786108
0.5834421
0.5830826
0.5825891
0.5818442
0.5808855
0.5796998
0.578305
0.5831889
0.5829044
0.5824654
0.5818039
0.5809455
0.5798404
0.5784843
0.5830032
0.5827048
0.5823028
0.5817367
0.5809865
0.5800495
0.5787207
0.582899
0.5825239
0.5821304
0.5816108
0.5809607
0.5801387
0.578999
0.5828638
0.5824053
0.5819745
0.5814686
0.5808679
0.5801031
0.5791491
0.5828656
0.5823597
0.5818827
0.5813528
0.5807428
0.5800145
0.5791581
0.5828884
0.5823563
0.5818551
0.5813001
0.5806667
0.5799462
0.5791252
0.5829237
0.5823752
0.5818625
0.5812887
0.5806458
0.5799232
0.5791137
0.5829605
0.5824035
0.5818831
0.5812961
0.5806481
0.5799332
0.5791268
0.5829965
0.5824327
0.5819044
0.5813172
0.5806689
0.5799531
0.5791471
0.5830308
0.5824587
0.5819231
0.5813328
0.5806889
0.5799725
0.5791651
0.5830617
0.5824822
0.5819425
0.5813537
0.5807078
0.5799887
0.5791784
0.5830887
0.5825056
0.5819647
0.5813728
0.5807241
0.5800021
0.5791874
0.5831119
0.5825257
0.5819837
0.5813896
0.5807379
0.5800132
0.5791924
0.5831344
0.5825454
0.5820011
0.5814043
0.5807495
0.5800212
0.5791842
0.5831542
0.5825625
0.5820163
0.5814169
0.5807593
0.580027
0.5791744
0.5831718
0.5825777
0.5820297
0.5814278
0.5807675
0.580032
0.5791756
0.5831873
0.582591
0.5820414
0.5814372
0.5807745
0.5800346
0.5791762
0.5832012
0.5826027
0.5820517
0.5814456
0.58078
0.5800284
0.5791698
0.5832136
0.5826134
0.5820609
0.5814528
0.5807843
0.5800226
0.5791587
0.5832249
0.5826228
0.5820691
0.5814592
0.5807889
0.5800248
0.5791588
0.5832352
0.5826315
0.5820766
0.5814651
0.580792
0.5800266
0.5791593
0.5832446
0.5826395
0.5820833
0.5814699
0.5807887
0.5800231
0.5791587
0.5832534
0.5826468
0.5820895
0.5814742
0.580786
0.5800165
0.5791577
0.5832618
0.5826539
0.5820954
0.5814789
0.5807892
0.580018
0.579158
0.58327
0.5826607
0.5821013
0.5814833
0.5807922
0.5800197
0.5791581
0.5832782
0.5826676
0.5821072
0.5814874
0.5807951
0.5800213
0.5791579
0.5832865
0.5826746
0.5821127
0.5814871
0.5807943
0.5800224
0.5791576
0.5832953
0.5826819
0.5821186
0.5814877
0.5807918
0.5800229
0.5791572
0.583305
0.58269
0.5821252
0.5814924
0.5807947
0.5800241
0.5791566
0.5833161
0.5826992
0.5821324
0.5814973
0.5807974
0.5800248
0.5791554
0.5833293
0.5827097
0.5821401
0.5815021
0.5807996
0.5800246
0.5791534
0.5833454
0.582722
0.5821485
0.5815065
0.5808008
0.5800232
0.5791499
0.5833657
0.582737
0.5821572
0.5815096
0.5808001
0.5800195
0.5791443
0.5833924
0.5827548
0.5821649
0.5815103
0.5807961
0.5800123
0.5791353
0.5834289
0.5827747
0.5821664
0.5815037
0.580786
0.5799997
0.5791225
0.5834787
0.5827934
0.5821601
0.5814864
0.580766
0.5799809
0.5790909
0.5835426
0.5827985
0.5821374
0.5814543
0.5807361
0.5799408
0.5790518
0.5835843
0.5827603
0.5820757
0.5814007
0.5806775
0.5798893
0.5790079
0.5833053
0.582548
0.5819607
0.5813018
0.5806005
0.5798307
0.5789602
0.581107
0.5818086
0.5816811
0.5811681
0.5805149
0.5797692
0.5789126
0.5616369
0.5787758
0.5812187
0.580983
0.5804211
0.5797095
0.5788685
0.5778668
0.5766198
0.574956
0.573375
0.5705593
0.5661274
0.5558305
0.577892
0.57665
0.574993
0.5734174
0.5706115
0.566199
0.5562538
0.5779265
0.5766854
0.5750378
0.5728701
0.5706618
0.566267
0.556471
0.5779658
0.5767228
0.5750744
0.5735179
0.5707129
0.5663357
0.5566615
0.5780062
0.5767623
0.575118
0.5735698
0.5707663
0.5664044
0.5567892
0.5780456
0.5768021
0.5751621
0.5736201
0.5708185
0.5664721
0.5569049
0.5780827
0.5768404
0.5752052
0.5736673
0.5708341
0.5665391
0.5570116
0.5781144
0.5768772
0.5752468
0.5737132
0.5708487
0.5666053
0.5571053
0.5781273
0.5769094
0.575286
0.5737584
0.5708908
0.5666648
0.5571957
0.5781372
0.5769204
0.5753211
0.5738028
0.5709316
0.5667241
0.5572785
0.5781442
0.5769289
0.5753318
0.5738449
0.5709722
0.5667836
0.5573558
0.5781495
0.5769358
0.5753401
0.5738544
0.5710129
0.5668434
0.5574285
0.5781535
0.5769417
0.5753478
0.5738629
0.5710198
0.566905
0.5574961
0.5781568
0.5769471
0.5753553
0.5738715
0.5710277
0.5669155
0.5575461
0.5781595
0.5769522
0.5753628
0.5738804
0.5710363
0.5669291
0.5574999
0.5781621
0.5769573
0.5753703
0.5738897
0.5710458
0.5669442
0.5574341
0.5781646
0.5769624
0.575378
0.5738999
0.5710607
0.5669603
0.5573807
0.578167
0.5769675
0.5753862
0.5739148
0.5711765
0.5669782
0.5573138
0.5781695
0.5769726
0.5753947
0.5739263
0.5711975
0.5669967
0.5572536
0.5781723
0.576978
0.5754037
0.5739384
0.5712126
0.5670165
0.5571873
0.5781751
0.5769837
0.575413
0.5739514
0.5712285
0.5670374
0.5571032
0.5781783
0.5769898
0.5754224
0.5739654
0.5712455
0.5670595
0.5570317
0.5781815
0.5769967
0.5754333
0.5739774
0.5712679
0.5670827
0.556958
0.5781871
0.5770045
0.5754479
0.5734273
0.571398
0.5671198
0.5568866
0.5781923
0.5770121
0.5754583
0.5740036
0.5714518
0.5671512
0.5568189
0.5781969
0.5770206
0.5754721
0.5740335
0.5714797
0.5671814
0.5567509
0.5782039
0.5770316
0.5754893
0.5740572
0.5715084
0.5672155
0.5566797
0.5782274
0.5770455
0.5755057
0.574082
0.571547
0.5674611
0.5566196
0.5782364
0.5773826
0.5759306
0.574088
0.5715854
0.5675588
0.5565774
0.5782431
0.5773972
0.5759609
0.5741194
0.5716251
0.5676024
0.5565439
0.5782748
0.5774327
0.575979
0.5741494
0.5716679
0.5677989
0.5565543
0.5782847
0.5774588
0.5759953
0.5741806
0.5717095
0.5679927
0.5566215
0.5782808
0.5775125
0.5760161
0.5742058
0.5717455
0.5680507
0.5568146
0.5782752
0.577519
0.5760425
0.5742085
0.5717576
0.5681414
0.5585578
0.5782801
0.5775087
0.5760448
0.5741638
0.5717075
0.5683331
0.5597629
0.5782842
0.5774809
0.5760137
0.5739543
0.5715053
0.5686767
0.5639788
0.5782251
0.5773416
0.5756691
0.5734487
0.5711269
0.5686615
0.5638335
0.5780502
0.5770039
0.5751705
0.5731425
0.5706145
0.5674379
0.5641342
0.5777932
0.5765628
0.5746941
0.5727286
0.56976
0.5669128
0.5640113
0.5776993
0.5762221
0.5745052
0.572471
0.5701567
0.5675286
0.5633946
0.5779348
0.5764206
0.575096
0.5728131
0.5712305
0.5685149
0.562867
0.5789163
0.5774978
0.5756422
0.5736913
0.5723385
0.5696612
0.5637415
0.5799331
0.5783557
0.5762548
0.5750656
0.5733978
0.5707292
0.5645119
0.5808363
0.579142
0.5769112
0.5763751
0.5748708
0.5716276
0.5663974
0.5817024
0.5802898
0.5781696
0.577463
0.5757162
0.5726576
0.5676127
0.5825742
0.5812529
0.5793341
0.578634
0.5764149
0.574026
0.5688149
0.5831038
0.5819586
0.5805175
0.5795408
0.5778088
0.5745094
0.5703502
0.5831832
0.5822585
0.581347
0.5805366
0.5783727
0.5762759
0.5726205
0.5833683
0.5826404
0.5822303
0.5810934
0.5792251
0.5765757
0.5737236
0.5836865
0.5833496
0.5827981
0.5815982
0.579849
0.5774869
0.5737523
0.5841406
0.584001
0.583274
0.5820588
0.5803791
0.5780662
0.5742221
0.5845914
0.584422
0.5836887
0.5826254
0.5812327
0.5788343
0.5753614
0.5848071
0.5846229
0.5839316
0.5829403
0.5815208
0.5795287
0.5770459
0.5850178
0.5847513
0.5839669
0.5828496
0.5817665
0.5798535
0.5774477
0.585051
0.5847753
0.5840685
0.5830468
0.5819334
0.5814885
0.5801699
0.5850637
0.5846793
0.5840553
0.5832389
0.5823732
0.5813381
0.5849082
0.584508
0.5838474
0.5831082
0.5822917
0.5812128
0.5847116
0.5843508
0.5835655
0.5826957
0.5816986
0.5804329
0.5843948
0.5841524
0.5832397
0.5823793
0.5811529
0.5796344
0.5771902
0.584056
0.5838812
0.5828978
0.58185
0.5806388
0.5782719
0.5746883
0.5835528
0.5833727
0.5823252
0.5811078
0.5795165
0.5775177
0.5743719
0.5832719
0.5830272
0.5821386
0.5809277
0.5794583
0.5771064
0.5733949
0.5828506
0.5826
0.5817924
0.5805098
0.5789936
0.576647
0.5728577
0.582325
0.5822107
0.5813337
0.5801874
0.5782105
0.5759632
0.5728819
0.5816678
0.5817297
0.5807281
0.5790342
0.5775869
0.5753809
0.5706778
0.5810983
0.58107
0.5798808
0.5785369
0.576506
0.5744045
0.5692675
0.580386
0.5802835
0.5792563
0.5773949
0.5757301
0.5724117
0.5676225
0.5795495
0.5793583
0.5781445
0.5767832
0.5743555
0.5717102
0.5664766
0.5787444
0.578437
0.5772408
0.5756812
0.5738026
0.5705331
0.5651024
0.5776285
0.5775221
0.5765206
0.5749488
0.5727359
0.5695223
0.5632617
0.5767315
0.5763529
0.5757249
0.5742773
0.5717745
0.568767
0.562773
0.576442
0.5751789
0.5747947
0.5735025
0.5713913
0.5686449
0.5630246
0.5769291
0.5751835
0.5738872
0.572559
0.5709468
0.5681081
0.5632318
0.5775411
0.5759567
0.5744376
0.5724293
0.5701012
0.5673919
0.5633131
0.5779459
0.5767112
0.5752705
0.5734173
0.5707474
0.5677578
0.5635795
0.5781099
0.5771372
0.5757818
0.5737894
0.5713967
0.5685418
0.5623722
0.5781568
0.5772917
0.575994
0.5740568
0.5716068
0.5685149
0.5614152
0.5781752
0.5773428
0.5760221
0.5741136
0.5716842
0.5681702
0.5585804
0.5781967
0.5773724
0.5759766
0.5741261
0.5716934
0.5680503
0.5576401
0.5782184
0.5773936
0.5759453
0.5741238
0.571675
0.5680038
0.5571366
0.5782315
0.5773738
0.5759361
0.5741111
0.5716467
0.5679483
0.556249
0.5782295
0.5773495
0.5759277
0.5740956
0.5716165
0.5678702
0.556301
0.5782075
0.5773213
0.5759221
0.5740798
0.5715875
0.5675939
0.5563681
0.5782087
0.5773196
0.5759137
0.5740651
0.5715604
0.5675398
0.5564536
0.5782047
0.5770212
0.5754799
0.5740217
0.5715332
0.5675044
0.5565363
0.5781868
0.5770131
0.5754695
0.5740098
0.5715022
0.5672883
0.5566213
0.5781838
0.5770063
0.5754578
0.573996
0.5714756
0.5671813
0.5567142
0.5781824
0.5770011
0.5754476
0.5739829
0.5714524
0.5671549
0.5567988
0.5781795
0.5769958
0.5754377
0.5739703
0.5714262
0.5671303
0.5568878
0.578176
0.5769908
0.5754284
0.5739578
0.5713007
0.5670962
0.5569659
0.5781744
0.5769859
0.5754194
0.5739458
0.5712503
0.5670697
0.5570473
0.5781725
0.576981
0.5754107
0.5739345
0.5712348
0.5670489
0.5571292
0.5781705
0.5769763
0.5754024
0.5739234
0.5712197
0.5670288
0.5572058
0.5781683
0.5769717
0.5753942
0.5739128
0.5712054
0.5670095
0.55728
0.5781664
0.5769673
0.5753865
0.5739024
0.5711918
0.5669912
0.5573457
0.5781644
0.5769627
0.5753789
0.5738902
0.5711285
0.5669735
0.5574065
0.5781624
0.576958
0.5753716
0.5738785
0.571053
0.5669569
0.5574661
0.5781603
0.5769536
0.5753647
0.5738691
0.5710437
0.5669414
0.5575326
0.5781582
0.5769491
0.5753579
0.5738597
0.5710349
0.566927
0.5575387
0.5781557
0.5769445
0.5753511
0.5738506
0.571027
0.5669139
0.557554
0.5781528
0.5769396
0.5753442
0.5738414
0.5710192
0.5668782
0.557481
0.5781491
0.576934
0.575337
0.5738318
0.5709964
0.5668178
0.5574026
0.5781441
0.5769273
0.5753274
0.5738061
0.5709562
0.5667577
0.5573185
0.578137
0.5769183
0.5752936
0.5737615
0.5709158
0.5666979
0.5572322
0.5781273
0.5768885
0.5752563
0.5737162
0.5708751
0.566638
0.5571384
0.5780994
0.5768543
0.5752163
0.5736697
0.5708356
0.5665749
0.5570405
0.5780662
0.5768181
0.5751747
0.5736246
0.5708471
0.5665078
0.5569372
0.5780298
0.5767798
0.5751316
0.5735768
0.5707969
0.5664402
0.5568254
0.5779903
0.5767397
0.5750875
0.5735293
0.5707444
0.5663721
0.5567006
0.577949
0.5766992
0.5750433
0.5734825
0.5706915
0.5663032
0.5565447
0.5779087
0.5766602
0.5750001
0.5734376
0.5706385
0.5662335
0.5563321
0.5778713
0.5766223
0.5749578
0.5733949
0.5705856
0.5661627
0.5559904
0.003855312
4.653527e-11
3.024881e-16
1.273611e-21
5.982236e-27
1.41257e-32
1.455731e-39
8.055786e-46
2.782042e-50
1.690891e-54
5.581561e-59
1.115676e-63
1.473648e-68
1.402235e-73
1.163656e-78
1.755205e-83
2.406017e-88
3.040127e-93
0.009570592
5.019001e-12
8.553525e-19
2.600139e-25
1.041262e-31
1.08609e-36
9.839447e-42
3.856295e-46
3.417617e-50
1.618463e-54
3.7142e-59
4.838821e-64
3.832499e-69
1.902333e-74
9.081493e-80
7.167103e-85
4.207879e-90
2.321965e-95
0.01147887
9.328061e-12
2.432177e-18
8.730975e-25
4.374246e-31
2.83532e-36
2.32838e-41
7.974563e-46
5.301173e-50
1.919177e-54
3.185469e-59
2.763079e-64
1.343652e-69
3.633681e-75
9.341896e-81
4.3049e-86
1.756408e-91
6.986458e-97
0.01243425
1.565027e-11
5.259608e-18
2.386044e-24
1.017399e-30
7.204983e-36
5.268212e-41
1.269262e-45
6.928892e-50
1.981369e-54
2.299898e-59
1.224059e-64
3.128341e-70
4.055623e-76
6.023785e-82
2.125203e-87
4.792165e-93
1.304174e-98
0.01335245
2.343855e-11
9.067221e-18
5.876064e-24
1.916049e-30
1.726725e-35
1.202659e-40
1.858154e-45
8.435348e-50
1.819037e-54
1.329143e-59
3.640975e-65
4.027058e-71
2.409769e-77
0
4.693019e-90
9.752365e-95
6.22836e-100
0.01422273
3.635405e-11
1.510584e-17
1.334824e-23
3.085562e-30
3.825953e-35
2.682971e-40
3.74881e-45
1.107269e-49
1.45753e-54
5.659082e-60
6.576236e-66
3.186557e-72
9.100824e-79
5.97019e-85
2.263371e-90
1.935857e-95
6.122382e-101
0.01508252
5.064868e-11
2.483748e-17
2.532376e-23
5.707646e-30
7.875624e-35
5.777261e-40
7.671543e-45
1.821545e-49
1.233541e-54
1.959564e-60
1.105395e-66
4.919519e-73
2.231662e-79
1.191389e-85
2.029647e-90
6.564599e-96
5.920891e-102
0.01591043
7.707546e-11
3.557492e-17
3.57252e-23
1.447797e-29
1.527212e-34
1.191566e-39
1.334788e-44
2.390922e-49
9.17958e-55
8.699901e-61
5.990641e-67
3.820274e-73
2.449798e-79
2.228208e-85
2.341923e-90
1.852744e-96
8.268084e-103
0.01671404
6.882138e-11
3.740155e-17
4.152849e-23
3.548012e-29
2.849957e-34
2.373008e-39
2.171856e-44
2.618696e-49
7.188028e-55
8.072371e-61
8.139001e-67
7.271973e-73
5.629177e-79
6.101776e-85
2.537682e-90
1.376152e-96
6.31074e-103
0.01753858
4.90025e-11
3.776729e-17
4.621633e-23
7.299436e-29
5.211651e-34
4.655819e-39
3.297057e-44
2.674619e-49
6.753219e-55
1.026145e-60
1.383814e-66
1.487688e-72
1.217887e-78
1.404951e-84
3.440702e-90
2.176484e-96
1.314366e-102
0.01835003
4.046826e-11
4.981412e-17
5.11486e-23
1.368734e-28
9.388493e-34
9.045048e-39
8.852546e-44
3.034024e-49
6.161156e-55
1.04666e-60
1.571001e-66
1.88191e-72
1.830037e-78
2.344812e-84
6.813508e-90
3.971754e-96
2.77279e-102
0.01911511
4.927427e-11
1.317178e-16
7.094918e-23
2.419644e-28
1.642944e-33
1.694093e-38
1.900833e-43
4.278048e-49
8.006665e-55
1.401747e-60
2.081431e-66
2.428856e-72
2.367426e-78
6.104053e-84
1.99321e-89
8.028477e-96
6.742258e-102
0.01989029
1.199568e-10
2.795391e-16
1.24003e-22
3.975646e-28
2.762276e-33
2.943598e-38
3.516116e-43
9.078926e-49
1.962763e-54
3.495059e-60
5.138916e-66
5.869535e-72
5.839373e-78
3.654853e-83
1.351097e-88
2.425701e-95
2.387386e-101
0.02083151
5.718296e-10
2.433166e-16
3.234105e-22
5.857109e-28
4.439981e-33
4.627202e-38
5.779418e-43
2.125485e-48
5.252934e-54
1.056617e-59
1.608324e-65
1.867735e-71
1.986463e-77
3.054823e-82
1.280343e-87
1.078424e-94
1.134573e-100
0.02601722
2.225139e-09
1.313245e-16
6.308213e-22
7.892883e-28
6.752982e-33
6.558246e-38
8.331745e-43
4.006201e-48
1.183559e-53
2.816125e-59
4.819115e-65
6.218801e-71
7.79048e-77
2.57537e-81
8.939401e-87
5.737426e-94
6.515225e-100
0.02688782
0
1.143831e-16
6.984425e-22
1.016971e-27
9.25857e-33
8.403071e-38
1.057353e-42
5.205302e-48
2.157833e-53
6.534294e-59
1.359918e-64
2.142411e-70
3.453476e-76
2.146392e-80
2.090002e-86
3.268575e-93
4.475254e-99
0.02846153
6.902123e-10
0
8.738026e-22
1.176544e-27
1.102734e-32
9.763587e-38
1.196974e-42
5.581078e-48
3.416032e-53
1.380026e-58
3.641639e-64
7.498653e-70
1.666249e-75
1.890481e-79
2.679266e-86
1.905131e-92
3.727586e-98
0.03027766
9.942877e-10
5.624424e-15
0
9.972935e-28
1.241489e-32
1.029229e-37
1.222158e-42
5.660887e-48
5.231086e-53
2.961154e-58
9.52939e-64
2.590163e-69
8.394158e-75
1.758795e-78
5.655366e-87
1.086476e-91
3.607043e-97
0.03224837
1.419968e-09
8.091609e-15
2.245726e-20
1.109379e-27
2.104845e-32
8.927235e-38
8.861168e-43
5.258938e-48
5.404454e-53
5.715801e-58
2.316573e-63
8.313641e-69
4.337907e-74
1.58123e-77
0
5.816928e-91
4.204747e-96
0.03421007
2.062092e-09
1.168124e-14
3.6061e-20
3.902314e-25
0
1.083804e-37
3.021946e-43
5.153704e-48
5.214127e-53
6.088842e-58
5.120007e-63
2.357628e-68
2.444721e-73
1.259395e-76
0
4.514878e-90
5.897112e-95
0.03614545
3.002911e-09
1.682526e-14
5.787012e-20
6.986185e-25
4.444168e-30
0
2.980986e-42
7.880962e-48
6.090308e-53
5.024518e-58
8.982594e-63
5.229622e-68
1.669974e-72
4.699642e-76
0
1.815576e-88
1.016384e-93
0.03814907
4.246976e-09
2.400634e-14
9.165632e-20
1.257638e-24
7.741963e-30
4.794643e-35
3.101295e-41
1.348005e-47
6.156734e-53
3.482273e-58
9.062964e-63
6.291519e-68
1.377113e-71
3.558771e-75
4.085361e-82
1.781607e-86
2.715727e-92
0.04027933
5.729547e-09
3.408204e-14
1.453591e-19
2.269597e-24
1.463562e-29
1.01637e-34
8.874809e-40
0
1.603207e-53
4.405317e-58
5.623988e-63
1.249591e-67
1.168694e-70
3.127342e-74
1.439809e-80
1.855477e-84
1.279374e-90
0.04253609
7.992325e-09
4.829206e-14
2.326998e-19
4.149314e-24
3.137714e-29
2.399646e-34
2.133891e-39
4.435348e-45
1.318682e-53
5.086611e-57
1.821456e-63
1.092125e-66
9.124009e-70
3.291424e-73
9.446552e-79
1.835651e-82
8.165724e-89
0.04498866
1.082863e-08
6.832953e-14
3.787945e-19
7.861646e-24
9.155363e-29
7.417505e-34
6.700654e-39
1.38294e-44
5.83424e-50
4.843399e-56
2.535079e-64
1.568192e-65
8.091399e-69
3.746071e-72
7.272849e-77
1.696971e-80
5.126197e-87
0.0475427
1.4144e-08
9.613697e-14
6.286527e-19
1.607133e-23
1.557431e-28
1.391593e-33
1.224215e-38
7.020214e-44
1.41487e-49
1.365619e-54
0
4.363821e-64
1.885468e-67
7.178491e-71
5.591363e-75
1.455488e-78
2.549044e-85
0.05030249
1.777155e-08
1.204403e-13
7.441988e-19
3.700015e-23
2.236215e-28
2.025702e-33
1.640604e-38
4.35884e-43
3.366509e-49
3.455349e-54
3.9761e-59
2.383578e-62
1.095777e-65
1.517703e-69
3.990696e-73
1.150126e-76
9.87801e-84
0.05326539
1.861535e-08
1.31686e-13
7.4112e-19
7.315874e-23
2.855731e-28
2.76769e-33
2.701892e-38
2.103932e-42
8.332978e-49
8.805707e-54
7.996732e-58
1.526817e-60
7.774039e-64
9.25801e-68
2.62157e-71
8.310418e-75
7.661643e-82
0.05640612
1.545681e-08
1.476813e-13
6.982678e-19
8.368793e-23
4.286569e-28
3.66455e-33
4.502184e-38
4.877859e-42
2.876972e-48
6.4878e-53
4.31395e-56
9.365081e-59
5.385259e-62
5.0649e-66
1.581982e-69
5.446902e-73
2.137395e-79
0.05983383
1.412294e-08
2.323758e-13
7.058728e-19
1.410423e-22
1.139495e-27
7.455691e-33
6.496582e-38
3.220573e-42
1.571191e-47
2.293549e-51
2.441908e-54
5.309752e-57
9.557052e-61
2.70475e-64
8.819424e-68
3.212904e-71
2.754704e-77
0.06351469
2.950316e-08
5.243103e-13
6.940845e-19
5.931579e-22
1.785025e-27
1.887417e-32
8.767262e-38
3.768762e-42
1.239286e-46
1.087997e-49
1.306107e-52
2.753494e-55
4.748856e-59
1.269002e-62
4.663528e-66
1.701197e-69
8.695842e-76
0.06746558
7.639371e-08
6.101185e-13
1.498131e-18
0
2.801958e-27
4.511871e-32
1.341871e-37
7.838667e-42
2.770565e-45
4.983668e-48
6.531528e-51
1.308891e-53
2.32163e-57
5.220244e-61
2.191618e-64
8.598601e-68
3.422088e-75
0.07198632
1.22113e-07
5.205113e-13
8.35496e-18
2.339742e-22
4.652325e-27
6.216249e-32
1.949322e-37
3.686867e-41
1.019479e-43
2.10021e-46
3.026504e-49
5.629398e-52
6.673785e-56
1.844283e-59
9.133301e-63
3.793342e-66
0
0.07808104
2.25221e-07
4.297043e-13
2.127741e-17
2.794217e-22
7.431275e-27
7.385049e-32
5.822643e-37
1.244249e-39
3.710875e-42
8.049247e-45
1.282465e-47
2.122302e-50
1.695162e-54
5.5164e-58
3.355765e-61
1.383627e-64
0
0.09463849
0
5.678959e-13
3.437771e-17
2.568703e-22
9.139236e-27
8.865614e-32
1.506589e-35
4.12762e-38
1.239749e-40
2.777488e-43
4.884275e-46
7.137986e-49
5.079148e-53
1.341318e-56
1.116181e-59
1.268041e-63
4.195593e-69
0.1066774
0
1.02218e-12
3.256366e-17
9.116903e-23
2.415851e-27
4.493976e-31
4.342258e-34
1.343482e-36
3.627596e-39
8.502848e-42
1.626972e-44
1.741421e-47
1.559908e-51
2.532699e-55
3.433917e-58
4.241111e-62
5.416701e-68
0.131265
0
1.801581e-12
1.327713e-17
1.422525e-23
1.37955e-26
8.861032e-30
1.263738e-32
3.45547e-35
8.96783e-38
2.265521e-40
4.568481e-43
4.951044e-46
4.109388e-50
3.732695e-54
8.709452e-57
1.053261e-61
8.872798e-67
0.2376306
0
2.714552e-12
0
1.31311e-22
2.016068e-25
2.003582e-28
2.962368e-31
7.734955e-34
1.903273e-36
5.131434e-39
1.025101e-41
1.019124e-44
1.003154e-48
5.054501e-53
5.849002e-56
1.773277e-60
1.829909e-65
0.3762975
4.120461e-06
6.129441e-12
3.868938e-18
2.006576e-21
3.799951e-24
4.274091e-27
6.174454e-30
1.541187e-32
3.432717e-35
9.648286e-38
1.822616e-40
2.162245e-43
2.341893e-47
3.29691e-52
2.537848e-55
2.407574e-59
3.497743e-64
0.497584
1.395891e-05
1.549542e-11
2.068906e-17
3.765334e-20
6.693138e-23
8.12544e-26
1.133061e-28
2.763272e-31
5.244193e-34
1.471887e-36
9.121137e-40
4.167554e-42
5.242362e-46
3.394158e-51
3.560822e-54
3.393851e-58
4.930695e-63
0.5280258
0.0001006324
7.663735e-12
1.703504e-16
6.562815e-19
1.01027e-21
1.345983e-24
1.808688e-27
4.535907e-30
6.864219e-33
1.781509e-35
1.010908e-38
8.125914e-41
1.115794e-44
1.108725e-49
5.133352e-53
2.328941e-57
2.120105e-62
0.5355917
1.291253e-05
0
2.751275e-15
1.019478e-17
1.270718e-20
1.914466e-23
2.48759e-26
6.914294e-29
7.886117e-32
1.579885e-34
1.293895e-37
1.498831e-39
2.014134e-43
3.265928e-48
5.57824e-52
6.312308e-57
0
0.536787
0
5.440062e-11
4.09954e-14
1.381429e-16
1.275671e-19
2.294817e-22
2.907478e-25
9.638162e-28
8.192183e-31
8.765582e-34
1.180759e-36
2.500322e-38
1.000286e-42
2.30309e-47
4.391718e-51
0
0
0.542347
0.001022161
9.526658e-10
6.125453e-13
1.60902e-15
1.37112e-18
2.272611e-21
2.833075e-24
1.155295e-26
7.942512e-30
2.019653e-34
7.957664e-36
3.237802e-37
3.081755e-42
4.530972e-46
1.240884e-49
0
1.206638e-57
0.5450021
0.001415062
9.379927e-09
9.194237e-12
1.618518e-14
1.38392e-17
1.809584e-20
2.23127e-23
1.089326e-25
6.856751e-29
0
4.512931e-35
5.406944e-37
1.769749e-41
3.273038e-44
1.121775e-47
4.433486e-52
4.303888e-56
0.5469694
0.002427049
8.605568e-08
1.535792e-10
1.397619e-13
1.820601e-16
1.110441e-19
1.337394e-22
5.274785e-25
1.572969e-28
6.04416e-32
1.618646e-34
4.730862e-37
6.378576e-40
2.177025e-42
7.453934e-46
3.090514e-50
4.868304e-54
0.5507041
0.004817996
1.863329e-06
2.968324e-09
9.313602e-13
3.868525e-15
5.06083e-19
5.660937e-22
7.956466e-25
0
1.342176e-31
1.767001e-34
8.735158e-36
4.54498e-38
1.057405e-40
3.884031e-44
1.416371e-48
2.766942e-52
0.5583994
0.03014865
2.50355e-05
5.992634e-08
4.157796e-12
4.394735e-14
2.812747e-18
1.32617e-21
5.989319e-26
5.41825e-28
4.176643e-32
8.933379e-34
5.218827e-34
3.261657e-36
4.077894e-39
1.703457e-42
9.70139e-47
3.163333e-50
0.5639293
0.09203187
0.0002201236
6.986437e-07
3.078991e-11
4.580256e-14
2.517576e-18
1.410165e-21
1.056598e-24
2.116478e-29
9.625785e-32
4.48397e-32
3.236205e-32
2.011488e-34
1.353104e-37
6.058476e-41
5.668145e-45
1.186932e-48
0.5657963
0.2859671
0.001320404
5.582305e-06
1.438546e-25
2.34123e-29
1.034812e-29
2.057553e-30
1.668761e-30
1.198257e-32
3.459642e-36
1.773387e-39
1.894411e-43
1.360211e-46
0.5664999
0.5427778
6.083276e-28
1.057954e-28
7.072764e-29
6.451634e-31
6.849237e-35
4.059029e-38
3.644809e-42
7.463926e-45
0.5668677
3.374886e-27
2.686354e-27
2.636896e-29
1.047784e-33
7.604157e-37
3.027119e-40
3.861739e-43
6.586105e-26
1.105835e-27
1.107402e-32
1.082762e-35
7.490539e-39
1.483823e-41
2.970764e-26
1.021353e-31
2.465948e-34
4.02728e-37
5.219737e-40
1.023117e-24
1.399736e-30
7.647049e-33
1.676913e-35
2.017628e-38
3.672509e-24
3.036987e-29
2.781881e-31
5.825465e-34
7.735473e-37
1.849098e-24
7.821023e-28
8.892639e-30
2.161865e-32
3.226627e-35
0
1.320918e-26
1.940858e-28
5.370732e-31
9.337285e-34
4.726093e-24
1.880571e-25
1.79071e-27
6.514027e-30
1.228356e-32
0
4.422658e-23
1.636786e-24
1.066096e-26
2.614602e-29
7.315141e-32
0.5667273
0
5.293728e-22
4.145912e-24
2.036318e-26
7.776885e-29
9.644336e-32
0.5647819
0.5523898
0
6.546899e-20
7.351123e-22
4.962207e-24
1.335083e-26
2.066811e-29
1.568264e-32
0.5645547
0.3385407
0.002301597
0
1.588779e-16
4.406853e-18
5.19603e-20
2.313835e-22
1.147652e-24
7.3218e-28
2.414177e-30
8.321488e-34
0.5627387
0.1654298
0.0008545076
2.003881e-05
6.483767e-07
2.35412e-08
4.707065e-10
7.351282e-12
2.793276e-13
5.401594e-15
7.275045e-17
4.889406e-19
3.095578e-21
5.283393e-24
3.918202e-27
1.096676e-29
3.046878e-33
5.660303e-36
0.5570184
0.04319016
9.160592e-05
5.738406e-07
9.095145e-09
1.988777e-10
3.130079e-12
4.729979e-14
5.822384e-16
7.618353e-18
9.674916e-20
3.892422e-22
1.614053e-24
8.46909e-27
1.600648e-29
5.886247e-32
0
1.161156e-39
0.5558647
0.01334313
3.656414e-06
2.210266e-08
1.526211e-10
2.570388e-12
4.564197e-14
8.789542e-16
1.346226e-17
1.053777e-19
1.313596e-21
8.921426e-24
2.356834e-26
3.93717e-29
1.963318e-31
1.870237e-34
4.133405e-37
1.747767e-40
0.5516083
0.00289676
3.854685e-06
1.512252e-08
1.601453e-10
2.75495e-12
3.3833e-14
3.715511e-16
3.478527e-18
2.908203e-20
1.081323e-22
1.138351e-24
3.449803e-27
1.997395e-29
3.075255e-32
1.017595e-34
6.60178e-38
8.90507e-41
0.5464265
0.001991055
3.475447e-06
2.057158e-08
1.38297e-10
7.813445e-13
6.997694e-15
6.704676e-17
6.125919e-19
4.466884e-21
1.96489e-23
1.053031e-25
0
9.59558e-31
3.498438e-33
2.400806e-36
5.902434e-39
2.986895e-42
0.5424408
0.0009522204
6.146707e-07
4.679193e-09
5.843541e-11
7.191671e-13
7.487144e-15
6.060366e-17
4.851254e-19
3.474917e-21
2.167529e-23
9.30589e-26
3.216927e-28
5.206817e-32
4.658295e-34
1.251056e-36
5.686467e-40
1.043731e-42
0.5399559
0.0007459957
1.835511e-06
1.453095e-08