/*--------------------------------*- C++ -*----------------------------------*\
| =========                 |                                                 |
| \\      /  F ield         | OpenFOAM: The Open Source CFD Toolbox           |
|  \\    /   O peration     | Version:  2206                                  |
|   \\  /    A nd           | Website:  www.openfoam.com                      |
|    \\/     M anipulation  |                                                 |
\*---------------------------------------------------------------------------*/
FoamFile
{
    version     2.0;
    format      ascii;
    arch        "LSB;label=32;scalar=64";
    class       volScalarField;
    location    "2.8";
    object      alpha.a_0;
}
// * * * * * * * * * * * * * * * * * * * * * * * * * * * * * * * * * * * * * //

dimensions      [0 0 0 0 0 0 0];

internalField   nonuniform List<scalar> 
13078
(
0.4312513
0.5497753
0.5786605
0.5805799
0.5803663
0.5796913
0.57886
0.5595842
0.5778909
0.5809776
0.5809578
0.5804306
0.5797224
0.5788852
0.580855
0.5817117
0.581675
0.5811671
0.5805169
0.5797769
0.5789256
0.5832822
0.5825299
0.581938
0.5813031
0.5806058
0.5798386
0.5789726
0.5835801
0.5827529
0.5820692
0.5813902
0.5806831
0.5798991
0.5790202
0.5835432
0.5827947
0.5821326
0.5814505
0.5807303
0.5799498
0.5790652
0.5834785
0.5827913
0.5821594
0.581486
0.5807644
0.5799779
0.579103
0.5834279
0.5827727
0.5821675
0.5815031
0.5807839
0.5799981
0.5791211
0.5833906
0.5827526
0.5821631
0.581508
0.5807939
0.5800107
0.5791346
0.5833632
0.5827345
0.5821549
0.5815076
0.5807982
0.580018
0.5791434
0.5833423
0.5827192
0.5821461
0.5815044
0.580799
0.5800219
0.5791493
0.5833256
0.5827065
0.5821374
0.5814998
0.5807979
0.5800235
0.579153
0.5833119
0.5826956
0.5821293
0.5814948
0.5807956
0.5800237
0.5791552
0.5833001
0.5826861
0.5821218
0.5814897
0.5807928
0.580023
0.5791566
0.5832897
0.5826775
0.5821151
0.581489
0.5807954
0.5800227
0.5791575
0.5832801
0.5826695
0.5821088
0.5814886
0.5807959
0.5800218
0.5791581
0.5832709
0.5826617
0.5821023
0.5814843
0.5807931
0.5800205
0.5791585
0.5832617
0.582654
0.5820959
0.5814796
0.58079
0.580019
0.5791589
0.5832523
0.5826462
0.5820894
0.5814747
0.5807867
0.5800177
0.5791591
0.5832426
0.5826382
0.5820828
0.5814702
0.5807899
0.5800247
0.5791605
0.5832322
0.5826296
0.5820757
0.5814653
0.580793
0.5800284
0.5791617
0.5832209
0.5826203
0.5820679
0.5814594
0.5807903
0.5800273
0.5791622
0.5832086
0.5826102
0.5820595
0.5814531
0.5807864
0.580026
0.5791635
0.5831948
0.5825989
0.5820502
0.5814463
0.5807829
0.5800336
0.5791766
0.5831794
0.5825863
0.5820397
0.5814386
0.5807786
0.5800409
0.5791845
0.5831621
0.5825721
0.5820281
0.58143
0.5807732
0.5800407
0.5791868
0.5831424
0.582556
0.5820149
0.5814203
0.580767
0.5800386
0.579189
0.5831203
0.5825381
0.5820002
0.5814093
0.58076
0.5800366
0.5792037
0.5830951
0.5825176
0.5819837
0.581397
0.580752
0.580033
0.5792169
0.583069
0.5824972
0.5819662
0.5813834
0.5807425
0.5800275
0.5792192
0.5830388
0.5824734
0.5819463
0.5813684
0.5807319
0.5800208
0.5792177
0.5830055
0.5824516
0.5819312
0.5813534
0.58072
0.5800122
0.5792125
0.5829702
0.5824282
0.5819182
0.5813473
0.5807109
0.5800046
0.5792057
0.5829353
0.5824059
0.581908
0.5813395
0.5807073
0.5800062
0.5792075
0.5829044
0.5823948
0.5819125
0.581367
0.5807485
0.5800412
0.5792376
0.5828894
0.5824083
0.5819562
0.5814479
0.5808592
0.5801583
0.5793265
0.5829018
0.5824777
0.5820836
0.581621
0.58106
0.5803184
0.5794273
0.582967
0.5826467
0.5823151
0.5818668
0.5812969
0.5805091
0.5794859
0.5831234
0.5829089
0.5826043
0.5821412
0.5815217
0.5806998
0.5794766
0.5833956
0.5832249
0.5829014
0.5824109
0.5817346
0.5808458
0.5795402
0.5837543
0.5835432
0.5832195
0.5826574
0.581951
0.5810128
0.5797223
0.5841812
0.5838259
0.5835097
0.582946
0.5821704
0.581253
0.5801868
0.5846223
0.5840855
0.5837466
0.5832095
0.5825238
0.5816993
0.5809881
0.5850421
0.5842469
0.5839672
0.5834286
0.5829155
0.5824012
0.5817756
0.5853186
0.5843383
0.5840913
0.5836891
0.5833327
0.5830832
0.5827205
0.5854248
0.5843785
0.584226
0.5839875
0.5837698
0.5836106
0.5833977
0.5854419
0.5844425
0.5843872
0.5842326
0.5841986
0.5840846
0.5837353
0.58548
0.5846338
0.5846707
0.5845178
0.5846199
0.5844253
0.5840661
0.5855587
0.5849107
0.5850134
0.5848855
0.5849317
0.5847145
0.5842262
0.5856818
0.5851923
0.5853367
0.5852378
0.5852737
0.5849183
0.5842355
0.5858515
0.585512
0.5856008
0.5854871
0.5854506
0.584958
0.5843363
0.585983
0.5857288
0.5858897
0.5857978
0.5856154
0.5849826
0.5845945
0.5860133
0.585805
0.5859455
0.5857985
0.5855476
0.5850098
0.5848581
0.585955
0.5857588
0.585877
0.5856766
0.5853987
0.5850023
0.5850411
0.5858505
0.5856532
0.585739
0.5855157
0.5852799
0.5850394
0.5851178
0.5857098
0.5854902
0.5855574
0.5853648
0.585216
0.5850703
0.5851058
0.5854894
0.5852006
0.5852688
0.5851475
0.5851064
0.5849837
0.5849909
0.5852847
0.5849584
0.5850616
0.5850165
0.5850488
0.5848935
0.584888
0.5850773
0.5847098
0.5848387
0.5848371
0.5849111
0.5847176
0.5846804
0.5848342
0.5844027
0.5845281
0.5845514
0.5846485
0.5844806
0.5844118
0.5845756
0.5840835
0.5841505
0.5841523
0.5842853
0.5841147
0.5839447
0.5843313
0.5837842
0.5838372
0.5837994
0.5839536
0.5838038
0.5835398
0.5841359
0.5835098
0.5835269
0.5833605
0.5834894
0.5833957
0.5830137
0.5840239
0.5832937
0.5832368
0.5829612
0.58301
0.5829222
0.5826559
0.5840119
0.5831769
0.5830293
0.5826288
0.5825824
0.5825061
0.5822068
0.5841161
0.5831684
0.5828995
0.5824151
0.5820381
0.5818551
0.5815768
0.5842197
0.5832632
0.582826
0.5822328
0.5815274
0.5811449
0.5810637
0.5842032
0.5833229
0.5827642
0.5820405
0.5811903
0.5805065
0.5802689
0.5840166
0.5833199
0.582741
0.5819362
0.5809963
0.5800093
0.5792727
0.5837292
0.5832386
0.5826855
0.5818793
0.5808926
0.5797203
0.5785991
0.5834415
0.5830821
0.5825886
0.5818436
0.5808847
0.5796985
0.5783006
0.5831884
0.582904
0.5824651
0.5818035
0.580945
0.5798398
0.5784836
0.5830027
0.5827045
0.5823026
0.5817365
0.5809862
0.5800492
0.5787204
0.5828986
0.5825237
0.5821303
0.5816107
0.5809607
0.5801387
0.5789991
0.5828635
0.5824051
0.5819744
0.5814686
0.5808679
0.5801032
0.5791493
0.5828654
0.5823595
0.5818826
0.5813529
0.5807429
0.5800147
0.5791585
0.5828883
0.5823563
0.5818551
0.5813002
0.5806669
0.5799465
0.5791257
0.5829237
0.5823752
0.5818626
0.5812888
0.5806461
0.5799236
0.5791142
0.5829605
0.5824036
0.5818832
0.5812963
0.5806483
0.5799336
0.5791273
0.5829965
0.5824328
0.5819046
0.5813175
0.5806693
0.5799535
0.5791477
0.5830308
0.5824589
0.5819233
0.581333
0.5806892
0.5799729
0.5791656
0.5830618
0.5824823
0.5819427
0.5813539
0.5807081
0.5799891
0.5791789
0.5830888
0.5825058
0.5819649
0.5813731
0.5807244
0.5800024
0.5791879
0.583112
0.5825259
0.5819839
0.5813898
0.5807382
0.5800135
0.5791928
0.5831345
0.5825456
0.5820013
0.5814045
0.5807498
0.5800216
0.5791845
0.5831542
0.5825626
0.5820165
0.5814171
0.5807595
0.5800273
0.5791747
0.5831719
0.5825779
0.5820299
0.581428
0.5807677
0.5800323
0.5791759
0.5831874
0.5825911
0.5820415
0.5814374
0.5807748
0.5800348
0.5791765
0.5832013
0.5826029
0.5820518
0.5814457
0.5807801
0.5800286
0.5791701
0.5832137
0.5826135
0.582061
0.5814529
0.5807845
0.5800228
0.5791589
0.5832249
0.582623
0.5820692
0.5814593
0.5807891
0.580025
0.579159
0.5832352
0.5826316
0.5820767
0.5814652
0.5807922
0.5800268
0.5791595
0.5832446
0.5826395
0.5820834
0.58147
0.5807889
0.5800232
0.5791588
0.5832534
0.5826469
0.5820896
0.5814743
0.5807861
0.5800167
0.5791579
0.5832618
0.582654
0.5820955
0.581479
0.5807893
0.5800181
0.5791581
0.58327
0.5826608
0.5821013
0.5814834
0.5807923
0.5800198
0.5791582
0.5832782
0.5826677
0.5821072
0.5814874
0.5807951
0.5800214
0.5791581
0.5832865
0.5826746
0.5821128
0.5814872
0.5807943
0.5800224
0.5791577
0.5832952
0.5826819
0.5821186
0.5814877
0.5807918
0.580023
0.5791573
0.583305
0.58269
0.5821252
0.5814925
0.5807947
0.5800241
0.5791567
0.583316
0.5826992
0.5821324
0.5814973
0.5807975
0.5800248
0.5791555
0.5833292
0.5827097
0.5821401
0.5815021
0.5807997
0.5800247
0.5791535
0.5833453
0.582722
0.5821485
0.5815065
0.5808008
0.5800232
0.57915
0.5833655
0.5827369
0.5821571
0.5815096
0.5808001
0.5800195
0.5791444
0.5833922
0.5827547
0.5821649
0.5815103
0.5807961
0.5800124
0.5791354
0.5834286
0.5827746
0.5821664
0.5815037
0.5807861
0.5799997
0.5791226
0.5834784
0.5827933
0.5821601
0.5814864
0.5807661
0.579981
0.579091
0.5835422
0.5827984
0.5821374
0.5814544
0.5807362
0.5799409
0.579052
0.5835839
0.5827604
0.5820758
0.5814009
0.5806777
0.5798895
0.5790081
0.5833059
0.5825488
0.5819611
0.5813021
0.5806007
0.5798309
0.5789604
0.5811139
0.5818122
0.5816823
0.5811686
0.5805152
0.5797695
0.5789129
0.5616886
0.5787865
0.5812216
0.580984
0.5804215
0.5797098
0.5788688
0.577867
0.57662
0.5749562
0.5733751
0.5705593
0.5661275
0.5558313
0.5778922
0.5766502
0.5749931
0.5734175
0.5706116
0.566199
0.5562544
0.5779268
0.5766856
0.5750379
0.5728702
0.5706619
0.566267
0.5564716
0.577966
0.576723
0.5750746
0.573518
0.570713
0.5663358
0.5566621
0.5780064
0.5767625
0.5751181
0.5735699
0.5707663
0.5664044
0.5567899
0.5780458
0.5768022
0.5751623
0.5736202
0.5708186
0.5664721
0.5569057
0.5780829
0.5768406
0.5752053
0.5736674
0.5708341
0.5665392
0.5570125
0.5781145
0.5768773
0.575247
0.5737133
0.5708488
0.5666054
0.5571063
0.5781274
0.5769096
0.5752861
0.5737585
0.5708909
0.5666649
0.5571968
0.5781373
0.5769206
0.5753213
0.5738029
0.5709317
0.5667243
0.5572797
0.5781443
0.576929
0.575332
0.573845
0.5709723
0.5667838
0.5573572
0.5781496
0.5769359
0.5753402
0.5738545
0.571013
0.5668435
0.55743
0.5781536
0.5769419
0.575348
0.573863
0.5710199
0.5669052
0.5574978
0.5781569
0.5769472
0.5753555
0.5738717
0.5710278
0.5669157
0.557548
0.5781597
0.5769524
0.5753629
0.5738806
0.5710364
0.5669293
0.5575018
0.5781623
0.5769575
0.5753705
0.5738899
0.571046
0.5669445
0.5574362
0.5781647
0.5769626
0.5753782
0.5739
0.5710609
0.5669606
0.557383
0.5781672
0.5769677
0.5753864
0.5739149
0.5711767
0.5669784
0.5573162
0.5781697
0.5769728
0.5753949
0.5739264
0.5711977
0.5669969
0.5572561
0.5781724
0.5769782
0.5754039
0.5739386
0.5712128
0.5670168
0.55719
0.5781753
0.5769839
0.5754132
0.5739516
0.5712288
0.5670377
0.557106
0.5781785
0.57699
0.5754227
0.5739656
0.5712457
0.5670599
0.5570348
0.5781817
0.576997
0.5754335
0.5739777
0.5712681
0.567083
0.5569612
0.5781873
0.5770048
0.5754482
0.5734276
0.5713982
0.5671202
0.5568899
0.5781925
0.5770124
0.5754586
0.5740039
0.571452
0.5671516
0.5568224
0.5781972
0.5770208
0.5754724
0.5740337
0.57148
0.5671818
0.5567546
0.5782042
0.5770319
0.5754896
0.5740575
0.5715087
0.567216
0.5566836
0.5782277
0.5770458
0.575506
0.5740823
0.5715473
0.5674616
0.5566236
0.5782367
0.5773829
0.5759309
0.5740883
0.5715857
0.5675592
0.5565815
0.5782435
0.5773976
0.5759612
0.5741197
0.5716254
0.5676029
0.5565482
0.5782752
0.5774331
0.5759794
0.5741497
0.5716683
0.5677994
0.5565586
0.5782852
0.5774593
0.5759957
0.5741809
0.5717098
0.5679932
0.5566259
0.5782813
0.577513
0.5760166
0.5742062
0.571746
0.5680513
0.5568194
0.5782757
0.5775195
0.576043
0.574209
0.5717581
0.5681421
0.5585633
0.5782807
0.5775093
0.5760453
0.5741643
0.571708
0.5683338
0.5597691
0.5782848
0.5774816
0.5760141
0.5739547
0.5715057
0.5686774
0.5639794
0.5782256
0.5773422
0.5756693
0.5734489
0.5711273
0.568662
0.5638406
0.5780505
0.5770045
0.5751706
0.5731427
0.5706148
0.5674381
0.5641392
0.5777934
0.5765633
0.574694
0.5727285
0.5697597
0.5669121
0.5640146
0.5776993
0.5762224
0.5745046
0.5724699
0.5701529
0.5675232
0.5633913
0.5779343
0.5764202
0.5750941
0.5728064
0.5712187
0.5685041
0.562855
0.5789148
0.5774953
0.5756369
0.5736744
0.572323
0.5696468
0.5637274
0.5799296
0.5783514
0.5762436
0.5750437
0.5733811
0.5707144
0.5644942
0.5808311
0.5791351
0.5768943
0.5763518
0.5748528
0.5716122
0.5663815
0.5816951
0.5802809
0.5781486
0.5774396
0.5756963
0.5726409
0.5675967
0.5825648
0.5812416
0.5793101
0.5786095
0.5763941
0.5740071
0.5687948
0.583092
0.581944
0.5804889
0.5795176
0.5777859
0.5744896
0.5703287
0.5831676
0.5822375
0.5813194
0.5805125
0.5783495
0.576256
0.5726033
0.5833466
0.5826147
0.5822039
0.5810676
0.5792
0.5765558
0.5737061
0.5836597
0.5833214
0.5827717
0.5815714
0.5798226
0.5774662
0.5737332
0.5841117
0.5839755
0.5832473
0.5820308
0.5803551
0.5780456
0.5741995
0.5845624
0.5843967
0.5836623
0.5825989
0.5812094
0.5788132
0.5753383
0.5847793
0.5845978
0.5839057
0.5829146
0.5814979
0.5795083
0.5770231
0.5849905
0.584727
0.5839397
0.5828232
0.5817441
0.5798344
0.5774152
0.5850238
0.58475
0.5840404
0.5830213
0.5819149
0.5814825
0.5801604
0.5850365
0.584653
0.5840271
0.5832147
0.582358
0.5813276
0.5848804
0.5844806
0.5838181
0.5830831
0.5822757
0.5812002
0.5846831
0.5843223
0.5835351
0.5826686
0.5816775
0.5804131
0.5843655
0.5841236
0.5832094
0.5823504
0.5811286
0.5796117
0.5771483
0.5840265
0.5838517
0.5828662
0.5818202
0.580613
0.5782471
0.5746513
0.5835229
0.5833424
0.5822933
0.5810773
0.5794903
0.5774924
0.5743371
0.5832426
0.5829973
0.5821078
0.580897
0.5794334
0.577084
0.5733627
0.5828224
0.5825709
0.5817632
0.5804805
0.578969
0.5766263
0.5728288
0.5822977
0.5821835
0.5813065
0.580159
0.5781861
0.5759428
0.5728595
0.5816423
0.5817043
0.5807019
0.5790069
0.5775618
0.5753602
0.5706464
0.5810741
0.581046
0.579857
0.5785102
0.5764823
0.5743824
0.5692257
0.5803634
0.5802614
0.5792341
0.5773722
0.5757063
0.5723889
0.5675845
0.5795287
0.579337
0.5781248
0.5767631
0.5743365
0.571688
0.5664471
0.578724
0.578417
0.5772232
0.5756641
0.5737864
0.5705163
0.5650764
0.5776103
0.5775024
0.5765045
0.5749341
0.5727209
0.5695076
0.5632349
0.5767193
0.5763331
0.5757109
0.5742643
0.571762
0.5687531
0.5627449
0.5764385
0.5751659
0.5747809
0.5734914
0.5713814
0.5686347
0.5630115
0.5769288
0.5751817
0.5738802
0.5725489
0.5709389
0.5681009
0.5632222
0.5775413
0.5759564
0.5744374
0.5724274
0.5700962
0.5673871
0.5633095
0.5779463
0.5767112
0.5752707
0.5734177
0.5707476
0.5677575
0.5635833
0.5781105
0.5771376
0.5757823
0.57379
0.5713974
0.5685427
0.5623794
0.5781574
0.5772922
0.5759947
0.5740574
0.5716076
0.5685162
0.5614203
0.5781759
0.5773434
0.5760229
0.5741144
0.5716851
0.5681713
0.5585871
0.5781973
0.5773731
0.5759773
0.5741268
0.5716942
0.5680513
0.5576461
0.578219
0.5773943
0.575946
0.5741245
0.5716758
0.5680047
0.5571408
0.5782322
0.5773744
0.5759367
0.5741118
0.5716474
0.5679492
0.5562546
0.5782301
0.5773501
0.5759283
0.5740962
0.5716171
0.5678711
0.5563063
0.578208
0.5773219
0.5759226
0.5740803
0.5715881
0.5675947
0.5563731
0.5782092
0.5773201
0.5759141
0.5740656
0.5715609
0.5675405
0.5564583
0.5782051
0.5770216
0.5754803
0.5740222
0.5715337
0.5675051
0.5565407
0.5781871
0.5770135
0.5754699
0.5740102
0.5715026
0.5672889
0.5566255
0.5781842
0.5770067
0.5754581
0.5739964
0.571476
0.5671818
0.5567182
0.5781827
0.5770014
0.5754479
0.5739832
0.5714528
0.5671554
0.5568025
0.5781797
0.5769961
0.575438
0.5739706
0.5714265
0.5671307
0.5568913
0.5781763
0.5769911
0.5754287
0.5739581
0.571301
0.5670966
0.5569692
0.5781746
0.5769862
0.5754197
0.5739461
0.5712506
0.5670701
0.5570505
0.5781727
0.5769813
0.5754109
0.5739347
0.5712351
0.5670493
0.5571322
0.5781707
0.5769765
0.5754026
0.5739236
0.5712199
0.5670292
0.5572087
0.5781685
0.5769719
0.5753944
0.573913
0.5712056
0.5670098
0.5572827
0.5781666
0.5769675
0.5753867
0.5739026
0.571192
0.5669915
0.5573482
0.5781646
0.5769628
0.5753791
0.5738904
0.5711287
0.5669737
0.5574089
0.5781626
0.5769582
0.5753718
0.5738787
0.5710532
0.5669571
0.5574683
0.5781605
0.5769537
0.5753648
0.5738693
0.5710438
0.5669416
0.5575347
0.5781583
0.5769492
0.575358
0.5738599
0.5710351
0.5669272
0.5575407
0.5781559
0.5769447
0.5753512
0.5738508
0.5710271
0.5669141
0.5575558
0.578153
0.5769398
0.5753443
0.5738415
0.5710194
0.5668784
0.5574827
0.5781492
0.5769341
0.5753371
0.5738319
0.5709965
0.5668179
0.5574042
0.5781442
0.5769274
0.5753275
0.5738063
0.5709563
0.5667579
0.5573199
0.5781371
0.5769184
0.5752938
0.5737617
0.5709159
0.566698
0.5572335
0.5781274
0.5768886
0.5752564
0.5737163
0.5708752
0.5666381
0.5571396
0.5780996
0.5768544
0.5752165
0.5736698
0.5708357
0.566575
0.5570415
0.5780663
0.5768183
0.5751748
0.5736247
0.5708472
0.5665079
0.5569381
0.5780299
0.5767799
0.5751317
0.573577
0.5707969
0.5664403
0.5568262
0.5779905
0.5767399
0.5750876
0.5735295
0.5707445
0.5663722
0.5567013
0.5779492
0.5766994
0.5750435
0.5734826
0.5706916
0.5663032
0.5565453
0.577909
0.5766603
0.5750002
0.5734378
0.5706386
0.5662336
0.5563327
0.5778715
0.5766225
0.574958
0.573395
0.5705857
0.5661628
0.555991
0.003860657
4.699999e-11
3.049761e-16
1.286522e-21
5.953968e-27
1.397997e-32
1.479578e-39
7.881301e-46
2.786298e-50
1.689052e-54
5.543814e-59
1.102298e-63
1.449282e-68
1.373537e-73
1.136131e-78
1.701736e-83
2.327461e-88
2.934517e-93
0.009578565
5.133591e-12
8.627473e-19
2.624431e-25
1.052708e-31
1.092718e-36
9.909731e-42
3.868662e-46
3.417299e-50
1.61372e-54
3.689313e-59
4.787281e-64
3.779437e-69
1.871765e-74
8.893699e-80
6.99091e-85
4.106656e-90
2.267124e-95
0.01148667
9.566694e-12
2.465006e-18
8.823115e-25
4.439148e-31
2.855645e-36
2.349358e-41
8.028531e-46
5.315397e-50
1.916528e-54
3.168013e-59
2.739593e-64
1.329918e-69
3.598073e-75
9.220756e-81
4.223658e-86
1.724101e-91
6.872694e-97
0.01244279
1.608596e-11
5.359305e-18
2.414946e-24
1.040542e-30
7.268606e-36
5.316706e-41
1.283796e-45
6.970454e-50
1.98383e-54
2.295518e-59
1.21924e-64
3.118607e-70
4.049042e-76
5.996412e-82
2.092622e-87
4.692878e-93
1.29059e-98
0.01336185
2.41135e-11
9.263365e-18
5.957114e-24
1.978349e-30
1.745949e-35
1.214223e-40
1.884661e-45
8.508395e-50
1.828564e-54
1.332765e-59
3.654953e-65
4.060081e-71
2.443163e-77
0
5.021406e-90
9.913845e-95
6.336099e-100
0.0142332
3.737589e-11
1.542239e-17
1.356909e-23
3.20717e-30
3.877022e-35
2.711074e-40
3.74651e-45
1.108148e-49
1.466007e-54
5.711098e-60
6.689508e-66
3.274088e-72
9.492079e-79
6.17234e-85
2.298281e-90
1.962973e-95
6.219535e-101
0.01509424
5.206112e-11
2.540729e-17
2.587994e-23
5.895213e-30
7.994062e-35
5.844734e-40
7.7834e-45
1.830492e-49
1.238838e-54
1.993826e-60
1.140464e-66
5.137767e-73
2.312779e-79
1.220373e-85
2.044317e-90
6.674749e-96
6.079539e-102
0.01592357
7.972395e-11
3.658118e-17
3.671127e-23
1.477593e-29
1.551686e-34
1.206738e-39
1.357685e-44
2.419181e-49
9.333453e-55
8.953024e-61
6.17189e-67
3.911914e-73
2.492325e-79
2.247833e-85
2.373168e-90
1.908221e-96
8.632277e-103
0.01672873
7.176137e-11
3.859647e-17
4.273249e-23
3.61417e-29
2.896917e-34
2.404415e-39
2.21294e-44
2.673214e-49
7.392109e-55
8.289439e-61
8.294456e-67
7.383732e-73
5.702603e-79
6.159294e-85
2.603656e-90
1.412009e-96
6.445738e-103
0.01755497
5.138931e-11
3.89088e-17
4.761944e-23
7.436048e-29
5.2987e-34
4.718152e-39
3.350612e-44
2.749616e-49
6.981119e-55
1.057157e-60
1.417984e-66
1.518681e-72
1.24085e-78
1.429145e-84
3.501035e-90
2.216212e-96
1.333971e-102
0.01836827
4.244316e-11
5.068284e-17
5.256104e-23
1.394746e-28
9.550338e-34
9.172444e-39
8.899123e-44
3.115068e-49
6.348604e-55
1.077212e-60
1.616536e-66
1.935727e-72
1.878877e-78
2.382374e-84
6.892253e-90
4.044187e-96
2.811939e-102
0.01913532
5.099163e-11
1.328403e-16
7.259758e-23
2.468707e-28
1.672952e-33
1.720996e-38
1.926119e-43
4.359115e-49
8.145075e-55
1.426885e-60
2.119322e-66
2.474951e-72
2.412282e-78
6.079169e-84
1.976089e-89
8.120499e-96
6.788376e-102
0.01991267
1.199043e-10
2.882361e-16
1.259617e-22
4.066879e-28
2.815883e-33
2.997702e-38
3.573867e-43
9.191366e-49
1.98294e-54
3.523901e-60
5.179483e-66
5.916522e-72
5.880552e-78
3.583239e-83
1.316112e-88
2.428272e-95
2.381281e-101
0.02085608
5.75602e-10
2.543508e-16
3.276021e-22
6.011427e-28
4.53152e-33
4.72414e-38
5.893313e-43
2.16038e-48
5.321665e-54
1.067097e-59
1.621223e-65
1.87953e-71
1.992947e-77
2.990154e-82
1.24523e-87
1.072326e-94
1.122523e-100
0.02604574
2.157232e-09
1.361081e-16
6.480142e-22
8.119216e-28
6.906237e-33
6.711219e-38
8.521953e-43
4.084049e-48
1.204376e-53
2.85329e-59
4.865385e-65
6.25473e-71
7.791634e-77
2.523386e-81
8.939554e-87
5.688751e-94
6.372679e-100
0.02691864
0
1.191719e-16
7.202486e-22
1.048089e-27
9.498265e-33
8.617393e-38
1.084272e-42
5.360634e-48
2.204895e-53
6.63998e-59
1.375152e-64
2.154202e-70
3.446149e-76
2.101072e-80
2.101654e-86
3.238315e-93
4.292618e-99
0.02849576
7.248495e-10
0
9.022356e-22
1.215134e-27
1.13353e-32
1.003251e-37
1.230063e-42
5.755338e-48
3.49283e-53
1.403466e-58
3.68592e-64
7.541418e-70
1.660691e-75
1.846764e-79
2.736202e-86
1.887428e-92
3.519036e-98
0.03031523
1.040246e-09
5.768102e-15
0
1.034407e-27
1.272258e-32
1.059807e-37
1.2589e-42
5.843964e-48
5.384447e-53
3.010892e-58
9.65865e-64
2.608905e-69
8.3626e-75
1.718734e-78
6.136494e-87
1.077117e-91
3.363632e-97
0.03228954
1.482727e-09
8.299619e-15
2.298819e-20
8.391356e-28
2.145891e-32
9.22231e-38
9.241931e-43
5.444596e-48
5.585404e-53
5.872463e-58
2.353063e-63
8.396765e-69
4.316178e-74
1.550668e-77
0
5.757277e-91
3.87756e-96
0.0342551
2.151087e-09
1.198166e-14
3.691722e-20
3.972641e-25
0
1.109885e-37
3.028076e-43
5.298372e-48
5.383454e-53
6.296437e-58
5.212041e-63
2.390851e-68
2.422159e-73
1.240478e-76
0
4.249136e-90
5.403953e-95
0.03619464
3.123761e-09
1.726284e-14
5.926056e-20
7.114419e-25
4.529212e-30
0
2.875873e-42
8.024346e-48
6.266734e-53
5.22989e-58
9.26005e-63
5.361183e-68
1.644501e-72
4.628104e-76
0
1.551501e-88
9.211099e-94
0.03820279
4.406891e-09
2.463288e-14
9.387678e-20
1.280988e-24
7.885023e-30
4.864004e-35
3.077654e-41
1.397016e-47
6.395077e-53
3.605607e-58
9.397806e-63
6.474189e-68
1.35339e-71
3.495336e-75
3.844269e-82
1.504215e-86
2.400691e-92
0.04033803
5.941954e-09
3.497657e-14
1.488904e-19
2.311732e-24
1.487847e-29
1.030476e-34
8.984617e-40
0
1.768779e-53
4.391572e-58
5.916236e-63
1.240629e-67
1.151804e-70
3.05196e-74
1.280905e-80
1.574712e-84
1.11015e-90
0.04260024
8.273527e-09
4.956288e-14
2.383416e-19
4.224848e-24
3.175348e-29
2.424017e-34
2.153873e-39
4.493898e-45
4.088671e-54
4.906212e-57
1.907324e-63
1.057953e-66
9.001289e-70
3.205212e-73
8.263415e-79
1.569153e-82
7.079359e-89
0.0450588
1.121148e-08
7.014847e-14
3.878352e-19
7.997629e-24
9.235421e-29
7.461872e-34
6.731632e-39
1.3873e-44
5.9263e-50
4.828907e-56
2.686296e-64
1.487803e-65
7.793318e-69
3.612762e-72
6.340259e-77
1.461844e-80
4.5133e-87
0.04761943
1.465692e-08
9.875302e-14
6.450004e-19
1.631236e-23
1.592414e-28
1.421992e-33
1.252856e-38
6.979989e-44
1.439651e-49
1.385643e-54
0
3.954641e-64
1.701139e-67
6.568235e-71
4.904282e-75
1.263984e-78
2.292106e-85
0.05038654
1.843706e-08
1.242081e-13
7.686491e-19
3.749125e-23
2.292509e-28
2.073414e-33
1.684509e-38
4.350938e-43
3.429375e-49
3.517125e-54
3.888807e-59
2.12399e-62
9.646399e-66
1.340939e-69
3.528002e-73
1.007252e-76
8.718603e-84
0.05335759
1.941745e-08
1.359485e-13
7.673834e-19
7.508456e-23
2.936907e-28
2.838947e-33
2.743184e-38
2.122999e-42
8.456173e-49
8.876889e-54
7.25523e-58
1.364312e-60
6.873654e-64
8.257584e-68
2.335196e-71
7.342056e-75
5.75192e-82
0.05650734
1.626163e-08
1.520865e-13
7.226451e-19
8.601245e-23
4.352053e-28
3.742277e-33
4.606392e-38
5.056713e-42
2.88725e-48
6.11053e-53
3.886174e-56
8.424764e-59
4.81063e-62
4.562057e-66
1.419501e-69
4.855741e-73
1.560271e-79
0.05994517
1.473164e-08
2.370651e-13
7.307425e-19
1.420617e-22
1.159115e-27
7.570731e-33
6.657694e-38
3.41951e-42
1.564485e-47
2.096538e-51
2.209719e-54
4.81136e-57
8.627589e-61
2.45945e-64
7.970061e-68
2.890509e-71
2.254342e-77
0.06363759
3.016718e-08
5.384323e-13
7.082796e-19
6.032826e-22
1.826516e-27
1.904406e-32
8.99179e-38
3.77891e-42
1.197307e-46
9.963982e-50
1.188424e-52
2.512564e-55
4.318151e-59
1.165375e-62
4.245612e-66
1.54469e-69
8.074294e-76
0.06760121
7.882031e-08
6.315762e-13
1.506744e-18
1.094241e-24
2.866484e-27
4.620773e-32
1.373529e-37
7.878853e-42
2.579254e-45
4.592012e-48
5.978158e-51
1.20252e-53
2.14077e-57
4.842165e-61
2.012052e-64
7.88163e-68
3.815191e-75
0.07213565
1.249866e-07
5.424904e-13
8.420491e-18
2.401246e-22
4.761016e-27
6.39357e-32
1.991625e-37
3.462499e-41
9.493597e-44
1.948247e-46
2.788387e-49
5.208738e-52
6.143864e-56
1.728274e-59
8.459198e-63
3.512743e-66
0
0.07824148
2.376349e-07
4.442944e-13
2.183836e-17
2.89007e-22
7.639643e-27
7.615371e-32
5.570541e-37
1.164679e-39
3.476287e-42
7.519749e-45
1.190418e-47
1.978575e-50
1.579139e-54
5.226806e-58
3.130663e-61
1.295292e-64
0
0.0948407
0
5.840055e-13
3.552075e-17
2.6528e-22
9.569362e-27
9.039496e-32
1.421955e-35
3.899288e-38
1.170188e-40
2.614519e-43
4.572909e-46
6.705072e-49
4.769125e-53
1.28631e-56
1.046572e-59
1.196689e-63
3.994261e-69
0.1069094
0
1.056399e-12
3.387005e-17
1.017937e-22
2.453049e-27
4.350374e-31
4.128923e-34
1.277751e-36
3.4517e-39
8.070638e-42
1.538784e-44
1.648159e-47
1.475505e-51
2.455758e-55
3.242071e-58
4.005473e-62
5.185445e-68
0.1315267
0
1.879092e-12
1.413942e-17
1.386909e-23
1.349603e-26
8.497336e-30
1.209291e-32
3.309221e-35
8.604088e-38
2.170006e-40
4.368889e-43
4.714619e-46
3.909153e-50
3.631377e-54
8.313256e-57
1.041233e-61
8.472527e-67
0.2378409
0
2.828644e-12
0
1.290854e-22
1.947312e-25
1.927223e-28
2.853753e-31
7.457132e-34
1.8416e-36
4.963496e-39
9.905161e-42
9.765922e-45
9.582512e-49
4.843974e-53
5.577598e-56
1.735215e-60
1.743143e-65
0.3765168
4.203127e-06
6.155808e-12
3.794875e-18
1.945053e-21
3.677144e-24
4.135563e-27
5.989377e-30
1.494915e-32
3.349234e-35
9.428275e-38
1.782185e-40
2.082216e-43
2.245108e-47
3.059493e-52
2.487685e-55
2.352357e-59
3.336988e-64
0.4976223
1.415119e-05
1.579931e-11
2.031902e-17
3.660964e-20
6.518485e-23
7.914823e-26
1.10683e-28
2.694374e-31
5.156307e-34
1.453192e-36
8.944824e-40
4.034037e-42
5.049282e-46
3.042592e-51
3.480473e-54
3.305605e-58
4.738056e-63
0.5279774
0.0001015464
8.114359e-12
1.661149e-16
6.415309e-19
9.909685e-22
1.320248e-24
1.779393e-27
4.442357e-30
6.79431e-33
1.776627e-35
9.905196e-39
7.908271e-41
1.081804e-44
9.869506e-50
4.992357e-53
2.298197e-57
2.055188e-62
0.535422
1.593381e-05
0
2.691679e-15
1.002074e-17
1.255626e-20
1.891298e-23
2.464952e-26
6.801624e-29
7.848242e-32
1.589482e-34
1.280466e-37
1.467295e-39
1.973828e-43
3.214607e-48
5.435136e-52
6.195759e-57
0
0.5364317
0
5.259519e-11
4.022367e-14
1.365427e-16
1.2702e-19
2.283662e-22
2.902229e-25
9.53691e-28
8.182471e-31
8.979282e-34
1.179322e-36
2.465911e-38
9.958048e-43
2.247291e-47
4.121004e-51
0
0
0.5422212
0.001024969
9.3599e-10
6.022981e-13
1.599685e-15
1.373153e-18
2.278463e-21
2.84985e-24
1.152709e-26
7.950153e-30
2.267512e-34
8.037201e-36
3.263496e-37
3.085484e-42
4.065533e-46
1.059384e-49
0
1.040223e-57
0.5448624
0.001408676
9.235988e-09
9.063116e-12
1.619702e-14
1.387432e-17
1.828163e-20
2.263973e-23
1.098771e-25
6.904833e-29
0
4.613698e-35
5.638041e-37
1.667631e-41
2.871406e-44
9.715918e-48
3.908207e-52
4.001703e-56
0.5467943
0.002401077
8.478284e-08
1.517923e-10
1.408444e-13
1.809059e-16
1.130621e-19
1.371106e-22
5.408051e-25
1.594139e-28
6.216785e-32
1.691546e-34
4.70788e-37
5.73699e-40
1.950762e-42
6.592071e-46
2.724911e-50
4.053944e-54
0.5506212
0.004733664
1.84381e-06
2.944672e-09
9.453913e-13
3.821838e-15
5.181461e-19
5.867502e-22
8.274316e-25
0
1.398358e-31
1.837417e-34
7.83974e-36
4.087752e-38
9.580762e-41
3.47496e-44
1.23323e-48
2.333161e-52
0.5582308
0.02996145
2.470937e-05
5.943459e-08
4.26628e-12
4.441415e-14
2.848235e-18
1.38374e-21
6.47034e-26
5.63769e-28
4.381689e-32
7.939557e-34
4.669442e-34
2.938383e-36
3.733352e-39
1.541313e-42
8.489911e-47
2.771796e-50
0.5638861
0.09149546
0.0002179366
6.911838e-07
3.213838e-11
4.741349e-14
2.613556e-18
1.47733e-21
1.106379e-24
2.249803e-29
8.215142e-32
3.985714e-32
2.90536e-32
1.82347e-34
1.251856e-37
5.544688e-41
5.194319e-45
1.054036e-48
0.5657692
0.2844166
0.001314321
5.511496e-06
1.530808e-25
2.058152e-29
9.26844e-30
1.834364e-30
1.504082e-30
1.091788e-32
3.234653e-36
1.641378e-39
1.724965e-43
1.223807e-46
0.5664523
0.5422925
5.497807e-28
9.524159e-29
6.394153e-29
5.907625e-31
6.471411e-35
3.796139e-38
3.36387e-42
6.770171e-45
0.5668789
3.104172e-27
2.437869e-27
2.421751e-29
1.000525e-33
7.156571e-37
2.790674e-40
3.51453e-43
6.099785e-26
1.016151e-27
1.064654e-32
1.011963e-35
6.787186e-39
1.343211e-41
2.733144e-26
9.675286e-32
2.249068e-34
3.633898e-37
4.678279e-40
9.64702e-25
1.268238e-30
6.849225e-33
1.49918e-35
1.793998e-38
3.606688e-24
2.724163e-29
2.491083e-31
5.194418e-34
6.868776e-37
1.950855e-24
7.159411e-28
8.051008e-30
1.944252e-32
2.886839e-35
0
1.212062e-26
1.776088e-28
4.870328e-31
8.42545e-34
4.354498e-24
1.742374e-25
1.651559e-27
5.934713e-30
1.120864e-32
0
4.106573e-23
1.532384e-24
9.991209e-27
2.439129e-29
6.793799e-32
0.5665701
0
4.996506e-22
3.913993e-24
1.918863e-26
7.313505e-29
9.043524e-32
0.5646742
0.5521641
0
6.200828e-20
6.950566e-22
4.688755e-24
1.263448e-26
1.96024e-29
1.486954e-32
0.5644027
0.3377473
0.002297808
0
1.516611e-16
4.234633e-18
4.958831e-20
2.204986e-22
1.086605e-24
6.924464e-28
2.26957e-30
7.845743e-34
0.5625909
0.164799
0.0008526926
1.991217e-05
6.4248e-07
2.317274e-08
4.614551e-10
7.188312e-12
2.731771e-13
5.271142e-15
7.108526e-17
4.755838e-19
3.004005e-21
5.033856e-24
3.732261e-27
1.028749e-29
2.899945e-33
5.345078e-36
0.5566676
0.04298664
8.971818e-05
5.638173e-07
8.9758e-09
1.959691e-10
3.079168e-12
4.643072e-14
5.69833e-16
7.44169e-18
9.424982e-20
3.775986e-22
1.556485e-24
8.157962e-27
1.517507e-29
5.602935e-32
3.040663e-40
1.063489e-39
0.5556107
0.01325748
3.570708e-06
2.181146e-08
1.497201e-10
2.519569e-12
4.447383e-14
8.509461e-16
1.295903e-17
1.006988e-19
1.249503e-21
8.451475e-24
2.212092e-26
3.691622e-29
1.827876e-31
1.696453e-34
3.716223e-37
1.582872e-40
0.5514474
0.002871369
3.816221e-06
1.481931e-08
1.567288e-10
2.685975e-12
3.281447e-14
3.590486e-16
3.349263e-18
2.787596e-20
1.03182e-22
1.082542e-24
3.251897e-27
1.876838e-29
2.886579e-32
9.451933e-35
6.083095e-38
8.169644e-41
0.5462242
0.001987064
3.457706e-06
2.036575e-08
1.363356e-10
7.650833e-13
6.799933e-15
6.46041e-17
5.859334e-19
4.242222e-21
1.85397e-23
9.882873e-26
0
8.874784e-31
3.209737e-33
2.195778e-36
5.394491e-39
2.697503e-42
0.5422777
0.0009622814
6.157502e-07
4.629371e-09
5.72508e-11
6.983067e-13
7.236452e-15
5.81823e-17
4.630544e-19
3.30114e-21
2.051165e-23
8.757661e-26
3.011931e-28
4.884718e-32
4.327178e-34
1.153312e-36
5.204913e-40
9.524348e-43
0.5397673
0.0007477746
1.831425e-06
1.441602e-08