/*--------------------------------*- C++ -*----------------------------------*\
| =========                 |                                                 |
| \\      /  F ield         | OpenFOAM: The Open Source CFD Toolbox           |
|  \\    /   O peration     | Version:  2206                                  |
|   \\  /    A nd           | Website:  www.openfoam.com                      |
|    \\/     M anipulation  |                                                 |
\*---------------------------------------------------------------------------*/
FoamFile
{
    version     2.0;
    format      ascii;
    arch        "LSB;label=32;scalar=64";
    class       volScalarField;
    location    "2.8";
    object      alpha.b;
}
// * * * * * * * * * * * * * * * * * * * * * * * * * * * * * * * * * * * * * //

dimensions      [0 0 0 0 0 0 0];

internalField   nonuniform List<scalar> 
13078
(
0.5693841
0.4503106
0.4213485
0.4194223
0.4196343
0.420309
0.4211403
0.4404651
0.4221202
0.4190258
0.4190433
0.4195698
0.4202779
0.421115
0.419152
0.418292
0.4183263
0.4188334
0.4194835
0.4202233
0.4210747
0.4167185
0.4174709
0.4180625
0.4186972
0.4193945
0.4201616
0.4210276
0.4164196
0.4172472
0.417931
0.41861
0.4193171
0.4201011
0.42098
0.4164564
0.4172052
0.4178674
0.4185496
0.4192699
0.4200504
0.4209349
0.4165212
0.4172086
0.4178405
0.4185141
0.4192357
0.4200222
0.4208971
0.4165718
0.4172271
0.4178325
0.4184969
0.4192162
0.4200019
0.420879
0.4166092
0.4172473
0.4178368
0.418492
0.4192061
0.4199894
0.4208655
0.4166367
0.4172654
0.417845
0.4184924
0.4192018
0.4199821
0.4208567
0.4166575
0.4172808
0.4178539
0.4184956
0.419201
0.4199782
0.4208508
0.4166743
0.4172934
0.4178626
0.4185002
0.4192022
0.4199766
0.4208471
0.416688
0.4173044
0.4178707
0.4185052
0.4192045
0.4199764
0.4208449
0.4166998
0.4173139
0.4178782
0.4185103
0.4192073
0.419977
0.4208435
0.4167102
0.4173225
0.4178849
0.4185111
0.4192047
0.4199774
0.4208426
0.4167198
0.4173305
0.4178912
0.4185114
0.4192042
0.4199783
0.420842
0.4167291
0.4173383
0.4178977
0.4185157
0.419207
0.4199796
0.4208416
0.4167383
0.417346
0.4179042
0.4185205
0.4192101
0.4199811
0.4208412
0.4167476
0.4173538
0.4179107
0.4185254
0.4192134
0.4199824
0.4208411
0.4167574
0.4173618
0.4179173
0.4185299
0.4192102
0.4199754
0.4208396
0.4167678
0.4173705
0.4179244
0.4185348
0.4192071
0.4199718
0.4208384
0.4167791
0.4173798
0.4179322
0.4185408
0.4192098
0.4199729
0.4208379
0.4167915
0.4173899
0.4179406
0.418547
0.4192138
0.4199742
0.4208367
0.4168052
0.4174013
0.41795
0.4185539
0.4192173
0.4199666
0.4208236
0.4168207
0.4174139
0.4179605
0.4185615
0.4192215
0.4199593
0.4208158
0.416838
0.4174281
0.4179721
0.4185702
0.419227
0.4199595
0.4208135
0.4168577
0.4174441
0.4179853
0.4185799
0.4192333
0.4199616
0.4208113
0.4168798
0.4174621
0.418
0.4185909
0.4192402
0.4199637
0.4207965
0.4169051
0.4174826
0.4180165
0.4186033
0.4192483
0.4199673
0.4207834
0.4169311
0.417503
0.4180341
0.4186169
0.4192578
0.4199728
0.4207812
0.4169613
0.4175268
0.4180539
0.4186318
0.4192684
0.4199796
0.4207827
0.4169947
0.4175486
0.4180691
0.4186469
0.4192803
0.4199881
0.4207879
0.41703
0.4175721
0.4180821
0.418653
0.4192895
0.4199958
0.4207947
0.4170649
0.4175943
0.4180923
0.4186608
0.419293
0.4199942
0.420793
0.4170957
0.4176055
0.4180878
0.4186333
0.4192518
0.4199592
0.4207629
0.4171108
0.4175919
0.418044
0.4185524
0.4191412
0.4198421
0.420674
0.4170983
0.4175225
0.4179166
0.4183793
0.4189404
0.419682
0.4205731
0.4170331
0.4173536
0.4176852
0.4181336
0.4187035
0.4194913
0.4205144
0.4168767
0.4170913
0.417396
0.4178592
0.4184786
0.4193005
0.4205237
0.4166045
0.4167754
0.417099
0.4175894
0.4182657
0.4191544
0.4204598
0.4162458
0.416457
0.4167808
0.4173429
0.4180492
0.4189872
0.4202776
0.4158189
0.4161742
0.4164905
0.4170542
0.4178296
0.4187467
0.4198123
0.4153778
0.4159146
0.4162534
0.4167904
0.4174759
0.4182994
0.4190093
0.4149579
0.4157529
0.4160326
0.416571
0.4170831
0.4175958
0.4182201
0.4146812
0.4156613
0.4159081
0.4163094
0.4166642
0.4169121
0.4172734
0.4145747
0.4156208
0.4157725
0.4160091
0.4162251
0.416383
0.4165946
0.4145573
0.4155561
0.4156099
0.4157622
0.4157942
0.4159069
0.4162551
0.4145187
0.4153638
0.4153245
0.4154755
0.4153714
0.4155645
0.4159217
0.4144395
0.4150854
0.4149802
0.415106
0.415058
0.4152737
0.4157588
0.4143155
0.4148023
0.4146553
0.414752
0.4147142
0.4150672
0.4157456
0.4141444
0.4144813
0.4143903
0.4145013
0.4145356
0.4150243
0.4156395
0.4140112
0.4142631
0.4141003
0.4141894
0.4143689
0.414996
0.4153771
0.4139793
0.4141858
0.4140428
0.4141872
0.4144339
0.4149654
0.4151122
0.4140364
0.414231
0.4141101
0.414307
0.4145795
0.4149698
0.4149296
0.4141399
0.4143358
0.4142469
0.4144659
0.4146957
0.4149315
0.4148534
0.4142798
0.4144979
0.4144271
0.4146148
0.4147581
0.4149003
0.4148657
0.4144998
0.4147865
0.4147142
0.4148306
0.4148669
0.4149869
0.4149804
0.4147048
0.4150281
0.4149204
0.414961
0.4149246
0.4150773
0.4150831
0.4149127
0.4152764
0.4151427
0.4151402
0.4150627
0.4152535
0.4152906
0.4151567
0.4155835
0.4154531
0.4154259
0.4153256
0.4154909
0.4155587
0.4154169
0.4159034
0.4158309
0.4158247
0.4156889
0.4158571
0.4160258
0.415663
0.4162042
0.4161453
0.4161783
0.4160213
0.4161687
0.4164313
0.4158602
0.4164807
0.416457
0.4166178
0.4164858
0.4165775
0.4169583
0.4159732
0.4166994
0.4167499
0.4170189
0.416966
0.417052
0.4173166
0.4159859
0.4168187
0.4169611
0.4173545
0.4173947
0.4174693
0.4177672
0.4158821
0.4168292
0.4170949
0.4175726
0.4179418
0.4181211
0.4183991
0.415779
0.4167352
0.4171712
0.4177597
0.4184575
0.4188336
0.4189131
0.4157957
0.416676
0.4172343
0.417956
0.4188006
0.419476
0.4197092
0.4159826
0.4166792
0.417258
0.4180623
0.4189998
0.4199799
0.4207091
0.4162701
0.4167607
0.4173137
0.4181198
0.4191059
0.4202753
0.4213892
0.4165579
0.4169174
0.4174109
0.4181558
0.4191145
0.4203002
0.421695
0.4168111
0.4170956
0.4175346
0.4181961
0.4190545
0.4201596
0.4215157
0.4169968
0.4172952
0.4176972
0.4182633
0.4190135
0.4199505
0.4212793
0.417101
0.4174761
0.4178696
0.4183892
0.4190393
0.4198613
0.421001
0.4171362
0.4175947
0.4180255
0.4185314
0.4191321
0.4198969
0.4208509
0.4171344
0.4176403
0.4181173
0.4186472
0.4192572
0.4199855
0.4208419
0.4171116
0.4176437
0.4181449
0.4186999
0.4193333
0.4200538
0.4208748
0.4170763
0.4176248
0.4181375
0.4187113
0.4193542
0.4200768
0.4208863
0.4170395
0.4175965
0.4181169
0.4187039
0.4193519
0.4200668
0.4208732
0.4170035
0.4175673
0.4180956
0.4186828
0.4193311
0.4200469
0.4208529
0.4169692
0.4175413
0.4180769
0.4186672
0.4193111
0.4200275
0.4208349
0.4169383
0.4175178
0.4180575
0.4186463
0.4192922
0.4200113
0.4208216
0.4169113
0.4174944
0.4180353
0.4186272
0.4192759
0.4199979
0.4208126
0.4168881
0.4174743
0.4180163
0.4186104
0.4192621
0.4199868
0.4208076
0.4168656
0.4174546
0.4179989
0.4185957
0.4192505
0.4199788
0.4208158
0.4168458
0.4174375
0.4179837
0.4185831
0.4192407
0.419973
0.4208256
0.4168282
0.4174223
0.4179703
0.4185722
0.4192325
0.419968
0.4208244
0.4168127
0.417409
0.4179586
0.4185628
0.4192255
0.4199654
0.4208238
0.4167988
0.4173973
0.4179483
0.4185544
0.41922
0.4199716
0.4208302
0.4167864
0.4173866
0.4179391
0.4185472
0.4192157
0.4199774
0.4208413
0.4167751
0.4173772
0.4179309
0.4185408
0.4192111
0.4199752
0.4208412
0.4167648
0.4173685
0.4179234
0.4185349
0.419208
0.4199734
0.4208407
0.4167554
0.4173605
0.4179167
0.4185301
0.4192113
0.4199769
0.4208413
0.4167466
0.4173532
0.4179105
0.4185258
0.419214
0.4199835
0.4208423
0.4167382
0.4173461
0.4179046
0.4185211
0.4192108
0.419982
0.420842
0.41673
0.4173393
0.4178987
0.4185167
0.4192078
0.4199803
0.4208419
0.4167218
0.4173324
0.4178928
0.4185126
0.4192049
0.4199787
0.4208421
0.4167135
0.4173254
0.4178873
0.4185129
0.4192057
0.4199776
0.4208424
0.4167047
0.4173181
0.4178814
0.4185123
0.4192082
0.4199771
0.4208428
0.416695
0.41731
0.4178748
0.4185076
0.4192053
0.4199759
0.4208434
0.4166839
0.4173008
0.4178676
0.4185027
0.4192026
0.4199752
0.4208446
0.4166707
0.4172903
0.4178599
0.4184979
0.4192004
0.4199754
0.4208466
0.4166546
0.417278
0.4178515
0.4184935
0.4191992
0.4199768
0.4208501
0.4166343
0.417263
0.4178428
0.4184904
0.4191999
0.4199805
0.4208557
0.4166076
0.4172452
0.4178351
0.4184897
0.4192039
0.4199877
0.4208647
0.4165711
0.4172253
0.4178336
0.4184963
0.419214
0.4200003
0.4208775
0.4165213
0.4172066
0.4178399
0.4185136
0.419234
0.4200191
0.4209091
0.4164574
0.4172015
0.4178626
0.4185457
0.4192639
0.4200592
0.4209482
0.4164157
0.4172397
0.4179243
0.4185993
0.4193225
0.4201107
0.4209921
0.4166947
0.417452
0.4180393
0.4186982
0.4193995
0.4201693
0.4210398
0.418893
0.4181914
0.4183189
0.4188319
0.4194851
0.4202308
0.4210874
0.4383631
0.4212242
0.4187813
0.419017
0.4195789
0.4202905
0.4211315
0.4221332
0.4233802
0.425044
0.426625
0.4294407
0.4338726
0.4441695
0.422108
0.42335
0.425007
0.4265826
0.4293885
0.433801
0.4437462
0.4220735
0.4233146
0.4249622
0.4271299
0.4293382
0.433733
0.443529
0.4220342
0.4232772
0.4249256
0.4264821
0.4292871
0.4336643
0.4433385
0.4219938
0.4232377
0.424882
0.4264302
0.4292337
0.4335956
0.4432108
0.4219544
0.4231979
0.4248379
0.4263799
0.4291815
0.4335279
0.4430951
0.4219173
0.4231596
0.4247948
0.4263327
0.4291659
0.4334609
0.4429884
0.4218856
0.4231228
0.4247532
0.4262868
0.4291513
0.4333947
0.4428947
0.4218727
0.4230906
0.424714
0.4262416
0.4291092
0.4333352
0.4428043
0.4218628
0.4230796
0.4246789
0.4261972
0.4290684
0.4332759
0.4427215
0.4218558
0.4230711
0.4246682
0.4261551
0.4290278
0.4332164
0.4426442
0.4218505
0.4230642
0.4246599
0.4261456
0.4289871
0.4331566
0.4425715
0.4218465
0.4230583
0.4246522
0.4261371
0.4289802
0.433095
0.4425039
0.4218432
0.4230529
0.4246447
0.4261285
0.4289723
0.4330845
0.4424539
0.4218405
0.4230478
0.4246372
0.4261196
0.4289637
0.4330709
0.4425001
0.4218379
0.4230427
0.4246297
0.4261103
0.4289542
0.4330558
0.4425659
0.4218354
0.4230376
0.424622
0.4261001
0.4289393
0.4330397
0.4426193
0.421833
0.4230325
0.4246138
0.4260852
0.4288235
0.4330218
0.4426862
0.4218305
0.4230274
0.4246053
0.4260737
0.4288025
0.4330033
0.4427464
0.4218277
0.423022
0.4245963
0.4260616
0.4287874
0.4329835
0.4428127
0.4218249
0.4230163
0.424587
0.4260486
0.4287715
0.4329626
0.4428968
0.4218217
0.4230102
0.4245776
0.4260346
0.4287545
0.4329405
0.4429683
0.4218185
0.4230033
0.4245667
0.4260226
0.4287321
0.4329173
0.443042
0.4218129
0.4229955
0.4245521
0.4265727
0.428602
0.4328802
0.4431134
0.4218077
0.4229879
0.4245417
0.4259964
0.4285482
0.4328488
0.4431811
0.4218031
0.4229794
0.4245279
0.4259665
0.4285203
0.4328186
0.4432491
0.4217961
0.4229684
0.4245107
0.4259428
0.4284916
0.4327845
0.4433203
0.4217726
0.4229545
0.4244943
0.425918
0.428453
0.4325389
0.4433804
0.4217636
0.4226174
0.4240694
0.425912
0.4284146
0.4324412
0.4434226
0.4217569
0.4226028
0.4240391
0.4258806
0.4283749
0.4323976
0.4434561
0.4217252
0.4225673
0.424021
0.4258506
0.4283321
0.4322011
0.4434457
0.4217153
0.4225412
0.4240047
0.4258194
0.4282905
0.4320073
0.4433785
0.4217192
0.4224875
0.4239839
0.4257942
0.4282545
0.4319493
0.4431854
0.4217248
0.422481
0.4239575
0.4257915
0.4282424
0.4318586
0.4414422
0.4217199
0.4224913
0.4239552
0.4258362
0.4282925
0.4316669
0.4402371
0.4217158
0.4225191
0.4239863
0.4260457
0.4284947
0.4313233
0.4360212
0.4217749
0.4226584
0.4243309
0.4265513
0.4288731
0.4313385
0.4361665
0.4219498
0.4229961
0.4248295
0.4268575
0.4293855
0.4325621
0.4358658
0.4222068
0.4234372
0.4253059
0.4272714
0.43024
0.4330872
0.4359887
0.4223007
0.4237779
0.4254948
0.427529
0.4298433
0.4324714
0.4366054
0.4220652
0.4235794
0.424904
0.4271869
0.4287695
0.4314851
0.437133
0.4210837
0.4225022
0.4243578
0.4263087
0.4276615
0.4303388
0.4362585
0.4200669
0.4216443
0.4237452
0.4249344
0.4266022
0.4292708
0.4354881
0.4191637
0.420858
0.4230888
0.4236249
0.4251292
0.4283724
0.4336026
0.4182976
0.4197102
0.4218304
0.422537
0.4242838
0.4273424
0.4323873
0.4174258
0.4187471
0.4206659
0.421366
0.4235851
0.425974
0.4311851
0.4168962
0.4180414
0.4194825
0.4204592
0.4221912
0.4254906
0.4296498
0.4168168
0.4177415
0.418653
0.4194634
0.4216273
0.4237241
0.4273795
0.4166317
0.4173596
0.4177697
0.4189066
0.4207749
0.4234243
0.4262764
0.4163135
0.4166504
0.4172019
0.4184018
0.420151
0.4225131
0.4262477
0.4158594
0.415999
0.416726
0.4179412
0.4196209
0.4219338
0.4257779
0.4154086
0.415578
0.4163113
0.4173746
0.4187673
0.4211657
0.4246386
0.4151929
0.4153771
0.4160684
0.4170597
0.4184792
0.4204713
0.4229541
0.4149822
0.4152487
0.4160331
0.4171504
0.4182335
0.4201465
0.4225523
0.414949
0.4152247
0.4159315
0.4169532
0.4180666
0.4185115
0.4198301
0.4149363
0.4153207
0.4159447
0.4167611
0.4176268
0.4186619
0.4150918
0.415492
0.4161526
0.4168918
0.4177083
0.4187872
0.4152884
0.4156492
0.4164345
0.4173043
0.4183014
0.4195671
0.4156052
0.4158476
0.4167603
0.4176207
0.4188471
0.4203656
0.4228098
0.415944
0.4161188
0.4171022
0.41815
0.4193612
0.4217281
0.4253117
0.4164472
0.4166273
0.4176748
0.4188922
0.4204835
0.4224823
0.4256281
0.4167281
0.4169728
0.4178614
0.4190723
0.4205417
0.4228936
0.4266051
0.4171494
0.4174
0.4182076
0.4194902
0.4210064
0.423353
0.4271423
0.417675
0.4177893
0.4186663
0.4198126
0.4217895
0.4240368
0.4271181
0.4183322
0.4182703
0.4192719
0.4209658
0.4224131
0.4246191
0.4293222
0.4189017
0.41893
0.4201192
0.4214631
0.423494
0.4255955
0.4307325
0.419614
0.4197165
0.4207437
0.4226051
0.4242699
0.4275883
0.4323775
0.4204505
0.4206417
0.4218555
0.4232168
0.4256445
0.4282898
0.4335234
0.4212556
0.421563
0.4227592
0.4243188
0.4261974
0.4294669
0.4348976
0.4223715
0.4224779
0.4234794
0.4250512
0.4272641
0.4304777
0.4367383
0.4232685
0.4236471
0.4242751
0.4257227
0.4282255
0.431233
0.437227
0.423558
0.4248211
0.4252053
0.4264975
0.4286087
0.4313551
0.4369754
0.4230709
0.4248165
0.4261128
0.427441
0.4290532
0.4318919
0.4367682
0.4224589
0.4240433
0.4255624
0.4275707
0.4298988
0.4326081
0.4366869
0.4220541
0.4232888
0.4247295
0.4265827
0.4292526
0.4322422
0.4364205
0.4218901
0.4228628
0.4242182
0.4262106
0.4286033
0.4314582
0.4376278
0.4218432
0.4227083
0.424006
0.4259432
0.4283932
0.4314851
0.4385848
0.4218248
0.4226572
0.4239779
0.4258864
0.4283158
0.4318298
0.4414196
0.4218033
0.4226276
0.4240234
0.4258739
0.4283066
0.4319497
0.4423599
0.4217816
0.4226064
0.4240547
0.4258762
0.428325
0.4319962
0.4428634
0.4217685
0.4226262
0.4240639
0.4258889
0.4283533
0.4320517
0.443751
0.4217705
0.4226505
0.4240723
0.4259044
0.4283835
0.4321298
0.443699
0.4217925
0.4226787
0.4240779
0.4259202
0.4284125
0.4324061
0.4436319
0.4217913
0.4226804
0.4240863
0.4259349
0.4284396
0.4324602
0.4435464
0.4217953
0.4229788
0.4245201
0.4259783
0.4284668
0.4324956
0.4434637
0.4218132
0.4229869
0.4245305
0.4259902
0.4284978
0.4327117
0.4433787
0.4218162
0.4229937
0.4245422
0.426004
0.4285244
0.4328187
0.4432858
0.4218176
0.4229989
0.4245524
0.4260171
0.4285476
0.4328451
0.4432012
0.4218205
0.4230042
0.4245623
0.4260297
0.4285738
0.4328697
0.4431122
0.421824
0.4230092
0.4245716
0.4260422
0.4286993
0.4329038
0.4430341
0.4218256
0.4230141
0.4245806
0.4260542
0.4287497
0.4329303
0.4429527
0.4218275
0.423019
0.4245893
0.4260655
0.4287652
0.4329511
0.4428708
0.4218295
0.4230237
0.4245976
0.4260766
0.4287803
0.4329712
0.4427942
0.4218317
0.4230283
0.4246058
0.4260872
0.4287946
0.4329905
0.44272
0.4218336
0.4230327
0.4246135
0.4260976
0.4288082
0.4330088
0.4426543
0.4218356
0.4230373
0.4246211
0.4261098
0.4288715
0.4330265
0.4425935
0.4218376
0.423042
0.4246284
0.4261215
0.428947
0.4330431
0.4425339
0.4218397
0.4230464
0.4246353
0.4261309
0.4289563
0.4330586
0.4424674
0.4218418
0.4230509
0.4246421
0.4261403
0.4289651
0.433073
0.4424613
0.4218443
0.4230555
0.4246489
0.4261494
0.428973
0.4330861
0.442446
0.4218472
0.4230604
0.4246558
0.4261586
0.4289808
0.4331218
0.442519
0.4218509
0.423066
0.424663
0.4261682
0.4290036
0.4331822
0.4425974
0.4218559
0.4230727
0.4246726
0.4261939
0.4290438
0.4332423
0.4426815
0.421863
0.4230817
0.4247064
0.4262385
0.4290842
0.4333021
0.4427678
0.4218727
0.4231115
0.4247437
0.4262838
0.4291249
0.433362
0.4428616
0.4219006
0.4231457
0.4247837
0.4263303
0.4291644
0.4334251
0.4429595
0.4219338
0.4231819
0.4248253
0.4263754
0.4291529
0.4334922
0.4430628
0.4219702
0.4232202
0.4248684
0.4264232
0.4292031
0.4335598
0.4431746
0.4220097
0.4232603
0.4249125
0.4264707
0.4292556
0.4336279
0.4432994
0.422051
0.4233008
0.4249567
0.4265175
0.4293085
0.4336968
0.4434553
0.4220913
0.4233398
0.4249999
0.4265624
0.4293615
0.4337665
0.4436679
0.4221287
0.4233777
0.4250422
0.4266051
0.4294144
0.4338373
0.4440096
0.9961447
1
1
1
1
1
1
1
1
1
1
1
1
1
1
1
1
1
0.9904294
1
1
1
1
1
1
1
1
1
1
1
1
1
1
1
1
1
0.9885211
1
1
1
1
1
1
1
1
1
1
1
1
1
1
1
1
1
0.9875657
1
1
1
1
1
1
1
1
1
1
1
1
1
1
1
1
1
0.9866476
1
1
1
1
1
1
1
1
1
1
1
1
1
1
1
1
1
0.9857773
1
1
1
1
1
1
1
1
1
1
1
1
1
1
1
1
1
0.9849175
1
1
1
1
1
1
1
1
1
1
1
1
1
1
1
1
1
0.9840896
1
1
1
1
1
1
1
1
1
1
1
1
1
1
1
1
1
0.983286
1
1
1
1
1
1
1
1
1
1
1
1
1
1
1
1
1
0.9824614
1
1
1
1
1
1
1
1
1
1
1
1
1
1
1
1
1
0.98165
1
1
1
1
1
1
1
1
1
1
1
1
1
1
1
1
1
0.9808849
1
1
1
1
1
1
1
1
1
1
1
1
1
1
1
1
1
0.9801097
1
1
1
1
1
1
1
1
1
1
1
1
1
1
1
1
1
0.9791685
1
1
1
1
1
1
1
1
1
1
1
1
1
1
1
1
1
0.9739828
1
1
1
1
1
1
1
1
1
1
1
1
1
1
1
1
1
0.9731122
1
1
1
1
1
1
1
1
1
1
1
1
1
1
1
1
1
0.9715385
1
1
1
1
1
1
1
1
1
1
1
1
1
1
1
1
1
0.9697223
1
1
1
1
1
1
1
1
1
1
1
1
1
1
1
1
1
0.9677516
1
1
1
1
1
1
1
1
1
1
1
1
1
1
1
1
1
0.9657899
1
1
1
1
1
1
1
1
1
1
1
1
1
1
1
1
1
0.9638546
1
1
1
1
1
1
1
1
1
1
1
1
1
1
1
1
1
0.9618509
1
1
1
1
1
1
1
1
1
1
1
1
1
1
1
1
1
0.9597207
1
1
1
1
1
1
1
1
1
1
1
1
1
1
1
1
1
0.9574639
1
1
1
1
1
1
1
1
1
1
1
1
1
1
1
1
1
0.9550113
1
1
1
1
1
1
1
1
1
1
1
1
1
1
1
1
1
0.9524573
1
1
1
1
1
1
1
1
1
1
1
1
1
1
1
1
1
0.9496975
1
1
1
1
1
1
1
1
1
1
1
1
1
1
1
1
1
0.9467346
1
1
1
1
1
1
1
1
1
1
1
1
1
1
1
1
1
0.9435939
1
1
1
1
1
1
1
1
1
1
1
1
1
1
1
1
1
0.9401662
1
1
1
1
1
1
1
1
1
1
1
1
1
1
1
1
1
0.9364853
1
1
1
1
1
1
1
1
1
1
1
1
1
1
1
1
1
0.9325344
0.9999999
1
1
1
1
1
1
1
1
1
1
1
1
1
1
1
1
0.9280137
0.9999999
1
1
1
1
1
1
1
1
1
1
1
1
1
1
1
1
0.921919
0.9999998
1
1
1
1
1
1
1
1
1
1
1
1
1
1
1
1
0.9053615
1
1
1
1
1
1
1
1
1
1
1
1
1
1
1
1
1
0.8933226
1
1
1
1
1
1
1
1
1
1
1
1
1
1
1
1
1
0.868735
1
1
1
1
1
1
1
1
1
1
1
1
1
1
1
1
1
0.7623694
1
1
1
1
1
1
1
1
1
1
1
1
1
1
1
1
1
0.6237025
0.9999959
1
1
1
1
1
1
1
1
1
1
1
1
1
1
1
1
0.502416
0.999986
1
1
1
1
1
1
1
1
1
1
1
1
1
1
1
1
0.4719742
0.9998994
1
1
1
1
1
1
1
1
1
1
1
1
1
1
1
1
0.4644083
0.9999871
1
1
1
1
1
1
1
1
1
1
1
1
1
1
1
1
0.463213
1
1
1
1
1
1
1
1
1
1
1
1
1
1
1
1
1
0.457653
0.9989778
1
1
1
1
1
1
1
1
1
1
1
1
1
1
1
1
0.4549979
0.9985849
1
1
1
1
1
1
1
1
1
1
1
1
1
1
1
1
0.4530306
0.997573
0.9999999
1
1
1
1
1
1
1
1
1
1
1
1
1
1
1
0.4492959
0.995182
0.9999981
1
1
1
1
1
1
1
1
1
1
1
1
1
1
1
0.4416006
0.9698513
0.999975
0.9999999
1
1
1
1
1
1
1
1
1
1
1
1
1
1
0.4360707
0.9079681
0.9997799
0.9999993
1
1
1
1
1
1
1
1
1
1
1
1
1
1
0.4342037
0.7140329
0.9986796
0.9999944
1
1
1
1
1
1
1
1
1
1
0.4335001
0.4572222
1
1
1
1
1
1
1
1
0.4331323
1
1
1
1
1
1
1
1
1
1
1
1
1
1
1
1
1
1
1
1
1
1
1
1
1
1
1
1
1
1
1
1
1
1
1
1
1
1
1
1
1
1
1
1
1
1
1
1
1
0.4332727
1
1
1
1
1
1
0.4352181
0.4476102
1
1
1
1
1
1
1
0.4354453
0.6614593
0.9976984
1
1
1
1
1
1
1
1
1
0.4372613
0.8345702
0.9991455
0.99998
0.9999994
1
1
1
1
1
1
1
1
1
1
1
1
1
0.4429816
0.9568098
0.9999084
0.9999994
1
1
1
1
1
1
1
1
1
1
1
1
1
1
0.4441353
0.9866569
0.9999963
1
1
1
1
1
1
1
1
1
1
1
1
1
1
1
0.4483917
0.9971032
0.9999961
1
1
1
1
1
1
1
1
1
1
1
1
1
1
1
0.4535735
0.9980089
0.9999965
1
1
1
1
1
1
1
1
1
1
1
1
1
1
1
0.4575592
0.9990478
0.9999994
1
1
1
1
1
1
1
1
1
1
1
1
1
1
1
0.4600441
0.999254
0.9999982
1
1
1
1
1
1
1
1
1
1
1
1
1
1
1
0.4635186
0.9984696
0.9999938
1
1
1
1
1
1
1
1
1
1
1
1
1
1
1
0.4671526
0.9961144
0.9999854
1
1
1
1
1
1
1
1
1
1
1
1
1
1
1
0.4969642
0.9990262
0.9999985
1
1
1
1
1
1
1
1
1
1
1
1
1
1
1
0.5862134
0.9997871
0.9999997
1
1
1
1
1
1
1
1
1
1
1
1
1
1
1
0.6386629
0.999868
1
1
1
1
1
1
1
1
1
1
1
1
1
1
1
1
0.8794718
0.9999967
1
1
1
1
1
1
1
1
1
1
1
1
1
1
1
1
0.8880684
0.9999987
1
1
1
1
1
1
1
1
1
1
1
1
1
1
1
1
0.910065
0.9999997
1
1
1
1
1
1
1
1
1
1
1
1
1
1
1
1
0.918575
0.9999997
1
1
1
1
1
1
1
1
1
1
1
1
1
1
1
1
0.930907
0.9999994
1
1
1
1
1
1
1
1
1
1
1
1
1
1
1
1
0.9339436
0.9999995
1
1
1
1
1
1
1
1
1
1
1
1
1
1
1
1
0.9369895
0.9999995
1
1
1
1
1
1
1
1
1
1
1
1
1
1
1
1
0.940031
0.9999996
1
1
1
1
1
1
1
1
1
1
1
1
1
1
1
1
0.9429439
0.9999997
1
1
1
1
1
1
1
1
1
1
1
1
1
1
1
1
0.9457099
0.9999997
1
1
1
1
1
1
1
1
1
1
1
1
1
1
1
1
0.9483488
0.9999998
1
1
1
1
1
1
1
1
1
1
1
1
1
1
1
1
0.9508969
0.9999998
1
1
1
1
1
1
1
1
1
1
1
1
1
1
1
1
0.9533891
0.9999999
1
1
1
1
1
1
1
1
1
1
1
1
1
1
1
1
0.9555782
0.9999999
1
1
1
1
1
1
1
1
1
1
1
1
1
1
1
1
0.9579015
0.9999999
1
1
1
1
1
1
1
1
1
1
1
1
1
1
1
1
0.9599712
0.9999999
1
1
1
1
1
1
1
1
1
1
1
1
1
1
1
1
0.9619722
0.9999999
1
1
1
1
1
1
1
1
1
1
1
1
1
1
1
1
0.9638377
0.9999999
1
1
1
1
1
1
1
1
1
1
1
1
1
1
1
1
0.9657398
1
1
1
1
1
1
1
1
1
1
1
1
1
1
1
1
1
0.9677966
1
1
1
1
1
1
1
1
1
1
1
1
1
1
1
1
1
0.9697414
1
1
1
1
1
1
1
1
1
1
1
1
1
1
1
1
1
0.9717516
1
1
1
1
1
1
1
1
1
1
1
1
1
1
1
1
1
0.9723482
0.9999999
1
1
1
1
1
1
1
1
1
1
1
1
1
1
1
1
0.9768768
0.9999999
1
1
1
1
1
1
1
1
1
1
1
1
1
1
1
1
0.9793091
0.9999999
1
1
1
1
1
1
1
1
1
1
1
1
1
1
1
1
0.9802138
1
1
1
1
1
1
1
1
1
1
1
1
1
1
1
1
1
0.9811023
1
1
1
1
1
1
1
1
1
1
1
1
1
1
1
1
1
0.9819804
1
1
1
1
1
1
1
1
1
1
1
1
1
1
1
1
1
0.9828571
1
1
1
1
1
1
1
1
1
1
1
1
1
1
1
1
1
0.9837244
1
1
1
1
1
1
1
1
1
1
1
1
1
1
1
1
1
0.9845557
0.9999999
1
1
1
1
1
1
1
1
1
1
1
1
1
1
1
1
0.9854249
0.9999998
1
1
1
1
1
1
1
1
1
1
1
1
1
1
1
1
0.9862273
0.9999991
1
1
1
1
1
1
1
1
1
1
1
1
1
1
1
1
0.9870593
0.9999984
1
1
1
1
1
1
1
1
1
1
1
1
1
1
1
1
0.98805
0.9999989
1
1
1
1
1
1
1
1
1
1
1
1
1
1
1
1
0.989336
0.9999994
1
1
1
1
1
1
1
1
1
1
1
1
1
1
1
1
0.9937616
0.9999998
1
1
1
1
1
1
1
1
1
1
1
1
1
1
1
1
1
1
1
1
1
1
1
1
1
1
1
1
1
1
1
1
1
1
1
1
1
1
1
1
1
1
1
1
1
1
1
1
1
1
1
1
1
1
1
1
1
1
1
1
1
1
1
1
1
1
1
1
1
1
1
1
1
1
1
1
1
1
1
1
1
1
1
1
1
1
1
1
1
1
1
1
1
1
1
1
1
1
1
1
1
1
1
1
1
1
1
1
1
1
1
1
1
1
1
1
1
1
1
1
1
1
1
1
1
1
1
1
1
1
1
1
1
1
1
1
1
1
1
1
1
1
1
1
1
1
1
1
1
1
1
1
1
1
1
1
1
1
1
1
1
1
1
1
1
1
1
1
1
1
1
1
1
1
1
1
1
1
1
1
1
1
1
1
1
1
1
1
1
1
1
1
1
1
1
1
1
1
1
1
1
1
1
1
1
1
1
1
1
1
1
1
1
1
1
1
1
1
1
1
1
1
1
1
1
1
1
1
1
1
1
1
1
1
1
1
1
1
1
1
1
1
1
1
1
1
1
1
1
1
1
1
1
1
1
1
1
1
1
1
1
1
1
1
1
1
1
1
1
1
1
1
1
1
1
1
1
1
1
1
1
1
1
1
1
1
1
1
1
1
1
1
1
1
1
1
1
1
1
1
1
1
1
1
1
1
1
1
1
1
1
1
1
1
1
1
1
1
1
1
1
1
1
1
1
1
1
1
1
1
1
1
1
1
1
1
1
1
1
1
1
1
1
1
1
1
1
1
1
1
1
1
1
1
1
1
1
1
1
1
1
1
1
1
1
1
1
1
1
1
1
1
1
1
1
1
1
1
1
1
1
1
1
1
1
1
1
1
1
1
1
1
1
1
1
1
1
1
1
1
1
1
1
1
1
1
1
1
1
1
1
1
1
1
1
1
1
1
1
1
1
1
1
1
1
1
1
1
1
1
1
1
1
1
1
1
1
1
1
1
1
1
1
1
1
1
1
1
1
1
1
1
1
1
1
1
1
1
1
1
1
1
1
1
1
1
1
1
1
1
1
1
1
1
1
1
1
1
1
1
1
1
1
1
1
1
1
1
1
1
1
1
1
1
1
1
1
1
1
1
1
1
1
1
1
1
1
1
1
1
1
1
1
1
1
1
1
1
1
1
1
1
1
1
1
1
1
1
1
1
1
1
1
1
1
1
1
1
1
1
1
1
1
1
1
1
1
1
1
1
1
1
1
1
1
1
1
1
1
1
1
1
1
1
1
1
1
1
1
1
1
1
1
1
1
1
1
1
1
1
1
1
1
1
1
1
1
1
1
1
1
1
1
1
1
1
1
1
1
1
1
1
1
1
1
1
1
1
1
1
1
1
1
1
1
1
1
1
1
1
1
1
1
1
1
1
1
1
1
1
1
1
1
1
1
1
1
1
1
1
1
1
1
1
1
1
1
1
1
1
1
1
1
1
1
1
1
1
1
1
1
1
1
1
1
1
1
1
1
1
1
1
1
1
1
1
1
1
1
1
1
1
1
1
1
1
1
1
1
1
1
1
1
1
1
1
1
1
1
1
1
1
1
1
1
1
1
1
1
1
1
1
1
1
1
1
1
1
1
1
1
1
1
1
1
1
1
1
1
1
1
1
1
1
1
1
1
1
1
1
1
1
1
1
1
1
1
1
1
1
1
1
1
1
1
1
1
1
1
1
1
1
1
1
1
1
1
1
1
1
1
1
1
1
1
1
1
1
1
1
1
1
1
1
1
1
1
1
1
1
1
1
1
1
1
1
1
1
1
1
1
1
1
1
1
1
1
1
1
1
1
1
1
1
1
1
1
1
1
1
1
1
1
1
1
1
1
1
1
1
1
1
1
1
1
1
1
1
1
1
1
1
1
1
1
1
1
1
1
1
1
1
1
1
1
1
1
1
1
1
1
1
1
1
1
1
1
1
1
1
1
1
1
1
1
1
1
1
1
1
1
1
1
1
1
1
1
1
1
1
1
1
1
1
1
1
1
1
1
1
1
1
1
1
1
1
1
1
1
1
1
1
1
1
1
1
1
1
1
1
1
1
1
1
1
1
1
1
1
1
1
1
1
1
1
1
1
1
1
1
1
1
1
1
1
1
1
1
1
1
1
1
1
1
1
1
1
1
1
1
1
1
1
1
1
1
1
1
1
1
1
1
1
1
1
1
1
1
1
1
1
1
1
1
1
1
1
1
1
1
1
1
1
1
1
1
1
1
1
1
1
1
1
1
1
1
1
1
1
1
1
1
1
1
1
1
1
1
1
1
1
1
1
1
1
1
1
1
1
1
1
1
1
1
1
1
1
1
1
1
1
1
1
1
1
1
1
1
1
1
1
1
1
1
1
1
1
1
1
1
1
1
1
1
1
1
1
1
1
1
1
1
1
1
1
1
1
1
1
1
1
1
1
1
1
1
1
1
1
1
1
1
1
1
1
1
1
1
1
1
1
1
1
1
1
1
1
1
1
1
1
1
1
1
1
1
1
1
1
1
1
1
1
1
1
1
1
1
1
1
1
1
1
1
1
1
1
1
1
1
1
1
1
1
1
1
1
1
1
1
1
1
1
1
1
1
1
1
1
1
1
1
1
1
1
1
1
1
1
1
1
1
1
1
1
1
1
1
1
1
1
1
1
1
1
1
1
1
1
1
1
1
1
1
1
1
1
1
1
1
1
1
1
1
1
1
1
1
1
1
1
1
1
1
1
1
1
1
1
1
1
1
1
1
1
1
1
1
1
1
1
1
1
1
1
1
1
1
1
1
1
1
1
1
1
1
1
1
0.4254566
0.4249843
0.4241281
0.4206872
0.4225446
0.41908
0.4186045
0.4188361
0.4186177
0.418521
0.4188975
0.4194297
0.4191736
0.4201613
0.4231209
0.4198532
0.4216854
0.4243961
0.4269948
0.4277621
0.4250174
1
1
0.9999988
1
1
1
1
1
1
1
1
1
1
1
1
1
1
1
0.9998771
0.9996922
0.9996916
1
1
1
1
1
0.7973962
0.444792
1
1
0.4396589
0.4301984
1
1
1
1
1
1
1
1
1
1
1
1
1
1
1
1
1
1
1
1
1
1
1
1
1
1
1
1
1
1
1
1
0.4429158
0.4356021
1
1
1
0.8660482
0.4638035
1
1
1
0.9994993
0.999767
0.9985873
0.9999865
0.9999457
1
1
1
1
1
0.9999983
0.9999992
0.9999945
0.9999999
1
0.9999999
1
1
1
1
1
1
1
1
1
1
1
1
0.4278992
0.4278746
0.4266047
0.4313616
0.4313344
0.4294147
0.4374451
0.4373956
0.433836
0.497565
0.4925481
0.4439517
0.4278458
0.4278273
0.4265626
0.4313078
0.4312827
0.4293644
0.4373405
0.4372882
0.433766
0.4878088
0.4865959
0.4436342
0.4312582
0.4312329
0.4293263
0.4372349
0.4371829
0.4336989
0.48623
0.4858771
0.4434265
0.4277377
0.427715
0.4264826
0.4312052
0.4311783
0.429259
0.4371304
0.4370776
0.4336294
0.4855377
0.485216
0.4432731
0.4276901
0.4276652
0.4264321
0.4311515
0.4311263
0.4292075
0.4370252
0.436973
0.4335613
0.4849069
0.4846175
0.4431511
0.4311
0.4310747
0.4291575
0.4369229
0.4368799
0.4334943
0.4843488
0.4840872
0.4430405
0.4276104
0.4276133
0.4263383
0.4310523
0.4310293
0.4291683
0.4368369
0.4367938
0.4334275
0.4838329
0.4835949
0.4429397
0.4310037
0.4309791
0.4291289
0.4367506
0.4367077
0.4333644
0.4833715
0.4831671
0.4428496
0.4275495
0.4275283
0.4262453
0.4309533
0.4309292
0.4290878
0.4366641
0.4366214
0.4333046
0.482956
0.4827458
0.4427633
0.4275066
0.4274859
0.4261997
0.4309035
0.4308814
0.4290477
0.4365778
0.436535
0.4332454
0.48255
0.4823524
0.4426812
0.4274645
0.4274448
0.4261733
0.4308582
0.430836
0.4290071
0.4364912
0.4364482
0.4331859
0.4821722
0.4820042
0.4426073
0.4274416
0.427437
0.4261627
0.4308125
0.4307893
0.4289836
0.4364044
0.4363612
0.433126
0.4818437
0.4816826
0.4425362
0.4274325
0.4274284
0.4261528
0.4307856
0.4307813
0.4289757
0.4363171
0.4362709
0.4330911
0.4815261
0.4813491
0.4424725
0.4274238
0.4274195
0.4261429
0.4307762
0.4307715
0.4289677
0.4362657
0.4362562
0.4330777
0.4811377
0.4804305
0.4425026
0.4274147
0.42741
0.4261336
0.4307657
0.4307605
0.4289591
0.436245
0.4362352
0.4330632
0.4787495
0.4784184
0.4425148
0.4274055
0.4274
0.426124
0.4307546
0.4307486
0.4289499
0.4362232
0.436213
0.4330478
0.4785105
0.4783278
0.4425882
0.4273924
0.4273415
0.4261112
0.4307428
0.4307303
0.428871
0.4362008
0.4361896
0.4330312
0.4779649
0.4776749
0.4426519
0.4272925
0.4272778
0.426098
0.4307191
0.4307122
0.4288093
0.4361773
0.4361646
0.4330131
0.4773621
0.4770554
0.4427152
0.4272702
0.4272633
0.4260869
0.4307049
0.4306974
0.428795
0.436152
0.436139
0.4329938
0.4767408
0.4764274
0.442779
0.4272558
0.4272481
0.4260756
0.4306896
0.4306816
0.4287798
0.4361255
0.4361123
0.4329734
0.4761664
0.4758931
0.4428531
0.4272409
0.4272322
0.4260638
0.4306734
0.4306647
0.4287638
0.4360984
0.4360847
0.4329512
0.4756397
0.4753841
0.4429271
0.4272244
0.4272139
0.4260519
0.4306558
0.4306466
0.428746
0.43607
0.4360567
0.4329288
0.4751252
0.474875
0.4430028
0.4272032
0.4272086
0.426027
0.4306367
0.4305761
0.4286911
0.4360425
0.4360284
0.4329008
0.4746058
0.4743512
0.4430761
0.4304819
0.4304327
0.4285854
0.4360144
0.4359996
0.4328642
0.4740842
0.47381
0.4431473
0.4271469
0.4271485
0.4260117
0.4304169
0.4304027
0.428534
0.4359849
0.4359697
0.4328346
0.4735422
0.4732774
0.443218
0.4271409
0.4271292
0.4259889
0.4303885
0.4303735
0.4285068
0.4359541
0.4359386
0.4328027
0.4730116
0.4727358
0.4432866
0.427117
0.4271037
0.4259694
0.4303507
0.4302882
0.4284734
0.4359231
0.4359001
0.4326893
0.4724666
0.4721854
0.4433534
0.4270904
0.4270744
0.4259508
0.4301739
0.4301076
0.4284353
0.4358726
0.4358512
0.4324658
0.4719114
0.4716278
0.4434041
0.4232762
0.4232831
0.4226506
0.4249047
0.4249049
0.4240497
0.4270581
0.4270404
0.4258952
0.4300776
0.4300542
0.428395
0.4358341
0.4358175
0.4324198
0.4713551
0.471063
0.443442
0.4232806
0.4232746
0.4226404
0.4248966
0.4248857
0.4240306
0.427023
0.4270045
0.4258656
0.4300309
0.4300063
0.4283535
0.4358006
0.4357751
0.4323556
0.4707783
0.4704839
0.4434674
0.4232639
0.4232546
0.422606
0.4248739
0.424862
0.4240125
0.4269847
0.4269661
0.4258346
0.4299759
0.4299511
0.4283104
0.4355294
0.435355
0.4320704
0.4701931
0.4698868
0.4434226
0.4232439
0.4232196
0.4225723
0.4248502
0.4248401
0.4239919
0.4269464
0.4269295
0.4258055
0.4299287
0.4299087
0.428271
0.4353023
0.4352694
0.4319807
0.469594
0.4692775
0.4433068
0.4232122
0.4231994
0.4225444
0.4248327
0.4248298
0.4239753
0.4269153
0.4269071
0.4257893
0.429889
0.4298712
0.4282442
0.4351922
0.4347923
0.431898
0.4689382
0.4684793
0.4421141
0.4231723
0.4231484
0.4225604
0.4248266
0.4248349
0.4239583
0.4269085
0.4269235
0.4258065
0.4298638
0.4298581
0.428256
0.4345161
0.4342515
0.43179
0.4679472
0.4672308
0.4409487
0.4231519
0.4231765
0.4225979
0.4248523
0.4248981
0.4239443
0.4269661
0.4270558
0.4259025
0.4298499
0.4298461
0.4283708
0.433929
0.4336305
0.4315166
0.4659818
0.465731
0.4398371
0.42324
0.4233299
0.4227203
0.4250078
0.425085
0.424094
0.427213
0.427404
0.4262496
0.4298588
0.4299323
0.4286637
0.4332574
0.4326657
0.4312225
0.4635519
0.461184
0.4367527
0.423499
0.4236997
0.4230444
0.4252256
0.4254434
0.4245813
0.4275917
0.4278669
0.4267989
0.4301562
0.4305768
0.4290916
0.4324547
0.4327968
0.431824
0.4602933
0.4593945
0.4360016
0.4239631
0.4241924
0.4235182
0.4256754
0.4260127
0.4250766
0.4282682
0.4287231
0.4269641
0.4312282
0.4317213
0.4298861
0.4334621
0.4341299
0.4330637
0.4491431
0.4492445
0.4358035
0.4244405
0.4246332
0.4239136
0.4262625
0.4264767
0.4254936
0.4288233
0.4287243
0.4276216
0.4315983
0.4314694
0.4303446
0.4345846
0.4348884
0.4329749
0.4488952
0.4467509
0.4363271
0.4247174
0.4245515
0.4239192
0.4264288
0.4262079
0.425268
0.4285972
0.4285041
0.4273742
0.4309215
0.4304044
0.4293127
0.4348351
0.4342599
0.4318488
0.445161
0.4422615
0.4370893
0.4241616
0.423711
0.4228724
0.4259974