/*--------------------------------*- C++ -*----------------------------------*\
| =========                 |                                                 |
| \\      /  F ield         | OpenFOAM: The Open Source CFD Toolbox           |
|  \\    /   O peration     | Version:  2206                                  |
|   \\  /    A nd           | Website:  www.openfoam.com                      |
|    \\/     M anipulation  |                                                 |
\*---------------------------------------------------------------------------*/
FoamFile
{
    version     2.0;
    format      ascii;
    arch        "LSB;label=32;scalar=64";
    class       volScalarField;
    location    "2.8";
    object      ddt0(k.b);
}
// * * * * * * * * * * * * * * * * * * * * * * * * * * * * * * * * * * * * * //

dimensions      [0 2 -3 0 0 0 0];

internalField   nonuniform List<scalar> 
13078
(
6.186785e-13
-2.665106e-11
-3.196936e-11
-3.204298e-11
-3.228079e-11
-3.255098e-11
-3.286375e-11
3.633714e-14
-2.3298e-11
-3.182e-11
-3.20332e-11
-3.227319e-11
-3.254388e-11
-3.285674e-11
3.495072e-13
-2.306082e-11
-3.178666e-11
-3.201974e-11
-3.226082e-11
-3.253446e-11
-3.284831e-11
1.65255e-13
-2.310037e-11
-3.177202e-11
-3.200669e-11
-3.224945e-11
-3.252501e-11
-3.283952e-11
1.338267e-13
-2.311216e-11
-3.176242e-11
-3.200055e-11
-3.224045e-11
-3.251626e-11
-3.283098e-11
1.367292e-13
-2.312126e-11
-3.175801e-11
-3.199713e-11
-3.223696e-11
-3.250886e-11
-3.282285e-11
1.381677e-13
-2.311938e-11
-3.17549e-11
-3.199445e-11
-3.223468e-11
-3.250637e-11
-3.281566e-11
1.371081e-13
-2.311008e-11
-3.175218e-11
-3.199285e-11
-3.223331e-11
-3.250474e-11
-3.281358e-11
1.365925e-13
-2.310086e-11
-3.175113e-11
-3.199237e-11
-3.223249e-11
-3.250353e-11
-3.281209e-11
1.392176e-13
-2.308706e-11
-3.175006e-11
-3.199209e-11
-3.223189e-11
-3.250257e-11
-3.281085e-11
1.445568e-13
-2.307001e-11
-3.174884e-11
-3.199185e-11
-3.223138e-11
-3.250174e-11
-3.280969e-11
1.540274e-13
-2.30503e-11
-3.174743e-11
-3.199159e-11
-3.223092e-11
-3.250096e-11
-3.280862e-11
1.688492e-13
-2.302839e-11
-3.174582e-11
-3.199127e-11
-3.223045e-11
-3.25002e-11
-3.280754e-11
1.899706e-13
-2.300433e-11
-3.174397e-11
-3.199081e-11
-3.222981e-11
-3.249939e-11
-3.280642e-11
2.185354e-13
-2.297832e-11
-3.174178e-11
-3.198916e-11
-3.222733e-11
-3.249835e-11
-3.280528e-11
2.559481e-13
-2.295036e-11
-3.173924e-11
-3.198705e-11
-3.222525e-11
-3.249734e-11
-3.280405e-11
3.040069e-13
-2.292056e-11
-3.173658e-11
-3.198629e-11
-3.222441e-11
-3.249634e-11
-3.280275e-11
3.653741e-13
-2.288882e-11
-3.17336e-11
-3.198554e-11
-3.222354e-11
-3.249528e-11
-3.280136e-11
4.432924e-13
-2.285491e-11
-3.173024e-11
-3.198474e-11
-3.222252e-11
-3.249394e-11
-3.279988e-11
5.417064e-13
-2.281889e-11
-3.172646e-11
-3.198372e-11
-3.22196e-11
-3.248976e-11
-3.279803e-11
6.651627e-13
-2.278049e-11
-3.172227e-11
-3.198257e-11
-3.221599e-11
-3.248616e-11
-3.279609e-11
8.19343e-13
-2.273964e-11
-3.171761e-11
-3.198151e-11
-3.221452e-11
-3.248446e-11
-3.279422e-11
1.012518e-12
-2.269604e-11
-3.171238e-11
-3.19803e-11
-3.221314e-11
-3.24825e-11
-3.279187e-11
1.254298e-12
-2.264954e-11
-3.170658e-11
-3.197898e-11
-3.221141e-11
-3.247787e-11
-3.278526e-11
1.556458e-12
-2.259982e-11
-3.170013e-11
-3.197754e-11
-3.220951e-11
-3.247218e-11
-3.277946e-11
1.93358e-12
-2.254655e-11
-3.169291e-11
-3.197595e-11
-3.220766e-11
-3.246941e-11
-3.277627e-11
2.403821e-12
-2.249007e-11
-3.168491e-11
-3.197422e-11
-3.220564e-11
-3.246671e-11
-3.277258e-11
2.990386e-12
-2.242537e-11
-3.167592e-11
-3.197234e-11
-3.22034e-11
-3.246355e-11
-3.276501e-11
3.723044e-12
-2.236287e-11
-3.166611e-11
-3.197031e-11
-3.220096e-11
-3.245996e-11
-3.275585e-11
4.647265e-12
-2.222497e-11
-3.165391e-11
-3.196808e-11
-3.219836e-11
-3.245644e-11
-3.275065e-11
5.83317e-12
-2.20579e-11
-3.164233e-11
-3.196578e-11
-3.219557e-11
-3.245261e-11
-3.274535e-11
7.288513e-12
-2.181103e-11
-3.163494e-11
-3.196312e-11
-3.219269e-11
-3.24485e-11
-3.273944e-11
9.118828e-12
-2.149505e-11
-3.160427e-11
-3.195746e-11
-3.218928e-11
-3.244391e-11
-3.273341e-11
1.141756e-11
-2.13709e-11
-3.158189e-11
-3.195114e-11
-3.218462e-11
-3.243823e-11
-3.272605e-11
1.431101e-11
-2.12409e-11
-3.15624e-11
-3.194345e-11
-3.21713e-11
-3.242854e-11
-3.271584e-11
1.793696e-11
-2.110491e-11
-3.153792e-11
-3.193084e-11
-3.215396e-11
-3.240755e-11
-3.27012e-11
2.243996e-11
-2.096442e-11
-3.150777e-11
-3.191261e-11
-3.213502e-11
-3.238717e-11
-3.268689e-11
2.794248e-11
-2.081677e-11
-3.147315e-11
-3.189323e-11
-3.211855e-11
-3.237244e-11
-3.267284e-11
3.450303e-11
-2.065936e-11
-3.143852e-11
-3.187545e-11
-3.210667e-11
-3.23632e-11
-3.266536e-11
4.220409e-11
-2.039841e-11
-3.14082e-11
-3.185814e-11
-3.209003e-11
-3.234873e-11
-3.265322e-11
5.108912e-11
-1.990921e-11
-3.139132e-11
-3.182591e-11
-3.205485e-11
-3.231167e-11
-3.262516e-11
6.030106e-11
-1.944307e-11
-3.131351e-11
-3.175703e-11
-3.198358e-11
-3.225407e-11
-3.260966e-11
6.956429e-11
-1.926413e-11
-3.124451e-11
-3.166401e-11
-3.188428e-11
-3.22195e-11
-3.262739e-11
7.823483e-11
-1.91185e-11
-3.118677e-11
-3.158386e-11
-3.184002e-11
-3.219552e-11
-3.264768e-11
8.58203e-11
-1.894684e-11
-3.116416e-11
-3.154634e-11
-3.185108e-11
-3.220135e-11
-3.258792e-11
9.174265e-11
-1.86524e-11
-3.121084e-11
-3.154011e-11
-3.184323e-11
-3.217436e-11
-3.25248e-11
9.419127e-11
-1.83191e-11
-3.125182e-11
-3.154051e-11
-3.179622e-11
-3.210368e-11
-3.243289e-11
9.225771e-11
-1.823319e-11
-3.134148e-11
-3.153309e-11
-3.174525e-11
-3.199696e-11
-3.23247e-11
8.513018e-11
-1.815863e-11
-3.14335e-11
-3.150123e-11
-3.169821e-11
-3.194563e-11
-3.223608e-11
7.269246e-11
-1.808732e-11
-3.151527e-11
-3.14693e-11
-3.163987e-11
-3.186667e-11
-3.213401e-11
5.590346e-11
-1.780284e-11
-3.160185e-11
-3.144547e-11
-3.159969e-11
-3.181183e-11
-3.206345e-11
3.632291e-11
-1.723798e-11
-3.163568e-11
-3.143063e-11
-3.157326e-11
-3.179071e-11
-3.20823e-11
1.687548e-11
-1.712098e-11
-3.17218e-11
-3.142624e-11
-3.156643e-11
-3.181853e-11
-3.211745e-11
1.569587e-12
-1.706191e-11
-3.173678e-11
-3.140376e-11
-3.156255e-11
-3.183943e-11
-3.213846e-11
-7.102666e-12
-1.700362e-11
-3.175281e-11
-3.140581e-11
-3.159025e-11
-3.188848e-11
-3.22113e-11
-6.030806e-12
-1.699115e-11
-3.177832e-11
-3.141802e-11
-3.162306e-11
-3.193605e-11
-3.22644e-11
6.850097e-12
-1.701826e-11
-3.175283e-11
-3.139191e-11
-3.159621e-11
-3.190544e-11
-3.223346e-11
2.368415e-11
-1.705156e-11
-3.170472e-11
-3.137454e-11
-3.157195e-11
-3.186082e-11
-3.21682e-11
4.395936e-11
-1.712562e-11
-3.166926e-11
-3.136595e-11
-3.15494e-11
-3.181768e-11
-3.208081e-11
6.462457e-11
-1.722376e-11
-3.161576e-11
-3.135126e-11
-3.151533e-11
-3.176828e-11
-3.202276e-11
8.276413e-11
-1.738041e-11
-3.149635e-11
-3.131642e-11
-3.148717e-11
-3.174039e-11
-3.202984e-11
9.475826e-11
-1.796131e-11
-3.147536e-11
-3.136586e-11
-3.153173e-11
-3.176015e-11
-3.20179e-11
1.011034e-10
-1.826619e-11
-3.137978e-11
-3.136676e-11
-3.153829e-11
-3.176991e-11
-3.205026e-11
1.01563e-10
-1.837956e-11
-3.129797e-11
-3.138394e-11
-3.157022e-11
-3.181566e-11
-3.213702e-11
9.715365e-11
-1.846979e-11
-3.122217e-11
-3.141568e-11
-3.162517e-11
-3.18957e-11
-3.22233e-11
8.92119e-11
-1.851091e-11
-3.116954e-11
-3.145156e-11
-3.169585e-11
-3.199134e-11
-3.230044e-11
7.882566e-11
-1.877799e-11
-3.117579e-11
-3.148244e-11
-3.17532e-11
-3.20657e-11
-3.240758e-11
6.762715e-11
-1.905686e-11
-3.116153e-11
-3.152584e-11
-3.17848e-11
-3.211664e-11
-3.2485e-11
5.705242e-11
-1.924481e-11
-3.120079e-11
-3.158598e-11
-3.18199e-11
-3.212615e-11
-3.253378e-11
4.722227e-11
-1.941314e-11
-3.12697e-11
-3.16689e-11
-3.188153e-11
-3.217032e-11
-3.253103e-11
3.826822e-11
-1.961551e-11
-3.134605e-11
-3.175839e-11
-3.197225e-11
-3.222899e-11
-3.254765e-11
3.04845e-11
-2.002014e-11
-3.14185e-11
-3.182583e-11
-3.204295e-11
-3.229047e-11
-3.2591e-11
2.396216e-11
-2.042144e-11
-3.144701e-11
-3.18591e-11
-3.208108e-11
-3.23323e-11
-3.262759e-11
1.865434e-11
-2.066182e-11
-3.148047e-11
-3.188206e-11
-3.210418e-11
-3.235203e-11
-3.264732e-11
1.44296e-11
-2.081372e-11
-3.151477e-11
-3.190342e-11
-3.212331e-11
-3.236978e-11
-3.266324e-11
1.115738e-11
-2.101221e-11
-3.154787e-11
-3.192282e-11
-3.214275e-11
-3.239135e-11
-3.268614e-11
8.669984e-12
-2.118281e-11
-3.156813e-11
-3.193641e-11
-3.215887e-11
-3.24143e-11
-3.270276e-11
6.810431e-12
-2.133482e-11
-3.158649e-11
-3.194471e-11
-3.217203e-11
-3.242859e-11
-3.271451e-11
5.41632e-12
-2.14697e-11
-3.160256e-11
-3.195087e-11
-3.218283e-11
-3.243574e-11
-3.272289e-11
4.362299e-12
-2.158051e-11
-3.162185e-11
-3.195679e-11
-3.218707e-11
-3.244105e-11
-3.27299e-11
3.557952e-12
-2.188524e-11
-3.164941e-11
-3.196258e-11
-3.219073e-11
-3.244587e-11
-3.273626e-11
2.933783e-12
-2.212164e-11
-3.165543e-11
-3.196533e-11
-3.21939e-11
-3.245037e-11
-3.274259e-11
2.441216e-12
-2.227573e-11
-3.166521e-11
-3.196774e-11
-3.219695e-11
-3.245458e-11
-3.274831e-11
2.043521e-12
-2.240848e-11
-3.167597e-11
-3.197004e-11
-3.219981e-11
-3.245841e-11
-3.275391e-11
1.713058e-12
-2.24639e-11
-3.168446e-11
-3.197212e-11
-3.220245e-11
-3.246224e-11
-3.276339e-11
1.438673e-12
-2.252292e-11
-3.169229e-11
-3.197408e-11
-3.220484e-11
-3.246561e-11
-3.27713e-11
1.208064e-12
-2.257446e-11
-3.169927e-11
-3.197586e-11
-3.220699e-11
-3.246852e-11
-3.277522e-11
1.015531e-12
-2.262359e-11
-3.170563e-11
-3.197749e-11
-3.220897e-11
-3.247147e-11
-3.277862e-11
8.550945e-13
-2.266982e-11
-3.171133e-11
-3.197892e-11
-3.221097e-11
-3.24773e-11
-3.278457e-11
7.214431e-13
-2.271337e-11
-3.171646e-11
-3.198027e-11
-3.221277e-11
-3.248202e-11
-3.279132e-11
6.09848e-13
-2.275448e-11
-3.172111e-11
-3.198149e-11
-3.221422e-11
-3.248409e-11
-3.279376e-11
5.17261e-13
-2.279325e-11
-3.172525e-11
-3.198258e-11
-3.221579e-11
-3.248588e-11
-3.279574e-11
4.409144e-13
-2.282991e-11
-3.172903e-11
-3.198375e-11
-3.221945e-11
-3.248955e-11
-3.279779e-11
3.778561e-13
-2.286448e-11
-3.173244e-11
-3.198479e-11
-3.222242e-11
-3.249381e-11
-3.279973e-11
3.244608e-13
-2.289721e-11
-3.17355e-11
-3.198559e-11
-3.222346e-11
-3.249518e-11
-3.280123e-11
2.805798e-13
-2.292802e-11
-3.173821e-11
-3.198635e-11
-3.222434e-11
-3.249625e-11
-3.280262e-11
2.453747e-13
-2.295709e-11
-3.174063e-11
-3.198713e-11
-3.222522e-11
-3.249726e-11
-3.280396e-11
2.174424e-13
-2.298455e-11
-3.174298e-11
-3.198926e-11
-3.222733e-11
-3.249831e-11
-3.280522e-11
1.953159e-13
-2.301028e-11
-3.174503e-11
-3.199092e-11
-3.222983e-11
-3.249937e-11
-3.280636e-11
1.780857e-13
-2.303428e-11
-3.174674e-11
-3.19914e-11
-3.223048e-11
-3.250017e-11
-3.280747e-11
1.653901e-13
-2.305638e-11
-3.174822e-11
-3.199174e-11
-3.223095e-11
-3.25009e-11
-3.280849e-11
1.561277e-13
-2.307664e-11
-3.174952e-11
-3.199202e-11
-3.22314e-11
-3.250163e-11
-3.280949e-11
1.483772e-13
-2.309478e-11
-3.175064e-11
-3.199226e-11
-3.223184e-11
-3.250236e-11
-3.281053e-11
1.427302e-13
-2.311035e-11
-3.175161e-11
-3.199248e-11
-3.22323e-11
-3.250314e-11
-3.281162e-11
1.378845e-13
-2.312228e-11
-3.175244e-11
-3.199276e-11
-3.223285e-11
-3.250408e-11
-3.281286e-11
1.313787e-13
-2.313547e-11
-3.175462e-11
-3.199392e-11
-3.223375e-11
-3.250527e-11
-3.28146e-11
1.199336e-13
-2.314241e-11
-3.175663e-11
-3.199572e-11
-3.223518e-11
-3.250712e-11
-3.282133e-11
1.02338e-13
-2.313816e-11
-3.175843e-11
-3.19974e-11
-3.223738e-11
-3.251366e-11
-3.282894e-11
9.001374e-14
-2.312727e-11
-3.176246e-11
-3.200065e-11
-3.224455e-11
-3.252139e-11
-3.283702e-11
1.042549e-13
-2.31007e-11
-3.177096e-11
-3.201005e-11
-3.22538e-11
-3.253004e-11
-3.284558e-11
2.498346e-13
-2.312221e-11
-3.178996e-11
-3.202313e-11
-3.226502e-11
-3.253947e-11
-3.28544e-11
3.163664e-15
-2.375411e-11
-3.181513e-11
-3.203793e-11
-3.227823e-11
-3.254955e-11
-3.286326e-11
-3.323587e-11
-3.370829e-11
-3.434631e-11
-3.496573e-11
-3.608359e-11
-3.667295e-11
-5.13449e-10
-3.322784e-11
-3.369786e-11
-3.433236e-11
-3.494914e-11
-3.606548e-11
-3.711671e-11
-5.316733e-11
-3.321903e-11
-3.368718e-11
-3.431902e-11
-3.516369e-11
-3.604706e-11
-3.709165e-11
-5.81228e-11
-3.320995e-11
-3.367638e-11
-3.430469e-11
-3.491552e-11
-3.602415e-11
-3.706399e-11
-6.167867e-11
-3.320106e-11
-3.366551e-11
-3.429104e-11
-3.489741e-11
-3.600317e-11
-3.705367e-11
-6.49295e-11
-3.319233e-11
-3.365466e-11
-3.427703e-11
-3.488024e-11
-3.598243e-11
-3.705667e-11
-6.803096e-11
-3.318385e-11
-3.364392e-11
-3.426311e-11
-3.486364e-11
-3.597638e-11
-3.706372e-11
-7.166439e-11
-3.317614e-11
-3.363332e-11
-3.424933e-11
-3.484736e-11
-3.597078e-11
-3.708269e-11
-7.337866e-11
-3.317402e-11
-3.362354e-11
-3.423618e-11
-3.483074e-11
-3.595406e-11
-3.710263e-11
-7.500397e-11
-3.317242e-11
-3.362086e-11
-3.422387e-11
-3.481418e-11
-3.593747e-11
-3.713065e-11
-7.526911e-11
-3.317094e-11
-3.361881e-11
-3.422039e-11
-3.479809e-11
-3.592093e-11
-3.716204e-11
-7.580006e-11
-3.316946e-11
-3.36167e-11
-3.42176e-11
-3.479424e-11
-3.590427e-11
-3.720093e-11
-7.353849e-11
-3.3168e-11
-3.361459e-11
-3.42147e-11
-3.479068e-11
-3.590075e-11
-3.723583e-11
-7.197513e-11
-3.316647e-11
-3.361241e-11
-3.421168e-11
-3.478693e-11
-3.589683e-11
-3.727829e-11
-7.392182e-11
-3.316489e-11
-3.361009e-11
-3.420851e-11
-3.4783e-11
-3.589276e-11
-3.729881e-11
-3.35366e-11
-3.316321e-11
-3.360765e-11
-3.420517e-11
-3.477885e-11
-3.588832e-11
-3.736984e-11
-3.695505e-11
-3.316146e-11
-3.360507e-11
-3.420167e-11
-3.477437e-11
-3.588195e-11
-3.739474e-11
-3.513311e-11
-3.315959e-11
-3.360241e-11
-3.419789e-11
-3.476791e-11
-3.583189e-11
-3.741933e-11
-3.199646e-11
-3.315761e-11
-3.359967e-11
-3.419396e-11
-3.47629e-11
-3.582394e-11
-3.743771e-11
-2.982524e-11
-3.315547e-11
-3.359674e-11
-3.418975e-11
-3.475761e-11
-3.581694e-11
-3.731929e-11
5.41006e-11
-3.31532e-11
-3.35936e-11
-3.418531e-11
-3.475196e-11
-3.580935e-11
-3.632253e-11
4.891644e-10
-3.315071e-11
-3.359024e-11
-3.418062e-11
-3.474588e-11
-3.58013e-11
-3.711632e-11
6.323378e-11
-3.314807e-11
-3.358662e-11
-3.417532e-11
-3.473948e-11
-3.57909e-11
-3.598994e-11
-7.669793e-11
-3.314478e-11
-3.358268e-11
-3.417016e-11
-3.494501e-11
-3.574526e-11
-3.620027e-11
-1.172242e-10
-3.314129e-11
-3.357848e-11
-3.416387e-11
-3.472625e-11
-3.571665e-11
-3.590093e-11
-8.529392e-11
-3.31378e-11
-3.35739e-11
-3.415758e-11
-3.471724e-11
-3.570454e-11
-3.542234e-11
-6.242331e-11
-3.313338e-11
-3.356864e-11
-3.415063e-11
-3.470849e-11
-3.569184e-11
-3.5439e-11
-4.859403e-11
-3.312253e-11
-3.356294e-11
-3.414255e-11
-3.46992e-11
-3.567574e-11
-3.566495e-11
-3.518645e-11
-3.311335e-11
-3.343885e-11
-3.397637e-11
-3.468731e-11
-3.565987e-11
-3.573989e-11
-2.077533e-11
-3.310605e-11
-3.343239e-11
-3.396925e-11
-3.467702e-11
-3.564437e-11
-3.596418e-11
1.178509e-11
-3.309201e-11
-3.341286e-11
-3.396012e-11
-3.466495e-11
-3.562565e-11
-3.586578e-11
-7.963979e-11
-3.308e-11
-3.339778e-11
-3.395015e-11
-3.465148e-11
-3.560599e-11
-3.588557e-11
-8.50113e-11
-3.307142e-11
-3.336703e-11
-3.393834e-11
-3.463645e-11
-3.558479e-11
-3.598144e-11
-5.778997e-11
-3.306252e-11
-3.335566e-11
-3.390895e-11
-3.46198e-11
-3.556131e-11
-3.611644e-11
-5.642691e-12
-3.305137e-11
-3.333869e-11
-3.387125e-11
-3.46007e-11
-3.553584e-11
-3.625822e-11
7.685937e-11
-3.303759e-11
-3.331866e-11
-3.383425e-11
-3.457297e-11
-3.550647e-11
-3.561774e-11
9.723173e-11
-3.302918e-11
-3.330151e-11
-3.38242e-11
-3.452585e-11
-3.548233e-11
-3.572578e-11
8.389893e-11
-3.303185e-11
-3.329889e-11
-3.382914e-11
-3.448434e-11
-3.546427e-11
-3.499605e-11
2.116743e-10
-3.30416e-11
-3.331338e-11
-3.385386e-11
-3.450954e-11
-3.55131e-11
-3.67366e-11
4.088382e-11
-3.305273e-11
-3.333825e-11
-3.394201e-11
-3.47053e-11
-3.559215e-11
-3.658559e-11
1.086958e-10
-3.305643e-11
-3.34198e-11
-3.411727e-11
-3.484038e-11
-3.57339e-11
-3.680232e-11
-9.114883e-13
-3.308135e-11
-3.352738e-11
-3.413843e-11
-3.494435e-11
-3.589622e-11
-3.673412e-11
2.879574e-11
-3.312292e-11
-3.355268e-11
-3.418626e-11
-3.507378e-11
-3.594646e-11
-3.676936e-11
-3.194023e-11
-3.313085e-11
-3.358622e-11
-3.42336e-11
-3.517495e-11
-3.595546e-11
-3.701916e-11
-4.661982e-11
-3.30995e-11
-3.358987e-11
-3.420243e-11
-3.518682e-11
-3.590545e-11
-3.712181e-11
-5.008058e-11
-3.299725e-11
-3.353786e-11
-3.42286e-11
-3.514057e-11
-3.585632e-11
-3.723899e-11
-1.395399e-10
-3.291098e-11
-3.348539e-11
-3.426903e-11
-3.510219e-11
-3.572417e-11
-3.731917e-11
-1.366236e-10
-3.281546e-11
-3.337191e-11
-3.429348e-11
-3.503472e-11
-3.577746e-11
-3.689826e-11
-9.681775e-11
-3.267908e-11
-3.326679e-11
-3.423742e-11
-3.503881e-11
-3.578336e-11
-3.726499e-11
-1.088937e-10
-3.259873e-11
-3.32384e-11
-3.424605e-11
-3.499696e-11
-3.580572e-11
-3.659196e-11
-6.01339e-11
-3.256664e-11
-3.311477e-11
-3.412127e-11
-3.490198e-11
-3.5602e-11
-3.641661e-11
-4.047778e-11
-3.261423e-11
-3.314747e-11
-3.407803e-11
-3.474128e-11
-3.543174e-11
-5.324905e-11
-1.62098e-09
-3.263028e-11
-3.311559e-11
-3.401243e-11
-3.46121e-11
-3.525471e-11
-4.705812e-11
-1.553551e-09
-3.266701e-11
-3.314564e-11
-3.399573e-11
-3.452876e-11
-3.50181e-11
-7.54483e-11
-9.920945e-10
-3.272044e-11
-3.318937e-11
-3.407341e-11
-3.443305e-11
-3.475802e-11
-3.450909e-11
-5.346907e-11
-3.277034e-11
-3.324627e-11
-3.406869e-11
-3.443422e-11
-3.452398e-11
-3.426763e-11
-3.274241e-11
-3.327148e-11
-3.408442e-11
-3.446325e-11
-3.462062e-11
-3.437543e-11
-3.268359e-11
-3.321734e-11
-3.398694e-11
-3.43477e-11
-3.447435e-11
-3.41592e-11
-3.258812e-11
-3.312565e-11
-3.38887e-11
-3.426737e-11
-3.460103e-11
-3.491342e-11
-5.550261e-10
-3.249572e-11
-3.300222e-11
-3.390788e-11
-3.438749e-11
-3.486034e-11
-7.630205e-11
-1.436404e-09
-3.249552e-11
-3.298207e-11
-3.385449e-11
-3.447113e-11
-3.490338e-11
-4.02799e-11
-1.959435e-09
-3.248109e-11
-3.291983e-11
-3.372986e-11
-3.443923e-11
-3.497434e-11
-3.559857e-11
-5.952402e-11
-3.253028e-11
-3.298598e-11
-3.392309e-11
-3.447939e-11
-3.498652e-11
-3.578021e-11
-4.524036e-11
-3.26352e-11
-3.309753e-11
-3.388478e-11
-3.443935e-11
-3.516076e-11
-3.593375e-11
-5.749238e-11
-3.273741e-11
-3.314021e-11
-3.398703e-11
-3.457896e-11
-3.519666e-11
-3.579403e-11
-4.987921e-11
-3.281289e-11
-3.33009e-11
-3.402992e-11
-3.471087e-11
-3.518015e-11
-3.593744e-11
-8.913052e-11
-3.288035e-11
-3.329394e-11
-3.408702e-11
-3.469785e-11
-3.528691e-11
-3.595484e-11
-4.7842e-11
-3.296381e-11
-3.342383e-11
-3.411173e-11
-3.474024e-11
-3.529352e-11
-3.630389e-11
-5.930436e-11
-3.303098e-11
-3.345555e-11
-3.410939e-11
-3.479189e-11
-3.536989e-11
-3.634494e-11
-3.840124e-11
-3.30476e-11
-3.350361e-11
-3.416745e-11
-3.479402e-11
-3.550469e-11
-3.607162e-11
-2.49743e-10
-3.301322e-11
-3.349837e-11
-3.411385e-11
-3.483614e-11
-3.5527e-11
-3.620267e-11
3.122454e-11
-3.299438e-11
-3.339799e-11
-3.408601e-11
-3.489412e-11
-3.559813e-11
-3.628437e-11
8.762814e-11
-3.300888e-11
-3.333992e-11
-3.391718e-11
-3.478486e-11
-3.559241e-11
-3.660529e-11
6.01192e-11
-3.301393e-11
-3.331651e-11
-3.382722e-11
-3.453106e-11
-3.553625e-11
-3.668924e-11
7.564981e-11
-3.301549e-11
-3.330899e-11
-3.381329e-11
-3.44653e-11
-3.547547e-11
-3.521584e-11
2.728865e-10
-3.302372e-11
-3.330612e-11
-3.38131e-11
-3.448591e-11
-3.546794e-11
-3.580569e-11
5.366724e-10
-3.303662e-11
-3.331602e-11
-3.382308e-11
-3.454221e-11
-3.548985e-11
-3.648988e-11
3.763892e-11
-3.304867e-11
-3.333087e-11
-3.384812e-11
-3.458321e-11
-3.551448e-11
-3.615161e-11
7.159494e-11
-3.30584e-11
-3.334659e-11
-3.388174e-11
-3.460293e-11
-3.554053e-11
-3.616913e-11
6.045056e-11
-3.306709e-11
-3.335515e-11
-3.392299e-11
-3.462069e-11
-3.556519e-11
-3.616286e-11
-5.305987e-11
-3.307605e-11
-3.337914e-11
-3.393881e-11
-3.46375e-11
-3.558811e-11
-3.593583e-11
-8.550755e-11
-3.308859e-11
-3.339992e-11
-3.39506e-11
-3.46528e-11
-3.560986e-11
-3.598909e-11
-1.005948e-10
-3.310329e-11
-3.342395e-11
-3.396099e-11
-3.466664e-11
-3.563036e-11
-3.565393e-11
1.543766e-11
-3.311108e-11
-3.343035e-11
-3.397068e-11
-3.467916e-11
-3.564849e-11
-3.616515e-11
-1.277777e-11
-3.312065e-11
-3.356087e-11
-3.414024e-11
-3.469235e-11
-3.566454e-11
-3.586963e-11
-3.109169e-11
-3.313185e-11
-3.356695e-11
-3.414873e-11
-3.470193e-11
-3.568201e-11
-3.566488e-11
-4.523445e-11
-3.313657e-11
-3.357249e-11
-3.415609e-11
-3.471132e-11
-3.569664e-11
-3.556304e-11
-5.930169e-11
-3.314028e-11
-3.357734e-11
-3.416278e-11
-3.471998e-11
-3.570939e-11
-3.552444e-11
-7.705412e-11
-3.314399e-11
-3.358183e-11
-3.4169e-11
-3.472805e-11
-3.572342e-11
-3.702344e-11
2.906542e-11
-3.314745e-11
-3.358591e-11
-3.41747e-11
-3.473558e-11
-3.577449e-11
-3.71257e-11
2.843101e-11
-3.315022e-11
-3.358969e-11
-3.418001e-11
-3.474254e-11
-3.579671e-11
-3.722117e-11
4.852671e-11
-3.31528e-11
-3.359322e-11
-3.418492e-11
-3.474893e-11
-3.580527e-11
-3.736806e-11
3.212965e-11
-3.315519e-11
-3.359645e-11
-3.418948e-11
-3.475491e-11
-3.581315e-11
-3.744955e-11
-1.891312e-11
-3.315742e-11
-3.359946e-11
-3.419377e-11
-3.476045e-11
-3.582038e-11
-3.743241e-11
-1.909488e-11
-3.315944e-11
-3.360226e-11
-3.419774e-11
-3.476564e-11
-3.582715e-11
-3.74133e-11
-2.093384e-11
-3.316135e-11
-3.360497e-11
-3.420155e-11
-3.477161e-11
-3.585415e-11
-3.739072e-11
-2.325201e-11
-3.316313e-11
-3.360757e-11
-3.42051e-11
-3.477695e-11
-3.588599e-11
-3.73638e-11
-2.614841e-11
-3.316481e-11
-3.361e-11
-3.420844e-11
-3.478129e-11
-3.58906e-11
-3.732469e-11
-2.578567e-11
-3.316638e-11
-3.361231e-11
-3.42116e-11
-3.478543e-11
-3.589488e-11
-3.729082e-11
-4.429636e-11
-3.316788e-11
-3.361447e-11
-3.421461e-11
-3.478931e-11
-3.58989e-11
-3.726558e-11
-6.063945e-11
-3.31693e-11
-3.361654e-11
-3.421745e-11
-3.479303e-11
-3.590274e-11
-3.72329e-11
-6.15152e-11
-3.31707e-11
-3.361857e-11
-3.422019e-11
-3.479658e-11
-3.591275e-11
-3.720516e-11
-6.317075e-11
-3.317208e-11
-3.362054e-11
-3.422361e-11
-3.480658e-11
-3.592917e-11
-3.717385e-11
-6.567044e-11
-3.317354e-11
-3.36231e-11
-3.423581e-11
-3.48231e-11
-3.594571e-11
-3.714455e-11
-6.705547e-11
-3.317546e-11
-3.363271e-11
-3.424882e-11
-3.483974e-11
-3.596227e-11
-3.71234e-11
-6.677327e-11
-3.31829e-11
-3.364312e-11
-3.426246e-11
-3.48565e-11
-3.597818e-11
-3.71062e-11
-6.691398e-11
-3.319109e-11
-3.365367e-11
-3.427626e-11
-3.487241e-11
-3.597265e-11
-3.709353e-11
-6.68811e-11
-3.319955e-11
-3.36644e-11
-3.429016e-11
-3.488938e-11
-3.599269e-11
-3.708928e-11
-6.656214e-11
-3.320827e-11
-3.367527e-11
-3.430415e-11
-3.490635e-11
-3.601343e-11
-3.709681e-11
-6.849306e-11
-3.321737e-11
-3.368624e-11
-3.431818e-11
-3.49234e-11
-3.603426e-11
-3.711806e-11
-6.931902e-11
-3.322654e-11
-3.369714e-11
-3.433217e-11
-3.494031e-11
-3.605513e-11
-3.715425e-11
-6.168408e-11
-3.323568e-11
-3.37082e-11
-3.434619e-11
-3.495714e-11
-3.607567e-11
-3.722952e-11
-1.397005e-10
-6.479556e-08
-7.768304e-08
-7.505636e-08
-7.51912e-08
-7.519684e-08
-7.519689e-08
-7.519692e-08
-7.519692e-08
-7.519692e-08
-7.519693e-08
-7.519695e-08
-7.519697e-08
-7.519699e-08
-7.519701e-08
-7.519702e-08
-7.519703e-08
-7.519705e-08
-7.519708e-08
-6.904152e-08
-7.500144e-08
-7.530093e-08
-7.520029e-08
-7.519638e-08
-7.519627e-08
-7.519625e-08
-7.519625e-08
-7.519624e-08
-7.519623e-08
-7.519622e-08
-7.51962e-08
-7.519618e-08
-7.519617e-08
-7.519617e-08
-7.519616e-08
-7.519613e-08
-7.519611e-08
-6.930046e-08
-8.035929e-08
-7.520643e-08
-7.519808e-08
-7.519771e-08
-7.519761e-08
-7.519762e-08
-7.519762e-08
-7.519763e-08
-7.519764e-08
-7.519765e-08
-7.519765e-08
-7.519766e-08
-7.519767e-08
-7.519766e-08
-7.519768e-08
-7.519769e-08
-7.519769e-08
-6.91766e-08
-7.302294e-08
-7.510109e-08
-7.519415e-08
-7.519634e-08
-7.519628e-08
-7.519629e-08
-7.519629e-08
-7.519628e-08
-7.519628e-08
-7.519629e-08
-7.519629e-08
-7.51963e-08
-7.51963e-08
-7.519632e-08
-7.519631e-08
-7.519631e-08
-7.519632e-08
-6.885747e-08
-7.585616e-08
-7.520366e-08
-7.519621e-08
-7.519644e-08
-7.519637e-08
-7.519637e-08
-7.519636e-08
-7.519636e-08
-7.519635e-08
-7.519635e-08
-7.519634e-08
-7.519634e-08
-7.519633e-08
-7.519635e-08
-7.519634e-08
-7.519632e-08
-7.519631e-08
-6.786239e-08
-7.78884e-08
-7.522723e-08
-7.519705e-08
-7.519682e-08
-7.519675e-08
-7.519674e-08
-7.519674e-08
-7.519674e-08
-7.519674e-08
-7.519674e-08
-7.519674e-08
-7.519673e-08
-7.519673e-08
-7.519675e-08
-7.519674e-08
-7.519673e-08
-7.519673e-08
-6.664075e-08
-7.765714e-08
-7.521022e-08
-7.519693e-08
-7.519682e-08
-7.519678e-08
-7.519677e-08
-7.519677e-08
-7.519677e-08
-7.519677e-08
-7.519677e-08
-7.519677e-08
-7.519677e-08
-7.519677e-08
-7.519679e-08
-7.519678e-08
-7.519677e-08
-7.519677e-08
-6.486227e-08
-7.717597e-08
-7.520128e-08
-7.519683e-08
-7.519674e-08
-7.519675e-08
-7.519674e-08
-7.519673e-08
-7.519673e-08
-7.519673e-08
-7.519673e-08
-7.519673e-08
-7.519673e-08
-7.519673e-08
-7.519675e-08
-7.519675e-08
-7.519673e-08
-7.519673e-08
-6.34891e-08
-7.712769e-08
-7.520262e-08
-7.519695e-08
-7.519671e-08
-7.519674e-08
-7.519673e-08
-7.519672e-08
-7.519671e-08
-7.519671e-08
-7.519671e-08
-7.519671e-08
-7.519671e-08
-7.519671e-08
-7.519675e-08
-7.519674e-08
-7.519671e-08
-7.519671e-08
-6.182848e-08
-7.777939e-08
-7.521684e-08
-7.519785e-08
-7.519675e-08
-7.519674e-08
-7.519673e-08
-7.519672e-08
-7.519671e-08
-7.519671e-08
-7.519671e-08
-7.519671e-08
-7.519671e-08
-7.519671e-08
-7.519675e-08
-7.519674e-08
-7.519671e-08
-7.519671e-08
-5.97845e-08
-7.907068e-08
-7.524767e-08
-7.520205e-08
-7.5197e-08
-7.519675e-08
-7.519673e-08
-7.519672e-08
-7.519671e-08
-7.519671e-08
-7.519671e-08
-7.519671e-08
-7.519671e-08
-7.519671e-08
-7.519676e-08
-7.519675e-08
-7.519671e-08
-7.519671e-08
-5.784717e-08
-7.766468e-08
-7.524514e-08
-7.521248e-08
-7.519808e-08
-7.519679e-08
-7.519673e-08
-7.519672e-08
-7.519671e-08
-7.519671e-08
-7.519671e-08
-7.519671e-08
-7.519671e-08
-7.519671e-08
-7.519678e-08
-7.519676e-08
-7.519671e-08
-7.519671e-08
-5.62077e-08
-7.572041e-08
-7.512957e-08
-7.521541e-08
-7.520092e-08
-7.519693e-08
-7.519673e-08
-7.519672e-08
-7.519672e-08
-7.519671e-08
-7.519671e-08
-7.519671e-08
-7.519671e-08
-7.519671e-08
-7.519679e-08
-7.519676e-08
-7.519671e-08
-7.519671e-08
-5.415728e-08
-7.950719e-08
-7.511092e-08
-7.517851e-08
-7.520218e-08
-7.519737e-08
-7.519676e-08
-7.519673e-08
-7.519672e-08
-7.519671e-08
-7.519671e-08
-7.519671e-08
-7.519671e-08
-7.519671e-08
-7.519679e-08
-7.519676e-08
-7.519671e-08
-7.519671e-08
-4.211077e-08
-7.753827e-08
-7.526592e-08
-7.516379e-08
-7.51925e-08
-7.519781e-08
-7.519682e-08
-7.519674e-08
-7.519673e-08
-7.519671e-08
-7.519671e-08
-7.519671e-08
-7.519671e-08
-7.519671e-08
-7.519675e-08
-7.519673e-08
-7.519671e-08
-7.519671e-08
-4.187874e-08
-7.771882e-08
-7.515343e-08
-7.521872e-08
-7.518684e-08
-7.519667e-08
-7.519693e-08
-7.519675e-08
-7.519675e-08
-7.519671e-08
-7.519671e-08
-7.519671e-08
-7.519671e-08
-7.519673e-08
-7.519668e-08
-7.519666e-08
-7.519671e-08
-7.519671e-08
-3.889817e-08
-7.841722e-08
-7.523978e-08
-7.518327e-08
-7.520296e-08
-7.519494e-08
-7.519685e-08
-7.519677e-08
-7.519677e-08
-7.519671e-08
-7.519671e-08
-7.519671e-08
-7.519671e-08
-7.519676e-08
-7.519669e-08
-7.519666e-08
-7.519671e-08
-7.519671e-08
-3.601747e-08
-7.78926e-08
-7.515691e-08
-7.520958e-08
-7.519448e-08
-7.519677e-08
-7.519646e-08
-7.519677e-08
-7.519678e-08
-7.519671e-08
-7.519671e-08
-7.519671e-08
-7.519671e-08
-7.519676e-08
-7.519675e-08
-7.519673e-08
-7.519671e-08
-7.519671e-08
-3.334161e-08
-7.683304e-08
-7.520736e-08
-7.518349e-08
-7.519957e-08
-7.51972e-08
-7.519648e-08
-7.519667e-08
-7.519678e-08
-7.519672e-08
-7.519671e-08
-7.519671e-08
-7.519671e-08
-7.519675e-08
-7.519675e-08
-7.519672e-08
-7.519671e-08
-7.519671e-08
-3.054628e-08
-7.780994e-08
-7.523361e-08
-7.520295e-08
-7.519503e-08
-7.519636e-08
-7.519699e-08
-7.519663e-08
-7.519678e-08
-7.519672e-08
-7.519671e-08
-7.519671e-08
-7.519671e-08
-7.519687e-08
-7.519689e-08
-7.51967e-08
-7.519671e-08
-7.519671e-08
-2.768024e-08
-7.790974e-08
-7.518763e-08
-7.520938e-08
-7.519978e-08
-7.519679e-08
-7.519656e-08
-7.51968e-08
-7.519678e-08
-7.519671e-08
-7.519671e-08
-7.519671e-08
-7.519672e-08
-7.51971e-08
-7.519742e-08
-7.519673e-08
-7.519671e-08
-7.519672e-08
-2.621881e-08
-7.737128e-08
-7.517679e-08
-7.519494e-08
-7.520216e-08
-7.519672e-08
-7.519694e-08
-7.519672e-08
-7.519698e-08
-7.51967e-08
-7.519671e-08
-7.519671e-08
-7.519673e-08
-7.519766e-08
-7.519853e-08
-7.519671e-08
-7.519671e-08
-7.519674e-08
-2.481859e-08
-7.719062e-08
-7.518603e-08
-7.5198e-08
-7.520399e-08
-7.519706e-08
-7.519682e-08
-7.519687e-08
-7.519712e-08
-7.519673e-08
-7.519671e-08
-7.519671e-08
-7.519675e-08
-7.519758e-08
-7.519843e-08
-7.519672e-08
-7.519671e-08
-7.519686e-08
-2.299401e-08
-7.691155e-08
-7.519146e-08
-7.523501e-08
-7.52321e-08
-7.519618e-08
-7.519715e-08
-7.519779e-08
-7.519766e-08
-7.519668e-08
-7.519672e-08
-7.519671e-08
-7.519678e-08
-7.519647e-08
-7.519493e-08
-7.519669e-08
-7.519672e-08
-7.51972e-08
-2.097316e-08
-7.6287e-08
-7.519714e-08
-7.542258e-08
-7.5386e-08
-7.519223e-08
-7.51978e-08
-7.520336e-08
-7.519979e-08
-7.519644e-08
-7.51967e-08
-7.519672e-08
-7.519698e-08
-7.519676e-08
-7.519705e-08
-7.51967e-08
-7.519677e-08
-7.519779e-08
-1.929834e-08
-7.536599e-08
-7.522057e-08
-7.610363e-08
-7.59121e-08
-7.517634e-08
-7.519988e-08
-7.522814e-08
-7.52107e-08
-7.51953e-08
-7.51967e-08
-7.519672e-08
-7.519733e-08
-7.519664e-08
-7.519651e-08
-7.519669e-08
-7.519691e-08
-7.519814e-08
-1.754501e-08
-7.38877e-08
-7.530057e-08
-7.724419e-08
-7.658072e-08
-7.515547e-08
-7.520473e-08
-7.528261e-08
-7.524017e-08
-7.519309e-08
-7.519664e-08
-7.519674e-08
-7.519751e-08
-7.519765e-08
-7.519761e-08
-7.519676e-08
-7.519734e-08
-7.519734e-08
-1.57679e-08
-7.186449e-08
-7.555717e-08
-7.648694e-08
-7.53331e-08
-7.523935e-08
-7.521057e-08
-7.52659e-08
-7.524794e-08
-7.519521e-08
-7.51967e-08
-7.519681e-08
-7.519789e-08
-7.519804e-08
-7.519561e-08
-7.519692e-08
-7.519844e-08
-7.519634e-08
-1.406633e-08
-7.202712e-08
-7.637497e-08
-7.480339e-08
-7.483799e-08
-7.552256e-08
-7.521867e-08
-7.507146e-08
-7.51279e-08
-7.520537e-08
-7.51971e-08
-7.519708e-08
-7.520075e-08
-7.520168e-08
-7.519703e-08
-7.519779e-08
-7.519987e-08
-7.519868e-08
-1.230407e-08
-7.917637e-08
-7.743691e-08
-8.018526e-08
-8.042708e-08
-7.578021e-08
-7.527618e-08
-7.518435e-08
-7.514715e-08
-7.519861e-08
-7.519701e-08
-7.519715e-08
-7.520035e-08
-7.519803e-08
-7.519802e-08
-7.520001e-08