/*--------------------------------*- C++ -*----------------------------------*\
| =========                 |                                                 |
| \\      /  F ield         | OpenFOAM: The Open Source CFD Toolbox           |
|  \\    /   O peration     | Version:  2206                                  |
|   \\  /    A nd           | Website:  www.openfoam.com                      |
|    \\/     M anipulation  |                                                 |
\*---------------------------------------------------------------------------*/
FoamFile
{
    version     2.0;
    format      ascii;
    arch        "LSB;label=32;scalar=64";
    class       volScalarField;
    location    "2.8";
    object      ddt0(omega.b);
}
// * * * * * * * * * * * * * * * * * * * * * * * * * * * * * * * * * * * * * //

dimensions      [0 0 -2 0 0 0 0];

internalField   nonuniform List<scalar> 
13078
(
6.957361e-08
-0.009486521
-0.07822556
-0.08048823
-0.08079411
-0.08103426
-0.08130102
6.869406e-09
-0.02956379
-0.07874552
-0.08053831
-0.08079451
-0.08102998
-0.08129605
4.944725e-08
-0.04001169
-0.07908553
-0.0805564
-0.0807916
-0.08102616
-0.0812915
2.659577e-08
-0.0449406
-0.07923802
-0.08056086
-0.08079025
-0.08102336
-0.08128747
2.31024e-08
-0.04667821
-0.07930183
-0.08056686
-0.08079017
-0.08102125
-0.08128384
2.437945e-08
-0.04741888
-0.07933631
-0.08057208
-0.0807927
-0.08101938
-0.08128031
2.580928e-08
-0.04784539
-0.07934485
-0.08057431
-0.08079477
-0.08102036
-0.08127687
2.725024e-08
-0.04813779
-0.07934344
-0.08057486
-0.08079585
-0.08102121
-0.08127688
2.912603e-08
-0.04836147
-0.07935431
-0.08057531
-0.08079622
-0.08102145
-0.0812769
3.182183e-08
-0.04855804
-0.07936222
-0.08057512
-0.08079601
-0.08102123
-0.08127653
3.538734e-08
-0.04874208
-0.07936884
-0.08057455
-0.0807954
-0.08102064
-0.08127581
4.012103e-08
-0.04892689
-0.07937498
-0.08057376
-0.08079454
-0.08101977
-0.08127485
4.633651e-08
-0.04912243
-0.07938115
-0.08057281
-0.0807935
-0.08101869
-0.08127365
5.435845e-08
-0.04933599
-0.07938777
-0.08057171
-0.08079216
-0.0810174
-0.08127225
6.460696e-08
-0.04957418
-0.0793941
-0.08056929
-0.08078933
-0.08101587
-0.08127072
7.76183e-08
-0.04984185
-0.07940107
-0.08056626
-0.08078662
-0.08101427
-0.08126903
9.408074e-08
-0.05014633
-0.07941039
-0.08056496
-0.08078499
-0.08101259
-0.08126718
1.149187e-07
-0.05049299
-0.07942098
-0.08056362
-0.08078328
-0.0810108
-0.08126519
1.412974e-07
-0.0508877
-0.07943313
-0.08056222
-0.08078137
-0.08100862
-0.08126303
1.746819e-07
-0.05133743
-0.07944706
-0.0805606
-0.08077797
-0.08100431
-0.08126054
2.168893e-07
-0.0518487
-0.07946303
-0.08055886
-0.08077352
-0.08100003
-0.08125787
2.702206e-07
-0.05243041
-0.07948141
-0.08055722
-0.0807711
-0.08099742
-0.08125515
3.376954e-07
-0.05309108
-0.07950238
-0.0805554
-0.08076856
-0.08099462
-0.08125179
4.230045e-07
-0.05383952
-0.07952629
-0.08055349
-0.08076555
-0.08098963
-0.08124562
5.307748e-07
-0.05468556
-0.07955347
-0.08055144
-0.08076235
-0.08098257
-0.08123907
6.667606e-07
-0.05564002
-0.07958422
-0.08054923
-0.08075912
-0.08097897
-0.08123493
8.381022e-07
-0.05671321
-0.07961907
-0.08054687
-0.08075554
-0.08097499
-0.08123111
1.054019e-06
-0.05784409
-0.07965759
-0.08054439
-0.08075165
-0.08097003
-0.08122338
1.326041e-06
-0.05920255
-0.07970275
-0.08054184
-0.08074749
-0.08096488
-0.08121037
1.675198e-06
-0.05950362
-0.07973994
-0.08053905
-0.08074309
-0.08095991
-0.08120533
2.12806e-06
-0.06221654
-0.07980309
-0.08053595
-0.08073834
-0.08095419
-0.0811971
2.673673e-06
-0.06371189
-0.07983375
-0.08053111
-0.0807326
-0.08094815
-0.08118941
3.3527e-06
-0.06547474
-0.07990356
-0.08053433
-0.08072565
-0.08094147
-0.08118169
4.190518e-06
-0.06754909
-0.07995043
-0.08053515
-0.08071856
-0.08093266
-0.08117254
5.22203e-06
-0.06970144
-0.08002814
-0.0805319
-0.08073214
-0.08092402
-0.0811635
6.480869e-06
-0.07171656
-0.0801077
-0.08051822
-0.0807302
-0.08094614
-0.08116622
7.998228e-06
-0.0734651
-0.08019083
-0.08054264
-0.08072773
-0.08096263
-0.08118347
9.794654e-06
-0.07472726
-0.08027262
-0.08057473
-0.08075943
-0.08097052
-0.08118845
1.187488e-05
-0.07483494
-0.08034331
-0.08061024
-0.08078666
-0.08097776
-0.08114148
1.42935e-05
-0.07095421
-0.08035385
-0.0806325
-0.0808096
-0.08099627
-0.08112434
1.707282e-05
-0.07318175
-0.08023105
-0.08064154
-0.08081258
-0.0809903
-0.08121728
1.97757e-05
-0.07125838
-0.08022316
-0.08059321
-0.08077952
-0.08102616
-0.08150984
2.238427e-05
-0.06719529
-0.07998075
-0.0805225
-0.08077303
-0.08130432
-0.08202192
2.473048e-05
-0.06068511
-0.0796305
-0.08050597
-0.08099559
-0.08172698
-0.0824908
2.672733e-05
-0.04842232
-0.0791614
-0.08067333
-0.08134932
-0.08212068
-0.08289677
2.827866e-05
-0.04141619
-0.0785284
-0.08096658
-0.08167082
-0.08240965
-0.08315581
2.864098e-05
-0.02830953
-0.07818368
-0.0811997
-0.08194493
-0.08265913
-0.08337997
0.000758073
-0.01204698
-0.07748902
-0.0813631
-0.08213785
-0.08269007
-0.08335929
0.009557666
0.007644105
-0.07658543
-0.08148817
-0.08221776
-0.08290173
-0.0833825
0.03105715
0.02861445
-0.07566425
-0.08157957
-0.08235987
-0.0829275
-0.08346882
0.06820361
0.05683256
-0.07436951
-0.08162632
-0.08239292
-0.08290429
-0.08338387
0.1196695
0.07870254
-0.0736013
-0.08179384
-0.08242752
-0.08270078
-0.08350036
0.1663174
0.09948542
-0.07234341
-0.0816334
-0.08242984
-0.08285419
-0.08360814
0.1998641
0.1120234
-0.07174642
-0.08153887
-0.08230493
-0.08281902
-0.08362131
0.224513
0.1196428
-0.07140429
-0.08142197
-0.08216234
-0.08272042
-0.08341557
0.2459321
0.1268576
-0.07098425
-0.08121163
-0.08198175
-0.08254264
-0.08315554
0.2457093
0.1269144
-0.07089275
-0.08102087
-0.08185372
-0.08243307
-0.08300606
0.224235
0.1180402
-0.07138559
-0.081025
-0.08183338
-0.08236572
-0.08289826
0.1995814
0.1087679
-0.07188245
-0.08101501
-0.08176526
-0.08226048
-0.08270289
0.1658486
0.0957244
-0.07252975
-0.08090592
-0.08157632
-0.08208443
-0.08256621
0.1191047
0.07410281
-0.07378065
-0.08101532
-0.08173557
-0.08229734
-0.08263366
0.06765428
0.05187504
-0.07473907
-0.08101101
-0.08158021
-0.08203189
-0.08239049
0.03075746
0.02323152
-0.07604347
-0.08095104
-0.08153026
-0.08199041
-0.08236831
0.009375002
0.004147163
-0.07683991
-0.08076291
-0.08132893
-0.08188553
-0.08249893
0.000742666
-0.01332414
-0.07758562
-0.08055645
-0.08114139
-0.08169956
-0.08232079
2.838767e-05
-0.02821346
-0.07817361
-0.0804379
-0.08092168
-0.0815341
-0.08215207
2.661625e-05
-0.04055997
-0.0784793
-0.08035675
-0.08074316
-0.08119537
-0.08180713
2.408508e-05
-0.04698822
-0.07905352
-0.0802496
-0.08057479
-0.08092702
-0.08153114
2.148408e-05
-0.05836864
-0.07944915
-0.08021048
-0.08042483
-0.08076145
-0.08117637
1.884201e-05
-0.06424819
-0.0797473
-0.08025558
-0.08039738
-0.08066286
-0.08090817
1.620462e-05
-0.06781707
-0.07994812
-0.08037208
-0.08049735
-0.08061463
-0.0807958
1.368275e-05
-0.06963497
-0.0799907
-0.08046789
-0.08057763
-0.08070271
-0.08085774
1.129287e-05
-0.0684886
-0.08008337
-0.0805026
-0.08064912
-0.08080938
-0.08092242
9.255762e-06
-0.07100718
-0.08008119
-0.08050895
-0.08067689
-0.08085122
-0.08103828
7.545134e-06
-0.07093039
-0.08004379
-0.08050173
-0.08067664
-0.08088163
-0.08110495
6.107787e-06
-0.06977766
-0.07998188
-0.08049363
-0.08068025
-0.08090017
-0.08111843
4.919189e-06
-0.06837153
-0.07993784
-0.08049246
-0.08069659
-0.08089606
-0.08112462
3.940218e-06
-0.06622693
-0.07987568
-0.0805105
-0.08070613
-0.08090384
-0.08113984
3.156634e-06
-0.06491666
-0.07981845
-0.08051909
-0.08070649
-0.08091737
-0.08115503
2.528801e-06
-0.06318616
-0.07978705
-0.08052205
-0.0807158
-0.08092898
-0.08116784
2.023772e-06
-0.06178232
-0.07973628
-0.08052364
-0.08072467
-0.08093832
-0.08117854
1.619721e-06
-0.06056038
-0.07971631
-0.08052963
-0.08073206
-0.0809465
-0.08118852
1.285245e-06
-0.05817073
-0.07966427
-0.08053402
-0.08073832
-0.08095397
-0.08119827
1.026647e-06
-0.0579929
-0.07963543
-0.08053791
-0.08074395
-0.08096044
-0.08120548
8.242561e-07
-0.05680651
-0.07959852
-0.0805413
-0.08074903
-0.08096666
-0.08121881
6.627767e-07
-0.05581971
-0.07956731
-0.08054446
-0.0807536
-0.08097236
-0.0812277
5.336476e-07
-0.05487531
-0.07953903
-0.08054732
-0.0807577
-0.08097703
-0.08123252
4.303871e-07
-0.05403259
-0.07951413
-0.08054993
-0.08076136
-0.08098128
-0.08123732
3.478707e-07
-0.05328327
-0.07949214
-0.08055226
-0.08076486
-0.0809885
-0.08124423
2.819465e-07
-0.05261854
-0.07947277
-0.08055442
-0.08076806
-0.08099385
-0.08125097
2.292467e-07
-0.05203033
-0.07945582
-0.08055641
-0.08077076
-0.08099693
-0.08125456
1.871334e-07
-0.05151126
-0.07944096
-0.08055822
-0.08077336
-0.08099972
-0.08125751
1.534981e-07
-0.05105414
-0.0794281
-0.08056006
-0.0807778
-0.08100408
-0.08126036
1.26584e-07
-0.05065128
-0.0794169
-0.08056175
-0.08078129
-0.08100856
-0.08126298
1.0489e-07
-0.05029725
-0.07940717
-0.08056318
-0.08078321
-0.08101077
-0.0812652
8.74794e-08
-0.04998607
-0.07939869
-0.08056455
-0.08078493
-0.08101257
-0.08126723
7.355297e-08
-0.04971285
-0.07939127
-0.0805659
-0.08078657
-0.08101427
-0.08126912
6.24194e-08
-0.04947319
-0.07938603
-0.08056892
-0.08078926
-0.08101591
-0.08127087
5.349967e-08
-0.04926091
-0.07938133
-0.08057138
-0.08079213
-0.08101749
-0.08127245
4.635674e-08
-0.0490723
-0.07937628
-0.0805725
-0.08079348
-0.08101882
-0.08127391
4.070095e-08
-0.04890231
-0.07937169
-0.0805735
-0.08079458
-0.08101997
-0.08127518
3.620608e-08
-0.04874594
-0.07936729
-0.0805744
-0.08079556
-0.08102098
-0.08127628
3.250229e-08
-0.0485964
-0.07936276
-0.0805752
-0.08079638
-0.08102178
-0.08127719
2.952446e-08
-0.0484451
-0.07935753
-0.08057577
-0.08079693
-0.08102231
-0.08127783
2.703685e-08
-0.0482817
-0.07935038
-0.08057599
-0.0807971
-0.08102253
-0.08127815
2.465516e-08
-0.04809675
-0.07935734
-0.08057653
-0.0807968
-0.08102224
-0.08127849
2.189642e-08
-0.04784008
-0.07935732
-0.08057602
-0.08079575
-0.08102182
-0.08128227
1.854655e-08
-0.04744591
-0.07933756
-0.08057296
-0.08079412
-0.08102416
-0.08128603
1.597767e-08
-0.04677485
-0.07930566
-0.08056863
-0.08079461
-0.08102632
-0.08128962
1.690426e-08
-0.04514221
-0.07925071
-0.08056607
-0.08079502
-0.08102854
-0.08129326
3.374739e-08
-0.04068414
-0.07915764
-0.08056221
-0.08079661
-0.08103131
-0.08129721
1.38964e-09
-0.03253038
-0.07890625
-0.08055087
-0.08079964
-0.08103525
-0.08130176
-0.08161363
-0.08200648
-0.08253173
-0.08303261
-0.08392237
-0.08531905
-0.09197032
-0.08160749
-0.08199824
-0.08252074
-0.08301917
-0.0839061
-0.08526226
-0.08643211
-0.08160172
-0.08199043
-0.08251028
-0.08319298
-0.08389059
-0.08523894
-0.08623411
-0.08159631
-0.0819828
-0.08249953
-0.08299302
-0.08387336
-0.08521612
-0.08617088
-0.0815913
-0.08197534
-0.08248917
-0.08297982
-0.08385725
-0.08519348
-0.08622074
-0.08158632
-0.08196791
-0.08247875
-0.08296679
-0.08384092
-0.0851709
-0.08634192
-0.08158129
-0.0819604
-0.08246826
-0.08295392
-0.08383591
-0.08514827
-0.08648793
-0.08157638
-0.08195277
-0.08245766
-0.08294118
-0.08383115
-0.08512595
-0.0866511
-0.08157556
-0.08194543
-0.08244744
-0.08292795
-0.08381766
-0.08510556
-0.0867934
-0.08157488
-0.08194358
-0.08243761
-0.0829146
-0.08380404
-0.08508524
-0.08693923
-0.08157392
-0.08194207
-0.08243468
-0.08290136
-0.08379024
-0.08506487
-0.08709668
-0.08157266
-0.08194024
-0.08243217
-0.08289782
-0.0837762
-0.08504457
-0.0872094
-0.0815712
-0.08193821
-0.08242938
-0.08289435
-0.08377232
-0.08502367
-0.08730581
-0.08156953
-0.08193596
-0.08242634
-0.08289058
-0.083768
-0.08501688
-0.08743101
-0.0815677
-0.08193347
-0.08242305
-0.08288654
-0.08376333
-0.08500956
-0.08649605
-0.08156567
-0.08193077
-0.08241951
-0.08288219
-0.08375824
-0.08500303
-0.08678354
-0.08156348
-0.08192786
-0.08241572
-0.08287748
-0.08375148
-0.08499447
-0.08678032
-0.08156113
-0.08192478
-0.08241161
-0.08287107
-0.08371049
-0.08498517
-0.08674051
-0.08155859
-0.08192155
-0.08240724
-0.08286574
-0.08370252
-0.08497497
-0.08670634
-0.08155584
-0.08191806
-0.08240251
-0.08285995
-0.08369475
-0.08496392
-0.08667204
-0.08155291
-0.08191429
-0.08239744
-0.0828537
-0.08368638
-0.08495184
-0.08664694
-0.0815497
-0.08191022
-0.08239176
-0.08284689
-0.08367738
-0.08493821
-0.08665466
-0.08154623
-0.08190589
-0.0823856
-0.08284135
-0.08366664
-0.08492314
-0.08666065
-0.08154218
-0.08190121
-0.08237871
-0.08300383
-0.08362802
-0.08490388
-0.08666773
-0.08153785
-0.08189612
-0.08237197
-0.08282172
-0.08360182
-0.08488499
-0.08667312
-0.08153327
-0.08189053
-0.08236685
-0.08281384
-0.08358865
-0.08486507
-0.08667932
-0.08152742
-0.08188419
-0.08235758
-0.08280435
-0.08357479
-0.08484123
-0.08668597
-0.08151589
-0.08187578
-0.08235551
-0.08279389
-0.08355776
-0.08475553
-0.08668405
-0.08150509
-0.08177133
-0.08220472
-0.08278629
-0.08354062
-0.0847117
-0.08667582
-0.08150831
-0.0817699
-0.08220472
-0.08277148
-0.0835232
-0.08467877
-0.08665392
-0.08148646
-0.08176028
-0.08219485
-0.08275847
-0.083504
-0.08460691
-0.08663504
-0.08146473
-0.08172719
-0.08218282
-0.08274381
-0.08348199
-0.08452871
-0.08659189
-0.08145559
-0.08172431
-0.08216077
-0.08272612
-0.0834556
-0.08448722
-0.08654382
-0.08144299
-0.0817054
-0.08214148
-0.08270252
-0.08342341
-0.08444681
-0.08637284
-0.08142946
-0.08170233
-0.08211863
-0.08267271
-0.08339997
-0.08446644
-0.08531527
-0.08142871
-0.08169481
-0.0820541
-0.08265159
-0.08340176
-0.0845299
-0.08393522
-0.08143478
-0.0816819
-0.08204965
-0.08257382
-0.08332472
-0.08445213
-0.08499603
-0.08142865
-0.0816684
-0.08199659
-0.08243043
-0.08324142
-0.08424693
-0.08503628
-0.08142145
-0.08166146
-0.08193193
-0.08232477
-0.08328972
-0.08454866
-0.08262446
-0.08132543
-0.08163563
-0.08214076
-0.08291283
-0.08366089
-0.08498815
-0.08718112
-0.08151146
-0.08187293
-0.08288704
-0.0834972
-0.08442793
-0.08566519
-0.08730523
-0.08213395
-0.08270191
-0.08319147
-0.08413961
-0.08530736
-0.08605022
-0.08893008
-0.08278892
-0.0833509
-0.08378639
-0.08510051
-0.08608176
-0.08683501
-0.08884829
-0.08324628
-0.08376937
-0.08437914
-0.08568963
-0.08661964
-0.08772127
-0.09006527
-0.08375344
-0.08440495
-0.08467128
-0.08627637
-0.0873591
-0.08848312
-0.09051385
-0.08377315
-0.08442135
-0.08536185
-0.0864468
-0.08727671
-0.08870419
-0.09126535
-0.08422181
-0.08469767
-0.08599878
-0.08663292
-0.08773167
-0.08877827
-0.09099155
-0.08421116
-0.08469704
-0.08583547
-0.08713663
-0.08776041
-0.08882162
-0.09126508
-0.08424891
-0.08487655
-0.08605239
-0.08744868
-0.08802137
-0.08894502
-0.09015951
-0.08419794
-0.08520197
-0.08636795
-0.08741618
-0.08830149
-0.08898132
-0.08964103
-0.08417434
-0.08488565
-0.08654883
-0.08753344
-0.08827599
-0.0885404
-0.08933154
-0.08443574
-0.0849105
-0.08642856
-0.08709357
-0.08789789
-0.08862815
-0.08918554
-0.0844205
-0.08475308
-0.08629678
-0.08704898
-0.08737864
-0.08819819
-0.08919307
-0.08453958
-0.08490621
-0.08599607
-0.08675249
-0.08675177
-0.08688502
-0.08833535
-0.08441851
-0.0848267
-0.08617952
-0.08624732
-0.08644257
-0.08643847
-0.08588214
-0.08407349
-0.08479734
-0.08573964
-0.08602946
-0.08614593
-0.08564095
-0.08380182
-0.0845946
-0.08528255
-0.08556162
-0.08553669
-0.08524514
-0.08370624
-0.0845343
-0.08517508
-0.08544866
-0.08549077
-0.08526769
-0.08348238
-0.08433462
-0.08492038
-0.08547957
-0.08559257
-0.08552612
-0.08604583
-0.08330444
-0.08401409
-0.08502356
-0.0854548
-0.08604873
-0.08613675
-0.08753244
-0.08331232
-0.0839227
-0.08493968
-0.08538142
-0.08606619
-0.08668859
-0.08726224
-0.08314692
-0.08386024
-0.08465161
-0.08575512
-0.08626846
-0.08674336
-0.08734113
-0.08314893
-0.08403459
-0.08510644
-0.08554361
-0.08612799
-0.08648911
-0.08745647
-0.08333043
-0.08366753
-0.08498972
-0.08514873
-0.08590764
-0.08637562
-0.08779703
-0.08316175
-0.08361843
-0.08442996
-0.08504787
-0.0853779
-0.08557727
-0.0880317
-0.08284851
-0.08358233
-0.08446351
-0.0847968
-0.08517035
-0.08616044
-0.08776648
-0.08245819
-0.08348878
-0.08392199
-0.08439478
-0.08499274
-0.08539871
-0.08768035
-0.08221815
-0.08286405
-0.08372561
-0.08418344
-0.08470659
-0.08557215
-0.08742376
-0.08186355
-0.08254398
-0.08320947
-0.08398552
-0.08449076
-0.08529847
-0.08689463
-0.0814569
-0.0821822
-0.08308563
-0.08360445
-0.08435653
-0.08491564
-0.08638617
-0.081088
-0.08178661
-0.08264427
-0.08335614
-0.08393637
-0.08430605
-0.08588646
-0.08099262
-0.08139441
-0.08212699
-0.08322025
-0.08371964
-0.08444625
-0.0863858
-0.08112029
-0.0812843
-0.08164183
-0.08250582
-0.08339024
-0.08432386
-0.08676172
-0.08129447
-0.08140092
-0.08176519
-0.08217263
-0.08303727
-0.0840817
-0.08447917
-0.08135021
-0.08152681
-0.08191675
-0.08241835
-0.08313604
-0.08410269
-0.08131274
-0.08137168
-0.08160802
-0.08199616
-0.08249804
-0.08326601
-0.08432475
-0.08433922
-0.08138678
-0.0816522
-0.08202124
-0.08260121
-0.08332489
-0.08436798
-0.0858872
-0.08140576
-0.08168099
-0.08204823
-0.08263175
-0.08334791
-0.0843438
-0.08557257
-0.08142582
-0.08169619
-0.08211093
-0.08266743
-0.08338499
-0.084381
-0.08662883
-0.08144156
-0.08172113
-0.082136
-0.08269494
-0.08342098
-0.08444822
-0.08754324
-0.0814546
-0.08173999
-0.08215659
-0.08271726
-0.0834523
-0.08449171
-0.08747574
-0.08147592
-0.08174488
-0.08217637
-0.08273692
-0.08347933
-0.08454284
-0.08730969
-0.08149883
-0.08177064
-0.08219025
-0.08275438
-0.08350308
-0.08466946
-0.08716315
-0.08150045
-0.08179378
-0.08220256
-0.08276841
-0.08352463
-0.08469273
-0.08703148
-0.08151202
-0.08187184
-0.08234978
-0.08278629
-0.08354386
-0.08472482
-0.08691106
-0.08152416
-0.08188079
-0.08235426
-0.08280057
-0.08356408
-0.08480657
-0.08680389
-0.08153077
-0.08188796
-0.0823632
-0.08281027
-0.08357998
-0.08485529
-0.08670974
-0.08153598
-0.08189421
-0.08237135
-0.08281935
-0.08359472
-0.08487711
-0.08663551
-0.08154085
-0.0818999
-0.08237884
-0.08282795
-0.08360856
-0.08489666
-0.08654975
-0.08154532
-0.08190507
-0.08238564
-0.08283598
-0.08365296
-0.08491684
-0.08650629
-0.08154912
-0.0819098
-0.08239191
-0.08284348
-0.0836735
-0.0849338
-0.08644799
-0.08155257
-0.08191416
-0.08239763
-0.08285041
-0.08368314
-0.08494816
-0.08641004
-0.08155571
-0.08191811
-0.08240288
-0.08285687
-0.083692
-0.08496111
-0.08637086
-0.08155861
-0.08192174
-0.08240773
-0.08286282
-0.08370013
-0.08497275
-0.08635937
-0.08156123
-0.08192507
-0.08241217
-0.08286836
-0.08370759
-0.08498321
-0.0864002
-0.08156366
-0.08192822
-0.08241634
-0.08287431
-0.0837306
-0.08499278
-0.08643854
-0.08156589
-0.08193118
-0.08242017
-0.08287967
-0.08375697
-0.08500148
-0.0864673
-0.08156796
-0.08193392
-0.08242374
-0.08288416
-0.0837622
-0.08500918
-0.08636911
-0.08156985
-0.08193645
-0.08242705
-0.08288833
-0.08376706
-0.0850163
-0.08682065
-0.08157158
-0.08193874
-0.08243012
-0.08289216
-0.08377151
-0.08502357
-0.08713992
-0.08157312
-0.08194084
-0.08243293
-0.08289576
-0.08377562
-0.08503726
-0.08707021
-0.08157448
-0.08194275
-0.08243549
-0.08289903
-0.08378452
-0.08505765
-0.08700412
-0.08157561
-0.08194439
-0.08243848
-0.08290752
-0.08379825
-0.0850778
-0.08693054
-0.08157651
-0.08194636
-0.08244838
-0.08292087
-0.08381192
-0.08509788
-0.08681999
-0.08157755
-0.08195384
-0.08245867
-0.08293421
-0.08382541
-0.08511811
-0.08670653
-0.08158268
-0.0819616
-0.08246932
-0.08294742
-0.08383824
-0.08513921
-0.08661211
-0.08158791
-0.08196921
-0.08247985
-0.08295982
-0.08383412
-0.08516154
-0.08651885
-0.08159299
-0.08197666
-0.08249027
-0.08297294
-0.08384992
-0.08518399
-0.086452
-0.08159792
-0.08198402
-0.08250061
-0.08298599
-0.0838661
-0.08520654
-0.08647932
-0.08160303
-0.08199141
-0.08251094
-0.08299913
-0.08388224
-0.08522916
-0.08657204
-0.08160837
-0.08199889
-0.08252135
-0.0830123
-0.08389836
-0.08525198
-0.08670969
-0.0816141
-0.08200678
-0.08253189
-0.08302557
-0.0839144
-0.08528616
-0.09022051
-0.7963929
-0.7474884
-0.8009137
-0.7917737
-0.7913945
-0.791411
-0.7914091
-0.7914091
-0.7914092
-0.7914094
-0.7914096
-0.7914099
-0.7914101
-0.7914104
-0.7914103
-0.7914104
-0.7914109
-0.7914113
-0.774782
-0.7250693
-0.7853218
-0.7911768
-0.7913938
-0.7913961
-0.7913974
-0.7913974
-0.7913975
-0.7913973
-0.7913972
-0.791397
-0.7913968
-0.7913966
-0.7913963
-0.7913961
-0.7913962
-0.7913959
-0.8279309
-0.5648532
-0.7900628
-0.7913303
-0.791402
-0.791416
-0.7914158
-0.7914156
-0.7914159
-0.791416
-0.7914161
-0.7914161
-0.7914162
-0.7914163
-0.7914154
-0.7914158
-0.7914165
-0.7914166
-0.8286545
-0.7985792
-0.7960098
-0.7915086
-0.7913947
-0.791401
-0.7914
-0.7914001
-0.7914001
-0.7914002
-0.7914002
-0.7914003
-0.7914004
-0.7914004
-0.7913997
-0.7913996
-0.7914005
-0.7914006
-0.8320104
-0.7351648
-0.7916087
-0.7914236
-0.7913948
-0.7914003
-0.7914003
-0.7914005
-0.7914005
-0.7914005
-0.7914004
-0.7914004
-0.7914003
-0.7914002
-0.791399
-0.7913991
-0.7914001
-0.7914
-0.830407
-0.675221
-0.7903862
-0.7913963
-0.7914009
-0.7914042
-0.7914045
-0.7914049
-0.791405
-0.791405
-0.791405
-0.791405
-0.791405
-0.791405
-0.7914032
-0.7914035
-0.7914049
-0.7914049
-0.8278353
-0.6762735
-0.7909593
-0.7913957
-0.791406
-0.7914039
-0.7914043
-0.7914051
-0.7914054
-0.7914054
-0.7914054
-0.7914054
-0.7914054
-0.7914054
-0.791403
-0.7914035
-0.7914055
-0.7914055
-0.819406
-0.6959053
-0.7912815
-0.7913956
-0.7914095
-0.7914023
-0.7914032
-0.7914042
-0.7914049
-0.7914049
-0.7914049
-0.7914049
-0.7914049
-0.7914049
-0.7914018
-0.7914024
-0.791405
-0.791405
-0.8148763
-0.7037852
-0.7912639
-0.7913916
-0.7914098
-0.7914007
-0.7914023
-0.7914032
-0.7914047
-0.7914047
-0.7914047
-0.7914047
-0.7914047
-0.7914047
-0.7914004
-0.7914014
-0.7914048
-0.7914048
-0.8076799
-0.6976167
-0.7909044
-0.79137
-0.7914061
-0.7913997
-0.7914019
-0.7914029
-0.7914046
-0.7914047
-0.7914047
-0.7914047
-0.7914047
-0.7914047
-0.7913991
-0.7914005
-0.7914047
-0.7914047
-0.7970255
-0.6643507
-0.7900893
-0.791259
-0.7913968
-0.7913988
-0.7914017
-0.791403
-0.7914046
-0.7914047
-0.7914047
-0.7914047
-0.7914047
-0.7914047
-0.7913977
-0.7913996
-0.7914047
-0.7914047
-0.7868653
-0.6729334
-0.7902983
-0.7909669
-0.7913667
-0.7913984
-0.7914016
-0.7914027
-0.7914043
-0.7914047
-0.7914047
-0.7914047
-0.7914047
-0.7914047
-0.791396
-0.7913985
-0.7914047
-0.7914047
-0.7791019
-0.7128451
-0.7937212
-0.7909286
-0.79129
-0.7913982
-0.7914017
-0.7914024
-0.7914039
-0.7914047
-0.7914047
-0.7914047
-0.7914047
-0.7914047
-0.7913944
-0.7913976
-0.7914047
-0.7914047
-0.7699264
-0.701948
-0.793648
-0.7921032
-0.7912697
-0.7913916
-0.791402
-0.7914022
-0.7914036
-0.7914047
-0.7914047
-0.7914047
-0.7914047
-0.7914046
-0.791395
-0.7913982
-0.7914047
-0.7914047
-0.6885948
-0.6840383
-0.7895303
-0.7922241
-0.7915127
-0.7913757
-0.7914019
-0.7914013
-0.7914021
-0.7914046
-0.7914047
-0.7914047
-0.7914047
-0.7914043
-0.7914016
-0.7914035
-0.7914047
-0.7914047
-0.7002927
-0.7260081
-0.7926987
-0.7907032
-0.7916205
-0.7913802
-0.791398
-0.7914018
-0.7913998
-0.7914046
-0.7914047
-0.7914047
-0.7914047
-0.791403
-0.7914119
-0.7914126
-0.7914047
-0.7914047
-0.6832644
-0.6798405
-0.7902583
-0.7919574
-0.7912696
-0.7914297
-0.7913894
-0.7913998
-0.7913978
-0.7914045
-0.7914047
-0.7914047
-0.7914047
-0.7914001
-0.7914092
-0.7914109
-0.7914047
-0.7914047
-0.6654159
-0.7103815
-0.7923071
-0.7908944
-0.7913095
-0.7914506
-0.791405
-0.7913921
-0.7913948
-0.7914046
-0.7914047
-0.7914047
-0.7914047
-0.7913998
-0.7914011
-0.791403
-0.7914047
-0.7914047
-0.6486009
-0.7162625
-0.7912881
-0.7917359
-0.7914536
-0.7913534
-0.79143
-0.7914039
-0.7913931
-0.7914044
-0.7914046
-0.7914047
-0.7914047
-0.7914011
-0.7914026
-0.791403
-0.7914047
-0.7914047
-0.6317586
-0.7049799
-0.7903121
-0.7912388
-0.7911147
-0.7914607
-0.7913789
-0.7914179
-0.7913946
-0.7914044
-0.7914045
-0.7914046
-0.7914045
-0.7913908
-0.7913923
-0.7914039
-0.7914047
-0.7914046
-0.6148864
-0.7067418
-0.7914389
-0.7909849
-0.7913624
-0.7913697
-0.7914189
-0.7913962
-0.791395
-0.7914049
-0.7914045
-0.7914045
-0.7914041
-0.7913651
-0.7913448
-0.7914027
-0.7914047
-0.7914043
-0.5993959
-0.7115139
-0.7916959
-0.7913464
-0.7911126
-0.7914208
-0.7913761
-0.7914026
-0.7913715
-0.7914048
-0.7914049
-0.7914046
-0.7914029
-0.7912913
-0.7912011
-0.7914055
-0.7914047
-0.7914025
-0.5848829
-0.7125457
-0.7914083
-0.7911084
-0.7907771
-0.7913906
-0.7914038
-0.7914004
-0.7913629
-0.7914037
-0.7914046
-0.7914048
-0.7914016
-0.7912968
-0.7911644
-0.7914032
-0.7914045
-0.7913933
-0.5701995
-0.713056
-0.7912121
-0.7900078
-0.7900756
-0.7913998
-0.791371
-0.7913537
-0.7913206
-0.7914058
-0.7914036
-0.7914045
-0.7913985
-0.7914565
-0.7916594
-0.7914062
-0.7914038
-0.7913609
-0.5556623
-0.7142426
-0.7910386
-0.7844904
-0.7847964
-0.79148
-0.7913288
-0.7910805
-0.7912933
-0.7914149
-0.7914063
-0.7914041
-0.7913787
-0.7914353
-0.7913704
-0.7914073
-0.7914008
-0.7912932
-0.5412217
-0.7136643
-0.7903235
-0.7570393
-0.7582115
-0.7919285
-0.7911623
-0.7896683
-0.7908641
-0.7914669
-0.7914043
-0.7914052
-0.7913378
-0.7914135
-0.7914103
-0.7914066
-0.7913904
-0.7912573
-0.5259496
-0.7076101
-0.7867591
-0.6840265
-0.7049794
-0.7925501
-0.7907921
-0.7860387
-0.7890674
-0.7915759
-0.7914078
-0.7914034
-0.7913163
-0.7913462
-0.7913463
-0.7914031
-0.7913551
-0.7913978
-0.5106009
-0.6854815
-0.7708959
-0.7220308
-0.7990445
-0.7894251
-0.7904766
-0.7871757
-0.7876174
-0.7914589
-0.7914044
-0.7913978
-0.7912997
-0.7913174
-0.7914581
-0.7913912
-0.7912569
-0.7915168
-0.4950967
-0.6433797
-0.7112327
-0.8906253
-0.8703685
-0.77954
-0.7907274
-0.8009753
-0.7965057
-0.7909347
-0.7913826
-0.7913685
-0.7909933
-0.7908609
-0.791372
-0.791324
-0.7911842
-0.7911301
-0.4795785
-0.6317659
-0.6627902
-0.6357549
-0.5936185
-0.7604094
-0.7889625
-0.7929793
-0.7937354
-0.7912738
-0.791327
-0.7913013
-0.7911152
-0.7911918
-0.7913397
-0.7911324
-0.7913827
-0.791288
-0.4607295
-0.7298074
-0.7962462
-0.6682047
-0.8361754
-0.7382669
-0.7846651
-0.7869776
-0.7833526
-0.7910615
-0.7911417
-0.7910565
-0.7916631
-0.7922684
-0.7913873
-0.7908498
-0.7911814
-0.7917368
-0.4398515
-0.6452036
-0.8037233
-0.9614053
-0.8138006
-0.8744097
-0.7830807
-0.7917279
-0.787186
-0.7908395
-0.7903062
-0.7900502
-0.7906801
-0.7911054
-0.791132
-0.790804
-0.790516
-0.7914483
-0.4287467
-0.2315044
-0.4698688
-0.7420515
-0.9226119
-0.8307862
-0.7892385
-0.7778676
-0.7966951
-0.7841124
-0.7857631
-0.7870295
-0.788464
-0.790446
-0.7903493
-0.7909571
-0.7908174
-0.7911443
-0.4647054
-0.3199822
-0.3964572
-0.4760872
-0.7250826
-0.7165049
-0.7669919
-0.7664184
-0.7634196
-0.7694511
-0.7717254
-0.7782818
-0.781453
-0.7845367
-0.787629
-0.7902018
-0.7916924
-0.791614
-0.3387972
-0.1833238
-0.6675965
-0.9857365
-0.8091528
-0.7841409
-0.7593833
-0.7557869
-0.7557355
-0.7529978
-0.7538653
-0.7639772
-0.7664854
-0.7718643
-0.7803624
-0.7858703
-0.7901728
-0.7905027
-0.3281197
-0.5533968
-0.9784976
-0.9029107
-0.8413657
-0.7710697
-0.7744107
-0.7623971
-0.7716313
-0.7621153
-0.7609147
-0.7649248
-0.7540846
-0.7556441
-0.7690323
-0.7770666
-0.7835227
-0.7881973
-0.306415
-1.641601
-0.48159
-0.7920913
-0.7606942
-0.7365201
-0.768542
-0.7856718
-0.7804556
-0.7734155
-0.7832054
-0.7778147
-0.7761877
-0.7771382
-0.7670064
-0.7606142
-0.7724542
-0.779533
-0.2669165
-0.965319
-1.19937
-0.8646102
-0.6425824
-0.7607923
-0.7819727
-0.7747491
-0.7807728
-0.7781778
-0.7951475
-0.7817773
-0.7829335
-0.8040829
-0.7850819
-0.7748308
-0.7663921
-0.7684372
-0.4804716
0.497445
-0.7204537
-0.6757055
-0.7640498
-0.8145523
-0.7939755
-0.7646971
-0.7943307
-0.7763542
-0.8016183
-0.7970098
-0.797306
-0.7868013
-0.7994901
-0.80205
-0.7938032
-0.7760485
-0.3099002
-0.9288915
-1.324435
-0.6617418
-0.7526465
-0.8020346
-0.8268733
-0.8077737
-0.7873993
-0.78928
-0.7915636
-0.7785151
-0.8115971
-0.8082836
-0.7935337
-0.8117778
-0.8111655
-0.8022637
-0.2051499
-0.7486053
-0.7975612
-0.7448078
-0.8474327
-0.7224329
-0.8359436
-0.8237355
-0.7651621
-0.8148641
-0.7814881
-0.8001287
-0.7955237
-0.8044203
-0.808773
-0.811897
-0.8173631
-0.8110772
-0.07404483
-1.595284
-0.6611945
-0.6770534
-0.8376388
-0.814184
-0.7968645
-0.7985234
-0.7843052
-0.7858183
-0.8416259
-0.8142054
-0.8169638
-0.7783801
-0.8040702
-0.8246197
-0.8132538
-0.8216462
-0.2134899
-0.8425773
-0.5762356
-0.769847
-0.7478076
-0.8290936
-0.7837397
-0.8092497
-0.7932622
-0.7760447
-0.8143819
-0.819327
-0.7763682
-0.8313259
-0.8076496
-0.8094378
-0.8268875
-0.8237287
-0.2273542
-1.061221
-0.4725245
-1.122643
-0.8912256
-0.8386484
-0.7778937
-0.7823894
-0.7608278
-0.854097
-0.7040328
-0.7665485
-0.7305689
-0.8222127
-0.7851302
-0.825286
-0.8225221
-0.8211605
-0.2537576
-1.682447
-0.7774084
-0.3845103
-0.7265149
-0.8329317
-0.7573416
-0.7291421
-0.6544174
-0.7283298
-0.8298232
-0.6831946
-0.8217199
-0.8016834
-0.7970211
-0.8243235
-0.8466725
-0.8245872
-0.2347624
-1.904253
-0.9629786
-0.9547433
-0.7111328
-0.8229009
-0.7199468
-0.6299928
-0.7628688
-0.6255986
-0.7335992
-0.782092
-0.6625415
-0.90497
-0.7500363
-0.764634
-0.8269346
-0.8429442
-0.1082394
-2.628722
-1.144535
-0.1993328
-0.7757455
-0.7703343
-0.5993008
-0.5793325
-0.5721137
-0.6918053
-0.6431443
-0.9098806
-0.7786019
-0.804457
-0.8906984
-0.6559878
-0.8261349
-0.8146347
-0.229139
-2.190019
-2.702308
-0.9109737
-0.9189062
-0.6445564
-0.2923339
-0.5842855
-0.556188
-0.6619204
-0.7226161
-0.7484188
-0.8600754
-0.6696122
-0.7836463
-0.7592707
-0.7990329
-0.829178
-0.0520776
-1.45539
-0.9207374
-1.249059
-0.584875
0.1732224
0.5241249
0.196393
-0.03477266
-0.4078938
-0.4615745
-0.2823227
-0.6536851
-0.8177404
-0.9321476
-0.8840198
-0.7772975
-0.7548118
-0.1041092
-1.282161
1.933261
-0.4634802
1.549329
0.1123457
-0.6266827
-1.002841
-0.8099926
-0.6005462
-0.8470914
-0.7841746
-0.7966257
-0.8550416
-0.1178428
-1.747549
-0.7244034
-1.215714
-0.9501112
-0.4153236
-0.5989124
-0.8296839
-0.7279823
-0.7777598
-0.09381521
-0.2998242
-0.4401169
-0.7713649
-0.9887925
-0.7643249
-0.7850431
-0.8053768
-0.7477493
-1.046277
-0.8891573
-0.7011181
-0.7906135
-0.8017323
-1.126339
-0.4482882
-0.6522875
-0.725824
-0.7608425
-0.55529
-0.771791
-0.6524519
-0.7690314
-0.8041839
-0.2718634
-0.5753338
-0.9069748
-0.7306228
-0.7631058
-0.9860086
-1.106433
-0.6878847
-0.7584685
-0.7610602
-1.180355
-0.3235762
-0.7324414
-0.7491345
-0.7593026
-0.5042188
-1.111034
-0.7819243
-0.775127
-0.7331706
-0.5606999
-1.256182
-0.6620192
-0.6211562
-0.735325
-0.7456539
-0.09780788
-1.030347
-0.4592787