/*--------------------------------*- C++ -*----------------------------------*\
| =========                 |                                                 |
| \\      /  F ield         | OpenFOAM: The Open Source CFD Toolbox           |
|  \\    /   O peration     | Version:  2206                                  |
|   \\  /    A nd           | Website:  www.openfoam.com                      |
|    \\/     M anipulation  |                                                 |
\*---------------------------------------------------------------------------*/
FoamFile
{
    version     2.0;
    format      ascii;
    arch        "LSB;label=32;scalar=64";
    class       volScalarField;
    location    "2.8";
    object      ddt0(alpha.a);
}
// * * * * * * * * * * * * * * * * * * * * * * * * * * * * * * * * * * * * * //

dimensions      [0 0 -1 0 0 0 0];

internalField   nonuniform List<scalar> 
13078
(
-0.296639
-0.03843968
-0.003808947
-0.0008514901
-0.0002225903
-0.0001131975
-0.0001030656
-0.02399287
-0.004971395
-0.001396663
-0.0004466023
-0.0001473205
-0.0001117525
-0.0001001629
-0.003031271
-0.001516405
-0.0005239102
-0.0001907799
-0.0001221345
-0.0001045864
-9.445242e-05
-0.0003067113
-0.0003310857
-0.0001711184
-0.0001126169
-9.925711e-05
-9.085184e-05
-8.54037e-05
0.0001189874
-2.85089e-05
-6.12076e-05
-7.092359e-05
-7.194387e-05
-7.336432e-05
-7.455591e-05
0.000156407
3.499854e-05
-1.110747e-05
-3.525326e-05
-4.98079e-05
-5.718627e-05
-6.324106e-05
0.0001294903
4.899825e-05
1.303409e-05
-1.357393e-05
-3.173298e-05
-4.506626e-05
-5.371192e-05
0.0001026409
4.609604e-05
2.122378e-05
-3.17124e-06
-2.097576e-05
-3.550797e-05
-4.719438e-05
8.136614e-05
3.708634e-05
2.129503e-05
9.403232e-07
-1.535612e-05
-2.992663e-05
-4.222958e-05
6.524151e-05
2.763432e-05
1.749549e-05
1.023247e-06
-1.347794e-05
-2.739629e-05
-3.989933e-05
5.28464e-05
1.895759e-05
1.254497e-05
-1.112737e-06
-1.415432e-05
-2.716838e-05
-3.934976e-05
4.298762e-05
1.137385e-05
7.129351e-06
-4.609861e-06
-1.620848e-05
-2.82526e-05
-3.991589e-05
3.499308e-05
4.639772e-06
1.657078e-06
-8.670629e-06
-1.899502e-05
-3.010044e-05
-4.129009e-05
2.821136e-05
-1.522289e-06
-3.699431e-06
-1.308167e-05
-2.247246e-05
-3.266651e-05
-4.352231e-05
2.218509e-05
-7.192075e-06
-8.664981e-06
-1.658887e-05
-2.557914e-05
-3.56869e-05
-4.632662e-05
1.667203e-05
-1.238337e-05
-1.33691e-05
-2.102374e-05
-2.990131e-05
-3.920645e-05
-4.937848e-05
1.156096e-05
-1.710211e-05
-1.804911e-05
-2.540787e-05
-3.39488e-05
-4.279239e-05
-5.250124e-05
6.797995e-06
-2.172947e-05
-2.283529e-05
-3.009565e-05
-3.815882e-05
-4.645061e-05
-5.589114e-05
2.144759e-06
-2.660923e-05
-2.774241e-05
-3.472724e-05
-4.26786e-05
-5.086361e-05
-5.987824e-05
-2.663649e-06
-3.159592e-05
-3.270247e-05
-3.932777e-05
-4.611671e-05
-5.4304e-05
-6.37761e-05
-7.70162e-06
-3.655618e-05
-3.775265e-05
-4.42777e-05
-5.144871e-05
-5.952597e-05
-6.783316e-05
-1.290337e-05
-4.171671e-05
-4.308322e-05
-4.95957e-05
-5.619374e-05
-6.415574e-05
-7.234093e-05
-1.821272e-05
-4.725567e-05
-4.882711e-05
-5.525884e-05
-6.163848e-05
-6.989751e-05
-7.817425e-05
-2.377031e-05
-5.315107e-05
-5.487639e-05
-6.128378e-05
-6.743398e-05
-7.382751e-05
-8.200169e-05
-2.98202e-05
-5.932621e-05
-6.127867e-05
-6.769336e-05
-7.402372e-05
-8.116589e-05
-8.956815e-05
-3.614339e-05
-6.569223e-05
-6.805032e-05
-7.454516e-05
-8.093431e-05
-8.768724e-05
-9.630972e-05
-4.24819e-05
-7.227004e-05
-7.505177e-05
-8.177617e-05
-8.844007e-05
-9.526028e-05
-0.0001053737
-4.882858e-05
-7.89986e-05
-8.207717e-05
-8.924539e-05
-9.65758e-05
-0.0001043054
-0.000112509
-5.529396e-05
-8.559008e-05
-8.903907e-05
-9.676118e-05
-0.0001049905
-0.0001145654
-0.000127974
-6.115787e-05
-9.099212e-05
-9.532219e-05
-0.000103602
-0.0001130361
-0.0001247757
-0.0001399261
-6.641869e-05
-9.620904e-05
-0.0001011646
-0.0001097213
-0.0001198421
-0.0001335345
-0.0001518969
-7.032822e-05
-9.861045e-05
-0.0001040075
-0.0001143381
-0.0001252357
-0.0001411497
-0.0001626715
-7.234985e-05
-9.971886e-05
-0.0001038788
-0.000113388
-0.0001277676
-0.0001467147
-0.0001720579
-7.193349e-05
-9.7813e-05
-0.0001020059
-0.0001119386
-0.0001298156
-0.0001503713
-0.0001799182
-6.81593e-05
-9.148511e-05
-9.610076e-05
-0.0001104393
-0.0001309705
-0.0001646119
-0.0001942121
-5.869746e-05
-8.511879e-05
-0.0001010938
-0.0001257302
-0.0001449432
-0.0001688829
-0.0002056853
-4.669163e-05
-9.139082e-05
-0.0001200221
-0.0001414385
-0.0001618118
-0.000178003
-0.0001973083
-4.390061e-05
-0.0001043582
-0.0001355842
-0.000156917
-0.0001656713
-0.0001653892
-0.0001601603
-4.545435e-05
-0.000113918
-0.0001500393
-0.000162237
-0.0001537322
-0.0001395816
-0.0001095757
-4.673515e-05
-0.0001183983
-0.000152492
-0.0001482739
-0.000123921
-8.792673e-05
-1.198395e-05
-5.413155e-05
-0.0001060321
-0.0001321603
-0.000120378
-7.579372e-05
-2.551215e-05
-0.0001774763
-5.636263e-05
-7.968025e-05
-8.475473e-05
-6.722034e-05
-2.629952e-05
-0.0003525772
-0.001851935
-4.653163e-05
-2.663747e-05
-1.992959e-05
1.06288e-05
-0.0003576095
-0.002317288
-0.005052135
-5.583219e-06
5.897357e-05
7.946573e-05
-0.0002153426
-0.002120689
-0.005542319
-0.008509271
7.869848e-05
0.0001708447
5.296732e-05
-0.001857907
-0.005208124
-0.008547843
-0.01171311
0.000199531
0.0003017746
-0.0008440093
-0.004888854
-0.00847939
-0.01160218
-0.01442548
0.0003355896
-5.618441e-05
-0.00313738
-0.007588005
-0.01176284
-0.01483848
-0.01719376
0.0004246116
-0.001619205
-0.005990694
-0.01012851
-0.01434655
-0.01714289
-0.02051585
8.349433e-05
-0.003849443
-0.00862229
-0.01293127
-0.01662029
-0.0193873
-0.02202182
-0.0008976821
-0.005923272
-0.01090933
-0.0153676
-0.01914684
-0.0216839
-0.02222383
-0.002637707
-0.007754356
-0.01215165
-0.01735106
-0.02111115
-0.02313224
-0.02293437
-0.00489056
-0.009472929
-0.01384817
-0.01891896
-0.0221675
-0.02322694
-0.02342039
-0.006941502
-0.01092248
-0.01589621
-0.01999536
-0.02258461
-0.02310458
-0.02383143
-0.008375204
-0.0118129
-0.01679527
-0.02067964
-0.02286095
-0.02351309
-0.02476163
-0.009424902
-0.01230947
-0.01715616
-0.02073424
-0.02268893
-0.02385964
-0.02583529
-0.01031111
-0.01251915
-0.01712328
-0.02043615
-0.02244731
-0.0240947
-0.02620407
-0.01021708
-0.01222091
-0.01662877
-0.01994507
-0.02227099
-0.02423583
-0.02630712
-0.009108185
-0.01143284
-0.01576876
-0.01929182
-0.02199666
-0.02409462
-0.02609504
-0.007897253
-0.01050407
-0.01473852
-0.01842401
-0.02136963
-0.02350521
-0.02531359
-0.006375627
-0.009326177
-0.01335197
-0.01706955
-0.02013734
-0.02229987
-0.02464087
-0.004331998
-0.007741697
-0.01093511
-0.01547247
-0.01884395
-0.02121749
-0.02370946
-0.002129019
-0.00608538
-0.009119278
-0.01352605
-0.01720055
-0.01993816
-0.02191643
-0.0004704824
-0.004539821
-0.00806386
-0.01135648
-0.01482177
-0.01766865
-0.01961989
0.0004781901
-0.002892762
-0.00629512
-0.009014445
-0.01197775
-0.01488298
-0.01816134
0.0007993014
-0.0009751984
-0.004426456
-0.006776949
-0.009522568
-0.0122752
-0.01608713
0.0007077381
0.0003316847
-0.002303094
-0.005212881
-0.007320961
-0.009703687
-0.01258333
0.0005339906
0.0006323183
-0.0004032729
-0.003624485
-0.005118308
-0.006486349
-0.009702129
0.0004096433
0.0004649231
0.000400064
-0.001243955
-0.003312133
-0.004293717
-0.006656358
0.0003201254
0.0003518253
0.0004062897
0.0001910471
-0.001314878
-0.003008972
-0.003481461
0.0002537991
0.0002627591
0.0002981278
0.0003605893
8.253726e-05
-0.001191755
-0.001877252
0.0002182663
0.000190582
0.0002085747
0.0002567361
0.0003092623
9.03703e-05
-0.0007411662
0.0001924811
0.000141161
0.0001345006
0.000158754
0.0002053168
0.0002375399
9.177158e-05
0.0001644566
0.0001049763
8.088232e-05
8.2769e-05
9.091249e-05
0.0001092868
0.0001015408
0.0001426998
7.780418e-05
4.894772e-05
2.98263e-05
1.746667e-05
-1.23483e-05
-1.095916e-05
0.0001157162
5.958952e-05
2.467339e-05
-2.310885e-06
-3.242184e-05
-6.471326e-05
-0.0001081057
7.904373e-05
4.129267e-05
1.214173e-05
-2.57347e-05
-6.495802e-05
-0.0001044334
-0.0001663293
4.983467e-05
1.068667e-05
-8.606215e-06
-3.980972e-05
-7.648443e-05
-0.00012929
-0.0001905165
2.572404e-05
-1.51705e-05
-3.460005e-05
-6.097969e-05
-9.568675e-05
-0.0001445385
-0.0002011597
6.377093e-06
-3.488786e-05
-5.439793e-05
-8.116154e-05
-0.0001159713
-0.0001566465
-0.0002081096
-8.36944e-06
-5.001138e-05
-6.836527e-05
-9.436797e-05
-0.000125791
-0.0001621309
-0.0002075429
-1.846411e-05
-6.031601e-05
-7.841273e-05
-0.0001029207
-0.0001300334
-0.0001623832
-0.0002018991
-2.555485e-05
-6.639762e-05
-8.30523e-05
-0.0001047434
-0.000128881
-0.0001575918
-0.0001919467
-2.94236e-05
-6.925819e-05
-8.358317e-05
-0.0001035256
-0.0001243076
-0.0001490912
-0.0001782794
-3.08397e-05
-6.987347e-05
-8.236307e-05
-9.933699e-05
-0.0001177614
-0.0001382955
-0.0001626869
-3.078478e-05
-6.814485e-05
-7.869697e-05
-9.35474e-05
-0.0001097627
-0.0001265413
-0.0001435721
-2.924481e-05
-6.534859e-05
-7.384112e-05
-8.728555e-05
-0.00010111
-0.0001154783
-0.0001320539
-2.6752e-05
-6.14727e-05
-6.842977e-05
-8.071252e-05
-9.257793e-05
-0.0001052276
-0.0001196509
-2.375442e-05
-5.708143e-05
-6.287291e-05
-7.388856e-05
-8.471869e-05
-9.659993e-05
-0.0001098069
-2.001257e-05
-5.235071e-05
-5.742889e-05
-6.723306e-05
-7.727346e-05
-8.746272e-05
-9.937156e-05
-1.598025e-05
-4.776091e-05
-5.181796e-05
-6.123941e-05
-7.030953e-05
-8.145895e-05
-9.24565e-05
-1.197371e-05
-4.324715e-05
-4.629754e-05
-5.501624e-05
-6.382458e-05
-7.401894e-05
-8.398523e-05
-8.197249e-06
-3.866202e-05
-4.105987e-05
-4.941478e-05
-5.818689e-05
-6.759173e-05
-7.737445e-05
-4.062014e-06
-3.405888e-05
-3.630673e-05
-4.403869e-05
-5.197591e-05
-6.119174e-05
-7.150731e-05
7.259669e-08
-2.937925e-05
-3.130793e-05
-3.893626e-05
-4.764495e-05
-5.682185e-05
-6.621439e-05
4.372019e-06
-2.496363e-05
-2.64539e-05
-3.387952e-05
-4.250342e-05
-5.140067e-05
-6.118686e-05
8.650678e-06
-2.04338e-05
-2.161418e-05
-2.916129e-05
-3.774119e-05
-4.66987e-05
-5.675166e-05
1.327862e-05
-1.583558e-05
-1.694107e-05
-2.485374e-05
-3.339982e-05
-4.250253e-05
-5.267028e-05
1.797455e-05
-1.113959e-05
-1.237561e-05
-2.027167e-05
-2.900121e-05
-3.867971e-05
-4.885178e-05
2.29857e-05
-6.327806e-06
-7.760766e-06
-1.64713e-05
-2.551972e-05
-3.522488e-05
-4.541492e-05
2.867669e-05
-9.030738e-07
-2.79242e-06
-1.199873e-05
-2.148569e-05
-3.185888e-05
-4.254937e-05
3.533848e-05
5.227668e-06
2.411305e-06
-7.718769e-06
-1.803137e-05
-2.905947e-05
-4.014675e-05
4.331725e-05
1.199397e-05
7.866717e-06
-3.698478e-06
-1.503777e-05
-2.682971e-05
-3.845227e-05
5.311223e-05
1.946433e-05
1.325052e-05
-1.994105e-07
-1.298311e-05
-2.564701e-05
-3.763986e-05
6.525619e-05
2.792798e-05
1.827138e-05
2.031258e-06
-1.221664e-05
-2.585512e-05
-3.821031e-05
8.087547e-05
3.710087e-05
2.18337e-05
2.364155e-06
-1.377087e-05
-2.826182e-05
-4.079344e-05
0.0001015273
4.61421e-05
2.205693e-05
-9.48002e-07
-1.904213e-05
-3.389732e-05
-4.466277e-05
0.0001281325
4.974143e-05
1.425515e-05
-1.171878e-05
-3.010026e-05
-4.177431e-05
-5.133563e-05
0.000155461
3.633723e-05
-8.470274e-06
-3.29303e-05
-4.533488e-05
-5.428667e-05
-6.073961e-05
0.0001242894
-2.196941e-05
-5.814134e-05
-6.425071e-05
-6.82411e-05
-7.025051e-05
-7.149103e-05
-0.0002800412
-0.0003075276
-0.0001534654
-0.0001070902
-9.485288e-05
-8.688134e-05
-8.258731e-05
-0.002944651
-0.001418715
-0.0004955356
-0.0001855866
-0.0001159634
-0.0001007239
-9.203684e-05
-0.02493258
-0.004783501
-0.001164024
-0.0003913669
-0.0001527187
-0.0001103269
-9.881042e-05
-9.18725e-05
-7.770925e-05
-6.066752e-05
-4.336683e-05
-2.203234e-05
-1.165087e-05
-0.0003546684
-8.970398e-05
-7.601476e-05
-5.972402e-05
-4.332489e-05
-2.198521e-05
-1.231777e-05
-0.0002802884
-8.596459e-05
-7.378503e-05
-5.643279e-05
-3.929697e-05
-2.163386e-05
-1.486711e-05
-0.0002776909
-8.032447e-05
-7.102547e-05
-5.806689e-05
-3.801499e-05
-2.58847e-05
-1.817485e-05
-0.0002978789
-7.353477e-05
-6.755779e-05
-5.640532e-05
-3.649473e-05
-2.74022e-05
-2.258818e-05
-0.0003251899
-6.656988e-05
-6.359795e-05
-5.466506e-05
-3.542724e-05
-3.051178e-05
-2.886429e-05
-0.0003634079
-5.974971e-05
-5.993868e-05
-5.333006e-05
-3.600113e-05
-3.380584e-05
-3.640086e-05
-0.0004103834
-5.464668e-05
-5.691586e-05
-5.284742e-05
-3.70634e-05
-3.680604e-05
-4.450589e-05
-0.0004638193
-5.194178e-05
-5.551185e-05
-5.282178e-05
-3.897185e-05
-4.071046e-05
-5.278743e-05
-0.0005227674
-5.012548e-05
-5.542534e-05
-5.366392e-05
-4.130691e-05
-4.50496e-05
-6.116553e-05
-0.0005855339
-4.973627e-05
-5.550982e-05
-5.537091e-05
-4.424928e-05
-4.961541e-05
-6.942637e-05
-0.0006515841
-5.02894e-05
-5.662389e-05
-5.73666e-05
-4.732421e-05
-5.413804e-05
-7.756526e-05
-0.0007211204
-5.169785e-05
-5.847177e-05
-5.986081e-05
-5.107232e-05
-5.905928e-05
-8.517495e-05
-0.0007933041
-5.378624e-05
-6.081888e-05
-6.278326e-05
-5.51988e-05
-6.389214e-05
-9.399396e-05
-0.0008607371
-5.630241e-05
-6.349767e-05
-6.608204e-05
-5.934737e-05
-6.871014e-05
-0.0001021836
-0.0009079675
-5.908336e-05
-6.641356e-05
-6.961848e-05
-6.355089e-05
-7.347387e-05
-0.0001102701
-0.0009840452
-6.213154e-05
-6.974089e-05
-7.34152e-05
-6.808701e-05
-8.079706e-05
-0.0001184458
-0.001055231
-6.555205e-05
-7.348618e-05
-7.750555e-05
-7.246271e-05
-8.635183e-05
-0.0001265976
-0.001124149
-6.924425e-05
-7.738284e-05
-8.176981e-05
-7.676222e-05
-8.924234e-05
-0.0001349091
-0.001193593
-7.316737e-05
-8.135046e-05
-8.631153e-05
-8.138583e-05
-9.445636e-05
-0.0001435062
-0.001265213
-7.740971e-05
-8.564015e-05
-9.142022e-05
-8.639618e-05
-9.990437e-05
-0.0001524032
-0.001339262
-8.179897e-05
-9.031869e-05
-9.714443e-05
-9.228234e-05
-0.0001057753
-0.0001616701
-0.001415983
-8.645859e-05
-9.501866e-05
-0.0001027372
-9.990533e-05
-0.0001142343
-0.0001720495
-0.001494474
-9.11861e-05
-9.980203e-05
-0.0001058119
-0.0001130043
-0.0001115769
-0.0001819968
-0.001574995
-9.742399e-05
-0.0001067108
-0.0001143922
-0.0001262166
-0.0001245718
-0.0001908939
-0.001653819
-0.0001045432
-0.0001139179
-0.0001226037
-0.0001176801
-0.0001275382
-0.0002017923
-0.001735391
-0.0001135084
-0.0001200886
-0.0001281949
-0.0001227877
-0.0001340907
-0.0002168451
-0.001816936
-0.0001211915
-0.0001247412
-0.0001300421
-0.0001252317
-0.0001396344
-0.0002199328
-0.001889953
-0.0001437329
-0.000151147
-0.0001542578
-0.0001361905
-0.0001452988
-0.0002333262
-0.001958085
-0.0001633674
-0.0001609845
-0.0001420325
-0.0001361109
-0.0001528747
-0.0002479563
-0.002030442
-0.0001707234
-0.0001788978
-0.0001560935
-0.0001476544
-0.0001645393
-0.0002277283
-0.002057938
-0.0001904079
-0.0002020737
-0.0001709178
-0.0001619695
-0.0001809759
-0.0002702104
-0.002105802
-0.0002032482
-0.0002233472
-0.000182269
-0.0001781141
-0.0002017658
-0.0002975034
-0.002326791
-0.000216791
-0.0002365098
-0.0001862324
-0.0001945742
-0.0002249022
-0.0003259332
-0.002552358
-0.0002293805
-0.0002592898
-0.0001962171
-0.0001974687
-0.0002301158
-0.0003408557
-0.00288818
-0.0002360131
-0.0002836134
-0.0001886641
-0.0001859007
-0.0002074641
-0.0003329622
-0.0006609969
-0.0002094293
-0.0002944741
-0.0001096467
-0.0001069576
-0.0001806632
-0.000206177
-0.003268571
-0.0001486791
-0.0002824641
-4.318975e-05
-8.987801e-05
-0.0001379047
-7.996778e-05
-0.002396094
-9.304238e-05
-0.0002411006
2.351895e-05
2.321934e-05
-0.0006037237
-0.00131024
-0.003487888
8.525623e-06
-0.0001431759
-0.000504681
-0.001704611
-0.002059036
-0.002401133
-0.003137057
-0.0008902757
-0.001965009
-0.003389031
-0.002927658
-0.001570233
-0.004243799
-0.00225991
-0.003711655
-0.005145955
-0.005927004
-0.002540674
-0.003306787
-0.004312863
-0.004379791
-0.007124783
-0.007729747
-0.007690535
-0.004429934
-0.006271529
-0.006005602
-0.005842808
-0.009910658
-0.01116559
-0.008621189
-0.007819371
-0.009482434
-0.008995254
-0.00990832
-0.01370952
-0.01426855
-0.01121233
-0.008984128
-0.01247018
-0.01165371
-0.008682039
-0.01659097
-0.0168967
-0.01163061
-0.01360118
-0.01219011
-0.01416712
-0.009877214
-0.01923134
-0.01897453
-0.01436837
-0.01430462
-0.01595592
-0.01340884
-0.01214654
-0.02011009
-0.01931536
-0.01525099
-0.01723892
-0.01513684
-0.01699486
-0.01314912
-0.02128086
-0.01804824
-0.01864828
-0.01887587
-0.01667257
-0.01650283
-0.01471037
-0.02067246
-0.02121577
-0.02113215
-0.02020839
-0.01814778
-0.01650395
-0.01367535
-0.0223208
-0.02265886
-0.02225554
-0.02085076
-0.018692
-0.01624288
-0.0116981
-0.02385372
-0.02512386
-0.02324669
-0.02018959
-0.01924365
-0.01707063
-0.01082152
-0.024761
-0.02636028
-0.02357746
-0.02211921
-0.01908619
-0.01501641
-0.01106001
-0.02652217
-0.02644091
-0.02410857
-0.02197468
-0.01994431
-0.01568318
-0.004704394
-0.02746907
-0.02707399
-0.02430783
-0.0222372
-0.02062711
-0.02132404
-0.01681426
-0.02756768
-0.02696069
-0.02433231
-0.02274903
-0.02195758
-0.01867772
-0.02745618
-0.02660679
-0.02396567
-0.02242276
-0.02164969
-0.01784745
-0.02721312
-0.02616976
-0.02393739
-0.02207475
-0.01990945
-0.01502642
-0.02624068
-0.02581082
-0.02291419
-0.02158549
-0.01894086
-0.01462904
-0.002171334
-0.02480265
-0.02531431
-0.02354855
-0.02108735
-0.01903389
-0.01455013
-0.00410919
-0.02433629
-0.02474549
-0.02149273
-0.02075189
-0.0182631
-0.0151757
-0.007369511
-0.02319559
-0.02324107
-0.02165379
-0.02052799
-0.02064898
-0.01679487
-0.009573533
-0.02127042
-0.02251782
-0.02259479
-0.02050475
-0.01991812
-0.01836908
-0.01143389
-0.0202203
-0.0215755
-0.02098944
-0.02025815
-0.0192439
-0.01874058
-0.01429728
-0.01776274
-0.01925941
-0.02072763
-0.01845978
-0.01872574
-0.01690701
-0.01056065
-0.01584049
-0.01814168
-0.01803579
-0.01951251
-0.01683447
-0.01725698
-0.006328776
-0.01285361
-0.01483937
-0.0165681
-0.01600271
-0.0179394
-0.01396407
-0.006783225
-0.009281408
-0.01245828
-0.01391285
-0.01502619
-0.01468455
-0.01537157
-0.007478937
-0.00594387
-0.008559686
-0.01056492
-0.01257036
-0.01348306
-0.01256049
-0.009105566
-0.002430368
-0.004874247
-0.008716513
-0.009564247
-0.0116242
-0.0101211
-0.005563174
-0.0005128752
-0.0007319171
-0.004876323
-0.007194161
-0.007974656
-0.006889336
-0.003948314
-4.32712e-05
0.0009186652
-0.000879077
-0.004733675
-0.005201492
-0.007327451
-0.00615881
9.285663e-05
0.0001335894
0.0002399438
-0.0004549602
-0.002327992
-0.004187118
-0.003252967
-4.249908e-05
0.0001390949
7.662194e-05
-7.585292e-05
-0.000748168
-0.002335525
-0.002415971
-0.0001516035
-4.027534e-06
-7.486982e-05
-0.0001403131
-9.099488e-05
-0.0005135935
-0.002803061
-0.0002273775
-0.000158433
-0.0002012324
-0.0002359797
-0.0003018789
-0.0003999409
-0.003319558
-0.0002559661
-0.0002373116
-0.0002744033
-0.0002830072
-0.0003889386
-0.0005425832
-0.00238936
-0.0002674396
-0.0002643881
-0.000300873
-0.0003385865
-0.0003943366
-0.0005199846
-0.003136428
-0.0002673887
-0.0002706649
-0.0002982671
-0.000321991
-0.0003643112
-0.0004751536
-0.002780237
-0.0002592007
-0.0002695957
-0.0002903829
-0.0002964646
-0.0003313945
-0.0004364288
-0.002058938
-0.0002490218
-0.0002513775
-0.0002679003
-0.0002709558
-0.0003010566
-0.0004073199
-0.002595063
-0.0002276288
-0.0002436253
-0.0002454684
-0.0002460943
-0.0002731617
-0.0003937594
-0.002453337
-0.0002136633
-0.0002300549
-0.0002221639
-0.0002224933
-0.0002473012
-0.0003586134
-0.002345048
-0.0001885196
-0.0002026629
-0.0001989768
-0.0002020664
-0.0002247856
-0.0003225925
-0.002201027
-0.0001613228
-0.0001709681
-0.0001820221
-0.0001946108
-0.0002071325
-0.0002976708
-0.002073894
-0.0001470946
-0.0001598898
-0.0001725935
-0.0001840891
-0.0001900639
-0.000272952
-0.001960118
-0.0001337774
-0.0001477472
-0.0001598979
-0.0001704758
-0.0001739072
-0.0002516325
-0.00185248
-0.0001224262
-0.0001356436
-0.0001465053
-0.0001555134
-0.000158956
-0.0002314429
-0.001753333
-0.0001123078
-0.0001242296
-0.0001335272
-0.0001427232
-0.0001482098
-0.0002138026
-0.001656514
-0.0001033999
-0.0001140641
-0.0001223598
-0.0001306774
-0.0001325223
-0.0001997003
-0.001569064
-9.511666e-05
-0.000105279
-0.0001125445
-0.0001197566
-0.0001261012
-0.0001856273
-0.001482326
-8.802707e-05
-9.750321e-05
-0.0001035371
-0.0001109384
-0.000116596
-0.0001726877
-0.001400283
-8.183089e-05
-9.070236e-05
-9.607419e-05
-0.0001027087
-0.0001082203
-0.0001607736
-0.001320338
-7.623381e-05
-8.473694e-05
-8.92957e-05
-9.575656e-05
-0.000100673
-0.0001499796
-0.001246476
-7.123532e-05
-7.926832e-05
-8.322952e-05
-8.946656e-05
-9.400152e-05
-0.0001400053
-0.001177553
-6.665651e-05
-7.430138e-05
-7.786175e-05
-8.284732e-05
-8.202392e-05
-0.0001307021
-0.001108347
-6.24457e-05
-6.984749e-05
-7.27931e-05
-7.79892e-05
-8.092663e-05
-0.0001213096
-0.001042285
-5.860567e-05
-6.582232e-05
-6.842693e-05
-7.392605e-05
-7.510681e-05
-0.0001123137
-0.0009656415
-5.536714e-05
-6.237936e-05
-6.456886e-05
-6.99322e-05
-6.967178e-05
-0.00010367
-0.000940755
-5.261404e-05
-5.937979e-05
-6.118033e-05
-6.60838e-05
-6.443542e-05
-9.529581e-05
-0.0008590388
-5.032069e-05
-5.686848e-05
-5.799428e-05
-6.308826e-05
-5.953602e-05
-8.691002e-05
-0.0007896764
-4.870757e-05
-5.49145e-05
-5.536696e-05
-6.058663e-05
-5.433854e-05
-7.917143e-05
-0.0007217303
-4.794325e-05
-5.380097e-05
-5.294764e-05
-5.726511e-05
-4.974953e-05
-7.11658e-05
-0.0006559279
-4.840099e-05
-5.292885e-05
-5.133686e-05
-5.548818e-05
-4.514606e-05
-6.298447e-05
-0.0005925942
-4.965336e-05
-5.337069e-05
-5.05974e-05
-5.388187e-05
-4.074606e-05
-5.470466e-05
-0.0005318214
-5.275167e-05
-5.510927e-05
-5.050817e-05
-5.282669e-05
-3.585298e-05
-4.654077e-05
-0.0004742361
-5.781655e-05
-5.753843e-05
-5.096955e-05
-5.222894e-05
-3.29643e-05
-3.827049e-05
-0.000421239
-6.384903e-05
-6.106774e-05
-5.226063e-05
-5.155563e-05
-3.009811e-05
-3.052158e-05
-0.0003733466
-7.114664e-05
-6.52541e-05
-5.391477e-05
-5.039762e-05
-2.688785e-05
-2.352315e-05
-0.0003325319
-7.821606e-05
-6.934603e-05
-5.574495e-05
-4.953398e-05
-2.436428e-05
-1.775585e-05
-0.0003012043
-8.437103e-05
-7.296678e-05
-5.775895e-05
-4.865864e-05
-2.260574e-05
-1.366763e-05
-0.0002760598
-8.886476e-05
-7.546695e-05
-5.887478e-05
-4.66195e-05
-2.176019e-05
-1.152687e-05
-0.000276869
-0.002142529
-1.794125e-10
-9.390043e-16
-4.758012e-21
1.238938e-26
6.077708e-32
-8.482086e-39
5.427835e-45
-2.633474e-50
1.245172e-55
1.221928e-58
4.579326e-63
8.450328e-68
9.989724e-73
9.728924e-78
1.970392e-82
2.884639e-87
3.882181e-92
-0.003215222
-4.599717e-11
-2.950292e-18
-9.745544e-25
-4.528265e-31
-2.657308e-36
-2.814262e-41
-6.204119e-46
-8.644522e-51
1.179442e-54
7.611354e-59
1.64598e-63
1.693418e-68
9.525146e-74
6.405306e-79
6.188409e-84
3.461402e-89
1.8687e-94
-0.00315166
-9.601991e-11
-1.311546e-17
-3.690177e-24
-2.583511e-30
-8.132564e-36
-8.392446e-41
-2.402218e-45
-7.202779e-50
1.410845e-55
4.614505e-59
6.490205e-64
3.586741e-69
7.307528e-75
3.452478e-80
2.585613e-85
1.009811e-90
3.451307e-96
-0.003451042
-1.755858e-10
-4.000125e-17
-1.157879e-23
-9.246943e-30
-2.54267e-35
-1.944284e-40
-6.324107e-45
-1.88662e-49
-2.116115e-54
-3.235552e-60
2.762987e-65
-2.3059e-70
-8.405538e-76
6.465585e-83
9.485389e-87
2.962669e-92
3.064117e-98
-0.003804358
-2.722939e-10
-7.897703e-17
-3.249054e-23
-2.502291e-29
-7.691442e-35
-4.634657e-40
-1.187456e-44
-3.235251e-49
-5.041165e-54
-3.017556e-59
-1.267447e-64
-2.548103e-70
-2.340955e-76
-3.434849e-83
-1.697553e-88
-7.040422e-94
-5.113742e-99
-0.004232789
-4.123299e-10
-1.274045e-16
-8.85146e-23
-4.911693e-29
-2.04683e-34
-1.125989e-39
-1.358396e-45
-9.849188e-50
-4.776157e-54
-3.061762e-59
-6.649534e-65
-5.053025e-71
-2.136088e-77
-9.663624e-84
-1.580483e-89
-1.320634e-94
-5.061139e-100
-0.004742381
-5.696875e-10
-2.29334e-16
-2.233979e-22
-7.607429e-29
-4.754182e-34
-2.704713e-39
-4.784052e-44
-4.564156e-49
-3.84211e-54
-1.942712e-59
-1.910084e-65
-9.658389e-72
-3.319462e-78
-1.174348e-84
-7.646184e-90
-5.840973e-95
-8.487712e-101
-0.005318716
-1.067321e-09
-4.047386e-16
-3.976732e-22
-1.207528e-28
-9.834337e-34
-6.087719e-39
-9.192467e-44
-1.292349e-48
-7.995703e-54
-1.326368e-59
-7.342922e-66
-3.710758e-72
-1.725187e-78
-7.925375e-85
-1.735268e-89
-2.991173e-95
-1.672776e-101
-0.005949849
-1.192193e-09
-4.834731e-16
-4.86363e-22
-2.668147e-28
-1.887877e-33
-1.261277e-38
-1.651936e-43
-2.430312e-48
-9.332026e-54
-8.784262e-60
-6.264975e-66
-4.491434e-72
-2.942235e-78
-2.292718e-84
-2.668497e-89
-1.45099e-95
-5.461158e-102
-0.006644679
-9.688949e-10
-4.62432e-16
-5.673359e-22
-5.503594e-28
-3.499449e-33
-2.502804e-38
-2.230837e-43
-3.225065e-48
-9.220315e-54
-1.253496e-59
-1.368762e-65
-1.24073e-71
-9.201983e-78
-9.698235e-84
-2.441635e-89
-1.600052e-95
-7.8804e-102
-0.007396964
-8.038953e-10
-3.531265e-16
-5.714676e-22
-1.046782e-27
-6.505215e-33
-5.111243e-38
-1.790199e-43
-3.279166e-48
-7.594536e-54
-1.237698e-59
-1.842863e-65
-2.17597e-71
-1.970478e-77
-1.524561e-83
-3.198532e-89
-2.920633e-95
-1.578997e-101
-0.008198955
-7.00034e-10
-4.45282e-16
-6.660525e-22
-1.97312e-27
-1.206551e-32
-1.079474e-37
-1.012652e-42
-3.28181e-48
-5.617295e-54
-1.020768e-59
-1.538645e-65
-1.871664e-71
-1.822242e-77
8.997164e-84
6.443219e-89
-3.735508e-95
-1.891693e-101
-0.009079646
8.346315e-12
-3.50073e-15
-7.926579e-22
-3.670918e-27
-2.156707e-32
-2.173395e-37
-2.316423e-42
-4.516513e-48
-8.105364e-54
-1.161324e-59
-1.637045e-65
-1.900195e-71
-1.67155e-77
2.799413e-82
1.364603e-87
-1.183116e-95
2.187649e-101
-0.009979834
-1.603005e-09
-4.46949e-15
-1.671778e-21
-6.219667e-27
-3.683607e-32
-3.899724e-37
-4.576848e-42
-1.399908e-47
-2.753187e-53
-4.196401e-59
-5.174952e-65
-4.751599e-71
-2.659188e-77
2.537623e-81
1.37416e-86
2.366909e-94
4.556195e-100
-0.01166774
2.97498e-08
-1.946752e-15
-6.911088e-21
-9.14088e-27
-6.169329e-32
-6.162156e-37
-7.658095e-42
-3.119124e-47
-8.356754e-53
-1.49027e-58
-1.856196e-64
-1.448203e-70
-7.443526e-78
2.038464e-80
9.773415e-88
1.909531e-93
5.351378e-99
-0.01256762
-6.293452e-15
-1.915232e-15
-8.845512e-21
-1.258955e-26
-9.666236e-32
-8.643783e-37
-1.08554e-41
-6.279854e-47
-1.894926e-52
-4.247369e-58
-6.116356e-64
-4.752113e-70
2.799295e-76
1.773609e-79
-4.459336e-86
1.189292e-92
6.818636e-98
-0.01397202
-1.402797e-08
3.904857e-20
-1.135948e-20
-1.559598e-26
-1.245149e-31
-1.085666e-36
-1.335855e-41
-7.050795e-47
-3.099135e-52
-9.436565e-58
-1.778758e-63
-1.719582e-69
2.160178e-75
1.711601e-78
-2.278567e-85
6.965534e-92
7.939e-97
-0.01536018
-1.861066e-08
-5.801847e-14
1.198809e-25
-1.527556e-26
-1.252037e-31
-1.235813e-36
-1.48314e-41
-7.411971e-47
-6.175976e-52
-2.002025e-57
-5.190575e-63
-7.513094e-69
1.227975e-74
1.572636e-77
-1.962214e-85
3.677869e-91
9.2055e-96
-0.01685438
-2.543143e-08
-8.402012e-14
-2.142797e-19
9.743689e-26
-1.616931e-31
-1.199643e-36
-1.542006e-41
-7.525203e-47
-7.324408e-52
-6.282794e-57
-1.46652e-62
-3.329659e-68
8.428429e-74
1.203711e-76
4.699729e-88
2.273005e-90
1.234162e-94
-0.01845046
-3.606866e-08
-1.213675e-13
-3.456264e-19
-2.832292e-24
-2.780045e-36
-1.005404e-36
-3.787566e-43
-5.872112e-47
-6.864205e-52
-8.40793e-57
-3.699078e-62
-1.329666e-67
8.772715e-73
7.451916e-76
3.787361e-91
9.661072e-89
1.857557e-93
-0.02018431
-4.896556e-08
-1.768039e-13
-5.614048e-19
-5.16615e-24
-3.414816e-29
-1.330455e-41
4.200957e-41
-5.771188e-47
-7.108757e-52
-8.325078e-57
-1.117858e-61
-5.273346e-67
9.963154e-72
2.812887e-75
1.393308e-90
9.557359e-87
3.562064e-92
-0.02207435
-6.477261e-08
-2.532218e-13
-8.968166e-19
-9.410119e-24
-5.775024e-29
-2.792654e-34
8.189711e-41
-1.714923e-46
-9.650179e-52
-5.038088e-57
-1.356368e-61
-7.430678e-67
9.326984e-71
2.475603e-74
8.978702e-81
1.006406e-84
1.164123e-90
-0.02415154
-8.605218e-08
-3.616271e-13
-1.426602e-18
-1.698597e-23
-9.800262e-29
-5.687988e-34
-4.425709e-39
9.662472e-52
-6.758756e-52
3.116768e-58
-1.189013e-61
3.202757e-67
6.654346e-70
2.943339e-73
5.852723e-79
1.022627e-82
6.219415e-89
-0.02643549
-1.138648e-07
-5.13842e-13
-2.279921e-18
-3.046191e-23
-1.528477e-28
-9.885327e-34
-8.102718e-39
-2.374618e-44
2.370389e-51
7.122173e-56
-3.54133e-62
1.322436e-65
4.75512e-69
3.36443e-72
4.35881e-77
9.748688e-81
4.011791e-87
-0.02894962
-1.551266e-07
-7.356578e-13
-3.655376e-18
-5.488041e-23
-3.007195e-28
-1.73333e-33
-1.187339e-38
-1.867391e-44
-3.705867e-49
4.479973e-56
-7.014323e-63
3.034016e-64
1.115619e-67
5.072046e-71
3.444664e-75
8.640161e-79
2.289609e-85
-0.03172397
-2.079256e-07
-1.057998e-12
-6.562729e-18
-9.735802e-23
-1.410555e-27
-1.22461e-32
-1.154794e-37
1.568931e-43
-9.980505e-49
-8.04772e-54
-3.023147e-69
1.526274e-62
6.827989e-66
2.25123e-69
2.55034e-73
7.070446e-77
9.656284e-84
-0.03481527
-2.69821e-07
-1.525892e-12
-9.908763e-18
-1.974962e-22
-2.272675e-27
-1.925179e-32
-1.780102e-37
3.209396e-43
-2.537281e-48
-2.491552e-53
3.15694e-58
9.694169e-61
4.865724e-64
6.592616e-68
1.724976e-71
5.300953e-75
4.127754e-82
-0.03826433
-3.256646e-07
-1.728967e-12
-1.065948e-17
-7.758397e-22
-3.292588e-27
-2.87715e-32
-1.66423e-37
-7.552592e-42
-5.003559e-48
-3.098105e-53
2.779201e-56
6.090571e-59
3.359061e-62
3.751641e-66
1.072102e-69
3.611084e-73
6.198389e-80
-0.04209245
-3.277715e-07
-1.789411e-12
-9.901655e-18
-9.435382e-22
-2.673749e-27
-3.165255e-32
-4.201181e-37
-7.24854e-41
-4.343991e-48
1.416606e-51
1.608827e-54
3.538735e-57
2.156682e-60
1.896236e-64
6.107348e-68
2.21588e-71
1.992909e-77
-0.04640185
-2.488447e-07
-1.905009e-12
-1.012385e-17
-4.24605e-22
-7.786444e-27
-4.653252e-32
-6.510122e-37
-8.208712e-41
2.441459e-47
7.456104e-50
8.759195e-53
1.883098e-55
3.504892e-59
9.299998e-63
3.205506e-66
1.214742e-69
1.861884e-75
-0.05133896
-2.690679e-07
-5.668817e-12
-5.849863e-18
-4.010844e-21
-1.677521e-26
-7.202001e-32
-9.089228e-37
-4.185064e-42
1.583698e-45
3.478567e-48
4.453753e-51
9.137853e-54
1.634295e-57
3.950296e-61
1.584435e-64
5.927989e-68
2.549586e-74
-0.05679547
-9.848904e-07
-8.716006e-12
-3.563198e-18
-9.932129e-22
-2.607203e-26
-4.382845e-31
-1.282957e-36
-1.720013e-41
7.298531e-44
1.492898e-46
2.101738e-49
4.049968e-52
6.87212e-56
1.449454e-59
6.842504e-63
2.730963e-66
-1.776254e-73
-0.0627358
-1.163645e-06
-8.951883e-12
-2.534575e-17
-2.479909e-21
-4.390231e-26
-7.175379e-31
-1.728196e-36
8.560414e-40
2.687535e-42
5.814897e-45
9.080836e-48
1.608375e-50
1.953329e-54
4.474626e-58
2.580503e-61
1.075423e-64
3.85059e-71
-0.06785269
-5.065746e-06
-5.933396e-12
-2.263982e-16
-3.88829e-21
-8.414584e-26
-9.344827e-31
9.609277e-36
3.064706e-38
9.024858e-41