/*--------------------------------*- C++ -*----------------------------------*\
| =========                 |                                                 |
| \\      /  F ield         | OpenFOAM: The Open Source CFD Toolbox           |
|  \\    /   O peration     | Version:  2206                                  |
|   \\  /    A nd           | Website:  www.openfoam.com                      |
|    \\/     M anipulation  |                                                 |
\*---------------------------------------------------------------------------*/
FoamFile
{
    version     2.0;
    format      ascii;
    arch        "LSB;label=32;scalar=64";
    class       surfaceVectorField;
    location    "2.8";
    object      ddtCorrDdt0(Ufa);
}
// * * * * * * * * * * * * * * * * * * * * * * * * * * * * * * * * * * * * * //

dimensions      [0 1 -2 0 0 0 0];

internalField   nonuniform List<vector> 
26037
(
(2.195925e-05 -0.0005284956 3.347182e-22)
(-6.940549e-05 -0.0005521905 1.646344e-26)
(3.549017e-06 -0.0001090693 -8.946131e-24)
(-3.778113e-05 -0.0001323089 1.933559e-25)
(6.036208e-07 -3.81961e-05 -8.376153e-29)
(-9.691488e-06 -4.761564e-05 -8.395174e-29)
(2.687041e-07 -1.488714e-05 2.537879e-30)
(-2.18418e-06 -1.655367e-05 0)
(2.735662e-07 -1.02779e-05 -5.113268e-26)
(-3.504193e-07 -1.069875e-05 2.588202e-30)
(2.822183e-07 -8.999213e-06 6.852145e-30)
(3.527996e-08 -9.371328e-06 1.357328e-28)
(1.706316e-07 -8.463355e-06 3.619733e-30)
(2.644565e-07 -8.102478e-06 -3.523243e-26)
(-0.0001366876 -0.0001377896 1.653811e-31)
(-0.0001144085 -9.89966e-05 -9.640487e-30)
(-5.216192e-05 -7.043284e-05 1.669707e-31)
(-5.65379e-05 -6.529378e-05 1.054804e-29)
(-1.250681e-05 -2.591439e-05 0)
(-1.527171e-05 -2.629982e-05 6.734831e-30)
(-2.803532e-06 -1.236819e-05 5.06424e-32)
(-4.208304e-06 -1.243535e-05 -1.869676e-30)
(-5.921156e-07 -9.783868e-06 7.374719e-32)
(-1.200656e-06 -9.871894e-06 -1.26869e-28)
(-7.748684e-08 -8.83729e-06 6.527597e-32)
(-3.212839e-07 -8.975665e-06 2.312083e-32)
(2.440596e-08 -8.269827e-06 1.974489e-28)
(1.057827e-07 -8.052482e-06 3.946437e-30)
(-3.531547e-05 -2.494449e-05 7.980381e-31)
(-2.51136e-05 -1.336477e-05 2.881621e-24)
(-1.970778e-05 -2.102236e-05 1.72669e-29)
(-1.91222e-05 -1.739622e-05 -1.096903e-24)
(-6.876011e-06 -1.268403e-05 7.922593e-26)
(-7.482621e-06 -1.159351e-05 1.977615e-29)
(-2.601462e-06 -9.937833e-06 1.555461e-26)
(-3.192823e-06 -9.412078e-06 3.563073e-30)
(-9.298559e-07 -9.056916e-06 -3.017517e-30)
(-1.239597e-06 -8.800391e-06 -5.684803e-28)
(-2.205809e-07 -8.408829e-06 2.184637e-35)
(-3.32878e-07 -8.332603e-06 0)
(4.741512e-08 -7.895424e-06 -2.466993e-28)
(5.139518e-08 -7.81235e-06 -4.170039e-30)
(-8.737274e-06 -5.74862e-06 7.571754e-30)
(-5.269003e-06 -2.404609e-06 -7.232713e-30)
(-6.916399e-06 -7.97274e-06 2.78636e-29)
(-5.782341e-06 -5.420925e-06 -1.056613e-25)
(-3.751017e-06 -8.271095e-06 1.430321e-27)
(-3.564852e-06 -6.794229e-06 -2.788374e-26)
(-1.826566e-06 -8.262276e-06 5.326352e-30)
(-1.884943e-06 -7.420243e-06 1.686696e-26)
(-6.43899e-07 -8.0707e-06 -1.681266e-31)
(-6.704399e-07 -7.595785e-06 -2.862274e-30)
(-6.615344e-08 -7.817849e-06 -6.77656e-32)
(-1.068757e-08 -7.592253e-06 3.180968e-34)
(2.644435e-07 -7.436905e-06 -4.266587e-30)
(1.566279e-07 -7.455507e-06 4.312307e-30)
(-2.298155e-06 -2.075234e-06 9.74974e-28)
(-1.362484e-06 -9.056125e-07 -5.133295e-33)
(-2.442504e-06 -4.228035e-06 -7.688396e-28)
(-1.837376e-06 -2.715551e-06 8.093419e-30)
(-1.687683e-06 -5.935928e-06 3.019457e-29)
(-1.391369e-06 -4.709676e-06 1.56887e-29)
(-7.232635e-07 -6.73745e-06 -2.811702e-27)
(-5.30479e-07 -5.871878e-06 1.585792e-26)
(-3.664671e-08 -7.108549e-06 -2.191362e-26)
(1.458575e-07 -6.550385e-06 -1.128768e-26)
(3.180663e-07 -7.207955e-06 2.144745e-26)
(5.248703e-07 -6.909612e-06 4.234101e-30)
(6.462102e-07 -6.987416e-06 7.168948e-28)
(4.179894e-07 -7.059591e-06 -4.198813e-30)
(-9.041875e-07 -1.551337e-06 -8.424231e-32)
(-5.838099e-07 -6.872516e-07 0)
(-7.936957e-07 -3.178992e-06 1.042512e-27)
(-5.643467e-07 -2.146284e-06 1.17356e-29)
(-2.33432e-07 -4.647059e-06 -3.202559e-27)
(-8.233088e-09 -3.686235e-06 1.382768e-29)
(3.404277e-07 -5.676903e-06 3.164263e-27)
(6.170741e-07 -4.909015e-06 1.206013e-29)
(7.110302e-07 -6.341003e-06 3.786163e-30)
(1.033985e-06 -5.795329e-06 3.806847e-26)
(8.534059e-07 -6.682172e-06 -2.603377e-26)
(1.193432e-06 -6.368299e-06 3.695721e-30)
(1.150584e-06 -6.612188e-06 9.818997e-30)
(8.086118e-07 -6.697008e-06 -2.792782e-26)
(-2.463644e-07 -1.287832e-06 1.181368e-29)
(-2.998524e-07 -5.966064e-07 -2.277047e-29)
(2.169916e-07 -2.641274e-06 2.550901e-29)
(1.73674e-07 -1.853342e-06 3.293098e-26)
(8.418519e-07 -3.943016e-06 -2.069416e-26)
(9.700969e-07 -3.176765e-06 7.893959e-26)
(1.308114e-06 -5.025483e-06 1.234057e-29)
(1.597721e-06 -4.364263e-06 3.312153e-30)
(1.515821e-06 -5.815973e-06 3.323757e-27)
(1.920835e-06 -5.32991e-06 3.150537e-29)
(1.493138e-06 -6.29022e-06 -6.056956e-31)
(1.947129e-06 -6.004867e-06 -1.281985e-30)
(1.75348e-06 -6.342592e-06 -7.525695e-31)
(1.301217e-06 -6.411195e-06 1.941488e-31)
(1.162993e-07 -1.169856e-06 -8.886083e-30)
(-1.83293e-07 -5.632753e-07 -1.027097e-25)
(9.178562e-07 -2.383007e-06 2.715033e-29)
(6.621639e-07 -1.726326e-06 -1.855228e-29)
(1.71531e-06 -3.588311e-06 1.339263e-29)
(1.732839e-06 -2.949754e-06 -2.672522e-30)
(2.20901e-06 -4.671049e-06 2.265988e-29)
(2.486438e-06 -4.102542e-06 -5.326515e-31)
(2.348405e-06 -5.514436e-06 2.181342e-29)
(2.80504e-06 -5.095115e-06 9.073696e-26)
(2.206971e-06 -6.051165e-06 3.458771e-27)
(2.751456e-06 -5.820119e-06 -1.43923e-30)
(2.43589e-06 -6.200035e-06 -7.577728e-31)
(1.876382e-06 -6.224721e-06 5.696878e-30)
(3.565975e-07 -1.129533e-06 -3.243251e-29)
(-1.292167e-07 -5.599998e-07 1.014825e-25)
(1.471483e-06 -2.288561e-06 -4.837192e-29)
(1.035425e-06 -1.697166e-06 -1.384509e-25)
(2.491388e-06 -3.449254e-06 2.600099e-27)
(2.405821e-06 -2.887455e-06 -7.632597e-26)
(3.079274e-06 -4.529215e-06 5.19944e-29)
(3.330016e-06 -4.028373e-06 3.342466e-29)
(3.203712e-06 -5.396467e-06 3.487602e-27)
(3.697503e-06 -5.03833e-06 1.16546e-25)
(2.976463e-06 -5.96343e-06 -7.622611e-31)
(3.597202e-06 -5.792372e-06 -7.620261e-31)
(3.175804e-06 -6.191605e-06 0)
(2.518039e-06 -6.15263e-06 -8.133672e-30)
(5.435919e-07 -1.137463e-06 -6.737282e-30)
(-1.019948e-07 -5.762891e-07 3.1045e-29)
(1.961697e-06 -2.292324e-06 -5.589542e-29)
(1.360277e-06 -1.730841e-06 -3.780032e-29)
(3.227918e-06 -3.450222e-06 1.530199e-29)
(3.040529e-06 -2.931781e-06 -6.003983e-29)
(3.945434e-06 -4.540149e-06 3.372314e-29)
(4.16757e-06 -4.087982e-06 1.433622e-25)
(4.085849e-06 -5.42946e-06 2.019107e-32)
(4.610715e-06 -5.123349e-06 -1.177186e-25)
(3.792192e-06 -6.014096e-06 0)
(4.48473e-06 -5.902782e-06 0)
(3.966829e-06 -6.311537e-06 0)
(3.21585e-06 -6.202933e-06 -1.161355e-29)
(7.075085e-07 -1.180239e-06 0)
(-9.065751e-08 -6.07933e-07 0)
(2.43046e-06 -2.366329e-06 -4.192721e-29)
(1.668478e-06 -1.812156e-06 5.076276e-29)
(3.960405e-06 -3.552528e-06 -3.439914e-30)
(3.673992e-06 -3.056214e-06 -1.662899e-25)
(4.829825e-06 -4.673456e-06 3.912567e-29)
(5.023451e-06 -4.253581e-06 -5.416765e-30)
(5.003661e-06 -5.591134e-06 -2.377362e-32)
(5.561084e-06 -5.329536e-06 1.568756e-25)
(4.653912e-06 -6.193024e-06 0)
(5.418688e-06 -6.139576e-06 0)
(4.80889e-06 -6.554773e-06 -3.386761e-29)
(3.963393e-06 -6.372946e-06 1.105524e-29)
(8.619878e-07 -1.251545e-06 5.074165e-29)
(-9.045664e-08 -6.529889e-07 0)
(2.902045e-06 -2.497723e-06 2.273147e-30)
(1.976625e-06 -1.934174e-06 2.018381e-25)
(4.713718e-06 -3.739107e-06 -9.347281e-29)
(4.329183e-06 -3.249289e-06 -4.793081e-29)
(5.751228e-06 -4.911919e-06 -4.400518e-27)
(5.919462e-06 -4.512442e-06 -1.861668e-25)
(5.968935e-06 -5.871463e-06 4.23063e-29)
(6.562498e-06 -5.646828e-06 9.011388e-29)
(5.567558e-06 -6.493506e-06 -3.385595e-29)
(6.41028e-06 -6.496852e-06 -4.230593e-29)
(5.708111e-06 -6.91902e-06 -1.374132e-25)
(4.762022e-06 -6.660097e-06 1.203977e-26)
(1.014789e-06 -1.3489e-06 5.894657e-29)
(-9.912762e-08 -7.109367e-07 5.531431e-29)
(3.392152e-06 -2.680939e-06 -2.734051e-27)
(2.296103e-06 -2.09482e-06 5.895622e-29)
(5.506911e-06 -4.003062e-06 -5.144707e-29)
(5.023237e-06 -3.507476e-06 1.348274e-30)
(6.727049e-06 -5.249414e-06 -4.135851e-30)
(6.873858e-06 -4.860106e-06 -5.171573e-29)
(6.995777e-06 -6.264939e-06 5.425831e-30)
(7.630818e-06 -6.070629e-06 2.086223e-25)
(6.543833e-06 -6.913624e-06 -4.23447e-29)
(7.472671e-06 -6.972886e-06 -1.779137e-25)
(6.67478e-06 -7.405344e-06 1.585104e-25)
(5.618315e-06 -7.064457e-06 -3.818812e-32)
(1.171309e-06 -1.471986e-06 5.532498e-29)
(-1.155152e-07 -7.823287e-07 2.202612e-25)
(3.913736e-06 -2.915967e-06 7.159468e-31)
(2.635389e-06 -2.295338e-06 0)
(6.35781e-06 -4.34324e-06 -3.918568e-27)
(5.774396e-06 -3.832288e-06 2.339973e-30)
(7.773486e-06 -5.683252e-06 1.122639e-28)
(7.906318e-06 -5.29452e-06 -8.404705e-29)
(8.098383e-06 -6.770378e-06 6.142995e-29)
(8.781148e-06 -6.596151e-06 2.782281e-25)
(7.595579e-06 -7.454804e-06 -6.878958e-30)
(8.62076e-06 -7.569085e-06 -4.887766e-29)
(7.722112e-06 -8.01825e-06 -6.443529e-30)
(6.542331e-06 -7.589158e-06 1.104578e-29)
(1.336131e-06 -1.622773e-06 6.36072e-29)
(-1.395031e-07 -8.684047e-07 6.357789e-29)
(4.481063e-06 -3.205963e-06 1.62219e-30)
(3.002241e-06 -2.538829e-06 8.902208e-29)
(7.291483e-06 -4.764418e-06 -7.029372e-27)
(6.599467e-06 -4.229181e-06 1.622604e-30)
(8.907065e-06 -6.203574e-06 8.793818e-26)
(9.047621e-06 -5.827491e-06 -2.270348e-25)
(9.294232e-06 -7.389338e-06 4.221024e-29)
(1.004978e-05 -7.23796e-06 3.923176e-29)
(8.737881e-06 -8.121676e-06 -4.844909e-29)
(9.877648e-06 -8.295895e-06 -3.740024e-30)
(8.868363e-06 -8.767673e-06 -2.067086e-25)
(7.547289e-06 -8.240477e-06 -8.838518e-29)
(1.512524e-06 -1.803778e-06 8.897909e-29)
(-1.713869e-07 -9.706418e-07 0)
(5.104805e-06 -3.555884e-06 8.904004e-29)
(3.402276e-06 -2.828997e-06 3.478781e-25)
(8.329428e-06 -5.277588e-06 -8.238923e-29)
(7.508693e-06 -4.703259e-06 1.048749e-30)
(1.016492e-05 -6.838199e-06 1.243005e-26)
(1.03073e-05 -6.467798e-06 -8.103525e-29)
(1.061832e-05 -8.141323e-06 -6.958201e-30)
(1.145389e-05 -8.013253e-06 -3.21259e-30)
(9.996744e-06 -8.929559e-06 1.773003e-26)
(1.127054e-05 -9.171267e-06 -3.738399e-30)
(1.013581e-05 -9.670162e-06 -6.007404e-29)
(8.651738e-06 -9.03137e-06 -6.467949e-29)
(1.702285e-06 -2.017731e-06 2.040962e-28)
(-2.114077e-07 -1.091044e-06 9.577746e-29)
(5.788534e-06 -3.969576e-06 2.052845e-28)
(3.841845e-06 -3.171385e-06 3.945504e-25)
(9.467127e-06 -5.883484e-06 -5.569543e-27)
(8.513511e-06 -5.262786e-06 3.434107e-30)
(1.156402e-05 -7.609621e-06 1.463409e-30)
(1.170625e-05 -7.228891e-06 3.078153e-30)
(1.209038e-05 -9.043191e-06 0)
(1.301906e-05 -8.940543e-06 0)
(1.139639e-05 -9.898007e-06 0)
(1.282367e-05 -1.021507e-05 9.070095e-29)
(1.154926e-05 -1.074816e-05 1.088759e-29)
(9.877394e-06 -9.980827e-06 5.2183e-30)
(1.909891e-06 -2.269501e-06 -8.249545e-27)
(-2.592559e-07 -1.232502e-06 3.656857e-25)
(6.546835e-06 -4.456935e-06 -5.124927e-27)
(4.330618e-06 -3.574662e-06 2.515355e-28)
(1.07312e-05 -6.597271e-06 -6.290567e-27)
(9.635765e-06 -5.92228e-06 6.447222e-30)
(1.312366e-05 -8.521942e-06 1.66389e-30)
(1.327155e-05 -8.126458e-06 5.357988e-30)
(1.373455e-05 -1.011281e-05 9.175534e-29)
(1.47733e-05 -1.003669e-05 0)
(1.296143e-05 -1.10495e-05 -2.276738e-26)
(1.456085e-05 -1.144842e-05 3.735366e-25)
(1.313541e-05 -1.202942e-05 1.707695e-29)
(1.124969e-05 -1.111555e-05 -2.465129e-26)
(2.140763e-06 -2.565797e-06 -9.357621e-27)
(-3.145575e-07 -1.398843e-06 2.350103e-28)
(7.39684e-06 -5.031358e-06 -5.778061e-27)
(4.879494e-06 -4.049823e-06 5.048511e-25)
(1.21517e-05 -7.439129e-06 -1.420614e-26)
(1.09005e-05 -6.699983e-06 1.501914e-28)
(1.487834e-05 -9.598468e-06 3.780219e-30)
(1.50427e-05 -9.186115e-06 3.719732e-30)
(1.557968e-05 -1.137325e-05 1.000341e-28)
(1.676019e-05 -1.132385e-05 -4.091454e-29)
(1.471698e-05 -1.24104e-05 1.049934e-28)
(1.651349e-05 -1.288827e-05 3.847363e-29)
(1.492244e-05 -1.354252e-05 -7.902265e-30)
(1.279716e-05 -1.2469e-05 -2.766276e-26)
(2.400743e-06 -2.914789e-06 4.313598e-28)
(-3.771436e-07 -1.5945e-06 4.629902e-25)
(8.357429e-06 -5.708759e-06 4.521784e-28)
(5.499781e-06 -4.60915e-06 5.652181e-25)
(1.376444e-05 -8.433808e-06 1.46237e-28)
(1.233222e-05 -7.615673e-06 5.397262e-25)
(1.68832e-05 -1.087288e-05 -4.054365e-29)
(1.70572e-05 -1.043715e-05 1.520605e-28)
(1.768057e-05 -1.283393e-05 1.857822e-25)
(1.904805e-05 -1.285345e-05 -4.673233e-29)
(1.669573e-05 -1.400632e-05 7.109858e-26)
(1.875e-05 -1.45867e-05 6.909904e-29)
(1.694782e-05 -1.532156e-05 -1.186199e-28)
(1.454957e-05 -1.40745e-05 -1.409239e-29)
(2.695611e-06 -3.324993e-06 1.281288e-26)
(-4.468074e-07 -1.823852e-06 1.433748e-28)
(9.445842e-06 -6.505079e-06 8.237759e-27)
(6.202353e-06 -5.264267e-06 6.382007e-25)
(1.559694e-05 -9.604554e-06 4.841737e-28)
(1.39506e-05 -8.685183e-06 6.15538e-25)
(1.918094e-05 -1.238421e-05 2.042839e-26)
(1.933194e-05 -1.189287e-05 5.865456e-25)
(2.009069e-05 -1.455972e-05 1.216665e-28)
(2.161851e-05 -1.462439e-05 -5.991482e-30)
(1.89554e-05 -1.58836e-05 2.217741e-29)
(2.126815e-05 -1.655174e-05 4.906141e-25)
(1.923303e-05 -1.737703e-05 -4.59795e-25)
(1.654543e-05 -1.596632e-05 -3.608012e-26)
(3.030271e-06 -3.803945e-06 1.981749e-28)
(-5.239515e-07 -2.091036e-06 -1.863129e-28)
(1.06745e-05 -7.431981e-06 8.814995e-27)
(6.997049e-06 -6.025699e-06 1.982038e-28)
(1.765458e-05 -1.09577e-05 5.464857e-28)
(1.57735e-05 -9.920889e-06 1.885568e-28)
(2.173767e-05 -1.411127e-05 3.585289e-28)
(2.188022e-05 -1.355856e-05 6.629459e-25)
(2.277715e-05 -1.655626e-05 1.462808e-28)
(2.448388e-05 -1.663555e-05 -1.969431e-28)
(2.149005e-05 -1.803135e-05 1.467751e-28)
(2.407109e-05 -1.876683e-05 1.493806e-28)
(2.174963e-05 -1.965197e-05 5.734383e-25)
(1.87822e-05 -1.812204e-05 8.772025e-29)
(3.409322e-06 -4.358849e-06 -1.863466e-28)
(-6.098815e-07 -2.399932e-06 -6.581578e-25)
(1.205915e-05 -8.50077e-06 0)
(7.893021e-06 -6.902785e-06 0)
(1.996408e-05 -1.25041e-05 -5.941494e-30)
(1.782128e-05 -1.133311e-05 0)
(2.459136e-05 -1.605923e-05 2.672777e-26)
(2.472989e-05 -1.543879e-05 -7.520677e-25)
(2.575811e-05 -1.877846e-05 -2.009892e-28)
(2.767068e-05 -1.886861e-05 -7.256531e-25)
(2.426779e-05 -2.037413e-05 1.51102e-28)
(2.7168e-05 -2.116455e-05 1.974891e-28)
(2.443899e-05 -2.201659e-05 1.501225e-28)
(2.119068e-05 -2.042345e-05 2.954013e-28)
(3.836226e-06 -4.995844e-06 -4.244577e-28)
(-7.066508e-07 -2.75417e-06 -7.336498e-25)
(1.361368e-05 -9.719728e-06 0)
(8.898053e-06 -7.903537e-06 -1.733266e-30)
(2.254748e-05 -1.424831e-05 -2.25924e-28)
(2.011044e-05 -1.292836e-05 -2.846043e-28)
(2.776983e-05 -1.822349e-05 -2.869415e-26)
(2.789666e-05 -1.75306e-05 -2.337275e-28)
(2.906073e-05 -2.119628e-05 -2.333777e-28)
(3.118507e-05 -2.130607e-05 -7.250473e-25)
(2.730825e-05 -2.279572e-05 1.987275e-28)
(3.058341e-05 -2.372954e-05 4.927446e-25)
(2.726149e-05 -2.438921e-05 0)
(2.365814e-05 -2.268839e-05 -1.442368e-28)
(4.31317e-06 -5.720466e-06 -2.431956e-28)
(-8.169545e-07 -3.157589e-06 -2.41319e-28)
(1.534843e-05 -1.109502e-05 1.129924e-26)
(1.001884e-05 -9.036503e-06 3.331153e-28)
(2.541571e-05 -1.618899e-05 -2.924197e-28)
(2.265435e-05 -1.471295e-05 -9.745693e-25)
(3.127081e-05 -2.058633e-05 3.444177e-26)
(3.138389e-05 -1.982466e-05 -7.766605e-30)
(3.266635e-05 -2.378401e-05 2.129328e-28)
(3.498729e-05 -2.389796e-05 9.038385e-25)
(3.053968e-05 -2.52664e-05 2.289708e-28)
(3.41367e-05 -2.632666e-05 1.708992e-28)
(3.004042e-05 -2.662643e-05 -3.078717e-29)
(2.610757e-05 -2.484235e-05 -1.376301e-28)
(4.841913e-06 -6.539698e-06 3.346337e-28)
(-9.432053e-07 -3.615536e-06 3.11317e-28)
(1.727283e-05 -1.263545e-05 1.453001e-29)
(1.126358e-05 -1.031584e-05 1.11352e-24)
(2.857289e-05 -1.832468e-05 -3.206573e-28)
(2.547176e-05 -1.670519e-05 -6.843766e-28)
(3.505405e-05 -2.310779e-05 2.57429e-28)
(3.520585e-05 -2.233368e-05 0)
(3.641667e-05 -2.640507e-05 8.323045e-26)
(3.905868e-05 -2.663453e-05 2.82141e-28)
(3.370079e-05 -2.763991e-05 1.091025e-25)
(3.777042e-05 -2.892823e-05 -5.231986e-29)
(3.269914e-05 -2.871053e-05 -6.55631e-29)
(2.834868e-05 -2.67089e-05 3.71994e-30)
(5.426434e-06 -7.466157e-06 6.914794e-28)
(-1.087046e-06 -4.135426e-06 9.775265e-25)
(1.940472e-05 -1.436474e-05 1.672489e-29)
(1.264181e-05 -1.176498e-05 8.113874e-28)
(3.204932e-05 -2.068815e-05 -3.640203e-28)
(2.859586e-05 -1.894666e-05 -1.20173e-24)
(3.915876e-05 -2.582965e-05 2.465271e-29)
(3.941655e-05 -2.512023e-05 0)
(4.036727e-05 -2.912092e-05 -9.088438e-26)
(4.347754e-05 -2.960934e-05 2.465623e-29)
(3.685744e-05 -2.996377e-05 1.151806e-25)
(4.160906e-05 -3.167371e-05 3.310099e-28)
(3.542745e-05 -3.087907e-05 -3.787521e-29)
(3.036254e-05 -2.840329e-05 -2.551249e-28)
(6.068263e-06 -8.51708e-06 7.838362e-28)
(-1.248489e-06 -4.726668e-06 7.524665e-28)
(2.17705e-05 -1.632481e-05 1.813988e-29)
(1.416345e-05 -1.341636e-05 1.388908e-24)
(3.590151e-05 -2.33506e-05 -4.133604e-28)
(3.207016e-05 -2.150002e-05 -4.130366e-28)
(4.367751e-05 -2.886701e-05 0)
(4.410018e-05 -2.82903e-05 -4.176532e-28)
(4.4668e-05 -3.212567e-05 3.303999e-28)
(4.837875e-05 -3.29947e-05 3.107641e-29)
(4.02646e-05 -3.257514e-05 3.337375e-28)
(4.586827e-05 -3.485351e-05 1.004584e-24)
(3.865452e-05 -3.370901e-05 -3.180583e-25)
(3.271841e-05 -3.064057e-05 -7.045894e-25)
(6.772236e-06 -9.715811e-06 6.736355e-26)
(-1.430768e-06 -5.388379e-06 1.055914e-24)
(2.439826e-05 -1.856888e-05 4.91725e-28)
(1.580267e-05 -1.528819e-05 4.92949e-28)
(4.0201e-05 -2.640946e-05 -4.173115e-28)
(3.592772e-05 -2.443009e-05 5.403086e-28)
(4.873841e-05 -3.238211e-05 -9.734809e-26)
(4.934579e-05 -3.196206e-05 -1.457792e-24)
(4.95259e-05 -3.568074e-05 7.448026e-28)
(5.391021e-05 -3.696997e-05 4.982209e-28)
(4.427695e-05 -3.593931e-05 1.388635e-25)
(5.072962e-05 -3.866374e-05 1.481048e-24)
(4.23559e-05 -3.712821e-05 1.547267e-24)
(3.613881e-05 -3.444071e-05 6.497405e-25)
(7.469844e-06 -1.103823e-05 4.523196e-28)
(-1.622922e-06 -6.123612e-06 4.482016e-28)
(2.728926e-05 -2.113896e-05 5.416552e-28)
(1.760434e-05 -1.740992e-05 0)
(4.499962e-05 -2.995218e-05 -4.378554e-26)
(4.019333e-05 -2.778706e-05 1.690524e-24)
(5.444516e-05 -3.651167e-05 -2.151002e-29)
(5.521058e-05 -3.623183e-05 -4.878036e-28)
(5.504498e-05 -3.990863e-05 1.321459e-27)
(6.018464e-05 -4.169949e-05 1.601722e-24)
(4.875949e-05 -3.980599e-05 1.240724e-27)
(5.634301e-05 -4.333191e-05 1.663704e-24)
(4.665847e-05 -4.135507e-05 -5.34424e-29)
(3.919162e-05 -3.775951e-05 9.970872e-28)
(8.280227e-06 -1.252394e-05 0)
(-1.803946e-06 -6.953285e-06 5.67787e-28)
(3.0495e-05 -2.406308e-05 1.206187e-27)
(1.962336e-05 -1.977079e-05 -6.968808e-28)
(5.033103e-05 -3.40378e-05 1.201666e-27)
(4.47938e-05 -3.15434e-05 1.979329e-24)
(6.087042e-05 -4.138036e-05 1.060256e-27)
(6.165924e-05 -4.112154e-05 0)
(6.140619e-05 -4.507918e-05 1.548189e-27)
(6.723741e-05 -4.727547e-05 1.760441e-24)
(5.418162e-05 -4.484051e-05 5.08112e-29)
(6.283718e-05 -4.908286e-05 4.868192e-28)
(5.192768e-05 -4.693987e-05 -1.531089e-24)
(4.344804e-05 -4.258171e-05 -4.440897e-28)
(9.27828e-06 -1.423191e-05 2.008725e-25)
(-1.988106e-06 -7.8865e-06 1.288336e-24)
(3.381458e-05 -2.722759e-05 -1.376004e-27)
(2.19106e-05 -2.238275e-05 -1.40045e-24)
(5.609417e-05 -3.863515e-05 -6.74431e-28)
(4.981796e-05 -3.567115e-05 -3.141422e-24)
(6.794081e-05 -4.697863e-05 6.026044e-28)
(6.858448e-05 -4.653882e-05 -1.491309e-27)
(6.858605e-05 -5.123514e-05 6.024621e-28)
(7.496918e-05 -5.363324e-05 1.238003e-27)
(6.051461e-05 -5.113341e-05 -3.815735e-28)
(7.011707e-05 -5.586289e-05 -5.67299e-29)
(5.801721e-05 -5.379586e-05 -3.16001e-28)
(4.865846e-05 -4.89492e-05 -5.21012e-25)
(1.046627e-05 -1.612706e-05 -1.495362e-28)
(-2.187895e-06 -8.893991e-06 6.323285e-28)
(3.760079e-05 -3.070172e-05 -3.073453e-27)
(2.450842e-05 -2.523286e-05 -7.889721e-28)
(6.222087e-05 -4.35635e-05 -3.812846e-27)
(5.547356e-05 -4.018934e-05 -1.261847e-24)
(7.556977e-05 -5.320298e-05 1.782193e-25)
(7.620012e-05 -5.248966e-05 -4.140816e-24)
(7.640371e-05 -5.821846e-05 5.789203e-28)
(8.324913e-05 -6.063428e-05 2.51294e-24)
(6.752858e-05 -5.847326e-05 1.43238e-25)
(7.792257e-05 -6.34587e-05 -1.816466e-28)
(6.456576e-05 -6.162245e-05 -2.253972e-28)
(5.461571e-05 -5.664912e-05 -5.971857e-25)
(1.175425e-05 -1.814962e-05 -1.100335e-25)
(-2.446265e-06 -9.942396e-06 8.519161e-32)
(4.208987e-05 -3.459959e-05 -8.87112e-28)
(2.731174e-05 -2.826059e-05 3.488329e-31)
(6.903779e-05 -4.889711e-05 3.610736e-26)
(6.168638e-05 -4.500431e-05 -1.808643e-27)
(8.383897e-05 -5.996545e-05 -1.340199e-25)
(8.444006e-05 -5.876844e-05 -2.196497e-27)
(8.464768e-05 -6.583171e-05 7.567052e-28)
(9.184489e-05 -6.803483e-05 1.4243e-27)
(7.485267e-05 -6.655772e-05 2.715418e-25)
(8.58433e-05 -7.159111e-05 -8.093023e-28)
(7.114171e-05 -7.012622e-05 -2.905334e-28)
(6.071975e-05 -6.513414e-05 5.897673e-25)
(1.301503e-05 -2.022204e-05 1.208714e-25)
(-2.792524e-06 -1.099627e-05 1.202993e-30)
(4.675034e-05 -3.8625e-05 -9.174839e-28)
(3.012989e-05 -3.133638e-05 4.697693e-30)
(7.660736e-05 -5.464195e-05 3.920996e-26)
(6.828459e-05 -5.003331e-05 -1.6747e-24)
(9.242879e-05 -6.691286e-05 -1.67864e-25)
(9.34151e-05 -6.546303e-05 -1.414163e-24)
(9.290381e-05 -7.382323e-05 -2.993927e-25)
(0.0001010065 -7.585116e-05 -1.044967e-27)
(8.198806e-05 -7.510825e-05 -6.839445e-28)
(9.363659e-05 -8.008672e-05 -4.477842e-24)
(7.732563e-05 -7.9134e-05 0)
(6.657898e-05 -7.420381e-05 4.178739e-29)
(1.422928e-05 -2.229357e-05 0)
(-3.249489e-06 -1.202111e-05 2.678809e-30)
(5.153728e-05 -4.271587e-05 -1.060477e-27)
(3.285721e-05 -3.437173e-05 -1.016798e-29)
(8.474291e-05 -6.069513e-05 -2.187864e-27)
(7.491489e-05 -5.509359e-05 -1.095715e-27)
(0.0001017662 -7.426017e-05 -2.106861e-25)
(0.0001026324 -7.237299e-05 -1.124035e-27)
(0.0001016336 -8.217383e-05 -1.338843e-25)
(0.000110828 -8.424602e-05 -1.202952e-24)
(8.86828e-05 -8.408841e-05 -1.496518e-27)
(0.000101576 -8.930763e-05 -1.350496e-27)
(8.287961e-05 -8.880723e-05 3.811748e-28)
(7.179703e-05 -8.377482e-05 7.150227e-28)
(1.528824e-05 -2.429507e-05 2.777632e-25)
(-3.862031e-06 -1.29889e-05 1.069762e-27)
(5.61183e-05 -4.672842e-05 1.050219e-26)
(3.529579e-05 -3.728754e-05 -2.106146e-29)
(9.26611e-05 -6.674372e-05 -3.497863e-29)
(8.115787e-05 -6.003439e-05 1.272069e-27)
(0.0001114536 -8.2194e-05 -2.23296e-27)
(0.0001115076 -7.935543e-05 0)
(0.0001107616 -9.120545e-05 -2.157164e-27)
(0.0001203872 -9.300472e-05 -2.701713e-24)
(9.517505e-05 -9.395483e-05 3.60783e-26)
(0.0001094577 -9.924557e-05 -1.793632e-29)
(8.791978e-05 -9.965365e-05 2.281291e-27)
(7.630571e-05 -9.43089e-05 -8.909272e-25)
(1.606371e-05 -2.619066e-05 -2.977562e-25)
(-4.687158e-06 -1.388214e-05 4.565851e-25)
(6.022523e-05 -5.058142e-05 1.294327e-27)
(3.719613e-05 -4.00435e-05 1.443114e-27)
(9.988254e-05 -7.264502e-05 1.307431e-27)
(8.665395e-05 -6.481281e-05 1.273786e-24)
(0.000120294 -9.015969e-05 -1.377868e-27)
(0.0001194349 -8.632799e-05 1.037524e-28)
(0.0001193018 -0.0001009645 -4.708009e-25)
(0.0001291084 -0.000102323 -1.104531e-27)
(0.0001019238 -0.0001051282 2.445371e-24)
(0.0001176125 -0.0001109582 -1.048153e-24)
(9.31445e-05 -0.0001130673 2.80003e-27)
(8.036737e-05 -0.0001068307 -2.606791e-24)
(1.636273e-05 -2.795199e-05 -3.270188e-25)
(-5.782627e-06 -1.466811e-05 1.169868e-27)
(6.354542e-05 -5.428072e-05 2.896521e-27)
(3.815874e-05 -4.259872e-05 4.582498e-25)
(0.0001061088 -7.851091e-05 1.547287e-27)
(9.089332e-05 -6.948106e-05 -1.429985e-28)
(0.00012815 -9.851131e-05 2.775581e-25)
(0.0001259117 -9.346261e-05 5.111608e-29)
(0.0001274407 -0.0001121621 3.49801e-25)
(0.0001364204 -0.0001123935 1.951941e-27)
(0.0001091944 -0.0001187495 8.85609e-25)
(0.0001248187 -0.0001243324 -6.677185e-28)
(9.886007e-05 -0.0001295302 8.860012e-28)
(8.527068e-05 -0.0001230142 -8.190228e-25)
(1.581173e-05 -2.94616e-05 -1.570902e-27)
(-7.076664e-06 -1.53715e-05 -1.36432e-27)
(6.552808e-05 -5.786609e-05 1.013471e-25)
(3.807003e-05 -4.503765e-05 2.517947e-24)
(0.0001106333 -8.447622e-05 -1.406174e-25)
(9.314272e-05 -7.41385e-05 -2.475653e-25)
(0.0001340895 -0.0001073948 1.623324e-27)
(0.0001300781 -0.0001010603 -3.496752e-27)
(0.0001337098 -0.0001246108 6.625845e-25)
(0.0001413553 -0.0001236294 1.170528e-24)
(0.00011527 -0.0001351381 1.829977e-28)
(0.0001300608 -0.0001400688 -1.3413e-27)
(0.0001054106 -0.000150816 2.107327e-26)
(9.182419e-05 -0.0001434175 8.663737e-26)
(1.485864e-05 -3.098968e-05 -4.754044e-27)
(-8.503975e-06 -1.616776e-05 1.918437e-24)
(6.556537e-05 -6.131061e-05 8.534381e-25)
(3.728779e-05 -4.771169e-05 -3.376891e-27)
(0.0001126821 -9.090038e-05 -5.089373e-27)
(9.350153e-05 -7.925403e-05 -1.633325e-27)
(0.0001372923 -0.0001173864 -1.602628e-27)
(0.0001311928 -0.0001095704 -2.809271e-25)
(0.0001376595 -0.0001391694 7.024833e-25)
(0.0001431508 -0.0001366752 -1.923772e-27)
(0.0001205171 -0.0001554965 1.897375e-26)
(0.0001329414 -0.0001585325 2.559856e-25)
(9.54801e-05 -0.0001767069 -9.412714e-21)
(9.62196e-05 -0.0003166161 -2.525683e-20)
(1.376647e-05 -3.299677e-05 3.795587e-25)
(-1.018964e-05 -1.7233e-05 8.481867e-29)
(6.475067e-05 -6.54108e-05 9.300294e-30)
(3.591194e-05 -5.118701e-05 -5.328845e-30)
(0.0001120295 -9.805766e-05 -4.510781e-29)
(9.269988e-05 -8.568102e-05 -2.759299e-29)
(0.0001370812 -0.0001291852 -3.855901e-27)
(0.0001299433 -0.0001199719 -7.026643e-24)
(0.0001384066 -0.0001562208 6.20422e-27)
(0.0001416792 -0.0001520232 4.114334e-24)
(0.0001180504 -0.0004999152 1.337517e-19)
(9.666362e-05 -0.0001825878 2.976852e-21)
(-0.0001148635 -0.0002208785 9.04887e-20)
(6.086956e-05 -0.002093793 -7.40116e-19)
(1.203568e-05 -3.564419e-05 1.514347e-27)
(-1.219144e-05 -1.869201e-05 -4.432554e-24)
(6.358354e-05 -7.124404e-05 -2.830294e-25)
(3.34424e-05 -5.600167e-05 -1.446091e-29)
(0.000110319 -0.0001072771 4.215542e-27)
(9.074652e-05 -9.431366e-05 -6.673706e-29)
(0.0001346547 -0.0001431676 5.860184e-24)
(0.0001278892 -0.0001332729 -1.093147e-27)
(0.0001286876 -0.0005089239 -9.158858e-20)
(8.245727e-05 -0.0001783219 2.11865e-20)
(7.66155e-05 -0.002523117 7.087328e-20)
(-0.0001629683 -0.0002305056 1.16733e-20)
(-0.0006988285 -0.0003020333 -3.216937e-19)
(-4.365066e-05 -0.006834739 8.154062e-19)
(9.369807e-06 -3.925193e-05 1.59548e-27)
(-1.435942e-05 -2.06973e-05 1.595697e-27)
(6.074764e-05 -7.908543e-05 -3.943478e-29)
(2.952808e-05 -6.249074e-05 -1.056115e-29)
(0.0001082038 -0.0001199953 -1.358919e-24)
(8.702047e-05 -0.0001058465 -5.338203e-26)
(0.0001274658 -0.0004112358 1.707794e-20)
(9.815607e-05 -0.0001516525 -2.29794e-21)
(-1.397072e-05 -0.002299941 7.597982e-19)
(-9.798926e-05 -0.0002110838 1.338983e-19)
(-9.403201e-05 -0.007042453 -5.289155e-18)
(-0.001096939 -0.0004222359 1.65134e-18)
(-0.001710852 -0.0004424932 -3.694383e-18)
(-0.0003233908 -0.0142349 8.342174e-18)
(5.909583e-06 -4.399619e-05 -1.054023e-29)
(-1.61774e-05 -2.334046e-05 0)
(5.614919e-05 -8.939481e-05 -7.079674e-25)
(2.505084e-05 -7.097044e-05 -2.97825e-26)
(0.0001030113 -0.0002534609 3.276315e-21)
(6.827659e-05 -0.0001210089 1.160831e-20)
(0.0001010237 -0.00197968 6.318602e-20)
(-6.962239e-05 -0.000184069 -1.856614e-19)
(-4.917463e-05 -0.006449947 -2.623436e-18)
(-0.0005308936 -0.0002661577 6.062102e-19)
(-0.001062032 -0.01359417 -1.92606e-17)
(-0.001455361 -0.0003962447 -1.460128e-18)
(-0.004464537 -0.001095355 -4.079938e-18)
(-0.0008305686 -0.02350957 -5.904183e-17)
(3.015533e-06 -5.011373e-05 -2.96025e-26)
(-1.722863e-05 -2.671351e-05 1.612424e-27)
(5.101774e-05 -0.0001018432 -6.057673e-23)
(2.169062e-05 -8.115133e-05 6.628902e-23)
(6.651656e-05 -0.001111874 -2.003357e-18)
(-7.760433e-06 -0.0001415813 -1.319194e-19)
(1.480056e-05 -0.005421657 -4.632411e-19)
(-0.0006016711 -0.0002813638 -2.806564e-19)
(-0.0001607085 -0.01261116 1.25253e-17)
(-0.001290632 -0.0003664049 -5.830117e-19)
(-0.0007271502 -0.02228736 2.603127e-17)
(-0.002314448 -0.0004808447 2.593689e-18)
(-0.003992762 -0.0006908865 2.024947e-18)
(-0.003583943 -0.03403826 3.185362e-17)
(1.640594e-06 -5.757285e-05 -8.834762e-26)
(-1.752709e-05 -3.077946e-05 -7.936118e-24)
(4.500778e-05 -0.0005075812 1.220015e-19)
(-1.93736e-05 -9.486249e-05 -6.250186e-20)
(4.063836e-05 -0.003474924 6.691731e-19)
(-0.0002113941 -0.000170814 -3.926781e-20)
(-0.0003313781 -0.01003956 1.164176e-17)
(-0.0008223466 -0.0002792306 -1.123847e-19)
(-0.0004406301 -0.01995146 -8.414386e-18)
(-0.003060271 -0.0007363734 2.370322e-18)
(-0.0009679027 -0.03228642 -9.850561e-18)
(-0.003618093 -0.0006442124 3.578824e-19)
(-0.005624419 -0.0008810028 -2.740735e-18)
(-0.00188813 -0.04655855 1.199774e-17)
(1.211143e-06 -9.766396e-05 9.413346e-23)
(-2.026654e-05 -3.530105e-05 2.480533e-21)
(3.311832e-05 -0.001892192 -2.338988e-19)
(-0.0001254803 -0.0001135644 9.615435e-20)
(-3.702531e-06 -0.007233102 -8.808794e-20)
(-0.0005433219 -0.0002104462 -4.280027e-20)
(-0.0002539184 -0.01587158 -1.320708e-17)
(-0.001348006 -0.0003293176 1.009752e-18)
(-0.001596845 -0.02780021 -3.154787e-18)
(-0.00263196 -0.0004887304 -1.821082e-18)
(-0.002964708 -0.042013 1.288712e-17)
(-0.004201935 -0.0006513993 5.39516e-20)
(-0.01166389 -0.002515707 1.209137e-17)
(-0.00270547 -0.05924406 -9.109999e-17)
(8.601474e-07 -0.000484915 -5.729675e-21)
(-5.547796e-05 -4.180482e-05 1.986737e-20)
(1.589388e-05 -0.004176753 3.291725e-19)
(-0.0003033819 -0.0001369863 2.032313e-19)
(-5.473838e-05 -0.01167526 -3.295067e-18)
(-0.0009506359 -0.000256492 -1.68493e-19)
(-0.0003038508 -0.02258009 1.83375e-17)
(-0.002009455 -0.0003994594 4.176979e-18)
(-0.0008980887 -0.03635896 1.488192e-18)
(-0.003436143 -0.0005568648 -4.685928e-18)
(-0.00196163 -0.05243616 1.145211e-17)
(-0.005179009 -0.0007238185 -2.886141e-18)
(-0.008222482 -0.001137353 -3.771488e-18)
(-0.006028253 -0.07097423 -5.64673e-17)
(-1.090632e-06 -0.001394273 1.005673e-20)
(-0.0001119295 -4.88055e-05 -1.075853e-20)
(-7.951423e-06 -0.006829131 8.716411e-19)
(-0.0005089276 -0.0001595343 -9.181441e-21)
(-8.991958e-05 -0.01619959 6.952482e-18)
(-0.001417358 -0.0003110298 -2.62596e-19)
(-0.0003560904 -0.02906253 -1.185465e-18)
(-0.00267775 -0.0004730719 1.846657e-18)
(-0.000900893 -0.04488782 1.858113e-17)
(-0.004368839 -0.0006591513 -1.218832e-18)
(-0.00185526 -0.06313004 1.166437e-17)
(-0.006411252 -0.0008753314 8.094109e-19)