/*--------------------------------*- C++ -*----------------------------------*\
| =========                 |                                                 |
| \\      /  F ield         | OpenFOAM: The Open Source CFD Toolbox           |
|  \\    /   O peration     | Version:  2206                                  |
|   \\  /    A nd           | Website:  www.openfoam.com                      |
|    \\/     M anipulation  |                                                 |
\*---------------------------------------------------------------------------*/
FoamFile
{
    version     2.0;
    format      ascii;
    arch        "LSB;label=32;scalar=64";
    class       surfaceVectorField;
    location    "2.8";
    object      ddtCorrDdt0(Ufb);
}
// * * * * * * * * * * * * * * * * * * * * * * * * * * * * * * * * * * * * * //

dimensions      [0 1 -2 0 0 0 0];

internalField   nonuniform List<vector> 
26037
(
(-0.0002179008 0.0007363423 3.930596e-21)
(-0.0003250325 0.000348394 -1.233031e-26)
(-0.0001426558 0.0006266713 -1.690039e-21)
(-0.0001421778 0.0004056073 2.530358e-23)
(-0.0001374097 0.0006798562 1.247934e-26)
(-0.0001792742 0.0005789751 1.250768e-26)
(-0.0001358687 0.0008324098 7.916247e-27)
(-0.0002241817 0.000744391 0)
(-0.0001301812 0.0009827816 -5.532054e-24)
(-0.0002073654 0.0009065413 8.064616e-27)
(-0.0001207326 0.001138067 1.915273e-26)
(-0.000202543 0.001066595 3.445864e-25)
(-0.0001846398 0.001216536 1.014694e-26)
(-0.0001089969 0.001278166 -5.818255e-23)
(-0.0003501754 0.0002540882 1.153925e-28)
(-0.0003680622 8.540512e-05 -1.158476e-26)
(-0.0002940431 0.0004472197 1.165016e-28)
(-0.0003882365 0.0003158799 1.251392e-26)
(-0.0003066244 0.0006292523 0)
(-0.0004042447 0.0005319534 -4.627627e-27)
(-0.0003088466 0.000801351 1.49362e-28)
(-0.0004058147 0.0007324621 -1.297997e-26)
(-0.0002926985 0.0009900121 2.21124e-28)
(-0.0003928336 0.0009187791 1.746785e-25)
(-0.0002694201 0.001154498 2.043495e-28)
(-0.0003639165 0.001087753 7.180912e-29)
(-0.0003267484 0.001243964 6.715258e-25)
(-0.0002400135 0.001298114 1.114785e-26)
(-0.0005004401 0.0002051592 8.812606e-28)
(-0.0006741114 9.896808e-05 7.565622e-22)
(-0.0005150863 0.000414047 7.966885e-27)
(-0.0006627733 0.0003127034 -3.500587e-22)
(-0.0005119072 0.0006280838 3.031413e-23)
(-0.0006378818 0.0005301099 2.921086e-26)
(-0.0004957545 0.0008303156 3.488285e-24)
(-0.0006069624 0.0007437691 2.671e-27)
(-0.00046608 0.00101858 -8.408967e-27)
(-0.0005772829 0.0009463056 -4.864255e-25)
(-0.0004246276 0.001187917 6.151569e-32)
(-0.000530541 0.001127659 0)
(-0.0004760938 0.001291115 -6.861024e-25)
(-0.0003757211 0.001338544 -1.182685e-26)
(-0.0007839346 0.0002167871 1.769356e-26)
(-0.0009189274 0.0001114303 -1.83409e-26)
(-0.0007654911 0.0004336814 7.028268e-26)
(-0.0009027761 0.0003367117 -4.523023e-23)
(-0.0007323582 0.0006540343 2.863832e-24)
(-0.000867451 0.0005621224 2.989098e-23)
(-0.000692185 0.0008677857 1.539561e-26)
(-0.0008225619 0.0007816763 1.650833e-23)
(-0.0006455401 0.001061835 -4.930719e-28)
(-0.0007677324 0.0009911806 -8.675761e-27)
(-0.0005871166 0.001241261 -2.027907e-28)
(-0.0007073189 0.001185122 9.29608e-31)
(-0.0006334107 0.001358795 -1.208284e-26)
(-0.0005182618 0.001399631 1.224714e-26)
(-0.001031062 0.0002358091 -6.963688e-25)
(-0.001164142 0.0001221302 3.391869e-29)
(-0.001003536 0.0004681062 -1.905849e-24)
(-0.001145026 0.0003664853 2.275233e-26)
(-0.0009598036 0.0006978888 8.484748e-26)
(-0.001102542 0.000605175 4.379015e-26)
(-0.0009027154 0.0009162971 -4.331499e-24)
(-0.001048623 0.0008389537 4.437104e-23)
(-0.0008355508 0.001123915 -6.257769e-23)
(-0.0009775749 0.001058218 -2.904553e-23)
(-0.0007591999 0.001314235 6.591039e-23)
(-0.0008949526 0.001260563 1.185104e-26)
(-0.0008013975 0.001447722 2.173217e-24)
(-0.0006698514 0.001483099 -1.188002e-26)
(-0.001285148 0.0002570924 -2.290121e-28)
(-0.00142722 0.0001334409 0)
(-0.001253428 0.0005102694 3.799714e-24)
(-0.001405572 0.0003988405 3.25949e-26)
(-0.001198887 0.000764147 -1.861512e-23)
(-0.001361814 0.0006592083 3.815625e-26)
(-0.001127785 0.0009918181 9.581514e-24)
(-0.001284157 0.0009095134 3.355202e-26)
(-0.001041936 0.001207023 1.061564e-26)
(-0.001201628 0.001145862 1.11564e-22)
(-0.0009430994 0.001407638 -7.741962e-23)
(-0.00109921 0.00136048 1.034994e-26)
(-0.0009825884 0.001557975 2.790131e-26)
(-0.0008329579 0.001589578 -8.286173e-23)
(-0.001558957 0.0002809913 3.280681e-26)
(-0.001714642 0.0001458754 -7.881683e-26)
(-0.001520279 0.0005559853 7.060636e-26)
(-0.001688544 0.0004371025 1.277195e-22)
(-0.001457263 0.0008137684 5.237161e-23)
(-0.001628411 0.0007230601 2.003881e-22)
(-0.00137236 0.001075324 3.445626e-26)
(-0.00155482 0.0009943887 9.027951e-27)
(-0.001268101 0.001311465 7.941102e-24)
(-0.001447688 0.001251021 8.838376e-26)
(-0.001145774 0.001526121 -1.689429e-27)
(-0.00132483 0.001486647 -3.580112e-27)
(-0.001182625 0.00169716 -2.122202e-27)
(-0.001009351 0.001720179 5.665955e-28)
(-0.001856923 0.0003067205 -4.029822e-26)
(-0.002028708 0.0001608202 -3.67521e-22)
(-0.001811881 0.0006050989 7.537267e-26)
(-0.00199578 0.0004825203 -5.138702e-26)
(-0.001739661 0.0009018943 3.720326e-26)
(-0.001935264 0.0007949062 -7.416067e-27)
(-0.00163921 0.001180046 6.346935e-26)
(-0.001839739 0.001094722 -1.459806e-27)
(-0.001515116 0.001438515 6.110204e-26)
(-0.001717175 0.001377464 2.781103e-22)
(-0.001370728 0.001673283 1.02429e-23)
(-0.001572097 0.001636004 -4.031698e-27)
(-0.00140454 0.001868516 -2.136875e-27)
(-0.001205719 0.00188137 1.63462e-26)
(-0.002185253 0.0003405409 -8.989869e-26)
(-0.002377839 0.0001788376 3.972336e-22)
(-0.002133838 0.0006738752 -1.341668e-25)
(-0.002339268 0.0005343854 -4.009397e-22)
(-0.002050047 0.000993207 4.327724e-24)
(-0.002265871 0.0008800867 -2.049253e-22)
(-0.001931562 0.001304052 1.453645e-25)
(-0.002158162 0.001212711 9.200742e-26)
(-0.001786881 0.001588602 9.84264e-24)
(-0.002014299 0.001525377 3.370538e-22)
(-0.001617603 0.00184762 -2.139121e-27)
(-0.001845455 0.001811675 -2.138462e-27)
(-0.001649664 0.002069018 0)
(-0.001425158 0.002076905 -2.319662e-26)
(-0.00255068 0.000376994 2.852731e-27)
(-0.002764764 0.000199409 1.075656e-25)
(-0.002490489 0.0007473854 -1.549982e-25)
(-0.002721368 0.0005949587 -1.047715e-25)
(-0.002393105 0.001104735 4.169424e-26)
(-0.002636211 0.0009789871 -1.666684e-25)
(-0.002256092 0.001448513 9.282342e-26)
(-0.002510723 0.001349295 4.146804e-22)
(-0.002087878 0.00176457 5.630858e-29)
(-0.002344807 0.001697601 -3.801731e-22)
(-0.00189114 0.00205128 0)
(-0.002148623 0.002016218 0)
(-0.001922308 0.002302423 0)
(-0.001667502 0.002305744 -3.304059e-26)
(-0.002957608 0.0004211821 0)
(-0.003197457 0.0002227336 0)
(-0.002888387 0.0008338009 -1.163929e-25)
(-0.003147467 0.0006645057 1.408171e-25)
(-0.002775678 0.001231935 -1.052205e-26)
(-0.003049296 0.001093437 -5.086811e-22)
(-0.002617234 0.001615658 1.076388e-25)
(-0.002904656 0.00150719 -1.488294e-26)
(-0.002423029 0.001967158 -6.648933e-29)
(-0.002712922 0.001896575 4.5574e-22)
(-0.002195968 0.002287253 0)
(-0.002487625 0.002252459 0)
(-0.002226988 0.002572031 -9.583283e-26)
(-0.001937807 0.002571076 3.137128e-26)
(-0.003412775 0.0004715197 1.407585e-25)
(-0.003682329 0.0002495253 0)
(-0.003332996 0.0009330773 6.156308e-27)
(-0.003624612 0.000744484 6.090546e-22)
(-0.00320331 0.00137807 -2.584131e-25)
(-0.003511529 0.001225057 -1.330989e-25)
(-0.003021069 0.00180708 -1.115649e-23)
(-0.003345521 0.001688663 -5.43647e-22)
(-0.002797974 0.002201004 1.180679e-25)
(-0.003125969 0.002125046 2.515136e-25)
(-0.002537199 0.002559146 -9.579984e-26)
(-0.00286749 0.002523805 -1.19092e-25)
(-0.002568588 0.002881875 -4.23548e-22)
(-0.002240565 0.002876808 3.536567e-23)
(-0.003923231 0.0005289798 1.636395e-25)
(-0.004226775 0.0002802898 1.92128e-25)
(-0.003831465 0.00104645 -7.556958e-24)
(-0.0041601 0.0008361971 1.636663e-25)
(-0.003682718 0.00154567 -1.415251e-25)
(-0.004030655 0.001375813 3.769912e-27)
(-0.003474187 0.002026914 -9.457548e-27)
(-0.003840491 0.001896029 -1.422701e-25)
(-0.003218882 0.002469224 1.414166e-26)
(-0.003590273 0.002385935 6.177959e-22)
(-0.002920152 0.002870937 -1.192029e-25)
(-0.003294173 0.002834379 -5.395238e-22)
(-0.002952506 0.003236477 4.845304e-22)
(-0.0025806 0.003227376 -1.09302e-28)
(-0.004496969 0.0005945537 1.921651e-25)
(-0.00483926 0.0003154437 8.17682e-22)
(-0.00439176 0.001176372 2.003897e-27)
(-0.004762764 0.000940909 0)
(-0.004221193 0.001737423 -1.303003e-23)
(-0.004614739 0.001548353 6.564465e-27)
(-0.003984042 0.002276756 3.129714e-25)
(-0.004396572 0.002134513 -2.326081e-25)
(-0.003692812 0.002775808 1.698712e-25)
(-0.004114656 0.002679702 7.819069e-22)
(-0.003350821 0.00322716 -1.877357e-26)
(-0.003774204 0.003188187 -1.376607e-25)
(-0.003384786 0.003640982 -1.835836e-26)
(-0.002963259 0.003627904 3.115988e-26)
(-0.005143089 0.0006694497 2.211915e-25)
(-0.005529491 0.000355353 2.210896e-25)
(-0.005023057 0.00132458 4.555418e-27)
(-0.005442017 0.001059748 2.479257e-25)
(-0.004826812 0.001957259 -2.325985e-23)
(-0.005274685 0.001743541 4.55658e-27)
(-0.004562634 0.002559763 2.509094e-22)
(-0.005030644 0.002402113 -7.289915e-22)
(-0.004229573 0.003124145 1.161057e-25)
(-0.004711745 0.003017287 1.078006e-25)
(-0.00383628 0.003632872 -1.372649e-25)
(-0.004316197 0.003591049 -1.063654e-26)
(-0.003872424 0.004101472 -6.320659e-22)
(-0.003394611 0.00408429 -2.508473e-25)
(-0.005871389 0.000754339 2.47806e-25)
(-0.006307903 0.0004006399 0)
(-0.00573481 0.001491975 2.479757e-25)
(-0.006207529 0.001194585 1.031779e-21)
(-0.005515048 0.002202835 -2.300994e-25)
(-0.006016876 0.001964648 2.96168e-27)
(-0.005216948 0.002878994 4.034669e-23)
(-0.005740697 0.002702359 -2.262709e-25)
(-0.004830451 0.00352034 -1.96033e-26)
(-0.005378146 0.003402469 -8.948838e-27)
(-0.004383771 0.004094452 4.889578e-23)
(-0.004927518 0.004049039 -1.063192e-26)
(-0.004423106 0.004624911 -1.705694e-25)
(-0.00388156 0.004603544 -1.839551e-25)
(-0.006693022 0.0008507875 5.691024e-25)
(-0.00718661 0.0004520073 3.344161e-25)
(-0.006537234 0.001682622 5.724531e-25)
(-0.007071622 0.001347606 1.169672e-21)
(-0.006288038 0.002484454 -1.620772e-23)
(-0.006854934 0.002216256 9.707134e-27)
(-0.005949843 0.003246348 4.13483e-27)
(-0.006541625 0.003047922 8.703527e-27)
(-0.005509833 0.003970397 0)
(-0.006129924 0.003838177 0)
(-0.005002474 0.004618587 0)
(-0.005618436 0.00456825 2.555969e-25)
(-0.005045782 0.005219055 3.145179e-26)
(-0.004431988 0.005193473 1.51994e-26)
(-0.007620701 0.0009600163 5.526713e-24)
(-0.008178995 0.0005101082 1.355776e-21)
(-0.007443254 0.001898462 -1.341067e-23)
(-0.008047392 0.00152069 7.027452e-25)
(-0.007160429 0.002803095 -1.837836e-23)
(-0.007801395 0.002500842 1.824589e-26)
(-0.006776719 0.003662442 4.707656e-27)
(-0.007445972 0.00343925 1.517186e-26)
(-0.006277775 0.004479563 2.585682e-25)
(-0.006978826 0.004330484 0)
(-0.005702505 0.005212975 -6.273102e-23)
(-0.006400946 0.005154905 1.106075e-21)
(-0.005750457 0.005892395 4.935298e-26)
(-0.005054895 0.005862725 -7.131446e-23)
(-0.008668448 0.001083448 6.294194e-24)
(-0.009299975 0.000575685 8.223392e-25)
(-0.00846658 0.002142387 -1.509075e-23)
(-0.009149501 0.001716072 1.4966e-21)
(-0.008145805 0.003163355 -4.152583e-23)
(-0.008870667 0.002822354 4.224304e-25)
(-0.007709838 0.004133143 1.070806e-26)
(-0.008467808 0.00388304 1.053672e-26)
(-0.007147451 0.005052267 2.814433e-25)
(-0.007936728 0.00489284 -1.149431e-25)
(-0.006496487 0.005886019 2.958849e-25)
(-0.007291389 0.005809134 1.081011e-25)
(-0.006548189 0.006653075 -2.277064e-26)
(-0.005760457 0.006620664 -7.981685e-23)
(-0.009851865 0.001222626 1.295439e-24)
(-0.01056609 0.0006495164 1.723414e-21)
(-0.009622693 0.002417472 1.267497e-24)
(-0.01039426 0.001936006 1.680435e-21)
(-0.009260332 0.003570455 4.112322e-25)
(-0.01007944 0.003183966 1.614513e-21)
(-0.008763926 0.004669079 -1.139011e-25)
(-0.009628173 0.004380539 4.301634e-25)
(-0.00814413 0.005698289 5.306818e-22)
(-0.00904024 0.005518596 -1.315111e-25)
(-0.007401848 0.006645145 1.847916e-22)
(-0.008315811 0.006556943 1.889651e-25)
(-0.007453899 0.007512577 -3.376856e-25)
(-0.006560831 0.007477434 -4.067407e-26)
(-0.01118802 0.001379142 -5.695808e-24)
(-0.01199561 0.0007325641 5.027237e-25)
(-0.01092807 0.002726589 2.154764e-23)
(-0.01179937 0.002183393 1.896468e-21)
(-0.01051991 0.004026137 1.365434e-24)
(-0.01144329 0.003590724 1.840019e-21)
(-0.00996721 0.005260954 6.215175e-23)
(-0.01093345 0.00493912 1.766241e-21)
(-0.009276584 0.00641841 3.369167e-25)
(-0.01027264 0.006212452 -1.705427e-26)
(-0.008417999 0.007500567 5.421768e-26)
(-0.009456226 0.007402787 1.442293e-21)
(-0.008480075 0.00848232 -1.391175e-21)
(-0.007468338 0.008444992 -1.008627e-22)
(-0.01269656 0.001555181 5.560975e-25)
(-0.01360915 0.000825823 -6.553439e-25)
(-0.01240191 0.003074603 2.302787e-23)
(-0.01338544 0.002461293 5.561787e-25)
(-0.01194119 0.004540783 1.54647e-24)
(-0.01298366 0.004048195 5.318028e-25)
(-0.01131904 0.005935267 1.01637e-24)
(-0.01240921 0.005569763 1.990434e-21)
(-0.01054144 0.007241698 4.061e-25)
(-0.01166491 0.007006451 -5.585575e-25)
(-0.00957081 0.008465113 4.07451e-25)
(-0.01074341 0.008351291 4.147056e-25)
(-0.009644909 0.00957173 1.696823e-21)
(-0.008498633 0.009536503 2.52168e-25)
(-0.01439867 0.001752571 -6.554623e-25)
(-0.01542924 0.0009301766 -2.444821e-21)
(-0.01406538 0.003464867 0)
(-0.01517464 0.002772345 0)
(-0.01354664 0.005118226 -1.700318e-26)
(-0.01472252 0.004560549 0)
(-0.01284618 0.006692219 7.945048e-23)
(-0.01407678 0.006277159 -2.260648e-21)
(-0.01196816 0.0081669 -5.70033e-25)
(-0.01323866 0.007902702 -2.224071e-21)
(-0.01087922 0.009542924 4.295096e-25)
(-0.01219698 0.009431678 5.524059e-25)
(-0.01097599 0.01078043 4.267252e-25)
(-0.009670132 0.01076602 8.475852e-25)
(-0.01631782 0.001973108 -1.495334e-24)
(-0.01748045 0.001046539 -2.727163e-21)
(-0.01594182 0.003901069 0)
(-0.01719131 0.00311927 -4.915218e-27)
(-0.01535981 0.005764333 -6.422673e-25)
(-0.01668424 0.005132179 -8.06213e-25)
(-0.01457512 0.007541931 -8.264861e-23)
(-0.01596206 0.00706625 -6.64653e-25)
(-0.01358312 0.009217168 -6.735853e-25)
(-0.01503147 0.00889991 -2.26174e-21)
(-0.01239203 0.01076016 5.558698e-25)
(-0.01388882 0.01062715 1.742927e-21)
(-0.01252313 0.01216155 0)
(-0.01101095 0.01215099 -4.155951e-25)
(-0.01847941 0.002218607 -8.568769e-25)
(-0.01978925 0.001175792 -8.514554e-25)
(-0.01805629 0.004386783 2.927696e-23)
(-0.01946165 0.003504865 9.39873e-25)
(-0.01740491 0.006483548 -8.286315e-25)
(-0.01889422 0.005768181 -2.908796e-21)
(-0.01652902 0.008484373 9.534954e-23)
(-0.01808652 0.007945186 -2.228057e-26)
(-0.01543124 0.01036466 6.054986e-25)
(-0.01704491 0.0100098 2.742876e-21)
(-0.01411853 0.01210446 6.515296e-25)
(-0.01576963 0.01193976 4.842883e-25)
(-0.01423982 0.0137195 -8.676256e-26)
(-0.01251657 0.01370416 -3.948251e-25)
(-0.02091095 0.002490811 9.441818e-25)
(-0.02238415 0.00131861 1.101695e-24)
(-0.02043637 0.004926119 3.626693e-26)
(-0.02201451 0.003931545 3.302122e-21)
(-0.01970951 0.007284005 -9.094813e-25)
(-0.0213822 0.006473257 -1.9424e-24)
(-0.01873241 0.00953884 7.375558e-25)
(-0.02048341 0.008922202 0)
(-0.01750877 0.01166489 2.521512e-22)
(-0.01932416 0.01125104 8.090176e-25)
(-0.01604355 0.01363761 3.748059e-22)
(-0.01790309 0.01343313 -1.508715e-25)
(-0.01619153 0.01545946 -1.847186e-25)
(-0.01423665 0.01546244 1.383107e-26)
(-0.02364189 0.002790661 2.175666e-24)
(-0.02529468 0.001475344 3.64814e-21)
(-0.02311219 0.005521915 4.18095e-26)
(-0.0248807 0.004400122 2.293168e-24)
(-0.02230496 0.008169651 -1.033773e-24)
(-0.02417916 0.007250291 -3.584254e-21)
(-0.02122047 0.01070761 7.129118e-26)
(-0.0231843 0.01000105 0)
(-0.01986067 0.0131081 -2.747833e-22)
(-0.02190043 0.01262502 7.130137e-26)
(-0.01822732 0.01534271 4.057179e-22)
(-0.02032264 0.01509869 9.516845e-25)
(-0.01841957 0.01742491 -9.841122e-26)
(-0.01622165 0.01741825 -7.305569e-25)
(-0.02670329 0.003117428 2.469455e-24)
(-0.02855162 0.001644585 2.670021e-24)
(-0.02611597 0.006175785 4.475783e-26)
(-0.02809345 0.004910604 4.081013e-21)
(-0.0252235 0.009143684 -1.175263e-24)
(-0.02731775 0.008101176 -1.174342e-24)
(-0.02402681 0.01199592 0)
(-0.02622291 0.01118472 -1.195147e-24)
(-0.02252741 0.01470519 9.499311e-25)
(-0.02481094 0.01413334 9.007288e-26)
(-0.02071586 0.01725345 9.678499e-25)
(-0.02308953 0.0169169 3.189323e-21)
(-0.02105752 0.01952493 -1.425638e-21)
(-0.01860789 0.01960416 -1.947436e-21)
(-0.03012709 0.003467562 -2.613457e-23)
(-0.03218146 0.001830834 4.054121e-21)
(-0.02948096 0.006888794 1.390509e-24)
(-0.03168835 0.005451458 1.39397e-24)
(-0.02849858 0.01020784 -1.194169e-24)
(-0.0308311 0.009023306 1.537334e-24)
(-0.02718366 0.01340573 -2.634204e-22)
(-0.02963335 0.01247682 -4.368936e-21)
(-0.02553346 0.01644583 2.154754e-24)
(-0.02808061 0.01578896 1.436735e-24)
(-0.02354212 0.01928044 4.424973e-22)
(-0.02616932 0.01892288 4.529058e-21)
(-0.02387173 0.0218308 4.836466e-21)
(-0.02120479 0.02183788 1.762859e-21)
(-0.03395058 0.003834434 1.613036e-24)
(-0.03623706 0.002021015 1.59835e-24)
(-0.03325134 0.007651441 1.541166e-24)
(-0.03570789 0.006035969 0)
(-0.03216983 0.01136198 -1.114137e-22)
(-0.03476244 0.01001224 4.908689e-21)
(-0.03073339 0.01494758 -5.339434e-26)
(-0.03346066 0.0138757 -1.397612e-24)
(-0.02892353 0.01837723 3.823297e-24)
(-0.03177228 0.01759638 4.870148e-21)
(-0.02672122 0.02161284 3.591041e-24)
(-0.02968697 0.02114792 5.077717e-21)
(-0.02716564 0.02450179 -1.63889e-25)
(-0.02409967 0.0246097 2.943669e-24)
(-0.0381984 0.004229934 0)
(-0.04072127 0.002223391 2.05121e-24)
(-0.03743493 0.008457469 3.425964e-24)
(-0.04013356 0.006680574 -1.971572e-24)
(-0.03627756 0.01259995 3.413122e-24)
(-0.039148 0.01103266 5.400981e-21)
(-0.03472351 0.01661174 3.059994e-24)
(-0.03774458 0.01535825 0)
(-0.03276617 0.02047213 4.476503e-24)
(-0.03592895 0.01953563 5.278272e-21)
(-0.03038286 0.02415697 1.461677e-25)
(-0.03369157 0.02354088 1.413294e-24)
(-0.03100537 0.02735817 -4.880486e-21)
(-0.02752019 0.02764751 -1.29061e-24)
(-0.04288042 0.004673376 -5.792301e-23)
(-0.04568778 0.002440119 5.020756e-21)
(-0.04208807 0.009293454 -3.884201e-24)
(-0.04506313 0.007331095 -4.780948e-21)
(-0.04088191 0.01387737 -1.899344e-24)
(-0.04403136 0.01214161 -9.438873e-21)
(-0.03920426 0.01838042 1.740152e-24)
(-0.04255308 0.0168681 -4.198695e-24)
(-0.03709957 0.0227057 1.739741e-24)
(-0.04058623 0.02158118 3.568559e-24)
(-0.03455026 0.02686109 -1.113348e-24)
(-0.03820586 0.02609088 -1.661879e-25)
(-0.03531857 0.03040807 -9.197304e-25)
(-0.03151065 0.03079134 -9.842107e-22)
(-0.04808103 0.005104686 5.597274e-26)
(-0.05112224 0.002656483 2.293276e-24)
(-0.04722223 0.01016968 -8.708721e-24)
(-0.05047635 0.007963109 -2.259676e-24)
(-0.0459917 0.01518538 -1.075227e-23)
(-0.04943377 0.01325373 -4.616726e-21)
(-0.04424139 0.02021579 3.796922e-22)
(-0.0479496 0.01845406 -1.178554e-20)
(-0.04197603 0.02506718 1.662947e-24)
(-0.04580943 0.02369804 7.131186e-21)
(-0.03926456 0.02976532 3.85737e-22)
(-0.04330581 0.02878123 -5.321454e-25)
(-0.04024265 0.03369036 -6.664101e-25)
(-0.0360021 0.03425789 -9.455788e-22)
(-0.05374489 0.00554515 3.753309e-23)
(-0.05703721 0.002875322 3.19552e-28)
(-0.0528856 0.01103715 -2.543536e-24)
(-0.05635551 0.0086187 1.034993e-27)
(-0.05162271 0.01649863 2.50323e-22)
(-0.05529424 0.01434101 -5.201911e-24)
(-0.0497903 0.02205285 -1.136123e-22)
(-0.05376814 0.02012515 -6.166772e-24)
(-0.0474639 0.02751301 2.16022e-24)
(-0.05166476 0.02576184 4.061566e-24)
(-0.04461943 0.03282079 6.960819e-22)
(-0.04905804 0.03152408 -2.335487e-24)
(-0.04586944 0.03711862 -8.58738e-25)
(-0.04118114 0.03796608 7.514984e-22)
(-0.05988875 0.005983149 -3.428188e-23)
(-0.06343294 0.00308309 4.40074e-27)
(-0.05902671 0.01192784 -2.646699e-24)
(-0.06273039 0.00924895 1.362993e-26)
(-0.05772771 0.01790137 -4.071537e-23)
(-0.0617247 0.01541246 -5.380056e-21)
(-0.05598146 0.02387216 -7.675412e-22)
(-0.06025467 0.02168643 -5.670084e-21)
(-0.0536782 0.02990397 -4.824102e-22)
(-0.05822315 0.02790698 -2.940186e-24)
(-0.05071033 0.03594789 -1.968253e-24)
(-0.05559742 0.03414858 -1.124348e-20)
(-0.0522582 0.04059198 0)
(-0.04713221 0.04180302 1.353872e-25)
(-0.06649945 0.006381307 0)
(-0.07027041 0.003265168 9.834602e-27)
(-0.06566225 0.01272695 -3.077461e-24)
(-0.06954796 0.00980097 -2.9568e-26)
(-0.06447454 0.0191131 -6.329934e-24)
(-0.06860645 0.01634605 -3.180297e-24)
(-0.06276841 0.02560967 -2.207689e-22)
(-0.06728371 0.02299573 -3.242737e-24)
(-0.06060507 0.03218732 -2.682234e-22)
(-0.06544585 0.02984409 -5.328621e-21)
(-0.05765421 0.0390278 -4.215215e-24)
(-0.06305394 0.03672128 -3.805228e-24)
(-0.05953808 0.04399248 1.10808e-24)
(-0.0539506 0.04571416 2.299555e-24)
(-0.07352683 0.006715944 -6.388198e-23)
(-0.07748626 0.003402386 3.912775e-24)
(-0.07272497 0.01340566 -1.245379e-24)
(-0.07675293 0.01022634 -6.122702e-26)
(-0.07166154 0.02017483 -1.020833e-25)
(-0.07591438 0.01710176 3.69067e-24)
(-0.07016761 0.02709218 -6.425194e-24)
(-0.07477056 0.02414898 0)
(-0.06819413 0.03419657 -6.217937e-24)
(-0.0731408 0.0314687 -8.620006e-21)
(-0.06535276 0.04181755 7.571671e-22)
(-0.07098808 0.03923827 -2.626611e-26)
(-0.06793839 0.04708789 6.487805e-24)
(-0.0618052 0.04960905 -6.633873e-22)
(-0.08088299 0.006933997 4.19656e-23)
(-0.08496247 0.003465941 1.728909e-21)
(-0.08014932 0.01388153 3.755789e-24)
(-0.08425388 0.01044878 4.160367e-24)
(-0.07927938 0.02099281 3.793865e-24)
(-0.08359938 0.01757616 3.585307e-21)
(-0.07808301 0.02839193 -3.999393e-24)
(-0.08277489 0.02498095 3.035178e-25)
(-0.07635483 0.036218 -7.389686e-22)
(-0.08162599 0.03279599 -3.196234e-24)
(-0.07415362 0.04440174 6.892412e-21)
(-0.07994422 0.04119509 -5.635978e-21)
(-0.07764733 0.04995207 7.907451e-24)
(-0.07097095 0.05335375 -2.05346e-21)
(-0.08843844 0.006965583 -2.699917e-23)
(-0.0925196 0.003447471 4.279387e-24)
(-0.08784983 0.01406973 8.370024e-24)
(-0.091935 0.01038375 6.275643e-22)
(-0.08727729 0.02143091 4.484475e-24)
(-0.09154836 0.01766464 -3.856145e-25)
(-0.08653585 0.02919268 9.239786e-22)
(-0.09115337 0.02534249 1.498046e-25)
(-0.08539908 0.03747327 8.000197e-22)
(-0.09056662 0.03356636 5.71352e-24)
(-0.08379855 0.04632686 9.452438e-22)
(-0.0894909 0.0425073 -1.906089e-24)
(-0.08796255 0.05248829 2.488853e-24)
(-0.08124295 0.05642614 4.029546e-21)
(-0.09603007 0.006780327 -4.490656e-24)
(-0.1000059 0.003311092 -5.047778e-24)
(-0.09571988 0.01387017 3.543266e-22)
(-0.09962779 0.01007769 7.426995e-21)
(-0.09556124 0.02139841 -5.057106e-22)
(-0.09965582 0.01722329 6.656408e-22)
(-0.0954052 0.0294604 4.748937e-24)
(-0.09981816 0.02506685 -1.007362e-23)
(-0.09504792 0.03827354 1.944257e-21)
(-0.1000356 0.03360865 3.249839e-21)
(-0.09415708 0.04808553 5.366474e-25)
(-0.1000534 0.04308582 -3.948029e-24)
(-0.09957024 0.05384573 1.134429e-22)
(-0.09295441 0.05884232 3.851966e-22)
(-0.1034389 0.006431435 -1.473825e-23)
(-0.107148 0.003038903 7.112342e-21)
(-0.103503 0.01324006 2.183409e-21)
(-0.1070992 0.009433517 -9.647524e-24)
(-0.1039873 0.02067689 -1.458312e-23)
(-0.1076469 0.01628516 -4.628259e-24)
(-0.1045758 0.0288984 -4.538449e-24)
(-0.1085895 0.02387951 3.405326e-21)
(-0.1052294 0.03798199 2.303632e-21)
(-0.1097165 0.03256569 -5.493953e-24)
(-0.1055959 0.04823118 1.058592e-22)
(-0.1109979 0.04241247 8.658427e-22)
(-0.1116472 0.0540275 -3.507961e-19)
(-0.1049718 0.05969445 -3.993726e-20)
(-0.1104798 0.005810078 3.198386e-22)
(-0.1136307 0.002648255 3.102821e-25)
(-0.1109277 0.01218098 2.706662e-26)
(-0.1140774 0.008334155 -1.584527e-26)
(-0.1121263 0.01915078 -1.276308e-25)
(-0.1151689 0.01468486 -8.030306e-26)
(-0.1138199 0.02720725 -1.113461e-23)
(-0.1170688 0.02178414 -1.969793e-20)
(-0.1155304 0.03641082 -3.727476e-23)
(-0.1194165 0.03016998 1.775154e-20)
(-0.1166228 0.04696549 3.916882e-19)
(-0.1217018 0.04080322 1.652223e-19)
(-0.1221669 0.05442449 7.856164e-19)
(-0.1157565 0.05906399 -1.03942e-18)
(-0.1167342 0.004915577 5.623695e-24)
(-0.1191305 0.002121605 -1.687139e-20)
(-0.1178155 0.01053092 -7.973066e-22)
(-0.1201894 0.006827861 -4.242161e-26)
(-0.1196204 0.01683359 1.188733e-23)
(-0.1219341 0.01224257 -1.956947e-25)
(-0.1223434 0.02415451 1.636117e-20)
(-0.1247409 0.01870644 3.19244e-23)
(-0.1249054 0.03311 -3.267735e-19)
(-0.1281355 0.02706774 8.202697e-20)
(-0.1254164 0.04401781 9.241623e-20)
(-0.1301089 0.0392201 2.542777e-19)
(-0.128882 0.05622312 -6.197257e-19)
(-0.1232356 0.05652977 9.381375e-19)
(-0.1218776 0.003735951 5.907553e-24)
(-0.1233006 0.001466888 5.908358e-24)
(-0.1236262 0.008278943 -1.162332e-25)
(-0.1250559 0.004865758 -3.13306e-26)
(-0.1262962 0.01350284 -3.934457e-21)
(-0.1274389 0.00904169 -2.019648e-22)
(-0.1292854 0.02006937 9.153868e-20)
(-0.1312333 0.01499269 -8.58668e-20)
(-0.1314842 0.02863192 1.161219e-18)
(-0.1339958 0.02471713 1.476411e-18)
(-0.1308096 0.04011066 -6.512479e-18)
(-0.1349576 0.03913628 3.961016e-18)
(-0.1325167 0.05907626 -7.135126e-18)
(-0.1268913 0.05386265 8.884339e-18)
(-0.1255444 0.002290673 -3.126854e-26)
(-0.1258248 0.0006970252 0)
(-0.127934 0.005354731 -2.201513e-21)
(-0.1282006 0.002466913 -2.900458e-23)
(-0.1310953 0.009140145 2.932726e-20)
(-0.1310919 0.005400534 1.121143e-18)
(-0.13377 0.01527598 1.223857e-19)
(-0.134926 0.01177806 -2.525247e-18)
(-0.134031 0.02407333 -3.277226e-18)
(-0.1362119 0.02393236 2.370584e-18)
(-0.1325745 0.03547923 -2.162208e-17)
(-0.1348854 0.04166882 -3.019123e-18)
(-0.133131 0.0634664 -5.544371e-18)
(-0.1268804 0.04921961 -6.228904e-17)
(-0.1273681 0.0006438779 -2.880823e-23)
(-0.1264281 -0.0002207461 6.126095e-24)
(-0.1300702 0.001819245 -1.515968e-19)
(-0.1292162 -0.000159904 1.857442e-19)
(-0.1329049 0.004395858 -5.295025e-18)
(-0.1320284 0.002256763 -2.5581e-18)
(-0.1343777 0.0105778 -5.972037e-19)
(-0.1345278 0.01014305 -6.169568e-19)
(-0.1330596 0.0197977 1.387205e-17)
(-0.1347004 0.02493534 -1.323089e-18)
(-0.1293227 0.03161829 2.747601e-17)
(-0.1320728 0.0454965 5.173446e-18)
(-0.1278301 0.07080534 3.172204e-18)
(-0.1254422 0.04673611 3.30847e-17)
(-0.1270052 -0.001357229 -4.049967e-22)
(-0.1247073 -0.001274584 -3.198576e-20)
(-0.1295502 -0.001863764 5.180519e-19)
(-0.1277147 -0.002524732 -2.753677e-18)
(-0.1310238 0.0005241 1.01687e-18)
(-0.1296444 0.0007285194 -2.049362e-19)
(-0.131109 0.006693469 1.348972e-17)
(-0.130025 0.01096988 -7.712222e-19)
(-0.1281342 0.01652201 -8.861897e-18)
(-0.1301389 0.0278699 3.62197e-18)
(-0.1231676 0.02821683 -1.013817e-17)
(-0.1252939 0.05105659 4.324282e-19)
(-0.1205804 0.07857309 -3.779874e-18)
(-0.1161482 0.04230907 1.201048e-17)
(-0.1238484 -0.003596228 4.011178e-21)
(-0.1203456 -0.002233079 9.066432e-19)
(-0.1256849 -0.005127593 -4.774076e-19)
(-0.1228677 -0.003977981 2.069159e-18)
(-0.1257923 -0.002551519 -1.077448e-19)
(-0.1236617 0.0009437568 -7.609081e-21)
(-0.1240039 0.003982493 -1.456048e-17)
(-0.1230536 0.01360107 2.569387e-18)
(-0.1206621 0.01424406 -3.286588e-18)
(-0.1203268 0.03354173 -2.798835e-18)
(-0.1152 0.02658113 1.317468e-17)
(-0.1151114 0.0590895 5.117139e-20)
(-0.1146235 0.08774202 1.392233e-17)
(-0.1057913 0.04219044 -9.079955e-17)
(-0.1175221 -0.005582334 -2.95509e-20)
(-0.1130392 -0.002684399 9.572496e-19)
(-0.1182689 -0.007514442 4.963621e-19)
(-0.1144596 -0.004072447 1.257895e-18)
(-0.1172447 -0.004784673 -3.813642e-18)
(-0.114353 0.002732938 3.22842e-20)
(-0.1142652 0.002179157 1.957099e-17)
(-0.1130627 0.01774675 7.517388e-18)
(-0.108977 0.01274373 1.531113e-18)
(-0.1096422 0.04003228 -7.146343e-18)
(-0.1018167 0.02620953 1.172069e-17)
(-0.103929 0.06837935 -3.884061e-18)
(-0.0966049 0.1019897 -4.270225e-18)
(-0.09523309 0.0423512 -5.701242e-17)
(-0.108135 -0.006688725 2.654656e-20)
(-0.1029415 -0.002479548 -5.901788e-20)
(-0.1076892 -0.008638264 1.150713e-18)
(-0.1031616 -0.002678914 -5.639403e-20)
(-0.1056959 -0.005696528 7.780003e-18)
(-0.1022705 0.00590177 -4.27275e-19)
(-0.1019347 0.00177156 -1.247279e-18)
(-0.1004823 0.02303979 2.626866e-18)
(-0.09595638 0.01305733 1.906184e-17)
(-0.09670594 0.04786054 -1.390949e-18)
(-0.08771248 0.02749897 1.174051e-17)
(-0.09089654 0.07898261 1.030201e-18)
(-0.08257011 0.1152095 -1.960777e-18)
(-0.07782787 0.04429788 -2.042652e-17)
(-0.09593937 -0.006971809 -1.195367e-18)
(-0.08967671 -0.001602701 -2.953334e-19)
(-0.0948008 -0.008442887 -8.112111e-19)
(-0.08911183 -5.230845e-05 7.313146e-19)
(-0.09203931 -0.005120386 3.292576e-18)
(-0.08926903 0.009825307 7.524529e-18)
(-0.08765457 0.003178278 -2.059128e-19)
(-0.08626437 0.02910374 -3.460886e-18)
(-0.08117228 0.01540072 -6.899094e-20)
(-0.08195693 0.05648177 2.665642e-18)
(-0.0725718 0.03068545 4.055867e-17)
(-0.07582896 0.09025945 -1.201876e-17)
(-0.06830004 0.1287226 -6.529958e-18)
(-0.06079788 0.04804196 -5.417362e-17)
(-0.08094989 -0.006609023 2.326093e-19)
(-0.07367741 -0.000430782 2.296737e-19)
(-0.07941669 -0.008062318 -5.134563e-18)
(-0.07297645 0.002883669 1.22869e-19)
(-0.07712429 -0.004348351 -2.584305e-18)
(-0.07159571 0.01485523 -7.648687e-19)
(-0.07300476 0.005291518 6.784674e-17)
(-0.06900688 0.03614106 5.943026e-19)
(-0.06718622 0.01918426 1.835267e-16)
(-0.06382573 0.06609242 -5.678653e-19)
(-0.05927299 0.03627818 -1.460231e-16)
(-0.05758643 0.1029117 -2.527609e-18)
(-0.06202256 0.1410928 3.31571e-17)
(-0.04645443 0.05560791 -7.03493e-17)
(-0.06379736 -0.005990714 -1.72268e-20)
(-0.05550221 0.0006834135 8.139635e-20)
(-0.06213372 -0.00739325 -6.675647e-19)
(-0.05505819 0.005671998 2.940696e-19)
(-0.05921671 -0.003085106 -2.725505e-18)
(-0.05377224 0.01919187 -3.462728e-19)
(-0.05484348 0.006979956 -6.763827e-18)
(-0.05154092 0.04231712 -1.048674e-19)
(-0.0486647 0.02212485 -8.545829e-19)
(-0.04775788 0.07408707 -9.459184e-19)
(-0.04088406 0.04102312 1.221756e-17)
(-0.04217532 0.1133729 2.782539e-18)
(-0.03893633 0.158028 -4.520376e-19)
(-0.03239232 0.06254653 1.722882e-16)
(-0.04518704 -0.005105837 -4.253373e-19)
(-0.03628069 0.001618859 -7.291506e-20)
(-0.04380276 -0.006165624 -3.373078e-18)
(-0.0362084 0.008042042 -3.797159e-20)
(-0.04141694 -0.001065824 -2.268127e-18)
(-0.03561825 0.02273473 -3.431607e-19)
(-0.03777407 0.009829967 7.463805e-18)
(-0.03433289 0.04732048 1.361466e-18)
(-0.03252148 0.02592438 1.362982e-17)