/*--------------------------------*- C++ -*----------------------------------*\
| =========                 |                                                 |
| \\      /  F ield         | OpenFOAM: The Open Source CFD Toolbox           |
|  \\    /   O peration     | Version:  2206                                  |
|   \\  /    A nd           | Website:  www.openfoam.com                      |
|    \\/     M anipulation  |                                                 |
\*---------------------------------------------------------------------------*/
FoamFile
{
    version     2.0;
    format      ascii;
    arch        "LSB;label=32;scalar=64";
    class       volVectorField;
    location    "2.8";
    object      ddtCorrDdt0(U.b);
}
// * * * * * * * * * * * * * * * * * * * * * * * * * * * * * * * * * * * * * //

dimensions      [0 1 -2 0 0 0 0];

internalField   nonuniform List<vector> 
13078
(
(-0.0002921517 0.000620317 -2.450114e-26)
(-0.0001521151 0.0004830425 2.708306e-28)
(-0.0001369832 0.0006118584 2.499493e-26)
(-0.0001376799 0.0007558126 0)
(-0.0001341617 0.0009034545 1.583043e-26)
(-0.0001262205 0.001061067 1.827671e-26)
(-0.0001153858 0.001207625 2.002871e-26)
(-0.0004094841 7.113156e-05 0)
(-0.0002905122 0.0003270697 2.315685e-28)
(-0.0002981701 0.0005457874 0)
(-0.0003146203 0.0007329663 0)
(-0.0003023285 0.0009096238 2.986359e-28)
(-0.0002830366 0.001072123 1.436173e-28)
(-0.0002560203 0.001225447 2.650786e-28)
(-0.0004875871 9.398259e-05 -2.31677e-26)
(-0.000513313 0.0003036362 2.495662e-26)
(-0.0005168985 0.0005178777 -9.325295e-27)
(-0.0005070539 0.0007319503 -2.596191e-26)
(-0.0004844779 0.0009279342 -1.681853e-26)
(-0.0004477932 0.001103382 0)
(-0.0004016513 0.001262481 1.230286e-31)
(-0.0007888885 0.0001065394 -3.675262e-26)
(-0.0007789771 0.0003229478 7.220102e-26)
(-0.0007517991 0.0005429126 6.833465e-26)
(-0.0007130464 0.0007557672 3.175069e-26)
(-0.0006715753 0.0009646768 -9.861822e-28)
(-0.0006196394 0.001151934 0)
(-0.0005547997 0.001319747 -4.055723e-28)
(-0.001039861 0.0001166545 6.78438e-29)
(-0.001022256 0.0003506284 4.596737e-26)
(-0.0009845262 0.0005812668 8.683271e-26)
(-0.0009353031 0.0008079145 8.287961e-26)
(-0.0008700833 0.001018088 -1.648342e-26)
(-0.0008011486 0.001218306 1.859233e-30)
(-0.0007174849 0.001397841 -2.376043e-26)
(-0.001295649 0.0001273329 0)
(-0.001274637 0.0003820861 -4.582914e-28)
(-0.001231897 0.0006285747 7.497491e-28)
(-0.001166199 0.0008698378 4.893376e-26)
(-0.001089443 0.001098837 -2.613258e-27)
(-0.0009943253 0.001303454 2.387916e-26)
(-0.0008920143 0.001497596 5.539519e-26)
(-0.001571082 0.0001390766 0)
(-0.001546826 0.0004152044 6.564397e-26)
(-0.001493474 0.0006898189 7.561974e-26)
(-0.001420675 0.0009487405 1.80729e-26)
(-0.001324495 0.001192504 5.069515e-26)
(-0.001211758 0.001418108 -3.374409e-27)
(-0.001079649 0.001619244 0)
(-0.001871567 0.0001521498 -1.576182e-25)
(-0.001842273 0.0004585309 7.708655e-26)
(-0.00178142 0.0007553625 7.365511e-26)
(-0.001697072 0.001039552 0)
(-0.001582163 0.001309085 1.260612e-25)
(-0.001448166 0.00155479 -3.785762e-27)
(-0.001293301 0.001775956 -4.274387e-27)
(-0.002203184 0.000168796 -1.811887e-29)
(-0.002167316 0.0005058043 -1.798286e-25)
(-0.002100314 0.0008339897 -8.843055e-26)
(-0.001998685 0.001149074 -2.91922e-27)
(-0.001865428 0.001445305 2.915074e-25)
(-0.001708453 0.00171673 -4.277568e-27)
(-0.001526766 0.00196065 0)
(-0.002571221 0.0001881129 2.151569e-25)
(-0.00253013 0.0005622112 -2.095709e-25)
(-0.002450792 0.000925415 -1.003353e-25)
(-0.00233414 0.00127551 1.869223e-25)
(-0.002179219 0.001604784 1.126829e-28)
(-0.00199668 0.001906047 0)
(-0.001785612 0.00217687 0)
(-0.002980986 0.0002097562 0)
(-0.002934221 0.0006268224 0)
(-0.002842486 0.001031712 -2.32983e-25)
(-0.002707358 0.001422039 2.170593e-25)
(-0.002528497 0.001789651 -1.330579e-28)
(-0.002317726 0.002125685 0)
(-0.002074222 0.002427362 0)
(-0.003439735 0.0002346077 0)
(-0.003385803 0.0007011424 2.816005e-25)
(-0.003280111 0.001154167 -2.697653e-25)
(-0.003124731 0.001591135 -2.467938e-25)
(-0.002919035 0.002002561 2.362789e-25)
(-0.002677106 0.002378414 0)
(-0.002397306 0.002715977 -1.916331e-25)
(-0.003954362 0.0002631548 0)
(-0.003892086 0.0007866009 3.273791e-25)
(-0.003770751 0.001294769 3.528351e-27)
(-0.003592599 0.00178477 -2.900681e-25)
(-0.003357672 0.002246437 2.667439e-25)
(-0.00308032 0.002668236 -2.381446e-25)
(-0.002759999 0.003046925 -2.18558e-28)
(-0.0045328 0.0002959207 3.842104e-25)
(-0.004461121 0.0008843514 0)
(-0.004322291 0.00145548 4.011399e-27)
(-0.004117712 0.00200568 5.518398e-27)
(-0.003852387 0.002524192 6.159501e-25)
(-0.00353364 0.002999403 -2.752666e-25)
(-0.003168026 0.003425035 2.378028e-25)
(-0.005184124 0.0003332068 4.422425e-25)
(-0.005102035 0.0009957842 0)
(-0.004943989 0.00163961 9.117127e-27)
(-0.004707851 0.002261899 -4.712943e-25)
(-0.004416974 0.002835037 2.338471e-25)
(-0.004044924 0.003375775 0)
(-0.003627903 0.00385577 -2.744212e-25)
(-0.005918402 0.0003754546 0)
(-0.005824354 0.00112177 4.957717e-25)
(-0.005645225 0.001845625 0)
(-0.005384503 0.002539395 -4.609363e-25)
(-0.005044541 0.003196786 -1.790123e-26)
(-0.004621119 0.003804737 -2.126825e-26)
(-0.00414693 0.004345819 -3.412174e-25)
(-0.006746915 0.000423444 0)
(-0.006639103 0.00126513 1.138579e-24)
(-0.006435321 0.002081523 5.922243e-27)
(-0.006140457 0.0028632 8.141296e-27)
(-0.005753228 0.003605567 0)
(-0.005272098 0.004291513 0)
(-0.004733451 0.004902417 0)
(-0.00768241 0.0004778027 6.687313e-25)
(-0.007558962 0.001427446 6.550916e-25)
(-0.007327496 0.0023485 1.349059e-26)
(-0.006993022 0.003230278 9.265518e-27)
(-0.006553431 0.004067856 0)
(-0.006008677 0.004842844 5.110908e-25)
(-0.005397044 0.005533847 6.288885e-26)
(-0.008739033 0.0005392039 7.66438e-25)
(-0.008597828 0.001610874 7.503817e-25)
(-0.008335274 0.002650291 2.299927e-26)
(-0.007955946 0.003645476 2.107578e-26)
(-0.007455802 0.004589848 0)
(-0.006846055 0.005464605 5.567261e-25)
(-0.006148168 0.006248803 3.582331e-26)
(-0.009932511 0.0006084481 8.782217e-25)
(-0.009771179 0.001817724 1.712953e-24)
(-0.00947414 0.002991053 8.217029e-25)
(-0.009046214 0.004117379 0)
(-0.008475759 0.005193204 -2.302528e-25)
(-0.007811649 0.006154888 -3.465425e-25)
(-0.007000412 0.007055173 -8.139265e-26)
(-0.01128016 0.0006862938 1.005623e-24)
(-0.01109583 0.002050203 1.955808e-24)
(-0.01076023 0.003373042 1.870634e-24)
(-0.01027949 0.004640019 8.597868e-25)
(-0.009653754 0.005836728 -3.413431e-26)
(-0.008885039 0.006953089 7.225387e-25)
(-0.007965391 0.007966907 -5.938159e-25)
(-0.01280163 0.0007738729 0)
(-0.01259143 0.002311856 1.112606e-24)
(-0.0122123 0.003803924 1.063867e-24)
(-0.01166997 0.005233998 2.029489e-24)
(-0.01096718 0.006583889 0)
(-0.01009796 0.007847332 8.294535e-25)
(-0.00906071 0.0089942 -1.126485e-27)
(-0.01451836 0.0008720445 -1.31043e-24)
(-0.01427892 0.002605262 0)
(-0.01385174 0.004287275 0)
(-0.01324142 0.005900648 -3.402143e-26)
(-0.0124499 0.007424397 -1.116789e-24)
(-0.01146635 0.008849686 0)
(-0.0103102 0.01014549 8.461346e-25)
(-0.01645388 0.0009817199 -2.98952e-24)
(-0.0161817 0.002933138 0)
(-0.01570184 0.004827834 0)
(-0.01501764 0.006647976 -1.285105e-24)
(-0.01413179 0.008375513 -2.40586e-24)
(-0.01301963 0.01000968 1.107086e-24)
(-0.01176334 0.01142066 0)
(-0.01863373 0.001103801 -1.703266e-24)
(-0.01832501 0.003298181 -9.828039e-27)
(-0.01778746 0.005429657 -1.61199e-24)
(-0.01702221 0.007478088 -4.457552e-26)
(-0.01603561 0.009417995 -5.756465e-26)
(-0.01482398 0.01122925 1.272242e-24)
(-0.01337919 0.01289159 0)
(-0.0210854 0.001239152 0)
(-0.02073641 0.003703278 1.889107e-24)
(-0.0201362 0.006098789 -1.818138e-24)
(-0.01928266 0.008404734 0)
(-0.01818195 0.01059441 1.475869e-24)
(-0.01683335 0.01264258 -3.020917e-25)
(-0.01521205 0.01453806 -1.734661e-25)
(-0.02383789 0.001388263 2.20288e-24)
(-0.02344579 0.004150357 2.148429e-24)
(-0.02277845 0.006838666 -2.066589e-24)
(-0.02183129 0.009430998 0)
(-0.02060942 0.01189939 1.426571e-25)
(-0.01910943 0.01421567 2.296641e-28)
(-0.01729845 0.01637048 -1.959695e-25)
(-0.0269204 0.001551428 2.500987e-24)
(-0.02648593 0.004639153 2.437875e-24)
(-0.02574601 0.007651585 -2.349441e-24)
(-0.02470079 0.01056116 0)
(-0.02335256 0.01334105 0)
(-0.02170038 0.01597223 1.902739e-24)
(-0.01969733 0.01847241 -3.617887e-28)
(-0.03036336 0.001725635 2.838934e-24)
(-0.02989022 0.005169635 2.781258e-24)
(-0.02907195 0.008539054 0)
(-0.027925 0.01179697 -2.389403e-24)
(-0.02644207 0.01491495 1.800689e-25)
(-0.0246245 0.01785121 4.131967e-24)
(-0.02245335 0.02054975 -7.39309e-25)
(-0.03418956 0.001923419 3.205866e-24)
(-0.03370909 0.005720203 0)
(-0.0327962 0.00949431 3.074657e-24)
(-0.03154378 0.01314358 -2.796278e-24)
(-0.02992273 0.01665006 2.692308e-24)
(-0.02792395 0.01998144 4.955667e-24)
(-0.02551348 0.02309563 2.219337e-24)
(-0.03847417 0.002105539 0)
(-0.0379167 0.006334418 0)
(-0.03695641 0.01051473 6.830479e-24)
(-0.03559996 0.01459296 0)
(-0.03384683 0.01852795 6.122858e-24)
(-0.03168504 0.02229935 2.828145e-24)
(-0.02907695 0.02589197 -2.545725e-24)
(-0.04319982 0.002326256 4.100496e-24)
(-0.04255607 0.007012332 -3.949833e-24)
(-0.04161571 0.01153838 -3.817758e-24)
(-0.04015616 0.01610699 0)
(-0.03825459 0.02052689 3.477609e-24)
(-0.0359442 0.024766 0)
(-0.03315569 0.02880688 -2.228273e-24)
(-0.04840125 0.002538946 4.596649e-24)
(-0.04775986 0.007632103 -4.499637e-24)
(-0.04667311 0.01272654 -1.300955e-23)
(-0.04530296 0.01761895 -8.464244e-24)
(-0.04320129 0.02261736 3.659547e-24)
(-0.04075259 0.0273963 -3.321948e-25)
(-0.03777598 0.03198942 3.870862e-25)
(-0.05407632 0.002758021 -8.173358e-27)
(-0.05341306 0.00827848 -2.522946e-26)
(-0.0523557 0.01375779 -5.074551e-24)
(-0.05085879 0.01925659 -9.080882e-24)
(-0.04874962 0.02475563 5.062683e-24)
(-0.04618376 0.03014341 -7.31883e-25)
(-0.04305464 0.03536752 -1.718517e-24)
(-0.0602335 0.002975877 8.805353e-27)
(-0.0595436 0.008941776 2.727363e-26)
(-0.05850829 0.01490442 -5.329057e-24)
(-0.05692261 0.02097863 -3.229624e-24)
(-0.05503048 0.02676297 3.037171e-24)
(-0.05235893 0.03287984 -3.943072e-24)
(-0.04906893 0.03884272 0)
(-0.06685237 0.003174045 0)
(-0.06614613 0.009539533 0)
(-0.0651776 0.0159028 -6.160309e-24)
(-0.06376743 0.02236012 -6.500502e-24)
(-0.06173211 0.02902045 -8.929125e-24)
(-0.05946075 0.03541368 -8.580151e-24)
(-0.05591282 0.04231181 0)
(-0.07388484 0.003341199 1.966021e-26)
(-0.07316844 0.01004598 -5.910592e-26)
(-0.07228079 0.01677123 -2.039605e-25)
(-0.07104085 0.02361102 0)
(-0.06928713 0.03062557 -1.290182e-23)
(-0.0670283 0.03796477 9.154899e-25)
(-0.06375357 0.04563102 2.216533e-24)
(-0.08124066 0.003451328 7.802352e-24)
(-0.08052489 0.01039207 -6.3346e-26)
(-0.07977297 0.01741518 7.580776e-24)
(-0.0787842 0.02466589 0)
(-0.07737703 0.03228188 -8.017375e-24)
(-0.07527957 0.04049412 -9.800336e-25)
(-0.07299824 0.04854122 1.091508e-23)
(-0.08875948 0.003474304 8.548754e-24)
(-0.0881163 0.010495 8.384041e-24)
(-0.0875828 0.01772473 8.356e-24)
(-0.08697019 0.02528022 6.066188e-25)
(-0.08609864 0.03329135 1.606882e-24)
(-0.08469046 0.04185107 -4.863846e-24)
(-0.08283117 0.05126614 4.940816e-24)
(-0.09624535 0.003424125 0)
(-0.09581054 0.01026932 -9.047212e-24)
(-0.09562842 0.01759572 -9.135278e-24)
(-0.09549245 0.02539242 -3.064632e-25)
(-0.0953146 0.03381992 9.813634e-24)
(-0.09477445 0.04312448 1.042517e-24)
(-0.09349487 0.05368549 0)
(-0.1035869 0.003209563 -1.005262e-23)
(-0.1032871 0.009901764 -1.951214e-23)
(-0.1037164 0.01684757 -9.242569e-24)
(-0.1042514 0.02473274 -1.985927e-23)
(-0.1048959 0.03338651 1.076019e-23)
(-0.1055571 0.04302912 -8.91595e-24)
(-0.1056262 0.05397912 2.21891e-22)
(-0.1103889 0.002891182 -1.071547e-23)
(-0.11057 0.008993672 5.342045e-26)
(-0.1112921 0.015754 0)
(-0.1129563 0.02301219 -2.571672e-25)
(-0.1146588 0.03173382 -2.179591e-23)
(-0.1163885 0.04180002 -5.271146e-23)
(-0.1168203 0.0541368 1.050084e-22)
(-0.1163678 0.002443204 1.132122e-23)
(-0.1171001 0.007711598 -8.485801e-26)
(-0.1185325 0.01367443 -1.586082e-25)
(-0.1207394 0.02060922 2.436203e-23)
(-0.1239253 0.02859073 -8.844627e-23)
(-0.1257995 0.03990325 -1.713043e-22)
(-0.124889 0.05491584 -9.312649e-23)
(-0.1211579 0.001857356 1.179771e-23)
(-0.1225978 0.005996183 0)
(-0.1246536 0.01086706 -2.326002e-25)
(-0.1279406 0.01692073 3.92339e-23)
(-0.1306367 0.02578278 -3.464284e-22)
(-0.1318242 0.03877074 -6.755256e-22)
(-0.1292917 0.05785215 7.607034e-22)
(-0.1244806 0.001151589 0)
(-0.1266168 0.003800743 -6.290453e-26)
(-0.1292422 0.007289616 -4.040183e-22)
(-0.1329211 0.01319476 5.867594e-22)
(-0.1345071 0.02392567 -7.577517e-22)
(-0.1330405 0.04030297 -3.513383e-22)
(-0.1293652 0.06101322 5.395575e-22)
(-0.1260811 0.0003171842 0)
(-0.128674 0.001234191 -5.807129e-23)
(-0.1314467 0.00357821 2.990401e-22)
(-0.1341916 0.01055464 6.209043e-22)
(-0.1342506 0.02422893 -1.937412e-22)
(-0.1311614 0.04345694 6.560992e-23)
(-0.1254218 0.06794608 4.131026e-22)
(-0.1255573 -0.0006771515 1.223622e-23)
(-0.128454 -0.001440537 7.190835e-22)
(-0.1306152 0.00111839 7.510418e-22)
(-0.1312603 0.01019665 2.965365e-22)
(-0.1298606 0.02615054 -1.089816e-22)
(-0.1252059 0.04817647 -5.533462e-22)
(-0.1187694 0.07452726 -9.344331e-24)
(-0.1225131 -0.001779571 -2.646905e-22)
(-0.1251765 -0.003484049 3.059819e-22)
(-0.1261278 0.0005143462 4.261959e-23)
(-0.1251914 0.01199604 -2.0877e-22)
(-0.1218871 0.03087487 -1.138672e-22)
(-0.1157638 0.05504276 4.213562e-25)
(-0.1081345 0.08422098 -2.94133e-22)
(-0.1166563 -0.002578781 -5.348552e-22)
(-0.1183708 -0.004316171 -7.203279e-22)
(-0.1180621 0.001596011 -3.420674e-23)
(-0.1160553 0.0155456 -1.186497e-21)
(-0.111503 0.03665029 8.455229e-22)
(-0.1042302 0.06364241 2.567306e-22)
(-0.09486966 0.09611648 -2.302227e-22)
(-0.107916 -0.002680579 -2.353659e-22)
(-0.1083239 -0.003664908 -2.502629e-22)
(-0.1068951 0.004151036 6.796582e-23)
(-0.1040566 0.02039929 -9.77335e-22)
(-0.09874148 0.04408475 5.667594e-22)
(-0.09097869 0.07402348 2.429384e-22)
(-0.08041925 0.1091405 1.128322e-22)
(-0.09621922 -0.002153113 8.068462e-23)
(-0.09551481 -0.001486775 -1.411222e-22)
(-0.093478 0.008036511 -4.047065e-22)
(-0.08999184 0.02624781 2.039018e-23)
(-0.08408866 0.05250414 -3.56552e-23)
(-0.07583027 0.08517657 3.972916e-22)
(-0.06503254 0.1228333 1.68689e-22)
(-0.08150223 -0.0009893341 1.239605e-24)
(-0.08032419 0.001459503 -1.359872e-22)
(-0.07813342 0.01255048 -3.252903e-22)
(-0.07391441 0.03293288 2.006635e-22)
(-0.06774584 0.06188404 6.364888e-22)
(-0.05920799 0.09742234 6.377435e-22)
(-0.04817127 0.1374559 -7.898227e-22)
(-0.06436828 0.0001784061 -6.547637e-23)
(-0.06317648 0.004383394 -5.799624e-23)
(-0.06086553 0.01724178 7.539809e-23)
(-0.05687775 0.03956215 -4.374703e-23)
(-0.05104531 0.07037867 5.43761e-23)
(-0.0429783 0.1086013 5.333449e-23)
(-0.03283153 0.1529798 4.797154e-22)
(-0.04564432 0.001223753 2.05555e-23)
(-0.04469785 0.007043072 -4.299975e-23)
(-0.04276703 0.02128805 -2.464565e-23)
(-0.03968646 0.04530483 -5.057627e-23)
(-0.03501926 0.07809753 2.755307e-23)
(-0.02842388 0.1185684 2.588372e-23)
(-0.01956661 0.1650389 1.472871e-22)
(-0.02606833 0.002044661 1.311534e-23)
(-0.02544732 0.009130961 -1.923171e-23)
(-0.02419163 0.02436431 -1.814105e-23)
(-0.02215302 0.04964736 -1.029881e-22)
(-0.01907167 0.08404869 -8.466911e-23)
(-0.01474261 0.1263265 8.145767e-23)
(-0.008754219 0.1747345 7.775637e-23)
(-0.005542211 0.002534911 -5.816467e-24)
(-0.005288189 0.01038028 -4.126185e-24)
(-0.004796896 0.02613352 9.519478e-24)
(-0.004016756 0.05211103 4.125995e-24)
(-0.002891503 0.08728336 8.253603e-24)
(-0.001403901 0.13065 1.523224e-22)
(0.0006295014 0.1804869 3.672671e-23)
(0.01552558 0.002590138 3.131904e-25)
(0.01535275 0.01051715 -3.25511e-24)
(0.01500176 0.02633838 2.340014e-24)
(0.0143958 0.05236103 4.883032e-23)
(0.01337498 0.08752075 1.393176e-22)
(0.01183121 0.1307941 1.413268e-22)
(0.009546488 0.1804995 -3.373293e-23)
(0.03581484 0.002183527 2.614215e-23)
(0.0352966 0.009500981 3.030735e-24)
(0.03417239 0.02491576 -3.123981e-23)
(0.0323012 0.0503132 3.457137e-25)
(0.02930471 0.08457112 9.991234e-23)
(0.02495016 0.1266899 -5.777243e-23)
(0.01882701 0.1748986 1.923513e-22)
(0.05499678 0.001477297 3.541093e-23)
(0.05424796 0.007714338 1.003239e-23)
(0.05247486 0.0222587 -1.439023e-22)
(0.04951965 0.04645273 -1.351193e-22)
(0.04491427 0.07914761 9.530252e-23)
(0.03840012 0.1193188 1.887728e-22)
(0.02948283 0.1652579 2.071241e-22)
(0.07309573 0.0005542281 -1.481532e-23)
(0.07214981 0.005405664 -2.511667e-23)
(0.06999863 0.018741 -1.447265e-22)
(0.06609439 0.04137389 1.72319e-24)
(0.06026876 0.07218539 -3.569469e-23)
(0.05220872 0.1099803 -4.782339e-23)
(0.04205872 0.1535026 -1.765671e-22)
(0.08940427 -0.0005427621 6.644015e-23)
(0.08843709 0.002768042 2.545588e-22)
(0.08633134 0.01461967 -6.000423e-22)
(0.08212533 0.03542481 -6.048672e-23)
(0.07586589 0.06447063 2.982464e-23)
(0.06726307 0.09959432 3.015705e-22)
(0.05636208 0.1390532 -5.878807e-22)
(0.1030683 -0.001678365 1.828571e-22)
(0.102549 -7.908411e-05 1.384006e-22)
(0.1004339 0.01032917 -4.167503e-22)
(0.09688348 0.02925191 -1.455697e-22)
(0.09091683 0.05583403 -1.040038e-23)
(0.08261735 0.08839366 7.144464e-23)
(0.07178366 0.1254777 -4.971029e-22)
(0.1135163 -0.00217889 4.70077e-22)
(0.1140821 -0.002207586 -4.33576e-22)
(0.1126832 0.006715336 5.485242e-22)
(0.1098068 0.02394817 8.307851e-23)
(0.104403 0.04808762 1.198973e-23)
(0.09644383 0.07802385 -4.085701e-22)
(0.08557635 0.1126569 -3.666527e-22)
(0.120891 -0.002030714 -3.215774e-22)
(0.1226868 -0.002742 -1.441765e-22)
(0.1225208 0.004235132 8.201437e-22)
(0.1204643 0.01932676 -2.016937e-22)
(0.1156709 0.04107933 3.919339e-22)
(0.1081075 0.06807487 -6.354134e-22)
(0.09833603 0.1002085 -1.015254e-21)
(0.1253744 -0.001204856 -6.918623e-22)
(0.1279057 -0.00183385 -7.044434e-23)
(0.1290391 0.00318569 5.471016e-22)
(0.1282391 0.01572865 2.38035e-22)
(0.1246481 0.0353662 -3.997478e-22)
(0.1181181 0.05964476 -8.314345e-22)
(0.1102573 0.08868463 -6.927041e-22)
(0.1270966 -0.0001542091 1.244598e-23)
(0.1297307 0.0001671777 -4.068916e-22)
(0.1319897 0.003790472 3.734629e-22)
(0.1328031 0.01377673 9.38856e-22)
(0.1314458 0.03045566 -9.376629e-22)
(0.1264981 0.05303104 -2.764235e-22)
(0.1195079 0.07947548 -1.093696e-22)
(0.1265219 0.0007831982 0)
(0.1287564 0.002677842 -2.300328e-22)
(0.1315536 0.005976072 5.417839e-22)
(0.1343407 0.01382516 8.876097e-22)
(0.1346449 0.02829067 -4.955724e-22)
(0.1313272 0.04785216 -1.410326e-22)
(0.124837 0.07212216 -9.901611e-22)
(0.1239728 0.001555964 0)
(0.1257333 0.004984402 9.647964e-26)
(0.1283428 0.00926747 1.21272e-22)
(0.1319137 0.01594623 4.079348e-22)
(0.1335742 0.02737284 -4.665408e-22)
(0.1321577 0.04425373 -1.212007e-21)
(0.1275967 0.06488635 -1.057271e-21)
(0.1198654 0.002187637 1.170879e-23)
(0.1209457 0.006933435 0)
(0.1229699 0.01238368 0)
(0.1260663 0.01899433 1.005236e-22)
(0.1286964 0.02840773 2.815492e-23)
(0.1296271 0.04194343 -8.687079e-22)
(0.1266588 0.06087445 6.280495e-22)
(0.1144458 0.002699537 1.115537e-23)
(0.1149164 0.00840594 9.639887e-26)
(0.1162598 0.01473892 1.767044e-25)
(0.1183315 0.0220081 1.73502e-24)
(0.1211442 0.03036057 3.737566e-22)
(0.1227552 0.04191308 -1.684212e-22)
(0.1217214 0.05718895 1.200061e-21)
(0.1080149 0.003073224 0)
(0.108042 0.009458111 -1.046547e-23)
(0.1087045 0.0164027 0)
(0.1100842 0.02385202 5.581762e-25)
(0.1115085 0.03265745 7.813897e-25)
(0.1128618 0.04285713 -3.157715e-23)
(0.1131596 0.05512931 6.515657e-22)
(0.1009157 0.003320504 0)
(0.1005955 0.0101567 9.646171e-24)
(0.1008837 0.0172008 -9.666243e-24)
(0.1012357 0.02507853 0)
(0.1016157 0.03375463 1.569181e-24)
(0.1020592 0.04321935 -5.429557e-24)
(0.1016892 0.05417831 -4.826764e-23)
(0.09342621 0.003466658 0)
(0.09301561 0.01038705 2.674455e-23)
(0.09275958 0.0176831 1.207841e-26)
(0.09246446 0.02544876 1.863376e-23)
(0.09212881 0.03366602 1.600545e-24)
(0.09128322 0.04287085 -8.477249e-24)
(0.08970845 0.05322232 9.057213e-24)
(0.08587514 0.003466257 -8.264679e-24)
(0.08533038 0.01045553 8.278879e-24)
(0.08476929 0.017605 -2.535005e-27)
(0.08407991 0.02505909 1.545907e-23)
(0.0830068 0.03293651 0)
(0.0814088 0.04129103 0)
(0.07930991 0.0503933 1.13197e-23)
(0.07840313 0.003398563 -7.496418e-24)
(0.07778863 0.01025118 7.471408e-24)
(0.07703067 0.01720151 -7.279005e-24)
(0.07603692 0.02426887 -7.126971e-24)
(0.07447475 0.03176082 0)
(0.07226016 0.03972067 0)
(0.06986176 0.04748643 8.017597e-24)
(0.0711664 0.003266854 6.799415e-24)
(0.07051269 0.009852957 6.914018e-24)
(0.06966163 0.0164216 1.960869e-25)
(0.06837629 0.02317831 -6.091703e-24)
(0.06651433 0.03014274 -2.031824e-24)
(0.06423819 0.03706894 8.898978e-24)
(0.06099387 0.04450393 -4.32736e-24)
(0.0642928 0.003084091 6.134384e-24)
(0.06364982 0.009286746 5.688004e-26)
(0.06268385 0.01550348 -1.877589e-25)
(0.06125861 0.02178734 -2.659465e-25)
(0.05928392 0.02821574 0)
(0.05680082 0.03457407 5.775922e-24)
(0.05343473 0.04114698 -4.74099e-24)
(0.05784529 0.002891901 0)
(0.05721946 0.008670658 1.044653e-25)
(0.05618853 0.01448156 1.766472e-25)
(0.05462172 0.0203853 -1.169354e-23)
(0.05276774 0.02601174 -2.343411e-24)
(0.05004453 0.03193254 -8.163659e-24)
(0.04684111 0.03765512 -3.196625e-24)
(0.05187822 0.002669381 1.583603e-26)
(0.05125282 0.008019347 4.900386e-26)
(0.05021557 0.01333522 0)
(0.04874308 0.01866238 1.329631e-26)
(0.04666936 0.02398391 -4.208932e-24)
(0.04412718 0.02918019 -3.918763e-24)
(0.04105753 0.03419994 8.316205e-25)
(0.04638742 0.002454431 -4.343802e-24)
(0.04577429 0.007379436 4.366967e-24)
(0.04471448 0.01230819 -7.486803e-24)
(0.04337119 0.01703653 8.756447e-24)
(0.04131275 0.02186013 -3.432851e-24)
(0.03890849 0.02646016 0)
(0.03599418 0.03086726 -7.490546e-25)
(0.04136312 0.002244904 -3.871003e-24)
(0.0407438 0.006768764 3.724689e-24)
(0.0398285 0.01113783 -3.595322e-24)
(0.03840492 0.01554415 0)
(0.03654855 0.01980087 3.259909e-24)
(0.03429194 0.02387402 0)
(0.03157181 0.02774486 -2.717503e-24)
(0.03680554 0.002029006 0)
(0.03626803 0.006104792 0)
(0.03533621 0.01013291 6.414652e-24)
(0.03401732 0.01405949 0)
(0.03231149 0.01784281 5.721421e-24)
(0.03020841 0.021461 2.632336e-24)
(0.02767397 0.02489742 -2.356429e-24)
(0.03267942 0.00185102 3.008287e-24)
(0.03221598 0.005505132 0)
(0.031332 0.009136424 2.769707e-24)
(0.03011738 0.01264492 -2.76322e-24)
(0.02854482 0.0160116 2.507475e-24)
(0.02660681 0.01920378 4.596528e-24)
(0.02427237 0.02217962 2.046595e-24)
(0.02899951 0.001658793 2.645899e-24)
(0.0285434 0.004969394 2.569734e-24)
(0.02775232 0.008207279 0)
(0.02664256 0.01133572 -2.493503e-24)
(0.02520778 0.01432609 -1.726868e-25)
(0.02345033 0.01713709 4.222912e-24)
(0.02135326 0.01971396 7.091172e-25)
(0.02569199 0.001489858 2.331596e-24)
(0.02527346 0.004454971 2.270594e-24)
(0.02455917 0.007346846 -2.184754e-24)
(0.02354984 0.01013806 0)
(0.02224832 0.01280195 0)
(0.02065468 0.01531929 1.751216e-24)
(0.01872505 0.01770611 -3.151505e-24)
(0.02273356 0.001332063 2.04629e-24)
(0.02235611 0.003982228 1.993705e-24)
(0.02171273 0.006560784 -1.914463e-24)
(0.02079961 0.009045767 0)
(0.01962217 0.01140973 -1.363219e-25)
(0.0181781 0.01362518 -2.108373e-28)
(0.01643619 0.01568238 1.869092e-25)
(0.02009401 0.001188154 0)
(0.01975825 0.003550741 1.74602e-24)
(0.01918021 0.005846848 -1.67738e-24)
(0.01835839 0.00805595 0)
(0.0172991 0.01015207 1.589644e-24)
(0.01600235 0.01211088 2.879637e-25)
(0.01444463 0.01392146 1.651927e-25)
(0.01774453 0.001057737 -1.569248e-24)
(0.01744767 0.003160408 9.376019e-27)
(0.0169304 0.005202203 -1.450051e-24)
(0.01619426 0.007163538 4.248589e-26)
(0.01524559 0.009019788 5.219317e-26)
(0.01408113 0.01075178 1.153229e-24)
(0.01269315 0.01234062 0)
(0.01565673 0.000940251 -2.741294e-24)
(0.01539516 0.002809104 0)
(0.01493373 0.004623088 0)
(0.01427602 0.006364875 -1.244166e-24)
(0.01342479 0.008016976 -2.273936e-24)
(0.01235637 0.009578565 9.969825e-25)
(0.01114909 0.01092499 0)
(0.01380389 0.0008348192 -1.195316e-24)
(0.01357392 0.002493901 7.328886e-27)
(0.01316343 0.004103442 1.209172e-26)
(0.01257715 0.005646532 3.397086e-26)
(0.01181707 0.007102893 -9.249766e-25)
(0.01087249 0.00846373 0)
(0.009762809 0.00969908 7.483862e-25)
(0.01216122 0.0007405458 1.077737e-27)
(0.0119595 0.002212129 1.023313e-24)
(0.01159546 0.003639243 9.816507e-25)
(0.01107491 0.005006322 1.825943e-24)
(0.01040057 0.006295755 0)
(0.009566539 0.007501137 7.350996e-25)
(0.008572285 0.008593302 -1.06194e-27)
(0.01070593 0.0006565062 9.040401e-25)
(0.01052932 0.001961088 1.764689e-24)
(0.01020736 0.003225876 1.696121e-24)
(0.009746306 0.004436508 8.178578e-25)
(0.009146466 0.005579064 3.231829e-26)
(0.008409796 0.006643542 6.346046e-25)
(0.007529655 0.007608458 -5.992866e-25)
(0.009417205 0.0005818452 7.851736e-25)
(0.009262709 0.001738132 1.528748e-24)
(0.008978167 0.00285965 7.311656e-25)
(0.008568402 0.003935631 0)
(0.008022159 0.00496248 2.184511e-25)
(0.00738656 0.005879236 3.280475e-25)
(0.006611322 0.006736169 7.679271e-26)
(0.008276239 0.0005154814 6.808192e-25)
(0.008141203 0.001539917 6.596211e-25)
(0.007889917 0.00253322 -2.175123e-26)
(0.007527089 0.003483813 -1.992176e-26)
(0.00704878 0.004385258 0)
(0.006466125 0.005219316 4.79054e-25)
(0.005799946 0.005966101 -3.376311e-26)
(0.007266478 0.0004566995 5.884245e-25)
(0.007148491 0.001364345 5.7018e-25)
(0.006927135 0.002244441 -1.274045e-26)
(0.006607463 0.003086677 -8.747174e-27)
(0.006187449 0.003886249 0)
(0.005667683 0.004625573 3.843384e-25)
(0.005084278 0.005284091 -5.923166e-26)
(0.006372525 0.0004047253 -5.674585e-28)
(0.006269542 0.001209165 9.845097e-25)
(0.006074802 0.001989259 -5.586975e-27)
(0.005793209 0.00273593 -7.677628e-27)
(0.005423517 0.003444721 0)
(0.004964833 0.004099319 0)
(0.004451519 0.004682034 0)
(0.005580728 0.0003588879 0)
(0.005490963 0.001072252 4.238221e-25)
(0.005319913 0.001764009 0)
(0.005071099 0.002426821 -3.634923e-25)
(0.00474682 0.003054625 1.686256e-26)
(0.004343412 0.003634939 2.00165e-26)
(0.003891801 0.004151233 -2.30666e-25)
(0.004878867 0.0003185694 3.736625e-25)
(0.004800566 0.0009520489 0)
(0.004649789 0.001567492 -8.58866e-27)
(0.004424591 0.002162177 -2.417021e-25)
(0.004147458 0.002709691 4.061403e-25)
(0.003793242 0.003225995 0)
(0.003396373 0.00368406 -2.134793e-25)
(0.004256084 0.0002830152 3.190527e-25)
(0.004187747 0.0008458563 0)
(0.00405547 0.001392086 -3.775254e-27)
(0.003860528 0.001918126 -5.19058e-27)
(0.003608058 0.002413676 4.922018e-25)
(0.003304942 0.002867579 -2.14942e-25)
(0.002957408 0.003273845 1.792646e-25)
(0.003702609 0.0002518043 0)
(0.003643382 0.000752856 2.613082e-25)
(0.003527971 0.001239227 -3.318743e-27)
(0.003358336 0.001708001 -2.296759e-25)
(0.003135188 0.002149539 2.074454e-25)
(0.00287185 0.002552661 -1.802181e-25)
(0.002567876 0.002914285 -2.034813e-28)
(0.003209841 0.0002247735 0)
(0.003158675 0.000671858 2.223287e-25)
(0.003058171 0.001105718 -2.108911e-25)
(0.002910573 0.001524144 -1.970484e-25)
(0.002715668 0.00191811 1.689332e-25)
(0.002486428 0.002277587 -1.180383e-26)
(0.002221462 0.002600179 -1.229917e-25)
(0.002770014 0.0002012945 0)
(0.002725895 0.0006014405 0)
(0.002638685 0.0009897742 -1.76338e-25)
(0.002510771 0.00136423 1.611618e-25)
(0.002341631 0.001716605 -1.235127e-28)
(0.002142672 0.002038277 0)
(0.001912645 0.002326893 0)
(0.002376279 0.0001811674 1.598923e-25)
(0.002337991 0.0005406704 -1.54704e-25)
(0.002262848 0.0008894334 -7.077674e-26)
(0.002152728 0.001225942 1.359892e-25)
(0.002006829 0.001542305 1.046131e-28)
(0.001835085 0.001831135 -9.117772e-27)
(0.001636511 0.002090356 -1.798524e-30)
(0.002021224 0.0001633843 -1.583245e-29)
(0.001989905 0.0004880757 -1.269733e-25)
(0.001925079 0.0008036372 -5.76674e-26)
(0.00183047 0.001107379 2.751926e-27)
(0.001705834 0.001392506 1.952854e-25)
(0.001558582 0.001653187 4.027405e-27)
(0.001388517 0.001887135 0)
(0.001701878 0.0001501464 -1.057052e-25)
(0.001672385 0.0004446002 5.099282e-26)
(0.001620048 0.0007295532 4.800241e-26)
(0.001539893 0.001006255 0)
(0.001433346 0.001265336 7.568206e-26)
(0.001308614 0.001501685 3.573832e-27)
(0.001164478 0.001714309 4.026393e-27)
(0.001410958 0.0001341775 0)
(0.001385525 0.0004073131 3.986065e-26)
(0.001337512 0.0006733482 2.460513e-26)
(0.001276377 0.0009202225 -1.725724e-26)
(0.00118519 0.001157689 3.164767e-26)
(0.00108111 0.001374847 3.200293e-27)
(0.0009591951 0.001568561 0)
(0.001141492 0.000124969 0)
(0.001124454 0.0003740279 4.428322e-28)
(0.001083561 0.000621494 -7.310988e-28)
(0.001028025 0.0008540064 2.467834e-26)
(0.0009579905 0.001068869 2.433858e-27)
(0.0008713355 0.001269161 -2.29767e-26)
(0.000778428 0.001456697 -5.151422e-26)
(0.0008912987 0.0001172286 -6.90019e-29)
(0.0008781218 0.0003505495 2.028221e-26)
(0.0008488457 0.0005782386 3.739825e-26)
(0.0008014611 0.0007972436 3.145828e-26)
(0.0007458131 0.0009988135 -3.400923e-26)
(0.0006843542 0.001192509 -2.114911e-26)
(0.0006098035 0.001366224 2.545708e-28)
(0.0006528338 0.0001110262 -1.297486e-26)
(0.0006455124 0.0003320013 2.453093e-26)
(0.0006240924 0.0005480078 2.243828e-26)
(0.0005906765 0.0007517863 1.015021e-26)
(0.0005545396 0.0009518048 -2.63356e-28)
(0.0005087647 0.001133755 0)
(0.0004523119 0.001296779 -5.226805e-29)
(0.0004117089 0.0001062655 -3.471748e-27)
(0.0004179618 0.0003209985 3.725308e-27)
(0.0004088552 0.0005263271 9.662355e-27)
(0.0003950347 0.0007311007 2.623781e-26)
(0.0003740821 0.0009196569 1.622441e-26)
(0.0003429617 0.001091681 0)
(0.0003033616 0.00124694 1.19795e-31)
(0.0001147158 0.0001078411 8.034827e-29)
(0.0001698301 0.000327212 1.196623e-28)
(0.0002045718 0.0005310716 0)
(0.0002076529 0.0007235841 0)
(0.0002011656 0.0009027955 1.590411e-26)
(0.000183837 0.001065865 -3.022731e-29)
(0.0001608363 0.001216096 -2.043346e-26)
(8.133035e-05 0.0001036334 1.125436e-26)
(-3.034263e-06 0.0003847131 -2.127826e-28)
(1.180162e-05 0.0005662879 -2.277809e-26)
(3.212711e-05 0.0007349986 0)
(2.972557e-05 0.0009009322 0)
(2.782732e-05 0.00105579 -6.784496e-29)
(2.239393e-05 0.001203844 0)
(-0.0001028151 0.001337832 -4.740455e-29)
(-8.871312e-05 0.001444112 -2.264658e-26)
(-7.423687e-05 0.001529215 -5.732019e-27)
(-4.227579e-05 0.001578536 -3.002286e-32)