/*--------------------------------*- C++ -*----------------------------------*\
| =========                 |                                                 |
| \\      /  F ield         | OpenFOAM: The Open Source CFD Toolbox           |
|  \\    /   O peration     | Version:  2206                                  |
|   \\  /    A nd           | Website:  www.openfoam.com                      |
|    \\/     M anipulation  |                                                 |
\*---------------------------------------------------------------------------*/
FoamFile
{
    version     2.0;
    format      ascii;
    arch        "LSB;label=32;scalar=64";
    class       volVectorField;
    location    "2.8";
    object      ddtCorrDdt0(U.a);
}
// * * * * * * * * * * * * * * * * * * * * * * * * * * * * * * * * * * * * * //

dimensions      [0 1 -2 0 0 0 0];

internalField   nonuniform List<vector> 
13078
(
(3.692067e-05 -0.0009248226 3.271393e-26)
(6.142204e-06 -0.0001611699 1.499012e-30)
(9.313903e-07 -5.772206e-05 -1.677663e-28)
(2.773744e-07 -1.869648e-05 0)
(2.601455e-07 -1.107296e-05 5.075094e-30)
(2.868059e-07 -9.492453e-06 6.54915e-30)
(2.776764e-07 -8.503592e-06 7.155123e-30)
(-0.0001895128 -0.0001751059 0)
(-8.350496e-05 -0.0001030607 3.318851e-31)
(-2.043034e-05 -3.749299e-05 0)
(-4.641611e-06 -1.441057e-05 0)
(-9.664915e-07 -1.032454e-05 1.012549e-31)
(-2.178963e-07 -9.250202e-06 4.624134e-32)
(6.293975e-08 -8.423118e-06 8.430963e-32)
(-4.138023e-05 -2.297227e-05 -1.927946e-29)
(-2.92441e-05 -2.703468e-05 2.089757e-29)
(-1.000172e-05 -1.493701e-05 1.35716e-29)
(-3.770003e-06 -1.045982e-05 -3.739637e-30)
(-1.434055e-06 -9.419236e-06 -6.035249e-30)
(-4.258151e-07 -8.701125e-06 0)
(-1.535559e-08 -8.116535e-06 4.369176e-35)
(-8.576708e-06 -3.749114e-06 -1.445633e-29)
(-8.898023e-06 -7.7558e-06 2.962463e-29)
(-4.904101e-06 -8.198119e-06 2.607531e-29)
(-2.605066e-06 -8.347985e-06 1.097973e-29)
(-1.04689e-06 -8.181527e-06 -3.362663e-31)
(-2.410181e-07 -7.964075e-06 0)
(1.086528e-07 -7.674313e-06 -1.355282e-31)
(-1.939508e-06 -1.059501e-06 -1.026756e-32)
(-2.657211e-06 -3.086122e-06 1.635699e-29)
(-2.224412e-06 -5.390442e-06 3.110111e-29)
(-1.155647e-06 -6.478655e-06 2.929596e-29)
(-2.901744e-07 -7.001051e-06 -5.427072e-30)
(2.174593e-07 -7.220427e-06 6.361993e-34)
(4.185942e-07 -7.199493e-06 -8.397761e-30)
(-7.87464e-07 -7.518242e-07 0)
(-1.021044e-06 -2.345173e-06 -1.685829e-31)
(-5.627871e-07 -4.029142e-06 2.770677e-31)
(9.330068e-08 -5.265039e-06 1.745556e-29)
(5.872264e-07 -6.09312e-06 -9.467813e-31)
(8.351502e-07 -6.594104e-06 8.531496e-30)
(8.716168e-07 -6.77534e-06 1.949461e-29)
(-3.819858e-07 -6.227594e-07 0)
(-1.106143e-07 -1.947529e-06 2.36383e-29)
(5.47962e-07 -3.34277e-06 2.739894e-29)
(1.13748e-06 -4.551e-06 6.630541e-30)
(1.477238e-06 -5.497588e-06 1.800025e-29)
(1.554375e-06 -6.139328e-06 -1.209796e-30)
(1.431728e-06 -6.44662e-06 0)
(-2.219117e-07 -5.706216e-07 -4.553647e-29)
(4.547026e-07 -1.75932e-06 2.778454e-29)
(1.382e-06 -3.012131e-06 2.651476e-29)
(2.055486e-06 -4.177954e-06 0)
(2.360402e-06 -5.162431e-06 4.500648e-29)
(2.336412e-06 -5.870564e-06 -1.354155e-30)
(2.077477e-06 -6.237176e-06 -1.515772e-30)
(-1.495366e-07 -5.561241e-07 -5.255234e-33)
(8.630151e-07 -1.693593e-06 -6.487758e-29)
(2.080937e-06 -2.887516e-06 -3.183939e-29)
(2.910873e-06 -4.027466e-06 -1.06516e-30)
(3.245237e-06 -5.027986e-06 1.042879e-28)
(3.162223e-06 -5.769844e-06 -1.524282e-30)
(2.790631e-06 -6.163035e-06 0)
(-1.136937e-07 -5.640701e-07 6.209742e-29)
(1.201253e-06 -1.700996e-06 -7.561069e-29)
(2.723395e-06 -2.887676e-06 -3.614757e-29)
(3.743795e-06 -4.029547e-06 6.791021e-29)
(4.144087e-06 -5.048894e-06 4.040571e-32)
(4.027667e-06 -5.81506e-06 0)
(3.556622e-06 -6.220321e-06 0)
(-9.648734e-08 -5.887629e-07 0)
(1.511975e-06 -1.760972e-06 0)
(3.350498e-06 -2.976156e-06 -8.392546e-29)
(4.584344e-06 -4.146765e-06 7.889817e-29)
(5.071597e-06 -5.198015e-06 -4.757555e-32)
(4.935792e-06 -5.990704e-06 0)
(4.371919e-06 -6.402908e-06 0)
(-9.188156e-08 -6.273993e-07 0)
(1.816431e-06 -1.863679e-06 1.015134e-28)
(3.989537e-06 -3.136571e-06 -9.713907e-29)
(5.454932e-06 -4.360779e-06 -8.972028e-29)
(6.042947e-06 -5.461331e-06 8.466388e-29)
(5.894995e-06 -6.288656e-06 0)
(5.239986e-06 -6.706806e-06 -6.77237e-29)
(-9.698567e-08 -6.789182e-07 0)
(2.127253e-06 -2.005051e-06 1.179292e-28)
(4.659294e-06 -3.362367e-06 1.263341e-30)
(6.374908e-06 -4.664565e-06 -1.054255e-28)
(7.073643e-06 -5.832623e-06 9.556231e-29)
(6.917989e-06 -6.705279e-06 -8.459787e-29)
(6.169517e-06 -7.131413e-06 -7.636019e-32)
(-1.102783e-07 -7.43349e-07 1.106155e-28)
(2.453707e-06 -2.185048e-06 0)
(5.376385e-06 -3.652996e-06 1.433182e-30)
(7.362752e-06 -5.056182e-06 1.990621e-30)
(8.178215e-06 -6.309138e-06 2.209323e-28)
(8.018695e-06 -7.240753e-06 -9.773589e-29)
(7.172295e-06 -7.67947e-06 8.400752e-29)
(-1.31117e-07 -8.21771e-07 1.27174e-28)
(2.804326e-06 -2.406157e-06 0)
(6.160109e-06 -4.012084e-06 3.246621e-30)
(8.440613e-06 -5.533999e-06 -1.70287e-28)
(9.376628e-06 -6.88657e-06 8.501514e-29)
(9.212923e-06 -7.897976e-06 0)
(8.263179e-06 -8.357248e-06 -9.685986e-29)
(-1.596501e-07 -9.155744e-07 0)
(3.185791e-06 -2.672105e-06 1.780155e-28)
(7.025203e-06 -4.446668e-06 0)
(9.637818e-06 -6.118495e-06 -1.650425e-28)
(1.070768e-05 -7.589168e-06 -6.426455e-30)
(1.053088e-05 -8.694125e-06 -7.478348e-30)
(9.463452e-06 -9.178334e-06 -1.201758e-28)
(-1.964946e-07 -1.026334e-06 0)
(3.602333e-06 -2.986596e-06 4.083267e-28)
(7.976285e-06 -4.960457e-06 2.097102e-30)
(1.096153e-05 -6.817369e-06 2.881387e-30)
(1.218579e-05 -8.438014e-06 0)
(1.199712e-05 -9.648787e-06 0)
(1.079665e-05 -1.016224e-05 0)
(-2.414777e-07 -1.156478e-06 1.91526e-28)
(4.062738e-06 -3.356993e-06 2.346353e-28)
(9.032736e-06 -5.565817e-06 4.770603e-30)
(1.243379e-05 -7.641004e-06 3.274837e-30)
(1.383617e-05 -9.443958e-06 0)
(1.363526e-05 -1.07818e-05 1.813654e-28)
(1.228875e-05 -1.133435e-05 2.177009e-29)
(-2.941844e-07 -1.309365e-06 2.191995e-28)
(4.577416e-06 -3.793274e-06 2.684296e-28)
(1.021836e-05 -6.279547e-06 8.123159e-30)
(1.408979e-05 -8.612605e-06 7.440287e-30)
(1.569274e-05 -1.063049e-05 0)
(1.546902e-05 -1.211615e-05 1.978785e-28)
(1.396712e-05 -1.272482e-05 1.238596e-29)
(-3.543055e-07 -1.489292e-06 2.508159e-28)
(5.15778e-06 -4.307461e-06 6.120321e-28)
(1.155949e-05 -7.121355e-06 2.922032e-28)
(1.597345e-05 -9.760543e-06 0)
(1.781247e-05 -1.202059e-05 -8.19596e-29)
(1.754702e-05 -1.367199e-05 -1.230697e-28)
(1.586073e-05 -1.436141e-05 -2.82002e-29)
(-4.21655e-07 -1.700821e-06 2.867997e-28)
(5.815163e-06 -4.912075e-06 6.980061e-28)
(1.307927e-05 -8.111018e-06 6.642578e-28)
(1.811681e-05 -1.1114e-05 3.0393e-28)
(2.024962e-05 -1.367563e-05 -1.199202e-29)
(1.992539e-05 -1.549966e-05 2.605738e-28)
(1.801475e-05 -1.628203e-05 -2.089823e-28)
(-4.963171e-07 -1.948167e-06 0)
(6.559505e-06 -5.617893e-06 3.964961e-28)
(1.479268e-05 -9.260552e-06 3.772063e-28)
(2.051889e-05 -1.267267e-05 7.159113e-28)
(2.29603e-05 -1.557294e-05 0)
(2.258611e-05 -1.760495e-05 2.987765e-28)
(2.042874e-05 -1.84725e-05 -3.907222e-31)
(-5.790274e-07 -2.235386e-06 -3.725526e-28)
(7.400731e-06 -6.435144e-06 0)
(1.672127e-05 -1.05826e-05 0)
(2.32097e-05 -1.444553e-05 -1.188825e-29)
(2.59774e-05 -1.769898e-05 -3.937712e-28)
(2.552935e-05 -1.993049e-05 0)
(2.304388e-05 -2.083341e-05 2.976712e-28)
(-6.714404e-07 -2.566183e-06 -8.485898e-28)
(8.347412e-06 -7.372315e-06 0)
(1.88842e-05 -1.208519e-05 0)
(2.621395e-05 -1.643332e-05 -4.520486e-28)
(2.932933e-05 -2.003963e-05 -8.454466e-28)
(2.878447e-05 -2.240578e-05 3.957911e-28)
(2.58181e-05 -2.322253e-05 0)
(-7.760482e-07 -2.944101e-06 -4.827386e-28)
(9.406427e-06 -8.436904e-06 -3.465688e-30)
(2.129535e-05 -1.377332e-05 -5.69055e-28)
(2.953966e-05 -1.862928e-05 -1.553823e-29)
(3.300367e-05 -2.25721e-05 -1.995304e-29)
(3.232701e-05 -2.503076e-05 4.471111e-28)
(2.866327e-05 -2.555319e-05 0)
(-8.957812e-07 -3.3733e-06 0)
(1.05842e-05 -9.63856e-06 6.695307e-28)
(2.396705e-05 -1.565464e-05 -6.410239e-28)
(3.318282e-05 -2.102169e-05 0)
(3.692708e-05 -2.522506e-05 5.151222e-28)
(3.5904e-05 -2.762201e-05 -1.047612e-28)
(3.137836e-05 -2.770195e-05 -6.155339e-29)
(-1.032408e-06 -3.860284e-06 6.2249e-28)
(1.189073e-05 -1.099593e-05 7.605258e-28)
(2.6925e-05 -1.775808e-05 -7.277039e-28)
(3.71783e-05 -2.364757e-05 0)
(4.114115e-05 -2.804553e-05 4.933127e-29)
(3.958998e-05 -3.023587e-05 8.019842e-32)
(3.397637e-05 -2.972246e-05 -6.957225e-29)
(-1.187079e-06 -4.4134e-06 7.05556e-28)
(1.333503e-05 -1.253747e-05 8.622378e-28)
(3.020971e-05 -2.013789e-05 -8.263394e-28)
(4.159847e-05 -2.659503e-05 0)
(4.575858e-05 -3.117495e-05 0)
(4.35739e-05 -3.31139e-05 6.618003e-28)
(3.683707e-05 -3.204545e-05 -6.018607e-30)
(-1.358336e-06 -5.042924e-06 7.993434e-28)
(1.4927e-05 -1.429916e-05 9.835351e-28)
(3.386781e-05 -2.28651e-05 0)
(4.65397e-05 -2.998792e-05 -8.349949e-28)
(5.093922e-05 -3.48162e-05 6.212632e-29)
(4.811049e-05 -3.659174e-05 1.428353e-27)
(4.041582e-05 -3.53356e-05 -2.554265e-28)
(-1.552181e-06 -5.737591e-06 8.989731e-28)
(1.660757e-05 -1.628705e-05 0)
(3.791762e-05 -2.599957e-05 1.080613e-27)
(5.208193e-05 -3.393891e-05 -9.759755e-28)
(5.681061e-05 -3.91259e-05 9.339359e-28)
(5.32769e-05 -4.073751e-05 1.709455e-27)
(4.421825e-05 -3.892024e-05 7.695612e-28)
(-1.742439e-06 -6.51049e-06 0)
(1.852489e-05 -1.853543e-05 0)
(4.239006e-05 -2.957951e-05 2.404822e-27)
(5.826201e-05 -3.85278e-05 0)
(6.348105e-05 -4.42753e-05 2.121506e-27)
(5.93285e-05 -4.59283e-05 9.741744e-28)
(4.901533e-05 -4.379325e-05 -8.759659e-28)
(-1.925775e-06 -7.39951e-06 1.135041e-27)
(2.066048e-05 -2.101546e-05 -1.396126e-27)
(4.713087e-05 -3.353495e-05 -1.355634e-27)
(6.496802e-05 -4.372456e-05 0)
(7.090867e-05 -5.027821e-05 1.204276e-27)
(6.626059e-05 -5.223887e-05 0)
(5.476001e-05 -5.008129e-05 -7.636874e-28)
(-2.108958e-06 -8.376755e-06 1.267426e-27)
(2.30832e-05 -2.373907e-05 -1.571159e-27)
(5.243482e-05 -3.78168e-05 -4.608492e-27)
(7.213958e-05 -4.940634e-05 -3.006364e-27)
(7.893425e-05 -5.699605e-05 1.271744e-27)
(7.387464e-05 -5.948889e-05 -1.13398e-28)
(6.117382e-05 -5.751128e-05 1.310947e-28)
(-2.327921e-06 -9.414928e-06 -2.238607e-30)
(2.585947e-05 -2.672759e-05 -8.711374e-30)
(5.840212e-05 -4.252432e-05 -1.769945e-27)
(8.013449e-05 -5.556148e-05 -3.235838e-27)
(8.744752e-05 -6.428105e-05 1.766838e-27)
(8.185738e-05 -6.743136e-05 -2.498225e-28)
(6.78396e-05 -6.573522e-05 -5.81419e-28)
(-2.62642e-06 -1.047376e-05 2.407045e-30)
(2.868079e-05 -2.979761e-05 9.400134e-30)
(6.487653e-05 -4.748609e-05 -1.847275e-27)
(8.870872e-05 -6.200776e-05 -1.148939e-27)
(9.619446e-05 -7.188704e-05 1.073796e-27)
(8.968898e-05 -7.577132e-05 -1.370171e-27)
(7.431199e-05 -7.45201e-05 0)
(-3.016361e-06 -1.152253e-05 0)
(3.150083e-05 -3.287897e-05 0)
(7.160876e-05 -5.257973e-05 -2.122809e-27)
(9.795023e-05 -6.884403e-05 -2.25328e-27)
(0.0001057228 -7.983406e-05 -3.167835e-27)
(9.748492e-05 -8.454124e-05 -3.046191e-27)
(8.018088e-05 -8.376257e-05 0)
(-3.534168e-06 -1.252314e-05 5.355169e-30)
(3.413815e-05 -3.586836e-05 -2.032563e-29)
(7.813407e-05 -5.761017e-05 -6.988663e-29)
(0.0001072176 -7.589078e-05 0)
(0.0001157238 -8.852771e-05 -4.483793e-27)
(0.000105466 -9.403795e-05 3.259497e-28)
(8.536739e-05 -9.386895e-05 7.624783e-28)
(-4.230243e-06 -1.345741e-05 2.133202e-27)
(3.638718e-05 -3.871023e-05 -2.179655e-29)
(8.409984e-05 -6.246151e-05 2.612466e-27)
(0.0001156944 -8.282204e-05 0)
(0.0001249155 -9.747891e-05 -2.76214e-27)
(0.0001134114 -0.0001045303 -3.662084e-28)
(9.027503e-05 -0.0001056725 3.855578e-27)
(-5.164212e-06 -1.430828e-05 2.336998e-27)
(3.795587e-05 -4.138063e-05 2.908012e-27)
(8.914798e-05 -6.716589e-05 2.885024e-27)
(0.0001230977 -8.983441e-05 2.073624e-28)
(0.0001332139 -0.0001071539 5.468805e-28)
(0.0001216113 -0.0001171523 -1.694113e-27)
(9.575565e-05 -0.0001203897 1.75887e-27)
(-6.38956e-06 -1.502772e-05 0)
(3.834247e-05 -4.382764e-05 -3.164857e-27)
(9.259385e-05 -7.180204e-05 -3.173809e-27)
(0.0001286647 -9.709087e-05 -1.049434e-28)
(0.0001395253 -0.0001176318 3.35477e-27)
(0.0001278639 -0.0001315017 3.555e-28)
(0.0001019137 -0.0001388213 0)
(-7.710052e-06 -1.570893e-05 -2.717036e-27)
(3.785388e-05 -4.624542e-05 -6.829419e-27)
(9.368921e-05 -7.651288e-05 -3.261726e-27)
(0.000131447 -0.0001050411 -6.89498e-27)
(0.0001431303 -0.0001296229 3.682062e-27)
(0.0001321787 -0.0001486022 -3.030407e-27)
(0.0001087316 -0.0001622843 4.121862e-26)
(-9.211941e-06 -1.661941e-05 -2.889e-27)
(3.684055e-05 -4.914551e-05 1.835567e-29)
(9.341687e-05 -8.199197e-05 0)
(0.0001309261 -0.0001142114 -9.088908e-29)
(0.0001431159 -0.0001437527 -7.546096e-27)
(0.0001337144 -0.0001684437 1.991836e-26)
(0.0001145274 -0.0001885679 4.537549e-26)
(-1.103518e-05 -1.783594e-05 3.054639e-27)
(3.515218e-05 -5.320895e-05 -2.892686e-29)
(9.216717e-05 -8.926546e-05 -5.449948e-29)
(0.0001291199 -0.0001257311 8.637572e-27)
(0.0001402897 -0.0001605612 -6.410659e-26)
(0.0001331317 -0.0001908044 -6.120744e-26)
(0.000119529 -0.0002164428 -2.018653e-26)
(-1.315421e-05 -1.953248e-05 3.186262e-27)
(3.196152e-05 -5.877605e-05 0)
(8.956761e-05 -9.931981e-05 -7.891494e-29)
(0.0001269637 -0.0001405409 -1.049842e-26)
(0.0001388943 -0.0001800243 3.871939e-26)
(0.0001337481 -0.0002146388 -4.488097e-26)
(0.0001255298 -0.000244752 2.027831e-25)
(-1.531101e-05 -2.184558e-05 0)
(2.738172e-05 -6.620951e-05 -2.120432e-29)
(8.480062e-05 -0.0001123579 -1.0677e-25)
(0.0001243676 -0.0001585599 1.577859e-25)
(0.0001410438 -0.0002014856 -2.578362e-25)
(0.0001404598 -0.0002392745 -1.6581e-25)
(0.0001356561 -0.0002734656 -7.864079e-26)
(-1.67505e-05 -2.480328e-05 0)
(2.309419e-05 -7.571517e-05 -5.967237e-26)
(7.911158e-05 -0.0001276591 4.951771e-27)
(0.0001216251 -0.0001780186 1.294816e-25)
(0.0001452447 -0.0002239539 2.756292e-26)
(0.0001522745 -0.0002641199 1.92606e-25)
(0.0001501551 -0.0002995049 9.422993e-26)
(-1.740623e-05 -2.859905e-05 3.220646e-27)
(2.073198e-05 -8.645416e-05 2.16867e-25)
(7.692788e-05 -0.0001434741 2.298917e-25)
(0.0001225787 -0.0001975183 1.638238e-25)
(0.000150551 -0.0002459926 2.549228e-26)
(0.0001630233 -0.000287633 -2.250607e-25)
(0.0001610515 -0.0003202628 1.653384e-26)
(-1.731389e-05 -3.293403e-05 -6.147866e-26)
(1.997751e-05 -9.789622e-05 8.778211e-26)
(7.767419e-05 -0.0001589464 7.2669e-27)
(0.0001264981 -0.0002151763 -8.692479e-26)
(0.0001574474 -0.0002652248 -4.214265e-27)
(0.0001680717 -0.0003053336 1.454717e-25)
(0.0001545088 -0.0003302123 -1.105903e-25)
(-1.623794e-05 -3.71742e-05 -1.184494e-25)
(2.096839e-05 -0.0001086064 -1.923353e-25)
(7.972261e-05 -0.0001732493 -2.625068e-26)
(0.0001314019 -0.0002311566 -2.909396e-25)
(0.0001648982 -0.0002793982 2.727514e-25)
(0.0001703547 -0.0003084996 3.792009e-26)
(0.0001256645 -0.0003379015 -9.126564e-26)
(-1.422222e-05 -4.059669e-05 -4.747542e-26)
(2.30899e-05 -0.000117428 -7.153876e-26)
(8.158581e-05 -0.0001854207 5.730795e-26)
(0.0001339585 -0.0002447941 -2.178015e-25)
(0.0001693783 -0.0002891768 1.803784e-25)
(0.0001543645 -0.0003326793 1.187734e-25)
(4.347649e-05 -0.0004261571 1.529081e-25)
(-1.140342e-05 -4.262215e-05 -4.265023e-27)
(2.491624e-05 -0.0001223489 -9.457454e-26)
(8.007725e-05 -0.0001931866 -1.087924e-25)
(0.0001271767 -0.0002576183 1.995383e-26)
(0.0001480522 -0.0003107881 -1.296462e-26)
(0.0001156158 -0.0003795133 1.925541e-25)
(-4.443396e-05 -0.000512496 1.562181e-25)
(-7.170078e-06 -4.268061e-05 2.268833e-27)
(2.783747e-05 -0.0001231232 -4.495744e-26)
(7.704348e-05 -0.000195621 -9.021954e-26)
(0.0001127838 -0.0002589936 2.194284e-25)
(0.0001157578 -0.0003322251 8.800994e-25)
(4.745436e-05 -0.0004700833 8.370198e-25)
(-9.087551e-05 -0.0005697948 -2.024472e-24)
(-2.945766e-06 -4.254036e-05 -1.24356e-26)
(3.006924e-05 -0.0001237936 -1.532354e-26)
(7.436732e-05 -0.0001933366 -4.653367e-28)
(9.990282e-05 -0.000277819 -2.671789e-26)
(8.476719e-05 -0.0004254479 3.732546e-26)
(-5.40431e-06 -0.0006499057 3.65576e-26)
(-4.695313e-05 -0.0005785721 1.724302e-24)
(-3.705401e-07 -4.341037e-05 1.091341e-27)
(2.600397e-05 -0.0001299046 -2.596175e-26)
(5.908721e-05 -0.0002083405 -7.370547e-27)
(8.03625e-05 -0.0003302787 3.443659e-27)
(5.619392e-05 -0.0005819308 5.178274e-26)
(-1.19204e-05 -0.0008131629 4.360518e-26)
(2.008824e-05 -0.0005965542 4.732688e-25)
(1.754375e-06 -4.901849e-05 9.668238e-28)
(1.89234e-05 -0.000143995 -6.497754e-27)
(3.966545e-05 -0.0002645552 -2.11742e-26)
(5.281713e-05 -0.0004699413 -1.486236e-25)
(3.504314e-05 -0.0007689195 -1.782616e-25)
(7.6382e-06 -0.0009164054 1.257665e-25)
(5.728393e-05 -0.0005887549 1.063017e-25)
(2.734313e-06 -4.467713e-05 2.40063e-27)
(1.271686e-05 -0.0001708699 -7.740255e-27)
(2.509466e-05 -0.00035242 2.659548e-26)
(3.22484e-05 -0.0006164005 -1.130114e-28)
(2.790197e-05 -0.0009204119 -7.91741e-26)
(2.655441e-05 -0.0009649651 4.587682e-25)
(5.297644e-05 -0.0005683855 1.128128e-25)
(4.553665e-06 -4.887236e-05 -5.93398e-27)
(7.264907e-06 -0.0002055514 -1.881012e-26)
(8.214043e-06 -0.0004397841 1.321459e-26)
(1.013889e-05 -0.0007449171 8.036303e-26)
(1.510662e-05 -0.001025534 2.616644e-25)
(1.93858e-05 -0.001010873 2.401556e-25)
(9.173644e-06 -0.0005898574 -3.131826e-25)
(7.527943e-06 -5.631342e-05 -3.277125e-27)
(2.479985e-06 -0.0002389769 -1.564683e-26)
(-1.188287e-05 -0.0005100215 -2.909785e-26)
(-2.092763e-05 -0.0008305401 5.225061e-26)
(-1.668064e-05 -0.001090696 2.039417e-25)
(-1.491746e-05 -0.001066228 -1.149115e-25)
(-5.40402e-05 -0.0006512656 6.518087e-25)
(1.205817e-05 -6.03491e-05 9.10912e-27)
(3.24693e-06 -0.0002596622 1.199127e-26)
(-2.737176e-05 -0.0005477414 -1.137418e-25)
(-5.365607e-05 -0.0008683046 -1.56966e-25)
(-5.942775e-05 -0.001113873 2.005983e-25)
(-6.254785e-05 -0.001093846 5.802891e-25)
(-0.0001169237 -0.0006917132 6.918762e-25)
(1.744749e-05 -5.993344e-05 -2.473721e-27)
(9.961032e-06 -0.0002625595 -7.921156e-27)
(-3.393911e-05 -0.0005550698 -4.841605e-26)
(-8.197461e-05 -0.0008706842 -4.997679e-26)
(-0.0001047708 -0.00110491 -1.140495e-25)
(-0.0001137101 -0.00108775 -1.482796e-25)
(-0.0001727386 -0.0006988682 2.627024e-25)
(2.094754e-05 -5.335795e-05 2.374375e-26)
(1.791806e-05 -0.0002483803 2.246604e-25)
(-3.278352e-05 -0.0005407815 5.383807e-26)
(-0.0001045441 -0.0008506859 6.494597e-25)
(-0.0001500204 -0.001077491 4.41079e-26)
(-0.0001654358 -0.001072269 1.345493e-24)
(-0.0002126771 -0.0007324297 -1.781704e-25)
(1.949845e-05 -3.608866e-05 5.04388e-26)
(1.466518e-05 -0.0002161524 1.871899e-25)
(-4.252608e-05 -0.0004974169 -2.0963e-25)
(-0.0001332323 -0.0008034816 -5.589032e-26)
(-0.0002011177 -0.001046041 -7.884831e-26)
(-0.0002220281 -0.001076788 2.933617e-26)
(-0.0002491099 -0.0007794715 -1.068548e-24)
(1.303152e-05 -2.116418e-05 1.147262e-25)
(-3.772662e-06 -0.0001765153 -2.194937e-25)
(-5.377624e-05 -0.0004281665 5.095473e-25)
(-0.0001313336 -0.0007167678 2.149844e-25)
(-0.0002042043 -0.0009727084 2.467243e-25)
(-0.0002313653 -0.001037343 -2.598688e-25)
(-0.000246884 -0.000781325 -2.350044e-25)
(4.100242e-06 -2.618856e-05 -6.755598e-26)
(-3.644361e-05 -0.0001211456 -1.05822e-25)
(-7.7757e-05 -0.0003353611 5.669147e-25)
(-0.0001129883 -0.0006050392 -2.990363e-25)
(-0.0001576332 -0.0008641006 6.22535e-25)
(-0.0001849508 -0.0009584709 -1.468314e-24)
(-0.0002038571 -0.0007532126 -1.81485e-24)
(-7.786388e-06 -2.54887e-05 -1.56745e-25)
(-7.646591e-05 -9.778174e-05 -3.197554e-26)
(-0.0001259723 -0.0002480521 3.047181e-25)
(-0.0001135758 -0.000477246 5.460401e-25)
(-7.669421e-05 -0.0007330016 -4.665141e-25)
(-8.535488e-05 -0.0008488812 -1.959742e-24)
(-0.0001314225 -0.0007210351 -1.756016e-24)
(-1.983857e-05 -2.994352e-05 3.228374e-27)
(-0.0001130386 -8.789909e-05 -1.115684e-25)
(-0.0001854627 -0.0001718173 1.214998e-25)
(-0.0001663286 -0.0003392337 5.408754e-25)
(-4.478412e-05 -0.0005808568 -2.091811e-24)
(2.269283e-05 -0.0007278773 -6.399167e-25)
(-3.104177e-05 -0.0006584985 4.304019e-25)
(-2.565019e-05 -2.886466e-05 0)
(-0.0001389064 -8.200402e-05 -2.162556e-26)
(-0.0002324852 -0.0001417828 5.31041e-25)
(-0.0002469262 -0.000237123 1.106038e-24)
(-0.0001134021 -0.0004158638 -6.18485e-25)
(9.866067e-05 -0.0005964052 -3.767659e-25)
(0.0001176562 -0.000570104 -2.771647e-24)
(-2.552145e-05 -2.758791e-05 0)
(-0.0001419957 -8.009517e-05 3.161307e-29)
(-0.0002534459 -0.0001267889 4.488998e-26)
(-0.0003013949 -0.000179051 1.344366e-25)
(-0.0002305875 -0.0002753717 -2.525385e-25)
(5.292659e-05 -0.0004468778 -1.752103e-24)
(0.0002473071 -0.0004860622 -3.558729e-24)
(-2.176335e-05 -2.532264e-05 3.107466e-27)
(-0.0001321919 -7.456485e-05 0)
(-0.0002467532 -0.0001210141 0)
(-0.0003147543 -0.000158074 -2.017977e-26)
(-0.0003013569 -0.0001921656 -3.403191e-26)
(-0.0001319547 -0.0002861111 -6.270442e-25)
(0.0002221983 -0.0003875664 5.205208e-25)
(-1.592633e-05 -2.265671e-05 2.960067e-27)
(-0.0001140195 -6.727589e-05 3.197821e-29)
(-0.000221771 -0.0001113234 5.882902e-29)
(-0.0002998973 -0.0001509642 5.843036e-28)
(-0.0003203246 -0.0001760955 1.160207e-25)
(-0.0002586885 -0.0001888487 -1.890697e-25)
(-1.934285e-05 -0.0002641142 1.29303e-24)
(-9.648697e-06 -1.991615e-05 0)
(-9.288034e-05 -5.944267e-05 -3.552481e-27)
(-0.0001889831 -9.986032e-05 0)
(-0.0002650274 -0.00013848 1.894069e-28)
(-0.0003033653 -0.0001685403 2.590976e-28)
(-0.0002865764 -0.0001778636 -6.831346e-26)
(-0.0001976963 -0.0001640684 2.962013e-25)
(-4.086238e-06 -1.732283e-05 0)
(-7.313878e-05 -5.18793e-05 3.310352e-27)
(-0.0001555932 -8.76472e-05 -3.332182e-27)
(-0.0002229087 -0.0001227728 0)
(-0.0002617212 -0.0001523926 5.259515e-28)
(-0.0002640123 -0.0001686684 -1.863999e-27)
(-0.0002219775 -0.0001625819 -1.208692e-25)
(6.258401e-08 -1.5107e-05 0)
(-5.683144e-05 -4.498211e-05 9.185504e-27)
(-0.0001262623 -7.581835e-05 4.094967e-30)
(-0.0001819022 -0.0001060657 6.369857e-27)
(-0.0002138226 -0.0001322136 5.385142e-28)
(-0.0002182164 -0.0001488649 -2.882391e-27)
(-0.0001935358 -0.0001519585 3.1292e-27)
(2.665869e-06 -1.32543e-05 -2.229e-27)
(-4.464112e-05 -3.912694e-05 2.830361e-27)
(-0.0001025954 -6.541097e-05 -8.489622e-31)
(-0.0001474143 -9.073397e-05 5.294459e-27)
(-0.0001708731 -0.000112061 0)
(-0.0001710713 -0.0001254978 0)
(-0.0001486921 -0.0001287838 4.045453e-27)
(3.998633e-06 -1.17892e-05 -2.026491e-27)
(-3.602915e-05 -3.447703e-05 2.55768e-27)
(-8.507904e-05 -5.706023e-05 -2.498005e-27)
(-0.0001211617 -7.803311e-05 -2.442774e-27)
(-0.0001371474 -9.466177e-05 0)
(-0.0001318062 -0.0001038956 0)
(-0.0001099358 -0.0001055378 2.830255e-27)
(4.3572e-06 -1.069321e-05 1.844084e-27)
(-3.047335e-05 -3.101052e-05 2.37803e-27)
(-7.292389e-05 -5.075778e-05 6.670073e-29)
(-0.0001026724 -6.833619e-05 -2.089587e-27)
(-0.0001133622 -8.139823e-05 -7.014672e-28)
(-0.0001055703 -8.795042e-05 3.184007e-27)
(-8.492487e-05 -8.791373e-05 -1.496355e-27)
(4.092121e-06 -9.847411e-06 1.669569e-27)
(-2.701528e-05 -2.83626e-05 1.943245e-29)
(-6.456434e-05 -4.597254e-05 -6.38691e-29)
(-8.979531e-05 -6.107734e-05 -9.10074e-29)
(-9.765201e-05 -7.188156e-05 0)
(-8.985185e-05 -7.687515e-05 2.023641e-27)
(-7.162493e-05 -7.625981e-05 -1.617242e-27)
(3.53939e-06 -9.137126e-06 0)
(-2.469017e-05 -2.614355e-05 3.578392e-29)
(-5.828606e-05 -4.205122e-05 6.048992e-29)
(-8.048622e-05 -5.546598e-05 -4.125292e-27)
(-8.724958e-05 -6.496089e-05 -8.214586e-28)
(-8.044414e-05 -6.902185e-05 -2.822712e-27)
(-6.4454e-05 -6.819307e-05 -1.092152e-27)
(2.907623e-06 -8.462667e-06 4.308575e-30)
(-2.290439e-05 -2.411186e-05 1.681875e-29)
(-5.325033e-05 -3.861016e-05 0)
(-7.345836e-05 -5.083895e-05 4.690575e-30)
(-7.992254e-05 -5.931601e-05 -1.468197e-27)
(-7.39722e-05 -6.273147e-05 -1.345616e-27)
(-5.98516e-05 -6.175246e-05 2.799129e-28)
(2.35396e-06 -7.770445e-06 -1.196443e-27)
(-2.117844e-05 -2.208604e-05 1.523095e-27)
(-4.890022e-05 -3.537305e-05 -2.652546e-27)
(-6.745293e-05 -4.651776e-05 3.105304e-27)
(-7.362204e-05 -5.409102e-05 -1.193391e-27)
(-6.840864e-05 -5.700264e-05 0)
(-5.595878e-05 -5.590089e-05 -2.526855e-28)
(1.895996e-06 -7.070322e-06 -1.071434e-27)
(-1.964225e-05 -2.0142e-05 1.316589e-27)
(-4.501719e-05 -3.229632e-05 -1.276919e-27)
(-6.211678e-05 -4.236711e-05 0)
(-6.773166e-05 -4.90962e-05 1.130089e-27)
(-6.316292e-05 -5.15834e-05 0)
(-5.212993e-05 -5.033689e-05 -9.317551e-28)
(1.514562e-06 -6.382562e-06 0)
(-1.817445e-05 -1.823126e-05 0)
(-4.137756e-05 -2.922343e-05 2.261108e-27)
(-5.686488e-05 -3.827688e-05 0)
(-6.202524e-05 -4.433399e-05 1.986664e-27)
(-5.813414e-05 -4.655336e-05 9.093858e-28)
(-4.840563e-05 -4.52788e-05 -8.14102e-28)
(1.192719e-06 -5.744178e-06 8.451508e-28)
(-1.672535e-05 -1.636311e-05 0)
(-3.769675e-05 -2.622355e-05 9.758669e-28)
(-5.174239e-05 -3.440664e-05 -9.665148e-28)
(-5.660416e-05 -3.996732e-05 8.726264e-28)
(-5.344526e-05 -4.212352e-05 1.59203e-27)
(-4.500854e-05 -4.10543e-05 7.133993e-28)
(9.215115e-07 -5.132327e-06 7.471251e-28)
(-1.535267e-05 -1.460627e-05 9.114748e-28)
(-3.418276e-05 -2.343229e-05 0)
(-4.691758e-05 -3.086587e-05 -8.737239e-28)
(-5.157003e-05 -3.607567e-05 -5.952294e-29)
(-4.916642e-05 -3.833182e-05 1.465898e-27)
(-4.20658e-05 -3.767758e-05 2.449446e-28)
(7.116328e-07 -4.548063e-06 6.602713e-28)
(-1.395097e-05 -1.296638e-05 8.06226e-28)
(-3.086632e-05 -2.087794e-05 -7.716615e-28)
(-4.24311e-05 -2.766209e-05 0)
(-4.690685e-05 -3.259339e-05 0)
(-4.515126e-05 -3.492606e-05 6.130055e-28)
(-3.89561e-05 -3.431607e-05 -1.119959e-27)
(5.452724e-07 -4.014354e-06 5.810101e-28)
(-1.261185e-05 -1.147322e-05 7.092344e-28)
(-2.778098e-05 -1.855671e-05 -6.776837e-28)
(-3.82733e-05 -2.475685e-05 0)
(-4.257269e-05 -2.945291e-05 -4.716794e-29)
(-4.142101e-05 -3.193494e-05 -7.416273e-32)
(-3.625831e-05 -3.171805e-05 6.644829e-29)
(4.157681e-07 -3.530353e-06 0)
(-1.134963e-05 -1.01173e-05 6.225388e-28)
(-2.492054e-05 -1.643982e-05 -5.951643e-28)
(-3.440356e-05 -2.208324e-05 0)
(-3.847816e-05 -2.652207e-05 5.581759e-28)
(-3.780807e-05 -2.91088e-05 1.00026e-28)
(-3.363495e-05 -2.933137e-05 5.874019e-29)
(3.155389e-07 -3.094155e-06 -4.478388e-28)
(-1.017318e-05 -8.889088e-06 3.311031e-30)
(-2.227458e-05 -1.450343e-05 -5.158388e-28)
(-3.079107e-05 -1.959424e-05 1.483488e-29)
(-3.456446e-05 -2.371163e-05 1.812576e-29)
(-3.419118e-05 -2.627208e-05 4.094562e-28)
(-3.079109e-05 -2.681091e-05 0)
(2.384454e-07 -2.703337e-06 -7.844157e-28)
(-9.085744e-06 -7.782425e-06 0)
(-1.983968e-05 -1.273935e-05 0)
(-2.743195e-05 -1.728173e-05 -4.414511e-28)
(-3.083101e-05 -2.101268e-05 -8.0694e-28)
(-3.054854e-05 -2.341685e-05 3.606214e-28)
(-2.777222e-05 -2.416776e-05 0)
(1.787115e-07 -2.35667e-06 -3.429851e-28)
(-8.090917e-06 -6.796288e-06 2.596735e-30)
(-1.762007e-05 -1.115339e-05 4.261179e-30)
(-2.435301e-05 -1.517515e-05 1.190537e-29)
(-2.737682e-05 -1.851717e-05 -3.303496e-28)
(-2.715586e-05 -2.074866e-05 0)
(-2.480834e-05 -2.154259e-05 2.674189e-28)
(1.314596e-07 -2.052759e-06 3.056432e-31)
(-7.189583e-06 -5.928611e-06 3.685578e-28)
(-1.561414e-05 -9.748481e-06 3.519134e-28)
(-2.156229e-05 -1.329018e-05 6.519141e-28)
(-2.423258e-05 -1.62561e-05 0)
(-2.405678e-05 -1.827493e-05 2.68819e-28)
(-2.201327e-05 -1.903555e-05 -3.701607e-31)
(9.301049e-08 -1.789146e-06 2.609639e-28)
(-6.378735e-06 -5.173853e-06 6.37487e-28)
(-1.381173e-05 -8.519887e-06 6.098932e-28)
(-1.904632e-05 -1.162832e-05 2.928049e-28)
(-2.138236e-05 -1.424131e-05 1.140058e-29)
(-2.123178e-05 -1.605135e-05 2.327744e-28)
(-1.942163e-05 -1.674768e-05 -2.144391e-28)
(6.132992e-08 -1.562126e-06 2.27387e-28)
(-5.652397e-06 -4.522981e-06 5.539654e-28)
(-1.219815e-05 -7.456539e-06 2.637925e-28)
(-1.678393e-05 -1.018033e-05 0)
(-1.88025e-05 -1.248022e-05 7.806247e-29)
(-1.868441e-05 -1.411772e-05 1.170141e-28)
(-1.708605e-05 -1.474162e-05 2.674322e-29)
(3.497461e-08 -1.367928e-06 1.978336e-28)
(-5.004601e-06 -3.966417e-06 2.397912e-28)
(-1.076387e-05 -6.547135e-06 -7.720202e-30)
(-1.478107e-05 -8.945129e-06 -7.066581e-30)
(-1.653891e-05 -1.099105e-05 0)
(-1.643612e-05 -1.246017e-05 1.738526e-28)
(-1.501008e-05 -1.301622e-05 -1.173601e-29)
(1.306246e-08 -1.202123e-06 1.715124e-28)
(-4.426944e-06 -3.491987e-06 2.079113e-28)
(-9.49001e-06 -5.772592e-06 -4.529585e-30)
(-1.301115e-05 -7.894316e-06 -3.107854e-30)
(-1.454338e-05 -9.713201e-06 0)
(-1.444207e-05 -1.103057e-05 1.399595e-28)
(-1.315756e-05 -1.153485e-05 -2.061426e-29)
(-4.099226e-09 -1.060753e-06 -1.62418e-31)
(-3.909257e-06 -3.087959e-06 3.601176e-28)
(-8.352982e-06 -5.11312e-06 -1.98962e-30)
(-1.143475e-05 -6.999987e-06 -2.732464e-30)
(-1.276584e-05 -8.624928e-06 0)
(-1.265791e-05 -9.809846e-06 0)
(-1.150622e-05 -1.027555e-05 0)
(-1.608728e-08 -9.402627e-07 0)
(-3.441677e-06 -2.744128e-06 1.55554e-28)
(-7.330768e-06 -4.551929e-06 0)
(-1.001994e-05 -6.239011e-06 -1.335136e-28)
(-1.117586e-05 -7.703137e-06 6.088491e-30)
(-1.106334e-05 -8.776839e-06 7.078427e-30)
(-1.003306e-05 -9.212704e-06 -8.460277e-29)
(-2.292362e-08 -8.380037e-07 1.100494e-28)
(-3.016299e-06 -2.452699e-06 0)
(-6.405501e-06 -4.076143e-06 -3.077124e-30)
(-8.746775e-06 -5.599967e-06 -9.079026e-29)
(-9.749825e-06 -6.935818e-06 1.499505e-28)
(-9.636465e-06 -7.911647e-06 0)
(-8.714133e-06 -8.322191e-06 -7.848484e-29)
(-2.551686e-08 -7.520403e-07 9.43491e-29)
(-2.629618e-06 -2.208902e-06 0)
(-5.572582e-06 -3.680313e-06 -1.357497e-30)
(-7.606342e-06 -5.073114e-06 -1.884474e-30)
(-8.472708e-06 -6.299998e-06 1.827354e-28)
(-8.352782e-06 -7.19277e-06 -7.938545e-29)
(-7.525657e-06 -7.583039e-06 6.639653e-29)
(-2.400619e-08 -6.807701e-07 0)
(-2.275255e-06 -2.007936e-06 9.713498e-29)
(-4.817793e-06 -3.355402e-06 -1.19626e-30)
(-6.569838e-06 -4.635965e-06 -8.651486e-29)
(-7.307582e-06 -5.770078e-06 7.732413e-29)
(-7.181646e-06 -6.600511e-06 -6.701309e-29)
(-6.444801e-06 -6.979016e-06 -7.166445e-32)
(-1.755718e-08 -6.227626e-07 0)
(-1.944768e-06 -1.846127e-06 8.30479e-29)
(-4.122795e-06 -3.095625e-06 -7.885758e-29)
(-5.61614e-06 -4.286808e-06 -7.458468e-29)
(-6.23308e-06 -5.345986e-06 6.346042e-29)
(-6.105146e-06 -6.12851e-06 -4.195362e-30)
(-5.454125e-06 -6.500778e-06 -4.64326e-29)
(-4.976574e-09 -5.775658e-07 0)
(-1.629656e-06 -1.722277e-06 0)
(-3.47144e-06 -2.898631e-06 -6.635448e-29)
(-4.726909e-06 -4.023243e-06 6.144637e-29)
(-5.23357e-06 -5.025984e-06 -4.456889e-32)
(-5.107176e-06 -5.772603e-06 0)
(-4.538686e-06 -6.142439e-06 0)