/*--------------------------------*- C++ -*----------------------------------*\
| =========                 |                                                 |
| \\      /  F ield         | OpenFOAM: The Open Source CFD Toolbox           |
|  \\    /   O peration     | Version:  2206                                  |
|   \\  /    A nd           | Website:  www.openfoam.com                      |
|    \\/     M anipulation  |                                                 |
\*---------------------------------------------------------------------------*/
FoamFile
{
    version     2.0;
    format      ascii;
    arch        "LSB;label=32;scalar=64";
    class       volScalarField;
    location    "2.8";
    object      k.b;
}
// * * * * * * * * * * * * * * * * * * * * * * * * * * * * * * * * * * * * * //

dimensions      [0 2 -2 0 0 0 0];

internalField   nonuniform List<scalar> 
13078
(
1.389215e-13
1.874624e-11
3.266804e-11
3.316195e-11
3.337902e-11
3.365563e-11
3.398175e-11
3.816233e-14
1.569282e-11
3.232999e-11
3.311472e-11
3.336643e-11
3.3647e-11
3.397375e-11
1.361991e-13
1.577347e-11
3.226312e-11
3.308354e-11
3.33483e-11
3.363428e-11
3.396316e-11
5.652487e-14
1.5955e-11
3.225104e-11
3.306016e-11
3.333073e-11
3.362081e-11
3.395163e-11
3.654209e-14
1.602564e-11
3.224356e-11
3.304715e-11
3.331614e-11
3.360803e-11
3.394024e-11
3.044379e-14
1.60652e-11
3.22415e-11
3.303893e-11
3.330879e-11
3.359727e-11
3.392945e-11
2.864457e-14
1.608203e-11
3.223519e-11
3.303354e-11
3.330371e-11
3.359258e-11
3.392012e-11
2.880981e-14
1.608511e-11
3.222802e-11
3.303064e-11
3.330077e-11
3.358936e-11
3.391674e-11
3.012076e-14
1.608442e-11
3.223022e-11
3.302997e-11
3.329921e-11
3.358723e-11
3.391431e-11
3.223201e-14
1.607635e-11
3.223174e-11
3.302993e-11
3.329839e-11
3.358584e-11
3.391255e-11
3.517143e-14
1.606324e-11
3.223267e-11
3.303019e-11
3.329799e-11
3.35849e-11
3.391117e-11
3.895605e-14
1.604634e-11
3.22331e-11
3.303056e-11
3.329782e-11
3.358423e-11
3.391009e-11
4.369307e-14
1.602656e-11
3.223312e-11
3.303092e-11
3.329777e-11
3.358373e-11
3.390917e-11
4.958888e-14
1.600424e-11
3.223283e-11
3.303119e-11
3.329765e-11
3.358329e-11
3.390831e-11
5.693296e-14
1.597988e-11
3.223169e-11
3.302988e-11
3.329556e-11
3.358265e-11
3.390751e-11
6.611105e-14
1.595361e-11
3.223014e-11
3.302813e-11
3.329401e-11
3.35821e-11
3.390668e-11
7.762781e-14
1.592564e-11
3.222913e-11
3.302812e-11
3.329375e-11
3.358163e-11
3.390584e-11
9.211006e-14
1.589605e-11
3.22279e-11
3.302815e-11
3.329353e-11
3.358114e-11
3.390496e-11
1.103657e-13
1.58647e-11
3.222651e-11
3.302818e-11
3.32932e-11
3.358043e-11
3.390406e-11
1.334347e-13
1.58318e-11
3.222495e-11
3.302801e-11
3.329077e-11
3.357665e-11
3.390277e-11
1.626615e-13
1.579713e-11
3.222328e-11
3.302779e-11
3.328788e-11
3.357375e-11
3.390146e-11
1.997514e-13
1.576078e-11
3.222156e-11
3.302777e-11
3.328719e-11
3.357279e-11
3.390032e-11
2.46757e-13
1.572255e-11
3.221969e-11
3.30277e-11
3.328671e-11
3.357167e-11
3.389879e-11
3.063021e-13
1.568236e-11
3.221772e-11
3.302764e-11
3.328597e-11
3.356761e-11
3.389261e-11
3.816694e-13
1.564e-11
3.221563e-11
3.302757e-11
3.328516e-11
3.356294e-11
3.38878e-11
4.769363e-13
1.559528e-11
3.221334e-11
3.302751e-11
3.328451e-11
3.356115e-11
3.388559e-11
5.971346e-13
1.554877e-11
3.22109e-11
3.302747e-11
3.328384e-11
3.355963e-11
3.38829e-11
7.484091e-13
1.549411e-11
3.220785e-11
3.302746e-11
3.328308e-11
3.355787e-11
3.387607e-11
9.383156e-13
1.544616e-11
3.22054e-11
3.302748e-11
3.328226e-11
3.35559e-11
3.386878e-11
1.17613e-12
1.530303e-11
3.219693e-11
3.302736e-11
3.328145e-11
3.355409e-11
3.386483e-11
1.476442e-12
1.515161e-11
3.219612e-11
3.302761e-11
3.328064e-11
3.355226e-11
3.386187e-11
1.846341e-12
1.490011e-11
3.218989e-11
3.302779e-11
3.328001e-11
3.355035e-11
3.385854e-11
2.302801e-12
1.458669e-11
3.215251e-11
3.302268e-11
3.327886e-11
3.354805e-11
3.385508e-11
2.860836e-12
1.448226e-11
3.212362e-11
3.301785e-11
3.327643e-11
3.354448e-11
3.38501e-11
3.538002e-12
1.437856e-11
3.210969e-11
3.300858e-11
3.325793e-11
3.353487e-11
3.384043e-11
4.350126e-12
1.426915e-11
3.208618e-11
3.299353e-11
3.32325e-11
3.350191e-11
3.38201e-11
5.309458e-12
1.415497e-11
3.204899e-11
3.296105e-11
3.320063e-11
3.346547e-11
3.379663e-11
6.419072e-12
1.403184e-11
3.199573e-11
3.29194e-11
3.316243e-11
3.343294e-11
3.377119e-11
7.664955e-12
1.389769e-11
3.193293e-11
3.287607e-11
3.313018e-11
3.341172e-11
3.376113e-11
9.026521e-12
1.36377e-11
3.186357e-11
3.283527e-11
3.30941e-11
3.338388e-11
3.373991e-11
1.048597e-11
1.315825e-11
3.178632e-11
3.278448e-11
3.30437e-11
3.333734e-11
3.370547e-11
1.190833e-11
1.269242e-11
3.165948e-11
3.269871e-11
3.296669e-11
3.325903e-11
3.360974e-11
1.322692e-11
1.247961e-11
3.15279e-11
3.259473e-11
3.283808e-11
3.314907e-11
3.347524e-11
1.433321e-11
1.229373e-11
3.14173e-11
3.250218e-11
3.272221e-11
3.298919e-11
3.334432e-11
1.515368e-11
1.205422e-11
3.132603e-11
3.241418e-11
3.264168e-11
3.286029e-11
3.313129e-11
1.561745e-11
1.169064e-11
3.123259e-11
3.232175e-11
3.254165e-11
3.273963e-11
3.294822e-11
1.551981e-11
1.12833e-11
3.111891e-11
3.224463e-11
3.241438e-11
3.259316e-11
3.280149e-11
1.477455e-11
1.104639e-11
3.101303e-11
3.216657e-11
3.229245e-11
3.243101e-11
3.263813e-11
1.336085e-11
1.0804e-11
3.089707e-11
3.206654e-11
3.21973e-11
3.233424e-11
3.252226e-11
1.136758e-11
1.057437e-11
3.079474e-11
3.197304e-11
3.209182e-11
3.223047e-11
3.24302e-11
8.953525e-12
1.013508e-11
3.067812e-11
3.190442e-11
3.202688e-11
3.217274e-11
3.235616e-11
6.366645e-12
9.482972e-12
3.052983e-11
3.18106e-11
3.195385e-11
3.212893e-11
3.233102e-11
3.90709e-12
9.206888e-12
3.042043e-11
3.180419e-11
3.196498e-11
3.21551e-11
3.232919e-11
1.941281e-12
9.075344e-12
3.038615e-11
3.179566e-11
3.19786e-11
3.217318e-11
3.233811e-11
6.84413e-13
8.993368e-12
3.038878e-11
3.181282e-11
3.201447e-11
3.221369e-11
3.240204e-11
2.881694e-13
8.953678e-12
3.04089e-11
3.184747e-11
3.206203e-11
3.227061e-11
3.246834e-11
8.00985e-13
9.032139e-12
3.045119e-11
3.186898e-11
3.207024e-11
3.227199e-11
3.247642e-11
2.110014e-12
9.199321e-12
3.049836e-11
3.186507e-11
3.204948e-11
3.223963e-11
3.242505e-11
4.086616e-12
9.394541e-12
3.05586e-11
3.188254e-11
3.20499e-11
3.223055e-11
3.238422e-11
6.608861e-12
9.649388e-12
3.065154e-11
3.192267e-11
3.206922e-11
3.223938e-11
3.238529e-11
9.301375e-12
1.003154e-11
3.080206e-11
3.195868e-11
3.208837e-11
3.225014e-11
3.24405e-11
1.172791e-11
1.074432e-11
3.096842e-11
3.206419e-11
3.218029e-11
3.232121e-11
3.249515e-11
1.36781e-11
1.12327e-11
3.109789e-11
3.214309e-11
3.22628e-11
3.240212e-11
3.260848e-11
1.504436e-11
1.148126e-11
3.119824e-11
3.22342e-11
3.237536e-11
3.252193e-11
3.273161e-11
1.576004e-11
1.169026e-11
3.129591e-11
3.232998e-11
3.248057e-11
3.264331e-11
3.286924e-11
1.581561e-11
1.182222e-11
3.13772e-11
3.240511e-11
3.261691e-11
3.283432e-11
3.305225e-11
1.536567e-11
1.211197e-11
3.146918e-11
3.24858e-11
3.275427e-11
3.300126e-11
3.321437e-11
1.448588e-11
1.240149e-11
3.154291e-11
3.258021e-11
3.284459e-11
3.312265e-11
3.340413e-11
1.336893e-11
1.258594e-11
3.161054e-11
3.265639e-11
3.291429e-11
3.321865e-11
3.359411e-11
1.207578e-11
1.272776e-11
3.169388e-11
3.273119e-11
3.299927e-11
3.332895e-11
3.369114e-11
1.068169e-11
1.290095e-11
3.179415e-11
3.280923e-11
3.30853e-11
3.339167e-11
3.376709e-11
9.268868e-12
1.325987e-11
3.188595e-11
3.287026e-11
3.313313e-11
3.343461e-11
3.380442e-11
7.890464e-12
1.361818e-11
3.194451e-11
3.290155e-11
3.316015e-11
3.34506e-11
3.379925e-11
6.638669e-12
1.382063e-11
3.199456e-11
3.293391e-11
3.318509e-11
3.345871e-11
3.379134e-11
5.524069e-12
1.393352e-11
3.204193e-11
3.296699e-11
3.321077e-11
3.347147e-11
3.37975e-11
4.55058e-12
1.409865e-11
3.208023e-11
3.299549e-11
3.323691e-11
3.350001e-11
3.38247e-11
3.719054e-12
1.424205e-11
3.210069e-11
3.30113e-11
3.325522e-11
3.353124e-11
3.384129e-11
3.017651e-12
1.436567e-11
3.211278e-11
3.30162e-11
3.326895e-11
3.354548e-11
3.385025e-11
2.437945e-12
1.447971e-11
3.212243e-11
3.302082e-11
3.32801e-11
3.354876e-11
3.385437e-11
1.96192e-12
1.457406e-11
3.214845e-11
3.302408e-11
3.328066e-11
3.355013e-11
3.385707e-11
1.573367e-12
1.488242e-11
3.218466e-11
3.302818e-11
3.328102e-11
3.355152e-11
3.385977e-11
1.259044e-12
1.512906e-11
3.218939e-11
3.302759e-11
3.328122e-11
3.355301e-11
3.386268e-11
1.003889e-12
1.527833e-11
3.218973e-11
3.302708e-11
3.32817e-11
3.355451e-11
3.386534e-11
8.02369e-13
1.541995e-11
3.219813e-11
3.302702e-11
3.32823e-11
3.355605e-11
3.386889e-11
6.41774e-13
1.546804e-11
3.220078e-11
3.302687e-11
3.328295e-11
3.355781e-11
3.387609e-11
5.139524e-13
1.552359e-11
3.22042e-11
3.302687e-11
3.328359e-11
3.355943e-11
3.388275e-11
4.125016e-13
1.557154e-11
3.22071e-11
3.302691e-11
3.32842e-11
3.356086e-11
3.388531e-11
3.32005e-13
1.561804e-11
3.220994e-11
3.302699e-11
3.328482e-11
3.35626e-11
3.388746e-11
2.681809e-13
1.56623e-11
3.221259e-11
3.302705e-11
3.328562e-11
3.356732e-11
3.389229e-11
2.176193e-13
1.570444e-11
3.221509e-11
3.302718e-11
3.328637e-11
3.357131e-11
3.389841e-11
1.776085e-13
1.574458e-11
3.221747e-11
3.30273e-11
3.328687e-11
3.357247e-11
3.389993e-11
1.459129e-13
1.578278e-11
3.221968e-11
3.30274e-11
3.328761e-11
3.357345e-11
3.39011e-11
1.207662e-13
1.58192e-11
3.222182e-11
3.30277e-11
3.329059e-11
3.357644e-11
3.390247e-11
1.008107e-13
1.585378e-11
3.222383e-11
3.302795e-11
3.329304e-11
3.358024e-11
3.390382e-11
8.505514e-14
1.588675e-11
3.222567e-11
3.302799e-11
3.329341e-11
3.358098e-11
3.390473e-11
7.250868e-14
1.591791e-11
3.222731e-11
3.302802e-11
3.329367e-11
3.358147e-11
3.39056e-11
6.244323e-14
1.594745e-11
3.222872e-11
3.302812e-11
3.329396e-11
3.358196e-11
3.390646e-11
5.433614e-14
1.597532e-11
3.223068e-11
3.302998e-11
3.329558e-11
3.358254e-11
3.39073e-11
4.780187e-14
1.600139e-11
3.223226e-11
3.303136e-11
3.32977e-11
3.358319e-11
3.390808e-11
4.252393e-14
1.60256e-11
3.223301e-11
3.303116e-11
3.329783e-11
3.358359e-11
3.390887e-11
3.823579e-14
1.604757e-11
3.223347e-11
3.303086e-11
3.329784e-11
3.358399e-11
3.390965e-11
3.478809e-14
1.606719e-11
3.223359e-11
3.303051e-11
3.32979e-11
3.358448e-11
3.391053e-11
3.2138e-14
1.608388e-11
3.223327e-11
3.303017e-11
3.329807e-11
3.358512e-11
3.391159e-11
3.014848e-14
1.609678e-11
3.223239e-11
3.302992e-11
3.329843e-11
3.358602e-11
3.391291e-11
2.885388e-14
1.610415e-11
3.223067e-11
3.302994e-11
3.32992e-11
3.35874e-11
3.391471e-11
2.844739e-14
1.611044e-11
3.223778e-11
3.303152e-11
3.330084e-11
3.358953e-11
3.391729e-11
2.933682e-14
1.610651e-11
3.224302e-11
3.303449e-11
3.330387e-11
3.35928e-11
3.392564e-11
3.224187e-14
1.60851e-11
3.224182e-11
3.303868e-11
3.330852e-11
3.360183e-11
3.393544e-11
3.876042e-14
1.60462e-11
3.224364e-11
3.304626e-11
3.331983e-11
3.361292e-11
3.39461e-11
5.879439e-14
1.59643e-11
3.225076e-11
3.306335e-11
3.333459e-11
3.362546e-11
3.395753e-11
1.383613e-13
1.586682e-11
3.228923e-11
3.308659e-11
3.335176e-11
3.363891e-11
3.396915e-11
5.165221e-14
1.628175e-11
3.2339e-11
3.311641e-11
3.337119e-11
3.365263e-11
3.398045e-11
3.437155e-11
3.486693e-11
3.553564e-11
3.618714e-11
3.737219e-11
4.179348e-11
6.888385e-10
3.436274e-11
3.485571e-11
3.552072e-11
3.616978e-11
3.734829e-11
4.018265e-11
4.54838e-10
3.435238e-11
3.48438e-11
3.550644e-11
3.639424e-11
3.732963e-11
4.014715e-11
4.503706e-10
3.434136e-11
3.483155e-11
3.549069e-11
3.613389e-11
3.730481e-11
4.011017e-11
4.473243e-10
3.433037e-11
3.481909e-11
3.547582e-11
3.611374e-11
3.728233e-11
4.006583e-11
4.347353e-10
3.431961e-11
3.480661e-11
3.54604e-11
3.609511e-11
3.726042e-11
4.001575e-11
4.149538e-10
3.430931e-11
3.47944e-11
3.544517e-11
3.60773e-11
3.725431e-11
3.996352e-11
3.933484e-10
3.430016e-11
3.478248e-11
3.543024e-11
3.605992e-11
3.724872e-11
3.990436e-11
3.661802e-10
3.429729e-11
3.477169e-11
3.541606e-11
3.604233e-11
3.723129e-11
3.984485e-11
3.404107e-10
3.429517e-11
3.476864e-11
3.540299e-11
3.602493e-11
3.721415e-11
3.977921e-11
3.105542e-10
3.429344e-11
3.476636e-11
3.53994e-11
3.600819e-11
3.719721e-11
3.971091e-11
2.794385e-10
3.42919e-11
3.476423e-11
3.539666e-11
3.600448e-11
3.718021e-11
3.963165e-11
2.454342e-10
3.429053e-11
3.476221e-11
3.539392e-11
3.600117e-11
3.71773e-11
3.955125e-11
2.137917e-10
3.428922e-11
3.476024e-11
3.539116e-11
3.599777e-11
3.717405e-11
3.952019e-11
1.840672e-10
3.428793e-11
3.475822e-11
3.538833e-11
3.599428e-11
3.717052e-11
3.942399e-11
1.778906e-10
3.428661e-11
3.475615e-11
3.538543e-11
3.599064e-11
3.716677e-11
3.933532e-11
1.383182e-10
3.428527e-11
3.475401e-11
3.538242e-11
3.598672e-11
3.716113e-11
3.927253e-11
1.208786e-10
3.428388e-11
3.475185e-11
3.537922e-11
3.598081e-11
3.71091e-11
3.92089e-11
1.036585e-10
3.428244e-11
3.474969e-11
3.537594e-11
3.597647e-11
3.710188e-11
3.915373e-11
8.960327e-11
3.428088e-11
3.474739e-11
3.537248e-11
3.597199e-11
3.709611e-11
3.912289e-11
1.182174e-10
3.427926e-11
3.474496e-11
3.536889e-11
3.596728e-11
3.709008e-11
3.928995e-11
6.932653e-10
3.427748e-11
3.474238e-11
3.536521e-11
3.596224e-11
3.708377e-11
3.915163e-11
1.434077e-10
3.427563e-11
3.473959e-11
3.536077e-11
3.595681e-11
3.707604e-11
3.97428e-11
5.835864e-10
3.427311e-11
3.473658e-11
3.535732e-11
3.617669e-11
3.70294e-11
3.965631e-11
4.845164e-10
3.427051e-11
3.473339e-11
3.535155e-11
3.594769e-11
3.700311e-11
3.977167e-11
5.136329e-10
3.426808e-11
3.472998e-11
3.534665e-11
3.593855e-11
3.699373e-11
3.995097e-11
6.345124e-10
3.426483e-11
3.472595e-11
3.534123e-11
3.593148e-11
3.698348e-11
3.988489e-11
5.921521e-10
3.425467e-11
3.472128e-11
3.533353e-11
3.592381e-11
3.696964e-11
3.952398e-11
5.499712e-10
3.424635e-11
3.459067e-11
3.516196e-11
3.59146e-11
3.69568e-11
3.937319e-11
5.045141e-10
3.423946e-11
3.458316e-11
3.515517e-11
3.59068e-11
3.69443e-11
3.919872e-11
3.924166e-10
3.422751e-11
3.456453e-11
3.514822e-11
3.589719e-11
3.693135e-11
3.935324e-11
3.835592e-10
3.42194e-11
3.455414e-11
3.514108e-11
3.588671e-11
3.691701e-11
3.928387e-11
3.497706e-10
3.421306e-11
3.451986e-11
3.513311e-11
3.587598e-11
3.69019e-11
3.910719e-11
2.816623e-10
3.420821e-11
3.45114e-11
3.510716e-11
3.586661e-11
3.68871e-11
3.888891e-11
2.016396e-10
3.41998e-11
3.449978e-11
3.50742e-11
3.585904e-11
3.687085e-11
3.855946e-11
1.733299e-10
3.418653e-11
3.448601e-11
3.505026e-11
3.585371e-11
3.685934e-11
3.867295e-11
2.246538e-10
3.41809e-11
3.448353e-11
3.50678e-11
3.585179e-11
3.687595e-11
3.848853e-11
1.873008e-10
3.419674e-11
3.451072e-11
3.511441e-11
3.584798e-11
3.693018e-11
3.874638e-11
2.808327e-10
3.422654e-11
3.456215e-11
3.518132e-11
3.591124e-11
3.701338e-11
3.849385e-11
7.131552e-11
3.424225e-11
3.460684e-11
3.525143e-11
3.602408e-11
3.691967e-11
3.836857e-11
1.036979e-10
3.418602e-11
3.461081e-11
3.52461e-11
3.598595e-11
3.678679e-11
3.80501e-11
6.709069e-11
3.405187e-11
3.449614e-11
3.509483e-11
3.586361e-11
3.667809e-11
3.770128e-11
7.01405e-11
3.390187e-11
3.434967e-11
3.499153e-11
3.572626e-11
3.651109e-11
3.745964e-11
6.335869e-11
3.373683e-11
3.421592e-11
3.487972e-11
3.558637e-11
3.627406e-11
3.737814e-11
5.577241e-11
3.355642e-11
3.399993e-11
3.464546e-11
3.540569e-11
3.604849e-11
3.722562e-11
4.872254e-11
3.332139e-11
3.380429e-11
3.447255e-11
3.517757e-11
3.586893e-11
3.695277e-11
9.642798e-11
3.31556e-11
3.361436e-11
3.431448e-11
3.500901e-11
3.560035e-11
3.686699e-11
8.332891e-11
3.303419e-11
3.346463e-11
3.420543e-11
3.481796e-11
3.553437e-11
3.635642e-11
5.452537e-11
3.288119e-11
3.330892e-11
3.402895e-11
3.470079e-11
3.541654e-11
3.646576e-11
6.08562e-11
3.275938e-11
3.319408e-11
3.393029e-11
3.457514e-11
3.531832e-11
3.604195e-11
4.218841e-11
3.266755e-11
3.30276e-11
3.377566e-11
3.445128e-11
3.511166e-11
3.583299e-11
4.190998e-11
3.266002e-11
3.301017e-11
3.37205e-11
3.431212e-11
3.49021e-11
3.803374e-11
7.687804e-10
3.266341e-11
3.298907e-11
3.367028e-11
3.420438e-11
3.476191e-11
3.642733e-11
5.992777e-10
3.266644e-11
3.297769e-11
3.366906e-11
3.41859e-11
3.459156e-11
4.195195e-11
4.882409e-10
3.272896e-11
3.30256e-11
3.374099e-11
3.414686e-11
3.450133e-11
3.450568e-11
4.19544e-11
3.280012e-11
3.310722e-11
3.376417e-11
3.418329e-11
3.438294e-11
3.436723e-11
3.281438e-11
3.315467e-11
3.38524e-11
3.427348e-11
3.45106e-11
3.452784e-11
3.277442e-11
3.312468e-11
3.37924e-11
3.420592e-11
3.442873e-11
3.444711e-11
3.273521e-11
3.308736e-11
3.376287e-11
3.417092e-11
3.45385e-11
3.529378e-11
2.561859e-10
3.271624e-11
3.30441e-11
3.381521e-11
3.428871e-11
3.471065e-11
3.979164e-11
5.429874e-10
3.277145e-11
3.309627e-11
3.383293e-11
3.443797e-11
3.490022e-11
3.663352e-11
7.148242e-10
3.280986e-11
3.310542e-11
3.375042e-11
3.441342e-11
3.495133e-11
3.555616e-11
4.13007e-11
3.293378e-11
3.326002e-11
3.39606e-11
3.451209e-11
3.504117e-11
3.578849e-11
3.876924e-11
3.30918e-11
3.340616e-11
3.404271e-11
3.456527e-11
3.527552e-11
3.598837e-11
4.143982e-11
3.327578e-11
3.354551e-11
3.422141e-11
3.483612e-11
3.542993e-11
3.607109e-11
4.311846e-11
3.343216e-11
3.376664e-11
3.439657e-11
3.502454e-11
3.558927e-11
3.626055e-11
5.688458e-11
3.359993e-11
3.389533e-11
3.455358e-11
3.518865e-11
3.577808e-11
3.659563e-11
4.148205e-11
3.381017e-11
3.412654e-11
3.472973e-11
3.533229e-11
3.596291e-11
3.697537e-11
5.582663e-11
3.399598e-11
3.429479e-11
3.488132e-11
3.553712e-11
3.614803e-11
3.720846e-11
3.934419e-11
3.416975e-11
3.447857e-11
3.504854e-11
3.568036e-11
3.641727e-11
3.783076e-11
2.716218e-10
3.427132e-11
3.464257e-11
3.515779e-11
3.582733e-11
3.660827e-11
3.756019e-11
5.473744e-11
3.429898e-11
3.470592e-11
3.528888e-11
3.600573e-11
3.67623e-11
3.778484e-11
9.561407e-11
3.427297e-11
3.468459e-11
3.529252e-11
3.609232e-11
3.688032e-11
3.811641e-11
6.460857e-11
3.423148e-11
3.459947e-11
3.518246e-11
3.595046e-11
3.697377e-11
3.839798e-11
7.270704e-11
3.419813e-11
3.452893e-11
3.509639e-11
3.581191e-11
3.691207e-11
3.86286e-11
2.693687e-10
3.419206e-11
3.449433e-11
3.505117e-11
3.578e-11
3.684449e-11
3.833695e-11
2.722255e-10
3.419957e-11
3.449375e-11
3.504425e-11
3.581692e-11
3.684509e-11
3.835312e-11
1.032424e-10
3.420694e-11
3.450346e-11
3.506206e-11
3.585147e-11
3.68598e-11
3.858402e-11
1.929202e-10
3.421136e-11
3.451535e-11
3.508877e-11
3.586045e-11
3.687486e-11
3.865361e-11
2.1114e-10
3.421463e-11
3.451521e-11
3.512694e-11
3.587058e-11
3.689094e-11
3.889725e-11
2.498041e-10
3.422038e-11
3.4539e-11
3.513757e-11
3.588156e-11
3.690728e-11
3.918692e-11
3.394813e-10
3.422833e-11
3.456019e-11
3.514498e-11
3.589195e-11
3.692244e-11
3.923974e-11
3.674572e-10
3.424007e-11
3.458126e-11
3.515166e-11
3.590155e-11
3.693589e-11
3.930767e-11
5.029984e-10
3.424648e-11
3.458338e-11
3.515811e-11
3.591032e-11
3.694844e-11
3.913343e-11
3.779185e-10
3.425457e-11
3.472085e-11
3.533287e-11
3.592166e-11
3.696072e-11
3.933256e-11
5.076685e-10
3.426451e-11
3.472537e-11
3.534028e-11
3.59284e-11
3.697474e-11
3.966592e-11
5.558746e-10
3.426768e-11
3.472933e-11
3.534587e-11
3.593562e-11
3.698658e-11
3.984598e-11
5.992859e-10
3.427006e-11
3.473274e-11
3.535088e-11
3.594232e-11
3.699655e-11
3.992547e-11
6.433636e-10
3.427266e-11
3.473596e-11
3.535561e-11
3.594861e-11
3.70067e-11
3.908679e-11
1.429962e-10
3.427517e-11
3.473893e-11
3.536e-11
3.59546e-11
3.705773e-11
3.907492e-11
1.341625e-10
3.427702e-11
3.474172e-11
3.536415e-11
3.596019e-11
3.707873e-11
3.907995e-11
1.21095e-10
3.427879e-11
3.474437e-11
3.536805e-11
3.596536e-11
3.70853e-11
3.9031e-11
9.423013e-11
3.428048e-11
3.474684e-11
3.537173e-11
3.597028e-11
3.709167e-11
3.90586e-11
7.721069e-11
3.428209e-11
3.474917e-11
3.537525e-11
3.597489e-11
3.709762e-11
3.911157e-11
9.130917e-11
3.428355e-11
3.475138e-11
3.537855e-11
3.597929e-11
3.710333e-11
3.916963e-11
1.064725e-10
3.428496e-11
3.475357e-11
3.538178e-11
3.598467e-11
3.713071e-11
3.922998e-11
1.23242e-10
3.42863e-11
3.475572e-11
3.538482e-11
3.598946e-11
3.716368e-11
3.929429e-11
1.420107e-10
3.42876e-11
3.475776e-11
3.538772e-11
3.599327e-11
3.716756e-11
3.936272e-11
1.66758e-10
3.428885e-11
3.475973e-11
3.539051e-11
3.599698e-11
3.717127e-11
3.945495e-11
1.845503e-10
3.429008e-11
3.476163e-11
3.539323e-11
3.600053e-11
3.717471e-11
3.951079e-11
2.011846e-10
3.429132e-11
3.476353e-11
3.539587e-11
3.600401e-11
3.717799e-11
3.95666e-11
2.290271e-10
3.429265e-11
3.47655e-11
3.53985e-11
3.600743e-11
3.718786e-11
3.964197e-11
2.575691e-10
3.429411e-11
3.476756e-11
3.540194e-11
3.601763e-11
3.720469e-11
3.971756e-11
2.877548e-10
3.429586e-11
3.477033e-11
3.54148e-11
3.603496e-11
3.722174e-11
3.978661e-11
3.174287e-10
3.429826e-11
3.478074e-11
3.54287e-11
3.605249e-11
3.723892e-11
3.984861e-11
3.434384e-10
3.430681e-11
3.479226e-11
3.544336e-11
3.607032e-11
3.725554e-11
3.990968e-11
3.679159e-10
3.431651e-11
3.480411e-11
3.545836e-11
3.608735e-11
3.724932e-11
3.996792e-11
3.912154e-10
3.432675e-11
3.481635e-11
3.547362e-11
3.610558e-11
3.72705e-11
4.002054e-11
4.103979e-10
3.433752e-11
3.482889e-11
3.548907e-11
3.612386e-11
3.729254e-11
4.006805e-11
4.229718e-10
3.434879e-11
3.484158e-11
3.550459e-11
3.61422e-11
3.731473e-11
4.01099e-11
4.278212e-10
3.436001e-11
3.485409e-11
3.552e-11
3.61603e-11
3.733699e-11
4.014408e-11
4.267401e-10
3.437091e-11
3.486658e-11
3.553534e-11
3.61782e-11
3.735942e-11
4.024889e-11
3.078238e-10
1.834254e-07
2.51411e-07
2.519042e-07
2.519001e-07
2.519e-07
2.519e-07
2.519e-07
2.519e-07
2.519e-07
2.519e-07
2.519e-07
2.519e-07
2.519e-07
2.519e-07
2.519e-07
2.519e-07
2.519e-07
2.519e-07
1.67897e-07
2.505309e-07
2.518919e-07
2.518997e-07
2.518999e-07
2.518999e-07
2.518999e-07
2.518999e-07
2.518999e-07
2.518999e-07
2.518999e-07
2.518999e-07
2.518999e-07
2.518999e-07
2.518999e-07
2.518999e-07
2.518999e-07
2.518999e-07
1.648779e-07
2.508845e-07
2.519085e-07
2.519003e-07
2.519e-07
2.519e-07
2.519e-07
2.519e-07
2.519e-07
2.519e-07
2.519e-07
2.519e-07
2.519e-07
2.519e-07
2.519e-07
2.519e-07
2.519e-07
2.519e-07
1.605265e-07
2.506721e-07
2.518975e-07
2.519001e-07
2.519e-07
2.519e-07
2.519e-07
2.519e-07
2.519e-07
2.519e-07
2.519e-07
2.519e-07
2.519e-07
2.519e-07
2.519e-07
2.519e-07
2.519e-07
2.519e-07
1.562297e-07
2.50228e-07
2.518914e-07
2.518999e-07
2.518999e-07
2.518999e-07
2.518999e-07
2.518999e-07
2.518999e-07
2.518999e-07
2.518999e-07
2.518999e-07
2.518999e-07
2.518999e-07
2.518999e-07
2.518999e-07
2.518999e-07
2.518999e-07
1.519065e-07
2.502531e-07
2.518947e-07
2.518999e-07
2.518999e-07
2.518999e-07
2.518999e-07
2.518999e-07
2.518999e-07
2.518999e-07
2.518999e-07
2.518999e-07
2.518999e-07
2.518999e-07
2.518999e-07
2.518999e-07
2.518999e-07
2.518999e-07
1.474591e-07
2.502996e-07
2.518972e-07
2.518999e-07
2.518999e-07
2.518999e-07
2.518999e-07
2.518999e-07
2.518999e-07
2.518999e-07
2.518999e-07
2.518999e-07
2.518999e-07
2.518999e-07
2.518999e-07
2.518999e-07
2.518999e-07
2.518999e-07
1.429915e-07
2.50252e-07
2.518979e-07
2.518999e-07
2.518999e-07
2.518999e-07
2.518999e-07
2.518999e-07
2.518999e-07
2.518999e-07
2.518999e-07
2.518999e-07
2.518999e-07
2.518999e-07
2.518999e-07
2.518999e-07
2.518999e-07
2.518999e-07
1.386972e-07
2.501929e-07
2.518977e-07
2.518999e-07
2.518999e-07
2.518999e-07
2.518999e-07
2.518999e-07
2.518999e-07
2.518999e-07
2.518999e-07
2.518999e-07
2.518999e-07
2.518999e-07
2.518999e-07
2.518999e-07
2.518999e-07
2.518999e-07
1.341739e-07
2.501072e-07
2.518966e-07
2.518998e-07
2.518999e-07
2.518999e-07
2.518999e-07
2.518999e-07
2.518999e-07
2.518999e-07
2.518999e-07
2.518999e-07
2.518999e-07
2.518999e-07
2.518999e-07
2.518999e-07
2.518999e-07
2.518999e-07
1.296015e-07
2.49877e-07
2.518924e-07
2.518995e-07
2.518999e-07
2.518999e-07
2.518999e-07
2.518999e-07
2.518999e-07
2.518999e-07
2.518999e-07
2.518999e-07
2.518999e-07
2.518999e-07
2.518999e-07
2.518999e-07
2.518999e-07
2.518999e-07
1.254164e-07
2.495777e-07
2.51885e-07
2.518983e-07
2.518998e-07
2.518999e-07
2.518999e-07
2.518999e-07
2.518999e-07
2.518999e-07
2.518999e-07
2.518999e-07
2.518999e-07
2.518999e-07
2.518999e-07
2.518999e-07
2.518999e-07
2.518999e-07
1.214165e-07
2.496524e-07
2.518856e-07
2.518957e-07
2.518995e-07
2.518999e-07
2.518999e-07
2.518999e-07
2.518999e-07
2.518999e-07
2.518999e-07
2.518999e-07
2.518999e-07
2.518999e-07
2.518999e-07
2.518999e-07
2.518999e-07
2.518999e-07
1.129769e-07
2.494856e-07
2.519004e-07
2.518953e-07
2.518988e-07
2.518999e-07
2.518999e-07
2.518999e-07
2.518999e-07
2.518999e-07
2.518999e-07
2.518999e-07
2.518999e-07
2.518999e-07
2.518999e-07
2.518999e-07
2.518999e-07
2.518999e-07
9.833126e-08
2.490274e-07
2.518989e-07
2.519003e-07
2.518985e-07
2.518997e-07
2.518999e-07
2.518999e-07
2.518999e-07
2.518999e-07
2.518999e-07
2.518999e-07
2.518999e-07
2.518999e-07
2.518999e-07
2.518999e-07
2.518999e-07
2.518999e-07
9.189706e-08
2.488086e-07
2.518949e-07
2.519006e-07
2.518999e-07
2.518996e-07
2.518999e-07
2.518999e-07
2.518999e-07
2.518999e-07
2.518999e-07
2.518999e-07
2.518999e-07
2.518999e-07
2.518999e-07
2.518999e-07
2.518999e-07
2.518999e-07
8.605199e-08
2.485904e-07
2.518964e-07
2.518992e-07
2.519002e-07
2.518998e-07
2.518999e-07
2.518999e-07
2.518999e-07
2.518999e-07
2.518999e-07
2.518999e-07
2.518999e-07
2.518999e-07
2.518999e-07
2.518999e-07
2.518999e-07
2.518999e-07
8.042486e-08
2.486391e-07
2.51897e-07
2.519003e-07
2.518995e-07
2.519e-07
2.518999e-07
2.518999e-07
2.518999e-07
2.518999e-07
2.518999e-07
2.518999e-07
2.518999e-07
2.518999e-07
2.518999e-07
2.518999e-07
2.518999e-07
2.518999e-07
7.499278e-08
2.484395e-07
2.518932e-07
2.519001e-07
2.519e-07
2.518999e-07
2.518999e-07
2.518999e-07
2.518999e-07
2.518999e-07
2.518999e-07
2.518999e-07
2.518999e-07
2.518999e-07
2.518999e-07
2.518999e-07
2.518999e-07
2.518999e-07
7.018893e-08
2.482931e-07
2.518991e-07
2.518989e-07
2.518997e-07
2.518999e-07
2.518999e-07
2.518999e-07
2.518999e-07
2.518999e-07
2.518999e-07
2.518999e-07
2.518999e-07
2.518999e-07
2.518999e-07
2.518999e-07
2.518999e-07
2.518999e-07
6.669736e-08
2.482209e-07
2.519014e-07
2.519009e-07
2.518995e-07
2.518999e-07
2.518999e-07
2.518999e-07
2.518999e-07
2.518999e-07
2.518999e-07
2.518999e-07
2.518999e-07
2.518999e-07
2.518999e-07
2.518999e-07
2.518999e-07
2.518999e-07
6.158382e-08
2.481785e-07
2.518994e-07
2.519013e-07
2.518997e-07
2.518999e-07
2.518999e-07
2.518999e-07
2.518999e-07
2.518999e-07
2.518999e-07
2.518999e-07
2.518999e-07
2.518998e-07
2.518997e-07
2.518999e-07
2.518999e-07
2.518999e-07
5.838995e-08
2.481125e-07
2.518982e-07
2.519001e-07
2.518994e-07
2.518999e-07
2.518999e-07
2.518999e-07
2.518999e-07
2.518999e-07
2.518999e-07
2.518999e-07
2.518999e-07
2.518997e-07
2.518995e-07
2.518999e-07
2.518999e-07
2.518999e-07
5.447625e-08
2.480387e-07
2.51898e-07
2.518975e-07
2.518973e-07
2.519e-07
2.518999e-07
2.518999e-07
2.518998e-07
2.518999e-07
2.518999e-07
2.518999e-07
2.518999e-07
2.518998e-07
2.518997e-07
2.518999e-07
2.518999e-07
2.518999e-07
5.089764e-08
2.479812e-07
2.518979e-07
2.518839e-07
2.518856e-07
2.519002e-07
2.518998e-07
2.518995e-07
2.518996e-07
2.518999e-07
2.518999e-07
2.518999e-07
2.518999e-07
2.518998e-07
2.518999e-07
2.518999e-07
2.518999e-07
2.518998e-07
4.74105e-08
2.480042e-07
2.518964e-07
2.518181e-07
2.518323e-07
2.519014e-07
2.518996e-07
2.518975e-07
2.518988e-07
2.519e-07
2.518999e-07
2.518999e-07
2.518999e-07
2.518999e-07
2.518998e-07
2.518999e-07
2.518999e-07
2.518997e-07
4.370969e-08
2.481894e-07
2.518897e-07
2.51619e-07
2.516859e-07
2.519053e-07
2.51899e-07
2.518901e-07
2.518953e-07
2.519003e-07
2.518999e-07
2.518999e-07
2.518998e-07
2.518999e-07
2.519e-07
2.518999e-07
2.518999e-07
2.518996e-07
4.005987e-08
2.486153e-07
2.518661e-07
2.513713e-07
2.515662e-07
2.519058e-07
2.518979e-07
2.518786e-07
2.518883e-07
2.519007e-07
2.518999e-07
2.518999e-07
2.518998e-07
2.518997e-07
2.518998e-07
2.518999e-07
2.518998e-07
2.518997e-07
3.65634e-08
2.492262e-07
2.517844e-07
2.51457e-07
2.517166e-07
2.518789e-07
2.518965e-07
2.518856e-07
2.518896e-07
2.519e-07
2.518999e-07
2.518999e-07
2.518995e-07
2.518993e-07
2.518997e-07
2.518999e-07
2.518995e-07
2.518997e-07
3.288211e-08
2.493393e-07
2.515731e-07
2.51232e-07
2.513397e-07
2.518105e-07
2.518919e-07
2.519058e-07
2.519051e-07
2.518989e-07
2.518999e-07
2.518999e-07
2.51899e-07
2.51899e-07
2.518998e-07
2.518997e-07
2.518992e-07
2.518995e-07
2.988113e-08
2.478185e-07
2.514146e-07
2.505817e-07
2.507654e-07
2.517041e-07
2.518764e-07
2.518864e-07
2.518943e-07
2.518995e-07
2.519002e-07
2.519e-07
2.518991e-07
2.518999e-07
2.518999e-07
2.518992e-07
2.518989e-07
2.518999e-07
2.67917e-08
2.462974e-07
2.515842e-07
2.513642e-07
2.511737e-07
2.517168e-07
2.518652e-07
2.518998e-07
2.51897e-07
2.519055e-07
2.519047e-07
2.519021e-07
2.519001e-07
2.519012e-07
2.518999e-07
2.518985e-07
2.518984e-07
2.519003e-07
2.364061e-08
2.480503e-07
2.51346e-07
2.518702e-07
2.519042e-07
2.520098e-07
2.519327e-07
2.519452e-07
2.519465e-07
2.519452e-07
2.519323e-07
2.519179e-07
2.519081e-07
2.519055e-07
2.519009e-07
2.518984e-07
2.518978e-07
2.518995e-07
1.505537e-08
2.490399e-07
2.503849e-07
2.509062e-07
2.520561e-07
2.521232e-07
2.521636e-07
2.5214e-07
2.52126e-07
2.520922e-07
2.520437e-07
2.51993e-07
2.51955e-07
2.519313e-07
2.519103e-07
2.519028e-07
2.518998e-07
2.519002e-07
1.444746e-08
2.523203e-07
2.495086e-07
2.513549e-07
2.521934e-07
2.524875e-07
2.5255e-07
2.525285e-07
2.524753e-07
2.524392e-07
2.523333e-07
2.522186e-07
2.521218e-07
2.520342e-07
2.519605e-07
2.519296e-07
2.5191e-07
2.519019e-07
8.357504e-09
2.539859e-07
2.503791e-07
2.523797e-07
2.53153e-07
2.529055e-07
2.529435e-07
2.529293e-07
2.528895e-07
2.52844e-07
2.527329e-07
2.526065e-07
2.524666e-07
2.522893e-07
2.521314e-07
2.520296e-07
2.51951e-07
2.519148e-07
1.795199e-09
2.428953e-07
2.50436e-07
2.532241e-07
2.53292e-07
2.531568e-07
2.531915e-07
2.53139e-07
2.530644e-07
2.530512e-07
2.529516e-07
2.528951e-07
2.528031e-07
2.526336e-07
2.524688e-07
2.522684e-07
2.52085e-07
2.519714e-07
6.834882e-09
2.113835e-07
2.478366e-07
2.534327e-07
2.533495e-07
2.535151e-07
2.534499e-07
2.533524e-07
2.532547e-07
2.532402e-07
2.530749e-07
2.529598e-07
2.528562e-07
2.528036e-07
2.527338e-07
2.525567e-07
2.523368e-07
2.521356e-07
1.338519e-09
2.186209e-07
2.497597e-07
2.541566e-07
2.536425e-07
2.537097e-07
2.5361e-07
2.535858e-07
2.533495e-07
2.532913e-07
2.531357e-07
2.529429e-07
2.528776e-07
2.528208e-07
2.526871e-07
2.526302e-07
2.525707e-07