/*--------------------------------*- C++ -*----------------------------------*\
| =========                 |                                                 |
| \\      /  F ield         | OpenFOAM: The Open Source CFD Toolbox           |
|  \\    /   O peration     | Version:  2206                                  |
|   \\  /    A nd           | Website:  www.openfoam.com                      |
|    \\/     M anipulation  |                                                 |
\*---------------------------------------------------------------------------*/
FoamFile
{
    version     2.0;
    format      ascii;
    arch        "LSB;label=32;scalar=64";
    class       volScalarField;
    location    "2.8";
    object      k.b_0;
}
// * * * * * * * * * * * * * * * * * * * * * * * * * * * * * * * * * * * * * //

dimensions      [0 2 -2 0 0 0 0];

internalField   nonuniform List<scalar> 
13078
(
1.372866e-13
1.881312e-11
3.274828e-11
3.324237e-11
3.346004e-11
3.373733e-11
3.406423e-11
3.810522e-14
1.575128e-11
3.240986e-11
3.319513e-11
3.344744e-11
3.372868e-11
3.405622e-11
1.354169e-13
1.583133e-11
3.234291e-11
3.316391e-11
3.342928e-11
3.371594e-11
3.404561e-11
5.620186e-14
1.601297e-11
3.233079e-11
3.314049e-11
3.341167e-11
3.370245e-11
3.403405e-11
3.630301e-14
1.608364e-11
3.232328e-11
3.312748e-11
3.339706e-11
3.368964e-11
3.402264e-11
3.021107e-14
1.612321e-11
3.232122e-11
3.311924e-11
3.33897e-11
3.367887e-11
3.401183e-11
2.842731e-14
1.614004e-11
3.23149e-11
3.311385e-11
3.338462e-11
3.367417e-11
3.400249e-11
2.86196e-14
1.61431e-11
3.230772e-11
3.311094e-11
3.338168e-11
3.367094e-11
3.39991e-11
2.996178e-14
1.614238e-11
3.230992e-11
3.311027e-11
3.338011e-11
3.366881e-11
3.399667e-11
3.210291e-14
1.613428e-11
3.231144e-11
3.311023e-11
3.337929e-11
3.366742e-11
3.399491e-11
3.507378e-14
1.612113e-11
3.231236e-11
3.311049e-11
3.337889e-11
3.366648e-11
3.399352e-11
3.888964e-14
1.610418e-11
3.231279e-11
3.311086e-11
3.337872e-11
3.366581e-11
3.399244e-11
4.365711e-14
1.608435e-11
3.231281e-11
3.311122e-11
3.337867e-11
3.366531e-11
3.399151e-11
4.958355e-14
1.606197e-11
3.231251e-11
3.311149e-11
3.337854e-11
3.366486e-11
3.399066e-11
5.695989e-14
1.603754e-11
3.231136e-11
3.311017e-11
3.337645e-11
3.366422e-11
3.398985e-11
6.617395e-14
1.60112e-11
3.230982e-11
3.310842e-11
3.337489e-11
3.366367e-11
3.398902e-11
7.773316e-14
1.598316e-11
3.23088e-11
3.31084e-11
3.337464e-11
3.366319e-11
3.398817e-11
9.226684e-14
1.595349e-11
3.230756e-11
3.310844e-11
3.337441e-11
3.36627e-11
3.398729e-11
1.105867e-13
1.592206e-11
3.230616e-11
3.310846e-11
3.337408e-11
3.366199e-11
3.398639e-11
1.337378e-13
1.588907e-11
3.230459e-11
3.310829e-11
3.337165e-11
3.36582e-11
3.398509e-11
1.630727e-13
1.585431e-11
3.230292e-11
3.310806e-11
3.336874e-11
3.365529e-11
3.398378e-11
2.003073e-13
1.581786e-11
3.230119e-11
3.310804e-11
3.336805e-11
3.365433e-11
3.398263e-11
2.47504e-13
1.577952e-11
3.229931e-11
3.310797e-11
3.336757e-11
3.36532e-11
3.39811e-11
3.073017e-13
1.573921e-11
3.229732e-11
3.31079e-11
3.336682e-11
3.364913e-11
3.39749e-11
3.830025e-13
1.569674e-11
3.229522e-11
3.310784e-11
3.336601e-11
3.364445e-11
3.397008e-11
4.78708e-13
1.565188e-11
3.229292e-11
3.310777e-11
3.336536e-11
3.364265e-11
3.396786e-11
5.994807e-13
1.560524e-11
3.229046e-11
3.310773e-11
3.336468e-11
3.364112e-11
3.396516e-11
7.515054e-13
1.555042e-11
3.228739e-11
3.310771e-11
3.336391e-11
3.363935e-11
3.395831e-11
9.423846e-13
1.550232e-11
3.228491e-11
3.310773e-11
3.336309e-11
3.363738e-11
3.3951e-11
1.181517e-12
1.535884e-11
3.227642e-11
3.31076e-11
3.336227e-11
3.363555e-11
3.394704e-11
1.483595e-12
1.520701e-11
3.227559e-11
3.310784e-11
3.336145e-11
3.363372e-11
3.394406e-11
1.855508e-12
1.495489e-11
3.226934e-11
3.310802e-11
3.336082e-11
3.36318e-11
3.394073e-11
2.314392e-12
1.464069e-11
3.223189e-11
3.31029e-11
3.335966e-11
3.362949e-11
3.393724e-11
2.875244e-12
1.453596e-11
3.220295e-11
3.309805e-11
3.335721e-11
3.362591e-11
3.393225e-11
3.555605e-12
1.443194e-11
3.218898e-11
3.308877e-11
3.333868e-11
3.361627e-11
3.392255e-11
4.371216e-12
1.432218e-11
3.216542e-11
3.307368e-11
3.331321e-11
3.358326e-11
3.390219e-11
5.334179e-12
1.420766e-11
3.212815e-11
3.304116e-11
3.32813e-11
3.354677e-11
3.387869e-11
6.447346e-12
1.408416e-11
3.207481e-11
3.299946e-11
3.324305e-11
3.351421e-11
3.385321e-11
7.696524e-12
1.394962e-11
3.201192e-11
3.295608e-11
3.321077e-11
3.349296e-11
3.384313e-11
9.061592e-12
1.368897e-11
3.194249e-11
3.291525e-11
3.317465e-11
3.346508e-11
3.382189e-11
1.05249e-11
1.320829e-11
3.186518e-11
3.286437e-11
3.312416e-11
3.341845e-11
3.378734e-11
1.194854e-11
1.274128e-11
3.173816e-11
3.277843e-11
3.304698e-11
3.333994e-11
3.369132e-11
1.326673e-11
1.2528e-11
3.160639e-11
3.267422e-11
3.291806e-11
3.322958e-11
3.355635e-11
1.437117e-11
1.234174e-11
3.149563e-11
3.258142e-11
3.280179e-11
3.306913e-11
3.342492e-11
1.518916e-11
1.210179e-11
3.140426e-11
3.249306e-11
3.27208e-11
3.293976e-11
3.321123e-11
1.565083e-11
1.173746e-11
3.131075e-11
3.240011e-11
3.262022e-11
3.281855e-11
3.302757e-11
1.554802e-11
1.132923e-11
3.11968e-11
3.232256e-11
3.249231e-11
3.267139e-11
3.288015e-11
1.479719e-11
1.109198e-11
3.109066e-11
3.224408e-11
3.236984e-11
3.250859e-11
3.271596e-11
1.337937e-11
1.084924e-11
3.09745e-11
3.214352e-11
3.227421e-11
3.241133e-11
3.259954e-11
1.138493e-11
1.061929e-11
3.087197e-11
3.204954e-11
3.216818e-11
3.230693e-11
3.250701e-11
8.973236e-12
1.017916e-11
3.075533e-11
3.198055e-11
3.21028e-11
3.224871e-11
3.243243e-11
6.393085e-12
9.525532e-12
3.060685e-11
3.188643e-11
3.202948e-11
3.220465e-11
3.240706e-11
3.93825e-12
9.249037e-12
3.04973e-11
3.187979e-11
3.20404e-11
3.223073e-11
3.240519e-11
1.974137e-12
9.117274e-12
3.046287e-11
3.187101e-11
3.20538e-11
3.224865e-11
3.241406e-11
7.144178e-13
9.035106e-12
3.046542e-11
3.188806e-11
3.208962e-11
3.228916e-11
3.247805e-11
3.011398e-13
8.995348e-12
3.048553e-11
3.192268e-11
3.213721e-11
3.234615e-11
3.254443e-11
7.920273e-13
9.073872e-12
3.052774e-11
3.19441e-11
3.214533e-11
3.234742e-11
3.255241e-11
2.081014e-12
9.241175e-12
3.057486e-11
3.19402e-11
3.212455e-11
3.231499e-11
3.250089e-11
4.041014e-12
9.436626e-12
3.063512e-11
3.195775e-11
3.212501e-11
3.230589e-11
3.245995e-11
6.555405e-12
9.691788e-12
3.072809e-11
3.199801e-11
3.214441e-11
3.231477e-11
3.246093e-11
9.249417e-12
1.007444e-11
3.087866e-11
3.203412e-11
3.216366e-11
3.232561e-11
3.251627e-11
1.168575e-11
1.078879e-11
3.104526e-11
3.214004e-11
3.225593e-11
3.239693e-11
3.257115e-11
1.365425e-11
1.127807e-11
3.117474e-11
3.221924e-11
3.233877e-11
3.247818e-11
3.268489e-11
1.504416e-11
1.152706e-11
3.127527e-11
3.231079e-11
3.245181e-11
3.259851e-11
3.280844e-11
1.578434e-11
1.173645e-11
3.137321e-11
3.24071e-11
3.255753e-11
3.272048e-11
3.294662e-11
1.586159e-11
1.186864e-11
3.145486e-11
3.248275e-11
3.269448e-11
3.291211e-11
3.313037e-11
1.542963e-11
1.21591e-11
3.154726e-11
3.256397e-11
3.283251e-11
3.307976e-11
3.329319e-11
1.455979e-11
1.244935e-11
3.162114e-11
3.265901e-11
3.292347e-11
3.320177e-11
3.348362e-11
1.344902e-11
1.263428e-11
3.168891e-11
3.273563e-11
3.299378e-11
3.329833e-11
3.367433e-11
1.215818e-11
1.277653e-11
3.177244e-11
3.281069e-11
3.307923e-11
3.340931e-11
3.377193e-11
1.076268e-11
1.295025e-11
3.187291e-11
3.288895e-11
3.316555e-11
3.347252e-11
3.384846e-11
9.345144e-12
1.331018e-11
3.196488e-11
3.295015e-11
3.321357e-11
3.351566e-11
3.388621e-11
7.958586e-12
1.366951e-11
3.202353e-11
3.298152e-11
3.324068e-11
3.353176e-11
3.388116e-11
6.698745e-12
1.387257e-11
3.207366e-11
3.301394e-11
3.326568e-11
3.353992e-11
3.387329e-11
5.57638e-12
1.398583e-11
3.212111e-11
3.304708e-11
3.329141e-11
3.355272e-11
3.38795e-11
4.595167e-12
1.415146e-11
3.215949e-11
3.307562e-11
3.331759e-11
3.358132e-11
3.390676e-11
3.75631e-12
1.429529e-11
3.217999e-11
3.309147e-11
3.333594e-11
3.361261e-11
3.392338e-11
3.048055e-12
1.441927e-11
3.219213e-11
3.309638e-11
3.33497e-11
3.362688e-11
3.393237e-11
2.462459e-12
1.453365e-11
3.220182e-11
3.310102e-11
3.336088e-11
3.363018e-11
3.393651e-11
1.981443e-12
1.462828e-11
3.222788e-11
3.31043e-11
3.336145e-11
3.363156e-11
3.393923e-11
1.588691e-12
1.493739e-11
3.226414e-11
3.310841e-11
3.336182e-11
3.363296e-11
3.394194e-11
1.270926e-12
1.518462e-11
3.226889e-11
3.310783e-11
3.336203e-11
3.363446e-11
3.394487e-11
1.012821e-12
1.533427e-11
3.226925e-11
3.310732e-11
3.336252e-11
3.363597e-11
3.394754e-11
8.090929e-13
1.547622e-11
3.227767e-11
3.310727e-11
3.336312e-11
3.363752e-11
3.395111e-11
6.468538e-13
1.552444e-11
3.228034e-11
3.310712e-11
3.336378e-11
3.363929e-11
3.395833e-11
5.177673e-13
1.558013e-11
3.228378e-11
3.310713e-11
3.336442e-11
3.364092e-11
3.3965e-11
4.15354e-13
1.562821e-11
3.228669e-11
3.310717e-11
3.336504e-11
3.364236e-11
3.396757e-11
3.341233e-13
1.567483e-11
3.228954e-11
3.310725e-11
3.336567e-11
3.364411e-11
3.396973e-11
2.697413e-13
1.571921e-11
3.229221e-11
3.310732e-11
3.336647e-11
3.364884e-11
3.397458e-11
2.18758e-13
1.576145e-11
3.229472e-11
3.310745e-11
3.336722e-11
3.365285e-11
3.398072e-11
1.784307e-13
1.580169e-11
3.229711e-11
3.310758e-11
3.336773e-11
3.3654e-11
3.398224e-11
1.464972e-13
1.583998e-11
3.229932e-11
3.310767e-11
3.336847e-11
3.365499e-11
3.398342e-11
1.211708e-13
1.58765e-11
3.230147e-11
3.310798e-11
3.337146e-11
3.365798e-11
3.39848e-11
1.010803e-13
1.591116e-11
3.230349e-11
3.310824e-11
3.337392e-11
3.36618e-11
3.398614e-11
8.522711e-14
1.594421e-11
3.230533e-11
3.310827e-11
3.337429e-11
3.366254e-11
3.398706e-11
7.260684e-14
1.597545e-11
3.230698e-11
3.310831e-11
3.337455e-11
3.366304e-11
3.398793e-11
6.248289e-14
1.600506e-11
3.23084e-11
3.310841e-11
3.337485e-11
3.366353e-11
3.39888e-11
5.432815e-14
1.6033e-11
3.231036e-11
3.311027e-11
3.337647e-11
3.366411e-11
3.398964e-11
4.775459e-14
1.605913e-11
3.231195e-11
3.311166e-11
3.337859e-11
3.366476e-11
3.399042e-11
4.244313e-14
1.60834e-11
3.23127e-11
3.311146e-11
3.337872e-11
3.366517e-11
3.399121e-11
3.812429e-14
1.610543e-11
3.231316e-11
3.311116e-11
3.337874e-11
3.366557e-11
3.3992e-11
3.46486e-14
1.61251e-11
3.231328e-11
3.311081e-11
3.33788e-11
3.366606e-11
3.399288e-11
3.197597e-14
1.614183e-11
3.231296e-11
3.311047e-11
3.337897e-11
3.36667e-11
3.399395e-11
2.996583e-14
1.615477e-11
3.231209e-11
3.311022e-11
3.337934e-11
3.36676e-11
3.399527e-11
2.865447e-14
1.616217e-11
3.231037e-11
3.311024e-11
3.338011e-11
3.366899e-11
3.399707e-11
2.824013e-14
1.61685e-11
3.231749e-11
3.311182e-11
3.338174e-11
3.367111e-11
3.399965e-11
2.913786e-14
1.616458e-11
3.232273e-11
3.31148e-11
3.338478e-11
3.367439e-11
3.400802e-11
3.206955e-14
1.614316e-11
3.232153e-11
3.311899e-11
3.338943e-11
3.368344e-11
3.401784e-11
3.860366e-14
1.610423e-11
3.232337e-11
3.312658e-11
3.340076e-11
3.369455e-11
3.402852e-11
5.85897e-14
1.602226e-11
3.23305e-11
3.31437e-11
3.341555e-11
3.370711e-11
3.403997e-11
1.377751e-13
1.592484e-11
3.236902e-11
3.316696e-11
3.343274e-11
3.372058e-11
3.405162e-11
5.165598e-14
1.634136e-11
3.241886e-11
3.319682e-11
3.345221e-11
3.373433e-11
3.406293e-11
3.445497e-11
3.495154e-11
3.562185e-11
3.62749e-11
3.746276e-11
4.188558e-11
6.901288e-10
3.444614e-11
3.494029e-11
3.56069e-11
3.62575e-11
3.743882e-11
4.027584e-11
4.549769e-10
3.443576e-11
3.492836e-11
3.559258e-11
3.64825e-11
3.742011e-11
4.024027e-11
4.50522e-10
3.442472e-11
3.491608e-11
3.55768e-11
3.622153e-11
3.739523e-11
4.020322e-11
4.474848e-10
3.44137e-11
3.490359e-11
3.556189e-11
3.620133e-11
3.73727e-11
4.015886e-11
4.34904e-10
3.440292e-11
3.489109e-11
3.554643e-11
3.618266e-11
3.735073e-11
4.010878e-11
4.151303e-10
3.43926e-11
3.487884e-11
3.553117e-11
3.616481e-11
3.734461e-11
4.005657e-11
3.93534e-10
3.438343e-11
3.48669e-11
3.551621e-11
3.614739e-11
3.733901e-11
3.999747e-11
3.663699e-10
3.438056e-11
3.485609e-11
3.550199e-11
3.612975e-11
3.732154e-11
3.993801e-11
3.406044e-10
3.437843e-11
3.485302e-11
3.54889e-11
3.611231e-11
3.730436e-11
3.987244e-11
3.107483e-10
3.43767e-11
3.485074e-11
3.54853e-11
3.609553e-11
3.728738e-11
3.980422e-11
2.796337e-10
3.437516e-11
3.48486e-11
3.548254e-11
3.609182e-11
3.727033e-11
3.972505e-11
2.456233e-10
3.437378e-11
3.484659e-11
3.54798e-11
3.60885e-11
3.726741e-11
3.964474e-11
2.139764e-10
3.437246e-11
3.484461e-11
3.547704e-11
3.608509e-11
3.726416e-11
3.96138e-11
1.842562e-10
3.437117e-11
3.484259e-11
3.54742e-11
3.608158e-11
3.726062e-11
3.951765e-11
1.779797e-10
3.436985e-11
3.484051e-11
3.547128e-11
3.607794e-11
3.725685e-11
3.942915e-11
1.384147e-10
3.436851e-11
3.483836e-11
3.546827e-11
3.6074e-11
3.72512e-11
3.936642e-11
1.209703e-10
3.436711e-11
3.483619e-11
3.546506e-11
3.606808e-11
3.719904e-11
3.930286e-11
1.03742e-10
3.436566e-11
3.483402e-11
3.546177e-11
3.606373e-11
3.719181e-11
3.924773e-11
8.968105e-11
3.43641e-11
3.483172e-11
3.54583e-11
3.605924e-11
3.718602e-11
3.921659e-11
1.180873e-10
3.436247e-11
3.482928e-11
3.54547e-11
3.605451e-11
3.717996e-11
3.938123e-11
6.92121e-10
3.436069e-11
3.48267e-11
3.5451e-11
3.604945e-11
3.717364e-11
3.924484e-11
1.432581e-10
3.435883e-11
3.48239e-11
3.544656e-11
3.604401e-11
3.716589e-11
3.983335e-11
5.838267e-10
3.43563e-11
3.482087e-11
3.544309e-11
3.626441e-11
3.711914e-11
3.974738e-11
4.848522e-10
3.43537e-11
3.481768e-11
3.543731e-11
3.603487e-11
3.709277e-11
3.986204e-11
5.138943e-10
3.435126e-11
3.481425e-11
3.543239e-11
3.60257e-11
3.708336e-11
4.004025e-11
6.347367e-10
3.4348e-11
3.481021e-11
3.542696e-11
3.601861e-11
3.707308e-11
3.997423e-11
5.923442e-10
3.433781e-11
3.480553e-11
3.541924e-11
3.601092e-11
3.705921e-11
3.961388e-11
5.50132e-10
3.432947e-11
3.467461e-11
3.524725e-11
3.600168e-11
3.704632e-11
3.946329e-11
5.046407e-10
3.432256e-11
3.466708e-11
3.524044e-11
3.599385e-11
3.703379e-11
3.928933e-11
3.924508e-10
3.431057e-11
3.46484e-11
3.523347e-11
3.598422e-11
3.702079e-11
3.944373e-11
3.838137e-10
3.430244e-11
3.463798e-11
3.522631e-11
3.59737e-11
3.700641e-11
3.937436e-11
3.500369e-10
3.429608e-11
3.460362e-11
3.521831e-11
3.596294e-11
3.699125e-11
3.91979e-11
2.818533e-10
3.429121e-11
3.459513e-11
3.519229e-11
3.595353e-11
3.69764e-11
3.897992e-11
2.016995e-10
3.428277e-11
3.458347e-11
3.515924e-11
3.594591e-11
3.696009e-11
3.865074e-11
1.73201e-10
3.426947e-11
3.456966e-11
3.513521e-11
3.594052e-11
3.694851e-11
3.876284e-11
2.245037e-10
3.426382e-11
3.456713e-11
3.515273e-11
3.593848e-11
3.696506e-11
3.857864e-11
1.871702e-10
3.427966e-11
3.459431e-11
3.519934e-11
3.593457e-11
3.701926e-11
3.883495e-11
2.804657e-10
3.430949e-11
3.464579e-11
3.526632e-11
3.59979e-11
3.710247e-11
3.8586e-11
7.124569e-11
3.432523e-11
3.469054e-11
3.533655e-11
3.611093e-11
3.700856e-11
3.845998e-11
1.034937e-10
3.426887e-11
3.469444e-11
3.533118e-11
3.607265e-11
3.687564e-11
3.814133e-11
6.711119e-11
3.413434e-11
3.457947e-11
3.517942e-11
3.595004e-11
3.676684e-11
3.779208e-11
7.009758e-11
3.398388e-11
3.443261e-11
3.507567e-11
3.581245e-11
3.659946e-11
3.755022e-11
6.34454e-11
3.38184e-11
3.429834e-11
3.496354e-11
3.567224e-11
3.63619e-11
3.746881e-11
5.588914e-11
3.36373e-11
3.408183e-11
3.472862e-11
3.549143e-11
3.613566e-11
3.731605e-11
4.884412e-11
3.340152e-11
3.388558e-11
3.455555e-11
3.526248e-11
3.595598e-11
3.704289e-11
9.675535e-11
3.323505e-11
3.369507e-11
3.439694e-11
3.509379e-11
3.568641e-11
3.695732e-11
8.364363e-11
3.311308e-11
3.354467e-11
3.42879e-11
3.490212e-11
3.562065e-11
3.644524e-11
5.474744e-11
3.295927e-11
3.338863e-11
3.411087e-11
3.478464e-11
3.55025e-11
3.655545e-11
6.110534e-11
3.283709e-11
3.327316e-11
3.401189e-11
3.465865e-11
3.540405e-11
3.613009e-11
4.232874e-11
3.274485e-11
3.310634e-11
3.385679e-11
3.45344e-11
3.519697e-11
3.592068e-11
4.200494e-11
3.273723e-11
3.308868e-11
3.380141e-11
3.439503e-11
3.498696e-11
3.81568e-11
7.724606e-10
3.27406e-11
3.306734e-11
3.375103e-11
3.428677e-11
3.484639e-11
3.653767e-11
6.027508e-10
3.274352e-11
3.305607e-11
3.374963e-11
3.426807e-11
3.467538e-11
4.212458e-11
4.905255e-10
3.280605e-11
3.310395e-11
3.382167e-11
3.422883e-11
3.458469e-11
3.458917e-11
4.208219e-11
3.287731e-11
3.318565e-11
3.384483e-11
3.426527e-11
3.446576e-11
3.445023e-11
3.289147e-11
3.323314e-11
3.393308e-11
3.435552e-11
3.459364e-11
3.461109e-11
3.285136e-11
3.320302e-11
3.387278e-11
3.42876e-11
3.451134e-11
3.452978e-11
3.2812e-11
3.31655e-11
3.384314e-11
3.425235e-11
3.462135e-11
3.537811e-11
2.574542e-10
3.279298e-11
3.312196e-11
3.389535e-11
3.437042e-11
3.479397e-11
3.996285e-11
5.461816e-10
3.284821e-11
3.31741e-11
3.391318e-11
3.451987e-11
3.498372e-11
3.672899e-11
7.191862e-10
3.288676e-11
3.318332e-11
3.38304e-11
3.449524e-11
3.503473e-11
3.564166e-11
4.143767e-11
3.30111e-11
3.333821e-11
3.404102e-11
3.45941e-11
3.512469e-11
3.587431e-11
3.887577e-11
3.316955e-11
3.348485e-11
3.412334e-11
3.464726e-11
3.535957e-11
3.60745e-11
4.157304e-11
3.335419e-11
3.36247e-11
3.430238e-11
3.491874e-11
3.55141e-11
3.615716e-11
4.323536e-11
3.351109e-11
3.384644e-11
3.447814e-11
3.510736e-11
3.567374e-11
3.63468e-11
5.708795e-11
3.36795e-11
3.397566e-11
3.463558e-11
3.527215e-11
3.586265e-11
3.668242e-11
4.159212e-11
3.389052e-11
3.420755e-11
3.481229e-11
3.541618e-11
3.604824e-11
3.706282e-11
5.596549e-11
3.407697e-11
3.437648e-11
3.496445e-11
3.562166e-11
3.623388e-11
3.729678e-11
3.943695e-11
3.425139e-11
3.45609e-11
3.513216e-11
3.576547e-11
3.65038e-11
3.791903e-11
2.722447e-10
3.435347e-11
3.472546e-11
3.524195e-11
3.591299e-11
3.669554e-11
3.764922e-11
5.467667e-11
3.438161e-11
3.478917e-11
3.537356e-11
3.609202e-11
3.685032e-11
3.787429e-11
9.543831e-11
3.435583e-11
3.476821e-11
3.537733e-11
3.617903e-11
3.696889e-11
3.820733e-11
6.449091e-11
3.431436e-11
3.468311e-11
3.526739e-11
3.603706e-11
3.706263e-11
3.848958e-11
7.255851e-11
3.428101e-11
3.461255e-11
3.518128e-11
3.589846e-11
3.700118e-11
3.871755e-11
2.688486e-10
3.427496e-11
3.457794e-11
3.513607e-11
3.58666e-11
3.693357e-11
3.842719e-11
2.711219e-10
3.42825e-11
3.457738e-11
3.512917e-11
3.590365e-11
3.693421e-11
3.84449e-11
1.031876e-10
3.42899e-11
3.458714e-11
3.514703e-11
3.59383e-11
3.694899e-11
3.867506e-11
1.928133e-10
3.429435e-11
3.459906e-11
3.517383e-11
3.594733e-11
3.69641e-11
3.874468e-11
2.110578e-10
3.429764e-11
3.459894e-11
3.521211e-11
3.59575e-11
3.698024e-11
3.898833e-11
2.499826e-10
3.43034e-11
3.462279e-11
3.522277e-11
3.596852e-11
3.699664e-11
3.927752e-11
3.397474e-10
3.431139e-11
3.464403e-11
3.523021e-11
3.597895e-11
3.701185e-11
3.933045e-11
3.677599e-10
3.432316e-11
3.466516e-11
3.523692e-11
3.598858e-11
3.702535e-11
3.939759e-11
5.030507e-10
3.432959e-11
3.46673e-11
3.524339e-11
3.599737e-11
3.703793e-11
3.922449e-11
3.780065e-10
3.433771e-11
3.480509e-11
3.541857e-11
3.600875e-11
3.705025e-11
3.942293e-11
5.078152e-10
3.434768e-11
3.480963e-11
3.5426e-11
3.601552e-11
3.706431e-11
3.975579e-11
5.560553e-10
3.435085e-11
3.48136e-11
3.543161e-11
3.602275e-11
3.707619e-11
3.993559e-11
5.994997e-10
3.435325e-11
3.481702e-11
3.543663e-11
3.602948e-11
3.708619e-11
4.001496e-11
6.436196e-10
3.435585e-11
3.482026e-11
3.544138e-11
3.603578e-11
3.709638e-11
3.917979e-11
1.429329e-10
3.435837e-11
3.482324e-11
3.544578e-11
3.604179e-11
3.714754e-11
3.916816e-11
1.340998e-10
3.436022e-11
3.482603e-11
3.544994e-11
3.60474e-11
3.716858e-11
3.917342e-11
1.209813e-10
3.436201e-11
3.482869e-11
3.545386e-11
3.605259e-11
3.717518e-11
3.912483e-11
9.415458e-11
3.43637e-11
3.483117e-11
3.545755e-11
3.605752e-11
3.718157e-11
3.915263e-11
7.726137e-11
3.436532e-11
3.48335e-11
3.546108e-11
3.606215e-11
3.718754e-11
3.920555e-11
9.136077e-11
3.436678e-11
3.483572e-11
3.546438e-11
3.606656e-11
3.719326e-11
3.926356e-11
1.06529e-10
3.43682e-11
3.483792e-11
3.546762e-11
3.607195e-11
3.72207e-11
3.932386e-11
1.233046e-10
3.436954e-11
3.484007e-11
3.547068e-11
3.607675e-11
3.725376e-11
3.938811e-11
1.420808e-10
3.437085e-11
3.484212e-11
3.547358e-11
3.608058e-11
3.725765e-11
3.945644e-11
1.668276e-10
3.437209e-11
3.48441e-11
3.547639e-11
3.60843e-11
3.726137e-11
3.954858e-11
1.846659e-10
3.437333e-11
3.4846e-11
3.547911e-11
3.608786e-11
3.726482e-11
3.960436e-11
2.013409e-10
3.437457e-11
3.484791e-11
3.548175e-11
3.609134e-11
3.726811e-11
3.966009e-11
2.291859e-10
3.437591e-11
3.484988e-11
3.548439e-11
3.609477e-11
3.727801e-11
3.973538e-11
2.577324e-10
3.437737e-11
3.485195e-11
3.548784e-11
3.610499e-11
3.729488e-11
3.981089e-11
2.879245e-10
3.437912e-11
3.485472e-11
3.550073e-11
3.612237e-11
3.731196e-11
3.987987e-11
3.176021e-10
3.438153e-11
3.486516e-11
3.551467e-11
3.613994e-11
3.732919e-11
3.994182e-11
3.436112e-10
3.43901e-11
3.48767e-11
3.552936e-11
3.615781e-11
3.734584e-11
4.000284e-11
3.680891e-10
3.439982e-11
3.488858e-11
3.554439e-11
3.617488e-11
3.733961e-11
4.006105e-11
3.913885e-10
3.441008e-11
3.490085e-11
3.555968e-11
3.619316e-11
3.736084e-11
4.011366e-11
4.105704e-10
3.442088e-11
3.491342e-11
3.557517e-11
3.621148e-11
3.738294e-11
4.016118e-11
4.23149e-10
3.443216e-11
3.492613e-11
3.559072e-11
3.622986e-11
3.740518e-11
4.020309e-11
4.280002e-10
3.444341e-11
3.493867e-11
3.560617e-11
3.6248e-11
3.742749e-11
4.023736e-11
4.268997e-10
3.445433e-11
3.495119e-11
3.562155e-11
3.626594e-11
3.744997e-11
4.034236e-11
3.081742e-10
1.835886e-07
2.516065e-07
2.520928e-07
2.52089e-07
2.52089e-07
2.52089e-07
2.52089e-07
2.52089e-07
2.52089e-07
2.52089e-07
2.52089e-07
2.52089e-07
2.52089e-07
2.52089e-07
2.52089e-07
2.52089e-07
2.52089e-07
2.52089e-07
1.680705e-07
2.507191e-07
2.520811e-07
2.520886e-07
2.520888e-07
2.520888e-07
2.520888e-07
2.520888e-07
2.520888e-07
2.520888e-07
2.520888e-07
2.520888e-07
2.520888e-07
2.520888e-07
2.520888e-07
2.520888e-07
2.520888e-07
2.520888e-07
1.650521e-07
2.510866e-07
2.520975e-07
2.520892e-07
2.520889e-07
2.520889e-07
2.520889e-07
2.520889e-07
2.520889e-07
2.520889e-07
2.520889e-07
2.520889e-07
2.520889e-07
2.520889e-07
2.520889e-07
2.520889e-07
2.520889e-07
2.520889e-07
1.607004e-07
2.508556e-07
2.520862e-07
2.52089e-07
2.520889e-07
2.520889e-07
2.520889e-07
2.520889e-07
2.520889e-07
2.520889e-07
2.520889e-07
2.520889e-07
2.520889e-07
2.520889e-07
2.520889e-07
2.520889e-07
2.520889e-07
2.520889e-07
1.564028e-07
2.504185e-07
2.520803e-07
2.520888e-07
2.520888e-07
2.520889e-07
2.520889e-07
2.520889e-07
2.520889e-07
2.520889e-07
2.520889e-07
2.520889e-07
2.520889e-07
2.520889e-07
2.520889e-07
2.520889e-07
2.520889e-07
2.520889e-07
1.520772e-07
2.504488e-07
2.520837e-07
2.520888e-07
2.520888e-07
2.520888e-07
2.520888e-07
2.520888e-07
2.520888e-07
2.520888e-07
2.520888e-07
2.520888e-07
2.520888e-07
2.520888e-07
2.520888e-07
2.520888e-07
2.520888e-07
2.520888e-07
1.476267e-07
2.504948e-07
2.520862e-07
2.520888e-07
2.520888e-07
2.520889e-07
2.520889e-07
2.520889e-07
2.520889e-07
2.520889e-07
2.520889e-07
2.520889e-07
2.520889e-07
2.520889e-07
2.520889e-07
2.520889e-07
2.520889e-07
2.520889e-07
1.431546e-07
2.504459e-07
2.520868e-07
2.520888e-07
2.520888e-07
2.520889e-07
2.520889e-07
2.520889e-07
2.520889e-07
2.520889e-07
2.520889e-07
2.520889e-07
2.520889e-07
2.520889e-07
2.520889e-07
2.520889e-07
2.520889e-07
2.520889e-07
1.388569e-07
2.503867e-07
2.520867e-07
2.520888e-07
2.520888e-07
2.520889e-07
2.520889e-07
2.520889e-07
2.520889e-07
2.520889e-07
2.520889e-07
2.520889e-07
2.520889e-07
2.520889e-07
2.520889e-07
2.520889e-07
2.520889e-07
2.520889e-07
1.343294e-07
2.503027e-07
2.520855e-07
2.520888e-07
2.520888e-07
2.520889e-07
2.520889e-07
2.520889e-07
2.520889e-07
2.520889e-07
2.520889e-07
2.520889e-07
2.520889e-07
2.520889e-07
2.520889e-07
2.520889e-07
2.520889e-07
2.520889e-07
1.297519e-07
2.500757e-07
2.520814e-07
2.520885e-07
2.520888e-07
2.520889e-07
2.520889e-07
2.520889e-07
2.520889e-07
2.520889e-07
2.520889e-07
2.520889e-07
2.520889e-07
2.520889e-07
2.520889e-07
2.520889e-07
2.520889e-07
2.520889e-07
1.255619e-07
2.497728e-07
2.520741e-07
2.520872e-07
2.520887e-07
2.520889e-07
2.520889e-07
2.520889e-07
2.520889e-07
2.520889e-07
2.520889e-07
2.520889e-07
2.520889e-07
2.520889e-07
2.520889e-07
2.520889e-07
2.520889e-07
2.520889e-07
1.21558e-07
2.498427e-07
2.520743e-07
2.520847e-07
2.520884e-07
2.520888e-07
2.520889e-07
2.520889e-07
2.520889e-07
2.520889e-07
2.520889e-07
2.520889e-07
2.520889e-07
2.520889e-07
2.520888e-07
2.520889e-07
2.520889e-07
2.520889e-07
1.131132e-07
2.496854e-07
2.520891e-07
2.520842e-07
2.520877e-07
2.520888e-07
2.520889e-07
2.520889e-07
2.520889e-07
2.520889e-07
2.520889e-07
2.520889e-07
2.520889e-07
2.520889e-07
2.520888e-07
2.520889e-07
2.520889e-07
2.520889e-07
9.843743e-08
2.492222e-07
2.52088e-07
2.520892e-07
2.520875e-07
2.520887e-07
2.520888e-07
2.520889e-07
2.520889e-07
2.520889e-07
2.520889e-07
2.520889e-07
2.520889e-07
2.520889e-07
2.520888e-07
2.520889e-07
2.520889e-07
2.520889e-07
9.200261e-08
2.49004e-07
2.520837e-07
2.520896e-07
2.520888e-07
2.520886e-07
2.520888e-07
2.520889e-07
2.520889e-07
2.520889e-07
2.520889e-07
2.520889e-07
2.520889e-07
2.520889e-07
2.520889e-07
2.520889e-07
2.520889e-07
2.520889e-07
8.61501e-08
2.487874e-07
2.520854e-07
2.520881e-07
2.520891e-07
2.520887e-07
2.520888e-07
2.520889e-07
2.520889e-07
2.520889e-07
2.520889e-07
2.520889e-07
2.520889e-07
2.520889e-07
2.520889e-07
2.520889e-07
2.520889e-07
2.520889e-07
8.051579e-08
2.488349e-07
2.520858e-07
2.520893e-07
2.520884e-07
2.520889e-07
2.520888e-07
2.520888e-07
2.520888e-07
2.520889e-07
2.520889e-07
2.520889e-07
2.520889e-07
2.520889e-07
2.520889e-07
2.520889e-07
2.520889e-07
2.520889e-07
7.507703e-08
2.486326e-07
2.520821e-07
2.52089e-07
2.52089e-07
2.520888e-07
2.520889e-07
2.520888e-07
2.520888e-07
2.520889e-07
2.520889e-07
2.520889e-07
2.520889e-07
2.520889e-07
2.520889e-07
2.520889e-07
2.520889e-07
2.520889e-07
7.026622e-08
2.484887e-07
2.520881e-07
2.520879e-07
2.520886e-07
2.520889e-07
2.520889e-07
2.520889e-07
2.520888e-07
2.520889e-07
2.520889e-07
2.520889e-07
2.520889e-07
2.520888e-07
2.520888e-07
2.520889e-07
2.520889e-07
2.520889e-07
6.676745e-08
2.484168e-07
2.520903e-07
2.520898e-07
2.520884e-07
2.520889e-07
2.520889e-07
2.520889e-07
2.520888e-07
2.520889e-07
2.520889e-07
2.520889e-07
2.520889e-07
2.520888e-07
2.520888e-07
2.520889e-07
2.520889e-07
2.520889e-07
6.165036e-08
2.48373e-07
2.520883e-07
2.520902e-07
2.520887e-07
2.520888e-07
2.520889e-07
2.520889e-07
2.520888e-07
2.520889e-07
2.520889e-07
2.520889e-07
2.520889e-07
2.520888e-07
2.520887e-07
2.520889e-07
2.520889e-07
2.520889e-07
5.8453e-08
2.483066e-07
2.520871e-07
2.52089e-07
2.520884e-07
2.520889e-07
2.520888e-07
2.520888e-07
2.520888e-07
2.520889e-07
2.520889e-07
2.520889e-07
2.520889e-07
2.520887e-07
2.520885e-07
2.520889e-07
2.520889e-07
2.520889e-07
5.453481e-08
2.482321e-07
2.520869e-07
2.520866e-07
2.520863e-07
2.520889e-07
2.520888e-07
2.520888e-07
2.520888e-07
2.520889e-07
2.520889e-07
2.520889e-07
2.520889e-07
2.520887e-07
2.520886e-07
2.520889e-07
2.520889e-07
2.520888e-07
5.095122e-08
2.48173e-07
2.520868e-07
2.520734e-07
2.52075e-07
2.520891e-07
2.520887e-07
2.520885e-07
2.520886e-07
2.520889e-07
2.520889e-07
2.520889e-07
2.520888e-07
2.520888e-07
2.520889e-07
2.520889e-07
2.520889e-07
2.520888e-07
4.745995e-08
2.481938e-07
2.520854e-07
2.520094e-07
2.520231e-07
2.520903e-07
2.520885e-07
2.520865e-07
2.520877e-07
2.52089e-07
2.520889e-07
2.520889e-07
2.520888e-07
2.520888e-07
2.520887e-07
2.520889e-07
2.520888e-07
2.520886e-07
4.375483e-08
2.483753e-07
2.520789e-07
2.518131e-07
2.518783e-07
2.520941e-07
2.52088e-07
2.520793e-07
2.520843e-07
2.520892e-07
2.520889e-07
2.520889e-07
2.520887e-07
2.520888e-07
2.52089e-07
2.520889e-07
2.520888e-07
2.520886e-07
4.010067e-08
2.487961e-07
2.520559e-07
2.515634e-07
2.517554e-07
2.520948e-07
2.520869e-07
2.520677e-07
2.520774e-07
2.520896e-07
2.520889e-07
2.520889e-07
2.520887e-07
2.520887e-07
2.520888e-07
2.520888e-07
2.520887e-07
2.520887e-07
3.660006e-08
2.494076e-07
2.519763e-07
2.51645e-07
2.519047e-07
2.520687e-07
2.520855e-07
2.520742e-07
2.520784e-07
2.52089e-07
2.520888e-07
2.520888e-07
2.520884e-07
2.520882e-07
2.520886e-07
2.520888e-07
2.520885e-07
2.520887e-07
3.291451e-08
2.495389e-07
2.517677e-07
2.514336e-07
2.515418e-07
2.520009e-07
2.52081e-07
2.520947e-07
2.520939e-07
2.520878e-07
2.520888e-07
2.520888e-07
2.52088e-07
2.52088e-07
2.520888e-07
2.520886e-07
2.520881e-07
2.520884e-07
2.99099e-08
2.480414e-07
2.516053e-07
2.507716e-07
2.509552e-07
2.518942e-07
2.520658e-07
2.520756e-07
2.520835e-07
2.520884e-07
2.520891e-07
2.520889e-07
2.520881e-07
2.520888e-07
2.520888e-07
2.520881e-07
2.520878e-07
2.520888e-07
2.681591e-08
2.464778e-07
2.517722e-07
2.515397e-07
2.513557e-07
2.519019e-07
2.520541e-07
2.520882e-07
2.520855e-07
2.520941e-07
2.520934e-07
2.520909e-07
2.52089e-07
2.520901e-07
2.520888e-07
2.520875e-07
2.520873e-07
2.520892e-07
2.366231e-08
2.482059e-07
2.515462e-07
2.520634e-07
2.520811e-07
2.521954e-07
2.521193e-07
2.521325e-07
2.521337e-07
2.521328e-07
2.521202e-07
2.521063e-07
2.520967e-07
2.520942e-07
2.520898e-07
2.520873e-07
2.520868e-07
2.520885e-07
1.508432e-08
2.49214e-07
2.505956e-07
2.511099e-07
2.522492e-07
2.5231e-07
2.523475e-07
2.523244e-07
2.523109e-07
2.522772e-07
2.522295e-07
2.521797e-07
2.521424e-07
2.521193e-07
2.520989e-07
2.520916e-07
2.520887e-07
2.520891e-07
1.444978e-08
2.52448e-07
2.497025e-07
2.515282e-07
2.523709e-07
2.526689e-07
2.527328e-07
2.527108e-07
2.526576e-07
2.526218e-07
2.525165e-07
2.524025e-07
2.523065e-07
2.522203e-07
2.521479e-07
2.521177e-07
2.520986e-07
2.520907e-07
8.357816e-09
2.541976e-07
2.505522e-07
2.525525e-07
2.533353e-07
2.530902e-07
2.531288e-07
2.531147e-07
2.530751e-07
2.530291e-07
2.529175e-07
2.527899e-07
2.526499e-07
2.524733e-07
2.523162e-07
2.522158e-07
2.521387e-07
2.521033e-07
1.788862e-09
2.434267e-07
2.50658e-07
2.534088e-07
2.53474e-07
2.533439e-07
2.533785e-07
2.533266e-07
2.532525e-07
2.532393e-07
2.531401e-07
2.530829e-07
2.529903e-07
2.528188e-07
2.526525e-07
2.524528e-07
2.522708e-07
2.521587e-07
6.866737e-09
2.116105e-07
2.480271e-07
2.536148e-07
2.535431e-07
2.537032e-07
2.536389e-07
2.535412e-07
2.534447e-07
2.534301e-07
2.532646e-07
2.531506e-07
2.530468e-07
2.529927e-07
2.529225e-07
2.52743e-07
2.525217e-07
2.52321e-07
1.377266e-09
2.183401e-07
2.499317e-07
2.543434e-07
2.538295e-07