/*--------------------------------*- C++ -*----------------------------------*\
| =========                 |                                                 |
| \\      /  F ield         | OpenFOAM: The Open Source CFD Toolbox           |
|  \\    /   O peration     | Version:  2206                                  |
|   \\  /    A nd           | Website:  www.openfoam.com                      |
|    \\/     M anipulation  |                                                 |
\*---------------------------------------------------------------------------*/
FoamFile
{
    version     2.0;
    format      ascii;
    arch        "LSB;label=32;scalar=64";
    class       volScalarField;
    location    "2.8";
    object      muEff;
}
// * * * * * * * * * * * * * * * * * * * * * * * * * * * * * * * * * * * * * //

dimensions      [1 -1 -1 0 0 0 0];

internalField   nonuniform List<scalar> 
13078
(
0.004480318
0.0368053
0.0368053
0.0368053
0.0368053
0.0368053
0.0368053
0.0368053
0.0368053
0.0368053
0.0368053
0.0368053
0.0368053
0.0368053
0.0368053
0.0368053
0.0368053
0.0368053
0.0368053
0.0368053
0.0368053
0.0368053
0.0368053
0.0368053
0.0368053
0.0368053
0.0368053
0.0368053
0.0368053
0.0368053
0.0368053
0.0368053
0.0368053
0.0368053
0.0368053
0.0368053
0.0368053
0.0368053
0.0368053
0.0368053
0.0368053
0.0368053
0.0368053
0.0368053
0.0368053
0.0368053
0.0368053
0.0368053
0.0368053
0.0368053
0.0368053
0.0368053
0.0368053
0.0368053
0.0368053
0.0368053
0.0368053
0.0368053
0.0368053
0.0368053
0.0368053
0.0368053
0.0368053
0.0368053
0.0368053
0.0368053
0.0368053
0.0368053
0.0368053
0.0368053
0.0368053
0.0368053
0.0368053
0.0368053
0.0368053
0.0368053
0.0368053
0.0368053
0.0368053
0.0368053
0.0368053
0.0368053
0.0368053
0.0368053
0.0368053
0.0368053
0.0368053
0.0368053
0.0368053
0.0368053
0.0368053
0.0368053
0.0368053
0.0368053
0.0368053
0.0368053
0.0368053
0.0368053
0.0368053
0.0368053
0.0368053
0.0368053
0.0368053
0.0368053
0.0368053
0.0368053
0.0368053
0.0368053
0.0368053
0.0368053
0.0368053
0.0368053
0.0368053
0.0368053
0.0368053
0.0368053
0.0368053
0.0368053
0.0368053
0.0368053
0.0368053
0.0368053
0.0368053
0.0368053
0.0368053
0.0368053
0.0368053
0.0368053
0.0368053
0.0368053
0.0368053
0.0368053
0.0368053
0.0368053
0.0368053
0.0368053
0.0368053
0.0368053
0.0368053
0.0368053
0.0368053
0.0368053
0.0368053
0.0368053
0.0368053
0.0368053
0.0368053
0.0368053
0.0368053
0.0368053
0.0368053
0.0368053
0.0368053
0.0368053
0.0368053
0.0368053
0.0368053
0.0368053
0.0368053
0.0368053
0.0368053
0.0368053
0.0368053
0.0368053
0.0368053
0.0368053
0.0368053
0.0368053
0.0368053
0.0368053
0.0368053
0.0368053
0.0368053
0.0368053
0.0368053
0.0368053
0.0368053
0.0368053
0.0368053
0.0368053
0.0368053
0.0368053
0.0368053
0.0368053
0.0368053
0.0368053
0.0368053
0.0368053
0.0368053
0.0368053
0.0368053
0.0368053
0.0368053
0.0368053
0.0368053
0.0368053
0.0368053
0.0368053
0.0368053
0.0368053
0.0368053
0.0368053
0.0368053
0.0368053
0.0368053
0.0368053
0.0368053
0.0368053
0.0368053
0.0368053
0.0368053
0.0368053
0.0368053
0.0368053
0.0368053
0.0368053
0.0368053
0.0368053
0.0368053
0.0368053
0.0368053
0.0368053
0.0368053
0.0368053
0.0368053
0.0368053
0.0368053
0.0368053
0.0368053
0.0368053
0.0368053
0.0368053
0.0368053
0.0368053
0.0368053
0.0368053
0.0368053
0.0368053
0.0368053
0.0368053
0.0368053
0.0368053
0.0368053
0.0368053
0.0368053
0.0368053
0.0368053
0.0368053
0.0368053
0.0368053
0.0368053
0.0368053
0.0368053
0.0368053
0.0368053
0.0368053
0.0368053
0.0368053
0.0368053
0.0368053
0.0368053
0.0368053
0.0368053
0.0368053
0.0368053
0.0368053
0.0368053
0.0368053
0.0368053
0.0368053
0.0368053
0.0368053
0.0368053
0.0368053
0.0368053
0.0368053
0.0368053
0.0368053
0.0368053
0.0368053
0.0368053
0.0368053
0.0368053
0.0368053
0.0368053
0.0368053
0.0368053
0.0368053
0.0368053
0.0368053
0.0368053
0.0368053
0.0368053
0.0368053
0.0368053
0.0368053
0.0368053
0.0368053
0.0368053
0.0368053
0.0368053
0.0368053
0.0368053
0.0368053
0.0368053
0.0368053
0.0368053
0.0368053
0.0368053
0.0368053
0.0368053
0.0368053
0.0368053
0.0368053
0.0368053
0.0368053
0.0368053
0.0368053
0.0368053
0.0368053
0.0368053
0.0368053
0.0368053
0.0368053
0.0368053
0.0368053
0.0368053
0.0368053
0.0368053
0.0368053
0.0368053
0.0368053
0.0368053
0.0368053
0.0368053
0.0368053
0.0368053
0.0368053
0.0368053
0.0368053
0.0368053
0.0368053
0.0368053
0.0368053
0.0368053
0.0368053
0.0368053
0.0368053
0.0368053
0.0368053
0.0368053
0.0368053
0.0368053
0.0368053
0.0368053
0.0368053
0.0368053
0.0368053
0.0368053
0.0368053
0.0368053
0.0368053
0.0368053
0.0368053
0.0368053
0.0368053
0.0368053
0.0368053
0.0368053
0.0368053
0.0368053
0.0368053
0.0368053
0.0368053
0.0368053
0.0368053
0.0368053
0.0368053
0.0368053
0.0368053
0.0368053
0.0368053
0.0368053
0.0368053
0.0368053
0.0368053
0.0368053
0.0368053
0.0368053
0.0368053
0.0368053
0.0368053
0.0368053
0.0368053
0.0368053
0.0368053
0.0368053
0.0368053
0.0368053
0.0368053
0.0368053
0.0368053
0.0368053
0.0368053
0.0368053
0.0368053
0.0368053
0.0368053
0.0368053
0.0368053
0.0368053
0.0368053
0.0368053
0.0368053
0.0368053
0.0368053
0.0368053
0.0368053
0.0368053
0.0368053
0.0368053
0.0368053
0.0368053
0.0368053
0.0368053
0.0368053
0.0368053
0.0368053
0.0368053
0.0368053
0.0368053
0.0368053
0.0368053
0.0368053
0.0368053
0.0368053
0.0368053
0.0368053
0.0368053
0.0368053
0.0368053
0.0368053
0.0368053
0.0368053
0.0368053
0.0368053
0.0368053
0.0368053
0.0368053
0.0368053
0.0368053
0.0368053
0.0368053
0.0368053
0.0368053
0.0368053
0.0368053
0.0368053
0.0368053
0.0368053
0.0368053
0.0368053
0.0368053
0.0368053
0.0368053
0.0368053
0.0368053
0.0368053
0.0368053
0.0368053
0.0368053
0.0368053
0.0368053
0.0368053
0.0368053
0.0368053
0.0368053
0.0368053
0.0368053
0.0368053
0.0368053
0.0368053
0.0368053
0.0368053
0.0368053
0.0368053
0.0368053
0.0368053
0.0368053
0.0368053
0.0368053
0.0368053
0.0368053
0.0368053
0.0368053
0.0368053
0.0368053
0.0368053
0.0368053
0.0368053
0.0368053
0.0368053
0.0368053
0.0368053
0.0368053
0.0368053
0.0368053
0.0368053
0.0368053
0.0368053
0.0368053
0.0368053
0.0368053
0.0368053
0.0368053
0.0368053
0.0368053
0.0368053
0.0368053
0.0368053
0.0368053
0.0368053
0.0368053
0.0368053
0.0368053
0.0368053
0.0368053
0.0368053
0.0368053
0.0368053
0.0368053
0.0368053
0.0368053
0.0368053
0.0368053
0.0368053
0.0368053
0.0368053
0.0368053
0.0368053
0.0368053
0.0368053
0.0368053
0.0368053
0.0368053
0.0368053
0.0368053
0.0368053
0.0368053
0.0368053
0.0368053
0.0368053
0.0368053
0.0368053
0.0368053
0.0368053
0.0368053
0.0368053
0.0368053
0.0368053
0.0368053
0.0368053
0.0368053
0.0368053
0.0368053
0.0368053
0.0368053
0.0368053
0.0368053
0.0368053
0.0368053
0.0368053
0.0368053
0.0368053
0.0368053
0.0368053
0.0368053
0.0368053
0.0368053
0.0368053
0.0368053
0.0368053
0.0368053
0.0368053
0.0368053
0.0368053
0.0368053
0.0368053
0.0368053
0.0368053
0.0368053
0.0368053
0.0368053
0.0368053
0.0368053
0.0368053
0.0368053
0.0368053
0.0368053
0.0368053
0.0368053
0.0368053
0.0368053
0.0368053
0.0368053
0.0368053
0.0368053
0.0368053
0.0368053
0.0368053
0.0368053
0.0368053
0.0368053
0.0368053
0.0368053
0.0368053
0.0368053
0.0368053
0.0368053
0.0368053
0.0368053
0.0368053
0.0368053
0.0368053
0.0368053
0.0368053
0.0368053
0.0368053
0.0368053
0.0368053
0.0368053
0.0368053
0.0368053
0.0368053
0.0368053
0.0368053
0.0368053
0.0368053
0.0368053
0.0368053
0.0368053
0.0368053
0.0368053
0.0368053
0.0368053
0.0368053
0.0368053
0.0368053
0.0368053
0.0368053
0.0368053
0.0368053
0.0368053
0.0368053
0.0368053
0.0368053
0.0368053
0.0368053
0.0368053
0.0368053
0.0368053
0.0368053
0.0368053
0.0368053
0.0368053
0.0368053
0.0368053
0.0368053
0.0368053
0.0368053
0.0368053
0.0368053
0.0368053
0.0368053
0.0368053
0.0368053
0.0368053
0.0368053
0.0368053
0.0368053
0.0368053
0.0368053
0.0368053
0.0368053
0.0368053
0.0368053
0.0368053
0.0368053
0.0368053
0.0368053
0.0368053
0.0368053
0.0368053
0.0368053
0.0368053
0.0368053
0.0368053
0.0368053
0.0368053
0.0368053
0.0368053
0.0368053
0.0368053
0.0368053
0.0368053
0.0368053
0.0368053
0.0368053
0.0368053
0.0368053
0.0368053
0.0368053
0.0368053
0.0368053
0.0368053
0.0368053
0.0368053
0.0368053
0.0368053
0.0368053
0.0368053
0.0368053
0.0368053
0.0368053
0.0368053
0.0368053
0.0368053
0.0368053
0.0368053
0.0368053
0.0368053
0.0368053
0.0368053
0.0368053
0.0368053
0.0368053
0.0368053
0.0368053
0.0368053
0.0368053
0.0368053
0.0368053
0.0368053
0.0368053
0.0368053
0.0368053
0.0368053
0.0368053
0.0368053
0.0368053
0.0368053
0.0368053
0.0368053
0.0368053
0.0368053
0.0368053
0.0368053
0.0368053
0.0368053
0.0368053
0.0368053
0.0368053
0.0368053
0.0368053
0.0368053
0.0368053
0.0368053
0.0368053
0.0368053
0.0368053
0.0368053
0.0368053
0.0368053
0.0368053
0.0368053
0.0368053
0.0368053
0.0368053
0.0368053
0.0368053
0.0368053
0.0368053
0.0368053
0.0368053
0.0368053
0.0368053
0.0368053
0.0368053
0.0368053
0.0368053
0.0368053
0.0368053
0.0368053
0.0368053
0.0368053
0.0368053
0.0368053
0.0368053
0.0368053
0.0368053
0.0368053
0.0368053
0.0368053
0.0368053
0.0368053
0.0368053
0.0368053
0.0368053
0.0368053
0.0368053
0.0368053
0.0368053
0.0368053
0.0368053
0.0368053
0.0368053
0.0368053
0.0368053
0.0368053
0.0368053
0.0368053
0.0368053
0.0368053
0.0368053
0.0368053
0.0368053
0.0368053
0.0368053
0.0368053
0.0368053
0.0368053
0.0368053
0.0368053
0.0368053
0.0368053
0.0368053
0.0368053
0.0368053
0.0368053
0.0368053
0.0368053
0.0368053
0.0368053
0.0368053
0.0368053
0.0368053
0.0368053
0.0368053
0.0368053
0.0368053
0.0368053
0.0368053
0.0368053
0.0368053
0.0368053
0.0368053
0.0368053
0.0368053
0.0368053
0.0368053
0.0368053
0.0368053
0.0368053
0.0368053
0.0368053
0.0368053
0.0368053
0.0368053
0.0368053
0.0368053
0.0368053
0.0368053
0.0368053
0.0368053
0.0368053
0.0368053
0.0368053
0.0368053
0.0368053
0.0368053
0.0368053
0.0368053
0.0368053
0.0368053
0.0368053
0.0368053
0.0368053
0.0368053
0.0368053
0.0368053
0.0368053
0.0368053
0.0368053
0.0368053
0.0368053
0.0368053
0.0368053
0.0368053
0.0368053
0.0368053
0.0368053
0.0368053
0.0368053
0.0368053
0.0368053
0.0368053
0.0368053
0.0368053
0.0368053
0.0368053
0.0368053
0.0368053
0.0368053
0.0368053
0.0368053
0.0368053
0.0368053
0.0368053
0.0368053
0.0368053
0.0368053
0.0368053
0.0368053
0.0368053
0.0368053
0.0368053
0.0368053
0.0368053
0.0368053
0.0368053
0.0368053
0.0368053
0.0368053
0.0368053
0.0368053
0.0368053
0.0368053
0.0368053
0.0368053
0.0368053
0.0368053
0.0368053
0.0368053
0.0368053
0.0368053
0.0368053
0.0368053
0.0368053
0.0368053
0.0368053
0.0368053
0.0368053
0.0368053
0.0368053
0.0368053
0.0368053
0.0368053
0.0368053
0.0368053
0.0368053
0.0368053
0.0368053
0.0368053
0.0368053
0.0368053
0.0368053
0.0368053
0.0368053
0.0368053
0.0368053
0.0368053
0.0368053
0.0368053
0.0368053
0.0368053
0.0368053
0.0368053
0.0368053
0.0368053
0.0368053
0.0368053
0.0368053
0.0368053
0.0368053
0.0368053
0.0368053
0.0368053
0.0368053
0.0368053
0.0368053
0.0368053
0.0368053
0.0368053
0.0368053
0.0368053
0.0368053
0.0368053
0.0368053
0.0368053
0.0368053
0.0368053
0.0368053
0.0368053
0.0368053
0.0368053
0.0368053
0.0368053
0.0368053
0.0368053
0.0368053
0.0368053
0.0368053
0.0368053
0.0368053
0.0368053
0.0368053
0.0368053
0.0368053
0.0368053
0.0368053
0.0368053
0.0368053
0.0368053
0.0368053
0.0368053
0.0368053
0.0368053
0.0368053
0.0368053
0.0368053
0.0368053
0.0368053
0.0368053
0.0368053
0.0368053
0.0368053
0.0368053
0.0368053
0.0368053
0.0368053
0.0368053
0.0368053
0.0368053
0.0368053
0.0368053
0.0368053
0.0368053
0.0368053
0.0368053
0.0368053
0.0368053
0.0368053
0.0368053
0.0368053
0.0368053
0.0368053
0.0368053
0.0368053
0.0368053
0.0368053
0.0368053
0.0368053
0.0368053
0.0368053
0.0368053
0.0368053
0.0368053
0.0368053
0.0368053
0.0368053
0.0368053
0.0368053
0.0368053
0.0368053
0.0368053
0.0368053
0.0368053
0.0368053
0.0368053
0.0368053
0.0368053
0.0368053
0.0368053
0.0368053
0.0368053
0.0368053
0.0368053
0.0368053
0.0368053
0.0368053
0.0368053
0.0368053
0.0368053
0.0368053
0.0368053
0.0368053
0.0368053
0.0368053
0.0368053
0.0368053
0.0368053
0.0368053
0.0368053
0.0368053
0.0368053
0.0368053
0.0368053
0.0368053
0.0368053
0.0368053
0.0368053
0.0368053
0.0368053
0.0368053
0.0368053
0.0368053
0.0368053
0.0368053
0.0368053
0.0368053
0.0368053
0.0368053
0.0368053
0.0368053
0.0368053
0.0368053
0.0368053
0.0368053
0.0368053
0.0368053
0.0368053
0.0368053
0.0368053
0.0368053
0.0368053
0.0368053
0.0368053
0.0368053
0.0368053
0.0368053
0.0368053
0.0368053
0.0368053
0.0368053
0.0368053
0.0368053
0.0368053
0.0368053
0.0368053
0.0368053
0.0368053
0.0368053
0.0368053
0.0368053
0.0368053
0.0368053
0.0368053
0.0368053
0.0368053
0.0368053
0.0368053
0.0368053
0.0368053
0.0368053
0.0368053
0.0368053
0.0368053
0.0368053
0.0368053
0.0368053
0.0368053
0.0368053
0.0368053
0.0368053
0.0368053
0.0368053
0.0368053
0.0368053
0.0368053
0.0368053
0.0368053
0.0368053
0.0368053
0.0368053
0.0368053
0.0368053
0.0368053
0.0368053
0.0368053
0.0368053
0.0368053
0.0368053
0.0368053
0.0368053
0.0368053
0.0368053
0.0368053
0.0368053
0.0368053
0.0368053
0.0368053
0.0368053
0.0368053
0.0368053
0.0368053
0.0368053
0.0368053
0.0368053
0.0368053
0.0368053
0.0368053
0.0368053
0.0368053
0.0368053
0.0368053
0.0368053
0.0368053
0.0368053
0.0368053
0.0368053
0.0368053
0.0368053
0.0368053
0.0368053
0.0368053
0.0368053
0.0368053
0.0368053
0.0368053
0.0368053
0.0368053
0.0368053
0.0368053
0.0368053
0.0368053
0.0368053
0.0368053
0.0368053
0.0368053
0.0368053
0.0368053
0.0368053
0.0368053
0.0368053
0.0368053
0.0368053
0.0368053
0.0368053
0.0368053
0.0368053
0.0368053
0.0368053
0.0368053
0.0368053
0.0368053
0.0368053
0.0368053
0.0368053
0.0368053
0.0368053
0.0368053
0.0368053
0.0368053
0.0368053
0.0368053
0.0368053
0.0368053
0.0368053
0.0368053
0.0368053
0.0368053
0.0368053
0.0368053
0.0368053
0.0368053
0.0368053
0.0368053
0.0368053
0.0368053
0.0368053
0.0368053
0.0368053
0.0368053
0.0368053
0.0368053
0.0368053
0.0368053
0.0368053
0.0368053
0.0368053
0.0368053
0.0368053
0.0368053
0.0368053
0.0368053
0.0368053
0.0368053
0.0368053
0.0368053
0.0368053
0.0368053
0.0368053
0.0368053
0.0368053
0.0368053
0.0368053
0.0368053
0.0368053
0.0368053
0.0368053
0.0368053
0.0368053
0.0368053
0.0368053
0.0368053
0.0368053
0.0368053
0.0368053
0.0368053
0.0368053
0.0368053
0.0368053
0.0368053
0.0368053
0.0368053
0.0368053
0.0368053
0.0368053
0.0368053
0.0368053
0.0368053
0.0368053
0.0368053
0.0368053
0.0368053
0.0368053
0.0368053
0.0368053
0.0368053
0.0368053
0.0368053
0.0368053
0.0368053
0.0368053
0.0368053
0.0368053
0.0368053
0.0368053
0.0368053
0.0368053
0.0368053
0.0368053
0.0368053
0.0368053
0.0368053
0.0368053
0.0368053
0.0368053
0.0368053
0.0368053
0.0368053
0.0368053
0.0368053
0.0368053
0.0368053
0.0368053
0.0368053
0.0368053
0.0368053
0.0368053
0.0368053
0.0368053
0.0368053
0.0368053
0.0368053
0.0368053
0.0368053
0.0368053
0.0368053
0.0368053
0.0368053
0.0368053
0.0368053
0.0368053
0.0368053
0.0368053
0.0368053
0.0368053
0.0368053
0.0368053
0.0368053
0.0368053
0.0368053
0.0368053
0.0368053
0.0368053
0.0368053
0.0368053
0.0368053
0.0368053
0.0368053
0.0368053
0.0368053
0.0368053
0.0368053
0.0368053
0.0368053
0.0368053
0.0368053
0.0368053
0.0368053
0.0368053
0.0368053
0.0368053
0.0368053
0.0368053
0.0368053
0.0368053
0.0368053
0.0368053
0.0368053
0.0368053
0.0368053
0.0368053
0.0368053
0.0368053
0.0368053
0.0368053
0.0368053
0.0368053
0.0368053
0.0368053
0.0368053
0.0368053
0.0368053
0.0368053
0.0368053
0.0368053
0.0368053
0.0368053
0.0368053
0.0368053
0.0368053
0.0368053
0.0368053
0.0368053
0.0368053
0.0368053
0.0368053
0.0368053
0.0368053
0.0368053
0.0368053
0.0368053
0.0368053
0.0368053
0.0368053
0.0368053
0.0368053
0.0368053
0.0368053
0.0368053
0.0368053
0.0368053
0.0368053
0.0368053
0.0368053
0.0368053
0.0368053
0.0368053
0.0368053
0.0368053
0.0368053
0.0368053
0.0368053
0.0368053
0.0368053
0.0368053
0.0368053
0.0368053
0.0368053
0.0368053
0.0368053
0.0368053
0.0368053
0.0368053
0.0368053
0.0368053
0.0368053
0.0368053
0.0368053
0.0368053
0.0368053
0.0368053
0.0368053
0.0368053
0.0368053
0.0368053
0.0368053
0.0368053
0.0368053
0.0368053
0.0368053
0.0368053
0.0368053
0.0368053
0.0368053
0.0368053
0.0368053
0.0368053
0.0368053
0.0368053
0.0368053
0.0368053
0.0368053
0.0368053
0.0368053
0.0368053
0.0368053
0.0368053
0.0368053
0.0368053
0.0368053
0.0368053
0.0368053
0.0368053
0.0368053
0.0368053
0.0368053
0.0368053
0.0368053
0.0368053
0.0368053
0.0368053
0.0368053
0.0368053
0.0368053
0.0368053
0.0368053
0.0368053
0.0368053
0.0368053
0.0368053
0.0368053
0.0368053
0.0368053
0.0368053
0.0368053
0.0368053
0.0368053
0.0368053
0.0368053
0.0368053
0.0368053
0.0368053
0.0368053
0.0368053
0.0368053
0.0368053
0.0368053
0.0368053
0.0368053
0.0368053
0.0368053
0.0368053
0.001009835
0.001002486
0.001009244
0.001014987
0.001020705
0.001035095
0.00106971
0.001040722
0.001041505
0.001042946
0.001036527
0.00103296
0.001030167
0.00102794
0.001026311
0.001024728
0.00102365
0.001022712
0.00102443
0.00100324
0.001014042
0.001018588
0.001023998
0.00104099
0.001077562
0.001043665
0.001043348
0.001043169
0.001035819
0.001032212
0.001029697
0.001027653
0.001026153
0.001024506
0.001023525
0.001022615
0.001029366
0.001003996
0.001023807
0.001024738
0.001028718
0.00104575
0.001068794
0.001046362
0.001044121
0.001042074
0.001034589
0.001031103
0.001028879
0.001027087
0.001025778
0.001024103
0.001023256
0.001022399
0.001031849
0.001004139
0.001028302
0.001029899
0.001033155
0.001048938
0.001056513
0.001047273
0.001042972
0.001039708
0.001033241
0.001029816
0.001027869
0.001026289
0.001025244
0.001023548
0.001022879
0.001022084
0.001034242
0.001004093
0.001029211
0.00103282
0.001036142
0.001049127
0.001048466
0.0010452
0.001040285
0.001036637
0.001031706
0.001028516
0.001026678
0.001025358
0.001024546
0.00102296
0.001022395
0.001021687
0.001036518
0.001003999
0.001030502
0.001034754
0.001037776
0.00104681
0.001042595
0.001040713
0.001036586
0.001033337
0.001029808
0.001027049
0.001025493
0.001024394
0.0010238
0.001022247
0.00102185
0.00102122
0.001038772
0.001003866
0.00103158
0.001035505
0.001037637
0.001042498
0.001037666
0.001034831
0.001032726
0.001030211
0.001027696
0.001025714
0.001024286
0.001023376
0.001022973
0.001021517
0.001021237
0.001020707
0.001040949
0.001003765
0.001032462
0.001035133
0.001035659
0.001037606
0.001033474
0.001030115
0.001029227
0.001027543
0.001025777
0.001024374
0.001023044
0.001022383
0.00102209
0.001020751
0.001020596
0.001020149
0.001043067
0.001003721
0.001031094
0.001032572
0.001032192
0.001032742
0.00103003
0.001026016
0.00102629
0.00102546
0.001024294
0.001022573
0.001021805
0.00102136
0.001021179
0.001019983
0.001019931
0.001019564
0.001045247
0.001003672
0.001026274
0.001027682
0.001028081
0.001028517
0.001027209
0.001023658
0.001023955
0.001023664
0.001022079
0.001020835
0.00102069
0.001020331
0.00102033
0.001019224
0.001019261
0.00101896
0.001047397
0.00100351
0.001024141
0.001024606
0.001024795
0.001025135
0.001024434
0.001022318
0.001021767
0.001021145
0.00101999
0.001019746
0.001019605
0.001019401
0.001019494
0.001018469
0.001018568
0.001018349
0.00104943
0.001003437
0.001023428
0.001021402
0.001022111
0.001022668
0.001022192
0.00102094
0.001019677
0.001019147
0.001018833
0.001018781
0.001018622
0.001018515
0.001018671
0.001017726
0.001017897
0.001017734
0.001051496
0.001003047
0.001018139
0.001019453
0.001020807
0.00102105
0.001020468
0.001019543
0.001018307
0.001018083
0.001017967
0.001017811
0.001017729
0.001017661
0.001017871
0.001017011
0.001017234
0.001017119
0.001054011
0.001002672
0.00101652
0.001018637
0.001020279
0.001019963
0.001019202
0.001018358
0.001017376
0.001017305
0.0010171
0.00101689
0.001016872
0.001016847
0.001017075
0.001016332
0.001016583
0.001016516
0.001068007
0.001002451
0.001018547
0.001018168
0.001019433
0.001018985
0.001018107
0.001017317
0.001016559
0.00101644
0.001016203
0.001016043
0.001016058
0.00101609
0.00101626
0.001015701
0.001015942
0.001015922
0.001070378
0.001002387
0.001020902
0.001019923
0.001018806
0.001017947
0.001017046
0.001016361
0.001015663
0.001015543
0.001015348
0.001015253
0.001015289
0.001015373
0.001015433
0.001015118
0.001015309
0.001015332
0.001074686
0.001002385
0.001020139
0.001018735
0.001018955
0.001016783
0.001015917
0.001015346
0.001014741
0.001014674
0.001014536
0.001014504
0.001014545
0.001014661
0.001014649
0.001014554
0.001014689
0.00101475
0.001079686
0.0010023
0.001019579
0.001017808
0.001017147
0.001016015
0.001014818
0.001014336
0.001013832
0.001013842
0.001013768
0.001013781
0.001013836
0.001013938
0.001013995
0.001013969
0.001014093
0.001014185
0.001085146
0.001002215
0.001017046
0.001015925
0.001015897
0.001014605
0.001013965
0.001013395
0.001012913
0.001013053
0.001013046
0.001013075
0.001013156
0.001013259
0.001013303
0.001013444
0.001013527
0.001013618
0.001090617
0.00100214
0.001015721
0.001014523
0.001014158
0.001013281
0.001012866
0.001012486
0.001012125
0.001012339
0.00101234
0.001012391
0.001012488
0.001012674
0.00101262
0.001012861
0.001012912
0.001013048
0.001096051
0.001002065
0.001014571
0.00101304
0.001013064
0.001012119
0.001011793
0.001011528
0.001011399
0.001011657
0.001011655
0.001011724
0.001011845
0.001012033
0.001011885
0.001012363
0.00101236
0.001012524
0.001101714
0.001001991
0.001013224
0.001011906
0.001011625
0.001011165
0.001010893
0.001010752
0.0010107
0.001010945
0.001010983
0.001011085
0.001011227
0.001011488
0.001011336
0.001011721
0.001011817
0.001011977
0.001107778
0.001001924
0.001011992
0.001010732
0.001010607
0.001010022
0.001010031
0.001010072
0.001010048
0.001010251
0.001010348
0.001010463
0.001010647
0.001010999
0.001010758
0.001011141
0.001011264
0.001011473
0.00111425
0.001001859
0.001010992
0.001009656
0.001009485
0.001009269
0.001009185
0.001009422
0.001009369
0.001009606
0.001009726
0.001009871
0.001010047
0.001010443
0.001010185
0.001010546
0.001010728
0.001011015
0.00112134
0.001001796
0.001010126
0.001008719
0.001008225
0.001008587
0.001008573
0.001008694
0.001008791
0.001009006
0.001009116
0.001009291
0.00100951
0.00100974
0.001009648
0.001009976
0.00101021
0.00101053
0.001128788
0.001001736
0.001009251
0.001007972
0.001007045
0.001007991
0.001007945
0.00100806
0.001008292
0.001008407
0.00100854
0.001008712
0.001009001
0.001009226
0.001009121
0.001009527
0.001009726
0.001010029
0.001136911
0.001001672
0.001007946
0.001007539
0.001006272
0.001007301
0.001007274
0.001007463
0.001007761
0.001007794
0.001007989
0.00100818
0.001008453
0.001008741
0.001008582
0.001008974
0.001009288
0.001009561
0.001145719
0.001001602
0.001006203
0.001007766
0.001006101
0.001006291
0.001006622
0.001006775
0.001007123
0.001007252
0.001007471
0.001007689
0.001007937
0.001008179
0.001008166
0.001008548
0.001008775
0.001009057
0.001155156
0.001001526
0.001004972
0.001007846
0.001006035
0.001005412
0.001006012
0.001006012
0.00100654
0.001006836
0.001007005
0.001007234
0.001007522
0.001007566
0.001007784
0.001008098
0.001008306
0.001008439
0.001165575
0.00100145
0.001004523
0.001005991
0.001005739
0.001005153
0.001005545
0.001005577
0.001006172
0.001006466
0.001006604
0.001006801
0.00100707
0.001007025
0.001007386
0.001007645
0.001007817
0.001008008
0.001176905
0.001001403
0.001004188
0.001004081
0.001005511
0.001005002
0.001005283
0.001005285
0.001005702
0.001006092
0.001006191
0.001006358
0.001006575
0.00100661
0.001006869
0.001007193
0.001007327
0.001007632
0.001189233
0.00100131
0.001003854
0.001003285
0.001004165
0.001005228
0.001005089
0.001005119
0.001005543
0.001005663
0.001005782
0.001005958
0.001006052
0.001006208
0.001006422
0.001006734
0.001006805
0.001007118
0.001203554
0.001001296
0.001003076
0.001003166
0.001003267
0.001004802
0.001004881
0.00100524
0.001005116
0.001005132
0.00100533
0.001005518
0.001005607
0.001005847
0.001006046
0.001006265
0.001006383
0.001006763
0.001223242
0.001001018
0.001002506
0.001002857
0.001003465
0.001003976
0.001004455
0.001004731
0.001004636
0.001004719
0.001004923
0.001005049
0.001005147
0.001005411
0.001005641
0.001005836
0.001005984
0.00100635
0.001278993
0.00100082
0.00100225
0.001002427
0.00100282
0.001003855
0.001004085
0.001004309
0.001004324
0.001004482
0.001004543
0.001004687
0.001004766
0.001004997
0.001005174
0.001005318
0.001005389
0.001006054
0.001321776
0.001000618
0.001001994
0.001002273
0.001002903
0.001003532
0.001003883
0.001003973
0.001004068
0.001004065
0.001004122
0.00100415
0.001004222
0.001004648
0.001004705
0.001004926
0.00100508
0.001005629
0.001415621
0.001000442
0.001001944
0.001002592
0.001003264
0.001003711
0.001003688
0.001003692
0.001003732
0.001003751
0.001003789
0.001003782
0.001003964
0.001004142
0.00100427
0.001004572
0.001004586
0.001005059
0.001958812
0.001000298
0.001001499
0.001002453
0.001003666
0.00100366
0.001003458
0.001003435
0.001003334
0.001003406
0.0010034
0.001003367
0.001003784
0.001003796
0.001003968
0.001004073
0.001004382
0.001004659
0.003364517
0.001000249
0.001001304
0.001002355
0.001003355
0.001003414
0.001003169
0.001003095
0.001002995
0.001003082
0.001003103
0.001003065
0.001003477
0.001003419
0.001003534
0.001004012
0.001004034
0.001004245
0.0368053
0.001000272
0.00100111
0.001002321
0.001003288
0.001003025
0.001002757
0.001002716
0.001002665
0.001002701
0.001002733
0.001002787
0.001003082
0.001003068
0.001003227
0.001003646
0.001003692
0.001003999
0.0368053
0.001000457
0.001001119
0.00100215
0.001002561
0.0010025
0.001002373
0.001002379
0.001002366
0.001002399
0.001002487
0.001002535
0.001002702
0.001002849
0.001002896
0.001003239
0.001003404
0.001003675
0.0368053
0.001000216
0.001001326
0.001001997
0.001002011
0.00100208
0.001002066
0.001002069
0.001002079
0.001002099
0.001002141
0.00100235
0.001002466
0.001002692
0.001002576
0.00100299
0.001003114
0.001003406
0.0368053
0.001000183
0.00100145
0.001002022
0.00100184
0.001001786
0.001001792
0.001001808
0.001001803
0.001001881
0.001001867
0.001002118
0.001002193
0.00100229
0.00100234
0.001002723
0.001002891
0.00100309
0.0368053
0.001002741
0.001001992
0.001002175
0.001001834
0.001001564
0.001001566
0.001001556
0.001001528
0.001001597
0.001001617
0.00100191
0.001001815
0.001002186
0.001002086
0.001002483
0.001002588
0.001002855
0.0368053
0.001003709
0.001002763
0.001002135
0.001001655
0.001001361
0.001001348
0.001001338
0.00100134
0.001001383
0.00100142
0.001001589
0.001001603
0.001001919
0.001001953
0.001002166
0.001002402
0.001002585
0.0368053
0.001006267
0.001001547
0.001002335
0.001001297
0.001001239
0.001001138
0.00100115
0.001001136
0.001001159
0.001001218
0.001001273
0.001001507
0.001001636
0.001001691
0.001001983
0.001002152
0.00100239
0.0368053
0.00101233
0.001001748
0.00100203
0.00100111
0.001000979
0.001000943
0.001000939
0.001000941
0.001000958
0.001001043
0.001001084
0.001001337
0.001001378
0.001001596
0.001001691
0.001001989
0.001002146
0.0368053
0.001079486
0.001001249
0.001000856
0.001000861
0.001000774
0.001000752
0.001000775
0.001000759
0.001000839
0.001000844
0.001000928
0.001001101
0.001001267
0.001001353
0.001001562
0.001001676
0.001002084
0.0368053
0.00127026
0.001001523
0.00100052
0.00100058
0.001000631
0.001000624
0.001000598
0.001000592
0.001000689
0.001000673
0.001000847
0.001000962
0.001001059
0.001001237
0.001001307
0.001001559
0.001001776
0.0368053
0.00231826
0.001004425
0.001000409
0.001000508
0.001000484
0.001000569
0.001000771
0.001000713
0.001000893
0.001001118
0.001001177
0.0010014
0.001001677
0.0368053
0.0368053
0.001000436
0.001000549
0.001000657
0.001000748
0.001000925
0.001001091
0.001001247
0.001001547
0.0368053
0.00100038
0.001000612
0.00100061
0.00100083
0.001000973
0.001001154
0.001001474
0.001000489
0.001000608
0.001000731
0.001000938
0.001001049
0.001001359
0.001000562
0.001000634
0.00100083
0.001001018
0.001001294
0.00100061
0.001000591
0.001000778
0.001000991
0.001001205
0.001000481
0.00100057
0.001000748
0.001000966
0.001001169
0.001000457
0.001000601
0.001000753
0.001000964
0.001001152
0.001000488
0.001000603
0.001000742
0.001000971
0.001001175
0.001000504
0.001000624
0.001000804
0.001000983
0.001001213
0.001000447
0.001000516
0.001000692
0.001000844
0.001001078
0.001001263
0.0368053
0.00100056
0.001000544
0.001000731
0.001000966
0.001001138
0.001001386
0.0368053
0.0368053
0.001000501
0.001000634
0.001000678
0.001000786
0.001001025
0.001001207
0.001001523
0.0368053
0.002846939
0.001006163
0.001000458
0.001000484
0.001000636
0.00100069
0.001000836
0.001000841
0.001001217
0.001001272
0.001001627
0.0368053
0.001562813
0.001002648
0.001000746
0.00100057
0.001000545
0.001000538
0.001000515
0.001000573
0.001000504
0.001000667
0.001000727
0.001000774
0.00100102
0.001000979
0.001001359
0.00100136
0.00100182
0.0368053
0.00111637
0.001002134
0.00100075
0.001000616
0.0010006
0.0010006
0.00100061
0.001000739
0.001000654
0.001000771
0.001000839
0.001000954
0.001001075
0.001001283
0.001001396
0.001001589
0.001001869
0.0368053
0.001034371
0.001000625
0.001000674
0.00100067
0.001000702
0.001000726
0.001000799
0.001000817
0.001000833
0.001000941
0.001001005
0.001001109
0.001001217
0.001001401
0.001001613
0.001001675
0.001002111
0.0368053
0.001007515
0.001000795
0.001000685
0.001000861
0.0010009
0.001000886
0.00100094
0.001000932
0.001000995
0.001001145
0.001001118
0.001001354
0.001001399
0.001001576
0.001001769
0.001001898
0.001002276
0.0368053
0.001005218
0.001000866
0.001000887
0.00100093
0.001000978
0.001001023
0.00100108
0.001001118
0.001001131
0.001001342
0.001001267
0.001001578
0.001001671
0.001001758
0.001002007
0.001002133
0.00100245
0.0368053
0.001002608
0.001000829
0.001000936
0.001001117
0.001001172
0.001001221
0.001001244
0.001001341
0.001001353
0.001001451
0.001001465
0.001001647
0.001001928
0.001002019
0.001002148
0.001002407
0.001002682
0.0368053
0.001002066
0.001000758
0.001001045
0.001001326
0.001001403
0.001001458
0.001001466
0.001001557
0.001001548
0.001001643
0.001001803
0.001001776
0.001002188
0.001002195
0.001002391
0.001002606
0.001002912
0.0368053
0.001004054
0.001001132
0.001001259
0.001001734
0.001001713
0.001001697
0.0010017
0.001001764
0.0010018
0.00100184
0.001002083
0.001002059
0.0010024
0.001002472
0.001002689
0.001002844
0.001003106
0.0368053
0.001010053
0.001002104
0.001002512
0.001002359
0.001002019
0.00100197
0.001001931