/*--------------------------------*- C++ -*----------------------------------*\
| =========                 |                                                 |
| \\      /  F ield         | OpenFOAM: The Open Source CFD Toolbox           |
|  \\    /   O peration     | Version:  2206                                  |
|   \\  /    A nd           | Website:  www.openfoam.com                      |
|    \\/     M anipulation  |                                                 |
\*---------------------------------------------------------------------------*/
FoamFile
{
    version     2.0;
    format      ascii;
    arch        "LSB;label=32;scalar=64";
    class       volScalarField;
    location    "2.8";
    object      muI;
}
// * * * * * * * * * * * * * * * * * * * * * * * * * * * * * * * * * * * * * //

dimensions      [0 0 0 0 0 0 0];

internalField   nonuniform List<scalar> 
13078
(
0.8338861
0.6300454
0.6300028
0.630001
0.6300004
0.6300002
0.6300002
0.6300194
0.6300045
0.6300019
0.6300007
0.6300003
0.6300002
0.6300002
0.6300027
0.6300017
0.6300008
0.6300004
0.6300003
0.6300002
0.6300002
0.6300007
0.6300006
0.6300004
0.6300003
0.6300002
0.6300002
0.6300001
0.6300003
0.6300003
0.6300002
0.6300002
0.6300002
0.6300001
0.6300001
0.6300002
0.6300002
0.6300001
0.6300001
0.6300001
0.6300001
0.6300001
0.6300001
0.6300001
0.6300001
0.6300001
0.6300001
0.6300001
0.6300001
0.6300001
0.6300001
0.6300001
0.6300001
0.6300001
0.6300001
0.6300001
0.6300001
0.63
0.63
0.63
0.63
0.63
0.6300001
0.63
0.63
0.63
0.63
0.63
0.63
0.63
0.63
0.63
0.63
0.63
0.63
0.63
0.63
0.63
0.63
0.63
0.63
0.63
0.63
0.63
0.63
0.63
0.63
0.63
0.63
0.63
0.63
0.63
0.63
0.63
0.63
0.63
0.63
0.63
0.63
0.63
0.63
0.63
0.63
0.63
0.63
0.63
0.63
0.63
0.63
0.63
0.63
0.63
0.63
0.63
0.63
0.63
0.63
0.63
0.63
0.63
0.63
0.63
0.63
0.63
0.63
0.63
0.63
0.63
0.63
0.63
0.63
0.63
0.63
0.63
0.63
0.63
0.63
0.63
0.63
0.6300001
0.63
0.63
0.63
0.63
0.63
0.63
0.6300001
0.63
0.63
0.63
0.63
0.63
0.6300001
0.6300001
0.63
0.63
0.63
0.63
0.63
0.6300001
0.6300001
0.63
0.63
0.63
0.63
0.6300001
0.6300001
0.6300001
0.63
0.63
0.63
0.6300001
0.6300001
0.6300001
0.6300001
0.63
0.63
0.63
0.6300001
0.6300001
0.6300001
0.6300001
0.63
0.63
0.6300001
0.6300001
0.6300001
0.6300001
0.6300001
0.63
0.6300001
0.6300001
0.6300001
0.6300001
0.6300001
0.6300001
0.63
0.6300001
0.6300001
0.6300001
0.6300001
0.6300001
0.6300001
0.63
0.6300001
0.6300001
0.6300001
0.6300001
0.6300001
0.6300001
0.63
0.6300001
0.6300001
0.6300001
0.6300001
0.6300001
0.6300001
0.63
0.6300001
0.6300001
0.6300001
0.6300001
0.6300001
0.6300002
0.63
0.6300001
0.6300001
0.6300001
0.6300001
0.6300002
0.6300002
0.6300001
0.6300001
0.6300001
0.6300001
0.6300001
0.6300002
0.6300002
0.6300001
0.6300001
0.6300001
0.6300001
0.6300002
0.6300002
0.6300002
0.6300001
0.6300001
0.6300001
0.6300002
0.6300002
0.6300002
0.6300002
0.6300001
0.6300001
0.6300001
0.6300002
0.6300002
0.6300002
0.6300002
0.6300001
0.6300001
0.6300002
0.6300002
0.6300002
0.6300002
0.6300002
0.6300001
0.6300001
0.6300002
0.6300002
0.6300002
0.6300002
0.6300002
0.6300001
0.6300001
0.6300002
0.6300002
0.6300002
0.6300002
0.6300003
0.6300001
0.6300001
0.6300002
0.6300002
0.6300002
0.6300003
0.6300003
0.6300001
0.6300001
0.6300002
0.6300002
0.6300003
0.6300003
0.6300004
0.6300001
0.6300001
0.6300002
0.6300002
0.6300003
0.6300003
0.6300004
0.6300001
0.6300002
0.6300002
0.6300003
0.6300003
0.6300004
0.6300004
0.6300001
0.6300002
0.6300003
0.6300003
0.6300004
0.6300004
0.6300004
0.6300002
0.6300003
0.6300003
0.6300004
0.6300004
0.6300004
0.6300004
0.6300002
0.6300003
0.6300004
0.6300004
0.6300004
0.6300004
0.6300005
0.6300003
0.6300004
0.6300004
0.6300004
0.6300004
0.6300004
0.6300006
0.6300004
0.6300004
0.6300004
0.6300004
0.6300005
0.6300005
0.6300009
0.6300004
0.6300005
0.6300005
0.6300005
0.6300005
0.6300007
0.6300017
0.6300005
0.6300005
0.6300005
0.6300005
0.6300006
0.6300012
0.6300027
0.6300005
0.6300005
0.6300005
0.6300006
0.6300009
0.630002
0.6300035
0.6300006
0.6300006
0.6300006
0.6300007
0.6300013
0.6300027
0.6300037
0.6300006
0.6300006
0.6300007
0.630001
0.6300019
0.6300032
0.6300036
0.6300007
0.6300007
0.6300009
0.6300014
0.6300024
0.6300034
0.6300035
0.6300008
0.6300009
0.6300011
0.6300018
0.6300027
0.6300034
0.6300034
0.6300008
0.6300011
0.6300014
0.6300021
0.6300029
0.6300034
0.6300033
0.6300009
0.6300013
0.6300017
0.6300023
0.6300029
0.6300033
0.6300033
0.630001
0.6300015
0.6300019
0.6300024
0.6300028
0.6300032
0.6300033
0.630001
0.6300016
0.6300021
0.6300025
0.6300028
0.6300032
0.6300032
0.6300009
0.6300016
0.6300023
0.6300027
0.6300029
0.6300032
0.6300032
0.6300008
0.6300016
0.6300024
0.6300029
0.630003
0.6300032
0.6300032
0.6300007
0.6300013
0.6300023
0.630003
0.6300032
0.6300033
0.6300034
0.6300006
0.630001
0.630002
0.630003
0.6300035
0.6300035
0.6300035
0.6300005
0.6300008
0.6300015
0.6300027
0.6300037
0.6300038
0.6300037
0.6300004
0.6300005
0.6300009
0.6300021
0.6300036
0.6300042
0.6300039
0.6300003
0.6300004
0.6300006
0.6300013
0.6300029
0.6300043
0.6300043
0.6300003
0.6300003
0.6300004
0.6300007
0.6300018
0.6300039
0.6300048
0.6300002
0.6300002
0.6300003
0.6300004
0.6300008
0.6300025
0.6300047
0.6300002
0.6300002
0.6300002
0.6300003
0.6300004
0.630001
0.6300032
0.6300002
0.6300001
0.6300002
0.6300002
0.6300002
0.6300004
0.6300012
0.6300001
0.6300001
0.6300001
0.6300001
0.6300002
0.6300002
0.6300003
0.6300001
0.6300001
0.6300001
0.6300001
0.6300001
0.6300001
0.6300002
0.6300001
0.6300001
0.6300001
0.6300001
0.6300001
0.6300001
0.6300001
0.6300001
0.63
0.63
0.63
0.63
0.6300001
0.6300001
0.6300001
0.63
0.63
0.63
0.6300001
0.6300001
0.6300001
0.63
0.63
0.63
0.63
0.6300001
0.6300001
0.6300001
0.63
0.63
0.63
0.63
0.6300001
0.6300001
0.6300001
0.63
0.63
0.63
0.63
0.6300001
0.6300001
0.6300001
0.63
0.63
0.63
0.6300001
0.6300001
0.6300001
0.6300001
0.63
0.63
0.63
0.6300001
0.6300001
0.6300001
0.6300001
0.63
0.63
0.63
0.6300001
0.6300001
0.6300001
0.6300001
0.63
0.63
0.63
0.6300001
0.6300001
0.6300001
0.6300001
0.63
0.63
0.63
0.6300001
0.6300001
0.6300001
0.6300001
0.63
0.63
0.63
0.6300001
0.6300001
0.6300001
0.6300001
0.63
0.63
0.63
0.63
0.6300001
0.6300001
0.6300001
0.63
0.63
0.63
0.63
0.6300001
0.6300001
0.6300001
0.63
0.63
0.63
0.63
0.6300001
0.6300001
0.6300001
0.63
0.63
0.63
0.63
0.63
0.6300001
0.6300001
0.63
0.63
0.63
0.63
0.63
0.6300001
0.6300001
0.63
0.63
0.63
0.63
0.63
0.63
0.6300001
0.63
0.63
0.63
0.63
0.63
0.63
0.6300001
0.63
0.63
0.63
0.63
0.63
0.63
0.6300001
0.63
0.63
0.63
0.63
0.63
0.63
0.63
0.63
0.63
0.63
0.63
0.63
0.63
0.63
0.63
0.63
0.63
0.63
0.63
0.63
0.63
0.63
0.63
0.63
0.63
0.63
0.63
0.63
0.63
0.63
0.63
0.63
0.63
0.63
0.63
0.63
0.63
0.63
0.63
0.63
0.63
0.63
0.63
0.63
0.63
0.63
0.63
0.63
0.63
0.63
0.63
0.63
0.63
0.63
0.63
0.63
0.63
0.63
0.63
0.63
0.63
0.63
0.63
0.63
0.63
0.63
0.63
0.63
0.63
0.63
0.63
0.63
0.63
0.63
0.63
0.63
0.63
0.6300001
0.63
0.63
0.63
0.63
0.63
0.6300001
0.6300001
0.6300001
0.6300001
0.6300001
0.6300001
0.6300001
0.6300001
0.6300001
0.6300001
0.6300001
0.6300001
0.6300001
0.6300001
0.6300001
0.6300002
0.6300001
0.6300001
0.6300001
0.6300001
0.6300001
0.6300001
0.6300003
0.6300003
0.6300002
0.6300002
0.6300002
0.6300001
0.6300001
0.6300007
0.6300005
0.6300004
0.6300003
0.6300002
0.6300002
0.6300001
0.6300026
0.6300016
0.6300007
0.6300004
0.6300003
0.6300002
0.6300002
0.6300174
0.6300041
0.6300018
0.6300007
0.6300003
0.6300002
0.6300002
0.6300002
0.6300001
0.6300001
0.6300001
0.6300001
0.63
0.6300001
0.6300002
0.6300001
0.6300001
0.6300001
0.6300001
0.63
0.6300001
0.6300001
0.6300001
0.6300001
0.6300001
0.6300001
0.6300001
0.6300001
0.6300001
0.6300001
0.6300001
0.6300001
0.6300001
0.6300001
0.6300001
0.6300001
0.6300001
0.6300001
0.6300001
0.6300001
0.6300001
0.6300001
0.6300001
0.6300001
0.6300001
0.6300001
0.6300001
0.6300001
0.6300001
0.6300001
0.6300001
0.6300001
0.6300001
0.6300001
0.6300001
0.6300002
0.6300001
0.6300001
0.6300001
0.6300001
0.6300001
0.6300001
0.6300002
0.6300001
0.6300001
0.6300001
0.6300001
0.6300001
0.6300001
0.6300002
0.6300001
0.6300001
0.6300001
0.6300001
0.6300001
0.6300001
0.6300001
0.63
0.6300001
0.6300001
0.6300001
0.6300001
0.6300001
0.6300001
0.63
0.6300001
0.6300001
0.6300001
0.6300001
0.6300001
0.6300001
0.63
0.6300001
0.6300001
0.63
0.6300001
0.6300001
0.6300001
0.63
0.6300001
0.6300001
0.63
0.6300001
0.6300001
0.6300001
0.63
0.6300001
0.6300001
0.63
0.6300001
0.6300001
0.6300001
0.63
0.6300001
0.6300001
0.6300001
0.6300001
0.6300001
0.6300001
0.63
0.6300001
0.6300001
0.6300001
0.6300001
0.6300001
0.6300001
0.6300001
0.6300001
0.6300001
0.6300001
0.6300001
0.6300001
0.6300001
0.6300001
0.6300001
0.6300001
0.6300001
0.6300001
0.6300001
0.6300001
0.6300001
0.6300001
0.6300001
0.6300001
0.6300001
0.6300001
0.6300002
0.6300001
0.6300001
0.6300001
0.6300001
0.6300001
0.6300001
0.6300002
0.6300001
0.6300001
0.6300001
0.6300001
0.6300001
0.6300001
0.6300002
0.6300001
0.6300001
0.6300001
0.6300001
0.6300001
0.6300001
0.6300002
0.6300001
0.6300001
0.6300001
0.6300001
0.6300001
0.6300001
0.6300003
0.6300001
0.6300001
0.6300001
0.6300001
0.6300001
0.6300001
0.6300003
0.6300001
0.6300001
0.6300001
0.6300001
0.6300001
0.6300001
0.6300003
0.6300001
0.6300001
0.6300001
0.6300001
0.6300001
0.6300001
0.6300004
0.6300001
0.6300001
0.6300001
0.6300001
0.6300001
0.6300001
0.6300005
0.6300001
0.6300001
0.6300001
0.6300001
0.6300001
0.6300002
0.6300006
0.6300002
0.6300002
0.6300002
0.6300001
0.6300001
0.6300002
0.6300007
0.6300002
0.6300002
0.6300002
0.6300002
0.6300002
0.6300002
0.6300009
0.6300002
0.6300002
0.6300002
0.6300002
0.6300002
0.6300002
0.6300011
0.6300002
0.6300002
0.6300002
0.6300002
0.6300001
0.6300002
0.6300011
0.6300002
0.6300002
0.6300002
0.6300002
0.6300001
0.6300001
0.6300005
0.6300002
0.6300002
0.6300002
0.6300001
0.6300001
0.6300001
0.6300001
0.6300002
0.6300002
0.6300002
0.6300001
0.6300001
0.6300001
0.630005
0.6300002
0.6300002
0.6300002
0.6300001
0.6300001
0.6300001
0.6300001
0.6300002
0.6300002
0.6300002
0.6300001
0.6300002
0.6300002
0.6300007
0.6300003
0.6300003
0.6300002
0.6300002
0.6300004
0.6300013
0.6300033
0.6300003
0.6300003
0.6300003
0.6300004
0.6300027
0.6300056
0.6300082
0.6300004
0.6300004
0.6300004
0.6300027
0.6300066
0.6300073
0.630011
0.6300004
0.6300004
0.630001
0.6300069
0.6300066
0.6300071
0.6300096
0.6300004
0.6300004
0.6300027
0.6300073
0.6300055
0.6300058
0.63001
0.6300004
0.6300005
0.6300043
0.6300063
0.6300047
0.6300048
0.6300069
0.6300005
0.6300006
0.6300047
0.6300056
0.6300043
0.6300042
0.6300063
0.6300005
0.6300008
0.6300051
0.6300048
0.6300043
0.6300042
0.630007
0.6300007
0.6300013
0.6300056
0.6300041
0.6300042
0.6300043
0.6300065
0.6300013
0.6300027
0.6300048
0.6300038
0.6300042
0.6300036
0.6300043
0.6300025
0.6300038
0.6300039
0.6300039
0.6300044
0.6300035
0.6300039
0.6300036
0.6300039
0.6300036
0.6300041
0.6300045
0.6300037
0.6300044
0.6300038
0.6300033
0.6300038
0.6300045
0.6300041
0.630004
0.6300062
0.6300036
0.6300031
0.630004
0.6300047
0.6300045
0.6300046
0.6300067
0.6300035
0.6300032
0.6300043
0.630005
0.6300053
0.630006
0.6300076
0.6300034
0.6300033
0.6300049
0.630006
0.6300067
0.6300082
0.630015
0.6300034
0.6300037
0.6300056
0.630007
0.6300081
0.6300108
0.6300215
0.6300034
0.6300039
0.630006
0.6300074
0.6300088
0.6300131
0.6300034
0.6300039
0.6300059
0.6300071
0.6300081
0.6300122
0.6300033
0.6300037
0.6300055
0.6300063
0.6300068
0.63001
0.6300032
0.6300035
0.6300049
0.6300053
0.6300053
0.6300064
0.6300188
0.6300032
0.6300033
0.6300045
0.6300046
0.6300044
0.6300054
0.6300104
0.6300031
0.6300032
0.6300043
0.6300042
0.6300039
0.630005
0.6300122
0.630003
0.6300032
0.6300039
0.6300041
0.6300031
0.6300036
0.6300114
0.6300031
0.6300031
0.6300035
0.630004
0.6300031
0.6300029
0.6300104
0.6300033
0.6300031
0.6300034
0.6300041
0.6300034
0.630003
0.6300087
0.6300034
0.6300033
0.6300034
0.6300042
0.6300041
0.6300038
0.6300162
0.6300036
0.6300035
0.6300034
0.6300044
0.6300044
0.6300049
0.6300249
0.6300039
0.6300037
0.6300034
0.630004
0.6300048
0.6300062
0.6300221
0.6300042
0.630004
0.6300032
0.6300035
0.6300041
0.6300067
0.6300189
0.6300049
0.6300044
0.6300034
0.6300031
0.6300033
0.6300051
0.6300162
0.6300055
0.6300052
0.6300035
0.6300032
0.6300038
0.6300048
0.6300185
0.6300042
0.6300065
0.6300038
0.6300034
0.6300039
0.6300059
0.6300219
0.6300014
0.6300051
0.6300057
0.6300042
0.630004
0.6300049
0.6300104
0.6300003
0.6300009
0.6300038
0.6300063
0.6300057
0.6300064
0.630009
0.6300002
0.6300003
0.6300004
0.6300017
0.6300048
0.6300067
0.6300089
0.6300002
0.6300002
0.6300002
0.6300003
0.6300007
0.6300021
0.6300047
0.6300002
0.6300002
0.6300002
0.6300002
0.6300003
0.6300006
0.6300013
0.6300002
0.6300002
0.6300002
0.6300002
0.6300003
0.6300004
0.6300008
0.6300002
0.6300002
0.6300002
0.6300002
0.6300002
0.6300002
0.6300005
0.6300002
0.6300002
0.6300002
0.6300002
0.6300002
0.6300002
0.6300001
0.6300002
0.6300002
0.6300002
0.6300002
0.6300001
0.6300001
0.6300018
0.6300002
0.6300002
0.6300002
0.6300001
0.6300001
0.6300001
0.6300003
0.6300002
0.6300002
0.6300001
0.6300001
0.6300001
0.6300001
0.6300003
0.6300001
0.6300002
0.6300001
0.6300001
0.6300001
0.6300001
0.6300002
0.6300001
0.6300002
0.6300001
0.6300001
0.6300001
0.6300001
0.6300002
0.6300001
0.6300001
0.6300001
0.6300001
0.6300001
0.6300001
0.6300002
0.6300001
0.6300001
0.6300001
0.6300001
0.6300001
0.6300001
0.6300002
0.6300001
0.6300001
0.6300001
0.6300001
0.6300001
0.6300001
0.6300002
0.6300001
0.6300001
0.6300001
0.6300001
0.6300001
0.6300001
0.6300002
0.6300001
0.6300001
0.6300001
0.6300001
0.6300001
0.6300001
0.6300002
0.6300001
0.6300001
0.6300001
0.6300001
0.6300001
0.6300001
0.6300002
0.6300001
0.6300001
0.6300001
0.6300001
0.6300001
0.6300001
0.6300002
0.6300001
0.6300001
0.6300001
0.6300001
0.6300001
0.6300001
0.6300001
0.6300001
0.6300001
0.6300001
0.6300001
0.6300001
0.6300001
0.6300001
0.6300001
0.6300001
0.6300001
0.6300001
0.6300001
0.6300001
0.6300001
0.6300001
0.6300001
0.6300001
0.6300001
0.6300001
0.6300001
0.6300001
0.6300001
0.6300001
0.6300001
0.6300001
0.6300001
0.6300001
0.6300001
0.63
0.6300001
0.6300001
0.6300001
0.6300001
0.6300001
0.6300001
0.63
0.6300001
0.6300001
0.6300001
0.6300001
0.6300001
0.6300001
0.63
0.6300001
0.6300001
0.6300001
0.6300001
0.6300001
0.6300001
0.63
0.63
0.6300001
0.6300001
0.6300001
0.6300001
0.6300001
0.63
0.6300001
0.6300001
0.6300001
0.6300001
0.6300001
0.6300001
0.63
0.6300001
0.6300001
0.6300001
0.6300001
0.6300001
0.6300001
0.63
0.6300001
0.6300001
0.6300001
0.6300001
0.6300001
0.6300001
0.6300001
0.6300001
0.6300001
0.6300001
0.6300001
0.6300001
0.6300002
0.6300001
0.6300001
0.6300001
0.6300001
0.6300001
0.6300001
0.6300002
0.6300001
0.6300001
0.6300001
0.6300001
0.6300001
0.6300001
0.6300002
0.6300001
0.6300001
0.6300001
0.6300001
0.6300001
0.6300001
0.6300002
0.6300001
0.6300001
0.6300001
0.6300001
0.6300001
0.6300001
0.6300002
0.6300001
0.6300001
0.6300001
0.6300001
0.6300001
0.6300001
0.6300002
0.6300001
0.6300001
0.6300001
0.6300001
0.6300001
0.6300001
0.6300001
0.6300001
0.6300001
0.6300001
0.6300001
0.6300001
0.6300001
0.6300001
0.6300002
0.6300001
0.6300001
0.6300001
0.6300001
0.6300001
0.6300001
1.12613
1.065069
0.9365221
0.8675591
0.8214321
0.7559837
0.6976599
0.7407247
0.7388798
0.7356335
0.7517326
0.7628729
0.7730367
0.7822474
0.7897121
0.7976419
0.8034705
0.8088489
1.126285
1.047421
0.8770533
0.8365254
0.8015493
0.7400871
0.6911501
0.7340817
0.7347598
0.7351475
0.7538
0.7654598
0.7748937
0.7835162
0.7904739
0.7988149
0.8041681
0.8094211
1.126287
1.030652
0.8025964
0.7975917
0.7789078
0.7298246
0.6985099
0.728639
0.7331206
0.7375749
0.7575536
0.7694719
0.7782309
0.7860751
0.7923045
0.8009749
0.8056916
0.8107126
1.126277
1.027579
0.7806745
0.77409
0.7622136
0.7239305
0.712324
0.7269215
0.7355769
0.743205
0.7619277
0.774418
0.7825572
0.7898166
0.7949781
0.8040407
0.8078651
0.8126217
1.126269
1.02857
0.7768579
0.7633502
0.7528488
0.7236037
0.7247611
0.7309135
0.7417801
0.7514172
0.7672643
0.7797595
0.7879725
0.7944034
0.7985988
0.8073968
0.8107313
0.81508
1.126261
1.030589
0.7717403
0.7570399
0.7482427
0.7277866
0.7364051
0.7407472
0.751563
0.7616063
0.7744522
0.7862497
0.7937226
0.7994107
0.8026383
0.811626
0.8140633
0.818051
1.12625
1.033488
0.7677175
0.7547397
0.7486219
0.7366211
0.7485423
0.7567985
0.7636738
0.772868
0.7833217
0.7926224
0.799985
0.805007
0.8073221
0.816155
0.8179422
0.821416
1.126241
1.035695
0.7645839
0.7558681
0.7542769
0.7487056
0.7611495
0.7732405
0.7767923
0.7840058
0.7923093
0.7995145
0.8069078
0.8108061
0.8125849
0.8211239
0.8221589
0.8252033
1.126231
1.03665
0.7695074
0.7642027
0.7655298
0.7636189
0.7735753
0.7911368
0.7898119
0.7938853
0.799945
0.8096698
0.8143455
0.8171535
0.8183172
0.8263536
0.8267131
0.8293151
1.12622
1.037737
0.7898874
0.7833853
0.7816294
0.7797583
0.7855133
0.8034217
0.8017829
0.8033883
0.8126503
0.8205681
0.8215294
0.8239502
0.8239568
0.8317779
0.8315058
0.8337256
1.126208
1.041328
0.8007677
0.7982864
0.7972896
0.7955343
0.7991951
0.8112005
0.8145827
0.8185347
0.8263026
0.828014
0.8290193
0.8304896
0.8298184
0.8374398
0.8366768
0.8383603
1.126196
1.042966
0.8047143
0.8168864
0.8124535
0.8091054
0.8119609
0.8198738
0.8285094
0.8323364
0.8346739
0.8350623
0.8362666
0.8370872
0.8358921
0.8432907
0.8419163
0.8432232
1.126177
1.051844
0.8399986
0.8301118
0.8207497
0.8191569
0.8230202
0.8294628
0.838692
0.8404424
0.841359
0.8426074
0.8432669
0.8438163
0.8421279
0.8492003
0.8473246
0.8482852
1.126148
1.060629
0.8534266
0.8361508
0.8243086
0.8264911
0.8319389
0.8382938
0.846144
0.8467308
0.8484437
0.850223
0.8503819
0.8505984
0.8486541
0.8550803
0.8528762
0.8534614
1.12608
1.065907
0.8368371
0.8397733
0.8302513
0.8335337
0.8402524
0.8466323
0.8530838
0.854122
0.8562238
0.8576652
0.8575285
0.8572402
0.8557182
0.8607953
0.8585768
0.8587654
1.126143
1.067438
0.8201257
0.8267679
0.8348771
0.8415209
0.8489025
0.8548253
0.8611411
0.862265
0.864095
0.8649962
0.864659
0.863858
0.8632896
0.8662973
0.8644662
0.8642484
1.126127
1.067482
0.825268
0.8354094
0.8337628
0.8511397
0.8588074
0.8641174
0.8699722
0.8706306
0.8720094
0.872338
0.871917
0.8707673
0.8708787
0.8718286
0.8704893
0.8698795
1.126109
1.069542
0.8292019
0.842626
0.8480494
0.8579211
0.8692141
0.8740261
0.8792474
0.8791391
0.8799206
0.8797888
0.8792041
0.8781383
0.8775424
0.8778133
0.8765203
0.8755756
1.126088
1.071629
0.8489044
0.858731
0.8589929
0.8713228
0.8778528
0.8839192
0.8892556
0.8876852
0.8877597
0.8874344
0.8865474
0.8854053
0.8849253
0.8833933
0.8824915
0.8815174
1.126066
1.073466
0.8606076
0.8721414
0.8758569
0.8851695
0.8897856
0.8941214
0.8983687
0.8958437
0.8958264
0.8952374
0.8941062
0.8919641
0.8925848
0.8898403
0.8892578
0.887745
1.126042
1.075311
0.8716656
0.8878264
0.8875663
0.8984436
0.9023705
0.9056306
0.9072334
0.9040341
0.9040528
0.903213
0.9017354
0.8994635
0.9012525
0.8955593
0.8955952
0.8936924
1.126016
1.077141
0.8857954
0.9009897
0.9044223
0.9102024
0.9137028
0.9155473
0.9162305
0.9130318
0.9125361
0.911228
0.9094147
0.9061257
0.9080294
0.9032473
0.902077
0.9001443
1.125987
1.07882
0.8999595
0.9158059
0.9174636
0.9254138
0.9252815
0.9247141
0.9250552
0.9222651
0.9209393
0.9193894
0.916936
0.9123292
0.915474
0.9105014
0.9089386
0.9063131
1.125956
1.080436
0.9124244
0.9305526
0.933014
0.9361517
0.9373928
0.9339254
0.9346935
0.9312736
0.9295569
0.9275114
0.9250619
0.919659
0.923166
0.9182721
0.9158699
0.9121196
1.125922
1.082016
0.9239764
0.9443803
0.952071
0.9464071
0.9466287
0.9447634
0.9432908
0.9400505
0.9384004
0.9358277
0.9326477
0.9293666
0.9306662
0.9260552
0.9228142
0.9184929
1.125885
1.083539
0.9364108
0.9561084
0.9716037
0.955814
0.9565546
0.9546926
0.9510069
0.9492048
0.9471363
0.9444874
0.9401275
0.9367821
0.9383265
0.9324042
0.9295646
0.9253061
1.125844
1.085165
0.9565275
0.9632118
0.9853505
0.96721
0.9676808
0.9644863
0.9595391
0.959012
0.9558409
0.9527891
0.9484909
0.9440526
0.9464799
0.9405277
0.9358779
0.9319126
1.125798
1.086945
0.9866217
0.9594649
0.9884947
0.9849975
0.9790322
0.9763082
0.9702604
0.9680572
0.9643443
0.9607278
0.9566782
0.9527978
0.9529982
0.9470142
0.9435346
0.9392838
1.125742
1.08887
1.010307
0.9581636
0.9897221
1.001604
0.9901559
0.9901576
0.9805034
0.9752491
0.9722984
0.9683591
0.9635053
0.9627674
0.9591681
0.9540942
0.9507936
0.9487035
1.125673
1.090815
1.019494
0.9905395
0.995306
1.006684
0.9990191
0.9983935
0.9871855
0.9818338
0.9793455
0.9758521
0.9711628
0.9719489
0.9657866
0.9614565
0.9586321
0.9555361
1.125592
1.092045
1.026552
1.028838
0.9996816
1.009717
1.004114
1.004086
0.9960066
0.9886751
0.9868449
0.9837782
0.9798643
0.9792487
0.9746681
0.9690597
0.9667799
0.9616731
1.12551
1.094451
1.03375
1.046392
1.027032
1.005204
1.007971
1.007374
0.9990492
0.9967447
0.9944792
0.991165
0.9894107
0.9865169
0.9826171
0.9770441
0.9757933
0.9703414
1.125435
1.094826
1.051179
1.049127
1.046809
1.013746
1.012138
1.004974
1.007434
1.007109
1.003208
0.9995475
0.9978154
0.9932571
0.989527
0.9854858
0.9833338
0.976531
1.125177
1.102132
1.064588
1.056256
1.042339
1.031093
1.020913
1.015206
1.017145
1.015449
1.011307
1.008772
1.006808
1.00161
0.9971741
0.9934612
0.9906808
0.98393
1.124988
1.107404
1.070759
1.066485
1.057135
1.033724
1.028734
1.023976
1.02366
1.020348
1.01908
1.016096
1.014485
1.0098
1.006272
1.003426
1.002045
0.9893767
1.124566
1.112839
1.077079
1.070206
1.055193
1.040833
1.033103
1.031147
1.029104
1.029168
1.027953
1.027352
1.025812
1.016906
1.015737
1.011232
1.00815
0.9974018
1.124016
1.117679
1.078312
1.06253
1.04689
1.03687
1.037374
1.037295
1.03641
1.035985
1.035158
1.035305
1.03136
1.027515
1.024805
1.018476
1.018196
1.008568
1.121548
1.121641
1.089579
1.065853
1.037876
1.038005
1.0425
1.043024
1.045294
1.043669
1.043792
1.044537
1.035274
1.035009
1.031262
1.028996
1.022449
1.016674
1.119148
1.123297
1.094617
1.068224
1.044811
1.043497
1.04905
1.050749
1.053065
1.051041
1.050553
1.051427
1.042066
1.043382
1.040808
1.030312
1.029842
1.025341
0.6645909
1.123335
1.099689
1.069049
1.04634
1.052354
1.05862
1.059577
1.060782
1.059935
1.059171
1.057916
1.051036
1.051373
1.047727
1.038321
1.037285
1.030605
0.6339413
1.124214
1.099443
1.073209
1.063255
1.064725
1.067778
1.067631
1.067962
1.067148
1.065039
1.063893
1.05992
1.056453
1.055353
1.047455
1.043702
1.037665
0.6316657
1.12484
1.09403
1.077001
1.076658
1.074939
1.075297
1.075217
1.07497
1.074465
1.073449
1.068351
1.06553
1.060147
1.062905
1.05317
1.050311
1.043678
0.6320508
1.124864
1.09082
1.076381
1.080905
1.082279
1.082123
1.081717
1.081835
1.079886
1.080241
1.074008
1.072155
1.069793
1.068574
1.059406
1.055481
1.050859
0.6301002
1.124893
1.077117
1.072607
1.081054
1.087913
1.087858
1.088102
1.088813
1.087069
1.08656
1.07917
1.081539
1.072333
1.074801
1.065133
1.062625
1.056322
0.6300286
1.125397
1.058465
1.073595
1.085575
1.093138
1.093456
1.093723
1.093665
1.092559
1.091605
1.087257
1.086902
1.078946
1.078082
1.072824
1.06708
1.062695
0.6300581
1.125049
1.088349
1.068707
1.094797
1.09631
1.098947
1.098637
1.099009
1.098382
1.096841
1.095417
1.089358
1.086073
1.084672
1.077355
1.073174
1.067365
0.6300146
1.124604
1.083338
1.076168
1.099669
1.103138
1.104102
1.104206
1.104169
1.103694
1.10144
1.100374
1.093735
1.092692
1.087084
1.084665
1.077195
1.073323
0.630431
1.12176
1.097675
1.106425
1.106291
1.108636
1.109231
1.108617
1.109045
1.106875
1.106745
1.104507
1.099929
1.09556
1.09333
1.087959
1.085046
1.074839
0.6300562
1.117441
1.10332
1.115564
1.113887
1.112499
1.112677
1.113395
1.113553
1.110922
1.111348
1.10667
1.103605
1.101036
1.096339
1.094532
1.088024
1.082523
0.6300247
1.120921
1.099489
1.118952
1.115847
1.116502
1.114188
1.108724
1.110279
1.105446
1.099463
1.097917
1.092118
1.085021
0.6300473
0.631134
1.117832
1.114739
1.11179
1.109329
1.104597
1.100174
1.096088
1.088329
0.6300107
1.119381
1.113023
1.113068
1.107127
1.103295
1.098529
1.090214
1.116382
1.113111
1.109796
1.104251
1.101289
1.093175
1.11439
1.112418
1.107133
1.102119
1.094861
1.113068
1.113576
1.108516
1.102837
1.097193
1.116593
1.114163
1.109335
1.103493
1.098137
1.117249
1.11331
1.109209
1.103554
1.098576
1.116412
1.113257
1.109485
1.103354
1.097982
1.115971
1.112676
1.107823
1.103039
1.096979
1.11754
1.115643
1.110855
1.10676
1.100529
1.095668
0.6302252
1.114427
1.114872
1.109784
1.103498
1.098945
1.092486
0.630111
0.6303971
1.116058
1.112424
1.11123
1.1083
1.101916
1.097123
1.088962
0.6302021
1.119952
1.119151
1.117223
1.116512
1.112355
1.110905
1.10696
1.106823
1.096866
1.095449
1.0863
0.6302259
1.119781
1.115837
1.110748
1.114199
1.114852
1.115031
1.115665
1.114069
1.115977
1.111531
1.109897
1.108623
1.102064
1.103147
1.093164
1.09314
1.081421
0.6312966
1.119413
1.079298
1.109328
1.112913
1.113342
1.113347
1.113065
1.109566
1.111865
1.10872
1.106892
1.103802
1.100616
1.095148
1.092226
1.087266
1.080194
0.6310474
1.122008
1.11292
1.111329
1.111444
1.110569
1.109936
1.107957
1.107464
1.107037
1.104149
1.102467
1.0997
1.096866
1.092086
1.086655
1.085073
1.07418
0.6302541
1.123274
1.108328
1.111031
1.106288
1.10524
1.10563
1.10418
1.104408
1.102713
1.098758
1.099469
1.093295
1.09215
1.087584
1.082711
1.079463
1.070145
0.6302206
1.12369
1.106403
1.105606
1.10445
1.103176
1.101978
1.10048
1.099475
1.099121
1.093616
1.095566
1.087549
1.085175
1.082974
1.076738
1.073642
1.065917
0.6302177
1.123709
1.107195
1.104297
1.099485
1.09804
1.09676
1.096174
1.093637
1.093327
1.090789
1.090429
1.085796
1.078704
1.076445
1.073271
1.066952
1.060394
0.6304683
1.124406
1.109199
1.101406
1.094027
1.092034
1.090627
1.09042
1.088081
1.088319
1.085885
1.081831
1.082517
1.072278
1.072117
1.067335
1.062196
1.054984
0.6313631
1.123864
1.099511
1.09579
1.083579
1.084106
1.084518
1.084434
1.082827
1.081919
1.080919
1.07486
1.07545
1.06714
1.0654
1.060212
1.056567
1.050492
0.6324486
1.122199
1.07524
1.06443
1.068132
1.07644
1.077658
1.078639
1.077178
1.075452
1.076426
1.069207
1.069393
1.060552
1.060674
1.054072
1.050132
1.045493
0.6586818
1.122608
1.058631
1.043651
1.065094
1.073917
1.072151
1.073517
1.071384
1.068783
1.069903
1.06342
1.061808
1.051313
1.055134
1.049888
1.044849
1.040029
1.121877
1.11654
1.057554
1.038072
1.05774
1.069974
1.066019
1.066613
1.063987
1.062671
1.062456
1.057888
1.054837
1.047048
1.047435
1.042366
1.037153
1.033486
1.123053
1.106181
1.063969
1.043878
1.057772
1.065431
1.058134
1.058345
1.055105
1.055467
1.054324
1.051608
1.046183
1.042622
1.039352
1.036619
1.030178
1.026743
1.125052
1.09578
1.045986
1.045113
1.064486
1.058727
1.049019
1.051997
1.051067
1.047256
1.045568
1.045416
1.038278
1.036324
1.033565
1.030943
1.019261
1.01806
1.125139
1.088477
1.038637
1.057415
1.057182
1.044361
1.047736
1.044505
1.044378
1.044427
1.037834
1.038598
1.029963
1.02965
1.024943
1.024372
1.012495
1.009756
1.125325
1.099407
1.057466
1.056681
1.042199
1.038614
1.042812
1.039946
1.034387
1.034339
1.03099
1.030675
1.024383
1.02102
1.018102
1.014057
1.008551
1.002685
1.125596
1.096523
1.06076
1.052218
1.02012
1.041603
1.036382
1.032846
1.030401
1.028565
1.023369
1.021533
1.02026
1.010873
1.010145
1.006047
1.001251
0.9944347
1.125582
1.088889
1.047226
1.042303
1.009615
1.033567
1.026096
1.025308
1.01971
1.019908
1.016446
1.013086
1.013053
1.002706
1.002166
0.9964614
0.9951035
0.9841355
1.125624
1.089577
1.035145
1.024128
1.017856
1.021159
1.018754
1.016318
1.011772
1.009892
1.007674
1.004436
1.004091
0.9957884
0.9950684
0.9888006
0.9880258
0.9788018
1.125672
1.08925
1.023843
1.020896
1.007436
1.013655
1.01061
1.005824
1.004873
1.002252
0.9995404
0.9962315
0.9949146
0.9866398
0.9870117
0.9817908
0.9809564
0.9709988
1.12572
1.088458
1.015858
1.004363
1.00673
1.003169
1.001089
0.9972288
0.9953984
0.9924011
0.9903738
0.9877093
0.9851253
0.9795013
0.9793393
0.9735274
0.9703807
0.9635389
1.125766
1.08749
1.008935
0.9955242
0.9965057
0.9960417
0.992825
0.9886321
0.985706
0.9845698
0.9820394
0.9793623
0.9767587
0.9711327
0.9715707
0.9660666
0.9621592
0.9532329
1.125808
1.086573
1.000027
0.9882105
0.9887434
0.9864996
0.9836265
0.9799828
0.9778513
0.9752869
0.9731624
0.9705836
0.9678115
0.9641548
0.9623342
0.9584899
0.9542176
0.9487838
1.125846
1.08565
0.9912277
0.9807098
0.9806237
0.9777691
0.9746422
0.9714723
0.9685636
0.96597
0.9640778
0.9618571
0.9593119
0.9558782
0.9536957
0.950247
0.9469677
0.9407407
1.12588
1.08477
0.9825538
0.9736707
0.9721883
0.9690807
0.9661465
0.9626912
0.9596286
0.9568119
0.9552536
0.9528983
0.9505892
0.9491609
0.945573
0.9429044
0.9393738
0.9344048
1.125912
1.083751
0.9731114
0.966306
0.9635157
0.960304
0.9576914
0.9540932
0.9509725
0.9482759
0.9461169
0.9441201
0.9424299
0.9378016
0.9393885
0.935886
0.9317504
0.928626
1.12594
1.082924
0.9639869
0.9585803
0.9548699
0.9525381
0.9495112
0.9455385
0.9427848
0.9394023
0.9372736
0.9356964
0.9340549
0.9299144
0.9316167
0.9291247
0.9247728
0.9217464
1.125965
1.082139
0.953726
0.9501799
0.9475363
0.9461839
0.9405491
0.9373972
0.9337837
0.9311471
0.9288271
0.9272152
0.9257141
0.9219924
0.9229298
0.9214038
0.9174893
0.9147338
1.125988
1.081322
0.9426954
0.9436221
0.9427101
0.9373408
0.9317684
0.9290556
0.9255673
0.9229731
0.9206401
0.9189431
0.9174337
0.9146944
0.9143506
0.9152876
0.9106904
0.907869
1.126008
1.080756
0.9327804
0.9412645
0.9328709
0.9272116
0.9252735
0.9199771
0.9171573
0.9150399
0.9126739
0.9107271
0.90952
0.9080047
0.9062877
0.9087606
0.9034742
0.9014897
1.126026
1.08038
0.9299789
0.9306833
0.920447
0.9236232
0.9142739
0.9115129
0.9097263
0.9070149
0.9046512
0.902472
0.9016442
0.9011192
0.8971477
0.9017648
0.8966815
0.89504
1.126042
1.080404
0.9145002
0.9170143
0.9198845
0.9095707
0.9080311
0.9039959
0.9014115
0.8987379
0.8967435
0.8944151
0.8938092
0.8933337
0.8902107
0.8937088
0.8899967
0.8885249
1.126052
1.079836
0.9003641
0.9163776
0.9030798
0.9052895
0.8999865
0.8952883
0.8933436
0.8908683
0.8889236
0.8864904
0.8860449
0.8858481
0.8831135
0.8865925
0.8833884
0.8822334
1.126061
1.079042
0.8859865
0.8965655
0.9003744
0.8977108
0.8915902
0.8884768
0.8858991
0.883243
0.880957
0.8785882
0.8786117
0.878484
0.8763967
0.879676
0.8769842
0.8761167
1.126071
1.079997
0.8657653
0.8955269
0.8964282
0.8918573
0.8877705
0.8820147
0.8784045
0.8756718
0.8731792
0.8707889
0.8710707
0.87125
0.8695643
0.8727431