/*--------------------------------*- C++ -*----------------------------------*\
| =========                 |                                                 |
| \\      /  F ield         | OpenFOAM: The Open Source CFD Toolbox           |
|  \\    /   O peration     | Version:  2206                                  |
|   \\  /    A nd           | Website:  www.openfoam.com                      |
|    \\/     M anipulation  |                                                 |
\*---------------------------------------------------------------------------*/
FoamFile
{
    version     2.0;
    format      ascii;
    arch        "LSB;label=32;scalar=64";
    class       volScalarField;
    location    "2.8";
    object      nuEffb;
}
// * * * * * * * * * * * * * * * * * * * * * * * * * * * * * * * * * * * * * //

dimensions      [0 2 -1 0 0 0 0];

internalField   nonuniform List<scalar> 
13078
(
7.835449e-06
2.754686e-05
4.867113e-05
5.107293e-05
5.079831e-05
4.994154e-05
4.892095e-05
3.259008e-05
4.776461e-05
5.159366e-05
5.157047e-05
5.08815e-05
4.998054e-05
4.895138e-05
5.142685e-05
5.258304e-05
5.2536e-05
5.184983e-05
5.099339e-05
5.004891e-05
4.900014e-05
5.482322e-05
5.373113e-05
5.289955e-05
5.203265e-05
5.110914e-05
5.012646e-05
4.905708e-05
5.526824e-05
5.405171e-05
5.308239e-05
5.215022e-05
5.121019e-05
5.020278e-05
4.911484e-05
5.521311e-05
5.411232e-05
5.31712e-05
5.223197e-05
5.127201e-05
5.026691e-05
4.916956e-05
5.511635e-05
5.410747e-05
5.32088e-05
5.228012e-05
5.131683e-05
5.030251e-05
4.921563e-05
5.504084e-05
5.408066e-05
5.322006e-05
5.230334e-05
5.134249e-05
5.032822e-05
4.923771e-05
5.49853e-05
5.405153e-05
5.321399e-05
5.231005e-05
5.135569e-05
5.034414e-05
4.925415e-05
5.494448e-05
5.402549e-05
5.320249e-05
5.230946e-05
5.136131e-05
5.035345e-05
4.926495e-05
5.491353e-05
5.40034e-05
5.319006e-05
5.23051e-05
5.136238e-05
5.035836e-05
4.927213e-05
5.488865e-05
5.398521e-05
5.317797e-05
5.229888e-05
5.136085e-05
5.036044e-05
4.927661e-05
5.486835e-05
5.396947e-05
5.316664e-05
5.22921e-05
5.135782e-05
5.036066e-05
4.927934e-05
5.485092e-05
5.395572e-05
5.315613e-05
5.228522e-05
5.135416e-05
5.035981e-05
4.928102e-05
5.483553e-05
5.394338e-05
5.314671e-05
5.228417e-05
5.13576e-05
5.035942e-05
4.928207e-05
5.482134e-05
5.393195e-05
5.313788e-05
5.228368e-05
5.135822e-05
5.035828e-05
4.928284e-05
5.480768e-05
5.39207e-05
5.312877e-05
5.227781e-05
5.13545e-05
5.035651e-05
4.928334e-05
5.479409e-05
5.39097e-05
5.31198e-05
5.227141e-05
5.13504e-05
5.035462e-05
4.928376e-05
5.478024e-05
5.38985e-05
5.311073e-05
5.226475e-05
5.134616e-05
5.035295e-05
4.928398e-05
5.476581e-05
5.388701e-05
5.310147e-05
5.225856e-05
5.135027e-05
5.03619e-05
4.928572e-05
5.475054e-05
5.387466e-05
5.309157e-05
5.225192e-05
5.135436e-05
5.03665e-05
4.92872e-05
5.473384e-05
5.386131e-05
5.308067e-05
5.224389e-05
5.13508e-05
5.036512e-05
4.92878e-05
5.471559e-05
5.384676e-05
5.306891e-05
5.223543e-05
5.134562e-05
5.036344e-05
4.928933e-05
5.469534e-05
5.383055e-05
5.305589e-05
5.222613e-05
5.134102e-05
5.037309e-05
4.930537e-05
5.467266e-05
5.381253e-05
5.304129e-05
5.221576e-05
5.133541e-05
5.038237e-05
4.931491e-05
5.464722e-05
5.379224e-05
5.302506e-05
5.220407e-05
5.132818e-05
5.038212e-05
4.931771e-05
5.461826e-05
5.37693e-05
5.300674e-05
5.219087e-05
5.132003e-05
5.037941e-05
4.932037e-05
5.458578e-05
5.374369e-05
5.298623e-05
5.217597e-05
5.131092e-05
5.037678e-05
4.933844e-05
5.454879e-05
5.371449e-05
5.296327e-05
5.215927e-05
5.130028e-05
5.037221e-05
4.935451e-05
5.451062e-05
5.368541e-05
5.293892e-05
5.214088e-05
5.128784e-05
5.036518e-05
4.935724e-05
5.446647e-05
5.36515e-05
5.291137e-05
5.212069e-05
5.127391e-05
5.035662e-05
4.935537e-05
5.441777e-05
5.362051e-05
5.289038e-05
5.210034e-05
5.125832e-05
5.034578e-05
4.934901e-05
5.436638e-05
5.358726e-05
5.28724e-05
5.209215e-05
5.124633e-05
5.033605e-05
4.934066e-05
5.431559e-05
5.35557e-05
5.285826e-05
5.208167e-05
5.124166e-05
5.033805e-05
4.934281e-05
5.427079e-05
5.353991e-05
5.28645e-05
5.211874e-05
5.129565e-05
5.038243e-05
4.93796e-05
5.424897e-05
5.355907e-05
5.29251e-05
5.222813e-05
5.144121e-05
5.053164e-05
4.948879e-05
5.426707e-05
5.365767e-05
5.310238e-05
5.246355e-05
5.170708e-05
5.073678e-05
4.961317e-05
5.436185e-05
5.389883e-05
5.342723e-05
5.280107e-05
5.202412e-05
5.098322e-05
4.96858e-05
5.459036e-05
5.427717e-05
5.383805e-05
5.318262e-05
5.232824e-05
5.123183e-05
4.967434e-05
5.499231e-05
5.473932e-05
5.426607e-05
5.356262e-05
5.26192e-05
5.142375e-05
4.975365e-05
5.553006e-05
5.52122e-05
5.473137e-05
5.391421e-05
5.291798e-05
5.16449e-05
4.99809e-05
5.618257e-05
5.563849e-05
5.516216e-05
5.433114e-05
5.322407e-05
5.196608e-05
5.056972e-05
5.687148e-05
5.603517e-05
5.55186e-05
5.471716e-05
5.372401e-05
5.257287e-05
5.161558e-05
5.754151e-05
5.628464e-05
5.585422e-05
5.504207e-05
5.428918e-05
5.355364e-05
5.268187e-05
5.799087e-05
5.642698e-05
5.604513e-05
5.543404e-05
5.490365e-05
5.453853e-05
5.401402e-05
5.816546e-05
5.649013e-05
5.625428e-05
5.589023e-05
5.556136e-05
5.532318e-05
5.500699e-05
5.819414e-05
5.659111e-05
5.650713e-05
5.627028e-05
5.622067e-05
5.604687e-05
5.551597e-05
5.825762e-05
5.689358e-05
5.695563e-05
5.671754e-05
5.688158e-05
5.657795e-05
5.602418e-05
5.838861e-05
5.733659e-05
5.750547e-05
5.73036e-05
5.738046e-05
5.703624e-05
5.627557e-05
5.859459e-05
5.779336e-05
5.803317e-05
5.787528e-05
5.793684e-05
5.736565e-05
5.629599e-05
5.888087e-05
5.831942e-05
5.847008e-05
5.828645e-05
5.822989e-05
5.743464e-05
5.646091e-05
5.910562e-05
5.868192e-05
5.895513e-05
5.880536e-05
5.850568e-05
5.748003e-05
5.68725e-05
5.915963e-05
5.881146e-05
5.905215e-05
5.880907e-05
5.839777e-05
5.752944e-05
5.729355e-05
5.906304e-05
5.873568e-05
5.893857e-05
5.860873e-05
5.815755e-05
5.752235e-05
5.758718e-05
5.888841e-05
5.856066e-05
5.870906e-05
5.834495e-05
5.796707e-05
5.758413e-05
5.771045e-05
5.865406e-05
5.829204e-05
5.840907e-05
5.809956e-05
5.786531e-05
5.763454e-05
5.769056e-05
5.828883e-05
5.781907e-05
5.793692e-05
5.774746e-05
5.768859e-05
5.749469e-05
5.750518e-05
5.795229e-05
5.74284e-05
5.760196e-05
5.753644e-05
5.759524e-05
5.734949e-05
5.734017e-05
5.761441e-05
5.703199e-05
5.724481e-05
5.724882e-05
5.737298e-05
5.706825e-05
5.700942e-05
5.722243e-05
5.654828e-05
5.675283e-05
5.679564e-05
5.695401e-05
5.669333e-05
5.658703e-05
5.68097e-05
5.605236e-05
5.616403e-05
5.617367e-05
5.638409e-05
5.612362e-05
5.586462e-05
5.642435e-05
5.559305e-05
5.568237e-05
5.563238e-05
5.587156e-05
5.564694e-05
5.525069e-05
5.611891e-05
5.517681e-05
5.521219e-05
5.497253e-05
5.516924e-05
5.503236e-05
5.447098e-05
5.594507e-05
5.485155e-05
5.477689e-05
5.438255e-05
5.445962e-05
5.43343e-05
5.395187e-05
5.592562e-05
5.46755e-05
5.446678e-05
5.389748e-05
5.383991e-05
5.373348e-05
5.331176e-05
5.608515e-05
5.46601e-05
5.427199e-05
5.358651e-05
5.306722e-05
5.281833e-05
5.243659e-05
5.624431e-05
5.479866e-05
5.416139e-05
5.332221e-05
5.235695e-05
5.184966e-05
5.174351e-05
5.621835e-05
5.488624e-05
5.407027e-05
5.304744e-05
5.189377e-05
5.100302e-05
5.070183e-05
5.593078e-05
5.488147e-05
5.403618e-05
5.289978e-05
5.162824e-05
5.035614e-05
4.944566e-05
5.54933e-05
5.476094e-05
5.395607e-05
5.282019e-05
5.148775e-05
4.998372e-05
4.862248e-05
5.506161e-05
5.453068e-05
5.381677e-05
5.277044e-05
5.147633e-05
4.995257e-05
4.826035e-05
5.468675e-05
5.42709e-05
5.364051e-05
5.271489e-05
5.155572e-05
5.012898e-05
4.847216e-05
5.441467e-05
5.398269e-05
5.341028e-05
5.262241e-05
5.160997e-05
5.039348e-05
4.875381e-05
5.426307e-05
5.372375e-05
5.316815e-05
5.245009e-05
5.157586e-05
5.050711e-05
4.908938e-05
5.421216e-05
5.355513e-05
5.295077e-05
5.225659e-05
5.14531e-05
5.046172e-05
4.927194e-05
5.42147e-05
5.349054e-05
5.282358e-05
5.210002e-05
5.128856e-05
5.034906e-05
4.928292e-05
5.424776e-05
5.348584e-05
5.27855e-05
5.2029e-05
5.118893e-05
5.026249e-05
4.924281e-05
5.429904e-05
5.351252e-05
5.279576e-05
5.201361e-05
5.116173e-05
5.023351e-05
4.922883e-05
5.435254e-05
5.355258e-05
5.282412e-05
5.202353e-05
5.116462e-05
5.024612e-05
4.924477e-05
5.440495e-05
5.359406e-05
5.28537e-05
5.205202e-05
5.119191e-05
5.027124e-05
4.926959e-05
5.445499e-05
5.363095e-05
5.28796e-05
5.207296e-05
5.121799e-05
5.029584e-05
4.929148e-05
5.450018e-05
5.366428e-05
5.290637e-05
5.210112e-05
5.124268e-05
5.031635e-05
4.930775e-05
5.453963e-05
5.369772e-05
5.293717e-05
5.212698e-05
5.126406e-05
5.033331e-05
4.931879e-05
5.457367e-05
5.372634e-05
5.296363e-05
5.21496e-05
5.128223e-05
5.03474e-05
4.932493e-05
5.460663e-05
5.375437e-05
5.29878e-05
5.21695e-05
5.129746e-05
5.035765e-05
4.93148e-05
5.463568e-05
5.377876e-05
5.300898e-05
5.218652e-05
5.131021e-05
5.036496e-05
4.930287e-05
5.46616e-05
5.38005e-05
5.302764e-05
5.220128e-05
5.132104e-05
5.03713e-05
4.930436e-05
5.468438e-05
5.381945e-05
5.304383e-05
5.221408e-05
5.133028e-05
5.037457e-05
4.930506e-05
5.470488e-05
5.38363e-05
5.305818e-05
5.222538e-05
5.133738e-05
5.036676e-05
4.929729e-05
5.472316e-05
5.385153e-05
5.3071e-05
5.223511e-05
5.134315e-05
5.035942e-05
4.928372e-05
5.473974e-05
5.386507e-05
5.308245e-05
5.224381e-05
5.134917e-05
5.036215e-05
4.928383e-05
5.475486e-05
5.387748e-05
5.309296e-05
5.225185e-05
5.135326e-05
5.03645e-05
4.928439e-05
5.476877e-05
5.388888e-05
5.310227e-05
5.22583e-05
5.134892e-05
5.035995e-05
4.928364e-05
5.478183e-05
5.389945e-05
5.311095e-05
5.226419e-05
5.134526e-05
5.035168e-05
4.928248e-05
5.479424e-05
5.390957e-05
5.311922e-05
5.227057e-05
5.134948e-05
5.035353e-05
4.928282e-05
5.480632e-05
5.391936e-05
5.312741e-05
5.227657e-05
5.13535e-05
5.035572e-05
4.928291e-05
5.481841e-05
5.392928e-05
5.313565e-05
5.228206e-05
5.135723e-05
5.035773e-05
4.928276e-05
5.48307e-05
5.393922e-05
5.314342e-05
5.228172e-05
5.135617e-05
5.035905e-05
4.928236e-05
5.484368e-05
5.394979e-05
5.315163e-05
5.22825e-05
5.13529e-05
5.035976e-05
4.928191e-05
5.485811e-05
5.396139e-05
5.316085e-05
5.228894e-05
5.13567e-05
5.036121e-05
4.928108e-05
5.487443e-05
5.397462e-05
5.317088e-05
5.229555e-05
5.136034e-05
5.036212e-05
4.927972e-05
5.489397e-05
5.39897e-05
5.318174e-05
5.230204e-05
5.136323e-05
5.036195e-05
4.927722e-05
5.491789e-05
5.400744e-05
5.319345e-05
5.230797e-05
5.136475e-05
5.036006e-05
4.927293e-05
5.494795e-05
5.402891e-05
5.320561e-05
5.231226e-05
5.136384e-05
5.03554e-05
4.926613e-05
5.498766e-05
5.405464e-05
5.321647e-05
5.231318e-05
5.135859e-05
5.03463e-05
4.92551e-05
5.504189e-05
5.408338e-05
5.321858e-05
5.230416e-05
5.134538e-05
5.033025e-05
4.923952e-05
5.511616e-05
5.41103e-05
5.320971e-05
5.228074e-05
5.131911e-05
5.030642e-05
4.9201e-05
5.521164e-05
5.411763e-05
5.317785e-05
5.223716e-05
5.127982e-05
5.025566e-05
4.915345e-05
5.527409e-05
5.406258e-05
5.309168e-05
5.216466e-05
5.120315e-05
5.019072e-05
4.910015e-05
5.485842e-05
5.375809e-05
5.29317e-05
5.203125e-05
5.110253e-05
5.011681e-05
4.904234e-05
5.177028e-05
5.27214e-05
5.254619e-05
5.185185e-05
5.099127e-05
5.003953e-05
4.89848e-05
3.387523e-05
4.881994e-05
5.191963e-05
5.160536e-05
5.086979e-05
4.996477e-05
4.893154e-05
4.774961e-05
4.634761e-05
4.458733e-05
4.302134e-05
4.046095e-05
3.693534e-05
3.051967e-05
4.777873e-05
4.638072e-05
4.462514e-05
4.3062e-05
4.050603e-05
3.698795e-05
3.074467e-05
4.78187e-05
4.641952e-05
4.467105e-05
4.254153e-05
4.054948e-05
3.70381e-05
3.086126e-05
4.786413e-05
4.646069e-05
4.470872e-05
4.315884e-05
4.059371e-05
3.70889e-05
3.09641e-05
4.791102e-05
4.650411e-05
4.475347e-05
4.320896e-05
4.063999e-05
3.713977e-05
3.103339e-05
4.795684e-05
4.654797e-05
4.479893e-05
4.32577e-05
4.068539e-05
3.719e-05
3.10964e-05
4.800005e-05
4.659033e-05
4.484336e-05
4.33035e-05
4.069892e-05
3.723988e-05
3.115467e-05
4.803702e-05
4.663097e-05
4.488641e-05
4.334803e-05
4.071168e-05
3.728932e-05
3.120605e-05
4.805207e-05
4.66667e-05
4.492692e-05
4.339207e-05
4.074839e-05
3.733373e-05
3.125569e-05
4.806358e-05
4.667889e-05
4.49634e-05
4.343541e-05
4.0784e-05
3.737822e-05
3.130133e-05
4.80718e-05
4.668823e-05
4.49745e-05
4.347647e-05
4.081946e-05
3.742287e-05
3.134403e-05
4.807801e-05
4.669592e-05
4.498307e-05
4.348574e-05
4.085508e-05
3.746784e-05
3.138428e-05
4.808268e-05
4.670251e-05
4.49911e-05
4.349405e-05
4.086112e-05
3.75143e-05
3.142178e-05
4.808648e-05
4.670842e-05
4.499887e-05
4.350255e-05
4.086805e-05
3.752221e-05
3.144958e-05
4.808973e-05
4.671416e-05
4.500665e-05
4.351124e-05
4.087559e-05
3.753248e-05
3.142387e-05
4.809278e-05
4.671981e-05
4.501448e-05
4.352035e-05
4.088396e-05
3.754391e-05
3.138737e-05
4.809562e-05
4.672551e-05
4.502246e-05
4.353028e-05
4.089703e-05
3.755609e-05
3.135781e-05
4.809849e-05
4.673117e-05
4.503103e-05
4.35449e-05
4.099888e-05
3.756959e-05
3.132084e-05
4.81014e-05
4.673679e-05
4.503984e-05
4.355616e-05
4.101747e-05
3.758358e-05
3.12876e-05
4.810461e-05
4.67428e-05
4.504918e-05
4.356811e-05
4.103079e-05
3.759857e-05
3.12511e-05
4.810793e-05
4.674914e-05
4.505886e-05
4.358085e-05
4.104484e-05
3.761442e-05
3.120487e-05
4.811165e-05
4.675593e-05
4.506872e-05
4.359456e-05
4.105978e-05
3.763123e-05
3.116571e-05
4.811547e-05
4.676362e-05
4.508001e-05
4.360643e-05
4.10796e-05
3.76488e-05
3.11254e-05
4.812194e-05
4.677232e-05
4.509528e-05
4.307156e-05
4.119498e-05
3.767702e-05
3.108639e-05
4.812806e-05
4.678074e-05
4.510617e-05
4.363214e-05
4.124288e-05
3.77009e-05
3.104952e-05
4.813346e-05
4.679016e-05
4.512054e-05
4.366155e-05
4.126778e-05
3.772388e-05
3.101257e-05
4.814166e-05
4.680249e-05
4.513849e-05
4.368498e-05
4.129339e-05
3.774992e-05
3.097397e-05
4.816921e-05
4.681789e-05
4.515567e-05
4.370938e-05
4.132791e-05
3.793814e-05
3.094143e-05
4.817974e-05
4.719637e-05
4.560375e-05
4.371532e-05
4.136226e-05
3.801341e-05
3.091861e-05
4.81876e-05
4.721296e-05
4.563602e-05
4.374632e-05
4.139784e-05
3.804714e-05
3.090056e-05
4.822481e-05
4.725309e-05
4.565531e-05
4.377598e-05
4.143625e-05
3.819969e-05
3.090616e-05
4.823649e-05
4.728275e-05
4.567273e-05
4.380689e-05
4.14736e-05
3.835114e-05
3.094248e-05
4.823185e-05
4.734367e-05
4.569494e-05
4.38319e-05
4.150607e-05
3.839671e-05
3.104718e-05
4.822532e-05
4.735105e-05
4.572314e-05
4.383461e-05
4.151696e-05
3.846809e-05
3.202103e-05
4.823108e-05
4.733934e-05
4.572558e-05
4.379028e-05
4.147181e-05
3.861978e-05
3.272542e-05
4.82359e-05
4.730785e-05
4.569233e-05
4.358369e-05
4.129062e-05
3.889427e-05
3.541375e-05
4.816648e-05
4.715003e-05
4.5327e-05
4.30921e-05
4.095521e-05
3.888208e-05
3.531485e-05
4.796219e-05
4.677156e-05
4.480755e-05
4.279919e-05
4.050857e-05
3.79203e-05
3.552016e-05
4.766477e-05
4.628527e-05
4.432096e-05
4.240871e-05
3.978257e-05
3.752018e-05
3.543601e-05
4.7557e-05
4.591579e-05
4.41306e-05
4.216891e-05
4.011679e-05
3.799012e-05
3.501882e-05
4.782829e-05
4.613042e-05
4.473086e-05
4.248792e-05
4.104654e-05
3.876465e-05
3.466857e-05
4.898924e-05
4.732699e-05
4.529871e-05
4.33268e-05
4.20464e-05
3.970008e-05
3.525241e-05
5.024594e-05
4.832007e-05
4.595101e-05
4.469962e-05
4.304321e-05
4.060785e-05
3.578101e-05
5.141144e-05
4.926332e-05
4.666863e-05
4.608108e-05
4.450036e-05
4.140009e-05
3.71346e-05
5.257538e-05
5.070057e-05
4.810149e-05
4.728748e-05
4.537665e-05
4.234238e-05
3.805509e-05
5.379545e-05
5.196551e-05
4.949871e-05
4.865024e-05
4.612419e-05
4.365416e-05
3.900565e-05
5.456173e-05
5.292878e-05
5.099464e-05
4.975438e-05
4.768279e-05
4.413486e-05
4.028158e-05
5.467834e-05
5.334791e-05
5.209208e-05
5.101946e-05
4.834005e-05
4.597379e-05
4.230778e-05
5.495186e-05
5.389025e-05
5.330812e-05
5.175214e-05
4.936486e-05
4.629938e-05
4.335815e-05
5.542781e-05
5.492409e-05
5.411707e-05
5.243294e-05
5.013989e-05
4.73146e-05
4.33861e-05
5.612007e-05
5.590564e-05
5.481227e-05
5.306816e-05
5.081548e-05
4.798086e-05
4.384803e-05
5.682276e-05
5.655685e-05
5.543113e-05
5.386876e-05
5.193843e-05
4.889028e-05
4.500522e-05
5.716472e-05
5.68726e-05
5.579947e-05
5.432307e-05
5.23275e-05
4.973928e-05
4.68184e-05
5.750234e-05
5.707598e-05
5.585339e-05
5.419148e-05
5.266338e-05
5.014555e-05
4.727017e-05
5.755585e-05
5.711415e-05
5.600908e-05
5.447831e-05
5.289382e-05
5.22836e-05
5.054697e-05
5.757631e-05
5.696176e-05
5.598883e-05
5.476046e-05
5.35097e-05
5.208012e-05
5.732632e-05
5.669166e-05
5.567138e-05
5.456827e-05
5.339461e-05
5.191173e-05
5.701298e-05
5.644579e-05
5.52459e-05
5.396957e-05
5.257023e-05
5.088505e-05
5.651444e-05
5.613832e-05
5.476155e-05
5.351835e-05
5.183149e-05
4.987089e-05
4.697972e-05
5.598997e-05
5.572282e-05
5.426134e-05
5.277846e-05
5.115248e-05
4.822146e-05
4.431516e-05
5.522694e-05
5.495843e-05
5.34418e-05
5.177128e-05
4.972414e-05
4.734959e-05
4.399716e-05
5.480906e-05
5.444972e-05
5.317965e-05
5.153209e-05
4.965211e-05
4.688594e-05
4.304036e-05
5.419302e-05
5.383234e-05
5.269906e-05
5.098469e-05
4.908278e-05
4.637741e-05
4.252982e-05
5.344163e-05
5.32806e-05
5.207425e-05
5.056939e-05
4.814937e-05
4.563845e-05
4.255262e-05
5.252802e-05
5.261284e-05
5.126928e-05
4.913205e-05
4.742843e-05
4.502544e-05
4.056334e-05
5.175866e-05
5.172102e-05
5.017989e-05
4.853454e-05
4.622337e-05
4.402982e-05
3.937433e-05
5.082446e-05
5.069255e-05
4.940318e-05
4.721034e-05
4.539131e-05
4.211398e-05
3.80627e-05
4.976522e-05
4.95286e-05
4.80721e-05
4.652713e-05
4.39808e-05
4.147426e-05
3.719341e-05
4.878229e-05
4.841608e-05
4.703659e-05
4.533975e-05
4.343515e-05
4.043842e-05
3.619555e-05
4.747592e-05
4.735465e-05
4.623924e-05
4.457997e-05
4.241555e-05
3.95846e-05
3.493001e-05
4.647023e-05
4.605701e-05
4.538579e-05
4.390295e-05
4.153218e-05
3.896699e-05
3.460686e-05
4.61537e-05
4.481625e-05
4.442292e-05
4.314393e-05
4.118905e-05
3.886873e-05
3.477261e-05
4.668845e-05
4.482099e-05
4.351784e-05
4.225052e-05
4.079728e-05
3.844183e-05
3.49101e-05
4.73763e-05
4.563159e-05
4.406288e-05
4.213025e-05
4.006972e-05
3.788495e-05
3.496432e-05
4.784116e-05
4.644786e-05
4.491093e-05
4.306198e-05
4.062362e-05
3.816765e-05
3.514298e-05
4.803179e-05
4.692031e-05
4.54459e-05
4.342233e-05
4.119385e-05
3.878611e-05
3.434564e-05
4.808653e-05
4.709377e-05
4.567129e-05
4.368452e-05
4.138137e-05
3.876465e-05
3.373564e-05
4.810808e-05
4.715141e-05
4.570135e-05
4.374059e-05
4.145084e-05
3.84908e-05
3.2034e-05
4.813319e-05
4.718489e-05
4.565274e-05
4.375293e-05
4.145913e-05
3.839636e-05
3.150192e-05
4.815861e-05
4.720888e-05
4.561941e-05
4.375066e-05
4.144262e-05
3.835984e-05
3.122324e-05
4.817405e-05
4.718649e-05
4.560959e-05
4.373817e-05
4.141724e-05
3.831636e-05
3.074213e-05
4.81717e-05
4.715903e-05
4.560066e-05
4.372281e-05
4.139007e-05
3.82553e-05
3.076996e-05
4.814587e-05
4.712717e-05
4.55947e-05
4.370724e-05
4.136414e-05
3.804057e-05
3.080592e-05
4.814731e-05
4.712528e-05
4.558574e-05
4.369271e-05
4.133989e-05
3.799879e-05
3.085188e-05
4.814264e-05
4.679081e-05
4.512869e-05
4.364999e-05
4.131555e-05
3.797149e-05
3.089641e-05
4.812158e-05
4.678183e-05
4.51178e-05
4.363823e-05
4.128781e-05
3.780556e-05
3.094233e-05
4.811816e-05
4.67743e-05
4.510556e-05
4.362469e-05
4.126409e-05
3.77238e-05
3.099268e-05
4.811644e-05
4.676851e-05
4.509495e-05
4.361176e-05
4.124344e-05
3.770373e-05
3.10386e-05
4.811304e-05
4.676263e-05
4.508463e-05
4.359941e-05
4.122008e-05
3.768498e-05
3.108706e-05
4.810902e-05
4.675702e-05
4.507496e-05
4.358713e-05
4.110868e-05
3.765906e-05
3.112967e-05
4.810713e-05
4.675161e-05
4.506556e-05
4.357532e-05
4.10641e-05
3.763894e-05
3.117422e-05
4.810491e-05
4.674616e-05
4.50565e-05
4.356424e-05
4.10504e-05
3.762315e-05
3.121913e-05
4.810251e-05
4.674091e-05
4.504784e-05
4.355334e-05
4.103703e-05
3.760794e-05
3.126129e-05
4.810001e-05
4.673582e-05
4.503935e-05
4.354294e-05
4.102436e-05
3.759327e-05
3.130218e-05
4.809779e-05
4.673086e-05
4.503134e-05
4.353278e-05
4.101236e-05
3.757941e-05
3.133845e-05
4.809545e-05
4.672576e-05
4.502341e-05
4.352083e-05
4.095664e-05
3.756601e-05
3.13721e-05
4.809308e-05
4.672061e-05
4.501584e-05
4.350938e-05
4.08903e-05
3.755347e-05
3.140509e-05
4.809064e-05
4.671564e-05
4.500862e-05
4.350017e-05
4.088208e-05
3.754176e-05
3.144207e-05
4.808812e-05
4.671067e-05
4.500155e-05
4.349098e-05
4.08744e-05
3.753088e-05
3.144544e-05
4.808527e-05
4.670563e-05
4.499446e-05
4.348206e-05
4.086746e-05
3.752097e-05
3.145394e-05
4.80819e-05
4.670016e-05
4.498734e-05
4.347303e-05
4.086065e-05
3.749405e-05
3.141341e-05
4.80775e-05
4.669392e-05
4.497982e-05
4.346364e-05
4.084061e-05
3.744856e-05
3.136993e-05
4.807171e-05
4.668645e-05
4.496988e-05
4.343863e-05
4.080544e-05
3.740341e-05
3.132343e-05
4.806341e-05
4.667647e-05
4.493488e-05
4.339511e-05
4.077015e-05
3.735856e-05
3.127581e-05
4.805209e-05
4.664346e-05
4.489622e-05
4.335099e-05
4.07347e-05
3.73137e-05
3.122422e-05
4.801957e-05
4.660561e-05
4.48549e-05
4.33058e-05
4.07003e-05
3.726661e-05
3.117048e-05
4.798078e-05
4.656571e-05
4.481188e-05
4.326205e-05
4.071028e-05
3.721661e-05
3.1114e-05
4.793843e-05
4.652336e-05
4.476746e-05
4.321579e-05
4.066656e-05
3.716633e-05
3.105306e-05
4.789264e-05
4.647927e-05
4.472213e-05
4.316989e-05
4.0621e-05
3.711585e-05
3.098531e-05
4.784469e-05
4.643473e-05
4.467676e-05
4.312469e-05
4.057518e-05
3.706486e-05
3.090095e-05
4.77981e-05
4.639185e-05
4.463245e-05
4.30815e-05
4.052932e-05
3.701343e-05
3.078662e-05
4.775484e-05
4.635032e-05
4.458922e-05
4.30404e-05
4.048368e-05
3.696129e-05
3.060433e-05
1.013606e-06
1e-06
1e-06
1e-06
1e-06
1e-06
1e-06
1e-06
1e-06
1e-06
1e-06
1e-06
1e-06
1e-06
1e-06
1e-06
1e-06
1e-06
1.034196e-06
1e-06
1e-06
1e-06
1e-06
1e-06
1e-06
1e-06
1e-06
1e-06
1e-06
1e-06
1e-06
1e-06
1e-06
1e-06
1e-06
1e-06
1.041186e-06
1e-06
1e-06
1e-06
1e-06
1e-06
1e-06
1e-06
1e-06
1e-06
1e-06
1e-06
1e-06
1e-06
1e-06
1e-06
1e-06
1e-06
1.044707e-06
1e-06
1e-06
1e-06
1e-06
1e-06
1e-06
1e-06
1e-06
1e-06
1e-06
1e-06
1e-06
1e-06
1e-06
1e-06
1e-06
1e-06
1.048105e-06
1e-06
1e-06
1e-06
1e-06
1e-06
1e-06
1e-06
1e-06
1e-06
1e-06
1e-06
1e-06
1e-06
1e-06
1e-06
1e-06
1e-06
1.051338e-06
1e-06
1e-06
1e-06
1e-06
1e-06
1e-06
1e-06
1e-06
1e-06
1e-06
1e-06
1e-06
1e-06
1e-06
1e-06
1e-06
1e-06
1.054544e-06
1e-06
1e-06
1e-06
1e-06
1e-06
1e-06
1e-06
1e-06
1e-06
1e-06
1e-06
1e-06
1e-06
1e-06
1e-06
1e-06
1e-06
1.057643e-06
1e-06
1e-06
1e-06
1e-06
1e-06
1e-06
1e-06
1e-06
1e-06
1e-06
1e-06
1e-06
1e-06
1e-06
1e-06
1e-06
1e-06
1.060661e-06
1e-06
1e-06
1e-06
1e-06
1e-06
1e-06
1e-06
1e-06
1e-06
1e-06
1e-06
1e-06
1e-06
1e-06
1e-06
1e-06
1e-06
1.063769e-06
1e-06
1e-06
1e-06
1e-06
1e-06
1e-06
1e-06
1e-06
1e-06
1e-06
1e-06
1e-06
1e-06
1e-06
1e-06
1e-06
1e-06
1.066839e-06
1e-06
1e-06
1e-06
1e-06
1e-06
1e-06
1e-06
1e-06
1e-06
1e-06
1e-06
1e-06
1e-06
1e-06
1e-06
1e-06
1e-06
1.069744e-06
1e-06
1e-06
1e-06
1e-06
1e-06
1e-06
1e-06
1e-06
1e-06
1e-06
1e-06
1e-06
1e-06
1e-06
1e-06
1e-06
1e-06
1.072696e-06
1e-06
1e-06
1e-06
1e-06
1e-06
1e-06
1e-06
1e-06
1e-06
1e-06
1e-06
1e-06
1e-06
1e-06
1e-06
1e-06
1e-06
1.076295e-06
1e-06
1e-06
1e-06
1e-06
1e-06
1e-06
1e-06
1e-06
1e-06
1e-06
1e-06
1e-06
1e-06
1e-06
1e-06
1e-06
1e-06
1.096393e-06
1e-06
1e-06
1e-06
1e-06
1e-06
1e-06
1e-06
1e-06
1e-06
1e-06
1e-06
1e-06
1e-06
1e-06
1e-06
1e-06
1e-06
1.099813e-06
1e-06
1e-06
1e-06
1e-06
1e-06
1e-06
1e-06
1e-06
1e-06
1e-06
1e-06
1e-06
1e-06
1e-06
1e-06
1e-06
1e-06
1.106028e-06
1e-06
1e-06
1e-06
1e-06
1e-06
1e-06
1e-06
1e-06
1e-06
1e-06
1e-06
1e-06
1e-06
1e-06
1e-06
1e-06
1e-06
1.113255e-06
1e-06
1e-06
1e-06
1e-06
1e-06
1e-06
1e-06
1e-06
1e-06
1e-06
1e-06
1e-06
1e-06
1e-06
1e-06
1e-06
1e-06
1.121163e-06
1e-06
1e-06
1e-06
1e-06
1e-06
1e-06
1e-06
1e-06
1e-06
1e-06
1e-06
1e-06
1e-06
1e-06
1e-06
1e-06
1e-06
1.129104e-06
1e-06
1e-06
1e-06
1e-06
1e-06
1e-06
1e-06
1e-06
1e-06
1e-06
1e-06
1e-06
1e-06
1e-06
1e-06
1e-06
1e-06
1.137008e-06
1e-06
1e-06
1e-06
1e-06
1e-06
1e-06
1e-06
1e-06
1e-06
1e-06
1e-06
1e-06
1e-06
1e-06
1e-06
1e-06
1e-06
1.145263e-06
1e-06
1e-06
1e-06
1e-06
1e-06
1e-06
1e-06
1e-06
1e-06
1e-06
1e-06
1e-06
1e-06
1e-06
1e-06
1e-06
1e-06
1.154122e-06
1e-06
1e-06
1e-06
1e-06
1e-06
1e-06
1e-06
1e-06
1e-06
1e-06
1e-06
1e-06
1e-06
1e-06
1e-06
1e-06
1e-06
1.163601e-06
1e-06
1e-06
1e-06
1e-06
1e-06
1e-06
1e-06
1e-06
1e-06
1e-06
1e-06
1e-06
1e-06
1e-06
1e-06
1e-06
1e-06
1.174013e-06
1e-06
1e-06
1e-06
1e-06
1e-06
1e-06
1e-06
1e-06
1e-06
1e-06
1e-06
1e-06
1e-06
1e-06
1e-06
1e-06
1e-06
1.184979e-06
1e-06
1e-06
1e-06
1e-06
1e-06
1e-06
1e-06
1e-06
1e-06
1e-06
1e-06
1e-06
1e-06
1e-06
1e-06
1e-06
1e-06
1.196974e-06
1e-06
1e-06
1e-06
1e-06
1e-06
1e-06
1e-06
1e-06
1e-06
1e-06
1e-06
1e-06
1e-06
1e-06
1e-06
1e-06
1e-06
1.210022e-06
1e-06
1e-06
1e-06
1e-06
1e-06
1e-06
1e-06
1e-06
1e-06
1e-06
1e-06
1e-06
1e-06
1e-06
1e-06
1e-06
1e-06
1.224048e-06
1e-06
1e-06
1e-06
1e-06
1e-06
1e-06
1e-06
1e-06
1e-06
1e-06
1e-06
1e-06
1e-06
1e-06
1e-06
1e-06
1e-06
1.23959e-06
1e-06
1e-06
1e-06
1e-06
1e-06
1e-06
1e-06
1e-06
1e-06
1e-06
1e-06
1e-06
1e-06
1e-06
1e-06
1e-06
1e-06
1.256558e-06
1e-06
1e-06
1e-06
1e-06
1e-06
1e-06
1e-06
1e-06
1e-06
1e-06
1e-06
1e-06
1e-06
1e-06
1e-06
1e-06
1e-06
1.275099e-06
1e-06
1e-06
1e-06
1e-06
1e-06
1e-06
1e-06
1e-06
1e-06
1e-06
1e-06
1e-06
1e-06
1e-06
1e-06
1e-06
1e-06
1.29674e-06
1e-06
1e-06
1e-06
1e-06
1e-06
1e-06
1e-06
1e-06
1e-06
1e-06
1e-06
1e-06
1e-06
1e-06
1e-06
1e-06
1e-06
1.326658e-06
1.000001e-06
1e-06
1e-06
1e-06
1e-06
1e-06
1e-06
1e-06
1e-06
1e-06
1e-06
1e-06
1e-06
1e-06
1e-06
1e-06
1e-06
1.412491e-06
1e-06
1e-06
1e-06
1e-06
1e-06
1e-06
1e-06
1e-06
1e-06
1e-06
1e-06
1e-06
1e-06
1e-06
1e-06
1e-06
1e-06
1.479401e-06
1e-06
1e-06
1e-06
1e-06
1e-06
1e-06
1e-06
1e-06
1e-06
1e-06
1e-06
1e-06
1e-06
1e-06
1e-06
1e-06
1e-06
1.629275e-06
1e-06
1e-06
1e-06
1e-06
1e-06
1e-06
1e-06
1e-06
1e-06
1e-06
1e-06
1e-06
1e-06
1e-06
1e-06
1e-06
1e-06
2.568978e-06
1e-06
1e-06
1e-06
1e-06
1e-06
1e-06
1e-06
1e-06
1e-06
1e-06
1e-06
1e-06
1e-06
1e-06
1e-06
1e-06
1e-06
5.393804e-06
1.000014e-06
1e-06
1e-06
1e-06
1e-06
1e-06
1e-06
1e-06
1e-06
1e-06
1e-06
1e-06
1e-06
1e-06
1e-06
1e-06
1e-06
1.413543e-05
1.000049e-06
1e-06
1e-06
1e-06
1e-06
1e-06
1e-06
1e-06
1e-06
1e-06
1e-06
1e-06
1e-06
1e-06
1e-06
1e-06
1e-06
2.014481e-05
1.000352e-06
1e-06
1e-06
1e-06
1e-06
1e-06
1e-06
1e-06
1e-06
1e-06
1e-06
1e-06
1e-06
1e-06
1e-06
1e-06
1e-06
2.230798e-05
1.000045e-06
1e-06
1e-06
1e-06
1e-06
1e-06
1e-06
1e-06
1e-06
1e-06
1e-06
1e-06
1e-06
1e-06
1e-06
1e-06
1e-06
2.268504e-05
1e-06
1e-06
1e-06
1e-06
1e-06
1e-06
1e-06
1e-06
1e-06
1e-06
1e-06
1e-06
1e-06
1e-06
1e-06
1e-06
1e-06
2.458785e-05
1.003585e-06
1e-06
1e-06
1e-06
1e-06
1e-06
1e-06
1e-06
1e-06
1e-06
1e-06
1e-06
1e-06
1e-06
1e-06
1e-06
1e-06
2.559319e-05
1.004968e-06
1e-06
1e-06
1e-06
1e-06
1e-06
1e-06
1e-06
1e-06
1e-06
1e-06
1e-06
1e-06
1e-06
1e-06
1e-06
1e-06
2.63837e-05
1.008539e-06
1e-06
1e-06
1e-06
1e-06
1e-06
1e-06
1e-06
1e-06
1e-06
1e-06
1e-06
1e-06
1e-06
1e-06
1e-06
1e-06
2.80032e-05
1.017039e-06
1.000007e-06
1e-06
1e-06
1e-06
1e-06
1e-06
1e-06
1e-06
1e-06
1e-06
1e-06
1e-06
1e-06
1e-06
1e-06
1e-06
3.193039e-05
1.112739e-06
1.000088e-06
1e-06
1e-06
1e-06
1e-06
1e-06
1e-06
1e-06
1e-06
1e-06
1e-06
1e-06
1e-06
1e-06
1e-06
1e-06
3.538005e-05
1.398518e-06
1.000771e-06
1.000002e-06
1e-06
1e-06
1e-06
1e-06
1e-06
1e-06
1e-06
1e-06
1e-06
1e-06
1e-06
1e-06
1e-06
1e-06
3.669351e-05
3.246258e-06
1.004635e-06
1.00002e-06
1e-06
1e-06
1e-06
1e-06
1e-06
1e-06
1e-06
1e-06
1e-06
1e-06
3.721071e-05
2.474643e-05
1e-06
1e-06
1e-06
1e-06
1e-06
1e-06
1e-06
1e-06
3.748614e-05
1e-06
1e-06
1e-06
1e-06
1e-06
1e-06
1e-06
1e-06
1e-06
1e-06
1e-06
1e-06
1e-06
1e-06
1e-06
1e-06
1e-06
1e-06
1e-06
1e-06
1e-06
1e-06
1e-06
1e-06
1e-06
1e-06
1e-06
1e-06
1e-06
1e-06
1e-06
1e-06
1e-06
1e-06
1e-06
1e-06
1e-06
1e-06
1e-06
1e-06
1e-06
1e-06
1e-06
1e-06
1e-06
1e-06
1e-06
1e-06
1e-06
3.738056e-05
1e-06
1e-06
1e-06
1e-06
1e-06
1e-06
3.596957e-05
2.879044e-05
1e-06
1e-06
1e-06
1e-06
1e-06
1e-06
1e-06
3.581075e-05
4.303484e-06
1.008095e-06
1e-06
1e-06
1e-06
1e-06
1e-06
1e-06
1e-06
1e-06
1e-06
3.458439e-05
1.872158e-06
1.002996e-06
1.00007e-06
1.000002e-06
1e-06
1e-06
1e-06
1e-06
1e-06
1e-06
1e-06
1e-06
1e-06
1e-06
1e-06
1e-06
1e-06
3.11584e-05
1.166366e-06
1.000321e-06
1.000002e-06
1e-06
1e-06
1e-06
1e-06
1e-06
1e-06
1e-06
1e-06
1e-06
1e-06
1e-06
1e-06
1e-06
1e-06
3.053774e-05
1.04807e-06
1.000013e-06
1e-06
1e-06
1e-06
1e-06
1e-06
1e-06
1e-06
1e-06
1e-06
1e-06
1e-06
1e-06
1e-06
1e-06
1e-06
2.842085e-05
1.010202e-06
1.000013e-06
1e-06
1e-06
1e-06
1e-06
1e-06
1e-06
1e-06
1e-06
1e-06
1e-06
1e-06
1e-06
1e-06
1e-06
1e-06
2.616147e-05
1.006999e-06
1.000012e-06
1e-06
1e-06
1e-06
1e-06
1e-06
1e-06
1e-06
1e-06
1e-06
1e-06
1e-06
1e-06
1e-06
1e-06
1e-06
2.462223e-05
1.00334e-06
1.000002e-06
1e-06
1e-06
1e-06
1e-06
1e-06
1e-06
1e-06
1e-06
1e-06
1e-06
1e-06
1e-06
1e-06
1e-06
1e-06
2.373798e-05
1.002615e-06
1.000006e-06
1e-06
1e-06
1e-06
1e-06
1e-06
1e-06
1e-06
1e-06
1e-06
1e-06
1e-06
1e-06
1e-06
1e-06
1e-06
2.258763e-05
1.005374e-06
1.000022e-06
1e-06
1e-06
1e-06
1e-06
1e-06
1e-06
1e-06
1e-06
1e-06
1e-06
1e-06
1e-06
1e-06
1e-06
1e-06
2.148063e-05
1.013714e-06
1.000051e-06
1e-06
1e-06
1e-06
1e-06
1e-06
1e-06
1e-06
1e-06
1e-06
1e-06
1e-06
1e-06
1e-06
1e-06
1e-06
1.497988e-05
1.003415e-06
1.000005e-06
1e-06
1e-06
1e-06
1e-06
1e-06
1e-06
1e-06
1e-06
1e-06
1e-06
1e-06
1e-06
1e-06
1e-06
1e-06
6.927653e-06
1.000745e-06
1.000001e-06
1e-06
1e-06
1e-06
1e-06
1e-06
1e-06
1e-06
1e-06
1e-06
1e-06
1e-06
1e-06
1e-06
1e-06
1e-06
4.918604e-06
1.000462e-06
1e-06
1e-06
1e-06
1e-06
1e-06
1e-06
1e-06
1e-06
1e-06
1e-06
1e-06
1e-06
1e-06
1e-06
1e-06
1e-06
1.561519e-06
1.000011e-06
1e-06
1e-06
1e-06
1e-06
1e-06
1e-06
1e-06
1e-06
1e-06
1e-06
1e-06
1e-06
1e-06
1e-06
1e-06
1e-06
1.50988e-06
1.000005e-06
1e-06
1e-06
1e-06
1e-06
1e-06
1e-06
1e-06
1e-06
1e-06
1e-06
1e-06
1e-06
1e-06
1e-06
1e-06
1e-06
1.387405e-06
1.000001e-06
1e-06
1e-06
1e-06
1e-06
1e-06
1e-06
1e-06
1e-06
1e-06
1e-06
1e-06
1e-06
1e-06
1e-06
1e-06
1e-06
1.343445e-06
1.000001e-06
1e-06
1e-06
1e-06
1e-06
1e-06
1e-06
1e-06
1e-06
1e-06
1e-06
1e-06
1e-06
1e-06
1e-06
1e-06
1e-06
1.282836e-06
1.000002e-06
1e-06
1e-06
1e-06
1e-06
1e-06
1e-06
1e-06
1e-06
1e-06
1e-06
1e-06
1e-06
1e-06
1e-06
1e-06
1e-06
1.268446e-06
1.000002e-06
1e-06
1e-06
1e-06
1e-06
1e-06
1e-06
1e-06
1e-06
1e-06
1e-06
1e-06
1e-06
1e-06
1e-06
1e-06
1e-06
1.254217e-06
1.000002e-06
1e-06
1e-06
1e-06
1e-06
1e-06
1e-06
1e-06
1e-06
1e-06
1e-06
1e-06
1e-06
1e-06
1e-06
1e-06
1e-06
1.240209e-06
1.000001e-06
1e-06
1e-06
1e-06
1e-06
1e-06
1e-06
1e-06