/*--------------------------------*- C++ -*----------------------------------*\
| =========                 |                                                 |
| \\      /  F ield         | OpenFOAM: The Open Source CFD Toolbox           |
|  \\    /   O peration     | Version:  2206                                  |
|   \\  /    A nd           | Website:  www.openfoam.com                      |
|    \\/     M anipulation  |                                                 |
\*---------------------------------------------------------------------------*/
FoamFile
{
    version     2.0;
    format      ascii;
    arch        "LSB;label=32;scalar=64";
    class       volScalarField;
    location    "2.8";
    object      nuFra;
}
// * * * * * * * * * * * * * * * * * * * * * * * * * * * * * * * * * * * * * //

dimensions      [0 2 -1 0 0 0 0];

internalField   nonuniform List<scalar> 
13078
(
6.970235e-09
0.1807022
14.45851
45.50951
100
100
100
0.6890904
8.61018
24.29116
65.39364
100
100
100
17.18951
29.63184
63.75013
100
100
100
100
78.19376
95.35333
100
100
100
100
100
100
100
100
100
100
100
100
100
100
100
100
100
100
100
100
100
100
100
100
100
100
100
100
100
100
100
100
100
100
100
100
100
100
100
100
100
100
100
100
100
100
100
100
100
100
100
100
100
100
100
100
100
100
100
100
100
100
100
100
100
100
100
100
100
100
100
100
100
100
100
100
100
100
100
100
100
100
100
100
100
100
100
100
100
100
100
100
100
100
100
100
100
100
100
100
100
100
100
100
100
100
100
100
100
100
100
100
100
100
100
100
100
100
100
100
100
100
100
100
100
100
100
100
100
100
100
100
100
100
100
100
100
100
100
100
100
100
100
100
100
100
100
100
100
100
100
100
100
100
100
100
100
100
100
100
100
100
100
100
100
100
100
100
100
100
100
100
100
100
100
100
100
100
100
100
100
100
100
100
100
100
100
100
100
100
100
100
100
100
100
100
100
100
100
100
100
100
100
100
100
100
100
100
100
100
100
100
100
100
100
100
100
100
100
100
100
100
100
100
100
100
100
100
100
100
100
100
100
100
100
100
100
100
100
100
100
100
100
100
100
100
100
100
100
100
100
100
100
100
100
100
100
100
100
100
100
100
100
100
100
100
100
100
100
100
100
100
100
100
100
100
100
100
100
100
100
100
100
100
100
100
100
100
100
100
100
100
100
100
100
100
100
100
100
100
100
100
100
100
100
100
100
100
100
100
100
100
100
100
100
100
100
100
100
63.14418
100
100
100
100
100
84.66045
34.35366
100
100
100
100
100
51.57238
21.98571
100
100
100
100
75.097
32.05432
17.58473
100
100
100
92.79289
49.42944
23.48668
16.64234
100
100
99.47848
67.12089
34.09747
19.62191
17.33923
96.43268
91.91942
77.92422
47.9732
26.61496
18.44792
18.04692
87.53614
76.06673
59.00865
36.84032
23.38561
18.40148
18.52215
77.98872
60.43475
45.19479
30.7222
22.19085
18.65354
18.79249
69.93955
49.50549
37.35718
27.99896
22.1451
19.01002
18.95707
64.80917
42.42633
32.40901
26.19897
22.1144
19.15705
18.84184
63.15741
37.85827
28.54347
24.23304
21.59403
19.13635
18.69512
65.42
35.80219
25.32999
21.83677
20.53041
18.65964
18.03157
71.35963
36.59102
24.31283
20.15366
19.46195
18.19235
17.45372
82.48711
41.81387
24.90763
18.42103
17.4843
16.98094
16.18641
98.90742
53.00273
28.26784
17.86516
15.58202
15.48101
15.06765
100
73.24873
37.30347
19.3121
14.11015
13.86878
14.00206
100
100
58.11227
24.92922
13.98492
12.10572
12.67017
100
100
94.17674
41.0385
16.75314
11.0249
11.01967
100
100
100
75.89421
26.80198
11.74431
9.458431
100
100
100
100
55.86382
17.72199
9.049375
100
100
100
100
100
41.70323
12.41518
100
100
100
100
100
100
32.25792
100
100
100
100
100
100
100
100
100
100
100
100
100
100
100
100
100
100
100
100
100
100
100
100
100
100
100
100
100
100
100
100
100
100
100
100
100
100
100
100
100
100
100
100
100
100
100
100
100
100
100
100
100
100
100
100
100
100
100
100
100
100
100
100
100
100
100
100
100
100
100
100
100
100
100
100
100
100
100
100
100
100
100
100
100
100
100
100
100
100
100
100
100
100
100
100
100
100
100
100
100
100
100
100
100
100
100
100
100
100
100
100
100
100
100
100
100
100
100
100
100
100
100
100
100
100
100
100
100
100
100
100
100
100
100
100
100
100
100
100
100
100
100
100
100
100
100
100
100
100
100
100
100
100
100
100
100
100
100
100
100
100
100
100
100
100
100
100
100
100
100
100
100
100
100
100
100
100
100
100
100
100
100
100
100
100
100
100
100
100
100
100
100
100
100
100
100
100
100
100
100
100
100
100
100
100
100
100
100
100
100
100
100
100
100
100
100
100
100
100
100
100
100
100
100
100
100
100
100
100
100
100
100
100
100
100
100
100
100
100
100
100
100
100
100
100
100
100
100
100
100
100
100
100
100
100
100
100
100
100
100
100
100
100
100
100
81.76264
99.77134
100
100
100
100
100
18.33582
31.07889
67.30282
100
100
100
100
0.8592019
10.05421
26.07979
68.15635
100
100
100
100
100
100
100
100
100
100
100
100
100
100
100
100
100
100
100
100
100
100
100
100
100
100
100
100
100
100
100
100
100
100
100
100
100
87.41439
100
100
100
100
100
100
79.97095
100
100
100
100
100
100
76.86858
100
100
100
100
100
100
76.01607
100
100
100
100
100
100
77.15665
100
100
100
100
100
100
79.64857
100
100
100
100
100
100
83.19377
100
100
100
100
100
100
87.61215
100
100
100
100
100
100
92.34743
100
100
100
100
100
100
97.18161
100
100
100
100
100
100
100
100
100
100
100
100
100
100
100
100
100
100
100
100
97.07116
100
100
100
100
100
100
91.10833
100
100
100
100
100
100
84.13756
100
100
100
100
100
100
76.11334
100
100
100
100
100
100
67.35277
100
100
100
100
100
100
59.35499
100
100
100
100
100
100
51.86088
100
100
100
100
100
100
44.99704
100
100
100
100
100
100
38.70187
100
100
100
100
100
100
33.29279
100
100
100
100
100
100
28.5604
100
100
100
100
100
100
23.76144
100
100
100
100
100
100
19.50081
100
100
100
100
100
100
16.36155
100
100
100
100
100
100
12.6799
100
100
100
100
100
100
10.57416
100
100
100
100
100
100
11.06073
100
100
100
100
100
100
25.98981
100
100
100
100
100
100
100
100
100
100
100
100
100
3.386399
100
100
100
100
100
100
100
100
100
100
100
100
87.93708
25.98273
100
100
100
100
60.4763
14.91094
5.107304
100
100
100
61.70958
8.723306
3.679477
2.015926
100
93.84331
86.89272
10.25803
3.879316
2.981427
1.456533
100
100
31.94354
4.314588
4.151232
3.276203
1.739906
100
97.97344
12.6954
4.402896
5.294123
4.272768
1.750259
100
84.20735
8.341896
5.524617
6.71554
5.392728
2.814181
100
75.77709
8.369485
6.648544
7.743109
6.615909
3.311988
100
60.06337
8.236651
8.452565
8.221213
7.201214
3.168484
76.18289
37.74036
8.202103
10.53845
9.03512
7.192838
3.730908
41.04871
19.0401
10.04334
12.14904
9.353112
9.639597
6.388841
22.39732
14.06389
13.10804
12.18509
9.629942
10.21986
7.523983
16.04597
14.47949
14.71766
12.05354
9.803032
10.0355
6.747623
15.72986
17.8029
14.56956
11.38191
11.09169
9.704528
4.95406
16.72479
19.19049
14.2777
11.34557
10.76855
8.943728
4.883634
17.71827
19.13861
13.6225
10.7271
9.173636
7.128406
4.822299
18.65251
18.7016
11.93971
8.935462
7.444087
5.371807
2.496742
18.65123
16.89465
10.52784
7.812631
6.219766
4.547628
2.083839
18.60205
15.79403
9.857221
7.500679
5.918605
3.704838
18.57909
15.65969
9.72183
7.713367
6.393575
3.934495
18.73398
16.11626
10.29465
8.452908
7.255559
4.550327
18.54602
16.87951
11.24407
9.779337
9.095911
6.697455
1.953663
18.56831
17.50415
12.12614
10.85692
10.54579
7.261801
3.026893
18.10723
17.22035
12.15081
11.43124
11.09399
7.565243
2.528944
18.19687
17.18714
13.21647
11.42371
13.58591
10.18472
2.542176
17.10019
16.87929
14.30557
11.44435
13.166
12.40953
2.69202
15.8311
16.33588
14.09015
10.94562
11.63545
11.2378
3.224613
14.5675
14.94092
13.51151
9.863949
9.288667
8.542828
1.520703
13.32321
13.7296
12.97288
9.216852
8.007704
6.243019
0.9131229
11.77318
12.25123
12.5524
9.261582
6.952015
4.394507
0.9371471
10.2852
10.66515
12.23934
10.3464
7.576509
3.939673
1.031585
8.285563
9.063269
10.88714
10.80494
9.02975
4.838361
1.112326
6.938337
7.272964
9.939735
10.03395
7.3875
4.834272
0.8835654
8.587108
5.348219
8.748967
8.885301
6.81394
3.743949
0.7266321
25.61189
6.296467
5.555426
7.02471
6.413576
4.448675
1.553766
100
37.13571
7.903729
4.368727
4.40179
3.354021
1.813212
100
100
82.16452
15.91329
4.975286
3.0577
1.844034
100
100
100
100
33.94266
10.13242
3.513318
100
100
100
100
79.96396
35.19436
12.19409
100
100
100
100
89.99178
54.42823
17.5052
100
100
100
100
100
87.18675
26.08981
100
100
100
100
100
100
98.77566
100
100
100
100
100
100
6.655654
100
100
100
100
100
100
35.66674
100
100
100
100
100
100
44.77513
100
100
100
100
100
100
48.01473
100
100
100
100
100
100
46.95865
100
100
100
100
100
100
47.15147
100
100
100
100
100
100
49.25835
100
100
100
100
100
100
52.52169
100
100
100
100
100
100
56.60319
100
100
100
100
100
100
61.72832
100
100
100
100
100
100
67.43288
100
100
100
100
100
100
73.53882
100
100
100
100
100
100
80.21753
100
100
100
100
100
100
87.07743
100
100
100
100
100
100
94.34891
100
100
100
100
100
100
100
100
100
100
100
100
100
100
100
100
100
100
100
100
100
100
100
100
100
100
100
100
100
100
100
100
100
100
100
100
100
100
100
100
100
100
100
100
100
100
100
100
95.48451
100
100
100
100
100
100
89.30944
100
100
100
100
100
100
83.83003
100
100
100
100
100
100
79.25664
100
100
100
100
100
100
75.6512
100
100
100
100
100
100
73.32898
100
100
100
100
100
100
72.61927
100
100
100
100
100
100
73.64745
100
100
100
100
100
100
77.03634
100
100
100
100
100
100
83.96368
100
100
100
100
100
100
95.7321
100
100
100
100
100
100
100
5.055692e-11
9.148294e-10
3.402179e-09
5.516056e-09
7.620391e-09
1.29169e-08
2.565711e-08
1.498783e-08
1.527589e-08
1.580628e-08
1.344389e-08
1.213115e-08
1.110314e-08
1.028334e-08
9.683832e-09
9.101253e-09
8.704349e-09
8.359113e-09
4.852153e-11
1.192574e-09
5.168136e-09
6.841414e-09
8.832448e-09
1.508634e-08
2.854703e-08
1.607109e-08
1.595443e-08
1.588839e-08
1.318329e-08
1.185569e-08
1.093002e-08
1.017762e-08
9.625558e-09
9.019365e-09
8.658478e-09
8.32349e-09
4.849643e-11
1.470868e-09
8.762312e-09
9.104783e-09
1.056962e-08
1.68384e-08
2.531977e-08
1.706352e-08
1.623896e-08
1.548538e-08
1.273075e-08
1.144761e-08
1.062911e-08
9.969281e-09
9.487606e-09
8.871256e-09
8.559446e-09
8.243847e-09
4.863136e-11
1.523525e-09
1.04167e-08
1.100443e-08
1.220298e-08
1.801193e-08
2.079987e-08
1.739909e-08
1.581581e-08
1.461482e-08
1.223434e-08
1.097396e-08
1.025738e-08
9.675802e-09
9.291201e-09
8.666831e-09
8.420843e-09
8.127986e-09
4.873629e-11
1.506483e-09
1.075136e-08
1.207956e-08
1.330216e-08
1.80812e-08
1.783796e-08
1.663616e-08
1.482717e-08
1.34844e-08
1.166937e-08
1.049548e-08
9.818838e-09
9.332917e-09
9.034372e-09
8.450443e-09
8.242703e-09
7.981978e-09
4.884299e-11
1.471937e-09
1.122652e-08
1.279119e-08
1.390354e-08
1.722863e-08
1.567737e-08
1.498438e-08
1.346564e-08
1.226975e-08
1.097079e-08
9.955296e-09
9.382691e-09
8.978162e-09
8.75952e-09
8.188136e-09
8.041936e-09
7.810124e-09
4.897787e-11
1.422738e-09
1.162329e-08
1.306756e-08
1.385233e-08
1.564161e-08
1.386305e-08
1.281973e-08
1.204479e-08
1.111908e-08
1.019372e-08
9.463939e-09
8.938702e-09
8.603752e-09
8.455177e-09
7.919227e-09
7.816334e-09
7.621284e-09
4.910328e-11
1.385591e-09
1.194784e-08
1.293078e-08
1.312436e-08
1.384108e-08
1.232036e-08
1.108394e-08
1.075726e-08
1.013726e-08
9.487248e-09
8.971011e-09
8.481505e-09
8.23812e-09
8.130197e-09
7.637434e-09
7.580387e-09
7.415725e-09
4.923569e-11
1.369602e-09
1.14441e-08
1.19883e-08
1.184838e-08
1.205067e-08
1.105249e-08
9.575269e-09
9.676169e-09
9.370764e-09
8.941442e-09
8.308074e-09
8.025236e-09
7.861521e-09
7.794968e-09
7.354698e-09
7.335756e-09
7.200467e-09
4.937688e-11
1.351464e-09
9.670374e-09
1.018846e-08
1.033543e-08
1.049559e-08
1.001447e-08
8.707569e-09
8.816732e-09
8.70978e-09
8.126266e-09
7.668302e-09
7.615021e-09
7.482941e-09
7.482587e-09
7.075275e-09
7.088972e-09
6.978166e-09
4.952764e-11
1.291986e-09
8.885318e-09
9.056131e-09
9.126056e-09
9.251071e-09
8.993042e-09
8.214029e-09
8.011235e-09
7.782606e-09
7.357389e-09
7.267722e-09
7.215686e-09
7.140421e-09
7.174661e-09
6.797454e-09
6.834111e-09
6.753551e-09
4.969643e-11
1.265071e-09
8.62279e-09
7.876903e-09
8.138108e-09
8.343119e-09
8.167837e-09
7.707082e-09
7.242021e-09
7.047257e-09
6.931477e-09
6.912465e-09
6.853919e-09
6.814368e-09
6.872057e-09
6.524044e-09
6.58708e-09
6.527124e-09
4.994539e-11
1.121582e-09
6.676237e-09
7.159668e-09
7.658199e-09
7.747398e-09
7.533333e-09
7.192883e-09
6.73781e-09
6.655481e-09
6.612842e-09
6.555294e-09
6.525128e-09
6.500124e-09
6.577326e-09
6.260879e-09
6.343054e-09
6.300819e-09
5.0319e-11
9.833441e-10
6.080107e-09
6.859518e-09
7.46364e-09
7.347443e-09
7.067184e-09
6.756707e-09
6.395418e-09
6.369329e-09
6.29388e-09
6.216586e-09
6.209732e-09
6.200413e-09
6.284684e-09
6.010977e-09
6.103315e-09
6.078645e-09
5.121396e-11
9.019972e-10
6.826392e-09
6.686806e-09
7.152557e-09
6.987658e-09
6.66436e-09
6.373699e-09
6.094552e-09
6.05093e-09
5.963681e-09
5.904647e-09
5.910217e-09
5.921986e-09
5.984541e-09
5.778635e-09
5.867643e-09
5.860019e-09
5.038826e-11
8.786282e-10
7.692982e-09
7.332871e-09
6.921523e-09
6.605347e-09
6.273846e-09
6.021577e-09
5.764894e-09
5.720471e-09
5.648923e-09
5.614034e-09
5.627063e-09
5.658135e-09
5.680293e-09
5.564068e-09
5.634523e-09
5.642967e-09
5.059041e-11
8.779639e-10
7.412278e-09
6.89553e-09
6.976325e-09
6.177181e-09
5.858322e-09
5.648052e-09
5.425425e-09
5.400964e-09
5.350106e-09
5.338057e-09
5.353498e-09
5.395902e-09
5.391778e-09
5.356749e-09
5.406206e-09
5.428878e-09
5.082689e-11
8.466878e-10
7.206287e-09
6.55444e-09
6.311156e-09
5.894235e-09
5.453732e-09
5.276591e-09
5.09091e-09
5.094697e-09
5.067445e-09
5.07203e-09
5.092426e-09
5.129807e-09
5.150823e-09
5.141258e-09
5.187071e-09
5.220797e-09
5.110316e-11
8.151842e-10
6.273763e-09
5.861408e-09
5.850836e-09
5.37537e-09
5.139863e-09
4.930198e-09
4.752524e-09
4.804178e-09
4.801716e-09
4.812474e-09
4.84193e-09
4.880103e-09
4.89623e-09
4.948043e-09
4.978788e-09
5.0122e-09
5.139491e-11
7.876045e-10
5.786107e-09
5.345263e-09
5.210733e-09
4.88802e-09
4.735206e-09
4.595693e-09
4.462616e-09
4.541313e-09
4.541855e-09
4.56039e-09
4.596177e-09
4.664635e-09
4.644705e-09
4.733423e-09
4.752453e-09
4.802203e-09
5.171029e-11
7.600472e-10
5.362743e-09
4.799512e-09
4.80811e-09
4.460302e-09
4.340331e-09
4.242843e-09
4.195592e-09
4.29035e-09
4.28979e-09
4.31496e-09
4.359543e-09
4.42887e-09
4.3742e-09
4.550254e-09
4.549122e-09
4.609331e-09
5.205649e-11
7.32858e-10
4.867032e-09
4.382195e-09
4.278758e-09
4.109215e-09
4.00924e-09
3.957345e-09
3.93826e-09
4.028251e-09
4.04234e-09
4.079714e-09
4.131986e-09
4.228201e-09
4.172288e-09
4.313927e-09
4.349203e-09
4.407996e-09
5.243209e-11
7.080194e-10
4.413656e-09
3.95011e-09
3.903993e-09
3.688513e-09
3.692022e-09
3.707109e-09
3.698034e-09
3.772748e-09
3.808647e-09
3.85094e-09
3.918624e-09
4.048234e-09
3.959397e-09
4.100595e-09
4.1458e-09
4.222668e-09
5.284418e-11
6.842237e-10
4.045521e-09
3.554009e-09
3.490844e-09
3.411467e-09
3.380415e-09
3.467656e-09
3.448199e-09
3.535423e-09
3.57979e-09
3.63317e-09
3.697857e-09
3.843557e-09
3.748501e-09
3.881651e-09
3.948323e-09
4.05421e-09
5.328872e-11
6.610724e-10
3.72679e-09
3.209116e-09
3.02715e-09
3.16051e-09
3.155226e-09
3.199892e-09
3.23544e-09
3.314564e-09
3.355348e-09
3.419604e-09
3.500193e-09
3.58473e-09
3.551076e-09
3.671525e-09
3.757958e-09
3.875566e-09
5.377585e-11
6.388396e-10
3.404969e-09
2.934226e-09
2.592872e-09
2.940943e-09
2.924061e-09
2.966615e-09
3.051935e-09
3.09419e-09
3.143139e-09
3.206536e-09
3.31267e-09
3.39567e-09
3.357181e-09
3.506418e-09
3.57959e-09
3.691369e-09
5.431058e-11
6.151976e-10
2.924677e-09
2.77483e-09
2.308449e-09
2.68731e-09
2.677104e-09
2.746764e-09
2.856604e-09
2.868452e-09
2.940327e-09
3.010496e-09
3.111029e-09
3.217019e-09
3.158774e-09
3.302832e-09
3.418343e-09
3.51901e-09
5.491945e-11
5.894361e-10
2.282948e-09
2.858271e-09
2.245609e-09
2.315555e-09
2.437168e-09
2.493702e-09
2.621555e-09
2.668961e-09
2.749883e-09
2.82999e-09
2.921249e-09
3.010294e-09
3.005657e-09
3.146045e-09
3.229537e-09
3.333473e-09
5.564735e-11
5.617188e-10
1.83002e-09
2.887581e-09
2.221289e-09
1.991752e-09
2.212722e-09
2.212689e-09
2.406898e-09
2.515855e-09
2.578105e-09
2.662437e-09
2.768353e-09
2.784653e-09
2.864941e-09
2.980368e-09
3.056916e-09
3.106009e-09
5.65507e-11
5.338467e-10
1.664718e-09
2.205159e-09
2.112116e-09
1.896722e-09
2.040809e-09
2.052754e-09
2.27168e-09
2.379684e-09
2.430706e-09
2.50323e-09
2.602269e-09
2.585528e-09
2.718291e-09
2.813746e-09
2.877009e-09
2.947292e-09
5.761682e-11
5.162972e-10
1.541244e-09
1.501885e-09
2.028193e-09
1.840828e-09
1.944573e-09
1.945113e-09
2.098584e-09
2.242026e-09
2.278483e-09
2.340173e-09
2.420025e-09
2.432701e-09
2.528051e-09
2.647334e-09
2.696651e-09
2.808927e-09
5.869294e-11
4.821155e-10
1.418311e-09
1.209235e-09
1.532952e-09
1.924231e-09
1.872933e-09
1.883952e-09
2.040235e-09
2.084366e-09
2.128133e-09
2.192849e-09
2.227447e-09
2.285045e-09
2.363729e-09
2.478366e-09
2.50446e-09
2.619822e-09
5.967627e-11
4.768056e-10
1.132201e-09
1.165077e-09
1.202478e-09
1.76751e-09
1.796643e-09
1.928512e-09
1.882857e-09
1.888851e-09
1.961555e-09
2.030744e-09
2.063815e-09
2.1519e-09
2.225147e-09
2.305729e-09
2.349176e-09
2.489055e-09
6.307981e-11
3.744063e-10
9.222105e-10
1.051709e-09
1.275358e-09
1.463358e-09
1.639645e-09
1.741207e-09
1.706468e-09
1.736842e-09
1.811768e-09
1.858185e-09
1.89443e-09
1.991645e-09
2.076114e-09
2.147922e-09
2.202375e-09
2.3371e-09
6.555914e-11
3.01658e-10
8.282972e-10
8.931717e-10
1.037889e-09
1.418751e-09
1.503669e-09
1.585972e-09
1.591473e-09
1.649608e-09
1.672044e-09
1.725237e-09
1.754175e-09
1.839317e-09
1.904367e-09
1.957467e-09
1.983437e-09
2.22812e-09
7.111257e-11
2.276397e-10
7.337712e-10
8.366416e-10
1.068463e-09
1.300132e-09
1.42924e-09
1.462443e-09
1.497331e-09
1.496237e-09
1.517097e-09
1.527444e-09
1.55406e-09
1.710744e-09
1.731672e-09
1.813131e-09
1.869633e-09
2.071743e-09
7.835509e-11
1.625217e-10
7.155255e-10
9.538995e-10
1.201161e-09
1.365926e-09
1.357519e-09
1.358841e-09
1.373611e-09
1.380732e-09
1.394601e-09
1.392134e-09
1.458807e-09
1.524629e-09
1.571538e-09
1.682773e-09
1.687744e-09
1.861926e-09
1.109937e-10
1.097513e-10
5.515397e-10
9.028267e-10
1.349153e-09
1.346998e-09
1.272712e-09
1.264112e-09
1.227065e-09
1.253567e-09
1.251551e-09
1.239393e-09
1.392658e-09
1.397109e-09
1.460479e-09
1.499174e-09
1.612652e-09
1.714884e-09
1.428991e-10
8.785059e-11
4.797716e-10
8.666767e-10
1.234933e-09
1.256378e-09
1.166321e-09
1.139066e-09
1.102156e-09
1.134394e-09
1.142211e-09
1.128233e-09
1.279836e-09
1.258261e-09
1.300548e-09
1.476668e-09
1.484701e-09
1.562227e-09
2.061205e-05
8.734363e-11
4.084374e-10
8.541523e-10
1.210067e-09
1.113453e-09
1.01465e-09
9.997093e-10
9.809674e-10
9.94144e-10
1.006036e-09
1.025656e-09
1.134486e-09
1.129095e-09
1.187631e-09
1.341745e-09
1.359001e-09
1.471664e-09
0.0007642192
7.57524e-11
4.118838e-10
7.914458e-10
9.427203e-10
9.201029e-10
8.734623e-10
8.756858e-10
8.706629e-10
8.830444e-10
9.15292e-10
9.328974e-10
9.943676e-10
1.048615e-09
1.065936e-09
1.192028e-09
1.25303e-09
1.352665e-09
0.002547927
6.751161e-11
4.880886e-10
7.3493e-10
7.400153e-10
7.655843e-10
7.602527e-10
7.614547e-10
7.651317e-10
7.726619e-10
7.878563e-10
8.647512e-10
9.077643e-10
9.908449e-10
9.48113e-10
1.10048e-09
1.146078e-09
1.253412e-09
0.00218491
6.718539e-11
5.337767e-10
7.441263e-10
6.77337e-10
6.572259e-10
6.595051e-10
6.654495e-10
6.637091e-10
6.923189e-10
6.870961e-10
7.794928e-10
8.072751e-10
8.428887e-10
8.613573e-10
1.002382e-09
1.063908e-09
1.137304e-09
0.05777994
6.681451e-11
7.332094e-10
8.004745e-10
6.751582e-10
5.754812e-10
5.762767e-10
5.727637e-10
5.62533e-10
5.876493e-10
5.949915e-10
7.02854e-10
6.680431e-10
8.045911e-10
7.676458e-10
9.138574e-10
9.524402e-10
1.050662e-09
0.2296548
6.017565e-11
1.01706e-09
7.8567e-10
6.092493e-10
5.007373e-10
4.962241e-10
4.924341e-10
4.93252e-10
5.089773e-10
5.225599e-10
5.84933e-10
5.900608e-10
7.061562e-10
7.189263e-10
7.972222e-10
8.840916e-10
9.513601e-10
0.1238085
6.475426e-11
5.691981e-10
8.593408e-10
4.772227e-10
4.558599e-10
4.188175e-10
4.231554e-10
4.179484e-10
4.267297e-10
4.483841e-10
4.684574e-10
5.547122e-10
6.020339e-10
6.223557e-10
7.296787e-10
7.919749e-10
8.797496e-10
0.5917768
7.061036e-11
6.417627e-10
7.473e-10
4.087137e-10
3.604603e-10
3.471162e-10
3.456736e-10
3.461941e-10
3.52761e-10
3.840289e-10
3.988744e-10
4.922644e-10
5.070775e-10
5.874309e-10
6.224597e-10
7.320504e-10
7.897377e-10
0.02932093
1.081738e-10
4.366603e-10
3.151028e-10
3.169413e-10
2.847975e-10
2.766703e-10
2.850612e-10
2.792134e-10
3.089179e-10
3.107085e-10
3.415141e-10
4.050932e-10
4.664309e-10
4.980088e-10
5.748193e-10
6.169169e-10
7.670779e-10
0.3012118
1.657019e-10
3.579372e-10
1.908815e-10
2.134753e-10
2.322404e-10
2.298313e-10
2.201116e-10
2.179804e-10
2.536346e-10
2.478485e-10
3.117276e-10
3.53991e-10
3.896576e-10
4.554459e-10
4.809695e-10
5.738861e-10
6.536496e-10
0.758506
1.193053e-10
4.112299e-10
1.455114e-10
1.870729e-10
1.78287e-10
2.094058e-10
2.835907e-10
2.623785e-10
3.285644e-10
4.115948e-10
4.3326e-10
5.152469e-10
6.172856e-10
0.4117067
0.005209054
1.604645e-10
2.019808e-10
2.418508e-10
2.75334e-10
3.402783e-10
4.016629e-10
4.589845e-10
5.694964e-10
1.853955
1.397871e-10
2.251431e-10
2.245333e-10
3.054616e-10
3.582841e-10
4.246779e-10
5.424343e-10
1.798982e-10
2.239572e-10
2.689605e-10
3.450506e-10
3.861317e-10
5.002185e-10
2.066863e-10
2.333309e-10
3.053822e-10
3.74585e-10
4.763225e-10
2.245437e-10
2.176703e-10
2.864375e-10
3.646239e-10
4.434213e-10
1.770644e-10
2.097451e-10
2.752518e-10
3.555385e-10
4.301695e-10
1.682788e-10
2.21263e-10
2.769725e-10
3.546985e-10
4.240212e-10
1.794864e-10
2.219878e-10
2.732028e-10
3.574575e-10
4.323507e-10
1.85417e-10
2.298361e-10
2.959195e-10
3.618196e-10
4.464321e-10
1.6438e-10
1.898181e-10
2.545414e-10
3.104933e-10
3.967131e-10
4.649089e-10
0.08757353
2.061888e-10
2.001889e-10
2.691241e-10
3.554698e-10
4.188501e-10
5.100179e-10
0.1595755
0.02353882
1.842417e-10
2.332575e-10
2.494554e-10
2.893982e-10
3.77409e-10
4.444119e-10
5.603979e-10
0.0865597
1.321849e-10
1.42852e-10
1.68624e-10
1.781539e-10
2.341929e-10
2.538677e-10
3.077552e-10
3.096314e-10
4.480262e-10
4.679989e-10
5.987621e-10
0.07020905
1.344608e-10
1.872064e-10
2.560045e-10
2.092681e-10
2.00459e-10
1.980507e-10
1.895291e-10
2.110109e-10
1.853327e-10
2.453703e-10
2.675842e-10
2.84978e-10
3.753559e-10
3.603346e-10
5.003646e-10
5.007181e-10
6.697726e-10
0.009078847
1.393617e-10
7.00968e-10
2.753472e-10
2.266375e-10
2.20835e-10
2.207731e-10
2.245763e-10
2.721012e-10
2.408351e-10
2.836504e-10
3.086828e-10
3.512586e-10
3.955061e-10
4.722645e-10
5.13711e-10
5.848027e-10
6.877811e-10
0.01060361
1.048925e-10
2.265434e-10
2.481109e-10
2.465505e-10
2.584325e-10
2.67062e-10
2.940902e-10
3.008413e-10
3.066927e-10
3.464658e-10
3.6976e-10
4.082911e-10
4.480212e-10
5.157016e-10
5.936298e-10
6.165332e-10
7.769251e-10
0.03540517
8.815437e-11
2.890056e-10
2.52161e-10
3.169828e-10
3.314102e-10
3.260382e-10
3.460342e-10
3.428864e-10
3.663475e-10
4.214656e-10
4.115138e-10
4.985096e-10
5.147933e-10
5.802155e-10
6.509165e-10
6.985423e-10
8.375672e-10
0.03179749
8.265346e-11
3.154089e-10
3.263703e-10
3.423039e-10
3.599305e-10
3.765508e-10
3.974036e-10
4.114383e-10
4.163854e-10
4.939488e-10
4.663587e-10
5.807219e-10
6.150541e-10
6.470727e-10
7.388366e-10
7.849719e-10
9.018502e-10
0.02672184
8.240721e-11
3.045222e-10
3.44426e-10
4.112946e-10
4.315313e-10
4.495245e-10
4.577792e-10
4.936604e-10
4.980539e-10
5.342105e-10
5.393592e-10
6.060538e-10
7.097284e-10
7.431848e-10
7.905179e-10
8.86038e-10
9.870035e-10
0.01107118
7.321701e-11
2.771119e-10
3.844995e-10
4.881272e-10
5.16453e-10
5.365339e-10
5.394926e-10
5.730621e-10
5.696335e-10
6.047606e-10
6.637725e-10
6.537483e-10
8.054247e-10
8.078347e-10
8.801959e-10
9.590609e-10
1.071756e-09
0.003242688
8.036567e-11
4.109331e-10
4.631849e-10
6.382498e-10
6.305754e-10
6.245852e-10
6.258159e-10
6.492129e-10
6.624892e-10
6.771329e-10
7.667745e-10
7.579814e-10
8.831774e-10
9.097643e-10
9.898291e-10
1.04681e-09
1.143184e-09
0.00152985
1.023664e-10
7.611064e-10
9.246374e-10
8.680657e-10
7.432508e-10
7.251979e-10
7.106937e-10
7.323059e-10
7.57944e-10
7.434617e-10
8.517544e-10
8.489456e-10
9.845517e-10
9.826491e-10
1.086188e-09
1.148948e-09
1.223833e-09
3.275048e-05
9.695407e-11
1.014474e-09
1.253857e-09
9.144505e-10
7.808517e-10
8.073354e-10
7.868345e-10
8.188754e-10
8.581871e-10
8.412246e-10
9.401798e-10
9.65074e-10
1.130055e-09
1.069385e-09
1.152858e-09
1.234302e-09
1.313419e-09
1.066296e-10
1.777773e-10
1.031328e-09
1.345893e-09
1.028411e-09
8.401475e-10
9.002825e-10
8.912114e-10
9.314445e-10
9.517345e-10
9.550446e-10
1.026087e-09
1.074073e-09
1.198602e-09
1.19235e-09
1.274906e-09
1.361203e-09
1.422768e-09
9.107408e-11
3.184577e-10
9.317183e-10
1.250154e-09
1.027904e-09
9.092887e-10
1.022243e-09
1.018945e-09
1.069846e-09
1.064131e-09
1.082192e-09
1.125344e-09
1.212614e-09
1.270702e-09
1.324626e-09
1.370124e-09
1.478961e-09
1.537947e-09
6.471397e-11
4.633324e-10
1.215812e-09
1.230008e-09
9.237821e-10
1.012969e-09
1.16681e-09
1.119139e-09
1.133981e-09
1.195246e-09
1.222614e-09
1.225079e-09
1.342461e-09
1.375054e-09
1.421433e-09
1.465904e-09
1.668843e-09
1.690171e-09
6.357326e-11
5.673556e-10
1.336486e-09
1.033508e-09
1.037155e-09
1.242265e-09
1.187486e-09
1.239913e-09
1.241989e-09
1.24118e-09
1.349851e-09
1.337141e-09
1.482627e-09
1.487983e-09
1.569139e-09
1.579061e-09
1.790163e-09
1.840119e-09
6.113385e-11
4.123806e-10
1.032698e-09
1.045029e-09
1.277659e-09
1.336871e-09
1.267588e-09
1.314796e-09
1.407584e-09
1.40838e-09
1.465109e-09
1.470468e-09
1.578868e-09
1.637764e-09
1.689412e-09
1.76189e-09
1.86224e-09
1.971391e-09
5.75608e-11
4.528516e-10
9.813208e-10
1.115626e-09
1.653639e-09
1.28746e-09
1.374094e-09
1.433589e-09
1.475156e-09
1.506573e-09
1.596555e-09
1.628733e-09
1.651175e-09
1.81968e-09
1.832982e-09
1.908547e-09
1.998437e-09
2.128996e-09
5.775405e-11
5.614438e-10
1.195728e-09
1.275944e-09
1.842692e-09
1.421414e-09
1.54913e-09
1.56279e-09
1.660895e-09
1.657386e-09
1.718963e-09
1.779443e-09
1.780046e-09
1.970994e-09
1.981152e-09
2.089819e-09
2.116034e-09
2.332947e-09
5.720002e-11
5.515703e-10
1.394834e-09
1.583309e-09
1.693794e-09
1.63531e-09
1.677836e-09
1.72126e-09
1.803299e-09
1.837628e-09
1.878419e-09
1.938559e-09
1.945011e-09
2.102795e-09
2.116713e-09
2.239535e-09
2.254929e-09
2.441924e-09
5.656202e-11
5.562555e-10
1.588293e-09
1.639948e-09
1.882811e-09
1.769154e-09
1.824494e-09
1.912694e-09
1.930397e-09
1.979542e-09
2.030879e-09
2.094247e-09
2.119691e-09
2.282586e-09
2.27515e-09
2.38056e-09
2.397616e-09
2.605769e-09
5.593382e-11
5.676317e-10
1.729499e-09
1.939933e-09
1.895869e-09
1.962297e-09
2.001492e-09
2.075065e-09
2.110329e-09
2.168614e-09
2.208424e-09
2.261231e-09
2.312982e-09
2.427497e-09
2.430835e-09
2.552082e-09
2.61898e-09
2.767613e-09
5.533241e-11
5.815747e-10
1.855184e-09
2.107898e-09
2.088967e-09
2.097906e-09
2.16033e-09
2.24288e-09
2.301304e-09
2.324176e-09
2.37549e-09
2.430361e-09
2.484309e-09
2.602911e-09
2.593576e-09
2.712183e-09
2.798131e-09
3.00023e-09
5.478536e-11
5.94809e-10
2.021635e-09
2.251256e-09
2.24067e-09
2.285392e-09
2.343243e-09
2.417589e-09
2.461597e-09
2.515063e-09
2.559797e-09
2.614639e-09
2.674274e-09
2.754049e-09
2.794248e-09
2.880216e-09
2.977528e-09
3.104115e-09
5.428463e-11
6.081717e-10
2.191619e-09
2.402667e-09
2.404432e-09
2.463302e-09
2.528595e-09
2.595672e-09
2.658025e-09
2.714289e-09
2.755743e-09
2.804837e-09
2.861709e-09
2.939478e-09
2.989548e-09
3.069708e-09
3.147151e-09
3.297605e-09
5.383323e-11
6.209247e-10
2.365017e-09
2.549057e-09
2.580443e-09
2.646883e-09
2.710441e-09
2.786339e-09
2.854595e-09
2.918209e-09
2.953755e-09
3.007968e-09
3.061697e-09
3.095225e-09
3.180456e-09
3.24481e-09
3.33125e-09
3.455504e-09
5.341848e-11
6.357501e-10
2.560875e-09
2.706965e-09
2.768124e-09
2.839463e-09
2.898259e-09
2.980391e-09
3.052737e-09
3.116114e-09
3.167442e-09
3.215388e-09
3.25634e-09
3.37023e-09
3.330887e-09
3.41814e-09
3.523171e-09
3.604013e-09
5.304554e-11
6.477967e-10
2.757743e-09
2.878176e-09
2.962546e-09
3.01631e-09
3.08698e-09
3.181283e-09
3.247713e-09
3.330546e-09
3.38339e-09
3.422906e-09
3.464371e-09
3.570518e-09
3.526604e-09
3.591021e-09
3.705546e-09
3.786763e-09
5.271788e-11
6.592617e-10
2.988849e-09
3.071281e-09
3.133636e-09
3.165841e-09
3.302306e-09
3.380306e-09
3.471254e-09
3.538678e-09
3.598769e-09
3.64095e-09
3.680551e-09
3.780112e-09
3.754848e-09
3.796041e-09
3.903279e-09
3.980167e-09
5.242025e-11
6.712328e-10
3.249886e-09
3.227421e-09
3.249528e-09
3.381713e-09
3.522709e-09
3.592819e-09
3.68444e-09
3.753685e-09
3.816784e-09
3.863185e-09
3.904821e-09
3.981275e-09
3.990953e-09
3.964619e-09
4.095158e-09
4.176974e-09
5.215824e-11
6.795265e-10
3.496805e-09
3.284773e-09
3.494494e-09
3.641042e-09
3.692236e-09
3.83486e-09
3.912482e-09
3.971566e-09
4.038421e-09
4.094102e-09
4.128937e-09
4.173011e-09
4.223419e-09
4.150977e-09
4.307117e-09
4.366996e-09
5.19224e-11
6.850452e-10
3.568847e-09
3.550633e-09
3.822043e-09
3.736241e-09
3.993115e-09
4.071552e-09
4.122967e-09
4.202008e-09
4.271933e-09
4.337268e-09
4.362308e-09
4.378253e-09
4.500518e-09
4.358653e-09
4.515066e-09
4.566618e-09
5.171683e-11
6.847002e-10
3.986739e-09
3.91645e-09
3.837392e-09
4.127468e-09
4.172238e-09
4.291493e-09
4.369371e-09
4.451211e-09
4.513128e-09
4.586379e-09
4.605615e-09
4.620759e-09
4.721361e-09
4.608807e-09
4.728327e-09
4.776493e-09
5.157515e-11
6.930516e-10
4.401276e-09
3.934159e-09
4.318962e-09
4.252956e-09
4.412828e-09
4.558786e-09
4.620443e-09
4.700013e-09
4.763399e-09
4.843828e-09
4.858691e-09
4.865269e-09
4.957564e-09
4.840428e-09
4.94821e-09
4.987619e-09
5.14641e-11
7.047439e-10
4.860642e-09
4.518693e-09
4.400962e-09
4.483005e-09
4.676677e-09
4.778075e-09
4.863564e-09
4.953154e-09
5.031523e-09
5.113992e-09
5.113168e-09
5.117652e-09
5.191471e-09
5.07596e-09
5.170586e-09
5.201453e-09
5.133535e-11
6.906769e-10
5.58444e-09
4.551273e-09
4.522988e-09
4.668073e-09
4.801358e-09
4.995114e-09
5.120443e-09
5.217353e-09
5.307337e-09
5.3951e-09
5.38468e-09
5.378059e-09
5.440636e-09
5.323242e-09
5.400275e-09
5.418523e-09
5.118442e-11
7.157287e-10
4.534216e-09
4.269812e-09
4.515597e-09
4.672429e-09
4.940536e-09
5.238191e-09
5.403124e-09
5.505937e-09
5.601334e-09
5.686854e-09
5.665921e-09