/*--------------------------------*- C++ -*----------------------------------*\
| =========                 |                                                 |
| \\      /  F ield         | OpenFOAM: The Open Source CFD Toolbox           |
|  \\    /   O peration     | Version:  2206                                  |
|   \\  /    A nd           | Website:  www.openfoam.com                      |
|    \\/     M anipulation  |                                                 |
\*---------------------------------------------------------------------------*/
FoamFile
{
    version     2.0;
    format      ascii;
    arch        "LSB;label=32;scalar=64";
    class       volScalarField;
    location    "2.8";
    object      omega.b;
}
// * * * * * * * * * * * * * * * * * * * * * * * * * * * * * * * * * * * * * //

dimensions      [0 0 -1 0 0 0 0];

internalField   nonuniform List<scalar> 
13078
(
6.495683
0.3790924
0.2342751
0.2319121
0.2323758
0.2330272
0.2337914
6.57947
0.358992
0.2332411
0.2317961
0.2323457
0.2330068
0.2337727
6.585492
0.3483246
0.2329275
0.231719
0.2323022
0.2329765
0.2337477
6.591679
0.3441518
0.2327755
0.2316625
0.2322601
0.2329445
0.2337205
6.598133
0.3426997
0.232698
0.2316301
0.2322251
0.2329141
0.2336937
6.604802
0.3420358
0.2326578
0.2316092
0.2322073
0.2328885
0.2336682
6.611848
0.3417462
0.2326548
0.2315956
0.2321951
0.2328772
0.2336463
6.619131
0.3416531
0.2326671
0.2315891
0.232188
0.2328695
0.2336383
6.626655
0.341615
0.2326627
0.2315871
0.2321842
0.2328644
0.2336325
6.634488
0.3416597
0.2326629
0.2315869
0.2321822
0.2328611
0.2336283
6.642682
0.3417581
0.2326649
0.2315874
0.2321813
0.2328589
0.2336251
6.651186
0.3418946
0.2326679
0.2315883
0.2321809
0.2328573
0.2336225
6.660084
0.3420595
0.2326716
0.2315892
0.2321808
0.2328561
0.2336204
6.669375
0.3422482
0.2326755
0.2315899
0.2321805
0.2328551
0.2336184
6.679072
0.3424559
0.232681
0.2315876
0.2321756
0.2328536
0.2336165
6.689206
0.3426806
0.2326871
0.2315845
0.232172
0.2328524
0.2336146
6.69983
0.3429195
0.2326919
0.2315846
0.2321715
0.2328513
0.2336127
6.710875
0.3431716
0.232697
0.2315848
0.232171
0.2328502
0.2336107
6.722538
0.3434387
0.2327024
0.2315851
0.2321704
0.2328486
0.2336086
6.734686
0.3437181
0.2327079
0.2315849
0.2321648
0.2328399
0.2336056
6.747501
0.3440128
0.2327139
0.2315848
0.2321579
0.2328332
0.2336027
6.760848
0.3443215
0.2327203
0.2315851
0.2321565
0.2328312
0.2336001
6.774919
0.3446463
0.2327271
0.2315853
0.2321556
0.2328291
0.2335966
6.789678
0.3449889
0.2327345
0.2315856
0.2321539
0.2328198
0.2335832
6.805169
0.3453513
0.2327427
0.2315861
0.2321524
0.2328082
0.2335725
6.821431
0.3457363
0.2327518
0.2315868
0.2321515
0.2328048
0.2335679
6.838694
0.3461383
0.232762
0.2315877
0.2321506
0.2328021
0.233564
6.860782
0.3466281
0.2327753
0.231589
0.2321497
0.2327981
0.2335488
6.889512
0.3470358
0.2327868
0.2315907
0.2321491
0.2327945
0.233528
6.964901
0.3484784
0.2328246
0.2315932
0.232149
0.2327924
0.2335234
7.077898
0.3498215
0.2328244
0.231595
0.232149
0.23279
0.2335158
7.116328
0.3523116
0.2328223
0.2315951
0.2321485
0.2327883
0.2335107
7.153721
0.355481
0.2329485
0.2316008
0.2321453
0.2327858
0.2335075
7.186841
0.3564883
0.2330237
0.2316074
0.2321395
0.2327768
0.2334994
7.221337
0.3574903
0.233049
0.2315944
0.2321452
0.2327535
0.2334797
7.257501
0.3585404
0.2330709
0.2315422
0.2321013
0.2327379
0.2334514
7.2953
0.359584
0.2330687
0.231497
0.2320116
0.2327124
0.23344
7.335032
0.360618
0.2330397
0.2314345
0.2319517
0.2326595
0.2334777
7.385166
0.3617064
0.2330026
0.2313648
0.2318923
0.232576
0.2335328
7.498022
0.3644175
0.2329869
0.2312815
0.2318415
0.2325532
0.2335618
7.673721
0.3692903
0.2328939
0.2311917
0.2317626
0.2324926
0.2334677
7.748892
0.3746813
0.2329647
0.2310403
0.2316218
0.2324308
0.2336314
7.810543
0.3774001
0.2329505
0.2308455
0.2315036
0.2325627
0.2339412
7.878359
0.3801853
0.2328275
0.2306798
0.2315893
0.2328513
0.2342384
7.986776
0.3842569
0.2327833
0.2307605
0.2318149
0.2330835
0.234398
8.166374
0.3897414
0.2329005
0.2310235
0.2320653
0.2332249
0.2344944
8.255056
0.3963308
0.23336
0.2312678
0.2322229
0.2333038
0.2344771
8.326852
0.4003702
0.2336889
0.2314242
0.2322975
0.2333091
0.2344632
8.397624
0.4043905
0.2339252
0.2314881
0.2323022
0.2332863
0.2343938
8.470059
0.4078791
0.2340551
0.231499
0.2322883
0.2332176
0.2342252
8.578588
0.4145076
0.2341624
0.2314883
0.2322456
0.2331345
0.2340941
8.843248
0.4245524
0.2345011
0.2316312
0.2323624
0.2331917
0.234074
8.950957
0.4286624
0.2347697
0.2314737
0.2322229
0.2331375
0.2340628
9.00275
0.4296813
0.2347245
0.2314251
0.2322103
0.2331612
0.2339731
9.032074
0.4299601
0.2346875
0.2314284
0.2322439
0.2331681
0.2339359
9.044095
0.4304796
0.2346498
0.2313739
0.232177
0.2330491
0.2338331
9.042633
0.4288176
0.2344867
0.2312457
0.2320343
0.2328956
0.2336383
9.030178
0.4253012
0.2344151
0.2313428
0.2320921
0.2329235
0.2336516
9.000771
0.4222767
0.2343646
0.2313953
0.2320876
0.2328841
0.2335616
8.947658
0.4184684
0.2342038
0.2313491
0.2319777
0.2327116
0.2334613
8.839256
0.4121479
0.2337944
0.2313794
0.232048
0.2328083
0.2335721
8.574789
0.401408
0.2335427
0.2314568
0.2320904
0.232822
0.2335768
8.467835
0.3937166
0.233392
0.2313907
0.2320207
0.2327494
0.2335466
8.396249
0.3900492
0.2332172
0.2313233
0.231917
0.2327169
0.2336938
8.326726
0.3868569
0.2330069
0.2312438
0.232007
0.2328981
0.233867
8.255056
0.3848057
0.2328392
0.2312403
0.232093
0.2329051
0.23381
8.166374
0.3806594
0.232648
0.2311303
0.2320084
0.2329146
0.2339923
7.986776
0.3770965
0.2326951
0.2309974
0.2319063
0.2330201
0.2340309
7.878359
0.3748386
0.2328115
0.2309992
0.2318665
0.2329356
0.2339836
7.810543
0.3735734
0.2329582
0.2311409
0.2318321
0.2327508
0.233942
7.749106
0.3721534
0.2330306
0.231271
0.231866
0.232731
0.233811
7.678124
0.3686765
0.2330065
0.2313501
0.2319549
0.2327132
0.2336462
7.535471
0.3653995
0.2330723
0.2314237
0.2319875
0.2326794
0.2336804
7.439012
0.3636825
0.2331077
0.2314749
0.231994
0.2326645
0.2336023
7.388639
0.3628736
0.2331315
0.2315172
0.2320268
0.2327301
0.2335126
7.344496
0.3613489
0.2331209
0.2315522
0.2320904
0.2327662
0.2334648
7.300795
0.3599696
0.2331122
0.2315743
0.2321448
0.2327611
0.2334806
7.237692
0.3587785
0.2330908
0.2316065
0.2321562
0.2327744
0.2334997
7.19073
0.3576242
0.2330606
0.2316105
0.2321466
0.2327856
0.2335079
7.154754
0.3566741
0.2329864
0.2316014
0.232148
0.2327888
0.2335105
7.116392
0.3534781
0.2328585
0.2315959
0.2321491
0.2327893
0.2335122
7.077898
0.3509575
0.2328637
0.2315949
0.2321488
0.2327904
0.2335167
6.964901
0.3495005
0.2328626
0.2315927
0.2321483
0.2327923
0.2335235
6.889512
0.3480387
0.232823
0.2315901
0.2321483
0.2327941
0.2335279
6.860782
0.3475542
0.2328092
0.2315883
0.2321488
0.2327974
0.2335478
6.838694
0.3469856
0.2327931
0.231587
0.2321495
0.2328011
0.2335628
6.821431
0.3465016
0.2327801
0.2315862
0.2321504
0.2328038
0.2335667
6.805169
0.3460371
0.2327683
0.2315855
0.2321514
0.2328072
0.2335713
6.789678
0.3455996
0.2327575
0.231585
0.2321529
0.2328188
0.2335821
6.774919
0.3451872
0.2327476
0.2315848
0.2321546
0.232828
0.2335956
6.760848
0.3447984
0.2327384
0.2315846
0.2321556
0.2328302
0.2335991
6.747501
0.3444316
0.2327299
0.2315845
0.2321572
0.2328324
0.2336018
6.734686
0.3440843
0.2327221
0.2315848
0.2321643
0.2328393
0.2336049
6.722538
0.3437573
0.2327148
0.2315851
0.23217
0.2328481
0.233608
6.710875
0.3434472
0.2327079
0.2315849
0.2321707
0.2328498
0.2336101
6.69983
0.3431557
0.2327014
0.2315847
0.2321713
0.2328509
0.2336121
6.689206
0.3428805
0.2326954
0.2315848
0.2321719
0.232852
0.2336141
6.679072
0.3426215
0.2326882
0.2315881
0.2321757
0.2328534
0.233616
6.669375
0.3423806
0.2326816
0.2315905
0.2321807
0.2328549
0.2336178
6.660084
0.3421582
0.2326767
0.2315899
0.2321809
0.2328558
0.2336197
6.651186
0.3419574
0.232672
0.2315891
0.232181
0.2328567
0.2336215
6.642682
0.3417803
0.2326677
0.2315883
0.2321811
0.2328579
0.2336235
6.634488
0.3416327
0.2326641
0.2315874
0.2321815
0.2328594
0.233626
6.626655
0.3415241
0.2326617
0.2315869
0.2321823
0.2328615
0.2336291
6.619131
0.3414735
0.2326625
0.2315871
0.2321842
0.2328648
0.2336334
6.611848
0.3414368
0.2326438
0.2315904
0.2321881
0.2328699
0.2336395
6.604802
0.3415248
0.2326355
0.2315979
0.2321954
0.2328777
0.2336592
6.598133
0.341842
0.2326549
0.2316087
0.2322066
0.2328992
0.2336822
6.591679
0.342465
0.2326938
0.2316277
0.2322337
0.2329255
0.2337074
6.585492
0.3439607
0.232762
0.2316682
0.2322691
0.2329554
0.2337343
6.57947
0.3471017
0.2328432
0.2317243
0.2323103
0.2329874
0.2337617
6.495683
0.351344
0.2330689
0.2317971
0.2323569
0.23302
0.2337883
0.2346984
0.2358407
0.2373651
0.2388306
0.2414447
0.2456456
0.2524705
0.2346779
0.2358149
0.2373314
0.2387918
0.2413963
0.2455973
0.2678219
0.2346538
0.2357875
0.2372987
0.2392934
0.2413551
0.2455294
0.2676377
0.2346281
0.2357593
0.2372633
0.2387116
0.2413012
0.2454615
0.2673568
0.2346024
0.2357305
0.2372294
0.2386662
0.2412522
0.2453938
0.2669247
0.2345773
0.2357018
0.2371944
0.2386244
0.2412043
0.2453268
0.2663508
0.2345533
0.2356736
0.2371598
0.2385844
0.2411908
0.2452612
0.2657432
0.2345319
0.2356461
0.2371258
0.2385454
0.2411784
0.2451963
0.2650044
0.2345252
0.2356213
0.2370936
0.2385059
0.2411402
0.2451362
0.2642806
0.2345202
0.2356142
0.2370639
0.2384669
0.2411027
0.2450766
0.2634546
0.2345162
0.2356089
0.2370557
0.2384293
0.2410656
0.2450173
0.2625947
0.2345126
0.235604
0.2370494
0.238421
0.2410283
0.2449578
0.2616239
0.2345094
0.2355994
0.2370432
0.2384136
0.241022
0.2448971
0.2606974
0.2345064
0.2355949
0.237037
0.238406
0.2410149
0.2448857
0.2598677
0.2345034
0.2355902
0.2370305
0.2383981
0.2410074
0.2448711
0.2597313
0.2345004
0.2355855
0.237024
0.23839
0.2409993
0.2448551
0.2586608
0.2344973
0.2355806
0.2370172
0.2383812
0.240987
0.2448391
0.2581551
0.2344941
0.2355757
0.2370099
0.238368
0.2408735
0.244822
0.2576244
0.2344908
0.2355707
0.2370025
0.2383583
0.2408577
0.2448046
0.2571685
0.2344873
0.2355655
0.2369948
0.2383483
0.2408452
0.2447861
0.256684
0.2344836
0.2355601
0.2369867
0.2383378
0.2408322
0.2447669
0.2562057
0.2344796
0.2355543
0.2369782
0.2383267
0.2408185
0.2447472
0.2558382
0.2344755
0.235548
0.2369683
0.2383188
0.2408011
0.2447269
0.2555129
0.2344697
0.2355414
0.2369601
0.238816
0.2406994
0.2446962
0.255217
0.234464
0.2355344
0.2369477
0.2382974
0.2406424
0.2446709
0.254965
0.2344586
0.2355272
0.2369404
0.2382768
0.2406208
0.244647
0.2547221
0.2344509
0.2355181
0.2369266
0.2382601
0.2405998
0.2446182
0.2545156
0.2344287
0.2355069
0.2369234
0.2382442
0.2405699
0.2443867
0.2543247
0.2344135
0.2352157
0.2365238
0.2382336
0.2405429
0.2442996
0.254166
0.234418
0.2352124
0.236507
0.2382093
0.2405172
0.2442654
0.25404
0.2343768
0.2351874
0.236494
0.2381904
0.2404906
0.2441096
0.2539233
0.2343491
0.235134
0.2364796
0.2381704
0.2404619
0.2439346
0.2538104
0.234345
0.2351318
0.2364549
0.2381512
0.2404343
0.2439002
0.253669
0.2343361
0.2351148
0.2364204
0.2381375
0.2404151
0.2438352
0.2525043
0.2343257
0.2351208
0.2364248
0.2381434
0.2404449
0.2438043
0.2526487
0.2343362
0.2351384
0.2363733
0.2382506
0.2405771
0.2437395
0.249594
0.2343941
0.235204
0.236537
0.2384202
0.2407391
0.2437096
0.250099
0.2344941
0.2353567
0.2367608
0.2385744
0.2409189
0.2441674
0.2506708
0.2346356
0.235569
0.236992
0.2387646
0.2415094
0.2450781
0.2508506
0.2347344
0.2358248
0.2373875
0.2395936
0.2423107
0.2459086
0.2509238
0.2349835
0.2362829
0.2381553
0.2405067
0.2429425
0.2463595
0.2524182
0.235219
0.2366513
0.2388005
0.2411135
0.2434458
0.2462047
0.252161
0.2355841
0.2370631
0.2391627
0.2413894
0.2437017
0.2463301
0.2525638
0.235854
0.237398
0.2395246
0.2415855
0.2437143
0.246666
0.2524383
0.236014
0.237599
0.2394819
0.2416185
0.2437866
0.2467245
0.2520919
0.2359917
0.2375535
0.2394766
0.2414939
0.2436794
0.2461258
0.2516886
0.2358861
0.2375516
0.2394173
0.2413187
0.2430568
0.245794
0.2500536
0.2358257
0.2373952
0.2392779
0.2409721
0.2428999
0.2449579
0.248525
0.2356574
0.2371482
0.2390677
0.2409186
0.2425129
0.2448231
0.2473921
0.2355057
0.2369332
0.2389649
0.2408023
0.2424079
0.2442893
0.2469255
0.2354296
0.2365825
0.2385209
0.2403412
0.2420955
0.2437613
0.2461935
0.2352649
0.2363345
0.2381115
0.2396956
0.2413467
0.2431095
0.2455682
0.2351071
0.2361069
0.2378547
0.2393816
0.2406958
0.2422736
0.2444028
0.2351269
0.2362237
0.23788
0.2390698
0.2401017
0.2410875
0.2429778
0.2350302
0.2361976
0.2377228
0.2388811
0.239616
0.2397609
0.2416984
0.2348519
0.2361387
0.237636
0.2385916
0.2391094
0.2394266
0.2346817
0.2360007
0.2372572
0.2382545
0.2388303
0.2391237
0.2347299
0.2360102
0.237306
0.2382978
0.2389466
0.2394898
0.2346328
0.2358227
0.2371414
0.2382286
0.2391583
0.2398068
0.2412764
0.2345076
0.2355626
0.2371349
0.2384875
0.2395212
0.2410015
0.2431887
0.2346548
0.2356539
0.237104
0.2386252
0.239881
0.241426
0.2435008
0.2346783
0.2357222
0.2372206
0.2385761
0.2401577
0.2415976
0.2438549
0.2346319
0.2356227
0.237574
0.2388965
0.2400984
0.24189
0.2443967
0.2349008
0.2359521
0.2374929
0.2388908
0.2404001
0.2420617
0.244471
0.2350438
0.2359502
0.2377483
0.2391816
0.2405675
0.2419024
0.2455568
0.2351503
0.2362571
0.2378318
0.2394412
0.2407884
0.2424036
0.2463643
0.2352681
0.2362617
0.2379889
0.2395559
0.2411659
0.2431132
0.2477429
0.2353016
0.2365224
0.238137
0.2396548
0.2414481
0.2438322
0.2483488
0.2353063
0.2365143
0.2381179
0.239846
0.2415679
0.2440666
0.2487355
0.2352975
0.2364839
0.2381895
0.239753
0.2418851
0.2441186
0.2494356
0.2351939
0.2364289
0.2379529
0.2398964
0.2418809
0.2440836
0.2495605
0.2350885
0.2364146
0.2378504
0.2399889
0.2418305
0.2444676
0.2500811
0.23486
0.2360901
0.2374801
0.2394933
0.2416269
0.2447365
0.2499393
0.2345862
0.2357654
0.2370043
0.2388213
0.2415038
0.2446622
0.2493479
0.2344227
0.2354699
0.2366631
0.2383357
0.2409082
0.2441272
0.2498462
0.2343515
0.2352817
0.2364396
0.2383643
0.2405644
0.2436222
0.2502697
0.2343312
0.235196
0.2363324
0.2381375
0.2404332
0.2435992
0.250406
0.2343344
0.2351639
0.2363253
0.2380984
0.2403769
0.2437078
0.2525514
0.2343415
0.2351384
0.2364117
0.2381225
0.2403835
0.2437738
0.2526772
0.234347
0.2351687
0.2364485
0.2381402
0.2404104
0.2438504
0.2526052
0.2343504
0.2351783
0.2364664
0.2381592
0.2404407
0.2438887
0.2533444
0.2343769
0.2351789
0.2364865
0.2381788
0.2404704
0.2439516
0.2535171
0.234416
0.2352269
0.2364996
0.2381977
0.240499
0.2442432
0.2537021
0.2344124
0.2352549
0.2365126
0.238214
0.2405247
0.2442691
0.253895
0.2344278
0.2355057
0.2369196
0.2382455
0.2405498
0.2443055
0.2541011
0.23445
0.2355164
0.2369238
0.2382621
0.2405814
0.2445168
0.2543453
0.2344574
0.2355253
0.2369357
0.2382751
0.2406052
0.2446236
0.254606
0.2344628
0.2355327
0.2369466
0.2382878
0.2406265
0.2446492
0.2548712
0.2344685
0.2355398
0.236957
0.2383001
0.2406488
0.2446731
0.255177
0.2344743
0.2355464
0.2369667
0.2383122
0.240762
0.2447044
0.2554862
0.2344784
0.2355526
0.236976
0.2383238
0.2408074
0.2447293
0.2558205
0.2344825
0.2355586
0.2369847
0.2383348
0.2408218
0.2447499
0.2562022
0.2344863
0.2355642
0.236993
0.2383454
0.2408356
0.2447698
0.2566141
0.23449
0.2355695
0.2370009
0.2383554
0.2408485
0.2447889
0.257073
0.2344933
0.2355745
0.2370084
0.2383651
0.2408608
0.2448074
0.257573
0.2344965
0.2355795
0.2370157
0.238377
0.2409205
0.2448253
0.2580924
0.2344996
0.2355845
0.2370226
0.2383876
0.2409926
0.2448424
0.2586393
0.2345026
0.2355891
0.2370291
0.2383961
0.241001
0.2448587
0.2593251
0.2345055
0.2355937
0.2370355
0.2384044
0.2410089
0.2448744
0.2597846
0.2345084
0.235598
0.2370416
0.2384123
0.2410163
0.2448881
0.2602336
0.2345112
0.2356024
0.2370476
0.2384201
0.2410235
0.2449245
0.2610745
0.2345143
0.2356069
0.2370536
0.2384277
0.2410451
0.2449842
0.2619305
0.2345177
0.2356117
0.2370614
0.2384506
0.241082
0.245044
0.262813
0.2345218
0.2356181
0.2370906
0.2384895
0.2411193
0.2451038
0.263656
0.2345274
0.2356421
0.2371222
0.2385289
0.2411569
0.2451638
0.2643955
0.2345474
0.2356686
0.2371556
0.2385689
0.2411933
0.2452263
0.2650994
0.23457
0.2356959
0.2371896
0.2386071
0.24118
0.245292
0.2657654
0.2345939
0.2357241
0.2372243
0.238648
0.2412263
0.2453585
0.2663331
0.234619
0.235753
0.2372594
0.238689
0.2412745
0.245426
0.2667678
0.2346453
0.2357823
0.2372947
0.23873
0.241323
0.245494
0.26707
0.2346715
0.2358111
0.2373296
0.2387706
0.2413717
0.2455623
0.2672493
0.2346968
0.2358398
0.2373644
0.2388106
0.2414203
0.2456273
0.2624299
3.10906
3.343819
3.312272
3.312394
3.312396
3.312396
3.312395
3.312395
3.312395
3.312395
3.312395
3.312395
3.312395
3.312395
3.312395
3.312395
3.312395
3.312395
2.927997
3.370112
3.312791
3.312408
3.312396
3.312394
3.312394
3.312394
3.312394
3.312394
3.312394
3.312394
3.312394
3.312394
3.312394
3.312394
3.312394
3.312394
2.91891
3.351887
3.311852
3.312376
3.312396
3.312395
3.312395
3.312395
3.312395
3.312395
3.312395
3.312395
3.312395
3.312395
3.312395
3.312395
3.312395
3.312395
2.892418
3.355652
3.312383
3.312388
3.312397
3.312395
3.312395
3.312395
3.312395
3.312395
3.312395
3.312395
3.312395
3.312395
3.312395
3.312395
3.312395
3.312395
2.862096
3.366881
3.312678
3.312396
3.312397
3.312394
3.312394
3.312394
3.312394
3.312394
3.312394
3.312394
3.312394
3.312394
3.312394
3.312394
3.312394
3.312394
2.830376
3.366832
3.312548
3.312396
3.312397
3.312394
3.312394
3.312394
3.312394
3.312394
3.312394
3.312394
3.312394
3.312394
3.312394
3.312394
3.312394
3.312394
2.796506
3.366046
3.312447
3.312395
3.312397
3.312394
3.312394
3.312394
3.312394
3.312394
3.312394
3.312394
3.312394
3.312394
3.312395
3.312395
3.312394
3.312394
2.760806
3.366345
3.31242
3.312396
3.312396
3.312395
3.312394
3.312394
3.312394
3.312394
3.312394
3.312394
3.312394
3.312394
3.312395
3.312395
3.312394
3.312394
2.726459
3.3664
3.312422
3.312396
3.312395
3.312395
3.312395
3.312394
3.312394
3.312394
3.312394
3.312394
3.312394
3.312394
3.312395
3.312395
3.312394
3.312394
2.689227
3.366293
3.312455
3.312398
3.312395
3.312395
3.312395
3.312395
3.312394
3.312394
3.312394
3.312394
3.312394
3.312394
3.312395
3.312395
3.312394
3.312394
2.650285
3.369045
3.312571
3.312407
3.312395
3.312396
3.312395
3.312395
3.312394
3.312394
3.312394
3.312394
3.312394
3.312394
3.312396
3.312395
3.312394
3.312394
2.614905
3.375381
3.312788
3.312444
3.312398
3.312396
3.312395
3.312395
3.312394
3.312394
3.312394
3.312394
3.312394
3.312394
3.312396
3.312396
3.312394
3.312394
2.579383
3.376695
3.312761
3.312523
3.312407
3.312396
3.312395
3.312395
3.312394
3.312394
3.312394
3.312394
3.312394
3.312394
3.312397
3.312396
3.312394
3.312394
2.51979
3.377075
3.312341
3.312532
3.312429
3.312397
3.312395
3.312395
3.312394
3.312394
3.312394
3.312394
3.312394
3.312394
3.312397
3.312396
3.312394
3.312394
2.414043
3.379814
3.312387
3.312389
3.312437
3.312399
3.312395
3.312395
3.312395
3.312394
3.312394
3.312394
3.312394
3.312394
3.312397
3.312396
3.312394
3.312394
2.355752
3.381081
3.31245
3.312402
3.312407
3.312404
3.312395
3.312395
3.312395
3.312394
3.312394
3.312394
3.312394
3.312394
3.312396
3.312395
3.312394
3.312394
2.305707
3.382842
3.312422
3.312409
3.312393
3.312405
3.312397
3.312395
3.312395
3.312394
3.312394
3.312394
3.312394
3.312395
3.312395
3.312394
3.312394
3.312394
2.25394
3.38143
3.312383
3.312399
3.312421
3.312394
3.312398
3.312396
3.312396
3.312394
3.312394
3.312394
3.312394
3.312395
3.312395
3.312394
3.312394
3.312394
2.201888
3.38448
3.312497
3.312385
3.312403
3.312399
3.312395
3.312397
3.312397
3.312394
3.312394
3.312394
3.312394
3.312395
3.312395
3.312394
3.312394
3.312394
2.150366
3.3854
3.312353
3.312428
3.312429
3.312396
3.312395
3.312394
3.312397
3.312394
3.312394
3.312394
3.312394
3.312396
3.312396
3.312395
3.312394
3.312394
2.100859
3.385857
3.312293
3.312377
3.312421
3.312396
3.312396
3.312394
3.312397
3.312394
3.312394
3.312394
3.312394
3.312398
3.3124
3.312395
3.312394
3.312394
2.052609
3.386641
3.312359
3.312376
3.312459
3.312394
3.312396
3.312395
3.312399
3.312394
3.312394
3.312394
3.312394
3.312406
3.312414
3.312395
3.312394
3.312394
2.00591
3.387471
3.31241
3.312429
3.312475
3.312396
3.312396
3.312395
3.312403
3.312394
3.312394
3.312394
3.312395
3.31242
3.312443
3.312394
3.312394
3.312395
1.958808
3.388171
3.312437
3.312523
3.312549
3.312395
3.3124
3.312397
3.312407
3.312394
3.312394
3.312394
3.312395
3.31242
3.312435
3.312394
3.312394
3.312397
1.911851
3.388957
3.312459
3.31294
3.312958
3.312393
3.312407
3.312415
3.312417
3.312394
3.312394
3.312394
3.312396
3.312407
3.3124
3.312393
3.312394
3.312405
1.864524
3.389607
3.312515
3.315268
3.315254
3.312361
3.312426
3.31253
3.31245
3.31239
3.312394
3.312394
3.312401
3.312406
3.312425
3.312394
3.312395
3.312419
1.816236
3.390775
3.312786
3.324971
3.323987
3.312246
3.312473
3.313007
3.31262
3.312376
3.312394
3.312394
3.312408
3.312405
3.312396
3.312394
3.312398
3.312427
1.767671
3.393949
3.314057
3.340739
3.33277
3.312259
3.312562
3.313877
3.31312
3.312357
3.312394
3.312395
3.312413
3.312414
3.312415
3.312395
3.312408
3.312414
1.719432
3.402037
3.319827
3.332669
3.318616
3.313268
3.312636
3.313482
3.313141
3.312392
3.312395
3.312397
3.312442
3.312459
3.312415
3.3124
3.312429
3.312417
1.669773
3.416428
3.334095
3.330323
3.33149
3.31628
3.31277
3.312063
3.312133
3.312454
3.312401
3.312403
3.312495
3.31252
3.3124
3.312416
3.312443
3.312454
1.619437
3.425309
3.339482
3.364395
3.348714
3.324388
3.313362
3.312975
3.312851
3.312497
3.312419
3.312421
3.312476
3.312447
3.3124
3.312458
3.312448
3.312407
1.571305
3.423265
3.324456
3.358592
3.338376
3.326978
3.314289
3.312646
3.313843
3.312641
3.312489
3.312508
3.312463
3.312349
3.312412
3.312516
3.312516
3.312356
1.522455
3.46729
3.347511
3.328496
3.330484
3.310523
3.314665
3.31409
3.313661
3.313066
3.312864
3.312837
3.312701
3.312447
3.312474
3.312564
3.312609
3.312441
1.413009
3.551503
3.401299
3.376269
3.318549
3.318431
3.316267
3.316056
3.314738
3.315112
3.314541
3.313969
3.313444
3.312906
3.312741
3.312646
3.312641
3.312424
1.337227
3.624861
3.44585
3.371607
3.336086
3.323422
3.321804
3.321523
3.320727
3.319934
3.318953
3.31711
3.315976
3.314627
3.313709
3.313034
3.312591
3.312487
1.260067
3.736817
3.424696
3.343847
3.315954
3.328858
3.3265
3.327473
3.325876
3.326072
3.324913
3.322055
3.320876
3.318987
3.316292
3.314428
3.313314
3.31269
1.134466
3.654417
3.433983
3.350076
3.329204
3.33432
3.330249
3.330656
3.328509
3.329548
3.328172
3.325625
3.326132
3.323732
3.320418
3.317717
3.315035
3.313657
0.4481817
3.44477
3.464925
3.344297
3.348609
3.341894
3.334884
3.333892
3.331678
3.333048
3.32989
3.328184
3.328156
3.323875
3.323603
3.32203
3.318924
3.316295
0.5222068
3.39416
3.434199
3.344926
3.354541
3.345194
3.337424
3.337923
3.332683
3.335403
3.329999
3.328965
3.329878
3.324067
3.323561
3.322503
3.321557
3.319756
0.08045853
3.550964
3.415864
3.365719
3.360016
3.346198
3.33666
3.339948
3.333639
3.338676
3.331456
3.330036
3.328765
3.324762
3.323195
3.321831
3.320186
3.320587
0.3136873
3.197752
3.384441
3.3725
3.365288
3.353437
3.332585
3.338688
3.33664
3.338247
3.334184
3.333223
3.326045
3.323489
3.322636
3.319209
3.318287
3.318394
0.1495174
3.362895
3.426394
3.385004
3.356454
3.355292
3.333028
3.337466
3.339279
3.339054
3.334614
3.33175
3.325986
3.322863
3.32067
3.31611
3.315155
3.315789
0.277177
3.33732
3.434623
3.430555
3.369002
3.353823
3.336088
3.338815
3.337983
3.343808
3.332516
3.332198
3.326062
3.323656
3.31475
3.312231
3.312398
3.310898
0.2969817
3.218193
3.534436
3.378083
3.375461
3.347142
3.34495
3.338877
3.338378
3.334553
3.340394
3.328584
3.331486
3.318649
3.311537
3.309293
3.30663
3.308165
0.2801864
3.268613
3.561829
3.387566
3.365777
3.341865
3.345862
3.344662
3.353612
3.337596
3.336502
3.339926
3.3345
3.315864
3.312463
3.302111
3.304927
3.301765
0.2730371
3.133898
3.553252
3.437149
3.385573
3.366392
3.349093
3.364481
3.365791
3.348822
3.339937
3.34966
3.331346
3.307171
3.312708
3.301731
3.294302
3.298152
0.2679377
2.837482
3.584165
3.489674
3.416843
3.326038
3.363261
3.40752
3.388786
3.410651
3.36124
3.350644
3.335319
3.306056
3.316253
3.306138
3.293835
3.290906
0.2892634
2.094984
3.189298
3.583792
3.397387
3.363523
3.429119
3.485182
3.430486
3.398139
3.374747
3.339431
3.313318
3.308387
3.306946
3.314227
3.284385
3.289564
0.2632975
0.882167
2.781817
3.476429
3.394683
3.469854
3.580576
3.566153
3.495974
3.44802
3.434257
3.38672
3.33963
3.321598
3.301772
3.311993
3.284569
3.285597
0.2628616
0.5674318
3.312992
3.358933
3.907396
3.565249
3.480112
3.42531
3.348713
3.321756
3.29233
3.283429
3.284998
3.279966
0.2524287
0.3644376
3.508614
3.377303
3.382587
3.359791
3.296414
3.284379
3.277129
3.275221
0.2494961
3.412377
3.384171
3.369856
3.297972
3.289811
3.281051
3.270423
3.452372
3.351102
3.306238
3.284707
3.283716
3.268366
3.352225
3.296965
3.305854
3.27874
3.266415
3.330011
3.300159
3.312751
3.274036
3.265185
3.342417
3.324505
3.302522
3.269574
3.263863
3.323549
3.310046
3.301077
3.267077
3.263197
3.331299
3.318496
3.285527
3.269868
3.26447
3.330357
3.294633
3.270327
3.271414
3.265928
3.335638
3.31493
3.295472
3.264745
3.265664
3.267009
0.2512236
3.331052
3.29204
3.281372
3.264281
3.262783
3.268655
0.2504112
0.4242036
3.317196
3.304921
3.311923
3.272043
3.268366
3.268287
3.270412
0.25729
0.4259879
1.988569
3.325809
3.342096
3.31426
3.288282
3.307883
3.265834
3.269596
3.269436
3.270837
0.2620556
0.4780099
3.152537
3.519899
3.546384
3.402684
3.384439
3.334085
3.294184
3.312025
3.301499
3.299016
3.30132
3.282251
3.281762
3.271185
3.274276
3.272111
0.2961868
2.050962
3.648122
3.531302
3.419295
3.371728
3.311896
3.290988
3.308668
3.278404
3.302115
3.301799
3.294353
3.275322
3.276433
3.279333
3.272199
3.277761
0.2899372
2.68775
3.571525
3.52396
3.430408
3.316044
3.287742
3.292628
3.297329
3.287724
3.289498
3.315624
3.299029
3.27938
3.280795
3.274409
3.281835
3.278977
0.2461856
2.861074
3.456964
3.394316
3.399244
3.326355
3.291771
3.284536
3.277862
3.291331
3.282512
3.28379
3.28569
3.286655
3.276854
3.279661
3.286819
3.287287
0.2085872
2.912145
3.438793
3.356067
3.328135
3.325284
3.310841
3.289107
3.280345
3.282483
3.290486
3.287215
3.280409
3.283449
3.285855
3.28771
3.291562
3.293723
0.2025988
2.875969
3.487015
3.412743
3.307135
3.286912
3.324029
3.296255
3.288412
3.285813
3.292544
3.287182
3.29177
3.29271
3.290743
3.292852
3.300556
3.299793
0.2087744
2.771827
3.463369
3.386863
3.353108
3.316928
3.293341
3.291769
3.288061
3.292056
3.29269
3.29545
3.302811
3.292512
3.299196
3.299397
3.302668
3.306378
0.1607742
2.937838
3.390841
3.361315
3.342923
3.314967
3.308893
3.301238
3.294782
3.297735
3.297101
3.300695
3.312386
3.303373
3.306236
3.305635
3.306897
3.309994
0.3351458
2.949021
3.436245
3.375433
3.325638
3.314019
3.30502
3.30616
3.302373
3.304253
3.303953
3.30633
3.307987
3.310566
3.30741
3.309785
3.311234
3.312586
0.1053487
3.117066
3.412672
3.394302
3.338547
3.320784
3.312122
3.314091
3.310462
3.310886
3.310032
3.309367
3.309308
3.311627
3.309128
3.312536
3.313613
3.312067
0.1200086
3.297696
3.302451
3.3361
3.335074
3.332305
3.31294
3.32021
3.315181
3.315405
3.311378
3.312785
3.310487
3.311782
3.31176
3.312516
3.312989
3.31253
0.5280764
3.302708
3.338965
3.349576
3.351124
3.371074
3.315185
3.315318
3.314036
3.313942
3.312642
3.313829
3.312735
3.312145
3.311563
3.312127
3.312665
3.312376
0.9701497
3.38384
3.317774
3.369281
3.356953
3.354539
3.316451
3.314157
3.315127
3.312784
3.312598
3.312837
3.312711
3.312605
3.31205
3.312396
3.312445
3.312416
1.104569
3.420321
3.338606
3.332072
3.360323
3.301509
3.310349
3.313417
3.312971
3.313364
3.312445
3.312452
3.313123
3.312834
3.312045
3.31272
3.312545
3.312436
1.229126
3.360418
3.313031
3.338999
3.316301
3.325315
3.314228
3.314085
3.312936
3.312823
3.312349
3.31229
3.313072
3.312582
3.312247
3.312511
3.312521
3.31247
1.224352
3.429039
3.318955
3.326248
3.32423
3.312482
3.311532
3.311867
3.312688
3.312919
3.312545
3.312441
3.312529
3.312465
3.312384
3.312428
3.312462
3.312449
1.484333
3.381799
3.311481
3.31395
3.316794
3.315407
3.312639
3.311249
3.312825
3.312322
3.312449
3.312433
3.312343
3.312405
3.312398
3.312413
3.312367
3.312468
1.531716
3.404611
3.311342
3.31113
3.316188
3.308699
3.312533
3.312542
3.312136
3.312403
3.312418
3.312401
3.312323
3.312402
3.3124
3.312404
3.312349
3.312456
1.584283
3.400065
3.313019
3.321595
3.306768
3.309746
3.312376
3.312335
3.312104
3.312381
3.312399
3.312394
3.312363
3.312395
3.312444
3.312398
3.312386
3.312468
1.637342
3.398065
3.31364
3.315017
3.310389
3.312197
3.312409
3.312558
3.31226
3.312434
3.312396
3.312394
3.312387
3.312403
3.312443
3.312396
3.312396
3.312404
1.690093
3.397172
3.313138
3.314321
3.313033
3.312638
3.312406
3.312363
3.3124
3.312394
3.312394
3.312394
3.312395
3.312418
3.312414
3.312396
3.312396
3.312396
1.741145
3.395587
3.312866
3.313758
3.312614
3.312558
3.312399
3.312358
3.312394
3.312383
3.312394
3.312394
3.312395
3.312394
3.312397
3.312397
3.312395
3.312397
1.792632
3.394975
3.312759
3.312141
3.311961
3.312356
3.312396
3.312399
3.312384
3.312395
3.312394
3.312394
3.312394
3.312398
3.312406
3.312398
3.312394
3.312396
1.842984
3.394357
3.312691
3.312106
3.31219
3.312358
3.312396
3.312401
3.31239
3.312396
3.312394
3.312394
3.312394
3.312395
3.312396
3.312395
3.312394
3.312394
1.892024
3.394066
3.312651
3.312321
3.312362
3.312391
3.312398
3.312398
3.312393
3.312395
3.312394
3.312394
3.312394
3.312396
3.312396
3.312397
3.312394
3.312394
1.941136
3.39398
3.312629
3.312394
3.312409
3.312408
3.3124
3.312398
3.312395
3.312394
3.312394
3.312394
3.312394
3.312393
3.312396
3.312397
3.312394
3.312394
1.990362
3.393686
3.312623
3.31244
3.312452
3.312419
3.312401
3.312395
3.312394
3.312394
3.312394
3.312394
3.312394
3.312392
3.312395
3.312401
3.312394
3.312394
2.038906
3.393402
3.312684
3.312529
3.31252
3.312412
3.312398
3.312395
3.312394
3.312394
3.312394
3.312394
3.312394
3.312392
3.312399
3.312402
3.312394
3.312394
2.088014
3.393683
3.312872
3.312635
3.312463
3.312395
3.312395
3.312395
3.312395
3.312394
3.312394
3.312394
3.312394
3.312393
3.312401
3.312398
3.312394
3.312394
2.137555
3.394217
3.313079
3.312503
3.312335
3.312401
3.312399
3.312394
3.312394
3.312394
3.312394
3.312394
3.312394
3.312394
3.312401
3.312398
3.312394
3.312394
2.189138
3.395342
3.312761
3.312274
3.312455
3.312398
3.312393
3.312394
3.312395
3.312394
3.312394