/*--------------------------------*- C++ -*----------------------------------*\
| =========                 |                                                 |
| \\      /  F ield         | OpenFOAM: The Open Source CFD Toolbox           |
|  \\    /   O peration     | Version:  2206                                  |
|   \\  /    A nd           | Website:  www.openfoam.com                      |
|    \\/     M anipulation  |                                                 |
\*---------------------------------------------------------------------------*/
FoamFile
{
    version     2.0;
    format      ascii;
    arch        "LSB;label=32;scalar=64";
    class       volScalarField;
    location    "2.8";
    object      omega.b_0;
}
// * * * * * * * * * * * * * * * * * * * * * * * * * * * * * * * * * * * * * //

dimensions      [0 0 -1 0 0 0 0];

internalField   nonuniform List<scalar> 
13078
(
6.495683
0.3791149
0.2344716
0.2321143
0.2325787
0.2332307
0.2339956
6.57947
0.3590658
0.2334388
0.2319984
0.2325486
0.2332103
0.2339769
6.585492
0.3484247
0.2331261
0.2319213
0.2325052
0.2331801
0.2339519
6.591679
0.3442642
0.2329745
0.2318649
0.232463
0.233148
0.2339247
6.598133
0.3428164
0.2328971
0.2318325
0.232428
0.2331176
0.2338979
6.604802
0.3421543
0.2328571
0.2318116
0.2324103
0.233092
0.2338724
6.611848
0.3418657
0.2328541
0.231798
0.232398
0.2330807
0.2338504
6.619131
0.3417734
0.2328664
0.2317915
0.2323909
0.233073
0.2338424
6.626655
0.3417358
0.232862
0.2317895
0.2323872
0.233068
0.2338367
6.634488
0.3417809
0.2328622
0.2317893
0.2323852
0.2330646
0.2338325
6.642682
0.3418797
0.2328643
0.2317899
0.2323842
0.2330624
0.2338292
6.651186
0.3420165
0.2328673
0.2317907
0.2323839
0.2330608
0.2338267
6.660084
0.3421818
0.2328709
0.2317916
0.2323838
0.2330597
0.2338245
6.669375
0.342371
0.2328749
0.2317923
0.2323835
0.2330586
0.2338225
6.679072
0.3425791
0.2328804
0.23179
0.2323786
0.2330571
0.2338207
6.689206
0.3428043
0.2328865
0.2317869
0.232375
0.2330559
0.2338188
6.69983
0.3430437
0.2328913
0.231787
0.2323744
0.2330548
0.2338168
6.710875
0.3432965
0.2328964
0.2317872
0.232374
0.2330537
0.2338148
6.722538
0.3435643
0.2329018
0.2317875
0.2323733
0.2330521
0.2338127
6.734686
0.3438446
0.2329074
0.2317873
0.2323677
0.2330434
0.2338098
6.747501
0.3441402
0.2329134
0.2317871
0.2323608
0.2330367
0.2338068
6.760848
0.3444501
0.2329199
0.2317874
0.2323594
0.2330346
0.2338042
6.774919
0.3447761
0.2329267
0.2317877
0.2323584
0.2330325
0.2338007
6.789678
0.3451202
0.2329342
0.231788
0.2323568
0.2330233
0.2337873
6.805169
0.3454842
0.2329424
0.2317884
0.2323553
0.2330116
0.2337766
6.821431
0.3458711
0.2329515
0.2317891
0.2323544
0.2330082
0.233772
6.838694
0.3462753
0.2329618
0.23179
0.2323535
0.2330055
0.2337681
6.860782
0.3467672
0.2329752
0.2317914
0.2323526
0.2330015
0.2337528
6.889512
0.3471776
0.2329868
0.231793
0.232352
0.2329978
0.233732
6.964901
0.3486207
0.2330247
0.2317955
0.2323518
0.2329958
0.2337274
7.077898
0.3499692
0.2330246
0.2317973
0.2323519
0.2329934
0.2337198
7.116328
0.352462
0.2330225
0.2317973
0.2323513
0.2329917
0.2337146
7.153721
0.3556348
0.2331489
0.2318031
0.2323481
0.2329892
0.2337115
7.186841
0.3566463
0.2332241
0.2318097
0.2323422
0.2329801
0.2337033
7.221337
0.3576527
0.2332496
0.2317967
0.232348
0.2329568
0.2336836
7.257501
0.3587069
0.2332717
0.2317445
0.2323041
0.2329413
0.2336554
7.2953
0.3597542
0.2332696
0.2316993
0.2322144
0.2329158
0.233644
7.335032
0.3607907
0.2332408
0.2316369
0.2321546
0.232863
0.2336817
7.385166
0.3618795
0.2332038
0.2315673
0.2320953
0.2327795
0.2337367
7.498022
0.3645828
0.2331883
0.2314841
0.2320445
0.2327567
0.2337658
7.673721
0.36946
0.233095
0.2313943
0.2319656
0.2326961
0.2336716
7.748892
0.374847
0.2331657
0.2312427
0.2318247
0.232634
0.2338341
7.810543
0.3775576
0.233151
0.2310478
0.2317061
0.2327644
0.2341416
7.878359
0.3803295
0.2330272
0.2308817
0.2317903
0.2330504
0.2344361
7.986776
0.3843756
0.2329818
0.2309609
0.2320133
0.2332801
0.2345931
8.166374
0.3898448
0.2330965
0.2312211
0.2322607
0.2334187
0.234687
8.255056
0.3964055
0.2335525
0.2314629
0.2324153
0.2334946
0.234667
8.326848
0.4004071
0.2338768
0.2316168
0.2324873
0.2334972
0.234649
8.397583
0.4043808
0.234108
0.2316778
0.2324896
0.2334721
0.2345772
8.469926
0.4078199
0.2342333
0.2316861
0.2324731
0.2334004
0.2344071
8.578296
0.4143842
0.2343363
0.2316731
0.232428
0.2333147
0.2342732
8.842739
0.4243773
0.2346713
0.2318146
0.2325432
0.2333701
0.2342513
8.950251
0.428439
0.2349345
0.2316551
0.2324023
0.233315
0.2342394
9.0019
0.4294279
0.2348867
0.2316049
0.2323879
0.233337
0.2341491
9.03112
0.4296885
0.2348481
0.2316071
0.2324204
0.2333429
0.2341106
9.04305
0.4301917
0.234809
0.2315518
0.2323527
0.2332231
0.2340069
9.041587
0.4285292
0.2346455
0.2314229
0.2322095
0.2330692
0.2338115
9.029222
0.4250329
0.2345754
0.2315203
0.2322676
0.2330972
0.2338248
8.99992
0.4220303
0.2345268
0.2315736
0.2322636
0.2330583
0.2337349
8.946949
0.4182524
0.2343686
0.2315283
0.2321545
0.2328865
0.2336348
8.838745
0.4119819
0.2339643
0.2315602
0.2322263
0.2329847
0.2337465
8.574495
0.4012943
0.2337169
0.2316396
0.2322701
0.2329993
0.2337526
8.4677
0.3936679
0.2335705
0.2315755
0.2322026
0.2329289
0.2337247
8.396207
0.3900451
0.2334001
0.2315105
0.2321012
0.232899
0.2338736
8.326723
0.386894
0.2331944
0.2314338
0.2321935
0.2330827
0.234049
8.255056
0.3848772
0.2330314
0.231433
0.2322821
0.233092
0.2339954
8.166374
0.3807585
0.2328437
0.2313262
0.2322009
0.2331045
0.2341801
7.986776
0.3772098
0.2328932
0.2311966
0.2321023
0.233213
0.2342213
7.878358
0.3749755
0.2330107
0.2312003
0.232066
0.2331318
0.2341775
7.810543
0.3737224
0.2331581
0.2313426
0.2320337
0.2329508
0.2341393
7.749106
0.3723097
0.233231
0.2314729
0.2320683
0.2329332
0.2340118
7.678124
0.3688367
0.233207
0.2315522
0.2321574
0.2329161
0.2338493
7.535471
0.3655576
0.2332729
0.2316259
0.2321902
0.2328824
0.2338839
7.439012
0.3638459
0.2333083
0.2316772
0.2321966
0.2328676
0.233806
7.388639
0.3630369
0.233332
0.2317194
0.2322295
0.2329333
0.2337164
7.344496
0.3615101
0.2333213
0.2317544
0.2322931
0.2329694
0.2336686
7.300795
0.3601281
0.2333125
0.2317765
0.2323475
0.2329644
0.2336844
7.237691
0.3589328
0.233291
0.2318087
0.2323589
0.2329777
0.2337035
7.19073
0.3577759
0.2332607
0.2318128
0.2323494
0.2329888
0.2337117
7.154754
0.3568225
0.2331865
0.2318037
0.2323507
0.2329921
0.2337144
7.116392
0.3536241
0.2330585
0.2317982
0.2323519
0.2329927
0.2337162
7.077898
0.3511013
0.2330636
0.2317972
0.2323516
0.2329938
0.2337207
6.964901
0.3496397
0.2330625
0.231795
0.2323512
0.2329957
0.2337274
6.889512
0.3481778
0.2330228
0.2317924
0.2323511
0.2329975
0.2337319
6.860782
0.3476909
0.2330089
0.2317906
0.2323516
0.2330008
0.2337519
6.838694
0.3471204
0.2329928
0.2317894
0.2323524
0.2330045
0.2337668
6.821431
0.3466347
0.2329798
0.2317885
0.2323533
0.2330072
0.2337708
6.805169
0.3461686
0.2329679
0.2317879
0.2323542
0.2330106
0.2337754
6.789678
0.3457297
0.2329571
0.2317874
0.2323558
0.2330223
0.2337862
6.774919
0.345316
0.2329471
0.2317871
0.2323575
0.2330314
0.2337997
6.760848
0.3449262
0.2329379
0.231787
0.2323585
0.2330337
0.2338032
6.747501
0.3445584
0.2329294
0.2317868
0.2323601
0.2330359
0.2338059
6.734686
0.3442103
0.2329215
0.2317871
0.2323672
0.2330428
0.233809
6.722538
0.3438825
0.2329142
0.2317874
0.2323729
0.2330516
0.2338121
6.710875
0.3435717
0.2329073
0.2317873
0.2323736
0.2330533
0.2338142
6.69983
0.3432796
0.2329008
0.2317871
0.2323742
0.2330544
0.2338162
6.689206
0.3430039
0.2328948
0.2317872
0.2323749
0.2330555
0.2338182
6.679072
0.3427445
0.2328876
0.2317905
0.2323786
0.2330569
0.2338202
6.669375
0.3425031
0.232881
0.2317929
0.2323836
0.2330584
0.233822
6.660084
0.3422804
0.2328761
0.2317923
0.2323839
0.2330593
0.2338238
6.651186
0.3420793
0.2328713
0.2317915
0.2323839
0.2330602
0.2338256
6.642682
0.3419019
0.2328671
0.2317907
0.232384
0.2330614
0.2338277
6.634488
0.341754
0.2328635
0.2317898
0.2323844
0.2330629
0.2338302
6.626655
0.3416451
0.2328611
0.2317893
0.2323853
0.233065
0.2338333
6.619131
0.3415941
0.2328618
0.2317895
0.2323871
0.2330683
0.2338376
6.611848
0.341557
0.2328432
0.2317928
0.2323911
0.2330734
0.2338437
6.604802
0.3416444
0.2328349
0.2318003
0.2323984
0.2330812
0.2338633
6.598133
0.3419606
0.2328542
0.2318111
0.2324096
0.2331027
0.2338864
6.591679
0.342582
0.232893
0.2318301
0.2324367
0.2331291
0.2339116
6.585492
0.3440736
0.232961
0.2318706
0.2324721
0.2331589
0.2339385
6.57947
0.3472034
0.233042
0.2319267
0.2325133
0.2331909
0.2339659
6.495683
0.3514251
0.2332671
0.2319994
0.2325598
0.2332235
0.2339925
0.2349034
0.2360467
0.2375725
0.2390391
0.2416556
0.24586
0.2527015
0.2348829
0.2360209
0.2375387
0.2390003
0.2416071
0.2458114
0.2680392
0.2348588
0.2359934
0.237506
0.2395023
0.2415658
0.2457436
0.2678545
0.2348331
0.2359652
0.2374705
0.2389201
0.2415119
0.2456756
0.2675734
0.2348074
0.2359365
0.2374366
0.2388746
0.2414628
0.2456078
0.2671415
0.2347823
0.2359077
0.2374015
0.2388328
0.2414149
0.2455408
0.2665679
0.2347582
0.2358795
0.2373669
0.2387928
0.2414014
0.2454751
0.2659607
0.2347369
0.235852
0.237333
0.2387538
0.241389
0.2454101
0.2652222
0.2347301
0.2358271
0.2373007
0.2387143
0.2413508
0.24535
0.2644988
0.2347252
0.2358201
0.237271
0.2386752
0.2413132
0.2452903
0.2636732
0.2347211
0.2358148
0.2372628
0.2386376
0.2412761
0.245231
0.2628137
0.2347175
0.2358099
0.2372565
0.2386293
0.2412388
0.2451715
0.2618432
0.2347143
0.2358052
0.2372503
0.2386218
0.2412324
0.2451107
0.260917
0.2347113
0.2358007
0.237244
0.2386142
0.2412253
0.2450993
0.2600875
0.2347083
0.235796
0.2372376
0.2386063
0.2412178
0.2450847
0.2599488
0.2347053
0.2357913
0.237231
0.2385982
0.2412097
0.2450687
0.258879
0.2347022
0.2357864
0.2372242
0.2385894
0.2411974
0.2450527
0.2583734
0.234699
0.2357815
0.237217
0.2385762
0.2410838
0.2450355
0.2578425
0.2346957
0.2357765
0.2372096
0.2385665
0.241068
0.2450181
0.2573866
0.2346921
0.2357713
0.2372018
0.2385565
0.2410555
0.2449996
0.256902
0.2346885
0.2357658
0.2371937
0.238546
0.2410424
0.2449803
0.2564236
0.2346845
0.23576
0.2371852
0.2385349
0.2410287
0.2449606
0.2560561
0.2346803
0.2357538
0.2371752
0.238527
0.2410113
0.2449403
0.2557308
0.2346746
0.2357472
0.237167
0.2390246
0.2409095
0.2449095
0.255435
0.2346688
0.2357402
0.2371547
0.2385055
0.2408524
0.2448842
0.255183
0.2346634
0.2357329
0.2371473
0.2384848
0.2408308
0.2448602
0.2549401
0.2346557
0.2357238
0.2371335
0.2384682
0.2408098
0.2448314
0.2547336
0.2346335
0.2357126
0.2371303
0.2384522
0.2407799
0.2445997
0.2545428
0.2346183
0.2354212
0.2367303
0.2384416
0.2407528
0.2445125
0.254384
0.2346227
0.2354178
0.2367135
0.2384172
0.240727
0.2444782
0.254258
0.2345816
0.2353928
0.2367005
0.2383984
0.2407004
0.2443222
0.2541413
0.2345538
0.2353393
0.2366861
0.2383783
0.2406716
0.244147
0.2540284
0.2345497
0.2353371
0.2366613
0.2383591
0.240644
0.2441126
0.2538868
0.2345407
0.2353201
0.2366268
0.2383453
0.2406248
0.2440475
0.2527217
0.2345303
0.2353261
0.2366311
0.2383511
0.2406545
0.2440166
0.2528639
0.2345408
0.2353436
0.2365794
0.2384583
0.2407867
0.243952
0.249806
0.2345987
0.2354092
0.2367432
0.2386278
0.2409486
0.243922
0.2503134
0.2346987
0.2355619
0.2369669
0.2387817
0.2411281
0.2443793
0.2508854
0.2348402
0.2357742
0.237198
0.2389716
0.2417182
0.2452893
0.2510579
0.2349388
0.23603
0.2375933
0.2398001
0.2425178
0.2461181
0.2511386
0.2351874
0.2364868
0.2383597
0.2407114
0.2431488
0.2465665
0.2526309
0.2354214
0.2368533
0.239002
0.2413162
0.2436511
0.2464112
0.2523743
0.2357841
0.2372635
0.2393618
0.2415906
0.2439053
0.2465367
0.252774
0.2360519
0.2375953
0.2397221
0.2417845
0.2439157
0.2468715
0.2526481
0.2362088
0.2377942
0.2396762
0.2418176
0.2439861
0.2469287
0.2523039
0.2361832
0.2377454
0.2396709
0.2416887
0.2438789
0.246327
0.2518999
0.2360752
0.237741
0.2396086
0.2415137
0.2432526
0.2459958
0.2502607
0.2360125
0.2375818
0.2394686
0.241165
0.2430967
0.2451564
0.2487337
0.2358409
0.2373348
0.2392561
0.24111
0.2427079
0.2450224
0.2475965
0.2356878
0.2371166
0.2391517
0.2409922
0.2426016
0.2444883
0.2471291
0.2356094
0.2367648
0.2387068
0.2405301
0.2422896
0.2439596
0.2463969
0.2354437
0.2365146
0.2382963
0.2398849
0.24154
0.243307
0.2457727
0.2352854
0.2362855
0.2380391
0.2395691
0.2408882
0.2424726
0.2446065
0.2353041
0.2364029
0.238063
0.2392565
0.2402923
0.2412839
0.2431819
0.2352061
0.2363756
0.2379054
0.2390671
0.2398067
0.2399561
0.2418971
0.235027
0.2363163
0.2378176
0.2387769
0.2392991
0.239621
0.234856
0.2361777
0.2374376
0.2384386
0.2390186
0.2393167
0.2349039
0.236187
0.2374857
0.2384811
0.2391343
0.2396824
0.2348069
0.2359992
0.2373214
0.2384117
0.239346
0.2399989
0.2414745
0.2346825
0.2357386
0.2373141
0.2386705
0.2397093
0.2411944
0.2433902
0.2348299
0.2358299
0.2372848
0.2388081
0.2400695
0.2416189
0.243699
0.2348543
0.2358996
0.2374009
0.2387598
0.2403446
0.24179
0.2440521
0.2348101
0.2358012
0.237755
0.2390803
0.2402855
0.2420809
0.2445931
0.2350806
0.2361317
0.2376757
0.2390741
0.2405874
0.2422521
0.2446679
0.2352261
0.2361326
0.2379304
0.2393667
0.2407538
0.2420926
0.2457537
0.2353342
0.2364406
0.2380173
0.2396249
0.2409765
0.2425939
0.2465613
0.2354545
0.2364487
0.2381752
0.2397435
0.2413525
0.2433049
0.2479406
0.2354914
0.2367106
0.2383264
0.2398439
0.241639
0.2440231
0.2485485
0.2354986
0.2367058
0.23831
0.240038
0.2417606
0.2442617
0.2489339
0.235493
0.2366782
0.2383836
0.2399479
0.2420797
0.2443161
0.2496363
0.2353926
0.2366262
0.2381505
0.2400938
0.2420791
0.2442832
0.2497611
0.2352908
0.2366151
0.2380507
0.2401891
0.2420319
0.2446685
0.2502866
0.235064
0.2362939
0.2376829
0.2396963
0.2418311
0.2449416
0.25015
0.2347905
0.2359701
0.2372099
0.2390272
0.2417099
0.2448694
0.2495566
0.2346271
0.2356749
0.236869
0.2385429
0.2411173
0.2443382
0.2500511
0.2345559
0.2354869
0.2366457
0.2385718
0.2407738
0.2438343
0.2504826
0.2345356
0.2354012
0.2365385
0.2383451
0.2406426
0.2438113
0.2506223
0.2345389
0.2353691
0.2365315
0.238306
0.2405864
0.2439198
0.2527671
0.234546
0.2353437
0.2366181
0.2383302
0.2405931
0.243986
0.2528952
0.2345516
0.2353741
0.2366549
0.238348
0.2406201
0.2440627
0.2528253
0.234555
0.2353837
0.2366728
0.2383671
0.2406504
0.2441011
0.2535643
0.2345816
0.2353842
0.236693
0.2383867
0.2406801
0.2441641
0.2537367
0.2346208
0.2354324
0.2367061
0.2384056
0.2407088
0.244456
0.2539213
0.2346171
0.2354604
0.2367191
0.2384219
0.2407346
0.2444819
0.2541139
0.2346326
0.2357114
0.2371265
0.2384535
0.2407597
0.2445184
0.2543197
0.2346548
0.2357221
0.2371307
0.2384701
0.2407914
0.2447299
0.2545636
0.2346622
0.235731
0.2371427
0.2384831
0.2408152
0.2448369
0.2548241
0.2346676
0.2357385
0.2371536
0.2384958
0.2408366
0.2448624
0.2550891
0.2346734
0.2357456
0.237164
0.2385082
0.2408589
0.2448865
0.2553947
0.2346791
0.2357522
0.2371737
0.2385203
0.2409722
0.2449178
0.2557038
0.2346833
0.2357584
0.237183
0.238532
0.2410176
0.2449427
0.2560379
0.2346873
0.2357644
0.2371917
0.2385429
0.241032
0.2449633
0.2564195
0.2346912
0.23577
0.2372
0.2385536
0.2410458
0.2449833
0.2568314
0.2346948
0.2357753
0.2372079
0.2385636
0.2410587
0.2450024
0.2572902
0.2346982
0.2357803
0.2372154
0.2385733
0.2410711
0.2450209
0.2577903
0.2347014
0.2357853
0.2372227
0.2385852
0.2411308
0.2450388
0.2583098
0.2347045
0.2357903
0.2372296
0.2385958
0.241203
0.2450559
0.2588568
0.2347075
0.235795
0.2372362
0.2386043
0.2412114
0.2450723
0.2595423
0.2347104
0.2357995
0.2372425
0.2386126
0.2412193
0.245088
0.2600029
0.2347133
0.2358039
0.2372487
0.2386205
0.2412268
0.2451017
0.2604527
0.2347161
0.2358082
0.2372547
0.2386283
0.241234
0.2451382
0.2612935
0.2347192
0.2358128
0.2372607
0.238636
0.2412556
0.2451979
0.2621492
0.2347226
0.2358175
0.2372685
0.2386589
0.2412925
0.2452577
0.2630316
0.2347267
0.2358239
0.2372978
0.2386978
0.2413299
0.2453176
0.2638743
0.2347324
0.2358479
0.2373294
0.2387372
0.2413675
0.2453776
0.2646135
0.2347523
0.2358745
0.2373627
0.2387772
0.2414039
0.2454402
0.2653171
0.2347749
0.2359018
0.2373968
0.2388155
0.2413906
0.245506
0.2659829
0.2347988
0.23593
0.2374315
0.2388564
0.2414369
0.2455725
0.2665504
0.234824
0.235959
0.2374667
0.2388974
0.2414852
0.2456401
0.2669852
0.2348503
0.2359882
0.2375019
0.2389385
0.2415337
0.2457081
0.2672877
0.2348765
0.2360171
0.2375369
0.2389791
0.2415824
0.2457765
0.2674673
0.2349019
0.2360458
0.2375718
0.2390192
0.2416311
0.2458415
0.2626566
3.111067
3.345687
3.314284
3.314383
3.314385
3.314384
3.314384
3.314384
3.314384
3.314384
3.314384
3.314384
3.314384
3.314384
3.314384
3.314384
3.314384
3.314384
2.929945
3.371943
3.314765
3.314396
3.314385
3.314382
3.314382
3.314382
3.314382
3.314382
3.314382
3.314382
3.314382
3.314382
3.314382
3.314382
3.314382
3.314382
2.920992
3.353302
3.313837
3.314365
3.314385
3.314383
3.314383
3.314383
3.314383
3.314383
3.314383
3.314383
3.314383
3.314383
3.314383
3.314383
3.314383
3.314383
2.894502
3.357656
3.314383
3.314377
3.314386
3.314384
3.314384
3.314384
3.314384
3.314384
3.314384
3.314384
3.314384
3.314384
3.314384
3.314384
3.314384
3.314384
2.864189
3.36873
3.314667
3.314385
3.314386
3.314383
3.314383
3.314383
3.314383
3.314383
3.314383
3.314383
3.314383
3.314383
3.314383
3.314383
3.314383
3.314383
2.832465
3.368529
3.314534
3.314385
3.314386
3.314383
3.314383
3.314383
3.314383
3.314383
3.314383
3.314383
3.314383
3.314383
3.314383
3.314383
3.314383
3.314383
2.798589
3.367745
3.314434
3.314384
3.314386
3.314383
3.314383
3.314383
3.314383
3.314383
3.314383
3.314383
3.314383
3.314383
3.314383
3.314383
3.314383
3.314383
2.762868
3.368094
3.314409
3.314384
3.314385
3.314383
3.314383
3.314383
3.314383
3.314383
3.314383
3.314383
3.314383
3.314383
3.314383
3.314383
3.314383
3.314383
2.72851
3.368168
3.314411
3.314385
3.314384
3.314383
3.314383
3.314383
3.314383
3.314383
3.314383
3.314383
3.314383
3.314383
3.314384
3.314384
3.314383
3.314383
2.69126
3.368045
3.314442
3.314387
3.314384
3.314384
3.314383
3.314383
3.314383
3.314383
3.314383
3.314383
3.314383
3.314383
3.314384
3.314384
3.314383
3.314383
2.652292
3.370713
3.314556
3.314396
3.314384
3.314384
3.314383
3.314383
3.314383
3.314383
3.314383
3.314383
3.314383
3.314383
3.314384
3.314384
3.314383
3.314383
2.616886
3.377073
3.314774
3.314432
3.314386
3.314384
3.314384
3.314383
3.314383
3.314383
3.314383
3.314383
3.314383
3.314383
3.314385
3.314384
3.314383
3.314383
2.581346
3.378487
3.314755
3.314511
3.314396
3.314385
3.314384
3.314383
3.314383
3.314383
3.314383
3.314383
3.314383
3.314383
3.314385
3.314385
3.314383
3.314383
2.52173
3.378838
3.314335
3.314522
3.314417
3.314385
3.314384
3.314383
3.314383
3.314383
3.314383
3.314383
3.314383
3.314383
3.314386
3.314385
3.314383
3.314383
2.41578
3.381533
3.314371
3.314379
3.314426
3.314388
3.314384
3.314383
3.314383
3.314383
3.314383
3.314383
3.314383
3.314383
3.314386
3.314385
3.314383
3.314383
2.357518
3.382905
3.314441
3.314389
3.314396
3.314393
3.314384
3.314384
3.314383
3.314383
3.314383
3.314383
3.314383
3.314383
3.314385
3.314384
3.314383
3.314383
2.307431
3.384551
3.314407
3.314399
3.314381
3.314393
3.314385
3.314384
3.314384
3.314383
3.314383
3.314383
3.314383
3.314383
3.314383
3.314383
3.314383
3.314383
2.25562
3.383214
3.314374
3.314386
3.314409
3.314383
3.314387
3.314384
3.314385
3.314383
3.314383
3.314383
3.314383
3.314384
3.314383
3.314383
3.314383
3.314383
2.203527
3.38628
3.314486
3.314375
3.314391
3.314387
3.314383
3.314385
3.314385
3.314383
3.314383
3.314383
3.314383
3.314384
3.314383
3.314383
3.314383
3.314383
2.151964
3.387171
3.314339
3.314417
3.314417
3.314385
3.314384
3.314383
3.314386
3.314383
3.314383
3.314383
3.314383
3.314384
3.314384
3.314383
3.314383
3.314383
2.102415
3.387633
3.314282
3.314364
3.31441
3.314384
3.314385
3.314383
3.314386
3.314383
3.314383
3.314383
3.314383
3.314386
3.314388
3.314383
3.314383
3.314383
2.054128
3.388429
3.314348
3.314365
3.314447
3.314382
3.314384
3.314383
3.314387
3.314383
3.314383
3.314383
3.314383
3.314395
3.314402
3.314383
3.314383
3.314383
2.007393
3.389262
3.314399
3.314416
3.314462
3.314384
3.314384
3.314384
3.314391
3.314383
3.314383
3.314383
3.314383
3.314409
3.314431
3.314383
3.314383
3.314383
1.960256
3.389963
3.314425
3.314508
3.314534
3.314384
3.314389
3.314386
3.314396
3.314383
3.314383
3.314383
3.314383
3.314408
3.314424
3.314382
3.314383
3.314386
1.913264
3.390752
3.314447
3.31491
3.31493
3.314382
3.314395
3.314403
3.314406
3.314382
3.314383
3.314383
3.314385
3.314396
3.314389
3.314382
3.314383
3.314394
1.865902
3.3914
3.314501
3.317169
3.317158
3.314351
3.314414
3.314515
3.314438
3.314379
3.314383
3.314383
3.314389
3.314395
3.314414
3.314382
3.314384
3.314408
1.817578
3.392554
3.314763
3.326688
3.325758
3.314237
3.31446
3.314982
3.314603
3.314365
3.314383
3.314383
3.314397
3.314393
3.314385
3.314383
3.314386
3.314416
1.768977
3.395672
3.315994
3.342557
3.334782
3.314243
3.314548
3.315855
3.315099
3.314345
3.314383
3.314383
3.314402
3.314402
3.314403
3.314384
3.314396
3.314402
1.720701
3.403654
3.321612
3.334906
3.320798
3.315227
3.314623
3.315495
3.315142
3.31438
3.314384
3.314385
3.31443
3.314446
3.314403
3.314388
3.314417
3.314405
1.671005
3.418018
3.335761
3.331915
3.332981
3.31819
3.314752
3.314055
3.314127
3.314442
3.314389
3.314391
3.314483
3.314508
3.314389
3.314404
3.314432
3.314442
1.620625
3.427146
3.341486
3.366079
3.35082
3.326244
3.315334
3.314953
3.314819
3.314485
3.314407
3.314409
3.314465
3.314438
3.314389
3.314445
3.314436
3.314396
1.572445
3.424881
3.326471
3.36101
3.34042
3.329178
3.316257
3.314635
3.315821
3.314628
3.314475
3.314494
3.31445
3.314336
3.3144
3.314503
3.314502
3.314345
1.52357
3.467871
3.348685
3.330349
3.332803
3.312605
3.316649
3.316045
3.315663
3.315036
3.314838
3.314815
3.314682
3.314433
3.31446
3.314552
3.314596
3.314429
1.414217
3.552316
3.402297
3.377474
3.320366
3.320234
3.318194
3.317981
3.316656
3.317045
3.316479
3.315924
3.315407
3.314878
3.31472
3.314632
3.31463
3.314414
1.338124
3.625323
3.447538
3.374089
3.338125
3.325392
3.323712
3.323422
3.322626
3.321826
3.320847
3.319029
3.317902
3.316566
3.31567
3.315008
3.314577
3.314474
1.260943
3.738239
3.427153
3.346108
3.318063
3.330796
3.328446
3.329389
3.327815
3.327988
3.326826
3.323978
3.32277
3.320886
3.318224
3.316381
3.315282
3.31467
1.135295
3.658552
3.435195
3.352069
3.331115
3.33617
3.332181
3.332631
3.33047
3.331491
3.33014
3.327579
3.328083
3.325686
3.322345
3.319628
3.316975
3.315615
0.4488997
3.447171
3.467934
3.34646
3.35022
3.343802
3.336857
3.335856
3.333659
3.335015
3.331898
3.330154
3.330124
3.325895
3.325576
3.323977
3.32085
3.318226
0.523474
3.39289
3.435984
3.346595
3.35644
3.347234
3.339435
3.339884
3.334724
3.337386
3.332051
3.331006
3.331908
3.326059
3.325573
3.324519
3.323553
3.321706
0.08126297
3.553272
3.419156
3.367338
3.361877
3.348199
3.338762
3.342006
3.335687
3.340715
3.333514
3.33208
3.33087
3.326853
3.325238
3.323888
3.322226
3.322603
0.3142066
3.199493
3.386383
3.374314
3.367383
3.355234
3.334715
3.340795
3.338654
3.340372
3.33625
3.335352
3.328149
3.325616
3.324759
3.321317
3.320383
3.320442
0.1496788
3.366725
3.427978
3.386633
3.358511
3.357319
3.335065
3.339517
3.341359
3.341128
3.336863
3.333925
3.328187
3.324981
3.322823
3.318303
3.317296
3.317917
0.2776669
3.339248
3.435968
3.432445
3.370832
3.355879
3.338096
3.340902
3.340098
3.345881
3.33473
3.334421
3.328202
3.325929
3.316962
3.31444
3.314632
3.313077
0.2974802
3.220593
3.53552
3.380847
3.377648
3.349225
3.346945
3.340901
3.340419
3.33684
3.342358
3.330705
3.333551
3.320935
3.313741
3.311599
3.30889
3.310408
0.2807359
3.272425
3.563653
3.388473
3.367542
3.34394
3.347802
3.346556
3.355388
3.339587
3.338777
3.341868
3.33683
3.318143
3.314746
3.304441
3.307316
3.304058
0.2735496
3.138162
3.555518
3.439469
3.38731
3.368442
3.350931
3.366132
3.367838
3.350575
3.341964
3.351889
3.333269
3.309745
3.314902
3.303966
3.296665
3.300552
0.268189
2.843371
3.5869
3.490126
3.41876
3.327935
3.364788
3.409063
3.390344
3.412605
3.363077
3.353207
3.337569
3.308392
3.318837
3.308119
3.296256
3.293266
0.2897679
2.099764
3.195731
3.585974
3.399681
3.365115
3.429853
3.486745
3.432006
3.399966
3.376797
3.34154
3.315775
3.310406
3.309291
3.316517
3.286776
3.292013
0.2634271
0.8852219
2.783752
3.479339
3.396123
3.469403
3.579257
3.565726
3.49619
3.449191
3.435625
3.387706
3.341578
3.323987
3.3045
3.314611
3.286931
3.287898
0.2631016
0.5703595
3.3081
3.359967
3.90372
3.565104
3.481878
3.428083
3.351056
3.323587
3.29483
3.285794
3.287405
3.282542
0.2526959
0.3682669
3.51066
3.380582
3.385258
3.361184
3.298297
3.286885
3.279384
3.277605
0.2497147
3.413304
3.385513
3.372148
3.300829
3.292151
3.283465
3.272903
3.454538
3.354027
3.30887
3.28687
3.286169
3.270851
3.355349
3.298445
3.307901
3.281011
3.268798
3.33165
3.302429
3.31481
3.276422
3.26768
3.343386
3.32631
3.305202
3.271858
3.266256
3.326263
3.313156
3.303212
3.269425
3.26558
3.334516
3.319668
3.287766
3.272194
3.266846
3.331898
3.297755
3.272701
3.273791
3.26823
3.337271
3.318362
3.297486
3.266703
3.26795
3.269321
0.2514502
3.333863
3.293479
3.283853
3.266771
3.265161
3.271009
0.2506268
0.42555
3.319553
3.30647
3.314384
3.273804
3.270529
3.270664
3.27258
0.2575674
0.4281672
1.990654
3.328282
3.343944
3.316567
3.290285
3.310122
3.26807
3.271873
3.271752
3.273075
0.2622468
0.4808565
3.15494
3.522245
3.548107
3.404727
3.386068
3.336084
3.295621
3.313848
3.303667
3.300884
3.303478
3.283946
3.284151
3.273462
3.276439
3.274356
0.2967112
2.055777
3.65081
3.532453
3.42102
3.373056
3.313752
3.292581
3.311203
3.280118
3.304311
3.304361
3.296416
3.277683
3.278671
3.281365
3.274602
3.279757
0.2905667
2.69134
3.57378
3.526178
3.432138
3.317687
3.289588
3.294269
3.299275
3.289426
3.291445
3.317538
3.301015
3.281397
3.282645
3.276841
3.2837
3.28129
0.2463402
2.865736
3.457966
3.396343
3.401358
3.32803
3.293827
3.286381
3.279929
3.293307
3.284531
3.285706
3.287528
3.288592
3.279162
3.281502
3.289174
3.289141
0.2089373
2.915913
3.44038
3.356912
3.329795
3.327344
3.312378
3.290857
3.282218
3.284414
3.292519
3.289395
3.282445
3.285504
3.287747
3.289981
3.29341
3.295947
0.2028775
2.879856
3.489134
3.414308
3.308814
3.2889
3.325842
3.298111
3.290342
3.287749
3.294465
3.289252
3.293806
3.294742
3.292838
3.294881
3.302601
3.301775
0.2090449
2.77385
3.464751
3.38859
3.354578
3.318639
3.295394
3.293733
3.289985
3.294022
3.294487
3.297477
3.304792
3.294488
3.301201
3.301356
3.304666
3.308443
0.1609471
2.93754
3.393399
3.362571
3.344535
3.316695
3.310664
3.303084
3.296706
3.299661
3.299022
3.302623
3.314314
3.305364
3.30827
3.307677
3.308967
3.311986
0.3355701
2.954223
3.43745
3.377067
3.327411
3.316047
3.306957
3.308037
3.304306
3.30619
3.305917
3.308289
3.309896
3.312562
3.309406
3.3118
3.313237
3.314566
0.1059538
3.117854
3.416166
3.396104
3.340211
3.322545
3.31406
3.31595
3.31238
3.3128
3.312033
3.311372
3.311356
3.313604
3.311116
3.314505
3.315614
3.314057
0.1210188
3.300645
3.305132
3.339082
3.336975
3.333726
3.314866
3.322104
3.317182
3.317361
3.313385
3.314779
3.312459
3.313731
3.313762
3.314508
3.314967
3.314517
0.5296939
3.30287
3.340097
3.350379
3.35286
3.372416
3.317036
3.317441
3.316028
3.315984
3.314619
3.315774
3.31473
3.31416
3.313561
3.314109
3.314648
3.314364
0.970582
3.385493
3.319675
3.371609
3.35874
3.357338
3.318473
3.316075
3.31713
3.31475
3.314596
3.314819
3.3147
3.314583
3.314039
3.314395
3.314434
3.314407
1.105294
3.423876
3.341073
3.334526
3.362635
3.303366
3.312357
3.315448
3.314971
3.315351
3.314424
3.314435
3.315111
3.314826
3.314036
3.31471
3.314536
3.314425
1.229851
3.362702
3.315019
3.340357
3.318256
3.327221
3.316197
3.316054
3.314915
3.314806
3.314342
3.314281
3.315054
3.314565
3.314238
3.314498
3.314509
3.314457
1.2255
3.430491
3.320788
3.328925
3.326267
3.314527
3.31352
3.313867
3.314695
3.314926
3.314534
3.31443
3.314513
3.314451
3.314373
3.314416
3.314446
3.314437
1.485335
3.383682
3.313413
3.315863
3.319097
3.317406
3.314639
3.31324
3.314805
3.3143
3.314436
3.314421
3.31433
3.314391
3.314387
3.314401
3.314354
3.314457
1.532809
3.406595
3.313345
3.3132
3.31788
3.310582
3.314517
3.314538
3.314119
3.314395
3.314407
3.31439
3.314312
3.314389
3.314388
3.314392
3.314338
3.314445
1.585432
3.401819
3.31503
3.323667
3.308791
3.311804
3.314365
3.314326
3.314094
3.31437
3.314387
3.314382
3.314352
3.314383
3.314432
3.314387
3.314375
3.314455
1.63854
3.399894
3.315623
3.316911
3.312421
3.314201
3.314397
3.314546
3.314252
3.314423
3.314385
3.314382
3.314376
3.314393
3.314432
3.314385
3.314385
3.314392
1.691335
3.398975
3.31512
3.316332
3.315043
3.314631
3.314395
3.314349
3.31439
3.314382
3.314383
3.314383
3.314384
3.314407
3.314403
3.314385
3.314385
3.314385
1.742428
3.397377
3.314851
3.315718
3.314584
3.314542
3.314388
3.314347
3.314383
3.314372
3.314382
3.314383
3.314384
3.314382
3.314385
3.314385
3.314384
3.314385
1.793956
3.396767
3.314745
3.314117
3.313947
3.314343
3.314385
3.314387
3.314372
3.314384
3.314383
3.314383
3.314383
3.314386
3.314394
3.314386
3.314383
3.314385
1.844348
3.396159
3.314678
3.314098
3.314183
3.314347
3.314385
3.314389
3.314378
3.314384
3.314383
3.314383
3.314383
3.314384
3.314384
3.314384
3.314383
3.314383
1.893426
3.395852
3.314638
3.314311
3.314352
3.31438
3.314386
3.314386
3.314382
3.314384
3.314383
3.314383
3.314383
3.314385
3.314385
3.314385
3.314383
3.314383
1.942573
3.395776
3.314617
3.314383
3.314397
3.314397
3.314389
3.314386
3.314383
3.314383
3.314383
3.314383
3.314383
3.314382
3.314385
3.314386
3.314383
3.314383
1.991838
3.395467
3.31461
3.314428
3.314439
3.314408
3.314389
3.314384
3.314383
3.314383
3.314383
3.314383
3.314383
3.314381
3.314383
3.314389
3.314383
3.314383
2.040417
3.395188
3.314669
3.314516
3.314507
3.314401
3.314387
3.314383
3.314383
3.314383
3.314383
3.314383
3.314383
3.314381
3.314387
3.31439
3.314383
3.314383
2.089563
3.395456
3.314856
3.314623
3.314455
3.314383
3.314383
3.314384
3.314383
3.314383
3.314383
3.314383
3.314383
3.314382
3.31439
3.314387
3.314383
3.314383
2.139142
3.395977
3.315065
3.314498
3.314323
3.31439
3.314388
3.314383
3.314383
3.314383
3.314383
3.314383
3.314383
3.314382
3.31439
3.314386
3.314383
3.314383
2.190762
3.397101
3.31476
3.314261
3.314443
3.314387
3.314382
3.314383
3.314383
3.314383
3.314383
3.314383