/*--------------------------------*- C++ -*----------------------------------*\
| =========                 |                                                 |
| \\      /  F ield         | OpenFOAM: The Open Source CFD Toolbox           |
|  \\    /   O peration     | Version:  2206                                  |
|   \\  /    A nd           | Website:  www.openfoam.com                      |
|    \\/     M anipulation  |                                                 |
\*---------------------------------------------------------------------------*/
FoamFile
{
    version     2.0;
    format      ascii;
    arch        "LSB;label=32;scalar=64";
    class       volScalarField;
    location    "2.8";
    object      p_rbgh;
}
// * * * * * * * * * * * * * * * * * * * * * * * * * * * * * * * * * * * * * //

dimensions      [1 -1 -2 0 0 0 0];

internalField   nonuniform List<scalar> 
13078
(
18.72417
10.94173
4.407477
1.077723
-0.5898862
-1.641986
-2.298808
16.61484
9.093334
3.687589
0.8735937
-0.7411387
-1.777295
-2.417139
7.817416
4.868455
2.209444
0.2230508
-1.152091
-2.079213
-2.650537
3.489004
2.176514
0.6727831
-0.6788643
-1.760731
-2.52434
-2.99175
0.8584844
0.1479964
-0.7993311
-1.727699
-2.504052
-3.084561
-3.430077
-1.176932
-1.598053
-2.205509
-2.832756
-3.365433
-3.747409
-3.957958
-2.959086
-3.207211
-3.583541
-3.982728
-4.311628
-4.518803
-4.576806
-4.628716
-4.762157
-4.973555
-5.185805
-5.33664
-5.384506
-5.295901
-6.263308
-6.314485
-6.394968
-6.45305
-6.444939
-6.340967
-6.109611
-7.914112
-7.900443
-7.874005
-7.798168
-7.643791
-7.392697
-7.016519
-9.618936
-9.551167
-9.432319
-9.235334
-8.942476
-8.546259
-8.021754
-11.41015
-11.29394
-11.09098
-10.78004
-10.35237
-9.810318
-9.132269
-13.31717
-13.15489
-12.87167
-12.44955
-11.88717
-11.19581
-10.35702
-15.36844
-15.1602
-14.79725
-14.26342
-13.5639
-12.7161
-11.70713
-17.59283
-17.33708
-16.89255
-16.24968
-15.41549
-14.38811
-13.19613
-20.02055
-19.71451
-19.1851
-18.43859
-17.44524
-16.22932
-14.84018
-22.6839
-22.3235
-21.70229
-20.82984
-19.67178
-18.26076
-16.65799
-25.61799
-25.19812
-24.4773
-23.46717
-22.13057
-20.50763
-18.67119
-28.86132
-28.3758
-27.54593
-26.38534
-24.85401
-23.00045
-20.90458
-32.45632
-31.89793
-30.94793
-29.62263
-27.89549
-25.80842
-23.38914
-36.44995
-35.81037
-34.72773
-33.2229
-31.30602
-28.92068
-26.1537
-40.89424
-40.16391
-38.93394
-37.22764
-35.06059
-32.36095
-29.23343
-45.84688
-45.01499
-43.62132
-41.69161
-39.24422
-36.19889
-32.67607
-51.37193
-50.42635
-48.85075
-46.67333
-43.91694
-40.5299
-36.60824
-57.54047
-56.46763
-54.68998
-52.23864
-49.14509
-45.4331
-40.98555
-64.43118
-63.21591
-61.21384
-58.4589
-54.98608
-50.82758
-45.82943
-72.13122
-70.75677
-68.50561
-65.41497
-61.52325
-56.86526
-51.2641
-80.73737
-79.18662
-76.65756
-73.1962
-68.84304
-63.63952
-57.46679
-90.35769
-88.61026
-85.77179
-81.90138
-77.04103
-71.24842
-64.56156
-101.1211
-99.17856
-95.96648
-91.63984
-86.21849
-79.75832
-72.30639
-113.1767
-110.9802
-107.3698
-102.5367
-96.49738
-89.30233
-81.00345
-126.6107
-124.1862
-120.2213
-114.7528
-108.0161
-100.0184
-90.81298
-141.616
-139.0098
-134.6453
-128.6076
-120.9456
-112.0541
-101.8306
-158.3616
-155.4676
-150.8222
-144.063
-135.4678
-125.5894
-114.2483
-177.0399
-173.8176
-168.711
-161.4107
-152.1079
-140.8895
-128.2763
-197.8549
-194.2868
-188.7058
-181.0736
-170.9598
-158.6296
-144.1951
-221.0147
-217.0901
-211.0153
-202.7754
-192.26
-178.5157
-162.2999
-246.7253
-242.4485
-235.8936
-227.0082
-215.6856
-201.0802
-183.6839
-275.1815
-270.5857
-263.5749
-254.1003
-242.0431
-227.1565
-207.8885
-306.6117
-301.8096
-294.2984
-284.3026
-271.5933
-255.8884
-235.7746
-341.1248
-336.233
-328.5487
-317.929
-304.7527
-288.5388
-268.7289
-378.4757
-373.8162
-366.2834
-355.7174
-341.9245
-325.48
-305.3263
-418.6219
-414.0165
-407.3245
-397.424
-384.1816
-367.1795
-346.3916
-461.3021
-456.8563
-450.7718
-442.6969
-430.7962
-414.2012
-391.0796
-506.1661
-502.1379
-496.7704
-490.1806
-480.4922
-464.1614
-440.0142
-552.5053
-549.2642
-545.6035
-540.2875
-530.5463
-515.1696
-489.8102
-599.2397
-597.2064
-595.4474
-591.105
-581.3709
-564.2803
-539.1572
-645.5704
-644.5224
-643.7889
-640.5067
-630.8146
-613.3216
-585.6873
-690.4084
-690.2282
-689.953
-686.5534
-677.0156
-658.8859
-628.5194
-732.4611
-732.7873
-732.5627
-728.5849
-717.8368
-697.7951
-666.5356
-770.6321
-771.4876
-770.7747
-765.5741
-753.3677
-731.3566
-698.3579
-803.2834
-804.3277
-803.4462
-797.9434
-784.7081
-761.5309
-727.2864
-828.6681
-829.409
-828.5834
-822.6136
-808.5962
-784.81
-749.9636
-845.9146
-846.2703
-844.8622
-838.111
-823.2999
-799.2099
-765.384
-854.5899
-854.6461
-852.7951
-845.5616
-830.5177
-806.6621
-773.2864
-854.5654
-854.3644
-852.2668
-844.9797
-830.3051
-807.1529
-774.2355
-845.5478
-845.0615
-842.789
-835.6979
-821.6615
-799.2623
-766.8541
-827.9174
-827.2647
-825.0242
-818.4021
-805.1885
-783.6568
-751.983
-802.7936
-802.2186
-800.3277
-794.5361
-782.5228
-762.3109
-731.64
-770.9921
-770.6337
-769.138
-764.1385
-753.3843
-734.7265
-704.5786
-733.4355
-733.172
-731.0097
-726.0101
-716.0259
-698.6858
-671.093
-691.3166
-690.571
-688.2168
-683.0264
-673.8386
-657.9249
-633.2946
-646.6588
-645.3344
-643.2567
-638.8375
-630.6153
-616.5301
-594.3681
-600.95
-599.3338
-597.1177
-592.6476
-584.8331
-572.1781
-551.0042
-554.9412
-552.7928
-550.2613
-545.423
-536.4466
-523.6803
-504.9936
-509.5264
-506.7654
-503.5813
-497.633
-487.8387
-474.5257
-457.7762
-465.3609
-461.768
-457.2439
-450.8256
-440.7071
-427.8587
-410.6304
-422.8914
-418.8444
-413.2003
-406.1946
-396.4518
-382.3501
-364.8301
-382.8381
-378.6351
-372.7446
-364.9733
-354.154
-339.8063
-321.4656
-345.5622
-341.3976
-335.3198
-326.6261
-315.2688
-301.0066
-283.4126
-311.1335
-307.0782
-300.6713
-291.8185
-280.4358
-266.6066
-249.8075
-279.5841
-275.5211
-269.213
-260.5846
-249.6855
-236.3131
-220.1368
-250.811
-246.927
-240.9116
-232.76
-222.3926
-209.6708
-193.6724
-224.8382
-221.2025
-215.6493
-207.9677
-198.2022
-186.392
-171.1735
-201.4891
-198.146
-192.9353
-185.8328
-176.7714
-165.2462
-151.5249
-180.5138
-177.4338
-172.6188
-166.0591
-157.5433
-146.7853
-134.0914
-161.7056
-158.9054
-154.4909
-148.4874
-140.4206
-130.5759
-119.3099
-144.8448
-142.3322
-138.3198
-132.5928
-125.2662
-116.3748
-106.334
-129.7612
-127.5028
-123.8739
-118.5736
-111.7991
-103.9619
-94.88717
-116.2647
-114.2326
-110.8224
-106.0856
-100.0362
-92.96237
-84.75008
-104.1778
-102.2845
-99.1832
-94.88426
-89.55298
-83.16887
-75.74554
-93.35305
-91.63457
-88.80339
-84.99435
-80.19859
-74.43285
-67.71272
-83.62831
-82.10522
-79.57859
-76.15582
-71.83283
-66.63317
-60.57169
-74.93006
-73.55511
-71.31367
-68.23794
-64.34374
-59.65858
-54.19301
-67.13736
-65.91225
-63.90544
-61.14055
-57.63423
-53.40315
-48.33102
-60.14674
-59.05588
-57.25993
-54.7773
-51.62502
-47.8166
-43.18966
-53.8728
-52.90344
-51.29699
-49.07099
-46.24169
-42.82261
-38.67214
-48.23988
-47.37964
-45.94474
-43.95213
-41.41701
-38.3479
-34.63526
-43.1804
-42.41816
-41.13863
-39.35798
-37.08591
-34.26994
-30.97882
-38.63358
-37.95943
-36.82081
-35.2332
-33.20409
-30.65831
-27.68646
-34.54464
-33.94972
-32.93884
-31.52666
-29.71963
-27.45071
-24.79917
-30.86423
-30.34063
-29.4456
-28.19283
-26.58536
-24.56994
-22.21258
-27.54778
-27.08846
-26.29856
-25.18891
-23.73264
-21.95962
-19.88834
-24.55499
-24.1538
-23.45988
-22.48257
-21.18437
-19.60149
-17.7982
-21.84934
-21.50089
-20.89474
-20.03923
-18.89987
-17.50676
-15.91902
-19.39767
-19.0973
-18.57183
-17.82848
-16.83567
-15.61799
-14.2254
-17.16977
-16.91356
-16.46281
-15.82253
-14.96559
-13.91023
-12.6969
-15.13797
-14.92273
-14.54125
-13.98572
-13.26054
-12.3628
-11.31558
-13.27678
-13.10022
-12.78532
-12.31922
-11.70546
-10.95832
-10.06579
-11.56236
-11.42303
-11.17291
-10.79842
-10.29831
-9.682306
-8.933913
-9.972061
-9.869609
-9.684093
-9.400218
-9.011476
-8.520563
-7.908545
-8.483838
-8.419375
-8.300519
-8.108617
-7.830755
-7.461862
-6.980267
-7.075368
-7.052028
-7.004869
-6.909456
-6.744718
-6.497003
-6.141559
-5.722898
-5.74685
-5.780507
-5.790082
-5.743881
-5.618748
-5.386706
-4.399508
-4.481516
-4.610706
-4.739088
-4.820572
-4.821724
-4.711674
-3.072387
-3.230044
-3.475899
-3.745777
-3.968809
-4.102289
-4.117909
-1.695732
-1.960881
-2.363961
-2.800905
-3.184265
-3.463076
-3.609794
-0.1985863
-0.6274147
-1.247238
-1.896678
-2.469828
-2.914096
-3.179793
1.550408
0.8466099
-0.09378983
-1.031132
-1.843468
-2.447035
-2.825579
3.867398
2.59393
1.12049
-0.2359335
-1.301799
-2.065736
-2.551562
7.802628
4.946533
2.353388
0.4590918
-0.8722321
-1.788157
-2.366266
16.10169
8.643242
3.611037
0.9498683
-0.6198837
-1.643048
-2.281919
-2.635641
-2.711611
-2.580481
-2.357044
-2.00183
-1.59953
-1.190963
-2.738933
-2.801266
-2.65755
-2.414641
-2.047842
-1.63633
-1.25242
-2.925878
-2.952699
-2.77736
-2.448351
-2.118683
-1.687527
-1.286439
-3.195511
-3.16882
-2.951976
-2.641709
-2.214463
-1.748981
-1.317334
-3.544286
-3.447023
-3.16965
-2.810362
-2.334545
-1.821436
-1.34587
-3.970379
-3.788907
-3.438089
-3.01902
-2.480594
-1.907013
-1.375732
-4.473733
-4.196269
-3.759255
-3.269623
-2.64672
-2.007323
-1.408595
-5.059751
-4.671405
-4.135542
-3.564185
-2.840886
-2.123583
-1.445618
-5.735883
-5.220395
-4.569723
-3.905985
-3.071272
-2.256821
-1.487232
-6.502171
-5.847276
-5.067395
-4.297335
-3.334255
-2.408044
-1.533206
-7.358725
-6.556436
-5.628654
-4.742546
-3.631947
-2.578628
-1.584339
-8.311346
-7.34926
-6.261661
-5.241326
-3.968353
-2.77031
-1.641748
-9.367498
-8.231987
-6.968708
-5.800874
-4.341983
-2.98634
-1.705087
-10.53653
-9.212399
-7.756151
-6.425353
-4.761331
-3.22127
-1.77892
-11.82985
-10.3
-8.631677
-7.120907
-5.229194
-3.486733
-1.864847
-13.26117
-11.50616
-9.604473
-7.89478
-5.750382
-3.782268
-1.944947
-14.84655
-12.84433
-10.68536
-8.755425
-6.333778
-4.114222
-2.050685
-16.60463
-14.33016
-11.8872
-9.718521
-7.080072
-4.484662
-2.169266
-18.55682
-15.98162
-13.22393
-10.7855
-7.816419
-4.896233
-2.299311
-20.72772
-17.81944
-14.71252
-11.97336
-8.634119
-5.35364
-2.442058
-23.14542
-19.86745
-16.37223
-13.2975
-9.545456
-5.862916
-2.600709
-25.84169
-22.15296
-18.22555
-14.77435
-10.56194
-6.431067
-2.778501
-28.85269
-24.70709
-20.30291
-16.4133
-11.69972
-7.06604
-2.977734
-32.22504
-27.56237
-22.61305
-17.44504
-13.15669
-7.788092
-3.201319
-35.99953
-30.76658
-25.24303
-20.36028
-14.68569
-8.588328
-3.452689
-40.22282
-34.34344
-28.13189
-22.68753
-16.34131
-9.486309
-3.736069
-44.97533
-38.35554
-31.39032
-25.29597
-18.19524
-10.50079
-4.055762
-50.50119
-42.85463
-35.05641
-28.2325
-20.29833
-11.95627
-4.417789
-56.72769
-48.78373
-40.34181
-31.54833
-22.67563
-13.39475
-4.828672
-63.50838
-54.6056
-45.1622
-35.3374
-25.37227
-14.93098
-5.298584
-71.4377
-61.5546
-50.63167
-39.62915
-28.44315
-16.95891
-5.856907
-80.46349
-69.26623
-56.82186
-44.50964
-31.96166
-19.50699
-6.497622
-90.35282
-78.50066
-63.89698
-50.07886
-36.00089
-21.98149
-7.25458
-101.4952
-88.31153
-72.49424
-56.45557
-40.66295
-24.93099
-8.920838
-114.1319
-99.45185
-82.35217
-63.7992
-46.06911
-28.33583
-10.13462
-128.4915
-112.1011
-94.04534
-72.33798
-52.38331
-32.33857
-11.57023
-144.8655
-126.5641
-106.5937
-83.62872
-59.81625
-37.25813
-14.67361
-163.6903
-143.1953
-121.0306
-96.03942
-69.12769
-43.25397
-17.78667
-185.4638
-162.4651
-137.9162
-111.428
-81.19239
-51.00106
-21.20684
-211.9789
-185.0208
-157.8719
-128.2957
-95.26603
-60.60344
-28.97239
-242.8485
-211.7165
-181.4016
-147.5821
-112.174
-72.51492
-36.37343
-279.1448
-245.511
-210.2219
-171.1486
-130.6854
-88.24547
-44.90489
-318.259
-281.4399
-242.9072
-199.7704
-152.6809
-106.2304
-55.1197
-360.0528
-319.2585
-276.5878
-230.4133
-179.8603
-126.3876
-69.79581
-406.4187
-365.0961
-318.8589
-264.4818
-209.3287
-146.3877
-83.61772
-454.907
-410.1583
-359.222
-302.7186
-237.269
-171.6229
-98.84138
-501.5253
-454.3228
-399.286
-336.9068
-270.8843
-196.5026
-116.3463
-543.8386
-496.3446
-438.6674
-374.8707
-302.1616
-224.3232
-140.4966
-585.4392
-535.6066
-478.1681
-411.0829
-334.1712
-251.3216
-162.5024
-621.7418
-570.8638
-510.4843
-443.3546
-364.0523
-277.2338
-185.0868
-654.9381
-608.1039
-543.0418
-470.6914
-389.6625
-301.2625
-204.6909
-681.7534
-633.8026
-571.4074
-496.6281
-413.9132
-320.4557
-220.8651
-705.2324
-658.5296
-593.116
-515.2458
-430.1061
-332.5633
-232.816
-720.8793
-675.4578
-608.3077
-529.2938
-439.0934
-341.7445
-236.0704
-728.3187
-683.8277
-615.7456
-535.5769
-441.7689
-334.4578
-242.5163
-729.2951
-685.875
-616.7389
-534.6236
-436.9718
-319.9422
-722.1465
-680.8601
-611.6492
-529.047
-430.0446
-310.5245
-707.7861
-668.6862
-600.3588
-519.0058
-421.603
-309.8889
-688.8081
-651.5358
-585.0898
-504.629
-413.6267
-311.4172
-209.6898
-662.8671
-629.7584
-563.5578
-487.871
-399.612
-300.9393
-189.7468
-631.0107
-599.5594
-539.1941
-465.9481
-382.5796
-290.0039
-187.984
-598.185
-570.5415
-514.0659
-443.9415
-363.2808
-275.024
-178.3028
-560.3869
-535.9115
-478.2949
-415.4775
-341.0997
-255.3636
-160.6122
-520.0931
-497.2659
-449.1065
-388.6648
-316.207
-233.2949
-141.5251
-476.4857
-460.3208
-413.5879
-356.5904
-287.3447
-207.6439
-117.4673
-432.9425
-417.4007
-376.5742
-322.2903
-259.8996
-185.2246
-101.4079
-387.9193
-376.7328
-338.2595
-289.563
-230.357
-164.2992
-87.96728
-342.7442
-332.9671
-299.9107
-257.3053
-204.1728
-143.3763
-78.40494
-300.2798
-291.2718
-262.2606
-223.9798
-178.8241
-125.2469
-68.07469
-261.7199
-252.4665
-226.7055
-194.645
-153.8606
-108.1304
-55.03149
-228.5397
-218.6842
-194.9308
-165.7094
-130.1383
-89.35302
-44.07729
-199.5928
-188.6165
-165.2438
-139.0565
-109.6879
-73.84427
-35.98472
-174.8959
-163.9039
-141.7759
-117.7792
-91.60917
-58.84573
-27.10676
-153.4852
-143.9642
-123.5202
-101.1159
-75.13618
-47.2986
-18.72708
-135.6889
-126.8083
-108.0732
-87.45151
-62.44098
-38.61127
-14.07032
-120.2152
-111.9805
-94.90639
-74.80805
-53.49168
-32.68438
-11.75573
-106.7425
-99.12723
-83.59001
-65.09289
-46.39439
-28.00648
-9.599197
-94.94126
-87.94428
-73.56605
-56.65219
-40.61391
-24.30937
-7.360196
-84.56764
-78.17217
-64.62409
-50.03947
-35.75511
-21.30841
-6.500585
-75.4235
-69.55588
-56.72838
-44.36605
-31.60933
-18.73174
-5.354019
-67.30138
-61.60989
-50.47645
-39.42938
-28.03755
-16.58034
-4.466376
-59.87448
-54.81857
-44.98805
-35.10632
-24.92844
-14.70543
-3.983818
-53.33013
-48.55729
-40.15556
-31.30044
-22.20382
-12.56182
-3.531876
-47.7156
-43.39688
-35.87103
-27.93441
-19.80631
-11.20349
-3.165542
-42.54088
-36.10615
-29.4686
-24.94282
-17.69133
-10.01525
-2.849786
-37.93543
-32.34103
-26.38976
-22.32202
-15.81079
-8.740763
-2.577909
-33.96484
-28.97344
-23.64275
-19.9942
-14.15934
-7.759764
-2.344237
-30.42842
-25.96354
-21.1902
-17.92028
-12.69589
-6.985446
-2.143541
-27.26392
-23.27305
-19.00013
-16.0708
-11.39201
-6.29977
-1.970956
-24.43076
-20.86715
-17.04436
-14.42143
-10.07666
-5.685462
-1.822382
-21.89792
-18.71469
-15.29716
-12.95059
-9.028084
-5.145156
-1.695279
-19.6278
-16.78778
-13.73551
-11.63817
-8.136026
-4.66986
-1.586534
-17.59143
-15.06169
-12.33898
-10.46647
-7.34141
-4.248557
-1.493945
-15.76307
-13.51426
-11.08931
-9.419878
-6.633675
-3.874979
-1.41398
-14.11978
-12.1258
-9.97034
-8.484502
-6.003081
-3.544103
-1.345976
-12.64121
-10.87897
-8.967629
-7.644541
-5.405486
-3.252046
-1.291648
-11.30953
-9.758568
-8.069188
-6.896703
-4.865807
-2.994572
-1.248234
-10.10906
-8.751239
-7.263834
-6.228978
-4.431014
-2.7693
-1.214326
-9.026181
-7.845427
-6.54211
-5.632225
-4.044758
-2.572879
-1.197307
-8.049228
-7.031324
-5.895983
-5.099466
-3.70178
-2.400386
-1.177566
-7.168483
-6.300763
-5.318777
-4.624836
-3.398053
-2.24733
-1.161824
-6.376014
-5.647135
-4.805093
-4.203541
-3.129376
-2.111661
-1.151915
-5.665599
-5.065279
-4.352937
-3.830944
-2.892982
-1.994801
-1.14701
-5.032571
-4.554134
-3.954763
-3.504365
-2.687778
-1.895433
-1.146825
-4.477106
-4.109647
-3.611843
-3.222535
-2.512129
-1.812637
-1.151355
-3.999036
-3.729745
-3.320115
-2.983249
-2.36498
-1.745645
-1.16042
-3.593235
-3.410053
-3.077686
-2.785123
-2.253968
-1.693708
-1.174854
-3.255633
-3.14916
-2.882863
-2.625346
-2.15638
-1.655385
-1.192964
-2.986268
-2.946029
-2.734042
-2.502757
-2.082879
-1.628783
-1.208691
-2.786506
-2.800187
-2.629807
-2.415669
-2.032358
-1.613928
-1.226051
-2.659456
-2.711913
-2.569084
-2.36242
-2.002577
-1.608977
-1.257979
-2.609578
-2.682208
-2.551477
-2.341863
-1.990658
-1.601572
-1.261184
-1.25995
-1.270934
-1.275624
-1.276231
-1.27425
-1.26984
-1.263875
-1.255168
-1.244033
-1.231167
-1.216734
-1.20018
-1.18152
-1.160825
-1.138168
-1.113651
-1.087402
-1.059515
-1.350101
-1.300592
-1.296347
-1.29586
-1.293916
-1.289937
-1.284014
-1.275077
-1.264006
-1.251082
-1.236445
-1.219657
-1.200705
-1.179664
-1.156564
-1.131544
-1.104805
-1.076396
-1.341153
-1.317426
-1.316789
-1.316957
-1.315555
-1.312216
-1.305792
-1.297109
-1.286087
-1.273068
-1.258174
-1.241092
-1.221776
-1.200309
-1.17668
-1.15106
-1.123727
-1.09469
-1.346751
-1.333657
-1.338035
-1.339774
-1.339151
-1.336283
-1.330117
-1.321362
-1.310356
-1.297202
-1.281994
-1.264548
-1.244795
-1.222811
-1.198555
-1.172234
-1.1442
-1.114421
-1.364211
-1.353428
-1.361378
-1.364743
-1.364956
-1.362501
-1.35664
-1.347925
-1.33691
-1.323555
-1.307988
-1.290105
-1.269824
-1.247231
-1.222283
-1.195111
-1.166255
-1.135614
-1.387539
-1.37772
-1.387491
-1.392108
-1.393147
-1.391173
-1.385661
-1.37692
-1.36585
-1.352235
-1.33626
-1.317848
-1.296938
-1.273633
-1.248028
-1.219738
-1.189928
-1.158295
-1.411749
-1.405521
-1.416356
-1.42204
-1.423854
-1.422404
-1.417487
-1.408518
-1.397309
-1.383376
-1.366906
-1.34786
-1.326227
-1.302089
-1.275563
-1.246157
-1.215259
-1.182496
-1.442132
-1.435918
-1.448072
-1.454702
-1.457234
-1.456246
-1.451416
-1.443048
-1.431457
-1.417099
-1.400045
-1.380295
-1.35778
-1.332686
-1.305096
-1.274424
-1.242292
-1.208247
-1.476897
-1.469041
-1.482751
-1.490242
-1.493456
-1.49294
-1.488457
-1.480998
-1.468367
-1.453512
-1.435904
-1.415289
-1.391696
-1.365522
-1.33671
-1.304595
-1.271068
-1.235577
-1.514025
-1.505039
-1.52011
-1.528669
-1.53269
-1.532721
-1.528838
-1.520659
-1.508088
-1.493141
-1.474574
-1.452776
-1.428134
-1.400676
-1.370486
-1.336732
-1.30163
-1.264512
-1.554014
-1.54339
-1.560291
-1.570329
-1.575219
-1.575759
-1.572136
-1.563998
-1.551729
-1.535638
-1.516051
-1.49299
-1.467173
-1.438261
-1.406506
-1.370904
-1.334021
-1.295081
-1.598104
-1.585165
-1.604465
-1.615599
-1.621343
-1.622373
-1.61885
-1.610815
-1.598073
-1.581218
-1.560363
-1.536258
-1.508948
-1.478399
-1.444855
-1.40717
-1.368285
-1.327306
-1.647194
-1.631781
-1.652336
-1.664671
-1.671395
-1.67298
-1.669491
-1.661153
-1.647885
-1.629979
-1.608091
-1.582683
-1.553631
-1.521204
-1.485631
-1.445591
-1.404462
-1.361202
-1.704959
-1.680306
-1.704025
-1.71817
-1.726027
-1.728057
-1.72448
-1.715624
-1.70157
-1.682663
-1.659498
-1.632392
-1.601376
-1.566803
-1.528935
-1.486232
-1.442586
-1.396779
-1.768104
-1.736021
-1.761928
-1.777111
-1.785725
-1.788009
-1.784204
-1.77469
-1.759677
-1.739523
-1.714721
-1.6856
-1.652342
-1.615329
-1.574864
-1.529152
-1.482685
-1.43404
-1.832253
-1.801635
-1.826071
-1.841705
-1.850856
-1.853202
-1.848993
-1.838704
-1.822509
-1.800765
-1.77398
-1.742536
-1.70671
-1.666921
-1.623516
-1.574404
-1.524781
-1.472973
-1.907208
-1.872178
-1.895846
-1.91198
-1.921673
-1.923978
-1.919265
-1.90797
-1.89033
-1.866653
-1.837556
-1.803433
-1.764665
-1.721717
-1.674989
-1.622036
-1.568876
-1.51355
-1.987768
-1.947311
-1.972961
-1.988516
-1.998507
-2.00078
-1.995374
-1.982879
-1.963485
-1.937523
-1.905744
-1.868539
-1.826407
-1.779865
-1.729358
-1.672062
-1.614969
-1.55573
-2.073301
-2.02861
-2.056538
-2.073239
-2.082178
-2.084055
-2.077872
-2.063921
-2.042388
-2.013767
-1.978863
-1.938113
-1.892131
-1.841524
-1.786752
-1.72456
-1.663045
-1.599441
-2.16402
-2.116995
-2.147258
-2.165457
-2.175013
-2.174663
-2.167274
-2.151648
-2.127545
-2.095812
-2.057263
-2.012438
-1.962054
-1.906797
-1.847188
-1.779465
-1.713022
-1.644588
-2.262132
-2.21273
-2.245888
-2.265841
-2.276393
-2.27533
-2.264541
-2.246626
-2.219487
-2.184129
-2.141326
-2.091814
-2.036396
-1.975845
-1.909168
-1.836709
-1.764841
-1.691038
-2.368844
-2.316629
-2.353357
-2.375388
-2.38707
-2.385457
-2.372595
-2.349804
-2.318872
-2.279213
-2.231475
-2.176561
-2.115368
-2.048821
-1.97486
-1.896357
-1.818388
-1.73862
-2.485213
-2.430138
-2.470939
-2.495293
-2.508214
-2.50584
-2.490879
-2.464119
-2.426632
-2.381663
-2.328162
-2.26701
-2.199196
-2.125803
-2.044332
-1.958274
-1.873474
-1.787109
-2.612361
-2.554748
-2.600107
-2.626994
-2.641167
-2.637743
-2.620136
-2.589135
-2.545584
-2.492289
-2.431904
-2.363492
-2.288082
-2.206908
-2.11695
-2.022354
-1.929894
-1.836202
-2.75154
-2.692174
-2.742568
-2.77227
-2.787537
-2.782683
-2.761627
-2.725481
-2.675221
-2.613946
-2.543386
-2.466382
-2.382212
-2.292058
-2.192508
-2.088255
-1.987312
-1.885518
-2.904791
-2.84428
-2.900161
-2.933118
-2.949186
-2.942358
-2.916853
-2.8743
-2.816059
-2.74601
-2.665253
-2.576259
-2.481747
-2.381255
-2.267926
-2.155792
-2.045364
-1.934648
-3.074028
-3.013188
-3.075048
-3.111754
-3.128306
-3.11856
-3.087503
-3.037036
-2.969165
-2.888709
-2.796723
-2.695287
-2.587127
-2.474484
-2.344793
-2.224452
-2.103506
-1.982961
-3.261464
-3.201544
-3.269773
-3.31073
-3.327309
-3.313598
-3.275498
-3.215269
-3.135815
-3.042953
-2.937746
-2.822618
-2.699927
-2.572073
-2.426643
-2.293784
-2.161151
-2.029786
-3.46984
-3.412533
-3.487699
-3.532749
-3.549356
-3.530141
-3.483053
-3.410723
-3.316936
-3.209404
-3.088698
-2.957662
-2.819012
-2.674628
-2.510139
-2.363048
-2.217486
-2.074103
-3.70196
-3.650165
-3.733021
-3.782457
-3.796424
-3.770909
-3.712676
-3.625347
-3.514695
-3.389573
-3.250521
-3.100833
-2.943741
-2.774157
-2.595611
-2.431609
-2.271537
-2.115795
-3.959938
-3.917241
-4.008853
-4.063193
-4.072077
-4.040115
-3.967409
-3.861428
-3.730166
-3.583802
-3.42305
-3.251689
-3.073401
-2.879108
-2.681729
-2.499504
-2.3231
-2.153656
-4.253023
-4.222133
-4.3239
-4.380012
-4.383984
-4.341785
-4.250497
-4.121445
-3.96717
-3.792912
-3.606603
-3.409973
-3.207195
-2.987214
-2.766258
-2.564593
-2.370561
-2.175315
-4.597869
-4.574634
-4.678361
-4.738417
-4.738763
-4.68055
-4.565543
-4.40766
-4.223406
-4.01759
-3.801061
-3.575022
-3.343492
-3.082739
-2.847442
-2.624308
-2.410918
-2.190746
-4.980503
-4.943309
-5.078393
-5.14553
-5.141378
-5.063303
-4.916426
-4.722714
-4.500979
-4.257466
-4.005732
-3.745697
-3.481737
-3.180693
-2.923124
-2.676326
-2.441152
-2.187749
-5.244685
-5.382221
-5.542629
-5.612886
-5.599599
-5.494512
-5.307871
-5.068654
-4.80226
-4.513468
-4.219989
-3.920249
-3.618657
-3.277635
-2.990507
-2.717712
-2.440447
-2.182029
-5.674002
-5.902555
-6.089556
-6.160452
-6.120462
-5.981883
-5.744101
-5.449684
-5.134017
-4.784761
-4.441782
-4.096323
-3.727195
-3.364398
-3.045965
-2.744709
-2.432124
-2.161112
-6.096204
-6.529898
-6.734226
-6.798982
-6.726344
-6.534294
-6.230151
-5.872259
-5.484503
-5.068807
-4.668555
-4.270341
-3.847212
-3.438913
-3.085518
-2.753383
-2.395016
-2.120077
-6.47244
-7.287903
-7.505703
-7.549061
-7.423695
-7.159638
-6.769546
-6.326228
-5.857264
-5.36305
-4.896495
-4.436492
-3.917355
-3.495407
-3.103944
-2.708058
-2.347854
-2.055404
-6.799907
-8.234639
-8.44234
-8.429013
-8.220289
-7.863656
-7.365858
-6.817465
-6.250625
-5.663708
-5.120218
-4.590811
-3.996975
-3.526848
-3.093845
-2.625024
-2.273223
-1.96291
-7.625481
-9.395926
-9.558109
-9.451348
-9.126674
-8.65356
-8.022055
-7.345343
-6.661285
-5.96527
-5.333336
-4.68377
-4.047799
-3.526071
-3.021976
-2.537789
-2.164491
-1.837794
-7.275291
-10.81666
-10.8392
-10.61787
-10.15195
-9.537051
-8.740413
-7.908003
-7.084073
-6.259949
-5.526482
-4.764709
-4.060625
-3.482548
-2.892877
-2.40701
-2.015291
-1.674977
-9.497697
-12.41206
-12.3042
-11.94243
-11.31429
-10.52169
-9.522859
-8.501316
-7.510898
-6.537542
-5.685233
-4.739126
-4.025121
-3.345612
-2.705816
-2.227906
-1.819062
-1.467837
-9.911868
-14.20251
-13.99589
-13.46564
-12.63134
-11.56469
-10.36918
-9.118438
-7.930512
-6.783309
-5.797757
-4.717983
-3.926099
-3.151034
-2.487995
-1.99027
-1.567715
-1.177236
-15.96596
-16.61163
-16.01769
-15.22623
-14.12943
-12.76653
-11.27664
-9.748013
-8.326766
-6.978813
-5.729661
-4.612836
-3.738621
-2.819554
-2.19882
-1.682774
-1.211695
-0.846377
-19.12217
-19.33982
-18.39534
-17.25989
-15.82631
-14.09352
-12.23812
-10.37357
-8.635264
-7.093668
-5.608534
-4.410491
-3.344962
-2.457897
-1.818627
-1.242506
-0.8049707
-0.4520205
-22.16947
-22.57534
-21.17968
-19.70303
-17.74634
-15.55218
-13.24187
-10.97191
-8.852644
-7.095924
-5.297381
-4.072544
-2.797233
-1.991019
-1.28763
-0.7327006
-0.3036105
0.02608841
-30.91875
-26.43051
-24.51258
-22.4376
-19.92376
-17.28944
-14.2729
-11.512
-8.990196
-6.837943
-4.906254
-3.456787
-2.206651
-1.342747
-0.6338194
-0.09135568
0.2798903
0.5492945
-46.87011
-30.3864
-28.38842
-25.81846
-22.48977
-19.08654
-15.3121
-11.87466
-8.947326
-6.244482
-4.22922
-2.588516
-1.376149
-0.4857888
0.1819593
0.6201169
0.9541389
1.153828
-71.02205
-34.23998
-33.28807
-29.84571
-25.87413
-21.04362
-16.30629
-12.02479
-8.353648
-5.481549
-3.235348
-1.470025
-0.271932
0.5579511
1.133321
1.462555
1.66855
1.80586
-89.48964
-35.29189
-39.16287
-35.04255
-7.374218
-4.14964
-1.76022
-0.06156114
1.076125
1.776677
2.195962
2.386733
2.490403
2.487499
-109.4943
-44.81299
0.2529569
1.785468
2.651317
3.128397
3.352666
3.392881
3.328077
3.216663
-124.6377
3.787181
4.46105
4.679869
4.585105
4.436414
4.18116
3.888434
6.452728
6.219856
5.826784
5.400295
4.961188
4.565669
7.669421
6.959354
6.299736
5.687999
5.142013
8.886163
7.89942
7.024332
6.268267
5.601828
9.751664
8.559784
7.522341
6.653683
5.916973
10.02459
8.812176
7.740289
6.841305
6.077298
9.912618
8.704403
7.676024
6.795798
6.048974
9.152984
8.223024
7.325404
6.54908
5.861247
8.702372
8.16257
7.43885
6.767375
6.106783
5.527273
-96.04934
7.299951
6.935793
6.510445
6.024463
5.530969
5.068885
-85.74782
-48.68919
5.13567
5.521391
5.599819
5.456554
5.193989
4.890794
4.549308
-66.40091
-33.37645
-37.13002
0.1060238
2.09767
3.364279
4.000647
4.312368
4.39957
4.310848
4.164001
3.967534
-52.76868
-30.55656
-30.37169
-26.96535
-22.21923
-17.00945
-12.09067
-7.808055
-4.228483
-1.55015
0.4598084
1.775412
2.642125
3.131701
3.40313
3.468858
3.453483
3.370961
-26.958
-26.91942
-25.41176
-22.60061
-19.25804
-15.36681
-11.4476
-7.910905
-5.088012
-2.58478
-0.8170686
0.5257158
1.469754
2.085151
2.473905
2.672336
2.780232
2.790422
-22.61794
-23.14033
-21.48317
-19.31879
-16.54786
-13.77745
-10.6721
-7.907844
-5.463862
-3.40909
-1.723157
-0.4001988
0.5081567
1.178404
1.65746
1.969307
2.143742
2.233108
-19.58861
-19.7204
-18.29908
-16.59716
-14.51333
-12.29462
-9.864183
-7.606257
-5.55637
-3.863257
-2.287862
-1.19498
-0.1784869
0.432479
0.9479864
1.325041
1.581721
1.7144
-16.15649
-16.70854
-15.57006
-14.28817
-12.74514
-10.94291
-9.05831
-7.213052
-5.501395
-4.092102
-2.664005
-1.704155
-0.7810138
-0.1111818
0.3884522
0.7864117
1.042566
1.261345
-13.39112
-14.01732
-13.32352
-12.36164
-11.19293
-9.780612
-8.274302
-6.768568
-5.403135
-4.146758
-3.007355
-2.031462
-1.241259
-0.5445694
-0.07677978
0.314185
0.6312566
0.8424358
-10.28417
-11.83711
-11.42423
-10.72717
-9.830982
-8.728355
-7.526426
-6.300903
-5.166599
-4.098369
-3.152651
-2.251949
-1.581919
-0.9255954
-0.4268092
-0.06203985
0.2489212
0.5060985
-7.585369
-10.03104
-9.787144
-9.314984
-8.636986
-7.797136
-6.824159
-5.829559
-4.889474
-3.987144
-3.220397
-2.381393
-1.778983
-1.196257
-0.705832
-0.3507484
-0.06017231
0.1914571
-5.44212
-8.607443
-8.404226
-8.07763
-7.585247
-6.960082
-6.172611
-5.369461
-4.593146
-3.834086
-3.175292
-2.484546
-1.906461
-1.429179
-0.9275358
-0.5846901
-0.3011074
-0.06565662
-3.85754
-7.202868
-7.161793
-6.998707
-6.660037
-6.190517
-5.575464
-4.930345
-4.291906
-3.655706
-3.093303
-2.513634
-1.981861
-1.554533
-1.133982
-0.77159
-0.4997169
-0.26954
-4.790867
-5.992928
-6.113793
-6.072589
-5.854063
-5.510505
-5.034627
-4.518908
-3.996011
-3.464589
-2.984678
-2.51427
-2.019131
-1.634094
-1.288283
-0.9197126
-0.660535
-0.4386629
-3.821544
-5.014754
-5.257477
-5.292771
-5.161443
-4.914692
-4.549635
-4.139219
-3.712081
-3.269406
-2.861136
-2.466253
-2.024129
-1.68067
-1.369101
-1.050437
-0.7885173
-0.5772634
-3.964643
-4.351842
-4.577129
-4.644269
-4.571257
-4.396686
-4.118631
-3.792723
-3.445086
-3.076573
-2.729921
-2.390407
-2.024421
-1.701246
-1.42085
-1.148985
-0.8893468
-0.6893348
-3.560277
-3.832715
-4.028729
-4.10672
-4.072222
-3.947829
-3.736766
-3.478266
-3.195046
-2.889779
-2.595523
-2.304453
-1.995717
-1.700569
-1.449142
-1.216894
-0.9657329
-0.7786923
-3.228041
-3.405208
-3.584901
-3.662432
-3.647894
-3.560586
-3.399521
-3.189655
-2.961706
-2.710219
-2.461554
-2.211448
-1.952927
-1.68562
-1.459887
-1.250689
-1.038989
-0.8480761
-3.1499
-3.095923
-3.223102
-3.290323
-3.289858
-3.226365
-3.102902
-2.936696
-2.747267
-2.541475
-2.331059
-2.116556
-1.902053
-1.658232
-1.456983
-1.268449
-1.082712
-0.9019
-2.81109
-2.807413
-2.915506
-2.974496
-2.981424
-2.937054
-2.842534
-2.710688
-2.555671
-2.384354
-2.206189
-2.022192
-1.835992
-1.623249
-1.444192
-1.274688
-1.115249
-0.9457562
-2.566414
-2.541544
-2.64661
-2.702503
-2.716412
-2.686459
-2.614146
-2.50922
-2.382269
-2.239335
-2.088407
-1.930443
-1.769382
-1.592664
-1.424235
-1.271985
-1.128158
-0.981375
-2.356986
-2.3198
-2.415284
-2.46951
-2.487539
-2.468517
-2.413648
-2.329957
-2.224571
-2.106501
-1.978369
-1.842669
-1.702915
-1.550826
-1.399032
-1.26263
-1.132604
-1.006124
-2.177205
-2.131251
-2.217768
-2.268876
-2.291136
-2.279079
-2.237798
-2.171057
-2.083835
-1.985542
-1.876495
-1.759725
-1.638179
-1.505134
-1.370809
-1.248618
-1.13109
-1.018882
-2.022515
-1.970451
-2.049028
-2.096505
-2.12002
-2.114379
-2.083526
-2.030299
-1.95849
-1.875825
-1.782832
-1.682149
-1.576295
-1.465031
-1.341139
-1.231957
-1.125932
-1.023365
-1.889359
-1.833115
-1.904585
-1.948384
-1.972214
-1.971109
-1.948278
-1.905785
-1.846503
-1.776725
-1.697217
-1.610182
-1.517811
-1.421795
-1.31116
-1.213557
-1.11762
-1.024028
-1.774521
-1.715655
-1.78077