/*--------------------------------*- C++ -*----------------------------------*\
| =========                 |                                                 |
| \\      /  F ield         | OpenFOAM: The Open Source CFD Toolbox           |
|  \\    /   O peration     | Version:  2206                                  |
|   \\  /    A nd           | Website:  www.openfoam.com                      |
|    \\/     M anipulation  |                                                 |
\*---------------------------------------------------------------------------*/
FoamFile
{
    version     2.0;
    format      ascii;
    arch        "LSB;label=32;scalar=64";
    class       surfaceScalarField;
    location    "2.8";
    object      phi.a;
}
// * * * * * * * * * * * * * * * * * * * * * * * * * * * * * * * * * * * * * //

dimensions      [0 3 -1 0 0 0 0];

oriented        oriented;

internalField   nonuniform List<scalar> 
26037
(
-4.916201e-10
-8.807887e-11
-1.885975e-10
-5.012561e-11
-9.504881e-11
-1.81723e-11
-5.650124e-11
-7.456611e-12
-4.190789e-11
-4.070979e-12
-3.34587e-11
-2.807348e-12
-2.20872e-12
-2.705764e-11
-1.952372e-10
-1.422756e-10
-1.278558e-10
-8.654953e-11
-7.391707e-11
-3.500309e-11
-5.119305e-11
-1.660673e-11
-4.01488e-11
-9.560235e-12
-3.25512e-11
-6.319134e-12
-4.574258e-12
-2.652496e-11
-5.341202e-11
-4.166968e-11
-5.905256e-11
-4.039555e-11
-4.985515e-11
-2.837366e-11
-4.211373e-11
-1.759257e-11
-3.549359e-11
-1.181013e-11
-2.970679e-11
-8.312869e-12
-6.176394e-12
-2.467819e-11
-2.249597e-11
-1.334343e-11
-3.240865e-11
-2.04573e-11
-3.523194e-11
-1.987227e-11
-3.286411e-11
-1.599374e-11
-2.954874e-11
-1.15777e-11
-2.574681e-11
-8.845477e-12
-6.92109e-12
-2.193737e-11
-1.212038e-11
-5.205041e-12
-2.011672e-11
-1.130459e-11
-2.441369e-11
-1.338129e-11
-2.543596e-11
-1.240242e-11
-2.366847e-11
-1.07381e-11
-2.147361e-11
-8.416057e-12
-6.983648e-12
-1.877537e-11
-7.470563e-12
-2.438677e-12
-1.310563e-11
-6.503433e-12
-1.705406e-11
-8.880147e-12
-1.884416e-11
-9.260078e-12
-1.896994e-11
-8.783197e-12
-1.739395e-11
-7.948914e-12
-6.618403e-12
-1.556463e-11
-5.039938e-12
-1.306383e-12
-8.953352e-12
-3.93342e-12
-1.22827e-11
-5.811228e-12
-1.393998e-11
-6.997448e-12
-1.452131e-11
-7.026081e-12
-1.409525e-11
-6.780609e-12
-6.350132e-12
-1.252763e-11
-3.634533e-12
-7.74879e-13
-6.356209e-12
-2.507234e-12
-8.736993e-12
-3.995829e-12
-1.031496e-11
-5.208519e-12
-1.098998e-11
-5.579979e-12
-1.083903e-11
-5.710256e-12
-5.627039e-12
-9.990537e-12
-2.74811e-12
-4.926459e-13
-4.654901e-12
-1.673805e-12
-6.410126e-12
-2.837919e-12
-7.645991e-12
-3.937482e-12
-8.215185e-12
-4.467202e-12
-8.124079e-12
-4.81497e-12
-4.96843e-12
-7.435716e-12
-2.147054e-12
-3.281682e-13
-3.474002e-12
-1.164077e-12
-4.741154e-12
-2.084856e-12
-5.63248e-12
-3.051251e-12
-6.019683e-12
-3.640984e-12
-5.87494e-12
-4.108366e-12
-4.417183e-12
-5.218247e-12
-1.714295e-12
-2.253681e-13
-2.612013e-12
-8.397049e-13
-3.492184e-12
-1.587375e-12
-4.074068e-12
-2.436904e-12
-4.256695e-12
-3.04315e-12
-3.999646e-12
-3.575285e-12
-3.985624e-12
-3.300969e-12
-1.386792e-12
-1.576568e-13
-1.953399e-12
-6.262911e-13
-2.521421e-12
-1.254772e-12
-2.83287e-12
-2.014101e-12
-2.811941e-12
-2.622071e-12
-2.415739e-12
-3.19105e-12
-3.670311e-12
-1.632122e-12
-1.126842e-12
-1.109727e-13
-1.428266e-12
-4.822659e-13
-1.738479e-12
-1.031406e-12
-1.813742e-12
-1.727332e-12
-1.599488e-12
-2.336741e-12
-1.054174e-12
-2.930827e-12
-3.461026e-12
-1.620263e-13
-9.119248e-13
-7.728733e-14
-9.926187e-13
-3.832788e-13
-1.083779e-12
-8.814628e-13
-9.538038e-13
-1.529788e-12
-5.552836e-13
-2.1513e-12
1.408989e-13
-2.771452e-12
-3.34569e-12
1.153884e-12
-7.272123e-13
-5.184e-14
-6.177731e-13
-3.14661e-13
-5.177743e-13
-7.83807e-13
-2.382909e-13
-1.378686e-12
3.681014e-13
-2.081257e-12
1.215126e-12
-2.701976e-12
-3.314197e-12
2.354603e-12
-5.6247e-13
-3.156588e-14
-2.829997e-13
-2.66933e-13
-7.500389e-15
-7.265078e-13
4.739392e-13
-1.325377e-12
1.213706e-12
-2.04144e-12
2.20386e-12
-2.701846e-12
-3.357566e-12
3.473539e-12
-4.104494e-13
-1.452749e-14
2.585657e-14
-2.336341e-13
4.624974e-13
-6.964819e-13
1.105315e-12
-1.313479e-12
2.002581e-12
-2.052124e-12
3.137923e-12
-2.763419e-12
-3.468492e-12
4.540318e-12
-2.66011e-13
5.274356e-16
3.196948e-13
-2.108853e-13
9.106484e-13
-6.883647e-13
1.708134e-12
-1.336177e-12
2.761811e-12
-2.110171e-12
4.042804e-12
-2.881023e-12
-3.64208e-12
5.580936e-12
-1.249214e-13
1.452282e-14
6.070504e-13
-1.958248e-13
1.349978e-12
-6.978481e-13
2.300803e-12
-1.387202e-12
3.507934e-12
-2.199603e-12
4.939759e-12
-3.040539e-12
-3.873416e-12
6.618211e-12
1.613788e-14
2.825696e-14
8.946747e-13
-1.865909e-13
1.790582e-12
-7.227487e-13
2.897024e-12
-1.466246e-12
4.238502e-12
-2.327689e-12
5.8476e-12
-3.253298e-12
-4.167471e-12
7.673097e-12
1.601424e-13
4.228039e-14
1.188483e-12
-1.819163e-13
2.241653e-12
-7.612659e-13
3.509149e-12
-1.571475e-12
4.997456e-12
-2.510582e-12
6.784131e-12
-3.514144e-12
-4.520609e-12
8.76281e-12
3.090401e-13
5.695612e-14
1.492886e-12
-1.808273e-13
2.709682e-12
-8.117452e-13
4.145008e-12
-1.698785e-12
5.800047e-12
-2.72654e-12
7.763207e-12
-3.821502e-12
-4.932769e-12
9.905339e-12
4.643631e-13
7.256263e-14
1.811126e-12
-1.829402e-13
3.200616e-12
-8.741625e-13
4.813871e-12
-1.849339e-12
6.64896e-12
-2.977711e-12
8.79564e-12
-4.163951e-12
-5.39315e-12
1.111958e-11
6.272727e-13
8.916382e-14
2.14587e-12
-1.885963e-13
3.71887e-12
-9.495537e-13
5.523173e-12
-2.025766e-12
7.556194e-12
-3.272671e-12
9.888815e-12
-4.586865e-12
-5.89635e-12
1.242787e-11
7.98271e-13
1.065371e-13
2.498791e-12
-1.988617e-13
4.268353e-12
-1.040028e-12
6.27986e-12
-2.230768e-12
8.527149e-12
-3.610789e-12
1.101509e-11
-5.064332e-12
-6.511702e-12
1.385601e-11
9.772256e-13
1.239287e-13
2.870081e-12
-2.160574e-13
4.850206e-12
-1.149015e-12
7.086259e-12
-2.467945e-12
9.571574e-12
-3.995271e-12
1.230276e-11
-5.60396e-12
-7.216459e-12
1.542511e-11
1.162893e-12
1.397554e-13
3.258139e-12
-2.444824e-13
5.46359e-12
-1.283248e-12
7.944231e-12
-2.745266e-12
1.069437e-11
-4.435343e-12
1.371194e-11
-6.216098e-12
-7.998731e-12
1.715336e-11
1.353187e-12
1.50352e-13
3.659225e-12
-2.913565e-13
6.103475e-12
-1.453395e-12
8.849079e-12
-3.074844e-12
1.189391e-11
-4.942852e-12
1.5248e-11
-6.9187e-12
-8.944086e-12
1.906032e-11
1.543158e-12
1.530927e-13
4.065677e-12
-3.650981e-13
6.759793e-12
-1.674621e-12
9.787233e-12
-3.473185e-12
1.315095e-11
-5.530434e-12
1.687239e-11
-7.704519e-12
-9.944545e-12
2.098902e-11
1.730869e-12
1.349125e-13
4.469018e-12
-4.72717e-13
7.417228e-12
-1.971459e-12
1.073603e-11
-3.967311e-12
1.442839e-11
-6.219004e-12
1.852649e-11
-8.582414e-12
-1.101281e-11
2.307362e-11
1.876847e-12
9.359252e-14
4.843694e-12
-6.731029e-13
8.052392e-12
-2.374582e-12
1.166788e-11
-4.597906e-12
1.569463e-11
-7.049808e-12
2.016864e-11
-9.587186e-12
-1.218426e-11
2.514882e-11
2.015606e-12
1.263077e-14
5.190137e-12
-1.023695e-12
8.641596e-12
-2.897763e-12
1.255338e-11
-5.40685e-12
1.691508e-11
-8.082384e-12
2.175957e-11
-1.077272e-11
-1.348374e-11
2.713986e-11
2.112043e-12
-1.30312e-13
5.373806e-12
-1.513035e-12
9.153026e-12
-3.785709e-12
1.335139e-11
-6.453424e-12
1.805048e-11
-9.407097e-12
2.326419e-11
-1.220924e-11
-1.496212e-11
2.904384e-11
2.143992e-12
-3.599372e-13
5.511619e-12
-2.227728e-12
9.378232e-12
-4.941381e-12
1.399766e-11
-7.979583e-12
1.905031e-11
-1.10896e-11
2.463485e-11
-1.395651e-11
-1.665774e-11
3.080005e-11
2.074507e-12
-6.994882e-13
5.495983e-12
-3.222182e-12
9.543487e-12
-6.488829e-12
1.440384e-11
-9.953811e-12
1.985651e-11
-1.31594e-11
2.583311e-11
-1.601919e-11
-1.857715e-11
3.235081e-11
1.872094e-12
-1.16083e-12
5.270797e-12
-4.507927e-12
9.483147e-12
-8.397243e-12
1.449516e-11
-1.22282e-11
2.034178e-11
-1.563201e-11
2.679802e-11
-1.839886e-11
-2.076391e-11
3.361943e-11
1.507675e-12
-1.733968e-12
4.817743e-12
-5.998024e-12
9.212584e-12
-1.050414e-11
1.452544e-11
-1.469586e-11
2.050868e-11
-1.826479e-11
2.742763e-11
-2.123434e-11
-2.337308e-11
3.440661e-11
1.014615e-12
-2.372911e-12
4.212425e-12
-7.509234e-12
8.786075e-12
-1.258881e-11
1.433759e-11
-1.719533e-11
2.047764e-11
-2.108942e-11
2.710668e-11
-2.431615e-11
-2.708273e-11
3.423506e-11
4.999676e-13
-2.982014e-12
3.548276e-12
-8.861412e-12
8.163968e-12
-1.453159e-11
1.370628e-11
-1.970606e-11
1.97034e-11
-2.422498e-11
2.587581e-11
-2.812805e-11
-3.219852e-11
3.250958e-11
7.921191e-16
-3.436625e-12
2.777033e-12
-1.000339e-11
7.141926e-12
-1.632289e-11
1.228314e-11
-2.229386e-11
1.769751e-11
-2.778214e-11
2.302239e-11
-3.276285e-11
-3.755005e-11
2.725148e-11
-3.267249e-13
-3.782608e-12
1.51876e-12
-1.05684e-11
5.324551e-12
-1.815475e-11
9.649811e-12
-2.502797e-11
1.397734e-11
-3.180024e-11
1.80303e-11
-3.82711e-11
-4.437702e-11
2.874615e-11
-7.144044e-13
-3.966572e-12
2.725381e-13
-1.102337e-11
1.823902e-12
-1.898765e-11
5.209096e-12
-2.843973e-11
8.144201e-12
-3.626721e-11
2.652559e-11
-4.409018e-11
-5.068979e-11
1.061892e-10
-1.293166e-12
-3.921254e-12
-1.789432e-12
-1.128637e-11
-1.850782e-12
-2.003619e-11
-2.627773e-12
-2.982956e-11
1.630385e-11
-4.122723e-11
1.157692e-10
-4.763929e-11
-5.297886e-11
3.265031e-10
-2.261921e-12
-3.665635e-12
-4.828313e-12
-1.149474e-11
-7.393453e-12
-2.117119e-11
3.075195e-12
-3.184744e-11
9.808734e-11
-4.214887e-11
3.292878e-10
-3.04793e-11
-4.526096e-11
6.792948e-10
-4.004971e-12
-3.380723e-12
-9.174919e-12
-1.208879e-11
-8.733454e-12
-2.241241e-11
7.090928e-11
-3.313584e-11
2.901278e-10
-4.318648e-11
6.893122e-10
-4.566208e-11
4.315369e-11
1.13173e-09
-6.458697e-12
-3.432677e-12
-1.543962e-11
-1.250561e-11
2.54846e-11
-2.353671e-11
2.326285e-10
-2.568646e-11
5.809558e-10
-3.700592e-11
1.064861e-09
-4.637101e-11
-3.684159e-11
1.798793e-09
-9.699327e-12
-3.807699e-12
-1.279255e-12
-1.366134e-11
1.345232e-10
-2.504152e-11
4.754531e-10
-3.421487e-11
9.41108e-10
1.210703e-11
1.542221e-09
-3.054868e-11
-1.836665e-11
2.239206e-09
-1.182869e-11
-4.256415e-12
6.120048e-11
-1.456492e-11
3.128326e-10
-2.543804e-11
7.360171e-10
-3.592138e-11
1.416125e-09
-4.042965e-11
2.199034e-09
-4.446073e-11
2.16583e-10
2.880005e-09
3.476689e-12
-4.482301e-12
1.691701e-10
-1.443912e-11
5.268665e-10
-2.376886e-11
1.056007e-09
-3.204613e-11
1.736694e-09
-3.925829e-11
2.538322e-09
-4.677635e-11
-1.546219e-11
3.757445e-09
4.557528e-11
-4.302936e-12
2.972519e-10
-1.324948e-11
7.46605e-10
-1.820288e-11
1.372509e-09
-2.503722e-11
2.143838e-09
-2.890419e-11
3.019744e-09
-3.447454e-11
-5.289773e-11
3.991405e-09
1.217437e-10
-5.697614e-12
4.659696e-10
-1.848682e-11
9.536417e-10
2.067728e-11
1.661872e-09
-1.103236e-11
2.523596e-09
-1.987772e-11
3.479677e-09
-2.516871e-11
-2.270964e-11
4.430714e-09
2.132347e-10
-6.445204e-12
6.157712e-10
-2.215888e-11
1.278455e-09
-3.622551e-11
2.154703e-09
-3.435103e-11
3.232247e-09
-7.692796e-11
4.416955e-09
-9.077783e-11
3.867069e-10
5.155852e-09
2.967692e-10
-6.311176e-12
7.505675e-10
-2.149707e-11
1.407589e-09
-4.032849e-11
2.263835e-09
-6.153624e-11
3.233031e-09
-9.211963e-11
4.283187e-09
-1.28053e-10
-9.38806e-12
5.820928e-09
3.569068e-10
-5.860146e-12
8.485668e-10
-1.989063e-11
1.536355e-09
-3.744453e-11
2.385277e-09
-5.941663e-11
3.334777e-09
-8.803404e-11
4.345305e-09
-1.293881e-10
-1.64466e-10
5.588827e-09
4.024617e-10
-6.721673e-12
9.238877e-10
-2.236227e-11
1.646607e-09
-4.194357e-11
2.531211e-09
-6.686519e-11
3.523552e-09
-9.832717e-11
4.592092e-09
-1.39135e-10
-1.874203e-10
5.758161e-09
4.458846e-10
-1.123e-11
1.000834e-09
-3.587701e-11
1.773051e-09
-6.624646e-11
2.727869e-09
-1.045326e-10
3.822354e-09
-1.494549e-10
5.036173e-09
-1.999372e-10
-2.551913e-10
6.364114e-09
4.431723e-10
-1.439585e-11
9.897878e-10
-4.572434e-11
1.747956e-09
-8.521364e-11
2.687925e-09
-1.347895e-10
3.776106e-09
-1.911892e-10
4.993581e-09
-2.513029e-10
-3.152376e-10
6.326313e-09
3.936709e-10
-1.380476e-11
8.910682e-10
-4.373496e-11
1.575053e-09
-8.212024e-11
2.417677e-09
-1.304034e-10
3.386945e-09
-1.849909e-10
4.458419e-09
-2.429511e-10
-3.231601e-10
5.632447e-09
3.436115e-10
-1.203162e-11
8.000024e-10
-3.786048e-11
1.431755e-09
-7.117712e-11
2.217842e-09
-1.14868e-10
3.124683e-09
-1.614409e-10
4.131696e-09
-2.193186e-10
-4.498385e-10
5.386911e-09
2.814062e-10
-9.250399e-12
6.932706e-10
-2.993235e-11
1.282847e-09
-6.286246e-11
2.05837e-09
-1.211613e-10
2.961106e-09
-1.493452e-10
3.989233e-09
-2.188042e-10
-7.833927e-10
5.531361e-09
1.979082e-10
-6.425459e-12
5.548095e-10
-2.416636e-11
1.134743e-09
-9.953569e-11
1.912985e-09
-1.171839e-10
2.893581e-09
-1.70414e-10
4.020399e-09
-2.404577e-10
-3.441625e-10
4.790453e-09
1.074393e-10
-3.837691e-12
4.062151e-10
-1.968703e-11
8.156003e-10
-5.232852e-11
1.427449e-09
-9.065774e-11
2.192287e-09
-1.407469e-10
3.073213e-09
-2.015583e-10
-2.690378e-10
4.005458e-09
3.33698e-11
-1.259575e-12
2.482018e-10
-1.17812e-11
6.252221e-10
-3.648271e-11
1.152335e-09
-6.866491e-11
1.819905e-09
-1.07431e-10
2.602809e-09
-1.566887e-10
-2.53341e-10
3.514764e-09
-6.80708e-12
8.450598e-14
1.321688e-10
-4.802827e-12
4.296875e-10
-2.241987e-11
8.622276e-10
-4.832952e-11
1.430231e-09
-8.063385e-11
2.124629e-09
-1.213943e-10
-4.063594e-10
3.220385e-09
-2.133325e-11
-3.228289e-13
3.417114e-11
-6.419723e-13
2.431467e-10
-9.513488e-12
5.800801e-10
-3.127867e-11
1.127226e-09
-1.020252e-10
1.782192e-09
-1.028989e-10
-1.586973e-10
2.384061e-09
-1.917151e-11
-5.420389e-13
-2.217612e-11
8.591016e-13
8.87041e-11
-3.665638e-13
3.622861e-10
-2.237726e-11
7.192643e-10
-4.24374e-11
1.196984e-09
-6.016346e-11
-9.989198e-11
1.787072e-09
-1.597789e-11
-3.737657e-13
-3.448249e-11
1.26924e-12
-7.819775e-12
3.399943e-12
1.627743e-10
-2.020813e-12
4.23552e-10
-1.784244e-11
7.780055e-10
-3.52193e-11
-1.116262e-10
1.350737e-09
-1.318886e-11
4.823111e-14
-2.686714e-11
1.047303e-12
-3.651579e-11
3.444416e-12
2.436492e-11
4.952579e-12
1.89967e-10
-1.430536e-12
4.642416e-10
-2.776007e-11
-3.233659e-11
8.037009e-10
-1.07766e-11
3.046604e-13
-2.140175e-11
1.049802e-12
-3.277367e-11
2.763934e-12
-3.38982e-11
4.989834e-12
3.518457e-11
6.606189e-12
1.979328e-10
-2.867139e-12
-1.596703e-11
4.289854e-10
-9.068348e-12
3.336083e-13
-1.716777e-11
8.94711e-13
-2.559349e-11
2.061681e-12
-3.604737e-11
4.303097e-12
-2.937934e-11
4.612511e-12
3.733628e-11
3.744899e-12
-3.195857e-12
1.633701e-10
-7.730647e-12
1.707214e-13
-1.387872e-11
5.385275e-13
-2.025477e-11
1.572522e-12
-2.584193e-11
1.830562e-12
-3.236421e-11
1.88498e-12
-2.758771e-11
2.037893e-12
4.70132e-13
2.448892e-11
-6.601706e-12
-1.099639e-13
-1.142568e-11
1.254051e-13
-1.503892e-11
3.266137e-13
-1.864068e-11
2.959183e-13
-2.281484e-11
-3.630626e-15
-2.631191e-11
-1.27922e-12
-2.550473e-12
-2.366455e-11
-5.567415e-12
-4.355566e-13
-8.974615e-12
-6.511977e-13
-1.132072e-11
-6.749655e-13
-1.33172e-11
-8.373732e-13
-1.477276e-11
-1.731168e-12
-1.598766e-11
-3.068792e-12
-4.450727e-12
-1.699414e-11
-4.423889e-12
-7.935391e-13
-6.902317e-12
-1.446947e-12
-8.308683e-12
-1.66905e-12
-8.936773e-12
-1.948486e-12
-8.988047e-12
-2.795965e-12
-8.400428e-12
-4.087227e-12
-5.881008e-12
-6.730651e-12
-3.334362e-12
-1.09644e-12
-4.986675e-12
-2.192172e-12
-5.723051e-12
-2.60385e-12
-5.515711e-12
-2.954136e-12
-4.56466e-12
-3.577674e-12
-2.541602e-12
-4.822818e-12
-5.923174e-12
1.685468e-13
-2.366762e-12
-1.307492e-12
-3.257483e-12
-2.766297e-12
-3.352659e-12
-3.395325e-12
-2.606633e-12
-3.723175e-12
-9.104089e-13
-4.249761e-12
1.682543e-12
-5.030328e-12
-5.530626e-12
5.218417e-12
-1.558249e-12
-1.420982e-12
-1.7751e-12
-3.107578e-12
-1.349264e-12
-3.874651e-12
-1.224925e-13
-4.219534e-12
2.158462e-12
-4.743299e-12
5.050445e-12
-4.77394e-12
-4.915218e-12
9.062097e-12
-9.029517e-13
-1.443897e-12
-5.711212e-13
-3.208923e-12
3.14645e-13
-4.038632e-12
2.185637e-12
-4.571009e-12
4.440365e-12
-4.47281e-12
7.705743e-12
-4.362147e-12
-4.144675e-12
1.200483e-11
-3.937165e-13
-1.395104e-12
3.780756e-13
-3.126351e-12
1.624096e-12
-3.946526e-12
3.605487e-12
-4.416091e-12
6.249054e-12
-4.105074e-12
9.722373e-12
-3.7751e-12
-3.254184e-12
1.415904e-11
-3.425841e-15
-1.300884e-12
1.117181e-12
-2.932426e-12
2.811778e-12
-3.800734e-12
4.812358e-12
-3.837446e-12
7.591253e-12
-3.55372e-12
1.114895e-11
-3.061561e-12
-2.322791e-12
1.56006e-11
2.871098e-13
-1.180232e-12
1.740717e-12
-2.719532e-12
3.401399e-12
-3.309371e-12
5.634394e-12
-3.300997e-12
8.488802e-12
-2.935255e-12
1.204547e-11
-2.314174e-12
-1.43605e-12
1.641832e-11
4.880985e-13
-1.053057e-12
2.03621e-12
-2.406757e-12
3.849906e-12
-2.860706e-12
6.152422e-12
-2.76562e-12
9.000237e-12
-2.31443e-12
1.248254e-11
-1.607826e-12
-6.840263e-13
1.674966e-11
6.358558e-13
-9.330641e-13
2.254002e-12
-2.062222e-12
4.108783e-12
-2.419029e-12
6.402965e-12
-2.250356e-12
9.182065e-12
-1.739739e-12
1.252099e-11
-9.893719e-13
-4.172525e-14
1.65178e-11
6.835269e-13
-8.08639e-13
2.345268e-12
-1.760144e-12
4.195711e-12
-2.013148e-12
6.432961e-12
-1.783e-12
9.095686e-12
-1.23901e-12
1.224062e-11
-4.838575e-13
4.10653e-13
1.596619e-11
6.973183e-13
-6.948928e-13
2.347539e-12
-1.488211e-12
4.148958e-12
-1.652169e-12
6.293278e-12
-1.376546e-12
8.806911e-12
-8.188273e-13
1.174599e-11
-9.584838e-14
4.742095e-13
1.554034e-11
6.724004e-13
-5.928784e-13
2.277809e-12
-1.250725e-12
4.001755e-12
-1.340559e-12
6.031651e-12
-1.034003e-12
8.383677e-12
-4.755398e-13
1.108143e-11
2.253611e-13
7.74842e-13
1.43021e-11
6.198593e-13
-5.043297e-13
2.155066e-12
-1.047404e-12
3.782304e-12
-1.078603e-12
5.686975e-12
-7.540779e-13
7.879281e-12
-2.050915e-13
1.037562e-11
4.673111e-13
9.984793e-13
1.332277e-11
5.466132e-13
-4.288741e-13
1.994092e-12
-8.767392e-13
3.512441e-12
-8.635357e-13
5.286923e-12
-5.318984e-13
7.324632e-12
-1.731886e-15
9.654768e-12
6.252814e-13
1.161128e-12
1.236423e-11
4.588301e-13
-3.653211e-13
1.806671e-12
-7.354854e-13
3.208447e-12
-6.899644e-13
4.850396e-12
-3.591876e-13
6.7466e-12
1.416389e-13
9.092045e-12
6.204887e-13
1.415642e-12
1.142858e-11
3.608754e-13
-3.122095e-13
1.601449e-12
-6.196256e-13
2.882443e-12
-5.518216e-13
4.391193e-12
-2.276579e-13
6.134034e-12
2.498747e-13
8.210994e-12
7.120764e-13
1.455723e-12
1.047839e-11
2.562896e-13
-2.680594e-13
1.384474e-12
-5.25253e-13
2.542026e-12
-4.430735e-13
3.918426e-12
-1.304357e-13
5.520398e-12
3.208253e-13
7.437118e-12
7.605227e-13
1.437561e-12
9.550129e-12
1.471561e-13
-2.313777e-13
1.159712e-12
-4.483645e-13
2.192668e-12
-3.577545e-13
3.437569e-12
-6.068909e-14
4.908457e-12
3.566068e-13
6.669892e-12
7.823575e-13
1.394195e-12
8.634959e-12
3.491401e-14
-2.007041e-13
9.296296e-13
-3.848193e-13
1.836896e-12
-2.891169e-13
2.953166e-12
-9.212767e-15
4.359468e-12
3.445227e-13
5.910926e-12
8.443628e-13
1.34471e-12
7.730732e-12
-8.019888e-14
-1.746445e-13
6.943283e-13
-3.307597e-13
1.474668e-12
-2.309711e-13
2.457354e-12
3.664292e-14
3.694054e-12
3.795148e-13
5.141096e-12
8.421114e-13
1.29108e-12
6.832196e-12
-1.989501e-13
-1.518476e-13
4.521523e-13
-2.824669e-13
1.103379e-12
-1.778952e-13
1.954424e-12
7.96749e-14
3.053673e-12
4.108982e-13
4.369883e-12
8.329385e-13
1.244302e-12
5.932753e-12
-3.226684e-13
-1.309138e-13
2.003613e-13
-2.358334e-13
7.187696e-13
-1.233335e-13
1.435648e-12
1.291856e-13
2.397038e-12
4.540401e-13
3.582563e-12
8.396722e-13
1.216645e-12
5.02059e-12
-4.535537e-13
-1.103044e-13
-6.557646e-14
-1.864535e-13
3.135977e-13
-6.111944e-14
8.919973e-13
1.903173e-13
1.711958e-12
5.162579e-13
2.766191e-12
8.722211e-13
1.218405e-12
4.081179e-12
-5.946806e-13
-8.827853e-14
-3.52184e-13
-1.284841e-13
-1.227423e-13
1.989244e-14
3.091791e-13
2.921291e-13
9.828409e-13
6.102731e-13
1.903658e-12
9.441024e-13
1.260979e-12
3.096583e-12
-7.507796e-13
-6.252436e-14
-6.688596e-13
-5.465675e-14
-6.030995e-13
1.309807e-13
-3.265313e-13
4.394178e-13
1.879253e-13
7.534561e-13
9.73184e-13
1.069214e-12
1.356035e-12
2.045456e-12
-9.284095e-13
-2.979171e-14
-1.028979e-12
4.502683e-14
-1.146453e-12
2.859545e-13
-1.047638e-12
6.425834e-13
-6.951197e-13
9.587138e-13
-5.045223e-14
1.261607e-12
1.516104e-12
9.025804e-13
-1.137064e-12
1.48499e-14
-1.450913e-12
1.861461e-13
-1.779602e-12
5.088741e-13
-1.881602e-12
9.34509e-13
-1.702448e-12
1.256933e-12
-1.201343e-12
1.54295e-12
1.755643e-12
-3.624812e-13
-1.390394e-12
7.945853e-14
-1.962286e-12
3.929576e-13
-2.541328e-12
8.34716e-13
-2.872223e-12
1.353424e-12
-2.879717e-12
1.680239e-12
-2.521622e-12
1.936821e-12
2.089058e-12
-1.785842e-12
-1.710752e-12
1.778076e-13
-2.605769e-12
7.061482e-13
-3.489094e-12
1.318443e-12
-4.083259e-12
1.954386e-12
-4.288407e-12
2.27035e-12
-4.064709e-12
2.469674e-12
2.528491e-12
-3.409719e-12
-2.134213e-12
3.356031e-13
-3.448943e-12
1.198108e-12
-4.710506e-12
2.0492e-12
-5.606779e-12
2.816635e-12
-6.011777e-12
3.079402e-12
-5.897177e-12
3.16731e-12
3.079157e-12
-5.281872e-12
-2.722341e-12
6.069874e-13
-4.604475e-12
2.00271e-12
-6.350456e-12
3.177675e-12
-7.577412e-12
4.041451e-12
-8.160844e-12
4.164577e-12
-8.099637e-12
4.045973e-12
3.730634e-12
-7.445057e-12
-3.588489e-12
1.119381e-12
-6.274238e-12
3.387702e-12
-8.757689e-12
5.080072e-12
-1.020331e-11
5.643841e-12
-1.088097e-11
5.562942e-12
-1.07534e-11
5.094154e-12
4.091062e-12
-9.630879e-12
-4.96041e-12
2.210931e-12
-8.79844e-12
5.873435e-12
-1.192147e-11
7.914162e-12
-1.373115e-11
7.997809e-12
-1.433336e-11
7.295298e-12
-1.350338e-11
5.749678e-12
4.650356e-12
-1.230831e-11
-7.329834e-12
4.877751e-12
-1.284864e-11
1.053231e-11
-1.672483e-11
1.226958e-11
-1.852213e-11
1.107811e-11
-1.809994e-11
8.551549e-12
-1.703974e-11
6.6313e-12
5.015424e-12
-1.527558e-11
-1.185856e-11
1.259885e-11
-1.967666e-11
1.931805e-11
-2.388903e-11
1.859423e-11
-2.418309e-11
1.370678e-11
-2.312154e-11
9.958784e-12
-2.102929e-11
7.073189e-12
4.971099e-12
-1.843731e-11
-2.177612e-11
3.961746e-11
-3.146492e-11
3.834495e-11
-3.335187e-11
2.554627e-11
-3.19789e-11
1.608776e-11
-2.887301e-11
1.025909e-11
-2.525483e-11
6.599909e-12
4.268024e-12
-2.157549e-11
-5.090343e-11
1.376608e-10
-5.556994e-11
8.163382e-11
-4.811803e-11
3.326831e-11
-4.102369e-11
1.542279e-11
-3.478622e-11
8.192166e-12
-2.922594e-11
4.704455e-12
2.722125e-12
-2.433566e-11
-1.839373e-10
-1.205805e-10
-7.093266e-11
-5.004116e-11
-3.957084e-11
-3.218243e-11
-2.626119e-11
-2.191734e-11
-1.911709e-12
-1.776598e-11
-1.765219e-12
-7.264313e-12
-1.694201e-12
-7.276048e-12
-6.637878e-12
-6.315402e-13
6.149174e-12
-5.769663e-12
-6.893692e-13
5.528924e-12
-5.401612e-12
-6.951076e-13
5.39016e-12
-5.602915e-12
-7.108225e-13
-2.157211e-11
-3.58576e-12
-1.752518e-11
-3.005528e-12
-7.210597e-12
-2.656142e-12
-7.13638e-12
8.400375e-13
-6.607627e-12
-1.033758e-12
8.87852e-13
6.117509e-12
-5.730332e-12
-1.086945e-12
8.506222e-13
5.4864e-12
-5.356065e-12
-1.004044e-12
8.565794e-13
5.339654e-12
-5.54719e-12
-9.99515e-13
-2.029937e-11
-4.849282e-12
-1.659797e-11
-4.014499e-12
-1.369071e-11
-3.489656e-12
-5.856039e-12
-1.644173e-12
1.24725e-12
1.222019e-12
-5.727291e-12
-1.532923e-12
1.278452e-12
-5.495288e-12
-1.456876e-12
1.153007e-12
5.254373e-12
-5.125896e-12
-1.295685e-12
1.139196e-12
5.107841e-12
-5.308688e-12
-1.274274e-12
-1.831573e-11
-5.601067e-12
-1.508072e-11
-4.709703e-12
-6.305752e-12
-4.116547e-12
-6.094167e-12
-5.827402e-12
-1.806701e-12
1.624557e-12
5.401472e-12
-5.051605e-12
-1.783419e-12
1.430987e-12
4.835515e-12
-4.72123e-12
-1.558423e-12
1.402352e-12
4.710852e-12
-4.909436e-12
-1.523368e-12
-1.591257e-11
-5.891348e-12
-1.31845e-11
-5.094755e-12
-5.560902e-12
-4.530913e-12
-5.295854e-12
1.926526e-12
-5.152051e-12
-2.037297e-12
1.933584e-12
4.764991e-12
-4.447706e-12
-2.067918e-12
1.677491e-12
4.259714e-12
-4.163692e-12
-1.787329e-12
1.638277e-12
4.166492e-12
-4.394508e-12
-1.747527e-12
-1.334642e-11
-5.842487e-12
-1.108244e-11
-5.228487e-12
-4.688137e-12
-4.767414e-12
-4.393199e-12
2.130691e-12
-4.345759e-12
-2.207673e-12
2.185808e-12
-3.724662e-12
-2.287366e-12
4.005831e-12
1.88726e-12
3.561395e-12
-3.478803e-12
-1.977214e-12
1.8491e-12
3.486344e-12
-3.731005e-12
-1.94157e-12
-1.080386e-11
-5.589402e-12
-8.914318e-12
-5.187408e-12
-3.748295e-12
-4.865906e-12
-3.440464e-12
-3.447338e-12
-2.330075e-12
2.269225e-12
2.363937e-12
2.921746e-12
-2.906251e-12
-2.221486e-12
2.057313e-12
2.773428e-12
-2.70099e-12
-2.127832e-12
2.025013e-12
2.709989e-12
-2.959386e-12
-2.099539e-12
-8.391981e-12
-5.427366e-12
-6.78257e-12
-5.046209e-12
-2.788192e-12
-4.873414e-12
-2.477817e-12
2.36472e-12
-2.544791e-12
-2.389411e-12
2.261498e-12
-2.059531e-12
-2.306486e-12
2.250852e-12
2.189914e-12
1.930711e-12
-1.864311e-12
-2.244797e-12
2.166047e-12
1.871925e-12
-2.119101e-12
-2.225599e-12
-6.265362e-12
-4.988803e-12
-4.743153e-12
-4.937354e-12
-1.839475e-12
-4.835606e-12
-1.535565e-12
-1.623511e-12
-2.417708e-12
2.406283e-12
2.344917e-12
1.355537e-12
-1.181143e-12
-2.378065e-12
2.293721e-12
1.061907e-12
-9.98268e-13
-2.338049e-12
2.279258e-12
1.002224e-12
-1.240444e-12
-2.328338e-12
-4.13252e-12
-4.599551e-12
-2.819678e-12
-4.69871e-12
-9.219121e-13
-4.755247e-12
-6.302065e-13
2.425561e-12
-7.223212e-13
-2.431586e-12
2.407631e-12
4.699077e-13
-3.053128e-13
-2.435084e-12
2.378982e-12
1.905321e-13
-1.26249e-13
-2.417884e-12
2.374055e-12
1.248605e-13
-3.507111e-13
-2.417691e-12
-2.218753e-12
-4.285842e-12
-9.386796e-13
-4.503278e-12
-5.407808e-15
-4.669301e-12
2.929179e-13
2.437512e-12
1.455088e-13
-2.401273e-12
2.461894e-12
-3.904527e-13
5.518839e-13
-2.489317e-12
2.456023e-12
-6.667241e-13
7.347092e-13
-2.494636e-12
2.460494e-12
-7.428322e-13
5.313283e-13
-2.503646e-12
-5.047635e-13
-4.057794e-12
7.960825e-13
-4.368676e-12
8.724168e-13
-4.625775e-12
1.157722e-12
2.397323e-12
1.060662e-12
-2.397966e-12
2.518493e-12
-1.290721e-12
1.380403e-12
-2.4747e-12
2.534771e-12
-1.49934e-12
1.573507e-12
-2.577428e-12
2.548338e-12
-1.589336e-12
1.393212e-12
-2.595524e-12
1.0412e-12
-3.916383e-12
2.395342e-12
-4.303313e-12
1.699124e-12
-4.63774e-12
1.970454e-12
2.403758e-12
1.899142e-12
-2.416093e-12
2.496898e-12
-2.134825e-12
2.293915e-12
-2.524657e-12
2.62357e-12
-2.40951e-12
2.383187e-12
-2.565415e-12
2.646105e-12
-2.407364e-12
2.225397e-12
-2.701224e-12
2.451852e-12
-3.85823e-12
3.880999e-12
-4.310228e-12
2.478553e-12
-4.712174e-12
2.73799e-12
2.43479e-12
2.694499e-12
-2.461164e-12
2.558015e-12
-2.941881e-12
3.109401e-12
-2.59817e-12
2.608732e-12
-3.231202e-12
3.309522e-12
-2.658381e-12
2.761918e-12
-3.329161e-12
3.022455e-12
-2.695538e-12
3.758891e-12
-3.878827e-12
5.277487e-12
-4.389534e-12
3.219217e-12
-4.853276e-12
3.46999e-12
2.494766e-12
3.453436e-12
-2.536708e-12
2.644825e-12
-3.715243e-12
3.892355e-12
-2.699235e-12
2.713955e-12
-4.021345e-12
4.104627e-12
-2.776122e-12
2.756653e-12
-4.123626e-12
3.941541e-12
-2.822228e-12
4.991844e-12
-3.973508e-12
6.610464e-12
-4.540824e-12
3.931616e-12
-5.063357e-12
4.177575e-12
2.586336e-12
4.185737e-12
-2.645182e-12
2.761034e-12
-4.463901e-12
4.651131e-12
-2.831213e-12
2.844793e-12
-4.787219e-12
4.874414e-12
-2.92122e-12
2.892912e-12
-4.892742e-12
4.704025e-12
-2.971419e-12
6.178828e-12
-4.13875e-12
7.905902e-12
-4.763739e-12
4.62802e-12
-5.346084e-12
4.874116e-12
2.711808e-12
4.902459e-12
-2.786959e-12
2.909939e-12
-5.187252e-12
5.397201e-12
-3.002428e-12
3.005104e-12
-5.540584e-12
5.631352e-12
-3.097607e-12
3.057401e-12
-5.647302e-12
5.445978e-12
-3.151756e-12
7.345179e-12
-4.37183e-12
9.189183e-12
-5.058524e-12
5.322239e-12
-5.70356e-12
5.571699e-12
2.868245e-12
5.622055e-12
-2.96544e-12
3.195902e-12
-5.903304e-12
6.145101e-12
-3.306622e-12
3.199059e-12
-6.29393e-12
6.388874e-12
-3.310674e-12
3.254453e-12
-6.40236e-12
6.180343e-12
-3.367253e-12
8.514741e-12
-4.671349e-12
1.048316e-11
-5.425278e-12
6.023537e-12
-6.137207e-12
6.280804e-12
3.07044e-12
6.347086e-12
-3.186013e-12
3.420464e-12
-6.650803e-12
6.905487e-12
-3.546102e-12
3.431771e-12
-7.061853e-12
7.16047e-12
-3.563205e-12
3.48905e-12
-7.171233e-12
6.922716e-12
-3.621419e-12
9.708815e-12
-5.038121e-12
1.181076e-11
-5.865641e-12
6.745357e-12
-6.650285e-12
7.014365e-12
3.310953e-12
7.093973e-12
-3.447367e-12
3.683304e-12
-7.418982e-12
7.69141e-12
-3.833822e-12
3.70511e-12
-7.856753e-12
7.959344e-12
-3.858715e-12
3.76385e-12
-7.965707e-12
7.68182e-12
-3.918177e-12
1.094679e-11
-5.473208e-12
1.319233e-11
-6.381553e-12
7.498707e-12
-7.244299e-12
7.782726e-12
3.593728e-12
7.875188e-12
-3.752321e-12
3.996586e-12
-8.223828e-12
8.516011e-12
-4.173595e-12
4.023697e-12
-8.691348e-12
8.798434e-12
-4.201727e-12
4.083982e-12
-8.799942e-12
8.468027e-12
-4.263147e-12
1.224744e-11
-5.978905e-12
1.464473e-11
-6.975685e-12
8.291582e-12
-7.917454e-12
8.592066e-12
3.920732e-12
8.698322e-12
-4.100399e-12
4.363517e-12
-9.074268e-12
9.390011e-12
-4.568837e-12
4.391697e-12
-9.577333e-12
9.689474e-12
-4.595494e-12
4.454764e-12
-9.685732e-12
9.297494e-12
-4.659869e-12
1.363075e-11
-6.557848e-12
1.61838e-11
-7.658473e-12
9.127493e-12
-8.690003e-12
9.4483e-12
4.287944e-12
9.56651e-12
-4.476926e-12
4.787201e-12
-9.973336e-12
1.030831e-11
-5.00639e-12
4.812034e-12
-1.052324e-11
1.064321e-11
-5.042582e-12
4.878392e-12
-1.063364e-11
1.017673e-11
-5.111726e-12
1.51304e-11
-7.228461e-12
1.785736e-11
-8.448e-12
2.035035e-11
-9.599774e-12
1.099705e-11
-5.245512e-12
4.892518e-12
4.722002e-12
1.138075e-11
-5.367798e-12
5.151425e-12
1.120959e-11
-5.326151e-12
5.29808e-12
-1.15364e-11
1.167115e-11
-5.570305e-12
5.358385e-12
-1.165553e-11
1.111404e-11
-5.622096e-12
1.678788e-11
-7.997299e-12
1.975274e-11
-9.354373e-12
1.106662e-11
-1.063937e-11
1.147181e-11
1.156933e-11
-5.486579e-12
5.592991e-12
-1.204473e-11
1.239856e-11
-5.884578e-12
5.849161e-12
-1.267186e-11
1.279532e-11
-6.144734e-12
5.900519e-12
-1.276854e-11
1.211977e-11
-6.196158e-12
1.862069e-11
-8.877859e-12
2.184041e-11
-1.039277e-11
1.220525e-11
-1.180272e-11
1.264656e-11
5.761239e-12
1.274775e-11
-6.060474e-12
6.192749e-12
-1.325564e-11
1.362395e-11
-6.515436e-12
6.456445e-12
-1.39004e-11
1.401916e-11
-6.785088e-12
6.507177e-12
-1.397729e-11
1.320027e-11
-6.834384e-12
2.067509e-11
-9.875938e-12
2.417449e-11
-1.160808e-11
1.345413e-11
-1.314131e-11
1.394367e-11
6.375481e-12
1.402522e-11
-6.712497e-12
6.850337e-12
-1.456099e-11
1.49432e-11
-7.202881e-12
7.128799e-12
-1.520462e-11
1.533399e-11
-7.505908e-12
7.176251e-12
-1.527285e-11
1.433872e-11
-7.532938e-12
2.303003e-11
-1.097516e-11
2.686136e-11
-6.393436e-12
-6.688343e-12
1.486072e-11
-7.243484e-12