/*--------------------------------*- C++ -*----------------------------------*\
| =========                 |                                                 |
| \\      /  F ield         | OpenFOAM: The Open Source CFD Toolbox           |
|  \\    /   O peration     | Version:  2206                                  |
|   \\  /    A nd           | Website:  www.openfoam.com                      |
|    \\/     M anipulation  |                                                 |
\*---------------------------------------------------------------------------*/
FoamFile
{
    version     2.0;
    format      ascii;
    arch        "LSB;label=32;scalar=64";
    class       surfaceScalarField;
    location    "2.8";
    object      phi.b;
}
// * * * * * * * * * * * * * * * * * * * * * * * * * * * * * * * * * * * * * //

dimensions      [0 3 -1 0 0 0 0];

oriented        oriented;

internalField   nonuniform List<scalar> 
26037
(
3.826352e-10
1.327117e-10
1.607701e-10
5.051499e-11
5.587546e-11
1.384732e-11
1.8935e-11
-3.120896e-12
5.257522e-12
-3.223867e-12
-4.195273e-12
-3.207249e-12
-3.784624e-12
-1.233204e-11
2.069925e-10
2.940078e-10
1.20945e-10
1.081179e-10
5.229098e-11
3.21177e-11
2.134257e-11
8.968988e-12
6.452536e-12
3.898059e-12
-3.95262e-12
1.494777e-12
-4.012646e-13
-1.241306e-11
9.267923e-11
1.477196e-10
6.857749e-11
7.703559e-11
3.944808e-11
3.925837e-11
1.957971e-11
1.937401e-11
6.178119e-12
1.117103e-11
-4.134217e-12
6.51288e-12
3.350494e-12
-1.263633e-11
4.29829e-11
9.710952e-11
4.09041e-11
6.515279e-11
2.935486e-11
4.28337e-11
1.610225e-11
2.704042e-11
4.789379e-12
1.750531e-11
-4.837303e-12
1.157744e-11
7.402568e-12
-1.313452e-11
2.423926e-11
7.845055e-11
2.678492e-11
6.094446e-11
2.092781e-11
4.557379e-11
1.199182e-11
3.234792e-11
2.73344e-12
2.310166e-11
-6.062246e-12
1.671282e-11
1.174438e-11
-1.404917e-11
1.50376e-11
6.997498e-11
1.78053e-11
5.930047e-11
1.431166e-11
4.82534e-11
7.537934e-12
3.720012e-11
-3.280648e-13
2.83976e-11
-7.854466e-12
2.139347e-11
1.634813e-11
-1.54853e-11
9.261189e-12
6.616625e-11
1.117506e-11
5.923455e-11
9.249897e-12
5.051118e-11
3.149565e-12
4.243019e-11
-3.74207e-12
3.363813e-11
-1.106879e-11
2.650721e-11
2.029039e-11
-1.75325e-11
5.279086e-12
6.521903e-11
5.833469e-12
6.047091e-11
3.458142e-12
5.365606e-11
-1.456851e-12
4.703592e-11
-7.639881e-12
3.874368e-11
-1.444782e-11
3.16306e-11
2.507252e-11
-2.137399e-11
2.358838e-12
6.630416e-11
1.537012e-12
6.278065e-11
-1.303909e-12
5.731998e-11
-6.053496e-12
5.173151e-11
-1.192939e-11
4.386937e-11
-1.843961e-11
3.679374e-11
2.994763e-11
-2.513545e-11
1.116189e-13
6.896285e-11
-2.157654e-12
6.618597e-11
-5.7007e-12
6.157783e-11
-1.068798e-11
5.673068e-11
-1.656274e-11
4.915023e-11
-2.299015e-11
4.207358e-11
3.494722e-11
-2.960442e-11
-1.788827e-12
7.30047e-11
-5.447435e-12
7.064492e-11
-9.88213e-12
6.65511e-11
-1.538406e-11
6.220148e-11
-2.151872e-11
5.473505e-11
-2.807333e-11
4.757823e-11
4.014007e-11
-3.475855e-11
-3.473406e-12
7.832354e-11
-8.504e-12
7.617263e-11
-1.396184e-11
7.234859e-11
-2.019054e-11
6.829816e-11
-2.680659e-11
6.077505e-11
-3.368572e-11
5.343413e-11
4.561965e-11
-4.059849e-11
-5.053158e-12
8.48892e-11
-1.1462e-11
8.280899e-11
-1.80481e-11
7.907329e-11
-2.51703e-11
7.515778e-11
-3.24656e-11
6.742555e-11
-3.984776e-11
5.977219e-11
5.149452e-11
-4.714225e-11
-6.605649e-12
9.272605e-11
-1.442764e-11
9.061681e-11
-2.223868e-11
8.68259e-11
-3.029372e-11
8.279798e-11
-3.855079e-11
7.493271e-11
-4.660078e-11
6.67235e-11
5.788348e-11
-5.442822e-11
-8.187166e-12
1.018987e-10
-1.749001e-11
9.968598e-11
-2.65791e-11
9.566896e-11
-3.45252e-11
9.019366e-11
-4.500521e-11
8.454641e-11
-5.399794e-11
7.454871e-11
6.491726e-11
-6.250945e-11
-9.836319e-12
1.124983e-10
-2.070378e-11
1.101151e-10
-3.129144e-11
1.058284e-10
-4.169325e-11
9.990952e-11
-5.226258e-11
9.412064e-11
-6.213988e-11
8.317309e-11
7.271366e-11
-7.146921e-11
-1.159475e-11
1.246492e-10
-2.415146e-11
1.220384e-10
-3.63316e-11
1.174001e-10
-4.827088e-11
1.110053e-10
-6.009294e-11
1.048129e-10
-7.110379e-11
9.283339e-11
8.140786e-11
-8.139782e-11
-1.34923e-11
1.384994e-10
-2.788312e-11
1.356059e-10
-4.180235e-11
1.305333e-10
-5.535204e-11
1.235549e-10
-6.866756e-11
1.168623e-10
-8.099918e-11
1.037099e-10
9.113717e-11
-9.240405e-11
-1.555794e-11
1.542205e-10
-3.195356e-11
1.509888e-10
-4.778607e-11
1.453998e-10
-6.311658e-11
1.377228e-10
-7.788779e-11
1.302151e-10
-9.193425e-11
1.16173e-10
1.02053e-10
-1.04612e-10
-1.781986e-11
1.720075e-10
-3.641797e-11
1.683821e-10
-5.436995e-11
1.62202e-10
-7.159049e-11
1.536154e-10
-8.593643e-11
1.430241e-10
-1.038297e-10
1.323357e-10
1.145224e-10
-1.181469e-10
-2.030317e-11
1.92077e-10
-4.131714e-11
1.879932e-10
-6.15823e-11
1.811257e-10
-8.107442e-11
1.71605e-10
-9.946677e-11
1.597692e-10
-1.173985e-10
1.483875e-10
1.283846e-10
-1.332051e-10
-2.303917e-11
2.146742e-10
-4.67227e-11
2.100667e-10
-6.956753e-11
2.024269e-10
-9.152609e-11
1.918726e-10
-1.12345e-10
1.787747e-10
-1.322658e-10
1.662771e-10
1.440104e-10
-1.499434e-10
-2.605489e-11
2.400693e-10
-5.268338e-11
2.348675e-10
-7.838038e-11
2.263662e-10
-1.030568e-10
2.146587e-10
-1.263993e-10
2.001252e-10
-1.483506e-10
1.860249e-10
1.62009e-10
-1.685426e-10
-2.937783e-11
2.685588e-10
-5.925242e-11
2.626849e-10
-8.810152e-11
2.532305e-10
-1.158144e-10
2.402686e-10
-1.418955e-10
2.240242e-10
-1.631902e-10
2.049966e-10
1.853949e-10
-1.889568e-10
-3.303347e-11
3.004639e-10
-6.647685e-11
2.938295e-10
-9.878635e-11
2.833138e-10
-1.297954e-10
2.689444e-10
-1.59105e-10
2.509403e-10
-1.862605e-10
2.29721e-10
2.086684e-10
-2.121174e-10
-3.705208e-11
3.361373e-10
-7.442041e-11
3.28646e-10
-1.10548e-10
3.169597e-10
-1.452486e-10
3.010639e-10
-1.781333e-10
2.811939e-10
-2.088675e-10
2.578105e-10
2.347816e-10
-2.377726e-10
-4.144539e-11
3.759458e-10
-8.313754e-11
3.675255e-10
-1.234566e-10
3.545311e-10
-1.62207e-10
3.369702e-10
-1.989864e-10
3.150828e-10
-2.334146e-10
2.893406e-10
2.638476e-10
-2.655416e-10
-4.599796e-11
4.200465e-10
-9.26736e-11
4.111257e-10
-1.375864e-10
3.964269e-10
-1.807746e-10
3.770409e-10
-2.218448e-10
3.529803e-10
-2.602487e-10
3.245502e-10
2.923999e-10
-2.921011e-10
-5.112928e-11
4.690227e-10
-1.031083e-10
4.597717e-10
-1.530402e-10
4.430793e-10
-2.010547e-10
4.216658e-10
-2.466461e-10
3.95103e-10
-2.891514e-10
3.63516e-10
3.26989e-10
-3.273338e-10
-5.261615e-11
5.192472e-10
-1.138237e-10
5.173959e-10
-1.699112e-10
4.95653e-10
-2.233533e-10
4.714722e-10
-2.74257e-10
4.422608e-10
-3.222047e-10
4.075834e-10
3.674669e-10
-3.667067e-10
-6.240381e-11
5.790856e-10
-1.258689e-10
5.770987e-10
-1.882708e-10
5.543455e-10
-2.477103e-10
5.270809e-10
-3.044806e-10
4.9506e-10
-3.583984e-10
4.573343e-10
4.136541e-10
-4.089903e-10
-6.920822e-11
6.455854e-10
-1.295775e-10
6.336268e-10
-2.057561e-10
6.266615e-10
-2.740111e-10
5.913775e-10
-3.372237e-10
5.541634e-10
-3.973652e-10
5.131106e-10
4.654281e-10
-4.538356e-10
-7.648662e-11
7.19313e-10
-1.51398e-10
7.047805e-10
-2.140888e-10
6.855578e-10
-3.009069e-10
6.742027e-10
-3.726588e-10
6.217984e-10
-4.400922e-10
5.76093e-10
5.242321e-10
-5.037943e-10
-8.389512e-11
8.005272e-10
-1.669434e-10
7.842566e-10
-2.476797e-10
7.627908e-10
-3.300454e-10
7.527332e-10
-4.106753e-10
6.984085e-10
-4.864615e-10
6.474523e-10
5.913739e-10
-5.585951e-10
-9.15319e-11
8.89646e-10
-1.821505e-10
8.716595e-10
-2.708891e-10
8.483872e-10
-3.414169e-10
8.19806e-10
-4.464613e-10
7.995714e-10
-5.359377e-10
7.325799e-10
6.680812e-10
-6.176068e-10
-9.885369e-11
9.86585e-10
-1.966506e-10
9.667718e-10
-2.937169e-10
9.42729e-10
-3.887391e-10
9.11759e-10
-4.675069e-10
8.746805e-10
-5.861887e-10
8.469284e-10
7.583305e-10
-6.811731e-10
-1.054188e-10
1.090852e-09
-2.099675e-10
1.069235e-09
-3.146523e-10
1.044945e-09
-4.20261e-10
1.014375e-09
-5.256975e-10
9.767218e-10
-6.378592e-10
9.550498e-10
8.657663e-10
-7.493497e-10
-1.102945e-10
1.200976e-09
-2.208225e-10
1.178131e-09
-3.330878e-10
1.154709e-09
-4.485327e-10
1.126749e-09
-5.66894e-10
1.091916e-09
-6.649281e-10
1.05005e-09
1.0176e-09
-8.190841e-10
-1.106045e-10
1.312416e-09
-2.276488e-10
1.293782e-09
-3.467287e-10
1.271201e-09
-4.708384e-10
1.247975e-09
-6.010675e-10
1.219749e-09
-7.360137e-10
1.183857e-09
1.16991e-09
-8.872868e-10
-9.717153e-11
1.411285e-09
-2.249886e-10
1.420462e-09
-3.531424e-10
1.397051e-09
-4.85506e-10
1.378214e-09
-6.279772e-10
1.3614e-09
-7.817497e-10
1.339061e-09
1.308724e-09
-9.152951e-10
-1.042119e-10
1.517854e-09
-1.941941e-10
1.50982e-09
-3.422913e-10
1.543785e-09
-4.858748e-10
1.521171e-09
-6.370528e-10
1.51406e-09
-8.052821e-10
1.512017e-09
1.49618e-09
-9.829742e-10
-9.704614e-11
1.617845e-09
-2.014687e-10
1.614634e-09
-2.842042e-10
1.626804e-09
-4.575446e-10
1.696264e-09
-6.220405e-10
1.682931e-09
-7.902247e-10
1.689374e-09
1.662866e-09
-9.390445e-10
-8.299482e-11
1.704373e-09
-1.78315e-10
1.711986e-09
-2.805114e-10
1.731734e-09
-3.560945e-10
1.77638e-09
-5.50973e-10
1.887036e-09
-6.840999e-10
1.840227e-09
1.773072e-09
-7.655356e-10
-6.094535e-11
1.769657e-09
-1.391639e-10
1.794739e-09
-2.271197e-10
1.82581e-09
-3.235568e-10
1.88115e-09
-3.390321e-10
1.920054e-09
-4.621784e-10
1.994456e-09
1.840115e-09
-4.896912e-10
-2.208412e-11
1.797838e-09
-8.093338e-11
1.862025e-09
-1.394376e-10
1.894961e-09
-1.905668e-10
1.949317e-09
-1.898217e-10
1.94677e-09
-6.170975e-11
1.906784e-09
1.943852e-09
-1.130092e-10
-2.243973e-12
1.809539e-09
1.644521e-11
1.856779e-09
2.63963e-11
1.904121e-09
1.598862e-11
1.990713e-09
7.001963e-11
1.932033e-09
1.78078e-10
1.844951e-09
1.741782e-09
4.393862e-10
3.591222e-11
1.78792e-09
7.483368e-11
1.837445e-09
1.450587e-10
1.863697e-09
3.158697e-10
1.862831e-09
3.87077e-10
1.914946e-09
5.544028e-10
1.734811e-09
1.619627e-09
7.398404e-10
8.374505e-11
1.724075e-09
1.868588e-10
1.763285e-09
3.253965e-10
1.766969e-09
5.019216e-10
1.737454e-09
8.136029e-10
1.667783e-09
1.071541e-09
1.548797e-09
1.605007e-09
1.17407e-09
1.405594e-10
1.610271e-09
3.147276e-10
1.628479e-09
5.192249e-10
1.614198e-09
7.48033e-10
1.569784e-09
1.002973e-09
1.481592e-09
1.278245e-09
1.351035e-09
1.211437e-09
1.790571e-09
1.999702e-10
1.44545e-09
4.359793e-10
1.441264e-09
6.948168e-10
1.415651e-09
9.763528e-10
1.357811e-09
1.273868e-09
1.262556e-09
1.588222e-09
1.134232e-09
9.854075e-10
1.974709e-09
2.832645e-10
1.207597e-09
5.972045e-10
1.186014e-09
8.454598e-10
1.235949e-09
1.162898e-09
1.117823e-09
1.508667e-09
1.007964e-09
1.890733e-09
8.856674e-10
7.825296e-10
2.318144e-09
3.239004e-10
9.391988e-10
6.651317e-10
9.091179e-10
1.113016e-09
8.643641e-10
1.524709e-09
7.991107e-10
1.981411e-09
6.748989e-10
2.50388e-09
5.702655e-10
7.827325e-10
2.80986e-09
3.674352e-10
6.37174e-10
7.407723e-10
6.07076e-10
1.130306e-09
5.557185e-10
1.544254e-09
4.834878e-10
1.970753e-09
3.931224e-10
2.466143e-09
3.057285e-10
3.116485e-10
3.247694e-09
3.925528e-10
3.184266e-10
7.871413e-10
2.908524e-10
1.187043e-09
2.468757e-10
1.599749e-09
1.896102e-10
2.046101e-09
1.280485e-10
2.542468e-09
6.515971e-11
-7.75976e-12
3.134415e-09
4.073813e-10
-7.947387e-12
8.201901e-10
-3.478321e-11
1.243893e-09
-6.951039e-11
1.690894e-09
-1.088625e-10
2.183254e-09
-1.445781e-10
2.709471e-09
-1.857428e-10
-2.484389e-10
3.213388e-09
4.26349e-10
-3.453864e-10
8.673426e-10
-3.749785e-10
1.333932e-09
-4.047942e-10
1.841374e-09
-4.318337e-10
2.405203e-09
-4.525629e-10
2.993884e-09
-4.775837e-10
-5.168919e-10
3.541049e-09
4.189556e-10
-6.700741e-10
8.591639e-10
-6.998121e-10
1.332986e-09
-7.243507e-10
1.850455e-09
-7.416042e-10
2.414366e-09
-7.505808e-10
2.991593e-09
-7.603923e-10
-7.728938e-10
3.525931e-09
3.807441e-10
-9.546452e-10
7.869043e-10
-9.80121e-10
1.224613e-09
-9.956003e-10
1.693287e-09
-1.000673e-09
2.187057e-09
-9.938048e-10
2.680066e-09
-9.826413e-10
-9.768831e-10
3.143585e-09
3.48117e-10
-1.206705e-09
7.294187e-10
-1.226763e-09
1.146453e-09
-1.235471e-09
1.589827e-09
-1.23147e-09
2.046948e-09
-1.207371e-09
2.504451e-09
-1.178289e-09
-1.247554e-09
3.037026e-09
3.091285e-10
-1.42417e-09
6.619763e-10
-1.43896e-09
1.070518e-09
-1.454586e-09
1.525282e-09
-1.46156e-09
1.982054e-09
-1.411424e-09
2.452957e-09
-1.376257e-09
-1.668288e-09
3.168242e-09
2.519989e-10
-1.594392e-09
5.637428e-10
-1.609753e-09
1.039602e-09
-1.720104e-09
1.503598e-09
-1.667655e-09
2.016097e-09
-1.639143e-09
2.54633e-09
-1.598049e-09
-1.560146e-09
2.748427e-09
2.032324e-10
-1.728371e-09
4.746906e-10
-1.746303e-09
7.282024e-10
-1.770719e-09
1.08931e-09
-1.788677e-09
1.488721e-09
-1.781131e-09
1.904181e-09
-1.742892e-09
-1.670347e-09
2.290469e-09
1.158787e-10
-1.790116e-09
2.975272e-10
-1.818725e-09
5.529684e-10
-1.844066e-09
8.780566e-10
-1.873986e-09
1.23707e-09
-1.877218e-09
1.606908e-09
-1.841213e-09
-1.795968e-09
2.010526e-09
6.245993e-11
-1.81062e-09
1.752561e-10
-1.849257e-09
3.610044e-10
-1.876918e-09
6.262733e-10
-1.910715e-09
9.502003e-10
-1.932959e-09
1.295235e-09
-1.91109e-09
-2.087768e-09
1.888797e-09
1.734373e-11
-1.794987e-09
5.974437e-11
-1.836564e-09
1.638634e-10
-1.86932e-09
3.594449e-10
-1.908309e-09
7.497298e-10
-2.039405e-09
1.10186e-09
-1.963241e-09
-1.947387e-09
1.258365e-09
-1.655891e-11
-1.751638e-09
-3.003302e-11
-1.788376e-09
-1.907181e-12
-1.829116e-09
1.627004e-10
-1.919047e-09
3.071395e-10
-1.926556e-09
5.659587e-10
-1.939646e-09
-1.936586e-09
8.261082e-10
-4.147876e-11
-1.688099e-09
-6.521436e-11
-1.739595e-09
-9.16323e-11
-1.763794e-09
-1.076633e-10
-1.810672e-09
-9.99238e-12
-1.833841e-09
1.905995e-10
-1.868986e-09
-1.981269e-09
5.297875e-10
-5.061749e-11
-1.619106e-09
-1.343828e-10
-1.636376e-09
-2.150478e-10
-1.65938e-09
-2.805662e-10
-1.700274e-09
-2.658751e-10
-1.733172e-09
-8.476146e-11
-1.809078e-09
-1.794373e-09
2.543835e-11
-7.752019e-11
-1.52587e-09
-1.692721e-10
-1.529438e-09
-2.676959e-10
-1.543645e-09
-3.713235e-10
-1.573178e-09
-4.112794e-10
-1.637472e-09
-4.445742e-10
-1.623802e-09
-1.648175e-09
-3.343925e-10
-8.997187e-11
-1.422156e-09
-1.887591e-10
-1.418522e-09
-2.929572e-10
-1.426065e-09
-3.85307e-10
-1.46448e-09
-5.413916e-10
-1.456745e-09
-6.429619e-10
-1.461335e-09
-1.46335e-09
-6.577015e-10
-9.607986e-11
-1.314091e-09
-1.969448e-10
-1.30787e-09
-2.869781e-10
-1.325739e-09
-4.294256e-10
-1.309987e-09
-5.685445e-10
-1.303671e-09
-7.050339e-10
-1.303332e-09
-1.279492e-09
-8.248297e-10
-9.744851e-11
-1.206315e-09
-1.866407e-10
-1.210664e-09
-3.099522e-10
-1.194891e-09
-4.306457e-10
-1.181337e-09
-5.525396e-10
-1.172403e-09
-6.998704e-10
-1.145317e-09
-1.116612e-09
-8.477211e-10
-9.029261e-11
-1.107345e-09
-1.981551e-10
-1.096311e-09
-3.060795e-10
-1.081556e-09
-4.113585e-10
-1.070892e-09
-5.35893e-10
-1.042539e-09
-6.632825e-10
-1.012593e-09
-1.005644e-09
-7.682758e-10
-9.479297e-11
-1.005648e-09
-1.935602e-10
-9.924688e-10
-2.928477e-10
-9.782559e-10
-3.969977e-10
-9.635204e-10
-5.049894e-10
-9.320809e-10
-6.151332e-10
-9.006459e-10
-8.81633e-10
-7.377987e-10
-9.183949e-11
-9.086374e-10
-1.833664e-10
-8.972682e-10
-2.729335e-10
-8.858289e-10
-3.729467e-10
-8.616897e-10
-4.700286e-10
-8.343294e-10
-5.497644e-10
-8.215128e-10
-7.537245e-10
-6.79891e-10
-8.581399e-11
-8.191952e-10
-1.690738e-10
-8.117683e-10
-2.585335e-10
-7.947558e-10
-3.46663e-10
-7.729521e-10
-4.260842e-10
-7.555188e-10
-5.274288e-10
-7.223916e-10
-6.617404e-10
-6.234888e-10
-7.930346e-11
-7.375597e-10
-1.594107e-10
-7.307517e-10
-2.396323e-10
-7.141879e-10
-3.185156e-10
-6.946311e-10
-3.909542e-10
-6.848849e-10
-4.856508e-10
-6.311465e-10
-5.847164e-10
-5.678706e-10
-7.153195e-11
-6.647478e-10
-1.46519e-10
-6.559886e-10
-2.19513e-10
-6.419823e-10
-2.772721e-10
-6.386115e-10
-3.673851e-10
-5.97713e-10
-4.429834e-10
-5.598638e-10
-5.184766e-10
-5.151784e-10
-6.644642e-11
-5.978302e-10
-1.337637e-10
-5.89778e-10
-1.998279e-10
-5.775885e-10
-2.682154e-10
-5.728524e-10
-3.364417e-10
-5.331711e-10
-4.017809e-10
-4.994627e-10
-4.607429e-10
-4.659392e-10
-6.035218e-11
-5.37612e-10
-1.207577e-10
-5.311259e-10
-1.714596e-10
-5.292751e-10
-2.440094e-10
-5.035899e-10
-3.048344e-10
-4.765248e-10
-3.632785e-10
-4.463128e-10
-4.10463e-10
-4.201468e-10
-5.452329e-11
-4.836615e-10
-1.02659e-10
-4.852407e-10
-1.651781e-10
-4.695871e-10
-2.219807e-10
-4.503598e-10
-2.756323e-10
-4.272863e-10
-3.279027e-10
-3.994343e-10
-3.664308e-10
-3.784245e-10
-4.910633e-11
-4.354134e-10
-1.001227e-10
-4.367452e-10
-1.511285e-10
-4.215774e-10
-2.006014e-10
-4.045797e-10
-2.488477e-10
-3.834807e-10
-2.957795e-10
-3.577822e-10
-3.274226e-10
-3.410098e-10
-4.11666e-11
-3.953e-10
-9.056299e-11
-3.900191e-10
-1.364453e-10
-3.787523e-10
-1.809768e-10
-3.637218e-10
-2.243016e-10
-3.444682e-10
-2.66117e-10
-3.209714e-10
-2.932195e-10
-3.060773e-10
-4.029349e-11
-3.561284e-10
-8.218143e-11
-3.508052e-10
-1.230733e-10
-3.408723e-10
-1.631499e-10
-3.271922e-10
-2.020237e-10
-3.09672e-10
-2.391656e-10
-2.884508e-10
-2.640618e-10
-2.734993e-10
-3.633476e-11
-3.209192e-10
-7.404476e-11
-3.157163e-10
-1.109079e-10
-3.069007e-10
-1.470338e-10
-2.944174e-10
-1.821209e-10
-2.783709e-10
-2.156825e-10
-2.591002e-10
-2.408218e-10
-2.436966e-10
-3.286064e-11
-2.891319e-10
-6.664489e-11
-2.844467e-10
-9.983085e-11
-2.764396e-10
-1.323268e-10
-2.650416e-10
-1.638204e-10
-2.503581e-10
-1.940141e-10
-2.327261e-10
-2.16192e-10
-2.229905e-10
-2.949503e-11
-2.606174e-10
-5.989342e-11
-2.564217e-10
-8.972607e-11
-2.491376e-10
-1.189058e-10
-2.387371e-10
-1.47126e-10
-2.2532e-10
-1.741195e-10
-2.091974e-10
-1.939656e-10
-2.002606e-10
-2.641463e-11
-2.350626e-10
-5.37387e-11
-2.313075e-10
-8.051301e-11
-2.24686e-10
-1.066637e-10
-2.152156e-10
-1.318692e-10
-2.030114e-10
-1.557186e-10
-1.884958e-10
-1.740677e-10
-1.791646e-10
-2.360544e-11
-2.121779e-10
-4.812832e-11
-2.088188e-10
-7.212454e-11
-2.028012e-10
-9.556235e-11
-1.941681e-10
-1.180022e-10
-1.832094e-10
-1.362624e-10
-1.732045e-10
-1.535789e-10
-1.599607e-10
-2.104143e-11
-1.917061e-10
-4.300788e-11
-1.887056e-10
-6.446639e-11
-1.832446e-10
-8.540087e-11
-1.753948e-10
-1.055585e-10
-1.654471e-10
-1.249042e-10
-1.566106e-10
-1.381971e-10
-1.431453e-10
-1.870232e-11
-1.734153e-10
-3.833978e-11
-1.707386e-10
-5.749439e-11
-1.657868e-10
-7.618153e-11
-1.586496e-10
-9.419692e-11
-1.495977e-10
-1.117989e-10
-1.415058e-10
-1.248608e-10
-1.277367e-10
-1.656743e-11
-1.570969e-10
-3.408333e-11
-1.547113e-10
-5.114586e-11
-1.502221e-10
-6.778621e-11
-1.437415e-10
-8.370844e-11
-1.356263e-10
-9.958868e-11
-1.278945e-10
-1.130117e-10
-1.138309e-10
-1.461678e-11
-1.425646e-10
-3.020239e-11
-1.404347e-10
-4.538013e-11
-1.363505e-10
-6.010562e-11
-1.305545e-10
-7.219907e-11
-1.253421e-10
-8.836553e-11
-1.137869e-10
-1.023082e-10
-1.012812e-10
-1.282786e-11
-1.296545e-10
-2.664355e-11
-1.277506e-10
-4.008699e-11
-1.24028e-10
-5.325905e-11
-1.187371e-10
-6.611365e-11
-1.141381e-10
-7.856043e-11
-1.031858e-10
-9.296254e-11
-8.99604e-11
-1.118355e-11
-1.182189e-10
-2.337921e-11
-1.165095e-10
-3.524925e-11
-1.130979e-10
-4.692822e-11
-1.082351e-10
-5.856062e-11
-1.039747e-10
-6.947002e-11
-9.395028e-11
-8.463365e-11
-7.970913e-11
-9.664307e-12
-1.081276e-10
-2.037028e-11
-1.0658e-10
-3.080345e-11
-1.034273e-10
-4.11248e-11
-9.892172e-11
-5.146866e-11
-9.493745e-11
-6.120751e-11
-8.574288e-11
-7.719521e-11
-7.043157e-11
-8.250274e-12
-9.926771e-11
-1.757864e-11
-9.784654e-11
-2.668962e-11
-9.490082e-11
-3.56885e-11
-9.076202e-11
-4.496196e-11
-8.681226e-11
-5.369247e-11
-7.841295e-11
-7.053284e-11
-6.203084e-11
-6.921242e-12
-9.154221e-11
-1.496967e-11
-9.020476e-11
-2.281603e-11
-8.746148e-11
-2.945526e-11
-8.482275e-11
-3.888404e-11
-7.83851e-11
-4.684032e-11
-7.174123e-11
-6.453333e-11
-5.442186e-11
-5.64837e-12
-8.487732e-11
-1.248485e-11
-8.357577e-11
-1.927733e-11
-8.089471e-11
-2.62796e-11
-7.837392e-11
-3.351413e-11
-7.200939e-11
-4.059283e-11
-6.584632e-11
-5.909794e-11
-4.753301e-11
-4.406572e-12
-7.921642e-11
-1.008759e-11
-7.78865e-11
-1.58492e-11
-7.51695e-11
-2.205806e-11
-7.255661e-11
-2.84111e-11
-6.638676e-11
-3.486736e-11
-6.04849e-11
-5.411365e-11
-4.12973e-11
-3.158863e-12
-7.452901e-11
-7.716058e-12
-7.308415e-11
-1.251792e-11
-7.020927e-11
-1.793044e-11
-6.738704e-11
-2.365116e-11
-6.129429e-11
-2.962108e-11
-5.554608e-11
-4.94758e-11
-3.567139e-11
-1.855615e-12
-7.081953e-11
-5.296631e-12
-6.913266e-11
-9.211344e-12
-6.593583e-11
-1.39464e-11
-6.27605e-11
-1.918753e-11
-5.660521e-11
-2.481692e-11
-5.091697e-11
-4.508416e-11
-3.062213e-11
-4.278255e-13
-6.813822e-11
-2.736064e-12
-6.6015e-11
-5.844868e-12
-6.226976e-11
-1.005024e-11
-5.855824e-11
-1.498063e-11
-5.219332e-11
-2.043247e-11
-4.648277e-11
-4.084524e-11
-2.613286e-11
1.224722e-12
-6.660194e-11
8.709169e-14
-6.373588e-11
-2.324182e-12
-5.912445e-11
-6.190901e-12
-5.464589e-11
-1.101109e-11
-4.792751e-11
-1.646418e-11
-4.213518e-11
-3.667861e-11
-2.220337e-11
3.236694e-12
-6.64161e-11
3.324002e-12
-6.23313e-11
1.49859e-12
-5.645104e-11
-2.332526e-12
-5.082212e-11
-7.284607e-12
-4.367502e-11
-1.293091e-11
-3.778161e-11
-3.252818e-11
-1.885888e-11
5.911865e-12
-6.803426e-11
7.23253e-12
-6.185533e-11
6.293554e-12
-5.472392e-11
1.585548e-12
-4.635254e-11
-3.83636e-12
-3.92666e-11
-9.885795e-12
-3.336184e-11
-2.926053e-11
-1.518633e-11
9.602792e-12
-7.223923e-11
1.200502e-11
-6.239805e-11
1.010904e-11
-5.245699e-11
5.347998e-12
-4.237883e-11
-7.546519e-13
-3.475604e-11
-6.717332e-12
-2.946774e-11
-2.505169e-11
-1.334315e-11
1.501249e-11
-8.074781e-11
1.809729e-11
-6.432285e-11
1.513028e-11
-5.020217e-11
9.0886e-12
-3.816397e-11
2.275132e-12
-3.030617e-11
-5.062033e-12
-2.483989e-11
-2.09649e-11
-1.209154e-11
2.364347e-11
-9.859499e-11
2.636559e-11
-6.84433e-11
2.098501e-11
-4.782406e-11
1.279373e-11
-3.327456e-11
4.174845e-12
-2.515769e-11
-3.956758e-12
-2.024591e-11
-1.706098e-11
-1.138837e-11
4.124053e-11
-1.467027e-10
3.917956e-11
-7.939266e-11
2.792393e-11
-4.368576e-11
1.602701e-11
-2.666541e-11
5.610177e-12
-1.952176e-11
-3.350212e-12
-1.56762e-11
-1.337925e-11
-1.115744e-11
8.790906e-11
-2.894118e-10
6.295043e-11
-1.072755e-10
3.671737e-11
-3.856008e-11
1.882079e-11
-1.777446e-11
6.514687e-12
-1.306504e-11
-3.189528e-12
-1.108857e-11
-9.91025e-12
-1.129676e-11
1.900288e-10
1.093019e-10
4.86671e-11
2.058711e-11
6.578578e-12
-3.466476e-12
-1.170648e-11
-1.925222e-11
-4.532879e-12
-2.492007e-11
-5.339817e-12
-1.461659e-11
-6.161432e-12
-1.464449e-11
-1.537397e-11
-3.720893e-12
1.594501e-11
-1.628193e-11
-4.164288e-12
1.654924e-11
-1.681277e-11
-4.480921e-12
1.737264e-11
-1.841704e-11
-3.616215e-12
-1.94848e-11
-1.969703e-12
-2.523029e-11
-3.40539e-12
-1.484962e-11
-4.88988e-12
-1.459881e-11
3.436522e-12
-1.556348e-11
-3.25024e-12
4.036832e-12
1.616472e-11
-1.648063e-11
-3.928684e-12
4.327765e-12
1.664353e-11
-1.656799e-11
-4.295659e-12
4.414637e-12
1.611842e-11
-1.454312e-11
-5.027504e-12
-1.981705e-11
9.307511e-13
-2.576456e-11
-1.108564e-12
-3.052139e-11
-2.878542e-12
-1.638039e-11
-2.754676e-12
3.015019e-12
2.891702e-12
-1.639412e-11
-2.661605e-12
3.856025e-12
-1.671259e-11
-3.72256e-12
4.29223e-12
1.686199e-11
-1.676545e-11
-4.290384e-12
5.247309e-12
1.639176e-11
-1.524421e-11
-5.416024e-12
-2.028433e-11
4.143509e-12
-2.617977e-11
1.351251e-12
-1.507656e-11
-1.275227e-12
-1.542027e-11
-1.62266e-11
-2.003969e-12
3.539735e-12
1.680429e-11
-1.710874e-11
-3.441036e-12
4.280887e-12
1.726119e-11
-1.718499e-11
-4.255136e-12
5.589142e-12
1.68382e-11
-1.567401e-11
-5.755535e-12
-2.113625e-11
7.710121e-12
-2.71298e-11
4.187366e-12
-1.592587e-11
9.200689e-13
-1.591073e-11
1.590975e-12
-1.667385e-11
-1.214396e-12
3.288832e-12
1.729468e-11
-1.766473e-11
-3.108931e-12
4.20545e-12
1.784716e-11
-1.781094e-11
-4.131604e-12
5.885015e-12
1.751275e-11
-1.63505e-11
-5.968617e-12
-2.24661e-11
1.159994e-11
-2.848699e-11
7.352945e-12
-1.661275e-11
3.381129e-12
-1.663143e-11
7.222236e-13
-1.733979e-11
-3.18673e-13
2.901726e-12
-1.841381e-11
-2.668072e-12
1.800081e-11
4.037329e-12
1.86311e-11
-1.863283e-11
-3.924678e-12
6.037173e-12
1.837204e-11
-1.716551e-11
-6.091427e-12
-2.437332e-11
1.575981e-11
-3.038586e-11
1.079638e-11
-1.755536e-11
6.089998e-12
-1.763261e-11
-1.822877e-11
6.517586e-13
-2.628923e-13
2.377668e-12
1.835151e-11
-1.936854e-11
-1.506091e-12
3.793258e-12
1.964871e-11
-1.96856e-11
-3.64601e-12
6.124929e-12
1.945922e-11
-1.821429e-11
-6.143471e-12
-2.694051e-11
1.895571e-11
-3.292605e-11
1.447412e-11
-1.881305e-11
9.017997e-12
-1.895512e-11
-1.322271e-12
-1.949434e-11
1.753695e-12
1.136353e-12
-2.066618e-11
-7.759914e-13
2.01828e-11
3.4841e-12
2.094523e-11
-2.10083e-11
-3.309607e-12
6.149511e-12
2.080254e-11
-1.949323e-11
-6.148167e-12
-3.164234e-11
2.331618e-11
-3.617945e-11
1.688501e-11
-2.041686e-11
1.213792e-11
-2.063507e-11
-2.106944e-11
2.945242e-12
-2.516896e-12
3.937126e-13
2.177302e-11
-2.2272e-11
-1.57264e-15
3.123038e-12
2.256815e-11
-2.264729e-11
-2.926949e-12
6.141655e-12
2.244659e-11
-2.104279e-11
-6.137835e-12
-3.604925e-11
2.781535e-11
-4.189007e-11
2.073038e-11
-2.240613e-11
1.371257e-11
-2.270641e-11
-3.803461e-12
-2.302701e-11
4.222368e-12
-4.13434e-13
2.373939e-11
-2.425247e-11
8.358893e-13
2.719554e-12
2.456312e-11
-2.465428e-11
-2.501421e-12
6.133258e-12
2.44545e-11
-2.294923e-11
-6.11433e-12
-4.125746e-11
3.249539e-11
-4.713744e-11
2.474201e-11
-2.572715e-11
1.695764e-11
-2.622332e-11
-5.18147e-12
-2.540634e-11
4.676172e-12
-1.283412e-12
2.611732e-11
-2.664266e-11
1.734582e-12
2.271589e-12
2.696503e-11
-2.706408e-11
-2.030674e-12
6.078828e-12
2.685664e-11
-2.52325e-11
-6.040449e-12
-4.726593e-11
3.741927e-11
-5.327664e-11
2.896471e-11
-2.878221e-11
2.037192e-11
-2.939665e-11
-5.669948e-12
-2.926363e-11
5.97695e-12
-2.216593e-12
2.994987e-11
-2.94541e-11
1.662343e-12
1.780188e-12
2.980829e-11
-2.990876e-11
-1.518157e-12
6.015647e-12
2.967527e-11
-2.786936e-11
-5.999223e-12
-5.410301e-11
4.267251e-11
-6.033482e-11
3.34583e-11
-3.233038e-11
2.400277e-11
-3.306579e-11
-7.071844e-12
-3.278166e-11
7.359856e-12
-2.113746e-12
3.346044e-11
-3.394894e-11
2.564699e-12
1.237599e-12
3.422537e-11
-3.322521e-11
-2.049256e-12
5.966662e-12
3.301176e-11
-3.106837e-11
-5.895994e-12
-6.18054e-11
4.83494e-11
-6.835665e-11
3.82982e-11
-3.639231e-11
2.7903e-11
-3.725316e-11
-8.564014e-12
-3.68193e-11
8.837671e-12
-3.050781e-12
3.749923e-11
-3.799551e-11
3.533224e-12
1.803176e-12
3.827008e-11
-3.830822e-11
-1.539113e-12
5.770098e-12
3.801523e-11
-3.496424e-11
-6.568146e-12
-7.043395e-11
5.456069e-11
-7.740316e-11
4.356623e-11
-4.099917e-11
3.213746e-11
-4.19955e-11
-1.016465e-11
-4.140808e-11
1.043034e-11
-4.05009e-12
4.209288e-11
-4.2592e-11
4.561916e-12
1.293318e-12
4.283877e-11
-4.277342e-11
-1.089798e-12
6.240045e-12
4.212091e-11
-3.876312e-11
-7.209827e-12
-8.006178e-11
6.141235e-11
-8.75555e-11
4.935711e-11
-4.619064e-11
3.677375e-11
-4.733381e-11
-1.189339e-11
-4.659076e-11
1.216146e-11
-5.123291e-12
4.729048e-11
-4.780556e-11
5.681108e-12
8.124402e-13
4.806583e-11
-4.803854e-11
-5.198773e-13
6.682562e-12
4.756839e-11
-4.49368e-11
-6.585569e-12
-9.078939e-11
6.902447e-11
-9.891282e-11
5.576757e-11
-5.201572e-11
4.190006e-11
-5.333609e-11
-1.377503e-11
-5.238257e-11
1.402109e-11
-6.29509e-12
5.309102e-11
-5.364028e-11
6.912896e-12
2.364573e-13
5.389581e-11
-5.380712e-11
5.171711e-14
6.616296e-12
5.317575e-11
-5.011633e-11
-6.65829e-12
-1.027225e-10
7.751642e-11
-1.115839e-10
6.289856e-11
-5.85378e-11
4.75621e-11
-6.000766e-11
-1.598436e-11
-5.892591e-11
1.626431e-11
-5.974548e-12
5.978851e-11
-6.022032e-11
6.5128e-12
-3.179682e-13
6.04474e-11
-6.029808e-11
6.102658e-13
6.71743e-12
5.953643e-11
-5.611246e-11
-6.795327e-12
-1.160048e-10
8.702796e-11
-1.257278e-10
7.086811e-11
-6.584816e-11
5.388149e-11
-6.748779e-11
-1.825864e-11
-6.626384e-11
1.857861e-11
-7.157109e-12
6.712874e-11
-6.76036e-11
7.776905e-12
-9.045746e-13
6.780071e-11
-6.759432e-11
1.210911e-12
6.890519e-12
6.670582e-11
-6.289632e-11
-6.99003e-12
-1.307782e-10
9.771842e-11
-1.415009e-10
7.980911e-11
-7.400528e-11
6.095614e-11
-7.58523e-11
-2.081391e-11
-7.443764e-11
2.116714e-11
-8.47709e-12
7.537344e-11
-7.585458e-11
9.151646e-12
-1.526717e-12
7.604259e-11
-7.578478e-11
1.86097e-12
7.094058e-12
7.475516e-11
-7.051206e-11
-7.216215e-12
-1.472267e-10
1.097329e-10
-1.59103e-10
8.987007e-11
-8.313247e-11
6.892114e-11
-8.521783e-11
-2.366177e-11
-8.35788e-11
2.404608e-11
-9.921566e-12
8.458037e-11
-8.508215e-11
1.066911e-11
-2.206776e-12
8.526489e-11
-8.495669e-11
2.578459e-12
7.338969e-12
8.378e-11
-7.905838e-11
-7.471776e-12
-1.655417e-10
1.232515e-10
-1.78736e-10
1.012144e-10
-9.341317e-11
7.813094e-11
-9.582138e-11
-2.681356e-11
-9.378549e-11
2.713888e-11
-1.151778e-11
9.485602e-11
-9.538594e-11
1.234812e-11
-2.961051e-12
9.557022e-11
-9.52087e-11
3.37509e-12
7.612051e-12
9.386712e-11
-8.860795e-11
-7.76512e-12
-1.859036e-10
1.384543e-10
-2.004087e-10
1.1385e-10
-1.057671e-10
8.747912e-11
-1.052574e-10
-2.996921e-11
-1.04728e-10
2.888278e-11
-1.330741e-11
1.062667e-10
-1.068505e-10
1.423842e-11
-3.810639e-12
1.070512e-10
-1.066726e-10
4.308475e-12
7.92304e-12
1.051559e-10
-9.931017e-11
-8.086315e-12
-2.086441e-10
1.559054e-10
-2.251875e-10
1.285126e-10
-2.396174e-10
1.0083e-10
-1.209675e-10
3.310111e-11
-2.921703e-11
-3.164548e-11
-1.239877e-10
3.316987e-11
-1.781926e-11
-1.228007e-10
2.01036e-11
-4.675822e-12
1.202406e-10
-1.195625e-10
4.998344e-12
8.271486e-12
1.178058e-10
-1.112987e-10
-8.451958e-12
-2.337265e-10
1.751628e-10
-2.51109e-10
1.439362e-10
-1.26726e-10
1.107775e-10
-1.355443e-10
-1.335362e-10
3.992803e-11
-2.333147e-11
1.336371e-10
-1.344331e-10
2.458015e-11
-5.603978e-12
1.344149e-10
-1.338845e-10
6.215251e-12
8.660045e-12
1.319356e-10
-1.246844e-10
-8.864171e-12
-2.623282e-10
1.972308e-10
-2.823261e-10
1.619089e-10
-1.475058e-10
1.257608e-10
-1.510131e-10
-4.417088e-11
-1.482692e-10
4.500964e-11
-2.617279e-11
1.498042e-10
-1.508939e-10
2.77957e-11
-6.831464e-12
1.50694e-10
-1.500353e-10
7.471543e-12
9.077677e-12
1.478054e-10
-1.397027e-10
-9.329043e-12
-2.944802e-10
2.234806e-10
-3.162654e-10
1.816395e-10
-1.648535e-10
1.420966e-10
-1.688589e-10
-5.0009e-11
-1.657281e-10
5.101716e-11
-2.967883e-11
1.676815e-10
-1.689659e-10
3.158485e-11
-8.123595e-12
1.689052e-10
-1.680703e-10
8.762736e-12
9.561176e-12
1.656134e-10
-1.56609e-10
-9.816676e-12
-3.316169e-10
2.599382e-10
-3.532754e-10
9.915124e-11