/*--------------------------------*- C++ -*----------------------------------*\
| =========                 |                                                 |
| \\      /  F ield         | OpenFOAM: The Open Source CFD Toolbox           |
|  \\    /   O peration     | Version:  2206                                  |
|   \\  /    A nd           | Website:  www.openfoam.com                      |
|    \\/     M anipulation  |                                                 |
\*---------------------------------------------------------------------------*/
FoamFile
{
    version     2.0;
    format      ascii;
    arch        "LSB;label=32;scalar=64";
    class       volScalarField;
    location    "2.8";
    object      pS;
}
// * * * * * * * * * * * * * * * * * * * * * * * * * * * * * * * * * * * * * //

dimensions      [1 -1 -2 0 0 0 0];

internalField   nonuniform List<scalar> 
13078
(
0
20.44742
497.7805
643.5374
625.3431
571.184
511.5893
54.64841
450.1303
679.1862
677.5658
630.8113
573.5658
513.2916
667.6005
751.2201
747.6637
697.288
638.2248
577.7594
516.0291
936.7707
842.2598
775.4988
710.4387
645.9672
582.546
519.2401
977.611
869.1807
789.8045
718.9989
652.7866
587.2878
522.5135
972.4763
874.346
796.828
724.9993
656.9864
591.2951
525.6298
963.5163
873.9319
799.8168
728.5518
660.0448
593.529
528.2651
956.5696
871.6453
800.7137
730.2706
661.8012
595.1468
529.5317
951.4849
869.1652
800.2299
730.7675
662.7056
596.1501
530.4765
947.7625
866.9537
799.315
730.7233
663.091
596.7374
531.0974
944.9467
865.0812
798.326
730.4009
663.1646
597.0475
531.5108
942.6888
863.5412
797.3659
729.9402
663.0598
597.1787
531.7687
940.8496
862.2109
796.4661
729.4385
662.852
597.1929
531.926
939.2725
861.0495
795.6332
728.9295
662.6006
597.1393
532.0231
937.8819
860.0084
794.8862
728.8515
662.837
597.1142
532.0838
936.6006
859.0451
794.1873
728.8153
662.8791
597.0421
532.1277
935.369
858.0981
793.4663
728.3816
662.6238
596.9304
532.1566
934.1448
857.1724
792.7569
727.9082
662.3431
596.8111
532.1811
932.8987
856.231
792.0404
727.4163
662.0526
596.7061
532.1934
931.6017
855.2659
791.309
726.9596
662.3339
597.2712
532.294
930.231
854.2298
790.5283
726.4694
662.6146
597.5618
532.3792
928.7331
853.1112
789.6688
725.8776
662.3707
597.4743
532.414
927.0996
851.893
788.743
725.2539
662.0151
597.3686
532.502
925.2887
850.5375
787.7184
724.5696
661.7004
597.9781
533.4278
923.2636
849.032
786.5705
723.8065
661.3158
598.5649
533.9788
920.9968
847.3402
785.2967
722.9469
660.8214
598.5493
534.1406
918.4217
845.4299
783.8603
721.9774
660.2639
598.3778
534.2947
915.5401
843.3019
782.2548
720.885
659.6408
598.2114
535.3403
912.2677
840.8806
780.4607
719.6613
658.9145
597.9224
536.2716
908.9004
838.4753
778.5613
718.316
658.0657
597.4783
536.4302
905.0172
835.6766
776.4176
716.8414
657.1159
596.9377
536.3215
900.7505
833.1261
774.7869
715.3575
656.0544
596.2532
535.9529
896.2643
830.396
773.3919
714.7606
655.2395
595.6399
535.4689
891.8485
827.811
772.2971
713.998
654.9216
595.7664
535.5934
887.9667
826.5199
772.7801
716.6987
658.5982
598.5685
537.7288
886.082
828.0867
777.4857
724.7169
668.5914
608.0682
544.1043
887.6456
836.1857
791.3813
742.213
687.1544
621.3235
551.4406
895.87
856.2593
817.3543
767.8792
709.821
637.5479
555.7603
915.946
888.5192
851.1643
797.7348
732.1162
654.2541
555.0769
952.1253
929.225
887.5586
828.3769
753.9629
667.3861
559.8196
1002.29
972.3919
928.5125
857.5522
776.9315
682.7768
573.5876
1065.953
1012.655
967.7498
893.198
801.0327
705.6275
610.5116
1136.603
1051.298
1001.201
927.2395
841.67
750.4501
680.7199
1208.833
1076.193
1033.529
956.6822
889.5589
827.6423
758.7354
1259.28
1090.606
1052.284
993.1834
944.0499
911.3617
865.9813
1279.324
1097.05
1073.139
1037.045
1005.274
982.7491
953.4677
1282.642
1107.415
1098.79
1074.748
1069.766
1052.456
1000.95
1290.007
1138.929
1145.481
1120.503
1137.666
1106.06
1050.213
1305.312
1186.367
1204.857
1182.781
1191.148
1154.038
1075.28
1329.671
1236.905
1264.113
1246.146
1253.127
1189.532
1077.338
1364.122
1297.21
1314.904
1293.364
1286.785
1197.074
1094.065
1391.663
1340.106
1373.174
1354.968
1319.112
1202.057
1136.71
1398.347
1355.705
1385.071
1355.416
1306.388
1207.499
1181.691
1386.412
1346.562
1371.151
1331.356
1278.41
1206.717
1213.885
1365.04
1325.633
1343.363
1300.195
1256.567
1213.547
1227.606
1336.77
1294.015
1307.716
1271.729
1245.018
1219.142
1225.384
1293.64
1239.799
1253.136
1231.75
1225.164
1203.669
1204.825
1254.884
1196.39
1215.524
1208.273
1214.779
1187.771
1186.756
1216.906
1153.585
1176.412
1176.846
1190.332
1157.449
1151.185
1173.995
1103.01
1124.178
1128.648
1145.31
1117.987
1106.995
1130.12
1052.999
1064.101
1065.062
1086.247
1060.073
1034.544
1090.339
1008.302
1016.874
1012.069
1035.221
1013.466
975.9747
1059.604
969.1072
972.3915
950.3194
968.406
955.7914
905.4133
1042.42
939.3298
932.5976
897.6736
904.4165
893.4727
860.7246
1040.512
923.5175
905.0449
856.1459
851.3195
842.4548
808.0462
1056.249
922.1437
888.071
830.3345
788.6095
769.2104
740.1926
1072.138
934.5566
878.5462
808.8848
734.2493
697.2755
689.729
1069.533
942.4699
870.7601
787.0542
700.4307
638.8663
619.0492
1041.018
942.0382
867.861
775.5168
681.6077
596.9072
541.5791
998.7961
931.1641
861.0789
769.3534
671.8116
573.7602
495.1263
958.4766
910.6692
849.3864
765.5214
671.0203
571.8569
475.7179
924.5213
887.9768
834.7716
761.2599
676.5367
582.7025
486.9954
900.4789
863.328
815.9826
754.207
680.3274
599.2683
502.3177
887.3
841.6485
796.5862
741.2037
677.942
606.4988
521.0688
882.9084
827.7642
779.4853
726.8143
669.4132
603.6018
531.4997
883.1267
822.4946
769.6157
715.3342
658.1144
596.4604
532.1323
885.9773
822.1115
766.6796
710.174
651.3472
591.0183
529.8243
890.4124
824.2844
767.4699
709.0601
649.5093
589.2056
529.0217
895.0588
827.5555
769.6573
709.7783
649.7038
589.9936
529.937
899.6298
830.9532
771.9438
711.8431
651.5486
591.5666
531.3645
904.0099
833.9847
773.9502
713.3646
653.3149
593.1102
532.6259
907.9807
836.7308
776.0283
715.4138
654.9914
594.3996
533.5655
911.4588
839.4929
778.4254
717.3003
656.4453
595.4675
534.2036
914.4682
841.8629
780.4889
718.9534
657.6832
596.3559
534.5583
917.3892
844.1896
782.3777
720.4109
658.7214
597.0023
533.9727
919.9702
846.2171
784.036
721.6589
659.5924
597.4644
533.2833
922.2775
848.0283
785.499
722.7423
660.3328
597.8651
533.3698
924.3101
849.61
786.7701
723.6831
660.9647
598.0719
533.4099
926.1416
851.018
787.8983
724.514
661.4512
597.5781
532.9614
927.7772
852.292
788.9073
725.2306
661.8462
597.1146
532.1789
929.2625
853.4262
789.8096
725.8718
662.2585
597.2867
532.1851
930.619
854.4665
790.6377
726.4645
662.539
597.4352
532.2171
931.8676
855.4232
791.3726
726.9401
662.2414
597.1478
532.1742
933.0414
856.3107
792.0576
727.3752
661.9911
596.6257
532.1074
934.1584
857.1616
792.7117
727.8466
662.28
596.7423
532.1267
935.2468
857.9856
793.3587
728.2898
662.5557
596.8806
532.1322
936.3364
858.8207
794.0107
728.6953
662.8113
597.0079
532.1231
937.4452
859.6578
794.6258
728.67
662.7389
597.0909
532.1005
938.6184
860.5496
795.2765
728.7284
662.5144
597.1358
532.0743
939.9229
861.5279
796.0072
729.2043
662.7753
597.2277
532.0265
941.4004
862.6458
796.8033
729.6932
663.0245
597.2847
531.9478
943.1716
863.9207
797.6652
730.1739
663.2233
597.2743
531.8042
945.3432
865.4229
798.5954
730.6135
663.3276
597.1549
531.557
948.0784
867.2441
799.5633
730.9313
663.2646
596.8607
531.1652
951.7011
869.4303
800.4279
730.9995
662.9045
596.2865
530.531
956.6653
871.877
800.5953
730.3311
661.9992
595.2748
529.6355
963.4991
874.1734
799.8897
728.5976
660.201
593.7752
527.4271
972.3402
874.8001
797.3564
725.3817
657.5185
590.5909
524.7108
978.1571
870.1056
790.5367
720.0557
652.3094
586.5362
521.6793
939.9511
844.4982
777.9994
710.3375
645.5227
581.9487
518.4073
691.6259
761.7578
748.4329
697.4318
638.0839
577.183
515.1666
68.10976
505.9697
702.2857
680.0048
630.0389
572.6017
512.1808
449.3734
382.9441
310.8003
256.0665
183.2108
110.7157
37.43093
450.8436
384.4178
312.2273
257.384
184.3327
111.5967
39.06248
452.8681
386.1502
313.9669
240.9215
185.4189
112.4418
39.9295
455.1775
387.995
315.3999
260.5425
186.53
113.3028
40.70672
457.571
389.948
317.1094
262.1892
187.6982
114.1703
41.23694
459.9195
391.9289
318.8533
263.7986
188.8497
115.032
41.72384
462.1434
393.8498
320.565
265.318
189.1939
115.8928
42.17817
464.0524
395.6992
322.2304
266.8017
189.5189
116.7508
42.5819
464.8311
397.331
323.8034
268.2755
190.4568
117.5259
42.9748
465.4276
397.8893
325.2257
269.7322
191.37
118.3065
43.33859
465.8537
398.3172
325.6592
271.1182
192.2826
119.0939
43.68116
466.1761
398.6699
325.9944
271.4319
193.203
119.891
44.00593
466.4186
398.9721
326.3088
271.7132
193.3592
120.7191
44.31027
466.6161
399.2436
326.6132
272.0014
193.5389
120.8606
44.5369
466.785
399.5072
326.9179
272.2961
193.7345
121.0444
44.32728
466.9433
399.7666
327.2251
272.6053
193.9517
121.2493
44.03094
467.0914
400.0288
327.5383
272.9429
194.2912
121.4678
43.79216
467.2405
400.2893
327.8749
273.4404
196.9538
121.7105
43.49486
467.3919
400.548
328.2215
273.8241
197.4427
121.9623
43.22892
467.5588
400.8245
328.589
274.2317
197.7936
122.2326
42.93835
467.7315
401.1169
328.9701
274.6666
198.1644
122.519
42.57256
467.9252
401.4299
329.3589
275.1353
198.5594
122.8231
42.26465
468.1239
401.7845
329.8043
275.5416
199.0841
123.1417
41.94945
468.461
402.1863
330.4079
257.6944
202.161
123.6549
41.64621
468.78
402.5753
330.8385
276.4236
203.4491
124.0904
41.36116
469.0619
403.0111
331.4078
277.4349
204.1214
124.5105
41.07711
469.4896
403.5816
332.1199
278.2431
204.8145
124.9882
40.78188
470.9296
404.2954
332.8025
279.0863
205.7519
128.4829
40.53433
471.4809
422.1534
351.002
279.2919
206.6881
129.9019
40.36143
471.8929
422.9501
352.3423
280.3667
207.6611
130.5418
40.22509
473.8462
424.8823
353.1456
281.3983
208.7159
133.4666
40.26739
474.4609
426.3152
353.8721
282.4764
209.7454
136.4212
40.54232
474.2164
429.2697
354.8
283.3515
210.6437
137.3201
41.34316
473.8728
429.6289
355.9815
283.4463
210.9455
138.7377
49.4009
474.176
429.0591
356.0839
281.8969
209.696
141.7884
55.95838
474.4298
427.5305
354.6911
274.7636
204.7394
147.4431
87.50572
470.7869
419.9339
339.671
258.3624
195.8087
147.1882
86.14182
460.1946
402.1511
319.1845
248.9639
184.396
128.1485
88.99214
445.1118
380.1823
300.8922
236.8564
166.9703
120.8243
87.81503
439.7441
364.1341
293.9657
229.6548
174.823
129.4616
82.15883
453.3548
373.3895
316.2449
239.274
198.2094
144.751
77.63491
515.4158
428.4591
338.5292
266.0933
226.043
165.0754
85.28939
589.9824
478.8766
365.6404
315.0535
256.7744
186.8864
92.71977
666.5378
531.0039
397.4193
371.2455
307.5373
207.723
114.082
750.6399
618.9675
467.3962
426.5437
341.6824
234.8468
130.6929
847.6076
705.5867
544.6867
496.6397
373.1183
277.1806
149.7874
913.4111
777.7715
638.3081
559.8637
446.0141
294.1193
178.8007
923.7703
810.9513
714.7556
639.9625
479.9369
366.617
233.8041
948.4345
855.5386
807.7539
690.3399
536.8721
380.8062
267.1398
992.5947
945.9069
874.7525
739.9189
583.3785
427.8575
268.0756
1059.72
1038.554
935.7832
788.6834
626.469
461.1544
283.9166
1131.488
1103.89
992.908
853.7354
703.6368
509.8777
326.8618
1167.78
1136.72
1028.199
892.4971
732.0616
558.958
404.3189
1204.512
1158.274
1033.448
881.1296
757.325
583.7294
425.7072
1210.417
1162.355
1048.722
906.0579
775.0533
728.8091
609.0512
1212.681
1146.131
1046.725
931.1217
824.055
713.8855
1185.249
1117.814
1015.815
913.9901
814.716
701.7184
1151.564
1092.523
975.5278
862.219
750.2506
631.045
1099.538
1061.536
931.2197
824.7597
695.9796
566.8893
411.8564
1046.837
1020.774
887.1503
766.138
648.8846
473.6702
300.6793
973.7623
949.0333
818.5349
691.6973
558.0511
429.5575
289.1856
935.4933
903.5484
797.4988
674.8912
553.753
407.4615
256.6823
881.2621
850.6867
760.0487
637.6458
520.6944
384.2704
240.5607
818.5215
805.5487
713.4585
610.4904
469.8922
352.4435
241.2633
747.0616
753.4803
656.8004
523.4922
433.4075
327.6552
185.7667
690.8021
688.1384
585.8622
490.3564
377.4552
290.3497
157.7583
627.0583
618.4463
539.1003
422.824
342.2778
228.0298
130.8377
560.514
546.4438
465.8694
390.9869
288.6038
209.7636
115.0907
503.8879
483.9892
414.5401
340.1867
269.7235
182.6523
98.89508
435.7393
429.8039
378.1529
310.5231
237.0646
162.4516
80.99271
388.4232
370.2031
342.0536
285.848
211.3681
148.9704
76.85845
374.4046
319.5196
304.6548
260.0543
202.0019
146.9095
78.95769
398.3273
319.7023
272.5201
232.086
191.7113
138.2149
80.73296
430.8587
352.1582
291.5321
228.5102
173.6999
127.4877
81.44168
454.0086
387.4192
323.1818
257.3832
187.2843
132.848
83.81135
463.7819
409.0679
344.5032
269.2918
202.1305
145.1942
73.63929
466.6187
417.2517
353.8122
278.227
207.2104
144.7511
66.53326
467.7393
419.9998
355.0683
280.168
209.1175
139.1912
49.51591
469.0477
421.6026
353.0384
280.5966
209.3461
137.3133
44.96618
470.3754
422.7538
351.6518
280.5175
208.891
136.5924
42.71766
471.1828
421.6793
351.2442
280.0839
208.1934
135.7381
39.04374
471.0598
420.3641
350.874
279.5514
207.4485
134.5456
39.2493
469.7093
418.8424
350.6269
279.0123
206.7395
130.4169
39.5161
469.7847
418.7522
350.2555
278.51
206.0782
129.6253
39.85917
469.5406
403.041
331.7309
277.0371
205.4159
129.1102
40.19382
468.4425
402.6257
331.2992
276.6328
204.6635
126.0134
40.54118
468.2643
402.2779
330.8144
276.1677
204.0217
124.5091
40.92473
468.1748
402.0104
330.3949
275.7244
203.4643
124.142
41.27706
467.9976
401.7391
329.9868
275.3014
202.8352
123.7998
41.65138
467.788
401.4799
329.6052
274.8812
199.8561
123.328
41.98279
467.69
401.2306
329.2344
274.4776
198.6737
122.9628
42.33144
467.5742
400.9794
328.8774
274.0995
198.3112
122.6769
42.68518
467.4493
400.7375
328.5362
273.7279
197.9584
122.4018
43.01933
467.3193
400.5033
328.2021
273.3735
197.6241
122.1369
43.34541
467.2042
400.275
327.8874
273.0278
197.3081
121.8872
43.63623
467.082
400.0403
327.5755
272.6218
195.8459
121.6461
43.90746
466.9593
399.8037
327.2785
272.2329
194.1162
121.4208
44.17465
466.832
399.5752
326.9953
271.9208
193.903
121.2107
44.47565
466.7014
399.3469
326.7182
271.6092
193.7034
121.0158
44.50316
466.5534
399.1152
326.4402
271.3073
193.5236
120.8385
44.57255
466.3781
398.8643
326.1615
271.002
193.3472
120.3578
44.24223
466.1499
398.5777
325.8675
270.6846
192.8287
119.5488
43.88996
465.8495
398.2354
325.4787
269.8407
191.9213
118.7502
43.51561
465.4188
397.7784
324.1135
268.3776
191.0143
117.961
43.1349
464.8325
396.269
322.6108
266.9004
190.1065
117.1758
42.72537
463.1503
394.5443
321.0106
265.3945
189.2289
116.3561
42.30206
461.1504
392.7324
319.3513
263.9425
189.4832
115.4905
41.8607
458.975
390.8163
317.6452
262.4143
188.3714
114.6254
41.38851
456.6317
388.8298
315.9116
260.9047
187.2181
113.7618
40.86843
454.1883
386.8307
314.1838
259.4253
186.0639
112.8947
40.22809
451.8239
384.9138
312.5037
258.0174
184.9143
112.0254
39.37271
449.6375
383.0647
310.8713
256.6836
183.7759
111.1496
38.03844
0
0
0
0
0
0
0
0
0
0
0
0
0
0
0
0
0
0
0
0
0
0
0
0
0
0
0
0
0
0
0
0
0
0
0
0
0
0
0
0
0
0
0
0
0
0
0
0
0
0
0
0
0
0
0
0
0
0
0
0
0
0
0
0
0
0
0
0
0
0
0
0
0
0
0
0
0
0
0
0
0
0
0
0
0
0
0
0
0
0
0
0
0
0
0
0
0
0
0
0
0
0
0
0
0
0
0
0
0
0
0
0
0
0
0
0
0
0
0
0
0
0
0
0
0
0
0
0
0
0
0
0
0
0
0
0
0
0
0
0
0
0
0
0
0
0
0
0
0
0
0
0
0
0
0
0
0
0
0
0
0
0
0
0
0
0
0
0
0
0
0
0
0
0
0
0
0
0
0
0
0
0
0
0
0
0
0
0
0
0
0
0
0
0
0
0
0
0
0
0
0
0
0
0
0
0
0
0
0
0
0
0
0
0
0
0
0
0
0
0
0
0
0
0
0
0
0
0
0
0
0
0
0
0
0
0
0
0
0
0
0
0
0
0
0
0
0
0
0
0
0
0
0
0
0
0
0
0
0
0
0
0
0
0
0
0
0
0
0
0
0
0
0
0
0
0
0
0
0
0
0
0
0
0
0
0
0
0
0
0
0
0
0
0
0
0
0
0
0
0
0
0
0
0
0
0
0
0
0
0
0
0
0
0
0
0
0
0
0
0
0
0
0
0
0
0
0
0
0
0
0
0
0
0
0
0
0
0
0
0
0
0
0
0
0
0
0
0
0
0
0
0
0
0
0
0
0
0
0
0
0
0
0
0
0
0
0
0
0
0
0
0
0
0
0
0
0
0
0
0
0
0
0
0
0
0
0
0
0
0
0
0
0
0
0
0
0
0
0
0
0
0
0
0
0
0
0
0
0
0
0
0
0
0
0
0
0
0
0
0
0
0
0
0
0
0
0
0
0
0
0
0
0
0
0
0
0
0
0
0
0
0
0
0
0
0
0
0
0
0
0
0
0
0
0
0
0
0
0
0
0
0
0
0
0
0
0
0
0
0
0
0
0
0
0
0
0
0
0
0
0
0
0
0
0
0
0
0
0
0
0
0
0
0
0
0
0
0
0
0
0
0
0
0
0
0
0
0
0
0
0
0
0
0
0
0
0
0
0
0
0
0
0
0
0
0
0
0
0
0
0
0
0
0
0
0
0
0
0
0
0
0
0
0
0
0
0
0
0
0
0
0
0
0
0
0
0
0
0
0
0
0
0
0
0
0
0
0
0
0
0
0
0
0
0
0
0
0
0
0
0
0
0
0
0
0
0
0
0
0
0
0
0
0
0
0
0
0
0
0
0
0
0
0
0
0
0
0
0
0
0
0
0
0
0
0
0
0
0
0
0
0
0
0
0
0
0
0
0
0
0
0
0
0
0
0
0
0
0
0
0
0
0
0
0
0
0
0
0
0
0
0
0
0
0
0
0
0
0
0
0
0
0
0
0
0
0
0
0
0
0
0
0
0
0
0
0
0
0
0
0
0
0
0
0
0
0
0
0
0
0
0
0
0
0
0
0
0
0
0
0
0
0.1604113
0
0
0
0
0
0
0
0
0
0
0
0
0
0
0
0
0
2.769509
0
0
0
0
0
0
0
0
0
0
0
0
0
0
0
0
0
5.487533
0
0
0
0
0
0
0
0
0
0
0
0
0
0
0
0
0
6.118859
0
0
0
0
0
0
0
0
0
0
0
0
0
0
0
0
0
10.20806
0
0
0
0
0
0
0
0
0
0
0
0
0
0
0
0
0
13.08508
0
0
0
0
0
0
0
0
0
0
0
0
0
0
0
0
0
15.75977
0
0
0
0
0
0
0
0
0
0
0
0
0
0
0
0
0
22.55721
0
0
0
0
0
0
0
0
0
0
0
0
0
0
0
0
0
48.60289
0
0
0
0
0
0
0
0
0
0
0
0
0
0
0
0
0
87.039
0
0
0
0
0
0
0
0
0
0
0
0
0
0
0
0
0
106.7358
0
0
0
0
0
0
0
0
0
0
0
0
0
115.3887
10.62569
0
0
0
0
0
0
0
0
120.2168
0
0
0
0
0
0
0
0
0
0
0
0
0
0
0
0
0
0
0
0
0
0
0
0
0
0
0
0
0
0
0
0
0
0
0
0
0
0
0
0
0
0
0
0
0
0
0
0
0
118.3476
0
0
0
0
0
0
95.48985
26.59216
0
0
0
0
0
0
0
93.15242
0
0
0
0
0
0
0
0
0
0
0
76.57734
0
0
0
0
0
0
0
0
0
0
0
0
0
0
0
0
0
42.20733
0
0
0
0
0
0
0
0
0
0
0
0
0
0
0
0
0
37.55996
0
0
0
0
0
0
0
0
0
0
0
0
0
0
0
0
0
24.63337
0
0
0
0
0
0
0
0
0
0
0
0
0
0
0
0
0
14.96852
0
0
0
0
0
0
0
0
0
0
0
0
0
0
0
0
0
10.29751
0
0
0
0
0
0
0
0
0
0
0
0
0
0
0
0
0
8.181608
0
0
0
0
0
0
0
0
0
0
0
0
0
0
0
0
0
5.950662
0
0
0
0
0
0
0
0
0
0
0
0
0
0
0
0
0
4.278272
0
0
0
0
0
0
0
0
0
0
0
0
0
0
0
0
0
0.2763864
0
0
0
0
0
0
0
0
0
0
0
0
0
0
0
0
0
0
0
0
0
0
0
0
0
0
0
0
0
0
0
0
0
0
0
0
0
0
0
0
0
0
0
0
0
0
0
0
0
0
0
0
0
0
0
0
0
0
0
0
0
0
0
0
0
0
0
0
0
0
0
0
0
0
0
0
0
0
0
0
0
0
0
0
0
0
0
0
0
0
0
0
0
0
0
0
0
0
0
0
0
0
0
0
0
0
0
0
0
0
0
0
0
0
0
0
0
0
0
0
0
0
0
0
0
0
0
0
0
0
0
0
0
0
0
0
0
0
0
0
0
0
0
0
0
0
0
0
0
0
0
0
0
0
0
0
0
0
0
0
0
0
0
0
0
0
0
0
0
0
0
0
0
0
0
0
0
0
0
0
0
0
0
0
0
0
0
0
0
0
0
0
0
0
0
0
0
0
0
0
0
0
0
0
0
0
0
0
0
0
0
0
0
0
0
0
0
0
0
0
0
0
0
0
0
0
0
0
0
0
0
0
0
0
0
0
0
0
0
0
0
0
0
0
0
0
0
0
0
0
0
0
0
0
0
0
0
0
0
0
0
0
0
0
0
0
0
0
0
0
0
0
0
0
0
0
0
0
0
0
0
0
0
0
0
0
0
0
0
0
0
0
0
0
0
0
0
0
0
0
0
0
0
0
0
0
0
0
0
0
0
0
0
0
0
0
0
0
0
0
0
0
0
0
0
0
0
0
0
0
0
0
0
0
0
0
0
0
0
0
0
0
0
0
0
0
0
0
0
0
0
0
0
0
0
0
0
0
0
0
0
0
0
0
0
0
0
0
0
0
0
0
0
0
0
0
0
0
0
0
0
0
0
0
0
0
0
0
0
0
0
0
0
0
0
0
0
0
0
0
0
0
0
0
0
0
0
0
0
0
0
0
0
0
0
0
0
0
0
0
0
0
0
0
0
0
0
0
0
0
0
0
0
0
0
0
0
0
0
0
0
0
0
0
0
0
0
0
0
0
0
0
0
0
0
0
0
0
0
0
0
0
0
0
0
0
0
0
0
0
0
0
0
0
0
0
0
0
0
0
0
0
0
0
0
0
0
0
0
0
0
0
0
0
0
0
0
0
0
0
0
0
0
0
0
0
0
0
0
0
0
0
0
0
0
0
0
0
0
0
0
0
0
0
0
0
0
0
0
0
0
0
0
0
0
0
0
0
0
0
0
0
0
0
0
0
0
0
0
0
0
0
0
0
0
0
0
0
0
0
0
0
0
0
0
0
0
0
0
0
0
0
0
0
0
0
0
0
0
0
0
0
0
0
0
0
0
0
0
0
0
0
0
0
0
0
0
0
0
0
0
0
0
0
0
0
0
0
0
0
0
0
0
0
0
0
0
0
0
0
0
0
0
0
0
0
0
0
0
0
0
0
0
0
0
0
0
0
0
0
0
0
0
0
0
0
0
0
0
0
0
0
0
0
0
0
0
0
0
0
0
0
0
0
0
0
0
0
0
0
0
0
0
0
0
0
0
0
0
0
0
0
0
0
0
0
0
0
0
0
0
0
0
0
0
0
0
0
0
0
0
0
0
0
0
0
0
0
0
0
0
0
0
0
0
0
0
0
0
0
0
0
0
0
0
0
0
0
0
0
0
0
0
0
0
0
0
0
0
0
0
0
0
0
0
0
0
0
0
0
0
0
0
0
0
0
0
0
0
0
0
0
0
0
0
0
0
0
0
0
0
0
0
0
0
0
0
0
0
0
0
0
0
0
0
0
0
0
0
0
0
0
0
0
0
0
0
0
0
0
0
0
0
0
0
0
0
0
0
0
0
0
0
0
0
0
0
0
0
0
0
0
0
0
0
0
0
0
0
0
0
0
0
0
0
0
0
0
0
0
0
0
0
0
0
0
0
0
0
0
0
0
0
0
0
0
0
0
0
0
0
0
0
0
0
0
0
0
0
0
0
0
0
0
0
0
0
0
0
0
0
0
0
0
0
0
0
0
0
0
0
0
0
0
0
0
0
0
0
0
0
0
0
0
0
0
0
0
0
0
0
0
0
0
0
0
0
0
0
0
0
0
0
0
0
0
0
0
0
0
0
0
0
0
0
0
0
0
0
0
0
0
0
0
0
0
0
0
0
0
0
0
0
0
0
0
0
0
0
0
0
0
0
0
0
0
0
0
0
0
0
0
0
0
0
0
0
0
0
0
0
0
0
0
0
0
0
0
0
0
0
0
0
0
0
0
0
0
0
0
0
0
0
0
0
0
0
0
0
0
0
0
0
0
0
0
0
0
0
0
0
0
0
0
0
0
0
0
0
0
0
0
0
0
0
0
0
0
0
0
0
0
0
0
0
0
0
0
0
0
0
0
0
0
0
0
0
0
0
0
0
0
0
0
0
0
0
0
0
0
0
0
0
0
0
0
0
0
0
0
0
0
0
0
0
0
0
0
0
0
0
0
0
0
0
0
0
0
0
0
0
0
0
0
0
0
0
0
0
0
0
0
0
0
0
0
0
0
0
0
0
0
0
0
0
0
0
0
0
0
0
0
0
0
0
0
0
0
0
0
0
0
0
0
0
0
0
0
0
0
0
0
0
0
0
0
0
0
0
0
0
0
0
0
0
0
0
0
0
0
0
0
0
0
0
0
0
0
0
0
0
0
0
0
0
0
0
0
0
0
0
0
0
0
0
0
0
0
0
0
0
0
0
0
0
0
0
0
0
0
0
0
0
0
0
0
0
0
0
0
0
0
0
0
0
0
0
0
0
0
0
0
0
0
0
0
0
0
0
0
0
0
0
0
0
0
0
0
0
0
0
0
0
0
0
0
0
0
0
0
0
0
0
0
0
0
0
0
0
0
0
0
0
0
0
0
0
0
0
0
0
0
0
0
0
0
0
0
0
0
0
0
0
0
0
0
0
0
0
0
0
0
0
0
0
0
0
0
0
0
0
0
0
0
0
0
0
0
0
0
0
0
0
0
0
0
0
0
0
0
0
0
0
0
0
0
0
0
0
0
0
0
0
0
0
0
0
0
0
0
0
0
0
0
0
0
0
0
0
0
0
0
0
0
0
0
0
0
0
0
0
0
0
0
0
0
0
0
0
0
0
0
0
0
0
0
0
0
0
0
0
0
0
0
0
0
0
0
0
0
0
0
0
0
0
0
0
0
0
0
0
0
0
0
0
0
0
0
0
0
0
0
0
0
0
0
0
0
0
0
0
0
0
0
0
0
0
0
0
0
0
0
0
0
0
0
0
0
0
0
0
0
0
0
0
0
0
0
0
0
0
0
0
0
0
0
0
0
0
0
0
0
0
0
0
0
0
0
0
0
0
0
0
0
0
0
0
0
0
0
0
0
0
0
0
0
0
0
0
0
0
0
0
0
0
0
0
0
0
0
0
0
0
0
0
0
0
0
0
0
0
0
0
0
0
0
0
0
0
0
0
0
0
0
0
0
0
0
0
0
0
0
0
0
0
0
0
0
0
0
0
0
0
0
0
0
0
0
0
0
0
0
0
0
0
0
0
0
0
0
0
0
0
0
0
0
0
0
0
0
0
0
0
0
0
0
0
0
0
0
0
0
0
0
0
0
0
0
0
0
0
0
0
0
0
0
0
0
0
0
0
0
0
0
0
0
0
0
0
0
0
0
0
0
0
0
0
0
0
0
0
0
0
0
0
0
0
0
0
0
0
0
0
0
0
0
0
0
0
0
0
0
0
0
0
0
0
0
0
0
0
0
0
0
0
0
0
0
0
0
0
0
0
0
0
0
0
0
0
0
0
0
0
0
0
0
0
0
0
0
0
0
0
0
0
0
0
0
0
0
0
0
0
0
0
0
0
0
0
0
0
0
0
0
0
0
0
0
0
0
0
0
0
0
0
0
0
0
0
0
0
0
0
0
0
0
0
0
0
0
0
0
0
0
0
0
0
0
0
0
0
0
0
0
0
0
0
0
0
0
0
0
0
0
0
0
0
0
0
0
0
0
0
0
0
0
0
0
0
0
0
0
0
0
0
0
0
0
0
0
0
0
0
0
0
0
0
0
0
0
0
0
0
0
0
0
0
0
0
0
0
0
0
0
0
0
0
0
0
0
0
0
0
0
0
0
0
0
0
0
0
0
0
0
0
0
0
0
0
0
0
0
0
0
0
0
0
0
0
0
0
0
0
0
0
0
0
0
0
0
0
0
0
0
0
0
0
0
0
0
0
0
0
0
0
0
0
0
0
0
0
0
0
0
0
0
0
0
0
0
0
0
0
0
0
0
0
0
0
0
0
0
0
0
0
0
0
0
0
0
0
0
0
0
0
0
0
0
0
0
0
0
0
0
0
0
0
0
0
0
0
0
0
0
0
0
0
0
0
0
0
0
0
0
0
0
0
0
0
0
0
295.3539
313.1089
348.4231
543.1517
426.1274
674.1896
719.5429
697.0328
718.2379
727.8583
691.1975
642.8876
665.6433
582.5708
395.7973
607.1638
476.3132
336.9123
244.8738
223.3456
311.8257
0
0
0
0
0
0
0
0
0
0
0
0
0
0
0
0
0
0
0
0
0
0
0
0
0
0
0
35.16306
0
0
59.43452
167.7741
0
0
0
0
0
0
0
0
0
0
0
0
0
0
0
0
0
0
0
0
0
0
0
0
0
0
0
0
0
0
0
0
42.49058
91.57701
0
0
0
0
5.798124
0
0
0
0
0
0
0
0
0
0
0
0
0
0
0
0
0
0
0
0
0
0
0
0
0
0
0
0
0
0
0
219.7244
220.3713
256.6966
146.8015
147.2562
183.7689
75.08805
75.48603
111.1655
0.2606169
0.4224802
38.26083
221.1271
221.6166
258.01
147.7042
148.1275
184.8513
75.93113
76.35726
112.0317
0.6583279
0.7363464
39.50701
148.5423
148.9728
185.6767
76.79375
77.22157
112.8688
0.7615687
0.7866868
40.34563
223.998
224.6057
260.5274
149.4446
149.904
187.1442
77.65693
78.09702
113.7429
0.8115878
0.8358936
40.97749
225.2731
225.944
262.1288
150.3639
150.7979
188.276
78.53726
78.9772
114.6069
0.859904
0.8829897
41.48743
151.2515
151.6904
189.3813
79.40283
79.77012
115.4627
0.9049546
0.9268515
41.95557
227.4286
227.3488
265.1372
152.0794
152.4807
189.1423
80.13947
80.51121
116.3246
0.9486247
0.9694502
42.38763
152.9275
153.3587
190.0165
80.88544
81.25935
117.1442
0.989407
1.008014
42.77735
229.0918
229.6734
268.1547
153.8124
154.2391
190.9335
81.64122
82.01696
117.9276
1.027578
1.047437
43.15479
230.2693
230.8423
269.6496
154.6928
155.0853
191.8354
82.40281
82.7836
118.7091
1.066258
1.0856
43.51678
231.4359
231.9825
270.5189
155.4993
155.8963
192.7504
83.1749
83.56112
119.4995
1.103525
1.120504
43.84545
232.0707
232.1969
270.867
156.3167
156.734
193.2825
83.95743
84.34948
120.3012
1.13695
1.153713
44.16451
232.3248
232.4372
271.1964
156.7999
156.877
193.4631
84.75188
85.17523
120.7714
1.17021
1.189161
44.45228
232.5668
232.6869
271.521
156.9697
157.0534
193.6435
85.22329
85.31076
120.953
1.212177
1.29239
44.31603
232.8195
232.9519
271.8307
157.1579
157.2523
193.8402
85.41427
85.50448
121.1493
1.504539
1.550194
44.26102
233.0757
233.229
272.1506
157.3597
157.4666
194.0491
85.6154
85.71001
121.358
1.537351
1.562924
43.93101
233.4428
234.8712
272.5759
157.5717
157.7988
195.8559
85.82232
85.92703
121.5827
1.614943
1.65774
43.64695
236.2581
236.6765
273.014
158.0013
158.1276
197.2842
86.0411
86.15959
121.8295
1.705153
1.752951
43.36644
236.8901
237.0866
273.3859
158.2594
158.3959
197.6171
86.27645
86.39754
122.0926
1.803355
1.854987
43.08596
237.3012
237.5199
273.7608
158.5392
158.6842
197.97
86.52433
86.64764
122.372
1.89912
1.946431
42.76235
237.7254
237.9745
274.1578
158.8334
158.9928
198.3427
86.77855
86.90646
122.6756
1.991353
2.037691
42.44195
238.1974
238.4992
274.5551
159.1547
159.3242
198.7589
87.04473
87.17044
122.9831
2.085734
2.133241
42.11661
238.8059
238.6512
275.3936
159.506
160.6216
200.0483
87.3045
87.43785
123.3694
2.185553
2.236205
41.80439
162.3728
163.2971
202.5586
87.57037
87.71113
123.8769
2.290576
2.347799
41.50317
240.4285
240.3829
275.9062
163.5935
163.8632
203.7912
87.85107
87.99557
124.288
2.405041
2.463037
41.20672
240.6019
240.9406
276.6778
164.1316
164.4159
204.4467
88.14428
88.29238
124.7335
2.522657
2.586046
40.92137
241.2941
241.681
277.3392
164.8479
166.0425
205.2555
88.441
88.66212
126.3299
2.649465
2.717356
40.64537
242.0683
242.5343
277.9686
168.2504
169.5468
206.1818
88.92642
89.1334
129.5436
2.785216
2.857245
40.43715
388.0423
387.7021
420.3598
316.2183
316.2109
351.8711
243.0118
243.5301
279.8682
170.1367
170.5968
207.1668
89.29859
89.45961
130.2154
2.928244
3.006292
40.2825
387.8243
388.1211
420.91
316.5362
316.9662
352.7174
244.0426
244.5879
280.8817
171.059
171.5466
208.1861
89.62387
89.87201
131.1617
3.084364
3.167279
40.17886
388.6504
389.1129
422.7721
317.4303
317.8981
353.5219
245.1706
245.7223
281.953
172.152
172.6485
209.2534
92.30411
94.07343
135.4513
3.251362
3.342365
40.36137
389.6399
390.8493
424.6126
318.3658
318.7655
354.4389
246.3061
246.8095
282.9589
173.0982
173.4994
210.2322
94.61569
94.95648
136.8328
3.431751
3.531136
40.83747
391.2193
391.8559
426.1377
319.0592
319.1737
355.1821
247.2322
247.4767
283.52
173.8976
174.2572
210.9012
95.7601
100.0436
138.1202
3.640888
3.79488
46.11007
393.2107
394.4097
425.2617
319.2996
318.9704
355.9428
247.4344
246.9881
282.9246
174.4055
174.5212
210.6048
103.125
106.1745
139.8213
3.981688
4.24813
51.97921
394.2356
393.0014
423.2167
318.284
316.4748
356.5721
245.7222
243.0805
279.6162
174.689
174.7662
207.7612
110.0266
113.7284
144.2317
4.756845
4.86624
58.33913
389.8325
385.4019
416.6105
312.196
309.2242
349.9172
238.5252
233.1196
268.014
174.5071
173.0262
200.696
118.5501
126.6657
149.1494
5.932614
7.367358
80.86762
377.2156
367.7507
399.677
303.8922
295.8357
329.205
227.9375
220.5711
250.7339
168.5959
160.6085
190.8491
129.7059
124.8163
139.2825
7.995934
8.686876
87.69166
355.7302
345.6193
376.2956
287.5128
275.8729
309.5486
210.3009
199.2972
245.7803
149.0525
140.9152
173.9556
115.877
107.6086
121.1417
22.89464
22.67013
89.59526
335.0473
327.0822
357.9539
267.5938
260.7148
294.0115
196.959
199.2683
227.1242
142.8985
145.0098
164.9648
102.3513
98.99471
122.3506
23.45335
28.93955
84.66021
323.6679
330.4332
357.6992
262.2334
269.3793
302.3064
202.2756
204.5121
233.953
154.3749
163.8311
185.9723
99.5751
106.0762
138.8928
33.88904
45.42037
77.9992
346.9581
367.223
408.5685
276.3911
282.1161
326.7819
213.0267
229.2899
248.8787
172.3016
184.6981
212.3708
114.7143
121.5511
157.0586
53.28003
59.22526
79.64372
388.7848
414.8908
472.1877
291.714
310.8364
354.3356
247.6086
270.3679
291.096
194.9449
206.6118
241.1989
131.7427
144.4819
174.9725
64.2847
68.69365
89.16707
425.7019
449.6217
524.5873
328.3503
349.9894
383.2738
297.6024
323.1732
341.2187
221.3364
238.3588
281.5819
159.6367
174.0033
195.2139
72.82959
81.10283
100.8527
465.3668
512.7572
611.9133
368.4234
407.9983
431.2829
342.9741
370.6532
390.7864
253.9194
284.029
326.749
188.3856
202.8479
222.7475
85.11201
90.48453
123.3432
545.0465
581.5905
689.8092
448.413
482.8048
504.0906
389.8562
426.8493
471.0927
306.2004
325.8004
354.7891
214.2557
223.0889
258.4129
98.43186
100.2994
133.7746
622.6548
660.3979
782.3917
517.3161
558.7065
598.0996
462.6935
489.6799
529.5804
342.6648
353.7621
410.3723
241.8994
249.1274
285.2807
110.7122
111.6844
150.1362
678.3112
715.8805
817.5297
616.698
672.2262
673.1858
507.2199
531.1685
605.5368
386.5118
424.0114
459.2777
264.6626
284.188
337.6611
121.4684
135.5389
204.4052
750.852
799.3003
849.6056
700.1843
734.1676
769.8255
567.5978
597.2017
652.7205
427.5604
437.7251
516.8499
297.2146
317.1594
384.3309
157.3693
163.0703
234.5973
841.3777
877.3814
903.4533
767.7443
784.158
836.2876
601.266
636.0872
722.8882
462.6843
486.2096
543.8612
330.25
318.6125
402.9534
181.0353
193.657
271.5264
921.4448
963.4766
996.1893
799.5287
834.0851
893.0157
660.3331
674.0801
754.0575
488.7601
521.5657
614.9793
336.8777
354.6601
438.887
197.6073
198.1522
285.8637
1005.442
1033.825
1085.777
868.3214
901.3873
968.3497
706.7081
724.7839
831.684
534.1933
570.1615
666.0784
379.8482
392.2986
471.1143
204.289
207.6372
318.1779
1060.8
1083.673
1136.715
920.5833
958.3649
1003.745
761.9927
762.6074
858.4472
585.5714
613.4154
718.9199
424.1043
428.5503
538.5172
245.0619
217.1112
354.0564
1089.178
1100.638
1137.597
976.5536
950.0638
989.6033
793.9485
805.6098
915.2997
608.9891
654.2109
775.8389
453.7153
502.602
565.4806
1118.876
1087.45
1163.638
982.3497
976.8547
1005.289
800.4741
847.9883
910.1314
662.8061
702.2898
783.7654
544.5291
560.4206
653.321
1103.022
1084.356
1159.686
985.0124
987.4007
1028.684
867.0321
910.8627
921.5659
672.6667
780.684
833.1587
1107.664
1092.46
1149.052
994.0448
987.3366
1027.786
882.2525
893.4522
932.6181
786.4882
808.5485
836.5637
1078.85
1067.504
1123.05
971.0024
950.1704
1002.229
872.0175
839.9776
891.8502
782.7871
735.0276
783.463
1035.421
1034.009
1099.806
932.966
919.6703
977.4813
825.2652
789.0298
839.3968
683.216
602.2873
694.9143
1006.151
1008.011
1049.12
900.5121
881.7458
929.5073
755.2979
707.9761
793.5493
613.4149
572.9676
656.313
458.5825
432.0126
480.5685
966.2241
944.5948
1000.134
835.7549
813.7199
866.8743
689.5685
669.3599
728.5653
556.7508
500.598
600.1935
410.6981
361.6246
411.5308
882.6297
861.8913
927.3931
774.8616
748.9199
811.8759
638.7786
629.2872
667.5407
498.7167
478.7679
569.05
362.3154
353.3009
428.7445
194.1892
175.7045
260.0609
847.9155
810.1719
879.7637
720.5735
691.1751
771.2316
598.2706
582.8185
662.3702
459.3449
447.6923
537.7493
331.4687
320.0594
401.9207
165.4025
152.337
231.5613
798.2005
788.9316
813.8582
694.4848
672.7598
737.6387
572.2745
570.5903
613.3968
436.6225
424.4733
498.2238
305.9526
297.5063
373.7113
153.2964
151.7161
235.9488
763.2889
732.0458
744.7789
645.9243
632.4727
681.9824
542.7979
497.3613
573.2156
419.6598
388.2971
461.7013
282.942
285.4169
325.1737
147.0291
115.4419
220.9079
703.406
666.1043
688.222