/*--------------------------------*- C++ -*----------------------------------*\
| =========                 |                                                 |
| \\      /  F ield         | OpenFOAM: The Open Source CFD Toolbox           |
|  \\    /   O peration     | Version:  2206                                  |
|   \\  /    A nd           | Website:  www.openfoam.com                      |
|    \\/     M anipulation  |                                                 |
\*---------------------------------------------------------------------------*/
FoamFile
{
    version     2.0;
    format      ascii;
    arch        "LSB;label=32;scalar=64";
    class       volVectorField;
    location    "2.8";
    object      U;
}
// * * * * * * * * * * * * * * * * * * * * * * * * * * * * * * * * * * * * * //

dimensions      [0 1 -1 0 0 0 0];

internalField   nonuniform List<vector> 
13078
(
(5.874706e-06 -9.268847e-05 -1.716246e-27)
(1.734569e-06 -2.213879e-05 2.777818e-30)
(-4.354662e-07 -1.17121e-05 1.736994e-27)
(-8.004922e-07 -7.817918e-06 0)
(-8.886054e-07 -8.594766e-06 2.382147e-28)
(-9.589116e-07 -8.472461e-06 1.475133e-28)
(-1.050426e-06 -8.315337e-06 8.175248e-29)
(-3.324288e-05 -4.500936e-05 0)
(-2.184983e-05 -1.316766e-05 -1.745729e-29)
(-6.609593e-06 -4.904489e-06 0)
(-3.343543e-06 -6.612507e-06 0)
(-1.79966e-06 -7.856524e-06 -8.616326e-31)
(-1.297921e-06 -8.101951e-06 -2.198476e-31)
(-1.164787e-06 -8.156923e-06 -1.453898e-31)
(2.380483e-05 -4.68268e-06 2.366153e-27)
(4.290131e-06 -1.966545e-06 -1.244512e-27)
(-1.524353e-06 -3.745461e-06 -4.194002e-28)
(-2.023576e-06 -5.625749e-06 -5.94861e-28)
(-1.49169e-06 -6.811079e-06 -1.997441e-28)
(-1.155321e-06 -7.361228e-06 0)
(-1.053628e-06 -7.700161e-06 3.884377e-34)
(1.691577e-05 -4.937699e-07 1.188185e-27)
(6.30194e-06 -2.302067e-07 -1.617559e-27)
(1.512221e-06 -2.477222e-06 -1.038857e-27)
(-1.514641e-07 -4.359868e-06 -3.343159e-28)
(-4.668571e-07 -5.62575e-06 6.315043e-30)
(-5.730703e-07 -6.483282e-06 0)
(-6.685549e-07 -7.083506e-06 1.432925e-30)
(1.321652e-05 2.561795e-07 2.031212e-30)
(7.349308e-06 1.354327e-07 -6.13777e-28)
(3.725816e-06 -1.539582e-06 -9.408256e-28)
(1.78795e-06 -3.219857e-06 -6.724677e-28)
(7.92784e-07 -4.584958e-06 3.843385e-28)
(3.033514e-07 -5.647639e-06 -8.891888e-33)
(-4.704091e-08 -6.448432e-06 -3.71405e-29)
(1.167236e-05 2.463529e-07 0)
(8.213985e-06 2.083045e-07 -5.896681e-30)
(5.376472e-06 -1.030991e-06 7.034675e-30)
(3.429521e-06 -2.474458e-06 -3.582639e-28)
(2.175631e-06 -3.829957e-06 -1.007767e-29)
(1.323734e-06 -4.971046e-06 4.918328e-29)
(7.447211e-07 -5.910251e-06 1.851768e-29)
(1.096595e-05 1.004238e-07 0)
(8.796661e-06 3.442375e-08 -5.111981e-28)
(6.63474e-06 -9.150751e-07 -3.718194e-28)
(4.851421e-06 -2.12144e-06 6.728401e-29)
(3.486456e-06 -3.389966e-06 -3.106128e-28)
(2.45901e-06 -4.545148e-06 -2.361427e-30)
(1.625112e-06 -5.528165e-06 0)
(1.072569e-05 -5.251117e-08 1.05696e-27)
(9.303866e-06 -2.279454e-07 -4.990683e-28)
(7.647979e-06 -1.033005e-06 -4.496841e-28)
(6.078589e-06 -2.094843e-06 0)
(4.712526e-06 -3.251592e-06 -6.644893e-28)
(3.575128e-06 -4.362693e-06 1.078404e-30)
(2.599403e-06 -5.367132e-06 4.658409e-30)
(1.082568e-05 -1.854378e-07 2.253644e-32)
(9.843542e-06 -5.109179e-07 1.006488e-27)
(8.548034e-06 -1.292009e-06 4.627254e-28)
(7.177629e-06 -2.265517e-06 -4.91395e-31)
(5.85831e-06 -3.343934e-06 -1.44571e-27)
(4.665143e-06 -4.411097e-06 4.449107e-30)
(3.573478e-06 -5.40432e-06 0)
(1.119392e-05 -3.039272e-07 -1.073804e-27)
(1.047586e-05 -7.9124e-07 1.039394e-27)
(9.429914e-06 -1.616351e-06 4.87317e-28)
(8.218316e-06 -2.5707e-06 -8.872839e-28)
(6.953528e-06 -3.613221e-06 -1.534715e-31)
(5.730789e-06 -4.653822e-06 0)
(4.550257e-06 -5.63796e-06 0)
(1.179218e-05 -4.099311e-07 0)
(1.123777e-05 -1.065317e-06 0)
(1.035466e-05 -1.980274e-06 1.036198e-27)
(9.257092e-06 -2.969373e-06 -9.550786e-28)
(8.034996e-06 -4.019364e-06 2.472277e-31)
(6.789507e-06 -5.060611e-06 0)
(5.53316e-06 -6.04898e-06 0)
(1.260376e-05 -5.10262e-07 0)
(1.214824e-05 -1.339307e-06 -1.166707e-27)
(1.136658e-05 -2.374893e-06 1.113566e-27)
(1.034063e-05 -3.440568e-06 1.026218e-27)
(9.140362e-06 -4.537455e-06 -9.553742e-28)
(7.86621e-06 -5.609631e-06 0)
(6.535865e-06 -6.622488e-06 7.639265e-28)
(1.362176e-05 -6.096538e-07 0)
(1.32241e-05 -1.620448e-06 -1.263601e-27)
(1.249893e-05 -2.800595e-06 -7.599204e-30)
(1.150728e-05 -3.975974e-06 1.127507e-27)
(1.030551e-05 -5.154543e-06 -1.036627e-27)
(8.988398e-06 -6.28799e-06 9.300118e-28)
(7.577567e-06 -7.348511e-06 5.974595e-31)
(1.484868e-05 -7.118773e-07 -1.398105e-27)
(1.448128e-05 -1.91583e-06 0)
(1.377904e-05 -3.261858e-06 -9.564576e-30)
(1.278725e-05 -4.574439e-06 -1.342334e-29)
(1.156527e-05 -5.864389e-06 -2.284278e-27)
(1.018336e-05 -7.090276e-06 1.030653e-27)
(8.680288e-06 -8.222388e-06 -9.054767e-28)
(1.629396e-05 -8.198539e-07 -1.531254e-27)
(1.593783e-05 -2.232363e-06 0)
(1.523499e-05 -3.768242e-06 -2.308652e-29)
(1.421647e-05 -5.253013e-06 1.575921e-27)
(1.297356e-05 -6.652869e-06 -9.457584e-28)
(1.148294e-05 -8.012234e-06 0)
(9.868278e-06 -9.243481e-06 1.008024e-27)
(1.797223e-05 -9.35643e-07 0)
(1.761245e-05 -2.57382e-06 -1.653159e-27)
(1.688857e-05 -4.315286e-06 0)
(1.584014e-05 -5.971565e-06 1.547947e-27)
(1.450612e-05 -7.568912e-06 4.848356e-29)
(1.290836e-05 -9.067149e-06 5.928181e-29)
(1.116514e-05 -1.041871e-05 1.194389e-27)
(1.990304e-05 -1.061725e-06 0)
(1.952777e-05 -2.948141e-06 -3.657308e-27)
(1.876386e-05 -4.922963e-06 -1.589704e-29)
(1.765165e-05 -6.792598e-06 -2.198987e-29)
(1.621759e-05 -8.587552e-06 0)
(1.449027e-05 -1.025784e-05 0)
(1.259552e-05 -1.1756e-05 0)
(2.21105e-05 -1.200133e-06 -2.067897e-27)
(2.170984e-05 -3.360108e-06 -2.035021e-27)
(2.089029e-05 -5.59454e-06 -3.660645e-29)
(1.969144e-05 -7.706338e-06 -2.526399e-29)
(1.813601e-05 -9.724113e-06 0)
(1.625774e-05 -1.159551e-05 -1.649318e-27)
(1.418473e-05 -1.326726e-05 -1.818881e-28)
(2.46228e-05 -1.352672e-06 -2.301305e-27)
(2.418781e-05 -3.81519e-06 -2.263426e-27)
(2.329804e-05 -6.338646e-06 -6.263821e-29)
(2.199221e-05 -8.722602e-06 -5.764391e-29)
(2.028613e-05 -1.099048e-05 0)
(1.82472e-05 -1.308898e-05 -1.755724e-27)
(1.595893e-05 -1.496796e-05 -1.030699e-28)
(2.747226e-05 -1.521377e-06 -2.567959e-27)
(2.699453e-05 -4.319092e-06 -5.032568e-27)
(2.602161e-05 -7.165249e-06 -2.430176e-27)
(2.459458e-05 -9.862083e-06 0)
(2.271271e-05 -1.243958e-05 6.330413e-28)
(2.053904e-05 -1.472585e-05 9.691237e-28)
(1.795394e-05 -1.686948e-05 2.323487e-28)
(3.069516e-05 -1.707877e-06 -2.870823e-27)
(3.016595e-05 -4.876437e-06 -5.610012e-27)
(2.909516e-05 -8.078007e-06 -5.400834e-27)
(2.752963e-05 -1.110572e-05 -2.507513e-27)
(2.550358e-05 -1.396055e-05 9.368596e-29)
(2.305525e-05 -1.661322e-05 -2.161589e-27)
(2.019139e-05 -1.900658e-05 1.823779e-27)
(3.433232e-05 -1.914736e-06 0)
(3.37426e-05 -5.494946e-06 -3.12157e-27)
(3.255919e-05 -9.094172e-06 -3.003663e-27)
(3.08305e-05 -1.250339e-05 -5.773528e-27)
(2.860137e-05 -1.571201e-05 0)
(2.588433e-05 -1.870186e-05 -2.422011e-27)
(2.271413e-05 -2.139474e-05 3.163017e-30)
(3.842926e-05 -2.143921e-06 3.586583e-27)
(3.777003e-05 -6.180664e-06 0)
(3.646015e-05 -1.022156e-05 0)
(3.45486e-05 -1.4055e-05 9.113879e-29)
(3.208248e-05 -1.766236e-05 3.137638e-27)
(2.905752e-05 -2.101965e-05 0)
(2.557539e-05 -2.404708e-05 -2.461419e-27)
(4.30363e-05 -2.397623e-06 8.030554e-27)
(4.229792e-05 -6.939836e-06 0)
(4.084752e-05 -1.147061e-05 0)
(3.873517e-05 -1.577847e-05 3.513209e-27)
(3.601584e-05 -1.98516e-05 6.639237e-27)
(3.265329e-05 -2.368807e-05 -3.092791e-27)
(2.890975e-05 -2.695127e-05 0)
(4.82084e-05 -2.67807e-06 4.496606e-27)
(4.737998e-05 -7.778698e-06 2.583405e-29)
(4.577338e-05 -1.284982e-05 4.292756e-27)
(4.343798e-05 -1.76756e-05 1.173012e-28)
(4.044391e-05 -2.222486e-05 1.525504e-28)
(3.681664e-05 -2.644715e-05 -3.484873e-27)
(3.256765e-05 -3.029003e-05 0)
(5.400572e-05 -2.987722e-06 0)
(5.307536e-05 -8.704997e-06 -4.924139e-27)
(5.129563e-05 -1.437402e-05 4.762139e-27)
(4.871427e-05 -1.977885e-05 0)
(4.540815e-05 -2.488574e-05 -3.929035e-27)
(4.14166e-05 -2.963028e-05 7.994734e-28)
(3.669161e-05 -3.398625e-05 4.64197e-28)
(6.049371e-05 -3.328897e-06 -5.637469e-27)
(5.944928e-05 -9.726081e-06 -5.515285e-27)
(5.747791e-05 -1.605431e-05 5.328813e-27)
(5.462933e-05 -2.209655e-05 0)
(5.098657e-05 -2.781576e-05 -3.705888e-28)
(4.658795e-05 -3.314169e-05 -6.067402e-31)
(4.135079e-05 -3.805602e-05 5.184913e-28)
(6.774164e-05 -3.704224e-06 -6.312709e-27)
(6.657632e-05 -1.084663e-05 -6.170344e-27)
(6.438796e-05 -1.790344e-05 5.970101e-27)
(6.124806e-05 -2.464654e-05 0)
(5.724297e-05 -3.104072e-05 0)
(5.242603e-05 -3.70401e-05 -4.944988e-27)
(4.667993e-05 -4.26997e-05 3.500364e-29)
(7.582717e-05 -4.109975e-06 -7.076649e-27)
(7.453539e-05 -1.207635e-05 -6.949076e-27)
(7.209904e-05 -1.99387e-05 0)
(6.863945e-05 -2.744907e-05 6.014436e-27)
(6.42302e-05 -3.456653e-05 -4.590694e-28)
(5.893754e-05 -4.118731e-05 -1.056077e-26)
(5.272374e-05 -4.71725e-05 1.911145e-27)
(8.481638e-05 -4.57839e-06 -7.901734e-27)
(8.345973e-05 -1.337246e-05 0)
(8.070988e-05 -2.216206e-05 -7.614046e-27)
(7.689421e-05 -3.054311e-05 6.94498e-27)
(7.20461e-05 -3.850006e-05 -6.723376e-27)
(6.621392e-05 -4.595737e-05 -1.246517e-26)
(5.933125e-05 -5.281776e-05 -5.639519e-27)
(9.491569e-05 -5.026635e-06 0)
(9.329762e-05 -1.486662e-05 0)
(9.031715e-05 -2.46e-05 -1.672218e-26)
(8.61168e-05 -3.394652e-05 0)
(8.081371e-05 -4.283689e-05 -1.508169e-26)
(7.445793e-05 -5.122696e-05 -7.003835e-27)
(6.69904e-05 -5.908556e-05 6.354943e-27)
(0.0001061189 -5.584461e-06 -9.93017e-27)
(0.0001041887 -1.656395e-05 9.568005e-27)
(0.000101106 -2.712165e-05 9.25488e-27)
(9.647128e-05 -3.760384e-05 0)
(9.063487e-05 -4.757531e-05 -8.46005e-27)
(8.374881e-05 -5.696475e-05 0)
(7.569107e-05 -6.573271e-05 5.422074e-27)
(0.0001185591 -6.154348e-06 -1.106167e-26)
(0.0001164939 -1.820242e-05 1.083155e-26)
(0.0001128686 -3.017575e-05 3.130844e-26)
(0.0001082211 -4.141214e-05 2.037521e-26)
(0.0001016663 -5.270833e-05 -8.780244e-27)
(9.421824e-05 -6.328547e-05 8.311006e-28)
(8.549153e-05 -7.321685e-05 -9.699788e-28)
(0.000132301 -6.774655e-06 2.076606e-29)
(0.0001299791 -2.000069e-05 6.356571e-29)
(0.0001262024 -3.299549e-05 1.216995e-26)
(0.0001209553 -4.575533e-05 2.16633e-26)
(0.0001140787 -5.823147e-05 -1.214751e-26)
(0.0001060597 -7.018221e-05 1.831371e-27)
(9.668131e-05 -8.147522e-05 4.297826e-27)
(0.0001474426 -7.433455e-06 -2.250368e-29)
(0.0001447806 -2.195469e-05 -6.909995e-29)
(0.0001407753 -3.626304e-05 1.269795e-26)
(0.0001350106 -5.054805e-05 7.364701e-27)
(0.0001282806 -6.375857e-05 -7.679791e-27)
(0.00011961 -7.745057e-05 9.17012e-27)
(0.0001094761 -9.041993e-05 0)
(0.0001640153 -8.089315e-06 0)
(0.0001609623 -2.388179e-05 0)
(0.0001567765 -3.9395e-05 1.469917e-26)
(0.0001511233 -5.481534e-05 1.553997e-26)
(0.000143662 -7.039986e-05 2.171747e-26)
(0.0001354364 -8.479726e-05 2.07426e-26)
(0.0001242002 -9.999045e-05 0)
(0.0001819807 -8.714041e-06 -5.106402e-29)
(0.0001784747 -2.571527e-05 1.527917e-28)
(0.0001741019 -4.243125e-05 5.254913e-28)
(0.0001685044 -5.908172e-05 0)
(0.0001613673 -7.584113e-05 3.043328e-26)
(0.0001526352 -9.289801e-05 -2.353317e-27)
(0.0001414319 -0.0001100999 -5.656768e-27)
(0.0002011721 -9.235453e-06 -1.879436e-26)
(0.0001971842 -2.725559e-05 1.652939e-28)
(0.0001927656 -4.509687e-05 -1.817049e-26)
(0.0001874519 -6.318653e-05 0)
(0.0001808348 -8.189085e-05 1.914296e-26)
(0.000172108 -0.0001017442 3.572887e-28)
(0.0001625513 -0.0001203205 -2.857688e-26)
(0.0002212067 -9.550313e-06 -2.070797e-26)
(0.0002169393 -2.823862e-05 -2.025159e-26)
(0.0002127406 -4.707335e-05 -2.012286e-26)
(0.0002080938 -6.648673e-05 -1.623534e-27)
(0.0002025463 -8.684518e-05 -4.301742e-27)
(0.0001952563 -0.0001083614 1.041024e-26)
(0.0001861155 -0.0001314391 -1.311314e-26)
(0.0002415793 -9.652039e-06 0)
(0.0002375151 -2.835745e-05 2.196617e-26)
(0.0002339558 -4.801528e-05 2.213513e-26)
(0.0002303528 -6.87373e-05 8.374662e-28)
(0.0002264305 -9.101426e-05 -2.376353e-26)
(0.000221232 -0.0001154921 -2.845919e-27)
(0.0002133213 -0.0001431296 0)
(0.0002619937 -9.259207e-06 2.468706e-26)
(0.0002581308 -2.808212e-05 4.765174e-26)
(0.0002560314 -4.732974e-05 2.230503e-26)
(0.0002541211 -6.906202e-05 4.831585e-26)
(0.0002523627 -9.291877e-05 -2.635939e-26)
(0.0002503741 -0.0001195332 2.104757e-26)
(0.000246062 -0.0001499452 7.102623e-27)
(0.0002813317 -8.53223e-06 2.649948e-26)
(0.0002788553 -2.620326e-05 -1.505463e-28)
(0.0002775326 -4.57051e-05 0)
(0.0002787499 -6.645587e-05 6.96234e-28)
(0.0002799878 -9.152327e-05 5.354936e-26)
(0.0002810974 -0.0001207198 5.408427e-26)
(0.0002777401 -0.0001567805 8.843446e-31)
(0.0002988245 -7.396582e-06 -2.820895e-26)
(0.0002980539 -2.318168e-05 2.460361e-28)
(0.000298926 -4.109754e-05 4.561016e-28)
(0.0003018397 -6.186634e-05 -6.147152e-26)
(0.0003074271 -8.577564e-05 1.107967e-25)
(0.000308985 -0.0001198649 8.937114e-26)
(0.000301944 -0.0001652685 3.656872e-26)
(0.0003134466 -5.805422e-06 -2.961289e-26)
(0.0003149818 -1.882379e-05 0)
(0.0003178078 -3.423734e-05 6.747724e-28)
(0.0003242813 -5.315392e-05 3.244797e-26)
(0.0003284851 -8.08359e-05 7.251468e-26)
(0.0003280512 -0.0001207347 8.09679e-26)
(0.0003168332 -0.0001791014 3.069973e-26)
(0.0003244409 -3.847281e-06 0)
(0.0003282658 -1.294027e-05 1.857159e-28)
(0.0003329935 -2.494127e-05 4.121574e-28)
(0.0003408559 -4.408008e-05 3.234341e-26)
(0.0003423518 -7.806739e-05 1.291089e-27)
(0.0003341859 -0.0001289856 -1.144245e-26)
(0.0003201059 -0.0001923205 -2.868038e-26)
(0.0003309633 -1.503425e-06 0)
(0.0003363481 -5.862848e-06 2.355263e-31)
(0.0003418783 -1.487826e-05 3.725218e-31)
(0.0003472743 -3.765487e-05 -6.706118e-26)
(0.0003447541 -8.101373e-05 -8.248709e-32)
(0.0003328473 -0.0001410158 1.063105e-26)
(0.000312598 -0.000216448 1.773486e-26)
(0.0003315577 1.355313e-06 -3.144218e-26)
(0.0003380413 1.847879e-06 -3.244263e-26)
(0.0003420809 -8.003228e-06 5.822182e-31)
(0.0003415346 -3.749862e-05 -6.565686e-26)
(0.0003351808 -8.816135e-05 5.056778e-27)
(0.0003196023 -0.0001572675 -3.714226e-26)
(0.0002988013 -0.0002394549 4.811658e-26)
(0.0003246792 4.66445e-06 -3.086248e-26)
(0.0003304775 7.973854e-06 -6.388857e-26)
(0.0003311901 -6.327745e-06 3.21238e-26)
(0.0003266832 -4.320404e-05 7.446699e-28)
(0.000314738 -0.0001029648 8.886923e-27)
(0.0002957984 -0.0001788743 -1.647574e-26)
(0.0002726508 -0.0002700615 7.397893e-26)
(0.0003091251 7.196351e-06 -2.189638e-30)
(0.0003120504 1.082592e-05 -3.010998e-26)
(0.0003093947 -9.19352e-06 3.02169e-26)
(0.000302303 -5.373326e-05 -8.9257e-31)
(0.0002877319 -0.0001205905 -2.838501e-26)
(0.0002660076 -0.0002051736 1.222156e-31)
(0.0002382946 -0.0003056067 -6.901028e-26)
(0.0002842606 7.728148e-06 2.70346e-26)
(0.0002833178 9.496088e-06 2.710721e-26)
(0.0002776802 -1.603314e-05 -8.160053e-29)
(0.0002687232 -6.754381e-05 -5.003559e-31)
(0.0002529187 -0.0001423283 -2.492112e-26)
(0.0002310085 -0.0002356486 -3.150189e-26)
(0.0002023673 -0.0003432609 -1.306406e-26)
(0.0002496701 6.423317e-06 2.409403e-26)
(0.000245582 3.752605e-06 2.54134e-26)
(0.0002383463 -2.654659e-05 1.462968e-28)
(0.0002278 -8.372944e-05 1.146753e-27)
(0.0002112275 -0.0001657382 -5.709429e-27)
(0.0001896291 -0.0002659169 -2.85243e-26)
(0.0001618716 -0.0003828141 1.657508e-26)
(0.0002050182 3.009766e-06 2.016015e-31)
(0.0002001305 -4.63957e-06 -6.878367e-31)
(0.0001927663 -3.903143e-05 4.057958e-28)
(0.0001803465 -0.0001019501 2.313087e-26)
(0.0001637329 -0.0001902265 -8.112586e-27)
(0.0001430501 -0.0002973726 2.435685e-29)
(0.0001159544 -0.0004261914 5.552245e-29)
(0.0001519836 -3.406225e-07 -3.010093e-33)
(0.0001477122 -1.303622e-05 -7.742357e-31)
(0.0001406868 -5.264013e-05 6.795361e-27)
(0.0001295365 -0.0001205871 1.240569e-26)
(0.0001152827 -0.0002131408 -5.610271e-27)
(9.757928e-05 -0.0003297331 6.290532e-27)
(7.2384e-05 -0.0004717797 -4.585337e-26)
(9.32015e-05 -3.545745e-06 -2.473941e-32)
(9.004107e-05 -2.112258e-05 6.845911e-30)
(8.449112e-05 -6.455338e-05 1.898864e-28)
(7.682444e-05 -0.0001370758 -2.927847e-32)
(6.756052e-05 -0.0002358632 7.150572e-27)
(5.561458e-05 -0.0003626322 6.029303e-27)
(3.63649e-05 -0.0005113174 2.13357e-26)
(3.172824e-05 -6.336648e-06 -1.433928e-27)
(2.985959e-05 -2.819691e-05 1.262756e-28)
(2.671683e-05 -7.501963e-05 -1.805067e-27)
(2.314841e-05 -0.0001518866 -2.305665e-27)
(1.980088e-05 -0.0002572298 -3.331531e-27)
(1.485032e-05 -0.0003918011 6.04762e-27)
(4.315824e-06 -0.00054529 7.765275e-27)
(-3.177553e-05 -8.257019e-06 1.398379e-27)
(-3.1939e-05 -3.380785e-05 2.080113e-28)
(-3.187208e-05 -8.365836e-05 1.548079e-27)
(-3.050565e-05 -0.0001645437 -2.341167e-27)
(-2.726557e-05 -0.0002753421 -4.013381e-27)
(-2.419732e-05 -0.0004142818 -7.598127e-27)
(-2.445704e-05 -0.0005716218 -2.447179e-26)
(-9.499209e-05 -8.963347e-06 1.724353e-27)
(-9.32835e-05 -3.689845e-05 -1.592601e-27)
(-8.982808e-05 -8.96263e-05 2.1772e-27)
(-8.338687e-05 -0.0001739373 -2.20723e-27)
(-7.350579e-05 -0.0002879305 6.220895e-31)
(-6.217322e-05 -0.0004283845 5.744864e-27)
(-5.124996e-05 -0.0005873161 -6.468975e-27)
(-0.0001533578 -8.498046e-06 -3.68539e-27)
(-0.0001502014 -3.72031e-05 -3.624156e-27)
(-0.000143632 -9.203647e-05 8.023938e-27)
(-0.0001327448 -0.0001779536 1.002104e-27)
(-0.000117109 -0.0002921527 -3.545525e-27)
(-9.837792e-05 -0.0004316531 -5.479755e-27)
(-7.718518e-05 -0.0005895034 7.668851e-27)
(-0.0002050117 -7.066613e-06 -1.961254e-26)
(-0.0002008847 -3.500118e-05 -3.014089e-29)
(-0.0001919465 -9.055302e-05 1.419849e-26)
(-0.0001775708 -0.0001760982 8.602882e-28)
(-0.0001572635 -0.0002883898 1.620468e-27)
(-0.0001325005 -0.0004250352 -1.208768e-27)
(-0.0001030564 -0.0005801183 -1.51861e-26)
(-0.0002502586 -4.913799e-06 -1.193591e-26)
(-0.0002457511 -3.072534e-05 1.191404e-26)
(-0.0002358509 -8.572e-05 2.370184e-26)
(-0.0002187285 -0.0001696461 -7.813838e-30)
(-0.0001949941 -0.0002790444 -5.565253e-27)
(-0.0001653744 -0.0004112958 4.790351e-27)
(-0.0001305397 -0.0005635941 -3.999865e-26)
(-0.0002870853 -2.360071e-06 -6.717457e-32)
(-0.0002830627 -2.495349e-05 1.137567e-30)
(-0.0002738078 -7.772693e-05 1.375901e-26)
(-0.0002564411 -0.0001592507 3.621813e-27)
(-0.0002316874 -0.000265973 -1.099444e-29)
(-0.0001999886 -0.0003921637 3.083825e-26)
(-0.000162354 -0.000535108 7.203122e-26)
(-0.0003135255 9.210579e-08 -2.971387e-26)
(-0.0003110528 -1.820414e-05 -1.491223e-26)
(-0.0003029424 -6.743324e-05 -9.48923e-29)
(-0.0002887411 -0.0001451521 -3.817918e-30)
(-0.0002655574 -0.0002463228 2.021492e-27)
(-0.0002346808 -0.0003659182 1.890184e-26)
(-0.0001959844 -0.0005026675 -3.450013e-26)
(-0.0003294138 1.041262e-06 -4.422606e-29)
(-0.0003301125 -1.228987e-05 -5.514606e-29)
(-0.0003247858 -5.606185e-05 -9.077553e-33)
(-0.0003144986 -0.0001285148 3.129997e-26)
(-0.0002942086 -0.000223871 -3.040369e-26)
(-0.0002649079 -0.0003359893 2.871142e-26)
(-0.000226174 -0.0004656844 -4.508258e-26)
(-0.0003365044 4.611605e-07 3.173157e-26)
(-0.0003409758 -9.557467e-06 1.136562e-28)
(-0.0003393759 -4.554858e-05 -3.246552e-26)
(-0.0003329596 -0.0001098939 3.253368e-26)
(-0.0003164107 -0.0001987961 -3.204878e-26)
(-0.0002894937 -0.0003029671 -3.058751e-26)
(-0.0002530779 -0.00042453 -1.641819e-29)
(-0.0003361388 -1.501508e-06 -3.165509e-26)
(-0.0003430311 -1.034868e-05 3.228591e-26)
(-0.0003449048 -3.760483e-05 -3.263126e-26)
(-0.0003420762 -9.099577e-05 -1.121413e-27)
(-0.0003298346 -0.0001729592 -6.557506e-27)
(-0.0003074133 -0.0002690864 -3.960257e-26)
(-0.0002775394 -0.0003786903 -2.990169e-26)
(-0.0003293246 -3.986361e-06 -3.092669e-26)
(-0.0003366051 -1.377894e-05 3.1576e-26)
(-0.0003414404 -3.385871e-05 7.390631e-32)
(-0.0003419829 -7.481286e-05 -1.795504e-27)
(-0.0003366186 -0.0001432267 -4.469062e-27)
(-0.0003199095 -0.0002347822 -2.621364e-29)
(-0.0002955031 -0.0003359387 -3.096587e-26)
(-0.000317719 -5.822038e-06 0)
(-0.000323662 -1.85889e-05 -3.318181e-30)
(-0.0003299466 -3.540534e-05 -4.693212e-31)
(-0.0003353112 -6.542425e-05 5.809663e-30)
(-0.0003342184 -0.0001195421 -1.634635e-29)
(-0.000323639 -0.0001999858 -2.452767e-29)
(-0.0003027927 -0.0002942429 -5.981822e-26)
(-0.0003027089 -7.180106e-06 0)
(-0.0003071606 -2.235763e-05 -2.901122e-28)
(-0.0003127915 -4.009492e-05 -5.727974e-28)
(-0.0003202713 -6.45392e-05 5.304478e-30)
(-0.0003224319 -0.0001031237 -3.004582e-26)
(-0.0003169521 -0.0001655706 5.886944e-26)
(-0.0003032773 -0.0002498812 1.78742e-27)
(-0.0002855465 -8.146449e-06 -2.671712e-26)
(-0.0002879716 -2.53094e-05 0)
(-0.0002919693 -4.446064e-05 0)
(-0.0002983065 -6.659039e-05 1.45305e-32)
(-0.000302636 -9.635161e-05 -7.737115e-26)
(-0.0003032529 -0.0001385941 6.285609e-26)
(-0.000295073 -0.0002091811 5.592558e-26)
(-0.0002667371 -8.850272e-06 -2.492589e-26)
(-0.0002674219 -2.706514e-05 -2.40687e-28)
(-0.0002696252 -4.690371e-05 -4.363337e-28)
(-0.000273177 -6.913601e-05 -4.337661e-27)
(-0.0002781148 -9.375417e-05 -5.632595e-26)
(-0.0002800671 -0.0001266519 -2.081725e-26)
(-0.000277237 -0.0001723847 -4.395682e-26)
(-0.000246868 -9.215296e-06 0)
(-0.0002464087 -2.78559e-05 2.288032e-26)
(-0.0002468854 -4.780562e-05 0)
(-0.0002486895 -6.874751e-05 -1.315638e-27)
(-0.0002503818 -9.302288e-05 -1.823094e-27)
(-0.0002516632 -0.0001205367 -2.724289e-26)
(-0.0002507082 -0.0001524915 -3.358632e-26)
(-0.0002266537 -9.292378e-06 0)
(-0.0002254228 -2.790624e-05 -2.074628e-26)
(-0.0002250972 -4.672148e-05 2.067989e-26)
(-0.0002245874 -6.736919e-05 0)
(-0.0002239317 -8.974873e-05 -3.553688e-27)
(-0.0002231802 -0.0001136953 1.066675e-26)
(-0.0002201298 -0.0001407311 1.924775e-26)
(-0.00020663 -9.15895e-06 0)
(-0.0002053955 -2.692864e-05 -5.676553e-26)
(-0.0002040413 -4.528915e-05 -2.618552e-29)
(-0.0002022446 -6.447877e-05 -3.9194e-26)
(-0.0002001549 -8.439194e-05 -3.509179e-27)
(-0.0001967917 -0.0001062301 1.743702e-26)
(-0.0001914397 -0.0001301518 -1.979866e-26)
(-0.000187451 -8.704926e-06 1.739408e-26)
(-0.0001862227 -2.577125e-05 -1.739175e-26)
(-0.0001844664 -4.292668e-05 5.471603e-30)
(-0.0001820503 -6.045795e-05 -3.212183e-26)
(-0.0001786474 -7.86221e-05 0)
(-0.00017398 -9.754032e-05 0)
(-0.0001679457 -0.0001174245 -2.254687e-26)
(-0.0001693158 -8.153873e-06 1.564099e-26)
(-0.0001682579 -2.417432e-05 -1.55711e-26)
(-0.0001663626 -4.019934e-05 1.512945e-26)
(-0.0001635956 -5.616689e-05 1.474685e-26)
(-0.0001594582 -7.279666e-05 0)
(-0.0001538163 -9.014281e-05 0)
(-0.0001477177 -0.00010649 -1.63564e-26)
(-0.0001524514 -7.533405e-06 -1.41077e-26)
(-0.0001515699 -2.235811e-05 -1.433429e-26)
(-0.0001497474 -3.699721e-05 -4.0233e-28)
(-0.0001466579 -5.179987e-05 1.258739e-26)
(-0.0001421551 -6.684383e-05 4.193171e-27)
(-0.0001366815 -8.147615e-05 -1.817555e-26)
(-0.0001293216 -9.684487e-05 8.806079e-27)
(-0.0001369989 -6.874035e-06 -1.269801e-26)
(-0.0001363248 -2.038279e-05 -1.154599e-28)
(-0.0001344795 -3.385206e-05 3.811357e-28)
(-0.0001313266 -4.729159e-05 5.416705e-28)
(-0.0001268158 -6.085242e-05 0)
(-0.0001212397 -7.401645e-05 -1.192429e-26)
(-0.0001139044 -8.746956e-05 9.812215e-27)
(-0.0001229589 -6.256169e-06 0)
(-0.0001224368 -1.848504e-05 -2.10329e-28)
(-0.000120609 -3.078535e-05 -3.562228e-28)
(-0.0001173175 -4.315748e-05 2.421175e-26)
(-0.0001132692 -5.479783e-05 4.768481e-27)
(-0.0001074137 -6.69249e-05 1.70927e-26)
(-0.0001005626 -7.857446e-05 6.752373e-27)
(-0.0001103204 -5.633828e-06 -3.187979e-29)
(-0.0001098498 -1.668672e-05 -9.834804e-29)
(-0.0001080947 -2.773976e-05 0)
(-0.0001051127 -3.872069e-05 -2.711223e-29)
(-0.00010077 -4.959097e-05 8.867212e-27)
(-9.541052e-05 -6.015819e-05 8.314836e-27)
(-8.891404e-05 -7.034031e-05 -1.731544e-27)
(-9.896267e-05 -5.075761e-06 9.118984e-27)
(-9.851657e-05 -1.504793e-05 -9.179894e-27)
(-9.675646e-05 -2.513934e-05 1.589211e-26)
(-9.41308e-05 -3.475962e-05 -1.849647e-26)
(-8.990597e-05 -4.454298e-05 7.366894e-27)
(-8.488438e-05 -5.386872e-05 0)
(-7.873821e-05 -6.280596e-05 1.573362e-27)
(-8.876984e-05 -4.570541e-06 8.218698e-27)
(-8.827627e-05 -1.35878e-05 -7.942118e-27)
(-8.681951e-05 -2.243307e-05 7.702886e-27)
(-8.406895e-05 -3.132917e-05 0)
(-8.029423e-05 -3.992968e-05 -7.09961e-27)
(-7.559935e-05 -4.817693e-05 0)
(-6.985273e-05 -5.60404e-05 6.107858e-27)
(-7.965566e-05 -4.090426e-06 0)
(-7.926898e-05 -1.212032e-05 0)
(-7.776388e-05 -2.021512e-05 -1.39707e-26)
(-7.52385e-05 -2.810656e-05 0)
(-7.177558e-05 -3.574092e-05 -1.272455e-26)
(-6.739171e-05 -4.307858e-05 -5.949683e-27)
(-6.200223e-05 -5.009442e-05 5.444479e-27)
(-7.14901e-05 -3.70858e-06 -6.597712e-27)
(-7.118181e-05 -1.084788e-05 0)
(-6.973982e-05 -1.812102e-05 -6.160375e-27)
(-6.741015e-05 -2.516521e-05 6.18959e-27)
(-6.420439e-05 -3.196994e-05 -5.708571e-27)
(-6.013732e-05 -3.846919e-05 -1.06631e-26)
(-5.511857e-05 -4.458185e-05 -4.86926e-27)
(-6.424985e-05 -3.320595e-06 -5.921955e-27)
(-6.38802e-05 -9.761346e-06 -5.786203e-27)
(-6.257969e-05 -1.624499e-05 0)
(-6.04321e-05 -2.253571e-05 5.704703e-27)
(-5.748015e-05 -2.860323e-05 3.703869e-28)
(-5.375392e-05 -3.435804e-05 -1.002873e-26)
(-4.918806e-05 -3.96803e-05 -1.578184e-27)
(-5.775379e-05 -2.988625e-06 -5.337321e-27)
(-5.738635e-05 -8.749258e-06 -5.231132e-27)
(-5.618786e-05 -1.455564e-05 5.081844e-27)
(-5.420319e-05 -2.018976e-05 0)
(-5.148636e-05 -2.562775e-05 0)
(-4.805861e-05 -3.082966e-05 -4.299535e-27)
(-4.378972e-05 -3.583993e-05 7.535461e-27)
(-5.193779e-05 -2.68592e-06 -4.802769e-27)
(-5.158165e-05 -7.839716e-06 -4.7119e-27)
(-5.047185e-05 -1.304099e-05 4.57222e-27)
(-4.863745e-05 -1.808204e-05 0)
(-4.613071e-05 -2.293848e-05 3.024837e-28)
(-4.296289e-05 -2.755105e-05 5.309049e-31)
(-3.904399e-05 -3.190443e-05 -4.320561e-28)
(-4.673103e-05 -2.413731e-06 0)
(-4.639319e-05 -7.019777e-06 -4.242794e-27)
(-4.536314e-05 -1.167873e-05 4.121372e-27)
(-4.367006e-05 -1.618472e-05 0)
(-4.136249e-05 -2.051651e-05 -4.011931e-27)
(-3.84548e-05 -2.461949e-05 -6.627759e-28)
(-3.489077e-05 -2.847292e-05 -3.888658e-28)
(-4.207285e-05 -2.168619e-06 3.898372e-27)
(-4.175515e-05 -6.281672e-06 -2.0937e-29)
(-4.080086e-05 -1.045227e-05 3.678247e-27)
(-3.924234e-05 -1.4475e-05 -9.616378e-29)
(-3.712414e-05 -1.833105e-05 -1.199821e-28)
(-3.445058e-05 -2.197751e-05 -3.120274e-27)
(-3.12197e-05 -2.537282e-05 0)
(-3.790802e-05 -1.947739e-06 7.030638e-27)
(-3.761139e-05 -5.61657e-06 0)
(-3.672949e-05 -9.348053e-06 0)
(-3.5297e-05 -1.294023e-05 3.299734e-27)
(-3.33482e-05 -1.639054e-05 6.176543e-27)
(-3.083797e-05 -1.969732e-05 -2.800892e-27)
(-2.797864e-05 -2.25775e-05 0)
(-3.418738e-05 -1.748519e-06 3.172927e-27)
(-3.391224e-05 -5.016402e-06 -1.700195e-29)
(-3.309939e-05 -8.351034e-06 -2.806932e-29)
(-3.178427e-05 -1.15503e-05 -7.961217e-29)
(-2.999661e-05 -1.460619e-05 2.635633e-27)
(-2.772386e-05 -1.749932e-05 0)
(-2.503247e-05 -2.015726e-05 -2.289832e-27)
(-3.086697e-05 -1.568688e-06 -2.600286e-30)
(-3.061368e-05 -4.474869e-06 -2.840705e-27)
(-2.986678e-05 -7.452397e-06 -2.761424e-27)
(-2.866286e-05 -1.03011e-05 -5.24377e-27)
(-2.703136e-05 -1.301954e-05 0)
(-2.497637e-05 -1.559355e-05 -2.250742e-27)
(-2.250849e-05 -1.79519e-05 2.718554e-30)
(-2.790737e-05 -1.406275e-06 -2.593051e-27)
(-2.767559e-05 -3.986184e-06 -5.107862e-27)
(-2.699065e-05 -6.642333e-06 -4.97623e-27)
(-2.588923e-05 -9.176097e-06 -2.435239e-27)
(-2.439288e-05 -1.159566e-05 -7.936929e-29)
(-2.253011e-05 -1.387724e-05 -2.035895e-27)
(-2.028911e-05 -1.596839e-05 1.982786e-27)
(-2.527333e-05 -1.259525e-06 -2.352333e-27)
(-2.506174e-05 -3.544984e-06 -4.625808e-27)
(-2.443314e-05 -5.913714e-06 -2.245836e-27)
(-2.342069e-05 -8.174308e-06 0)
(-2.201847e-05 -1.035994e-05 -5.368178e-28)
(-2.036056e-05 -1.232622e-05 -8.287851e-28)
(-1.832687e-05 -1.419387e-05 -2.007007e-28)
(-2.293353e-05 -1.126385e-06 -2.138902e-27)
(-2.274011e-05 -3.144998e-06 -2.095984e-27)
(-2.21613e-05 -5.252287e-06 5.328336e-29)
(-2.122919e-05 -7.254368e-06 4.920398e-29)
(-1.995413e-05 -9.178917e-06 0)
(-1.838519e-05 -1.097987e-05 -1.700186e-27)
(-1.658259e-05 -1.261293e-05 8.950368e-29)
(-2.086026e-05 -1.005595e-06 -1.94733e-27)
(-2.068254e-05 -2.782628e-06 -1.909896e-27)
(-2.014777e-05 -4.655272e-06 3.137914e-29)
(-1.928928e-05 -6.431975e-06 2.171558e-29)
(-1.812406e-05 -8.144734e-06 0)
(-1.667298e-05 -9.748332e-06 -1.478367e-27)
(-1.503697e-05 -1.119648e-05 1.587672e-28)
(-1.902883e-05 -8.956106e-07 1.476257e-30)
(-1.886333e-05 -2.453531e-06 -3.493734e-27)
(-1.836486e-05 -4.114794e-06 1.373734e-29)
(-1.756762e-05 -5.69039e-06 1.904228e-29)
(-1.64921e-05 -7.213861e-06 0)
(-1.515546e-05 -8.642315e-06 0)
(-1.365833e-05 -9.934981e-06 0)
(-1.741755e-05 -7.951348e-07 0)
(-1.725958e-05 -2.153649e-06 -1.603257e-27)
(-1.678837e-05 -3.624326e-06 0)
(-1.603715e-05 -5.02208e-06 1.456203e-27)
(-1.503761e-05 -6.376855e-06 -4.243987e-29)
(-1.380123e-05 -7.654763e-06 -5.209728e-29)
(-1.242348e-05 -8.815631e-06 1.111105e-27)
(-1.60077e-05 -7.02729e-07 -1.499217e-27)
(-1.585083e-05 -1.879546e-06 0)
(-1.539509e-05 -3.181657e-06 2.035902e-29)
(-1.46665e-05 -4.435908e-06 1.182125e-27)
(-1.373935e-05 -5.621525e-06 -1.564352e-27)
(-1.258584e-05 -6.776895e-06 0)
(-1.131008e-05 -7.828637e-06 1.073866e-27)
(-1.478381e-05 -6.166576e-07 -1.386943e-27)
(-1.461915e-05 -1.625399e-06 0)
(-1.41657e-05 -2.771122e-06 8.572338e-30)
(-1.346081e-05 -3.879715e-06 1.200054e-29)
(-1.254846e-05 -4.968884e-06 -2.3648e-27)
(-1.148272e-05 -6.00584e-06 1.090866e-27)
(-1.029625e-05 -6.967125e-06 -9.869495e-28)
(-1.373372e-05 -5.355412e-07 0)
(-1.354976e-05 -1.388765e-06 -1.266655e-27)
(-1.30835e-05 -2.39682e-06 6.978381e-30)
(-1.238302e-05 -3.387427e-06 1.166275e-27)
(-1.148796e-05 -4.377541e-06 -1.093073e-27)
(-1.047424e-05 -5.330319e-06 1.005601e-27)
(-9.361019e-06 -6.225046e-06 5.451704e-31)
(-1.284874e-05 -4.57438e-07 0)
(-1.262836e-05 -1.164641e-06 -1.191099e-27)
(-1.212688e-05 -2.050938e-06 1.150074e-27)
(-1.140551e-05 -2.944063e-06 1.094483e-27)
(-1.051368e-05 -3.858337e-06 -1.00434e-27)
(-9.533304e-06 -4.752906e-06 2.658929e-29)
(-8.482492e-06 -5.602362e-06 8.360624e-28)
(-1.212479e-05 -3.798083e-07 0)
(-1.184276e-05 -9.478383e-07 0)
(-1.127595e-05 -1.729163e-06 1.082661e-27)
(-1.050588e-05 -2.548769e-06 -1.018771e-27)
(-9.597506e-06 -3.414266e-06 2.428223e-31)
(-8.636331e-06 -4.276284e-06 0)