/*--------------------------------*- C++ -*----------------------------------*\
| =========                 |                                                 |
| \\      /  F ield         | OpenFOAM: The Open Source CFD Toolbox           |
|  \\    /   O peration     | Version:  2206                                  |
|   \\  /    A nd           | Website:  www.openfoam.com                      |
|    \\/     M anipulation  |                                                 |
\*---------------------------------------------------------------------------*/
FoamFile
{
    version     2.0;
    format      ascii;
    arch        "LSB;label=32;scalar=64";
    class       volVectorField;
    location    "2.8";
    object      U.a;
}
// * * * * * * * * * * * * * * * * * * * * * * * * * * * * * * * * * * * * * //

dimensions      [0 1 -1 0 0 0 0];

internalField   nonuniform List<vector> 
13078
(
(2.412064e-05 -0.0002998134 7.294713e-27)
(5.442975e-06 -0.0001019045 4.019978e-32)
(7.474239e-07 -5.006476e-05 -1.133045e-28)
(-6.972059e-09 -2.676039e-05 0)
(-1.963368e-07 -1.890927e-05 -1.228274e-29)
(-2.763851e-07 -1.496929e-05 -1.154479e-29)
(-3.37362e-07 -1.207948e-05 -1.158482e-29)
(-8.553672e-05 -8.72095e-05 0)
(-4.491627e-05 -6.527098e-05 -1.35186e-31)
(-1.456103e-05 -3.605776e-05 0)
(-5.773294e-06 -2.33182e-05 0)
(-2.962886e-06 -1.790244e-05 -7.058843e-34)
(-1.90231e-06 -1.446928e-05 -1.882891e-34)
(-1.376643e-06 -1.179436e-05 -5.921332e-35)
(-2.47822e-05 -1.727747e-05 4.630244e-30)
(-2.075214e-05 -2.431413e-05 -7.659995e-31)
(-1.201545e-05 -2.162292e-05 1.826225e-29)
(-7.10713e-06 -1.830949e-05 2.518781e-29)
(-4.461711e-06 -1.551844e-05 1.151566e-29)
(-3.003474e-06 -1.303986e-05 0)
(-2.174397e-06 -1.088619e-05 -6.599529e-35)
(-7.550926e-06 -5.969562e-06 2.806625e-31)
(-1.012192e-05 -1.153863e-05 2.401017e-31)
(-8.67412e-06 -1.370248e-05 1.989236e-30)
(-6.52599e-06 -1.37429e-05 1.316906e-30)
(-4.709567e-06 -1.261138e-05 5.385306e-33)
(-3.451001e-06 -1.11257e-05 0)
(-2.620338e-06 -9.580608e-06 1.162993e-33)
(-2.763114e-06 -2.800516e-06 -3.011124e-31)
(-5.511447e-06 -6.632555e-06 -8.368277e-31)
(-5.905403e-06 -9.044523e-06 4.687007e-31)
(-5.22095e-06 -9.969836e-06 -3.234066e-31)
(-4.277001e-06 -9.857802e-06 -1.379178e-29)
(-3.41626e-06 -9.132296e-06 -3.087133e-35)
(-2.752369e-06 -8.115728e-06 1.16255e-29)
(-1.220618e-06 -1.686448e-06 0)
(-3.098213e-06 -4.128099e-06 7.392397e-31)
(-3.90909e-06 -6.088396e-06 -7.45251e-31)
(-3.933289e-06 -7.179063e-06 5.710308e-31)
(-3.57946e-06 -7.509878e-06 1.49477e-30)
(-3.114857e-06 -7.286457e-06 -1.17435e-29)
(-2.668785e-06 -6.668613e-06 -2.33368e-29)
(-6.165078e-07 -1.168676e-06 0)
(-1.826945e-06 -2.754018e-06 4.142695e-31)
(-2.594519e-06 -4.217705e-06 -1.144477e-29)
(-2.895373e-06 -5.193849e-06 -1.197379e-29)
(-2.881846e-06 -5.656723e-06 2.082538e-30)
(-2.70326e-06 -5.670219e-06 1.48245e-30)
(-2.467232e-06 -5.3302e-06 0)
(-3.464167e-07 -8.867726e-07 -6.941029e-31)
(-1.133848e-06 -1.941994e-06 4.206973e-31)
(-1.758303e-06 -3.007425e-06 4.73421e-31)
(-2.13691e-06 -3.797803e-06 0)
(-2.292098e-06 -4.240355e-06 1.236776e-30)
(-2.295128e-06 -4.332555e-06 1.487251e-30)
(-2.217335e-06 -4.126865e-06 1.485742e-30)
(-2.08844e-07 -7.13851e-07 3.235891e-32)
(-7.376798e-07 -1.425139e-06 -8.996438e-31)
(-1.227357e-06 -2.199726e-06 1.007756e-30)
(-1.599521e-06 -2.799739e-06 1.505976e-30)
(-1.830032e-06 -3.158929e-06 3.881482e-30)
(-1.941323e-06 -3.249447e-06 1.489614e-30)
(-1.973566e-06 -3.090641e-06 0)
(-1.31526e-07 -5.979217e-07 6.98975e-31)
(-5.007081e-07 -1.073297e-06 -8.598221e-31)
(-8.860902e-07 -1.632131e-06 -4.523255e-31)
(-1.226252e-06 -2.065887e-06 1.595837e-30)
(-1.484317e-06 -2.323708e-06 -3.876471e-32)
(-1.656989e-06 -2.371868e-06 0)
(-1.763046e-06 -2.212229e-06 0)
(-8.461985e-08 -5.148278e-07 0)
(-3.532988e-07 -8.196445e-07 0)
(-6.638016e-07 -1.214622e-06 -9.179119e-31)
(-9.697343e-07 -1.509082e-06 1.523817e-30)
(-1.233948e-06 -1.66607e-06 4.023982e-32)
(-1.44074e-06 -1.653768e-06 0)
(-1.59571e-06 -1.465756e-06 0)
(-5.456339e-08 -4.521335e-07 0)
(-2.585306e-07 -6.274392e-07 8.477049e-31)
(-5.17469e-07 -8.938872e-07 -8.361174e-31)
(-7.954785e-07 -1.0722e-06 -3.056224e-30)
(-1.058259e-06 -1.135563e-06 -4.358737e-31)
(-1.28473e-06 -1.056527e-06 0)
(-1.472887e-06 -8.254242e-07 1.845727e-30)
(-3.445944e-08 -4.023524e-07 0)
(-1.961068e-07 -4.749298e-07 -7.326732e-31)
(-4.209698e-07 -6.37365e-07 -1.490583e-30)
(-6.795374e-07 -7.174623e-07 -1.44616e-30)
(-9.40208e-07 -6.957698e-07 1.056167e-30)
(-1.179728e-06 -5.49508e-07 -1.056244e-30)
(-1.392032e-06 -2.680851e-07 3.896939e-32)
(-2.041219e-08 -3.611548e-07 6.032945e-31)
(-1.544804e-07 -3.488489e-07 0)
(-3.580789e-07 -4.240705e-07 -1.491307e-30)
(-6.055288e-07 -4.193192e-07 -1.516902e-30)
(-8.666822e-07 -3.204968e-07 1.978758e-30)
(-1.117175e-06 -1.088656e-07 -9.555664e-31)
(-1.349114e-06 2.260287e-07 1.010703e-30)
(-1.018522e-08 -3.256827e-07 4.928983e-31)
(-1.265415e-07 -2.40554e-07 0)
(-3.178623e-07 -2.402546e-07 -2.980015e-30)
(-5.573427e-07 -1.60015e-07 2.041633e-29)
(-8.21342e-07 9.853043e-09 2.527178e-29)
(-1.088649e-06 2.842739e-07 0)
(-1.339907e-06 6.736238e-07 -9.901886e-31)
(-2.402367e-09 -2.93993e-07 0)
(-1.083135e-07 -1.440162e-07 5.363367e-31)
(-2.961332e-07 -7.591154e-08 0)
(-5.388727e-07 7.21305e-08 2.40265e-30)
(-8.117471e-07 3.067699e-07 3.06239e-30)
(-1.092283e-06 6.437898e-07 3.027028e-30)
(-1.36171e-06 1.088341e-06 2.143281e-30)
(3.87215e-09 -2.646794e-07 0)
(-9.658608e-08 -5.498819e-08 7.675289e-31)
(-2.862101e-07 7.581519e-08 -1.487986e-30)
(-5.366495e-07 2.871818e-07 -1.500402e-30)
(-8.23316e-07 5.848198e-07 0)
(-1.121608e-06 9.823422e-07 0)
(-1.411377e-06 1.482157e-06 0)
(9.15732e-09 -2.368149e-07 8.144157e-31)
(-8.973187e-08 2.959645e-08 -5.354238e-31)
(-2.860533e-07 2.20348e-07 -2.977831e-30)
(-5.495156e-07 4.926501e-07 -1.502203e-30)
(-8.545176e-07 8.518897e-07 0)
(-1.174353e-06 1.309404e-06 -2.345965e-30)
(-1.487098e-06 1.865207e-06 -6.067561e-30)
(1.383991e-08 -2.095804e-07 6.235949e-31)
(-8.654403e-08 1.122115e-07 -6.505557e-31)
(-2.939017e-07 3.618681e-07 -4.469837e-30)
(-5.753411e-07 6.944321e-07 -3.008477e-30)
(-9.034687e-07 1.114914e-06 0)
(-1.248909e-06 1.632814e-06 5.129905e-31)
(-1.587806e-06 2.246257e-06 -3.043775e-30)
(1.821958e-08 -1.823506e-07 -7.78525e-32)
(-8.617451e-08 1.948212e-07 -2.824934e-31)
(-3.08475e-07 5.03662e-07 -9.318938e-32)
(-6.117845e-07 8.969428e-07 0)
(-9.616822e-07 1.377676e-06 2.457257e-29)
(-1.335311e-06 1.956535e-06 3.100522e-29)
(-1.711392e-06 2.632968e-06 6.128313e-30)
(2.255486e-08 -1.54528e-07 -9.068685e-31)
(-8.819317e-08 2.791446e-07 -7.52677e-33)
(-3.296716e-07 6.486572e-07 7.967923e-31)
(-6.613888e-07 1.104551e-06 2.748628e-30)
(-1.04426e-06 1.645847e-06 3.046552e-30)
(-1.452708e-06 2.288037e-06 1.174769e-30)
(-1.86277e-06 3.03191e-06 -3.490643e-30)
(2.698509e-08 -1.257981e-07 0)
(-9.221279e-08 3.663819e-07 8.068436e-31)
(-3.565019e-07 7.99066e-07 8.554985e-31)
(-7.206263e-07 1.320369e-06 -1.05637e-30)
(-1.140354e-06 1.928542e-06 0)
(-1.589381e-06 2.639071e-06 9.099498e-31)
(-2.03948e-06 3.45086e-06 6.320839e-32)
(3.160001e-08 -9.585942e-08 7.329047e-31)
(-9.802348e-08 4.574393e-07 0)
(-3.889852e-07 9.56567e-07 0)
(-7.903892e-07 1.547247e-06 2.946826e-30)
(-1.252553e-06 2.226834e-06 3.631569e-30)
(-1.747426e-06 3.010471e-06 0)
(-2.242982e-06 3.895401e-06 -3.104224e-32)
(3.649614e-08 -6.450836e-08 2.095466e-30)
(-1.056791e-07 5.529998e-07 0)
(-4.273738e-07 1.122515e-06 0)
(-8.712693e-07 1.7873e-06 -1.860751e-30)
(-1.380773e-06 2.543768e-06 -1.181797e-30)
(-1.918248e-06 3.401931e-06 -5.787984e-31)
(-2.463483e-06 4.365704e-06 0)
(4.159138e-08 -3.170198e-08 1.404336e-30)
(-1.155628e-07 6.53438e-07 1.485335e-30)
(-4.726211e-07 1.297925e-06 3.07608e-30)
(-9.652724e-07 2.042583e-06 3.028441e-30)
(-1.530878e-06 2.882886e-06 3.127103e-30)
(-2.125697e-06 3.820958e-06 -9.584553e-31)
(-2.730372e-06 4.875022e-06 0)
(4.676331e-08 2.519592e-09 0)
(-1.282723e-07 7.586596e-07 -2.098863e-30)
(-5.25689e-07 1.483009e-06 2.087068e-30)
(-1.073046e-06 2.313913e-06 0)
(-1.700708e-06 3.24621e-06 4.406576e-30)
(-2.360046e-06 4.28178e-06 1.249888e-29)
(-3.033601e-06 5.441255e-06 6.499469e-30)
(5.151648e-08 3.786706e-08 -2.118768e-30)
(-1.452063e-07 8.680332e-07 -2.692399e-30)
(-5.886818e-07 1.677172e-06 2.490114e-30)
(-1.197371e-06 2.601138e-06 0)
(-1.894179e-06 3.634808e-06 -6.165545e-30)
(-2.62638e-06 4.780866e-06 -6.325323e-34)
(-3.37906e-06 6.062968e-06 6.552473e-30)
(5.507989e-08 7.395222e-08 -2.658853e-30)
(-1.684359e-07 9.802203e-07 -3.153035e-30)
(-6.650266e-07 1.87867e-06 3.128911e-30)
(-1.34231e-06 2.902375e-06 0)
(-2.115522e-06 4.047074e-06 0)
(-2.92787e-06 5.317246e-06 -2.263772e-30)
(-3.758152e-06 6.732666e-06 -5.047525e-29)
(5.544018e-08 1.100033e-07 -4.300897e-30)
(-2.023326e-07 1.092915e-06 -5.389102e-30)
(-7.600974e-07 2.083998e-06 0)
(-1.513569e-06 3.213165e-06 -2.719828e-30)
(-2.370241e-06 4.477117e-06 -6.228389e-30)
(-3.272142e-06 5.882708e-06 6.953036e-31)
(-4.199401e-06 7.444429e-06 1.942494e-29)
(5.245233e-08 1.450746e-07 -3.79662e-30)
(-2.486166e-07 1.2008e-06 0)
(-8.805167e-07 2.28787e-06 -7.34557e-30)
(-1.718791e-06 3.526387e-06 1.096704e-30)
(-2.663014e-06 4.914251e-06 -3.744887e-30)
(-3.653547e-06 6.460331e-06 -6.769692e-30)
(-4.673917e-06 8.185017e-06 -2.846208e-30)
(3.936456e-08 1.740982e-07 0)
(-3.235366e-07 1.299556e-06 0)
(-1.040972e-06 2.482034e-06 -1.026491e-29)
(-1.971834e-06 3.832269e-06 0)
(-3.005914e-06 5.347068e-06 -8.992745e-30)
(-4.080578e-06 7.035758e-06 -4.090365e-30)
(-5.181159e-06 8.921253e-06 3.468511e-30)
(1.475879e-08 1.982498e-07 -7.699808e-30)
(-4.310273e-07 1.380768e-06 3.650564e-30)
(-1.249365e-06 2.650537e-06 4.554044e-30)
(-2.291511e-06 4.118526e-06 0)
(-3.419359e-06 5.762979e-06 -5.348494e-30)
(-4.571937e-06 7.595034e-06 0)
(-5.740473e-06 9.636946e-06 -8.903368e-30)
(-3.070168e-08 2.13463e-07 -6.30492e-30)
(-5.967818e-07 1.434684e-06 7.719842e-30)
(-1.538146e-06 2.780101e-06 2.026857e-29)
(-2.697061e-06 4.356764e-06 1.733237e-29)
(-3.930809e-06 6.145089e-06 3.745266e-31)
(-5.152185e-06 8.123139e-06 6.526109e-30)
(-6.367017e-06 1.032252e-05 -6.641064e-30)
(-1.059927e-07 2.138936e-07 1.136492e-30)
(-8.461432e-07 1.459054e-06 1.480499e-30)
(-1.95288e-06 2.861618e-06 1.4684e-29)
(-3.253898e-06 4.544161e-06 6.93945e-30)
(-4.58491e-06 6.47325e-06 -2.028883e-29)
(-5.8529e-06 8.601235e-06 1.319706e-29)
(-7.078947e-06 1.095795e-05 2.689908e-29)
(-2.217299e-07 1.915099e-07 -1.134155e-30)
(-1.200218e-06 1.428419e-06 -1.480974e-30)
(-2.520606e-06 2.884409e-06 3.685964e-30)
(-3.972314e-06 4.656956e-06 -4.83051e-29)
(-5.390359e-06 6.709437e-06 -6.643257e-29)
(-6.691568e-06 9.011303e-06 -6.005123e-30)
(-7.888748e-06 1.152568e-05 0)
(-3.859245e-07 1.392422e-07 0)
(-1.677059e-06 1.324507e-06 0)
(-3.25725e-06 2.81882e-06 1.125628e-29)
(-4.876503e-06 4.671314e-06 2.339667e-29)
(-6.360436e-06 6.851352e-06 7.692734e-29)
(-7.649188e-06 9.304661e-06 6.428455e-29)
(-8.788487e-06 1.200193e-05 0)
(-5.995968e-07 4.791312e-08 -2.2576e-30)
(-2.266991e-06 1.133758e-06 2.958117e-30)
(-4.124374e-06 2.664297e-06 6.124247e-30)
(-5.910584e-06 4.629872e-06 0)
(-7.4639e-06 6.919733e-06 2.332191e-29)
(-8.743231e-06 9.510285e-06 -1.419862e-29)
(-9.807571e-06 1.232829e-05 -2.850201e-29)
(-8.532257e-07 -7.888093e-08 -9.451251e-30)
(-2.908444e-06 8.785447e-07 2.962413e-30)
(-5.025147e-06 2.455876e-06 -1.426233e-29)
(-6.976391e-06 4.524233e-06 0)
(-8.629723e-06 6.908282e-06 2.66642e-29)
(-9.9605e-06 9.534047e-06 -8.490318e-29)
(-1.103817e-05 1.231036e-05 -1.461282e-28)
(-1.120986e-06 -2.080288e-07 -1.09282e-29)
(-3.515686e-06 6.156743e-07 -1.328976e-29)
(-5.876335e-06 2.208971e-06 -1.618881e-29)
(-8.036813e-06 4.303724e-06 -1.271608e-29)
(-9.888117e-06 6.665799e-06 -2.643373e-29)
(-1.142707e-05 9.1669e-06 -2.734514e-29)
(-1.269969e-05 1.179724e-05 -6.054598e-29)
(-1.359282e-06 -3.014346e-07 0)
(-4.021168e-06 3.7442e-07 1.111368e-29)
(-6.657005e-06 1.87724e-06 1.7834e-29)
(-9.099621e-06 3.853852e-06 6.368919e-30)
(-1.128148e-05 6.034097e-06 -3.054171e-29)
(-1.317868e-05 8.275026e-06 -1.393177e-29)
(-1.482506e-05 1.052044e-05 0)
(-1.541939e-06 -3.523309e-07 1.630522e-29)
(-4.399496e-06 1.278368e-07 1.596762e-29)
(-7.337151e-06 1.346046e-06 -4.319767e-30)
(-1.018852e-05 3.029636e-06 3.92871e-29)
(-1.283619e-05 4.827566e-06 -3.29925e-29)
(-1.527378e-05 6.613274e-06 5.588344e-30)
(-1.751282e-05 8.25492e-06 2.699015e-29)
(-1.668579e-06 -3.689129e-07 1.550219e-29)
(-4.657737e-06 -1.675359e-07 -2.894358e-30)
(-7.897795e-06 5.096146e-07 0)
(-1.123826e-05 1.641167e-06 4.061282e-30)
(-1.452315e-05 2.884877e-06 4.38544e-29)
(-1.762351e-05 4.031782e-06 4.2393e-29)
(-2.048508e-05 5.086159e-06 8.843446e-31)
(-1.709426e-06 -3.947005e-07 -1.876905e-29)
(-4.80432e-06 -5.925954e-07 5.674115e-30)
(-8.351143e-06 -7.099738e-07 5.934229e-30)
(-1.219217e-05 -4.181603e-07 -9.498853e-29)
(-1.616798e-05 1.426467e-08 4.369996e-29)
(-2.001107e-05 5.202292e-07 6.174643e-29)
(-2.33888e-05 1.096309e-06 4.251366e-29)
(-1.633945e-06 -4.619685e-07 -1.986136e-29)
(-4.84046e-06 -1.27088e-06 0)
(-8.735317e-06 -2.403466e-06 1.148246e-29)
(-1.304915e-05 -3.142493e-06 3.539042e-29)
(-1.761848e-05 -3.710241e-06 1.381109e-28)
(-2.208657e-05 -3.899256e-06 1.411928e-28)
(-2.600128e-05 -3.616621e-06 1.974955e-29)
(-1.480828e-06 -6.813038e-07 0)
(-4.865072e-06 -2.336849e-06 1.104441e-29)
(-9.102457e-06 -4.667957e-06 1.147169e-29)
(-1.386063e-05 -6.496806e-06 1.30886e-29)
(-1.87776e-05 -8.060384e-06 1.09805e-29)
(-2.361821e-05 -9.035393e-06 -7.652282e-29)
(-2.802105e-05 -9.206009e-06 -1.178247e-28)
(-1.394757e-06 -1.122206e-06 0)
(-5.035717e-06 -3.890399e-06 2.355263e-31)
(-9.518838e-06 -7.474225e-06 3.725218e-31)
(-1.450836e-05 -1.039514e-05 -4.567542e-29)
(-1.969227e-05 -1.279814e-05 -8.248709e-32)
(-2.458583e-05 -1.459562e-05 5.307638e-29)
(-2.918821e-05 -1.551619e-05 5.735254e-29)
(-1.472909e-06 -1.758111e-06 -1.899769e-29)
(-5.405955e-06 -5.776818e-06 -1.805227e-29)
(-1.004839e-05 -1.055672e-05 5.822182e-31)
(-1.509816e-05 -1.463141e-05 -3.210709e-30)
(-2.030509e-05 -1.796124e-05 4.540098e-29)
(-2.522405e-05 -2.043098e-05 -4.410259e-29)
(-2.977748e-05 -2.243315e-05 1.886183e-29)
(-1.641184e-06 -2.539406e-06 -1.840166e-29)
(-5.852372e-06 -7.916272e-06 -3.619199e-29)
(-1.057964e-05 -1.376007e-05 2.511635e-29)
(-1.553328e-05 -1.889309e-05 2.053604e-29)
(-2.062579e-05 -2.331167e-05 7.198951e-29)
(-2.549919e-05 -2.687126e-05 3.387057e-29)
(-3.030634e-05 -3.001639e-05 1.163145e-28)
(-1.769172e-06 -3.382169e-06 -2.189638e-30)
(-6.074609e-06 -1.015533e-05 -2.142664e-29)
(-1.075137e-05 -1.703265e-05 1.571653e-29)
(-1.560335e-05 -2.313971e-05 -8.9257e-31)
(-2.047162e-05 -2.864394e-05 -1.607412e-29)
(-2.531698e-05 -3.356423e-05 1.222156e-31)
(-3.120658e-05 -3.933125e-05 -2.151457e-28)
(-1.785532e-06 -4.201227e-06 1.272221e-29)
(-5.935129e-06 -1.235161e-05 2.402004e-29)
(-1.034803e-05 -2.030267e-05 4.553963e-30)
(-1.49774e-05 -2.745837e-05 -5.003559e-31)
(-1.969393e-05 -3.408519e-05 -1.602807e-29)
(-2.493607e-05 -4.089968e-05 -5.073679e-29)
(-3.33427e-05 -5.304206e-05 -6.61456e-29)
(-1.603752e-06 -4.96175e-06 6.012271e-30)
(-5.273625e-06 -1.438788e-05 -1.229552e-29)
(-9.254262e-06 -2.342147e-05 -6.32987e-30)
(-1.35814e-05 -3.173758e-05 1.294887e-29)
(-1.809329e-05 -3.9704e-05 -2.474146e-29)
(-2.423897e-05 -5.028154e-05 -6.688483e-29)
(-3.780279e-05 -7.516428e-05 4.045143e-29)
(-1.173264e-06 -5.598023e-06 2.016015e-31)
(-4.017314e-06 -1.627342e-05 -6.878367e-31)
(-7.311557e-06 -2.651532e-05 4.023906e-29)
(-1.095555e-05 -3.588263e-05 6.204313e-29)
(-1.540188e-05 -4.627538e-05 -9.833333e-30)
(-2.300247e-05 -6.463164e-05 2.435685e-29)
(-4.147412e-05 -0.0001059967 5.552245e-29)
(-6.312527e-07 -6.180682e-06 -3.010093e-33)
(-2.470774e-06 -1.795733e-05 -7.742357e-31)
(-4.737311e-06 -2.916037e-05 4.29622e-30)
(-7.535983e-06 -4.017973e-05 6.570658e-30)
(-1.165332e-05 -5.519267e-05 -1.153626e-29)
(-2.065838e-05 -8.620446e-05 9.383022e-29)
(-4.044616e-05 -0.0001415591 -5.459503e-28)
(-1.071532e-07 -6.690302e-06 -2.473941e-32)
(-9.330394e-07 -1.949746e-05 1.819419e-30)
(-2.235075e-06 -3.1815e-05 2.167876e-30)
(-4.209105e-06 -4.559714e-05 -2.927847e-32)
(-7.85744e-06 -6.832642e-05 4.035871e-29)
(-1.668592e-05 -0.00011261 1.174491e-28)
(-3.277439e-05 -0.0001742926 2.575786e-28)
(3.674356e-07 -7.105584e-06 1.138434e-30)
(5.318336e-07 -2.092886e-05 7.843432e-30)
(2.04588e-07 -3.544206e-05 5.369632e-30)
(-7.635683e-07 -5.404304e-05 -2.396838e-29)
(-3.32132e-06 -8.606123e-05 -4.680503e-29)
(-9.59961e-06 -0.0001398684 7.271305e-29)
(-1.960352e-05 -0.0002024897 9.093088e-29)
(7.924385e-07 -7.351767e-06 1.486664e-30)
(1.971802e-06 -2.2842e-05 2.446857e-31)
(2.814066e-06 -4.093609e-05 3.52272e-30)
(3.282972e-06 -6.585201e-05 -3.112183e-29)
(3.01155e-06 -0.0001063215 -5.755756e-29)
(1.46658e-06 -0.0001646695 -9.511339e-29)
(-1.404204e-06 -0.000227008 -2.645408e-28)
(1.068654e-06 -7.503462e-06 1.073812e-30)
(3.19438e-06 -2.526838e-05 6.183353e-30)
(5.375897e-06 -4.81981e-05 1.460466e-29)
(7.761715e-06 -7.979458e-05 -3.46923e-29)
(1.067729e-05 -0.0001256731 4.422835e-30)
(1.453863e-05 -0.0001847515 7.620658e-29)
(1.882676e-05 -0.0002461655 -7.41513e-29)
(1.18221e-06 -7.641787e-06 -5.313789e-30)
(4.098019e-06 -2.787496e-05 -1.175098e-30)
(7.72291e-06 -5.57378e-05 3.868358e-29)
(1.230084e-05 -9.242183e-05 2.104634e-29)
(1.843554e-05 -0.0001402631 -4.492098e-29)
(2.680176e-05 -0.0001980492 -6.368977e-29)
(3.681883e-05 -0.0002581292 4.371604e-29)
(1.236866e-06 -7.563107e-06 -1.468618e-29)
(4.85993e-06 -2.963398e-05 -5.333303e-30)
(1.001437e-05 -6.154652e-05 2.257444e-29)
(1.677726e-05 -0.0001016647 1.728734e-29)
(2.555419e-05 -0.0001498518 2.68307e-29)
(3.69191e-05 -0.0002056598 -5.28974e-29)
(5.081854e-05 -0.0002643154 -2.201972e-28)
(1.17462e-06 -7.094217e-06 -8.527401e-30)
(5.170367e-06 -2.976525e-05 3.314454e-29)
(1.16202e-05 -6.464841e-05 7.180437e-29)
(2.029336e-05 -0.0001076206 -7.813838e-30)
(3.105042e-05 -0.0001561755 -1.221216e-28)
(4.43892e-05 -0.0002101963 8.085511e-30)
(6.09348e-05 -0.000267569 -4.456878e-28)
(9.478709e-07 -6.344663e-06 -6.717457e-32)
(4.709268e-06 -2.808752e-05 -2.652908e-30)
(1.178245e-05 -6.469853e-05 1.943049e-28)
(2.19134e-05 -0.0001103055 1.950875e-28)
(3.412246e-05 -0.0001597221 -1.099444e-29)
(4.853488e-05 -0.000211903 5.753625e-28)
(6.548405e-05 -0.0002661532 1.02473e-27)
(6.354182e-07 -5.629452e-06 -2.081741e-29)
(3.665292e-06 -2.515346e-05 -3.18102e-29)
(1.025178e-05 -5.989299e-05 -3.784783e-29)
(2.107051e-05 -0.000106547 1.637878e-29)
(3.419707e-05 -0.0001569635 7.67491e-29)
(4.885429e-05 -0.00020813 -3.773853e-29)
(6.552714e-05 -0.0002612752 -2.540674e-28)
(3.055739e-07 -5.121466e-06 1.807611e-30)
(2.34884e-06 -2.108541e-05 5.705236e-30)
(7.753394e-06 -5.104325e-05 -9.077553e-33)
(1.808002e-05 -9.576089e-05 1.460884e-28)
(3.16989e-05 -0.0001478426 -9.890089e-29)
(4.636775e-05 -0.000199272 1.313082e-28)
(6.232869e-05 -0.0002520545 -4.423551e-28)
(-3.401142e-08 -4.697201e-06 1.645929e-29)
(1.055281e-06 -1.690883e-05 -8.170053e-30)
(4.723008e-06 -3.995764e-05 -9.20006e-29)
(1.323306e-05 -7.947338e-05 1.366971e-28)
(2.661285e-05 -0.0001324683 -1.265558e-28)
(4.149987e-05 -0.0001858922 -1.214575e-28)
(5.732629e-05 -0.0002387346 -1.641819e-29)
(-3.354346e-07 -4.176145e-06 -2.176825e-29)
(1.436878e-07 -1.371546e-05 4.032654e-29)
(2.255719e-06 -2.944182e-05 -5.739673e-29)
(8.155566e-06 -5.982158e-05 -9.284786e-29)
(2.059825e-05 -0.0001107555 -4.556024e-28)
(3.580991e-05 -0.0001663315 -5.180129e-28)
(5.142743e-05 -0.0002181238 -2.027225e-28)
(-4.863555e-07 -3.67854e-06 -2.242482e-29)
(-2.856865e-07 -1.127097e-05 2.238901e-29)
(9.765347e-07 -2.152972e-05 7.390631e-32)
(4.393377e-06 -4.060942e-05 -1.47417e-28)
(1.405092e-05 -8.129555e-05 -2.856059e-28)
(2.916152e-05 -0.0001386525 -2.621364e-29)
(4.436611e-05 -0.0001926683 -1.659493e-28)
(-4.396966e-07 -3.082625e-06 0)
(-3.343435e-07 -9.396551e-06 -3.318181e-30)
(6.294824e-07 -1.673006e-05 -4.693212e-31)
(2.504599e-06 -2.707592e-05 5.809663e-30)
(8.012829e-06 -5.253452e-05 -1.634635e-29)
(2.066281e-05 -0.0001043685 -2.452767e-29)
(3.596867e-05 -0.0001615077 -3.87457e-28)
(-2.60604e-07 -2.57162e-06 0)
(-1.880268e-07 -7.596392e-06 -1.112064e-29)
(5.93246e-07 -1.330397e-05 -1.208836e-29)
(1.776269e-06 -1.985417e-05 5.304478e-30)
(4.072939e-06 -3.213994e-05 -7.061436e-29)
(1.174796e-05 -6.663655e-05 3.147835e-28)
(2.652533e-05 -0.0001227479 4.399805e-29)
(-7.335331e-08 -2.209352e-06 -1.757224e-29)
(-1.633209e-08 -6.184537e-06 0)
(5.566279e-07 -1.053731e-05 0)
(1.307404e-06 -1.512975e-05 1.45305e-32)
(2.23735e-06 -2.130649e-05 -1.081871e-29)
(4.98322e-06 -3.61203e-05 3.811329e-28)
(1.50024e-05 -7.821254e-05 3.487071e-28)
(1.421677e-08 -1.958374e-06 -1.624915e-29)
(6.698581e-08 -5.115482e-06 -5.65983e-30)
(4.364372e-07 -8.303631e-06 -5.886636e-30)
(8.784983e-07 -1.168842e-05 -4.888618e-29)
(1.236067e-06 -1.541278e-05 -9.346196e-29)
(1.784764e-06 -2.101468e-05 1.436465e-29)
(4.832285e-06 -3.835537e-05 -4.780882e-29)
(-3.504091e-09 -1.750559e-06 0)
(1.817092e-08 -4.282174e-06 1.90099e-29)
(2.09205e-07 -6.553802e-06 0)
(3.847283e-07 -8.831305e-06 -1.251537e-29)
(4.081726e-07 -1.135983e-05 -1.286425e-29)
(2.481476e-07 -1.412155e-05 -4.987322e-29)
(2.470056e-07 -1.856527e-05 -1.462744e-28)
(-8.845956e-08 -1.558418e-06 0)
(-1.335522e-07 -3.598074e-06 -1.570742e-29)
(-7.608841e-08 -5.166501e-06 1.681014e-29)
(-1.038553e-07 -6.578045e-06 0)
(-3.355583e-07 -8.066667e-06 -2.576789e-29)
(-7.875895e-07 -9.659775e-06 -3.780446e-29)
(-1.351918e-06 -1.115327e-05 1.767304e-29)
(-2.131137e-07 -1.352837e-06 0)
(-3.480515e-07 -2.960828e-06 -4.447461e-29)
(-3.870751e-07 -4.043321e-06 -2.420195e-31)
(-5.277495e-07 -4.837186e-06 -5.30649e-29)
(-8.843956e-07 -5.526762e-06 -2.582918e-29)
(-1.467249e-06 -6.135877e-06 1.353302e-29)
(-2.191371e-06 -6.541279e-06 -1.131521e-28)
(-3.50939e-07 -1.121117e-06 1.080146e-29)
(-6.173135e-07 -2.330512e-06 -1.916363e-29)
(-7.196151e-07 -3.073221e-06 1.176119e-31)
(-8.828691e-07 -3.452003e-06 -1.818803e-29)
(-1.241243e-06 -3.590817e-06 0)
(-1.797902e-06 -3.53345e-06 0)
(-2.491324e-06 -3.150115e-06 1.307332e-29)
(-4.747314e-07 -8.876688e-07 7.271662e-30)
(-9.037828e-07 -1.718311e-06 -1.489553e-29)
(-1.067741e-06 -2.190184e-06 1.163682e-29)
(-1.211391e-06 -2.285916e-06 1.128346e-29)
(-1.490047e-06 -2.074375e-06 0)
(-1.954591e-06 -1.553302e-06 0)
(-2.486874e-06 -6.721154e-07 -3.164242e-29)
(-5.659624e-07 -6.838717e-07 -8.506099e-30)
(-1.147254e-06 -1.168452e-06 -2.219843e-29)
(-1.380735e-06 -1.386513e-06 -6.039094e-30)
(-1.500702e-06 -1.261776e-06 3.513708e-30)
(-1.67799e-06 -8.136133e-07 3.88406e-29)
(-1.962524e-06 -6.04019e-09 2.601473e-29)
(-2.260282e-06 1.225676e-06 -6.45391e-30)
(-6.186835e-07 -5.158036e-07 -9.65292e-30)
(-1.300856e-06 -7.057113e-07 -2.938537e-30)
(-1.594657e-06 -6.95587e-07 6.021893e-30)
(-1.703131e-06 -3.841717e-07 6.240533e-30)
(-1.788506e-06 2.557257e-07 0)
(-1.888716e-06 1.260979e-06 -1.811609e-29)
(-1.959689e-06 2.656486e-06 6.488039e-30)
(-6.340134e-07 -3.812165e-07 0)
(-1.359131e-06 -3.305338e-07 -5.874462e-30)
(-1.681457e-06 -1.302792e-07 -6.039256e-30)
(-1.779346e-06 3.531434e-07 6.195905e-29)
(-1.775773e-06 1.141777e-06 5.181652e-29)
(-1.720619e-06 2.276961e-06 -1.143558e-30)
(-1.609746e-06 3.768542e-06 -7.87823e-30)
(-6.158144e-07 -2.767898e-07 -2.265888e-30)
(-1.332942e-06 -3.541585e-08 -2.936402e-30)
(-1.648331e-06 3.183489e-07 0)
(-1.710994e-06 9.355259e-07 -2.997892e-31)
(-1.628716e-06 1.844759e-06 5.608596e-30)
(-1.469835e-06 3.044687e-06 5.049203e-30)
(-1.220095e-06 4.599025e-06 -1.307831e-29)
(-5.764759e-07 -1.969612e-07 3.766697e-30)
(-1.249621e-06 1.897725e-07 -1.336671e-29)
(-1.537791e-06 6.672475e-07 -2.096862e-29)
(-1.556973e-06 1.37995e-06 -3.913605e-29)
(-1.409933e-06 2.353009e-06 -1.674307e-30)
(-1.166151e-06 3.597197e-06 0)
(-8.14997e-07 5.173551e-06 1.295652e-29)
(-5.247224e-07 -1.379482e-07 6.449241e-30)
(-1.134642e-06 3.601948e-07 -2.133222e-30)
(-1.369064e-06 9.25142e-07 3.098524e-30)
(-1.337383e-06 1.702491e-06 0)
(-1.146783e-06 2.701396e-06 -4.102672e-30)
(-8.446257e-07 3.958062e-06 0)
(-4.28093e-07 5.520124e-06 3.272788e-30)
(-4.667492e-07 -9.652342e-08 0)
(-9.986879e-07 4.784591e-07 0)
(-1.177576e-06 1.098844e-06 -7.705025e-30)
(-1.108314e-06 1.903402e-06 0)
(-8.804876e-07 2.910652e-06 -6.831735e-30)
(-5.394647e-07 4.151983e-06 -3.128563e-30)
(-8.636761e-08 5.671193e-06 2.637358e-30)
(-4.12476e-07 -7.024016e-08 -2.829267e-30)
(-8.647262e-07 5.515949e-07 0)
(-9.914255e-07 1.197685e-06 -1.817328e-31)
(-8.874995e-07 2.00934e-06 6.200933e-30)
(-6.335182e-07 3.002324e-06 -2.812716e-30)
(-2.718402e-07 4.203534e-06 -5.121777e-30)
(1.953039e-07 5.650089e-06 -2.136983e-30)
(-3.577401e-07 -5.790258e-08 -1.135604e-30)
(-7.342019e-07 5.883493e-07 -1.390455e-30)
(-8.167456e-07 1.238543e-06 0)
(-6.873231e-07 2.037936e-06 8.61135e-30)
(-4.193076e-07 2.997915e-06 6.14804e-30)
(-5.433609e-08 4.139626e-06 -1.043371e-29)
(4.017228e-07 5.491073e-06 -1.915493e-29)
(-3.082292e-07 -5.42119e-08 -1.929191e-30)
(-6.179982e-07 5.954288e-07 -2.272677e-30)
(-6.62353e-07 1.234038e-06 2.30083e-30)
(-5.146444e-07 2.006494e-06 0)
(-2.426327e-07 2.920048e-06 0)
(1.118037e-07 3.990442e-06 -1.66704e-30)
(5.402242e-07 5.250032e-06 5.264094e-29)
(-2.638014e-07 -5.787418e-08 -1.492422e-30)
(-5.159763e-07 5.805229e-07 -1.937639e-30)
(-5.29694e-07 1.19512e-06 1.782929e-30)
(-3.703931e-07 1.930634e-06 0)
(-1.003739e-07 2.790855e-06 6.103647e-30)
(2.407904e-07 3.787126e-06 5.620683e-34)
(6.47483e-07 4.952933e-06 -6.47174e-30)
(-2.253047e-07 -6.719284e-08 0)
(-4.291053e-07 5.491126e-07 -1.456906e-30)
(-4.189955e-07 1.131021e-06 1.486345e-30)
(-2.537681e-07 1.823391e-06 0)
(9.819751e-09 2.627822e-06 -7.329421e-30)
(3.345165e-07 3.552955e-06 -1.237418e-29)
(7.11078e-07 4.627196e-06 -6.429132e-30)
(-1.926062e-07 -8.072728e-08 9.524667e-31)
(-3.566449e-07 5.057422e-07 -1.480807e-30)
(-3.29023e-07 1.048952e-06 -4.225575e-31)
(-1.625914e-07 1.694534e-06 -3.009069e-30)
(9.128468e-08 2.442936e-06 -2.965257e-30)
(3.986311e-07 3.301611e-06 -6.149942e-31)
(7.474854e-07 4.295162e-06 0)
(-1.652586e-07 -9.725083e-08 1.337219e-30)
(-2.973889e-07 4.539937e-07 0)
(-2.576803e-07 9.545607e-07 0)
(-9.386701e-08 1.551322e-06 3.783348e-30)
(1.469535e-07 2.244345e-06 4.249798e-30)
(4.346967e-07 3.047989e-06 -2.976111e-31)
(7.583911e-07 3.970008e-06 0)
(-1.425505e-07 -1.159252e-07 4.177969e-31)
(-2.49422e-07 3.964624e-07 -1.480685e-30)
(-2.01987e-07 8.520685e-07 -1.490254e-30)
(-4.30213e-08 1.398979e-06 -3.066455e-30)
(1.855843e-07 2.037107e-06 -2.73305e-30)
(4.610098e-07 2.785048e-06 0)
(7.633771e-07 3.643611e-06 1.348793e-31)
(-1.238624e-07 -1.359639e-07 -5.848389e-31)
(-2.110308e-07 3.351077e-07 -2.589103e-30)
(-1.594397e-07 7.441904e-07 -1.843282e-30)
(-7.488488e-09 1.240785e-06 -5.515652e-31)
(2.071584e-07 1.824802e-06 0)
(4.62448e-07 2.514219e-06 1.07931e-30)
(7.407688e-07 3.310235e-06 6.280198e-32)
(-1.08514e-07 -1.569646e-07 4.744536e-31)
(-1.805293e-07 2.711732e-07 -9.904758e-31)
(-1.273912e-07 6.328462e-07 -1.727606e-30)
(1.616381e-08 1.079134e-06 -3.046144e-30)
(2.166374e-07 1.610003e-06 -3.033297e-30)
(4.51934e-07 2.242704e-06 1.301259e-30)
(7.070989e-07 2.97919e-06 2.572194e-30)
(-9.59062e-08 -1.786252e-07 8.978935e-32)
(-1.561987e-07 2.054689e-07 1.135686e-31)
(-1.034479e-07 5.191158e-07 8.603413e-32)
(3.027279e-08 9.150578e-07 0)
(2.144054e-07 1.396831e-06 -2.448231e-29)
(4.315054e-07 1.975444e-06 -3.087388e-29)
(6.669118e-07 2.651444e-06 -6.099416e-30)
(-8.5435e-08 -2.008506e-07 -4.186903e-31)
(-1.363536e-07 1.380924e-07 9.848704e-31)
(-8.44991e-08 4.030257e-07 4.461109e-30)
(4.140125e-08 7.483699e-07 3.000609e-30)
(2.164802e-07 1.179529e-06 0)
(4.181544e-07 1.705754e-06 5.724117e-31)
(6.278293e-07 2.324614e-06 3.031411e-30)
(-7.655651e-08 -2.237915e-07 -2.605549e-31)
(-1.195716e-07 6.860115e-08 1.061753e-30)
(-6.875289e-08 2.83704e-07 2.972938e-30)
(4.948736e-08 5.777215e-07 1.498886e-30)
(2.117545e-07 9.560951e-07 0)
(3.974697e-07 1.429188e-06 3.759011e-30)
(5.893914e-07 1.996023e-06 6.046459e-30)
(-6.874927e-08 -2.476798e-07 5.874528e-31)
(-1.043276e-07 -3.810611e-09 1.672616e-30)
(-5.371342e-08 1.598441e-07 1.485956e-30)
(5.858342e-08 4.013185e-07 1.497637e-30)
(2.099446e-07 7.259408e-07 0)
(3.814034e-07 1.145754e-06 0)
(5.571002e-07 1.661809e-06 0)
(-6.141512e-08 -2.729472e-07 0)
(-8.893811e-08 -8.041964e-08 5.904466e-31)
(-3.678157e-08 2.919292e-08 0)
(7.198305e-08 2.15843e-07 -3.625328e-30)
(2.146042e-07 4.852412e-07 -3.056637e-30)
(3.737933e-07 8.510142e-07 -3.020344e-30)
(5.346879e-07 1.316557e-06 -3.850235e-30)
(-5.396979e-08 -3.001532e-07 5.226494e-31)
(-7.168878e-08 -1.630514e-07 0)
(-1.585287e-08 -1.114902e-07 2.977409e-30)
(9.023687e-08 1.702466e-08 -2.190702e-29)
(2.273753e-07 2.294813e-07 -2.342151e-29)
(3.782063e-07 5.387604e-07 0)
(5.259191e-07 9.533934e-07 -9.382118e-31)
(-4.565576e-08 -3.302131e-07 6.172037e-31)
(-4.980443e-08 -2.544825e-07 0)
(1.524227e-08 -2.668049e-07 1.490344e-30)
(1.276032e-07 -2.025828e-07 1.515519e-30)
(2.632705e-07 -5.195182e-08 1.918666e-30)
(4.018816e-07 2.002162e-07 -9.078706e-31)
(5.354562e-07 5.638217e-07 9.444434e-31)
(-3.546464e-08 -3.643529e-07 0)
(-2.049947e-08 -3.585955e-07 2.228804e-30)
(5.91695e-08 -4.432324e-07 1.48996e-30)
(1.794031e-07 -4.505901e-07 -1.41667e-30)
(3.15321e-07 -3.671289e-07 1.011023e-30)
(4.47037e-07 -1.745048e-07 -9.943477e-31)
(5.671326e-07 1.378069e-07 3.892057e-32)
(-2.192674e-08 -4.044276e-07 0)
(2.103582e-08 -4.808915e-07 8.312924e-31)
(1.237163e-07 -6.495931e-07 -8.085827e-31)
(2.5812e-07 -7.386064e-07 1.126816e-32)
(3.971777e-07 -7.292536e-07 2.505434e-30)
(5.216787e-07 -5.990667e-07 2.990533e-30)
(6.261187e-07 -3.373791e-07 -1.057501e-30)
(-2.741922e-09 -4.529844e-07 0)
(8.195669e-08 -6.295044e-07 0)
(2.194203e-07 -8.992617e-07 -8.80809e-31)
(3.752211e-07 -1.083507e-06 1.470463e-30)
(5.191792e-07 -1.156427e-06 4.023403e-32)
(6.338702e-07 -1.090915e-06 0)
(7.17716e-07 -8.772036e-07 0)
(2.597811e-08 -5.143734e-07 6.840917e-31)
(1.736662e-07 -8.173937e-07 -8.314948e-31)