/*--------------------------------*- C++ -*----------------------------------*\
| =========                 |                                                 |
| \\      /  F ield         | OpenFOAM: The Open Source CFD Toolbox           |
|  \\    /   O peration     | Version:  2206                                  |
|   \\  /    A nd           | Website:  www.openfoam.com                      |
|    \\/     M anipulation  |                                                 |
\*---------------------------------------------------------------------------*/
FoamFile
{
    version     2.0;
    format      ascii;
    arch        "LSB;label=32;scalar=64";
    class       volVectorField;
    location    "2.8";
    object      U.a_0;
}
// * * * * * * * * * * * * * * * * * * * * * * * * * * * * * * * * * * * * * //

dimensions      [0 1 -1 0 0 0 0];

internalField   nonuniform List<vector> 
13078
(
(2.402043e-05 -0.0002976084 7.219787e-27)
(5.425868e-06 -0.000101496 3.818453e-32)
(7.449249e-07 -4.991864e-05 -1.129388e-28)
(-7.613175e-09 -2.671452e-05 0)
(-1.969182e-07 -1.888272e-05 -1.230777e-29)
(-2.770596e-07 -1.49469e-05 -1.157495e-29)
(-3.380361e-07 -1.205984e-05 -1.16191e-29)
(-8.506219e-05 -8.676954e-05 0)
(-4.470112e-05 -6.500957e-05 -1.359109e-31)
(-1.450781e-05 -3.596365e-05 0)
(-5.760757e-06 -2.328308e-05 0)
(-2.959963e-06 -1.787775e-05 -9.540491e-34)
(-1.901417e-06 -1.444751e-05 -2.971235e-34)
(-1.376542e-06 -1.177494e-05 -2.543957e-34)
(-2.467607e-05 -1.721981e-05 4.699556e-30)
(-2.067612e-05 -2.424611e-05 -8.317293e-31)
(-1.198863e-05 -2.158601e-05 1.823698e-29)
(-7.096482e-06 -1.828417e-05 2.521674e-29)
(-4.457265e-06 -1.549598e-05 1.154233e-29)
(-3.001782e-06 -1.30195e-05 0)
(-2.173866e-06 -1.086759e-05 -6.619825e-35)
(-7.528299e-06 -5.960209e-06 3.301662e-31)
(-1.009784e-05 -1.151942e-05 1.405919e-31)
(-8.660165e-06 -1.368249e-05 1.902939e-30)
(-6.51807e-06 -1.372284e-05 1.280715e-30)
(-4.705839e-06 -1.259207e-05 6.52613e-33)
(-3.449519e-06 -1.110727e-05 0)
(-2.61989e-06 -9.563195e-06 1.628225e-33)
(-2.757426e-06 -2.797982e-06 -3.011204e-31)
(-5.503236e-06 -6.625215e-06 -8.949439e-31)
(-5.898116e-06 -9.031672e-06 3.585267e-31)
(-5.216483e-06 -9.954578e-06 -4.279508e-31)
(-4.274929e-06 -9.841567e-06 -1.377799e-29)
(-3.415673e-06 -9.115841e-06 -3.319217e-35)
(-2.752462e-06 -8.099615e-06 1.166299e-29)
(-1.217745e-06 -1.684704e-06 0)
(-3.093973e-06 -4.122681e-06 7.399314e-31)
(-3.905786e-06 -6.079079e-06 -7.463965e-31)
(-3.931704e-06 -7.166988e-06 5.065724e-31)
(-3.57931e-06 -7.496066e-06 1.498746e-30)
(-3.115542e-06 -7.271712e-06 -1.177978e-29)
(-2.669761e-06 -6.653702e-06 -2.342077e-29)
(-6.145032e-07 -1.167278e-06 0)
(-1.824738e-06 -2.749664e-06 3.26771e-31)
(-2.593705e-06 -4.210213e-06 -1.154825e-29)
(-2.896083e-06 -5.183696e-06 -1.200061e-29)
(-2.883599e-06 -5.644559e-06 2.01411e-30)
(-2.705438e-06 -5.656784e-06 1.487457e-30)
(-2.469332e-06 -5.316284e-06 0)
(-3.446245e-07 -8.855243e-07 -5.233761e-31)
(-1.132729e-06 -1.938171e-06 3.165054e-31)
(-1.759204e-06 -3.000861e-06 3.732549e-31)
(-2.139535e-06 -3.788721e-06 0)
(-2.295695e-06 -4.229192e-06 1.062516e-30)
(-2.298922e-06 -4.319979e-06 1.49271e-30)
(-2.220743e-06 -4.113678e-06 1.491925e-30)
(-2.070207e-07 -7.126607e-07 3.237912e-32)
(-7.372007e-07 -1.421545e-06 -6.545664e-31)
(-1.229574e-06 -2.193576e-06 1.12865e-30)
(-1.603849e-06 -2.791173e-06 1.510075e-30)
(-1.835434e-06 -3.148277e-06 3.474726e-30)
(-1.946809e-06 -3.237328e-06 1.495601e-30)
(-1.978424e-06 -3.077871e-06 0)
(-1.295584e-07 -5.967307e-07 4.652463e-31)
(-5.006467e-07 -1.069749e-06 -5.738893e-31)
(-8.894269e-07 -1.626091e-06 -3.147134e-31)
(-1.232177e-06 -2.05747e-06 1.334705e-30)
(-1.491515e-06 -2.313198e-06 -3.891853e-32)
(-1.664231e-06 -2.359865e-06 0)
(-1.769458e-06 -2.199576e-06 0)
(-8.24367e-08 -5.135974e-07 0)
(-3.535425e-07 -8.160188e-07 0)
(-6.681685e-07 -1.208483e-06 -5.994012e-31)
(-9.772251e-07 -1.500544e-06 1.221032e-30)
(-1.242967e-06 -1.655404e-06 4.041715e-32)
(-1.449804e-06 -1.641586e-06 0)
(-1.603766e-06 -1.452942e-06 0)
(-5.210872e-08 -4.508325e-07 0)
(-2.590146e-07 -6.236395e-07 4.669923e-31)
(-5.228386e-07 -8.874862e-07 -4.692953e-31)
(-8.045531e-07 -1.063322e-06 -2.713173e-30)
(-1.069158e-06 -1.124486e-06 -7.64259e-31)
(-1.295701e-06 -1.043897e-06 0)
(-1.48268e-06 -8.121888e-07 2.122268e-30)
(-3.168106e-08 -4.009522e-07 0)
(-1.967915e-07 -4.708702e-07 -1.171856e-30)
(-4.273549e-07 -6.305565e-07 -1.495057e-30)
(-6.902558e-07 -7.080456e-07 -1.046021e-30)
(-9.53076e-07 -6.840473e-07 6.875703e-31)
(-1.192714e-06 -5.361743e-07 -7.223106e-31)
(-1.403673e-06 -2.541732e-07 3.924699e-32)
(-1.725724e-08 -3.596267e-07 1.959359e-31)
(-1.553425e-07 -3.44445e-07 0)
(-3.655269e-07 -4.167139e-07 -1.496301e-30)
(-6.179901e-07 -4.091753e-07 -1.523862e-30)
(-8.81632e-07 -3.079067e-07 1.133892e-30)
(-1.132307e-06 -9.457932e-08 -5.73363e-31)
(-1.362733e-06 2.408725e-07 6.714691e-31)
(-6.59809e-09 -3.23996e-07 2.857696e-32)
(-1.275718e-07 -2.35717e-07 0)
(-3.264619e-07 -2.322014e-07 -2.991158e-30)
(-5.716955e-07 -1.489583e-07 2.104225e-29)
(-8.385136e-07 2.351728e-08 2.49351e-29)
(-1.106087e-06 2.99762e-07 0)
(-1.355664e-06 6.896642e-07 -6.035614e-31)
(1.67748e-09 -2.921142e-07 0)
(-1.095096e-07 -1.386486e-07 -1.099917e-31)
(-3.059982e-07 -6.699554e-08 0)
(-5.553276e-07 8.434065e-08 3.010343e-30)
(-8.313989e-07 3.217777e-07 3.084298e-30)
(-1.112264e-06 6.607707e-07 3.052642e-30)
(-1.379813e-06 1.105871e-06 2.612725e-30)
(8.512376e-09 -2.625719e-07 0)
(-9.794416e-08 -4.898649e-08 -7.008163e-31)
(-2.974471e-07 8.576117e-08 -1.495003e-30)
(-5.554164e-07 3.007826e-07 -1.510069e-30)
(-8.457263e-07 6.014846e-07 0)
(-1.144417e-06 1.00115e-06 0)
(-1.432082e-06 1.501511e-06 0)
(1.443147e-08 -2.34436e-07 1.345923e-31)
(-9.125774e-08 3.635289e-08 -1.370779e-30)
(-2.988047e-07 2.315198e-07 -2.993622e-30)
(-5.708433e-07 5.07905e-07 -1.513068e-30)
(-8.800058e-07 8.70544e-07 0)
(-1.200318e-06 1.330411e-06 -3.019684e-30)
(-1.510714e-06 1.886772e-06 -6.140586e-30)
(1.982728e-08 -2.068799e-07 -1.469842e-31)
(-8.825689e-08 1.198661e-07 -1.596942e-30)
(-3.083561e-07 3.745001e-07 -4.49646e-30)
(-5.995559e-07 7.116586e-07 -3.032914e-30)
(-9.324246e-07 1.135941e-06 0)
(-1.278391e-06 1.656433e-06 -2.171766e-31)
(-1.614692e-06 2.270477e-06 -3.08486e-30)
(2.500623e-08 -1.792685e-07 -9.511363e-31)
(-8.810774e-08 2.035444e-07 -2.419978e-30)
(-3.248709e-07 5.180334e-07 -1.119212e-30)
(-6.393113e-07 9.16525e-07 0)
(-9.946255e-07 1.401513e-06 2.483868e-29)
(-1.368744e-06 1.98321e-06 3.140661e-29)
(-1.741952e-06 2.660336e-06 6.220895e-30)
(3.023514e-08 -1.509943e-07 -1.896117e-30)
(-9.039043e-08 2.891341e-07 -2.422692e-30)
(-3.48283e-07 6.650909e-07 -1.514017e-30)
(-6.92708e-07 1.126941e-06 1.680919e-30)
(-1.081825e-06 1.673088e-06 3.085333e-30)
(-1.490713e-06 2.318341e-06 2.348549e-31)
(-1.897519e-06 3.062997e-06 -2.713873e-30)
(3.566437e-08 -1.217342e-07 0)
(-9.472019e-08 3.778558e-07 -5.531187e-31)
(-3.77611e-07 8.179013e-07 -4.449702e-31)
(-7.561745e-07 1.345989e-06 -3.540571e-30)
(-1.183032e-06 1.959662e-06 0)
(-1.632501e-06 2.67356e-06 -1.551484e-31)
(-2.078901e-06 3.486176e-06 6.447686e-32)
(4.139616e-08 -9.117835e-08 1.995748e-30)
(-1.008903e-07 4.706359e-07 0)
(-4.129017e-07 9.781655e-07 0)
(-8.306528e-07 1.576531e-06 2.984639e-30)
(-1.300878e-06 2.262271e-06 4.99379e-30)
(-1.796157e-06 3.049539e-06 0)
(-2.287359e-06 3.935177e-06 -1.099541e-30)
(4.754293e-08 -5.911563e-08 4.948293e-30)
(-1.08952e-07 5.68173e-07 0)
(-4.544269e-07 1.14725e-06 0)
(-9.167717e-07 1.820679e-06 -3.177938e-31)
(-1.435343e-06 2.583926e-06 1.728098e-30)
(-1.973145e-06 3.445809e-06 -1.956653e-30)
(-2.512925e-06 4.40981e-06 0)
(5.404132e-08 -2.5496e-08 3.014444e-30)
(-1.192799e-07 6.708559e-07 1.496208e-30)
(-5.031432e-07 1.326178e-06 4.984958e-30)
(-1.016525e-06 2.080465e-06 3.077307e-30)
(-1.592233e-06 2.928123e-06 3.18997e-30)
(-2.187241e-06 3.869923e-06 -2.498402e-30)
(-2.784906e-06 4.923211e-06 0)
(6.078933e-08 9.649747e-09 0)
(-1.324601e-07 7.786114e-07 -4.320208e-30)
(-5.600096e-07 1.515174e-06 4.221653e-30)
(-1.130512e-06 2.356669e-06 0)
(-1.769152e-06 3.29668e-06 2.658185e-30)
(-2.428073e-06 4.335588e-06 1.282777e-29)
(-3.09277e-06 5.493015e-06 6.693157e-30)
(6.730943e-08 4.604857e-08 -4.164713e-30)
(-1.498869e-07 8.90854e-07 -5.197243e-30)
(-6.271613e-07 1.713716e-06 4.895185e-30)
(-1.261572e-06 2.649235e-06 0)
(-1.970107e-06 3.690806e-06 -6.319416e-30)
(-2.700907e-06 4.83949e-06 -9.02529e-34)
(-3.442481e-06 6.118051e-06 6.770296e-30)
(7.284396e-08 8.333367e-08 -4.962129e-30)
(-1.736232e-07 1.006317e-06 -5.973345e-30)
(-7.080902e-07 1.920193e-06 5.84038e-30)
(-1.413914e-06 2.956502e-06 0)
(-2.199597e-06 4.109266e-06 0)
(-3.009427e-06 5.381328e-06 -4.479793e-30)
(-3.826497e-06 6.792104e-06 -5.028224e-29)
(7.538425e-08 1.207594e-07 -6.893466e-30)
(-2.080284e-07 1.122783e-06 -8.584203e-30)
(-8.08242e-07 2.131276e-06 0)
(-1.593437e-06 3.274312e-06 2.239952e-32)
(-2.463466e-06 4.546646e-06 -6.420588e-30)
(-3.36181e-06 5.953679e-06 -4.063519e-30)
(-4.274422e-06 7.510862e-06 2.021716e-29)
(7.476812e-08 1.573544e-07 -6.695085e-30)
(-2.546494e-07 1.234957e-06 0)
(-9.342266e-07 2.341822e-06 -1.084177e-29)
(-1.80791e-06 3.5958e-06 4.274329e-30)
(-2.766602e-06 4.992571e-06 -6.797894e-30)
(-3.752363e-06 6.539511e-06 -1.240005e-29)
(-4.755572e-06 8.258507e-06 -5.4081e-30)
(6.417087e-08 1.880959e-07 0)
(-3.301161e-07 1.3386e-06 0)
(-1.100763e-06 2.543674e-06 -1.800552e-29)
(-2.071214e-06 3.911389e-06 0)
(-3.121267e-06 5.436058e-06 -1.587994e-29)
(-4.19014e-06 7.125432e-06 -7.274413e-30)
(-5.271297e-06 9.004508e-06 6.359143e-30)
(4.232592e-08 2.142291e-07 -1.131875e-29)
(-4.383525e-07 1.425243e-06 8.110804e-30)
(-1.315303e-06 2.720736e-06 8.894254e-30)
(-2.401767e-06 4.208725e-06 0)
(-3.547695e-06 5.864573e-06 -9.232616e-30)
(-4.693779e-06 7.697733e-06 0)
(-5.840753e-06 9.733127e-06 -6.35604e-30)
(-1.673368e-10 2.316468e-07 -1.032637e-29)
(-6.052559e-07 1.485229e-06 1.271107e-29)
(-1.611223e-06 2.859651e-06 3.494053e-29)
(-2.818568e-06 4.459165e-06 2.692338e-29)
(-4.072857e-06 6.260897e-06 -3.716863e-30)
(-5.287281e-06 8.240988e-06 6.872686e-30)
(-6.47847e-06 1.043422e-05 -7.042109e-30)
(-7.218364e-08 2.344365e-07 1.143291e-30)
(-8.561464e-07 1.51632e-06 1.506993e-30)
(-2.034343e-06 2.951664e-06 2.02823e-29)
(-3.388232e-06 4.659931e-06 1.722967e-29)
(-4.741095e-06 6.604579e-06 -2.589017e-29)
(-6.001334e-06 8.735792e-06 1.395847e-29)
(-7.201426e-06 1.108694e-05 2.867289e-29)
(-1.842249e-07 2.144712e-07 -1.14145e-30)
(-1.211368e-06 1.492624e-06 -1.509497e-30)
(-2.611143e-06 2.985575e-06 9.516341e-30)
(-4.120416e-06 4.786911e-06 -4.457586e-29)
(-5.560224e-06 6.857099e-06 -6.968515e-29)
(-6.85191e-06 9.163447e-06 -1.603399e-30)
(-8.020883e-06 1.167326e-05 0)
(-3.442763e-07 1.646261e-07 0)
(-1.688885e-06 1.395775e-06 0)
(-3.356953e-06 2.931618e-06 1.79184e-29)
(-5.039589e-06 4.816806e-06 3.045985e-29)
(-6.545514e-06 7.016505e-06 8.676247e-29)
(-7.820117e-06 9.475555e-06 7.376354e-29)
(-8.927802e-06 1.216926e-05 0)
(-5.532743e-07 7.564786e-08 -2.273769e-30)
(-2.27856e-06 1.212004e-06 3.019486e-30)
(-4.232092e-06 2.788801e-06 6.335513e-30)
(-6.088136e-06 4.79172e-06 0)
(-7.665002e-06 7.104915e-06 3.738627e-29)
(-8.924895e-06 9.702275e-06 -1.518401e-29)
(-9.951509e-06 1.251784e-05 -3.080873e-29)
(-8.01596e-07 -4.888567e-08 -1.608502e-29)
(-2.918325e-06 9.636244e-07 3.028213e-30)
(-5.13884e-06 2.59199e-06 -2.23967e-29)
(-7.165663e-06 4.702577e-06 0)
(-8.844307e-06 7.114602e-06 3.525982e-29)
(-1.015243e-05 9.750394e-06 -8.348357e-29)
(-1.118461e-05 1.252673e-05 -1.577272e-28)
(-1.063344e-06 -1.758693e-07 -1.817323e-29)
(-3.521787e-06 7.074943e-07 -2.230964e-29)
(-5.993143e-06 2.356857e-06 -2.514021e-29)
(-8.234484e-06 4.499482e-06 -1.334087e-29)
(-1.011339e-05 6.89598e-06 -2.808101e-29)
(-1.162948e-05 9.414169e-06 -2.196194e-29)
(-1.284997e-05 1.204856e-05 -6.583846e-29)
(-1.295027e-06 -2.672858e-07 0)
(-4.020382e-06 4.728829e-07 2.090351e-29)
(-6.772475e-06 2.037407e-06 2.765036e-29)
(-9.300579e-06 4.068494e-06 6.684999e-30)
(-1.151195e-05 6.291088e-06 -4.09036e-29)
(-1.338664e-05 8.558375e-06 -1.500072e-29)
(-1.498089e-05 1.081703e-05 0)
(-1.471195e-06 -3.160817e-07 2.468503e-29)
(-4.390009e-06 2.333963e-07 3.704354e-29)
(-7.445345e-06 1.519564e-06 5.759114e-30)
(-1.038552e-05 3.265924e-06 6.055215e-29)
(-1.306495e-05 5.116298e-06 -4.432788e-29)
(-1.548266e-05 6.940768e-06 1.496483e-29)
(-1.767638e-05 8.610351e-06 -5.321619e-30)
(-1.590916e-06 -3.297932e-07 2.439552e-29)
(-4.639241e-06 -5.298637e-08 -2.949891e-30)
(-7.996361e-06 6.993202e-07 0)
(-1.142341e-05 1.903259e-06 4.337559e-30)
(-1.474146e-05 3.211523e-06 6.704976e-29)
(-1.782707e-05 4.410752e-06 5.107015e-29)
(-2.065587e-05 5.508073e-06 1.302969e-29)
(-1.62447e-06 -3.5174e-07 -2.815859e-29)
(-4.775978e-06 -4.655994e-07 5.762007e-30)
(-8.439699e-06 -4.986364e-07 6.099768e-30)
(-1.236456e-05 -1.236357e-07 -1.214751e-28)
(-1.637015e-05 3.858505e-07 9.264395e-29)
(-2.02051e-05 9.563042e-07 -3.113374e-29)
(-2.356483e-05 1.58679e-06 -5.77288e-29)
(-1.541636e-06 -4.13816e-07 -2.964719e-29)
(-4.799871e-06 -1.127303e-06 0)
(-8.812493e-06 -2.163244e-06 1.172438e-29)
(-1.321148e-05 -2.807039e-06 1.243185e-29)
(-1.781199e-05 -3.287588e-06 -1.690276e-29)
(-2.227595e-05 -3.403666e-06 -1.141929e-28)
(-2.618594e-05 -3.058782e-06 -2.010385e-29)
(-1.382075e-06 -6.263817e-07 0)
(-4.810699e-06 -2.172029e-06 1.111166e-29)
(-9.165188e-06 -4.39182e-06 1.557035e-29)
(-1.401479e-05 -6.113425e-06 -1.082067e-29)
(-1.897538e-05 -7.582574e-06 -6.212838e-30)
(-2.382182e-05 -8.48017e-06 -6.217265e-29)
(-2.822566e-05 -8.582595e-06 -1.065541e-28)
(-1.29275e-06 -1.059029e-06 0)
(-4.970895e-06 -3.699727e-06 4.273722e-30)
(-9.567883e-06 -7.157577e-06 6.753733e-30)
(-1.465629e-05 -9.961832e-06 1.115338e-29)
(-1.990146e-05 -1.226521e-05 -1.492101e-30)
(-2.481855e-05 -1.398318e-05 3.420766e-29)
(-2.942417e-05 -1.484066e-05 -8.582581e-30)
(-1.370616e-06 -1.684894e-06 -2.891473e-29)
(-5.338937e-06 -5.55811e-06 3.93008e-29)
(-1.009669e-05 -1.019954e-05 1.069189e-29)
(-1.525249e-05 -1.415027e-05 1.245989e-29)
(-2.052976e-05 -1.737798e-05 -2.024317e-30)
(-2.548315e-05 -1.97706e-05 3.74237e-29)
(-3.003478e-05 -2.172574e-05 6.550683e-29)
(-1.541724e-06 -2.455298e-06 -2.703005e-29)
(-5.789374e-06 -7.668989e-06 3.508788e-29)
(-1.063725e-05 -1.336494e-05 -3.533948e-29)
(-1.570509e-05 -1.837097e-05 -3.930138e-32)
(-2.087207e-05 -2.268871e-05 3.414823e-29)
(-2.576809e-05 -2.618184e-05 3.185976e-29)
(-3.053063e-05 -2.931034e-05 6.977726e-29)
(-1.676179e-06 -3.287895e-06 -2.238544e-29)
(-6.021841e-06 -9.882549e-06 7.178824e-30)
(-1.08234e-05 -1.660453e-05 -6.570869e-29)
(-1.579638e-05 -2.258299e-05 -1.526202e-29)
(-2.074104e-05 -2.799275e-05 3.627277e-29)
(-2.558708e-05 -3.287575e-05 2.221472e-30)
(-3.134456e-05 -3.865285e-05 3.66252e-33)
(-1.702349e-06 -4.099217e-06 -2.751815e-29)
(-5.896831e-06 -1.205925e-05 -3.634903e-30)
(-1.04347e-05 -1.984825e-05 -5.129023e-30)
(-1.51838e-05 -2.687338e-05 -8.424972e-30)
(-1.996902e-05 -3.341497e-05 1.301583e-29)
(-2.515842e-05 -4.01846e-05 4.032881e-29)
(-3.328685e-05 -5.226405e-05 9.216711e-29)
(-1.533295e-06 -4.855682e-06 7.867563e-31)
(-5.25046e-06 -1.408588e-05 -1.562591e-30)
(-9.347888e-06 -2.295256e-05 4.625811e-29)
(-1.378023e-05 -3.113289e-05 2.321611e-29)
(-1.832508e-05 -3.901202e-05 2.910466e-29)
(-2.436233e-05 -4.95181e-05 5.521428e-29)
(-3.752358e-05 -7.430807e-05 4.702763e-30)
(-1.120199e-06 -5.492491e-06 3.750539e-30)
(-4.014055e-06 -1.597224e-05 -5.11707e-30)
(-7.410759e-06 -2.604837e-05 6.211415e-31)
(-1.113075e-05 -3.529327e-05 1.591249e-29)
(-1.555876e-05 -4.555502e-05 -1.802791e-29)
(-2.29468e-05 -6.370813e-05 3.518885e-28)
(-4.110605e-05 -0.0001051894 7.675455e-28)
(-5.959071e-07 -6.075995e-06 -5.520839e-32)
(-2.486975e-06 -1.765849e-05 -8.74859e-30)
(-4.844883e-06 -2.870633e-05 -8.901588e-30)
(-7.689046e-06 -3.95412e-05 -4.138938e-29)
(-1.174291e-05 -5.425845e-05 -6.347927e-29)
(-2.050911e-05 -8.499433e-05 -1.733653e-35)
(-4.022881e-05 -0.0001408919 -7.549165e-29)
(-8.585603e-08 -6.585549e-06 -4.544431e-31)
(-9.54358e-07 -1.919128e-05 -7.164081e-30)
(-2.322957e-06 -3.13173e-05 -6.312725e-30)
(-4.329839e-06 -4.482536e-05 -5.362641e-31)
(-7.895865e-06 -6.708232e-05 3.545173e-29)
(-1.655651e-05 -0.0001111346 5.607312e-29)
(-3.275764e-05 -0.00017367 -8.443082e-30)
(3.755514e-07 -6.99835e-06 -3.453228e-30)
(5.109346e-07 -2.057682e-05 -5.694749e-30)
(1.432179e-07 -3.479166e-05 -7.242405e-30)
(-8.424496e-07 -5.296222e-05 -2.151826e-29)
(-3.343304e-06 -8.443427e-05 -4.335795e-29)
(-9.562937e-06 -0.0001382455 -1.655406e-30)
(-1.971114e-05 -0.0002019479 -2.228313e-31)
(7.877192e-07 -7.240528e-06 2.210591e-30)
(1.943366e-06 -2.24189e-05 1.460886e-30)
(2.758344e-06 -4.008559e-05 9.585102e-30)
(3.212547e-06 -6.443768e-05 -1.554546e-29)
(2.952388e-06 -0.0001043871 -7.286263e-29)
(1.405083e-06 -0.0001629916 -1.171648e-28)
(-1.535515e-06 -0.0002265616 1.056845e-28)
(1.047137e-06 -7.379352e-06 1.319218e-31)
(3.149325e-06 -2.476005e-05 -2.510661e-31)
(5.314138e-06 -4.713894e-05 1.240604e-29)
(7.681218e-06 -7.808219e-05 2.293447e-29)
(1.05754e-05 -0.000123507 6.13612e-29)
(1.44325e-05 -0.0001829665 3.622478e-31)
(1.876441e-05 -0.0002456599 1.299158e-28)
(1.139377e-06 -7.498958e-06 -3.092804e-30)
(4.025372e-06 -2.728163e-05 -1.384892e-29)
(7.648825e-06 -5.450504e-05 -2.122968e-29)
(1.221883e-05 -9.049959e-05 3.140611e-29)
(1.833063e-05 -0.0001379237 1.421713e-28)
(2.671279e-05 -0.000196088 1.059671e-28)
(3.686803e-05 -0.0002574225 1.946683e-28)
(1.168043e-06 -7.407239e-06 1.060024e-29)
(4.7407e-06 -2.898511e-05 7.4761e-31)
(9.907641e-06 -6.021465e-05 -8.366689e-30)
(1.669058e-05 -9.964137e-05 -3.277428e-29)
(2.54688e-05 -0.0001474321 1.16786e-31)
(3.687346e-05 -0.0002035869 1.041774e-29)
(5.096912e-05 -0.0002634607 -2.704376e-29)
(1.079949e-06 -6.938528e-06 1.321079e-29)
(4.988785e-06 -2.910304e-05 -1.863134e-31)
(1.145112e-05 -6.329035e-05 -3.292453e-29)
(2.017884e-05 -0.0001055834 -1.159396e-28)
(3.097603e-05 -0.0001537618 -1.579071e-28)
(4.437761e-05 -0.0002081071 -1.522657e-28)
(6.114917e-05 -0.0002666584 7.152211e-28)
(8.364588e-07 -6.206158e-06 -1.222083e-30)
(4.468697e-06 -2.745635e-05 -3.470038e-29)
(1.152772e-05 -6.336762e-05 1.175071e-28)
(2.174213e-05 -0.0001083108 -1.149263e-29)
(3.403743e-05 -0.0001573659 -2.002444e-28)
(4.853208e-05 -0.0002098235 3.920669e-30)
(6.569706e-05 -0.0002651137 1.342328e-28)
(5.214006e-07 -5.53003e-06 -5.012626e-30)
(3.406811e-06 -2.459865e-05 -4.564485e-29)
(9.961607e-06 -5.865911e-05 2.081466e-29)
(2.087189e-05 -0.0001046492 1.939655e-28)
(3.412126e-05 -0.0001546575 2.085595e-28)
(4.887027e-05 -0.0002059952 9.683676e-31)
(6.572393e-05 -0.0002600661 -3.681242e-29)
(2.01992e-07 -5.069714e-06 -6.321316e-30)
(2.132938e-06 -2.064099e-05 8.220058e-30)
(7.467538e-06 -4.997571e-05 -1.638684e-31)
(1.780533e-05 -9.40542e-05 3.449521e-28)
(3.151966e-05 -0.0001456901 2.900064e-28)
(4.628015e-05 -0.000197203 1.82377e-28)
(6.239486e-05 -0.0002508122 5.563674e-29)
(-1.181557e-07 -4.646278e-06 -2.844112e-29)
(9.305395e-07 -1.658532e-05 5.006596e-30)
(4.515458e-06 -3.911759e-05 -1.671376e-29)
(1.28854e-05 -7.802227e-05 1.719361e-28)
(2.621959e-05 -0.0001305551 1.755622e-28)
(4.116219e-05 -0.0001839959 2.385605e-28)
(5.714605e-05 -0.0002375445 -1.594774e-28)
(-3.911965e-07 -4.118694e-06 -5.594954e-29)
(1.381282e-07 -1.347892e-05 5.291733e-29)
(2.221954e-06 -2.883456e-05 -1.311926e-30)
(7.852403e-06 -5.867725e-05 5.766425e-29)
(1.995448e-05 -0.000109134 -1.483791e-28)
(3.510757e-05 -0.0001646771 -1.34501e-28)
(5.093726e-05 -0.0002169806 -6.343807e-28)
(-5.104584e-07 -3.606907e-06 -3.229121e-29)
(-1.798818e-07 -1.106233e-05 -2.599903e-30)
(1.155441e-06 -2.112459e-05 1.331479e-30)
(4.329205e-06 -3.980674e-05 -3.127414e-29)
(1.338615e-05 -8.000243e-05 2.572948e-29)
(2.813977e-05 -0.000137241 -2.759406e-28)
(4.35277e-05 -0.0001916381 2.150044e-28)
(-4.451512e-07 -3.01326e-06 0)
(-1.500363e-07 -9.201235e-06 -3.574726e-29)
(9.705811e-07 -1.639897e-05 -8.455161e-30)
(2.766964e-06 -2.653142e-05 5.192302e-29)
(7.678686e-06 -5.160994e-05 -1.712977e-28)
(1.949463e-05 -0.0001032099 -2.370705e-28)
(3.469405e-05 -0.0001606528 -4.828015e-28)
(-2.614066e-07 -2.505389e-06 0)
(2.344977e-08 -7.406223e-06 -1.121734e-29)
(1.022474e-06 -1.300921e-05 -1.669512e-29)
(2.250302e-06 -1.945133e-05 6.133181e-29)
(4.215536e-06 -3.153953e-05 -6.269794e-29)
(1.08631e-05 -6.576168e-05 5.087541e-28)
(2.493907e-05 -0.0001220316 2.253248e-29)
(-7.860666e-08 -2.148448e-06 -2.711353e-29)
(1.86882e-07 -6.007581e-06 0)
(1.00052e-06 -1.025538e-05 0)
(1.871648e-06 -1.477449e-05 2.608268e-31)
(2.68663e-06 -2.090073e-05 8.261843e-29)
(4.82015e-06 -3.556275e-05 3.789752e-28)
(1.363491e-05 -7.763076e-05 -2.472134e-28)
(-1.019284e-09 -1.904019e-06 -2.536228e-29)
(2.380525e-07 -4.95623e-06 -5.755262e-30)
(8.420999e-07 -8.044446e-06 -6.062338e-30)
(1.446761e-06 -1.134653e-05 -5.061707e-29)
(1.811899e-06 -1.503352e-05 -3.408322e-29)
(2.131397e-06 -2.065198e-05 3.391466e-30)
(4.370239e-06 -3.792986e-05 -1.681123e-28)
(-3.034185e-08 -1.703107e-06 0)
(1.471214e-07 -4.142402e-06 2.998243e-29)
(5.514296e-07 -6.322368e-06 0)
(8.97186e-07 -8.517077e-06 -1.307896e-29)
(9.918759e-07 -1.099004e-05 -1.363928e-29)
(7.542338e-07 -1.375604e-05 -3.157283e-29)
(4.677541e-07 -1.828603e-05 -1.918568e-29)
(-1.256147e-07 -1.517581e-06 0)
(-4.532588e-08 -3.477365e-06 -2.597121e-29)
(1.971659e-07 -4.96496e-06 2.714478e-29)
(3.263615e-07 -6.300542e-06 0)
(1.79967e-07 -7.730879e-06 -2.733304e-29)
(-2.839035e-07 -9.302694e-06 -3.183793e-29)
(-9.737698e-07 -1.083651e-05 2.258952e-29)
(-2.575644e-07 -1.317723e-06 0)
(-2.931274e-07 -2.857611e-06 -7.306365e-29)
(-1.758216e-07 -3.871086e-06 -2.544194e-31)
(-1.8395e-07 -4.599595e-06 -7.287692e-29)
(-4.646082e-07 -5.236416e-06 -2.743811e-29)
(-1.040885e-06 -5.818029e-06 2.255857e-29)
(-1.829221e-06 -6.22883e-06 -1.224684e-28)
(-3.98878e-07 -1.090813e-06 1.776258e-29)
(-5.862718e-07 -2.24227e-06 -2.800369e-29)
(-5.585926e-07 -2.926993e-06 1.200784e-31)
(-6.137408e-07 -3.251586e-06 -3.479355e-29)
(-9.131225e-07 -3.347427e-06 0)
(-1.467392e-06 -3.266975e-06 0)
(-2.209869e-06 -2.882614e-06 1.133919e-31)
(-5.230161e-07 -8.611822e-07 1.362768e-29)
(-8.882976e-07 -1.641995e-06 -2.292085e-29)
(-9.430783e-07 -2.064963e-06 1.948808e-29)
(-9.991214e-07 -2.116635e-06 1.897505e-29)
(-1.235762e-06 -1.872501e-06 0)
(-1.708893e-06 -1.336761e-06 0)
(-2.285513e-06 -4.554258e-07 -4.054756e-29)
(-6.122251e-07 -6.602186e-07 -1.43152e-29)
(-1.140028e-06 -1.100961e-06 -2.968585e-29)
(-1.279662e-06 -1.27702e-06 -6.239964e-30)
(-1.327259e-06 -1.116228e-06 1.014189e-29)
(-1.47521e-06 -6.435515e-07 4.094892e-29)
(-1.773225e-06 1.734966e-07 1.569498e-29)
(-2.111079e-06 1.402836e-06 -1.586717e-30)
(-6.614226e-07 -4.942697e-07 -1.493666e-29)
(-1.296722e-06 -6.447572e-07 -2.997257e-30)
(-1.507921e-06 -5.977583e-07 6.214883e-30)
(-1.55513e-06 -2.560568e-07 6.515803e-30)
(-1.61795e-06 4.033779e-07 0)
(-1.731013e-06 1.415316e-06 -2.456841e-29)
(-1.836759e-06 2.807578e-06 1.171259e-29)
(-6.72618e-07 -3.613868e-07 0)
(-1.355348e-06 -2.748208e-07 -5.982793e-30)
(-1.604039e-06 -4.164471e-08 -6.222608e-30)
(-1.64805e-06 4.681976e-07 7.50567e-29)
(-1.624332e-06 1.273907e-06 5.429827e-29)
(-1.579473e-06 2.414232e-06 8.034238e-30)
(-1.49887e-06 3.902283e-06 -4.254108e-30)
(-6.501488e-07 -2.584985e-07 -2.27895e-30)
(-1.328309e-06 1.572221e-08 -2.987493e-30)
(-1.577249e-06 3.993136e-07 0)
(-1.590673e-06 1.040492e-06 -3.142258e-31)
(-1.488637e-06 1.964945e-06 1.036143e-29)
(-1.338506e-06 3.168959e-06 9.432985e-30)
(-1.11536e-06 4.71956e-06 -1.393172e-29)
(-6.068607e-07 -1.802092e-07 7.616856e-30)
(-1.244267e-06 2.364647e-07 -1.826864e-29)
(-1.471595e-06 7.411816e-07 -1.234581e-29)
(-1.445181e-06 1.47585e-06 -4.914407e-29)
(-1.279219e-06 2.462496e-06 2.237047e-30)
(-1.042897e-06 3.709954e-06 0)
(-7.150476e-07 5.282417e-06 1.372921e-29)
(-5.515631e-07 -1.227289e-07 9.918177e-30)
(-1.128466e-06 4.02703e-07 -6.407461e-30)
(-1.306793e-06 9.926309e-07 7.255795e-30)
(-1.23266e-06 1.789869e-06 0)
(-1.024885e-06 2.800799e-06 -7.817334e-30)
(-7.291488e-07 4.06006e-06 0)
(-3.332375e-07 5.617968e-06 6.394616e-30)
(-4.904174e-07 -8.279037e-08 0)
(-9.917624e-07 5.169335e-07 0)
(-1.118923e-06 1.159934e-06 -1.511771e-29)
(-1.011081e-06 1.982399e-06 0)
(-7.675309e-07 3.000467e-06 -1.341831e-29)
(-4.31764e-07 4.244063e-06 -6.170593e-30)
(3.177223e-09 5.759101e-06 5.395578e-30)
(-4.333937e-07 -5.789019e-08 -5.605862e-30)
(-8.573184e-07 5.861237e-07 0)
(-9.370408e-07 1.252516e-06 -3.411062e-30)
(-7.980553e-07 2.080392e-06 9.405041e-30)
(-5.293748e-07 3.083378e-06 -5.732671e-30)
(-1.716439e-07 4.286965e-06 -1.050244e-29)
(2.797257e-07 5.729799e-06 -4.582825e-30)
(-3.761559e-07 -4.686996e-08 -3.610297e-30)
(-7.264867e-07 6.191609e-07 -4.417737e-30)
(-7.66728e-07 1.287545e-06 0)
(-6.054772e-07 2.101722e-06 1.15281e-29)
(-3.235667e-07 3.071184e-06 6.332349e-30)
(3.880738e-08 4.215682e-06 -1.542002e-29)
(4.8156e-07 5.564197e-06 -1.991529e-29)
(-3.244298e-07 -4.444233e-08 -4.135003e-30)
(-6.104327e-07 6.227661e-07 -4.973336e-30)
(-6.166918e-07 1.277701e-06 4.89675e-30)
(-4.400504e-07 2.063706e-06 0)
(-1.54867e-07 2.986337e-06 0)
(1.980321e-07 4.059742e-06 -3.786282e-30)
(6.144815e-07 5.315952e-06 5.634623e-29)
(-2.780595e-07 -4.925852e-08 -3.451724e-30)
(-5.087644e-07 6.04695e-07 -4.336203e-30)
(-4.882399e-07 1.233929e-06 4.08561e-30)
(-3.026646e-07 1.981888e-06 0)
(-2.015869e-08 2.850876e-06 6.251045e-30)
(3.205215e-07 3.850628e-06 8.20382e-34)
(7.171429e-07 5.013758e-06 -6.680223e-30)
(-2.378668e-07 -5.962487e-08 0)
(-4.223774e-07 5.704064e-07 -3.584104e-30)
(-3.815695e-07 1.165395e-06 3.530246e-30)
(-1.925701e-07 1.869148e-06 0)
(8.274611e-08 2.681989e-06 -9.266012e-30)
(4.078335e-07 3.611048e-06 -1.268904e-29)
(7.763379e-07 4.683715e-06 -6.614495e-30)
(-2.0369e-07 -7.410532e-08 2.494539e-30)
(-3.504775e-07 5.244218e-07 -1.491222e-30)
(-2.954347e-07 1.079252e-06 1.371194e-30)
(-1.076309e-07 1.73514e-06 -3.055862e-30)
(1.570534e-07 2.491428e-06 -3.022529e-30)
(4.652786e-07 3.354189e-06 -2.089234e-30)
(8.07716e-07 4.347121e-06 0)
(-1.750527e-07 -9.147828e-08 4.069822e-30)
(-2.918209e-07 4.703101e-07 0)
(-2.277138e-07 9.811294e-07 0)
(-4.483008e-08 1.587099e-06 5.34455e-30)
(2.057054e-07 2.287297e-06 7.141752e-30)
(4.943668e-07 3.09485e-06 -1.617093e-30)
(8.130293e-07 4.017045e-06 0)
(-1.512153e-07 -1.109074e-07 1.627611e-30)
(-2.44456e-07 4.106678e-07 -1.488956e-30)
(-1.753824e-07 8.752704e-07 -1.50385e-30)
(5.100101e-10 1.430334e-06 -3.10451e-30)
(2.377598e-07 2.074908e-06 -1.521774e-30)
(5.140977e-07 2.826561e-06 0)
(8.1241e-07 3.685653e-06 -8.887745e-31)
(-1.31534e-07 -1.316084e-07 -5.85818e-31)
(-2.066418e-07 3.474535e-07 -3.910652e-30)
(-1.359101e-07 7.644032e-07 -3.113623e-30)
(3.100653e-08 1.268167e-06 -2.932051e-30)
(2.533023e-07 1.857912e-06 0)
(5.094722e-07 2.550731e-06 5.850083e-32)
(7.843326e-07 3.347376e-06 6.401522e-32)
(-1.153082e-07 -1.531831e-07 -4.719068e-31)
(-1.766761e-07 2.819023e-07 -3.311774e-30)
(-1.066472e-07 6.504434e-07 -3.963997e-30)
(5.008249e-08 1.103005e-06 -4.128377e-30)
(2.572625e-07 1.638908e-06 -3.070404e-30)
(4.933791e-07 2.274691e-06 3.999867e-31)
(7.45495e-07 3.011795e-06 3.41755e-30)
(-1.019228e-07 -1.753365e-07 -7.473857e-31)
(-1.528338e-07 2.148077e-07 -1.935622e-30)
(-8.521128e-08 5.344521e-07 -8.976799e-31)
(6.004591e-08 9.358649e-07 0)
(2.499983e-07 1.42204e-06 -2.47369e-29)
(4.679101e-07 2.003501e-06 -3.125783e-29)
(7.006236e-07 2.680071e-06 -6.18796e-30)
(-9.076089e-08 -1.979818e-07 -1.158991e-30)
(-1.334241e-07 1.462487e-07 8.247508e-32)
(-6.848821e-08 4.164404e-07 4.486593e-30)
(6.751539e-08 7.66585e-07 3.023997e-30)
(2.476802e-07 1.201657e-06 0)
(4.501445e-07 1.730472e-06 -1.284628e-31)
(6.573756e-07 2.349835e-06 3.070711e-30)
(-8.126886e-08 -2.21279e-07 -9.138644e-31)
(-1.170292e-07 7.575627e-08 2.650222e-31)
(-5.47124e-08 2.95494e-07 2.988056e-30)
(7.23856e-08 5.937501e-07 1.509287e-30)
(2.390994e-07 9.756013e-07 0)
(4.255069e-07 1.45103e-06 3.174002e-30)
(6.152013e-07 2.018331e-06 6.116333e-30)
(-7.29177e-08 -2.45469e-07 5.879994e-31)
(-1.021345e-07 2.498472e-09 2.657206e-31)
(-4.14306e-08 1.702617e-07 1.492676e-30)
(7.862086e-08 4.155007e-07 1.506894e-30)
(2.338579e-07 7.432317e-07 0)
(4.058877e-07 1.165154e-06 0)
(5.795732e-07 1.681662e-06 0)
(-6.510312e-08 -2.709919e-07 0)
(-8.706788e-08 -7.48247e-08 -2.992082e-32)
(-2.608535e-08 3.845146e-08 0)
(8.944476e-08 2.284647e-07 -3.074693e-30)
(2.354473e-07 5.00674e-07 -3.077622e-30)
(3.950998e-07 8.683689e-07 -3.044877e-30)
(5.541835e-07 1.334363e-06 -3.453937e-30)
(-5.723482e-08 -2.984131e-07 7.691219e-32)
(-7.012329e-08 -1.580568e-07 0)
(-6.605378e-09 -1.032074e-07 2.98809e-30)
(1.053729e-07 2.834313e-08 -2.150383e-29)
(2.454724e-07 2.433912e-07 -2.403422e-29)
(3.96673e-07 5.544284e-07 0)
(5.427499e-07 9.695124e-07 -5.658574e-31)
(-4.854797e-08 -3.286519e-07 2.260746e-31)
(-4.852301e-08 -2.499831e-07 0)
(2.318639e-08 -2.593196e-07 1.495134e-30)
(1.40663e-07 -1.923125e-07 1.522196e-30)
(2.789249e-07 -3.927827e-08 1.106293e-30)
(4.177956e-07 2.145088e-07 -5.400262e-31)
(5.498847e-07 5.785687e-07 6.175231e-31)
(-3.80293e-08 -3.629382e-07 0)
(-1.948807e-08 -3.544973e-07 1.812236e-30)
(6.593128e-08 -4.363893e-07 1.494256e-30)
(1.905739e-07 -4.411726e-07 -1.032089e-30)
(3.287204e-07 -3.554713e-07 6.564928e-31)
(4.606083e-07 -1.613241e-07 -6.728161e-31)
(5.793703e-07 1.514621e-07 3.918711e-32)
(-2.420672e-08 -4.031295e-07 0)
(2.177784e-08 -4.771085e-07 4.656809e-31)
(1.29377e-07 -6.4325e-07 -4.561966e-31)
(2.675413e-07 -7.298513e-07 3.517244e-31)
(4.08479e-07 -7.183872e-07 2.202828e-30)
(5.330849e-07 -5.867438e-07 3.006167e-30)
(6.363412e-07 -3.245527e-07 -8.084413e-31)
(-4.779032e-09 -4.517745e-07 0)
(8.241581e-08 -6.259529e-07 0)
(2.240288e-07 -8.932798e-07 -5.749076e-31)
(3.829935e-07 -1.075226e-06 1.179473e-30)
(5.285132e-07 -1.146126e-06 4.040477e-32)
(6.432579e-07 -1.079201e-06 0)
(7.260684e-07 -8.649522e-07 0)
(2.414065e-08 -5.132226e-07 4.598448e-31)