/*--------------------------------*- C++ -*----------------------------------*\
| =========                 |                                                 |
| \\      /  F ield         | OpenFOAM: The Open Source CFD Toolbox           |
|  \\    /   O peration     | Version:  2206                                  |
|   \\  /    A nd           | Website:  www.openfoam.com                      |
|    \\/     M anipulation  |                                                 |
\*---------------------------------------------------------------------------*/
FoamFile
{
    version     2.0;
    format      ascii;
    arch        "LSB;label=32;scalar=64";
    class       volVectorField;
    location    "2.8";
    object      U.b;
}
// * * * * * * * * * * * * * * * * * * * * * * * * * * * * * * * * * * * * * //

dimensions      [0 1 -1 0 0 0 0];

internalField   nonuniform List<vector> 
13078
(
(-7.924398e-06 6.395671e-05 -8.531087e-27)
(-2.792245e-06 7.523035e-05 6.1196e-30)
(-2.059968e-06 4.095886e-05 4.278068e-27)
(-1.898908e-06 1.840286e-05 0)
(-1.846032e-06 5.670473e-06 5.846594e-28)
(-1.900253e-06 4.879827e-07 3.668866e-28)
(-2.030537e-06 -3.141502e-06 2.100451e-28)
(3.318742e-05 8.598645e-06 0)
(9.727978e-06 5.816143e-05 -4.117114e-29)
(4.414979e-06 3.828914e-05 0)
(2.503434e-08 1.654806e-05 0)
(-1.9046e-07 6.040924e-06 -2.052633e-30)
(-4.642407e-07 6.81e-07 -5.228409e-31)
(-8.735603e-07 -3.156733e-06 -3.451683e-31)
(9.113523e-05 1.27708e-05 5.638677e-27)
(3.911578e-05 2.911167e-05 -2.974158e-27)
(1.306329e-05 2.111276e-05 -1.02796e-27)
(5.030283e-06 1.197401e-05 -1.455231e-27)
(2.618475e-06 5.238905e-06 -4.921031e-28)
(1.394551e-06 4.735028e-07 0)
(4.872899e-07 -3.319763e-06 1.013227e-33)
(5.116182e-05 7.170703e-06 2.850896e-27)
(2.92194e-05 1.554931e-05 -3.874998e-27)
(1.569148e-05 1.31482e-05 -2.487702e-27)
(8.698679e-06 8.667169e-06 -8.002956e-28)
(5.406709e-06 4.045082e-06 1.505007e-29)
(3.398579e-06 -7.657211e-08 0)
(2.015423e-06 -3.649639e-06 3.401799e-30)
(3.561076e-05 4.539906e-06 5.299787e-30)
(2.531142e-05 9.588015e-06 -1.469847e-27)
(1.71396e-05 8.912846e-06 -2.251804e-27)
(1.152232e-05 6.154909e-06 -1.605981e-27)
(7.813575e-06 2.717035e-06 9.356813e-28)
(5.437826e-06 -8.374893e-07 -2.112345e-32)
(3.673894e-06 -4.155217e-06 -1.042137e-28)
(2.973814e-05 2.954616e-06 0)
(2.401602e-05 6.265835e-06 -1.516641e-29)
(1.831222e-05 6.014499e-06 1.787292e-29)
(1.365796e-05 4.061196e-06 -8.567586e-28)
(1.0147e-05 1.267098e-06 -2.610663e-29)
(7.451949e-06 -1.774235e-06 1.333029e-28)
(5.440559e-06 -4.866999e-06 7.609539e-29)
(2.71911e-05 1.878228e-06 0)
(2.363659e-05 3.929551e-06 -1.225861e-27)
(1.949348e-05 3.686338e-06 -8.739141e-28)
(1.561486e-05 2.147384e-06 1.774053e-28)
(1.230842e-05 -2.498433e-07 -7.437875e-28)
(9.587209e-06 -2.991621e-06 -7.669153e-30)
(7.255676e-06 -5.800541e-06 0)
(2.623269e-05 1.115911e-06 2.538253e-27)
(2.388301e-05 2.166197e-06 -1.196742e-27)
(2.075378e-05 1.717962e-06 -1.07689e-27)
(1.749405e-05 2.714278e-07 0)
(1.441676e-05 -1.881755e-06 -1.586789e-27)
(1.168161e-05 -4.40431e-06 5.138103e-31)
(9.227137e-06 -7.073715e-06 9.023935e-30)
(2.627766e-05 5.545156e-07 8.781743e-33)
(2.462191e-05 7.659379e-07 2.413466e-27)
(2.216788e-05 -2.730644e-08 1.106027e-27)
(1.937376e-05 -1.523199e-06 -3.266806e-30)
(1.651021e-05 -3.600252e-06 -3.454063e-27)
(1.378876e-05 -6.01535e-06 8.536204e-30)
(1.120652e-05 -8.588072e-06 0)
(2.70515e-05 1.077159e-07 -2.578293e-27)
(2.580526e-05 -3.973319e-07 2.492168e-27)
(2.38025e-05 -1.594367e-06 1.166893e-27)
(2.134182e-05 -3.272152e-06 -2.122408e-27)
(1.864404e-05 -5.399823e-06 -3.123962e-31)
(1.593371e-05 -7.805324e-06 0)
(1.323803e-05 -1.035213e-05 0)
(2.842033e-05 -2.630702e-07 0)
(2.742434e-05 -1.40839e-06 0)
(2.570537e-05 -3.046967e-06 2.481088e-27)
(2.346738e-05 -4.998463e-06 -2.284288e-27)
(2.087703e-05 -7.279832e-06 5.340075e-31)
(1.81561e-05 -9.76572e-06 0)
(1.534348e-05 -1.235613e-05 0)
(3.032486e-05 -5.916393e-07 0)
(2.947299e-05 -2.333357e-06 -2.797075e-27)
(2.792262e-05 -4.43813e-06 2.666076e-27)
(2.581409e-05 -6.73138e-06 2.45638e-27)
(2.327038e-05 -9.250722e-06 -2.278426e-27)
(2.050444e-05 -1.189786e-05 0)
(1.755719e-05 -1.460018e-05 1.812672e-27)
(3.273877e-05 -8.998503e-07 0)
(3.196316e-05 -3.219971e-06 -3.026984e-27)
(3.049744e-05 -5.814158e-06 -1.610903e-29)
(2.844034e-05 -8.503535e-06 2.696139e-27)
(2.588613e-05 -1.133204e-05 -2.474306e-27)
(2.303146e-05 -1.421333e-05 2.215897e-27)
(1.992128e-05 -1.70924e-05 1.366038e-30)
(3.566256e-05 -1.202822e-06 -3.356029e-27)
(3.491687e-05 -4.10377e-06 0)
(3.347264e-05 -7.215016e-06 -2.081098e-29)
(3.139555e-05 -1.034768e-05 -2.996647e-29)
(2.878919e-05 -1.35452e-05 -5.451783e-27)
(2.579034e-05 -1.673218e-05 2.455389e-27)
(2.248255e-05 -1.984893e-05 -2.152967e-27)
(3.911567e-05 -1.51157e-06 -3.675314e-27)
(3.836735e-05 -5.013383e-06 0)
(3.690016e-05 -8.682741e-06 -5.109495e-29)
(3.474355e-05 -1.232934e-05 3.737175e-27)
(3.208598e-05 -1.588387e-05 -2.291091e-27)
(2.884533e-05 -1.947038e-05 0)
(2.529282e-05 -2.289125e-05 2.396615e-27)
(4.313122e-05 -1.833757e-06 0)
(4.235387e-05 -5.966268e-06 -3.96202e-27)
(4.08263e-05 -1.02206e-05 0)
(3.859747e-05 -1.43688e-05 3.695359e-27)
(3.572859e-05 -1.848045e-05 1.114133e-28)
(3.22443e-05 -2.247869e-05 1.369739e-28)
(2.840445e-05 -2.625459e-05 2.835145e-27)
(4.775473e-05 -2.177302e-06 0)
(4.692606e-05 -6.987381e-06 -8.764484e-27)
(4.529926e-05 -1.188591e-05 -3.596784e-29)
(4.292241e-05 -1.662922e-05 -5.045786e-29)
(3.982703e-05 -2.129547e-05 0)
(3.605132e-05 -2.578128e-05 0)
(3.187169e-05 -2.997422e-05 0)
(5.304326e-05 -2.54838e-06 -4.963239e-27)
(5.214407e-05 -8.092451e-06 -4.875353e-27)
(5.038666e-05 -1.369406e-05 -8.344751e-29)
(4.78136e-05 -1.909776e-05 -5.827788e-29)
(4.444622e-05 -2.437651e-05 0)
(4.03325e-05 -2.941796e-05 -3.923883e-27)
(3.575219e-05 -3.409245e-05 -4.23851e-28)
(5.906387e-05 -2.952468e-06 -5.522931e-27)
(5.807598e-05 -9.298032e-06 -5.422369e-27)
(5.615823e-05 -1.56715e-05 -1.436584e-28)
(5.334625e-05 -2.180608e-05 -1.335512e-28)
(4.964263e-05 -2.776155e-05 0)
(4.517233e-05 -3.342055e-05 -4.181177e-27)
(4.010665e-05 -3.865805e-05 -2.407253e-28)
(6.589358e-05 -3.395313e-06 -6.16165e-27)
(6.479926e-05 -1.062053e-05 -1.205765e-26)
(6.269462e-05 -1.784665e-05 -5.814839e-27)
(5.961417e-05 -2.480976e-05 0)
(5.551211e-05 -3.158252e-05 1.476037e-27)
(5.074953e-05 -3.776575e-05 2.264751e-27)
(4.50174e-05 -4.370878e-05 5.436737e-28)
(7.361894e-05 -3.88166e-06 -6.887033e-27)
(7.239931e-05 -1.207339e-05 -1.344131e-26)
(7.00774e-05 -2.023231e-05 -1.29241e-26)
(6.669506e-05 -2.806929e-05 -5.994988e-27)
(6.228444e-05 -3.558253e-05 2.192628e-28)
(5.690349e-05 -4.271797e-05 -5.14861e-27)
(5.054252e-05 -4.933614e-05 4.338484e-27)
(8.233758e-05 -4.418092e-06 0)
(8.097261e-05 -1.367677e-05 -7.480095e-27)
(7.840195e-05 -2.287281e-05 -7.188153e-27)
(7.466301e-05 -3.170809e-05 -1.379296e-26)
(6.980675e-05 -4.015195e-05 0)
(6.382845e-05 -4.817594e-05 -5.768323e-27)
(5.678033e-05 -5.558754e-05 7.429011e-30)
(9.21584e-05 -5.009734e-06 8.604196e-27)
(9.062783e-05 -1.54464e-05 0)
(8.777936e-05 -2.578916e-05 0)
(8.364217e-05 -3.572991e-05 2.136566e-28)
(7.826543e-05 -4.52172e-05 7.479546e-27)
(7.160218e-05 -5.420762e-05 0)
(6.385956e-05 -6.250204e-05 -5.848827e-27)
(0.0001032017 -5.662121e-06 1.926399e-26)
(0.0001014838 -1.739816e-05 0)
(9.83282e-05 -2.900817e-05 0)
(9.375559e-05 -4.018046e-05 8.396268e-27)
(8.782503e-05 -5.087809e-05 1.583886e-26)
(8.040149e-05 -6.110319e-05 -7.363575e-27)
(7.208851e-05 -7.005259e-05 0)
(0.0001155992 -6.38064e-06 1.07859e-26)
(0.0001136697 -1.954746e-05 5.981764e-29)
(0.0001101742 -3.255155e-05 1.026644e-26)
(0.0001051201 -4.506682e-05 2.760415e-28)
(9.859468e-05 -5.700847e-05 3.595575e-28)
(9.060313e-05 -6.825296e-05 -8.296798e-27)
(8.114963e-05 -7.868898e-05 0)
(0.000129495 -7.171111e-06 0)
(0.0001273275 -2.191269e-05 -1.179345e-26)
(0.000123457 -3.6455e-05 1.139053e-26)
(0.0001178731 -5.04676e-05 0)
(0.00011067 -6.385813e-05 -9.378197e-27)
(0.0001018801 -7.646901e-05 1.886429e-27)
(9.136739e-05 -8.825229e-05 1.094149e-27)
(0.0001450463 -8.038663e-06 -1.352076e-26)
(0.0001426152 -2.451048e-05 -1.320827e-26)
(0.0001383315 -4.074415e-05 1.274534e-26)
(0.0001321743 -5.640238e-05 0)
(0.0001242426 -7.138445e-05 -8.754268e-28)
(0.0001145613 -8.551918e-05 -1.443878e-30)
(0.0001029153 -9.877973e-05 1.223105e-27)
(0.0001624198 -8.989033e-06 -1.513904e-26)
(0.0001597137 -2.735013e-05 -1.477621e-26)
(0.0001549641 -4.544694e-05 1.427818e-26)
(0.000148184 -6.291108e-05 0)
(0.0001394704 -7.964669e-05 0)
(0.0001288785 -9.55423e-05 -1.177167e-26)
(0.0001161052 -0.0001107407 1.526607e-28)
(0.0001818036 -1.001215e-05 -1.696823e-26)
(0.0001788177 -3.045155e-05 -1.663767e-26)
(0.0001735372 -5.059979e-05 0)
(0.0001660747 -7.003574e-05 1.437164e-26)
(0.0001564866 -8.865062e-05 -1.086355e-27)
(0.0001448577 -0.0001061975 -2.514761e-26)
(0.0001310796 -0.0001223538 4.515134e-27)
(0.0002033568 -1.118405e-05 -1.894682e-26)
(0.000200249 -3.370497e-05 0)
(0.0001942959 -5.620001e-05 -1.820371e-26)
(0.0001860734 -7.785947e-05 1.658878e-26)
(0.0001755307 -9.863615e-05 -1.603119e-26)
(0.0001627083 -0.0001183518 -2.967154e-26)
(0.0001474364 -0.00013679 -1.339858e-26)
(0.0002275816 -1.229884e-05 0)
(0.0002239043 -3.741935e-05 0)
(0.0002174909 -6.229916e-05 -3.998576e-26)
(0.0002084485 -8.641121e-05 0)
(0.0001969129 -0.0001095768 -3.595899e-26)
(0.000182925 -0.0001316917 -1.667096e-26)
(0.0001663363 -0.0001526985 1.50979e-26)
(0.0002544644 -1.366934e-05 -2.380289e-26)
(0.0002501259 -4.159557e-05 2.290962e-26)
(0.0002435794 -6.856303e-05 2.213086e-26)
(0.000233618 -9.55415e-05 0)
(0.0002209037 -0.0001214509 -2.017014e-26)
(0.0002057215 -0.0001461231 0)
(0.0001877811 -0.0001694786 1.289778e-26)
(0.0002843368 -1.505597e-05 -2.651606e-26)
(0.0002798115 -4.559218e-05 2.592859e-26)
(0.0002721084 -7.604617e-05 7.485765e-26)
(0.0002622436 -0.0001049674 4.864442e-26)
(0.0002479169 -0.0001342196 -2.094129e-26)
(0.0002314464 -0.0001618991 1.969818e-27)
(0.0002119307 -0.0001882051 -2.295971e-27)
(0.0003173674 -1.654261e-05 4.820247e-29)
(0.0003124369 -4.992993e-05 1.50154e-28)
(0.000304571 -8.290201e-05 2.908785e-26)
(0.0002934282 -0.0001155996 5.173465e-26)
(0.000278424 -0.0001478454 -2.89433e-26)
(0.0002606095 -0.000178981 4.342243e-27)
(0.0002395037 -0.0002087063 1.017661e-26)
(0.0003538081 -1.808958e-05 -5.236825e-29)
(0.0003483662 -5.456489e-05 -1.634017e-28)
(0.0003402206 -9.075011e-05 3.036636e-26)
(0.0003280197 -0.0001272127 1.765933e-26)
(0.0003134418 -0.0001613709 -1.822582e-26)
(0.0002940555 -0.0001968703 2.184403e-26)
(0.0002710448 -0.0002307619 0)
(0.0003937569 -1.958827e-05 0)
(0.0003877926 -5.903657e-05 0)
(0.0003795582 -9.816053e-05 3.51461e-26)
(0.0003678361 -0.0001374534 3.70954e-26)
(0.0003515678 -0.000177457 5.17076e-26)
(0.000333159 -0.0002148318 4.931688e-26)
(0.000307344 -0.0002542194 0)
(0.0004371396 -2.095902e-05 -1.192718e-28)
(0.0004306239 -6.317184e-05 3.618217e-28)
(0.0004223394 -0.0001052413 1.248877e-27)
(0.0004109718 -0.000147652 0)
(0.0003955318 -0.0001906283 7.26111e-26)
(0.0003757822 -0.0002345037 -5.587746e-27)
(0.0003497958 -0.0002787702 -1.341087e-26)
(0.0004835815 -2.203535e-05 -4.505363e-26)
(0.0004765236 -6.653224e-05 3.919166e-28)
(0.0004685152 -0.0001113924 -4.348295e-26)
(0.0004580145 -0.0001574115 0)
(0.000443873 -0.0002051729 4.568259e-26)
(0.0004240617 -0.0002557354 9.692113e-28)
(0.0004017644 -0.000303091 -6.775557e-26)
(0.0005321965 -2.261821e-05 -4.965881e-26)
(0.0005250376 -6.856412e-05 -4.853575e-26)
(0.0005178875 -0.0001158619 -4.818788e-26)
(0.0005091962 -0.0001651085 -3.867645e-27)
(0.0004977469 -0.0002167888 -1.024275e-26)
(0.0004814971 -0.0002711291 2.48655e-26)
(0.0004600803 -0.0003288168 -3.109944e-26)
(0.0005817803 -2.274624e-05 0)
(0.0005755147 -6.856407e-05 5.268951e-26)
(0.0005702153 -0.0001177407 5.304433e-26)
(0.0005643162 -0.0001699799 1.996595e-27)
(0.0005570463 -0.0002259915 -5.677195e-26)
(0.0005460678 -0.000287003 -6.770363e-27)
(0.0005277866 -0.0003549131 0)
(0.0006315832 -2.175045e-05 5.928597e-26)
(0.0006259903 -6.761013e-05 1.143994e-25)
(0.0006245743 -0.0001154438 5.352347e-26)
(0.0006231268 -0.00016971 1.157153e-25)
(0.0006215363 -0.0002289878 -6.300741e-26)
(0.00061875 -0.0002944614 5.022666e-26)
(0.0006096318 -0.0003681633 1.686261e-26)
(0.000678917 -2.000082e-05 6.370663e-26)
(0.0006765785 -6.272721e-05 -3.576783e-28)
(0.0006774248 -0.0001104526 0)
(0.0006840865 -0.0001616399 1.663732e-27)
(0.0006903357 -0.000223064 1.280996e-25)
(0.0006957454 -0.0002938847 1.290986e-25)
(0.0006898923 -0.000380483 8.843446e-31)
(0.00072181 -1.725136e-05 -6.788514e-26)
(0.0007233697 -5.490443e-05 5.83586e-28)
(0.0007298463 -9.773636e-05 1.087409e-27)
(0.0007412606 -0.00014785 -1.473549e-25)
(0.0007589547 -0.0002054824 2.653357e-25)
(0.0007664974 -0.0002872763 2.135676e-25)
(0.0007530445 -0.0003959469 8.721528e-26)
(0.0007576733 -1.333907e-05 -7.133561e-26)
(0.00076442 -4.349046e-05 0)
(0.0007761626 -7.892121e-05 1.605804e-27)
(0.0007967298 -0.0001231975 7.784345e-26)
(0.0008122007 -0.000188627 1.736685e-25)
(0.0008163744 -0.0002836804 1.936937e-25)
(0.0007937453 -0.0004232158 7.33782e-26)
(0.0007844766 -8.316029e-06 0)
(0.0007965828 -2.784661e-05 4.312698e-28)
(0.0008134254 -5.341266e-05 9.748714e-28)
(0.0008381896 -9.677409e-05 7.767244e-26)
(0.0008479381 -0.0001760782 3.083258e-27)
(0.0008346061 -0.0002967464 -2.733868e-26)
(0.0008062688 -0.0004480418 -6.85683e-26)
(0.0008002895 -2.041748e-06 0)
(0.0008163473 -8.636189e-06 2.355263e-31)
(0.000835648 -2.528212e-05 3.725218e-31)
(0.0008551427 -7.592191e-05 -1.611371e-25)
(0.0008559069 -0.0001766892 -8.248709e-32)
(0.000833838 -0.0003182106 2.54575e-26)
(0.0007912406 -0.0004978359 4.249071e-26)
(0.0008018674 5.752128e-06 -7.581836e-26)
(0.0008210702 1.257136e-05 -7.8045e-26)
(0.0008372108 -4.412756e-06 5.822182e-31)
(0.0008426824 -6.96321e-05 -1.579148e-25)
(0.0008346511 -0.000186795 1.209794e-26)
(0.0008038709 -0.0003494386 -8.924233e-26)
(0.0007595913 -0.0005438002 1.155675e-25)
(0.000785586 1.483944e-05 -7.442776e-26)
(0.0008038713 3.033965e-05 -1.537626e-25)
(0.0008123184 4.13515e-06 7.73109e-26)
(0.0008081409 -7.740664e-05 1.76344e-27)
(0.0007867572 -0.0002150754 2.12938e-26)
(0.0007476601 -0.000392646 -3.969428e-26)
(0.0006980931 -0.0006071565 1.777041e-25)
(0.000748387 2.214272e-05 -2.189638e-30)
(0.000760334 4.03915e-05 -7.250905e-26)
(0.0007607217 1.857725e-06 7.279311e-26)
(0.0007502405 -9.684029e-05 -8.9257e-31)
(0.0007220838 -0.000250171 -6.836542e-26)
(0.0006762072 -0.0004468083 1.222156e-31)
(0.0006170086 -0.0006797877 -1.65684e-25)
(0.0006886212 2.459175e-05 6.523325e-26)
(0.000691392 4.031854e-05 6.531583e-26)
(0.0006842728 -1.00061e-05 -2.032198e-28)
(0.0006690473 -0.0001241075 -5.003559e-31)
(0.0006376567 -0.0002950917 -6.006965e-26)
(0.000591698 -0.0005100981 -7.582436e-26)
(0.0005336147 -0.0007511104 -3.133026e-26)
(0.0006051264 2.252882e-05 5.816934e-26)
(0.0005999543 2.937884e-05 6.133112e-26)
(0.0005882515 -3.096296e-05 3.619864e-28)
(0.0005687605 -0.0001571699 2.748295e-27)
(0.000535106 -0.0003437412 -1.373813e-26)
(0.0004910756 -0.0005698545 -6.863496e-26)
(0.0004426 -0.0008153485 3.982163e-26)
(0.0004968602 1.519318e-05 2.016015e-31)
(0.0004887802 1.180981e-05 -6.878367e-31)
(0.0004758513 -5.674014e-05 9.230125e-28)
(0.0004509155 -0.0001953929 5.575836e-26)
(0.0004169055 -0.0003936739 -1.956428e-26)
(0.0003771281 -0.0006254585 2.435685e-29)
(0.0003375274 -0.0008768497 5.552245e-29)
(0.0003680221 7.926447e-06 -3.010093e-33)
(0.0003601275 -6.075937e-06 -7.742357e-31)
(0.0003464922 -8.586891e-05 1.640614e-26)
(0.0003234073 -0.0002343127 2.99426e-26)
(0.0002946343 -0.0004363105 -1.352089e-26)
(0.0002642754 -0.0006730695 1.502689e-26)
(0.0002313602 -0.0009370563 -1.096909e-25)
(0.0002252563 9.045801e-07 -2.473941e-32)
(0.0002186886 -2.342069e-05 1.395393e-29)
(0.0002071928 -0.0001108722 4.554737e-28)
(0.0001913791 -0.0002663965 -2.927847e-32)
(0.0001740569 -0.0004724389 1.719078e-26)
(0.0001575449 -0.000715117 1.436392e-26)
(0.0001338546 -0.0009865384 5.105686e-26)
(7.609256e-05 -5.248879e-06 -3.464034e-27)
(7.13144e-05 -3.847031e-05 2.936796e-28)
(6.420566e-05 -0.0001309831 -4.365059e-27)
(5.692992e-05 -0.0002901144 -5.529119e-27)
(5.24357e-05 -0.0004988181 -7.967615e-27)
(4.932562e-05 -0.0007470355 1.447246e-26)
(3.805383e-05 -0.001028807 1.858986e-26)
(-7.782101e-05 -9.536889e-06 3.373344e-27)
(-7.983997e-05 -4.929776e-05 5.014936e-28)
(-8.088255e-05 -0.0001440236 3.730489e-27)
(-7.821104e-05 -0.0003038841 -5.602668e-27)
(-6.998792e-05 -0.0005138376 -9.595221e-27)
(-6.038901e-05 -0.0007662896 -1.817901e-26)
(-5.697121e-05 -0.001057672 -5.861414e-26)
(-0.0002306823 -1.10255e-05 4.158566e-27)
(-0.0002294021 -5.330706e-05 -3.848292e-27)
(-0.0002241894 -0.0001480939 5.229269e-27)
(-0.0002119631 -0.0003067371 -5.271862e-27)
(-0.0001922386 -0.0005167802 -4.738526e-30)
(-0.000170315 -0.0007718374 1.373605e-26)
(-0.0001500408 -0.001068254 -1.548409e-26)
(-0.0003714683 -9.706532e-06 -8.879279e-27)
(-0.0003676826 -5.035088e-05 -8.730657e-27)
(-0.0003570577 -0.0001432213 1.928395e-26)
(-0.0003372395 -0.0002985419 2.385263e-27)
(-0.0003082372 -0.0005063287 -8.481645e-27)
(-0.0002747798 -0.0007608453 -1.311202e-26)
(-0.0002378346 -0.001056461 1.841386e-26)
(-0.0004958521 -6.366484e-06 -4.724837e-26)
(-0.0004905803 -4.255839e-05 -6.507083e-29)
(-0.0004764711 -0.0001314177 3.416967e-26)
(-0.0004513731 -0.0002809621 2.047929e-27)
(-0.0004149038 -0.0004836278 3.866341e-27)
(-0.0003710716 -0.0007339525 -2.836427e-27)
(-0.0003197049 -0.001024754 -3.625738e-26)
(-0.0006044599 -1.842181e-06 -2.873837e-26)
(-0.0005986107 -3.207547e-05 2.862161e-26)
(-0.0005840454 -0.000115368 5.694956e-26)
(-0.0005550725 -0.0002569265 -7.813838e-30)
(-0.0005132083 -0.000452013 -1.322782e-26)
(-0.0004604681 -0.0006942008 1.1518e-26)
(-0.0003998293 -0.0009799234 -9.562589e-26)
(-0.0006924113 3.247125e-06 -6.717457e-32)
(-0.0006872109 -2.055206e-05 6.460927e-30)
(-0.0006750118 -9.602953e-05 3.281502e-26)
(-0.0006474902 -0.0002280119 8.435881e-27)
(-0.0006053219 -0.000415324 -1.099444e-29)
(-0.0005490825 -0.0006453709 7.334769e-26)
(-0.0004821695 -0.0009126392 1.717028e-25)
(-0.0007551713 8.135444e-06 -7.145623e-26)
(-0.0007524974 -8.45657e-06 -3.578451e-26)
(-0.0007423558 -7.801226e-05 -1.749261e-28)
(-0.00072335 -0.0001993079 -3.215017e-29)
(-0.0006863296 -0.0003717586 4.751372e-27)
(-0.0006324442 -0.0005872748 4.547165e-26)
(-0.0005624553 -0.0008409441 -8.249105e-26)
(-0.0007925557 9.697766e-06 -1.088875e-28)
(-0.0007959147 3.330037e-08 -1.404031e-28)
(-0.0007907424 -6.309395e-05 -9.077553e-33)
(-0.0007802024 -0.0001743795 7.492418e-26)
(-0.0007508188 -0.00033039 -7.286198e-26)
(-0.0007008536 -0.0005274638 6.873825e-26)
(-0.0006295935 -0.0007644077 -1.07504e-25)
(-0.000808909 7.703505e-06 7.625961e-26)
(-0.0008197549 7.330532e-07 2.841899e-28)
(-0.0008209494 -5.337321e-05 -7.777291e-26)
(-0.0008169276 -0.0001524209 7.782378e-26)
(-0.0007960526 -0.0002915407 -7.66849e-26)
(-0.0007521506 -0.0004666124 -7.317241e-26)
(-0.0006864835 -0.0006839491 -1.641819e-29)
(-0.0008075824 2.253486e-06 -7.606598e-26)
(-0.0008231752 -5.638144e-06 7.74015e-26)
(-0.0008303412 -4.901922e-05 -7.817945e-26)
(-0.0008310153 -0.0001345163 -2.557335e-27)
(-0.0008189735 -0.0002597841 -1.507463e-26)
(-0.0007863421 -0.0004124692 -9.41406e-26)
(-0.0007360133 -0.0006024683 -7.129249e-26)
(-0.0007911871 -4.418705e-06 -7.433258e-26)
(-0.0008071375 -1.728774e-05 7.572153e-26)
(-0.0008199803 -5.108892e-05 7.390631e-32)
(-0.0008251061 -0.0001225196 -4.094246e-27)
(-0.000824988 -0.0002294768 -1.029527e-26)
(-0.0008056946 -0.0003685613 -2.621364e-29)
(-0.0007679427 -0.0005350936 -7.377969e-26)
(-0.0007635359 -9.671254e-06 0)
(-0.0007761932 -3.145457e-05 -3.318181e-30)
(-0.0007917936 -6.149652e-05 -4.693212e-31)
(-0.0008061319 -0.0001188711 5.809663e-30)
(-0.000809827 -0.0002126644 -1.634635e-29)
(-0.0008013864 -0.0003326627 -2.452767e-29)
(-0.0007726988 -0.0004783638 -1.422564e-25)
(-0.000727657 -1.365515e-05 0)
(-0.0007369057 -4.302256e-05 -6.806854e-28)
(-0.0007505068 -7.751476e-05 -1.355959e-27)
(-0.0007687535 -0.0001267674 5.304478e-30)
(-0.0007755459 -0.000201633 -7.164453e-26)
(-0.0007718487 -0.0003024881 1.399048e-25)
(-0.000759263 -0.0004256559 4.197878e-27)
(-0.0006863357 -1.648182e-05 -6.420186e-26)
(-0.0006910882 -5.208282e-05 0)
(-0.0007005107 -9.183793e-05 0)
(-0.0007153654 -0.000138223 1.45305e-32)
(-0.0007253843 -0.0002004119 -1.846418e-25)
(-0.0007289474 -0.0002801173 1.491381e-25)
(-0.000722028 -0.0003895169 1.324516e-25)
(-0.0006407987 -1.851469e-05 -5.985634e-26)
(-0.0006417615 -5.778277e-05 -5.695977e-28)
(-0.0006467065 -0.0001008002 -1.037358e-27)
(-0.0006545689 -0.0001490835 -1.030617e-26)
(-0.000665304 -0.0002023378 -1.34266e-25)
(-0.0006688515 -0.0002723671 -4.955223e-26)
(-0.000664547 -0.0003564208 -1.042484e-25)
(-0.0005926329 -1.967061e-05 0)
(-0.0005910505 -6.082508e-05 5.485315e-26)
(-0.0005917605 -0.0001053816 0)
(-0.0005952647 -0.0001521181 -3.128873e-27)
(-0.0005979723 -0.0002062065 -4.332042e-27)
(-0.0005991124 -0.00026731 -6.474891e-26)
(-0.0005948636 -0.0003361556 -7.94454e-26)
(-0.0005436566 -2.011349e-05 0)
(-0.0005402716 -6.187767e-05 -4.97179e-26)
(-0.0005390042 -0.0001046911 4.950513e-26)
(-0.000536894 -0.0001519432 0)
(-0.0005339085 -0.0002029866 -8.444531e-27)
(-0.0005300926 -0.0002572693 2.543953e-26)
(-0.0005203786 -0.0003185626 4.563893e-26)
(-0.0004952214 -2.007267e-05 0)
(-0.0004917206 -6.039693e-05 -1.3597e-25)
(-0.0004879512 -0.0001027891 -6.235282e-29)
(-0.0004828002 -0.0001474306 -9.363271e-26)
(-0.0004764549 -0.0001937431 -8.339044e-27)
(-0.0004665802 -0.0002444836 4.150291e-26)
(-0.0004514143 -0.0002999582 -4.684108e-26)
(-0.0004489235 -1.93033e-05 4.168723e-26)
(-0.0004452066 -5.847922e-05 -4.163253e-26)
(-0.0004404424 -9.844617e-05 1.29302e-29)
(-0.0004338946 -0.000139703 -7.674973e-26)
(-0.0004246052 -0.0001826463 0)
(-0.0004118906 -0.0002274333 0)
(-0.0003954937 -0.0002745851 -5.357337e-26)
(-0.0004052373 -1.830693e-05 3.748596e-26)
(-0.0004016609 -5.549296e-05 -3.726682e-26)
(-0.0003964857 -9.311561e-05 3.617644e-26)
(-0.0003891971 -0.0001310241 3.521908e-26)
(-0.0003783836 -0.0001708094 0)
(-0.0003636189 -0.0002125325 0)
(-0.0003475754 -0.0002521101 -3.882152e-26)
(-0.0003646822 -1.710432e-05 -3.380862e-26)
(-0.0003613199 -5.190508e-05 -3.429114e-26)
(-0.0003562253 -8.655565e-05 -9.538374e-28)
(-0.00034823 -0.0001219794 3.006195e-26)
(-0.0003367398 -0.0001583069 9.947626e-27)
(-0.000322733 -0.0001939892 -4.331254e-26)
(-0.0003041819 -0.0002318085 2.093379e-26)
(-0.000327582 -1.575928e-05 -3.042922e-26)
(-0.0003246002 -4.782021e-05 -2.723581e-28)
(-0.0003193909 -7.998981e-05 9.031124e-28)
(-0.0003112889 -0.0001124153 1.285032e-27)
(-0.0002999458 -0.0001454712 0)
(-0.0002860212 -0.000177948 -2.836252e-26)
(-0.0002679408 -0.0002114833 2.330493e-26)
(-0.0002939253 -1.446726e-05 0)
(-0.0002912789 -4.380138e-05 -4.954395e-28)
(-0.0002861035 -7.344366e-05 -8.435235e-28)
(-0.0002777169 -0.0001035624 5.773844e-26)
(-0.0002676451 -0.0001322529 1.129927e-26)
(-0.0002533248 -0.0001624593 4.069104e-26)
(-0.0002367157 -0.0001918734 1.605406e-26)
(-0.0002636714 -1.312219e-05 -7.327573e-29)
(-0.0002611936 -3.990956e-05 -2.314145e-28)
(-0.0002562336 -6.678754e-05 0)
(-0.0002486676 -9.37763e-05 -6.433653e-29)
(-0.0002380442 -0.0001208105 2.113727e-26)
(-0.0002251026 -0.0001474144 1.978711e-26)
(-0.000209582 -0.0001734578 -4.096175e-27)
(-0.0002365126 -1.189662e-05 2.186262e-26)
(-0.0002341868 -3.630183e-05 -2.196558e-26)
(-0.0002292816 -6.105688e-05 3.803989e-26)
(-0.0002226643 -8.493735e-05 -4.412343e-26)
(-0.0002124509 -0.0001094822 1.757052e-26)
(-0.000200473 -0.0001332111 0)
(-0.0001859705 -0.0001563544 3.720678e-27)
(-0.0002121593 -1.076845e-05 1.970155e-26)
(-0.0002098365 -3.304487e-05 -1.901818e-26)
(-0.0002057584 -5.494547e-05 1.842026e-26)
(-0.0001989444 -7.719469e-05 0)
(-0.0001899027 -9.896792e-05 -1.692592e-26)
(-0.0001788204 -0.0001201647 0)
(-0.0001653969 -0.0001407618 1.450916e-26)
(-0.0001903963 -9.675645e-06 0)
(-0.0001884644 -2.969698e-05 0)
(-0.0001843732 -4.988447e-05 -3.340741e-26)
(-0.0001781794 -6.977992e-05 0)
(-0.0001699632 -8.927225e-05 -3.033823e-26)
(-0.0001597072 -0.0001082987 -1.416121e-26)
(-0.0001472173 -0.0001268448 1.293411e-26)
(-0.0001708987 -8.797132e-06 -1.582126e-26)
(-0.0001692912 -2.675291e-05 0)
(-0.0001654474 -4.501541e-05 -1.473624e-26)
(-0.0001597942 -6.290416e-05 1.477684e-26)
(-0.0001522541 -8.040877e-05 -1.361141e-26)
(-0.0001428094 -9.739868e-05 -2.538138e-26)
(-0.0001312501 -0.0001137188 -1.156815e-26)
(-0.0001536174 -7.884205e-06 -1.420356e-26)
(-0.0001519914 -2.420287e-05 -1.385808e-26)
(-0.0001485692 -4.058647e-05 0)
(-0.000143409 -5.666497e-05 1.361575e-26)
(-0.0001365176 -7.237533e-05 8.749099e-28)
(-0.0001279145 -8.752437e-05 -2.386427e-26)
(-0.0001174426 -0.0001018534 -3.724005e-27)
(-0.0001381118 -7.093442e-06 -1.280076e-26)
(-0.0001366049 -2.178949e-05 -1.252785e-26)
(-0.0001334989 -3.654041e-05 1.215435e-26)
(-0.0001287734 -5.101902e-05 0)
(-0.0001224696 -6.517241e-05 0)
(-0.0001145855 -7.891875e-05 -1.02352e-26)
(-0.0001048026 -9.239354e-05 1.783434e-26)
(-0.0001242281 -6.362473e-06 -1.15196e-26)
(-0.0001228473 -1.959073e-05 -1.128497e-26)
(-0.0001200132 -3.286388e-05 1.093627e-26)
(-0.000115681 -4.587988e-05 0)
(-0.0001098949 -5.85804e-05 7.130484e-28)
(-0.0001026317 -7.083239e-05 1.263364e-30)
(-9.367061e-05 -8.263054e-05 -1.01778e-27)
(-0.0001117958 -5.696701e-06 0)
(-0.0001105432 -1.758334e-05 -1.016224e-26)
(-0.0001079485 -2.95165e-05 9.858375e-27)
(-0.0001039785 -4.119933e-05 0)
(-9.867601e-05 -5.257861e-05 -9.559551e-27)
(-9.202804e-05 -6.352941e-05 -1.561068e-27)
(-8.388918e-05 -7.402822e-05 -9.152089e-28)
(-0.00010067 -5.089911e-06 9.351483e-27)
(-9.953635e-05 -1.575508e-05 -4.809263e-29)
(-9.716119e-05 -2.646865e-05 8.801094e-27)
(-9.352911e-05 -3.693656e-05 -2.255676e-28)
(-8.868059e-05 -4.711032e-05 -2.820916e-28)
(-8.258251e-05 -5.689173e-05 -7.428986e-27)
(-7.521587e-05 -6.62046e-05 0)
(-9.071917e-05 -4.537015e-06 1.686631e-26)
(-8.969424e-05 -1.408986e-05 0)
(-8.75216e-05 -2.369589e-05 0)
(-8.420034e-05 -3.307153e-05 7.878387e-27)
(-7.975179e-05 -4.220697e-05 1.472753e-26)
(-7.402908e-05 -5.111117e-05 -6.668831e-27)
(-6.752814e-05 -5.911365e-05 0)
(-8.182667e-05 -4.033025e-06 7.612253e-27)
(-8.090084e-05 -1.2572e-05 -3.866746e-29)
(-7.891537e-05 -2.116813e-05 -6.508581e-29)
(-7.587974e-05 -2.953966e-05 -1.859508e-28)
(-7.181125e-05 -3.766392e-05 6.290844e-27)
(-6.664945e-05 -4.551367e-05 0)
(-6.053252e-05 -5.291185e-05 -5.441268e-27)
(-7.388813e-05 -3.573608e-06 -5.420654e-30)
(-7.305319e-05 -1.118919e-05 -6.802473e-27)
(-7.124137e-05 -1.886811e-05 -6.604803e-27)
(-6.847242e-05 -2.63357e-05 -1.252793e-26)
(-6.47685e-05 -3.358538e-05 0)
(-6.010974e-05 -4.060205e-05 -5.360717e-27)
(-5.450397e-05 -4.721271e-05 6.373382e-30)
(-6.681005e-05 -3.154603e-06 -6.22252e-27)
(-6.605772e-05 -9.929301e-06 -1.223687e-26)
(-6.440533e-05 -1.677508e-05 -1.190463e-26)
(-6.187925e-05 -2.342356e-05 -5.814253e-27)
(-5.848816e-05 -2.989145e-05 -1.851291e-28)
(-5.427069e-05 -3.614054e-05 -4.849475e-27)
(-4.9184e-05 -4.204398e-05 4.707947e-27)
(-6.050886e-05 -2.772232e-06 -5.644523e-27)
(-5.983013e-05 -8.780653e-06 -1.108364e-26)
(-5.832006e-05 -1.48735e-05 -5.374005e-27)
(-5.600145e-05 -2.080229e-05 0)
(-5.282062e-05 -2.664815e-05 -1.246624e-27)
(-4.907614e-05 -3.2078e-05 -1.930767e-27)
(-4.446598e-05 -3.737626e-05 -4.685094e-28)
(-5.491034e-05 -2.421708e-06 -5.131796e-27)
(-5.429613e-05 -7.728364e-06 -5.023462e-27)
(-5.291113e-05 -1.312933e-05 1.212858e-28)
(-5.078126e-05 -1.837288e-05 1.133961e-28)
(-4.789883e-05 -2.352968e-05 0)
(-4.435349e-05 -2.849931e-05 -4.049013e-27)
(-4.026735e-05 -3.316979e-05 2.085057e-28)
(-4.994888e-05 -2.099797e-06 -4.672425e-27)
(-4.939034e-05 -6.763208e-06 -4.577771e-27)
(-4.811564e-05 -1.153473e-05 7.094588e-29)
(-4.615789e-05 -1.617101e-05 4.980397e-29)
(-4.352713e-05 -2.075334e-05 0)
(-4.024819e-05 -2.51851e-05 -3.525263e-27)
(-3.654179e-05 -2.935185e-05 3.689397e-28)
(-4.556603e-05 -1.802477e-06 2.720258e-30)
(-4.505336e-05 -5.873663e-06 -8.373784e-27)
(-4.38709e-05 -1.006904e-05 3.08026e-29)
(-4.205731e-05 -1.415416e-05 4.341866e-29)
(-3.963198e-05 -1.821407e-05 0)
(-3.661287e-05 -2.216027e-05 0)
(-3.322146e-05 -2.589436e-05 0)
(-4.171062e-05 -1.526032e-06 0)
(-4.123274e-05 -5.048233e-06 -3.842504e-27)
(-4.012263e-05 -8.713525e-06 0)
(-3.841941e-05 -1.229972e-05 3.484509e-27)
(-3.616907e-05 -1.588407e-05 -9.700408e-29)
(-3.337797e-05 -1.940186e-05 -1.198761e-28)
(-3.025635e-05 -2.275943e-05 2.645493e-27)
(-3.833862e-05 -1.266227e-06 -3.598449e-27)
(-3.788186e-05 -4.276136e-06 0)
(-3.681821e-05 -7.458369e-06 4.457144e-29)
(-3.516971e-05 -1.062287e-05 2.855022e-27)
(-3.308973e-05 -1.372788e-05 -3.699256e-27)
(-3.049021e-05 -1.688039e-05 0)
(-2.759863e-05 -1.991435e-05 2.552998e-27)
(-3.541399e-05 -1.017617e-06 -3.329223e-27)
(-3.496166e-05 -3.539546e-06 0)
(-3.392009e-05 -6.259695e-06 1.843772e-29)
(-3.234078e-05 -8.988781e-06 2.656858e-29)
(-3.029845e-05 -1.178105e-05 -5.643769e-27)
(-2.789634e-05 -1.457691e-05 2.598695e-27)
(-2.520267e-05 -1.73311e-05 -2.346474e-27)
(-3.290904e-05 -7.751768e-07 0)
(-3.244067e-05 -2.827192e-06 -3.038397e-27)
(-3.139204e-05 -5.118288e-06 1.462409e-29)
(-2.983778e-05 -7.467995e-06 2.788715e-27)
(-2.784101e-05 -9.93383e-06 -2.608888e-27)
(-2.555749e-05 -1.245096e-05 2.395798e-27)
(-2.302395e-05 -1.498148e-05 1.241862e-30)
(-3.080501e-05 -5.316473e-07 0)
(-3.029138e-05 -2.119397e-06 -2.855454e-27)
(-2.919322e-05 -4.003155e-06 2.753372e-27)
(-2.761178e-05 -6.008482e-06 2.61522e-27)
(-2.563046e-05 -8.193623e-06 -2.399307e-27)
(-2.342017e-05 -1.048974e-05 5.918137e-29)
(-2.101753e-05 -1.28479e-05 1.988085e-27)
(-2.909538e-05 -2.773635e-07 0)
(-2.84946e-05 -1.392364e-06 0)
(-2.729068e-05 -2.885338e-06 2.592195e-27)
(-2.562515e-05 -4.584748e-06 -2.436396e-27)
(-2.361411e-05 -6.542488e-06 5.235072e-31)
(-2.143933e-05 -8.675572e-06 0)
(-1.914149e-05 -1.091621e-05 0)