/*--------------------------------*- C++ -*----------------------------------*\
| =========                 |                                                 |
| \\      /  F ield         | OpenFOAM: The Open Source CFD Toolbox           |
|  \\    /   O peration     | Version:  2206                                  |
|   \\  /    A nd           | Website:  www.openfoam.com                      |
|    \\/     M anipulation  |                                                 |
\*---------------------------------------------------------------------------*/
FoamFile
{
    version     2.0;
    format      ascii;
    arch        "LSB;label=32;scalar=64";
    class       volVectorField;
    location    "2.8";
    object      U.b_0;
}
// * * * * * * * * * * * * * * * * * * * * * * * * * * * * * * * * * * * * * //

dimensions      [0 1 -1 0 0 0 0];

internalField   nonuniform List<vector> 
13078
(
(-7.097567e-06 6.232726e-05 -8.452375e-27)
(-2.39609e-06 7.370351e-05 5.812173e-30)
(-1.714309e-06 3.896758e-05 4.173831e-27)
(-1.552298e-06 1.586672e-05 0)
(-1.511892e-06 2.632484e-06 5.091591e-28)
(-1.585864e-06 -3.083431e-06 2.782275e-28)
(-1.747742e-06 -7.24927e-06 1.083064e-28)
(3.440664e-05 8.356308e-06 0)
(1.06083e-05 5.711217e-05 -4.168288e-29)
(5.314356e-06 3.648606e-05 0)
(9.655526e-07 1.408812e-05 0)
(7.334952e-07 2.997152e-06 -2.757449e-30)
(3.873781e-07 -2.925535e-06 -8.479079e-31)
(-1.012247e-07 -7.317456e-06 -9.344199e-31)
(9.274964e-05 1.246191e-05 5.712655e-27)
(4.076351e-05 2.81092e-05 -3.049816e-27)
(1.47018e-05 1.938502e-05 -9.851826e-28)
(6.636557e-06 9.521188e-06 -1.334333e-27)
(4.16222e-06 2.134286e-06 -4.144525e-28)
(2.807924e-06 -3.234633e-06 0)
(1.766544e-06 -7.590222e-06 4.109618e-34)
(5.372192e-05 6.81893e-06 2.975507e-27)
(3.173266e-05 1.447727e-05 -4.116599e-27)
(1.811313e-05 1.133813e-05 -2.714124e-27)
(1.099646e-05 6.144021e-06 -9.044288e-28)
(7.581954e-06 8.231847e-07 1.839004e-29)
(5.403384e-06 -3.936827e-06 0)
(3.825763e-06 -8.092149e-06 4.792306e-30)
(3.898708e-05 4.154779e-06 5.001748e-30)
(2.86289e-05 8.428078e-06 -1.633676e-27)
(2.033982e-05 6.981978e-06 -2.56111e-27)
(1.456433e-05 3.471696e-06 -1.903584e-27)
(1.065245e-05 -6.679587e-07 9.76212e-28)
(8.063369e-06 -4.903997e-06 -2.796322e-32)
(6.044496e-06 -8.835677e-06 6.843214e-30)
(3.395413e-05 2.536433e-06 0)
(2.816591e-05 5.010847e-06 -1.322773e-29)
(2.232498e-05 3.937676e-06 1.467367e-29)
(1.747737e-05 1.180979e-06 -1.039533e-27)
(1.372139e-05 -2.368932e-06 -1.473886e-29)
(1.073286e-05 -6.097737e-06 2.786049e-29)
(8.40816e-06 -9.851887e-06 -1.72178e-28)
(3.230948e-05 1.42387e-06 0)
(2.868187e-05 2.566355e-06 -1.472094e-27)
(2.43702e-05 1.427821e-06 -1.164205e-27)
(2.027219e-05 -9.650593e-07 1.021276e-28)
(1.667007e-05 -4.178569e-06 -9.395387e-28)
(1.359906e-05 -7.670294e-06 6.76706e-30)
(1.086018e-05 -1.11574e-05 0)
(3.233826e-05 6.2374e-07 3.138831e-27)
(2.989314e-05 6.759189e-07 -1.490394e-27)
(2.658119e-05 -7.457792e-07 -1.35972e-27)
(2.305648e-05 -3.123e-06 0)
(1.962846e-05 -6.163877e-06 -2.084349e-27)
(1.648063e-05 -9.502716e-06 1.622483e-29)
(1.354985e-05 -1.2912e-05 2.701167e-29)
(3.346053e-05 3.917247e-09 7.987848e-32)
(3.169111e-05 -8.754899e-07 3.10445e-27)
(2.903192e-05 -2.727873e-06 1.447757e-27)
(2.592678e-05 -5.251371e-06 8.21462e-30)
(2.265247e-05 -8.300739e-06 -4.614953e-27)
(1.944836e-05 -1.16099e-05 2.576549e-29)
(1.630838e-05 -1.499226e-05 0)
(3.541849e-05 -4.985234e-07 -3.401385e-27)
(3.405107e-05 -2.208368e-06 3.298572e-27)
(3.180484e-05 -4.576724e-06 1.555945e-27)
(2.898448e-05 -7.388612e-06 -2.855351e-27)
(2.581049e-05 -1.058865e-05 -7.501782e-31)
(2.254036e-05 -1.397945e-05 0)
(1.919725e-05 -1.741809e-05 0)
(3.810585e-05 -9.348467e-07 0)
(3.696814e-05 -3.416528e-06 0)
(3.496858e-05 -6.354899e-06 3.381677e-27)
(3.23163e-05 -9.563966e-06 -3.133905e-27)
(2.917707e-05 -1.3034e-05 1.038662e-30)
(2.581075e-05 -1.66113e-05 0)
(2.225148e-05 -2.018903e-05 0)
(4.147694e-05 -1.339369e-06 0)
(4.046109e-05 -4.568792e-06 -3.871398e-27)
(3.858827e-05 -8.120558e-06 3.703405e-27)
(3.600437e-05 -1.181346e-05 3.418783e-27)
(3.283084e-05 -1.565548e-05 -3.215034e-27)
(2.932404e-05 -1.951647e-05 0)
(2.551971e-05 -2.331629e-05 2.618357e-27)
(4.552766e-05 -1.734818e-06 0)
(4.456327e-05 -5.716214e-06 -4.266655e-27)
(4.272805e-05 -9.92577e-06 -2.873753e-29)
(4.012671e-05 -1.417705e-05 3.818409e-27)
(3.685362e-05 -1.848197e-05 -3.525487e-27)
(3.315037e-05 -2.271801e-05 3.179498e-27)
(2.905987e-05 -2.682082e-05 2.17231e-30)
(5.028328e-05 -2.137534e-06 -4.793238e-27)
(4.932087e-05 -6.898039e-06 0)
(4.745419e-05 -1.181709e-05 -3.490942e-29)
(4.47527e-05 -1.669553e-05 -4.944226e-29)
(4.133558e-05 -2.154336e-05 -7.856583e-27)
(3.736212e-05 -2.624888e-05 3.558004e-27)
(3.293632e-05 -3.073346e-05 -3.141371e-27)
(5.579084e-05 -2.559855e-06 -5.314256e-27)
(5.479453e-05 -8.147325e-06 0)
(5.284702e-05 -1.384649e-05 -8.260756e-29)
(4.99698e-05 -1.945909e-05 5.497146e-27)
(4.642583e-05 -2.483023e-05 -3.241487e-27)
(4.204762e-05 -3.013657e-05 0)
(3.722094e-05 -3.509219e-05 3.522902e-27)
(6.211382e-05 -3.010712e-06 0)
(6.105265e-05 -9.484058e-06 -5.788404e-27)
(5.898139e-05 -1.601219e-05 0)
(5.595846e-05 -2.234396e-05 5.420721e-27)
(5.205322e-05 -2.853048e-05 1.728525e-28)
(4.727583e-05 -3.445433e-05 2.1037e-28)
(4.198853e-05 -3.995248e-05 4.202266e-27)
(6.933203e-05 -3.500371e-06 0)
(6.817835e-05 -1.094181e-05 -1.291513e-26)
(6.593363e-05 -1.839629e-05 -5.587539e-29)
(6.265962e-05 -2.559133e-05 -7.791131e-29)
(5.838464e-05 -3.259203e-05 0)
(5.314101e-05 -3.9242e-05 0)
(4.731849e-05 -4.537104e-05 0)
(7.754125e-05 -4.036893e-06 -7.366456e-27)
(7.627029e-05 -1.254104e-05 -7.237522e-27)
(7.381166e-05 -2.101752e-05 -1.282631e-28)
(7.022173e-05 -2.917821e-05 -8.914274e-29)
(6.551627e-05 -3.708196e-05 0)
(5.974188e-05 -4.455953e-05 -5.858584e-27)
(5.329687e-05 -5.141438e-05 -6.359794e-28)
(8.685149e-05 -4.627784e-06 -8.248456e-27)
(8.543878e-05 -1.430484e-05 -8.099515e-27)
(8.272627e-05 -2.391372e-05 -2.192453e-28)
(7.876194e-05 -3.315096e-05 -2.029926e-28)
(7.353654e-05 -4.205692e-05 0)
(6.720866e-05 -5.045591e-05 -6.272718e-27)
(6.00163e-05 -5.815832e-05 -3.600511e-28)
(9.738754e-05 -5.281219e-06 -9.252199e-27)
(9.580832e-05 -1.625662e-05 -1.810658e-26)
(9.280534e-05 -2.71259e-05 -8.734495e-27)
(8.842576e-05 -3.759126e-05 0)
(8.258714e-05 -4.771477e-05 2.225115e-27)
(7.580497e-05 -5.690195e-05 3.397685e-27)
(6.760025e-05 -6.566489e-05 8.116883e-28)
(0.0001092887 -6.004215e-06 -1.039008e-26)
(0.0001075158 -1.841639e-05 -2.027897e-26)
(0.0001041791 -3.067328e-05 -1.950341e-26)
(9.933772e-05 -4.244032e-05 -9.052118e-27)
(9.302431e-05 -5.367174e-05 3.298392e-28)
(8.530486e-05 -6.428404e-05 -7.794538e-27)
(7.614218e-05 -7.406888e-05 6.58816e-27)
(0.0001227116 -6.806699e-06 0)
(0.0001207157 -2.081476e-05 -1.133204e-26)
(0.0001169994 -3.462341e-05 -1.089248e-26)
(0.0001116156 -4.788537e-05 -2.091045e-26)
(0.0001046235 -6.051429e-05 0)
(9.600193e-05 -7.246406e-05 -8.766043e-27)
(8.579505e-05 -8.344902e-05 1.10933e-29)
(0.0001378304 -7.696402e-06 1.308192e-26)
(0.0001355815 -2.347551e-05 0)
(0.0001314431 -3.900845e-05 0)
(0.000125456 -5.393379e-05 3.218802e-28)
(0.0001176753 -6.813593e-05 1.138296e-26)
(0.000108022 -8.154581e-05 0)
(9.676127e-05 -9.386914e-05 -8.931096e-27)
(0.0001548366 -8.681668e-06 2.938655e-26)
(0.0001523027 -2.642273e-05 0)
(0.0001476991 -4.386935e-05 0)
(0.0001410542 -6.06553e-05 1.282178e-26)
(0.000132435 -7.668865e-05 2.42013e-26)
(0.0001216308 -9.197015e-05 -1.126067e-26)
(0.0001095015 -0.0001052998 0)
(0.0001739392 -9.77057e-06 1.650331e-26)
(0.0001710847 -2.967987e-05 9.062269e-29)
(0.0001659685 -4.923983e-05 1.571176e-26)
(0.0001585983 -6.80628e-05 4.161119e-28)
(0.0001490809 -8.598614e-05 5.408029e-28)
(0.0001374102 -0.0001028254 -1.272273e-26)
(0.0001235682 -0.00011841 0)
(0.0001953656 -1.097151e-05 0)
(0.0001921532 -3.327394e-05 -1.809827e-26)
(0.0001864743 -5.517378e-05 1.748325e-26)
(0.0001783088 -7.627656e-05 0)
(0.0001677701 -9.64084e-05 -1.443046e-26)
(0.000154888 -0.0001153352 2.833907e-27)
(0.0001394539 -0.0001329781 1.639552e-27)
(0.0002193605 -1.229108e-05 -2.079785e-26)
(0.0002157562 -3.722739e-05 -2.032176e-26)
(0.0002094632 -6.170712e-05 1.961419e-26)
(0.0002004431 -8.532512e-05 0)
(0.0001888109 -0.0001078954 -1.319796e-27)
(0.0001745812 -0.0001291613 -2.223077e-30)
(0.0001574412 -0.0001490707 1.836009e-27)
(0.0002461791 -1.373593e-05 -2.334065e-26)
(0.0002421742 -4.154871e-05 -2.278815e-26)
(0.0002351978 -6.887484e-05 2.202656e-26)
(0.0002252599 -9.526146e-05 0)
(0.0002124651 -0.0001205308 0)
(0.0001968666 -0.0001445141 -1.81901e-26)
(0.0001780181 -0.0001674105 7.050538e-28)
(0.0002761018 -1.528684e-05 -2.621362e-26)
(0.0002717027 -4.625796e-05 -2.571111e-26)
(0.0002639604 -7.67183e-05 0)
(0.0002530339 -0.0001061334 2.226137e-26)
(0.000238958 -0.0001343075 -1.642491e-27)
(0.0002218229 -0.0001608659 -3.901172e-26)
(0.0002014624 -0.0001853148 6.804558e-27)
(0.0003093562 -1.705814e-05 -2.932168e-26)
(0.0003048172 -5.117965e-05 0)
(0.0002961173 -8.521472e-05 -2.819155e-26)
(0.0002841128 -0.0001180408 2.573604e-26)
(0.0002686647 -0.0001495556 -2.487764e-26)
(0.000249787 -0.0001794823 -4.609249e-26)
(0.000227206 -0.0002074765 -2.084126e-26)
(0.0003466743 -1.872471e-05 0)
(0.0003413352 -5.67565e-05 0)
(0.000332034 -9.440838e-05 -6.205508e-26)
(0.0003188955 -0.0001309889 0)
(0.0003020547 -0.0001661933 -5.592917e-26)
(0.0002815175 -0.0001998552 -2.596538e-26)
(0.0002570204 -0.0002318712 2.355489e-26)
(0.0003879893 -2.076465e-05 -3.691873e-26)
(0.0003817294 -6.298919e-05 3.557099e-26)
(0.0003723602 -0.0001037765 3.439755e-26)
(0.0003579912 -0.0001447126 0)
(0.0003395216 -0.0001841335 -3.143452e-26)
(0.0003173395 -0.000221773 0)
(0.0002909434 -0.0002574989 2.039353e-26)
(0.0004337388 -2.279668e-05 -4.114605e-26)
(0.0004273037 -6.88658e-05 4.026825e-26)
(0.0004163342 -0.0001148654 1.164142e-25)
(0.0004023382 -0.0001587262 7.574195e-26)
(0.0003816475 -0.0002032479 -3.276667e-26)
(0.0003577578 -0.0002455352 2.983342e-27)
(0.0003292153 -0.0002858901 -3.47813e-27)
(0.0004840856 -2.494799e-05 7.299481e-29)
(0.0004771832 -7.516521e-05 2.267914e-28)
(0.0004661439 -0.0001248511 4.518726e-26)
(0.0004504852 -0.0001743308 8.071651e-26)
(0.0004290954 -0.0002233666 -4.504328e-26)
(0.0004035064 -0.0002709602 6.569201e-27)
(0.0003729115 -0.0003166526 1.541083e-26)
(0.000539309 -2.715654e-05 -7.902534e-29)
(0.0005318178 -8.181432e-05 -2.460816e-28)
(0.0005205692 -0.0001361816 4.724155e-26)
(0.000503582 -0.000191174 2.821203e-26)
(0.0004832815 -0.0002429871 -2.740883e-26)
(0.0004557996 -0.0002971608 3.457668e-26)
(0.0004228117 -0.000349265 0)
(0.0005994462 -2.92577e-05 0)
(0.0005913859 -8.810313e-05 0)
(0.0005802541 -0.0001466262 5.45418e-26)
(0.0005642805 -0.0002056114 5.753147e-26)
(0.0005418506 -0.0002659308 7.947353e-26)
(0.0005165676 -0.0003228175 7.606075e-26)
(0.000479991 -0.0003832603 0)
(0.0006642784 -3.113757e-05 -1.786319e-28)
(0.000655638 -9.378047e-05 5.402751e-28)
(0.0006447026 -0.0001563494 1.865357e-27)
(0.0006296002 -0.0002196131 0)
(0.0006088536 -0.0002839784 1.132158e-25)
(0.0005822644 -0.0003502382 -8.351951e-27)
(0.0005463509 -0.0004178926 -2.010635e-26)
(0.0007331589 -3.255071e-05 -6.941153e-26)
(0.0007239785 -9.819825e-05 5.833067e-28)
(0.0007137302 -0.0001644646 -6.717401e-26)
(0.0007002551 -0.0002325845 0)
(0.0006818579 -0.0003035602 7.070586e-26)
(0.0006556913 -0.0003791542 4.913139e-27)
(0.0006264957 -0.0004510509 -1.005338e-25)
(0.0008047163 -3.320648e-05 -7.627659e-26)
(0.0007956547 -0.0001005517 -7.465281e-26)
(0.0007869243 -0.0001698876 -7.421884e-26)
(0.0007763961 -0.0002421622 -5.696961e-27)
(0.0007623141 -0.0003182546 -1.508418e-26)
(0.0007417993 -0.0003986758 4.040856e-26)
(0.0007147667 -0.0004850549 -4.595191e-26)
(0.0008771524 -3.318657e-05 0)
(0.0008696173 -9.987859e-05 8.081118e-26)
(0.0008637998 -0.0001713952 8.142626e-26)
(0.0008575028 -0.0002474001 2.921369e-27)
(0.0008496997 -0.000329089 -8.718823e-26)
(0.0008370881 -0.00041844 -9.906497e-27)
(0.0008149454 -0.0005185091 0)
(0.0009493846 -3.154456e-05 9.046372e-26)
(0.0009429307 -9.782759e-05 1.749438e-25)
(0.0009428501 -0.0001668552 8.223224e-26)
(0.000943033 -0.0002451662 1.772454e-25)
(0.0009433936 -0.000330814 -9.626497e-26)
(0.0009426137 -0.0004256504 7.792311e-26)
(0.0009337198 -0.000532676 -5.321619e-30)
(0.001017526 -2.883531e-05 9.690302e-26)
(0.001015792 -9.020889e-05 -5.202743e-28)
(0.001018855 -0.0001585844 0)
(0.001030572 -0.0002319252 2.449336e-27)
(0.001041969 -0.0003199386 1.954164e-25)
(0.001052603 -0.0004214092 1.084087e-25)
(0.001048021 -0.0005455209 1.266898e-26)
(0.001078745 -2.473319e-05 -1.029364e-25)
(0.001082591 -7.851737e-05 8.435955e-28)
(0.001093447 -0.0001395967 1.572905e-27)
(0.001111557 -0.0002109114 -2.225186e-25)
(0.001138886 -0.0002929009 4.035896e-25)
(0.001152019 -0.0004091406 -1.841594e-26)
(0.00113566 -0.00056344 -1.313084e-25)
(0.001129345 -1.904832e-05 -1.078636e-25)
(0.001140544 -6.191571e-05 0)
(0.001158567 -0.0001122959 2.32646e-27)
(0.001189126 -0.0001751234 3.804386e-27)
(0.001212702 -0.0002676391 1.921988e-25)
(0.001220289 -0.0004022439 -5.925718e-26)
(0.001189723 -0.0005997394 -1.107338e-25)
(0.001166446 -1.188397e-05 0)
(0.001185141 -3.961042e-05 6.33901e-28)
(0.001210009 -7.593449e-05 1.44762e-27)
(0.001245995 -0.0001374173 -2.61922e-27)
(0.001260513 -0.0002495422 -5.253447e-27)
(0.001242546 -0.0004201483 6.028457e-26)
(0.00120282 -0.0006343123 -9.821959e-26)
(0.001187329 -3.066722e-06 0)
(0.001211396 -1.258427e-05 4.273722e-30)
(0.00123924 -3.64668e-05 6.753733e-30)
(0.001267214 -0.0001084356 1.115338e-29)
(0.001268197 -0.0002509878 -1.492101e-30)
(0.001236639 -0.0004511343 1.164923e-25)
(0.001176325 -0.0007054781 -8.582581e-30)
(0.001187486 7.781783e-06 -1.138404e-25)
(0.001215651 1.68731e-05 1.166355e-25)
(0.001238552 -7.920139e-06 -5.833189e-28)
(0.001246188 -0.0001008442 1.54243e-27)
(0.001234024 -0.0002667561 -2.024317e-30)
(0.001189118 -0.0004967531 1.116382e-25)
(0.001125178 -0.0007716731 2.064412e-25)
(0.001162018 2.027468e-05 -1.11425e-25)
(0.00118855 4.101298e-05 1.144406e-25)
(0.001200133 2.693623e-06 -1.157918e-25)
(0.001193363 -0.0001138046 -3.930138e-32)
(0.001162038 -0.000309048 1.108656e-25)
(0.001104515 -0.0005604249 1.031289e-25)
(0.001032151 -0.0008642247 1.873393e-25)
(0.001106972 3.005997e-05 -1.062201e-25)
(0.001124274 5.378223e-05 7.178824e-30)
(0.001124021 -2.578789e-06 -2.17074e-25)
(0.001107692 -0.0001437066 -4.695536e-27)
(0.001065841 -0.0003613004 1.878407e-25)
(0.000998104 -0.0006401492 2.221472e-30)
(0.0009109183 -0.0009721862 3.66252e-33)
(0.001020466 3.289451e-05 -9.772911e-26)
(0.001024651 5.194996e-05 1.291829e-27)
(0.001013472 -2.189705e-05 3.825428e-29)
(0.0009898308 -0.0001853625 -3.361936e-27)
(0.0009425421 -0.0004284051 8.007268e-26)
(0.0008734241 -0.0007345196 3.190739e-26)
(0.0007840206 -0.001082064 4.811464e-26)
(0.0009011445 2.933277e-05 4.43985e-26)
(0.0008939795 3.461693e-05 -4.510243e-26)
(0.0008762888 -5.438404e-05 8.473446e-26)
(0.0008464249 -0.0002358087 8.043022e-26)
(0.0007952027 -0.000502077 2.12815e-26)
(0.0007268098 -0.0008272132 3.643096e-26)
(0.0006469779 -0.001186301 4.702763e-30)
(0.000747727 1.849707e-05 -3.358202e-28)
(0.0007361544 8.211724e-06 -3.578976e-26)
(0.0007166862 -9.361653e-05 6.211415e-31)
(0.0006791319 -0.0002939084 6.37484e-26)
(0.0006268409 -0.000579741 -2.947592e-26)
(0.000562105 -0.0009185384 1.557685e-25)
(0.0004910845 -0.001289803 2.197326e-25)
(0.0005661909 7.69819e-06 -2.774607e-31)
(0.0005547172 -1.85152e-05 -2.663362e-26)
(0.0005341308 -0.0001368975 -2.438963e-27)
(0.0004991137 -0.0003526318 -2.187816e-26)
(0.0004531743 -0.0006473637 -4.880585e-26)
(0.0003995912 -0.0009983862 -1.733653e-35)
(0.0003381065 -0.001393884 -7.549165e-29)
(0.000365724 -2.517982e-06 -3.473903e-31)
(0.0003563021 -4.395105e-05 -1.713883e-26)
(0.0003390035 -0.0001741089 -1.686305e-26)
(0.0003140048 -0.0004018025 -5.362641e-31)
(0.0002830727 -0.0007059221 1.521052e-26)
(0.0002480649 -0.001068796 1.214841e-26)
(0.0001997451 -0.001477132 -8.443082e-30)
(0.0001562449 -1.117771e-05 -7.410767e-27)
(0.0001495922 -6.536847e-05 6.215636e-27)
(0.0001387103 -0.0002035487 -8.259053e-27)
(0.0001254685 -0.000438473 -9.185106e-27)
(0.0001121771 -0.0007493432 -1.149057e-26)
(9.690103e-05 -0.001122311 -3.068609e-27)
(6.914128e-05 -0.001546564 -1.943949e-27)
(-6.098965e-05 -1.695904e-05 5.960491e-29)
(-6.3779e-05 -7.998415e-05 -3.353648e-27)
(-6.626075e-05 -0.000221823 2.176166e-27)
(-6.580288e-05 -0.0004593131 -3.85017e-27)
(-6.067487e-05 -0.0007737968 -2.024667e-26)
(-5.525819e-05 -0.001153936 -2.377e-26)
(-5.737208e-05 -0.001591578 3.691297e-26)
(-0.0002787097 -1.863385e-05 1.319218e-31)
(-0.0002769474 -8.446896e-05 -1.685917e-27)
(-0.0002707178 -0.0002266003 2.122701e-27)
(-0.0002567321 -0.0004629987 7.801163e-27)
(-0.0002340369 -0.0007773294 2.121003e-26)
(-0.000207575 -0.001159705 1.018312e-29)
(-0.0001807688 -0.001602009 2.984707e-26)
(-0.0004819066 -1.611111e-05 -4.575129e-29)
(-0.0004765669 -7.851125e-05 -8.868039e-28)
(-0.0004625657 -0.0002175641 -1.311125e-26)
(-0.0004372417 -0.0004488558 -2.113398e-27)
(-0.0003995687 -0.0007584285 3.929309e-26)
(-0.0003538034 -0.001137111 3.105757e-26)
(-0.0002997725 -0.00157437 6.276069e-26)
(-0.0006652974 -1.056051e-05 3.197559e-26)
(-0.0006577289 -6.519145e-05 1.036841e-28)
(-0.0006382445 -0.0001977339 -1.546091e-26)
(-0.0006043882 -0.000419921 -2.942307e-26)
(-0.0005544965 -0.0007202282 1.16786e-31)
(-0.0004920869 -0.001089689 1.222088e-26)
(-0.0004156902 -0.001515938 -2.704376e-29)
(-0.0008295062 -3.1688e-06 3.983133e-26)
(-0.0008208817 -4.758319e-05 -1.863134e-31)
(-0.0007998406 -0.0001710194 -3.872192e-26)
(-0.0007592297 -0.000380791 -3.101108e-26)
(-0.0007002489 -0.0006683453 -5.824531e-26)
(-0.0006241547 -0.001023266 -3.794692e-26)
(-0.0005346333 -0.001438127 2.361066e-25)
(-0.0009671731 5.194022e-06 -1.222083e-30)
(-0.0009593501 -2.810246e-05 -4.615955e-26)
(-0.0009410676 -0.0001391828 -4.189826e-26)
(-0.0009011275 -0.0003341122 9.734378e-28)
(-0.0008405752 -0.0006090525 8.557246e-28)
(-0.0007592185 -0.0009445015 3.920669e-30)
(-0.00066093 -0.00132955 1.02218e-25)
(-0.001071412 1.335813e-05 -5.012626e-30)
(-0.001067553 -7.753952e-06 -5.130288e-26)
(-0.001051715 -0.0001085815 2.081466e-29)
(-0.001022482 -0.0002872062 1.026155e-25)
(-0.0009679772 -0.000540113 1.023672e-25)
(-0.0008897454 -0.0008537017 9.683676e-31)
(-0.0007881759 -0.001218571 3.173416e-26)
(-0.001140647 1.628526e-05 -6.321316e-30)
(-0.001145991 6.592517e-06 8.220058e-30)
(-0.001137293 -8.338787e-05 -1.638684e-31)
(-0.001118901 -0.0002466967 2.154928e-25)
(-0.001073704 -0.0004759036 1.183236e-25)
(-0.001000273 -0.0007634726 2.59272e-26)
(-0.0008970729 -0.001104736 1.223697e-27)
(-0.001179621 1.381518e-05 -1.127854e-25)
(-0.001196057 8.71458e-06 4.311372e-28)
(-0.001197106 -6.690825e-05 -2.219382e-28)
(-0.001187775 -0.0002115082 1.139083e-25)
(-0.001153159 -0.0004163392 1.110414e-25)
(-0.001087008 -0.0006732354 1.048376e-25)
(-0.0009923973 -0.0009876235 -9.491393e-26)
(-0.001192028 5.898319e-06 -2.277173e-25)
(-0.001215502 -4.24941e-07 1.160935e-25)
(-0.001226181 -5.970319e-05 -1.311926e-30)
(-0.001224747 -0.0001835172 4.502592e-27)
(-0.001202783 -0.0003682279 -6.458783e-27)
(-0.001150987 -0.0005943527 7.673265e-26)
(-0.001077048 -0.0008718236 -1.601372e-25)
(-0.001180799 -4.022865e-06 -1.126713e-25)
(-0.001204976 -1.812048e-05 -1.579754e-29)
(-0.001224688 -6.337302e-05 1.331479e-30)
(-0.001232232 -0.0001659101 -3.127414e-29)
(-0.001228366 -0.0003237391 2.572948e-29)
(-0.001194306 -0.0005306675 -1.139241e-25)
(-0.001135352 -0.0007765686 -5.680398e-26)
(-0.001151051 -1.215809e-05 0)
(-0.001170673 -3.995584e-05 -1.114328e-25)
(-0.001194841 -8.034292e-05 -8.455161e-30)
(-0.001217551 -0.0001619654 1.151302e-25)
(-0.001221846 -0.0003000342 -1.153714e-25)
(-0.001203403 -0.0004792374 -1.139075e-25)
(-0.001154967 -0.0006977936 -2.102686e-25)
(-0.001107146 -1.847262e-05 0)
(-0.001121853 -5.845074e-05 -9.750004e-28)
(-0.001143406 -0.0001061718 -1.981308e-27)
(-0.001172407 -0.0001759289 1.138185e-25)
(-0.00118399 -0.0002856875 -1.056512e-25)
(-0.001175824 -0.0004376933 2.150911e-25)
(-0.001149438 -0.0006234006 -1.649493e-25)
(-0.001053137 -2.318431e-05 -1.002143e-25)
(-0.001061254 -7.332936e-05 0)
(-0.001076848 -0.0001297783 0)
(-0.001101064 -0.0001963612 2.608268e-31)
(-0.001118941 -0.0002872016 1.937847e-26)
(-0.001125174 -0.0004079938 2.174153e-25)
(-0.0011094 -0.0005747623 -2.204403e-26)
(-0.0009909952 -2.674541e-05 -9.421267e-26)
(-0.0009934631 -8.341834e-05 -8.554439e-28)
(-0.001002525 -0.0001457505 -1.561719e-27)
(-0.001016677 -0.0002161778 -1.540283e-26)
(-0.001035915 -0.0002948216 -1.024347e-26)
(-0.001044322 -0.0003998793 7.135028e-29)
(-0.001036966 -0.0005302278 -2.231957e-26)
(-0.0009232088 -2.90178e-05 0)
(-0.0009217819 -8.959906e-05 8.715694e-26)
(-0.0009245537 -0.00015529 0)
(-0.0009322745 -0.0002246894 -4.776021e-27)
(-0.0009393353 -0.0003055412 -6.635444e-27)
(-0.0009446351 -0.000397623 -1.670172e-26)
(-0.0009414141 -0.0005037299 6.402834e-26)
(-0.0008526195 -3.020066e-05 0)
(-0.0008483335 -9.273971e-05 -7.958915e-26)
(-0.0008480005 -0.0001569692 7.944888e-26)
(-0.0008470071 -0.0002281735 0)
(-0.0008452263 -0.0003055967 -1.307167e-26)
(-0.0008428305 -0.0003886696 4.298284e-26)
(-0.000832102 -0.0004833343 7.479421e-26)
(-0.0007814078 -3.059873e-05 0)
(-0.0007767296 -9.194355e-05 -2.190801e-25)
(-0.0007722462 -0.0001565075 -9.868838e-29)
(-0.0007662544 -0.0002247563 -1.514857e-25)
(-0.0007589443 -0.0002960615 -1.307778e-26)
(-0.0007465648 -0.0003748202 6.802771e-26)
(-0.0007266903 -0.0004618462 -7.353011e-26)
(-0.0007121558 -2.982708e-05 6.745236e-26)
(-0.0007068511 -9.02299e-05 -6.744505e-26)
(-0.0007004461 -0.0001519213 2.019692e-29)
(-0.0006918606 -0.0002158391 -1.251842e-25)
(-0.0006793636 -0.0002827445 0)
(-0.0006618447 -0.0003529672 0)
(-0.0006391204 -0.000427865 -8.993444e-26)
(-0.0006457579 -2.862596e-05 6.096007e-26)
(-0.0006403781 -8.662518e-05 -6.067362e-26)
(-0.0006329618 -0.0001453687 5.902511e-26)
(-0.0006227079 -0.0002047656 5.763741e-26)
(-0.0006071952 -0.0002673433 0)
(-0.0005857432 -0.0003332995 0)
(-0.0005624486 -0.0003965468 -6.401604e-26)
(-0.0005832046 -2.70251e-05 -5.519845e-26)
(-0.0005779152 -8.183286e-05 -5.602901e-26)
(-0.000570293 -0.0001364484 -1.539422e-27)
(-0.000558442 -0.0001924193 4.938052e-26)
(-0.0005413369 -0.0002499368 1.600134e-26)
(-0.0005204517 -0.0003067076 -7.225904e-26)
(-0.0004920681 -0.0003671742 3.506837e-26)
(-0.0005252062 -2.51272e-05 -4.982431e-26)
(-0.0005203254 -7.603471e-05 -4.428857e-28)
(-0.0005122347 -0.0001271041 1.465991e-27)
(-0.0004998476 -0.0001786431 2.083225e-27)
(-0.0004825446 -0.0002312612 0)
(-0.0004611101 -0.0002830976 -4.678695e-26)
(-0.0004328274 -0.0003366494 3.866214e-26)
(-0.0004719419 -2.325382e-05 0)
(-0.000467444 -7.015162e-05 -8.09294e-28)
(-0.000459185 -0.0001174652 -1.374975e-27)
(-0.0004460806 -0.0001655457 9.484298e-26)
(-0.0004304148 -0.000211364 1.832392e-26)
(-0.0004078536 -0.0002595983 6.732336e-26)
(-0.0003815411 -0.0003064402 2.673453e-26)
(-0.0004235357 -2.12355e-05 -1.209386e-28)
(-0.0004192031 -6.428906e-05 -3.792408e-28)
(-0.0004111364 -0.0001073388 0)
(-0.0003991386 -0.0001505419 -1.05052e-28)
(-0.0003822505 -0.0001937799 3.479439e-26)
(-0.0003616203 -0.0002362113 3.259824e-26)
(-0.0003368075 -0.0002775478 -6.61656e-27)
(-0.0003796671 -1.93598e-05 3.585664e-26)
(-0.0003755195 -5.874549e-05 -3.60363e-26)
(-0.000367436 -9.850103e-05 6.244311e-26)
(-0.000356778 -0.0001367813 -7.23862e-26)
(-0.0003403455 -0.0001760209 2.886791e-26)
(-0.0003210994 -0.0002137693 0)
(-0.0002977802 -0.0002503489 5.998944e-27)
(-0.0003400167 -1.759804e-05 3.225938e-26)
(-0.0003358494 -5.364198e-05 -3.113896e-26)
(-0.0003290304 -8.884817e-05 3.015893e-26)
(-0.0003179278 -0.0001245237 0)
(-0.0003032812 -0.000159274 -2.768916e-26)
(-0.0002853796 -0.000192895 0)
(-0.0002637311 -0.0002253061 2.368539e-26)
(-0.0003043698 -1.585226e-05 0)
(-0.000300839 -4.828575e-05 0)
(-0.0002939527 -8.074887e-05 -5.451724e-26)
(-0.0002837865 -0.0001126181 0)
(-0.0002704217 -0.0001436546 -4.941486e-26)
(-0.0002538118 -0.0001737292 -2.303042e-26)
(-0.0002336598 -0.0002027775 2.099325e-26)
(-0.0002722944 -1.443614e-05 -2.574515e-26)
(-0.0002693095 -4.352882e-05 0)
(-0.0002628126 -7.286701e-05 -2.394911e-26)
(-0.0002535012 -0.0001014646 2.398781e-26)
(-0.0002412155 -0.0001292531 -2.206074e-26)
(-0.0002259162 -0.0001560027 -4.105181e-26)
(-0.0002072993 -0.000181432 -1.866297e-26)
(-0.0002437863 -1.294232e-05 -2.301418e-26)
(-0.000240801 -3.936025e-05 -2.244138e-26)
(-0.0002350051 -6.562944e-05 0)
(-0.0002265023 -9.126731e-05 2.199427e-26)
(-0.000215281 -0.0001161235 1.407728e-27)
(-0.000201369 -0.0001398791 -3.836693e-26)
(-0.0001845579 -0.0001621088 -5.919116e-27)
(-0.0002181801 -1.164128e-05 -2.064137e-26)
(-0.0002154246 -3.539239e-05 -2.018652e-26)
(-0.0002101749 -5.898258e-05 1.955974e-26)
(-0.0002024086 -8.20008e-05 0)
(-0.0001921763 -0.0001043129 0)
(-0.0001794765 -0.0001257796 -1.636224e-26)
(-0.0001638583 -0.0001465873 2.832204e-26)
(-0.0001952519 -1.043354e-05 -1.84752e-26)
(-0.0001927441 -3.176493e-05 -1.808376e-26)
(-0.0001879784 -5.292975e-05 1.750032e-26)
(-0.000180894 -7.355893e-05 0)
(-0.0001715524 -9.351053e-05 1.138148e-27)
(-0.000159923 -0.0001125685 2.007392e-30)
(-0.0001456934 -0.0001307006 -1.603563e-27)
(-0.0001747398 -9.332841e-06 0)
(-0.0001724841 -2.845315e-05 -1.618759e-26)
(-0.0001681529 -4.74235e-05 1.568041e-26)
(-0.0001617046 -6.588445e-05 0)
(-0.0001532016 -8.37036e-05 -1.514326e-26)
(-0.0001426308 -0.0001006824 -2.466721e-27)
(-0.0001297787 -0.0001167669 -1.436336e-27)
(-0.0001564121 -8.331764e-06 1.481545e-26)
(-0.0001543909 -2.54445e-05 -7.755056e-29)
(-0.0001504608 -4.242558e-05 1.3907e-26)
(-0.0001446075 -5.892121e-05 -3.594747e-28)
(-0.0001368911 -7.480783e-05 -4.469278e-28)
(-0.0001272683 -8.992917e-05 -1.165639e-26)
(-0.0001157002 -0.0001041542 0)
(-0.0001400516 -7.423535e-06 2.654012e-26)
(-0.000138244 -2.271649e-05 0)
(-0.0001346833 -3.790027e-05 0)
(-0.0001293762 -5.263847e-05 1.234555e-26)
(-0.0001223524 -6.686818e-05 2.301841e-26)
(-0.0001133928 -8.059669e-05 -1.039179e-26)
(-0.0001032378 -9.277353e-05 0)
(-0.0001254611 -6.60053e-06 1.189165e-26)
(-0.0001238466 -2.024464e-05 -6.202521e-29)
(-0.0001206253 -3.379919e-05 -1.037018e-28)
(-0.0001158182 -4.69309e-05 -2.946594e-28)
(-0.0001094485 -5.955533e-05 9.753398e-27)
(-0.0001014252 -7.161996e-05 0)
(-9.194346e-05 -8.285639e-05 -8.386333e-27)
(-0.0001124613 -5.855729e-06 -8.878013e-30)
(-0.0001110217 -1.800861e-05 -1.053609e-26)
(-0.000108113 -3.009308e-05 -1.0214e-26)
(-0.00010377 -4.178701e-05 -1.933068e-26)
(-9.80231e-05 -5.303016e-05 0)
(-9.083666e-05 -6.37898e-05 -8.226009e-27)
(-8.221279e-05 -7.380337e-05 9.870769e-30)
(-0.00010089 -5.182198e-06 -9.564889e-27)
(-9.960773e-05 -1.598821e-05 -1.879137e-26)
(-9.698439e-05 -2.674732e-05 -1.825498e-26)
(-9.306307e-05 -3.714736e-05 -8.904355e-27)
(-8.785325e-05 -4.716268e-05 -2.907082e-28)
(-8.140167e-05 -5.67263e-05 -7.379421e-27)
(-7.364091e-05 -6.564529e-05 7.148486e-27)
(-9.060079e-05 -4.573604e-06 -8.599152e-27)
(-8.945792e-05 -1.416382e-05 -1.686669e-26)
(-8.708891e-05 -2.37354e-05 -8.165464e-27)
(-8.352898e-05 -3.300715e-05 0)
(-7.86897e-05 -4.204979e-05 -1.961746e-27)
(-7.301761e-05 -5.034351e-05 -3.012118e-27)
(-6.604974e-05 -5.832786e-05 -7.242671e-28)
(-8.146277e-05 -4.021928e-06 -7.742733e-27)
(-8.044217e-05 -1.251049e-05 -7.568834e-27)
(-7.82978e-05 -2.100092e-05 1.934784e-28)
(-7.506772e-05 -2.920625e-05 1.797106e-28)
(-7.073299e-05 -3.717834e-05 0)
(-6.541643e-05 -4.476085e-05 -6.050437e-27)
(-5.930415e-05 -5.178023e-05 3.223905e-28)
(-7.335958e-05 -3.521735e-06 -6.97503e-27)
(-7.244563e-05 -1.101262e-05 -6.823975e-27)
(-7.05014e-05 -1.852971e-05 1.137547e-28)
(-6.757348e-05 -2.579825e-05 7.928332e-29)
(-6.366671e-05 -3.288591e-05 0)
(-5.88057e-05 -3.96417e-05 -5.200094e-27)
(-5.332405e-05 -4.588736e-05 5.714457e-28)
(-6.618689e-05 -3.066649e-06 4.644019e-30)
(-6.536369e-05 -9.651891e-06 -1.233829e-26)
(-6.359164e-05 -1.628887e-05 4.98234e-29)
(-6.092269e-05 -2.271552e-05 6.964672e-29)
(-5.737336e-05 -2.90043e-05 0)
(-5.295685e-05 -3.501609e-05 0)
(-4.800251e-05 -4.059743e-05 0)
(-5.985227e-05 -2.650984e-06 0)
(-5.910339e-05 -8.410475e-06 -5.589803e-27)
(-5.747487e-05 -1.42487e-05 0)
(-5.501506e-05 -1.992123e-05 5.042731e-27)
(-5.177803e-05 -2.548762e-05 -1.557186e-28)
(-4.775687e-05 -3.08444e-05 -1.900104e-28)
(-4.325921e-05 -3.584639e-05 3.795693e-27)
(-5.427459e-05 -2.26869e-06 -5.166479e-27)
(-5.358117e-05 -7.273021e-06 0)
(-5.205988e-05 -1.239606e-05 7.470781e-29)
(-4.972525e-05 -1.744011e-05 3.985341e-27)
(-4.68023e-05 -2.228163e-05 -5.420355e-27)
(-4.312146e-05 -2.707774e-05 0)
(-3.901951e-05 -3.157821e-05 3.633485e-27)
(-4.938492e-05 -1.912072e-06 -4.704292e-27)
(-4.872588e-05 -6.213461e-06 0)
(-4.728214e-05 -1.066347e-05 3.193032e-29)
(-4.510886e-05 -1.506291e-05 4.520682e-29)
(-4.229618e-05 -1.943396e-05 -7.94721e-27)
(-3.89687e-05 -2.368224e-05 3.655677e-27)
(-3.521405e-05 -2.774449e-05 -3.295065e-27)
(-4.512642e-05 -1.574886e-06 0)
(-4.447809e-05 -5.218099e-06 -4.209816e-27)
(-4.307804e-05 -9.056444e-06 2.67214e-29)
(-4.100666e-05 -1.290209e-05 3.86308e-27)
(-3.832774e-05 -1.67818e-05 -3.615829e-27)
(-3.523963e-05 -2.0596e-05 3.319688e-27)
(-3.177704e-05 -2.429789e-05 2.014144e-30)
(-4.145395e-05 -1.248624e-06 0)
(-4.078396e-05 -4.263057e-06 -3.883044e-27)
(-3.937943e-05 -7.53457e-06 3.745805e-27)
(-3.734707e-05 -1.088222e-05 3.566271e-27)
(-3.476923e-05 -1.433568e-05 -3.258677e-27)
(-3.185781e-05 -1.779539e-05 1.040638e-28)
(-2.864446e-05 -2.120525e-05 2.710415e-27)
(-3.833719e-05 -9.223785e-07 0)
(-3.760097e-05 -3.3209e-06 0)
(-3.613084e-05 -6.062712e-06 3.453343e-27)
(-3.407333e-05 -8.970336e-06 -3.249201e-27)
(-3.154376e-05 -1.206972e-05 1.008229e-30)
(-2.875986e-05 -1.525055e-05 0)
(-2.575758e-05 -1.84386e-05 0)
(-3.576469e-05 -5.815558e-07 -3.426294e-27)
(-3.489661e-05 -2.356721e-06 3.349405e-27)
(-3.327944e-05 -4.60144e-06 1.591045e-27)