/*--------------------------------*- C++ -*----------------------------------*\
| =========                 |                                                 |
| \\      /  F ield         | OpenFOAM: The Open Source CFD Toolbox           |
|  \\    /   O peration     | Version:  2206                                  |
|   \\  /    A nd           | Website:  www.openfoam.com                      |
|    \\/     M anipulation  |                                                 |
\*---------------------------------------------------------------------------*/
FoamFile
{
    version     2.0;
    format      ascii;
    arch        "LSB;label=32;scalar=64";
    class       surfaceVectorField;
    location    "2.8";
    object      Ufa;
}
// * * * * * * * * * * * * * * * * * * * * * * * * * * * * * * * * * * * * * //

dimensions      [0 1 -1 0 0 0 0];

internalField   nonuniform List<vector> 
26037
(
(1.488166e-05 -0.0001982568 6.211269e-23)
(-2.832831e-05 -0.0001941331 3.671097e-27)
(3.096738e-06 -7.602333e-05 3.66319e-25)
(-1.945688e-05 -8.370989e-05 3.594944e-26)
(3.693213e-07 -3.841449e-05 -5.657007e-29)
(-6.891901e-06 -4.306695e-05 -5.669854e-29)
(-1.017328e-07 -2.283784e-05 -6.142173e-30)
(-2.889954e-06 -2.503941e-05 0)
(-2.363697e-07 -1.693961e-05 4.217626e-27)
(-1.579678e-06 -1.840586e-05 -6.141791e-30)
(-3.068767e-07 -1.352447e-05 -1.156481e-29)
(-1.089365e-06 -1.471929e-05 -9.471673e-30)
(-8.57007e-07 -1.193692e-05 -5.792468e-30)
(-3.621404e-07 -1.09368e-05 1.001894e-27)
(-6.529507e-05 -7.594473e-05 -6.73643e-32)
(-5.482816e-05 -5.22291e-05 2.315304e-30)
(-2.98331e-05 -5.077216e-05 -6.801177e-32)
(-3.286835e-05 -4.492383e-05 -4.485471e-31)
(-1.015106e-05 -2.967415e-05 0)
(-1.329378e-05 -2.889452e-05 9.062543e-30)
(-4.367709e-06 -2.06113e-05 -3.530463e-34)
(-6.439518e-06 -2.081403e-05 1.259295e-29)
(-2.432586e-06 -1.618611e-05 -4.470779e-34)
(-3.71217e-06 -1.671045e-05 4.469882e-29)
(-1.639472e-06 -1.313191e-05 -1.237496e-34)
(-2.452849e-06 -1.375457e-05 -9.414517e-35)
(-1.775504e-06 -1.134028e-05 4.063157e-30)
(-1.236997e-06 -1.070427e-05 -5.806571e-30)
(-2.276827e-05 -2.077472e-05 1.933602e-30)
(-1.618759e-05 -1.16238e-05 4.598643e-25)
(-1.642233e-05 -2.298016e-05 8.66419e-30)
(-1.544169e-05 -1.792599e-05 -1.082403e-25)
(-9.553658e-06 -1.996193e-05 -9.488392e-27)
(-1.035728e-05 -1.769266e-05 1.018731e-29)
(-5.783815e-06 -1.691368e-05 -3.881222e-27)
(-6.818535e-06 -1.604387e-05 1.334475e-29)
(-3.732569e-06 -1.427925e-05 5.757626e-30)
(-4.585523e-06 -1.406493e-05 -6.773684e-29)
(-2.588928e-06 -1.19631e-05 -3.299838e-35)
(-3.227189e-06 -1.208279e-05 0)
(-2.39735e-06 -1.02334e-05 -5.752632e-30)
(-1.930318e-06 -9.943928e-06 5.809942e-30)
(-8.835697e-06 -8.750277e-06 2.603935e-31)
(-5.159106e-06 -4.384995e-06 -1.024849e-32)
(-9.403578e-06 -1.261164e-05 1.107951e-30)
(-7.817256e-06 -9.085394e-06 -1.664271e-26)
(-7.596724e-06 -1.372259e-05 1.06468e-28)
(-7.289724e-06 -1.137337e-05 -1.777473e-27)
(-5.61852e-06 -1.31776e-05 6.616807e-31)
(-5.878215e-06 -1.18704e-05 2.286625e-27)
(-4.080261e-06 -1.186856e-05 2.692548e-33)
(-4.494862e-06 -1.124508e-05 -6.840633e-30)
(-3.035662e-06 -1.035319e-05 5.815096e-34)
(-3.433602e-06 -1.012901e-05 -1.543552e-35)
(-2.686341e-06 -8.848178e-06 5.813252e-30)
(-2.34923e-06 -8.827296e-06 -5.814411e-30)
(-4.136492e-06 -4.714767e-06 -2.160042e-28)
(-1.99225e-06 -2.243447e-06 -1.50542e-31)
(-5.706883e-06 -7.828677e-06 -2.731358e-28)
(-4.304964e-06 -5.380217e-06 -4.871907e-32)
(-5.561674e-06 -9.508992e-06 7.09082e-32)
(-4.907292e-06 -7.566426e-06 -1.382904e-31)
(-4.749363e-06 -9.913791e-06 -1.025968e-28)
(-4.577183e-06 -8.574589e-06 2.253364e-29)
(-3.847186e-06 -9.495511e-06 -7.379948e-29)
(-3.930749e-06 -8.692422e-06 -6.678859e-28)
(-3.084309e-06 -8.624022e-06 -1.967823e-28)
(-3.266666e-06 -8.216293e-06 -5.827762e-30)
(-2.710573e-06 -7.392172e-06 -2.976286e-30)
(-2.511223e-06 -7.545072e-06 5.812659e-30)
(-2.158868e-06 -2.906238e-06 3.694044e-31)
(-9.187182e-07 -1.427545e-06 0)
(-3.500498e-06 -5.100344e-06 1.811023e-28)
(-2.462679e-06 -3.441021e-06 5.767445e-31)
(-3.921237e-06 -6.635718e-06 -2.353571e-28)
(-3.252372e-06 -5.153765e-06 -6.090937e-30)
(-3.756259e-06 -7.344486e-06 1.204686e-28)
(-3.415991e-06 -6.189589e-06 -5.681585e-30)
(-3.347462e-06 -7.398282e-06 -5.115712e-30)
(-3.230707e-06 -6.583433e-06 -9.400271e-29)
(-2.892108e-06 -6.977932e-06 -2.59048e-29)
(-2.910521e-06 -6.484123e-06 -5.177869e-30)
(-2.568743e-06 -6.004329e-06 -1.175422e-29)
(-2.486105e-06 -6.24701e-06 1.674289e-28)
(-1.221447e-06 -1.960805e-06 2.07039e-31)
(-4.815506e-07 -1.027715e-06 -3.470855e-31)
(-2.208771e-06 -3.481937e-06 -5.484949e-30)
(-1.480396e-06 -2.347906e-06 -1.85264e-27)
(-2.744485e-06 -4.704145e-06 -1.469586e-27)
(-2.175085e-06 -3.610578e-06 -9.97226e-28)
(-2.888579e-06 -5.426227e-06 -4.914498e-30)
(-2.515807e-06 -4.495171e-06 -5.981263e-30)
(-2.79253e-06 -5.663427e-06 6.046622e-29)
(-2.586938e-06 -4.948434e-06 1.659595e-30)
(-2.585402e-06 -5.500421e-06 7.422022e-31)
(-2.499172e-06 -5.001299e-06 1.484851e-30)
(-2.343156e-06 -4.732753e-06 7.376599e-31)
(-2.350022e-06 -5.021315e-06 -1.822454e-33)
(-7.400235e-07 -1.414132e-06 -1.368567e-31)
(-2.776903e-07 -8.003051e-07 2.851144e-27)
(-1.44574e-06 -2.474022e-06 4.470309e-31)
(-9.358008e-07 -1.683537e-06 -2.395553e-31)
(-1.945675e-06 -3.398474e-06 2.391254e-31)
(-1.492778e-06 -2.603436e-06 7.406821e-31)
(-2.215044e-06 -4.020545e-06 6.226927e-31)
(-1.868204e-06 -3.298706e-06 7.530892e-31)
(-2.293614e-06 -4.286436e-06 1.362083e-30)
(-2.06105e-06 -3.699576e-06 -5.809871e-28)
(-2.256237e-06 -4.229705e-06 2.832533e-29)
(-2.118211e-06 -3.790929e-06 1.488433e-30)
(-2.095439e-06 -3.608676e-06 7.427601e-31)
(-2.16202e-06 -3.900228e-06 -5.149051e-30)
(-4.731892e-07 -1.069322e-06 -4.335145e-31)
(-1.702317e-07 -6.558827e-07 -2.137391e-27)
(-9.823191e-07 -1.812045e-06 5.32806e-32)
(-6.192337e-07 -1.2492e-06 2.239971e-27)
(-1.411412e-06 -2.496384e-06 1.060006e-28)
(-1.056739e-06 -1.915894e-06 7.93005e-28)
(-1.715614e-06 -2.98058e-06 2.702365e-30)
(-1.412901e-06 -2.432792e-06 1.550909e-30)
(-1.885709e-06 -3.204175e-06 5.288374e-29)
(-1.657169e-06 -2.741265e-06 -7.183493e-28)
(-1.957442e-06 -3.170037e-06 7.449244e-31)
(-1.799147e-06 -2.810592e-06 7.446948e-31)
(-1.868299e-06 -2.651366e-06 0)
(-1.967e-06 -2.902376e-06 -3.227423e-31)
(-3.160652e-07 -8.354786e-07 -8.020447e-32)
(-1.081136e-07 -5.563716e-07 3.494457e-31)
(-6.9324e-07 -1.352439e-06 -6.56242e-31)
(-4.270405e-07 -9.464557e-07 -4.298538e-31)
(-1.054277e-06 -1.846535e-06 5.603527e-31)
(-7.749674e-07 -1.423349e-06 -6.851511e-31)
(-1.356243e-06 -2.19571e-06 7.724628e-31)
(-1.098012e-06 -1.787466e-06 -1.165242e-27)
(-1.570703e-06 -2.347771e-06 -1.937104e-32)
(-1.359136e-06 -1.994845e-06 8.651905e-28)
(-1.710009e-06 -2.292045e-06 0)
(-1.548863e-06 -2.012762e-06 0)
(-1.679377e-06 -1.83893e-06 0)
(-1.792838e-06 -2.03601e-06 1.184661e-30)
(-2.189205e-07 -6.671315e-07 0)
(-6.962988e-08 -4.83479e-07 0)
(-5.084187e-07 -1.016941e-06 -4.585675e-31)
(-3.05954e-07 -7.235322e-07 4.239031e-31)
(-8.150275e-07 -1.360135e-06 2.890622e-31)
(-5.906635e-07 -1.054235e-06 1.599973e-27)
(-1.102844e-06 -1.588139e-06 7.763978e-31)
(-8.826317e-07 -1.290628e-06 -7.663585e-31)
(-1.337405e-06 -1.659893e-06 2.010793e-32)
(-1.146115e-06 -1.400779e-06 -1.025679e-27)
(-1.518212e-06 -1.559766e-06 0)
(-1.362742e-06 -1.355101e-06 0)
(-1.534304e-06 -1.145536e-06 9.230205e-31)
(-1.652266e-06 -1.286658e-06 3.078697e-31)
(-1.565167e-07 -5.396974e-07 4.237268e-31)
(-4.454895e-08 -4.272415e-07 0)
(-3.878877e-07 -7.605363e-07 6.522659e-33)
(-2.273596e-07 -5.511759e-07 -1.9155e-27)
(-6.548572e-07 -9.819781e-07 -1.933262e-30)
(-4.692524e-07 -7.656094e-07 -1.163397e-30)
(-9.278883e-07 -1.104106e-06 -2.90446e-29)
(-7.375381e-07 -8.948198e-07 1.420665e-27)
(-1.171563e-06 -1.096007e-06 -2.178048e-31)
(-9.992539e-07 -9.156361e-07 3.102536e-31)
(-1.378792e-06 -9.409903e-07 9.227027e-31)
(-1.232244e-06 -8.029768e-07 -5.282096e-31)
(-1.432471e-06 -5.467053e-07 8.160302e-28)
(-1.549334e-06 -6.340933e-07 -1.643406e-29)
(-1.152583e-07 -4.385618e-07 -3.662246e-31)
(-2.747456e-08 -3.817529e-07 3.016831e-31)
(-3.084384e-07 -5.560734e-07 -3.523791e-30)
(-1.753376e-07 -4.118824e-07 -3.662845e-31)
(-5.48717e-07 -6.769193e-07 -1.468636e-30)
(-3.895623e-07 -5.307034e-07 -1.490945e-30)
(-8.109048e-07 -7.065187e-07 -1.85089e-31)
(-6.425691e-07 -5.68388e-07 -1.481532e-30)
(-1.060043e-06 -6.225873e-07 -6.996728e-34)
(-9.034849e-07 -5.081625e-07 -1.439474e-27)
(-1.285861e-06 -4.088226e-07 -5.087358e-31)
(-1.148474e-06 -3.291507e-07 1.153603e-27)
(-1.370592e-06 -2.098148e-08 -9.797745e-28)
(-1.48382e-06 -5.890215e-08 1.948879e-32)
(-8.742533e-08 -3.549284e-07 3.017413e-31)
(-1.533967e-08 -3.434183e-07 -1.767585e-27)
(-2.561881e-07 -3.864313e-07 -7.449834e-31)
(-1.405591e-07 -2.94696e-07 0)
(-4.803382e-07 -4.217132e-07 -1.41369e-29)
(-3.380159e-07 -3.321573e-07 -2.23572e-30)
(-7.370625e-07 -3.69541e-07 2.43739e-31)
(-5.815038e-07 -2.898215e-07 9.436839e-30)
(-9.920609e-07 -2.145736e-07 5.100462e-31)
(-8.441699e-07 -1.561263e-07 -1.985752e-27)
(-1.233126e-06 5.854677e-08 2.740835e-32)
(-1.102949e-06 8.766362e-08 -4.778782e-31)
(-1.344538e-06 4.49868e-07 1.006501e-32)
(-1.453562e-06 4.563264e-07 -1.554248e-30)
(-6.834481e-08 -2.830477e-07 2.465275e-31)
(-6.337798e-09 -3.098376e-07 2.464139e-31)
(-2.221359e-07 -2.404149e-07 -1.488979e-30)
(-1.174797e-07 -1.922798e-07 2.682115e-31)
(-4.366693e-07 -2.004393e-07 -1.22906e-29)
(-3.070418e-07 -1.580494e-07 -1.489359e-30)
(-6.888749e-07 -7.538361e-08 -1.333056e-29)
(-5.480992e-07 -4.335551e-08 1.628247e-27)
(-9.559303e-07 1.480052e-07 1.25475e-29)
(-8.165838e-07 1.58512e-07 1.415188e-29)
(-1.214328e-06 4.7901e-07 -4.952902e-31)
(-1.090504e-06 4.64071e-07 1.513858e-30)
(-1.350843e-06 8.810251e-07 1.35214e-27)
(-1.45578e-06 9.268608e-07 -1.006203e-30)
(-5.534078e-08 -2.18935e-07 2.68082e-31)
(6.868173e-10 -2.793365e-07 0)
(-2.021893e-07 -1.099932e-07 2.682656e-31)
(-1.025078e-07 -9.949772e-08 -2.504975e-27)
(-4.173087e-07 -2.011599e-09 1.199403e-30)
(-2.912265e-07 -3.638453e-11 -7.441331e-31)
(-6.733091e-07 1.877211e-07 -1.962219e-29)
(-5.37811e-07 1.797119e-07 4.500709e-31)
(-9.535621e-07 4.77118e-07 3.044514e-30)
(-8.17581e-07 4.458195e-07 1.530891e-30)
(-1.227108e-06 8.662264e-07 -5.787839e-29)
(-1.106991e-06 8.130992e-07 1.513201e-30)
(-1.386586e-06 1.285293e-06 1.071393e-30)
(-1.488454e-06 1.365755e-06 2.582018e-30)
(-4.634035e-08 -1.597636e-07 3.836381e-31)
(6.461908e-09 -2.507477e-07 4.072693e-31)
(-1.913643e-07 1.036862e-08 -3.598257e-31)
(-9.322325e-08 -1.269187e-08 -2.757446e-27)
(-4.112797e-07 1.813622e-07 1.092808e-29)
(-2.861935e-07 1.480925e-07 -2.23305e-30)
(-6.777228e-07 4.336398e-07 -7.620292e-31)
(-5.431419e-07 3.899351e-07 -1.501303e-30)
(-9.741862e-07 7.858509e-07 0)
(-8.389725e-07 7.183646e-07 0)
(-1.266618e-06 1.232435e-06 0)
(-1.148035e-06 1.145904e-06 -1.173219e-30)
(-1.449289e-06 1.673725e-06 -3.034491e-30)
(-1.549373e-06 1.784646e-06 -1.514195e-30)
(-4.027045e-08 -1.035373e-07 7.550323e-29)
(1.144029e-08 -2.231985e-07 -2.499225e-27)
(-1.878568e-07 1.249115e-07 3.157813e-29)
(-8.820927e-08 7.090793e-08 -5.930002e-31)
(-4.17624e-07 3.563178e-07 1.756643e-29)
(-2.900469e-07 2.911192e-07 -3.723986e-30)
(-6.995512e-07 6.69345e-07 -7.632444e-31)
(-5.624956e-07 5.935587e-07 -2.255494e-30)
(-1.016327e-06 1.083317e-06 -1.186857e-30)
(-8.790523e-07 9.834021e-07 0)
(-1.330866e-06 1.587514e-06 1.018721e-28)
(-1.211682e-06 1.471074e-06 -2.469586e-27)
(-1.537511e-06 2.055774e-06 -4.555321e-30)
(-1.637277e-06 2.19372e-06 1.25641e-28)
(-3.633464e-08 -4.86094e-08 8.408758e-29)
(1.596522e-08 -1.959666e-07 2.728125e-31)
(-1.901841e-07 2.369629e-07 3.630045e-29)
(-8.643857e-08 1.535199e-07 -3.379433e-27)
(-4.344473e-07 5.279234e-07 5.042084e-29)
(-3.012663e-07 4.327754e-07 -2.281079e-30)
(-7.367556e-07 9.012498e-07 -1.52853e-30)
(-5.936381e-07 7.956951e-07 -1.504072e-30)
(-1.0781e-06 1.376691e-06 2.593335e-31)
(-9.32591e-07 1.246082e-06 1.226672e-29)
(-1.418611e-06 1.93994e-06 -1.268055e-30)
(-1.291908e-06 1.793592e-06 1.565752e-29)
(-1.649642e-06 2.439564e-06 1.541171e-30)
(-1.751472e-06 2.601952e-06 1.513852e-28)
(-3.395879e-08 6.313937e-09 -1.801366e-31)
(2.03158e-08 -1.684407e-07 -3.064436e-27)
(-1.972826e-07 3.491487e-07 -1.878774e-31)
(-8.72717e-08 2.369869e-07 -3.736704e-27)
(-4.599893e-07 7.000954e-07 -4.663787e-32)
(-3.191594e-07 5.761721e-07 -3.560663e-27)
(-7.848715e-07 1.13473e-06 1.215552e-29)
(-6.36677e-07 1.000809e-06 1.375177e-30)
(-1.147771e-06 1.665932e-06 -8.971545e-28)
(-1.003312e-06 1.512692e-06 1.373465e-29)
(-1.525188e-06 2.297974e-06 -3.939755e-28)
(-1.394193e-06 2.122581e-06 1.606301e-29)
(-1.787168e-06 2.8325e-06 1.317308e-30)
(-1.891029e-06 3.017666e-06 3.062481e-30)
(-3.279903e-08 6.239223e-08 -1.048947e-28)
(2.469075e-08 -1.401648e-07 -4.533551e-31)
(-2.088864e-07 4.637911e-07 -5.032807e-29)
(-9.030081e-08 3.227668e-07 -4.156591e-27)
(-4.954568e-07 8.764682e-07 1.772278e-30)
(-3.431839e-07 7.23874e-07 -4.006729e-27)
(-8.524119e-07 1.374578e-06 -9.555598e-29)
(-6.911051e-07 1.212485e-06 -3.810345e-27)
(-1.244552e-06 1.960705e-06 2.128683e-30)
(-1.092424e-06 1.787297e-06 1.522126e-30)
(-1.660899e-06 2.665629e-06 -1.193888e-30)
(-1.521141e-06 2.463595e-06 -3.182365e-27)
(-1.951221e-06 3.24144e-06 2.970591e-27)
(-2.059114e-06 3.447529e-06 2.101393e-28)
(-3.259167e-08 1.203816e-07 4.032729e-31)
(2.920478e-08 -1.108307e-07 3.665243e-31)
(-2.243059e-07 5.825957e-07 -5.582883e-29)
(-9.522683e-08 4.119149e-07 4.033318e-31)
(-5.384857e-07 1.059564e-06 -1.000235e-31)
(-3.72852e-07 8.778304e-07 4.276441e-31)
(-9.301545e-07 1.62392e-06 -5.290311e-31)
(-7.55617e-07 1.433834e-06 -4.249434e-27)
(-1.360198e-06 2.276354e-06 4.455109e-31)
(-1.196564e-06 2.077727e-06 1.816314e-30)
(-1.818069e-06 3.05144e-06 4.797359e-31)
(-1.668492e-06 2.824775e-06 4.549517e-31)
(-2.141294e-06 3.67307e-06 -3.684932e-27)
(-2.254634e-06 3.898944e-06 3.30682e-30)
(-3.318708e-08 1.808866e-07 3.665906e-31)
(3.395087e-08 -8.018653e-08 4.182352e-27)
(-2.434462e-07 7.068545e-07 0)
(-1.019718e-07 5.052235e-07 0)
(-5.895985e-07 1.251728e-06 1.47276e-30)
(-4.083004e-07 1.039556e-06 0)
(-1.021099e-06 1.886436e-06 -1.451365e-28)
(-8.309528e-07 1.667302e-06 4.778039e-27)
(-1.494833e-06 2.610413e-06 1.85363e-30)
(-1.316781e-06 2.385319e-06 4.625002e-27)
(-1.998978e-06 3.459585e-06 -1.575747e-32)
(-1.832754e-06 3.205792e-06 -2.888048e-31)
(-2.352414e-06 4.128512e-06 -1.565532e-32)
(-2.479568e-06 4.379236e-06 -3.056842e-30)
(-3.456396e-08 2.443508e-07 1.048135e-30)
(3.893636e-08 -4.810807e-08 4.627477e-27)
(-2.66461e-07 8.375875e-07 0)
(-1.107544e-07 6.032236e-07 7.428488e-31)
(-6.492232e-07 1.454706e-06 -9.299622e-31)
(-4.501314e-07 1.210236e-06 1.538455e-30)
(-1.125717e-06 2.165023e-06 1.552747e-28)
(-9.184065e-07 1.914974e-06 5.84584e-31)
(-1.645808e-06 2.966886e-06 -8.844512e-31)
(-1.455995e-06 2.713466e-06 4.505709e-27)
(-2.189724e-06 3.881689e-06 -2.906158e-31)
(-2.022979e-06 3.613338e-06 -2.868534e-27)
(-2.597345e-06 4.620937e-06 0)
(-2.73255e-06 4.898536e-06 -3.780501e-32)
(-3.69548e-08 3.109828e-07 1.44482e-30)
(4.405871e-08 -1.45949e-08 7.020217e-31)
(-2.940176e-07 9.754874e-07 -7.436676e-29)
(-1.220654e-07 7.060531e-07 -3.072047e-31)
(-7.188374e-07 1.670026e-06 3.052271e-30)
(-4.993046e-07 1.390485e-06 6.075109e-27)
(-1.247926e-06 2.462434e-06 -1.989364e-28)
(-1.019314e-06 2.178284e-06 1.513732e-30)
(-1.827465e-06 3.350543e-06 1.089976e-30)
(-1.615957e-06 3.064609e-06 -5.628501e-27)
(-2.420712e-06 4.335106e-06 -4.90836e-31)
(-2.243108e-06 4.051593e-06 5.776939e-30)
(-2.882159e-06 5.158225e-06 3.25084e-30)
(-3.030889e-06 5.463584e-06 -3.118927e-30)
(-4.071976e-08 3.807167e-07 -1.049018e-30)
(4.900922e-08 2.018918e-08 -1.059629e-30)
(-3.268969e-07 1.120617e-06 -6.780618e-33)
(-1.369033e-07 8.133507e-07 -6.941904e-27)
(-7.992437e-07 1.898203e-06 1.044008e-30)
(-5.573513e-07 1.58011e-06 2.28865e-30)
(-1.386716e-06 2.779737e-06 2.202158e-30)
(-1.135381e-06 2.457564e-06 0)
(-2.029702e-06 3.762839e-06 -4.826518e-28)
(-1.797625e-06 3.440573e-06 -8.814303e-31)
(-2.687973e-06 4.846153e-06 -6.527696e-28)
(-2.493404e-06 4.531414e-06 6.246666e-30)
(-3.206477e-06 5.752123e-06 6.525973e-30)
(-3.368994e-06 6.086553e-06 -7.818763e-32)
(-4.68038e-08 4.530847e-07 -2.405465e-30)
(5.315529e-08 5.590388e-08 -6.163443e-27)
(-3.668507e-07 1.272361e-06 -1.02236e-31)
(-1.570028e-07 9.241216e-07 -2.922742e-30)
(-8.928858e-07 2.138865e-06 1.245633e-30)
(-6.27039e-07 1.777942e-06 7.424579e-27)
(-1.545593e-06 3.117609e-06 -3.081157e-30)
(-1.270033e-06 2.7518e-06 0)
(-2.259524e-06 4.20655e-06 5.343417e-28)
(-2.005054e-06 3.841011e-06 -3.081598e-30)
(-2.992783e-06 5.404857e-06 -6.87809e-28)
(-2.777316e-06 5.049104e-06 -1.132441e-30)
(-3.568277e-06 6.396964e-06 -2.18898e-29)
(-3.755561e-06 6.775058e-06 3.533778e-30)
(-5.659071e-08 5.270764e-07 -2.905752e-30)
(5.510526e-08 9.197399e-08 -3.48017e-30)
(-4.166753e-07 1.429264e-06 -1.277113e-32)
(-1.855908e-07 1.036564e-06 -8.76006e-27)
(-1.003512e-06 2.390202e-06 1.565178e-30)
(-7.127684e-07 1.981356e-06 1.563952e-30)
(-1.728713e-06 3.474322e-06 0)
(-1.428155e-06 3.057817e-06 -1.360422e-30)
(-2.521083e-06 4.681098e-06 -1.130175e-30)
(-2.243106e-06 4.262178e-06 -3.115523e-30)
(-3.335743e-06 6.012494e-06 -2.594743e-29)
(-3.100331e-06 5.600293e-06 -5.48839e-27)
(-3.981319e-06 7.092637e-06 2.686107e-28)
(-4.175575e-06 7.509753e-06 4.144338e-27)
(-7.325565e-08 6.011211e-07 -5.014291e-28)
(5.378965e-08 1.275172e-07 -6.808711e-27)
(-4.812394e-07 1.588408e-06 -2.694318e-30)
(-2.256615e-07 1.146712e-06 -2.701025e-30)
(-1.136666e-06 2.648237e-06 -1.359309e-30)
(-8.205289e-07 2.18592e-06 -3.672798e-30)
(-1.941683e-06 3.844697e-06 5.940389e-28)
(-1.616428e-06 3.369821e-06 8.973448e-27)
(-2.820904e-06 5.179323e-06 -2.768757e-30)
(-2.516895e-06 4.695767e-06 -4.986098e-30)
(-3.734135e-06 6.660645e-06 -8.442342e-28)
(-3.463147e-06 6.171658e-06 -8.724559e-27)
(-4.437185e-06 7.815196e-06 -9.148809e-27)
(-4.669006e-06 8.300947e-06 -4.67276e-27)
(-9.712873e-08 6.700465e-07 -1.910275e-30)
(4.572426e-08 1.596176e-07 -1.892883e-30)
(-5.653557e-07 1.745577e-06 -3.681952e-30)
(-2.863718e-07 1.250225e-06 0)
(-1.299641e-06 2.907002e-06 2.732371e-28)
(-9.610052e-07 2.384944e-06 -1.088841e-26)
(-2.190661e-06 4.219841e-06 -1.322849e-30)
(-1.845595e-06 3.67937e-06 5.481451e-31)
(-3.15798e-06 5.68668e-06 -5.256367e-30)
(-2.834771e-06 5.130744e-06 -9.822174e-27)
(-4.162414e-06 7.320294e-06 -4.813025e-30)
(-3.867397e-06 6.748174e-06 -9.810003e-27)
(-4.927845e-06 8.553229e-06 3.120723e-31)
(-5.197119e-06 9.137664e-06 -2.577095e-30)
(-1.401003e-07 7.311599e-07 0)
(2.684923e-08 1.861665e-07 -3.851711e-30)
(-6.833814e-07 1.892563e-06 -5.148572e-30)
(-3.774155e-07 1.340076e-06 1.822191e-30)
(-1.506692e-06 3.157448e-06 -5.129273e-30)
(-1.144924e-06 2.565813e-06 -1.347689e-26)
(-2.488633e-06 4.589184e-06 -4.494266e-30)
(-2.131876e-06 3.97529e-06 0)
(-3.54292e-06 6.190761e-06 -6.543046e-30)
(-3.212984e-06 5.555098e-06 -1.103905e-26)
(-4.629854e-06 7.976632e-06 -3.179012e-31)
(-4.326637e-06 7.315535e-06 -2.044058e-30)
(-5.461426e-06 9.279619e-06 8.375967e-27)
(-5.74572e-06 9.966566e-06 1.758436e-30)
(-2.063788e-07 7.854218e-07 -1.459669e-27)
(-8.197913e-09 2.058468e-07 -9.376679e-27)
(-8.376844e-07 2.01168e-06 4.099529e-30)
(-5.145971e-07 1.407861e-06 1.010865e-26)
(-1.773042e-06 3.388055e-06 2.265648e-30)
(-1.393921e-06 2.715249e-06 2.281826e-26)
(-2.855873e-06 4.941219e-06 -2.67632e-30)
(-2.493088e-06 4.236675e-06 8.597738e-30)
(-3.995338e-06 6.678362e-06 -2.675687e-30)
(-3.67535e-06 5.953974e-06 -2.487574e-30)
(-5.155793e-06 8.61509e-06 -4.448534e-30)
(-4.862514e-06 7.859212e-06 3.264833e-30)
(-6.054234e-06 9.979941e-06 -7.771469e-30)
(-6.344557e-06 1.077268e-05 3.508775e-27)
(-3.132758e-07 8.236569e-07 6.959489e-31)
(-6.85986e-08 2.136625e-07 -2.582659e-30)
(-1.06239e-06 2.100131e-06 1.392656e-29)
(-7.218885e-07 1.446866e-06 4.596325e-30)
(-2.113687e-06 3.563023e-06 1.88104e-29)
(-1.747565e-06 2.821203e-06 9.966815e-27)
(-3.319844e-06 5.259247e-06 -1.241059e-27)
(-2.976791e-06 4.450747e-06 3.031437e-26)
(-4.541722e-06 7.134303e-06 3.451441e-30)
(-4.258234e-06 6.309134e-06 -1.678262e-26)
(-5.759211e-06 9.22193e-06 -9.802302e-28)
(-5.503077e-06 8.362292e-06 9.863362e-30)
(-6.723558e-06 1.064042e-05 1.014007e-29)
(-6.992006e-06 1.15439e-05 4.135377e-27)
(-4.757688e-07 8.365815e-07 7.863526e-28)
(-1.641379e-07 2.026794e-07 6.928728e-34)
(-1.398119e-06 2.15852e-06 8.065633e-30)
(-1.023596e-06 1.443707e-06 -9.653915e-34)
(-2.589586e-06 3.684968e-06 -3.545993e-28)
(-2.237324e-06 2.873e-06 9.180368e-30)
(-3.928112e-06 5.521204e-06 1.24538e-27)
(-3.61199e-06 4.600307e-06 -2.057407e-29)
(-5.220041e-06 7.538943e-06 -3.51595e-30)
(-4.983544e-06 6.589946e-06 -4.309554e-29)
(-6.465582e-06 9.778738e-06 -1.996424e-27)
(-6.272209e-06 8.805982e-06 3.607872e-30)
(-7.484491e-06 1.124196e-05 1.344139e-29)
(-7.70111e-06 1.226011e-05 -4.30961e-27)
(-7.105994e-07 8.101591e-07 -8.607042e-28)
(-3.041177e-07 1.653461e-07 -5.668281e-31)
(-1.859379e-06 2.15524e-06 1.09845e-30)
(-1.439092e-06 1.376413e-06 -7.401129e-31)
(-3.235178e-06 3.756963e-06 -3.065877e-28)
(-2.889685e-06 2.851554e-06 1.436149e-26)
(-4.676983e-06 5.676813e-06 3.034789e-27)
(-4.429892e-06 4.664199e-06 1.186494e-26)
(-6.048642e-06 7.873701e-06 2.509581e-27)
(-5.875354e-06 6.780281e-06 5.178005e-30)
(-7.291158e-06 1.02703e-05 -2.997561e-30)
(-7.164354e-06 9.155864e-06 3.074093e-26)
(-8.33895e-06 1.176367e-05 0)
(-8.479984e-06 1.289817e-05 -1.599906e-30)
(-1.031014e-06 7.321614e-07 0)
(-4.930565e-07 9.353821e-08 -1.129316e-30)
(-2.466464e-06 2.070969e-06 5.623219e-30)
(-1.972514e-06 1.229059e-06 1.479811e-30)
(-4.06463e-06 3.742535e-06 1.730964e-29)
(-3.691443e-06 2.741485e-06 8.688681e-30)
(-5.6051e-06 5.741805e-06 1.188486e-27)
(-5.395066e-06 4.650523e-06 1.167129e-29)
(-7.000135e-06 8.069012e-06 -3.187189e-27)
(-6.920946e-06 6.886052e-06 1.144581e-26)
(-8.228785e-06 1.067638e-05 3.15814e-29)
(-8.199922e-06 9.407991e-06 2.481896e-29)
(-9.298661e-06 1.216503e-05 -1.42486e-29)
(-9.330174e-06 1.342821e-05 -3.236377e-30)
(-1.432695e-06 5.912403e-07 -2.045932e-27)
(-7.26687e-07 -1.552974e-08 -5.85606e-30)
(-3.194931e-06 1.898402e-06 -2.649802e-29)
(-2.588193e-06 1.006064e-06 2.960266e-30)
(-5.016576e-06 3.646104e-06 3.065219e-30)
(-4.575378e-06 2.56e-06 -4.074965e-30)
(-6.684146e-06 5.770284e-06 1.161447e-29)
(-6.444286e-06 4.576985e-06 0)
(-8.082754e-06 8.172819e-06 5.172014e-30)
(-8.04808e-06 6.913963e-06 2.270562e-26)
(-9.288196e-06 1.095303e-05 1.367049e-27)
(-9.348511e-06 9.52203e-06 -4.932688e-29)
(-1.041295e-05 1.23194e-05 -8.626028e-29)
(-1.030832e-05 1.377146e-05 7.55579e-27)
(-1.880101e-06 4.003778e-07 2.284147e-27)
(-9.87293e-07 -1.434844e-07 -6.745632e-27)
(-3.965985e-06 1.666668e-06 -5.643366e-30)
(-3.212334e-06 7.470879e-07 -5.16371e-30)
(-5.999873e-06 3.489188e-06 -7.137705e-30)
(-5.451277e-06 2.332333e-06 -1.342969e-26)
(-7.801139e-06 5.713634e-06 1.330119e-29)
(-7.507346e-06 4.413875e-06 -6.362407e-30)
(-9.279015e-06 8.189658e-06 2.527358e-27)
(-9.260513e-06 6.786784e-06 6.551331e-32)
(-1.049548e-05 1.09122e-05 4.14953e-27)
(-1.070797e-05 9.346991e-06 1.683596e-26)
(-1.187567e-05 1.205191e-05 -1.030434e-28)
(-1.155976e-05 1.375096e-05 2.228858e-26)
(-2.316524e-06 2.04219e-07 2.610891e-27)
(-1.240021e-06 -2.546792e-07 -5.470506e-30)
(-4.695713e-06 1.412245e-06 -1.473892e-29)
(-3.767675e-06 4.954805e-07 -8.411445e-27)
(-6.95569e-06 3.255631e-06 -1.445386e-29)
(-6.266786e-06 2.043159e-06 8.147661e-31)
(-8.961447e-06 5.483605e-06 -1.471745e-27)
(-8.568908e-06 4.078625e-06 -3.167869e-30)
(-1.06538e-05 7.910361e-06 -1.809038e-27)
(-1.058592e-05 6.349656e-06 -2.848935e-29)
(-1.203819e-05 1.043e-05 1.448555e-28)
(-1.230505e-05 8.720211e-06 -2.062806e-29)
(-1.375529e-05 1.116349e-05 -3.049902e-29)
(-1.329823e-05 1.312308e-05 1.276333e-26)
(-2.680515e-06 3.517793e-08 5.516362e-30)
(-1.45089e-06 -3.269835e-07 8.187428e-30)
(-5.342004e-06 1.127694e-06 -1.014165e-27)
(-4.209994e-06 2.513017e-07 -7.45975e-27)
(-7.878598e-06 2.865967e-06 9.936496e-28)
(-6.994616e-06 1.61371e-06 9.243575e-27)
(-1.018955e-05 4.943234e-06 -1.206944e-29)
(-9.64393e-06 3.442103e-06 2.281245e-29)
(-1.222745e-05 7.151833e-06 -3.920228e-27)
(-1.205983e-05 5.430383e-06 -2.048047e-26)
(-1.397755e-05 9.365059e-06 -7.171537e-30)
(-1.422921e-05 7.442218e-06 -4.149539e-30)
(-1.619972e-05 9.362138e-06 1.379885e-29)
(-1.556018e-05 1.154875e-05 1.850332e-30)
(-2.957382e-06 -1.131753e-07 1.613799e-29)
(-1.605096e-06 -3.606145e-07 -1.08735e-26)
(-5.857526e-06 7.328384e-07 -7.466636e-27)
(-4.529381e-06 -2.106149e-08 6.457739e-30)
(-8.771478e-06 2.193214e-06 1.761592e-29)
(-7.616856e-06 9.284829e-07 -2.163143e-30)
(-1.151331e-05 3.929543e-06 3.121116e-30)
(-1.07073e-05 2.343794e-06 2.416808e-26)
(-1.405364e-05 5.719861e-06 -4.429498e-27)
(-1.367893e-05 3.857608e-06 5.374524e-30)
(-1.638719e-05 7.430236e-06 1.623099e-29)
(-1.645001e-05 5.321349e-06 1.402114e-26)
(-1.899346e-05 6.665553e-06 1.388929e-29)
(-1.839116e-05 1.010272e-05 2.332331e-23)
(-3.160083e-06 -2.67202e-07 -3.164218e-27)
(-1.688599e-06 -3.81784e-07 -1.644955e-30)
(-6.256145e-06 1.670886e-07 -1.466489e-30)
(-4.73065e-06 -3.804169e-07 1.397716e-30)
(-9.555629e-06 1.071761e-06 2.015595e-30)
(-8.126812e-06 -1.078214e-07 3.00449e-30)
(-1.289718e-05 2.269641e-06 2.415751e-29)
(-1.171408e-05 6.132631e-07 2.914646e-26)
(-1.607539e-05 3.459875e-06 4.312273e-29)
(-1.533201e-05 1.473172e-06 -3.311935e-27)
(-1.900514e-05 7.007535e-06 2.167815e-29)
(-1.878035e-05 2.281431e-06 -1.567273e-24)
(-2.17497e-05 3.100919e-06 2.175566e-29)
(-2.12241e-05 2.0031e-05 1.913599e-29)
(-3.255373e-06 -4.924418e-07 -6.559287e-30)
(-1.671021e-06 -4.282952e-07 2.997375e-26)
(-6.573016e-06 -6.506433e-07 2.515561e-27)
(-4.821657e-06 -9.317407e-07 2.836563e-30)
(-1.023806e-05 -5.657529e-07 -4.36448e-29)
(-8.542959e-06 -1.558736e-06 8.71513e-30)
(-1.416542e-05 -2.024286e-07 -4.36122e-26)
(-1.262706e-05 -1.803426e-06 -2.869019e-29)
(-1.805733e-05 2.806286e-06 5.285705e-29)
(-1.670718e-05 -1.819489e-06 -1.585519e-23)
(-2.132244e-05 1.847522e-05 5.21134e-29)
(-2.05405e-05 -1.598502e-06 -4.328294e-23)
(-2.365042e-05 -1.16259e-06 -4.638221e-23)
(-2.343096e-05 5.175214e-05 1.06318e-21)
(-3.234834e-06 -8.648813e-07 -9.94532e-30)
(-1.556624e-06 -5.713897e-07 -9.946675e-30)
(-6.786765e-06 -1.836434e-06 5.737931e-30)
(-4.851713e-06 -1.801721e-06 5.500844e-30)
(-1.088534e-05 -2.77067e-06 1.17464e-26)
(-8.91767e-06 -3.534729e-06 1.147708e-29)
(-1.524504e-05 -1.506929e-06 8.566819e-29)
(-1.343799e-05 -4.822773e-06 -8.239766e-25)
(-1.869856e-05 1.212235e-05 1.241447e-21)
(-1.794118e-05 -5.910651e-06 7.313991e-29)
(-2.236993e-05 4.806071e-05 7.935888e-29)
(-1.837586e-05 -5.756148e-06 3.245453e-29)
(-2.353606e-05 -5.999444e-06 -4.737548e-29)
(-2.40346e-05 0.0001028797 7.743178e-30)
(-3.163058e-06 -1.503585e-06 5.489948e-30)
(-1.436593e-06 -9.026739e-07 0)
(-6.988112e-06 -3.504273e-06 5.413145e-27)
(-4.948935e-06 -3.111828e-06 5.651618e-30)
(-1.146858e-05 -4.683093e-06 1.227977e-29)
(-9.292721e-06 -6.047979e-06 6.008782e-30)
(-1.607185e-05 6.422663e-06 -1.425075e-22)
(-1.398174e-05 -8.404364e-06 -1.591329e-29)
(-1.968531e-05 3.883691e-05 9.799009e-22)
(-1.867774e-05 -1.039022e-05 5.436884e-30)
(-1.670905e-05 9.172685e-05 -7.780452e-21)
(-2.184109e-05 -1.168448e-05 -1.000573e-29)
(-1.036853e-05 -9.153128e-06 -3.040238e-29)
(-2.248294e-05 0.0001672477 -1.021763e-28)
(-3.200977e-06 -2.495208e-06 1.168408e-31)
(-1.432727e-06 -1.440497e-06 -9.511241e-30)
(-7.271089e-06 -5.675666e-06 3.038362e-31)
(-5.221018e-06 -4.842701e-06 -8.997568e-30)
(-1.17435e-05 -1.638979e-06 -2.252645e-29)
(-9.77739e-06 -9.043266e-06 4.793125e-31)
(-1.621442e-05 2.8107e-05 -2.267992e-29)
(-1.269246e-05 -1.223787e-05 1.914025e-22)
(-1.975998e-05 8.038981e-05 2.645229e-29)
(-1.784816e-05 -1.514121e-05 2.228775e-29)
(-2.009335e-05 0.0001521871 6.933026e-21)
(-2.233565e-05 -1.730336e-05 4.435016e-30)
(-2.325136e-05 -1.851186e-05 3.749552e-29)
(-3.062499e-06 0.000238669 6.793871e-29)
(-3.437276e-06 -3.764901e-06 9.159062e-28)
(-1.555763e-06 -2.148945e-06 6.356569e-26)
(-7.6965e-06 -5.174153e-06 -8.741864e-30)
(-5.626266e-06 -6.848058e-06 1.539776e-25)
(-1.209065e-05 1.258431e-05 -1.289852e-30)
(-1.029576e-05 -1.216255e-05 1.289108e-29)
(-1.412828e-05 5.82146e-05 2.922977e-21)
(-1.467942e-05 -1.675056e-05 8.871471e-30)
(-1.821603e-05 0.0001304775 7.339625e-32)
(-9.423654e-06 -1.897728e-05 5.86589e-29)
(-1.882173e-05 0.000221756 -5.072072e-21)
(-1.96255e-05 -2.300508e-05 2.668575e-22)
(-2.014482e-05 -2.517267e-05 -9.14748e-22)
(-1.653177e-05 0.0003279079 4.726473e-29)
(-3.746094e-06 -4.982521e-06 6.330306e-25)
(-1.702879e-06 -2.960921e-06 -1.028991e-29)
(-8.097084e-06 2.596979e-06 6.944426e-23)
(-5.923003e-06 -9.033989e-06 1.929947e-24)
(-1.22409e-05 3.731793e-05 2.282927e-29)
(-1.047165e-05 -1.538422e-05 -9.2292e-24)
(-1.500407e-05 9.783371e-05 2.451807e-21)
(-1.505278e-05 -2.09865e-05 9.785629e-30)
(-9.674562e-06 0.0001834794 8.044698e-21)
(-1.855604e-05 -2.588838e-05 2.688905e-29)
(-4.117236e-06 0.0002874008 7.474303e-29)
(-2.191959e-05 -3.007361e-05 1.633848e-29)
(1.781168e-05 -2.569271e-05 -4.936287e-29)
(-1.179422e-05 0.0004150284 1.851403e-20)
(-3.912273e-06 -3.631584e-06 -1.181698e-29)
(-1.760086e-06 -3.790574e-06 5.268616e-30)
(-8.150348e-06 1.715148e-05 -2.835118e-30)
(-5.849945e-06 -1.124157e-05 1.286538e-30)
(-1.194566e-05 6.727211e-05 7.405932e-30)
(-9.984597e-06 -1.862471e-05 1.013751e-29)
(-1.455842e-05 0.0001440516 -8.477161e-30)
(-1.403986e-05 -2.520584e-05 -6.963659e-31)
(-1.470353e-05 0.0002433174 -7.988853e-30)
(-1.791934e-05 -3.120659e-05 1.036424e-22)
(-1.200967e-05 0.0003598382 -1.050108e-28)
(-2.197377e-05 -3.701267e-05 -2.543649e-29)
(-2.02151e-05 -4.529327e-05 5.722927e-22)
(9.261297e-06 0.0004882234 -4.041713e-20)
(-3.820166e-06 1.746591e-06 1.83776e-29)
(-1.653771e-06 -4.57663e-06 -1.981741e-24)
(-7.679575e-06 3.45571e-05 2.61952e-22)
(-5.329569e-06 -1.33313e-05 -1.348928e-23)
(-1.114325e-05 9.788939e-05 2.022435e-30)
(-8.394185e-06 -2.172175e-05 -7.999449e-31)