/*--------------------------------*- C++ -*----------------------------------*\
| =========                 |                                                 |
| \\      /  F ield         | OpenFOAM: The Open Source CFD Toolbox           |
|  \\    /   O peration     | Version:  2206                                  |
|   \\  /    A nd           | Website:  www.openfoam.com                      |
|    \\/     M anipulation  |                                                 |
\*---------------------------------------------------------------------------*/
FoamFile
{
    version     2.0;
    format      ascii;
    arch        "LSB;label=32;scalar=64";
    class       surfaceVectorField;
    location    "2.8";
    object      Ufa_0;
}
// * * * * * * * * * * * * * * * * * * * * * * * * * * * * * * * * * * * * * //

dimensions      [0 1 -1 0 0 0 0];

internalField   nonuniform List<vector> 
26037
(
(1.482183e-05 -0.0001969902 6.119635e-23)
(-2.815544e-05 -0.0001928053 3.63339e-27)
(3.086895e-06 -7.574736e-05 3.968633e-25)
(-1.936011e-05 -8.337446e-05 3.547239e-26)
(3.677521e-07 -3.831859e-05 -5.638752e-29)
(-6.866687e-06 -4.294682e-05 -5.651556e-29)
(-1.023444e-07 -2.280164e-05 -6.154691e-30)
(-2.884006e-06 -2.499891e-05 0)
(-2.369976e-07 -1.691514e-05 4.223909e-27)
(-1.578511e-06 -1.838024e-05 -6.154432e-30)
(-3.075511e-07 -1.350346e-05 -1.159703e-29)
(-1.089257e-06 -1.469721e-05 -9.679192e-30)
(-8.572946e-07 -1.191739e-05 -5.809705e-30)
(-3.6279e-07 -1.091825e-05 1.068196e-27)
(-6.494979e-05 -7.559754e-05 -6.772553e-32)
(-5.453977e-05 -5.198037e-05 2.349963e-30)
(-2.969842e-05 -5.059415e-05 -6.837647e-32)
(-3.272219e-05 -4.475848e-05 -4.815637e-31)
(-1.011825e-05 -2.960967e-05 0)
(-1.325357e-05 -2.88288e-05 9.050001e-30)
(-4.359981e-06 -2.058142e-05 -4.771653e-34)
(-6.427909e-06 -2.078382e-05 1.260741e-29)
(-2.430678e-06 -1.616288e-05 -6.255751e-34)
(-3.708482e-06 -1.668687e-05 4.564575e-29)
(-1.638975e-06 -1.311132e-05 -2.757591e-34)
(-2.451559e-06 -1.373351e-05 -1.485627e-34)
(-1.77519e-06 -1.132127e-05 3.433282e-30)
(-1.237034e-06 -1.068587e-05 -5.825614e-30)
(-2.267719e-05 -2.071204e-05 1.93543e-30)
(-1.612281e-05 -1.159028e-05 4.511716e-25)
(-1.63707e-05 -2.292763e-05 8.618509e-30)
(-1.539147e-05 -1.788236e-05 -1.046404e-25)
(-9.534949e-06 -1.993087e-05 -9.825859e-27)
(-1.03368e-05 -1.766415e-05 1.013176e-29)
(-5.77627e-06 -1.68898e-05 -4.007417e-27)
(-6.809236e-06 -1.602116e-05 1.334138e-29)
(-3.7295e-06 -1.425784e-05 5.770961e-30)
(-4.581439e-06 -1.404405e-05 -6.570739e-29)
(-2.587817e-06 -1.194363e-05 -3.309986e-35)
(-3.225604e-06 -1.20634e-05 0)
(-2.396862e-06 -1.021539e-05 -5.049588e-30)
(-1.930004e-06 -9.926191e-06 5.829635e-30)
(-8.812348e-06 -8.736002e-06 2.354324e-31)
(-5.144915e-06 -4.37905e-06 1.449736e-32)
(-9.384525e-06 -1.259205e-05 1.014997e-30)
(-7.8011e-06 -9.072118e-06 -1.632e-26)
(-7.585796e-06 -1.370258e-05 1.00367e-28)
(-7.279101e-06 -1.135695e-05 -1.684226e-27)
(-5.612694e-06 -1.315793e-05 6.441407e-31)
(-5.872011e-06 -1.185272e-05 2.24333e-27)
(-4.077655e-06 -1.18497e-05 3.262938e-33)
(-4.491957e-06 -1.12273e-05 -6.833214e-30)
(-3.034696e-06 -1.033528e-05 8.141306e-34)
(-3.43257e-06 -1.011157e-05 -1.659593e-35)
(-2.686166e-06 -8.831415e-06 5.832226e-30)
(-2.348967e-06 -8.810532e-06 -5.834495e-30)
(-4.129543e-06 -4.70982e-06 -2.196153e-28)
(-1.987972e-06 -2.241308e-06 -1.50546e-31)
(-5.69913e-06 -7.818605e-06 -2.715888e-28)
(-4.298741e-06 -5.373838e-06 -7.742855e-32)
(-5.555803e-06 -9.494937e-06 -3.643855e-32)
(-4.902001e-06 -7.555342e-06 -1.939488e-31)
(-4.746092e-06 -9.898053e-06 -9.276818e-29)
(-4.574159e-06 -8.560922e-06 -3.766549e-29)
(-3.845855e-06 -9.479174e-06 6.257323e-30)
(-3.929634e-06 -8.677389e-06 -5.912297e-28)
(-3.084063e-06 -8.607745e-06 -2.689935e-28)
(-3.266714e-06 -8.200687e-06 -5.84577e-30)
(-2.711111e-06 -7.37666e-06 -5.227345e-30)
(-2.511394e-06 -7.52941e-06 5.8314e-30)
(-2.155312e-06 -2.902646e-06 3.6975e-31)
(-9.162842e-07 -1.425975e-06 0)
(-3.496723e-06 -5.092995e-06 1.787743e-28)
(-2.459462e-06 -3.436135e-06 5.333383e-31)
(-3.918796e-06 -6.625021e-06 -2.298793e-28)
(-3.250316e-06 -5.14536e-06 -6.14321e-30)
(-3.755392e-06 -7.331548e-06 1.123369e-28)
(-3.415557e-06 -6.178472e-06 -5.727286e-30)
(-3.347729e-06 -7.38401e-06 -5.131841e-30)
(-3.231513e-06 -6.570445e-06 -1.875319e-28)
(-2.892938e-06 -6.963112e-06 6.535896e-29)
(-2.911951e-06 -6.470028e-06 -5.193656e-30)
(-2.57028e-06 -5.989911e-06 -1.179652e-29)
(-2.487017e-06 -6.232394e-06 2.554791e-28)
(-1.219341e-06 -1.957916e-06 1.6331e-31)
(-4.796585e-07 -1.026391e-06 -2.617137e-31)
(-2.207256e-06 -3.476026e-06 -5.580396e-30)
(-1.478738e-06 -2.343818e-06 -1.950687e-27)
(-2.74443e-06 -4.695331e-06 -1.426827e-27)
(-2.175137e-06 -3.603553e-06 -1.133939e-27)
(-2.889813e-06 -5.415071e-06 -4.962217e-30)
(-2.517482e-06 -4.485554e-06 -5.994663e-30)
(-2.794496e-06 -5.650634e-06 5.157715e-29)
(-2.58962e-06 -4.936771e-06 1.538243e-30)
(-2.587541e-06 -5.486755e-06 7.447091e-31)
(-2.502163e-06 -4.988294e-06 1.490084e-30)
(-2.345909e-06 -4.719199e-06 7.407297e-31)
(-2.351909e-06 -5.007586e-06 -2.635271e-33)
(-7.385681e-07 -1.411582e-06 -1.035513e-31)
(-2.75888e-07 -7.990861e-07 3.084687e-27)
(-1.445631e-06 -2.468834e-06 3.448497e-31)
(-9.350129e-07 -1.679829e-06 -1.690909e-31)
(-1.947429e-06 -3.390667e-06 1.885314e-31)
(-1.494345e-06 -2.597079e-06 7.510846e-31)
(-2.218159e-06 -4.010422e-06 5.349559e-31)
(-1.871688e-06 -3.289881e-06 7.551391e-31)
(-2.297309e-06 -4.274574e-06 1.277731e-30)
(-2.065557e-06 -3.688669e-06 -8.722495e-28)
(-2.259838e-06 -4.216833e-06 1.720744e-29)
(-2.122857e-06 -3.778581e-06 1.494156e-30)
(-2.099578e-06 -3.595698e-06 7.458512e-31)
(-2.165059e-06 -3.887173e-06 -5.172653e-30)
(-4.720378e-07 -1.066913e-06 -3.109993e-31)
(-1.683451e-07 -6.546925e-07 -2.512307e-27)
(-9.831873e-07 -1.807177e-06 2.363168e-31)
(-6.189723e-07 -1.24563e-06 2.612623e-27)
(-1.414673e-06 -2.489043e-06 9.963692e-29)
(-1.059526e-06 -1.909799e-06 9.898395e-28)
(-1.720483e-06 -2.970971e-06 2.499543e-30)
(-1.418037e-06 -2.424301e-06 1.422385e-30)
(-1.891153e-06 -3.192797e-06 4.173628e-29)
(-1.663477e-06 -2.730684e-06 -1.06158e-27)
(-1.962614e-06 -3.157602e-06 7.479185e-31)
(-1.805519e-06 -2.798531e-06 7.476879e-31)
(-1.87394e-06 -2.638655e-06 0)
(-1.971332e-06 -2.889739e-06 -2.874498e-31)
(-3.150504e-07 -8.330918e-07 -5.417544e-32)
(-1.060475e-07 -5.551612e-07 2.325954e-31)
(-6.948762e-07 -1.34765e-06 -4.444083e-31)
(-4.27143e-07 -9.428693e-07 -2.869065e-31)
(-1.058894e-06 -1.839325e-06 5.008128e-31)
(-7.788301e-07 -1.41726e-06 -4.570771e-31)
(-1.36281e-06 -2.186247e-06 6.427896e-31)
(-1.104731e-06 -1.778989e-06 -1.595562e-27)
(-1.577923e-06 -2.336523e-06 -1.944791e-32)
(-1.367254e-06 -1.984257e-06 1.264769e-27)
(-1.716836e-06 -2.279728e-06 0)
(-1.557025e-06 -2.00067e-06 0)
(-1.686618e-06 -1.826197e-06 0)
(-1.798578e-06 -2.023518e-06 1.234358e-30)
(-2.179504e-07 -6.646842e-07 0)
(-6.732158e-08 -4.822137e-07 0)
(-5.107223e-07 -1.012065e-06 -2.994469e-31)
(-3.063309e-07 -7.1982e-07 2.335241e-31)
(-8.209386e-07 -1.352817e-06 3.004594e-31)
(-5.955444e-07 -1.047965e-06 2.129996e-27)
(-1.111105e-06 -1.578539e-06 6.262438e-31)
(-8.909264e-07 -1.28192e-06 -7.462037e-31)
(-1.346447e-06 -1.648479e-06 2.019655e-32)
(-1.156086e-06 -1.389908e-06 -1.488643e-27)
(-1.526772e-06 -1.54728e-06 0)
(-1.37277e-06 -1.342695e-06 0)
(-1.543238e-06 -1.132512e-06 1.061315e-30)
(-1.659509e-06 -1.274048e-06 2.597301e-31)
(-1.555309e-07 -5.371256e-07 2.334269e-31)
(-4.19446e-08 -4.258914e-07 0)
(-3.908124e-07 -7.554428e-07 -7.462024e-34)
(-2.279588e-07 -5.472468e-07 -2.54767e-27)
(-6.620577e-07 -9.743599e-07 -1.578187e-30)
(-4.751442e-07 -7.590052e-07 -9.822497e-31)
(-9.378821e-07 -1.094131e-06 -1.517146e-29)
(-7.474483e-07 -8.85673e-07 1.987071e-27)
(-1.182498e-06 -1.084164e-06 -3.81898e-31)
(-1.01115e-06 -9.042369e-07 -3.824049e-32)
(-1.389174e-06 -9.280703e-07 1.060949e-30)
(-1.244234e-06 -7.89995e-07 -3.61215e-31)
(-1.443199e-06 -5.33132e-07 1.242844e-27)
(-1.558173e-06 -6.211165e-07 -5.373606e-29)
(-1.142109e-07 -4.358079e-07 -5.857488e-31)
(-2.45218e-08 -3.802894e-07 9.797957e-32)
(-3.119708e-07 -5.50647e-07 4.511739e-30)
(-1.761281e-07 -4.076513e-07 -5.858446e-31)
(-5.57243e-07 -6.688303e-07 -1.273208e-30)
(-3.964953e-07 -5.236214e-07 -1.495679e-30)
(-8.227065e-07 -6.959518e-07 -1.723617e-31)
(-6.541743e-07 -5.586086e-07 -1.284949e-30)
(-1.07297e-06 -6.100719e-07 -1.781142e-32)
(-9.174091e-07 -4.960069e-07 -2.086529e-27)
(-1.298174e-06 -3.952143e-07 -3.416002e-31)
(-1.162546e-06 -3.153412e-07 1.702578e-27)
(-1.383234e-06 -6.603994e-09 -1.46788e-27)
(-1.494358e-06 -4.531364e-08 1.962761e-32)
(-8.62783e-08 -3.519355e-07 9.799847e-32)
(-1.198446e-08 -3.418117e-07 -2.441477e-27)
(-2.603403e-07 -3.805596e-07 -7.474778e-31)
(-1.415248e-07 -2.900763e-07 0)
(-4.902632e-07 -4.129886e-07 -2.316962e-30)
(-3.460585e-07 -3.244532e-07 -2.243788e-30)
(-7.507773e-07 -3.581773e-07 -1.852449e-31)
(-5.949256e-07 -2.792226e-07 9.745948e-30)
(-1.007102e-06 -2.011503e-07 2.793629e-31)
(-8.60246e-07 -1.430027e-07 -2.854835e-27)
(-1.247501e-06 7.309561e-08 4.89519e-32)
(-1.119249e-06 1.0255e-07 -2.867385e-31)
(-1.359239e-06 4.653097e-07 3.38315e-32)
(-1.46592e-06 4.707725e-07 -1.590416e-30)
(-6.706563e-08 -2.797558e-07 1.429302e-32)
(-2.522234e-09 -3.080558e-07 1.428644e-32)
(-2.269483e-07 -2.339787e-07 -1.494547e-30)
(-1.186148e-07 -1.871784e-07 -5.500469e-32)
(-4.481231e-07 -1.909041e-07 8.64042e-30)
(-3.162945e-07 -1.495655e-07 -1.494928e-30)
(-7.046323e-07 -6.304082e-08 -2.797156e-28)
(-5.635244e-07 -3.171986e-08 2.306618e-27)
(-9.732363e-07 1.625675e-07 1.238034e-29)
(-8.350179e-07 1.728478e-07 1.399474e-29)
(-1.230925e-06 4.947557e-07 -3.019001e-31)
(-1.109231e-06 4.803049e-07 1.526668e-30)
(-1.367788e-06 8.978099e-07 1.989894e-27)
(-1.470105e-06 9.424198e-07 -6.459423e-31)
(-5.389806e-08 -2.152783e-07 -5.497812e-32)
(5.026494e-09 -2.773443e-07 0)
(-2.077183e-07 -1.028617e-07 -5.501578e-32)
(-1.038099e-07 -9.381421e-08 -3.566686e-27)
(-4.304635e-07 8.537748e-09 1.502764e-30)
(-3.018016e-07 9.393628e-09 -7.476424e-31)
(-6.913391e-07 2.012951e-07 -5.648661e-29)
(-5.554447e-07 1.926168e-07 7.489173e-31)
(-9.7338e-07 4.931032e-07 3.068295e-30)
(-8.386339e-07 4.616548e-07 1.541843e-30)
(-1.246149e-06 8.834612e-07 -1.118984e-28)
(-1.128406e-06 8.309929e-07 1.526005e-30)
(-1.406008e-06 1.303735e-06 1.306062e-30)
(-1.504936e-06 1.382708e-06 2.832657e-30)
(-4.469827e-08 -1.556712e-07 -3.502928e-31)
(1.139605e-08 -2.485056e-07 6.73063e-32)
(-1.9766e-07 1.833087e-08 -1.097768e-30)
(-9.46935e-08 -6.314078e-09 -3.959838e-27)
(-4.262772e-07 1.931203e-07 2.781363e-29)
(-2.98215e-07 1.586503e-07 -2.244455e-30)
(-6.982828e-07 4.487326e-07 -7.669393e-31)
(-5.632152e-07 4.04362e-07 -1.511569e-30)
(-9.967983e-07 8.035775e-07 0)
(-8.629463e-07 7.360228e-07 0)
(-1.288374e-06 1.251492e-06 0)
(-1.172445e-06 1.16581e-06 -1.510146e-30)
(-1.471469e-06 1.694184e-06 -3.071012e-30)
(-1.568243e-06 1.803315e-06 -1.532022e-30)
(-3.839513e-08 -9.892732e-08 1.024822e-28)
(1.704502e-08 -2.206601e-07 -3.61107e-27)
(-1.949933e-07 1.338626e-07 4.697754e-29)
(-8.986059e-08 7.811198e-08 -1.483881e-30)
(-4.346584e-07 3.695139e-07 3.669271e-29)
(-3.036807e-07 3.030198e-07 -3.745194e-30)
(-7.229256e-07 6.862542e-07 -7.68765e-31)
(-5.852964e-07 6.097983e-07 -2.273147e-30)
(-1.042057e-06 1.103137e-06 -1.527701e-30)
(-9.063012e-07 1.003241e-06 0)
(-1.355656e-06 1.608773e-06 1.712855e-28)
(-1.239433e-06 1.493385e-06 -3.621258e-27)
(-1.562785e-06 2.078665e-06 -4.612372e-30)
(-1.658821e-06 2.21448e-06 2.004087e-28)
(-3.419602e-08 -4.338432e-08 1.144056e-28)
(2.23229e-08 -1.930768e-07 -5.491275e-31)
(-1.982653e-07 2.470915e-07 5.361044e-29)
(-8.829764e-08 1.617071e-07 -4.914371e-27)
(-4.537759e-07 5.428331e-07 9.361877e-29)
(-3.167265e-07 4.462756e-07 -2.807501e-30)
(-7.633027e-07 9.203251e-07 -1.540946e-30)
(-6.195426e-07 8.14098e-07 -1.516289e-30)
(-1.107322e-06 1.399003e-06 -1.097899e-31)
(-9.635654e-07 1.26851e-06 1.239956e-29)
(-1.446793e-06 1.963828e-06 -1.653164e-30)
(-1.32339e-06 1.818727e-06 1.548936e-29)
(-1.678392e-06 2.465356e-06 1.566904e-30)
(-1.776031e-06 2.625249e-06 2.353649e-28)
(-3.153048e-08 1.227003e-08 -1.685296e-30)
(2.75163e-08 -1.651345e-07 -4.475035e-27)
(-2.064444e-07 3.606796e-07 -1.769842e-30)
(-8.937734e-08 2.463413e-07 -5.459964e-27)
(-4.819455e-07 7.170519e-07 -5.601246e-31)
(-3.367018e-07 5.915729e-07 -5.204672e-27)
(-8.150778e-07 1.1564e-06 1.228716e-29)
(-6.661357e-07 1.021794e-06 8.409876e-31)
(-1.180958e-06 1.691155e-06 -1.45533e-27)
(-1.038608e-06 1.538242e-06 1.38863e-29)
(-1.557171e-06 2.324956e-06 -6.131825e-28)
(-1.429952e-06 2.151071e-06 1.579254e-29)
(-1.819853e-06 2.861726e-06 1.752093e-30)
(-1.918997e-06 3.044002e-06 3.108747e-30)
(-3.005568e-08 6.921379e-08 -1.459797e-28)
(3.28335e-08 -1.36368e-07 -9.478927e-31)
(-2.192876e-07 4.769839e-07 -7.531267e-29)
(-9.269864e-08 3.334962e-07 -6.098907e-27)
(-5.204194e-07 8.958564e-07 8.27438e-32)
(-3.630883e-07 7.415064e-07 -5.880534e-27)
(-8.868475e-07 1.399364e-06 -1.572536e-28)
(-7.245812e-07 1.236488e-06 -5.594666e-27)
(-1.282333e-06 1.989417e-06 1.68754e-30)
(-1.132586e-06 1.816478e-06 1.541502e-30)
(-1.697251e-06 2.696289e-06 -1.262232e-30)
(-1.561741e-06 2.495989e-06 -4.678192e-27)
(-1.98834e-06 3.274641e-06 4.380938e-27)
(-2.090968e-06 3.477473e-06 3.201454e-28)
(-2.95036e-08 1.282179e-07 -2.764573e-31)
(3.840102e-08 -1.064605e-07 9.980699e-31)
(-2.361106e-07 5.977293e-07 -8.242201e-29)
(-9.796496e-08 4.242476e-07 -2.764977e-31)
(-5.668113e-07 1.081765e-06 -1.992103e-30)
(-3.954145e-07 8.98045e-07 -2.224304e-31)
(-9.692616e-07 1.652258e-06 -1.77312e-30)
(-7.935708e-07 1.461284e-06 -6.262893e-27)
(-1.403092e-06 2.309089e-06 -7.596056e-32)
(-1.24211e-06 2.111004e-06 2.497623e-30)
(-1.859309e-06 3.086306e-06 -4.35608e-32)
(-1.714458e-06 2.86155e-06 -7.757023e-32)
(-2.183234e-06 3.710614e-06 -5.45382e-27)
(-2.290813e-06 3.932978e-06 2.967993e-30)
(-2.971993e-08 1.899011e-07 9.982502e-31)
(4.432603e-08 -7.515223e-08 6.171751e-27)
(-2.568337e-07 7.242286e-07 0)
(-1.050987e-07 5.194054e-07 0)
(-6.21685e-07 1.27714e-06 1.491659e-30)
(-4.338409e-07 1.06272e-06 0)
(-1.065387e-06 1.91876e-06 -2.254979e-28)
(-8.7389e-07 1.698631e-06 7.060365e-27)
(-1.543357e-06 2.647588e-06 2.548937e-30)
(-1.368282e-06 2.423114e-06 6.836064e-27)
(-2.045499e-06 3.498968e-06 -5.581424e-31)
(-1.884606e-06 3.247257e-06 -9.76317e-31)
(-2.399363e-06 4.170431e-06 -5.545241e-31)
(-2.520302e-06 4.417517e-06 -4.121289e-30)
(-3.067417e-08 2.547188e-07 2.475096e-30)
(5.063324e-08 -4.231168e-08 6.842344e-27)
(-2.816193e-07 8.575159e-07 0)
(-1.143129e-07 6.195157e-07 7.482866e-31)
(-6.854969e-07 1.483731e-06 -1.588264e-31)
(-4.78981e-07 1.236728e-06 2.493152e-30)
(-1.175749e-06 2.201754e-06 2.412973e-28)
(-9.668434e-07 1.950602e-06 1.380269e-30)
(-1.70054e-06 3.008849e-06 -8.889601e-32)
(-1.514012e-06 2.756163e-06 6.691201e-27)
(-2.241907e-06 3.925631e-06 -9.824392e-31)
(-2.081265e-06 3.659781e-06 -4.329402e-27)
(-2.649393e-06 4.667085e-06 0)
(-2.777757e-06 4.940775e-06 4.873009e-31)
(-3.258512e-08 3.228902e-07 2.255622e-30)
(5.723966e-08 -7.930218e-09 1.506908e-30)
(-3.111317e-07 9.98294e-07 -1.080331e-28)
(-1.260884e-07 7.247341e-07 -1.412716e-30)
(-7.597203e-07 1.703058e-06 4.031557e-30)
(-5.317952e-07 1.420691e-06 9.017336e-27)
(-1.304227e-06 2.503952e-06 -3.024731e-28)
(-1.073741e-06 2.2186e-06 1.538157e-30)
(-1.888915e-06 3.397597e-06 3.53654e-31)
(-1.680922e-06 3.11246e-06 -8.364078e-27)
(-2.478837e-06 4.383635e-06 -1.279461e-30)
(-2.307956e-06 4.102979e-06 5.172342e-30)
(-2.939069e-06 5.208196e-06 3.347717e-30)
(-3.080396e-06 5.509444e-06 -2.61222e-30)
(-3.579691e-08 3.943648e-07 -2.159254e-30)
(6.385599e-08 2.784118e-08 -2.082838e-30)
(-3.461448e-07 1.146643e-06 -5.108e-32)
(-1.414157e-07 8.347325e-07 -1.029603e-26)
(-8.45132e-07 1.935625e-06 2.111784e-30)
(-5.938282e-07 1.61446e-06 4.558518e-30)
(-1.449669e-06 2.826304e-06 1.328411e-30)
(-1.196289e-06 2.502987e-06 0)
(-2.097938e-06 3.814927e-06 -7.319311e-28)
(-1.869884e-06 3.493804e-06 -1.832268e-30)
(-2.751688e-06 4.898902e-06 -9.75679e-28)
(-2.564752e-06 4.587627e-06 6.410909e-30)
(-3.267838e-06 5.805539e-06 6.731729e-30)
(-3.422181e-06 6.135304e-06 -9.019573e-32)
(-4.124325e-08 4.687062e-07 -4.680764e-30)
(6.986575e-08 6.468106e-08 -9.100305e-27)
(-3.884237e-07 1.302008e-06 -1.531579e-31)
(-1.620236e-07 9.48575e-07 -5.585337e-30)
(-9.442201e-07 2.181142e-06 2.448725e-30)
(-6.678955e-07 1.816971e-06 1.103978e-26)
(-1.615654e-06 3.169607e-06 -3.158052e-30)
(-1.338019e-06 2.802909e-06 0)
(-2.334754e-06 4.263807e-06 8.054682e-28)
(-2.085138e-06 3.900102e-06 -3.158504e-30)
(-3.061905e-06 5.461691e-06 -1.03105e-27)
(-2.855439e-06 5.110453e-06 -2.240819e-30)
(-3.634227e-06 6.454214e-06 -2.168435e-29)
(-3.811869e-06 6.826475e-06 4.414889e-30)
(-5.029317e-08 5.449483e-07 -5.467345e-30)
(7.388703e-08 1.020382e-07 -5.928144e-30)
(-4.407966e-07 1.463036e-06 -6.781639e-32)
(-1.911295e-07 1.06454e-06 -1.293473e-26)
(-1.06084e-06 2.437981e-06 2.921538e-30)
(-7.584658e-07 2.025751e-06 2.919249e-30)
(-1.806549e-06 3.532429e-06 0)
(-1.503983e-06 3.11545e-06 1.120394e-32)
(-2.603901e-06 4.744182e-06 -2.23651e-30)
(-2.331844e-06 4.328034e-06 -3.211664e-30)
(-3.41081e-06 6.074254e-06 -2.698003e-29)
(-3.186017e-06 5.667819e-06 -8.473204e-27)
(-4.05306e-06 7.155612e-06 1.105266e-27)
(-4.236028e-06 7.565779e-06 6.145526e-27)
(-6.611231e-08 6.215788e-07 -7.10546e-28)
(7.48458e-08 1.390297e-07 -9.965515e-27)
(-5.081615e-07 1.626941e-06 -4.29173e-30)
(-2.316377e-07 1.178711e-06 -4.302413e-30)
(-1.200665e-06 2.7024e-06 1.119477e-32)
(-8.715611e-07 2.236528e-06 -5.420904e-30)
(-2.028226e-06 3.909977e-06 8.849765e-28)
(-1.701025e-06 3.435097e-06 1.334517e-26)
(-2.912352e-06 5.249504e-06 -5.242808e-30)
(-2.615406e-06 4.769688e-06 -6.609323e-30)
(-3.816506e-06 6.729275e-06 -1.262702e-27)
(-3.557495e-06 6.246729e-06 -1.317773e-26)
(-4.515638e-06 7.885156e-06 -1.382669e-26)
(-4.736807e-06 8.36622e-06 -6.654974e-27)
(-8.889602e-08 6.933788e-07 -3.368642e-30)
(6.921542e-08 1.727542e-07 -3.337973e-30)
(-5.952868e-07 1.789607e-06 -5.434416e-30)
(-2.927887e-07 1.286821e-06 0)
(-1.371055e-06 2.968634e-06 4.038436e-28)
(-1.017874e-06 2.442733e-06 -1.596199e-26)
(-2.287011e-06 4.293648e-06 -1.25894e-30)
(-1.939959e-06 3.753632e-06 2.136358e-30)
(-3.259183e-06 5.765362e-06 -9.597262e-30)
(-2.944357e-06 5.214395e-06 -1.465708e-26)
(-4.252671e-06 7.396561e-06 -8.913117e-30)
(-3.971706e-06 6.832596e-06 -1.482324e-26)
(-5.013867e-06 8.631596e-06 4.772379e-31)
(-5.270404e-06 9.209836e-06 -5.933577e-30)
(-1.308147e-07 7.577493e-07 0)
(5.294634e-08 2.011498e-07 -5.66203e-30)
(-7.166503e-07 1.942906e-06 -9.031033e-30)
(-3.844638e-07 1.381823e-06 4.048533e-30)
(-1.58629e-06 3.227778e-06 -8.997181e-30)
(-1.20791e-06 2.631699e-06 -1.940678e-26)
(-2.595995e-06 4.673178e-06 -7.936249e-30)
(-2.236829e-06 4.059937e-06 0)
(-3.65538e-06 6.280027e-06 -1.157979e-29)
(-3.334953e-06 5.650385e-06 -1.629545e-26)
(-4.729723e-06 8.063037e-06 -4.702137e-31)
(-4.442464e-06 7.411718e-06 -3.635206e-30)
(-5.55675e-06 9.369341e-06 1.294684e-26)
(-5.826847e-06 1.004871e-05 3.223904e-30)
(-1.961199e-07 8.157763e-07 -2.076987e-27)
(2.07668e-08 2.229234e-07 -1.319503e-26)
(-8.741366e-07 2.06891e-06 8.500123e-30)
(-5.225949e-07 1.455381e-06 1.426638e-26)
(-1.86125e-06 3.468245e-06 4.424913e-30)
(-1.463536e-06 2.790111e-06 3.218211e-26)
(-2.975177e-06 5.037044e-06 -4.619886e-30)
(-2.609102e-06 4.332915e-06 1.335536e-29)
(-4.12043e-06 6.780441e-06 -4.618794e-30)
(-3.810686e-06 6.062664e-06 -6.475308e-30)
(-5.266862e-06 8.714451e-06 -3.175772e-30)
(-4.991129e-06 7.969482e-06 3.438216e-30)
(-6.160249e-06 1.008388e-05 -6.699301e-30)
(-6.435089e-06 1.086814e-05 5.087939e-27)
(-3.022131e-07 8.58245e-07 1.173442e-30)
(-3.651712e-08 2.330202e-07 -4.589142e-30)
(-1.102817e-06 2.165022e-06 2.370598e-29)
(-7.312324e-07 1.500769e-06 7.102127e-30)
(-2.210816e-06 3.653895e-06 3.095907e-29)
(-1.824956e-06 2.906042e-06 1.366793e-26)
(-3.451721e-06 5.368312e-06 -1.776457e-27)
(-3.104881e-06 4.559841e-06 4.268476e-26)
(-4.680293e-06 7.25106e-06 1.579845e-30)
(-4.407525e-06 6.43269e-06 -2.431736e-26)
(-5.882494e-06 9.336628e-06 -1.404456e-27)
(-5.645008e-06 8.488489e-06 1.041747e-29)
(-6.840698e-06 1.076077e-05 1.082717e-29)
(-7.093366e-06 1.165584e-05 5.944133e-27)
(-4.638477e-07 8.757323e-07 1.123173e-27)
(-1.285718e-07 2.244256e-07 4.424181e-34)
(-1.443762e-06 2.232116e-06 1.087102e-29)
(-1.034294e-06 1.504436e-06 -1.993495e-33)
(-2.696924e-06 3.787582e-06 -4.557596e-28)
(-2.323459e-06 2.968602e-06 1.48948e-29)
(-4.073515e-06 5.644818e-06 1.633447e-27)
(-3.753285e-06 4.723131e-06 -1.355143e-29)
(-5.372343e-06 7.671808e-06 -5.930226e-30)
(-5.146712e-06 6.729331e-06 -4.7536e-29)
(-6.601046e-06 9.910439e-06 -2.79612e-27)
(-6.426814e-06 8.949306e-06 6.187181e-30)
(-7.611992e-06 1.138024e-05 1.432776e-29)
(-7.812952e-06 1.239027e-05 -6.088468e-27)
(-6.974025e-07 8.540129e-07 -1.229805e-27)
(-2.646255e-07 1.89513e-07 -5.704737e-31)
(-1.91016e-06 2.23789e-06 3.994791e-30)
(-1.450693e-06 1.444144e-06 -7.543672e-31)
(-3.35405e-06 3.872325e-06 -4.312062e-28)
(-2.984921e-06 2.958535e-06 1.928417e-26)
(-4.8359e-06 5.815555e-06 3.498773e-27)
(-4.585666e-06 4.802005e-06 1.599347e-26)
(-6.21369e-06 8.023545e-06 3.391663e-27)
(-6.052975e-06 6.936663e-06 8.462947e-30)
(-7.437374e-06 1.042005e-05 -8.003645e-31)
(-7.330228e-06 9.317227e-06 4.415071e-26)
(-8.474914e-06 1.19211e-05 0)
(-8.60091e-06 1.304789e-05 -1.727153e-30)
(-1.016083e-06 7.80777e-07 0)
(-4.491462e-07 1.200923e-07 -1.137404e-30)
(-2.52219e-06 2.16297e-06 8.951364e-30)
(-1.98432e-06 1.30381e-06 1.510511e-30)
(-4.195937e-06 3.871653e-06 2.417173e-29)
(-3.795278e-06 2.860132e-06 1.212338e-29)
(-5.778983e-06 5.897013e-06 1.84086e-27)
(-5.565512e-06 4.804205e-06 1.519472e-29)
(-7.178189e-06 8.237027e-06 -2.69135e-27)
(-7.114238e-06 7.061368e-06 1.487139e-26)
(-8.383634e-06 1.084529e-05 3.623819e-29)
(-8.37648e-06 9.589466e-06 2.903589e-29)
(-9.440603e-06 1.234345e-05 -1.540177e-29)
(-9.457759e-06 1.359879e-05 -5.5278e-30)
(-1.415297e-06 6.4454e-07 -2.890369e-27)
(-6.777691e-07 1.333114e-08 -9.182534e-30)
(-3.254535e-06 1.999753e-06 -5.567373e-29)
(-2.599013e-06 1.087721e-06 3.023852e-30)
(-5.159176e-06 3.789269e-06 3.170958e-30)
(-4.6862e-06 2.690304e-06 -8.038941e-30)
(-6.873425e-06 5.943783e-06 1.861862e-29)
(-6.627845e-06 4.747078e-06 0)
(-8.274453e-06 8.361333e-06 1.195632e-29)
(-8.256114e-06 7.109715e-06 3.068209e-26)
(-9.450544e-06 1.114378e-05 1.219507e-27)
(-9.535401e-06 9.726106e-06 -4.911739e-29)
(-1.055854e-05 1.252209e-05 -9.312981e-29)
(-1.044007e-05 1.39656e-05 1.023787e-26)
(-1.859204e-06 4.58247e-07 3.187135e-27)
(-9.326855e-07 -1.12409e-07 -8.050935e-27)
(-4.027732e-06 1.77726e-06 -9.674511e-30)
(-3.220397e-06 8.355321e-07 -9.640772e-30)
(-6.151321e-06 3.646436e-06 -1.120862e-29)
(-5.566611e-06 2.47433e-06 -1.713228e-26)
(-8.003036e-06 5.906014e-06 1.758904e-29)
(-7.700925e-06 4.600924e-06 -6.675015e-30)
(-9.482541e-06 8.401007e-06 3.950538e-27)
(-9.480552e-06 7.00505e-06 3.530092e-30)
(-1.066481e-05 1.112865e-05 -3.452382e-27)
(-1.09053e-05 9.579085e-06 1.966523e-26)
(-1.202436e-05 1.228583e-05 -1.114675e-28)
(-1.169371e-05 1.397402e-05 3.013113e-26)
(-2.290703e-06 2.66551e-07 3.600512e-27)
(-1.179056e-06 -2.215245e-07 -9.097262e-30)
(-4.757153e-06 1.532122e-06 -2.372457e-29)
(-3.770375e-06 5.906072e-07 -9.716129e-27)
(-7.112896e-06 3.427492e-06 -1.924536e-29)
(-6.382992e-06 2.197177e-06 1.242932e-30)
(-9.172902e-06 5.696635e-06 -2.300448e-27)
(-8.768307e-06 4.283824e-06 -3.321942e-30)
(-1.08677e-05 8.149144e-06 -2.860557e-27)
(-1.081393e-05 6.593242e-06 -3.44974e-29)
(-1.221557e-05 1.067934e-05 -2.536052e-27)
(-1.251046e-05 8.985531e-06 -1.847593e-29)
(-1.390846e-05 1.143726e-05 -3.316502e-29)
(-1.34359e-05 1.338483e-05 1.52068e-26)
(-2.647759e-06 1.01669e-07 1.037562e-29)
(-1.383304e-06 -2.917749e-07 1.239523e-29)
(-5.399475e-06 1.257138e-06 -1.313206e-27)
(-4.204778e-06 3.533165e-07 -1.505644e-26)
(-8.036822e-06 3.053458e-06 1.40946e-27)
(-7.106492e-06 1.780499e-06 9.925737e-27)
(-1.040525e-05 5.179158e-06 -1.708745e-29)
(-9.842982e-06 3.667553e-06 3.359311e-29)
(-1.24467e-05 7.422155e-06 -5.902231e-27)
(-1.228952e-05 5.703249e-06 -2.374274e-26)
(-1.416022e-05 9.655085e-06 -7.721791e-30)
(-1.443773e-05 7.747683e-06 1.609683e-32)
(-1.635952e-05 9.688808e-06 -2.720705e-30)
(-1.570369e-05 1.185975e-05 2.026475e-30)
(-2.916978e-06 -4.212553e-08 3.080663e-29)
(-1.530762e-06 -3.229193e-07 -1.662166e-26)
(-5.906443e-06 8.722537e-07 -9.987137e-27)
(-4.515186e-06 8.904292e-08 1.687955e-29)
(-8.924345e-06 2.398416e-06 3.332181e-29)
(-7.720089e-06 1.1101e-06 2.883903e-30)
(-1.17262e-05 4.192206e-06 8.074142e-30)
(-1.089845e-05 2.592827e-06 2.499178e-26)
(-1.427247e-05 6.028151e-06 -6.494826e-27)
(-1.390256e-05 4.165262e-06 1.127915e-29)
(-1.657353e-05 7.77189e-06 4.876834e-30)
(-1.665621e-05 5.674606e-06 1.304799e-26)
(-1.911198e-05 7.058059e-06 3.887734e-30)
(-1.853326e-05 1.092497e-05 1.453248e-29)
(-3.111941e-06 -1.899975e-07 -4.313552e-27)
(-1.607092e-06 -3.40728e-07 -1.899208e-30)
(-6.295397e-06 3.188979e-07 -1.494626e-30)
(-4.706974e-06 -2.596146e-07 1.414027e-30)
(-9.697156e-06 1.297613e-06 2.15271e-30)
(-8.220059e-06 9.285563e-08 3.088302e-30)
(-1.309907e-05 2.564492e-06 3.600833e-29)
(-1.189263e-05 8.915738e-07 4.969903e-26)
(-1.628631e-05 3.813029e-06 5.904928e-29)
(-1.554225e-05 1.821931e-06 -1.52796e-26)
(-1.917378e-05 8.387527e-06 3.594504e-23)
(-1.886841e-05 2.697888e-06 1.002854e-29)
(-2.122461e-05 3.612436e-06 -2.244576e-29)
(-2.124666e-05 2.625378e-05 8.020722e-30)
(-3.198695e-06 -4.070829e-07 -1.121469e-29)
(-1.582101e-06 -3.827156e-07 4.311233e-26)
(-6.602967e-06 -4.814245e-07 3.364568e-27)
(-4.786853e-06 -7.96427e-07 2.880501e-30)
(-1.03678e-05 -3.132574e-07 -5.657227e-29)
(-8.625464e-06 -1.332895e-06 8.918952e-30)
(-1.435257e-05 1.307817e-07 -6.086167e-26)
(-1.279395e-05 -1.488057e-06 -5.338274e-29)
(-1.823109e-05 4.225225e-06 2.983729e-29)
(-1.673226e-05 -1.398087e-06 -3.065382e-23)
(-2.135568e-05 2.600662e-05 -5.190367e-22)
(-1.983827e-05 -1.048744e-06 -7.181847e-29)
(-2.135486e-05 -4.230624e-07 1.567181e-22)
(-2.312033e-05 7.240473e-05 -8.238073e-30)
(-3.168345e-06 -7.687012e-07 -1.484545e-29)
(-1.460721e-06 -5.198281e-07 -1.484747e-29)
(-6.805024e-06 -1.644415e-06 5.85882e-30)
(-4.803812e-06 -1.647527e-06 5.534339e-30)
(-1.100495e-05 -2.482591e-06 1.580622e-26)
(-8.987146e-06 -3.276526e-06 1.364584e-29)
(-1.540637e-05 -3.631536e-07 -1.92626e-30)
(-1.351344e-05 -4.457037e-06 7.745477e-31)
(-1.843192e-05 1.898656e-05 -1.740734e-21)
(-1.741977e-05 -5.399271e-06 -1.143961e-29)
(-2.1874e-05 6.934639e-05 -6.628691e-29)
(-1.48376e-05 -4.639706e-06 -8.821139e-29)
(-1.817405e-05 -4.855154e-06 -6.228441e-29)
(-2.285494e-05 0.0001460654 -1.795931e-29)
(-3.086362e-06 -1.393734e-06 5.523377e-30)
(-1.335787e-06 -8.435784e-07 0)
(-6.992409e-06 -3.283492e-06 7.349551e-27)
(-4.888799e-06 -2.934057e-06 7.700061e-30)
(-1.157224e-05 -3.993977e-06 2.38094e-30)
(-9.307414e-06 -5.748533e-06 1.12309e-29)
(-1.615115e-05 1.233414e-05 -1.995224e-22)
(-1.355246e-05 -7.948422e-06 2.418445e-32)
(-1.9306e-05 5.832988e-05 -3.349394e-29)
(-1.68511e-05 -9.723916e-06 -3.847304e-30)
(-1.325264e-05 0.0001329556 -1.091587e-20)
(-1.722966e-05 -1.066502e-05 -3.235044e-22)
(3.366118e-06 -6.053504e-06 -5.766148e-29)
(-1.97402e-05 0.000238679 -1.875236e-29)
(-3.117416e-06 -2.368621e-06 2.120124e-30)
(-1.33011e-06 -1.372263e-06 -1.447623e-29)
(-7.263022e-06 -5.421511e-06 5.510322e-30)
(-5.15443e-06 -4.63783e-06 2.195809e-29)
(-1.173893e-05 1.656688e-06 8.941592e-30)
(-9.568014e-06 -8.688322e-06 8.759291e-30)
(-1.603073e-05 4.448924e-05 4.775487e-30)
(-1.065596e-05 -1.149774e-05 1.180588e-29)
(-1.903463e-05 0.0001186364 1.632766e-29)
(-1.372723e-05 -1.418664e-05 -1.753861e-30)
(-1.764191e-05 0.0002198934 1.344064e-29)
(-1.513292e-05 -1.604935e-05 3.581739e-29)
(-1.098746e-05 -1.66718e-05 2.963941e-29)
(8.093013e-06 0.0003421612 1.451576e-29)
(-3.352598e-06 -3.618797e-06 1.503865e-27)
(-1.45438e-06 -2.070244e-06 8.754634e-26)
(-7.67552e-06 -3.690504e-06 2.500695e-29)
(-5.441736e-06 -6.606983e-06 -5.802223e-24)
(-1.201172e-05 2.306711e-05 3.627564e-22)
(-9.48023e-06 -1.172744e-05 -1.240217e-29)
(-1.289074e-05 8.86482e-05 5.25085e-30)
(-1.199106e-05 -1.602955e-05 6.100402e-30)
(-1.663132e-05 0.0001910753 1.795333e-29)
(6.561215e-08 -1.691945e-05 1.601247e-29)
(-1.5622e-05 0.0003199251 5.141778e-29)
(-8.478507e-06 -2.128093e-05 -7.981223e-22)
(-2.941857e-06 -2.278872e-05 -2.527971e-21)
(-1.051778e-05 0.0004695657 2.475024e-29)
(-3.664498e-06 -4.718632e-06 4.031879e-30)
(-1.596142e-06 -2.870988e-06 -2.47061e-29)
(-8.046395e-06 8.290347e-06 -1.498402e-31)
(-5.425906e-06 -8.742926e-06 2.112023e-29)
(-1.203221e-05 5.923556e-05 -1.771326e-29)
(-8.66442e-06 -1.483912e-05 9.831092e-23)
(-1.400304e-05 0.0001460217 1.677735e-29)
(-1.078967e-05 -2.012759e-05 -7.676291e-30)
(-4.561192e-06 0.0002679872 3.300415e-29)
(-1.040206e-05 -2.459967e-05 -4.931459e-22)
(5.181197e-06 0.0004152129 5.065761e-29)
(-9.022979e-06 -2.83472e-05 1.646286e-29)
(5.340536e-05 -1.838728e-05 3.490163e-29)
(-3.268645e-06 0.0005953504 -3.878947e-29)
(-3.834771e-06 -2.193079e-06 -7.589867e-30)
(-1.550857e-06 -3.683646e-06 6.606445e-24)
(-8.054586e-06 2.979523e-05 -2.930364e-29)
(-4.824777e-06 -1.088683e-05 1.774387e-30)
(-1.158771e-05 0.0001027103 -4.046724e-29)
(-6.958802e-06 -1.795112e-05 1.757555e-22)
(-1.34061e-05 0.000212679 -4.944518e-21)
(-7.78947e-06 -2.414874e-05 -1.184181e-29)
(-1.171089e-05 0.0003539349 1.927436e-29)
(-7.341848e-06 -2.972509e-05 -6.235544e-22)
(-5.755903e-06 0.0005194457 1.138341e-30)
(-6.138183e-06 -3.509687e-05 2.137191e-29)
(4.791919e-06 -4.228971e-05 4.745974e-29)
(2.789192e-05 0.000704222 3.156762e-32)
(-3.742505e-06 5.95117e-06 -3.611136e-23)
(-1.278586e-06 -4.450925e-06 -1.343481e-29)
(-7.519314e-06 5.527566e-05 -3.666816e-22)
(-3.694131e-06 -1.29147e-05 -2.616618e-30)
(-1.068444e-05 0.0001471135 -6.779829e-30)
(-3.969936e-06 -2.089322e-05 -2.850684e-22)