/*--------------------------------*- C++ -*----------------------------------*\
| =========                 |                                                 |
| \\      /  F ield         | OpenFOAM: The Open Source CFD Toolbox           |
|  \\    /   O peration     | Version:  2206                                  |
|   \\  /    A nd           | Website:  www.openfoam.com                      |
|    \\/     M anipulation  |                                                 |
\*---------------------------------------------------------------------------*/
FoamFile
{
    version     2.0;
    format      ascii;
    arch        "LSB;label=32;scalar=64";
    class       surfaceVectorField;
    location    "2.8";
    object      Ufb;
}
// * * * * * * * * * * * * * * * * * * * * * * * * * * * * * * * * * * * * * //

dimensions      [0 1 -1 0 0 0 0];

internalField   nonuniform List<vector> 
26037
(
(-3.325358e-06 0.0001541068 1.801384e-21)
(5.152941e-05 3.78135e-05 -4.293308e-27)
(-2.266139e-06 6.47972e-05 -1.425871e-22)
(1.961492e-05 6.675918e-05 5.206659e-24)
(-2.113246e-06 2.261841e-05 2.135932e-27)
(5.229305e-06 3.963836e-05 2.140782e-27)
(-1.953952e-06 7.690823e-06 2.923679e-28)
(-1.219737e-06 1.747542e-05 0)
(-1.890437e-06 2.161324e-06 9.823147e-24)
(-1.254975e-06 5.85565e-06 2.913066e-28)
(-1.971689e-06 -1.659189e-06 2.884637e-28)
(-1.247466e-06 5.844797e-07 -1.030672e-26)
(-1.471382e-06 -3.149121e-06 1.048505e-28)
(-2.124511e-06 -4.947398e-06 2.804583e-24)
(2.151783e-05 8.053802e-05 -2.051593e-29)
(0.0001166728 1.261334e-05 2.819561e-27)
(7.093834e-06 4.85333e-05 -2.071311e-29)
(4.146978e-05 4.432762e-05 -1.498153e-27)
(2.092516e-06 2.108888e-05 0)
(1.217664e-05 2.978802e-05 -5.101197e-28)
(-1.32622e-07 8.629508e-06 -1.026619e-30)
(3.475624e-06 1.426191e-05 -7.275601e-28)
(-3.413889e-07 2.615142e-06 -1.287711e-30)
(1.514032e-06 5.640032e-06 9.628578e-26)
(-6.754804e-07 -1.585569e-06 -4.340023e-31)
(5.811903e-07 5.772943e-07 -2.614222e-31)
(-1.550289e-07 -3.238235e-06 1.226151e-26)
(-1.088479e-06 -4.999666e-06 3.759948e-29)
(6.514652e-05 3.603633e-05 1.334622e-27)
(5.852832e-05 9.515368e-06 2.662318e-22)
(2.620578e-05 2.668059e-05 -2.009644e-27)
(2.987378e-05 2.217756e-05 -9.046551e-23)
(9.019835e-06 1.576729e-05 -8.148903e-24)
(1.464539e-05 1.717259e-05 -1.752308e-27)
(3.809567e-06 7.842635e-06 -8.156228e-24)
(7.517193e-06 1.033413e-05 -1.130298e-27)
(1.999049e-06 2.460129e-06 -2.460428e-28)
(4.342594e-06 4.642202e-06 -2.126188e-25)
(9.358819e-07 -1.689358e-06 5.066246e-34)
(2.533336e-06 1.985408e-07 0)
(1.30504e-06 -3.484674e-06 -1.727145e-26)
(1.153179e-07 -5.112684e-06 -2.852388e-29)
(4.019927e-05 1.670825e-05 -5.101594e-28)
(3.851132e-05 5.675943e-06 1.427983e-27)
(2.250879e-05 1.590804e-05 -3.186678e-27)
(2.549055e-05 1.250423e-05 -3.741203e-23)
(1.218478e-05 1.142745e-05 3.379499e-25)
(1.630478e-05 1.102554e-05 -4.600531e-24)
(7.054378e-06 6.376259e-06 -3.929555e-28)
(1.041083e-05 7.432008e-06 6.503308e-24)
(4.400153e-06 1.853536e-06 7.524742e-30)
(6.807221e-06 3.386286e-06 4.718582e-28)
(2.704272e-06 -2.006945e-06 1.700938e-30)
(4.504265e-06 -4.569633e-07 -1.056163e-32)
(2.882392e-06 -3.902398e-06 -5.040522e-29)
(1.475318e-06 -5.339795e-06 1.704332e-29)
(3.046518e-05 9.418287e-06 -7.590668e-25)
(3.115722e-05 3.690283e-06 2.649643e-30)
(2.125856e-05 1.041099e-05 -7.478491e-25)
(2.398671e-05 7.901807e-06 -7.424373e-28)
(1.43193e-05 8.140822e-06 -1.927475e-27)
(1.753227e-05 7.454975e-06 -1.116937e-27)
(9.669783e-06 4.663666e-06 -2.92339e-25)
(1.259572e-05 5.108373e-06 1.177533e-25)
(6.627958e-06 9.807385e-07 -4.133245e-25)
(9.066334e-06 2.00082e-06 -1.980313e-24)
(4.555081e-06 -2.536901e-06 -4.33697e-25)
(6.503562e-06 -1.30229e-06 6.61413e-29)
(4.573075e-06 -4.511093e-06 1.018815e-26)
(2.970945e-06 -5.73766e-06 -5.210604e-29)
(2.687936e-05 5.838737e-06 -7.578786e-30)
(2.783734e-05 2.392375e-06 0)
(2.118707e-05 6.913018e-06 4.972959e-25)
(2.344395e-05 5.083247e-06 -6.205513e-28)
(1.59769e-05 5.541857e-06 -6.551147e-25)
(1.871877e-05 4.843013e-06 -4.276812e-28)
(1.190172e-05 2.92248e-06 3.341216e-25)
(1.457757e-05 3.10512e-06 -3.413083e-28)
(8.801425e-06 -1.433564e-07 5.349394e-29)
(1.121855e-05 5.084004e-07 -1.890089e-25)
(6.447956e-06 -3.2969e-06 -2.324301e-25)
(8.547625e-06 -2.377285e-06 6.332149e-29)
(6.36652e-06 -5.33031e-06 3.832754e-29)
(4.588216e-06 -6.348784e-06 4.038593e-25)
(2.541503e-05 3.590924e-06 -6.12647e-28)
(2.6365e-05 1.483484e-06 1.269251e-27)
(2.157645e-05 4.315199e-06 -1.050787e-27)
(2.352028e-05 3.038557e-06 -5.061485e-24)
(1.756598e-05 3.307668e-06 -3.973234e-24)
(1.999741e-05 2.694035e-06 -2.703669e-24)
(1.395501e-05 1.188427e-06 -2.852309e-28)
(1.649928e-05 1.205847e-06 8.861923e-29)
(1.094772e-05 -1.480917e-06 1.806634e-25)
(1.333905e-05 -1.066833e-06 -1.165351e-27)
(8.423091e-06 -4.341507e-06 -3.839632e-30)
(1.062332e-05 -3.698471e-06 -3.57713e-30)
(8.251992e-06 -6.432041e-06 4.480318e-30)
(6.288042e-06 -7.208331e-06 -5.508196e-30)
(2.505839e-05 2.041094e-06 6.712709e-28)
(2.602612e-05 8.260462e-07 9.691591e-24)
(2.232041e-05 2.247833e-06 -1.136881e-27)
(2.408587e-05 1.459528e-06 6.085861e-28)
(1.914128e-05 1.299817e-06 -5.439382e-28)
(2.134944e-05 8.407542e-07 1.495007e-29)
(1.594505e-05 -5.942213e-07 -7.989173e-28)
(1.836954e-05 -6.291834e-07 -1.633622e-30)
(1.304869e-05 -3.007229e-06 -7.927015e-28)
(1.542797e-05 -2.74251e-06 -1.494967e-24)
(1.045472e-05 -5.667513e-06 9.216298e-26)
(1.271359e-05 -5.210751e-06 4.525546e-30)
(1.020088e-05 -7.831588e-06 4.511295e-30)
(8.093069e-06 -8.37605e-06 -6.606037e-29)
(2.545015e-05 9.038504e-07 1.206406e-27)
(2.649466e-05 3.241687e-07 -7.195722e-24)
(2.339612e-05 5.730239e-07 1.760278e-27)
(2.507127e-05 1.786095e-07 6.024279e-24)
(2.07864e-05 -5.416884e-07 2.912858e-25)
(2.288536e-05 -8.148345e-07 2.110479e-24)
(1.793186e-05 -2.391086e-06 -1.741211e-27)
(2.029022e-05 -2.401129e-06 -1.062903e-27)
(1.514894e-05 -4.687629e-06 1.5443e-25)
(1.753305e-05 -4.501927e-06 -1.853546e-24)
(1.2498e-05 -7.233811e-06 4.268775e-30)
(1.48306e-05 -6.911646e-06 4.267459e-30)
(1.219893e-05 -9.471106e-06 0)
(9.980134e-06 -9.854284e-06 2.432008e-28)
(2.642865e-05 2.807571e-08 -4.377539e-29)
(2.759075e-05 -8.374636e-08 -1.288993e-27)
(2.480485e-05 -8.687157e-07 1.830077e-27)
(2.649039e-05 -9.079569e-07 1.245918e-27)
(2.258613e-05 -2.259584e-06 -4.594449e-28)
(2.465658e-05 -2.324651e-06 1.824082e-27)
(1.998314e-05 -4.204524e-06 -1.053476e-27)
(2.233172e-05 -4.139111e-06 -3.01403e-24)
(1.728829e-05 -6.503417e-06 -1.56107e-31)
(1.970739e-05 -6.342135e-06 2.233064e-24)
(1.458623e-05 -9.019777e-06 0)
(1.700493e-05 -8.787236e-06 0)
(1.42593e-05 -1.135549e-05 0)
(1.190988e-05 -1.161039e-05 3.133528e-28)
(2.792255e-05 -7.131773e-07 0)
(2.924074e-05 -4.329892e-07 0)
(2.656567e-05 -2.1536e-06 1.239494e-27)
(2.833013e-05 -1.875826e-06 -1.398705e-27)
(2.459931e-05 -3.895036e-06 1.255092e-28)
(2.67147e-05 -3.746687e-06 4.204907e-24)
(2.216256e-05 -6.043089e-06 -1.133205e-27)
(2.456057e-05 -5.869181e-06 8.620631e-29)
(1.951592e-05 -8.446436e-06 2.668448e-31)
(2.201057e-05 -8.268059e-06 -2.65433e-24)
(1.675014e-05 -1.101546e-05 0)
(1.928017e-05 -1.083395e-05 0)
(1.640978e-05 -1.34799e-05 9.064899e-28)
(1.391445e-05 -1.363614e-05 -3.193878e-28)
(2.989911e-05 -1.370803e-06 -1.398123e-27)
(3.140434e-05 -7.513207e-07 0)
(2.869852e-05 -3.348408e-06 -6.786464e-29)
(3.059966e-05 -2.781731e-06 -5.027477e-24)
(2.688076e-05 -5.492011e-06 2.562447e-27)
(2.910591e-05 -5.130581e-06 1.324791e-27)
(2.45325e-05 -7.926036e-06 -9.652453e-26)
(2.703883e-05 -7.622252e-06 3.655704e-24)
(2.188669e-05 -1.052071e-05 -1.138523e-27)
(2.450388e-05 -1.029471e-05 -2.37638e-27)
(1.903114e-05 -1.321954e-05 9.061778e-28)
(2.170717e-05 -1.305825e-05 1.108132e-27)
(1.868879e-05 -1.584849e-05 2.125443e-24)
(1.60223e-05 -1.593218e-05 -1.73677e-26)
(3.235113e-05 -1.988222e-06 -1.513029e-27)
(3.407148e-05 -1.057116e-06 -1.678214e-27)
(3.123097e-05 -4.505856e-06 -1.448702e-26)
(3.331761e-05 -3.667226e-06 -1.513276e-27)
(2.948121e-05 -7.092955e-06 1.323897e-27)
(3.187398e-05 -6.519427e-06 -1.846036e-29)
(2.715322e-05 -9.878971e-06 9.044549e-29)
(2.982289e-05 -9.430826e-06 1.333043e-27)
(2.445797e-05 -1.274174e-05 -1.277365e-28)
(2.724967e-05 -1.244228e-05 -3.685369e-24)
(2.147668e-05 -1.564066e-05 1.10883e-27)
(2.433957e-05 -1.547593e-05 3.006692e-24)
(2.114094e-05 -1.847337e-05 -2.569736e-24)
(1.827018e-05 -1.850607e-05 6.831626e-31)
(3.528987e-05 -2.595538e-06 -1.678538e-27)
(3.725383e-05 -1.363395e-06 -5.75805e-24)
(3.419539e-05 -5.667494e-06 -1.039614e-29)
(3.65119e-05 -4.564405e-06 0)
(3.244645e-05 -8.737476e-06 -3.269339e-26)
(3.506337e-05 -7.954291e-06 -3.595416e-29)
(3.008293e-05 -1.192602e-05 -2.760745e-27)
(3.296258e-05 -1.134313e-05 1.851393e-27)
(2.72882e-05 -1.513349e-05 -1.494021e-27)
(3.031384e-05 -1.471408e-05 -4.852592e-24)
(2.41367e-05 -1.8296e-05 1.515858e-28)
(2.722981e-05 -1.810472e-05 1.227939e-27)
(2.381446e-05 -2.137337e-05 1.22261e-28)
(2.070038e-05 -2.137308e-05 -2.34522e-28)
(3.874166e-05 -3.214762e-06 -1.838241e-27)
(4.097916e-05 -1.679438e-06 -1.837394e-27)
(3.763423e-05 -6.868584e-06 -2.552985e-29)
(4.022165e-05 -5.496201e-06 -1.981329e-27)
(3.583032e-05 -1.047172e-05 -5.003602e-26)
(3.873513e-05 -9.457649e-06 -2.553636e-29)
(3.341959e-05 -1.409566e-05 9.554041e-26)
(3.657259e-05 -1.3359e-05 4.552533e-24)
(3.045422e-05 -1.771174e-05 -1.137533e-27)
(3.379575e-05 -1.719055e-05 -1.088195e-27)
(2.706829e-05 -2.120683e-05 1.198782e-27)
(3.044753e-05 -2.097918e-05 6.850252e-29)
(2.676409e-05 -2.45768e-05 3.565911e-24)
(2.336027e-05 -2.455557e-05 2.220652e-27)
(4.27427e-05 -3.861203e-06 -1.980372e-27)
(4.528626e-05 -2.013067e-06 0)
(4.159031e-05 -8.129104e-06 -1.981728e-27)
(4.448777e-05 -6.483973e-06 -6.48865e-24)
(3.971367e-05 -1.229342e-05 1.844724e-27)
(4.291797e-05 -1.105992e-05 -1.798731e-29)
(3.718395e-05 -1.642113e-05 -6.687295e-26)
(4.062803e-05 -1.550552e-05 1.82144e-27)
(3.396717e-05 -2.052557e-05 1.243346e-28)
(3.765495e-05 -1.989566e-05 5.569561e-29)
(3.032266e-05 -2.441111e-05 -1.096329e-25)
(3.403706e-05 -2.413534e-05 6.847277e-29)
(3.004089e-05 -2.811898e-05 1.417246e-27)
(2.629888e-05 -2.808593e-05 1.510474e-27)
(4.734056e-05 -4.550852e-06 -4.3808e-27)
(5.022731e-05 -2.371312e-06 -2.481994e-27)
(4.611288e-05 -9.483134e-06 -4.401784e-27)
(4.936794e-05 -7.547961e-06 -7.131789e-24)
(4.411222e-05 -1.427335e-05 2.40023e-26)
(4.768291e-05 -1.279752e-05 -5.971219e-29)
(4.139899e-05 -1.897209e-05 -2.562671e-29)
(4.521798e-05 -1.787058e-05 -5.43687e-29)
(3.791724e-05 -2.360548e-05 0)
(4.199869e-05 -2.284465e-05 0)
(3.395949e-05 -2.794299e-05 0)
(3.806458e-05 -2.760588e-05 -1.962337e-27)
(3.370111e-05 -3.203865e-05 -2.119751e-28)
(2.956761e-05 -3.200119e-05 -1.057851e-28)
(5.259384e-05 -5.295762e-06 1.035601e-26)
(5.586444e-05 -2.759992e-06 -8.081755e-24)
(5.126559e-05 -1.094998e-05 7.200353e-26)
(5.492567e-05 -8.704349e-06 -5.148911e-27)
(4.910162e-05 -1.642627e-05 4.338326e-26)
(5.309516e-05 -1.469135e-05 -1.135591e-28)
(4.615693e-05 -2.176076e-05 -2.961002e-29)
(5.041289e-05 -2.045999e-05 -9.592224e-29)
(4.236486e-05 -2.698464e-05 -1.985149e-27)
(4.689622e-05 -2.607841e-05 0)
(3.804e-05 -3.184406e-05 2.226306e-25)
(4.260147e-05 -3.142595e-05 -6.320152e-24)
(3.78044e-05 -3.638135e-05 -3.322671e-28)
(3.32209e-05 -3.63446e-05 3.048045e-25)
(5.857011e-05 -6.107324e-06 5.369336e-27)
(6.226975e-05 -3.184745e-06 -5.842344e-27)
(5.711735e-05 -1.255138e-05 8.46854e-26)
(6.123353e-05 -9.969625e-06 -8.727183e-24)
(5.475386e-05 -1.878346e-05 1.25029e-25)
(5.922837e-05 -1.676888e-05 -2.979812e-27)
(5.152406e-05 -2.482422e-05 -6.785393e-29)
(5.628685e-05 -2.33173e-05 -6.676821e-29)
(4.738241e-05 -3.068789e-05 -2.113722e-27)
(5.24081e-05 -2.967945e-05 7.368433e-28)
(4.263528e-05 -3.616234e-05 -2.208002e-27)
(4.773847e-05 -3.558872e-05 -9.796877e-28)
(4.241208e-05 -4.118961e-05 1.513804e-28)
(3.731721e-05 -4.116615e-05 3.664453e-25)
(6.534662e-05 -6.996642e-06 -9.108603e-27)
(6.952515e-05 -3.65081e-06 -9.897502e-24)
(6.374721e-05 -1.4309e-05 -8.937431e-27)
(6.837399e-05 -1.135869e-05 -9.649042e-24)
(6.115568e-05 -2.137991e-05 -2.910114e-27)
(6.61697e-05 -1.90505e-05 -9.255213e-24)
(5.758463e-05 -2.822963e-05 7.301637e-28)
(6.295694e-05 -2.64501e-05 -2.999377e-27)
(5.313654e-05 -3.476908e-05 -2.173434e-24)
(5.876306e-05 -3.360416e-05 8.432764e-28)
(4.785445e-05 -4.093215e-05 -8.577794e-25)
(5.364194e-05 -4.0259e-05 -1.448635e-27)
(4.761671e-05 -4.653119e-05 2.441681e-27)
(4.192777e-05 -4.651831e-05 2.716882e-28)
(7.300934e-05 -7.973817e-06 -1.159879e-26)
(7.772201e-05 -4.163918e-06 -3.442915e-27)
(7.123864e-05 -1.623981e-05 -1.27382e-25)
(7.643559e-05 -1.288846e-05 -1.07289e-23)
(6.838678e-05 -2.422476e-05 -9.461079e-27)
(7.399671e-05 -2.156525e-05 -1.040423e-23)
(6.449415e-05 -3.191779e-05 -2.614866e-25)
(7.044607e-05 -2.990065e-05 -9.970536e-24)
(5.964477e-05 -3.924268e-05 -2.41299e-27)
(6.583374e-05 -3.78794e-05 1.095486e-28)
(5.36734e-05 -4.622741e-05 -3.319561e-28)
(6.016728e-05 -4.546153e-05 -8.125174e-24)
(5.347621e-05 -5.247182e-05 7.814886e-24)
(4.711788e-05 -5.247475e-05 5.10101e-25)
(8.165534e-05 -9.051288e-06 -3.738667e-27)
(8.696403e-05 -4.729916e-06 4.302943e-27)
(7.968759e-05 -1.837178e-05 -1.347862e-25)
(8.552264e-05 -1.457686e-05 -3.739213e-27)
(7.653303e-05 -2.737868e-05 -1.048913e-26)
(8.282083e-05 -2.434549e-05 -3.593193e-27)
(7.223831e-05 -3.604717e-05 -6.907522e-27)
(7.889329e-05 -3.373266e-05 -1.110411e-23)
(6.687891e-05 -4.427333e-05 -2.824168e-27)
(7.379309e-05 -4.269749e-05 3.740864e-27)
(6.024674e-05 -5.210907e-05 -2.833769e-27)
(6.750189e-05 -5.120712e-05 -2.884014e-27)
(6.009381e-05 -5.905524e-05 -9.463525e-24)
(5.297435e-05 -5.910603e-05 -1.867141e-27)
(9.139339e-05 -1.023997e-05 4.303721e-27)
(9.736555e-05 -5.354149e-06 1.352139e-23)
(8.920395e-05 -2.072513e-05 0)
(9.574826e-05 -1.643967e-05 0)
(8.571137e-05 -3.08631e-05 1.06781e-28)
(9.275399e-05 -2.741524e-05 0)
(8.095756e-05 -4.061244e-05 -3.753438e-25)
(8.840717e-05 -3.797098e-05 1.250305e-23)
(7.500217e-05 -4.984564e-05 3.81772e-27)
(8.275503e-05 -4.806295e-05 1.236988e-23)
(6.767071e-05 -5.859006e-05 -2.968945e-27)
(7.574419e-05 -5.766615e-05 -3.674226e-27)
(6.762002e-05 -6.626147e-05 -2.949699e-27)
(5.959567e-05 -6.648493e-05 -5.90065e-27)
(0.0001023431 -1.155075e-05 9.635691e-27)
(0.0001090528 -6.042123e-06 1.497082e-23)
(9.990641e-05 -2.332098e-05 0)
(0.0001072369 -1.849261e-05 2.991612e-29)
(9.604254e-05 -3.471098e-05 4.19627e-27)
(0.0001039208 -3.079868e-05 5.134607e-27)
(9.079324e-05 -4.56715e-05 3.967511e-25)
(9.91219e-05 -4.264126e-05 4.334928e-27)
(8.416317e-05 -5.609323e-05 4.397466e-27)
(9.292672e-05 -5.39606e-05 1.226895e-23)
(7.625148e-05 -6.581062e-05 -3.697265e-27)
(8.533444e-05 -6.472168e-05 -9.067084e-24)
(7.635366e-05 -7.440133e-05 0)
(6.715156e-05 -7.469148e-05 2.877425e-27)
(0.0001146348 -1.299432e-05 5.42495e-27)
(0.0001221629 -6.799466e-06 5.391828e-27)
(0.0001119224 -2.617927e-05 -1.658447e-25)
(0.0001201226 -2.075261e-05 -5.868274e-27)
(0.0001076478 -3.894496e-05 5.273462e-27)
(0.0001164488 -3.452479e-05 1.578483e-23)
(0.0001018583 -5.121683e-05 -4.718286e-25)
(0.00011114 -4.77877e-05 1.379762e-28)
(9.460879e-05 -6.283645e-05 -3.956644e-27)
(0.0001042868 -6.045287e-05 -1.484479e-23)
(8.598784e-05 -7.369534e-05 -4.248886e-27)
(9.592412e-05 -7.238198e-05 -3.200096e-27)
(8.595315e-05 -8.349631e-05 5.472606e-28)
(7.556405e-05 -8.380014e-05 2.701492e-27)
(0.0001284117 -1.458241e-05 -5.894405e-27)
(0.0001368472 -7.631689e-06 -6.761945e-27)
(0.0001253928 -2.932531e-05 -2.063514e-28)
(0.0001345553 -2.32373e-05 -1.79448e-23)
(0.0001206658 -4.36119e-05 5.69785e-27)
(0.0001304891 -3.862406e-05 1.206813e-26)
(0.0001142725 -5.735837e-05 -4.686692e-27)
(0.00012463 -5.345827e-05 0)
(0.0001062827 -7.040236e-05 -1.309578e-24)
(0.000117076 -6.764339e-05 -5.125247e-27)
(9.675938e-05 -8.260087e-05 -2.050843e-24)
(0.0001078585 -8.101548e-05 9.421208e-28)
(9.680308e-05 -9.354358e-05 1.158631e-27)
(8.511765e-05 -9.40105e-05 -9.37747e-29)
(0.0001438312 -1.632493e-05 -1.336458e-26)
(0.0001532687 -8.544083e-06 -2.005797e-23)
(0.0001404739 -3.278184e-05 -2.369425e-28)
(0.0001506997 -2.595961e-05 -1.399233e-26)
(0.0001352537 -4.873954e-05 6.375618e-27)
(0.0001462 -4.312344e-05 1.932607e-23)
(0.0001282095 -6.410719e-05 -4.37484e-28)
(0.0001397448 -5.968327e-05 0)
(0.0001194104 -7.871346e-05 1.433144e-24)
(0.0001314347 -7.554083e-05 -4.375466e-28)
(0.0001088892 -9.239852e-05 -2.203741e-24)
(0.0001212912 -9.055557e-05 -5.887796e-27)
(0.000109097 -0.0001047773 6.892265e-28)
(9.607633e-05 -0.0001052411 4.721581e-27)
(0.0001610677 -1.822578e-05 -1.495776e-26)
(0.0001716089 -9.534325e-06 -1.605396e-26)
(0.000157339 -3.65717e-05 -2.52295e-28)
(0.000168744 -2.893509e-05 -2.250367e-23)
(0.0001515749 -5.436204e-05 7.142386e-27)
(0.0001637561 -4.805518e-05 7.136791e-27)
(0.0001438283 -7.15081e-05 0)
(0.0001566515 -6.650356e-05 7.188503e-27)
(0.0001341809 -8.78423e-05 -5.876937e-27)
(0.0001475335 -8.417635e-05 -5.43409e-28)
(0.000122601 -0.0001032747 -5.913901e-27)
(0.0001365184 -0.0001008957 -1.534789e-23)
(0.0001235937 -0.0001166188 3.591407e-24)
(0.0001092529 -0.0001176409 1.030487e-23)
(0.0001803127 -2.027949e-05 6.397503e-26)
(0.0001920423 -1.06338e-05 -2.295855e-23)
(0.0001761766 -4.072576e-05 -8.318114e-27)
(0.0001889028 -3.211516e-05 -8.33882e-27)
(0.0001698068 -6.052001e-05 7.182623e-27)
(0.0001833454 -5.343663e-05 -9.101886e-27)
(0.0001612818 -7.960588e-05 1.393966e-24)
(0.0001755289 -7.398301e-05 2.357942e-23)
(0.0001506737 -9.775903e-05 -1.310929e-26)
(0.0001654749 -9.367745e-05 -8.562026e-27)
(0.0001379894 -0.0001147109 -2.423386e-24)
(0.0001532462 -0.0001123085 -2.318741e-23)
(0.0001386913 -0.0001296141 -2.456397e-23)
(0.0001232312 -0.0001300551 -1.068124e-23)
(0.0002018119 -2.245356e-05 -9.533122e-27)
(0.0002149097 -1.177998e-05 -9.446329e-27)
(0.000197264 -4.521601e-05 -9.124572e-27)
(0.0002114646 -3.561268e-05 0)
(0.0001901839 -6.725898e-05 5.935177e-25)
(0.0002052475 -5.929341e-05 -2.784408e-23)
(0.0001808033 -8.852263e-05 2.871671e-28)
(0.0001966469 -8.217645e-05 8.291259e-27)
(0.0001691212 -0.0001088222 -2.284721e-26)
(0.0001856202 -0.0001041461 -2.605095e-23)
(0.0001550888 -0.000127964 -2.155611e-26)
(0.0001722103 -0.0001250609 -2.620844e-23)
(0.0001562374 -0.0001447846 8.538161e-28)
(0.0001385366 -0.0001457359 -1.79096e-26)
(0.0002257628 -2.486006e-05 0)
(0.0002403196 -1.302961e-05 -1.190703e-26)
(0.0002206868 -5.006847e-05 -2.005566e-26)
(0.0002363901 -3.95513e-05 1.143541e-26)
(0.0002129658 -7.461433e-05 -1.998049e-26)
(0.0002297131 -6.54673e-05 -3.235352e-23)
(0.0002026817 -9.828217e-05 -1.797107e-26)
(0.0002202667 -9.102376e-05 0)
(0.0001899209 -0.000120955 -2.632084e-26)
(0.0002082342 -0.0001155595 -2.921928e-23)
(0.000174643 -0.0001425207 -8.158409e-28)
(0.0001936754 -0.000138951 -8.330894e-27)
(0.0001765249 -0.0001611328 2.353996e-23)
(0.0001565638 -0.0001629226 7.654203e-27)
(0.000252312 -2.760505e-05 2.119042e-25)
(0.0002686706 -1.441126e-05 -3.245392e-23)
(0.0002468681 -5.520737e-05 2.252263e-26)
(0.000264354 -4.365062e-05 3.049316e-23)
(0.0002385715 -8.238187e-05 1.101016e-26)
(0.0002571236 -7.236304e-05 6.025198e-23)
(0.0002272537 -0.000108872 -1.009289e-26)
(0.0002468658 -0.0001002849 2.41301e-26)
(0.0002133141 -0.0001341311 -1.00905e-26)
(0.0002335844 -0.000127888 -2.055564e-26)
(0.0001967539 -0.0001582256 6.444329e-27)
(0.000217801 -0.0001540649 9.854462e-28)
(0.0001991003 -0.0001788936 5.295892e-27)
(0.0001773984 -0.0001808724 5.709243e-24)
(0.0002820776 -3.040219e-05 -3.367872e-28)
(0.000300051 -1.585419e-05 -1.322838e-26)
(0.0002760006 -6.078664e-05 5.012937e-26)
(0.0002953669 -4.78145e-05 1.302348e-26)
(0.0002672025 -9.061415e-05 6.183968e-26)
(0.0002877603 -7.95523e-05 3.155424e-23)
(0.0002550075 -0.0001201881 -2.342582e-24)
(0.000276981 -0.0001103888 7.603207e-23)
(0.0002396757 -0.0001484374 -9.481551e-27)
(0.0002621736 -0.0001411017 -4.281669e-23)
(0.0002216907 -0.000175495 -2.354581e-24)
(0.0002451036 -0.0001705051 3.156663e-27)
(0.0002248046 -0.0001985194 3.944434e-27)
(0.0002005932 -0.0002010849 5.822598e-24)
(0.0003149038 -3.337961e-05 -2.020558e-25)
(0.0003347254 -1.73773e-05 -2.103946e-30)
(0.000308513 -6.655585e-05 1.458259e-26)
(0.0003295129 -5.230925e-05 -6.700924e-30)
(0.0002991149 -9.924844e-05 -1.740983e-24)
(0.000321432 -8.689506e-05 2.972764e-26)
(0.0002858267 -0.0001320636 1.360703e-24)
(0.0003098368 -0.0001214643 3.476407e-26)
(0.0002694974 -0.0001638423 -1.227077e-26)
(0.0002944955 -0.0001546223 -2.364615e-26)
(0.0002500581 -0.0001942914 -4.754283e-24)
(0.0002760695 -0.0001879985 1.308229e-26)
(0.0002542151 -0.0002198093 5.085223e-27)
(0.0002272432 -0.000223336 -5.410068e-24)
(0.0003510889 -3.647101e-05 2.032372e-25)
(0.000372909 -1.890326e-05 -2.617261e-29)
(0.0003442994 -7.272066e-05 1.507758e-26)
(0.0003671779 -5.686577e-05 -8.165958e-29)
(0.0003342144 -0.0001087605 3.471308e-25)
(0.0003589733 -9.452322e-05 4.135346e-23)
(0.0003207654 -0.0001444042 8.720615e-24)
(0.0003472104 -0.0001324584 4.135748e-23)
(0.000303628 -0.0001797267 4.114389e-24)
(0.0003313799 -0.0001695231 1.670705e-26)
(0.0002825246 -0.0002144534 1.090383e-26)
(0.000311691 -0.0002058475 7.030311e-23)
(0.0002878335 -0.000242576 0)
(0.0002578859 -0.0002473766 -7.996771e-28)
(0.0003907766 -3.945476e-05 0)
(0.0004145964 -2.033878e-05 -5.966317e-29)
(0.0003836787 -7.864834e-05 1.755768e-26)
(0.0004082938 -6.11726e-05 1.810029e-28)
(0.0003737137 -0.0001177116 3.611805e-26)
(0.0003999663 -0.000101773 1.818703e-26)
(0.000359849 -0.0001570616 3.877839e-25)
(0.0003884581 -0.0001426319 1.850482e-26)
(0.0003424188 -0.0001962012 -7.621924e-24)
(0.0003729418 -0.0001842117 4.132396e-23)
(0.0003200134 -0.0002357036 2.422815e-26)
(0.0003531516 -0.0002248921 2.170786e-26)
(0.0003267242 -0.0002666263 -6.704305e-27)
(0.0002932925 -0.000273389 -1.250266e-26)
(0.0004338838 -4.215805e-05 2.780364e-25)
(0.0004596081 -2.155695e-05 -2.259666e-26)
(0.0004264852 -8.415276e-05 1.910384e-25)
(0.0004527342 -6.491721e-05 3.768767e-28)
(0.0004166619 -0.0001263545 6.250696e-28)
(0.0004444807 -0.0001083887 -2.113004e-26)
(0.0004032824 -0.0001690719 3.616084e-26)
(0.000433348 -0.0001526167 0)
(0.0003859711 -0.0002123096 3.478378e-26)
(0.00041822 -0.0001980171 6.638017e-23)
(0.0003624774 -0.0002571224 -4.956126e-25)
(0.0003983952 -0.0002452179 -2.330042e-27)
(0.0003727093 -0.0002909172 -4.009589e-26)
(0.000334912 -0.0003014111 9.139789e-24)
(0.0004800551 -4.423447e-05 6.403214e-26)
(0.0005073677 -2.236953e-05 -2.357368e-23)
(0.0004725236 -8.872299e-05 -2.152872e-26)
(0.0005000883 -6.760259e-05 -2.407203e-26)
(0.0004632718 -0.0001341028 -2.176142e-26)
(0.0004924078 -0.0001136897 -3.584473e-23)
(0.0004509636 -0.0001809048 2.278834e-26)
(0.0004825844 -0.0001613385 -1.935151e-27)
(0.0004342102 -0.000229646 2.067348e-24)
(0.0004696116 -0.0002110795 1.766755e-26)
(0.0004129852 -0.0002793466 8.12939e-24)
(0.0004518688 -0.0002636862 6.321036e-23)
(0.0004285224 -0.0003163793 -4.930173e-26)
(0.000385263 -0.0003311234 2.692047e-23)
(0.0005286238 -4.524502e-05 7.531233e-25)
(0.0005568256 -2.269315e-05 -2.485851e-26)
(0.0005214657 -9.179816e-05 -4.836186e-26)
(0.0005497763 -6.859782e-05 -1.806868e-23)
(0.000513549 -0.0001400178 -2.604586e-26)
(0.0005433106 -0.0001168586 2.404935e-27)
(0.0005034825 -0.0001904873 -4.511052e-24)
(0.0005357568 -0.0001676231 -9.337706e-28)
(0.0004896654 -0.0002435804 -2.545218e-24)
(0.0005258235 -0.0002215107 -3.352584e-26)
(0.0004712023 -0.0002993319 1.042826e-23)
(0.0005113714 -0.0002792614 9.02306e-27)
(0.0004912826 -0.0003420886 -1.566582e-26)
(0.0004447713 -0.0003598623 -5.644215e-24)
(0.0005786778 -4.491421e-05 2.615286e-26)
(0.0006070135 -2.22301e-05 2.976959e-26)
(0.0005728646 -9.255815e-05 -3.292604e-24)
(0.0006009338 -6.8067e-05 -1.897313e-23)
(0.0005672705 -0.0001432162 3.4008e-24)
(0.0005968232 -0.0001166319 1.598711e-23)
(0.0005606936 -0.0001971546 -2.736069e-26)
(0.0005927739 -0.0001699184 5.88022e-26)
(0.000551586 -0.0002554537 -1.004142e-23)
(0.0005880216 -0.0002275894 -5.73883e-23)
(0.0005372101 -0.0003193531 -3.485121e-27)
(0.0005805919 -0.0002908799 2.179289e-26)
(0.0005674441 -0.0003618618 8.621095e-27)
(0.0005176342 -0.000387424 1.23133e-27)
(0.0006288174 -4.350514e-05 8.658558e-26)
(0.0006560466 -2.081905e-05 -3.501364e-23)
(0.0006253118 -9.043392e-05 -1.839799e-23)
(0.0006521307 -6.510114e-05 5.654088e-26)
(0.0006238588 -0.0001417846 8.480801e-26)
(0.0006514615 -0.0001128964 2.680212e-26)
(0.0006223429 -0.0001983576 2.628921e-26)
(0.0006528245 -0.0001657601 3.672151e-23)
(0.0006201636 -0.0002603986 -1.347639e-23)
(0.0006546827 -0.0002261268 3.240578e-26)
(0.000614241 -0.0003297202 3.363546e-26)
(0.0006563443 -0.0002942446 4.171108e-23)
(0.0006513471 -0.0003742362 8.400771e-27)
(0.000598451 -0.0004063342 4.397964e-23)
(0.000677754 -4.023484e-05 -2.767385e-24)
(0.0007018065 -1.851793e-05 -2.13351e-27)
(0.0006770083 -8.501779e-05 -1.812254e-28)
(0.0007012936 -5.871519e-05 1.138149e-28)
(0.0006807894 -0.0001344082 8.257023e-28)
(0.0007049994 -0.0001039348 5.50553e-28)
(0.0006872682 -0.0001912465 6.551611e-26)
(0.0007135019 -0.0001546464 7.583085e-23)
(0.0006930824 -0.0002560355 1.285998e-25)
(0.0007246555 -0.0002143658 -5.078014e-23)
(0.0006929604 -0.0003299257 6.467254e-26)
(0.0007342721 -0.0002903258 -1.424943e-22)
(0.0007280131 -0.0003877254 4.372678e-26)
(0.0006761246 -0.0004131369 1.066192e-25)
(0.0007225931 -3.492339e-05 -3.368388e-26)
(0.0007419866 -1.512017e-05 1.029595e-22)
(0.0007266085 -7.502205e-05 6.419962e-24)
(0.0007458703 -4.904636e-05 2.917422e-28)
(0.0007354836 -0.0001203793 -7.183594e-26)
(0.0007549042 -8.816906e-05 1.34724e-27)
(0.0007502023 -0.0001735392 -1.147859e-22)
(0.000771353 -0.0001351632 -3.284042e-26)
(0.0007630003 -0.0002378681 2.390677e-25)
(0.0007906814 -0.0001963427 -4.39958e-22)
(0.0007603255 -0.0003154097 1.502822e-25)
(0.0007982566 -0.0002848221 -6.508065e-22)
(0.00078045 -0.0004089217 -3.170328e-22)
(0.0007364275 -0.0004031627 1.22356e-21)
(0.0007610469 -2.728101e-05 -3.572039e-26)
(0.0007740708 -1.059374e-05 -3.572525e-26)
(0.0007702964 -6.003841e-05 8.024405e-28)
(0.0007831765 -3.547715e-05 2.148007e-28)
(0.0007864479 -9.798242e-05 3.120589e-23)
(0.0007977039 -6.595115e-05 1.290589e-27)
(0.0008044933 -0.0001462216 1.247462e-25)
(0.0008224223 -0.0001095799 -2.247969e-22)
(0.0008162294 -0.0002085327 2.129656e-21)
(0.0008382584 -0.0001815559 8.648956e-26)
(0.000806988 -0.0002900152 1.32434e-25)
(0.0008382558 -0.0002881842 8.329887e-26)
(0.0008120845 -0.0004341086 4.119862e-27)
(0.0007739071 -0.000387598 3.496091e-26)
(0.0007905036 -1.717987e-05 2.143753e-28)
(0.0007958292 -4.940788e-06 0)
(0.0008050352 -3.920742e-05 1.492414e-23)
(0.000809851 -1.793613e-05 2.162172e-28)
(0.0008259112 -6.680487e-05 3.93061e-26)
(0.0008291185 -3.917921e-05 4.952322e-28)
(0.0008434922 -0.0001115239 -2.581314e-22)
(0.0008545773 -8.582071e-05 -4.018755e-26)
(0.0008432704 -0.0001751458 1.236123e-21)
(0.000860128 -0.0001757349 1.53821e-27)
(0.0008307733 -0.0002583377 -8.761251e-21)
(0.0008445457 -0.0003068325 -2.409195e-28)
(0.0008249815 -0.0004682888 -1.314423e-26)
(0.0007880186 -0.0003569947 -1.799434e-25)
(0.0008082575 -4.912467e-06 1.168408e-31)
(0.0008051226 2.126485e-06 -3.795864e-26)
(0.000826062 -1.304264e-05 3.038362e-31)
(0.000823122 2.364627e-06 -3.940304e-26)
(0.0008460102 -3.149451e-05 -8.013096e-26)
(0.0008428482 -1.421599e-05 4.793125e-31)
(0.0008566792 -7.642763e-05 -7.986515e-26)
(0.0008585637 -7.153329e-05 8.744704e-22)
(0.0008475214 -0.0001431263 1.270732e-26)
(0.0008559071 -0.000180703 5.950116e-27)
(0.0008202652 -0.0002288431 7.319229e-21)
(0.0008311365 -0.0003328216 -3.195365e-26)
(0.000792157 -0.000519966 8.019039e-26)
(0.0007929472 -0.0003380922 5.278914e-26)
(0.0008114647 1.081345e-05 4.190479e-24)
(0.0007984923 1.062387e-05 2.257486e-22)
(0.0008292535 1.63712e-05 -3.905085e-26)
(0.0008186292 2.188588e-05 2.915692e-22)
(0.000840592 1.423711e-06 -7.79415e-26)
(0.0008317941 3.553013e-07 3.878746e-26)
(0.0008427992 -4.188164e-05 3.376501e-21)
(0.0008320672 -7.305322e-05 -7.667161e-26)
(0.0008238753 -0.0001118861 -3.922414e-26)
(0.0008291596 -0.0001981453 1.66833e-26)
(0.0007907204 -0.0001962863 -5.214311e-21)
(0.0007885917 -0.0003691608 5.488977e-22)
(0.0007479621 -0.0005728737 -1.692418e-21)
(0.0007425923 -0.0002985013 1.720378e-25)
(0.0007947541 2.933581e-05 1.727392e-23)
(0.0007725861 1.888815e-05 -3.718863e-26)
(0.000808341 4.433989e-05 1.400764e-22)
(0.0007892536 3.587676e-05 3.408555e-22)
(0.0008112371 2.976771e-05 3.958788e-26)
(0.0007937719 3.514111e-06 -3.462851e-22)
(0.0008009641 -1.417238e-05 2.700362e-21)
(0.0007866657 -8.661208e-05 8.783008e-28)
(0.0007811447 -8.677369e-05 8.372737e-21)
(0.0007622961 -0.0002323786 -2.462381e-26)
(0.000747461 -0.0001750652 6.808331e-26)
(0.0007197526 -0.0004200571 -1.907325e-26)
(0.0007148345 -0.0006328719 6.064682e-27)
(0.0006868923 -0.0002855565 1.831119e-20)
(0.0007544239 4.696695e-05 -3.628893e-26)
(0.0007241791 2.377983e-05 3.262573e-26)
(0.0007609268 6.734933e-05 2.200188e-28)
(0.0007322715 4.082598e-05 -3.627424e-27)
(0.0007569027 5.342504e-05 3.63696e-26)
(0.0007297199 -3.532535e-06 3.630974e-26)
(0.0007398807 7.738281e-06 -3.415531e-26)
(0.0007174847 -0.000109888 -6.963659e-31)
(0.0007076182 -6.555974e-05 -3.42371e-26)
(0.0006886832 -0.0002720045 4.264787e-22)
(0.0006636838 -0.0001593673 -8.091709e-26)
(0.0006430753 -0.0004779091 -3.810475e-26)
(0.0005890601 -0.0007151515 7.094875e-22)
(0.0006325849 -0.0002683642 -3.988591e-20)
(0.00069012 5.883349e-05 6.527459e-26)
(0.0006530561 2.399969e-05 -2.867099e-22)
(0.0006884404 8.216899e-05 3.451009e-22)
(0.0006516547 3.532978e-05 -2.496626e-22)
(0.0006783504 6.901343e-05 -1.016849e-28)
(0.000642491 -1.987181e-05 7.481295e-29)
(0.0006574588 2.128536e-05 -3.005687e-26)
(0.0006265825 -0.0001399762 1.367797e-27)
(0.0006230424 -5.539149e-05 -6.79479e-26)
(0.0005960064 -0.000318574 -3.699397e-26)
(0.0005777992 -0.0001522968 -9.973575e-21)
(0.0005527021 -0.0005389588 5.347512e-22)
(0.0005009406 -0.0007822235 -6.189343e-22)
(0.0005307238 -0.0002520316 -1.612371e-26)