/*--------------------------------*- C++ -*----------------------------------*\
| =========                 |                                                 |
| \\      /  F ield         | OpenFOAM: The Open Source CFD Toolbox           |
|  \\    /   O peration     | Version:  2206                                  |
|   \\  /    A nd           | Website:  www.openfoam.com                      |
|    \\/     M anipulation  |                                                 |
\*---------------------------------------------------------------------------*/
FoamFile
{
    version     2.0;
    format      ascii;
    arch        "LSB;label=32;scalar=64";
    class       surfaceVectorField;
    location    "2.8";
    object      Ufb_0;
}
// * * * * * * * * * * * * * * * * * * * * * * * * * * * * * * * * * * * * * //

dimensions      [0 1 -1 0 0 0 0];

internalField   nonuniform List<vector> 
26037
(
(-2.72514e-06 0.0001520334 1.790833e-21)
(5.25105e-05 3.687168e-05 -4.253696e-27)
(-1.900468e-06 6.281897e-05 -1.379106e-22)
(2.003142e-05 6.546944e-05 5.135864e-24)
(-1.766782e-06 2.037163e-05 2.083889e-27)
(5.747787e-06 3.774077e-05 2.088621e-27)
(-1.612869e-06 4.941525e-06 2.546128e-28)
(-5.959974e-07 1.497737e-05 0)
(-1.566548e-06 -1.163301e-06 1.00362e-23)
(-6.299445e-07 2.814769e-06 2.532036e-28)
(-1.673597e-06 -5.525162e-06 1.932647e-28)
(-6.676533e-07 -3.004495e-06 -1.086428e-26)
(-9.47129e-07 -7.283367e-06 5.368626e-29)
(-1.860688e-06 -9.303386e-06 3.004606e-24)
(2.256812e-05 7.976849e-05 -2.077093e-29)
(0.0001179274 1.233199e-05 2.856552e-27)
(7.982741e-06 4.707254e-05 -2.097057e-29)
(4.270783e-05 4.330079e-05 -1.535995e-27)
(3.013023e-06 1.898163e-05 0)
(1.344164e-05 2.802232e-05 -4.888915e-28)
(7.999636e-07 5.896325e-06 -1.379131e-30)
(4.742268e-06 1.180553e-05 -6.671159e-28)
(5.457921e-07 -7.421595e-07 -1.802646e-30)
(2.750412e-06 2.565838e-06 9.713962e-26)
(1.359441e-07 -5.498377e-06 -8.91165e-31)
(1.70523e-06 -3.080044e-06 -4.239568e-31)
(8.648235e-07 -7.453828e-06 1.034994e-26)
(-3.6459e-07 -9.414774e-06 -1.953913e-29)
(6.677758e-05 3.537456e-05 1.333823e-27)
(6.071307e-05 9.188549e-06 2.641759e-22)
(2.784893e-05 2.530503e-05 -2.026607e-27)
(3.200022e-05 2.114194e-05 -8.949845e-23)
(1.064194e-05 1.366353e-05 -8.28088e-24)
(1.668594e-05 1.540458e-05 -1.843112e-27)
(5.38428e-06 5.048688e-06 -8.317441e-24)
(9.465475e-06 7.846422e-06 -1.121045e-27)
(3.477307e-06 -9.621689e-07 -2.072189e-28)
(6.193534e-06 1.47894e-06 -2.070763e-25)
(2.281787e-06 -5.700242e-06 2.054855e-34)
(4.235284e-06 -3.585657e-06 0)
(2.84322e-06 -7.841162e-06 -1.514143e-26)
(1.315355e-06 -9.647909e-06 3.054122e-29)
(4.273596e-05 1.599397e-05 -5.685512e-28)
(4.148847e-05 5.307819e-06 1.490134e-27)
(2.497659e-05 1.446538e-05 -3.420748e-27)
(2.841051e-05 1.13884e-05 -3.731619e-23)
(1.454429e-05 9.244443e-06 3.279216e-25)
(1.911232e-05 9.154915e-06 -4.742702e-24)
(9.290557e-06 3.483388e-06 -4.43396e-28)
(1.307347e-05 4.829256e-06 6.409365e-24)
(6.489912e-06 -1.70159e-06 9.194662e-30)
(9.306874e-06 8.345764e-08 4.936518e-28)
(4.611485e-06 -6.17727e-06 2.396207e-30)
(6.811148e-06 -4.420349e-06 -1.398148e-32)
(4.964621e-06 -8.463888e-06 5.817746e-30)
(3.173839e-06 -1.005945e-05 -4.315254e-29)
(3.381209e-05 8.640347e-06 -7.573366e-25)
(3.49418e-05 3.288191e-06 2.500638e-30)
(2.451787e-05 8.861169e-06 -7.432936e-25)
(2.77097e-05 6.693945e-06 -8.233747e-28)
(1.744005e-05 5.819866e-06 -2.230904e-27)
(2.112782e-05 5.450639e-06 -1.273186e-27)
(1.261028e-05 1.607227e-06 -2.632722e-25)
(1.601846e-05 2.326366e-06 -4.850652e-26)
(9.359936e-06 -2.764389e-06 -2.012624e-25)
(1.226087e-05 -1.509117e-06 -1.783158e-24)
(7.052792e-06 -6.929471e-06 -6.378468e-25)
(9.447593e-06 -5.496338e-06 1.381177e-29)
(7.231829e-06 -9.343776e-06 3.459616e-27)
(5.195716e-06 -1.071143e-05 3.421552e-30)
(3.106232e-05 4.995059e-06 -6.610009e-30)
(3.248631e-05 1.955404e-06 0)
(2.526891e-05 5.237785e-06 4.892272e-25)
(2.802315e-05 3.773459e-06 -7.427062e-28)
(1.989257e-05 3.046542e-06 -6.35621e-25)
(2.315157e-05 2.674888e-06 -5.743172e-28)
(1.559854e-05 -3.415867e-07 3.266835e-25)
(1.879444e-05 1.08363e-07 -4.705041e-28)
(1.222924e-05 -4.139542e-06 6.532978e-30)
(1.517387e-05 -3.274427e-06 -4.540818e-25)
(9.571976e-06 -7.973882e-06 1.580735e-26)
(1.218324e-05 -6.877393e-06 1.738928e-29)
(9.642903e-06 -1.049982e-05 -8.672218e-29)
(7.374817e-06 -1.164767e-05 6.582322e-25)
(3.049687e-05 2.67381e-06 -7.357066e-28)
(3.195329e-05 1.00929e-06 1.569569e-27)
(2.653785e-05 2.490599e-06 -1.318936e-27)
(2.903377e-05 1.61126e-06 -5.364679e-24)
(2.233317e-05 6.119442e-07 -3.85533e-24)
(2.533047e-05 3.317868e-07 -3.13706e-24)
(1.84638e-05 -2.351787e-06 -4.210121e-28)
(2.15893e-05 -2.048691e-06 5.10158e-29)
(1.51344e-05 -5.802903e-06 1.570762e-25)
(1.810783e-05 -5.172974e-06 -1.512029e-27)
(1.223149e-05 -9.382486e-06 3.387991e-30)
(1.501288e-05 -8.587623e-06 1.149657e-29)
(1.220383e-05 -1.202825e-05 1.34111e-29)
(9.677055e-06 -1.290681e-05 -7.948457e-30)
(3.111624e-05 1.031297e-06 8.248574e-28)
(3.26498e-05 3.038369e-07 1.056344e-23)
(2.823927e-05 2.727572e-07 -1.425127e-27)
(3.059387e-05 -1.075626e-07 8.073138e-28)
(2.483752e-05 -1.633843e-06 -6.867961e-28)
(2.767365e-05 -1.742271e-06 4.450938e-29)
(2.133087e-05 -4.452552e-06 -1.049429e-27)
(2.44055e-05 -4.191581e-06 4.107862e-30)
(1.80539e-05 -7.718235e-06 -1.033485e-27)
(2.108439e-05 -7.234651e-06 -2.358967e-24)
(1.501557e-05 -1.115975e-05 6.122147e-26)
(1.792396e-05 -1.055798e-05 2.09958e-29)
(1.489623e-05 -1.395348e-05 1.350382e-29)
(1.214648e-05 -1.456822e-05 -1.361028e-28)
(3.25762e-05 -1.860621e-07 1.551839e-27)
(3.42371e-05 -2.555789e-07 -8.573824e-24)
(3.036281e-05 -1.606646e-06 2.276777e-27)
(3.270275e-05 -1.548663e-06 7.128291e-24)
(2.74966e-05 -3.766156e-06 2.712215e-25)
(3.029096e-05 -3.657393e-06 2.694722e-24)
(2.427798e-05 -6.627758e-06 -2.320177e-27)
(2.736207e-05 -6.324765e-06 -1.423657e-27)
(2.104969e-05 -9.858125e-06 1.245045e-25)
(2.41631e-05 -9.447591e-06 -2.874531e-24)
(1.787871e-05 -1.325965e-05 1.288478e-29)
(2.09415e-05 -1.279688e-05 1.28808e-29)
(1.770945e-05 -1.620698e-05 0)
(1.476991e-05 -1.664562e-05 3.474355e-28)
(3.473507e-05 -1.188508e-06 -5.234821e-29)
(3.658305e-05 -7.24175e-07 -1.700489e-27)
(3.292901e-05 -3.277063e-06 2.427978e-27)
(3.535178e-05 -2.81891e-06 1.649066e-27)
(3.04106e-05 -5.821207e-06 -6.251434e-28)
(3.325728e-05 -5.471099e-06 2.468938e-27)
(2.738589e-05 -8.882269e-06 -1.417445e-27)
(3.054709e-05 -8.48167e-06 -4.272198e-24)
(2.417462e-05 -1.221058e-05 -3.748703e-31)
(2.741237e-05 -1.181483e-05 3.420214e-24)
(2.086915e-05 -1.566907e-05 0)
(2.410963e-05 -1.529815e-05 0)
(2.066963e-05 -1.880586e-05 0)
(1.750663e-05 -1.91027e-05 4.597465e-28)
(3.753723e-05 -2.062289e-06 0)
(3.962039e-05 -1.144416e-06 0)
(3.596927e-05 -4.825169e-06 1.689407e-27)
(3.855771e-05 -3.999214e-06 -1.93593e-27)
(3.365769e-05 -7.845567e-06 1.609522e-28)
(3.664218e-05 -7.243399e-06 5.770926e-24)
(3.073492e-05 -1.123109e-05 -1.554535e-27)
(3.404513e-05 -1.069483e-05 1.426608e-28)
(2.749301e-05 -1.477479e-05 5.190217e-31)
(3.090804e-05 -1.434894e-05 -4.032334e-24)
(2.403145e-05 -1.838717e-05 0)
(2.748734e-05 -1.80673e-05 0)
(2.381817e-05 -2.175552e-05 1.309401e-27)
(2.040419e-05 -2.194096e-05 -4.612645e-28)
(4.096921e-05 -2.872723e-06 -1.935125e-27)
(4.332991e-05 -1.544635e-06 0)
(3.952551e-05 -6.322656e-06 -8.727532e-29)
(4.234985e-05 -5.149446e-06 -6.894022e-24)
(3.731144e-05 -9.88968e-06 3.562749e-27)
(4.05117e-05 -9.029398e-06 1.837066e-27)
(3.440538e-05 -1.370075e-05 -6.272108e-26)
(3.793712e-05 -1.300221e-05 5.311586e-24)
(3.107643e-05 -1.756427e-05 -1.606543e-27)
(3.472998e-05 -1.707372e-05 -3.370283e-27)
(2.742219e-05 -2.142313e-05 1.30895e-27)
(3.11421e-05 -2.112137e-05 1.590012e-27)
(2.720852e-05 -2.507206e-05 3.423022e-24)
(2.350466e-05 -2.51728e-05 -1.246289e-25)
(4.504565e-05 -3.665495e-06 -2.132675e-27)
(4.772493e-05 -1.944254e-06 -2.396904e-27)
(4.364646e-05 -7.82695e-06 7.940655e-27)
(4.676943e-05 -6.314676e-06 -2.133024e-27)
(4.144288e-05 -1.200287e-05 1.871973e-27)
(4.493165e-05 -1.087837e-05 -3.182395e-29)
(3.847725e-05 -1.632525e-05 1.173849e-28)
(4.229995e-05 -1.544396e-05 1.884421e-27)
(3.500083e-05 -2.060513e-05 -1.70896e-28)
(3.896144e-05 -2.001822e-05 -5.576616e-24)
(3.110541e-05 -2.479772e-05 1.59112e-27)
(3.514575e-05 -2.448833e-05 4.657191e-24)
(3.090187e-05 -2.878137e-05 -4.054281e-24)
(2.68596e-05 -2.881926e-05 1.086383e-30)
(4.980225e-05 -4.473198e-06 -2.397366e-27)
(5.284329e-05 -2.357575e-06 -8.249496e-24)
(4.838833e-05 -9.385011e-06 -1.743902e-29)
(5.187013e-05 -7.531076e-06 0)
(4.611943e-05 -1.423272e-05 6.799291e-27)
(4.997145e-05 -1.283967e-05 -5.876038e-29)
(4.303162e-05 -1.913499e-05 -3.981625e-27)
(4.720507e-05 -1.808413e-05 2.720596e-27)
(3.934667e-05 -2.393354e-05 -2.143262e-27)
(4.369538e-05 -2.318662e-05 -7.251683e-24)
(3.514944e-05 -2.854188e-05 2.088609e-28)
(3.957071e-05 -2.819799e-05 1.779356e-27)
(3.496501e-05 -3.291788e-05 1.91405e-28)
(3.052775e-05 -3.291121e-05 -3.354701e-28)
(5.529286e-05 -5.32065e-06 -2.657973e-27)
(5.874175e-05 -2.795171e-06 -2.656748e-27)
(5.382138e-05 -1.103803e-05 -4.127528e-29)
(5.772013e-05 -8.825023e-06 -2.894668e-27)
(5.14196e-05 -1.663769e-05 2.012772e-26)
(5.572546e-05 -1.493814e-05 -4.128581e-29)
(4.820331e-05 -2.21677e-05 -6.627265e-25)
(5.281928e-05 -2.091591e-05 6.765016e-24)
(4.422109e-05 -2.757532e-05 -1.609407e-27)
(4.906973e-05 -2.669297e-05 -1.531981e-27)
(3.96331e-05 -3.269219e-05 1.762148e-27)
(4.4513e-05 -3.230252e-05 1.052089e-28)
(3.947427e-05 -3.75283e-05 5.502803e-24)
(3.457522e-05 -3.748898e-05 3.275535e-27)
(6.158342e-05 -6.225665e-06 -2.89327e-27)
(6.549086e-05 -3.266704e-06 0)
(6.00173e-05 -1.280866e-05 -2.895251e-27)
(6.438963e-05 -1.022354e-05 -9.630535e-24)
(5.747226e-05 -1.920789e-05 2.706024e-27)
(6.224144e-05 -1.721417e-05 -2.794296e-29)
(5.403416e-05 -2.546614e-05 -1.88913e-25)
(5.91108e-05 -2.397739e-05 2.669921e-27)
(4.963799e-05 -3.159812e-05 1.918181e-28)
(5.50328e-05 -3.05729e-05 8.640909e-29)
(4.462969e-05 -3.730587e-05 -2.572617e-25)
(5.00394e-05 -3.68563e-05 1.051632e-28)
(4.450406e-05 -4.266876e-05 2.100649e-27)
(3.907223e-05 -4.260587e-05 2.240745e-27)
(6.875539e-05 -7.208995e-06 -6.455442e-27)
(7.317961e-05 -3.781313e-06 -3.683784e-27)
(6.705627e-05 -1.474345e-05 -6.487801e-27)
(7.197379e-05 -1.175348e-05 -1.069144e-23)
(6.429846e-05 -2.204605e-05 7.29376e-26)
(6.963202e-05 -1.971823e-05 -9.207615e-29)
(6.055554e-05 -2.913695e-05 -3.956987e-29)
(6.621419e-05 -2.739546e-05 -8.352821e-29)
(5.573225e-05 -3.605073e-05 0)
(6.174122e-05 -3.485011e-05 0)
(5.022682e-05 -4.243711e-05 0)
(5.624717e-05 -4.191029e-05 -2.929882e-27)
(5.013748e-05 -4.840084e-05 -3.180641e-28)
(4.409414e-05 -4.832197e-05 -1.581088e-28)
(7.690599e-05 -8.286362e-06 -6.55166e-27)
(8.191078e-05 -4.346786e-06 -1.220463e-23)
(7.504128e-05 -1.686751e-05 1.120958e-25)
(8.057591e-05 -1.34367e-05 -7.668596e-27)
(7.20187e-05 -2.516957e-05 9.888136e-26)
(7.800046e-05 -2.247859e-05 -1.737635e-28)
(6.790665e-05 -3.319352e-05 -4.529195e-29)
(7.423806e-05 -3.117683e-05 -1.460793e-28)
(6.259458e-05 -4.098185e-05 -2.963941e-27)
(6.929975e-05 -3.958378e-05 0)
(5.651595e-05 -4.815029e-05 4.120248e-25)
(6.324373e-05 -4.751802e-05 -9.69408e-24)
(5.646419e-05 -5.479571e-05 -4.979836e-28)
(4.972226e-05 -5.470618e-05 5.198305e-25)
(8.614537e-05 -9.473454e-06 -1.385057e-26)
(9.180175e-05 -4.971006e-06 -8.750411e-27)
(8.408286e-05 -1.921134e-05 1.297967e-25)
(9.031308e-05 -1.529646e-05 -1.327689e-23)
(8.074632e-05 -2.862369e-05 2.504651e-25)
(8.746423e-05 -2.553473e-05 -4.477716e-27)
(7.619092e-05 -3.76906e-05 -1.031353e-28)
(8.32992e-05 -3.538541e-05 -1.014851e-28)
(7.033694e-05 -4.642925e-05 -3.171065e-27)
(7.78045e-05 -4.489723e-05 1.110786e-27)
(6.360636e-05 -5.451902e-05 -3.311959e-27)
(7.116965e-05 -5.367265e-05 -1.469734e-27)
(6.357889e-05 -6.192111e-05 2.256784e-28)
(5.604556e-05 -6.183719e-05 6.075232e-25)
(9.65982e-05 -1.078604e-05 -1.367782e-26)
(0.0001029846 -5.661565e-06 -1.513868e-23)
(9.43072e-05 -2.180595e-05 -1.342232e-26)
(0.0001013174 -1.735445e-05 -1.476189e-23)
(9.061731e-05 -3.245919e-05 -4.371295e-27)
(9.816111e-05 -2.891645e-05 -1.416748e-23)
(8.553688e-05 -4.272759e-05 1.100716e-27)
(9.357865e-05 -4.003196e-05 -4.528902e-27)
(7.920309e-05 -5.247631e-05 -3.775624e-24)
(8.759654e-05 -5.072592e-05 1.270882e-27)
(7.166085e-05 -6.160059e-05 -1.419122e-24)
(8.027093e-05 -6.061916e-05 -2.20855e-27)
(7.161958e-05 -6.98803e-05 3.700841e-27)
(6.317174e-05 -6.979893e-05 4.056222e-28)
(0.0001084025 -1.223905e-05 4.62924e-27)
(0.0001156063 -6.42704e-06 -5.194133e-27)
(0.0001058478 -2.467672e-05 -1.93059e-25)
(0.0001137308 -1.963615e-05 -1.649533e-23)
(0.0001017591 -3.668992e-05 -1.428008e-26)
(0.0001102156 -3.266785e-05 -1.600018e-23)
(9.61872e-05 -4.821604e-05 -4.495425e-25)
(0.0001051182 -4.518122e-05 -1.53432e-23)
(8.923726e-05 -5.91405e-05 -3.654125e-27)
(9.849702e-05 -5.71117e-05 1.647951e-28)
(8.065193e-05 -6.950036e-05 -4.923569e-28)
(9.034721e-05 -6.839647e-05 -1.252125e-23)
(8.068275e-05 -7.877432e-05 1.206168e-23)
(7.120378e-05 -7.87025e-05 8.159676e-25)
(0.000121714 -1.385132e-05 -5.663927e-27)
(0.0001298327 -7.276248e-06 6.542247e-27)
(0.000118858 -2.786617e-05 -2.043699e-25)
(0.00012772 -2.216871e-05 -5.664755e-27)
(0.0001143082 -4.140838e-05 -1.58993e-26)
(0.0001238045 -3.683832e-05 -5.4449e-27)
(0.0001081244 -5.439642e-05 -1.047197e-26)
(0.0001181352 -5.093065e-05 -1.715469e-23)
(0.000100401 -6.667645e-05 -4.29185e-27)
(0.0001107737 -6.434505e-05 5.693142e-27)
(9.081488e-05 -7.83187e-05 -4.30654e-27)
(0.0001016806 -7.702874e-05 -4.382798e-27)
(9.092798e-05 -8.86753e-05 -1.465481e-23)
(8.027739e-05 -8.865903e-05 -2.865351e-27)
(0.0001367063 -1.563932e-05 6.543429e-27)
(0.0001458464 -8.21725e-06 2.093859e-23)
(0.0001335128 -3.140503e-05 0)
(0.0001434656 -2.497606e-05 0)
(0.0001284504 -4.664772e-05 1.608688e-28)
(0.0001391066 -4.146456e-05 0)
(0.000121571 -6.126328e-05 -6.148602e-25)
(0.0001328032 -5.731899e-05 1.937168e-23)
(0.0001129475 -7.506338e-05 5.810107e-27)
(0.0001246062 -7.243595e-05 1.91374e-23)
(0.0001023039 -8.807992e-05 -4.533547e-27)
(0.0001144291 -8.677476e-05 -5.618771e-27)
(0.000102591 -9.956063e-05 -4.504158e-27)
(9.054851e-05 -9.978337e-05 -9.001858e-27)
(0.00015357 -1.761947e-05 1.469891e-26)
(0.0001638481 -9.258318e-06 2.324084e-23)
(0.0001500014 -3.532543e-05 0)
(0.0001611657 -2.808205e-05 4.532239e-29)
(0.0001443775 -5.245844e-05 6.408043e-27)
(0.0001563201 -4.658382e-05 7.858004e-27)
(0.0001367488 -6.890494e-05 6.462764e-25)
(0.0001493346 -6.438644e-05 6.617072e-27)
(0.0001271053 -8.450503e-05 6.714589e-27)
(0.0001403163 -8.13643e-05 1.913521e-23)
(0.0001155744 -9.900279e-05 -5.654004e-27)
(0.0001292532 -9.746468e-05 -1.434831e-23)
(0.0001161222 -0.000111902 0)
(0.0001022739 -0.000112207 4.416161e-27)
(0.0001725124 -1.980787e-05 8.300167e-27)
(0.0001840551 -1.040771e-05 8.249938e-27)
(0.0001685272 -3.965797e-05 -2.53101e-25)
(0.0001810336 -3.151198e-05 -9.006062e-27)
(0.0001622843 -5.887627e-05 8.067338e-27)
(0.0001756497 -5.224032e-05 2.460485e-23)
(0.0001538409 -7.731304e-05 -7.589772e-25)
(0.000167897 -7.220162e-05 2.079888e-28)
(0.0001432598 -9.473492e-05 -6.072614e-27)
(0.000157886 -9.122777e-05 -2.317173e-23)
(0.0001306521 -0.0001109732 -6.515458e-27)
(0.0001456523 -0.000109113 -4.936638e-27)
(0.0001310358 -0.000125734 8.200549e-28)
(0.0001153585 -0.0001260409 4.182454e-27)
(0.0001937599 -2.222146e-05 -9.045575e-27)
(0.0002067048 -1.167295e-05 -1.040133e-26)
(0.0001893144 -4.444026e-05 -3.150208e-28)
(0.0002033066 -3.52907e-05 -2.794945e-23)
(0.0001823926 -6.597258e-05 8.74559e-27)
(0.000197336 -5.847865e-05 1.854903e-26)
(0.0001730407 -8.66561e-05 -7.211527e-27)
(0.0001887593 -8.083727e-05 0)
(0.0001613401 -0.0001062501 -2.068942e-24)
(0.0001776933 -0.0001021865 -7.872714e-27)
(0.0001473699 -0.0001245376 -3.181103e-24)
(0.0001641652 -0.0001222818 1.415284e-27)
(0.0001479159 -0.0001410677 1.737787e-27)
(0.0001302393 -0.0001415972 -1.381917e-28)
(0.000217559 -2.487298e-05 -2.05599e-26)
(0.0002320497 -1.306039e-05 -3.110498e-23)
(0.0002126105 -4.97036e-05 -3.622086e-28)
(0.0002282425 -3.943361e-05 -2.155509e-26)
(0.0002049543 -7.378688e-05 9.811633e-27)
(0.0002216312 -6.533452e-05 3.017978e-23)
(0.0001946284 -9.695151e-05 -6.595521e-28)
(0.0002121697 -9.03349e-05 0)
(0.0001817083 -0.0001189419 2.259665e-24)
(0.0001999723 -0.0001142529 -6.596464e-28)
(0.000166233 -0.0001395127 -3.427271e-24)
(0.000185046 -0.0001368769 -9.098076e-27)
(0.0001670798 -0.0001582681 1.271951e-27)
(0.0001473328 -0.0001587684 7.273046e-27)
(0.0002441779 -2.776409e-05 -2.306461e-26)
(0.0002603644 -1.456344e-05 -2.477765e-26)
(0.0002386861 -5.547581e-05 -3.858538e-28)
(0.0002561301 -4.39564e-05 -3.486383e-23)
(0.0002302301 -8.236312e-05 1.101836e-26)
(0.0002488084 -7.28461e-05 1.100973e-26)
(0.0002188641 -0.00010826 0)
(0.0002383967 -0.0001007447 1.113484e-26)
(0.0002046751 -0.0001329158 -9.0813e-27)
(0.0002250056 -0.000127463 -8.215959e-28)
(0.0001876031 -0.0001561869 -8.907947e-27)
(0.0002087756 -0.0001527315 -2.495114e-23)
(0.0001896921 -0.000176476 7.74668e-24)
(0.0001678672 -0.0001778005 1.602462e-23)
(0.0002739052 -3.087863e-05 1.402961e-25)
(0.0002919036 -1.622727e-05 -3.522112e-23)
(0.0002678304 -6.179127e-05 -1.285445e-26)
(0.0002872922 -4.877551e-05 -1.288644e-26)
(0.0002584983 -9.174759e-05 1.112573e-26)
(0.000279156 -8.10233e-05 -1.409583e-26)
(0.0002459974 -0.0001206329 2.187132e-24)
(0.0002677225 -0.0001121423 3.680047e-23)
(0.0002303925 -0.0001481108 -2.031515e-26)
(0.0002529697 -0.0001419851 -1.326513e-26)
(0.0002116731 -0.0001737674 -3.762715e-24)
(0.0002349509 -0.0001702278 -3.688899e-23)
(0.0002134291 -0.0001964624 -3.922078e-23)
(0.0001898293 -0.0001969763 -1.605648e-23)
(0.0003070994 -3.416394e-05 -1.475324e-26)
(0.0003271689 -1.794975e-05 -1.461893e-26)
(0.000300455 -6.85934e-05 -1.413096e-26)
(0.0003221462 -5.404482e-05 0)
(0.0002901138 -0.0001019862 9.279799e-25)
(0.0003130849 -8.987877e-05 -4.271185e-23)
(0.0002763904 -0.0001342256 4.421897e-28)
(0.0003005535 -0.0001245784 1.286316e-26)
(0.0002592281 -0.0001650322 -3.547859e-26)
(0.0002844178 -0.0001579364 -4.078561e-23)
(0.0002385205 -0.0001940961 -3.349953e-26)
(0.0002646903 -0.0001897306 -4.15757e-23)
(0.0002410721 -0.0002197383 1.363288e-27)
(0.000214017 -0.0002210701 -2.790696e-26)
(0.0003440333 -3.776932e-05 0)
(0.000366278 -1.981289e-05 -1.846803e-26)
(0.0003366689 -7.588967e-05 -3.112498e-26)
(0.0003605964 -5.993844e-05 1.775537e-26)
(0.0003254589 -0.0001130963 -3.100831e-26)
(0.0003509564 -9.914711e-05 -4.871639e-23)
(0.0003104765 -0.0001490334 -2.795148e-26)
(0.0003372724 -0.0001379232 0)
(0.0002917888 -0.0001835206 -4.095639e-26)
(0.0003197455 -0.0001752339 -4.519719e-23)
(0.000269287 -0.0002163727 -1.250935e-27)
(0.0002984082 -0.0002108825 -1.297555e-26)
(0.0002731127 -0.0002447557 3.829956e-23)
(0.0002425233 -0.0002474764 1.194165e-26)
(0.0003848836 -4.185914e-05 3.813455e-25)
(0.000409793 -2.185202e-05 -4.764699e-23)
(0.0003770668 -8.356299e-05 3.498788e-26)
(0.0004036152 -6.601113e-05 4.496856e-23)
(0.0003651364 -0.0001247385 1.711287e-26)
(0.0003932848 -0.000109407 8.880633e-23)
(0.0003487459 -0.0001649901 -1.572944e-26)
(0.0003785642 -0.0001517654 3.757185e-26)
(0.0003284326 -0.0002034752 -1.572573e-26)
(0.0003593294 -0.0001937709 -3.210046e-26)
(0.0003041449 -0.0002402854 1.018955e-26)
(0.0003363338 -0.0002337374 1.492484e-27)
(0.0003088774 -0.0002717763 8.449823e-27)
(0.0002755691 -0.000274969 8.68461e-24)
(0.0004305262 -4.596383e-05 -5.057328e-28)
(0.0004577582 -2.395146e-05 -2.052792e-26)
(0.0004218769 -9.180027e-05 7.793076e-26)
(0.0004511531 -7.20926e-05 2.022284e-26)
(0.0004093738 -0.0001369386 9.621561e-26)
(0.0004404164 -0.0001199715 4.552298e-23)
(0.0003918875 -0.0001818771 -3.487469e-24)
(0.000425159 -0.0001666831 1.117599e-22)
(0.0003696939 -0.0002249506 -1.488513e-26)
(0.0004038713 -0.0002134116 -6.443819e-23)
(0.0003434895 -0.0002663733 -3.514268e-24)
(0.0003792157 -0.0002583473 4.777227e-27)
(0.0003496271 -0.0003013711 5.972584e-27)
(0.000312495 -0.0003057096 8.677523e-24)
(0.0004806367 -5.027849e-05 -3.120173e-25)
(0.0005104784 -2.613883e-05 -3.047092e-30)
(0.0004716763 -0.0001002024 2.265044e-26)
(0.0005032399 -7.857757e-05 -9.761334e-30)
(0.0004584766 -0.0001495593 -2.487767e-24)
(0.0004919758 -0.0001306153 4.621526e-26)
(0.0004396488 -0.00019933 1.680934e-24)
(0.000475776 -0.0001828332 5.456763e-26)
(0.0004162732 -0.000247783 -1.91909e-26)
(0.0004540671 -0.0002331987 -3.632739e-26)
(0.0003882111 -0.0002944499 -6.840175e-24)
(0.0004277428 -0.0002841712 2.055558e-26)
(0.0003962192 -0.0003330749 7.70075e-27)
(0.0003549665 -0.0003392259 -7.67135e-24)
(0.0005355658 -5.470043e-05 3.039828e-25)
(0.0005681708 -2.829608e-05 -3.949529e-29)
(0.0005262018 -0.000109073 2.346056e-26)
(0.0005603536 -8.50489e-05 -1.229786e-28)
(0.0005122069 -0.0001633322 4.608979e-25)
(0.0005491376 -0.0001414986 5.764464e-23)
(0.0004934813 -0.0002171942 1.094668e-23)
(0.0005329412 -0.0001985698 5.852028e-23)
(0.0004693699 -0.0002709283 5.548387e-24)
(0.0005109623 -0.0002546143 2.598062e-26)
(0.0004392692 -0.0003241106 1.725955e-26)
(0.0004833182 -0.0003099912 1.044342e-22)
(0.0004493346 -0.0003663927 0)
(0.0004037777 -0.0003749228 -1.211278e-27)
(0.0005954184 -5.889485e-05 0)
(0.0006307126 -3.028566e-05 -8.935681e-29)
(0.0005858244 -0.0001174299 2.724705e-26)
(0.000622266 -9.103511e-05 2.70275e-28)
(0.00057229 -0.0001759657 5.603249e-26)
(0.0006111239 -0.0001515872 2.818733e-26)
(0.0005532691 -0.0002351298 1.080221e-24)
(0.00059563 -0.0002127222 2.869923e-26)
(0.000529291 -0.0002943364 -6.652564e-24)
(0.000574553 -0.0002751876 5.742873e-23)
(0.0004979424 -0.0003547154 3.736675e-26)
(0.00054752 -0.0003368494 3.361347e-26)
(0.0005104305 -0.0004007718 -1.005148e-26)
(0.0004599894 -0.0004128163 -1.991073e-26)
(0.0006599608 -6.261757e-05 4.670049e-25)
(0.0006977337 -3.192252e-05 -3.481081e-26)
(0.0006501749 -0.0001250006 2.028461e-25)
(0.0006886839 -9.607674e-05 5.618017e-28)
(0.0006371599 -0.0001878381 9.336213e-28)
(0.0006779286 -0.0001605048 -3.267439e-26)
(0.0006192685 -0.0002516462 5.638224e-26)
(0.0006633525 -0.0002262157 0)
(0.0005959834 -0.000316548 5.440952e-26)
(0.000643294 -0.0002939312 9.249126e-23)
(0.0005638804 -0.0003846053 -2.862487e-24)
(0.0006169502 -0.000364821 -1.761435e-27)
(0.0005820248 -0.0004344636 -5.959885e-26)
(0.0005255639 -0.0004526679 1.108902e-23)
(0.0007285719 -6.536092e-05 -5.972325e-26)
(0.0007683009 -3.293093e-05 -2.887724e-23)
(0.0007188597 -0.0001310239 -3.326942e-26)
(0.0007589208 -9.944537e-05 -3.703493e-26)
(0.000707002 -0.0001980797 -3.361781e-26)
(0.0007492953 -0.0001672575 -4.673559e-23)
(0.0006910836 -0.0002674345 3.527096e-26)
(0.0007369949 -0.0002374758 -2.850437e-27)
(0.0006690978 -0.0003400304 4.325943e-24)
(0.0007205504 -0.0003110343 2.77305e-26)
(0.0006412107 -0.000414678 -1.323261e-23)
(0.0006977151 -0.0003892372 8.017909e-23)
(0.0006674226 -0.0004686248 -7.305558e-26)
(0.0006038566 -0.0004937549 3.301166e-23)
(0.0008001938 -6.64737e-05 8.377059e-25)
(0.0008408218 -3.32023e-05 -3.818299e-26)
(0.0007912935 -0.0001346826 -7.443588e-26)
(0.0008320477 -0.0001002538 -2.006317e-23)
(0.0007816698 -0.0002053404 -3.998588e-26)
(0.0008244461 -0.0001707122 3.567899e-27)
(0.0007693704 -0.000279464 -7.319431e-24)
(0.0008157133 -0.0002448787 -1.385218e-27)
(0.0007521138 -0.0003577881 -4.983646e-24)
(0.00080401 -0.0003238248 -5.116487e-26)
(0.0007288106 -0.000440516 7.505881e-24)
(0.0007863019 -0.0004088123 1.521205e-26)
(0.0007616016 -0.0005020428 -2.31475e-26)
(0.0006946626 -0.000531826 -1.801598e-23)
(0.0008734214 -6.558858e-05 4.011128e-26)
(0.0009138696 -3.233011e-05 4.542503e-26)
(0.0008667095 -0.0001348538 -4.365716e-24)
(0.000906692 -9.880942e-05 -4.12595e-23)
(0.0008606585 -0.0002084644 4.929792e-24)
(0.0009026994 -0.0001691699 1.410717e-23)
(0.0008536187 -0.0002869722 -4.209204e-26)
(0.0008991546 -0.0002463697 9.000098e-26)
(0.0008434331 -0.0003721181 -1.593982e-23)
(0.0008950649 -0.0003300678 -6.727545e-23)
(0.0008263673 -0.0004658999 -5.099482e-27)
(0.0008876945 -0.0004222203 3.410808e-26)
(0.0008731019 -0.0005259569 -2.720705e-30)
(0.00080319 -0.0005667296 1.813576e-27)
(0.0009461936 -6.31317e-05 1.323097e-25)
(0.0009847331 -3.009887e-05 -5.639553e-23)
(0.0009429237 -0.0001308405 -2.500165e-23)
(0.0009807215 -9.390803e-05 8.647788e-26)
(0.0009429602 -0.000204877 1.30027e-25)
(0.0009817422 -0.000162621 4.117817e-26)
(0.0009432312 -0.0002865129 4.039113e-26)
(0.0009859699 -0.0002386525 2.690804e-23)
(0.0009430327 -0.0003762244 -2.042988e-23)
(0.0009912379 -0.0003254943 4.936151e-26)
(0.0009382295 -0.0004767469 3.917104e-26)
(0.0009967803 -0.0004235951 3.903097e-23)
(0.0009937505 -0.0005389186 6.355105e-27)
(0.0009205768 -0.0005882337 1.607512e-26)
(0.001016666 -5.79892e-05 -3.742686e-24)
(0.001050339 -2.661902e-05 -3.08387e-27)
(0.001017319 -0.0001222388 -2.636082e-28)
(0.001051241 -8.420687e-05 1.629082e-28)
(0.001024753 -0.0001929142 1.215593e-27)
(0.001058287 -0.0001488425 7.963588e-28)
(0.001036365 -0.0002743294 9.990111e-26)
(0.001072553 -0.0002212404 1.347275e-22)
(0.001047348 -0.0003671615 1.518544e-25)
(0.001090802 -0.0003065361 -1.036957e-22)
(0.00105051 -0.000473161 1.068298e-22)
(0.001107302 -0.0004148735 4.508946e-26)
(0.001102367 -0.0005536821 -5.951545e-26)
(0.001031013 -0.0005931095 6.475026e-27)
(0.001080672 -4.997681e-05 -5.109656e-26)
(0.001107399 -2.162922e-05 1.538465e-22)
(0.001088017 -0.0001072666 8.839372e-24)
(0.001114567 -6.998711e-05 4.217242e-28)
(0.001102385 -0.0001719046 -1.085137e-25)
(0.001128931 -0.0001257019 1.950604e-27)
(0.001125349 -0.0002474339 -1.64225e-22)
(0.001153901 -0.0001924812 -1.074323e-25)
(0.001145857 -0.0003390604 1.894576e-25)
(0.001183469 -0.0002791997 -6.613152e-22)
(0.001144614 -0.0004497594 -7.69441e-22)
(0.001196881 -0.0004046825 -3.842115e-26)
(0.001175154 -0.0005804442 5.588599e-22)
(0.001113983 -0.0005754778 2.588097e-26)
(0.001134944 -3.876527e-05 -5.40113e-26)
(0.001152341 -1.511907e-05 -5.401865e-26)
(0.001149562 -8.547523e-05 1.162561e-27)
(0.001166866 -5.047343e-05 3.157244e-28)
(0.001173846 -0.0001394436 4.318998e-23)
(0.00118867 -9.378954e-05 1.887389e-27)
(0.001200933 -0.0002077925 9.601587e-26)
(0.001224924 -0.0001556698 5.840062e-28)
(0.001219209 -0.0002962486 -2.982609e-21)
(0.001249052 -0.0002573847 9.128953e-26)
(0.001207697 -0.0004126936 -8.546679e-26)
(0.001251746 -0.0004079671 4.478865e-28)
(0.001217833 -0.0006144408 -1.046279e-25)
(0.00116253 -0.0005520806 4.060055e-27)
(0.001175754 -2.428129e-05 3.15099e-28)
(0.00118197 -7.12479e-06 0)
(0.00119762 -5.57765e-05 2.094946e-23)
(0.001203316 -2.564085e-05 3.197659e-28)
(0.001228147 -9.504529e-05 -5.848602e-28)
(0.001231424 -5.593564e-05 7.384398e-28)
(0.001253852 -0.000158642 -3.611643e-22)
(0.001268606 -0.0001221119 -1.321052e-27)
(0.001254308 -0.0002493387 2.669715e-26)
(0.001278065 -0.0002491808 -2.621722e-27)
(0.00123714 -0.0003676286 -1.225911e-20)
(0.001258331 -0.0004343578 -8.568425e-22)
(0.001233362 -0.0006621431 -4.920746e-26)
(0.001176763 -0.0005088528 5.617663e-26)
(0.001199272 -7.014694e-06 2.120124e-30)
(0.001193305 2.752928e-06 -5.699448e-26)
(0.00122541 -1.891067e-05 5.510322e-30)
(0.001219943 2.716037e-06 5.888873e-26)
(0.001254093 -4.548081e-05 8.941592e-30)
(0.001248384 -2.127953e-05 -2.937482e-28)
(0.001269325 -0.0001096536 4.775487e-30)
(0.001271892 -0.0001026812 7.759082e-28)
(0.001256125 -0.0002048912 5.814713e-26)
(0.001269815 -0.0002570572 -1.753861e-30)
(0.001217309 -0.0003270906 5.995194e-26)
(0.001236957 -0.0004719696 1.140627e-25)
(0.001184659 -0.0007364412 1.064968e-25)
(0.001177739 -0.0004824147 9.908742e-26)
(0.001201563 1.487944e-05 6.592684e-24)
(0.00118156 1.449679e-05 3.225194e-22)
(0.001227262 2.192627e-05 5.806955e-26)
(0.001210995 2.956351e-05 -4.212587e-22)
(0.001243275 -3.952608e-07 5.499439e-22)
(0.001230255 -1.850746e-06 -5.838373e-26)
(0.001245906 -6.260851e-05 7.737286e-28)
(0.001231894 -0.0001064719 7.576342e-28)
(0.001218018 -0.0001627853 5.653593e-26)
(0.001229473 -0.000283155 5.528012e-26)
(0.001169735 -0.0002832579 1.588794e-25)
(0.001174284 -0.0005250313 -1.206125e-21)
(0.001119507 -0.0008129066 -3.662286e-21)
(0.00110009 -0.0004294118 1.05354e-25)
(0.00117532 4.031673e-05 1.518594e-27)
(0.001142394 2.57273e-05 -1.088207e-25)
(0.001194687 6.001499e-05 -7.541848e-28)
(0.001166888 4.814559e-05 5.717011e-26)
(0.00119816 3.759019e-05 -5.797421e-26)
(0.001174099 9.144605e-07 5.737525e-22)
(0.001182632 -2.629958e-05 5.453412e-26)
(0.00116539 -0.0001277277 -2.355694e-27)
(0.001152811 -0.0001302525 1.069978e-25)
(0.001132834 -0.0003342549 -9.509005e-22)
(0.001102833 -0.0002563508 1.448768e-25)
(0.001074632 -0.0005998399 4.955525e-26)
(0.00106896 -0.0009001803 9.369964e-26)
(0.001014044 -0.000415149 4.301683e-26)
(0.001115713 6.406336e-05 -5.305818e-26)
(0.001071692 3.205681e-05 3.810774e-22)
(0.001124706 9.042419e-05 -1.086487e-25)
(0.00108426 5.358659e-05 6.492156e-28)
(0.001117845 6.82718e-05 -1.108085e-25)
(0.001081672 -1.126856e-05 6.177754e-22)
(0.001091969 1.448961e-06 -5.274766e-21)
(0.001065736 -0.000163263 -4.028407e-27)
(0.001043835 -0.0001040966 9.407168e-26)
(0.001026705 -0.0003932094 -1.084815e-21)
(0.0009784987 -0.0002390435 1.138341e-30)
(0.0009639739 -0.0006854207 1.603582e-26)
(0.0008880743 -0.001024905 2.477481e-26)
(0.0009282928 -0.0003970267 3.156762e-32)
(0.001022718 7.941277e-05 -9.519565e-23)
(0.0009696468 3.174355e-05 -2.701236e-26)
(0.001019911 0.0001088561 -4.831612e-22)
(0.0009691038 4.407798e-05 -2.15052e-26)
(0.001004012 8.693935e-05 -1.664762e-27)
(0.0009574675 -3.694474e-05 -5.517151e-22)
(0.0009719294 1.66275e-05 -3.358395e-21)
(0.0009363154 -0.0002090617 3.834812e-26)
(0.000919697 -9.441327e-05 5.598748e-26)
(0.0008945459 -0.0004630834 5.079145e-26)
(0.0008500026 -0.0002354639 1.402934e-20)
(0.0008341135 -0.0007779815 3.415871e-26)
(0.0007580842 -0.001130827 2.405065e-26)
(0.0007740109 -0.000386921 5.377473e-26)
(0.0008983234 8.601287e-05 -5.413646e-22)
(0.0008321599 2.421568e-05 -2.021661e-22)
(0.0008883579 0.0001141781 2.424563e-21)