/*--------------------------------*- C++ -*----------------------------------*\
| =========                 |                                                 |
| \\      /  F ield         | OpenFOAM: The Open Source CFD Toolbox           |
|  \\    /   O peration     | Version:  2206                                  |
|   \\  /    A nd           | Website:  www.openfoam.com                      |
|    \\/     M anipulation  |                                                 |
\*---------------------------------------------------------------------------*/
FoamFile
{
    version     2.0;
    format      ascii;
    arch        "LSB;label=32;scalar=64";
    class       volScalarField;
    location    "2.6";
    object      alpha.b;
}
// * * * * * * * * * * * * * * * * * * * * * * * * * * * * * * * * * * * * * //

dimensions      [0 0 0 0 0 0 0];

internalField   nonuniform List<scalar> 
13078
(
0.5295579
0.4452754
0.4207605
0.4192758
0.4195921
0.4202843
0.4211183
0.4377264
0.4213846
0.418792
0.4189663
0.4195388
0.4202538
0.4210937
0.4186814
0.4180402
0.4182381
0.4187963
0.4194578
0.4202012
0.4210547
0.4166752
0.4174152
0.4180315
0.4186748
0.419374
0.4201426
0.4210097
0.4164454
0.4172432
0.4179195
0.4185959
0.4193024
0.4200859
0.4209645
0.4164868
0.4172121
0.4178654
0.4185425
0.4192597
0.4200386
0.4209219
0.4165462
0.417218
0.417843
0.4185112
0.4192292
0.420013
0.4208861
0.4165916
0.4172359
0.4178365
0.4184961
0.4192118
0.4199946
0.4208693
0.4166249
0.4172543
0.4178408
0.418492
0.4192028
0.4199832
0.4208569
0.4166493
0.4172706
0.4178483
0.4184924
0.4191989
0.4199764
0.4208486
0.4166678
0.4172843
0.4178562
0.4184952
0.419198
0.4199727
0.4208429
0.4166826
0.4172954
0.4178637
0.4184991
0.4191988
0.4199709
0.4208392
0.4166948
0.4173051
0.4178708
0.4185034
0.4192006
0.4199703
0.4208367
0.4167052
0.4173135
0.4178773
0.4185076
0.4192027
0.4199705
0.4208349
0.4167144
0.417321
0.4178831
0.4185076
0.4191994
0.4199702
0.4208336
0.416723
0.4173279
0.4178884
0.4185071
0.4191982
0.4199705
0.4208324
0.4167312
0.4173348
0.417894
0.4185106
0.4192002
0.4199712
0.4208314
0.4167394
0.4173415
0.4178995
0.4185144
0.4192025
0.4199719
0.4208304
0.4167478
0.4173483
0.417905
0.4185184
0.4192048
0.4199724
0.4208295
0.4167565
0.4173553
0.4179106
0.418522
0.419201
0.4199646
0.4208274
0.4167658
0.4173629
0.4179166
0.4185258
0.4191968
0.41996
0.4208254
0.416776
0.417371
0.4179233
0.4185306
0.4191985
0.4199602
0.420824
0.4167871
0.41738
0.4179305
0.4185357
0.4192013
0.4199603
0.4208217
0.4167996
0.41739
0.4179385
0.4185413
0.4192036
0.4199519
0.4208078
0.4168135
0.4174012
0.4179476
0.4185475
0.4192065
0.4199432
0.4207986
0.4168292
0.4174138
0.4179576
0.4185546
0.4192105
0.419942
0.420795
0.4168472
0.4174281
0.4179691
0.4185626
0.419215
0.4199425
0.4207912
0.4168675
0.4174443
0.4179819
0.4185718
0.4192201
0.4199428
0.4207752
0.4168907
0.4174628
0.4179965
0.4185821
0.4192262
0.4199443
0.4207597
0.4169146
0.4174812
0.418012
0.4185937
0.4192336
0.4199477
0.4207553
0.4169426
0.4175029
0.4180298
0.4186067
0.4192422
0.4199523
0.4207545
0.4169737
0.4175229
0.418043
0.4186197
0.4192522
0.4199589
0.4207574
0.4170068
0.4175444
0.4180544
0.4186244
0.4192597
0.4199647
0.4207621
0.4170398
0.417565
0.418063
0.4186305
0.4192613
0.4199611
0.420758
0.4170689
0.417575
0.4180571
0.4186011
0.4192176
0.4199222
0.4207244
0.4170829
0.4175599
0.4180099
0.418515
0.4191019
0.4198016
0.420632
0.4170696
0.4174865
0.4178761
0.4183356
0.4188949
0.4196364
0.4205302
0.4170019
0.4173118
0.4176376
0.4180827
0.4186528
0.4194442
0.4204744
0.4168419
0.4170433
0.4173409
0.4178021
0.4184247
0.4192537
0.4204891
0.4165653
0.4167214
0.4170379
0.417529
0.4182113
0.419111
0.4204363
0.4162007
0.4163995
0.4167173
0.4172814
0.417997
0.4189479
0.4202617
0.4157685
0.4161157
0.416429
0.4169956
0.41778
0.4187368
0.4199154
0.4153238
0.4158597
0.4161979
0.4167389
0.4174601
0.4184292
0.4193397
0.4149058
0.4157082
0.4159897
0.4165507
0.4172045
0.417956
0.4187874
0.414638
0.4156322
0.4158931
0.4164259
0.4170156
0.4174927
0.4180695
0.4145482
0.4156123
0.4158505
0.4163614
0.4168199
0.4171877
0.4175959
0.4145525
0.415604
0.4158758
0.4163261
0.416632
0.4169509
0.4174743
0.4145381
0.4155409
0.4158067
0.4162364
0.4164086
0.4167904
0.417401
0.414516
0.4154407
0.4156586
0.4160729
0.4162709
0.4166944
0.41744
0.4144908
0.4153194
0.4155025
0.4158963
0.4161111
0.4166978
0.417654
0.414471
0.4151486
0.4153404
0.4157889
0.4160872
0.4168677
0.4180251
0.4145199
0.4150687
0.4151871
0.4156187
0.4160703
0.4170944
0.4184156
0.4146555
0.4151111
0.4152821
0.415722
0.4162942
0.4174324
0.4187654
0.414835
0.4152389
0.4154362
0.4159561
0.4166611
0.4179035
0.4188344
0.4150321
0.4154052
0.4156459
0.4162326
0.4170275
0.418197
0.4188041
0.4152512
0.4156176
0.4158955
0.4165044
0.4172997
0.4183187
0.4187537
0.4154756
0.4159238
0.4162268
0.4168031
0.4175048
0.4184051
0.4187705
0.4156206
0.4161627
0.4164561
0.4169674
0.4175625
0.4184354
0.4188128
0.4157543
0.4163897
0.4166713
0.4171284
0.4176345
0.4185034
0.4189449
0.4158882
0.4166389
0.4169326
0.41735
0.4177889
0.418594
0.4191665
0.4159912
0.416852
0.4171845
0.4176725
0.4180496
0.4188454
0.4195693
0.4160625
0.4170148
0.4173721
0.4179125
0.4182475
0.4190088
0.4198285
0.416115
0.4171292
0.4175552
0.4181876
0.4185267
0.4191872
0.4201557
0.4161376
0.4171657
0.4176312
0.4183641
0.4187801
0.4193748
0.4203414
0.4160995
0.4170946
0.4175916
0.41842
0.4189856
0.419523
0.4204659
0.4159727
0.4169658
0.4174664
0.4183539
0.4192344
0.4198955
0.4206698
0.4158413
0.4168153
0.4173429
0.4182523
0.4193743
0.4202563
0.4208657
0.4158379
0.41673
0.417312
0.4181804
0.419347
0.420526
0.4213131
0.4160128
0.4167133
0.4173038
0.4181425
0.4192473
0.4206103
0.4218646
0.4162913
0.4167807
0.41734
0.4181594
0.4191918
0.4205338
0.4220607
0.4165749
0.416926
0.4174211
0.4181752
0.4191471
0.4203734
0.4219329
0.4168252
0.4170969
0.4175324
0.4181978
0.4190661
0.4201821
0.4215581
0.4170074
0.4172918
0.4176869
0.4182519
0.4190043
0.4199482
0.4212826
0.4171087
0.4174696
0.4178554
0.4183698
0.4190174
0.4198368
0.4209811
0.4171396
0.4175863
0.418009
0.4185082
0.4191031
0.4198628
0.4208126
0.4171328
0.4176299
0.4181002
0.4186221
0.4192247
0.4199466
0.420794
0.417106
0.4176296
0.418126
0.4186743
0.4193007
0.4200127
0.4208246
0.4170679
0.4176079
0.4181159
0.4186841
0.4193205
0.4200354
0.4208366
0.4170291
0.4175778
0.418094
0.4186756
0.4193174
0.4200257
0.4208249
0.416992
0.4175475
0.418072
0.4186542
0.419297
0.4200072
0.420807
0.4169572
0.4175213
0.4180533
0.4186391
0.4192784
0.4199899
0.4207921
0.4169264
0.4174981
0.4180348
0.4186196
0.4192614
0.4199763
0.4207824
0.4168999
0.4174754
0.4180138
0.4186022
0.4192474
0.4199659
0.4207771
0.4168774
0.4174563
0.4179963
0.4185873
0.419236
0.4199578
0.4207758
0.4168559
0.4174379
0.4179805
0.4185746
0.4192268
0.4199527
0.4207878
0.4168372
0.4174221
0.4179669
0.418564
0.4192194
0.4199496
0.4208001
0.4168206
0.4174083
0.4179551
0.418555
0.4192133
0.4199469
0.4208015
0.4168063
0.4173963
0.417945
0.4185473
0.4192082
0.4199464
0.4208031
0.4167934
0.4173858
0.4179362
0.4185405
0.4192045
0.4199545
0.4208115
0.4167821
0.4173764
0.4179283
0.4185348
0.4192017
0.4199616
0.4208241
0.4167719
0.417368
0.4179214
0.4185297
0.4191985
0.419961
0.4208255
0.4167626
0.4173604
0.417915
0.4185251
0.4191966
0.4199604
0.4208264
0.4167542
0.4173535
0.4179094
0.4185214
0.4192011
0.4199652
0.4208281
0.4167462
0.4173471
0.4179042
0.4185181
0.4192048
0.4199727
0.42083
0.4167387
0.417341
0.4178993
0.4185144
0.4192026
0.4199722
0.4208306
0.4167315
0.4173351
0.4178944
0.4185109
0.4192005
0.4199714
0.4208314
0.4167242
0.4173291
0.4178894
0.4185078
0.4191985
0.4199706
0.4208322
0.4167169
0.4173231
0.4178848
0.4185089
0.4192001
0.4199702
0.4208332
0.4167091
0.4173167
0.4178798
0.4185091
0.4192033
0.4199703
0.4208341
0.4167005
0.4173097
0.4178742
0.4185052
0.4192012
0.4199698
0.4208353
0.4166908
0.4173017
0.417868
0.4185011
0.419199
0.4199696
0.4208369
0.4166791
0.4172924
0.4178613
0.4184971
0.4191974
0.4199701
0.4208392
0.4166648
0.4172816
0.4178539
0.4184934
0.4191966
0.4199717
0.4208427
0.4166469
0.4172683
0.4178463
0.4184907
0.4191974
0.4199753
0.4208481
0.4166232
0.4172523
0.4178392
0.41849
0.419201
0.419982
0.4208566
0.4165907
0.4172341
0.4178377
0.418496
0.41921
0.4199935
0.4208685
0.416546
0.4172162
0.4178427
0.4185112
0.4192279
0.4200106
0.4208986
0.4164874
0.4172089
0.4178613
0.4185393
0.4192547
0.4200481
0.4209357
0.4164424
0.4172371
0.4179138
0.4185868
0.4193086
0.4200961
0.4209772
0.4166571
0.4174006
0.4180119
0.4186769
0.41938
0.4201512
0.4210225
0.4184522
0.4179581
0.4182347
0.4187961
0.4194608
0.4202095
0.4210679
0.4357198
0.4205817
0.4185919
0.4189493
0.4195478
0.4202669
0.4211104
0.4221138
0.4233639
0.4250313
0.426616
0.4294363
0.4338712
0.4441269
0.422089
0.4233339
0.4249945
0.4265735
0.429384
0.4337996
0.4437079
0.4220553
0.4232991
0.4249504
0.4271218
0.4293338
0.4337312
0.4434904
0.4220174
0.4232623
0.4249136
0.426474
0.4292821
0.4336619
0.4432966
0.4219786
0.4232238
0.4248706
0.4264229
0.4292286
0.4335927
0.4431647
0.4219408
0.423185
0.424827
0.426373
0.429176
0.4335241
0.4430434
0.4219051
0.4231475
0.4247844
0.4263259
0.4291601
0.433456
0.4429299
0.4218745
0.4231115
0.4247431
0.4262801
0.4291452
0.4333886
0.4428284
0.4218623
0.4230798
0.4247042
0.4262348
0.4291026
0.4333281
0.4427296
0.421853
0.423069
0.4246691
0.4261902
0.4290613
0.4332676
0.4426377
0.4218461
0.4230606
0.4246583
0.4261478
0.4290201
0.433207
0.442551
0.4218408
0.4230536
0.4246498
0.426138
0.4289789
0.4331461
0.4424684
0.4218366
0.4230475
0.4246418
0.426129
0.4289714
0.4330835
0.4423906
0.421833
0.4230418
0.4246339
0.4261198
0.4289629
0.4330719
0.442331
0.4218298
0.4230362
0.4246261
0.4261105
0.4289537
0.4330573
0.4423709
0.4218267
0.4230307
0.4246181
0.4261007
0.4289436
0.4330413
0.4424265
0.4218237
0.4230251
0.4246099
0.42609
0.4289278
0.4330242
0.4424703
0.4218207
0.4230194
0.4246011
0.4260745
0.4288112
0.4330055
0.4425282
0.4218175
0.4230138
0.4245921
0.4260625
0.4287899
0.4329861
0.4425795
0.4218141
0.4230078
0.4245825
0.4260498
0.4287742
0.4329654
0.4426367
0.4218106
0.4230014
0.4245726
0.4260363
0.4287577
0.4329435
0.4427116
0.4218067
0.4229946
0.4245624
0.4260218
0.4287402
0.4329204
0.4427735
0.4218026
0.422987
0.424551
0.4260089
0.4287169
0.4328962
0.4428376
0.4217963
0.4229786
0.424536
0.4265572
0.4285886
0.4328583
0.4428995
0.4217901
0.4229701
0.4245247
0.4259793
0.4285326
0.4328262
0.4429579
0.4217843
0.4229607
0.42451
0.4259519
0.4285047
0.4327953
0.4430165
0.4217758
0.4229486
0.4244921
0.4259279
0.4284757
0.4327599
0.4430789
0.4217511
0.4229338
0.4244751
0.425903
0.4284369
0.4325144
0.4431317
0.4217389
0.4225933
0.4240451
0.4258943
0.4283984
0.4324156
0.4431666
0.4217295
0.4225787
0.4240177
0.4258633
0.4283587
0.432371
0.4431924
0.4216967
0.4225407
0.4239979
0.4258324
0.4283157
0.4321795
0.4431807
0.4216835
0.4225108
0.4239797
0.4258
0.4282734
0.4319818
0.4431115
0.4216849
0.4224548
0.4239576
0.4257731
0.428236
0.4319225
0.442898
0.4216878
0.4224463
0.42393
0.4257684
0.4282215
0.4318286
0.4411303
0.42168
0.4224527
0.4239256
0.4258129
0.4282706
0.4316336
0.4398715
0.421674
0.4224763
0.4239586
0.4260241
0.4284748
0.4312874
0.4359051
0.4217367
0.4226137
0.424316
0.4265417
0.4288564
0.4313138
0.4357085
0.4219209
0.4229543
0.4248274
0.4268554
0.4293793
0.4325515
0.4355134
0.4221865
0.4234034
0.4253171
0.4272917
0.4303026
0.4331785
0.4355812
0.4222954
0.4237605
0.4255684
0.4277048
0.43023
0.4330128
0.4364662
0.422124
0.4236814
0.4251962
0.4278071
0.4302101
0.4329524
0.4385866
0.4213159
0.4228763
0.4249453
0.4280294
0.430166
0.4325372
0.4380565
0.4205578
0.422259
0.4247442
0.4277885
0.4294833
0.4316785
0.4375696
0.4198598
0.4217459
0.4246023
0.427092
0.4282498
0.4312404
0.4361072
0.4192665
0.4208406
0.4237737
0.4261927
0.4277855
0.430673
0.4351726
0.4186201
0.4200777
0.4229345
0.4251974
0.4273575
0.4297931
0.4345194
0.4183283
0.4196454
0.4225166
0.4241864
0.4261742
0.4298217
0.4336283
0.4184813
0.4197169
0.4221812
0.4231613
0.4256993
0.4282297
0.4310085
0.4187535
0.4199681
0.4217469
0.4226861
0.4250943
0.4280782
0.4296351
0.4191086
0.4202665
0.4212891
0.4222592
0.4247773
0.4270856
0.429946
0.4194198
0.4200009
0.4206741
0.4220163
0.4240782
0.4263296
0.4296737
0.4195346
0.419669
0.4201329
0.4215374
0.423254
0.425503
0.4285279
0.4194583
0.4193363
0.4198336
0.4212667
0.4230088
0.4247637
0.4266915
0.419123
0.4189276
0.4200635
0.4217228
0.4229658
0.4242314
0.4255644
0.4189234
0.4188978
0.4202048
0.4219579
0.4230368
0.4226429
0.4231336
0.4187823
0.419034
0.4203668
0.4219977
0.4227195
0.4233586
0.4188671
0.419232
0.4206168
0.4221889
0.4228896
0.4234653
0.4190549
0.4194244
0.4207453
0.4223146
0.4232273
0.4235584
0.4193454
0.4195511
0.4207855
0.4223543
0.4235699
0.4239932
0.4251037
0.4196232
0.4197859
0.421156
0.4228428
0.424152
0.4260571
0.4289423
0.4201445
0.4203429
0.4216357
0.4234799
0.425282
0.4272829
0.4305781
0.4203445
0.4206261
0.4215224
0.4233317
0.4249354
0.4269949
0.4315838
0.4206543
0.4209618
0.4216157
0.4231942
0.4249844
0.4269388
0.4304504
0.4210832
0.4212464
0.4218111
0.4232144
0.425375
0.4273908
0.4290663
0.4214579
0.4215766
0.4223373
0.4242058
0.425851
0.4273463
0.4313263
0.4217468
0.4221088
0.4229515
0.4247109
0.4266697
0.4282355
0.4333287
0.4220856
0.4226004
0.423472
0.4254527
0.4273688
0.4301847
0.4349405
0.4225175
0.4232753
0.4242807
0.4257524
0.4282836
0.4308263
0.4356359
0.4230123
0.4237979
0.4248737
0.4263765
0.42842
0.431536
0.4370777
0.4236864
0.4243791
0.4253464
0.4266614
0.4290209
0.4319261
0.4383818
0.4239996
0.4251679
0.4257912
0.4271136
0.4294001
0.4321135
0.4378538
0.4237401
0.4255744
0.426457
0.4276957
0.4294732
0.4318926
0.4369637
0.4230833
0.4249246
0.4265317
0.4283514
0.4297378
0.4321956
0.4367232
0.4224395
0.4240565
0.425568
0.427693
0.4302976
0.4328549
0.4364681
0.4220115
0.4232681
0.4247002
0.4265508
0.4292364
0.4322022
0.4358149
0.4218341
0.422816
0.4241672
0.4261588
0.4285389
0.4313497
0.4370371
0.4217839
0.422651
0.423945
0.4258844
0.4283196
0.4313864
0.4381939
0.4217662
0.422598
0.4239156
0.4258231
0.4282487
0.4317489
0.4409795
0.4217473
0.4225699
0.4239642
0.4258159
0.4282472
0.4318791
0.4419722
0.4217295
0.4225516
0.424
0.4258243
0.4282725
0.4319332
0.4425465
0.4217203
0.4225765
0.4240151
0.4258428
0.428307
0.4319948
0.4433997
0.4217276
0.4226043
0.4240287
0.4258638
0.4283428
0.4320766
0.443371
0.4217534
0.422637
0.4240395
0.4258845
0.4283766
0.4323586
0.4433199
0.4217569
0.4226438
0.4240526
0.4259035
0.4284078
0.4324181
0.4432539
0.4217655
0.422949
0.4244911
0.4259481
0.4284383
0.4324574
0.4431883
0.4217864
0.4229598
0.424504
0.4259626
0.4284722
0.4326773
0.4431183
0.4217921
0.4229691
0.4245181
0.4259789
0.4285012
0.4327875
0.4430394
0.4217958
0.4229764
0.4245305
0.4259942
0.4285265
0.4328166
0.4429679
0.4218006
0.4229836
0.4245423
0.4260088
0.4285542
0.4328435
0.4428915
0.4218056
0.4229903
0.4245532
0.4260231
0.4286815
0.4328793
0.4428249
0.4218086
0.4229966
0.4245636
0.4260366
0.4287329
0.4329075
0.4427548
0.4218118
0.4230027
0.4245735
0.4260492
0.4287496
0.4329299
0.4426836
0.4218149
0.4230085
0.4245829
0.4260613
0.4287658
0.4329514
0.4426174
0.421818
0.423014
0.424592
0.4260729
0.4287811
0.4329721
0.4425529
0.4218208
0.4230193
0.4246005
0.4260841
0.4287955
0.4329915
0.4424962
0.4218235
0.4230246
0.4246088
0.426097
0.4288602
0.4330103
0.4424444
0.4218262
0.4230299
0.4246167
0.4261094
0.428936
0.433028
0.4423936
0.4218289
0.4230349
0.4246242
0.4261194
0.428946
0.4330446
0.4423374
0.4218316
0.4230399
0.4246316
0.4261292
0.4289555
0.43306
0.4423336
0.4218345
0.4230449
0.4246389
0.4261388
0.428964
0.4330742
0.4423297
0.4218377
0.4230502
0.4246461
0.4261484
0.4289724
0.4331109
0.442412
0.4218417
0.423056
0.4246536
0.4261582
0.4289959
0.4331722
0.4424996
0.4218467
0.4230628
0.4246634
0.4261842
0.4290366
0.4332333
0.4425926
0.4218536
0.4230718
0.4246973
0.4262289
0.4290776
0.4332942
0.4426876
0.4218629
0.4231013
0.4247345
0.4262742
0.4291187
0.4333552
0.4427896
0.42189
0.423135
0.4247742
0.4263207
0.4291587
0.4334193
0.4428953
0.4219222
0.4231704
0.4248156
0.4263656
0.4291475
0.4334875
0.4430057
0.4219571
0.4232079
0.4248582
0.4264132
0.4291981
0.4335562
0.4431238
0.421995
0.4232469
0.4249017
0.4264606
0.4292509
0.4336251
0.4432539
0.4220347
0.4232864
0.4249452
0.4265074
0.429304
0.4336948
0.4434138
0.4220735
0.4233245
0.4249879
0.4265525
0.4293571
0.433765
0.4436291
0.4221099
0.4233618
0.4250298
0.4265955
0.42941
0.433836
0.4439689
0.9956839
1
1
1
1
1
1
1
1
1
1
1
1
1
1
1
1
1
0.9898375
1
1
1
1
1
1
1
1
1
1
1
1
1
1
1
1
1
0.9879631
1
1
1
1
1
1
1
1
1
1
1
1
1
1
1
1
1
0.9869622
1
1
1
1
1
1
1
1
1
1
1
1
1
1
1
1
1
0.9859865
1
1
1
1
1
1
1
1
1
1
1
1
1
1
1
1
1
0.9850441
1
1
1
1
1
1
1
1
1
1
1
1
1
1
1
1
1
0.9840979
1
1
1
1
1
1
1
1
1
1
1
1
1
1
1
1
1
0.983171
1
1
1
1
1
1
1
1
1
1
1
1
1
1
1
1
1
0.9822597
1
1
1
1
1
1
1
1
1
1
1
1
1
1
1
1
1
0.9813163
1
1
1
1
1
1
1
1
1
1
1
1
1
1
1
1
1
0.9803755
1
1
1
1
1
1
1
1
1
1
1
1
1
1
1
1
1
0.9794736
1
1
1
1
1
1
1
1
1
1
1
1
1
1
1
1
1
0.97855
1
1
1
1
1
1
1
1
1
1
1
1
1
1
1
1
1
0.9774621
1
1
1
1
1
1
1
1
1
1
1
1
1
1
1
1
1
0.9720226
1
1
1
1
1
1
1
1
1
1
1
1
1
1
1
1
1
0.9709635
1
1
1
1
1
1
1
1
1
1
1
1
1
1
1
1
1
0.9691606
1
1
1
1
1
1
1
1
1
1
1
1
1
1
1
1
1
0.967123
1
1
1
1
1
1
1
1
1
1
1
1
1
1
1
1
1
0.964918
1
1
1
1
1
1
1
1
1
1
1
1
1
1
1
1
1
0.9627114
1
1
1
1
1
1
1
1
1
1
1
1
1
1
1
1
1
0.9605164
1
1
1
1
1
1
1
1
1
1
1
1
1
1
1
1
1
0.9582362
1
1
1
1
1
1
1
1
1
1
1
1
1
1
1
1
1
0.9558093
0.9999999
1
1
1
1
1
1
1
1
1
1
1
1
1
1
1
1
0.9532348
0.9999999
1
1
1
1
1
1
1
1
1
1
1
1
1
1
1
1
0.9504422
0.9999999
1
1
1
1
1
1
1
1
1
1
1
1
1
1
1
1
0.947524
0.9999999
1
1
1
1
1
1
1
1
1
1
1
1
1
1
1
1
0.9443708
0.9999998
1
1
1
1
1
1
1
1
1
1
1
1
1
1
1
1
0.9409835
0.9999998
1
1
1
1
1
1
1
1
1
1
1
1
1
1
1
1
0.9373894
0.9999998
1
1
1
1
1
1
1
1
1
1
1
1
1
1
1
1
0.9334664
0.9999998
1
1
1
1
1
1
1
1
1
1
1
1
1
1
1
1
0.9292424
0.9999998
1
1
1
1
1
1
1
1
1
1
1
1
1
1
1
1
0.9247252
0.9999996
1
1
1
1
1
1
1
1
1
1
1
1
1
1
1
1
0.9196191
0.9999991
1
1
1
1
1
1
1
1
1
1
1
1
1
1
1
1
0.913039
0.9999982
1
1
1
1
1
1
1
1
1
1
1
1
1
1
1
1
0.8950552
0.9999996
1
1
1
1
1
1
1
1
1
1
1
1
1
1
1
1
0.8819032
0.9999999
1
1
1
1
1
1
1
1
1
1
1
1
1
1
1
1
0.8568068
1
1
1
1
1
1
1
1
1
1
1
1
1
1
1
1
1
0.7510432
1
1
1
1
1
1
1
1
1
1
1
1
1
1
1
1
1
0.6148623
0.9999744
1
1
1
1
1
1
1
1
1
1
1
1
1
1
1
1
0.5004796
0.9999512
1
1
1
1
1
1
1
1
1
1
1
1
1
1
1
1
0.4701059
0.9997721
1
1
1
1
1
1
1
1
1
1
1
1
1
1
1
1
0.4661252
0.9998485
1
1
1
1
1
1
1
1
1
1
1
1
1
1
1
1
0.4649808
0.9999559
1
1
1
1
1
1
1
1
1
1
1
1
1
1
1
1
0.4606549
0.9988754
1
1
1
1
1
1
1
1
1
1
1
1
1
1
1
1
0.4592506
0.9987925
1
1
1
1
1
1
1
1
1
1
1
1
1
1
1
1
0.4578263
0.9981023
1
1
1
1
1
1
1
1
1
1
1
1
1
1
1
1
0.453303
0.9965543
0.9999992
1
1
1
1
1
1
1
1
1
1
1
1
1
1
1
0.444948
0.9792006
0.9999834
1
1
1
1
1
1
1
1
1
1
1
1
1
1
1
0.4392929
0.9335722
0.9998622
0.9999994
1
1
1
1
1
1
1
1
1
1
1
1
1
1
0.4368143
0.7804847
0.9989631
0.9999942
1
1
1
1
1
1
1
1
1
1
0.4365997
0.4646998
1
1
1
1
1
1
1
1
0.435203
1
1
1
1
1
1
1
1
1
1
1
1
1
1
1
1
1
1
1
1
1
1
1
1
1
1
1
1
1
1
1
1
1
1
1
1
1
1
1
1
1
1
1
1
1
1
1
1
1
0.4406694
1
1
1
1
1
1
0.4418308
0.4555929
1
1
1
1
1
1
1
0.4390314
0.7144267
0.9975179
1
1
1
1
1
1
1
1
1
0.4399998
0.8727053
0.9992699
0.9999874
0.9999996
1
1
1
1
1
1
1
1
1
1
1
1
1
0.4480856
0.9684916
0.9999599
0.9999997
1
1
1
1
1
1
1
1
1
1
1
1
1
1
0.4470951
0.9912495
0.9999982
1
1
1
1
1
1
1
1
1
1
1
1
1
1
1
0.4528248
0.9977347
0.9999986
1
1
1
1
1
1
1
1
1
1
1
1
1
1
1
0.4592117
0.9981891
0.9999979
1
1
1
1
1
1
1
1
1
1
1
1
1
1
1
0.4602308
0.9988861
0.9999994
1
1
1
1
1
1
1
1
1
1
1
1
1
1
1
0.4625715
0.9990503
0.9999985
1
1
1
1
1
1
1
1
1
1
1
1
1
1
1
0.4668953
0.9982344
0.9999954
1
1
1
1
1
1
1
1
1
1
1
1
1
1
1
0.4688707
0.9958646
0.9999884
1
1
1
1
1
1
1
1
1
1
1
1
1
1
1
0.4924026
0.9985991
0.9999983
1
1
1
1
1
1
1
1
1
1
1
1
1
1
1
0.573337
0.9996389
0.9999996
1
1
1
1
1
1
1
1
1
1
1
1
1
1
1
0.6262521
0.9997712
0.9999999
1
1
1
1
1
1
1
1
1
1
1
1
1
1
1
0.8607173
0.9999875
1
1
1
1
1
1
1
1
1
1
1
1
1
1
1
1
0.8741948
0.9999949
1
1
1
1
1
1
1
1
1
1
1
1
1
1
1
1
0.8970391
0.9999985
1
1
1
1
1
1
1
1
1
1
1
1
1
1
1
1
0.9083387
0.999999
1
1
1
1
1
1
1
1
1
1
1
1
1
1
1
1
0.9214912
0.9999983
1
1
1
1
1
1
1
1
1
1
1
1
1
1
1
1
0.9253785
0.9999984
1
1
1
1
1
1
1
1
1
1
1
1
1
1
1
1
0.9291286
0.9999986
1
1
1
1
1
1
1
1
1
1
1
1
1
1
1
1
0.9328047
0.9999988
1
1
1
1
1
1
1
1
1
1
1
1
1
1
1
1
0.9363
0.9999991
1
1
1
1
1
1
1
1
1
1
1
1
1
1
1
1
0.9395929
0.9999992
1
1
1
1
1
1
1
1
1
1
1
1
1
1
1
1
0.9427118
0.9999994
1
1
1
1
1
1
1
1
1
1
1
1
1
1
1
1
0.9457036
0.9999995
1
1
1
1
1
1
1
1
1
1
1
1
1
1
1
1
0.9486042
0.9999996
1
1
1
1
1
1
1
1
1
1
1
1
1
1
1
1
0.9511623
0.9999996
1
1
1
1
1
1
1
1
1
1
1
1
1
1
1
1
0.9538326
0.9999997
1
1
1
1
1
1
1
1
1
1
1
1
1
1
1
1
0.9562202
0.9999998
1
1
1
1
1
1
1
1
1
1
1
1
1
1
1
1
0.9585162
0.9999998
1
1
1
1
1
1
1
1
1
1
1
1
1
1
1
1
0.960654
0.9999998
1
1
1
1
1
1
1
1
1
1
1
1
1
1
1
1
0.9628094
0.9999999
1
1
1
1
1
1
1
1
1
1
1
1
1
1
1
1
0.9651094
0.9999999
1
1
1
1
1
1
1
1
1
1
1
1
1
1
1
1
0.9672804
0.9999999
1
1
1
1
1
1
1
1
1
1
1
1
1
1
1
1
0.9694619
0.9999999
1
1
1
1
1
1
1
1
1
1
1
1
1
1
1
1
0.9703569
0.9999998
1
1
1
1
1
1
1
1
1
1
1
1
1
1
1
1
0.9750662
0.9999998
1
1
1
1
1
1
1
1
1
1
1
1
1
1
1
1
0.9776849
0.9999999
1
1
1
1
1
1
1
1
1
1
1
1
1
1
1
1
0.9787337
0.9999999
1
1
1
1
1
1
1
1
1
1
1
1
1
1
1
1
0.9797564
0.9999999
1
1
1
1
1
1
1
1
1
1
1
1
1
1
1
1
0.980761
0.9999999
1
1
1
1
1
1
1
1
1
1
1
1
1
1
1
1
0.9817573
0.9999999
1
1
1
1
1
1
1
1
1
1
1
1
1
1
1
1
0.9827369
0.9999999
1
1
1
1
1
1
1
1
1
1
1
1
1
1
1
1
0.9836737
0.9999999
1
1
1
1
1
1
1
1
1
1
1
1
1
1
1
1
0.9846538
0.9999998
1
1
1
1
1
1
1
1
1
1
1
1
1
1
1
1
0.9855734
0.9999995
1
1
1
1
1
1
1
1
1
1
1
1
1
1
1
1
0.9864558
0.9999983
1
1
1
1
1
1
1
1
1
1
1
1
1
1
1
1
0.9874363
0.9999979
1
1
1
1
1
1
1
1
1
1
1
1
1
1
1
1
0.9887403
0.9999995
1
1
1
1
1
1
1
1
1
1
1
1
1
1
1
1
0.9932529
0.9999999
1
1
1
1
1
1
1
1
1
1
1
1
1
1
1
1
1
1
1
1
1
1
1
1
1
1
1
1
1
1
1
1
1
1
1
1
1
1
1
1
1
1
1
1
1
1
1
1
1
1
1
1
1
1
1
1
1
1
1
1
1
1
1
1
1
1
1
1
1
1
1
1
1
1
1
1
1
1
1
1
1
1
1
1
1
1
1
1
1
1
1
1
1
1
1
1
1
1
1
1
1
1
1
1
1
1
1
1
1
1
1
1
1
1
1
1
1
1
1
1
1
1
1
1
1
1
1
1
1
1
1
1
1
1
1
1
1
1
1
1
1
1
1
1
1
1
1
1
1
1
1
1
1
1
1
1
1
1
1
1
1
1
1
1
1
1
1
1
1
1
1
1
1
1
1
1
1
1
1
1
1
1
1
1
1
1
1
1
1
1
1
1
1
1
1
1
1
1
1
1
1
1
1
1
1
1
1
1
1
1
1
1
1
1
1
1
1
1
1
1
1
1
1
1
1
1
1
1
1
1
1
1
1
1
1
1
1
1
1
1
1
1
1
1
1
1
1
1
1
1
1
1
1
1
1
1
1
1
1
1
1
1
1
1
1
1
1
1
1
1
1
1
1
1
1
1
1
1
1
1
1
1
1
1
1
1
1
1
1
1
1
1
1
1
1
1
1
1
1
1
1
1
1
1
1
1
1
1
1
1
1
1
1
1
1
1
1
1
1
1
1
1
1
1
1
1
1
1
1
1
1
1
1
1
1
1
1
1
1
1
1
1
1
1
1
1
1
1
1
1
1
1
1
1
1
1
1
1
1
1
1
1
1
1
1
1
1
1
1
1
1
1
1
1
1
1
1
1
1
1
1
1
1
1
1
1
1
1
1
1
1
1
1
1
1
1
1
1
1
1
1
1
1
1
1
1
1
1
1
1
1
1
1
1
1
1
1
1
1
1
1
1
1
1
1
1
1
1
1
1
1
1
1
1
1
1
1
1
1
1
1
1
1
1
1
1
1
1
1
1
1
1
1
1
1
1
1
1
1
1
1
1
1
1
1
1
1
1
1
1
1
1
1
1
1
1
1
1
1
1
1
1
1
1
1
1
1
1
1
1
1
1
1
1
1
1
1
1
1
1
1
1
1
1
1
1
1
1
1
1
1
1
1
1
1
1
1
1
1
1
1
1
1
1
1
1
1
1
1
1
1
1
1
1
1
1
1
1
1
1
1
1
1
1
1
1
1
1
1
1
1
1
1
1
1
1
1
1
1
1
1
1
1
1
1
1
1
1
1
1
1
1
1
1
1
1
1
1
1
1
1
1
1
1
1
1
1
1
1
1
1
1
1
1
1
1
1
1
1
1
1
1
1
1
1
1
1
1
1
1
1
1
1
1
1
1
1
1
1
1
1
1
1
1
1
1
1
1
1
1
1
1
1
1
1
1
1
1
1
1
1
1
1
1
1
1
1
1
1
1
1
1
1
1
1
1
1
1
1
1
1
1
1
1
1
1
1
1
1
1
1
1
1
1
1
1
1
1
1
1
1
1
1
1
1
1
1
1
1
1
1
1
1
1
1
1
1
1
1
1
1
1
1
1
1
1
1
1
1
1
1
1
1
1
1
1
1
1
1
1
1
1
1
1
1
1
1
1
1
1
1
1
1
1
1
1
1
1
1
1
1
1
1
1
1
1
1
1
1
1
1
1
1
1
1
1
1
1
1
1
1
1
1
1
1
1
1
1
1
1
1
1
1
1
1
1
1
1
1
1
1
1
1
1
1
1
1
1
1
1
1
1
1
1
1
1
1
1
1
1
1
1
1
1
1
1
1
1
1
1
1
1
1
1
1
1
1
1
1
1
1
1
1
1
1
1
1
1
1
1
1
1
1
1
1
1
1
1
1
1
1
1
1
1
1
1
1
1
1
1
1
1
1
1
1
1
1
1
1
1
1
1
1
1
1
1
1
1
1
1
1
1
1
1
1
1
1
1
1
1
1
1
1
1
1
1
1
1
1
1
1
1
1
1
1
1
1
1
1
1
1
1
1
1
1
1
1
1
1
1
1
1
1
1
1
1
1
1
1
1
1
1
1
1
1
1
1
1
1
1
1
1
1
1
1
1
1
1
1
1
1
1
1
1
1
1
1
1
1
1
1
1
1
1
1
1
1
1
1
1
1
1
1
1
1
1
1
1
1
1
1
1
1
1
1
1
1
1
1
1
1
1
1
1
1
1
1
1
1
1
1
1
1
1
1
1
1
1
1
1
1
1
1
1
1
1
1
1
1
1
1
1
1
1
1
1
1
1
1
1
1
1
1
1
1
1
1
1
1
1
1
1
1
1
1
1
1
1
1
1
1
1
1
1
1
1
1
1
1
1
1
1
1
1
1
1
1
1
1
1
1
1
1
1
1
1
1
1
1
1
1
1
1
1
1
1
1
1
1
1
1
1
1
1
1
1
1
1
1
1
1
1
1
1
1
1
1
1
1
1
1
1
1
1
1
1
1
1
1
1
1
1
1
1
1
1
1
1
1
1
1
1
1
1
1
1
1
1
1
1
1
1
1
1
1
1
1
1
1
1
1
1
1
1
1
1
1
1
1
1
1
1
1
1
1
1
1
1
1
1
1
1
1
1
1
1
1
1
1
1
1
1
1
1
1
1
1
1
1
1
1
1
1
1
1
1
1
1
1
1
1
1
1
1
1
1
1
1
1
1
1
1
1
1
1
1
1
1
1
1
1
1
1
1
1
1
1
1
1
1
1
1
1
1
1
1
1
1
1
1
1
1
1
1
1
1
1
1
1
1
1
1
1
1
1
1
1
1
0.4294427
0.4281314
0.4275451
0.4238368
0.4268687
0.4232378
0.4230964
0.4227528
0.4223466
0.4232459
0.4225426
0.4231694
0.4236356
0.4237154
0.4262451
0.4230247
0.4237378
0.4272229
0.4306213
0.4327072
0.4293214
1
0.9999999
0.9999988
1
1
1
1
1
1
1
1
1
1
1
1
1
1
1
0.9999255
0.9997602
0.9985145
1
1
1
1
1
0.8333053
0.4487957
1
1
0.444298
0.436
1
1
1
1
1
1
1
1
1
1
1
1
1
1
1
1
1
1
1
1
1
1
1
1
1
1
1
1
1
1
1
1
0.4513718
0.4425422
1
1
1
0.9584699
0.4828028
1
1
1
0.9995644
0.9998402
0.9989944
0.9999925
0.9999648
1
1
1
1
1
0.9999991
0.9999994
0.9999962
0.9999999
1
0.9999999
1
1
1
1
1
1
1
1
1
1
1
1
0.4278927
0.4278679
0.4265954
0.4313588
0.4313319
0.4294103
0.4374439
0.4373936
0.4338348
0.4969223
0.4918335
0.443908
0.4278395
0.4278201
0.4265531
0.4313053
0.43128
0.4293599
0.4373386
0.437286
0.4337644
0.4872319
0.4861247
0.4435965
0.4312553
0.4312297
0.4293201
0.4372323
0.43718
0.4336967
0.4857784
0.4854252
0.4433864
0.4277318
0.4277084
0.4264718
0.4312019
0.4311749
0.4292541
0.437127
0.4370739
0.4336268
0.485079
0.4847476
0.4432291
0.4276834
0.4276584
0.4264216
0.431148
0.4311225
0.4292022
0.4370209
0.4369681
0.433558
0.4844259
0.4841215
0.4431025
0.431096
0.4310703
0.4291519
0.4369174
0.4368734
0.4334901
0.4838361
0.4835564
0.4429857
0.4276032
0.4276062
0.426328
0.4310475
0.4310241
0.4291625
0.4368296
0.4367855
0.4334221
0.4832829
0.4830237
0.4428775
0.4309981
0.4309731
0.4291226
0.4367415
0.4366976
0.4333579
0.4827775
0.4825495
0.4427792
0.4275418
0.4275205
0.4262351
0.430947
0.4309224
0.4290811
0.4366531
0.4366094
0.433297
0.4823141
0.4820795
0.4426842
0.4274986
0.4274777
0.4261894
0.4308964
0.4308738
0.4290403
0.436565
0.4365211
0.4332366
0.4818588
0.4816351
0.4425929
0.4274561
0.4274362
0.4261628
0.4308503
0.4308276
0.4289993
0.4364765
0.4364325
0.433176
0.4814274
0.4812303
0.4425093
0.4274327
0.427428
0.4261521
0.4308038
0.4307801
0.4289752
0.4363878
0.4363436
0.4331151
0.4810399
0.4808482
0.4424281
0.4274233
0.4274189
0.4261419
0.4307761
0.4307714
0.4289667
0.4362987
0.4362517
0.4330791
0.4806607
0.4804533
0.4423543
0.4274141
0.4274095
0.4261318
0.430766
0.4307608
0.4289582
0.4362453
0.4362347
0.4330646
0.480219
0.4794825
0.442371
0.4274046
0.4273995
0.426122
0.4307548
0.4307491
0.4289489
0.4362227
0.4362119
0.4330491
0.4778469
0.4775114
0.4423809
0.4273948
0.4273891
0.4261118
0.4307428
0.4307365
0.428939
0.4361989
0.4361876
0.4330328
0.4775356
0.477308
0.4424435
0.4273808
0.427331
0.4260986
0.4307303
0.4307176
0.4288602
0.4361746
0.4361621
0.4330153
0.4769331
0.4766204
0.4424984
0.4272805
0.427266
0.4260849
0.4307062
0.4306989
0.4287971
0.4361488
0.4361348
0.4329963
0.4762853
0.4759571
0.4425526
0.4272583
0.4272511
0.4260732
0.4306914
0.4306835
0.4287823
0.4361212
0.4361069
0.4329761
0.4756208
0.4752866
0.4426076
0.4272434
0.4272354
0.4260613
0.4306754
0.430667
0.4287665
0.4360922
0.4360776
0.4329548
0.4750018
0.474706
0.4426725
0.4272279
0.4272189
0.4260487
0.4306586
0.4306494
0.4287498
0.4360624
0.4360473
0.4329317
0.4744283
0.4741493
0.442737
0.4272107
0.4272001
0.4260361
0.4306403
0.4306306
0.4287314
0.4360312
0.4360163
0.4329084
0.4738662
0.4735921
0.4428032
0.4271893
0.4271906
0.426014
0.4306201
0.4305593
0.4286764
0.4360006
0.4359848
0.4328795
0.4732989
0.4730205
0.4428668
0.4304646
0.4304147
0.4285677
0.4359693
0.4359526
0.4328419
0.4727295
0.4724325
0.4429287
0.4271356
0.4271335
0.4259934
0.430399
0.4303845
0.4285185
0.4359363
0.4359192
0.4328116
0.4721413
0.4718535
0.4429901
0.4271252
0.4271134
0.4259702
0.43037
0.4303548
0.4284912
0.4359018
0.4358843
0.432779
0.4715639
0.4712655
0.4430495
0.4271009
0.4270876
0.4259502
0.4303318
0.4302702
0.4284575
0.4358669
0.435842
0.432665
0.4709725
0.4706691
0.443108
0.4270741
0.4270583
0.4259311
0.4301562
0.430089
0.428419
0.4358129
0.4357895
0.4324402
0.470372
0.4700671
0.4431517
0.4232588
0.423261
0.4226245
0.424891
0.4248867
0.4240289
0.427042
0.4270243
0.4258779
0.4300595
0.4300363
0.4283786
0.4357704
0.4357515
0.4323936
0.469772
0.4694594
0.4431821
0.4232569
0.4232499
0.4226117
0.4248774
0.4248659
0.4240083
0.4270065
0.4269879
0.4258477
0.4300127
0.4299884
0.428337
0.4357322
0.4357028
0.4323278
0.4691531
0.4688385
0.4431998
0.4232382
0.4232284
0.4225744
0.4248534
0.4248409
0.4239885
0.4269678
0.4269488
0.4258157
0.4299583
0.4299328
0.4282937
0.4354622
0.435285
0.4320429
0.4685277
0.4682052
0.4431589
0.4232158
0.4231919
0.42254
0.4248283
0.4248172
0.4239664
0.4269288
0.426911
0.4257853
0.4299102
0.4298896
0.4282534
0.4352316
0.435197
0.4319548
0.4678977
0.46757
0.4430338
0.4231807
0.423167
0.4225093
0.4248089
0.4248049
0.4239473
0.4268962
0.4268869
0.4257673
0.4298691
0.4298501
0.4282248
0.4351157
0.4347341
0.4318712
0.4672224
0.466789
0.441853
0.4231409
0.4231147
0.4225235
0.4248013
0.424809
0.4239275
0.4268873
0.4269015
0.4257827
0.429841
0.4298335
0.4282341
0.4344391
0.4341729
0.4317575
0.4662846
0.4655203
0.4405963
0.4231179
0.4231438
0.4225607
0.4248271
0.4248745
0.423915
0.4269443
0.4270349
0.4258806
0.4298242
0.4298201
0.4283492
0.4338505
0.4335493
0.4314816
0.4643969
0.4640905
0.4394355
0.4232081
0.4233019
0.422689
0.4249839
0.4250671
0.4240724
0.4271939
0.4273881
0.4262417
0.4298333
0.4299096
0.4286455
0.4331979
0.4325749
0.4311875
0.4621543
0.4599994
0.4363803
0.4234748
0.4236834
0.4230304
0.4252114
0.425436
0.4245717
0.4275806
0.4278607
0.4267914
0.4301406
0.4305689
0.4290785
0.4323696
0.4327442
0.4318179
0.4591795
0.4584862
0.4355327
0.4239523
0.4241909
0.4235285
0.4256777
0.4260238
0.4250809
0.4282768
0.4287328
0.4269663
0.4312171
0.4317231
0.4298888
0.4334207
0.4341277
0.4330748
0.4489197
0.4483891
0.4354273
0.4244446
0.4246445
0.4239421
0.4262782
0.4265187
0.4255135
0.4288469
0.4288202
0.4276964
0.4316668
0.4316966
0.4305479
0.434622
0.4350095
0.4332317
0.4473119
0.445096
0.4358963
0.4247501
0.4246465
0.4239799
0.4265512
0.4264435
0.4254313
0.4288505
0.4290667