/*--------------------------------*- C++ -*----------------------------------*\
| =========                 |                                                 |
| \\      /  F ield         | OpenFOAM: The Open Source CFD Toolbox           |
|  \\    /   O peration     | Version:  2206                                  |
|   \\  /    A nd           | Website:  www.openfoam.com                      |
|    \\/     M anipulation  |                                                 |
\*---------------------------------------------------------------------------*/
FoamFile
{
    version     2.0;
    format      ascii;
    arch        "LSB;label=32;scalar=64";
    class       volScalarField;
    location    "2.6";
    object      alpha.a;
}
// * * * * * * * * * * * * * * * * * * * * * * * * * * * * * * * * * * * * * //

dimensions      [0 0 0 0 0 0 0];

internalField   nonuniform List<scalar> 
13078
(
0.4704421
0.5547246
0.5792395
0.5807242
0.5804079
0.5797157
0.5788817
0.5622736
0.5786154
0.581208
0.5810337
0.5804612
0.5797462
0.5789063
0.5813186
0.5819598
0.5817619
0.5812037
0.5805422
0.5797988
0.5789453
0.5833248
0.5825848
0.5819685
0.5813252
0.580626
0.5798574
0.5789903
0.5835546
0.5827568
0.5820805
0.5814041
0.5806976
0.5799141
0.5790355
0.5835132
0.5827879
0.5821346
0.5814575
0.5807403
0.5799614
0.5790781
0.5834538
0.582782
0.582157
0.5814888
0.5807708
0.579987
0.5791139
0.5834084
0.5827641
0.5821635
0.5815039
0.5807882
0.5800054
0.5791307
0.5833751
0.5827457
0.5821592
0.581508
0.5807972
0.5800168
0.5791431
0.5833507
0.5827294
0.5821517
0.5815076
0.5808011
0.5800236
0.5791514
0.5833322
0.5827157
0.5821438
0.5815048
0.580802
0.5800273
0.5791571
0.5833174
0.5827046
0.5821363
0.5815009
0.5808012
0.5800291
0.5791608
0.5833052
0.5826949
0.5821292
0.5814966
0.5807994
0.5800297
0.5791633
0.5832948
0.5826865
0.5821227
0.5814924
0.5807973
0.5800295
0.5791651
0.5832856
0.582679
0.5821169
0.5814924
0.5808006
0.5800298
0.5791664
0.583277
0.5826721
0.5821116
0.5814929
0.5808018
0.5800295
0.5791676
0.5832688
0.5826652
0.582106
0.5814894
0.5807998
0.5800288
0.5791686
0.5832606
0.5826585
0.5821005
0.5814856
0.5807975
0.5800281
0.5791696
0.5832522
0.5826517
0.582095
0.5814816
0.5807952
0.5800276
0.5791705
0.5832435
0.5826447
0.5820894
0.581478
0.580799
0.5800354
0.5791726
0.5832342
0.5826371
0.5820834
0.5814742
0.5808032
0.58004
0.5791746
0.583224
0.582629
0.5820767
0.5814694
0.5808015
0.5800398
0.579176
0.5832129
0.58262
0.5820695
0.5814643
0.5807987
0.5800397
0.5791783
0.5832004
0.58261
0.5820615
0.5814587
0.5807964
0.5800481
0.5791922
0.5831865
0.5825988
0.5820524
0.5814525
0.5807935
0.5800568
0.5792014
0.5831708
0.5825862
0.5820424
0.5814454
0.5807895
0.580058
0.579205
0.5831528
0.5825719
0.5820309
0.5814374
0.580785
0.5800575
0.5792088
0.5831325
0.5825557
0.5820181
0.5814282
0.5807799
0.5800572
0.5792248
0.5831093
0.5825372
0.5820035
0.5814179
0.5807738
0.5800557
0.5792403
0.5830854
0.5825188
0.581988
0.5814063
0.5807664
0.5800523
0.5792447
0.5830574
0.5824971
0.5819702
0.5813933
0.5807578
0.5800477
0.5792455
0.5830263
0.5824771
0.581957
0.5813803
0.5807478
0.5800411
0.5792426
0.5829932
0.5824556
0.5819456
0.5813756
0.5807403
0.5800353
0.5792379
0.5829602
0.582435
0.581937
0.5813695
0.5807387
0.5800389
0.579242
0.5829311
0.582425
0.5819429
0.5813989
0.5807824
0.5800778
0.5792756
0.5829171
0.5824401
0.5819901
0.581485
0.5808981
0.5801984
0.579368
0.5829304
0.5825135
0.5821239
0.5816644
0.5811051
0.5803636
0.5794698
0.5829981
0.5826882
0.5823624
0.5819173
0.5813472
0.5805558
0.5795256
0.5831581
0.5829567
0.5826591
0.5821979
0.5815753
0.5807463
0.5795109
0.5834347
0.5832786
0.5829621
0.582471
0.5817887
0.580889
0.5795637
0.5837993
0.5836005
0.5832827
0.5827186
0.582003
0.5810521
0.5797383
0.5842315
0.5838843
0.583571
0.5830044
0.58222
0.5812632
0.5800846
0.5846762
0.5841403
0.5838021
0.5832611
0.5825399
0.5815708
0.5806603
0.5850942
0.5842918
0.5840103
0.5834493
0.5827955
0.582044
0.5812126
0.585362
0.5843678
0.5841069
0.5835741
0.5829844
0.5825073
0.5819305
0.5854518
0.5843877
0.5841495
0.5836386
0.5831801
0.5828123
0.5824041
0.5854475
0.584396
0.5841242
0.5836739
0.583368
0.5830491
0.5825257
0.5854619
0.5844591
0.5841933
0.5837636
0.5835914
0.5832096
0.582599
0.585484
0.5845593
0.5843414
0.5839271
0.5837291
0.5833056
0.58256
0.5855092
0.5846806
0.5844975
0.5841037
0.5838889
0.5833022
0.582346
0.585529
0.5848514
0.5846596
0.5842111
0.5839128
0.5831323
0.5819749
0.5854801
0.5849313
0.5848129
0.5843813
0.5839297
0.5829056
0.5815844
0.5853445
0.5848889
0.5847179
0.584278
0.5837058
0.5825676
0.5812346
0.585165
0.5847611
0.5845638
0.5840439
0.5833389
0.5820965
0.5811656
0.5849679
0.5845948
0.5843541
0.5837674
0.5829725
0.581803
0.5811959
0.5847488
0.5843824
0.5841045
0.5834956
0.5827003
0.5816813
0.5812463
0.5845244
0.5840762
0.5837732
0.5831969
0.5824952
0.5815949
0.5812295
0.5843794
0.5838373
0.5835439
0.5830326
0.5824375
0.5815646
0.5811872
0.5842457
0.5836103
0.5833287
0.5828716
0.5823655
0.5814966
0.5810551
0.5841118
0.5833611
0.5830674
0.58265
0.5822111
0.581406
0.5808335
0.5840088
0.583148
0.5828155
0.5823275
0.5819504
0.5811546
0.5804307
0.5839375
0.5829852
0.5826279
0.5820875
0.5817525
0.5809912
0.5801715
0.583885
0.5828708
0.5824448
0.5818124
0.5814733
0.5808128
0.5798443
0.5838624
0.5828343
0.5823688
0.5816359
0.5812199
0.5806252
0.5796586
0.5839005
0.5829054
0.5824084
0.58158
0.5810144
0.580477
0.5795341
0.5840273
0.5830342
0.5825336
0.5816461
0.5807656
0.5801045
0.5793302
0.5841587
0.5831847
0.5826571
0.5817477
0.5806257
0.5797437
0.5791343
0.5841621
0.58327
0.582688
0.5818196
0.580653
0.579474
0.5786869
0.5839872
0.5832867
0.5826962
0.5818575
0.5807527
0.5793897
0.5781354
0.5837087
0.5832193
0.58266
0.5818406
0.5808082
0.5794662
0.5779393
0.5834251
0.583074
0.5825789
0.5818248
0.5808529
0.5796266
0.5780671
0.5831748
0.5829031
0.5824676
0.5818022
0.5809339
0.5798179
0.5784419
0.5829926
0.5827082
0.5823131
0.5817481
0.5809957
0.5800518
0.5787174
0.5828913
0.5825304
0.5821446
0.5816302
0.5809826
0.5801632
0.5790189
0.5828604
0.5824137
0.581991
0.5814918
0.5808969
0.5801372
0.5791874
0.5828672
0.5823701
0.5818998
0.5813779
0.5807753
0.5800534
0.579206
0.582894
0.5823704
0.581874
0.5813257
0.5806993
0.5799873
0.5791754
0.5829321
0.5823921
0.5818841
0.5813159
0.5806795
0.5799646
0.5791634
0.5829709
0.5824222
0.581906
0.5813244
0.5806826
0.5799743
0.5791751
0.583008
0.5824525
0.581928
0.5813458
0.580703
0.5799928
0.579193
0.5830428
0.5824787
0.5819467
0.5813609
0.5807216
0.5800101
0.5792079
0.5830736
0.5825019
0.5819652
0.5813804
0.5807386
0.5800237
0.5792176
0.5831001
0.5825246
0.5819862
0.5813978
0.5807526
0.5800341
0.5792229
0.5831226
0.5825437
0.5820037
0.5814127
0.580764
0.5800422
0.5792242
0.5831441
0.5825621
0.5820195
0.5814254
0.5807732
0.5800473
0.5792122
0.5831628
0.5825779
0.5820331
0.581436
0.5807806
0.5800504
0.5791999
0.5831794
0.5825917
0.5820449
0.581445
0.5807867
0.5800531
0.5791985
0.5831937
0.5826037
0.582055
0.5814527
0.5807918
0.5800536
0.5791969
0.5832066
0.5826142
0.5820638
0.5814595
0.5807955
0.5800455
0.5791885
0.5832179
0.5826236
0.5820717
0.5814652
0.5807983
0.5800384
0.5791759
0.5832281
0.582632
0.5820786
0.5814703
0.5808015
0.580039
0.5791745
0.5832374
0.5826396
0.582085
0.5814749
0.5808034
0.5800396
0.5791736
0.5832458
0.5826465
0.5820906
0.5814786
0.5807989
0.5800348
0.5791719
0.5832538
0.5826529
0.5820958
0.5814819
0.5807952
0.5800273
0.57917
0.5832613
0.582659
0.5821007
0.5814856
0.5807974
0.5800278
0.5791694
0.5832685
0.5826649
0.5821056
0.5814891
0.5807995
0.5800286
0.5791686
0.5832758
0.5826709
0.5821106
0.5814922
0.5808015
0.5800294
0.5791678
0.5832831
0.5826769
0.5821152
0.5814911
0.5807999
0.5800298
0.5791668
0.5832909
0.5826833
0.5821202
0.5814909
0.5807967
0.5800297
0.5791659
0.5832995
0.5826903
0.5821258
0.5814948
0.5807988
0.5800302
0.5791647
0.5833092
0.5826983
0.582132
0.5814989
0.580801
0.5800304
0.5791631
0.5833209
0.5827076
0.5821387
0.5815029
0.5808026
0.5800299
0.5791608
0.5833352
0.5827184
0.5821461
0.5815066
0.5808034
0.5800283
0.5791573
0.5833531
0.5827317
0.5821537
0.5815093
0.5808026
0.5800247
0.5791519
0.5833768
0.5827477
0.5821608
0.58151
0.580799
0.580018
0.5791434
0.5834093
0.5827659
0.5821623
0.581504
0.58079
0.5800065
0.5791315
0.583454
0.5827838
0.5821573
0.5814888
0.5807721
0.5799894
0.5791014
0.5835126
0.5827911
0.5821387
0.5814607
0.5807453
0.5799519
0.5790643
0.5835576
0.5827629
0.5820862
0.5814132
0.5806914
0.5799039
0.5790228
0.5833429
0.5825994
0.5819881
0.5813231
0.58062
0.5798488
0.5789775
0.5815478
0.5820419
0.5817653
0.5812039
0.5805392
0.5797905
0.5789321
0.5642802
0.5794183
0.5814081
0.5810507
0.5804522
0.5797331
0.5788896
0.5778862
0.5766361
0.5749687
0.573384
0.5705637
0.5661288
0.5558731
0.577911
0.5766661
0.5750055
0.5734265
0.570616
0.5662004
0.5562921
0.5779447
0.5767009
0.5750496
0.5728782
0.5706662
0.5662688
0.5565096
0.5779826
0.5767377
0.5750864
0.573526
0.5707179
0.5663381
0.5567034
0.5780214
0.5767762
0.5751294
0.5735771
0.5707714
0.5664073
0.5568353
0.5780592
0.576815
0.575173
0.573627
0.570824
0.5664759
0.5569566
0.5780949
0.5768525
0.5752156
0.5736741
0.5708399
0.566544
0.5570701
0.5781255
0.5768885
0.5752569
0.5737199
0.5708548
0.5666114
0.5571716
0.5781377
0.5769202
0.5752958
0.5737652
0.5708974
0.5666719
0.5572704
0.578147
0.576931
0.5753309
0.5738098
0.5709387
0.5667324
0.5573623
0.5781539
0.5769394
0.5753417
0.5738522
0.5709799
0.566793
0.557449
0.5781592
0.5769464
0.5753502
0.573862
0.5710211
0.5668539
0.5575316
0.5781634
0.5769525
0.5753582
0.573871
0.5710286
0.5669165
0.5576094
0.578167
0.5769582
0.5753661
0.5738802
0.5710371
0.5669281
0.557669
0.5781702
0.5769638
0.5753739
0.5738895
0.5710463
0.5669427
0.5576291
0.5781733
0.5769693
0.5753819
0.5738993
0.5710564
0.5669587
0.5575735
0.5781763
0.5769749
0.5753901
0.57391
0.5710722
0.5669758
0.5575297
0.5781793
0.5769806
0.5753989
0.5739255
0.5711888
0.5669945
0.5574718
0.5781825
0.5769862
0.5754079
0.5739375
0.5712101
0.5670139
0.5574205
0.5781859
0.5769922
0.5754175
0.5739502
0.5712258
0.5670346
0.5573633
0.5781894
0.5769986
0.5754274
0.5739637
0.5712423
0.5670565
0.5572884
0.5781933
0.5770054
0.5754376
0.5739782
0.5712598
0.5670796
0.5572265
0.5781974
0.577013
0.575449
0.5739911
0.5712831
0.5671038
0.5571624
0.5782037
0.5770214
0.575464
0.5734428
0.5714114
0.5671417
0.5571005
0.5782099
0.5770299
0.5754753
0.5740207
0.5714674
0.5671738
0.5570421
0.5782157
0.5770393
0.57549
0.5740481
0.5714953
0.5672047
0.5569835
0.5782242
0.5770514
0.5755079
0.5740721
0.5715243
0.5672401
0.5569211
0.5782489
0.5770662
0.5755249
0.574097
0.5715631
0.5674856
0.5568683
0.5782611
0.5774067
0.5759549
0.5741057
0.5716016
0.5675844
0.5568334
0.5782705
0.5774213
0.5759823
0.5741367
0.5716413
0.567629
0.5568076
0.5783033
0.5774593
0.5760021
0.5741676
0.5716843
0.5678205
0.5568193
0.5783165
0.5774892
0.5760203
0.5742
0.5717266
0.5680182
0.5568885
0.5783151
0.5775452
0.5760424
0.5742269
0.571764
0.5680775
0.557102
0.5783122
0.5775537
0.57607
0.5742316
0.5717785
0.5681714
0.5588697
0.57832
0.5775473
0.5760744
0.5741871
0.5717294
0.5683664
0.5601285
0.578326
0.5775237
0.5760414
0.5739759
0.5715252
0.5687126
0.5640949
0.5782633
0.5773863
0.575684
0.5734583
0.5711436
0.5686862
0.5642915
0.5780791
0.5770457
0.5751726
0.5731446
0.5706207
0.5674485
0.5644866
0.5778135
0.5765966
0.5746829
0.5727083
0.5696974
0.5668215
0.5644188
0.5777046
0.5762395
0.5744316
0.5722952
0.56977
0.5669872
0.5635338
0.577876
0.5763186
0.5748038
0.5721929
0.5697899
0.5670476
0.5614134
0.5786841
0.5771237
0.5750547
0.5719706
0.569834
0.5674628
0.5619435
0.5794422
0.577741
0.5752558
0.5722115
0.5705167
0.5683215
0.5624304
0.5801402
0.5782541
0.5753977
0.572908
0.5717502
0.5687596
0.5638928
0.5807335
0.5791594
0.5762263
0.5738073
0.5722145
0.569327
0.5648274
0.5813799
0.5799223
0.5770655
0.5748026
0.5726425
0.5702069
0.5654806
0.5816717
0.5803546
0.5774834
0.5758136
0.5738258
0.5701783
0.5663717
0.5815187
0.5802831
0.5778188
0.5768387
0.5743007
0.5717703
0.5689915
0.5812465
0.5800319
0.5782531
0.5773139
0.5749057
0.5719218
0.5703649
0.5808914
0.5797335
0.5787109
0.5777408
0.5752227
0.5729144
0.570054
0.5805802
0.5799991
0.5793259
0.5779837
0.5759218
0.5736704
0.5703263
0.5804654
0.580331
0.5798671
0.5784626
0.576746
0.574497
0.5714721
0.5805417
0.5806637
0.5801664
0.5787333
0.5769912
0.5752363
0.5733085
0.580877
0.5810724
0.5799365
0.5782772
0.5770342
0.5757686
0.5744356
0.5810766
0.5811022
0.5797952
0.5780421
0.5769632
0.5773571
0.5768664
0.5812177
0.580966
0.5796332
0.5780023
0.5772805
0.5766414
0.5811329
0.580768
0.5793832
0.5778111
0.5771104
0.5765347
0.5809451
0.5805756
0.5792547
0.5776854
0.5767727
0.5764416
0.5806546
0.5804489
0.5792145
0.5776457
0.5764301
0.5760068
0.5748963
0.5803768
0.5802141
0.578844
0.5771572
0.575848
0.5739429
0.5710577
0.5798555
0.5796571
0.5783643
0.5765201
0.574718
0.5727171
0.5694219
0.5796555
0.5793739
0.5784776
0.5766683
0.5750646
0.5730051
0.5684162
0.5793457
0.5790382
0.5783843
0.5768058
0.5750156
0.5730612
0.5695496
0.5789168
0.5787536
0.5781889
0.5767856
0.574625
0.5726092
0.5709337
0.5785421
0.5784234
0.5776627
0.5757942
0.574149
0.5726537
0.5686737
0.5782532
0.5778912
0.5770485
0.5752891
0.5733303
0.5717645
0.5666713
0.5779144
0.5773996
0.576528
0.5745473
0.5726312
0.5698153
0.5650595
0.5774825
0.5767247
0.5757193
0.5742476
0.5717164
0.5691737
0.5643641
0.5769877
0.5762021
0.5751263
0.5736235
0.57158
0.568464
0.5629223
0.5763136
0.5756209
0.5746536
0.5733386
0.5709791
0.5680739
0.5616182
0.5760004
0.5748321
0.5742088
0.5728864
0.5705999
0.5678865
0.5621462
0.5762599
0.5744256
0.573543
0.5723043
0.5705268
0.5681074
0.5630363
0.5769167
0.5750754
0.5734683
0.5716486
0.5702622
0.5678044
0.5632768
0.5775605
0.5759435
0.574432
0.572307
0.5697024
0.5671451
0.5635319
0.5779885
0.5767319
0.5752998
0.5734492
0.5707636
0.5677978
0.5641851
0.5781659
0.577184
0.5758328
0.5738412
0.5714611
0.5686503
0.5629629
0.5782161
0.577349
0.576055
0.5741156
0.5716804
0.5686136
0.5618061
0.5782338
0.577402
0.5760844
0.5741769
0.5717513
0.5682511
0.5590205
0.5782527
0.5774301
0.5760358
0.5741841
0.5717528
0.5681209
0.5580278
0.5782705
0.5774484
0.576
0.5741757
0.5717275
0.5680668
0.5574535
0.5782797
0.5774235
0.5759849
0.5741572
0.571693
0.5680052
0.5566003
0.5782724
0.5773957
0.5759713
0.5741362
0.5716572
0.5679234
0.556629
0.5782466
0.577363
0.5759605
0.5741155
0.5716234
0.5676414
0.5566801
0.5782431
0.5773562
0.5759474
0.5740965
0.5715922
0.5675819
0.5567461
0.5782345
0.577051
0.5755089
0.5740519
0.5715617
0.5675426
0.5568117
0.5782136
0.5770402
0.575496
0.5740374
0.5715278
0.5673227
0.5568817
0.5782079
0.5770309
0.5754819
0.5740211
0.5714988
0.5672125
0.5569606
0.5782042
0.5770236
0.5754695
0.5740058
0.5714735
0.5671834
0.5570321
0.5781994
0.5770164
0.5754577
0.5739912
0.5714458
0.5671565
0.5571085
0.5781944
0.5770097
0.5754468
0.5739769
0.5713185
0.5671207
0.5571751
0.5781914
0.5770034
0.5754364
0.5739634
0.5712671
0.5670925
0.5572452
0.5781882
0.5769973
0.5754265
0.5739508
0.5712504
0.5670701
0.5573164
0.5781851
0.5769915
0.5754171
0.5739387
0.5712342
0.5670486
0.5573826
0.578182
0.576986
0.575408
0.5739271
0.5712189
0.5670279
0.5574471
0.5781792
0.5769807
0.5753995
0.5739159
0.5712045
0.5670085
0.5575038
0.5781765
0.5769754
0.5753912
0.573903
0.5711398
0.5669897
0.5575556
0.5781738
0.5769701
0.5753833
0.5738906
0.571064
0.566972
0.5576064
0.5781711
0.5769651
0.5753758
0.5738806
0.571054
0.5669554
0.5576626
0.5781684
0.5769601
0.5753684
0.5738708
0.5710445
0.56694
0.5576664
0.5781655
0.5769551
0.5753611
0.5738612
0.571036
0.5669258
0.5576703
0.5781623
0.5769498
0.5753539
0.5738516
0.5710276
0.5668891
0.557588
0.5781583
0.576944
0.5753464
0.5738418
0.5710041
0.5668278
0.5575004
0.5781533
0.5769372
0.5753366
0.5738158
0.5709634
0.5667667
0.5574074
0.5781464
0.5769282
0.5753027
0.5737711
0.5709224
0.5667058
0.5573124
0.5781371
0.5768987
0.5752655
0.5737258
0.5708813
0.5666448
0.5572104
0.57811
0.576865
0.5752258
0.5736793
0.5708413
0.5665807
0.5571047
0.5780778
0.5768296
0.5751844
0.5736344
0.5708525
0.5665125
0.5569943
0.5780429
0.5767921
0.5751418
0.5735868
0.5708019
0.5664438
0.5568762
0.578005
0.5767531
0.5750983
0.5735394
0.5707491
0.5663749
0.5567461
0.5779653
0.5767136
0.5750548
0.5734926
0.570696
0.5663052
0.5565862
0.5779265
0.5766755
0.5750121
0.5734475
0.5706429
0.566235
0.5563709
0.5778901
0.5766382
0.5749702
0.5734045
0.57059
0.566164
0.5560311
0.004316061
5.780475e-11
1.909746e-16
4.297457e-22
1.014074e-27
6.178838e-34
6.042549e-41
5.306894e-46
3.262723e-50
1.131167e-54
2.153508e-59
2.703799e-64
2.441035e-69
1.681805e-74
1.048597e-79
1.138411e-84
1.212905e-89
1.129913e-94
0.01016251
1.916427e-11
1.612394e-18
7.488608e-25
3.40237e-31
2.2314e-36
2.306166e-41
7.29593e-46
3.87183e-50
1.088805e-54
1.515896e-59
1.288476e-64
7.285244e-70
2.83214e-75
1.028438e-80
7.093285e-86
4.378523e-91
2.158665e-96
0.01203693
5.338051e-11
5.467616e-18
2.034121e-24
9.975563e-31
5.381737e-36
4.70283e-41
1.140411e-45
5.443898e-50
1.30156e-54
1.416852e-59
8.647415e-65
3.272069e-70
8.021997e-76
1.666476e-81
7.283261e-87
3.18024e-92
1.331163e-97
0.01303777
1.079672e-10
1.780499e-17
5.970236e-24
3.042101e-30
1.376684e-35
1.080799e-40
2.239424e-45
8.387901e-50
1.533688e-54
1.210594e-59
4.90979e-65
1.127563e-70
1.547402e-76
1.503501e-82
3.698043e-88
1.288431e-93
5.423988e-99
0.01401348
1.906264e-10
4.578777e-17
1.69294e-23
9.22168e-30
3.685147e-35
2.543049e-40
4.353723e-45
1.27183e-49
1.74642e-54
9.308709e-60
2.323765e-65
3.076744e-71
2.538193e-77
4.285124e-84
1.523238e-89
2.225633e-94
1.161203e-99
0.01495586
3.032596e-10
8.383957e-17
4.370583e-23
2.530555e-29
9.744463e-35
5.980328e-40
7.661757e-45
1.825786e-49
1.809955e-54
6.206971e-60
9.535518e-66
7.855577e-72
4.36332e-78
3.411407e-84
9.408433e-90
5.457214e-95
1.437406e-100
0.01590214
4.218151e-10
1.371294e-16
1.069938e-22
5.814175e-29
2.402561e-34
1.401156e-39
1.262772e-44
2.417479e-49
1.726227e-54
3.853818e-60
3.902235e-66
2.688139e-72
1.539062e-78
7.7137e-85
5.177137e-90
1.653949e-95
2.080338e-101
0.01682902
6.187061e-10
2.410202e-16
2.37384e-22
1.147327e-28
5.342143e-34
3.188445e-39
2.672234e-44
3.405349e-49
1.602247e-54
2.573229e-60
2.435977e-66
1.837091e-72
1.158339e-78
7.066753e-85
4.385749e-90
6.705169e-96
4.997772e-102
0.0177403
9.511678e-10
3.714873e-16
3.808452e-22
2.179523e-28
1.080272e-33
6.910496e-39
7.17438e-44
6.669317e-49
1.856756e-54
2.574388e-60
2.732802e-66
2.364299e-72
1.674816e-78
1.274084e-84
5.675984e-90
5.043562e-96
2.943645e-102
0.01868366
1.144805e-09
4.581471e-16
4.620576e-22
4.000927e-28
2.039206e-33
1.416547e-38
1.37036e-43
1.175983e-48
3.122611e-54
4.550063e-60
5.259457e-66
5.080496e-72
3.887409e-78
3.422193e-84
1.005707e-89
8.214858e-96
4.230968e-102
0.01962446
9.281126e-10
4.399122e-16
5.350089e-22
6.990995e-28
3.705509e-33
2.76623e-38
2.353293e-43
1.770364e-48
5.380917e-54
9.508823e-60
1.279542e-65
1.278485e-71
9.968015e-78
1.063091e-83
2.177253e-89
1.748841e-95
9.518976e-102
0.02052635
7.941415e-10
4.450585e-16
5.663038e-22
1.187858e-27
6.688877e-33
5.383597e-38
3.623218e-43
2.236059e-48
6.181201e-54
1.152674e-59
1.708256e-65
1.999568e-71
1.851461e-77
1.765887e-83
4.439188e-89
3.244662e-95
2.037975e-101
0.02144998
7.932875e-10
8.108286e-16
7.26221e-22
2.0571e-27
1.216805e-32
1.073553e-37
9.550875e-43
2.873429e-48
6.816781e-54
1.218666e-59
1.825879e-65
2.188799e-71
2.115075e-77
2.875383e-83
8.501821e-89
5.681524e-95
4.162983e-101
0.02253788
7.207365e-10
2.934659e-15
1.034279e-21
3.635179e-27
2.13929e-32
2.065974e-37
2.209222e-42
6.175148e-48
1.317695e-53
2.245085e-59
3.279193e-65
3.761601e-71
3.698751e-77
8.202339e-83
2.414479e-88
1.276936e-94
1.126735e-100
0.02797736
1.404048e-09
3.948336e-15
2.210248e-21
6.130597e-27
3.550483e-32
3.583334e-37
4.145079e-42
1.667018e-47
3.830891e-53
7.016968e-59
1.015019e-64
1.127832e-70
1.104772e-76
5.525037e-82
1.563324e-87
4.351865e-94
4.354907e-100
0.02903646
0
2.595445e-15
7.294049e-21
9.129848e-27
5.721292e-32
5.502937e-37
6.734168e-42
3.461937e-47
9.853669e-53
2.080072e-58
3.216211e-64
3.713591e-70
3.888596e-76
5.086261e-81
1.586846e-86
2.002769e-93
2.115764e-99
0.03083935
1.06563e-08
0
5.477959e-21
1.358392e-26
8.887776e-32
7.556191e-37
9.276678e-42
5.632211e-47
2.051479e-52
5.376647e-58
9.662898e-64
1.277066e-69
1.59268e-75
4.43449e-80
7.160371e-86
1.085047e-92
1.148164e-98
0.03287696
1.445919e-08
4.182155e-14
0
1.926838e-26
1.188708e-31
9.229694e-37
1.108331e-41
6.681187e-47
3.311879e-52
1.173728e-57
2.70373e-63
4.501327e-69
7.338679e-75
3.490928e-79
1.252733e-85
6.179737e-92
6.687464e-98
0.03508202
1.948985e-08
6.169937e-14
1.465054e-19
0
1.071148e-31
1.027425e-36
1.198555e-41
7.043363e-47
5.530333e-52
2.554246e-57
7.449601e-63
1.649199e-68
3.683041e-74
2.990797e-78
2.460427e-86
3.592048e-91
4.182104e-97
0.03728857
2.558601e-08
8.960074e-14
2.377581e-19
1.647536e-24
0
9.179979e-37
1.057337e-41
6.924768e-47
7.165846e-52
5.623434e-57
1.960831e-62
5.859195e-68
1.904435e-73
2.986953e-77
0
1.997486e-90
2.742989e-96
0.03948357
3.34236e-08
1.288611e-13
3.858234e-19
3.044714e-24
1.463693e-29
0
3.738981e-42
5.839524e-47
6.764619e-52
8.421192e-57
4.650108e-62
1.892459e-67
9.738152e-73
1.213752e-76
0
1.137483e-89
2.063027e-95
0.04176377
4.370413e-08
1.875539e-13
6.216426e-19
5.593406e-24
3.045616e-29
1.547019e-34
0
7.14285e-47
6.837366e-52
7.881357e-57
9.995103e-62
5.359521e-67
5.15096e-72
1.147375e-75
1.189924e-82
6.637668e-89
2.276286e-94
0.04419072
5.611723e-08
2.689514e-13
9.969338e-19
1.017495e-23
6.52151e-29
3.340725e-34
2.577915e-39
0
1.129578e-51
5.469086e-57
1.397745e-61
8.420904e-67
3.387569e-71
9.648947e-75
9.331522e-82
4.138105e-88
3.631118e-93
0.04676522
7.285495e-08
3.833032e-13
1.605417e-18
1.845125e-23
1.150458e-28
7.235572e-34
5.773352e-39
1.63579e-44
0
5.412507e-57
1.092646e-61
7.945306e-67
3.137505e-70
6.51e-74
6.248158e-81
3.253922e-87
6.485879e-92
0.04955777
9.439082e-08
5.501215e-13
2.593084e-18
3.379935e-23
2.256287e-28
1.586684e-33
1.37084e-38
3.770526e-44
2.008385e-49
0
4.967844e-62
1.360049e-66
3.135005e-69
5.120013e-73
2.009888e-80
5.39005e-86
1.13385e-90
0.052476
1.211606e-07
7.956137e-13
4.199047e-18
6.319084e-23
4.965933e-28
3.973578e-33
3.594677e-38
9.492797e-44
5.327415e-49
3.959917e-54
0
1.880392e-65
2.544575e-68
6.332703e-72
6.905832e-80
4.172897e-84
2.21742e-89
0.05562921
1.547253e-07
1.134259e-12
7.034146e-18
1.232394e-22
1.347244e-27
1.115076e-32
1.062343e-37
3.12471e-43
1.442835e-48
1.237691e-53
8.283246e-59
2.624838e-64
1.483579e-67
1.322335e-74
4.619783e-78
5.651534e-82
6.87234e-88
0.05901651
1.917833e-07
1.548138e-12
1.028611e-17
2.627731e-22
2.179119e-27
1.810189e-32
1.616872e-37
1.926513e-42
3.710337e-48
3.750811e-53
2.469934e-58
4.344411e-63
9.937925e-67
2.848487e-73
5.798563e-76
7.733802e-80
3.092826e-86
0.06261059
2.253847e-07
1.782177e-12
1.084918e-17
6.637177e-22
3.030615e-27
2.687201e-32
2.200666e-37
1.628206e-41
8.688799e-48
9.136608e-53
7.2601e-58
3.915845e-62
1.533431e-65
1.041881e-70
6.865395e-74
9.991017e-78
6.436747e-85
0.0665336
2.386545e-07
1.933767e-12
1.015771e-17
8.924973e-22
3.634065e-27
3.622612e-32
3.795791e-37
5.588887e-41
2.170938e-47
2.078938e-52
2.731673e-57
9.143944e-61
1.35658e-64
2.125647e-68
7.536382e-72
1.20629e-75
9.402445e-83
0.07075761
2.426217e-07
2.516572e-12
1.127701e-17
1.062176e-21
7.452497e-27
6.170774e-32
6.6277e-37
2.687076e-41
9.617672e-47
8.421695e-52
4.519008e-56
5.988706e-59
8.781131e-63
2.204334e-66
7.70639e-70
1.353213e-73
6.042607e-81
0.07527477
3.985533e-07
6.197538e-12
1.191199e-17
4.12031e-22
1.722332e-26
1.395462e-31
1.106534e-36
1.330807e-41
5.524259e-46
6.472171e-51
2.793462e-54
5.137426e-57
8.978849e-61
2.159401e-64
7.044656e-68
1.505672e-71
0
0.08038094
9.036647e-07
9.514793e-12
0
1.185357e-21
2.759264e-26
3.83859e-31
1.332348e-36
3.03112e-41
2.274186e-45
2.302724e-49
2.107396e-52
4.196595e-55
6.256611e-59
1.914095e-62
5.768569e-66
1.514471e-69
0
0.08696097
1.831986e-06
8.67749e-12
7.681647e-17
2.446367e-21
4.703601e-26
7.332112e-31
1.327944e-36
1.910509e-42
1.242346e-44
1.494466e-47
1.489814e-50
3.016347e-53
2.383099e-57
1.487045e-60
4.19408e-64
1.320492e-67
3.391387e-75
0.1049448
3.972494e-07
6.702094e-12
3.238008e-16
4.487507e-21
1.105307e-25
9.658841e-31
0
0
5.15132e-43
9.349122e-46
9.593905e-49
1.915041e-51
1.173053e-55
9.673555e-59
2.670786e-62
2.763961e-66
1.793217e-71
0.1180968
1.347459e-07
8.581563e-12
5.014765e-16
7.495588e-21
4.533883e-26
9.977788e-31
4.357607e-38
1.299593e-38
2.731946e-41
5.261104e-44
5.693905e-47
9.945883e-50
6.558846e-54
5.079347e-57
1.468396e-60
2.222159e-64
7.519326e-70
0.1431932
0
1.626872e-11
5.186449e-16
2.488146e-21
2.080773e-26
1.209602e-30
2.313764e-34
5.526989e-37
1.301524e-39
2.647636e-42
3.180132e-45
5.188922e-48
3.292083e-52
2.095748e-55
6.970088e-59
6.360863e-63
2.948213e-68
0.2489568
0
5.184526e-11
2.759592e-16
2.159559e-22
6.386348e-26
1.041474e-29
8.341982e-33
2.21897e-35
5.516379e-38
1.193924e-40
1.607633e-43
2.098466e-46
1.527907e-50
6.69784e-54
1.810232e-57
2.233732e-61
9.900974e-67
0.3851377
2.55725e-05
9.125079e-11
2.007645e-17
6.362081e-22
3.619615e-25
2.073914e-28
2.953606e-31
7.898585e-34
2.041705e-36
4.822499e-39
7.044032e-42
6.807306e-45
6.121673e-49
7.253022e-53
4.492452e-56
4.82877e-60
2.14809e-65
0.4995204
4.877469e-05
3.073665e-11
1.723142e-17
3.705881e-21
5.108778e-24
5.968535e-27
9.600291e-30
2.449351e-32
6.456035e-35
1.728968e-37
1.156195e-40
1.953326e-43
1.944457e-47
1.442379e-52
8.251783e-55
9.404299e-59
3.4808e-64
0.5298941
0.0002278923
9.302634e-11
2.387141e-17
7.657801e-20
1.267895e-22
1.714462e-25
2.769682e-28
6.542325e-31
1.696215e-33
5.310235e-36
1.471219e-39
5.71271e-42
5.085264e-46
0
1.292882e-53
1.312573e-57
5.50561e-63
0.5338748
0.0001515242
0
4.237493e-16
1.841172e-18
2.929674e-21
4.400305e-24
6.988312e-27
1.500312e-29
3.598889e-32
1.241194e-34
3.380731e-38
1.626474e-40
1.27319e-44
5.267675e-49
1.39361e-52
1.21805e-56
1.036258e-62
0.5350192
4.410143e-05
0
8.562433e-15
3.981249e-17
5.845906e-20
9.76342e-23
1.521821e-25
2.991051e-28
6.110967e-31
1.937057e-33
5.452082e-37
4.363465e-39
3.039397e-43
8.235994e-48
9.343727e-52
1.776043e-56
0
0.5393451
0.001124645
1.980339e-10
1.629548e-13
7.487841e-16
1.173508e-18
1.82924e-21
2.809623e-24
5.382248e-27
8.738508e-30
5.641973e-33
7.915019e-36
1.017313e-37
2.880996e-42
6.997867e-47
1.093613e-51
0
1.174375e-60
0.5407494
0.001207495
3.086489e-09
2.991871e-12
1.254698e-14
1.960466e-17
2.803271e-20
4.302296e-23
9.103732e-26
1.049712e-28
3.073184e-32
1.161263e-34
1.927568e-36
1.494364e-41
1.702425e-46
0
4.464504e-55
0
0.5421737
0.001897679
3.17388e-08
6.23816e-11
1.908057e-13
2.682657e-16
3.383465e-19
5.454237e-22
1.087508e-24
3.690474e-28
4.448527e-31
1.341533e-33
6.015432e-36
3.919579e-41
0
7.298431e-50
0
0
0.546697
0.00344572
8.372424e-07
1.585026e-09
2.571728e-12
3.296792e-15
3.088872e-18
6.009556e-21
7.612368e-24
0
1.956773e-30
6.988296e-33
5.238892e-36
2.642279e-40
3.741289e-45
0
9.543494e-54
0
0.555052
0.0207994
1.657586e-05
4.453581e-08
2.892332e-11
4.35715e-14
1.925533e-17
3.275205e-20
3.29354e-24
1.03975e-26
1.958345e-30
2.37266e-33
1.468003e-36
1.08694e-39
4.635083e-43
5.504603e-47
2.392358e-51
7.732075e-56
0.5607071
0.06642776
0.0001378495
6.207699e-07
3.149025e-10
3.705355e-13
3.156526e-17
5.783447e-20
2.88865e-23
2.353938e-27
0
9.556427e-34
2.404802e-36
7.109081e-38
4.588955e-41
5.42646e-45
4.612964e-49
6.494665e-54
0.5631857
0.2195153
0.001036924
5.783126e-06
1.698635e-23
0
2.851192e-31
7.766911e-36
1.807294e-34
5.282299e-36
3.002742e-39
4.511006e-43
3.535922e-47
3.716014e-51
0.5634003
0.5353002
3.328304e-30
5.974603e-33
1.096584e-32
3.751105e-34
1.502107e-37
3.042501e-41
1.433783e-45
6.037825e-49
0.564797
4.733966e-31
6.007631e-31
1.861838e-32
6.02643e-36
1.634185e-39
1.807574e-43
7.911655e-47
2.43699e-29
9.1782e-31
1.68531e-34
5.576211e-38
9.783915e-42
5.948503e-45
3.442999e-29
3.285353e-33
1.746219e-36
5.995146e-40
3.103682e-43
1.878375e-27
4.219291e-32
4.172014e-35
3.977125e-38
1.312621e-41
2.097912e-26
2.874557e-31
8.391899e-34
8.780137e-37
4.055452e-40
3.232215e-26
1.66799e-30
9.046251e-33
1.563661e-35
1.109148e-38
0
2.37721e-30
5.302622e-32
1.49796e-34
1.77979e-37
0
9.340795e-29
5.89226e-31
1.425465e-33
1.832781e-36
0
0
2.429861e-27
8.738593e-30
1.653832e-32
2.657363e-35
0.5593306
0
2.887672e-24
2.002814e-26
7.880148e-29
1.943217e-31
1.377225e-34
0.5581692
0.5444071
0
1.029371e-21
9.820244e-24
5.406883e-26
1.244779e-28
1.413451e-31
9.85929e-35
0.5609686
0.2855733
0.002482117
0
2.856731e-18
9.592044e-20
9.536219e-22
4.397886e-24
2.134555e-26
1.410856e-29
4.444143e-32
1.452852e-35
0.5600002
0.1272947
0.0007300907
1.256345e-05
3.642401e-07
9.190838e-09
1.451302e-10
1.77697e-12
4.536085e-14
4.933429e-16
5.277522e-18
2.423281e-20
9.62477e-23
1.048351e-25
5.814661e-29
1.975682e-31
4.019059e-35
5.785504e-38
0.5519144
0.0315084
4.013655e-05
2.930577e-07
5.046681e-09
8.941502e-11
1.083385e-12
1.221564e-14
1.097462e-16
1.043339e-18
9.642751e-21
2.831885e-23
8.229998e-26
3.960588e-28
3.061588e-31
1.078657e-33
3.579015e-40
6.277558e-41
0.5529049
0.008750476
1.777116e-06
1.487397e-08
9.346208e-11
1.091634e-12
1.026061e-14
1.095097e-16
9.606745e-19
3.795086e-21
3.200917e-23
1.510638e-25
2.565291e-28
2.205835e-31
8.478079e-34
2.827289e-38
8.559201e-41
5.567432e-44
0.5471752
0.002265268
1.449758e-06
3.561212e-09
2.808461e-11
3.374288e-13
2.473531e-15
1.656596e-17
1.022705e-19
6.007675e-22
1.324706e-24
7.085316e-27
1.139285e-29
3.948712e-32
3.721078e-35
5.705552e-38
1.776841e-41
1.219757e-44
0.5407883
0.001810945
2.109351e-06
9.129051e-09
4.845013e-11
2.10281e-13
1.07358e-15
5.153759e-18
2.389974e-20
1.014125e-22
2.562956e-25
7.338948e-28
0
7.037296e-34
1.426791e-36
1.227196e-39
1.5338e-42
1.406312e-46
0.5397692
0.001113944
5.965569e-07
1.906286e-09
1.062694e-11
6.201282e-14
3.768048e-16
1.927907e-18
9.341444e-21
3.995362e-23
1.520882e-25
4.008402e-28
8.850031e-31
9.401497e-35
4.497126e-37
6.410413e-40
1.636842e-43
1.641035e-46
0.5374285
0.0009496542
1.450499e-06
6.569069e-09
3.988986e-11
1.713683e-13
6.193897e-16
2.113296e-18
7.494512e-21
2.298385e-23
6.425127e-26
2.111712e-29
1.323795e-31
0
1.606324e-37
2.673327e-40