/*--------------------------------*- C++ -*----------------------------------*\
| =========                 |                                                 |
| \\      /  F ield         | OpenFOAM: The Open Source CFD Toolbox           |
|  \\    /   O peration     | Version:  2206                                  |
|   \\  /    A nd           | Website:  www.openfoam.com                      |
|    \\/     M anipulation  |                                                 |
\*---------------------------------------------------------------------------*/
FoamFile
{
    version     2.0;
    format      ascii;
    arch        "LSB;label=32;scalar=64";
    class       volScalarField;
    location    "2.6";
    object      alpha.a_0;
}
// * * * * * * * * * * * * * * * * * * * * * * * * * * * * * * * * * * * * * //

dimensions      [0 0 0 0 0 0 0];

internalField   nonuniform List<scalar> 
13078
(
0.4711766
0.5547856
0.579247
0.5807259
0.5804084
0.579716
0.578882
0.5623099
0.5786256
0.5812107
0.5810346
0.5804616
0.5797465
0.5789066
0.5813247
0.5819627
0.581763
0.5812042
0.5805425
0.5797991
0.5789456
0.5833252
0.5825854
0.5819689
0.5813255
0.5806263
0.5798576
0.5789906
0.5835542
0.5827568
0.5820806
0.5814042
0.5806978
0.5799143
0.5790357
0.5835128
0.5827878
0.5821347
0.5814576
0.5807404
0.5799616
0.5790783
0.5834535
0.5827819
0.5821569
0.5814888
0.5807709
0.5799872
0.5791141
0.5834081
0.582764
0.5821634
0.5815039
0.5807883
0.5800055
0.5791308
0.5833749
0.5827456
0.5821591
0.581508
0.5807972
0.5800169
0.5791432
0.5833506
0.5827293
0.5821517
0.5815076
0.5808011
0.5800237
0.5791515
0.5833321
0.5827157
0.5821438
0.5815048
0.580802
0.5800274
0.5791572
0.5833173
0.5827045
0.5821362
0.5815009
0.5808012
0.5800292
0.5791609
0.5833051
0.5826949
0.5821292
0.5814967
0.5807995
0.5800298
0.5791634
0.5832947
0.5826866
0.5821227
0.5814925
0.5807974
0.5800296
0.5791652
0.5832855
0.5826791
0.582117
0.5814925
0.5808007
0.5800299
0.5791665
0.583277
0.5826721
0.5821116
0.581493
0.5808019
0.5800296
0.5791677
0.5832688
0.5826653
0.5821061
0.5814895
0.5807999
0.5800289
0.5791687
0.5832606
0.5826586
0.5821006
0.5814857
0.5807976
0.5800282
0.5791698
0.5832522
0.5826518
0.5820951
0.5814817
0.5807953
0.5800278
0.5791707
0.5832435
0.5826448
0.5820895
0.5814782
0.5807992
0.5800355
0.5791728
0.5832342
0.5826373
0.5820835
0.5814743
0.5808034
0.5800402
0.5791748
0.5832241
0.5826291
0.5820768
0.5814695
0.5808017
0.58004
0.5791762
0.583213
0.5826202
0.5820696
0.5814645
0.5807989
0.5800399
0.5791785
0.5832006
0.5826102
0.5820616
0.5814589
0.5807966
0.5800483
0.5791924
0.5831866
0.5825991
0.5820526
0.5814527
0.5807937
0.5800571
0.5792017
0.5831709
0.5825865
0.5820426
0.5814457
0.5807898
0.5800582
0.5792053
0.583153
0.5825721
0.5820312
0.5814377
0.5807853
0.5800577
0.5792091
0.5831328
0.5825561
0.5820184
0.5814285
0.5807802
0.5800575
0.5792251
0.5831096
0.5825376
0.5820039
0.5814182
0.5807741
0.580056
0.5792407
0.5830857
0.5825192
0.5819884
0.5814066
0.5807667
0.5800526
0.5792451
0.5830578
0.5824975
0.5819707
0.5813937
0.5807582
0.5800481
0.5792458
0.5830267
0.5824776
0.5819574
0.5813807
0.5807482
0.5800415
0.579243
0.5829937
0.5824561
0.5819461
0.5813761
0.5807408
0.5800358
0.5792384
0.5829608
0.5824356
0.5819375
0.5813701
0.5807392
0.5800394
0.5792425
0.5829318
0.5824256
0.5819435
0.5813995
0.580783
0.5800783
0.5792761
0.5829178
0.5824408
0.5819909
0.5814858
0.5808988
0.5801991
0.5793686
0.5829312
0.5825143
0.5821247
0.5816653
0.5811059
0.5803643
0.5794704
0.582999
0.5826892
0.5823634
0.5819184
0.5813482
0.5805566
0.5795262
0.5831591
0.5829579
0.5826603
0.5821991
0.5815764
0.5807472
0.5795115
0.5834359
0.5832799
0.5829635
0.5824723
0.58179
0.58089
0.5795643
0.5838006
0.583602
0.5832843
0.5827201
0.5820044
0.5810532
0.5797388
0.584233
0.5838859
0.5835726
0.5830061
0.5822216
0.5812637
0.5800819
0.5846779
0.584142
0.5838038
0.5832629
0.5825407
0.5815675
0.5806512
0.585096
0.5842935
0.584012
0.5834505
0.5827926
0.5820342
0.5811969
0.5853638
0.5843694
0.5841082
0.5835717
0.5829751
0.5824914
0.5819084
0.5854535
0.5843892
0.5841486
0.5836298
0.5831642
0.5827901
0.5823763
0.585449
0.5843963
0.5841183
0.5836594
0.5833455
0.5830204
0.5824919
0.5854631
0.5844561
0.5841815
0.5837438
0.5835635
0.5831763
0.5825585
0.5854841
0.5845516
0.5843244
0.5839018
0.5836966
0.5832673
0.5825151
0.585507
0.5846687
0.584476
0.5840737
0.5838516
0.5832588
0.5822981
0.5855229
0.5848355
0.5846356
0.5841775
0.5838716
0.5830848
0.5819225
0.5854693
0.5849119
0.5847853
0.5843438
0.5838852
0.5828553
0.5815269
0.5853294
0.5848664
0.5846864
0.5842383
0.5836591
0.582515
0.5811708
0.5851468
0.5847367
0.5845303
0.5840022
0.5832901
0.5820407
0.5810958
0.5849474
0.584569
0.5843191
0.5837242
0.5829222
0.5817446
0.5811222
0.5847262
0.5843556
0.5840686
0.5834516
0.5826492
0.5816215
0.5811716
0.5845017
0.5840495
0.5837375
0.5831533
0.5824445
0.5815355
0.5811555
0.5843585
0.5838114
0.5835089
0.5829897
0.5823876
0.581506
0.581114
0.5842269
0.5835855
0.5832949
0.58283
0.582317
0.58144
0.5809842
0.5840959
0.5833383
0.5830359
0.5826109
0.5821653
0.5813528
0.5807649
0.5839971
0.5831282
0.5827881
0.5822912
0.5819071
0.5811039
0.5803654
0.5839304
0.5829689
0.5826036
0.582054
0.5817119
0.5809432
0.5801108
0.5838815
0.5828581
0.5824231
0.5817828
0.581437
0.5807697
0.5797894
0.5838611
0.5828256
0.5823515
0.5816111
0.5811887
0.580588
0.5796082
0.5839003
0.5829012
0.5823962
0.5815605
0.5809875
0.5804446
0.5794907
0.5840273
0.5830332
0.5825269
0.5816314
0.5807437
0.5800771
0.5792957
0.584159
0.5831848
0.582655
0.5817382
0.5806099
0.5797225
0.5791056
0.5841626
0.5832703
0.5826879
0.5818159
0.5806433
0.5794581
0.5786643
0.5839878
0.5832872
0.5826965
0.5818571
0.5807485
0.5793793
0.5781197
0.5837094
0.58322
0.5826605
0.5818409
0.5808074
0.579462
0.5779296
0.5834257
0.5830747
0.5825796
0.5818252
0.5808531
0.5796258
0.5780633
0.5831753
0.5829038
0.5824684
0.5818028
0.5809343
0.579818
0.5784414
0.5829931
0.5827089
0.5823139
0.5817488
0.5809964
0.5800522
0.5787175
0.5828917
0.5825311
0.5821454
0.5816309
0.5809834
0.5801638
0.5790194
0.5828608
0.5824143
0.5819917
0.5814926
0.5808977
0.5801379
0.5791881
0.5828677
0.5823706
0.5819004
0.5813787
0.5807761
0.5800543
0.5792068
0.5828944
0.582371
0.5818746
0.5813264
0.5807
0.5799881
0.5791762
0.5829326
0.5823927
0.5818846
0.5813165
0.5806802
0.5799654
0.5791642
0.5829713
0.5824228
0.5819066
0.581325
0.5806832
0.579975
0.5791759
0.5830084
0.582453
0.5819285
0.5813464
0.5807036
0.5799934
0.5791937
0.5830431
0.5824792
0.5819472
0.5813614
0.5807222
0.5800107
0.5792085
0.5830739
0.5825023
0.5819657
0.5813809
0.5807391
0.5800242
0.5792182
0.5831004
0.582525
0.5819866
0.5813983
0.5807531
0.5800346
0.5792234
0.5831229
0.582544
0.5820041
0.5814131
0.5807644
0.5800426
0.5792247
0.5831443
0.5825624
0.5820198
0.5814257
0.5807736
0.5800477
0.5792126
0.583163
0.5825781
0.5820334
0.5814363
0.5807809
0.5800508
0.5792003
0.5831795
0.582592
0.5820452
0.5814453
0.580787
0.5800534
0.5791988
0.5831939
0.5826039
0.5820552
0.581453
0.5807921
0.5800539
0.5791972
0.5832067
0.5826144
0.582064
0.5814597
0.5807957
0.5800458
0.5791887
0.583218
0.5826238
0.5820718
0.5814654
0.5807985
0.5800386
0.5791761
0.5832282
0.5826321
0.5820788
0.5814704
0.5808017
0.5800392
0.5791747
0.5832374
0.5826397
0.5820851
0.5814751
0.5808035
0.5800398
0.5791738
0.5832459
0.5826466
0.5820907
0.5814787
0.580799
0.5800349
0.5791721
0.5832538
0.582653
0.5820958
0.581482
0.5807953
0.5800275
0.5791702
0.5832613
0.5826591
0.5821008
0.5814857
0.5807975
0.5800279
0.5791695
0.5832685
0.582665
0.5821057
0.5814892
0.5807996
0.5800288
0.5791688
0.5832758
0.582671
0.5821107
0.5814923
0.5808016
0.5800296
0.5791679
0.5832831
0.5826769
0.5821153
0.5814912
0.5808
0.5800299
0.5791669
0.5832908
0.5826833
0.5821202
0.581491
0.5807968
0.5800298
0.579166
0.5832994
0.5826903
0.5821258
0.5814948
0.5807989
0.5800303
0.5791648
0.5833091
0.5826983
0.582132
0.5814989
0.580801
0.5800305
0.5791632
0.5833208
0.5827075
0.5821387
0.5815029
0.5808027
0.58003
0.5791609
0.5833351
0.5827184
0.582146
0.5815066
0.5808034
0.5800283
0.5791574
0.583353
0.5827316
0.5821537
0.5815093
0.5808027
0.5800248
0.579152
0.5833766
0.5827476
0.5821607
0.58151
0.580799
0.5800181
0.5791435
0.583409
0.5827658
0.5821622
0.581504
0.58079
0.5800066
0.5791316
0.5834537
0.5827837
0.5821573
0.5814888
0.5807722
0.5799895
0.5791015
0.5835122
0.582791
0.5821387
0.5814608
0.5807454
0.5799521
0.5790645
0.5835572
0.5827629
0.5820863
0.5814134
0.5806916
0.5799041
0.579023
0.5833433
0.5826
0.5819884
0.5813233
0.5806202
0.5798491
0.5789777
0.5815533
0.5820446
0.5817662
0.5812043
0.5805396
0.5797908
0.5789323
0.5643133
0.5794266
0.5814103
0.5810514
0.5804526
0.5797334
0.5788898
0.5778864
0.5766364
0.5749688
0.5733841
0.5705638
0.5661289
0.5558737
0.5779113
0.5766663
0.5750057
0.5734266
0.570616
0.5662004
0.5562926
0.577945
0.5767012
0.5750498
0.5728783
0.5706662
0.5662689
0.5565101
0.5779828
0.5767379
0.5750865
0.5735261
0.570718
0.5663381
0.556704
0.5780216
0.5767764
0.5751295
0.5735772
0.5707714
0.5664074
0.556836
0.5780594
0.5768152
0.5751731
0.5736271
0.5708241
0.5664759
0.5569573
0.5780951
0.5768526
0.5752157
0.5736742
0.57084
0.566544
0.5570709
0.5781256
0.5768886
0.575257
0.5737199
0.5708549
0.5666115
0.5571725
0.5781378
0.5769204
0.5752959
0.5737653
0.5708975
0.566672
0.5572715
0.5781472
0.5769312
0.5753311
0.5738099
0.5709388
0.5667326
0.5573635
0.578154
0.5769395
0.5753419
0.5738523
0.57098
0.5667932
0.5574504
0.5781594
0.5769465
0.5753503
0.5738622
0.5710212
0.566854
0.5575331
0.5781636
0.5769527
0.5753584
0.5738711
0.5710287
0.5669167
0.5576111
0.5781672
0.5769583
0.5753662
0.5738803
0.5710372
0.5669283
0.5576708
0.5781704
0.5769639
0.5753741
0.5738896
0.5710464
0.5669429
0.557631
0.5781735
0.5769695
0.5753821
0.5738995
0.5710565
0.566959
0.5575755
0.5781765
0.5769751
0.5753903
0.5739101
0.5710724
0.566976
0.5575319
0.5781795
0.5769808
0.575399
0.5739256
0.571189
0.5669948
0.5574741
0.5781826
0.5769864
0.5754081
0.5739376
0.5712103
0.5670142
0.5574229
0.578186
0.5769924
0.5754177
0.5739503
0.571226
0.567035
0.5573659
0.5781896
0.5769988
0.5754276
0.5739638
0.5712425
0.5670568
0.5572911
0.5781935
0.5770056
0.5754378
0.5739784
0.57126
0.56708
0.5572294
0.5781976
0.5770132
0.5754492
0.5739912
0.5712833
0.5671042
0.5571654
0.578204
0.5770217
0.5754642
0.573443
0.5714116
0.5671421
0.5571037
0.5782102
0.5770301
0.5754756
0.574021
0.5714676
0.5671742
0.5570453
0.5782159
0.5770396
0.5754902
0.5740483
0.5714956
0.5672051
0.5569869
0.5782244
0.5770517
0.5755081
0.5740723
0.5715246
0.5672405
0.5569246
0.5782492
0.5770664
0.5755251
0.5740972
0.5715633
0.567486
0.556872
0.5782614
0.577407
0.5759552
0.574106
0.5716019
0.5675849
0.5568373
0.5782708
0.5774215
0.5759826
0.574137
0.5716416
0.5676295
0.5568115
0.5783036
0.5774595
0.5760024
0.5741679
0.5716846
0.567821
0.5568233
0.5783169
0.5774895
0.5760206
0.5742003
0.5717269
0.5680187
0.5568926
0.5783155
0.5775455
0.5760428
0.5742272
0.5717643
0.568078
0.5571064
0.5783127
0.577554
0.5760703
0.5742319
0.5717788
0.568172
0.558874
0.5783205
0.5775477
0.5760748
0.5741873
0.5717297
0.5683671
0.5601333
0.5783265
0.5775241
0.5760417
0.5739761
0.5715255
0.5687133
0.5640969
0.5782638
0.5773867
0.5756841
0.5734584
0.5711438
0.5686865
0.5642973
0.5780794
0.577046
0.5751725
0.5731446
0.5706207
0.5674486
0.5644904
0.5778137
0.5765967
0.5746826
0.5727077
0.5696957
0.5668188
0.5644188
0.5777047
0.5762393
0.5744295
0.5722899
0.5697625
0.566979
0.5635283
0.5778744
0.576315
0.5747952
0.5721801
0.5697737
0.5670301
0.5614029
0.5786775
0.5771132
0.5750395
0.57195
0.5698042
0.5674357
0.5619221
0.5794285
0.5777243
0.5752339
0.5721786
0.5704724
0.5682827
0.5623971
0.580121
0.5782306
0.5753696
0.5728614
0.5716968
0.5687093
0.5638487
0.5807067
0.5791292
0.576191
0.5737558
0.5721536
0.5692681
0.564781
0.581347
0.5798869
0.5770262
0.5747437
0.5725789
0.5701417
0.5654277
0.5816325
0.5803127
0.5774345
0.5757519
0.5737562
0.5701081
0.5663128
0.5814754
0.5802368
0.5777649
0.5767687
0.57423
0.5716924
0.5689354
0.5811973
0.5799828
0.5781833
0.5772357
0.5748275
0.5718366
0.5703132
0.5808381
0.5796731
0.5786237
0.5776573
0.5751325
0.5728301
0.5700108
0.5805175
0.5799231
0.5792307
0.5778945
0.5758304
0.5735969
0.5702995
0.5803887
0.5802369
0.5797723
0.5783717
0.5766537
0.57443
0.5714668
0.5804542
0.5805611
0.5800721
0.5786424
0.5769018
0.5751674
0.5732831
0.580784
0.5809722
0.5798361
0.5781827
0.5769421
0.5757037
0.5744313
0.5809824
0.5810011
0.5796934
0.5779444
0.5768806
0.5772986
0.5768553
0.5811243
0.5808644
0.5795314
0.57791
0.5772107
0.5765707
0.5810398
0.5806655
0.5792812
0.5777222
0.5770424
0.5764558
0.580851
0.5804698
0.579153
0.5775964
0.5767005
0.5763944
0.5805625
0.5803433
0.5791163
0.5775559
0.5763508
0.5759542
0.5749039
0.5802882
0.5801103
0.578741
0.5770629
0.5757667
0.5738914
0.5711341
0.5797681
0.5795525
0.5782614
0.576424
0.5746435
0.5726743
0.5695452
0.579572
0.5792719
0.5783799
0.5765757
0.5749926
0.572971
0.5685496
0.5792656
0.5789387
0.5782914
0.5767241
0.5749484
0.5730172
0.5696231
0.5788429
0.578659
0.5781042
0.5767112
0.5745591
0.5725423
0.5709034
0.5784782
0.578338
0.5775817
0.5757241
0.5740795
0.5726059
0.5687023
0.5781996
0.5778151
0.5769763
0.5752172
0.5732641
0.5717209
0.5666959
0.5778718
0.5773372
0.5764592
0.574485
0.5725654
0.5697719
0.5650436
0.5774501
0.5766729
0.5756587
0.5741899
0.5716611
0.5691295
0.5643438
0.5769626
0.576163
0.5750748
0.5735742
0.5715321
0.5684302
0.5629035
0.5762968
0.5755918
0.5746104
0.5732979
0.5709387
0.5680516
0.5616198
0.5759915
0.5748125
0.5741784
0.5728516
0.5705691
0.5678738
0.5621534
0.5762574
0.5744169
0.5735239
0.5722783
0.5705053
0.5680964
0.5630346
0.5769165
0.5750739
0.5734634
0.5716359
0.5702512
0.567798
0.5632771
0.5775608
0.5759434
0.5744319
0.5723056
0.5696983
0.5671428
0.5635423
0.5779892
0.5767323
0.5753002
0.5734497
0.5707644
0.5678004
0.5641978
0.5781668
0.5771848
0.5758337
0.5738421
0.5714625
0.5686529
0.5629711
0.578217
0.5773499
0.576056
0.5741166
0.5716816
0.5686153
0.5618115
0.5782347
0.577403
0.5760853
0.5741778
0.5717524
0.5682524
0.5590268
0.5782535
0.577431
0.5760366
0.5741849
0.5717538
0.5681221
0.5580334
0.5782713
0.5774491
0.5760008
0.5741764
0.5717283
0.5680678
0.5574585
0.5782803
0.5774241
0.5759856
0.5741579
0.5716937
0.5680061
0.5566054
0.578273
0.5773964
0.5759718
0.5741368
0.5716578
0.5679243
0.5566338
0.5782471
0.5773635
0.575961
0.574116
0.5716239
0.5676422
0.5566846
0.5782435
0.5773567
0.5759479
0.5740969
0.5715926
0.5675826
0.5567503
0.5782349
0.5770513
0.5755093
0.5740523
0.5715621
0.5675432
0.5568156
0.5782139
0.5770405
0.5754963
0.5740377
0.5715281
0.5673232
0.5568854
0.5782082
0.5770312
0.5754822
0.5740214
0.5714991
0.567213
0.5569641
0.5782045
0.5770238
0.5754698
0.574006
0.5714738
0.5671839
0.5570355
0.5781997
0.5770167
0.575458
0.5739914
0.571446
0.567157
0.5571116
0.5781947
0.57701
0.575447
0.5739772
0.5713187
0.5671211
0.5571781
0.5781916
0.5770037
0.5754366
0.5739637
0.5712674
0.5670929
0.557248
0.5781884
0.5769975
0.5754267
0.5739511
0.5712506
0.5670704
0.557319
0.5781853
0.5769917
0.5754173
0.5739389
0.5712344
0.5670489
0.5573851
0.5781822
0.5769862
0.5754082
0.5739273
0.5712191
0.5670282
0.5574495
0.5781794
0.5769809
0.5753997
0.5739161
0.5712047
0.5670087
0.557506
0.5781766
0.5769756
0.5753914
0.5739031
0.57114
0.5669899
0.5575577
0.5781739
0.5769703
0.5753834
0.5738908
0.5710642
0.5669722
0.5576083
0.5781712
0.5769652
0.5753759
0.5738808
0.5710541
0.5669557
0.5576645
0.5781685
0.5769602
0.5753686
0.5738709
0.5710447
0.5669402
0.5576682
0.5781657
0.5769553
0.5753613
0.5738614
0.5710361
0.566926
0.5576719
0.5781624
0.57695
0.575354
0.5738518
0.5710278
0.5668893
0.5575895
0.5781584
0.5769441
0.5753465
0.5738419
0.5710042
0.5668279
0.5575018
0.5781534
0.5769373
0.5753367
0.5738159
0.5709635
0.5667668
0.5574086
0.5781465
0.5769283
0.5753029
0.5737712
0.5709225
0.566706
0.5573136
0.5781372
0.5768988
0.5752657
0.5737259
0.5708814
0.5666449
0.5572114
0.5781101
0.5768651
0.5752259
0.5736795
0.5708413
0.5665808
0.5571056
0.578078
0.5768298
0.5751846
0.5736345
0.5708526
0.5665126
0.5569951
0.578043
0.5767923
0.575142
0.5735869
0.570802
0.5664439
0.5568769
0.5780052
0.5767533
0.5750985
0.5735395
0.5707492
0.5663749
0.5567467
0.5779656
0.5767138
0.5750549
0.5734927
0.5706961
0.5663052
0.5565868
0.5779268
0.5766757
0.5750122
0.5734477
0.5706429
0.5662351
0.5563714
0.5778904
0.5766384
0.5749704
0.5734046
0.57059
0.566164
0.5560317
0.004325585
5.680183e-11
1.82618e-16
4.019191e-22
9.091301e-28
5.7232e-34
5.807376e-41
5.364784e-46
3.265094e-50
1.122484e-54
2.121309e-59
2.648423e-64
2.380964e-69
1.634404e-74
1.012937e-79
1.093406e-84
1.16277e-89
1.075985e-94
0.01017467
1.939332e-11
1.62906e-18
7.619166e-25
3.450682e-31
2.262578e-36
2.345215e-41
7.401436e-46
3.880518e-50
1.081937e-54
1.495705e-59
1.264828e-64
7.125457e-70
2.764233e-75
9.959938e-81
6.858802e-86
4.24722e-91
2.088701e-96
0.01204822
5.454144e-11
5.518841e-18
2.061216e-24
1.009897e-30
5.446143e-36
4.781196e-41
1.153551e-45
5.459502e-50
1.295069e-54
1.401175e-59
8.516461e-65
3.214143e-70
7.877482e-76
1.625481e-81
7.079459e-87
3.123711e-92
1.306292e-97
0.0130497
1.106877e-10
1.804806e-17
6.049175e-24
3.07664e-30
1.39085e-35
1.093405e-40
2.253933e-45
8.40269e-50
1.528353e-54
1.201227e-59
4.862941e-65
1.117809e-70
1.541061e-76
1.490939e-82
3.616124e-88
1.286485e-93
5.385715e-99
0.01402631
1.960618e-10
4.673782e-17
1.718604e-23
9.347065e-30
3.722167e-35
2.573918e-40
4.406931e-45
1.277199e-49
1.74526e-54
9.286208e-60
2.323546e-65
3.099915e-71
2.58507e-77
5.158628e-84
1.547616e-89
2.221947e-94
1.154395e-99
0.01496989
3.122097e-10
8.600455e-17
4.44455e-23
2.579996e-29
9.859347e-35
6.052164e-40
7.795788e-45
1.839844e-49
1.817774e-54
6.243984e-60
9.684942e-66
8.120947e-72
4.592981e-78
3.547187e-84
9.684967e-90
5.581657e-95
1.463235e-100
0.01591763
4.34649e-10
1.405116e-16
1.089209e-22
5.969811e-29
2.438033e-34
1.418888e-39
1.296413e-44
2.448489e-49
1.746549e-54
3.934571e-60
4.064146e-66
2.827523e-72
1.61417e-78
8.078973e-85
5.282318e-90
1.693332e-95
2.14918e-101
0.0168462
6.366158e-10
2.472892e-16
2.428613e-22
1.18279e-28
5.436446e-34
3.232881e-39
2.675132e-44
3.433407e-49
1.635121e-54
2.673035e-60
2.531987e-66
1.899943e-72
1.196082e-78
7.264117e-85
4.497081e-90
6.996938e-96
5.284624e-102
0.01775934
9.780834e-10
3.820428e-16
3.924201e-22
2.246319e-28
1.101492e-33
7.017361e-39
7.287359e-44
6.758118e-49
1.907144e-54
2.647392e-60
2.803093e-66
2.419863e-72
1.709485e-78
1.293886e-84
5.816406e-90
5.197037e-96
3.042389e-102
0.01870471
1.189065e-09
4.746924e-16
4.76962e-22
4.11645e-28
2.081435e-33
1.44064e-38
1.39662e-43
1.205208e-48
3.195025e-54
4.642202e-60
5.35203e-66
5.160294e-72
3.945846e-78
3.452346e-84
1.025044e-89
8.384641e-96
4.311974e-102
0.0196477
9.705826e-10
4.563475e-16
5.53806e-22
7.179541e-28
3.78292e-33
2.814584e-38
2.404989e-43
1.821586e-48
5.523694e-54
9.736493e-60
1.305303e-65
1.302599e-71
1.014671e-77
1.080205e-83
2.213164e-89
1.784464e-95
9.689467e-102
0.02055196
8.24929e-10
4.59298e-16
5.854287e-22
1.217547e-27
6.82592e-33
5.473295e-38
3.707589e-43
2.305988e-48
6.398139e-54
1.192874e-59
1.767147e-65
2.066222e-71
1.90829e-77
1.809989e-83
4.528275e-89
3.321095e-95
2.079098e-101
0.02147814
8.261213e-10
8.206598e-16
7.477053e-22
2.105342e-27
1.242294e-32
1.091784e-37
9.590339e-43
2.947524e-48
7.013226e-54
1.256172e-59
1.882221e-65
2.256678e-71
2.179919e-77
2.929712e-83
8.646429e-89
5.805998e-95
4.236652e-101
0.02256861
7.432964e-10
2.975095e-15
1.062895e-21
3.721235e-27
2.187427e-32
2.106306e-37
2.24583e-42
6.262482e-48
1.337119e-53
2.276644e-59
3.327369e-65
3.821043e-71
3.757652e-77
8.171444e-83
2.408627e-88
1.292783e-94
1.136478e-100
0.02801186
1.435298e-09
4.109993e-15
2.229493e-21
6.295516e-27
3.63397e-32
3.664802e-37
4.229397e-42
1.696451e-47
3.887296e-53
7.101931e-59
1.026549e-64
1.140427e-70
1.116147e-76
5.419563e-82
1.526073e-87
4.369566e-94
4.363369e-100
0.02907366
0
2.713463e-15
7.558907e-21
9.406291e-27
5.858896e-32
5.643558e-37
6.899077e-42
3.545542e-47
1.004083e-52
2.111184e-58
3.255818e-64
3.750938e-70
3.914201e-76
4.988124e-81
1.536525e-86
1.998989e-93
2.111632e-99
0.03088029
1.102133e-08
0
5.932265e-21
1.394526e-26
9.124997e-32
7.768811e-37
9.537512e-42
5.788802e-47
2.102079e-52
5.480108e-58
9.80315e-64
1.289572e-69
1.598562e-75
4.367417e-80
7.200451e-86
1.080583e-92
1.144195e-98
0.03292144
1.495812e-08
4.304551e-14
0
2.032243e-26
1.227974e-31
9.513983e-37
1.142021e-41
6.915748e-47
3.403558e-52
1.198682e-57
2.745966e-63
4.542141e-69
7.347758e-75
3.437537e-79
1.280611e-85
6.146881e-92
6.651206e-98
0.03513022
2.01636e-08
6.354336e-14
1.505586e-19
0
1.112251e-31
1.058989e-36
1.237638e-41
7.299678e-47
5.663936e-52
2.606662e-57
7.570921e-63
1.664721e-68
3.684188e-74
2.927733e-78
2.714837e-86
3.573143e-91
4.154287e-97
0.03734066
2.647682e-08
9.228538e-14
2.443951e-19
1.682745e-24
0
9.140327e-37
1.100287e-41
7.194538e-47
7.434777e-52
5.744435e-57
1.99744e-62
5.927588e-68
1.905816e-73
2.924447e-77
0
1.990735e-90
2.719176e-96
0.03953981
3.457812e-08
1.32707e-13
3.965998e-19
3.111473e-24
1.492328e-29
0
3.966336e-42
6.055326e-47
7.028237e-52
8.736266e-57
4.748821e-62
1.920633e-67
9.745829e-73
1.186606e-76
0
1.134265e-89
2.024851e-95
0.04182446
4.520227e-08
1.932113e-13
6.391424e-19
5.717918e-24
3.099383e-29
1.574959e-34
0
7.283276e-47
7.065486e-52
8.22461e-57
1.021582e-61
5.455637e-67
5.13681e-72
1.126751e-75
1.178875e-82
6.61535e-89
2.198582e-94
0.04425617
5.804526e-08
2.771019e-13
1.025274e-18
1.040333e-23
6.670409e-29
3.40149e-34
2.620424e-39
0
1.175352e-51
5.687364e-57
1.452905e-61
8.745878e-67
3.344077e-71
9.553726e-75
9.272922e-82
4.105603e-88
3.48183e-93
0.04683577
7.535201e-08
3.94994e-13
1.651366e-18
1.886774e-23
1.176186e-28
7.368858e-34
5.868988e-39
1.669499e-44
0
5.650932e-57
1.150479e-61
8.249434e-67
3.081011e-70
6.454213e-74
6.223756e-81
3.180525e-87
6.229532e-92
0.04963376
9.765205e-08
5.669613e-13
2.66746e-18
3.455596e-23
2.301661e-28
1.614265e-33
1.392656e-38
3.848354e-44
2.045604e-49
0
5.265952e-62
1.331689e-66
3.095737e-69
4.999814e-73
2.024171e-80
4.850501e-86
1.090204e-90
0.05255784
1.253851e-07
8.201733e-13
4.318679e-18
6.457423e-23
5.03925e-28
4.020369e-33
3.636992e-38
9.658548e-44
5.429173e-49
4.021321e-54
0
1.815305e-65
2.534591e-68
6.17168e-72
6.30864e-80
3.455787e-84
2.090946e-89
0.05571734
1.601382e-07
1.169816e-12
7.229728e-18
1.258046e-22
1.375499e-27
1.137703e-32
1.084672e-37
3.140769e-43
1.472467e-48
1.258199e-53
8.414647e-59
2.571949e-64
1.480841e-67
1.333774e-74
3.843986e-78
4.652951e-82
6.23583e-88
0.05911139
1.987033e-07
1.600086e-12
1.065946e-17
2.674479e-22
2.238234e-27
1.856751e-32
1.661428e-37
1.906583e-42
3.795122e-48
3.828768e-53
2.514099e-58
4.31594e-63
9.756961e-67
1.883345e-73
4.855326e-76
6.412019e-80
2.682889e-86
0.06271268
2.33798e-07
1.847898e-12
1.127768e-17
6.745714e-22
3.124754e-27
2.762221e-32
2.265338e-37
1.627145e-41
8.903111e-48
9.373991e-53
7.394102e-58
3.791658e-62
1.461622e-65
7.991761e-71
5.809718e-74
8.352534e-78
5.205842e-85
0.06664352
2.48213e-07
2.004608e-12
1.05519e-17
9.247043e-22
3.745404e-27
3.731813e-32
3.88215e-37
5.715354e-41
2.20638e-47
2.117952e-52
2.708009e-57
8.290597e-61
1.22986e-64
1.813616e-68
6.446182e-72
1.01742e-75
6.688893e-83
0.0708761
2.516982e-07
2.586935e-12
1.172928e-17
1.08747e-21
7.511239e-27
6.300388e-32
6.806374e-37
2.813186e-41
9.651957e-47
8.463241e-52
4.117277e-56
5.246926e-59
7.599861e-63
1.895358e-66
6.664311e-70
1.152202e-73
5.543441e-81
0.07540226
4.080768e-07
6.321837e-12
1.245994e-17
4.259878e-22
1.768426e-26
1.421474e-31
1.142037e-36
1.341538e-41
5.565675e-46
6.193063e-51
2.478845e-54
4.511034e-57
7.828428e-61
1.874924e-64
6.159117e-68
1.295593e-71
0
0.0805176
9.260662e-07
9.886016e-12
0
1.215903e-21
2.833282e-26
3.887618e-31
1.373783e-36
3.074845e-41
2.304063e-45
2.074796e-49
1.879702e-52
3.720452e-55
5.679669e-59
1.683095e-62
5.099505e-66
1.318129e-69
0
0.08710256
1.915199e-06
9.080618e-12
7.750635e-17
2.498728e-21
4.823181e-26
7.554733e-31
1.367407e-36
2.213444e-42
1.172657e-44
1.348688e-47
1.340667e-50
2.703373e-53
2.156599e-57
1.327773e-60
3.750113e-64
1.163193e-67
8.114232e-75
0.1051061
4.174424e-07
6.963436e-12
3.316946e-16
4.668779e-21
1.132841e-25
1.000137e-30
0
0
4.715786e-43
8.514944e-46
8.703606e-49
1.735425e-51
1.066317e-55
8.785034e-59
2.416756e-62
2.465925e-66
1.610485e-71
0.1182707
1.517935e-07
8.864974e-12
5.198433e-16
7.813482e-21
4.830028e-26
1.037979e-30
4.423224e-39
1.211068e-38
2.51635e-41
4.837188e-44
5.198024e-47
9.129634e-50
5.98022e-54
4.693237e-57
1.344009e-60
2.017808e-64
6.863116e-70
0.143358
0
1.669568e-11
5.40363e-16
2.724213e-21
2.146534e-26
1.222159e-30
2.182257e-34
5.160624e-37
1.20939e-39
2.45608e-42
2.919154e-45
4.810044e-48
3.01845e-52
1.968507e-55
6.251106e-59
5.896124e-63
2.748888e-68
0.2491464
0
5.350357e-11
2.933398e-16
2.126021e-22
6.434499e-26
1.01645e-29
7.877789e-33
2.089286e-35
5.175013e-38
1.116792e-40
1.489314e-43
1.968483e-46
1.415217e-50
6.395678e-54
1.705767e-57
2.111941e-61
9.47727e-67
0.3852221
2.621167e-05
9.559948e-11
2.288902e-17
6.519233e-22
3.590342e-25
1.987376e-28
2.80627e-31
7.504799e-34
1.93512e-36
4.548637e-39
6.62099e-42
6.43725e-45
5.754348e-49
7.313632e-53
4.317042e-56
4.664872e-60
2.097641e-65
0.4994545
4.998981e-05
3.247393e-11
1.737308e-17
3.619818e-21
4.917189e-24
5.717362e-27
9.193227e-30
2.348836e-32
6.187134e-35
1.646692e-37
1.110461e-40
1.859598e-43
1.853562e-47
1.479595e-52
8.048076e-55
9.234439e-59
3.392194e-64
0.5298651
0.0002296551
9.347829e-11
2.355225e-17
7.408157e-20
1.222512e-22
1.653596e-25
2.674946e-28
6.330842e-31
1.64489e-33
5.124596e-36
1.435025e-39
5.468275e-42
4.870349e-46
0
1.276639e-53
1.305483e-57
5.435261e-63
0.5339284
0.0001568321
0
4.122997e-16
1.789742e-18
2.848801e-21
4.279382e-24
6.809336e-27
1.463844e-29
3.531663e-32
1.218922e-34
3.300608e-38
1.564862e-40
1.215324e-44
5.311659e-49
1.392756e-52
1.242073e-56
1.102369e-62
0.535005
5.393628e-05
0
8.370942e-15
3.896003e-17
5.742082e-20
9.580075e-23
1.496505e-25
2.9372e-28
6.056212e-31
1.931896e-33
5.350445e-37
4.224073e-39
2.93995e-43
8.102886e-48
9.377673e-52
1.885231e-56
0
0.5392339
0.001127595
1.917275e-10
1.60008e-13
7.37872e-16
1.164359e-18
1.811849e-21
2.789267e-24
5.305615e-27
8.720229e-30
5.706602e-33
7.820726e-36
9.928571e-38
2.845132e-42
6.919498e-47
1.092381e-51
0
1.148263e-60
0.5406265
0.001206716
3.044517e-09
2.94839e-12
1.245254e-14
1.965357e-17
2.803962e-20
4.312218e-23
9.00394e-26
1.058895e-28
3.23482e-32
1.160233e-34
1.888044e-36
1.500239e-41
1.692661e-46
0
4.515425e-55
0
0.5420317
0.001895958
3.143378e-08
6.168858e-11
1.907751e-13
2.712901e-16
3.418558e-19
5.515342e-22
1.078807e-24
3.75316e-28
4.547836e-31
1.362421e-33
6.202137e-36
3.979734e-41
0
7.399383e-50
0
0
0.5466047
0.00347458
8.279908e-07
1.571428e-09
2.593916e-12
3.337672e-15
3.153271e-18
6.14764e-21
7.748123e-24
0
2.014825e-30
7.267506e-33
5.488726e-36
2.667365e-40
3.131004e-45
0
7.61773e-54
0
0.5550107
0.02067178
1.649794e-05
4.442858e-08
2.974257e-11
4.323762e-14
1.998829e-17
3.410048e-20
3.40527e-24
1.077344e-26
2.052091e-30
2.540255e-33
1.547167e-36
9.891927e-40
3.837123e-43
4.55684e-47
1.743326e-51
6.452425e-56
0.5606354
0.0661602
0.0001361941
6.247494e-07
3.269189e-10
3.797555e-13
3.252644e-17
6.088327e-20
3.015557e-23
2.487763e-27
0
1.03446e-33
2.074498e-36
6.280974e-38
3.964996e-41
4.562647e-45
3.691442e-49
4.699741e-54
0.5632035
0.2186059
0.001024279
5.770962e-06
1.811611e-23
0
2.746048e-31
1.971398e-36
1.563107e-34
4.712716e-36
2.635587e-39
3.853819e-43
2.996924e-47
3.049359e-51
0.5634589
0.5351253
3.49763e-30
4.87201e-33
9.556763e-33
3.381049e-34
1.338949e-37
2.645969e-41
1.324099e-45
5.056288e-49
0.5648851
4.18883e-31
5.244639e-31
1.689801e-32
5.457529e-36
1.448491e-39
1.547337e-43
6.756693e-47
2.153785e-29
8.349886e-31
1.55086e-34
5.038805e-38
8.595955e-42
5.170707e-45
3.103136e-29
3.070054e-33
1.605808e-36
5.394911e-40
2.744574e-43
1.626038e-27
4.015935e-32
3.90166e-35
3.659716e-38
1.182256e-41
1.907081e-26
2.801377e-31
8.00852e-34
8.21363e-37
3.709943e-40
3.423189e-26
1.582163e-30
8.752433e-33
1.476606e-35
1.019347e-38
0
2.190015e-30
4.958621e-32
1.396224e-34
1.629621e-37
0
8.11596e-29
5.181885e-31
1.255454e-33
1.606463e-36
0
0
2.150612e-27
7.708224e-30
1.44463e-32
2.299627e-35
0.5593676
0
2.637273e-24
1.79752e-26
7.07175e-29
1.736472e-31
1.2107e-34
0.5582805
0.5443234
0
9.693944e-22
9.169079e-24
5.026491e-26
1.144746e-28
1.281746e-31
8.932027e-35
0.5611178
0.2843611
0.002477096
0
2.724026e-18
9.103045e-20
9.061761e-22
4.173289e-24
2.027875e-26
1.32159e-29
4.161995e-32
1.333296e-35
0.5599478
0.1267638
0.0007194372
1.250437e-05
3.635893e-07
9.073431e-09
1.427839e-10
1.740867e-12
4.409587e-14
4.696353e-16
5.00267e-18
2.279254e-20
9.065631e-23
9.947859e-26
5.373013e-29
1.895254e-31
3.624411e-35
5.399642e-38
0.5519345
0.03151365
3.990204e-05
2.915604e-07
5.044408e-09
8.850101e-11
1.065201e-12
1.195776e-14
1.067362e-16
1.009357e-18
9.268345e-21
2.694803e-23
7.828545e-26
3.754196e-28
2.916991e-31
1.022368e-33
1.521089e-39
6.183671e-41
0.552916
0.008696508
1.810707e-06
1.497154e-08
9.355277e-11
1.088661e-12
1.007775e-14
1.06747e-16
9.264955e-19
3.610287e-21
3.062345e-23
1.428873e-25
2.424084e-28
2.000541e-31
7.968289e-34
2.749306e-38
8.173014e-41
5.061177e-44
0.5470155
0.00225249
1.429918e-06
3.494188e-09
2.735074e-11
3.267769e-13
2.368724e-15
1.57334e-17
9.638059e-20
5.616906e-22
1.226796e-24
6.482205e-27
1.026419e-29
3.531171e-32
3.229599e-35
4.981668e-38
1.503007e-41
1.042437e-44
0.5406376
0.001807477
2.092e-06
8.985304e-09
4.750419e-11
2.057746e-13
1.044612e-15
4.979869e-18
2.283412e-20
9.627126e-23
2.401953e-25
6.798193e-28
0
6.290313e-34
1.268229e-36
1.078544e-39
1.33949e-42
1.101311e-46
0.539671
0.001110388
5.972279e-07
1.882728e-09
1.038326e-11
5.99598e-14
3.612079e-16
1.830284e-18
8.781618e-21
3.719616e-23
1.403926e-25
3.668499e-28
8.053424e-31
8.481554e-35
3.980708e-37
5.627857e-40
1.417342e-43
1.423662e-46
0.537359
0.0009523668
1.443537e-06
6.456332e-09
3.878284e-11
1.656013e-13
5.934344e-16
2.007552e-18
7.065323e-21
2.150377e-23
5.974406e-26
1.966937e-29
1.200045e-31
0
1.448472e-37
2.379528e-40