/*--------------------------------*- C++ -*----------------------------------*\
| =========                 |                                                 |
| \\      /  F ield         | OpenFOAM: The Open Source CFD Toolbox           |
|  \\    /   O peration     | Version:  2206                                  |
|   \\  /    A nd           | Website:  www.openfoam.com                      |
|    \\/     M anipulation  |                                                 |
\*---------------------------------------------------------------------------*/
FoamFile
{
    version     2.0;
    format      ascii;
    arch        "LSB;label=32;scalar=64";
    class       volScalarField;
    location    "2.6";
    object      ddt0(omega.b);
}
// * * * * * * * * * * * * * * * * * * * * * * * * * * * * * * * * * * * * * //

dimensions      [0 0 -2 0 0 0 0];

internalField   nonuniform List<scalar> 
13078
(
6.694346e-09
-0.03683599
-0.09105881
-0.0930478
-0.09336947
-0.09364225
-0.09394994
1.525481e-09
-0.04507251
-0.09144803
-0.0930913
-0.09336715
-0.09363751
-0.09394422
1.740058e-08
-0.05303473
-0.0917058
-0.09310174
-0.09336371
-0.09363353
-0.09393916
7.816239e-09
-0.05648361
-0.09181846
-0.09310463
-0.09336246
-0.09363054
-0.09393467
6.67487e-09
-0.05776543
-0.09186858
-0.0931108
-0.09336227
-0.09362813
-0.09393055
3.993016e-09
-0.05832328
-0.09189651
-0.09311594
-0.09336495
-0.09362589
-0.09392648
-2.152483e-09
-0.0586373
-0.0919009
-0.09311785
-0.09336706
-0.09362694
-0.09392252
-9.740301e-09
-0.05883935
-0.09189621
-0.09311814
-0.09336814
-0.09362785
-0.09392257
-1.817276e-08
-0.05899602
-0.09190371
-0.09311841
-0.0933685
-0.09362812
-0.09392265
-2.759897e-08
-0.05911847
-0.09190833
-0.09311807
-0.09336827
-0.09362792
-0.09392234
-3.830161e-08
-0.05922432
-0.09191157
-0.09311737
-0.09336764
-0.09362735
-0.09392167
-5.077219e-08
-0.05932428
-0.0919141
-0.09311644
-0.09336677
-0.0936265
-0.09392076
-6.576202e-08
-0.05942675
-0.09191632
-0.09311536
-0.09336574
-0.09362547
-0.09391964
-8.401189e-08
-0.05953399
-0.09191855
-0.09311412
-0.0933644
-0.09362422
-0.09391831
-1.062645e-07
-0.05965418
-0.09192001
-0.09311143
-0.09336133
-0.09362272
-0.09391688
-1.337297e-07
-0.05978922
-0.0919215
-0.09310808
-0.09335846
-0.09362117
-0.09391529
-1.67957e-07
-0.05994406
-0.09192462
-0.09310658
-0.09335683
-0.09361958
-0.09391359
-2.109255e-07
-0.0601222
-0.09192823
-0.09310504
-0.09335515
-0.09361789
-0.09391176
-2.652189e-07
-0.06032716
-0.0919325
-0.09310343
-0.0933533
-0.09361581
-0.09390977
-3.340331e-07
-0.06056348
-0.09193755
-0.09310156
-0.09334966
-0.09361121
-0.09390745
-4.214848e-07
-0.06083498
-0.09194351
-0.09309954
-0.09334495
-0.09360683
-0.09390501
-5.328273e-07
-0.06114745
-0.09195062
-0.0930976
-0.09334256
-0.09360437
-0.09390258
-6.747463e-07
-0.06150619
-0.09195889
-0.09309546
-0.09334011
-0.09360182
-0.09389955
-8.55708e-07
-0.06191702
-0.09196856
-0.09309319
-0.09333714
-0.09359663
-0.09389317
-1.086374e-06
-0.06238656
-0.09197979
-0.09309075
-0.09333404
-0.09358931
-0.09388674
-1.380106e-06
-0.06292233
-0.09199269
-0.0930881
-0.09333095
-0.09358602
-0.09388307
-1.753573e-06
-0.06353236
-0.09200763
-0.09308526
-0.09332752
-0.09358241
-0.09388017
-2.228049e-06
-0.06417575
-0.09202404
-0.09308223
-0.09332379
-0.09357768
-0.09387239
-2.829937e-06
-0.06496646
-0.09204439
-0.09307905
-0.09331981
-0.09357285
-0.09385887
-3.604731e-06
-0.06505648
-0.09205589
-0.09307551
-0.09331558
-0.09356835
-0.09385487
-4.607791e-06
-0.06654677
-0.09208668
-0.09307149
-0.09331095
-0.09356298
-0.09384684
-5.824852e-06
-0.06721424
-0.09210443
-0.09306521
-0.09330508
-0.09355727
-0.09383958
-7.336714e-06
-0.06794254
-0.09211067
-0.09306987
-0.09329754
-0.09355102
-0.09383273
-9.193396e-06
-0.06906111
-0.09210464
-0.09307146
-0.09328983
-0.09354255
-0.09382491
-1.146099e-05
-0.07015071
-0.09213677
-0.09306919
-0.09331519
-0.09353497
-0.09381868
-1.420071e-05
-0.0710182
-0.09217188
-0.09305314
-0.09332156
-0.09357394
-0.09382803
-1.746727e-05
-0.07155121
-0.09221699
-0.09308986
-0.09332375
-0.09361741
-0.09385593
-2.129492e-05
-0.07162291
-0.09226886
-0.09313955
-0.09337315
-0.09364527
-0.09390771
-2.569348e-05
-0.07089835
-0.09231914
-0.09319478
-0.09341735
-0.09364734
-0.09393042
-3.078559e-05
-0.06774016
-0.09233101
-0.09323272
-0.09346199
-0.09368604
-0.09396286
-3.664677e-05
-0.06771489
-0.09226758
-0.09325513
-0.09348032
-0.09369874
-0.09395032
-4.241933e-05
-0.06523232
-0.09218207
-0.0932354
-0.09344377
-0.09370564
-0.09414334
-4.811005e-05
-0.06188268
-0.09192826
-0.09316053
-0.09344563
-0.09383967
-0.09446907
-5.342338e-05
-0.05715319
-0.09162909
-0.09307262
-0.09352826
-0.09410486
-0.0947553
-5.823841e-05
-0.04926603
-0.09126859
-0.09310057
-0.093636
-0.09432362
-0.09502122
-6.254726e-05
-0.04349546
-0.09083131
-0.09317833
-0.09374696
-0.09440526
-0.09514253
-6.468914e-05
-0.03484487
-0.09050102
-0.09323153
-0.09377361
-0.09439349
-0.09504183
0.0003667518
-0.02578621
-0.09008215
-0.09323346
-0.09377962
-0.09430636
-0.09484307
0.005629619
-0.01599138
-0.08961679
-0.09317923
-0.09370129
-0.09422959
-0.09468365
0.01901308
-0.006519361
-0.0892066
-0.09311838
-0.09363086
-0.0940297
-0.09439312
0.04200123
0.005155397
-0.088757
-0.09304124
-0.09349379
-0.09377874
-0.09402028
0.07433136
0.01655585
-0.08842505
-0.09311487
-0.09344992
-0.09358276
-0.09371169
0.1037037
0.02520522
-0.08780585
-0.092858
-0.09325444
-0.09343766
-0.09355962
0.1249516
0.02853301
-0.08758352
-0.09267009
-0.09303923
-0.09321774
-0.09332187
0.1403017
0.03013106
-0.08745276
-0.09251926
-0.0928662
-0.09305366
-0.09339568
0.1536952
0.03362958
-0.08721343
-0.09232903
-0.09266355
-0.09286791
-0.09332951
0.1543086
0.03374503
-0.08707985
-0.09212346
-0.09250707
-0.09276155
-0.09318936
0.1410759
0.02923389
-0.08731397
-0.09217065
-0.09255267
-0.09278051
-0.09310235
0.1257525
0.02579441
-0.08749657
-0.09218789
-0.09254411
-0.09272473
-0.09284208
0.1050443
0.0203363
-0.0876868
-0.0921164
-0.09242065
-0.09262071
-0.09279045
0.07598306
0.009275492
-0.08827974
-0.09213712
-0.09248045
-0.09269755
-0.09293317
0.04365367
-0.002921509
-0.08877426
-0.09221711
-0.09252322
-0.09270427
-0.09285057
0.01994023
-0.018207
-0.08935264
-0.09217007
-0.0924727
-0.09269141
-0.09289469
0.006205198
-0.02907733
-0.08981381
-0.09217884
-0.09240113
-0.09271674
-0.09300476
0.0004250997
-0.03961972
-0.09032029
-0.09223694
-0.09249525
-0.09289177
-0.09315487
-6.161501e-05
-0.0487979
-0.0907891
-0.09237774
-0.09258963
-0.09289244
-0.09321166
-6.305687e-05
-0.05679945
-0.0911565
-0.09248367
-0.09265745
-0.0929098
-0.09341356
-6.171013e-05
-0.06105365
-0.09152825
-0.09258504
-0.09273541
-0.09301317
-0.09339188
-5.907145e-05
-0.06631635
-0.09177863
-0.09269345
-0.09288334
-0.09304793
-0.09331343
-5.524663e-05
-0.06824991
-0.09196319
-0.09282251
-0.09298661
-0.09311888
-0.09333667
-5.037483e-05
-0.06868823
-0.09210325
-0.09294369
-0.09307653
-0.09326735
-0.09343225
-4.465694e-05
-0.06848978
-0.09213066
-0.0930135
-0.09319341
-0.09336505
-0.09355575
-3.779314e-05
-0.0671626
-0.09209671
-0.09305782
-0.09325721
-0.09344476
-0.09371881
-3.149914e-05
-0.0672171
-0.09204513
-0.09305636
-0.09326339
-0.09348569
-0.09379769
-2.606226e-05
-0.06638258
-0.09199726
-0.09303702
-0.09325676
-0.09353907
-0.09380875
-2.136267e-05
-0.06542998
-0.09195329
-0.0930198
-0.09326379
-0.09354263
-0.09378114
-1.737778e-05
-0.06450508
-0.09191609
-0.09301659
-0.0932834
-0.09351224
-0.09378702
-1.401235e-05
-0.06341919
-0.09188944
-0.09304409
-0.09328652
-0.09351588
-0.09380155
-1.127149e-05
-0.06275025
-0.09187289
-0.09305373
-0.09327904
-0.09353167
-0.09381531
-9.042666e-06
-0.0620195
-0.09189764
-0.09305681
-0.0932901
-0.09354337
-0.09382654
-7.225994e-06
-0.0618629
-0.09192345
-0.09305738
-0.09329994
-0.09355213
-0.09383559
-5.759958e-06
-0.06172423
-0.09191635
-0.0930652
-0.09330748
-0.09355964
-0.09384441
-4.535839e-06
-0.06105323
-0.0919037
-0.09307073
-0.09331353
-0.09356643
-0.09385339
-3.59092e-06
-0.06118694
-0.09190831
-0.09307557
-0.09331884
-0.09357204
-0.09385888
-2.856725e-06
-0.06083809
-0.0919035
-0.09307968
-0.09332357
-0.09357763
-0.09387222
-2.270816e-06
-0.06058272
-0.0919013
-0.09308344
-0.09332779
-0.09358275
-0.09388066
-1.777844e-06
-0.06033357
-0.09189913
-0.0930868
-0.09333153
-0.09358674
-0.09388412
-1.387824e-06
-0.06011922
-0.09189764
-0.09308983
-0.09333485
-0.09359041
-0.09388805
-1.083232e-06
-0.05993373
-0.09189655
-0.09309251
-0.09333806
-0.09359756
-0.09389444
-8.457251e-07
-0.05977287
-0.09189581
-0.09309498
-0.09334104
-0.09360288
-0.09390109
-6.607051e-07
-0.05963352
-0.0918954
-0.09309725
-0.09334348
-0.09360548
-0.09390404
-5.167457e-07
-0.05951324
-0.09189521
-0.0930993
-0.09334591
-0.09360794
-0.09390644
-4.044834e-07
-0.05941006
-0.09189534
-0.09310137
-0.09335046
-0.0936122
-0.09390884
-3.167457e-07
-0.05932143
-0.09189565
-0.09310328
-0.09335407
-0.09361684
-0.09391109
-2.481412e-07
-0.05924622
-0.09189613
-0.09310487
-0.09335584
-0.0936188
-0.09391296
-1.942595e-07
-0.05918238
-0.09189669
-0.0931064
-0.09335743
-0.09362038
-0.09391468
-1.518727e-07
-0.05912868
-0.09189729
-0.09310793
-0.093359
-0.0936219
-0.09391631
-1.181398e-07
-0.05908362
-0.09189914
-0.09311123
-0.09336175
-0.0936234
-0.09391785
-9.108944e-08
-0.05904465
-0.09190073
-0.09311394
-0.09336481
-0.09362487
-0.09391923
-6.937056e-08
-0.0590103
-0.09190132
-0.09311517
-0.0933661
-0.09362609
-0.09392053
-5.186065e-08
-0.05897793
-0.09190177
-0.09311628
-0.09336715
-0.09362714
-0.09392165
-3.787368e-08
-0.05894496
-0.09190193
-0.09311729
-0.09336809
-0.09362807
-0.09392263
-2.627457e-08
-0.05890718
-0.09190155
-0.09311819
-0.09336888
-0.09362881
-0.09392344
-1.647083e-08
-0.05885876
-0.09190022
-0.09311888
-0.09336942
-0.09362928
-0.09392398
-8.40373e-09
-0.05878978
-0.09189686
-0.09311924
-0.09336957
-0.09362944
-0.09392421
-1.613901e-09
-0.05870204
-0.09190709
-0.09312001
-0.09336928
-0.09362909
-0.0939245
3.240116e-09
-0.05855695
-0.09191078
-0.0931198
-0.09336821
-0.09362863
-0.09392881
4.806975e-09
-0.05830424
-0.09189603
-0.09311689
-0.09336654
-0.0936314
-0.09393311
3.829931e-09
-0.05785231
-0.09187113
-0.09311266
-0.09336734
-0.09363396
-0.09393722
3.457299e-09
-0.05674485
-0.09182982
-0.09311027
-0.09336789
-0.09363646
-0.09394132
1.115428e-08
-0.053999
-0.09177261
-0.09310803
-0.09336941
-0.09363942
-0.09394572
-1.767085e-09
-0.0486246
-0.09158742
-0.09310301
-0.09337328
-0.09364353
-0.09395075
-0.09431026
-0.09476313
-0.0953687
-0.09594606
-0.09697239
-0.09858257
-0.1070431
-0.09430318
-0.09475362
-0.09535602
-0.09593059
-0.0969536
-0.09852793
-0.1004159
-0.09429663
-0.09474471
-0.09534407
-0.09613121
-0.09693561
-0.09850137
-0.1002201
-0.0942905
-0.09473601
-0.09533176
-0.0959007
-0.09691614
-0.09847532
-0.1001159
-0.09428482
-0.09472753
-0.09531997
-0.09588558
-0.0968978
-0.09844947
-0.1001829
-0.09427915
-0.09471911
-0.09530816
-0.09587081
-0.09687935
-0.09842376
-0.1003549
-0.09427343
-0.09471061
-0.09529631
-0.0958563
-0.09687407
-0.09839815
-0.1005457
-0.09426787
-0.09470199
-0.09528438
-0.09584197
-0.09686905
-0.09837295
-0.1007741
-0.09426707
-0.09469374
-0.09527292
-0.09582715
-0.09685413
-0.09835017
-0.1009542
-0.09426646
-0.0946919
-0.09526195
-0.09581224
-0.09683913
-0.09832754
-0.1011541
-0.09426557
-0.09469048
-0.09525903
-0.09579751
-0.09682402
-0.09830495
-0.1013682
-0.09426441
-0.09468875
-0.09525665
-0.09579405
-0.09680871
-0.09828255
-0.1015285
-0.09426304
-0.09468684
-0.09525401
-0.09579078
-0.0968053
-0.09825963
-0.1016588
-0.09426148
-0.09468474
-0.09525117
-0.09578724
-0.0968015
-0.09825363
-0.1018254
-0.09425978
-0.09468243
-0.09524811
-0.09578348
-0.09679742
-0.09824768
-0.1008661
-0.09425792
-0.09467994
-0.09524485
-0.09577947
-0.09679301
-0.098242
-0.1011611
-0.09425593
-0.09467726
-0.0952414
-0.09577517
-0.09678711
-0.09823479
-0.101149
-0.09425379
-0.09467448
-0.09523768
-0.09576906
-0.09674135
-0.09822706
-0.1011065
-0.0942515
-0.09467162
-0.09523378
-0.09576431
-0.09673416
-0.09821871
-0.1010712
-0.09424906
-0.09466855
-0.09522961
-0.09575921
-0.09672748
-0.09820975
-0.101035
-0.09424648
-0.09466528
-0.0952252
-0.09575376
-0.09672037
-0.09820008
-0.1010065
-0.09424368
-0.09466179
-0.09522025
-0.0957479
-0.09671284
-0.09818926
-0.1010162
-0.09424067
-0.09465811
-0.09521499
-0.09574484
-0.09670382
-0.09817741
-0.1010257
-0.09423711
-0.09465422
-0.09520934
-0.09593665
-0.09666221
-0.09816123
-0.1010388
-0.09423337
-0.09464998
-0.09520345
-0.09572768
-0.09663577
-0.09814628
-0.101055
-0.09422955
-0.0946455
-0.09520023
-0.0957203
-0.09662499
-0.09813115
-0.1010734
-0.09422458
-0.09464038
-0.09519209
-0.09571288
-0.09661384
-0.09811264
-0.1010962
-0.09421375
-0.09463314
-0.09519414
-0.09570469
-0.09659946
-0.09802124
-0.1011137
-0.094204
-0.09451567
-0.09502245
-0.09570005
-0.09658574
-0.0979818
-0.1011319
-0.09421117
-0.09451825
-0.09502346
-0.09568755
-0.0965727
-0.09795579
-0.1011452
-0.09418571
-0.09451529
-0.0950164
-0.09567817
-0.09655881
-0.09788352
-0.1011725
-0.09416327
-0.09447109
-0.09500734
-0.09566771
-0.09654256
-0.09780895
-0.1011746
-0.09415537
-0.09449171
-0.09498451
-0.09565456
-0.09652277
-0.0977818
-0.1012345
-0.09414362
-0.09447201
-0.09496621
-0.09563598
-0.09649792
-0.09775018
-0.1009654
-0.09413229
-0.09447561
-0.09497338
-0.09560834
-0.09648601
-0.09779778
-0.1003774
-0.09413924
-0.09447138
-0.09488425
-0.09559436
-0.09650705
-0.09789498
-0.09935116
-0.09415752
-0.0944524
-0.09487844
-0.09552537
-0.09645924
-0.09783656
-0.1004903
-0.09415837
-0.09442824
-0.09484661
-0.0954547
-0.09633906
-0.0976525
-0.09962683
-0.09416028
-0.09441437
-0.09481409
-0.09538174
-0.09639419
-0.0980455
-0.09881138
-0.09416832
-0.09444722
-0.09498953
-0.09585784
-0.09686525
-0.09852931
-0.1008692
-0.09437852
-0.09469418
-0.09562608
-0.0963903
-0.09717333
-0.09852047
-0.1006362
-0.09477817
-0.09524324
-0.09596486
-0.09661571
-0.0974535
-0.0982784
-0.10141
-0.0952205
-0.09573883
-0.09618107
-0.09682601
-0.09773661
-0.09868349
-0.1012737
-0.09558971
-0.09596637
-0.09641296
-0.09685055
-0.09820457
-0.09917307
-0.1019906
-0.09577873
-0.09641004
-0.09644648
-0.09715594
-0.09864443
-0.09954659
-0.1026945
-0.09576509
-0.09623772
-0.09689725
-0.09718997
-0.0988597
-0.09941469
-0.1031015
-0.09577699
-0.0962573
-0.09691395
-0.09752238
-0.09861322
-0.09928796
-0.1018079
-0.09552251
-0.09591348
-0.09676748
-0.09756699
-0.0989465
-0.09923514
-0.1025829
-0.09518893
-0.0956351
-0.09647885
-0.09787666
-0.09869544
-0.09923502
-0.1014401
-0.09479885
-0.09551314
-0.09665359
-0.09836819
-0.09850206
-0.09929427
-0.1013799
-0.09432248
-0.09543877
-0.09660518
-0.09785569
-0.09842796
-0.09920524
-0.1006606
-0.09410913
-0.09499056
-0.09688912
-0.0974721
-0.09817051
-0.09904373
-0.1004873
-0.09396759
-0.09465895
-0.09682103
-0.0971201
-0.09766664
-0.09872536
-0.1002392
-0.09408598
-0.09497638
-0.09607735
-0.09661427
-0.09695199
-0.09772208
-0.09992659
-0.0941048
-0.0949822
-0.09610782
-0.09646514
-0.09685947
-0.09699441
-0.09769101
-0.09419652
-0.09498573
-0.09613806
-0.09633946
-0.09626528
-0.09629317
-0.09398493
-0.09522789
-0.09560611
-0.09600802
-0.09640854
-0.0959874
-0.09370322
-0.0947996
-0.09537348
-0.09604567
-0.09624407
-0.09634369
-0.09348545
-0.09451897
-0.09544366
-0.09583053
-0.0961685
-0.09690966
-0.09807735
-0.09334482
-0.09416743
-0.09545271
-0.0962307
-0.09667638
-0.09725661
-0.09944829
-0.09343852
-0.09410978
-0.09534438
-0.0959149
-0.09687651
-0.09761254
-0.09832359
-0.09357521
-0.09433942
-0.09568402
-0.09619457
-0.09688712
-0.09757488
-0.09816819
-0.0935384
-0.09405432
-0.09559124
-0.09602068
-0.09654969
-0.09797194
-0.09931428
-0.09371194
-0.09450715
-0.09540415
-0.09593414
-0.09645451
-0.09741497
-0.09945518
-0.09378605
-0.09445443
-0.09532438
-0.095736
-0.09631282
-0.09699463
-0.1008484
-0.0937669
-0.094535
-0.09522534
-0.09567092
-0.0961111
-0.09711172
-0.1003094
-0.0938379
-0.0943393
-0.0952303
-0.09556053
-0.09610738
-0.09695604
-0.09997233
-0.0938523
-0.09450009
-0.09516603
-0.09558169
-0.09611377
-0.09718159
-0.09997823
-0.09378958
-0.09444976
-0.09511092
-0.09563368
-0.09617717
-0.09714699
-0.09926923
-0.09369691
-0.09430533
-0.09513186
-0.09555559
-0.09628532
-0.09707298
-0.0991544
-0.09364885
-0.09411384
-0.09496012
-0.09564403
-0.09625917
-0.09700999
-0.09912828
-0.09379954
-0.09404845
-0.09470391
-0.09570017
-0.09634336
-0.09731941
-0.1002417
-0.09395531
-0.0942293
-0.09460871
-0.0953699
-0.09644192
-0.09750386
-0.1001358
-0.09402466
-0.09437842
-0.09474717
-0.09535506
-0.09647941
-0.09772667
-0.09890967
-0.09407617
-0.09447021
-0.09484444
-0.09544192
-0.09648006
-0.09791661
-0.09820975
-0.09409775
-0.09450205
-0.09488679
-0.09570052
-0.09651627
-0.09787837
-0.1000083
-0.09410672
-0.09450188
-0.09489375
-0.09561614
-0.0965144
-0.09783282
-0.1006574
-0.09412116
-0.09449892
-0.09490281
-0.09560369
-0.09649946
-0.09776141
-0.1005415
-0.09413901
-0.0944856
-0.09497496
-0.09563974
-0.09651354
-0.0977682
-0.1010321
-0.09415262
-0.09452095
-0.09498142
-0.09565511
-0.09653303
-0.09782116
-0.1016844
-0.09416212
-0.09452131
-0.09499796
-0.09566779
-0.09655079
-0.09783311
-0.1017399
-0.09418385
-0.09450828
-0.0950152
-0.09567963
-0.09656654
-0.0978683
-0.1016161
-0.09420927
-0.09453336
-0.09502393
-0.09569042
-0.09658088
-0.09800593
-0.1015164
-0.09420509
-0.09456429
-0.09503215
-0.0956983
-0.09659434
-0.09800509
-0.101401
-0.09421534
-0.09463706
-0.09519888
-0.09571114
-0.09660676
-0.09802568
-0.1012936
-0.09422653
-0.09464399
-0.09519815
-0.09572289
-0.0966222
-0.09810687
-0.1011986
-0.0942316
-0.09464908
-0.09520438
-0.09572857
-0.09663297
-0.09815126
-0.1011114
-0.09423549
-0.09465349
-0.09521012
-0.09573423
-0.09664341
-0.0981649
-0.101038
-0.09423925
-0.09465761
-0.09521554
-0.09573991
-0.09665366
-0.09817731
-0.1009539
-0.0942428
-0.0946614
-0.09522053
-0.09574546
-0.09669988
-0.09819191
-0.1009069
-0.09424575
-0.09466495
-0.09522523
-0.09575086
-0.0967192
-0.09820357
-0.1008442
-0.09424845
-0.09466829
-0.09522961
-0.09575598
-0.09672618
-0.09821309
-0.1008029
-0.09425095
-0.09467135
-0.0952337
-0.09576092
-0.09673274
-0.09822179
-0.1007597
-0.09425329
-0.09467422
-0.09523756
-0.09576557
-0.09673884
-0.09822972
-0.1007433
-0.09425544
-0.0946769
-0.09524114
-0.09576999
-0.09674457
-0.09823694
-0.1007823
-0.09425746
-0.0946795
-0.09524457
-0.09577515
-0.09676827
-0.0982437
-0.1008166
-0.09425934
-0.094682
-0.09524777
-0.09577976
-0.09679676
-0.09824993
-0.1008425
-0.09426111
-0.09468433
-0.0952508
-0.09578356
-0.09680071
-0.09825552
-0.1007416
-0.09426274
-0.09468652
-0.09525365
-0.09578714
-0.09680446
-0.09826055
-0.1012154
-0.09426425
-0.09468851
-0.09525632
-0.09579047
-0.09680794
-0.09826599
-0.1015038
-0.09426559
-0.09469036
-0.09525879
-0.09579365
-0.09681121
-0.09827966
-0.1014144
-0.09426678
-0.09469206
-0.09526107
-0.09579656
-0.0968202
-0.09830145
-0.1013209
-0.09426777
-0.0946935
-0.09526391
-0.09580558
-0.09683491
-0.0983232
-0.1012105
-0.09426854
-0.09469539
-0.09527483
-0.09582034
-0.09684967
-0.09834503
-0.1010468
-0.09426951
-0.0947037
-0.09528625
-0.09583515
-0.09686433
-0.09836712
-0.1008885
-0.09427526
-0.09471239
-0.09529814
-0.09584986
-0.0968783
-0.09839037
-0.1007536
-0.09428117
-0.09472093
-0.09530994
-0.09586371
-0.09687282
-0.09841517
-0.1006064
-0.09428691
-0.09472933
-0.09532165
-0.09587843
-0.09689046
-0.09844022
-0.1004759
-0.09429249
-0.09473764
-0.09533332
-0.09589314
-0.09690858
-0.09846545
-0.10046
-0.09429827
-0.09474601
-0.09534502
-0.095908
-0.09692675
-0.09849075
-0.1005906
-0.0943043
-0.0947545
-0.09535686
-0.09592293
-0.096945
-0.09851633
-0.1008088
-0.09431076
-0.09476345
-0.09536887
-0.09593805
-0.09696327
-0.09855066
-0.1046559
-0.6860667
-0.8117357
-0.8623409
-0.8726059
-0.8730223
-0.8730202
-0.8730216
-0.8730216
-0.8730216
-0.8730215
-0.8730213
-0.8730211
-0.8730209
-0.8730206
-0.8730206
-0.8730204
-0.8730202
-0.8730199
-0.9413648
-0.6929804
-0.8760126
-0.8730983
-0.8730332
-0.873042
-0.8730409
-0.8730409
-0.8730411
-0.8730412
-0.8730413
-0.8730414
-0.8730416
-0.8730418
-0.8730416
-0.8730418
-0.8730421
-0.8730423
-0.9465498
-0.9291382
-0.8773654
-0.873138
-0.8730177
-0.8730206
-0.8730198
-0.8730199
-0.8730199
-0.8730198
-0.8730198
-0.8730198
-0.8730198
-0.8730198
-0.8730198
-0.8730196
-0.8730197
-0.8730197
-0.9530599
-0.7728265
-0.8716939
-0.873016
-0.8730209
-0.873027
-0.8730271
-0.873027
-0.8730271
-0.8730271
-0.873027
-0.873027
-0.8730269
-0.8730269
-0.8730266
-0.8730265
-0.8730268
-0.8730267
-0.9571941
-0.757972
-0.8721068
-0.8730182
-0.873022
-0.87303
-0.8730302
-0.8730301
-0.8730303
-0.8730303
-0.8730303
-0.8730303
-0.8730303
-0.8730303
-0.8730298
-0.8730299
-0.8730303
-0.8730303
-0.9541189
-0.777246
-0.8728346
-0.8730255
-0.8730215
-0.8730293
-0.8730294
-0.8730294
-0.8730295
-0.8730295
-0.8730295
-0.8730295
-0.8730295
-0.8730295
-0.8730288
-0.873029
-0.8730295
-0.8730296
-0.9525285
-0.7800499
-0.8730051
-0.873028
-0.8730222
-0.8730287
-0.8730289
-0.873029
-0.8730291
-0.8730291
-0.8730291
-0.8730291
-0.8730291
-0.8730291
-0.8730281
-0.8730283
-0.8730291
-0.8730291
-0.9428252
-0.7714897
-0.8730143
-0.8730272
-0.8730254
-0.8730284
-0.8730286
-0.8730289
-0.873029
-0.873029
-0.873029
-0.873029
-0.873029
-0.873029
-0.8730275
-0.8730278
-0.873029
-0.873029
-0.9369328
-0.7754023
-0.8730132
-0.8730251
-0.8730294
-0.8730279
-0.8730283
-0.8730286
-0.873029
-0.873029
-0.873029
-0.873029
-0.873029
-0.873029
-0.8730271
-0.8730275
-0.873029
-0.873029
-0.9295133
-0.7808821
-0.8729871
-0.8730226
-0.8730316
-0.873027
-0.873028
-0.8730283
-0.873029
-0.873029
-0.873029
-0.873029
-0.873029
-0.873029
-0.8730265
-0.8730271
-0.873029
-0.873029
-0.9192757
-0.7840967
-0.8728056
-0.8730173
-0.8730314
-0.8730264
-0.8730277
-0.8730282
-0.873029
-0.873029
-0.873029
-0.873029
-0.873029
-0.873029
-0.8730257
-0.8730266
-0.873029
-0.873029
-0.9049203
-0.7528446
-0.8720679
-0.8729663
-0.8730284
-0.8730259
-0.8730275
-0.8730282
-0.873029
-0.873029
-0.873029
-0.873029
-0.873029
-0.873029
-0.8730247
-0.873026
-0.873029
-0.873029
-0.8952866
-0.7442817
-0.8711646
-0.8727265
-0.8730139
-0.8730254
-0.8730274
-0.873028
-0.8730288
-0.873029
-0.873029
-0.873029
-0.873029
-0.873029
-0.8730235
-0.8730252
-0.873029
-0.873029
-0.8907097
-0.7760684
-0.8743222
-0.8723481
-0.8729486
-0.8730248
-0.8730273
-0.8730278
-0.8730286
-0.873029
-0.873029
-0.873029
-0.873029
-0.873029
-0.8730222
-0.8730244
-0.873029
-0.873029
-0.805235
-0.7839371
-0.876255
-0.8733444
-0.8728442
-0.8730194
-0.8730273
-0.8730277
-0.8730286
-0.873029
-0.873029
-0.873029
-0.873029
-0.873029
-0.8730213
-0.8730238
-0.873029
-0.873029
-0.8054764
-0.7390065
-0.8712967
-0.8741534
-0.8730854
-0.8730016
-0.8730271
-0.8730273
-0.873028
-0.873029
-0.873029
-0.873029
-0.873029
-0.8730289
-0.8730228
-0.873025
-0.873029
-0.873029
-0.789352
-0.7805863
-0.8742344
-0.8723953
-0.8732964
-0.8730071
-0.873025
-0.873027
-0.8730268
-0.8730289
-0.873029
-0.873029
-0.873029
-0.8730286
-0.8730293
-0.8730305
-0.873029
-0.873029
-0.7699537
-0.7747473
-0.8724553
-0.873487
-0.8729077
-0.8730427
-0.8730184
-0.8730266
-0.8730253
-0.8730289
-0.873029
-0.873029
-0.873029
-0.8730273
-0.8730324
-0.8730333
-0.873029
-0.873029
-0.7517407
-0.7633049
-0.8718944
-0.8727902
-0.873017
-0.8730747
-0.8730207
-0.8730235
-0.8730234
-0.8730289
-0.873029
-0.873029
-0.873029
-0.8730264
-0.8730273
-0.8730283
-0.873029
-0.873029
-0.7331222
-0.769211
-0.8733965
-0.8726835
-0.873023
-0.8729965
-0.8730535
-0.8730237
-0.8730225
-0.8730288
-0.873029
-0.873029
-0.873029
-0.8730277
-0.8730263
-0.8730277
-0.873029
-0.873029
-0.7144048
-0.7719651
-0.8734231
-0.8731551
-0.8728401
-0.87306
-0.8730155
-0.8730365
-0.8730215
-0.8730286
-0.8730289
-0.873029
-0.873029
-0.8730243
-0.8730226
-0.873028
-0.873029
-0.873029
-0.6978203
-0.7713655
-0.8731249
-0.8731002
-0.8728936
-0.8730095
-0.8730402
-0.8730249
-0.8730251
-0.8730289
-0.8730288
-0.8730289
-0.8730289
-0.8730158
-0.8730102
-0.8730262
-0.873029
-0.873029
-0.6823619
-0.772938
-0.8730256
-0.8729761
-0.8729328
-0.8730243
-0.8730154
-0.8730262
-0.8730108
-0.8730296
-0.8730291
-0.8730289
-0.8730285
-0.8729709
-0.8729389
-0.8730287
-0.873029
-0.8730287
-0.6670477
-0.7745642
-0.8729782
-0.8728746
-0.8728094
-0.8730286
-0.8730168
-0.8730293
-0.8730098
-0.873028
-0.8730291
-0.873029
-0.873028
-0.8729243
-0.8728027
-0.8730308
-0.873029
-0.8730269
-0.6520667
-0.7745901
-0.8729325
-0.8725411
-0.8724656
-0.8730213
-0.8730039
-0.8730176
-0.8729757
-0.8730296
-0.8730282
-0.8730289
-0.8730275
-0.8730214
-0.8731298
-0.8730308
-0.8730289
-0.8730174
-0.6376725
-0.7765788
-0.8728783
-0.8704255
-0.8704443
-0.8730331
-0.872977
-0.8729315
-0.872957
-0.8730295
-0.8730298
-0.8730285
-0.8730217
-0.8730166
-0.8729841
-0.8730299
-0.8730283
-0.8729836
-0.6223161
-0.7773019
-0.8726715
-0.8564345
-0.8563906
-0.8732148
-0.8729118
-0.8722656
-0.8728034
-0.8730476
-0.8730285
-0.8730291
-0.8730031
-0.8730715
-0.8731731
-0.8730296
-0.873026
-0.8729194
-0.6074393
-0.7743541
-0.8714816
-0.797326
-0.8025441
-0.873861
-0.8727212
-0.8692128
-0.8717072
-0.8731335
-0.8730293
-0.8730289
-0.8729813
-0.8729756
-0.8729297
-0.8730266
-0.8730163
-0.8729223
-0.592553
-0.7602458
-0.8660054
-0.7832459
-0.8408576
-0.8729244
-0.8724025
-0.8665215
-0.8689558
-0.8731861
-0.8730299
-0.8730285
-0.8729768
-0.872942
-0.8729566
-0.8730254
-0.8729736
-0.8731062
-0.5774313
-0.7200845
-0.8336087
-0.9605891
-0.9671337
-0.8660076
-0.8723904
-0.8803341
-0.8754883
-0.8727557
-0.8730229
-0.8730225
-0.8727665
-0.8726937
-0.8730322
-0.8730138
-0.8728604
-0.8729111
-0.5612486
-0.6794578
-0.7746461
-0.7236658
-0.6861726
-0.8484664
-0.8716751
-0.8748689
-0.8772967
-0.8727151
-0.8729988
-0.8730061
-0.872679
-0.8725678
-0.8729992
-0.87295
-0.8728485
-0.8729259
-0.5423962
-0.7944147
-0.8561283
-0.7381348
-0.8972656
-0.7990874
-0.8691834
-0.8705884
-0.8669817
-0.8722046
-0.8729154
-0.8729316
-0.8731437
-0.8737171
-0.8730233
-0.8727721
-0.8730403
-0.873211
-0.5259531
-0.7947186
-0.8804128
-1.05134
-0.8775445
-0.9385712
-0.8663327
-0.8721235
-0.8655291
-0.8732805
-0.8726085
-0.8724857
-0.872681
-0.8727381
-0.8729751
-0.8725381
-0.8725345
-0.8731077
-0.5708302
-0.3224968
-0.6789235
-0.780736
-1.010778
-0.9447066
-0.8690269
-0.8668917
-0.880446
-0.8701844
-0.8702982
-0.8706636
-0.8717241
-0.8729213
-0.8726937
-0.8724056
-0.8722881
-0.8727789
-0.4519327
-0.4893563
-0.4708226
-0.6142748
-0.7739658
-0.7955632
-0.8530162
-0.8537717
-0.85366
-0.856091
-0.8598315
-0.8636459
-0.8668724
-0.8696631
-0.8711103
-0.8724651
-0.8729322
-0.8730006
-0.4521061
-0.1099985
-0.6814
-0.9524378
-0.9440508
-0.8483209
-0.8394075
-0.8357101
-0.8363317
-0.8373219
-0.8399635
-0.8475842
-0.8528657
-0.8600322
-0.8650541
-0.8695669
-0.8724232
-0.8726702
-0.4217064
-0.5380631
-1.056087
-1.044078
-0.8571572
-0.8652317
-0.8593938
-0.8479627
-0.8524104
-0.8463245
-0.8416254
-0.8449301
-0.8383879
-0.8404846
-0.8522184
-0.8632388
-0.8690135
-0.8714283
-0.3399141
-1.924884
-0.4213258
-0.8246746
-0.8317434
-0.8463904
-0.8552009
-0.8581543
-0.8590046
-0.8546774
-0.8571879
-0.8574896
-0.8526587
-0.8468637
-0.8466984
-0.8476284
-0.8579611
-0.8655025
-0.642379
-1.261508
-1.264048
-1.009927
-0.7991252
-0.8505321
-0.8633313
-0.8624834
-0.8643961
-0.8628093
-0.8646932
-0.858719
-0.8530117
-0.8773512
-0.8597507
-0.8517463
-0.8461543
-0.8524745
-0.346272
1.129154
-0.9496665
-0.7705387
-0.8523596
-0.8813367
-0.8732242
-0.8633542
-0.874522
-0.8594937
-0.8723097
-0.8659033
-0.8593697
-0.8657143
-0.8693334
-0.8682116
-0.8648859
-0.851832
-0.1638933
-2.254591
-1.177939
-0.8216722
-0.8135418
-0.921279
-0.8959977
-0.8735497
-0.877178
-0.8554693
-0.8812277
-0.871099
-0.8802175
-0.8651439
-0.8662671
-0.871507
-0.8723532
-0.8737104
0.04482068
-0.7925572
-0.8769915
-0.8377662
-0.8995428
-0.8325566
-0.9112436
-0.8973269
-0.8625597
-0.8698885
-0.8262
-0.8510439
-0.8732599
-0.8896263
-0.8717913
-0.875886
-0.8798357
-0.8752755
-0.08999151
-0.9626233
-0.8043487
-0.6235221
-0.9060272
-0.8713549
-0.8928137
-0.8836871
-0.8705046
-0.8765872
-0.8970303
-0.880135
-0.867629
-0.8559522
-0.8886306
-0.8853282
-0.8824228
-0.8814019
-0.1814382
-1.114808
-0.5530088
-0.9484074
-0.8084918
-0.8892015
-0.8622966
-0.8912013
-0.8826209
-0.8669783
-0.8977113
-0.8951902
-0.8960901
-0.8747069
-0.8919008
-0.8943978
-0.8851376
-0.8887954
-0.2238043
-1.399551
-0.6533409
-1.101644
-0.9889411
-0.9038911
-0.8762366
-0.8763071
-0.8410053
-0.8944273
-0.8636362
-0.860765
-0.8109871
-0.8982326
-0.8823123
-0.8892621
-0.8922767
-0.8871479
-0.2345973
-1.468122
-1.149864
-0.6561899
-0.8101906
-0.8190368
-0.8705112
-0.8323436
-0.7473937
-0.8952357
-0.8124659
-0.8588544
-0.8963556
-0.8522571
-0.885337
-0.9190449
-0.8989374
-0.8900279
-0.1383495
-1.830549
-0.7201027
-0.6648061
-0.7764472
-1.106536
-0.83804
-0.6850431
-0.7838664
-0.6319117
-0.9675959
-0.6780816
-0.8640997
-0.9009245
-0.8245677
-0.8892145
-0.890976
-0.9031051
-0.1303895
-2.213751
-2.01973
-0.6721878
-0.947304
-0.772489
-0.6842641
-0.5138946
-0.6904821
-0.7677936
-0.6337982
-0.9613008
-0.8810012
-0.9503127
-0.9074638
-0.8239568
-0.9247725
-0.8953329
-0.07540105
-1.905227
-2.062055
-1.132807
-1.06961
-0.5889498
-0.373516
-0.6905549
-0.8245713
-0.8614472
-0.7701657
-0.9475417
-0.7960273
-0.8887837
-0.7917309
-0.8192977
-0.8756683
-0.899684
-0.1244923
-0.8290182
0.696924
-1.228255
0.2052171
-0.4551553
-0.7460433
-0.4075112
-0.8271108
-0.7923736
-0.9596099
-0.8882573
-0.8902682
-0.8515128
-0.1359045
-1.513051
-0.4410742
-0.9304961
-0.5905423
-0.9829857
-1.166276
-0.8556806
-0.9308574
-0.920656
-0.1055336
-0.9930712
-1.279636
-0.813473
-0.5291951
-0.9132369
-0.8552504
-0.8843531
-0.8173745
-0.2593626
-1.0015
-0.7893933
-0.8673681
-0.8812788
-0.8053452
-0.9854402
-0.8439739
-0.8672718
-0.9045608
-0.9766247
-0.7445201
-0.8399537
-0.8579748
-0.8549017
-1.793786
-1.094394
-0.6228123
-0.8767431
-0.876063
-0.556125
-0.4950781
-0.916299
-0.8658399
-0.8698629
-0.7857166
-1.072178
-0.8496204
-0.8475996
-0.8450005
-0.9204735
-0.6700695
-0.875544
-0.8549371
-0.8629772
-0.854114
-0.8021218
-1.044173
-0.9123776
-0.8638813
-0.8433809
-0.105844
-0.9793404
-0.8824699
-0.6550411
-0.8709925
-0.8398687
-0.823723
-0.1128274
-0.5968867
-1.127329
-0.7663128