/*--------------------------------*- C++ -*----------------------------------*\
| =========                 |                                                 |
| \\      /  F ield         | OpenFOAM: The Open Source CFD Toolbox           |
|  \\    /   O peration     | Version:  2206                                  |
|   \\  /    A nd           | Website:  www.openfoam.com                      |
|    \\/     M anipulation  |                                                 |
\*---------------------------------------------------------------------------*/
FoamFile
{
    version     2.0;
    format      ascii;
    arch        "LSB;label=32;scalar=64";
    class       volScalarField;
    location    "2.6";
    object      ddt0(k.b);
}
// * * * * * * * * * * * * * * * * * * * * * * * * * * * * * * * * * * * * * //

dimensions      [0 2 -3 0 0 0 0];

internalField   nonuniform List<scalar> 
13078
(
4.240217e-14
-3.658092e-11
-4.197155e-11
-4.209026e-11
-4.239944e-11
-4.275225e-11
-4.316203e-11
3.0439e-14
-3.221501e-11
-4.179967e-11
-4.207685e-11
-4.238882e-11
-4.274323e-11
-4.315296e-11
1.908729e-13
-3.190739e-11
-4.176474e-11
-4.205767e-11
-4.237338e-11
-4.273155e-11
-4.314229e-11
1.151486e-13
-3.195459e-11
-4.174845e-11
-4.204133e-11
-4.235951e-11
-4.271984e-11
-4.313121e-11
1.102805e-13
-3.196857e-11
-4.173831e-11
-4.203422e-11
-4.234846e-11
-4.270895e-11
-4.312044e-11
1.000328e-13
-3.197842e-11
-4.173383e-11
-4.203024e-11
-4.234434e-11
-4.269967e-11
-4.311015e-11
6.869231e-14
-3.197562e-11
-4.173074e-11
-4.202694e-11
-4.234164e-11
-4.26967e-11
-4.310102e-11
3.083541e-14
-3.196441e-11
-4.172808e-11
-4.202496e-11
-4.234e-11
-4.269477e-11
-4.30985e-11
-9.058943e-15
-3.195363e-11
-4.172726e-11
-4.202437e-11
-4.2339e-11
-4.269331e-11
-4.309672e-11
-5.145479e-14
-3.193781e-11
-4.172648e-11
-4.202401e-11
-4.233826e-11
-4.269216e-11
-4.309522e-11
-9.735147e-14
-3.191849e-11
-4.172558e-11
-4.202371e-11
-4.233762e-11
-4.269114e-11
-4.309382e-11
-1.489179e-13
-3.189629e-11
-4.17245e-11
-4.20234e-11
-4.233703e-11
-4.269018e-11
-4.309252e-11
-2.095574e-13
-3.187179e-11
-4.172327e-11
-4.2023e-11
-4.233644e-11
-4.268925e-11
-4.309122e-11
-2.821366e-13
-3.184503e-11
-4.172184e-11
-4.202243e-11
-4.233563e-11
-4.268825e-11
-4.308986e-11
-3.691985e-13
-3.181624e-11
-4.172011e-11
-4.202031e-11
-4.233242e-11
-4.268697e-11
-4.308848e-11
-4.753994e-13
-3.178545e-11
-4.171809e-11
-4.20176e-11
-4.232974e-11
-4.268572e-11
-4.3087e-11
-6.067377e-13
-3.175285e-11
-4.171604e-11
-4.201668e-11
-4.232867e-11
-4.268451e-11
-4.308545e-11
-7.708127e-13
-3.171831e-11
-4.171375e-11
-4.201579e-11
-4.23276e-11
-4.268324e-11
-4.30838e-11
-9.776319e-13
-3.168162e-11
-4.171117e-11
-4.201485e-11
-4.232634e-11
-4.26816e-11
-4.308204e-11
-1.23938e-12
-3.16429e-11
-4.170828e-11
-4.201363e-11
-4.232257e-11
-4.267624e-11
-4.307982e-11
-1.57182e-12
-3.160191e-11
-4.170508e-11
-4.201226e-11
-4.231795e-11
-4.26717e-11
-4.307751e-11
-1.995193e-12
-3.155861e-11
-4.170158e-11
-4.201103e-11
-4.231612e-11
-4.266964e-11
-4.307533e-11
-2.535318e-12
-3.151276e-11
-4.169765e-11
-4.200963e-11
-4.231442e-11
-4.26673e-11
-4.307257e-11
-3.224968e-12
-3.146426e-11
-4.16933e-11
-4.200812e-11
-4.231228e-11
-4.266142e-11
-4.306422e-11
-4.105589e-12
-3.141285e-11
-4.168852e-11
-4.200646e-11
-4.230993e-11
-4.265423e-11
-4.305704e-11
-5.229295e-12
-3.135827e-11
-4.168315e-11
-4.200463e-11
-4.230767e-11
-4.265091e-11
-4.30533e-11
-6.661269e-12
-3.130109e-11
-4.167723e-11
-4.200265e-11
-4.230522e-11
-4.26477e-11
-4.304908e-11
-8.483925e-12
-3.123515e-11
-4.167054e-11
-4.200051e-11
-4.230247e-11
-4.264389e-11
-4.303961e-11
-1.079956e-11
-3.117431e-11
-4.166335e-11
-4.199819e-11
-4.229947e-11
-4.263956e-11
-4.302812e-11
-1.376695e-11
-3.102102e-11
-4.165365e-11
-4.199565e-11
-4.229627e-11
-4.263535e-11
-4.302204e-11
-1.758669e-11
-3.084659e-11
-4.164548e-11
-4.199298e-11
-4.22928e-11
-4.263071e-11
-4.301563e-11
-2.227875e-11
-3.05714e-11
-4.163968e-11
-4.198979e-11
-4.228913e-11
-4.262565e-11
-4.300846e-11
-2.812297e-11
-3.02194e-11
-4.161529e-11
-4.198316e-11
-4.228476e-11
-4.262001e-11
-4.300118e-11
-3.532587e-11
-3.0091e-11
-4.159816e-11
-4.197643e-11
-4.227927e-11
-4.261322e-11
-4.299251e-11
-4.415046e-11
-2.995747e-11
-4.158405e-11
-4.196806e-11
-4.226507e-11
-4.260293e-11
-4.298142e-11
-5.485385e-11
-2.981535e-11
-4.156632e-11
-4.195537e-11
-4.224679e-11
-4.258176e-11
-4.296716e-11
-6.768242e-11
-2.966521e-11
-4.154445e-11
-4.194041e-11
-4.222937e-11
-4.256306e-11
-4.295447e-11
-8.282348e-11
-2.95027e-11
-4.151971e-11
-4.192629e-11
-4.22179e-11
-4.255028e-11
-4.294004e-11
-1.003738e-10
-2.932464e-11
-4.149557e-11
-4.191482e-11
-4.221165e-11
-4.254522e-11
-4.293203e-11
-1.207352e-10
-2.90101e-11
-4.147282e-11
-4.190267e-11
-4.219882e-11
-4.25334e-11
-4.291932e-11
-1.44254e-10
-2.843739e-11
-4.145295e-11
-4.186997e-11
-4.21606e-11
-4.249185e-11
-4.288812e-11
-1.683487e-10
-2.788029e-11
-4.13762e-11
-4.178517e-11
-4.207362e-11
-4.241071e-11
-4.282845e-11
-1.928776e-10
-2.764383e-11
-4.128597e-11
-4.166413e-11
-4.193552e-11
-4.231249e-11
-4.276602e-11
-2.166602e-10
-2.743702e-11
-4.11887e-11
-4.154599e-11
-4.18177e-11
-4.218828e-11
-4.270038e-11
-2.390847e-10
-2.717494e-11
-4.111549e-11
-4.143588e-11
-4.173047e-11
-4.210492e-11
-4.25355e-11
-2.601906e-10
-2.675624e-11
-4.107675e-11
-4.131697e-11
-4.16162e-11
-4.19723e-11
-4.236135e-11
-2.738964e-10
-2.626137e-11
-4.10133e-11
-4.121922e-11
-4.144586e-11
-4.17718e-11
-4.213409e-11
-2.785073e-10
-2.598856e-11
-4.095082e-11
-4.111612e-11
-4.128997e-11
-4.15423e-11
-4.185505e-11
-2.726946e-10
-2.568689e-11
-4.088234e-11
-4.097276e-11
-4.114547e-11
-4.138351e-11
-4.164095e-11
-2.562526e-10
-2.538166e-11
-4.080804e-11
-4.084105e-11
-4.098258e-11
-4.117595e-11
-4.141954e-11
-2.308563e-10
-2.478214e-11
-4.074438e-11
-4.073457e-11
-4.085244e-11
-4.100588e-11
-4.117797e-11
-1.987741e-10
-2.387868e-11
-4.06547e-11
-4.064343e-11
-4.074976e-11
-4.088622e-11
-4.103571e-11
-1.562578e-10
-2.347979e-11
-4.057498e-11
-4.056755e-11
-4.067411e-11
-4.0832e-11
-4.095586e-11
-9.892158e-11
-2.32176e-11
-4.047693e-11
-4.047657e-11
-4.059283e-11
-4.074732e-11
-4.093389e-11
-4.0722e-11
-2.301105e-11
-4.041685e-11
-4.042803e-11
-4.055925e-11
-4.073168e-11
-4.10057e-11
-8.776645e-12
-2.290579e-11
-4.038703e-11
-4.039847e-11
-4.054687e-11
-4.075382e-11
-4.107653e-11
8.371414e-12
-2.294511e-11
-4.033621e-11
-4.03414e-11
-4.049246e-11
-4.071417e-11
-4.104944e-11
7.811505e-12
-2.306267e-11
-4.031337e-11
-4.032811e-11
-4.047355e-11
-4.067776e-11
-4.098049e-11
-5.148234e-12
-2.326264e-11
-4.032618e-11
-4.034086e-11
-4.047316e-11
-4.065879e-11
-4.089653e-11
-2.997407e-11
-2.35338e-11
-4.034785e-11
-4.036116e-11
-4.047128e-11
-4.064662e-11
-4.084814e-11
-6.705393e-11
-2.393397e-11
-4.035919e-11
-4.036731e-11
-4.048289e-11
-4.065001e-11
-4.088221e-11
-1.102404e-10
-2.482765e-11
-4.046274e-11
-4.049677e-11
-4.059721e-11
-4.073248e-11
-4.093032e-11
-1.540035e-10
-2.542117e-11
-4.05027e-11
-4.056679e-11
-4.067616e-11
-4.082899e-11
-4.10521e-11
-1.941532e-10
-2.574264e-11
-4.056589e-11
-4.068069e-11
-4.080188e-11
-4.099175e-11
-4.122164e-11
-2.271799e-10
-2.603484e-11
-4.064671e-11
-4.083284e-11
-4.095699e-11
-4.119504e-11
-4.143881e-11
-2.504984e-10
-2.624589e-11
-4.075454e-11
-4.098923e-11
-4.115085e-11
-4.141297e-11
-4.16905e-11
-2.63629e-10
-2.667503e-11
-4.088102e-11
-4.114451e-11
-4.1354e-11
-4.162381e-11
-4.193832e-11
-2.647879e-10
-2.709958e-11
-4.096729e-11
-4.132246e-11
-4.152445e-11
-4.180365e-11
-4.2147e-11
-2.588745e-10
-2.740194e-11
-4.107178e-11
-4.146898e-11
-4.169242e-11
-4.194739e-11
-4.234111e-11
-2.46485e-10
-2.76569e-11
-4.119988e-11
-4.159796e-11
-4.184667e-11
-4.214255e-11
-4.24755e-11
-2.283998e-10
-2.794345e-11
-4.132074e-11
-4.172564e-11
-4.198881e-11
-4.229746e-11
-4.26382e-11
-2.061574e-10
-2.845068e-11
-4.141551e-11
-4.182099e-11
-4.209016e-11
-4.240149e-11
-4.277603e-11
-1.807038e-10
-2.894456e-11
-4.146793e-11
-4.186686e-11
-4.214785e-11
-4.246946e-11
-4.284336e-11
-1.55918e-10
-2.924568e-11
-4.151258e-11
-4.189567e-11
-4.218047e-11
-4.250311e-11
-4.288614e-11
-1.3253e-10
-2.943383e-11
-4.155143e-11
-4.191943e-11
-4.220388e-11
-4.252926e-11
-4.291483e-11
-1.107719e-10
-2.966955e-11
-4.15848e-11
-4.194077e-11
-4.222655e-11
-4.255733e-11
-4.294588e-11
-9.122398e-11
-2.986932e-11
-4.160628e-11
-4.195598e-11
-4.224625e-11
-4.258404e-11
-4.296569e-11
-7.399112e-11
-3.003904e-11
-4.162241e-11
-4.196689e-11
-4.226292e-11
-4.260131e-11
-4.298008e-11
-5.949349e-11
-3.01897e-11
-4.163569e-11
-4.197538e-11
-4.227658e-11
-4.26107e-11
-4.299074e-11
-4.745175e-11
-3.031082e-11
-4.165011e-11
-4.198244e-11
-4.228239e-11
-4.261781e-11
-4.299958e-11
-3.753144e-11
-3.065459e-11
-4.16699e-11
-4.198993e-11
-4.22875e-11
-4.262407e-11
-4.300738e-11
-2.949816e-11
-3.092195e-11
-4.167478e-11
-4.199348e-11
-4.229176e-11
-4.26297e-11
-4.301495e-11
-2.285797e-11
-3.108461e-11
-4.168011e-11
-4.199643e-11
-4.229565e-11
-4.263479e-11
-4.302169e-11
-1.774631e-11
-3.123267e-11
-4.168716e-11
-4.199909e-11
-4.22992e-11
-4.263932e-11
-4.302811e-11
-1.380172e-11
-3.128617e-11
-4.169173e-11
-4.200146e-11
-4.230241e-11
-4.264384e-11
-4.303972e-11
-1.071538e-11
-3.134611e-11
-4.169599e-11
-4.200363e-11
-4.230528e-11
-4.264778e-11
-4.304941e-11
-8.32455e-12
-3.139775e-11
-4.16997e-11
-4.20056e-11
-4.230783e-11
-4.265111e-11
-4.305372e-11
-6.461141e-12
-3.144748e-11
-4.170311e-11
-4.200738e-11
-4.231016e-11
-4.265454e-11
-4.305753e-11
-5.01149e-12
-3.149461e-11
-4.170616e-11
-4.200893e-11
-4.231254e-11
-4.266174e-11
-4.306469e-11
-3.885128e-12
-3.153935e-11
-4.170892e-11
-4.201039e-11
-4.231468e-11
-4.266763e-11
-4.307309e-11
-3.010883e-12
-3.158193e-11
-4.171145e-11
-4.201173e-11
-4.231639e-11
-4.267e-11
-4.307581e-11
-2.333356e-12
-3.162237e-11
-4.171372e-11
-4.201292e-11
-4.231827e-11
-4.267207e-11
-4.3078e-11
-1.80685e-12
-3.166091e-11
-4.171585e-11
-4.201424e-11
-4.232288e-11
-4.267661e-11
-4.308034e-11
-1.396626e-12
-3.169751e-11
-4.171781e-11
-4.201541e-11
-4.232665e-11
-4.268199e-11
-4.308256e-11
-1.076963e-12
-3.173241e-11
-4.171958e-11
-4.201629e-11
-4.232788e-11
-4.268359e-11
-4.308425e-11
-8.265367e-13
-3.176545e-11
-4.172114e-11
-4.201714e-11
-4.232894e-11
-4.268482e-11
-4.308584e-11
-6.301706e-13
-3.179684e-11
-4.172255e-11
-4.201804e-11
-4.233e-11
-4.2686e-11
-4.308737e-11
-4.739089e-13
-3.182668e-11
-4.172403e-11
-4.202072e-11
-4.233267e-11
-4.268724e-11
-4.308884e-11
-3.48423e-13
-3.185477e-11
-4.17253e-11
-4.202284e-11
-4.233589e-11
-4.268851e-11
-4.309017e-11
-2.475874e-13
-3.188113e-11
-4.172632e-11
-4.202339e-11
-4.233668e-11
-4.268947e-11
-4.309146e-11
-1.66177e-13
-3.190551e-11
-4.172717e-11
-4.202378e-11
-4.233725e-11
-4.269034e-11
-4.309266e-11
-1.012801e-13
-3.1928e-11
-4.172791e-11
-4.20241e-11
-4.233779e-11
-4.26912e-11
-4.309384e-11
-4.692343e-14
-3.194825e-11
-4.172852e-11
-4.202437e-11
-4.233834e-11
-4.269208e-11
-4.309508e-11
-3.114568e-16
-3.196575e-11
-4.172901e-11
-4.202463e-11
-4.233891e-11
-4.269301e-11
-4.309637e-11
3.806847e-14
-3.197926e-11
-4.172944e-11
-4.202498e-11
-4.233957e-11
-4.269414e-11
-4.309784e-11
7.067473e-14
-3.199461e-11
-4.173139e-11
-4.202643e-11
-4.234065e-11
-4.269555e-11
-4.309994e-11
9.215768e-14
-3.200289e-11
-4.173315e-11
-4.20287e-11
-4.234236e-11
-4.269777e-11
-4.310853e-11
9.207395e-14
-3.199833e-11
-4.173468e-11
-4.203066e-11
-4.234498e-11
-4.270603e-11
-4.311821e-11
7.485207e-14
-3.198617e-11
-4.173863e-11
-4.203447e-11
-4.23539e-11
-4.271574e-11
-4.312842e-11
6.434854e-14
-3.195424e-11
-4.174736e-11
-4.204586e-11
-4.236528e-11
-4.272649e-11
-4.313921e-11
1.168826e-13
-3.197639e-11
-4.176876e-11
-4.206233e-11
-4.237898e-11
-4.273817e-11
-4.315031e-11
-7.47049e-15
-3.273563e-11
-4.179515e-11
-4.20828e-11
-4.239561e-11
-4.275067e-11
-4.31615e-11
-4.364917e-11
-4.426756e-11
-4.510275e-11
-4.591321e-11
-4.737797e-11
-4.839031e-11
-6.553099e-10
-4.363872e-11
-4.425394e-11
-4.508454e-11
-4.58915e-11
-4.735292e-11
-4.901903e-11
-9.574454e-11
-4.36274e-11
-4.424012e-11
-4.506718e-11
-4.617256e-11
-4.732863e-11
-4.898286e-11
-1.012604e-10
-4.361581e-11
-4.422617e-11
-4.504857e-11
-4.584773e-11
-4.729896e-11
-4.894591e-11
-1.026879e-10
-4.360448e-11
-4.421218e-11
-4.503088e-11
-4.582426e-11
-4.727168e-11
-4.892285e-11
-1.071099e-10
-4.359333e-11
-4.41982e-11
-4.501277e-11
-4.580202e-11
-4.724474e-11
-4.89109e-11
-1.132004e-10
-4.358249e-11
-4.418439e-11
-4.499479e-11
-4.578053e-11
-4.723709e-11
-4.890306e-11
-1.194461e-10
-4.357261e-11
-4.417073e-11
-4.497698e-11
-4.575947e-11
-4.722999e-11
-4.890661e-11
-1.242812e-10
-4.357002e-11
-4.415813e-11
-4.495999e-11
-4.573798e-11
-4.720842e-11
-4.891368e-11
-1.273183e-10
-4.356809e-11
-4.415482e-11
-4.494413e-11
-4.571659e-11
-4.718705e-11
-4.892857e-11
-1.294473e-10
-4.356631e-11
-4.415233e-11
-4.493981e-11
-4.569579e-11
-4.716575e-11
-4.894645e-11
-1.319692e-10
-4.356452e-11
-4.414978e-11
-4.493643e-11
-4.569107e-11
-4.714433e-11
-4.897306e-11
-1.305497e-10
-4.356275e-11
-4.414722e-11
-4.493291e-11
-4.568675e-11
-4.71402e-11
-4.899591e-11
-1.291992e-10
-4.356091e-11
-4.414459e-11
-4.492926e-11
-4.568222e-11
-4.71356e-11
-4.903206e-11
-1.313484e-10
-4.355902e-11
-4.41418e-11
-4.492544e-11
-4.567749e-11
-4.713081e-11
-4.907112e-11
-7.999441e-11
-4.355701e-11
-4.413888e-11
-4.492144e-11
-4.567252e-11
-4.712561e-11
-4.913365e-11
-8.207269e-11
-4.355492e-11
-4.41358e-11
-4.491727e-11
-4.566719e-11
-4.711814e-11
-4.915685e-11
-7.7709e-11
-4.355271e-11
-4.413264e-11
-4.49128e-11
-4.565933e-11
-4.705327e-11
-4.917935e-11
-7.221208e-11
-4.355038e-11
-4.412944e-11
-4.490817e-11
-4.565343e-11
-4.704383e-11
-4.919542e-11
-6.804729e-11
-4.354787e-11
-4.412602e-11
-4.490325e-11
-4.564723e-11
-4.703575e-11
-4.915062e-11
2.02992e-11
-4.354523e-11
-4.412238e-11
-4.489808e-11
-4.564067e-11
-4.702718e-11
-4.862399e-11
7.603946e-10
-4.354235e-11
-4.41185e-11
-4.489266e-11
-4.563364e-11
-4.701802e-11
-4.896933e-11
3.069217e-11
-4.353931e-11
-4.411436e-11
-4.488652e-11
-4.562641e-11
-4.700661e-11
-4.804155e-11
-8.198849e-11
-4.353548e-11
-4.410988e-11
-4.488082e-11
-4.589778e-11
-4.694802e-11
-4.817695e-11
-1.400024e-10
-4.353144e-11
-4.410511e-11
-4.487341e-11
-4.561216e-11
-4.691299e-11
-4.796239e-11
-1.09671e-10
-4.352751e-11
-4.41e-11
-4.486654e-11
-4.560112e-11
-4.689939e-11
-4.763139e-11
-9.030156e-11
-4.352249e-11
-4.409413e-11
-4.485872e-11
-4.559134e-11
-4.688516e-11
-4.76649e-11
-8.226112e-11
-4.350896e-11
-4.40877e-11
-4.485002e-11
-4.558105e-11
-4.686653e-11
-4.783028e-11
-7.386167e-11
-4.349769e-11
-4.392678e-11
-4.463384e-11
-4.556797e-11
-4.684887e-11
-4.789588e-11
-6.293355e-11
-4.348993e-11
-4.391912e-11
-4.4625e-11
-4.555649e-11
-4.6832e-11
-4.807425e-11
-2.760185e-11
-4.347161e-11
-4.389534e-11
-4.461505e-11
-4.554352e-11
-4.681253e-11
-4.794673e-11
-1.549213e-10
-4.345653e-11
-4.387601e-11
-4.460408e-11
-4.552904e-11
-4.67915e-11
-4.792183e-11
-1.566416e-10
-4.344604e-11
-4.383941e-11
-4.459031e-11
-4.551261e-11
-4.676837e-11
-4.799097e-11
-1.200559e-10
-4.343531e-11
-4.382496e-11
-4.455334e-11
-4.549357e-11
-4.674187e-11
-4.809791e-11
-5.717257e-11
-4.342218e-11
-4.380513e-11
-4.450601e-11
-4.546997e-11
-4.671142e-11
-4.8215e-11
3.665655e-11
-4.340663e-11
-4.378076e-11
-4.445532e-11
-4.543236e-11
-4.667425e-11
-4.780028e-11
5.14162e-11
-4.339645e-11
-4.37562e-11
-4.443335e-11
-4.535508e-11
-4.663448e-11
-4.787019e-11
4.779491e-11
-4.339668e-11
-4.374507e-11
-4.442552e-11
-4.529082e-11
-4.660332e-11
-4.752588e-11
1.720747e-10
-4.340548e-11
-4.3755e-11
-4.444618e-11
-4.531068e-11
-4.662442e-11
-4.846444e-11
4.260204e-12
-4.341838e-11
-4.378266e-11
-4.454804e-11
-4.551433e-11
-4.662995e-11
-4.830795e-11
5.756555e-11
-4.341034e-11
-4.385428e-11
-4.471902e-11
-4.556591e-11
-4.657674e-11
-4.811305e-11
-2.417095e-11
-4.339095e-11
-4.391054e-11
-4.462822e-11
-4.543331e-11
-4.654102e-11
-4.779667e-11
-1.09693e-11
-4.335872e-11
-4.386962e-11
-4.454712e-11
-4.533267e-11
-4.648918e-11
-4.773331e-11
-5.159206e-11
-4.329513e-11
-4.380622e-11
-4.446333e-11
-4.530617e-11
-4.64173e-11
-4.787103e-11
-5.981293e-11
-4.313791e-11
-4.371753e-11
-4.428252e-11
-4.53015e-11
-4.621697e-11
-4.786566e-11
-6.41851e-11
-4.290014e-11
-4.356295e-11
-4.425303e-11
-4.512883e-11
-4.611649e-11
-4.788729e-11
-1.826793e-10
-4.267486e-11
-4.337001e-11
-4.408884e-11
-4.512112e-11
-4.583501e-11
-4.786748e-11
-1.761376e-10
-4.244421e-11
-4.308444e-11
-4.404038e-11
-4.499824e-11
-4.591747e-11
-4.729131e-11
-1.265177e-10
-4.209761e-11
-4.280273e-11
-4.384552e-11
-4.496089e-11
-4.584386e-11
-4.791047e-11
-1.434361e-10
-4.182961e-11
-4.250334e-11
-4.380084e-11
-4.485854e-11
-4.579816e-11
-4.698842e-11
-8.158416e-11
-4.160562e-11
-4.227406e-11
-4.363659e-11
-4.46808e-11
-4.56073e-11
-4.673655e-11
-6.550486e-11
-4.153303e-11
-4.224907e-11
-4.359077e-11
-4.448383e-11
-4.542464e-11
-8.158886e-11
-2.371213e-09
-4.152091e-11
-4.220902e-11
-4.351969e-11
-4.428156e-11
-4.516113e-11
-7.357113e-11
-2.123092e-09
-4.157582e-11
-4.230629e-11
-4.341948e-11
-4.408887e-11
-4.482201e-11
-9.646825e-11
-1.278932e-09
-4.166475e-11
-4.235106e-11
-4.347136e-11
-4.389364e-11
-4.438916e-11
-4.452742e-11
-6.140417e-11
-4.174597e-11
-4.24182e-11
-4.34371e-11
-4.387186e-11
-4.412496e-11
-4.410204e-11
-4.171087e-11
-4.242601e-11
-4.342407e-11
-4.388073e-11
-4.421146e-11
-4.425848e-11
-4.163524e-11
-4.235756e-11
-4.332323e-11
-4.375685e-11
-4.406672e-11
-4.406294e-11
-4.152776e-11
-4.226309e-11
-4.327917e-11
-4.373244e-11
-4.426214e-11
-4.934904e-11
-7.22001e-10
-4.144964e-11
-4.210467e-11
-4.329389e-11
-4.390037e-11
-4.471319e-11
-1.151611e-10
-2.215421e-09
-4.145727e-11
-4.208872e-11
-4.326011e-11
-4.40315e-11
-4.467611e-11
-6.909729e-11
-2.861598e-09
-4.148982e-11
-4.20651e-11
-4.318208e-11
-4.404087e-11
-4.479976e-11
-4.580978e-11
-8.081502e-11
-4.16168e-11
-4.22025e-11
-4.351373e-11
-4.423221e-11
-4.489826e-11
-4.617177e-11
-6.43449e-11
-4.179651e-11
-4.24018e-11
-4.35561e-11
-4.424736e-11
-4.519828e-11
-4.635387e-11
-7.822953e-11
-4.203205e-11
-4.254407e-11
-4.370598e-11
-4.449108e-11
-4.526346e-11
-4.626863e-11
-7.229306e-11
-4.221539e-11
-4.279342e-11
-4.385548e-11
-4.463125e-11
-4.529538e-11
-4.664143e-11
-1.392206e-10
-4.242534e-11
-4.289795e-11
-4.397614e-11
-4.475771e-11
-4.544008e-11
-4.650934e-11
-7.504427e-11
-4.267117e-11
-4.313782e-11
-4.41072e-11
-4.489332e-11
-4.560787e-11
-4.700827e-11
-8.412873e-11
-4.285147e-11
-4.330326e-11
-4.420919e-11
-4.510685e-11
-4.583469e-11
-4.717904e-11
-5.492124e-11
-4.299447e-11
-4.346315e-11
-4.4348e-11
-4.524404e-11
-4.613168e-11
-4.786484e-11
-4.402796e-10
-4.309962e-11
-4.356412e-11
-4.439738e-11
-4.538359e-11
-4.633478e-11
-4.739009e-11
-4.119294e-11
-4.323232e-11
-4.360533e-11
-4.444304e-11
-4.553431e-11
-4.654352e-11
-4.775186e-11
-1.563496e-12
-4.33212e-11
-4.371262e-11
-4.439366e-11
-4.545824e-11
-4.661646e-11
-4.822492e-11
-1.358886e-11
-4.335413e-11
-4.373311e-11
-4.440971e-11
-4.531492e-11
-4.661179e-11
-4.842564e-11
-8.249347e-12
-4.337186e-11
-4.375096e-11
-4.442261e-11
-4.52988e-11
-4.666835e-11
-4.794891e-11
5.758545e-11
-4.338915e-11
-4.376409e-11
-4.443922e-11
-4.534537e-11
-4.666873e-11
-4.820953e-11
3.658572e-10
-4.340694e-11
-4.378171e-11
-4.445674e-11
-4.541847e-11
-4.669437e-11
-4.838559e-11
-1.541376e-11
-4.34223e-11
-4.380067e-11
-4.4488e-11
-4.546931e-11
-4.671768e-11
-4.823311e-11
-7.596563e-12
-4.343461e-11
-4.381935e-11
-4.453167e-11
-4.549e-11
-4.674213e-11
-4.823769e-11
-1.649428e-11
-4.344517e-11
-4.382977e-11
-4.458266e-11
-4.550795e-11
-4.67662e-11
-4.822963e-11
-1.350698e-10
-4.345598e-11
-4.385855e-11
-4.459919e-11
-4.552477e-11
-4.678882e-11
-4.811134e-11
-1.805843e-10
-4.347122e-11
-4.388319e-11
-4.46116e-11
-4.554006e-11
-4.681002e-11
-4.813897e-11
-1.96792e-10
-4.348999e-11
-4.391355e-11
-4.462224e-11
-4.555393e-11
-4.682993e-11
-4.800364e-11
-6.916477e-11
-4.349806e-11
-4.392065e-11
-4.463222e-11
-4.556652e-11
-4.684766e-11
-4.830147e-11
-7.789895e-11
-4.350957e-11
-4.408923e-11
-4.485263e-11
-4.557957e-11
-4.686412e-11
-4.809624e-11
-1.04127e-10
-4.352322e-11
-4.409564e-11
-4.486125e-11
-4.558956e-11
-4.688305e-11
-4.794893e-11
-1.135963e-10
-4.352829e-11
-4.410144e-11
-4.486894e-11
-4.559934e-11
-4.689863e-11
-4.786148e-11
-1.214657e-10
-4.353223e-11
-4.410651e-11
-4.487598e-11
-4.560845e-11
-4.691208e-11
-4.780144e-11
-1.318376e-10
-4.353628e-11
-4.411127e-11
-4.48826e-11
-4.561703e-11
-4.692668e-11
-4.891369e-11
8.323293e-12
-4.35401e-11
-4.411563e-11
-4.488872e-11
-4.562516e-11
-4.699095e-11
-4.899389e-11
7.345162e-12
-4.35431e-11
-4.411971e-11
-4.489447e-11
-4.563273e-11
-4.701792e-11
-4.906177e-11
1.509371e-11
-4.354594e-11
-4.412356e-11
-4.489986e-11
-4.563973e-11
-4.702695e-11
-4.918699e-11
3.457836e-12
-4.354858e-11
-4.412712e-11
-4.490491e-11
-4.564637e-11
-4.703544e-11
-4.922204e-11
-5.081843e-11
-4.355107e-11
-4.413045e-11
-4.490971e-11
-4.565257e-11
-4.704334e-11
-4.92095e-11
-5.269697e-11
-4.355334e-11
-4.413359e-11
-4.491418e-11
-4.565843e-11
-4.705081e-11
-4.919378e-11
-5.658423e-11
-4.35555e-11
-4.413667e-11
-4.491852e-11
-4.566541e-11
-4.708476e-11
-4.917394e-11
-6.098053e-11
-4.355754e-11
-4.413966e-11
-4.492258e-11
-4.567165e-11
-4.712551e-11
-4.91492e-11
-6.606188e-11
-4.355948e-11
-4.414247e-11
-4.492644e-11
-4.567667e-11
-4.713056e-11
-4.911418e-11
-6.770657e-11
-4.35613e-11
-4.414516e-11
-4.493012e-11
-4.568149e-11
-4.713533e-11
-4.907345e-11
-9.428482e-11
-4.356305e-11
-4.414768e-11
-4.493365e-11
-4.568604e-11
-4.713981e-11
-4.904237e-11
-1.132148e-10
-4.356471e-11
-4.415012e-11
-4.4937e-11
-4.569044e-11
-4.714413e-11
-4.90167e-11
-1.14616e-10
-4.356636e-11
-4.415253e-11
-4.494024e-11
-4.569465e-11
-4.715663e-11
-4.899884e-11
-1.165712e-10
-4.356799e-11
-4.415488e-11
-4.494441e-11
-4.570735e-11
-4.71776e-11
-4.897779e-11
-1.188947e-10
-4.356973e-11
-4.415799e-11
-4.496009e-11
-4.572862e-11
-4.719877e-11
-4.89599e-11
-1.189152e-10
-4.357206e-11
-4.417035e-11
-4.497685e-11
-4.575006e-11
-4.721999e-11
-4.895003e-11
-1.172941e-10
-4.35816e-11
-4.418375e-11
-4.499443e-11
-4.577168e-11
-4.72404e-11
-4.894403e-11
-1.163732e-10
-4.359208e-11
-4.419732e-11
-4.501222e-11
-4.579221e-11
-4.723273e-11
-4.894376e-11
-1.143018e-10
-4.360289e-11
-4.42111e-11
-4.503015e-11
-4.581413e-11
-4.725865e-11
-4.895196e-11
-1.108158e-10
-4.3614e-11
-4.422506e-11
-4.504821e-11
-4.583608e-11
-4.72855e-11
-4.89699e-11
-1.107068e-10
-4.362559e-11
-4.423916e-11
-4.506633e-11
-4.585816e-11
-4.731248e-11
-4.899839e-11
-1.148424e-10
-4.363728e-11
-4.425319e-11
-4.508445e-11
-4.588011e-11
-4.733958e-11
-4.904049e-11
-1.149346e-10
-4.364897e-11
-4.426747e-11
-4.510263e-11
-4.590201e-11
-4.736646e-11
-4.90804e-11
-2.032285e-10
-6.534475e-08
-8.289036e-08
-8.408141e-08
-8.396642e-08
-8.39618e-08
-8.396168e-08
-8.396166e-08
-8.396166e-08
-8.396166e-08
-8.396165e-08
-8.396163e-08
-8.396161e-08
-8.39616e-08
-8.396158e-08
-8.396158e-08
-8.396156e-08
-8.396154e-08
-8.396151e-08
-8.504631e-08
-8.734564e-08
-8.39069e-08
-8.396121e-08
-8.3963e-08
-8.396301e-08
-8.396302e-08
-8.396302e-08
-8.396303e-08
-8.396304e-08
-8.396305e-08
-8.396306e-08
-8.396307e-08
-8.396309e-08
-8.396308e-08
-8.39631e-08
-8.396312e-08
-8.396313e-08
-8.241105e-08
-8.080107e-08
-8.390248e-08
-8.395998e-08
-8.39613e-08
-8.396129e-08
-8.396129e-08
-8.396129e-08
-8.396128e-08
-8.396127e-08
-8.396127e-08
-8.396127e-08
-8.396127e-08
-8.396127e-08
-8.396129e-08
-8.396127e-08
-8.396126e-08
-8.396126e-08
-8.306778e-08
-8.590855e-08
-8.399657e-08
-8.396236e-08
-8.396196e-08
-8.396193e-08
-8.396193e-08
-8.396193e-08
-8.396193e-08
-8.396192e-08
-8.396192e-08
-8.396192e-08
-8.396191e-08
-8.396191e-08
-8.396191e-08
-8.39619e-08
-8.39619e-08
-8.396189e-08
-8.275376e-08
-8.621971e-08
-8.39837e-08
-8.396241e-08
-8.396224e-08
-8.396219e-08
-8.396219e-08
-8.396219e-08
-8.396219e-08
-8.396219e-08
-8.396219e-08
-8.396219e-08
-8.396219e-08
-8.396219e-08
-8.396219e-08
-8.39622e-08
-8.396219e-08
-8.39622e-08
-8.157528e-08
-8.536609e-08
-8.396764e-08
-8.396217e-08
-8.396218e-08
-8.396213e-08
-8.396212e-08
-8.396212e-08
-8.396212e-08
-8.396212e-08
-8.396213e-08
-8.396213e-08
-8.396213e-08
-8.396213e-08
-8.396213e-08
-8.396213e-08
-8.396213e-08
-8.396213e-08
-8.038677e-08
-8.512106e-08
-8.396382e-08
-8.39621e-08
-8.396216e-08
-8.396209e-08
-8.396209e-08
-8.396209e-08
-8.396209e-08
-8.396209e-08
-8.396209e-08
-8.396209e-08
-8.396209e-08
-8.396209e-08
-8.39621e-08
-8.39621e-08
-8.396209e-08
-8.396209e-08
-7.831297e-08
-8.53639e-08
-8.396363e-08
-8.39621e-08
-8.396214e-08
-8.396209e-08
-8.396209e-08
-8.396209e-08
-8.396208e-08
-8.396208e-08
-8.396208e-08
-8.396208e-08
-8.396208e-08
-8.396208e-08
-8.396209e-08
-8.396209e-08
-8.396208e-08
-8.396208e-08
-7.664324e-08
-8.543174e-08
-8.396356e-08
-8.396212e-08
-8.396212e-08
-8.396209e-08
-8.396209e-08
-8.396209e-08
-8.396208e-08
-8.396208e-08
-8.396208e-08
-8.396208e-08
-8.396208e-08
-8.396208e-08
-8.39621e-08
-8.396209e-08
-8.396208e-08
-8.396208e-08
-7.486533e-08
-8.536015e-08
-8.396427e-08
-8.396215e-08
-8.39621e-08
-8.39621e-08
-8.396209e-08
-8.396209e-08
-8.396208e-08
-8.396208e-08
-8.396208e-08
-8.396208e-08
-8.396208e-08
-8.396208e-08
-8.39621e-08
-8.39621e-08
-8.396208e-08
-8.396208e-08
-7.264991e-08
-8.562733e-08
-8.39704e-08
-8.396235e-08
-8.39621e-08
-8.39621e-08
-8.396209e-08
-8.396209e-08
-8.396208e-08
-8.396208e-08
-8.396208e-08
-8.396208e-08
-8.396208e-08
-8.396208e-08
-8.39621e-08
-8.39621e-08
-8.396208e-08
-8.396208e-08
-7.011483e-08
-8.712809e-08
-8.399434e-08
-8.396397e-08
-8.396216e-08
-8.39621e-08
-8.396209e-08
-8.396209e-08
-8.396208e-08
-8.396208e-08
-8.396208e-08
-8.396208e-08
-8.396208e-08
-8.396208e-08
-8.396211e-08
-8.39621e-08
-8.396208e-08
-8.396208e-08
-6.816791e-08
-8.678628e-08
-8.402374e-08
-8.397122e-08
-8.396257e-08
-8.396211e-08
-8.396209e-08
-8.396209e-08
-8.396209e-08
-8.396208e-08
-8.396208e-08
-8.396208e-08
-8.396208e-08
-8.396208e-08
-8.396212e-08
-8.396211e-08
-8.396208e-08
-8.396208e-08
-6.693397e-08
-8.389052e-08
-8.394524e-08
-8.398297e-08
-8.396452e-08
-8.396217e-08
-8.39621e-08
-8.396209e-08
-8.396209e-08
-8.396208e-08
-8.396208e-08
-8.396208e-08
-8.396208e-08
-8.396208e-08
-8.396213e-08
-8.396211e-08
-8.396208e-08
-8.396208e-08
-5.323349e-08
-8.740882e-08
-8.386269e-08
-8.396081e-08
-8.3968e-08
-8.396246e-08
-8.39621e-08
-8.396209e-08
-8.396209e-08
-8.396208e-08
-8.396208e-08
-8.396208e-08
-8.396208e-08
-8.396208e-08
-8.396213e-08
-8.396212e-08
-8.396208e-08
-8.396208e-08
-5.136386e-08
-8.653844e-08
-8.401842e-08
-8.392637e-08
-8.396235e-08
-8.396309e-08
-8.396215e-08
-8.39621e-08
-8.396209e-08
-8.396208e-08
-8.396208e-08
-8.396208e-08
-8.396208e-08
-8.396208e-08
-8.396212e-08
-8.396211e-08
-8.396208e-08
-8.396208e-08
-4.820708e-08
-8.648184e-08
-8.392154e-08
-8.397872e-08
-8.395139e-08
-8.396261e-08
-8.396226e-08
-8.396211e-08
-8.39621e-08
-8.396208e-08
-8.396208e-08
-8.396208e-08
-8.396208e-08
-8.396209e-08
-8.396209e-08
-8.396208e-08
-8.396208e-08
-8.396208e-08
-4.490664e-08
-8.566463e-08
-8.399129e-08
-8.39486e-08
-8.39669e-08
-8.396048e-08
-8.396226e-08
-8.396213e-08
-8.396211e-08
-8.396208e-08
-8.396208e-08
-8.396208e-08
-8.396208e-08
-8.39621e-08
-8.396207e-08
-8.396206e-08
-8.396208e-08
-8.396208e-08
-4.180383e-08
-8.665257e-08
-8.399274e-08
-8.397215e-08
-8.395875e-08
-8.396199e-08
-8.396192e-08
-8.396213e-08
-8.396212e-08
-8.396209e-08
-8.396208e-08
-8.396208e-08
-8.396208e-08
-8.396211e-08
-8.39621e-08
-8.396209e-08
-8.396208e-08
-8.396208e-08
-3.853776e-08
-8.650765e-08
-8.394531e-08
-8.397097e-08
-8.396539e-08
-8.396222e-08
-8.396187e-08
-8.396206e-08
-8.396212e-08
-8.396209e-08
-8.396208e-08
-8.396208e-08
-8.396208e-08
-8.39621e-08
-8.396211e-08
-8.396209e-08
-8.396208e-08
-8.396208e-08
-3.475446e-08
-8.639451e-08
-8.394796e-08
-8.395616e-08
-8.396444e-08
-8.396214e-08
-8.396224e-08
-8.396203e-08
-8.396213e-08
-8.396209e-08
-8.396209e-08
-8.396208e-08
-8.396208e-08
-8.396213e-08
-8.396214e-08
-8.396208e-08
-8.396208e-08
-8.396208e-08
-3.343869e-08
-8.627057e-08
-8.395727e-08
-8.395807e-08
-8.396137e-08
-8.396239e-08
-8.396203e-08
-8.396213e-08
-8.396209e-08
-8.396209e-08
-8.396209e-08
-8.396208e-08
-8.396209e-08
-8.396221e-08
-8.396233e-08
-8.39621e-08
-8.396208e-08
-8.396208e-08
-3.191833e-08
-8.593763e-08
-8.395867e-08
-8.396157e-08
-8.396217e-08
-8.396192e-08
-8.396214e-08
-8.39621e-08
-8.396221e-08
-8.396207e-08
-8.396208e-08
-8.396209e-08
-8.396209e-08
-8.396251e-08
-8.39629e-08
-8.396209e-08
-8.396208e-08
-8.396209e-08
-2.981448e-08
-8.580385e-08
-8.395826e-08
-8.396338e-08
-8.396431e-08
-8.396197e-08
-8.396216e-08
-8.39621e-08
-8.396223e-08
-8.39621e-08
-8.396208e-08
-8.396208e-08
-8.39621e-08
-8.396273e-08
-8.396341e-08
-8.396207e-08
-8.396208e-08
-8.396211e-08
-2.745498e-08
-8.576908e-08
-8.3958e-08
-8.397179e-08
-8.397249e-08
-8.396205e-08
-8.396228e-08
-8.39623e-08
-8.39625e-08
-8.396208e-08
-8.396209e-08
-8.396209e-08
-8.39621e-08
-8.396214e-08
-8.396151e-08
-8.396207e-08
-8.396209e-08
-8.396221e-08
-2.570837e-08
-8.545901e-08
-8.395836e-08
-8.404025e-08
-8.403084e-08
-8.396126e-08
-8.396255e-08
-8.396385e-08
-8.396312e-08
-8.396205e-08
-8.396208e-08
-8.396209e-08
-8.396215e-08
-8.396226e-08
-8.396252e-08
-8.396208e-08
-8.396209e-08
-8.396249e-08
-2.382826e-08
-8.472527e-08
-8.396502e-08
-8.441853e-08
-8.43368e-08
-8.395502e-08
-8.396331e-08
-8.397444e-08
-8.39675e-08
-8.396166e-08
-8.396209e-08
-8.396209e-08
-8.39623e-08
-8.396179e-08
-8.396086e-08
-8.396208e-08
-8.396213e-08
-8.396291e-08
-2.194567e-08
-8.361227e-08
-8.399412e-08
-8.543045e-08
-8.50606e-08
-8.393564e-08
-8.39655e-08
-8.401491e-08
-8.398699e-08
-8.396012e-08
-8.396207e-08
-8.396209e-08
-8.396243e-08
-8.396252e-08
-8.39629e-08
-8.396211e-08
-8.396224e-08
-8.396293e-08
-2.016803e-08
-8.163462e-08
-8.408296e-08
-8.529077e-08
-8.444966e-08
-8.395347e-08
-8.396903e-08
-8.404462e-08
-8.401475e-08
-8.39592e-08
-8.396205e-08
-8.39621e-08
-8.396255e-08
-8.396306e-08
-8.396281e-08
-8.396213e-08
-8.396267e-08
-8.396196e-08
-1.826039e-08
-8.04807e-08
-8.448534e-08
-8.319833e-08
-8.320979e-08
-8.413973e-08
-8.397134e-08
-8.388821e-08
-8.393361e-08
-8.396625e-08
-8.396217e-08