/*--------------------------------*- C++ -*----------------------------------*\
| =========                 |                                                 |
| \\      /  F ield         | OpenFOAM: The Open Source CFD Toolbox           |
|  \\    /   O peration     | Version:  2206                                  |
|   \\  /    A nd           | Website:  www.openfoam.com                      |
|    \\/     M anipulation  |                                                 |
\*---------------------------------------------------------------------------*/
FoamFile
{
    version     2.0;
    format      ascii;
    arch        "LSB;label=32;scalar=64";
    class       volVectorField;
    location    "2.6";
    object      ddt0(U.b);
}
// * * * * * * * * * * * * * * * * * * * * * * * * * * * * * * * * * * * * * //

dimensions      [0 1 -2 0 0 0 0];

internalField   nonuniform List<vector> 
13078
(
(0.0003426726 -5.640314e-05 -2.220629e-27)
(0.0002960462 -0.0003341047 -5.005986e-28)
(0.00028392 -0.0004218016 -1.275209e-26)
(0.0002837676 -0.0005839213 0)
(0.0002759326 -0.0007256165 -1.13507e-26)
(0.000266653 -0.0008545076 -1.327545e-26)
(0.0002544932 -0.0009719864 -1.451395e-26)
(0.0004690709 -7.377114e-05 0)
(0.0004356903 -0.0002042128 -5.062785e-28)
(0.0004258844 -0.0003904807 0)
(0.0004228627 -0.0005770026 0)
(0.0004120925 -0.0007344755 -4.823845e-28)
(0.0003920019 -0.0008698062 -2.342813e-28)
(0.0003644351 -0.0009921057 -4.485413e-28)
(0.0006924476 -6.466899e-05 4.213886e-26)
(0.0006509099 -0.0002201884 -4.003698e-26)
(0.0006087022 -0.0004051578 6.152802e-27)
(0.0005833893 -0.0005900343 1.877302e-26)
(0.0005616932 -0.0007533787 1.262725e-26)
(0.0005248125 -0.0008992795 0)
(0.0004800492 -0.001029677 -9.275685e-32)
(0.0008770842 -8.06992e-05 4.838194e-26)
(0.0008424557 -0.0002568974 -9.265618e-26)
(0.0008034898 -0.0004443173 -8.789805e-26)
(0.0007607798 -0.0006176733 -4.14622e-26)
(0.0007194526 -0.0007908005 1.282707e-27)
(0.0006657225 -0.0009497049 0)
(0.0006030486 -0.001086659 5.527717e-28)
(0.001057986 -9.506454e-05 -5.537681e-29)
(0.001033244 -0.0002881992 -5.316151e-26)
(0.0009981114 -0.0004821957 -1.025837e-25)
(0.0009482516 -0.0006705517 -9.881718e-26)
(0.0008825374 -0.0008462947 2.925667e-26)
(0.0008157373 -0.001015045 -2.258502e-30)
(0.0007351648 -0.001163099 1.805695e-26)
(0.001267815 -0.0001059759 0)
(0.001246947 -0.0003166311 3.529225e-28)
(0.001204461 -0.0005268367 -5.878773e-28)
(0.001144461 -0.0007326311 -5.547152e-26)
(0.001068167 -0.0009240692 2.09056e-27)
(0.0009772062 -0.001097797 -1.90259e-26)
(0.0008789284 -0.001260045 -4.460909e-26)
(0.001504298 -0.0001175916 0)
(0.001481286 -0.000353125 -6.966832e-26)
(0.001429682 -0.0005853339 -7.722679e-26)
(0.001361764 -0.0008062903 -1.452537e-26)
(0.001269105 -0.001017186 -5.632731e-26)
(0.001161007 -0.001208593 2.760952e-27)
(0.001035237 -0.001378188 0)
(0.00176191 -0.0001311051 1.618901e-25)
(0.001735303 -0.0003932258 -7.927041e-26)
(0.001680242 -0.0006488585 -7.623953e-26)
(0.001598484 -0.0008959493 0)
(0.001490111 -0.00112872 -1.329762e-25)
(0.001362723 -0.001340157 3.150131e-27)
(0.001215685 -0.001528504 3.54989e-27)
(0.00204974 -0.0001461299 1.628982e-29)
(0.002019946 -0.0004390023 1.80553e-25)
(0.001956913 -0.0007249257 8.864587e-26)
(0.001861951 -0.001000656 2.453908e-27)
(0.001736023 -0.001259786 -2.989729e-25)
(0.001587318 -0.001495357 3.611045e-27)
(0.001415121 -0.001705452 0)
(0.002372656 -0.0001644448 -2.106185e-25)
(0.002338821 -0.0004930468 2.058851e-25)
(0.002266147 -0.0008132844 9.897007e-26)
(0.00215694 -0.001122034 -1.853853e-25)
(0.002011323 -0.001412306 -9.722185e-29)
(0.001838829 -0.001676416 0)
(0.001638659 -0.001912144 0)
(0.002735258 -0.0001852408 0)
(0.002697515 -0.0005552433 0)
(0.002614472 -0.0009150991 2.257858e-25)
(0.00248891 -0.001261858 -2.11447e-25)
(0.002320505 -0.001588648 1.15753e-28)
(0.002121395 -0.001885998 0)
(0.001890408 -0.002151209 0)
(0.003145466 -0.0002085858 0)
(0.003102173 -0.0006256864 -2.684166e-25)
(0.003006833 -0.001031644 2.578646e-25)
(0.002861835 -0.001423324 2.37301e-25)
(0.002668674 -0.001792049 -2.275616e-25)
(0.00244011 -0.00212682 0)
(0.002174922 -0.002425998 1.865172e-25)
(0.003608801 -0.0002360265 0)
(0.003557886 -0.0007076312 -3.08573e-25)
(0.003448647 -0.001166449 -3.094645e-27)
(0.003282298 -0.00160797 2.752034e-25)
(0.003062227 -0.002023694 -2.541712e-25)
(0.002800607 -0.002402275 2.282086e-25)
(0.00249728 -0.002740575 1.921155e-28)
(0.004132396 -0.0002674374 -3.58651e-25)
(0.004072975 -0.000800521 0)
(0.003948122 -0.001318867 -3.536756e-27)
(0.003757981 -0.001817817 -4.866654e-27)
(0.003509098 -0.002287294 -5.807971e-25)
(0.00320886 -0.002716451 2.608266e-25)
(0.002862982 -0.003099545 -2.268482e-25)
(0.004725513 -0.0003027372 -4.102824e-25)
(0.004657057 -0.0009059533 0)
(0.004514414 -0.001493063 -8.074008e-27)
(0.004295286 -0.002060325 4.353702e-25)
(0.004022036 -0.002581918 -2.248971e-25)
(0.003672241 -0.003073058 0)
(0.003278226 -0.00350797 2.59196e-25)
(0.005396972 -0.0003426511 0)
(0.005318145 -0.001024948 -4.579559e-25)
(0.005156171 -0.001687809 0)
(0.004914165 -0.002323153 4.266426e-25)
(0.004595129 -0.002924302 1.591673e-26)
(0.004197279 -0.003479116 1.890885e-26)
(0.003749826 -0.003972075 3.185856e-25)
(0.00615735 -0.0003878594 0)
(0.006066711 -0.001160107 -1.047288e-24)
(0.00588218 -0.001910445 -5.278405e-27)
(0.005608427 -0.002629046 -7.26042e-27)
(0.00524496 -0.003310642 0)
(0.004793131 -0.003939345 0)
(0.004285414 -0.004498488 0)
(0.007018687 -0.000438999 -6.127464e-25)
(0.006914619 -0.001312994 -6.004757e-25)
(0.006704806 -0.002162217 -1.205285e-26)
(0.006394174 -0.00297555 -8.282564e-27)
(0.00598146 -0.003747288 0)
(0.005469883 -0.004460201 -4.709176e-25)
(0.004893678 -0.005094868 -5.61964e-26)
(0.007994288 -0.0004967307 -7.004492e-25)
(0.007874961 -0.001485683 -6.859886e-25)
(0.007636775 -0.002446688 -2.058844e-26)
(0.007284404 -0.003367285 -1.887717e-26)
(0.006814774 -0.004240178 0)
(0.006241422 -0.005047244 -5.117025e-25)
(0.005584551 -0.005769807 -3.206572e-26)
(0.00909898 -0.0005618255 -8.009458e-25)
(0.008962354 -0.001680403 -1.562776e-24)
(0.008692726 -0.002767837 -7.502286e-25)
(0.008295007 -0.003812234 0)
(0.007759455 -0.004809192 2.06341e-25)
(0.00713373 -0.005699052 3.10547e-25)
(0.006370863 -0.006531152 7.295864e-26)
(0.01034918 -0.0006350023 -9.15694e-25)
(0.01019286 -0.001899244 -1.781682e-24)
(0.009887895 -0.003127874 -1.705065e-24)
(0.009440691 -0.004305383 -7.844838e-25)
(0.008853311 -0.005417359 3.065506e-26)
(0.00812874 -0.006453348 -6.603018e-25)
(0.007263684 -0.007392956 5.442828e-25)
(0.01176325 -0.0007172897 0)
(0.01158454 -0.0021454 -1.012171e-24)
(0.01123994 -0.003533821 -9.682879e-25)
(0.01073547 -0.004865727 -1.84788e-24)
(0.01007597 -0.006122963 0)
(0.009256076 -0.007298602 -7.563944e-25)
(0.008279855 -0.008364744 1.013244e-27)
(0.01336149 -0.0008095066 1.190581e-24)
(0.01315762 -0.002421414 0)
(0.01276939 -0.003989221 0)
(0.01220181 -0.005494626 3.06069e-26)
(0.01145938 -0.006916795 1.015718e-24)
(0.01053162 -0.008246599 0)
(0.009442342 -0.009454813 -7.709587e-25)
(0.01516615 -0.0009125387 2.714042e-24)
(0.01493415 -0.002729868 0)
(0.01449821 -0.004498525 0)
(0.0138622 -0.006199592 1.167932e-24)
(0.01303168 -0.007814715 2.187301e-24)
(0.01198384 -0.00934292 -1.006741e-24)
(0.01079858 -0.01066274 0)
(0.01720138 -0.001027225 1.545421e-24)
(0.01693802 -0.003073268 8.840433e-27)
(0.01644999 -0.005065514 1.462994e-24)
(0.01573908 -0.006982747 4.016252e-26)
(0.01481472 -0.008799644 5.188888e-26)
(0.01367468 -0.01049739 -1.156107e-24)
(0.01231138 -0.01205635 0)
(0.01949316 -0.001154377 0)
(0.01919527 -0.003454291 -1.713378e-24)
(0.01865081 -0.005695723 1.649435e-24)
(0.01785854 -0.007856553 0)
(0.01682825 -0.009910318 -1.340704e-24)
(0.0155611 -0.01183333 2.726043e-25)
(0.01403116 -0.01361465 1.566154e-25)
(0.022069 -0.001294491 -1.997321e-24)
(0.02173414 -0.003874826 -1.947946e-24)
(0.02112923 -0.006392428 1.874205e-24)
(0.02025075 -0.008823837 0)
(0.01910815 -0.01114135 -1.287386e-25)
(0.01770054 -0.01331876 -2.085116e-28)
(0.01599246 -0.01534731 1.770733e-25)
(0.0249567 -0.001447919 -2.267212e-24)
(0.02458562 -0.004334847 -2.20991e-24)
(0.02391521 -0.007158084 2.130206e-24)
(0.02294618 -0.009888945 0)
(0.02168605 -0.01250059 0)
(0.02013672 -0.01497518 -1.727685e-24)
(0.01824989 -0.01733067 8.18449e-27)
(0.02818571 -0.001612066 -2.573376e-24)
(0.02778154 -0.004834802 -2.520774e-24)
(0.02704007 -0.007994724 0)
(0.02597659 -0.01105438 2.167354e-24)
(0.02459032 -0.01398527 -1.626136e-25)
(0.02288566 -0.0167483 -3.751906e-24)
(0.02084224 -0.01929241 6.686506e-25)
(0.0317778 -0.001798259 -2.906091e-24)
(0.03137004 -0.005354394 0)
(0.03054198 -0.008896692 -2.786786e-24)
(0.0293799 -0.01232607 2.535598e-24)
(0.02786349 -0.01562396 -2.442014e-24)
(0.02598776 -0.01876071 -4.497713e-24)
(0.02371935 -0.02169917 -2.015736e-24)
(0.03580491 -0.001970837 0)
(0.03532935 -0.005936124 0)
(0.03445733 -0.009863278 -6.191286e-24)
(0.03319723 -0.01369803 0)
(0.03155587 -0.01740113 -5.55282e-24)
(0.02952534 -0.02095425 -2.566284e-24)
(0.02706964 -0.02434464 2.311687e-24)
(0.04025198 -0.002179161 -3.718156e-24)
(0.03970089 -0.006577152 3.580931e-24)
(0.03884786 -0.01083499 3.46088e-24)
(0.03748867 -0.01513503 0)
(0.03570721 -0.01929762 -3.153698e-24)
(0.03353506 -0.0232953 0)
(0.03090758 -0.02711342 2.024629e-24)
(0.04515328 -0.002381898 -4.169165e-24)
(0.04461022 -0.007167568 4.080227e-24)
(0.04362182 -0.01196419 1.179563e-23)
(0.04234184 -0.01657532 7.673359e-24)
(0.04037147 -0.0212863 -3.319313e-24)
(0.03806753 -0.02579722 3.007271e-25)
(0.03526232 -0.03014224 -3.507934e-25)
(0.05051023 -0.00259139 7.386852e-27)
(0.04995173 -0.007786088 2.28163e-26)
(0.04899499 -0.01295266 4.60218e-24)
(0.04759121 -0.01814209 8.234777e-24)
(0.04560773 -0.02332996 -4.5904e-24)
(0.04319261 -0.02841671 6.628897e-25)
(0.04024516 -0.03336169 1.55802e-24)
(0.05633311 -0.00280066 -7.967803e-27)
(0.05575327 -0.008422156 -2.468942e-26)
(0.05481953 -0.01404829 4.83547e-24)
(0.05333232 -0.01978531 2.932566e-24)
(0.05154345 -0.0252531 -2.751224e-24)
(0.04902375 -0.03103208 3.578677e-24)
(0.04592962 -0.03667878 0)
(0.06260557 -0.002992891 0)
(0.06201233 -0.009000979 0)
(0.06114077 -0.01501286 5.59166e-24)
(0.05982147 -0.02111721 5.898344e-24)
(0.05789215 -0.02741662 8.098188e-24)
(0.05573655 -0.03346687 7.782093e-24)
(0.05240486 -0.03999769 0)
(0.06928515 -0.003156831 -1.786169e-26)
(0.06868142 -0.009496057 5.369511e-26)
(0.06788425 -0.01585872 1.85246e-25)
(0.06672543 -0.02233239 0)
(0.06506454 -0.02897729 1.170879e-23)
(0.06290444 -0.03593229 -8.305273e-25)
(0.05982529 -0.04319558 -2.010652e-24)
(0.07628818 -0.00326756 -7.099537e-24)
(0.0756811 -0.009841476 5.769596e-26)
(0.07500982 -0.01649565 -6.889044e-24)
(0.07408614 -0.02336607 0)
(0.07275369 -0.03058372 7.278766e-24)
(0.07074448 -0.03837498 8.860112e-25)
(0.06858337 -0.04602095 -9.905337e-24)
(0.0834651 -0.003296295 -7.788033e-24)
(0.08292106 -0.009959471 -7.631137e-24)
(0.08245288 -0.01682204 -7.599651e-24)
(0.0818827 -0.02399356 -5.532558e-25)
(0.08105726 -0.03159876 -1.463332e-24)
(0.07971532 -0.03973783 4.407992e-24)
(0.07793276 -0.04870073 -4.489614e-24)
(0.09062942 -0.003254026 0)
(0.09028214 -0.009767505 8.244966e-24)
(0.09014202 -0.01673979 8.317106e-24)
(0.0900191 -0.02415417 2.8069e-25)
(0.0898513 -0.03216607 -8.920142e-24)
(0.08934567 -0.04101846 -9.508028e-25)
(0.08811916 -0.0510912 0)
(0.09767683 -0.003056111 9.188263e-24)
(0.09746779 -0.009441007 1.78092e-23)
(0.09790022 -0.01607766 8.416986e-24)
(0.09840467 -0.02359299 1.807911e-23)
(0.0990147 -0.03182978 -9.790314e-24)
(0.09966314 -0.04102006 8.088875e-24)
(0.09972916 -0.05151411 2.432644e-22)
(0.1042402 -0.002764395 9.816033e-24)
(0.104504 -0.008611097 -4.996645e-26)
(0.1052118 -0.01509255 0)
(0.1067672 -0.02203554 2.377432e-25)
(0.1083654 -0.03033843 1.983389e-23)
(0.1100325 -0.03997908 1.148197e-22)
(0.1103818 -0.05200835 1.798822e-22)
(0.1100628 -0.002354534 -1.04009e-23)
(0.110865 -0.007442747 8.112747e-26)
(0.1122459 -0.01319145 1.510543e-25)
(0.1142989 -0.01984294 -2.23272e-23)
(0.1172324 -0.02749471 -6.399205e-23)
(0.1190071 -0.03855704 4.969235e-22)
(0.1178184 -0.05358047 -1.173711e-22)
(0.1148066 -0.001818537 -1.08773e-23)
(0.1163186 -0.005878429 0)
(0.118301 -0.01062747 2.298155e-25)
(0.1213631 -0.01652019 -2.570573e-22)
(0.1238333 -0.02519521 3.171025e-23)
(0.124585 -0.03826789 6.967966e-22)
(0.121494 -0.05762826 -1.705394e-22)
(0.11817 -0.001153973 0)
(0.1204145 -0.003818055 6.813859e-26)
(0.1230255 -0.007350682 1.353071e-22)
(0.1265559 -0.01328592 -3.731265e-22)
(0.1279841 -0.02420434 1.503659e-22)
(0.1258986 -0.04105087 3.168549e-22)
(0.1213931 -0.06209684 -7.934929e-22)
(0.1199147 -0.0003376721 0)
(0.1226711 -0.001312458 -1.704202e-22)
(0.125561 -0.003882597 1.513542e-22)
(0.1283819 -0.01117721 3.531324e-22)
(0.1282808 -0.02539539 -6.236529e-23)
(0.1244463 -0.04535016 1.074809e-22)
(0.1175872 -0.07075416 -1.028552e-21)
(0.11953 0.0006869225 -1.139222e-23)
(0.1226675 0.001358705 -4.489639e-22)
(0.1250515 -0.001587556 1.563171e-22)
(0.126003 -0.01135746 6.115596e-22)
(0.1247023 -0.02838336 -1.241365e-22)
(0.1188288 -0.05147432 3.564669e-22)
(0.1110702 -0.07910477 3.403488e-22)
(0.1165371 0.00181513 9.912781e-23)
(0.1195641 0.003283497 -5.437082e-22)
(0.1208013 -0.001241474 1.304328e-22)
(0.119845 -0.01323806 -5.308222e-23)
(0.1159662 -0.03387528 6.55851e-24)
(0.10875 -0.05960227 5.078012e-22)
(0.0995893 -0.09078259 5.400685e-22)
(0.1106971 0.002650242 1.707949e-22)
(0.112889 0.00403104 -4.795133e-22)
(0.1131891 -0.002884054 -2.500718e-23)
(0.1105864 -0.01789811 -2.16042e-22)
(0.1044977 -0.04045955 -5.575137e-23)
(0.09600551 -0.06923521 -4.497447e-24)
(0.08443585 -0.103786 -5.458161e-22)
(0.1019548 0.002747647 1.741359e-23)
(0.1028048 0.003562233 -2.155036e-22)
(0.1015008 -0.005387721 -1.062874e-22)
(0.09810528 -0.02345579 -1.54453e-22)
(0.09130885 -0.04923822 2.937989e-22)
(0.08172751 -0.08167726 -1.9067e-23)
(0.0689341 -0.1191794 -2.33546e-22)
(0.0902667 0.002237735 1.035343e-24)
(0.08976374 0.001275099 -7.59836e-23)
(0.08735472 -0.009595968 1.566913e-22)
(0.08337087 -0.03017252 -6.174892e-23)
(0.07594571 -0.05920499 2.553118e-22)
(0.0658829 -0.09481196 1.105434e-22)
(0.05345154 -0.1355459 3.07414e-22)
(0.0759096 0.0009197208 3.116771e-23)
(0.07470567 -0.002115275 -1.190671e-22)
(0.07212666 -0.01460114 4.151607e-22)
(0.06703656 -0.03774167 -1.054758e-23)
(0.05944848 -0.07026449 9.099255e-23)
(0.0493771 -0.1089054 1.234761e-22)
(0.03624984 -0.1533246 2.604323e-22)
(0.05906906 -0.000342703 -3.199353e-23)
(0.05777449 -0.00521136 5.302905e-23)
(0.05523032 -0.02003445 2.049351e-22)
(0.05007763 -0.04580415 2.725005e-23)
(0.0430325 -0.08036597 4.309975e-23)
(0.03332344 -0.1230072 -7.984455e-23)
(0.02065849 -0.1731452 5.030794e-23)
(0.04062194 -0.001523019 4.657683e-24)
(0.03948641 -0.008198534 2.142825e-23)
(0.03721517 -0.0248135 6.682036e-23)
(0.03337887 -0.05275948 4.911362e-23)
(0.02761005 -0.09019282 9.071818e-23)
(0.01934528 -0.1365729 -2.354718e-23)
(0.008244559 -0.189242 -2.790941e-23)
(0.02144346 -0.002499124 2.357383e-23)
(0.02058183 -0.01070692 -8.755079e-23)
(0.01897926 -0.02855123 -5.303526e-23)
(0.0165175 -0.05835794 -1.211743e-23)
(0.01243583 -0.09811963 4.726173e-23)
(0.006730372 -0.1469446 -5.132779e-23)
(-0.0009525393 -0.2022299 -4.797317e-24)
(0.001558859 -0.003142864 9.321684e-24)
(0.001095562 -0.01234455 -4.657591e-23)
(0.0003282398 -0.03087444 -4.267585e-23)
(-0.0006697094 -0.06184826 -2.21998e-23)
(-0.002433496 -0.1031694 -4.116876e-23)
(-0.005175881 -0.1535543 1.931279e-22)
(-0.008556468 -0.211064 1.966728e-22)
(-0.01853332 -0.003309471 3.928095e-24)
(-0.01843021 -0.01279992 -5.854455e-24)
(-0.01806156 -0.03143302 -8.838815e-24)
(-0.01767183 -0.06262354 -3.9345e-23)
(-0.0175082 -0.1046064 4.887249e-24)
(-0.01669404 -0.1554472 1.47797e-22)
(-0.01492345 -0.2131051 -5.381663e-23)
(-0.03802959 -0.002899226 1.471696e-23)
(-0.03748875 -0.01163703 2.017103e-23)
(-0.03656995 -0.03009759 -4.41064e-23)
(-0.03501552 -0.06183455 4.106056e-25)
(-0.03221909 -0.1027966 1.07209e-23)
(-0.02791604 -0.1516713 4.070776e-23)
(-0.02164019 -0.2074228 -7.343349e-24)
(-0.05585125 -0.002103139 4.979911e-23)
(-0.0555062 -0.009956556 5.923739e-23)
(-0.05441403 -0.02745061 -8.681682e-23)
(-0.05127746 -0.05713268 5.243396e-24)
(-0.0460856 -0.09659917 -2.593344e-23)
(-0.03892888 -0.1438542 6.741193e-24)
(-0.02902898 -0.1970386 1.779922e-22)
(-0.07224262 -0.001309271 1.410319e-23)
(-0.07190759 -0.007912786 5.453644e-24)
(-0.07021166 -0.02358632 -7.388519e-23)
(-0.06571302 -0.05095799 -1.728499e-23)
(-0.05864107 -0.08803239 -1.451479e-23)
(-0.04944725 -0.1323507 -1.844068e-22)
(-0.03774444 -0.1826255 -2.021689e-22)
(-0.08700639 -5.482806e-05 -1.276141e-23)
(-0.08617354 -0.004996197 -4.753749e-23)
(-0.08404316 -0.01893953 -3.718651e-23)
(-0.07934336 -0.04353369 5.346394e-23)
(-0.07149438 -0.07873414 -2.903227e-23)
(-0.06144186 -0.1206796 -4.611288e-22)
(-0.04867986 -0.1656713 -4.738014e-22)
(-0.09912566 0.001235487 -2.915327e-22)
(-0.09880622 -0.001746814 2.731812e-22)
(-0.09662086 -0.01406483 1.194062e-22)
(-0.09282763 -0.03628723 -1.991991e-22)
(-0.08518802 -0.06823456 7.19553e-23)
(-0.07486038 -0.1071757 -8.897404e-23)
(-0.06164907 -0.1500098 -3.339876e-22)
(-0.1084472 0.001824959 -5.216789e-22)
(-0.1092882 0.0006165496 3.289176e-22)
(-0.1079208 -0.01010647 -3.137229e-24)
(-0.104744 -0.0297617 -2.21411e-22)
(-0.097646 -0.05833825 1.13271e-22)
(-0.08751144 -0.09417013 -1.696244e-22)
(-0.07410479 -0.1347198 -5.322223e-22)
(-0.1151287 0.001774503 -1.514403e-22)
(-0.1171328 0.001513819 -1.945046e-22)
(-0.1168845 -0.007055518 -3.80113e-22)
(-0.1144694 -0.02390834 4.627522e-23)
(-0.108357 -0.0492355 3.027944e-22)
(-0.09866593 -0.08150905 2.397784e-23)
(-0.08660218 -0.1197927 -3.023471e-22)
(-0.1191004 0.001052942 5.241401e-23)
(-0.1218032 0.001028372 -1.006502e-22)
(-0.1227718 -0.00527841 -4.323406e-22)
(-0.1214078 -0.01926425 3.009017e-22)
(-0.1168802 -0.04180206 3.9517e-22)
(-0.1084869 -0.07058491 -1.794771e-22)
(-0.09795171 -0.1043224 -2.940923e-22)
(-0.1204388 3.774988e-05 -1.149182e-23)
(-0.1231865 -0.0006092787 7.106035e-23)
(-0.1252983 -0.004951468 -8.76957e-23)
(-0.1254985 -0.01616569 4.317697e-22)
(-0.123339 -0.03516154 -1.922256e-22)
(-0.1165811 -0.0610215 -3.688932e-24)
(-0.1066993 -0.09134617 -5.81957e-22)
(-0.1195284 -0.0008515331 0)
(-0.1218185 -0.002897499 -1.174933e-22)
(-0.1244928 -0.006507616 -2.976284e-23)
(-0.1268307 -0.01507067 3.543208e-23)
(-0.1264071 -0.03116082 -1.093102e-22)
(-0.1214395 -0.05294177 -1.209155e-22)
(-0.1126785 -0.08016569 -2.212985e-22)
(-0.1167442 -0.00157013 0)
(-0.1185434 -0.005021836 -1.096451e-25)
(-0.1210208 -0.009346151 -1.32369e-22)
(-0.1243017 -0.01640382 1.347084e-22)
(-0.1253962 -0.02877122 -1.252821e-22)
(-0.1227084 -0.04698578 2.944329e-22)
(-0.116281 -0.06934074 -3.708525e-22)
(-0.1125422 -0.002164968 -1.054433e-23)
(-0.113637 -0.006851421 0)
(-0.1155352 -0.01225404 0)
(-0.1183994 -0.01890789 2.220819e-22)
(-0.1205176 -0.02858146 -2.230233e-22)
(-0.1205203 -0.04252894 9.40208e-24)
(-0.1162631 -0.06221515 -5.879004e-22)
(-0.1071491 -0.002622928 -9.977249e-24)
(-0.1075984 -0.008187039 -9.508136e-26)
(-0.1087918 -0.01439246 -1.739649e-25)
(-0.1105903 -0.02152386 -1.741593e-24)
(-0.112987 -0.02970876 1.088269e-22)
(-0.1140297 -0.041102 -6.151113e-22)
(-0.112295 -0.05633117 -5.217321e-22)
(-0.1008389 -0.002960891 0)
(-0.1008143 -0.009120078 9.273955e-24)
(-0.1013235 -0.01583063 0)
(-0.1024625 -0.02302026 -5.305256e-25)
(-0.1035922 -0.03145854 -7.362768e-25)
(-0.1045918 -0.0411848 -2.404526e-22)
(-0.1044676 -0.05288514 -3.998747e-22)
(-0.09396715 -0.003184141 0)
(-0.09355909 -0.009732555 -8.493277e-24)
(-0.09372718 -0.01646934 8.481565e-24)
(-0.09392433 -0.02396386 0)
(-0.09412408 -0.032171 -1.445477e-24)
(-0.09437497 -0.04105988 4.493059e-24)
(-0.09383895 -0.05127128 -6.430041e-23)
(-0.08668591 -0.003314037 0)
(-0.0862591 -0.009905743 -2.342765e-23)
(-0.08594279 -0.01681645 -1.089401e-26)
(-0.08556683 -0.02413979 -1.625795e-23)
(-0.08515001 -0.03185175 -1.44906e-24)
(-0.08427714 -0.04044367 7.312423e-24)
(-0.08274828 -0.0500644 -8.116921e-24)
(-0.07940797 -0.003292846 7.221554e-24)
(-0.07890792 -0.009914171 -7.222424e-24)
(-0.07834828 -0.01665333 2.348698e-27)
(-0.07764104 -0.02365093 -1.339005e-23)
(-0.07658325 -0.03101621 0)
(-0.0750531 -0.03881191 0)
(-0.07308882 -0.04730024 -9.632882e-24)
(-0.07227099 -0.003208359 6.518337e-24)
(-0.0717369 -0.009669085 -6.487792e-24)
(-0.07102516 -0.01620016 6.305476e-24)
(-0.07006876 -0.02281914 6.158558e-24)
(-0.06858589 -0.02981688 0)
(-0.06650315 -0.03724985 0)
(-0.06429499 -0.04451541 -6.921095e-24)
(-0.06540125 -0.003068518 -5.886624e-24)
(-0.06484732 -0.009253718 -5.983277e-24)
(-0.06407174 -0.01541267 -1.743742e-25)
(-0.06286795 -0.02173324 5.238372e-24)
(-0.06111937 -0.02824335 1.801799e-24)
(-0.05899417 -0.03472225 -7.547362e-24)
(-0.05601677 -0.04168641 3.668832e-24)
(-0.05890802 -0.002885851 -5.288777e-24)
(-0.05837084 -0.008692356 -5.032276e-26)
(-0.05750212 -0.01450932 1.659901e-25)
(-0.05618063 -0.02038514 2.34741e-25)
(-0.05433395 -0.02639426 0)
(-0.05203258 -0.03234229 -4.948284e-24)
(-0.04893181 -0.03850401 4.036651e-24)
(-0.05284095 -0.002697143 0)
(-0.05232226 -0.008091567 -9.199939e-26)
(-0.05139944 -0.01351807 -1.554358e-25)
(-0.04994804 -0.01903251 1.003711e-23)
(-0.04822321 -0.02429009 2.06313e-24)
(-0.04570441 -0.02982295 6.917452e-24)
(-0.04273913 -0.0351903 2.680982e-24)
(-0.04724466 -0.002482903 -1.389401e-26)
(-0.04672587 -0.007465421 -4.296927e-26)
(-0.04579772 -0.01242282 0)
(-0.04443571 -0.01739226 -1.158447e-26)
(-0.04251603 -0.02235417 3.571585e-24)
(-0.04016215 -0.02720637 3.315468e-24)
(-0.03731446 -0.03191004 -7.278062e-25)
(-0.04211036 -0.002277029 3.697583e-24)
(-0.04159997 -0.006852713 -3.715736e-24)
(-0.04064841 -0.01143892 6.335301e-24)
(-0.03941148 -0.01584152 -7.441749e-24)
(-0.03751036 -0.02033244 2.892037e-24)
(-0.03528234 -0.02462414 0)
(-0.03257556 -0.02874724 6.539634e-25)
(-0.03742571 -0.002077417 3.281027e-24)
(-0.03690495 -0.006271067 -3.151591e-24)
(-0.0360865 -0.01032923 3.036987e-24)
(-0.03477985 -0.01442298 0)
(-0.03306589 -0.01838043 -2.740212e-24)
(-0.03097496 -0.02217367 0)
(-0.02844821 -0.02578706 2.26355e-24)
(-0.03318712 -0.001873939 0)
(-0.03273772 -0.005644517 0)
(-0.03190423 -0.009376899 -5.393872e-24)
(-0.03069656 -0.01301804 0)
(-0.02912216 -0.01652933 -4.783894e-24)
(-0.02717469 -0.01989183 -2.191514e-24)
(-0.02482184 -0.02309186 1.94966e-24)
(-0.02935936 -0.001705408 -2.525122e-24)
(-0.02897494 -0.005078122 0)
(-0.02818536 -0.008435985 -2.315428e-24)
(-0.02707459 -0.01168401 2.308099e-24)
(-0.0256244 -0.01480305 -2.084649e-24)
(-0.02383129 -0.01776372 -3.802756e-24)
(-0.02166502 -0.02052952 -1.68103e-24)
(-0.02595411 -0.001525075 -2.209127e-24)
(-0.02557363 -0.004574137 -2.142015e-24)
(-0.02486822 -0.007562473 0)
(-0.02385441 -0.01045348 2.073344e-24)
(-0.02253257 -0.01321873 1.492963e-25)
(-0.02090801 -0.01582 -3.478805e-24)
(-0.01896235 -0.01820823 -6.130992e-25)
(-0.02290141 -0.001366758 -1.935858e-24)
(-0.02255335 -0.004092341 -1.882259e-24)
(-0.02191686 -0.006756637 1.807059e-24)
(-0.02099495 -0.009331114 0)
(-0.01979648 -0.01178914 0)
(-0.01832461 -0.01411277 -1.428126e-24)
(-0.01653489 -0.01631768 2.637007e-24)
(-0.02018094 -0.001219957 -1.688901e-24)
(-0.01986543 -0.003651738 -1.642561e-24)
(-0.01929032 -0.006022185 1.573107e-24)
(-0.0184567 -0.008308746 0)
(-0.0173733 -0.01048469 1.173194e-25)
(-0.01604033 -0.01252437 1.710197e-28)
(-0.01442428 -0.01441805 -1.606919e-25)
(-0.0177494 -0.001085378 0)
(-0.01747098 -0.003247854 -1.428204e-24)
(-0.01695716 -0.005354226 1.368343e-24)
(-0.01620867 -0.00738238 0)
(-0.0152351 -0.009306559 -1.290304e-24)
(-0.01403878 -0.01110455 -2.470222e-25)
(-0.01259531 -0.01276494 -1.415948e-25)
(-0.01559719 -0.0009635908 1.276563e-24)
(-0.01535152 -0.002883059 -8.022022e-27)
(-0.01489223 -0.004751173 1.172923e-24)
(-0.0142221 -0.00654705 -3.637472e-26)
(-0.01335088 -0.008246282 -4.466918e-26)
(-0.01227707 -0.009831066 -9.143134e-25)
(-0.01099332 -0.01128298 0)
(-0.01368993 -0.000854158 2.212021e-24)
(-0.01347394 -0.002555455 0)
(-0.01306455 -0.004210485 0)
(-0.01246647 -0.005800713 9.953614e-25)
(-0.01168569 -0.007308417 1.804868e-24)
(-0.0107012 -0.008732195 -7.81113e-25)
(-0.00958689 -0.009957626 0)
(-0.0120023 -0.0007561754 9.559407e-25)
(-0.01181285 -0.002262171 -6.231602e-27)
(-0.01144897 -0.003726407 -1.028558e-26)
(-0.0109164 -0.005131063 -2.889757e-26)
(-0.01021997 -0.006456328 7.219441e-25)
(-0.009349674 -0.007693043 0)
(-0.008329796 -0.00881393 -5.679756e-25)
(-0.01051065 -0.0006687501 -9.128136e-28)
(-0.01034489 -0.002000546 -8.086725e-25)
(-0.01002249 -0.003294885 -7.725322e-25)
(-0.00955005 -0.004535424 -1.426383e-24)
(-0.008932643 -0.005705016 0)
(-0.00816499 -0.006796879 -5.592099e-25)
(-0.007253249 -0.007784284 8.936441e-28)
(-0.009193345 -0.0005909669 -7.079126e-25)
(-0.009048601 -0.001767891 -1.377947e-24)
(-0.00876374 -0.002911308 -1.318402e-24)
(-0.008345684 -0.004006162 -6.32596e-25)
(-0.007796776 -0.005038902 -2.728579e-26)
(-0.007119732 -0.005999768 -4.74675e-25)
(-0.006313118 -0.006868673 4.42877e-25)
(-0.008030705 -0.0005219867 -6.072866e-25)
(-0.007904423 -0.001561608 -1.178361e-24)
(-0.007652945 -0.002571994 -5.604342e-25)
(-0.007281798 -0.003541504 0)
(-0.006782238 -0.004465974 -1.845177e-25)
(-0.006198627 -0.00528996 -2.763668e-25)
(-0.005488247 -0.006058443 -6.441303e-26)
(-0.007005041 -0.0004607916 -5.193336e-25)
(-0.006894937 -0.00137854 -5.009581e-25)
(-0.006673096 -0.002270114 1.822925e-26)
(-0.006344778 -0.003123449 1.668933e-26)
(-0.005907141 -0.003931627 0)
(-0.005373855 -0.004677699 -3.447771e-25)
(-0.004762961 -0.005344187 2.81723e-26)
(-0.006100557 -0.0004066618 -4.416531e-25)
(-0.006004726 -0.001216603 -4.259331e-25)
(-0.005809591 -0.002003381 1.062669e-26)
(-0.005520606 -0.002756222 7.291521e-27)
(-0.00513662 -0.003469727 0)
(-0.004661766 -0.004127702 -2.663758e-25)
(-0.004126999 -0.004712496 4.914981e-26)
(-0.005303042 -0.000358848 4.709441e-28)
(-0.005219785 -0.001073636 -7.218071e-25)
(-0.005048395 -0.00176796 4.636329e-27)
(-0.004794111 -0.002432331 6.36725e-27)
(-0.004456532 -0.003061624 0)
(-0.004038005 -0.003641031 0)
(-0.003567915 -0.004155288 0)
(-0.004599911 -0.0003167568 0)
(-0.004527626 -0.0009476657 -3.041262e-25)
(-0.004377374 -0.001560365 0)
(-0.004152916 -0.002147104 2.527174e-25)
(-0.003857161 -0.002701483 -1.388428e-26)
(-0.003489463 -0.003212147 -1.643888e-26)
(-0.003076162 -0.00366481 1.388034e-25)
(-0.003979516 -0.0002798152 -2.631053e-25)
(-0.003916885 -0.0008372111 0)
(-0.003784808 -0.001379324 7.045988e-27)
(-0.003581978 -0.00190271 1.52495e-25)
(-0.003329327 -0.002383233 -2.867384e-25)
(-0.003006757 -0.002834779 0)
(-0.002643835 -0.003233651 1.254764e-25)
(-0.003431748 -0.0002473155 -2.182094e-25)
(-0.003377713 -0.0007397373 0)
(-0.003262203 -0.001217967 3.074827e-27)
(-0.00308667 -0.001678028 4.222149e-27)
(-0.002857395 -0.002110173 -3.116296e-25)
(-0.002581156 -0.002504404 1.29059e-25)
(-0.002263562 -0.002855466 -9.838408e-26)
(-0.002947547 -0.0002187785 0)
(-0.002901484 -0.000654181 -1.708918e-25)
(-0.002801107 -0.001077082 2.6806e-27)
(-0.002648612 -0.001484357 1.439464e-25)
(-0.002446367 -0.001866767 -1.248411e-25)
(-0.002206384 -0.002214356 1.014832e-25)
(-0.001928778 -0.002524281 1.612228e-28)
(-0.002519525 -0.0001935434 0)
(-0.002480399 -0.0005789923 -1.394274e-25)
(-0.002393266 -0.000953871 1.297505e-25)
(-0.00226062 -0.001314919 1.178248e-25)
(-0.002084186 -0.00165363 -9.424672e-26)
(-0.001875389 -0.001961201 9.388047e-27)
(-0.001633607 -0.002235212 5.459039e-26)
(-0.002141821 -0.0001714501 0)
(-0.002107424 -0.000513495 0)
(-0.002031786 -0.0008466769 1.022593e-25)
(-0.001916648 -0.001167515 -8.932028e-26)
(-0.001763659 -0.001468277 9.617214e-29)
(-0.001582677 -0.001741229 0)
(-0.00137311 -0.001984136 0)
(-0.001806254 -0.0001524583 -9.010059e-26)
(-0.001775963 -0.0004571648 8.571398e-26)
(-0.001710386 -0.0007541736 3.742873e-26)
(-0.001610924 -0.001040192 -6.954859e-26)
(-0.001479055 -0.00130826 -8.049165e-29)
(-0.001323102 -0.001551316 7.104086e-27)
(-0.001142583 -0.001767321 5.70511e-31)
(-0.001507218 -0.0001364223 1.109331e-29)
(-0.001480078 -0.0004092581 6.372534e-26)
(-0.001423556 -0.0006750416 2.722762e-26)
(-0.001338256 -0.0009311501 -2.128913e-27)
(-0.001225226 -0.001171104 -7.74595e-26)
(-0.001091895 -0.001388567 -3.102057e-27)
(-0.0009376833 -0.001581554 0)
(-0.00123797 -0.0001230731 4.776907e-26)
(-0.001214637 -0.000368761 -2.223667e-26)
(-0.001166058 -0.000608159 -1.96222e-26)
(-0.001093991 -0.0008384018 0)
(-0.000998314 -0.001054628 -2.222053e-26)
(-0.0008852406 -0.001250587 -2.724062e-27)
(-0.0007547169 -0.001424081 -3.04836e-27)
(-0.0009941416 -0.0001115584 0)
(-0.0009747615 -0.00033462 -1.373736e-26)
(-0.000932059 -0.0005536812 -1.742014e-27)
(-0.0008738056 -0.0007609727 1.319097e-26)
(-0.000793548 -0.0009571588 -6.646173e-27)
(-0.0006990779 -0.00113469 -2.406223e-27)
(-0.0005889617 -0.001291645 0)
(-0.0007732545 -0.0001018946 0)
(-0.0007564654 -0.0003061144 -3.325579e-28)
(-0.0007213327 -0.0005065953 5.458348e-28)
(-0.0006711283 -0.0006986915 -1.762823e-27)
(-0.0006065647 -0.0008774676 -1.826839e-27)
(-0.0005286072 -0.001038975 1.719539e-26)
(-0.0004445096 -0.001189535 3.889279e-26)
(-0.000570139 -9.413572e-05 5.116974e-29)
(-0.0005554995 -0.0002829808 1.084919e-27)
(-0.000526757 -0.0004693475 5.000857e-27)
(-0.0004865922 -0.0006479595 9.497595e-27)
(-0.0004338419 -0.0008121351 8.35285e-27)
(-0.0003778768 -0.000969225 1.571126e-26)
(-0.0003107957 -0.001107458 3.634235e-28)
(-0.0003819795 -8.756554e-05 -6.122529e-27)
(-0.0003674934 -0.0002647126 1.395195e-26)
(-0.0003442039 -0.0004413732 1.604615e-26)
(-0.0003116673 -0.0006070371 9.157798e-27)
(-0.0002796612 -0.0007686361 -3.261133e-28)
(-0.0002368658 -0.0009156796 0)
(-0.0001867992 -0.001044978 -2.329434e-28)
(-0.0002056948 -8.174012e-05 -1.223716e-26)
(-0.0001893973 -0.0002493894 1.289035e-26)
(-0.000170136 -0.0004175745 -7.119385e-27)