/*--------------------------------*- C++ -*----------------------------------*\
| =========                 |                                                 |
| \\      /  F ield         | OpenFOAM: The Open Source CFD Toolbox           |
|  \\    /   O peration     | Version:  2206                                  |
|   \\  /    A nd           | Website:  www.openfoam.com                      |
|    \\/     M anipulation  |                                                 |
\*---------------------------------------------------------------------------*/
FoamFile
{
    version     2.0;
    format      ascii;
    arch        "LSB;label=32;scalar=64";
    class       volScalarField;
    location    "2.6";
    object      ddt0(alpha.a);
}
// * * * * * * * * * * * * * * * * * * * * * * * * * * * * * * * * * * * * * //

dimensions      [0 0 -1 0 0 0 0];

internalField   nonuniform List<scalar> 
13078
(
-0.2136819
-0.01840168
-0.002415867
-0.0006038664
-0.0001891369
-0.0001239836
-0.0001086664
-0.00970544
-0.003106752
-0.0009396204
-0.0003131535
-0.0001484827
-0.0001196253
-0.000105767
-0.001938942
-0.001006818
-0.0003561443
-0.0001674109
-0.0001254693
-0.0001089796
-9.847566e-05
-0.0001442362
-0.000220415
-0.0001305798
-0.0001044615
-9.810291e-05
-9.249966e-05
-8.781047e-05
0.0001375683
-6.974576e-06
-4.756984e-05
-6.381108e-05
-6.960844e-05
-7.351842e-05
-7.553329e-05
0.0001472201
3.749524e-05
-5.69254e-06
-3.148022e-05
-4.793039e-05
-5.680674e-05
-6.339295e-05
0.0001200612
4.639444e-05
1.376705e-05
-1.231977e-05
-3.091009e-05
-4.480661e-05
-5.36227e-05
9.427659e-05
4.13979e-05
1.957193e-05
-3.59258e-06
-2.116038e-05
-3.568023e-05
-4.702437e-05
7.413097e-05
3.235196e-05
1.857173e-05
-6.255828e-07
-1.645601e-05
-3.048819e-05
-4.203137e-05
5.883689e-05
2.306153e-05
1.438539e-05
-1.187058e-06
-1.499858e-05
-2.809263e-05
-3.951235e-05
4.702736e-05
1.445872e-05
9.142312e-06
-3.57073e-06
-1.567639e-05
-2.77527e-05
-3.870275e-05
3.746962e-05
6.805148e-06
3.672477e-06
-7.066496e-06
-1.775224e-05
-2.881403e-05
-3.913341e-05
2.940622e-05
-7.780266e-09
-1.691864e-06
-1.104395e-05
-2.065845e-05
-3.075926e-05
-4.036746e-05
2.242937e-05
-6.17447e-06
-7.00727e-06
-1.555e-05
-2.427552e-05
-3.328133e-05
-4.214186e-05
1.613867e-05
-1.193997e-05
-1.215346e-05
-1.944234e-05
-2.739332e-05
-3.59791e-05
-4.446594e-05
1.018093e-05
-1.75119e-05
-1.719959e-05
-2.394484e-05
-3.1526e-05
-3.925337e-05
-4.725775e-05
4.368748e-06
-2.294459e-05
-2.220496e-05
-2.829774e-05
-3.556989e-05
-4.290914e-05
-5.026972e-05
-1.413259e-06
-2.830512e-05
-2.723988e-05
-3.304084e-05
-3.995524e-05
-4.66409e-05
-5.32713e-05
-7.28979e-06
-3.377439e-05
-3.2517e-05
-3.808002e-05
-4.47679e-05
-5.086164e-05
-5.646369e-05
-1.342044e-05
-3.963091e-05
-3.808299e-05
-4.325185e-05
-4.844877e-05
-5.411926e-05
-5.962545e-05
-2.002207e-05
-4.596256e-05
-4.398431e-05
-4.874113e-05
-5.374411e-05
-5.927422e-05
-6.315247e-05
-2.723627e-05
-5.270758e-05
-5.034234e-05
-5.471641e-05
-5.898903e-05
-6.405505e-05
-6.708836e-05
-3.512766e-05
-5.997612e-05
-5.733344e-05
-6.124713e-05
-6.504865e-05
-6.977776e-05
-7.216611e-05
-4.381209e-05
-6.809863e-05
-6.502679e-05
-6.840433e-05
-7.155108e-05
-7.40089e-05
-7.593382e-05
-5.341876e-05
-7.717972e-05
-7.352022e-05
-7.63375e-05
-7.890088e-05
-8.112866e-05
-8.297094e-05
-6.414805e-05
-8.709395e-05
-8.289183e-05
-8.512436e-05
-8.696658e-05
-8.778186e-05
-8.881008e-05
-7.611851e-05
-9.809677e-05
-9.327404e-05
-9.462767e-05
-9.556936e-05
-9.529208e-05
-9.615537e-05
-8.928978e-05
-0.0001101839
-0.0001046984
-0.0001049564
-0.0001048989
-0.0001030655
-9.974586e-05
-0.0001042422
-0.0001239393
-0.0001171307
-0.0001163422
-0.0001148414
-0.000112028
-0.000107936
-0.0001201682
-0.0001380048
-0.0001303757
-0.0001287319
-0.0001257105
-0.0001211683
-0.0001142829
-0.0001382557
-0.0001548153
-0.0001454775
-0.0001416797
-0.0001373645
-0.0001310774
-0.0001223088
-0.0001572787
-0.0001704761
-0.0001603308
-0.0001559434
-0.0001494553
-0.0001414251
-0.0001319448
-0.0001778376
-0.0001888823
-0.0001758522
-0.0001688983
-0.0001615249
-0.0001525723
-0.0001417822
-0.0001989288
-0.000207171
-0.0001936655
-0.0001869684
-0.0001776776
-0.0001662521
-0.0001540492
-0.0002207169
-0.0002262306
-0.0002128943
-0.0002067334
-0.0001997758
-0.0001901192
-0.0001734028
-0.0002424034
-0.0002497411
-0.0002447559
-0.0002455809
-0.0002369186
-0.0002190365
-0.0001935004
-0.0002656808
-0.0002867822
-0.0002935027
-0.0002953552
-0.0002834346
-0.0002584619
-0.0002049709
-0.0002983868
-0.0003371776
-0.0003530785
-0.0003551997
-0.0003317533
-0.000283415
-0.0002018365
-0.0003412721
-0.0003963806
-0.0004196796
-0.0004158984
-0.0003789694
-0.0003071024
-0.0001979987
-0.0003926669
-0.0004574999
-0.0004850562
-0.0004713163
-0.000423437
-0.0003340473
-0.000185684
-0.0004552005
-0.0005133847
-0.0005405223
-0.0005254554
-0.000469661
-0.0003810262
-0.0003329739
-0.0005179857
-0.000562201
-0.0005810865
-0.0005721361
-0.0005270631
-0.0005845393
-0.001083411
-0.0005759202
-0.0005908293
-0.000607194
-0.0006035322
-0.0007146604
-0.001379838
-0.002382091
-0.0006140989
-0.0005931541
-0.0006040569
-0.0007228233
-0.001367533
-0.002553221
-0.003658064
-0.0006147974
-0.0005672173
-0.0006229938
-0.001281553
-0.002452569
-0.003634957
-0.004751608
-0.0005818559
-0.0005205849
-0.0008995592
-0.002212503
-0.003488985
-0.004655143
-0.005665491
-0.0005317366
-0.0006374588
-0.001605695
-0.003035992
-0.004424763
-0.005560688
-0.006447579
-0.0004931844
-0.001090904
-0.002458048
-0.003841824
-0.005196966
-0.006091291
-0.007170771
-0.0005875074
-0.001725882
-0.003190228
-0.00458855
-0.005822744
-0.006797433
-0.007627214
-0.000832119
-0.002282374
-0.003774858
-0.005171118
-0.006372382
-0.007254107
-0.007802863
-0.001288114
-0.002819929
-0.00408462
-0.00556383
-0.00670594
-0.007480275
-0.007829823
-0.001822016
-0.003237896
-0.004606695
-0.006114679
-0.00708145
-0.007605239
-0.007450529
-0.002280113
-0.003500599
-0.004932329
-0.00614766
-0.007061978
-0.007498273
-0.005791448
-0.002563247
-0.003582757
-0.004976457
-0.006128617
-0.006951429
-0.007003648
-0.00370099
-0.002771997
-0.00364838
-0.005011776
-0.006115952
-0.006831088
-0.006438347
-0.002555135
-0.002940717
-0.003644453
-0.004961766
-0.006024057
-0.006658257
-0.005968492
-0.002112099
-0.002802731
-0.003389356
-0.004642578
-0.005671923
-0.006266252
-0.005501622
-0.001770415
-0.002486233
-0.003181473
-0.004428752
-0.005473785
-0.006090803
-0.005399261
-0.001661913
-0.002164347
-0.002965361
-0.004190681
-0.005225365
-0.005843202
-0.0052609
-0.001534252
-0.001727653
-0.002599491
-0.003751427
-0.004726797
-0.005309768
-0.004805826
-0.001363835
-0.001163246
-0.002138327
-0.003034912
-0.004170732
-0.004847961
-0.004581567
-0.001655049
-0.0005798956
-0.001683992
-0.002674743
-0.003900844
-0.00460159
-0.004417948
-0.001498046
-0.000182145
-0.001290214
-0.002354739
-0.003297581
-0.003965287
-0.003882277
-0.001182851
3.131635e-05
-0.0007997684
-0.00176905
-0.002633483
-0.003281655
-0.003346037
-0.001418332
5.873231e-05
-0.0003224727
-0.001185747
-0.00196053
-0.002781332
-0.003064942
-0.002026433
-3.096348e-06
-3.635654e-05
-0.0006114233
-0.001476809
-0.00225761
-0.002568288
-0.001824893
-0.0001051707
-3.341174e-05
-0.000205389
-0.0009536613
-0.00149993
-0.001888957
-0.001712988
-0.0001710904
-0.0001214265
-8.546291e-05
-0.0003643018
-0.0008588513
-0.001331216
-0.001441306
-0.0002085286
-0.0001844915
-0.0001298206
-0.0001052156
-0.0003345372
-0.0008056306
-0.0008403945
-0.0002128044
-0.0002248491
-0.000189458
-0.0001117534
-6.933429e-05
-0.0002515949
-0.0004295798
-0.0002007541
-0.0002444816
-0.0002320471
-0.0001722313
-7.550636e-05
-2.608608e-06
-9.209435e-05
-0.0001839175
-0.0002486314
-0.0002597877
-0.0002238638
-0.0001449841
-3.927595e-05
4.79985e-05
-0.0001711235
-0.0002413769
-0.0002689592
-0.0002598172
-0.0002192062
-0.0001401983
-4.767253e-05
-0.000160516
-0.0002283599
-0.0002608632
-0.0002739491
-0.0002613518
-0.0002313303
-0.0001656555
-0.0001576338
-0.0002131026
-0.0002453574
-0.0002683912
-0.0002778441
-0.0002731613
-0.0002558483
-0.000159213
-0.0002012417
-0.0002262879
-0.0002537631
-0.0002743369
-0.0002849886
-0.0002941801
-0.0001576746
-0.0001972948
-0.0002134083
-0.0002361638
-0.0002572925
-0.0002765593
-0.0002957197
-0.0001531822
-0.0001908474
-0.000204716
-0.0002242007
-0.0002427658
-0.0002604247
-0.0002790733
-0.0001462992
-0.0001824652
-0.0001943376
-0.0002123218
-0.000228513
-0.000243356
-0.0002580385
-0.0001366488
-0.0001721584
-0.0001817015
-0.0001969138
-0.000211305
-0.0002237432
-0.0002347015
-0.0001261637
-0.0001597319
-0.0001679849
-0.0001816149
-0.0001933171
-0.0002030374
-0.0002106943
-0.0001145694
-0.000147248
-0.0001532086
-0.0001646335
-0.0001747517
-0.0001825168
-0.0001871418
-0.0001025683
-0.0001336242
-0.0001380835
-0.0001480362
-0.0001569758
-0.0001632111
-0.0001662671
-9.125297e-05
-0.0001211503
-0.0001238695
-0.0001325014
-0.0001404075
-0.0001456247
-0.0001484249
-7.972582e-05
-0.0001087379
-0.0001104361
-0.0001183823
-0.0001252343
-0.0001298532
-0.0001323267
-6.908334e-05
-9.739544e-05
-9.822652e-05
-0.0001053644
-0.0001115801
-0.0001161554
-0.0001204924
-5.932035e-05
-8.684312e-05
-8.714536e-05
-9.345206e-05
-9.934725e-05
-0.0001038959
-0.0001076536
-5.004925e-05
-7.712926e-05
-7.68995e-05
-8.261828e-05
-8.836485e-05
-9.30979e-05
-9.693341e-05
-4.143563e-05
-6.83543e-05
-6.752323e-05
-7.32979e-05
-7.886336e-05
-8.34407e-05
-8.687932e-05
-3.367834e-05
-6.048084e-05
-5.935466e-05
-6.490169e-05
-7.050546e-05
-7.658017e-05
-7.977556e-05
-2.665589e-05
-5.315278e-05
-5.212792e-05
-5.76753e-05
-6.322733e-05
-6.896864e-05
-7.274012e-05
-2.000228e-05
-4.664401e-05
-4.557251e-05
-5.105251e-05
-5.660642e-05
-6.271101e-05
-6.708383e-05
-1.393142e-05
-4.07354e-05
-3.947999e-05
-4.498083e-05
-5.071048e-05
-5.677427e-05
-6.217476e-05
-8.305739e-06
-3.519994e-05
-3.397471e-05
-3.95187e-05
-4.614643e-05
-5.223473e-05
-5.800204e-05
-2.937297e-06
-2.986791e-05
-2.871034e-05
-3.44496e-05
-4.106172e-05
-4.745102e-05
-5.411327e-05
2.334206e-06
-2.469752e-05
-2.374006e-05
-2.971195e-05
-3.657862e-05
-4.357155e-05
-5.065658e-05
7.500934e-06
-1.963761e-05
-1.893492e-05
-2.519313e-05
-3.248608e-05
-3.992328e-05
-4.735605e-05
1.278073e-05
-1.451341e-05
-1.420866e-05
-2.090134e-05
-2.846512e-05
-3.651661e-05
-4.438113e-05
1.841743e-05
-9.317475e-06
-9.45656e-06
-1.705686e-05
-2.503628e-05
-3.344502e-05
-4.17725e-05
2.444395e-05
-3.909572e-06
-4.591891e-06
-1.272888e-05
-2.128115e-05
-3.049995e-05
-3.942415e-05
3.105426e-05
1.824128e-06
3.694659e-07
-8.679977e-06
-1.802568e-05
-2.798932e-05
-3.749286e-05
3.862733e-05
8.245657e-06
5.548707e-06
-4.803183e-06
-1.525083e-05
-2.611109e-05
-3.621362e-05
4.769596e-05
1.56261e-05
1.084712e-05
-1.403095e-06
-1.326913e-05
-2.511268e-05
-3.585749e-05
5.91379e-05
2.400285e-05
1.598307e-05
1.002535e-06
-1.257646e-05
-2.553658e-05
-3.675485e-05
7.398073e-05
3.325117e-05
2.004903e-05
1.659776e-06
-1.394425e-05
-2.781938e-05
-3.949964e-05
9.361742e-05
4.234364e-05
2.101685e-05
-8.477757e-07
-1.851101e-05
-3.306632e-05
-4.35307e-05
0.0001187961
4.775133e-05
1.569552e-05
-9.583977e-06
-2.834801e-05
-4.07819e-05
-5.063904e-05
0.0001454905
4.035118e-05
-1.536955e-06
-2.778494e-05
-4.261068e-05
-5.326082e-05
-6.056411e-05
0.0001425718
7.732993e-07
-4.171473e-05
-5.572848e-05
-6.500169e-05
-7.000951e-05
-7.214235e-05
-0.0001151784
-0.0001979941
-0.0001118446
-9.81731e-05
-9.312411e-05
-8.815639e-05
-8.450914e-05
-0.001754638
-0.0009155835
-0.0003354169
-0.0001597895
-0.0001189777
-0.0001047253
-9.555445e-05
-0.008631474
-0.002488463
-0.0007400964
-0.0002726338
-0.0001461701
-0.0001163866
-0.0001036454
-9.525564e-05
-7.900118e-05
-6.027584e-05
-4.303019e-05
-1.97623e-05
-5.568508e-06
-0.0001386697
-9.385848e-05
-7.870516e-05
-6.037614e-05
-4.290278e-05
-2.06284e-05
-6.396617e-06
-0.0001380367
-8.927708e-05
-7.579661e-05
-5.678758e-05
-3.792363e-05
-1.971595e-05
-8.60303e-06
-0.0001403416
-8.24088e-05
-7.194955e-05
-5.69168e-05
-3.916086e-05
-2.345284e-05
-1.130406e-05
-0.0001567616
-7.427191e-05
-6.709187e-05
-5.412215e-05
-3.415293e-05
-2.411945e-05
-1.451453e-05
-0.0001777989
-6.628965e-05
-6.211075e-05
-5.127983e-05
-3.165756e-05
-2.587814e-05
-1.87953e-05
-0.0002026997
-5.902983e-05
-5.773254e-05
-4.878586e-05
-3.057361e-05
-2.774109e-05
-2.399407e-05
-0.0002334677
-5.36436e-05
-5.391527e-05
-4.704744e-05
-3.010326e-05
-2.890102e-05
-2.952157e-05
-0.0002678466
-5.02982e-05
-5.149589e-05
-4.578213e-05
-3.060015e-05
-3.093952e-05
-3.505988e-05
-0.0003051766
-4.7932e-05
-5.052136e-05
-4.543077e-05
-3.125884e-05
-3.339365e-05
-4.058671e-05
-0.0003442021
-4.714007e-05
-4.985298e-05
-4.573606e-05
-3.241807e-05
-3.598247e-05
-4.591341e-05
-0.0003844809
-4.723387e-05
-5.000472e-05
-4.632831e-05
-3.364672e-05
-3.849852e-05
-5.102746e-05
-0.000426036
-4.800967e-05
-5.075827e-05
-4.7333e-05
-3.510414e-05
-4.124524e-05
-5.559149e-05
-0.000468042
-4.945248e-05
-5.202568e-05
-4.85729e-05
-3.680015e-05
-4.385462e-05
-6.100172e-05
-0.000505241
-5.137986e-05
-5.366059e-05
-5.002257e-05
-3.854452e-05
-4.634658e-05
-6.569649e-05
-0.0005359056
-5.358689e-05
-5.546712e-05
-5.158685e-05
-4.024738e-05
-4.867924e-05
-7.010208e-05
-0.0005765268
-5.591434e-05
-5.731164e-05
-5.327113e-05
-4.210257e-05
-5.341032e-05
-7.451495e-05
-0.0006146627
-5.830441e-05
-5.916358e-05
-5.49408e-05
-4.381253e-05
-5.680982e-05
-7.87912e-05
-0.0006505041
-6.082366e-05
-6.111846e-05
-5.660337e-05
-4.480305e-05
-5.72397e-05
-8.315659e-05
-0.0006855004
-6.340311e-05
-6.319588e-05
-5.808847e-05
-4.581443e-05
-5.956124e-05
-8.761525e-05
-0.0007207427
-6.617707e-05
-6.530077e-05
-5.945094e-05
-4.663307e-05
-6.169961e-05
-9.20795e-05
-0.0007566449
-6.933553e-05
-6.749772e-05
-6.10769e-05
-4.71034e-05
-6.335468e-05
-9.629976e-05
-0.00079301
-7.292458e-05
-6.982183e-05
-6.319446e-05
-4.870205e-05
-6.558384e-05
-0.0001004863
-0.0008293485
-7.618571e-05
-7.230905e-05
-6.445102e-05
-6.042305e-05
-5.080949e-05
-0.0001033001
-0.0008661578
-8.026939e-05
-7.564649e-05
-6.706274e-05
-6.405834e-05
-6.508633e-05
-0.0001060619
-0.0009022482
-8.507302e-05
-7.977177e-05
-6.984021e-05
-4.937908e-05
-6.475772e-05
-0.0001086773
-0.0009367252
-9.179541e-05
-8.524185e-05
-7.396725e-05
-5.024515e-05
-6.630466e-05
-0.0001162029
-0.0009685896
-9.631003e-05
-9.016399e-05
-7.991173e-05
-5.213339e-05
-6.857905e-05
-0.0001193117
-0.001002967
-0.0001055036
-9.827278e-05
-0.0001068212
-7.451083e-05
-7.104218e-05
-0.0001275103
-0.001037997
-0.0001116195
-8.480665e-05
-8.866819e-05
-7.384939e-05
-7.242948e-05
-0.0001350637
-0.001071665
-0.0001114243
-8.9485e-05
-9.137259e-05
-7.569879e-05
-7.268814e-05
-0.0001138317
-0.001082616
-0.0001226344
-0.0001009077
-9.586405e-05
-7.723729e-05
-7.260303e-05
-0.0001403656
-0.001099214
-0.0001326244
-0.0001003816
-9.65567e-05
-7.847505e-05
-7.395435e-05
-0.0001479967
-0.001188595
-0.000143429
-0.0001040629
-0.000100298
-7.871516e-05
-7.526699e-05
-0.0001564554
-0.001142457
-0.0001558878
-0.0001154797
-0.0001101843
-7.130482e-05
-7.128795e-05
-0.0001715938
-0.001268934
-0.0001632744
-0.0001219747
-9.393028e-05
-5.934692e-05
-6.198368e-05
-0.0001808264
-0.0003596376
-0.0001448019
-0.0001079392
-3.093307e-05
-7.505556e-06
-4.410994e-05
-0.0001076231
-0.001553804
-9.644862e-05
-6.447328e-05
4.082022e-05
4.0282e-05
2.958591e-05
2.888481e-06
-0.001196533
-5.172918e-05
-4.489511e-06
0.0001302757
0.0001966159
-9.197958e-05
-0.0007826299
-0.002233278
-2.71012e-05
8.690043e-05
2.300255e-05
-0.0004013586
-0.0009606198
-0.002023939
-0.003474919
-0.0005059608
-0.0006804634
-0.001126653
-0.001203151
-0.0009213936
-0.002511945
-0.004972087
-0.001822069
-0.002093959
-0.002431348
-0.00203354
0.0005707584
-0.001002546
-0.003764273
-0.003237116
-0.003432842
-0.003734982
-0.001237903
0.002421792
0.0007940345
-0.002321571
-0.004296911
-0.004666941
-0.004589804
0.0001583888
0.002366016
0.002011945
-0.001527108
-0.005632106
-0.006089229
-0.005472513
0.0002718942
0.002003485
0.002421092
-0.0002295955
-0.006424805
-0.0067234
-0.005822829
-0.0006992129
0.002357722
0.002137148
1.743891e-05
-0.007265742
-0.007598542
-0.005697973
-0.0002804244
0.001466018
0.003899895
0.0004360508
-0.007450466
-0.007623738
-0.004585716
0.0006077848
0.002106837
0.004449853
0.0003275859
-0.007832176
-0.00726758
-0.0007586862
0.002123783
0.003469639
0.00771228
-0.001589775
-0.007433666
-0.005743114
0.00397431
0.002655395
0.006720083
0.00815451
-0.004385662
-0.005620185
-0.0006343595
0.006193233
0.004805297
0.007880878
0.005448886
-0.009985148
-0.001501411
0.004847393
0.006046236
0.00626532
0.008741816
0.003008755
-0.01810518
0.002401812
0.00787157
0.006366986
0.005766088
0.008538208
0.005612493
-0.008042135
0.003788221
0.00736137
0.008209674
0.007549689
0.009240345
0.005207793
-0.01301096
0.004227775
0.007698526
0.008858391
0.00913678
0.007046498
0.00476432
-0.006399216
0.004243111
0.008041565
0.008879546
0.007400385
0.002588908
0.008660535
0.004741287
0.008974075
0.009597084
0.006783492
0.002278379
0.01244944
0.005362773
0.01040203
0.009939178
0.007225656
0.004635322
0.001097281
0.005653824
0.01112274
0.01003459
0.008122542
0.007855323
0.003061743
-0.01506681
0.005794694
0.01128379
0.01137605
0.01042503
0.008851932
0.0023277
-0.04133718
0.005942207
0.01212392
0.0130915
0.01173596
0.007876395
-0.001855876
-0.06808562
0.005947043
0.01265451
0.01216949
0.01121279
0.005757912
-0.005024931
-0.07558078
0.00681797
0.01302789
0.01038876
0.008075789
0.00538947
-0.001096224
-0.04980975
0.005678983
0.01259727
0.009844797
0.006365517
0.005528993
0.008284455
-0.001991071
0.004724608
0.01188787
0.009202022
0.006881134
0.007277744
0.003237217
-0.02804111
0.002937852
0.009664975
0.009029695
0.007195253
0.008366399
0.001218805
-0.02526806
0.001523392
0.007866106
0.009135939
0.007630547
0.007575784
0.003898864
-0.006742783
0.0008692045
0.005723845
0.008999146
0.007281991
0.007574018
0.003079977
-0.002031768
0.0005916575
0.004290032
0.008602924
0.006908746
0.006449243
0.002623353
-0.003159381
0.0003708969
0.002946
0.006790874
0.006393395
0.005152428
0.0007163339
-0.009270578
0.000182848
0.002095896
0.005218926
0.005794505
0.004855991
-0.0007933796
-0.01057957
0.0001217657
0.0007370046
0.003483707
0.004385172
0.003551842
-0.001336643
-0.004658184
6.991414e-05
0.0002035881
0.0004553331
0.002450682
0.001630383
-0.0007939646
-0.002672188
-0.0001061419
1.823379e-05
9.848686e-06
0.0001179808
0.0001888901
-0.001116619
-0.005394312
-0.0002404118
-0.0001671264
-0.000170769
-0.0001825626
-0.0002629414
-0.001279808
-0.005056826
-0.0003092263
-0.0002930385
-0.00029135
-0.0003125186
-0.0004596315
-0.0009006706
-0.002501192
-0.0003185898
-0.0003287898
-0.0003292627
-0.0003270596
-0.0004043608
-0.0005607047
-0.001559557
-0.000301565
-0.0003192687
-0.0003168437
-0.000319618
-0.000339051
-0.0004017242
-0.001750377
-0.000275532
-0.0002947569
-0.000290928
-0.0002825615
-0.0002912348
-0.0003509854
-0.001561392
-0.0002465001
-0.0002647159
-0.0002550091
-0.0002462154
-0.0002523603
-0.0003094519
-0.001378357
-0.0002177264
-0.0002327308
-0.0002194898
-0.0002134948
-0.0002189817
-0.0002770701
-0.001427101
-0.0001889651
-0.000210704
-0.0001915449
-0.000184285
-0.0001893524
-0.0002539171
-0.001312957
-0.0001704734
-0.0001827207
-0.0001662996
-0.0001588682
-0.0001632874
-0.0002260979
-0.001247908
-0.0001513453
-0.000162023
-0.0001467222
-0.0001367842
-0.000141058
-0.0001960673
-0.001160733
-0.000133133
-0.0001292275
-0.0001210113
-0.0001289572
-0.000122368
-0.000175082
-0.001087345
-0.0001197602
-0.000115244
-0.0001052304
-0.0001127681
-0.0001064639
-0.0001564295
-0.00102269
-0.0001064924
-0.0001022056
-9.279084e-05
-9.918453e-05
-9.499519e-05
-0.0001416555
-0.0009631231
-9.603025e-05
-9.216165e-05
-8.313614e-05
-8.973576e-05
-8.636983e-05
-0.0001298732
-0.0009098429
-8.768528e-05
-8.440837e-05
-7.622873e-05
-8.261627e-05
-8.066116e-05
-0.0001199305
-0.0008589965
-8.100866e-05
-7.835209e-05
-7.104357e-05
-7.628045e-05
-7.483279e-05
-0.0001124988
-0.0008135491
-7.516488e-05
-7.333166e-05
-6.650384e-05
-7.107928e-05
-7.148037e-05
-0.0001050217
-0.0007689475
-7.028328e-05
-6.906279e-05
-6.286508e-05
-6.688617e-05
-6.688619e-05
-9.788586e-05
-0.0007269544
-6.598548e-05
-6.544641e-05
-5.96763e-05
-6.336665e-05
-6.285975e-05
-9.134033e-05
-0.0006863278
-6.23469e-05
-6.229704e-05
-5.683641e-05
-6.042468e-05
-5.923396e-05
-8.542297e-05
-0.0006484699
-5.897836e-05
-5.937659e-05
-5.44813e-05
-5.747792e-05
-5.598342e-05
-7.999615e-05
-0.0006133461
-5.589597e-05
-5.680785e-05
-5.224313e-05
-5.470727e-05
-5.023078e-05
-7.515262e-05
-0.0005791729
-5.312929e-05
-5.442997e-05
-5.009366e-05
-5.283404e-05
-4.878364e-05
-7.025329e-05
-0.0005444999
-5.07057e-05
-5.235649e-05
-4.824601e-05
-5.081196e-05
-4.594335e-05
-6.534783e-05
-0.0005055209
-4.850604e-05
-5.048466e-05
-4.651104e-05
-4.906996e-05
-4.319668e-05
-6.051968e-05
-0.0004970112
-4.657754e-05
-4.882055e-05
-4.489685e-05
-4.771354e-05
-4.046007e-05
-5.570965e-05
-0.0004496858
-4.506259e-05
-4.750975e-05
-4.359467e-05
-4.663903e-05
-3.79763e-05
-5.079513e-05
-0.0004138562
-4.416429e-05
-4.674173e-05
-4.272549e-05
-4.550142e-05
-3.508153e-05
-4.651711e-05
-0.0003779368
-4.409647e-05
-4.671765e-05
-4.192688e-05
-4.395585e-05
-3.276653e-05
-4.187016e-05
-0.0003424934
-4.521028e-05
-4.699773e-05
-4.168812e-05
-4.398766e-05
-3.034142e-05
-3.698302e-05
-0.0003079606
-4.701583e-05
-4.832269e-05
-4.243382e-05
-4.405816e-05
-2.802491e-05
-3.195324e-05
-0.0002746564
-5.069151e-05
-5.103295e-05
-4.358632e-05
-4.464201e-05
-2.5917e-05
-2.686737e-05
-0.0002442398
-5.638052e-05
-5.456677e-05
-4.547369e-05
-4.582196e-05
-2.478713e-05
-2.169897e-05
-0.000216596
-6.334536e-05
-5.91441e-05
-4.811988e-05
-4.65651e-05
-2.341311e-05
-1.689238e-05
-0.0001920768
-7.139376e-05
-6.43627e-05
-5.114483e-05
-4.707131e-05
-2.203127e-05
-1.263128e-05
-0.0001717068
-7.968721e-05
-6.959269e-05
-5.41759e-05
-4.714734e-05
-2.111399e-05
-9.355546e-06
-0.000156149
-8.706931e-05
-7.417793e-05
-5.680051e-05
-4.63428e-05
-2.059748e-05
-7.135869e-06
-0.0001464128
-9.270624e-05
-7.794499e-05
-5.942292e-05
-4.521207e-05
-2.037225e-05
-5.766869e-06
-0.0001584013
-0.003325589
3.676788e-10
2.964515e-15
9.731597e-21
3.604084e-26
1.562001e-32
9.20728e-40
-1.759199e-45
1.748543e-51
3.537179e-54
1.245995e-58
2.109987e-63
2.278361e-68
1.793487e-73
1.329291e-78
1.618318e-83
1.80406e-88
1.930595e-93
-0.004215589
-7.958852e-11
-5.867491e-18
-4.576898e-24
-1.706101e-30
-1.100495e-35
-1.37088e-40
-3.419374e-45
-1.759243e-50
2.947262e-54
8.05137e-59
9.321435e-64
6.302248e-69
2.709866e-74
1.23706e-79
8.672436e-85
4.960278e-90
2.650694e-95
-0.003905456
-4.088474e-10
-1.794086e-17
-9.543174e-24
-4.354996e-30
-2.271297e-35
-2.782261e-40
-4.231669e-45
-3.693445e-50
2.985652e-54
6.585032e-59
5.457529e-64
2.442644e-69
6.345941e-75
1.687911e-80
7.839717e-86
2.311793e-91
1.025404e-96
-0.004121622
-9.614612e-10
-8.512549e-17
-2.775513e-23
-1.213055e-29
-4.984847e-35
-4.441241e-40
-4.135478e-45
-1.948309e-50
2.83987e-54
4.424458e-59
2.280585e-64
5.367209e-70
5.699998e-76
8.17174e-82
3.337873e-87
2.065209e-93
1.994246e-98
-0.004430063
-1.924234e-09
-3.343734e-16
-9.024918e-23
-4.382575e-29
-1.29785e-34
-1.084667e-39
-1.653525e-44
-1.31195e-49
1.72866e-54
1.907202e-59
4.127285e-65
-8.51685e-72
-8.981128e-77
-2.649363e-82
-8.733522e-89
3.144354e-94
3.823542e-99
-0.004839311
-3.170387e-09
-7.66061e-16
-2.605757e-22
-1.731874e-28
-4.023205e-34
-2.524014e-39
-4.243122e-44
-4.003837e-49
-1.044444e-54
-3.321169e-60
-3.084819e-65
-6.992592e-71
-6.60786e-77
-4.921432e-83
-8.988538e-89
-3.776977e-94
-6.622497e-100
-0.005339013
-4.551475e-09
-1.196975e-15
-6.782302e-22
-5.483486e-28
-1.244742e-33
-6.226573e-39
-1.174724e-43
-9.553759e-49
-5.118794e-54
-2.074639e-59
-4.630285e-65
-5.007463e-71
-2.703238e-77
-1.316239e-83
-3.297897e-89
-1.113027e-94
-1.927205e-100
-0.00591684
-6.350156e-09
-2.216576e-15
-1.929864e-21
-1.25578e-27
-3.318125e-33
-1.560915e-38
-1.258159e-44
-7.500845e-49
-9.263473e-54
-3.29454e-59
-3.457929e-65
-2.236696e-71
-1.342777e-77
-7.016707e-84
-3.337759e-89
-8.945657e-95
-1.032956e-100
-0.006550498
-9.520572e-09
-3.744345e-15
-4.098934e-21
-2.369381e-27
-7.480453e-33
-3.756336e-38
-3.945713e-43
-2.402955e-48
-1.751224e-53
-2.598991e-59
-2.498568e-65
-1.974392e-71
-1.230346e-77
-7.017345e-84
-4.984072e-89
-5.457589e-95
-3.515918e-101
-0.007237055
-1.57391e-08
-5.878752e-15
-5.290499e-21
-4.101409e-27
-1.490265e-32
-8.481738e-38
-9.24297e-43
-1.029861e-47
-2.559598e-53
-3.255236e-59
-3.27029e-65
-2.811701e-71
-2.057438e-77
-1.058714e-83
-6.846568e-89
-6.009988e-95
-2.870021e-101
-0.007985207
-1.523948e-08
-5.860039e-15
-6.681793e-21
-6.686002e-27
-2.733277e-32
-1.704753e-37
-1.822685e-42
-1.812897e-47
-5.021174e-53
-7.985263e-59
-8.984671e-65
-8.505738e-71
-6.26875e-77
-5.929541e-83
-1.263125e-88
-1.254758e-94
-6.002908e-101
-0.008791853
-1.095937e-08
-5.078556e-15
-6.802663e-21
-1.051564e-26
-4.835628e-32
-3.159648e-37
-3.019337e-42
-2.481012e-47
-7.720141e-53
-1.429116e-58
-2.092686e-64
-2.365144e-70
-2.009763e-76
-1.561309e-82
-3.142786e-88
-2.700768e-94
-1.450727e-100
-0.009661643
-1.16827e-08
-3.498491e-15
-7.619634e-21
-1.70548e-26
-8.986788e-32
-6.408912e-37
-1.263734e-42
-2.637357e-47
-6.996235e-53
-1.336549e-58
-2.007294e-64
-2.417243e-70
-2.308583e-76
-1.934447e-82
-5.136225e-88
-4.411148e-94
-2.610173e-100
-0.01052875
-8.083559e-09
-1.370172e-14
-1.017601e-20
-3.036795e-26
-1.698594e-31
-1.418882e-36
-1.28478e-41
-3.074885e-47
-6.863198e-53
-1.117989e-58
-1.707757e-64
-2.108565e-70
-2.089388e-76
9.807531e-83
1.693674e-88
-5.62447e-94
-3.459791e-100
-0.01171926
-1.051439e-08
-5.759747e-14
-6.925788e-21
-5.822543e-26
-2.948934e-31
-2.872359e-36
-2.966074e-41
-1.032453e-46
-1.978289e-52
-2.977482e-58
-4.046937e-64
-4.429679e-70
-4.011525e-76
3.63127e-81
1.273082e-86
-6.359687e-94
-3.081051e-100
-0.01266775
2.099983e-11
-4.185762e-14
-9.349996e-20
-9.802155e-26
-4.857511e-31
-4.967068e-36
-5.81755e-41
-2.949162e-46
-6.577554e-52
-1.09117e-57
-1.388966e-63
-1.311609e-69
-9.030216e-76
3.402319e-80
1.714789e-85
1.274779e-93
1.413833e-99
-0.01391154
-1.294949e-07
-1.302963e-16
-1.623766e-19
-1.274829e-25
-8.374512e-31
-7.520129e-36
-9.226574e-41
-5.502365e-46
-1.784765e-51
-3.639719e-57
-4.92518e-63
-4.390938e-69
-2.079341e-75
2.326469e-79
-1.399924e-85
1.541672e-92
1.367808e-98
-0.01508178
-1.770988e-07
-4.334952e-13
-4.000153e-22
-2.23683e-25
-1.390419e-30
-1.008002e-35
-1.19346e-40
-8.332063e-46
-3.247254e-51
-8.806766e-57
-1.485656e-62
-1.431928e-68
-3.229656e-75
1.83683e-78
-9.785559e-85
1.137687e-91
1.253444e-97
-0.01630472
-2.390915e-07
-6.532176e-13
-1.434162e-18
-1.361339e-27
-1.443826e-30
-1.111382e-35
-1.385969e-40
-9.109572e-46
-4.701908e-51
-1.848034e-56
-4.26414e-62
-5.430921e-68
-4.005924e-75
2.172026e-77
-9.110046e-85
6.595519e-91
9.632134e-97
-0.0175776
-3.160918e-07
-9.509253e-13
-2.348462e-18
-1.241402e-23
9.276382e-33
2.291847e-36
-1.525303e-40
-9.593545e-46
-9.56292e-51
-4.277881e-56
-1.28799e-61
-2.393872e-67
-4.800728e-74
2.157873e-76
-1.263757e-87
2.35697e-90
8.153994e-96
-0.01893192
-4.09592e-07
-1.362049e-12
-3.812438e-18
-2.354245e-23
-1.00968e-28
4.439426e-38
-8.161853e-41
-7.705963e-46
-9.396787e-51
-1.118555e-55
-3.478624e-61
-9.880993e-67
-2.775323e-73
9.375993e-76
-4.649154e-87
1.118549e-89
1.296462e-94
-0.02037047
-5.313484e-07
-2.00347e-12
-6.190391e-18
-4.391076e-23
-1.895689e-28
-9.837358e-34
6.613491e-43
2.856727e-48
-8.152484e-51
-1.222258e-55
-7.751519e-61
-3.365204e-66
4.696457e-72
7.186963e-75
3.868055e-82
7.643923e-89
2.642121e-93
-0.02190376
-6.837718e-07
-2.886048e-12
-1.002564e-17
-8.053866e-23
-5.226752e-28
-2.137727e-33
-1.494336e-38
-3.224149e-48
-1.617489e-50
-7.791763e-56
-1.962106e-60
-1.154352e-65
1.49064e-70
3.330847e-74
2.04493e-81
1.106724e-87
5.093119e-92
-0.02353188
-8.85533e-07
-4.139615e-12
-1.625411e-17
-1.468737e-22
-9.093147e-28
-4.690859e-33
-3.362667e-38
-1.187771e-43
1.995298e-53
-8.478142e-56
-2.066544e-60
-1.097402e-65
1.959202e-69
1.899909e-73
8.552942e-81
2.415366e-86
8.774451e-91
-0.02525474
-1.156613e-06
-5.961832e-12
-2.630585e-17
-2.667671e-22
-1.599848e-27
-9.717041e-33
-7.677007e-38
-2.743671e-43
-1.309984e-48
-1.014618e-60
-1.053246e-60
9.363929e-66
1.37717e-68
4.104935e-72
-5.176501e-80
1.697894e-84
1.482381e-89
-0.02709022
-1.498239e-06
-8.693461e-12
-4.230603e-17
-4.8759e-22
-2.59769e-27
-1.647777e-32
-1.494828e-37
-5.863759e-43
-3.580961e-48
-2.157869e-53
1.008756e-65
2.253173e-64
3.546685e-68
5.617575e-71
1.857726e-78
2.244926e-82
4.175876e-88
-0.02904137
-1.919144e-06
-1.258756e-11
-6.90652e-17
-9.041832e-22
-9.806039e-27
-7.902912e-32
-7.753673e-37
-5.878274e-43
-1.043007e-47
-7.198123e-53
-4.612515e-58
1.8418e-63
8.804042e-68
-7.916773e-74
2.449999e-76
3.136763e-80
2.060798e-86
-0.03111285
-2.453823e-06
-1.837817e-11
-1.324475e-16
-1.646445e-21
-2.085274e-26
-1.643006e-31
-1.574074e-36
6.942648e-42
-2.987736e-47
-2.739854e-52
-1.552423e-57
9.481799e-63
6.052903e-66
2.792057e-71
2.9981e-74
4.17128e-78
1.41457e-84
-0.0332945
-2.983676e-06
-2.332548e-11
-1.52265e-16
-3.741717e-21
-3.331198e-26
-2.64945e-31
-2.295058e-36
6.024023e-42
-7.575071e-47
-8.390733e-52
-4.749445e-57
4.088615e-61
2.384609e-64
7.583957e-69
3.373744e-72
5.196019e-76
3.387595e-83
-0.03562744
-3.39348e-06
-2.515501e-11
-1.401674e-16
-1.145675e-20
-3.956727e-26
-3.866048e-31
-3.044531e-36
-4.44718e-40
-1.260769e-46
-1.386902e-51
6.888903e-57
2.766328e-59
4.072042e-63
1.000653e-66
3.50554e-70
6.021059e-74
8.409694e-81
-0.03814063
-3.225984e-06
-2.495091e-11
-1.603932e-16
-8.939786e-21
-2.062398e-26
-4.572775e-31
-6.298586e-36
-4.513404e-40
-1.200317e-46
-1.55332e-51
1.30865e-54
2.40674e-57
3.802228e-61
9.957393e-65
3.371476e-68
6.444495e-72
2.055532e-79
-0.04073361
-3.351008e-06
-4.315267e-11
-1.95391e-16
-4.976952e-21
-1.626527e-25
-9.162285e-31
-1.256578e-35
-3.885217e-41
-1.432119e-45
9.021676e-50
1.029716e-52
2.042623e-55
3.788804e-59
9.2278e-63
2.882655e-66
6.777418e-70
-1.382754e-77
-0.04323501
-7.894835e-06
-1.316278e-10
1.267235e-17
-1.080356e-20
-2.613994e-25
-1.698119e-30
-1.469921e-35
-1.52056e-40
-1.072276e-44
7.505897e-48
7.489414e-51