/*--------------------------------*- C++ -*----------------------------------*\
| =========                 |                                                 |
| \\      /  F ield         | OpenFOAM: The Open Source CFD Toolbox           |
|  \\    /   O peration     | Version:  2206                                  |
|   \\  /    A nd           | Website:  www.openfoam.com                      |
|    \\/     M anipulation  |                                                 |
\*---------------------------------------------------------------------------*/
FoamFile
{
    version     2.0;
    format      ascii;
    arch        "LSB;label=32;scalar=64";
    class       volVectorField;
    location    "2.6";
    object      ddt0(U.a);
}
// * * * * * * * * * * * * * * * * * * * * * * * * * * * * * * * * * * * * * //

dimensions      [0 1 -2 0 0 0 0];

internalField   nonuniform List<vector> 
13078
(
(3.404434e-05 -0.0001045577 3.602575e-27)
(6.642715e-06 -2.804747e-05 -1.885628e-30)
(1.723996e-06 -1.694142e-05 -6.601558e-29)
(6.263229e-07 -9.383657e-06 0)
(3.682385e-07 -6.810269e-06 -5.844286e-30)
(3.013734e-07 -6.277618e-06 -5.951233e-30)
(2.643307e-07 -6.116189e-06 -6.555149e-30)
(-1.276897e-05 -2.126941e-05 0)
(-1.013105e-05 -1.866557e-05 -1.102747e-30)
(-4.410484e-06 -1.264289e-05 0)
(-1.686126e-06 -7.899098e-06 0)
(-7.001454e-07 -6.453308e-06 -1.645802e-31)
(-4.103588e-07 -6.149368e-06 -7.753615e-32)
(-2.136786e-07 -6.071308e-06 -1.463432e-31)
(-5.079755e-06 -4.86348e-06 4.28589e-29)
(-4.64387e-06 -7.115269e-06 -3.043009e-29)
(-2.933871e-06 -6.899087e-06 8.047699e-30)
(-1.953921e-06 -6.073053e-06 1.11192e-29)
(-1.332398e-06 -5.870891e-06 5.540589e-30)
(-8.984018e-07 -5.805557e-06 0)
(-5.670664e-07 -5.872804e-06 -4.085008e-35)
(-1.814794e-06 -1.842517e-06 1.789128e-29)
(-2.074459e-06 -3.48995e-06 -3.793362e-29)
(-1.86755e-06 -4.341168e-06 -3.376037e-29)
(-1.703897e-06 -4.899213e-06 -1.521195e-29)
(-1.398004e-06 -5.138833e-06 4.644306e-31)
(-1.053669e-06 -5.340025e-06 0)
(-7.194663e-07 -5.573203e-06 1.952676e-31)
(-4.700542e-08 -7.428408e-07 -2.54544e-32)
(-4.629787e-07 -2.128493e-06 -2.063436e-29)
(-7.998886e-07 -3.19909e-06 -3.970725e-29)
(-1.03824e-06 -3.944083e-06 -3.766714e-29)
(-1.066003e-06 -4.445427e-06 9.903069e-30)
(-9.114986e-07 -4.853871e-06 -8.325972e-34)
(-6.671462e-07 -5.241351e-06 7.820724e-30)
(7.185124e-07 -4.431789e-07 0)
(8.01239e-07 -1.450272e-06 1.546144e-31)
(3.396539e-07 -2.431206e-06 -2.586934e-31)
(-1.715675e-07 -3.22485e-06 -2.156486e-29)
(-4.827906e-07 -3.860298e-06 9.01869e-31)
(-5.533809e-07 -4.415082e-06 -8.133517e-30)
(-4.489076e-07 -4.93586e-06 -1.878304e-29)
(1.229478e-06 -3.172908e-07 0)
(1.818656e-06 -1.09982e-06 -2.765888e-29)
(1.418087e-06 -1.943224e-06 -3.110577e-29)
(7.505648e-07 -2.712977e-06 -6.28785e-30)
(2.082784e-07 -3.409111e-06 -2.19177e-29)
(-6.546593e-08 -4.065741e-06 1.169816e-30)
(-1.15974e-07 -4.693827e-06 0)
(1.650353e-06 -2.527925e-07 5.188604e-29)
(2.701213e-06 -9.03031e-07 -3.171097e-29)
(2.410064e-06 -1.636129e-06 -3.044457e-29)
(1.639681e-06 -2.370261e-06 0)
(9.145974e-07 -3.092032e-06 -5.258915e-29)
(4.691983e-07 -3.817838e-06 1.319398e-30)
(2.848791e-07 -4.541452e-06 1.478393e-30)
(2.047396e-06 -2.1618e-07 5.385449e-33)
(3.518057e-06 -7.910712e-07 7.266965e-29)
(3.328637e-06 -1.456167e-06 3.562404e-29)
(2.476587e-06 -2.159888e-06 1.036242e-30)
(1.598527e-06 -2.895136e-06 -1.191737e-28)
(1.006068e-06 -3.675205e-06 1.494423e-30)
(7.086064e-07 -4.480406e-06 0)
(2.44836e-06 -1.969906e-07 -6.813547e-29)
(4.31616e-06 -7.343608e-07 8.321287e-29)
(4.21243e-06 -1.363641e-06 3.992477e-29)
(3.277769e-06 -2.053171e-06 -7.539472e-29)
(2.25646e-06 -2.804736e-06 -4.005408e-32)
(1.531811e-06 -3.634614e-06 0)
(1.135744e-06 -4.514602e-06 0)
(2.869693e-06 -1.896709e-07 0)
(5.131466e-06 -7.16797e-07 0)
(5.097127e-06 -1.336661e-06 9.133069e-29)
(4.067922e-06 -2.030595e-06 -8.629641e-29)
(2.900869e-06 -2.808244e-06 4.730322e-32)
(2.049516e-06 -3.691331e-06 0)
(1.563946e-06 -4.645904e-06 0)
(3.324649e-06 -1.913833e-07 0)
(5.992378e-06 -7.293658e-07 -1.088717e-28)
(6.014097e-06 -1.361567e-06 1.044513e-28)
(4.873629e-06 -2.07869e-06 9.703944e-29)
(3.55097e-06 -2.895756e-06 -9.183894e-29)
(2.570719e-06 -3.840622e-06 0)
(1.999295e-06 -4.875328e-06 7.460965e-29)
(3.823028e-06 -2.007319e-07 0)
(6.921466e-06 -7.671422e-07 -1.251615e-28)
(6.990096e-06 -1.429959e-06 -1.253407e-30)
(5.720339e-06 -2.187821e-06 1.126525e-28)
(4.228537e-06 -3.060172e-06 -1.026725e-28)
(3.111071e-06 -4.079198e-06 9.159152e-29)
(2.45199e-06 -5.203674e-06 7.627452e-32)
(4.374224e-06 -2.16219e-07 -1.162781e-28)
(7.938739e-06 -8.253614e-07 0)
(8.047319e-06 -1.534509e-06 -1.424624e-30)
(6.6297e-06 -2.351253e-06 -1.980859e-30)
(4.957549e-06 -3.298688e-06 -2.3502e-28)
(3.68796e-06 -4.406321e-06 1.047005e-28)
(2.933687e-06 -5.632827e-06 -9.089208e-29)
(4.988498e-06 -2.367599e-07 -1.327419e-28)
(9.0631e-06 -9.012156e-07 0)
(9.20387e-06 -1.670025e-06 -3.231367e-30)
(7.623444e-06 -2.558968e-06 1.771552e-28)
(5.772581e-06 -3.604935e-06 -9.227953e-29)
(4.318398e-06 -4.822344e-06 0)
(3.455208e-06 -6.164915e-06 1.037643e-28)
(5.676305e-06 -2.621092e-07 0)
(1.031533e-05 -9.931717e-07 -1.84857e-28)
(1.048317e-05 -1.831547e-06 0)
(8.718321e-06 -2.799538e-06 1.719406e-28)
(6.647853e-06 -3.971959e-06 6.412531e-30)
(5.00179e-06 -5.321861e-06 7.466881e-30)
(4.022516e-06 -6.800386e-06 1.271133e-28)
(6.449452e-06 -2.926311e-07 0)
(1.172007e-05 -1.10349e-06 -4.21727e-28)
(1.191689e-05 -2.026925e-06 -2.08994e-30)
(9.926507e-06 -3.095753e-06 -2.874545e-30)
(7.602839e-06 -4.404313e-06 0)
(5.751743e-06 -5.904922e-06 0)
(4.646049e-06 -7.542102e-06 0)
(7.320095e-06 -3.284845e-07 -1.967217e-28)
(1.329993e-05 -1.232762e-06 -2.411627e-28)
(1.352949e-05 -2.256624e-06 -4.754631e-30)
(1.128524e-05 -3.445212e-06 -3.26696e-30)
(8.672489e-06 -4.908024e-06 0)
(6.593808e-06 -6.583427e-06 -1.88249e-28)
(5.343865e-06 -8.401247e-06 -2.175692e-29)
(8.300854e-06 -3.69762e-07 -2.242223e-28)
(1.507741e-05 -1.381491e-06 -2.747448e-28)
(1.534162e-05 -2.521285e-06 -8.093752e-30)
(1.280939e-05 -3.848651e-06 -7.420185e-30)
(9.87598e-06 -5.491408e-06 0)
(7.561785e-06 -7.378795e-06 -2.047067e-28)
(6.14223e-06 -9.401079e-06 -1.237428e-29)
(9.406233e-06 -4.170938e-07 -2.55617e-28)
(1.707852e-05 -1.551926e-06 -6.24141e-28)
(1.737804e-05 -2.824286e-06 -2.983772e-28)
(1.451362e-05 -4.309298e-06 0)
(1.123946e-05 -6.153954e-06 8.162968e-29)
(8.715881e-06 -8.313082e-06 1.226944e-28)
(7.078726e-06 -1.058191e-05 2.815899e-29)
(1.065338e-05 -4.724226e-07 -2.913377e-28)
(1.933697e-05 -1.750581e-06 -7.095025e-28)
(1.967873e-05 -3.17692e-06 -6.760714e-28)
(1.64396e-05 -4.840367e-06 -3.100614e-28)
(1.279458e-05 -6.903795e-06 1.195544e-29)
(1.001183e-05 -9.412751e-06 -2.672088e-28)
(8.176589e-06 -1.199512e-05 2.158829e-28)
(1.206256e-05 -5.395796e-07 0)
(2.189495e-05 -1.990919e-06 -4.019084e-28)
(2.230111e-05 -3.608547e-06 -3.8281e-28)
(1.86648e-05 -5.502819e-06 -7.275544e-28)
(1.458988e-05 -7.863353e-06 0)
(1.153251e-05 -1.077228e-05 -3.051912e-28)
(9.522633e-06 -1.374591e-05 3.90401e-31)
(1.36558e-05 -6.230858e-07 3.764563e-28)
(2.479767e-05 -2.288284e-06 0)
(2.530062e-05 -4.148293e-06 0)
(2.125028e-05 -6.341332e-06 1.182879e-29)
(1.672436e-05 -9.087212e-06 3.99534e-28)
(1.338992e-05 -1.248878e-05 0)
(1.12518e-05 -1.597734e-05 -3.041454e-28)
(1.545732e-05 -7.2815e-07 8.555031e-28)
(2.809412e-05 -2.659924e-06 0)
(2.873622e-05 -4.827449e-06 0)
(2.425473e-05 -7.400735e-06 4.571416e-28)
(1.924853e-05 -1.062493e-05 8.563922e-28)
(1.565869e-05 -1.460099e-05 -4.016153e-28)
(1.350502e-05 -1.876151e-05 0)
(1.749309e-05 -8.60168e-07 4.856234e-28)
(3.183748e-05 -3.123393e-06 3.436281e-30)
(3.267486e-05 -5.677485e-06 5.730248e-28)
(2.775387e-05 -8.724061e-06 1.544144e-29)
(2.224228e-05 -1.251221e-05 1.984766e-29)
(1.839717e-05 -1.709849e-05 -4.525084e-28)
(1.614992e-05 -2.19929e-05 0)
(1.978961e-05 -1.023456e-06 0)
(3.608154e-05 -3.692693e-06 -6.723208e-28)
(3.718322e-05 -6.724649e-06 6.441971e-28)
(3.182772e-05 -1.035479e-05 0)
(2.580795e-05 -1.482265e-05 -5.196941e-28)
(2.163138e-05 -2.010562e-05 1.042443e-28)
(1.917364e-05 -2.559201e-05 6.132479e-29)
(2.237126e-05 -1.219318e-06 -6.237526e-28)
(4.087459e-05 -4.371638e-06 -7.621769e-28)
(4.230946e-05 -7.971661e-06 7.29818e-28)
(3.650669e-05 -1.228181e-05 0)
(2.993274e-05 -1.749402e-05 -4.899239e-29)
(2.530222e-05 -2.34141e-05 -8.075555e-32)
(2.233045e-05 -2.912487e-05 6.926973e-29)
(2.525396e-05 -1.446757e-06 -7.05705e-28)
(4.626054e-05 -5.156393e-06 -8.624664e-28)
(4.808925e-05 -9.407414e-06 8.271005e-28)
(4.179571e-05 -1.447421e-05 0)
(3.455833e-05 -2.044531e-05 0)
(2.92183e-05 -2.680149e-05 -6.653611e-28)
(2.515806e-05 -3.197297e-05 1.40661e-29)
(2.844714e-05 -1.704357e-06 -7.981286e-28)
(5.2282e-05 -6.04481e-06 -9.819199e-28)
(5.456244e-05 -1.102761e-05 0)
(4.771957e-05 -1.69307e-05 8.354162e-28)
(3.970533e-05 -2.370441e-05 -6.157778e-29)
(3.343183e-05 -3.037616e-05 -1.43358e-27)
(2.776032e-05 -3.43925e-05 2.537759e-28)
(3.187842e-05 -1.992661e-06 -8.961421e-28)
(5.896311e-05 -7.03081e-06 0)
(6.178288e-05 -1.28431e-05 -1.077334e-27)
(5.433728e-05 -1.969229e-05 9.741823e-28)
(4.550013e-05 -2.743848e-05 -9.33122e-28)
(3.836386e-05 -3.476987e-05 -1.710847e-27)
(3.140524e-05 -3.848231e-05 -7.7182e-28)
(3.554878e-05 -2.293944e-06 0)
(6.625214e-05 -8.131035e-06 0)
(6.977099e-05 -1.486838e-05 -2.393454e-27)
(6.169817e-05 -2.277757e-05 0)
(5.197247e-05 -3.164788e-05 -2.11517e-27)
(4.399093e-05 -3.991279e-05 -9.727386e-28)
(3.590005e-05 -4.384753e-05 8.764275e-28)
(3.969294e-05 -2.643924e-06 -1.127802e-27)
(7.402997e-05 -9.335639e-06 1.387071e-27)
(7.859595e-05 -1.709016e-05 1.346935e-27)
(6.990061e-05 -2.622585e-05 0)
(5.916889e-05 -3.63458e-05 -1.19822e-27)
(5.02803e-05 -4.570392e-05 0)
(4.107912e-05 -5.010278e-05 7.639467e-28)
(4.415714e-05 -3.013473e-06 -1.257342e-27)
(8.220381e-05 -1.056431e-05 1.558389e-27)
(8.786905e-05 -1.948695e-05 4.571511e-27)
(7.902695e-05 -3.00222e-05 2.982163e-27)
(6.716191e-05 -4.162004e-05 -1.263308e-27)
(5.728088e-05 -5.222016e-05 1.120966e-28)
(4.679455e-05 -5.718999e-05 -1.297511e-28)
(4.892709e-05 -3.421673e-06 2.202843e-30)
(9.094242e-05 -1.191513e-05 8.582179e-30)
(9.740028e-05 -2.193253e-05 1.752844e-27)
(8.83809e-05 -3.414978e-05 3.204851e-27)
(7.589093e-05 -4.753908e-05 -1.750022e-27)
(6.516932e-05 -5.965179e-05 2.46756e-28)
(5.336091e-05 -6.542906e-05 5.748711e-28)
(5.400614e-05 -3.884625e-06 -2.367615e-30)
(0.0001002069 -1.342715e-05 -9.253609e-30)
(0.000107246 -2.467676e-05 1.827039e-27)
(9.791814e-05 -3.853611e-05 1.138462e-27)
(8.563838e-05 -5.402552e-05 -1.059174e-27)
(7.427038e-05 -6.815607e-05 1.356872e-27)
(6.109012e-05 -7.505939e-05 0)
(5.938837e-05 -4.396647e-06 0)
(0.0001099629 -1.504969e-05 0)
(0.0001174221 -2.751631e-05 2.095745e-27)
(0.0001074247 -4.278535e-05 2.224209e-27)
(9.523542e-05 -6.067226e-05 3.125303e-27)
(8.46723e-05 -7.752441e-05 3.005673e-27)
(7.017333e-05 -8.608088e-05 0)
(6.507466e-05 -4.96457e-06 -5.271307e-30)
(0.0001202801 -1.68131e-05 2.001053e-29)
(0.0001281604 -3.055376e-05 6.881828e-29)
(0.0001170317 -4.727383e-05 0)
(0.0001046199 -6.700888e-05 4.419123e-27)
(9.501014e-05 -8.708356e-05 -3.211607e-28)
(8.044909e-05 -9.796006e-05 -7.506391e-28)
(7.104087e-05 -5.591277e-06 -2.100856e-27)
(0.0001312346 -1.872636e-05 2.14681e-29)
(0.0001397189 -3.381417e-05 -2.570533e-27)
(0.0001275214 -5.204747e-05 0)
(0.0001144047 -7.369369e-05 2.717655e-27)
(0.0001056924 -9.634821e-05 3.580179e-28)
(9.314524e-05 -0.0001107065 -3.781453e-27)
(7.721175e-05 -6.273936e-06 -2.298641e-27)
(0.0001428792 -2.075811e-05 -2.857793e-27)
(0.0001522446 -3.7196e-05 -2.834124e-27)
(0.000139127 -5.682593e-05 -2.043194e-28)
(0.0001252347 -8.013171e-05 -5.386113e-28)
(0.000117338 -0.0001049127 1.658171e-27)
(0.0001071713 -0.0001237004 -1.729939e-27)
(8.318737e-05 -6.975855e-06 0)
(0.0001549505 -2.278711e-05 3.106173e-27)
(0.0001658931 -4.059982e-05 3.11292e-27)
(0.0001522645 -6.157555e-05 1.035454e-28)
(0.0001377478 -8.63891e-05 -3.28823e-27)
(0.0001302961 -0.000113485 -3.498099e-28)
(0.0001231312 -0.0001375258 0)
(8.860629e-05 -7.579829e-06 2.66743e-27)
(0.0001666747 -2.468935e-05 6.69621e-27)
(0.0001803678 -4.369899e-05 3.191478e-27)
(0.0001667141 -6.598673e-05 6.744179e-27)
(0.0001513684 -9.216038e-05 -3.600378e-27)
(0.0001435225 -0.000121525 2.953833e-27)
(0.0001379688 -0.0001498026 1.096688e-25)
(9.402251e-05 -8.088891e-06 2.83502e-27)
(0.0001768464 -2.599967e-05 -1.83406e-29)
(0.0001933889 -4.617838e-05 0)
(0.0001809189 -6.961444e-05 9.000339e-29)
(0.0001641118 -9.762932e-05 7.353725e-27)
(0.0001544496 -0.0001308588 4.139286e-26)
(0.0001461439 -0.0001630316 1.01293e-25)
(9.858179e-05 -8.355598e-06 -2.999124e-27)
(0.0001852079 -2.664989e-05 2.945525e-29)
(0.0002023501 -4.725613e-05 5.526989e-29)
(0.0001901052 -7.249182e-05 -8.455555e-27)
(0.0001720906 -0.0001031762 -4.095535e-26)
(0.0001567608 -0.0001387995 2.076629e-25)
(0.0001420418 -0.0001741671 2.883313e-26)
(0.0001018344 -8.310974e-06 -3.133777e-27)
(0.000190889 -2.652152e-05 0)
(0.0002067074 -4.761909e-05 8.291184e-29)
(0.0001907138 -7.410257e-05 -1.15758e-25)
(0.0001680098 -0.0001073833 -1.319593e-25)
(0.0001453644 -0.0001438629 1.945695e-25)
(0.0001180788 -0.0001786357 -6.730527e-27)
(0.0001031478 -7.940415e-06 0)
(0.0001926828 -2.562341e-05 2.467792e-29)
(0.0002055781 -4.74788e-05 4.76628e-26)
(0.0001828518 -7.543499e-05 -1.232478e-25)
(0.0001509447 -0.0001101338 6.488996e-26)
(0.0001174395 -0.0001490397 3.384749e-25)
(7.548586e-05 -0.0001824958 -1.60689e-25)
(0.0001015005 -7.25044e-06 0)
(0.0001888724 -2.444485e-05 -1.544657e-26)
(0.0001975936 -4.719601e-05 2.358112e-25)
(0.0001683039 -7.739916e-05 2.425473e-25)
(0.0001251663 -0.0001148991 6.139857e-27)
(7.865682e-05 -0.0001567339 4.325974e-26)
(2.206667e-05 -0.0001904708 -3.284747e-25)
(9.7605e-05 -6.626288e-06 -3.181783e-27)
(0.0001778686 -2.330985e-05 -1.343983e-25)
(0.0001804844 -4.68356e-05 5.801327e-26)
(0.0001445774 -8.023267e-05 1.676977e-25)
(9.330581e-05 -0.0001222636 -8.903586e-26)
(3.513604e-05 -0.0001678184 8.251925e-26)
(-3.032555e-05 -0.0002069474 6.287009e-26)
(9.117425e-05 -6.386493e-06 1.4591e-26)
(0.0001620164 -2.305808e-05 -1.549656e-25)
(0.0001570568 -4.767639e-05 5.081807e-26)
(0.0001134818 -8.448852e-05 -8.498347e-26)
(5.599278e-05 -0.0001353838 -2.932147e-26)
(-5.11687e-06 -0.0001936331 3.594839e-25)
(-6.895463e-05 -0.0002446859 3.265948e-25)
(8.246385e-05 -6.503912e-06 4.35032e-26)
(0.0001427694 -2.383053e-05 -1.33077e-25)
(0.0001307289 -5.09122e-05 -1.715826e-26)
(8.087785e-05 -9.360011e-05 -8.644397e-26)
(1.960559e-05 -0.0001548436 -4.450106e-26)
(-3.78235e-05 -0.0002323707 -3.247426e-26)
(-8.330673e-05 -0.0003167388 -1.694415e-25)
(7.212845e-05 -6.976104e-06 1.411764e-27)
(0.0001217611 -2.59963e-05 -6.374263e-26)
(0.0001045652 -5.729702e-05 -2.631177e-26)
(5.244685e-05 -0.0001091076 -5.228351e-26)
(-7.498396e-06 -0.0001859501 7.816345e-26)
(-5.517434e-05 -0.0002877093 -5.965573e-26)
(-7.749173e-05 -0.0004149046 -7.201077e-26)
(6.060876e-05 -7.825052e-06 -3.861833e-27)
(9.979283e-05 -2.970073e-05 -2.596148e-26)
(8.081726e-05 -6.688971e-05 5.570985e-26)
(3.174261e-05 -0.0001299574 -3.966915e-26)
(-2.081789e-05 -0.0002249959 4.719616e-26)
(-5.991611e-05 -0.0003599966 1.429771e-26)
(-7.853218e-05 -0.0005405194 1.270681e-25)
(4.807673e-05 -8.738847e-06 3.987721e-27)
(7.749404e-05 -3.417519e-05 -1.095574e-26)
(5.95846e-05 -7.882189e-05 2.302833e-25)
(1.977398e-05 -0.0001536332 4.0883e-26)
(-1.749045e-05 -0.0002686409 6.837755e-26)
(-3.174927e-05 -0.0004303127 3.168536e-26)
(-5.004325e-05 -0.0007199145 -1.044482e-26)
(3.595561e-05 -9.523937e-06 -1.341007e-26)
(5.651082e-05 -3.752232e-05 7.726382e-27)
(4.087104e-05 -8.526659e-05 9.09384e-26)
(1.112821e-05 -0.0001670011 3.797131e-26)
(-1.34427e-05 -0.0002974846 5.67606e-26)
(-2.483295e-05 -0.0005023194 4.709709e-26)
(-4.660571e-05 -0.0010771 3.009994e-25)
(2.436097e-05 -1.004314e-05 6.75513e-28)
(3.787023e-05 -3.951203e-05 1.055716e-26)
(2.703767e-05 -8.968264e-05 3.176258e-26)
(9.364401e-06 -0.0001774127 2.033539e-26)
(4.245494e-06 -0.0003172493 5.505016e-26)
(-1.01233e-05 -0.0006105063 4.005898e-26)
(-0.0001873684 -0.001956816 -1.059082e-26)
(1.319876e-05 -1.022571e-05 2.921842e-27)
(2.084772e-05 -4.124837e-05 -3.339093e-26)
(1.5134e-05 -9.522314e-05 -2.277998e-26)
(7.243225e-06 -0.0001884744 -8.489224e-27)
(8.198276e-06 -0.0003276101 9.364638e-27)
(1.870987e-05 -0.000720997 2.026353e-26)
(-0.0002051724 -0.002710902 3.273449e-25)
(2.436026e-06 -1.005275e-05 3.229541e-27)
(4.641581e-06 -4.085372e-05 -1.471518e-26)
(3.875245e-06 -9.136629e-05 -2.35255e-26)
(4.364448e-06 -0.0001658918 -5.70511e-28)
(3.31419e-06 -0.0003153812 -2.972307e-26)
(-3.118277e-05 -0.0008945602 2.752647e-25)
(-0.0001837562 -0.003142692 1.890413e-24)
(-7.985631e-06 -8.962766e-06 3.181579e-28)
(-1.115166e-05 -3.754682e-05 -9.747106e-27)
(-9.035311e-06 -8.824905e-05 -9.749085e-27)
(-9.541291e-06 -0.0001736557 -7.654517e-27)
(-1.934161e-05 -0.0003285785 -3.241994e-26)
(-5.215988e-05 -0.0007983038 2.413386e-25)
(-0.0001437256 -0.003132775 8.297701e-25)
(-1.808274e-05 -8.076694e-06 5.021604e-28)
(-2.609663e-05 -3.396212e-05 1.158102e-26)
(-2.150952e-05 -7.626621e-05 5.505908e-27)
(-2.387281e-05 -0.0001365567 8.930662e-27)
(-4.256089e-05 -0.0002859263 -6.72455e-27)
(-7.30497e-05 -0.000827588 1.8773e-25)
(-0.0001306423 -0.002904857 1.891951e-25)
(-2.768148e-05 -7.276926e-06 1.232977e-26)
(-4.018912e-05 -3.098371e-05 6.803754e-27)
(-3.288443e-05 -7.17531e-05 -3.177389e-26)
(-3.373156e-05 -0.0001349329 -6.206148e-27)
(-5.51481e-05 -0.0002730859 -5.412463e-27)
(-0.0001099699 -0.0007310169 1.131923e-26)
(-0.0001456532 -0.002634166 -3.335266e-25)
(-3.656563e-05 -7.096237e-06 5.093459e-27)
(-5.310566e-05 -2.980892e-05 -3.017941e-27)
(-4.265871e-05 -7.137055e-05 -3.116632e-26)
(-3.938151e-05 -0.0001483863 1.354899e-26)
(-7.489972e-05 -0.000273226 -3.346262e-26)
(-0.0001795791 -0.0006460839 -2.698861e-25)
(-0.0002002704 -0.002409518 -2.248374e-24)
(-4.458586e-05 -7.425634e-06 2.514974e-27)
(-6.532087e-05 -2.924133e-05 -3.170773e-26)
(-5.178057e-05 -7.187679e-05 1.378535e-25)
(-4.397679e-05 -0.00015497 8.012946e-26)
(-8.943758e-05 -0.0002794045 -6.240521e-26)
(-0.000223552 -0.0006041517 4.436451e-25)
(-0.0002981133 -0.002057283 1.132438e-24)
(-5.136396e-05 -8.292987e-06 -7.311591e-26)
(-7.407025e-05 -3.029199e-05 9.850241e-26)
(-5.489761e-05 -6.930064e-05 6.233866e-26)
(-4.11844e-05 -0.0001423778 -7.13753e-26)
(-8.185223e-05 -0.0002655446 9.231755e-27)
(-0.000210402 -0.0005755062 4.14897e-26)
(-0.0003808558 -0.001798665 -4.616365e-25)
(-5.716157e-05 -8.26372e-06 -1.249346e-25)
(-8.05832e-05 -3.018934e-05 8.337171e-26)
(-5.370553e-05 -6.995969e-05 3.397702e-27)
(-3.309964e-05 -0.0001382744 -2.304308e-26)
(-7.137652e-05 -0.0002492917 1.151094e-25)
(-0.000200191 -0.0005223686 -1.431213e-26)
(-0.0004341433 -0.001520769 -1.200766e-24)
(-6.020996e-05 -1.007857e-05 -3.618466e-26)
(-8.525959e-05 -3.202014e-05 -3.909899e-26)
(-5.481313e-05 -7.002832e-05 -9.369132e-26)
(-2.805007e-05 -0.0001344527 7.473927e-27)
(-5.959685e-05 -0.0002382751 7.343114e-26)
(-0.0001843946 -0.0004697351 -2.355893e-26)
(-0.0004438607 -0.001248191 -8.822419e-25)
(-6.715439e-05 -8.276531e-06 4.06467e-27)
(-9.204094e-05 -3.261185e-05 -2.138057e-26)
(-5.910792e-05 -6.90543e-05 -1.536601e-25)
(-2.543459e-05 -0.0001304955 9.317294e-26)
(-4.777489e-05 -0.0002308257 1.078157e-25)
(-0.0001604072 -0.0004203883 -2.372089e-26)
(-0.0004172252 -0.0009358127 -6.906833e-26)
(-7.006162e-05 -9.208728e-06 -3.173008e-27)
(-9.83449e-05 -3.369941e-05 5.157644e-26)
(-6.300019e-05 -6.922339e-05 1.547547e-26)
(-2.133623e-05 -0.00012668 1.414926e-25)
(-2.813299e-05 -0.0002147698 -7.616565e-26)
(-0.0001254992 -0.0003692084 -1.387541e-25)
(-0.0003656489 -0.0007572282 -3.515335e-25)
(-7.127493e-05 -1.104796e-05 0)
(-0.000102974 -3.595522e-05 2.897481e-27)
(-6.648715e-05 -6.961659e-05 2.633395e-25)
(-1.837723e-05 -0.0001188775 2.391868e-25)
(-8.245505e-06 -0.0001991948 8.4835e-28)
(-8.627086e-05 -0.0003254924 -5.408114e-26)
(-0.0003167588 -0.0006018981 4.618881e-26)
(-7.263752e-05 -1.225347e-05 0)
(-0.0001059835 -3.815243e-05 -3.623762e-29)
(-6.97855e-05 -6.942915e-05 -5.001289e-26)
(-1.761757e-05 -0.0001125734 5.43872e-26)
(8.708194e-07 -0.0001793844 -8.488353e-26)
(-5.428662e-05 -0.0002866689 2.352095e-25)
(-0.0002390975 -0.0004838826 3.599295e-25)
(-7.306271e-05 -1.300668e-05 -2.997587e-27)
(-0.0001086825 -3.992559e-05 0)
(-7.543584e-05 -6.939624e-05 0)
(-2.321108e-05 -0.0001069463 5.509497e-26)
(3.935521e-06 -0.0001629286 -8.431431e-26)
(-3.020195e-05 -0.0002470265 5.366512e-26)
(-0.0001623677 -0.0003933595 -2.210927e-25)
(-7.270652e-05 -1.350492e-05 -2.842972e-27)
(-0.0001114192 -4.101832e-05 -3.260181e-29)
(-8.289378e-05 -6.931714e-05 -6.015468e-29)
(-3.216878e-05 -0.0001022762 -6.08438e-28)
(2.688958e-06 -0.000146376 5.503939e-26)
(-8.602885e-06 -0.0002095923 -1.175447e-25)
(-8.553832e-05 -0.0003045104 -1.445924e-25)
(-7.181479e-05 -1.359659e-05 0)
(-0.000113881 -4.114312e-05 3.393663e-27)
(-9.063182e-05 -6.850945e-05 0)
(-4.258653e-05 -9.729126e-05 -1.892047e-28)
(-2.909326e-06 -0.0001321708 -2.587572e-28)
(4.381598e-06 -0.0001778399 -1.202473e-25)
(-3.049625e-05 -0.0002345272 -2.13858e-25)
(-7.038628e-05 -1.329763e-05 0)
(-0.000115472 -4.03704e-05 -3.153486e-27)
(-9.748232e-05 -6.657186e-05 3.168652e-27)
(-5.403594e-05 -9.271139e-05 0)
(-1.438713e-05 -0.0001208297 -5.151656e-28)
(5.300405e-06 -0.0001526037 1.702562e-27)
(3.370506e-06 -0.0001855559 1.421659e-27)
(-6.860515e-05 -1.270592e-05 0)
(-0.0001154555 -3.856648e-05 -8.737197e-27)
(-0.0001029583 -6.370439e-05 -3.96177e-30)
(-6.618838e-05 -8.824377e-05 -6.047029e-27)
(-3.009573e-05 -0.0001125205 -5.22288e-28)
(-5.951623e-06 -0.0001358448 2.71667e-27)
(9.465976e-06 -0.0001524086 -3.017107e-27)
(-6.600845e-05 -1.177286e-05 2.120944e-27)
(-0.0001137534 -3.598696e-05 -2.69054e-27)
(-0.0001067519 -5.977765e-05 8.355072e-31)
(-7.70893e-05 -8.324069e-05 -5.013767e-27)
(-4.669e-05 -0.0001059261 0)
(-2.449669e-05 -0.0001257033 0)
(-5.280112e-06 -0.0001354718 -3.786101e-27)
(-6.266119e-05 -1.06123e-05 1.926391e-27)
(-0.0001104821 -3.276553e-05 -2.429007e-27)
(-0.0001081381 -5.499755e-05 2.369405e-27)
(-8.505648e-05 -7.732907e-05 2.313864e-27)
(-6.101518e-05 -9.928982e-05 0)
(-4.301692e-05 -0.0001181688 0)
(-2.529996e-05 -0.0001255279 -2.677186e-27)
(-5.882929e-05 -9.332042e-06 -1.75144e-27)
(-0.0001057596 -2.914972e-05 -2.257354e-27)
(-0.0001067605 -4.938272e-05 -6.427519e-29)
(-8.899821e-05 -7.029827e-05 1.976793e-27)
(-7.024816e-05 -9.13242e-05 6.752924e-28)
(-5.574283e-05 -0.0001089881 -2.985202e-27)
(-4.025776e-05 -0.0001153504 1.403313e-27)
(-5.469251e-05 -8.01877e-06 -1.58409e-27)
(-9.976276e-05 -2.533629e-05 -1.869631e-29)
(-0.0001029527 -4.33706e-05 6.142477e-29)
(-8.91865e-05 -6.243504e-05 8.747316e-29)
(-7.380313e-05 -8.185963e-05 0)
(-6.127344e-05 -9.770549e-05 -1.911268e-27)
(-4.81723e-05 -0.0001035597 1.522695e-27)
(-5.046818e-05 -6.781164e-06 0)
(-9.292962e-05 -2.163576e-05 -3.437052e-29)
(-9.743134e-05 -3.740118e-05 -5.807565e-29)
(-8.615863e-05 -5.447509e-05 3.906062e-27)
(-7.267699e-05 -7.150842e-05 7.893886e-28)
(-6.135937e-05 -8.537448e-05 2.652634e-27)
(-5.015194e-05 -9.066694e-05 1.020779e-27)
(-4.617746e-05 -5.643725e-06 -4.1349e-30)
(-8.563919e-05 -1.821798e-05 -1.613462e-29)
(-9.067457e-05 -3.172658e-05 0)
(-8.082127e-05 -4.649586e-05 -4.485312e-30)
(-6.825461e-05 -6.1176e-05 1.382135e-27)
(-5.829871e-05 -7.329832e-05 1.264835e-27)
(-4.848906e-05 -7.798176e-05 -2.682173e-28)
(-4.19494e-05 -4.655126e-06 1.13041e-27)
(-7.824409e-05 -1.521338e-05 -1.438178e-27)
(-8.319236e-05 -2.6717e-05 2.496386e-27)
(-7.415885e-05 -3.913315e-05 -2.928291e-27)
(-6.266968e-05 -5.167869e-05 1.120067e-27)
(-5.373862e-05 -6.22624e-05 0)
(-4.499491e-05 -6.634712e-05 2.419721e-28)
(-3.787403e-05 -3.809106e-06 1.010637e-27)
(-7.099832e-05 -1.26295e-05 -1.240182e-27)
(-7.52934e-05 -2.219135e-05 1.201292e-27)
(-6.675427e-05 -3.259884e-05 0)
(-5.651702e-05 -4.33185e-05 -1.060216e-27)
(-4.851238e-05 -5.253182e-05 0)
(-4.07023e-05 -5.610053e-05 8.700489e-28)
(-3.401597e-05 -3.082081e-06 0)
(-6.387747e-05 -1.034435e-05 0)
(-6.739616e-05 -1.826203e-05 -2.123192e-27)
(-5.961133e-05 -2.696394e-05 0)
(-5.037895e-05 -3.612646e-05 -1.85987e-27)
(-4.313701e-05 -4.41151e-05 -8.495232e-28)
(-3.610549e-05 -4.723282e-05 7.581513e-28)
(-3.055362e-05 -2.493191e-06 -7.937953e-28)
(-5.705302e-05 -8.410184e-06 0)
(-6.001057e-05 -1.492692e-05 -9.139848e-28)
(-5.289682e-05 -2.220368e-05 9.048376e-28)
(-4.450621e-05 -3.001163e-05 -8.149903e-28)
(-3.795934e-05 -3.698193e-05 -1.483362e-27)
(-3.177978e-05 -3.992049e-05 -6.623037e-28)
(-2.728518e-05 -1.98857e-06 -6.99947e-28)
(-5.070118e-05 -6.802467e-06 -8.527712e-28)
(-5.318005e-05 -1.214257e-05 0)
(-4.666828e-05 -1.82125e-05 8.164253e-28)
(-3.904139e-05 -2.489653e-05 5.68247e-29)
(-3.323031e-05 -3.117665e-05 -1.363725e-27)
(-2.81337e-05 -3.450268e-05 -2.339797e-28)
(-2.42194e-05 -1.573477e-06 -6.168641e-28)
(-4.490667e-05 -5.467826e-06 -7.523281e-28)
(-4.695407e-05 -9.8326e-06 7.19265e-28)
(-4.097133e-05 -1.489146e-05 0)
(-3.406429e-05 -2.068587e-05 0)
(-2.908647e-05 -2.665748e-05 -5.676923e-28)
(-2.545327e-05 -3.121204e-05 1.051587e-27)
(-2.143832e-05 -1.236511e-06 -5.412402e-28)
(-3.968065e-05 -4.375216e-06 -6.599396e-28)
(-4.132933e-05 -7.925656e-06 6.298318e-28)
(-3.580693e-05 -1.211862e-05 0)
(-2.951299e-05 -1.711513e-05 4.499653e-29)
(-2.517112e-05 -2.268929e-05 6.854056e-32)
(-2.253018e-05 -2.789154e-05 -6.34105e-29)
(-1.89405e-05 -9.676047e-07 0)
(-3.500334e-05 -3.492724e-06 -5.776209e-28)
(-3.629886e-05 -6.370599e-06 5.515061e-28)
(-3.118734e-05 -9.819866e-06 0)
(-2.540244e-05 -1.406079e-05 -5.162241e-28)
(-2.145892e-05 -1.904351e-05 -9.539254e-29)
(-1.92582e-05 -2.41163e-05 -5.601563e-29)
(-1.671404e-05 -7.578588e-07 4.147621e-28)
(-3.084482e-05 -2.795508e-06 -3.152196e-30)
(-3.184754e-05 -5.132006e-06 4.762892e-28)
(-2.713101e-05 -7.962694e-06 -1.413759e-29)
(-2.181084e-05 -1.152467e-05 -1.727478e-29)
(-1.814854e-05 -1.584615e-05 -3.744324e-28)
(-1.609608e-05 -2.038485e-05 0)
(-1.473692e-05 -5.983058e-07 7.239454e-28)
(-2.716587e-05 -2.257544e-06 0)
(-2.794094e-05 -4.171645e-06 0)
(-2.362403e-05 -6.510923e-06 4.056932e-28)
(-1.876589e-05 -9.512032e-06 7.387792e-28)
(-1.531116e-05 -1.324273e-05 -3.279594e-28)
(-1.330872e-05 -1.708643e-05 0)
(-1.298576e-05 -4.789804e-07 3.152788e-28)
(-2.392054e-05 -1.848231e-06 -2.468737e-30)
(-2.452345e-05 -3.437439e-06 -4.053517e-30)
(-2.059973e-05 -5.389326e-06 -1.132933e-29)
(-1.618379e-05 -7.919239e-06 3.000264e-28)
(-1.2949e-05 -1.110213e-05 0)
(-1.094621e-05 -1.433582e-05 -2.397045e-28)
(-1.143689e-05 -3.903211e-07 -2.903176e-31)
(-2.106075e-05 -1.538104e-06 -3.368498e-28)
(-2.153586e-05 -2.879359e-06 -3.209934e-28)
(-1.799132e-05 -4.531517e-06 -5.925084e-28)
(-1.39936e-05 -6.682892e-06 0)
(-1.100738e-05 -9.396498e-06 -2.411002e-28)
(-9.114439e-06 -1.217343e-05 3.50859e-31)
(-1.006752e-05 -3.239354e-07 -2.375184e-28)
(-1.854109e-05 -1.301742e-06 -5.79322e-28)
(-1.89244e-05 -2.454333e-06 -5.530444e-28)
(-1.574594e-05 -3.878237e-06 -2.649206e-28)
(-1.21481e-05 -5.736578e-06 -1.083151e-29)
(-9.412725e-06 -8.064119e-06 -2.071226e-28)
(-7.671613e-06 -1.048217e-05 1.899826e-28)
(-8.856704e-06 -2.734162e-07 -2.057202e-28)
(-1.63191e-05 -1.118452e-06 -5.002879e-28)
(-1.663685e-05 -2.125439e-06 -2.375981e-28)
(-1.380562e-05 -3.376032e-06 0)
(-1.055142e-05 -5.017167e-06 -7.426524e-29)
(-8.061184e-06 -7.004805e-06 -1.111909e-28)
(-6.494548e-06 -9.122568e-06 -2.535935e-29)
(-7.784997e-06 -2.336306e-07 -1.777863e-28)
(-1.43541e-05 -9.709591e-07 -2.150217e-28)
(-1.461813e-05 -1.858219e-06 7.316604e-30)
(-1.209809e-05 -2.960678e-06 6.698772e-30)
(-9.16576e-06 -4.405571e-06 0)
(-6.876477e-06 -6.127857e-06 -1.519556e-28)
(-5.505653e-06 -8.004877e-06 1.111125e-29)
(-6.835686e-06 -2.015886e-07 -1.52987e-28)
(-1.261277e-05 -8.497843e-07 -1.850004e-28)
(-1.282878e-05 -1.636695e-06 4.287529e-30)
(-1.058233e-05 -2.612954e-06 2.94196e-30)
(-7.958859e-06 -3.887574e-06 0)
(-5.895363e-06 -5.405121e-06 -1.201715e-28)
(-4.681374e-06 -7.084038e-06 1.948393e-29)
(-5.994304e-06 -1.756973e-07 1.535355e-31)
(-1.106898e-05 -7.501641e-07 -3.176275e-28)
(-1.12434e-05 -1.453833e-06 1.880512e-30)
(-9.241456e-06 -2.324851e-06 2.582817e-30)
(-6.900297e-06 -3.457194e-06 0)
(-5.057837e-06 -4.809394e-06 0)
(-3.98179e-06 -6.316689e-06 0)
(-5.24828e-06 -1.551521e-07 0)
(-9.700267e-06 -6.695513e-07 -1.357922e-28)
(-9.840509e-06 -1.305591e-06 0)
(-8.057922e-06 -2.090571e-06 1.14747e-28)
(-5.967931e-06 -3.100176e-06 -5.741452e-30)
(-4.327578e-06 -4.312883e-06 -6.66757e-30)
(-3.375111e-06 -5.672094e-06 6.825419e-29)
(-4.586101e-06 -1.393121e-07 -9.521646e-29)
(-8.484199e-06 -6.057135e-07 0)
(-8.594696e-06 -1.188439e-06 2.896132e-30)
(-6.992196e-06 -1.907712e-06 7.443387e-29)
(-5.125814e-06 -2.805362e-06 -1.301162e-28)
(-3.676126e-06 -3.897226e-06 0)
(-2.838034e-06 -5.131164e-06 6.268478e-29)
(-3.996164e-06 -1.272308e-07 -8.051419e-29)
(-7.396683e-06 -5.550863e-07 0)
(-7.475816e-06 -1.093091e-06 1.274092e-30)
(-6.035945e-06 -1.752948e-06 1.768978e-30)
(-4.354062e-06 -2.564529e-06 -1.503276e-28)
(-3.086702e-06 -3.55723e-06 6.384569e-29)
(-2.355861e-06 -4.685275e-06 -5.150566e-29)
(-3.468177e-06 -1.189938e-07 0)
(-6.417337e-06 -5.180142e-07 -8.113192e-29)
(-6.461145e-06 -1.021896e-06 1.118768e-30)
(-5.171918e-06 -1.634053e-06 7.077911e-29)
(-3.672493e-06 -2.380753e-06 -6.214129e-29)
(-2.556503e-06 -3.294363e-06 5.238468e-29)
(-1.919498e-06 -4.330194e-06 6.654842e-32)
(-2.992945e-06 -1.149708e-07 0)
(-5.529252e-06 -4.960581e-07 -6.799394e-29)
(-5.53397e-06 -9.783695e-07 6.395687e-29)
(-4.378179e-06 -1.557627e-06 5.968266e-29)
(-3.048862e-06 -2.257117e-06 -4.927859e-29)
(-2.068562e-06 -3.105653e-06 3.908006e-30)
(-1.516271e-06 -4.061453e-06 3.312747e-29)
(-2.561691e-06 -1.162384e-07 0)
(-4.715411e-06 -4.918944e-07 0)
(-4.675553e-06 -9.662769e-07 5.23317e-29)
(-3.635734e-06 -1.527303e-06 -4.746858e-29)
(-2.461243e-06 -2.19393e-06 4.105304e-32)