/*--------------------------------*- C++ -*----------------------------------*\
| =========                 |                                                 |
| \\      /  F ield         | OpenFOAM: The Open Source CFD Toolbox           |
|  \\    /   O peration     | Version:  2206                                  |
|   \\  /    A nd           | Website:  www.openfoam.com                      |
|    \\/     M anipulation  |                                                 |
\*---------------------------------------------------------------------------*/
FoamFile
{
    version     2.0;
    format      ascii;
    arch        "LSB;label=32;scalar=64";
    class       surfaceVectorField;
    location    "2.6";
    object      ddtCorrDdt0(Ufb);
}
// * * * * * * * * * * * * * * * * * * * * * * * * * * * * * * * * * * * * * //

dimensions      [0 1 -2 0 0 0 0];

internalField   nonuniform List<vector> 
26037
(
(0.0003196875 -0.0001842763 2.245948e-22)
(0.0003925389 -6.547941e-05 -1.117542e-27)
(0.0002902476 -0.0003670879 -2.308671e-22)
(0.000383124 -0.0002695852 5.69915e-24)
(0.000283715 -0.0005097499 -6.3668e-27)
(0.0003443537 -0.0004061883 -6.381258e-27)
(0.0002798713 -0.0006536208 -5.676091e-27)
(0.0003507841 -0.0005804631 0)
(0.0002712572 -0.0007919483 2.015292e-23)
(0.0003426788 -0.0007300462 -5.916601e-27)
(0.0002604936 -0.0009174402 -1.389471e-26)
(0.0003280916 -0.000862157 -2.054771e-25)
(0.0003083892 -0.0009820462 -7.481276e-27)
(0.0002467406 -0.001026637 4.23403e-23)
(0.0004524411 -0.000129595 -2.522829e-28)
(0.0006413221 -6.707739e-05 2.107109e-26)
(0.0004308759 -0.0002943402 -2.547076e-28)
(0.0005619395 -0.0002114756 -2.014344e-26)
(0.0004242758 -0.0004889408 0)
(0.0005272654 -0.0003976948 3.053295e-27)
(0.0004173456 -0.0006627232 -2.412635e-28)
(0.0005164655 -0.0005835081 9.385797e-27)
(0.000401992 -0.0008050614 -3.583287e-28)
(0.0004810462 -0.0007439292 -1.874755e-24)
(0.000378134 -0.0009354058 -3.41414e-28)
(0.0004560563 -0.0008845436 -1.171414e-28)
(0.0004205222 -0.001010892 -5.534256e-25)
(0.0003480754 -0.001048708 -8.125301e-27)
(0.000671696 -0.0001292654 1.073477e-27)
(0.0007931868 -7.238136e-05 -1.774501e-22)
(0.00062999 -0.0003144352 -1.714584e-26)
(0.0007509428 -0.0002383938 8.951037e-23)
(0.0005958909 -0.0005039806 -6.518562e-23)
(0.0007125067 -0.0004242815 -4.051679e-26)
(0.0005724292 -0.0006774668 -6.120796e-23)
(0.0006840874 -0.0006037326 -1.111143e-26)
(0.0005431866 -0.0008298201 6.313401e-27)
(0.0006297827 -0.0007720958 6.949838e-24)
(0.000502327 -0.0009699484 -4.637946e-32)
(0.0005937565 -0.0009244928 0)
(0.0005396362 -0.001058169 6.156879e-25)
(0.000454436 -0.001090092 8.939539e-27)
(0.0008597824 -0.0001629627 -2.209746e-26)
(0.0009634356 -8.803347e-05 2.416132e-26)
(0.0008231195 -0.0003531518 -9.029539e-26)
(0.0009466509 -0.0002722319 1.852676e-22)
(0.0007820626 -0.0005370803 -3.814509e-24)
(0.0008996619 -0.0004633078 -4.758274e-23)
(0.0007401117 -0.000705311 -2.010719e-26)
(0.0008526664 -0.0006439589 -2.417602e-23)
(0.0006924524 -0.0008773976 6.413285e-28)
(0.0007978359 -0.0008183382 1.516311e-26)
(0.0006342866 -0.001023389 2.76392e-28)
(0.0007374531 -0.0009823772 -1.129241e-30)
(0.0006665466 -0.00112488 9.30474e-27)
(0.0005675413 -0.001151188 -9.21789e-27)
(0.001045621 -0.0001926868 3.308244e-25)
(0.001162108 -0.0001005509 -2.768579e-29)
(0.001015813 -0.000386249 1.088872e-24)
(0.001146236 -0.0003021905 -2.640175e-26)
(0.0009730689 -0.0005796321 -1.006922e-25)
(0.001096778 -0.0005047185 -5.158451e-26)
(0.0009154154 -0.0007627561 5.649633e-24)
(0.001041643 -0.0007017675 -9.853345e-23)
(0.0008490654 -0.0009367011 6.571346e-23)
(0.0009732909 -0.0008849481 2.897983e-23)
(0.0007753403 -0.001094913 -6.248168e-23)
(0.0008932846 -0.001056114 -9.442799e-27)
(0.0008038825 -0.001211575 -2.049697e-24)
(0.0006892724 -0.001233016 9.028332e-27)
(0.001257385 -0.000213945 1.763584e-28)
(0.001382466 -0.0001119221 0)
(0.001225869 -0.0004212858 -2.379731e-25)
(0.001360062 -0.0003350319 -3.465988e-26)
(0.001174334 -0.0006338917 4.80341e-24)
(0.001313896 -0.0005562026 -3.887817e-26)
(0.001106283 -0.0008330832 -6.0546e-24)
(0.001247447 -0.0007695535 -3.506305e-26)
(0.001022736 -0.00101662 -8.453872e-27)
(0.001164398 -0.000970778 -8.850927e-23)
(0.0009280012 -0.001185687 7.348668e-23)
(0.001065522 -0.001152904 -8.210467e-27)
(0.0009539585 -0.001318685 -2.24686e-26)
(0.000822195 -0.0013364 7.571841e-23)
(0.001492797 -0.0002369032 -3.481805e-26)
(0.001626442 -0.0001246097 8.095298e-26)
(0.001455612 -0.0004711592 -7.342824e-26)
(0.0016019 -0.0003734244 -1.358339e-22)
(0.001395774 -0.000698932 3.530982e-23)
(0.001549754 -0.0006174144 -1.184753e-22)
(0.001315214 -0.0009175798 -3.55189e-26)
(0.001474091 -0.0008514554 -7.255856e-27)
(0.001215032 -0.001118524 -7.272753e-24)
(0.001374123 -0.001073173 -9.465741e-26)
(0.00109819 -0.001300293 1.382296e-27)
(0.001256975 -0.001274564 2.955567e-27)
(0.001121648 -0.001452932 1.762494e-27)
(0.0009678809 -0.00146272 -6.630596e-28)
(0.001748609 -0.0002642164 4.134312e-26)
(0.001898597 -0.0001389072 3.065391e-22)
(0.001707799 -0.0005235202 -7.775659e-26)
(0.001869734 -0.0004164231 5.065745e-26)
(0.001639768 -0.0007759098 -3.850866e-26)
(0.001811283 -0.0006871861 6.232012e-27)
(0.001543912 -0.00101852 -6.695089e-26)
(0.001723079 -0.0009486624 1.227119e-27)
(0.00142637 -0.001240993 -6.487561e-26)
(0.001606558 -0.001194517 -2.733759e-22)
(0.001289199 -0.00144177 -9.631612e-24)
(0.001468997 -0.001417993 3.380619e-27)
(0.001310154 -0.001617182 1.77468e-27)
(0.001132367 -0.001618058 -1.348683e-26)
(0.002034846 -0.000294547 9.025986e-26)
(0.002202117 -0.0001556589 -3.851574e-22)
(0.001988451 -0.000585302 1.346368e-25)
(0.002170277 -0.0004663883 3.861041e-22)
(0.001909941 -0.0008662776 -6.387399e-24)
(0.002102779 -0.0007694528 1.8521e-22)
(0.001798519 -0.001137168 -1.493553e-25)
(0.002001223 -0.001061763 -9.147148e-26)
(0.001661614 -0.001385 -9.658223e-24)
(0.001865963 -0.001336366 -3.238054e-22)
(0.001501213 -0.001609075 1.805807e-27)
(0.001706162 -0.001586164 1.805251e-27)
(0.001520607 -0.001809047 0)
(0.001318515 -0.001805351 2.523358e-26)
(0.002355742 -0.0003308113 -2.425253e-27)
(0.002543201 -0.0001752927 -1.052967e-25)
(0.00230251 -0.0006568063 1.524717e-25)
(0.002507541 -0.0005245793 1.029288e-25)
(0.002212142 -0.0009717531 -4.162447e-26)
(0.002429863 -0.0008646159 1.623867e-25)
(0.002083578 -0.001275218 -9.205281e-26)
(0.00231316 -0.001192452 -4.037899e-22)
(0.001925008 -0.001553054 -4.858256e-29)
(0.002157228 -0.001500845 3.647964e-22)
(0.001738738 -0.001803782 0)
(0.001972072 -0.001781537 0)
(0.001757287 -0.002031969 0)
(0.001526264 -0.002024021 3.349075e-26)
(0.00271639 -0.000372591 0)
(0.002927563 -0.0001974603 0)
(0.002656023 -0.0007399317 1.127973e-25)
(0.002887855 -0.0005909649 -1.342244e-25)
(0.002552394 -0.001093074 9.656719e-27)
(0.002796981 -0.0009739364 5.790854e-22)
(0.002404053 -0.001435376 -1.048627e-25)
(0.002665332 -0.001343123 1.294217e-26)
(0.002220871 -0.001747064 5.784207e-29)
(0.002484468 -0.001690786 -4.253501e-22)
(0.002005896 -0.002028856 0)
(0.002271421 -0.002006799 0)
(0.002024285 -0.002288948 9.327446e-26)
(0.001760544 -0.00227685 -3.199993e-26)
(0.003123824 -0.0004199047 -1.341685e-25)
(0.003361027 -0.0002230104 0)
(0.003054537 -0.0008342589 -5.503855e-27)
(0.003317207 -0.0006672071 -5.449066e-22)
(0.002935158 -0.001235895 2.477023e-25)
(0.003214872 -0.001099592 1.273662e-25)
(0.002764488 -0.001618243 1.178972e-23)
(0.00305916 -0.001516344 5.33757e-22)
(0.002554301 -0.00196952 -1.137119e-25)
(0.002853702 -0.00190839 -2.408683e-25)
(0.002307511 -0.002287519 9.324235e-26)
(0.002609684 -0.002265004 1.141232e-25)
(0.002326518 -0.00258369 4.032243e-22)
(0.002025779 -0.002567828 -3.212279e-23)
(0.003583347 -0.0004778436 -1.542393e-25)
(0.003854638 -0.0002524461 -1.793468e-25)
(0.003503307 -0.0009429258 7.693994e-24)
(0.003799565 -0.0007547691 -1.542645e-25)
(0.003366446 -0.001392754 1.344005e-25)
(0.003683409 -0.001243308 -3.315734e-27)
(0.003171373 -0.001826776 8.420214e-27)
(0.003506438 -0.001713645 1.351639e-25)
(0.00293131 -0.002224145 -1.283029e-26)
(0.00327176 -0.002156078 -5.820905e-22)
(0.002648938 -0.002583724 1.142208e-25)
(0.002992616 -0.002559892 5.104098e-22)
(0.002669195 -0.002920532 -4.604242e-22)
(0.002326729 -0.002901138 9.60779e-29)
(0.004102692 -0.0005380501 -1.793814e-25)
(0.004410863 -0.0002859164 -7.703341e-22)
(0.004010596 -0.0010659 -1.766789e-27)
(0.004347437 -0.0008540231 0)
(0.003854159 -0.001574828 1.217818e-23)
(0.004213993 -0.001406724 -5.805562e-27)
(0.003632594 -0.00206364 -2.949426e-25)
(0.004011335 -0.001939754 2.149933e-25)
(0.003358789 -0.002514868 -1.595409e-25)
(0.003746852 -0.002434679 -7.322507e-22)
(0.003035911 -0.002921715 1.702881e-26)
(0.003426334 -0.002895318 1.304392e-25)
(0.003058109 -0.003304306 1.622054e-26)
(0.002668584 -0.003281557 -2.803617e-26)
(0.004691292 -0.0006088776 -2.052064e-25)
(0.005040772 -0.0003236552 -2.051118e-25)
(0.004585775 -0.001205938 -4.034219e-27)
(0.004967668 -0.0009663641 -2.290148e-25)
(0.004405678 -0.001782835 2.175334e-23)
(0.004816538 -0.001591305 -4.035248e-27)
(0.004158869 -0.002331777 -2.360319e-22)
(0.004590004 -0.002193125 6.885276e-22)
(0.003845846 -0.002844792 -1.11662e-25)
(0.004290802 -0.002754399 -1.043254e-25)
(0.00347511 -0.003306199 1.296493e-25)
(0.00391896 -0.003276832 9.456574e-27)
(0.00349988 -0.003740662 5.963163e-22)
(0.00305713 -0.003714519 2.378279e-25)
(0.005357567 -0.000688768 -2.289042e-25)
(0.005753883 -0.0003663748 0)
(0.005237176 -0.001364 -2.29061e-25)
(0.005669691 -0.001093594 -9.693425e-22)
(0.005035339 -0.002015144 2.1298e-25)
(0.005497193 -0.001800136 -2.6397e-27)
(0.004756924 -0.002634135 -3.802016e-23)
(0.005240837 -0.002477097 2.09574e-25)
(0.004393969 -0.003219812 1.742929e-26)
(0.004900571 -0.003118686 7.956785e-27)
(0.003973315 -0.003743164 -4.480098e-23)
(0.004477282 -0.003710089 9.452466e-27)
(0.004001558 -0.004236027 1.592561e-25)
(0.00349874 -0.004206391 1.711607e-25)
(0.006112041 -0.0007795717 -5.234717e-25)
(0.006561674 -0.0004147288 -3.064194e-25)
(0.005974466 -0.001543789 -5.264693e-25)
(0.006464932 -0.001237788 -1.098019e-21)
(0.005745441 -0.002281074 1.517329e-23)
(0.006268635 -0.002037499 -8.666271e-27)
(0.00542951 -0.00298126 -3.687447e-27)
(0.005977721 -0.002803408 -7.7716e-27)
(0.005016388 -0.00364527 0)
(0.005591247 -0.00353034 0)
(0.00453899 -0.004238768 0)
(0.005110949 -0.004200777 -2.355062e-25)
(0.00457132 -0.004797542 -2.810478e-26)
(0.004000597 -0.004764334 -1.355188e-26)
(0.006966665 -0.0008823347 -4.784391e-24)
(0.007476725 -0.0004693703 -1.271755e-21)
(0.006809736 -0.001747186 1.225024e-23)
(0.007365709 -0.001400774 -6.432399e-25)
(0.006549648 -0.002581725 1.720879e-23)
(0.007142662 -0.002305809 -1.632151e-26)
(0.006191096 -0.003374188 -4.208233e-27)
(0.006812538 -0.003172705 -1.358095e-26)
(0.005722593 -0.004126288 -2.382439e-25)
(0.006373869 -0.003995267 0)
(0.005181448 -0.00480019 5.770596e-23)
(0.005831001 -0.004754823 -1.032056e-21)
(0.00521841 -0.005433338 -4.412829e-26)
(0.004570862 -0.005396488 6.476776e-23)
(0.007934639 -0.0009984103 -5.44317e-24)
(0.008513079 -0.0005310206 -7.507059e-25)
(0.007755894 -0.001976953 1.37672e-23)
(0.008385848 -0.001584704 -1.402721e-21)
(0.007460771 -0.002921475 3.887128e-23)
(0.008132844 -0.002608839 -3.854809e-25)
(0.007053311 -0.003818444 -9.591005e-27)
(0.007758546 -0.00359127 -9.43754e-27)
(0.006524828 -0.004667196 -2.586824e-25)
(0.007259729 -0.004525924 1.030062e-25)
(0.0059124 -0.005435492 -2.715251e-25)
(0.006652573 -0.005372554 -1.033171e-25)
(0.00595329 -0.006151495 2.043389e-26)
(0.00521898 -0.006112035 7.282756e-23)
(0.009030684 -0.001129274 -1.181726e-24)
(0.009686339 -0.0006004259 -1.616155e-21)
(0.00882757 -0.002236055 -1.156657e-24)
(0.009540783 -0.001791739 -1.576583e-21)
(0.00849401 -0.003305283 -3.754619e-25)
(0.00925488 -0.002949657 -1.515624e-21)
(0.008029991 -0.004323773 1.020725e-25)
(0.008835245 -0.004060539 -3.924883e-25)
(0.007446995 -0.005276977 -4.996558e-22)
(0.00828321 -0.005116704 1.178867e-25)
(0.006748367 -0.006152078 -1.702853e-22)
(0.007600821 -0.006078969 -1.757555e-25)
(0.006790188 -0.006963491 3.086956e-25)
(0.005956353 -0.006921034 3.645937e-26)
(0.01027104 -0.001276449 4.806275e-24)
(0.01101378 -0.0006784707 -4.577671e-25)
(0.01004041 -0.002527176 -1.961378e-23)
(0.01084721 -0.002024538 -1.7776e-21)
(0.009664342 -0.003734977 -1.244978e-24)
(0.01052361 -0.00333295 -1.725497e-21)
(0.009147554 -0.004882549 -5.825256e-23)
(0.01004934 -0.004587537 -1.65763e-21)
(0.0084978 -0.005957656 -3.081706e-25)
(0.009429125 -0.005772176 1.531596e-26)
(0.007689425 -0.006960638 -4.872705e-26)
(0.008659214 -0.0068784 -1.35709e-21)
(0.00774081 -0.007880509 1.306001e-21)
(0.006794768 -0.007835569 9.248837e-23)
(0.01167392 -0.001441898 -5.058987e-25)
(0.0125148 -0.000766078 5.954077e-25)
(0.01141228 -0.002854766 -2.089402e-23)
(0.01232454 -0.002285965 -5.059727e-25)
(0.01098776 -0.004220126 -1.407894e-24)
(0.01195938 -0.003763951 -4.840249e-25)
(0.01040616 -0.00551902 -9.254197e-25)
(0.01142506 -0.005182465 -1.866012e-21)
(0.009674386 -0.006735411 -3.703303e-25)
(0.01072669 -0.006522049 5.080072e-25)
(0.008759943 -0.007872747 -3.715694e-25)
(0.009857255 -0.007775228 -3.781779e-25)
(0.008823019 -0.008911548 -1.593643e-21)
(0.007749432 -0.00886835 -2.315063e-25)
(0.01325958 -0.001627363 5.955153e-25)
(0.01421066 -0.000864102 2.285095e-21)
(0.01296354 -0.003222133 0)
(0.01399383 -0.002578581 0)
(0.01248565 -0.004764495 1.529667e-26)
(0.01358302 -0.004246675 0)
(0.01183108 -0.006233463 -7.425985e-23)
(0.0129826 -0.005849776 2.117113e-21)
(0.01100497 -0.007609655 5.184441e-25)
(0.01219665 -0.007368329 2.083393e-21)
(0.009978455 -0.008892857 -3.913493e-25)
(0.01121415 -0.008796651 -5.023368e-25)
(0.01006312 -0.01005627 -3.888123e-25)
(0.008838471 -0.01003273 -7.7195e-25)
(0.01505018 -0.001834588 1.357542e-24)
(0.0161246 -0.0009734109 2.547012e-21)
(0.01471623 -0.003632747 0)
(0.01587813 -0.002904941 4.421294e-27)
(0.01418027 -0.005373591 5.837065e-25)
(0.01541762 -0.00478523 7.316944e-25)
(0.01344732 -0.007035364 7.719106e-23)
(0.01474643 -0.006594184 6.038767e-25)
(0.01251474 -0.008601457 6.12281e-25)
(0.0138741 -0.008310149 2.125723e-21)
(0.01139175 -0.01004463 -5.054868e-25)
(0.012798 -0.009927425 -1.647739e-21)
(0.01150959 -0.01136467 0)
(0.01008945 -0.011345 3.785548e-25)
(0.01706974 -0.002065258 7.774303e-25)
(0.01828166 -0.001094829 7.725496e-25)
(0.01669406 -0.004089924 -2.630596e-23)
(0.01800222 -0.003267638 -8.524808e-25)
(0.01609461 -0.006051567 7.518944e-25)
(0.01748729 -0.005384314 2.715535e-21)
(0.015277 -0.007924992 -8.870786e-23)
(0.01673719 -0.00742318 2.007478e-26)
(0.01424606 -0.009686282 -5.504376e-25)
(0.01576162 -0.009358356 -2.570648e-21)
(0.01300902 -0.0113177 -5.920556e-25)
(0.01456245 -0.01116898 -4.410373e-25)
(0.01311854 -0.01283992 7.833434e-26)
(0.01149887 -0.01281753 3.59922e-25)
(0.01934425 -0.002321008 -8.563521e-25)
(0.02070882 -0.001229006 -9.988916e-25)
(0.0189231 -0.004597462 -3.268143e-26)
(0.02039334 -0.003668965 -3.07709e-21)
(0.01825475 -0.006805835 8.250916e-25)
(0.01982001 -0.006048298 1.761853e-24)
(0.0173435 -0.008919784 -6.700083e-25)
(0.01898606 -0.008344239 0)
(0.01619573 -0.01091445 -2.318701e-22)
(0.01790145 -0.0105297 -7.344984e-25)
(0.01481581 -0.01276744 -3.470866e-22)
(0.01656688 -0.0125798 1.361442e-25)
(0.01495176 -0.01448587 1.66845e-25)
(0.01311276 -0.0144827 -1.254545e-26)
(0.02190161 -0.002602799 -1.972644e-24)
(0.02343412 -0.00137633 -3.400211e-21)
(0.02143176 -0.005158103 -3.767701e-26)
(0.0230806 -0.004109833 -2.078943e-24)
(0.02069008 -0.007640115 9.375362e-25)
(0.02244494 -0.006780064 3.334751e-21)
(0.01967956 -0.0100217 -6.433555e-26)
(0.02152247 -0.009361019 0)
(0.01840552 -0.01227625 2.513176e-22)
(0.0203223 -0.01182543 -6.434475e-26)
(0.01686856 -0.01437811 -3.733645e-22)
(0.01884237 -0.01415138 -8.641286e-25)
(0.01704783 -0.01634221 9.284089e-26)
(0.01497828 -0.01633333 6.63705e-25)
(0.02477127 -0.002910104 -2.238583e-24)
(0.02648698 -0.001535642 -2.420349e-24)
(0.02425042 -0.005773629 -4.03422e-26)
(0.02609554 -0.004590603 -3.797433e-21)
(0.02343079 -0.008557732 1.065595e-24)
(0.02539285 -0.007581849 1.06476e-24)
(0.02231624 -0.011236 0)
(0.02437786 -0.01047692 1.084081e-24)
(0.02091227 -0.01378202 -8.625366e-25)
(0.02305818 -0.01324788 -8.134148e-26)
(0.01920935 -0.01617971 -8.749476e-25)
(0.02144404 -0.01586654 -2.938655e-21)
(0.01953128 -0.01832451 1.25708e-21)
(0.01722354 -0.01839768 1.767072e-21)
(0.02798388 -0.003240044 2.191267e-23)
(0.02989334 -0.00171103 -3.772235e-21)
(0.02741069 -0.006445565 -1.260278e-24)
(0.02947209 -0.005100681 -1.263415e-24)
(0.02650842 -0.009561028 1.083194e-24)
(0.02869526 -0.008451867 -1.393398e-24)
(0.02528358 -0.01256553 2.419244e-22)
(0.02758447 -0.0116963 4.054984e-21)
(0.02373817 -0.0154239 -1.956112e-24)
(0.02613258 -0.01481061 -1.30281e-24)
(0.02186698 -0.01809244 -3.999364e-22)
(0.02433956 -0.01776059 -4.194476e-21)
(0.02217737 -0.02050333 -4.480008e-21)
(0.01966258 -0.02050627 -1.655239e-21)
(0.03157499 -0.003585714 -1.462204e-24)
(0.03370279 -0.001890659 -1.448891e-24)
(0.03095483 -0.007165441 -1.396871e-24)
(0.03325147 -0.005653365 0)
(0.02996079 -0.01065084 1.021624e-22)
(0.0323938 -0.009387166 -4.563303e-21)
(0.02862183 -0.01402144 4.806998e-26)
(0.03118534 -0.01301895 1.267321e-24)
(0.02692582 -0.0172478 -3.469236e-24)
(0.0296053 -0.0165194 -4.519296e-21)
(0.02485594 -0.02029589 -3.259934e-24)
(0.0276476 -0.01986446 -4.707208e-21)
(0.02527482 -0.02302929 1.486071e-25)
(0.02238081 -0.02312722 -2.674368e-24)
(0.03556966 -0.003960036 0)
(0.03792089 -0.002081965 -1.85995e-24)
(0.03489187 -0.007929399 -3.105364e-24)
(0.03741918 -0.006263344 1.787433e-24)
(0.03382671 -0.01182293 -3.093724e-24)
(0.03652327 -0.01035481 -5.056274e-21)
(0.03237666 -0.01559624 -2.775109e-24)
(0.03521879 -0.01442422 0)
(0.03054085 -0.01923006 -4.06046e-24)
(0.03351817 -0.01835703 -4.91464e-21)
(0.02829927 -0.0227033 -1.317986e-25)
(0.03141554 -0.02213243 -1.282436e-24)
(0.02888506 -0.02573723 4.555976e-21)
(0.02559686 -0.02600063 1.171959e-24)
(0.03997856 -0.004378578 4.558166e-23)
(0.04259723 -0.00228756 -4.694081e-21)
(0.03927637 -0.008721261 3.521274e-24)
(0.04206731 -0.006880671 4.456628e-21)
(0.03816452 -0.01303584 1.721796e-24)
(0.04112887 -0.01140816 8.845948e-21)
(0.03659691 -0.01727404 -1.578071e-24)
(0.03975032 -0.01585985 3.806376e-24)
(0.03462132 -0.02134913 -1.577698e-24)
(0.03790715 -0.0203004 -3.236488e-24)
(0.03222166 -0.02527014 1.011598e-24)
(0.03566826 -0.02455535 1.504455e-25)
(0.03294693 -0.02863715 8.361338e-25)
(0.02935256 -0.02898823 8.781556e-22)
(0.04488216 -0.004789243 -5.12403e-26)
(0.04772263 -0.002494136 -2.080016e-24)
(0.04412125 -0.009554379 7.896339e-24)
(0.04717808 -0.007484144 2.049021e-24)
(0.04298525 -0.01428138 9.748434e-24)
(0.04623292 -0.01246936 4.331844e-21)
(0.04134661 -0.0190203 -3.448103e-22)
(0.04484277 -0.01737411 1.111182e-20)
(0.03921867 -0.0235951 -1.508632e-24)
(0.0428354 -0.02231885 -6.62309e-21)
(0.03666523 -0.02803258 -3.351763e-22)
(0.04047875 -0.02711758 4.819049e-25)
(0.03759216 -0.03176311 6.042429e-25)
(0.03358728 -0.03228863 8.357349e-22)
(0.05023115 -0.005210702 -3.100074e-23)
(0.05331156 -0.00270386 -2.936899e-28)
(0.04947447 -0.01038435 2.306735e-24)
(0.05273789 -0.008112127 -9.482416e-28)
(0.04830761 -0.01553854 -2.325614e-22)
(0.05177946 -0.01350968 4.718923e-24)
(0.0465864 -0.02077977 1.033719e-22)
(0.05034567 -0.01897083 5.59411e-24)
(0.04439758 -0.02592891 -1.959059e-24)
(0.04836278 -0.02429376 -3.681381e-24)
(0.04171916 -0.03094441 -5.897505e-22)
(0.04590913 -0.02973598 2.118976e-24)
(0.04290703 -0.03503291 7.78538e-25)
(0.0384783 -0.03582284 -6.499497e-22)
(0.05604336 -0.005631541 2.871158e-23)
(0.05936636 -0.002904389 -3.982149e-27)
(0.0552871 -0.01123807 2.401586e-24)
(0.05877555 -0.008719345 -1.233848e-26)
(0.05408744 -0.01687664 2.677021e-23)
(0.05786915 -0.0145389 5.051843e-21)
(0.05244255 -0.02252028 7.171942e-22)
(0.05649326 -0.02046742 5.286614e-21)
(0.05026809 -0.02821733 4.218829e-22)
(0.05456739 -0.02634937 2.668232e-24)
(0.04747338 -0.0339296 1.786359e-24)
(0.05208706 -0.03225075 1.053245e-20)
(0.04894966 -0.03835197 0)
(0.04410633 -0.03948547 -1.229428e-25)
(0.06230911 -0.006017689 0)
(0.06585354 -0.003081921 -8.934931e-27)
(0.0615769 -0.0120111 2.793386e-24)
(0.06524455 -0.009256215 2.686121e-26)
(0.06048302 -0.01804623 5.744577e-24)
(0.06439734 -0.01544428 2.886785e-24)
(0.0588745 -0.0241891 2.247487e-22)
(0.0631606 -0.02173438 2.942354e-24)
(0.05682256 -0.03041345 2.595916e-22)
(0.06141824 -0.02821722 5.039228e-21)
(0.05404025 -0.0368792 3.823149e-24)
(0.05913966 -0.03473012 3.451201e-24)
(0.05584225 -0.04161609 -1.005156e-24)
(0.05056228 -0.04322589 -2.092371e-24)
(0.06898345 -0.006345732 5.562848e-23)
(0.07271561 -0.003217888 -3.560309e-24)
(0.06828317 -0.01267348 7.046444e-24)
(0.07209422 -0.009675565 5.569654e-26)
(0.06730552 -0.01907912 9.271661e-26)
(0.07134248 -0.01618515 -3.353955e-24)
(0.06589845 -0.02562695 5.831062e-24)
(0.07027391 -0.02285904 0)
(0.06401932 -0.0323612 5.643118e-24)
(0.06873218 -0.02979442 7.979216e-21)
(0.06132902 -0.03958012 -7.42704e-22)
(0.06666484 -0.03716215 2.230331e-26)
(0.06379245 -0.04460912 -5.887199e-24)
(0.05800492 -0.04696699 5.366891e-22)
(0.07598483 -0.006564675 -3.576297e-23)
(0.07984251 -0.003284768 -1.571411e-21)
(0.07534582 -0.01314672 -3.413015e-24)
(0.07924007 -0.00990527 -3.786739e-24)
(0.07454873 -0.01988541 -3.447681e-24)
(0.07865983 -0.01666452 -3.270128e-21)
(0.07342219 -0.02689598 3.630945e-24)
(0.07789039 -0.0236871 -2.768179e-25)
(0.07177456 -0.03431386 7.445956e-22)
(0.0768016 -0.03110003 2.899531e-24)
(0.06967762 -0.04209131 -6.271573e-21)
(0.07519244 -0.0390784 5.310159e-21)
(0.07300241 -0.04740734 -7.178893e-24)
(0.06670017 -0.05058788 1.784672e-21)
(0.08319355 -0.006608477 2.931361e-23)
(0.08706614 -0.003273288 -3.89858e-24)
(0.08268724 -0.01335207 -7.615398e-24)
(0.08657633 -0.009864807 -5.151338e-22)
(0.08216854 -0.02033988 -4.079331e-24)
(0.08624669 -0.01678481 3.550656e-25)
(0.08147135 -0.02770649 -8.904721e-22)
(0.08588152 -0.02407939 -1.360334e-25)
(0.08039068 -0.03556938 -8.211124e-22)
(0.085326 -0.03189228 -5.194701e-24)
(0.07886015 -0.04400206 -8.292483e-22)
(0.08430675 -0.04039633 1.724443e-24)
(0.08282821 -0.04990842 -2.261567e-24)
(0.07646321 -0.05361905 -3.698392e-21)
(0.09045759 -0.006444895 4.092455e-24)
(0.09424096 -0.003149442 4.613752e-24)
(0.09021249 -0.01319523 -3.327891e-22)
(0.09395126 -0.009596653 -7.173461e-21)
(0.09008132 -0.02035693 4.759191e-22)
(0.09400773 -0.01640986 -7.503356e-22)
(0.08993679 -0.02802111 -4.3155e-24)
(0.09416631 -0.02387716 9.171485e-24)
(0.08960176 -0.03639995 -1.884041e-21)
(0.09437296 -0.03200264 -2.813146e-21)
(0.088754 -0.04574508 -4.894366e-25)
(0.09440192 -0.04102764 3.579305e-24)
(0.09394771 -0.051316 1.243688e-22)
(0.08761765 -0.05603446 -1.426891e-22)
(0.09757372 -0.006126513 1.345852e-23)
(0.1011096 -0.002899439 -6.709652e-21)
(0.09768509 -0.01263398 -2.021129e-21)
(0.1011509 -0.009012515 8.804919e-24)
(0.09815565 -0.01973103 1.327735e-23)
(0.1016916 -0.0155702 4.214844e-24)
(0.09871174 -0.02755858 4.1343e-24)
(0.1025767 -0.02282007 -3.668439e-21)
(0.09934175 -0.0362027 -2.268523e-21)
(0.1036445 -0.03108831 5.000037e-24)
(0.09970056 -0.04598837 1.250336e-22)
(0.104904 -0.04049524 -2.222817e-21)
(0.1055597 -0.05172565 -2.298818e-19)
(0.09907091 -0.05700716 5.24752e-20)
(0.1043723 -0.005561388 -3.055131e-22)
(0.1073859 -0.002541876 -2.992323e-25)
(0.1048545 -0.01167113 -2.531658e-26)
(0.1079113 -0.008009675 1.570042e-26)
(0.1059913 -0.01835208 1.179908e-25)
(0.1089755 -0.01411444 7.64785e-26)
(0.1075779 -0.02603425 1.013415e-23)
(0.1107416 -0.0209141 1.859932e-20)
(0.109206 -0.03479048 6.738654e-23)
(0.1129531 -0.02891951 -2.016708e-20)
(0.1102276 -0.04492298 -7.295425e-20)
(0.1151845 -0.0392153 -3.073048e-19)
(0.115469 -0.05269093 2.094296e-19)
(0.1092025 -0.0566262 -9.688149e-20)
(0.110464 -0.004746297 -5.164955e-24)
(0.1127742 -0.002060061 1.557738e-20)
(0.1115546 -0.01017318 7.048073e-22)
(0.1138984 -0.006637149 4.055666e-26)
(0.1132578 -0.01623333 -1.089155e-23)
(0.1155689 -0.01188495 1.905312e-25)
(0.1157763 -0.02325141 -1.537218e-20)
(0.1182062 -0.01812815 -1.416865e-22)
(0.1181646 -0.03181427 -1.686054e-19)
(0.1213288 -0.02623438 -8.745971e-20)
(0.118489 -0.042486 -1.271646e-18)
(0.1231284 -0.03828586 -1.730233e-18)
(0.121438 -0.05544672 1.023425e-18)
(0.1159 -0.05483919 2.19279e-18)
(0.1155623 -0.00366307 -5.446667e-24)
(0.1169479 -0.001450342 -5.447409e-24)
(0.1173101 -0.008135549 1.148417e-25)
(0.1187854 -0.004817665 3.39375e-26)
(0.1198305 -0.01328247 2.793831e-21)
(0.1211067 -0.008955996 6.771381e-23)
(0.1225943 -0.01975287 1.781558e-19)
(0.1246826 -0.014845 5.651143e-19)
(0.124437 -0.02847925 1.465884e-18)
(0.1272489 -0.02458078 -1.069938e-18)
(0.1232698 -0.0400729 8.770385e-20)
(0.12751 -0.03930273 -1.693215e-18)
(0.1241399 -0.05954675 -1.697289e-18)
(0.1186927 -0.05388456 1.195858e-18)
(0.1192877 -0.002298178 3.387028e-26)
(0.1195753 -0.0007092446 0)
(0.1217246 -0.00538543 2.154482e-21)
(0.1220683 -0.002517448 -8.499229e-23)
(0.1248036 -0.009302981 -1.447417e-19)
(0.1250183 -0.005583125 -1.793541e-19)
(0.1273185 -0.01593863 -2.88588e-20)
(0.1287775 -0.01213705 2.524951e-19)
(0.1271718 -0.02559793 1.489599e-19)
(0.1298483 -0.02466739 -6.385128e-19)
(0.1248526 -0.03807391 -9.007069e-18)
(0.127777 -0.04302662 -1.139162e-18)
(0.1246872 -0.06551891 -5.450133e-18)
(0.1181346 -0.05311765 -6.62397e-18)
(0.1212828 -0.0006850229 -8.45427e-23)
(0.1203298 0.0002153083 -5.703541e-24)
(0.1241262 -0.001994505 -1.183523e-19)
(0.123357 8.210294e-05 4.337543e-19)
(0.1270532 -0.004984742 -3.346157e-18)
(0.1263944 -0.002639405 -3.289081e-20)
(0.1284674 -0.01227877 5.879909e-20)
(0.1290424 -0.01102997 -2.637199e-18)
(0.1266656 -0.02281343 -3.906213e-18)
(0.1287903 -0.02666119 2.293417e-18)
(0.1219499 -0.03564249 -9.276004e-19)
(0.124711 -0.04816857 -8.916413e-19)
(0.117581 -0.07476862 2.272171e-19)
(0.1164939 -0.05058879 -8.132019e-18)
(0.1210984 0.00136941 6.645142e-22)
(0.1187107 0.001297606 3.214521e-20)
(0.1238775 0.001785989 -2.147489e-19)
(0.1220129 0.002383151 8.89377e-19)
(0.1256159 -0.001028852 -7.507451e-19)
(0.1241281 -0.001332457 -4.091935e-19)
(0.1259032 -0.008178283 -9.817181e-18)
(0.1246989 -0.01217592 -1.313825e-18)
(0.1223207 -0.01945281 3.591075e-18)
(0.1244386 -0.03051807 -4.173316e-18)
(0.1160689 -0.03154536 1.790141e-17)
(0.116578 -0.05516043 -1.102465e-18)
(0.1098572 -0.08438803 2.958613e-18)
(0.1070894 -0.04710731 2.867823e-17)
(0.1180551 0.003688681 9.866758e-21)
(0.1143622 0.002285472 -3.163401e-19)
(0.1202183 0.004934768 -3.110337e-19)
(0.117323 0.003735046 1.035681e-18)
(0.1204514 0.001578476 2.994226e-19)
(0.1183109 -0.001970385 -9.664485e-19)
(0.1183812 -0.004846341 8.082879e-20)
(0.1163584 -0.01549552 -9.140795e-19)
(0.1144039 -0.01384124 1.631025e-17)
(0.1110703 -0.03717885 4.100835e-18)
(0.1077416 -0.02652387 5.516908e-18)
(0.1044263 -0.06444057 -9.815972e-18)
(0.1009364 -0.09567092 1.017514e-17)
(0.09661563 -0.04102462 1.820101e-17)
(0.1118031 0.005746551 -4.592824e-20)
(0.1069276 0.002742638 -2.292628e-19)
(0.113098 0.00763263 2.600676e-20)
(0.1084836 0.003843292 5.002784e-19)
(0.1120816 0.004437102 -6.076945e-19)
(0.108464 -0.004053269 1.54805e-20)
(0.1080222 -0.003646147 -2.011932e-18)
(0.1060508 -0.0205547 3.498049e-19)
(0.1013175 -0.01603708 1.708556e-19)
(0.100343 -0.04468427 3.296396e-18)
(0.09243514 -0.03073808 -2.39823e-17)
(0.09216615 -0.07525758 -7.411711e-18)
(0.08228067 -0.1112195 3.160903e-18)
(0.08426357 -0.04912717 1.437806e-17)
(0.1023951 0.006612959 3.173335e-20)
(0.09683006 0.002544012 9.397914e-20)
(0.1022278 0.007718487 1.102226e-18)
(0.09739906 0.002512569 4.997971e-19)
(0.1000103 0.003871769 -1.51871e-18)
(0.09602926 -0.007339605 1.975206e-18)
(0.09521216 -0.004895867 -4.211917e-19)
(0.09301705 -0.02662993 -2.963384e-18)
(0.08754666 -0.01808699 2.838977e-20)
(0.08719283 -0.0539393 -3.129845e-18)
(0.07722136 -0.03466882 -1.666804e-17)
(0.07893349 -0.08784067 -8.675945e-18)
(0.06843964 -0.1268371 1.174477e-17)
(0.06532178 -0.05400134 1.86268e-17)
(0.09007962 0.006388993 8.627016e-19)
(0.08392321 0.001610206 -1.629468e-19)
(0.08884633 0.007091452 -6.381612e-19)
(0.0832701 -0.0003933022 -2.410798e-19)
(0.08565072 0.002659616 -3.835753e-18)
(0.08275114 -0.01169308 -8.800173e-19)
(0.08023739 -0.00768607 8.225856e-18)
(0.07896469 -0.03351111 -3.317406e-19)
(0.07206005 -0.02224531 2.390008e-18)
(0.07252546 -0.06409708 -1.913318e-18)
(0.06168432 -0.04032035 3.763807e-17)
(0.0642813 -0.1009306 -3.297973e-18)
(0.05540285 -0.1430886 6.047294e-19)
(0.04804753 -0.06117691 1.147911e-17)
(0.07534013 0.00577775 1.933574e-19)
(0.06824792 0.000313975 1.112661e-19)
(0.07358687 0.00590635 -4.590654e-18)
(0.06747457 -0.003627325 1.052509e-18)
(0.07062061 0.0002185009 -3.5409e-18)
(0.06573043 -0.01729547 1.6371e-18)
(0.06538788 -0.01117798 -1.634405e-17)
(0.06136729 -0.041762 -1.148645e-18)
(0.05812266 -0.02739319 8.621698e-17)
(0.05440276 -0.07540482 -1.586145e-18)
(0.04843034 -0.04730163 9.89008e-18)
(0.04665127 -0.1160484 3.408516e-18)
(0.04876161 -0.1594713 5.444963e-18)
(0.03359563 -0.06787399 6.198669e-17)
(0.05844225 0.004945639 3.418123e-19)
(0.05035624 -0.0009151017 -7.669802e-21)
(0.05659986 0.005007147 3.162931e-19)
(0.04968091 -0.006668438 4.136479e-19)
(0.05297325 -0.001038703 -5.497527e-18)
(0.04788468 -0.02237029 -1.482518e-19)
(0.04740058 -0.01358451 7.417405e-19)
(0.0443126 -0.04921572 1.420291e-18)
(0.03978328 -0.03163179 3.376512e-18)
(0.039049 -0.08521674 5.171558e-18)
(0.02998322 -0.05281837 -1.769626e-17)
(0.03111857 -0.1297365 3.645707e-18)
(0.02524796 -0.1805403 8.302358e-18)
(0.01949356 -0.07559448 3.83559e-17)
(0.04006587 0.003846453 -4.934371e-20)
(0.03145577 -0.001996193 -6.359673e-20)
(0.03840961 0.00332491 -1.427404e-18)
(0.03110057 -0.009412069 -2.502878e-19)
(0.03546752 -0.003796764 -3.81517e-18)
(0.02993219 -0.02660924 -1.086555e-18)
(0.03088756 -0.01741663 2.233541e-18)
(0.02779135 -0.05544055 -2.577454e-19)