/*--------------------------------*- C++ -*----------------------------------*\
| =========                 |                                                 |
| \\      /  F ield         | OpenFOAM: The Open Source CFD Toolbox           |
|  \\    /   O peration     | Version:  2206                                  |
|   \\  /    A nd           | Website:  www.openfoam.com                      |
|    \\/     M anipulation  |                                                 |
\*---------------------------------------------------------------------------*/
FoamFile
{
    version     2.0;
    format      ascii;
    arch        "LSB;label=32;scalar=64";
    class       volVectorField;
    location    "2.6";
    object      ddtCorrDdt0(U.a);
}
// * * * * * * * * * * * * * * * * * * * * * * * * * * * * * * * * * * * * * //

dimensions      [0 1 -2 0 0 0 0];

internalField   nonuniform List<vector> 
13078
(
(3.404434e-05 -0.0001045577 3.602575e-27)
(6.642715e-06 -2.804747e-05 -1.885628e-30)
(1.723996e-06 -1.694142e-05 -6.601558e-29)
(6.263229e-07 -9.383657e-06 0)
(3.682385e-07 -6.810269e-06 -5.844286e-30)
(3.013734e-07 -6.277618e-06 -5.951233e-30)
(2.643307e-07 -6.116189e-06 -6.555149e-30)
(-1.276897e-05 -2.126941e-05 0)
(-1.013105e-05 -1.866557e-05 -1.102747e-30)
(-4.410484e-06 -1.264289e-05 0)
(-1.686126e-06 -7.899098e-06 0)
(-7.001454e-07 -6.453308e-06 -1.645802e-31)
(-4.103588e-07 -6.149368e-06 -7.753615e-32)
(-2.136786e-07 -6.071308e-06 -1.463432e-31)
(-5.079755e-06 -4.86348e-06 4.28589e-29)
(-4.64387e-06 -7.115269e-06 -3.043009e-29)
(-2.933871e-06 -6.899087e-06 8.047699e-30)
(-1.953921e-06 -6.073053e-06 1.11192e-29)
(-1.332398e-06 -5.870891e-06 5.540589e-30)
(-8.984018e-07 -5.805557e-06 0)
(-5.670664e-07 -5.872804e-06 -4.085008e-35)
(-1.814794e-06 -1.842517e-06 1.789128e-29)
(-2.074459e-06 -3.48995e-06 -3.793362e-29)
(-1.86755e-06 -4.341168e-06 -3.376037e-29)
(-1.703897e-06 -4.899213e-06 -1.521195e-29)
(-1.398004e-06 -5.138833e-06 4.644306e-31)
(-1.053669e-06 -5.340025e-06 0)
(-7.194663e-07 -5.573203e-06 1.952676e-31)
(-4.700542e-08 -7.428408e-07 -2.54544e-32)
(-4.629787e-07 -2.128493e-06 -2.063436e-29)
(-7.998886e-07 -3.19909e-06 -3.970725e-29)
(-1.03824e-06 -3.944083e-06 -3.766714e-29)
(-1.066003e-06 -4.445427e-06 9.903069e-30)
(-9.114986e-07 -4.853871e-06 -8.325972e-34)
(-6.671462e-07 -5.241351e-06 7.820724e-30)
(7.185124e-07 -4.431789e-07 0)
(8.01239e-07 -1.450272e-06 1.546144e-31)
(3.396539e-07 -2.431206e-06 -2.586934e-31)
(-1.715675e-07 -3.22485e-06 -2.156486e-29)
(-4.827906e-07 -3.860298e-06 9.01869e-31)
(-5.533809e-07 -4.415082e-06 -8.133517e-30)
(-4.489076e-07 -4.93586e-06 -1.878304e-29)
(1.229478e-06 -3.172908e-07 0)
(1.818656e-06 -1.09982e-06 -2.765888e-29)
(1.418087e-06 -1.943224e-06 -3.110577e-29)
(7.505648e-07 -2.712977e-06 -6.28785e-30)
(2.082784e-07 -3.409111e-06 -2.19177e-29)
(-6.546593e-08 -4.065741e-06 1.169816e-30)
(-1.15974e-07 -4.693827e-06 0)
(1.650353e-06 -2.527925e-07 5.188604e-29)
(2.701213e-06 -9.03031e-07 -3.171097e-29)
(2.410064e-06 -1.636129e-06 -3.044457e-29)
(1.639681e-06 -2.370261e-06 0)
(9.145974e-07 -3.092032e-06 -5.258915e-29)
(4.691983e-07 -3.817838e-06 1.319398e-30)
(2.848791e-07 -4.541452e-06 1.478393e-30)
(2.047396e-06 -2.1618e-07 5.385449e-33)
(3.518057e-06 -7.910712e-07 7.266965e-29)
(3.328637e-06 -1.456167e-06 3.562404e-29)
(2.476587e-06 -2.159888e-06 1.036242e-30)
(1.598527e-06 -2.895136e-06 -1.191737e-28)
(1.006068e-06 -3.675205e-06 1.494423e-30)
(7.086064e-07 -4.480406e-06 0)
(2.44836e-06 -1.969906e-07 -6.813547e-29)
(4.31616e-06 -7.343608e-07 8.321287e-29)
(4.21243e-06 -1.363641e-06 3.992477e-29)
(3.277769e-06 -2.053171e-06 -7.539472e-29)
(2.25646e-06 -2.804736e-06 -4.005408e-32)
(1.531811e-06 -3.634614e-06 0)
(1.135744e-06 -4.514602e-06 0)
(2.869693e-06 -1.896709e-07 0)
(5.131466e-06 -7.16797e-07 0)
(5.097127e-06 -1.336661e-06 9.133069e-29)
(4.067922e-06 -2.030595e-06 -8.629641e-29)
(2.900869e-06 -2.808244e-06 4.730322e-32)
(2.049516e-06 -3.691331e-06 0)
(1.563946e-06 -4.645904e-06 0)
(3.324649e-06 -1.913833e-07 0)
(5.992378e-06 -7.293658e-07 -1.088717e-28)
(6.014097e-06 -1.361567e-06 1.044513e-28)
(4.873629e-06 -2.07869e-06 9.703944e-29)
(3.55097e-06 -2.895756e-06 -9.183894e-29)
(2.570719e-06 -3.840622e-06 0)
(1.999295e-06 -4.875328e-06 7.460965e-29)
(3.823028e-06 -2.007319e-07 0)
(6.921466e-06 -7.671422e-07 -1.251615e-28)
(6.990096e-06 -1.429959e-06 -1.253407e-30)
(5.720339e-06 -2.187821e-06 1.126525e-28)
(4.228537e-06 -3.060172e-06 -1.026725e-28)
(3.111071e-06 -4.079198e-06 9.159152e-29)
(2.45199e-06 -5.203674e-06 7.627452e-32)
(4.374224e-06 -2.16219e-07 -1.162781e-28)
(7.938739e-06 -8.253614e-07 0)
(8.047319e-06 -1.534509e-06 -1.424624e-30)
(6.6297e-06 -2.351253e-06 -1.980859e-30)
(4.957549e-06 -3.298688e-06 -2.3502e-28)
(3.68796e-06 -4.406321e-06 1.047005e-28)
(2.933687e-06 -5.632827e-06 -9.089208e-29)
(4.988498e-06 -2.367599e-07 -1.327419e-28)
(9.0631e-06 -9.012156e-07 0)
(9.20387e-06 -1.670025e-06 -3.231367e-30)
(7.623444e-06 -2.558968e-06 1.771552e-28)
(5.772581e-06 -3.604935e-06 -9.227953e-29)
(4.318398e-06 -4.822344e-06 0)
(3.455208e-06 -6.164915e-06 1.037643e-28)
(5.676305e-06 -2.621092e-07 0)
(1.031533e-05 -9.931717e-07 -1.84857e-28)
(1.048317e-05 -1.831547e-06 0)
(8.718321e-06 -2.799538e-06 1.719406e-28)
(6.647853e-06 -3.971959e-06 6.412531e-30)
(5.00179e-06 -5.321861e-06 7.466881e-30)
(4.022516e-06 -6.800386e-06 1.271133e-28)
(6.449452e-06 -2.926311e-07 0)
(1.172007e-05 -1.10349e-06 -4.21727e-28)
(1.191689e-05 -2.026925e-06 -2.08994e-30)
(9.926507e-06 -3.095753e-06 -2.874545e-30)
(7.602839e-06 -4.404313e-06 0)
(5.751743e-06 -5.904922e-06 0)
(4.646049e-06 -7.542102e-06 0)
(7.320095e-06 -3.284845e-07 -1.967217e-28)
(1.329993e-05 -1.232762e-06 -2.411627e-28)
(1.352949e-05 -2.256624e-06 -4.754631e-30)
(1.128524e-05 -3.445212e-06 -3.26696e-30)
(8.672489e-06 -4.908024e-06 0)
(6.593808e-06 -6.583427e-06 -1.88249e-28)
(5.343865e-06 -8.401247e-06 -2.175692e-29)
(8.300854e-06 -3.69762e-07 -2.242223e-28)
(1.507741e-05 -1.381491e-06 -2.747448e-28)
(1.534162e-05 -2.521285e-06 -8.093752e-30)
(1.280939e-05 -3.848651e-06 -7.420185e-30)
(9.87598e-06 -5.491408e-06 0)
(7.561785e-06 -7.378795e-06 -2.047067e-28)
(6.14223e-06 -9.401079e-06 -1.237428e-29)
(9.406233e-06 -4.170938e-07 -2.55617e-28)
(1.707852e-05 -1.551926e-06 -6.24141e-28)
(1.737804e-05 -2.824286e-06 -2.983772e-28)
(1.451362e-05 -4.309298e-06 0)
(1.123946e-05 -6.153954e-06 8.162968e-29)
(8.715881e-06 -8.313082e-06 1.226944e-28)
(7.078726e-06 -1.058191e-05 2.815899e-29)
(1.065338e-05 -4.724226e-07 -2.913377e-28)
(1.933697e-05 -1.750581e-06 -7.095025e-28)
(1.967873e-05 -3.17692e-06 -6.760714e-28)
(1.64396e-05 -4.840367e-06 -3.100614e-28)
(1.279458e-05 -6.903795e-06 1.195544e-29)
(1.001183e-05 -9.412751e-06 -2.672088e-28)
(8.176589e-06 -1.199512e-05 2.158829e-28)
(1.206256e-05 -5.395796e-07 0)
(2.189495e-05 -1.990919e-06 -4.019084e-28)
(2.230111e-05 -3.608547e-06 -3.8281e-28)
(1.86648e-05 -5.502819e-06 -7.275544e-28)
(1.458988e-05 -7.863353e-06 0)
(1.153251e-05 -1.077228e-05 -3.051912e-28)
(9.522633e-06 -1.374591e-05 3.90401e-31)
(1.36558e-05 -6.230858e-07 3.764563e-28)
(2.479767e-05 -2.288284e-06 0)
(2.530062e-05 -4.148293e-06 0)
(2.125028e-05 -6.341332e-06 1.182879e-29)
(1.672436e-05 -9.087212e-06 3.99534e-28)
(1.338992e-05 -1.248878e-05 0)
(1.12518e-05 -1.597734e-05 -3.041454e-28)
(1.545732e-05 -7.2815e-07 8.555031e-28)
(2.809412e-05 -2.659924e-06 0)
(2.873622e-05 -4.827449e-06 0)
(2.425473e-05 -7.400735e-06 4.571416e-28)
(1.924853e-05 -1.062493e-05 8.563922e-28)
(1.565869e-05 -1.460099e-05 -4.016153e-28)
(1.350502e-05 -1.876151e-05 0)
(1.749309e-05 -8.60168e-07 4.856234e-28)
(3.183748e-05 -3.123393e-06 3.436281e-30)
(3.267486e-05 -5.677485e-06 5.730248e-28)
(2.775387e-05 -8.724061e-06 1.544144e-29)
(2.224228e-05 -1.251221e-05 1.984766e-29)
(1.839717e-05 -1.709849e-05 -4.525084e-28)
(1.614992e-05 -2.19929e-05 0)
(1.978961e-05 -1.023456e-06 0)
(3.608154e-05 -3.692693e-06 -6.723208e-28)
(3.718322e-05 -6.724649e-06 6.441971e-28)
(3.182772e-05 -1.035479e-05 0)
(2.580795e-05 -1.482265e-05 -5.196941e-28)
(2.163138e-05 -2.010562e-05 1.042443e-28)
(1.917364e-05 -2.559201e-05 6.132479e-29)
(2.237126e-05 -1.219318e-06 -6.237526e-28)
(4.087459e-05 -4.371638e-06 -7.621769e-28)
(4.230946e-05 -7.971661e-06 7.29818e-28)
(3.650669e-05 -1.228181e-05 0)
(2.993274e-05 -1.749402e-05 -4.899239e-29)
(2.530222e-05 -2.34141e-05 -8.075555e-32)
(2.233045e-05 -2.912487e-05 6.926973e-29)
(2.525396e-05 -1.446757e-06 -7.05705e-28)
(4.626054e-05 -5.156393e-06 -8.624664e-28)
(4.808925e-05 -9.407414e-06 8.271005e-28)
(4.179571e-05 -1.447421e-05 0)
(3.455833e-05 -2.044531e-05 0)
(2.92183e-05 -2.680149e-05 -6.653611e-28)
(2.515806e-05 -3.197297e-05 1.40661e-29)
(2.844714e-05 -1.704357e-06 -7.981286e-28)
(5.2282e-05 -6.04481e-06 -9.819199e-28)
(5.456244e-05 -1.102761e-05 0)
(4.771957e-05 -1.69307e-05 8.354162e-28)
(3.970533e-05 -2.370441e-05 -6.157778e-29)
(3.343183e-05 -3.037616e-05 -1.43358e-27)
(2.776032e-05 -3.43925e-05 2.537759e-28)
(3.187842e-05 -1.992661e-06 -8.961421e-28)
(5.896311e-05 -7.03081e-06 0)
(6.178288e-05 -1.28431e-05 -1.077334e-27)
(5.433728e-05 -1.969229e-05 9.741823e-28)
(4.550013e-05 -2.743848e-05 -9.33122e-28)
(3.836386e-05 -3.476987e-05 -1.710847e-27)
(3.140524e-05 -3.848231e-05 -7.7182e-28)
(3.554878e-05 -2.293944e-06 0)
(6.625214e-05 -8.131035e-06 0)
(6.977099e-05 -1.486838e-05 -2.393454e-27)
(6.169817e-05 -2.277757e-05 0)
(5.197247e-05 -3.164788e-05 -2.11517e-27)
(4.399093e-05 -3.991279e-05 -9.727386e-28)
(3.590005e-05 -4.384753e-05 8.764275e-28)
(3.969294e-05 -2.643924e-06 -1.127802e-27)
(7.402997e-05 -9.335639e-06 1.387071e-27)
(7.859595e-05 -1.709016e-05 1.346935e-27)
(6.990061e-05 -2.622585e-05 0)
(5.916889e-05 -3.63458e-05 -1.19822e-27)
(5.02803e-05 -4.570392e-05 0)
(4.107912e-05 -5.010278e-05 7.639467e-28)
(4.415714e-05 -3.013473e-06 -1.257342e-27)
(8.220381e-05 -1.056431e-05 1.558389e-27)
(8.786905e-05 -1.948695e-05 4.571511e-27)
(7.902695e-05 -3.00222e-05 2.982163e-27)
(6.716191e-05 -4.162004e-05 -1.263308e-27)
(5.728088e-05 -5.222016e-05 1.120966e-28)
(4.679455e-05 -5.718999e-05 -1.297511e-28)
(4.892709e-05 -3.421673e-06 2.202843e-30)
(9.094242e-05 -1.191513e-05 8.582179e-30)
(9.740028e-05 -2.193253e-05 1.752844e-27)
(8.83809e-05 -3.414978e-05 3.204851e-27)
(7.589093e-05 -4.753908e-05 -1.750022e-27)
(6.516932e-05 -5.965179e-05 2.46756e-28)
(5.336091e-05 -6.542906e-05 5.748711e-28)
(5.400614e-05 -3.884625e-06 -2.367615e-30)
(0.0001002069 -1.342715e-05 -9.253609e-30)
(0.000107246 -2.467676e-05 1.827039e-27)
(9.791814e-05 -3.853611e-05 1.138462e-27)
(8.563838e-05 -5.402552e-05 -1.059174e-27)
(7.427038e-05 -6.815607e-05 1.356872e-27)
(6.109012e-05 -7.505939e-05 0)
(5.938837e-05 -4.396647e-06 0)
(0.0001099629 -1.504969e-05 0)
(0.0001174221 -2.751631e-05 2.095745e-27)
(0.0001074247 -4.278535e-05 2.224209e-27)
(9.523542e-05 -6.067226e-05 3.125303e-27)
(8.46723e-05 -7.752441e-05 3.005673e-27)
(7.017333e-05 -8.608088e-05 0)
(6.507466e-05 -4.96457e-06 -5.271307e-30)
(0.0001202801 -1.68131e-05 2.001053e-29)
(0.0001281604 -3.055376e-05 6.881828e-29)
(0.0001170317 -4.727383e-05 0)
(0.0001046199 -6.700888e-05 4.419123e-27)
(9.501014e-05 -8.708356e-05 -3.211607e-28)
(8.044909e-05 -9.796006e-05 -7.506391e-28)
(7.104087e-05 -5.591277e-06 -2.100856e-27)
(0.0001312346 -1.872636e-05 2.14681e-29)
(0.0001397189 -3.381417e-05 -2.570533e-27)
(0.0001275214 -5.204747e-05 0)
(0.0001144047 -7.369369e-05 2.717655e-27)
(0.0001056924 -9.634821e-05 3.580179e-28)
(9.314524e-05 -0.0001107065 -3.781453e-27)
(7.721175e-05 -6.273936e-06 -2.298641e-27)
(0.0001428792 -2.075811e-05 -2.857793e-27)
(0.0001522446 -3.7196e-05 -2.834124e-27)
(0.000139127 -5.682593e-05 -2.043194e-28)
(0.0001252347 -8.013171e-05 -5.386113e-28)
(0.000117338 -0.0001049127 1.658171e-27)
(0.0001071713 -0.0001237004 -1.729939e-27)
(8.318737e-05 -6.975855e-06 0)
(0.0001549505 -2.278711e-05 3.106173e-27)
(0.0001658931 -4.059982e-05 3.11292e-27)
(0.0001522645 -6.157555e-05 1.035454e-28)
(0.0001377478 -8.63891e-05 -3.28823e-27)
(0.0001302961 -0.000113485 -3.498099e-28)
(0.0001231312 -0.0001375258 0)
(8.860629e-05 -7.579829e-06 2.66743e-27)
(0.0001666747 -2.468935e-05 6.69621e-27)
(0.0001803678 -4.369899e-05 3.191478e-27)
(0.0001667141 -6.598673e-05 6.744179e-27)
(0.0001513684 -9.216038e-05 -3.600378e-27)
(0.0001435225 -0.000121525 2.953833e-27)
(0.000137961 -0.0001497917 1.09669e-25)
(9.402251e-05 -8.088891e-06 2.83502e-27)
(0.0001768464 -2.599967e-05 -1.83406e-29)
(0.0001933889 -4.617838e-05 0)
(0.0001809189 -6.961444e-05 9.000339e-29)
(0.0001641118 -9.762932e-05 7.353725e-27)
(0.0001544331 -0.0001308372 4.139262e-26)
(0.0001460489 -0.0001629036 1.012911e-25)
(9.858179e-05 -8.355598e-06 -2.999124e-27)
(0.0001852079 -2.664989e-05 2.945525e-29)
(0.0002023501 -4.725613e-05 5.526989e-29)
(0.0001901052 -7.249182e-05 -8.455555e-27)
(0.0001720753 -0.0001031574 -4.095545e-26)
(0.0001566548 -0.0001386636 2.076629e-25)
(0.0001417772 -0.0001738191 2.882294e-26)
(0.0001018344 -8.310974e-06 -3.133777e-27)
(0.000190889 -2.652152e-05 0)
(0.0002067074 -4.761909e-05 8.291184e-29)
(0.0001907046 -7.409179e-05 -1.157582e-25)
(0.0001679282 -0.0001072826 -1.319611e-25)
(0.0001451216 -0.0001435537 1.945733e-25)
(0.0001176489 -0.0001780744 -6.74312e-27)
(0.0001031478 -7.940415e-06 0)
(0.0001926828 -2.562341e-05 2.467792e-29)
(0.0002055751 -4.747527e-05 4.766263e-26)
(0.0001827958 -7.536745e-05 -1.232481e-25)
(0.0001507617 -0.0001099058 6.488743e-26)
(0.000117089 -0.0001485903 3.384688e-25)
(7.493805e-05 -0.0001817714 -1.6074e-25)
(0.0001015005 -7.25044e-06 0)
(0.0001888724 -2.444485e-05 -1.544657e-26)
(0.000197572 -4.717012e-05 2.358107e-25)
(0.0001681777 -7.724407e-05 2.425645e-25)
(0.0001248994 -0.0001145626 6.129863e-27)
(7.82287e-05 -0.000156175 4.325446e-26)
(2.145808e-05 -0.000189643 -3.285081e-25)
(9.7605e-05 -6.626288e-06 -3.181783e-27)
(0.0001778633 -2.330311e-05 -1.343991e-25)
(0.0001804249 -4.67644e-05 5.801834e-26)
(0.000144402 -8.001838e-05 1.677133e-25)
(9.297855e-05 -0.0001218514 -8.905511e-26)
(3.465319e-05 -0.0001671779 8.254267e-26)
(-3.096475e-05 -0.000206059 6.298338e-26)
(9.117412e-05 -6.386316e-06 1.459102e-26)
(0.000161996 -2.303335e-05 -1.549719e-25)
(0.0001569585 -4.756318e-05 5.084271e-26)
(0.00011327 -8.423811e-05 -8.497882e-26)
(5.563522e-05 -0.0001349398 -2.933464e-26)
(-5.608219e-06 -0.0001929816 3.594769e-25)
(-6.962925e-05 -0.0002437602 3.266458e-25)
(8.246227e-05 -6.502022e-06 4.350353e-26)
(0.000142731 -2.378716e-05 -1.330935e-25)
(0.0001306043 -5.077713e-05 -1.714086e-26)
(8.063874e-05 -9.333042e-05 -8.645364e-26)
(1.923752e-05 -0.0001544019 -4.449504e-26)
(-3.832736e-05 -0.0002317289 -3.243663e-26)
(-8.399027e-05 -0.0003158684 -1.694928e-25)
(7.212432e-05 -6.971673e-06 1.412483e-27)
(0.0001217113 -2.594514e-05 -6.375205e-26)
(0.0001044289 -5.716056e-05 -2.632345e-26)
(5.220038e-05 -0.0001088467 -5.22946e-26)
(-7.868552e-06 -0.0001855319 7.814163e-26)
(-5.568212e-05 -0.0002871205 -5.962437e-26)
(-7.815689e-05 -0.00041418 -7.199465e-26)
(6.060177e-05 -7.818437e-06 -3.862431e-27)
(9.973975e-05 -2.965227e-05 -2.597107e-26)
(8.069101e-05 -6.677593e-05 5.571741e-26)
(3.150926e-05 -0.0001297341 -3.966291e-26)
(-2.11689e-05 -0.0002246459 4.718732e-26)
(-6.040597e-05 -0.000359522 1.432003e-26)
(-7.920356e-05 -0.0005399937 1.271568e-25)
(4.806905e-05 -8.732936e-06 3.984103e-27)
(7.744833e-05 -3.414054e-05 -1.096983e-26)
(5.947688e-05 -7.873932e-05 2.302855e-25)
(1.957349e-05 -0.0001534711 4.087362e-26)
(-1.779575e-05 -0.0002684002 6.833749e-26)
(-3.218663e-05 -0.0004300292 3.156682e-26)
(-5.072477e-05 -0.0007197266 -1.069498e-26)
(3.595031e-05 -9.522247e-06 -1.341374e-26)
(5.647974e-05 -3.750818e-05 7.729186e-27)
(4.079436e-05 -8.523061e-05 9.095351e-26)
(1.098521e-05 -0.0001669343 3.797268e-26)
(-1.367692e-05 -0.0002974012 5.672717e-26)
(-2.520153e-05 -0.0005022891 4.700863e-26)
(-4.727674e-05 -0.001077444 3.00779e-25)
(2.43597e-05 -1.004821e-05 6.773323e-28)
(3.785631e-05 -3.952358e-05 1.056177e-26)
(2.699676e-05 -8.970406e-05 3.178253e-26)
(9.277923e-06 -0.0001774499 2.0342e-26)
(4.084186e-06 -0.0003173482 5.507146e-26)
(-1.042475e-05 -0.0006107933 4.009741e-26)
(-0.0001880324 -0.001957947 -1.061211e-26)
(1.320199e-05 -1.023881e-05 2.921303e-27)
(2.085091e-05 -4.128746e-05 -3.340094e-26)
(1.512858e-05 -9.530756e-05 -2.278027e-26)
(7.210791e-06 -0.0001886316 -8.480934e-27)
(8.111715e-06 -0.000327894 9.343418e-27)
(1.851839e-05 -0.0007215753 2.022364e-26)
(-0.0002057579 -0.002712948 3.275534e-25)
(2.443765e-06 -1.00743e-05 3.229336e-27)
(4.661337e-06 -4.09204e-05 -1.471882e-26)
(3.905448e-06 -9.151172e-05 -2.353594e-26)
(4.391687e-06 -0.0001661502 -5.741048e-28)
(3.316785e-06 -0.0003158337 -2.97608e-26)
(-3.126297e-05 -0.0008955387 2.753595e-25)
(-0.0001840741 -0.00314546 1.891368e-24)
(-7.975282e-06 -8.989329e-06 3.184471e-28)
(-1.111964e-05 -3.763289e-05 -9.749667e-27)
(-8.976259e-06 -8.844499e-05 -9.751035e-27)
(-9.460957e-06 -0.0001740127 -7.651148e-27)
(-1.924925e-05 -0.0003291845 -3.245501e-26)
(-5.207074e-05 -0.0007994369 2.413434e-25)
(-0.0001436421 -0.003135782 8.301344e-25)
(-1.807143e-05 -8.103894e-06 5.012472e-28)
(-2.605599e-05 -3.405838e-05 1.157816e-26)
(-2.142662e-05 -7.649268e-05 5.508505e-27)
(-2.374449e-05 -0.0001369666 8.935269e-27)
(-4.23846e-05 -0.0002865998 -6.722079e-27)
(-7.280433e-05 -0.0008287994 1.879583e-25)
(-0.0001301928 -0.002907818 1.895048e-25)
(-2.766953e-05 -7.302199e-06 1.233265e-26)
(-4.014182e-05 -3.10814e-05 6.804904e-27)
(-3.278229e-05 -7.198772e-05 -3.178081e-26)
(-3.356328e-05 -0.0001353578 -6.20659e-27)
(-5.490125e-05 -0.0002737679 -5.413533e-27)
(-0.0001096059 -0.0007321872 1.127081e-26)
(-0.0001449508 -0.00263686 -3.337239e-25)
(-3.655476e-05 -7.11634e-06 5.095613e-27)
(-5.305751e-05 -2.989572e-05 -3.015097e-27)
(-4.254886e-05 -7.158754e-05 -3.116518e-26)
(-3.919074e-05 -0.0001487872 1.355993e-26)
(-7.461587e-05 -0.0002738593 -3.346125e-26)
(-0.0001791587 -0.0006471217 -2.699845e-25)
(-0.000199433 -0.002411895 -2.249684e-24)
(-4.457804e-05 -7.438499e-06 2.514975e-27)
(-6.527786e-05 -2.931016e-05 -3.170448e-26)
(-5.168042e-05 -7.205176e-05 1.378565e-25)
(-4.378619e-05 -0.0001553169 8.015692e-26)
(-8.914504e-05 -0.0002799648 -6.240334e-26)
(-0.0002231098 -0.0006050749 4.43942e-25)
(-0.0002972881 -0.002059306 1.134109e-24)
(-5.135976e-05 -8.299113e-06 -7.311727e-26)
(-7.403665e-05 -3.033921e-05 9.851974e-26)
(-5.481029e-05 -6.943547e-05 6.233548e-26)
(-4.100759e-05 -0.0001426613 -7.140016e-26)
(-8.1571e-05 -0.0002660144 9.239282e-27)
(-0.0002099805 -0.0005762836 4.148e-26)
(-0.0003801334 -0.001800307 -4.618239e-25)
(-5.715984e-05 -8.26584e-06 -1.249371e-25)
(-8.055945e-05 -3.021747e-05 8.338491e-26)
(-5.363479e-05 -7.005436e-05 3.397579e-27)
(-3.2956e-05 -0.0001384754 -2.305441e-26)
(-7.113644e-05 -0.0002496402 1.151591e-25)
(-0.0001998298 -0.0005229489 -1.434752e-26)
(-0.0004335553 -0.001521994 -1.201313e-24)
(-6.020958e-05 -1.007894e-05 -3.61845e-26)
(-8.524693e-05 -3.203173e-05 -3.909844e-26)
(-5.476559e-05 -7.007994e-05 -9.371061e-26)
(-2.794288e-05 -0.0001345764 7.458935e-27)
(-5.940687e-05 -0.000238506 7.346875e-26)
(-0.0001841019 -0.0004701307 -2.351919e-26)
(-0.0004433662 -0.001249079 -8.832646e-25)
(-6.715437e-05 -8.276543e-06 4.064746e-27)
(-9.203624e-05 -3.261404e-05 -2.13827e-26)
(-5.907996e-05 -6.907385e-05 -1.536876e-25)
(-2.536173e-05 -0.000130555 9.315553e-26)
(-4.762509e-05 -0.0002309618 1.07806e-25)
(-0.000160163 -0.0004206393 -2.384583e-26)
(-0.0004168001 -0.00093638 -6.957237e-26)
(-7.006162e-05 -9.208728e-06 -3.173008e-27)
(-9.834408e-05 -3.369918e-05 5.157586e-26)
(-6.298764e-05 -6.922452e-05 1.547115e-26)
(-2.128925e-05 -0.0001266935 1.414853e-25)
(-2.802221e-05 -0.0002148223 -7.619826e-26)
(-0.0001253029 -0.0003693347 -1.387467e-25)
(-0.000365322 -0.0007575377 -3.516702e-25)
(-7.127493e-05 -1.104796e-05 0)
(-0.000102974 -3.595522e-05 2.897481e-27)
(-6.648354e-05 -6.961404e-05 2.633438e-25)
(-1.83504e-05 -0.0001188679 2.391961e-25)
(-8.177411e-06 -0.0001991923 8.538425e-28)
(-8.613715e-05 -0.0003255246 -5.404566e-26)
(-0.0003165076 -0.0006020363 4.600515e-26)
(-7.263752e-05 -1.225347e-05 0)
(-0.0001059835 -3.815243e-05 -3.623762e-29)
(-6.97851e-05 -6.942856e-05 -5.001278e-26)
(-1.760863e-05 -0.0001125636 5.439363e-26)
(9.061084e-07 -0.0001793619 -8.4889e-26)
(-5.420248e-05 -0.0002866484 2.352116e-25)
(-0.0002389215 -0.0004839069 3.597827e-25)
(-7.306271e-05 -1.300668e-05 -2.997587e-27)
(-0.0001086825 -3.992559e-05 0)
(-7.543584e-05 -6.939624e-05 0)
(-2.320997e-05 -0.0001069442 5.509545e-26)
(3.947209e-06 -0.0001629114 -8.431296e-26)
(-3.015919e-05 -0.0002469877 5.365692e-26)
(-0.0001622749 -0.0003933244 -2.211226e-25)
(-7.270652e-05 -1.350492e-05 -2.842972e-27)
(-0.0001114192 -4.101832e-05 -3.260181e-29)
(-8.289378e-05 -6.931714e-05 -6.015468e-29)
(-3.216878e-05 -0.0001022762 -6.08438e-28)
(2.690508e-06 -0.0001463718 5.504073e-26)
(-8.591353e-06 -0.0002095683 -1.175634e-25)
(-8.550229e-05 -0.0003044624 -1.446185e-25)
(-7.181479e-05 -1.359659e-05 0)
(-0.000113881 -4.114312e-05 3.393663e-27)
(-9.063182e-05 -6.850945e-05 0)
(-4.258653e-05 -9.729126e-05 -1.892047e-28)
(-2.909326e-06 -0.0001321708 -2.587572e-28)
(4.382558e-06 -0.0001778354 -1.202492e-25)
(-3.048966e-05 -0.0002345016 -2.138671e-25)
(-7.038628e-05 -1.329763e-05 0)
(-0.000115472 -4.03704e-05 -3.153486e-27)
(-9.748232e-05 -6.657186e-05 3.168652e-27)
(-5.403594e-05 -9.271139e-05 0)
(-1.438713e-05 -0.0001208297 -5.151656e-28)
(5.300405e-06 -0.0001526037 1.702562e-27)
(3.370625e-06 -0.0001855531 1.421588e-27)
(-6.860515e-05 -1.270592e-05 0)
(-0.0001154555 -3.856648e-05 -8.737197e-27)
(-0.0001029583 -6.370439e-05 -3.96177e-30)
(-6.618838e-05 -8.824377e-05 -6.047029e-27)
(-3.009573e-05 -0.0001125205 -5.22288e-28)
(-5.951623e-06 -0.0001358448 2.71667e-27)
(9.465976e-06 -0.0001524086 -3.017107e-27)
(-6.600845e-05 -1.177286e-05 2.120944e-27)
(-0.0001137534 -3.598696e-05 -2.69054e-27)
(-0.0001067519 -5.977765e-05 8.355072e-31)
(-7.70893e-05 -8.324069e-05 -5.013767e-27)
(-4.669e-05 -0.0001059261 0)
(-2.449669e-05 -0.0001257033 0)
(-5.280112e-06 -0.0001354718 -3.786101e-27)
(-6.266119e-05 -1.06123e-05 1.926391e-27)
(-0.0001104821 -3.276553e-05 -2.429007e-27)
(-0.0001081381 -5.499755e-05 2.369405e-27)
(-8.505648e-05 -7.732907e-05 2.313864e-27)
(-6.101518e-05 -9.928982e-05 0)
(-4.301692e-05 -0.0001181688 0)
(-2.529996e-05 -0.0001255279 -2.677186e-27)
(-5.882929e-05 -9.332042e-06 -1.75144e-27)
(-0.0001057596 -2.914972e-05 -2.257354e-27)
(-0.0001067605 -4.938272e-05 -6.427519e-29)
(-8.899821e-05 -7.029827e-05 1.976793e-27)
(-7.024816e-05 -9.13242e-05 6.752924e-28)
(-5.574283e-05 -0.0001089881 -2.985202e-27)
(-4.025776e-05 -0.0001153504 1.403313e-27)
(-5.469251e-05 -8.01877e-06 -1.58409e-27)
(-9.976276e-05 -2.533629e-05 -1.869631e-29)
(-0.0001029527 -4.33706e-05 6.142477e-29)
(-8.91865e-05 -6.243504e-05 8.747316e-29)
(-7.380313e-05 -8.185963e-05 0)
(-6.127344e-05 -9.770549e-05 -1.911268e-27)
(-4.81723e-05 -0.0001035597 1.522695e-27)
(-5.046818e-05 -6.781164e-06 0)
(-9.292962e-05 -2.163576e-05 -3.437052e-29)
(-9.743134e-05 -3.740118e-05 -5.807565e-29)
(-8.615863e-05 -5.447509e-05 3.906062e-27)
(-7.267699e-05 -7.150842e-05 7.893886e-28)
(-6.135937e-05 -8.537448e-05 2.652634e-27)
(-5.015194e-05 -9.066694e-05 1.020779e-27)
(-4.617746e-05 -5.643725e-06 -4.1349e-30)
(-8.563919e-05 -1.821798e-05 -1.613462e-29)
(-9.067457e-05 -3.172658e-05 0)
(-8.082127e-05 -4.649586e-05 -4.485312e-30)
(-6.825461e-05 -6.1176e-05 1.382135e-27)
(-5.829871e-05 -7.329832e-05 1.264835e-27)
(-4.848906e-05 -7.798176e-05 -2.682173e-28)
(-4.19494e-05 -4.655126e-06 1.13041e-27)
(-7.824409e-05 -1.521338e-05 -1.438178e-27)
(-8.319236e-05 -2.6717e-05 2.496386e-27)
(-7.415885e-05 -3.913315e-05 -2.928291e-27)
(-6.266968e-05 -5.167869e-05 1.120067e-27)
(-5.373862e-05 -6.22624e-05 0)
(-4.499491e-05 -6.634712e-05 2.419721e-28)
(-3.787403e-05 -3.809106e-06 1.010637e-27)
(-7.099832e-05 -1.26295e-05 -1.240182e-27)
(-7.52934e-05 -2.219135e-05 1.201292e-27)
(-6.675427e-05 -3.259884e-05 0)
(-5.651702e-05 -4.33185e-05 -1.060216e-27)
(-4.851238e-05 -5.253182e-05 0)
(-4.07023e-05 -5.610053e-05 8.700489e-28)
(-3.401597e-05 -3.082081e-06 0)
(-6.387747e-05 -1.034435e-05 0)
(-6.739616e-05 -1.826203e-05 -2.123192e-27)
(-5.961133e-05 -2.696394e-05 0)
(-5.037895e-05 -3.612646e-05 -1.85987e-27)
(-4.313701e-05 -4.41151e-05 -8.495232e-28)
(-3.610549e-05 -4.723282e-05 7.581513e-28)
(-3.055362e-05 -2.493191e-06 -7.937953e-28)
(-5.705302e-05 -8.410184e-06 0)
(-6.001057e-05 -1.492692e-05 -9.139848e-28)
(-5.289682e-05 -2.220368e-05 9.048376e-28)
(-4.450621e-05 -3.001163e-05 -8.149903e-28)
(-3.795934e-05 -3.698193e-05 -1.483362e-27)
(-3.177978e-05 -3.992049e-05 -6.623037e-28)
(-2.728518e-05 -1.98857e-06 -6.99947e-28)
(-5.070118e-05 -6.802467e-06 -8.527712e-28)
(-5.318005e-05 -1.214257e-05 0)
(-4.666828e-05 -1.82125e-05 8.164253e-28)
(-3.904139e-05 -2.489653e-05 5.68247e-29)
(-3.323031e-05 -3.117665e-05 -1.363725e-27)
(-2.81337e-05 -3.450268e-05 -2.339797e-28)
(-2.42194e-05 -1.573477e-06 -6.168641e-28)
(-4.490667e-05 -5.467826e-06 -7.523281e-28)
(-4.695407e-05 -9.8326e-06 7.19265e-28)
(-4.097133e-05 -1.489146e-05 0)
(-3.406429e-05 -2.068587e-05 0)
(-2.908647e-05 -2.665748e-05 -5.676923e-28)
(-2.545327e-05 -3.121204e-05 1.051587e-27)
(-2.143832e-05 -1.236511e-06 -5.412402e-28)
(-3.968065e-05 -4.375216e-06 -6.599396e-28)
(-4.132933e-05 -7.925656e-06 6.298318e-28)
(-3.580693e-05 -1.211862e-05 0)
(-2.951299e-05 -1.711513e-05 4.499653e-29)
(-2.517112e-05 -2.268929e-05 6.854056e-32)
(-2.253018e-05 -2.789154e-05 -6.34105e-29)
(-1.89405e-05 -9.676047e-07 0)
(-3.500334e-05 -3.492724e-06 -5.776209e-28)
(-3.629886e-05 -6.370599e-06 5.515061e-28)
(-3.118734e-05 -9.819866e-06 0)
(-2.540244e-05 -1.406079e-05 -5.162241e-28)
(-2.145892e-05 -1.904351e-05 -9.539254e-29)
(-1.92582e-05 -2.41163e-05 -5.601563e-29)
(-1.671404e-05 -7.578588e-07 4.147621e-28)
(-3.084482e-05 -2.795508e-06 -3.152196e-30)
(-3.184754e-05 -5.132006e-06 4.762892e-28)
(-2.713101e-05 -7.962694e-06 -1.413759e-29)
(-2.181084e-05 -1.152467e-05 -1.727478e-29)
(-1.814854e-05 -1.584615e-05 -3.744324e-28)
(-1.609608e-05 -2.038485e-05 0)
(-1.473692e-05 -5.983058e-07 7.239454e-28)
(-2.716587e-05 -2.257544e-06 0)
(-2.794094e-05 -4.171645e-06 0)
(-2.362403e-05 -6.510923e-06 4.056932e-28)
(-1.876589e-05 -9.512032e-06 7.387792e-28)
(-1.531116e-05 -1.324273e-05 -3.279594e-28)
(-1.330872e-05 -1.708643e-05 0)
(-1.298576e-05 -4.789804e-07 3.152788e-28)
(-2.392054e-05 -1.848231e-06 -2.468737e-30)
(-2.452345e-05 -3.437439e-06 -4.053517e-30)
(-2.059973e-05 -5.389326e-06 -1.132933e-29)
(-1.618379e-05 -7.919239e-06 3.000264e-28)
(-1.2949e-05 -1.110213e-05 0)
(-1.094621e-05 -1.433582e-05 -2.397045e-28)
(-1.143689e-05 -3.903211e-07 -2.903176e-31)
(-2.106075e-05 -1.538104e-06 -3.368498e-28)
(-2.153586e-05 -2.879359e-06 -3.209934e-28)
(-1.799132e-05 -4.531517e-06 -5.925084e-28)
(-1.39936e-05 -6.682892e-06 0)
(-1.100738e-05 -9.396498e-06 -2.411002e-28)
(-9.114439e-06 -1.217343e-05 3.50859e-31)
(-1.006752e-05 -3.239354e-07 -2.375184e-28)
(-1.854109e-05 -1.301742e-06 -5.79322e-28)
(-1.89244e-05 -2.454333e-06 -5.530444e-28)
(-1.574594e-05 -3.878237e-06 -2.649206e-28)
(-1.21481e-05 -5.736578e-06 -1.083151e-29)
(-9.412725e-06 -8.064119e-06 -2.071226e-28)
(-7.671613e-06 -1.048217e-05 1.899826e-28)
(-8.856704e-06 -2.734162e-07 -2.057202e-28)
(-1.63191e-05 -1.118452e-06 -5.002879e-28)
(-1.663685e-05 -2.125439e-06 -2.375981e-28)
(-1.380562e-05 -3.376032e-06 0)
(-1.055142e-05 -5.017167e-06 -7.426524e-29)
(-8.061184e-06 -7.004805e-06 -1.111909e-28)
(-6.494548e-06 -9.122568e-06 -2.535935e-29)
(-7.784997e-06 -2.336306e-07 -1.777863e-28)
(-1.43541e-05 -9.709591e-07 -2.150217e-28)
(-1.461813e-05 -1.858219e-06 7.316604e-30)
(-1.209809e-05 -2.960678e-06 6.698772e-30)
(-9.16576e-06 -4.405571e-06 0)
(-6.876477e-06 -6.127857e-06 -1.519556e-28)
(-5.505653e-06 -8.004877e-06 1.111125e-29)
(-6.835686e-06 -2.015886e-07 -1.52987e-28)
(-1.261277e-05 -8.497843e-07 -1.850004e-28)
(-1.282878e-05 -1.636695e-06 4.287529e-30)
(-1.058233e-05 -2.612954e-06 2.94196e-30)
(-7.958859e-06 -3.887574e-06 0)
(-5.895363e-06 -5.405121e-06 -1.201715e-28)
(-4.681374e-06 -7.084038e-06 1.948393e-29)
(-5.994304e-06 -1.756973e-07 1.535355e-31)
(-1.106898e-05 -7.501641e-07 -3.176275e-28)
(-1.12434e-05 -1.453833e-06 1.880512e-30)
(-9.241456e-06 -2.324851e-06 2.582817e-30)
(-6.900297e-06 -3.457194e-06 0)
(-5.057837e-06 -4.809394e-06 0)
(-3.98179e-06 -6.316689e-06 0)
(-5.24828e-06 -1.551521e-07 0)
(-9.700267e-06 -6.695513e-07 -1.357922e-28)
(-9.840509e-06 -1.305591e-06 0)
(-8.057922e-06 -2.090571e-06 1.14747e-28)
(-5.967931e-06 -3.100176e-06 -5.741452e-30)
(-4.327578e-06 -4.312883e-06 -6.66757e-30)
(-3.375111e-06 -5.672094e-06 6.825419e-29)
(-4.586101e-06 -1.393121e-07 -9.521646e-29)
(-8.484199e-06 -6.057135e-07 0)
(-8.594696e-06 -1.188439e-06 2.896132e-30)
(-6.992196e-06 -1.907712e-06 7.443387e-29)
(-5.125814e-06 -2.805362e-06 -1.301162e-28)
(-3.676126e-06 -3.897226e-06 0)
(-2.838034e-06 -5.131164e-06 6.268478e-29)
(-3.996164e-06 -1.272308e-07 -8.051419e-29)
(-7.396683e-06 -5.550863e-07 0)
(-7.475816e-06 -1.093091e-06 1.274092e-30)
(-6.035945e-06 -1.752948e-06 1.768978e-30)
(-4.354062e-06 -2.564529e-06 -1.503276e-28)
(-3.086702e-06 -3.55723e-06 6.384569e-29)
(-2.355861e-06 -4.685275e-06 -5.150566e-29)
(-3.468177e-06 -1.189938e-07 0)
(-6.417337e-06 -5.180142e-07 -8.113192e-29)
(-6.461145e-06 -1.021896e-06 1.118768e-30)
(-5.171918e-06 -1.634053e-06 7.077911e-29)
(-3.672493e-06 -2.380753e-06 -6.214129e-29)
(-2.556503e-06 -3.294363e-06 5.238468e-29)
(-1.919498e-06 -4.330194e-06 6.654842e-32)
(-2.992945e-06 -1.149708e-07 0)
(-5.529252e-06 -4.960581e-07 -6.799394e-29)
(-5.53397e-06 -9.783695e-07 6.395687e-29)
(-4.378179e-06 -1.557627e-06 5.968266e-29)
(-3.048862e-06 -2.257117e-06 -4.927859e-29)
(-2.068562e-06 -3.105653e-06 3.908006e-30)
(-1.516271e-06 -4.061453e-06 3.312747e-29)
(-2.561691e-06 -1.162384e-07 0)
(-4.715411e-06 -4.918944e-07 0)
(-4.675553e-06 -9.662769e-07 5.23317e-29)
(-3.635734e-06 -1.527303e-06 -4.746858e-29)
(-2.461243e-06 -2.19393e-06 4.105304e-32)