/*--------------------------------*- C++ -*----------------------------------*\
| =========                 |                                                 |
| \\      /  F ield         | OpenFOAM: The Open Source CFD Toolbox           |
|  \\    /   O peration     | Version:  2206                                  |
|   \\  /    A nd           | Website:  www.openfoam.com                      |
|    \\/     M anipulation  |                                                 |
\*---------------------------------------------------------------------------*/
FoamFile
{
    version     2.0;
    format      ascii;
    arch        "LSB;label=32;scalar=64";
    class       surfaceVectorField;
    location    "2.6";
    object      ddtCorrDdt0(Ufa);
}
// * * * * * * * * * * * * * * * * * * * * * * * * * * * * * * * * * * * * * //

dimensions      [0 1 -2 0 0 0 0];

internalField   nonuniform List<vector> 
26037
(
(2.0349e-05 -6.798788e-05 -3.333834e-23)
(1.143023e-05 -6.316241e-05 1.813012e-27)
(4.183599e-06 -2.257416e-05 1.601143e-24)
(-1.590349e-06 -2.338778e-05 3.147311e-26)
(1.173526e-06 -1.320112e-05 -3.295992e-29)
(-1.337887e-06 -1.47939e-05 -3.303477e-29)
(4.971254e-07 -8.104176e-06 -2.922525e-30)
(-5.28925e-07 -8.641426e-06 0)
(3.347693e-07 -6.545825e-06 2.022245e-26)
(-1.660865e-07 -6.631791e-06 -3.004464e-30)
(2.828307e-07 -6.198004e-06 -6.253199e-30)
(-5.475277e-08 -6.213493e-06 -4.526513e-29)
(2.496093e-08 -6.093748e-06 -3.350761e-30)
(2.446319e-07 -6.096431e-06 1.908665e-26)
(-1.145446e-05 -1.992824e-05 -5.495079e-31)
(-8.339899e-06 -1.304513e-05 2.143114e-29)
(-7.289968e-06 -1.573469e-05 -5.547895e-31)
(-7.289772e-06 -1.292385e-05 -1.567132e-29)
(-3.043736e-06 -1.028758e-05 0)
(-3.658618e-06 -9.792436e-06 3.993627e-30)
(-1.19312e-06 -7.182934e-06 -8.23144e-32)
(-1.816803e-06 -6.986143e-06 5.55918e-30)
(-5.552826e-07 -6.303216e-06 -1.210567e-31)
(-1.018311e-06 -6.162103e-06 -6.54397e-28)
(-3.120391e-07 -6.111544e-06 -1.119406e-31)
(-6.55491e-07 -5.977464e-06 -3.876834e-32)
(-3.910731e-07 -5.972057e-06 -2.259301e-28)
(-1.502716e-07 -6.074767e-06 -3.640723e-30)
(-4.861927e-06 -5.977784e-06 6.234505e-30)
(-3.416947e-06 -3.351776e-06 -6.367829e-25)
(-3.796425e-06 -7.02164e-06 -1.136093e-29)
(-3.340453e-06 -5.301786e-06 3.917656e-25)
(-2.442505e-06 -6.49199e-06 -7.706936e-26)
(-2.398439e-06 -5.629533e-06 -1.269816e-29)
(-1.643079e-06 -5.975306e-06 -3.616275e-26)
(-1.828522e-06 -5.490675e-06 -1.944452e-30)
(-1.115421e-06 -5.839777e-06 2.770196e-30)
(-1.366038e-06 -5.504869e-06 5.418798e-28)
(-7.327596e-07 -5.840728e-06 -2.04255e-35)
(-9.764158e-07 -5.572793e-06 0)
(-6.43935e-07 -5.723004e-06 2.152441e-28)
(-4.468825e-07 -5.924307e-06 3.922749e-30)
(-1.944551e-06 -2.660568e-06 -1.000547e-29)
(-9.294475e-07 -1.292584e-06 8.932188e-30)
(-1.971801e-06 -3.915018e-06 -3.586302e-29)
(-1.268231e-06 -2.809143e-06 8.669321e-27)
(-1.785472e-06 -4.623604e-06 -1.667761e-27)
(-1.333668e-06 -3.770095e-06 7.934061e-28)
(-1.551082e-06 -5.019292e-06 -7.380159e-30)
(-1.373121e-06 -4.425185e-06 8.842242e-27)
(-1.225886e-06 -5.24242e-06 2.322063e-31)
(-1.23454e-06 -4.794773e-06 5.14779e-30)
(-8.865957e-07 -5.458302e-06 9.7636e-32)
(-9.83715e-07 -5.096951e-06 -4.162948e-34)
(-6.942218e-07 -5.40728e-06 4.007943e-30)
(-5.824817e-07 -5.675888e-06 -4.027264e-30)
(-2.548716e-07 -1.432788e-06 -8.091786e-28)
(3.322592e-07 -5.931281e-07 -1.2726e-32)
(-6.301153e-07 -2.65965e-06 4.386494e-31)
(1.677706e-07 -1.789403e-06 -1.023889e-29)
(-9.195887e-07 -3.57444e-06 -3.868272e-29)
(-2.317886e-07 -2.815214e-06 -1.998248e-29)
(-1.052112e-06 -4.196313e-06 2.261869e-27)
(-6.067827e-07 -3.584572e-06 -3.845961e-26)
(-9.888969e-07 -4.651858e-06 2.646104e-26)
(-7.773786e-07 -4.155033e-06 1.780448e-26)
(-7.893595e-07 -5.049695e-06 -2.226815e-26)
(-7.346125e-07 -4.636122e-06 -4.036701e-30)
(-5.591129e-07 -5.088607e-06 -7.042656e-28)
(-5.476993e-07 -5.398404e-06 3.9103e-30)
(7.598531e-07 -9.433959e-07 7.726214e-32)
(9.737876e-07 -3.802379e-07 0)
(5.722413e-07 -1.936815e-06 7.087983e-29)
(1.309212e-06 -1.275064e-06 -1.3753e-29)
(8.30222e-08 -2.831228e-06 2.078235e-27)
(8.771046e-07 -2.187462e-06 -1.567049e-29)
(-3.272829e-07 -3.544585e-06 -2.339226e-27)
(2.860596e-07 -2.969799e-06 -1.395046e-29)
(-5.180437e-07 -4.13965e-06 -3.609919e-30)
(-1.388446e-07 -3.634794e-06 -3.225552e-26)
(-5.012599e-07 -4.677713e-06 2.755637e-26)
(-3.124763e-07 -4.241709e-06 -3.515153e-30)
(-2.846661e-07 -4.815735e-06 -9.460593e-30)
(-3.689708e-07 -5.146374e-06 2.626364e-26)
(1.523933e-06 -7.046814e-07 -1.382305e-29)
(1.438002e-06 -2.85114e-07 2.594557e-29)
(1.619393e-06 -1.520174e-06 -2.937352e-29)
(2.257583e-06 -1.001494e-06 -5.208908e-26)
(1.085326e-06 -2.328161e-06 1.261217e-26)
(1.913621e-06 -1.789251e-06 -4.39395e-26)
(4.782148e-07 -3.06471e-06 -1.413738e-29)
(1.193347e-06 -2.541563e-06 -3.140969e-30)
(7.136679e-08 -3.739924e-06 -3.128244e-27)
(5.594659e-07 -3.250626e-06 -3.72557e-29)
(-9.069215e-08 -4.381958e-06 5.856793e-31)
(2.002266e-07 -3.941834e-06 1.244617e-30)
(8.185481e-08 -4.618216e-06 7.340112e-31)
(-8.656909e-08 -4.953625e-06 -2.493075e-31)
(2.17564e-06 -5.73826e-07 1.009908e-29)
(1.846342e-06 -2.345862e-07 1.08081e-25)
(2.555793e-06 -1.270541e-06 -3.107845e-29)
(3.106845e-06 -8.471542e-07 2.048583e-29)
(2.0288e-06 -2.000559e-06 -1.537758e-29)
(2.86711e-06 -1.546208e-06 2.601286e-30)
(1.274612e-06 -2.736066e-06 -2.647761e-29)
(2.055508e-06 -2.265192e-06 5.181905e-31)
(6.917708e-07 -3.457641e-06 -2.562006e-29)
(1.254298e-06 -2.993663e-06 -9.662809e-26)
(3.77047e-07 -4.182304e-06 -3.508132e-27)
(7.354993e-07 -3.746593e-06 1.406922e-30)
(4.948994e-07 -4.510992e-06 7.390862e-31)
(2.620676e-07 -4.842846e-06 -5.546363e-30)
(2.782527e-06 -4.989025e-07 3.632754e-29)
(2.24539e-06 -2.066865e-07 -1.061797e-25)
(3.423422e-06 -1.124834e-06 5.416191e-29)
(3.91382e-06 -7.628446e-07 1.410592e-25)
(2.90725e-06 -1.805779e-06 -2.024437e-27)
(3.767339e-06 -1.410025e-06 6.863586e-26)
(2.034361e-06 -2.532648e-06 -5.950574e-29)
(2.874248e-06 -2.106674e-06 -3.71816e-29)
(1.302122e-06 -3.288234e-06 -3.728518e-27)
(1.924731e-06 -2.850043e-06 -1.175645e-25)
(8.573538e-07 -4.080765e-06 7.473292e-31)
(1.266531e-06 -3.654999e-06 7.470988e-31)
(9.199878e-07 -4.497588e-06 0)
(6.423891e-07 -4.822777e-06 9.879246e-30)
(3.382e-06 -4.605269e-07 7.51743e-30)
(2.655897e-06 -1.934617e-07 -3.406367e-29)
(4.264336e-06 -1.050323e-06 6.158669e-29)
(4.71999e-06 -7.257344e-07 4.16009e-29)
(3.7503e-06 -1.706331e-06 -1.709294e-29)
(4.651082e-06 -1.350299e-06 6.56313e-29)
(2.763315e-06 -2.434624e-06 -3.743741e-29)
(3.669288e-06 -2.042066e-06 -1.480881e-25)
(1.893918e-06 -3.223027e-06 -2.001536e-32)
(2.575606e-06 -2.806617e-06 1.299827e-25)
(1.333802e-06 -4.077935e-06 0)
(1.787823e-06 -3.663089e-06 0)
(1.347381e-06 -4.580358e-06 0)
(1.033122e-06 -4.894771e-06 1.330889e-29)
(4.000257e-06 -4.474963e-07 0)
(3.093473e-06 -1.906857e-07 0)
(5.114309e-06 -1.028278e-06 4.562669e-29)
(5.557617e-06 -7.23262e-07 -5.444237e-29)
(4.588376e-06 -1.681699e-06 3.527624e-30)
(5.551329e-06 -1.349292e-06 1.836351e-25)
(3.47996e-06 -2.425669e-06 -4.279685e-29)
(4.467107e-06 -2.054837e-06 5.377723e-30)
(2.474932e-06 -3.253582e-06 2.363753e-32)
(3.222283e-06 -2.85216e-06 -1.543862e-25)
(1.806763e-06 -4.172232e-06 0)
(2.306921e-06 -3.766117e-06 0)
(1.778673e-06 -4.76075e-06 3.731117e-29)
(1.429435e-06 -5.062839e-06 -1.275997e-29)
(4.658122e-06 -4.53839e-07 -5.441972e-29)
(3.569797e-06 -1.962355e-07 0)
(6.003225e-06 -1.047277e-06 -2.302548e-30)
(6.452318e-06 -7.484537e-07 -1.978948e-25)
(5.45049e-06 -1.718596e-06 1.007885e-28)
(6.497451e-06 -1.395964e-06 5.159137e-29)
(4.207161e-06 -2.494139e-06 4.839003e-27)
(5.29227e-06 -2.133513e-06 1.960262e-25)
(3.060539e-06 -3.372174e-06 -4.589165e-29)
(3.885677e-06 -2.978152e-06 -9.725648e-29)
(2.285046e-06 -4.362109e-06 3.729832e-29)
(2.837094e-06 -3.960085e-06 4.580333e-29)
(2.222302e-06 -5.039663e-06 1.418327e-25)
(1.835744e-06 -5.330119e-06 -1.179828e-26)
(5.371778e-06 -4.768293e-07 -6.25616e-29)
(4.094007e-06 -2.086836e-07 -5.814595e-29)
(6.955748e-06 -1.100573e-06 2.923822e-27)
(7.424396e-06 -7.965053e-07 -6.257183e-29)
(6.362758e-06 -1.807046e-06 5.502264e-29)
(7.513395e-06 -1.482471e-06 -1.339028e-30)
(4.968524e-06 -2.63122e-06 4.137492e-30)
(6.170039e-06 -2.269812e-06 5.533399e-29)
(3.669444e-06 -3.574372e-06 -5.479679e-30)
(4.587878e-06 -3.179635e-06 -2.145421e-25)
(2.781577e-06 -4.645973e-06 4.584211e-29)
(3.395237e-06 -4.242966e-06 1.817834e-25)
(2.68903e-06 -5.418446e-06 -1.617713e-25)
(2.260358e-06 -5.699545e-06 3.814527e-32)
(6.155932e-06 -5.125088e-07 -5.815716e-29)
(4.676125e-06 -2.267314e-07 -2.242045e-25)
(7.992977e-06 -1.182054e-06 -7.116716e-31)
(8.494666e-06 -8.635737e-07 0)
(7.3469e-06 -1.941107e-06 3.95192e-27)
(8.619454e-06 -1.602541e-06 -2.328067e-30)
(5.787482e-06 -2.832482e-06 -1.193545e-28)
(7.120631e-06 -2.455284e-06 8.748203e-29)
(4.322072e-06 -3.858147e-06 -6.498035e-29)
(5.356373e-06 -3.451371e-06 -2.813763e-25)
(3.310871e-06 -5.02466e-06 6.920101e-30)
(3.997978e-06 -4.614508e-06 5.236065e-29)
(3.190091e-06 -5.899101e-06 6.45479e-30)
(2.713079e-06 -6.174515e-06 -1.109577e-29)
(7.025158e-06 -5.595322e-07 -6.639202e-29)
(5.326553e-06 -2.497118e-07 -6.636143e-29)
(9.133432e-06 -1.288062e-06 -1.614569e-30)
(9.682041e-06 -9.475301e-07 -9.244338e-29)
(8.419807e-06 -2.113716e-06 7.006189e-27)
(9.837093e-06 -1.751115e-06 -1.614981e-30)
(6.701186e-06 -3.08447e-06 -8.910301e-26)
(8.168218e-06 -2.680103e-06 2.299562e-25)
(5.040375e-06 -4.224345e-06 -4.581703e-29)
(6.20408e-06 -3.789089e-06 -4.286596e-29)
(3.886614e-06 -5.499878e-06 5.190268e-29)
(4.654478e-06 -5.07241e-06 3.734289e-30)
(3.733943e-06 -6.482924e-06 2.091573e-25)
(3.203149e-06 -6.75845e-06 9.525803e-29)
(7.995079e-06 -6.170592e-07 -9.239874e-29)
(6.056185e-06 -2.776951e-07 0)
(1.039922e-05 -1.415397e-06 -9.246203e-29)
(1.100957e-05 -1.048721e-06 -3.503507e-25)
(9.602152e-06 -2.318434e-06 8.583277e-29)
(1.119225e-05 -1.929609e-06 -1.045167e-30)
(7.698248e-06 -3.38207e-06 -1.260451e-26)
(9.315429e-06 -2.948049e-06 8.448587e-29)
(5.815727e-06 -4.660834e-06 6.945519e-30)
(7.118321e-06 -4.188608e-06 3.205629e-30)
(4.511727e-06 -6.068461e-06 -1.735063e-26)
(5.370442e-06 -5.613741e-06 3.732667e-30)
(4.328704e-06 -7.171569e-06 6.354202e-29)
(3.736633e-06 -7.453261e-06 6.815234e-29)
(9.083901e-06 -6.861113e-07 -2.107941e-28)
(6.877213e-06 -3.109347e-07 -9.837571e-29)
(1.181844e-05 -1.568596e-06 -2.119834e-28)
(1.250082e-05 -1.168579e-06 -3.964226e-25)
(1.092288e-05 -2.565039e-06 5.600578e-27)
(1.271439e-05 -2.142207e-06 -3.422539e-30)
(8.782976e-06 -3.745141e-06 -1.459934e-30)
(1.059753e-05 -3.270905e-06 -3.070794e-30)
(6.666572e-06 -5.170505e-06 0)
(8.129686e-06 -4.656688e-06 0)
(5.198393e-06 -6.731828e-06 0)
(6.165525e-06 -6.244581e-06 -9.414347e-29)
(4.988627e-06 -7.972053e-06 -1.088101e-29)
(4.322526e-06 -8.262473e-06 -5.223298e-30)
(1.030901e-05 -7.670962e-07 8.39562e-27)
(7.801946e-06 -3.495592e-07 -3.667455e-25)
(1.341466e-05 -1.748501e-06 5.02983e-27)
(1.417831e-05 -1.307652e-06 -2.579568e-28)
(1.240872e-05 -2.855112e-06 6.344936e-27)
(1.442562e-05 -2.389457e-06 -6.424531e-30)
(9.999965e-06 -4.170884e-06 -1.659888e-30)
(1.203784e-05 -3.64742e-06 -5.343998e-30)
(7.620831e-06 -5.763652e-06 -9.523788e-29)
(9.26536e-06 -5.200284e-06 0)
(5.968246e-06 -7.501831e-06 2.237851e-26)
(7.068818e-06 -6.98145e-06 -3.729998e-25)
(5.735838e-06 -8.901602e-06 -1.706452e-29)
(4.97578e-06 -9.196811e-06 2.388916e-26)
(1.168798e-05 -8.60308e-07 9.505755e-27)
(8.843942e-06 -3.939323e-07 -2.399223e-28)
(1.520946e-05 -1.95567e-06 5.656616e-27)
(1.606629e-05 -1.467317e-06 -5.05649e-25)
(1.407706e-05 -3.189689e-06 1.430531e-26)
(1.634858e-05 -2.673368e-06 -1.532643e-28)
(1.136635e-05 -4.663659e-06 -3.770006e-30)
(1.365063e-05 -4.079522e-06 -3.709682e-30)
(8.706036e-06 -6.453937e-06 -1.03486e-28)
(1.054729e-05 -5.822747e-06 4.074985e-29)
(6.850909e-06 -8.401788e-06 -1.083966e-28)
(8.122539e-06 -7.843439e-06 -4.209693e-29)
(6.601587e-06 -9.991753e-06 7.887504e-30)
(5.719144e-06 -1.02794e-05 2.691826e-26)
(1.324103e-05 -9.671551e-07 -4.398135e-28)
(1.001902e-05 -4.453402e-07 -4.651713e-25)
(1.722821e-05 -2.192876e-06 -4.61321e-28)
(1.819466e-05 -1.651956e-06 -5.680514e-25)
(1.594714e-05 -3.572088e-06 -1.493269e-28)
(1.851592e-05 -3.001273e-06 -5.424851e-25)
(1.289393e-05 -5.227484e-06 4.038045e-29)
(1.546574e-05 -4.575548e-06 -1.551281e-28)
(9.982276e-06 -7.238575e-06 -1.881974e-25)
(1.201385e-05 -6.531901e-06 4.65501e-29)
(7.889227e-06 -9.472116e-06 -7.007193e-26)
(9.353357e-06 -8.864689e-06 -7.260989e-29)
(7.618142e-06 -1.12892e-05 1.220507e-28)
(6.586124e-06 -1.155254e-05 1.40718e-29)
(1.499363e-05 -1.091884e-06 -1.299055e-26)
(1.134586e-05 -5.066732e-07 -1.456434e-28)
(1.950778e-05 -2.469195e-06 -8.068646e-27)
(2.060123e-05 -1.871563e-06 -6.398175e-25)
(1.805986e-05 -4.015606e-06 -4.931474e-28)
(2.097574e-05 -3.393518e-06 -6.173282e-25)
(1.462099e-05 -5.877686e-06 -2.039686e-26)
(1.753868e-05 -5.172359e-06 -5.883509e-25)
(1.142993e-05 -8.144654e-06 -1.249388e-28)
(1.368036e-05 -7.384546e-06 5.973205e-30)
(9.080014e-06 -1.073695e-05 -2.194033e-29)
(1.076024e-05 -1.009353e-05 -4.935194e-25)
(8.838855e-06 -1.287129e-05 4.595986e-25)
(7.612923e-06 -1.308083e-05 3.52445e-26)
(1.697696e-05 -1.243052e-06 -2.0088e-28)
(1.284563e-05 -5.821076e-07 1.882651e-28)
(2.209794e-05 -2.805795e-06 -8.620619e-27)
(2.332985e-05 -2.140543e-06 -2.009094e-28)
(2.048371e-05 -4.563447e-06 -5.551078e-28)
(2.378499e-05 -3.879335e-06 -1.913579e-28)
(1.663057e-05 -6.690422e-06 -3.643597e-28)
(1.994235e-05 -5.922971e-06 -6.623354e-25)
(1.309294e-05 -9.299234e-06 -1.494214e-28)
(1.564281e-05 -8.47619e-06 1.998253e-28)
(1.051127e-05 -1.229741e-05 -1.499308e-28)
(1.244786e-05 -1.163152e-05 -1.525878e-28)
(1.037338e-05 -1.486203e-05 -5.723724e-25)
(8.891726e-06 -1.498765e-05 -9.123569e-29)
(1.922466e-05 -1.430583e-06 1.882992e-28)
(1.454144e-05 -6.76508e-07 6.552375e-25)
(2.504903e-05 -3.225014e-06 0)
(2.64275e-05 -2.475189e-06 0)
(2.327632e-05 -5.253417e-06 5.911776e-30)
(2.700066e-05 -4.488934e-06 0)
(1.899092e-05 -7.722442e-06 -2.666177e-26)
(2.273536e-05 -6.872092e-06 7.493733e-25)
(1.509183e-05 -1.07656e-05 2.039307e-28)
(1.796966e-05 -9.857054e-06 7.216595e-25)
(1.230448e-05 -1.427434e-05 -1.543884e-28)
(1.45074e-05 -1.354376e-05 -2.003952e-28)
(1.23485e-05 -1.735845e-05 -1.533875e-28)
(1.05534e-05 -1.742444e-05 -3.020305e-28)
(2.177332e-05 -1.665674e-06 4.279157e-28)
(1.645842e-05 -7.951799e-07 7.29281e-25)
(2.841502e-05 -3.751106e-06 0)
(2.994538e-05 -2.89291e-06 1.718559e-30)
(2.649644e-05 -6.123476e-06 2.284693e-28)
(3.068584e-05 -5.253699e-06 2.865898e-28)
(2.175457e-05 -9.021756e-06 2.873032e-26)
(2.598554e-05 -8.063623e-06 2.362248e-28)
(1.747827e-05 -1.259546e-05 2.360539e-28)
(2.072966e-05 -1.157024e-05 7.256598e-25)
(1.458565e-05 -1.668927e-05 -2.016518e-28)
(1.702865e-05 -1.586166e-05 -4.949344e-25)
(1.481285e-05 -2.038223e-05 0)
(1.269504e-05 -2.0445e-05 1.47644e-28)
(2.466252e-05 -1.959773e-06 2.446238e-28)
(1.862276e-05 -9.429769e-07 2.427611e-28)
(3.225597e-05 -4.408628e-06 -1.097077e-26)
(3.393685e-05 -3.409479e-06 -3.345254e-28)
(3.021543e-05 -7.211251e-06 2.943571e-28)
(3.49071e-05 -6.2025e-06 9.670482e-25)
(2.499948e-05 -1.063039e-05 -3.431342e-26)
(2.976953e-05 -9.540887e-06 7.718227e-30)
(2.032497e-05 -1.481269e-05 -2.156768e-28)
(2.400464e-05 -1.366897e-05 -9.020241e-25)
(1.73006e-05 -1.950571e-05 -2.317348e-28)
(1.999653e-05 -1.860457e-05 -1.738538e-28)
(1.764306e-05 -2.379458e-05 3.067283e-29)
(1.519141e-05 -2.38251e-05 1.410308e-28)
(2.793241e-05 -2.321972e-06 -3.360282e-28)
(2.106003e-05 -1.12271e-06 -3.119485e-28)
(3.663213e-05 -5.217611e-06 -1.433972e-29)
(3.845302e-05 -4.033811e-06 -1.101285e-24)
(3.450665e-05 -8.551022e-06 3.222447e-28)
(3.972207e-05 -7.349803e-06 6.870201e-28)
(2.881932e-05 -1.260194e-05 -2.597137e-28)
(3.414361e-05 -1.131999e-05 0)
(2.372386e-05 -1.747438e-05 -8.143192e-26)
(2.784752e-05 -1.616011e-05 -2.842566e-28)
(2.043468e-05 -2.279752e-05 -1.079644e-25)
(2.34449e-05 -2.176173e-05 5.206126e-29)
(2.073017e-05 -2.736033e-05 6.529754e-29)
(1.799672e-05 -2.746253e-05 -3.753017e-30)
(3.161914e-05 -2.754697e-06 -6.929361e-28)
(2.379043e-05 -1.334513e-06 -9.667178e-25)
(4.15917e-05 -6.181388e-06 -1.649417e-29)
(4.35394e-05 -4.76584e-06 -8.123271e-28)
(3.940937e-05 -1.013887e-05 3.650779e-28)
(4.517264e-05 -8.691425e-06 1.184692e-24)
(3.322137e-05 -1.490207e-05 -2.448336e-29)
(3.912516e-05 -1.337996e-05 0)
(2.762216e-05 -2.046492e-05 8.805507e-26)
(3.222008e-05 -1.89717e-05 -2.448686e-29)
(2.385542e-05 -2.62158e-05 -1.128262e-25)
(2.723456e-05 -2.51096e-05 -3.327909e-28)
(2.371645e-05 -3.054731e-05 4.173721e-29)
(2.06952e-05 -3.069445e-05 2.580094e-28)
(3.57492e-05 -3.254743e-06 -7.84025e-28)
(2.682713e-05 -1.577193e-06 -7.519334e-28)
(4.717466e-05 -7.293058e-06 -1.787375e-29)
(4.923997e-05 -5.602741e-06 -1.367503e-24)
(4.494388e-05 -1.195379e-05 4.137412e-28)
(5.12966e-05 -1.021966e-05 4.13417e-28)
(3.817884e-05 -1.747471e-05 0)
(4.472911e-05 -1.570469e-05 4.178639e-28)
(3.189225e-05 -2.363533e-05 -3.321776e-28)
(3.710474e-05 -2.207718e-05 -3.080203e-29)
(2.72236e-05 -2.935462e-05 -3.315957e-28)
(3.130464e-05 -2.859212e-05 -9.766024e-25)
(2.646778e-05 -3.3197e-05 2.69402e-25)
(2.25515e-05 -3.241467e-05 6.748152e-25)
(4.034713e-05 -3.819287e-06 -6.802463e-26)
(3.013775e-05 -1.850044e-06 -1.035009e-24)
(5.342228e-05 -8.549645e-06 -4.909175e-28)
(5.557761e-05 -6.539117e-06 -4.921395e-28)
(5.114247e-05 -1.399305e-05 4.175221e-28)
(5.813827e-05 -1.193757e-05 -5.386687e-28)
(4.371444e-05 -2.033415e-05 9.557126e-26)
(5.099642e-05 -1.831407e-05 1.428022e-24)
(3.657045e-05 -2.706019e-05 -7.471401e-28)
(4.257076e-05 -2.557423e-05 -4.975396e-28)
(3.06059e-05 -3.240261e-05 -1.326476e-25)
(3.586514e-05 -3.257608e-05 -1.455306e-24)
(2.954908e-05 -3.644213e-05 -1.53523e-24)
(2.322764e-05 -3.267463e-05 -6.706886e-25)
(4.533603e-05 -4.436025e-06 -4.508952e-28)
(3.369457e-05 -2.145242e-06 -4.467901e-28)
(6.037645e-05 -9.960347e-06 -5.400113e-28)
(6.2576e-05 -7.584449e-06 0)
(5.806013e-05 -1.628431e-05 4.32418e-26)
(6.573886e-05 -1.385842e-05 -1.654713e-24)
(4.992087e-05 -2.358229e-05 2.101975e-29)
(5.798251e-05 -2.123785e-05 4.869073e-28)
(4.193403e-05 -3.112369e-05 -1.321747e-27)
(4.87011e-05 -2.954639e-05 -1.575409e-24)
(3.489337e-05 -3.664469e-05 -1.242548e-27)
(4.114087e-05 -3.734483e-05 -1.625527e-24)
(3.361371e-05 -4.116801e-05 5.254418e-29)
(2.570851e-05 -3.570986e-05 -1.001164e-27)
(5.073273e-05 -5.113001e-06 0)
(3.759252e-05 -2.470883e-06 -5.641659e-28)
(6.801704e-05 -1.152206e-05 -1.200485e-27)
(7.010269e-05 -8.734814e-06 6.923606e-28)
(6.573199e-05 -1.884379e-05 -1.195985e-27)
(7.411415e-05 -1.597654e-05 -1.965118e-24)
(5.683749e-05 -2.723001e-05 -1.057089e-27)
(6.575163e-05 -2.450365e-05 0)
(4.798398e-05 -3.579891e-05 -1.544302e-27)
(5.553226e-05 -3.40004e-05 -1.720042e-24)
(3.995278e-05 -4.189729e-05 -4.98616e-29)
(4.709741e-05 -4.281237e-05 -4.861017e-28)
(3.845836e-05 -4.698182e-05 1.50161e-24)
(2.923416e-05 -4.055386e-05 4.443237e-28)
(5.672655e-05 -5.884226e-06 -2.040345e-25)
(4.18977e-05 -2.830673e-06 -1.257946e-24)
(7.629874e-05 -1.319802e-05 1.367126e-27)
(7.810869e-05 -9.955418e-06 1.353786e-24)
(7.422639e-05 -2.170111e-05 6.701033e-28)
(8.319265e-05 -1.829084e-05 3.098745e-24)
(6.453044e-05 -3.131431e-05 -5.995741e-28)
(7.436973e-05 -2.811316e-05 1.479304e-27)
(5.472683e-05 -4.104409e-05 -5.994325e-28)
(6.311702e-05 -3.89855e-05 -1.230757e-27)
(4.568274e-05 -4.792757e-05 3.817031e-28)
(5.373609e-05 -4.896673e-05 5.607884e-29)
(4.389121e-05 -5.365156e-05 3.168028e-28)
(3.353351e-05 -4.65199e-05 5.066327e-25)
(6.314942e-05 -6.700135e-06 1.482125e-28)
(4.651321e-05 -3.219679e-06 -6.273062e-28)
(8.50059e-05 -1.497698e-05 3.048708e-27)
(8.654419e-05 -1.124279e-05 7.825305e-28)
(8.347758e-05 -2.472845e-05 3.782211e-27)
(9.264841e-05 -2.072237e-05 1.231741e-24)
(7.303731e-05 -3.591033e-05 -1.73723e-25)
(8.367053e-05 -3.209776e-05 4.131387e-24)
(6.221941e-05 -4.694532e-05 -5.753544e-28)
(7.146977e-05 -4.458336e-05 -2.425733e-24)
(5.204086e-05 -5.472891e-05 -1.32679e-25)
(6.117436e-05 -5.594139e-05 1.794621e-28)
(5.00242e-05 -6.131569e-05 2.227925e-28)
(3.803555e-05 -5.314387e-05 5.830932e-25)
(6.991804e-05 -7.578837e-06 1.110902e-25)
(5.143762e-05 -3.65535e-06 -8.334243e-32)
(9.41632e-05 -1.691656e-05 8.785179e-28)
(9.553745e-05 -1.267418e-05 -3.401002e-31)
(9.298622e-05 -2.791922e-05 -3.726348e-26)
(0.0001022852 -2.330862e-05 1.789973e-27)
(8.205408e-05 -4.094579e-05 1.434407e-25)
(9.309563e-05 -3.633778e-05 2.175725e-27)
(7.052032e-05 -5.363197e-05 -7.49848e-28)
(8.063484e-05 -5.075051e-05 -1.408568e-27)
(5.926819e-05 -6.256234e-05 -2.452067e-25)
(6.964133e-05 -6.390358e-05 8.011261e-28)
(5.716515e-05 -7.025116e-05 2.872614e-28)
(4.32693e-05 -6.100507e-05 -5.78385e-25)
(7.708912e-05 -8.558105e-06 -1.214124e-25)
(5.66704e-05 -4.142783e-06 -1.183287e-30)
(0.0001037209 -1.904572e-05 9.074554e-28)
(0.0001050502 -1.424144e-05 -4.624468e-30)
(0.0001026547 -3.148932e-05 -4.723735e-26)
(0.0001123032 -2.610069e-05 1.620149e-24)
(9.181575e-05 -4.623849e-05 2.114247e-25)
(0.000102696 -4.068734e-05 1.321311e-24)
(7.988687e-05 -6.120274e-05 2.966913e-25)
(9.037966e-05 -5.735123e-05 1.031039e-27)
(6.766892e-05 -7.164663e-05 6.773064e-28)
(7.929636e-05 -7.278192e-05 4.359589e-24)
(6.555174e-05 -8.057302e-05 0)
(4.959868e-05 -7.046015e-05 -4.132107e-29)
(8.465723e-05 -9.618333e-06 0)
(6.220782e-05 -4.682619e-06 -2.636859e-30)
(0.0001136892 -2.128218e-05 1.046956e-27)
(0.0001150883 -1.593445e-05 1.001035e-29)
(0.0001124373 -3.51231e-05 2.159799e-27)
(0.0001227544 -2.903879e-05 1.081657e-27)
(0.0001014402 -5.15468e-05 2.18383e-25)
(0.0001122032 -4.503722e-05 1.109534e-27)
(8.99923e-05 -6.903598e-05 4.829098e-26)
(9.997357e-05 -6.389137e-05 1.160142e-24)
(7.72955e-05 -8.193021e-05 1.476612e-27)
(8.979355e-05 -8.234028e-05 1.332761e-27)
(7.521076e-05 -9.202669e-05 -3.752562e-28)
(5.721552e-05 -8.15377e-05 -7.089945e-28)
(9.265789e-05 -1.077692e-05 -2.777386e-25)
(6.803957e-05 -5.279591e-06 -1.05354e-27)
(0.0001242171 -2.367981e-05 -1.004235e-26)
(0.0001257289 -1.777256e-05 2.073968e-29)
(0.0001226017 -3.890262e-05 3.444392e-29)
(0.0001339056 -3.218764e-05 -1.251624e-27)
(0.0001108507 -5.709035e-05 2.200754e-27)
(0.0001222342 -4.966556e-05 0)
(9.997154e-05 -7.670918e-05 2.126094e-27)
(0.0001094615 -7.035963e-05 2.505814e-24)
(8.755463e-05 -9.265063e-05 -2.047276e-26)
(0.0001002728 -9.169192e-05 1.627675e-29)
(8.654598e-05 -0.0001042298 -2.238868e-27)
(6.594294e-05 -9.3552e-05 8.515319e-25)
(0.0001011166 -1.203867e-05 2.968554e-25)
(7.411737e-05 -5.933487e-06 -4.371854e-25)
(0.0001354735 -2.626015e-05 -1.273541e-27)
(0.0001370334 -1.974409e-05 -1.418169e-27)
(0.0001336259 -4.291045e-05 -1.286445e-27)
(0.0001459583 -3.550805e-05 -1.194599e-24)
(0.0001209786 -6.281926e-05 1.355677e-27)
(0.0001332944 -5.444081e-05 -1.022299e-28)
(0.0001101547 -8.46995e-05 4.950131e-25)
(0.0001197967 -7.692106e-05 1.086473e-27)
(9.94657e-05 -0.0001034509 -1.981218e-24)
(0.0001116031 -0.0001007126 9.453218e-25)
(0.0001000967 -0.0001172623 -2.748657e-27)
(7.656442e-05 -0.0001066234 2.525429e-24)
(0.0001099964 -1.337764e-05 3.257025e-25)
(8.020295e-05 -6.623917e-06 -1.150668e-27)
(0.0001475608 -2.896507e-05 -2.845962e-27)
(0.0001488819 -2.176971e-05 -4.67961e-25)
(0.0001456913 -4.698396e-05 -1.520296e-27)
(0.0001590438 -3.889886e-05 1.380296e-28)
(0.0001321888 -6.843979e-05 -2.733078e-25)
(0.0001456736 -5.920415e-05 -5.029491e-29)
(0.0001213063 -9.242439e-05 -3.830214e-25)
(0.000131452 -8.326613e-05 -1.914514e-27)
(0.0001124567 -0.0001138969 -7.873506e-25)
(0.0001237585 -0.0001092106 6.52625e-28)
(0.0001150459 -0.0001305676 -8.714276e-28)
(9.012897e-05 -0.0001212569 9.200956e-25)
(0.0001188094 -1.468439e-05 1.541774e-27)
(8.593215e-05 -7.277434e-06 1.339411e-27)
(0.0001604341 -3.169492e-05 -9.114228e-26)
(0.0001608316 -2.373437e-05 -2.372913e-24)
(0.0001590774 -5.10654e-05 1.300067e-25)
(0.0001730675 -4.213776e-05 2.748888e-25)
(0.0001450133 -7.392962e-05 -1.590785e-27)
(0.0001594608 -6.378078e-05 3.420723e-27)
(0.0001340332 -9.98367e-05 -6.573765e-25)
(0.0001445404 -8.927843e-05 -9.943323e-25)
(0.0001268212 -0.0001250668 -1.800686e-28)
(0.0001368957 -0.0001175162 1.305764e-27)
(0.0001307005 -0.0001437977 5.606816e-26)
(0.0001083597 -0.0001376723 -2.01478e-26)
(0.0001272771 -1.589721e-05 4.663026e-27)
(9.135663e-05 -7.831846e-06 -1.777587e-24)
(0.000173472 -3.40846e-05 -7.960319e-25)
(0.000171857 -2.534599e-05 3.310851e-27)
(0.0001735 -5.487749e-05 4.978604e-27)
(0.0001869158 -4.493157e-05 1.598148e-27)
(0.0001590362 -7.90407e-05 1.568153e-27)
(0.0001737261 -6.777897e-05 3.8625e-25)
(0.0001474507 -0.0001067609 -6.851998e-25)
(0.0001577068 -9.489276e-05 1.86863e-27)
(0.0001407587 -0.0001354777 5.601959e-26)
(0.0001489997 -0.0001261837 -7.470116e-25)
(0.0001586099 -0.0001551062 -4.141026e-21)
(0.0001310048 7.642136e-06 2.648644e-20)
(0.0001353499 -1.687608e-05 -3.849466e-25)
(9.636343e-05 -8.217849e-06 -8.401426e-29)
(0.0001850079 -3.589376e-05 -9.292661e-30)
(0.0001811111 -2.631979e-05 5.601041e-30)
(0.0001872029 -5.774096e-05 4.466825e-29)
(0.0001980063 -4.671785e-05 2.798305e-29)
(0.0001724319 -8.371445e-05 3.758312e-27)
(0.0001855767 -7.104165e-05 6.257666e-24)
(0.0001592675 -0.000114145 2.439488e-26)
(0.0001680785 -0.0001003433 -4.493963e-24)
(0.0001569371 0.0002097575 -2.562403e-20)
(0.0001932568 -0.0001316891 -2.496687e-20)
(0.0003815546 -0.0001496227 5.166666e-20)
(0.0001885258 0.001928748 -7.387277e-20)
(0.0001418535 -1.735275e-05 -1.486299e-27)
(0.0001002958 -8.326485e-06 4.010441e-24)
(0.0001937566 -3.687409e-05 2.665962e-25)
(0.0001881491 -2.657807e-05 1.472506e-29)
(0.0001963361 -5.955792e-05 -4.125733e-27)
(0.0002046332 -4.743071e-05 6.912466e-29)
(0.000181164 -8.757052e-05 -5.527466e-24)
(0.0001905302 -7.32958e-05 -6.301832e-26)
(0.0001730096 0.0002478357 -4.580319e-20)
(0.0002300509 -9.677002e-05 -3.651902e-20)
(0.0002019304 0.0024162 -9.232921e-19)
(0.0004568578 -0.0001122002 -2.385631e-19)
(0.0009739929 -0.0001027381 6.271229e-19)
(0.0002962167 0.007144995 1.923054e-18)
(0.0001462967 -1.727175e-05 -1.569198e-27)
(0.0001026158 -8.116081e-06 -1.569412e-27)
(0.000198794 -3.702022e-05 4.143208e-29)
(0.0001919273 -2.606247e-05 1.229123e-29)
(0.0001987328 -6.069214e-05 1.184339e-24)
(0.0002062926 -4.75356e-05 2.385361e-26)
(0.0001854195 0.0001878163 3.651848e-20)
(0.0002146431 -7.262538e-05 -3.837127e-21)
(0.0003212693 0.002202881 8.403116e-19)
(0.0004023885 -8.813292e-05 -3.536558e-19)
(0.0003673263 0.007392803 2.406364e-20)
(0.001432849 5.934781e-05 -8.288961e-19)
(0.001999164 8.974566e-06 -1.499982e-18)
(0.0005617686 0.01532259 1.19834e-18)
(0.000147655 -1.662508e-05 1.226688e-29)
(0.0001024683 -7.584176e-06 0)
(0.0001991425 -3.649894e-05 7.691062e-25)
(0.0001909657 -2.50178e-05 -7.694272e-27)
(0.0001959051 6.901813e-05 -1.532953e-20)
(0.0002155873 -4.618756e-05 1.360433e-20)
(0.0002004081 0.001898223 -1.611407e-20)
(0.0003715919 -6.014362e-05 -4.043427e-20)
(0.0003344928 0.006769587 1.586216e-19)
(0.0008218414 -5.825366e-05 -2.45011e-19)
(0.001397433 0.01461791 -7.857293e-18)
(0.001737106 -5.61855e-06 -4.795974e-19)
(0.004926575 0.0006665633 -5.497861e-18)
(0.001051259 0.02558346 -6.304979e-18)
(0.0001448446 -1.571864e-05 -7.662793e-27)
(9.971664e-05 -6.926999e-06 -1.592967e-27)
(0.0001932136 -3.55192e-05 -5.02474e-23)
(0.0001835648 -2.385175e-05 1.397058e-22)
(0.0002198206 0.0009977903 -1.257305e-18)
(0.0002750129 -4.107656e-05 -2.935616e-21)
(0.0002709426 0.005678142 3.559844e-20)
(0.0009093534 1.84622e-05 -9.100091e-19)
(0.0004179531 0.0135587 -3.46403e-18)
(0.001578414 1.554094e-05 1.51709e-18)
(0.000959505 0.02422848 -8.880048e-19)
(0.002569587 4.512663e-05 -8.642584e-19)
(0.004246363 0.0001888484 -1.200601e-18)
(0.004018884 0.03724253 -7.449685e-18)
(0.0001376868 -1.485759e-05 1.798081e-25)
(9.456319e-05 -6.494243e-06 8.331219e-24)
(0.0001832349 0.0003986731 -4.986364e-20)
(0.0002097418 -2.048599e-05 1.346507e-20)
(0.0002244043 0.003589281 -4.966863e-19)
(0.0004575983 -2.763521e-05 4.11853e-20)
(0.0006221916 0.0107584 -8.46217e-18)
(0.001083567 -9.204761e-06 -7.428421e-19)
(0.0006788138 0.02166131 3.415948e-18)
(0.003439168 0.0003720557 -3.751057e-18)
(0.001153989 0.03529835 1.725629e-17)
(0.003882695 0.000173053 -3.765187e-19)
(0.00588803 0.0003408974 3.977435e-18)
(0.002010188 0.05114597 2.824058e-17)
(0.0001267036 2.092149e-05 2.871754e-22)
(9.032766e-05 -6.197388e-06 -1.808187e-21)
(0.0001757845 0.001913126 -1.535193e-19)
(0.0002987978 -1.309021e-05 7.653909e-20)
(0.0002429318 0.00772265 2.458337e-19)
(0.0007671368 -4.950758e-06 -9.384024e-19)
(0.0004911606 0.01719105 6.133884e-20)
(0.001578343 1.686676e-05 -1.343165e-18)
(0.001912105 0.03033842 1.56794e-17)
(0.002857397 7.146672e-05 3.596976e-18)
(0.003322615 0.04608357 5.530124e-18)
(0.004405859 0.0001321492 -8.879674e-18)
(0.01243274 0.002012408 9.080119e-18)
(0.002817111 0.06524486 1.81598e-17)
(0.0001141842 0.0004397308 -8.974462e-21)
(0.000117736 -3.805776e-06 -8.440722e-21)
(0.0001715693 0.004421586 1.664605e-20)
(0.0004592238 -8.605554e-07 -1.583694e-19)
(0.0002667153 0.01261674 -5.273962e-19)
(0.001154444 2.312884e-05 1.582355e-20)
(0.0005044571 0.02461379 -1.848133e-18)
(0.002223954 6.012556e-05 3.056131e-19)
(0.001074287 0.03984915 9.160022e-20)
(0.003641966 0.0001020754 3.01636e-18)
(0.002106413 0.05768102 -2.355219e-17)
(0.005352832 0.0001429123 -7.163721e-18)
(0.00843097 0.0003967067 2.279966e-18)
(0.006435882 0.07823688 1.432483e-17)
(0.000102593 0.001436757 1.248977e-20)
(0.0001662083 -1.512001e-07 -4.303389e-20)
(0.0001742877 0.007345151 8.426288e-19)
(0.0006478147 1.203437e-05 4.488042e-19)
(0.0002756866 0.01762589 -1.37295e-18)
(0.001610388 6.058711e-05 1.705399e-18)
(0.0005305023 0.03181678 -4.275099e-19)
(0.002883532 0.0001030575 -3.259531e-18)
(0.001038239 0.04933568 9.632433e-20)
(0.00457401 0.0001546503 -2.248445e-18)
(0.001914454 0.06952911 -1.628748e-17)
(0.006587323 0.0001968326 -8.070876e-18)
(0.00886148 0.0002205827 1.188957e-17)
(0.003840251 0.09160177 1.879211e-17)