/*--------------------------------*- C++ -*----------------------------------*\
| =========                 |                                                 |
| \\      /  F ield         | OpenFOAM: The Open Source CFD Toolbox           |
|  \\    /   O peration     | Version:  2206                                  |
|   \\  /    A nd           | Website:  www.openfoam.com                      |
|    \\/     M anipulation  |                                                 |
\*---------------------------------------------------------------------------*/
FoamFile
{
    version     2.0;
    format      ascii;
    arch        "LSB;label=32;scalar=64";
    class       volScalarField;
    location    "2.6";
    object      k.b;
}
// * * * * * * * * * * * * * * * * * * * * * * * * * * * * * * * * * * * * * //

dimensions      [0 2 -2 0 0 0 0];

internalField   nonuniform List<scalar> 
13078
(
5.826944e-14
2.497469e-11
3.99772e-11
4.048998e-11
4.076113e-11
4.109934e-11
4.149691e-11
3.847026e-14
2.116415e-11
3.960762e-11
4.044048e-11
4.074675e-11
4.108912e-11
4.148732e-11
9.667672e-14
2.119181e-11
3.953392e-11
4.040605e-11
4.072585e-11
4.10743e-11
4.147484e-11
4.729068e-14
2.138202e-11
3.951875e-11
4.037976e-11
4.070577e-11
4.105874e-11
4.146134e-11
3.291641e-14
2.145522e-11
3.95093e-11
4.036543e-11
4.06892e-11
4.104401e-11
4.144804e-11
2.877332e-14
2.149668e-11
3.950638e-11
4.035647e-11
4.068108e-11
4.10316e-11
4.143542e-11
2.829169e-14
2.151307e-11
3.949948e-11
4.035049e-11
4.067552e-11
4.102636e-11
4.142448e-11
2.928061e-14
2.151415e-11
3.949181e-11
4.034723e-11
4.067228e-11
4.102279e-11
4.142065e-11
3.107974e-14
2.151149e-11
3.949387e-11
4.034646e-11
4.067053e-11
4.10204e-11
4.14179e-11
3.355094e-14
2.15005e-11
3.949526e-11
4.034636e-11
4.066958e-11
4.101881e-11
4.141587e-11
3.669813e-14
2.148381e-11
3.949603e-11
4.034657e-11
4.066907e-11
4.101769e-11
4.141425e-11
4.063757e-14
2.146278e-11
3.949629e-11
4.03469e-11
4.066881e-11
4.101685e-11
4.141294e-11
4.558675e-14
2.143843e-11
3.949611e-11
4.03472e-11
4.066866e-11
4.101619e-11
4.141179e-11
5.177888e-14
2.141111e-11
3.949559e-11
4.034737e-11
4.06684e-11
4.101558e-11
4.14107e-11
5.947691e-14
2.138135e-11
3.949417e-11
4.03457e-11
4.066575e-11
4.101472e-11
4.140966e-11
6.909162e-14
2.134929e-11
3.949229e-11
4.034348e-11
4.066374e-11
4.101396e-11
4.140858e-11
8.115477e-14
2.131519e-11
3.949095e-11
4.034332e-11
4.06633e-11
4.101328e-11
4.140747e-11
9.634815e-14
2.127908e-11
3.948936e-11
4.034321e-11
4.06629e-11
4.101257e-11
4.140631e-11
1.155526e-13
2.12408e-11
3.948755e-11
4.034308e-11
4.066235e-11
4.101159e-11
4.140511e-11
1.398642e-13
2.120058e-11
3.948553e-11
4.034271e-11
4.065928e-11
4.100688e-11
4.140344e-11
1.706738e-13
2.115813e-11
3.948336e-11
4.034226e-11
4.065559e-11
4.10032e-11
4.140174e-11
2.09752e-13
2.111354e-11
3.948109e-11
4.034204e-11
4.06546e-11
4.100189e-11
4.140023e-11
2.593224e-13
2.106657e-11
3.947859e-11
4.034174e-11
4.065383e-11
4.100036e-11
4.139822e-11
3.221775e-13
2.101709e-11
3.947594e-11
4.034143e-11
4.065272e-11
4.099529e-11
4.13906e-11
4.017972e-13
2.096486e-11
3.947309e-11
4.034109e-11
4.065152e-11
4.098938e-11
4.138455e-11
5.024972e-13
2.090961e-11
3.946995e-11
4.034073e-11
4.065049e-11
4.098702e-11
4.13817e-11
6.295848e-13
2.085204e-11
3.946657e-11
4.034037e-11
4.064941e-11
4.098496e-11
4.137828e-11
7.893519e-13
2.078463e-11
3.946244e-11
4.034e-11
4.064818e-11
4.098255e-11
4.136981e-11
9.89458e-13
2.072478e-11
3.945882e-11
4.033964e-11
4.064686e-11
4.097985e-11
4.136055e-11
1.236492e-12
2.055327e-11
3.944872e-11
4.033911e-11
4.064551e-11
4.097731e-11
4.135555e-11
1.543623e-12
2.036809e-11
3.944654e-11
4.033892e-11
4.064411e-11
4.09747e-11
4.13515e-11
1.927395e-12
2.00648e-11
3.943922e-11
4.033859e-11
4.064288e-11
4.097194e-11
4.134697e-11
2.399336e-12
1.968553e-11
3.93975e-11
4.03323e-11
4.064101e-11
4.096869e-11
4.134227e-11
2.974303e-12
1.955601e-11
3.936551e-11
4.032629e-11
4.063764e-11
4.096396e-11
4.133581e-11
3.66801e-12
1.942642e-11
3.934885e-11
4.031548e-11
4.061643e-11
4.095247e-11
4.132413e-11
4.4943e-12
1.928965e-11
3.932171e-11
4.029803e-11
4.058747e-11
4.091535e-11
4.130103e-11
5.46262e-12
1.914689e-11
3.927974e-11
4.026229e-11
4.055202e-11
4.087503e-11
4.127498e-11
6.572044e-12
1.899324e-11
3.922075e-11
4.021727e-11
4.051098e-11
4.083967e-11
4.124671e-11
7.800302e-12
1.882667e-11
3.915198e-11
4.017093e-11
4.047685e-11
4.081706e-11
4.123528e-11
9.093839e-12
1.851196e-11
3.907676e-11
4.012714e-11
4.043783e-11
4.078666e-11
4.121165e-11
1.041783e-11
1.792621e-11
3.89941e-11
4.006994e-11
4.038023e-11
4.073249e-11
4.116967e-11
1.173083e-11
1.735982e-11
3.885237e-11
3.996894e-11
4.028782e-11
4.063643e-11
4.104746e-11
1.292904e-11
1.710589e-11
3.870421e-11
3.984377e-11
4.01314e-11
4.049176e-11
4.087228e-11
1.390062e-11
1.688675e-11
3.857665e-11
3.972823e-11
3.997957e-11
4.028209e-11
4.069952e-11
1.45583e-11
1.660773e-11
3.847224e-11
3.960734e-11
3.985809e-11
4.011244e-11
4.043008e-11
1.484494e-11
1.61737e-11
3.836567e-11
3.94702e-11
3.971185e-11
3.994375e-11
4.019381e-11
1.470906e-11
1.568524e-11
3.822478e-11
3.935489e-11
3.952995e-11
3.973795e-11
3.99866e-11
1.401366e-11
1.54076e-11
3.808961e-11
3.923921e-11
3.936094e-11
3.951986e-11
3.975187e-11
1.274894e-11
1.512058e-11
3.794635e-11
3.909417e-11
3.922409e-11
3.93777e-11
3.958518e-11
1.099866e-11
1.484678e-11
3.781893e-11
3.896099e-11
3.907309e-11
3.922173e-11
3.94483e-11
8.900287e-12
1.431326e-11
3.768709e-11
3.886108e-11
3.897274e-11
3.912306e-11
3.932527e-11
6.592927e-12
1.350828e-11
3.751392e-11
3.87386e-11
3.887184e-11
3.905362e-11
3.927478e-11
4.39318e-12
1.317026e-11
3.738298e-11
3.871328e-11
3.886506e-11
3.906914e-11
3.926582e-11
2.629981e-12
1.299768e-11
3.732925e-11
3.868439e-11
3.886154e-11
3.907396e-11
3.927497e-11
1.575559e-12
1.288194e-11
3.731949e-11
3.869083e-11
3.889163e-11
3.911429e-11
3.934889e-11
1.036765e-12
1.282371e-11
3.733357e-11
3.872072e-11
3.89396e-11
3.917767e-11
3.942667e-11
7.333707e-13
1.290524e-11
3.736899e-11
3.873659e-11
3.894321e-11
3.917559e-11
3.943191e-11
1.542204e-12
1.308816e-11
3.741326e-11
3.873383e-11
3.892207e-11
3.913864e-11
3.93704e-11
3.045072e-12
1.331369e-11
3.747799e-11
3.875872e-11
3.892743e-11
3.913078e-11
3.932131e-11
5.04092e-12
1.36111e-11
3.758029e-11
3.881207e-11
3.895664e-11
3.914763e-11
3.931979e-11
7.408392e-12
1.405781e-11
3.774457e-11
3.88599e-11
3.898679e-11
3.916618e-11
3.93864e-11
9.826564e-12
1.492548e-11
3.793691e-11
3.899777e-11
3.910703e-11
3.925858e-11
3.946174e-11
1.191999e-11
1.551078e-11
3.807919e-11
3.910384e-11
3.921889e-11
3.937158e-11
3.961294e-11
1.355886e-11
1.581176e-11
3.82046e-11
3.923215e-11
3.937172e-11
3.953724e-11
3.97741e-11
1.463639e-11
1.606879e-11
3.833288e-11
3.93735e-11
3.951919e-11
3.97074e-11
3.996004e-11
1.510491e-11
1.623409e-11
3.845123e-11
3.949208e-11
3.970614e-11
3.995201e-11
4.020852e-11
1.504915e-11
1.659515e-11
3.858018e-11
3.96178e-11
3.990103e-11
4.017744e-11
4.042834e-11
1.458716e-11
1.695747e-11
3.867497e-11
3.976388e-11
4.004267e-11
4.034923e-11
4.067224e-11
1.377075e-11
1.718988e-11
3.8761e-11
3.987657e-11
4.016153e-11
4.048992e-11
4.092044e-11
1.268056e-11
1.737424e-11
3.886597e-11
3.997516e-11
4.02851e-11
4.065582e-11
4.106137e-11
1.141396e-11
1.759726e-11
3.898692e-11
4.007454e-11
4.039773e-11
4.075734e-11
4.118422e-11
1.006952e-11
1.804661e-11
3.909524e-11
4.01515e-11
4.046217e-11
4.081948e-11
4.125527e-11
8.741874e-12
1.849438e-11
3.916319e-11
4.019046e-11
4.049842e-11
4.084593e-11
4.126136e-11
7.467681e-12
1.874901e-11
3.922131e-11
4.022795e-11
4.05288e-11
4.085908e-11
4.12594e-11
6.280121e-12
1.88948e-11
3.92757e-11
4.026547e-11
4.055864e-11
4.087607e-11
4.126975e-11
5.215804e-12
1.910214e-11
3.931996e-11
4.029794e-11
4.058889e-11
4.090956e-11
4.130223e-11
4.288992e-12
1.928151e-11
3.934412e-11
4.03165e-11
4.06107e-11
4.094565e-11
4.132225e-11
3.498864e-12
1.943614e-11
3.93589e-11
4.032316e-11
4.062733e-11
4.096291e-11
4.133367e-11
2.835237e-12
1.95775e-11
3.937073e-11
4.032918e-11
4.064087e-11
4.096773e-11
4.133956e-11
2.284048e-12
1.969425e-11
3.939916e-11
4.03336e-11
4.064235e-11
4.097025e-11
4.134374e-11
1.831441e-12
2.006594e-11
3.943881e-11
4.033896e-11
4.064352e-11
4.097268e-11
4.134775e-11
1.463726e-12
2.036208e-11
3.944434e-11
4.033893e-11
4.064442e-11
4.097512e-11
4.135196e-11
1.168837e-12
2.054213e-11
3.944552e-11
4.033888e-11
4.064555e-11
4.097748e-11
4.135577e-11
9.327971e-13
2.071085e-11
3.94551e-11
4.033926e-11
4.064675e-11
4.09798e-11
4.136045e-11
7.427164e-13
2.076911e-11
3.945849e-11
4.03395e-11
4.064794e-11
4.098235e-11
4.136967e-11
5.914648e-13
2.083599e-11
3.946259e-11
4.033985e-11
4.064907e-11
4.098465e-11
4.137802e-11
4.720707e-13
2.089376e-11
3.946609e-11
4.034022e-11
4.065012e-11
4.098666e-11
4.138135e-11
3.776806e-13
2.09497e-11
3.946948e-11
4.034059e-11
4.065115e-11
4.0989e-11
4.138417e-11
3.031526e-13
2.100292e-11
3.947262e-11
4.034092e-11
4.065235e-11
4.099497e-11
4.139025e-11
2.443687e-13
2.105354e-11
3.947557e-11
4.034129e-11
4.065347e-11
4.099999e-11
4.139784e-11
1.980465e-13
2.110176e-11
3.947837e-11
4.034164e-11
4.065426e-11
4.100156e-11
4.139983e-11
1.615914e-13
2.114761e-11
3.948094e-11
4.034194e-11
4.065533e-11
4.10029e-11
4.140139e-11
1.328488e-13
2.119132e-11
3.948344e-11
4.034246e-11
4.065912e-11
4.100668e-11
4.140317e-11
1.101443e-13
2.123281e-11
3.948577e-11
4.034292e-11
4.066222e-11
4.101142e-11
4.14049e-11
9.221673e-14
2.127236e-11
3.948791e-11
4.03431e-11
4.06628e-11
4.101244e-11
4.14061e-11
7.800896e-14
2.130975e-11
3.948981e-11
4.034328e-11
4.066324e-11
4.101315e-11
4.140725e-11
6.675199e-14
2.134519e-11
3.949146e-11
4.034353e-11
4.066372e-11
4.101384e-11
4.140838e-11
5.774501e-14
2.137867e-11
3.949368e-11
4.034585e-11
4.06658e-11
4.101463e-11
4.140948e-11
5.050532e-14
2.141e-11
3.949548e-11
4.034759e-11
4.066847e-11
4.10155e-11
4.141049e-11
4.470544e-14
2.143915e-11
3.949641e-11
4.034749e-11
4.066874e-11
4.101608e-11
4.141151e-11
4.007193e-14
2.146568e-11
3.949701e-11
4.034725e-11
4.066885e-11
4.101663e-11
4.14125e-11
3.644871e-14
2.148949e-11
3.949726e-11
4.034695e-11
4.066901e-11
4.101726e-11
4.141358e-11
3.356049e-14
2.150995e-11
3.949705e-11
4.034666e-11
4.066927e-11
4.101805e-11
4.141487e-11
3.129014e-14
2.152609e-11
3.949626e-11
4.034645e-11
4.066973e-11
4.101912e-11
4.141642e-11
2.969922e-14
2.153596e-11
3.949463e-11
4.034652e-11
4.067062e-11
4.102071e-11
4.141848e-11
2.877261e-14
2.154505e-11
3.950211e-11
4.034836e-11
4.067245e-11
4.102309e-11
4.142144e-11
2.897162e-14
2.154259e-11
3.950769e-11
4.035174e-11
4.067579e-11
4.102676e-11
4.14313e-11
3.133869e-14
2.152027e-11
3.95068e-11
4.035629e-11
4.068092e-11
4.103726e-11
4.144281e-11
3.716686e-14
2.147904e-11
3.950941e-11
4.036457e-11
4.069383e-11
4.105008e-11
4.145528e-11
5.259371e-14
2.139128e-11
3.951824e-11
4.038373e-11
4.071064e-11
4.106454e-11
4.146863e-11
1.038928e-13
2.129804e-11
3.956075e-11
4.04099e-11
4.073028e-11
4.108008e-11
4.148223e-11
5.379734e-14
2.185043e-11
3.961571e-11
4.044323e-11
4.075267e-11
4.109604e-11
4.149551e-11
4.197169e-11
4.257495e-11
4.338935e-11
4.418227e-11
4.562278e-11
5.020832e-11
8.063431e-10
4.196105e-11
4.256135e-11
4.337125e-11
4.416112e-11
4.559461e-11
4.869941e-11
4.707285e-10
4.19487e-11
4.254702e-11
4.335394e-11
4.44346e-11
4.557172e-11
4.865793e-11
4.672642e-10
4.193563e-11
4.253232e-11
4.333493e-11
4.411758e-11
4.554171e-11
4.861468e-11
4.647307e-10
4.192264e-11
4.25174e-11
4.331696e-11
4.409332e-11
4.551446e-11
4.856723e-11
4.528786e-10
4.190992e-11
4.250247e-11
4.329837e-11
4.40708e-11
4.548785e-11
4.851649e-11
4.339559e-10
4.18977e-11
4.248783e-11
4.328e-11
4.404924e-11
4.54804e-11
4.846445e-11
4.132956e-10
4.188682e-11
4.247352e-11
4.326195e-11
4.402818e-11
4.547358e-11
4.840782e-11
3.867215e-10
4.188349e-11
4.246053e-11
4.32448e-11
4.400683e-11
4.545238e-11
4.835127e-11
3.613862e-10
4.188102e-11
4.245689e-11
4.322896e-11
4.398569e-11
4.543152e-11
4.829016e-11
3.317126e-10
4.187898e-11
4.245417e-11
4.322462e-11
4.396532e-11
4.541087e-11
4.822702e-11
3.008314e-10
4.187713e-11
4.245159e-11
4.322128e-11
4.39608e-11
4.539014e-11
4.815446e-11
2.663822e-10
4.187545e-11
4.244913e-11
4.321793e-11
4.395674e-11
4.538652e-11
4.807992e-11
2.343697e-10
4.187382e-11
4.244671e-11
4.321454e-11
4.395255e-11
4.538249e-11
4.805702e-11
2.04927e-10
4.187221e-11
4.244421e-11
4.321105e-11
4.394824e-11
4.537814e-11
4.796662e-11
1.898896e-10
4.187054e-11
4.244163e-11
4.320746e-11
4.394375e-11
4.537351e-11
4.789095e-11
1.506646e-10
4.186884e-11
4.243896e-11
4.320373e-11
4.39389e-11
4.536658e-11
4.783292e-11
1.325809e-10
4.186707e-11
4.243626e-11
4.319976e-11
4.393164e-11
4.530327e-11
4.777387e-11
1.144596e-10
4.186523e-11
4.243354e-11
4.319569e-11
4.392629e-11
4.529443e-11
4.772207e-11
9.973121e-11
4.186324e-11
4.243066e-11
4.319139e-11
4.392075e-11
4.528729e-11
4.767568e-11
1.113685e-10
4.186117e-11
4.242762e-11
4.318691e-11
4.391492e-11
4.527979e-11
4.769982e-11
5.840778e-10
4.18589e-11
4.242438e-11
4.318231e-11
4.390868e-11
4.527194e-11
4.766857e-11
1.351236e-10
4.185653e-11
4.242088e-11
4.317683e-11
4.390201e-11
4.526223e-11
4.807647e-11
6.071855e-10
4.185336e-11
4.241711e-11
4.317243e-11
4.416933e-11
4.520545e-11
4.802468e-11
5.168738e-10
4.185008e-11
4.241311e-11
4.316539e-11
4.389049e-11
4.51731e-11
4.809598e-11
5.405467e-10
4.184697e-11
4.240883e-11
4.315932e-11
4.387949e-11
4.516143e-11
4.820856e-11
6.603469e-10
4.184287e-11
4.240381e-11
4.315259e-11
4.387077e-11
4.514879e-11
4.8151e-11
6.161481e-10
4.183037e-11
4.239805e-11
4.314339e-11
4.386137e-11
4.513182e-11
4.782906e-11
5.72112e-10
4.182009e-11
4.223932e-11
4.293416e-11
4.384996e-11
4.511603e-11
4.769425e-11
5.244063e-10
4.18118e-11
4.223045e-11
4.292586e-11
4.384026e-11
4.510074e-11
4.755362e-11
4.037958e-10
4.179672e-11
4.220766e-11
4.291722e-11
4.382848e-11
4.508453e-11
4.770363e-11
4.150599e-10
4.178607e-11
4.219404e-11
4.290825e-11
4.381557e-11
4.506672e-11
4.762718e-11
3.817759e-10
4.177794e-11
4.215326e-11
4.289801e-11
4.380212e-11
4.504784e-11
4.746355e-11
3.06212e-10
4.177129e-11
4.214235e-11
4.286574e-11
4.378966e-11
4.502879e-11
4.726346e-11
2.147293e-10
4.176062e-11
4.212733e-11
4.282467e-11
4.377838e-11
4.500773e-11
4.694673e-11
1.718901e-10
4.174458e-11
4.210938e-11
4.27924e-11
4.376727e-11
4.499043e-11
4.698717e-11
2.246824e-10
4.173724e-11
4.210295e-11
4.280715e-11
4.375378e-11
4.500174e-11
4.681317e-11
1.868871e-10
4.175357e-11
4.212899e-11
4.285388e-11
4.374004e-11
4.505269e-11
4.700711e-11
2.685369e-10
4.178548e-11
4.218322e-11
4.292572e-11
4.380805e-11
4.513576e-11
4.692474e-11
7.211352e-11
4.180378e-11
4.223351e-11
4.300734e-11
4.39367e-11
4.501785e-11
4.67486e-11
9.877915e-11
4.17364e-11
4.223296e-11
4.300047e-11
4.388025e-11
4.486243e-11
4.637304e-11
7.2591e-11
4.157074e-11
4.209308e-11
4.280219e-11
4.371702e-11
4.47321e-11
4.596313e-11
7.36505e-11
4.138149e-11
4.191039e-11
4.265537e-11
4.35462e-11
4.452925e-11
4.569274e-11
7.418735e-11
4.117885e-11
4.173418e-11
4.250822e-11
4.337805e-11
4.424915e-11
4.561327e-11
6.827955e-11
4.093843e-11
4.147054e-11
4.221486e-11
4.31828e-11
4.396464e-11
4.544228e-11
6.062102e-11
4.063892e-11
4.12263e-11
4.202383e-11
4.289052e-11
4.376679e-11
4.516476e-11
1.319787e-10
4.041067e-11
4.097914e-11
4.181717e-11
4.271183e-11
4.342072e-11
4.508145e-11
1.159091e-10
4.023895e-11
4.07699e-11
4.170216e-11
4.247585e-11
4.33714e-11
4.443637e-11
7.679e-11
4.001164e-11
4.057059e-11
4.148402e-11
4.233745e-11
4.323103e-11
4.463914e-11
8.552022e-11
3.984599e-11
4.039964e-11
4.136478e-11
4.218236e-11
4.311794e-11
4.406166e-11
5.582214e-11
3.971626e-11
4.020126e-11
4.117279e-11
4.203094e-11
4.287943e-11
4.38135e-11
5.188156e-11
3.970072e-11
4.017182e-11
4.110538e-11
4.1871e-11
4.263731e-11
5.027935e-11
1.13416e-09
3.970541e-11
4.013772e-11
4.104552e-11
4.172608e-11
4.246521e-11
4.761246e-11
9.283879e-10
3.970767e-11
4.013846e-11
4.103215e-11
4.169165e-11
4.224323e-11
5.847519e-11
7.086476e-10
3.977916e-11
4.01912e-11
4.111994e-11
4.16345e-11
4.21015e-11
4.214088e-11
5.359891e-11
3.986333e-11
4.028516e-11
4.114162e-11
4.16732e-11
4.194266e-11
4.194488e-11
3.987462e-11
4.033923e-11
4.123387e-11
4.17708e-11
4.209207e-11
4.212912e-11
3.982345e-11
4.029953e-11
4.115434e-11
4.167742e-11
4.197667e-11
4.200079e-11
3.977328e-11
4.024974e-11
4.111995e-11
4.162988e-11
4.211494e-11
4.341562e-11
3.822216e-10
3.975138e-11
4.01847e-11
4.116712e-11
4.177512e-11
4.234443e-11
5.696894e-11
8.745456e-10
3.981213e-11
4.023853e-11
4.119137e-11
4.194485e-11
4.254699e-11
4.638405e-11
1.139352e-09
3.986609e-11
4.025554e-11
4.109512e-11
4.191936e-11
4.259769e-11
4.339304e-11
5.348534e-11
4.00284e-11
4.044267e-11
4.135423e-11
4.204686e-11
4.270984e-11
4.368187e-11
4.927627e-11
4.022561e-11
4.063389e-11
4.146144e-11
4.210695e-11
4.300103e-11
4.391947e-11
5.492007e-11
4.046887e-11
4.081948e-11
4.167275e-11
4.243827e-11
4.317085e-11
4.399719e-11
5.526564e-11
4.066906e-11
4.10932e-11
4.189876e-11
4.264927e-11
4.335583e-11
4.423246e-11
7.994263e-11
4.089055e-11
4.126478e-11
4.209009e-11
4.286705e-11
4.356252e-11
4.458844e-11
5.459221e-11
4.116491e-11
4.155058e-11
4.231231e-11
4.304345e-11
4.380836e-11
4.504542e-11
7.150995e-11
4.140019e-11
4.177102e-11
4.250678e-11
4.330365e-11
4.404134e-11
4.533954e-11
4.909802e-11
4.162108e-11
4.200101e-11
4.270917e-11
4.349129e-11
4.436937e-11
4.608075e-11
3.462633e-10
4.176086e-11
4.220423e-11
4.285358e-11
4.367716e-11
4.461911e-11
4.57563e-11
6.149328e-11
4.182721e-11
4.229158e-11
4.301517e-11
4.389936e-11
4.482844e-11
4.603585e-11
9.704999e-11
4.182081e-11
4.230083e-11
4.30215e-11
4.400328e-11
4.498041e-11
4.647406e-11
6.578189e-11
4.178272e-11
4.221918e-11
4.292084e-11
4.384501e-11
4.508673e-11
4.680797e-11
7.261871e-11
4.175088e-11
4.214897e-11
4.283413e-11
4.370267e-11
4.504187e-11
4.694212e-11
2.637428e-10
4.174712e-11
4.211503e-11
4.278995e-11
4.367693e-11
4.497198e-11
4.669719e-11
2.205534e-10
4.175751e-11
4.211693e-11
4.278539e-11
4.372588e-11
4.497647e-11
4.677099e-11
1.072462e-10
4.176744e-11
4.212976e-11
4.280847e-11
4.376907e-11
4.499524e-11
4.697041e-11
1.979659e-10
4.177391e-11
4.214486e-11
4.284259e-11
4.378153e-11
4.501453e-11
4.704e-11
2.17705e-10
4.177896e-11
4.214637e-11
4.288967e-11
4.379476e-11
4.503477e-11
4.728542e-11
2.754898e-10
4.178657e-11
4.217525e-11
4.290319e-11
4.380869e-11
4.505503e-11
4.755456e-11
3.738995e-10
4.179715e-11
4.220083e-11
4.291275e-11
4.382176e-11
4.50739e-11
4.761201e-11
4.048074e-10
4.181212e-11
4.222717e-11
4.292131e-11
4.38338e-11
4.509085e-11
4.764081e-11
5.229854e-10
4.182001e-11
4.223049e-11
4.292953e-11
4.384478e-11
4.510651e-11
4.752599e-11
3.958725e-10
4.183013e-11
4.239755e-11
4.314272e-11
4.385842e-11
4.512164e-11
4.768323e-11
5.321507e-10
4.184246e-11
4.24032e-11
4.315167e-11
4.386689e-11
4.513895e-11
4.798194e-11
5.825372e-10
4.184652e-11
4.240818e-11
4.315861e-11
4.387582e-11
4.51535e-11
4.814185e-11
6.278517e-10
4.18496e-11
4.241247e-11
4.316485e-11
4.388411e-11
4.516581e-11
4.820838e-11
6.744239e-10
4.185291e-11
4.241653e-11
4.317075e-11
4.38919e-11
4.517855e-11
4.759157e-11
1.408044e-10
4.185609e-11
4.242027e-11
4.31762e-11
4.389932e-11
4.52408e-11
4.759599e-11
1.31977e-10
4.185846e-11
4.242377e-11
4.318136e-11
4.390623e-11
4.526648e-11
4.761586e-11
1.158605e-10
4.186073e-11
4.242709e-11
4.318621e-11
4.391263e-11
4.527464e-11
4.759192e-11
9.140156e-11
4.186288e-11
4.243019e-11
4.319077e-11
4.391871e-11
4.528249e-11
4.76305e-11
8.469935e-11
4.186493e-11
4.24331e-11
4.319513e-11
4.39244e-11
4.528982e-11
4.768069e-11
9.907921e-11
4.186679e-11
4.243586e-11
4.31992e-11
4.392983e-11
4.529682e-11
4.773544e-11
1.148627e-10
4.186858e-11
4.243859e-11
4.32032e-11
4.393642e-11
4.533013e-11
4.779167e-11
1.323411e-10
4.187027e-11
4.244126e-11
4.320695e-11
4.394231e-11
4.537021e-11
4.785094e-11
1.519406e-10
4.187191e-11
4.24438e-11
4.321053e-11
4.3947e-11
4.537497e-11
4.791208e-11
1.768847e-10
4.187348e-11
4.244624e-11
4.321397e-11
4.395155e-11
4.537951e-11
4.799707e-11
1.990671e-10
4.187502e-11
4.244858e-11
4.32173e-11
4.39559e-11
4.538373e-11
4.804713e-11
2.191712e-10
4.187655e-11
4.245091e-11
4.322053e-11
4.396015e-11
4.538777e-11
4.809695e-11
2.472978e-10
4.187817e-11
4.245331e-11
4.322373e-11
4.396431e-11
4.539982e-11
4.81676e-11
2.762453e-10
4.187992e-11
4.245578e-11
4.322791e-11
4.397673e-11
4.542032e-11
4.823778e-11
3.069555e-10
4.188198e-11
4.24591e-11
4.32435e-11
4.399778e-11
4.544106e-11
4.83019e-11
3.368186e-10
4.188479e-11
4.247168e-11
4.326034e-11
4.401907e-11
4.546195e-11
4.836054e-11
3.626672e-10
4.189502e-11
4.248555e-11
4.327809e-11
4.404068e-11
4.548214e-11
4.841904e-11
3.87086e-10
4.190657e-11
4.249978e-11
4.32962e-11
4.40613e-11
4.54746e-11
4.847574e-11
4.101984e-10
4.191871e-11
4.251444e-11
4.33146e-11
4.408337e-11
4.550031e-11
4.852851e-11
4.290136e-10
4.193145e-11
4.252944e-11
4.333322e-11
4.41055e-11
4.552705e-11
4.857832e-11
4.418001e-10
4.194476e-11
4.25446e-11
4.335191e-11
4.41277e-11
4.555396e-11
4.862494e-11
4.47158e-10
4.195805e-11
4.255958e-11
4.33705e-11
4.414964e-11
4.558096e-11
4.866679e-11
4.452563e-10
4.197101e-11
4.257458e-11
4.338902e-11
4.417137e-11
4.560808e-11
4.878287e-11
3.422076e-10
1.963972e-07
2.667415e-07
2.677614e-07
2.677682e-07
2.677683e-07
2.677683e-07
2.677683e-07
2.677683e-07
2.677683e-07
2.677683e-07
2.677683e-07
2.677683e-07
2.677683e-07
2.677683e-07
2.677683e-07
2.677683e-07
2.677683e-07
2.677683e-07
1.832359e-07
2.672716e-07
2.677771e-07
2.677688e-07
2.677685e-07
2.677685e-07
2.677685e-07
2.677685e-07
2.677685e-07
2.677685e-07
2.677685e-07
2.677685e-07
2.677685e-07
2.677685e-07
2.677685e-07
2.677685e-07
2.677685e-07
2.677685e-07
1.799838e-07
2.667243e-07
2.677616e-07
2.677684e-07
2.677685e-07
2.677685e-07
2.677685e-07
2.677685e-07
2.677685e-07
2.677685e-07
2.677685e-07
2.677685e-07
2.677685e-07
2.677685e-07
2.677685e-07
2.677685e-07
2.677685e-07
2.677685e-07
1.756982e-07
2.664001e-07
2.677612e-07
2.677683e-07
2.677684e-07
2.677684e-07
2.677684e-07
2.677684e-07
2.677684e-07
2.677684e-07
2.677684e-07
2.677684e-07
2.677684e-07
2.677684e-07
2.677684e-07
2.677684e-07
2.677684e-07
2.677684e-07
1.713376e-07
2.665217e-07
2.677653e-07
2.677684e-07
2.677684e-07
2.677684e-07
2.677684e-07
2.677684e-07
2.677684e-07
2.677684e-07
2.677684e-07
2.677684e-07
2.677684e-07
2.677684e-07
2.677684e-07
2.677684e-07
2.677684e-07
2.677684e-07
1.668046e-07
2.665428e-07
2.677667e-07
2.677684e-07
2.677684e-07
2.677684e-07
2.677684e-07
2.677684e-07
2.677684e-07
2.677684e-07
2.677684e-07
2.677684e-07
2.677684e-07
2.677684e-07
2.677684e-07
2.677684e-07
2.677684e-07
2.677684e-07
1.621229e-07
2.665135e-07
2.677668e-07
2.677684e-07
2.677684e-07
2.677684e-07
2.677684e-07
2.677684e-07
2.677684e-07
2.677684e-07
2.677684e-07
2.677684e-07
2.677684e-07
2.677684e-07
2.677684e-07
2.677684e-07
2.677684e-07
2.677684e-07
1.572749e-07
2.664652e-07
2.677668e-07
2.677684e-07
2.677684e-07
2.677684e-07
2.677684e-07
2.677684e-07
2.677684e-07
2.677684e-07
2.677684e-07
2.677684e-07
2.677684e-07
2.677684e-07
2.677684e-07
2.677684e-07
2.677684e-07
2.677684e-07
1.526833e-07
2.663993e-07
2.677668e-07
2.677684e-07
2.677684e-07
2.677684e-07
2.677684e-07
2.677684e-07
2.677684e-07
2.677684e-07
2.677684e-07
2.677684e-07
2.677684e-07
2.677684e-07
2.677684e-07
2.677684e-07
2.677684e-07
2.677684e-07
1.478254e-07
2.663489e-07
2.677667e-07
2.677684e-07
2.677684e-07
2.677684e-07
2.677684e-07
2.677684e-07
2.677684e-07
2.677684e-07
2.677684e-07
2.677684e-07
2.677684e-07
2.677684e-07
2.677684e-07
2.677684e-07
2.677684e-07
2.677684e-07
1.428311e-07
2.663082e-07
2.677663e-07
2.677684e-07
2.677684e-07
2.677684e-07
2.677684e-07
2.677684e-07
2.677684e-07
2.677684e-07
2.677684e-07
2.677684e-07
2.677684e-07
2.677684e-07
2.677684e-07
2.677684e-07
2.677684e-07
2.677684e-07
1.382085e-07
2.661376e-07
2.67764e-07
2.677683e-07
2.677684e-07
2.677684e-07
2.677684e-07
2.677684e-07
2.677684e-07
2.677684e-07
2.677684e-07
2.677684e-07
2.677684e-07
2.677684e-07
2.677684e-07
2.677684e-07
2.677684e-07
2.677684e-07
1.338681e-07
2.657535e-07
2.67757e-07
2.677676e-07
2.677684e-07
2.677684e-07
2.677684e-07
2.677684e-07
2.677684e-07
2.677684e-07
2.677684e-07
2.677684e-07
2.677684e-07
2.677684e-07
2.677684e-07
2.677684e-07
2.677684e-07
2.677684e-07
1.250946e-07
2.657366e-07
2.677517e-07
2.677654e-07
2.677682e-07
2.677684e-07
2.677684e-07
2.677684e-07
2.677684e-07
2.677684e-07
2.677684e-07
2.677684e-07
2.677684e-07
2.677684e-07
2.677684e-07
2.677684e-07
2.677684e-07
2.677684e-07
1.078776e-07
2.656333e-07
2.677653e-07
2.677633e-07
2.677676e-07
2.677684e-07
2.677684e-07
2.677684e-07
2.677684e-07
2.677684e-07
2.677684e-07
2.677684e-07
2.677684e-07
2.677684e-07
2.677684e-07
2.677684e-07
2.677684e-07
2.677684e-07
1.012623e-07
2.650676e-07
2.677672e-07
2.677676e-07
2.677669e-07
2.677683e-07
2.677684e-07
2.677684e-07
2.677684e-07
2.677684e-07
2.677684e-07
2.677684e-07
2.677684e-07
2.677684e-07
2.677684e-07
2.677684e-07
2.677684e-07
2.677684e-07
9.480383e-08
2.65157e-07
2.677645e-07
2.677692e-07
2.677681e-07
2.677681e-07
2.677684e-07
2.677684e-07
2.677684e-07
2.677684e-07
2.677684e-07
2.677684e-07
2.677684e-07
2.677684e-07
2.677684e-07
2.677684e-07
2.677684e-07
2.677684e-07
8.856624e-08
2.648825e-07
2.677619e-07
2.677682e-07
2.677687e-07
2.677682e-07
2.677684e-07
2.677684e-07
2.677684e-07
2.677684e-07
2.677684e-07
2.677684e-07
2.677684e-07
2.677684e-07
2.677684e-07
2.677684e-07
2.677684e-07
2.677684e-07
8.256371e-08
2.64759e-07
2.67769e-07
2.677676e-07
2.677682e-07
2.677685e-07
2.677684e-07
2.677684e-07
2.677684e-07
2.677684e-07
2.677684e-07
2.677684e-07
2.677684e-07
2.677684e-07
2.677684e-07
2.677684e-07
2.677684e-07
2.677684e-07
7.715665e-08
2.647087e-07
2.677693e-07
2.677699e-07
2.677682e-07
2.677684e-07
2.677684e-07
2.677684e-07
2.677684e-07
2.677684e-07
2.677684e-07
2.677684e-07
2.677684e-07
2.677684e-07
2.677684e-07
2.677684e-07
2.677684e-07
2.677684e-07
7.29938e-08
2.646355e-07
2.677665e-07
2.677698e-07
2.677687e-07
2.677684e-07
2.677684e-07
2.677684e-07
2.677684e-07
2.677684e-07
2.677684e-07
2.677684e-07
2.677684e-07
2.677684e-07
2.677684e-07
2.677684e-07
2.677684e-07
2.677684e-07
6.762478e-08
2.645063e-07
2.677654e-07
2.677688e-07
2.677686e-07
2.677684e-07
2.677684e-07
2.677684e-07
2.677684e-07
2.677684e-07
2.677684e-07
2.677684e-07
2.677684e-07
2.677684e-07
2.677684e-07
2.677684e-07
2.677684e-07
2.677684e-07
6.413743e-08
2.643977e-07
2.677654e-07
2.677684e-07
2.677683e-07
2.677685e-07
2.677684e-07
2.677684e-07
2.677684e-07
2.677684e-07
2.677684e-07
2.677684e-07
2.677684e-07
2.677684e-07
2.677683e-07
2.677684e-07
2.677684e-07
2.677684e-07
5.983986e-08
2.642882e-07
2.677656e-07
2.677683e-07
2.677681e-07
2.677684e-07
2.677684e-07
2.677684e-07
2.677684e-07
2.677684e-07
2.677684e-07
2.677684e-07
2.677684e-07
2.677683e-07
2.677682e-07
2.677684e-07
2.677684e-07
2.677684e-07
5.583206e-08
2.641751e-07
2.677657e-07
2.677678e-07
2.677675e-07
2.677684e-07
2.677684e-07
2.677684e-07
2.677684e-07
2.677684e-07
2.677684e-07
2.677684e-07
2.677684e-07
2.677683e-07
2.677682e-07
2.677684e-07
2.677684e-07
2.677684e-07
5.200809e-08
2.640847e-07
2.677659e-07
2.677635e-07
2.677636e-07
2.677684e-07
2.677684e-07
2.677683e-07
2.677683e-07
2.677684e-07
2.677684e-07
2.677684e-07
2.677684e-07
2.677684e-07
2.677684e-07
2.677684e-07
2.677684e-07
2.677684e-07
4.795425e-08
2.640565e-07
2.677656e-07
2.677322e-07
2.677376e-07
2.677688e-07
2.677683e-07
2.677676e-07
2.67768e-07
2.677684e-07
2.677684e-07
2.677684e-07
2.677684e-07
2.677684e-07
2.677683e-07
2.677684e-07
2.677684e-07
2.677683e-07
4.395089e-08
2.641515e-07
2.677633e-07
2.675952e-07
2.676307e-07
2.677707e-07
2.67768e-07
2.677635e-07
2.677662e-07
2.677686e-07
2.677684e-07
2.677684e-07
2.677684e-07
2.677683e-07
2.677683e-07
2.677684e-07
2.677684e-07
2.677682e-07
4.012076e-08
2.644691e-07
2.677547e-07
2.673506e-07
2.674822e-07
2.677732e-07
2.677675e-07
2.677531e-07
2.677603e-07
2.677689e-07
2.677684e-07
2.677684e-07
2.677684e-07
2.677683e-07
2.677684e-07
2.677684e-07
2.677684e-07
2.677683e-07
3.608865e-08
2.650677e-07
2.677212e-07
2.674398e-07
2.676384e-07
2.677599e-07
2.677668e-07
2.67754e-07
2.677576e-07
2.677687e-07
2.677684e-07
2.677684e-07
2.677682e-07
2.677682e-07
2.677684e-07
2.677684e-07
2.677682e-07
2.677683e-07
3.281724e-08
2.654789e-07
2.675906e-07
2.672829e-07
2.673383e-07
2.677077e-07
2.677651e-07
2.677741e-07
2.677727e-07
2.677676e-07
2.677684e-07
2.677684e-07
2.67768e-07
2.677679e-07
2.677684e-07
2.677683e-07
2.67768e-07
2.677682e-07
2.935945e-08
2.640097e-07
2.674372e-07
2.666086e-07
2.668277e-07
2.675643e-07
2.677572e-07
2.677567e-07
2.677621e-07
2.677669e-07
2.677684e-07
2.677684e-07
2.677679e-07
2.677683e-07
2.677684e-07
2.677682e-07
2.677677e-07
2.677682e-07
2.596372e-08
2.617108e-07
2.675158e-07
2.671623e-07
2.669815e-07
2.674885e-07
2.677446e-07
2.677628e-07
2.677629e-07
2.67768e-07
2.677699e-07
2.67769e-07
2.67768e-07
2.677689e-07
2.677684e-07
2.677678e-07
2.677674e-07
2.677685e-07
1.804152e-08
2.637686e-07
2.673974e-07
2.679665e-07
2.67696e-07
2.678756e-07
2.67776e-07
2.677872e-07
2.677833e-07
2.677914e-07
2.677839e-07
2.677765e-07
2.67771e-07
2.677707e-07
2.677687e-07
2.677673e-07
2.677668e-07
2.677681e-07
1.534326e-08
2.649032e-07
2.666651e-07
2.669596e-07
2.679014e-07
2.679267e-07
2.679665e-07
2.679457e-07
2.679297e-07
2.679018e-07
2.678643e-07
2.678264e-07
2.677971e-07
2.677838e-07
2.677729e-07
2.677684e-07
2.677677e-07
2.677686e-07
9.167697e-09
2.675381e-07
2.65747e-07
2.672177e-07
2.680313e-07
2.683611e-07
2.683902e-07
2.683563e-07
2.683042e-07
2.682504e-07
2.681459e-07
2.680282e-07
2.679296e-07
2.678609e-07
2.678042e-07
2.677827e-07
2.677728e-07
2.677689e-07
1.957367e-09
2.705519e-07
2.664885e-07
2.681826e-07
2.687629e-07
2.687781e-07
2.688457e-07
2.688436e-07
2.687942e-07
2.687427e-07
2.686245e-07
2.684631e-07
2.683053e-07
2.68115e-07
2.679457e-07
2.678562e-07
2.677979e-07
2.677754e-07
9.870373e-09
2.53186e-07
2.660862e-07
2.688816e-07
2.692742e-07
2.691187e-07
2.691392e-07
2.691184e-07
2.690447e-07
2.690134e-07
2.689102e-07
2.688218e-07
2.687258e-07
2.68531e-07
2.683098e-07
2.680879e-07
2.679114e-07
2.678153e-07
5.591518e-09
2.079517e-07
2.642409e-07
2.693072e-07