/*--------------------------------*- C++ -*----------------------------------*\
| =========                 |                                                 |
| \\      /  F ield         | OpenFOAM: The Open Source CFD Toolbox           |
|  \\    /   O peration     | Version:  2206                                  |
|   \\  /    A nd           | Website:  www.openfoam.com                      |
|    \\/     M anipulation  |                                                 |
\*---------------------------------------------------------------------------*/
FoamFile
{
    version     2.0;
    format      ascii;
    arch        "LSB;label=32;scalar=64";
    class       volScalarField;
    location    "2.6";
    object      k.b_0;
}
// * * * * * * * * * * * * * * * * * * * * * * * * * * * * * * * * * * * * * //

dimensions      [0 2 -2 0 0 0 0];

internalField   nonuniform List<scalar> 
13078
(
5.816042e-14
2.50791e-11
4.009704e-11
4.061016e-11
4.08822e-11
4.122141e-11
4.162015e-11
3.835083e-14
2.12561e-11
3.972697e-11
4.056062e-11
4.086778e-11
4.121116e-11
4.161054e-11
9.604338e-14
2.128288e-11
3.965317e-11
4.052614e-11
4.084684e-11
4.119631e-11
4.159803e-11
4.687654e-14
2.147322e-11
3.963795e-11
4.04998e-11
4.082672e-11
4.118072e-11
4.158449e-11
3.251152e-14
2.154646e-11
3.962847e-11
4.048545e-11
4.081011e-11
4.116596e-11
4.157116e-11
2.838197e-14
2.158795e-11
3.962554e-11
4.047648e-11
4.080199e-11
4.115352e-11
4.155852e-11
2.796458e-14
2.160433e-11
3.961863e-11
4.047049e-11
4.079641e-11
4.114827e-11
4.154755e-11
2.90295e-14
2.160537e-11
3.961095e-11
4.046723e-11
4.079317e-11
4.11447e-11
4.154371e-11
3.090402e-14
2.160269e-11
3.961301e-11
4.046645e-11
4.079142e-11
4.114231e-11
4.154096e-11
3.345026e-14
2.159165e-11
3.961439e-11
4.046635e-11
4.079047e-11
4.114071e-11
4.153892e-11
3.667348e-14
2.157491e-11
3.961517e-11
4.046656e-11
4.078996e-11
4.113959e-11
4.153729e-11
4.069374e-14
2.155381e-11
3.961542e-11
4.046689e-11
4.078969e-11
4.113875e-11
4.153598e-11
4.573484e-14
2.152939e-11
3.961524e-11
4.046718e-11
4.078954e-11
4.113808e-11
4.153483e-11
5.203409e-14
2.150199e-11
3.961471e-11
4.046736e-11
4.078928e-11
4.113746e-11
4.153373e-11
5.985689e-14
2.147214e-11
3.961328e-11
4.046568e-11
4.078662e-11
4.11366e-11
4.153269e-11
6.962072e-14
2.144e-11
3.96114e-11
4.046346e-11
4.07846e-11
4.113584e-11
4.15316e-11
8.186595e-14
2.14058e-11
3.961005e-11
4.046329e-11
4.078416e-11
4.113516e-11
4.153049e-11
9.728507e-14
2.13696e-11
3.960845e-11
4.046318e-11
4.078375e-11
4.113444e-11
4.152933e-11
1.167734e-13
2.133121e-11
3.960664e-11
4.046305e-11
4.078321e-11
4.113345e-11
4.152812e-11
1.41444e-13
2.129087e-11
3.960461e-11
4.046267e-11
4.078012e-11
4.112874e-11
4.152644e-11
1.727101e-13
2.12483e-11
3.960242e-11
4.046221e-11
4.077642e-11
4.112504e-11
4.152474e-11
2.123713e-13
2.120359e-11
3.960014e-11
4.046199e-11
4.077542e-11
4.112372e-11
4.152322e-11
2.626885e-13
2.115648e-11
3.959763e-11
4.046169e-11
4.077465e-11
4.112219e-11
4.152121e-11
3.26502e-13
2.110686e-11
3.959496e-11
4.046137e-11
4.077353e-11
4.11171e-11
4.151355e-11
4.073525e-13
2.105448e-11
3.95921e-11
4.046103e-11
4.077233e-11
4.111117e-11
4.150748e-11
5.09633e-13
2.099907e-11
3.958894e-11
4.046066e-11
4.077129e-11
4.11088e-11
4.150462e-11
6.38748e-13
2.094132e-11
3.958554e-11
4.04603e-11
4.07702e-11
4.110672e-11
4.15012e-11
8.011114e-13
2.087372e-11
3.958138e-11
4.045992e-11
4.076896e-11
4.11043e-11
4.14927e-11
1.004535e-12
2.081369e-11
3.957774e-11
4.045956e-11
4.076763e-11
4.110159e-11
4.14834e-11
1.255806e-12
2.064174e-11
3.95676e-11
4.045901e-11
4.076627e-11
4.109904e-11
4.147838e-11
1.568362e-12
2.045605e-11
3.95654e-11
4.045882e-11
4.076487e-11
4.109642e-11
4.147432e-11
1.958946e-12
2.015196e-11
3.955806e-11
4.045847e-11
4.076362e-11
4.109365e-11
4.146976e-11
2.439435e-12
1.977168e-11
3.951626e-11
4.045217e-11
4.076174e-11
4.109038e-11
4.146504e-11
3.02503e-12
1.964178e-11
3.948421e-11
4.044614e-11
4.075835e-11
4.108562e-11
4.145855e-11
3.731866e-12
1.951181e-11
3.94675e-11
4.04353e-11
4.073711e-11
4.107411e-11
4.144685e-11
4.574236e-12
1.937463e-11
3.944031e-11
4.041781e-11
4.070809e-11
4.103692e-11
4.14237e-11
5.562064e-12
1.923143e-11
3.939827e-11
4.038203e-11
4.067259e-11
4.099655e-11
4.139761e-11
6.694878e-12
1.907732e-11
3.93392e-11
4.033697e-11
4.063151e-11
4.096115e-11
4.13693e-11
7.950765e-12
1.891024e-11
3.927036e-11
4.02906e-11
4.059737e-11
4.093852e-11
4.135785e-11
9.276763e-12
1.859462e-11
3.919508e-11
4.024677e-11
4.055831e-11
4.090809e-11
4.133418e-11
1.063886e-11
1.800724e-11
3.911237e-11
4.018948e-11
4.05006e-11
4.08538e-11
4.129206e-11
1.199329e-11
1.743927e-11
3.897042e-11
4.008824e-11
4.040794e-11
4.075742e-11
4.116925e-11
1.323582e-11
1.718469e-11
3.882201e-11
3.996272e-11
4.025103e-11
4.061198e-11
4.099311e-11
1.425283e-11
1.696499e-11
3.869419e-11
3.984677e-11
4.009844e-11
4.04012e-11
4.081934e-11
1.495585e-11
1.668524e-11
3.858956e-11
3.972517e-11
3.997597e-11
4.023061e-11
4.054871e-11
1.528811e-11
1.625005e-11
3.84827e-11
3.958701e-11
3.982867e-11
4.006084e-11
4.031132e-11
1.518878e-11
1.576016e-11
3.834114e-11
3.947081e-11
3.964559e-11
3.985378e-11
4.010285e-11
1.451611e-11
1.548166e-11
3.820522e-11
3.935427e-11
3.947557e-11
3.963458e-11
3.986667e-11
1.325679e-11
1.519365e-11
3.806129e-11
3.920825e-11
3.933783e-11
3.949145e-11
3.969895e-11
1.149234e-11
1.491886e-11
3.793326e-11
3.907422e-11
3.91859e-11
3.933442e-11
3.956119e-11
9.361618e-12
1.438356e-11
3.780106e-11
3.897366e-11
3.908481e-11
3.923491e-11
3.943714e-11
7.006674e-12
1.357598e-11
3.76273e-11
3.885054e-11
3.898331e-11
3.91649e-11
3.938595e-11
4.734462e-12
1.323681e-11
3.749584e-11
3.882483e-11
3.897615e-11
3.918011e-11
3.937666e-11
2.874234e-12
1.306347e-11
3.74417e-11
3.879553e-11
3.897225e-11
3.918455e-11
3.938575e-11
1.702733e-12
1.294713e-11
3.743167e-11
3.880171e-11
3.900215e-11
3.922475e-11
3.94598e-11
1.062059e-12
1.28886e-11
3.744561e-11
3.883148e-11
3.905005e-11
3.928818e-11
3.953778e-11
7.002215e-13
1.297024e-11
3.748096e-11
3.884728e-11
3.90536e-11
3.92861e-11
3.954307e-11
1.491485e-12
1.315348e-11
3.752522e-11
3.884456e-11
3.903251e-11
3.924913e-11
3.948144e-11
2.998674e-12
1.337957e-11
3.75901e-11
3.886963e-11
3.903801e-11
3.924139e-11
3.943232e-11
5.021831e-12
1.367778e-11
3.769267e-11
3.892332e-11
3.906754e-11
3.925854e-11
3.943087e-11
7.445105e-12
1.412564e-11
3.785736e-11
3.897147e-11
3.9098e-11
3.927732e-11
3.949773e-11
9.940339e-12
1.49959e-11
3.805026e-11
3.910997e-11
3.92188e-11
3.937019e-11
3.957357e-11
1.211749e-11
1.558296e-11
3.819284e-11
3.921667e-11
3.933133e-11
3.948394e-11
3.972561e-11
1.383894e-11
1.588497e-11
3.831883e-11
3.934579e-11
3.948504e-11
3.965061e-11
3.988752e-11
1.49902e-11
1.614297e-11
3.84478e-11
3.948813e-11
3.963339e-11
3.982176e-11
4.007446e-11
1.551704e-11
1.630896e-11
3.856695e-11
3.960763e-11
3.982138e-11
4.006747e-11
4.032437e-11
1.550196e-11
1.667125e-11
3.869668e-11
3.97343e-11
4.00175e-11
4.029413e-11
4.054536e-11
1.505843e-11
1.703475e-11
3.879187e-11
3.988148e-11
4.016025e-11
4.046699e-11
4.079038e-11
1.424432e-11
1.7268e-11
3.88782e-11
3.999491e-11
4.028015e-11
4.060865e-11
4.103981e-11
1.314152e-11
1.745308e-11
3.898352e-11
4.009392e-11
4.040449e-11
4.077572e-11
4.118173e-11
1.184896e-11
1.767689e-11
3.91048e-11
4.019367e-11
4.051761e-11
4.087804e-11
4.13056e-11
1.046816e-11
1.812769e-11
3.92134e-11
4.02709e-11
4.058234e-11
4.094053e-11
4.137736e-11
9.09599e-12
1.857687e-11
3.928149e-11
4.030999e-11
4.061876e-11
4.096718e-11
4.138368e-11
7.776349e-12
1.883236e-11
3.933974e-11
4.034756e-11
4.064923e-11
4.098043e-11
4.138184e-11
6.544418e-12
1.897868e-11
3.939425e-11
4.038515e-11
4.067914e-11
4.09975e-11
4.139228e-11
5.437859e-12
1.91867e-11
3.943861e-11
4.041768e-11
4.070945e-11
4.103107e-11
4.142484e-11
4.472474e-12
1.936665e-11
3.946284e-11
4.043629e-11
4.073132e-11
4.106724e-11
4.144492e-11
3.64797e-12
1.952177e-11
3.947767e-11
4.044298e-11
4.0748e-11
4.108455e-11
4.145638e-11
2.955169e-12
1.966356e-11
3.948954e-11
4.044902e-11
4.076157e-11
4.108939e-11
4.14623e-11
2.37961e-12
1.978066e-11
3.951802e-11
4.045346e-11
4.076307e-11
4.109193e-11
4.146651e-11
1.906872e-12
2.015335e-11
3.955774e-11
4.045885e-11
4.076426e-11
4.109438e-11
4.147054e-11
1.522836e-12
2.045025e-11
3.956328e-11
4.045882e-11
4.076518e-11
4.109684e-11
4.147477e-11
1.214505e-12
2.063078e-11
3.956448e-11
4.045879e-11
4.076631e-11
4.109921e-11
4.147861e-11
9.681025e-13
2.079993e-11
3.957409e-11
4.045917e-11
4.076752e-11
4.110155e-11
4.148331e-11
7.700265e-13
2.085835e-11
3.957749e-11
4.045942e-11
4.076873e-11
4.11041e-11
4.149256e-11
6.125372e-13
2.092541e-11
3.958162e-11
4.045978e-11
4.076986e-11
4.110642e-11
4.150094e-11
4.883323e-13
2.098333e-11
3.958513e-11
4.046015e-11
4.077092e-11
4.110844e-11
4.150427e-11
3.902084e-13
2.103942e-11
3.958853e-11
4.046054e-11
4.077195e-11
4.111079e-11
4.150711e-11
3.127882e-13
2.109278e-11
3.959168e-11
4.046087e-11
4.077317e-11
4.111678e-11
4.151321e-11
2.51767e-13
2.114353e-11
3.959464e-11
4.046124e-11
4.077429e-11
4.112182e-11
4.152082e-11
2.037166e-13
2.119187e-11
3.959745e-11
4.04616e-11
4.077509e-11
4.112339e-11
4.152282e-11
1.659291e-13
2.123784e-11
3.960003e-11
4.046189e-11
4.077616e-11
4.112474e-11
4.152439e-11
1.36156e-13
2.128167e-11
3.960254e-11
4.046243e-11
4.077996e-11
4.112853e-11
4.152617e-11
1.126522e-13
2.132326e-11
3.960488e-11
4.046288e-11
4.078307e-11
4.113329e-11
4.152791e-11
9.410488e-14
2.136292e-11
3.960702e-11
4.046307e-11
4.078365e-11
4.113431e-11
4.152912e-11
7.941362e-14
2.14004e-11
3.960893e-11
4.046325e-11
4.07841e-11
4.113502e-11
4.153027e-11
6.777941e-14
2.143593e-11
3.961058e-11
4.04635e-11
4.078458e-11
4.113572e-11
4.153141e-11
5.847272e-14
2.14695e-11
3.96128e-11
4.046583e-11
4.078667e-11
4.113652e-11
4.153251e-11
5.099234e-14
2.150091e-11
3.961461e-11
4.046758e-11
4.078935e-11
4.113739e-11
4.153352e-11
4.499929e-14
2.153014e-11
3.961554e-11
4.046748e-11
4.078962e-11
4.113797e-11
4.153454e-11
4.021005e-14
2.155674e-11
3.961615e-11
4.046724e-11
4.078974e-11
4.113852e-11
4.153554e-11
3.646375e-14
2.158062e-11
3.96164e-11
4.046694e-11
4.078989e-11
4.113916e-11
4.153663e-11
3.347174e-14
2.160113e-11
3.961619e-11
4.046665e-11
4.079015e-11
4.113995e-11
4.153792e-11
3.111119e-14
2.161733e-11
3.961541e-11
4.046645e-11
4.079062e-11
4.114102e-11
4.153947e-11
2.944629e-14
2.162723e-11
3.961377e-11
4.046652e-11
4.079151e-11
4.114261e-11
4.154154e-11
2.845653e-14
2.163637e-11
3.962126e-11
4.046836e-11
4.079334e-11
4.1145e-11
4.15445e-11
2.86185e-14
2.163393e-11
3.962684e-11
4.047174e-11
4.079669e-11
4.114868e-11
4.155439e-11
3.100405e-14
2.16116e-11
3.962596e-11
4.04763e-11
4.080183e-11
4.11592e-11
4.156593e-11
3.689553e-14
2.157033e-11
3.962858e-11
4.048459e-11
4.081476e-11
4.117205e-11
4.157842e-11
5.236447e-14
2.148248e-11
3.963744e-11
4.050378e-11
4.08316e-11
4.118654e-11
4.15918e-11
1.035292e-13
2.138931e-11
3.968001e-11
4.053e-11
4.085128e-11
4.120211e-11
4.160544e-11
5.381855e-14
2.194386e-11
3.973504e-11
4.056339e-11
4.087372e-11
4.121811e-11
4.161875e-11
4.209632e-11
4.270135e-11
4.351813e-11
4.431336e-11
4.575805e-11
5.034642e-11
8.082109e-10
4.208565e-11
4.268771e-11
4.349998e-11
4.429215e-11
4.572981e-11
4.883934e-11
4.709948e-10
4.207327e-11
4.267334e-11
4.348261e-11
4.456644e-11
4.570685e-11
4.879776e-11
4.675463e-10
4.206017e-11
4.265859e-11
4.346356e-11
4.424848e-11
4.567676e-11
4.87544e-11
4.650167e-10
4.204714e-11
4.264364e-11
4.344554e-11
4.422416e-11
4.564944e-11
4.870688e-11
4.531771e-10
4.203439e-11
4.262867e-11
4.342689e-11
4.420158e-11
4.562274e-11
4.865611e-11
4.342718e-10
4.202214e-11
4.261399e-11
4.340847e-11
4.417995e-11
4.561527e-11
4.860405e-11
4.136293e-10
4.201124e-11
4.259964e-11
4.339037e-11
4.415883e-11
4.560843e-11
4.854742e-11
3.870691e-10
4.20079e-11
4.258661e-11
4.337317e-11
4.413742e-11
4.558717e-11
4.849089e-11
3.617426e-10
4.200542e-11
4.258296e-11
4.335729e-11
4.411623e-11
4.556625e-11
4.842983e-11
3.320753e-10
4.200337e-11
4.258024e-11
4.335293e-11
4.40958e-11
4.554554e-11
4.836674e-11
3.012017e-10
4.200152e-11
4.257765e-11
4.334958e-11
4.409125e-11
4.552474e-11
4.829425e-11
2.667489e-10
4.199984e-11
4.257518e-11
4.334623e-11
4.408719e-11
4.552112e-11
4.821978e-11
2.347332e-10
4.19982e-11
4.257275e-11
4.334282e-11
4.408299e-11
4.551707e-11
4.819698e-11
2.052974e-10
4.199658e-11
4.257024e-11
4.333932e-11
4.407866e-11
4.551271e-11
4.810669e-11
1.901117e-10
4.19949e-11
4.256766e-11
4.333572e-11
4.407415e-11
4.550806e-11
4.80312e-11
1.508942e-10
4.19932e-11
4.256498e-11
4.333198e-11
4.406929e-11
4.550111e-11
4.797324e-11
1.327984e-10
4.199143e-11
4.256227e-11
4.3328e-11
4.406201e-11
4.543761e-11
4.791426e-11
1.146619e-10
4.198957e-11
4.255954e-11
4.332391e-11
4.405664e-11
4.542875e-11
4.78625e-11
9.992207e-11
4.198758e-11
4.255665e-11
4.33196e-11
4.405108e-11
4.542158e-11
4.781598e-11
1.113042e-10
4.19855e-11
4.255359e-11
4.331511e-11
4.404523e-11
4.541406e-11
4.783855e-11
5.81802e-10
4.198323e-11
4.255035e-11
4.331049e-11
4.403897e-11
4.540618e-11
4.780833e-11
1.350258e-10
4.198085e-11
4.254684e-11
4.330499e-11
4.403228e-11
4.539644e-11
4.821341e-11
6.073584e-10
4.197766e-11
4.254305e-11
4.330057e-11
4.430037e-11
4.533948e-11
4.816201e-11
5.172198e-10
4.197437e-11
4.253904e-11
4.329351e-11
4.402071e-11
4.530703e-11
4.823265e-11
5.407995e-10
4.197125e-11
4.253475e-11
4.328742e-11
4.400968e-11
4.529532e-11
4.834418e-11
6.60518e-10
4.196714e-11
4.25297e-11
4.328066e-11
4.400093e-11
4.528264e-11
4.82867e-11
6.162929e-10
4.195459e-11
4.252393e-11
4.327143e-11
4.39915e-11
4.526562e-11
4.796524e-11
5.722298e-10
4.194428e-11
4.236473e-11
4.306159e-11
4.398005e-11
4.524977e-11
4.783061e-11
5.244903e-10
4.193597e-11
4.235584e-11
4.305326e-11
4.397031e-11
4.523443e-11
4.769053e-11
4.037936e-10
4.192084e-11
4.233299e-11
4.30446e-11
4.395849e-11
4.521816e-11
4.784003e-11
4.154329e-10
4.191014e-11
4.23193e-11
4.303559e-11
4.394554e-11
4.520028e-11
4.776355e-11
3.821556e-10
4.190198e-11
4.227842e-11
4.302531e-11
4.393204e-11
4.518134e-11
4.760015e-11
3.064972e-10
4.18953e-11
4.226747e-11
4.299293e-11
4.391952e-11
4.516221e-11
4.740042e-11
2.148353e-10
4.188458e-11
4.225239e-11
4.295173e-11
4.390817e-11
4.514104e-11
4.708414e-11
1.717044e-10
4.18685e-11
4.223437e-11
4.29193e-11
4.389695e-11
4.512363e-11
4.712318e-11
2.244113e-10
4.186114e-11
4.222786e-11
4.293399e-11
4.388324e-11
4.513483e-11
4.694944e-11
1.86644e-10
4.187746e-11
4.225388e-11
4.298069e-11
4.386931e-11
4.518568e-11
4.714218e-11
2.678317e-10
4.19094e-11
4.230813e-11
4.30526e-11
4.393737e-11
4.526862e-11
4.706246e-11
7.20616e-11
4.192773e-11
4.23585e-11
4.313433e-11
4.406605e-11
4.514999e-11
4.688498e-11
9.853459e-11
4.186008e-11
4.235767e-11
4.312712e-11
4.40089e-11
4.499368e-11
4.650796e-11
7.263181e-11
4.169364e-11
4.221706e-11
4.292772e-11
4.384444e-11
4.486243e-11
4.609675e-11
7.364247e-11
4.150342e-11
4.203347e-11
4.277982e-11
4.367249e-11
4.465865e-11
4.582563e-11
7.431622e-11
4.129993e-11
4.185625e-11
4.263172e-11
4.350348e-11
4.437759e-11
4.574589e-11
6.843875e-11
4.105817e-11
4.159153e-11
4.233709e-11
4.330787e-11
4.409182e-11
4.557428e-11
6.079998e-11
4.075736e-11
4.13463e-11
4.214562e-11
4.301428e-11
4.38936e-11
4.529643e-11
1.325092e-10
4.052782e-11
4.109794e-11
4.193778e-11
4.283548e-11
4.354605e-11
4.521324e-11
1.1643e-10
4.03551e-11
4.088755e-11
4.182252e-11
4.25987e-11
4.34971e-11
4.4566e-11
7.717335e-11
4.01263e-11
4.068733e-11
4.160346e-11
4.24599e-11
4.335628e-11
4.477089e-11
8.595207e-11
3.995969e-11
4.051502e-11
4.148378e-11
4.230425e-11
4.324287e-11
4.419061e-11
5.606297e-11
3.982902e-11
4.031594e-11
4.12912e-11
4.21524e-11
4.3004e-11
4.394204e-11
5.206857e-11
3.981311e-11
4.028622e-11
4.122365e-11
4.199215e-11
4.276151e-11
5.052073e-11
1.141268e-09
3.981777e-11
4.025194e-11
4.116368e-11
4.184654e-11
4.258888e-11
4.78296e-11
9.349254e-10
3.982003e-11
4.025299e-11
4.114995e-11
4.18117e-11
4.236601e-11
5.876676e-11
7.125325e-10
3.989173e-11
4.030581e-11
4.123794e-11
4.175412e-11
4.222322e-11
4.226385e-11
5.378037e-11
3.997617e-11
4.039998e-11
4.125954e-11
4.179281e-11
4.206373e-11
4.206685e-11
3.998748e-11
4.045422e-11
4.135188e-11
4.189055e-11
4.221348e-11
4.225163e-11
3.993616e-11
4.041439e-11
4.127215e-11
4.179688e-11
4.209774e-11
4.212275e-11
3.988591e-11
4.036451e-11
4.123792e-11
4.174938e-11
4.223664e-11
4.355451e-11
3.844319e-10
3.98641e-11
4.02992e-11
4.128504e-11
4.18952e-11
4.246748e-11
5.731919e-11
8.814867e-10
3.992498e-11
4.03531e-11
4.130958e-11
4.206539e-11
4.26701e-11
4.658389e-11
1.148209e-09
3.997932e-11
4.037036e-11
4.121331e-11
4.204011e-11
4.272081e-11
4.351997e-11
5.37246e-11
4.014243e-11
4.055812e-11
4.147327e-11
4.216828e-11
4.283357e-11
4.380975e-11
4.946307e-11
4.034035e-11
4.075018e-11
4.158111e-11
4.22286e-11
4.31258e-11
4.404797e-11
5.515492e-11
4.058483e-11
4.093672e-11
4.179296e-11
4.256103e-11
4.329589e-11
4.412584e-11
5.547847e-11
4.078592e-11
4.121136e-11
4.202003e-11
4.277232e-11
4.348144e-11
4.436207e-11
8.036298e-11
4.100854e-11
4.138392e-11
4.221199e-11
4.299132e-11
4.368835e-11
4.471815e-11
5.481673e-11
4.128425e-11
4.167076e-11
4.24352e-11
4.316837e-11
4.393555e-11
4.517631e-11
7.175607e-11
4.152056e-11
4.189236e-11
4.263061e-11
4.342977e-11
4.416947e-11
4.547171e-11
4.925315e-11
4.174248e-11
4.212332e-11
4.283367e-11
4.361841e-11
4.449864e-11
4.621512e-11
3.474797e-10
4.188317e-11
4.232742e-11
4.297892e-11
4.380502e-11
4.474971e-11
4.589006e-11
6.158415e-11
4.195044e-11
4.24155e-11
4.31412e-11
4.402806e-11
4.496016e-11
4.61706e-11
9.69932e-11
4.194449e-11
4.242553e-11
4.31479e-11
4.413248e-11
4.51128e-11
4.661074e-11
6.578637e-11
4.190649e-11
4.234403e-11
4.30476e-11
4.397425e-11
4.521939e-11
4.694552e-11
7.259767e-11
4.187471e-11
4.227387e-11
4.296093e-11
4.383196e-11
4.517505e-11
4.707836e-11
2.63363e-10
4.187099e-11
4.223997e-11
4.291681e-11
4.380636e-11
4.510516e-11
4.683457e-11
2.191926e-10
4.188144e-11
4.224192e-11
4.29123e-11
4.385552e-11
4.510974e-11
4.690895e-11
1.072399e-10
4.189141e-11
4.225481e-11
4.293547e-11
4.389886e-11
4.512858e-11
4.710783e-11
1.978945e-10
4.189792e-11
4.226996e-11
4.296972e-11
4.391138e-11
4.514794e-11
4.717745e-11
2.176621e-10
4.1903e-11
4.22715e-11
4.301695e-11
4.392467e-11
4.516825e-11
4.742281e-11
2.758176e-10
4.191064e-11
4.230047e-11
4.303051e-11
4.393865e-11
4.518859e-11
4.769151e-11
3.743495e-10
4.192126e-11
4.232612e-11
4.304011e-11
4.395177e-11
4.520752e-11
4.774905e-11
4.053054e-10
4.193629e-11
4.235255e-11
4.304871e-11
4.396385e-11
4.522453e-11
4.777745e-11
5.23066e-10
4.19442e-11
4.235589e-11
4.305695e-11
4.397487e-11
4.524024e-11
4.766361e-11
3.960242e-10
4.195436e-11
4.252343e-11
4.327078e-11
4.398855e-11
4.525543e-11
4.782021e-11
5.323613e-10
4.196673e-11
4.252909e-11
4.327975e-11
4.399705e-11
4.527279e-11
4.811849e-11
5.827769e-10
4.19708e-11
4.253409e-11
4.328671e-11
4.4006e-11
4.528739e-11
4.827816e-11
6.281169e-10
4.197389e-11
4.25384e-11
4.329298e-11
4.401433e-11
4.529974e-11
4.834453e-11
6.74722e-10
4.197721e-11
4.254248e-11
4.329889e-11
4.402215e-11
4.531252e-11
4.773116e-11
1.407701e-10
4.19804e-11
4.254623e-11
4.330437e-11
4.402958e-11
4.537496e-11
4.773582e-11
1.319465e-10
4.198278e-11
4.254974e-11
4.330954e-11
4.403652e-11
4.540072e-11
4.77559e-11
1.158086e-10
4.198507e-11
4.255308e-11
4.33144e-11
4.404294e-11
4.54089e-11
4.773232e-11
9.138629e-11
4.198723e-11
4.255618e-11
4.331898e-11
4.404904e-11
4.541678e-11
4.777101e-11
8.484087e-11
4.198928e-11
4.25591e-11
4.332335e-11
4.405475e-11
4.542413e-11
4.782116e-11
9.922547e-11
4.199114e-11
4.256187e-11
4.332744e-11
4.406019e-11
4.543116e-11
4.787586e-11
1.150196e-10
4.199294e-11
4.256461e-11
4.333145e-11
4.406681e-11
4.546456e-11
4.793204e-11
1.325102e-10
4.199464e-11
4.256729e-11
4.333522e-11
4.407271e-11
4.550476e-11
4.799123e-11
1.521237e-10
4.199629e-11
4.256984e-11
4.33388e-11
4.407742e-11
4.550953e-11
4.805228e-11
1.770719e-10
4.199785e-11
4.257229e-11
4.334225e-11
4.408199e-11
4.551409e-11
4.813715e-11
1.993308e-10
4.19994e-11
4.257464e-11
4.33456e-11
4.408634e-11
4.551832e-11
4.818713e-11
2.194892e-10
4.200094e-11
4.257697e-11
4.334884e-11
4.40906e-11
4.552238e-11
4.823687e-11
2.476194e-10
4.200257e-11
4.257937e-11
4.335205e-11
4.409478e-11
4.553446e-11
4.830747e-11
2.76572e-10
4.200432e-11
4.258185e-11
4.335623e-11
4.410723e-11
4.555502e-11
4.837759e-11
3.072886e-10
4.200638e-11
4.258518e-11
4.337188e-11
4.412835e-11
4.557582e-11
4.844166e-11
3.371515e-10
4.20092e-11
4.25978e-11
4.338876e-11
4.41497e-11
4.559677e-11
4.850028e-11
3.629954e-10
4.201946e-11
4.26117e-11
4.340656e-11
4.417137e-11
4.561702e-11
4.855876e-11
3.874115e-10
4.203103e-11
4.262598e-11
4.342472e-11
4.419205e-11
4.560946e-11
4.861545e-11
4.105179e-10
4.204321e-11
4.264068e-11
4.344317e-11
4.421418e-11
4.563525e-11
4.866825e-11
4.293232e-10
4.205598e-11
4.265571e-11
4.346184e-11
4.423637e-11
4.566206e-11
4.871811e-11
4.421095e-10
4.206932e-11
4.267092e-11
4.348059e-11
4.425864e-11
4.568905e-11
4.876481e-11
4.474794e-10
4.208265e-11
4.268593e-11
4.349923e-11
4.428064e-11
4.571613e-11
4.880678e-11
4.455781e-10
4.209564e-11
4.270098e-11
4.35178e-11
4.430243e-11
4.574333e-11
4.892298e-11
3.427858e-10
1.965839e-07
2.669781e-07
2.680018e-07
2.680083e-07
2.680084e-07
2.680084e-07
2.680084e-07
2.680084e-07
2.680084e-07
2.680084e-07
2.680084e-07
2.680084e-07
2.680084e-07
2.680084e-07
2.680084e-07
2.680084e-07
2.680084e-07
2.680084e-07
1.834787e-07
2.675216e-07
2.68017e-07
2.680088e-07
2.680086e-07
2.680086e-07
2.680086e-07
2.680086e-07
2.680086e-07
2.680086e-07
2.680086e-07
2.680086e-07
2.680086e-07
2.680086e-07
2.680086e-07
2.680086e-07
2.680086e-07
2.680086e-07
1.802191e-07
2.669553e-07
2.680014e-07
2.680084e-07
2.680085e-07
2.680085e-07
2.680085e-07
2.680085e-07
2.680085e-07
2.680085e-07
2.680085e-07
2.680085e-07
2.680085e-07
2.680085e-07
2.680085e-07
2.680085e-07
2.680085e-07
2.680085e-07
1.759354e-07
2.666456e-07
2.680013e-07
2.680084e-07
2.680084e-07
2.680084e-07
2.680084e-07
2.680084e-07
2.680084e-07
2.680084e-07
2.680084e-07
2.680084e-07
2.680084e-07
2.680084e-07
2.680084e-07
2.680084e-07
2.680084e-07
2.680084e-07
1.715738e-07
2.667682e-07
2.680054e-07
2.680084e-07
2.680084e-07
2.680084e-07
2.680084e-07
2.680084e-07
2.680084e-07
2.680084e-07
2.680084e-07
2.680084e-07
2.680084e-07
2.680084e-07
2.680084e-07
2.680084e-07
2.680084e-07
2.680084e-07
1.670375e-07
2.667869e-07
2.680067e-07
2.680084e-07
2.680084e-07
2.680084e-07
2.680084e-07
2.680084e-07
2.680084e-07
2.680084e-07
2.680084e-07
2.680084e-07
2.680084e-07
2.680084e-07
2.680084e-07
2.680084e-07
2.680084e-07
2.680084e-07
1.623523e-07
2.667568e-07
2.680069e-07
2.680084e-07
2.680084e-07
2.680085e-07
2.680085e-07
2.680085e-07
2.680085e-07
2.680085e-07
2.680085e-07
2.680085e-07
2.680085e-07
2.680085e-07
2.680085e-07
2.680085e-07
2.680085e-07
2.680085e-07
1.574984e-07
2.667092e-07
2.680069e-07
2.680084e-07
2.680084e-07
2.680085e-07
2.680085e-07
2.680085e-07
2.680085e-07
2.680085e-07
2.680085e-07
2.680085e-07
2.680085e-07
2.680085e-07
2.680085e-07
2.680085e-07
2.680085e-07
2.680085e-07
1.52902e-07
2.666435e-07
2.680068e-07
2.680084e-07
2.680084e-07
2.680085e-07
2.680085e-07
2.680085e-07
2.680085e-07
2.680085e-07
2.680085e-07
2.680085e-07
2.680085e-07
2.680085e-07
2.680085e-07
2.680085e-07
2.680085e-07
2.680085e-07
1.48039e-07
2.66593e-07
2.680068e-07
2.680084e-07
2.680084e-07
2.680084e-07
2.680085e-07
2.680085e-07
2.680085e-07
2.680085e-07
2.680085e-07
2.680085e-07
2.680085e-07
2.680085e-07
2.680084e-07
2.680085e-07
2.680085e-07
2.680085e-07
1.430383e-07
2.66553e-07
2.680064e-07
2.680084e-07
2.680084e-07
2.680084e-07
2.680085e-07
2.680085e-07
2.680085e-07
2.680085e-07
2.680085e-07
2.680085e-07
2.680085e-07
2.680085e-07
2.680084e-07
2.680084e-07
2.680085e-07
2.680085e-07
1.384085e-07
2.663867e-07
2.680041e-07
2.680083e-07
2.680084e-07
2.680084e-07
2.680085e-07
2.680085e-07
2.680085e-07
2.680085e-07
2.680085e-07
2.680085e-07
2.680085e-07
2.680085e-07
2.680084e-07
2.680084e-07
2.680085e-07
2.680085e-07
1.340625e-07
2.660016e-07
2.679972e-07
2.680077e-07
2.680084e-07
2.680084e-07
2.680085e-07
2.680085e-07
2.680085e-07
2.680085e-07
2.680085e-07
2.680085e-07
2.680085e-07
2.680085e-07
2.680084e-07
2.680084e-07
2.680085e-07
2.680085e-07
1.252854e-07
2.659764e-07
2.679917e-07
2.680055e-07
2.680082e-07
2.680084e-07
2.680084e-07
2.680085e-07
2.680085e-07
2.680085e-07
2.680085e-07
2.680085e-07
2.680085e-07
2.680085e-07
2.680084e-07
2.680084e-07
2.680085e-07
2.680085e-07
1.080293e-07
2.658833e-07
2.68005e-07
2.680033e-07
2.680076e-07
2.680084e-07
2.680084e-07
2.680085e-07
2.680085e-07
2.680085e-07
2.680085e-07
2.680085e-07
2.680085e-07
2.680085e-07
2.680084e-07
2.680084e-07
2.680085e-07
2.680085e-07
1.014086e-07
2.653149e-07
2.680074e-07
2.680076e-07
2.680069e-07
2.680083e-07
2.680084e-07
2.680085e-07
2.680085e-07
2.680085e-07
2.680085e-07
2.680085e-07
2.680085e-07
2.680085e-07
2.680084e-07
2.680084e-07
2.680085e-07
2.680085e-07
9.494104e-08
2.654043e-07
2.680044e-07
2.680093e-07
2.680081e-07
2.680082e-07
2.680084e-07
2.680084e-07
2.680084e-07
2.680085e-07
2.680085e-07
2.680085e-07
2.680085e-07
2.680085e-07
2.680084e-07
2.680084e-07
2.680085e-07
2.680085e-07
8.869396e-08
2.651273e-07
2.68002e-07
2.680082e-07
2.680088e-07
2.680083e-07
2.680084e-07
2.680084e-07
2.680084e-07
2.680085e-07
2.680085e-07
2.680085e-07
2.680085e-07
2.680085e-07
2.680084e-07
2.680085e-07
2.680085e-07
2.680085e-07
8.268252e-08
2.650067e-07
2.680092e-07
2.680077e-07
2.680082e-07
2.680085e-07
2.680084e-07
2.680084e-07
2.680084e-07
2.680085e-07
2.680085e-07
2.680085e-07
2.680085e-07
2.680084e-07
2.680085e-07
2.680085e-07
2.680085e-07
2.680085e-07
7.726606e-08
2.64956e-07
2.680093e-07
2.6801e-07
2.680083e-07
2.680084e-07
2.680085e-07
2.680084e-07
2.680084e-07
2.680085e-07
2.680085e-07
2.680085e-07
2.680085e-07
2.680084e-07
2.680085e-07
2.680085e-07
2.680085e-07
2.680085e-07
7.309242e-08
2.648825e-07
2.680065e-07
2.680098e-07
2.680088e-07
2.680084e-07
2.680084e-07
2.680085e-07
2.680084e-07
2.680085e-07
2.680085e-07
2.680085e-07
2.680085e-07
2.680084e-07
2.680084e-07
2.680085e-07
2.680085e-07
2.680085e-07
6.771948e-08
2.647529e-07
2.680055e-07
2.680088e-07
2.680087e-07
2.680085e-07
2.680085e-07
2.680084e-07
2.680084e-07
2.680084e-07
2.680085e-07
2.680085e-07
2.680085e-07
2.680084e-07
2.680084e-07
2.680085e-07
2.680085e-07
2.680085e-07
6.422776e-08
2.646433e-07
2.680054e-07
2.680085e-07
2.680084e-07
2.680085e-07
2.680084e-07
2.680084e-07
2.680084e-07
2.680085e-07
2.680085e-07
2.680085e-07
2.680085e-07
2.680084e-07
2.680084e-07
2.680085e-07
2.680085e-07
2.680085e-07
5.992407e-08
2.645333e-07
2.680056e-07
2.680083e-07
2.680081e-07
2.680085e-07
2.680084e-07
2.680084e-07
2.680084e-07
2.680085e-07
2.680085e-07
2.680085e-07
2.680085e-07
2.680084e-07
2.680082e-07
2.680085e-07
2.680085e-07
2.680085e-07
5.590941e-08
2.644201e-07
2.680058e-07
2.680079e-07
2.680076e-07
2.680084e-07
2.680084e-07
2.680084e-07
2.680084e-07
2.680084e-07
2.680085e-07
2.680085e-07
2.680085e-07
2.680084e-07
2.680083e-07
2.680085e-07
2.680085e-07
2.680084e-07
5.208035e-08
2.643288e-07
2.680059e-07
2.680038e-07
2.680038e-07
2.680085e-07
2.680084e-07
2.680083e-07
2.680083e-07
2.680085e-07
2.680085e-07
2.680085e-07
2.680084e-07
2.680084e-07
2.680085e-07
2.680085e-07
2.680085e-07
2.680084e-07
4.802101e-08
2.642984e-07
2.680057e-07
2.679736e-07
2.679787e-07
2.680088e-07
2.680083e-07
2.680076e-07
2.68008e-07
2.680085e-07
2.680085e-07
2.680085e-07
2.680084e-07
2.680084e-07
2.680084e-07
2.680085e-07
2.680084e-07
2.680084e-07
4.401212e-08
2.643902e-07
2.680034e-07
2.678395e-07
2.678739e-07
2.680107e-07
2.680081e-07
2.680037e-07
2.680063e-07
2.680086e-07
2.680085e-07
2.680085e-07
2.680084e-07
2.680084e-07
2.680083e-07
2.680084e-07
2.680084e-07
2.680083e-07
4.017676e-08
2.64702e-07
2.679951e-07
2.675944e-07
2.677236e-07
2.680132e-07
2.680075e-07
2.679933e-07
2.680005e-07
2.680089e-07
2.680085e-07
2.680084e-07
2.680084e-07
2.680084e-07
2.680084e-07
2.680084e-07
2.680084e-07
2.680083e-07
3.6139e-08
2.652974e-07
2.679628e-07
2.676776e-07
2.678764e-07
2.680005e-07
2.680069e-07
2.679938e-07
2.679976e-07
2.680087e-07
2.680085e-07
2.680084e-07
2.680083e-07
2.680082e-07
2.680084e-07
2.680084e-07
2.680083e-07
2.680084e-07
3.286339e-08
2.657227e-07
2.67835e-07
2.675359e-07
2.675911e-07
2.679493e-07
2.680053e-07
2.680141e-07
2.680126e-07
2.680077e-07
2.680084e-07
2.680084e-07
2.68008e-07
2.68008e-07
2.680084e-07
2.680084e-07
2.680081e-07
2.680082e-07
2.939974e-08
2.64291e-07
2.676798e-07
2.668514e-07
2.670704e-07
2.678071e-07
2.679975e-07
2.67997e-07
2.680024e-07
2.68007e-07
2.680084e-07
2.680085e-07
2.68008e-07
2.680083e-07
2.680085e-07
2.680082e-07
2.680078e-07
2.680082e-07
2.599877e-08
2.619465e-07
2.677557e-07
2.673896e-07
2.672163e-07
2.67725e-07
2.679849e-07
2.680028e-07
2.680029e-07
2.680079e-07
2.680098e-07
2.68009e-07
2.68008e-07
2.680089e-07
2.680084e-07
2.680079e-07
2.680075e-07
2.680085e-07
1.808679e-08
2.639749e-07
2.676437e-07
2.682111e-07
2.679259e-07
2.681107e-07
2.680145e-07
2.680259e-07
2.680219e-07
2.680305e-07
2.680233e-07
2.680162e-07
2.680109e-07
2.680106e-07
2.680087e-07
2.680074e-07
2.680069e-07
2.680081e-07
1.535665e-08
2.651271e-07
2.669261e-07
2.672106e-07
2.681444e-07
2.681661e-07
2.682016e-07
2.681813e-07
2.681659e-07
2.681384e-07
2.681017e-07
2.680647e-07
2.680361e-07
2.680233e-07
2.680127e-07
2.680084e-07
2.680077e-07
2.680086e-07
9.17908e-09
2.677306e-07
2.65997e-07
2.674504e-07
2.682579e-07
2.685928e-07
2.686231e-07
2.685888e-07
2.685368e-07
2.684831e-07
2.683795e-07
2.68263e-07
2.681657e-07
2.680984e-07
2.68043e-07
2.680221e-07
2.680127e-07
2.680089e-07
1.953311e-09
2.707224e-07
2.667095e-07
2.684036e-07
2.689995e-07
2.690139e-07
2.690818e-07
2.690795e-07
2.6903e-07
2.689778e-07
2.68859e-07
2.686966e-07
2.685383e-07
2.683495e-07
2.681818e-07
2.680939e-07
2.680369e-07
2.680152e-07
9.900238e-09
2.539144e-07
2.663668e-07
2.691176e-07
2.695088e-07
2.693535e-07
2.693752e-07
2.693565e-07
2.692827e-07
2.692511e-07
2.691488e-07
2.690596e-07
2.68963e-07
2.687664e-07
2.685433e-07
2.683228e-07
2.681484e-07
2.68054e-07
5.657199e-09
2.081602e-07
2.644676e-07
2.695324e-07
2.695929e-07
2.695396e-07