/*--------------------------------*- C++ -*----------------------------------*\
| =========                 |                                                 |
| \\      /  F ield         | OpenFOAM: The Open Source CFD Toolbox           |
|  \\    /   O peration     | Version:  2206                                  |
|   \\  /    A nd           | Website:  www.openfoam.com                      |
|    \\/     M anipulation  |                                                 |
\*---------------------------------------------------------------------------*/
FoamFile
{
    version     2.0;
    format      ascii;
    arch        "LSB;label=32;scalar=64";
    class       volScalarField;
    location    "2.6";
    object      muEff;
}
// * * * * * * * * * * * * * * * * * * * * * * * * * * * * * * * * * * * * * //

dimensions      [1 -1 -1 0 0 0 0];

internalField   nonuniform List<scalar> 
13078
(
0.0368053
0.0368053
0.0368053
0.0368053
0.0368053
0.0368053
0.0368053
0.0368053
0.0368053
0.0368053
0.0368053
0.0368053
0.0368053
0.0368053
0.0368053
0.0368053
0.0368053
0.0368053
0.0368053
0.0368053
0.0368053
0.0368053
0.0368053
0.0368053
0.0368053
0.0368053
0.0368053
0.0368053
0.0368053
0.0368053
0.0368053
0.0368053
0.0368053
0.0368053
0.0368053
0.0368053
0.0368053
0.0368053
0.0368053
0.0368053
0.0368053
0.0368053
0.0368053
0.0368053
0.0368053
0.0368053
0.0368053
0.0368053
0.0368053
0.0368053
0.0368053
0.0368053
0.0368053
0.0368053
0.0368053
0.0368053
0.0368053
0.0368053
0.0368053
0.0368053
0.0368053
0.0368053
0.0368053
0.0368053
0.0368053
0.0368053
0.0368053
0.0368053
0.0368053
0.0368053
0.0368053
0.0368053
0.0368053
0.0368053
0.0368053
0.0368053
0.0368053
0.0368053
0.0368053
0.0368053
0.0368053
0.0368053
0.0368053
0.0368053
0.0368053
0.0368053
0.0368053
0.0368053
0.0368053
0.0368053
0.0368053
0.0368053
0.0368053
0.0368053
0.0368053
0.0368053
0.0368053
0.0368053
0.0368053
0.0368053
0.0368053
0.0368053
0.0368053
0.0368053
0.0368053
0.0368053
0.0368053
0.0368053
0.0368053
0.0368053
0.0368053
0.0368053
0.0368053
0.0368053
0.0368053
0.0368053
0.0368053
0.0368053
0.0368053
0.0368053
0.0368053
0.0368053
0.0368053
0.0368053
0.0368053
0.0368053
0.0368053
0.0368053
0.0368053
0.0368053
0.0368053
0.0368053
0.0368053
0.0368053
0.0368053
0.0368053
0.0368053
0.0368053
0.0368053
0.0368053
0.0368053
0.0368053
0.0368053
0.0368053
0.0368053
0.0368053
0.0368053
0.0368053
0.0368053
0.0368053
0.0368053
0.0368053
0.0368053
0.0368053
0.0368053
0.0368053
0.0368053
0.0368053
0.0368053
0.0368053
0.0368053
0.0368053
0.0368053
0.0368053
0.0368053
0.0368053
0.0368053
0.0368053
0.0368053
0.0368053
0.0368053
0.0368053
0.0368053
0.0368053
0.0368053
0.0368053
0.0368053
0.0368053
0.0368053
0.0368053
0.0368053
0.0368053
0.0368053
0.0368053
0.0368053
0.0368053
0.0368053
0.0368053
0.0368053
0.0368053
0.0368053
0.0368053
0.0368053
0.0368053
0.0368053
0.0368053
0.0368053
0.0368053
0.0368053
0.0368053
0.0368053
0.0368053
0.0368053
0.0368053
0.0368053
0.0368053
0.0368053
0.0368053
0.0368053
0.0368053
0.0368053
0.0368053
0.0368053
0.0368053
0.0368053
0.0368053
0.0368053
0.0368053
0.0368053
0.0368053
0.0368053
0.0368053
0.0368053
0.0368053
0.0368053
0.0368053
0.0368053
0.0368053
0.0368053
0.0368053
0.0368053
0.0368053
0.0368053
0.0368053
0.0368053
0.0368053
0.0368053
0.0368053
0.0368053
0.0368053
0.0368053
0.0368053
0.0368053
0.0368053
0.0368053
0.0368053
0.0368053
0.0368053
0.0368053
0.0368053
0.0368053
0.0368053
0.0368053
0.0368053
0.0368053
0.0368053
0.0368053
0.0368053
0.0368053
0.0368053
0.0368053
0.0368053
0.0368053
0.0368053
0.0368053
0.0368053
0.0368053
0.0368053
0.0368053
0.0368053
0.0368053
0.0368053
0.0368053
0.0368053
0.0368053
0.0368053
0.0368053
0.0368053
0.0368053
0.0368053
0.0368053
0.0368053
0.0368053
0.0368053
0.0368053
0.0368053
0.0368053
0.0368053
0.0368053
0.0368053
0.0368053
0.0368053
0.0368053
0.0368053
0.0368053
0.0368053
0.0368053
0.0368053
0.0368053
0.0368053
0.0368053
0.0368053
0.0368053
0.0368053
0.0368053
0.0368053
0.0368053
0.0368053
0.0368053
0.0368053
0.0368053
0.0368053
0.0368053
0.0368053
0.0368053
0.0368053
0.0368053
0.0368053
0.0368053
0.0368053
0.0368053
0.0368053
0.0368053
0.0368053
0.0368053
0.0368053
0.0368053
0.0368053
0.0368053
0.0368053
0.0368053
0.0368053
0.0368053
0.0368053
0.0368053
0.0368053
0.0368053
0.0368053
0.0368053
0.0368053
0.0368053
0.0368053
0.0368053
0.0368053
0.0368053
0.0368053
0.0368053
0.0368053
0.0368053
0.0368053
0.0368053
0.0368053
0.0368053
0.0368053
0.0368053
0.0368053
0.0368053
0.0368053
0.0368053
0.0368053
0.0368053
0.0368053
0.0368053
0.0368053
0.0368053
0.0368053
0.0368053
0.0368053
0.0368053
0.0368053
0.0368053
0.0368053
0.0368053
0.0368053
0.0368053
0.0368053
0.0368053
0.0368053
0.0368053
0.0368053
0.0368053
0.0368053
0.0368053
0.0368053
0.0368053
0.0368053
0.0368053
0.0368053
0.0368053
0.0368053
0.0368053
0.0368053
0.0368053
0.0368053
0.0368053
0.0368053
0.0368053
0.0368053
0.0368053
0.0368053
0.0368053
0.0368053
0.0368053
0.0368053
0.0368053
0.0368053
0.0368053
0.0368053
0.0368053
0.0368053
0.0368053
0.0368053
0.0368053
0.0368053
0.0368053
0.0368053
0.0368053
0.0368053
0.0368053
0.0368053
0.0368053
0.0368053
0.0368053
0.0368053
0.0368053
0.0368053
0.0368053
0.0368053
0.0368053
0.0368053
0.0368053
0.0368053
0.0368053
0.0368053
0.0368053
0.0368053
0.0368053
0.0368053
0.0368053
0.0368053
0.0368053
0.0368053
0.0368053
0.0368053
0.0368053
0.0368053
0.0368053
0.0368053
0.0368053
0.0368053
0.0368053
0.0368053
0.0368053
0.0368053
0.0368053
0.0368053
0.0368053
0.0368053
0.0368053
0.0368053
0.0368053
0.0368053
0.0368053
0.0368053
0.0368053
0.0368053
0.0368053
0.0368053
0.0368053
0.0368053
0.0368053
0.0368053
0.0368053
0.0368053
0.0368053
0.0368053
0.0368053
0.0368053
0.0368053
0.0368053
0.0368053
0.0368053
0.0368053
0.0368053
0.0368053
0.0368053
0.0368053
0.0368053
0.0368053
0.0368053
0.0368053
0.0368053
0.0368053
0.0368053
0.0368053
0.0368053
0.0368053
0.0368053
0.0368053
0.0368053
0.0368053
0.0368053
0.0368053
0.0368053
0.0368053
0.0368053
0.0368053
0.0368053
0.0368053
0.0368053
0.0368053
0.0368053
0.0368053
0.0368053
0.0368053
0.0368053
0.0368053
0.0368053
0.0368053
0.0368053
0.0368053
0.0368053
0.0368053
0.0368053
0.0368053
0.0368053
0.0368053
0.0368053
0.0368053
0.0368053
0.0368053
0.0368053
0.0368053
0.0368053
0.0368053
0.0368053
0.0368053
0.0368053
0.0368053
0.0368053
0.0368053
0.0368053
0.0368053
0.0368053
0.0368053
0.0368053
0.0368053
0.0368053
0.0368053
0.0368053
0.0368053
0.0368053
0.0368053
0.0368053
0.0368053
0.0368053
0.0368053
0.0368053
0.0368053
0.0368053
0.0368053
0.0368053
0.0368053
0.0368053
0.0368053
0.0368053
0.0368053
0.0368053
0.0368053
0.0368053
0.0368053
0.0368053
0.0368053
0.0368053
0.0368053
0.0368053
0.0368053
0.0368053
0.0368053
0.0368053
0.0368053
0.0368053
0.0368053
0.0368053
0.0368053
0.0368053
0.0368053
0.0368053
0.0368053
0.0368053
0.0368053
0.0368053
0.0368053
0.0368053
0.0368053
0.0368053
0.0368053
0.0368053
0.0368053
0.0368053
0.0368053
0.0368053
0.0368053
0.0368053
0.0368053
0.0368053
0.0368053
0.0368053
0.0368053
0.0368053
0.0368053
0.0368053
0.0368053
0.0368053
0.0368053
0.0368053
0.0368053
0.0368053
0.0368053
0.0368053
0.0368053
0.0368053
0.0368053
0.0368053
0.0368053
0.0368053
0.0368053
0.0368053
0.0368053
0.0368053
0.0368053
0.0368053
0.0368053
0.0368053
0.0368053
0.0368053
0.0368053
0.0368053
0.0368053
0.0368053
0.0368053
0.0368053
0.0368053
0.0368053
0.0368053
0.0368053
0.0368053
0.0368053
0.0368053
0.0368053
0.0368053
0.0368053
0.0368053
0.0368053
0.0368053
0.0368053
0.0368053
0.0368053
0.0368053
0.0368053
0.0368053
0.0368053
0.0368053
0.0368053
0.0368053
0.0368053
0.0368053
0.0368053
0.0368053
0.0368053
0.0368053
0.0368053
0.0368053
0.0368053
0.0368053
0.0368053
0.0368053
0.0368053
0.0368053
0.0368053
0.0368053
0.0368053
0.0368053
0.0368053
0.0368053
0.0368053
0.0368053
0.0368053
0.0368053
0.0368053
0.0368053
0.0368053
0.0368053
0.0368053
0.0368053
0.0368053
0.0368053
0.0368053
0.0368053
0.0368053
0.0368053
0.0368053
0.0368053
0.0368053
0.0368053
0.0368053
0.0368053
0.0368053
0.0368053
0.0368053
0.0368053
0.0368053
0.0368053
0.0368053
0.0368053
0.0368053
0.0368053
0.0368053
0.0368053
0.0368053
0.0368053
0.0368053
0.0368053
0.0368053
0.0368053
0.0368053
0.0368053
0.0368053
0.0368053
0.0368053
0.0368053
0.0368053
0.0368053
0.0368053
0.0368053
0.0368053
0.0368053
0.0368053
0.0368053
0.0368053
0.0368053
0.0368053
0.0368053
0.0368053
0.0368053
0.0368053
0.0368053
0.0368053
0.0368053
0.0368053
0.0368053
0.0368053
0.0368053
0.0368053
0.0368053
0.0368053
0.0368053
0.0368053
0.0368053
0.0368053
0.0368053
0.0368053
0.0368053
0.0368053
0.0368053
0.0368053
0.0368053
0.0368053
0.0368053
0.0368053
0.0368053
0.0368053
0.0368053
0.0368053
0.0368053
0.0368053
0.0368053
0.0368053
0.0368053
0.0368053
0.0368053
0.0368053
0.0368053
0.0368053
0.0368053
0.0368053
0.0368053
0.0368053
0.0368053
0.0368053
0.0368053
0.0368053
0.0368053
0.0368053
0.0368053
0.0368053
0.0368053
0.0368053
0.0368053
0.0368053
0.0368053
0.0368053
0.0368053
0.0368053
0.0368053
0.0368053
0.0368053
0.0368053
0.0368053
0.0368053
0.0368053
0.0368053
0.0368053
0.0368053
0.0368053
0.0368053
0.0368053
0.0368053
0.0368053
0.0368053
0.0368053
0.0368053
0.0368053
0.0368053
0.0368053
0.0368053
0.0368053
0.0368053
0.0368053
0.0368053
0.0368053
0.0368053
0.0368053
0.0368053
0.0368053
0.0368053
0.0368053
0.0368053
0.0368053
0.0368053
0.0368053
0.0368053
0.0368053
0.0368053
0.0368053
0.0368053
0.0368053
0.0368053
0.0368053
0.0368053
0.0368053
0.0368053
0.0368053
0.0368053
0.0368053
0.0368053
0.0368053
0.0368053
0.0368053
0.0368053
0.0368053
0.0368053
0.0368053
0.0368053
0.0368053
0.0368053
0.0368053
0.0368053
0.0368053
0.0368053
0.0368053
0.0368053
0.0368053
0.0368053
0.0368053
0.0368053
0.0368053
0.0368053
0.0368053
0.0368053
0.0368053
0.0368053
0.0368053
0.0368053
0.0368053
0.0368053
0.0368053
0.0368053
0.0368053
0.0368053
0.0368053
0.0368053
0.0368053
0.0368053
0.0368053
0.0368053
0.0368053
0.0368053
0.0368053
0.0368053
0.0368053
0.0368053
0.0368053
0.0368053
0.0368053
0.0368053
0.0368053
0.0368053
0.0368053
0.0368053
0.0368053
0.0368053
0.0368053
0.0368053
0.0368053
0.0368053
0.0368053
0.0368053
0.0368053
0.0368053
0.0368053
0.0368053
0.0368053
0.0368053
0.0368053
0.0368053
0.0368053
0.0368053
0.0368053
0.0368053
0.0368053
0.0368053
0.0368053
0.0368053
0.0368053
0.0368053
0.0368053
0.0368053
0.0368053
0.0368053
0.0368053
0.0368053
0.0368053
0.0368053
0.0368053
0.0368053
0.0368053
0.0368053
0.0368053
0.0368053
0.0368053
0.0368053
0.0368053
0.0368053
0.0368053
0.0368053
0.0368053
0.0368053
0.0368053
0.0368053
0.0368053
0.0368053
0.0368053
0.0368053
0.0368053
0.0368053
0.0368053
0.0368053
0.0368053
0.0368053
0.0368053
0.0368053
0.0368053
0.0368053
0.0368053
0.0368053
0.0368053
0.0368053
0.0368053
0.0368053
0.0368053
0.0368053
0.0368053
0.0368053
0.0368053
0.0368053
0.0368053
0.0368053
0.0368053
0.0368053
0.0368053
0.0368053
0.0368053
0.0368053
0.0368053
0.0368053
0.0368053
0.0368053
0.0368053
0.0368053
0.0368053
0.0368053
0.0368053
0.0368053
0.0368053
0.0368053
0.0368053
0.0368053
0.0368053
0.0368053
0.0368053
0.0368053
0.0368053
0.0368053
0.0368053
0.0368053
0.0368053
0.0368053
0.0368053
0.0368053
0.0368053
0.0368053
0.0368053
0.0368053
0.0368053
0.0368053
0.0368053
0.0368053
0.0368053
0.0368053
0.0368053
0.0368053
0.0368053
0.0368053
0.0368053
0.0368053
0.0368053
0.0368053
0.0368053
0.0368053
0.0368053
0.0368053
0.0368053
0.0368053
0.0368053
0.0368053
0.0368053
0.0368053
0.0368053
0.0368053
0.0368053
0.0368053
0.0368053
0.0368053
0.0368053
0.0368053
0.0368053
0.0368053
0.0368053
0.0368053
0.0368053
0.0368053
0.0368053
0.0368053
0.0368053
0.0368053
0.0368053
0.0368053
0.0368053
0.0368053
0.0368053
0.0368053
0.0368053
0.0368053
0.0368053
0.0368053
0.0368053
0.0368053
0.0368053
0.0368053
0.0368053
0.0368053
0.0368053
0.0368053
0.0368053
0.0368053
0.0368053
0.0368053
0.0368053
0.0368053
0.0368053
0.0368053
0.0368053
0.0368053
0.0368053
0.0368053
0.0368053
0.0368053
0.0368053
0.0368053
0.0368053
0.0368053
0.0368053
0.0368053
0.0368053
0.0368053
0.0368053
0.0368053
0.0368053
0.0368053
0.0368053
0.0368053
0.0368053
0.0368053
0.0368053
0.0368053
0.0368053
0.0368053
0.0368053
0.0368053
0.0368053
0.0368053
0.0368053
0.0368053
0.0368053
0.0368053
0.0368053
0.0368053
0.0368053
0.0368053
0.0368053
0.0368053
0.0368053
0.0368053
0.0368053
0.0368053
0.0368053
0.0368053
0.0368053
0.0368053
0.0368053
0.0368053
0.0368053
0.0368053
0.0368053
0.0368053
0.0368053
0.0368053
0.0368053
0.0368053
0.0368053
0.0368053
0.0368053
0.0368053
0.0368053
0.0368053
0.0368053
0.0368053
0.0368053
0.0368053
0.0368053
0.0368053
0.0368053
0.0368053
0.0368053
0.0368053
0.0368053
0.0368053
0.0368053
0.0368053
0.0368053
0.0368053
0.0368053
0.0368053
0.0368053
0.0368053
0.0368053
0.0368053
0.0368053
0.0368053
0.0368053
0.0368053
0.0368053
0.0368053
0.0368053
0.0368053
0.0368053
0.0368053
0.0368053
0.0368053
0.0368053
0.0368053
0.0368053
0.0368053
0.0368053
0.0368053
0.0368053
0.0368053
0.0368053
0.0368053
0.0368053
0.0368053
0.0368053
0.0368053
0.0368053
0.0368053
0.0368053
0.0368053
0.0368053
0.0368053
0.0368053
0.0368053
0.0368053
0.0368053
0.0368053
0.0368053
0.0368053
0.0368053
0.0368053
0.0368053
0.0368053
0.0368053
0.0368053
0.0368053
0.0368053
0.0368053
0.0368053
0.0368053
0.0368053
0.0368053
0.0368053
0.0368053
0.0368053
0.0368053
0.0368053
0.0368053
0.0368053
0.0368053
0.0368053
0.0368053
0.0368053
0.0368053
0.0368053
0.0368053
0.0368053
0.0368053
0.0368053
0.0368053
0.0368053
0.0368053
0.0368053
0.0368053
0.0368053
0.0368053
0.0368053
0.0368053
0.0368053
0.0368053
0.0368053
0.0368053
0.0368053
0.0368053
0.0368053
0.0368053
0.0368053
0.0368053
0.0368053
0.0368053
0.0368053
0.0368053
0.0368053
0.0368053
0.0368053
0.0368053
0.0368053
0.0368053
0.0368053
0.0368053
0.0368053
0.0368053
0.0368053
0.0368053
0.0368053
0.0368053
0.0368053
0.0368053
0.0368053
0.0368053
0.0368053
0.0368053
0.0368053
0.0368053
0.0368053
0.0368053
0.0368053
0.0368053
0.0368053
0.0368053
0.0368053
0.0368053
0.0368053
0.0368053
0.0368053
0.0368053
0.0368053
0.0368053
0.0368053
0.0368053
0.0368053
0.0368053
0.0368053
0.0368053
0.0368053
0.0368053
0.0368053
0.0368053
0.0368053
0.0368053
0.0368053
0.0368053
0.0368053
0.0368053
0.0368053
0.0368053
0.0368053
0.0368053
0.0368053
0.0368053
0.0368053
0.0368053
0.0368053
0.0368053
0.0368053
0.0368053
0.0368053
0.0368053
0.0368053
0.0368053
0.0368053
0.0368053
0.0368053
0.0368053
0.0368053
0.0368053
0.0368053
0.0368053
0.0368053
0.0368053
0.0368053
0.0368053
0.0368053
0.0368053
0.0368053
0.0368053
0.0368053
0.0368053
0.0368053
0.0368053
0.0368053
0.0368053
0.0368053
0.0368053
0.0368053
0.0368053
0.0368053
0.0368053
0.0368053
0.0368053
0.0368053
0.0368053
0.0368053
0.0368053
0.0368053
0.0368053
0.0368053
0.0368053
0.0368053
0.0368053
0.0368053
0.0368053
0.0368053
0.0368053
0.0368053
0.0368053
0.0368053
0.0368053
0.0368053
0.0368053
0.0368053
0.0368053
0.0368053
0.0368053
0.0368053
0.0368053
0.0368053
0.0368053
0.0368053
0.0368053
0.0368053
0.0368053
0.0368053
0.0368053
0.0368053
0.0368053
0.0368053
0.0368053
0.0368053
0.0368053
0.0368053
0.0368053
0.0368053
0.0368053
0.0368053
0.0368053
0.0368053
0.0368053
0.0368053
0.0368053
0.0368053
0.0368053
0.0368053
0.0368053
0.0368053
0.0368053
0.0368053
0.0368053
0.0368053
0.0368053
0.0368053
0.0368053
0.0368053
0.0368053
0.0368053
0.0368053
0.0368053
0.0368053
0.0368053
0.0368053
0.0368053
0.0368053
0.0368053
0.0368053
0.0368053
0.0368053
0.0368053
0.0368053
0.0368053
0.0368053
0.0368053
0.0368053
0.0368053
0.0368053
0.0368053
0.0368053
0.0368053
0.0368053
0.0368053
0.0368053
0.0368053
0.0368053
0.0368053
0.0368053
0.0368053
0.0368053
0.0368053
0.0368053
0.0368053
0.0368053
0.0368053
0.0368053
0.0368053
0.0368053
0.0368053
0.0368053
0.0368053
0.0368053
0.0368053
0.0368053
0.0368053
0.0368053
0.0368053
0.0368053
0.0368053
0.0368053
0.0368053
0.0368053
0.0368053
0.0368053
0.0368053
0.0368053
0.0368053
0.0368053
0.0368053
0.0368053
0.0368053
0.0368053
0.0368053
0.0368053
0.0368053
0.0368053
0.0368053
0.0368053
0.0368053
0.0368053
0.0368053
0.0368053
0.0368053
0.0368053
0.0368053
0.0368053
0.0368053
0.0368053
0.0368053
0.0368053
0.0368053
0.0368053
0.0368053
0.0368053
0.0368053
0.0368053
0.0368053
0.0368053
0.0368053
0.0368053
0.0368053
0.0368053
0.0368053
0.0368053
0.0368053
0.0368053
0.0368053
0.0368053
0.0368053
0.0368053
0.0368053
0.0368053
0.0368053
0.0368053
0.0368053
0.0368053
0.0368053
0.0368053
0.0368053
0.0368053
0.0368053
0.0368053
0.0368053
0.0368053
0.0368053
0.0368053
0.0368053
0.0368053
0.0368053
0.0368053
0.0368053
0.0368053
0.0368053
0.0368053
0.0368053
0.0368053
0.0368053
0.0368053
0.0368053
0.0368053
0.0368053
0.001011012
0.001002505
0.001007406
0.001012208
0.001017041
0.001028065
0.001064902
0.001039927
0.00104803
0.001044833
0.001039704
0.001036123
0.001033176
0.001030795
0.001029009
0.001027413
0.001026196
0.001025186
0.001025968
0.001003984
0.001011017
0.001014714
0.001019005
0.001031242
0.001068897
0.00104306
0.001049806
0.001043718
0.00103868
0.001035432
0.001032731
0.001030484
0.001028792
0.001027184
0.001026049
0.001025065
0.001030825
0.001005681
0.001018141
0.00101916
0.001021986
0.001035076
0.001066385
0.001047109
0.001049931
0.001043135
0.001037226
0.001034212
0.001031895
0.001029902
0.00102839
0.001026766
0.001025758
0.001024827
0.001033431
0.001005955
0.001023981
0.001023147
0.001024846
0.001037871
0.001061723
0.001050147
0.001048853
0.001042224
0.001035408
0.001032687
0.001030779
0.001029118
0.001027844
0.001026161
0.001025343
0.001024483
0.00103598
0.001006004
0.001026637
0.001026184
0.001027217
0.00103935
0.001055759
0.001050255
0.001046107
0.001040176
0.001033708
0.001031188
0.00102953
0.00102809
0.001027112
0.001025502
0.001024832
0.001024054
0.001038449
0.001005971
0.00102938
0.001028475
0.001029175
0.001039758
0.001051609
0.001046786
0.00104215
0.001037215
0.001032337
0.001029667
0.001028162
0.001027018
0.001026333
0.001024709
0.001024229
0.001023542
0.001040936
0.001005714
0.001032555
0.001030631
0.001030623
0.001039178
0.001046591
0.001039988
0.001038002
0.00103401
0.001030568
0.001028152
0.001026829
0.001025888
0.001025406
0.001023917
0.001023558
0.001022969
0.00104338
0.001005597
0.001034526
0.001032151
0.001031446
0.001037697
0.001040421
0.001035298
0.001034143
0.001031237
0.001028623
0.001026826
0.001025522
0.001024833
0.001024463
0.001023074
0.001022851
0.001022356
0.00104579
0.001005467
0.001036522
0.001032965
0.001031398
0.001035382
0.001036509
0.001030264
0.001030607
0.00102879
0.001027268
0.001024993
0.001024236
0.001023752
0.00102347
0.001022228
0.00102211
0.001021708
0.001048293
0.001005406
0.001034492
0.001031621
0.001029999
0.001032326
0.001032641
0.001027515
0.001027734
0.001027251
0.001024645
0.001023338
0.00102305
0.001022607
0.001022503
0.00102138
0.001021365
0.001021037
0.001050796
0.001005178
0.00102831
0.001028234
0.001027548
0.001029058
0.001028956
0.001026324
0.0010252
0.001023863
0.001022505
0.001022048
0.001021807
0.001021533
0.001021589
0.001020536
0.001020607
0.001020359
0.001053203
0.001005039
0.001026171
0.001024288
0.001024713
0.001026126
0.001026005
0.001024442
0.001022415
0.001021658
0.001021128
0.001020834
0.001020683
0.001020551
0.00102069
0.0010197
0.001019854
0.001019674
0.001055676
0.001004647
0.001020017
0.001021567
0.001022948
0.00102418
0.001023814
0.001022542
0.00102087
0.001020416
0.00102006
0.001019715
0.001019666
0.001019607
0.001019811
0.00101889
0.001019113
0.001018991
0.001058599
0.001003773
0.001017182
0.001020504
0.001022291
0.001022902
0.0010222
0.001021086
0.001019783
0.001019462
0.001019008
0.00101871
0.001018713
0.001018692
0.001018957
0.001018106
0.001018383
0.001018312
0.00107337
0.001003521
0.001019506
0.001021441
0.00102245
0.001021948
0.001020985
0.00101982
0.001018745
0.001018462
0.001018009
0.001017772
0.001017791
0.001017819
0.001018116
0.001017355
0.00101767
0.001017647
0.001076274
0.001003515
0.001020511
0.001020801
0.001022151
0.00102116
0.001019742
0.001018653
0.001017722
0.001017428
0.001017046
0.00101688
0.001016928
0.001016997
0.001017263
0.00101665
0.001016969
0.001016989
0.001081247
0.00100343
0.001020627
0.001021905
0.001020844
0.001020028
0.001018515
0.001017504
0.001016663
0.001016423
0.00101612
0.001016039
0.001016105
0.001016217
0.001016381
0.001016003
0.001016279
0.001016339
0.001086904
0.001003308
0.001017768
0.00101949
0.00102126
0.001018267
0.001017136
0.001016311
0.001015595
0.001015451
0.00101524
0.001015234
0.00101531
0.001015457
0.001015515
0.001015383
0.001015594
0.001015701
0.001093069
0.001003185
0.001017024
0.001017935
0.001018036
0.001017401
0.001015691
0.001015133
0.001014568
0.001014518
0.001014416
0.001014449
0.001014536
0.001014658
0.001014776
0.001014776
0.001014955
0.001015078
0.001099285
0.001003051
0.001015718
0.001016062
0.001016883
0.001015319
0.001014665
0.00101399
0.001013548
0.001013649
0.001013631
0.001013686
0.001013797
0.001013934
0.00101401
0.001014211
0.001014307
0.001014448
0.001105516
0.001002918
0.001014066
0.001014786
0.001014812
0.001014019
0.001013388
0.001013019
0.001012623
0.001012848
0.001012866
0.001012944
0.001013076
0.001013263
0.001013189
0.001013687
0.00101366
0.001013841
0.001112037
0.001002795
0.001012663
0.001013207
0.001013749
0.00101243
0.001012209
0.001011941
0.001011852
0.001012107
0.00101212
0.001012223
0.001012381
0.001012587
0.001012613
0.001012904
0.001013045
0.00101325
0.001119035
0.001002683
0.001011583
0.001011817
0.001012416
0.001011543
0.001011021
0.001011058
0.001011043
0.001011342
0.001011411
0.001011531
0.001011709
0.001011981
0.001011914
0.001012287
0.001012444
0.001012644
0.001126522
0.001002568
0.001010572
0.00101058
0.001011107
0.001010481
0.001010271
0.001010253
0.001010332
0.001010546
0.001010723
0.001010864
0.001011065
0.001011496
0.001011272
0.001011702
0.001011858
0.001012098
0.001134719
0.001002468
0.00100972
0.001009501
0.001009859
0.001009491
0.001009449
0.001009595
0.001009553
0.001009904
0.001010019
0.001010241
0.001010433
0.00101093
0.001010579
0.001011081
0.001011272
0.001011556
0.001143371
0.001002371
0.001008965
0.001008596
0.001008519
0.001008667
0.001008696
0.001008827
0.001008924
0.001009227
0.001009407
0.001009584
0.001009864
0.001010299
0.001009918
0.001010416
0.001010707
0.001011053
0.001152819
0.001002274
0.001008228
0.001007931
0.001007181
0.001008013
0.00100799
0.001008131
0.0010084
0.001008571
0.001008777
0.001008992
0.00100929
0.00100969
0.001009439
0.0010099
0.00101015
0.001010492
0.001163085
0.001002166
0.001007248
0.001007497
0.001006162
0.001007421
0.001007319
0.00100748
0.001007916
0.001007936
0.001008165
0.001008408
0.001008714
0.001008994
0.00100901
0.001009412
0.001009658
0.00101012
0.001174114
0.001002049
0.001005835
0.001007511
0.001005851
0.001006442
0.001006643
0.001006821
0.001007264
0.001007333
0.001007603
0.001007863
0.001008168
0.001008287
0.001008549
0.001008884
0.001009168
0.001009544
0.001186314
0.001001914
0.001004646
0.001007818
0.001005782
0.001005338
0.001005957
0.001006064
0.00100661
0.001006874
0.00100712
0.001007377
0.001007689
0.001007673
0.00100816
0.001008328
0.001008646
0.001008958
0.001199644
0.001001773
0.001004057
0.001006293
0.001005474
0.001005103
0.001005468
0.001005499
0.001006211
0.001006535
0.001006699
0.001006915
0.001007268
0.001007245
0.001007568
0.00100786
0.001008182
0.001008356
0.001214127
0.001001687
0.001003986
0.001003657
0.001006248
0.001004783
0.001005126
0.001005346
0.001005563
0.001006076
0.001006262
0.001006465
0.001006758
0.001006718
0.001007064
0.001007392
0.001007657
0.001007806
0.001230785
0.001001666
0.001003435
0.001002857
0.001004073
0.001005147
0.001004961
0.001004986
0.001005546
0.001005716
0.001005859
0.00100605
0.001006143
0.001006384
0.001006584
0.00100691
0.00100716
0.001007268
0.001252724
0.00100127
0.001002519
0.001002853
0.001002983
0.001004934
0.001004805
0.001005111
0.001005275
0.00100511
0.001005357
0.001005575
0.001005731
0.001005897
0.001006172
0.001006507
0.00100646
0.001007027
0.001315495
0.001001071
0.001002303
0.001002883
0.001003204
0.001003876
0.00100434
0.001004848
0.001004499
0.001004761
0.001004951
0.001005147
0.001005186
0.001005487
0.001005754
0.001005956
0.001005933
0.001006735
0.00136423
0.001000822
0.001002078
0.001002405
0.001002887
0.001003784
0.001004047
0.001004197
0.00100442
0.00100441
0.001004533
0.001004706
0.001004672
0.001005254
0.001005303
0.001005517
0.001005513
0.001006092
0.001464599
0.001000545
0.001001869
0.001002154
0.001002877
0.00100359
0.001003824
0.001003979
0.001003971
0.001004058
0.001004137
0.001004177
0.001004258
0.001004584
0.001004834
0.001005025
0.001005261
0.001005713
0.002034755
0.001000344
0.001001935
0.00100287
0.001003463
0.001003651
0.001003647
0.00100365
0.001003639
0.001003684
0.001003766
0.001003694
0.001004118
0.001004164
0.001004331
0.001004442
0.001004885
0.00100523
0.003509256
0.001000337
0.001001148
0.001002368
0.001003716
0.001003509
0.001003359
0.001003342
0.001003264
0.001003323
0.001003365
0.001003313
0.001003744
0.001003761
0.001003791
0.001004287
0.001004436
0.001004736
0.0368053
0.001000397
0.001001037
0.001002492
0.001003236
0.001003186
0.001003011
0.001002969
0.0010029
0.001002982
0.001003032
0.001003055
0.001003408
0.001003376
0.001003538
0.001003885
0.001004045
0.001004289
0.0368053
0.001000782
0.001001154
0.00100256
0.001002828
0.001002784
0.001002572
0.001002583
0.001002577
0.001002635
0.001002656
0.001002777
0.001002897
0.001003102
0.001003213
0.001003507
0.001003725
0.001003996
0.0368053
0.001000566
0.001001305
0.00100217
0.001002256
0.001002288
0.001002231
0.001002241
0.001002261
0.00100231
0.001002295
0.001002595
0.001002616
0.001002879
0.001002852
0.001003197
0.001003403
0.001003672
0.0368053
0.001000293
0.001001191
0.00100209
0.001001881
0.001001934
0.001001945
0.001001961
0.001001981
0.001002029
0.001002008
0.001002275
0.001002354
0.001002533
0.001002529
0.001002911
0.001003102
0.001003328
0.0368053
0.001003012
0.001001541
0.001002146
0.001001804
0.001001659
0.001001703
0.001001701
0.0010017
0.001001786
0.001001787
0.001002061
0.00100195
0.001002305
0.001002368
0.001002629
0.001002803
0.001003086
0.0368053
0.001003198
0.001002745
0.001002383
0.001001919
0.001001465
0.001001474
0.001001464
0.001001459
0.001001555
0.001001542
0.001001667
0.001001741
0.001002068
0.001002091
0.001002324
0.001002572
0.001002782
0.0368053
0.001004943
0.001002033
0.001002201
0.001001523
0.0010013
0.001001251
0.001001265
0.001001268
0.001001328
0.00100137
0.001001423
0.001001649
0.001001769
0.001001888
0.001002178
0.00100227
0.001002603
0.0368053
0.001008857
0.001002156
0.001002471
0.001001184
0.001001136
0.00100105
0.00100105
0.001001039
0.001001081
0.001001187
0.001001181
0.001001474
0.001001491
0.001001724
0.001001887
0.001002132
0.001002305
0.0368053
0.001054008
0.001001646
0.001001312
0.001000967
0.001000888
0.001000859
0.001000851
0.001000843
0.001000923
0.00100095
0.001001046
0.001001233
0.00100134
0.001001465
0.001001761
0.00100183
0.001002234
0.0368053
0.001186257
0.001001249
0.001000521
0.001000698
0.001000716
0.001000705
0.001000687
0.001000695
0.001000805
0.001000765
0.00100089
0.001001066
0.001001174
0.001001332
0.001001488
0.00100173
0.001001988
0.0368053
0.001846263
0.001004821
0.001000416
0.001000563
0.001000618
0.001000668
0.001000815
0.001000853
0.001001026
0.001001213
0.00100128
0.001001577
0.001001852
0.0368053
0.0368053
0.001000469
0.0010007
0.0010007
0.001000892
0.001001031
0.001001202
0.00100136
0.001001725
0.0368053
0.001000412
0.001000728
0.001000685
0.001000917
0.001001131
0.001001294
0.001001611
0.001000536
0.001000643
0.001000819
0.001001032
0.001001175
0.001001516
0.00100063
0.001000737
0.001000971
0.001001134
0.001001415
0.001000654
0.001000672
0.00100088
0.001001119
0.001001339
0.001000547
0.001000648
0.001000855
0.001001094
0.001001301
0.001000516
0.001000676
0.001000848
0.001001082
0.001001295
0.001000561
0.001000682
0.001000835
0.001001097
0.001001315
0.00100058
0.001000711
0.00100091
0.001001107
0.001001352
0.001000523
0.001000568
0.001000776
0.001000963
0.001001239
0.001001435
0.0368053
0.001000638
0.001000624
0.001000836
0.001001052
0.00100126
0.001001561
0.0368053
0.0368053
0.001000562
0.001000718
0.001000787
0.001000898
0.00100119
0.001001339
0.001001687
0.0368053
0.002315002
0.001006616
0.001000526
0.001000573
0.00100071
0.001000816
0.001000918
0.001001013
0.001001353
0.001001421
0.001001787
0.0368053
0.001399975
0.001003122
0.001001067
0.001000763
0.001000691
0.001000637
0.00100059
0.001000704
0.00100059
0.00100077
0.001000804
0.001000905
0.001001162
0.001001162
0.001001559
0.001001562
0.001002015
0.0368053
0.001083221
0.001001658
0.001000845
0.001000694
0.001000725
0.001000732
0.001000719
0.001000882
0.001000784
0.001000899
0.001000998
0.001001072
0.001001201
0.001001458
0.001001565
0.001001846
0.001002092
0.0368053
0.001022398
0.001000524
0.001000763
0.001000821
0.001000828
0.001000873
0.001000932
0.001000962
0.001000952
0.001001108
0.001001191
0.001001315
0.001001413
0.00100157
0.001001885
0.001001904
0.001002318
0.0368053
0.0010059
0.001000932
0.001000689
0.001000953
0.001001093
0.00100106
0.001001106
0.001001127
0.001001151
0.001001313
0.001001286
0.001001564
0.001001665
0.001001831
0.001001939
0.001002249
0.001002535
0.0368053
0.001004764
0.001001167
0.00100102
0.00100111
0.001001194
0.00100123
0.00100129
0.001001331
0.001001345
0.001001568
0.001001433
0.001001774
0.001001883
0.001001985
0.001002293
0.001002444
0.001002763
0.0368053
0.001003023
0.001001352
0.001001099
0.001001285
0.001001346
0.001001438
0.001001488
0.001001572
0.001001601
0.001001703
0.001001741
0.001001941
0.001002148
0.001002286
0.001002415
0.001002765
0.001003071
0.0368053
0.001002584
0.001001006
0.001001325
0.00100162
0.001001639
0.001001669
0.001001707
0.001001792
0.00100183
0.001001872
0.001002075
0.001002139
0.001002477
0.001002551
0.001002733
0.001002908
0.001003321
0.0368053
0.001004648
0.001001461
0.001001558
0.001002001
0.001002034
0.001002004
0.001002014
0.00100205
0.001002116
0.001002103
0.001002357
0.00100238
0.001002716
0.001002832
0.001003033
0.001003244
0.001003473
0.0368053
0.001010695
0.001002301
0.001002833
0.001002947
0.00100253
0.001002352
0.001002281