/*--------------------------------*- C++ -*----------------------------------*\
| =========                 |                                                 |
| \\      /  F ield         | OpenFOAM: The Open Source CFD Toolbox           |
|  \\    /   O peration     | Version:  2206                                  |
|   \\  /    A nd           | Website:  www.openfoam.com                      |
|    \\/     M anipulation  |                                                 |
\*---------------------------------------------------------------------------*/
FoamFile
{
    version     2.0;
    format      ascii;
    arch        "LSB;label=32;scalar=64";
    class       volScalarField;
    location    "2.6";
    object      muI;
}
// * * * * * * * * * * * * * * * * * * * * * * * * * * * * * * * * * * * * * //

dimensions      [0 0 0 0 0 0 0];

internalField   nonuniform List<scalar> 
13078
(
0.6333691
0.6300221
0.630002
0.6300008
0.6300003
0.6300002
0.6300002
0.6300119
0.6300031
0.6300014
0.6300006
0.6300003
0.6300002
0.6300002
0.630002
0.6300012
0.6300006
0.6300003
0.6300002
0.6300002
0.6300002
0.6300006
0.6300005
0.6300003
0.6300002
0.6300002
0.6300002
0.6300001
0.6300003
0.6300002
0.6300002
0.6300002
0.6300001
0.6300001
0.6300001
0.6300001
0.6300001
0.6300001
0.6300001
0.6300001
0.6300001
0.6300001
0.6300001
0.6300001
0.6300001
0.6300001
0.6300001
0.6300001
0.6300001
0.6300001
0.6300001
0.6300001
0.6300001
0.6300001
0.6300001
0.6300001
0.6300001
0.63
0.63
0.63
0.63
0.63
0.6300001
0.63
0.63
0.63
0.63
0.63
0.63
0.63
0.63
0.63
0.63
0.63
0.63
0.63
0.63
0.63
0.63
0.63
0.63
0.63
0.63
0.63
0.63
0.63
0.63
0.63
0.63
0.63
0.63
0.63
0.63
0.63
0.63
0.63
0.63
0.63
0.63
0.63
0.63
0.63
0.63
0.63
0.63
0.63
0.63
0.63
0.63
0.63
0.63
0.63
0.63
0.63
0.63
0.63
0.63
0.63
0.63
0.63
0.63
0.63
0.63
0.63
0.63
0.6300001
0.63
0.63
0.63
0.63
0.63
0.63
0.6300001
0.63
0.63
0.63
0.63
0.63
0.6300001
0.6300001
0.63
0.63
0.63
0.63
0.6300001
0.6300001
0.6300001
0.63
0.63
0.63
0.63
0.6300001
0.6300001
0.6300001
0.63
0.63
0.6300001
0.6300001
0.6300001
0.6300001
0.6300001
0.63
0.6300001
0.6300001
0.6300001
0.6300001
0.6300001
0.6300001
0.63
0.6300001
0.6300001
0.6300001
0.6300001
0.6300001
0.6300001
0.6300001
0.6300001
0.6300001
0.6300001
0.6300001
0.6300001
0.6300001
0.6300001
0.6300001
0.6300001
0.6300001
0.6300001
0.6300001
0.6300001
0.6300001
0.6300001
0.6300001
0.6300001
0.6300001
0.6300001
0.6300001
0.6300001
0.6300001
0.6300001
0.6300001
0.6300001
0.6300001
0.6300001
0.6300001
0.6300001
0.6300001
0.6300001
0.6300001
0.6300001
0.6300002
0.6300001
0.6300001
0.6300001
0.6300001
0.6300002
0.6300002
0.6300002
0.6300001
0.6300001
0.6300002
0.6300002
0.6300002
0.6300002
0.6300002
0.6300001
0.6300002
0.6300002
0.6300002
0.6300002
0.6300002
0.6300002
0.6300002
0.6300002
0.6300002
0.6300002
0.6300002
0.6300002
0.6300002
0.6300002
0.6300002
0.6300002
0.6300002
0.6300003
0.6300003
0.6300003
0.6300002
0.6300002
0.6300003
0.6300003
0.6300003
0.6300003
0.6300003
0.6300002
0.6300003
0.6300003
0.6300003
0.6300003
0.6300003
0.6300003
0.6300003
0.6300003
0.6300003
0.6300003
0.6300003
0.6300003
0.6300003
0.6300003
0.6300003
0.6300003
0.6300003
0.6300004
0.6300003
0.6300003
0.6300003
0.6300003
0.6300004
0.6300004
0.6300004
0.6300004
0.6300004
0.6300003
0.6300004
0.6300004
0.6300004
0.6300004
0.6300004
0.6300004
0.6300004
0.6300004
0.6300004
0.6300004
0.6300004
0.6300004
0.6300004
0.6300004
0.6300004
0.6300004
0.6300004
0.6300004
0.6300004
0.6300004
0.6300004
0.6300004
0.6300004
0.6300004
0.6300004
0.6300004
0.6300004
0.6300003
0.6300003
0.6300003
0.6300003
0.6300004
0.6300004
0.6300004
0.6300003
0.6300003
0.6300003
0.6300003
0.6300003
0.6300004
0.6300004
0.6300003
0.6300003
0.6300003
0.6300003
0.6300003
0.6300003
0.6300003
0.6300003
0.6300003
0.6300003
0.6300003
0.6300003
0.6300003
0.6300003
0.6300002
0.6300002
0.6300002
0.6300002
0.6300003
0.6300003
0.6300003
0.6300002
0.6300002
0.6300002
0.6300002
0.6300002
0.6300003
0.6300004
0.6300002
0.6300002
0.6300002
0.6300002
0.6300002
0.6300003
0.6300005
0.6300001
0.6300001
0.6300002
0.6300002
0.6300002
0.6300004
0.6300011
0.6300001
0.6300001
0.6300001
0.6300002
0.6300003
0.6300005
0.6300027
0.63
0.6300001
0.6300001
0.6300002
0.6300003
0.630001
0.6300042
0.6300001
0.6300001
0.6300001
0.6300002
0.6300004
0.6300014
0.630005
0.6300001
0.6300001
0.6300002
0.6300003
0.6300005
0.6300018
0.6300053
0.6300002
0.6300002
0.6300002
0.6300003
0.6300005
0.6300018
0.6300053
0.6300002
0.6300002
0.6300002
0.6300003
0.6300005
0.6300018
0.6300052
0.6300002
0.6300002
0.6300003
0.6300003
0.6300005
0.6300016
0.630005
0.6300002
0.6300002
0.6300003
0.6300003
0.6300005
0.6300014
0.6300047
0.6300002
0.6300002
0.6300003
0.6300003
0.6300005
0.6300013
0.6300043
0.6300002
0.6300002
0.6300003
0.6300003
0.6300004
0.6300011
0.6300039
0.6300001
0.6300002
0.6300003
0.6300003
0.6300004
0.630001
0.6300036
0.6300001
0.6300002
0.6300002
0.6300003
0.6300004
0.6300008
0.6300031
0.6300001
0.6300001
0.6300002
0.6300003
0.6300004
0.6300006
0.6300023
0.63
0.6300001
0.6300002
0.6300002
0.6300004
0.6300006
0.6300016
0.6300001
0.6300001
0.6300001
0.6300002
0.6300003
0.6300005
0.6300012
0.6300001
0.6300001
0.6300001
0.6300002
0.6300003
0.6300004
0.6300009
0.6300001
0.6300001
0.6300001
0.6300001
0.6300002
0.6300003
0.6300007
0.6300001
0.6300001
0.6300001
0.6300001
0.6300001
0.6300002
0.6300005
0.6300001
0.6300001
0.6300001
0.6300001
0.6300001
0.6300002
0.6300003
0.6300001
0.6300001
0.6300002
0.6300001
0.6300001
0.6300001
0.6300002
0.6300001
0.6300001
0.6300002
0.6300002
0.6300002
0.6300001
0.6300001
0.6300001
0.6300001
0.6300002
0.6300002
0.6300002
0.6300002
0.6300001
0.6300001
0.6300001
0.6300002
0.6300002
0.6300002
0.6300002
0.6300002
0.6300001
0.6300001
0.6300001
0.6300002
0.6300002
0.6300002
0.6300002
0.6300001
0.6300001
0.6300001
0.6300002
0.6300002
0.6300002
0.6300002
0.6300001
0.6300001
0.6300001
0.6300001
0.6300002
0.6300002
0.6300002
0.6300001
0.6300001
0.6300001
0.6300001
0.6300001
0.6300002
0.6300002
0.6300001
0.6300001
0.6300001
0.6300001
0.6300001
0.6300001
0.6300002
0.6300001
0.6300001
0.6300001
0.6300001
0.6300001
0.6300001
0.6300001
0.6300001
0.6300001
0.6300001
0.6300001
0.6300001
0.6300001
0.6300001
0.6300001
0.6300001
0.6300001
0.6300001
0.6300001
0.6300001
0.6300001
0.6300001
0.6300001
0.6300001
0.6300001
0.6300001
0.6300001
0.6300001
0.6300001
0.6300001
0.6300001
0.6300001
0.6300001
0.6300001
0.6300001
0.63
0.6300001
0.6300001
0.6300001
0.6300001
0.6300001
0.6300001
0.63
0.6300001
0.6300001
0.6300001
0.6300001
0.6300001
0.6300001
0.63
0.6300001
0.6300001
0.6300001
0.6300001
0.6300001
0.6300001
0.63
0.63
0.6300001
0.6300001
0.6300001
0.6300001
0.6300001
0.63
0.63
0.63
0.6300001
0.6300001
0.6300001
0.6300001
0.63
0.63
0.63
0.63
0.6300001
0.6300001
0.6300001
0.63
0.63
0.63
0.63
0.63
0.6300001
0.6300001
0.63
0.63
0.63
0.63
0.63
0.6300001
0.6300001
0.63
0.63
0.63
0.63
0.63
0.63
0.6300001
0.63
0.63
0.63
0.63
0.63
0.63
0.6300001
0.63
0.63
0.63
0.63
0.63
0.63
0.63
0.63
0.63
0.63
0.63
0.63
0.63
0.63
0.63
0.63
0.63
0.63
0.63
0.63
0.63
0.63
0.63
0.63
0.63
0.63
0.63
0.63
0.63
0.63
0.63
0.63
0.63
0.63
0.63
0.63
0.63
0.63
0.63
0.63
0.63
0.63
0.63
0.63
0.63
0.63
0.63
0.63
0.63
0.63
0.63
0.63
0.63
0.63
0.63
0.63
0.63
0.63
0.63
0.63
0.63
0.63
0.63
0.63
0.63
0.63
0.63
0.63
0.63
0.6300001
0.6300001
0.6300001
0.6300001
0.6300001
0.6300001
0.6300001
0.6300001
0.6300001
0.6300001
0.6300001
0.6300001
0.6300001
0.6300001
0.6300001
0.6300001
0.6300001
0.6300001
0.6300001
0.6300001
0.6300001
0.6300001
0.6300002
0.6300002
0.6300002
0.6300002
0.6300001
0.6300001
0.6300001
0.6300006
0.6300004
0.6300003
0.6300002
0.6300002
0.6300002
0.6300001
0.6300019
0.6300012
0.6300006
0.6300003
0.6300002
0.6300002
0.6300002
0.6300104
0.6300029
0.6300014
0.6300005
0.6300003
0.6300002
0.6300002
0.6300002
0.6300001
0.6300001
0.6300001
0.6300001
0.63
0.6300001
0.6300001
0.6300001
0.6300001
0.6300001
0.6300001
0.63
0.6300001
0.6300001
0.6300001
0.6300001
0.6300001
0.6300001
0.6300001
0.6300001
0.6300001
0.6300001
0.6300001
0.6300001
0.6300001
0.6300001
0.6300001
0.6300001
0.6300001
0.6300001
0.6300001
0.6300001
0.6300001
0.6300001
0.6300001
0.6300001
0.6300001
0.6300001
0.6300001
0.6300001
0.6300001
0.6300001
0.6300001
0.6300001
0.6300001
0.6300001
0.6300001
0.6300001
0.6300001
0.6300001
0.6300001
0.6300001
0.6300001
0.6300001
0.6300001
0.6300001
0.6300001
0.6300001
0.6300001
0.6300001
0.6300001
0.6300001
0.6300001
0.6300001
0.6300001
0.6300001
0.6300001
0.6300001
0.6300001
0.63
0.6300001
0.6300001
0.6300001
0.6300001
0.6300001
0.6300001
0.63
0.6300001
0.6300001
0.6300001
0.6300001
0.6300001
0.6300001
0.63
0.6300001
0.6300001
0.63
0.6300001
0.6300001
0.6300001
0.63
0.6300001
0.6300001
0.63
0.6300001
0.6300001
0.6300001
0.63
0.6300001
0.6300001
0.63
0.6300001
0.6300001
0.6300001
0.6300001
0.6300001
0.6300001
0.6300001
0.6300001
0.6300001
0.6300001
0.6300001
0.6300001
0.6300001
0.6300001
0.6300001
0.6300001
0.6300001
0.6300001
0.6300001
0.6300001
0.6300001
0.6300001
0.6300001
0.6300001
0.6300001
0.6300001
0.6300001
0.6300001
0.6300001
0.6300001
0.6300002
0.6300001
0.6300001
0.6300001
0.6300001
0.6300001
0.6300001
0.6300002
0.6300001
0.6300001
0.6300001
0.6300001
0.6300001
0.6300001
0.6300002
0.6300001
0.6300001
0.6300001
0.6300001
0.6300001
0.6300001
0.6300002
0.6300001
0.6300001
0.6300001
0.6300001
0.6300001
0.6300001
0.6300002
0.6300001
0.6300001
0.6300001
0.6300001
0.6300001
0.6300001
0.6300003
0.6300001
0.6300001
0.6300001
0.6300001
0.6300001
0.6300001
0.6300003
0.6300001
0.6300001
0.6300001
0.6300001
0.6300001
0.6300002
0.6300003
0.6300001
0.6300001
0.6300001
0.6300001
0.6300001
0.6300002
0.6300004
0.6300001
0.6300001
0.6300001
0.6300001
0.6300002
0.6300002
0.6300004
0.6300002
0.6300001
0.6300001
0.6300002
0.6300002
0.6300002
0.6300005
0.6300002
0.6300002
0.6300002
0.6300002
0.6300002
0.6300002
0.6300006
0.6300002
0.6300002
0.6300002
0.6300002
0.6300002
0.6300003
0.6300006
0.6300002
0.6300002
0.6300002
0.6300002
0.6300002
0.6300003
0.6300007
0.6300002
0.6300002
0.6300002
0.6300002
0.6300003
0.6300003
0.6300008
0.6300002
0.6300002
0.6300002
0.6300002
0.6300003
0.6300004
0.6300008
0.6300003
0.6300002
0.6300003
0.6300002
0.6300003
0.6300004
0.6300006
0.6300003
0.6300003
0.6300002
0.6300002
0.6300003
0.6300003
0.6300023
0.6300003
0.6300003
0.6300002
0.6300002
0.6300002
0.6300003
0.6300002
0.6300003
0.6300003
0.6300002
0.6300002
0.6300002
0.6300002
0.6300006
0.6300003
0.6300003
0.6300003
0.6300003
0.6300002
0.6300002
0.6300007
0.6300004
0.6300004
0.6300004
0.6300005
0.6300005
0.6300003
0.6300013
0.6300004
0.6300005
0.6300005
0.6300009
0.6300016
0.6300014
0.6300027
0.6300004
0.6300004
0.6300004
0.6300013
0.6300051
0.6300048
0.630008
0.6300004
0.6300004
0.6300003
0.6300041
0.6300088
0.6300079
0.6300071
0.6300004
0.6300004
0.6300007
0.6300072
0.6300096
0.6300102
0.630008
0.6300004
0.6300005
0.6300012
0.630008
0.63001
0.6300113
0.6300086
0.6300004
0.6300005
0.6300017
0.630008
0.6300103
0.6300116
0.6300092
0.6300004
0.6300005
0.6300027
0.6300083
0.6300101
0.6300138
0.6300099
0.6300003
0.6300005
0.630004
0.6300089
0.6300104
0.6300154
0.6300089
0.6300004
0.6300008
0.6300075
0.6300098
0.6300117
0.6300181
0.6300048
0.630001
0.6300028
0.6300115
0.6300106
0.6300149
0.6300148
0.6300042
0.6300029
0.6300074
0.6300133
0.6300128
0.6300155
0.6300101
0.6300094
0.6300063
0.6300117
0.6300136
0.6300151
0.6300168
0.6300097
0.630014
0.6300091
0.6300132
0.6300138
0.6300162
0.6300187
0.630015
0.6300132
0.63001
0.6300127
0.6300157
0.6300187
0.6300225
0.630017
0.6300133
0.6300101
0.630013
0.6300174
0.6300222
0.6300227
0.6300172
0.630008
0.63001
0.6300134
0.6300185
0.6300227
0.6300228
0.6300275
0.6300101
0.6300138
0.6300189
0.6300218
0.6300228
0.6300318
0.6300104
0.6300145
0.6300179
0.6300198
0.6300199
0.6300164
0.6300103
0.6300146
0.6300164
0.6300176
0.6300184
0.6300121
0.6300132
0.6300099
0.6300139
0.6300157
0.630016
0.6300143
0.6300114
0.6300507
0.6300099
0.6300139
0.6300152
0.6300146
0.6300102
0.6300125
0.6300724
0.6300096
0.6300141
0.630014
0.6300139
0.6300081
0.630009
0.630086
0.6300101
0.6300149
0.6300137
0.6300125
0.6300089
0.630007
0.6300473
0.6300094
0.6300153
0.6300139
0.6300124
0.6300117
0.6300138
0.6300013
0.6300083
0.6300148
0.630014
0.6300134
0.6300144
0.6300077
0.630019
0.6300065
0.6300132
0.6300132
0.6300141
0.6300152
0.6300055
0.6300221
0.6300047
0.6300109
0.6300127
0.6300125
0.6300145
0.6300059
0.630009
0.6300034
0.6300088
0.6300117
0.6300112
0.6300129
0.6300084
0.630002
0.6300026
0.6300065
0.6300108
0.6300097
0.6300114
0.6300101
0.6300039
0.6300017
0.6300048
0.6300089
0.6300086
0.6300088
0.6300068
0.6300097
0.6300009
0.6300033
0.6300067
0.630008
0.630008
0.6300033
0.630012
0.6300003
0.6300012
0.6300048
0.6300065
0.630007
0.6300049
0.6300054
0.6300001
0.6300002
0.6300009
0.6300039
0.6300043
0.6300061
0.6300063
0.6300001
0.63
0.6300002
0.6300004
0.6300012
0.6300017
0.6300064
0.6300002
0.6300001
0.6300002
0.6300002
0.6300003
0.6300011
0.6300042
0.6300002
0.6300002
0.6300002
0.6300002
0.6300004
0.6300008
0.6300011
0.6300002
0.6300002
0.6300002
0.6300002
0.6300003
0.6300004
0.6300005
0.6300002
0.6300002
0.6300002
0.6300002
0.6300002
0.6300002
0.6300003
0.6300002
0.6300002
0.6300002
0.6300002
0.6300001
0.6300001
0.6300001
0.6300002
0.6300002
0.6300002
0.6300001
0.6300001
0.6300001
0.6300005
0.6300002
0.6300002
0.6300001
0.6300001
0.6300001
0.6300001
0.6300003
0.6300001
0.6300002
0.6300001
0.6300001
0.6300001
0.6300002
0.6300003
0.6300001
0.6300001
0.6300001
0.6300001
0.6300001
0.6300002
0.6300003
0.6300001
0.6300001
0.6300001
0.6300001
0.6300001
0.6300002
0.6300003
0.6300001
0.6300001
0.6300001
0.6300001
0.6300001
0.6300001
0.6300003
0.6300001
0.6300001
0.6300001
0.6300001
0.6300001
0.6300001
0.6300003
0.6300001
0.6300001
0.6300001
0.6300001
0.6300001
0.6300001
0.6300003
0.6300001
0.6300001
0.6300001
0.6300001
0.6300001
0.6300001
0.6300003
0.6300001
0.6300001
0.6300001
0.6300001
0.6300001
0.6300001
0.6300002
0.6300001
0.6300001
0.6300001
0.6300001
0.6300001
0.6300001
0.6300002
0.6300001
0.6300001
0.6300001
0.6300001
0.6300001
0.6300001
0.6300002
0.6300001
0.6300001
0.6300001
0.6300001
0.6300001
0.6300001
0.6300002
0.6300001
0.6300001
0.6300001
0.6300001
0.6300001
0.6300001
0.6300002
0.6300001
0.6300001
0.6300001
0.6300001
0.6300001
0.6300001
0.6300001
0.6300001
0.6300001
0.6300001
0.6300001
0.6300001
0.6300001
0.6300001
0.6300001
0.6300001
0.6300001
0.6300001
0.6300001
0.6300001
0.6300001
0.6300001
0.6300001
0.6300001
0.6300001
0.6300001
0.6300001
0.6300001
0.63
0.6300001
0.6300001
0.6300001
0.6300001
0.6300001
0.6300001
0.63
0.6300001
0.6300001
0.6300001
0.6300001
0.6300001
0.6300001
0.63
0.6300001
0.6300001
0.6300001
0.6300001
0.6300001
0.6300001
0.63
0.6300001
0.6300001
0.6300001
0.6300001
0.6300001
0.6300001
0.63
0.6300001
0.6300001
0.6300001
0.6300001
0.6300001
0.6300001
0.63
0.6300001
0.6300001
0.6300001
0.6300001
0.6300001
0.6300001
0.6300001
0.6300001
0.6300001
0.6300001
0.6300001
0.6300001
0.6300001
0.6300001
0.6300001
0.6300001
0.6300001
0.6300001
0.6300001
0.6300001
0.6300001
0.6300001
0.6300001
0.6300001
0.6300001
0.6300001
0.6300001
0.6300001
0.6300001
0.6300001
0.6300001
0.6300001
0.6300001
0.6300002
0.6300001
0.6300001
0.6300001
0.6300001
0.6300001
0.6300001
0.6300001
0.6300001
0.6300001
0.6300001
0.6300001
0.6300001
0.6300001
0.6300001
0.6300001
0.6300001
0.6300001
0.6300001
0.6300001
0.6300001
0.6300001
0.6300001
0.6300001
0.6300001
0.6300001
0.6300001
0.6300001
0.6300001
0.6300001
0.6300001
0.6300001
0.6300001
0.6300001
0.63
0.6300001
1.125857
1.064603
0.9654417
0.8973854
0.8489474
0.7817007
0.7023664
0.7426606
0.725539
0.7316548
0.7432154
0.7529041
0.7621455
0.770628
0.7776932
0.7845906
0.7902666
0.7952729
1.125999
1.03091
0.9120987
0.8702385
0.8333853
0.7689581
0.6984128
0.7353847
0.7224425
0.7339701
0.7458338
0.7549577
0.763654
0.77181
0.7785958
0.7856286
0.7909754
0.7958918
1.126008
0.9963999
0.8399835
0.8322409
0.8132244
0.7560417
0.7008479
0.7272273
0.722231
0.7352211
0.7497562
0.7587507
0.7665858
0.7740778
0.7802996
0.7875608
0.7924022
0.7971246
1.125994
0.9912212
0.8016425
0.8063133
0.797029
0.7479845
0.705848
0.72187
0.7240794
0.7372356
0.75503
0.7638055
0.7706868
0.7772404
0.7826678
0.7904323
0.7944759
0.7989335
1.125986
0.9902959
0.7881619
0.7903209
0.7854785
0.7441082
0.7133516
0.7216899
0.7291295
0.742048
0.7603804
0.7691554
0.7755646
0.7815905
0.7859587
0.7936761
0.7971008
0.8012448
1.125979
0.9909288
0.7761692
0.7799333
0.7770072
0.7430823
0.719491
0.7278325
0.7374015
0.7497855
0.7650207
0.7750136
0.7812784
0.7863898
0.7896085
0.7977405
0.8002919
0.8040737
1.12597
0.9957787
0.7642606
0.7712483
0.7712813
0.744547
0.7282006
0.7425103
0.7476324
0.7593978
0.7714889
0.7813222
0.7872657
0.7917606
0.7941603
0.8019929
0.8039855
0.8073423
1.125961
0.9980072
0.7577529
0.7656752
0.7682086
0.7484572
0.7414514
0.7553631
0.7589703
0.7689748
0.7793079
0.7872805
0.793576
0.7970961
0.7990404
0.8067373
0.8080295
0.8109711
1.125951
1.00052
0.7517483
0.7628577
0.7683826
0.7551099
0.7517849
0.7726596
0.7713422
0.7786056
0.7852445
0.796263
0.8002556
0.8029001
0.8044784
0.8117407
0.8124606
0.8149476
1.12594
1.00172
0.7578604
0.7675699
0.7736966
0.7650606
0.7639638
0.7841301
0.7831554
0.7853241
0.798079
0.8052239
0.8068733
0.8094682
0.8100854
0.8170236
0.8171168
0.8192426
1.125928
1.006188
0.7806406
0.7809686
0.7839844
0.7774912
0.7779109
0.7896498
0.7952051
0.8022862
0.8100767
0.8128412
0.81433
0.8160484
0.8156993
0.8225599
0.8220826
0.8237578
1.125919
1.00897
0.7903847
0.7999743
0.7977196
0.7906037
0.7911913
0.7991517
0.8106145
0.8152594
0.8186486
0.8205734
0.8215787
0.8224581
0.821528
0.8283424
0.8272561
0.8285264
1.125904
1.016932
0.8261121
0.8158363
0.807466
0.8005587
0.8025585
0.8098527
0.8203324
0.8233741
0.8258163
0.8282337
0.8285872
0.8290085
0.8275545
0.8342482
0.8325895
0.8334941
1.125878
1.03551
0.8477584
0.8227791
0.8113602
0.8077351
0.8119131
0.8189226
0.8277572
0.830047
0.8333681
0.8355972
0.8355792
0.835737
0.8337418
0.8402586
0.8380979
0.838652
1.125802
1.041078
0.8297279
0.8166356
0.8104035
0.8134551
0.8195814
0.8274967
0.8353341
0.8374918
0.8410242
0.8429198
0.8427652
0.8425384
0.8401796
0.8463165
0.843746
0.8439269
1.125874
1.041214
0.8227293
0.8207896
0.8122116
0.8184394
0.8280422
0.83603
0.8433213
0.8457163
0.848903
0.8503096
0.8499051
0.8493195
0.8470835
0.8522891
0.849553
0.8493862
1.125856
1.043139
0.8219484
0.8137237
0.8205057
0.8260382
0.8370842
0.8450929
0.8521803
0.8542793
0.8569733
0.857697
0.8571034
0.8561043
0.8546491
0.8580237
0.8555461
0.8550132
1.125837
1.045874
0.8429489
0.8298449
0.8177955
0.8389983
0.8481411
0.8552667
0.861773
0.8631255
0.8651279
0.8651802
0.864454
0.8630687
0.8625239
0.863768
0.8617887
0.8607955
1.125815
1.048691
0.8490913
0.8416133
0.8408096
0.8459408
0.8608809
0.8661458
0.8716906
0.8721959
0.873223
0.8728862
0.8720095
0.8707908
0.8696304
0.8696257
0.8678711
0.8666833
1.125792
1.05177
0.8606352
0.8574902
0.8502868
0.8643754
0.8707261
0.8775925
0.8822648
0.8811882
0.8813756
0.8807885
0.8796121
0.87818
0.8773796
0.8753073
0.8743259
0.8729009
1.125767
1.05484
0.8768036
0.8695251
0.8692713
0.8772858
0.884002
0.8880642
0.8925511
0.8899846
0.8897854
0.8889053
0.8874239
0.8853615
0.8861817
0.8807852
0.8810734
0.8791569
1.12574
1.057724
0.8920862
0.8859821
0.8801238
0.8947728
0.8973735
0.9005751
0.9016514
0.898581
0.8984329
0.8972042
0.8953486
0.8929623
0.8926573
0.8893486
0.8877764
0.885505
1.12571
1.06036
0.9049452
0.9020785
0.8949456
0.9054433
0.9120401
0.9115677
0.9117661
0.9079517
0.9070902
0.9055934
0.9033898
0.9000885
0.9009002
0.8964509
0.8946167
0.8923008
1.125676
1.063097
0.9179363
0.9178206
0.9109412
0.9191464
0.921993
0.9222369
0.9211535
0.9182789
0.9159312
0.9140846
0.9114851
0.9060295
0.9088435
0.9034791
0.9015728
0.8986865
1.12564
1.065507
0.9296497
0.9327754
0.9276892
0.9329167
0.9335273
0.93143
0.9320272
0.927055
0.9254472
0.9223988
0.9197876
0.9132255
0.9178342
0.9112736
0.9088392
0.9052755
1.1256
1.067841
0.9406559
0.9462768
0.9474608
0.945181
0.9447279
0.942745
0.9412683
0.9367718
0.9341442
0.9315892
0.9276076
0.9216089
0.9268609
0.9200208
0.916147
0.911632
1.125556
1.070183
0.9520161
0.9567729
0.969267
0.9554578
0.9558256
0.9535632
0.9493162
0.9466498
0.943497
0.9402581
0.9358447
0.9300791
0.9336747
0.9271135
0.9236471
0.9190061
1.125507
1.072827
0.9681118
0.9639179
0.9873716
0.9651919
0.9669081
0.9641962
0.9570244
0.9567019
0.9530176
0.9491892
0.944463
0.9402293
0.9399925
0.9340699
0.930529
0.9240601
1.125451
1.075723
0.9934844
0.9636795
0.9931693
0.9822567
0.9786481
0.9755065
0.9678416
0.9666805
0.9621502
0.9578832
0.952966
0.9510902
0.9469909
0.9418756
0.9376361
0.9321545
1.125383
1.079073
1.016951
0.9586141
0.9944854
1.003041
0.9911874
0.9891871
0.979251
0.97457
0.9703109
0.965939
0.9607292
0.9609896
0.9530921
0.9504349
0.9455041
0.9407711
1.125298
1.082615
1.029342
0.9849592
1.000394
1.007692
1.000515
0.9999114
0.9864668
0.9805874
0.9776633
0.9738594
0.9677771
0.9681702
0.9627272
0.9579296
0.9527559
0.9499968
1.125191
1.084786
1.030867
1.038074
0.9857892
1.014149
1.007229
1.002876
0.998671
0.9889709
0.9855291
0.9818401
0.9766197
0.9773232
0.9712648
0.9656857
0.9612617
0.9588052
1.125102
1.085351
1.043014
1.056267
1.028995
1.006814
1.010525
1.010039
0.9989918
0.9957366
0.9930335
0.989451
0.9877214
0.9833126
0.979703
0.9739452
0.9696266
0.9677845
1.124823
1.095599
1.064275
1.056364
1.053322
1.011068
1.013696
1.007528
1.00427
1.007544
1.002671
0.9984382
0.9954533
0.9923057
0.9871973
0.9810837
0.9819348
0.9719147
1.12468
1.100734
1.069469
1.05565
1.048242
1.033271
1.02332
1.012817
1.019998
1.014592
1.010743
1.006809
1.006035
1.00014
0.9950138
0.9911957
0.9916403
0.9770276
1.124271
1.10736
1.075
1.067
1.055559
1.035281
1.029555
1.026354
1.021652
1.021851
1.019287
1.015714
1.01641
1.004702
1.003731
0.9995618
0.9996258
0.9886632
1.12372
1.114835
1.080178
1.073126
1.055798
1.03955
1.034394
1.031031
1.031197
1.02933
1.027628
1.026773
1.025066
1.018224
1.013103
1.009245
1.004559
0.9957851
1.121251
1.120378
1.078533
1.055955
1.042377
1.038189
1.038285
1.038216
1.038464
1.03746
1.035673
1.037253
1.028033
1.027045
1.02352
1.021191
1.01207
1.005167
1.11859
1.122345
1.098677
1.067892
1.036769
1.041351
1.044736
1.045108
1.046881
1.045552
1.044581
1.045766
1.036158
1.035772
1.035111
1.024441
1.021306
1.015104
0.6619642
1.122271
1.101615
1.064914
1.047526
1.048655
1.052683
1.053654
1.055256
1.053358
1.0522
1.051663
1.043631
1.044344
1.040705
1.033063
1.029593
1.024397
0.6322378
1.124028
1.098529
1.063284
1.05695
1.057972
1.062989
1.062733
1.062889
1.06151
1.060995
1.05815
1.055344
1.050587
1.048032
1.041399
1.036561
1.030652
0.6300262
1.124743
1.09458
1.072718
1.07062
1.069847
1.071241
1.07098
1.070511
1.069311
1.069677
1.062452
1.061945
1.055755
1.056375
1.048417
1.043731
1.03773
0.6300208
1.124852
1.097564
1.074685
1.079875
1.078572
1.078292
1.077883
1.077403
1.076208
1.076726
1.070155
1.068252
1.06393
1.064019
1.055016
1.050591
1.045422
0.6301128
1.124507
1.088495
1.073308
1.081805
1.085487
1.084365
1.084423
1.084438
1.082261
1.082258
1.075418
1.078173
1.069431
1.067898
1.061652
1.057541
1.050962
0.6300684
1.125114
1.058909
1.067537
1.078943
1.090444
1.090207
1.09046
1.090583
1.088142
1.088458
1.085277
1.083394
1.07524
1.07466
1.068962
1.06299
1.058024
0.6300676
1.124827
1.076109
1.071966
1.088949
1.094707
1.095986
1.095625
1.095537
1.093973
1.092883
1.091533
1.085742
1.0827
1.0797
1.072536
1.070283
1.06227
0.6300167
1.124519
1.073134
1.065413
1.097728
1.099006
1.101266
1.101255
1.101563
1.100442
1.097665
1.097816
1.0902
1.089771
1.083845
1.079736
1.07367
1.069424
0.6300225
1.123832
1.086873
1.094396
1.103475
1.105561
1.106347
1.106557
1.106765
1.10465
1.10393
1.101374
1.096461
1.093676
1.090443
1.082909
1.08117
1.071162
0.6300457
1.117773
1.105142
1.115531
1.110694
1.110205
1.110494
1.110967
1.110768
1.107785
1.10887
1.105527
1.100838
1.098005
1.093886
1.08984
1.08368
1.077212
0.6300265
1.119376
1.071389
1.118788
1.114363
1.112848
1.11149
1.107523
1.106512
1.101905
1.096988
1.095222
1.087565
1.08062
0.6300536
0.6302604
1.116935
1.110639
1.110621
1.105476
1.101766
1.097258
1.093148
1.083809
0.6300584
1.11849
1.109863
1.111047
1.104797
1.099119
1.094853
1.086698
1.115093
1.11218
1.107433
1.101731
1.09797
1.089135
1.112521
1.109632
1.103371
1.09905
1.091736
1.111876
1.111391
1.105791
1.099447
1.093683
1.114779
1.112047
1.106453
1.1001
1.094692
1.115633
1.11127
1.106636
1.100408
1.094845
1.114406
1.111114
1.106983
1.10003
1.094324
1.113877
1.11034
1.104991
1.099767
1.093353
1.115437
1.114228
1.108586
1.103573
1.096292
1.091213
0.6300994
1.11231
1.112701
1.106972
1.101219
1.095742
1.08798
0.6302826
0.6301842
1.114371
1.110128
1.108279
1.105292
1.097584
1.093689
1.084775
0.6301748
1.11862
1.119211
1.115374
1.114077
1.110346
1.107503
1.104768
1.10225
1.093326
1.091564
1.082246
0.6300436
1.120353
1.094841
1.101657
1.108945
1.110873
1.112345
1.113611
1.110519
1.113607
1.108728
1.107826
1.105127
1.098323
1.098326
1.088028
1.087942
1.076543
0.6300717
1.122465
1.088073
1.106745
1.110796
1.109939
1.109757
1.110112
1.105739
1.108372
1.105287
1.102636
1.100683
1.097298
1.090613
1.087881
1.08076
1.074648
0.630018
1.124058
1.115529
1.108938
1.107361
1.107175
1.105983
1.104399
1.103598
1.103872
1.099741
1.097565
1.09431
1.091788
1.087741
1.079797
1.079317
1.06912
0.6302352
1.123925
1.104504
1.110918
1.10385
1.100138
1.100989
1.099777
1.099239
1.098593
1.094377
1.095082
1.087908
1.085323
1.081151
1.078437
1.070798
1.063888
0.6303198
1.12373
1.098331
1.102057
1.099683
1.097473
1.096545
1.094957
1.093897
1.093548
1.087788
1.091268
1.082574
1.079846
1.077285
1.069729
1.066073
1.058478
0.6301162
1.123445
1.0934
1.099966
1.095096
1.093504
1.091148
1.089856
1.08771
1.086958
1.084354
1.083411
1.078382
1.073269
1.069886
1.066771
1.058428
1.051299
0.630186
1.124196
1.102515
1.09407
1.086461
1.085982
1.085236
1.084254
1.082129
1.081165
1.080111
1.075057
1.073491
1.065283
1.063509
1.05919
1.055088
1.04559
0.6308895
1.123789
1.09085
1.08806
1.076904
1.076075
1.076816
1.076564
1.075694
1.074057
1.074386
1.06818
1.067619
1.05959
1.056847
1.052166
1.047335
1.04217
0.6324858
1.121922
1.070227
1.056834
1.054175
1.064003
1.068288
1.070008
1.068845
1.06674
1.067564
1.060763
1.059386
1.049968
1.049093
1.046578
1.04192
1.034836
0.6504891
1.122173
1.054729
1.021521
1.044115
1.058345
1.060542
1.063664
1.061597
1.059572
1.059946
1.053097
1.052156
1.042361
1.043854
1.037925
1.033655
1.028438
1.12129
1.115284
1.052771
1.030692
1.046155
1.055871
1.054929
1.058154
1.054575
1.051985
1.051616
1.046222
1.044897
1.03905
1.036233
1.030372
1.027296
1.021779
1.122706
1.103324
1.045717
1.019128
1.036145
1.052925
1.048062
1.049731
1.047044
1.045448
1.043986
1.040235
1.035486
1.032246
1.028874
1.023572
1.017104
1.013532
1.124732
1.084272
1.033297
1.016394
1.039803
1.048395
1.039095
1.03797
1.035962
1.037135
1.036027
1.03507
1.028473
1.025078
1.022203
1.018089
1.008824
1.005605
1.124892
1.074203
1.028274
1.02274
1.053147
1.032263
1.025878
1.029832
1.032011
1.026199
1.025669
1.026631
1.017573
1.018169
1.014093
1.010303
0.9989017
0.9979734
1.125052
1.086967
1.03418
1.04687
1.035996
1.020845
1.027115
1.025193
1.019362
1.025035
1.017099
1.016676
1.011444
1.00837
1.003887
0.9972395
0.9931928
0.9909569
1.125348
1.086852
1.045354
1.042733
1.006801
1.021242
1.017427
1.018373
1.014439
1.01305
1.008686
1.006988
1.005375
0.9978325
0.9961186
0.9887193
0.9876533
0.9779084
1.125337
1.073742
1.03515
1.033161
0.9827618
1.018775
1.013588
1.007831
1.011365
1.00407
1.000848
0.9981253
0.9965231
0.9889478
0.9878203
0.9818935
0.9822671
0.9692859
1.125373
1.075429
1.017228
1.016191
0.982241
1.008336
1.003544
0.9988279
0.9973763
0.9983087
0.993151
0.9898262
0.9868074
0.9820351
0.9789398
0.9740757
0.9720536
0.9626881
1.125419
1.074842
1.003852
0.9917748
1.002692
0.9909111
0.9933381
0.9905816
0.9875302
0.985983
0.9833518
0.9809157
0.978265
0.973167
0.9711622
0.9659304
0.9616871
0.9536765
1.125465
1.073639
0.9944633
0.9829733
0.9865825
0.9874119
0.984673
0.9805165
0.9783755
0.9780099
0.9748391
0.971992
0.9692539
0.9640786
0.9645082
0.9579265
0.9529931
0.948784
1.125509
1.072392
0.9833794
0.9745625
0.9806728
0.977642
0.9753085
0.9712879
0.9703668
0.967775
0.965526
0.9630589
0.9599095
0.9535394
0.9562749
0.9489955
0.9453912
0.9384585
1.125549
1.071048
0.9741992
0.9656331
0.9729169
0.9699956
0.9669222
0.9623236
0.9598908
0.9582069
0.9562256
0.9539181
0.9512817
0.9463969
0.946249
0.9413583
0.9375535
0.931057
1.125586
1.069607
0.965304
0.9574998
0.9647103
0.9615572
0.9580156
0.9539864
0.9502357
0.9489137
0.9469671
0.944963
0.9420252
0.9387723
0.9380387
0.9338812
0.9298143
0.9254244
1.125619
1.068233
0.9564944
0.9491204
0.9570604
0.9528796
0.949378
0.9458544
0.941329
0.9393363
0.9379456
0.9356225
0.9334433
0.9313421
0.9285703
0.9250588
0.9223891
0.9188665
1.12565
1.066675
0.947743
0.941011
0.9494973
0.9447096
0.9407823
0.936956
0.9327978
0.9299779
0.9285782
0.9265906
0.9248681
0.9203645
0.9224077
0.9185775
0.9148912
0.91145
1.125677
1.065478
0.9386865
0.9328185
0.9416269
0.9365196
0.9321782
0.9286687
0.9247259
0.9209598
0.9192933
0.9179115
0.9163627
0.9122779
0.9138118
0.9102421
0.9071457
0.9041264
1.125703
1.064027
0.9303476
0.9251957
0.9333869
0.9288153
0.9249664
0.9203667
0.9168025
0.9123993
0.9106299
0.9093222
0.9078881
0.9055731
0.906385
0.9036463
0.8999446
0.8973352
1.125724
1.06297
0.9199544
0.9161791
0.9256471
0.9242622
0.9167511
0.9123845
0.907859
0.9049954
0.9021955
0.9007298
0.899621
0.8987078
0.8975622
0.8970522
0.8931918
0.890777
1.125744
1.061946
0.9076513
0.9083043
0.9235157
0.9169231
0.9081459
0.9037986
0.9011015
0.8970877
0.8939823
0.8924679
0.8915954
0.8907888
0.8882135
0.8908967
0.8864272
0.8841108
1.12576
1.060827
0.895007
0.9115715
0.9156268
0.9064611
0.9023232
0.8963224
0.8925527
0.8891359
0.8862015
0.8844404
0.8837857
0.8831572
0.8791318
0.884249
0.8790936
0.8776636
1.125777
1.060274
0.8986529
0.9029635
0.9021216
0.9032196
0.8932113
0.8874132
0.8846866
0.8814132
0.8787776
0.8764119
0.8759819
0.8757225
0.8723527
0.8765086
0.8725673
0.8712585
1.125791
1.06077
0.8869197
0.8889581
0.8989042
0.8926872
0.8844543
0.8807715