/*--------------------------------*- C++ -*----------------------------------*\
| =========                 |                                                 |
| \\      /  F ield         | OpenFOAM: The Open Source CFD Toolbox           |
|  \\    /   O peration     | Version:  2206                                  |
|   \\  /    A nd           | Website:  www.openfoam.com                      |
|    \\/     M anipulation  |                                                 |
\*---------------------------------------------------------------------------*/
FoamFile
{
    version     2.0;
    format      ascii;
    arch        "LSB;label=32;scalar=64";
    class       volScalarField;
    location    "2.6";
    object      nuEffb;
}
// * * * * * * * * * * * * * * * * * * * * * * * * * * * * * * * * * * * * * //

dimensions      [0 2 -1 0 0 0 0];

internalField   nonuniform List<scalar> 
13078
(
1.08693e-05
2.994487e-05
4.938256e-05
5.126419e-05
5.085267e-05
4.997245e-05
4.89474e-05
3.428194e-05
4.862804e-05
5.190525e-05
5.167267e-05
5.092159e-05
5.001064e-05
4.897716e-05
5.205392e-05
5.293038e-05
5.265713e-05
5.189951e-05
5.102667e-05
5.007672e-05
4.902433e-05
5.488734e-05
5.38106e-05
5.294248e-05
5.206282e-05
5.113581e-05
5.015038e-05
4.907881e-05
5.522963e-05
5.405749e-05
5.309841e-05
5.21692e-05
5.122944e-05
5.0222e-05
4.913367e-05
5.516765e-05
5.410233e-05
5.317404e-05
5.224154e-05
5.128534e-05
5.028182e-05
4.918543e-05
5.507902e-05
5.409385e-05
5.320532e-05
5.228396e-05
5.13254e-05
5.031426e-05
4.922907e-05
5.501137e-05
5.406807e-05
5.321444e-05
5.230443e-05
5.134826e-05
5.033751e-05
4.924949e-05
5.496197e-05
5.404144e-05
5.32084e-05
5.231009e-05
5.136002e-05
5.035201e-05
4.926465e-05
5.492579e-05
5.401802e-05
5.319795e-05
5.230951e-05
5.136515e-05
5.036062e-05
4.927476e-05
5.489839e-05
5.399836e-05
5.318691e-05
5.230572e-05
5.136633e-05
5.036536e-05
4.928169e-05
5.487634e-05
5.398232e-05
5.317631e-05
5.230039e-05
5.136526e-05
5.036765e-05
4.928624e-05
5.485838e-05
5.396848e-05
5.316643e-05
5.229464e-05
5.136294e-05
5.036835e-05
4.92893e-05
5.484293e-05
5.395642e-05
5.315735e-05
5.228892e-05
5.136021e-05
5.036816e-05
4.929146e-05
5.482928e-05
5.394562e-05
5.314928e-05
5.228888e-05
5.136448e-05
5.036846e-05
4.929309e-05
5.481668e-05
5.393565e-05
5.31418e-05
5.228958e-05
5.136615e-05
5.036812e-05
4.929453e-05
5.480453e-05
5.392583e-05
5.313402e-05
5.228486e-05
5.136343e-05
5.036724e-05
4.929579e-05
5.479242e-05
5.391623e-05
5.312637e-05
5.227966e-05
5.136043e-05
5.036631e-05
4.929704e-05
5.478005e-05
5.390643e-05
5.311865e-05
5.227426e-05
5.135741e-05
5.036574e-05
4.929812e-05
5.476714e-05
5.389638e-05
5.311078e-05
5.226938e-05
5.136248e-05
5.037555e-05
4.93007e-05
5.475345e-05
5.388555e-05
5.310237e-05
5.226413e-05
5.136793e-05
5.038144e-05
4.930314e-05
5.473842e-05
5.387383e-05
5.309305e-05
5.22576e-05
5.136567e-05
5.038126e-05
4.930479e-05
5.4722e-05
5.386103e-05
5.3083e-05
5.225075e-05
5.136199e-05
5.038103e-05
4.930759e-05
5.470372e-05
5.38467e-05
5.307183e-05
5.22432e-05
5.1359e-05
5.039172e-05
4.932458e-05
5.468317e-05
5.383072e-05
5.305924e-05
5.223475e-05
5.13552e-05
5.040283e-05
4.933591e-05
5.466005e-05
5.381267e-05
5.304523e-05
5.222518e-05
5.134998e-05
5.040431e-05
4.934029e-05
5.463363e-05
5.379216e-05
5.302931e-05
5.221429e-05
5.134403e-05
5.040363e-05
4.934497e-05
5.460389e-05
5.376914e-05
5.301137e-05
5.22019e-05
5.133732e-05
5.040328e-05
4.93645e-05
5.456988e-05
5.374275e-05
5.299115e-05
5.218784e-05
5.132929e-05
5.040136e-05
4.93836e-05
5.453475e-05
5.371643e-05
5.296956e-05
5.217217e-05
5.131953e-05
5.039704e-05
4.938898e-05
5.449385e-05
5.36855e-05
5.294492e-05
5.215468e-05
5.130825e-05
5.03912e-05
4.938986e-05
5.444838e-05
5.365711e-05
5.292649e-05
5.213701e-05
5.129517e-05
5.03829e-05
4.938635e-05
5.440009e-05
5.362653e-05
5.29107e-05
5.213071e-05
5.128535e-05
5.037551e-05
4.938065e-05
5.435212e-05
5.359723e-05
5.289878e-05
5.212256e-05
5.128324e-05
5.038006e-05
4.938562e-05
5.43098e-05
5.35831e-05
5.2907e-05
5.216225e-05
5.134056e-05
5.042949e-05
4.942686e-05
5.428939e-05
5.360455e-05
5.297257e-05
5.227889e-05
5.149301e-05
5.058345e-05
4.95405e-05
5.430877e-05
5.370892e-05
5.315898e-05
5.252334e-05
5.176768e-05
5.079552e-05
4.966624e-05
5.440728e-05
5.395879e-05
5.349446e-05
5.287155e-05
5.209242e-05
5.104438e-05
4.973549e-05
5.464149e-05
5.434699e-05
5.391706e-05
5.326263e-05
5.240167e-05
5.129324e-05
4.971729e-05
5.505064e-05
5.481895e-05
5.435481e-05
5.364838e-05
5.269399e-05
5.148104e-05
4.978286e-05
5.559829e-05
5.529846e-05
5.482514e-05
5.400245e-05
5.299042e-05
5.169715e-05
5.000076e-05
5.626058e-05
5.572749e-05
5.525415e-05
5.441652e-05
5.329376e-05
5.197929e-05
5.043821e-05
5.695687e-05
5.611958e-05
5.560252e-05
5.47932e-05
5.374652e-05
5.239554e-05
5.118063e-05
5.762565e-05
5.635409e-05
5.591985e-05
5.507238e-05
5.411335e-05
5.304747e-05
5.191151e-05
5.806162e-05
5.64723e-05
5.606816e-05
5.525893e-05
5.438731e-05
5.370011e-05
5.28898e-05
5.820914e-05
5.650336e-05
5.61338e-05
5.535577e-05
5.46738e-05
5.413758e-05
5.355353e-05
5.820196e-05
5.651622e-05
5.609474e-05
5.540886e-05
5.495141e-05
5.448167e-05
5.372625e-05
5.822564e-05
5.661494e-05
5.620135e-05
5.554422e-05
5.528479e-05
5.471726e-05
5.383097e-05
5.826213e-05
5.677225e-05
5.643118e-05
5.579271e-05
5.549207e-05
5.485901e-05
5.377528e-05
5.830378e-05
5.696376e-05
5.667509e-05
5.606327e-05
5.573443e-05
5.485397e-05
5.347124e-05
5.833639e-05
5.723538e-05
5.693056e-05
5.622899e-05
5.577085e-05
5.460356e-05
5.295138e-05
5.825566e-05
5.736328e-05
5.717402e-05
5.649331e-05
5.579668e-05
5.427268e-05
5.241403e-05
5.803294e-05
5.729529e-05
5.702297e-05
5.633257e-05
5.545699e-05
5.378611e-05
5.194102e-05
5.774027e-05
5.709148e-05
5.67794e-05
5.597141e-05
5.490824e-05
5.31207e-05
5.184854e-05
5.742208e-05
5.682824e-05
5.6451e-05
5.555e-05
5.437004e-05
5.271358e-05
5.188912e-05
5.707203e-05
5.649512e-05
5.606451e-05
5.514139e-05
5.397626e-05
5.254646e-05
5.195664e-05
5.671732e-05
5.6021e-05
5.555881e-05
5.469847e-05
5.368283e-05
5.242839e-05
5.193408e-05
5.649044e-05
5.565604e-05
5.521356e-05
5.445764e-05
5.360087e-05
5.2387e-05
5.187739e-05
5.628257e-05
5.531318e-05
5.489313e-05
5.422344e-05
5.349878e-05
5.229453e-05
5.170108e-05
5.607565e-05
5.494113e-05
5.450852e-05
5.390394e-05
5.328121e-05
5.217181e-05
5.140777e-05
5.591755e-05
5.462658e-05
5.414221e-05
5.344512e-05
5.291734e-05
5.183388e-05
5.088217e-05
5.580861e-05
5.438847e-05
5.387227e-05
5.310817e-05
5.264411e-05
5.161628e-05
5.054906e-05
5.572855e-05
5.422228e-05
5.361126e-05
5.272652e-05
5.226294e-05
5.138052e-05
5.013395e-05
5.569409e-05
5.416936e-05
5.350348e-05
5.248432e-05
5.192128e-05
5.113475e-05
4.99011e-05
5.575219e-05
5.427247e-05
5.355955e-05
5.240799e-05
5.1647e-05
5.094214e-05
4.9746e-05
5.594593e-05
5.445995e-05
5.373751e-05
5.249833e-05
5.131854e-05
5.046354e-05
4.94939e-05
5.614793e-05
5.468062e-05
5.391419e-05
5.26376e-05
5.113538e-05
5.000759e-05
4.925392e-05
5.615329e-05
5.480624e-05
5.395856e-05
5.273646e-05
5.117112e-05
4.967151e-05
4.871345e-05
5.588444e-05
5.483098e-05
5.397024e-05
5.278875e-05
5.130157e-05
4.956726e-05
4.806153e-05
5.546139e-05
5.473154e-05
5.391833e-05
5.276547e-05
5.137447e-05
4.966189e-05
4.783341e-05
5.503632e-05
5.451814e-05
5.380225e-05
5.274362e-05
5.143331e-05
4.986114e-05
4.798187e-05
5.466593e-05
5.426912e-05
5.364365e-05
5.271248e-05
5.154038e-05
5.010077e-05
4.842189e-05
5.439924e-05
5.398759e-05
5.342479e-05
5.26381e-05
5.162227e-05
5.039647e-05
4.874988e-05
5.425193e-05
5.373304e-05
5.318804e-05
5.247652e-05
5.160487e-05
5.053835e-05
4.911351e-05
5.420712e-05
5.356702e-05
5.29737e-05
5.228805e-05
5.14914e-05
5.050516e-05
4.931875e-05
5.421704e-05
5.350527e-05
5.284724e-05
5.213388e-05
5.133129e-05
5.039853e-05
4.934147e-05
5.425581e-05
5.350577e-05
5.281165e-05
5.206346e-05
5.123159e-05
5.03146e-05
4.930405e-05
5.431125e-05
5.353652e-05
5.282549e-05
5.205018e-05
5.12057e-05
5.028584e-05
4.928941e-05
5.436765e-05
5.357919e-05
5.285587e-05
5.206166e-05
5.12097e-05
5.029813e-05
4.930376e-05
5.44217e-05
5.362214e-05
5.288635e-05
5.209057e-05
5.123642e-05
5.032153e-05
4.932564e-05
5.447247e-05
5.365943e-05
5.291222e-05
5.211088e-05
5.126085e-05
5.034356e-05
4.934382e-05
5.451755e-05
5.369239e-05
5.293796e-05
5.213722e-05
5.128309e-05
5.036078e-05
4.935576e-05
5.455638e-05
5.372475e-05
5.296704e-05
5.216078e-05
5.130151e-05
5.037399e-05
4.936224e-05
5.458934e-05
5.375192e-05
5.299146e-05
5.218084e-05
5.131647e-05
5.03842e-05
4.936383e-05
5.462089e-05
5.377819e-05
5.301341e-05
5.219806e-05
5.132851e-05
5.039074e-05
4.934914e-05
5.464842e-05
5.380071e-05
5.303234e-05
5.221241e-05
5.133826e-05
5.03947e-05
4.933407e-05
5.467271e-05
5.382056e-05
5.304875e-05
5.222462e-05
5.13463e-05
5.039804e-05
4.933235e-05
5.469385e-05
5.383766e-05
5.306278e-05
5.223506e-05
5.135298e-05
5.039874e-05
4.933037e-05
5.471274e-05
5.385271e-05
5.30751e-05
5.224419e-05
5.135778e-05
5.038846e-05
4.932007e-05
5.472945e-05
5.386621e-05
5.308605e-05
5.225193e-05
5.136154e-05
5.037936e-05
4.930471e-05
5.47445e-05
5.387813e-05
5.309575e-05
5.225882e-05
5.136567e-05
5.038018e-05
4.930295e-05
5.475813e-05
5.3889e-05
5.310464e-05
5.226517e-05
5.136814e-05
5.038092e-05
4.930195e-05
5.477063e-05
5.389896e-05
5.311243e-05
5.227009e-05
5.136224e-05
5.03748e-05
4.929984e-05
5.478232e-05
5.390815e-05
5.311968e-05
5.227458e-05
5.135739e-05
5.036534e-05
4.929751e-05
5.479341e-05
5.391692e-05
5.31266e-05
5.227964e-05
5.136027e-05
5.036593e-05
4.929674e-05
5.480415e-05
5.39254e-05
5.313349e-05
5.228436e-05
5.136311e-05
5.036704e-05
4.929584e-05
5.481487e-05
5.393399e-05
5.314043e-05
5.228866e-05
5.136574e-05
5.036805e-05
4.929479e-05
5.482572e-05
5.394256e-05
5.31469e-05
5.228714e-05
5.136358e-05
5.036844e-05
4.92936e-05
5.483716e-05
5.39517e-05
5.315381e-05
5.228688e-05
5.135937e-05
5.036833e-05
4.929244e-05
5.484989e-05
5.396178e-05
5.316169e-05
5.229214e-05
5.136219e-05
5.036901e-05
4.929098e-05
5.486429e-05
5.397338e-05
5.317034e-05
5.229767e-05
5.136498e-05
5.036928e-05
4.928912e-05
5.488158e-05
5.398662e-05
5.317977e-05
5.230314e-05
5.136717e-05
5.036865e-05
4.92863e-05
5.490276e-05
5.400226e-05
5.319002e-05
5.230819e-05
5.136821e-05
5.036653e-05
4.928193e-05
5.492936e-05
5.402133e-05
5.320079e-05
5.231189e-05
5.136717e-05
5.036202e-05
4.927535e-05
5.496453e-05
5.404443e-05
5.321064e-05
5.231276e-05
5.136239e-05
5.035358e-05
4.926504e-05
5.501273e-05
5.407068e-05
5.321271e-05
5.230463e-05
5.135056e-05
5.033897e-05
4.92505e-05
5.507933e-05
5.409644e-05
5.320581e-05
5.228394e-05
5.132712e-05
5.031724e-05
4.921378e-05
5.516677e-05
5.410702e-05
5.317969e-05
5.224586e-05
5.129185e-05
5.026977e-05
4.916869e-05
5.523407e-05
5.406635e-05
5.310631e-05
5.218157e-05
5.122128e-05
5.020909e-05
4.911818e-05
5.491424e-05
5.383154e-05
5.296966e-05
5.205986e-05
5.112794e-05
5.013964e-05
4.906328e-05
5.236418e-05
5.304461e-05
5.266171e-05
5.189979e-05
5.102288e-05
5.006627e-05
4.900829e-05
3.562057e-05
4.96026e-05
5.217465e-05
5.169525e-05
5.090997e-05
4.999424e-05
4.895692e-05
4.777201e-05
4.636552e-05
4.460028e-05
4.302996e-05
4.046481e-05
3.693638e-05
3.054218e-05
4.780075e-05
4.63984e-05
4.463801e-05
4.307081e-05
4.050985e-05
3.698899e-05
3.076519e-05
4.783974e-05
4.643662e-05
4.468321e-05
4.254911e-05
4.055325e-05
3.703947e-05
3.088203e-05
4.788367e-05
4.647702e-05
4.472097e-05
4.316666e-05
4.059802e-05
3.709064e-05
3.098681e-05
4.792874e-05
4.651942e-05
4.476519e-05
4.321602e-05
4.064442e-05
3.714195e-05
3.105847e-05
4.797273e-05
4.656222e-05
4.48101e-05
4.326441e-05
4.069014e-05
3.719284e-05
3.112459e-05
4.801425e-05
4.660365e-05
4.485409e-05
4.331007e-05
4.070399e-05
3.724352e-05
3.118671e-05
4.804995e-05
4.664347e-05
4.489682e-05
4.335453e-05
4.071699e-05
3.729381e-05
3.124244e-05
4.806421e-05
4.667868e-05
4.493708e-05
4.33987e-05
4.075411e-05
3.733909e-05
3.129688e-05
4.807513e-05
4.669065e-05
4.497355e-05
4.344223e-05
4.079019e-05
3.738445e-05
3.134762e-05
4.808313e-05
4.669987e-05
4.498479e-05
4.348362e-05
4.082616e-05
3.742994e-05
3.139566e-05
4.808939e-05
4.670767e-05
4.499355e-05
4.349326e-05
4.086229e-05
3.747573e-05
3.144151e-05
4.809431e-05
4.671451e-05
4.50019e-05
4.3502e-05
4.086886e-05
3.752294e-05
3.14848e-05
4.809849e-05
4.672078e-05
4.501005e-05
4.351098e-05
4.087632e-05
3.753171e-05
3.151803e-05
4.810223e-05
4.672697e-05
4.501825e-05
4.352016e-05
4.088438e-05
3.754273e-05
3.149579e-05
4.810586e-05
4.673313e-05
4.502656e-05
4.352976e-05
4.089324e-05
3.755489e-05
3.14648e-05
4.810935e-05
4.67394e-05
4.503507e-05
4.354021e-05
4.090716e-05
3.756777e-05
3.144044e-05
4.81129e-05
4.674566e-05
4.504419e-05
4.355538e-05
4.100977e-05
3.758196e-05
3.140829e-05
4.811654e-05
4.675192e-05
4.505359e-05
4.356716e-05
4.102855e-05
3.759665e-05
3.137984e-05
4.812051e-05
4.675861e-05
4.506356e-05
4.357963e-05
4.104239e-05
3.761236e-05
3.134818e-05
4.812465e-05
4.676569e-05
4.50739e-05
4.35929e-05
4.105698e-05
3.762894e-05
3.13068e-05
4.812926e-05
4.677325e-05
4.508449e-05
4.360716e-05
4.107247e-05
3.764648e-05
3.127267e-05
4.813405e-05
4.678168e-05
4.509644e-05
4.361981e-05
4.109306e-05
3.766485e-05
3.123738e-05
4.814146e-05
4.679112e-05
4.511208e-05
4.308644e-05
4.120696e-05
3.769371e-05
3.120342e-05
4.814871e-05
4.680054e-05
4.512391e-05
4.364902e-05
4.12568e-05
3.771811e-05
3.117136e-05
4.815545e-05
4.681106e-05
4.51392e-05
4.367601e-05
4.128173e-05
3.774169e-05
3.113932e-05
4.816539e-05
4.682455e-05
4.515788e-05
4.369967e-05
4.130761e-05
3.776866e-05
3.110521e-05
4.819446e-05
4.684096e-05
4.517568e-05
4.372421e-05
4.134227e-05
3.795696e-05
3.107646e-05
4.820871e-05
4.722366e-05
4.56296e-05
4.373285e-05
4.137675e-05
3.803322e-05
3.105745e-05
4.821975e-05
4.724017e-05
4.565883e-05
4.376346e-05
4.141238e-05
3.806776e-05
3.104339e-05
4.82583e-05
4.728323e-05
4.567991e-05
4.379403e-05
4.145099e-05
3.821654e-05
3.104974e-05
4.827387e-05
4.731719e-05
4.569938e-05
4.382618e-05
4.1489e-05
3.837117e-05
3.108744e-05
4.827221e-05
4.738089e-05
4.572304e-05
4.385281e-05
4.15227e-05
3.841774e-05
3.120422e-05
4.826886e-05
4.739058e-05
4.575252e-05
4.385752e-05
4.153584e-05
3.84918e-05
3.220081e-05
4.827802e-05
4.738328e-05
4.575725e-05
4.381332e-05
4.149156e-05
3.864628e-05
3.294441e-05
4.828511e-05
4.735646e-05
4.572187e-05
4.360488e-05
4.13084e-05
3.892321e-05
3.549317e-05
4.821136e-05
4.720057e-05
4.534271e-05
4.310139e-05
4.09699e-05
3.890192e-05
3.562842e-05
4.799588e-05
4.681818e-05
4.480976e-05
4.280121e-05
4.051394e-05
3.792846e-05
3.576345e-05
4.768823e-05
4.632226e-05
4.430971e-05
4.238972e-05
3.973025e-05
3.745138e-05
3.571642e-05
4.756302e-05
4.593449e-05
4.405685e-05
4.200656e-05
3.979093e-05
3.757639e-05
3.511222e-05
4.776022e-05
4.601992e-05
4.443218e-05
4.191265e-05
3.980757e-05
3.762218e-05
3.373448e-05
4.87101e-05
4.690528e-05
4.468846e-05
4.170975e-05
3.984448e-05
3.793943e-05
3.407001e-05
4.963212e-05
4.760476e-05
4.489569e-05
4.192969e-05
4.042428e-05
3.861059e-05
3.438336e-05
5.050906e-05
4.820055e-05
4.504295e-05
4.257717e-05
4.15103e-05
3.896105e-05
3.535514e-05
5.127643e-05
4.928452e-05
4.592036e-05
4.343977e-05
4.193242e-05
3.942331e-05
3.600148e-05
5.213658e-05
5.02323e-05
4.684026e-05
4.443103e-05
4.232834e-05
4.015943e-05
3.646552e-05
5.253338e-05
5.078398e-05
4.731063e-05
4.547961e-05
4.345787e-05
4.013509e-05
3.711556e-05
5.232464e-05
5.069196e-05
4.769433e-05
4.65884e-05
4.39262e-05
4.152839e-05
3.914878e-05
5.195689e-05
5.037117e-05
4.819934e-05
4.711889e-05
4.453593e-05
4.166542e-05
4.02941e-05
5.148412e-05
4.999478e-05
4.874219e-05
4.760459e-05
4.486148e-05
4.258324e-05
4.002972e-05
5.107612e-05
5.032961e-05
4.948864e-05
4.788495e-05
4.559436e-05
4.330645e-05
4.026115e-05
5.092715e-05
5.075357e-05
5.016265e-05
4.844645e-05
4.648617e-05
4.41224e-05
4.126102e-05
5.10261e-05
5.118509e-05
5.054253e-05
4.876899e-05
4.675745e-05
4.487551e-05
4.29576e-05
5.146513e-05
5.172422e-05
5.025027e-05
4.822759e-05
4.680531e-05
4.543196e-05
4.406088e-05
5.172973e-05
5.176392e-05
5.00722e-05
4.795279e-05
4.672634e-05
4.716757e-05
4.661904e-05
5.191828e-05
5.158289e-05
4.986933e-05
4.790651e-05
4.708122e-05
4.637134e-05
5.180478e-05
5.132172e-05
4.95593e-05
4.768537e-05
4.689038e-05
4.625463e-05
5.15551e-05
5.107013e-05
4.940122e-05
4.754107e-05
4.651563e-05
4.615321e-05
5.11732e-05
5.090569e-05
4.935199e-05
4.749563e-05
4.614075e-05
4.568495e-05
4.452632e-05
5.081258e-05
5.060351e-05
4.890197e-05
4.694269e-05
4.551605e-05
4.357246e-05
4.089436e-05
5.014802e-05
4.989919e-05
4.833023e-05
4.623869e-05
4.43452e-05
4.239796e-05
3.950152e-05
4.989721e-05
4.954781e-05
4.846413e-05
4.640076e-05
4.469863e-05
4.266887e-05
3.868585e-05
4.951299e-05
4.913694e-05
4.835378e-05
4.655207e-05
4.464836e-05
4.2722e-05
3.960728e-05
4.898982e-05
4.879334e-05
4.812409e-05
4.652983e-05
4.425125e-05
4.22973e-05
4.078584e-05
4.854068e-05
4.840004e-05
4.751503e-05
4.545909e-05
4.377564e-05
4.233874e-05
3.889192e-05
4.819945e-05
4.777787e-05
4.682128e-05
4.493019e-05
4.297845e-05
4.152317e-05
3.733862e-05
4.78046e-05
4.72156e-05
4.624727e-05
4.417299e-05
4.231781e-05
3.982883e-05
3.616515e-05
4.73096e-05
4.646272e-05
4.537991e-05
4.387339e-05
4.147985e-05
3.929742e-05
3.567853e-05
4.675356e-05
4.589429e-05
4.476205e-05
4.326093e-05
4.13574e-05
3.872399e-05
3.470505e-05
4.601452e-05
4.527632e-05
4.428005e-05
4.298636e-05
4.082548e-05
3.841497e-05
3.386342e-05
4.56781e-05
4.446097e-05
4.383487e-05
4.255688e-05
4.049598e-05
3.826805e-05
3.419988e-05
4.595653e-05
4.405083e-05
4.318307e-05
4.201493e-05
4.043302e-05
3.844129e-05
3.478035e-05
4.667471e-05
4.470972e-05
4.311103e-05
4.141894e-05
4.020649e-05
3.820394e-05
3.494005e-05
4.739837e-05
4.561745e-05
4.405728e-05
4.201742e-05
3.973439e-05
3.769625e-05
3.511096e-05
4.789056e-05
4.647061e-05
4.494122e-05
4.309261e-05
4.063768e-05
3.819883e-05
3.555515e-05
4.809717e-05
4.697274e-05
4.549997e-05
4.347288e-05
4.125121e-05
3.887308e-05
3.473182e-05
4.815594e-05
4.715842e-05
4.573645e-05
4.374263e-05
4.144745e-05
3.884363e-05
3.398249e-05
4.817673e-05
4.72184e-05
4.57679e-05
4.380321e-05
4.151131e-05
3.855476e-05
3.228837e-05
4.819882e-05
4.725016e-05
4.571589e-05
4.381034e-05
4.151266e-05
3.845197e-05
3.171945e-05
4.821983e-05
4.727087e-05
4.567773e-05
4.380201e-05
4.148984e-05
3.840936e-05
3.139815e-05
4.823055e-05
4.724265e-05
4.566163e-05
4.378373e-05
4.145883e-05
3.836095e-05
3.0931e-05
4.822201e-05
4.721128e-05
4.564706e-05
4.376296e-05
4.142664e-05
3.82969e-05
3.094653e-05
4.819174e-05
4.717425e-05
4.563559e-05
4.374248e-05
4.139627e-05
3.807734e-05
3.097418e-05
4.81876e-05
4.716661e-05
4.562168e-05
4.372373e-05
4.13683e-05
3.803129e-05
3.100997e-05
4.817752e-05
4.682402e-05
4.515896e-05
4.367969e-05
4.134104e-05
3.800091e-05
3.104562e-05
4.815299e-05
4.681198e-05
4.514547e-05
4.366538e-05
4.131069e-05
3.783183e-05
3.108374e-05
4.814629e-05
4.68017e-05
4.513073e-05
4.364938e-05
4.128479e-05
3.774759e-05
3.112679e-05
4.814198e-05
4.679348e-05
4.511784e-05
4.363426e-05
4.126225e-05
3.772547e-05
3.116593e-05
4.81364e-05
4.678551e-05
4.510555e-05
4.361992e-05
4.123752e-05
3.770496e-05
3.120778e-05
4.813054e-05
4.677808e-05
4.509415e-05
4.360592e-05
4.112442e-05
3.76777e-05
3.12444e-05
4.812697e-05
4.677109e-05
4.508325e-05
4.359265e-05
4.107897e-05
3.765625e-05
3.128298e-05
4.812327e-05
4.676426e-05
4.507293e-05
4.358029e-05
4.106416e-05
3.763925e-05
3.132225e-05
4.811959e-05
4.675782e-05
4.506316e-05
4.356833e-05
4.104985e-05
3.762293e-05
3.135886e-05
4.811597e-05
4.675169e-05
4.505372e-05
4.355699e-05
4.103633e-05
3.760726e-05
3.13946e-05
4.811276e-05
4.674583e-05
4.504488e-05
4.354602e-05
4.102359e-05
3.759251e-05
3.142605e-05
4.810953e-05
4.673993e-05
4.503619e-05
4.353333e-05
4.096658e-05
3.757828e-05
3.145484e-05
4.810639e-05
4.673406e-05
4.502796e-05
4.352124e-05
4.089994e-05
3.75649e-05
3.148311e-05
4.810324e-05
4.672845e-05
4.502014e-05
4.351146e-05
4.089111e-05
3.755238e-05
3.151449e-05
4.81001e-05
4.67229e-05
4.501252e-05
4.350178e-05
4.088284e-05
3.75407e-05
3.151661e-05
4.809672e-05
4.671737e-05
4.500494e-05
4.349245e-05
4.087534e-05
3.753002e-05
3.151874e-05
4.809294e-05
4.671152e-05
4.499743e-05
4.348307e-05
4.086802e-05
3.750229e-05
3.147289e-05
4.808829e-05
4.670501e-05
4.498962e-05
4.347345e-05
4.08474e-05
3.745608e-05
3.142415e-05
4.808245e-05
4.669747e-05
4.497943e-05
4.344806e-05
4.081174e-05
3.741015e-05
3.137256e-05
4.807439e-05
4.66875e-05
4.494433e-05
4.340445e-05
4.077595e-05
3.73645e-05
3.132006e-05
4.806349e-05
4.665476e-05
4.490577e-05
4.336028e-05
4.074004e-05
3.731882e-05
3.126381e-05
4.803184e-05
4.661749e-05
4.486463e-05
4.331513e-05
4.070518e-05
3.727092e-05
3.120569e-05
4.79944e-05
4.657836e-05
4.482195e-05
4.327151e-05
4.071496e-05
3.722008e-05
3.114522e-05
4.795367e-05
4.653698e-05
4.477801e-05
4.322538e-05
4.067096e-05
3.716904e-05
3.108072e-05
4.790971e-05
4.6494e-05
4.473326e-05
4.317959e-05
4.062511e-05
3.711787e-05
3.100998e-05
4.786364e-05
4.645058e-05
4.468849e-05
4.313439e-05
4.057909e-05
3.706633e-05
3.092336e-05
4.781867e-05
4.640865e-05
4.464471e-05
4.309102e-05
4.053311e-05
3.701453e-05
3.080742e-05
4.777659e-05
4.63678e-05
4.460187e-05
4.30496e-05
4.048742e-05
3.696219e-05
3.062594e-05
1.015247e-06
1e-06
1e-06
1e-06
1e-06
1e-06
1e-06
1e-06
1e-06
1e-06
1e-06
1e-06
1e-06
1e-06
1e-06
1e-06
1e-06
1e-06
1.036358e-06
1e-06
1e-06
1e-06
1e-06
1e-06
1e-06
1e-06
1e-06
1e-06
1e-06
1e-06
1e-06
1e-06
1e-06
1e-06
1e-06
1e-06
1.043241e-06
1e-06
1e-06
1e-06
1e-06
1e-06
1e-06
1e-06
1e-06
1e-06
1e-06
1e-06
1e-06
1e-06
1e-06
1e-06
1e-06
1e-06
1.046939e-06
1e-06
1e-06
1e-06
1e-06
1e-06
1e-06
1e-06
1e-06
1e-06
1e-06
1e-06
1e-06
1e-06
1e-06
1e-06
1e-06
1e-06
1.050559e-06
1e-06
1e-06
1e-06
1e-06
1e-06
1e-06
1e-06
1e-06
1e-06
1e-06
1e-06
1e-06
1e-06
1e-06
1e-06
1e-06
1e-06
1.054071e-06
1e-06
1e-06
1e-06
1e-06
1e-06
1e-06
1e-06
1e-06
1e-06
1e-06
1e-06
1e-06
1e-06
1e-06
1e-06
1e-06
1e-06
1.057612e-06
1e-06
1e-06
1e-06
1e-06
1e-06
1e-06
1e-06
1e-06
1e-06
1e-06
1e-06
1e-06
1e-06
1e-06
1e-06
1e-06
1e-06
1.061094e-06
1e-06
1e-06
1e-06
1e-06
1e-06
1e-06
1e-06
1e-06
1e-06
1e-06
1e-06
1e-06
1e-06
1e-06
1e-06
1e-06
1e-06
1.064532e-06
1e-06
1e-06
1e-06
1e-06
1e-06
1e-06
1e-06
1e-06
1e-06
1e-06
1e-06
1e-06
1e-06
1e-06
1e-06
1e-06
1e-06
1.068105e-06
1e-06
1e-06
1e-06
1e-06
1e-06
1e-06
1e-06
1e-06
1e-06
1e-06
1e-06
1e-06
1e-06
1e-06
1e-06
1e-06
1e-06
1.071683e-06
1e-06
1e-06
1e-06
1e-06
1e-06
1e-06
1e-06
1e-06
1e-06
1e-06
1e-06
1e-06
1e-06
1e-06
1e-06
1e-06
1e-06
1.075127e-06
1e-06
1e-06
1e-06
1e-06
1e-06
1e-06
1e-06
1e-06
1e-06
1e-06
1e-06
1e-06
1e-06
1e-06
1e-06
1e-06
1e-06
1.078668e-06
1e-06
1e-06
1e-06
1e-06
1e-06
1e-06
1e-06
1e-06
1e-06
1e-06
1e-06
1e-06
1e-06
1e-06
1e-06
1e-06
1e-06
1.082858e-06
1e-06
1e-06
1e-06
1e-06
1e-06
1e-06
1e-06
1e-06
1e-06
1e-06
1e-06
1e-06
1e-06
1e-06
1e-06
1e-06
1e-06
1.104111e-06
1e-06
1e-06
1e-06
1e-06
1e-06
1e-06
1e-06
1e-06
1e-06
1e-06
1e-06
1e-06
1e-06
1e-06
1e-06
1e-06
1e-06
1.108309e-06
1e-06
1e-06
1e-06
1e-06
1e-06
1e-06
1e-06
1e-06
1e-06
1e-06
1e-06
1e-06
1e-06
1e-06
1e-06
1e-06
1e-06
1.115501e-06
1e-06
1e-06
1e-06
1e-06
1e-06
1e-06
1e-06
1e-06
1e-06
1e-06
1e-06
1e-06
1e-06
1e-06
1e-06
1e-06
1e-06
1.1237e-06
1e-06
1e-06
1e-06
1e-06
1e-06
1e-06
1e-06
1e-06
1e-06
1e-06
1e-06
1e-06
1e-06
1e-06
1e-06
1e-06
1e-06
1.132657e-06
1e-06
1e-06
1e-06
1e-06
1e-06
1e-06
1e-06
1e-06
1e-06
1e-06
1e-06
1e-06
1e-06
1e-06
1e-06
1e-06
1e-06
1.141709e-06
1e-06
1e-06
1e-06
1e-06
1e-06
1e-06
1e-06
1e-06
1e-06
1e-06
1e-06
1e-06
1e-06
1e-06
1e-06
1e-06
1e-06
1.150803e-06
1e-06
1e-06
1e-06
1e-06
1e-06
1e-06
1e-06
1e-06
1e-06
1e-06
1e-06
1e-06
1e-06
1e-06
1e-06
1e-06
1e-06
1.160346e-06
1e-06
1e-06
1e-06
1e-06
1e-06
1e-06
1e-06
1e-06
1e-06
1e-06
1e-06
1e-06
1e-06
1e-06
1e-06
1e-06
1e-06
1.170613e-06
1e-06
1e-06
1e-06
1e-06
1e-06
1e-06
1e-06
1e-06
1e-06
1e-06
1e-06
1e-06
1e-06
1e-06
1e-06
1e-06
1e-06
1.181628e-06
1e-06
1e-06
1e-06
1e-06
1e-06
1e-06
1e-06
1e-06
1e-06
1e-06
1e-06
1e-06
1e-06
1e-06
1e-06
1e-06
1e-06
1.193723e-06
1e-06
1e-06
1e-06
1e-06
1e-06
1e-06
1e-06
1e-06
1e-06
1e-06
1e-06
1e-06
1e-06
1e-06
1e-06
1e-06
1e-06
1.206528e-06
1e-06
1e-06
1e-06
1e-06
1e-06
1e-06
1e-06
1e-06
1e-06
1e-06
1e-06
1e-06
1e-06
1e-06
1e-06
1e-06
1e-06
1.22056e-06
1.000001e-06
1e-06
1e-06
1e-06
1e-06
1e-06
1e-06
1e-06
1e-06
1e-06
1e-06
1e-06
1e-06
1e-06
1e-06
1e-06
1e-06
1.235862e-06
1.000001e-06
1e-06
1e-06
1e-06
1e-06
1e-06
1e-06
1e-06
1e-06
1e-06
1e-06
1e-06
1e-06
1e-06
1e-06
1e-06
1e-06
1.252364e-06
1.000001e-06
1e-06
1e-06
1e-06
1e-06
1e-06
1e-06
1e-06
1e-06
1e-06
1e-06
1e-06
1e-06
1e-06
1e-06
1e-06
1e-06
1.270694e-06
1.000001e-06
1e-06
1e-06
1e-06
1e-06
1e-06
1e-06
1e-06
1e-06
1e-06
1e-06
1e-06
1e-06
1e-06
1e-06
1e-06
1e-06
1.290812e-06
1.000001e-06
1e-06
1e-06
1e-06
1e-06
1e-06
1e-06
1e-06
1e-06
1e-06
1e-06
1e-06
1e-06
1e-06
1e-06
1e-06
1e-06
1.312774e-06
1.000001e-06
1e-06
1e-06
1e-06
1e-06
1e-06
1e-06
1e-06
1e-06
1e-06
1e-06
1e-06
1e-06
1e-06
1e-06
1e-06
1e-06
1.338175e-06
1.000003e-06
1e-06
1e-06
1e-06
1e-06
1e-06
1e-06
1e-06
1e-06
1e-06
1e-06
1e-06
1e-06
1e-06
1e-06
1e-06
1e-06
1.371837e-06
1.000006e-06
1e-06
1e-06
1e-06
1e-06
1e-06
1e-06
1e-06
1e-06
1e-06
1e-06
1e-06
1e-06
1e-06
1e-06
1e-06
1e-06
1.469525e-06
1.000001e-06
1e-06
1e-06
1e-06
1e-06
1e-06
1e-06
1e-06
1e-06
1e-06
1e-06
1e-06
1e-06
1e-06
1e-06
1e-06
1e-06
1.546685e-06
1e-06
1e-06
1e-06
1e-06
1e-06
1e-06
1e-06
1e-06
1e-06
1e-06
1e-06
1e-06
1e-06
1e-06
1e-06
1e-06
1e-06
1.709108e-06
1e-06
1e-06
1e-06
1e-06
1e-06
1e-06
1e-06
1e-06
1e-06
1e-06
1e-06
1e-06
1e-06
1e-06
1e-06
1e-06
1e-06
2.708822e-06
1e-06
1e-06
1e-06
1e-06
1e-06
1e-06
1e-06
1e-06
1e-06
1e-06
1e-06
1e-06
1e-06
1e-06
1e-06
1e-06
1e-06
5.706721e-06
1.00009e-06
1e-06
1e-06
1e-06
1e-06
1e-06
1e-06
1e-06
1e-06
1e-06
1e-06
1e-06
1e-06
1e-06
1e-06
1e-06
1e-06
1.442644e-05
1.000171e-06
1e-06
1e-06
1e-06
1e-06
1e-06
1e-06
1e-06
1e-06
1e-06
1e-06
1e-06
1e-06
1e-06
1e-06
1e-06
1e-06
2.064569e-05
1.000798e-06
1e-06
1e-06
1e-06
1e-06
1e-06
1e-06
1e-06
1e-06
1e-06
1e-06
1e-06
1e-06
1e-06
1e-06
1e-06
1e-06
2.178429e-05
1.000531e-06
1e-06
1e-06
1e-06
1e-06
1e-06
1e-06
1e-06
1e-06
1e-06
1e-06
1e-06
1e-06
1e-06
1e-06
1e-06
1e-06
2.213105e-05
1.000154e-06
1e-06
1e-06
1e-06
1e-06
1e-06
1e-06
1e-06
1e-06
1e-06
1e-06
1e-06
1e-06
1e-06
1e-06
1e-06
1e-06
2.352875e-05
1.003946e-06
1e-06
1e-06
1e-06
1e-06
1e-06
1e-06
1e-06
1e-06
1e-06
1e-06
1e-06
1e-06
1e-06
1e-06
1e-06
1e-06
2.401448e-05
1.004237e-06
1e-06
1e-06
1e-06
1e-06
1e-06
1e-06
1e-06
1e-06
1e-06
1e-06
1e-06
1e-06
1e-06
1e-06
1e-06
1e-06
2.452456e-05
1.006669e-06
1e-06
1e-06
1e-06
1e-06
1e-06
1e-06
1e-06
1e-06
1e-06
1e-06
1e-06
1e-06
1e-06
1e-06
1e-06
1e-06
2.627182e-05
1.01215e-06
1.000003e-06
1e-06
1e-06
1e-06
1e-06
1e-06
1e-06
1e-06
1e-06
1e-06
1e-06
1e-06
1e-06
1e-06
1e-06
1e-06
3.011311e-05
1.076172e-06
1.000058e-06
1e-06
1e-06
1e-06
1e-06
1e-06
1e-06
1e-06
1e-06
1e-06
1e-06
1e-06
1e-06
1e-06
1e-06
1e-06
3.329616e-05
1.270195e-06
1.000483e-06
1.000002e-06
1e-06
1e-06
1e-06
1e-06
1e-06
1e-06
1e-06
1e-06
1e-06
1e-06
1e-06
1e-06
1e-06
1e-06
3.487943e-05
2.365047e-06
1.003637e-06
1.00002e-06
1e-06
1e-06
1e-06
1e-06
1e-06
1e-06
1e-06
1e-06
1e-06
1e-06
3.502263e-05
2.221758e-05
1e-06
1e-06
1e-06
1e-06
1e-06
1e-06
1e-06
1e-06
3.598012e-05
1e-06
1e-06
1e-06
1e-06
1e-06
1e-06
1e-06
1e-06
1e-06
1e-06
1e-06
1e-06
1e-06
1e-06
1e-06
1e-06
1e-06
1e-06
1e-06
1e-06
1e-06
1e-06
1e-06
1e-06
1e-06
1e-06
1e-06
1e-06
1e-06
1e-06
1e-06
1e-06
1e-06
1e-06
1e-06
1e-06
1e-06
1e-06
1e-06
1e-06
1e-06
1e-06
1e-06
1e-06
1e-06
1e-06
1e-06
1e-06
1e-06
3.246967e-05
1e-06
1e-06
1e-06
1e-06
1e-06
1e-06
3.179942e-05
2.536197e-05
1e-06
1e-06
1e-06
1e-06
1e-06
1e-06
1e-06
3.345728e-05
3.239793e-06
1.008734e-06
1e-06
1e-06
1e-06
1e-06
1e-06
1e-06
1e-06
1e-06
1e-06
3.286723e-05
1.603783e-06
1.002559e-06
1.000044e-06
1.000001e-06
1e-06
1e-06
1e-06
1e-06
1e-06
1e-06
1e-06
1e-06
1e-06
1e-06
1e-06
1e-06
1e-06
2.856463e-05
1.118185e-06
1.00014e-06
1.000001e-06
1e-06
1e-06
1e-06
1e-06
1e-06
1e-06
1e-06
1e-06
1e-06
1e-06
1e-06
1e-06
1e-06
1e-06
2.90385e-05
1.03121e-06
1.000006e-06
1e-06
1e-06
1e-06
1e-06
1e-06
1e-06
1e-06
1e-06
1e-06
1e-06
1e-06
1e-06
1e-06
1e-06
1e-06
2.646876e-05
1.007967e-06
1.000005e-06
1e-06
1e-06
1e-06
1e-06
1e-06
1e-06
1e-06
1e-06
1e-06
1e-06
1e-06
1e-06
1e-06
1e-06
1e-06
2.402817e-05
1.006363e-06
1.000007e-06
1e-06
1e-06
1e-06
1e-06
1e-06
1e-06
1e-06
1e-06
1e-06
1e-06
1e-06
1e-06
1e-06
1e-06
1e-06
2.367367e-05
1.003908e-06
1.000002e-06
1e-06
1e-06
1e-06
1e-06
1e-06
1e-06
1e-06
1e-06
1e-06
1e-06
1e-06
1e-06
1e-06
1e-06
1e-06
2.28918e-05
1.003331e-06
1.000005e-06
1e-06
1e-06
1e-06
1e-06
1e-06
1e-06
1e-06
1e-06
1e-06
1e-06
1e-06
1e-06
1e-06
1e-06
1e-06
2.155601e-05
1.006203e-06
1.000016e-06
1e-06
1e-06
1e-06
1e-06
1e-06
1e-06
1e-06
1e-06
1e-06
1e-06
1e-06
1e-06
1e-06
1e-06
1e-06
2.098825e-05
1.014603e-06
1.000041e-06
1e-06
1e-06
1e-06
1e-06
1e-06
1e-06
1e-06
1e-06
1e-06
1e-06
1e-06
1e-06
1e-06
1e-06
1e-06
1.575045e-05
1.004918e-06
1.000006e-06
1e-06
1e-06
1e-06
1e-06
1e-06
1e-06
1e-06
1e-06
1e-06
1e-06
1e-06
1e-06
1e-06
1e-06
1e-06
7.606788e-06
1.001265e-06
1.000001e-06
1e-06
1e-06
1e-06
1e-06
1e-06
1e-06
1e-06
1e-06
1e-06
1e-06
1e-06
1e-06
1e-06
1e-06
1e-06
5.30822e-06
1.000801e-06
1e-06
1e-06
1e-06
1e-06
1e-06
1e-06
1e-06
1e-06
1e-06
1e-06
1e-06
1e-06
1e-06
1e-06
1e-06
1e-06
1.682385e-06
1.000044e-06
1e-06
1e-06
1e-06
1e-06
1e-06
1e-06
1e-06
1e-06
1e-06
1e-06
1e-06
1e-06
1e-06
1e-06
1e-06
1e-06
1.594353e-06
1.000018e-06
1e-06
1e-06
1e-06
1e-06
1e-06
1e-06
1e-06
1e-06
1e-06
1e-06
1e-06
1e-06
1e-06
1e-06
1e-06
1e-06
1.458319e-06
1.000005e-06
1e-06
1e-06
1e-06
1e-06
1e-06
1e-06
1e-06
1e-06
1e-06
1e-06
1e-06
1e-06
1e-06
1e-06
1e-06
1e-06
1.396546e-06
1.000004e-06
1e-06
1e-06
1e-06
1e-06
1e-06
1e-06
1e-06
1e-06
1e-06
1e-06
1e-06
1e-06
1e-06
1e-06
1e-06
1e-06
1.32879e-06
1.000006e-06
1e-06
1e-06
1e-06
1e-06
1e-06
1e-06
1e-06
1e-06
1e-06
1e-06
1e-06
1e-06
1e-06
1e-06
1e-06
1e-06
1.309569e-06
1.000006e-06
1e-06
1e-06
1e-06
1e-06
1e-06
1e-06
1e-06
1e-06
1e-06
1e-06
1e-06
1e-06
1e-06
1e-06
1e-06
1e-06
1.291359e-06
1.000005e-06
1e-06
1e-06
1e-06
1e-06
1e-06
1e-06
1e-06
1e-06
1e-06
1e-06
1e-06
1e-06
1e-06
1e-06