/*--------------------------------*- C++ -*----------------------------------*\
| =========                 |                                                 |
| \\      /  F ield         | OpenFOAM: The Open Source CFD Toolbox           |
|  \\    /   O peration     | Version:  2206                                  |
|   \\  /    A nd           | Website:  www.openfoam.com                      |
|    \\/     M anipulation  |                                                 |
\*---------------------------------------------------------------------------*/
FoamFile
{
    version     2.0;
    format      ascii;
    arch        "LSB;label=32;scalar=64";
    class       volScalarField;
    location    "2.6";
    object      nuFra;
}
// * * * * * * * * * * * * * * * * * * * * * * * * * * * * * * * * * * * * * //

dimensions      [0 2 -1 0 0 0 0];

internalField   nonuniform List<scalar> 
13078
(
3.73935e-05
0.4744503
21.06544
60.22159
100
100
100
1.300397
12.87701
33.89375
84.07925
100
100
100
24.16622
41.13556
82.14117
100
100
100
100
96.20817
100
100
100
100
100
100
100
100
100
100
100
100
100
100
100
100
100
100
100
100
100
100
100
100
100
100
100
100
100
100
100
100
100
100
100
100
100
100
100
100
100
100
100
100
100
100
100
100
100
100
100
100
100
100
100
100
100
100
100
100
100
100
100
100
100
100
100
100
100
100
100
100
100
100
100
100
100
100
100
100
100
100
100
100
100
100
100
100
100
100
100
100
100
100
100
100
100
100
100
100
100
100
100
100
100
100
100
100
100
100
100
100
100
100
100
100
100
100
100
100
100
100
100
100
100
100
100
100
100
100
100
100
100
100
100
100
100
100
100
100
100
100
100
100
100
100
100
100
100
100
100
100
100
100
100
100
100
100
100
100
100
100
100
100
100
100
100
100
100
100
100
100
100
100
100
100
100
100
100
100
100
100
100
100
100
100
100
100
100
100
100
100
100
100
100
100
100
100
100
100
100
100
100
100
100
100
100
100
100
100
100
100
100
100
100
100
100
100
100
100
100
100
100
100
100
100
100
100
100
100
100
100
100
100
100
100
100
100
100
100
100
100
100
100
100
100
100
100
100
100
100
100
100
100
100
100
100
100
100
100
100
100
100
100
100
100
100
100
100
100
100
100
100
100
100
100
100
100
100
100
100
100
100
100
100
100
100
100
100
100
100
100
100
100
100
100
100
100
100
100
100
100
100
100
100
100
100
100
100
100
100
100
100
100
100
100
100
100
100
100
100
100
100
100
100
100
100
100
100
100
100
100
100
100
95.32029
100
100
100
100
100
100
43.85769
100
100
100
100
100
98.28334
17.99978
100
100
100
100
100
53.69127
11.37845
100
100
100
100
100
34.7806
9.522555
100
100
100
100
100
28.26055
9.10925
100
100
100
100
96.03461
26.88828
9.115483
100
100
100
100
96.64851
28.05933
9.231707
100
100
100
100
100
30.50252
9.522902
100
100
100
100
100
33.65249
9.875241
100
100
100
100
100
37.07415
10.6937
100
100
100
100
100
41.85871
11.35157
100
100
100
100
100
48.34848
12.05744
100
100
100
100
100
59.25114
13.72937
100
100
100
100
100
70.37491
19.04807
100
100
100
100
100
79.23226
26.4254
100
100
100
100
100
88.3445
34.37103
100
100
100
100
100
98.98929
43.36617
100
100
100
100
100
100
53.34902
100
100
100
100
100
100
79.85469
100
100
100
100
100
100
100
100
100
100
100
100
100
100
100
100
100
100
100
100
100
100
100
100
100
100
100
100
100
100
100
100
100
100
100
100
100
100
100
100
100
100
100
100
100
100
100
100
100
100
100
100
100
100
100
100
100
100
100
100
100
100
100
100
100
100
100
100
100
100
100
100
100
100
100
100
100
100
100
100
100
100
100
100
100
100
100
100
100
100
100
100
100
100
100
100
100
100
100
100
100
100
100
100
100
100
100
100
100
100
100
100
100
100
100
100
100
100
100
100
100
100
100
100
100
100
100
100
100
100
100
100
100
100
100
100
100
100
100
100
100
100
100
100
100
100
100
100
100
100
100
100
100
100
100
100
100
100
100
100
100
100
100
100
100
100
100
100
100
100
100
100
100
100
100
100
100
100
100
100
100
100
100
100
100
100
100
100
100
100
100
100
100
100
100
100
100
100
100
100
100
100
100
100
100
100
100
100
100
100
100
100
100
100
100
100
100
100
100
100
100
100
100
100
100
100
100
100
100
100
100
100
100
100
100
100
100
100
100
100
100
100
100
100
100
100
100
100
100
100
100
100
100
100
100
100
100
100
100
100
100
100
100
100
100
100
100
100
100
100
100
100
100
100
100
100
100
100
100
100
25.31511
42.71846
85.97064
100
100
100
100
1.659771
14.75557
35.97695
87.13588
100
100
100
100
100
100
100
100
100
100
100
100
100
100
100
100
100
100
100
100
100
100
100
100
100
100
100
100
100
100
100
100
100
100
100
100
100
94.80115
100
100
100
100
100
100
85.6692
100
100
100
100
100
100
82.14174
100
100
100
100
100
100
81.0985
100
100
100
100
100
100
82.00801
100
100
100
100
100
100
84.13258
100
100
100
100
100
100
87.06756
100
100
100
100
100
100
90.47157
100
100
100
100
100
100
93.6718
100
100
100
100
100
100
96.41232
100
100
100
100
100
100
99.84138
100
100
100
100
100
100
95.34694
100
100
100
100
100
100
90.60779
100
100
100
100
100
100
84.13922
100
100
100
100
100
100
77.41289
100
100
100
100
100
100
70.2928
100
100
100
100
100
100
62.93651
100
100
100
100
100
100
56.21063
100
100
100
100
100
100
49.79335
100
100
100
100
100
100
44.17863
100
100
100
100
100
100
39.49224
100
100
100
100
100
100
34.46866
100
100
100
100
100
100
29.68442
100
100
100
100
100
100
26.33908
100
100
100
100
100
96.32012
23.57041
100
100
100
100
100
86.00296
20.93957
100
100
100
100
100
77.36711
17.95175
100
100
100
100
100
70.3859
15.63924
100
100
100
100
100
63.28262
14.6232
100
100
100
100
95.17698
54.49283
16.19588
100
100
100
100
89.86324
53.40053
24.17241
100
100
100
100
95.85919
65.10777
7.324509
100
100
100
100
100
86.49991
74.71123
100
100
100
100
100
100
30.65725
100
100
100
100
100
100
23.53456
100
92.50852
69.45711
51.39039
43.38809
64.60908
13.22488
95.03258
76.96467
58.03002
31.00456
14.22944
14.52574
5.519237
99.44472
89.71719
89.25661
19.90496
4.653247
4.279122
1.889964
100
100
100
6.597626
2.782101
2.735688
2.18517
100
89.35677
48.42389
3.898469
2.745111
2.17076
2.111521
100
81.03831
27.96705
3.701816
2.70583
2.01832
2.06803
100
87.37064
21.27738
3.970747
2.700896
2.065797
2.004502
100
95.13152
13.99919
4.084499
2.966265
1.741232
1.946645
100
98.27317
9.623199
4.048882
2.953559
1.711915
2.519177
100
54.76081
5.276831
3.765459
2.715014
1.464978
5.055142
46.10718
15.64372
3.526364
3.607093
2.182295
1.911081
5.654037
15.63616
5.948226
3.190518
3.025149
2.194358
2.91092
2.571061
7.210274
3.877029
3.23026
2.647587
2.124537
3.187021
1.847069
5.022627
3.491388
3.230888
2.503081
1.945113
2.172808
2.181887
4.711987
3.749121
2.811852
2.105257
1.617815
1.979482
2.322462
4.70844
3.672813
2.50935
1.750871
1.596153
2.168346
4.498437
4.816781
3.527135
2.32717
1.707386
1.619737
1.289524
4.732362
3.378353
2.251428
1.75918
1.60492
1.107999
4.532643
3.17336
2.349177
1.914509
1.802047
2.133432
4.46782
3.132141
2.560962
2.149324
1.909025
2.828778
2.409864
4.5655
3.221636
2.603964
2.296466
2.363435
2.645195
0.4979542
4.445993
3.11748
2.615018
2.413538
3.080788
2.223209
0.3174889
4.509039
3.001401
2.854578
2.561004
3.987017
3.156769
0.2521624
4.187953
2.78975
2.902976
2.870341
3.601548
4.067307
0.4893807
4.364137
2.658929
2.818791
2.88133
2.682756
2.010195
18.58013
4.844711
2.696646
2.700968
2.504813
2.104951
3.610295
1.157625
6.063444
2.92351
2.754006
2.318715
1.904598
4.752551
0.890835
8.157672
3.405999
2.774863
2.49966
1.913631
3.962917
1.98886
10.95144
4.079371
2.858655
2.736437
2.032238
2.707531
8.573464
14.14674
5.285674
2.988014
3.047726
2.284237
2.150974
4.154645
19.89845
6.9909
3.510404
3.353846
2.843936
3.137898
1.546406
39.99502
9.664356
4.548071
3.514403
3.091797
6.413863
1.283486
100
26.57735
6.166665
4.193598
3.519915
4.35691
2.96462
100
100
33.24461
6.781808
5.577728
3.427498
2.595526
100
100
100
60.85183
18.98892
11.64534
2.588812
100
100
100
100
79.7065
18.30152
4.091208
100
100
100
100
68.7698
26.05203
14.32518
100
100
100
100
92.95306
57.47632
32.67848
100
100
100
100
100
100
40.99228
100
100
100
100
100
100
90.22884
100
100
100
100
100
100
23.3649
100
100
100
100
100
100
38.48701
100
100
100
100
100
100
33.30982
100
100
100
100
100
100
33.37855
100
100
100
100
100
100
33.92609
100
100
100
100
100
100
35.96076
100
100
100
100
100
100
38.65257
100
100
100
100
100
100
42.09124
100
100
100
100
100
100
46.29851
100
100
100
100
100
100
51.27723
100
100
100
100
100
100
56.83366
100
100
100
100
100
100
62.91047
100
100
100
100
100
100
69.52669
100
100
100
100
100
100
76.43718
100
100
100
100
100
100
83.78268
100
100
100
100
100
100
91.24816
100
100
100
100
100
100
98.59232
100
100
100
100
100
100
100
100
100
100
100
100
100
100
100
100
100
100
100
100
100
100
100
100
100
100
100
100
100
100
100
100
100
100
98.26867
100
100
100
100
100
100
93.77963
100
100
100
100
100
100
88.88719
100
100
100
100
100
100
84.60922
100
100
100
100
100
100
81.17684
100
100
100
100
100
100
78.96092
100
100
100
100
100
100
78.39022
100
100
100
100
100
100
79.73488
100
100
100
100
100
100
83.83455
100
100
100
100
100
100
92.92054
100
100
100
100
100
100
100
100
100
100
100
100
100
100
5.413683e-11
9.219769e-10
2.725829e-09
4.493119e-09
6.271889e-09
1.03294e-08
2.388736e-08
1.469535e-08
1.767773e-08
1.65009e-08
1.461329e-08
1.32952e-08
1.221043e-08
1.133409e-08
1.067674e-08
1.008936e-08
9.641364e-09
9.269898e-09
5.226974e-11
1.466466e-09
4.054807e-09
5.415519e-09
6.995015e-09
1.149863e-08
2.535789e-08
1.584823e-08
1.833116e-08
1.609042e-08
1.423624e-08
1.304096e-08
1.204691e-08
1.121984e-08
1.059698e-08
1.000517e-08
9.587478e-09
9.225414e-09
5.216176e-11
2.091004e-09
6.676949e-09
7.052038e-09
8.091865e-09
1.290994e-08
2.443305e-08
1.733851e-08
1.837737e-08
1.587592e-08
1.370105e-08
1.259171e-08
1.173888e-08
1.100556e-08
1.044887e-08
9.851199e-09
9.480319e-09
9.137709e-09
5.233832e-11
2.191746e-09
8.826174e-09
8.519482e-09
9.144464e-09
1.393858e-08
2.271737e-08
1.845667e-08
1.798052e-08
1.554064e-08
1.303215e-08
1.203068e-08
1.132837e-08
1.071709e-08
1.024813e-08
9.628725e-09
9.327644e-09
9.011141e-09
5.244855e-11
2.20996e-09
9.804005e-09
9.637219e-09
1.001728e-08
1.448287e-08
2.052245e-08
1.849648e-08
1.696976e-08
1.478684e-08
1.240633e-08
1.1479e-08
1.086848e-08
1.033872e-08
9.978616e-09
9.386102e-09
9.139389e-09
8.852993e-09
5.253337e-11
2.197494e-09
1.081349e-08
1.048045e-08
1.073796e-08
1.46329e-08
1.899495e-08
1.721968e-08
1.551357e-08
1.369718e-08
1.190175e-08
1.091898e-08
1.03652e-08
9.944089e-09
9.691791e-09
9.094334e-09
8.917715e-09
8.664664e-09
5.265409e-11
2.102981e-09
1.198214e-08
1.127391e-08
1.127073e-08
1.441947e-08
1.714809e-08
1.47177e-08
1.398658e-08
1.251757e-08
1.12507e-08
1.036147e-08
9.874487e-09
9.528294e-09
9.350647e-09
8.802637e-09
8.670455e-09
8.453899e-09
5.277087e-11
2.060143e-09
1.270743e-08
1.183321e-08
1.157369e-08
1.387453e-08
1.487689e-08
1.29917e-08
1.256647e-08
1.149696e-08
1.05347e-08
9.87332e-09
9.393458e-09
9.139722e-09
9.003736e-09
8.492375e-09
8.410486e-09
8.228028e-09
5.29006e-11
2.012269e-09
1.344188e-08
1.213279e-08
1.15562e-08
1.302243e-08
1.34372e-08
1.113881e-08
1.126485e-08
1.059612e-08
1.00362e-08
9.198877e-09
8.920196e-09
8.74211e-09
8.63818e-09
8.181178e-09
8.137675e-09
7.989753e-09
5.304859e-11
1.989569e-09
1.269488e-08
1.163827e-08
1.104114e-08
1.189755e-08
1.201376e-08
1.012705e-08
1.020752e-08
1.002976e-08
9.070615e-09
8.589682e-09
8.483703e-09
8.320568e-09
8.282399e-09
7.868995e-09
7.863632e-09
7.742564e-09
5.320733e-11
1.905934e-09
1.04196e-08
1.039157e-08
1.013902e-08
1.069471e-08
1.065741e-08
9.68862e-09
9.274795e-09
8.783008e-09
8.282936e-09
8.114805e-09
8.026154e-09
7.92542e-09
7.945751e-09
7.558432e-09
7.584574e-09
7.493335e-09
5.332397e-11
1.854541e-09
9.632355e-09
8.939439e-09
9.095801e-09
9.615679e-09
9.571153e-09
8.996038e-09
8.24986e-09
7.971459e-09
7.776144e-09
7.668004e-09
7.612303e-09
7.563999e-09
7.615099e-09
7.250669e-09
7.307262e-09
7.241141e-09
5.351753e-11
1.710272e-09
7.367456e-09
7.937761e-09
8.446062e-09
8.899525e-09
8.764838e-09
8.296764e-09
7.681441e-09
7.514106e-09
7.383122e-09
7.256311e-09
7.237995e-09
7.216245e-09
7.291658e-09
6.952391e-09
7.034606e-09
6.989624e-09
5.386829e-11
1.388702e-09
6.323942e-09
7.546466e-09
8.204298e-09
8.429047e-09
8.170733e-09
7.760629e-09
7.281087e-09
7.162974e-09
6.995865e-09
6.886387e-09
6.887263e-09
6.879591e-09
6.977363e-09
6.664069e-09
6.766032e-09
6.739704e-09
5.486725e-11
1.29609e-09
7.179292e-09
7.891384e-09
8.262815e-09
8.078092e-09
7.723491e-09
7.294677e-09
6.899201e-09
6.794968e-09
6.628378e-09
6.540983e-09
6.548063e-09
6.558459e-09
6.667765e-09
6.387734e-09
6.503319e-09
6.495102e-09
5.391221e-11
1.29385e-09
7.549182e-09
7.655983e-09
8.152691e-09
7.788019e-09
7.266255e-09
6.86537e-09
6.522649e-09
6.414509e-09
6.273822e-09
6.212851e-09
6.230314e-09
6.255697e-09
6.353709e-09
6.128176e-09
6.245563e-09
6.252802e-09
5.415298e-11
1.262242e-09
7.591945e-09
8.062097e-09
7.671774e-09
7.371367e-09
6.814509e-09
6.442455e-09
6.132798e-09
6.044351e-09
5.932905e-09
5.903352e-09
5.92758e-09
5.968605e-09
6.028917e-09
5.890063e-09
5.991658e-09
6.013763e-09
5.439885e-11
1.217637e-09
6.539653e-09
7.173303e-09
7.824712e-09
6.723315e-09
6.307131e-09
6.003237e-09
5.73987e-09
5.686708e-09
5.608955e-09
5.606941e-09
5.634997e-09
5.68893e-09
5.710289e-09
5.661635e-09
5.739252e-09
5.778628e-09
5.469235e-11
1.1721e-09
6.26562e-09
6.601074e-09
6.638362e-09
6.404479e-09
5.775228e-09
5.569861e-09
5.361822e-09
5.343267e-09
5.305744e-09
5.318018e-09
5.350104e-09
5.39503e-09
5.438169e-09
5.438344e-09
5.50425e-09
5.549332e-09
5.499291e-11
1.122762e-09
5.785009e-09
5.911781e-09
6.213833e-09
5.638044e-09
5.397429e-09
5.149052e-09
4.986544e-09
5.023543e-09
5.017085e-09
5.037344e-09
5.078186e-09
5.128339e-09
5.156581e-09
5.230417e-09
5.265748e-09
5.317483e-09
5.532449e-11
1.074039e-09
5.177e-09
5.4421e-09
5.451592e-09
5.159899e-09
4.927394e-09
4.791664e-09
4.645785e-09
4.72872e-09
4.735212e-09
4.764e-09
4.812822e-09
4.881571e-09
4.85412e-09
5.037459e-09
5.027502e-09
5.094073e-09
5.568194e-11
1.028654e-09
4.660708e-09
4.860787e-09
5.060382e-09
4.575058e-09
4.493489e-09
4.394831e-09
4.36209e-09
4.456055e-09
4.460633e-09
4.49876e-09
4.556886e-09
4.632621e-09
4.642381e-09
4.749481e-09
4.801165e-09
4.876758e-09
5.607354e-11
9.87534e-10
4.263185e-09
4.349156e-09
4.569598e-09
4.248394e-09
4.05648e-09
4.069982e-09
4.064309e-09
4.174559e-09
4.199796e-09
4.243944e-09
4.309649e-09
4.409704e-09
4.384919e-09
4.522278e-09
4.579994e-09
4.653814e-09
5.651297e-11
9.451622e-10
3.890917e-09
3.894114e-09
4.087948e-09
3.857605e-09
3.780095e-09
3.773511e-09
3.80283e-09
3.881465e-09
3.946611e-09
3.998453e-09
4.072348e-09
4.231041e-09
4.148566e-09
4.306972e-09
4.364475e-09
4.452799e-09
5.698956e-11
9.081204e-10
3.577381e-09
3.496933e-09
3.628509e-09
3.493326e-09
3.477772e-09
3.5314e-09
3.516071e-09
3.645162e-09
3.687626e-09
3.769142e-09
3.840041e-09
4.022753e-09
3.893739e-09
4.078408e-09
4.148689e-09
4.253371e-09
5.751504e-11
8.72494e-10
3.299685e-09
3.16362e-09
3.135428e-09
3.189858e-09
3.200745e-09
3.24868e-09
3.28468e-09
3.395928e-09
3.462107e-09
3.52731e-09
3.630648e-09
3.790485e-09
3.650269e-09
3.833668e-09
3.940588e-09
4.068143e-09
5.809278e-11
8.369811e-10
3.028427e-09
2.919096e-09
2.642875e-09
2.949083e-09
2.940678e-09
2.992603e-09
3.091567e-09
3.154723e-09
3.230446e-09
3.309458e-09
3.419178e-09
3.56625e-09
3.474025e-09
3.643622e-09
3.735601e-09
3.861455e-09
5.87394e-11
7.971814e-10
2.667781e-09
2.75926e-09
2.267965e-09
2.731293e-09
2.693865e-09
2.753138e-09
2.913382e-09
2.920709e-09
3.005207e-09
3.094558e-09
3.207122e-09
3.310165e-09
3.315992e-09
3.46399e-09
3.554617e-09
3.724555e-09
5.94756e-11
7.539176e-10
2.147471e-09
2.764513e-09
2.153611e-09
2.371064e-09
2.445101e-09
2.510463e-09
2.673624e-09
2.698813e-09
2.798329e-09
2.893919e-09
3.0064e-09
3.049989e-09
3.146598e-09
3.269844e-09
3.374352e-09
3.51281e-09
6.036192e-11
7.042932e-10
1.709939e-09
2.877414e-09
2.128012e-09
1.96469e-09
2.19241e-09
2.231874e-09
2.432655e-09
2.530113e-09
2.620474e-09
2.714966e-09
2.82996e-09
2.824148e-09
3.003484e-09
3.065308e-09
3.182106e-09
3.296859e-09
6.147754e-11
6.523119e-10
1.493244e-09
2.316326e-09
2.014661e-09
1.878089e-09
2.012357e-09
2.023824e-09
2.286048e-09
2.405176e-09
2.465498e-09
2.545076e-09
2.67502e-09
2.666519e-09
2.785543e-09
2.892868e-09
3.011264e-09
3.075576e-09
6.288385e-11
6.206933e-10
1.467202e-09
1.345848e-09
2.299634e-09
1.760234e-09
1.886635e-09
1.967793e-09
2.047452e-09
2.23616e-09
2.304858e-09
2.379555e-09
2.487204e-09
2.472562e-09
2.600094e-09
2.720496e-09
2.818082e-09
2.873108e-09
6.406041e-11
6.124935e-10
1.264282e-09
1.051533e-09
1.499189e-09
1.894326e-09
1.826045e-09
1.834938e-09
2.04133e-09
2.103795e-09
2.156261e-09
2.22665e-09
2.260991e-09
2.349606e-09
2.423343e-09
2.543268e-09
2.635147e-09
2.67486e-09
6.772666e-11
4.658917e-10
9.270199e-10
1.050007e-09
1.098079e-09
1.816128e-09
1.768418e-09
1.881103e-09
1.941663e-09
1.880822e-09
1.971648e-09
2.051898e-09
2.109268e-09
2.17048e-09
2.271443e-09
2.395009e-09
2.377624e-09
2.586256e-09
6.96164e-11
3.938548e-10
8.477845e-10
1.061251e-09
1.179323e-09
1.426414e-09
1.597425e-09
1.784334e-09
1.65579e-09
1.752251e-09
1.822051e-09
1.89442e-09
1.908763e-09
2.019488e-09
2.11777e-09
2.192246e-09
2.183517e-09
2.478709e-09
7.499222e-11
3.022625e-10
7.646773e-10
8.853064e-10
1.062689e-09
1.392542e-09
1.489598e-09
1.544672e-09
1.626644e-09
1.623143e-09
1.668378e-09
1.732089e-09
1.719614e-09
1.933599e-09
1.951759e-09
2.030472e-09
2.029254e-09
2.242263e-09
8.226927e-11
2.006919e-10
6.880266e-10
7.926983e-10
1.058925e-09
1.321354e-09
1.407461e-09
1.464406e-09
1.46158e-09
1.493457e-09
1.522692e-09
1.537426e-09
1.567005e-09
1.687258e-09
1.779143e-09
1.849491e-09
1.936265e-09
2.102859e-09
1.149268e-10
1.265253e-10
7.122652e-10
1.056451e-09
1.274727e-09
1.343936e-09
1.342339e-09
1.343491e-09
1.339359e-09
1.356088e-09
1.385968e-09
1.359534e-09
1.515712e-09
1.532731e-09
1.593914e-09
1.63476e-09
1.797886e-09
1.92492e-09
1.503452e-10
1.004275e-10
4.226007e-10
8.717169e-10
1.367621e-09
1.291607e-09
1.236153e-09
1.230086e-09
1.201317e-09
1.222871e-09
1.238681e-09
1.219393e-09
1.377837e-09
1.384297e-09
1.395393e-09
1.577859e-09
1.632733e-09
1.74303e-09
2.464646e-05
1.014124e-10
3.815933e-10
9.172133e-10
1.190884e-09
1.172675e-09
1.108216e-09
1.092806e-09
1.067459e-09
1.0975e-09
1.115912e-09
1.124477e-09
1.254187e-09
1.242543e-09
1.302257e-09
1.429918e-09
1.488957e-09
1.578629e-09
0.001465181
7.820698e-11
4.2467e-10
9.42274e-10
1.040807e-09
1.024773e-09
9.468133e-10
9.507635e-10
9.483609e-10
9.696896e-10
9.776731e-10
1.021996e-09
1.06608e-09
1.141654e-09
1.182712e-09
1.290812e-09
1.371093e-09
1.470861e-09
0.1501609
6.878761e-11
4.802943e-10
7.988216e-10
8.303855e-10
8.420744e-10
8.21024e-10
8.249603e-10
8.320344e-10
8.501753e-10
8.446331e-10
9.55105e-10
9.629436e-10
1.059591e-09
1.049829e-09
1.176509e-09
1.252552e-09
1.351579e-09
0.1988129
6.734226e-11
4.382151e-10
7.693865e-10
6.924739e-10
7.116845e-10
7.158146e-10
7.218631e-10
7.289729e-10
7.466949e-10
7.390045e-10
8.374043e-10
8.662428e-10
9.3232e-10
9.309612e-10
1.071247e-09
1.141601e-09
1.224978e-09
0.0446784
7.189663e-11
5.671085e-10
7.899697e-10
6.641496e-10
6.105289e-10
6.268064e-10
6.259733e-10
6.257489e-10
6.574798e-10
6.575295e-10
7.584485e-10
7.175722e-10
8.48364e-10
8.716259e-10
9.674916e-10
1.031527e-09
1.135659e-09
0.07859598
6.390247e-11
1.010134e-09
8.771291e-10
7.062073e-10
5.391527e-10
5.425343e-10
5.389129e-10
5.371568e-10
5.721816e-10
5.676382e-10
6.135733e-10
6.40947e-10
7.611093e-10
7.697476e-10
8.554731e-10
9.468112e-10
1.023958e-09
0.08494797
6.767364e-11
7.481722e-10
8.101152e-10
5.605805e-10
4.784989e-10
4.604232e-10
4.655182e-10
4.667603e-10
4.888887e-10
5.043585e-10
5.235845e-10
6.068269e-10
6.510722e-10
6.950483e-10
8.015465e-10
8.354841e-10
9.579202e-10
0.4242426
7.17285e-11
7.925765e-10
9.095598e-10
4.359144e-10
4.179922e-10
3.864538e-10
3.865992e-10
3.823195e-10
3.979245e-10
4.367897e-10
4.346778e-10
5.426417e-10
5.487922e-10
6.343797e-10
6.945175e-10
7.845502e-10
8.484707e-10
0.4743361
8.07809e-11
5.904746e-10
4.829036e-10
3.557892e-10
3.269894e-10
3.161683e-10
3.132854e-10
3.104315e-10
3.395511e-10
3.494935e-10
3.849515e-10
4.537311e-10
4.930957e-10
5.391651e-10
6.480161e-10
6.734513e-10
8.222121e-10
0.3117008
1.612549e-10
3.327558e-10
1.913277e-10
2.567421e-10
2.633949e-10
2.594542e-10
2.530266e-10
2.557264e-10
2.964414e-10
2.81601e-10
3.274502e-10
3.924154e-10
4.320208e-10
4.901266e-10
5.478007e-10
6.367772e-10
7.317993e-10
0.6135838
1.398537e-10
8.187879e-10
1.477033e-10
2.070472e-10
2.275188e-10
2.459209e-10
3.000295e-10
3.139037e-10
3.775654e-10
4.46315e-10
4.712114e-10
5.80489e-10
6.815328e-10
0.306487
0.01609579
1.72475e-10
2.574851e-10
2.577252e-10
3.281546e-10
3.794988e-10
4.425188e-10
5.005994e-10
6.349074e-10
0.3033687
1.516717e-10
2.680453e-10
2.519403e-10
3.375231e-10
4.164173e-10
4.764333e-10
5.93006e-10
1.972234e-10
2.365563e-10
3.0126e-10
3.799766e-10
4.32512e-10
5.579117e-10
2.319467e-10
2.712006e-10
3.572326e-10
4.173801e-10
5.206903e-10
2.406799e-10
2.472591e-10
3.238208e-10
4.118289e-10
4.929963e-10
2.014483e-10
2.383573e-10
3.147087e-10
4.027058e-10
4.78702e-10
1.899581e-10
2.48902e-10
3.121975e-10
3.984062e-10
4.765489e-10
2.064775e-10
2.510333e-10
3.074406e-10
4.036732e-10
4.839174e-10
2.136111e-10
2.615571e-10
3.348347e-10
4.073482e-10
4.976872e-10
1.925921e-10
2.088775e-10
2.854796e-10
3.544269e-10
4.561099e-10
5.281641e-10
0.1333511
2.347975e-10
2.295027e-10
3.075829e-10
3.871041e-10
4.638613e-10
5.745194e-10
0.04420171
0.03461142
2.069388e-10
2.644337e-10
2.896841e-10
3.306885e-10
4.37932e-10
4.929115e-10
6.20852e-10
0.08260246
1.499358e-10
1.420537e-10
1.93431e-10
2.109127e-10
2.614743e-10
3.003079e-10
3.379172e-10
3.727737e-10
4.980764e-10
5.231516e-10
6.576999e-10
0.3149619
1.268592e-10
4.765931e-10
3.810111e-10
2.80574e-10
2.542975e-10
2.343241e-10
2.171947e-10
2.591179e-10
2.172603e-10
2.835448e-10
2.958774e-10
3.329644e-10
4.275602e-10
4.275213e-10
5.738196e-10
5.750603e-10
7.417203e-10
0.127471
9.884291e-11
5.731734e-10
3.10705e-10
2.55352e-10
2.670118e-10
2.69496e-10
2.646609e-10
3.24541e-10
2.884129e-10
3.307553e-10
3.674178e-10
3.945631e-10
4.419523e-10
5.367381e-10
5.759448e-10
6.794744e-10
7.699327e-10
0.5314233
7.780501e-11
1.913553e-10
2.806765e-10
3.022527e-10
3.048061e-10
3.211788e-10
3.430072e-10
3.54086e-10
3.502908e-10
4.077211e-10
4.382038e-10
4.841164e-10
5.19958e-10
5.779558e-10
6.936263e-10
7.00688e-10
8.5307e-10
0.03089901
7.9561e-11
3.415655e-10
2.536874e-10
3.505953e-10
4.021642e-10
3.902987e-10
4.072057e-10
4.147364e-10
4.237818e-10
4.831624e-10
4.731898e-10
5.755508e-10
6.129083e-10
6.737293e-10
7.136709e-10
8.277007e-10
9.329765e-10
0.01684932
8.213077e-11
4.274523e-10
3.754553e-10
4.085229e-10
4.394948e-10
4.52542e-10
4.74952e-10
4.899691e-10
4.949181e-10
5.772767e-10
5.273771e-10
6.529086e-10
6.929045e-10
7.307212e-10
8.438478e-10
8.994523e-10
1.016862e-09
0.04423674
8.589101e-11
4.970153e-10
4.045686e-10
4.729971e-10
4.955504e-10
5.290808e-10
5.475602e-10
5.783961e-10
5.892502e-10
6.269781e-10
6.406975e-10
7.14485e-10
7.905551e-10
8.414834e-10
8.887977e-10
1.017644e-09
1.130276e-09
0.02482225
7.598071e-11
3.690929e-10
4.875222e-10
5.964271e-10
6.033511e-10
6.141691e-10
6.284297e-10
6.594147e-10
6.735348e-10
6.890121e-10
7.638355e-10
7.872281e-10
9.115533e-10
9.388096e-10
1.005741e-09
1.070115e-09
1.222245e-09
0.004263608
8.135865e-11
5.333374e-10
5.73364e-10
7.363599e-10
7.48684e-10
7.376708e-10
7.414091e-10
7.5435e-10
7.787592e-10
7.738447e-10
8.673457e-10
8.758757e-10
9.995185e-10
1.042421e-09
1.116452e-09
1.193974e-09
1.278122e-09
0.001394435
1.06031e-10
8.363155e-10
1.042629e-09
1.084548e-09
9.312055e-10
8.657075e-10
8.396301e-10
8.572442e-10
8.892695e-10
8.767177e-10
9.812661e-10
1.002693e-09
1.151572e-09
1.165619e-09
1.206221e-09
1.282231e-09
1.400022e-09
5.734378e-05
1.027123e-10
1.07578e-09
1.628949e-09
1.24627e-09
1.018948e-09
9.847038e-10
9.364123e-10
9.683364e-10
9.99787e-10
9.939682e-10
1.101651e-09
1.116617e-09
1.274994e-09
1.250546e-09
1.348326e-09
1.419922e-09
1.508758e-09
1.14412e-10
1.946496e-10
1.106825e-09
1.470192e-09
1.213072e-09
1.057773e-09
1.072621e-09
1.021937e-09
1.078222e-09
1.11934e-09
1.125219e-09
1.211989e-09
1.23353e-09
1.329638e-09
1.376581e-09
1.475645e-09
1.528406e-09
1.624421e-09
9.565802e-11
3.578808e-10
1.220188e-09
1.671201e-09
1.378048e-09
1.104372e-09
1.182228e-09
1.155372e-09
1.198664e-09
1.224558e-09
1.248379e-09
1.310013e-09
1.389104e-09
1.443754e-09
1.501266e-09
1.593022e-09
1.707203e-09
1.771373e-09
6.893273e-11
6.28172e-10
1.425975e-09
1.719895e-09
1.31716e-09
1.17686e-09
1.328892e-09
1.347581e-09
1.381121e-09
1.361501e-09
1.380029e-09
1.396094e-09
1.508159e-09
1.566792e-09
1.616965e-09
1.689642e-09
1.857229e-09
1.916755e-09
6.681604e-11
7.765816e-10
1.511575e-09
1.607555e-09
1.100855e-09
1.443473e-09
1.552915e-09
1.484861e-09
1.447754e-09
1.547345e-09
1.556535e-09
1.539879e-09
1.698831e-09
1.688227e-09
1.761241e-09
1.830098e-09
2.043048e-09
2.06079e-09
6.472284e-11
5.891234e-10
1.41107e-09
1.201494e-09
1.380548e-09
1.640842e-09
1.531523e-09
1.564783e-09
1.667047e-09
1.567536e-09
1.707303e-09
1.714861e-09
1.80928e-09
1.865584e-09
1.948829e-09
2.074859e-09
2.153153e-09
2.196941e-09
6.081966e-11
5.907806e-10
1.22608e-09
1.268885e-09
1.894564e-09
1.633864e-09
1.701449e-09
1.684607e-09
1.755018e-09
1.780097e-09
1.859763e-09
1.891093e-09
1.921051e-09
2.063488e-09
2.096423e-09
2.241148e-09
2.262348e-09
2.460413e-09
6.097619e-11
7.834699e-10
1.394744e-09
1.428263e-09
2.360788e-09
1.677459e-09
1.770374e-09
1.875523e-09
1.810706e-09
1.945412e-09
2.00606e-09
2.057882e-09
2.088631e-09
2.236617e-09
2.259021e-09
2.378467e-09
2.370851e-09
2.642467e-09
6.049556e-11
7.582925e-10
1.704998e-09
1.723534e-09
2.371384e-09
1.8662e-09
1.955254e-09
2.044457e-09
2.072234e-09
2.054374e-09
2.153968e-09
2.219232e-09
2.279233e-09
2.375579e-09
2.439074e-09
2.540518e-09
2.583303e-09
2.786408e-09
5.989646e-11
7.6704e-10
1.949477e-09
2.180879e-09
1.971264e-09
2.197843e-09
2.150321e-09
2.20433e-09
2.264802e-09
2.295745e-09
2.348811e-09
2.39845e-09
2.453026e-09
2.559698e-09
2.602282e-09
2.715152e-09
2.808616e-09
2.98999e-09
5.929068e-11
7.850121e-10
2.128441e-09
2.35649e-09
2.283732e-09
2.267161e-09
2.322094e-09
2.406629e-09
2.450738e-09
2.458309e-09
2.52446e-09
2.584613e-09
2.643157e-09
2.755724e-09
2.746283e-09
2.892939e-09
3.005775e-09
3.104108e-09
5.871248e-11
8.037101e-10
2.34825e-09
2.530271e-09
2.403426e-09
2.46594e-09
2.514612e-09
2.599601e-09
2.619279e-09
2.675065e-09
2.723985e-09
2.778208e-09
2.848297e-09
2.993152e-09
2.930429e-09
3.099121e-09
3.184814e-09
3.353907e-09
5.818423e-11
8.23938e-10
2.537916e-09
2.721645e-09
2.564991e-09
2.62723e-09
2.693559e-09
2.794483e-09
2.848716e-09
2.886603e-09
2.931552e-09
2.984423e-09
3.045523e-09
3.160755e-09
3.164285e-09
3.282478e-09
3.376409e-09
3.540999e-09
5.770087e-11
8.456966e-10
2.728839e-09
2.902597e-09
2.741846e-09
2.811505e-09
2.890924e-09
2.982848e-09
3.069974e-09
3.101049e-09
3.147165e-09
3.195094e-09
3.266195e-09
3.346126e-09
3.364331e-09
3.468778e-09
3.573111e-09
3.688231e-09
5.726069e-11
8.66539e-10
2.925432e-09
3.096177e-09
2.912564e-09
3.0084e-09
3.090115e-09
3.173719e-09
3.283196e-09
3.332175e-09
3.366648e-09
3.424766e-09
3.47991e-09
3.533661e-09
3.605466e-09
3.697938e-09
3.769404e-09
3.865289e-09
5.685527e-11
8.902649e-10
3.128733e-09
3.290979e-09
3.087308e-09
3.201185e-09
3.296585e-09
3.391323e-09
3.496361e-09
3.568873e-09
3.605259e-09
3.65739e-09
3.70301e-09
3.824289e-09
3.768904e-09
3.873238e-09
3.975743e-09
4.073354e-09
5.650097e-11
9.085622e-10
3.348252e-09
3.495833e-09
3.275914e-09
3.402242e-09
3.512203e-09
3.602899e-09
3.706795e-09
3.808089e-09
3.853575e-09
3.891602e-09
3.934574e-09
4.049696e-09
4.006157e-09
4.108069e-09
4.198165e-09
4.287591e-09
5.616593e-11
9.308309e-10
3.559307e-09
3.6943e-09
3.481343e-09
3.599076e-09
3.700396e-09
3.824231e-09
3.922335e-09
4.046236e-09
4.096897e-09
4.134667e-09
4.176418e-09
4.244547e-09
4.220549e-09
4.301958e-09
4.41411e-09
4.49468e-09
5.587908e-11
9.471071e-10
3.835482e-09
3.939692e-09
3.682325e-09
3.719156e-09
3.923763e-09
4.046658e-09
4.177268e-09
4.26169e-09
4.34562e-09
4.390114e-09
4.424034e-09
4.45214e-09
4.48762e-09
4.503497e-09
4.625286e-09
4.70297e-09
5.562921e-11
9.629318e-10
4.183343e-09
4.164266e-09
3.739122e-09
3.918982e-09
4.168887e-09
4.297396e-09
4.378792e-09
4.502391e-09
4.60011e-09
4.648453e-09
4.676512e-09
4.70259e-09
4.786744e-09
4.699093e-09
4.845932e-09
4.923712e-09
5.540762e-11
9.802692e-10
4.567657e-09
4.069876e-09
3.95512e-09
4.218305e-09
4.341761e-09
4.526299e-09
4.645732e-09
4.756442e-09
4.85346e-09
4.912575e-09
4.934722e-09
4.956074e-09
5.094952e-09
4.919038e-09
5.096288e-09
5.14654e-09
5.519506e-11
9.888667e-10
4.453835e-09
4.322459e-09
4.347853e-09
4.31476e-09
4.624665e-09
4.813177e-09
4.904269e-09
5.015789e-09
5.107352e-09
5.190929e-09
5.206267e-09
5.215537e-09
5.337519e-09
5.187487e-09
5.329668e-09
5.377745e-09
5.500291e-11
9.811613e-10
4.829546e-09
4.762268e-09
4.446083e-09
4.641422e-09
4.912104e-09
5.037934e-09
5.162273e-09
5.281656e-09
5.376325e-09
5.478729e-09
5.489666e-09
5.488826e-09
5.588978e-09
5.444178e-09
5.567179e-09
5.610742e-09
5.491156e-11
9.828306e-10
5.656679e-09
5.095526e-09
4.778127e-09
4.898484e-09
5.060913e-09
5.287587e-09
5.438144e-09
5.561644e-09
5.662201e-09
5.77688e-09
5.780907e-09
5.772583e-09
5.86206e-09
5.70845e-09
5.818248e-09
5.848323e-09
5.491283e-11
9.708982e-10
6.993595e-09
5.127805e-09
4.903622e-09
4.955623e-09
5.259874e-09
5.547697e-09
5.725532e-09
5.856644e-09
5.97806e-09
6.095729e-09
6.075999e-09
6.068129e-09
6.145251e-09
5.972693e-09
6.074222e-09
6.089444e-09
5.481754e-11
9.795022e-10
6.395069e-09
4.86373e-09
4.760638e-09
5.038099e-09
5.441696e-09
5.80565e-09
6.0257e-09
6.165824e-09
6.301794e-09
6.425725e-09
6.399051e-09
6.364355e-09
6.437378e-09
6.246703e-09
6.333252e-09
6.334453e-09
5.458279e-11
1.0534e-09
4.659503e-09
4.454513e-09
4.682578e-09
5.095662e-09
5.610188e-09
6.079708e-09
6.366263e-09
6.502535e-09
6.654129e-09
6.770922e-09
6.728018e-09
6.679378e-09
6.735442e-09
6.533845e-09
6.59799e-09
6.582747e-09
5.446118e-11
1.089317e-09
4.33793e-09
4.387812e-09
4.682962e-09