/*--------------------------------*- C++ -*----------------------------------*\
| =========                 |                                                 |
| \\      /  F ield         | OpenFOAM: The Open Source CFD Toolbox           |
|  \\    /   O peration     | Version:  2206                                  |
|   \\  /    A nd           | Website:  www.openfoam.com                      |
|    \\/     M anipulation  |                                                 |
\*---------------------------------------------------------------------------*/
FoamFile
{
    version     2.0;
    format      ascii;
    arch        "LSB;label=32;scalar=64";
    class       volScalarField;
    location    "2.6";
    object      omega.b_0;
}
// * * * * * * * * * * * * * * * * * * * * * * * * * * * * * * * * * * * * * //

dimensions      [0 0 -1 0 0 0 0];

internalField   nonuniform List<scalar> 
13078
(
6.495683
0.3833199
0.2513784
0.2494513
0.2499785
0.2506818
0.2515041
6.57947
0.366368
0.2504385
0.2493448
0.2499482
0.2506604
0.2514842
6.585492
0.3576104
0.2501859
0.2492705
0.2499041
0.2506294
0.2514583
6.591679
0.3543009
0.2500608
0.2492148
0.2498617
0.2505968
0.2514303
6.598133
0.3531532
0.2499947
0.2491836
0.2498266
0.2505659
0.2514027
6.604802
0.3526161
0.2499607
0.2491638
0.2498094
0.2505399
0.2513765
6.611848
0.3523958
0.2499588
0.2491506
0.2497976
0.2505288
0.2513537
6.619131
0.3523449
0.2499702
0.2491441
0.2497907
0.2505213
0.2513457
6.626655
0.3523367
0.2499673
0.2491422
0.249787
0.2505163
0.25134
6.634488
0.3524028
0.2499684
0.2491419
0.249785
0.2505129
0.2513358
6.642682
0.3525178
0.2499711
0.2491424
0.249784
0.2505106
0.2513324
6.651186
0.3526682
0.2499745
0.2491431
0.2497834
0.2505089
0.2513297
6.660084
0.3528462
0.2499784
0.2491437
0.2497831
0.2505075
0.2513273
6.669375
0.353048
0.2499826
0.2491441
0.2497826
0.2505062
0.2513251
6.679072
0.3532697
0.2499882
0.2491414
0.2497771
0.2505045
0.2513229
6.689206
0.3535098
0.2499944
0.2491376
0.249773
0.2505029
0.2513207
6.69983
0.3537665
0.2499995
0.2491374
0.2497721
0.2505015
0.2513185
6.710875
0.3540391
0.250005
0.2491374
0.2497713
0.2505001
0.2513161
6.722538
0.3543299
0.2500108
0.2491373
0.2497703
0.2504981
0.2513137
6.734686
0.3546372
0.250017
0.2491368
0.249764
0.2504886
0.2513103
6.747501
0.3549642
0.2500237
0.2491362
0.2497562
0.2504811
0.2513069
6.760848
0.3553106
0.250031
0.2491362
0.2497544
0.2504785
0.2513038
6.774919
0.3556793
0.2500388
0.249136
0.249753
0.2504759
0.2512997
6.789678
0.356073
0.2500475
0.2491359
0.2497508
0.2504657
0.2512851
6.805169
0.3564947
0.2500572
0.2491359
0.2497487
0.2504527
0.2512732
6.821431
0.3569485
0.250068
0.249136
0.2497472
0.2504487
0.2512679
6.838694
0.3574306
0.2500803
0.2491364
0.2497457
0.2504453
0.2512634
6.860782
0.3580058
0.2500959
0.2491371
0.249744
0.2504404
0.2512467
6.889513
0.3585235
0.2501104
0.2491382
0.2497427
0.2504358
0.2512235
6.964901
0.3599676
0.2501493
0.2491399
0.2497417
0.2504329
0.251218
7.077898
0.3615184
0.2501546
0.249141
0.2497408
0.2504295
0.2512089
7.116328
0.3640918
0.2501556
0.2491399
0.2497392
0.2504266
0.2512024
7.153721
0.3673554
0.2502808
0.249146
0.2497347
0.2504229
0.2511978
7.186841
0.3685523
0.2503545
0.2491525
0.2497274
0.2504123
0.2511881
7.221337
0.3697524
0.2503863
0.2491389
0.2497361
0.2503876
0.2511672
7.257501
0.3709807
0.2504156
0.2490843
0.2496928
0.2503772
0.2511403
7.2953
0.3721664
0.250423
0.249045
0.2496041
0.2503569
0.2511335
7.335032
0.3732884
0.2504055
0.2489906
0.2495524
0.250307
0.2511734
7.385166
0.3743602
0.2503801
0.2489298
0.2494998
0.2502266
0.2512239
7.498022
0.3766773
0.2503692
0.2488525
0.2494554
0.2502092
0.2512537
7.673721
0.3816242
0.250269
0.2487662
0.2493786
0.2501488
0.2511596
7.748892
0.3867025
0.2503243
0.2486062
0.2492311
0.250061
0.251235
7.810543
0.3889556
0.2502673
0.2483957
0.2490768
0.2500789
0.2513722
7.878359
0.3909956
0.2500895
0.2481978
0.2490495
0.2501797
0.2514762
7.986776
0.3937179
0.2499653
0.2481645
0.2490846
0.2502353
0.2514532
8.166374
0.3981323
0.2499255
0.2482304
0.2491282
0.2501836
0.2513695
8.255056
0.4030221
0.2501478
0.2482947
0.2490709
0.2500449
0.251155
8.32665
0.4050431
0.2501815
0.2482751
0.2489683
0.2498648
0.2508657
8.395013
0.4066948
0.2501261
0.2481447
0.2488046
0.2496795
0.2506268
8.461768
0.4078264
0.2499991
0.2479881
0.24862
0.2494147
0.2503409
8.560517
0.4115764
0.2498972
0.2478409
0.2484288
0.249165
0.2500356
8.811892
0.4189127
0.2500183
0.24787
0.2484218
0.2490884
0.2498653
8.907573
0.420799
0.2500046
0.2476027
0.2482038
0.2489797
0.249796
8.950768
0.4207292
0.2498398
0.2474624
0.2480957
0.2489123
0.2496815
8.973735
0.4204732
0.2497316
0.2473993
0.2480587
0.2488511
0.2496035
8.980274
0.420333
0.2496245
0.2472883
0.2479378
0.2486918
0.2494778
8.978954
0.4188686
0.2494653
0.2471425
0.247793
0.2485552
0.2492971
8.972022
0.4165959
0.2494909
0.2472729
0.2478822
0.2486109
0.2493242
8.948979
0.4147203
0.2495445
0.2473753
0.2479249
0.2486165
0.2492648
8.904585
0.4124747
0.2495285
0.2474036
0.2478872
0.2485267
0.2492092
8.80827
0.4087635
0.2494178
0.2475391
0.2480554
0.248698
0.2493834
8.557063
0.40081
0.2493993
0.2477347
0.2481998
0.2487996
0.2494866
8.459743
0.3962893
0.249468
0.2477968
0.2482658
0.2488695
0.2496007
8.39376
0.3948191
0.2495415
0.2478879
0.2483191
0.2490084
0.2498383
8.326536
0.3936685
0.2496008
0.2479936
0.2485572
0.2493475
0.250153
8.255056
0.3932904
0.2497014
0.2481651
0.2488156
0.2495163
0.2503423
8.166374
0.3905219
0.2497222
0.2482453
0.2489543
0.2497324
0.2506962
7.986776
0.3876676
0.2498992
0.2483258
0.2490648
0.2500225
0.2509066
7.878359
0.3862602
0.2500702
0.248452
0.2492294
0.2501276
0.2510797
7.810543
0.3852905
0.2502507
0.2486301
0.2493256
0.2501657
0.2512314
7.749106
0.3839296
0.250347
0.2487849
0.2494098
0.2502819
0.251297
7.678124
0.3804404
0.2503311
0.2488827
0.2495178
0.2503061
0.2512652
7.535471
0.3769872
0.2503934
0.2489637
0.2495644
0.2502931
0.2513293
7.439013
0.3753106
0.2504213
0.2490156
0.2495755
0.2502869
0.2512715
7.388639
0.3743988
0.250438
0.2490555
0.2496079
0.2503591
0.2511916
7.344497
0.3727601
0.2504214
0.2490882
0.2496721
0.2503975
0.2511446
7.300795
0.3712659
0.2504074
0.2491101
0.2497293
0.2503901
0.2511615
7.237692
0.3699298
0.2503822
0.2491463
0.249742
0.2504047
0.2511833
7.19073
0.3686909
0.25035
0.2491522
0.2497323
0.2504186
0.2511941
7.154754
0.3676434
0.2502816
0.2491442
0.2497356
0.2504239
0.251199
7.116392
0.3644611
0.2501607
0.2491392
0.2497386
0.2504262
0.2512025
7.077898
0.3619506
0.2501652
0.2491396
0.2497397
0.2504288
0.2512088
6.964901
0.3604134
0.2501621
0.2491385
0.2497404
0.2504321
0.2512173
6.889512
0.3589922
0.2501243
0.2491368
0.2497414
0.250435
0.2512229
6.860782
0.3584662
0.2501101
0.2491358
0.2497428
0.2504394
0.2512453
6.838694
0.357871
0.2500942
0.2491353
0.2497444
0.2504441
0.2512619
6.821431
0.3573606
0.2500813
0.249135
0.249746
0.2504476
0.2512666
6.805169
0.3568745
0.2500697
0.249135
0.2497476
0.2504517
0.251272
6.789678
0.3564188
0.250059
0.249135
0.2497498
0.2504647
0.2512841
6.774919
0.3559912
0.2500493
0.2491353
0.2497521
0.2504749
0.2512988
6.760848
0.3555895
0.2500405
0.2491356
0.2497535
0.2504777
0.2513029
6.747501
0.3552119
0.2500322
0.2491358
0.2497556
0.2504803
0.2513061
6.734686
0.3548558
0.2500246
0.2491366
0.2497636
0.2504881
0.2513097
6.722538
0.3545213
0.2500176
0.2491372
0.24977
0.2504977
0.2513132
6.710875
0.3542051
0.2500111
0.2491373
0.2497711
0.2504998
0.2513156
6.69983
0.3539086
0.2500048
0.2491375
0.2497719
0.2505012
0.251318
6.689206
0.3536292
0.2499991
0.2491379
0.2497729
0.2505026
0.2513203
6.679072
0.3533669
0.2499924
0.2491418
0.2497772
0.2505043
0.2513225
6.669375
0.3531229
0.2499862
0.2491447
0.2497827
0.2505061
0.2513246
6.660084
0.3528975
0.2499815
0.2491444
0.2497833
0.2505072
0.2513267
6.651186
0.3526933
0.2499769
0.2491438
0.2497835
0.2505084
0.2513287
6.642682
0.3525119
0.2499727
0.2491432
0.2497838
0.2505097
0.251331
6.634488
0.3523582
0.249969
0.2491425
0.2497843
0.2505113
0.2513336
6.626655
0.3522404
0.2499663
0.2491421
0.2497853
0.2505136
0.2513369
6.619131
0.3521753
0.2499663
0.2491424
0.2497872
0.2505169
0.2513412
6.611848
0.3521186
0.2499497
0.2491457
0.2497911
0.2505219
0.2513473
6.604802
0.3521719
0.249942
0.2491532
0.2497981
0.2505296
0.2513678
6.598133
0.3524276
0.249958
0.2491634
0.249809
0.2505516
0.2513917
6.591679
0.3529382
0.2499912
0.2491816
0.2498363
0.2505785
0.2514176
6.585492
0.3541515
0.2500497
0.2492216
0.2498718
0.2506088
0.2514453
6.57947
0.3565389
0.2501158
0.2492771
0.2499133
0.2506414
0.2514736
6.495683
0.3593574
0.250297
0.2493483
0.2499605
0.2506748
0.2515011
0.2524791
0.2537069
0.2553458
0.2569203
0.2597283
0.2642336
0.2725795
0.2524573
0.2536794
0.2553096
0.2568786
0.2596763
0.264174
0.2867388
0.2524319
0.2536503
0.2552747
0.257418
0.2596317
0.2641012
0.2865147
0.2524051
0.2536204
0.2552369
0.2567927
0.2595742
0.2640283
0.2862176
0.2523783
0.2535901
0.2552008
0.2567444
0.2595217
0.2639557
0.2857976
0.2523521
0.2535597
0.2551635
0.2566999
0.2594702
0.2638839
0.2852532
0.252327
0.2535299
0.2551267
0.2566572
0.2594558
0.2638135
0.28468
0.2523046
0.2535008
0.2550905
0.2566154
0.2594424
0.2637438
0.2839808
0.2522978
0.2534744
0.2550561
0.2565732
0.2594014
0.2636795
0.2832901
0.2522927
0.253467
0.2550243
0.2565313
0.2593611
0.2636157
0.2824991
0.2522885
0.2534615
0.2550156
0.2564909
0.2593211
0.2635522
0.2816767
0.2522847
0.2534562
0.2550089
0.256482
0.259281
0.2634885
0.280733
0.2522812
0.2534512
0.2550022
0.2564739
0.259274
0.2634235
0.279829
0.2522779
0.2534463
0.2549954
0.2564656
0.2592662
0.2634111
0.279028
0.2522746
0.2534412
0.2549884
0.2564571
0.2592579
0.2633954
0.2787069
0.2522712
0.253436
0.2549812
0.2564482
0.259249
0.2633784
0.2776924
0.2522677
0.2534306
0.2549738
0.2564386
0.2592356
0.2633612
0.2771865
0.2522641
0.2534252
0.2549659
0.2564243
0.2591135
0.2633427
0.2766486
0.2522604
0.2534197
0.2549577
0.2564137
0.2590965
0.2633237
0.2761871
0.2522564
0.253414
0.2549492
0.2564028
0.2590828
0.2633037
0.2756963
0.2522523
0.2534079
0.2549403
0.2563913
0.2590684
0.2632828
0.2752129
0.2522478
0.2534015
0.2549309
0.2563792
0.2590534
0.2632612
0.2748479
0.2522431
0.2533946
0.25492
0.2563706
0.2590344
0.2632389
0.2745249
0.2522367
0.2533872
0.2549109
0.2569041
0.2589249
0.2632053
0.2742318
0.2522303
0.2533795
0.2548974
0.2563462
0.258863
0.2631774
0.2739828
0.2522241
0.2533714
0.2548894
0.2563243
0.2588395
0.2631509
0.2737429
0.2522156
0.2533614
0.2548742
0.2563063
0.2588166
0.263119
0.27354
0.2521912
0.2533489
0.2548711
0.256289
0.2587842
0.2628706
0.2733513
0.2521741
0.2530354
0.2544396
0.2562773
0.2587548
0.2627763
0.2731946
0.2521792
0.2530319
0.2544229
0.256251
0.2587268
0.2627378
0.2730695
0.2521339
0.2530054
0.2544085
0.2562305
0.2586979
0.2625692
0.2729548
0.2521022
0.2529453
0.2543925
0.2562086
0.2586663
0.2623801
0.2728411
0.2520965
0.2529434
0.2543639
0.256187
0.2586352
0.2623409
0.2727039
0.2520852
0.2529231
0.2543252
0.2561697
0.2586115
0.2622715
0.2714962
0.2520727
0.2529285
0.2543249
0.2561709
0.2586389
0.2622498
0.2715392
0.2520837
0.2529448
0.254262
0.2562749
0.2587736
0.2622027
0.2682927
0.2521439
0.2530079
0.2544244
0.2564268
0.2589217
0.2621575
0.2689637
0.2522434
0.2531578
0.2546378
0.2565555
0.2590903
0.2625766
0.2694772
0.2523846
0.2533677
0.2548589
0.2567319
0.2596307
0.2634474
0.2692572
0.2524686
0.2536201
0.2552424
0.2575062
0.2603093
0.2640957
0.2695446
0.2526803
0.2539817
0.2559021
0.2582797
0.2607895
0.2643163
0.2708732
0.2527956
0.2542148
0.2563322
0.2586906
0.2611533
0.2640631
0.2705678
0.2529914
0.2544943
0.2564943
0.258785
0.2612674
0.2641392
0.2707771
0.2531141
0.2546066
0.2567054
0.2588397
0.2611392
0.2643796
0.2706008
0.2530487
0.2546438
0.2564685
0.2588779
0.2610802
0.2643355
0.2704518
0.2527963
0.2543868
0.2564214
0.258497
0.2609888
0.2635438
0.2699661
0.2525142
0.2541878
0.2561466
0.2583343
0.2601566
0.2632264
0.2679947
0.252278
0.2538525
0.2559967
0.2578711
0.2600405
0.2622352
0.2666336
0.2518829
0.2535396
0.2556507
0.257732
0.2595622
0.2621341
0.2652312
0.2516253
0.2531087
0.2554612
0.2575184
0.259377
0.2616336
0.2647253
0.2513935
0.2527185
0.2549483
0.2570124
0.2590953
0.2611093
0.2639769
0.2511385
0.2523723
0.2544981
0.2563887
0.2583235
0.2604214
0.2634036
0.2509652
0.2520967
0.2542546
0.2559912
0.2576443
0.2596621
0.2622244
0.2509525
0.2522754
0.2541854
0.255648
0.2569161
0.2583077
0.2608593
0.2508368
0.252214
0.2540696
0.2554223
0.2564527
0.2569486
0.2592143
0.2506414
0.2521521
0.253956
0.2551471
0.2559205
0.2565549
0.2504451
0.2519997
0.2535076
0.2547556
0.2556094
0.2562235
0.2504938
0.252004
0.2535442
0.2547669
0.2556977
0.2565699
0.2504309
0.2518191
0.2534256
0.2546984
0.2559201
0.256941
0.2588327
0.2503767
0.2515404
0.2533777
0.2549928
0.2563208
0.2581878
0.2610135
0.2505605
0.2516502
0.2534436
0.2551577
0.2567574
0.2586761
0.2611384
0.2506547
0.2518197
0.2535852
0.2551472
0.2569671
0.2587802
0.2614418
0.2507397
0.2517842
0.2539679
0.2555008
0.2569458
0.2590628
0.2620898
0.2510746
0.252206
0.2540208
0.2555317
0.2572695
0.2592197
0.2622069
0.2513931
0.2523696
0.2542752
0.2559139
0.2574385
0.2590902
0.2635051
0.2516209
0.252752
0.2545445
0.2561313
0.2577709
0.2595659
0.2642842
0.2519195
0.2529732
0.254776
0.2564826
0.258093
0.260429
0.265688
0.252168
0.2533361
0.2551036
0.2566731
0.258638
0.2611235
0.2664414
0.2523292
0.2535363
0.2552635
0.2570454
0.2588675
0.2616038
0.2666925
0.25251
0.2536517
0.2554235
0.2571228
0.2592935
0.261795
0.267503
0.2526035
0.2537596
0.2553713
0.2573972
0.2595028
0.2618904
0.2676141
0.2526873
0.2539453
0.2553975
0.2576203
0.2596288
0.262345
0.2684469
0.2525526
0.2538013
0.2551842
0.2572508
0.2595521
0.2628324
0.2685513
0.2523095
0.2535284
0.2548495
0.2567474
0.2595279
0.2628472
0.2678115
0.2521572
0.2532548
0.2545332
0.2563266
0.2590818
0.2625206
0.2681806
0.2520902
0.2530787
0.2543238
0.2563765
0.2587513
0.2620644
0.2690381
0.252072
0.2529985
0.2542199
0.2561584
0.258625
0.2620417
0.2693358
0.2520782
0.2529699
0.2542163
0.2561225
0.2585682
0.2621387
0.2714779
0.2520887
0.2529459
0.2543142
0.2561523
0.2585784
0.2622061
0.2716951
0.2520969
0.2529808
0.254355
0.2561734
0.2586096
0.2622916
0.2717385
0.2521024
0.2529931
0.2543761
0.2561952
0.2586435
0.2623339
0.2724905
0.2521328
0.2529943
0.2543993
0.2562172
0.2586764
0.2624035
0.2726413
0.2521763
0.2530473
0.2544143
0.2562383
0.2587079
0.2627194
0.2728077
0.2521726
0.2530796
0.254429
0.2562563
0.2587362
0.2627469
0.2729806
0.2521901
0.2533477
0.2548672
0.25629
0.2587638
0.2627872
0.273167
0.2522145
0.2533597
0.2548718
0.2563087
0.2587983
0.263014
0.2733936
0.252223
0.2533697
0.2548849
0.256323
0.2588242
0.2631292
0.2736379
0.2522291
0.253378
0.2548969
0.2563368
0.2588475
0.2631573
0.273889
0.2522356
0.2533858
0.2549084
0.2563503
0.2588718
0.2631836
0.2741785
0.252242
0.2533932
0.2549191
0.2563636
0.2589937
0.2632176
0.2744782
0.2522468
0.2534001
0.2549292
0.2563763
0.2590428
0.2632447
0.2747997
0.2522513
0.2534067
0.2549388
0.2563883
0.2590585
0.2632671
0.2751728
0.2522556
0.2534129
0.2549479
0.2563998
0.2590735
0.2632886
0.2755755
0.2522598
0.2534188
0.2549566
0.2564108
0.2590876
0.2633092
0.2760305
0.2522635
0.2534243
0.2549647
0.2564213
0.259101
0.2633291
0.2765372
0.2522672
0.2534298
0.2549727
0.2564342
0.2591652
0.2633482
0.2770623
0.2522706
0.2534352
0.2549802
0.2564457
0.2592427
0.2633665
0.2776133
0.252274
0.2534404
0.2549873
0.2564549
0.2592518
0.2633839
0.2782783
0.2522772
0.2534453
0.2549942
0.2564638
0.2592605
0.2634005
0.2788275
0.2522803
0.2534501
0.2550009
0.2564724
0.2592686
0.2634153
0.2793354
0.2522834
0.2534548
0.2550074
0.2564808
0.2592764
0.2634543
0.2801601
0.2522868
0.2534597
0.2550138
0.2564891
0.2592997
0.2635181
0.2809996
0.2522904
0.2534647
0.2550222
0.2565137
0.2593394
0.2635819
0.2818633
0.2522946
0.2534715
0.2550535
0.2565554
0.2593795
0.2636458
0.2826784
0.2523004
0.253497
0.2550872
0.2565975
0.2594199
0.26371
0.2833899
0.2523214
0.2535252
0.2551228
0.2566403
0.259459
0.2637769
0.28407
0.2523452
0.2535541
0.2551591
0.2566812
0.2594447
0.2638474
0.2847112
0.2523701
0.253584
0.255196
0.2567248
0.2594943
0.2639186
0.2852582
0.2523963
0.2536144
0.2552333
0.2567686
0.259546
0.2639909
0.2856939
0.2524237
0.2536453
0.2552708
0.2568125
0.2595979
0.2640636
0.2860185
0.252451
0.2536757
0.255308
0.2568559
0.25965
0.2641369
0.2862322
0.2524777
0.2537062
0.2553451
0.2568988
0.2597022
0.2642087
0.2821453
3.260531
3.527285
3.481266
3.480915
3.480905
3.480904
3.480904
3.480904
3.480904
3.480904
3.480904
3.480904
3.480904
3.480904
3.480904
3.480904
3.480904
3.480904
3.101554
3.491805
3.480175
3.480879
3.480906
3.480906
3.480906
3.480906
3.480906
3.480906
3.480906
3.480906
3.480906
3.480906
3.480906
3.480906
3.480906
3.480906
3.098951
3.5092
3.481202
3.480905
3.480907
3.480906
3.480906
3.480906
3.480906
3.480906
3.480906
3.480906
3.480906
3.480906
3.480906
3.480906
3.480906
3.480906
3.073242
3.518355
3.48122
3.480908
3.480906
3.480905
3.480905
3.480905
3.480905
3.480905
3.480905
3.480905
3.480905
3.480905
3.480905
3.480905
3.480905
3.480905
3.043762
3.514854
3.481
3.480906
3.480907
3.480905
3.480905
3.480905
3.480905
3.480905
3.480905
3.480905
3.480905
3.480905
3.480905
3.480905
3.480905
3.480905
3.011699
3.513001
3.480933
3.480906
3.480907
3.480905
3.480905
3.480905
3.480905
3.480905
3.480905
3.480905
3.480905
3.480905
3.480905
3.480905
3.480905
3.480905
2.977539
3.512819
3.480923
3.480906
3.480907
3.480905
3.480905
3.480905
3.480905
3.480905
3.480905
3.480905
3.480905
3.480905
3.480905
3.480905
3.480905
3.480905
2.940105
3.514291
3.480922
3.480906
3.480907
3.480905
3.480905
3.480905
3.480905
3.480905
3.480905
3.480905
3.480905
3.480905
3.480906
3.480906
3.480905
3.480905
2.904824
3.515818
3.480923
3.480906
3.480907
3.480906
3.480905
3.480905
3.480905
3.480905
3.480905
3.480905
3.480905
3.480905
3.480906
3.480906
3.480905
3.480905
2.866269
3.516316
3.480925
3.480906
3.480907
3.480906
3.480905
3.480905
3.480905
3.480905
3.480905
3.480905
3.480905
3.480905
3.480906
3.480906
3.480905
3.480905
2.825331
3.515771
3.480937
3.480907
3.480906
3.480906
3.480906
3.480905
3.480905
3.480905
3.480905
3.480905
3.480905
3.480905
3.480906
3.480906
3.480905
3.480905
2.787587
3.517007
3.481008
3.48091
3.480906
3.480906
3.480906
3.480905
3.480905
3.480905
3.480905
3.480905
3.480905
3.480905
3.480906
3.480906
3.480905
3.480905
2.750528
3.524346
3.48125
3.480931
3.480907
3.480906
3.480906
3.480905
3.480905
3.480905
3.480905
3.480905
3.480905
3.480905
3.480906
3.480906
3.480905
3.480905
2.689637
3.527359
3.481426
3.481013
3.480913
3.480906
3.480906
3.480906
3.480905
3.480905
3.480905
3.480905
3.480905
3.480905
3.480907
3.480906
3.480905
3.480905
2.567064
3.52707
3.480958
3.481091
3.480935
3.480907
3.480906
3.480906
3.480905
3.480905
3.480905
3.480905
3.480905
3.480905
3.480907
3.480906
3.480905
3.480905
2.510324
3.530413
3.480889
3.480936
3.480958
3.480909
3.480906
3.480906
3.480905
3.480905
3.480905
3.480905
3.480905
3.480905
3.480907
3.480907
3.480905
3.480905
2.456997
3.528673
3.48092
3.480902
3.480924
3.480915
3.480906
3.480906
3.480906
3.480905
3.480905
3.480905
3.480905
3.480905
3.480907
3.480906
3.480905
3.480905
2.401594
3.533328
3.481018
3.480906
3.480902
3.480916
3.480907
3.480906
3.480906
3.480905
3.480905
3.480905
3.480905
3.480905
3.480906
3.480905
3.480905
3.480905
2.346121
3.533699
3.4808
3.480934
3.48092
3.480906
3.480909
3.480906
3.480906
3.480905
3.480905
3.480905
3.480905
3.480906
3.480906
3.480905
3.480905
3.480905
2.291123
3.534458
3.480785
3.480861
3.480913
3.480909
3.480906
3.480907
3.480907
3.480905
3.480905
3.480905
3.480905
3.480906
3.480906
3.480905
3.480905
3.480905
2.238129
3.535553
3.480876
3.480864
3.480917
3.480905
3.480906
3.480905
3.480907
3.480905
3.480905
3.480905
3.480905
3.480906
3.480907
3.480906
3.480905
3.480905
2.186752
3.536791
3.480913
3.480897
3.480913
3.480907
3.480906
3.480906
3.480907
3.480905
3.480905
3.480905
3.480905
3.480906
3.480907
3.480906
3.480905
3.480905
2.137136
3.537842
3.480921
3.480912
3.480926
3.480904
3.480907
3.480905
3.480907
3.480905
3.480905
3.480905
3.480905
3.48091
3.480913
3.480905
3.480905
3.480905
2.087119
3.538837
3.480924
3.480923
3.480948
3.480905
3.480907
3.480906
3.48091
3.480905
3.480905
3.480905
3.480905
3.480921
3.480934
3.480905
3.480905
3.480905
2.037302
3.53968
3.48093
3.48095
3.480985
3.480906
3.480909
3.480907
3.480913
3.480905
3.480905
3.480905
3.480905
3.480925
3.480944
3.480905
3.480905
3.480906
1.98718
3.540629
3.480938
3.481093
3.481136
3.480907
3.480912
3.480911
3.480917
3.480905
3.480905
3.480905
3.480906
3.480917
3.480909
3.480905
3.480905
3.480909
1.93593
3.541487
3.480956
3.48214
3.482186
3.480898
3.48092
3.480955
3.48093
3.480905
3.480905
3.480905
3.480907
3.480919
3.480933
3.480905
3.480905
3.480917
1.884454
3.542439
3.481048
3.488358
3.488327
3.480837
3.480943
3.481243
3.481017
3.480898
3.480905
3.480905
3.480911
3.480915
3.480921
3.480906
3.480906
3.48093
1.833303
3.54466
3.481487
3.504234
3.500348
3.480764
3.480996
3.482157
3.481437
3.480879
3.480905
3.480905
3.480913
3.480912
3.480908
3.480905
3.480909
3.480927
1.780701
3.551033
3.483943
3.49899
3.48707
3.481317
3.481059
3.482253
3.48182
3.48089
3.480906
3.480906
3.480928
3.480936
3.480909
3.480906
3.480921
3.480912
1.727051
3.566514
3.493375
3.494364
3.497274
3.483456
3.481135
3.480556
3.480673
3.480953
3.480908
3.480907
3.480972
3.480983
3.480908
3.48091
3.480944
3.480933
1.675099
3.580498
3.500009
3.52985
3.515532
3.492421
3.481462
3.481474
3.481232
3.481036
3.480915
3.480911
3.480978
3.480962
3.480905
3.480927
3.480953
3.480948
1.623868
3.569857
3.488477
3.527894
3.509817
3.500809
3.482103
3.481067
3.481855
3.481208
3.480942
3.480942
3.48093
3.480868
3.480907
3.480964
3.480963
3.480894
1.522879
3.606198
3.503056
3.483224
3.502908
3.477666
3.482678
3.481893
3.482298
3.481226
3.481109
3.481099
3.481025
3.480874
3.480925
3.481021
3.481068
3.480954
1.422835
3.70374
3.54843
3.531971
3.484065
3.487013
3.484133
3.483589
3.482492
3.482699
3.482185
3.481852
3.481484
3.481146
3.481044
3.481088
3.481195
3.480934
1.345205
3.773226
3.601315
3.547968
3.507703
3.490163
3.489865
3.488857
3.488161
3.487238
3.486054
3.484646
3.48347
3.482254
3.481667
3.481238
3.481
3.48094
1.21542
3.89411
3.589731
3.524159
3.493508
3.497931
3.49529
3.495772
3.494352
3.494036
3.4927
3.490158
3.488252
3.485948
3.483909
3.482142
3.481525
3.481017
0.5169914
3.774118
3.623605
3.527457
3.491503
3.502377
3.499711
3.499782
3.497764
3.498085
3.496899
3.494222
3.494396
3.491923
3.488371
3.48523
3.482861
3.481587
0.6429948
3.448733
3.634792
3.505921
3.509002
3.510492
3.503716
3.502531
3.50201
3.502147
3.500604
3.498275
3.497147
3.493966
3.4924
3.490307
3.486812
3.483784
0.146699
3.473486
3.63559
3.505577
3.517851
3.516216
3.506799
3.507525
3.504343
3.505028
3.502821
3.500714
3.500404
3.495452
3.494081
3.492383
3.490721
3.487898
0.3537856
3.523321
3.596718
3.517788
3.523799
3.513895
3.507505
3.509302
3.505343
3.508715
3.504633
3.503937
3.501616
3.499019
3.496256
3.493414
3.491542
3.490184
0.1546423
3.589184
3.567773
3.540168
3.531345
3.513388
3.504669
3.508549
3.507877
3.511459
3.509341
3.508625
3.501273
3.500255
3.496883
3.494101
3.492664
3.490422
0.3015919
3.500469
3.572951
3.54971
3.52621
3.52087
3.504524
3.508854
3.509387
3.513267
3.512124
3.509816
3.504444
3.500198
3.494947
3.494832
3.492077
3.491177
0.3332595
3.413513
3.611401
3.592273
3.541746
3.514455
3.507212
3.508648
3.509839
3.515917
3.509224
3.506672
3.508394
3.502813
3.496431
3.492956
3.492991
3.48855
0.3226045
3.540142
3.695888
3.523222
3.532886
3.514392
3.509901
3.507805
3.509484
3.507334
3.512261
3.508581
3.507682
3.498105
3.494816
3.494218
3.488274
3.489463
0.316246
3.431243
3.76131
3.597909
3.531397
3.526245
3.509574
3.511754
3.520036
3.51556
3.519853
3.518523
3.506837
3.500038
3.497196
3.486528
3.491663
3.486245
0.2925316
3.232071
3.743639
3.564579
3.56243
3.514398
3.510199
3.534609
3.534308
3.53635
3.516648
3.52238
3.499248
3.502286
3.49698
3.487793
3.482964
3.487497
0.3130635
2.505956
3.648201
3.734014
3.589057
3.502321
3.523834
3.590607
3.55816
3.559706
3.530326
3.550285
3.510753
3.499128
3.501351
3.48604
3.482232
3.481342
0.2744002
1.140369
3.067716
3.707665
3.56419
3.520217
3.572605
3.647493
3.587933
3.583754
3.570794
3.506802
3.507595
3.499187
3.502078
3.488376
3.477961
3.480169
0.2846366
0.758986
3.018815
3.519617
3.718223
3.625712
3.61615
3.572663
3.519936
3.509994
3.500378
3.502649
3.475292
3.475013
0.2766234
0.6351835
3.627016
3.613779
3.574294
3.491048
3.507555
3.476951
3.478532
3.472307
0.2685664
3.607753
3.606099
3.507705
3.48471
3.469171
3.474062
3.469026
3.532296
3.543685
3.463027
3.483409
3.470586
3.46647
3.556069
3.484643
3.468981
3.473995
3.46581
3.524114
3.509282
3.481623
3.462554
3.461087
3.52881
3.497898
3.484019
3.46288
3.460355
3.517051
3.483719
3.483192
3.461253
3.45798
3.531831
3.498413
3.47334
3.460417
3.456369
3.53561
3.474002
3.463616
3.461108
3.457043
3.540173
3.48761
3.483516
3.451317
3.457265
3.45706
0.2713231
3.512443
3.492435
3.458265
3.457681
3.45487
3.457944
0.270149
0.5360785
3.504068
3.461298
3.494891
3.451764
3.460313
3.459
3.4595
0.2830487
0.5832275
2.170593
3.481988
3.479358
3.497129
3.469956
3.46988
3.467876
3.453583
3.462054
3.454065
0.279483
0.7410721
3.355652
3.715729
3.678773
3.578964
3.501379
3.464383
3.516435
3.482225
3.483704
3.481966
3.470212
3.462915
3.461063
3.457172
3.458122
3.455821
0.3176835
2.501432
3.84007
3.649333
3.564612
3.49049
3.489544
3.446366
3.493624
3.445544
3.465062
3.492106
3.478021
3.457189
3.460992
3.455767
3.454134
3.458928
0.3183706
2.972508
3.753937
3.694826
3.574753
3.473821
3.454672
3.449362
3.45385
3.455677
3.460787
3.460143
3.457509
3.456911
3.454914
3.455104
3.456454
3.459722
0.2626986
3.190065
3.581255
3.580103
3.549075
3.480999
3.46626
3.450743
3.447023
3.459817
3.466132
3.462079
3.456647
3.45358
3.45498
3.461074
3.460225
3.464793
0.2396896
3.200039
3.597454
3.474864
3.479294
3.483119
3.458149
3.453025
3.452955
3.453034
3.457605
3.467127
3.4551
3.462338
3.458163
3.459158
3.46719
3.466591
0.2283578
3.206599
3.62505
3.536846
3.493586
3.470434
3.467231
3.456611
3.455967
3.453786
3.455406
3.4644
3.465217
3.462006
3.464073
3.466347
3.467111
3.474354
0.2308223
3.028946
3.596576
3.534829
3.475727
3.476746
3.476183
3.460682
3.456891
3.460289
3.457559
3.467097
3.472591
3.466059
3.470561
3.470307
3.475835
3.477206
0.1734558
2.918637
3.65839
3.507443
3.485563
3.473422
3.46263
3.463462
3.462797
3.464338
3.465357
3.465983
3.472536
3.472163
3.473906
3.476595
3.479428
3.479718
0.3786441
3.258106
3.556146
3.518578
3.489835
3.484628
3.473656
3.47022
3.469357
3.470464
3.473298
3.473802
3.476764
3.478742
3.479727
3.480301
3.480778
3.479971
0.1624407
3.365729
3.620223
3.523736
3.484643
3.478558
3.477082
3.476304
3.475371
3.476748
3.477712
3.479834
3.479884
3.47987
3.479655
3.48014
3.480848
3.48107
0.2168447
3.478514
3.579981
3.563279
3.497468
3.482169
3.480423
3.481736
3.481986
3.481365
3.481837
3.48134
3.480703
3.479806
3.480056
3.481114
3.481046
3.480744
0.691507
3.409171
3.45248
3.480364
3.497621
3.492259
3.480963
3.486878
3.486283
3.483423
3.480672
3.480062
3.480809
3.48102
3.480706
3.481012
3.481041
3.480938
1.024697
3.52232
3.504876
3.516362
3.519069
3.525726
3.481023
3.483172
3.481905
3.482969
3.480942
3.481259
3.481441
3.481042
3.480532
3.481486
3.481047
3.480979
1.183067
3.639289
3.503482
3.528162
3.521753
3.513331
3.483143
3.482929
3.483057
3.480645
3.480814
3.480812
3.481307
3.481136
3.480797
3.481097
3.481025
3.480995
1.306294
3.620218
3.49206
3.488888
3.514357
3.47077
3.47987
3.480482
3.48182
3.48173
3.481085
3.480949
3.481128
3.481041
3.480893
3.480941
3.480892
3.480934
1.333905
3.515071
3.477137
3.510104
3.486799
3.489532
3.481363
3.481561
3.481764
3.481228
3.480955
3.480933
3.480861
3.48086
3.480905
3.48092
3.480763
3.480978
1.582058
3.569632
3.479385
3.495378
3.496363
3.477946
3.481091
3.481678
3.480679
3.480986
3.480923
3.48091
3.480825
3.480851
3.480911
3.48091
3.480903
3.480979
1.634907
3.554484
3.481033
3.492495
3.472299
3.478704
3.480912
3.480676
3.480723
3.480885
3.480906
3.480906
3.480875
3.480887
3.480915
3.480906
3.480913
3.480965
1.691334
3.552789
3.481891
3.483229
3.480329
3.481261
3.480932
3.48115
3.480844
3.48095
3.480906
3.480906
3.480901
3.480912
3.480917
3.480905
3.48091
3.480884
1.74774
3.551347
3.481429
3.482942
3.48193
3.481148
3.480916
3.480822
3.480937
3.480894
3.480905
3.480906
3.480906
3.480928
3.480928
3.480906
3.480907
3.480903
1.803672
3.548824
3.481244
3.482259
3.48087
3.481015
3.480908
3.480882
3.48089
3.480897
3.480905
3.480905
3.480906
3.480925
3.480936
3.480906
3.480906
3.480912
1.857702
3.547328
3.481162
3.480239
3.48029
3.480841
3.480905
3.48092
3.480898
3.480908
3.480905
3.480905
3.480905
3.480917
3.480928
3.480906
3.480905
3.480907
1.912251
3.546294
3.48111
3.48064
3.480773
3.480881
3.480905
3.48091
3.480907
3.480907
3.480905
3.480905
3.480905
3.480903
3.480903
3.480906
3.480905
3.480905
1.965568
3.545979
3.481085
3.480873
3.480901
3.480903
3.480905
3.480906
3.480907
3.480906
3.480905
3.480905
3.480905
3.480905
3.48091
3.480906
3.480905
3.480905
2.017465
3.545207
3.481063
3.480904
3.480907
3.480906
3.480906
3.480906
3.480906
3.480905
3.480905
3.480905
3.480905
3.480907
3.480907
3.480906
3.480905
3.480905
2.069332
3.544737
3.481051
3.480906
3.480907
3.480908
3.480908
3.480906
3.480905
3.480906
3.480905
3.480905
3.480905
3.480904
3.480905
3.480906
3.480905
3.480905
2.121517
3.54417
3.48104
3.480909
3.480914
3.480917
3.480911
3.480907
3.480906
3.480905
3.480905
3.480905
3.480905
3.480904
3.480906
3.480907
3.480905
3.480905
2.172824
3.543951
3.481039
3.48093
3.480945
3.48093
3.480911
3.480906
3.480905
3.480905
3.480905
3.480905
3.480905
3.480905
3.480907
3.480907
3.480905
3.480905
2.224901
3.543328
3.481072
3.481007
3.481018
3.480929
3.480909
3.480906
3.480905
3.480905
3.480905
3.480905
3.480905
3.480905
3.480908
3.480908
3.480905
3.480905
2.277409
3.543128
3.481241
3.481139
3.481009
3.480904
3.480906
3.480905
3.480906
3.480905
3.480905
3.480905
3.480905
3.480905
3.480908
3.480907
3.480905
3.480905
2.33203
3.543461
3.481511
3.481086
3.480842
3.480911
3.480908
3.480906
3.480906
3.480905