/*--------------------------------*- C++ -*----------------------------------*\
| =========                 |                                                 |
| \\      /  F ield         | OpenFOAM: The Open Source CFD Toolbox           |
|  \\    /   O peration     | Version:  2206                                  |
|   \\  /    A nd           | Website:  www.openfoam.com                      |
|    \\/     M anipulation  |                                                 |
\*---------------------------------------------------------------------------*/
FoamFile
{
    version     2.0;
    format      ascii;
    arch        "LSB;label=32;scalar=64";
    class       volScalarField;
    location    "2.6";
    object      omega.b;
}
// * * * * * * * * * * * * * * * * * * * * * * * * * * * * * * * * * * * * * //

dimensions      [0 0 -1 0 0 0 0];

internalField   nonuniform List<scalar> 
13078
(
6.495683
0.3832142
0.2511182
0.2491853
0.2497116
0.2504141
0.2512355
6.57947
0.3662389
0.2501771
0.2490787
0.2496813
0.2503928
0.2512157
6.585492
0.3574585
0.2499238
0.2490044
0.2496372
0.2503618
0.2511899
6.591679
0.3541391
0.2497984
0.2489487
0.2495948
0.2503292
0.2511618
6.598133
0.3529876
0.2497321
0.2489174
0.2495598
0.2502983
0.2511342
6.604802
0.3524489
0.249698
0.2488976
0.2495426
0.2502723
0.251108
6.611848
0.3522277
0.2496961
0.2488844
0.2495307
0.2502612
0.2510853
6.619131
0.3521761
0.2497075
0.248878
0.2495239
0.2502537
0.2510773
6.626655
0.3521675
0.2497047
0.2488761
0.2495202
0.2502487
0.2510715
6.634488
0.3522331
0.2497057
0.2488758
0.2495182
0.2502453
0.2510673
6.642682
0.3523477
0.2497084
0.2488762
0.2495171
0.250243
0.2510639
6.651186
0.3524977
0.2497118
0.2488769
0.2495166
0.2502413
0.2510612
6.660084
0.3526753
0.2497157
0.2488776
0.2495163
0.2502399
0.2510589
6.669375
0.3528767
0.2497199
0.248878
0.2495157
0.2502386
0.2510566
6.679072
0.3530978
0.2497255
0.2488752
0.2495103
0.2502369
0.2510545
6.689206
0.3533374
0.2497316
0.2488715
0.2495061
0.2502353
0.2510523
6.69983
0.3535934
0.2497367
0.2488713
0.2495053
0.250234
0.25105
6.710875
0.3538653
0.2497422
0.2488713
0.2495045
0.2502325
0.2510477
6.722538
0.3541553
0.249748
0.2488712
0.2495035
0.2502305
0.2510453
6.734686
0.3544616
0.2497542
0.2488707
0.2494972
0.250221
0.2510419
6.747501
0.3547875
0.2497608
0.2488701
0.2494894
0.2502135
0.2510385
6.760848
0.3551326
0.2497681
0.2488701
0.2494876
0.250211
0.2510354
6.774919
0.3554999
0.2497758
0.2488699
0.2494862
0.2502084
0.2510313
6.789678
0.3558919
0.2497845
0.2488698
0.249484
0.2501982
0.2510168
6.805169
0.3563117
0.2497941
0.2488698
0.2494819
0.2501852
0.2510048
6.821431
0.3567635
0.2498049
0.2488699
0.2494805
0.2501812
0.2509996
6.838694
0.3572432
0.2498171
0.2488703
0.2494789
0.2501778
0.2509951
6.860782
0.3578158
0.2498326
0.2488711
0.2494773
0.2501729
0.2509784
6.889512
0.3583305
0.2498471
0.2488721
0.2494759
0.2501684
0.2509552
6.964901
0.3597741
0.249886
0.2488739
0.249475
0.2501655
0.2509497
7.077898
0.3613191
0.2498911
0.2488749
0.2494741
0.2501621
0.2509407
7.116328
0.3638896
0.2498921
0.2488739
0.2494725
0.2501592
0.2509342
7.153721
0.3671499
0.2500172
0.24888
0.249468
0.2501555
0.2509297
7.186841
0.3683426
0.2500908
0.2488865
0.2494607
0.2501449
0.2509199
7.221337
0.3695386
0.2501225
0.2488729
0.2494694
0.2501202
0.250899
7.257501
0.3707635
0.2501516
0.2488183
0.2494261
0.2501097
0.2508722
7.2953
0.3719468
0.250159
0.2487789
0.2493374
0.2500893
0.2508653
7.335032
0.3730681
0.2501413
0.2487243
0.2492855
0.2500394
0.2509051
7.385166
0.374142
0.2501157
0.2486635
0.2492329
0.249959
0.2509555
7.498022
0.3764703
0.2501048
0.248586
0.2491883
0.2499415
0.2509853
7.673721
0.3814161
0.2500048
0.2484996
0.2491115
0.249881
0.2508914
7.748892
0.3865025
0.2500604
0.2483397
0.248964
0.2497938
0.2509689
7.810543
0.3887675
0.2500041
0.2481294
0.2488104
0.2498142
0.25111
7.878359
0.3908244
0.2498273
0.2479322
0.2487855
0.2499191
0.2512182
7.986776
0.393575
0.2497045
0.2479014
0.2488248
0.2499785
0.2511991
8.166374
0.3980085
0.2496676
0.2479714
0.2488727
0.249931
0.2511191
8.255056
0.4029297
0.2498944
0.2480394
0.2488198
0.2497967
0.2509088
8.326653
0.404987
0.2499337
0.2480234
0.2487208
0.24962
0.2506245
8.395059
0.4066796
0.2498835
0.2478969
0.2485605
0.2494381
0.2503888
8.461911
0.4078504
0.249761
0.2477436
0.2483792
0.2491771
0.2501053
8.560827
0.4116491
0.2496625
0.2475989
0.2481907
0.2489303
0.2498033
8.812428
0.41903
0.2497873
0.2476304
0.2481861
0.2488561
0.2496359
8.908314
0.4209519
0.2497781
0.2473649
0.2479696
0.2487486
0.2495676
8.951655
0.420898
0.2496152
0.2472262
0.2478631
0.2486827
0.2494538
8.974729
0.42065
0.2495081
0.2471643
0.2478272
0.2486224
0.249376
8.981361
0.4205229
0.2494022
0.2470541
0.2477071
0.2484637
0.2492504
8.980037
0.4190574
0.2492428
0.2469083
0.247562
0.2483266
0.2490692
8.973011
0.4167666
0.249267
0.2470379
0.2476504
0.2483818
0.2490961
8.949861
0.4148763
0.249319
0.2471393
0.2476922
0.2483865
0.2490363
8.905318
0.4126077
0.2493006
0.247166
0.2476529
0.2482947
0.2489795
8.808797
0.4088529
0.2491848
0.2472994
0.2478191
0.2484645
0.2491521
8.557364
0.4008523
0.2491626
0.247493
0.2479618
0.2485644
0.2492533
8.459881
0.3962724
0.2492275
0.2475525
0.2480249
0.2486312
0.2493639
8.393802
0.3947589
0.2492965
0.2476404
0.248075
0.2487666
0.2495995
8.326539
0.3935668
0.2493507
0.2477423
0.2483101
0.2491026
0.2499113
8.255056
0.3931534
0.2494462
0.2479105
0.2485651
0.2492681
0.2500957
8.166374
0.3903565
0.249463
0.2479871
0.2486995
0.2494802
0.2504462
7.986776
0.3874882
0.2496375
0.2480635
0.2488059
0.2497666
0.2506533
7.878359
0.3860606
0.2498075
0.2481874
0.2489666
0.2498682
0.2508222
7.810543
0.3850827
0.2499874
0.2483649
0.2490604
0.2499022
0.2509703
7.749106
0.3837188
0.2500833
0.2485193
0.2491438
0.2500158
0.2510322
7.678124
0.3802296
0.2500673
0.2486169
0.2492515
0.2500393
0.2509981
7.535471
0.376781
0.2501297
0.2486978
0.2492979
0.250026
0.2510616
7.439013
0.3751032
0.2501577
0.2487496
0.2493089
0.2500198
0.2510034
7.388639
0.3741939
0.2501746
0.2487896
0.2493414
0.2500918
0.2509235
7.344496
0.3725587
0.2501581
0.2488224
0.2494056
0.2501302
0.2508766
7.300795
0.371068
0.2501443
0.2488442
0.2494627
0.2501229
0.2508935
7.237692
0.3697362
0.2501192
0.2488804
0.2494754
0.2501374
0.2509152
7.19073
0.3685
0.250087
0.2488863
0.2494657
0.2501513
0.2509259
7.154754
0.3674555
0.2500186
0.2488782
0.249469
0.2501566
0.2509308
7.116392
0.3642748
0.2498976
0.2488732
0.2494719
0.2501589
0.2509343
7.077898
0.3617657
0.2499022
0.2488736
0.249473
0.2501614
0.2509406
6.964901
0.3602318
0.2498992
0.2488724
0.2494737
0.2501646
0.250949
6.889512
0.3588106
0.2498614
0.2488708
0.2494747
0.2501675
0.2509547
6.860782
0.3582862
0.2498472
0.2488698
0.2494761
0.2501719
0.250977
6.838694
0.3576924
0.2498314
0.2488692
0.2494777
0.2501766
0.2509936
6.821431
0.3571834
0.2498185
0.248869
0.2494793
0.2501801
0.2509983
6.805169
0.3566984
0.2498069
0.248869
0.2494809
0.2501842
0.2510036
6.789678
0.3562437
0.2497963
0.248869
0.2494831
0.2501972
0.2510157
6.774919
0.3558169
0.2497866
0.2488692
0.2494853
0.2502074
0.2510304
6.760848
0.3554161
0.2497777
0.2488695
0.2494868
0.2502101
0.2510345
6.747501
0.3550392
0.2497694
0.2488697
0.2494888
0.2502128
0.2510377
6.734686
0.3546836
0.2497619
0.2488705
0.2494968
0.2502205
0.2510412
6.722538
0.3543497
0.2497549
0.2488711
0.2495031
0.2502301
0.2510448
6.710875
0.3540339
0.2497483
0.2488712
0.2495042
0.2502322
0.2510472
6.69983
0.3537378
0.2497421
0.2488714
0.2495051
0.2502337
0.2510496
6.689206
0.3534588
0.2497364
0.2488718
0.2495061
0.2502351
0.2510519
6.679072
0.3531968
0.2497297
0.2488757
0.2495104
0.2502367
0.2510541
6.669375
0.352953
0.2497235
0.2488786
0.2495159
0.2502385
0.2510562
6.660084
0.3527279
0.2497188
0.2488783
0.2495164
0.2502396
0.2510583
6.651186
0.3525239
0.2497142
0.2488777
0.2495166
0.2502408
0.2510603
6.642682
0.3523426
0.24971
0.248877
0.2495169
0.2502421
0.2510625
6.634488
0.3521891
0.2497063
0.2488764
0.2495175
0.2502437
0.2510652
6.626655
0.3520715
0.2497036
0.248876
0.2495184
0.250246
0.2510684
6.619131
0.3520067
0.2497036
0.2488762
0.2495203
0.2502493
0.2510727
6.611848
0.3519503
0.249687
0.2488796
0.2495242
0.2502543
0.2510789
6.604802
0.3520041
0.2496793
0.2488871
0.2495313
0.250262
0.2510993
6.598133
0.3522605
0.2496953
0.2488973
0.2495422
0.250284
0.2511232
6.591679
0.3527725
0.2497286
0.2489154
0.2495694
0.2503109
0.2511491
6.585492
0.3539889
0.2497872
0.2489554
0.2496049
0.2503412
0.2511768
6.57947
0.3563842
0.2498535
0.249011
0.2496464
0.2503737
0.2512051
6.495683
0.3592181
0.2500352
0.2490822
0.2496936
0.2504071
0.2512326
0.2522095
0.2534361
0.2550732
0.256646
0.2594511
0.2639518
0.2722735
0.2521877
0.2534085
0.2550371
0.2566044
0.2593992
0.2638924
0.286452
0.2521624
0.2533795
0.2550022
0.2571433
0.2593547
0.2638196
0.2862284
0.2521356
0.2533496
0.2549644
0.2565186
0.2592972
0.2637468
0.2859316
0.2521088
0.2533193
0.2549284
0.2564704
0.2592447
0.2636743
0.2855115
0.2520827
0.253289
0.2548911
0.2564259
0.2591933
0.2636026
0.2849666
0.2520576
0.2532592
0.2548543
0.2563832
0.2591789
0.2635323
0.2843929
0.2520352
0.2532302
0.2548182
0.2563415
0.2591656
0.2634627
0.283693
0.2520283
0.2532038
0.2547838
0.2562993
0.2591246
0.2633984
0.2830018
0.2520232
0.2531964
0.254752
0.2562575
0.2590843
0.2633346
0.2822102
0.252019
0.2531908
0.2547433
0.2562171
0.2590444
0.2632712
0.2813872
0.2520152
0.2531856
0.2547366
0.2562082
0.2590043
0.2632076
0.2804431
0.2520118
0.2531806
0.2547299
0.2562002
0.2589973
0.2631427
0.2795387
0.2520085
0.2531757
0.2547232
0.2561919
0.2589895
0.2631303
0.2787373
0.2520052
0.2531706
0.2547162
0.2561833
0.2589813
0.2631146
0.2784189
0.2520018
0.2531654
0.254709
0.2561745
0.2589724
0.2630977
0.2774036
0.2519983
0.25316
0.2547016
0.2561649
0.258959
0.2630804
0.2768977
0.2519948
0.2531546
0.2546937
0.2561506
0.258837
0.263062
0.2763599
0.251991
0.2531491
0.2546856
0.25614
0.25882
0.2630431
0.2758985
0.2519871
0.2531434
0.254677
0.2561291
0.2588063
0.2630231
0.2754078
0.2519829
0.2531373
0.2546682
0.2561177
0.258792
0.2630022
0.2749246
0.2519784
0.2531309
0.2546588
0.2561055
0.258777
0.2629806
0.2745595
0.2519737
0.253124
0.2546479
0.256097
0.258758
0.2629583
0.2742365
0.2519673
0.2531167
0.2546388
0.2566299
0.2586487
0.2629248
0.2739433
0.2519609
0.253109
0.2546253
0.2560727
0.2585868
0.2628969
0.2736943
0.2519548
0.2531009
0.2546174
0.2560507
0.2585634
0.2628705
0.2734543
0.2519463
0.2530909
0.2546022
0.2560328
0.2585405
0.2628386
0.2732514
0.2519219
0.2530785
0.254599
0.2560155
0.2585082
0.2625905
0.2730626
0.2519048
0.2527652
0.2541681
0.2560038
0.2584788
0.2624964
0.2729059
0.25191
0.2527618
0.2541513
0.2559775
0.2584509
0.2624579
0.2727808
0.2518647
0.2527353
0.254137
0.2559571
0.2584219
0.2622895
0.272666
0.2518331
0.2526753
0.254121
0.2559352
0.2583904
0.2621007
0.2725523
0.2518274
0.2526733
0.2540925
0.2559136
0.2583594
0.2620616
0.272415
0.2518162
0.2526531
0.2540538
0.2558964
0.2583358
0.2619923
0.271208
0.2518037
0.2526585
0.2540535
0.2558977
0.2583632
0.2619705
0.2712532
0.2518147
0.2526749
0.2539909
0.2560018
0.2584979
0.2619231
0.26801
0.2518748
0.252738
0.2541533
0.2561538
0.2586462
0.2618781
0.2686772
0.2519744
0.2528879
0.2543668
0.2562829
0.2588151
0.2622978
0.2691942
0.2521156
0.2530979
0.254588
0.2564595
0.2593565
0.2631701
0.2689806
0.2521996
0.2533503
0.2549721
0.2572356
0.2600383
0.2638217
0.2692653
0.2524122
0.2537141
0.2556347
0.2580127
0.2605219
0.2640482
0.270599
0.2525307
0.2539509
0.2560695
0.2584283
0.2608897
0.2637983
0.2702952
0.2527305
0.2542337
0.2562361
0.2585268
0.2610077
0.2638765
0.2705094
0.2528565
0.2543507
0.2564509
0.2585864
0.2608828
0.2641197
0.2703355
0.2527961
0.2543918
0.2562184
0.2586258
0.2608266
0.2640783
0.2701834
0.252548
0.254139
0.2561721
0.2582501
0.2607356
0.2632905
0.2696993
0.2522698
0.2539442
0.2559019
0.2580871
0.2599081
0.2629731
0.2677341
0.2520368
0.2536121
0.2557534
0.2576266
0.2597904
0.261985
0.2663687
0.251646
0.2533008
0.2554107
0.2574886
0.2593147
0.2618829
0.2649708
0.2513907
0.2528739
0.2552229
0.2572755
0.2591312
0.2613818
0.2644639
0.2511624
0.252484
0.254711
0.2567707
0.2588486
0.2608563
0.2637158
0.250909
0.2521402
0.2542601
0.2561464
0.2580769
0.2601688
0.2631414
0.2507361
0.2518661
0.2540161
0.2557507
0.2573978
0.2594075
0.2619617
0.2507241
0.2520438
0.2539496
0.2554081
0.2566717
0.2580549
0.2605939
0.2506086
0.2519825
0.2538333
0.2551823
0.2562066
0.2566967
0.2589554
0.2504125
0.2519203
0.2537192
0.2549066
0.2556754
0.2563037
0.250216
0.2517666
0.2532717
0.2545154
0.2553632
0.2559725
0.2502652
0.2517718
0.2533085
0.2545262
0.2554521
0.2563173
0.2502015
0.2515865
0.253188
0.2544578
0.2556738
0.2566876
0.2585705
0.2501458
0.2513077
0.2531406
0.2547509
0.2560733
0.2579326
0.2607469
0.2503285
0.2514169
0.2532044
0.254915
0.2565078
0.2584212
0.2608773
0.2504206
0.2515838
0.2533439
0.2549032
0.2567195
0.2585247
0.2611814
0.2505027
0.2515473
0.2537272
0.2552565
0.2566971
0.2588071
0.2618259
0.2508357
0.2519658
0.2537773
0.2552864
0.2570198
0.258965
0.261942
0.2511504
0.2521259
0.2540311
0.2556663
0.2571886
0.258834
0.2632355
0.2513757
0.2525067
0.2542966
0.2558845
0.2575185
0.2593104
0.2640155
0.2516706
0.2527243
0.2545263
0.2562307
0.2578416
0.2601702
0.2654194
0.251915
0.2530843
0.2548502
0.2564195
0.2583813
0.2608655
0.2661698
0.2520731
0.2532804
0.2550063
0.256788
0.2586088
0.2613408
0.2664234
0.2522504
0.253393
0.2551645
0.256862
0.2590326
0.2615291
0.2672315
0.2523403
0.2534978
0.2551084
0.257134
0.2592375
0.2616217
0.2673422
0.2524205
0.2536803
0.255132
0.2573545
0.2593603
0.2620754
0.2681692
0.2522843
0.2535327
0.254916
0.2569817
0.2592806
0.262559
0.2682699
0.2520409
0.2532588
0.2545788
0.2564757
0.2592546
0.2625715
0.2675323
0.2518884
0.2529849
0.2542622
0.256054
0.2588063
0.2622415
0.2679028
0.2518213
0.2528087
0.2540527
0.2561031
0.2584756
0.2617849
0.2687531
0.251803
0.2527285
0.2539487
0.2558852
0.2583493
0.2617623
0.2690486
0.2518092
0.2526998
0.2539451
0.2558493
0.2582925
0.2618594
0.2711913
0.2518197
0.2526758
0.2540428
0.255879
0.2583027
0.2619268
0.2714067
0.2518278
0.2527107
0.2540835
0.2559
0.2583337
0.2620121
0.271448
0.2518333
0.252723
0.2541046
0.2559218
0.2583676
0.2620544
0.2721999
0.2518636
0.2527243
0.2541278
0.2559438
0.2584005
0.2621239
0.272351
0.2519071
0.2527772
0.2541427
0.2559648
0.2584319
0.2624394
0.2725178
0.2519034
0.2528093
0.2541574
0.2559828
0.2584602
0.2624669
0.2726911
0.2519208
0.2530772
0.2545952
0.2560165
0.2584877
0.2625071
0.2728778
0.2519452
0.2530892
0.2545997
0.2560352
0.2585222
0.2627336
0.2731047
0.2519536
0.2530991
0.2546128
0.2560494
0.258548
0.2628487
0.2733493
0.2519597
0.2531074
0.2546248
0.2560632
0.2585713
0.2628768
0.2736006
0.2519662
0.2531153
0.2546363
0.2560767
0.2585955
0.262903
0.2738903
0.2519726
0.2531226
0.2546469
0.25609
0.2587173
0.262937
0.2741901
0.2519774
0.2531295
0.2546571
0.2561026
0.2587664
0.2629641
0.2745118
0.2519819
0.2531362
0.2546667
0.2561146
0.258782
0.2629864
0.274885
0.2519863
0.2531423
0.2546757
0.2561261
0.2587971
0.2630079
0.2752878
0.2519904
0.2531482
0.2546844
0.2561371
0.2588111
0.2630285
0.2757429
0.2519941
0.2531537
0.2546925
0.2561476
0.2588246
0.2630484
0.2762494
0.2519978
0.2531592
0.2547004
0.2561604
0.2588887
0.2630675
0.2767745
0.2520012
0.2531646
0.2547079
0.2561719
0.258966
0.2630857
0.2773254
0.2520046
0.2531698
0.2547151
0.2561811
0.2589751
0.2631031
0.2779907
0.2520077
0.2531747
0.254722
0.2561901
0.2589838
0.2631197
0.2785385
0.2520109
0.2531794
0.2547286
0.2561986
0.2589919
0.2631345
0.2790455
0.252014
0.2531842
0.2547351
0.256207
0.2589997
0.2631734
0.2798704
0.2520173
0.253189
0.2547415
0.2562153
0.259023
0.2632371
0.2807102
0.2520209
0.2531941
0.2547499
0.2562398
0.2590626
0.2633009
0.2815743
0.2520252
0.2532008
0.2547811
0.2562815
0.2591027
0.2633648
0.2823899
0.252031
0.2532264
0.2548149
0.2563236
0.2591431
0.2634289
0.2831017
0.252052
0.2532545
0.2548504
0.2563664
0.2591821
0.2634957
0.2837823
0.2520757
0.2532834
0.2548867
0.2564072
0.2591678
0.2635661
0.2844239
0.2521006
0.2533132
0.2549236
0.2564508
0.2592174
0.2636372
0.2849713
0.2521268
0.2533437
0.2549609
0.2564945
0.259269
0.2637094
0.285407
0.2521542
0.2533745
0.2549983
0.2565384
0.2593209
0.2637821
0.2857312
0.2521815
0.2534049
0.2550355
0.2565817
0.259373
0.2638553
0.2859442
0.2522081
0.2534353
0.2550725
0.2566246
0.259425
0.2639271
0.2818463
3.258569
3.524949
3.4788
3.47842
3.478409
3.478408
3.478408
3.478408
3.478408
3.478408
3.478408
3.478408
3.478408
3.478408
3.478408
3.478408
3.478408
3.478408
3.098867
3.489836
3.477671
3.478383
3.47841
3.47841
3.47841
3.47841
3.47841
3.47841
3.47841
3.47841
3.47841
3.47841
3.47841
3.47841
3.47841
3.47841
3.096248
3.506543
3.478693
3.478409
3.478411
3.47841
3.47841
3.47841
3.47841
3.47841
3.47841
3.47841
3.47841
3.47841
3.47841
3.47841
3.47841
3.47841
3.070521
3.516143
3.478728
3.478412
3.47841
3.478409
3.478409
3.478409
3.478409
3.478409
3.478409
3.478409
3.478409
3.478409
3.478409
3.478409
3.478409
3.478409
3.041029
3.512687
3.478507
3.47841
3.47841
3.478409
3.478409
3.478409
3.478409
3.478409
3.478409
3.478409
3.478409
3.478409
3.478409
3.478409
3.478409
3.478409
3.008975
3.51078
3.478438
3.47841
3.478411
3.478409
3.478409
3.478409
3.478409
3.478409
3.478409
3.478409
3.478409
3.478409
3.478409
3.478409
3.478409
3.478409
2.97482
3.51059
3.478427
3.47841
3.478411
3.478409
3.478409
3.478409
3.478409
3.478409
3.478409
3.478409
3.478409
3.478409
3.478409
3.478409
3.478409
3.478409
2.937414
3.512085
3.478426
3.47841
3.478411
3.478409
3.478409
3.478409
3.478409
3.478409
3.478409
3.478409
3.478409
3.478409
3.478409
3.478409
3.478409
3.478409
2.90215
3.513601
3.478427
3.47841
3.478411
3.478409
3.478409
3.478409
3.478409
3.478409
3.478409
3.478409
3.478409
3.478409
3.478409
3.478409
3.478409
3.478409
2.863617
3.514083
3.478428
3.47841
3.478411
3.478409
3.478409
3.478409
3.478409
3.478409
3.478409
3.478409
3.478409
3.478409
3.47841
3.47841
3.478409
3.478409
2.822708
3.51353
3.478441
3.478411
3.47841
3.47841
3.478409
3.478409
3.478409
3.478409
3.478409
3.478409
3.478409
3.478409
3.47841
3.47841
3.478409
3.478409
2.785006
3.514856
3.478514
3.478414
3.47841
3.47841
3.478409
3.478409
3.478409
3.478409
3.478409
3.478409
3.478409
3.478409
3.47841
3.47841
3.478409
3.478409
2.747975
3.522218
3.478759
3.478436
3.478411
3.47841
3.478409
3.478409
3.478409
3.478409
3.478409
3.478409
3.478409
3.478409
3.47841
3.47841
3.478409
3.478409
2.687097
3.52514
3.478926
3.478518
3.478417
3.47841
3.47841
3.478409
3.478409
3.478409
3.478409
3.478409
3.478409
3.478409
3.478411
3.47841
3.478409
3.478409
2.56477
3.524829
3.478453
3.478594
3.478439
3.478411
3.47841
3.478409
3.478409
3.478409
3.478409
3.478409
3.478409
3.478409
3.478411
3.47841
3.478409
3.478409
2.508029
3.528299
3.478398
3.478436
3.478462
3.478413
3.47841
3.478409
3.478409
3.478409
3.478409
3.478409
3.478409
3.478409
3.478411
3.47841
3.478409
3.478409
2.454749
3.526442
3.478421
3.478408
3.478427
3.478419
3.47841
3.47841
3.478409
3.478409
3.478409
3.478409
3.478409
3.478409
3.478411
3.47841
3.478409
3.478409
2.399402
3.531112
3.478523
3.478408
3.478406
3.478419
3.478411
3.47841
3.47841
3.478409
3.478409
3.478409
3.478409
3.478409
3.47841
3.478409
3.478409
3.478409
2.343982
3.531516
3.478308
3.478438
3.478424
3.47841
3.478413
3.47841
3.47841
3.478409
3.478409
3.478409
3.478409
3.478409
3.478409
3.478409
3.478409
3.478409
2.289039
3.532259
3.478287
3.478366
3.478417
3.478413
3.47841
3.478411
3.478411
3.478409
3.478409
3.478409
3.478409
3.478409
3.478409
3.478409
3.478409
3.478409
2.236099
3.533345
3.478378
3.478367
3.478422
3.478409
3.47841
3.478409
3.478411
3.478409
3.478409
3.478409
3.478409
3.47841
3.478411
3.47841
3.478409
3.478409
2.18477
3.534586
3.478417
3.478401
3.478417
3.478411
3.47841
3.478409
3.478411
3.478409
3.478409
3.478409
3.478409
3.47841
3.478411
3.478409
3.478409
3.478409
2.1352
3.535632
3.478425
3.478416
3.47843
3.478408
3.478411
3.478409
3.478411
3.478409
3.478409
3.478409
3.478409
3.478414
3.478417
3.478409
3.478409
3.478409
2.085228
3.536622
3.478428
3.478427
3.478452
3.478409
3.478411
3.478409
3.478414
3.478409
3.478409
3.478409
3.478409
3.478425
3.478439
3.478409
3.478409
3.478409
2.035456
3.537465
3.478434
3.478455
3.47849
3.47841
3.478413
3.47841
3.478417
3.478409
3.478409
3.478409
3.478409
3.478429
3.478448
3.478409
3.478409
3.47841
1.985378
3.538408
3.478442
3.478604
3.478647
3.478411
3.478416
3.478416
3.478421
3.478409
3.478409
3.478409
3.47841
3.478421
3.478413
3.478409
3.478409
3.478413
1.934173
3.539264
3.478461
3.479692
3.479738
3.478401
3.478424
3.478461
3.478435
3.478408
3.478409
3.478409
3.478411
3.478422
3.478437
3.478409
3.478409
3.478421
1.882742
3.540225
3.478557
3.486081
3.486034
3.478338
3.478448
3.478758
3.478525
3.478402
3.478409
3.478409
3.478415
3.478419
3.478425
3.478409
3.47841
3.478434
1.831636
3.542488
3.479011
3.501991
3.497939
3.478268
3.478502
3.479679
3.478953
3.478382
3.478409
3.478409
3.478417
3.478416
3.478412
3.478409
3.478413
3.47843
1.77908
3.548977
3.481562
3.496241
3.484308
3.478841
3.478565
3.479735
3.479316
3.478395
3.478409
3.47841
3.478433
3.478441
3.478412
3.47841
3.478426
3.478417
1.72548
3.564573
3.491162
3.492302
3.495314
3.481031
3.478643
3.478055
3.478165
3.478458
3.478412
3.478411
3.478477
3.478488
3.478412
3.478414
3.478448
3.478437
1.673586
3.578224
3.497558
3.527736
3.512962
3.490137
3.478976
3.478984
3.478753
3.478543
3.478419
3.478415
3.478482
3.478464
3.478409
3.478431
3.478457
3.478451
1.622405
3.567596
3.485962
3.52488
3.507308
3.498119
3.479626
3.478574
3.47938
3.478711
3.478447
3.478448
3.478435
3.478373
3.478411
3.478469
3.478468
3.478398
1.521288
3.60529
3.501123
3.481005
3.500014
3.474971
3.480193
3.479415
3.479781
3.478739
3.478621
3.47861
3.478533
3.478378
3.47843
3.478527
3.478574
3.478458
1.421596
3.702345
3.547089
3.53021
3.481857
3.484736
3.481694
3.481149
3.480052
3.480252
3.479727
3.479383
3.479006
3.478659
3.478554
3.478593
3.478699
3.478438
1.343975
3.772933
3.599358
3.545235
3.504997
3.487739
3.487465
3.486468
3.48577
3.484845
3.483653
3.482223
3.481032
3.479795
3.479194
3.478752
3.478506
3.478445
1.214287
3.892558
3.586711
3.521179
3.491058
3.495458
3.492833
3.493347
3.491914
3.491616
3.490293
3.487742
3.485855
3.483546
3.481473
3.479674
3.47904
3.478526
0.5160796
3.768631
3.622424
3.525114
3.489158
3.499986
3.49728
3.497328
3.495304
3.495643
3.494446
3.491767
3.491958
3.489501
3.48595
3.482807
3.480409
3.479112
0.6412511
3.445234
3.631243
3.503112
3.506785
3.508116
3.501277
3.500066
3.49953
3.499682
3.498121
3.495802
3.494695
3.491448
3.489938
3.487871
3.484393
3.481347
0.1457361
3.476851
3.632981
3.50349
3.515515
3.513778
3.504345
3.505094
3.501829
3.502571
3.500304
3.498188
3.497913
3.49294
3.491559
3.489889
3.488246
3.485462
0.353337
3.517008
3.593493
3.515589
3.521604
3.511367
3.504997
3.50685
3.502817
3.506263
3.502075
3.501381
3.49904
3.496475
3.493715
3.490873
3.489016
3.487677
0.1547684
3.587153
3.565467
3.537946
3.528926
3.511129
3.502129
3.506035
3.505388
3.508955
3.506919
3.506133
3.498688
3.497592
3.494297
3.491505
3.49007
3.487867
0.301318
3.497929
3.570881
3.548117
3.523794
3.518518
3.502044
3.506381
3.506871
3.510732
3.509475
3.507214
3.501838
3.49762
3.492272
3.492161
3.489426
3.488566
0.332694
3.410409
3.610108
3.589746
3.539619
3.512059
3.504822
3.50615
3.507285
3.513388
3.506551
3.503999
3.505669
3.500158
3.4937
3.49021
3.490299
3.485856
0.3219025
3.536138
3.694356
3.520291
3.530243
3.511959
3.50747
3.505345
3.50705
3.504713
3.5097
3.505975
3.505178
3.495344
3.492067
3.491459
3.485501
3.486733
0.31553
3.426944
3.758359
3.596266
3.529268
3.52406
3.507153
3.509411
3.517866
3.512912
3.517423
3.515888
3.504095
3.497363
3.494412
3.483632
3.48884
3.483448
0.2921484
3.226533
3.741858
3.562952
3.560396
3.511352
3.507861
3.53266
3.532029
3.534441
3.513762
3.52025
3.496567
3.499452
3.49433
3.484957
3.480108
3.484625
0.312736
2.499043
3.642458
3.732385
3.586534
3.500216
3.521925
3.589132
3.556162
3.55742
3.528354
3.547364
3.507981
3.496123
3.498433
3.483341
3.479234
3.478439
0.2742308
1.134411
3.061732
3.704512
3.561294
3.518648
3.571573
3.645521
3.585533
3.581207
3.568455
3.503916
3.505063
3.496367
3.49946
3.485684
3.47507
3.477211
0.2843003
0.7562992
3.021118
3.516049
3.718819
3.624316
3.613904
3.571305
3.517331
3.507407
3.497287
3.499709
3.472369
3.472155
0.2762358
0.6302508
3.625641
3.610925
3.572345
3.487946
3.503861
3.474096
3.47544
3.469252
0.2682807
3.604723
3.602198
3.505086
3.482823
3.466169
3.471171
3.466028
3.529773
3.542621
3.459824
3.480722
3.467637
3.463458
3.553458
3.48146
3.466154
3.471042
3.462722
3.521067
3.506787
3.478783
3.459616
3.458125
3.523399
3.494411
3.481798
3.459881
3.457328
3.515192
3.481959
3.480124
3.458278
3.454962
3.529306
3.494947
3.470451
3.457482
3.453414
3.532618
3.471711
3.460638
3.458157
3.454039
3.537454
3.485011
3.480101
3.448241
3.454273
3.454132
0.2710287
3.509383
3.489536
3.455964
3.454715
3.451947
3.455052
0.2698358
0.5342086
3.500612
3.4588
3.491977
3.448367
3.457423
3.456002
3.456489
0.2826612
0.5812461
2.166885
3.479727
3.476966
3.494806
3.467085
3.467204
3.464967
3.450693
3.459216
3.451202
0.2792115
0.7344223
3.351168
3.712928
3.677045
3.576798
3.499709
3.462545
3.512631
3.479513
3.481317
3.478571
3.467576
3.459873
3.458193
3.454356
3.455199
3.452986
0.3173297
2.49486
3.837446
3.647516
3.562629
3.488461
3.486981
3.443748
3.491352
3.442697
3.462666
3.49015
3.475188
3.454413
3.458275
3.452812
3.45144
3.455971
0.3180236
2.967022
3.751611
3.692764
3.572709
3.47139
3.45201
3.446845
3.451435
3.453053
3.458146
3.457545
3.455069
3.454099
3.451926
3.452349
3.453446
3.457024
0.2624315
3.185565
3.57872
3.577492
3.547206
3.478558
3.463816
3.448177
3.444406
3.457245
3.463223
3.459345
3.453936
3.450781
3.452361
3.45817
3.457609
3.461885
0.2391377
3.195612
3.59498
3.4723
3.476953
3.48097
3.455667
3.450468
3.45027
3.450358
3.455017
3.464461
3.452381
3.459764
3.455321
3.456534
3.464409
3.463989
0.2278777
3.201664
3.62377
3.535089
3.490469
3.467788
3.465038
3.45413
3.453412
3.451173
3.452847
3.46171
3.46259
3.459311
3.461441
3.463686
3.464483
3.471663
0.2304235
3.024173
3.594393
3.532705
3.473852
3.474188
3.47362
3.458184
3.454288
3.457743
3.45493
3.464492
3.469999
3.463395
3.467914
3.467615
3.473203
3.474618
0.1731949
2.917602
3.65469
3.50497
3.483345
3.470943
3.460224
3.460965
3.460223
3.461787
3.462771
3.463445
3.470037
3.469559
3.471374
3.47401
3.476833
3.477142
0.3778759
3.256246
3.553383
3.516649
3.487501
3.482222
3.471149
3.467744
3.466821
3.467945
3.470721
3.471248
3.474174
3.476215
3.47711
3.477739
3.478218
3.477446
0.1616111
3.359447
3.618357
3.521685
3.482305
3.476143
3.474618
3.473851
3.472861
3.474239
3.475174
3.477284
3.477356
3.477315
3.477063
3.477595
3.478366
3.478576
0.2155152
3.476781
3.576275
3.560839
3.495131
3.47974
3.477924
3.479273
3.479503
3.478863
3.4793
3.478816
3.478115
3.477256
3.477546
3.478621
3.478551
3.478248
0.6890192
3.406242
3.449828
3.477437
3.495343
3.4901
3.478416
3.484437
3.483747
3.480932
3.478141
3.477545
3.478315
3.478538
3.478207
3.4785
3.478547
3.478442
1.023901
3.520125
3.502121
3.51461
3.516854
3.523882
3.47858
3.480584
3.479374
3.480444
3.47846
3.478769
3.478943
3.478538
3.478033
3.478991
3.478549
3.478484
1.181874
3.637241
3.501405
3.525782
3.51937
3.510036
3.480629
3.480479
3.480561
3.478146
3.47831
3.478315
3.478818
3.478645
3.478298
3.478604
3.47853
3.478499
1.305116
3.61619
3.489455
3.485831
3.511414
3.468487
3.477387
3.477996
3.479308
3.479235
3.47859
3.478452
3.478637
3.478544
3.478397
3.478445
3.478399
3.478437
1.332311
3.51339
3.474685
3.508062
3.484361
3.487043
3.478855
3.47906
3.479285
3.478745
3.47846
3.478438
3.478365
3.478365
3.478409
3.478424
3.478265
3.478481
1.58059
3.566988
3.476879
3.492487
3.494077
3.475552
3.478601
3.47915
3.47818
3.478479
3.478427
3.478414
3.478328
3.478354
3.478414
3.478414
3.478406
3.478483
1.63337
3.552351
3.478522
3.489767
3.46964
3.476092
3.478415
3.478186
3.478223
3.478391
3.47841
3.47841
3.478378
3.47839
3.478419
3.47841
3.478417
3.47847
1.689741
3.550491
3.479404
3.480942
3.47783
3.478771
3.478436
3.478653
3.478344
3.478454
3.47841
3.47841
3.478405
3.478416
3.478421
3.478409
3.478414
3.478388
1.746098
3.54911
3.478941
3.480373
3.479403
3.478649
3.47842
3.478329
3.478441
3.478399
3.478409
3.478409
3.47841
3.478432
3.478432
3.478409
3.478411
3.478406
1.801983
3.546585
3.478752
3.479813
3.478405
3.478525
3.478412
3.478384
3.478395
3.4784
3.478409
3.478409
3.47841
3.478429
3.47844
3.478409
3.478409
3.478415
1.855969
3.545083
3.478668
3.477751
3.47779
3.478345
3.478409
3.478424
3.478401
3.478412
3.478409
3.478409
3.478409
3.478421
3.478432
3.47841
3.478409
3.478411
1.910473
3.544057
3.478615
3.478137
3.478272
3.478384
3.478409
3.478414
3.478411
3.478411
3.478409
3.478409
3.478409
3.478406
3.478407
3.47841
3.478409
3.478409
1.963745
3.543751
3.478591
3.478375
3.478404
3.478406
3.478409
3.47841
3.478411
3.47841
3.478409
3.478409
3.478409
3.478408
3.478414
3.47841
3.478409
3.478409
2.0156
3.54297
3.478568
3.478408
3.478411
3.47841
3.47841
3.47841
3.47841
3.478409
3.478409
3.478409
3.478409
3.478411
3.478411
3.47841
3.478409
3.478409
2.067426
3.542522
3.478556
3.47841
3.478411
3.478412
3.478412
3.47841
3.478409
3.478409
3.478409
3.478409
3.478409
3.478408
3.478409
3.47841
3.478409
3.478409
2.119567
3.541945
3.478544
3.478413
3.478418
3.478421
3.478415
3.478411
3.478409
3.478409
3.478409
3.478409
3.478409
3.478408
3.47841
3.47841
3.478409
3.478409
2.170832
3.541735
3.478544
3.478434
3.47845
3.478434
3.478415
3.47841
3.478409
3.478409
3.478409
3.478409
3.478409
3.478409
3.478411
3.478411
3.478409
3.478409
2.222864
3.541117
3.478579
3.478513
3.478523
3.478432
3.478412
3.478409
3.478409
3.478409
3.478409
3.478409
3.478409
3.478409
3.478412
3.478412
3.478409
3.478409
2.275327
3.540925
3.47875
3.478644
3.47851
3.478408
3.47841
3.478409
3.478409
3.478409
3.478409
3.478409
3.478409
3.478409
3.478412
3.478411
3.478409
3.478409
2.329901
3.541271
3.479019
3.478584
3.478346
3.478415
3.478411
3.47841
3.478409
3.478409
3.478409
3.478409
3.478409
3.478409
3.478412
3.478411
3.478409
3.478409
2.387947
3.542436
3.478832