/*--------------------------------*- C++ -*----------------------------------*\
| =========                 |                                                 |
| \\      /  F ield         | OpenFOAM: The Open Source CFD Toolbox           |
|  \\    /   O peration     | Version:  2206                                  |
|   \\  /    A nd           | Website:  www.openfoam.com                      |
|    \\/     M anipulation  |                                                 |
\*---------------------------------------------------------------------------*/
FoamFile
{
    version     2.0;
    format      ascii;
    arch        "LSB;label=32;scalar=64";
    class       volScalarField;
    location    "2.6";
    object      p_rbgh;
}
// * * * * * * * * * * * * * * * * * * * * * * * * * * * * * * * * * * * * * //

dimensions      [1 -1 -2 0 0 0 0];

internalField   nonuniform List<scalar> 
13078
(
15.79225
9.149536
4.004637
1.307141
-0.09724342
-0.9305191
-1.367917
13.57973
7.647789
3.343853
1.009537
-0.3444107
-1.152315
-1.564282
6.523409
4.152788
1.949499
0.2816129
-0.8456376
-1.538787
-1.877979
2.746366
1.668196
0.4183351
-0.6912516
-1.540037
-2.072665
-2.305456
0.242487
-0.3367133
-1.101009
-1.822621
-2.381691
-2.733683
-2.840933
-1.825574
-2.149447
-2.603917
-3.042646
-3.363629
-3.516833
-3.481771
-3.723858
-3.889656
-4.127174
-4.345473
-4.461363
-4.432095
-4.234023
-5.574774
-5.63153
-5.709442
-5.74041
-5.671265
-5.470844
-5.109225
-7.449192
-7.423504
-7.369631
-7.240571
-7.000599
-6.632122
-6.107119
-9.397134
-9.304002
-9.13719
-8.862894
-8.460391
-7.92394
-7.228776
-11.45932
-11.30628
-11.03714
-10.62618
-10.06415
-9.356855
-8.482988
-13.67191
-13.46231
-13.09565
-12.55092
-11.82817
-10.94413
-9.880869
-16.06997
-15.80412
-15.34042
-14.66033
-13.77183
-12.70198
-11.43611
-18.6891
-18.36505
-17.80141
-16.98091
-15.91909
-14.64979
-13.16523
-21.56675
-21.18075
-20.51182
-19.55109
-18.31566
-16.81177
-15.08787
-24.74312
-24.2901
-23.50907
-22.41232
-20.96659
-19.21262
-17.2271
-28.26202
-27.73527
-26.8307
-25.56498
-23.89814
-21.88213
-19.60955
-32.17176
-31.56327
-30.52266
-29.06953
-27.1599
-24.85587
-22.26582
-36.52586
-35.82621
-34.63491
-32.97454
-30.79729
-28.17682
-25.231
-41.38374
-40.5821
-39.22327
-37.33391
-34.88486
-31.94128
-28.54883
-46.81153
-45.89556
-44.35042
-42.20965
-39.49483
-36.13562
-32.26008
-52.88272
-51.8383
-50.08499
-47.66044
-44.59416
-40.79448
-36.41501
-59.67901
-58.49028
-56.50452
-53.76363
-50.30155
-46.01534
-41.08124
-67.29114
-65.94039
-63.69532
-60.60225
-56.70193
-51.93146
-46.43514
-75.81964
-74.2872
-71.75337
-68.26964
-63.88967
-58.65584
-52.41671
-85.3755
-83.63958
-80.78449
-76.86678
-71.94606
-66.07755
-59.05894
-96.08087
-94.11785
-90.90625
-86.50826
-80.98911
-74.40894
-66.53521
-108.0701
-105.8566
-102.2484
-97.32079
-91.14243
-83.78346
-75.09358
-121.491
-119.0001
-114.9532
-109.4441
-102.5436
-94.3449
-84.91708
-136.5161
-133.7538
-129.1831
-123.0316
-115.3384
-106.194
-95.68105
-153.3424
-150.2295
-145.1094
-138.2552
-129.6997
-119.5248
-107.8186
-172.0681
-168.6464
-163.0515
-155.331
-145.8193
-134.5369
-121.5715
-192.9315
-189.2756
-183.1512
-174.685
-163.9256
-151.4359
-137.0828
-216.1198
-212.0959
-205.6288
-196.224
-184.2496
-170.4642
-154.6262
-241.834
-237.4023
-230.3678
-220.3066
-207.4836
-191.9709
-174.4922
-270.269
-265.4256
-257.8386
-247.4512
-233.6705
-216.8455
-197.0503
-301.5985
-296.3524
-288.2241
-277.1856
-263.0747
-244.5843
-222.6612
-335.9648
-330.3492
-321.7403
-310.0579
-295.1388
-275.8244
-252.7453
-373.4638
-367.5536
-358.5437
-346.3552
-330.8058
-311.5376
-286.4639
-414.2028
-408.1744
-398.7555
-386.2102
-370.2145
-350.3655
-324.7792
-458.1049
-452.1173
-442.7546
-429.7796
-413.641
-393.6969
-369.194
-504.63
-499.0918
-490.1756
-477.6744
-461.2594
-441.6292
-417.4051
-553.4846
-548.176
-540.522
-529.176
-513.9693
-494.2316
-469.7047
-604.1072
-599.1456
-592.432
-583.5444
-570.2982
-551.4023
-524.1308
-655.8477
-651.5069
-645.8088
-638.8617
-628.2304
-609.4146
-580.6182
-707.6754
-704.3236
-700.6723
-695.1133
-684.0401
-665.5577
-634.3987
-758.22
-756.2486
-754.5803
-749.6011
-737.6806
-716.0563
-683.5647
-806.5057
-805.5767
-804.6131
-799.7925
-786.4204
-762.4557
-725.1605
-851.3554
-851.1432
-849.9084
-843.6037
-828.4318
-801.2757
-758.1251
-891.4863
-891.3858
-889.1236
-880.4912
-861.7017
-829.5545
-781.5968
-926.0119
-925.8199
-921.7116
-909.8796
-886.8533
-849.1445
-794.3983
-953.5612
-952.7763
-947.0708
-932.8012
-905.623
-862.1996
-800.2196
-972.8234
-970.97
-963.896
-946.931
-915.8362
-867.0299
-797.2505
-983.4332
-980.5903
-971.7622
-952.1181
-917.3368
-863.8904
-789.4604
-985.4852
-981.8659
-971.6874
-950.0476
-912.5874
-855.8126
-778.104
-979.0616
-974.832
-963.7565
-940.9405
-902.0483
-843.618
-764.3966
-963.9065
-959.1998
-947.5986
-924.3099
-885.0831
-826.5486
-747.6313
-940.6907
-935.9448
-924.4591
-901.6059
-863.2626
-806.1929
-729.3308
-910.3908
-906.0918
-895.4348
-873.9653
-837.7149
-783.541
-709.8408
-873.4549
-869.8768
-860.3795
-840.639
-807.026
-756.467
-685.7779
-830.5635
-827.6621
-818.3004
-799.7718
-768.5664
-721.7456
-657.4054
-782.773
-779.9784
-771.7403
-754.6853
-726.353
-683.459
-624.8681
-732.1491
-729.1964
-722.458
-708.232
-683.2829
-644.8996
-591.5222
-680.1549
-677.1486
-671.2709
-658.9801
-637.0859
-603.0508
-553.3545
-627.6614
-624.15
-618.6171
-607.7054
-587.2532
-556.2479
-512.7355
-575.711
-571.5304
-565.6534
-554.8157
-536.2293
-507.8805
-469.7323
-525.1518
-520.044
-512.8199
-502.2079
-485.2472
-460.9834
-425.8519
-476.5778
-471.0176
-462.6415
-451.6962
-436.3612
-413.5559
-382.1613
-430.8642
-425.1965
-416.695
-405.1412
-389.1572
-367.9181
-339.1972
-388.4335
-382.8962
-374.3568
-362.015
-345.8786
-325.6235
-300.4137
-349.361
-344.0438
-335.3195
-323.1162
-307.3455
-288.2106
-265.238
-313.6621
-308.436
-300.0323
-288.3721
-273.58
-255.5476
-234.0596
-281.1876
-276.2654
-268.3769
-257.5531
-243.7829
-227.0131
-206.3789
-251.9242
-247.3675
-240.1807
-230.1667
-217.4485
-202.1899
-183.0288
-225.6306
-221.4789
-214.8362
-205.7195
-194.1164
-179.5714
-162.5828
-201.997
-198.2051
-192.1425
-183.8348
-173.1096
-159.7555
-144.2515
-180.7729
-177.3473
-171.8405
-164.3191
-154.3048
-142.2123
-128.5472
-161.7018
-158.6393
-153.6678
-146.5766
-137.5581
-126.7029
-114.5813
-144.5939
-141.8474
-137.3738
-130.8602
-122.5703
-113.033
-102.1185
-129.2419
-126.7738
-122.595
-116.794
-109.4106
-100.8313
-90.98114
-115.4579
-113.1648
-109.3773
-104.1241
-97.62802
-89.90696
-81.02338
-103.0886
-101.0105
-97.5588
-92.90973
-87.08146
-80.1271
-72.10428
-91.96037
-90.11841
-87.04076
-82.87249
-77.63359
-71.37992
-64.16287
-82.0013
-80.33932
-77.61221
-73.87628
-69.17145
-63.55405
-57.06512
-73.08
-71.60023
-69.16388
-65.81538
-61.59315
-56.5376
-50.54027
-65.08444
-63.76858
-61.59368
-58.59639
-54.81325
-50.27813
-44.82548
-57.92057
-56.75327
-54.81314
-52.13409
-48.7496
-44.69072
-39.81235
-51.50378
-50.46991
-48.74175
-46.35087
-43.32754
-39.69473
-35.34222
-45.75746
-44.84326
-43.30644
-41.17603
-38.47438
-35.15301
-31.30441
-40.61198
-39.80513
-38.44108
-36.54677
-34.14068
-31.14708
-27.68138
-36.00404
-35.2934
-34.08522
-32.40425
-30.26666
-27.60486
-24.51967
-31.87614
-31.25175
-30.1841
-28.69573
-26.79794
-24.4382
-21.70059
-28.1762
-27.62912
-26.68811
-25.3715
-23.65603
-21.58261
-19.17992
-24.85702
-24.37939
-23.55306
-22.39394
-20.86605
-19.01655
-16.9249
-21.87583
-21.46069
-20.73822
-19.72252
-18.38047
-16.75157
-14.90894
-19.19391
-18.83518
-18.20708
-17.32189
-16.14941
-14.72238
-13.10298
-16.77621
-16.46868
-15.9268
-15.15998
-14.14277
-12.90034
-11.48371
-14.5909
-14.33018
-13.86701
-13.19631
-12.32734
-11.26179
-10.03078
-12.60901
-12.39177
-12.00288
-11.43152
-10.6859
-9.786945
-8.726497
-10.80387
-10.62762
-10.30946
-9.837861
-9.21583
-8.459472
-7.555633
-9.15063
-9.014043
-8.764668
-8.389553
-7.886234
-7.26342
-6.505379
-7.625755
-7.528872
-7.348537
-7.068998
-6.681304
-6.186204
-5.565195
-6.206264
-6.150829
-6.042615
-5.860902
-5.588447
-5.217562
-4.726658
-4.868438
-4.859129
-4.829991
-4.751623
-4.597298
-4.349468
-3.983367
-3.586562
-3.632054
-3.693833
-3.72971
-3.699645
-3.576036
-3.330808
-2.330272
-2.445619
-2.615568
-2.784198
-2.889553
-2.893265
-2.769699
-1.059825
-1.271432
-1.58425
-1.907397
-2.162839
-2.303296
-2.301435
0.2844284
-0.06975406
-0.5759984
-1.092432
-1.521887
-1.812738
-1.91996
1.810246
1.222535
0.4365182
-0.3368884
-0.9804519
-1.414453
-1.622645
3.755368
2.7118
1.475614
0.3349584
-0.5342865
-1.110697
-1.412248
6.9105
4.652986
2.507128
0.9060083
-0.2037078
-0.9152216
-1.294629
13.27164
7.505654
3.501315
1.284072
-0.04152175
-0.8512564
-1.278928
-1.490719
-1.356871
-1.021476
-0.6408959
-0.09717535
0.4852047
1.05907
-1.663125
-1.505817
-1.147316
-0.7372426
-0.1709644
0.4307044
0.9891753
-1.922796
-1.720244
-1.318711
-0.7683907
-0.2710155
0.3627467
0.949552
-2.271315
-2.00493
-1.549886
-1.050838
-0.3966318
0.2855957
0.9166009
-2.70851
-2.35933
-1.828848
-1.269128
-0.5489651
0.1979808
0.8879445
-3.236188
-2.787998
-2.166836
-1.532048
-0.7295939
0.09772708
0.8612806
-3.857546
-3.295309
-2.567551
-1.843705
-0.9307073
-0.01751146
0.8350258
-4.581461
-3.885961
-3.035231
-2.207867
-1.16413
-0.1501523
0.8054209
-5.416658
-4.568958
-3.574667
-2.629774
-1.44192
-0.3019884
0.7721099
-6.368556
-5.348686
-4.193912
-3.113309
-1.759288
-0.4744522
0.735788
-7.439738
-6.235057
-4.892407
-3.664878
-2.119569
-0.6693999
0.6968469
-8.639661
-7.23188
-5.684005
-4.283122
-2.528619
-0.8897349
0.6527502
-9.97991
-8.348863
-6.57328
-4.980123
-2.983638
-1.14044
0.6021441
-11.47451
-9.597683
-7.569709
-5.76287
-3.497891
-1.413363
0.5394381
-13.14012
-10.99219
-8.684326
-6.639875
-4.075232
-1.725037
0.4625812
-14.99644
-12.54866
-9.930068
-7.621098
-4.721469
-2.072661
0.3974206
-17.06632
-14.28615
-11.32207
-8.718111
-5.448144
-2.462424
0.3145699
-19.37617
-16.22682
-12.87855
-9.952512
-6.390126
-2.899039
0.2210538
-21.95625
-18.39594
-14.61899
-11.32721
-7.317615
-3.387364
0.1143682
-24.84137
-20.82274
-16.567
-12.86519
-8.352454
-3.932852
-0.002495554
-28.0713
-23.54095
-18.74968
-14.58783
-9.510893
-4.542275
-0.1308932
-31.69138
-26.5896
-21.19907
-16.51831
-10.80856
-5.224458
-0.2744598
-35.75327
-30.01345
-23.95833
-18.67087
-12.26823
-5.990231
-0.436062
-40.3229
-33.85923
-27.04386
-19.97458
-14.1595
-6.867615
-0.6190228
-45.45776
-38.19332
-30.57119
-23.89608
-16.14976
-7.843867
-0.8260113
-51.22562
-43.05315
-34.46671
-27.0041
-18.3142
-8.946067
-1.060628
-57.74015
-48.52788
-38.8825
-30.50508
-20.75185
-10.20036
-1.327699
-65.34097
-54.69197
-43.87487
-34.46781
-23.53457
-12.05112
-1.634746
-73.92857
-62.87104
-51.14211
-38.96458
-26.69768
-13.87191
-1.984979
-83.32851
-70.91157
-57.76623
-44.12595
-30.30318
-15.81684
-2.389166
-94.37538
-80.56881
-65.32949
-50.00923
-34.43494
-18.43199
-2.889861
-107.0307
-91.34916
-73.96159
-56.76217
-39.21552
-21.76896
-3.463655
-120.9893
-104.3585
-83.93161
-64.56629
-44.78105
-25.01557
-4.147013
-136.8144
-118.3129
-96.19461
-73.65254
-51.34043
-28.98611
-6.077683
-154.8641
-134.2982
-110.4262
-84.33294
-59.16492
-33.75342
-7.36791
-175.4618
-152.5968
-127.5279
-97.03899
-68.61579
-39.65289
-9.35012
-198.9948
-173.6498
-146.1656
-114.1072
-80.16672
-47.29978
-13.55284
-226.0073
-197.9286
-167.8163
-133.2838
-95.18038
-57.39774
-18.36362
-257.0517
-226.0002
-193.2377
-157.3271
-115.208
-71.38746
-26.67181
-294.3522
-258.5818
-223.1579
-184.0123
-138.8562
-88.28275
-37.6351
-336.9068
-296.5298
-257.8519
-213.9687
-165.5167
-106.7595
-48.06044
-385.4501
-342.8514
-298.4479
-247.5392
-189.9642
-126.8903
-58.11563
-435.6939
-389.8803
-341.3997
-283.0751
-214.2307
-145.5827
-67.31782
-486.4708
-436.3946
-381.9966
-317.0444
-242.1868
-163.8476
-79.04139
-539.3838
-489.0959
-429.1072
-352.129
-270.7193
-180.1998
-89.0125
-590.5855
-536.6187
-469.6157
-388.7431
-294.5575
-201.6413
-100.2283
-635.1378
-578.3877
-504.6163
-415.8968
-321.9369
-220.0286
-112.8276
-670.0111
-612.3218
-532.6196
-441.9264
-342.3755
-239.0463
-131.7424
-698.3714
-636.6476
-553.0851
-459.9132
-358.3653
-254.6132
-147.3858
-714.4105
-649.4982
-559.8872
-467.0783
-366.6616
-265.8039
-163.6223
-721.5073
-656.1584
-560.4747
-463.7018
-364.2325
-268.1098
-170.2534
-717.7786
-649.4213
-553.2044
-451.4714
-351.0522
-253.7029
-157.8654
-709.3608
-638.7348
-535.9744
-427.8242
-320.3096
-215.7939
-120.6047
-696.9227
-622.4482
-511.3714
-394.4941
-272.8156
-154.0827
-41.92001
-681.8333
-604.0163
-485.6672
-358.1359
-221.2278
-69.4786
60.36903
-666.7801
-586.8445
-464.6233
-330.9149
-179.4264
2.914813
-650.7665
-571.5026
-450.7225
-318.6259
-167.4574
16.21695
-635.1109
-558.9991
-444.8988
-322.4027
-187.5882
-34.70197
-620.4251
-548.4828
-443.6395
-333.8743
-222.5399
-109.894
-10.92742
-601.3282
-536.8972
-439.9199
-345.7236
-254.0775
-168.7284
-86.50504
-577.5126
-518.2412
-433.2945
-350.1779
-272.859
-201.5923
-128.8227
-553.3408
-500.6185
-423.8947
-349.1302
-279.4819
-212.7739
-141.6935
-523.0706
-476.0922
-403.2263
-337.9894
-273.1153
-206.1665
-133.4081
-491.1981
-447.3793
-384.9587
-322.4241
-257.6531
-189.2352
-113.3695
-455.0371
-419.1615
-358.5193
-298.8791
-235.9642
-171.0154
-98.35345
-418.6928
-384.118
-329.1571
-271.345
-214.1041
-154.2239
-85.25349
-380.3735
-351.1194
-297.7691
-244.4245
-189.3856
-134.7821
-66.7241
-340.6842
-314.1848
-266.3108
-218.0073
-167.2019
-115.2561
-54.95262
-302.8107
-279.0767
-235.7975
-191.406
-147.3676
-100.4325
-47.24045
-267.7525
-246.4647
-207.8619
-169.4717
-129.5418
-89.38773
-40.46622
-236.4002
-218.0366
-183.5861
-148.2752
-113.1311
-77.15431
-34.70671
-207.6051
-191.3324
-160.517
-129.1543
-99.02397
-65.84136
-27.58315
-182.798
-168.0436
-141.4947
-113.921
-86.30029
-53.94993
-20.75352
-161.3396
-148.9425
-125.1708
-100.3418
-73.0186
-44.39267
-14.74114
-143.4378
-132.2396
-110.7034
-87.8502
-61.14765
-35.93504
-9.588585
-127.6133
-117.4581
-97.89344
-75.52628
-52.23728
-29.4392
-5.573461
-113.5735
-104.3157
-86.49375
-65.73475
-44.93279
-24.40094
-3.453778
-101.0555
-92.62329
-76.10361
-56.98767
-38.95215
-20.6142
-1.401008
-89.89201
-82.22844
-66.65392
-50.0865
-33.95555
-17.68643
-0.9743413
-79.94785
-72.94952
-58.20982
-44.13049
-29.71028
-15.22424
-0.2235403
-71.04914
-64.30488
-51.50739
-38.9274
-26.05499
-13.17828
0.4156589
-62.87255
-56.89614
-45.60177
-34.35951
-22.87143
-11.39779
0.6058233
-55.65713
-50.04273
-40.39369
-30.33347
-20.08221
-9.290093
0.7930481
-49.47222
-44.40233
-35.77403
-26.77193
-17.63052
-8.026546
0.9161528
-43.77398
-36.34969
-28.76897
-23.60586
-15.4701
-6.928374
1.01206
-38.70067
-32.24966
-25.46438
-20.83659
-13.55325
-5.716584
1.08941
-34.33617
-28.58996
-22.52487
-18.38483
-11.87869
-4.809686
1.152896
-30.45893
-25.32952
-19.91135
-16.2103
-10.40198
-4.112314
1.204678
-27.00117
-22.42678
-17.58855
-14.28069
-9.092626
-3.497768
1.246068
-23.91759
-19.84253
-15.5244
-12.56848
-7.764366
-2.948618
1.277688
-21.17315
-17.54117
-13.68919
-11.04924
-6.720412
-2.468631
1.300774
-18.72481
-15.4905
-12.05636
-9.69967
-5.840289
-2.049415
1.315841
-16.53914
-13.66214
-10.60273
-8.50007
-5.05977
-1.679829
1.325585
-14.58657
-12.03084
-9.307821
-7.433201
-4.367622
-1.354258
1.328802
-12.84094
-10.57439
-8.153618
-6.483779
-3.753398
-1.067488
1.327392
-11.27916
-9.273345
-7.124281
-5.634494
-3.169316
-0.8147551
1.322999
-9.881103
-8.110828
-6.206772
-4.882292
-2.64258
-0.5915091
1.318435
-8.629186
-7.072101
-5.388968
-4.214027
-2.224668
-0.3967602
1.309513
-7.508254
-6.144567
-4.660956
-3.620471
-1.855744
-0.2281777
1.293088
-6.505368
-5.317584
-4.014335
-3.094707
-1.531375
-0.08359749
1.276989
-5.609755
-4.582269
-3.442047
-2.630769
-1.247812
0.04223246
1.257745
-4.812603
-3.931373
-2.938264
-2.223556
-0.9994342
0.1523546
1.235671
-4.106965
-3.359181
-2.500274
-1.866684
-0.7830157
0.2450103
1.212381
-3.487614
-2.863915
-2.118131
-1.557009
-0.5981557
0.3217997
1.187934
-2.953987
-2.438916
-1.794654
-1.294325
-0.4430196
0.3837382
1.162364
-2.503126
-2.083661
-1.525806
-1.076215
-0.3165046
0.4316065
1.135574
-2.131459
-1.793794
-1.309428
-0.9012164
-0.2280871
0.4661791
1.107166
-1.83488
-1.567556
-1.143593
-0.7660817
-0.1507335
0.4887238
1.078021
-1.61275
-1.403401
-1.026334
-0.6695337
-0.09716556
0.5011986
1.052455
-1.465304
-1.300135
-0.9558357
-0.60963
-0.06613041
0.5046173
1.033414
-1.394075
-1.257176
-0.9306551
-0.5845987
-0.05571377
0.4995078
1.00255
-1.401934
-1.274767
-0.9501635
-0.5933567
-0.06367616
0.4966095
0.9984873
1.045338
1.045295
1.052554
1.057182
1.060579
1.062209
1.062588
1.059882
1.055221
1.047178
1.036829
1.024451
1.010105
0.9938632
0.9757807
0.9559838
0.9345752
0.9116451
0.9565311
1.013415
1.031142
1.038677
1.042727
1.044526
1.043595
1.041924
1.037353
1.029561
1.019337
1.007117
0.9929694
0.9769629
0.9590722
0.9394835
0.9183957
0.8958137
0.9843578
1.001762
1.015768
1.023129
1.027022
1.02867
1.027947
1.025942
1.021338
1.013748
1.003616
0.9915084
0.9774958
0.9616507
0.9438733
0.9244123
0.9035536
0.8812238
0.9969294
0.9951607
1.004124
1.009958
1.013329
1.014748
1.014227
1.011878
1.007187
0.9996942
0.9896403
0.9775949
0.9636594
0.947904
0.9301662
0.91075
0.8900263
0.8678532
1.000583
0.9888626
0.9945006
0.9988342
1.001559
1.002729
1.002319
0.9996688
0.9948706
0.9874083
0.9774049
0.9653691
0.9514381
0.9357018
0.9180208
0.8984745
0.8777903
0.8556778
0.9985271
0.9816463
0.9860069
0.9893433
0.991584
0.9925167
0.9921352
0.9893026
0.9843886
0.9769087
0.9668954
0.9548074
0.9408278
0.9250331
0.9074903
0.8875777
0.8668267
0.8446773
0.9928711
0.9749029
0.9786991
0.9814541
0.983371
0.9840289
0.9826494
0.9810426
0.9757575
0.9681711
0.9581059
0.9459227
0.9318223
0.9158937
0.8982134
0.8780226
0.8571186
0.8348306
0.9887833
0.9691153
0.9726822
0.9751659
0.9769409
0.9774956
0.9761956
0.974505
0.9688648
0.9611894
0.9510501
0.9387173
0.9244384
0.9082865
0.8903751
0.8698093
0.8486508
0.8261182
0.9848998
0.9642921
0.9679692
0.9704482
0.9722977
0.9729281
0.9718279
0.968804
0.963694
0.95598
0.9457498
0.9331248
0.9186765
0.9022193
0.8839775
0.8629377
0.8414118
0.8185206
0.982963
0.9605656
0.9645624
0.9673213
0.9694201
0.9702312
0.9692132
0.9659984
0.9604897
0.9527329
0.941958
0.9295036
0.9145703
0.8977165
0.8790332
0.8574067
0.8353919
0.8120197
0.9841306
0.958418
0.9627884
0.965832
0.9683081
0.9694268
0.9684965
0.9646559
0.9594863
0.9508503
0.9405607
0.9275734
0.9121581
0.8948021
0.8755576
0.8532118
0.8305812
0.8065977
0.9877207
0.9571672
0.9620284
0.965868
0.9689966
0.9706079
0.9698999
0.9662461
0.9599512
0.9519047
0.9410353
0.9274215
0.9114853
0.8935045
0.8735731
0.8503578
0.8269715
0.8022336
0.9904398
0.9544044
0.9624538
0.9676946
0.9716738
0.9738796
0.9735418
0.9701131
0.9636784
0.9549828
0.943488
0.9292014
0.9126086
0.893866
0.8731062
0.8488556
0.8245542
0.7989055
0.9858046
0.9550489
0.9652606
0.9715495
0.9764027
0.9793215
0.9794335
0.9761167
0.9694935
0.9601933
0.9480072
0.9330135
0.9156043
0.8959431
0.8741863
0.8487116
0.8233195
0.7965873
0.9878692
0.9565208
0.9698293
0.9772458
0.9833292
0.9871127
0.9877111
0.9844953
0.9775919
0.9676992
0.9547862
0.9389515
0.9205552
0.8997958
0.8768489
0.8499335
0.8232541
0.7952472
0.9966355
0.9589669
0.9757555
0.9851758
0.9927458
0.9975457
0.9986899
0.9955157
0.9882794
0.9777434
0.9639841
0.9471359
0.9275566
0.905487
0.8811314
0.8525271
0.8243397
0.794844
1.003314
0.9631075
0.982991
0.9958401
1.00506
1.010997
1.012677
1.009511
1.001857
0.9905624
0.9757724
0.9577031
0.9367105
0.9130876
0.8870706
0.8564916
0.8265505
0.795328
1.015336
0.9714169
0.9954048
1.009463
1.020855
1.027886
1.030097
1.026856
1.01863
1.006403
0.9903508
0.9708061
0.9481303
0.9226755
0.894712
0.8618321
0.8298528
0.796635
1.031433
0.985012
1.011831
1.028142
1.040401
1.048799
1.05138
1.047925
1.038936
1.02553
1.007942
0.986617
0.9619369
0.9343143
0.9040853
0.8685177
0.8341851
0.7986828
1.052388
1.003436
1.033091
1.051705
1.065449
1.074124
1.077038
1.073135
1.063125
1.04823
1.028786
1.00532
0.9782632
0.9480946
0.915201
0.8765269
0.8394963
0.8013781
1.077951
1.026835
1.059724
1.080733
1.096051
1.105418
1.107574
1.102898
1.091598
1.074826
1.053144
1.027107
0.9972311
0.9640858
0.9266841
0.8857434
0.84569
0.8045855
1.108724
1.055849
1.092295
1.115861
1.132773
1.142784
1.144372
1.137865
1.124731
1.105678
1.081289
1.052175
1.018969
0.9823278
0.9406245
0.8961852
0.8526335
0.8081473
1.145466
1.091066
1.131545
1.157825
1.176365
1.186787
1.187613
1.179368
1.163141
1.141152
1.113513
1.080728
1.043599
1.002875
0.9566943
0.9077437
0.860173
0.8118591
1.18896
1.133537
1.178404
1.207534
1.227725
1.238287
1.237948
1.227644
1.208096
1.18182
1.150101
1.112975
1.071218
1.025717
0.9743785
0.9202235
0.8680888
0.8154688
1.240684
1.184319
1.233957
1.266062
1.287896
1.298217
1.296303
1.283158
1.259865
1.228929
1.191511
1.149099
1.101935
1.050906
0.9934453
0.9334262
0.8761361
0.8186559
1.301593
1.244932
1.29949
1.334774
1.358112
1.367681
1.36365
1.346861
1.318868
1.282537
1.238902
1.189437
1.135767
1.078218
1.012157
0.9471444
0.8839477
0.8210436
1.372717
1.316458
1.376413
1.415048
1.439728
1.448089
1.441086
1.419721
1.385814
1.34295
1.292173
1.234888
1.172932
1.107631
1.030717
0.9608772
0.8911201
0.8221095
1.455967
1.400551
1.4664
1.508455
1.5344
1.541027
1.529983
1.502747
1.461487
1.41071
1.351395
1.285204
1.213926
1.139211
1.052058
0.9742339
0.8970937
0.8213264
1.553722
1.498621
1.571502
1.617293
1.643942
1.648126
1.631811
1.597091
1.54667
1.486339
1.416815
1.340119
1.258341
1.172961
1.073643
0.9866593
0.9012853
0.8180922
1.668444
1.613962
1.6944
1.743645
1.771625
1.771725
1.74832
1.704153
1.642579
1.570553
1.488804
1.399717
1.305687
1.203118
1.095127
0.997511
0.9027744
0.8113974
1.803767
1.750142
1.838877
1.890945
1.919569
1.913803
1.881231
1.825315
1.749383
1.663546
1.567356
1.463705
1.355384
1.236156
1.115578
1.006213
0.90101
0.8005463
1.960267
1.911285
2.007981
2.065111
2.088878
2.077118
2.032743
1.96157
1.870858
1.766104
1.652614
1.531809
1.406958
1.270116
1.133752
1.011413
0.8947322
0.7763705
2.126062
2.091332
2.207398
2.269255
2.286581
2.26499
2.205195
2.115184
2.004555
1.878332
1.744319
1.603409
1.458853
1.294332
1.148091
1.011231
0.8818357
0.7471283
2.290208
2.338972
2.450267
2.50966
2.517266
2.480708
2.40129
2.287589
2.152034
2.000702
1.842181
1.677559
1.510508
1.317774
1.156618
1.003876
0.8600669
0.7027992
2.718057
2.61637
2.731328
2.787976
2.785792
2.7294
2.624515
2.481024
2.315743
2.132933
1.945088
1.752876
1.559747
1.339063
1.157367
0.9872605
0.8135274
0.6545144
3.022083
2.935709
3.061521
3.112603
3.093569
3.016058
2.8784
2.698064
2.499038
2.273871
2.051621
1.827262
1.585772
1.350295
1.147245
0.9576839
0.7603175
0.5933354
3.4973
3.316945
3.451048
3.492926
3.453109
3.345934
3.166172
2.942902
2.694008
2.422431
2.159779
1.898259
1.618229
1.350626
1.123006
0.9122129
0.6831674
0.5151804
4.101418
3.787825
3.924182
3.940993
3.870905
3.725321
3.490851
3.209503
2.90369
2.576551
2.266267
1.96018
1.611749
1.334256
1.080517
0.8237527
0.5956029
0.4170563
5.126945
4.34532
4.487922
4.465733
4.358456
4.161227
3.85568
3.501747
3.126931
2.733312
2.367576
2.011289
1.608394
1.29619
1.012809
0.7045071
0.4845156
0.2952321
6.487932
5.003452
5.143585
5.086676
4.93205
4.660963
4.263501
3.819521
3.360892
2.888076
2.458028
2.013299
1.579882
1.230983
0.8944711
0.5778523
0.3441426
0.1457621
6.66351
5.648086
5.91104
5.83607
5.6029
5.231155
4.716462
4.160693
3.600808
3.034564
2.530744
2.003482
1.519764
1.129815
0.7318864
0.4148277
0.1695903
-0.03555398
4.818751
6.563527
6.901971
6.735773
6.380341
5.875378
5.213925
4.520805
3.839546
3.163335
2.571931
1.909192
1.417876
0.9522284
0.5195973
0.2108547
-0.04347455
-0.2542617
6.069826
7.922681
8.111549
7.783797
7.267087
6.561833
5.752909
4.892699
4.066908
3.262484
2.572911
1.809443
1.262203
0.7256169
0.2778582
-0.0416685
-0.3032532
-0.5379532
7.971209
9.665509
9.48704
8.98215
8.270008
7.349709
6.327648
5.26525
4.267914
3.314968
2.426657
1.637237
1.029935
0.3863801
-0.0251056
-0.3545638
-0.6461715
-0.8565021
9.484327
11.55216
11.08954
10.34423
9.393587
8.212796
6.929714
5.623353
4.391353
3.294746
2.23098
1.38132
0.6253769
0.01291996
-0.4069623
-0.7757467
-1.035176
-1.228928
10.4773
13.56305
12.92695
11.96591
10.65551
9.153963
7.546923
5.945068
4.432579
3.172809
1.871482
1.000962
0.08938977
-0.4555173
-0.9185499
-1.261452
-1.503931
-1.668077
5.988697
16.09213
15.06967
13.75898
12.07622
10.26885
8.161725
6.201474
4.3877
2.827371
1.424423
0.3836168
-0.5034109
-1.086301
-1.540007
-1.860738
-2.044055
-2.148951
-11.57528
19.36743
17.52211
15.9615
13.74513
11.39921
8.75198
6.289879
4.1682
2.190035
0.7173025
-0.4690137
-1.316956
-1.905062
-2.309299
-2.528861
-2.664771
-2.697295
-26.01371
22.57339
20.7548
18.60925
15.93521
12.59925
9.260468
6.170362
3.473806
1.360542
-0.2922505
-1.571311
-2.389547
-2.905891
-3.209467
-3.316928
-3.325778
-3.286314
-46.63241
27.944
24.62512
21.98659
2.425375
-0.01871113
-1.775605
-2.978089
-3.721461
-4.090816
-4.229626
-4.183872
-4.078843
-3.900236
-65.91579
31.93129
-3.827426
-4.871274
-5.318072
-5.439752
-5.354975
-5.133047
-4.850039
-4.5461
-53.65584
-7.017267
-7.243496
-7.018414
-6.575122
-6.121262
-5.623877
-5.140445
-9.456566
-8.618354
-7.792409
-7.029617
-6.323797
-5.710881
-10.09814
-8.906468
-7.841996
-6.932257
-6.169845
-11.47428
-9.767137
-8.432762
-7.372417
-6.4848
-12.12526
-10.24501
-8.750656
-7.57925
-6.631243
-12.16048
-10.22976
-8.707715
-7.527667
-6.580402
-11.47597
-9.67383
-8.313551
-7.211059
-6.31968
-10.01195
-8.748597
-7.606706
-6.681528
-5.898077
-9.109467
-8.406139
-7.463821
-6.688731
-5.945043
-5.326345
-36.18706
-7.023667
-6.557234
-6.104025
-5.59663
-5.093608
-4.633427
-50.70029
41.10865
-4.07731
-4.565558
-4.746806
-4.67542
-4.466639
-4.216208
-3.916707
-37.75139
36.54751
32.66481
1.829571
-0.405753
-1.864272
-2.664751
-3.126217
-3.330387
-3.337494
-3.277137
-3.156717
-16.32753
29.58223
27.65
24.97757
21.38818
17.32205
13.29407
9.5646
6.221171
3.584576
1.437663
-0.04438073
-1.076687
-1.72522
-2.132446
-2.31558
-2.402113
-2.414146
-5.687686
26.35416
23.85496
21.6573
19.06118
15.96814
12.72112
9.640201
7.025893
4.595172
2.772193
1.305822
0.2196092
-0.5391684
-1.066873
-1.384869
-1.610453
-1.720965
2.002254
22.4602
20.72974
19.04121
16.84873
14.61412
12.00903
9.5894
7.346061
5.367448
3.662739
2.257057
1.236135
0.4435785
-0.1636442
-0.5997155
-0.8843956
-1.076823
15.33901
19.01992
18.05911
16.78268
15.12617
13.31022
11.25205
9.263599
7.384154
5.761626
4.18466
3.042804
1.928218
1.220181
0.592546
0.1000216
-0.2672309
-0.4981205
16.08604
16.30386
15.76671
14.82624
13.58919
12.09474
10.48523
8.849596
7.277503
5.929721
4.510988
3.515371
2.517073
1.759276
1.166125
0.663298
0.311306
-0.007526815
13.39799
14.02528
13.83135
13.13542
12.20304
11.02428
9.727832
8.385281
7.126193
5.925604
4.798441
3.79575
2.952602
2.17236
1.62434
1.144026
0.7309947
0.4319042
11.72404
12.06594
12.13764
11.66064
10.96099
10.0368
8.997175
7.897527
6.846504
5.82324
4.887182
3.961717
3.250221
2.526351
1.952648
1.509258
1.114313
0.7688437
11.22058
10.41248
10.64257
10.37012
9.857233
9.151919
8.305026
7.406433
6.529204
5.660653
4.898059
4.039551
3.39962
2.760535
2.200568
1.7743
1.408307
1.078164
11.34749
9.17585
9.398937
9.261213
8.883376
8.355203
7.659955
6.926095
6.194919
5.458679
4.800192
4.089695
3.476717
2.952307
2.385419
1.976931
1.623747
1.316502
10.67313
8.294996
8.417971
8.316407
8.032223
7.621145
7.065509
6.4658
5.856504
5.2331
4.666068
4.067311
3.500798
3.030035
2.553443
2.126384
1.789855
1.493051
8.117399
7.51368
7.571549
7.500415
7.287374
6.966709
6.52164
6.030778
5.522967
4.995081
4.505856
4.01522
3.485376
3.05932
2.664014
2.233704
1.914417
1.631417
7.223031
6.787123
6.835758
6.79076
6.632555
6.382893
6.026214
5.623917
5.200172
4.752906
4.330931
3.91388
3.437915
3.054682
2.696754
2.322603
2.004077
1.736932
6.08041
6.119881
6.187967
6.171047
6.056344
5.861928
5.57597
5.245802
4.891278
4.512545
4.148387
3.784997
3.385585
3.023863
2.700859
2.380419
2.065814
1.814363
5.523938
5.541527
5.624122
5.629061
5.547415
5.396893
5.167275
4.895666
4.599154
4.277309
3.963488
3.647184
3.307376
2.974061
2.682216
2.405587
2.103233
1.867881
5.036504
5.075035
5.133671
5.152375
5.097848
4.982016
4.796695
4.568068
4.321973
4.051183
3.780114
3.504066
3.215377
2.910523
2.646718
2.395951
2.139184
1.901334
4.442601
4.600726
4.703267
4.736792
4.702593
4.60933
4.460589
4.272581
4.062465
3.83484
3.60088
3.359943
3.115894
2.836287
2.598611
2.370974
2.144038
1.918542
4.201419
4.240905
4.331479
4.368641
4.346845
4.275681
4.156044
4.001138
3.824368
3.630066
3.427669
3.217152
3.001951
2.755001
2.541208
2.334738
2.13726
1.925989
3.915074
3.912778
4.003836
4.042192
4.03034
3.976741
3.880253
3.752123
3.603352
3.437075
3.26158
3.077405
2.888002
2.679265
2.476991
2.290037
2.110348
1.926113
3.650304
3.633127
3.716228
3.753913
3.750108
3.708602
3.630486
3.524092
3.396552
3.255671
3.103326
2.941986
2.774867
2.59276
2.408395
2.239052
2.075232
1.914671
3.412185
3.38746
3.462809
3.498647
3.502182
3.467686
3.404035
3.31535
3.206285
3.085846
2.953311
2.811703
2.663857
2.502191
2.336992
2.183783
2.034427
1.890451
3.195482
3.17014
3.238095
3.27145
3.27763
3.250757
3.198488
3.124213
3.031411
2.927264
2.811637
2.687079
2.556066
2.418151
2.264591
2.126652
1.991017
1.857833
2.998081
2.976917
3.037662
3.068324
3.075742
3.054817
3.011684
2.949034
2.869747
2.77939
2.678208
2.568389
2.452055
2.330871
2.192853
2.06848
1.944677
1.822312
2.820367
2.803758
2.857692
2.885718
2.893664
2.877284
2.841548
2.788392
2.720308
2.641629
2.552814
2.45572
2.352307
2.245096
2.122346
2.009469
1.896357
1.783904
2.66234
2.64711
2.695116
2.720749
2.728879
2.71602
2.68623
2.640929
2.582125
2.513361
2.435134
2.349152
2.258235
2.162886
2.052973
1.950205
1.846815
1.743442
2.522335
2.504856
2.547703
2.571145
2.579241
2.569145
2.544099
2.50536
2.454317
2.393948
2.324795
2.249746
2.169446
2.083855
1.989445
1.891319
1.796716
1.701609
2.396822
2.375059
2.413639
2.435079
2.442973
2.435016
2.413834
2.380538
2.336013
2.282749
2.222958
2.157066
2.084915
2.007738
1.922506
1.83326
1.74657
1.658993
2.28139
2.257307
2.291525
2.310997
2.318565
2.312238
2.294218
2.265408
2.226385
2.180724
2.128593
2.069517