/*--------------------------------*- C++ -*----------------------------------*\
| =========                 |                                                 |
| \\      /  F ield         | OpenFOAM: The Open Source CFD Toolbox           |
|  \\    /   O peration     | Version:  2206                                  |
|   \\  /    A nd           | Website:  www.openfoam.com                      |
|    \\/     M anipulation  |                                                 |
\*---------------------------------------------------------------------------*/
FoamFile
{
    version     2.0;
    format      ascii;
    arch        "LSB;label=32;scalar=64";
    class       volScalarField;
    location    "2.6";
    object      pff;
}
// * * * * * * * * * * * * * * * * * * * * * * * * * * * * * * * * * * * * * //

dimensions      [1 -1 -2 0 0 0 0];

internalField   nonuniform List<scalar> 
13078
(
0.00484272
33.5041
537.9005
656.4538
628.9119
573.0709
513.0684
72.87058
495.4289
701.2538
684.7288
633.4597
575.4089
514.7376
711.9811
777.8967
756.8483
700.8422
640.4436
579.4726
517.3914
942.5696
848.8712
778.8387
712.6272
647.7613
584.0292
520.4696
974.013
869.6725
791.0675
720.3883
654.092
588.4865
523.5841
968.2588
873.4931
797.0535
725.7043
657.895
592.2302
526.5364
960.0772
872.7693
799.5399
728.8363
660.631
594.2678
529.0358
953.8688
870.5728
800.2662
730.3508
662.1961
595.7321
530.2081
949.3561
868.3079
799.7854
730.7706
663.0028
596.6464
531.0804
946.0615
866.3203
798.9537
730.727
663.3547
597.1902
531.6624
943.5722
864.6545
798.0756
730.4465
663.4356
597.4897
532.0616
941.5734
863.2965
797.2336
730.0516
663.3623
597.6344
532.3242
939.9467
862.1266
796.45
729.6258
663.2032
597.6786
532.5001
938.5501
861.1084
795.7296
729.2029
663.0157
597.6662
532.625
937.3177
860.1977
795.0904
729.1999
663.3089
597.6854
532.7193
936.1804
859.357
794.498
729.2519
663.4234
597.6638
532.8023
935.0852
858.5298
793.8819
728.9023
663.2369
597.6082
532.875
933.9946
857.722
793.2763
728.5182
663.031
597.5495
532.9467
932.8821
856.898
792.6659
728.1191
662.8237
597.5137
533.009
931.7211
856.0531
792.0447
727.7585
663.1713
598.1337
533.1583
930.4919
855.1437
791.3802
727.3708
663.5459
598.5061
533.2989
929.1443
854.1605
790.645
726.8887
663.3905
598.4951
533.3942
927.6729
853.0874
789.8524
726.3834
663.138
598.48
533.5562
926.0372
851.8875
788.9724
725.827
662.933
599.1567
534.5385
924.2013
850.551
787.9818
725.2043
662.6722
599.8605
535.1938
922.1398
849.0442
786.8799
724.4992
662.3142
599.9547
535.4477
919.7878
847.3334
785.6298
723.6986
661.9066
599.9116
535.7185
917.1457
845.4166
784.2233
722.7878
661.4468
599.889
536.8516
914.1325
843.2239
782.6399
721.7554
660.8968
599.7676
537.961
911.0283
841.042
780.9517
720.606
660.2292
599.494
538.2742
907.4236
838.483
779.0295
719.3253
659.4583
599.1238
538.3252
903.4309
836.1389
777.5935
718.0334
658.5654
598.5984
538.1207
899.2052
833.6208
776.3648
717.5731
657.8956
598.1311
537.7894
895.0223
831.2136
775.4387
716.9777
657.7515
598.4192
538.0787
891.3459
830.0543
776.0776
719.8796
661.6691
601.5519
540.4812
889.5771
831.8148
781.1868
728.4615
672.1765
611.3947
547.1449
891.2568
840.4196
795.859
746.7088
691.4418
625.1608
554.5938
899.8334
861.3087
822.813
773.3265
714.7803
641.6262
558.7307
920.4869
894.5762
857.7918
804.111
737.5815
658.4339
557.6412
957.4688
936.3852
895.2571
835.4195
759.661
671.3467
561.5742
1008.802
980.4351
936.9436
865.0006
782.583
686.4539
574.8034
1073.773
1021.225
976.2964
900.6405
806.6021
706.5801
602.106
1145.613
1059.67
1009.208
934.0646
843.5375
737.1244
650.786
1218.154
1083.207
1039.946
959.4658
874.4341
787.0566
701.7029
1267.372
1095.228
1054.564
976.7425
898.0894
839.6911
774.7418
1284.379
1098.403
1061.086
985.8081
923.3654
876.5059
827.6334
1283.547
1099.72
1057.201
990.8056
948.3933
906.353
841.8558
1286.292
1109.872
1067.831
1003.64
979.1572
927.2488
850.5723
1290.532
1126.204
1091.035
1027.543
998.6797
940.0038
845.9277
1295.384
1146.342
1116.095
1054.08
1021.897
939.548
820.9243
1299.193
1175.394
1142.831
1070.601
1025.422
917.1164
779.5328
1289.779
1189.274
1168.78
1097.375
1027.928
888.1308
738.5053
1264.086
1181.879
1152.626
1081.03
995.3544
846.8291
703.8227
1230.945
1159.931
1126.951
1045.009
944.4662
792.8281
697.1955
1195.699
1132.062
1093.054
1004.191
896.5829
761.1596
700.0975
1157.853
1097.56
1054.203
965.8288
862.7844
748.4536
704.9471
1120.48
1049.899
1005.031
925.5686
838.262
739.579
703.3238
1097.081
1014.341
972.518
904.2429
831.5122
736.4877
699.258
1075.986
981.8131
943.0952
883.8802
823.165
729.618
686.731
1055.307
947.4569
908.7154
856.6881
805.5971
720.5801
666.2852
1039.72
919.1607
876.9023
818.8045
776.8815
696.15
630.8555
1029.087
898.1901
854.0296
791.8386
755.8574
680.7689
609.1855
1021.328
883.7798
832.3657
762.1502
727.2832
664.4106
583.0105
1018.002
879.2301
823.5476
743.7722
702.4042
647.6898
568.7224
1023.614
888.1125
828.126
738.0535
682.9241
634.8208
559.3605
1042.504
904.4452
842.789
744.8258
660.162
603.7184
544.4046
1062.494
923.9739
857.5506
755.3615
647.7325
575.2221
530.4629
1063.028
935.239
861.2891
762.9118
650.143
554.908
500.099
1036.48
937.4707
862.2757
766.93
659.0023
548.7237
465.3215
995.7701
928.5271
857.8986
765.139
663.9948
554.3353
453.6148
956.1552
909.5633
848.1749
763.4613
668.0459
566.2989
461.2065
922.6635
887.8227
835.0298
761.0751
675.4683
580.9569
484.2996
899.1308
863.7428
817.1568
755.3995
681.1888
599.4575
502.101
886.3371
842.4181
798.1659
743.1859
679.97
608.4984
522.438
882.4748
828.7371
781.2757
729.1384
672.0647
606.3739
534.2013
883.3285
823.6938
771.4435
717.8046
661.0339
599.5883
535.5159
886.6723
823.7344
768.6949
712.6738
654.238
594.2895
533.3519
891.4713
826.2432
769.763
711.7099
652.4822
592.4824
532.5067
896.3744
829.7345
772.1117
712.5433
652.7533
593.2541
533.3346
901.0943
833.2598
774.474
714.6458
654.566
594.7255
534.5998
905.5444
836.331
776.4835
716.1256
656.2267
596.1133
535.652
909.5106
839.0519
778.4868
718.0485
657.7415
597.2004
536.3441
912.9382
841.7311
780.7553
719.7717
658.998
598.0347
536.7202
915.8563
843.9856
782.6644
721.2416
660.0202
598.6811
536.8127
918.6554
846.1698
784.383
722.5056
660.8438
599.0946
535.9602
921.104
848.0465
785.8676
723.5601
661.5109
599.3453
535.0873
923.2686
849.7028
787.157
724.458
662.062
599.5574
534.9878
925.1551
851.1313
788.2605
725.2273
662.52
599.6017
534.8734
926.8442
852.3911
789.2306
725.8999
662.8493
598.9502
534.2775
928.3405
853.5217
790.0928
726.4704
663.1067
598.3747
533.3899
929.6889
854.5208
790.8582
726.9787
663.3903
598.4265
533.2879
930.9124
855.4336
791.5595
727.4476
663.5597
598.4734
533.2302
932.0352
856.2698
792.1747
727.8108
663.1551
598.086
533.1085
933.0863
857.0425
792.7477
728.1426
662.8222
597.4884
532.974
934.0835
857.7803
793.295
728.5164
663.0197
597.5253
532.9296
935.0508
858.4934
793.8397
728.8658
663.2146
597.5955
532.8779
936.0173
859.2168
794.389
729.1834
663.3952
597.6593
532.8173
936.9959
859.9396
794.9018
729.071
663.2467
597.6843
532.7487
938.0291
860.7105
795.4492
729.052
662.9584
597.6774
532.6815
939.1796
861.5613
796.0735
729.4414
663.1515
597.7204
532.5972
940.4823
862.5411
796.7603
729.8501
663.3433
597.7373
532.4899
942.0481
863.6608
797.5089
730.2554
663.4935
597.6972
532.3275
943.9687
864.9846
798.3229
730.6292
663.565
597.5637
532.0754
946.3861
866.6005
799.1795
730.9034
663.4936
597.2785
531.6965
949.589
868.5621
799.963
730.9681
663.1653
596.7456
531.1024
953.9936
870.7949
800.1279
730.3661
662.3536
595.8244
530.2666
960.1056
872.9906
799.579
728.8345
660.7485
594.4555
528.1587
968.1775
873.8935
797.5023
726.0232
658.3388
591.4742
525.5803
974.4263
870.4263
791.6914
721.2954
653.5383
587.6812
522.7035
945.0111
850.6201
780.9602
712.4126
647.2317
583.363
519.5907
734.7873
786.8319
757.1981
700.862
640.1905
578.8286
516.4874
90.4128
550.8142
720.7881
686.3198
632.6908
574.4042
513.6017
450.5044
383.7407
311.2885
256.3454
183.3068
110.7331
37.59176
451.958
385.2061
312.714
257.6698
184.4279
111.6143
39.21399
453.9364
386.9155
314.4288
241.1548
185.5135
112.4649
40.08554
456.1738
388.7283
315.8671
260.7988
186.6385
113.3324
40.87987
458.4785
390.6386
317.5581
262.422
187.8102
114.2077
41.43026
460.7362
392.5743
319.283
264.0206
188.9703
115.0809
41.94312
462.8756
394.4549
320.9794
265.5363
189.3228
115.9558
42.42958
464.7214
396.2695
322.6339
267.0189
189.6545
116.8291
42.86971
465.4602
397.8796
324.1992
268.4979
190.6031
117.6197
43.30306
466.0266
398.4282
325.6222
269.9622
191.5291
118.4161
43.71
466.4419
398.851
326.0616
271.3601
192.4554
119.219
44.09812
466.7674
399.209
326.4048
271.6865
193.3897
120.0314
44.47106
467.0228
399.523
326.7316
271.9829
193.56
120.8737
44.82542
467.2404
399.8114
327.0512
272.2873
193.7533
121.0305
45.09892
467.4351
400.0958
327.3732
272.5989
193.9625
121.2281
44.9157
467.6237
400.3795
327.6996
272.9254
194.1927
121.4462
44.66138
467.8053
400.6681
328.0339
273.2807
194.5546
121.6777
44.46235
467.99
400.9563
328.3925
273.7975
197.2401
121.9332
44.20062
468.1796
401.2447
328.7627
274.199
197.7347
122.1979
43.97002
468.3868
401.5532
329.1554
274.625
198.0999
122.4817
43.71451
468.6026
401.8801
329.5633
275.0784
198.4853
122.7816
43.38238
468.8427
402.2292
329.9812
275.5667
198.8951
123.0997
43.10991
469.0926
402.6188
330.4538
276.0006
199.441
123.4334
42.82958
469.4791
403.0554
331.0727
258.178
202.4824
123.9592
42.56114
469.8578
403.4913
331.5415
277.0038
203.8248
124.4049
42.30895
470.2099
403.9788
332.1481
277.9335
204.4988
124.837
42.05813
470.7295
404.6044
332.8904
278.7505
205.2002
125.3327
41.79231
472.2526
405.3667
333.599
279.5997
206.1428
128.8366
41.56928
472.9999
423.4644
352.0754
279.8994
207.0839
130.2774
41.42238
473.5802
424.2598
353.2922
280.9627
208.06
130.9341
41.31394
475.6096
426.3385
354.172
282.0277
209.1216
133.7928
41.3629
476.4314
427.9833
354.9859
283.1513
210.1712
136.8157
41.65437
476.3442
431.083
355.9771
284.0845
211.105
137.7366
42.56747
476.1673
431.5556
357.2152
284.2498
211.47
139.2112
51.01401
476.6508
431.1993
357.4141
282.7012
210.2419
142.3268
58.13004
477.0256
429.8918
355.928
275.4888
205.2219
148.0494
88.61321
473.1394
422.3552
340.3064
258.665
196.1931
147.6032
90.52457
461.9282
404.3088
319.2699
249.0276
184.53
128.3015
92.46494
446.2869
381.8191
300.4792
236.2798
165.7665
119.5989
91.78547
440.0422
364.9329
291.3161
224.8779
167.1632
121.8327
83.39952
449.9086
368.6017
304.9983
222.1511
167.5478
122.6592
66.52024
499.9149
408.3648
314.6287
216.3479
168.4035
128.5072
70.35825
552.5646
442.1166
322.5901
222.6437
182.3025
141.6021
74.09744
606.6235
472.5718
328.3436
242.0214
210.7609
148.8452
86.69542
657.2876
532.2245
364.3289
269.8793
222.723
158.8418
95.96507
718.002
589.1299
405.3341
304.9556
234.4232
175.8455
103.0875
747.4663
624.405
427.6654
345.8829
270.4896
175.2614
113.7568
731.8488
618.4081
446.5927
393.7621
286.6689
211.2628
152.8432
704.9654
597.8568
472.5085
418.4476
308.8684
215.0963
179.1058
671.5601
574.4373
501.678
442.1081
321.265
242.2091
172.7498
643.7507
595.2342
544.096
456.239
350.6128
265.4159
178.3038
633.8275
622.4182
584.7911
485.6151
389.14
293.6699
203.9387
640.4052
651.0872
608.7665
503.1539
401.5001
321.808
254.0125
670.2452
688.365
590.2531
473.9926
403.7124
343.9339
291.4603
688.7543
691.1754
579.194
459.7118
400.0668
420.773
395.1555
702.189
678.4335
566.7952
457.3403
416.6553
383.9998
694.077
660.379
548.2538
446.1433
407.6688
378.8306
676.4938
643.3498
538.9861
438.9549
390.4674
374.3835
650.2839
632.4079
536.1256
436.7103
373.84
354.3826
308.5085
626.2783
612.6865
510.5293
410.1166
347.3793
274.3801
194.2218
583.8825
568.6064
479.4155
378.1288
301.7832
236.5298
160.5841
568.4865
547.5761
486.5639
385.3118
315.0158
244.8701
143.1337
545.5259
523.7703
480.6666
392.1143
313.1061
246.5326
162.9642
515.4486
504.4985
468.5732
391.1087
298.3409
233.4889
191.4173
490.6884
483.1318
437.6676
345.0424
281.3864
234.7369
147.3938
472.5141
450.8002
404.4525
323.931
254.6831
211.118
117.6115
452.153
423.077
378.5065
295.4969
234.1058
168.0402
98.4315
427.6153
388.0861
341.8147
284.8073
209.9181
156.0684
91.24083
401.3203
363.2169
317.4379
263.9055
206.5554
143.9147
78.09675
368.3688
337.6278
299.3929
254.9379
192.438
137.6817
67.97517
354.0963
306.0684
283.4553
241.3946
184.082
134.7938
71.88955
365.8765
291.1006
261.3376
225.1224
182.5185
138.2041
79.05683
397.6979
315.438
258.9794
208.2401
176.9794
133.5489
81.1239
431.9365
351.5704
291.3314
225.195
165.8614
124.0055
83.38278
456.5254
388.4403
324.3606
258.379
187.6396
133.45
89.48507
467.1719
411.5278
346.7184
270.9969
203.6737
147.0003
78.43704
470.2357
420.3353
356.5401
280.2387
209.0242
146.3867
69.34082
471.3231
423.2115
357.8627
282.348
210.7888
140.4743
51.81447
472.4809
424.7409
355.6773
282.597
210.8264
138.4166
46.78482
473.5842
425.7409
354.0811
282.3062
210.1942
137.5705
44.11836
474.1482
424.3791
353.4091
281.6685
209.3376
136.6143
40.45529
473.6988
422.8692
352.802
280.9453
208.4515
135.3571
40.57309
472.1095
421.0929
352.3246
280.2334
207.6182
131.1168
40.7835
471.8928
420.7268
351.7463
279.5831
206.853
130.2409
41.05711
471.3647
404.5797
332.9334
278.0603
206.1094
129.6654
41.33114
470.0814
404.0216
332.397
277.5671
205.2839
126.4997
41.62571
469.7313
403.545
331.8117
277.0161
204.5817
124.9453
41.96032
469.5063
403.1644
331.3008
276.4965
203.972
124.5397
42.26636
469.2151
402.7958
330.8139
276.0041
203.3047
124.1645
42.59551
468.9095
402.4524
330.363
275.5242
200.2748
123.6671
42.8852
468.7231
402.1293
329.9326
275.07
199.0673
123.2771
43.19211
468.5306
401.8142
329.5252
274.6476
198.6753
122.9684
43.50619
468.3389
401.517
329.1396
274.2391
198.2968
122.6728
43.80061
468.1503
401.2344
328.7676
273.8524
197.9398
122.3895
44.08953
467.9831
400.9641
328.4197
273.4786
197.6039
122.1232
44.34502
467.8149
400.6922
328.078
273.0466
196.1062
121.8669
44.57995
467.6511
400.4223
327.7546
272.6358
194.367
121.6261
44.81151
467.4873
400.1639
327.4473
272.3037
194.1374
121.4011
45.06967
467.3242
399.9089
327.1484
271.9752
193.9226
121.1917
45.08721
467.1484
399.6545
326.8511
271.6591
193.7279
121.0003
45.10475
466.9518
399.3857
326.5567
271.3414
193.5382
120.5047
44.72769
466.7101
399.0867
326.2508
271.0161
193.0041
119.6821
44.32958
466.4065
398.7409
325.8521
270.1587
192.0836
118.8691
43.91116
465.9882
398.2838
324.4815
268.6912
191.1632
118.0652
43.48864
465.4228
396.7851
322.9814
267.2111
190.243
117.2653
43.03942
463.7846
395.0852
321.3867
265.7049
189.3533
116.4309
42.57903
461.8517
393.3063
319.7392
264.2561
189.6025
115.5505
42.10419
459.7568
391.4319
318.0497
262.7305
188.4831
114.6718
41.60231
457.5044
389.4925
316.3365
261.2233
187.3219
113.7962
41.05718
455.1528
387.5409
314.6299
259.7421
186.1621
112.9196
40.3974
452.8666
385.6641
312.9677
258.3272
185.009
112.044
39.52724
450.7355
383.8423
311.3484
256.9815
183.8689
111.1647
38.19474
0
0
0
0
0
0
0
0
0
0
0
0
0
0
0
0
0
0
0
0
0
0
0
0
0
0
0
0
0
0
0
0
0
0
0
0
0
0
0
0
0
0
0
0
0
0
0
0
0
0
0
0
0
0
0
0
0
0
0
0
0
0
0
0
0
0
0
0
0
0
0
0
0
0
0
0
0
0
0
0
0
0
0
0
0
0
0
0
0
0
0
0
0
0
0
0
0
0
0
0
0
0
0
0
0
0
0
0
0
0
0
0
0
0
0
0
0
0
0
0
0
0
0
0
0
0
0
0
0
0
0
0
0
0
0
0
0
0
0
0
0
0
0
0
0
0
0
0
0
0
0
0
0
0
0
0
0
0
0
0
0
0
0
0
0
0
0
0
0
0
0
0
0
0
0
0
0
0
0
0
0
0
0
0
0
0
0
0
0
0
0
0
0
0
0
0
0
0
0
0
0
0
0
0
0
0
0
0
0
0
0
0
0
0
0
0
0
0
0
0
0
0
0
0
0
0
0
0
0
0
0
0
0
0
0
0
0
0
0
0
0
0
0
0
0
0
0
0
0
0
0
0
0
0
0
0
0
0
0
0
0
0
0
0
0
0
0
0
0
0
0
0
0
0
0
0
0
0
0
0
0
0
0
0
0
0
0
0
0
0
0
0
0
0
0
0
0
0
0
0
0
0
0
0
0
0
0
0
0
0
0
0
0
0
0
0
0
0
0
0
0
0
0
0
0
0
0
0
0
0
0
0
0
0
0
0
0
0
0
0
0
0
0
0
0
0
0
0
0
0
0
0
0
0
0
0
0
0
0
0
0
0
0
0
0
0
0
0
0
0
0
0
0
0
0
0
0
0
0
0
0
0
0
0
0
0
0
0
0
0
0
0
0
0
0
0
0
0
0
0
0
0
0
0
0
0
0
0
0
0
0
0
0
0
0
0
0
0
0
0
0
0
0
0
0
0
0
0
0
0
0
0
0
0
0
0
0
0
0
0
0
0
0
0
0
0
0
0
0
0
0
0
0
0
0
0
0
0
0
0
0
0
0
0
0
0
0
0
0
0
0
0
0
0
0
0
0
0
0
0
0
0
0
0
0
0
0
0
0
0
0
0
0
0
0
0
0
0
0
0
0
0
0
0
0
0
0
0
0
0
0
0
0
0
0
0
0
0
0
0
0
0
0
0
0
0
0
0
0
0
0
0
0
0
0
0
0
0
0
0
0
0
0
0
0
0
0
0
0
0
0
0
0
0
0
0
0
0
0
0
0
0
0
0
0
0
0
0
0
0
0
0
0
0
0
0
0
0
0
0
0
0
0
0
0
0
0
0
0
0
0
0
0
0
0
0
0
0
0
0
0
0
0
0
0
0
0
0
0
0
0
0
0
0
0
0
0
0
0
0
0
0
0
0
0
0
0
0
0
0
0
0
0
0
0
0
0
0
0
0
0
0
0
0
0
0
0
0
0
0
0
0
0
0
0
0
0
0
0
0
0
0
0
0
0
0
0
0
0
0
0
0
0
0
0
0
0
0
0
0
0
0
0
0
0
0
0
0
0
0
0
0
0
0
0
0
0
0
0
0
0
0
0.1951899
0
0
0
0
0
0
0
0
0
0
0
0
0
0
0
0
0
3.277008
0
0
0
0
0
0
0
0
0
0
0
0
0
0
0
0
0
4.695373
0
0
0
0
0
0
0
0
0
0
0
0
0
0
0
0
0
5.209227
0
0
0
0
0
0
0
0
0
0
0
0
0
0
0
0
0
7.734336
0
0
0
0
0
0
0
0
0
0
0
0
0
0
0
0
0
8.80311
0
0
0
0
0
0
0
0
0
0
0
0
0
0
0
0
0
10.04499
0
0
0
0
0
0
0
0
0
0
0
0
0
0
0
0
0
15.35744
0
0
0
0
0
0
0
0
0
0
0
0
0
0
0
0
0
34.61844
0
0
0
0
0
0
0
0
0
0
0
0
0
0
0
0
0
61.75614
0
0
0
0
0
0
0
0
0
0
0
0
0
0
0
0
0
80.33436
0
0
0
0
0
0
0
0
0
0
0
0
0
82.20915
5.343939
0
0
0
0
0
0
0
0
95.64677
0
0
0
0
0
0
0
0
0
0
0
0
0
0
0
0
0
0
0
0
0
0
0
0
0
0
0
0
0
0
0
0
0
0
0
0
0
0
0
0
0
0
0
0
0
0
0
0
0
53.50319
0
0
0
0
0
0
47.46765
12.37375
0
0
0
0
0
0
0
63.47514
0
0
0
0
0
0
0
0
0
0
0
57.35732
0
0
0
0
0
0
0
0
0
0
0
0
0
0
0
0
0
25.3815
0
0
0
0
0
0
0
0
0
0
0
0
0
0
0
0
0
27.97361
0
0
0
0
0
0
0
0
0
0
0
0
0
0
0
0
0
16.07108
0
0
0
0
0
0
0
0
0
0
0
0
0
0
0
0
0
8.8348
0
0
0
0
0
0
0
0
0
0
0
0
0
0
0
0
0
8.042065
0
0
0
0
0
0
0
0
0
0
0
0
0
0
0
0
0
6.488036
0
0
0
0
0
0
0
0
0
0
0
0
0
0
0
0
0
4.379038
0
0
0
0
0
0
0
0
0
0
0
0
0
0
0
0
0
3.663136
0
0
0
0
0
0
0
0
0
0
0
0
0
0
0
0
0
0.4283411
0
0
0
0
0
0
0
0
0
0
0
0
0
0
0
0
0
0
0
0
0
0
0
0
0
0
0
0
0
0
0
0
0
0
0
0
0
0
0
0
0
0
0
0
0
0
0
0
0
0
0
0
0
0
0
0
0
0
0
0
0
0
0
0
0
0
0
0
0
0
0
0
0
0
0
0
0
0
0
0
0
0
0
0
0
0
0
0
0
0
0
0
0
0
0
0
0
0
0
0
0
0
0
0
0
0
0
0
0
0
0
0
0
0
0
0
0
0
0
0
0
0
0
0
0
0
0
0
0
0
0
0
0
0
0
0
0
0
0
0
0
0
0
0
0
0
0
0
0
0
0
0
0
0
0
0
0
0
0
0
0
0
0
0
0
0
0
0
0
0
0
0
0
0
0
0
0
0
0
0
0
0
0
0
0
0
0
0
0
0
0
0
0
0
0
0
0
0
0
0
0
0
0
0
0
0
0
0
0
0
0
0
0
0
0
0
0
0
0
0
0
0
0
0
0
0
0
0
0
0
0
0
0
0
0
0
0
0
0
0
0
0
0
0
0
0
0
0
0
0
0
0
0
0
0
0
0
0
0
0
0
0
0
0
0
0
0
0
0
0
0
0
0
0
0
0
0
0
0
0
0
0
0
0
0
0
0
0
0
0
0
0
0
0
0
0
0
0
0
0
0
0
0
0
0
0
0
0
0
0
0
0
0
0
0
0
0
0
0
0
0
0
0
0
0
0
0
0
0
0
0
0
0
0
0
0
0
0
0
0
0
0
0
0
0
0
0
0
0
0
0
0
0
0
0
0
0
0
0
0
0
0
0
0
0
0
0
0
0
0
0
0
0
0
0
0
0
0
0
0
0
0
0
0
0
0
0
0
0
0
0
0
0
0
0
0
0
0
0
0
0
0
0
0
0
0
0
0
0
0
0
0
0
0
0
0
0
0
0
0
0
0
0
0
0
0
0
0
0
0
0
0
0
0
0
0
0
0
0
0
0
0
0
0
0
0
0
0
0
0
0
0
0
0
0
0
0
0
0
0
0
0
0
0
0
0
0
0
0
0
0
0
0
0
0
0
0
0
0
0
0
0
0
0
0
0
0
0
0
0
0
0
0
0
0
0
0
0
0
0
0
0
0
0
0
0
0
0
0
0
0
0
0
0
0
0
0
0
0
0
0
0
0
0
0
0
0
0
0
0
0
0
0
0
0
0
0
0
0
0
0
0
0
0
0
0
0
0
0
0
0
0
0
0
0
0
0
0
0
0
0
0
0
0
0
0
0
0
0
0
0
0
0
0
0
0
0
0
0
0
0
0
0
0
0
0
0
0
0
0
0
0
0
0
0
0
0
0
0
0
0
0
0
0
0
0
0
0
0
0
0
0
0
0
0
0
0
0
0
0
0
0
0
0
0
0
0
0
0
0
0
0
0
0
0
0
0
0
0
0
0
0
0
0
0
0
0
0
0
0
0
0
0
0
0
0
0
0
0
0
0
0
0
0
0
0
0
0
0
0
0
0
0
0
0
0
0
0
0
0
0
0
0
0
0
0
0
0
0
0
0
0
0
0
0
0
0
0
0
0
0
0
0
0
0
0
0
0
0
0
0
0
0
0
0
0
0
0
0
0
0
0
0
0
0
0
0
0
0
0
0
0
0
0
0
0
0
0
0
0
0
0
0
0
0
0
0
0
0
0
0
0
0
0
0
0
0
0
0
0
0
0
0
0
0
0
0
0
0
0
0
0
0
0
0
0
0
0
0
0
0
0
0
0
0
0
0
0
0
0
0
0
0
0
0
0
0
0
0
0
0
0
0
0
0
0
0
0
0
0
0
0
0
0
0
0
0
0
0
0
0
0
0
0
0
0
0
0
0
0
0
0
0
0
0
0
0
0
0
0
0
0
0
0
0
0
0
0
0
0
0
0
0
0
0
0
0
0
0
0
0
0
0
0
0
0
0
0
0
0
0
0
0
0
0
0
0
0
0
0
0
0
0
0
0
0
0
0
0
0
0
0
0
0
0
0
0
0
0
0
0
0
0
0
0
0
0
0
0
0
0
0
0
0
0
0
0
0
0
0
0
0
0
0
0
0
0
0
0
0
0
0
0
0
0
0
0
0
0
0
0
0
0
0
0
0
0
0
0
0
0
0
0
0
0
0
0
0
0
0
0
0
0
0
0
0
0
0
0
0
0
0
0
0
0
0
0
0
0
0
0
0
0
0
0
0
0
0
0
0
0
0
0
0
0
0
0
0
0
0
0
0
0
0
0
0
0
0
0
0
0
0
0
0
0
0
0
0
0
0
0
0
0
0
0
0
0
0
0
0
0
0
0
0
0
0
0
0
0
0
0
0
0
0
0
0
0
0
0
0
0
0
0
0
0
0
0
0
0
0
0
0
0
0
0
0
0
0
0
0
0
0
0
0
0
0
0
0
0
0
0
0
0
0
0
0
0
0
0
0
0
0
0
0
0
0
0
0
0
0
0
0
0
0
0
0
0
0
0
0
0
0
0
0
0
0
0
0
0
0
0
0
0
0
0
0
0
0
0
0
0
0
0
0
0
0
0
0
0
0
0
0
0
0
0
0
0
0
0
0
0
0
0
0
0
0
0
0
0
0
0
0
0
0
0
0
0
0
0
0
0
0
0
0
0
0
0
0
0
0
0
0
0
0
0
0
0
0
0
0
0
0
0
0
0
0
0
0
0
0
0
0
0
0
0
0
0
0
0
0
0
0
0
0
0
0
0
0
0
0
0
0
0
0
0
0
0
0
0
0
0
0
0
0
0
0
0
0
0
0
0
0
0
0
0
0
0
0
0
0
0
0
0
0
0
0
0
0
0
0
0
0
0
0
0
0
0
0
0
0
0
0
0
0
0
0
0
0
0
0
0
0
0
0
0
0
0
0
0
0
0
0
0
0
0
0
0
0
0
0
0
0
0
0
0
0
0
0
0
0
0
0
0
0
0
0
0
0
0
0
0
0
0
0
0
0
0
0
0
0
0
0
0
0
0
0
0
0
0
0
0
0
0
0
0
0
0
0
0
0
0
0
0
0
0
0
0
0
0
0
0
0
0
0
0
0
0
0
0
0
0
0
0
0
0
0
0
0
0
0
0
0
0
0
0
0
0
0
0
0
0
0
0
0
0
0
0
0
0
0
0
0
0
0
0
0
0
0
0
0
0
0
0
0
0
0
0
0
0
0
0
0
0
0
0
0
0
0
0
0
0
0
0
0
0
0
0
0
0
0
0
0
0
0
0
0
0
0
0
0
0
0
0
0
0
0
0
0
0
0
0
0
0
0
0
0
0
0
0
0
0
0
0
0
0
0
0
0
0
0
0
0
0
0
0
0
0
0
0
0
0
0
0
0
0
0
0
0
0
0
0
0
0
0
0
0
0
0
0
0
0
0
0
0
0
0
0
0
0
0
0
0
0
0
0
0
0
0
0
0
0
0
0
0
0
0
0
0
0
0
0
0
0
0
0
0
0
0
0
0
0
0
0
0
0
0
0
0
0
0
0
0
0
0
0
0
0
0
0
0
0
0
0
0
0
0
0
0
0
0
0
0
0
0
0
0
0
0
0
0
0
0
0
0
0
0
0
0
0
0
0
0
0
0
0
0
0
0
0
0
0
0
0
0
0
0
0
0
0
0
0
0
0
0
0
0
0
0
0
0
0
0
0
0
0
0
0
0
0
0
0
0
0
0
0
0
0
0
0
0
0
0
0
0
0
0
0
0
0
0
0
0
0
0
0
0
0
0
0
0
0
0
0
0
0
0
0
0
0
0
0
0
0
0
0
0
0
0
0
0
0
0
0
0
0
0
0
0
0
0
0
0
0
0
0
0
0
0
0
0
0
0
0
0
0
0
0
0
0
0
0
0
0
0
0
0
0
0
0
0
0
0
0
0
0
0
0
0
0
0
0
0
0
0
0
0
0
0
0
0
0
0
0
0
0
0
0
0
0
0
0
0
0
0
0
0
0
0
0
0
0
0
0
0
0
0
0
0
0
0
0
0
0
0
0
0
0
0
0
0
0
0
0
0
0
0
0
0
0
0
0
0
0
0
0
0
0
0
0
0
0
0
0
0
0
0
0
0
0
0
0
0
0
0
0
0
0
0
0
0
0
0
0
0
0
0
0
0
0
0
0
0
0
0
0
0
0
0
0
0
0
0
0
0
0
0
0
0
0
0
0
0
0
0
0
0
0
0
0
0
0
0
0
0
0
0
0
0
0
0
0
0
0
0
0
0
0
0
0
0
0
0
0
0
0
0
0
0
0
0
0
0
0
0
0
0
0
0
0
0
0
0
0
0
0
0
0
0
0
0
0
0
0
0
0
0
0
0
0
0
0
0
0
0
0
0
0
0
0
0
0
0
0
0
0
0
0
0
0
0
0
183.169
213.7418
229.2123
361.438
248.6284
389.9433
397.0364
414.8781
437.145
389.543
426.2378
393.3546
370.742
367.0199
268.1615
400.6868
365.9844
238.2414
159.7886
126.0762
185.7836
0
0
0
0
0
0
0
0
0
0
0
0
0
0
0
0
0
0
0
0
0
0
0
0
0
0
0
23.68155
0
0
36.95007
87.7077
0
0
0
0
0
0
0
0
0
0
0
0
0
0
0
0
0
0
0
0
0
0
0
0
0
0
0
0
0
0
0
0
18.4633
44.13755
0
0
0
0
1.042014
0
0
0
0
0
0
0
0
0
0
0
0
0
0
0
0
0
0
0
0
0
0
0
0
0
0
0
0
0
0
0
219.895
220.5454
256.9849
146.8473
147.2988
183.8625
75.09788
75.50198
111.1805
0.2775182
0.4520156
38.42984
221.2946
221.8064
258.3075
147.7472
148.1744
184.9485
75.94698
76.37521
112.051
0.6943951
0.7689821
39.65757
148.5924
149.0276
185.8106
76.81448
77.2454
112.8953
0.7938516
0.8200087
40.50987
224.1546
224.7812
260.8696
149.5
149.9618
187.252
77.6849
78.12854
113.7754
0.846452
0.8725382
41.1605
225.4536
226.1291
262.4653
150.4246
150.8638
188.3926
78.57283
79.01898
114.6482
0.898599
0.923952
41.69246
151.3216
151.767
189.5046
79.45033
79.82559
115.5174
0.9483485
0.9728688
42.1898
227.625
227.544
265.4696
152.1631
152.5719
189.2691
80.20189
80.58257
116.3948
0.9974258
1.021266
42.65642
153.0252
153.4641
190.1567
80.96499
81.34774
117.2301
1.044413
1.066314
43.08488
229.3023
229.8886
268.4891
153.925
154.3593
191.0853
81.73838
82.12286
118.028
1.089382
1.112859
43.50362
230.4905
231.069
269.9862
154.8191
155.2203
192.0001
82.51647
82.90727
118.8252
1.135402
1.158698
43.91018
231.6684
232.2216
270.8653
155.6409
156.0463
192.9278
83.3069
83.70276
119.6314
1.180741
1.202046
44.28568
232.3166
232.4481
271.2175
156.4724
156.8983
193.4741
84.10742
84.50916
120.4477
1.222969
1.244407
44.65395
232.5811
232.7015
271.5541
156.971
157.0562
193.6667
84.91964
85.35205
120.9336
1.265727
1.289733
44.99196
232.8354
232.9649
271.8898
157.1538
157.2465
193.8602
85.41113
85.50877
121.1292
1.317381
1.408126
44.91505
233.1022
233.2438
272.2154
157.3555
157.4585
194.0718
85.61999
85.71985
121.3392
1.632225
1.682359
44.86989
233.3745
233.5355
272.5533
157.5716
157.6858
194.2972
85.84025
85.94477
121.5609
1.678688
1.713487
44.58396
233.7671
235.1688
272.9955
157.7981
158.0288
196.1059
86.06613
86.18237
121.7993
1.77238
1.823025
44.3351
236.5998
237.0102
273.4526
158.2367
158.3691
197.5681
86.30689
86.43679
122.0587
1.878888
1.935253
44.09058
237.2304
237.4349
273.8415
158.5064
158.6503
197.9119
86.56477
86.69802
122.3338
1.994743
2.055651
43.84438
237.6548
237.8841
274.2389
158.7972
158.9514
198.281
86.83629
86.97338
122.6259
2.109036
2.165931
43.55543
238.0989
238.3553
274.6631
159.105
159.2731
198.6695
87.11715
87.25943
122.9439
2.220741
2.277201
43.27051
238.5904
238.8955
275.0853
159.4397
159.6176
199.1012
87.41122
87.55268
123.2647
2.335945
2.394284
42.9798
239.2053
239.1678
275.8283
159.8108
160.9329
200.3958
87.70114
87.85199
123.665
2.45827
2.520648
42.70261
162.6969
163.635
202.9826
87.99973
88.15855
124.1863
2.587523
2.657598
42.43465
240.7546
240.8157
276.5243
163.9318
164.2076
204.1653
88.31494
88.47846
124.6086
2.728162
2.799758
42.1709
241.0581
241.3997
277.3108
164.4811
164.77
204.8233
88.64512
88.81368
125.0645
2.873724
2.951977
41.91717
241.7618
242.1505
277.9884
165.2087
166.3874
205.6423
88.98112
89.22201
126.6744
3.030882
3.114853
41.66921
242.5449
243.0062
278.6389
168.5956
169.9115
206.5789
89.50433
89.73109
129.9169
3.199369
3.288481
41.48492
388.9026
388.7956
421.7717
316.7548
316.9264
352.7952
243.4838
244.0042
280.459
170.4928
170.9526
207.5702
89.91825
90.10261
130.6001
3.377122
3.473666
41.35724
388.9983
389.3443
422.4656
317.2901
317.7444
353.7108
244.5274
245.0759
281.4993
171.4198
171.9034
208.5933
90.29124
90.58034
131.5732
3.570963
3.673798
41.28309
389.9227
390.413
424.4948
318.2404
318.7354
354.591
245.6716
246.2338
282.6042
172.5038
173.016
209.6665
92.98194
94.79487
135.8728
3.778316
3.88997
41.45437
391.0358
392.2317
426.3766
319.2331
319.6731
355.5808
246.8314
247.3594
283.661
173.4699
173.8856
210.6715
95.34917
95.70973
137.2352
3.999538
4.119802
41.98402
392.7919
393.4772
428.0658
320.0039
320.1627
356.4385
247.8028
248.0801
284.2862
174.2987
174.6834
211.3865
96.56368
100.6844
138.5403
4.251345
4.421402
47.3595
394.7895
396.1103
427.2884
320.3049
320.0017
357.3256
248.0689
247.6451
283.7523
174.8691
175.0205
211.1541
104.0016
107.0998
140.3371
4.628056
4.960176
53.91025
395.9501
394.6425
425.2428
319.2801
317.4045
357.8922
246.3686
243.6935
280.3685
175.2096
175.2937
208.293
110.9867
114.7597
144.8078
5.493225
5.648545
60.84035
391.4217
386.777
418.289
313.1258
309.9118
350.8687
239.0719
233.5619
268.2731
175.0248
173.4812
201.1264
119.3397
127.9639
149.7466
6.740456
8.215379
84.1751
378.3759
368.5098
400.3924
304.4277
296.1057
329.5982
228.2409
220.7345
250.9612
168.9004
160.7543
191.1428
130.9538
125.5544
139.3794
8.861159
9.4484
92.27051
356.211
345.6863
375.8076
287.4303
275.4981
309.381
210.086
199.0688
245.7151
149.2419
140.8865
173.9013
116.4134
107.6346
120.992
23.3974
24.63946
93.33531
334.8754
326.621
356.6694
267.0814
259.3878
293.2926
196.4134
197.0305
225.1052
141.7911
141.3119
161.1435
101.931
97.69141
118.8901
27.38295
34.10986
88.69828
322.3553
326.5386
354.9756
258.3659
261.7653
296.2758
196.3288
191.4068
224.6702
144.3794
144.0331
169.0319
95.52677
96.84921
124.9753
40.52515
43.8993
72.69634
338.0199
352.3989
395.7346
263.5495
262.1745
309.959
187.6114
186.0406
218.4762
143.1798
146.9829
167.1319
98.17019
99.76204
125.5472
46.60038
50.79884
65.87534
366.9491
384.9424
446.1257
260.3466
264.7222
322.2481
186.1184
191.9831
219.176
149.2637
154.0302
174.25
105.62
113.4369
134.7791
57.98818
62.89324
72.53133
390.8352
405.6999
478.9128
262.2702
264.4996
326.5716
204.289
217.81
230.3778
161.5241
170.1241
196.2116
123.8624
133.3178
143.8629
65.16882
70.09314
78.21669
409.1876
441.6533
540.3775
268.1769
285.0904
344.1522
227.7515
241.0658
251.6176
176.8769
192.2929
219.0858
142.0407
148.4271
155.0626
72.19136
75.87993
92.91049
465.212
487.4058
591.4152
301.1727
317.8635
385.9783
251.7083
270.9082
292.9154
201.6999
207.9309
226.931
152.8369
153.9458
169.7118
81.88828
83.90442
95.91268
507.1606
523.964
645.7445
334.11
353.0739
424.0679
291.1447
303.4086
325.5553
213.3904
215.8196
252.2821
159.832
157.0196
175.0644
91.10249
87.48866
98.64371
525.1698
531.4667
645.9277
375.9843
405.2848
438.6597
315.4942
329.4924
368.5665
228.8689
246.3573
277.4722
163.0861
173.2865
196.1938
89.10408
94.00605
129.6365
519.1551
516.4522
624.0616
421.1679
439.2335
455.8895
345.0004
363.5918
404.9641
246.4336
249.2961
299.4723
181.6111
193.3995
219.9606
112.898
118.0023
156.9479
515.6642
512.9702
581.1417
456.5052
474.6137
484.718
366.2992
372.5592
435.0535
254.407
267.2582
311.766
200.5966
190.1211
224.1644
138.3481
142.2274
181.2921
519.9831
530.9349
553.2266
481.4804
498.1945
522.0735
381.2493
388.3836
444.7586
273.2288
286.7066
337.2816
198.3804
212.2557
252.1529
140.4419
136.5858
179.3253
558.7248
587.385
578.0923
509.6697
533.2412
575.6931
392.1834
404.0988
478.8614
295.8593
314.0833
368.1452
224.5269
233.0289
273.2094
132.8603
133.7775
197.5103
604.5174
620.7568
601.506
546.7081
557.5467
596.889
428.0589
430.3999
492.7291
327.4701
347.7126
397.7276
252.8848
256.986
308.4122
157.9285
136.5476
223.1396
626.5976
637.1179
623.3255
557.9492
533.9506
560.6178
440.3509
446.6609
515.1519
349.3808
367.8834
419.2601
275.3435
308.5288
328.3002
645.4636
633.3892
663.7121
542.9518
519.7594
566.4653
433.8744
439.8963
470.658
364.4671
378.7514
407.6531
341.09
356.6103
375.5003
642.7238
630.7004
666.9768
513.7883
503.7776
559.6449
435.4247
451.2756
457.351
361.3171
413.7723
426.6668
637.1473
628.6778
668.0048
503.0182
495.8789
553.6273
436.4797
436.8197
454.4317
407.0673
411.7799
416.1701
621.4212
615.7775
658.6608
489.1507
485.2297
545.4328
427.3311
417.0669
441.2788
401.0473
386.7049
399.3064
606.4696
609.3812
651.9086
488.3992
495.4432
550.068
413.7017
403.7952
437.2812
374.5349
343.9262
370.0622
594.8875
595.4676
632.3476
494.0263
488.2201
537.9632
395.6941
379.0856
425.6286
352.0217
327.9709
357.2275
320.9427
285.53
293.6752
571.0505
562.2934
601.8172
463.4116
449.6106
506.0886
367.5026
356.2961
391.3768
310.5176
275.6279
322.6772
257.8652
203.8958
221.3645
526.2976
520.3728
564.8487
432.5014
431.0829
481.5298
347.57
347.9602
368.3594
275.4698
267.2299
314.3746
196.2113
199.9002
246.829
97.53718
91.15134
137.7974
522.8888
506.3557
550.1831
426.722
417.4123
475.749
337.851
337.4637
391.4369
261.4135
266.5992
317.5772
195.5185
202.0554
252.3686
84.97846
86.7041
144.296
504.5844
505.5169
511.8558
433.5428
430.5341
474.9976
350.074
356.2223
389.9903
264.7748
266.8338
306.1221
205.6897
204.7831
244.8345
105.6957
115.6945
176.4476
496.0644
482.9249
483.15
423.1937
414.2496
454.8403
343.6994
322.5429
369.8723
269.0245
251.8358
297.1939
203.1589
211.7601
223.1948
114.7833
89.01241
177.0078
467.9657
446.0946
455.3718