/*--------------------------------*- C++ -*----------------------------------*\
| =========                 |                                                 |
| \\      /  F ield         | OpenFOAM: The Open Source CFD Toolbox           |
|  \\    /   O peration     | Version:  2206                                  |
|   \\  /    A nd           | Website:  www.openfoam.com                      |
|    \\/     M anipulation  |                                                 |
\*---------------------------------------------------------------------------*/
FoamFile
{
    version     2.0;
    format      ascii;
    arch        "LSB;label=32;scalar=64";
    class       surfaceScalarField;
    location    "2.6";
    object      phi.a;
}
// * * * * * * * * * * * * * * * * * * * * * * * * * * * * * * * * * * * * * //

dimensions      [0 3 -1 0 0 0 0];

oriented        oriented;

internalField   nonuniform List<scalar> 
26037
(
-3.305547e-10
-6.261636e-11
-1.483177e-10
-3.822591e-11
-7.969029e-11
-1.450008e-11
-5.036161e-11
-6.361815e-12
-3.78458e-11
-3.717864e-12
-3.000261e-11
-2.642773e-12
-2.137752e-12
-2.399158e-11
-1.492127e-10
-1.072775e-10
-1.024439e-10
-6.669912e-11
-6.365426e-11
-2.84586e-11
-4.612708e-11
-1.417309e-11
-3.629735e-11
-8.464031e-12
-2.916877e-11
-5.706131e-12
-4.220552e-12
-2.348882e-11
-4.499188e-11
-3.280983e-11
-5.162329e-11
-3.325012e-11
-4.479252e-11
-2.429951e-11
-3.814027e-11
-1.527051e-11
-3.197322e-11
-1.041208e-11
-2.653232e-11
-7.45623e-12
-5.643507e-12
-2.177077e-11
-1.975924e-11
-1.095903e-11
-2.904288e-11
-1.730125e-11
-3.186264e-11
-1.72038e-11
-2.962725e-11
-1.399393e-11
-2.64893e-11
-1.024929e-11
-2.287076e-11
-7.954908e-12
-6.330539e-12
-1.922803e-11
-1.093715e-11
-4.465217e-12
-1.810384e-11
-9.741024e-12
-2.19663e-11
-1.168302e-11
-2.280538e-11
-1.095235e-11
-2.107904e-11
-9.596687e-12
-1.892525e-11
-7.634704e-12
-6.436312e-12
-1.629686e-11
-6.766821e-12
-2.134357e-12
-1.177554e-11
-5.720895e-12
-1.526022e-11
-7.889068e-12
-1.67676e-11
-8.310499e-12
-1.67366e-11
-7.968051e-12
-1.515824e-11
-7.293103e-12
-6.182208e-12
-1.331789e-11
-4.568447e-12
-1.194977e-12
-8.006832e-12
-3.584616e-12
-1.090368e-11
-5.31975e-12
-1.226908e-11
-6.442379e-12
-1.263628e-11
-6.523196e-12
-1.207081e-11
-6.351587e-12
-6.003757e-12
-1.049226e-11
-3.28457e-12
-7.637559e-13
-5.631833e-12
-2.419791e-12
-7.655956e-12
-3.833939e-12
-8.929185e-12
-4.98244e-12
-9.366124e-12
-5.355977e-12
-9.038976e-12
-5.505284e-12
-5.454619e-12
-8.073319e-12
-2.465213e-12
-5.435605e-13
-4.05981e-12
-1.76044e-12
-5.502428e-12
-2.91474e-12
-6.449642e-12
-3.97375e-12
-6.775818e-12
-4.484534e-12
-6.490257e-12
-4.819669e-12
-4.970866e-12
-5.660617e-12
-1.901473e-12
-4.238115e-13
-2.953588e-12
-1.379306e-12
-3.937684e-12
-2.346762e-12
-4.556021e-12
-3.302688e-12
-4.701632e-12
-3.86827e-12
-4.353589e-12
-4.306172e-12
-4.589601e-12
-3.5417e-12
-1.487922e-12
-3.575907e-13
-2.131299e-12
-1.159787e-12
-2.746025e-12
-2.003341e-12
-3.065382e-12
-2.87301e-12
-3.008377e-12
-3.457605e-12
-2.54319e-12
-3.952135e-12
-4.321989e-12
-1.680905e-12
-1.16734e-12
-3.228325e-13
-1.488045e-12
-1.039551e-12
-1.798356e-12
-1.808156e-12
-1.851504e-12
-2.616977e-12
-1.590645e-12
-3.209246e-12
-9.821048e-13
-3.737322e-12
-4.166033e-12
-2.906026e-14
-9.051519e-13
-3.080283e-13
-9.598855e-13
-9.842978e-13
-1.011892e-12
-1.715061e-12
-8.268258e-13
-2.488406e-12
-3.686891e-13
-3.089454e-12
3.944184e-13
-3.64177e-12
-4.11432e-12
1.461206e-12
-6.804943e-13
-3.067997e-13
-5.061406e-13
-9.744534e-13
-3.314864e-13
-1.69493e-12
6.616883e-14
-2.446877e-12
7.175092e-13
-3.069309e-12
1.639307e-12
-3.647184e-12
-4.158247e-12
2.832858e-12
-4.793762e-13
-3.155871e-13
-9.973357e-14
-9.988514e-13
2.796369e-13
-1.73117e-12
8.303743e-13
-2.446701e-12
1.712258e-12
-3.176948e-12
2.796611e-12
-3.748059e-12
-4.291263e-12
4.124048e-12
-2.918825e-13
-3.322884e-13
2.793172e-13
-1.050779e-12
8.549832e-13
-1.816779e-12
1.631036e-12
-2.559949e-12
2.660319e-12
-3.319183e-12
3.90157e-12
-3.926899e-12
-4.508141e-12
5.368606e-12
-1.105762e-13
-3.558148e-13
6.454774e-13
-1.126178e-12
1.408985e-12
-1.941949e-12
2.371778e-12
-2.728996e-12
3.58138e-12
-3.525319e-12
4.985996e-12
-4.180933e-12
-4.80559e-12
6.597597e-12
7.016944e-14
-3.857429e-13
1.010523e-12
-1.223536e-12
1.961628e-12
-2.104817e-12
3.110286e-12
-2.950512e-12
4.505215e-12
-3.797317e-12
6.078181e-12
-4.509218e-12
-5.183048e-12
7.840049e-12
2.553861e-13
-4.220096e-13
1.38453e-12
-1.342416e-12
2.528243e-12
-2.304646e-12
3.868331e-12
-3.222517e-12
5.44996e-12
-4.122006e-12
7.203529e-12
-4.904788e-12
-5.64068e-12
9.123547e-12
4.49567e-13
-4.647584e-13
1.776571e-12
-1.483534e-12
3.122382e-12
-2.543043e-12
4.6626e-12
-3.547807e-12
6.395505e-12
-4.489807e-12
8.385098e-12
-5.402102e-12
-6.190798e-12
1.04755e-11
6.572776e-13
-5.144336e-13
2.195578e-12
-1.648336e-12
3.75747e-12
-2.822281e-12
5.51568e-12
-3.932226e-12
7.459389e-12
-4.966031e-12
9.653916e-12
-5.965348e-12
-6.831388e-12
1.192194e-11
8.825674e-13
-5.717351e-13
2.65002e-12
-1.83873e-12
4.445707e-12
-3.144898e-12
6.437349e-12
-4.375448e-12
8.607015e-12
-5.515648e-12
1.102623e-11
-6.612802e-12
-7.568637e-12
1.348918e-11
1.129448e-12
-6.374662e-13
3.147838e-12
-2.057319e-12
5.199586e-12
-3.51521e-12
7.446078e-12
-4.883551e-12
9.863042e-12
-6.14424e-12
1.251816e-11
-7.335594e-12
-8.398908e-12
1.520221e-11
1.40207e-12
-7.126769e-13
3.697291e-12
-2.307427e-12
6.03107e-12
-3.938421e-12
8.558123e-12
-5.463758e-12
1.124701e-11
-6.862042e-12
1.411104e-11
-8.149765e-12
-9.338498e-12
1.708143e-11
1.704434e-12
-7.986854e-13
4.306606e-12
-2.593006e-12
6.952874e-12
-4.420704e-12
9.79012e-12
-6.123128e-12
1.278124e-11
-7.67609e-12
1.587965e-11
-9.095248e-12
-1.040166e-11
1.9159e-11
2.040821e-12
-8.972809e-13
4.984245e-12
-2.919103e-12
7.977241e-12
-4.9693e-12
1.115639e-11
-6.869154e-12
1.447626e-11
-8.590392e-12
1.78735e-11
-1.014968e-11
-1.157985e-11
2.144731e-11
2.41537e-12
-1.010817e-12
5.73907e-12
-3.292688e-12
9.11803e-12
-5.594995e-12
1.26763e-11
-7.714482e-12
1.635763e-11
-9.618667e-12
2.008703e-11
-1.132467e-11
-1.285672e-11
2.396553e-11
2.831732e-12
-1.142927e-12
6.580921e-12
-3.724621e-12
1.038997e-11
-6.31269e-12
1.437095e-11
-8.677606e-12
1.845483e-11
-1.078151e-11
2.255795e-11
-1.264785e-11
-1.431096e-11
2.674185e-11
3.294927e-12
-1.294799e-12
7.519446e-12
-4.221202e-12
1.180974e-11
-7.141439e-12
1.626386e-11
-9.782277e-12
2.079926e-11
-1.210446e-11
2.532752e-11
-1.413937e-11
-1.59328e-11
2.978297e-11
3.794586e-12
-1.472055e-12
8.563153e-12
-4.803539e-12
1.339388e-11
-8.112031e-12
1.837853e-11
-1.106163e-11
2.341806e-11
-1.361981e-11
2.841223e-11
-1.582743e-11
-1.774245e-11
3.327586e-11
4.335438e-12
-1.69466e-12
9.712983e-12
-5.500553e-12
1.515356e-11
-9.246016e-12
2.073511e-11
-1.255688e-11
2.634465e-11
-1.53743e-11
3.186624e-11
-1.775793e-11
-1.97982e-11
3.72208e-11
4.947165e-12
-1.97561e-12
1.094034e-11
-6.352299e-12
1.708804e-11
-1.056931e-11
2.335142e-11
-1.431245e-11
2.960198e-11
-1.742444e-11
3.571601e-11
-1.998353e-11
-2.211807e-11
4.160975e-11
5.608043e-12
-2.330951e-12
1.223035e-11
-7.40329e-12
1.917424e-11
-1.224756e-11
2.623356e-11
-1.635789e-11
3.320806e-11
-1.985081e-11
3.998656e-11
-2.256249e-11
-2.474206e-11
4.647248e-11
6.304249e-12
-2.780506e-12
1.36733e-11
-8.710626e-12
2.128822e-11
-1.425919e-11
2.93635e-11
-1.889053e-11
3.717382e-11
-2.268137e-11
4.470105e-11
-2.552434e-11
-2.768303e-11
5.183692e-11
7.010447e-12
-3.341582e-12
1.51822e-11
-1.030093e-11
2.369324e-11
-1.6675e-11
3.275197e-11
-2.194764e-11
4.151854e-11
-2.572825e-11
4.989467e-11
-2.880363e-11
-3.08918e-11
5.772242e-11
7.702702e-12
-4.017922e-12
1.672113e-11
-1.215642e-11
2.624415e-11
-1.940172e-11
3.610951e-11
-2.521564e-11
4.646385e-11
-2.952399e-11
5.562045e-11
-3.184536e-11
-3.429753e-11
6.411884e-11
8.361523e-12
-4.78535e-12
1.829412e-11
-1.414567e-11
2.897677e-11
-2.220568e-11
4.005608e-11
-2.85017e-11
5.100365e-11
-3.308527e-11
6.178955e-11
-3.545403e-11
-3.794344e-11
7.091506e-11
9.030298e-12
-5.575448e-12
1.999476e-11
-1.602391e-11
3.197665e-11
-2.4773e-11
4.437417e-11
-3.153299e-11
5.650406e-11
-3.653468e-11
6.893989e-11
-4.00186e-11
-4.106052e-11
7.789958e-11
9.814954e-12
-6.261529e-12
2.192102e-11
-1.751803e-11
3.521338e-11
-2.685785e-11
4.884371e-11
-3.412153e-11
6.201401e-11
-3.970426e-11
7.402516e-11
-4.398171e-11
-4.592471e-11
8.454593e-11
1.075408e-11
-6.718234e-12
2.402958e-11
-1.840051e-11
3.846872e-11
-2.82498e-11
5.309837e-11
-3.610903e-11
6.710078e-11
-4.245139e-11
7.973341e-11
-4.785216e-11
-5.257926e-11
9.177474e-11
1.185381e-11
-6.927594e-12
2.610671e-11
-1.866813e-11
4.138399e-11
-2.856889e-11
5.666963e-11
-3.718168e-11
7.11929e-11
-4.443271e-11
8.424792e-11
-5.098741e-11
-5.552594e-11
1.046957e-10
1.309351e-11
-6.827115e-12
2.768787e-11
-1.822805e-11
4.374642e-11
-2.843374e-11
5.910552e-11
-3.647117e-11
7.374696e-11
-4.500467e-11
1.074722e-10
-4.843455e-11
-3.308174e-11
2.188361e-10
1.425337e-11
-6.327729e-12
2.899625e-11
-1.707952e-11
4.404901e-11
-2.714241e-11
6.055999e-11
-3.595187e-11
9.577237e-11
-3.690845e-11
2.347551e-10
-1.920185e-11
3.291391e-11
5.159204e-10
1.514412e-11
-5.469107e-12
2.960698e-11
-1.537335e-11
4.373297e-11
-2.503218e-11
7.432595e-11
-3.056364e-11
2.192228e-10
-1.488968e-11
5.236211e-10
7.616846e-11
1.431721e-10
9.849189e-10
1.552016e-11
-4.580444e-12
2.929986e-11
-1.340334e-11
4.989181e-11
-2.099919e-11
1.705432e-10
-9.086853e-12
4.705656e-10
3.803503e-11
1.020607e-09
1.310046e-10
4.060326e-10
1.585322e-09
1.488827e-11
-3.885e-12
2.824064e-11
-1.229104e-11
1.053418e-10
-1.039077e-11
3.889721e-10
4.527371e-11
8.542192e-10
1.211344e-10
1.498257e-09
2.342918e-10
4.053784e-10
2.510592e-09
1.383623e-11
-3.486097e-12
5.0788e-11
-6.626967e-12
2.500371e-10
1.499643e-11
7.202278e-10
8.137173e-11
1.331673e-09
2.786948e-10
2.124711e-09
3.693055e-10
5.738223e-10
3.044717e-09
1.442708e-11
-2.831618e-12
1.364879e-10
6.316989e-12
4.859099e-10
5.381915e-11
1.05619e-09
1.450799e-10
1.979748e-09
2.832636e-10
3.026573e-09
4.531914e-10
1.056523e-09
3.897594e-09
3.718552e-11
1.632829e-12
2.80278e-10
2.71288e-11
7.677803e-10
9.970524e-11
1.474816e-09
2.178225e-10
2.379408e-09
3.755901e-10
3.445342e-09
5.654011e-10
8.449173e-10
5.127934e-09
9.387388e-11
8.690553e-12
4.49678e-10
5.122165e-11
1.056554e-09
1.489353e-10
1.889941e-09
2.882114e-10
2.912192e-09
4.703948e-10
4.080255e-09
6.849614e-10
9.232068e-10
5.426053e-09
1.947876e-10
1.700537e-11
6.760887e-10
7.172775e-11
1.330509e-09
2.457986e-10
2.271602e-09
3.556386e-10
3.416749e-09
5.455985e-10
4.712443e-09
7.801391e-10
1.081393e-09
6.056986e-09
3.121154e-10
2.618117e-11
8.665557e-10
9.417509e-11
1.771915e-09
2.064978e-10
2.951763e-09
3.830518e-10
4.414437e-09
5.343938e-10
6.077474e-09
7.676415e-10
1.774239e-09
7.135292e-09
4.198175e-10
3.433082e-11
1.039745e-09
1.158798e-10
1.92121e-09
2.309208e-10
3.070034e-09
3.849606e-10
4.396902e-09
5.649515e-10
5.896043e-09
7.80497e-10
1.259655e-09
8.077024e-09
4.976363e-10
3.930071e-11
1.167146e-09
1.291603e-10
2.090121e-09
2.506738e-10
3.236643e-09
4.087282e-10
4.559463e-09
5.973922e-10
6.005143e-09
8.086293e-10
1.052511e-09
7.687377e-09
5.571202e-10
4.21668e-11
1.268937e-09
1.352783e-10
2.247453e-09
2.564636e-10
3.462382e-09
4.121788e-10
4.870246e-09
5.970235e-10
6.390388e-09
8.026266e-10
1.011604e-09
7.910946e-09
6.148161e-10
3.904578e-11
1.378125e-09
1.231867e-10
2.438102e-09
2.296015e-10
3.772919e-09
3.65163e-10
5.343064e-09
5.254477e-10
7.057752e-09
7.042988e-10
8.912501e-10
8.772778e-09
6.131395e-10
3.06044e-11
1.373757e-09
9.856275e-11
2.429689e-09
1.866837e-10
3.758776e-09
2.996812e-10
5.320347e-09
4.341242e-10
7.022189e-09
5.862651e-10
7.538048e-10
8.724573e-09
5.525553e-10
2.638796e-11
1.258615e-09
8.729728e-11
2.229922e-09
1.688288e-10
3.436086e-09
2.74211e-10
4.831202e-09
4.00517e-10
6.32729e-09
5.445315e-10
6.827378e-10
7.821487e-09
4.906112e-10
2.369399e-11
1.152197e-09
8.058818e-11
2.066173e-09
1.589795e-10
3.202476e-09
2.587959e-10
4.510142e-09
3.839138e-10
5.917837e-09
5.161424e-10
4.364592e-10
7.530243e-09
4.106333e-10
1.900727e-11
1.020543e-09
6.833358e-11
1.889924e-09
1.328998e-10
3.021763e-09
1.950856e-10
4.325339e-09
3.299497e-10
5.763644e-09
4.304185e-10
-1.193429e-10
7.75981e-09
3.00913e-10
1.241259e-11
8.427508e-10
4.766501e-11
1.719676e-09
2.952002e-11
2.867383e-09
1.278245e-10
4.283337e-09
2.149931e-10
5.858927e-09
3.082643e-10
3.868411e-10
6.80536e-09
1.812942e-10
5.235639e-12
6.460716e-10
2.557327e-11
1.289192e-09
6.069666e-11
2.215484e-09
1.18591e-10
3.339396e-09
1.910369e-10
4.586614e-09
2.796545e-10
3.8929e-10
5.791941e-09
8.024669e-11
2.648496e-12
4.225614e-10
1.690548e-11
1.015918e-09
4.846751e-11
1.834342e-09
9.797689e-11
2.837125e-09
1.641382e-10
3.963785e-09
2.462161e-10
2.912118e-10
5.159957e-09
2.327743e-11
8.036819e-13
2.530388e-10
9.278463e-12
7.26818e-10
3.2716e-11
1.418618e-09
7.372344e-11
2.302194e-09
1.24177e-10
3.328544e-09
1.898818e-10
-5.339832e-11
4.805317e-09
6.221593e-13
2.324393e-13
1.096764e-10
4.11042e-12
4.456622e-10
1.836383e-11
9.993432e-10
4.520962e-11
1.879156e-09
1.851547e-11
2.875581e-09
1.284156e-10
1.880005e-10
3.690518e-09
5.422326e-13
5.076755e-14
2.508556e-11
1.801038e-12
2.111619e-10
8.377836e-12
6.587648e-10
1.356605e-11
1.25849e-09
5.248048e-11
2.026659e-09
1.039935e-10
1.51707e-10
2.883774e-09
2.339506e-12
2.188877e-13
3.56713e-12
1.538642e-12
6.73731e-11
4.455997e-12
3.376582e-10
1.324948e-11
7.869699e-10
3.531286e-11
1.401042e-09
6.507092e-11
2.273184e-11
2.282668e-09
3.717824e-12
5.860098e-13
6.601304e-12
1.749076e-12
1.562277e-11
3.588112e-12
1.22901e-10
6.935864e-12
4.052384e-10
1.685204e-11
9.044959e-10
1.721755e-11
6.590501e-11
1.47182e-09
4.347093e-12
9.411097e-13
8.619154e-12
2.062617e-12
1.183289e-11
3.251567e-12
2.969064e-11
4.572695e-12
1.547305e-10
6.508187e-12
4.451606e-10
1.74231e-11
3.062471e-11
8.830385e-10
4.503769e-12
1.127712e-12
9.761469e-12
2.315618e-12
1.454399e-11
2.946041e-12
1.862122e-11
2.762046e-12
4.146649e-11
3.807483e-12
1.610271e-10
6.468111e-12
1.25602e-11
4.18326e-10
4.427719e-12
1.156494e-12
1.027053e-11
2.443828e-12
1.656212e-11
2.46448e-12
2.125225e-11
2.157576e-12
2.45562e-11
1.606805e-12
4.474996e-11
8.765378e-13
1.895034e-12
1.442086e-10
4.281255e-12
1.082196e-12
1.052488e-11
2.408011e-12
1.696465e-11
2.608489e-12
2.292001e-11
1.683069e-12
2.811328e-11
-2.021124e-13
3.095012e-11
-1.569177e-12
-3.40062e-12
4.194158e-11
4.24948e-12
9.407636e-13
1.033348e-11
2.399177e-12
1.701061e-11
2.674581e-12
2.381236e-11
1.428651e-12
2.930797e-11
-3.444036e-13
3.393292e-11
-2.820872e-12
-8.42772e-12
3.991813e-11
4.299672e-12
7.812191e-13
1.024732e-11
2.239863e-12
1.681797e-11
2.699574e-12
2.350842e-11
1.688789e-12
2.965606e-11
3.188141e-14
3.513428e-11
-2.721402e-12
-8.445047e-12
3.969182e-11
4.42074e-12
6.421975e-13
1.025075e-11
2.018459e-12
1.672245e-11
2.578334e-12
2.314161e-11
2.181891e-12
2.954628e-11
6.718882e-13
3.740884e-11
-3.221039e-12
-4.517432e-12
4.063173e-11
4.506731e-12
5.486322e-13
1.029336e-11
1.815431e-12
1.636588e-11
2.606746e-12
2.266361e-11
2.509604e-12
2.961311e-11
9.64062e-13
3.51795e-11
-9.079891e-13
-2.00328e-12
4.049563e-11
4.49704e-12
5.043468e-13
1.012205e-11
1.739131e-12
1.598325e-11
2.651968e-12
2.209956e-11
2.798318e-12
2.880258e-11
1.494805e-12
3.426897e-11
1.263454e-12
3.693543e-13
3.987121e-11
4.403534e-12
4.992325e-13
9.82829e-12
1.766371e-12
1.54615e-11
2.768385e-12
2.19343e-11
2.772989e-12
2.740143e-11
3.013541e-12
3.307479e-11
2.753205e-12
2.387484e-12
3.871683e-11
4.205603e-12
5.228795e-13
9.392792e-12
1.832395e-12
1.475029e-11
2.93529e-12
2.047323e-11
3.238842e-12
2.605475e-11
3.822355e-12
3.159667e-11
3.934135e-12
4.024224e-12
3.710073e-11
3.951586e-12
5.539856e-13
8.871724e-12
1.905486e-12
1.418574e-11
2.976558e-12
1.929771e-11
3.911404e-12
2.457308e-11
4.48244e-12
2.985279e-11
4.863712e-12
5.267362e-12
3.512014e-11
3.660891e-12
5.841543e-13
8.376724e-12
1.935669e-12
1.309512e-11
3.241744e-12
1.797855e-11
4.233589e-12
2.294705e-11
4.949848e-12
2.792267e-11
5.531871e-12
6.131289e-12
3.289446e-11
3.347842e-12
6.066761e-13
7.692435e-12
1.98917e-12
1.207556e-11
3.341763e-12
1.661784e-11
4.406912e-12
2.124675e-11
5.238127e-12
2.589598e-11
5.950309e-12
6.631487e-12
3.057968e-11
3.049677e-12
6.179304e-13
7.02798e-12
2.018559e-12
1.105427e-11
3.361104e-12
1.524539e-11
4.463861e-12
1.953195e-11
5.362101e-12
2.384886e-11
6.148879e-12
6.89604e-12
2.815694e-11
2.726474e-12
6.179008e-13
6.362797e-12
1.991629e-12
1.004641e-11
3.310052e-12
1.389569e-11
4.418249e-12
1.785128e-11
5.342555e-12
2.185084e-11
6.158679e-12
6.903677e-12
2.587695e-11
2.409456e-12
6.032211e-13
5.720185e-12
1.925611e-12
9.073062e-12
3.199878e-12
1.259469e-11
4.286727e-12
1.623307e-11
5.206779e-12
1.993926e-11
6.011214e-12
6.542233e-12
2.401059e-11
2.105805e-12
5.78737e-13
5.106774e-12
1.831803e-12
8.145513e-12
3.043554e-12
1.135645e-11
4.087959e-12
1.469509e-11
4.981234e-12
1.810256e-11
5.768255e-12
6.314724e-12
2.16881e-11
1.818281e-12
5.463554e-13
4.527612e-12
1.717262e-12
7.269833e-12
2.853403e-12
1.018814e-11
3.839437e-12
1.324497e-11
4.688692e-12
1.63877e-11
5.439903e-12
5.97423e-12
1.97064e-11
1.548752e-12
5.084771e-13
3.984878e-12
1.588945e-12
6.449363e-12
2.641077e-12
9.09296e-12
3.558548e-12
1.18836e-11
4.351039e-12
1.478816e-11
5.045418e-12
5.56848e-12
1.784895e-11
1.297864e-12
4.673857e-13
3.479481e-12
1.453446e-12
5.684965e-12
2.417836e-12
8.07128e-12
3.262352e-12
1.061448e-11
3.990518e-12
1.341714e-11
4.572808e-12
5.228765e-12
1.612055e-11
1.06492e-12
4.249951e-13
3.010558e-12
1.316327e-12
4.975903e-12
2.192689e-12
7.122931e-12
2.963775e-12
9.428828e-12
3.632208e-12
1.196075e-11
4.176978e-12
4.773313e-12
1.450189e-11
8.491048e-13
3.827291e-13
2.575976e-12
1.181664e-12
4.31858e-12
1.972417e-12
6.244039e-12
2.671353e-12
8.334485e-12
3.280559e-12
1.065466e-11
3.778917e-12
4.314123e-12
1.300774e-11
6.486325e-13
3.417182e-13
2.172372e-12
1.052609e-12
3.708347e-12
1.761939e-12
5.427796e-12
2.391164e-12
7.322229e-12
2.939826e-12
9.44094e-12
3.398291e-12
3.878004e-12
1.162257e-11
4.616555e-13
3.028427e-13
1.795834e-12
9.317783e-13
3.138619e-12
1.565899e-12
4.665551e-12
2.131629e-12
6.416192e-12
2.621814e-12
8.311104e-12
3.073989e-12
3.47832e-12
1.033113e-11
2.854971e-13
2.667891e-13
1.440842e-12
8.211091e-13
2.601465e-12
1.387625e-12
3.946683e-12
1.898129e-12
5.520725e-12
2.352293e-12
7.243226e-12
2.759167e-12
3.118616e-12
9.116061e-12
1.170914e-13
2.341168e-13
1.101319e-12
7.221716e-13
2.087941e-12
1.229403e-12
3.260724e-12
1.691652e-12
4.664168e-12
2.109413e-12
6.227507e-12
2.475142e-12
2.801264e-12
7.959436e-12
-4.674633e-14
2.054239e-13
7.709596e-13
6.368637e-13
1.588604e-12
1.094491e-12
2.594309e-12
1.517488e-12
3.831062e-12
1.906746e-12
5.243319e-12
2.236544e-12
2.532793e-12
6.840665e-12
-2.095834e-13
1.814225e-13
4.425523e-13
5.672983e-13
1.092279e-12
9.856496e-13
1.932783e-12
1.37759e-12
3.006039e-12
1.745989e-12
4.27118e-12
2.047879e-12
2.318155e-12
5.73811e-12
-3.755244e-13
1.629927e-13
1.07613e-13
5.1695e-13
5.850881e-13
9.109251e-13
1.251259e-12
1.304691e-12
2.168416e-12
1.627353e-12
3.288993e-12
1.916762e-12
2.163584e-12
4.628614e-12
-5.499689e-13
1.515409e-13
-2.445247e-13
4.905186e-13
5.428035e-14
8.766578e-13
5.639796e-13
1.276936e-12
1.296778e-12
1.58352e-12
2.271998e-12
1.85409e-12
2.075892e-12
3.487462e-12
-7.397056e-13
1.493203e-13
-6.275739e-13
4.95107e-13
-5.216682e-13
8.929606e-13
-1.979352e-13
1.31141e-12
3.642896e-13
1.610835e-12
1.193261e-12
1.867592e-12
2.062981e-12
2.287406e-12
-9.540606e-13
1.600486e-13
-1.059581e-12
5.427612e-13
-1.168407e-12
9.786769e-13
-1.049127e-12
1.435959e-12
-6.638376e-13
1.733312e-12
1.853216e-14
1.973599e-12
2.134763e-12
9.974716e-13
-1.205965e-12
1.901188e-13
-1.566698e-12
6.528599e-13
-1.922679e-12
1.161937e-12
-2.030328e-12
1.681364e-12
-1.831402e-12
1.976334e-12
-1.293094e-12
2.190224e-12
2.301481e-12
-4.179658e-13
-1.516199e-12
2.507066e-13
-2.188535e-12
8.587058e-13
-2.837892e-12
1.48799e-12
-3.201043e-12
2.092946e-12
-3.196237e-12
2.373871e-12
-2.792347e-12
2.538386e-12
2.571828e-12
-1.999581e-12
-1.917878e-12
3.629468e-13
-2.98703e-12
1.220492e-12
-3.994467e-12
2.031399e-12
-4.646185e-12
2.737128e-12
-4.835656e-12
2.969339e-12
-4.541697e-12
3.038997e-12
2.948968e-12
-3.7928e-12
-2.466825e-12
5.717863e-13
-4.064433e-12
1.850215e-12
-5.524251e-12
2.919178e-12
-6.489093e-12
3.699023e-12
-6.852154e-12
3.811078e-12
-6.616294e-12
3.70537e-12
3.423057e-12
-5.838108e-12
-3.264628e-12
9.837231e-13
-5.602501e-12
2.972825e-12
-7.740781e-12
4.475391e-12
-8.919718e-12
4.988043e-12
-9.379727e-12
4.931006e-12
-9.091891e-12
4.527677e-12
3.665585e-12
-7.92067e-12
-4.513411e-12
1.882825e-12
-7.905965e-12
5.02277e-12
-1.064169e-11
6.825598e-12
-1.216521e-11
6.933507e-12
-1.256747e-11
6.348764e-12
-1.166571e-11
5.015695e-12
4.074415e-12
-1.040786e-11
-6.645103e-12
4.115845e-12
-1.157353e-11
8.886334e-12
-1.502518e-11
1.047722e-11
-1.65581e-11
9.512339e-12
-1.604754e-11
7.344278e-12
-1.49267e-11
5.709561e-12
4.32533e-12
-1.315306e-11
-1.067185e-11
1.025271e-11
-1.771876e-11
1.614439e-11
-2.156338e-11
1.584562e-11
-2.17508e-11
1.167186e-11
-2.066008e-11
8.498789e-12
-1.859996e-11
6.035739e-12
4.232096e-12
-1.607107e-11
-1.910616e-11
3.125412e-11
-2.828329e-11
3.153834e-11
-3.025929e-11
2.156298e-11
-2.891252e-11
1.366283e-11
-2.59485e-11
8.714869e-12
-2.248919e-11
5.583706e-12
3.577895e-12
-1.896315e-11
-4.321652e-11
1.052154e-10
-4.888053e-11
6.283302e-11
-4.338628e-11
2.672351e-11
-3.724222e-11
1.282414e-11
-3.139223e-11
6.918625e-12
-2.614326e-11
3.913675e-12
2.20046e-12
-2.150301e-11
-1.406952e-10
-9.720568e-11
-6.135957e-11
-4.517795e-11
-3.58086e-11
-2.885623e-11
-2.326773e-11
-1.913357e-11
-1.887567e-12
-1.521367e-11
-1.761171e-12
-6.092879e-12
-1.693114e-12
-6.100574e-12
-5.512712e-12
-6.452673e-13
5.060812e-12
-4.710816e-12
-6.907209e-13
4.488173e-12
-4.371734e-12
-6.932866e-13
4.3651e-12
-4.578412e-12
-7.0798e-13
-1.880027e-11
-3.377557e-12
-1.497375e-11
-2.87865e-12
-6.032986e-12
-2.570833e-12
-5.959807e-12
8.360005e-13
-5.474079e-12
-1.012963e-12
8.735099e-13
5.021155e-12
-4.664915e-12
-1.05733e-12
8.390346e-13
4.440216e-12
-4.32164e-12
-9.831081e-13
8.454559e-13
4.310708e-12
-4.51922e-12
-9.805396e-13
-1.76089e-11
-4.513508e-12
-1.409827e-11
-3.797441e-12
-1.136488e-11
-3.3396e-12
-4.764594e-12
-1.578674e-12
1.211777e-12
1.186718e-12
-4.641262e-12
-1.47789e-12
1.234292e-12
-4.433967e-12
-1.399448e-12
1.123447e-12
4.212285e-12
-4.095025e-12
-1.258484e-12
1.113117e-12
4.081638e-12
-4.282868e-12
-1.242219e-12
-1.576059e-11
-5.210507e-12
-1.267751e-11
-4.44736e-12
-5.1744e-12
-3.930039e-12
-4.976065e-12
-4.728465e-12
-1.730795e-12
1.555063e-12
4.33385e-12
-4.010782e-12
-1.703676e-12
1.387306e-12
3.809881e-12
-3.702901e-12
-1.509497e-12
1.365998e-12
3.692358e-12
-3.88852e-12
-1.483536e-12
-1.3523e-11
-5.514658e-12
-1.090436e-11
-4.833805e-12
-4.476112e-12
-4.339993e-12
-4.226824e-12
1.844277e-12
-4.094752e-12
-1.951953e-12
1.845789e-12
3.734571e-12
-3.439167e-12
-1.974605e-12
1.624664e-12
3.261727e-12
-3.16946e-12
-1.732231e-12
1.594501e-12
3.169052e-12
-3.376824e-12
-1.700337e-12
-1.112989e-11
-5.53355e-12
-8.934167e-12
-5.009693e-12
-3.654982e-12
-4.602759e-12
-3.376255e-12
2.045615e-12
-3.334879e-12
-2.125939e-12
2.08965e-12
-2.753513e-12
-2.191156e-12
3.017152e-12
1.831854e-12
2.59753e-12
-2.516833e-12
-1.923592e-12
1.800921e-12
2.521319e-12
-2.747355e-12
-1.895076e-12
-8.750543e-12
-5.384738e-12
-6.893761e-12
-5.042156e-12
-2.766666e-12
-4.753294e-12
-2.474227e-12
-2.485351e-12
-2.261819e-12
2.193823e-12
2.272087e-12
2.007752e-12
-1.975507e-12
-2.164038e-12
2.007625e-12
1.845946e-12
-1.773382e-12
-2.084127e-12
1.982388e-12
1.778054e-12
-2.008252e-12
-2.062812e-12
-6.48103e-12
-5.289161e-12
-4.876043e-12
-4.996514e-12
-1.854254e-12
-4.832796e-12
-1.557735e-12
2.30793e-12
-1.625141e-12
-2.346396e-12
2.214135e-12
-1.165617e-12
-2.269874e-12
1.349013e-12
2.154128e-12
1.039059e-12
-9.70924e-13
-2.21873e-12
2.137103e-12
9.733682e-13
-1.201181e-12
-2.206213e-12
-4.408993e-12
-4.992908e-12
-2.9309e-12
-4.938226e-12
-9.466608e-13
-4.8818e-12
-6.540775e-13
-7.430073e-13
-2.40802e-12
2.379073e-12
2.320853e-12
4.902314e-13
-3.217588e-13
-2.368207e-12
2.279098e-12
2.031322e-13
-1.365546e-13
-2.336424e-12
2.271118e-12
1.348418e-13
-3.545504e-13
-2.33294e-12
-2.360128e-12
-4.748973e-12
-1.018418e-12
-4.821144e-12
-6.109319e-14
-4.841511e-12
2.226473e-13
2.434984e-12
1.26866e-13
-2.461518e-12
2.413465e-12
-3.655714e-13
5.254756e-13
-2.45802e-12
2.391844e-12
-6.40753e-13
7.087581e-13
-2.446563e-12
2.392866e-12
-7.160138e-13
5.070687e-13
-2.452018e-12
-4.944106e-13
-4.58081e-12
8.20445e-13
-4.751757e-12
8.621023e-13
-4.862452e-12
1.157489e-12
2.489187e-12
9.734417e-13
-2.448831e-12
2.503184e-12
-1.205109e-12
1.362239e-12
-2.550146e-12
2.501776e-12
-1.478075e-12
1.550143e-12
-2.558658e-12
2.511618e-12
-1.564013e-12
1.367029e-12
-2.572628e-12
1.207348e-12
-4.498151e-12
2.544627e-12
-4.746485e-12
1.731605e-12
-4.931321e-12
2.018412e-12
2.468967e-12
1.905409e-12
-2.494547e-12
2.599986e-12
-2.122444e-12
2.179697e-12
-2.55027e-12
2.618145e-12
-2.300232e-12
2.378393e-12
-2.681188e-12
2.636291e-12
-2.399595e-12
2.214955e-12
-2.703466e-12
2.776279e-12
-4.503273e-12
4.165419e-12
-4.813903e-12
2.564028e-12
-5.060712e-12
2.841524e-12
2.52589e-12
2.746711e-12
-2.564584e-12
2.595391e-12
-2.967835e-12
3.121555e-12
-2.646964e-12
2.748767e-12
-3.237785e-12
3.187678e-12
-2.685553e-12
2.775026e-12
-3.217391e-12
3.043369e-12
-2.852248e-12
4.24454e-12
-4.594867e-12
5.705131e-12
-4.95824e-12
3.363812e-12
-5.258095e-12
3.634342e-12
2.61025e-12
3.558628e-12
-2.66441e-12
2.704893e-12
-3.789196e-12
3.950309e-12
-2.770488e-12
2.75248e-12
-4.072497e-12
4.154827e-12
-2.826691e-12
2.93627e-12
-4.180316e-12
3.850079e-12
-2.86608e-12
5.643987e-12
-4.771155e-12
7.188931e-12
-5.181268e-12
4.140128e-12
-5.52873e-12
4.407261e-12
2.726521e-12
4.348685e-12
-2.797824e-12
2.84337e-12
-4.590773e-12
4.760092e-12
-2.924954e-12
2.907674e-12
-4.88901e-12
4.976104e-12
-2.996188e-12
2.952014e-12
-5.000163e-12
4.823138e-12
-3.043179e-12
7.00479e-12
-5.030336e-12
8.643596e-12
-5.484809e-12
4.904153e-12
-5.876158e-12
5.17199e-12
2.877605e-12
5.127543e-12
-2.967627e-12
3.014815e-12
-5.382651e-12
5.560486e-12
-3.114026e-12
3.092168e-12
-5.696054e-12
5.786911e-12
-3.197047e-12
3.140722e-12
-5.809353e-12
5.617118e-12
-3.24767e-12
8.356896e-12
-5.372374e-12
1.009668e-11
-5.871115e-12
5.668817e-12
-6.305857e-12
5.942503e-12
3.066267e-12
5.906879e-12
-3.174525e-12
3.222807e-12
-6.164793e-12
6.364592e-12
-3.347237e-12
3.310496e-12
-6.507546e-12
6.603097e-12
-3.433807e-12
3.363401e-12
-6.625149e-12
6.416958e-12
-3.488738e-12
9.728602e-12
-5.798426e-12
1.157632e-11
-6.34388e-12
6.44863e-12
-6.82255e-12
6.731908e-12
3.290281e-12
6.706202e-12
-3.422889e-12
3.571959e-12
-6.960915e-12
7.188024e-12
-3.71822e-12
3.567203e-12
-7.336484e-12
7.437762e-12
-3.71199e-12
3.623639e-12
-7.459313e-12
7.228209e-12
-3.77004e-12
1.114899e-11
-6.311798e-12
1.311055e-11
-6.907294e-12
7.255155e-12
-7.431241e-12
7.553347e-12
3.564648e-12
7.528659e-12
-3.718725e-12
3.868975e-12
-7.801503e-12
8.040139e-12
-4.03293e-12
3.867416e-12
-8.196933e-12
8.304102e-12
-4.034369e-12
3.926625e-12
-8.3256e-12
8.066974e-12
-4.095114e-12
1.26463e-11
-6.918534e-12
1.472935e-11
-7.568138e-12
8.104601e-12
-8.139889e-12
8.42278e-12
3.883883e-12
8.393425e-12
-4.062565e-12
4.209771e-12
-8.682027e-12
8.935682e-12
-4.401459e-12
4.212974e-12
-9.102039e-12
9.215761e-12
-4.404542e-12
4.274855e-12
-9.236125e-12
8.942788e-12
-4.467787e-12
1.424952e-11
-7.625042e-12
1.646378e-11
-8.334269e-12
9.012761e-12
-8.956891e-12
9.357006e-12
4.253494e-12
9.317109e-12
-4.459668e-12
4.607015e-12
-9.621661e-12
9.890405e-12
-4.829013e-12
4.608726e-12
-1.006636e-11
1.018688e-11
-4.827506e-12
4.673307e-12
-1.020588e-11
9.867312e-12
-4.893512e-12
1.598734e-11
-8.438084e-12
1.834397e-11
-9.212899e-12
9.996638e-12
-9.887996e-12
1.037328e-11
4.679206e-12
1.031674e-11
-4.914728e-12
5.066542e-12
-1.063812e-11
1.092192e-11
-5.323226e-12
5.059855e-12
-1.110673e-11
1.123288e-11
-5.308244e-12
5.127497e-12
-1.124931e-11
1.085807e-11
-5.376606e-12
1.788406e-11
-9.360648e-12
2.039203e-11
-1.021259e-11
1.106962e-11
-1.095077e-11
1.148257e-11
5.163394e-12
1.140954e-11
-5.419631e-12
5.597294e-12
-1.174856e-11
1.203457e-11
-5.875817e-12
5.571777e-12
-1.224012e-11
1.237115e-11
-5.852102e-12
5.641039e-12
-1.238265e-11
1.192695e-11
-5.922555e-12
1.996503e-11
-1.040914e-11
2.26315e-11
-1.133999e-11
2.486177e-11
-1.216035e-11
1.304959e-11
-6.385147e-12
5.856143e-12
5.723719e-12
1.351718e-11
-6.457231e-12
6.071904e-12
1.316482e-11
-6.297666e-12
6.161417e-12
-1.347386e-11
1.361382e-11
-6.488608e-12
6.219168e-12
-1.36199e-11
1.308987e-11
-6.53427e-12
2.226137e-11
-1.157432e-11
2.513146e-11
-1.259328e-11
1.355324e-11
-1.350043e-11
1.404937e-11
1.39307e-11
-6.701976e-12
6.621295e-12
-1.431289e-11
1.460347e-11
-6.969791e-12
6.82108e-12
-1.484377e-11
1.496903e-11
-7.171622e-12
6.864093e-12
-1.49666e-11
1.435377e-11
-7.211802e-12
2.478944e-11
-1.285825e-11
2.786787e-11
-1.397096e-11
1.497657e-11
-1.496691e-11
1.552963e-11
7.042646e-12
1.537594e-11
-7.414718e-12
7.34046e-12
-1.57853e-11
1.609281e-11
-7.733061e-12
7.542409e-12
-1.633971e-11
1.645662e-11
-7.937697e-12
7.579003e-12
-1.643939e-11
1.571596e-11
-7.9723e-12
2.758875e-11
-1.425815e-11
3.089709e-11
-1.548405e-11
1.655636e-11
-1.658286e-11
1.717289e-11
7.805782e-12
1.698131e-11
-8.221118e-12
8.144374e-12
-1.742183e-11
1.775052e-11
-8.579056e-12
8.356641e-12
-1.799159e-11
1.813739e-11
-8.82023e-12
8.392598e-12
-1.81123e-11
1.724304e-11
-8.838862e-12
3.073731e-11
-1.57694e-11
3.429895e-11
-8.502784e-12
-8.691497e-12
1.832053e-11
-9.096908e-12
1.900944e-11
-9.272986e-12
8.653096e-12
1.876829e-11
-9.109172e-12
9.029747e-12
-1.924342e-11
1.959919e-11
-9.507287e-12
9.477832e-12
-1.969171e-11
2.000051e-11
-1.01503e-11
9.308973e-12
-1.997993e-11
1.896914e-11
-9.803634e-12
1.686478e-11
-1.750374e-11
1.755921e-11
1.773349e-11
-8.903007e-12
-1.864269e-11
1.945258e-11
-9.53083e-12
9.585969e-12
-2.016363e-11
2.076805e-11
-1.008995e-11
1.000931e-11
-2.126732e-11