/*--------------------------------*- C++ -*----------------------------------*\
| =========                 |                                                 |
| \\      /  F ield         | OpenFOAM: The Open Source CFD Toolbox           |
|  \\    /   O peration     | Version:  2206                                  |
|   \\  /    A nd           | Website:  www.openfoam.com                      |
|    \\/     M anipulation  |                                                 |
\*---------------------------------------------------------------------------*/
FoamFile
{
    version     2.0;
    format      ascii;
    arch        "LSB;label=32;scalar=64";
    class       surfaceScalarField;
    location    "2.6";
    object      phi.b;
}
// * * * * * * * * * * * * * * * * * * * * * * * * * * * * * * * * * * * * * //

dimensions      [0 3 -1 0 0 0 0];

oriented        oriented;

internalField   nonuniform List<scalar> 
26037
(
2.637826e-10
1.134535e-10
1.192733e-10
3.29758e-11
4.251225e-11
7.486232e-12
1.329051e-11
-3.988297e-12
2.147023e-13
-4.55967e-12
-9.566588e-12
-5.156511e-12
-6.245111e-12
-1.78406e-11
1.640963e-10
2.301536e-10
9.51256e-11
8.615867e-11
4.126911e-11
2.756347e-11
1.52364e-11
8.511946e-12
7.659843e-13
2.804879e-12
-9.767114e-12
-2.821107e-13
-2.639442e-12
-1.83435e-11
7.276047e-11
1.246086e-10
5.459463e-11
6.774771e-11
3.083923e-11
3.600835e-11
1.317459e-11
1.838626e-11
5.347549e-14
1.002107e-11
-1.034305e-11
4.978239e-12
1.411925e-12
-1.900418e-11
3.476337e-11
8.727479e-11
3.278249e-11
6.042391e-11
2.215803e-11
4.061513e-11
9.710389e-12
2.589204e-11
-1.578363e-12
1.668859e-11
-1.143615e-11
1.04977e-11
5.880339e-12
-1.997921e-11
1.957664e-11
7.391848e-11
2.084462e-11
5.856433e-11
1.459159e-11
4.450837e-11
5.449976e-12
3.192781e-11
-3.893451e-12
2.270148e-11
-1.308233e-11
1.625173e-11
1.077477e-11
-2.144499e-11
1.163502e-11
6.847345e-11
1.273384e-11
5.881349e-11
8.305001e-12
4.847301e-11
8.957823e-13
3.77313e-11
-7.563004e-12
2.884081e-11
-1.539696e-11
2.142869e-11
1.604384e-11
-2.353302e-11
6.444059e-12
6.709498e-11
6.491585e-12
6.056328e-11
3.264171e-12
5.213653e-11
-3.801445e-12
4.408242e-11
-1.151535e-11
3.505574e-11
-1.955403e-11
2.739474e-11
2.044571e-11
-2.634502e-11
2.729674e-12
6.835009e-11
1.315193e-12
6.361683e-11
-2.632774e-12
5.682573e-11
-8.826766e-12
5.001407e-11
-1.605156e-11
4.127631e-11
-2.375527e-11
3.350075e-11
2.607612e-11
-3.142595e-11
-1.108032e-13
7.159781e-11
-3.078467e-12
6.788539e-11
-7.702818e-12
6.217945e-11
-1.395024e-11
5.618446e-11
-2.109969e-11
4.769069e-11
-2.869547e-11
3.979258e-11
3.19226e-11
-3.628885e-11
-2.439832e-12
7.652882e-11
-6.972036e-12
7.335524e-11
-1.249627e-11
6.829147e-11
-1.924212e-11
6.287595e-11
-2.661977e-11
5.444917e-11
-3.433244e-11
4.636737e-11
3.803726e-11
-4.201144e-11
-4.46257e-12
8.298077e-11
-1.057947e-11
8.006971e-11
-1.72298e-11
7.533514e-11
-2.473673e-11
7.025854e-11
-3.260788e-11
6.171775e-11
-4.06586e-11
5.335377e-11
4.450839e-11
-4.858887e-11
-6.352525e-12
9.09198e-11
-1.407299e-11
8.808035e-11
-2.199835e-11
8.344322e-11
-3.049171e-11
7.850888e-11
-3.909218e-11
6.967076e-11
-4.769284e-11
6.090018e-11
5.144926e-11
-5.604469e-11
-8.204927e-12
1.003738e-10
-1.757849e-11
9.746777e-11
-2.69113e-11
9.274796e-11
-3.658296e-11
8.779371e-11
-4.613353e-11
7.84918e-11
-5.548002e-11
6.916032e-11
5.898952e-11
-6.442351e-11
-1.008936e-11
1.114184e-10
-2.120329e-11
1.083434e-10
-3.208061e-11
1.033901e-10
-4.297996e-11
9.814258e-11
-5.380955e-11
8.847663e-11
-6.408811e-11
7.829069e-11
6.727206e-11
-7.379419e-11
-1.206579e-11
1.241734e-10
-2.504194e-11
1.208467e-10
-3.756063e-11
1.154742e-10
-4.853169e-11
1.084173e-10
-6.207249e-11
1.010452e-10
-7.360037e-11
8.859694e-11
7.645415e-11
-8.424314e-11
-1.41731e-11
1.387858e-10
-2.914826e-11
1.351245e-10
-4.358044e-11
1.292747e-10
-5.752931e-11
1.215259e-10
-7.141601e-11
1.138212e-10
-8.414994e-11
1.000212e-10
8.6686e-11
-9.589239e-11
-1.646089e-11
1.554433e-10
-3.362657e-11
1.513724e-10
-5.012636e-11
1.449444e-10
-6.606747e-11
1.364565e-10
-8.161616e-11
1.281154e-10
-9.58516e-11
1.128481e-10
9.813905e-11
-1.088739e-10
-1.89644e-11
1.743619e-10
-3.853588e-11
1.698045e-10
-5.731225e-11
1.626907e-10
-7.536387e-11
1.533256e-10
-9.28767e-11
1.442275e-10
-1.088562e-10
1.27314e-10
1.109915e-10
-1.233423e-10
-2.171935e-11
1.957866e-10
-4.3945e-11
1.906627e-10
-6.524458e-11
1.827531e-10
-8.564159e-11
1.723591e-10
-1.050879e-10
1.621095e-10
-1.233134e-10
1.438985e-10
1.254441e-10
-1.39471e-10
-2.476119e-11
2.19992e-10
-4.992347e-11
2.142184e-10
-7.403566e-11
2.054108e-10
-9.695862e-11
1.937304e-10
-1.161402e-10
1.795959e-10
-1.391542e-10
1.651187e-10
1.419533e-10
-1.574359e-10
-2.812246e-11
2.472793e-10
-5.652311e-11
2.407568e-10
-8.371298e-11
2.309135e-10
-1.096262e-10
2.178885e-10
-1.338659e-10
2.020214e-10
-1.572082e-10
1.865142e-10
1.603814e-10
-1.774846e-10
-3.184518e-11
2.779862e-10
-6.384111e-11
2.706133e-10
-9.447791e-11
2.596103e-10
-1.236686e-10
2.451007e-10
-1.51105e-10
2.274578e-10
-1.770883e-10
2.103948e-10
1.811917e-10
-1.998336e-10
-3.596422e-11
3.1248e-10
-7.194071e-11
3.041467e-10
-1.064018e-10
2.918546e-10
-1.392177e-10
2.756953e-10
-1.700024e-10
2.560394e-10
-1.986826e-10
2.367942e-10
2.051803e-10
-2.247255e-10
-4.051423e-11
3.511567e-10
-8.088928e-11
3.41744e-10
-1.19587e-10
3.280312e-10
-1.564659e-10
3.100862e-10
-1.909361e-10
2.880855e-10
-2.191229e-10
2.625743e-10
2.359794e-10
-2.521524e-10
-4.552542e-11
3.944377e-10
-9.074392e-11
3.838141e-10
-1.341005e-10
3.685293e-10
-1.753889e-10
3.485905e-10
-2.141276e-10
3.241498e-10
-2.497054e-10
2.956451e-10
2.670691e-10
-2.832018e-10
-5.103026e-11
4.427708e-10
-1.015788e-10
4.308029e-10
-1.500863e-10
4.138048e-10
-1.963304e-10
3.917231e-10
-2.398397e-10
3.647065e-10
-2.801504e-10
3.332367e-10
3.020285e-10
-3.176875e-10
-5.702716e-11
4.965975e-10
-1.134391e-10
4.831994e-10
-1.67608e-10
4.643293e-10
-2.193133e-10
4.39957e-10
-2.680612e-10
4.102012e-10
-3.133039e-10
3.755255e-10
3.410621e-10
-3.551129e-10
-6.320278e-11
5.56042e-10
-1.26333e-10
5.4181e-10
-1.866977e-10
5.205975e-10
-2.444051e-10
4.938005e-10
-2.989799e-10
4.611967e-10
-3.496769e-10
4.230177e-10
3.801304e-10
-3.916314e-10
-7.005308e-11
6.217157e-10
-1.402793e-10
6.069534e-10
-2.073757e-10
5.831019e-10
-2.716012e-10
5.537343e-10
-3.323314e-10
5.179918e-10
-3.886276e-10
4.758192e-10
4.27298e-10
-4.387562e-10
-7.198602e-11
6.886527e-10
-1.543544e-10
6.836048e-10
-2.295984e-10
6.532187e-10
-3.011025e-10
6.204874e-10
-3.690424e-10
5.816168e-10
-4.327744e-10
5.357558e-10
4.828047e-10
-4.914523e-10
-8.462571e-11
7.675343e-10
-1.697275e-10
7.62314e-10
-2.532175e-10
7.309856e-10
-3.326747e-10
6.947013e-10
-4.085177e-10
6.527416e-10
-4.804483e-10
6.035748e-10
5.46666e-10
-5.477174e-10
-9.312365e-11
8.541349e-10
-1.736728e-10
8.358296e-10
-2.748881e-10
8.257796e-10
-3.658392e-10
7.798709e-10
-4.50207e-10
7.319737e-10
-5.305726e-10
6.79502e-10
6.18428e-10
-6.060113e-10
-1.0175e-10
9.485389e-10
-2.006444e-10
9.271054e-10
-2.834058e-10
9.015263e-10
-3.984199e-10
8.884435e-10
-4.938827e-10
8.218903e-10
-5.83999e-10
7.648509e-10
6.999139e-10
-6.694253e-10
-1.100418e-10
1.050396e-09
-2.183434e-10
1.027128e-09
-3.236428e-10
9.993915e-10
-4.318643e-10
9.895873e-10
-5.387377e-10
9.22737e-10
-6.398629e-10
8.60843e-10
7.926392e-10
-7.368075e-10
-1.180311e-10
1.159432e-09
-2.344879e-10
1.134633e-09
-3.488374e-10
1.10571e-09
-4.395922e-10
1.072747e-09
-5.777696e-10
1.054065e-09
-6.966419e-10
9.740854e-10
8.976487e-10
-8.061854e-10
-1.248627e-10
1.274551e-09
-2.481995e-10
1.248328e-09
-3.711747e-10
1.219866e-09
-4.922699e-10
1.185652e-09
-5.925326e-10
1.146587e-09
-7.501347e-10
1.124958e-09
1.019562e-09
-8.768848e-10
-1.299034e-10
1.394044e-09
-2.58767e-10
1.366707e-09
-3.88598e-10
1.339668e-09
-5.208254e-10
1.30831e-09
-6.540758e-10
1.271235e-09
-7.99816e-10
1.262877e-09
1.162387e-09
-9.476261e-10
-1.319211e-10
1.514902e-09
-2.644651e-10
1.4875e-09
-4.002327e-10
1.463566e-09
-5.416195e-10
1.438186e-09
-6.884457e-10
1.407865e-09
-8.074682e-10
1.37342e-09
1.362865e-09
-1.012944e-09
-1.273444e-10
1.630342e-09
-2.633267e-10
1.609893e-09
-4.031015e-10
1.589153e-09
-5.510144e-10
1.57242e-09
-7.088389e-10
1.553795e-09
-8.742359e-10
1.53036e-09
1.552074e-09
-1.067321e-09
-1.051892e-10
1.722435e-09
-2.489463e-10
1.737738e-09
-3.946059e-10
1.718186e-09
-5.474276e-10
1.709392e-09
-7.151599e-10
1.708055e-09
-8.989405e-10
1.704949e-09
1.700349e-09
-1.050077e-09
-1.082631e-10
1.816094e-09
-1.989385e-10
1.810235e-09
-3.632886e-10
1.863292e-09
-5.236033e-10
1.851786e-09
-6.952315e-10
1.86453e-09
-8.903249e-10
1.889504e-09
1.906202e-09
-1.098532e-09
-9.378863e-11
1.893351e-09
-1.97083e-10
1.893769e-09
-2.731354e-10
1.918153e-09
-4.639018e-10
2.022087e-09
-6.441279e-10
2.027735e-09
-8.32547e-10
2.067325e-09
2.085078e-09
-1.007361e-09
-7.169641e-11
1.946334e-09
-1.590742e-10
1.959904e-09
-2.547598e-10
1.99222e-09
-3.150986e-10
2.060227e-09
-5.297152e-10
2.224855e-09
-6.769429e-10
2.212522e-09
2.199555e-09
-7.737202e-10
-4.16376e-11
1.967079e-09
-1.0441e-10
2.000594e-09
-1.791313e-10
2.045087e-09
-2.649248e-10
2.125662e-09
-2.562699e-10
2.207578e-09
-3.990247e-10
2.36955e-09
2.264233e-09
-4.311647e-10
5.28896e-12
1.939486e-09
-3.186007e-11
2.015865e-09
-7.01369e-11
2.06279e-09
-1.06254e-10
2.151109e-09
-8.83839e-11
2.198007e-09
8.637553e-11
2.223992e-09
2.38032e-09
2.003044e-11
2.873074e-11
1.888929e-09
8.034578e-11
1.94395e-09
1.196338e-10
2.009695e-09
1.295403e-10
2.148396e-09
2.09653e-10
2.144015e-09
3.523271e-10
2.123378e-09
2.100051e-09
6.955918e-10
6.95073e-11
1.799269e-09
1.38664e-10
1.859688e-09
2.373003e-10
1.912504e-09
4.543122e-10
1.955556e-09
5.582234e-10
2.08612e-09
7.736163e-10
1.96689e-09
1.933203e-09
1.013124e-09
1.159006e-10
1.665692e-09
2.483419e-10
1.722519e-09
4.173e-10
1.761871e-09
6.286133e-10
1.782425e-09
1.002653e-09
1.773399e-09
1.327844e-09
1.718805e-09
1.879458e-09
1.480494e-09
1.64914e-10
1.488052e-09
3.649655e-10
1.530959e-09
5.993272e-10
1.560018e-09
8.626773e-10
1.571703e-09
1.16e-09
1.546002e-09
1.488712e-09
1.475368e-09
1.379238e-09
2.102605e-09
2.11441e-10
1.271875e-09
4.627416e-10
1.300079e-09
7.4522e-10
1.321868e-09
1.055253e-09
1.326227e-09
1.388871e-09
1.294694e-09
1.746976e-09
1.216211e-09
1.092025e-09
2.15063e-09
2.782337e-10
1.000776e-09
5.897125e-10
1.020906e-09
8.461881e-10
1.118704e-09
1.177948e-09
1.069291e-09
1.54394e-09
1.022448e-09
1.92763e-09
9.457692e-10
8.445584e-10
2.314098e-09
3.110068e-10
7.108647e-10
6.376223e-10
7.356561e-10
1.060504e-09
7.602366e-10
1.456271e-09
7.663705e-10
1.878807e-09
7.166165e-10
2.315143e-09
6.541591e-10
8.217348e-10
2.544549e-09
3.426765e-10
4.024603e-10
6.881245e-10
4.404675e-10
1.046969e-09
4.727519e-10
1.411859e-09
4.941317e-10
1.749437e-09
4.940387e-10
2.081005e-09
4.693616e-10
4.986554e-10
2.700617e-09
3.536819e-10
9.356046e-11
7.039281e-10
1.477766e-10
1.0526e-09
2.028054e-10
1.388609e-09
2.57714e-10
1.700308e-09
3.055198e-10
2.003978e-09
3.386292e-10
3.710071e-10
2.48377e-09
3.575986e-10
-2.104524e-10
7.123583e-10
-1.42455e-10
1.065128e-09
-6.307666e-11
1.403138e-09
2.931739e-11
1.71775e-09
1.290989e-10
2.036917e-09
2.297259e-10
3.394664e-10
2.466901e-09
3.739845e-10
-5.227105e-10
7.481997e-10
-4.450332e-10
1.127232e-09
-3.459896e-10
1.497708e-09
-2.197008e-10
1.851301e-09
-6.898129e-11
2.228607e-09
1.005483e-10
2.963871e-10
2.718921e-09
3.649899e-10
-8.236979e-10
7.353656e-10
-7.411234e-10
1.113677e-09
-6.25397e-10
1.486875e-09
-4.692165e-10
1.848141e-09
-2.725074e-10
2.241412e-09
-4.080129e-11
2.347139e-10
2.748594e-09
3.290625e-10
-1.091955e-09
6.681992e-10
-1.007124e-09
1.015997e-09
-8.770047e-10
1.360707e-09
-6.960278e-10
1.697714e-09
-4.625193e-10
2.065885e-09
-1.808884e-10
1.491628e-10
2.557089e-09
3.050796e-10
-1.340667e-09
6.254774e-10
-1.256281e-09
9.604122e-10
-1.118267e-09
1.299259e-09
-9.211642e-10
1.635559e-09
-6.593081e-10
2.009118e-09
-3.439513e-10
-4.89653e-11
2.595886e-09
2.741703e-10
-1.565661e-09
5.728288e-10
-1.487648e-09
9.032956e-10
-1.358624e-09
1.25872e-09
-1.165446e-09
1.60996e-09
-8.734945e-10
2.012364e-09
-5.423284e-10
-4.148869e-10
2.787387e-09
2.216924e-10
-1.748882e-09
4.812048e-10
-1.686403e-09
8.604008e-10
-1.651595e-09
1.219636e-09
-1.409024e-09
1.623671e-09
-1.13266e-09
2.09526e-09
-7.995371e-10
-4.329179e-10
2.50527e-09
1.768284e-10
-1.899312e-09
4.067793e-10
-1.862986e-09
5.957268e-10
-1.763713e-09
8.812224e-10
-1.594862e-09
1.218143e-09
-1.346452e-09
1.619355e-09
-1.025956e-09
-6.42346e-10
2.153712e-09
9.160175e-11
-1.975467e-09
2.427838e-10
-1.972893e-09
4.456392e-10
-1.899839e-09
6.982766e-10
-1.758746e-09
9.930977e-10
-1.530491e-09
1.340636e-09
-1.219618e-09
-8.590437e-10
1.854077e-09
3.603239e-11
-2.003826e-09
1.218277e-10
-2.030065e-09
2.660241e-10
-1.990571e-09
4.632123e-10
-1.880347e-09
7.136453e-10
-1.684069e-09
1.020394e-09
-1.395014e-09
-1.209429e-09
1.654116e-09
-1.251903e-11
-1.988856e-09
3.083711e-16
-2.027943e-09
7.332505e-11
-2.02594e-09
2.111147e-10
-1.957973e-09
4.988656e-10
-1.882192e-09
7.88875e-10
-1.563474e-09
-1.259379e-09
1.060431e-09
-5.041613e-11
-1.939494e-09
-9.911492e-11
-1.975589e-09
-9.966656e-11
-2.004288e-09
2.116048e-11
-2.031136e-09
1.070625e-10
-1.893784e-09
3.17468e-10
-1.678082e-09
-1.39536e-09
6.091976e-10
-7.850079e-11
-1.864737e-09
-1.410504e-10
-1.914758e-09
-2.055771e-10
-1.932441e-09
-2.51103e-10
-1.954498e-09
-2.038956e-10
-1.888615e-09
-6.762754e-11
-1.738423e-09
-1.554368e-09
2.238805e-10
-8.789928e-11
-1.78211e-09
-2.12423e-10
-1.794544e-09
-3.346052e-10
-1.810564e-09
-4.366049e-10
-1.839916e-09
-4.611256e-10
-1.830095e-09
-3.643848e-10
-1.772838e-09
-1.546856e-09
-2.669996e-10
-1.152641e-10
-1.672412e-09
-2.465362e-10
-1.66931e-09
-3.85871e-10
-1.674613e-09
-5.320078e-10
-1.691781e-09
-6.150987e-10
-1.729284e-09
-6.882776e-10
-1.65659e-09
-1.519361e-09
-6.409369e-10
-1.2629e-10
-1.551534e-09
-2.624503e-10
-1.540198e-09
-4.053096e-10
-1.537193e-09
-5.396774e-10
-1.559401e-09
-7.317884e-10
-1.531589e-09
-8.653227e-10
-1.502132e-09
-1.418683e-09
-9.181333e-10
-1.297267e-10
-1.427035e-09
-2.649099e-10
-1.41259e-09
-3.903066e-10
-1.419034e-09
-5.670011e-10
-1.387267e-09
-7.399199e-10
-1.358621e-09
-9.088609e-10
-1.325501e-09
-1.260116e-09
-1.044048e-09
-1.276545e-10
-1.30451e-09
-2.470143e-10
-1.301132e-09
-4.010762e-10
-1.273261e-09
-5.513804e-10
-1.243546e-09
-7.016525e-10
-1.211695e-09
-8.687926e-10
-1.157082e-09
-1.091659e-09
-1.029051e-09
-1.162605e-10
-1.19352e-09
-2.509143e-10
-1.174241e-09
-3.848401e-10
-1.147875e-09
-5.148801e-10
-1.121617e-09
-6.59322e-10
-1.073487e-09
-8.015e-10
-1.017956e-09
-9.707375e-10
-9.210506e-10
-1.173359e-10
-1.081732e-09
-2.3855e-10
-1.060538e-09
-3.591537e-10
-1.035693e-09
-4.824672e-10
-1.007017e-09
-6.054614e-10
-9.584157e-10
-7.238835e-10
-9.057328e-10
-8.551901e-10
-8.435366e-10
-1.109907e-10
-9.766306e-10
-2.21151e-10
-9.578231e-10
-3.282411e-10
-9.36828e-10
-4.432527e-10
-9.007815e-10
-5.515783e-10
-8.587868e-10
-6.400023e-10
-8.260732e-10
-7.419008e-10
-7.613823e-10
-1.019085e-10
-8.808617e-10
-2.005256e-10
-8.667604e-10
-3.041953e-10
-8.41202e-10
-4.041795e-10
-8.093219e-10
-4.923674e-10
-7.796844e-10
-5.953156e-10
-7.32762e-10
-6.590319e-10
-6.874305e-10
-9.283257e-11
-7.942555e-10
-1.858094e-10
-7.813641e-10
-2.775973e-10
-7.573085e-10
-3.65841e-10
-7.294358e-10
-4.449138e-10
-7.098416e-10
-5.413752e-10
-6.458109e-10
-5.891626e-10
-6.208851e-10
-8.300917e-11
-7.174073e-10
-1.689533e-10
-7.029038e-10
-2.516109e-10
-6.823921e-10
-3.171012e-10
-6.724556e-10
-4.125266e-10
-6.234371e-10
-4.902026e-10
-5.771455e-10
-5.277372e-10
-5.610096e-10
-7.646605e-11
-6.468625e-10
-1.530535e-10
-6.335385e-10
-2.271595e-10
-6.15744e-10
-3.022936e-10
-6.055146e-10
-3.753723e-10
-5.586405e-10
-4.429509e-10
-5.18079e-10
-4.727429e-10
-5.067439e-10
-6.921392e-11
-5.832214e-10
-1.376851e-10
-5.719337e-10
-1.950846e-10
-5.655902e-10
-2.740703e-10
-5.342129e-10
-3.391546e-10
-5.012706e-10
-3.998861e-10
-4.652269e-10
-4.236774e-10
-4.569826e-10
-6.246676e-11
-5.259153e-10
-1.172841e-10
-5.236456e-10
-1.865275e-10
-5.030871e-10
-2.487135e-10
-4.78934e-10
-3.062355e-10
-4.508158e-10
-3.607978e-10
-4.178253e-10
-3.79753e-10
-4.119067e-10
-5.620221e-11
-4.744208e-10
-1.1366e-10
-4.722321e-10
-1.70359e-10
-4.524465e-10
-2.245123e-10
-4.310378e-10
-2.762852e-10
-4.054319e-10
-3.254365e-10
-3.750946e-10
-3.400653e-10
-3.714842e-10
-4.735345e-11
-4.313408e-10
-1.028059e-10
-4.222884e-10
-1.537159e-10
-4.070027e-10
-2.023818e-10
-3.880047e-10
-2.488521e-10
-3.646856e-10
-2.926531e-10
-3.370036e-10
-3.050771e-10
-3.332276e-10
-4.613967e-11
-3.890026e-10
-9.323161e-11
-3.80153e-10
-1.385436e-10
-3.665949e-10
-1.822575e-10
-3.493295e-10
-2.238943e-10
-3.281503e-10
-2.627767e-10
-3.031799e-10
-2.750959e-10
-2.976644e-10
-4.161881e-11
-3.507211e-10
-8.395225e-11
-3.422737e-10
-1.247168e-10
-3.302048e-10
-1.64031e-10
-3.145012e-10
-2.01535e-10
-2.951792e-10
-2.366395e-10
-2.725546e-10
-2.509397e-10
-2.65301e-10
-3.761918e-11
-3.16e-10
-7.549174e-11
-3.083898e-10
-1.121113e-10
-2.974704e-10
-1.473899e-10
-2.83204e-10
-1.809692e-10
-2.656232e-10
-2.124454e-10
-2.450534e-10
-2.255879e-10
-2.418609e-10
-3.374435e-11
-2.847405e-10
-6.776233e-11
-2.779302e-10
-1.006151e-10
-2.680544e-10
-1.322274e-10
-2.551167e-10
-1.622665e-10
-2.391521e-10
-1.903933e-10
-2.204564e-10
-2.026207e-10
-2.16959e-10
-3.019265e-11
-2.566483e-10
-6.071658e-11
-2.505698e-10
-9.014713e-11
-2.416542e-10
-1.184312e-10
-2.299491e-10
-1.452326e-10
-2.155131e-10
-1.700733e-10
-1.987584e-10
-1.819927e-10
-1.939058e-10
-2.695283e-11
-2.314411e-10
-5.429948e-11
-2.260268e-10
-8.063213e-11
-2.179864e-10
-1.059467e-10
-2.073889e-10
-1.29796e-10
-1.944751e-10
-1.48878e-10
-1.825991e-10
-1.607813e-10
-1.729474e-10
-2.399755e-11
-2.088622e-10
-4.845004e-11
-2.040517e-10
-7.195809e-11
-1.96816e-10
-9.452869e-11
-1.872523e-10
-1.158979e-10
-1.756135e-10
-1.360043e-10
-1.651714e-10
-1.447851e-10
-1.545216e-10
-2.130568e-11
-1.886745e-10
-4.312761e-11
-1.8441e-10
-6.407763e-11
-1.779092e-10
-8.419276e-11
-1.692862e-10
-1.03266e-10
-1.587787e-10
-1.215465e-10
-1.493043e-10
-1.309433e-10
-1.376847e-10
-1.88559e-11
-1.706587e-10
-3.82895e-11
-1.668857e-10
-5.6925e-11
-1.610513e-10
-7.481229e-11
-1.532917e-10
-9.164827e-11
-1.439421e-10
-1.081247e-10
-1.350129e-10
-1.186682e-10
-1.225254e-10
-1.662737e-11
-1.54614e-10
-3.389742e-11
-1.51276e-10
-5.045671e-11
-1.460283e-10
-6.627389e-11
-1.391404e-10
-7.907936e-11
-1.329844e-10
-9.584309e-11
-1.202304e-10
-1.076067e-10
-1.088886e-10
-1.459542e-11
-1.403597e-10
-2.98916e-11
-1.374089e-10
-4.454559e-11
-1.326889e-10
-5.866986e-11
-1.264767e-10
-7.222976e-11
-1.211075e-10
-8.512453e-11
-1.091141e-10
-9.796219e-11
-9.663307e-11
-1.274177e-11
-1.277292e-10
-2.624357e-11
-1.251174e-10
-3.918081e-11
-1.208584e-10
-5.170008e-11
-1.152263e-10
-6.396795e-11
-1.103386e-10
-7.525639e-11
-9.944719e-11
-8.937891e-11
-8.559327e-11
-1.104571e-11
-1.16572e-10
-2.291187e-11
-1.142517e-10
-3.429345e-11
-1.10387e-10
-4.536185e-11
-1.052488e-10
-5.627184e-11
-1.007659e-10
-6.634653e-11
-9.086576e-11
-8.172139e-11
-7.566242e-11
-9.48595e-12
-1.067544e-10
-1.98551e-11
-1.046771e-10
-2.981701e-11
-1.011433e-10
-3.948119e-11
-9.650179e-11
-4.926827e-11
-9.215987e-11
-5.830287e-11
-8.320625e-11
-7.486846e-11
-6.67295e-11
-8.041077e-12
-9.815815e-11
-1.703646e-11
-9.62704e-11
-2.565614e-11
-9.305477e-11
-3.284037e-11
-9.009394e-11
-4.279136e-11
-8.324492e-11
-5.102922e-11
-7.623822e-11
-6.87007e-11
-5.869716e-11
-6.680062e-12
-9.068962e-11
-1.43907e-11
-8.893683e-11
-2.189722e-11
-8.589202e-11
-2.946317e-11
-8.315621e-11
-3.712016e-11
-7.648249e-11
-4.445483e-11
-7.008083e-11
-6.311345e-11
-5.148089e-11
-5.378386e-12
-8.427122e-11
-1.188405e-11
-8.25847e-11
-1.831694e-11
-7.960967e-11
-2.505906e-11
-7.687817e-11
-3.179508e-11
-7.051367e-11
-3.848877e-11
-6.448047e-11
-5.799077e-11
-4.500233e-11
-4.10173e-12
-7.884874e-11
-9.455811e-12
-7.714349e-11
-1.489959e-11
-7.411892e-11
-2.081515e-11
-7.127501e-11
-2.68904e-11
-6.51018e-11
-3.307914e-11
-5.932234e-11
-5.322581e-11
-3.920795e-11
-2.807002e-12
-7.439678e-11
-7.036115e-12
-7.25613e-11
-1.157224e-11
-6.933241e-11
-1.67849e-11
-6.623456e-11
-2.235347e-11
-6.011459e-11
-2.818112e-11
-5.449051e-11
-4.871628e-11
-3.405625e-11
-1.420078e-12
-7.094171e-11
-4.537868e-12
-6.879259e-11
-8.268453e-12
-6.514691e-11
-1.291407e-11
-6.164434e-11
-1.813951e-11
-5.54247e-11
-2.37656e-11
-4.986722e-11
-4.436605e-11
-2.952383e-11
1.380616e-13
-6.85567e-11
-1.84346e-12
-6.582792e-11
-4.86044e-12
-6.148472e-11
-9.146786e-12
-5.734327e-11
-1.422341e-11
-5.089781e-11
-1.982284e-11
-4.533999e-11
-4.009057e-11
-2.560529e-11
2.004369e-12
-6.740731e-11
1.181579e-12
-6.366313e-11
-1.244456e-12
-5.826931e-11
-5.438769e-12
-5.314877e-11
-1.061092e-11
-4.638547e-11
-1.636747e-11
-4.081484e-11
-3.582933e-11
-2.232118e-11
4.386295e-12
-6.781083e-11
4.75488e-12
-6.23505e-11
3.284213e-12
-5.60036e-11
-1.736444e-12
-4.829454e-11
-7.317704e-12
-4.172498e-11
-1.344565e-11
-3.621594e-11
-3.261717e-11
-1.858386e-11
7.606082e-12
-7.037288e-11
8.997917e-12
-6.189124e-11
6.661227e-12
-5.315476e-11
1.725626e-12
-4.39682e-11
-4.452841e-12
-3.697035e-11
-1.027844e-11
-3.231601e-11
-2.828575e-11
-1.689386e-11
1.219213e-11
-7.640927e-11
1.430098e-11
-6.254714e-11
1.111001e-11
-5.027888e-11
5.090684e-12
-3.943698e-11
-1.522712e-12
-3.247139e-11
-8.843838e-12
-2.751702e-11
-2.406684e-11
-1.584816e-11
1.928284e-11
-8.934453e-11
2.12508e-11
-6.485163e-11
1.612163e-11
-4.732303e-11
8.463241e-12
-3.456627e-11
3.644377e-14
-2.719385e-11
-8.022746e-12
-2.27786e-11
-2.003799e-11
-1.541082e-11
3.281243e-11
-1.244956e-10
3.136781e-11
-7.208837e-11
2.194065e-11
-4.31658e-11
1.108819e-11
-2.841219e-11
1.080742e-12
-2.164156e-11
-7.756245e-12
-1.812849e-11
-1.625938e-11
-1.550115e-11
6.65563e-11
-2.264924e-10
4.94948e-11
-9.013502e-11
2.892164e-11
-3.745036e-11
1.344039e-11
-2.037017e-11
1.633212e-12
-1.55092e-11
-7.950642e-12
-1.352791e-11
-1.272497e-11
-1.599443e-11
1.452135e-10
8.547374e-11
3.861594e-11
1.510322e-11
1.541425e-12
-8.516084e-12
-1.675851e-11
-2.481026e-11
-7.490412e-12
-3.045987e-11
-8.831183e-12
-1.733772e-11
-1.023383e-11
-1.739011e-11
-1.802479e-11
-6.053814e-12
1.856185e-11
-1.885481e-11
-6.824498e-12
1.910075e-11
-1.932449e-11
-7.485796e-12
1.970878e-11
-1.971344e-11
-7.379876e-12
-2.548989e-11
-4.719823e-12
-3.124547e-11
-6.724522e-12
-1.785999e-11
-8.845357e-12
-1.753089e-11
5.717741e-12
-1.8444e-11
-5.613568e-12
6.708526e-12
1.901844e-11
-1.928288e-11
-6.615288e-12
7.333848e-12
1.940918e-11
-1.928156e-11
-7.324657e-12
7.83453e-12
1.873158e-11
-1.676041e-11
-8.67358e-12
-2.631376e-11
-1.544194e-12
-3.232087e-11
-4.200366e-12
-3.708079e-11
-6.643374e-12
-1.956391e-11
-5.00443e-12
5.350048e-12
5.216494e-12
-1.964611e-11
-5.011766e-12
6.550038e-12
-1.980006e-11
-6.473449e-12
7.34557e-12
1.989884e-11
-1.974678e-11
-7.366982e-12
8.950769e-12
1.929388e-11
-1.790091e-11
-9.174496e-12
-2.733513e-11
2.035855e-12
-3.33381e-11
-1.455378e-12
-1.851061e-11
-4.885792e-12
-1.909896e-11
-1.972734e-11
-4.146252e-12
6.273617e-12
2.026345e-11
-2.05087e-11
-6.193907e-12
7.374818e-12
2.062223e-11
-2.049651e-11
-7.366426e-12
9.397037e-12
2.008276e-11
-1.869012e-11
-9.58554e-12
-2.883476e-11
6.072283e-12
-3.501838e-11
1.756043e-12
-1.985985e-11
-2.403258e-12
-1.994357e-11
3.681834e-12
-2.055569e-11
-3.311302e-12
6.05854e-12
2.114397e-11
-2.145386e-11
-5.89723e-12
7.337412e-12
2.159457e-11
-2.150273e-11
-7.285621e-12
9.758596e-12
2.112235e-11
-1.969916e-11
-9.904606e-12
-3.091541e-11
1.052569e-11
-3.720163e-11
5.373852e-12
-2.097445e-11
3.940002e-13
-2.1105e-11
2.72136e-12
-2.165334e-11
-2.317221e-12
5.702698e-12
-2.264846e-11
-5.479859e-12
2.229111e-11
7.211633e-12
2.282787e-11
-2.277375e-11
-7.115906e-12
1.003575e-11
2.24221e-11
-2.09157e-11
-1.016672e-11
-3.368979e-11
1.533737e-11
-4.004535e-11
9.344226e-12
-2.240748e-11
3.495e-12
-2.261248e-11
-2.301992e-11
-1.236701e-12
1.616076e-12
5.177235e-12
2.285023e-11
-2.409653e-11
-4.030391e-12
6.994458e-12
2.436066e-11
-2.434865e-11
-6.851351e-12
1.023844e-11
2.404345e-11
-2.252165e-11
-1.028282e-11
-3.725054e-11
1.892297e-11
-4.366477e-11
1.362905e-11
-2.423082e-11
6.882423e-12
-2.451187e-11
4.267323e-13
-2.486646e-11
1.366718e-14
3.612546e-12
-2.598347e-11
-3.216557e-12
2.551356e-11
6.690406e-12
2.623493e-11
-2.624723e-11
-6.515794e-12
1.031697e-11
2.595378e-11
-2.433093e-11
-1.035214e-11
-4.34888e-11
2.409514e-11
-4.81414e-11
1.633057e-11
-2.647154e-11
1.053402e-11
-2.684507e-11
-2.708084e-11
1.383361e-12
-9.39744e-13
2.790877e-12
2.774738e-11
-2.823693e-11
-2.354855e-12
6.328406e-12
2.850528e-11
-2.852772e-11
-6.131665e-12
1.038732e-11
2.822526e-11
-2.646958e-11
-1.042926e-11
-4.928087e-11
2.952494e-11
-5.56876e-11
2.091919e-11
-2.918125e-11
1.227047e-11
-2.965152e-11
-2.429161e-12
-2.976041e-11
2.869777e-12
1.887577e-12
3.044029e-11
-3.094887e-11
-1.411489e-12
5.923355e-12
3.123227e-11
-3.126067e-11
-5.703705e-12
1.048027e-11
3.094149e-11
-2.902918e-11
-1.053011e-11
-5.605791e-11
3.527366e-11
-6.261098e-11
2.578455e-11
-3.355089e-11
1.615485e-11
-3.425729e-11
-4.045401e-12
-3.295589e-11
3.335999e-12
8.996021e-13
3.36382e-11
-3.416651e-11
-3.815818e-13
5.468787e-12
3.446723e-11
-3.450657e-11
-5.215672e-12
1.056894e-11
3.417828e-11
-3.211684e-11
-1.059015e-11
-6.383965e-11
4.142124e-11
-7.064205e-11
3.098784e-11
-3.757989e-11
2.030449e-11
-3.842685e-11
-4.564235e-12
-3.8002e-11
4.889976e-12
-1.810958e-13
3.866125e-11
-3.790331e-11
-5.640773e-13
4.944103e-12
3.824989e-11
-3.82988e-11
-4.653276e-12
1.059808e-11
3.795394e-11
-3.570272e-11
-1.060275e-11
-7.268294e-11
4.807209e-11
-7.983409e-11
3.660324e-11
-4.222795e-11
2.478019e-11
-4.321605e-11
-6.254015e-12
-4.260705e-11
6.556547e-12
3.519264e-14
4.326706e-11
-4.375342e-11
4.930164e-13
4.33742e-12
4.399919e-11
-4.265851e-11
-5.399319e-12
1.059723e-11
4.233339e-11
-3.98827e-11
-1.056156e-11
-8.265534e-11
5.533953e-11
-9.026296e-11
4.272103e-11
-4.752146e-11
2.964054e-11
-4.866475e-11
-8.070025e-12
-4.786988e-11
8.36206e-12
-1.068843e-12
4.853208e-11
-4.902748e-11
1.638031e-12
5.128874e-12
4.926925e-11
-4.923403e-11
-4.837155e-12
1.044631e-11
4.881215e-11
-4.499821e-11
-1.147532e-11
-9.385647e-11
6.335832e-11
-1.020306e-10
4.944004e-11
-5.351728e-11
3.496317e-11
-5.483197e-11
-1.003853e-11
-5.383707e-11
1.032392e-11
-2.250552e-12
5.450074e-11
-5.499155e-11
2.851135e-12
4.575122e-12
5.518358e-11
-5.499533e-11
-4.382682e-12
1.108045e-11
5.410484e-11
-4.998965e-11
-1.224902e-11
-1.064004e-10
7.226063e-11
-1.152658e-10
5.687886e-11
-6.028198e-11
4.083153e-11
-6.178209e-11
-1.218039e-11
-6.057993e-11
1.246853e-11
-3.512873e-12
6.125971e-11
-6.176464e-11
4.168232e-12
4.131244e-12
6.196102e-11
-6.179165e-11
-3.856363e-12
1.198969e-11
6.105825e-11
-5.765959e-11
-1.202953e-11
-1.204359e-10
8.219981e-11
-1.301201e-10
6.516339e-11
-6.790115e-11
4.737328e-11
-6.962129e-11
-1.452845e-11
-6.813953e-11
1.478318e-11
-4.902576e-12
6.884988e-11
-6.938232e-11
5.623248e-12
3.583149e-12
6.958246e-11
-6.935936e-11
-3.292084e-12
1.221788e-11
6.847174e-11
-6.4603e-11
-1.236596e-11
-1.361154e-10
9.333015e-11
-1.467462e-10
7.442253e-11
-7.642704e-11
5.46374e-11
-7.837107e-11
-1.733648e-11
-7.669977e-11
1.765413e-11
-3.944129e-12
7.762938e-11
-7.798201e-11
4.549879e-12
3.023463e-12
7.81572e-11
-7.787123e-11
-2.716731e-12
1.252266e-11
7.684153e-11
-7.254722e-11
-1.269071e-11
-1.536418e-10
1.058368e-10
-1.653707e-10
8.481159e-11
-8.602147e-11
6.277939e-11
-8.819629e-11
-2.021758e-11
-8.631321e-11
2.058729e-11
-5.314017e-12
8.722488e-11
-8.764538e-11
6.042192e-12
2.410966e-12
8.777863e-11
-8.741282e-11
-2.098667e-12
1.290551e-11
8.620136e-11
-8.13704e-11
-1.316999e-11
-1.732156e-10
1.199328e-10
-1.862198e-10
9.651352e-11
-9.677083e-11
7.194025e-11
-9.922029e-11
-2.347384e-11
-9.706246e-11
2.388505e-11
-6.875751e-12
9.805798e-11
-9.847902e-11
7.671981e-12
1.781616e-12
9.859703e-11
-9.816292e-11
-1.442386e-12
1.34819e-11
9.677206e-11
-9.141152e-11
-1.377715e-11
-1.950823e-10
1.358261e-10
-2.09567e-10
1.09739e-10
-1.088402e-10
8.231152e-11
-1.116026e-10
-2.712271e-11
-1.091243e-10
2.757494e-11
-8.595875e-12
1.101924e-10
-1.106337e-10
9.489219e-12
1.090196e-12
1.107439e-10
-1.102487e-10
-7.054349e-13
1.409114e-11
1.086791e-10
-1.027347e-10
-1.440547e-11
-2.194964e-10
1.537602e-10
-2.356874e-10
1.247174e-10
-1.224869e-10
9.435019e-11
-1.256333e-10
-3.119004e-11
-1.226364e-10
3.156217e-11
-1.051848e-11
1.237813e-10
-1.242466e-10
1.152521e-11
3.078789e-13
1.243562e-10
-1.237938e-10
1.302553e-13
1.474396e-11
1.220186e-10
-1.154106e-10
-1.509756e-11
-2.466948e-10
1.739698e-10
-2.646073e-10
1.414724e-10
-1.389944e-10
1.067671e-10
-1.383012e-10
-3.530215e-11
-1.371492e-10
3.372142e-11
-1.271215e-11
1.389222e-10
-1.39461e-10
1.388938e-11
-5.972934e-13
1.395706e-10
-1.389849e-10
1.146905e-12
1.547084e-11
1.36989e-10
-1.296555e-10
-1.585385e-11
-2.771333e-10
1.971661e-10
-2.976801e-10
1.609273e-10
-3.151663e-10
1.242702e-10
-1.586073e-10
3.987924e-11
-3.458677e-11
-3.712194e-11
-1.626241e-10
3.91958e-11
-1.883107e-11
-1.610401e-10
2.206249e-11
-1.502242e-12
1.571609e-10
-1.561486e-10
1.791603e-12
1.627985e-11
1.538339e-10
-1.456798e-10
-1.671397e-11
-3.108078e-10
2.229344e-10
-3.325848e-10
1.816237e-10
-1.672442e-10
1.378047e-10
-1.788912e-10
-1.754611e-10
4.849739e-11
-2.628354e-11
1.755049e-10
-1.763345e-10
2.788585e-11
-2.479702e-12
1.761078e-10
-1.753194e-10
3.168558e-12
1.722169e-11
1.727551e-10
-1.636687e-10
-1.7748e-11
-3.492194e-10
2.525607e-10
-3.745097e-10
2.058552e-10
-1.948497e-10
1.579781e-10
-1.997131e-10
-5.403635e-11
-1.955078e-10
5.518657e-11
-2.99768e-11
1.972577e-10
-1.985078e-10
3.211511e-11
-3.857849e-12
1.980663e-10
-1.97109e-10
4.590122e-12
1.82942e-11
1.94185e-10
-1.84096e-10
-1.88502e-11
-3.924409e-10
2.878711e-10
-4.20257e-10
2.326333e-10
-2.183298e-10
1.801559e-10
-2.238448e-10
-6.187013e-11
-2.191383e-10
6.325642e-11
-3.459736e-11
2.214394e-10
-2.229383e-10
3.710267e-11
-5.343756e-12
2.227207e-10
-2.215232e-10
6.053976e-12
1.945742e-11
2.182861e-10
-2.070505e-10
-2.00558e-11
-4.423718e-10
3.363813e-10
-4.703118e-10