/*--------------------------------*- C++ -*----------------------------------*\
| =========                 |                                                 |
| \\      /  F ield         | OpenFOAM: The Open Source CFD Toolbox           |
|  \\    /   O peration     | Version:  2206                                  |
|   \\  /    A nd           | Website:  www.openfoam.com                      |
|    \\/     M anipulation  |                                                 |
\*---------------------------------------------------------------------------*/
FoamFile
{
    version     2.0;
    format      ascii;
    arch        "LSB;label=32;scalar=64";
    class       volVectorField;
    location    "2.6";
    object      U;
}
// * * * * * * * * * * * * * * * * * * * * * * * * * * * * * * * * * * * * * //

dimensions      [0 1 -1 0 0 0 0];

internalField   nonuniform List<vector> 
13078
(
(6.931043e-06 -7.489762e-05 -1.203718e-27)
(2.81508e-07 -1.673544e-05 2.502884e-30)
(-9.204886e-07 -1.04578e-05 1.394298e-27)
(-1.113138e-06 -7.958189e-06 0)
(-1.21417e-06 -8.496399e-06 1.95988e-28)
(-1.338213e-06 -8.491853e-06 1.079669e-28)
(-1.494782e-06 -8.490316e-06 4.138278e-29)
(-2.210607e-05 -3.345303e-05 0)
(-1.606021e-05 -1.004542e-05 -1.344567e-29)
(-5.149319e-06 -5.076707e-06 0)
(-2.794287e-06 -6.898124e-06 0)
(-1.789763e-06 -7.916455e-06 -6.662924e-31)
(-1.498157e-06 -8.234106e-06 -9.698119e-32)
(-1.493851e-06 -8.415752e-06 1.45204e-31)
(1.93006e-05 -4.055474e-06 1.905018e-27)
(3.495982e-06 -2.631826e-06 -1.026753e-27)
(-1.118561e-06 -4.28337e-06 -3.53802e-28)
(-1.571144e-06 -5.957726e-06 -4.977487e-28)
(-1.341021e-06 -7.004772e-06 -1.572487e-28)
(-1.235405e-06 -7.632564e-06 0)
(-1.283574e-06 -8.064507e-06 1.434472e-34)
(1.481003e-05 -6.039519e-07 1.031227e-27)
(6.003032e-06 -7.481754e-07 -1.450596e-27)
(1.796187e-06 -2.974974e-06 -9.60499e-28)
(1.998145e-07 -4.707285e-06 -3.130205e-28)
(-2.936921e-07 -5.969064e-06 5.961069e-30)
(-5.702923e-07 -6.890729e-06 0)
(-8.137905e-07 -7.573318e-06 1.232227e-30)
(1.21982e-05 2.840832e-08 1.680602e-30)
(7.209876e-06 -3.192722e-07 -5.827153e-28)
(3.949626e-06 -2.005871e-06 -9.065573e-28)
(2.071113e-06 -3.677588e-06 -6.578669e-28)
(9.941909e-07 -5.069969e-06 3.324129e-28)
(3.766292e-07 -6.201554e-06 -8.74481e-33)
(-1.141689e-07 -7.083289e-06 8.638351e-30)
(1.126608e-05 4.97241e-08 0)
(8.218393e-06 -2.375275e-07 -4.566961e-30)
(5.612181e-06 -1.561029e-06 5.198007e-30)
(3.728202e-06 -3.05756e-06 -3.616705e-28)
(2.428022e-06 -4.470314e-06 -5.055749e-30)
(1.470212e-06 -5.681345e-06 5.553582e-30)
(7.568758e-07 -6.707367e-06 -7.630147e-29)
(1.096104e-05 -7.929596e-08 0)
(8.992546e-06 -4.134461e-07 -5.269723e-28)
(6.963228e-06 -1.513768e-06 -4.167978e-28)
(5.224839e-06 -2.822956e-06 3.282526e-29)
(3.819048e-06 -4.182131e-06 -3.211753e-28)
(2.692746e-06 -5.427985e-06 3.337201e-30)
(1.72186e-06 -6.500431e-06 0)
(1.107967e-05 -2.256355e-07 1.12793e-27)
(9.733555e-06 -6.882863e-07 -5.345329e-28)
(8.136637e-06 -1.692745e-06 -4.8466e-28)
(6.576837e-06 -2.905774e-06 0)
(5.156033e-06 -4.193333e-06 -7.217644e-28)
(3.915089e-06 -5.422267e-06 7.118487e-30)
(2.797454e-06 -6.53249e-06 1.135521e-29)
(1.152749e-05 -3.614573e-07 4.725359e-32)
(1.054407e-05 -9.928037e-07 1.116534e-27)
(9.24774e-06 -2.013131e-06 5.191171e-28)
(7.845753e-06 -3.186996e-06 4.100406e-30)
(6.448589e-06 -4.437032e-06 -1.611926e-27)
(5.137946e-06 -5.65166e-06 1.093363e-29)
(3.890455e-06 -6.773797e-06 0)
(1.22548e-05 -4.856111e-07 -1.228986e-27)
(1.148137e-05 -1.303908e-06 1.190389e-27)
(1.038226e-05 -2.410441e-06 5.592698e-28)
(9.09938e-06 -3.608604e-06 -1.01819e-27)
(7.729494e-06 -4.861879e-06 -3.139477e-31)
(6.367317e-06 -6.083982e-06 0)
(5.010283e-06 -7.224602e-06 0)
(1.323586e-05 -6.045179e-07 0)
(1.258079e-05 -1.622087e-06 0)
(1.160108e-05 -2.857768e-06 1.221042e-27)
(1.039591e-05 -4.133227e-06 -1.12414e-27)
(9.036576e-06 -5.434831e-06 4.292463e-31)
(7.623909e-06 -6.693933e-06 0)
(6.164457e-06 -7.869626e-06 0)
(1.446119e-05 -7.22452e-07 0)
(1.386817e-05 -1.951348e-06 -1.408614e-27)
(1.29511e-05 -3.349131e-06 1.343695e-27)
(1.178106e-05 -4.744882e-06 1.23125e-27)
(1.040906e-05 -6.135984e-06 -1.153353e-27)
(8.935472e-06 -7.464632e-06 0)
(7.370017e-06 -8.698532e-06 9.179154e-28)
(1.593404e-05 -8.435875e-07 0)
(1.5365e-05 -2.298831e-06 -1.560797e-27)
(1.446772e-05 -3.887028e-06 -1.226184e-29)
(1.329532e-05 -5.438788e-06 1.385162e-27)
(1.188556e-05 -6.956696e-06 -1.270277e-27)
(1.033238e-05 -8.388188e-06 1.133673e-27)
(8.649327e-06 -9.706349e-06 8.805068e-31)
(1.76658e-05 -9.717739e-07 -1.760638e-27)
(1.709363e-05 -2.672159e-06 0)
(1.618271e-05 -4.477647e-06 -1.472493e-29)
(1.497174e-05 -6.216756e-06 -2.049628e-29)
(1.350561e-05 -7.894416e-06 -2.848489e-27)
(1.184517e-05 -9.464193e-06 1.278175e-27)
(1.002771e-05 -1.089371e-05 -1.113276e-27)
(1.967475e-05 -1.109971e-06 -1.960328e-27)
(1.907963e-05 -3.078995e-06 0)
(1.813097e-05 -5.133526e-06 -3.456769e-29)
(1.685079e-05 -7.104324e-06 2.053043e-27)
(1.533237e-05 -8.935916e-06 -1.129107e-27)
(1.351018e-05 -1.069275e-05 0)
(1.153321e-05 -1.226553e-05 1.258711e-27)
(2.198474e-05 -1.26043e-06 0)
(2.134943e-05 -3.523263e-06 -2.143201e-27)
(2.034085e-05 -5.847474e-06 0)
(1.899456e-05 -8.046441e-06 2.003199e-27)
(1.733332e-05 -1.014353e-05 7.051759e-29)
(1.535286e-05 -1.209286e-05 8.544566e-29)
(1.319401e-05 -1.383463e-05 1.523909e-27)
(2.462535e-05 -1.426231e-06 0)
(2.39346e-05 -4.015333e-06 -4.800839e-27)
(2.284297e-05 -6.647067e-06 -2.310764e-29)
(2.138825e-05 -9.128989e-06 -3.186854e-29)
(1.957723e-05 -1.149055e-05 0)
(1.741061e-05 -1.367287e-05 0)
(1.50401e-05 -1.561535e-05 0)
(2.763181e-05 -1.609824e-06 -2.748154e-27)
(2.687157e-05 -4.561017e-06 -2.701188e-27)
(2.56771e-05 -7.536064e-06 -5.282956e-29)
(2.408571e-05 -1.033868e-05 -3.636589e-29)
(2.209873e-05 -1.299682e-05 0)
(1.97197e-05 -1.544898e-05 -2.164976e-27)
(1.710288e-05 -1.76261e-05 -2.569386e-28)
(3.104438e-05 -1.81345e-06 -3.087452e-27)
(3.02007e-05 -5.167256e-06 -3.033008e-27)
(2.888378e-05 -8.525773e-06 -9.001834e-29)
(2.712954e-05 -1.1689e-05 -8.263108e-29)
(2.492939e-05 -1.467875e-05 0)
(2.232799e-05 -1.743381e-05 -2.318446e-27)
(1.941559e-05 -1.988916e-05 -1.45295e-28)
(3.490845e-05 -2.039632e-06 -3.474133e-27)
(3.396708e-05 -5.841131e-06 -6.799251e-27)
(3.250942e-05 -9.628797e-06 -3.276364e-27)
(3.057373e-05 -1.320763e-05 0)
(2.812507e-05 -1.660947e-05 9.04277e-28)
(2.533641e-05 -1.961357e-05 1.375685e-27)
(2.202334e-05 -2.242139e-05 3.272875e-28)
(3.927434e-05 -2.290399e-06 -3.912606e-27)
(3.821958e-05 -6.588311e-06 -7.635225e-27)
(3.659959e-05 -1.084875e-05 -7.334348e-27)
(3.445954e-05 -1.486553e-05 -3.391389e-27)
(3.180485e-05 -1.86335e-05 1.333192e-28)
(2.864719e-05 -2.212235e-05 -2.901516e-27)
(2.49566e-05 -2.526426e-05 2.423387e-27)
(4.419819e-05 -2.568998e-06 0)
(4.301301e-05 -7.418763e-06 -4.275596e-27)
(4.120787e-05 -1.220872e-05 -4.105371e-27)
(3.882886e-05 -1.673081e-05 -7.874306e-27)
(3.589017e-05 -2.096676e-05 0)
(3.237295e-05 -2.490132e-05 -3.275272e-27)
(2.827151e-05 -2.844102e-05 4.447154e-30)
(4.974187e-05 -2.877717e-06 4.947796e-27)
(4.84085e-05 -8.339647e-06 0)
(4.63962e-05 -1.371786e-05 0)
(4.375048e-05 -1.880218e-05 1.302834e-28)
(4.048276e-05 -2.356527e-05 4.297736e-27)
(3.655376e-05 -2.798447e-05 0)
(3.203929e-05 -3.196791e-05 -3.33297e-27)
(5.597285e-05 -3.218988e-06 1.11344e-26)
(5.447207e-05 -9.357923e-06 0)
(5.223009e-05 -1.538804e-05 0)
(4.929253e-05 -2.110122e-05 4.841057e-27)
(4.567482e-05 -2.648244e-05 9.12396e-27)
(4.129055e-05 -3.153884e-05 -4.237191e-27)
(3.643152e-05 -3.583295e-05 0)
(6.29636e-05 -3.595058e-06 6.262171e-27)
(6.127426e-05 -1.048001e-05 3.718882e-29)
(5.877796e-05 -1.722791e-05 5.965305e-27)
(5.551796e-05 -2.362637e-05 1.680517e-28)
(5.15231e-05 -2.963688e-05 2.177134e-28)
(4.677805e-05 -3.520293e-05 -4.799338e-27)
(4.126572e-05 -4.027038e-05 0)
(7.079156e-05 -4.008028e-06 0)
(6.889153e-05 -1.171317e-05 -6.878436e-27)
(6.611553e-05 -1.92535e-05 6.642478e-27)
(6.250242e-05 -2.641848e-05 0)
(5.808198e-05 -3.316851e-05 -5.44091e-27)
(5.285026e-05 -3.943167e-05 1.137897e-27)
(4.672914e-05 -4.519006e-05 6.574545e-28)
(7.953776e-05 -4.458862e-06 -7.906315e-27)
(7.740614e-05 -1.306153e-05 -7.730278e-27)
(7.432535e-05 -2.147182e-05 7.459316e-27)
(7.033427e-05 -2.948056e-05 0)
(6.546115e-05 -3.704731e-05 -5.305712e-28)
(5.969334e-05 -4.409339e-05 -8.440759e-31)
(5.29209e-05 -5.061114e-05 7.35482e-28)
(8.928269e-05 -4.947828e-06 -8.875978e-27)
(8.690839e-05 -1.452197e-05 -8.672339e-27)
(8.349225e-05 -2.388587e-05 8.382672e-27)
(7.910013e-05 -3.281949e-05 0)
(7.375351e-05 -4.129061e-05 0)
(6.745033e-05 -4.925801e-05 -6.89962e-27)
(6.00339e-05 -5.680883e-05 -9.181016e-29)
(0.0001001084 -5.464369e-06 -9.968477e-27)
(9.748651e-05 -1.609251e-05 -9.789029e-27)
(9.370191e-05 -2.649641e-05 0)
(8.888637e-05 -3.643302e-05 8.445286e-27)
(8.303182e-05 -4.586914e-05 -6.589599e-28)
(7.614305e-05 -5.469149e-05 -1.478176e-26)
(6.815068e-05 -6.273225e-05 2.72124e-27)
(0.0001120745 -6.049719e-06 -1.114058e-26)
(0.000109291 -1.770134e-05 0)
(0.000105063 -2.927644e-05 -1.07415e-26)
(9.979803e-05 -4.033237e-05 9.784501e-27)
(9.341702e-05 -5.087522e-05 -9.471794e-27)
(8.588807e-05 -6.083197e-05 -1.754094e-26)
(7.708785e-05 -7.008839e-05 -7.922109e-27)
(0.0001254108 -6.578483e-06 0)
(0.0001221998 -1.949155e-05 0)
(0.0001176681 -3.221623e-05 -2.360298e-26)
(0.0001119466 -4.448642e-05 0)
(0.0001050522 -5.623716e-05 -2.130804e-26)
(9.694526e-05 -6.744432e-05 -9.897002e-27)
(8.749225e-05 -7.809453e-05 8.977761e-27)
(0.0001400376 -7.224385e-06 -1.398216e-26)
(0.0001363409 -2.146461e-05 1.348152e-26)
(0.0001317033 -3.51138e-05 1.305873e-26)
(0.0001255068 -4.876377e-05 0)
(0.0001180354 -6.187565e-05 -1.197829e-26)
(0.0001093938 -7.438577e-05 0)
(9.934195e-05 -8.627938e-05 7.696153e-27)
(0.0001560497 -7.833819e-06 -1.553216e-26)
(0.0001521245 -2.322093e-05 1.522948e-26)
(0.0001468018 -3.850027e-05 4.410867e-26)
(0.0001407538 -5.295735e-05 2.879507e-26)
(0.0001325187 -6.76958e-05 -1.244001e-26)
(0.0001233658 -8.17145e-05 1.182768e-27)
(0.0001126828 -9.516307e-05 -1.378741e-27)
(0.0001734148 -8.453513e-06 2.935437e-29)
(0.0001691268 -2.501978e-05 8.989145e-29)
(0.0001636712 -4.131006e-05 1.709335e-26)
(0.0001570293 -5.74695e-05 3.054632e-26)
(0.0001486656 -7.356001e-05 -1.720871e-26)
(0.0001390664 -8.928825e-05 2.590735e-27)
(0.0001278638 -0.0001045182 6.08041e-27)
(0.0001921293 -9.056953e-06 -3.144484e-29)
(0.0001874107 -2.683238e-05 -9.663615e-29)
(0.0001817689 -4.442054e-05 1.774061e-26)
(0.0001746484 -6.217235e-05 1.037562e-26)
(0.0001668708 -7.890083e-05 -1.074935e-26)
(0.0001568561 -9.67032e-05 1.31187e-26)
(0.0001450949 -0.0001140444 0)
(0.0002120756 -9.576027e-06 0)
(0.000206907 -2.83692e-05 0)
(0.000201199 -4.694912e-05 2.039468e-26)
(0.000194464 -6.566449e-05 2.166798e-26)
(0.0001860909 -8.495784e-05 3.033574e-26)
(0.0001773139 -0.0001033772 2.919404e-26)
(0.0001646819 -0.0001234641 0)
(0.0002330197 -9.966206e-06 -6.912595e-29)
(0.0002273687 -2.952357e-05 2.070581e-28)
(0.0002216347 -4.892308e-05 7.128885e-28)
(0.0002152946 -6.856084e-05 0)
(0.0002077437 -8.874036e-05 4.252293e-26)
(0.0001989768 -0.0001099968 -3.208966e-27)
(0.0001872525 -0.000132382 -7.748134e-27)
(0.0002545471 -1.013021e-05 -2.531794e-26)
(0.0002484322 -3.002954e-05 2.195245e-28)
(0.0002429003 -4.997663e-05 -2.469965e-26)
(0.000237304 -7.061798e-05 0)
(0.0002309064 -9.25253e-05 2.639372e-26)
(0.0002227148 -0.0001165101 1.682902e-27)
(0.0002142744 -0.000140099 -3.830565e-26)
(0.000275976 -9.94576e-06 -2.748766e-26)
(0.0002696992 -2.95721e-05 -2.699608e-26)
(0.0002647421 -4.970347e-05 -2.698044e-26)
(0.0002604144 -7.097823e-05 -2.110907e-27)
(0.0002559243 -9.397089e-05 -5.612536e-27)
(0.000250135 -0.0001190388 1.508249e-26)
(0.000243285 -0.000147229 -1.726024e-26)
(0.0002965042 -9.426768e-06 0)
(0.0002906684 -2.785915e-05 2.880775e-26)
(0.0002868404 -4.774818e-05 2.920017e-26)
(0.000284261 -6.94007e-05 1.06021e-27)
(0.0002823641 -9.353011e-05 -3.182586e-26)
(0.0002798469 -0.000121048 -3.636524e-27)
(0.0002752693 -0.0001533296 0)
(0.0003156135 -8.312603e-06 3.159322e-26)
(0.000310219 -2.544249e-05 6.135259e-26)
(0.0003084719 -4.356364e-05 2.902353e-26)
(0.0003084246 -6.497651e-05 6.309663e-26)
(0.000309726 -8.950171e-05 -3.461875e-26)
(0.0003117995 -0.0001180399 2.848295e-26)
(0.0003121036 -0.0001519832 -4.090586e-26)
(0.0003319121 -6.769838e-06 3.319221e-26)
(0.0003283276 -2.119327e-05 -1.760508e-28)
(0.0003277521 -3.794687e-05 0)
(0.0003318018 -5.685303e-05 8.465609e-28)
(0.0003372076 -8.105204e-05 6.912365e-26)
(0.0003434518 -0.0001109538 6.733311e-26)
(0.0003447164 -0.0001509034 -4.888681e-26)
(0.0003444922 -4.77406e-06 -3.449605e-26)
(0.0003431364 -1.564166e-05 2.729987e-28)
(0.0003452107 -2.91896e-05 5.132807e-28)
(0.0003514418 -4.613006e-05 -7.590586e-26)
(0.0003621843 -6.785807e-05 6.702665e-26)
(0.0003687633 -0.0001029787 3.162828e-26)
(0.0003638521 -0.0001548457 -9.177712e-27)
(0.0003522791 -2.333362e-06 -3.527769e-26)
(0.0003538131 -8.743963e-06 0)
(0.0003582771 -1.807462e-05 7.11827e-28)
(0.0003684606 -3.178088e-05 -1.006714e-27)
(0.0003772759 -5.706629e-05 7.229332e-27)
(0.000379626 -0.0001008139 2.06318e-26)
(0.0003670878 -0.0001696746 1.610653e-30)
(0.0003545941 4.246009e-07 0)
(0.0003589181 -5.280514e-07 1.590201e-28)
(0.0003656545 -4.81228e-06 7.436247e-28)
(0.0003769796 -1.87128e-05 -3.784918e-26)
(0.0003805767 -5.298577e-05 4.240653e-26)
(0.0003714536 -0.0001109072 6.430594e-27)
(0.0003524022 -0.0001879835 2.886729e-33)
(0.0003507352 3.380749e-06 0)
(0.0003569583 8.728306e-06 -1.281087e-30)
(0.000364349 7.610595e-06 1.485727e-32)
(0.0003713925 -1.225707e-05 -3.806684e-26)
(0.000367324 -5.947822e-05 3.763345e-26)
(0.0003501329 -0.0001300735 2.685186e-30)
(0.0003217251 -0.0002226684 -3.20899e-26)
(0.0003395782 6.747636e-06 -3.407835e-26)
(0.0003469788 1.726216e-05 2.392438e-28)
(0.0003518483 1.356883e-05 3.609716e-26)
(0.0003498072 -1.654122e-05 -3.423504e-26)
(0.0003378624 -7.534099e-05 7.885584e-27)
(0.0003127531 -0.0001584934 8.572415e-27)
(0.0002787708 -0.0002595216 4.090281e-26)
(0.0003200851 1.021447e-05 -3.213462e-26)
(0.0003265949 2.243655e-05 -4.000116e-31)
(0.0003260909 1.064764e-05 6.67159e-26)
(0.0003163531 -3.168942e-05 -3.233054e-26)
(0.000295544 -0.0001040621 -1.019886e-26)
(0.0002624178 -0.0001978683 -5.958221e-26)
(0.0002211372 -0.0003109085 -2.140471e-26)
(0.000291863 1.202672e-05 1.103125e-31)
(0.0002946608 2.170585e-05 1.014048e-30)
(0.0002882975 -4.545802e-07 2.947973e-26)
(0.0002728356 -5.540028e-05 2.778395e-26)
(0.0002450499 -0.0001393019 -1.277159e-30)
(0.0002050073 -0.0002461775 -1.272043e-26)
(0.000155187 -0.000373448 -8.053813e-26)
(0.0002553618 1.082446e-05 6.118144e-29)
(0.0002530899 1.425632e-05 6.375754e-29)
(0.00024131 -1.870667e-05 2.773039e-31)
(0.0002213574 -8.599591e-05 -2.25001e-27)
(0.0001889371 -0.0001830804 -4.771627e-27)
(0.0001444705 -0.0003042659 8.348261e-32)
(8.677994e-05 -0.000444652 6.507466e-27)
(0.0002110059 7.038666e-06 3.511147e-31)
(0.0002043335 1.688953e-07 2.259423e-31)
(0.00018941 -4.308154e-05 -3.879818e-26)
(0.0001663792 -0.0001216576 -3.921461e-26)
(0.0001307118 -0.0002321706 -5.927699e-27)
(8.274953e-05 -0.0003682054 -2.493216e-31)
(2.15783e-05 -0.0005235359 8.692101e-31)
(0.0001587254 6.10953e-07 -1.167689e-31)
(0.0001500368 -1.682868e-05 -5.793781e-32)
(0.0001349164 -7.056045e-05 -2.597406e-26)
(0.0001090236 -0.0001614449 -2.092434e-26)
(7.260281e-05 -0.0002871533 -3.435274e-27)
(2.379673e-05 -0.0004399477 8.868431e-26)
(-3.989944e-05 -0.0006089094 8.746143e-26)
(0.0001009891 -5.904875e-06 -1.185994e-31)
(9.252581e-05 -3.383828e-05 -1.666496e-31)
(7.744001e-05 -9.757933e-05 2.421087e-27)
(5.304775e-05 -0.0002003238 -2.264855e-27)
(1.92974e-05 -0.0003378759 -5.731539e-28)
(-2.524849e-05 -0.0005067104 -4.147685e-27)
(-8.13386e-05 -0.0006964791 -1.762889e-26)
(4.097471e-05 -1.172482e-05 -3.060767e-33)
(3.405632e-05 -4.935323e-05 1.158099e-32)
(2.159224e-05 -0.0001217855 -1.490356e-27)
(2.414191e-06 -0.0002343821 -2.751863e-27)
(-2.420112e-05 -0.0003831819 -4.754208e-32)
(-5.987741e-05 -0.0005644032 -3.639496e-27)
(-0.0001060327 -0.0007654233 1.525222e-26)
(-1.864821e-05 -1.651764e-05 8.842108e-28)
(-2.347025e-05 -6.198389e-05 1.185374e-27)
(-3.185686e-05 -0.0001408839 3.407366e-27)
(-4.44901e-05 -0.0002609759 3.164416e-27)
(-6.176841e-05 -0.0004182875 3.548144e-27)
(-8.490226e-05 -0.0006075958 9.542109e-27)
(-0.0001149699 -0.0008206107 2.538695e-26)
(-7.843063e-05 -1.98512e-05 3.878637e-27)
(-8.068839e-05 -7.055587e-05 4.085364e-27)
(-8.438626e-05 -0.000153295 4.929401e-27)
(-8.973133e-05 -0.0002775102 6.665609e-27)
(-9.637296e-05 -0.0004389768 5.414267e-27)
(-0.0001045633 -0.0006311931 1.505625e-26)
(-0.0001144199 -0.0008512864 2.61679e-26)
(-0.0001371246 -2.100987e-05 -1.192388e-28)
(-0.0001363976 -7.360089e-05 -3.789011e-27)
(-0.000135013 -0.0001575193 2.69357e-27)
(-0.0001327053 -0.0002822154 1.000112e-26)
(-0.0001284208 -0.0004430727 5.924572e-30)
(-0.0001214736 -0.0006334331 1.77063e-26)
(-0.0001099113 -0.0008514345 4.099327e-26)
(-0.0001908021 -1.961007e-05 5.395913e-29)
(-0.0001876596 -7.038588e-05 -4.055091e-27)
(-0.0001817758 -0.000152899 9.82921e-27)
(-0.0001726957 -0.0002747838 4.19711e-27)
(-0.0001588716 -0.0004310286 -3.787483e-27)
(-0.0001391818 -0.0006155118 6.593918e-27)
(-0.0001091973 -0.0008241839 2.691288e-27)
(-0.0002395533 -1.667576e-05 4.49085e-29)
(-0.0002350662 -6.306633e-05 1.767808e-28)
(-0.000225968 -0.0001418843 9.585027e-27)
(-0.000211642 -0.0002584368 5.208845e-27)
(-0.000190413 -0.0004075313 9.657572e-27)
(-0.0001611329 -0.0005834836 1.751194e-26)
(-0.0001177363 -0.0007794697 8.292246e-27)
(-0.0002837964 -1.281797e-05 -1.410686e-26)
(-0.0002786234 -5.322477e-05 -1.184559e-30)
(-0.0002677188 -0.0001266935 -1.612428e-26)
(-0.0002488663 -0.0002363311 1.298961e-27)
(-0.0002217799 -0.0003766844 -8.725249e-27)
(-0.0001850926 -0.0005420724 -2.503433e-26)
(-0.0001348203 -0.0007253385 4.28368e-26)
(-0.0003205926 -8.30765e-06 -1.602047e-26)
(-0.0003152492 -4.202018e-05 -4.417838e-28)
(-0.0003036207 -0.0001092556 -7.35189e-26)
(-0.0002828388 -0.0002096846 3.18455e-26)
(-0.0002530825 -0.000341673 -3.008526e-26)
(-0.0002134844 -0.0004951449 -1.790126e-25)
(-0.0001605542 -0.000659574 -1.170622e-25)
(-0.0003474486 -3.499502e-06 -1.543819e-30)
(-0.0003436731 -2.902717e-05 1.233195e-30)
(-0.0003323287 -8.736726e-05 -6.642704e-26)
(-0.0003138865 -0.0001798232 -3.875706e-26)
(-0.0002847823 -0.0003010696 -6.9146e-27)
(-0.0002458601 -0.0004435938 2.903478e-30)
(-0.0001949487 -0.0005977517 1.257356e-29)
(-0.0003643072 -4.23535e-07 -1.218881e-29)
(-0.0003646022 -1.847035e-05 8.768765e-29)
(-0.0003564 -7.011329e-05 1.228958e-30)
(-0.000341177 -0.000153326 -6.710554e-26)
(-0.0003138265 -0.0002631717 1.196599e-26)
(-0.0002752248 -0.0003941049 1.815506e-26)
(-0.0002238726 -0.0005373087 5.703039e-31)
(-0.0003723415 6.076541e-08 -9.609428e-32)
(-0.0003771244 -1.333253e-05 -1.043308e-28)
(-0.0003730805 -5.594968e-05 3.646107e-26)
(-0.0003607965 -0.0001283363 -3.560533e-26)
(-0.0003353031 -0.000226089 -1.016261e-26)
(-0.0002970363 -0.0003434234 1.268079e-26)
(-0.0002482257 -0.000474305 -1.034956e-29)
(-0.0003721937 -1.829321e-06 -3.700656e-26)
(-0.0003794877 -1.303032e-05 6.465694e-33)
(-0.0003797685 -4.59354e-05 9.324351e-28)
(-0.0003709348 -0.0001063841 3.899832e-26)
(-0.0003495532 -0.000193294 -1.462776e-30)
(-0.0003143999 -0.0002959375 6.033653e-26)
(-0.0002703128 -0.0004116653 1.661733e-29)
(-0.0003646933 -4.567374e-06 -3.627009e-26)
(-0.0003719923 -1.642645e-05 -4.261288e-28)
(-0.00037608 -4.08778e-05 -3.827663e-26)
(-0.0003724525 -8.939853e-05 1.021912e-25)
(-0.0003585128 -0.0001612165 -1.384393e-26)
(-0.0003287778 -0.0002540255 6.344898e-26)
(-0.0002878352 -0.0003577634 -2.732162e-26)
(-0.000351293 -6.803101e-06 0)
(-0.0003569064 -2.18824e-05 1.142776e-30)
(-0.0003627164 -4.200981e-05 -1.393648e-30)
(-0.0003663039 -7.842917e-05 1.037998e-25)
(-0.0003581791 -0.00013941 -6.483301e-27)
(-0.0003344753 -0.0002179208 2.25104e-26)
(-0.000296147 -0.0003107554 -4.272517e-26)
(-0.0003337088 -8.431426e-06 0)
(-0.0003376027 -2.624031e-05 -6.310925e-28)
(-0.0003424877 -4.714784e-05 -1.166628e-27)
(-0.0003488363 -7.640056e-05 -1.886632e-27)
(-0.0003460863 -0.0001227038 -2.958061e-27)
(-0.0003295376 -0.0001880287 -6.15521e-26)
(-0.0002985732 -0.0002642453 9.138884e-30)
(-0.000313582 -9.521312e-06 -3.117962e-26)
(-0.0003150862 -2.965117e-05 0)
(-0.0003180019 -5.207934e-05 0)
(-0.0003227337 -7.821887e-05 -3.176017e-26)
(-0.0003235905 -0.0001139033 1.000102e-26)
(-0.0003157712 -0.0001632123 -1.377451e-26)
(-0.0002919716 -0.0002300877 2.1518e-26)
(-0.0002915912 -1.026886e-05 -2.900642e-26)
(-0.0002910435 -3.149625e-05 -4.031952e-28)
(-0.0002918049 -5.460746e-05 -7.141045e-28)
(-0.0002933152 -8.044656e-05 -7.381173e-27)
(-0.0002950076 -0.0001090199 -4.84965e-27)
(-0.0002906422 -0.0001479458 7.239181e-27)
(-0.0002746448 -0.0001982568 9.790325e-27)
(-0.000268563 -1.057881e-05 0)
(-0.0002666173 -3.207707e-05 2.644111e-26)
(-0.0002653684 -5.507016e-05 0)
(-0.0002649509 -7.901325e-05 -2.036417e-27)
(-0.0002630913 -0.00010663 -2.763318e-27)
(-0.0002589492 -0.0001377639 -1.797549e-26)
(-0.0002487815 -0.0001740242 -1.491844e-26)
(-0.0002454083 -1.05287e-05 0)
(-0.0002425007 -3.169908e-05 -2.387664e-26)
(-0.0002403576 -5.303856e-05 2.36407e-26)
(-0.0002374073 -7.640215e-05 0)
(-0.0002332441 -0.0001013857 -5.219277e-27)
(-0.0002275157 -0.0001274265 8.44175e-27)
(-0.0002176171 -0.0001560399 -2.860096e-26)
(-0.0002227852 -1.021762e-05 0)
(-0.0002198265 -3.009228e-05 -6.524358e-26)
(-0.0002165032 -5.064267e-05 -3.545154e-29)
(-0.0002122877 -7.198131e-05 -4.496068e-26)
(-0.0002069292 -9.372403e-05 -4.968361e-27)
(-0.0001991612 -0.0001169493 1.890114e-26)
(-0.0001883263 -0.0001412807 -2.734831e-26)
(-0.0002014752 -9.552696e-06 2.005877e-26)
(-0.0001984354 -2.835118e-05 -2.00439e-26)
(-0.0001946951 -4.721975e-05 8.633753e-30)
(-0.0001900018 -6.632632e-05 -3.597041e-26)
(-0.0001836657 -8.5751e-05 0)
(-0.0001753091 -0.0001052657 0)
(-0.0001648 -0.0001246443 -2.211655e-26)
(-0.0001816288 -8.823823e-06 1.802595e-26)
(-0.0001787169 -2.620975e-05 -1.791788e-26)
(-0.0001748915 -4.353874e-05 1.725209e-26)
(-0.0001700314 -6.061565e-05 1.663092e-26)
(-0.000163376 -7.805275e-05 0)
(-0.0001548252 -9.559872e-05 0)
(-0.0001451807 -0.000111107 -1.815714e-26)
(-0.0001634127 -8.055931e-06 -1.628336e-26)
(-0.0001606822 -2.393176e-05 -1.658594e-26)
(-0.0001570275 -3.951631e-05 -5.400166e-28)
(-0.0001520397 -5.510639e-05 1.412774e-26)
(-0.0001454541 -7.058937e-05 5.545651e-27)
(-0.0001376065 -8.507388e-05 -1.882511e-26)
(-0.0001276944 -9.975271e-05 9.034942e-27)
(-0.000146906 -7.281507e-06 -1.469001e-26)
(-0.0001444254 -2.159557e-05 -1.524671e-28)
(-0.0001408499 -3.577741e-05 5.015128e-28)
(-0.0001360214 -4.974998e-05 7.055086e-28)
(-0.0001297979 -6.355715e-05 0)
(-0.000122324 -7.65765e-05 -1.342641e-26)
(-0.000113095 -8.949707e-05 1.068692e-26)
(-0.0001320245 -6.591742e-06 0)
(-0.0001297574 -1.946755e-05 -2.745868e-28)
(-0.0001263098 -3.2327e-05 -4.618897e-28)
(-0.0001215461 -4.510431e-05 2.821066e-26)
(-0.0001160531 -5.687016e-05 6.10935e-27)
(-0.0001086735 -6.894688e-05 1.890999e-26)
(-0.0001003857 -8.022792e-05 7.220151e-27)
(-0.0001186863 -5.922813e-06 -4.131468e-29)
(-0.0001165409 -1.752564e-05 -1.268339e-28)
(-0.0001132871 -2.902064e-05 0)
(-0.0001090094 -4.03087e-05 -3.379083e-29)
(-0.0001033894 -5.136364e-05 1.010852e-26)
(-9.679198e-05 -6.193448e-05 9.387593e-27)
(-8.914522e-05 -7.191821e-05 -2.115302e-27)
(-0.0001067072 -5.345045e-06 1.063184e-26)
(-0.0001046726 -1.582248e-05 -1.07142e-26)
(-0.000101521 -2.63236e-05 1.826241e-26)
(-9.77355e-05 -3.621672e-05 -2.156606e-26)
(-9.237306e-05 -4.620423e-05 8.390396e-27)
(-8.630856e-05 -5.557943e-05 0)
(-7.919321e-05 -6.443942e-05 1.914497e-27)
(-9.592742e-05 -4.83324e-06 9.611399e-27)
(-9.393271e-05 -1.433413e-05 -9.264376e-27)
(-9.12103e-05 -2.353902e-05 8.960499e-27)
(-8.736735e-05 -3.273894e-05 0)
(-8.260123e-05 -4.154527e-05 -8.180141e-27)
(-7.699313e-05 -4.989154e-05 0)
(-7.040046e-05 -5.776597e-05 6.93329e-27)
(-8.624994e-05 -4.343294e-06 0)
(-8.447705e-05 -1.283326e-05 0)
(-8.177974e-05 -2.130338e-05 -1.630486e-26)
(-7.82524e-05 -2.949073e-05 0)
(-7.390219e-05 -3.7335e-05 -1.470901e-26)
(-6.869765e-05 -4.480418e-05 -6.832681e-27)
(-6.254732e-05 -5.188753e-05 6.205649e-27)
(-7.753063e-05 -3.962143e-06 -7.741649e-27)
(-7.59525e-05 -1.155044e-05 0)
(-7.34017e-05 -1.919097e-05 -7.191935e-27)
(-7.015333e-05 -2.651731e-05 7.220269e-27)
(-6.614051e-05 -3.352691e-05 -6.61256e-27)
(-6.132723e-05 -4.016012e-05 -1.227399e-26)
(-5.561795e-05 -4.633723e-05 -5.564351e-27)
(-6.976116e-05 -3.564987e-06 -6.954418e-27)
(-6.821519e-05 -1.044794e-05 -6.785921e-27)
(-6.590478e-05 -1.7281e-05 0)
(-6.291836e-05 -2.383737e-05 6.67048e-27)
(-5.923182e-05 -3.00957e-05 4.545007e-28)
(-5.482872e-05 -3.597241e-05 -1.1588e-26)
(-4.964487e-05 -4.134976e-05 -1.894734e-27)
(-6.275533e-05 -3.225538e-06 -6.270768e-27)
(-6.131274e-05 -9.408863e-06 -6.138679e-27)
(-5.919715e-05 -1.554333e-05 5.948329e-27)
(-5.645127e-05 -2.142369e-05 0)
(-5.306948e-05 -2.703441e-05 0)
(-4.902928e-05 -3.234273e-05 -4.960101e-27)
(-4.420764e-05 -3.740403e-05 8.8261e-27)
(-5.64531e-05 -2.911069e-06 -5.641231e-27)
(-5.512404e-05 -8.463418e-06 -5.527861e-27)
(-5.318782e-05 -1.396953e-05 5.350356e-27)
(-5.066912e-05 -1.92355e-05 0)
(-4.756672e-05 -2.424337e-05 3.67904e-28)
(-4.38513e-05 -2.893678e-05 6.13956e-31)
(-3.943398e-05 -3.330888e-05 -5.146604e-28)
(-5.078878e-05 -2.624748e-06 0)
(-4.957834e-05 -7.601647e-06 -4.973577e-27)
(-4.780944e-05 -1.254169e-05 4.819555e-27)
(-4.550722e-05 -1.725247e-05 0)
(-4.267271e-05 -2.171872e-05 -4.669174e-27)
(-3.928387e-05 -2.589003e-05 -7.953662e-28)
(-3.527524e-05 -2.975446e-05 -4.618062e-28)
(-4.570678e-05 -2.364119e-06 4.56995e-27)
(-4.461147e-05 -6.818839e-06 -2.580114e-29)
(-4.30009e-05 -1.124695e-05 4.294535e-27)
(-4.090423e-05 -1.545613e-05 -1.16965e-28)
(-3.832373e-05 -1.943331e-05 -1.447737e-28)
(-3.523038e-05 -2.31395e-05 -3.601227e-27)
(-3.160259e-05 -2.654007e-05 0)
(-4.11529e-05 -2.127123e-06 8.228685e-27)
(-4.016687e-05 -6.10799e-06 0)
(-3.870517e-05 -1.007399e-05 0)
(-3.67998e-05 -1.383595e-05 3.841146e-27)
(-3.444671e-05 -1.739746e-05 7.159276e-27)
(-3.157124e-05 -2.076381e-05 -3.230339e-27)
(-2.836096e-05 -2.363578e-05 0)
(-3.707835e-05 -1.911699e-06 3.706452e-27)
(-3.619458e-05 -5.462126e-06 -2.07714e-29)
(-3.48719e-05 -9.008407e-06 -3.411046e-29)
(-3.31435e-05 -1.235991e-05 -9.610056e-29)
(-3.100487e-05 -1.551213e-05 3.044552e-27)
(-2.841737e-05 -1.84504e-05 0)
(-2.541685e-05 -2.111107e-05 -2.624333e-27)
(-3.343859e-05 -1.716028e-06 -3.16521e-30)
(-3.264996e-05 -4.876088e-06 -3.308588e-27)
(-3.145686e-05 -8.043168e-06 -3.209812e-27)
(-2.989428e-05 -1.10277e-05 -6.076311e-27)
(-2.79617e-05 -1.383158e-05 0)
(-2.563705e-05 -1.644549e-05 -2.588514e-27)
(-2.290066e-05 -1.880385e-05 3.186742e-30)
(-3.019277e-05 -1.538543e-06 -3.014785e-27)
(-2.949168e-05 -4.345193e-06 -5.932938e-27)
(-2.841798e-05 -7.170098e-06 -5.769918e-27)
(-2.700724e-05 -9.824448e-06 -2.81882e-27)
(-2.52544e-05 -1.231924e-05 -9.454869e-29)
(-2.316147e-05 -1.463462e-05 -2.338207e-27)
(-2.069336e-05 -1.672322e-05 2.271314e-27)
(-2.730354e-05 -1.377812e-06 -2.727582e-27)
(-2.66818e-05 -3.864934e-06 -5.358471e-27)
(-2.571586e-05 -6.383462e-06 -2.597063e-27)
(-2.443776e-05 -8.751528e-06 0)
(-2.281753e-05 -1.100601e-05 -6.393534e-28)
(-2.096703e-05 -1.299581e-05 -9.783803e-28)
(-1.874568e-05 -1.485962e-05 -2.346018e-28)
(-2.473696e-05 -1.231936e-06 -2.472845e-27)
(-2.418629e-05 -3.429338e-06 -2.42066e-27)
(-2.331626e-05 -5.668635e-06 6.411723e-29)
(-2.215796e-05 -7.763947e-06 5.88587e-29)
(-2.070146e-05 -9.745129e-06 0)
(-1.896974e-05 -1.157107e-05 -1.947882e-27)
(-1.701712e-05 -1.319736e-05 1.044997e-28)
(-2.246244e-05 -1.099835e-06 -2.244044e-27)
(-2.197482e-05 -3.035412e-06 -2.198817e-27)
(-2.119043e-05 -5.024554e-06 3.776297e-29)
(-2.01418e-05 -6.883313e-06 2.598365e-29)
(-1.88272e-05 -8.645734e-06 0)
(-1.724187e-05 -1.027025e-05 -1.68899e-27)
(-1.548721e-05 -1.171004e-05 1.853545e-28)
(-2.04521e-05 -9.800857e-07 1.77714e-30)
(-2.001912e-05 -2.679148e-06 -4.008495e-27)
(-1.930847e-05 -4.443684e-06 1.656802e-29)
(-1.835332e-05 -6.091843e-06 2.283434e-29)
(-1.715672e-05 -7.658713e-06 0)
(-1.571317e-05 -9.104411e-06 0)
(-1.412404e-05 -1.038813e-05 0)
(-1.86809e-05 -8.714378e-07 0)
(-1.829359e-05 -2.356559e-06 -1.832422e-27)
(-1.76441e-05 -3.919466e-06 0)
(-1.676405e-05 -5.3818e-06 1.660172e-27)
(-1.566897e-05 -6.774418e-06 -5.072966e-29)
(-1.435065e-05 -8.066684e-06 -6.17097e-29)
(-1.290432e-05 -9.218403e-06 1.266036e-27)
(-1.712675e-05 -7.724676e-07 -1.706518e-27)
(-1.677509e-05 -2.064277e-06 0)
(-1.617186e-05 -3.450067e-06 2.491057e-29)
(-1.534017e-05 -4.763497e-06 1.329162e-27)
(-1.43425e-05 -5.980605e-06 -1.799645e-27)
(-1.312951e-05 -7.148002e-06 0)
(-1.180579e-05 -8.190228e-06 1.224904e-27)
(-1.577089e-05 -6.81339e-07 -1.5702e-27)
(-1.544325e-05 -1.795954e-06 0)
(-1.487116e-05 -3.017823e-06 1.065066e-29)
(-1.408905e-05 -4.178879e-06 1.479425e-29)
(-1.312608e-05 -5.297667e-06 -2.682487e-27)
(-1.202273e-05 -6.343798e-06 1.239866e-27)
(-1.08066e-05 -7.295343e-06 -1.125161e-27)
(-1.459791e-05 -5.967287e-07 0)
(-1.428102e-05 -1.549488e-06 -1.424329e-27)
(-1.3724e-05 -2.628404e-06 8.903399e-30)
(-1.297051e-05 -3.667092e-06 1.314703e-27)
(-1.204491e-05 -4.683104e-06 -1.235404e-27)
(-1.101262e-05 -5.642263e-06 1.140311e-27)
(-9.886055e-06 -6.526534e-06 6.54846e-31)
(-1.359562e-05 -5.167493e-07 0)
(-1.327173e-05 -1.319958e-06 -1.330115e-27)
(-1.270721e-05 -2.273412e-06 1.286362e-27)
(-1.195649e-05 -3.210485e-06 1.228305e-27)
(-1.105427e-05 -4.146674e-06 -1.128678e-27)
(-1.007248e-05 -5.044609e-06 3.343723e-29)
(-9.022814e-06 -5.882254e-06 9.515169e-28)
(-1.275579e-05 -4.391325e-07 0)
(-1.240129e-05 -1.102534e-06 0)
(-1.180037e-05 -1.948253e-06 1.201406e-27)
(-1.102485e-05 -2.807387e-06 -1.134362e-27)
(-1.012616e-05 -3.690287e-06 3.231497e-31)
(-9.179327e-06 -4.552e-06 0)