/*--------------------------------*- C++ -*----------------------------------*\
| =========                 |                                                 |
| \\      /  F ield         | OpenFOAM: The Open Source CFD Toolbox           |
|  \\    /   O peration     | Version:  2206                                  |
|   \\  /    A nd           | Website:  www.openfoam.com                      |
|    \\/     M anipulation  |                                                 |
\*---------------------------------------------------------------------------*/
FoamFile
{
    version     2.0;
    format      ascii;
    arch        "LSB;label=32;scalar=64";
    class       volVectorField;
    location    "2.6";
    object      U.a;
}
// * * * * * * * * * * * * * * * * * * * * * * * * * * * * * * * * * * * * * //

dimensions      [0 1 -1 0 0 0 0];

internalField   nonuniform List<vector> 
13078
(
(1.988893e-05 -0.0001906887 4.12784e-27)
(3.589494e-06 -7.865883e-05 2.634533e-32)
(3.970828e-07 -4.082199e-05 -8.238137e-29)
(-9.501838e-08 -2.359149e-05 0)
(-2.422817e-07 -1.711489e-05 -1.208363e-29)
(-3.162905e-07 -1.347747e-05 -1.156652e-29)
(-3.727617e-07 -1.077467e-05 -1.160459e-29)
(-6.365063e-05 -6.536799e-05 0)
(-3.362239e-05 -5.102894e-05 -7.181254e-32)
(-1.14057e-05 -3.024917e-05 0)
(-4.83584e-06 -2.09073e-05 0)
(-2.642993e-06 -1.624267e-05 -3.85594e-34)
(-1.734898e-06 -1.30241e-05 -2.341361e-35)
(-1.286477e-06 -1.050885e-05 2.947719e-34)
(-1.933559e-05 -1.413592e-05 2.299378e-30)
(-1.687829e-05 -2.089108e-05 -1.560116e-31)
(-1.018993e-05 -1.927512e-05 1.544841e-29)
(-6.155395e-06 -1.661785e-05 2.404583e-29)
(-3.930022e-06 -1.402597e-05 1.154238e-29)
(-2.69502e-06 -1.170171e-05 0)
(-1.990211e-06 -9.66645e-06 -6.611671e-35)
(-6.097766e-06 -5.159431e-06 7.204951e-32)
(-8.481174e-06 -1.021852e-05 4.436764e-31)
(-7.468624e-06 -1.240388e-05 2.049243e-30)
(-5.677074e-06 -1.241761e-05 1.355422e-30)
(-4.155211e-06 -1.13465e-05 4.488699e-33)
(-3.094328e-06 -9.934124e-06 0)
(-2.391124e-06 -8.457444e-06 7.524806e-34)
(-2.355474e-06 -2.550453e-06 -2.960508e-31)
(-4.711216e-06 -5.961799e-06 -7.725486e-31)
(-5.115467e-06 -8.14715e-06 5.578655e-31)
(-4.577699e-06 -8.961525e-06 -2.566781e-31)
(-3.800221e-06 -8.815716e-06 -1.384782e-29)
(-3.081658e-06 -8.096135e-06 -2.95761e-35)
(-2.523569e-06 -7.101819e-06 1.164824e-29)
(-1.052743e-06 -1.548746e-06 0)
(-2.692616e-06 -3.718093e-06 7.401781e-31)
(-3.435702e-06 -5.461555e-06 -7.464682e-31)
(-3.497534e-06 -6.410655e-06 6.004952e-31)
(-3.223135e-06 -6.659603e-06 1.497545e-30)
(-2.843741e-06 -6.394394e-06 -1.176582e-29)
(-2.473361e-06 -5.76164e-06 -2.338068e-29)
(-5.501544e-07 -1.080231e-06 0)
(-1.634665e-06 -2.475488e-06 4.437074e-31)
(-2.339193e-06 -3.759042e-06 -1.143569e-29)
(-2.634982e-06 -4.594239e-06 -1.199362e-29)
(-2.650782e-06 -4.955389e-06 2.10734e-30)
(-2.516065e-06 -4.900645e-06 1.485255e-30)
(-2.325438e-06 -4.51883e-06 0)
(-3.297784e-07 -8.224281e-07 -7.263813e-31)
(-1.066222e-06 -1.733931e-06 4.397172e-31)
(-1.652984e-06 -2.651235e-06 4.909335e-31)
(-2.015859e-06 -3.311017e-06 0)
(-2.175414e-06 -3.646997e-06 1.271277e-30)
(-2.195815e-06 -3.658374e-06 1.490141e-30)
(-2.140429e-06 -3.394899e-06 1.488781e-30)
(-2.21223e-07 -6.623004e-07 3.236714e-32)
(-7.500649e-07 -1.256434e-06 -9.187625e-31)
(-1.228512e-06 -1.904705e-06 1.000186e-30)
(-1.588641e-06 -2.385824e-06 1.508335e-30)
(-1.813263e-06 -2.640037e-06 3.931484e-30)
(-1.926219e-06 -2.644357e-06 1.492639e-30)
(-1.964783e-06 -2.418924e-06 0)
(-1.637746e-07 -5.533106e-07 6.983501e-31)
(-5.700001e-07 -9.26659e-07 -8.602672e-31)
(-9.677979e-07 -1.373052e-06 -4.5352e-31)
(-1.304747e-06 -1.697019e-06 1.602726e-30)
(-1.554438e-06 -1.852921e-06 -3.883865e-32)
(-1.720178e-06 -1.812911e-06 0)
(-1.821713e-06 -1.581695e-06 0)
(-1.324594e-07 -4.736929e-07 0)
(-4.674301e-07 -6.84441e-07 0)
(-8.109039e-07 -9.748751e-07 -9.031196e-31)
(-1.123851e-06 -1.165289e-06 1.515129e-30)
(-1.38105e-06 -1.222714e-06 4.032205e-32)
(-1.57665e-06 -1.121358e-06 0)
(-1.719986e-06 -8.588067e-07 0)
(-1.160239e-07 -4.121411e-07 0)
(-4.113944e-07 -4.964447e-07 8.089811e-31)
(-7.215987e-07 -6.61751e-07 -8.025472e-31)
(-1.016901e-06 -7.385087e-07 -3.033336e-30)
(-1.275787e-06 -7.03061e-07 -4.557297e-31)
(-1.489279e-06 -5.338721e-07 0)
(-1.661141e-06 -2.259729e-07 1.84624e-30)
(-1.088175e-07 -3.617597e-07 0)
(-3.850898e-07 -3.427463e-07 -7.947623e-31)
(-6.781782e-07 -4.038997e-07 -1.492776e-30)
(-9.640201e-07 -3.82012e-07 -1.40154e-30)
(-1.224654e-06 -2.603128e-07 1.02303e-30)
(-1.450717e-06 -2.186679e-08 -1.036749e-30)
(-1.643567e-06 3.387065e-07 3.908883e-32)
(-1.077147e-07 -3.185299e-07 5.313582e-31)
(-3.791925e-07 -2.110692e-07 0)
(-6.674428e-07 -1.81917e-07 -1.493711e-30)
(-9.518561e-07 -7.21324e-08 -1.520183e-30)
(-1.21712e-06 1.299619e-07 1.874505e-30)
(-1.454331e-06 4.371459e-07 -9.197326e-31)
(-1.664512e-06 8.541315e-07 9.92766e-31)
(-1.110205e-07 -2.797463e-07 3.988081e-31)
(-3.881758e-07 -9.326007e-08 0)
(-6.807327e-07 1.715395e-08 -2.985329e-30)
(-9.668137e-07 2.074631e-07 2.055634e-29)
(-1.239532e-06 4.858181e-07 2.526793e-29)
(-1.493642e-06 8.611834e-07 0)
(-1.721196e-06 1.336547e-06 -9.569297e-31)
(-1.17785e-07 -2.435174e-07 0)
(-4.092878e-07 1.651725e-08 3.946377e-31)
(-7.15653e-07 2.029438e-07 0)
(-1.014972e-06 4.683288e-07 2.526779e-30)
(-1.300904e-06 8.19113e-07 3.072386e-30)
(-1.56855e-06 1.264074e-06 3.038499e-30)
(-1.812421e-06 1.799658e-06 2.206972e-30)
(-1.274352e-07 -2.083979e-07 0)
(-4.40339e-07 1.22612e-07 4.16845e-31)
(-7.669945e-07 3.825238e-07 -1.491288e-30)
(-1.084391e-06 7.214837e-07 -1.504866e-30)
(-1.388535e-06 1.14496e-06 0)
(-1.674374e-06 1.658833e-06 0)
(-1.936626e-06 2.255982e-06 0)
(-1.397981e-07 -1.733531e-07 6.372958e-31)
(-4.806937e-07 2.283706e-07 -7.497258e-31)
(-8.342305e-07 5.616883e-07 -2.985252e-30)
(-1.175845e-06 9.744437e-07 -1.507215e-30)
(-1.502987e-06 1.471612e-06 0)
(-1.810748e-06 2.05591e-06 -2.485817e-30)
(-2.093766e-06 2.716809e-06 -6.099522e-30)
(-1.548415e-07 -1.374003e-07 4.11574e-31)
(-5.301529e-07 3.367299e-07 -9.073651e-31)
(-9.170894e-07 7.453725e-07 -4.482361e-30)
(-1.288971e-06 1.234101e-06 -3.019756e-30)
(-1.644244e-06 1.807217e-06 0)
(-1.978084e-06 2.464715e-06 3.561529e-31)
(-2.284748e-06 3.192727e-06 -3.061767e-30)
(-1.726574e-07 -9.968227e-08 -3.294208e-31)
(-5.889446e-07 4.503384e-07 -8.892373e-31)
(-1.01588e-06 9.379853e-07 -3.766846e-31)
(-1.42341e-06 1.506395e-06 0)
(-1.806268e-06 2.156611e-06 2.469635e-29)
(-2.169653e-06 2.890807e-06 3.118746e-29)
(-2.509807e-06 3.693791e-06 6.168954e-30)
(-1.934134e-07 -5.928403e-08 -1.203024e-30)
(-6.578021e-07 5.718445e-07 -7.200547e-31)
(-1.132232e-06 1.143924e-06 1.328341e-31)
(-1.583851e-06 1.797567e-06 2.457241e-30)
(-2.006921e-06 2.528485e-06 3.064198e-30)
(-2.405722e-06 3.344926e-06 9.453233e-31)
(-2.776187e-06 4.229923e-06 -3.331145e-30)
(-2.174347e-07 -1.547134e-08 0)
(-7.375951e-07 7.036589e-07 3.931061e-31)
(-1.267001e-06 1.367347e-06 4.693994e-31)
(-1.768849e-06 2.113443e-06 -1.774692e-30)
(-2.236407e-06 2.936102e-06 0)
(-2.676758e-06 3.842814e-06 6.354014e-31)
(-3.083861e-06 4.812248e-06 6.375208e-32)
(-2.451211e-07 3.256571e-08 1.133283e-30)
(-8.29464e-07 8.481409e-07 0)
(-1.422197e-06 1.6122e-06 0)
(-1.981716e-06 2.459685e-06 2.964427e-30)
(-2.50041e-06 3.382898e-06 4.030363e-30)
(-2.987576e-06 4.387729e-06 0)
(-3.436283e-06 5.449082e-06 -2.979042e-31)
(-2.768926e-07 8.563089e-08 3.019744e-30)
(-9.348672e-07 1.007683e-06 0)
(-1.600085e-06 1.882487e-06 0)
(-2.225345e-06 2.841712e-06 -1.394159e-30)
(-2.801134e-06 3.875316e-06 -3.299987e-31)
(-3.332184e-06 4.980909e-06 -9.673034e-31)
(-3.826571e-06 6.141988e-06 0)
(-3.133697e-07 1.444812e-07 1.935101e-30)
(-1.055622e-06 1.184708e-06 1.490638e-30)
(-1.803635e-06 2.182367e-06 3.69253e-30)
(-2.503952e-06 3.265364e-06 3.051218e-30)
(-3.146436e-06 4.420622e-06 3.155812e-30)
(-3.736303e-06 5.634547e-06 -1.406111e-30)
(-4.280295e-06 6.904601e-06 0)
(-3.552162e-07 2.099587e-07 0)
(-1.193756e-06 1.381652e-06 -2.835715e-30)
(-2.035816e-06 2.515979e-06 2.78457e-30)
(-2.820284e-06 3.736342e-06 0)
(-3.535414e-06 5.026047e-06 3.884528e-30)
(-4.186631e-06 6.367573e-06 1.264605e-29)
(-4.784785e-06 7.757624e-06 6.584195e-30)
(-4.034618e-07 2.828782e-07 -2.808291e-30)
(-1.352137e-06 1.601071e-06 -3.532171e-30)
(-2.300844e-06 2.887756e-06 3.285531e-30)
(-3.179481e-06 4.260956e-06 0)
(-3.974156e-06 5.699704e-06 -6.235831e-30)
(-4.690806e-06 7.181984e-06 -7.163047e-34)
(-5.344749e-06 8.702469e-06 6.647462e-30)
(-4.592887e-07 3.641567e-07 -3.438754e-30)
(-1.534301e-06 1.8456e-06 -4.104571e-30)
(-2.604546e-06 3.302584e-06 4.033698e-30)
(-3.588671e-06 4.84642e-06 0)
(-4.470387e-06 6.451315e-06 0)
(-5.255548e-06 8.089586e-06 -2.950954e-30)
(-5.955446e-06 9.742652e-06 -5.068391e-29)
(-5.250542e-07 4.546012e-07 -5.179096e-30)
(-1.74614e-06 2.117976e-06 -6.471994e-30)
(-2.955022e-06 3.765515e-06 0)
(-4.057721e-06 5.500655e-06 -1.832583e-30)
(-5.035783e-06 7.29198e-06 -6.315608e-30)
(-5.897949e-06 9.105335e-06 -7.798439e-31)
(-6.661242e-06 1.090862e-05 1.976941e-29)
(-5.994831e-07 5.541039e-07 -4.771986e-30)
(-1.988766e-06 2.417125e-06 0)
(-3.361383e-06 4.281164e-06 -8.526092e-30)
(-4.598869e-06 6.231555e-06 2.143209e-30)
(-5.682668e-06 8.232365e-06 -4.746822e-30)
(-6.624839e-06 1.024255e-05 -8.582093e-30)
(-7.447527e-06 1.222609e-05 -3.648733e-30)
(-6.897587e-07 6.590821e-07 0)
(-2.281353e-06 2.746283e-06 0)
(-3.840411e-06 4.852399e-06 -1.28486e-29)
(-5.229629e-06 7.045494e-06 0)
(-6.429251e-06 9.282885e-06 -1.127114e-29)
(-7.455008e-06 1.151617e-05 -5.132704e-30)
(-8.334966e-06 1.370395e-05 4.398675e-30)
(-8.029613e-07 7.770192e-07 -8.881453e-30)
(-2.625392e-06 3.101779e-06 5.107802e-30)
(-4.397683e-06 5.470605e-06 5.981129e-30)
(-5.969873e-06 7.945889e-06 0)
(-7.298945e-06 1.04519e-05 -6.637748e-30)
(-8.411771e-06 1.293734e-05 0)
(-9.348249e-06 1.535365e-05 -8.126742e-30)
(-9.448833e-07 9.035752e-07 -7.579325e-30)
(-3.045731e-06 3.478334e-06 9.314543e-30)
(-5.064234e-06 6.131177e-06 2.499905e-29)
(-6.838703e-06 8.917246e-06 2.048739e-29)
(-8.319249e-06 1.174316e-05 -9.529936e-31)
(-9.520239e-06 1.451554e-05 6.669998e-30)
(-1.050077e-05 1.71901e-05 -6.80557e-30)
(-1.123358e-06 1.035492e-06 1.139378e-30)
(-3.574073e-06 3.889392e-06 1.491374e-30)
(-5.884397e-06 6.839061e-06 1.644886e-29)
(-7.896039e-06 9.973612e-06 1.020679e-29)
(-9.530772e-06 1.315853e-05 -2.216895e-29)
(-1.080895e-05 1.62584e-05 1.350011e-29)
(-1.181e-05 1.922344e-05 2.760057e-29)
(-1.347054e-06 1.166568e-06 -1.137028e-30)
(-4.220883e-06 4.311679e-06 -1.491862e-30)
(-6.883082e-06 7.604685e-06 5.413838e-30)
(-9.140098e-06 1.110347e-05 -4.731391e-29)
(-1.093398e-05 1.467832e-05 -6.766477e-29)
(-1.228377e-05 1.817456e-05 -4.574239e-30)
(-1.327797e-05 2.146582e-05 0)
(-1.621817e-06 1.290914e-06 0)
(-4.996435e-06 4.73056e-06 0)
(-8.058307e-06 8.400352e-06 1.313486e-29)
(-1.057774e-05 1.22969e-05 2.549499e-29)
(-1.251365e-05 1.631102e-05 8.008898e-29)
(-1.391142e-05 2.024985e-05 6.746545e-29)
(-1.487364e-05 2.392285e-05 0)
(-1.944747e-06 1.400816e-06 -2.262561e-30)
(-5.877031e-06 5.138365e-06 2.976614e-30)
(-9.347344e-06 9.237726e-06 6.187687e-30)
(-1.212502e-05 1.362819e-05 0)
(-1.420352e-05 1.810782e-05 2.74173e-29)
(-1.56559e-05 2.252255e-05 -1.450399e-29)
(-1.65911e-05 2.657386e-05 -2.923286e-29)
(-2.299082e-06 1.501976e-06 -1.086456e-29)
(-6.780389e-06 5.563004e-06 2.978557e-30)
(-1.062185e-05 1.015882e-05 -1.616804e-29)
(-1.364006e-05 1.509284e-05 0)
(-1.588153e-05 2.008918e-05 2.897493e-29)
(-1.745782e-05 2.492729e-05 -8.425606e-29)
(-1.849306e-05 2.930076e-05 -1.492885e-28)
(-2.647947e-06 1.627042e-06 -1.221727e-29)
(-7.591912e-06 6.06082e-06 -1.499345e-29)
(-1.175536e-05 1.118031e-05 -1.800174e-29)
(-1.502892e-05 1.664218e-05 -1.283927e-29)
(-1.751294e-05 2.210756e-05 -2.67753e-29)
(-1.937017e-05 2.729547e-05 -2.570497e-29)
(-2.070769e-05 3.196932e-05 -6.17269e-29)
(-2.930413e-06 1.806209e-06 0)
(-8.200097e-06 6.646037e-06 1.257883e-29)
(-1.266668e-05 1.224618e-05 1.944896e-29)
(-1.62196e-05 1.815197e-05 6.409075e-30)
(-1.903679e-05 2.39993e-05 -3.26486e-29)
(-2.130233e-05 2.950091e-05 -1.409619e-29)
(-2.316501e-05 3.437753e-05 0)
(-3.108763e-06 2.040769e-06 1.706362e-29)
(-8.543277e-06 7.283447e-06 1.817729e-29)
(-1.324554e-05 1.32041e-05 -3.04119e-30)
(-1.712974e-05 1.944952e-05 4.228062e-29)
(-2.033526e-05 2.554695e-05 -3.479453e-29)
(-2.311984e-05 3.126396e-05 7.579155e-30)
(-2.569777e-05 3.630623e-05 -4.577048e-29)
(-3.183962e-06 2.344366e-06 1.584579e-29)
(-8.592944e-06 7.913065e-06 -2.888961e-30)
(-1.34132e-05 1.393341e-05 0)
(-1.756776e-05 2.028559e-05 4.060049e-30)
(-2.120539e-05 2.653591e-05 4.65339e-29)
(-2.449806e-05 3.233963e-05 3.484946e-29)
(-2.775026e-05 3.761039e-05 -6.36393e-29)
(-3.104546e-06 2.661166e-06 -1.858629e-29)
(-8.347634e-06 8.4943e-06 5.652371e-30)
(-1.313479e-05 1.433531e-05 5.899216e-30)
(-1.740699e-05 2.0542e-05 -9.526694e-29)
(-2.132841e-05 2.668124e-05 4.517757e-31)
(-2.508261e-05 3.250849e-05 4.287586e-31)
(-2.871817e-05 3.792375e-05 -3.043163e-29)
(-2.835562e-06 2.955894e-06 -1.904724e-29)
(-7.785289e-06 8.885261e-06 0)
(-1.245967e-05 1.440033e-05 1.138491e-29)
(-1.66519e-05 2.020642e-05 -1.040444e-29)
(-2.064339e-05 2.597034e-05 7.637761e-29)
(-2.458376e-05 3.158849e-05 1.116049e-28)
(-2.842754e-05 3.715122e-05 1.610653e-30)
(-2.423586e-06 3.112691e-06 0)
(-7.026077e-06 8.947204e-06 1.098014e-29)
(-1.147193e-05 1.402734e-05 2.101813e-29)
(-1.552666e-05 1.936841e-05 -1.392671e-29)
(-1.934247e-05 2.451533e-05 4.915627e-29)
(-2.310846e-05 2.976558e-05 3.004308e-29)
(-2.678727e-05 3.523405e-05 2.886729e-33)
(-2.038919e-06 3.054233e-06 0)
(-6.289121e-06 8.608008e-06 -1.281087e-30)
(-1.035583e-05 1.317007e-05 1.485727e-32)
(-1.415568e-05 1.796278e-05 -2.334071e-29)
(-1.778373e-05 2.268209e-05 2.271398e-29)
(-2.105635e-05 2.74388e-05 2.685186e-30)
(-2.425838e-05 3.257352e-05 -2.543375e-29)
(-1.810481e-06 2.855522e-06 -1.592167e-29)
(-5.726928e-06 7.958826e-06 -8.350429e-30)
(-9.430147e-06 1.196477e-05 1.320315e-29)
(-1.288617e-05 1.617768e-05 1.673293e-29)
(-1.613068e-05 2.044972e-05 4.330455e-29)
(-1.904554e-05 2.501025e-05 2.645578e-29)
(-2.172596e-05 2.948533e-05 4.557318e-29)
(-1.676459e-06 2.547216e-06 -1.594006e-29)
(-5.321899e-06 7.099626e-06 -4.000116e-31)
(-8.733955e-06 1.059492e-05 4.228147e-29)
(-1.177422e-05 1.420033e-05 -2.100948e-29)
(-1.459023e-05 1.804976e-05 -4.798337e-29)
(-1.713234e-05 2.215915e-05 -1.655713e-28)
(-1.973083e-05 2.610188e-05 -1.045532e-28)
(-1.539536e-06 2.154985e-06 1.103125e-31)
(-4.899515e-06 6.044694e-06 1.014048e-30)
(-8.009135e-06 9.043685e-06 1.860038e-29)
(-1.072928e-05 1.219467e-05 1.561701e-29)
(-1.317117e-05 1.548515e-05 -1.277159e-30)
(-1.552809e-05 1.892135e-05 -2.840806e-29)
(-1.829292e-05 2.205485e-05 -1.673187e-28)
(-1.357688e-06 1.700831e-06 -1.878167e-30)
(-4.375502e-06 4.850677e-06 -1.458706e-30)
(-7.131353e-06 7.329295e-06 2.773039e-31)
(-9.553604e-06 1.00025e-05 -1.1209e-29)
(-1.179334e-05 1.275153e-05 -1.283178e-29)
(-1.411126e-05 1.534474e-05 8.348261e-32)
(-1.696793e-05 1.691512e-05 7.292855e-31)
(-1.070508e-06 1.182145e-06 3.511147e-31)
(-3.595645e-06 3.500157e-06 2.259423e-31)
(-5.983283e-06 5.435031e-06 -2.681478e-29)
(-8.196158e-06 7.588084e-06 -4.021138e-29)
(-1.031064e-05 9.579992e-06 -1.404454e-29)
(-1.275959e-05 1.093621e-05 -2.493216e-31)
(-1.617245e-05 1.053253e-05 8.692101e-31)
(-6.834436e-07 6.230604e-07 -1.167689e-31)
(-2.552845e-06 2.015921e-06 -5.793781e-32)
(-4.458491e-06 3.27611e-06 -7.694573e-30)
(-6.365924e-06 4.679614e-06 -8.431194e-30)
(-8.364329e-06 5.630289e-06 6.586163e-30)
(-1.086862e-05 5.280855e-06 1.709651e-28)
(-1.536689e-05 1.72666e-06 2.642159e-28)
(-3.038868e-07 9.508568e-08 -1.185994e-31)
(-1.489735e-06 6.147157e-07 -1.666496e-31)
(-2.80723e-06 1.059244e-06 1.129652e-29)
(-4.324013e-06 1.465096e-06 1.216744e-29)
(-6.195078e-06 1.080335e-06 7.425232e-31)
(-8.875703e-06 -1.273923e-06 -4.365895e-30)
(-1.444993e-05 -1.077692e-05 -6.303696e-29)
(7.219777e-09 -4.071085e-07 -3.060767e-33)
(-5.575301e-07 -7.757858e-07 1.158099e-32)
(-1.382829e-06 -1.16032e-06 -5.794377e-30)
(-2.507539e-06 -1.778338e-06 -5.713746e-30)
(-4.079949e-06 -3.53458e-06 -4.754208e-32)
(-6.996857e-06 -8.694192e-06 -6.270504e-30)
(-1.516261e-05 -3.189963e-05 7.671012e-29)
(2.625278e-07 -8.793705e-07 1.010845e-30)
(2.541663e-07 -2.133477e-06 1.142709e-30)
(-9.919764e-08 -3.4286e-06 8.011158e-30)
(-8.487054e-07 -5.184684e-06 7.084297e-30)
(-2.064105e-06 -8.449732e-06 5.260357e-30)
(-4.67391e-06 -1.718644e-05 3.947233e-29)
(-1.335616e-05 -5.461995e-05 2.220707e-28)
(4.705956e-07 -1.296761e-06 2.564615e-30)
(9.877272e-07 -3.397296e-06 3.249337e-30)
(1.104517e-06 -5.642962e-06 4.210893e-30)
(7.902638e-07 -8.532296e-06 1.476607e-29)
(7.430938e-08 -1.313062e-05 7.070809e-30)
(-1.526913e-06 -2.463721e-05 6.698144e-29)
(-6.9307e-06 -7.14031e-05 3.137494e-28)
(5.92626e-07 -1.597666e-06 -1.94859e-30)
(1.553403e-06 -4.414209e-06 -4.88691e-30)
(2.135643e-06 -7.540279e-06 6.823323e-30)
(2.35033e-06 -1.133654e-05 2.232119e-29)
(2.314608e-06 -1.682248e-05 -1.364489e-31)
(2.153038e-06 -2.970483e-05 6.766294e-29)
(2.162485e-06 -7.867122e-05 4.874536e-28)
(6.754752e-07 -1.782842e-06 5.576927e-31)
(1.992711e-06 -5.104226e-06 9.000757e-31)
(3.028529e-06 -8.865546e-06 8.293842e-30)
(3.81795e-06 -1.319877e-05 2.867684e-30)
(4.516358e-06 -1.895954e-05 -1.545015e-30)
(5.726873e-06 -3.160183e-05 1.434164e-29)
(1.049156e-05 -7.80281e-05 2.799461e-29)
(7.690698e-07 -1.844362e-06 5.426756e-31)
(2.399797e-06 -5.410413e-06 6.363402e-31)
(3.857517e-06 -9.522596e-06 5.651301e-31)
(5.174664e-06 -1.408549e-05 3.057167e-30)
(6.478057e-06 -1.97283e-05 2.374757e-29)
(8.675196e-06 -3.136204e-05 5.92025e-29)
(1.653764e-05 -7.327196e-05 1.061565e-29)
(8.150614e-07 -1.771589e-06 -7.094434e-30)
(2.660319e-06 -5.318013e-06 -1.184559e-30)
(4.452166e-06 -9.539354e-06 -1.997035e-29)
(6.21092e-06 -1.412474e-05 -2.011572e-29)
(7.965613e-06 -1.953854e-05 -1.741279e-29)
(1.08043e-05 -3.016166e-05 -9.319783e-29)
(2.018089e-05 -6.726643e-05 3.832609e-28)
(7.855891e-07 -1.587211e-06 -1.218909e-29)
(2.694132e-06 -4.874777e-06 -5.502425e-30)
(4.694281e-06 -8.991444e-06 -4.175306e-29)
(6.748016e-06 -1.341417e-05 6.326445e-29)
(8.774409e-06 -1.852141e-05 -7.053558e-29)
(1.171351e-05 -2.793443e-05 -6.758496e-28)
(2.005577e-05 -5.889525e-05 -1.163261e-27)
(7.030504e-07 -1.326747e-06 -1.543819e-30)
(2.540728e-06 -4.152618e-06 1.233195e-30)
(4.576614e-06 -7.843254e-06 -4.534022e-29)
(6.764985e-06 -1.190698e-05 -4.213962e-29)
(8.904181e-06 -1.656993e-05 -1.607266e-29)
(1.164177e-05 -2.48093e-05 2.903478e-30)
(1.841774e-05 -5.155937e-05 1.257356e-29)
(5.695457e-07 -9.898738e-07 8.626935e-31)
(2.213645e-06 -3.162434e-06 3.831499e-30)
(4.170833e-06 -6.285033e-06 1.228958e-30)
(6.347869e-06 -9.852924e-06 -4.120347e-29)
(8.528937e-06 -1.403684e-05 3.08555e-29)
(1.103189e-05 -2.098471e-05 6.487338e-29)
(1.639e-05 -4.300529e-05 5.703039e-31)
(3.786662e-07 -6.21553e-07 -9.609428e-32)
(1.73548e-06 -2.052663e-06 -5.11209e-30)
(3.520592e-06 -4.46194e-06 1.629467e-29)
(5.642045e-06 -7.411549e-06 -2.101486e-29)
(7.889631e-06 -1.108481e-05 -2.752809e-29)
(1.028327e-05 -1.680954e-05 -2.722452e-29)
(1.452514e-05 -3.344622e-05 -1.034956e-29)
(1.697083e-07 -2.441e-07 -1.936595e-29)
(1.251724e-06 -8.873455e-07 6.465694e-33)
(2.843696e-06 -2.48789e-06 9.13258e-30)
(4.879331e-06 -4.701713e-06 3.574989e-29)
(7.253391e-06 -7.787763e-06 -1.462776e-30)
(9.775571e-06 -1.236711e-05 5.001514e-29)
(1.375939e-05 -2.415261e-05 1.661733e-29)
(3.278358e-08 1.414412e-07 -2.110043e-29)
(9.099221e-07 2.826423e-07 -1.232078e-29)
(2.312974e-06 -4.8783e-07 -3.525807e-29)
(4.203668e-06 -1.80725e-06 1.897166e-29)
(6.600158e-06 -4.121583e-06 -5.276166e-29)
(9.315871e-06 -7.80748e-06 4.838386e-29)
(1.320916e-05 -1.649679e-05 -5.36485e-29)
(5.453007e-08 4.750584e-07 0)
(7.969949e-07 1.353565e-06 1.142776e-30)
(2.012545e-06 1.408264e-06 -1.393648e-30)
(3.631947e-06 9.932786e-07 4.163416e-29)
(5.817226e-06 -5.124116e-07 -2.693394e-29)
(8.427969e-06 -3.348137e-06 -1.162351e-29)
(1.215328e-05 -9.516752e-06 -1.08071e-28)
(2.179299e-07 6.949604e-07 0)
(8.781461e-07 2.179891e-06 -1.13465e-29)
(1.881822e-06 2.983171e-06 -1.282838e-29)
(3.150057e-06 3.360542e-06 -1.108242e-29)
(4.904138e-06 2.723217e-06 -1.154314e-29)
(7.206515e-06 8.536418e-07 -2.937965e-29)
(1.061771e-05 -3.354193e-06 9.138884e-30)
(4.085651e-07 7.482303e-07 -1.606228e-29)
(1.033629e-06 2.641733e-06 0)
(1.782851e-06 4.114258e-06 0)
(2.662758e-06 5.207521e-06 -2.067398e-29)
(3.884931e-06 5.495618e-06 5.120667e-29)
(5.619136e-06 4.667113e-06 4.305819e-29)
(8.176102e-06 2.157346e-06 1.059395e-28)
(5.230958e-07 7.025992e-07 -1.472071e-29)
(1.170383e-06 2.814027e-06 -5.747134e-30)
(1.691074e-06 4.838705e-06 -6.03054e-30)
(2.168348e-06 6.583175e-06 -5.05786e-29)
(2.826059e-06 7.670893e-06 -2.648548e-29)
(3.847783e-06 7.833333e-06 2.639042e-29)
(5.29329e-06 6.831626e-06 3.754301e-29)
(5.5393e-07 6.352547e-07 0)
(1.241536e-06 2.824209e-06 1.698232e-29)
(1.593928e-06 5.227866e-06 0)
(1.705753e-06 7.47324e-06 -1.285345e-29)
(1.815523e-06 9.206604e-06 -1.32725e-29)
(2.096205e-06 1.020056e-05 1.304152e-29)
(2.554753e-06 1.034191e-05 1.556662e-29)
(5.310833e-07 5.783108e-07 0)
(1.265045e-06 2.775443e-06 -1.37039e-29)
(1.534996e-06 5.357565e-06 1.46522e-29)
(1.38245e-06 7.9215e-06 0)
(1.032143e-06 1.011317e-05 -2.64209e-29)
(6.747307e-07 1.173764e-05 -4.224198e-29)
(3.759911e-07 1.271012e-05 -3.849347e-29)
(4.786601e-07 5.677482e-07 0)
(1.257592e-06 2.739888e-06 -3.877117e-29)
(1.525845e-06 5.338771e-06 -2.441412e-31)
(1.259686e-06 8.02505e-06 -4.90164e-29)
(6.423107e-07 1.049558e-05 -2.630778e-29)
(-1.49944e-07 1.257282e-05 1.071798e-29)
(-1.062453e-06 1.416027e-05 -1.152873e-28)
(4.10944e-07 5.976837e-07 9.441273e-30)
(1.200123e-06 2.75785e-06 -1.743483e-29)
(1.527879e-06 5.270392e-06 1.191292e-31)
(1.303619e-06 7.945484e-06 -1.402068e-29)
(6.423612e-07 1.053253e-05 0)
(-2.96556e-07 1.284989e-05 0)
(-1.47063e-06 1.484281e-05 1.910974e-29)
(3.44228e-07 6.432921e-07 6.016818e-30)
(1.100624e-06 2.80844e-06 -1.329402e-29)
(1.503355e-06 5.222244e-06 9.932339e-30)
(1.406793e-06 7.805883e-06 9.451022e-30)
(8.713478e-07 1.038537e-05 0)
(-4.313806e-09 1.283818e-05 0)
(-1.08579e-06 1.504058e-05 -2.925912e-29)
(2.938466e-07 6.741679e-07 -7.373951e-30)
(1.002596e-06 2.847104e-06 -2.07804e-29)
(1.461222e-06 5.176294e-06 -6.0658e-30)
(1.512585e-06 7.655758e-06 1.875349e-30)
(1.176119e-06 1.01754e-05 3.905482e-29)
(5.457865e-07 1.264864e-05 2.995676e-29)
(-2.259137e-07 1.497424e-05 -8.392009e-30)
(2.633742e-07 6.808632e-07 -8.64695e-30)
(9.400019e-07 2.833473e-06 -2.94396e-30)
(1.436972e-06 5.084812e-06 6.038055e-30)
(1.612793e-06 7.46028e-06 6.257403e-30)
(1.478631e-06 9.915824e-06 0)
(1.132646e-06 1.234921e-05 -1.656936e-29)
(7.014118e-07 1.467427e-05 4.91872e-30)
(2.516891e-07 6.665711e-07 0)
(9.149253e-07 2.764577e-06 -5.881585e-30)
(1.447038e-06 4.923937e-06 -6.04843e-30)
(1.725234e-06 7.220632e-06 5.967012e-29)
(1.772455e-06 9.580918e-06 5.188488e-29)
(1.676592e-06 1.192989e-05 -3.63187e-30)
(1.525497e-06 1.420548e-05 -9.080155e-30)
(2.544323e-07 6.319978e-07 -2.266601e-30)
(9.204244e-07 2.649395e-06 -2.938357e-30)
(1.489679e-06 4.70215e-06 0)
(1.863522e-06 6.89602e-06 -2.992752e-31)
(2.058916e-06 9.151874e-06 4.589104e-30)
(2.136925e-06 1.138201e-05 4.027972e-30)
(2.195125e-06 1.358471e-05 -1.302193e-29)
(2.618984e-07 5.842277e-07 3.103804e-30)
(9.357877e-07 2.499936e-06 -1.253724e-29)
(1.538524e-06 4.448368e-06 -2.268082e-29)
(1.981743e-06 6.508546e-06 -3.743901e-29)
(2.285469e-06 8.625719e-06 -2.51495e-30)
(2.496543e-06 1.073881e-05 0)
(2.700997e-06 1.28416e-05 1.290199e-29)
(2.699227e-07 5.285221e-07 5.879973e-30)
(9.53436e-07 2.339164e-06 -1.415149e-30)
(1.58576e-06 4.162003e-06 2.381022e-30)
(2.08314e-06 6.082018e-06 0)
(2.452132e-06 8.04759e-06 -3.395653e-30)
(2.750865e-06 1.00318e-05 0)
(3.046761e-06 1.201509e-05 2.589763e-30)
(2.764376e-07 4.681013e-07 0)
(9.647482e-07 2.159888e-06 0)
(1.610372e-06 3.848005e-06 -6.494039e-30)
(2.13197e-06 5.617594e-06 0)
(2.546534e-06 7.441932e-06 -5.638347e-30)
(2.900836e-06 9.291869e-06 -2.539466e-30)
(3.248372e-06 1.114716e-05 2.063434e-30)
(2.783208e-07 4.082229e-07 -2.4086e-30)
(9.56063e-07 1.971409e-06 0)
(1.59885e-06 3.518315e-06 3.337004e-31)
(2.133365e-06 5.146212e-06 5.68698e-30)
(2.573462e-06 6.83116e-06 -2.305075e-30)
(2.958701e-06 8.546256e-06 -4.121976e-30)
(3.333661e-06 1.027014e-05 -1.649095e-30)
(2.767159e-07 3.447076e-07 -7.73967e-31)
(9.36629e-07 1.782884e-06 -9.439708e-31)
(1.561826e-06 3.191538e-06 0)
(2.093424e-06 4.681967e-06 8.168454e-30)
(2.541481e-06 6.231711e-06 6.140141e-30)
(2.93843e-06 7.816668e-06 -9.56535e-30)
(3.320782e-06 9.415182e-06 -1.909382e-29)
(2.676702e-07 2.82605e-07 -1.618147e-30)
(8.993348e-07 1.596755e-06 -1.888573e-30)
(1.500307e-06 2.874969e-06 1.919945e-30)
(2.018248e-06 4.23404e-06 0)
(2.46083e-06 5.654537e-06 0)
(2.854309e-06 7.116029e-06 -1.298166e-30)
(3.227705e-06 8.60845e-06 5.214087e-29)
(2.54937e-07 2.232826e-07 -1.22389e-30)
(8.512747e-07 1.418818e-06 -1.605695e-30)
(1.4203e-06 2.573046e-06 1.453747e-30)
(1.915747e-06 3.807578e-06 0)
(2.343657e-06 5.105874e-06 6.096029e-30)
(2.727124e-06 6.450941e-06 5.195393e-34)
(3.094403e-06 7.842878e-06 -6.453388e-30)
(2.389796e-07 1.672246e-07 0)
(7.947721e-07 1.250559e-06 -1.169082e-30)
(1.326645e-06 2.288073e-06 1.20084e-30)
(1.793053e-06 3.40531e-06 0)
(2.198946e-06 4.588477e-06 -7.043399e-30)
(2.563998e-06 5.82344e-06 -1.235147e-29)
(2.909483e-06 7.110233e-06 -6.412398e-30)
(2.208105e-07 1.14703e-07 7.50204e-31)
(7.32876e-07 1.092883e-06 -1.480635e-30)
(1.224169e-06 2.021095e-06 -6.702478e-31)
(1.657247e-06 3.02846e-06 -3.006934e-30)
(2.036078e-06 4.103551e-06 -2.961835e-30)
(2.377695e-06 5.234876e-06 -3.791157e-31)
(2.697345e-06 6.421707e-06 0)
(2.013247e-07 6.582248e-08 9.846037e-31)
(6.681401e-07 9.460853e-07 0)
(1.117335e-06 1.772523e-06 0)
(1.514856e-06 2.677512e-06 3.567287e-30)
(1.862795e-06 3.651798e-06 3.824913e-30)
(2.174937e-06 4.693843e-06 -9.120032e-32)
(2.468817e-06 5.787475e-06 0)
(1.814177e-07 2.040949e-08 2.637849e-31)
(6.030949e-07 8.098616e-07 -1.480478e-30)
(1.010367e-06 1.542064e-06 -1.489703e-30)
(1.372555e-06 2.352029e-06 -3.064385e-30)
(1.691452e-06 3.232232e-06 -2.913677e-30)
(1.982713e-06 4.188711e-06 0)
(2.251119e-06 5.196663e-06 3.037663e-31)
(1.616677e-07 -2.164551e-08 -5.848239e-31)
(5.394737e-07 6.836354e-07 -2.421826e-30)
(9.060326e-07 1.328508e-06 -1.677453e-30)
(1.233616e-06 2.05043e-06 -2.258057e-31)
(1.523334e-06 2.84329e-06 0)
(1.787356e-06 3.714323e-06 1.234114e-30)
(2.030103e-06 4.64196e-06 6.267398e-32)
(1.425639e-07 -6.071131e-08 5.923133e-31)
(4.785583e-07 5.664281e-07 -6.982976e-31)
(8.065051e-07 1.130287e-06 -1.438261e-30)
(1.10109e-06 1.770635e-06 -2.902304e-30)
(1.363198e-06 2.482611e-06 -3.030468e-30)
(1.601264e-06 3.274033e-06 1.43528e-30)
(1.820378e-06 4.127279e-06 2.440775e-30)
(1.24441e-07 -9.714577e-08 1.928515e-31)
(4.213524e-07 4.571187e-07 3.688373e-31)
(7.131614e-07 9.453786e-07 2.120641e-31)
(9.760974e-07 1.509701e-06 0)
(1.209574e-06 2.150329e-06 -2.446281e-29)
(1.424807e-06 2.868326e-06 -3.08388e-29)
(1.625105e-06 3.648345e-06 -6.089821e-30)
(1.075752e-07 -1.314355e-07 -3.28679e-31)
(3.686623e-07 3.541221e-07 1.0961e-30)
(6.278424e-07 7.711138e-07 4.459672e-30)
(8.638136e-07 1.263743e-06 2.998974e-30)
(1.078217e-06 1.835556e-06 0)
(1.273261e-06 2.485184e-06 6.708764e-31)
(1.449818e-06 3.197826e-06 3.027051e-30)
(9.215303e-08 -1.64187e-07 -1.821424e-31)
(3.209378e-07 2.556523e-07 1.15853e-30)
(5.509105e-07 6.044692e-07 2.972046e-30)
(7.623721e-07 1.028602e-06 1.498135e-30)
(9.55484e-07 1.532171e-06 0)
(1.131729e-06 2.11609e-06 3.8395e-30)
(1.291838e-06 2.768649e-06 6.038613e-30)
(7.83333e-08 -1.960093e-07 5.874331e-31)
(2.78719e-07 1.598334e-07 1.840571e-30)
(4.833963e-07 4.424297e-07 1.485554e-30)
(6.739685e-07 8.001845e-07 1.496963e-30)
(8.487793e-07 1.237506e-06 0)
(1.008718e-06 1.758149e-06 0)
(1.15411e-06 2.353524e-06 0)
(6.635946e-08 -2.276059e-07 0)
(2.427109e-07 6.458995e-08 6.631251e-31)
(4.264241e-07 2.814337e-07 0)
(6.000881e-07 5.734572e-07 -3.692155e-30)
(7.596636e-07 9.456715e-07 -3.054886e-30)
(9.057582e-07 1.40439e-06 -3.01799e-30)
(1.03798e-06 1.944256e-06 -3.898825e-30)
(5.645525e-08 -2.597477e-07 5.738151e-31)
(2.136202e-07 -3.250227e-08 0)
(3.805682e-07 1.173388e-07 2.97683e-30)
(5.392868e-07 3.433772e-07 -2.195865e-29)
(6.87488e-07 6.509294e-07 -2.335649e-29)
(8.241675e-07 1.04677e-06 0)
(9.449563e-07 1.531949e-06 -9.792086e-31)
(4.900709e-08 -2.93481e-07 6.615702e-31)
(1.932057e-07 -1.346056e-07 0)
(3.505374e-07 -5.513492e-08 1.490119e-30)
(5.042861e-07 1.010053e-07 1.515121e-30)
(6.452158e-07 3.41388e-07 2.006665e-30)
(7.690705e-07 6.753565e-07 -9.461973e-31)
(8.776153e-07 1.106786e-06 9.760498e-31)
(4.463862e-08 -3.300903e-07 0)
(1.831492e-07 -2.457274e-07 2.275748e-30)
(3.373371e-07 -2.426129e-07 1.489814e-30)
(4.882427e-07 -1.617795e-07 -1.457693e-30)
(6.244446e-07 8.023434e-09 1.046932e-30)
(7.406663e-07 2.796034e-07 -1.024414e-30)
(8.378248e-07 6.579833e-07 3.88972e-32)
(4.438693e-08 -3.714059e-07 0)
(1.870015e-07 -3.712709e-07 8.724462e-31)
(3.468563e-07 -4.537388e-07 -8.469245e-31)
(5.014117e-07 -4.559799e-07 -2.330501e-32)
(6.361382e-07 -3.617487e-07 2.534159e-30)
(7.448111e-07 -1.540733e-07 2.989637e-30)
(8.288804e-07 1.726498e-07 -1.073486e-30)
(5.000751e-08 -4.198386e-07 0)
(2.103225e-07 -5.189373e-07 0)
(3.873309e-07 -7.011827e-07 -9.14242e-31)
(5.52739e-07 -7.975897e-07 1.49952e-30)
(6.88164e-07 -7.852113e-07 4.023025e-32)
(7.874242e-07 -6.425312e-07 0)
(8.543291e-07 -3.64366e-07 0)
(6.46044e-08 -4.794472e-07 7.1313e-31)
(2.622405e-07 -7.007706e-07 -8.654705e-31)
(4.71731e-07 -1.003686e-06 -1.933587e-30)
(6.554249e-07 -1.209454e-06 4.957041e-32)
(7.9117e-07 -1.285926e-06 -3.877415e-32)
(8.755267e-07 -1.207337e-06 2.983339e-30)
(9.174871e-07 -9.710649e-07 1.637242e-35)
(9.357445e-08 -5.568178e-07 3.236747e-32)
(3.59035e-07 -9.360417e-07 -9.057582e-31)
(6.21374e-07 -1.390274e-06 -1.95594e-30)