/*--------------------------------*- C++ -*----------------------------------*\
| =========                 |                                                 |
| \\      /  F ield         | OpenFOAM: The Open Source CFD Toolbox           |
|  \\    /   O peration     | Version:  2206                                  |
|   \\  /    A nd           | Website:  www.openfoam.com                      |
|    \\/     M anipulation  |                                                 |
\*---------------------------------------------------------------------------*/
FoamFile
{
    version     2.0;
    format      ascii;
    arch        "LSB;label=32;scalar=64";
    class       volVectorField;
    location    "2.6";
    object      U.a_0;
}
// * * * * * * * * * * * * * * * * * * * * * * * * * * * * * * * * * * * * * //

dimensions      [0 1 -1 0 0 0 0];

internalField   nonuniform List<vector> 
13078
(
(1.981807e-05 -0.0001902518 4.112685e-27)
(3.573187e-06 -7.856811e-05 2.807588e-32)
(3.927303e-07 -4.077076e-05 -8.213704e-29)
(-9.671596e-08 -2.356306e-05 0)
(-2.433122e-07 -1.709395e-05 -1.205424e-29)
(-3.171108e-07 -1.345792e-05 -1.153487e-29)
(-3.734503e-07 -1.075544e-05 -1.156867e-29)
(-6.359781e-05 -6.529244e-05 0)
(-3.358804e-05 -5.096924e-05 -6.970154e-32)
(-1.139268e-05 -3.021076e-05 0)
(-4.831401e-06 -2.08833e-05 0)
(-2.641372e-06 -1.622279e-05 -8.466088e-35)
(-1.734023e-06 -1.300491e-05 1.136889e-34)
(-1.286081e-06 -1.048973e-05 5.442074e-34)
(-1.931812e-05 -1.412002e-05 2.1903e-30)
(-1.686412e-05 -2.086911e-05 -8.143891e-32)
(-1.018205e-05 -1.925424e-05 1.541595e-29)
(-6.150622e-06 -1.65993e-05 2.399457e-29)
(-3.926958e-06 -1.400779e-05 1.151471e-29)
(-2.69307e-06 -1.168347e-05 0)
(-1.98908e-06 -9.647849e-06 -6.590336e-35)
(-6.092672e-06 -5.154037e-06 2.055353e-32)
(-8.475685e-06 -1.020779e-05 5.520123e-31)
(-7.46424e-06 -1.239063e-05 2.14381e-30)
(-5.673315e-06 -1.240248e-05 1.397112e-30)
(-4.152267e-06 -1.133039e-05 3.19058e-33)
(-3.092229e-06 -9.917173e-06 0)
(-2.389821e-06 -8.439639e-06 2.112116e-34)
(-2.355776e-06 -2.548237e-06 -2.959389e-31)
(-4.710759e-06 -5.955189e-06 -7.072114e-31)
(-5.114419e-06 -8.13717e-06 6.814912e-31)
(-4.576114e-06 -8.949081e-06 -1.395567e-31)
(-3.798514e-06 -8.801521e-06 -1.386618e-29)
(-3.080249e-06 -8.080495e-06 -2.695925e-35)
(-2.522676e-06 -7.084877e-06 1.160898e-29)
(-1.055292e-06 -1.547316e-06 0)
(-2.695985e-06 -3.713409e-06 7.394659e-31)
(-3.43815e-06 -5.45371e-06 -7.452812e-31)
(-3.498696e-06 -6.400181e-06 6.719491e-31)
(-3.223386e-06 -6.646976e-06 1.493398e-30)
(-2.843646e-06 -6.379897e-06 -1.172784e-29)
(-2.473362e-06 -5.745458e-06 -2.329241e-29)
(-5.542653e-07 -1.079139e-06 0)
(-1.641137e-06 -2.471761e-06 5.393187e-31)
(-2.34497e-06 -3.752512e-06 -1.132346e-29)
(-2.639076e-06 -4.585121e-06 -1.196574e-29)
(-2.653328e-06 -4.943922e-06 2.183044e-30)
(-2.517682e-06 -4.887002e-06 1.480012e-30)
(-2.326682e-06 -4.503196e-06 0)
(-3.352147e-07 -8.215011e-07 -9.114242e-31)
(-1.075438e-06 -1.730709e-06 5.528472e-31)
(-1.661883e-06 -2.645492e-06 5.998748e-31)
(-2.022835e-06 -3.302754e-06 0)
(-2.180336e-06 -3.636286e-06 1.462073e-30)
(-2.199311e-06 -3.645271e-06 1.484428e-30)
(-2.14314e-06 -3.379525e-06 1.482298e-30)
(-2.279274e-07 -6.614559e-07 3.234599e-32)
(-7.618674e-07 -1.253467e-06 -1.183518e-30)
(-1.240369e-06 -1.899373e-06 8.695909e-31)
(-1.598395e-06 -2.378022e-06 1.50407e-30)
(-1.820542e-06 -2.629717e-06 4.374275e-30)
(-1.931637e-06 -2.63147e-06 1.486382e-30)
(-1.969057e-06 -2.403522e-06 0)
(-1.717699e-07 -5.524984e-07 9.493043e-31)
(-5.843667e-07 -9.237852e-07 -1.167481e-30)
(-9.825593e-07 -1.36787e-06 -6.016329e-31)
(-1.317226e-06 -1.689366e-06 1.884429e-30)
(-1.564045e-06 -1.842669e-06 -3.867803e-32)
(-1.727526e-06 -1.799922e-06 0)
(-1.827593e-06 -1.565965e-06 0)
(-1.418164e-07 -4.728758e-07 0)
(-4.844387e-07 -6.815403e-07 0)
(-8.286119e-07 -9.696433e-07 -1.244483e-30)
(-1.139071e-06 -1.157525e-06 1.840403e-30)
(-1.392994e-06 -1.212235e-06 4.013715e-32)
(-1.585948e-06 -1.107958e-06 0)
(-1.727511e-06 -8.424355e-07 0)
(-1.268494e-07 -4.112899e-07 0)
(-4.312053e-07 -4.934209e-07 1.214837e-30)
(-7.423892e-07 -6.563051e-07 -1.194209e-30)
(-1.034958e-06 -7.304105e-07 -3.400704e-30)
(-1.290136e-06 -6.92087e-07 -1.033075e-31)
(-1.500585e-06 -5.197626e-07 0)
(-1.670373e-06 -2.086429e-07 1.546794e-30)
(-1.212494e-07 -3.608492e-07 0)
(-4.079324e-07 -3.395173e-07 -3.281967e-31)
(-7.022684e-07 -3.980987e-07 -1.488147e-30)
(-9.850868e-07 -3.733796e-07 -1.828388e-30)
(-1.241542e-06 -2.485904e-07 1.417491e-30)
(-1.464137e-06 -6.754017e-09 -1.395705e-30)
(-1.6546e-06 3.573206e-07 3.87997e-32)
(-1.219204e-07 -3.17539e-07 9.624768e-31)
(-4.053569e-07 -2.075635e-07 0)
(-6.951184e-07 -1.756346e-07 -1.488553e-30)
(-9.761715e-07 -6.278081e-08 -1.512984e-30)
(-1.23676e-06 1.426828e-07 2.775631e-30)
(-1.470029e-06 4.535595e-07 -1.329149e-30)
(-1.677481e-06 8.743647e-07 1.358269e-30)
(-1.271972e-07 -2.786553e-07 8.888273e-31)
(-4.180091e-07 -8.941233e-08 0)
(-7.123364e-07 2.403073e-08 -2.973839e-30)
(-9.946838e-07 2.17692e-07 1.989585e-29)
(-1.262255e-06 4.997751e-07 2.563051e-29)
(-1.51184e-06 8.792025e-07 0)
(-1.736274e-06 1.358746e-06 -1.372095e-30)
(-1.361619e-07 -2.423073e-07 0)
(-4.432023e-07 2.076909e-08 1.075462e-30)
(-7.516017e-07 2.105153e-07 0)
(-1.046761e-06 4.795607e-07 1.884896e-30)
(-1.326957e-06 8.345255e-07 3.049783e-30)
(-1.589477e-06 1.283992e-06 3.01204e-30)
(-1.829805e-06 1.824177e-06 1.705544e-30)
(-1.482775e-07 -2.070477e-07 0)
(-4.788225e-07 1.273394e-07 1.959559e-30)
(-8.078066e-07 3.909198e-07 -1.484077e-30)
(-1.120518e-06 7.339286e-07 -1.494919e-30)
(-1.418232e-06 1.16207e-06 0)
(-1.698306e-06 1.68095e-06 0)
(-1.956557e-06 2.283192e-06 0)
(-1.634085e-07 -1.718405e-07 1.349276e-30)
(-5.243051e-07 2.336493e-07 1.257088e-31)
(-8.805027e-07 5.710425e-07 -2.96905e-30)
(-1.216844e-06 9.883046e-07 -1.496054e-30)
(-1.536763e-06 1.490686e-06 0)
(-1.83805e-06 2.080573e-06 -1.77367e-30)
(-2.116544e-06 2.747126e-06 -6.024252e-30)
(-1.815617e-07 -1.357017e-07 1.216703e-30)
(-5.795242e-07 3.426399e-07 8.207277e-32)
(-9.694901e-07 7.558255e-07 -4.455093e-30)
(-1.335431e-06 1.249589e-06 -2.994698e-30)
(-1.682602e-06 1.828554e-06 0)
(-2.009239e-06 2.492346e-06 1.126827e-30)
(-2.310767e-06 3.226647e-06 -3.019496e-30)
(-2.028743e-07 -9.777083e-08 5.809303e-31)
(-6.447918e-07 4.569701e-07 1.340477e-30)
(-1.075163e-06 9.496943e-07 6.949641e-31)
(-1.475979e-06 1.523741e-06 0)
(-1.849799e-06 2.180518e-06 2.442399e-29)
(-2.205364e-06 2.921911e-06 3.077604e-29)
(-2.539593e-06 3.731948e-06 6.073867e-30)
(-2.275673e-07 -5.712614e-08 -1.740688e-31)
(-7.209483e-07 5.793111e-07 1.793797e-30)
(-1.199281e-06 1.157085e-06 2.541171e-30)
(-1.643313e-06 1.817045e-06 3.572541e-30)
(-2.056332e-06 2.555294e-06 3.024519e-30)
(-2.446534e-06 3.380084e-06 1.93247e-30)
(-2.810341e-06 4.273107e-06 -4.152253e-30)
(-2.560282e-07 -1.302071e-08 0)
(-8.089945e-07 7.121173e-07 1.805711e-30)
(-1.342878e-06 1.382249e-06 1.821917e-30)
(-1.836232e-06 2.135518e-06 8.128863e-31)
(-2.292567e-06 2.966533e-06 0)
(-2.723468e-06 3.882886e-06 1.751217e-30)
(-3.123241e-06 4.86155e-06 6.245152e-32)
(-2.887248e-07 3.537004e-08 -1.747988e-31)
(-9.102124e-07 8.577962e-07 0)
(-1.508141e-06 1.629219e-06 0)
(-2.058241e-06 2.484949e-06 2.925902e-30)
(-2.564487e-06 3.417812e-06 2.612322e-30)
(-3.04132e-06 4.433839e-06 0)
(-3.482142e-06 5.505973e-06 8.234172e-31)
(-3.261512e-07 8.886612e-08 7.061521e-32)
(-1.026213e-06 1.018792e-06 0)
(-1.69752e-06 1.90209e-06 0)
(-2.312415e-06 2.870882e-06 -2.995379e-30)
(-2.87444e-06 3.915696e-06 -3.356027e-30)
(-3.394305e-06 5.034245e-06 4.690716e-31)
(-3.88059e-06 6.208094e-06 0)
(-3.690073e-07 1.482404e-07 2.738701e-31)
(-1.158979e-06 1.197578e-06 1.479621e-30)
(-1.914194e-06 2.20511e-06 1.720122e-30)
(-2.6032e-06 3.299266e-06 3.001583e-30)
(-3.230509e-06 4.467518e-06 3.091881e-30)
(-3.808297e-06 5.696204e-06 1.958074e-31)
(-4.34363e-06 6.981136e-06 0)
(-4.180376e-07 2.143472e-07 0)
(-1.310703e-06 1.396631e-06 -5.469914e-31)
(-2.161333e-06 2.542489e-06 5.828509e-31)
(-2.933576e-06 3.775916e-06 0)
(-3.63209e-06 5.080701e-06 5.697368e-30)
(-4.270019e-06 6.438989e-06 1.23117e-29)
(-4.858485e-06 7.845491e-06 6.387003e-30)
(-4.743467e-07 2.880055e-07 -7.052625e-31)
(-1.484403e-06 1.618517e-06 -9.562173e-31)
(-2.443312e-06 2.918665e-06 8.094999e-31)
(-3.308794e-06 4.307107e-06 0)
(-4.085242e-06 5.763168e-06 -6.079849e-30)
(-4.786958e-06 7.263968e-06 -4.367766e-34)
(-5.429178e-06 8.801327e-06 6.425988e-30)
(-5.391655e-07 3.701298e-07 -1.075502e-30)
(-1.683757e-06 1.865864e-06 -1.209553e-30)
(-2.766085e-06 3.338501e-06 1.247487e-30)
(-3.73603e-06 4.899978e-06 0)
(-4.597569e-06 6.524438e-06 0)
(-5.365332e-06 8.182362e-06 -6.590778e-31)
(-6.049779e-06 9.850513e-06 -5.092796e-29)
(-6.148818e-07 4.615233e-07 -2.523794e-30)
(-1.9148e-06 2.141406e-06 -3.198604e-30)
(-3.1379e-06 3.807052e-06 0)
(-4.225275e-06 5.562479e-06 -4.652231e-30)
(-5.180885e-06 7.375751e-06 -6.121427e-30)
(-6.022503e-06 9.209532e-06 4.136802e-30)
(-6.765056e-06 1.102432e-05 1.896652e-29)
(-7.000022e-07 5.620756e-07 -1.808464e-30)
(-2.178718e-06 2.444046e-06 0)
(-3.568058e-06 4.328975e-06 -4.947894e-30)
(-4.788992e-06 6.302655e-06 -1.116192e-30)
(-5.847963e-06 8.328315e-06 -1.610276e-30)
(-6.766628e-06 1.036072e-05 -2.782108e-30)
(-7.564084e-06 1.235459e-05 -1.000525e-30)
(-8.016962e-07 6.681463e-07 0)
(-2.494544e-06 2.777075e-06 0)
(-4.073432e-06 4.907178e-06 -4.938712e-30)
(-5.444886e-06 7.126946e-06 0)
(-6.617174e-06 9.392594e-06 -4.209409e-30)
(-7.616554e-06 1.165075e-05 -1.859404e-30)
(-8.467221e-06 1.384927e-05 1.416803e-30)
(-9.278152e-07 7.873441e-07 -5.194358e-30)
(-2.863421e-06 3.136777e-06 5.610482e-31)
(-4.659815e-06 5.532977e-06 1.553436e-30)
(-6.213172e-06 8.038864e-06 0)
(-7.512108e-06 1.057697e-05 -2.662989e-30)
(-8.595554e-06 1.309047e-05 0)
(-9.498809e-06 1.551874e-05 -1.076397e-29)
(-1.08367e-06 9.1522e-07 -3.489038e-30)
(-3.309924e-06 3.517599e-06 4.236228e-30)
(-5.35706e-06 6.201665e-06 1.005869e-29)
(-7.113256e-06 9.02281e-06 1.071318e-29)
(-8.56052e-06 1.188538e-05 3.231223e-30)
(-9.728887e-06 1.46895e-05 6.321799e-30)
(-1.067175e-05 1.737761e-05 -6.401848e-30)
(-1.27706e-06 1.048565e-06 1.132607e-30)
(-3.866408e-06 3.933294e-06 1.464944e-30)
(-6.209032e-06 6.917775e-06 1.076123e-29)
(-8.202983e-06 1.009273e-05 -2.696204e-31)
(-9.80289e-06 1.331979e-05 -1.647064e-29)
(-1.104563e-05 1.64559e-05 1.273659e-29)
(-1.200442e-05 1.943681e-05 2.581834e-29)
(-1.51665e-06 1.181208e-06 -1.129779e-30)
(-4.543174e-06 4.36065e-06 -1.463468e-30)
(-7.240985e-06 7.692492e-06 -5.060632e-31)
(-9.480479e-06 1.123682e-05 -5.114589e-29)
(-1.124072e-05 1.486024e-05 -6.441873e-29)
(-1.255271e-05 1.83987e-05 -9.07902e-30)
(-1.349978e-05 2.170904e-05 0)
(-1.808265e-06 1.307225e-06 0)
(-5.350368e-06 4.784818e-06 0)
(-8.450909e-06 8.497398e-06 6.386515e-30)
(-1.095206e-05 1.244394e-05 1.834305e-29)
(-1.285525e-05 1.651394e-05 7.017151e-29)
(-1.421748e-05 2.050307e-05 5.789095e-29)
(-1.51275e-05 2.419982e-05 0)
(-2.149009e-06 1.418902e-06 -2.246559e-30)
(-6.26448e-06 5.198167e-06 2.915827e-30)
(-9.776734e-06 9.344384e-06 5.978105e-30)
(-1.253429e-05 1.378944e-05 0)
(-1.45801e-05 1.833059e-05 1.316009e-29)
(-1.599962e-05 2.280523e-05 -1.352251e-29)
(-1.688154e-05 2.688721e-05 -2.693109e-29)
(-2.522059e-06 1.521937e-06 -4.174186e-30)
(-7.203411e-06 5.628576e-06 2.913504e-30)
(-1.109075e-05 1.027542e-05 -7.957714e-30)
(-1.408741e-05 1.526879e-05 0)
(-1.629494e-05 2.033263e-05 2.029396e-29)
(-1.784113e-05 2.523876e-05 -8.584197e-29)
(-1.882853e-05 2.965306e-05 -1.377649e-28)
(-2.890205e-06 1.648926e-06 -4.922891e-30)
(-8.052557e-06 6.132197e-06 -5.910664e-30)
(-1.226682e-05 1.130681e-05 -8.983465e-30)
(-1.551799e-05 1.683244e-05 -1.222254e-29)
(-1.796673e-05 2.237054e-05 -2.514715e-29)
(-1.979644e-05 2.763294e-05 -3.121717e-29)
(-2.109198e-05 3.236073e-05 -5.647498e-29)
(-3.19128e-06 1.82994e-06 0)
(-8.699572e-06 6.722871e-06 2.736244e-30)
(-1.322393e-05 1.238216e-05 9.577349e-30)
(-1.675462e-05 1.835585e-05 6.098059e-30)
(-1.953573e-05 2.428105e-05 -2.222405e-29)
(-2.177515e-05 2.986492e-05 -1.304133e-29)
(-2.360308e-05 3.480887e-05 0)
(-3.386475e-06 2.065942e-06 8.658161e-30)
(-9.080109e-06 7.365004e-06 -2.981371e-30)
(-1.385025e-05 1.334802e-05 -1.31799e-29)
(-1.771375e-05 1.96655e-05 2.091591e-29)
(-2.088164e-05 2.584572e-05 -2.341259e-29)
(-2.363889e-05 3.165274e-05 -1.89226e-30)
(-2.618661e-05 3.677594e-05 3.507864e-29)
(-3.478285e-06 2.370591e-06 6.942676e-30)
(-9.161781e-06 7.997233e-06 -2.835272e-30)
(-1.405985e-05 1.408292e-05 0)
(-1.819862e-05 2.051078e-05 3.788023e-30)
(-2.179492e-05 2.685026e-05 2.324359e-29)
(-2.505229e-05 3.275277e-05 2.400847e-29)
(-2.826539e-05 3.811789e-05 -1.262015e-30)
(-3.412741e-06 2.687705e-06 -9.206783e-30)
(-8.942654e-06 8.579105e-06 5.568798e-30)
(-1.381027e-05 1.44862e-05 5.740636e-30)
(-1.806786e-05 2.077335e-05 -6.881863e-29)
(-2.194402e-05 2.700878e-05 -2.323956e-29)
(-2.564759e-05 3.294458e-05 1.284963e-29)
(-2.922602e-05 3.846635e-05 -3.759316e-29)
(-3.153275e-06 2.981857e-06 -9.293703e-30)
(-8.397335e-06 8.968419e-06 0)
(-1.314865e-05 1.455038e-05 1.115947e-29)
(-1.731534e-05 2.044024e-05 1.153434e-29)
(-2.124828e-05 2.630849e-05 1.040129e-28)
(-2.511906e-05 3.204096e-05 1.391684e-28)
(-2.887135e-05 3.771104e-05 2.466155e-29)
(-2.74437e-06 3.137221e-06 0)
(-7.642311e-06 9.026949e-06 1.092401e-29)
(-1.215669e-05 1.417604e-05 6.890238e-31)
(-1.616655e-05 1.960572e-05 -8.349363e-30)
(-1.989778e-05 2.486118e-05 1.45669e-30)
(-2.356408e-05 3.023308e-05 3.063964e-29)
(-2.711214e-05 3.580542e-05 5.030667e-32)
(-2.353992e-06 3.07677e-06 0)
(-6.892032e-06 8.684388e-06 -1.182359e-29)
(-1.101433e-05 1.331811e-05 2.618754e-31)
(-1.47501e-05 1.820541e-05 1.235026e-29)
(-1.826216e-05 2.304198e-05 -1.126626e-29)
(-2.13974e-05 2.792716e-05 3.424252e-29)
(-2.443052e-05 3.31728e-05 -8.010119e-29)
(-2.113163e-06 2.876658e-06 -6.111472e-30)
(-6.295004e-06 8.033089e-06 -8.296397e-30)
(-1.003515e-05 1.21134e-05 2.813463e-32)
(-1.340846e-05 1.643103e-05 -4.189914e-29)
(-1.651428e-05 2.083573e-05 -5.44012e-29)
(-1.926288e-05 2.554174e-05 -1.42662e-30)
(-2.175028e-05 3.014033e-05 -4.501223e-30)
(-1.959072e-06 2.568431e-06 -1.789462e-30)
(-5.840787e-06 7.175247e-06 -7.17471e-30)
(-9.267204e-06 1.074953e-05 4.353923e-30)
(-1.220332e-05 1.447254e-05 -2.09268e-29)
(-1.486521e-05 1.848227e-05 1.607247e-29)
(-1.72362e-05 2.277327e-05 5.2004e-29)
(-1.965239e-05 2.688277e-05 5.522468e-29)
(-1.795371e-06 2.177746e-06 1.977014e-30)
(-5.358864e-06 6.125772e-06 9.986912e-30)
(-8.461216e-06 9.212574e-06 7.413275e-30)
(-1.106003e-05 1.250093e-05 -1.006778e-29)
(-1.334051e-05 1.598519e-05 -1.53915e-29)
(-1.554106e-05 1.966245e-05 4.021783e-30)
(-1.81786e-05 2.305578e-05 1.183478e-30)
(-1.581768e-06 1.726415e-06 4.504335e-33)
(-4.769826e-06 4.942405e-06 1.048075e-29)
(-7.502535e-06 7.523403e-06 4.780213e-30)
(-9.797223e-06 1.036174e-05 4.184386e-32)
(-1.188199e-05 1.33505e-05 1.170107e-30)
(-1.40749e-05 1.625525e-05 -2.010614e-31)
(-1.687967e-05 1.818396e-05 7.334376e-30)
(-1.259099e-06 1.211494e-06 2.335171e-30)
(-3.921594e-06 3.606675e-06 1.582665e-30)
(-6.279654e-06 5.663911e-06 -1.610302e-30)
(-8.373515e-06 8.017561e-06 -6.200821e-32)
(-1.035764e-05 1.030533e-05 -4.48108e-31)
(-1.272842e-05 1.206651e-05 -3.636253e-30)
(-1.609435e-05 1.219053e-05 1.079232e-29)
(-8.335382e-07 6.559318e-07 -8.301374e-31)
(-2.808769e-06 2.138244e-06 -1.022349e-30)
(-4.685641e-06 3.544282e-06 -4.939255e-30)
(-6.4991e-06 5.183362e-06 -2.400423e-30)
(-8.406472e-06 6.489044e-06 1.150628e-28)
(-1.088499e-05 6.632847e-06 1.251449e-28)
(-1.535491e-05 4.002376e-06 2.268678e-28)
(-4.16963e-07 1.309274e-07 -1.567521e-30)
(-1.679428e-06 7.493019e-07 -1.836938e-30)
(-2.970399e-06 1.351328e-06 -8.722801e-31)
(-4.418979e-06 2.01711e-06 7.528254e-32)
(-6.234636e-06 2.036921e-06 -2.027394e-30)
(-8.889002e-06 3.093913e-07 3.813202e-29)
(-1.443372e-05 -7.471623e-06 5.613925e-28)
(-7.008621e-08 -3.692543e-07 -5.443211e-32)
(-6.867546e-07 -6.326613e-07 2.05389e-31)
(-1.494707e-06 -8.506971e-07 3.134051e-31)
(-2.58236e-06 -1.197849e-06 -3.650645e-31)
(-4.151773e-06 -2.540456e-06 -8.34127e-31)
(-7.038254e-06 -6.799604e-06 1.110791e-31)
(-1.464297e-05 -2.56552e-05 -1.31048e-28)
(2.202203e-07 -8.404157e-07 -1.349152e-33)
(1.822226e-07 -1.985007e-06 -4.673024e-30)
(-1.632573e-07 -3.105271e-06 8.247042e-31)
(-8.972903e-07 -4.571871e-06 3.333302e-31)
(-2.124026e-06 -7.372184e-06 2.129747e-29)
(-4.734386e-06 -1.482387e-05 3.863378e-29)
(-1.272827e-05 -4.591514e-05 -2.034107e-32)
(4.624908e-07 -1.258515e-06 -2.874441e-31)
(9.721609e-07 -3.249853e-06 -3.264921e-30)
(1.091213e-06 -5.319974e-06 -4.490313e-31)
(7.845781e-07 -7.919303e-06 6.249445e-32)
(7.630194e-08 -1.204089e-05 2.320666e-29)
(-1.50439e-06 -2.210524e-05 1.304231e-28)
(-6.397725e-06 -6.139882e-05 6.5391e-28)
(6.18245e-07 -1.562109e-06 -3.904741e-31)
(1.594742e-06 -4.27629e-06 3.474979e-31)
(2.177761e-06 -7.240747e-06 -1.73576e-31)
(2.400681e-06 -1.078186e-05 1.008524e-30)
(2.400756e-06 -1.57692e-05 -1.006204e-30)
(2.326838e-06 -2.700885e-05 3.758804e-29)
(2.570674e-06 -6.850345e-05 5.19295e-28)
(7.339477e-07 -1.750641e-06 -4.285432e-30)
(2.088686e-06 -4.978543e-06 -1.454929e-30)
(3.124499e-06 -8.590292e-06 -3.955632e-30)
(3.925387e-06 -1.268238e-05 2.043623e-30)
(4.677174e-06 -1.796584e-05 1.638782e-29)
(6.038353e-06 -2.909952e-05 3.969802e-29)
(1.085487e-05 -6.857903e-05 1.70937e-28)
(8.587502e-07 -1.814918e-06 -3.980763e-30)
(2.546369e-06 -5.294356e-06 -7.856963e-30)
(4.001637e-06 -9.262192e-06 -7.637568e-30)
(5.330005e-06 -1.357786e-05 -4.538503e-30)
(6.718425e-06 -1.880008e-05 -2.934163e-30)
(9.139624e-06 -2.918223e-05 4.070878e-29)
(1.69779e-05 -6.470453e-05 -1.489502e-28)
(9.341026e-07 -1.743533e-06 -3.332469e-31)
(2.854759e-06 -5.207351e-06 -1.186927e-29)
(4.642879e-06 -9.287871e-06 6.342375e-31)
(6.415845e-06 -1.362952e-05 -3.657481e-30)
(8.286898e-06 -1.864501e-05 3.95121e-30)
(1.139829e-05 -2.809891e-05 4.556261e-30)
(2.080898e-05 -5.944433e-05 4.160225e-29)
(9.319446e-07 -1.559357e-06 -1.58579e-30)
(2.933036e-06 -4.765949e-06 -9.339401e-31)
(4.928661e-06 -8.740548e-06 -1.865002e-30)
(6.9953e-06 -1.292061e-05 8.942367e-31)
(9.160281e-06 -1.763965e-05 -3.607198e-31)
(1.243503e-05 -2.598616e-05 2.867251e-28)
(2.103513e-05 -5.222176e-05 4.378323e-28)
(8.740216e-07 -1.298522e-06 -1.449841e-29)
(2.814709e-06 -4.045092e-06 1.088316e-29)
(4.832894e-06 -7.601095e-06 2.06537e-29)
(7.017429e-06 -1.143174e-05 2.184261e-29)
(9.299724e-06 -1.572886e-05 -3.309173e-32)
(1.242305e-05 -2.300763e-05 4.860848e-29)
(1.97122e-05 -4.573565e-05 1.849678e-28)
(7.590051e-07 -9.615473e-07 -9.603245e-30)
(2.511449e-06 -3.056468e-06 1.19932e-29)
(4.437024e-06 -6.050395e-06 1.093158e-29)
(6.593466e-06 -9.399831e-06 -1.161328e-29)
(8.911556e-06 -1.324219e-05 1.370024e-29)
(1.181589e-05 -1.93493e-05 4.25041e-29)
(1.787507e-05 -3.807936e-05 9.801215e-30)
(5.830156e-07 -5.927259e-07 -1.690999e-30)
(2.053628e-06 -1.946923e-06 -2.209252e-30)
(3.79732e-06 -4.232663e-06 -1.330091e-29)
(5.882784e-06 -6.976253e-06 1.163875e-29)
(8.255106e-06 -1.032964e-05 1.39911e-29)
(1.103636e-05 -1.533826e-05 -4.254312e-29)
(1.606598e-05 -2.949081e-05 -1.38125e-28)
(3.86162e-07 -2.142954e-07 -9.545472e-30)
(1.589026e-06 -7.802124e-07 1.132784e-31)
(3.133185e-06 -2.261854e-06 -1.234097e-29)
(5.117808e-06 -4.282087e-06 2.372613e-29)
(7.595121e-06 -7.065852e-06 -2.234093e-29)
(1.047073e-05 -1.10633e-05 -7.450856e-29)
(1.52274e-05 -2.118996e-05 2.326879e-28)
(2.582796e-07 1.728512e-07 -1.137617e-29)
(1.264408e-06 3.921071e-07 7.55131e-30)
(2.615095e-06 -2.647915e-07 -2.045866e-30)
(4.434942e-06 -1.404998e-06 -5.325563e-31)
(6.889856e-06 -3.447963e-06 1.511732e-30)
(9.90734e-06 -6.659005e-06 -3.026662e-29)
(1.453457e-05 -1.415816e-05 -6.557043e-29)
(2.858709e-07 5.089691e-07 0)
(1.165169e-06 1.467105e-06 1.968134e-29)
(2.323667e-06 1.628993e-06 -4.220828e-30)
(3.848971e-06 1.372541e-06 8.139052e-30)
(6.049727e-06 1.080458e-07 -2.557944e-29)
(8.906765e-06 -2.34428e-06 -3.231519e-29)
(1.330153e-05 -7.659983e-06 2.857252e-28)
(4.528297e-07 7.317517e-07 0)
(1.253048e-06 2.297708e-06 -1.124937e-29)
(2.197416e-06 3.201261e-06 -2.112202e-29)
(3.357593e-06 3.718703e-06 1.092364e-29)
(5.095156e-06 3.290569e-06 1.32439e-29)
(7.589756e-06 1.73519e-06 1.060001e-28)
(1.155958e-05 -1.871579e-06 1.788792e-28)
(6.433806e-07 7.873967e-07 -6.702913e-30)
(1.412411e-06 2.764068e-06 0)
(2.107414e-06 4.330693e-06 0)
(2.875782e-06 5.546467e-06 -8.611739e-30)
(4.053254e-06 6.012252e-06 1.275309e-29)
(5.911654e-06 5.436308e-06 -7.686361e-31)
(8.888993e-06 3.352696e-06 7.299165e-29)
(7.555327e-07 7.432764e-07 -5.785473e-30)
(1.55252e-06 2.939206e-06 -5.653987e-30)
(2.028647e-06 5.053691e-06 -5.859192e-30)
(2.394521e-06 6.905828e-06 -4.889443e-29)
(2.979831e-06 8.136134e-06 -4.075485e-29)
(4.052276e-06 8.497277e-06 -1.369562e-30)
(5.743148e-06 7.780971e-06 -3.213349e-30)
(7.823423e-07 6.763684e-07 0)
(1.625944e-06 2.949841e-06 6.229127e-30)
(1.944921e-06 5.440061e-06 0)
(1.947682e-06 7.779235e-06 -1.230682e-29)
(1.965631e-06 9.62602e-06 -1.252182e-29)
(2.2388e-06 1.076579e-05 2.289141e-29)
(2.803251e-06 1.108719e-05 -1.128607e-30)
(7.538957e-07 6.188007e-07 0)
(1.649413e-06 2.899207e-06 -3.64225e-30)
(1.896911e-06 5.563759e-06 4.526298e-30)
(1.643205e-06 8.21221e-06 0)
(1.195207e-06 1.04956e-05 -2.490832e-29)
(7.896783e-07 1.222212e-05 -4.813769e-29)
(4.967429e-07 1.329912e-05 -9.16186e-31)
(6.94963e-07 6.068045e-07 0)
(1.637439e-06 2.858917e-06 -1.073552e-29)
(1.895317e-06 5.536652e-06 -2.321001e-31)
(1.54276e-06 8.301189e-06 -2.960901e-29)
(8.324455e-07 1.084983e-05 -2.475327e-29)
(-2.633911e-08 1.300175e-05 1.862904e-30)
(-9.873515e-07 1.464313e-05 -1.06298e-28)
(6.183877e-07 6.343122e-07 2.60918e-30)
(1.570984e-06 2.869975e-06 -8.762333e-30)
(1.901065e-06 5.457155e-06 1.167716e-31)
(1.607298e-06 8.206175e-06 2.284471e-30)
(8.653436e-07 1.086448e-05 0)
(-1.387099e-07 1.324344e-05 0)
(-1.376195e-06 1.526719e-05 3.190902e-29)
(5.407525e-07 6.767916e-07 -2.262074e-31)
(1.458428e-06 2.911741e-06 -5.412994e-30)
(1.874406e-06 5.395555e-06 2.21879e-30)
(1.72455e-06 8.049096e-06 1.890549e-30)
(1.124128e-06 1.069631e-05 0)
(1.92756e-07 1.320614e-05 0)
(-9.499029e-07 1.543004e-05 -2.050383e-29)
(4.781652e-07 7.041127e-07 -1.662429e-30)
(1.343565e-06 2.94028e-06 -1.342207e-29)
(1.822939e-06 5.333628e-06 -5.871227e-30)
(1.834382e-06 7.8785e-06 -4.654039e-30)
(1.44675e-06 1.046245e-05 3.701119e-29)
(7.696075e-07 1.298815e-05 4.018293e-29)
(-5.745927e-08 1.533135e-05 -1.322475e-29)
(4.346812e-07 7.070588e-07 -3.445666e-30)
(1.260674e-06 2.915706e-06 -2.887006e-30)
(1.782861e-06 5.224761e-06 5.850764e-30)
(1.928931e-06 7.66006e-06 5.989982e-30)
(1.752525e-06 1.017499e-05 0)
(1.365107e-06 1.265516e-05 -1.020137e-29)
(8.86236e-07 1.499615e-05 -2.612821e-31)
(4.097983e-07 6.891491e-07 0)
(1.213043e-06 2.835948e-06 -5.776386e-30)
(1.77254e-06 5.046304e-06 -5.870191e-30)
(2.027194e-06 7.396956e-06 4.676574e-29)
(2.037096e-06 9.8095e-06 4.947e-29)
(1.903536e-06 1.219941e-05 -1.27372e-29)
(1.711346e-06 1.448934e-05 -1.269677e-29)
(3.991698e-07 6.511675e-07 -2.253909e-30)
(1.194809e-06 2.710515e-06 -2.888642e-30)
(1.791539e-06 4.807491e-06 0)
(2.145041e-06 7.048465e-06 -2.851537e-31)
(2.305317e-06 9.349614e-06 -1.188635e-31)
(2.350159e-06 1.161563e-05 -3.244423e-31)
(2.372208e-06 1.383097e-05 -1.218635e-29)
(3.934893e-07 6.003683e-07 -7.038527e-31)
(1.18633e-06 2.55187e-06 -7.690135e-30)
(1.81505e-06 4.53846e-06 -3.12278e-29)
(2.239307e-06 6.638645e-06 -2.75378e-29)
(2.510866e-06 8.794768e-06 -6.40158e-30)
(2.692203e-06 1.093926e-05 0)
(2.864371e-06 1.305302e-05 1.214401e-29)
(3.888797e-07 5.420188e-07 2.443679e-30)
(1.180845e-06 2.383076e-06 2.820737e-30)
(1.836e-06 4.238105e-06 -1.74164e-30)
(2.314929e-06 6.192011e-06 0)
(2.655304e-06 8.191072e-06 2.988903e-31)
(2.927395e-06 1.020269e-05 0)
(3.194439e-06 1.219554e-05 -5.326074e-31)
(3.834582e-07 4.792857e-07 0)
(1.169517e-06 2.196591e-06 0)
(1.834542e-06 3.911782e-06 8.698298e-31)
(2.339179e-06 5.710027e-06 0)
(2.727954e-06 7.563202e-06 9.260685e-31)
(3.058215e-06 9.437026e-06 5.000172e-31)
(3.379862e-06 1.130071e-05 -7.016552e-31)
(3.746605e-07 4.175122e-07 3.517901e-31)
(1.139203e-06 2.001922e-06 0)
(1.798729e-06 3.57149e-06 3.548817e-30)
(2.317639e-06 5.223662e-06 2.494588e-30)
(2.734325e-06 6.93342e-06 6.110699e-31)
(3.097954e-06 8.669534e-06 1.265689e-30)
(3.450258e-06 1.040151e-05 8.081364e-31)
(3.629546e-07 3.523444e-07 1.690811e-30)
(1.099664e-06 1.808179e-06 2.072278e-30)
(1.739313e-06 3.235755e-06 0)
(2.256539e-06 4.746745e-06 5.257682e-30)
(2.683383e-06 6.317989e-06 5.958601e-30)
(3.061298e-06 7.922103e-06 -4.566145e-30)
(3.424852e-06 9.530108e-06 -1.834249e-29)
(3.444346e-07 2.888557e-07 5.828138e-31)
(1.044036e-06 1.617649e-06 8.071722e-31)
(1.657415e-06 2.911664e-06 -6.737685e-31)
(2.16207e-06 4.288174e-06 0)
(2.585537e-06 5.72756e-06 0)
(2.962817e-06 7.207456e-06 8.321781e-31)
(3.322222e-06 8.713114e-06 4.843866e-29)
(3.230929e-07 2.283851e-07 7.346212e-31)
(9.794308e-07 1.436048e-06 7.928562e-31)
(1.558997e-06 2.603441e-06 -8.511724e-31)
(2.042095e-06 3.852723e-06 0)
(2.452681e-06 5.167558e-06 5.950329e-30)
(2.822181e-06 6.530006e-06 2.596202e-34)
(3.178866e-06 7.937243e-06 -6.24666e-30)
(2.993837e-07 1.713883e-07 0)
(9.080959e-07 1.264768e-06 9.61645e-31)
(1.44885e-06 2.313236e-06 -8.484492e-31)
(1.903735e-06 3.442881e-06 0)
(2.293771e-06 4.640333e-06 -5.097247e-30)
(2.646321e-06 5.891048e-06 -1.203931e-29)
(2.983002e-06 7.192972e-06 -6.228342e-30)
(2.742889e-07 1.181126e-07 -7.961826e-31)
(8.329872e-07 1.104643e-06 -1.470346e-30)
(1.331737e-06 2.041987e-06 -2.471887e-30)
(1.754092e-06 3.059769e-06 -2.960585e-30)
(2.118374e-06 4.147072e-06 -2.905043e-30)
(2.448537e-06 5.292252e-06 1.110093e-30)
(2.760203e-06 6.492792e-06 0)
(2.486423e-07 6.863685e-08 -1.760028e-30)
(7.565413e-07 9.558937e-07 0)
(1.212011e-06 1.789997e-06 0)
(1.599641e-06 2.703773e-06 1.99524e-30)
(1.934309e-06 3.688508e-06 9.067682e-31)
(2.235753e-06 4.742667e-06 1.24391e-30)
(2.522044e-06 5.848012e-06 0)
(2.232683e-07 2.275859e-08 -9.533133e-31)
(6.811455e-07 8.181278e-07 -1.47228e-30)
(1.093724e-06 1.556828e-06 -1.476208e-30)
(1.446859e-06 2.374253e-06 -3.026567e-30)
(1.753688e-06 3.263379e-06 -4.139109e-30)
(2.034995e-06 4.230303e-06 0)
(2.295958e-06 5.248168e-06 1.345308e-30)
(1.986724e-07 -1.965981e-08 -5.83853e-31)
(6.083857e-07 6.906848e-07 -1.089671e-30)
(9.794624e-07 1.341131e-06 -3.956176e-31)
(1.298819e-06 2.069451e-06 2.180148e-30)
(1.577595e-06 2.869975e-06 0)
(1.832459e-06 3.749986e-06 2.270883e-30)
(2.068262e-06 4.686178e-06 6.146084e-32)
(1.752743e-07 -5.901173e-08 1.547452e-30)
(5.394027e-07 5.72511e-07 1.645675e-30)
(8.712289e-07 1.141213e-06 8.222176e-31)
(1.158403e-06 1.787121e-06 -1.807134e-30)
(1.410656e-06 2.505765e-06 -2.993428e-30)
(1.640341e-06 3.304933e-06 2.352301e-30)
(1.853119e-06 4.165653e-06 1.57829e-30)
(1.533448e-07 -9.56749e-08 1.039126e-30)
(4.750672e-07 4.624227e-07 2.441409e-30)
(7.702357e-07 9.549409e-07 1.208059e-30)
(1.026558e-06 1.524169e-06 0)
(1.251115e-06 2.170711e-06 -2.420846e-29)
(1.458691e-06 2.89535e-06 -3.045469e-29)
(1.653319e-06 3.68193e-06 -6.001077e-30)
(1.331006e-07 -1.301524e-07 4.208262e-31)
(4.160599e-07 3.587804e-07 2.010269e-30)
(6.781523e-07 7.7954e-07 4.434199e-30)
(9.082248e-07 1.276508e-06 2.975568e-30)
(1.114587e-06 1.85355e-06 0)
(1.302551e-06 2.508948e-06 1.386378e-30)
(1.474166e-06 3.227419e-06 2.987585e-30)
(1.146769e-07 -1.630607e-07 4.802961e-31)
(3.627267e-07 2.597674e-07 1.966885e-30)
(5.952152e-07 6.119358e-07 2.956905e-30)
(8.014034e-07 1.039922e-06 1.487706e-30)
(9.873155e-07 1.548119e-06 0)
(1.157172e-06 2.137133e-06 4.438287e-30)
(1.312911e-06 2.794913e-06 5.968305e-30)
(9.81885e-08 -1.950144e-07 5.868858e-31)
(3.155244e-07 1.634902e-07 3.270051e-30)
(5.223694e-07 4.490861e-07 1.47881e-30)
(7.082287e-07 8.102831e-07 1.487661e-30)
(8.766087e-07 1.251726e-06 0)
(1.030844e-06 1.776915e-06 0)
(1.172362e-06 2.376982e-06 0)
(8.384063e-08 -2.267202e-07 0)
(2.750864e-07 6.786348e-08 1.294308e-30)
(4.606658e-07 2.874132e-07 0)
(6.301253e-07 5.825379e-07 -4.254072e-30)
(7.839508e-07 9.584325e-07 -3.033735e-30)
(9.249677e-07 1.421232e-06 -2.993234e-30)
(1.053761e-06 1.965333e-06 -4.307538e-30)
(7.182061e-08 -2.58952e-07 1.027651e-30)
(2.420485e-07 -2.954612e-08 0)
(4.105997e-07 1.227618e-07 2.966067e-30)
(5.655308e-07 3.516363e-07 -2.237174e-29)
(7.085713e-07 6.624621e-07 -2.273132e-29)
(8.407665e-07 1.061978e-06 0)
(9.585392e-07 1.551004e-06 -1.363206e-30)
(6.247953e-08 -2.927591e-07 1.060268e-30)
(2.180957e-07 -1.319135e-07 0)
(3.767813e-07 -5.018158e-08 1.485281e-30)
(5.271162e-07 1.085523e-07 1.508369e-30)
(6.633621e-07 3.518896e-07 2.839184e-30)
(7.833075e-07 6.891984e-07 -1.324345e-30)
(8.892208e-07 1.124147e-06 1.313534e-30)
(5.641011e-08 -3.294267e-07 0)
(2.048478e-07 -2.432461e-07 2.701033e-30)
(3.601447e-07 -2.380362e-07 1.485465e-30)
(5.079799e-07 -1.548118e-07 -1.851283e-30)
(6.399969e-07 1.769973e-08 1.410576e-30)
(7.527794e-07 2.923486e-07 -1.355225e-30)
(8.476404e-07 6.7396e-07 3.862578e-32)
(5.462235e-08 -3.707841e-07 0)
(2.058035e-07 -3.68944e-07 1.24596e-30)
(3.665267e-07 -4.494386e-07 -1.207284e-30)
(5.183136e-07 -4.494413e-07 -3.719103e-31)
(6.493257e-07 -3.526886e-07 2.844783e-30)
(7.549772e-07 -1.421707e-07 2.973709e-30)
(8.370497e-07 1.875337e-07 -1.330917e-30)
(5.884564e-08 -4.192398e-07 0)
(2.264703e-07 -5.167029e-07 0)
(4.041041e-07 -6.970508e-07 -1.227223e-30)
(5.670035e-07 -7.913229e-07 1.797585e-30)
(6.991427e-07 -7.765621e-07 4.005602e-32)
(7.957637e-07 -6.312259e-07 0)
(8.609528e-07 -3.502965e-07 0)
(7.215792e-08 -4.788498e-07 9.422625e-31)
(2.759192e-07 -6.985582e-07 -1.145895e-30)
(4.857786e-07 -9.996015e-07 -2.065527e-30)
(6.671827e-07 -1.20329e-06 3.109872e-31)
(8.000318e-07 -1.277476e-06 -3.862235e-32)
(8.821084e-07 -1.196383e-06 2.970295e-30)
(9.226269e-07 -9.575386e-07 1.220969e-35)
(9.992783e-08 -5.561966e-07 3.234767e-32)
(3.70366e-07 -9.337688e-07 -1.145891e-30)