/*--------------------------------*- C++ -*----------------------------------*\
| =========                 |                                                 |
| \\      /  F ield         | OpenFOAM: The Open Source CFD Toolbox           |
|  \\    /   O peration     | Version:  2206                                  |
|   \\  /    A nd           | Website:  www.openfoam.com                      |
|    \\/     M anipulation  |                                                 |
\*---------------------------------------------------------------------------*/
FoamFile
{
    version     2.0;
    format      ascii;
    arch        "LSB;label=32;scalar=64";
    class       volVectorField;
    location    "2.6";
    object      U.b;
}
// * * * * * * * * * * * * * * * * * * * * * * * * * * * * * * * * * * * * * //

dimensions      [0 1 -1 0 0 0 0];

internalField   nonuniform List<vector> 
13078
(
(-4.580328e-06 2.796738e-05 -5.940101e-27)
(-3.839584e-06 6.040877e-05 5.588158e-30)
(-2.734322e-06 3.134304e-05 3.427167e-27)
(-2.5233e-06 1.369494e-05 0)
(-2.558551e-06 3.425271e-06 4.838066e-28)
(-2.747794e-06 -1.61499e-06 2.728443e-28)
(-3.037143e-06 -5.350169e-06 1.142208e-28)
(3.125925e-05 7.542769e-06 0)
(8.054919e-06 4.623024e-05 -3.180971e-29)
(3.533411e-06 2.985814e-05 0)
(3.699497e-08 1.253017e-05 0)
(-6.092594e-07 3.603443e-06 -1.587621e-30)
(-1.17157e-06 -1.626235e-06 -2.307358e-31)
(-1.778942e-06 -5.538221e-06 3.444207e-31)
(7.294507e-05 9.940735e-06 4.54685e-27)
(3.18593e-05 2.278714e-05 -2.455894e-27)
(1.149955e-05 1.656989e-05 -8.67423e-28)
(4.79086e-06 8.83634e-06 -1.221893e-27)
(2.242232e-06 2.712781e-06 -3.908606e-28)
(7.785901e-07 -2.017911e-06 0)
(-3.119553e-07 -5.861854e-06 4.315951e-34)
(4.407992e-05 5.773494e-06 2.474794e-27)
(2.621858e-05 1.246955e-05 -3.475805e-27)
(1.469433e-05 1.015162e-05 -2.300524e-27)
(8.359809e-06 5.99842e-06 -7.49528e-28)
(5.052606e-06 1.476035e-06 1.420799e-29)
(2.91324e-06 -2.690406e-06 0)
(1.355425e-06 -6.357432e-06 2.925803e-30)
(3.259189e-05 3.642102e-06 4.450436e-30)
(2.385987e-05 7.561553e-06 -1.395505e-27)
(1.657554e-05 6.547736e-06 -2.169992e-27)
(1.13059e-05 3.661477e-06 -1.571247e-27)
(7.634038e-06 1.175672e-07 8.119542e-28)
(5.150676e-06 -3.586151e-06 -2.077589e-32)
(3.199954e-06 -7.057799e-06 4.498259e-30)
(2.852521e-05 2.289239e-06 0)
(2.345957e-05 4.624343e-06 -1.19803e-29)
(1.821692e-05 3.872853e-06 1.347935e-29)
(1.376651e-05 1.600707e-06 -8.649533e-28)
(1.025576e-05 -1.437807e-06 -1.413309e-29)
(7.426631e-06 -4.696813e-06 2.946707e-29)
(5.200835e-06 -8.008439e-06 -1.491066e-28)
(2.708471e-05 1.322708e-06 0)
(2.383694e-05 2.466872e-06 -1.263682e-27)
(1.992376e-05 1.614444e-06 -9.815658e-28)
(1.614545e-05 -3.618971e-07 9.509761e-29)
(1.27819e-05 -3.110915e-06 -7.690286e-28)
(9.885483e-06 -6.156176e-06 5.894514e-30)
(7.290698e-06 -9.226996e-06 0)
(2.705783e-05 6.101321e-07 2.708536e-27)
(2.481788e-05 7.721924e-07 -1.281743e-27)
(2.177633e-05 -3.572987e-07 -1.160611e-27)
(1.851646e-05 -2.342685e-06 0)
(1.531323e-05 -4.950242e-06 -1.723479e-27)
(1.235414e-05 -7.858172e-06 1.489114e-29)
(9.592149e-06 -1.084992e-05 2.493177e-29)
(2.797852e-05 5.979558e-08 6.809821e-32)
(2.631768e-05 -6.246126e-07 2.67719e-27)
(2.384384e-05 -2.164198e-06 1.240987e-27)
(2.095514e-05 -4.300251e-06 7.702172e-30)
(1.789522e-05 -6.926733e-06 -3.850666e-27)
(1.48939e-05 -9.804888e-06 2.397208e-29)
(1.194787e-05 -1.276656e-05 0)
(2.964205e-05 -3.908251e-07 -2.950667e-27)
(2.831143e-05 -1.830746e-06 2.853999e-27)
(2.619531e-05 -3.855745e-06 1.339084e-27)
(2.355622e-05 -6.264807e-06 -2.435221e-27)
(2.05924e-05 -9.030798e-06 -6.95112e-31)
(1.753684e-05 -1.19827e-05 0)
(1.441214e-05 -1.49901e-05 0)
(3.195142e-05 -7.87672e-07 0)
(3.080194e-05 -2.931462e-06 0)
(2.889306e-05 -5.480953e-06 2.923416e-27)
(2.640277e-05 -8.257219e-06 -2.688254e-27)
(2.347027e-05 -1.127075e-05 9.681039e-31)
(2.033087e-05 -1.439026e-05 0)
(1.70149e-05 -1.75178e-05 0)
(3.486794e-05 -1.156859e-06 0)
(3.380792e-05 -3.982951e-06 -3.376709e-27)
(3.199886e-05 -7.092987e-06 3.216747e-27)
(2.956372e-05 -1.03117e-05 2.946276e-27)
(2.659845e-05 -1.366331e-05 -2.750695e-27)
(2.333328e-05 -1.703683e-05 0)
(1.979874e-05 -2.035851e-05 2.178614e-27)
(3.839145e-05 -1.518068e-06 0)
(3.735731e-05 -5.030167e-06 -3.739073e-27)
(3.556722e-05 -8.739319e-06 -2.726406e-29)
(3.310821e-05 -1.246501e-05 3.311747e-27)
(3.004967e-05 -1.623449e-05 -3.031653e-27)
(2.660626e-05 -1.994309e-05 2.700844e-27)
(2.28146e-05 -2.353054e-05 2.038482e-30)
(4.254477e-05 -1.88617e-06 -4.225884e-27)
(4.149058e-05 -6.108531e-06 0)
(3.965577e-05 -1.04618e-05 -3.315663e-29)
(3.709667e-05 -1.475436e-05 -4.686249e-29)
(3.390368e-05 -1.901204e-05 -6.797613e-27)
(3.021338e-05 -2.313913e-05 3.044758e-27)
(2.611888e-05 -2.706143e-05 -2.646766e-27)
(4.736938e-05 -2.272058e-06 -4.704807e-27)
(4.62613e-05 -7.24779e-06 0)
(4.433593e-05 -1.230849e-05 -7.856235e-29)
(4.160733e-05 -1.726363e-05 4.877066e-27)
(3.829273e-05 -2.198972e-05 -2.728492e-27)
(3.423227e-05 -2.665012e-05 0)
(2.977441e-05 -3.098521e-05 2.992311e-27)
(5.292111e-05 -2.683778e-06 0)
(5.172889e-05 -8.465494e-06 -5.136083e-27)
(4.967221e-05 -1.42756e-05 0)
(4.679671e-05 -1.987725e-05 4.783026e-27)
(4.315116e-05 -2.533235e-05 1.639634e-28)
(3.872334e-05 -3.054038e-05 1.992598e-28)
(3.38465e-05 -3.535121e-05 3.61814e-27)
(5.927006e-05 -3.130744e-06 0)
(5.796586e-05 -9.792558e-06 -1.150415e-26)
(5.57305e-05 -1.643895e-05 -5.321816e-29)
(5.261233e-05 -2.281549e-05 -7.405663e-29)
(4.86252e-05 -2.899698e-05 0)
(4.376919e-05 -3.484773e-05 0)
(3.840429e-05 -4.021074e-05 0)
(6.650044e-05 -3.620282e-06 -6.595311e-27)
(6.505859e-05 -1.124757e-05 -6.471322e-27)
(6.260526e-05 -1.881558e-05 -1.222587e-28)
(5.918421e-05 -2.605719e-05 -8.479869e-29)
(5.479849e-05 -3.304257e-05 0)
(4.945566e-05 -3.962517e-05 -5.151616e-27)
(4.352234e-05 -4.562312e-05 -6.021569e-28)
(7.470873e-05 -4.159137e-06 -7.409019e-27)
(7.310343e-05 -1.285126e-05 -7.266065e-27)
(7.039307e-05 -2.143944e-05 -2.091604e-28)
(6.66137e-05 -2.964411e-05 -1.932416e-28)
(6.174634e-05 -3.751954e-05 0)
(5.589733e-05 -4.491585e-05 -5.520965e-27)
(4.928087e-05 -5.165582e-05 -3.410448e-28)
(8.400385e-05 -4.754557e-06 -8.335661e-27)
(8.220867e-05 -1.462427e-05 -1.629004e-26)
(7.920533e-05 -2.43468e-05 -7.839342e-27)
(7.50293e-05 -3.365071e-05 0)
(6.959467e-05 -4.260969e-05 2.122928e-27)
(6.332648e-05 -5.069555e-05 3.232641e-27)
(5.578761e-05 -5.836296e-05 7.692337e-28)
(9.450666e-05 -5.412687e-06 -9.386337e-27)
(9.249227e-05 -1.658386e-05 -1.829297e-26)
(8.915328e-05 -2.755242e-05 -1.754997e-26)
(8.453601e-05 -3.801622e-05 -8.106591e-27)
(7.865153e-05 -4.795373e-05 3.137893e-28)
(7.153683e-05 -5.729721e-05 -6.910335e-27)
(6.312475e-05 -6.585659e-05 5.763236e-27)
(0.0001063521 -6.142328e-06 0)
(0.0001040866 -1.875726e-05 -1.024466e-26)
(0.0001003662 -3.111725e-05 -9.823916e-27)
(9.523171e-05 -4.291134e-05 -1.88117e-26)
(8.871472e-05 -5.408428e-05 0)
(8.078286e-05 -6.46021e-05 -7.799884e-27)
(7.142561e-05 -7.420716e-05 1.047999e-29)
(0.000119689 -6.950094e-06 1.186969e-26)
(0.0001171397 -2.116487e-05 0)
(0.0001129949 -3.506867e-05 0)
(0.0001072854 -4.834092e-05 3.071654e-28)
(0.0001000355 -6.090165e-05 1.024662e-26)
(9.116735e-05 -7.269621e-05 0)
(8.086443e-05 -8.346503e-05 -7.919736e-27)
(0.0001346794 -7.842925e-06 2.670981e-26)
(0.0001318113 -2.382666e-05 0)
(0.0001271992 -3.944064e-05 0)
(0.0001208638 -5.436396e-05 1.156844e-26)
(0.0001128371 -6.854238e-05 2.176544e-26)
(0.0001029246 -8.198084e-05 -1.008837e-26)
(9.184201e-05 -9.360648e-05 0)
(0.0001514978 -8.827251e-06 1.502121e-26)
(0.0001482729 -2.676135e-05 8.70155e-29)
(0.0001431466 -4.425952e-05 1.426771e-26)
(0.0001361229 -6.098476e-05 3.972729e-28)
(0.0001272655 -7.682217e-05 5.149741e-28)
(0.0001165522 -9.161071e-05 -1.14266e-26)
(0.0001039568 -0.0001052036 0)
(0.0001703304 -9.909262e-06 0)
(0.0001667099 -2.998967e-05 -1.647474e-26)
(0.0001610222 -4.956939e-05 1.588883e-26)
(0.0001532471 -6.83088e-05 0)
(0.000143449 -8.608465e-05 -1.298433e-26)
(0.0001316343 -0.0001026933 2.692186e-27)
(0.0001176357 -0.0001180701 1.553348e-27)
(0.0001913724 -1.109237e-05 -1.896301e-26)
(0.0001873229 -3.352499e-05 -1.851389e-26)
(0.000181029 -5.539305e-05 1.7842e-26)
(0.0001724544 -7.635188e-05 0)
(0.0001616576 -9.626949e-05 -1.256991e-27)
(0.0001486258 -0.0001149189 -2.00899e-30)
(0.0001331221 -0.0001322549 1.738705e-27)
(0.0002148177 -1.237847e-05 -2.128728e-26)
(0.0002103328 -3.736339e-05 -2.076912e-26)
(0.0002033776 -6.174437e-05 2.004949e-26)
(0.0001939612 -8.514032e-05 0)
(0.0001821235 -0.0001074314 0)
(0.0001678773 -0.0001284709 -1.642583e-26)
(0.0001508726 -0.0001484213 -1.484231e-28)
(0.0002408654 -1.374329e-05 -2.390425e-26)
(0.0002359581 -4.150386e-05 -2.343984e-26)
(0.0002282836 -6.863204e-05 0)
(0.0002179873 -9.467961e-05 2.017848e-26)
(0.000205036 -0.0001195157 -1.563099e-27)
(0.0001894637 -0.000142812 -3.519826e-26)
(0.0001711408 -0.0001641102 6.44023e-27)
(0.0002696573 -1.528564e-05 -2.671482e-26)
(0.0002645616 -4.577299e-05 0)
(0.0002560195 -7.599789e-05 -2.568475e-26)
(0.0002448002 -0.0001050074 2.337172e-26)
(0.0002307003 -0.0001327572 -2.258654e-26)
(0.0002136714 -0.0001590036 -4.175749e-26)
(0.0001934659 -0.000183409 -1.882328e-26)
(0.0003017512 -1.669958e-05 0)
(0.000295875 -5.051761e-05 0)
(0.000286829 -8.382222e-05 -5.644456e-26)
(0.00027469 -0.0001160579 0)
(0.0002594826 -0.0001469992 -5.080951e-26)
(0.0002411453 -0.0001765063 -2.355988e-26)
(0.0002194159 -0.0002044719 2.133123e-26)
(0.0003369654 -1.841221e-05 -3.352005e-26)
(0.0003302097 -5.573664e-05 3.228217e-26)
(0.0003211693 -9.161127e-05 3.122943e-26)
(0.0003081019 -0.0001275223 0)
(0.0002916485 -0.0001620637 -2.856141e-26)
(0.0002721052 -0.0001949952 0)
(0.0002489721 -0.0002261942 1.830238e-26)
(0.0003755348 -2.004907e-05 -3.723619e-26)
(0.00036858 -6.046519e-05 3.646092e-26)
(0.0003582042 -0.0001006287 1.054746e-25)
(0.0003457269 -0.0001388873 6.875653e-26)
(0.0003276012 -0.0001777312 -2.967006e-26)
(0.0003069018 -0.0002146229 2.80714e-27)
(0.0002822623 -0.0002498329 -3.267403e-27)
(0.0004173934 -2.171775e-05 6.879479e-29)
(0.0004100162 -6.534334e-05 2.131951e-28)
(0.0003996899 -0.0001083329 4.086413e-26)
(0.000386068 -0.0001511306 7.29531e-26)
(0.000367791 -0.000193678 -4.101461e-26)
(0.0003460703 -0.0002350664 6.150341e-27)
(0.0003201475 -0.0002748687 1.441309e-26)
(0.0004625484 -2.334622e-05 -7.380562e-29)
(0.0004546945 -7.027148e-05 -2.293414e-28)
(0.0004443758 -0.0001168406 4.242832e-26)
(0.0004299139 -0.0001639458 2.485214e-26)
(0.0004132008 -0.000208545 -2.554772e-26)
(0.0003905048 -0.0002553946 3.124711e-26)
(0.0003631511 -0.0003006221 0)
(0.0005107402 -2.476372e-05 0)
(0.0005024839 -7.453894e-05 0)
(0.0004925455 -0.0001240115 4.877166e-26)
(0.0004793493 -0.0001739841 5.173806e-26)
(0.0004613676 -0.000225322 7.227171e-26)
(0.0004416023 -0.0002742394 6.944924e-26)
(0.0004119971 -0.0003264711 0)
(0.0005614251 -2.585368e-05 -1.625797e-28)
(0.0005528133 -7.788692e-05 4.918103e-28)
(0.0005434051 -0.0001299442 1.697361e-27)
(0.0005315046 -0.0001828386 0)
(0.0005156363 -0.0002369637 1.014741e-25)
(0.0004958172 -0.000293273 -7.626955e-27)
(0.0004681388 -0.0003514153 -1.83844e-26)
(0.0006136362 -2.639283e-05 -6.069901e-26)
(0.000604783 -7.972705e-05 5.218853e-28)
(0.0005964167 -0.0001338307 -5.911881e-26)
(0.000586586 -0.0001899164 0)
(0.0005735995 -0.0002489034 6.300418e-26)
(0.0005551395 -0.0003122746 4.128838e-27)
(0.00053509 -0.0003735769 -9.089526e-26)
(0.0006657684 -2.613601e-05 -6.592557e-26)
(0.0006573057 -7.938095e-05 -6.471113e-26)
(0.0006507665 -0.0001347047 -6.462332e-26)
(0.0006442384 -0.0001930753 -5.034517e-27)
(0.0006359792 -0.0002553102 -1.337628e-26)
(0.000623451 -0.0003217397 3.601023e-26)
(0.0006071152 -0.0003941971 -4.096293e-26)
(0.0007158875 -2.51595e-05 0)
(0.0007089901 -7.615553e-05 6.91119e-26)
(0.0007055105 -0.0001316121 6.999083e-26)
(0.0007034444 -0.0001915404 2.530308e-27)
(0.0007016536 -0.0002570295 -7.605453e-26)
(0.0006972406 -0.0003297093 -8.657219e-27)
(0.0006866555 -0.0004120805 0)
(0.0007626809 -2.283514e-05 7.588467e-26)
(0.0007569769 -7.130919e-05 1.473152e-25)
(0.0007587825 -0.0001230219 6.965227e-26)
(0.0007630495 -0.0001828744 1.511498e-25)
(0.0007692908 -0.0002496911 -8.277212e-26)
(0.0007763098 -0.0003251141 6.797635e-26)
(0.0007780903 -0.0004117226 -9.727112e-26)
(0.0008027841 -1.957698e-05 7.981113e-26)
(0.0008010869 -6.203463e-05 -4.190277e-28)
(0.0008058507 -0.0001106503 0)
(0.0008202579 -0.0001647011 2.024467e-27)
(0.0008366935 -0.0002309871 1.653898e-25)
(0.0008542158 -0.0003098645 1.607522e-25)
(0.0008592538 -0.0004113223 -1.163327e-25)
(0.000833825 -1.524107e-05 -8.303206e-26)
(0.0008368508 -4.95444e-05 6.485286e-28)
(0.0008478631 -9.024212e-05 1.224986e-27)
(0.0008676767 -0.0001394432 -1.820092e-25)
(0.0008973527 -0.0001997819 1.605576e-25)
(0.0009161661 -0.0002912912 7.558754e-26)
(0.0009074447 -0.0004217739 -2.184397e-26)
(0.0008530567 -9.792197e-06 -8.499892e-26)
(0.0008620518 -3.352243e-05 0)
(0.0008787565 -6.366639e-05 1.695182e-27)
(0.0009078755 -0.0001045978 -2.402213e-27)
(0.0009331319 -0.0001730607 1.722134e-26)
(0.0009425269 -0.0002851969 4.920814e-26)
(0.0009160023 -0.0004567172 1.610653e-30)
(0.0008586112 -3.370291e-06 0)
(0.0008734258 -1.385001e-05 3.671603e-28)
(0.0008953151 -3.127185e-05 1.7585e-27)
(0.0009270332 -7.207935e-05 -9.087104e-26)
(0.0009396605 -0.0001613317 1.016218e-25)
(0.0009219669 -0.000307181 1.536097e-26)
(0.0008802138 -0.0004986904 2.886729e-33)
(0.0008489458 3.841876e-06 0)
(0.0008677163 8.897456e-06 -1.281087e-30)
(0.0008907007 -1.988528e-07 1.485727e-32)
(0.0009118384 -5.461804e-05 -9.139469e-26)
(0.0009061352 -0.0001744302 9.02553e-26)
(0.0008686853 -0.0003501186 2.685186e-30)
(0.0008042544 -0.0005786441 -7.680893e-26)
(0.0008217007 1.224423e-05 -8.218267e-26)
(0.0008429312 3.034393e-05 5.873951e-28)
(0.0008592868 1.582183e-05 8.677938e-26)
(0.00085829 -6.241191e-05 -8.225477e-26)
(0.0008335235 -0.0002094671 1.886634e-26)
(0.0007767284 -0.0004150983 2.052277e-26)
(0.0006980709 -0.0006627894 9.791323e-26)
(0.0007745163 2.104312e-05 -7.749659e-26)
(0.0007934365 4.400797e-05 -4.000116e-31)
(0.0007965076 1.072172e-05 1.603899e-25)
(0.0007765454 -9.604892e-05 -7.764404e-26)
(0.0007301933 -0.0002752004 -2.442518e-26)
(0.0006535889 -0.00050575 -1.427232e-25)
(0.0005573355 -0.0007813 -5.1135e-26)
(0.0007062799 2.597006e-05 1.103125e-31)
(0.0007161668 4.374239e-05 1.014048e-30)
(0.0007048515 -1.380744e-05 7.08968e-26)
(0.0006707976 -0.0001502647 6.675472e-26)
(0.0006071486 -0.0003563569 -1.277159e-30)
(0.0005137216 -0.0006172736 -3.048725e-26)
(0.0003972876 -0.0009253936 -1.926999e-25)
(0.0006180034 2.371248e-05 1.502594e-28)
(0.0006155458 2.749745e-05 1.55568e-28)
(0.0005907984 -5.53321e-05 2.773039e-31)
(0.0005456593 -0.0002208204 -5.394284e-27)
(0.0004706028 -0.0004578725 -1.144919e-26)
(0.0003664567 -0.0007516635 8.348261e-32)
(0.0002314383 -0.001088227 1.557998e-26)
(0.0005106092 1.531225e-05 3.511147e-31)
(0.0004972592 -4.524106e-06 2.259423e-31)
(0.0004644582 -0.0001113766 -9.337522e-26)
(0.0004116692 -0.0003032565 -9.425726e-26)
(0.0003286145 -0.0005714295 -1.422658e-26)
(0.0002163518 -0.0008985649 -2.493216e-31)
(7.413493e-05 -0.001267066 8.692101e-31)
(0.0003838792 5.938522e-07 -1.167689e-31)
(0.0003650721 -4.338525e-05 -5.793781e-32)
(0.0003312334 -0.0001745631 -6.254905e-26)
(0.0002712671 -0.0003950244 -5.033317e-26)
(0.0001862353 -0.0006980574 -8.265718e-27)
(7.224289e-05 -0.001062172 2.123851e-25)
(-7.39989e-05 -0.001457674 2.086628e-25)
(0.0002439783 -1.437466e-05 -1.185994e-31)
(0.0002249931 -8.238232e-05 -1.666496e-31)
(0.0001904283 -0.0002364626 5.814077e-27)
(0.0001336811 -0.0004839287 -5.465103e-27)
(5.504162e-05 -0.0008131425 -1.377841e-27)
(-4.809832e-05 -0.001212096 -9.930092e-27)
(-0.0001741782 -0.001648215 -4.200981e-26)
(9.876334e-05 -2.768955e-05 -3.060767e-33)
(8.280134e-05 -0.0001177625 1.158099e-32)
(5.392065e-05 -0.0002915183 -3.579296e-27)
(9.324792e-06 -0.000560981 -6.607731e-27)
(-5.237141e-05 -0.0009147003 -4.754208e-32)
(-0.0001335346 -0.001338449 -8.700204e-27)
(-0.0002321221 -0.001783245 3.630944e-26)
(-4.530198e-05 -3.855903e-05 2.129039e-27)
(-5.685735e-05 -0.0001462107 2.851928e-27)
(-7.650478e-05 -0.0003341315 8.1865e-27)
(-0.0001056973 -0.0006197237 7.592584e-27)
(-0.0001452305 -0.0009912093 8.500826e-27)
(-0.0001965173 -0.001428983 2.276234e-26)
(-0.0002559844 -0.001883616 6.030955e-26)
(-0.0001895379 -4.597921e-05 9.33685e-27)
(-0.0001955298 -0.0001649847 9.825055e-27)
(-0.0002044538 -0.0003606649 1.184659e-26)
(-0.0002165462 -0.0006543309 1.598301e-26)
(-0.000231048 -0.001033611 1.296466e-26)
(-0.0002478375 -0.001474622 3.589915e-26)
(-0.000263619 -0.001933794 6.205445e-26)
(-0.0003308761 -4.832052e-05 -2.84252e-28)
(-0.0003301204 -0.0001707588 -9.103007e-27)
(-0.000327369 -0.0003678703 6.461829e-27)
(-0.0003216772 -0.000661233 2.39636e-26)
(-0.0003108206 -0.001037769 1.43808e-29)
(-0.0002933181 -0.001472633 4.222451e-26)
(-0.0002654633 -0.001923986 9.721301e-26)
(-0.0004600274 -4.467587e-05 1.290437e-28)
(-0.0004537241 -0.0001619699 -9.745267e-27)
(-0.000440726 -0.0003547207 2.359041e-26)
(-0.0004195093 -0.0006405502 1.006179e-26)
(-0.0003867736 -0.001005804 -9.068302e-27)
(-0.0003405837 -0.001427062 1.573857e-26)
(-0.0002752896 -0.001859625 6.387144e-27)
(-0.0005772705 -3.751783e-05 1.072543e-28)
(-0.0005678977 -0.0001438766 4.236642e-28)
(-0.0005477176 -0.0003271871 2.300302e-26)
(-0.0005146094 -0.0005998795 1.248312e-26)
(-0.0004649654 -0.0009482986 2.309134e-26)
(-0.0003970756 -0.001350638 4.176193e-26)
(-0.0003039673 -0.00175893 1.977844e-26)
(-0.0006835309 -2.833253e-05 -3.390987e-26)
(-0.0006724656 -0.0001203019 -1.184559e-30)
(-0.0006483415 -0.0002905299 -3.864567e-26)
(-0.0006049721 -0.0005465468 3.140485e-27)
(-0.0005419426 -0.0008743861 -2.086008e-26)
(-0.0004571836 -0.001253091 -5.967631e-26)
(-0.0003496033 -0.00163722 1.016641e-25)
(-0.0007717744 -1.774245e-05 -3.849445e-26)
(-0.0007600305 -9.39841e-05 -1.052112e-27)
(-0.0007343431 -0.0002493267 -1.76168e-25)
(-0.0006865866 -0.0004833289 7.615694e-26)
(-0.0006176032 -0.0007915195 -7.186756e-26)
(-0.0005259502 -0.001143407 -4.264576e-25)
(-0.0004104095 -0.001490551 -2.773963e-25)
(-0.0008360744 -6.548931e-06 -1.543819e-30)
(-0.0008276788 -6.380172e-05 1.233195e-30)
(-0.0008026295 -0.0001983783 -1.590921e-25)
(-0.0007605045 -0.0004137046 -9.268097e-26)
(-0.0006932792 -0.0006967884 -1.650996e-26)
(-0.0006029082 -0.001024274 2.903478e-30)
(-0.0004898052 -0.001352549 1.257356e-29)
(-0.0008762957 3.711413e-07 -3.050243e-29)
(-0.0008771684 -3.98607e-05 2.048631e-28)
(-0.0008593578 -0.0001591469 1.228958e-30)
(-0.0008246782 -0.0003529359 -1.604102e-25)
(-0.0007616858 -0.0006093032 2.854788e-26)
(-0.0006718532 -0.0009110887 4.322025e-26)
(-0.0005554517 -0.001219482 5.703039e-31)
(-0.0008952871 1.018093e-06 -9.609428e-32)
(-0.0009064404 -2.909197e-05 -2.429521e-28)
(-0.0008982346 -0.0001277471 8.728174e-26)
(-0.0008702421 -0.0002964535 -8.507687e-26)
(-0.0008116164 -0.0005244907 -2.422896e-26)
(-0.0007225207 -0.0007956209 3.027506e-26)
(-0.000610564 -0.001082257 -1.034956e-29)
(-0.0008947207 -4.053816e-06 -8.890964e-26)
(-0.0009115853 -3.000058e-05 6.465694e-33)
(-0.0009133916 -0.000106531 2.220151e-27)
(-0.0008932951 -0.0002477167 9.315407e-26)
(-0.0008443428 -0.0004505385 -1.462776e-30)
(-0.0007629485 -0.0006883024 1.437526e-25)
(-0.0006618534 -0.0009457794 1.661733e-29)
(-0.0008767702 -1.117857e-05 -8.716382e-26)
(-0.0008934134 -3.979041e-05 -1.004748e-27)
(-0.0009040905 -9.723805e-05 -9.163872e-26)
(-0.0008961255 -0.0002111785 2.442435e-25)
(-0.000864304 -0.0003788402 -3.294885e-26)
(-0.0007958694 -0.0005941869 1.510398e-25)
(-0.0007024217 -0.0008277425 -6.4874e-26)
(-0.0008448532 -1.702719e-05 0)
(-0.000857385 -5.439288e-05 1.142776e-30)
(-0.0008719185 -0.0001026263 -1.393648e-30)
(-0.0008808482 -0.000188898 2.481172e-25)
(-0.0008621336 -0.0003317143 -1.542217e-26)
(-0.0008075106 -0.0005139239 5.357955e-26)
(-0.0007203851 -0.0007252763 -1.013686e-25)
(-0.0008028034 -2.125202e-05 0)
(-0.0008113522 -6.601823e-05 -1.498511e-27)
(-0.000823327 -0.0001171452 -2.777665e-27)
(-0.0008385593 -0.0001873732 -4.496107e-27)
(-0.0008320888 -0.0002963776 -7.037987e-27)
(-0.0007935624 -0.0004483037 -1.463288e-25)
(-0.0007232569 -0.0006225875 9.138884e-30)
(-0.0007543531 -2.393741e-05 -7.492616e-26)
(-0.000757569 -7.485256e-05 0)
(-0.0007645288 -0.0001305444 0)
(-0.0007755323 -0.0001943091 -7.59266e-26)
(-0.0007772182 -0.0002792979 2.378376e-26)
(-0.0007584857 -0.0003944657 -3.280818e-26)
(-0.0007033027 -0.0005483629 5.086171e-26)
(-0.0007011834 -2.565265e-05 -6.965754e-26)
(-0.0006999512 -7.950812e-05 -9.593616e-28)
(-0.0007015628 -0.0001376019 -1.702666e-27)
(-0.0007044607 -0.0002015426 -1.75812e-26)
(-0.0007076689 -0.0002706999 -1.153235e-26)
(-0.000696429 -0.0003625985 1.71779e-26)
(-0.0006579716 -0.0004790899 2.314508e-26)
(-0.000645469 -2.628443e-05 0)
(-0.0006412198 -8.088677e-05 6.339544e-26)
(-0.0006379578 -0.0001392259 0)
(-0.0006359614 -0.0001993455 -4.851886e-27)
(-0.0006301984 -0.000267156 -6.574324e-27)
(-0.0006188885 -0.0003417829 -4.277874e-26)
(-0.0005931235 -0.000426614 -3.537869e-26)
(-0.0005894988 -2.606838e-05 0)
(-0.0005831692 -7.987807e-05 -5.722569e-26)
(-0.0005778036 -0.0001345025 5.659959e-26)
(-0.0005696147 -0.0001937143 0)
(-0.0005580115 -0.000255952 -1.241792e-26)
(-0.0005424004 -0.0003194621 2.014899e-26)
(-0.0005167368 -0.0003875905 -6.779302e-26)
(-0.0005349169 -2.529599e-05 0)
(-0.0005285493 -7.593928e-05 -1.562959e-25)
(-0.0005204657 -0.0001286885 -8.453551e-29)
(-0.0005093116 -0.0001832625 -1.074285e-25)
(-0.00049475 -0.0002382361 -1.182106e-26)
(-0.0004740448 -0.0002958513 4.499347e-26)
(-0.0004455712 -0.0003548106 -6.475839e-26)
(-0.0004836024 -2.373741e-05 4.807684e-26)
(-0.0004770038 -7.176022e-05 -4.798851e-26)
(-0.0004680676 -0.0001203476 2.049609e-29)
(-0.0004559603 -0.0001695812 -8.595805e-26)
(-0.0004392155 -0.0002192516 0)
(-0.000417155 -0.0002684871 0)
(-0.0003894438 -0.0003164954 -5.256202e-26)
(-0.0004358959 -2.205202e-05 4.320482e-26)
(-0.0004295109 -6.668184e-05 -4.288967e-26)
(-0.0004204847 -0.0001114283 4.125822e-26)
(-0.0004082345 -0.0001556832 3.972544e-26)
(-0.0003910307 -0.0002006322 0)
(-0.0003687459 -0.0002454293 0)
(-0.0003435064 -0.0002847308 -4.310754e-26)
(-0.0003921627 -2.025466e-05 -3.902609e-26)
(-0.0003861458 -6.127394e-05 -3.968546e-26)
(-0.0003776075 -0.0001017182 -1.283154e-27)
(-0.0003652915 -0.0001422698 3.374559e-26)
(-0.000348589 -0.0001824773 1.317425e-26)
(-0.0003284301 -0.0002200536 -4.486878e-26)
(-0.0003031496 -0.0002576697 2.148273e-26)
(-0.0003525709 -1.840869e-05 -3.520679e-26)
(-0.0003471325 -5.566105e-05 -3.609721e-28)
(-0.0003388598 -9.264226e-05 1.191027e-27)
(-0.0003271253 -0.000129186 1.676413e-27)
(-0.0003116059 -0.0001653116 0)
(-0.0002928029 -0.0001993723 -3.194379e-26)
(-0.0002697116 -0.0002328667 2.538842e-26)
(-0.0003169057 -1.673662e-05 0)
(-0.0003119918 -5.047227e-05 -6.493206e-28)
(-0.0003041065 -8.416843e-05 -1.096275e-27)
(-0.0002927005 -0.0001177541 6.729649e-26)
(-0.0002792192 -0.0001488923 1.449779e-26)
(-0.0002610396 -0.0001806176 4.502501e-26)
(-0.0002406378 -0.000210189 1.716916e-26)
(-0.0002849553 -1.508588e-05 -9.590053e-29)
(-0.0002803717 -4.566504e-05 -2.996388e-28)
(-0.0002730341 -7.595624e-05 0)
(-0.0002629546 -0.0001058517 -8.029333e-29)
(-0.0002494171 -0.0001351672 2.410073e-26)
(-0.0002333937 -0.0001631704 2.234448e-26)
(-0.0002148556 -0.0001895946 -5.00864e-27)
(-0.0002562637 -1.363493e-05 2.549217e-26)
(-0.0002519898 -4.13811e-05 -2.564234e-26)
(-0.000244973 -6.91561e-05 4.371401e-26)
(-0.0002362035 -9.55453e-05 -5.146085e-26)
(-0.0002234698 -0.0001221407 2.001411e-26)
(-0.0002089405 -0.000147159 0)
(-0.0001919113 -0.000170808 4.531827e-27)
(-0.0002304428 -1.233074e-05 2.304306e-26)
(-0.0002263072 -3.759482e-05 -2.218702e-26)
(-0.0002203861 -6.209993e-05 2.143055e-26)
(-0.0002115866 -8.664931e-05 0)
(-0.0002004044 -0.0001102339 -1.950534e-26)
(-0.0001871204 -0.0001326463 0)
(-0.0001714984 -0.0001538175 1.647319e-26)
(-0.0002072575 -1.107205e-05 0)
(-0.0002036872 -3.375202e-05 0)
(-0.0001978709 -5.631776e-05 -3.899456e-26)
(-0.0001898905 -7.82493e-05 0)
(-0.0001797949 -9.935764e-05 -3.507534e-26)
(-0.0001675814 -0.0001195155 -1.62657e-26)
(-0.0001531168 -0.0001386564 1.474504e-26)
(-0.0001863587 -1.007479e-05 -1.85662e-26)
(-0.0001832669 -3.041816e-05 0)
(-0.0001778224 -5.080833e-05 -1.720548e-26)
(-0.0001705525 -7.049487e-05 1.724063e-26)
(-0.0001613249 -8.943199e-05 -1.576926e-26)
(-0.0001501155 -0.0001074307 -2.922047e-26)
(-0.0001367681 -0.0001242604 -1.322172e-26)
(-0.0001677292 -9.033816e-06 -1.668108e-26)
(-0.0001647138 -2.751558e-05 -1.625409e-26)
(-0.000159843 -4.578625e-05 0)
(-0.0001532189 -6.345038e-05 1.592435e-26)
(-0.0001448059 -8.041976e-05 1.075611e-27)
(-0.0001346162 -9.64535e-05 -2.758004e-26)
(-0.0001225554 -0.0001112309 -4.47667e-27)
(-0.0001509189 -8.133115e-06 -1.504075e-26)
(-0.0001481338 -2.476793e-05 -1.470297e-26)
(-0.0001437157 -4.119e-05 1.422844e-26)
(-0.000137669 -5.706383e-05 0)
(-0.0001299981 -7.231983e-05 0)
(-0.000120692 -8.684398e-05 -1.18093e-26)
(-0.0001095022 -0.00010074 2.090341e-26)
(-0.0001357887 -7.296084e-06 -1.353171e-26)
(-0.0001332463 -2.225562e-05 -1.324061e-26)
(-0.0001292315 -3.700563e-05 1.279888e-26)
(-0.0001237159 -5.124512e-05 0)
(-0.0001167118 -6.490341e-05 8.691476e-28)
(-0.0001081872 -7.781566e-05 1.461258e-30)
(-9.797112e-05 -8.995119e-05 -1.214169e-27)
(-0.0001221824 -6.531035e-06 0)
(-0.0001198859 -1.995699e-05 -1.191374e-26)
(-0.0001162364 -3.319363e-05 1.15296e-26)
(-0.0001112154 -4.594968e-05 0)
(-0.0001048388 -5.816526e-05 -1.112819e-26)
(-9.708637e-05 -6.969437e-05 -1.876908e-27)
(-8.783336e-05 -8.049566e-05 -1.088618e-27)
(-0.0001099685 -5.832477e-06 1.096316e-26)
(-0.0001079033 -1.786206e-05 -5.974781e-29)
(-0.0001045914 -2.972481e-05 1.027629e-26)
(-0.0001000313 -4.113524e-05 -2.752773e-28)
(-9.424022e-05 -5.204244e-05 -3.41247e-28)
(-8.717678e-05 -6.23318e-05 -8.57492e-27)
(-7.881329e-05 -7.190893e-05 0)
(-9.901862e-05 -5.195647e-06 1.974146e-26)
(-9.716703e-05 -1.595453e-05 0)
(-9.416636e-05 -2.657274e-05 0)
(-9.002863e-05 -3.677735e-05 9.17252e-27)
(-8.475247e-05 -4.656058e-05 1.707294e-26)
(-7.818181e-05 -5.592618e-05 -7.691991e-27)
(-7.079385e-05 -6.41328e-05 0)
(-8.921725e-05 -4.615366e-06 8.892653e-27)
(-8.756117e-05 -1.421731e-05 -4.769997e-29)
(-8.484709e-05 -2.370262e-05 -7.954317e-29)
(-8.109622e-05 -3.279903e-05 -2.253545e-28)
(-7.630519e-05 -4.148221e-05 7.266774e-27)
(-7.040504e-05 -4.971886e-05 0)
(-6.3496e-05 -5.731813e-05 -6.236594e-27)
(-8.045859e-05 -4.087137e-06 -6.776186e-30)
(-7.89813e-05 -1.263728e-05 -7.923886e-27)
(-7.653172e-05 -2.109599e-05 -7.678084e-27)
(-7.314077e-05 -2.919735e-05 -1.451791e-26)
(-6.881334e-05 -3.693468e-05 0)
(-6.351492e-05 -4.428968e-05 -6.165406e-27)
(-5.72124e-05 -5.107188e-05 7.486339e-30)
(-7.264548e-05 -3.60669e-06 -7.234647e-27)
(-7.133045e-05 -1.120187e-05 -1.421441e-26)
(-6.912275e-05 -1.873113e-05 -1.380443e-26)
(-6.605935e-05 -2.5934e-05 -6.731096e-27)
(-6.213349e-05 -3.282744e-05 -2.213486e-28)
(-5.736319e-05 -3.936963e-05 -5.569667e-27)
(-5.16785e-05 -4.541929e-05 5.393913e-27)
(-6.568889e-05 -3.170099e-06 -6.545092e-27)
(-6.451916e-05 -9.898737e-06 -1.283968e-26)
(-6.252787e-05 -1.659153e-05 -6.21471e-27)
(-5.974684e-05 -2.300811e-05 0)
(-5.610684e-05 -2.923399e-05 -1.491278e-27)
(-5.18935e-05 -3.490655e-05 -2.287077e-27)
(-4.678133e-05 -4.033153e-05 -5.490954e-28)
(-5.950792e-05 -2.772132e-06 -5.933235e-27)
(-5.846714e-05 -8.711379e-06 -5.801641e-27)
(-5.666781e-05 -1.463851e-05 1.472138e-28)
(-5.414401e-05 -2.030686e-05 1.364692e-28)
(-5.087651e-05 -2.578981e-05 0)
(-4.692751e-05 -3.098427e-05 -4.639043e-27)
(-4.243235e-05 -3.576135e-05 2.441521e-28)
(-5.402951e-05 -2.409354e-06 -5.38452e-27)
(-5.310243e-05 -7.630141e-06 -5.270252e-27)
(-5.147441e-05 -1.286534e-05 8.622397e-29)
(-4.918614e-05 -1.787616e-05 6.000392e-29)
(-4.623573e-05 -2.274703e-05 0)
(-4.261783e-05 -2.737714e-05 -4.026974e-27)
(-3.857941e-05 -3.163639e-05 4.321384e-28)
(-4.918705e-05 -2.0775e-06 3.442285e-30)
(-4.835806e-05 -6.642809e-06 -9.607549e-27)
(-4.687755e-05 -1.124979e-05 3.757714e-29)
(-4.479029e-05 -1.566779e-05 5.248099e-29)
(-4.210321e-05 -1.998437e-05 0)
(-3.880802e-05 -2.410685e-05 0)
(-3.515058e-05 -2.792383e-05 0)
(-4.492086e-05 -1.772589e-06 0)
(-4.41738e-05 -5.736943e-06 -4.391757e-27)
(-4.281594e-05 -9.771225e-06 0)
(-4.08905e-05 -1.365628e-05 3.972014e-27)
(-3.843092e-05 -1.747064e-05 -1.167833e-28)
(-3.542156e-05 -2.114737e-05 -1.427699e-28)
(-3.209232e-05 -2.458095e-05 3.013775e-27)
(-4.117828e-05 -1.490127e-06 -4.095954e-27)
(-4.049516e-05 -4.901091e-06 0)
(-3.922945e-05 -8.419479e-06 5.546437e-29)
(-3.740365e-05 -1.185917e-05 3.206456e-27)
(-3.516648e-05 -1.516857e-05 -4.260684e-27)
(-3.240123e-05 -1.846597e-05 0)
(-2.935386e-05 -2.157026e-05 2.912011e-27)
(-3.791488e-05 -1.224246e-06 -3.769022e-27)
(-3.727583e-05 -4.11563e-06 0)
(-3.607549e-05 -7.144943e-06 2.341159e-29)
(-3.436554e-05 -1.01255e-05 3.324473e-29)
(-3.220591e-05 -1.311045e-05 -6.401792e-27)
(-2.968975e-05 -1.60381e-05 2.953576e-27)
(-2.688681e-05 -1.885863e-05 -2.674987e-27)
(-3.509462e-05 -9.699705e-07 0)
(-3.447736e-05 -3.369931e-06 -3.4163e-27)
(-3.331236e-05 -5.951966e-06 1.9231e-29)
(-3.167086e-05 -8.537572e-06 3.14345e-27)
(-2.959818e-05 -1.118261e-05 -2.948495e-27)
(-2.724537e-05 -1.382109e-05 2.716637e-27)
(-2.464454e-05 -1.641405e-05 1.502531e-30)
(-3.268973e-05 -7.202099e-07 0)
(-3.20648e-05 -2.644656e-06 -3.188636e-27)
(-3.089284e-05 -4.808398e-06 3.079573e-27)
(-2.926648e-05 -7.037814e-06 2.935043e-27)
(-2.725136e-05 -9.390695e-06 -2.695975e-27)
(-2.501252e-05 -1.179905e-05 7.548915e-29)
(-2.258089e-05 -1.421512e-05 2.262489e-27)
(-3.0683e-05 -4.661427e-07 0)
(-3.001215e-05 -1.917469e-06 0)
(-2.877952e-05 -3.685594e-06 2.876405e-27)
(-2.711194e-05 -5.600006e-06 -2.712646e-27)
(-2.510953e-05 -7.715301e-06 7.151377e-31)
(-2.294463e-05 -9.951453e-06 0)