/*--------------------------------*- C++ -*----------------------------------*\
| =========                 |                                                 |
| \\      /  F ield         | OpenFOAM: The Open Source CFD Toolbox           |
|  \\    /   O peration     | Version:  2206                                  |
|   \\  /    A nd           | Website:  www.openfoam.com                      |
|    \\/     M anipulation  |                                                 |
\*---------------------------------------------------------------------------*/
FoamFile
{
    version     2.0;
    format      ascii;
    arch        "LSB;label=32;scalar=64";
    class       volVectorField;
    location    "2.6";
    object      U.b_0;
}
// * * * * * * * * * * * * * * * * * * * * * * * * * * * * * * * * * * * * * //

dimensions      [0 1 -1 0 0 0 0];

internalField   nonuniform List<vector> 
13078
(
(-5.441766e-06 2.820197e-05 -5.951578e-27)
(-4.41099e-06 6.169241e-05 5.984585e-30)
(-3.246484e-06 3.303997e-05 3.509025e-27)
(-3.037105e-06 1.604991e-05 0)
(-3.054164e-06 6.372632e-06 5.567156e-28)
(-3.218304e-06 1.89604e-06 3.600677e-28)
(-3.472472e-06 -1.325299e-06 2.141322e-28)
(3.001439e-05 7.821923e-06 0)
(6.928889e-06 4.706129e-05 -3.093436e-29)
(2.430362e-06 3.144976e-05 0)
(-1.060369e-06 1.485382e-05 0)
(-1.683706e-06 6.569211e-06 -7.76096e-31)
(-2.179551e-06 1.925949e-06 1.490839e-31)
(-2.707374e-06 -1.456747e-06 1.042006e-30)
(7.083306e-05 1.020576e-05 4.442885e-27)
(2.990793e-05 2.367779e-05 -2.361187e-27)
(9.674545e-06 1.819321e-05 -9.066341e-28)
(3.038471e-06 1.119039e-05 -1.336925e-27)
(5.670424e-07 5.735617e-06 -4.663963e-28)
(-7.876708e-07 1.626647e-06 0)
(-1.749715e-06 -1.668577e-06 1.024781e-33)
(4.125181e-05 6.096202e-06 2.335729e-27)
(2.350857e-05 1.347911e-05 -3.211947e-27)
(1.211343e-05 1.189208e-05 -2.056416e-27)
(5.916374e-06 8.445403e-06 -6.375016e-28)
(2.744697e-06 4.617134e-06 1.065916e-29)
(7.623504e-07 1.091924e-06 0)
(-6.112824e-07 -1.994021e-06 1.415047e-30)
(2.904199e-05 4.007759e-06 4.73249e-30)
(2.039094e-05 8.67355e-06 -1.223539e-27)
(1.323482e-05 8.416914e-06 -1.845424e-27)
(8.129829e-06 6.271478e-06 -1.259392e-27)
(4.657011e-06 3.421768e-06 7.618498e-28)
(2.382933e-06 3.967678e-07 -1.356295e-32)
(6.766629e-07 -2.461676e-06 -1.0455e-28)
(2.417795e-05 2.69155e-06 0)
(1.918407e-05 5.83588e-06 -1.385402e-29)
(1.408068e-05 5.890691e-06 1.65894e-29)
(9.821943e-06 4.404279e-06 -6.753045e-28)
(6.550839e-06 2.11007e-06 -2.524817e-29)
(4.006832e-06 -4.61277e-07 1.329618e-28)
(2.083555e-06 -3.114257e-06 9.564845e-29)
(2.186316e-05 1.762764e-06 0)
(1.869113e-05 3.788848e-06 -1.011709e-27)
(1.493822e-05 3.809201e-06 -6.866052e-28)
(1.137195e-05 2.669186e-06 1.684912e-28)
(8.299128e-06 7.248799e-07 -5.661955e-28)
(5.741892e-06 -1.575224e-06 -8.281642e-30)
(3.540568e-06 -3.970482e-06 0)
(2.088089e-05 1.092095e-06 2.098677e-27)
(1.872507e-05 2.21778e-06 -9.830328e-28)
(1.585915e-05 2.032928e-06 -8.724358e-28)
(1.285317e-05 9.638224e-07 0)
(9.991727e-06 -7.692235e-07 -1.213036e-27)
(7.432785e-06 -2.868101e-06 -5.309552e-31)
(5.130342e-06 -5.126566e-06 7.23969e-30)
(2.075252e-05 5.897261e-07 -1.617639e-33)
(1.918627e-05 9.651163e-07 1.977677e-27)
(1.691203e-05 4.589001e-07 8.950388e-28)
(1.432196e-05 -6.706984e-07 -3.503183e-30)
(1.166015e-05 -2.337926e-06 -2.666398e-27)
(9.123892e-06 -4.335024e-06 7.080338e-30)
(6.715341e-06 -6.496494e-06 0)
(2.125766e-05 1.935428e-07 -2.122309e-27)
(2.003673e-05 -7.698465e-08 2.041934e-27)
(1.814906e-05 -9.581254e-07 9.46602e-28)
(1.585786e-05 -2.257792e-06 -1.694124e-27)
(1.335174e-05 -3.971111e-06 -2.663501e-31)
(1.083448e-05 -5.954227e-06 0)
(8.332748e-06 -8.082162e-06 0)
(2.228486e-05 -1.38287e-07 0)
(2.126293e-05 -9.858161e-07 0)
(1.961664e-05 -2.268776e-06 2.018635e-27)
(1.752394e-05 -3.81662e-06 -1.832679e-27)
(1.511772e-05 -5.666705e-06 4.746268e-31)
(1.259798e-05 -7.715778e-06 0)
(9.999775e-06 -9.871226e-06 0)
(2.377776e-05 -4.333993e-07 0)
(2.286384e-05 -1.818016e-06 -2.303032e-27)
(2.135581e-05 -3.519816e-06 2.178416e-27)
(1.937387e-05 -5.373765e-06 1.980072e-27)
(1.701143e-05 -7.43455e-06 -1.808412e-27)
(1.445687e-05 -9.619066e-06 0)
(1.174528e-05 -1.18617e-05 1.360932e-27)
(2.571485e-05 -7.096569e-07 0)
(2.484638e-05 -2.613536e-06 -2.5043e-27)
(2.34011e-05 -4.755105e-06 -1.501193e-29)
(2.145847e-05 -6.960249e-06 2.189253e-27)
(1.908739e-05 -9.290067e-06 -1.97698e-27)
(1.645681e-05 -1.167401e-05 1.729831e-27)
(1.360494e-05 -1.406018e-05 1.251278e-30)
(2.80944e-05 -9.831783e-07 -2.799571e-27)
(2.722861e-05 -3.407252e-06 0)
(2.578689e-05 -6.007909e-06 -1.950148e-29)
(2.382031e-05 -8.60372e-06 -2.797651e-29)
(2.140118e-05 -1.125441e-05 -4.392619e-27)
(1.864272e-05 -1.389906e-05 1.937392e-27)
(1.561821e-05 -1.64806e-05 -1.648383e-27)
(3.093074e-05 -1.261084e-06 -3.082726e-27)
(3.003898e-05 -4.222547e-06 0)
(2.855939e-05 -7.317954e-06 -4.809697e-29)
(2.651388e-05 -1.036542e-05 3.135537e-27)
(2.404356e-05 -1.332487e-05 -1.768632e-27)
(2.106909e-05 -1.630885e-05 0)
(1.782865e-05 -1.914173e-05 1.85834e-27)
(3.425272e-05 -1.5504e-06 0)
(3.330842e-05 -5.074511e-06 -3.331795e-27)
(3.175549e-05 -8.685986e-06 0)
(2.96309e-05 -1.217173e-05 3.073903e-27)
(2.697195e-05 -1.561226e-05 1.045407e-28)
(2.377645e-05 -1.894614e-05 1.281909e-28)
(2.028029e-05 -2.207403e-05 2.248843e-27)
(3.809801e-05 -1.858494e-06 0)
(3.707786e-05 -5.986065e-06 -7.413997e-27)
(3.541431e-05 -1.016442e-05 -3.40374e-29)
(3.314311e-05 -1.416865e-05 -4.757621e-29)
(3.027786e-05 -1.808694e-05 0)
(2.681878e-05 -2.18346e-05 0)
(2.301855e-05 -2.53089e-05 0)
(4.25142e-05 -2.190976e-06 -4.234407e-27)
(4.139734e-05 -6.971442e-06 -4.149318e-27)
(3.959214e-05 -1.176735e-05 -7.915271e-29)
(3.712977e-05 -1.634505e-05 -5.507941e-29)
(3.401533e-05 -2.078923e-05 0)
(3.025098e-05 -2.500817e-05 -3.233427e-27)
(2.609118e-05 -2.888284e-05 -3.972336e-28)
(4.755725e-05 -2.552708e-06 -4.737591e-27)
(4.63234e-05 -8.045268e-06 -4.640477e-27)
(4.434677e-05 -1.351805e-05 -1.365817e-28)
(4.165238e-05 -1.8729e-05 -1.264918e-28)
(3.822941e-05 -2.375206e-05 0)
(3.41444e-05 -2.849393e-05 -3.449981e-27)
(2.954804e-05 -3.28377e-05 -2.259774e-28)
(5.329104e-05 -2.948668e-06 -5.313158e-27)
(5.191992e-05 -9.221609e-06 -1.037038e-26)
(4.974499e-05 -1.544095e-05 -4.978468e-27)
(4.679063e-05 -2.137056e-05 0)
(4.300265e-05 -2.709533e-05 1.404338e-27)
(3.864975e-05 -3.22742e-05 2.144261e-27)
(3.345754e-05 -3.72046e-05 5.11245e-28)
(5.978669e-05 -3.382905e-06 -5.967737e-27)
(5.825623e-05 -1.051163e-05 -1.161553e-26)
(5.585198e-05 -1.754475e-05 -1.111647e-26)
(5.260502e-05 -2.422677e-05 -5.110333e-27)
(4.852115e-05 -3.057951e-05 2.07747e-28)
(4.362449e-05 -3.656343e-05 -4.302548e-27)
(3.786853e-05 -4.20534e-05 3.531679e-27)
(6.712366e-05 -3.861144e-06 0)
(6.541009e-05 -1.193296e-05 -6.490404e-27)
(6.274352e-05 -1.98689e-05 -6.208893e-27)
(5.915176e-05 -2.740845e-05 -1.185514e-26)
(5.465274e-05 -3.455128e-05 0)
(4.922689e-05 -4.128018e-05 -4.852357e-27)
(4.286203e-05 -4.742578e-05 6.958455e-30)
(7.538954e-05 -4.387628e-06 7.517318e-27)
(7.346835e-05 -1.349861e-05 0)
(7.050839e-05 -2.243065e-05 0)
(6.653124e-05 -3.091787e-05 2.038115e-28)
(6.154924e-05 -3.89434e-05 6.433374e-27)
(5.551373e-05 -4.64767e-05 0)
(4.854152e-05 -5.334895e-05 -4.883463e-27)
(8.467955e-05 -4.966748e-06 1.688939e-26)
(8.252455e-05 -1.522113e-05 0)
(7.923996e-05 -2.525107e-05 0)
(7.484195e-05 -3.479188e-05 7.257851e-27)
(6.934762e-05 -4.384414e-05 1.360297e-26)
(6.26343e-05 -5.241309e-05 -6.274449e-27)
(5.516067e-05 -5.980368e-05 0)
(9.509575e-05 -5.60257e-06 9.48469e-27)
(9.267837e-05 -1.711216e-05 5.775756e-29)
(8.903504e-05 -2.834595e-05 8.98646e-27)
(8.417259e-05 -3.903001e-05 2.63908e-28)
(7.812815e-05 -4.912607e-05 3.422048e-28)
(7.088825e-05 -5.853032e-05 -7.103942e-27)
(6.244444e-05 -6.715127e-05 0)
(0.0001067469 -6.299054e-06 0)
(0.0001040376 -1.918492e-05 -1.037683e-26)
(0.0001000006 -3.174341e-05 9.989353e-27)
(9.462913e-05 -4.370027e-05 0)
(8.796055e-05 -5.501211e-05 -8.065423e-27)
(8.000083e-05 -6.554734e-05 1.78931e-27)
(7.065609e-05 -7.526919e-05 1.03287e-27)
(0.0001197467 -7.058419e-06 -1.194106e-26)
(0.0001167189 -2.144798e-05 -1.1646e-26)
(0.0001122543 -3.545778e-05 1.120265e-26)
(0.0001063388 -4.881218e-05 0)
(9.900561e-05 -6.146225e-05 -8.347389e-28)
(9.024879e-05 -7.326047e-05 -1.251444e-30)
(7.993486e-05 -8.418278e-05 1.15456e-27)
(0.0001342076 -7.88188e-06 -1.338673e-26)
(0.0001308512 -2.389869e-05 -1.304707e-26)
(0.0001259181 -3.949731e-05 1.257303e-26)
(0.0001194274 -5.43813e-05 0)
(0.0001114004 -6.851051e-05 0)
(0.0001018487 -8.179047e-05 -1.019056e-26)
(9.057213e-05 -9.432382e-05 -8.1567e-28)
(0.000150243 -8.753755e-06 -1.501335e-26)
(0.0001465598 -2.653604e-05 -1.47105e-26)
(0.0001411156 -4.386656e-05 0)
(0.0001340209 -6.040854e-05 1.25578e-26)
(0.0001252509 -7.611537e-05 -1.03642e-27)
(0.0001148308 -9.077736e-05 -2.173928e-26)
(0.0001026973 -0.0001040951 4.265023e-27)
(0.0001679335 -9.737948e-06 -1.675374e-26)
(0.0001640645 -2.925046e-05 0)
(0.0001580068 -4.852715e-05 -1.608326e-26)
(0.0001502749 -6.691631e-05 1.455665e-26)
(0.0001407355 -8.442614e-05 -1.404709e-26)
(0.0001293613 -0.0001009015 -2.586115e-26)
(0.0001160137 -0.0001161178 -1.159167e-26)
(0.0001876218 -1.063932e-05 0)
(0.0001831729 -3.225945e-05 0)
(0.0001767297 -5.346491e-05 -3.525711e-26)
(0.0001683586 -7.38615e-05 0)
(0.0001580708 -9.334021e-05 -3.156581e-26)
(0.0001458349 -0.0001118139 -1.457841e-26)
(0.0001315062 -0.0001292108 1.312901e-26)
(0.0002091803 -1.173249e-05 -2.09687e-26)
(0.0002040761 -3.55713e-05 2.015644e-26)
(0.0001975608 -5.837082e-05 1.947025e-26)
(0.0001885396 -8.104776e-05 0)
(0.0001774079 -0.0001027444 -1.772538e-26)
(0.0001643666 -0.0001233015 0)
(0.0001491224 -0.0001426379 1.099755e-26)
(0.0002327481 -1.277234e-05 -2.3257e-26)
(0.0002274108 -3.856232e-05 2.27526e-26)
(0.0002199578 -6.404454e-05 6.570502e-26)
(0.0002112498 -8.81561e-05 4.279654e-26)
(0.0001989932 -0.0001125078 -1.829576e-26)
(0.0001851608 -0.0001354815 1.852726e-27)
(0.0001689122 -0.0001572376 -2.151735e-27)
(0.0002582659 -1.382826e-05 4.567134e-29)
(0.0002525413 -4.163132e-05 1.415998e-28)
(0.0002450216 -6.886081e-05 2.549227e-26)
(0.000235516 -9.579165e-05 4.520439e-26)
(0.0002231049 -0.0001224298 -2.561616e-26)
(0.0002085475 -0.0001481716 4.057555e-27)
(0.0001914032 -0.0001727124 9.48297e-27)
(0.00028572 -1.484961e-05 -4.899722e-29)
(0.0002795693 -4.471139e-05 -1.522724e-28)
(0.000271963 -7.417485e-05 2.631841e-26)
(0.0002618447 -0.0001038 1.462689e-26)
(0.0002503515 -0.0001316896 -1.69669e-26)
(0.0002350845 -0.0001608209 1.897213e-26)
(0.0002169052 -0.0001886792 0)
(0.0003149118 -1.571722e-05 0)
(0.0003083829 -4.732147e-05 0)
(0.0003009402 -7.858125e-05 3.029767e-26)
(0.000291547 -0.000110022 3.228214e-26)
(0.0002791761 -0.0001421846 4.59743e-26)
(0.000265651 -0.000172613 4.406459e-26)
(0.0002458856 -0.000204821 0)
(0.0003454382 -1.634831e-05 -1.076009e-28)
(0.0003385668 -4.928171e-05 3.264218e-28)
(0.0003314005 -8.213653e-05 1.124987e-27)
(0.0003227816 -0.000115453 0)
(0.0003116704 -0.0001494339 6.273639e-26)
(0.0002980433 -0.0001845814 -5.049341e-27)
(0.0002793464 -0.0002205338 -1.212533e-26)
(0.0003765967 -1.659473e-05 -3.759569e-26)
(0.0003694728 -5.020216e-05 3.448819e-28)
(0.0003629399 -8.430377e-05 -3.662296e-26)
(0.0003556442 -0.0001196942 0)
(0.0003463773 -0.0001568852 3.92284e-26)
(0.000333612 -0.0001966613 -1.495914e-28)
(0.0003196426 -0.0002347068 -6.041195e-26)
(0.0004072463 -1.629772e-05 -4.071507e-26)
(0.0004002996 -4.963837e-05 -3.996521e-26)
(0.0003949525 -8.442248e-05 -3.994419e-26)
(0.0003898573 -0.0001212809 -3.345731e-27)
(0.0003837447 -0.0001606467 -8.899316e-27)
(0.0003748638 -0.0002025437 2.095671e-26)
(0.000363391 -0.0002478882 -2.716581e-26)
(0.0004360274 -1.549905e-05 0)
(0.0004300322 -4.714404e-05 4.249858e-26)
(0.0004267209 -8.183199e-05 4.312263e-26)
(0.0004246987 -0.00011961 1.679683e-27)
(0.0004230328 -0.0001610987 -4.724643e-26)
(0.000419716 -0.0002071974 -5.761265e-27)
(0.0004123011 -0.0002592648 0)
(0.0004619619 -1.382577e-05 4.644656e-26)
(0.0004567224 -4.345572e-05 9.007816e-26)
(0.0004569249 -7.551961e-05 4.243605e-26)
(0.0004592859 -0.0001130119 9.291293e-26)
(0.0004632612 -0.0001552283 -5.131905e-26)
(0.0004678899 -0.0002031467 4.157541e-26)
(0.0004689352 -0.0002583485 6.113353e-26)
(0.0004828132 -1.151321e-05 4.851569e-26)
(0.0004801396 -3.68868e-05 -2.724246e-28)
(0.0004824047 -6.645772e-05 0)
(0.0004916378 -9.995368e-05 1.300114e-27)
(0.0005027415 -0.0001414776 1.016526e-25)
(0.0005147607 -0.0001915906 1.042247e-25)
(0.0005179252 -0.0002574131 8.872528e-29)
(0.0004970273 -8.497672e-06 -5.004748e-26)
(0.0004974268 -2.818284e-05 4.187748e-28)
(0.0005038249 -5.220514e-05 7.9221e-28)
(0.0005168253 -8.184743e-05 -1.112983e-25)
(0.0005368516 -0.0001194077 9.734877e-26)
(0.0005496543 -0.0001782296 5.573222e-26)
(0.0005429364 -0.0002648112 -6.920332e-26)
(0.0005029053 -4.769118e-06 -5.068925e-26)
(0.0005071885 -1.721507e-05 0)
(0.0005174617 -3.392264e-05 1.074034e-27)
(0.0005364799 -5.783338e-05 1.8133e-27)
(0.0005533469 -0.0001006047 7.367605e-26)
(0.0005587721 -0.0001746782 1.516722e-25)
(0.0005389618 -0.0002901424 1.547553e-26)
(0.0004993661 -4.030479e-07 0)
(0.0005074099 -3.943106e-06 2.146896e-28)
(0.0005212007 -1.20603e-05 4.854364e-29)
(0.0005414785 -3.603426e-05 5.299844e-26)
(0.0005487714 -9.368212e-05 5.318788e-26)
(0.000534885 -0.0001915284 1.57784e-25)
(0.0005036325 -0.0003215767 5.030667e-32)
(0.0004856281 4.361594e-06 0)
(0.0004962286 1.12794e-05 -5.058897e-26)
(0.0005104683 8.309479e-06 2.618754e-31)
(0.0005225202 -2.590428e-05 5.352908e-26)
(0.0005159422 -0.000105337 -5.237791e-26)
(0.0004871732 -0.0002241753 6.040567e-26)
(0.0004402071 -0.0003794772 -5.219378e-26)
(0.0004605253 9.83437e-06 -4.670633e-26)
(0.0004725624 2.495249e-05 -4.842902e-26)
(0.0004815263 1.718472e-05 2.813463e-32)
(0.0004777125 -3.448915e-05 -2.854654e-27)
(0.0004564045 -0.0001338334 -5.940938e-26)
(0.0004130494 -0.0002733429 -1.42662e-30)
(0.0003537673 -0.0004418017 -4.501223e-30)
(0.0004229107 1.537669e-05 8.411799e-29)
(0.0004330749 3.262594e-05 5.238711e-28)
(0.0004321362 1.071997e-05 4.454648e-26)
(0.0004143897 -6.208307e-05 -3.333016e-27)
(0.0003770729 -0.0001844964 -2.993205e-26)
(0.0003179453 -0.0003424801 6.543285e-26)
(0.0002434283 -0.0005310878 5.440306e-26)
(0.0003725114 1.802731e-05 -1.029209e-28)
(0.0003763852 3.013188e-05 3.861023e-26)
(0.0003650294 -9.984849e-06 3.765741e-26)
(0.000335782 -0.0001047327 -2.765391e-27)
(0.0002847989 -0.0002478015 -3.475463e-26)
(0.0002118631 -0.0004287581 3.987549e-26)
(0.0001209903 -0.0006417193 -8.668248e-27)
(0.0003101999 1.573097e-05 -5.584285e-32)
(0.0003053986 1.638334e-05 3.140167e-26)
(0.0002835724 -4.329776e-05 6.026271e-28)
(0.0002456309 -0.00016035 4.184386e-32)
(0.000185416 -0.000327417 1.769031e-26)
(0.0001024807 -0.0005343915 8.287775e-27)
(-4.201831e-06 -0.0007695576 4.920078e-27)
(0.0002367227 8.8684e-06 2.436726e-26)
(0.0002242224 -9.022203e-06 1.165812e-26)
(0.0001964396 -8.761661e-05 -1.610302e-30)
(0.0001528959 -0.0002258203 -6.200821e-32)
(8.612207e-05 -0.0004179978 7.001042e-27)
(-3.761835e-06 -0.0006510045 -3.588195e-27)
(-0.0001173778 -0.0009105947 1.730424e-26)
(0.0001528819 -2.345085e-06 -7.968753e-27)
(0.0001367007 -3.912951e-05 -2.618528e-29)
(0.0001086074 -0.0001377635 -4.939255e-30)
(6.039547e-05 -0.0002992983 -2.400423e-30)
(-7.124979e-06 -0.0005189733 1.042767e-25)
(-9.729835e-05 -0.0007807988 1.432648e-25)
(-0.0002161122 -0.001062409 2.133132e-25)
(6.298267e-05 -1.379572e-05 -3.517478e-27)
(4.695943e-05 -6.956612e-05 -5.635361e-27)
(1.898083e-05 -0.000186464 -8.722801e-31)
(-2.587856e-05 -0.0003690737 7.528254e-32)
(-8.714235e-05 -0.0006090178 -2.027394e-30)
(-0.0001682771 -0.000899614 4.495979e-26)
(-0.000270267 -0.001212982 3.111138e-25)
(-2.66898e-05 -2.425773e-05 -5.443211e-32)
(-3.995056e-05 -9.744461e-05 -3.539752e-31)
(-6.306434e-05 -0.0002293365 3.134051e-31)
(-9.808244e-05 -0.0004283987 -3.650645e-31)
(-0.0001462195 -0.0006877464 -8.34127e-31)
(-0.0002101935 -0.0009979822 1.110791e-31)
(-0.0002872844 -0.001314462 -2.661746e-26)
(-0.0001123249 -3.256117e-05 -1.349152e-33)
(-0.0001217082 -0.0001193622 -1.205037e-26)
(-0.0001372714 -0.0002622681 8.247042e-31)
(-0.0001601709 -0.0004737545 3.333302e-31)
(-0.0001912047 -0.0007467543 2.881354e-26)
(-0.0002311051 -0.001066858 2.623041e-26)
(-0.0002751202 -0.001386501 -2.034107e-32)
(-0.0001960466 -3.825198e-05 -1.201323e-27)
(-0.0002008577 -0.0001336752 -1.004877e-26)
(-0.0002077976 -0.0002824806 -1.286551e-27)
(-0.000217155 -0.0005001705 6.249445e-32)
(-0.0002283603 -0.0007787733 3.155967e-26)
(-0.0002406494 -0.001099242 7.757235e-26)
(-0.0002499874 -0.001418775 1.360287e-25)
(-0.0002759514 -4.01748e-05 -1.705892e-27)
(-0.0002752966 -0.0001382802 3.474979e-31)
(-0.0002730165 -0.0002880041 -1.705136e-27)
(-0.0002684563 -0.0005052148 1.008524e-30)
(-0.0002596568 -0.0007809455 -6.126435e-27)
(-0.0002452071 -0.00109509 1.768921e-26)
(-0.0002217038 -0.001406739 1.051963e-25)
(-0.0003464611 -3.754458e-05 -1.726036e-26)
(-0.0003412527 -0.0001319767 -3.912094e-28)
(-0.0003309054 -0.0002782214 -1.618179e-26)
(-0.0003143318 -0.0004891661 7.575661e-27)
(-0.0002888829 -0.0007556896 1.812642e-26)
(-0.0002526712 -0.001058759 1.958574e-26)
(-0.0002010082 -0.00135517 3.6827e-26)
(-0.0004089122 -3.24584e-05 -2.032464e-26)
(-0.0004011376 -0.000118922 -2.059419e-26)
(-0.0003852801 -0.0002579153 -2.054992e-26)
(-0.0003598509 -0.0004587634 3.294264e-27)
(-0.0003218985 -0.0007119361 6.882856e-27)
(-0.0002695366 -0.0009998948 2.407449e-26)
(-0.0001970279 -0.00127675 -1.764169e-26)
(-0.0004640182 -2.595056e-05 -3.332469e-31)
(-0.000454772 -0.000101982 -4.530572e-26)
(-0.0004359471 -0.0002312446 6.342375e-31)
(-0.0004029914 -0.0004193836 -1.93896e-26)
(-0.000355196 -0.0006563438 8.654184e-27)
(-0.0002905716 -0.0009257033 4.556261e-30)
(-0.000207393 -0.001182921 1.464606e-26)
(-0.0005069769 -1.850725e-05 -2.513301e-26)
(-0.0004969307 -8.336057e-05 -2.388272e-26)
(-0.0004762977 -0.0002020664 -1.865002e-30)
(-0.0004396086 -0.0003730723 2.045445e-26)
(-0.0003873236 -0.0005943877 -3.607198e-31)
(-0.0003178868 -0.0008428073 1.579342e-25)
(-0.0002292842 -0.001072491 8.204978e-26)
(-0.000534278 -1.061558e-05 -8.00652e-26)
(-0.0005261953 -6.142048e-05 5.23759e-26)
(-0.000505851 -0.0001637641 5.350196e-26)
(-0.0004726436 -0.0003213227 5.312212e-26)
(-0.0004214766 -0.0005238375 -3.309173e-32)
(-0.0003531128 -0.0007537833 3.969112e-27)
(-0.0002679183 -0.00097035 2.36546e-26)
(-0.0005469336 -5.257704e-06 -5.470317e-26)
(-0.0005450364 -4.364711e-05 5.44225e-26)
(-0.0005297628 -0.0001350437 5.242699e-26)
(-0.0005017847 -0.0002763838 -6.414465e-27)
(-0.0004534709 -0.000459072 1.075225e-26)
(-0.0003855215 -0.000670211 -3.709192e-27)
(-0.0002984875 -0.0008746037 9.801215e-30)
(-0.000546999 -4.299743e-06 -1.089265e-29)
(-0.000552034 -3.477102e-05 -1.890537e-28)
(-0.0005432073 -0.0001110277 -5.404149e-26)
(-0.0005195218 -0.0002339447 5.379915e-27)
(-0.0004737097 -0.0003959246 9.347495e-27)
(-0.0004062106 -0.0005850037 -2.752947e-26)
(-0.0003221282 -0.000775844 -3.659372e-26)
(-0.0005352862 -7.146159e-06 -5.365158e-26)
(-0.0005441696 -3.359591e-05 1.132784e-31)
(-0.0005420795 -9.355353e-05 -5.403955e-26)
(-0.0005235306 -0.0001963972 8.891039e-27)
(-0.0004839687 -0.0003401643 -1.400963e-26)
(-0.000421348 -0.0005053544 -4.638469e-26)
(-0.0003433939 -0.0006767082 6.377961e-26)
(-0.0005134844 -1.131715e-05 -5.155857e-26)
(-0.0005221266 -3.826678e-05 6.048433e-28)
(-0.0005260042 -8.404747e-05 -5.055012e-26)
(-0.0005155511 -0.0001672849 -5.325563e-31)
(-0.0004873561 -0.0002847776 1.511732e-30)
(-0.000433151 -0.0004332101 -2.047007e-26)
(-0.0003601234 -0.0005890913 5.171099e-27)
(-0.0004842105 -1.458466e-05 0)
(-0.0004899552 -4.612834e-05 1.782589e-27)
(-0.0004962992 -8.433013e-05 -9.52559e-26)
(-0.000497167 -0.0001470908 4.912916e-26)
(-0.000477715 -0.0002468021 -1.169369e-26)
(-0.0004328021 -0.0003712521 -1.782068e-26)
(-0.0003645718 -0.0005115547 6.657837e-26)
(-0.0004501486 -1.672011e-05 0)
(-0.0004532849 -5.154087e-05 -1.230567e-27)
(-0.0004576682 -9.03195e-05 -4.770559e-26)
(-0.0004626823 -0.0001411401 3.301737e-27)
(-0.0004514688 -0.0002166715 5.269137e-27)
(-0.0004171552 -0.0003193903 5.770489e-26)
(-0.0003598019 -0.0004332948 -4.896828e-26)
(-0.0004138291 -1.771823e-05 -4.161795e-26)
(-0.0004135648 -5.514686e-05 0)
(-0.0004145297 -9.539357e-05 0)
(-0.0004166863 -0.0001404414 -4.121253e-26)
(-0.0004108871 -0.000198573 7.829098e-26)
(-0.0003894133 -0.00027481 -7.686361e-31)
(-0.0003420875 -0.0003740726 -2.858948e-26)
(-0.000376283 -1.80715e-05 -3.789528e-26)
(-0.0003732793 -5.588435e-05 -7.010187e-28)
(-0.0003707535 -9.617311e-05 -1.22813e-27)
(-0.0003676279 -0.0001397122 -1.299187e-26)
(-0.0003628451 -0.0001854417 5.118119e-26)
(-0.0003467382 -0.0002447506 -1.369562e-30)
(-0.0003104159 -0.0003176628 -3.213349e-30)
(-0.0003388672 -1.771393e-05 0)
(-0.0003340702 -5.447569e-05 3.351742e-26)
(-0.0003285635 -9.337124e-05 0)
(-0.0003224444 -0.0001326467 -3.362925e-27)
(-0.0003124334 -0.0001758668 -4.490139e-27)
(-0.0002969926 -0.0002219616 1.107492e-26)
(-0.0002696832 -0.0002722559 -1.359095e-28)
(-0.000302971 -1.684902e-05 0)
(-0.0002970361 -5.162386e-05 -2.958271e-26)
(-0.000290486 -8.658024e-05 2.886855e-26)
(-0.000280999 -0.0001237715 0)
(-0.0002680048 -0.000161755 -8.231528e-27)
(-0.0002507298 -0.0001987788 3.555899e-27)
(-0.0002255525 -0.0002361361 -1.00718e-28)
(-0.0002693717 -1.568703e-05 0)
(-0.0002637482 -4.708997e-05 -7.934286e-26)
(-0.0002560029 -7.948387e-05 -5.142413e-29)
(-0.0002453504 -0.0001123528 -5.382672e-26)
(-0.0002313779 -0.0001443215 -7.525995e-27)
(-0.0002125921 -0.0001761075 2.029274e-26)
(-0.0001879915 -0.0002058986 -4.054668e-26)
(-0.0002392045 -1.411818e-05 2.42127e-26)
(-0.0002337833 -4.270391e-05 -2.407795e-26)
(-0.0002260635 -7.134342e-05 1.403441e-29)
(-0.0002155687 -9.97295e-05 -4.095043e-26)
(-0.000201475 -0.0001273143 0)
(-0.000183489 -0.0001530284 0)
(-0.0001611523 -0.0001752536 -1.834519e-26)
(-0.0002124536 -1.260481e-05 2.144169e-26)
(-0.0002074669 -3.815543e-05 -2.118483e-26)
(-0.0002002377 -6.349591e-05 2.004579e-26)
(-0.0001904674 -8.796505e-05 1.888365e-26)
(-0.0001773165 -0.0001118776 0)
(-0.0001609021 -0.0001342284 0)
(-0.0001419085 -0.000151464 -1.96217e-26)
(-0.0001890315 -1.115971e-05 -1.917801e-26)
(-0.0001845451 -3.381435e-05 -1.951982e-26)
(-0.0001780912 -5.589258e-05 -7.507965e-28)
(-0.0001691002 -7.750288e-05 1.575084e-26)
(-0.0001573445 -9.811482e-05 7.662128e-27)
(-0.0001432518 -0.0001161033 -1.763372e-26)
(-0.0001266771 -0.000132615 8.148311e-27)
(-0.0001687473 -9.809621e-06 -1.71932e-26)
(-0.0001648348 -2.97411e-05 -2.057181e-28)
(-0.0001589953 -4.931476e-05 6.781068e-28)
(-0.0001510141 -6.82105e-05 9.479625e-28)
(-0.000140802 -8.622106e-05 0)
(-0.0001286768 -0.0001022904 -1.474337e-26)
(-0.0001147005 -0.0001170993 1.096371e-26)
(-0.0001512089 -8.662809e-06 0)
(-0.0001477959 -2.623973e-05 -3.63174e-28)
(-0.0001425556 -4.3642e-05 -6.11064e-28)
(-0.0001353417 -6.062403e-05 3.280321e-26)
(-0.0001268463 -7.587721e-05 8.07672e-27)
(-0.0001160587 -9.083958e-05 2.002808e-26)
(-0.0001043794 -0.0001041127 7.06888e-27)
(-0.0001360495 -7.623106e-06 -5.241815e-29)
(-0.0001329879 -2.322076e-05 -1.645897e-28)
(-0.0001283425 -3.857917e-05 0)
(-0.0001222154 -5.346582e-05 -4.285234e-29)
(-0.0001143028 -6.77512e-05 1.132737e-26)
(-0.0001052008 -8.102035e-05 1.032863e-26)
(-9.506447e-05 -9.312877e-05 -2.687757e-27)
(-0.0001228226 -6.764484e-06 1.245265e-26)
(-0.0001200589 -2.070055e-05 -1.253209e-26)
(-0.0001158255 -3.461193e-05 2.090342e-26)
(-0.0001106599 -4.765911e-05 -2.5102e-26)
(-0.0001035302 -6.061165e-05 9.420231e-27)
(-9.557119e-05 -7.256171e-05 0)
(-8.654685e-05 -8.362142e-05 2.431056e-27)
(-0.000111165 -6.038446e-06 1.132908e-26)
(-0.000108579 -1.859784e-05 -1.087304e-26)
(-0.0001050547 -3.078991e-05 1.046291e-26)
(-0.0001001013 -4.289143e-05 0)
(-9.397975e-05 -5.441409e-05 -9.413999e-27)
(-8.687922e-05 -6.523455e-05 0)
(-7.874703e-05 -7.53284e-05 7.814846e-27)
(-0.0001008423 -5.374713e-06 0)
(-9.861207e-05 -1.658777e-05 0)
(-9.525578e-05 -2.778517e-05 -1.924918e-26)
(-9.084272e-05 -3.860419e-05 0)
(-8.54064e-05 -4.897039e-05 -1.716555e-26)
(-7.896803e-05 -5.881105e-05 -7.915492e-27)
(-7.149795e-05 -6.809718e-05 7.129521e-27)
(-9.160385e-05 -4.868865e-06 -9.285417e-27)
(-8.966218e-05 -1.491399e-05 0)
(-8.655834e-05 -2.503626e-05 -8.57381e-27)
(-8.257905e-05 -3.477167e-05 8.603859e-27)
(-7.765484e-05 -4.412783e-05 -7.825624e-27)
(-7.177709e-05 -5.3002e-05 -1.444572e-26)
(-6.488706e-05 -6.127135e-05 -6.507546e-27)
(-8.338931e-05 -4.358962e-06 -8.430364e-27)
(-8.151967e-05 -1.349258e-05 -8.212041e-27)
(-7.874475e-05 -2.258846e-05 0)
(-7.513267e-05 -3.135881e-05 8.060525e-27)
(-7.065272e-05 -3.979694e-05 5.832543e-28)
(-6.530596e-05 -4.777485e-05 -1.389881e-26)
(-5.905647e-05 -5.512156e-05 -2.441329e-27)
(-7.595747e-05 -3.925882e-06 -7.688794e-27)
(-7.422782e-05 -1.217062e-05 -7.518103e-27)
(-7.170566e-05 -2.03795e-05 7.273527e-27)
(-6.840379e-05 -2.829829e-05 0)
(-6.430774e-05 -3.593359e-05 0)
(-5.940289e-05 -4.322176e-05 -6.016238e-27)
(-5.357713e-05 -5.021246e-05 1.105735e-26)
(-6.923564e-05 -3.526749e-06 -7.001076e-27)
(-6.764477e-05 -1.097102e-05 -6.853713e-27)
(-6.53392e-05 -1.837912e-05 6.625303e-27)
(-6.231333e-05 -2.551707e-05 0)
(-5.85525e-05 -3.239364e-05 4.751123e-28)
(-5.402845e-05 -3.891862e-05 7.574512e-31)
(-4.866487e-05 -4.508294e-05 -6.693863e-28)
(-6.313395e-05 -3.160327e-06 0)
(-6.168745e-05 -9.869081e-06 -6.244574e-27)
(-5.958148e-05 -1.655155e-05 6.045808e-27)
(-5.680951e-05 -2.297816e-05 0)
(-5.336006e-05 -2.916434e-05 -5.856025e-27)
(-4.921081e-05 -3.503207e-05 -1.034963e-27)
(-4.430411e-05 -4.056613e-05 -6.03357e-28)
(-5.762385e-05 -2.823511e-06 5.817439e-27)
(-5.631125e-05 -8.858471e-06 -3.246223e-29)
(-5.438486e-05 -1.487691e-05 5.459303e-27)
(-5.184482e-05 -2.065268e-05 -1.509222e-28)
(-4.868241e-05 -2.620689e-05 -1.879886e-28)
(-4.486346e-05 -3.14781e-05 -4.561954e-27)
(-4.037643e-05 -3.642144e-05 0)
(-5.264619e-05 -2.513193e-06 1.061769e-26)
(-5.145866e-05 -7.928732e-06 0)
(-4.969734e-05 -1.333978e-05 0)
(-4.736917e-05 -1.852639e-05 4.94806e-27)
(-4.445792e-05 -2.353243e-05 9.215093e-27)
(-4.087404e-05 -2.836208e-05 -4.152587e-27)
(-3.685657e-05 -3.262642e-05 0)
(-4.815951e-05 -2.226435e-06 4.850571e-27)
(-4.708805e-05 -7.070365e-06 -2.599191e-29)
(-4.547931e-05 -1.192126e-05 -4.360614e-29)
(-4.334534e-05 -1.65584e-05 -1.240702e-28)
(-4.067093e-05 -2.101694e-05 3.976768e-27)
(-3.741405e-05 -2.528656e-05 0)
(-3.361276e-05 -2.926137e-05 -3.421365e-27)
(-4.412673e-05 -1.961072e-06 -3.560876e-30)
(-4.316289e-05 -6.277182e-06 -4.390615e-27)
(-4.169587e-05 -1.061328e-05 -4.258937e-27)
(-3.974375e-05 -1.475091e-05 -8.0624e-27)
(-3.729824e-05 -1.873535e-05 0)
(-3.433637e-05 -2.256476e-05 -3.432008e-27)
(-3.082326e-05 -2.613056e-05 4.207577e-30)
(-4.051394e-05 -1.715303e-06 -4.068097e-27)
(-3.964897e-05 -5.543829e-06 -8.001529e-27)
(-3.831213e-05 -9.406555e-06 -7.778862e-27)
(-3.65258e-05 -1.308677e-05 -3.795536e-27)
(-3.427782e-05 -1.664264e-05 -1.225542e-28)
(-3.157373e-05 -2.005962e-05 -3.152196e-27)
(-2.836185e-05 -2.325584e-05 3.055841e-27)
(-3.728991e-05 -1.487487e-06 -3.741728e-27)
(-3.651443e-05 -4.865055e-06 -7.349663e-27)
(-3.529437e-05 -8.294294e-06 -3.561781e-27)
(-3.365096e-05 -1.156801e-05 0)
(-3.154402e-05 -1.478281e-05 -8.215727e-28)
(-2.911318e-05 -1.775098e-05 -1.273044e-27)
(-2.618314e-05 -2.063128e-05 -3.088153e-28)
(-3.442601e-05 -1.27531e-06 -3.45233e-27)
(-3.373047e-05 -4.23345e-06 -3.381534e-27)
(-3.261372e-05 -7.258136e-06 7.956392e-29)
(-3.109937e-05 -1.013786e-05 7.425676e-29)
(-2.917552e-05 -1.296489e-05 0)
(-2.686645e-05 -1.568919e-05 -2.720799e-27)
(-2.424784e-05 -1.823785e-05 1.369547e-28)
(-3.189598e-05 -1.077334e-06 -3.193407e-27)
(-3.127087e-05 -3.645168e-06 -3.131487e-27)
(-3.024534e-05 -6.29718e-06 4.603165e-29)
(-2.884822e-05 -8.825966e-06 3.229485e-29)
(-2.707925e-05 -1.132989e-05 0)
(-2.492736e-05 -1.375938e-05 -2.417568e-27)
(-2.253514e-05 -1.604343e-05 2.411496e-28)
(-2.967554e-05 -8.914496e-07 1.636476e-30)
(-2.911045e-05 -3.094245e-06 -5.827436e-27)
(-2.816108e-05 -5.400456e-06 1.968351e-29)
(-2.68604e-05 -7.607095e-06 2.777847e-29)
(-2.521484e-05 -9.814608e-06 0)
(-2.321573e-05 -1.197801e-05 0)
(-2.10093e-05 -1.403658e-05 0)
(-2.774298e-05 -7.154671e-07 0)
(-2.722634e-05 -2.57401e-06 -2.723533e-27)
(-2.633607e-05 -4.557364e-06 0)
(-2.510734e-05 -6.468772e-06 2.479574e-27)
(-2.356262e-05 -8.404388e-06 -6.130959e-29)
(-2.169528e-05 -1.033388e-05 -7.642985e-29)
(-1.964488e-05 -1.219915e-05 1.900073e-27)
(-2.607998e-05 -5.465561e-07 -2.597851e-27)
(-2.559826e-05 -2.077174e-06 0)
(-2.474592e-05 -3.760616e-06 2.699489e-29)
(-2.355337e-05 -5.419265e-06 2.119243e-27)
(-2.209777e-05 -7.079417e-06 -2.612829e-27)
(-2.033771e-05 -8.812346e-06 0)
(-1.841646e-05 -1.051515e-05 1.865949e-27)
(-2.467246e-05 -3.809308e-07 -2.453771e-27)
(-2.420965e-05 -1.591696e-06 0)
(-2.33731e-05 -2.982409e-06 1.063567e-29)
(-2.221188e-05 -4.376956e-06 1.557407e-29)
(-2.07677e-05 -5.859825e-06 -4.186075e-27)
(-1.911245e-05 -7.402168e-06 1.93358e-27)
(-1.729762e-05 -8.970146e-06 -1.755632e-27)
(-2.351125e-05 -2.148261e-07 0)
(-2.304802e-05 -1.109302e-06 -2.294104e-27)
(-2.220135e-05 -2.222803e-06 7.749414e-30)
(-2.103821e-05 -3.385221e-06 2.111458e-27)
(-1.959979e-05 -4.682213e-06 -1.979017e-27)
(-1.799629e-05 -6.080785e-06 1.824276e-27)
(-1.626147e-05 -7.549664e-06 7.652951e-31)
(-2.259302e-05 -4.257325e-08 0)
(-2.210272e-05 -6.147123e-07 -2.203552e-27)
(-2.120856e-05 -1.45823e-06 2.127157e-27)
(-2.000033e-05 -2.40798e-06 2.02102e-27)
(-1.854051e-05 -3.548707e-06 -1.867874e-27)
(-1.69552e-05 -4.842016e-06 3.262136e-29)
(-1.527978e-05 -6.246367e-06 1.561375e-27)
(-2.192323e-05 1.437412e-07 0)
(-2.136871e-05 -8.855545e-08 0)
(-2.037781e-05 -6.658198e-07 2.049512e-27)
(-1.907585e-05 -1.425997e-06 -1.931133e-27)
(-1.755651e-05 -2.446999e-06 2.513754e-31)
(-1.595976e-05 -3.676391e-06 0)
(-1.432545e-05 -5.055537e-06 0)