/*--------------------------------*- C++ -*----------------------------------*\
| =========                 |                                                 |
| \\      /  F ield         | OpenFOAM: The Open Source CFD Toolbox           |
|  \\    /   O peration     | Version:  2206                                  |
|   \\  /    A nd           | Website:  www.openfoam.com                      |
|    \\/     M anipulation  |                                                 |
\*---------------------------------------------------------------------------*/
FoamFile
{
    version     2.0;
    format      ascii;
    arch        "LSB;label=32;scalar=64";
    class       surfaceVectorField;
    location    "2.6";
    object      Ufa;
}
// * * * * * * * * * * * * * * * * * * * * * * * * * * * * * * * * * * * * * //

dimensions      [0 1 -1 0 0 0 0];

internalField   nonuniform List<vector> 
26037
(
(1.180125e-05 -0.0001333469 3.204541e-23)
(-2.047289e-05 -0.0001283967 2.077354e-27)
(1.994137e-06 -5.977604e-05 4.24482e-25)
(-1.483743e-05 -6.493604e-05 1.765058e-26)
(1.504855e-07 -3.220424e-05 -4.113095e-29)
(-5.495348e-06 -3.553989e-05 -4.122436e-29)
(-1.686966e-07 -2.035473e-05 -6.042606e-30)
(-2.465322e-06 -2.224948e-05 0)
(-2.792932e-07 -1.529643e-05 3.317612e-27)
(-1.442684e-06 -1.667878e-05 -6.042076e-30)
(-3.445292e-07 -1.212616e-05 -1.158556e-29)
(-1.025605e-06 -1.325079e-05 -8.275823e-30)
(-8.296237e-07 -1.064176e-05 -5.802176e-30)
(-3.951263e-07 -9.696076e-06 9.528055e-28)
(-4.868722e-05 -5.804231e-05 -3.57848e-32)
(-4.132827e-05 -3.974417e-05 1.149779e-30)
(-2.258309e-05 -4.071256e-05 -3.612874e-32)
(-2.527988e-05 -3.605688e-05 -1.13639e-31)
(-8.10869e-06 -2.556614e-05 0)
(-1.079973e-05 -2.480334e-05 7.66619e-30)
(-3.739112e-06 -1.857532e-05 -1.928539e-34)
(-5.495096e-06 -1.876273e-05 1.2022e-29)
(-2.188935e-06 -1.463358e-05 -2.044976e-34)
(-3.286393e-06 -1.513433e-05 4.027755e-29)
(-1.510684e-06 -1.176657e-05 1.356832e-34)
(-2.214925e-06 -1.236291e-05 -1.170688e-35)
(-1.638334e-06 -1.008765e-05 2.358798e-30)
(-1.167401e-06 -9.477653e-06 -5.816042e-30)
(-1.810761e-05 -1.750016e-05 1.072357e-30)
(-1.27279e-05 -9.647705e-06 2.492046e-25)
(-1.356361e-05 -2.008976e-05 7.577366e-30)
(-1.268191e-05 -1.555441e-05 -5.373382e-26)
(-8.166382e-06 -1.794276e-05 -4.506591e-27)
(-8.839352e-06 -1.586549e-05 8.799521e-30)
(-5.042198e-06 -1.532153e-05 -2.339102e-27)
(-5.917868e-06 -1.453399e-05 1.278846e-29)
(-3.312501e-06 -1.286393e-05 5.770982e-30)
(-4.042527e-06 -1.268626e-05 -5.059504e-29)
(-2.342609e-06 -1.068415e-05 -3.305909e-35)
(-2.894638e-06 -1.081792e-05 0)
(-2.190657e-06 -9.061947e-06 -3.466602e-30)
(-1.782109e-06 -8.770899e-06 5.819612e-30)
(-7.288799e-06 -7.685988e-06 2.577585e-31)
(-4.227882e-06 -3.854888e-06 -1.120155e-31)
(-7.978788e-06 -1.130227e-05 1.240293e-30)
(-6.596563e-06 -8.089981e-06 -1.144986e-26)
(-6.570071e-06 -1.241058e-05 1.222409e-28)
(-6.292007e-06 -1.02754e-05 -1.226253e-27)
(-4.916763e-06 -1.188248e-05 6.805068e-31)
(-5.131394e-06 -1.070242e-05 1.705477e-27)
(-3.62475e-06 -1.064033e-05 2.244262e-33)
(-3.979014e-06 -1.009075e-05 -6.868888e-30)
(-2.742719e-06 -9.195819e-06 3.762487e-34)
(-3.087974e-06 -9.015138e-06 -1.478792e-35)
(-2.45734e-06 -7.779641e-06 5.824414e-30)
(-2.160649e-06 -7.73517e-06 -5.824864e-30)
(-3.532669e-06 -4.254592e-06 -1.792886e-28)
(-1.704391e-06 -2.049565e-06 -1.480114e-31)
(-4.911759e-06 -7.045544e-06 -2.442784e-28)
(-3.70202e-06 -4.839847e-06 -1.611336e-32)
(-4.845402e-06 -8.555921e-06 1.488056e-31)
(-4.275628e-06 -6.804322e-06 -9.431771e-32)
(-4.189279e-06 -8.888606e-06 -1.02911e-28)
(-4.037674e-06 -7.686217e-06 -8.362818e-29)
(-3.441403e-06 -8.456381e-06 -9.719646e-29)
(-3.513764e-06 -7.74554e-06 -5.000699e-28)
(-2.802609e-06 -7.598987e-06 -1.943546e-28)
(-2.963576e-06 -7.251641e-06 -5.838839e-30)
(-2.498466e-06 -6.431731e-06 -6.097039e-30)
(-2.319508e-06 -6.546409e-06 5.824027e-30)
(-1.872201e-06 -2.632506e-06 3.698733e-31)
(-8.015823e-07 -1.314473e-06 0)
(-3.061269e-06 -4.582795e-06 1.612402e-28)
(-2.163729e-06 -3.096756e-06 5.919335e-31)
(-3.466741e-06 -5.937825e-06 -2.179749e-28)
(-2.887925e-06 -4.610949e-06 -6.087011e-30)
(-3.360245e-06 -6.535122e-06 1.141077e-28)
(-3.067643e-06 -5.505314e-06 -5.676694e-30)
(-3.033686e-06 -6.527141e-06 -5.12547e-30)
(-2.937007e-06 -5.807617e-06 -1.480006e-28)
(-2.658789e-06 -6.078426e-06 3.363376e-30)
(-2.681068e-06 -5.652867e-06 -5.187718e-30)
(-2.39994e-06 -5.144805e-06 -1.177632e-29)
(-2.319925e-06 -5.341614e-06 2.004505e-28)
(-1.092159e-06 -1.777378e-06 2.217511e-31)
(-4.400455e-07 -9.513206e-07 -3.632263e-31)
(-1.985128e-06 -3.113822e-06 -5.465639e-30)
(-1.35045e-06 -2.104618e-06 -1.669968e-27)
(-2.486634e-06 -4.175235e-06 -1.345758e-27)
(-1.995006e-06 -3.20332e-06 -9.562957e-28)
(-2.642917e-06 -4.775537e-06 -4.911917e-30)
(-2.325152e-06 -3.952026e-06 -5.991173e-30)
(-2.583406e-06 -4.927969e-06 5.444687e-29)
(-2.413074e-06 -4.301096e-06 1.689246e-30)
(-2.420877e-06 -4.709981e-06 7.436066e-31)
(-2.355926e-06 -4.279428e-06 1.487698e-30)
(-2.23358e-06 -3.960806e-06 7.391689e-31)
(-2.228217e-06 -4.200586e-06 -1.434861e-33)
(-6.978986e-07 -1.277952e-06 -1.43493e-31)
(-2.755573e-07 -7.423581e-07 2.644583e-27)
(-1.359288e-06 -2.191989e-06 4.652979e-31)
(-9.081843e-07 -1.495155e-06 -2.396071e-31)
(-1.832571e-06 -2.977663e-06 2.47971e-31)
(-1.440714e-06 -2.277841e-06 7.456489e-31)
(-2.096192e-06 -3.48011e-06 6.400632e-31)
(-1.802246e-06 -2.84836e-06 7.542688e-31)
(-2.18562e-06 -3.652651e-06 1.380769e-30)
(-1.994332e-06 -3.143455e-06 -6.762612e-28)
(-2.168126e-06 -3.526642e-06 2.14623e-29)
(-2.06101e-06 -3.151298e-06 1.49139e-30)
(-2.052602e-06 -2.906839e-06 7.442795e-31)
(-2.095894e-06 -3.150889e-06 -5.159998e-30)
(-4.855713e-07 -9.592092e-07 -4.430671e-31)
(-1.92546e-07 -6.078022e-07 -2.119377e-27)
(-9.890937e-07 -1.580245e-06 3.99315e-32)
(-6.60074e-07 -1.09153e-06 2.17967e-27)
(-1.406615e-06 -2.142573e-06 9.291282e-29)
(-1.098176e-06 -1.638846e-06 8.046388e-28)
(-1.701768e-06 -2.513803e-06 2.728719e-30)
(-1.446714e-06 -2.041402e-06 1.555533e-30)
(-1.869773e-06 -2.642166e-06 4.458661e-29)
(-1.683853e-06 -2.246428e-06 -8.26703e-28)
(-1.945498e-06 -2.531645e-06 7.464373e-31)
(-1.823198e-06 -2.228572e-06 7.462072e-31)
(-1.893248e-06 -2.000244e-06 0)
(-1.961718e-06 -2.208297e-06 -3.337304e-31)
(-3.668302e-07 -7.398656e-07 -8.073949e-32)
(-1.481588e-07 -5.134988e-07 3.491333e-31)
(-7.687348e-07 -1.149636e-06 -6.570615e-31)
(-5.187569e-07 -8.055358e-07 -4.300764e-31)
(-1.134396e-06 -1.533181e-06 5.631548e-31)
(-8.893796e-07 -1.173937e-06 -6.78351e-31)
(-1.43052e-06 -1.775512e-06 7.758443e-31)
(-1.214324e-06 -1.431137e-06 -1.284e-27)
(-1.637356e-06 -1.83288e-06 -1.9408e-32)
(-1.467756e-06 -1.537776e-06 9.91519e-28)
(-1.770937e-06 -1.697313e-06 0)
(-1.648421e-06 -1.467081e-06 0)
(-1.770856e-06 -1.220191e-06 0)
(-1.849529e-06 -1.380162e-06 1.178898e-30)
(-2.998963e-07 -5.789703e-07 0)
(-1.242826e-07 -4.429155e-07 0)
(-6.390216e-07 -8.295174e-07 -4.511775e-31)
(-4.394568e-07 -5.904336e-07 4.045389e-31)
(-9.655973e-07 -1.068964e-06 2.922477e-31)
(-7.662866e-07 -8.18294e-07 1.743712e-27)
(-1.253427e-06 -1.194194e-06 7.72128e-31)
(-1.070407e-06 -9.518861e-07 -7.592579e-31)
(-1.478908e-06 -1.17199e-06 2.014902e-32)
(-1.328439e-06 -9.628517e-07 -1.175986e-27)
(-1.648306e-06 -9.901006e-07 0)
(-1.53298e-06 -8.275693e-07 0)
(-1.690577e-06 -5.423367e-07 9.232771e-31)
(-1.770466e-06 -6.525784e-07 3.154917e-31)
(-2.636654e-07 -4.542106e-07 4.043706e-31)
(-1.124623e-07 -3.86949e-07 0)
(-5.663623e-07 -5.790212e-07 3.914546e-33)
(-3.982895e-07 -4.19587e-07 -2.084169e-27)
(-8.675326e-07 -6.996616e-07 -1.904971e-30)
(-6.999294e-07 -5.328087e-07 -1.147711e-30)
(-1.147349e-06 -7.206336e-07 -1.939943e-29)
(-9.904972e-07 -5.602491e-07 1.59713e-27)
(-1.382598e-06 -6.184085e-07 -2.277268e-31)
(-1.25025e-06 -4.816567e-07 2.837558e-31)
(-1.575195e-06 -3.79952e-07 9.229592e-31)
(-1.470022e-06 -2.778282e-07 -5.184603e-31)
(-1.652375e-06 5.641663e-08 9.547454e-28)
(-1.728427e-06 -6.323623e-09 -4.125237e-29)
(-2.469114e-07 -3.521798e-07 -3.972596e-31)
(-1.083097e-07 -3.401442e-07 2.657106e-31)
(-5.315039e-07 -3.733e-07 4.282723e-30)
(-3.821928e-07 -2.769006e-07 -3.973246e-31)
(-8.194004e-07 -3.93074e-07 -1.4477e-30)
(-6.728575e-07 -2.928934e-07 -1.493243e-30)
(-1.095369e-06 -3.206765e-07 -1.796558e-31)
(-9.579798e-07 -2.270695e-07 -1.460863e-30)
(-1.337756e-06 -1.410174e-07 -7.504445e-33)
(-1.220927e-06 -6.520595e-08 -1.658076e-27)
(-1.547125e-06 1.583775e-07 -4.989268e-31)
(-1.452556e-06 2.07677e-07 1.331494e-27)
(-1.654069e-06 5.964676e-07 -1.134812e-27)
(-1.723795e-06 5.771274e-07 1.954852e-32)
(-2.434112e-07 -2.647319e-07 2.657619e-31)
(-1.094144e-07 -2.991377e-07 -1.978087e-27)
(-5.231881e-07 -1.965177e-07 -7.461841e-31)
(-3.837411e-07 -1.521587e-07 0)
(-8.07965e-07 -1.276718e-07 -5.553988e-30)
(-6.741414e-07 -8.237593e-08 -2.239579e-30)
(-1.08546e-06 2.965313e-08 1.896025e-31)
(-9.59371e-07 6.749875e-08 9.505119e-30)
(-1.335851e-06 2.837027e-07 4.759108e-31)
(-1.228326e-06 3.070233e-07 -2.267593e-27)
(-1.559404e-06 6.455872e-07 3.636124e-32)
(-1.474022e-06 6.491208e-07 -4.599578e-31)
(-1.692892e-06 1.095384e-06 1.773098e-32)
(-1.755421e-06 1.114566e-06 -1.569404e-30)
(-2.49554e-07 -1.864386e-07 1.994675e-31)
(-1.144536e-07 -2.616316e-07 1.993755e-31)
(-5.343534e-07 -3.810779e-08 -1.491634e-30)
(-3.987942e-07 -3.836532e-08 1.973506e-31)
(-8.226585e-07 1.115687e-07 4.20546e-30)
(-6.982556e-07 1.100869e-07 -1.492015e-30)
(-1.10269e-06 3.461384e-07 -1.632708e-28)
(-9.91058e-07 3.385553e-07 1.840203e-27)
(-1.367476e-06 6.747845e-07 1.254559e-29)
(-1.270313e-06 6.526906e-07 1.415497e-29)
(-1.607464e-06 1.098932e-06 -4.786542e-31)
(-1.531148e-06 1.062673e-06 1.519595e-30)
(-1.766855e-06 1.56815e-06 1.554643e-27)
(-1.82175e-06 1.620976e-06 -9.83991e-31)
(-2.634894e-07 -1.134372e-07 1.972553e-31)
(-1.22666e-07 -2.259579e-07 0)
(-5.624149e-07 1.096726e-07 1.973904e-31)
(-4.248831e-07 6.957007e-08 -2.854465e-27)
(-8.650729e-07 3.354138e-07 1.261368e-30)
(-7.413923e-07 2.927478e-07 -7.457848e-31)
(-1.155841e-06 6.411324e-07 -3.940758e-29)
(-1.049758e-06 5.94972e-07 5.098686e-31)
(-1.436203e-06 1.044016e-06 3.055256e-30)
(-1.344784e-06 9.820657e-07 1.535888e-30)
(-1.690586e-06 1.532052e-06 -9.064355e-29)
(-1.621522e-06 1.461492e-06 1.518935e-30)
(-1.87458e-06 2.02787e-06 1.103232e-30)
(-1.922098e-06 2.109568e-06 2.620654e-30)
(-2.838355e-07 -4.283041e-08 2.083539e-31)
(-1.336785e-07 -1.908758e-07 3.18696e-31)
(-6.036084e-07 2.52492e-07 -5.36881e-31)
(-4.60594e-07 1.754966e-07 -3.15823e-27)
(-9.255027e-07 5.517827e-07 2.161063e-29)
(-8.006897e-07 4.721198e-07 -2.238412e-30)
(-1.234066e-06 9.298603e-07 -7.642968e-31)
(-1.130194e-06 8.479875e-07 -1.506041e-30)
(-1.533107e-06 1.404827e-06 0)
(-1.445829e-06 1.308299e-06 0)
(-1.805614e-06 1.95762e-06 0)
(-1.742631e-06 1.857409e-06 -1.243159e-30)
(-2.015263e-06 2.486447e-06 -3.050475e-30)
(-2.055703e-06 2.592589e-06 -1.521805e-30)
(-3.101881e-07 2.757138e-08 8.403971e-29)
(-1.473884e-07 -1.553773e-07 -2.871324e-27)
(-6.573975e-07 3.949338e-07 4.29258e-29)
(-5.055101e-07 2.82556e-07 -8.285597e-31)
(-1.00483e-06 7.6779e-07 2.949484e-29)
(-8.757472e-07 6.535454e-07 -3.733959e-30)
(-1.336772e-06 1.218978e-06 -7.65791e-31)
(-1.232493e-06 1.104296e-06 -2.263641e-30)
(-1.658688e-06 1.767168e-06 -1.25761e-30)
(-1.573685e-06 1.639415e-06 0)
(-1.952384e-06 2.386599e-06 1.437004e-28)
(-1.894468e-06 2.260268e-06 -2.866289e-27)
(-2.189333e-06 2.95482e-06 -4.580296e-30)
(-2.22297e-06 3.081428e-06 1.742848e-28)
(-3.424324e-07 9.972865e-08 9.356246e-29)
(-1.638256e-07 -1.18542e-07 4.101462e-32)
(-7.235487e-07 5.409345e-07 4.907395e-29)
(-5.596455e-07 3.9354e-07 -3.891329e-27)
(-1.1028e-06 9.894029e-07 7.748751e-29)
(-9.665826e-07 8.416938e-07 -2.429115e-30)
(-1.463739e-06 1.515992e-06 -1.534261e-30)
(-1.356283e-06 1.370259e-06 -1.509711e-30)
(-1.813012e-06 2.139552e-06 1.80047e-31)
(-1.725198e-06 1.981631e-06 1.232851e-29)
(-2.131646e-06 2.829191e-06 -1.355365e-30)
(-2.073328e-06 2.676337e-06 1.566909e-29)
(-2.397317e-06 3.443196e-06 1.552489e-30)
(-2.425116e-06 3.586968e-06 2.059964e-28)
(-3.807268e-07 1.753928e-07 -6.092296e-31)
(-1.831198e-07 -7.948408e-08 -3.526816e-27)
(-8.023311e-07 6.940239e-07 -6.330584e-31)
(-6.234811e-07 5.110985e-07 -4.301336e-27)
(-1.219456e-06 1.221891e-06 -1.885168e-31)
(-1.074165e-06 1.040973e-06 -4.093202e-27)
(-1.612802e-06 1.828011e-06 1.221675e-29)
(-1.503767e-06 1.652068e-06 1.229392e-30)
(-1.987255e-06 2.522219e-06 -1.190919e-27)
(-1.907354e-06 2.343839e-06 1.380499e-29)
(-2.341391e-06 3.296116e-06 -5.190595e-28)
(-2.287989e-06 3.118271e-06 1.603904e-29)
(-2.643113e-06 3.961939e-06 1.417396e-30)
(-2.663454e-06 4.120134e-06 3.08279e-30)
(-4.255238e-07 2.563471e-07 -1.173912e-28)
(-2.055177e-07 -3.737884e-08 -6.014071e-31)
(-8.949267e-07 8.577227e-07 -6.762261e-29)
(-6.978186e-07 6.377588e-07 -4.783278e-27)
(-1.357942e-06 1.470552e-06 1.294523e-30)
(-1.19974e-06 1.255655e-06 -4.607209e-27)
(-1.79493e-06 2.162186e-06 -1.323852e-28)
(-1.676478e-06 1.955543e-06 -4.374175e-27)
(-2.202482e-06 2.928774e-06 2.025162e-30)
(-2.121843e-06 2.732443e-06 1.530942e-30)
(-2.59381e-06 3.794143e-06 -1.225865e-30)
(-2.541365e-06 3.593929e-06 -3.640756e-27)
(-2.930149e-06 4.521163e-06 3.44266e-27)
(-2.943567e-06 4.691032e-06 2.807377e-28)
(-4.774187e-07 3.441623e-07 1.964805e-31)
(-2.313819e-07 8.546237e-09 5.667527e-31)
(-1.002195e-06 1.035315e-06 -7.516161e-29)
(-7.836639e-07 7.759093e-07 1.965092e-31)
(-1.517816e-06 1.740178e-06 -6.521622e-31)
(-1.344738e-06 1.489798e-06 2.34642e-31)
(-2.002253e-06 2.524049e-06 -8.88767e-31)
(-1.875426e-06 2.286605e-06 -4.885052e-27)
(-2.452003e-06 3.379947e-06 3.110922e-31)
(-2.368554e-06 3.15956e-06 2.01577e-30)
(-2.8836e-06 4.335254e-06 3.449568e-31)
(-2.832271e-06 4.115278e-06 3.176845e-31)
(-3.26013e-06 5.130581e-06 -4.28777e-27)
(-3.266812e-06 5.310505e-06 3.252526e-30)
(-5.371821e-07 4.404235e-07 5.668551e-31)
(-2.611216e-07 5.909693e-08 4.78271e-27)
(-1.125712e-06 1.229952e-06 0)
(-8.823143e-07 9.27922e-07 0)
(-1.701833e-06 2.03569e-06 1.481557e-30)
(-1.511297e-06 1.747371e-06 0)
(-2.240645e-06 2.920472e-06 -1.92571e-28)
(-2.103694e-06 2.650746e-06 5.49259e-27)
(-2.738917e-06 3.874747e-06 2.057183e-30)
(-2.650921e-06 3.629138e-06 5.35475e-27)
(-3.215347e-06 4.926373e-06 -1.512203e-31)
(-3.159632e-06 4.683702e-06 -4.826583e-31)
(-3.629893e-06 5.792531e-06 -1.5024e-31)
(-3.636859e-06 5.988312e-06 -3.321941e-30)
(-6.057534e-07 5.467292e-07 1.510451e-30)
(-2.952578e-07 1.15055e-07 5.262855e-27)
(-1.267341e-06 1.444834e-06 0)
(-9.954102e-07 1.096208e-06 7.455006e-31)
(-1.912576e-06 2.361814e-06 -6.967702e-31)
(-1.702034e-06 2.032459e-06 1.846764e-30)
(-2.512897e-06 3.357818e-06 2.053385e-28)
(-2.364829e-06 3.053595e-06 8.29201e-31)
(-3.063002e-06 4.420423e-06 -6.442611e-31)
(-2.974052e-06 4.148195e-06 5.122321e-27)
(-3.578344e-06 5.558878e-06 -4.856849e-31)
(-3.53615e-06 5.310683e-06 -3.245511e-27)
(-4.05408e-06 6.524157e-06 0)
(-4.053049e-06 6.73524e-06 8.471199e-32)
(-6.84351e-07 6.646686e-07 1.712956e-30)
(-3.344318e-07 1.772186e-07 9.67349e-31)
(-1.429473e-06 1.683248e-06 -1.014975e-28)
(-1.124872e-06 1.283194e-06 -6.730709e-31)
(-2.153638e-06 2.72354e-06 3.372017e-30)
(-1.91992e-06 2.349212e-06 6.910218e-27)
(-2.825025e-06 3.842586e-06 -2.593153e-28)
(-2.662326e-06 3.50092e-06 1.525117e-30)
(-3.440554e-06 5.025797e-06 8.811624e-31)
(-3.341149e-06 4.72344e-06 -6.417168e-27)
(-4.001712e-06 6.254043e-06 -7.200855e-31)
(-3.96183e-06 6.001419e-06 5.626993e-30)
(-4.532762e-06 7.331247e-06 3.293218e-30)
(-4.529492e-06 7.556469e-06 -3.011017e-30)
(-7.743209e-07 7.958827e-07 -1.4173e-30)
(-3.794909e-07 2.464177e-07 -1.40447e-30)
(-1.614609e-06 1.948487e-06 -2.675852e-32)
(-1.273149e-06 1.491379e-06 -7.801689e-27)
(-2.427872e-06 3.12579e-06 1.392917e-30)
(-2.168546e-06 2.701912e-06 3.035124e-30)
(-3.177666e-06 4.380751e-06 1.941268e-30)
(-3.000115e-06 3.998726e-06 0)
(-3.860356e-06 5.695309e-06 -6.459501e-28)
(-3.755033e-06 5.36299e-06 -1.177514e-30)
(-4.477848e-06 7.044169e-06 -8.373113e-28)
(-4.438977e-06 6.77493e-06 6.320179e-30)
(-5.064939e-06 8.230067e-06 6.615831e-30)
(-5.057517e-06 8.464957e-06 -8.227529e-32)
(-8.776025e-07 9.420443e-07 -3.170081e-30)
(-4.315377e-07 3.235152e-07 -6.756436e-27)
(-1.826291e-06 2.244045e-06 -1.24758e-31)
(-1.443429e-06 1.723337e-06 -3.818402e-30)
(-2.73996e-06 3.573935e-06 1.643526e-30)
(-2.452936e-06 3.095222e-06 8.330991e-27)
(-3.576611e-06 4.97983e-06 -3.116282e-30)
(-3.384339e-06 4.553781e-06 0)
(-4.331742e-06 6.439173e-06 7.228764e-28)
(-4.222553e-06 6.075642e-06 -3.116727e-30)
(-5.009145e-06 7.921977e-06 -9.044619e-28)
(-4.973425e-06 7.63587e-06 -1.476145e-30)
(-5.649503e-06 9.221241e-06 -2.194625e-29)
(-5.641624e-06 9.469405e-06 3.789145e-30)
(-9.963775e-07 1.104687e-06 -3.771405e-30)
(-4.923481e-07 4.093842e-07 -4.309238e-30)
(-2.069303e-06 2.573819e-06 -3.635565e-32)
(-1.64046e-06 1.981796e-06 -9.547963e-27)
(-3.096382e-06 4.074033e-06 2.01778e-30)
(-2.780052e-06 3.534111e-06 2.016199e-30)
(-4.029298e-06 5.648312e-06 0)
(-3.823491e-06 5.173647e-06 -9.166335e-31)
(-4.862375e-06 7.269073e-06 -1.473246e-30)
(-4.753402e-06 6.871816e-06 -3.159151e-30)
(-5.599371e-06 8.901534e-06 -2.639954e-29)
(-5.577269e-06 8.598031e-06 -6.593757e-27)
(-6.312425e-06 1.033234e-05 1.024007e-27)
(-6.270611e-06 1.055953e-05 5.720345e-27)
(-1.134697e-06 1.285498e-06 -5.653246e-28)
(-5.624085e-07 5.0431e-07 -7.061462e-27)
(-2.350634e-06 2.941694e-06 -3.235717e-30)
(-1.86742e-06 2.267174e-06 -3.243771e-30)
(-3.506127e-06 4.632575e-06 -9.158837e-31)
(-3.158443e-06 4.023325e-06 -4.263061e-30)
(-4.546498e-06 6.395701e-06 7.758971e-28)
(-4.328628e-06 5.866228e-06 9.959e-27)
(-5.466592e-06 8.197892e-06 -3.549497e-30)
(-5.359599e-06 7.762364e-06 -5.530874e-30)
(-6.278249e-06 1.000357e-05 -1.140954e-27)
(-6.261822e-06 9.674225e-06 -1.0248e-26)
(-7.055157e-06 1.156821e-05 -1.090698e-26)
(-6.99647e-06 1.178327e-05 -5.261649e-27)
(-1.289741e-06 1.480233e-06 -2.401032e-30)
(-6.449108e-07 6.067331e-07 -2.379172e-30)
(-2.676788e-06 3.351324e-06 -4.273686e-30)
(-2.135501e-06 2.581905e-06 0)
(-3.980107e-06 5.256192e-06 3.52176e-28)
(-3.601187e-06 4.56679e-06 -1.150036e-26)
(-5.140491e-06 7.231289e-06 -1.300038e-30)
(-4.914623e-06 6.638662e-06 1.0712e-30)
(-6.153468e-06 9.23666e-06 -6.663288e-30)
(-6.056386e-06 8.757849e-06 -1.10127e-26)
(-7.035121e-06 1.123155e-05 -6.121793e-30)
(-7.040397e-06 1.087966e-05 -1.15101e-26)
(-7.891666e-06 1.296522e-05 3.761448e-31)
(-7.806551e-06 1.318083e-05 -3.60603e-30)
(-1.476851e-06 1.691815e-06 0)
(-7.465881e-07 7.180655e-07 -4.442811e-30)
(-3.06333e-06 3.802537e-06 -6.444473e-30)
(-2.453292e-06 2.923714e-06 2.549575e-30)
(-4.535451e-06 5.949473e-06 -6.420316e-30)
(-4.11787e-06 5.159825e-06 -1.352832e-26)
(-5.82916e-06 8.1635e-06 -5.632929e-30)
(-5.599843e-06 7.495396e-06 0)
(-6.941819e-06 1.039866e-05 -8.203788e-30)
(-6.864566e-06 9.867632e-06 -1.19379e-26)
(-7.894176e-06 1.260786e-05 -3.758083e-31)
(-7.933929e-06 1.222713e-05 -2.56494e-30)
(-8.842593e-06 1.453001e-05 1.002153e-26)
(-8.715906e-06 1.475355e-05 2.230002e-30)
(-1.707004e-06 1.93088e-06 -1.619891e-27)
(-8.74152e-07 8.403213e-07 -8.302456e-27)
(-3.506097e-06 4.278823e-06 5.541783e-30)
(-2.836935e-06 3.291091e-06 8.916959e-27)
(-5.187706e-06 6.714265e-06 2.975626e-30)
(-4.730964e-06 5.800633e-06 2.081676e-26)
(-6.634926e-06 9.199656e-06 -3.321446e-30)
(-6.401272e-06 8.427702e-06 1.016279e-29)
(-7.85506e-06 1.169376e-05 -3.320662e-30)
(-7.809327e-06 1.109738e-05 -3.795957e-30)
(-8.879681e-06 1.414441e-05 -4.060496e-30)
(-8.966631e-06 1.372685e-05 3.336817e-30)
(-9.925217e-06 1.627246e-05 -7.46572e-30)
(-9.758658e-06 1.651656e-05 4.312656e-27)
(-1.993581e-06 2.189493e-06 8.537418e-31)
(-1.034353e-06 9.69548e-07 -3.218152e-30)
(-4.044102e-06 4.790429e-06 1.707225e-29)
(-3.310453e-06 3.684102e-06 5.398137e-30)
(-5.945471e-06 7.51471e-06 2.275848e-29)
(-5.4781e-06 6.48822e-06 7.807117e-27)
(-7.586067e-06 1.034345e-05 -1.475194e-27)
(-7.369507e-06 9.447198e-06 2.79541e-26)
(-8.919965e-06 1.312965e-05 2.859894e-30)
(-8.925387e-06 1.245078e-05 -1.749133e-26)
(-1.001019e-05 1.585171e-05 -1.255994e-27)
(-1.016531e-05 1.538741e-05 1.008687e-29)
(-1.11562e-05 1.820741e-05 1.040885e-29)
(-1.09238e-05 1.846836e-05 4.90212e-27)
(-2.347728e-06 2.461968e-06 8.707185e-28)
(-1.235445e-06 1.101044e-06 6.982043e-34)
(-4.726328e-06 5.360441e-06 8.951294e-30)
(-3.8979e-06 4.100622e-06 -9.776845e-34)
(-6.868875e-06 8.373012e-06 -3.371746e-28)
(-6.384456e-06 7.222174e-06 1.092672e-29)
(-8.7241e-06 1.158678e-05 1.262302e-27)
(-8.515851e-06 1.053629e-05 -1.844032e-29)
(-1.017101e-05 1.471099e-05 -4.302534e-30)
(-1.022483e-05 1.390965e-05 -4.465543e-29)
(-1.13092e-05 1.773985e-05 -2.495789e-27)
(-1.154596e-05 1.721526e-05 4.474137e-30)
(-1.254486e-05 2.034528e-05 1.379193e-29)
(-1.222776e-05 2.06257e-05 -4.89437e-27)
(-2.782871e-06 2.738661e-06 -9.510392e-28)
(-1.484661e-06 1.228756e-06 -5.682639e-31)
(-5.549899e-06 5.955564e-06 1.955582e-30)
(-4.609086e-06 4.521209e-06 -7.455544e-31)
(-7.994051e-06 9.326936e-06 -2.751931e-28)
(-7.471615e-06 8.002967e-06 1.029936e-26)
(-1.003153e-05 1.287985e-05 2.298992e-27)
(-9.867397e-06 1.170705e-05 8.477769e-27)
(-1.161684e-05 1.64468e-05 2.684438e-27)
(-1.17234e-05 1.549384e-05 6.140598e-30)
(-1.27817e-05 1.982259e-05 -2.28331e-30)
(-1.308686e-05 1.919754e-05 3.115743e-26)
(-1.407601e-05 2.269378e-05 0)
(-1.367045e-05 2.299644e-05 -1.647625e-30)
(-3.307881e-06 3.010262e-06 0)
(-1.783483e-06 1.345881e-06 -1.131798e-30)
(-6.526033e-06 6.563812e-06 6.561686e-30)
(-5.437155e-06 4.934552e-06 1.489064e-30)
(-9.314526e-06 1.034327e-05 1.929778e-29)
(-8.703457e-06 8.819281e-06 9.659128e-30)
(-1.152825e-05 1.426793e-05 1.35875e-27)
(-1.135338e-05 1.296407e-05 1.271802e-29)
(-1.320745e-05 1.826609e-05 -1.196495e-27)
(-1.337177e-05 1.722328e-05 6.104512e-27)
(-1.440093e-05 2.211787e-05 3.31441e-29)
(-1.478915e-05 2.139263e-05 2.624678e-29)
(-1.573298e-05 2.524808e-05 -1.461396e-29)
(-1.522949e-05 2.557785e-05 -4.07787e-30)
(-3.90948e-06 3.269112e-06 -2.215906e-27)
(-2.122056e-06 1.451414e-06 -6.565516e-30)
(-7.610782e-06 7.186393e-06 4.278713e-29)
(-6.329064e-06 5.350781e-06 2.977586e-30)
(-1.073478e-05 1.143077e-05 3.096971e-30)
(-9.985151e-06 9.698528e-06 -4.996675e-30)
(-1.316013e-05 1.585913e-05 1.365401e-29)
(-1.288334e-05 1.436101e-05 0)
(-1.490609e-05 2.02434e-05 7.138614e-30)
(-1.504401e-05 1.909975e-05 1.75614e-26)
(-1.613475e-05 2.459679e-05 1.091865e-27)
(-1.655146e-05 2.371726e-05 -4.915902e-29)
(-1.752608e-05 2.791277e-05 -8.818411e-29)
(-1.692552e-05 2.832631e-05 8.286063e-27)
(-4.538138e-06 3.531993e-06 2.443036e-27)
(-2.473515e-06 1.56453e-06 2.042906e-27)
(-8.699651e-06 7.859246e-06 -6.587416e-30)
(-7.186178e-06 5.811911e-06 -6.007489e-30)
(-1.212957e-05 1.262369e-05 -8.091437e-30)
(-1.118898e-05 1.066984e-05 -3.082746e-27)
(-1.47582e-05 1.75854e-05 1.445388e-29)
(-1.433512e-05 1.586803e-05 -6.424045e-30)
(-1.665061e-05 2.244999e-05 2.647652e-27)
(-1.669896e-05 2.110025e-05 1.047612e-30)
(-1.797172e-05 2.70984e-05 -4.951012e-27)
(-1.843215e-05 2.613364e-05 7.221427e-27)
(-1.960884e-05 3.064408e-05 -1.052073e-28)
(-1.886906e-05 3.114385e-05 2.420954e-26)
(-5.116191e-06 3.841655e-06 2.748561e-27)
(-2.788816e-06 1.716537e-06 -6.115793e-30)
(-9.673109e-06 8.620089e-06 -1.649722e-29)
(-7.894751e-06 6.352349e-06 5.411393e-27)
(-1.33908e-05 1.390921e-05 -1.542262e-29)
(-1.22108e-05 1.1713e-05 7.149889e-31)
(-1.626957e-05 1.937206e-05 -2.001155e-27)
(-1.562469e-05 1.739752e-05 -3.209338e-30)
(-1.843698e-05 2.468892e-05 -1.823186e-27)
(-1.827575e-05 2.305416e-05 -2.971429e-29)
(-2.001245e-05 2.954002e-05 -2.811938e-27)
(-2.033831e-05 2.839986e-05 -1.989158e-29)
(-2.192763e-05 3.316438e-05 -3.109389e-29)
(-2.12163e-05 3.385193e-05 1.167941e-26)
(-5.546048e-06 4.209669e-06 6.243604e-30)
(-3.019615e-06 1.924015e-06 8.568249e-30)
(-1.043833e-05 9.452585e-06 -1.381421e-27)
(-8.371021e-06 6.964357e-06 -3.866573e-26)
(-1.444355e-05 1.520003e-05 1.377773e-27)
(-1.295366e-05 1.27214e-05 -8.153503e-27)
(-1.762689e-05 2.107328e-05 -1.310183e-29)
(-1.667422e-05 1.880013e-05 2.432789e-29)
(-2.016642e-05 2.674291e-05 -4.457443e-27)
(-1.968652e-05 2.477365e-05 -2.264094e-27)
(-2.220616e-05 3.186771e-05 -7.256174e-30)
(-2.221332e-05 3.038443e-05 -3.233894e-30)
(-2.445992e-05 3.536357e-05 -2.340012e-29)
(-2.39451e-05 3.624493e-05 2.696897e-29)
(-5.800663e-06 4.638926e-06 1.761526e-29)
(-3.145904e-06 2.192786e-06 -2.297527e-26)
(-1.087713e-05 1.022247e-05 -8.974413e-27)
(-8.567668e-06 7.600938e-06 7.556056e-30)
(-1.519942e-05 1.634611e-05 1.975717e-29)
(-1.332862e-05 1.356827e-05 -1.52289e-30)
(-1.873366e-05 2.250082e-05 3.715121e-30)
(-1.734586e-05 1.986251e-05 -2.081595e-26)
(-2.172601e-05 2.840282e-05 -5.243137e-27)
(-2.076965e-05 2.604071e-05 5.809965e-30)
(-2.440174e-05 3.377199e-05 -1.894977e-29)
(-2.380918e-05 3.180229e-05 -1.621722e-26)
(-2.642083e-05 3.6984e-05 1.352246e-23)
(-2.686446e-05 3.974222e-05 -2.945916e-23)
(-5.882892e-06 5.124173e-06 -3.034602e-27)
(-3.143546e-06 2.502924e-06 -1.38183e-30)
(-1.097091e-05 1.088363e-05 -1.463754e-30)
(-8.469209e-06 8.204277e-06 1.389518e-30)
(-1.547506e-05 1.708662e-05 2.014983e-30)
(-1.327137e-05 1.413696e-05 2.986763e-30)
(-1.940482e-05 2.344259e-05 2.55101e-29)
(-1.748664e-05 2.041369e-05 7.571453e-26)
(-2.285382e-05 2.944243e-05 4.06842e-29)
(-2.12651e-05 2.660745e-05 -6.967751e-26)
(-2.606283e-05 3.805563e-05 -3.234956e-23)
(-2.410607e-05 3.247931e-05 -3.045484e-23)
(-2.388034e-05 3.811104e-05 -4.69941e-29)
(-2.892501e-05 5.818817e-05 -3.824952e-22)
(-5.723551e-06 5.575949e-06 -6.478679e-30)
(-2.969125e-06 2.808649e-06 4.060907e-26)
(-1.073485e-05 1.140754e-05 2.576302e-27)
(-8.065347e-06 8.689896e-06 2.825693e-30)
(-1.523353e-05 1.73852e-05 -4.379938e-29)
(-1.279532e-05 1.436798e-05 8.648772e-30)
(-1.935312e-05 2.35902e-05 -5.126513e-26)
(-1.702173e-05 2.037146e-05 -5.211484e-29)
(-2.315692e-05 3.283478e-05 4.400997e-31)
(-2.010075e-05 2.645089e-05 3.83596e-29)
(-2.644645e-05 5.749578e-05 -4.673994e-22)
(-1.960297e-05 3.255184e-05 5.487415e-29)
(-1.36467e-05 3.883252e-05 -1.446173e-29)
(-2.910774e-05 0.0001040233 2.637686e-30)
(-5.306773e-06 5.917042e-06 -9.537659e-30)
(-2.628863e-06 3.034248e-06 -9.538958e-30)
(-1.012113e-05 1.164164e-05 5.689183e-30)
(-7.40588e-06 8.916216e-06 5.468831e-30)
(-1.454899e-05 1.729518e-05 1.234153e-26)
(-1.196479e-05 1.421409e-05 1.619765e-29)
(-1.855421e-05 2.54382e-05 -4.975572e-23)
(-1.556564e-05 1.982576e-05 -1.217008e-29)
(-2.116482e-05 4.905457e-05 1.581791e-21)
(-1.561299e-05 2.559461e-05 6.246877e-29)
(-2.449254e-05 9.994179e-05 5.562352e-29)
(-5.362914e-06 3.359464e-05 7.087808e-29)
(4.312742e-06 3.938542e-05 8.263565e-31)
(-2.629143e-05 0.0001742946 -2.436643e-29)
(-4.711383e-06 6.013418e-06 5.457999e-30)
(-2.229323e-06 3.083402e-06 0)
(-9.25352e-06 1.149299e-05 5.680286e-27)
(-6.656961e-06 8.778109e-06 4.86274e-30)
(-1.348295e-05 1.782657e-05 1.169089e-23)
(-1.067035e-05 1.3626e-05 1.06812e-29)
(-1.713854e-05 3.919411e-05 1.753287e-29)
(-1.12908e-05 1.896804e-05 1.637368e-22)
(-1.944151e-05 8.694561e-05 1.238249e-21)
(-5.922896e-06 2.459395e-05 -5.809932e-22)
(-1.357004e-05 0.0001616248 1.512866e-29)
(6.705236e-06 3.114594e-05 1.600427e-29)
(4.143175e-05 4.560118e-05 -1.268864e-29)
(-1.996512e-05 0.0002616946 -1.917688e-29)
(-4.147375e-06 5.809443e-06 -6.355264e-31)
(-1.923419e-06 2.954823e-06 -7.971221e-30)
(-8.316498e-06 1.088445e-05 -6.350039e-31)
(-6.003602e-06 8.280374e-06 -4.850121e-30)
(-1.192387e-05 2.476667e-05 -1.15926e-29)
(-8.195258e-06 1.267174e-05 6.730201e-30)
(-1.490404e-05 7.04547e-05 -1.241892e-31)
(-1.993191e-06 1.85575e-05 -3.330521e-30)
(-1.667411e-05 0.0001438887 1.272092e-29)
(8.709301e-06 2.391988e-05 3.28392e-29)
(-1.472102e-05 0.0002419145 -1.095595e-29)
(2.558523e-05 2.997596e-05 1.458103e-29)
(5.10398e-05 3.77093e-05 3.373986e-21)
(9.386832e-06 0.0003626981 -1.831439e-29)
(-3.766416e-06 5.404619e-06 1.082807e-27)
(-1.742236e-06 2.701341e-06 5.616273e-26)
(-7.540818e-06 1.372029e-05 -3.87809e-23)
(-4.739235e-06 7.58143e-06 -4.36916e-30)
(-1.059918e-05 4.574276e-05 1.494419e-29)
(-3.3712e-06 1.166342e-05 -2.694109e-22)
(-1.011838e-05 0.0001128602 3.709232e-21)
(5.626935e-06 1.654216e-05 8.416666e-22)
(-1.22665e-05 0.000212148 3.477544e-29)
(3.357538e-05 2.652896e-05 -2.207018e-30)
(-1.038746e-05 0.0003353788 6.424808e-21)
(4.928435e-05 2.977915e-05 -6.600585e-29)
(8.075035e-05 3.749427e-05 -9.338452e-21)
(-5.115289e-06 0.000477641 1.650864e-29)
(-3.49768e-06 5.131323e-06 -8.171661e-30)
(-1.542033e-06 2.355601e-06 -7.909442e-30)
(-6.886614e-06 2.574797e-05 2.09417e-29)
(-2.265802e-06 6.772172e-06 3.075925e-31)
(-9.316631e-06 7.999192e-05 1.069766e-29)
(3.722957e-06 1.067609e-05 -5.742131e-22)
(-9.63359e-06 0.0001663518 -3.426969e-29)
(1.739033e-05 1.523538e-05 -2.6372e-30)
(5.844935e-07 0.0002860278 -1.025454e-20)
(3.892411e-05 2.078226e-05 -2.406643e-29)
(1.087505e-05 0.0004279747 -3.078064e-20)
(6.581586e-05 2.687218e-05 -9.432622e-29)
(0.0001500364 5.50411e-05 -1.359222e-28)
(4.146793e-06 0.0005969195 -5.245713e-29)
(-3.206369e-06 8.045056e-06 5.623314e-31)
(-6.725675e-07 1.984089e-06 -8.841787e-31)
(-6.152324e-06 4.623443e-05 9.810501e-30)
(1.617644e-06 5.907056e-06 -2.216369e-31)
(-7.972853e-06 0.0001207431 1.710855e-29)
(1.21508e-05 9.652225e-06 9.443603e-30)
(-8.00981e-06 0.0002284873 7.181337e-30)
(3.07133e-05 1.414799e-05 -1.949851e-21)
(-4.951677e-06 0.0003647169 -1.48153e-29)
(5.615651e-05 1.924505e-05 -7.065792e-30)
(1.919946e-06 0.0005236619 -1.038972e-20)
(8.70073e-05 2.470299e-05 -1.409139e-29)
(0.0001310656 3.272355e-05 -6.990664e-21)
(3.698648e-05 0.0007086906 -5.184579e-20)
(-2.818075e-06 1.587856e-05 -3.242383e-23)
(6.984219e-07 1.581567e-06 -7.690819e-31)
(-5.223158e-06 7.0156e-05 -5.905976e-31)
(6.216668e-06 4.943567e-06 -6.310032e-31)
(-6.634492e-06 0.0001622067 -5.472038e-30)
(2.127955e-05 8.643129e-06 -1.304881e-29)
(-6.272689e-06 0.0002884622 -2.875148e-21)
(4.38287e-05 1.291966e-05 2.529243e-21)
(-3.688126e-06 0.0004437589 -6.37619e-30)