/*--------------------------------*- C++ -*----------------------------------*\
| =========                 |                                                 |
| \\      /  F ield         | OpenFOAM: The Open Source CFD Toolbox           |
|  \\    /   O peration     | Version:  2206                                  |
|   \\  /    A nd           | Website:  www.openfoam.com                      |
|    \\/     M anipulation  |                                                 |
\*---------------------------------------------------------------------------*/
FoamFile
{
    version     2.0;
    format      ascii;
    arch        "LSB;label=32;scalar=64";
    class       surfaceVectorField;
    location    "2.6";
    object      Ufa_0;
}
// * * * * * * * * * * * * * * * * * * * * * * * * * * * * * * * * * * * * * //

dimensions      [0 1 -1 0 0 0 0];

internalField   nonuniform List<vector> 
26037
(
(1.175774e-05 -0.0001330758 3.21904e-23)
(-2.048583e-05 -0.0001281395 2.069727e-27)
(1.983813e-06 -5.970462e-05 4.152844e-25)
(-1.482897e-05 -6.486072e-05 1.752322e-26)
(1.474658e-07 -3.216425e-05 -4.100897e-29)
(-5.491042e-06 -3.549506e-05 -4.110209e-29)
(-1.7006e-07 -2.033002e-05 -6.027907e-30)
(-2.463955e-06 -2.222327e-05 0)
(-2.802185e-07 -1.527618e-05 3.278201e-27)
(-1.442387e-06 -1.665837e-05 -6.027229e-30)
(-3.452835e-07 -1.210676e-05 -1.155177e-29)
(-1.025576e-06 -1.323141e-05 -8.036405e-30)
(-8.297689e-07 -1.062258e-05 -5.784092e-30)
(-3.957488e-07 -9.676875e-06 8.998825e-28)
(-4.864361e-05 -5.79747e-05 -3.473287e-32)
(-4.129526e-05 -3.969852e-05 1.095236e-30)
(-2.255933e-05 -4.066314e-05 -3.50667e-32)
(-2.525596e-05 -3.601594e-05 -7.553216e-32)
(-8.099972e-06 -2.553487e-05 0)
(-1.078933e-05 -2.477363e-05 7.65008e-30)
(-3.736082e-06 -1.855336e-05 -4.234294e-35)
(-5.490502e-06 -1.874146e-05 1.199637e-29)
(-2.187687e-06 -1.461404e-05 1.451738e-35)
(-3.284049e-06 -1.51153e-05 4.081258e-29)
(-1.510049e-06 -1.17474e-05 3.289536e-34)
(-2.213511e-06 -1.234419e-05 5.684483e-35)
(-1.637569e-06 -1.006879e-05 2.849482e-30)
(-1.167149e-06 -9.458487e-06 -5.796029e-30)
(-1.809179e-05 -1.748125e-05 1.055053e-30)
(-1.271674e-05 -9.63706e-06 2.517519e-25)
(-1.355256e-05 -2.006828e-05 7.598893e-30)
(-1.267215e-05 -1.553806e-05 -5.524635e-26)
(-8.160061e-06 -1.792303e-05 -4.163914e-27)
(-8.833233e-06 -1.584839e-05 8.830092e-30)
(-5.03828e-06 -1.530316e-05 -2.266572e-27)
(-5.913602e-06 -1.451714e-05 1.278331e-29)
(-3.309994e-06 -1.284571e-05 5.757148e-30)
(-4.03952e-06 -1.266911e-05 -5.278686e-29)
(-2.341069e-06 -1.066572e-05 -3.295242e-35)
(-2.89261e-06 -1.080033e-05 0)
(-2.189438e-06 -9.043744e-06 -4.052688e-30)
(-1.781259e-06 -8.75212e-06 5.798863e-30)
(-7.283507e-06 -7.677942e-06 2.861335e-31)
(-4.22549e-06 -3.851084e-06 -1.377055e-31)
(-7.973847e-06 -1.129028e-05 1.341798e-30)
(-6.593592e-06 -8.08131e-06 -1.150715e-26)
(-6.566001e-06 -1.239638e-05 1.277006e-28)
(-6.289291e-06 -1.026378e-05 -1.197253e-27)
(-4.913411e-06 -1.186685e-05 7.0072e-31)
(-5.128713e-06 -1.068862e-05 1.735975e-27)
(-3.622228e-06 -1.062379e-05 1.595228e-33)
(-3.976683e-06 -1.007559e-05 -6.878655e-30)
(-2.741018e-06 -9.178433e-06 1.056082e-34)
(-3.086217e-06 -8.998842e-06 -1.34795e-35)
(-2.456239e-06 -7.762267e-06 5.804515e-30)
(-2.159656e-06 -7.717036e-06 -5.803736e-30)
(-3.532592e-06 -4.250195e-06 -1.746486e-28)
(-1.705812e-06 -2.047742e-06 -1.479554e-31)
(-4.911009e-06 -7.037261e-06 -2.450324e-28)
(-3.703472e-06 -4.834199e-06 1.619598e-32)
(-4.844085e-06 -8.544698e-06 2.691649e-31)
(-4.276325e-06 -6.795409e-06 -3.19129e-32)
(-4.187633e-06 -8.87528e-06 -1.120336e-28)
(-4.037458e-06 -7.674758e-06 7.968261e-30)
(-3.439844e-06 -8.441457e-06 -1.786566e-28)
(-3.513026e-06 -7.732123e-06 -5.57832e-28)
(-2.801458e-06 -7.582689e-06 -1.152732e-28)
(-2.962816e-06 -7.236568e-06 -5.819987e-30)
(-2.498016e-06 -6.415169e-06 -3.729576e-30)
(-2.318858e-06 -6.528982e-06 5.804398e-30)
(-1.87516e-06 -2.629464e-06 3.695174e-31)
(-8.049067e-07 -1.313212e-06 0)
(-3.064182e-06 -4.57654e-06 1.626477e-28)
(-2.168644e-06 -3.092551e-06 6.393861e-31)
(-3.468543e-06 -5.928656e-06 -2.234078e-28)
(-2.892032e-06 -4.603761e-06 -6.030347e-30)
(-3.360951e-06 -6.523565e-06 1.220002e-28)
(-3.070259e-06 -5.495515e-06 -5.626958e-30)
(-3.033764e-06 -6.513572e-06 -5.108578e-30)
(-2.938399e-06 -5.79557e-06 -3.329449e-29)
(-2.658742e-06 -6.063079e-06 -9.223737e-29)
(-2.68182e-06 -5.638793e-06 -5.171191e-30)
(-2.400555e-06 -5.128896e-06 -1.173186e-29)
(-2.320039e-06 -5.324798e-06 1.113128e-28)
(-1.09745e-06 -1.774984e-06 2.695347e-31)
(-4.44813e-07 -9.503107e-07 -4.557568e-31)
(-1.991255e-06 -3.108698e-06 -5.361763e-30)
(-1.358287e-06 -2.101143e-06 -1.517476e-27)
(-2.491572e-06 -4.167411e-06 -1.390888e-27)
(-2.002344e-06 -3.197185e-06 -8.361661e-28)
(-2.646233e-06 -4.765232e-06 -4.860019e-30)
(-2.33068e-06 -3.943335e-06 -5.977246e-30)
(-2.585488e-06 -4.915406e-06 6.423157e-29)
(-2.416803e-06 -4.290007e-06 1.822505e-30)
(-2.422308e-06 -4.695334e-06 7.409818e-31)
(-2.358478e-06 -4.266054e-06 1.482221e-30)
(-2.235549e-06 -3.945302e-06 7.359502e-31)
(-2.229411e-06 -4.184181e-06 -5.186878e-34)
(-7.05224e-07 -1.275894e-06 -1.794906e-31)
(-2.816206e-07 -7.41472e-07 2.340325e-27)
(-1.368346e-06 -2.187505e-06 5.763358e-31)
(-9.186846e-07 -1.49206e-06 -3.154434e-31)
(-1.840517e-06 -2.970667e-06 3.029973e-31)
(-1.451084e-06 -2.272303e-06 7.3478e-31)
(-2.102134e-06 -3.470607e-06 7.36125e-31)
(-1.810604e-06 -2.840327e-06 7.52136e-31)
(-2.189829e-06 -3.640734e-06 1.473256e-30)
(-2.000426e-06 -3.13294e-06 -3.641853e-28)
(-2.17123e-06 -3.512395e-06 3.278527e-29)
(-2.065461e-06 -3.138303e-06 1.485405e-30)
(-2.056089e-06 -2.891451e-06 7.410385e-31)
(-2.098383e-06 -3.134631e-06 -5.135207e-30)
(-4.948241e-07 -9.573209e-07 -5.754191e-31)
(-1.998876e-07 -6.069735e-07 -1.76152e-27)
(-1.000924e-06 -1.576091e-06 -1.577984e-31)
(-6.731489e-07 -1.088609e-06 1.767058e-27)
(-1.417432e-06 -2.136014e-06 1.001021e-28)
(-1.111477e-06 -1.633589e-06 6.14911e-28)
(-1.710276e-06 -2.504725e-06 2.949607e-30)
(-1.457821e-06 -2.033674e-06 1.694261e-30)
(-1.876121e-06 -2.630553e-06 5.593854e-29)
(-1.692288e-06 -2.236142e-06 -4.704396e-28)
(-1.950344e-06 -2.517491e-06 7.43308e-31)
(-1.829573e-06 -2.215633e-06 7.430788e-31)
(-1.898319e-06 -1.984677e-06 0)
(-1.965621e-06 -2.191896e-06 -3.730336e-31)
(-3.780103e-07 -7.380414e-07 -1.087907e-31)
(-1.568259e-07 -5.126838e-07 4.745954e-31)
(-7.832986e-07 -1.145604e-06 -8.847904e-31)
(-5.344329e-07 -8.026481e-07 -5.836627e-31)
(-1.148029e-06 -1.526772e-06 6.275572e-31)
(-9.05603e-07 -1.16873e-06 -9.231027e-31)
(-1.441553e-06 -1.76654e-06 9.157304e-31)
(-1.228163e-06 -1.423428e-06 -8.482858e-28)
(-1.645833e-06 -1.821249e-06 -1.932773e-32)
(-1.478522e-06 -1.527409e-06 5.781298e-28)
(-1.777551e-06 -1.682942e-06 0)
(-1.656736e-06 -1.453886e-06 0)
(-1.777551e-06 -1.20414e-06 0)
(-1.854905e-06 -1.363324e-06 1.124389e-30)
(-3.130781e-07 -5.771326e-07 0)
(-1.34363e-07 -4.420809e-07 0)
(-6.563796e-07 -8.254471e-07 -6.217149e-31)
(-4.578535e-07 -5.874708e-07 6.074911e-31)
(-9.820755e-07 -1.062474e-06 2.804105e-31)
(-7.855234e-07 -8.129547e-07 1.204917e-27)
(-1.266996e-06 -1.185053e-06 9.334373e-31)
(-1.087033e-06 -9.439543e-07 -7.80328e-31)
(-1.489529e-06 -1.160039e-06 2.005663e-32)
(-1.341574e-06 -9.521244e-07 -7.015565e-28)
(-1.656718e-06 -9.752036e-07 0)
(-1.543272e-06 -8.138139e-07 0)
(-1.698947e-06 -5.254857e-07 7.735285e-31)
(-1.777364e-06 -6.349965e-07 3.684754e-31)
(-2.789822e-07 -4.522964e-07 6.072383e-31)
(-1.240786e-07 -3.860676e-07 0)
(-5.866625e-07 -5.747823e-07 1.135672e-32)
(-4.19601e-07 -4.164599e-07 -1.430568e-27)
(-8.869723e-07 -6.92898e-07 -2.284626e-30)
(-7.22355e-07 -5.271846e-07 -1.341199e-30)
(-1.163537e-06 -7.110758e-07 -3.3088e-29)
(-1.010045e-06 -5.518831e-07 1.026861e-27)
(-1.395424e-06 -6.058539e-07 -5.162244e-32)
(-1.265856e-06 -4.703078e-07 6.572004e-31)
(-1.585464e-06 -3.642196e-07 7.732622e-31)
(-1.482373e-06 -2.632165e-07 -6.97968e-31)
(-1.662498e-06 7.438917e-08 5.144224e-28)
(-1.736913e-06 1.232448e-08 -4.171389e-30)
(-2.64547e-07 -3.50136e-07 -1.640482e-31)
(-1.216142e-07 -3.391928e-07 4.812956e-31)
(-5.549697e-07 -3.687803e-07 -3.108364e-30)
(-4.066793e-07 -2.735325e-07 -1.64075e-31)
(-8.419968e-07 -3.85866e-07 -1.656246e-30)
(-6.98724e-07 -2.868511e-07 -1.48835e-30)
(-1.11433e-06 -3.104749e-07 -1.925975e-31)
(-9.806552e-07 -2.180767e-07 -1.670681e-30)
(-1.352909e-06 -1.275854e-07 1.001227e-32)
(-1.239175e-06 -5.29837e-08 -9.968882e-28)
(-1.559352e-06 1.752551e-07 -6.785815e-31)
(-1.467102e-06 2.234409e-07 7.681526e-28)
(-1.666058e-06 6.158919e-07 -6.315673e-28)
(-1.733962e-06 5.971758e-07 1.940392e-32)
(-2.635944e-07 -2.625125e-07 4.813884e-31)
(-1.245896e-07 -2.98096e-07 -1.292684e-27)
(-5.501074e-07 -1.916179e-07 -7.436075e-31)
(-4.117204e-07 -1.484811e-07 0)
(-8.339804e-07 -1.198637e-07 -1.745609e-29)
(-7.037621e-07 -7.579551e-08 -2.231255e-30)
(-1.107421e-06 4.071415e-08 6.470408e-31)
(-9.854455e-07 7.728937e-08 9.178866e-30)
(-1.353517e-06 2.982877e-07 7.210732e-31)
(-1.249479e-06 3.203602e-07 -1.376861e-27)
(-1.573738e-06 6.639264e-07 1.434131e-32)
(-1.490953e-06 6.663377e-07 -6.647068e-31)
(-1.706901e-06 1.116601e-06 -7.175219e-33)
(-1.767396e-06 1.136363e-06 -1.532177e-30)
(-2.725569e-07 -1.840016e-07 4.445549e-31)
(-1.317123e-07 -2.604802e-07 4.443501e-31)
(-5.650712e-07 -3.273888e-08 -1.485894e-30)
(-4.306462e-07 -3.43145e-08 5.378176e-31)
(-8.524099e-07 1.201164e-07 -1.659174e-29)
(-7.320123e-07 1.173121e-07 -1.486273e-30)
(-1.127995e-06 3.582381e-07 1.072354e-28)
(-1.020881e-06 3.492889e-07 1.151761e-27)
(-1.387921e-06 6.908072e-07 1.272561e-29)
(-1.294681e-06 6.673776e-07 1.432469e-29)
(-1.624101e-06 1.11906e-06 -6.86319e-31)
(-1.550693e-06 1.081642e-06 1.506362e-30)
(-1.783071e-06 1.591509e-06 9.008444e-28)
(-1.835694e-06 1.644884e-06 -1.37223e-30)
(-2.896326e-07 -1.107423e-07 5.375579e-31)
(-1.422551e-07 -2.246767e-07 0)
(-5.973461e-07 1.155933e-07 5.379261e-31)
(-4.610571e-07 7.406093e-08 -1.776708e-27)
(-8.989451e-07 3.448237e-07 9.409403e-31)
(-7.797488e-07 3.007328e-07 -7.421782e-31)
(-1.184804e-06 6.544386e-07 -2.013337e-30)
(-1.083695e-06 6.068117e-07 1.940768e-31)
(-1.459664e-06 1.061726e-06 3.030703e-30)
(-1.372637e-06 9.983283e-07 1.524589e-30)
(-1.709741e-06 1.554293e-06 -3.675881e-29)
(-1.643932e-06 1.482511e-06 1.505708e-30)
(-1.89322e-06 2.053736e-06 8.525752e-31)
(-1.938196e-06 2.135963e-06 2.353442e-30)
(-3.134955e-07 -3.983211e-08 9.794569e-31)
(-1.558817e-07 -1.894433e-07 6.7474e-31)
(-6.432558e-07 2.590639e-07 2.383559e-31)
(-5.016132e-07 1.805011e-07 -1.93983e-27)
(-9.639751e-07 5.622139e-07 4.65996e-30)
(-8.442048e-07 4.809963e-07 -2.226705e-30)
(-1.267028e-06 9.44617e-07 -7.592446e-31)
(-1.168732e-06 8.611417e-07 -1.495487e-30)
(-1.559888e-06 1.424492e-06 0)
(-1.477541e-06 1.326392e-06 0)
(-1.827544e-06 1.98231e-06 0)
(-1.768226e-06 1.8808e-06 -8.870136e-31)
(-2.036597e-06 2.515212e-06 -3.012831e-30)
(-2.074177e-06 2.621865e-06 -1.503364e-30)
(-3.437957e-07 3.092154e-08 5.597109e-29)
(-1.725275e-07 -1.537704e-07 -1.746677e-27)
(-7.023388e-07 4.022616e-07 2.77554e-29)
(-5.519697e-07 2.88152e-07 1.038868e-31)
(-1.048468e-06 7.794097e-07 1.030891e-29)
(-9.250531e-07 6.634505e-07 -3.712222e-30)
(-1.374217e-06 1.235422e-06 -7.601204e-31)
(-1.276194e-06 1.118972e-06 -2.245529e-30)
(-1.689188e-06 1.789094e-06 -8.97325e-31)
(-1.609724e-06 1.659622e-06 0)
(-1.977422e-06 2.414119e-06 7.45788e-29)
(-1.923668e-06 2.286416e-06 -1.698238e-27)
(-2.21371e-06 2.98694e-06 -4.521529e-30)
(-2.244093e-06 3.114023e-06 1.005761e-28)
(-3.804742e-07 1.03482e-07 6.207088e-29)
(-1.922648e-07 -1.167354e-07 8.987635e-31)
(-7.744341e-07 5.491287e-07 3.203245e-29)
(-6.122189e-07 3.998127e-07 -2.34053e-27)
(-1.152234e-06 1.002387e-06 3.424368e-29)
(-1.02239e-06 8.527766e-07 -1.879553e-30)
(-1.506213e-06 1.534378e-06 -1.521529e-30)
(-1.405764e-06 1.386678e-06 -1.497183e-30)
(-1.847728e-06 2.164096e-06 5.696481e-31)
(-1.76611e-06 2.004253e-06 1.219255e-29)
(-2.160229e-06 2.860004e-06 -9.494376e-31)
(-2.106707e-06 2.705695e-06 1.585266e-29)
(-2.425192e-06 3.479235e-06 1.526098e-30)
(-2.449245e-06 3.623399e-06 1.23241e-28)
(-4.237544e-07 1.79607e-07 9.605685e-31)
(-2.152722e-07 -7.744763e-08 -2.103492e-27)
(-8.598956e-07 7.032084e-07 1.017843e-30)
(-6.829378e-07 5.181498e-07 -2.562034e-27)
(-1.275385e-06 1.236434e-06 3.478041e-31)
(-1.137293e-06 1.05341e-06 -2.432248e-27)
(-1.660899e-06 1.848619e-06 1.208202e-29)
(-1.559749e-06 1.670483e-06 1.787392e-30)
(-2.02689e-06 2.549738e-06 -6.272203e-28)
(-1.95382e-06 2.369208e-06 1.364978e-29)
(-2.374111e-06 3.330823e-06 -3.002958e-28)
(-2.326219e-06 3.151409e-06 1.632816e-29)
(-2.675053e-06 4.002611e-06 9.591834e-31)
(-2.691061e-06 4.161065e-06 3.035273e-30)
(-4.741687e-07 2.610951e-07 -7.482974e-29)
(-2.418544e-07 -3.507252e-08 -8.701921e-32)
(-9.600234e-07 8.680527e-07 -4.289439e-29)
(-7.650463e-07 6.457238e-07 -2.825656e-27)
(-1.421199e-06 1.486893e-06 3.056627e-30)
(-1.271159e-06 1.269689e-06 -2.716427e-27)
(-1.849377e-06 2.185345e-06 -7.071066e-29)
(-1.739859e-06 1.976322e-06 -2.570263e-27)
(-2.247677e-06 2.959709e-06 2.489009e-30)
(-2.174593e-06 2.761066e-06 1.511118e-30)
(-2.631241e-06 3.833417e-06 -1.15678e-30)
(-2.58509e-06 3.631548e-06 -2.121786e-27)
(-2.966883e-06 4.567408e-06 2.01338e-27)
(-2.97524e-06 4.737322e-06 1.724584e-28)
(-5.324091e-07 3.495446e-07 9.025221e-31)
(-2.724391e-07 1.117609e-08 -8.741656e-32)
(-1.075832e-06 1.047013e-06 -4.897942e-29)
(-8.596875e-07 7.849691e-07 9.02654e-31)
(-1.589448e-06 1.758689e-06 1.31762e-30)
(-1.4256e-06 1.505761e-06 9.107347e-31)
(-2.064034e-06 2.550324e-06 4.07094e-31)
(-1.947333e-06 2.310278e-06 -2.853872e-27)
(-2.503536e-06 3.415133e-06 8.573951e-31)
(-2.428629e-06 3.192236e-06 1.306542e-30)
(-2.926586e-06 4.380059e-06 8.931863e-31)
(-2.882457e-06 4.158373e-06 8.755641e-31)
(-3.302706e-06 5.183678e-06 -2.496198e-27)
(-3.303413e-06 5.363365e-06 3.613442e-30)
(-5.993512e-07 4.465722e-07 -8.743236e-32)
(-3.075066e-07 6.211944e-08 2.784035e-27)
(-1.209057e-06 1.243309e-06 0)
(-9.683055e-07 9.383075e-07 0)
(-1.783069e-06 2.056857e-06 1.462303e-30)
(-1.602932e-06 1.765685e-06 0)
(-2.310956e-06 2.950585e-06 -1.123315e-28)
(-2.185439e-06 2.677967e-06 3.194124e-27)
(-2.797935e-06 3.915182e-06 1.333385e-30)
(-2.71956e-06 3.666788e-06 3.127603e-27)
(-3.265087e-06 4.977999e-06 4.179779e-31)
(-3.217512e-06 4.733421e-06 2.340541e-31)
(-3.679734e-06 5.853993e-06 4.152683e-31)
(-3.679613e-06 6.049344e-06 -2.203825e-30)
(-6.760478e-07 5.538103e-07 3.532115e-32)
(-3.476548e-07 1.185554e-07 3.0414e-27)
(-1.36173e-06 1.460212e-06 0)
(-1.0927e-06 1.108202e-06 7.39991e-31)
(-2.004832e-06 2.386228e-06 -1.497024e-30)
(-1.80597e-06 2.053637e-06 8.602932e-31)
(-2.593093e-06 3.392619e-06 1.19358e-28)
(-2.457931e-06 3.085135e-06 4.008035e-33)
(-3.130792e-06 4.467221e-06 -1.469826e-30)
(-3.052694e-06 4.191838e-06 2.915665e-27)
(-3.636429e-06 5.618622e-06 2.355218e-31)
(-3.603217e-06 5.368219e-06 -1.770354e-27)
(-4.112713e-06 6.595494e-06 0)
(-4.10344e-06 6.806128e-06 -4.682617e-31)
(-7.638392e-07 6.728811e-07 8.765106e-31)
(-3.936047e-07 1.812959e-07 1.369065e-31)
(-1.536429e-06 1.701079e-06 -6.880288e-29)
(-1.234955e-06 1.297123e-06 4.660655e-31)
(-2.258544e-06 2.751894e-06 2.360568e-30)
(-2.037891e-06 2.373843e-06 3.96091e-27)
(-2.916688e-06 3.883021e-06 -1.561484e-28)
(-2.768531e-06 3.537663e-06 1.500307e-30)
(-3.518604e-06 5.080094e-06 1.647851e-30)
(-3.431461e-06 4.77422e-06 -3.655764e-27)
(-4.069481e-06 6.323015e-06 1.002752e-31)
(-4.039466e-06 6.067963e-06 6.259806e-30)
(-4.601222e-06 7.413454e-06 3.194588e-30)
(-4.588545e-06 7.638148e-06 -3.545974e-30)
(-8.641945e-07 8.054516e-07 -2.733881e-31)
(-4.462821e-07 2.511796e-07 -3.527128e-31)
(-1.735838e-06 1.969258e-06 1.769128e-32)
(-1.397679e-06 1.507596e-06 -4.45235e-27)
(-2.54728e-06 3.158866e-06 2.915577e-31)
(-2.302465e-06 2.730626e-06 6.962086e-31)
(-3.282654e-06 4.427905e-06 2.847222e-30)
(-3.121345e-06 4.041594e-06 0)
(-3.950401e-06 5.758374e-06 -4.015035e-28)
(-3.858845e-06 5.422055e-06 -1.934081e-31)
(-4.556519e-06 7.123655e-06 -5.182568e-28)
(-4.52868e-06 6.851636e-06 6.153206e-30)
(-5.143936e-06 8.323436e-06 6.406497e-30)
(-5.126049e-06 8.557972e-06 -6.987386e-32)
(-9.791655e-07 9.532019e-07 -8.306879e-31)
(-5.068514e-07 3.290698e-07 -3.828581e-27)
(-1.963655e-06 2.26825e-06 -7.373115e-32)
(-1.584205e-06 1.742197e-06 -1.082899e-30)
(-2.875853e-06 3.612501e-06 4.049373e-31)
(-2.604859e-06 3.128641e-06 4.727856e-27)
(-3.696815e-06 5.034679e-06 -3.038332e-30)
(-3.522595e-06 4.603641e-06 0)
(-4.435376e-06 6.511929e-06 4.596522e-28)
(-4.34161e-06 6.143942e-06 -3.038766e-30)
(-5.09959e-06 8.01224e-06 -5.696918e-28)
(-5.076314e-06 7.723256e-06 -3.298266e-31)
(-5.738797e-06 9.324595e-06 -2.217899e-29)
(-5.719284e-06 9.572422e-06 2.871225e-30)
(-1.111017e-06 1.117657e-06 -1.142476e-30)
(-5.771297e-07 4.158368e-07 -1.799908e-30)
(-2.224799e-06 2.601942e-06 1.868953e-32)
(-1.799423e-06 2.00365e-06 -5.397942e-27)
(-3.250834e-06 4.118808e-06 6.240315e-31)
(-2.952172e-06 3.572845e-06 6.235426e-31)
(-4.166573e-06 5.711696e-06 0)
(-3.980861e-06 5.231345e-06 -2.326983e-30)
(-4.980871e-06 7.352057e-06 -3.290407e-31)
(-4.889462e-06 6.95027e-06 -3.062019e-30)
(-5.701564e-06 9.001757e-06 -2.535343e-29)
(-5.694378e-06 8.696528e-06 -3.636707e-27)
(-6.411535e-06 1.044416e-05 2.820626e-28)
(-6.355177e-06 1.066825e-05 3.833967e-27)
(-1.263883e-06 1.300499e-06 -3.519197e-28)
(-6.575063e-07 5.117615e-07 -3.94174e-27)
(-2.526403e-06 2.974217e-06 -1.599164e-30)
(-2.046588e-06 2.292353e-06 -1.603144e-30)
(-3.681346e-06 4.684296e-06 -2.32508e-30)
(-3.353115e-06 4.068006e-06 -2.473955e-30)
(-4.702832e-06 6.468547e-06 4.926108e-28)
(-4.50737e-06 5.932697e-06 5.619563e-27)
(-5.601426e-06 8.291935e-06 -9.955936e-31)
(-5.514701e-06 7.852232e-06 -3.864869e-30)
(-6.392469e-06 1.011358e-05 -7.40196e-28)
(-6.394894e-06 9.785415e-06 -5.795673e-27)
(-7.165239e-06 1.169032e-05 -6.182712e-27)
(-7.084497e-06 1.189346e-05 -3.230083e-27)
(-1.434697e-06 1.497434e-06 -9.099312e-31)
(-7.510828e-07 6.152571e-07 -9.016469e-31)
(-2.875122e-06 3.388764e-06 -2.480122e-30)
(-2.336978e-06 2.610773e-06 0)
(-4.178506e-06 5.315696e-06 2.252057e-28)
(-3.820919e-06 4.618093e-06 -6.479818e-27)
(-5.318206e-06 7.314863e-06 -1.363107e-30)
(-5.117207e-06 6.714947e-06 -5.578852e-31)
(-6.307016e-06 9.343774e-06 -2.195835e-30)
(-6.232889e-06 8.860689e-06 -6.212769e-27)
(-7.164326e-06 1.135493e-05 -1.893621e-30)
(-7.191953e-06 1.100604e-05 -6.523241e-27)
(-8.015951e-06 1.310214e-05 2.084916e-31)
(-7.903495e-06 1.330058e-05 -1.269405e-31)
(-1.638862e-06 1.711414e-06 0)
(-8.648984e-07 7.27766e-07 -2.598398e-30)
(-3.286468e-06 3.845393e-06 -2.477111e-30)
(-2.678786e-06 2.956612e-06 2.80049e-31)
(-4.759585e-06 6.017651e-06 -2.467825e-30)
(-4.365232e-06 5.21839e-06 -7.6228e-27)
(-6.030756e-06 8.25913e-06 -2.103718e-30)
(-5.828976e-06 7.582615e-06 0)
(-7.116561e-06 1.052086e-05 -3.035121e-30)
(-7.064993e-06 9.985031e-06 -6.72147e-27)
(-8.041104e-06 1.274785e-05 -2.24323e-31)
(-8.106478e-06 1.237099e-05 -9.291905e-31)
(-8.983908e-06 1.468524e-05 5.458893e-27)
(-8.825234e-06 1.488844e-05 7.182788e-31)
(-1.888001e-06 1.9532e-06 -9.905751e-28)
(-1.005891e-06 8.513121e-07 -4.552702e-27)
(-3.756102e-06 4.327449e-06 1.054194e-30)
(-3.088026e-06 3.328241e-06 4.874382e-27)
(-5.440374e-06 6.792073e-06 7.728381e-31)
(-5.008323e-06 5.867069e-06 1.155072e-26)
(-6.863145e-06 9.308761e-06 -1.332526e-30)
(-6.659898e-06 8.526934e-06 5.314283e-30)
(-8.053541e-06 1.183291e-05 -1.332212e-30)
(-8.036397e-06 1.123103e-05 2.835096e-31)
(-9.046864e-06 1.430359e-05 -5.378175e-30)
(-9.162713e-06 1.389041e-05 3.162623e-30)
(-1.008585e-05 1.644878e-05 -8.581468e-30)
(-9.883353e-06 1.667031e-05 2.777838e-27)
(-2.194969e-06 2.214671e-06 3.672534e-31)
(-1.180512e-06 9.81913e-07 -1.17725e-30)
(-4.322458e-06 4.845133e-06 7.116076e-30)
(-3.588633e-06 3.725695e-06 2.848878e-30)
(-6.229221e-06 7.602642e-06 1.038373e-29)
(-5.786889e-06 6.562863e-06 4.192665e-27)
(-7.843818e-06 1.046761e-05 -9.597113e-28)
(-7.660164e-06 9.559576e-06 1.558589e-26)
(-9.144918e-06 1.32878e-05 4.777076e-30)
(-9.181908e-06 1.260253e-05 -1.009136e-26)
(-1.020002e-05 1.603252e-05 -8.719233e-28)
(-1.038782e-05 1.557316e-05 9.530904e-30)
(-1.133874e-05 1.840788e-05 9.718876e-30)
(-1.106493e-05 1.864314e-05 3.13863e-27)
(-2.570692e-06 2.490178e-06 5.295468e-28)
(-1.397008e-06 1.114907e-06 9.40366e-34)
(-5.034773e-06 5.42172e-06 6.101387e-30)
(-4.205103e-06 4.147067e-06 1.779994e-35)
(-7.184853e-06 8.471518e-06 -2.477787e-28)
(-6.725612e-06 7.305447e-06 5.122857e-30)
(-9.013403e-06 1.172728e-05 8.888521e-28)
(-8.839345e-06 1.066251e-05 -2.56076e-29)
(-1.042537e-05 1.489048e-05 -1.840916e-30)
(-1.051384e-05 1.408114e-05 -4.016916e-29)
(-1.152476e-05 1.794535e-05 -1.795834e-27)
(-1.179853e-05 1.742607e-05 1.842308e-30)
(-1.275279e-05 2.05736e-05 1.290135e-29)
(-1.238797e-05 2.082521e-05 -3.162709e-27)
(-3.028757e-06 2.770164e-06 -5.789337e-28)
(-1.662605e-06 1.244238e-06 -5.646409e-31)
(-5.889967e-06 6.023927e-06 -9.855152e-31)
(-4.947096e-06 4.572833e-06 -7.313646e-31)
(-8.343329e-06 9.437134e-06 -1.203699e-28)
(-7.846779e-06 8.095407e-06 5.532696e-27)
(-1.035519e-05 1.303735e-05 1.913235e-27)
(-1.022485e-05 1.184733e-05 4.563054e-27)
(-1.190445e-05 1.665016e-05 1.859592e-27)
(-1.204739e-05 1.568627e-05 2.811257e-30)
(-1.302703e-05 2.005638e-05 -4.53195e-30)
(-1.337379e-05 1.943604e-05 1.789475e-26)
(-1.43136e-05 2.295388e-05 0)
(-1.385347e-05 2.322523e-05 -1.519736e-30)
(-3.578011e-06 3.045225e-06 0)
(-1.978769e-06 1.363085e-06 -1.123793e-30)
(-6.899283e-06 6.639456e-06 3.190465e-30)
(-5.80775e-06 4.991591e-06 1.458655e-30)
(-9.698012e-06 1.046522e-05 1.23482e-29)
(-9.114346e-06 8.921144e-06 6.182184e-30)
(-1.188651e-05 1.444233e-05 6.409048e-28)
(-1.17451e-05 1.311824e-05 9.15032e-30)
(-1.353142e-05 1.849396e-05 -1.793379e-27)
(-1.373106e-05 1.743628e-05 2.807109e-27)
(-1.468043e-05 2.238333e-05 2.844039e-29)
(-1.511392e-05 2.166069e-05 2.198039e-29)
(-1.600481e-05 2.554325e-05 -1.346327e-29)
(-1.543969e-05 2.584051e-05 -1.728416e-30)
(-4.20527e-06 3.307713e-06 -1.37054e-27)
(-2.335625e-06 1.470443e-06 -3.210811e-30)
(-8.019185e-06 7.269607e-06 5.727904e-29)
(-6.734219e-06 5.413476e-06 2.914665e-30)
(-1.115412e-05 1.156469e-05 2.992073e-30)
(-1.04342e-05 9.810167e-06 -9.938546e-31)
(-1.355312e-05 1.605098e-05 6.553815e-30)
(-1.331153e-05 1.452963e-05 0)
(-1.526677e-05 2.04951e-05 2.528487e-31)
(-1.543886e-05 1.933288e-05 1.000658e-26)
(-1.645118e-05 2.489515e-05 1.304967e-27)
(-1.691472e-05 2.401426e-05 -4.945311e-29)
(-1.783822e-05 2.824528e-05 -8.135411e-29)
(-1.716726e-05 2.862596e-05 5.73831e-27)
(-4.861067e-06 3.574393e-06 1.542317e-27)
(-2.706111e-06 1.585454e-06 3.149794e-27)
(-9.145595e-06 7.950294e-06 -2.517944e-30)
(-7.627946e-06 5.880391e-06 -1.498601e-30)
(-1.258771e-05 1.27699e-05 -3.982506e-30)
(-1.16791e-05 1.07914e-05 3.219628e-28)
(-1.518862e-05 1.779493e-05 1.012345e-29)
(-1.480325e-05 1.605115e-05 -6.115471e-30)
(-1.704934e-05 2.272647e-05 1.086004e-27)
(-1.71325e-05 2.135348e-05 -2.469145e-30)
(-1.833129e-05 2.743005e-05 2.795641e-27)
(-1.883729e-05 2.645836e-05 4.673187e-27)
(-1.996857e-05 3.101612e-05 -9.684103e-29)
(-1.914865e-05 3.148301e-05 1.663712e-26)
(-5.467479e-06 3.887862e-06 1.763861e-27)
(-3.040394e-06 1.739341e-06 -2.46433e-30)
(-1.015916e-05 8.718985e-06 -7.446678e-30)
(-8.374716e-06 6.426446e-06 6.439708e-27)
(-1.389108e-05 1.40675e-05 -1.060168e-29)
(-1.274509e-05 1.184424e-05 2.926711e-31)
(-1.674102e-05 1.959856e-05 -1.119149e-27)
(-1.613668e-05 1.75946e-05 -3.056762e-30)
(-1.887708e-05 2.498884e-05 -6.259652e-28)
(-1.8752e-05 2.332654e-05 -2.368444e-29)
(-2.041857e-05 2.990326e-05 6.96678e-30)
(-2.078769e-05 2.875063e-05 -2.211517e-29)
(-2.233848e-05 3.357562e-05 -2.844832e-29)
(-2.154132e-05 3.423325e-05 9.399659e-27)
(-5.925355e-06 4.259339e-06 1.358157e-30)
(-3.289021e-06 1.948465e-06 4.347569e-30)
(-1.096676e-05 9.558992e-06 -1.072415e-27)
(-8.889241e-06 7.043541e-06 -3.049571e-26)
(-1.498969e-05 1.536989e-05 9.50365e-28)
(-1.353444e-05 1.286132e-05 -8.542868e-27)
(-1.81439e-05 2.131593e-05 -8.04999e-30)
(-1.723365e-05 1.901006e-05 1.349998e-29)
(-2.065234e-05 2.706548e-05 -2.391501e-27)
(-2.020913e-05 2.506392e-05 7.244183e-28)
(-2.266213e-05 3.226412e-05 -6.713172e-30)
(-2.270922e-05 3.076086e-05 -7.454129e-30)
(-2.492392e-05 3.581453e-05 1.793392e-29)
(-2.433311e-05 3.66767e-05 1.846075e-30)
(-6.206729e-06 4.691558e-06 2.892691e-30)
(-3.432065e-06 2.218476e-06 -1.690527e-26)
(-1.144765e-05 1.033486e-05 -6.407277e-27)
(-9.120813e-06 7.683798e-06 -2.90771e-30)
(-1.579371e-05 1.652617e-05 3.971414e-30)
(-1.395442e-05 1.371497e-05 -6.599896e-30)
(-1.929884e-05 2.275809e-05 -1.264399e-30)
(-1.795301e-05 2.008304e-05 -2.118129e-26)
(-2.225874e-05 2.874633e-05 -3.090626e-27)
(-2.13375e-05 2.634726e-05 -1.187599e-31)
(-2.490577e-05 3.420071e-05 1.649208e-29)
(-2.434587e-05 3.220326e-05 -1.450318e-26)
(-2.696783e-05 3.746925e-05 -1.154027e-23)
(-2.732568e-05 3.978853e-05 2.027292e-23)
(-6.314191e-06 5.178866e-06 -1.892515e-27)
(-3.445012e-06 2.529291e-06 -1.137484e-30)
(-1.157813e-05 1.099985e-05 -1.436552e-30)
(-9.051419e-06 8.288745e-06 1.37445e-30)
(-1.611388e-05 1.727347e-05 1.879977e-30)
(-1.393288e-05 1.428715e-05 2.906474e-30)
(-2.001481e-05 2.371264e-05 1.361343e-29)
(-1.813271e-05 2.064192e-05 5.528452e-26)
(-2.342568e-05 2.980591e-05 2.362652e-29)
(-2.18676e-05 2.692827e-05 -5.652073e-26)
(-2.661561e-05 3.755264e-05 1.140008e-29)
(-2.47681e-05 3.289561e-05 -2.589279e-23)
(-2.503647e-05 3.858526e-05 1.646534e-22)
(-2.954527e-05 5.304956e-05 -9.292351e-30)
(-6.175021e-06 5.631177e-06 -1.826137e-30)
(-3.282373e-06 2.834877e-06 2.716606e-26)
(-1.136999e-05 1.152513e-05 1.699454e-27)
(-8.669232e-06 8.77385e-06 2.783914e-30)
(-1.590183e-05 1.757531e-05 -3.088713e-29)
(-1.347793e-05 1.451842e-05 8.456679e-30)
(-1.999155e-05 2.386884e-05 -3.353094e-26)
(-1.768433e-05 2.060403e-05 -2.795961e-29)
(-2.377051e-05 3.222014e-05 -4.932572e-30)
(-2.087421e-05 2.676078e-05 4.029419e-29)
(-2.712549e-05 5.103432e-05 -1.240509e-29)
(-2.098453e-05 3.291753e-05 7.471042e-29)
(-1.641448e-05 3.918496e-05 -6.565488e-30)
(-3.002563e-05 8.48019e-05 -9.230623e-22)
(-5.771437e-06 5.971186e-06 -4.653702e-30)
(-2.948491e-06 3.059466e-06 -4.654336e-30)
(-1.077163e-05 1.175807e-05 5.576528e-30)
(-8.020458e-06 8.997638e-06 5.440878e-30)
(-1.522525e-05 1.748655e-05 7.920471e-27)
(-1.265214e-05 1.436343e-05 5.928462e-30)
(-1.920485e-05 2.497073e-05 5.678606e-29)
(-1.629361e-05 2.005557e-05 1.567076e-30)
(-2.218054e-05 4.315438e-05 1.091136e-21)
(-1.685584e-05 2.588082e-05 -1.679124e-22)
(-2.562071e-05 8.003008e-05 9.372035e-22)
(-9.393834e-06 3.349665e-05 -1.266799e-21)
(-1.241565e-06 3.943766e-05 1.26558e-29)
(-2.792806e-05 0.0001329736 -1.242939e-29)
(-5.179032e-06 6.065112e-06 5.430101e-30)
(-2.547664e-06 3.106903e-06 0)
(-9.904083e-06 1.16071e-05 3.869792e-27)
(-7.267106e-06 8.856122e-06 -4.252714e-31)
(-1.414991e-05 1.766645e-05 -8.040058e-24)
(-1.138042e-05 1.377126e-05 4.787996e-31)
(-1.782724e-05 3.409884e-05 -1.234887e-22)
(-1.244444e-05 1.91638e-05 -1.390686e-22)
(-2.049051e-05 6.868975e-05 1.567672e-29)
(-8.30983e-06 2.479921e-05 -4.917407e-30)
(-1.748236e-05 0.000122165 1.545271e-29)
(1.836616e-06 3.122359e-05 -1.103017e-21)
(2.794625e-05 4.387349e-05 -3.994084e-29)
(-2.291706e-05 0.0001926234 -6.4778e-30)
(-4.60524e-06 5.858542e-06 -5.86549e-30)
(-2.232752e-06 2.976628e-06 -3.059723e-30)
(-8.947134e-06 1.099587e-05 -5.798492e-30)
(-6.589584e-06 8.355642e-06 4.846195e-26)
(-1.265036e-05 2.209173e-05 6.269606e-30)
(-9.062964e-06 1.280393e-05 1.428573e-31)
(-1.577783e-05 5.51243e-05 4.451008e-31)
(-4.607978e-06 1.854033e-05 -1.47383e-29)
(-1.794239e-05 0.0001072507 1.143947e-29)
(4.259312e-06 2.39269e-05 9.97147e-22)
(-1.744393e-05 0.000176455 3.025186e-21)
(1.84454e-05 2.992114e-05 1.639218e-29)
(3.937593e-05 3.728416e-05 -4.11061e-29)
(-1.589953e-06 0.0002621188 -1.722215e-20)
(-4.201639e-06 5.452059e-06 5.061011e-28)
(-2.035382e-06 2.722482e-06 3.222124e-26)
(-8.138427e-06 1.265687e-05 -4.13912e-30)
(-5.392209e-06 7.648997e-06 -7.734699e-30)
(-1.133092e-05 3.604923e-05 -2.065199e-29)
(-4.734749e-06 1.176133e-05 2.198026e-30)
(-1.193619e-05 8.376861e-05 -2.555512e-21)
(2.530663e-06 1.660479e-05 -3.123028e-29)
(-1.42355e-05 0.000153585 -2.758486e-29)
(2.407556e-05 2.557397e-05 -1.926668e-29)
(-1.36329e-05 0.0002400048 -2.95819e-30)
(3.857986e-05 2.938879e-05 2.430033e-29)
(6.463859e-05 3.667351e-05 2.456049e-29)
(-1.06621e-05 0.0003395209 -7.194149e-31)
(-3.898745e-06 5.083254e-06 -5.462475e-25)
(-1.820944e-06 2.376908e-06 -2.672023e-24)
(-7.456959e-06 2.058307e-05 -6.005252e-23)
(-3.157787e-06 6.822127e-06 1.41305e-30)
(-1.009072e-05 5.91002e-05 -8.261675e-30)
(1.514886e-06 1.071613e-05 -4.927471e-22)
(-1.10897e-05 0.0001198519 -2.131911e-21)
(1.294398e-05 1.523451e-05 -1.547981e-29)
(-4.715423e-06 0.0002040341 7.072488e-21)
(3.099704e-05 2.065791e-05 2.127515e-21)
(1.770848e-06 0.0003035287 5.359985e-29)
(5.370355e-05 2.661189e-05 -3.292314e-21)
(0.0001162536 4.972191e-05 2.821603e-29)
(-3.587176e-06 0.0004208147 1.621882e-20)
(-3.568275e-06 6.863905e-06 6.989431e-24)
(-1.023838e-06 2.000195e-06 3.17181e-23)
(-6.70293e-06 3.427113e-05 8.699628e-30)
(2.91415e-07 5.927423e-06 -2.556732e-22)
(-8.802104e-06 8.66021e-05 -1.328012e-30)
(8.892385e-06 9.621997e-06 6.097431e-30)
(-9.493511e-06 0.0001619615 -1.534372e-21)
(2.452734e-05 1.403979e-05 -5.011054e-30)
(-7.980268e-06 0.0002571266 -5.704474e-30)
(4.612378e-05 1.905326e-05 -7.09448e-30)
(-3.898415e-06 0.0003680217 2.636288e-30)
(7.23514e-05 2.443532e-05 -4.144835e-21)
(0.0001081036 3.179339e-05 5.905586e-21)
(1.947544e-05 0.0004976425 2.835098e-29)
(-3.142696e-06 1.199927e-05 5.244695e-30)
(2.184022e-07 1.589174e-06 -7.85944e-23)
(-5.772158e-06 5.029478e-05 2.267957e-22)
(4.385505e-06 4.933534e-06 6.108943e-30)
(-7.477588e-06 0.0001145843 2.408502e-30)
(1.680238e-05 8.519894e-06 1.636836e-30)
(-7.816908e-06 0.0002025834 6.060682e-31)
(3.58829e-05 1.270845e-05 -9.847637e-33)