/*--------------------------------*- C++ -*----------------------------------*\
| =========                 |                                                 |
| \\      /  F ield         | OpenFOAM: The Open Source CFD Toolbox           |
|  \\    /   O peration     | Version:  2206                                  |
|   \\  /    A nd           | Website:  www.openfoam.com                      |
|    \\/     M anipulation  |                                                 |
\*---------------------------------------------------------------------------*/
FoamFile
{
    version     2.0;
    format      ascii;
    arch        "LSB;label=32;scalar=64";
    class       surfaceVectorField;
    location    "2.6";
    object      Ufb;
}
// * * * * * * * * * * * * * * * * * * * * * * * * * * * * * * * * * * * * * //

dimensions      [0 1 -1 0 0 0 0];

internalField   nonuniform List<vector> 
26037
(
(-2.711385e-06 0.0001062489 1.323627e-21)
(4.451785e-05 1.890849e-05 -2.989383e-27)
(-3.23418e-06 4.810945e-05 -4.735789e-23)
(1.280063e-05 5.337101e-05 3.451838e-24)
(-2.728937e-06 1.723028e-05 1.711098e-27)
(2.797047e-06 3.060905e-05 1.714984e-27)
(-2.599781e-06 5.421237e-06 2.419349e-28)
(-1.555387e-06 1.311248e-05 0)
(-2.667646e-06 1.370715e-07 8.219514e-24)
(-1.774037e-06 3.514319e-06 2.411121e-28)
(-2.898741e-06 -3.813731e-06 1.935304e-28)
(-2.005205e-06 -1.62062e-06 -7.185383e-27)
(-2.427926e-06 -5.444197e-06 5.728286e-29)
(-3.220359e-06 -7.15454e-06 2.713219e-24)
(1.971236e-05 6.384654e-05 -1.585105e-29)
(9.132408e-05 1.01294e-05 2.273604e-27)
(5.809894e-06 3.816687e-05 -1.60034e-29)
(3.305685e-05 3.504349e-05 -1.235991e-27)
(1.692964e-06 1.664299e-05 0)
(1.046485e-05 2.328328e-05 -4.304539e-28)
(-3.218206e-07 6.164836e-06 -7.940447e-31)
(3.300627e-06 1.068405e-05 -6.109e-28)
(-9.028794e-07 3.266736e-07 -9.091552e-31)
(1.089774e-06 3.15822e-06 8.773461e-26)
(-1.48168e-06 -3.921562e-06 5.684969e-32)
(-1.090649e-07 -1.82204e-06 -1.153687e-31)
(-1.024775e-06 -5.700029e-06 6.653471e-27)
(-2.093669e-06 -7.37908e-06 -1.272228e-29)
(5.241878e-05 2.829077e-05 1.047398e-27)
(4.938945e-05 7.527916e-06 1.924573e-22)
(2.177056e-05 2.123967e-05 -1.668666e-27)
(2.634196e-05 1.753221e-05 -5.682365e-23)
(8.127456e-06 1.230597e-05 -4.119443e-24)
(1.353407e-05 1.340439e-05 -1.578552e-27)
(3.506351e-06 5.259436e-06 -5.496838e-24)
(7.136604e-06 7.429008e-06 -9.875389e-28)
(1.503732e-06 -6.641621e-09 -1.954233e-28)
(3.896806e-06 2.094569e-06 -1.60691e-25)
(2.286464e-07 -4.186553e-06 2.158024e-34)
(1.937735e-06 -2.354106e-06 0)
(5.522938e-07 -6.109627e-06 -9.831121e-27)
(-7.884385e-07 -7.67087e-06 2.327706e-29)
(3.515632e-05 1.351194e-05 -4.988324e-28)
(3.463058e-05 4.571465e-06 1.239522e-27)
(2.0502e-05 1.274726e-05 -2.892679e-27)
(2.369933e-05 9.966886e-06 -2.824448e-23)
(1.151782e-05 8.623428e-06 3.562052e-25)
(1.555283e-05 8.345966e-06 -3.411694e-24)
(6.708682e-06 3.799354e-06 -3.679717e-28)
(1.005354e-05 4.847304e-06 4.84638e-24)
(3.980901e-06 -7.127687e-07 7.103719e-30)
(6.491598e-06 8.021049e-07 4.100418e-28)
(2.131667e-06 -4.664318e-06 1.462934e-30)
(4.086206e-06 -3.138234e-06 -1.038785e-32)
(2.292147e-06 -6.707601e-06 3.71202e-30)
(7.039474e-07 -8.093277e-06 -3.747386e-29)
(2.822935e-05 7.604859e-06 -6.458423e-25)
(2.937813e-05 2.921335e-06 2.225008e-30)
(2.024717e-05 8.098624e-06 -6.718096e-25)
(2.310601e-05 6.072394e-06 -7.036771e-28)
(1.392978e-05 5.671749e-06 -1.869305e-27)
(1.721536e-05 5.202171e-06 -1.078229e-27)
(9.471784e-06 2.112546e-06 -2.86301e-25)
(1.252402e-05 2.630734e-06 -2.537693e-25)
(6.394675e-06 -1.693707e-06 -4.082787e-25)
(9.004886e-06 -6.51894e-07 -1.456675e-24)
(4.17443e-06 -5.368065e-06 -4.929377e-25)
(6.32683e-06 -4.137277e-06 1.461265e-29)
(4.198473e-06 -7.53312e-06 -1.307857e-27)
(2.373682e-06 -8.717169e-06 2.249093e-30)
(2.599439e-05 4.514999e-06 -5.98666e-30)
(2.726127e-05 1.785129e-06 0)
(2.085931e-05 4.938325e-06 4.42488e-25)
(2.330815e-05 3.532755e-06 -6.378702e-28)
(1.598385e-05 3.20174e-06 -6.056043e-25)
(1.890006e-05 2.736849e-06 -4.836645e-28)
(1.201037e-05 3.315858e-07 3.236482e-25)
(1.488507e-05 6.198634e-07 -3.864425e-28)
(8.843214e-06 -2.967278e-06 7.638495e-30)
(1.149751e-05 -2.275028e-06 -4.432022e-25)
(6.31529e-06 -6.343829e-06 -7.141855e-26)
(8.671187e-06 -5.420409e-06 1.776517e-29)
(6.25162e-06 -8.613222e-06 -7.510165e-29)
(4.207956e-06 -9.595939e-06 5.779923e-25)
(2.546189e-05 2.494526e-06 -6.315489e-28)
(2.675656e-05 9.540926e-07 1.354401e-27)
(2.189108e-05 2.491406e-06 -1.123345e-27)
(2.410465e-05 1.610857e-06 -4.70938e-24)
(1.80458e-05 9.876499e-07 -3.665508e-24)
(2.072308e-05 6.203875e-07 -2.73982e-24)
(1.445685e-05 -1.522784e-06 -3.38879e-28)
(1.726639e-05 -1.35636e-06 4.75041e-29)
(1.133354e-05 -4.516022e-06 1.519151e-25)
(1.40137e-05 -4.032027e-06 -1.246325e-27)
(8.589871e-06 -7.656366e-06 2.951143e-30)
(1.109596e-05 -7.008168e-06 1.039342e-29)
(8.441194e-06 -1.003249e-05 1.237844e-29)
(6.163092e-06 -1.076943e-05 -5.571724e-30)
(2.593836e-05 1.048411e-06 7.139471e-28)
(2.729712e-05 3.261147e-07 9.355382e-24)
(2.329904e-05 4.870157e-07 -1.221242e-27)
(2.539576e-05 6.703892e-08 6.979695e-28)
(2.016367e-05 -1.075266e-06 -5.862259e-28)
(2.269306e-05 -1.265552e-06 4.060763e-29)
(1.6904e-05 -3.470975e-06 -8.677381e-28)
(1.966349e-05 -3.32517e-06 3.851603e-30)
(1.383308e-05 -6.292808e-06 -8.538164e-28)
(1.655512e-05 -5.940545e-06 -2.065281e-24)
(1.097347e-05 -9.304945e-06 6.319365e-26)
(1.358923e-05 -8.832968e-06 1.943222e-29)
(1.074164e-05 -1.180942e-05 1.246402e-29)
(8.267727e-06 -1.230613e-05 -1.265386e-28)
(2.714846e-05 -5.830308e-08 1.338261e-27)
(2.863126e-05 -1.728343e-07 -7.582759e-24)
(2.508195e-05 -1.226591e-06 1.959672e-27)
(2.716623e-05 -1.233615e-06 6.280742e-24)
(2.241552e-05 -3.03859e-06 2.353641e-25)
(2.490864e-05 -3.014412e-06 2.345927e-24)
(1.94143e-05 -5.474695e-06 -1.935509e-27)
(2.217142e-05 -5.286829e-06 -1.213835e-27)
(1.639389e-05 -8.270846e-06 1.218427e-25)
(1.918401e-05 -7.981306e-06 -2.513869e-24)
(1.342121e-05 -1.124342e-05 1.198793e-29)
(1.616977e-05 -1.08957e-05 1.198423e-29)
(1.314281e-05 -1.387988e-05 0)
(1.050392e-05 -1.42168e-05 2.61562e-28)
(2.897701e-05 -9.664651e-07 -4.914945e-29)
(3.063869e-05 -5.958579e-07 -1.475157e-27)
(2.725435e-05 -2.746851e-06 2.097167e-27)
(2.941559e-05 -2.386882e-06 1.42681e-27)
(2.489068e-05 -4.912542e-06 -5.270556e-28)
(2.742827e-05 -4.673087e-06 2.13136e-27)
(2.206349e-05 -7.546164e-06 -1.208913e-27)
(2.488814e-05 -7.265774e-06 -3.778231e-24)
(1.906388e-05 -1.043471e-05 -3.473532e-31)
(2.195994e-05 -1.015385e-05 2.99942e-24)
(1.597482e-05 -1.345596e-05 0)
(1.887664e-05 -1.31889e-05 0)
(1.566641e-05 -1.625594e-05 0)
(1.283287e-05 -1.646525e-05 3.645975e-28)
(3.137691e-05 -1.755984e-06 0)
(3.325719e-05 -9.787826e-07 0)
(2.984837e-05 -4.156741e-06 1.460471e-27)
(3.216485e-05 -3.463058e-06 -1.688556e-27)
(2.766224e-05 -6.765e-06 1.495046e-28)
(3.032421e-05 -6.292039e-06 5.156985e-24)
(2.492553e-05 -9.698191e-06 -1.333437e-27)
(2.78812e-05 -9.289877e-06 1.292017e-28)
(2.189974e-05 -1.278297e-05 4.837638e-31)
(2.494986e-05 -1.247074e-05 -3.552169e-24)
(1.86732e-05 -1.593993e-05 0)
(2.176215e-05 -1.571654e-05 0)
(1.834847e-05 -1.894064e-05 1.089492e-27)
(1.529627e-05 -1.905025e-05 -3.638609e-28)
(3.433814e-05 -2.494266e-06 -1.687854e-27)
(3.647544e-05 -1.344211e-06 0)
(3.290419e-05 -5.523184e-06 -8.283505e-29)
(3.543787e-05 -4.512751e-06 -6.146603e-24)
(3.079554e-05 -8.632589e-06 3.083084e-27)
(3.365266e-05 -7.921704e-06 1.594509e-27)
(2.806966e-05 -1.195351e-05 -6.063442e-26)
(3.122188e-05 -1.139454e-05 4.718428e-24)
(2.496493e-05 -1.532719e-05 -1.374514e-27)
(2.822483e-05 -1.495332e-05 -2.891194e-27)
(2.15663e-05 -1.870266e-05 1.089117e-27)
(2.488641e-05 -1.849358e-05 1.350645e-27)
(2.123603e-05 -2.194758e-05 2.974737e-24)
(1.793054e-05 -2.198155e-05 -1.206022e-25)
(3.787457e-05 -3.21871e-06 -1.868965e-27)
(4.030691e-05 -1.709332e-06 -2.113193e-27)
(3.646305e-05 -6.89564e-06 1.428579e-26)
(3.926984e-05 -5.57609e-06 -1.86927e-27)
(3.435237e-05 -1.055833e-05 1.622398e-27)
(3.746953e-05 -9.606742e-06 -3.02108e-29)
(3.156687e-05 -1.434301e-05 1.149319e-28)
(3.497875e-05 -1.361648e-05 1.632388e-27)
(2.832688e-05 -1.809132e-05 -1.636102e-28)
(3.18589e-05 -1.762817e-05 -4.932618e-24)
(2.47107e-05 -2.176262e-05 1.351684e-27)
(2.831288e-05 -2.15454e-05 4.085258e-24)
(2.43829e-05 -2.529968e-05 -3.532143e-24)
(2.078069e-05 -2.527724e-05 1.019455e-30)
(4.201786e-05 -3.956257e-06 -2.113601e-27)
(4.478417e-05 -2.087038e-06 -7.360555e-24)
(4.057396e-05 -8.316164e-06 -1.656342e-29)
(4.370867e-05 -6.685647e-06 0)
(3.839137e-05 -1.25876e-05 6.337394e-27)
(4.183607e-05 -1.139217e-05 -5.586129e-29)
(3.548849e-05 -1.689492e-05 -3.446979e-27)
(3.921299e-05 -1.601504e-05 2.412212e-27)
(3.20565e-05 -2.110862e-05 -1.87123e-27)
(3.593424e-05 -2.050057e-05 -6.427384e-24)
(2.816633e-05 -2.514774e-05 1.99459e-28)
(3.210488e-05 -2.489924e-05 1.522682e-27)
(2.784743e-05 -2.902774e-05 1.733142e-28)
(2.3898e-05 -2.896458e-05 -3.187861e-28)
(4.681554e-05 -4.73042e-06 -2.353151e-27)
(4.995763e-05 -2.486728e-06 -2.352067e-27)
(4.529922e-05 -9.8222e-06 -3.925407e-29)
(4.881402e-05 -7.864949e-06 -2.568454e-27)
(4.298224e-05 -1.477429e-05 2.180588e-26)
(4.683651e-05 -1.329986e-05 -3.926409e-29)
(3.995522e-05 -1.964684e-05 -5.807236e-25)
(4.407374e-05 -1.858332e-05 5.979038e-24)
(3.6248e-05 -2.440298e-05 -1.354703e-27)
(4.057225e-05 -2.367221e-05 -1.280285e-27)
(3.200224e-05 -2.889092e-05 1.496748e-27)
(3.634676e-05 -2.860149e-05 9.965255e-29)
(3.169632e-05 -3.317343e-05 4.813239e-24)
(2.734003e-05 -3.307952e-05 2.756561e-27)
(5.23252e-05 -5.556695e-06 -2.567214e-27)
(5.588909e-05 -2.917193e-06 0)
(5.070083e-05 -1.143328e-05 -2.568972e-27)
(5.464659e-05 -9.138456e-06 -8.56059e-24)
(4.823669e-05 -1.710588e-05 2.387687e-27)
(5.250962e-05 -1.53661e-05 -2.661409e-29)
(4.500038e-05 -2.263165e-05 -1.700548e-25)
(4.952882e-05 -2.135502e-05 2.353174e-27)
(4.091265e-05 -2.803291e-05 1.818062e-28)
(4.5724e-05 -2.717494e-05 8.196541e-29)
(3.628261e-05 -3.304309e-05 -2.448934e-25)
(4.109756e-05 -3.270123e-05 9.960926e-29)
(3.599462e-05 -3.778711e-05 1.808653e-27)
(3.116784e-05 -3.766955e-05 1.940845e-27)
(5.861818e-05 -6.454121e-06 -5.750182e-27)
(6.265687e-05 -3.386781e-06 -3.298153e-27)
(5.684846e-05 -1.319237e-05 -5.780729e-27)
(6.12898e-05 -1.053077e-05 -9.491943e-24)
(5.417316e-05 -1.967785e-05 7.022491e-26)
(5.895455e-05 -1.763731e-05 -8.7745e-29)
(5.064993e-05 -2.594925e-05 -3.761214e-29)
(5.569791e-05 -2.444581e-05 -7.94288e-29)
(4.616888e-05 -3.20455e-05 0)
(5.152728e-05 -3.103135e-05 0)
(4.108403e-05 -3.765375e-05 0)
(4.644124e-05 -3.724485e-05 -2.576327e-27)
(4.081426e-05 -4.292406e-05 -3.011489e-28)
(3.544689e-05 -4.278853e-05 -1.493344e-28)
(6.577975e-05 -7.436974e-06 -9.326099e-27)
(7.035127e-05 -3.902526e-06 -1.082536e-23)
(6.383223e-05 -1.512227e-05 1.154487e-25)
(6.8834e-05 -1.206162e-05 -6.868765e-27)
(6.089665e-05 -2.250591e-05 9.534643e-26)
(6.62614e-05 -2.0139e-05 -1.657184e-28)
(5.702645e-05 -2.961059e-05 -4.308481e-29)
(6.267485e-05 -2.786147e-05 -1.390312e-28)
(5.209515e-05 -3.648304e-05 -2.606276e-27)
(5.807333e-05 -3.529365e-05 0)
(4.648582e-05 -4.278045e-05 3.951828e-25)
(5.247215e-05 -4.227959e-05 -8.555986e-24)
(4.623305e-05 -4.864768e-05 -4.715709e-28)
(4.024757e-05 -4.84979e-05 5.085429e-25)
(7.390634e-05 -8.519354e-06 -1.742018e-26)
(7.907505e-05 -4.471456e-06 -7.872417e-27)
(7.174858e-05 -1.725033e-05 1.337393e-25)
(7.738136e-05 -1.375169e-05 -1.174639e-23)
(6.850549e-05 -2.563067e-05 2.42477e-25)
(7.453246e-05 -2.290633e-05 -4.025009e-27)
(6.421885e-05 -3.366516e-05 -9.818108e-29)
(7.056055e-05 -3.166007e-05 -9.66101e-29)
(5.878886e-05 -4.13783e-05 -2.791029e-27)
(6.54433e-05 -4.00746e-05 1.059774e-27)
(5.258344e-05 -4.848889e-05 -2.927128e-27)
(5.931477e-05 -4.779986e-05 -1.173325e-27)
(5.233291e-05 -5.501772e-05 2.139616e-28)
(4.564697e-05 -5.486746e-05 5.951462e-25)
(8.310656e-05 -9.715223e-06 -1.231144e-26)
(8.894325e-05 -5.100259e-06 -1.336244e-23)
(8.070736e-05 -1.960385e-05 -1.20663e-26)
(8.70464e-05 -1.561991e-05 -1.302291e-23)
(7.711898e-05 -2.909716e-05 -3.923304e-27)
(8.388761e-05 -2.596447e-05 -1.248098e-23)
(7.23403e-05 -3.820493e-05 1.050167e-27)
(7.951647e-05 -3.58477e-05 -4.055842e-27)
(6.646698e-05 -4.681172e-05 -3.552177e-24)
(7.394038e-05 -4.531072e-05 1.212063e-27)
(5.95186e-05 -5.482918e-05 -1.357579e-24)
(6.718274e-05 -5.401943e-05 -1.848021e-27)
(5.923435e-05 -6.212161e-05 3.267028e-27)
(5.173913e-05 -6.197036e-05 3.844065e-28)
(9.349979e-05 -1.10377e-05 1.285833e-26)
(0.0001000828 -5.7965e-06 -4.692349e-27)
(9.082316e-05 -2.220449e-05 -1.965373e-25)
(9.795089e-05 -1.768866e-05 -1.450898e-23)
(8.684531e-05 -3.291399e-05 -1.283037e-26)
(9.443138e-05 -2.935199e-05 -1.406034e-23)
(8.159953e-05 -4.313818e-05 -4.278564e-25)
(8.956928e-05 -4.047993e-05 -1.346349e-23)
(7.516114e-05 -5.278228e-05 -3.228716e-27)
(8.339646e-05 -5.103543e-05 1.567762e-28)
(6.7265e-05 -6.188477e-05 -4.75888e-28)
(7.58922e-05 -6.096927e-05 -1.094441e-23)
(6.702404e-05 -7.004539e-05 1.059511e-23)
(5.861496e-05 -6.990024e-05 7.996161e-25)
(0.0001052197 -1.250345e-05 -5.12044e-27)
(0.0001126364 -6.567861e-06 5.936012e-27)
(0.0001022268 -2.509021e-05 -2.10503e-25)
(0.0001102376 -1.998173e-05 -5.121188e-27)
(9.779961e-05 -3.716509e-05 -1.431587e-26)
(0.0001063155 -3.311259e-05 -4.91075e-27)
(9.197771e-05 -4.868577e-05 -9.420914e-27)
(0.0001009079 -4.564459e-05 -1.501792e-23)
(8.482998e-05 -5.952513e-05 -3.818819e-27)
(9.404692e-05 -5.751041e-05 5.124803e-27)
(7.602751e-05 -6.974891e-05 -3.83158e-27)
(8.568737e-05 -6.866982e-05 -3.899743e-27)
(7.58376e-05 -7.885032e-05 -1.286594e-23)
(6.63928e-05 -7.875313e-05 -2.461142e-27)
(0.0001184147 -1.412666e-05 5.937085e-27)
(0.0001267593 -7.421127e-06 1.826753e-23)
(0.0001150678 -2.828734e-05 0)
(0.0001240597 -2.251928e-05 0)
(0.0001101409 -4.187856e-05 1.535147e-28)
(0.0001196916 -3.727707e-05 0)
(0.0001036654 -5.484075e-05 -5.888603e-25)
(0.0001136798 -5.137381e-05 1.692004e-23)
(9.569221e-05 -6.701603e-05 5.230092e-27)
(0.0001060428 -6.474277e-05 1.677125e-23)
(8.593552e-05 -7.843521e-05 -4.020167e-27)
(9.669919e-05 -7.735298e-05 -5.033824e-27)
(8.58814e-05 -8.851429e-05 -3.994106e-27)
(7.520525e-05 -8.862659e-05 -7.985874e-27)
(0.0001332458 -1.592098e-05 1.336003e-26)
(0.0001426204 -8.363023e-06 2.016102e-23)
(0.0001295058 -3.182259e-05 0)
(0.0001395838 -2.532071e-05 4.351836e-29)
(0.0001240323 -4.709639e-05 5.78165e-27)
(0.0001347268 -4.187548e-05 7.135783e-27)
(0.0001168543 -6.167879e-05 6.225402e-25)
(0.0001280666 -5.769817e-05 5.981167e-27)
(0.0001079472 -7.54419e-05 6.057955e-27)
(0.0001196693 -7.270565e-05 1.65516e-23)
(9.739001e-05 -8.814857e-05 -5.065389e-27)
(0.0001095099 -8.68546e-05 -1.229179e-23)
(9.754213e-05 -9.944613e-05 0)
(8.527166e-05 -9.963557e-05 3.891846e-27)
(0.0001498859 -1.789927e-05 7.557023e-27)
(0.0001603997 -9.399846e-06 7.50904e-27)
(0.0001457103 -3.572043e-05 -2.686002e-25)
(0.0001569864 -2.840579e-05 -8.195901e-27)
(0.0001396356 -5.284601e-05 7.335576e-27)
(0.0001515901 -4.694346e-05 2.127331e-23)
(0.0001316953 -6.91827e-05 -7.333917e-25)
(0.0001442029 -6.467448e-05 1.985723e-28)
(0.0001219219 -8.453834e-05 -5.439291e-27)
(0.0001348897 -8.147989e-05 -2.00825e-23)
(0.0001104026 -9.875554e-05 -5.851693e-27)
(0.0001236625 -9.718046e-05 -4.360151e-27)
(0.0001103856 -0.0001116714 7.76938e-28)
(9.651096e-05 -0.0001118591 3.650078e-27)
(0.0001685207 -2.007405e-05 -8.23413e-27)
(0.0001802899 -1.053636e-05 -9.483698e-27)
(0.0001638667 -4.001035e-05 -2.997865e-28)
(0.0001764615 -3.179163e-05 -2.393399e-23)
(0.0001571355 -5.918735e-05 7.948019e-27)
(0.0001704815 -5.25141e-05 1.68657e-26)
(0.0001483492 -7.750335e-05 -6.488833e-27)
(0.0001623177 -7.236186e-05 0)
(0.0001375516 -9.475989e-05 -2.017598e-24)
(0.0001520348 -9.120719e-05 -7.118501e-27)
(0.0001248152 -0.0001107594 -3.009809e-24)
(0.0001396354 -0.0001088353 1.344558e-27)
(0.0001249203 -0.0001251999 1.646033e-27)
(0.0001093064 -0.0001255821 -1.282779e-28)
(0.0001893483 -2.245178e-05 -1.873854e-26)
(0.0002024886 -1.177491e-05 -2.619938e-23)
(0.0001841767 -4.471199e-05 -3.436157e-28)
(0.0001982151 -3.548283e-05 -1.964163e-26)
(0.0001767427 -6.614564e-05 8.925129e-27)
(0.0001916065 -5.86059e-05 2.575895e-23)
(0.0001670572 -8.664728e-05 -6.281662e-28)
(0.0001826203 -8.078199e-05 0)
(0.0001551527 -0.0001060048 2.230179e-24)
(0.0001713101 -0.0001018852 -6.28256e-28)
(0.0001410744 -0.0001239887 -3.276871e-24)
(0.0001576519 -0.0001217296 -8.215646e-27)
(0.0001414228 -0.0001403625 7.975099e-28)
(0.0001240188 -0.0001406982 6.527849e-27)
(0.0002125766 -2.502588e-05 -2.10284e-26)
(0.0002272015 -1.310385e-05 -2.259623e-26)
(0.0002068552 -4.983525e-05 -3.644228e-28)
(0.0002224699 -3.947799e-05 -2.914103e-23)
(0.0001986704 -7.374035e-05 1.002937e-26)
(0.0002151806 -6.523003e-05 1.002152e-26)
(0.0001880437 -9.664665e-05 0)
(0.000205333 -8.995041e-05 1.0093e-26)
(0.0001750086 -0.0001183495 -8.200496e-27)
(0.0001929669 -0.0001135116 -7.818828e-28)
(0.0001595194 -0.0001387106 -8.42963e-27)
(0.0001781675 -0.000135678 -2.20409e-23)
(0.0001609472 -0.000156366 7.454605e-24)
(0.0001417412 -0.0001574584 1.65782e-23)
(0.000238415 -2.776767e-05 1.883364e-25)
(0.0002545942 -1.455867e-05 -2.844767e-23)
(0.0002321196 -5.538712e-05 -1.171891e-26)
(0.0002494612 -4.368486e-05 -1.174808e-26)
(0.0002231365 -8.197981e-05 1.008475e-26)
(0.0002414176 -7.236217e-05 -1.284242e-26)
(0.0002115129 -0.0001075054 2.15689e-24)
(0.0002306748 -9.989019e-05 3.110202e-23)
(0.0001972515 -0.0001316841 -1.836992e-26)
(0.0002171422 -0.0001261827 -1.20794e-26)
(0.0001803292 -0.0001541356 -3.71911e-24)
(0.0002008138 -0.0001509551 -3.255223e-23)
(0.0001814886 -0.0001738192 -3.528231e-23)
(0.0001607588 -0.0001742726 -1.45926e-23)
(0.0002671235 -3.062533e-05 -1.34416e-26)
(0.0002850502 -1.603815e-05 -1.331923e-26)
(0.0002602784 -6.128675e-05 -1.287443e-26)
(0.0002794839 -4.820625e-05 0)
(0.0002504086 -9.085869e-05 9.217468e-25)
(0.0002706174 -7.996482e-05 -3.479375e-23)
(0.0002377515 -0.0001193049 4.043863e-28)
(0.0002589554 -0.0001105855 1.168145e-26)
(0.0002221875 -0.0001463961 -3.216617e-26)
(0.0002442908 -0.0001399309 -3.467589e-23)
(0.0002035895 -0.0001718396 -3.032005e-26)
(0.0002265656 -0.0001678091 -3.641805e-23)
(0.0002054957 -0.0001939988 1.259832e-27)
(0.0001817836 -0.0001952766 -2.51269e-26)
(0.0002988446 -3.369451e-05 0)
(0.0003185471 -1.760849e-05 -1.676789e-26)
(0.0002913367 -6.74873e-05 -2.831091e-26)
(0.0003123309 -5.317634e-05 1.611375e-26)
(0.0002807541 -0.0001003284 -2.820479e-26)
(0.000303011 -8.775901e-05 -3.854848e-23)
(0.0002670873 -0.0001319637 -2.539285e-26)
(0.0002904394 -0.0001218492 0)
(0.0002503159 -0.0001622521 -3.719298e-26)
(0.0002746997 -0.00015459 -3.754661e-23)
(0.0002302959 -0.000191023 -1.155738e-27)
(0.0002557534 -0.0001858092 -1.177346e-26)
(0.0002334286 -0.0002153946 3.371921e-23)
(0.0002066501 -0.0002181449 1.081433e-26)
(0.0003336136 -3.712891e-05 5.17955e-25)
(0.0003554759 -1.928237e-05 -3.45206e-23)
(0.0003257103 -7.388051e-05 3.175903e-26)
(0.0003487527 -5.816308e-05 3.275835e-23)
(0.0003145998 -0.0001100253 1.553672e-26)
(0.0003388943 -9.618383e-05 6.612481e-23)
(0.0002998656 -0.0001453359 -1.429177e-26)
(0.0003256214 -0.0001332413 3.410673e-26)
(0.0002818782 -0.0001790488 -1.42884e-26)
(0.0003086013 -0.0001699628 -2.911562e-26)
(0.000260541 -0.000211248 9.144713e-27)
(0.000288483 -0.0002048789 1.404335e-27)
(0.0002645733 -0.0002380843 7.510368e-27)
(0.0002355416 -0.000241507 8.605371e-24)
(0.0003720627 -4.043721e-05 -4.481253e-28)
(0.0003956714 -2.09379e-05 -1.85759e-26)
(0.0003634467 -8.054384e-05 7.059575e-26)
(0.0003885452 -6.295812e-05 1.831472e-26)
(0.0003519988 -0.0001198955 8.723972e-26)
(0.0003784089 -0.0001045626 3.15089e-23)
(0.0003365714 -0.0001591268 -3.254531e-24)
(0.0003649642 -0.0001451259 8.390792e-23)
(0.0003172435 -0.0001967201 -1.342553e-26)
(0.0003464897 -0.0001857885 -5.182343e-23)
(0.0002945838 -0.0002328842 -3.482859e-24)
(0.0003253184 -0.0002249266 4.479631e-27)
(0.0002999802 -0.0002624355 5.578676e-27)
(0.0002678356 -0.0002672087 8.354229e-24)
(0.0004137072 -4.37841e-05 -3.494448e-25)
(0.0004391882 -2.258776e-05 -2.535271e-30)
(0.0004048649 -8.705368e-05 2.048751e-26)
(0.000431514 -6.786627e-05 -8.181981e-30)
(0.0003930199 -0.0001297059 -2.157643e-24)
(0.0004210531 -0.0001126573 4.164688e-26)
(0.0003768085 -0.0001728325 1.569651e-24)
(0.0004071227 -0.0001575903 4.899731e-26)
(0.0003569065 -0.0002149622 -1.738997e-26)
(0.0003888525 -0.0002011288 -3.337004e-26)
(0.0003331099 -0.0002556004 -6.713248e-24)
(0.0003667444 -0.0002453203 1.868317e-26)
(0.0003402989 -0.0002878406 7.202179e-27)
(0.0003049329 -0.0002946467 -7.140054e-24)
(0.0004586239 -4.704302e-05 3.249123e-25)
(0.0004859557 -2.4106e-05 -3.688658e-29)
(0.0004495426 -9.364437e-05 2.106609e-26)
(0.0004778433 -7.245944e-05 -1.146128e-28)
(0.0004372564 -0.0001401164 4.954649e-25)
(0.0004676695 -0.0001204857 3.609134e-23)
(0.0004215982 -0.0001863312 8.938975e-24)
(0.0004540407 -0.0001690842 3.826264e-23)
(0.0004017112 -0.000232727 4.987815e-24)
(0.0004361738 -0.0002170402 2.331466e-26)
(0.0003767966 -0.0002788593 1.559753e-26)
(0.0004137792 -0.0002648278 8.203596e-23)
(0.0003859191 -0.000313651 0)
(0.0003473808 -0.0003230375 -1.12572e-27)
(0.0005066145 -4.986629e-05 0)
(0.0005355401 -2.535063e-05 -8.132701e-29)
(0.0004975187 -9.932762e-05 2.436451e-26)
(0.0005270043 -7.62616e-05 2.460303e-28)
(0.0004859662 -0.0001488532 5.025075e-26)
(0.0005172189 -0.0001270339 2.521999e-26)
(0.0004705216 -0.0001991087 9.083127e-25)
(0.0005046774 -0.0001784764 2.580923e-26)
(0.0004515503 -0.0002497116 -4.255129e-24)
(0.0004881507 -0.0002312876 3.362925e-23)
(0.0004265247 -0.0003018884 3.411869e-26)
(0.0004673642 -0.0002839857 3.069115e-26)
(0.0004378705 -0.0003391 -9.190646e-27)
(0.0003958937 -0.0003521694 -1.829254e-26)
(0.0005571219 -5.200472e-05 3.949593e-25)
(0.0005872422 -2.614681e-05 -3.044455e-26)
(0.0005481134 -0.000103822 3.757027e-25)
(0.0005783763 -7.884032e-05 5.068554e-28)
(0.000537462 -0.0001562188 8.495381e-28)
(0.0005693321 -0.000131932 -2.87284e-26)
(0.0005236024 -0.0002097699 5.053483e-26)
(0.0005581888 -0.0001864415 0)
(0.0005060435 -0.0002645635 4.86984e-26)
(0.0005432869 -0.0002430381 6.004177e-23)
(0.0004816485 -0.0003228518 -2.006395e-24)
(0.0005242225 -0.0003028424 -1.786305e-27)
(0.0004981975 -0.0003625187 -5.398959e-26)
(0.000451965 -0.0003815448 1.006952e-23)
(0.0006092129 -5.299833e-05 7.985876e-26)
(0.0006398313 -2.625452e-05 5.374733e-24)
(0.0006006047 -0.0001064354 -2.927564e-26)
(0.0006309527 -7.956122e-05 -3.209478e-26)
(0.0005915093 -0.0001614053 -2.958652e-26)
(0.00062337 -0.0001342859 -1.05533e-23)
(0.0005801133 -0.0002188206 3.142905e-26)
(0.0006149204 -0.0001915343 -2.518988e-27)
(0.000564598 -0.0002795014 3.371615e-24)
(0.0006040909 -0.000252166 2.474243e-26)
(0.0005452015 -0.0003425077 -1.572962e-23)
(0.0005889379 -0.0003171715 4.357503e-23)
(0.0005688048 -0.0003842877 -6.575777e-26)
(0.0005181344 -0.0004103092 3.042477e-23)
(0.0006615452 -5.231229e-05 9.804188e-25)
(0.0006915002 -2.559065e-05 -3.300142e-26)
(0.00065404 -0.0001064603 -6.466724e-26)
(0.0006834705 -7.773945e-05 1.864758e-23)
(0.0006475105 -0.0001631873 -3.485326e-26)
(0.0006781793 -0.0001331549 2.65278e-27)
(0.0006401207 -0.0002234744 -7.127397e-24)
(0.0006736031 -0.0001923269 -1.249841e-27)
(0.0006297513 -0.0002879748 -4.020339e-24)
(0.0006679296 -0.0002562374 -4.474032e-26)
(0.000615603 -0.0003567007 3.467605e-24)
(0.0006584329 -0.0003258771 1.36419e-26)
(0.0006449977 -0.000403285 -2.063439e-26)
(0.0005935487 -0.0004340908 -1.308648e-23)
(0.0007124734 -4.973959e-05 3.430425e-26)
(0.0007406128 -2.39045e-05 3.810438e-26)
(0.0007072541 -0.0001030402 -4.597783e-24)
(0.0007342274 -7.361255e-05 -1.12956e-22)
(0.0007044853 -0.0001606294 4.984725e-24)
(0.000732633 -0.0001272913 -3.086866e-23)
(0.0007025629 -0.000223087 -3.672602e-26)
(0.0007333377 -0.0001872021 7.676979e-26)
(0.0006994722 -0.0002919355 -1.395681e-23)
(0.0007352919 -0.0002533733 -9.110154e-24)
(0.0006921226 -0.0003688343 -4.456402e-27)
(0.0007360891 -0.0003274634 2.974662e-26)
(0.0007326029 -0.0004119613 -4.972977e-26)
(0.0006814869 -0.0004526276 1.229377e-25)
(0.0007598609 -4.569861e-05 1.112667e-25)
(0.000784674 -2.106548e-05 -8.747198e-23)
(0.0007579056 -9.574522e-05 -2.467948e-23)
(0.0007810297 -6.649853e-05 7.283019e-26)
(0.0007609467 -0.0001517883 1.106482e-25)
(0.0007841144 -0.0001166422 3.48787e-26)
(0.0007661891 -0.0002148856 3.410408e-26)
(0.0007922537 -0.0001738147 -8.404842e-23)
(0.0007728224 -0.0002855874 -1.852789e-23)
(0.0008031669 -0.0002403348 4.112662e-26)
(0.0007772289 -0.0003663206 -1.419548e-26)
(0.0008163519 -0.0003174018 -4.67205e-23)
(0.0008242823 -0.0004111053 2.408012e-22)
(0.0007717851 -0.0004573333 -6.927848e-23)
(0.0008019421 -3.940693e-05 -3.455655e-24)
(0.0008209837 -1.720726e-05 -1.665223e-27)
(0.0008034514 -8.454391e-05 -2.123094e-28)
(0.0008215601 -5.559078e-05 1.157269e-28)
(0.0008130774 -0.0001355782 1.004733e-27)
(0.0008295328 -0.0001001319 6.202083e-28)
(0.0008285922 -0.0001963019 8.452687e-26)
(0.000846463 -0.0001517749 2.195852e-22)
(0.0008455179 -0.0002670927 1.63068e-25)
(0.0008692494 -0.0002153951 -2.417294e-22)
(0.0008569121 -0.0003507504 -1.020233e-22)
(0.0008928213 -0.0002999707 -3.419407e-22)
(0.0008996609 -0.000415279 -6.897061e-26)
(0.0008479958 -0.0004506032 -5.350365e-22)
(0.0008353416 -3.092127e-05 -4.123222e-26)
(0.0008469315 -1.224407e-05 1.604069e-22)
(0.0008423532 -6.835832e-05 7.658087e-24)
(0.0008527503 -4.128108e-05 3.242078e-28)
(0.0008576302 -0.0001122 -8.879009e-26)
(0.0008666203 -7.6679e-05 1.460659e-27)
(0.0008826159 -0.0001655335 -1.518998e-22)
(0.0008917817 -0.0001214315 -9.068004e-26)
(0.000907186 -0.0002339955 1.174545e-25)
(0.0009243929 -0.0001851497 8.899346e-26)
(0.0009124866 -0.0003230831 -7.03631e-22)
(0.000945769 -0.0002867319 6.266897e-26)
(0.0009378489 -0.000436924 -1.095611e-26)
(0.0008889287 -0.0004318284 6.89875e-26)
(0.0008575543 -2.022146e-05 -4.256212e-26)
(0.0008599905 -6.258407e-06 -4.256792e-26)
(0.0008704096 -4.71971e-05 8.471034e-28)
(0.0008716993 -2.340181e-05 1.8287e-28)
(0.0008933108 -8.041471e-05 3.785158e-23)
(0.000891442 -4.714128e-05 1.726815e-27)
(0.0009204768 -0.0001265803 -2.376545e-22)
(0.0009256093 -8.768332e-05 -4.67498e-26)
(0.0009402576 -0.0001939533 2.711715e-21)
(0.000952492 -0.000165718 6.034603e-26)
(0.0009315401 -0.0002920777 2.416456e-26)
(0.0009636946 -0.0002912148 3.2307e-26)
(0.0009446108 -0.0004726212 8.263565e-31)
(0.0008900109 -0.0004156219 -8.358134e-26)
(0.0008659872 -7.495808e-06 1.825078e-28)
(0.0008581453 5.402209e-07 0)
(0.0008844091 -2.086632e-05 1.764279e-23)
(0.0008751008 -2.068024e-06 1.833367e-28)
(0.0009112998 -4.121241e-05 1.07987e-22)
(0.0008998683 -1.542252e-05 8.930473e-28)
(0.0009338529 -8.561399e-05 5.125437e-27)
(0.0009339484 -6.227594e-05 6.629226e-22)
(0.000933166 -0.000159038 1.517317e-21)
(0.0009469083 -0.0001659971 -1.105188e-21)
(0.0009137318 -0.0002602804 7.734528e-27)
(0.0009363707 -0.000325478 7.479809e-27)
(0.0009222817 -0.000524616 -3.832354e-26)
(0.0008518222 -0.0003884337 -7.796852e-26)
(0.0008582602 6.880891e-06 -6.355264e-31)
(0.0008400415 8.360373e-06 -4.114495e-26)
(0.0008793043 9.905946e-06 -6.350039e-31)
(0.0008605879 2.008505e-05 2.959185e-28)
(0.0009020952 -1.673554e-06 -4.542214e-26)
(0.0008846921 8.640946e-06 4.418717e-26)
(0.0009103491 -5.075291e-05 1.764532e-28)
(0.0009065907 -5.573951e-05 -8.68308e-26)
(0.0008904673 -0.000131349 4.522514e-26)
(0.0009075239 -0.0001882856 5.515044e-26)
(0.0008457012 -0.0002386753 -3.726038e-26)
(0.0008823086 -0.000377733 1.027183e-26)
(0.0008401387 -0.0006138031 4.133816e-21)
(0.0007974165 -0.000373989 -3.80877e-26)
(0.0008323135 2.381874e-05 6.494502e-24)
(0.0008031319 1.698994e-05 2.384603e-22)
(0.0008512575 3.984358e-05 -1.726983e-22)
(0.0008259807 3.771401e-05 2.930495e-28)
(0.0008596205 2.608285e-05 3.404348e-27)
(0.0008420718 1.422812e-05 -6.734956e-22)
(0.0008510677 -2.556538e-05 4.31476e-21)
(0.0008429263 -7.752139e-05 1.229576e-21)
(0.0008104176 -0.0001133549 1.970485e-26)
(0.0008404011 -0.000233557 -2.716635e-27)
(0.0007478313 -0.0002213417 6.612556e-21)
(0.0007924548 -0.0004519123 -5.808065e-26)
(0.0007424163 -0.000709723 -1.037984e-20)
(0.0006644629 -0.0003520951 4.45682e-27)
(0.0007840081 4.180338e-05 -3.875659e-26)
(0.0007459046 2.389688e-05 -3.872201e-26)
(0.0007952679 6.271225e-05 8.019839e-26)
(0.0007650008 4.459591e-05 3.075925e-31)
(0.0007877166 4.211554e-05 4.160483e-26)
(0.0007704175 -1.514192e-07 -9.389403e-22)
(0.0007576522 -1.816196e-05 -5.148195e-26)
(0.0007603834 -0.0001206157 -5.211916e-27)
(0.0007090273 -0.0001136473 -1.067269e-20)
(0.0007286705 -0.000312046 -1.191839e-26)
(0.0006358904 -0.0002287664 -3.151684e-20)
(0.0006730267 -0.0005565059 -8.442579e-26)
(0.0006549162 -0.0008207927 -1.218863e-25)
(0.0005235067 -0.0003705194 -5.489903e-26)
(0.0007112962 5.531416e-05 5.623314e-31)
(0.0006675456 2.523343e-05 7.520384e-29)
(0.0007109663 7.368775e-05 3.546216e-26)
(0.000677409 3.647018e-05 7.824776e-29)
(0.0006894462 4.596395e-05 6.882555e-26)
(0.0006737794 -3.263276e-05 3.546696e-26)
(0.0006432273 -2.367267e-05 3.342181e-26)
(0.0006556401 -0.0001820149 -2.263909e-21)
(0.0005702169 -0.0001282274 -1.521357e-26)
(0.0006145597 -0.0004015482 -5.73645e-27)
(0.000475956 -0.000257147 -1.054103e-20)
(0.0005479811 -0.0006767452 -1.516772e-26)
(0.0004604726 -0.0009959275 -6.986124e-21)
(0.0003844896 -0.0004007212 -5.175596e-20)
(0.000616905 5.917261e-05 -8.636326e-23)
(0.0005712407 2.001691e-05 7.567885e-29)
(0.0006038671 7.019364e-05 7.791339e-29)
(0.0005715809 1.281316e-05 7.92452e-29)
(0.0005701219 3.406538e-05 -2.69991e-27)
(0.0005590838 -8.044542e-05 -4.592946e-26)
(0.0005127684 -4.698751e-05 -3.03386e-21)
(0.0005354126 -0.0002574413 2.708626e-21)
(0.000428041 -0.0001642935 -5.726361e-27)
(0.0004884549 -0.000507493 -1.283238e-26)
(0.000316568 -0.0003065787 7.759037e-27)
(0.0004151921 -0.0008151252 -8.213934e-32)
(0.0003173411 -0.001164852 7.787917e-27)
(0.0001889565 -0.0004674352 1.152839e-25)