/*--------------------------------*- C++ -*----------------------------------*\
| =========                 |                                                 |
| \\      /  F ield         | OpenFOAM: The Open Source CFD Toolbox           |
|  \\    /   O peration     | Version:  2206                                  |
|   \\  /    A nd           | Website:  www.openfoam.com                      |
|    \\/     M anipulation  |                                                 |
\*---------------------------------------------------------------------------*/
FoamFile
{
    version     2.0;
    format      ascii;
    arch        "LSB;label=32;scalar=64";
    class       surfaceVectorField;
    location    "2.6";
    object      Ufb_0;
}
// * * * * * * * * * * * * * * * * * * * * * * * * * * * * * * * * * * * * * //

dimensions      [0 1 -1 0 0 0 0];

internalField   nonuniform List<vector> 
26037
(
(-3.428623e-06 0.0001069915 1.323311e-21)
(4.345732e-05 1.916492e-05 -2.995159e-27)
(-3.776598e-06 4.957411e-05 -4.681525e-23)
(1.194654e-05 5.442986e-05 3.449515e-24)
(-3.241433e-06 1.928245e-05 1.751968e-27)
(2.036011e-06 3.225352e-05 1.755947e-27)
(-3.104599e-06 8.066535e-06 2.783941e-28)
(-2.346903e-06 1.54518e-05 0)
(-3.150759e-06 3.363517e-06 8.249125e-24)
(-2.549986e-06 6.470885e-06 2.779728e-28)
(-3.351641e-06 -4.479845e-08 2.87098e-28)
(-2.740503e-06 1.910987e-06 -6.506785e-27)
(-3.106217e-06 -1.391026e-06 1.075876e-28)
(-3.635161e-06 -2.891006e-06 2.562807e-24)
(1.852669e-05 6.434412e-05 -1.541485e-29)
(8.942272e-05 1.03936e-05 2.221617e-27)
(4.695489e-06 3.938444e-05 -1.556301e-29)
(3.146285e-05 3.590213e-05 -1.188504e-27)
(5.931223e-07 1.862064e-05 0)
(8.991661e-06 2.489056e-05 -4.499122e-28)
(-1.40738e-06 8.82794e-06 -3.881626e-31)
(1.85477e-06 1.302289e-05 -6.684119e-28)
(-1.944056e-06 3.587563e-06 -3.134903e-31)
(-2.662506e-07 6.152529e-06 9.37429e-26)
(-2.449856e-06 -1.031544e-07 5.955564e-31)
(-1.389782e-06 1.776333e-06 7.454247e-32)
(-2.203476e-06 -1.562653e-06 8.067105e-27)
(-2.972522e-06 -3.052282e-06 4.353376e-29)
(5.038703e-05 2.881967e-05 1.042715e-27)
(4.689529e-05 7.820915e-06 1.929651e-22)
(1.988182e-05 2.250214e-05 -1.640327e-27)
(2.400291e-05 1.848203e-05 -5.699878e-23)
(6.339361e-06 1.432159e-05 -3.843645e-24)
(1.132547e-05 1.508547e-05 -1.477175e-27)
(1.792727e-06 7.955929e-06 -5.412441e-24)
(5.032965e-06 9.829154e-06 -9.899209e-28)
(-1.166699e-07 3.344162e-06 -2.331899e-28)
(1.903609e-06 5.176534e-06 -1.596667e-25)
(-1.273226e-06 -2.604185e-07 5.124018e-34)
(9.340838e-08 1.359345e-06 0)
(-1.144722e-06 -1.831281e-06 -1.151066e-26)
(-2.146743e-06 -3.219089e-06 -3.504662e-29)
(3.238722e-05 1.416333e-05 -4.365488e-28)
(3.14602e-05 4.916335e-06 1.170136e-27)
(1.785605e-05 1.412245e-05 -2.638619e-27)
(2.061615e-05 1.10279e-05 -2.811082e-23)
(9.005885e-06 1.073359e-05 3.662773e-25)
(1.259763e-05 1.015104e-05 -3.177547e-24)
(4.333285e-06 6.610743e-06 -3.136858e-28)
(7.249186e-06 7.37529e-06 4.902486e-24)
(1.751744e-06 2.761695e-06 5.329372e-30)
(3.851628e-06 4.024134e-06 3.833925e-28)
(7.324657e-08 -5.714939e-07 7.075396e-31)
(1.635657e-06 7.443957e-07 -6.781411e-33)
(5.620937e-08 -2.227829e-06 -5.156674e-29)
(-1.153006e-06 -3.454869e-06 2.190427e-29)
(2.471991e-05 8.342889e-06 -6.455687e-25)
(2.544733e-05 3.305988e-06 2.366021e-30)
(1.684185e-05 9.591089e-06 -6.746801e-25)
(1.924527e-05 7.23459e-06 -6.186392e-28)
(1.067175e-05 7.922523e-06 -1.551121e-27)
(1.3488e-05 7.146179e-06 -9.143937e-28)
(6.395174e-06 5.086182e-06 -3.07875e-25)
(8.975415e-06 5.337957e-06 -9.063428e-27)
(3.522502e-06 1.967943e-06 -6.065521e-25)
(5.672781e-06 2.773481e-06 -1.586719e-24)
(1.529281e-06 -1.059106e-06 -2.850155e-25)
(3.240787e-06 -2.899071e-08 6.597588e-29)
(1.388406e-06 -2.787958e-06 5.336964e-27)
(-8.304738e-09 -3.827779e-06 -5.227417e-29)
(2.1683e-05 5.325603e-06 -6.92297e-30)
(2.249576e-05 2.207038e-06 0)
(1.665291e-05 6.556892e-06 4.47008e-25)
(1.861465e-05 4.800161e-06 -5.128126e-28)
(1.194385e-05 5.624004e-06 -6.183913e-25)
(1.435296e-05 4.843686e-06 -3.347403e-28)
(8.185722e-06 3.522435e-06 3.429439e-25)
(1.054414e-05 3.537492e-06 -2.547379e-28)
(5.280702e-06 9.436359e-07 5.375344e-29)
(7.418401e-06 1.417334e-06 -1.355744e-25)
(3.046981e-06 -1.756796e-06 -3.13079e-25)
(4.899589e-06 -1.01313e-06 6.284571e-29)
(2.827082e-06 -3.539199e-06 4.817598e-29)
(1.265649e-06 -4.388546e-06 3.380889e-25)
(2.027819e-05 3.380432e-06 -5.056206e-28)
(2.107887e-05 1.415947e-06 1.049441e-27)
(1.682501e-05 4.255138e-06 -8.499877e-28)
(1.850552e-05 2.995425e-06 -4.280419e-24)
(1.316614e-05 3.611303e-06 -3.788151e-24)
(1.528734e-05 2.913853e-06 -2.378311e-24)
(9.829404e-06 1.930394e-06 -2.00479e-28)
(1.206835e-05 1.813557e-06 8.416636e-29)
(7.02044e-06 -2.856701e-07 1.802735e-25)
(9.126797e-06 -2.300509e-08 -8.896639e-28)
(4.642802e-06 -2.714336e-06 -4.14628e-30)
(6.579105e-06 -2.222054e-06 -4.405786e-30)
(4.346588e-06 -4.543876e-06 3.594453e-30)
(2.621162e-06 -5.173565e-06 -2.996155e-30)
(1.980348e-05 2.018381e-06 5.582473e-28)
(2.062036e-05 8.330519e-07 8.307099e-24)
(1.729396e-05 2.414413e-06 -9.277936e-28)
(1.880821e-05 1.585659e-06 4.975061e-28)
(1.437219e-05 1.784686e-06 -4.406682e-28)
(1.629231e-05 1.242065e-06 1.161062e-29)
(1.141283e-05 2.994017e-07 -6.107401e-28)
(1.353427e-05 1.438216e-07 -1.751827e-30)
(8.711803e-06 -1.685813e-06 -6.064505e-28)
(1.079754e-05 -1.554792e-06 -1.195138e-24)
(6.281898e-06 -3.925734e-06 9.233216e-26)
(8.261822e-06 -3.602283e-06 3.275202e-30)
(5.910934e-06 -5.812067e-06 3.619305e-30)
(4.066213e-06 -6.232352e-06 -5.752951e-29)
(1.996974e-05 1.008469e-06 9.885661e-28)
(2.085525e-05 3.855089e-07 -6.344717e-24)
(1.805027e-05 8.939217e-07 1.436798e-27)
(1.949004e-05 4.392042e-07 5.141062e-24)
(1.563143e-05 1.085371e-07 2.690817e-25)
(1.744435e-05 -2.530681e-07 1.821964e-24)
(1.298165e-05 -1.341486e-06 -1.344632e-27)
(1.503269e-05 -1.467173e-06 -8.488658e-28)
(1.039152e-05 -3.219977e-06 1.499217e-25)
(1.246976e-05 -3.15608e-06 -1.521268e-24)
(7.919957e-06 -5.349344e-06 3.540727e-30)
(9.955228e-06 -5.145666e-06 3.539636e-30)
(7.506227e-06 -7.290115e-06 0)
(5.572625e-06 -7.564353e-06 1.528526e-28)
(2.064745e-05 2.143262e-07 -4.077304e-29)
(2.164518e-05 2.235668e-08 -1.061028e-27)
(1.90938e-05 -4.07267e-07 1.49472e-27)
(2.054117e-05 -5.358528e-07 1.020831e-27)
(1.701646e-05 -1.449405e-06 -3.59059e-28)
(1.879856e-05 -1.616903e-06 1.482693e-27)
(1.459571e-05 -2.989147e-06 -8.409017e-28)
(1.662836e-05 -3.040472e-06 -2.585927e-24)
(1.209257e-05 -4.867416e-06 -1.330973e-31)
(1.419076e-05 -4.820826e-06 1.847151e-24)
(9.583954e-06 -6.961021e-06 0)
(1.168411e-05 -6.836395e-06 0)
(9.141628e-06 -8.977774e-06 0)
(7.102726e-06 -9.136582e-06 2.141615e-28)
(2.177411e-05 -4.503916e-07 0)
(2.291662e-05 -2.907441e-07 0)
(2.044056e-05 -1.565488e-06 1.008463e-27)
(2.195988e-05 -1.406242e-06 -1.151654e-27)
(1.858238e-05 -2.926813e-06 1.148874e-28)
(2.039985e-05 -2.897898e-06 3.656999e-24)
(1.631187e-05 -4.651158e-06 -9.091446e-28)
(1.838121e-05 -4.598792e-06 7.382583e-29)
(1.385726e-05 -6.617953e-06 2.371722e-31)
(1.601153e-05 -6.552972e-06 -2.229801e-24)
(1.129921e-05 -8.749158e-06 0)
(1.34862e-05 -8.669215e-06 0)
(1.084015e-05 -1.086788e-05 6.805818e-28)
(8.683524e-06 -1.093833e-05 -2.17553e-28)
(2.332099e-05 -1.04169e-06 -1.151175e-27)
(2.463511e-05 -5.76392e-07 0)
(2.211051e-05 -2.641841e-06 -6.424804e-29)
(2.375294e-05 -2.220149e-06 -4.337322e-24)
(2.037649e-05 -4.366809e-06 2.080397e-27)
(2.22894e-05 -4.141259e-06 1.081545e-27)
(1.818361e-05 -6.341781e-06 -9.081778e-26)
(2.033981e-05 -6.171152e-06 3.158019e-24)
(1.573349e-05 -8.4739e-06 -9.036582e-28)
(1.798632e-05 -8.365136e-06 -1.892708e-27)
(1.310138e-05 -1.071145e-05 6.803475e-28)
(1.540649e-05 -1.064875e-05 8.650584e-28)
(1.263427e-05 -1.296274e-05 1.720415e-24)
(1.033836e-05 -1.296829e-05 -2.065625e-26)
(2.528079e-05 -1.599148e-06 -1.251767e-27)
(2.679327e-05 -8.514003e-07 -1.399952e-27)
(2.412439e-05 -3.680684e-06 -4.723195e-27)
(2.593095e-05 -3.015057e-06 -1.251972e-27)
(2.244142e-05 -5.797547e-06 1.074021e-27)
(2.449806e-05 -5.385691e-06 -1.725705e-29)
(2.026364e-05 -8.085719e-06 8.964099e-29)
(2.255856e-05 -7.786424e-06 1.080603e-27)
(1.777135e-05 -1.045055e-05 -1.224147e-28)
(2.01698e-05 -1.027533e-05 -3.120165e-24)
(1.503116e-05 -1.285497e-05 8.656961e-28)
(1.749049e-05 -1.278918e-05 2.498248e-24)
(1.456179e-05 -1.527261e-05 -2.097897e-24)
(1.209788e-05 -1.523191e-05 6.257704e-31)
(2.766167e-05 -2.14274e-06 -1.400222e-27)
(2.939543e-05 -1.127499e-06 -4.985218e-24)
(2.650838e-05 -4.721152e-06 -9.741979e-30)
(2.852129e-05 -3.819937e-06 0)
(2.481529e-05 -7.266471e-06 -3.095284e-26)
(2.706686e-05 -6.667608e-06 -3.380036e-29)
(2.260199e-05 -9.906633e-06 -2.226294e-27)
(2.507507e-05 -9.48852e-06 1.551923e-27)
(2.002052e-05 -1.256956e-05 -1.224271e-27)
(2.261755e-05 -1.228906e-05 -4.125754e-24)
(1.71307e-05 -1.519492e-05 1.447958e-28)
(1.978231e-05 -1.510681e-05 9.688884e-28)
(1.666318e-05 -1.781388e-05 1.053153e-28)
(1.399737e-05 -1.7742e-05 -2.216175e-28)
(3.048503e-05 -2.699375e-06 -1.541853e-27)
(3.246723e-05 -1.411588e-06 -1.541142e-27)
(2.929966e-05 -5.795522e-06 -2.403189e-29)
(3.155412e-05 -4.654017e-06 -1.666166e-27)
(2.754466e-05 -8.812205e-06 -4.388205e-26)
(3.00477e-05 -8.007102e-06 -2.403802e-29)
(2.528325e-05 -1.183321e-05 1.372768e-25)
(2.798875e-05 -1.12772e-05 3.869683e-24)
(2.254584e-05 -1.484562e-05 -8.781303e-28)
(2.541383e-05 -1.44757e-05 -8.307636e-28)
(1.944816e-05 -1.775009e-05 9.295378e-28)
(2.234099e-05 -1.763141e-05 6.411003e-29)
(1.898449e-05 -2.061111e-05 2.951083e-24)
(1.607631e-05 -2.051791e-05 1.690663e-27)
(3.378074e-05 -3.279579e-06 -1.665361e-27)
(3.604055e-05 -1.710933e-06 0)
(3.253218e-05 -6.920179e-06 -1.666502e-27)
(3.506247e-05 -5.536428e-06 -5.570091e-24)
(3.069489e-05 -1.042921e-05 1.534493e-27)
(3.346103e-05 -9.43091e-06 -1.702191e-29)
(2.832083e-05 -1.388839e-05 -5.420119e-26)
(3.127448e-05 -1.317576e-05 1.512321e-27)
(2.535652e-05 -1.731923e-05 1.164962e-28)
(2.852117e-05 -1.685611e-05 5.225998e-29)
(2.20268e-05 -2.055322e-05 -1.071512e-25)
(2.520464e-05 -2.039487e-05 6.408218e-29)
(2.156875e-05 -2.369528e-05 1.124162e-27)
(1.837568e-05 -2.358776e-05 1.210825e-27)
(3.758812e-05 -3.897817e-06 -3.705778e-27)
(4.01588e-05 -2.032003e-06 -2.117523e-27)
(3.62463e-05 -8.126273e-06 -3.725335e-27)
(3.909443e-05 -6.485649e-06 -6.108879e-24)
(3.428003e-05 -1.218297e-05 2.426952e-26)
(3.736652e-05 -1.097233e-05 -5.659935e-29)
(3.173295e-05 -1.613751e-05 -2.416317e-29)
(3.500887e-05 -1.526289e-05 -5.132861e-29)
(2.852822e-05 -2.002087e-05 0)
(3.203002e-05 -1.944541e-05 0)
(2.491682e-05 -2.363526e-05 0)
(2.842759e-05 -2.342667e-05 -1.617039e-27)
(2.446258e-05 -2.710032e-05 -1.986633e-28)
(2.093842e-05 -2.698394e-05 -9.86101e-29)
(4.195597e-05 -4.565011e-06 5.720492e-27)
(4.487394e-05 -2.380028e-06 -6.913293e-24)
(4.049497e-05 -9.431233e-06 7.876906e-26)
(4.370284e-05 -7.516141e-06 -4.394942e-27)
(3.836238e-05 -1.408697e-05 4.326614e-26)
(4.181832e-05 -1.265001e-05 -1.078731e-28)
(3.559755e-05 -1.859059e-05 -2.798494e-29)
(3.924946e-05 -1.754387e-05 -9.079294e-29)
(3.211074e-05 -2.297815e-05 -1.635837e-27)
(3.599801e-05 -2.227852e-05 0)
(2.816893e-05 -2.703233e-05 2.18652e-25)
(3.207011e-05 -2.67567e-05 -5.342373e-24)
(2.77154e-05 -3.086537e-05 -3.115858e-28)
(2.380962e-05 -3.074364e-05 3.097659e-25)
(4.694054e-05 -5.291267e-06 -3.259133e-28)
(5.024601e-05 -2.759942e-06 -5.025423e-27)
(4.533534e-05 -1.08542e-05 9.250593e-26)
(4.894782e-05 -8.642254e-06 -7.433124e-24)
(4.300113e-05 -1.616873e-05 1.249484e-25)
(4.687732e-05 -1.448785e-05 -2.558006e-27)
(3.996827e-05 -2.12806e-05 -6.426726e-29)
(4.405668e-05 -2.005778e-05 -6.323893e-29)
(3.616398e-05 -2.621174e-05 -1.744079e-27)
(4.047249e-05 -2.542991e-05 7.010508e-28)
(3.184236e-05 -3.078596e-05 -1.835566e-27)
(3.62096e-05 -3.037996e-05 -6.714973e-28)
(3.137731e-05 -3.502632e-05 1.425456e-28)
(2.703743e-05 -3.490939e-05 3.723594e-25)
(5.260572e-05 -6.086192e-06 -7.840871e-27)
(5.634272e-05 -3.176247e-06 -8.40006e-24)
(5.083272e-05 -1.241369e-05 -7.675449e-27)
(5.489707e-05 -9.876572e-06 -8.18011e-24)
(4.826904e-05 -1.845843e-05 -2.491541e-27)
(5.261562e-05 -1.650218e-05 -7.823639e-24)
(4.491647e-05 -2.426957e-05 6.946957e-28)
(4.953169e-05 -2.280759e-05 -2.556772e-27)
(4.083134e-05 -2.977527e-05 -2.043499e-24)
(4.564918e-05 -2.885596e-05 8.018783e-28)
(3.602729e-05 -3.492465e-05 -8.335511e-25)
(4.098304e-05 -3.443326e-05 -1.084974e-27)
(3.552535e-05 -3.963638e-05 2.021941e-27)
(3.068105e-05 -3.952435e-05 2.554827e-28)
(5.902172e-05 -6.958422e-06 -7.75452e-28)
(6.323875e-05 -3.633886e-06 -2.983347e-27)
(5.705438e-05 -1.412354e-05 -1.36118e-25)
(6.162189e-05 -1.123359e-05 -9.053536e-24)
(5.422902e-05 -2.096012e-05 -8.114729e-27)
(5.909317e-05 -1.871752e-05 -8.760018e-24)
(5.056715e-05 -2.74925e-05 -2.512914e-25)
(5.568291e-05 -2.582766e-05 -8.365954e-24)
(4.611903e-05 -3.366279e-05 -2.003974e-27)
(5.140954e-05 -3.257563e-05 1.03795e-28)
(4.070156e-05 -3.950057e-05 -3.250648e-28)
(4.626051e-05 -3.893394e-05 -6.754126e-24)
(4.021007e-05 -4.474798e-05 6.547249e-24)
(3.479561e-05 -4.464607e-05 5.173808e-25)
(6.626717e-05 -7.918779e-06 -3.244004e-27)
(7.101819e-05 -4.137824e-06 3.759398e-27)
(6.407712e-05 -1.600831e-05 -1.468936e-25)
(6.920627e-05 -1.272861e-05 -3.244478e-27)
(6.094816e-05 -2.372816e-05 -9.0308e-27)
(6.639982e-05 -2.116194e-05 -3.103683e-27)
(5.690542e-05 -3.109335e-05 -5.937064e-27)
(6.262468e-05 -2.917459e-05 -9.284778e-24)
(5.199545e-05 -3.802527e-05 -2.375712e-27)
(5.78989e-05 -3.675811e-05 3.217626e-27)
(4.599233e-05 -4.457099e-05 -2.383428e-27)
(5.219499e-05 -4.389104e-05 -2.426055e-27)
(4.551264e-05 -5.039609e-05 -7.916405e-24)
(3.945259e-05 -5.033229e-05 -1.463077e-27)
(7.442927e-05 -8.976353e-06 3.760077e-27)
(7.977238e-05 -4.69238e-06 1.127195e-23)
(7.198872e-05 -1.80847e-05 0)
(7.774005e-05 -1.437438e-05 0)
(6.852038e-05 -2.678009e-05 1.018606e-28)
(7.46244e-05 -2.385468e-05 0)
(6.404371e-05 -3.506639e-05 -3.647283e-25)
(7.04435e-05 -3.286805e-05 1.041914e-23)
(5.859337e-05 -4.284441e-05 3.283732e-27)
(6.520549e-05 -4.14066e-05 1.035508e-23)
(5.197331e-05 -5.013905e-05 -2.478913e-27)
(5.886007e-05 -4.945361e-05 -3.130781e-27)
(5.155789e-05 -5.656236e-05 -2.462843e-27)
(4.472901e-05 -5.664106e-05 -4.928428e-27)
(8.360241e-05 -1.01398e-05 8.447933e-27)
(8.960033e-05 -5.301806e-06 1.237312e-23)
(8.088264e-05 -2.036942e-05 0)
(8.732041e-05 -1.618303e-05 2.888582e-29)
(7.704155e-05 -3.01419e-05 3.627314e-27)
(8.386434e-05 -2.681408e-05 4.494444e-27)
(7.209746e-05 -3.945904e-05 3.89444e-25)
(7.92467e-05 -3.692551e-05 3.759823e-27)
(6.603597e-05 -4.824241e-05 3.801183e-27)
(7.350628e-05 -4.649939e-05 1.003597e-23)
(5.890249e-05 -5.633781e-05 -3.150413e-27)
(6.66271e-05 -5.55084e-05 -7.266569e-24)
(5.858641e-05 -6.35027e-05 0)
(5.075958e-05 -6.363957e-05 2.370617e-27)
(9.388746e-05 -1.141719e-05 4.773062e-27)
(0.0001006072 -5.970107e-06 4.741357e-27)
(9.085713e-05 -2.287759e-05 -1.902342e-25)
(9.804982e-05 -1.816703e-05 -5.160821e-27)
(8.660443e-05 -3.382951e-05 4.627123e-27)
(9.421657e-05 -3.006238e-05 1.296576e-23)
(8.115121e-05 -4.425555e-05 -4.662447e-25)
(8.910763e-05 -4.138202e-05 1.319114e-28)
(7.451705e-05 -5.403615e-05 -3.370566e-27)
(8.276061e-05 -5.20852e-05 -1.218686e-23)
(6.676573e-05 -6.306852e-05 -3.638011e-27)
(7.518442e-05 -6.205617e-05 -2.652872e-27)
(6.630262e-05 -7.123112e-05 5.166108e-28)
(5.748204e-05 -7.137155e-05 2.181446e-27)
(0.0001053927 -1.281657e-05 -5.186375e-27)
(0.0001129055 -6.700348e-06 -5.971909e-27)
(0.0001020196 -2.562796e-05 -1.980378e-28)
(0.0001100411 -2.033731e-05 -1.454577e-23)
(9.731553e-05 -3.788125e-05 4.996943e-27)
(0.0001057972 -3.362058e-05 1.059618e-26)
(9.129566e-05 -4.955373e-05 -4.030642e-27)
(0.0001001609 -4.627537e-05 0)
(8.398746e-05 -6.052228e-05 -1.317462e-24)
(9.316942e-05 -5.825545e-05 -4.44875e-27)
(7.544885e-05 -7.065774e-05 -1.958242e-24)
(8.482717e-05 -6.942153e-05 8.93677e-28)
(7.502236e-05 -7.974826e-05 1.093719e-27)
(6.513216e-05 -8.00175e-05 -8.539945e-29)
(0.0001182334 -1.434211e-05 -1.179359e-26)
(0.0001266102 -7.494057e-06 -1.58565e-23)
(0.0001144871 -2.863303e-05 -2.264931e-28)
(0.0001234138 -2.269676e-05 -1.234661e-26)
(0.0001092973 -4.231284e-05 5.603919e-27)
(0.0001187251 -3.750008e-05 1.558723e-23)
(0.0001026731 -5.535691e-05 -4.171507e-28)
(0.0001125279 -5.161848e-05 0)
(9.463461e-05 -6.763344e-05 1.474843e-24)
(0.0001048519 -6.500744e-05 -4.172104e-28)
(8.522519e-05 -7.89907e-05 -2.147339e-24)
(9.56842e-05 -7.754659e-05 -5.096979e-27)
(8.490383e-05 -8.926782e-05 1.719184e-28)
(7.392351e-05 -8.949993e-05 4.03088e-27)
(0.0001325305 -1.598969e-05 -1.321703e-26)
(0.0001418407 -8.343651e-06 -1.420033e-26)
(0.0001283847 -3.189875e-05 -2.39912e-28)
(0.0001382978 -2.524415e-05 -1.758926e-23)
(0.0001226735 -4.713579e-05 6.289419e-27)
(0.000133125 -4.170719e-05 6.284491e-27)
(0.0001154149 -6.168412e-05 0)
(0.0001263377 -5.741935e-05 6.281243e-27)
(0.0001066301 -7.541797e-05 -5.087577e-27)
(0.0001179574 -7.233589e-05 -5.184313e-28)
(9.630617e-05 -8.824573e-05 -5.585191e-27)
(0.0001080418 -8.630586e-05 -1.30597e-23)
(9.661671e-05 -9.927062e-05 3.714321e-24)
(8.454956e-05 -9.998947e-05 1.154564e-23)
(0.0001484039 -1.774061e-05 1.253472e-25)
(0.0001586884 -9.272313e-06 -1.704441e-23)
(0.0001438368 -3.542913e-05 -7.354612e-27)
(0.0001548285 -2.79212e-05 -7.372919e-27)
(0.000137569 -5.235382e-05 6.276105e-27)
(0.0001491183 -4.622535e-05 -8.04166e-27)
(0.0001296368 -6.853408e-05 1.438064e-24)
(0.0001417145 -6.369062e-05 1.874853e-23)
(0.0001200419 -8.379603e-05 -1.138123e-26)
(0.0001325556 -8.029871e-05 -7.544588e-27)
(0.0001087818 -9.789297e-05 -2.507238e-24)
(0.0001216406 -9.586811e-05 -1.966921e-23)
(0.0001088611 -0.0001101428 -2.140451e-23)
(9.589033e-05 -0.0001104413 -9.512131e-24)
(0.0001660098 -1.956461e-05 -8.429668e-27)
(0.0001773902 -1.021576e-05 -8.352922e-27)
(0.000161027 -3.917132e-05 -8.061704e-27)
(0.000173181 -3.079143e-05 0)
(0.00015414 -5.79618e-05 6.214615e-25)
(0.0001668826 -5.1029e-05 -2.09418e-23)
(0.0001455061 -7.595716e-05 2.621199e-28)
(0.0001588408 -7.042083e-05 7.275576e-27)
(0.0001350495 -9.301549e-05 -1.995052e-26)
(0.0001489208 -8.8915e-05 -2.089059e-23)
(0.0001227012 -0.0001089469 -1.874487e-26)
(0.0001370892 -0.0001063905 -2.199395e-23)
(0.0001231835 -0.0001226999 7.722766e-28)
(0.0001083847 -0.0001235094 -1.538146e-26)
(0.0001854212 -2.151861e-05 0)
(0.0001979138 -1.121752e-05 -1.048927e-26)
(0.0001799403 -4.309363e-05 -1.768391e-26)
(0.0001932009 -3.394447e-05 1.006115e-26)
(0.0001725404 -6.392777e-05 -1.761763e-26)
(0.0001865481 -5.594285e-05 -2.328455e-23)
(0.0001632154 -8.389987e-05 -1.577551e-26)
(0.0001778696 -7.749036e-05 0)
(0.0001519541 -0.0001029235 -2.307727e-26)
(0.0001672179 -9.807764e-05 -2.260957e-23)
(0.0001386804 -0.0001208897 -7.502626e-28)
(0.0001545787 -0.0001175928 -7.285195e-27)
(0.0001398653 -0.000135961 1.978905e-23)
(0.0001231936 -0.0001377104 6.656033e-27)
(0.0002066479 -2.370849e-05 3.869691e-25)
(0.0002205053 -1.228311e-05 -2.047139e-23)
(0.0002008332 -4.713702e-05 1.981545e-26)
(0.0002153648 -3.710416e-05 1.940625e-23)
(0.0001930255 -7.001952e-05 9.686497e-27)
(0.0002082843 -6.124583e-05 3.962807e-23)
(0.0001829672 -9.226974e-05 -8.869561e-27)
(0.000199102 -8.462385e-05 2.122926e-26)
(0.000170888 -0.00011339 -8.867466e-27)
(0.0001875776 -0.0001076659 -1.801051e-26)
(0.0001567458 -0.000133431 5.494882e-27)
(0.000174148 -0.0001294337 9.268681e-28)
(0.0001583948 -0.0001499801 4.418565e-27)
(0.0001403739 -0.0001521145 6.01171e-24)
(0.0002300835 -2.580704e-05 -2.899688e-28)
(0.0002450393 -1.333248e-05 -1.16008e-26)
(0.0002237234 -5.134165e-05 4.399728e-26)
(0.0002395295 -4.012889e-05 1.143316e-26)
(0.0002156268 -7.621206e-05 5.432825e-26)
(0.0002321745 -6.650217e-05 1.860743e-23)
(0.0002050588 -0.0001008837 -2.243329e-24)
(0.0002228213 -9.204473e-05 5.049416e-23)
(0.0001920714 -0.0001243853 -8.217838e-27)
(0.00021031 -0.0001175202 -3.174507e-23)
(0.0001770373 -0.0001468345 -2.514001e-24)
(0.0001961459 -0.0001418763 2.955728e-27)
(0.0001794257 -0.0001650258 3.669456e-27)
(0.0001595124 -0.0001679556 5.909283e-24)
(0.0002554055 -2.792089e-05 -2.607441e-25)
(0.0002715367 -1.437147e-05 -1.682759e-30)
(0.00024879 -5.542206e-05 1.278503e-26)
(0.0002655545 -4.320644e-05 -5.408569e-30)
(0.0002403672 -8.233845e-05 -1.505205e-24)
(0.0002578943 -7.156096e-05 2.590569e-26)
(0.000229228 -0.000109417 1.378626e-24)
(0.0002481554 -9.982682e-05 2.997584e-26)
(0.0002158097 -0.0001357329 -1.075277e-26)
(0.000235726 -0.0001270694 -2.134123e-26)
(0.0001999755 -0.0001609194 -5.048984e-24)
(0.0002208763 -0.0001545508 1.15056e-26)
(0.0002033512 -0.0001807526 4.738613e-27)
(0.000181471 -0.0001848828 -5.290409e-24)
(0.0002826466 -2.995857e-05 2.442229e-25)
(0.0002999307 -1.531201e-05 -2.448783e-29)
(0.0002757716 -5.953032e-05 1.306235e-26)
(0.0002935467 -4.604772e-05 -7.609775e-29)
(0.0002669817 -8.884211e-05 4.596523e-25)
(0.0002859882 -7.641314e-05 2.116182e-23)
(0.0002561248 -0.0001178421 7.341407e-24)
(0.0002763504 -0.000106983 2.257085e-23)
(0.000242622 -0.0001467997 3.864623e-24)
(0.0002640996 -0.0001370007 1.447324e-26)
(0.0002259732 -0.00017539 9.470265e-27)
(0.0002489803 -0.0001667217 5.023038e-23)
(0.0002303984 -0.0001968129 0)
(0.0002065604 -0.0002024505 -7.378393e-28)
(0.0003116494 -3.167683e-05 0)
(0.0003299012 -1.605403e-05 -5.382507e-29)
(0.0003046645 -6.299876e-05 1.513559e-26)
(0.0003231313 -4.832765e-05 1.632939e-28)
(0.0002962569 -9.42237e-05 3.128716e-26)
(0.0003157531 -8.038993e-05 1.570233e-26)
(0.000285473 -0.0001258099 7.687797e-26)
(0.0003067462 -0.0001127745 1.610376e-26)
(0.0002724538 -0.0001574387 -5.949301e-24)
(0.0002952423 -0.000145896 1.886178e-23)
(0.0002555831 -0.0001898195 2.164784e-26)
(0.0002810401 -0.0001787364 1.936744e-26)
(0.0002612425 -0.0002127754 -6.06164e-27)
(0.0002352312 -0.000220616 -1.113529e-26)
(0.0003420047 -3.289682e-05 2.415518e-25)
(0.0003609348 -1.647857e-05 -1.886017e-26)
(0.0003349869 -6.563491e-05 3.157491e-25)
(0.0003538523 -4.975541e-05 3.356565e-28)
(0.0003270961 -9.868195e-05 5.630618e-28)
(0.0003468984 -8.324128e-05 -1.775996e-26)
(0.0003172478 -0.0001324097 3.124316e-26)
(0.0003387449 -0.0001176087 0)
(0.0003050733 -0.0001667648 2.994624e-26)
(0.0003282171 -0.0001532231 3.638153e-23)
(0.0002884692 -0.0002030436 5.526665e-25)
(0.0003150305 -0.0001906656 -2.61499e-27)
(0.0002973112 -0.0002276364 -3.583563e-26)
(0.0002685138 -0.0002391377 8.748543e-24)
(0.0003730375 -3.331182e-05 1.739857e-25)
(0.0003921445 -1.642849e-05 9.717124e-24)
(0.0003662102 -6.698265e-05 -1.812489e-26)
(0.0003849707 -4.991363e-05 -1.981026e-26)
(0.0003592978 -0.0001016779 -1.832828e-26)
(0.0003789327 -8.436485e-05 -1.028063e-24)
(0.0003510246 -0.000137953 1.956872e-26)
(0.0003725336 -0.0001205048 -1.674015e-27)
(0.0003401505 -0.0001762063 9.132958e-25)
(0.0003646628 -0.0001587999 1.511947e-26)
(0.0003266712 -0.0002156311 6.574185e-24)
(0.0003539754 -0.0001997068 2.834728e-23)
(0.0003399683 -0.000241563 -4.36748e-26)
(0.0003081721 -0.0002575445 2.579073e-23)
(0.0004037797 -3.258659e-05 8.773551e-25)
(0.0004222427 -1.584766e-05 -2.03814e-26)
(0.0003976292 -6.657204e-05 -3.99547e-26)
(0.0004155553 -4.835889e-05 1.980431e-23)
(0.0003924108 -0.0001023634 -2.165991e-26)
(0.0004110252 -8.311233e-05 1.570109e-27)
(0.0003868089 -0.0001405279 -4.31593e-24)
(0.0004072448 -0.0001204483 -8.315209e-28)
(0.000379328 -0.0001813594 -1.377283e-24)
(0.0004028822 -0.0001609111 -2.808812e-26)
(0.0003693476 -0.0002246512 6.930838e-24)
(0.00039604 -0.0002049696 7.577023e-27)
(0.0003865138 -0.000253688 -1.368432e-26)
(0.0003539931 -0.0002729042 -8.193849e-25)
(0.0004330594 -3.060908e-05 2.109451e-26)
(0.0004500476 -1.458751e-05 2.332246e-26)
(0.0004283788 -6.383124e-05 -3.542455e-24)
(0.0004443808 -4.520385e-05 -9.043662e-23)
(0.0004257152 -0.0001000558 3.49607e-24)
(0.0004423434 -7.864598e-05 -2.837934e-23)
(0.0004238749 -0.0001395852 -2.27609e-26)
(0.0004422242 -0.0001162943 4.725318e-26)
(0.0004213901 -0.0001833055 -8.15293e-24)
(0.000443155 -0.0001581619 -3.082396e-25)
(0.0004161253 -0.0002321258 -2.965677e-27)
(0.0004434248 -0.0002051992 1.796084e-26)
(0.0004407883 -0.0002588337 3.125445e-26)
(0.0004083151 -0.0002849557 1.055681e-27)
(0.0004593706 -2.76438e-05 6.805883e-26)
(0.0004738532 -1.256304e-05 -6.630301e-23)
(0.0004568469 -5.846168e-05 -1.82309e-23)
(0.0004699198 -4.004055e-05 4.452497e-26)
(0.000458125 -9.343698e-05 6.782758e-26)
(0.0004710469 -7.084012e-05 2.125005e-26)
(0.0004612861 -0.0001331936 2.074469e-26)
(0.000476098 -0.0001064888 -7.390056e-23)
(0.0004655894 -0.0001780424 -1.168668e-23)
(0.0004833443 -0.0001483332 2.505446e-26)
(0.0004684299 -0.0002294819 5.130098e-26)
(0.0004923057 -0.00019729 -4.253952e-23)
(0.0004977159 -0.0002575592 -1.850199e-22)
(0.0004641894 -0.0002875088 4.457107e-23)
(0.0004814826 -2.32004e-05 -2.486759e-24)
(0.0004918574 -9.859383e-06 -7.990395e-28)
(0.0004812671 -5.044266e-05 -1.380298e-28)
(0.0004906612 -3.239053e-05 7.380736e-29)
(0.0004870396 -8.177774e-05 6.452401e-28)
(0.0004950371 -5.910396e-05 4.010946e-28)
(0.0004972684 -0.0001196602 5.197991e-26)
(0.0005061012 -9.067826e-05 1.637687e-22)
(0.0005087941 -0.0001642682 1.029403e-25)
(0.0005216476 -0.0001304317 -1.890972e-22)
(0.0005164661 -0.0002176839 5.226735e-26)
(0.0005380035 -0.0001844491 -2.593109e-22)
(0.0005429129 -0.0002601391 5.524865e-22)
(0.0005095339 -0.0002826789 -4.682555e-26)
(0.0004972303 -1.735581e-05 -2.483875e-26)
(0.0005023879 -6.444214e-06 1.113481e-22)
(0.0005006249 -3.913856e-05 5.292921e-24)
(0.000504604 -2.252327e-05 2.093509e-28)
(0.0005102338 -6.529373e-05 -5.427303e-26)
(0.0005129303 -4.287312e-05 9.334665e-28)
(0.0005269075 -9.787279e-05 -1.030487e-22)
(0.0005294566 -6.942553e-05 -5.378169e-26)
(0.0005435486 -0.0001407134 7.623791e-26)
(0.0005516825 -0.0001090921 8.552962e-26)
(0.0005467655 -0.0001983914 -6.818071e-27)
(0.0005668347 -0.0001752909 1.027159e-25)
(0.0005619236 -0.0002756189 -2.699948e-26)
(0.0005291827 -0.0002708493 -1.042127e-21)
(0.0005050478 -1.01117e-05 -2.538199e-26)
(0.0005039097 -2.371151e-06 -2.538545e-26)
(0.000512329 -2.463861e-05 5.367082e-28)
(0.0005099897 -1.038687e-05 1.069295e-28)
(0.0005269672 -4.346902e-05 2.457436e-23)
(0.0005223558 -2.276652e-05 5.617015e-28)
(0.0005448957 -7.105403e-05 3.697726e-26)
(0.0005447216 -4.647301e-05 2.747129e-26)
(0.0005577076 -0.0001138146 1.837403e-21)
(0.0005630276 -9.605535e-05 -5.450081e-22)
(0.0005503988 -0.0001786971 1.137649e-21)
(0.0005709912 -0.0001792825 -2.046105e-21)
(0.0005582967 -0.0003018482 7.92635e-27)
(0.0005201615 -0.0002619766 -1.134143e-26)
(0.0005033709 -1.578763e-06 1.067177e-28)
(0.0004952931 2.175624e-06 0)
(0.0005143313 -6.757779e-06 1.290109e-23)
(0.0005047519 3.931159e-06 -2.513239e-26)
(0.0005314285 -1.67007e-05 -7.58435e-23)
(0.0005205279 -1.659281e-06 2.478141e-29)
(0.0005454709 -4.368831e-05 -2.193634e-22)
(0.0005427073 -3.016393e-05 -4.867971e-22)
(0.0005434487 -9.152042e-05 1.041546e-25)
(0.0005511943 -9.80326e-05 3.00256e-28)
(0.0005278972 -0.000159141 7.944776e-26)
(0.0005438756 -0.0002052854 -1.520026e-21)
(0.0005343137 -0.0003395812 -2.604178e-26)
(0.0004827622 -0.0002469499 -6.472677e-27)
(0.0004908876 7.94274e-06 -2.509637e-26)
(0.0004760505 7.29844e-06 -2.338363e-26)
(0.0005034181 1.367586e-05 -2.536818e-26)
(0.0004877569 1.841489e-05 1.631554e-22)
(0.0005170824 9.267025e-06 2.660321e-26)
(0.0005028118 1.331231e-05 1.428573e-31)
(0.0005201645 -2.136607e-05 1.410436e-28)
(0.0005162 -2.812174e-05 2.537478e-26)
(0.0005036673 -7.440161e-05 3.893283e-27)
(0.0005158302 -0.0001166977 1.342472e-21)
(0.0004700745 -0.0001465222 3.170457e-21)
(0.0004976856 -0.000244867 3.017542e-26)
(0.000467263 -0.0004051111 -2.527412e-26)
(0.0004337291 -0.0002370399 -1.765288e-20)
(0.0004665431 1.898945e-05 4.089462e-24)
(0.0004448099 1.281891e-05 1.46945e-22)
(0.0004771503 3.286994e-05 -2.424352e-26)
(0.0004579792 2.914463e-05 -2.39153e-26)
(0.0004802242 2.600451e-05 -1.40801e-27)
(0.0004671947 1.464746e-05 2.234531e-26)
(0.0004706328 -7.91724e-06 -2.980789e-21)
(0.0004662335 -4.694356e-05 -3.098002e-27)
(0.0004383407 -6.652552e-05 -2.933639e-26)
(0.0004618954 -0.0001523958 -4.471351e-26)
(0.0003905894 -0.0001388645 -2.95819e-30)
(0.0004265288 -0.0003012334 3.150531e-26)
(0.0003896161 -0.0004767322 2.646939e-26)
(0.0003282993 -0.0002267807 4.008177e-27)
(0.0004280148 3.035941e-05 -1.639386e-23)
(0.0004010243 1.693695e-05 -1.58278e-22)
(0.0004328104 4.619661e-05 -1.267117e-22)
(0.0004116632 3.1868e-05 1.958247e-26)
(0.0004240858 3.275044e-05 2.065363e-26)
(0.0004135437 1.421114e-06 -7.116603e-22)
(0.0003987234 -7.921575e-06 -2.35727e-21)
(0.0004037432 -8.142563e-05 -3.04829e-27)
(0.0003593238 -7.253082e-05 7.361981e-21)
(0.0003782891 -0.0002131993 2.287252e-21)
(0.0003016948 -0.0001507529 5.996758e-26)
(0.000336631 -0.0003815497 -3.467419e-21)
(0.0003205932 -0.0005610436 2.288136e-26)
(0.0002161471 -0.0002469203 1.620079e-20)
(0.0003744979 3.819808e-05 3.640729e-23)
(0.0003445679 1.711221e-05 1.536586e-22)
(0.0003710211 5.053232e-05 3.813365e-26)
(0.0003490352 2.385754e-05 -3.87746e-22)
(0.0003515218 3.092784e-05 1.744426e-26)
(0.0003441339 -2.516084e-05 1.913969e-26)
(0.0003132227 -1.794618e-05 -1.643483e-21)
(0.0003280851 -0.0001297609 -1.38215e-27)
(0.0002550621 -9.141303e-05 2.485013e-27)
(0.0002957711 -0.0002831477 -8.480817e-27)
(0.0001806112 -0.0001812729 1.617926e-26)
(0.0002455238 -0.0004752434 -4.214637e-21)
(0.0001826343 -0.0006962511 5.92861e-21)
(0.0001054 -0.0002796223 1.801806e-26)
(0.0003078887 3.927495e-05 1.5707e-26)
(0.0002778786 1.262392e-05 -2.029436e-22)
(0.0002949643 4.460591e-05 2.988964e-22)
(0.0002762425 4.695832e-06 2.170127e-26)
(0.0002659018 1.697116e-05 3.010132e-28)
(0.0002651038 -6.313085e-05 3.054139e-28)
(0.0002187121 -4.239845e-05 8.846632e-27)
(0.0002452739 -0.000189359 -9.847637e-33)
(0.0001504894 -0.0001274596 1.299056e-26)
(0.0002091103 -0.0003668038 -3.509078e-21)
(6.124985e-05 -0.0002305745 6.610635e-27)
(0.000155198 -0.0005841774 2.377635e-27)
(8.158859e-05 -0.0008290079 1.111415e-26)