/*--------------------------------*- C++ -*----------------------------------*\
| =========                 |                                                 |
| \\      /  F ield         | OpenFOAM: The Open Source CFD Toolbox           |
|  \\    /   O peration     | Version:  v2006                                 |
|   \\  /    A nd           | Website:  www.openfoam.com                      |
|    \\/     M anipulation  |                                                 |
\*---------------------------------------------------------------------------*/
FoamFile
{
    version     2.0;
    format      ascii;
    class       volScalarField;
    location    "180";
    object      p;
}
// * * * * * * * * * * * * * * * * * * * * * * * * * * * * * * * * * * * * * //

dimensions      [1 -1 -2 0 0 0 0];


internalField   nonuniform List<scalar> 
120
(
20.848
16.1859
11.5213
6.85382
2.18315
-2.49125
-7.17016
-11.8547
-16.5464
-21.2463
-25.9536
-30.6651
-35.3737
-40.2683
-45.1822
-50.0902
-54.9962
-59.9016
-64.8067
-69.7117
-74.6167
-79.5217
-84.4267
-89.3317
-94.2367
-99.1417
-104.047
-108.952
-113.857
-118.762
-123.667
-128.572
-133.477
-138.382
-143.287
-148.192
-153.097
-158.002
-162.907
-167.812
-172.717
-177.622
-182.527
-187.432
-192.337
-197.242
-202.147
-207.052
-211.957
-216.862
-221.767
-226.672
-231.577
-236.482
-241.387
-246.292
-251.197
-256.102
-261.007
-265.912
-270.817
-275.722
-280.627
-285.532
-290.437
-295.342
-300.247
-305.152
-310.057
-314.962
-319.867
-324.772
-329.677
-334.582
-339.487
-344.392
-349.297
-354.202
-359.107
-364.012
-368.917
-373.822
-378.727
-383.632
-388.537
-393.442
-398.347
-403.252
-408.157
-413.062
-417.967
-422.872
-427.777
-432.682
-437.587
-442.492
-447.397
-452.302
-457.207
-462.112
-467.017
-471.922
-476.826
-481.734
-486.644
-491.552
-496.26
-500.925
-505.583
-510.243
-514.902
-519.562
-524.222
-528.882
-533.541
-538.201
-542.861
-547.521
-552.18
-556.84
)
;

boundaryField
{
    inlet
    {
        type            cyclic;
    }
    outlet
    {
        type            cyclic;
    }
    top
    {
        type            calculated;
        value           uniform -559.17;
    }
    bottom
    {
        type            calculated;
        value           uniform 23.1779;
    }
    frontAndBackPlanes
    {
        type            empty;
    }
}


// ************************************************************************* //
