/*--------------------------------*- C++ -*----------------------------------*\
| =========                 |                                                 |
| \\      /  F ield         | OpenFOAM: The Open Source CFD Toolbox           |
|  \\    /   O peration     | Version:  v2006                                 |
|   \\  /    A nd           | Website:  www.openfoam.com                      |
|    \\/     M anipulation  |                                                 |
\*---------------------------------------------------------------------------*/
FoamFile
{
    version     2.0;
    format      ascii;
    class       volScalarField;
    location    "180";
    object      p_rbgh;
}
// * * * * * * * * * * * * * * * * * * * * * * * * * * * * * * * * * * * * * //

dimensions      [1 -1 -2 0 0 0 0];


internalField   nonuniform List<scalar> 
120
(
23.1779
23.1755
23.1707
23.1629
23.152
23.1374
23.1182
23.0934
23.0615
23.0213
22.9738
22.922
22.8732
22.6384
22.3842
22.1359
21.8896
21.644
21.3987
21.1534
20.9081
20.6629
20.4176
20.1724
19.9271
19.6819
19.4366
19.1914
18.9461
18.7009
18.4556
18.2104
17.9651
17.7199
17.4746
17.2294
16.9841
16.7389
16.4936
16.2484
16.0031
15.7579
15.5126
15.2674
15.0221
14.7769
14.5316
14.2864
14.0411
13.7959
13.5506
13.3054
13.0601
12.8149
12.5696
12.3244
12.0791
11.8339
11.5886
11.3434
11.0981
10.8529
10.6076
10.3624
10.1171
9.87189
9.62664
9.38139
9.13614
8.89089
8.64564
8.40039
8.15514
7.90989
7.66464
7.41939
7.17414
6.92889
6.68364
6.43839
6.19314
5.94789
5.70264
5.45739
5.21214
4.96689
4.72164
4.47639
4.23114
3.98589
3.74064
3.49539
3.25014
3.00489
2.75964
2.51439
2.26914
2.02389
1.77864
1.53339
1.28815
1.04279
0.798183
0.550515
0.299477
0.0519218
0.00356866
-0.00154516
-0.000462291
3.16951e-06
3.64455e-05
1.26439e-06
-2.79724e-06
-2.00176e-07
2.2497e-07
3.9283e-08
-3.25546e-09
9.98445e-09
1.33502e-08
8.75821e-09
)
;

boundaryField
{
    inlet
    {
        type            cyclic;
    }
    outlet
    {
        type            cyclic;
    }
    top
    {
        type            fixedValue;
        value           uniform 0;
    }
    bottom
    {
        type            fixedFluxPressure;
        gradient        uniform 0;
        value           uniform 23.1779;
    }
    frontAndBackPlanes
    {
        type            empty;
    }
}


// ************************************************************************* //
