/*--------------------------------*- C++ -*----------------------------------*\
| =========                 |                                                 |
| \\      /  F ield         | OpenFOAM: The Open Source CFD Toolbox           |
|  \\    /   O peration     | Version:  v2006                                 |
|   \\  /    A nd           | Website:  www.openfoam.com                      |
|    \\/     M anipulation  |                                                 |
\*---------------------------------------------------------------------------*/
FoamFile
{
    version     2.0;
    format      ascii;
    class       surfaceScalarField;
    location    "180";
    object      phia;
}
// * * * * * * * * * * * * * * * * * * * * * * * * * * * * * * * * * * * * * //

dimensions      [0 3 -1 0 0 0 0];
oriented        oriented;


internalField   nonuniform List<scalar> 
119
(
-6.60805e-15
-1.3931e-14
-2.21548e-14
-3.1579e-14
-4.27164e-14
-5.63791e-14
-7.38635e-14
-9.60255e-14
-1.22603e-13
-1.47801e-13
-1.64816e-13
-1.83449e-13
-1.27232e-12
-1.92675e-12
-2.17479e-12
-2.26851e-12
-2.30431e-12
-2.31694e-12
-2.32126e-12
-2.32268e-12
-2.32312e-12
-2.32325e-12
-2.32329e-12
-2.3233e-12
-2.3233e-12
-2.3233e-12
-2.3233e-12
-2.3233e-12
-2.3233e-12
-2.32331e-12
-2.32331e-12
-2.32331e-12
-2.32331e-12
-2.32331e-12
-2.32331e-12
-2.32331e-12
-2.32331e-12
-2.32331e-12
-2.32331e-12
-2.32331e-12
-2.32331e-12
-2.32331e-12
-2.32331e-12
-2.32331e-12
-2.32331e-12
-2.32331e-12
-2.32331e-12
-2.32331e-12
-2.32331e-12
-2.32331e-12
-2.32331e-12
-2.32331e-12
-2.32331e-12
-2.32331e-12
-2.32331e-12
-2.32331e-12
-2.32331e-12
-2.32331e-12
-2.32331e-12
-2.32331e-12
-2.32331e-12
-2.32331e-12
-2.32331e-12
-2.32331e-12
-2.32331e-12
-2.32331e-12
-2.32331e-12
-2.32331e-12
-2.32331e-12
-2.32331e-12
-2.32331e-12
-2.32331e-12
-2.32331e-12
-2.32331e-12
-2.32331e-12
-2.32331e-12
-2.32331e-12
-2.32331e-12
-2.32331e-12
-2.32331e-12
-2.32331e-12
-2.32331e-12
-2.32331e-12
-2.32331e-12
-2.32331e-12
-2.32331e-12
-2.32331e-12
-2.32331e-12
-2.32331e-12
-2.32331e-12
-2.32331e-12
-2.32331e-12
-2.32331e-12
-2.32331e-12
-2.32332e-12
-2.32329e-12
-2.32335e-12
-2.32322e-12
-2.32346e-12
-2.32398e-12
-2.3175e-12
-2.34289e-12
-2.28279e-12
-2.41189e-12
-3.82474e-12
-3.50118e-11
-1.17806e-11
-9.2727e-11
-8.22526e-11
-8.22796e-11
-8.22716e-11
-8.22759e-11
-8.2277e-11
-8.22766e-11
-8.22765e-11
-8.22765e-11
-8.22765e-11
-8.22565e-11
-8.21697e-11
)
;

boundaryField
{
    inlet
    {
        type            cyclic;
        value           nonuniform List<scalar> 
120
(
2.14805e-28
6.43687e-28
1.07092e-27
1.52709e-27
1.98127e-27
2.43604e-27
2.89691e-27
3.44012e-27
4.00996e-27
4.57581e-27
5.12929e-27
5.60274e-27
5.92618e-27
3.96465e-25
2.80246e-25
1.60844e-25
1.11693e-25
1.37778e-25
2.59735e-25
5.28844e-25
1.02645e-24
1.84941e-24
3.07794e-24
4.75172e-24
2.04602e-24
-5.11401e-25
-3.26867e-24
-4.22578e-24
-6.10117e-24
-9.15768e-24
-8.76683e-24
-4.81658e-24
-1.72556e-24
9.4282e-25
3.61411e-24
6.63205e-24
5.4149e-24
-1.36939e-25
-7.93999e-25
-6.41835e-24
-3.05145e-24
-5.16365e-24
-3.35317e-24
-2.42414e-24
-2.32838e-24
-7.78804e-24
-4.44826e-24
-1.58759e-24
5.93252e-24
4.21795e-24
3.02002e-24
2.44609e-24
2.54469e-24
3.27387e-24
4.51934e-24
1.29915e-24
-1.99575e-24
-5.78766e-24
-1.04866e-23
-6.86329e-24
-4.47746e-24
-3.22249e-24
-2.9398e-24
-3.42745e-24
-4.52158e-24
3.47176e-24
1.69522e-24
-3.65973e-25
-2.9268e-24
-6.24614e-24
-1.06151e-23
-6.69636e-24
-3.94498e-24
-2.15623e-24
-1.09371e-24
-5.19841e-25
-2.46744e-25
-1.58177e-25
-2.14721e-25
-4.59318e-25
-1.03333e-24
-2.19986e-24
-4.35556e-24
-8.0024e-24
-1.36591e-23
-2.18114e-23
-1.3659e-23
-8.00225e-24
-4.35516e-24
-2.19861e-24
-1.02938e-24
-4.47366e-25
-1.80764e-25
-6.80505e-26
-2.39252e-26
-7.87555e-27
-2.43343e-27
-7.07587e-28
-1.94092e-28
-5.03585e-29
-1.23776e-29
-2.88612e-30
-6.46191e-31
-1.34793e-31
-3.23373e-32
-1.06871e-32
-9.13377e-33
-6.85247e-33
-5.13157e-33
-3.83933e-33
-2.8716e-33
-2.14503e-33
-1.59848e-33
-1.18597e-33
-8.72659e-34
-6.32186e-34
-4.44318e-34
-2.93301e-34
-1.66575e-34
-5.362e-35
)
;
    }
    outlet
    {
        type            cyclic;
        value           nonuniform List<scalar> 
120
(
-2.14805e-28
-6.43687e-28
-1.07092e-27
-1.52709e-27
-1.98127e-27
-2.43604e-27
-2.89691e-27
-3.44012e-27
-4.00996e-27
-4.57581e-27
-5.12929e-27
-5.60274e-27
-5.92618e-27
-3.96465e-25
-2.80246e-25
-1.60844e-25
-1.11693e-25
-1.37778e-25
-2.59735e-25
-5.28844e-25
-1.02645e-24
-1.84941e-24
-3.07794e-24
-4.75172e-24
-2.04602e-24
5.11401e-25
3.26867e-24
4.22578e-24
6.10117e-24
9.15768e-24
8.76683e-24
4.81658e-24
1.72556e-24
-9.4282e-25
-3.61411e-24
-6.63205e-24
-5.4149e-24
1.36939e-25
7.93999e-25
6.41835e-24
3.05145e-24
5.16365e-24
3.35317e-24
2.42414e-24
2.32838e-24
7.78804e-24
4.44826e-24
1.58759e-24
-5.93252e-24
-4.21795e-24
-3.02002e-24
-2.44609e-24
-2.54469e-24
-3.27387e-24
-4.51934e-24
-1.29915e-24
1.99575e-24
5.78766e-24
1.04866e-23
6.86329e-24
4.47746e-24
3.22249e-24
2.9398e-24
3.42745e-24
4.52158e-24
-3.47176e-24
-1.69522e-24
3.65973e-25
2.9268e-24
6.24614e-24
1.06151e-23
6.69636e-24
3.94498e-24
2.15623e-24
1.09371e-24
5.19841e-25
2.46744e-25
1.58177e-25
2.14721e-25
4.59318e-25
1.03333e-24
2.19986e-24
4.35556e-24
8.0024e-24
1.36591e-23
2.18114e-23
1.3659e-23
8.00225e-24
4.35516e-24
2.19861e-24
1.02938e-24
4.47366e-25
1.80764e-25
6.80505e-26
2.39252e-26
7.87555e-27
2.43343e-27
7.07587e-28
1.94092e-28
5.03585e-29
1.23776e-29
2.88612e-30
6.46191e-31
1.34793e-31
3.23373e-32
1.06871e-32
9.13377e-33
6.85247e-33
5.13157e-33
3.83933e-33
2.8716e-33
2.14503e-33
1.59848e-33
1.18597e-33
8.72659e-34
6.32186e-34
4.44318e-34
2.93301e-34
1.66575e-34
5.362e-35
)
;
    }
    top
    {
        type            fixedValue;
        value           uniform 0;
    }
    bottom
    {
        type            fixedValue;
        value           uniform 0;
    }
    frontAndBackPlanes
    {
        type            empty;
        value           nonuniform List<scalar> 0();
    }
}


// ************************************************************************* //
