/*--------------------------------*- C++ -*----------------------------------*\
| =========                 |                                                 |
| \\      /  F ield         | OpenFOAM: The Open Source CFD Toolbox           |
|  \\    /   O peration     | Version:  v2006                                 |
|   \\  /    A nd           | Website:  www.openfoam.com                      |
|    \\/     M anipulation  |                                                 |
\*---------------------------------------------------------------------------*/
FoamFile
{
    version     2.0;
    format      ascii;
    class       surfaceScalarField;
    location    "180";
    object      phib;
}
// * * * * * * * * * * * * * * * * * * * * * * * * * * * * * * * * * * * * * //

dimensions      [0 3 -1 0 0 0 0];
oriented        oriented;


internalField   nonuniform List<scalar> 
119
(
9.56181e-15
2.01248e-14
3.19464e-14
4.5443e-14
6.13273e-14
8.07244e-14
1.05421e-13
1.36547e-13
1.73628e-13
2.08354e-13
2.30721e-13
2.4602e-13
1.52327e-12
2.06956e-12
2.23171e-12
2.28997e-12
2.31195e-12
2.31952e-12
2.3221e-12
2.32294e-12
2.32321e-12
2.32328e-12
2.32331e-12
2.32331e-12
2.32331e-12
2.32331e-12
2.32331e-12
2.32331e-12
2.32331e-12
2.32331e-12
2.32331e-12
2.32331e-12
2.32331e-12
2.32331e-12
2.32331e-12
2.32331e-12
2.32331e-12
2.32331e-12
2.32331e-12
2.32331e-12
2.32331e-12
2.32331e-12
2.32331e-12
2.32331e-12
2.32331e-12
2.32331e-12
2.32331e-12
2.32331e-12
2.32331e-12
2.32331e-12
2.32331e-12
2.32331e-12
2.32331e-12
2.32331e-12
2.32331e-12
2.32331e-12
2.32331e-12
2.32331e-12
2.32331e-12
2.32331e-12
2.32331e-12
2.32331e-12
2.32331e-12
2.32331e-12
2.32331e-12
2.32331e-12
2.32331e-12
2.32331e-12
2.32331e-12
2.32331e-12
2.32331e-12
2.32331e-12
2.32331e-12
2.32331e-12
2.32331e-12
2.32331e-12
2.32331e-12
2.32331e-12
2.32331e-12
2.32332e-12
2.32332e-12
2.32332e-12
2.32332e-12
2.32332e-12
2.32332e-12
2.32332e-12
2.32332e-12
2.32332e-12
2.32332e-12
2.32332e-12
2.32332e-12
2.32332e-12
2.32332e-12
2.32332e-12
2.32333e-12
2.32331e-12
2.32335e-12
2.32327e-12
2.3234e-12
2.32371e-12
2.31983e-12
2.33637e-12
2.29152e-12
2.3442e-12
2.98713e-12
8.66721e-12
1.04032e-14
3.68621e-16
1.49482e-17
1.86086e-17
2.10707e-17
2.49401e-17
2.77331e-17
3.18156e-17
3.33906e-17
3.56963e-17
3.53405e-17
3.5914e-17
3.35766e-17
)
;

boundaryField
{
    inlet
    {
        type            cyclic;
        value           nonuniform List<scalar> 
120
(
2.14804e-28
6.43564e-28
1.04473e-27
1.52697e-27
1.98127e-27
2.43516e-27
2.70939e-27
3.44078e-27
4.32527e-27
4.57796e-27
5.13276e-27
6.08445e-27
8.25165e-27
3.96448e-25
2.80246e-25
1.60847e-25
1.11696e-25
1.37781e-25
2.59741e-25
5.28853e-25
1.02646e-24
1.84943e-24
3.07796e-24
4.72986e-24
2.04603e-24
-5.11406e-25
-3.25775e-24
-4.22582e-24
-6.10122e-24
-9.13586e-24
-8.745e-24
-4.81661e-24
-1.72558e-24
9.42819e-25
3.61412e-24
6.6102e-24
5.39305e-24
-1.15069e-25
-8.15866e-25
-6.37463e-24
-3.07334e-24
-5.14182e-24
-3.3532e-24
-2.42418e-24
-2.35027e-24
-7.74433e-24
-4.44827e-24
-1.56573e-24
5.88879e-24
4.21796e-24
3.02004e-24
2.44611e-24
2.54471e-24
3.27389e-24
4.49748e-24
1.29914e-24
-1.99577e-24
-5.78769e-24
-1.04429e-23
-6.86333e-24
-4.4775e-24
-3.22253e-24
-2.93983e-24
-3.42747e-24
-4.47787e-24
3.42801e-24
1.69521e-24
-3.65992e-25
-2.92683e-24
-6.24617e-24
-1.05714e-23
-6.6964e-24
-3.94502e-24
-2.15626e-24
-1.09373e-24
-5.19853e-25
-2.46752e-25
-1.58182e-25
-2.14728e-25
-4.59331e-25
-1.03335e-24
-2.19989e-24
-4.35562e-24
-8.00248e-24
-1.36592e-23
-2.17241e-23
-1.36591e-23
-8.00233e-24
-4.35522e-24
-2.19865e-24
-1.0294e-24
-4.47379e-25
-1.8077e-25
-6.80532e-26
-2.39263e-26
-7.87597e-27
-2.43357e-27
-7.07636e-28
-1.94106e-28
-5.03626e-29
-1.23788e-29
-2.8864e-30
-6.46259e-31
-1.34808e-31
-3.23408e-32
-1.06887e-32
-9.13299e-33
-6.8488e-33
-5.1295e-33
-3.83958e-33
-2.87178e-33
-2.14514e-33
-1.59858e-33
-1.18604e-33
-8.72719e-34
-6.32225e-34
-4.44339e-34
-2.93324e-34
-1.66593e-34
-5.36276e-35
)
;
    }
    outlet
    {
        type            cyclic;
        value           nonuniform List<scalar> 
120
(
-2.14804e-28
-6.43564e-28
-1.04473e-27
-1.52697e-27
-1.98127e-27
-2.43516e-27
-2.70939e-27
-3.44078e-27
-4.32527e-27
-4.57796e-27
-5.13276e-27
-6.08445e-27
-8.25165e-27
-3.96448e-25
-2.80246e-25
-1.60847e-25
-1.11696e-25
-1.37781e-25
-2.59741e-25
-5.28853e-25
-1.02646e-24
-1.84943e-24
-3.07796e-24
-4.72986e-24
-2.04603e-24
5.11406e-25
3.25775e-24
4.22582e-24
6.10122e-24
9.13586e-24
8.745e-24
4.81661e-24
1.72558e-24
-9.42819e-25
-3.61412e-24
-6.6102e-24
-5.39305e-24
1.15069e-25
8.15866e-25
6.37463e-24
3.07334e-24
5.14182e-24
3.3532e-24
2.42418e-24
2.35027e-24
7.74433e-24
4.44827e-24
1.56573e-24
-5.88879e-24
-4.21796e-24
-3.02004e-24
-2.44611e-24
-2.54471e-24
-3.27389e-24
-4.49748e-24
-1.29914e-24
1.99577e-24
5.78769e-24
1.04429e-23
6.86333e-24
4.4775e-24
3.22253e-24
2.93983e-24
3.42747e-24
4.47787e-24
-3.42801e-24
-1.69521e-24
3.65992e-25
2.92683e-24
6.24617e-24
1.05714e-23
6.6964e-24
3.94502e-24
2.15626e-24
1.09373e-24
5.19853e-25
2.46752e-25
1.58182e-25
2.14728e-25
4.59331e-25
1.03335e-24
2.19989e-24
4.35562e-24
8.00248e-24
1.36592e-23
2.17241e-23
1.36591e-23
8.00233e-24
4.35522e-24
2.19865e-24
1.0294e-24
4.47379e-25
1.8077e-25
6.80532e-26
2.39263e-26
7.87597e-27
2.43357e-27
7.07636e-28
1.94106e-28
5.03626e-29
1.23788e-29
2.8864e-30
6.46259e-31
1.34808e-31
3.23408e-32
1.06887e-32
9.13299e-33
6.8488e-33
5.1295e-33
3.83958e-33
2.87178e-33
2.14514e-33
1.59858e-33
1.18604e-33
8.72719e-34
6.32225e-34
4.44339e-34
2.93324e-34
1.66593e-34
5.36276e-35
)
;
    }
    top
    {
        type            fixedValue;
        value           uniform 0;
    }
    bottom
    {
        type            fixedValue;
        value           uniform 0;
    }
    frontAndBackPlanes
    {
        type            empty;
        value           nonuniform List<scalar> 0();
    }
}


// ************************************************************************* //
