/*--------------------------------*- C++ -*----------------------------------*\
| =========                 |                                                 |
| \\      /  F ield         | OpenFOAM: The Open Source CFD Toolbox           |
|  \\    /   O peration     | Version:  v2006                                 |
|   \\  /    A nd           | Website:  www.openfoam.com                      |
|    \\/     M anipulation  |                                                 |
\*---------------------------------------------------------------------------*/
FoamFile
{
    version     2.0;
    format      ascii;
    class       volTensorField;
    location    "180";
    object      Taua;
}
// * * * * * * * * * * * * * * * * * * * * * * * * * * * * * * * * * * * * * //

dimensions      [1 -1 -2 0 0 0 0];


internalField   nonuniform List<tensor> 
120
(
(0.012933 0 0 -3.00472e-15 -0.0258661 0 0 0 0.012933)
(0.0141499 0 0 -2.9964e-15 -0.0282998 0 0 0 0.0141499)
(0.0159845 0 0 -3.09192e-15 -0.0319691 0 0 0 0.0159845)
(0.0183103 0 0 -3.18624e-15 -0.0366207 0 0 0 0.0183103)
(0.021606 0 0 -3.18133e-15 -0.043212 0 0 0 0.021606)
(0.0267017 0 0 -3.20473e-15 -0.0534033 0 0 0 0.0267017)
(0.0343154 0 0 -3.51426e-15 -0.0686308 0 0 0 0.0343154)
(0.0433864 0 0 -3.89567e-15 -0.0867728 0 0 0 0.0433864)
(0.0481915 0 0 -3.80474e-15 -0.0963831 0 0 0 0.0481915)
(0.0351694 0 0 -2.8893e-15 -0.0703388 0 0 0 0.0351694)
(0.0244244 0 0 -2.30312e-15 -0.0488487 0 0 0 0.0244244)
(0.011962 0 0 -6.89562e-16 -0.0239239 0 0 0 0.011962)
(2.03731e-06 0 0 -7.70842e-19 -4.07462e-06 0 0 0 2.03731e-06)
(5.35382e-07 0 0 -5.053e-19 -1.07076e-06 0 0 0 5.35382e-07)
(-9.62739e-07 0 0 4.20126e-19 1.92548e-06 0 0 0 -9.62739e-07)
(4.67452e-07 0 0 2.97015e-19 -9.34904e-07 0 0 0 4.67452e-07)
(1.60561e-07 0 0 4.04667e-20 -3.21121e-07 0 0 0 1.60561e-07)
(4.847e-08 0 0 -2.5929e-19 -9.694e-08 0 0 0 4.847e-08)
(1.89456e-08 0 0 -6.84552e-19 -3.78911e-08 0 0 0 1.89456e-08)
(6.51211e-09 0 0 -1.34186e-18 -1.30242e-08 0 0 0 6.51211e-09)
(2.07028e-09 0 0 -2.31106e-18 -4.14055e-09 0 0 0 2.07028e-09)
(6.41277e-10 0 0 -3.59014e-18 -1.28255e-09 0 0 0 6.41277e-10)
(1.88969e-10 0 0 -5.07904e-18 -3.77939e-10 0 0 0 1.88969e-10)
(5.15518e-11 0 0 1.80586e-18 -1.03104e-10 0 0 0 5.15518e-11)
(1.33722e-11 0 0 9.21046e-18 -2.67445e-11 0 0 0 1.33722e-11)
(2.8603e-12 0 0 9.30071e-18 -5.72059e-12 0 0 0 2.8603e-12)
(1.43288e-12 0 0 6.50017e-18 -2.86575e-12 0 0 0 1.43288e-12)
(2.04813e-14 0 0 4.95689e-18 -4.09625e-14 0 0 0 2.04813e-14)
(3.00506e-13 0 0 8.63083e-18 -6.01012e-13 0 0 0 3.00506e-13)
(1.17393e-13 0 0 4.6649e-18 -2.34787e-13 0 0 0 1.17393e-13)
(8.29463e-13 0 0 -7.59693e-18 -1.65893e-12 0 0 0 8.29463e-13)
(2.0049e-13 0 0 -1.23222e-17 -4.00979e-13 0 0 0 2.0049e-13)
(3.47273e-13 0 0 -1.0079e-17 -6.94547e-13 0 0 0 3.47273e-13)
(1.51844e-13 0 0 -9.34443e-18 -3.03689e-13 0 0 0 1.51844e-13)
(6.20993e-13 0 0 -9.95615e-18 -1.24199e-12 0 0 0 6.20993e-13)
(2.89626e-13 1.17803e-21 0 -3.15138e-18 -5.79252e-13 0 0 0 2.89626e-13)
(4.3345e-13 0 0 1.18457e-17 -8.669e-13 0 0 0 4.3345e-13)
(2.94277e-13 0 0 1.08656e-17 -5.88553e-13 0 0 0 2.94277e-13)
(4.64643e-13 0 0 1.09925e-17 -9.29287e-13 0 0 0 4.64643e-13)
(2.51095e-13 0 0 3.95054e-18 -5.02191e-13 0 0 0 2.51095e-13)
(2.76686e-13 0 0 -2.19571e-18 -5.53372e-13 0 0 0 2.76686e-13)
(1.99499e-13 0 0 5.28002e-19 -3.98999e-13 0 0 0 1.99499e-13)
(2.97654e-13 0 0 -4.79415e-18 -5.95307e-13 0 0 0 2.97654e-13)
(1.98244e-13 0 0 -1.79338e-18 -3.96489e-13 0 0 0 1.98244e-13)
(2.14999e-13 0 0 9.38683e-18 -4.29997e-13 0 0 0 2.14999e-13)
(1.60433e-13 0 0 3.70979e-18 -3.20866e-13 0 0 0 1.60433e-13)
(1.75257e-13 0 0 -1.08508e-17 -3.50513e-13 0 0 0 1.75257e-13)
(1.18482e-13 0 0 -1.81664e-17 -2.36964e-13 0 0 0 1.18482e-13)
(1.10415e-13 0 0 -1.01597e-17 -2.20829e-13 0 0 0 1.10415e-13)
(8.74409e-14 0 0 5.09687e-18 -1.74882e-13 0 0 0 8.74409e-14)
(9.6375e-14 0 0 3.10076e-18 -1.9275e-13 0 0 0 9.6375e-14)
(7.25433e-14 0 0 8.31834e-19 -1.45087e-13 0 0 0 7.25433e-14)
(6.82195e-14 0 0 -1.44862e-18 -1.36439e-13 0 0 0 6.82195e-14)
(5.394e-14 0 0 -3.45564e-18 -1.0788e-13 0 0 0 5.394e-14)
(5.01045e-14 0 0 3.45577e-18 -1.00209e-13 0 0 0 5.01045e-14)
(3.7044e-14 0 0 1.14014e-17 -7.4088e-14 0 0 0 3.7044e-14)
(2.96619e-14 0 0 1.24019e-17 -5.93237e-14 0 0 0 2.96619e-14)
(2.4886e-14 0 0 1.4859e-17 -4.97721e-14 0 0 0 2.4886e-14)
(2.33897e-14 -1.17803e-21 0 1.88235e-18 -4.67794e-14 0 0 0 2.33897e-14)
(2.13665e-14 0 0 -1.0516e-17 -4.27329e-14 0 0 0 2.13665e-14)
(1.71701e-14 0 0 -6.3714e-18 -3.43402e-14 0 0 0 1.71701e-14)
(1.86991e-14 0 0 -2.6909e-18 -3.73982e-14 0 0 0 1.86991e-14)
(1.46138e-14 0 0 3.58684e-19 -2.92275e-14 0 0 0 1.46138e-14)
(1.25438e-14 0 0 2.76811e-18 -2.50876e-14 0 0 0 1.25438e-14)
(-2.93229e-15 0 0 -1.20736e-17 5.86459e-15 0 0 0 -2.93229e-15)
(2.78882e-15 0 0 -1.08794e-17 -5.57764e-15 0 0 0 2.78882e-15)
(-4.51525e-15 0 0 6.71603e-18 9.0305e-15 0 0 0 -4.51525e-15)
(1.48135e-14 0 0 8.08855e-18 -2.96269e-14 0 0 0 1.48135e-14)
(-3.15262e-15 0 0 1.02903e-17 6.30525e-15 0 0 0 -3.15262e-15)
(2.76133e-14 0 0 1.34545e-17 -5.52266e-14 0 0 0 2.76133e-14)
(6.6488e-15 0 0 7.87879e-19 -1.32976e-14 0 0 0 6.6488e-15)
(1.79934e-14 0 0 -1.16727e-17 -3.59868e-14 0 0 0 1.79934e-14)
(-6.59582e-14 0 0 -7.94522e-18 1.31916e-13 0 0 0 -6.59582e-14)
(-2.0137e-14 0 0 -4.98973e-18 4.0274e-14 0 0 0 -2.0137e-14)
(-6.50302e-14 0 0 -2.86368e-18 1.3006e-13 0 0 0 -6.50302e-14)
(4.02308e-14 0 0 -1.48219e-18 -8.04616e-14 0 0 0 4.02308e-14)
(-6.69995e-14 0 0 -6.32912e-19 1.33999e-13 0 0 0 -6.69995e-14)
(9.55678e-14 0 0 -5.60406e-20 -1.91136e-13 0 0 0 9.55678e-14)
(-8.06399e-15 0 0 5.26998e-19 1.6128e-14 0 0 0 -8.06399e-15)
(5.89923e-14 0 0 1.43256e-18 -1.17985e-13 0 0 0 5.89923e-14)
(-3.11361e-13 0 0 3.04594e-18 6.22721e-13 0 0 0 -3.11361e-13)
(-1.08367e-13 0 0 5.81391e-18 2.16733e-13 0 0 0 -1.08367e-13)
(-2.64049e-13 0 0 1.01545e-17 5.28098e-13 0 0 0 -2.64049e-13)
(9.2546e-14 0 0 1.62812e-17 -1.85092e-13 0 0 0 9.2546e-14)
(-3.04367e-13 0 0 2.41658e-17 6.08734e-13 0 0 0 -3.04367e-13)
(2.47797e-13 0 0 -1.36649e-22 -4.95593e-13 0 0 0 2.47797e-13)
(-4.89994e-15 0 0 -2.41661e-17 9.79988e-15 0 0 0 -4.89994e-15)
(1.41087e-13 0 0 -1.62817e-17 -2.82173e-13 0 0 0 1.41087e-13)
(-8.66212e-13 0 0 -1.01564e-17 1.73242e-12 0 0 0 -8.66212e-13)
(-2.61145e-13 0 0 -5.82012e-18 5.22289e-13 0 0 0 -2.61145e-13)
(-1.16264e-12 0 0 -3.06467e-18 2.32528e-12 0 0 0 -1.16264e-12)
(5.3834e-13 0 0 -1.48507e-18 -1.07668e-12 0 0 0 5.3834e-13)
(-8.97003e-13 0 0 -6.63802e-19 1.79401e-12 0 0 0 -8.97003e-13)
(3.15194e-11 0 0 -2.74468e-19 -6.30389e-11 0 0 0 3.15194e-11)
(-1.78134e-10 0 0 -1.05306e-19 3.56267e-10 0 0 0 -1.78134e-10)
(2.1728e-10 0 0 -3.76105e-20 -4.3456e-10 0 0 0 2.1728e-10)
(5.24182e-10 0 0 -1.2544e-20 -1.04836e-09 0 0 0 5.24182e-10)
(3.07804e-09 0 0 -3.9188e-21 -6.15607e-09 0 0 0 3.07804e-09)
(-2.67617e-08 0 0 -1.15018e-21 5.35234e-08 0 0 0 -2.67617e-08)
(5.15698e-09 0 0 -3.1798e-22 -1.0314e-08 0 0 0 5.15698e-09)
(3.36887e-07 0 0 -8.30714e-23 -6.73775e-07 0 0 0 3.36887e-07)
(-4.42085e-07 0 0 -2.05518e-23 8.8417e-07 0 0 0 -4.42085e-07)
(-2.8319e-06 0 0 -4.79626e-24 5.6638e-06 0 0 0 -2.8319e-06)
(3.33166e-06 0 0 -1.08248e-24 -6.66333e-06 0 0 0 3.33166e-06)
(5.89044e-05 0 0 -2.09336e-25 -0.000117809 0 0 0 5.89044e-05)
(9.1697e-06 0 0 -3.20873e-26 -1.83394e-05 0 0 0 9.1697e-06)
(-1.48178e-07 0 0 -2.35609e-29 2.96357e-07 0 0 0 -1.48178e-07)
(4.14959e-10 0 0 -1.07755e-31 -8.29919e-10 0 0 0 4.14959e-10)
(3.93503e-17 0 0 -8.97363e-39 -7.87006e-17 0 0 0 3.93503e-17)
(-1.18261e-21 0 0 -1.82512e-42 2.36522e-21 0 0 0 -1.18261e-21)
(-1.45933e-27 0 0 -6.34332e-48 2.91867e-27 0 0 0 -1.45933e-27)
(-1.37588e-34 0 0 -1.29222e-53 2.75176e-34 0 0 0 -1.37588e-34)
(2.5525e-37 0 0 -8.0389e-57 -5.105e-37 0 0 0 2.5525e-37)
(1.78104e-39 0 0 -5.47731e-58 -3.56207e-39 0 0 0 1.78104e-39)
(-1.34882e-40 0 0 -3.24159e-59 2.69763e-40 0 0 0 -1.34882e-40)
(-1.0892e-42 0 0 -1.62511e-60 2.17839e-42 0 0 0 -1.0892e-42)
(-5.16532e-43 0 0 -6.69055e-62 1.03306e-42 0 0 0 -5.16532e-43)
(-5.03546e-44 0 0 -2.15204e-63 1.00709e-43 0 0 0 -5.03546e-44)
(-9.7012e-45 0 0 -4.91627e-65 1.94024e-44 0 0 0 -9.7012e-45)
(-1.2685e-43 0 0 -6.11834e-67 2.53701e-43 0 0 0 -1.2685e-43)
)
;

boundaryField
{
    inlet
    {
        type            cyclic;
    }
    outlet
    {
        type            cyclic;
    }
    top
    {
        type            extrapolatedCalculated;
        value           uniform (-2.53459e-43 0 0 -5.95955e-67 5.06918e-43 0 0 0 -2.53459e-43);
    }
    bottom
    {
        type            extrapolatedCalculated;
        value           uniform (0.0125573 0 0 -3.00727e-15 -0.0251147 0 0 0 0.0125573);
    }
    frontAndBackPlanes
    {
        type            empty;
    }
}


// ************************************************************************* //
