/*--------------------------------*- C++ -*----------------------------------*\
| =========                 |                                                 |
| \\      /  F ield         | OpenFOAM: The Open Source CFD Toolbox           |
|  \\    /   O peration     | Version:  v2006                                 |
|   \\  /    A nd           | Website:  www.openfoam.com                      |
|    \\/     M anipulation  |                                                 |
\*---------------------------------------------------------------------------*/
FoamFile
{
    version     2.0;
    format      ascii;
    class       volTensorField;
    location    "180";
    object      Taub;
}
// * * * * * * * * * * * * * * * * * * * * * * * * * * * * * * * * * * * * * //

dimensions      [1 -1 -2 0 0 0 0];


internalField   nonuniform List<tensor> 
120
(
(-9.11258e-07 0 0 -1.41826e-19 1.82252e-06 0 0 0 -9.11258e-07)
(-9.82408e-07 0 0 -1.37075e-19 1.96482e-06 0 0 0 -9.82408e-07)
(-1.09948e-06 0 0 -1.45845e-19 2.19896e-06 0 0 0 -1.09948e-06)
(-1.26412e-06 0 0 -1.54544e-19 2.52823e-06 0 0 0 -1.26412e-06)
(-1.49885e-06 0 0 -1.49789e-19 2.99771e-06 0 0 0 -1.49885e-06)
(-1.83544e-06 0 0 -1.20017e-19 3.67088e-06 0 0 0 -1.83544e-06)
(-2.28578e-06 0 0 -1.65641e-19 4.57156e-06 0 0 0 -2.28578e-06)
(-2.81202e-06 0 0 -2.65934e-19 5.62404e-06 0 0 0 -2.81202e-06)
(-3.12556e-06 0 0 -1.86971e-19 6.25113e-06 0 0 0 -3.12556e-06)
(-2.75112e-06 0 0 -1.32624e-19 5.50224e-06 0 0 0 -2.75112e-06)
(-1.29553e-06 0 0 -2.47136e-19 2.59105e-06 0 0 0 -1.29553e-06)
(-4.19528e-05 0 0 -5.10497e-19 8.39056e-05 0 0 0 -4.19528e-05)
(1.4414e-05 0 0 -6.26763e-17 -2.8828e-05 0 0 0 1.4414e-05)
(-8.05038e-05 0 0 -4.19856e-17 0.000161008 0 0 0 -8.05038e-05)
(-0.000112114 0 0 3.57066e-17 0.000224228 0 0 0 -0.000112114)
(2.62305e-05 0 0 2.53768e-17 -5.24611e-05 0 0 0 2.62305e-05)
(8.67066e-06 0 0 3.46418e-18 -1.73413e-05 0 0 0 8.67066e-06)
(2.3317e-06 0 0 -2.22143e-17 -4.6634e-06 0 0 0 2.3317e-06)
(1.01216e-06 0 0 -5.86622e-17 -2.02432e-06 0 0 0 1.01216e-06)
(3.56449e-07 0 0 -1.14999e-16 -7.12897e-07 0 0 0 3.56449e-07)
(1.14092e-07 0 0 -1.98065e-16 -2.28183e-07 0 0 0 1.14092e-07)
(3.61874e-08 0 0 -3.07687e-16 -7.23748e-08 0 0 0 3.61874e-08)
(1.09478e-08 0 0 -4.32011e-16 -2.18957e-08 0 0 0 1.09478e-08)
(3.03929e-09 0 0 1.5477e-16 -6.07858e-09 0 0 0 3.03929e-09)
(8.09355e-10 0 0 7.86092e-16 -1.61871e-09 0 0 0 8.09355e-10)
(1.70762e-10 0 0 7.95468e-16 -3.41524e-10 0 0 0 1.70762e-10)
(1.21308e-10 0 0 5.57092e-16 -2.42617e-10 0 0 0 1.21308e-10)
(6.49068e-12 0 0 4.26466e-16 -1.29814e-11 0 0 0 6.49068e-12)
(2.75405e-11 0 0 7.36415e-16 -5.5081e-11 0 0 0 2.75405e-11)
(1.38245e-12 0 0 3.96519e-16 -2.7649e-12 0 0 0 1.38245e-12)
(5.51987e-11 0 0 -6.47807e-16 -1.10397e-10 0 0 0 5.51987e-11)
(-1.71505e-11 0 0 -1.05278e-15 3.4301e-11 0 0 0 -1.71505e-11)
(-1.47231e-11 0 0 -8.63807e-16 2.94462e-11 0 0 0 -1.47231e-11)
(-3.52937e-11 0 0 -8.00855e-16 7.05873e-11 0 0 0 -3.52937e-11)
(1.19609e-11 0 0 -8.5e-16 -2.39218e-11 0 0 0 1.19609e-11)
(-1.4036e-11 -1.00962e-19 0 -2.66806e-16 2.8072e-11 0 0 0 -1.4036e-11)
(2.26163e-12 0 0 1.00866e-15 -4.52327e-12 0 0 0 2.26163e-12)
(-8.88225e-12 0 0 9.31221e-16 1.77645e-11 0 0 0 -8.88225e-12)
(7.25857e-12 0 0 9.38817e-16 -1.45171e-11 0 0 0 7.25857e-12)
(-1.31742e-11 0 0 3.38579e-16 2.63484e-11 0 0 0 -1.31742e-11)
(-1.06122e-11 0 0 -1.84899e-16 2.12245e-11 0 0 0 -1.06122e-11)
(-1.52351e-11 0 0 4.19735e-17 3.04702e-11 0 0 0 -1.52351e-11)
(-1.88143e-12 0 0 -4.07596e-16 3.76285e-12 0 0 0 -1.88143e-12)
(-6.80934e-12 0 0 -1.5042e-16 1.36187e-11 0 0 0 -6.80934e-12)
(-1.70798e-12 0 0 7.97924e-16 3.41596e-12 0 0 0 -1.70798e-12)
(-4.04307e-12 0 0 3.1466e-16 8.08614e-12 0 0 0 -4.04307e-12)
(-7.00526e-13 0 0 -9.26675e-16 1.40105e-12 0 0 0 -7.00526e-13)
(-4.56391e-12 0 0 -1.55036e-15 9.12783e-12 0 0 0 -4.56391e-12)
(-3.94048e-12 0 0 -8.67445e-16 7.88095e-12 0 0 0 -3.94048e-12)
(-4.39313e-12 0 0 4.30258e-16 8.78627e-12 0 0 0 -4.39313e-12)
(-1.67095e-12 0 0 2.65744e-16 3.3419e-12 0 0 0 -1.67095e-12)
(-2.14323e-12 0 0 7.12912e-17 4.28646e-12 0 0 0 -2.14323e-12)
(-1.11834e-12 0 0 -1.24151e-16 2.23669e-12 0 0 0 -1.11834e-12)
(-1.37034e-12 0 0 -2.92879e-16 2.74067e-12 0 0 0 -1.37034e-12)
(-9.62082e-13 0 0 2.96175e-16 1.92416e-12 0 0 0 -9.62082e-13)
(-1.65084e-12 0 0 9.73865e-16 3.30169e-12 0 0 0 -1.65084e-12)
(-1.91569e-12 0 0 1.06289e-15 3.83138e-12 0 0 0 -1.91569e-12)
(-1.96548e-12 0 0 1.26691e-15 3.93096e-12 0 0 0 -1.96548e-12)
(-1.73107e-12 1.00962e-19 0 1.61327e-16 3.46214e-12 0 0 0 -1.73107e-12)
(-1.65054e-12 0 0 -8.94698e-16 3.30107e-12 0 0 0 -1.65054e-12)
(-1.91408e-12 0 0 -5.46053e-16 3.82816e-12 0 0 0 -1.91408e-12)
(-1.84811e-12 0 0 -2.30622e-16 3.69621e-12 0 0 0 -1.84811e-12)
(-2.48997e-12 0 0 3.07373e-17 4.97994e-12 0 0 0 -2.48997e-12)
(-3.13112e-12 0 0 2.30676e-16 6.26225e-12 0 0 0 -3.13112e-12)
(-5.10891e-12 0 0 -1.02819e-15 1.02178e-11 0 0 0 -5.10891e-12)
(-5.20601e-12 0 0 -9.25845e-16 1.0412e-11 0 0 0 -5.20601e-12)
(-6.51013e-12 0 0 5.69029e-16 1.30203e-11 0 0 0 -6.51013e-12)
(-5.47347e-12 0 0 6.93219e-16 1.09469e-11 0 0 0 -5.47347e-12)
(-8.04678e-12 0 0 8.81917e-16 1.60936e-11 0 0 0 -8.04678e-12)
(-6.54253e-12 0 0 1.14654e-15 1.30851e-11 0 0 0 -6.54253e-12)
(-1.02145e-11 0 0 6.75251e-17 2.0429e-11 0 0 0 -1.02145e-11)
(-1.13476e-11 0 0 -9.93831e-16 2.26952e-11 0 0 0 -1.13476e-11)
(-2.13467e-11 0 0 -6.80936e-16 4.26935e-11 0 0 0 -2.13467e-11)
(-1.93995e-11 0 0 -4.27641e-16 3.8799e-11 0 0 0 -1.93995e-11)
(-2.54653e-11 0 0 -2.4543e-16 5.09305e-11 0 0 0 -2.54653e-11)
(-1.77307e-11 0 0 -1.27031e-16 3.54613e-11 0 0 0 -1.77307e-11)
(-2.97032e-11 0 0 -5.42438e-17 5.94063e-11 0 0 0 -2.97032e-11)
(-1.79283e-11 0 0 -4.80287e-18 3.58566e-11 0 0 0 -1.79283e-11)
(-3.16832e-11 0 0 4.51667e-17 6.33663e-11 0 0 0 -3.16832e-11)
(-3.0752e-11 0 0 1.22778e-16 6.15039e-11 0 0 0 -3.0752e-11)
(-6.95004e-11 0 0 2.61052e-16 1.39001e-10 0 0 0 -6.95004e-11)
(-5.44706e-11 0 0 4.98278e-16 1.08941e-10 0 0 0 -5.44706e-11)
(-7.02758e-11 0 0 8.70279e-16 1.40552e-10 0 0 0 -7.02758e-11)
(-3.79586e-11 0 0 1.39536e-15 7.59173e-11 0 0 0 -3.79586e-11)
(-7.40567e-11 0 0 2.05798e-15 1.48113e-10 0 0 0 -7.40567e-11)
(-2.46904e-11 0 0 -1.09741e-20 4.93808e-11 0 0 0 -2.46904e-11)
(-5.11379e-11 0 0 -2.058e-15 1.02276e-10 0 0 0 -5.11379e-11)
(-4.26576e-11 0 0 -1.39541e-15 8.53152e-11 0 0 0 -4.26576e-11)
(-1.37385e-10 0 0 -8.70443e-16 2.74769e-10 0 0 0 -1.37385e-10)
(-7.95921e-11 0 0 -4.98811e-16 1.59184e-10 0 0 0 -7.95921e-11)
(-1.51419e-10 0 0 -2.62658e-16 3.02837e-10 0 0 0 -1.51419e-10)
(1.92701e-11 0 0 -1.27279e-16 -3.85401e-11 0 0 0 1.92701e-11)
(-1.36808e-10 0 0 -5.68917e-17 2.73615e-10 0 0 0 -1.36808e-10)
(2.839e-09 0 0 -2.35236e-17 -5.678e-09 0 0 0 2.839e-09)
(-1.58068e-08 0 0 -9.02546e-18 3.16135e-08 0 0 0 -1.58068e-08)
(2.04749e-08 0 0 -3.2235e-18 -4.09498e-08 0 0 0 2.04749e-08)
(3.96e-08 0 0 -1.07512e-18 -7.92e-08 0 0 0 3.96e-08)
(2.79108e-07 0 0 -3.35876e-19 -5.58215e-07 0 0 0 2.79108e-07)
(-2.32795e-06 0 0 -9.858e-20 4.6559e-06 0 0 0 -2.32795e-06)
(4.24397e-07 0 0 -2.72548e-20 -8.48794e-07 0 0 0 4.24397e-07)
(2.93593e-05 0 0 -7.1203e-21 -5.87186e-05 0 0 0 2.93593e-05)
(-3.95591e-05 0 0 -1.76069e-21 7.91183e-05 0 0 0 -3.95591e-05)
(-0.000235835 0 0 -4.11804e-22 0.000471669 0 0 0 -0.000235835)
(0.000266625 0 0 -9.24683e-23 -0.00053325 0 0 0 0.000266625)
(0.00483987 0 0 -1.82419e-23 -0.00967975 0 0 0 0.00483987)
(-0.000484178 0 0 -3.07505e-24 0.000968357 0 0 0 -0.000484178)
(-0.00237099 0 0 -2.57085e-25 0.00474199 0 0 0 -0.00237099)
(0.000188053 0 0 -2.66871e-25 -0.000376105 0 0 0 0.000188053)
(0.000325326 0 0 -2.0059e-25 -0.000650652 0 0 0 0.000325326)
(-1.39581e-06 0 0 -1.50496e-25 2.79163e-06 0 0 0 -1.39581e-06)
(-2.56176e-05 0 0 -1.12948e-25 5.12352e-05 0 0 0 -2.56176e-05)
(-9.42069e-07 0 0 -8.48696e-26 1.88414e-06 0 0 0 -9.42069e-07)
(1.97408e-06 0 0 -6.39324e-26 -3.94816e-06 0 0 0 1.97408e-06)
(1.54879e-07 0 0 -4.83846e-26 -3.09758e-07 0 0 0 1.54879e-07)
(-1.4883e-07 0 0 -3.69161e-26 2.97661e-07 0 0 0 -1.4883e-07)
(-1.83938e-08 0 0 -2.85551e-26 3.67876e-08 0 0 0 -1.83938e-08)
(1.09298e-08 0 0 -2.25906e-26 -2.18595e-08 0 0 0 1.09298e-08)
(1.85094e-09 0 0 -1.85141e-26 -3.70187e-09 0 0 0 1.85094e-09)
(-8.36954e-10 0 0 -1.59778e-26 1.67391e-09 0 0 0 -8.36954e-10)
(1.33624e-09 0 0 -1.46795e-26 -2.67249e-09 0 0 0 1.33624e-09)
)
;

boundaryField
{
    inlet
    {
        type            cyclic;
    }
    outlet
    {
        type            cyclic;
    }
    top
    {
        type            extrapolatedCalculated;
        value           uniform (3.07137e-09 0 0 -1.42989e-26 -6.14274e-09 0 0 0 3.07137e-09);
    }
    bottom
    {
        type            extrapolatedCalculated;
        value           uniform (-8.88666e-07 0 0 -1.41966e-19 1.77733e-06 0 0 0 -8.88666e-07);
    }
    frontAndBackPlanes
    {
        type            empty;
    }
}


// ************************************************************************* //
