/*--------------------------------*- C++ -*----------------------------------*\
| =========                 |                                                 |
| \\      /  F ield         | OpenFOAM: The Open Source CFD Toolbox           |
|  \\    /   O peration     | Version:  v2006                                 |
|   \\  /    A nd           | Website:  www.openfoam.com                      |
|    \\/     M anipulation  |                                                 |
\*---------------------------------------------------------------------------*/
FoamFile
{
    version     2.0;
    format      ascii;
    class       volVectorField;
    location    "180";
    object      Ua;
}
// * * * * * * * * * * * * * * * * * * * * * * * * * * * * * * * * * * * * * //

dimensions      [0 1 -1 0 0 0 0];


internalField   nonuniform List<vector> 
120
(
(-7.16015e-22 -8.96953e-09 0)
(-2.14562e-21 -2.7982e-08 0)
(-3.56973e-21 -4.93977e-08 0)
(-5.09031e-21 -7.3652e-08 0)
(-6.60424e-21 -1.01713e-07 0)
(-8.12014e-21 -1.35383e-07 0)
(-9.65637e-21 -1.78003e-07 0)
(-1.14671e-20 -2.33427e-07 0)
(-1.33665e-20 -3.01965e-07 0)
(-1.52527e-20 -3.77277e-07 0)
(-1.70976e-20 -4.38213e-07 0)
(-1.86758e-20 -4.86181e-07 0)
(-1.97539e-20 -5.76451e-07 0)
(-1.32155e-18 -1.08165e-05 0)
(-9.34154e-19 -3.48296e-06 0)
(-5.36148e-19 -5.41717e-06 0)
(-3.7231e-19 -6.13571e-06 0)
(-4.59258e-19 -6.33239e-06 0)
(-8.65785e-19 -6.41245e-06 0)
(-1.76281e-18 -6.44062e-06 0)
(-3.42149e-18 -6.44965e-06 0)
(-6.16472e-18 -6.45245e-06 0)
(-1.02598e-17 -6.45332e-06 0)
(-1.58391e-17 -6.45353e-06 0)
(-6.82008e-18 -6.45361e-06 0)
(1.70467e-18 -6.45361e-06 0)
(1.08956e-17 -6.45363e-06 0)
(1.40859e-17 -6.45362e-06 0)
(2.03372e-17 -6.45363e-06 0)
(3.05256e-17 -6.45362e-06 0)
(2.92228e-17 -6.45363e-06 0)
(1.60553e-17 -6.45362e-06 0)
(5.75186e-18 -6.45363e-06 0)
(-3.14273e-18 -6.45363e-06 0)
(-1.2047e-17 -6.45363e-06 0)
(-2.21068e-17 -6.45363e-06 0)
(-1.80497e-17 -6.45363e-06 0)
(4.56462e-19 -6.45363e-06 0)
(2.64666e-18 -6.45364e-06 0)
(2.13945e-17 -6.45364e-06 0)
(1.01715e-17 -6.45364e-06 0)
(1.72122e-17 -6.45364e-06 0)
(1.11772e-17 -6.45364e-06 0)
(8.08047e-18 -6.45364e-06 0)
(7.76126e-18 -6.45364e-06 0)
(2.59601e-17 -6.45364e-06 0)
(1.48275e-17 -6.45364e-06 0)
(5.29196e-18 -6.45364e-06 0)
(-1.97751e-17 -6.45364e-06 0)
(-1.40598e-17 -6.45364e-06 0)
(-1.00667e-17 -6.45364e-06 0)
(-8.15362e-18 -6.45364e-06 0)
(-8.48228e-18 -6.45364e-06 0)
(-1.09129e-17 -6.45364e-06 0)
(-1.50645e-17 -6.45364e-06 0)
(-4.33049e-18 -6.45364e-06 0)
(6.65249e-18 -6.45364e-06 0)
(1.92922e-17 -6.45364e-06 0)
(3.49553e-17 -6.45364e-06 0)
(2.28776e-17 -6.45364e-06 0)
(1.49249e-17 -6.45364e-06 0)
(1.07416e-17 -6.45364e-06 0)
(9.79935e-18 -6.45364e-06 0)
(1.14248e-17 -6.45364e-06 0)
(1.50719e-17 -6.45364e-06 0)
(-1.15725e-17 -6.45364e-06 0)
(-5.65074e-18 -6.45364e-06 0)
(1.21991e-18 -6.45364e-06 0)
(9.75601e-18 -6.45364e-06 0)
(2.08205e-17 -6.45364e-06 0)
(3.53836e-17 -6.45364e-06 0)
(2.23212e-17 -6.45364e-06 0)
(1.31499e-17 -6.45364e-06 0)
(7.18743e-18 -6.45364e-06 0)
(3.6457e-18 -6.45364e-06 0)
(1.7328e-18 -6.45364e-06 0)
(8.22481e-19 -6.45364e-06 0)
(5.27255e-19 -6.45364e-06 0)
(7.15737e-19 -6.45364e-06 0)
(1.53106e-18 -6.45364e-06 0)
(3.44442e-18 -6.45364e-06 0)
(7.33285e-18 -6.45364e-06 0)
(1.45185e-17 -6.45364e-06 0)
(2.66747e-17 -6.45364e-06 0)
(4.55303e-17 -6.45364e-06 0)
(7.27048e-17 -6.45364e-06 0)
(4.55301e-17 -6.45365e-06 0)
(2.66742e-17 -6.45364e-06 0)
(1.45172e-17 -6.45365e-06 0)
(7.3287e-18 -6.45363e-06 0)
(3.43126e-18 -6.45365e-06 0)
(1.49122e-18 -6.45363e-06 0)
(6.02547e-19 -6.45365e-06 0)
(2.26835e-19 -6.45362e-06 0)
(7.97506e-20 -6.45383e-06 0)
(2.62518e-20 -6.4526e-06 0)
(8.11143e-21 -6.45507e-06 0)
(2.35862e-21 -6.4556e-06 0)
(6.46972e-22 -6.47266e-06 0)
(1.67862e-22 -6.30268e-06 0)
(4.12588e-23 -6.50213e-06 0)
(9.6204e-24 -8.22787e-06 0)
(2.15397e-24 -3.97861e-06 0)
(4.49309e-25 8.01703e-06 0)
(1.07791e-25 -2.28719e-05 0)
(3.56238e-26 -0.000341199 0)
(3.04459e-26 -8.91814e-05 0)
(2.28416e-26 -0.000100031 0)
(1.71052e-26 -0.000243304 0)
(1.27978e-26 -0.000232161 0)
(9.57201e-27 -0.000228661 0)
(7.15009e-27 -0.000228263 0)
(5.32825e-27 -0.000228525 0)
(3.95325e-27 -0.000228567 0)
(2.90886e-27 -0.000228549 0)
(2.10729e-27 -0.000228544 0)
(1.48106e-27 -0.000228546 0)
(9.77671e-28 -0.000228518 0)
(5.5525e-28 -0.000228481 0)
(1.78733e-28 -0.000228045 0)
)
;

boundaryField
{
    inlet
    {
        type            cyclic;
    }
    outlet
    {
        type            cyclic;
    }
    top
    {
        type            fixedValue;
        value           uniform (0 0 0);
    }
    bottom
    {
        type            fixedValue;
        value           uniform (0 0 0);
    }
    frontAndBackPlanes
    {
        type            empty;
    }
}


// ************************************************************************* //
