/*--------------------------------*- C++ -*----------------------------------*\
| =========                 |                                                 |
| \\      /  F ield         | OpenFOAM: The Open Source CFD Toolbox           |
|  \\    /   O peration     | Version:  v2006                                 |
|   \\  /    A nd           | Website:  www.openfoam.com                      |
|    \\/     M anipulation  |                                                 |
\*---------------------------------------------------------------------------*/
FoamFile
{
    version     2.0;
    format      ascii;
    class       volVectorField;
    location    "180";
    object      Ub;
}
// * * * * * * * * * * * * * * * * * * * * * * * * * * * * * * * * * * * * * //

dimensions      [0 1 -1 0 0 0 0];


internalField   nonuniform List<vector> 
120
(
(-7.16012e-22 1.34461e-08 0)
(-2.14521e-21 4.17056e-08 0)
(-3.48244e-21 7.29268e-08 0)
(-5.08989e-21 1.08303e-07 0)
(-6.60422e-21 1.49532e-07 0)
(-8.1172e-21 1.9918e-07 0)
(-9.03129e-21 2.60884e-07 0)
(-1.14693e-20 3.37953e-07 0)
(-1.44176e-20 4.31751e-07 0)
(-1.52599e-20 5.28052e-07 0)
(-1.71092e-20 5.99253e-07 0)
(-2.02815e-20 6.07025e-07 0)
(-2.75055e-20 3.16237e-06 0)
(-1.32149e-18 -2.90714e-07 0)
(-9.34154e-19 8.37763e-06 0)
(-5.36157e-19 7.10685e-06 0)
(-3.7232e-19 6.63542e-06 0)
(-4.59271e-19 6.52952e-06 0)
(-8.65804e-19 6.48003e-06 0)
(-1.76284e-18 6.46205e-06 0)
(-3.42154e-18 6.45626e-06 0)
(-6.16477e-18 6.45444e-06 0)
(-1.02599e-17 6.45385e-06 0)
(-1.57662e-17 6.45371e-06 0)
(-6.82009e-18 6.45365e-06 0)
(1.70469e-18 6.45366e-06 0)
(1.08592e-17 6.45364e-06 0)
(1.40861e-17 6.45365e-06 0)
(2.03374e-17 6.45364e-06 0)
(3.04529e-17 6.45365e-06 0)
(2.915e-17 6.45363e-06 0)
(1.60554e-17 6.45364e-06 0)
(5.75192e-18 6.45364e-06 0)
(-3.14273e-18 6.45364e-06 0)
(-1.20471e-17 6.45364e-06 0)
(-2.2034e-17 6.45364e-06 0)
(-1.79768e-17 6.45364e-06 0)
(3.83562e-19 6.45364e-06 0)
(2.71955e-18 6.45364e-06 0)
(2.12488e-17 6.45364e-06 0)
(1.02445e-17 6.45364e-06 0)
(1.71394e-17 6.45364e-06 0)
(1.11773e-17 6.45364e-06 0)
(8.08059e-18 6.45364e-06 0)
(7.83425e-18 6.45364e-06 0)
(2.58144e-17 6.45364e-06 0)
(1.48276e-17 6.45364e-06 0)
(5.2191e-18 6.45364e-06 0)
(-1.96293e-17 6.45364e-06 0)
(-1.40599e-17 6.45364e-06 0)
(-1.00668e-17 6.45364e-06 0)
(-8.15371e-18 6.45364e-06 0)
(-8.48237e-18 6.45364e-06 0)
(-1.0913e-17 6.45364e-06 0)
(-1.49916e-17 6.45364e-06 0)
(-4.33047e-18 6.45364e-06 0)
(6.65255e-18 6.45364e-06 0)
(1.92923e-17 6.45364e-06 0)
(3.48097e-17 6.45364e-06 0)
(2.28778e-17 6.45364e-06 0)
(1.4925e-17 6.45364e-06 0)
(1.07418e-17 6.45364e-06 0)
(9.79945e-18 6.45364e-06 0)
(1.14249e-17 6.45364e-06 0)
(1.49262e-17 6.45364e-06 0)
(-1.14267e-17 6.45364e-06 0)
(-5.65069e-18 6.45364e-06 0)
(1.21997e-18 6.45364e-06 0)
(9.75611e-18 6.45364e-06 0)
(2.08206e-17 6.45365e-06 0)
(3.5238e-17 6.45365e-06 0)
(2.23213e-17 6.45365e-06 0)
(1.31501e-17 6.45365e-06 0)
(7.18753e-18 6.45365e-06 0)
(3.64577e-18 6.45365e-06 0)
(1.73284e-18 6.45365e-06 0)
(8.22505e-19 6.45365e-06 0)
(5.27274e-19 6.45365e-06 0)
(7.15761e-19 6.45365e-06 0)
(1.5311e-18 6.45365e-06 0)
(3.4445e-18 6.45365e-06 0)
(7.33298e-18 6.45366e-06 0)
(1.45187e-17 6.45366e-06 0)
(2.66749e-17 6.45366e-06 0)
(4.55306e-17 6.45366e-06 0)
(7.24136e-17 6.45367e-06 0)
(4.55304e-17 6.45366e-06 0)
(2.66744e-17 6.45367e-06 0)
(1.45174e-17 6.45366e-06 0)
(7.32883e-18 6.45368e-06 0)
(3.43134e-18 6.45367e-06 0)
(1.49126e-18 6.45369e-06 0)
(6.02567e-19 6.45367e-06 0)
(2.26844e-19 6.4537e-06 0)
(7.97543e-20 6.45348e-06 0)
(2.62532e-20 6.45475e-06 0)
(8.11192e-21 6.45211e-06 0)
(2.35879e-21 6.45211e-06 0)
(6.47021e-22 6.4335e-06 0)
(1.67875e-22 6.60733e-06 0)
(4.12625e-23 6.4052e-06 0)
(9.62135e-24 4.64973e-06 0)
(2.1542e-24 9.04126e-06 0)
(4.4936e-25 2.04078e-05 0)
(1.07803e-25 -8.6606e-06 0)
(3.5629e-26 -0.000308902 0)
(3.04433e-26 2.7881e-05 0)
(2.28293e-26 4.52374e-05 0)
(1.70983e-26 -3.29888e-07 0)
(1.27986e-26 -3.56767e-06 0)
(9.57261e-27 -1.2049e-07 0)
(7.15047e-27 2.75451e-07 0)
(5.3286e-27 2.08383e-08 0)
(3.95345e-27 -2.0698e-08 0)
(2.90906e-27 -2.39647e-09 0)
(2.10742e-27 1.6293e-09 0)
(1.48113e-27 3.62946e-10 0)
(9.77748e-28 -1.03681e-11 0)
(5.55309e-28 8.5271e-11 0)
(1.78759e-28 1.15191e-10 0)
)
;

boundaryField
{
    inlet
    {
        type            cyclic;
    }
    outlet
    {
        type            cyclic;
    }
    top
    {
        type            fixedValue;
        value           uniform (0 0 0);
    }
    bottom
    {
        type            fixedValue;
        value           uniform (0 0 0);
    }
    frontAndBackPlanes
    {
        type            empty;
    }
}


// ************************************************************************* //
