# Force        
# CofR         : (0.0000000e+00 0.0000000e+00 0.0000000e+00)
#
# Time         	(total_x total_y total_z)	(pressureFluid_x pressureFluid_y pressureFluid_z)	(pressureParticle_x pressureParticle_y pressureParticle_z)	(viscous_x viscous_y viscous_z)
1.20102        	(-9.9544086e-05 1.1122654e-02 -6.3452172e-20)	(-9.9544086e-05 1.1122654e-02 -6.3452172e-20)	(0.0000000e+00 0.0000000e+00 0.0000000e+00)	(0.0000000e+00 0.0000000e+00 0.0000000e+00)
1.20203        	(6.8742951e-05 1.0988378e-02 3.7773192e-19)	(6.8742951e-05 1.0988378e-02 3.7773192e-19)	(0.0000000e+00 0.0000000e+00 0.0000000e+00)	(0.0000000e+00 0.0000000e+00 0.0000000e+00)
1.20305        	(-2.1479102e-04 1.1195346e-02 1.8941231e-19)	(-2.1479102e-04 1.1195346e-02 1.8941231e-19)	(0.0000000e+00 0.0000000e+00 0.0000000e+00)	(0.0000000e+00 0.0000000e+00 0.0000000e+00)
1.20407        	(1.5162226e-04 1.0922497e-02 3.1986995e-19)	(1.5162226e-04 1.0922497e-02 3.1986995e-19)	(0.0000000e+00 0.0000000e+00 0.0000000e+00)	(0.0000000e+00 0.0000000e+00 0.0000000e+00)
1.20509        	(-2.7184287e-04 1.1171691e-02 -7.6966892e-20)	(-2.7184287e-04 1.1171691e-02 -7.6966892e-20)	(0.0000000e+00 0.0000000e+00 0.0000000e+00)	(0.0000000e+00 0.0000000e+00 0.0000000e+00)
1.20611        	(2.0135435e-04 1.0914241e-02 -2.1731720e-19)	(2.0135435e-04 1.0914241e-02 -2.1731720e-19)	(0.0000000e+00 0.0000000e+00 0.0000000e+00)	(0.0000000e+00 0.0000000e+00 0.0000000e+00)
1.20713        	(-3.0034091e-04 1.1187085e-02 -4.3100966e-19)	(-3.0034091e-04 1.1187085e-02 -4.3100966e-19)	(0.0000000e+00 0.0000000e+00 0.0000000e+00)	(0.0000000e+00 0.0000000e+00 0.0000000e+00)
1.20815        	(2.2277653e-04 1.0883013e-02 -2.2136156e-19)	(2.2277653e-04 1.0883013e-02 -2.2136156e-19)	(0.0000000e+00 0.0000000e+00 0.0000000e+00)	(0.0000000e+00 0.0000000e+00 0.0000000e+00)
1.20917        	(-3.0204362e-04 1.1158781e-02 1.5135075e-19)	(-3.0204362e-04 1.1158781e-02 1.5135075e-19)	(0.0000000e+00 0.0000000e+00 0.0000000e+00)	(0.0000000e+00 0.0000000e+00 0.0000000e+00)
1.21019        	(2.2948241e-04 1.0951943e-02 -9.1242869e-20)	(2.2948241e-04 1.0951943e-02 -9.1242869e-20)	(0.0000000e+00 0.0000000e+00 0.0000000e+00)	(0.0000000e+00 0.0000000e+00 0.0000000e+00)
1.21121        	(-2.9631772e-04 1.1138078e-02 -1.3854913e-19)	(-2.9631772e-04 1.1138078e-02 -1.3854913e-19)	(0.0000000e+00 0.0000000e+00 0.0000000e+00)	(0.0000000e+00 0.0000000e+00 0.0000000e+00)
1.21224        	(2.1618752e-04 1.0926714e-02 4.1867510e-19)	(2.1618752e-04 1.0926714e-02 4.1867510e-19)	(0.0000000e+00 0.0000000e+00 0.0000000e+00)	(0.0000000e+00 0.0000000e+00 0.0000000e+00)
1.21326        	(-2.8463689e-04 1.1116825e-02 -5.6767792e-20)	(-2.8463689e-04 1.1116825e-02 -5.6767792e-20)	(0.0000000e+00 0.0000000e+00 0.0000000e+00)	(0.0000000e+00 0.0000000e+00 0.0000000e+00)
1.21428        	(2.0068818e-04 1.0912082e-02 -1.7291359e-19)	(2.0068818e-04 1.0912082e-02 -1.7291359e-19)	(0.0000000e+00 0.0000000e+00 0.0000000e+00)	(0.0000000e+00 0.0000000e+00 0.0000000e+00)
1.2153         	(-2.6399647e-04 1.1105854e-02 -7.6821010e-20)	(-2.6399647e-04 1.1105854e-02 -7.6821010e-20)	(0.0000000e+00 0.0000000e+00 0.0000000e+00)	(0.0000000e+00 0.0000000e+00 0.0000000e+00)
1.21632        	(1.8496157e-04 1.0902167e-02 2.4401212e-19)	(1.8496157e-04 1.0902167e-02 2.4401212e-19)	(0.0000000e+00 0.0000000e+00 0.0000000e+00)	(0.0000000e+00 0.0000000e+00 0.0000000e+00)
1.21734        	(-2.4327431e-04 1.1091530e-02 -1.2945173e-19)	(-2.4327431e-04 1.1091530e-02 -1.2945173e-19)	(0.0000000e+00 0.0000000e+00 0.0000000e+00)	(0.0000000e+00 0.0000000e+00 0.0000000e+00)
1.21836        	(1.6430129e-04 1.0894414e-02 -9.7053369e-20)	(1.6430129e-04 1.0894414e-02 -9.7053369e-20)	(0.0000000e+00 0.0000000e+00 0.0000000e+00)	(0.0000000e+00 0.0000000e+00 0.0000000e+00)
1.21938        	(-2.2145970e-04 1.1075857e-02 -3.3161813e-19)	(-2.2145970e-04 1.1075857e-02 -3.3161813e-19)	(0.0000000e+00 0.0000000e+00 0.0000000e+00)	(0.0000000e+00 0.0000000e+00 0.0000000e+00)
1.2204         	(1.4561069e-04 1.0887830e-02 1.6533902e-19)	(1.4561069e-04 1.0887830e-02 1.6533902e-19)	(0.0000000e+00 0.0000000e+00 0.0000000e+00)	(0.0000000e+00 0.0000000e+00 0.0000000e+00)
1.22142        	(-1.9280977e-04 1.1053235e-02 5.2561179e-19)	(-1.9280977e-04 1.1053235e-02 5.2561179e-19)	(0.0000000e+00 0.0000000e+00 0.0000000e+00)	(0.0000000e+00 0.0000000e+00 0.0000000e+00)
1.22245        	(1.2992462e-04 1.0877787e-02 -1.3148285e-19)	(1.2992462e-04 1.0877787e-02 -1.3148285e-19)	(0.0000000e+00 0.0000000e+00 0.0000000e+00)	(0.0000000e+00 0.0000000e+00 0.0000000e+00)
1.22347        	(-1.7187716e-04 1.0992808e-02 1.4854548e-19)	(-1.7187716e-04 1.0992808e-02 1.4854548e-19)	(0.0000000e+00 0.0000000e+00 0.0000000e+00)	(0.0000000e+00 0.0000000e+00 0.0000000e+00)
1.2245         	(1.1709525e-04 1.0888432e-02 3.4765951e-20)	(1.1709525e-04 1.0888432e-02 3.4765951e-20)	(0.0000000e+00 0.0000000e+00 0.0000000e+00)	(0.0000000e+00 0.0000000e+00 0.0000000e+00)
1.22552        	(-1.5148389e-04 1.1005961e-02 1.2477780e-19)	(-1.5148389e-04 1.1005961e-02 1.2477780e-19)	(0.0000000e+00 0.0000000e+00 0.0000000e+00)	(0.0000000e+00 0.0000000e+00 0.0000000e+00)
1.22654        	(1.0262193e-04 1.0928549e-02 1.7460727e-19)	(1.0262193e-04 1.0928549e-02 1.7460727e-19)	(0.0000000e+00 0.0000000e+00 0.0000000e+00)	(0.0000000e+00 0.0000000e+00 0.0000000e+00)
1.22756        	(-1.3386254e-04 1.0976660e-02 4.1626244e-19)	(-1.3386254e-04 1.0976660e-02 4.1626244e-19)	(0.0000000e+00 0.0000000e+00 0.0000000e+00)	(0.0000000e+00 0.0000000e+00 0.0000000e+00)
1.22858        	(7.9741198e-05 1.0892625e-02 2.6239922e-19)	(7.9741198e-05 1.0892625e-02 2.6239922e-19)	(0.0000000e+00 0.0000000e+00 0.0000000e+00)	(0.0000000e+00 0.0000000e+00 0.0000000e+00)
1.22959        	(-1.2502133e-04 1.0939034e-02 1.0062344e-19)	(-1.2502133e-04 1.0939034e-02 1.0062344e-19)	(0.0000000e+00 0.0000000e+00 0.0000000e+00)	(0.0000000e+00 0.0000000e+00 0.0000000e+00)
1.23061        	(6.8736228e-05 1.0903373e-02 7.3726003e-20)	(6.8736228e-05 1.0903373e-02 7.3726003e-20)	(0.0000000e+00 0.0000000e+00 0.0000000e+00)	(0.0000000e+00 0.0000000e+00 0.0000000e+00)
1.23162        	(-1.1417903e-04 1.0911560e-02 4.7794382e-19)	(-1.1417903e-04 1.0911560e-02 4.7794382e-19)	(0.0000000e+00 0.0000000e+00 0.0000000e+00)	(0.0000000e+00 0.0000000e+00 0.0000000e+00)
1.23264        	(4.9044241e-05 1.0859294e-02 2.6221881e-19)	(4.9044241e-05 1.0859294e-02 2.6221881e-19)	(0.0000000e+00 0.0000000e+00 0.0000000e+00)	(0.0000000e+00 0.0000000e+00 0.0000000e+00)
1.23366        	(-1.0311648e-04 1.0886892e-02 -2.9685439e-19)	(-1.0311648e-04 1.0886892e-02 -2.9685439e-19)	(0.0000000e+00 0.0000000e+00 0.0000000e+00)	(0.0000000e+00 0.0000000e+00 0.0000000e+00)
1.23468        	(4.4068355e-05 1.0819347e-02 -2.5880578e-20)	(4.4068355e-05 1.0819347e-02 -2.5880578e-20)	(0.0000000e+00 0.0000000e+00 0.0000000e+00)	(0.0000000e+00 0.0000000e+00 0.0000000e+00)
1.2357         	(-8.9258613e-05 1.0870810e-02 2.6292257e-19)	(-8.9258613e-05 1.0870810e-02 2.6292257e-19)	(0.0000000e+00 0.0000000e+00 0.0000000e+00)	(0.0000000e+00 0.0000000e+00 0.0000000e+00)
1.23673        	(3.4347757e-05 1.0817492e-02 -4.4483520e-20)	(3.4347757e-05 1.0817492e-02 -4.4483520e-20)	(0.0000000e+00 0.0000000e+00 0.0000000e+00)	(0.0000000e+00 0.0000000e+00 0.0000000e+00)
1.23775        	(-8.0960887e-05 1.0824622e-02 -2.1366095e-19)	(-8.0960887e-05 1.0824622e-02 -2.1366095e-19)	(0.0000000e+00 0.0000000e+00 0.0000000e+00)	(0.0000000e+00 0.0000000e+00 0.0000000e+00)
1.23877        	(2.7069546e-05 1.0807528e-02 3.4132940e-21)	(2.7069546e-05 1.0807528e-02 3.4132940e-21)	(0.0000000e+00 0.0000000e+00 0.0000000e+00)	(0.0000000e+00 0.0000000e+00 0.0000000e+00)
1.23979        	(-6.9207245e-05 1.0859546e-02 -9.2817531e-20)	(-6.9207245e-05 1.0859546e-02 -9.2817531e-20)	(0.0000000e+00 0.0000000e+00 0.0000000e+00)	(0.0000000e+00 0.0000000e+00 0.0000000e+00)
1.24081        	(2.1445643e-05 1.0789324e-02 -1.4977223e-20)	(2.1445643e-05 1.0789324e-02 -1.4977223e-20)	(0.0000000e+00 0.0000000e+00 0.0000000e+00)	(0.0000000e+00 0.0000000e+00 0.0000000e+00)
1.24182        	(-6.2941360e-05 1.0860281e-02 -1.3026487e-19)	(-6.2941360e-05 1.0860281e-02 -1.3026487e-19)	(0.0000000e+00 0.0000000e+00 0.0000000e+00)	(0.0000000e+00 0.0000000e+00 0.0000000e+00)
1.24284        	(1.6522296e-05 1.0769583e-02 5.4282760e-19)	(1.6522296e-05 1.0769583e-02 5.4282760e-19)	(0.0000000e+00 0.0000000e+00 0.0000000e+00)	(0.0000000e+00 0.0000000e+00 0.0000000e+00)
1.24384        	(-5.0118489e-05 1.0802566e-02 -1.5512332e-19)	(-5.0118489e-05 1.0802566e-02 -1.5512332e-19)	(0.0000000e+00 0.0000000e+00 0.0000000e+00)	(0.0000000e+00 0.0000000e+00 0.0000000e+00)
1.24485        	(1.7840376e-05 1.0769271e-02 1.9551947e-20)	(1.7840376e-05 1.0769271e-02 1.9551947e-20)	(0.0000000e+00 0.0000000e+00 0.0000000e+00)	(0.0000000e+00 0.0000000e+00 0.0000000e+00)
1.24586        	(-4.2869233e-05 1.0774241e-02 -1.0539585e-19)	(-4.2869233e-05 1.0774241e-02 -1.0539585e-19)	(0.0000000e+00 0.0000000e+00 0.0000000e+00)	(0.0000000e+00 0.0000000e+00 0.0000000e+00)
1.24687        	(1.5586885e-05 1.0731144e-02 4.6104551e-19)	(1.5586885e-05 1.0731144e-02 4.6104551e-19)	(0.0000000e+00 0.0000000e+00 0.0000000e+00)	(0.0000000e+00 0.0000000e+00 0.0000000e+00)
1.24787        	(-3.3282533e-05 1.0742353e-02 4.0204387e-21)	(-3.3282533e-05 1.0742353e-02 4.0204387e-21)	(0.0000000e+00 0.0000000e+00 0.0000000e+00)	(0.0000000e+00 0.0000000e+00 0.0000000e+00)
1.24888        	(1.4974638e-05 1.0716216e-02 -2.0228931e-20)	(1.4974638e-05 1.0716216e-02 -2.0228931e-20)	(0.0000000e+00 0.0000000e+00 0.0000000e+00)	(0.0000000e+00 0.0000000e+00 0.0000000e+00)
1.24989        	(-3.0660283e-05 1.0738296e-02 1.6580478e-19)	(-3.0660283e-05 1.0738296e-02 1.6580478e-19)	(0.0000000e+00 0.0000000e+00 0.0000000e+00)	(0.0000000e+00 0.0000000e+00 0.0000000e+00)
1.25091        	(1.1177106e-05 1.0670766e-02 -1.0391869e-19)	(1.1177106e-05 1.0670766e-02 -1.0391869e-19)	(0.0000000e+00 0.0000000e+00 0.0000000e+00)	(0.0000000e+00 0.0000000e+00 0.0000000e+00)
1.25192        	(-1.8671149e-05 1.0704576e-02 -2.5780898e-19)	(-1.8671149e-05 1.0704576e-02 -2.5780898e-19)	(0.0000000e+00 0.0000000e+00 0.0000000e+00)	(0.0000000e+00 0.0000000e+00 0.0000000e+00)
1.25294        	(1.3106088e-05 1.0662291e-02 -7.5565059e-20)	(1.3106088e-05 1.0662291e-02 -7.5565059e-20)	(0.0000000e+00 0.0000000e+00 0.0000000e+00)	(0.0000000e+00 0.0000000e+00 0.0000000e+00)
1.25395        	(-2.0614788e-05 1.0704260e-02 -6.1814462e-19)	(-2.0614788e-05 1.0704260e-02 -6.1814462e-19)	(0.0000000e+00 0.0000000e+00 0.0000000e+00)	(0.0000000e+00 0.0000000e+00 0.0000000e+00)
1.25496        	(8.1957450e-06 1.0648860e-02 3.6617165e-19)	(8.1957450e-06 1.0648860e-02 3.6617165e-19)	(0.0000000e+00 0.0000000e+00 0.0000000e+00)	(0.0000000e+00 0.0000000e+00 0.0000000e+00)
1.25597        	(-2.2517550e-05 1.0720829e-02 -1.2044599e-19)	(-2.2517550e-05 1.0720829e-02 -1.2044599e-19)	(0.0000000e+00 0.0000000e+00 0.0000000e+00)	(0.0000000e+00 0.0000000e+00 0.0000000e+00)
1.25697        	(6.5826490e-07 1.0647028e-02 3.4957529e-19)	(6.5826490e-07 1.0647028e-02 3.4957529e-19)	(0.0000000e+00 0.0000000e+00 0.0000000e+00)	(0.0000000e+00 0.0000000e+00 0.0000000e+00)
1.25798        	(-2.1410851e-05 1.0694882e-02 4.2811922e-20)	(-2.1410851e-05 1.0694882e-02 4.2811922e-20)	(0.0000000e+00 0.0000000e+00 0.0000000e+00)	(0.0000000e+00 0.0000000e+00 0.0000000e+00)
1.25898        	(-3.0831023e-06 1.0611646e-02 1.1641029e-19)	(-3.0831023e-06 1.0611646e-02 1.1641029e-19)	(0.0000000e+00 0.0000000e+00 0.0000000e+00)	(0.0000000e+00 0.0000000e+00 0.0000000e+00)
1.25998        	(-2.3312795e-05 1.0687208e-02 -6.1176684e-20)	(-2.3312795e-05 1.0687208e-02 -6.1176684e-20)	(0.0000000e+00 0.0000000e+00 0.0000000e+00)	(0.0000000e+00 0.0000000e+00 0.0000000e+00)
1.26098        	(-8.1859330e-06 1.0607385e-02 -1.4317798e-19)	(-8.1859330e-06 1.0607385e-02 -1.4317798e-19)	(0.0000000e+00 0.0000000e+00 0.0000000e+00)	(0.0000000e+00 0.0000000e+00 0.0000000e+00)
1.26198        	(-2.0384897e-05 1.0667963e-02 -1.1293348e-19)	(-2.0384897e-05 1.0667963e-02 -1.1293348e-19)	(0.0000000e+00 0.0000000e+00 0.0000000e+00)	(0.0000000e+00 0.0000000e+00 0.0000000e+00)
1.26298        	(-5.7751109e-06 1.0591179e-02 1.2536319e-19)	(-5.7751109e-06 1.0591179e-02 1.2536319e-19)	(0.0000000e+00 0.0000000e+00 0.0000000e+00)	(0.0000000e+00 0.0000000e+00 0.0000000e+00)
1.26399        	(-1.7288772e-05 1.0670300e-02 -1.7418648e-19)	(-1.7288772e-05 1.0670300e-02 -1.7418648e-19)	(0.0000000e+00 0.0000000e+00 0.0000000e+00)	(0.0000000e+00 0.0000000e+00 0.0000000e+00)
1.265          	(-3.4400045e-06 1.0556723e-02 -2.9617873e-19)	(-3.4400045e-06 1.0556723e-02 -2.9617873e-19)	(0.0000000e+00 0.0000000e+00 0.0000000e+00)	(0.0000000e+00 0.0000000e+00 0.0000000e+00)
1.266          	(-1.2331568e-05 1.0633340e-02 1.1192609e-19)	(-1.2331568e-05 1.0633340e-02 1.1192609e-19)	(0.0000000e+00 0.0000000e+00 0.0000000e+00)	(0.0000000e+00 0.0000000e+00 0.0000000e+00)
1.267          	(-4.6695642e-06 1.0525728e-02 1.4028266e-19)	(-4.6695642e-06 1.0525728e-02 1.4028266e-19)	(0.0000000e+00 0.0000000e+00 0.0000000e+00)	(0.0000000e+00 0.0000000e+00 0.0000000e+00)
1.268          	(-8.5103993e-06 1.0643553e-02 3.2442081e-20)	(-8.5103993e-06 1.0643553e-02 3.2442081e-20)	(0.0000000e+00 0.0000000e+00 0.0000000e+00)	(0.0000000e+00 0.0000000e+00 0.0000000e+00)
1.269          	(1.9273485e-06 1.0504433e-02 5.4609548e-20)	(1.9273485e-06 1.0504433e-02 5.4609548e-20)	(0.0000000e+00 0.0000000e+00 0.0000000e+00)	(0.0000000e+00 0.0000000e+00 0.0000000e+00)
1.26999        	(-4.9807411e-06 1.0638829e-02 -1.5278059e-19)	(-4.9807411e-06 1.0638829e-02 -1.5278059e-19)	(0.0000000e+00 0.0000000e+00 0.0000000e+00)	(0.0000000e+00 0.0000000e+00 0.0000000e+00)
1.27098        	(8.0119095e-07 1.0509941e-02 1.1294481e-19)	(8.0119095e-07 1.0509941e-02 1.1294481e-19)	(0.0000000e+00 0.0000000e+00 0.0000000e+00)	(0.0000000e+00 0.0000000e+00 0.0000000e+00)
1.27197        	(-2.4271411e-06 1.0574612e-02 7.5117371e-20)	(-2.4271411e-06 1.0574612e-02 7.5117371e-20)	(0.0000000e+00 0.0000000e+00 0.0000000e+00)	(0.0000000e+00 0.0000000e+00 0.0000000e+00)
1.27295        	(1.7247862e-06 1.0526258e-02 -1.4250109e-19)	(1.7247862e-06 1.0526258e-02 -1.4250109e-19)	(0.0000000e+00 0.0000000e+00 0.0000000e+00)	(0.0000000e+00 0.0000000e+00 0.0000000e+00)
1.27394        	(-2.1934531e-06 1.0561120e-02 -6.3318798e-20)	(-2.1934531e-06 1.0561120e-02 -6.3318798e-20)	(0.0000000e+00 0.0000000e+00 0.0000000e+00)	(0.0000000e+00 0.0000000e+00 0.0000000e+00)
1.27492        	(2.5253238e-06 1.0511737e-02 -6.3471379e-20)	(2.5253238e-06 1.0511737e-02 -6.3471379e-20)	(0.0000000e+00 0.0000000e+00 0.0000000e+00)	(0.0000000e+00 0.0000000e+00 0.0000000e+00)
1.27591        	(-2.1940571e-06 1.0542816e-02 1.6736067e-19)	(-2.1940571e-06 1.0542816e-02 1.6736067e-19)	(0.0000000e+00 0.0000000e+00 0.0000000e+00)	(0.0000000e+00 0.0000000e+00 0.0000000e+00)
1.27689        	(8.5630624e-07 1.0495085e-02 -3.8653028e-19)	(8.5630624e-07 1.0495085e-02 -3.8653028e-19)	(0.0000000e+00 0.0000000e+00 0.0000000e+00)	(0.0000000e+00 0.0000000e+00 0.0000000e+00)
1.27787        	(-1.2393259e-06 1.0514981e-02 1.4690982e-19)	(-1.2393259e-06 1.0514981e-02 1.4690982e-19)	(0.0000000e+00 0.0000000e+00 0.0000000e+00)	(0.0000000e+00 0.0000000e+00 0.0000000e+00)
1.27886        	(2.3408663e-06 1.0480718e-02 -1.2210114e-19)	(2.3408663e-06 1.0480718e-02 -1.2210114e-19)	(0.0000000e+00 0.0000000e+00 0.0000000e+00)	(0.0000000e+00 0.0000000e+00 0.0000000e+00)
1.27985        	(-9.5319931e-07 1.0539149e-02 1.0344725e-19)	(-9.5319931e-07 1.0539149e-02 1.0344725e-19)	(0.0000000e+00 0.0000000e+00 0.0000000e+00)	(0.0000000e+00 0.0000000e+00 0.0000000e+00)
1.28084        	(-1.7975878e-06 1.0414771e-02 -1.2734899e-19)	(-1.7975878e-06 1.0414771e-02 -1.2734899e-19)	(0.0000000e+00 0.0000000e+00 0.0000000e+00)	(0.0000000e+00 0.0000000e+00 0.0000000e+00)
1.28182        	(-2.5289078e-06 1.0533656e-02 1.4898447e-19)	(-2.5289078e-06 1.0533656e-02 1.4898447e-19)	(0.0000000e+00 0.0000000e+00 0.0000000e+00)	(0.0000000e+00 0.0000000e+00 0.0000000e+00)
1.2828         	(-4.4316314e-06 1.0397698e-02 -2.0088455e-19)	(-4.4316314e-06 1.0397698e-02 -2.0088455e-19)	(0.0000000e+00 0.0000000e+00 0.0000000e+00)	(0.0000000e+00 0.0000000e+00 0.0000000e+00)
1.28378        	(-3.0108599e-06 1.0537859e-02 -2.4110890e-19)	(-3.0108599e-06 1.0537859e-02 -2.4110890e-19)	(0.0000000e+00 0.0000000e+00 0.0000000e+00)	(0.0000000e+00 0.0000000e+00 0.0000000e+00)
1.28475        	(-2.7139629e-06 1.0412097e-02 -9.9553362e-20)	(-2.7139629e-06 1.0412097e-02 -9.9553362e-20)	(0.0000000e+00 0.0000000e+00 0.0000000e+00)	(0.0000000e+00 0.0000000e+00 0.0000000e+00)
1.28573        	(-2.8539784e-07 1.0506895e-02 -1.5270489e-19)	(-2.8539784e-07 1.0506895e-02 -1.5270489e-19)	(0.0000000e+00 0.0000000e+00 0.0000000e+00)	(0.0000000e+00 0.0000000e+00 0.0000000e+00)
1.28671        	(-2.2279632e-06 1.0409911e-02 9.6824826e-20)	(-2.2279632e-06 1.0409911e-02 9.6824826e-20)	(0.0000000e+00 0.0000000e+00 0.0000000e+00)	(0.0000000e+00 0.0000000e+00 0.0000000e+00)
1.28767        	(-3.3817652e-06 1.0445067e-02 -2.6185440e-20)	(-3.3817652e-06 1.0445067e-02 -2.6185440e-20)	(0.0000000e+00 0.0000000e+00 0.0000000e+00)	(0.0000000e+00 0.0000000e+00 0.0000000e+00)
1.28864        	(-2.2018467e-06 1.0428223e-02 -8.1523801e-20)	(-2.2018467e-06 1.0428223e-02 -8.1523801e-20)	(0.0000000e+00 0.0000000e+00 0.0000000e+00)	(0.0000000e+00 0.0000000e+00 0.0000000e+00)
1.28961        	(2.5681989e-06 1.0448086e-02 -1.7401348e-19)	(2.5681989e-06 1.0448086e-02 -1.7401348e-19)	(0.0000000e+00 0.0000000e+00 0.0000000e+00)	(0.0000000e+00 0.0000000e+00 0.0000000e+00)
1.29058        	(4.3108743e-06 1.0419770e-02 -6.7441601e-20)	(4.3108743e-06 1.0419770e-02 -6.7441601e-20)	(0.0000000e+00 0.0000000e+00 0.0000000e+00)	(0.0000000e+00 0.0000000e+00 0.0000000e+00)
1.29155        	(2.6598340e-06 1.0435602e-02 1.0926199e-19)	(2.6598340e-06 1.0435602e-02 1.0926199e-19)	(0.0000000e+00 0.0000000e+00 0.0000000e+00)	(0.0000000e+00 0.0000000e+00 0.0000000e+00)
1.29252        	(5.0676406e-06 1.0406757e-02 1.5668293e-20)	(5.0676406e-06 1.0406757e-02 1.5668293e-20)	(0.0000000e+00 0.0000000e+00 0.0000000e+00)	(0.0000000e+00 0.0000000e+00 0.0000000e+00)
1.29349        	(1.6424527e-06 1.0457511e-02 -6.8981417e-20)	(1.6424527e-06 1.0457511e-02 -6.8981417e-20)	(0.0000000e+00 0.0000000e+00 0.0000000e+00)	(0.0000000e+00 0.0000000e+00 0.0000000e+00)
1.29447        	(3.3703713e-06 1.0361460e-02 -2.5164127e-19)	(3.3703713e-06 1.0361460e-02 -2.5164127e-19)	(0.0000000e+00 0.0000000e+00 0.0000000e+00)	(0.0000000e+00 0.0000000e+00 0.0000000e+00)
1.29545        	(-4.0990800e-07 1.0410900e-02 -2.1856323e-19)	(-4.0990800e-07 1.0410900e-02 -2.1856323e-19)	(0.0000000e+00 0.0000000e+00 0.0000000e+00)	(0.0000000e+00 0.0000000e+00 0.0000000e+00)
1.29642        	(-1.9697142e-06 1.0354738e-02 3.6377518e-20)	(-1.9697142e-06 1.0354738e-02 3.6377518e-20)	(0.0000000e+00 0.0000000e+00 0.0000000e+00)	(0.0000000e+00 0.0000000e+00 0.0000000e+00)
1.2974         	(1.7794026e-06 1.0391245e-02 -1.4911905e-19)	(1.7794026e-06 1.0391245e-02 -1.4911905e-19)	(0.0000000e+00 0.0000000e+00 0.0000000e+00)	(0.0000000e+00 0.0000000e+00 0.0000000e+00)
1.29837        	(1.0266811e-06 1.0297855e-02 4.6947539e-19)	(1.0266811e-06 1.0297855e-02 4.6947539e-19)	(0.0000000e+00 0.0000000e+00 0.0000000e+00)	(0.0000000e+00 0.0000000e+00 0.0000000e+00)
1.29934        	(2.1482014e-06 1.0401939e-02 1.8127594e-19)	(2.1482014e-06 1.0401939e-02 1.8127594e-19)	(0.0000000e+00 0.0000000e+00 0.0000000e+00)	(0.0000000e+00 0.0000000e+00 0.0000000e+00)
1.3003         	(8.3106417e-07 1.0325266e-02 -3.5838179e-19)	(8.3106417e-07 1.0325266e-02 -3.5838179e-19)	(0.0000000e+00 0.0000000e+00 0.0000000e+00)	(0.0000000e+00 0.0000000e+00 0.0000000e+00)
1.30127        	(3.2389948e-06 1.0392171e-02 3.6716986e-19)	(3.2389948e-06 1.0392171e-02 3.6716986e-19)	(0.0000000e+00 0.0000000e+00 0.0000000e+00)	(0.0000000e+00 0.0000000e+00 0.0000000e+00)
1.30224        	(6.0690583e-07 1.0323474e-02 -1.3021706e-19)	(6.0690583e-07 1.0323474e-02 -1.3021706e-19)	(0.0000000e+00 0.0000000e+00 0.0000000e+00)	(0.0000000e+00 0.0000000e+00 0.0000000e+00)
1.30321        	(1.6046533e-06 1.0371366e-02 -2.8277186e-19)	(1.6046533e-06 1.0371366e-02 -2.8277186e-19)	(0.0000000e+00 0.0000000e+00 0.0000000e+00)	(0.0000000e+00 0.0000000e+00 0.0000000e+00)
1.30418        	(3.3424920e-06 1.0319712e-02 3.5353234e-19)	(3.3424920e-06 1.0319712e-02 3.5353234e-19)	(0.0000000e+00 0.0000000e+00 0.0000000e+00)	(0.0000000e+00 0.0000000e+00 0.0000000e+00)
1.30514        	(3.9019323e-06 1.0361686e-02 -1.0858982e-19)	(3.9019323e-06 1.0361686e-02 -1.0858982e-19)	(0.0000000e+00 0.0000000e+00 0.0000000e+00)	(0.0000000e+00 0.0000000e+00 0.0000000e+00)
1.30611        	(3.8075353e-06 1.0312279e-02 9.9547644e-20)	(3.8075353e-06 1.0312279e-02 9.9547644e-20)	(0.0000000e+00 0.0000000e+00 0.0000000e+00)	(0.0000000e+00 0.0000000e+00 0.0000000e+00)
1.30708        	(3.6134254e-06 1.0350591e-02 1.3366892e-19)	(3.6134254e-06 1.0350591e-02 1.3366892e-19)	(0.0000000e+00 0.0000000e+00 0.0000000e+00)	(0.0000000e+00 0.0000000e+00 0.0000000e+00)
1.30805        	(1.0988559e-06 1.0318577e-02 1.5241875e-19)	(1.0988559e-06 1.0318577e-02 1.5241875e-19)	(0.0000000e+00 0.0000000e+00 0.0000000e+00)	(0.0000000e+00 0.0000000e+00 0.0000000e+00)
1.30902        	(2.1661453e-06 1.0346431e-02 3.6767981e-19)	(2.1661453e-06 1.0346431e-02 3.6767981e-19)	(0.0000000e+00 0.0000000e+00 0.0000000e+00)	(0.0000000e+00 0.0000000e+00 0.0000000e+00)
1.30999        	(4.3119965e-06 1.0366490e-02 2.8684062e-20)	(4.3119965e-06 1.0366490e-02 2.8684062e-20)	(0.0000000e+00 0.0000000e+00 0.0000000e+00)	(0.0000000e+00 0.0000000e+00 0.0000000e+00)
1.31096        	(4.1367780e-06 1.0260319e-02 1.9495415e-19)	(4.1367780e-06 1.0260319e-02 1.9495415e-19)	(0.0000000e+00 0.0000000e+00 0.0000000e+00)	(0.0000000e+00 0.0000000e+00 0.0000000e+00)
1.31193        	(4.7323904e-06 1.0352584e-02 -1.1355727e-19)	(4.7323904e-06 1.0352584e-02 -1.1355727e-19)	(0.0000000e+00 0.0000000e+00 0.0000000e+00)	(0.0000000e+00 0.0000000e+00 0.0000000e+00)
1.3129         	(4.0473424e-06 1.0287741e-02 1.0670714e-19)	(4.0473424e-06 1.0287741e-02 1.0670714e-19)	(0.0000000e+00 0.0000000e+00 0.0000000e+00)	(0.0000000e+00 0.0000000e+00 0.0000000e+00)
1.31387        	(9.1945791e-06 1.0347684e-02 2.2972244e-20)	(9.1945791e-06 1.0347684e-02 2.2972244e-20)	(0.0000000e+00 0.0000000e+00 0.0000000e+00)	(0.0000000e+00 0.0000000e+00 0.0000000e+00)
1.31483        	(4.6066257e-06 1.0287953e-02 1.5452505e-19)	(4.6066257e-06 1.0287953e-02 1.5452505e-19)	(0.0000000e+00 0.0000000e+00 0.0000000e+00)	(0.0000000e+00 0.0000000e+00 0.0000000e+00)
1.3158         	(6.2598010e-06 1.0331558e-02 -5.9011054e-20)	(6.2598010e-06 1.0331558e-02 -5.9011054e-20)	(0.0000000e+00 0.0000000e+00 0.0000000e+00)	(0.0000000e+00 0.0000000e+00 0.0000000e+00)
1.31677        	(6.6583644e-06 1.0288761e-02 1.0507963e-19)	(6.6583644e-06 1.0288761e-02 1.0507963e-19)	(0.0000000e+00 0.0000000e+00 0.0000000e+00)	(0.0000000e+00 0.0000000e+00 0.0000000e+00)
1.31774        	(7.2044579e-06 1.0319114e-02 -6.8885477e-20)	(7.2044579e-06 1.0319114e-02 -6.8885477e-20)	(0.0000000e+00 0.0000000e+00 0.0000000e+00)	(0.0000000e+00 0.0000000e+00 0.0000000e+00)
1.3187         	(2.1749149e-06 1.0281609e-02 2.6049657e-19)	(2.1749149e-06 1.0281609e-02 2.6049657e-19)	(0.0000000e+00 0.0000000e+00 0.0000000e+00)	(0.0000000e+00 0.0000000e+00 0.0000000e+00)
1.31967        	(3.9504455e-06 1.0309948e-02 7.4791883e-20)	(3.9504455e-06 1.0309948e-02 7.4791883e-20)	(0.0000000e+00 0.0000000e+00 0.0000000e+00)	(0.0000000e+00 0.0000000e+00 0.0000000e+00)
1.32064        	(2.9670101e-06 1.0279497e-02 -3.3554724e-19)	(2.9670101e-06 1.0279497e-02 -3.3554724e-19)	(0.0000000e+00 0.0000000e+00 0.0000000e+00)	(0.0000000e+00 0.0000000e+00 0.0000000e+00)
1.32161        	(6.1870025e-06 1.0296494e-02 -1.5631922e-19)	(6.1870025e-06 1.0296494e-02 -1.5631922e-19)	(0.0000000e+00 0.0000000e+00 0.0000000e+00)	(0.0000000e+00 0.0000000e+00 0.0000000e+00)
1.32258        	(4.6870209e-06 1.0272503e-02 1.1369999e-19)	(4.6870209e-06 1.0272503e-02 1.1369999e-19)	(0.0000000e+00 0.0000000e+00 0.0000000e+00)	(0.0000000e+00 0.0000000e+00 0.0000000e+00)
1.32354        	(5.9385860e-06 1.0289877e-02 1.7718582e-19)	(5.9385860e-06 1.0289877e-02 1.7718582e-19)	(0.0000000e+00 0.0000000e+00 0.0000000e+00)	(0.0000000e+00 0.0000000e+00 0.0000000e+00)
1.32451        	(7.3373704e-06 1.0267683e-02 -3.5483457e-20)	(7.3373704e-06 1.0267683e-02 -3.5483457e-20)	(0.0000000e+00 0.0000000e+00 0.0000000e+00)	(0.0000000e+00 0.0000000e+00 0.0000000e+00)
1.32548        	(1.0116425e-05 1.0282420e-02 1.0797418e-19)	(1.0116425e-05 1.0282420e-02 1.0797418e-19)	(0.0000000e+00 0.0000000e+00 0.0000000e+00)	(0.0000000e+00 0.0000000e+00 0.0000000e+00)
1.32645        	(1.1581679e-05 1.0264276e-02 -1.4423873e-19)	(1.1581679e-05 1.0264276e-02 -1.4423873e-19)	(0.0000000e+00 0.0000000e+00 0.0000000e+00)	(0.0000000e+00 0.0000000e+00 0.0000000e+00)
1.32741        	(1.0089855e-05 1.0279306e-02 5.4387570e-20)	(1.0089855e-05 1.0279306e-02 5.4387570e-20)	(0.0000000e+00 0.0000000e+00 0.0000000e+00)	(0.0000000e+00 0.0000000e+00 0.0000000e+00)
1.32838        	(8.8938167e-06 1.0264765e-02 -3.3403935e-19)	(8.8938167e-06 1.0264765e-02 -3.3403935e-19)	(0.0000000e+00 0.0000000e+00 0.0000000e+00)	(0.0000000e+00 0.0000000e+00 0.0000000e+00)
1.32935        	(1.0443414e-05 1.0271974e-02 6.0155963e-20)	(1.0443414e-05 1.0271974e-02 6.0155963e-20)	(0.0000000e+00 0.0000000e+00 0.0000000e+00)	(0.0000000e+00 0.0000000e+00 0.0000000e+00)
1.33032        	(8.2210678e-06 1.0262670e-02 -9.4261820e-20)	(8.2210678e-06 1.0262670e-02 -9.4261820e-20)	(0.0000000e+00 0.0000000e+00 0.0000000e+00)	(0.0000000e+00 0.0000000e+00 0.0000000e+00)
1.33129        	(8.7430790e-06 1.0270765e-02 -3.6690248e-20)	(8.7430790e-06 1.0270765e-02 -3.6690248e-20)	(0.0000000e+00 0.0000000e+00 0.0000000e+00)	(0.0000000e+00 0.0000000e+00 0.0000000e+00)
1.33225        	(7.1508706e-06 1.0263125e-02 2.5630976e-20)	(7.1508706e-06 1.0263125e-02 2.5630976e-20)	(0.0000000e+00 0.0000000e+00 0.0000000e+00)	(0.0000000e+00 0.0000000e+00 0.0000000e+00)
1.33322        	(6.6063299e-06 1.0269024e-02 -1.2184595e-19)	(6.6063299e-06 1.0269024e-02 -1.2184595e-19)	(0.0000000e+00 0.0000000e+00 0.0000000e+00)	(0.0000000e+00 0.0000000e+00 0.0000000e+00)
1.33419        	(5.9375243e-06 1.0258519e-02 4.9276553e-19)	(5.9375243e-06 1.0258519e-02 4.9276553e-19)	(0.0000000e+00 0.0000000e+00 0.0000000e+00)	(0.0000000e+00 0.0000000e+00 0.0000000e+00)
1.33516        	(7.0298551e-06 1.0258960e-02 -2.0402750e-19)	(7.0298551e-06 1.0258960e-02 -2.0402750e-19)	(0.0000000e+00 0.0000000e+00 0.0000000e+00)	(0.0000000e+00 0.0000000e+00 0.0000000e+00)
1.33613        	(7.6514305e-06 1.0251555e-02 -2.1831105e-19)	(7.6514305e-06 1.0251555e-02 -2.1831105e-19)	(0.0000000e+00 0.0000000e+00 0.0000000e+00)	(0.0000000e+00 0.0000000e+00 0.0000000e+00)
1.33709        	(7.8228125e-06 1.0257597e-02 2.7813940e-20)	(7.8228125e-06 1.0257597e-02 2.7813940e-20)	(0.0000000e+00 0.0000000e+00 0.0000000e+00)	(0.0000000e+00 0.0000000e+00 0.0000000e+00)
1.33806        	(8.7095981e-06 1.0255736e-02 -2.0831554e-19)	(8.7095981e-06 1.0255736e-02 -2.0831554e-19)	(0.0000000e+00 0.0000000e+00 0.0000000e+00)	(0.0000000e+00 0.0000000e+00 0.0000000e+00)
1.33903        	(9.2250087e-06 1.0258120e-02 -4.1499337e-20)	(9.2250087e-06 1.0258120e-02 -4.1499337e-20)	(0.0000000e+00 0.0000000e+00 0.0000000e+00)	(0.0000000e+00 0.0000000e+00 0.0000000e+00)
1.34           	(1.0852301e-05 1.0249477e-02 5.6489340e-21)	(1.0852301e-05 1.0249477e-02 5.6489340e-21)	(0.0000000e+00 0.0000000e+00 0.0000000e+00)	(0.0000000e+00 0.0000000e+00 0.0000000e+00)
1.34096        	(1.2048220e-05 1.0250911e-02 1.5056886e-21)	(1.2048220e-05 1.0250911e-02 1.5056886e-21)	(0.0000000e+00 0.0000000e+00 0.0000000e+00)	(0.0000000e+00 0.0000000e+00 0.0000000e+00)
1.34193        	(1.4585019e-05 1.0245193e-02 1.5848295e-19)	(1.4585019e-05 1.0245193e-02 1.5848295e-19)	(0.0000000e+00 0.0000000e+00 0.0000000e+00)	(0.0000000e+00 0.0000000e+00 0.0000000e+00)
1.3429         	(1.3720412e-05 1.0251072e-02 1.5677055e-19)	(1.3720412e-05 1.0251072e-02 1.5677055e-19)	(0.0000000e+00 0.0000000e+00 0.0000000e+00)	(0.0000000e+00 0.0000000e+00 0.0000000e+00)
1.34387        	(1.4683142e-05 1.0242379e-02 -1.0114597e-19)	(1.4683142e-05 1.0242379e-02 -1.0114597e-19)	(0.0000000e+00 0.0000000e+00 0.0000000e+00)	(0.0000000e+00 0.0000000e+00 0.0000000e+00)
1.34484        	(1.1891806e-05 1.0240885e-02 3.7852811e-20)	(1.1891806e-05 1.0240885e-02 3.7852811e-20)	(0.0000000e+00 0.0000000e+00 0.0000000e+00)	(0.0000000e+00 0.0000000e+00 0.0000000e+00)
1.3458         	(9.8555631e-06 1.0235636e-02 -1.0682685e-20)	(9.8555631e-06 1.0235636e-02 -1.0682685e-20)	(0.0000000e+00 0.0000000e+00 0.0000000e+00)	(0.0000000e+00 0.0000000e+00 0.0000000e+00)
1.34677        	(7.6527080e-06 1.0236365e-02 -2.7996291e-20)	(7.6527080e-06 1.0236365e-02 -2.7996291e-20)	(0.0000000e+00 0.0000000e+00 0.0000000e+00)	(0.0000000e+00 0.0000000e+00 0.0000000e+00)
1.34774        	(7.7469602e-06 1.0232935e-02 1.9144896e-19)	(7.7469602e-06 1.0232935e-02 1.9144896e-19)	(0.0000000e+00 0.0000000e+00 0.0000000e+00)	(0.0000000e+00 0.0000000e+00 0.0000000e+00)
1.34871        	(9.4415927e-06 1.0233118e-02 -2.9564974e-19)	(9.4415927e-06 1.0233118e-02 -2.9564974e-19)	(0.0000000e+00 0.0000000e+00 0.0000000e+00)	(0.0000000e+00 0.0000000e+00 0.0000000e+00)
1.34967        	(8.5311494e-06 1.0231875e-02 8.8034197e-20)	(8.5311494e-06 1.0231875e-02 8.8034197e-20)	(0.0000000e+00 0.0000000e+00 0.0000000e+00)	(0.0000000e+00 0.0000000e+00 0.0000000e+00)
1.35064        	(1.4867601e-05 1.0233853e-02 -2.4885252e-19)	(1.4867601e-05 1.0233853e-02 -2.4885252e-19)	(0.0000000e+00 0.0000000e+00 0.0000000e+00)	(0.0000000e+00 0.0000000e+00 0.0000000e+00)
1.35161        	(1.3520589e-05 1.0235710e-02 1.6331352e-20)	(1.3520589e-05 1.0235710e-02 1.6331352e-20)	(0.0000000e+00 0.0000000e+00 0.0000000e+00)	(0.0000000e+00 0.0000000e+00 0.0000000e+00)