# Moment       
# CofR         : (0.0000000e+00 0.0000000e+00 0.0000000e+00)
#
# Time         	(total_x total_y total_z)	(pressureFluid_x pressureFluid_y pressureFluid_z)	(pressureParticle_x pressureParticle_y pressureParticle_z)	(viscous_x viscous_y viscous_z)
1.20102        	(4.0041556e-06 3.5835871e-08 1.1026136e-05)	(4.0041556e-06 3.5835871e-08 1.1026136e-05)	(0.0000000e+00 0.0000000e+00 0.0000000e+00)	(0.0000000e+00 0.0000000e+00 0.0000000e+00)
1.20203        	(3.9558159e-06 -2.4747462e-08 9.6338460e-06)	(3.9558159e-06 -2.4747462e-08 9.6338460e-06)	(0.0000000e+00 0.0000000e+00 0.0000000e+00)	(0.0000000e+00 0.0000000e+00 0.0000000e+00)
1.20305        	(4.0303247e-06 7.7324767e-08 1.1968881e-05)	(4.0303247e-06 7.7324767e-08 1.1968881e-05)	(0.0000000e+00 0.0000000e+00 0.0000000e+00)	(0.0000000e+00 0.0000000e+00 0.0000000e+00)
1.20407        	(3.9320989e-06 -5.4584015e-08 8.9557273e-06)	(3.9320989e-06 -5.4584015e-08 8.9557273e-06)	(0.0000000e+00 0.0000000e+00 0.0000000e+00)	(0.0000000e+00 0.0000000e+00 0.0000000e+00)
1.20509        	(4.0218088e-06 9.7863432e-08 1.2381166e-05)	(4.0218088e-06 9.7863432e-08 1.2381166e-05)	(0.0000000e+00 0.0000000e+00 0.0000000e+00)	(0.0000000e+00 0.0000000e+00 0.0000000e+00)
1.20611        	(3.9291268e-06 -7.2487564e-08 8.5822574e-06)	(3.9291268e-06 -7.2487564e-08 8.5822574e-06)	(0.0000000e+00 0.0000000e+00 0.0000000e+00)	(0.0000000e+00 0.0000000e+00 0.0000000e+00)
1.20713        	(4.0273505e-06 1.0812273e-07 1.2613290e-05)	(4.0273505e-06 1.0812273e-07 1.2613290e-05)	(0.0000000e+00 0.0000000e+00 0.0000000e+00)	(0.0000000e+00 0.0000000e+00 0.0000000e+00)
1.20815        	(3.9178848e-06 -8.0199550e-08 8.4012901e-06)	(3.9178848e-06 -8.0199550e-08 8.4012901e-06)	(0.0000000e+00 0.0000000e+00 0.0000000e+00)	(0.0000000e+00 0.0000000e+00 0.0000000e+00)
1.20917        	(4.0171613e-06 1.0873570e-07 1.2602966e-05)	(4.0171613e-06 1.0873570e-07 1.2602966e-05)	(0.0000000e+00 0.0000000e+00 0.0000000e+00)	(0.0000000e+00 0.0000000e+00 0.0000000e+00)
1.21019        	(3.9426994e-06 -8.2613666e-08 8.4237483e-06)	(3.9426994e-06 -8.2613666e-08 8.4237483e-06)	(0.0000000e+00 0.0000000e+00 0.0000000e+00)	(0.0000000e+00 0.0000000e+00 0.0000000e+00)
1.21121        	(4.0097081e-06 1.0667438e-07 1.2543819e-05)	(4.0097081e-06 1.0667438e-07 1.2543819e-05)	(0.0000000e+00 0.0000000e+00 0.0000000e+00)	(0.0000000e+00 0.0000000e+00 0.0000000e+00)
1.21224        	(3.9336171e-06 -7.7827508e-08 8.5087866e-06)	(3.9336171e-06 -7.7827508e-08 8.5087866e-06)	(0.0000000e+00 0.0000000e+00 0.0000000e+00)	(0.0000000e+00 0.0000000e+00 0.0000000e+00)
1.21326        	(4.0020569e-06 1.0246928e-07 1.2439600e-05)	(4.0020569e-06 1.0246928e-07 1.2439600e-05)	(0.0000000e+00 0.0000000e+00 0.0000000e+00)	(0.0000000e+00 0.0000000e+00 0.0000000e+00)
1.21428        	(3.9283496e-06 -7.2247745e-08 8.6195833e-06)	(3.9283496e-06 -7.2247745e-08 8.6195833e-06)	(0.0000000e+00 0.0000000e+00 0.0000000e+00)	(0.0000000e+00 0.0000000e+00 0.0000000e+00)
1.2153         	(3.9981073e-06 9.5038731e-08 1.2278078e-05)	(3.9981073e-06 9.5038731e-08 1.2278078e-05)	(0.0000000e+00 0.0000000e+00 0.0000000e+00)	(0.0000000e+00 0.0000000e+00 0.0000000e+00)
1.21632        	(3.9247802e-06 -6.6586165e-08 8.7358706e-06)	(3.9247802e-06 -6.6586165e-08 8.7358706e-06)	(0.0000000e+00 0.0000000e+00 0.0000000e+00)	(0.0000000e+00 0.0000000e+00 0.0000000e+00)
1.21734        	(3.9929509e-06 8.7578751e-08 1.2113175e-05)	(3.9929509e-06 8.7578751e-08 1.2113175e-05)	(0.0000000e+00 0.0000000e+00 0.0000000e+00)	(0.0000000e+00 0.0000000e+00 0.0000000e+00)
1.21836        	(3.9219890e-06 -5.9148465e-08 8.8904157e-06)	(3.9219890e-06 -5.9148465e-08 8.8904157e-06)	(0.0000000e+00 0.0000000e+00 0.0000000e+00)	(0.0000000e+00 0.0000000e+00 0.0000000e+00)
1.21938        	(3.9873084e-06 7.9725493e-08 1.1939193e-05)	(3.9873084e-06 7.9725493e-08 1.1939193e-05)	(0.0000000e+00 0.0000000e+00 0.0000000e+00)	(0.0000000e+00 0.0000000e+00 0.0000000e+00)
1.2204         	(3.9196187e-06 -5.2419847e-08 9.0307274e-06)	(3.9196187e-06 -5.2419847e-08 9.0307274e-06)	(0.0000000e+00 0.0000000e+00 0.0000000e+00)	(0.0000000e+00 0.0000000e+00 0.0000000e+00)
1.22142        	(3.9791648e-06 6.9411517e-08 1.1708173e-05)	(3.9791648e-06 6.9411517e-08 1.1708173e-05)	(0.0000000e+00 0.0000000e+00 0.0000000e+00)	(0.0000000e+00 0.0000000e+00 0.0000000e+00)
1.22245        	(3.9160033e-06 -4.6772864e-08 9.1449030e-06)	(3.9160033e-06 -4.6772864e-08 9.1449030e-06)	(0.0000000e+00 0.0000000e+00 0.0000000e+00)	(0.0000000e+00 0.0000000e+00 0.0000000e+00)
1.22347        	(3.9574108e-06 6.1875778e-08 1.1499850e-05)	(3.9574108e-06 6.1875778e-08 1.1499850e-05)	(0.0000000e+00 0.0000000e+00 0.0000000e+00)	(0.0000000e+00 0.0000000e+00 0.0000000e+00)
1.2245         	(3.9198354e-06 -4.2154290e-08 9.2566006e-06)	(3.9198354e-06 -4.2154290e-08 9.2566006e-06)	(0.0000000e+00 0.0000000e+00 0.0000000e+00)	(0.0000000e+00 0.0000000e+00 0.0000000e+00)
1.22552        	(3.9621460e-06 5.4534199e-08 1.1364210e-05)	(3.9621460e-06 5.4534199e-08 1.1364210e-05)	(0.0000000e+00 0.0000000e+00 0.0000000e+00)	(0.0000000e+00 0.0000000e+00 0.0000000e+00)
1.22654        	(3.9342777e-06 -3.6943895e-08 9.4074848e-06)	(3.9342777e-06 -3.6943895e-08 9.4074848e-06)	(0.0000000e+00 0.0000000e+00 0.0000000e+00)	(0.0000000e+00 0.0000000e+00 0.0000000e+00)
1.22756        	(3.9515974e-06 4.8190515e-08 1.1209894e-05)	(3.9515974e-06 4.8190515e-08 1.1209894e-05)	(0.0000000e+00 0.0000000e+00 0.0000000e+00)	(0.0000000e+00 0.0000000e+00 0.0000000e+00)
1.22858        	(3.9213451e-06 -2.8706831e-08 9.5495367e-06)	(3.9213451e-06 -2.8706831e-08 9.5495367e-06)	(0.0000000e+00 0.0000000e+00 0.0000000e+00)	(0.0000000e+00 0.0000000e+00 0.0000000e+00)
1.22959        	(3.9380524e-06 4.5007679e-08 1.1113076e-05)	(3.9380524e-06 4.5007679e-08 1.1113076e-05)	(0.0000000e+00 0.0000000e+00 0.0000000e+00)	(0.0000000e+00 0.0000000e+00 0.0000000e+00)
1.23061        	(3.9252144e-06 -2.4745042e-08 9.6464895e-06)	(3.9252144e-06 -2.4745042e-08 9.6464895e-06)	(0.0000000e+00 0.0000000e+00 0.0000000e+00)	(0.0000000e+00 0.0000000e+00 0.0000000e+00)
1.23162        	(3.9281614e-06 4.1104452e-08 1.1010915e-05)	(3.9281614e-06 4.1104452e-08 1.1010915e-05)	(0.0000000e+00 0.0000000e+00 0.0000000e+00)	(0.0000000e+00 0.0000000e+00 0.0000000e+00)
1.23264        	(3.9093457e-06 -1.7655927e-08 9.7563164e-06)	(3.9093457e-06 -1.7655927e-08 9.7563164e-06)	(0.0000000e+00 0.0000000e+00 0.0000000e+00)	(0.0000000e+00 0.0000000e+00 0.0000000e+00)
1.23366        	(3.9192813e-06 3.7121931e-08 1.0909817e-05)	(3.9192813e-06 3.7121931e-08 1.0909817e-05)	(0.0000000e+00 0.0000000e+00 0.0000000e+00)	(0.0000000e+00 0.0000000e+00 0.0000000e+00)
1.23468        	(3.8949649e-06 -1.5864608e-08 9.7607682e-06)	(3.8949649e-06 -1.5864608e-08 9.7607682e-06)	(0.0000000e+00 0.0000000e+00 0.0000000e+00)	(0.0000000e+00 0.0000000e+00 0.0000000e+00)
1.2357         	(3.9134918e-06 3.2133101e-08 1.0796141e-05)	(3.9134918e-06 3.2133101e-08 1.0796141e-05)	(0.0000000e+00 0.0000000e+00 0.0000000e+00)	(0.0000000e+00 0.0000000e+00 0.0000000e+00)
1.23673        	(3.8942971e-06 -1.2365192e-08 9.8355548e-06)	(3.8942971e-06 -1.2365192e-08 9.8355548e-06)	(0.0000000e+00 0.0000000e+00 0.0000000e+00)	(0.0000000e+00 0.0000000e+00 0.0000000e+00)
1.23775        	(3.8968641e-06 2.9145919e-08 1.0695538e-05)	(3.8968641e-06 2.9145919e-08 1.0695538e-05)	(0.0000000e+00 0.0000000e+00 0.0000000e+00)	(0.0000000e+00 0.0000000e+00 0.0000000e+00)
1.23877        	(3.8907102e-06 -9.7450364e-09 9.8844822e-06)	(3.8907102e-06 -9.7450364e-09 9.8844822e-06)	(0.0000000e+00 0.0000000e+00 0.0000000e+00)	(0.0000000e+00 0.0000000e+00 0.0000000e+00)
1.23979        	(3.9094365e-06 2.4914608e-08 1.0645113e-05)	(3.9094365e-06 2.4914608e-08 1.0645113e-05)	(0.0000000e+00 0.0000000e+00 0.0000000e+00)	(0.0000000e+00 0.0000000e+00 0.0000000e+00)
1.24081        	(3.8841566e-06 -7.7204315e-09 9.9132620e-06)	(3.8841566e-06 -7.7204315e-09 9.9132620e-06)	(0.0000000e+00 0.0000000e+00 0.0000000e+00)	(0.0000000e+00 0.0000000e+00 0.0000000e+00)
1.24182        	(3.9097011e-06 2.2658890e-08 1.0603263e-05)	(3.9097011e-06 2.2658890e-08 1.0603263e-05)	(0.0000000e+00 0.0000000e+00 0.0000000e+00)	(0.0000000e+00 0.0000000e+00 0.0000000e+00)
1.24284        	(3.8770498e-06 -5.9480265e-09 9.9352266e-06)	(3.8770498e-06 -5.9480265e-09 9.9352266e-06)	(0.0000000e+00 0.0000000e+00 0.0000000e+00)	(0.0000000e+00 0.0000000e+00 0.0000000e+00)
1.24384        	(3.8889237e-06 1.8042656e-08 1.0458535e-05)	(3.8889237e-06 1.8042656e-08 1.0458535e-05)	(0.0000000e+00 0.0000000e+00 0.0000000e+00)	(0.0000000e+00 0.0000000e+00 0.0000000e+00)
1.24485        	(3.8769374e-06 -6.4225353e-09 9.9292048e-06)	(3.8769374e-06 -6.4225353e-09 9.9292048e-06)	(0.0000000e+00 0.0000000e+00 0.0000000e+00)	(0.0000000e+00 0.0000000e+00 0.0000000e+00)
1.24586        	(3.8787267e-06 1.5432924e-08 1.0382272e-05)	(3.8787267e-06 1.5432924e-08 1.0382272e-05)	(0.0000000e+00 0.0000000e+00 0.0000000e+00)	(0.0000000e+00 0.0000000e+00 0.0000000e+00)
1.24687        	(3.8632119e-06 -5.6112786e-09 9.9140108e-06)	(3.8632119e-06 -5.6112786e-09 9.9140108e-06)	(0.0000000e+00 0.0000000e+00 0.0000000e+00)	(0.0000000e+00 0.0000000e+00 0.0000000e+00)
1.24787        	(3.8672470e-06 1.1981712e-08 1.0285483e-05)	(3.8672470e-06 1.1981712e-08 1.0285483e-05)	(0.0000000e+00 0.0000000e+00 0.0000000e+00)	(0.0000000e+00 0.0000000e+00 0.0000000e+00)
1.24888        	(3.8578378e-06 -5.3908697e-09 9.9082981e-06)	(3.8578378e-06 -5.3908697e-09 9.9082981e-06)	(0.0000000e+00 0.0000000e+00 0.0000000e+00)	(0.0000000e+00 0.0000000e+00 0.0000000e+00)
1.24989        	(3.8657865e-06 1.1037702e-08 1.0265875e-05)	(3.8657865e-06 1.1037702e-08 1.0265875e-05)	(0.0000000e+00 0.0000000e+00 0.0000000e+00)	(0.0000000e+00 0.0000000e+00 0.0000000e+00)
1.25091        	(3.8414757e-06 -4.0237580e-09 9.8973407e-06)	(3.8414757e-06 -4.0237580e-09 9.8973407e-06)	(0.0000000e+00 0.0000000e+00 0.0000000e+00)	(0.0000000e+00 0.0000000e+00 0.0000000e+00)
1.25192        	(3.8536473e-06 6.7216138e-09 1.0149760e-05)	(3.8536473e-06 6.7216138e-09 1.0149760e-05)	(0.0000000e+00 0.0000000e+00 0.0000000e+00)	(0.0000000e+00 0.0000000e+00 0.0000000e+00)
1.25294        	(3.8384247e-06 -4.7181918e-09 9.8788249e-06)	(3.8384247e-06 -4.7181918e-09 9.8788249e-06)	(0.0000000e+00 0.0000000e+00 0.0000000e+00)	(0.0000000e+00 0.0000000e+00 0.0000000e+00)
1.25395        	(3.8535337e-06 7.4213235e-09 1.0167096e-05)	(3.8535337e-06 7.4213235e-09 1.0167096e-05)	(0.0000000e+00 0.0000000e+00 0.0000000e+00)	(0.0000000e+00 0.0000000e+00 0.0000000e+00)
1.25496        	(3.8335896e-06 -2.9504682e-09 9.9057348e-06)	(3.8335896e-06 -2.9504682e-09 9.9057348e-06)	(0.0000000e+00 0.0000000e+00 0.0000000e+00)	(0.0000000e+00 0.0000000e+00 0.0000000e+00)
1.25597        	(3.8594986e-06 8.1063182e-09 1.0199839e-05)	(3.8594986e-06 8.1063182e-09 1.0199839e-05)	(0.0000000e+00 0.0000000e+00 0.0000000e+00)	(0.0000000e+00 0.0000000e+00 0.0000000e+00)
1.25697        	(3.8329301e-06 -2.3697536e-10 9.9626197e-06)	(3.8329301e-06 -2.3697536e-10 9.9626197e-06)	(0.0000000e+00 0.0000000e+00 0.0000000e+00)	(0.0000000e+00 0.0000000e+00 0.0000000e+00)
1.25798        	(3.8501574e-06 7.7079064e-09 1.0170680e-05)	(3.8501574e-06 7.7079064e-09 1.0170680e-05)	(0.0000000e+00 0.0000000e+00 0.0000000e+00)	(0.0000000e+00 0.0000000e+00 0.0000000e+00)
1.25898        	(3.8201926e-06 1.1099168e-09 9.9601631e-06)	(3.8201926e-06 1.1099168e-09 9.9601631e-06)	(0.0000000e+00 0.0000000e+00 0.0000000e+00)	(0.0000000e+00 0.0000000e+00 0.0000000e+00)
1.25998        	(3.8473949e-06 8.3926061e-09 1.0180580e-05)	(3.8473949e-06 8.3926061e-09 1.0180580e-05)	(0.0000000e+00 0.0000000e+00 0.0000000e+00)	(0.0000000e+00 0.0000000e+00 0.0000000e+00)
1.26098        	(3.8186587e-06 2.9469359e-09 9.9967043e-06)	(3.8186587e-06 2.9469359e-09 9.9967043e-06)	(0.0000000e+00 0.0000000e+00 0.0000000e+00)	(0.0000000e+00 0.0000000e+00 0.0000000e+00)
1.26198        	(3.8404668e-06 7.3385628e-09 1.0144249e-05)	(3.8404668e-06 7.3385628e-09 1.0144249e-05)	(0.0000000e+00 0.0000000e+00 0.0000000e+00)	(0.0000000e+00 0.0000000e+00 0.0000000e+00)
1.26298        	(3.8128243e-06 2.0790399e-09 9.9670211e-06)	(3.8128243e-06 2.0790399e-09 9.9670211e-06)	(0.0000000e+00 0.0000000e+00 0.0000000e+00)	(0.0000000e+00 0.0000000e+00 0.0000000e+00)
1.26399        	(3.8413081e-06 6.2239580e-09 1.0126893e-05)	(3.8413081e-06 6.2239580e-09 1.0126893e-05)	(0.0000000e+00 0.0000000e+00 0.0000000e+00)	(0.0000000e+00 0.0000000e+00 0.0000000e+00)
1.265          	(3.8004202e-06 1.2384016e-09 9.9207677e-06)	(3.8004202e-06 1.2384016e-09 9.9207677e-06)	(0.0000000e+00 0.0000000e+00 0.0000000e+00)	(0.0000000e+00 0.0000000e+00 0.0000000e+00)
1.266          	(3.8280024e-06 4.4393646e-09 1.0059088e-05)	(3.8280024e-06 4.4393646e-09 1.0059088e-05)	(0.0000000e+00 0.0000000e+00 0.0000000e+00)	(0.0000000e+00 0.0000000e+00 0.0000000e+00)
1.267          	(3.7892621e-06 1.6810431e-09 9.9037300e-06)	(3.7892621e-06 1.6810431e-09 9.9037300e-06)	(0.0000000e+00 0.0000000e+00 0.0000000e+00)	(0.0000000e+00 0.0000000e+00 0.0000000e+00)
1.268          	(3.8316790e-06 3.0637437e-09 1.0043764e-05)	(3.8316790e-06 3.0637437e-09 1.0043764e-05)	(0.0000000e+00 0.0000000e+00 0.0000000e+00)	(0.0000000e+00 0.0000000e+00 0.0000000e+00)
1.269          	(3.7815957e-06 -6.9384547e-10 9.8385631e-06)	(3.7815957e-06 -6.9384547e-10 9.8385631e-06)	(0.0000000e+00 0.0000000e+00 0.0000000e+00)	(0.0000000e+00 0.0000000e+00 0.0000000e+00)
1.26999        	(3.8299784e-06 1.7930668e-09 1.0016522e-05)	(3.8299784e-06 1.7930668e-09 1.0016522e-05)	(0.0000000e+00 0.0000000e+00 0.0000000e+00)	(0.0000000e+00 0.0000000e+00 0.0000000e+00)
1.27098        	(3.7835787e-06 -2.8842874e-10 9.8548751e-06)	(3.7835787e-06 -2.8842874e-10 9.8548751e-06)	(0.0000000e+00 0.0000000e+00 0.0000000e+00)	(0.0000000e+00 0.0000000e+00 0.0000000e+00)
1.27197        	(3.8068605e-06 8.7377080e-10 9.9405473e-06)	(3.8068605e-06 8.7377080e-10 9.9405473e-06)	(0.0000000e+00 0.0000000e+00 0.0000000e+00)	(0.0000000e+00 0.0000000e+00 0.0000000e+00)
1.27295        	(3.7894530e-06 -6.2092302e-10 9.8663204e-06)	(3.7894530e-06 -6.2092302e-10 9.8663204e-06)	(0.0000000e+00 0.0000000e+00 0.0000000e+00)	(0.0000000e+00 0.0000000e+00 0.0000000e+00)
1.27394        	(3.8020033e-06 7.8964312e-10 9.9290378e-06)	(3.8020033e-06 7.8964312e-10 9.9290378e-06)	(0.0000000e+00 0.0000000e+00 0.0000000e+00)	(0.0000000e+00 0.0000000e+00 0.0000000e+00)
1.27492        	(3.7842255e-06 -9.0911658e-10 9.8496976e-06)	(3.7842255e-06 -9.0911658e-10 9.8496976e-06)	(0.0000000e+00 0.0000000e+00 0.0000000e+00)	(0.0000000e+00 0.0000000e+00 0.0000000e+00)
1.27591        	(3.7954138e-06 7.8986056e-10 9.9146854e-06)	(3.7954138e-06 7.8986056e-10 9.9146854e-06)	(0.0000000e+00 0.0000000e+00 0.0000000e+00)	(0.0000000e+00 0.0000000e+00 0.0000000e+00)
1.27689        	(3.7782306e-06 -3.0827025e-10 9.8490409e-06)	(3.7782306e-06 -3.0827025e-10 9.8490409e-06)	(0.0000000e+00 0.0000000e+00 0.0000000e+00)	(0.0000000e+00 0.0000000e+00 0.0000000e+00)
1.27787        	(3.7853933e-06 4.4615734e-10 9.8843916e-06)	(3.7853933e-06 4.4615734e-10 9.8843916e-06)	(0.0000000e+00 0.0000000e+00 0.0000000e+00)	(0.0000000e+00 0.0000000e+00 0.0000000e+00)
1.27886        	(3.7730587e-06 -8.4271187e-10 9.8275231e-06)	(3.7730587e-06 -8.4271187e-10 9.8275231e-06)	(0.0000000e+00 0.0000000e+00 0.0000000e+00)	(0.0000000e+00 0.0000000e+00 0.0000000e+00)
1.27985        	(3.7940938e-06 3.4315175e-10 9.9078043e-06)	(3.7940938e-06 3.4315175e-10 9.9078043e-06)	(0.0000000e+00 0.0000000e+00 0.0000000e+00)	(0.0000000e+00 0.0000000e+00 0.0000000e+00)
1.28084        	(3.7493177e-06 6.4713159e-10 9.7984789e-06)	(3.7493177e-06 6.4713159e-10 9.7984789e-06)	(0.0000000e+00 0.0000000e+00 0.0000000e+00)	(0.0000000e+00 0.0000000e+00 0.0000000e+00)
1.28182        	(3.7921162e-06 9.1040680e-10 9.9168867e-06)	(3.7921162e-06 9.1040680e-10 9.9168867e-06)	(0.0000000e+00 0.0000000e+00 0.0000000e+00)	(0.0000000e+00 0.0000000e+00 0.0000000e+00)
1.2828         	(3.7431713e-06 1.5953873e-09 9.8043262e-06)	(3.7431713e-06 1.5953873e-09 9.8043262e-06)	(0.0000000e+00 0.0000000e+00 0.0000000e+00)	(0.0000000e+00 0.0000000e+00 0.0000000e+00)
1.28378        	(3.7936291e-06 1.0839096e-09 9.9270774e-06)	(3.7936291e-06 1.0839096e-09 9.9270774e-06)	(0.0000000e+00 0.0000000e+00 0.0000000e+00)	(0.0000000e+00 0.0000000e+00 0.0000000e+00)
1.28475        	(3.7483551e-06 9.7702665e-10 9.8080524e-06)	(3.7483551e-06 9.7702665e-10 9.8080524e-06)	(0.0000000e+00 0.0000000e+00 0.0000000e+00)	(0.0000000e+00 0.0000000e+00 0.0000000e+00)
1.28573        	(3.7824821e-06 1.0274322e-10 9.8808584e-06)	(3.7824821e-06 1.0274322e-10 9.8808584e-06)	(0.0000000e+00 0.0000000e+00 0.0000000e+00)	(0.0000000e+00 0.0000000e+00 0.0000000e+00)
1.28671        	(3.7475679e-06 8.0206676e-10 9.8051449e-06)	(3.7475679e-06 8.0206676e-10 9.8051449e-06)	(0.0000000e+00 0.0000000e+00 0.0000000e+00)	(0.0000000e+00 0.0000000e+00 0.0000000e+00)
1.28767        	(3.7602242e-06 1.2174355e-09 9.8479262e-06)	(3.7602242e-06 1.2174355e-09 9.8479262e-06)	(0.0000000e+00 0.0000000e+00 0.0000000e+00)	(0.0000000e+00 0.0000000e+00 0.0000000e+00)
1.28864        	(3.7541605e-06 7.9266481e-10 9.8248306e-06)	(3.7541605e-06 7.9266481e-10 9.8248306e-06)	(0.0000000e+00 0.0000000e+00 0.0000000e+00)	(0.0000000e+00 0.0000000e+00 0.0000000e+00)
1.28961        	(3.7613109e-06 -9.2455160e-10 9.8101591e-06)	(3.7613109e-06 -9.2455160e-10 9.8101591e-06)	(0.0000000e+00 0.0000000e+00 0.0000000e+00)	(0.0000000e+00 0.0000000e+00 0.0000000e+00)
1.29058        	(3.7511173e-06 -1.5519147e-09 9.7721791e-06)	(3.7511173e-06 -1.5519147e-09 9.7721791e-06)	(0.0000000e+00 0.0000000e+00 0.0000000e+00)	(0.0000000e+00 0.0000000e+00 0.0000000e+00)
1.29155        	(3.7568167e-06 -9.5754022e-10 9.8004016e-06)	(3.7568167e-06 -9.5754022e-10 9.8004016e-06)	(0.0000000e+00 0.0000000e+00 0.0000000e+00)	(0.0000000e+00 0.0000000e+00 0.0000000e+00)
1.29252        	(3.7464327e-06 -1.8243506e-09 9.7570809e-06)	(3.7464327e-06 -1.8243506e-09 9.7570809e-06)	(0.0000000e+00 0.0000000e+00 0.0000000e+00)	(0.0000000e+00 0.0000000e+00 0.0000000e+00)
1.29349        	(3.7647040e-06 -5.9128296e-10 9.8310739e-06)	(3.7647040e-06 -5.9128296e-10 9.8310739e-06)	(0.0000000e+00 0.0000000e+00 0.0000000e+00)	(0.0000000e+00 0.0000000e+00 0.0000000e+00)
1.29447        	(3.7301254e-06 -1.2133337e-09 9.7294358e-06)	(3.7301254e-06 -1.2133337e-09 9.7294358e-06)	(0.0000000e+00 0.0000000e+00 0.0000000e+00)	(0.0000000e+00 0.0000000e+00 0.0000000e+00)
1.29545        	(3.7479239e-06 1.4756688e-10 9.8047696e-06)	(3.7479239e-06 1.4756688e-10 9.8047696e-06)	(0.0000000e+00 0.0000000e+00 0.0000000e+00)	(0.0000000e+00 0.0000000e+00 0.0000000e+00)
1.29642        	(3.7277057e-06 7.0909711e-10 9.7645440e-06)	(3.7277057e-06 7.0909711e-10 9.7645440e-06)	(0.0000000e+00 0.0000000e+00 0.0000000e+00)	(0.0000000e+00 0.0000000e+00 0.0000000e+00)
1.2974         	(3.7408483e-06 -6.4058494e-10 9.7730150e-06)	(3.7408483e-06 -6.4058494e-10 9.7730150e-06)	(0.0000000e+00 0.0000000e+00 0.0000000e+00)	(0.0000000e+00 0.0000000e+00 0.0000000e+00)
1.29837        	(3.7072277e-06 -3.6960519e-10 9.6918329e-06)	(3.7072277e-06 -3.6960519e-10 9.6918329e-06)	(0.0000000e+00 0.0000000e+00 0.0000000e+00)	(0.0000000e+00 0.0000000e+00 0.0000000e+00)
1.29934        	(3.7446980e-06 -7.7335252e-10 9.7830389e-06)	(3.7446980e-06 -7.7335252e-10 9.7830389e-06)	(0.0000000e+00 0.0000000e+00 0.0000000e+00)	(0.0000000e+00 0.0000000e+00 0.0000000e+00)
1.3003         	(3.7170958e-06 -2.9918310e-10 9.7216818e-06)	(3.7170958e-06 -2.9918310e-10 9.7216818e-06)	(0.0000000e+00 0.0000000e+00 0.0000000e+00)	(0.0000000e+00 0.0000000e+00 0.0000000e+00)
1.30127        	(3.7411814e-06 -1.1660381e-09 9.7685483e-06)	(3.7411814e-06 -1.1660381e-09 9.7685483e-06)	(0.0000000e+00 0.0000000e+00 0.0000000e+00)	(0.0000000e+00 0.0000000e+00 0.0000000e+00)
1.30224        	(3.7164505e-06 -2.1848610e-10 9.7242305e-06)	(3.7164505e-06 -2.1848610e-10 9.7242305e-06)	(0.0000000e+00 0.0000000e+00 0.0000000e+00)	(0.0000000e+00 0.0000000e+00 0.0000000e+00)
1.30321        	(3.7336917e-06 -5.7767520e-10 9.7634336e-06)	(3.7336917e-06 -5.7767520e-10 9.7634336e-06)	(0.0000000e+00 0.0000000e+00 0.0000000e+00)	(0.0000000e+00 0.0000000e+00 0.0000000e+00)
1.30418        	(3.7150962e-06 -1.2032971e-09 9.7034448e-06)	(3.7150962e-06 -1.2032971e-09 9.7034448e-06)	(0.0000000e+00 0.0000000e+00 0.0000000e+00)	(0.0000000e+00 0.0000000e+00 0.0000000e+00)
1.30514        	(3.7302071e-06 -1.4046956e-09 9.7402660e-06)	(3.7302071e-06 -1.4046956e-09 9.7402660e-06)	(0.0000000e+00 0.0000000e+00 0.0000000e+00)	(0.0000000e+00 0.0000000e+00 0.0000000e+00)
1.30611        	(3.7124203e-06 -1.3707127e-09 9.6956801e-06)	(3.7124203e-06 -1.3707127e-09 9.6956801e-06)	(0.0000000e+00 0.0000000e+00 0.0000000e+00)	(0.0000000e+00 0.0000000e+00 0.0000000e+00)
1.30708        	(3.7262126e-06 -1.3008332e-09 9.7345272e-06)	(3.7262126e-06 -1.3008332e-09 9.7345272e-06)	(0.0000000e+00 0.0000000e+00 0.0000000e+00)	(0.0000000e+00 0.0000000e+00 0.0000000e+00)
1.30805        	(3.7146879e-06 -3.9558812e-10 9.7238914e-06)	(3.7146879e-06 -3.9558812e-10 9.7238914e-06)	(0.0000000e+00 0.0000000e+00 0.0000000e+00)	(0.0000000e+00 0.0000000e+00 0.0000000e+00)
1.30902        	(3.7247151e-06 -7.7981232e-10 9.7437351e-06)	(3.7247151e-06 -7.7981232e-10 9.7437351e-06)	(0.0000000e+00 0.0000000e+00 0.0000000e+00)	(0.0000000e+00 0.0000000e+00 0.0000000e+00)
1.30999        	(3.7319363e-06 -1.5523187e-09 9.7484272e-06)	(3.7319363e-06 -1.5523187e-09 9.7484272e-06)	(0.0000000e+00 0.0000000e+00 0.0000000e+00)	(0.0000000e+00 0.0000000e+00 0.0000000e+00)
1.31096        	(3.6937150e-06 -1.4892401e-09 9.6508468e-06)	(3.6937150e-06 -1.4892401e-09 9.6508468e-06)	(0.0000000e+00 0.0000000e+00 0.0000000e+00)	(0.0000000e+00 0.0000000e+00 0.0000000e+00)
1.31193        	(3.7269303e-06 -1.7036605e-09 9.7349050e-06)	(3.7269303e-06 -1.7036605e-09 9.7349050e-06)	(0.0000000e+00 0.0000000e+00 0.0000000e+00)	(0.0000000e+00 0.0000000e+00 0.0000000e+00)
1.3129         	(3.7035867e-06 -1.4570432e-09 9.6799998e-06)	(3.7035867e-06 -1.4570432e-09 9.6799998e-06)	(0.0000000e+00 0.0000000e+00 0.0000000e+00)	(0.0000000e+00 0.0000000e+00 0.0000000e+00)
1.31387        	(3.7251661e-06 -3.3100485e-09 9.7005805e-06)	(3.7251661e-06 -3.3100485e-09 9.7005805e-06)	(0.0000000e+00 0.0000000e+00 0.0000000e+00)	(0.0000000e+00 0.0000000e+00 0.0000000e+00)
1.31483        	(3.7036631e-06 -1.6583853e-09 9.6787860e-06)	(3.7036631e-06 -1.6583853e-09 9.6787860e-06)	(0.0000000e+00 0.0000000e+00 0.0000000e+00)	(0.0000000e+00 0.0000000e+00 0.0000000e+00)
1.3158         	(3.7193609e-06 -2.2535284e-09 9.7092969e-06)	(3.7193609e-06 -2.2535284e-09 9.7092969e-06)	(0.0000000e+00 0.0000000e+00 0.0000000e+00)	(0.0000000e+00 0.0000000e+00 0.0000000e+00)
1.31677        	(3.7039541e-06 -2.3970112e-09 9.6673299e-06)	(3.7039541e-06 -2.3970112e-09 9.6673299e-06)	(0.0000000e+00 0.0000000e+00 0.0000000e+00)	(0.0000000e+00 0.0000000e+00 0.0000000e+00)
1.31774        	(3.7148811e-06 -2.5936049e-09 9.6933702e-06)	(3.7148811e-06 -2.5936049e-09 9.6933702e-06)	(0.0000000e+00 0.0000000e+00 0.0000000e+00)	(0.0000000e+00 0.0000000e+00 0.0000000e+00)
1.3187         	(3.7013794e-06 -7.8296936e-10 9.6957361e-06)	(3.7013794e-06 -7.8296936e-10 9.6957361e-06)	(0.0000000e+00 0.0000000e+00 0.0000000e+00)	(0.0000000e+00 0.0000000e+00 0.0000000e+00)
1.31967        	(3.7115812e-06 -1.4221604e-09 9.7109765e-06)	(3.7115812e-06 -1.4221604e-09 9.7109765e-06)	(0.0000000e+00 0.0000000e+00 0.0000000e+00)	(0.0000000e+00 0.0000000e+00 0.0000000e+00)
1.32064        	(3.7006189e-06 -1.0681236e-09 9.6906772e-06)	(3.7006189e-06 -1.0681236e-09 9.6906772e-06)	(0.0000000e+00 0.0000000e+00 0.0000000e+00)	(0.0000000e+00 0.0000000e+00 0.0000000e+00)
1.32161        	(3.7067379e-06 -2.2273209e-09 9.6847517e-06)	(3.7067379e-06 -2.2273209e-09 9.6847517e-06)	(0.0000000e+00 0.0000000e+00 0.0000000e+00)	(0.0000000e+00 0.0000000e+00 0.0000000e+00)
1.32258        	(3.6981010e-06 -1.6873275e-09 9.6742975e-06)	(3.6981010e-06 -1.6873275e-09 9.6742975e-06)	(0.0000000e+00 0.0000000e+00 0.0000000e+00)	(0.0000000e+00 0.0000000e+00 0.0000000e+00)
1.32354        	(3.7043559e-06 -2.1378910e-09 9.6830045e-06)	(3.7043559e-06 -2.1378910e-09 9.6830045e-06)	(0.0000000e+00 0.0000000e+00 0.0000000e+00)	(0.0000000e+00 0.0000000e+00 0.0000000e+00)
1.32451        	(3.6963657e-06 -2.6414533e-09 9.6532483e-06)	(3.6963657e-06 -2.6414533e-09 9.6532483e-06)	(0.0000000e+00 0.0000000e+00 0.0000000e+00)	(0.0000000e+00 0.0000000e+00 0.0000000e+00)
1.32548        	(3.7016711e-06 -3.6419130e-09 9.6484112e-06)	(3.7016711e-06 -3.6419130e-09 9.6484112e-06)	(0.0000000e+00 0.0000000e+00 0.0000000e+00)	(0.0000000e+00 0.0000000e+00 0.0000000e+00)
1.32645        	(3.6951394e-06 -4.1694046e-09 9.6220091e-06)	(3.6951394e-06 -4.1694046e-09 9.6220091e-06)	(0.0000000e+00 0.0000000e+00 0.0000000e+00)	(0.0000000e+00 0.0000000e+00 0.0000000e+00)
1.32741        	(3.7005500e-06 -3.6323477e-09 9.6483989e-06)	(3.7005500e-06 -3.6323477e-09 9.6483989e-06)	(0.0000000e+00 0.0000000e+00 0.0000000e+00)	(0.0000000e+00 0.0000000e+00 0.0000000e+00)
1.32838        	(3.6953152e-06 -3.2017740e-09 9.6446848e-06)	(3.6953152e-06 -3.2017740e-09 9.6446848e-06)	(0.0000000e+00 0.0000000e+00 0.0000000e+00)	(0.0000000e+00 0.0000000e+00 0.0000000e+00)
1.32935        	(3.6979108e-06 -3.7596292e-09 9.6416641e-06)	(3.6979108e-06 -3.7596292e-09 9.6416641e-06)	(0.0000000e+00 0.0000000e+00 0.0000000e+00)	(0.0000000e+00 0.0000000e+00 0.0000000e+00)
1.33032        	(3.6945613e-06 -2.9595844e-09 9.6503425e-06)	(3.6945613e-06 -2.9595844e-09 9.6503425e-06)	(0.0000000e+00 0.0000000e+00 0.0000000e+00)	(0.0000000e+00 0.0000000e+00 0.0000000e+00)
1.33129        	(3.6974754e-06 -3.1475085e-09 9.6556150e-06)	(3.6974754e-06 -3.1475085e-09 9.6556150e-06)	(0.0000000e+00 0.0000000e+00 0.0000000e+00)	(0.0000000e+00 0.0000000e+00 0.0000000e+00)
1.33225        	(3.6947250e-06 -2.5743134e-09 9.6613134e-06)	(3.6947250e-06 -2.5743134e-09 9.6613134e-06)	(0.0000000e+00 0.0000000e+00 0.0000000e+00)	(0.0000000e+00 0.0000000e+00 0.0000000e+00)
1.33322        	(3.6968487e-06 -2.3782788e-09 9.6722451e-06)	(3.6968487e-06 -2.3782788e-09 9.6722451e-06)	(0.0000000e+00 0.0000000e+00 0.0000000e+00)	(0.0000000e+00 0.0000000e+00 0.0000000e+00)
1.33419        	(3.6930669e-06 -2.1375087e-09 9.6685545e-06)	(3.6930669e-06 -2.1375087e-09 9.6685545e-06)	(0.0000000e+00 0.0000000e+00 0.0000000e+00)	(0.0000000e+00 0.0000000e+00 0.0000000e+00)
1.33516        	(3.6932255e-06 -2.5307478e-09 9.6624811e-06)	(3.6932255e-06 -2.5307478e-09 9.6624811e-06)	(0.0000000e+00 0.0000000e+00 0.0000000e+00)	(0.0000000e+00 0.0000000e+00 0.0000000e+00)
1.33613        	(3.6905597e-06 -2.7545150e-09 9.6523935e-06)	(3.6905597e-06 -2.7545150e-09 9.6523935e-06)	(0.0000000e+00 0.0000000e+00 0.0000000e+00)	(0.0000000e+00 0.0000000e+00 0.0000000e+00)
1.33709        	(3.6927348e-06 -2.8162125e-09 9.6583052e-06)	(3.6927348e-06 -2.8162125e-09 9.6583052e-06)	(0.0000000e+00 0.0000000e+00 0.0000000e+00)	(0.0000000e+00 0.0000000e+00 0.0000000e+00)
1.33806        	(3.6920651e-06 -3.1354553e-09 9.6515616e-06)	(3.6920651e-06 -3.1354553e-09 9.6515616e-06)	(0.0000000e+00 0.0000000e+00 0.0000000e+00)	(0.0000000e+00 0.0000000e+00 0.0000000e+00)
1.33903        	(3.6929231e-06 -3.3210031e-09 9.6515332e-06)	(3.6929231e-06 -3.3210031e-09 9.6515332e-06)	(0.0000000e+00 0.0000000e+00 0.0000000e+00)	(0.0000000e+00 0.0000000e+00 0.0000000e+00)
1.34           	(3.6898116e-06 -3.9068284e-09 9.6330177e-06)	(3.6898116e-06 -3.9068284e-09 9.6330177e-06)	(0.0000000e+00 0.0000000e+00 0.0000000e+00)	(0.0000000e+00 0.0000000e+00 0.0000000e+00)
1.34096        	(3.6903279e-06 -4.3373592e-09 9.6271799e-06)	(3.6903279e-06 -4.3373592e-09 9.6271799e-06)	(0.0000000e+00 0.0000000e+00 0.0000000e+00)	(0.0000000e+00 0.0000000e+00 0.0000000e+00)
1.34193        	(3.6882696e-06 -5.2506069e-09 9.6048687e-06)	(3.6882696e-06 -5.2506069e-09 9.6048687e-06)	(0.0000000e+00 0.0000000e+00 0.0000000e+00)	(0.0000000e+00 0.0000000e+00 0.0000000e+00)
1.3429         	(3.6903861e-06 -4.9393483e-09 9.6181715e-06)	(3.6903861e-06 -4.9393483e-09 9.6181715e-06)	(0.0000000e+00 0.0000000e+00 0.0000000e+00)	(0.0000000e+00 0.0000000e+00 0.0000000e+00)
1.34387        	(3.6872563e-06 -5.2859310e-09 9.6044449e-06)	(3.6872563e-06 -5.2859310e-09 9.6044449e-06)	(0.0000000e+00 0.0000000e+00 0.0000000e+00)	(0.0000000e+00 0.0000000e+00 0.0000000e+00)
1.34484        	(3.6867186e-06 -4.2810503e-09 9.6247148e-06)	(3.6867186e-06 -4.2810503e-09 9.6247148e-06)	(0.0000000e+00 0.0000000e+00 0.0000000e+00)	(0.0000000e+00 0.0000000e+00 0.0000000e+00)
1.3458         	(3.6848288e-06 -3.5480027e-09 9.6359664e-06)	(3.6848288e-06 -3.5480027e-09 9.6359664e-06)	(0.0000000e+00 0.0000000e+00 0.0000000e+00)	(0.0000000e+00 0.0000000e+00 0.0000000e+00)
1.34677        	(3.6850912e-06 -2.7549749e-09 9.6541002e-06)	(3.6850912e-06 -2.7549749e-09 9.6541002e-06)	(0.0000000e+00 0.0000000e+00 0.0000000e+00)	(0.0000000e+00 0.0000000e+00 0.0000000e+00)
1.34774        	(3.6838566e-06 -2.7889057e-09 9.6516786e-06)	(3.6838566e-06 -2.7889057e-09 9.6516786e-06)	(0.0000000e+00 0.0000000e+00 0.0000000e+00)	(0.0000000e+00 0.0000000e+00 0.0000000e+00)
1.34871        	(3.6839226e-06 -3.3989734e-09 9.6411160e-06)	(3.6839226e-06 -3.3989734e-09 9.6411160e-06)	(0.0000000e+00 0.0000000e+00 0.0000000e+00)	(0.0000000e+00 0.0000000e+00 0.0000000e+00)
1.34967        	(3.6834750e-06 -3.0712138e-09 9.6480536e-06)	(3.6834750e-06 -3.0712138e-09 9.6480536e-06)	(0.0000000e+00 0.0000000e+00 0.0000000e+00)	(0.0000000e+00 0.0000000e+00 0.0000000e+00)
1.35064        	(3.6841872e-06 -5.3523363e-09 9.6056372e-06)	(3.6841872e-06 -5.3523363e-09 9.6056372e-06)	(0.0000000e+00 0.0000000e+00 0.0000000e+00)	(0.0000000e+00 0.0000000e+00 0.0000000e+00)
1.35161        	(3.6848556e-06 -4.8674122e-09 9.6186941e-06)	(3.6848556e-06 -4.8674122e-09 9.6186941e-06)	(0.0000000e+00 0.0000000e+00 0.0000000e+00)	(0.0000000e+00 0.0000000e+00 0.0000000e+00)