/*--------------------------------*- C++ -*----------------------------------*\
| =========                 |                                                 |
| \\      /  F ield         | OpenFOAM: The Open Source CFD Toolbox           |
|  \\    /   O peration     | Version:  2206                                  |
|   \\  /    A nd           | Website:  www.openfoam.com                      |
|    \\/     M anipulation  |                                                 |
\*---------------------------------------------------------------------------*/
FoamFile
{
    version     2.0;
    format      ascii;
    arch        "LSB;label=32;scalar=64";
    class       volScalarField;
    location    "160";
    object      alpha.a;
}
// * * * * * * * * * * * * * * * * * * * * * * * * * * * * * * * * * * * * * //

dimensions      [0 0 0 0 0 0 0];

internalField   nonuniform List<scalar> 
344
(
0.585917
0.585857
0.585812
0.585748
0.585702
0.585636
0.585589
0.585521
0.585473
0.585402
0.585353
0.585281
0.58523
0.585156
0.585104
0.585026
0.584973
0.584893
0.584838
0.584756
0.584699
0.584614
0.584555
0.584467
0.584407
0.584314
0.584252
0.584156
0.584092
0.583992
0.583926
0.583821
0.583752
0.583644
0.583572
0.583458
0.583383
0.583263
0.583185
0.58306
0.582978
0.582846
0.58276
0.582621
0.582531
0.582383
0.582288
0.582131
0.58203
0.581862
0.581756
0.581576
0.581463
0.581269
0.581147
0.580937
0.580806
0.580577
0.580435
0.580184
0.580027
0.579748
0.579575
0.579262
0.579067
0.57871
0.578488
0.578074
0.577814
0.577319
0.577005
0.57639
0.575989
0.57517
0.574613
0.573365
0.572434
0.569616
0.196668
0.000209459
1.87885e-12
8.1897e-15
2.62802e-25
1.07098e-35
6.3067e-46
4.29303e-56
2.7874e-66
1.70054e-76
9.03739e-87
5.29783e-97
3.08889e-107
1.81287e-117
9.63757e-128
5.14272e-138
2.47524e-148
1.08389e-158
3.8539e-169
1.33107e-179
4.02893e-190
1.07027e-200
2.1715e-211
3.61061e-222
4.01975e-233
2.51206e-244
1.87661e-255
2.09996e-266
2.73427e-277
4.50215e-288
8.76172e-299
2.33442e-309
1.8335e-316
1.25952e-319
0
0
0
0
0
0
0
4.76449e-317
0
0
0
1.8058e-316
0
0
0
0
0
0
0
0
0
0
1.75432e-316
0
0
0
0
0
0
0
0
0
0
0
0
0
0
0
0
0
0
0
0
0
0
0
0
0
0
0
0
0
0
0
0
0
0
0
0
0
0
0
0
0
0
0
0
0
0
0
0
0
0
0
0
0
0
0
0
0
0
0
0
0
0
0
0
0
0
0
0
0
0
0
0
0
0
0
0
0
0
0
0
0
0
0
0
0
0
0
0
0
0
0
0
0
0
0
0
0
0
0
0
0
0
0
0
0
0
0
0
0
0
0
0
0
0
0
0
0
0
0
0
0
0
0
0
0
0
0
0
0
0
0
0
0
0
0
0
0
0
0
0
0
0
0
0
0
0
0
0
0
0
0
0
0
0
0
0
0
0
0
0
0
0
0
0
0
0
0
0
0
0
0
0
0
0
0
0
0
0
0
0
0
0
0
0
0
0
0
0
0
0
0
0
0
0
0
0
0
0
0
0
0
0
0
0
0
0
0
0
0
)
;

boundaryField
{
    inlet
    {
        type            cyclic;
    }
    outlet
    {
        type            cyclic;
    }
    top
    {
        type            zeroGradient;
    }
    bottom
    {
        type            zeroGradient;
    }
    frontAndBackPlanes
    {
        type            empty;
    }
}


// ************************************************************************* //
