/*--------------------------------*- C++ -*----------------------------------*\
| =========                 |                                                 |
| \\      /  F ield         | OpenFOAM: The Open Source CFD Toolbox           |
|  \\    /   O peration     | Version:  2206                                  |
|   \\  /    A nd           | Website:  www.openfoam.com                      |
|    \\/     M anipulation  |                                                 |
\*---------------------------------------------------------------------------*/
FoamFile
{
    version     2.0;
    format      ascii;
    arch        "LSB;label=32;scalar=64";
    class       volScalarField;
    location    "160";
    object      muI;
}
// * * * * * * * * * * * * * * * * * * * * * * * * * * * * * * * * * * * * * //

dimensions      [0 0 0 0 0 0 0];

internalField   nonuniform List<scalar> 
344
(
0.630001
0.630001
0.63
0.63
0.63
0.63
0.63
0.63
0.63
0.63
0.63
0.63
0.63
0.63
0.63
0.63
0.63
0.63
0.63
0.63
0.63
0.63
0.63
0.63
0.63
0.63
0.63
0.63
0.63
0.63
0.63
0.63
0.63
0.63
0.63
0.63
0.63
0.63
0.63
0.63
0.63
0.63
0.63
0.63
0.63
0.63
0.63
0.63
0.63
0.63
0.63
0.63
0.63
0.63
0.63
0.63
0.63
0.63
0.63
0.63
0.63
0.63
0.63
0.63
0.63
0.63
0.63
0.63
0.63
0.63
0.63
0.63
0.63
0.63
0.63
0.63
0.63
0.630005
1.12773
1.12728
1.12139
1.12694
1.12202
1.02174
0.991535
0.963428
0.990779
0.711151
0.688436
0.630013
0.630013
0.630004
0.630003
0.630001
0.63
0.630001
0.630002
0.630003
0.630006
0.630031
0.666169
0.866185
1.08018
1.12057
1.11884
0.63003
1.11706
1.11706
0.630006
0.630004
0.630004
0.630004
0.630004
0.630004
0.630004
0.630004
0.630004
0.630004
0.630004
0.630004
0.630004
0.630004
0.630004
0.630004
0.630006
1.11743
1.11743
0.630012
1.11746
1.11695
1.11555
1.11487
0.630006
1.11276
1.11276
0.630001
1.09091
1.09091
0.630004
1.10276
1.10097
1.11413
1.11354
0.630007
1.11413
1.11413
0.630005
0.630018
1.04971
1.04972
0.630001
1.05086
1.05086
0.630022
0.630018
0.630019
0.630015
0.63002
1.11979
1.11979
0.630013
1.11884
1.11884
0.630005
0.63003
1.11685
1.11685
0.630016
1.11809
1.11752
1.11756
1.11695
0.630016
1.1181
1.1181
0.630015
0.630029
0.630023
0.630022
0.630023
0.630023
0.630023
0.630023
0.630023
0.630023
0.630023
0.630023
0.630028
0.918152
0.918164
0.63
0.925856
0.925845
0.630028
0.630027
0.630017
1.09203
1.09203
0.630001
1.08451
1.0845
0.630026
0.630027
0.630016
1.11201
1.11201
0.630005
1.11182
1.11182
0.630018
0.630015
0.630015
0.630014
0.630014
1.11968
1.11968
0.630024
1.11965
1.11965
0.630017
0.630014
0.630014
0.630014
0.630015
0.630011
1.11746
1.11746
0.63001
1.1176
1.1176
0.630009
0.630007
0.630007
0.630007
0.630007
0.630007
0.630007
0.630007
0.630006
0.630007
1.11874
1.11874
0.630009
1.11722
1.11722
0.630007
1.11539
1.11539
0.630009
1.11722
1.11722
0.630017
0.630014
0.630014
0.630014
0.630014
0.630016
0.630011
1.11652
1.11652
0.630011
1.11673
1.11599
1.11824
1.11766
0.630022
1.11871
1.11875
0.982514
0.988937
0.630001
0.965032
0.965025
0.630008
0.630034
0.969747
0.969755
0.63
0.963472
0.963465
0.630018
0.630015
1.11451
1.11451
0.630006
1.11358
1.11358
0.630018
0.630015
0.630015
0.630015
0.630013
1.11826
1.11826
0.630012
1.11824
1.11824
0.630018
0.630015
0.630014
0.630019
0.630008
1.10147
1.10147
0.630003
1.10186
1.10186
0.630018
0.630015
0.630016
0.630013
1.11779
1.11779
0.630011
1.11805
1.11805
0.630004
0.630002
0.630002
0.630002
0.630002
1.10712
1.10712
0.630003
1.10608
1.10608
0.630019
0.630016
0.630015
0.630016
0.630013
1.11765
1.11765
0.630011
1.118
1.118
0.630003
0.630002
0.630002
0.630001
0.630001
0.630001
0.63
0.63
)
;

boundaryField
{
    inlet
    {
        type            cyclic;
    }
    outlet
    {
        type            cyclic;
    }
    top
    {
        type            calculated;
        value           uniform 0.63;
    }
    bottom
    {
        type            calculated;
        value           uniform 0.630006;
    }
    frontAndBackPlanes
    {
        type            empty;
    }
}


// ************************************************************************* //
