/*--------------------------------*- C++ -*----------------------------------*\
| =========                 |                                                 |
| \\      /  F ield         | OpenFOAM: The Open Source CFD Toolbox           |
|  \\    /   O peration     | Version:  2206                                  |
|   \\  /    A nd           | Website:  www.openfoam.com                      |
|    \\/     M anipulation  |                                                 |
\*---------------------------------------------------------------------------*/
FoamFile
{
    version     2.0;
    format      ascii;
    arch        "LSB;label=32;scalar=64";
    class       volScalarField;
    location    "160";
    object      nuFra;
}
// * * * * * * * * * * * * * * * * * * * * * * * * * * * * * * * * * * * * * //

dimensions      [0 2 -1 0 0 0 0];

internalField   nonuniform List<scalar> 
344
(
0.01
0.01
0.01
0.01
0.01
0.01
0.01
0.01
0.01
0.01
0.01
0.01
0.01
0.01
0.01
0.01
0.01
0.01
0.01
0.01
0.01
0.01
0.01
0.01
0.01
0.01
0.01
0.01
0.01
0.01
0.01
0.01
0.01
0.01
0.01
0.01
0.01
0.01
0.01
0.01
0.01
0.01
0.01
0.01
0.01
0.01
0.01
0.01
0.01
0.01
0.01
0.01
0.01
0.01
0.01
0.01
0.01
0.01
0.01
0.01
0.01
0.01
0.01
0.01
0.01
0.01
0.01
0.01
0.01
0.01
0.01
0.01
0.01
0.01
0.01
0.01
0.01
0.01
2.76938e-11
3.33059e-11
1.05964e-10
3.73836e-11
9.81777e-11
1.52347e-09
2.04899e-09
2.59694e-09
2.06291e-09
1.98048e-08
2.80682e-08
0.000114533
0.000116001
0.000199795
0.000215573
0.000228962
0.000231387
0.000230584
0.000225706
0.000212657
0.000174245
5.28436e-05
4.60945e-08
5.22033e-09
6.4502e-10
1.16192e-10
1.37768e-10
5.442e-05
1.60077e-10
1.60082e-10
0.000180725
0.000198971
0.000198933
0.000198907
0.000198929
0.000198913
0.000198924
0.000198914
0.000198918
0.000198911
0.000198913
0.000198909
0.000198918
0.000198826
0.000198665
0.00020909
0.000184731
1.55541e-10
1.55539e-10
0.000120528
1.55092e-10
1.61477e-10
1.79175e-10
1.87747e-10
0.000180316
2.14406e-10
2.14409e-10
0.000227888
4.99213e-10
4.99203e-10
0.000201925
3.42851e-10
3.662e-10
1.97052e-10
2.04539e-10
0.000168606
1.97008e-10
1.9701e-10
0.000194577
8.66326e-05
1.08341e-09
1.08338e-09
0.000230245
1.06623e-09
1.06626e-09
7.31481e-05
8.68769e-05
8.16485e-05
9.94271e-05
8.14381e-05
1.25924e-10
1.25923e-10
0.000111104
1.37757e-10
1.37759e-10
0.000194406
5.49846e-05
1.62754e-10
1.62751e-10
9.69767e-05
1.4726e-10
1.54359e-10
1.53792e-10
1.61546e-10
9.43706e-05
1.47108e-10
1.4711e-10
0.000103075
5.68111e-05
7.17103e-05
7.20675e-05
7.04908e-05
7.10935e-05
7.1005e-05
7.0989e-05
7.10083e-05
7.10032e-05
7.09544e-05
7.01795e-05
5.8982e-05
3.64217e-09
3.64185e-09
0.000231564
3.447e-09
3.44728e-09
5.861e-05
6.03815e-05
9.20906e-05
4.84213e-10
4.84207e-10
0.000227454
5.85726e-10
5.85736e-10
6.2721e-05
6.13601e-05
9.57969e-05
2.23966e-10
2.23964e-10
0.000193045
2.26397e-10
2.264e-10
8.80105e-05
0.000103221
0.000101188
0.000108047
0.000108253
1.27359e-10
1.27357e-10
6.76301e-05
1.27741e-10
1.27744e-10
9.08465e-05
0.000105593
0.000106572
0.000107085
0.000101229
0.000124788
1.55068e-10
1.55066e-10
0.000136722
1.53337e-10
1.53339e-10
0.000151007
0.000170552
0.000170918
0.000170924
0.0001709
0.000170996
0.00017101
0.000168497
0.000182359
0.000164643
1.39031e-10
1.39029e-10
0.00014962
1.58137e-10
1.58139e-10
0.000172166
1.81135e-10
1.81133e-10
0.000142093
1.58078e-10
1.5808e-10
9.0232e-05
0.000105112
0.000105694
0.000105935
0.000106937
9.85209e-05
0.000127266
1.66907e-10
1.66905e-10
0.000128489
1.64289e-10
1.73612e-10
1.45385e-10
1.52634e-10
7.37335e-05
1.39445e-10
1.38957e-10
2.21797e-09
2.09703e-09
0.000231052
2.56388e-09
2.56402e-09
0.000155789
4.86807e-05
2.46802e-09
2.46787e-09
0.000231786
2.59602e-09
2.59617e-09
8.8347e-05
0.000102436
1.92201e-10
1.922e-10
0.000183695
2.03992e-10
2.03994e-10
8.65729e-05
0.000101296
0.000101539
9.99129e-05
0.000115064
1.4507e-10
1.45069e-10
0.000122921
1.45313e-10
1.45315e-10
8.87554e-05
0.000104264
0.00010735
8.20202e-05
0.000152679
3.59652e-10
3.59648e-10
0.000216535
3.54553e-10
3.54558e-10
8.57365e-05
9.95749e-05
9.86173e-05
0.000113932
1.50994e-10
1.50992e-10
0.000126088
1.4771e-10
1.47712e-10
0.00020621
0.000220033
0.000219684
0.000219485
0.000222856
2.86461e-10
2.86458e-10
0.000210664
2.99905e-10
2.99909e-10
8.44676e-05
9.89308e-05
9.94981e-05
9.65228e-05
0.000114104
1.52783e-10
1.52782e-10
0.000126951
1.48355e-10
1.48357e-10
0.000216174
0.000226958
0.000227146
0.000228171
0.000229665
0.000231209
0.000231867
0.00023179
)
;

boundaryField
{
    inlet
    {
        type            cyclic;
    }
    outlet
    {
        type            cyclic;
    }
    top
    {
        type            calculated;
        value           uniform 0.000231873;
    }
    bottom
    {
        type            calculated;
        value           uniform 0.01;
    }
    frontAndBackPlanes
    {
        type            empty;
    }
}


// ************************************************************************* //
