/*--------------------------------*- C++ -*----------------------------------*\
| =========                 |                                                 |
| \\      /  F ield         | OpenFOAM: The Open Source CFD Toolbox           |
|  \\    /   O peration     | Version:  2206                                  |
|   \\  /    A nd           | Website:  www.openfoam.com                      |
|    \\/     M anipulation  |                                                 |
\*---------------------------------------------------------------------------*/
FoamFile
{
    version     2.0;
    format      ascii;
    arch        "LSB;label=32;scalar=64";
    class       volScalarField;
    location    "160";
    object      p_rbgh;
}
// * * * * * * * * * * * * * * * * * * * * * * * * * * * * * * * * * * * * * //

dimensions      [1 -1 -2 0 0 0 0];

internalField   nonuniform List<scalar> 
344
(
0.121979
0.128266
0.128329
0.128323
0.128305
0.128296
0.128303
0.128334
0.128397
0.128502
0.128656
0.128865
0.129135
0.129469
0.129869
0.130332
0.130857
0.131436
0.132063
0.13273
0.133425
0.134142
0.134866
0.135595
0.136313
0.137025
0.137714
0.138393
0.139046
0.139694
0.14032
0.140952
0.141574
0.142214
0.142858
0.143529
0.144216
0.144932
0.145669
0.146425
0.147197
0.147964
0.148729
0.149446
0.150129
0.150704
0.151195
0.151505
0.151664
0.151562
0.151228
0.150563
0.149588
0.148246
0.146547
0.144519
0.142168
0.139633
0.136934
0.1343
0.131791
0.129613
0.127868
0.126566
0.125787
0.125235
0.124829
0.124183
0.122884
0.121122
0.118201
0.115478
0.112741
0.111404
0.113449
0.115554
0.119174
0.122634
0.206684
-0.159764
0.113728
-0.0683099
0.0375709
-0.0232941
0.0180935
-0.0153784
0.012654
-0.00986276
0.00740547
-0.00546028
0.00400615
-0.00294743
0.00218225
-0.00162694
0.00121996
-0.000918374
0.000692772
-0.000522903
0.000394495
-0.000297294
0.000223703
-0.000168069
0.00012607
-9.44543e-05
7.06897e-05
-5.28845e-05
3.95479e-05
-2.95894e-05
2.2139e-05
-1.65832e-05
1.24207e-05
-9.31644e-06
6.98299e-06
-5.24249e-06
3.92835e-06
-2.94879e-06
2.20504e-06
-1.65133e-06
1.22725e-06
-9.11205e-07
6.64898e-07
-4.79501e-07
3.32869e-07
-2.2689e-07
1.4656e-07
-9.28485e-08
5.43038e-08
-3.13691e-08
1.5995e-08
-8.41444e-09
3.59026e-09
-1.84222e-09
6.29471e-10
-3.77316e-10
8.20752e-11
-9.6384e-11
2.13855e-11
-1.96741e-11
-1.57282e-11
-3.09637e-11
-3.55992e-11
-4.30393e-11
-4.7611e-11
-5.13293e-11
-5.31295e-11
-5.39886e-11
-5.37694e-11
-5.25967e-11
-5.08337e-11
-4.81786e-11
-4.512e-11
-4.16942e-11
-3.83113e-11
-3.40406e-11
-2.93257e-11
-2.41919e-11
-1.9235e-11
-1.39945e-11
-9.04778e-12
-4.42244e-12
-5.65092e-13
3.19446e-12
6.52159e-12
9.40886e-12
1.15722e-11
1.31472e-11
1.40407e-11
1.44246e-11
1.5831e-11
1.53436e-11
1.45824e-11
1.37298e-11
1.29141e-11
1.20392e-11
1.11838e-11
1.03533e-11
9.59877e-12
8.81397e-12
8.04095e-12
7.27991e-12
6.5682e-12
5.87661e-12
5.23526e-12
4.64338e-12
4.11853e-12
3.6053e-12
3.11538e-12
2.64754e-12
2.21655e-12
1.81056e-12
1.441e-12
1.10772e-12
8.18734e-13
5.62399e-13
3.44163e-13
1.63762e-13
2.4064e-14
-7.44372e-14
-1.33831e-13
-1.59521e-13
-2.53841e-13
-2.39789e-13
-2.20391e-13
-2.01014e-13
-1.85867e-13
-1.7168e-13
-1.59567e-13
-1.49594e-13
-1.41776e-13
-1.35149e-13
-1.29697e-13
-1.25411e-13
-1.21772e-13
-1.19154e-13
-1.17071e-13
-1.15511e-13
-1.14077e-13
-1.13309e-13
-1.12868e-13
-1.12754e-13
-1.12619e-13
-1.12725e-13
-1.12769e-13
-1.12748e-13
-1.12454e-13
-1.12162e-13
-1.11706e-13
-1.11088e-13
-1.10205e-13
-1.0896e-13
-1.07521e-13
-1.0593e-13
-1.0688e-13
-1.05107e-13
-1.03332e-13
-1.01597e-13
-1.0014e-13
-9.87828e-14
-9.75464e-14
-9.643e-14
-9.5411e-14
-9.44616e-14
-9.35691e-14
-9.27343e-14
-9.19161e-14
-9.1145e-14
-9.03835e-14
-8.96332e-14
-8.88702e-14
-8.81313e-14
-8.73923e-14
-8.6655e-14
-8.58817e-14
-8.51036e-14
-8.42788e-14
-8.34081e-14
-8.24763e-14
-8.14681e-14
-8.03562e-14
-7.91403e-14
-7.78287e-14
-7.62653e-14
-7.4655e-14
-7.30074e-14
-7.35863e-14
-7.19393e-14
-7.03306e-14
-6.87696e-14
-6.74618e-14
-6.62505e-14
-6.51451e-14
-6.4145e-14
-6.3224e-14
-6.2365e-14
-6.15538e-14
-6.07915e-14
-6.00378e-14
-5.93226e-14
-5.86101e-14
-5.79021e-14
-5.71764e-14
-5.64684e-14
-5.57559e-14
-5.50408e-14
-5.42872e-14
-5.3525e-14
-5.27141e-14
-5.18554e-14
-5.0935e-14
-4.99356e-14
-4.8831e-14
-4.76209e-14
-4.63145e-14
-4.47552e-14
-4.31484e-14
-4.15034e-14
-4.20797e-14
-4.04329e-14
-3.88231e-14
-3.72594e-14
-3.59485e-14
-3.4732e-14
-3.36219e-14
-3.26175e-14
-3.16959e-14
-3.08323e-14
-3.00178e-14
-2.92532e-14
-2.85055e-14
-2.77975e-14
-2.7103e-14
-2.64231e-14
-2.57427e-14
-2.5082e-14
-2.44321e-14
-2.37942e-14
-2.3157e-14
-2.25293e-14
-2.19019e-14
-2.12754e-14
-2.06417e-14
-2.00157e-14
-1.93893e-14
-1.87629e-14
-1.81271e-14
-1.7491e-14
-1.6843e-14
-1.6184e-14
-1.55045e-14
-1.48268e-14
-1.41343e-14
-1.34283e-14
-1.26806e-14
-1.19161e-14
-1.10988e-14
-1.02297e-14
-9.29759e-15
-8.28098e-15
-7.1527e-15
-5.9124e-15
-4.56799e-15
-2.95838e-15
-1.29006e-15
4.20141e-16
)
;

boundaryField
{
    inlet
    {
        type            cyclic;
    }
    outlet
    {
        type            cyclic;
    }
    top
    {
        type            fixedValue;
        value           uniform 0;
    }
    bottom
    {
        type            fixedFluxPressure;
        gradient        uniform 0;
        value           uniform 0.121979;
    }
    frontAndBackPlanes
    {
        type            empty;
    }
}


// ************************************************************************* //
