/*--------------------------------*- C++ -*----------------------------------*\
| =========                 |                                                 |
| \\      /  F ield         | OpenFOAM: The Open Source CFD Toolbox           |
|  \\    /   O peration     | Version:  2206                                  |
|   \\  /    A nd           | Website:  www.openfoam.com                      |
|    \\/     M anipulation  |                                                 |
\*---------------------------------------------------------------------------*/
FoamFile
{
    version     2.0;
    format      ascii;
    arch        "LSB;label=32;scalar=64";
    class       surfaceScalarField;
    location    "160";
    object      phi.a;
}
// * * * * * * * * * * * * * * * * * * * * * * * * * * * * * * * * * * * * * //

dimensions      [0 3 -1 0 0 0 0];

oriented        oriented;

internalField   nonuniform List<scalar> 
343
(
-3.9966e-17
-7.24238e-17
-8.87858e-17
-8.20771e-17
-4.49515e-17
2.76032e-17
1.38711e-16
2.91428e-16
4.82048e-16
7.12222e-16
9.70368e-16
1.25733e-15
1.55499e-15
1.86322e-15
2.162e-15
2.44873e-15
2.70891e-15
2.93365e-15
3.12373e-15
3.25832e-15
3.36362e-15
3.39937e-15
3.42592e-15
3.3755e-15
3.34804e-15
3.24188e-15
3.19693e-15
3.07567e-15
3.0516e-15
2.95526e-15
2.98054e-15
2.93812e-15
3.02287e-15
3.04616e-15
3.17799e-15
3.25769e-15
3.40038e-15
3.50624e-15
3.60313e-15
3.68683e-15
3.66599e-15
3.66419e-15
3.4446e-15
3.28179e-15
2.78118e-15
2.37264e-15
1.51979e-15
7.80342e-16
-4.607e-16
-1.59384e-15
-3.18638e-15
-4.70724e-15
-6.48795e-15
-8.24024e-15
-9.86185e-15
-1.14567e-14
-1.2397e-14
-1.32131e-14
-1.29498e-14
-1.23588e-14
-1.07698e-14
-8.66506e-15
-6.48892e-15
-3.93401e-15
-2.77612e-15
-2.08101e-15
-3.27266e-15
-6.51032e-15
-8.96237e-15
-1.4686e-14
-1.3951e-14
-1.39146e-14
-6.7886e-15
1.02403e-14
1.13301e-14
1.60943e-14
-9.77292e-15
-8.15532e-13
-1.99511e-09
-3.46597e-09
-3.63639e-09
-4.98302e-09
-5.33252e-09
-5.31619e-09
-5.33534e-09
-5.35084e-09
-5.37035e-09
-5.37217e-09
-5.37318e-09
-5.37318e-09
-5.37318e-09
-5.37318e-09
-5.37318e-09
-5.37318e-09
-5.37318e-09
-5.37318e-09
-5.37318e-09
-5.37318e-09
-5.37318e-09
-5.37318e-09
-5.37258e-09
-5.36557e-09
-5.295e-09
-4.8884e-09
-4.54597e-09
-4.54597e-09
-4.84018e-09
-5.13438e-09
-5.13438e-09
-5.13438e-09
-5.13438e-09
-5.13438e-09
-5.13438e-09
-5.13438e-09
-5.13438e-09
-5.13438e-09
-5.13438e-09
-5.13438e-09
-5.13438e-09
-5.13438e-09
-5.13438e-09
-5.13438e-09
-5.13438e-09
-5.13438e-09
-5.13438e-09
-4.83149e-09
-4.5286e-09
-4.5286e-09
-4.83237e-09
-5.124e-09
-4.86151e-09
-4.61115e-09
-4.61115e-09
-4.82997e-09
-5.04878e-09
-5.04878e-09
-4.95664e-09
-4.86451e-09
-4.86451e-09
-5.00012e-09
-5.12687e-09
-4.8885e-09
-4.65897e-09
-4.65897e-09
-4.8974e-09
-5.13583e-09
-5.13583e-09
-5.13583e-09
-5.09498e-09
-5.05413e-09
-5.05413e-09
-5.09568e-09
-5.13723e-09
-5.13723e-09
-5.13723e-09
-5.13723e-09
-5.13723e-09
-5.13723e-09
-4.76231e-09
-4.38739e-09
-4.38739e-09
-4.72981e-09
-5.07223e-09
-5.07223e-09
-5.07223e-09
-4.78292e-09
-4.4936e-09
-4.4936e-09
-4.81371e-09
-5.11894e-09
-4.81257e-09
-4.52107e-09
-4.52107e-09
-4.84151e-09
-5.16195e-09
-5.16195e-09
-5.16195e-09
-5.16195e-09
-5.16195e-09
-5.16195e-09
-5.16195e-09
-5.16195e-09
-5.16195e-09
-5.16195e-09
-5.16195e-09
-5.16195e-09
-5.16196e-09
-5.16196e-09
-5.15133e-09
-5.1407e-09
-5.1407e-09
-5.15202e-09
-5.16335e-09
-5.16335e-09
-5.16334e-09
-5.16334e-09
-5.06826e-09
-4.97317e-09
-4.97317e-09
-5.05124e-09
-5.1293e-09
-5.1293e-09
-5.1293e-09
-5.1293e-09
-4.91997e-09
-4.71063e-09
-4.71063e-09
-4.91768e-09
-5.12473e-09
-5.12473e-09
-5.12473e-09
-5.12473e-09
-5.12473e-09
-5.12473e-09
-4.75407e-09
-4.3834e-09
-4.3834e-09
-4.75294e-09
-5.12247e-09
-5.12247e-09
-5.12247e-09
-5.12247e-09
-5.12247e-09
-5.12247e-09
-5.12247e-09
-4.81865e-09
-4.51482e-09
-4.51482e-09
-4.82211e-09
-5.1294e-09
-5.1294e-09
-5.1294e-09
-5.1294e-09
-5.1294e-09
-5.1294e-09
-5.1294e-09
-5.1294e-09
-5.1294e-09
-5.1294e-09
-5.1294e-09
-4.79014e-09
-4.45088e-09
-4.45088e-09
-4.74874e-09
-5.0466e-09
-5.0466e-09
-4.78698e-09
-4.52736e-09
-4.52736e-09
-4.82533e-09
-5.12331e-09
-5.1233e-09
-5.1233e-09
-5.1233e-09
-5.1233e-09
-5.1233e-09
-5.1233e-09
-5.1233e-09
-4.84127e-09
-4.55923e-09
-4.55923e-09
-4.84581e-09
-5.11683e-09
-4.79254e-09
-4.48382e-09
-4.48382e-09
-4.82206e-09
-5.1615e-09
-5.14282e-09
-5.12294e-09
-5.12294e-09
-5.13881e-09
-5.15468e-09
-5.15468e-09
-5.15468e-09
-5.13811e-09
-5.12155e-09
-5.12155e-09
-5.13719e-09
-5.15284e-09
-5.15284e-09
-5.15284e-09
-4.90836e-09
-4.66388e-09
-4.66388e-09
-4.89404e-09
-5.12419e-09
-5.12419e-09
-5.12419e-09
-5.12419e-09
-5.12419e-09
-5.12419e-09
-4.79919e-09
-4.47419e-09
-4.4742e-09
-4.79864e-09
-5.12308e-09
-5.12308e-09
-5.12308e-09
-5.12308e-09
-5.12308e-09
-5.12308e-09
-4.99396e-09
-4.86483e-09
-4.86483e-09
-4.99586e-09
-5.12688e-09
-5.12688e-09
-5.12688e-09
-5.12688e-09
-5.12688e-09
-4.81477e-09
-4.50265e-09
-4.50265e-09
-4.82178e-09
-5.1409e-09
-5.1409e-09
-5.1409e-09
-5.1409e-09
-5.1409e-09
-5.1409e-09
-4.97796e-09
-4.81501e-09
-4.81501e-09
-4.9705e-09
-5.12599e-09
-5.12599e-09
-5.12599e-09
-5.12599e-09
-5.12599e-09
-5.12599e-09
-4.81758e-09
-4.50916e-09
-4.50916e-09
-4.82688e-09
-5.1446e-09
-5.1446e-09
-5.1446e-09
-5.1446e-09
-5.1446e-09
-5.1446e-09
-5.1446e-09
-5.1446e-09
)
;

boundaryField
{
    inlet
    {
        type            cyclic;
        value           nonuniform List<scalar> 
344
(
1.01194e-23
2.24137e-23
3.46516e-23
4.68686e-23
5.89201e-23
6.38489e-23
6.86196e-23
7.33918e-23
7.78322e-23
7.57264e-23
7.33112e-23
7.09548e-23
6.86509e-23
6.64039e-23
6.42189e-23
6.20979e-23
6.00417e-23
5.8051e-23
5.61269e-23
5.42712e-23
5.24858e-23
5.07728e-23
4.91345e-23
4.75728e-23
4.60899e-23
4.46874e-23
4.33671e-23
4.21307e-23
4.09793e-23
3.99141e-23
3.89363e-23
3.80466e-23
3.72457e-23
3.6534e-23
3.59121e-23
3.53801e-23
3.49383e-23
3.45865e-23
3.43247e-23
3.41528e-23
3.40704e-23
3.40773e-23
3.41734e-23
3.43588e-23
3.46333e-23
3.49978e-23
3.54543e-23
3.60057e-23
3.66566e-23
3.74123e-23
3.82876e-23
3.91928e-23
3.73282e-23
3.54913e-23
3.37697e-23
3.21465e-23
3.06142e-23
2.91661e-23
2.77973e-23
2.65041e-23
2.52841e-23
2.41349e-23
2.30554e-23
2.20438e-23
2.10997e-23
2.02216e-23
1.94088e-23
1.86607e-23
1.79762e-23
1.73551e-23
1.67965e-23
1.63003e-23
1.58659e-23
1.54928e-23
1.51807e-23
1.49294e-23
1.47383e-23
1.46075e-23
1.46061e-23
1.31301e-23
1.10291e-23
9.05443e-24
7.4946e-24
-6.87812e-24
-1.15758e-23
-8.16443e-24
-2.55179e-24
-1.19421e-24
-3.87769e-25
-3.87362e-25
-3.87042e-25
-3.86834e-25
-3.86697e-25
-3.86579e-25
-3.86477e-25
-3.86396e-25
-3.86336e-25
-3.86301e-25
-3.86288e-25
-3.86306e-25
-3.86403e-25
-4.49916e-25
-7.25677e-25
-1.19229e-24
-4.17791e-27
-4.15611e-27
-4.16611e-27
6.01578e-26
6.01611e-26
6.01634e-26
6.01659e-26
6.01687e-26
6.01716e-26
6.01744e-26
6.01771e-26
6.01797e-26
6.0182e-26
6.0184e-26
6.01858e-26
6.01872e-26
6.01884e-26
6.01892e-26
6.01897e-26
6.01896e-26
6.01891e-26
6.0192e-26
-2.95958e-24
-2.9596e-24
-2.95958e-24
-8.84703e-25
-2.16694e-25
-1.33881e-26
-1.33877e-26
-1.33876e-26
-2.69753e-27
-2.69753e-27
-2.69751e-27
-1.45844e-27
-1.45845e-27
-1.45842e-27
2.606e-27
7.32696e-27
1.68603e-26
1.68607e-26
1.68805e-26
6.94416e-24
6.94419e-24
6.94421e-24
6.9444e-24
1.54974e-23
4.00899e-24
-7.47947e-24
2.05515e-24
2.16282e-24
-1.73164e-24
-5.37639e-24
-5.13346e-24
-5.10847e-24
-5.10753e-24
-2.05965e-24
-2.05964e-24
-2.05962e-24
-2.99717e-25
-2.99715e-25
-2.99713e-25
-2.99709e-25
-7.89496e-27
-7.89402e-27
-7.89376e-27
4.41208e-26
1.42411e-25
3.5782e-25
3.57824e-25
3.57926e-25
1.45076e-23
1.45625e-23
9.26047e-24
9.13557e-24
8.82258e-24
5.51565e-24
2.31922e-24
-1.41913e-24
-4.94113e-24
-8.57127e-24
-1.24791e-23
-1.61053e-23
-1.98307e-23
-2.26998e-23
-2.26345e-23
-2.38212e-23
-2.38209e-23
-2.38208e-23
-2.28164e-23
-2.27407e-23
-2.6714e-23
-2.9761e-23
-2.97109e-23
5.49604e-24
-5.99237e-24
-1.74808e-23
-2.88118e-24
-2.79884e-24
-6.50886e-24
-9.44302e-24
-9.3893e-24
9.6077e-24
-1.88083e-24
-1.33693e-23
6.58646e-24
6.43241e-24
2.98762e-24
-2.88757e-25
-3.96104e-24
-7.23663e-24
-7.13371e-24
-1.87715e-24
-1.87712e-24
-1.87707e-24
6.32345e-24
6.31095e-24
6.13469e-24
2.90433e-24
-4.26326e-25
-3.98641e-24
-7.16461e-24
-7.27867e-24
-3.37887e-25
-3.37871e-25
-3.37817e-25
1.36052e-23
1.37338e-23
1.06707e-23
7.50266e-24
3.38609e-24
-6.08296e-25
-7.89808e-25
-9.30651e-25
-4.09472e-24
-7.2211e-24
-1.11748e-23
-1.11183e-23
-8.18728e-25
-8.1869e-25
-8.18675e-25
4.08047e-24
4.08049e-24
4.08051e-24
1.31254e-23
1.63684e-24
-9.85168e-24
8.1202e-24
8.12494e-24
8.23064e-24
8.13058e-24
4.32638e-24
6.833e-25
-3.18819e-24
-6.4979e-24
-6.4376e-24
-6.72202e-26
-6.72046e-26
-6.72042e-26
-1.97953e-25
-9.32018e-26
-2.56897e-25
-2.56901e-25
-2.56885e-25
2.98862e-24
4.20157e-24
5.32181e-24
5.32184e-24
5.32189e-24
-3.28371e-24
-3.21929e-24
-8.68141e-24
-9.14593e-24
-1.25139e-23
-1.25138e-23
-1.25138e-23
-1.30397e-23
-1.30398e-23
-1.30397e-23
-1.30396e-23
-4.7362e-26
-4.73352e-26
-4.73345e-26
-6.78484e-27
-6.78468e-27
-6.78462e-27
-6.78457e-27
-6.78452e-27
-6.78449e-27
-6.78444e-27
-5.48537e-30
-5.46958e-30
-5.46924e-30
-7.17371e-34
-6.99403e-34
-6.92507e-34
-6.87691e-34
-6.83994e-34
-6.82074e-34
-6.82012e-34
-3.79552e-37
-3.77326e-37
-3.7728e-37
-1.39524e-40
-1.36602e-40
-1.35575e-40
-1.3494e-40
-1.34634e-40
-1.34626e-40
3.42513e-41
3.42776e-41
3.41886e-41
-5.9557e-41
-5.94721e-41
-5.95008e-41
-5.95911e-41
-5.97264e-41
-5.98859e-41
-6.0208e-41
-6.45805e-39
-6.45774e-39
-6.45807e-39
3.24213e-38
3.24233e-38
3.24237e-38
3.24237e-38
3.24233e-38
3.24226e-38
3.24206e-38
-1.64009e-39
-1.63871e-39
-1.64174e-39
-4.50622e-37
-4.50623e-37
-4.50623e-37
-4.50623e-37
-4.50623e-37
-4.50623e-37
-4.50623e-37
-4.50624e-37
-4.50624e-37
)
;
    }
    outlet
    {
        type            cyclic;
        value           nonuniform List<scalar> 
344
(
-1.01194e-23
-2.24137e-23
-3.46516e-23
-4.68686e-23
-5.89201e-23
-6.38489e-23
-6.86196e-23
-7.33918e-23
-7.78322e-23
-7.57264e-23
-7.33112e-23
-7.09548e-23
-6.86509e-23
-6.64039e-23
-6.42189e-23
-6.20979e-23
-6.00417e-23
-5.8051e-23
-5.61269e-23
-5.42712e-23
-5.24858e-23
-5.07728e-23
-4.91345e-23
-4.75728e-23
-4.60899e-23
-4.46874e-23
-4.33671e-23
-4.21307e-23
-4.09793e-23
-3.99141e-23
-3.89363e-23
-3.80466e-23
-3.72457e-23
-3.6534e-23
-3.59121e-23
-3.53801e-23
-3.49383e-23
-3.45865e-23
-3.43247e-23
-3.41528e-23
-3.40704e-23
-3.40773e-23
-3.41734e-23
-3.43588e-23
-3.46333e-23
-3.49978e-23
-3.54543e-23
-3.60057e-23
-3.66566e-23
-3.74123e-23
-3.82876e-23
-3.91928e-23
-3.73282e-23
-3.54913e-23
-3.37697e-23
-3.21465e-23
-3.06142e-23
-2.91661e-23
-2.77973e-23
-2.65041e-23
-2.52841e-23
-2.41349e-23
-2.30554e-23
-2.20438e-23
-2.10997e-23
-2.02216e-23
-1.94088e-23
-1.86607e-23
-1.79762e-23
-1.73551e-23
-1.67965e-23
-1.63003e-23
-1.58659e-23
-1.54928e-23
-1.51807e-23
-1.49294e-23
-1.47383e-23
-1.46075e-23
-1.46061e-23
-1.31301e-23
-1.10291e-23
-9.05443e-24
-7.4946e-24
6.87812e-24
1.15758e-23
8.16443e-24
2.55179e-24
1.19421e-24
3.87769e-25
3.87362e-25
3.87042e-25
3.86834e-25
3.86697e-25
3.86579e-25
3.86477e-25
3.86396e-25
3.86336e-25
3.86301e-25
3.86288e-25
3.86306e-25
3.86403e-25
4.49916e-25
7.25677e-25
1.19229e-24
4.17791e-27
4.15611e-27
4.16611e-27
-6.01578e-26
-6.01611e-26
-6.01634e-26
-6.01659e-26
-6.01687e-26
-6.01716e-26
-6.01744e-26
-6.01771e-26
-6.01797e-26
-6.0182e-26
-6.0184e-26
-6.01858e-26
-6.01872e-26
-6.01884e-26
-6.01892e-26
-6.01897e-26
-6.01896e-26
-6.01891e-26
-6.0192e-26
2.95958e-24
2.9596e-24
2.95958e-24
8.84703e-25
2.16694e-25
1.33881e-26
1.33877e-26
1.33876e-26
2.69753e-27
2.69753e-27
2.69751e-27
1.45844e-27
1.45845e-27
1.45842e-27
-2.606e-27
-7.32696e-27
-1.68603e-26
-1.68607e-26
-1.68805e-26
-6.94416e-24
-6.94419e-24
-6.94421e-24
-6.9444e-24
-1.54974e-23
-4.00899e-24
7.47947e-24
-2.05515e-24
-2.16282e-24
1.73164e-24
5.37639e-24
5.13346e-24
5.10847e-24
5.10753e-24
2.05965e-24
2.05964e-24
2.05962e-24
2.99717e-25
2.99715e-25
2.99713e-25
2.99709e-25
7.89496e-27
7.89402e-27
7.89376e-27
-4.41208e-26
-1.42411e-25
-3.5782e-25
-3.57824e-25
-3.57926e-25
-1.45076e-23
-1.45625e-23
-9.26047e-24
-9.13557e-24
-8.82258e-24
-5.51565e-24
-2.31922e-24
1.41913e-24
4.94113e-24
8.57127e-24
1.24791e-23
1.61053e-23
1.98307e-23
2.26998e-23
2.26345e-23
2.38212e-23
2.38209e-23
2.38208e-23
2.28164e-23
2.27407e-23
2.6714e-23
2.9761e-23
2.97109e-23
-5.49604e-24
5.99237e-24
1.74808e-23
2.88118e-24
2.79884e-24
6.50886e-24
9.44302e-24
9.3893e-24
-9.6077e-24
1.88083e-24
1.33693e-23
-6.58646e-24
-6.43241e-24
-2.98762e-24
2.88757e-25
3.96104e-24
7.23663e-24
7.13371e-24
1.87715e-24
1.87712e-24
1.87707e-24
-6.32345e-24
-6.31095e-24
-6.13469e-24
-2.90433e-24
4.26326e-25
3.98641e-24
7.16461e-24
7.27867e-24
3.37887e-25
3.37871e-25
3.37817e-25
-1.36052e-23
-1.37338e-23
-1.06707e-23
-7.50266e-24
-3.38609e-24
6.08296e-25
7.89808e-25
9.30651e-25
4.09472e-24
7.2211e-24
1.11748e-23
1.11183e-23
8.18728e-25
8.1869e-25
8.18675e-25
-4.08047e-24
-4.08049e-24
-4.08051e-24
-1.31254e-23
-1.63684e-24
9.85168e-24
-8.1202e-24
-8.12494e-24
-8.23064e-24
-8.13058e-24
-4.32638e-24
-6.833e-25
3.18819e-24
6.4979e-24
6.4376e-24
6.72202e-26
6.72046e-26
6.72042e-26
1.97953e-25
9.32018e-26
2.56897e-25
2.56901e-25
2.56885e-25
-2.98862e-24
-4.20157e-24
-5.32181e-24
-5.32184e-24
-5.32189e-24
3.28371e-24
3.21929e-24
8.68141e-24
9.14593e-24
1.25139e-23
1.25138e-23
1.25138e-23
1.30397e-23
1.30398e-23
1.30397e-23
1.30396e-23
4.7362e-26
4.73352e-26
4.73345e-26
6.78484e-27
6.78468e-27
6.78462e-27
6.78457e-27
6.78452e-27
6.78449e-27
6.78444e-27
5.48537e-30
5.46958e-30
5.46924e-30
7.17371e-34
6.99403e-34
6.92507e-34
6.87691e-34
6.83994e-34
6.82074e-34
6.82012e-34
3.79552e-37
3.77326e-37
3.7728e-37
1.39524e-40
1.36602e-40
1.35575e-40
1.3494e-40
1.34634e-40
1.34626e-40
-3.42513e-41
-3.42776e-41
-3.41886e-41
5.9557e-41
5.94721e-41
5.95008e-41
5.95911e-41
5.97264e-41
5.98859e-41
6.0208e-41
6.45805e-39
6.45774e-39
6.45807e-39
-3.24213e-38
-3.24233e-38
-3.24237e-38
-3.24237e-38
-3.24233e-38
-3.24226e-38
-3.24206e-38
1.64009e-39
1.63871e-39
1.64174e-39
4.50622e-37
4.50623e-37
4.50623e-37
4.50623e-37
4.50623e-37
4.50623e-37
4.50623e-37
4.50624e-37
4.50624e-37
)
;
    }
    top
    {
        type            calculated;
        value           uniform -5.1446e-09;
    }
    bottom
    {
        type            fixedValue;
        value           uniform 0;
    }
    frontAndBackPlanes
    {
        type            empty;
        value           nonuniform List<scalar> 0();
    }
}


// ************************************************************************* //
