/*--------------------------------*- C++ -*----------------------------------*\
| =========                 |                                                 |
| \\      /  F ield         | OpenFOAM: The Open Source CFD Toolbox           |
|  \\    /   O peration     | Version:  2206                                  |
|   \\  /    A nd           | Website:  www.openfoam.com                      |
|    \\/     M anipulation  |                                                 |
\*---------------------------------------------------------------------------*/
FoamFile
{
    version     2.0;
    format      ascii;
    arch        "LSB;label=32;scalar=64";
    class       surfaceScalarField;
    location    "160";
    object      phi.b;
}
// * * * * * * * * * * * * * * * * * * * * * * * * * * * * * * * * * * * * * //

dimensions      [0 3 -1 0 0 0 0];

oriented        oriented;

internalField   nonuniform List<scalar> 
343
(
5.67877e-17
1.02922e-16
1.26273e-16
1.1696e-16
6.46964e-17
-3.76704e-17
-1.94454e-16
-4.10008e-16
-6.78842e-16
-1.00348e-15
-1.36742e-15
-1.77195e-15
-2.19126e-15
-2.62537e-15
-3.04593e-15
-3.44937e-15
-3.81494e-15
-4.13049e-15
-4.39703e-15
-4.58539e-15
-4.73227e-15
-4.78131e-15
-4.81733e-15
-4.74515e-15
-4.70502e-15
-4.55436e-15
-4.48976e-15
-4.31811e-15
-4.2829e-15
-4.14637e-15
-4.18051e-15
-4.11974e-15
-4.23717e-15
-4.26841e-15
-4.45164e-15
-4.56173e-15
-4.75984e-15
-4.90623e-15
-5.03989e-15
-5.15447e-15
-5.12362e-15
-5.11886e-15
-4.80991e-15
-4.58043e-15
-3.87989e-15
-3.30836e-15
-2.11817e-15
-1.08714e-15
6.41007e-16
2.21712e-15
4.43012e-15
6.54085e-15
9.00962e-15
1.14357e-14
1.36769e-14
1.58776e-14
1.71681e-14
1.82844e-14
1.79055e-14
1.7074e-14
1.48655e-14
1.19492e-14
8.93927e-15
5.41388e-15
3.81606e-15
2.85714e-15
4.48749e-15
8.91483e-15
1.22536e-14
2.0046e-14
1.90065e-14
1.89175e-14
9.20642e-15
-1.38484e-14
-1.52656e-14
-2.15883e-14
1.30091e-14
5.06542e-13
2.17841e-10
3.63027e-13
4.26581e-20
4.86882e-20
5.85137e-20
6.21461e-20
7.19839e-20
7.4012e-20
7.67515e-20
7.2596e-20
8.70178e-20
9.32898e-20
1.00354e-19
9.63883e-20
1.02021e-19
9.64197e-20
9.14542e-20
7.70878e-20
7.72138e-20
6.96908e-20
6.26819e-20
4.89358e-20
3.97409e-20
2.6563e-20
1.34383e-20
-1.01566e-21
-1.69497e-20
-3.11153e-20
-4.54383e-20
-5.56556e-20
-7.02827e-20
-7.87737e-20
-8.77252e-20
-8.992e-20
-1.04921e-19
-1.11827e-19
-1.1929e-19
-1.17049e-19
-1.23341e-19
-1.19711e-19
-1.16858e-19
-1.06137e-19
-1.14658e-19
-1.15591e-19
-1.17283e-19
-1.09772e-19
-1.09996e-19
-1.0165e-19
-9.37666e-20
-7.91797e-20
-7.44057e-20
-6.45619e-20
-5.50596e-20
-4.18703e-20
-3.01365e-20
-1.78765e-20
-5.93795e-21
-3.18134e-20
9.11208e-21
1.10375e-20
1.27238e-20
1.17768e-20
1.29447e-20
1.26541e-20
1.24269e-20
1.13062e-20
1.19978e-20
1.18923e-20
1.18399e-20
1.11386e-20
1.09792e-20
1.02556e-20
9.57739e-21
8.5218e-21
8.53948e-21
8.25556e-21
8.01143e-21
7.40953e-21
7.10357e-21
6.49272e-21
5.89802e-21
5.07706e-21
4.58285e-21
3.92512e-21
3.27859e-21
2.53111e-21
1.7977e-21
1.09118e-21
4.04403e-22
1.89183e-21
-3.57832e-22
-4.03603e-22
-4.31794e-22
-3.50424e-22
-3.52452e-22
-3.1424e-22
-2.7686e-22
-2.27078e-22
-2.13446e-22
-1.91333e-22
-1.69597e-22
-1.50634e-22
-1.29266e-22
-1.12148e-22
-9.49074e-23
-8.27652e-23
-6.71987e-23
-5.70181e-23
-4.66801e-23
-4.16831e-23
-3.23236e-23
-2.8055e-23
-2.3515e-23
-2.30824e-23
-1.65471e-23
-1.31679e-23
-9.58106e-24
-8.58895e-24
-5.96694e-24
-4.66497e-24
-3.39167e-24
-1.9629e-24
-3.09482e-24
-3.3797e-24
-3.74112e-24
-3.58544e-24
-3.86827e-24
-3.76207e-24
-3.67921e-24
-3.32547e-24
-3.43471e-24
-3.35435e-24
-3.28984e-24
-3.06036e-24
-2.9559e-24
-2.73792e-24
-2.52799e-24
-2.26625e-24
-2.16567e-24
-2.04798e-24
-1.9358e-24
-1.80636e-24
-1.68777e-24
-1.56845e-24
-1.44935e-24
-1.33771e-24
-1.2255e-24
-1.12633e-24
-1.02753e-24
-9.3376e-25
-8.66515e-25
-7.66769e-25
-6.76914e-25
-2.22818e-25
-5.48756e-25
-5.08473e-25
-4.78178e-25
-4.11619e-25
-3.74127e-25
-3.38274e-25
-3.02667e-25
-2.81712e-25
-2.48737e-25
-2.30781e-25
-2.12358e-25
-2.08738e-25
-1.91796e-25
-1.90457e-25
-1.88063e-25
-2.07839e-25
-1.87841e-25
-1.90486e-25
-1.92043e-25
-2.10464e-25
-2.14187e-25
-2.34781e-25
-2.54791e-25
-2.9066e-25
-3.14861e-25
-3.5532e-25
-3.9587e-25
-4.36645e-25
-5.14903e-25
-5.45254e-25
-5.81794e-25
1.10513e-25
-5.80729e-25
-5.43162e-25
-5.1178e-25
-4.32611e-25
-3.90764e-25
-3.4938e-25
-3.08061e-25
-2.83356e-25
-2.46183e-25
-2.25399e-25
-2.03992e-25
-2.002e-25
-1.80924e-25
-1.79535e-25
-1.76966e-25
-1.9825e-25
-1.76986e-25
-1.79575e-25
-1.80985e-25
-2.00283e-25
-2.04096e-25
-2.25526e-25
-2.46334e-25
-2.83508e-25
-3.08284e-25
-3.49652e-25
-3.91087e-25
-4.32912e-25
-5.12228e-25
-5.43529e-25
-5.80967e-25
1.1548e-25
-5.80074e-25
-5.41593e-25
-5.09262e-25
-4.2843e-25
-3.85734e-25
-3.42495e-25
-2.99415e-25
-2.71334e-25
-2.34309e-25
-2.1149e-25
-1.88194e-25
-1.79455e-25
-1.58936e-25
-1.51342e-25
-1.42979e-25
-1.48843e-25
-1.30164e-25
-1.2364e-25
-1.16482e-25
-1.16802e-25
-1.11053e-25
-1.11008e-25
-1.10618e-25
-1.15589e-25
-1.1067e-25
-1.11143e-25
-1.11268e-25
-1.17204e-25
-1.16922e-25
-1.2434e-25
-1.31101e-25
-1.50383e-25
-1.44339e-25
-1.53103e-25
-1.61058e-25
-1.8281e-25
-1.91836e-25
-2.16755e-25
-2.41105e-25
-2.80614e-25
-3.10274e-25
-3.56856e-25
-4.03476e-25
-4.50745e-25
-5.39201e-25
-5.76617e-25
-6.19982e-25
)
;

boundaryField
{
    inlet
    {
        type            cyclic;
        value           nonuniform List<scalar> 
344
(
1.00799e-23
2.24042e-23
3.46515e-23
4.68686e-23
5.88848e-23
6.38488e-23
6.86195e-23
7.33918e-23
7.78349e-23
7.57262e-23
7.33112e-23
7.09548e-23
6.86505e-23
6.64039e-23
6.42195e-23
6.20986e-23
6.00417e-23
5.8051e-23
5.61269e-23
5.42712e-23
5.24857e-23
5.07739e-23
4.91345e-23
4.75728e-23
4.60898e-23
4.46874e-23
4.33671e-23
4.21306e-23
4.09792e-23
3.99141e-23
3.89363e-23
3.80466e-23
3.72456e-23
3.6534e-23
3.59121e-23
3.53801e-23
3.49392e-23
3.45864e-23
3.43247e-23
3.41527e-23
3.40703e-23
3.40773e-23
3.41734e-23
3.43599e-23
3.46338e-23
3.49978e-23
3.54542e-23
3.60056e-23
3.66565e-23
3.74123e-23
3.82877e-23
3.91946e-23
3.73282e-23
3.54923e-23
3.37697e-23
3.21464e-23
3.06141e-23
2.91661e-23
2.77973e-23
2.65041e-23
2.52861e-23
2.41349e-23
2.30561e-23
2.20433e-23
2.10996e-23
2.02216e-23
1.94088e-23
1.86608e-23
1.7976e-23
1.73551e-23
1.67954e-23
1.62997e-23
1.58659e-23
1.54928e-23
1.51807e-23
1.49298e-23
1.47383e-23
1.461e-23
1.47186e-23
1.34661e-23
1.0207e-23
7.67469e-24
9.61846e-24
4.51407e-24
-5.82328e-25
-1.46971e-23
-1.55649e-23
-1.64077e-23
-1.71949e-23
-2.35479e-23
-2.15616e-23
-1.9587e-23
-1.53123e-23
-1.10767e-23
-9.50586e-24
-7.99884e-24
-6.55252e-24
-6.27948e-24
-6.07182e-24
-5.30285e-24
-4.59866e-24
-3.95701e-24
-3.37565e-24
-2.85162e-24
-2.38136e-24
-1.96105e-24
-1.58673e-24
-1.25443e-24
-9.60278e-25
-7.70387e-25
-6.10872e-25
-4.7797e-25
-3.6822e-25
-2.78454e-25
-2.05784e-25
-1.47597e-25
-1.01556e-25
-6.55959e-26
-3.79195e-26
-2.09892e-26
-6.39181e-27
3.94626e-27
1.09639e-26
1.5438e-26
1.80045e-26
1.9177e-26
1.93615e-26
1.85472e-26
1.73123e-26
1.58415e-26
1.41335e-26
1.24232e-26
1.08116e-26
9.30718e-27
7.93445e-27
6.70482e-27
5.62032e-27
4.6764e-27
3.8643e-27
3.17274e-27
2.58922e-27
2.101e-27
1.69564e-27
1.36148e-27
1.08783e-27
8.65123e-28
6.84943e-28
5.39968e-28
4.23928e-28
3.3151e-28
2.58252e-28
2.00442e-28
1.55021e-28
1.19476e-28
9.17727e-29
7.02647e-29
5.36254e-29
4.07988e-29
3.09459e-29
2.34005e-29
1.76407e-29
1.32593e-29
9.93692e-30
7.42379e-30
5.52989e-30
4.10668e-30
3.04049e-30
2.2442e-30
1.65134e-30
1.21132e-30
8.8578e-31
6.45636e-31
4.69206e-31
3.40519e-31
2.46023e-31
1.77529e-31
1.27632e-31
9.18474e-32
6.61499e-32
4.75991e-32
3.45652e-32
2.51531e-32
1.83164e-32
1.36794e-32
1.02042e-32
7.92373e-33
6.2196e-33
4.90503e-33
4.09813e-33
3.43527e-33
2.86132e-33
2.57528e-33
2.12802e-33
1.84599e-33
1.61323e-33
1.41872e-33
1.23488e-33
1.13095e-33
9.978e-34
8.83096e-34
7.93716e-34
6.91303e-34
6.03583e-34
5.25247e-34
4.57759e-34
3.95282e-34
3.41632e-34
2.94676e-34
2.51849e-34
2.1411e-34
1.82076e-34
1.52973e-34
1.28613e-34
1.07507e-34
8.85336e-35
7.41098e-35
6.07514e-35
4.81837e-35
3.94232e-35
3.21747e-35
2.49012e-35
2.01571e-35
1.5128e-35
1.1567e-35
9.51513e-36
6.80491e-36
4.73198e-36
3.21868e-36
2.33847e-36
1.48941e-36
1.09605e-36
5.22515e-37
4.58624e-37
6.38546e-38
2.05225e-37
1.52599e-37
1.50371e-37
-1.74013e-38
2.27531e-37
1.26539e-37
3.6145e-37
2.97224e-37
5.20357e-37
6.03415e-37
6.89708e-37
7.76846e-37
7.41872e-37
1.05301e-36
1.25011e-36
1.00015e-36
1.08857e-36
1.27892e-36
1.35279e-36
1.42816e-36
1.37823e-36
1.57285e-36
1.36216e-36
1.69028e-36
1.57948e-36
1.43316e-36
1.81067e-36
1.84139e-36
1.67722e-36
1.85281e-36
1.77483e-36
1.81991e-36
9.08312e-37
1.79959e-36
1.78718e-36
1.44103e-36
1.87387e-36
1.54196e-36
1.63416e-36
1.46074e-36
1.41195e-36
1.35333e-36
1.16874e-36
1.31262e-36
1.22862e-36
1.03662e-36
1.0628e-36
9.78406e-37
1.12832e-36
6.14108e-37
7.74247e-37
7.0297e-37
6.3579e-37
5.73604e-37
5.15579e-37
4.61556e-37
4.11499e-37
3.65372e-37
3.23102e-37
2.84584e-37
2.49682e-37
2.18235e-37
1.9006e-37
1.64951e-37
1.42689e-37
1.2304e-37
1.0576e-37
9.05992e-38
7.73035e-38
6.56161e-38
5.52796e-38
4.60366e-38
3.76301e-38
2.9804e-38
2.23035e-38
1.48746e-38
7.26577e-39
-7.71992e-40
-9.4832e-39
-1.91061e-38
-2.98707e-38
-4.19969e-38
-5.56945e-38
-7.1165e-38
-8.86059e-38
-1.08217e-37
-1.30207e-37
-1.54796e-37
-1.82252e-37
-2.13032e-37
-2.48417e-37
-2.88746e-37
-1.03919e-37
-3.57526e-37
-3.85234e-37
-4.16399e-37
-4.49946e-37
-4.83879e-37
-5.17069e-37
-5.48671e-37
-5.78034e-37
-6.04725e-37
-6.28556e-37
-6.49524e-37
-6.67574e-37
-6.822e-37
-6.92277e-37
-6.97479e-37
-6.87544e-37
-5.74066e-37
)
;
    }
    outlet
    {
        type            cyclic;
        value           nonuniform List<scalar> 
344
(
-1.00799e-23
-2.24042e-23
-3.46515e-23
-4.68686e-23
-5.88848e-23
-6.38488e-23
-6.86195e-23
-7.33918e-23
-7.78349e-23
-7.57262e-23
-7.33112e-23
-7.09548e-23
-6.86505e-23
-6.64039e-23
-6.42195e-23
-6.20986e-23
-6.00417e-23
-5.8051e-23
-5.61269e-23
-5.42712e-23
-5.24857e-23
-5.07739e-23
-4.91345e-23
-4.75728e-23
-4.60898e-23
-4.46874e-23
-4.33671e-23
-4.21306e-23
-4.09792e-23
-3.99141e-23
-3.89363e-23
-3.80466e-23
-3.72456e-23
-3.6534e-23
-3.59121e-23
-3.53801e-23
-3.49392e-23
-3.45864e-23
-3.43247e-23
-3.41527e-23
-3.40703e-23
-3.40773e-23
-3.41734e-23
-3.43599e-23
-3.46338e-23
-3.49978e-23
-3.54542e-23
-3.60056e-23
-3.66565e-23
-3.74123e-23
-3.82877e-23
-3.91946e-23
-3.73282e-23
-3.54923e-23
-3.37697e-23
-3.21464e-23
-3.06141e-23
-2.91661e-23
-2.77973e-23
-2.65041e-23
-2.52861e-23
-2.41349e-23
-2.30561e-23
-2.20433e-23
-2.10996e-23
-2.02216e-23
-1.94088e-23
-1.86608e-23
-1.7976e-23
-1.73551e-23
-1.67954e-23
-1.62997e-23
-1.58659e-23
-1.54928e-23
-1.51807e-23
-1.49298e-23
-1.47383e-23
-1.461e-23
-1.47186e-23
-1.34661e-23
-1.0207e-23
-7.67469e-24
-9.61846e-24
-4.51407e-24
5.82328e-25
1.46971e-23
1.55649e-23
1.64077e-23
1.71949e-23
2.35479e-23
2.15616e-23
1.9587e-23
1.53123e-23
1.10767e-23
9.50586e-24
7.99884e-24
6.55252e-24
6.27948e-24
6.07182e-24
5.30285e-24
4.59866e-24
3.95701e-24
3.37565e-24
2.85162e-24
2.38136e-24
1.96105e-24
1.58673e-24
1.25443e-24
9.60278e-25
7.70387e-25
6.10872e-25
4.7797e-25
3.6822e-25
2.78454e-25
2.05784e-25
1.47597e-25
1.01556e-25
6.55959e-26
3.79195e-26
2.09892e-26
6.39181e-27
-3.94626e-27
-1.09639e-26
-1.5438e-26
-1.80045e-26
-1.9177e-26
-1.93615e-26
-1.85472e-26
-1.73123e-26
-1.58415e-26
-1.41335e-26
-1.24232e-26
-1.08116e-26
-9.30718e-27
-7.93445e-27
-6.70482e-27
-5.62032e-27
-4.6764e-27
-3.8643e-27
-3.17274e-27
-2.58922e-27
-2.101e-27
-1.69564e-27
-1.36148e-27
-1.08783e-27
-8.65123e-28
-6.84943e-28
-5.39968e-28
-4.23928e-28
-3.3151e-28
-2.58252e-28
-2.00442e-28
-1.55021e-28
-1.19476e-28
-9.17727e-29
-7.02647e-29
-5.36254e-29
-4.07988e-29
-3.09459e-29
-2.34005e-29
-1.76407e-29
-1.32593e-29
-9.93692e-30
-7.42379e-30
-5.52989e-30
-4.10668e-30
-3.04049e-30
-2.2442e-30
-1.65134e-30
-1.21132e-30
-8.8578e-31
-6.45636e-31
-4.69206e-31
-3.40519e-31
-2.46023e-31
-1.77529e-31
-1.27632e-31
-9.18474e-32
-6.61499e-32
-4.75991e-32
-3.45652e-32
-2.51531e-32
-1.83164e-32
-1.36794e-32
-1.02042e-32
-7.92373e-33
-6.2196e-33
-4.90503e-33
-4.09813e-33
-3.43527e-33
-2.86132e-33
-2.57528e-33
-2.12802e-33
-1.84599e-33
-1.61323e-33
-1.41872e-33
-1.23488e-33
-1.13095e-33
-9.978e-34
-8.83096e-34
-7.93716e-34
-6.91303e-34
-6.03583e-34
-5.25247e-34
-4.57759e-34
-3.95282e-34
-3.41632e-34
-2.94676e-34
-2.51849e-34
-2.1411e-34
-1.82076e-34
-1.52973e-34
-1.28613e-34
-1.07507e-34
-8.85336e-35
-7.41098e-35
-6.07514e-35
-4.81837e-35
-3.94232e-35
-3.21747e-35
-2.49012e-35
-2.01571e-35
-1.5128e-35
-1.1567e-35
-9.51513e-36
-6.80491e-36
-4.73198e-36
-3.21868e-36
-2.33847e-36
-1.48941e-36
-1.09605e-36
-5.22515e-37
-4.58624e-37
-6.38546e-38
-2.05225e-37
-1.52599e-37
-1.50371e-37
1.74013e-38
-2.27531e-37
-1.26539e-37
-3.6145e-37
-2.97224e-37
-5.20357e-37
-6.03415e-37
-6.89708e-37
-7.76846e-37
-7.41872e-37
-1.05301e-36
-1.25011e-36
-1.00015e-36
-1.08857e-36
-1.27892e-36
-1.35279e-36
-1.42816e-36
-1.37823e-36
-1.57285e-36
-1.36216e-36
-1.69028e-36
-1.57948e-36
-1.43316e-36
-1.81067e-36
-1.84139e-36
-1.67722e-36
-1.85281e-36
-1.77483e-36
-1.81991e-36
-9.08312e-37
-1.79959e-36
-1.78718e-36
-1.44103e-36
-1.87387e-36
-1.54196e-36
-1.63416e-36
-1.46074e-36
-1.41195e-36
-1.35333e-36
-1.16874e-36
-1.31262e-36
-1.22862e-36
-1.03662e-36
-1.0628e-36
-9.78406e-37
-1.12832e-36
-6.14108e-37
-7.74247e-37
-7.0297e-37
-6.3579e-37
-5.73604e-37
-5.15579e-37
-4.61556e-37
-4.11499e-37
-3.65372e-37
-3.23102e-37
-2.84584e-37
-2.49682e-37
-2.18235e-37
-1.9006e-37
-1.64951e-37
-1.42689e-37
-1.2304e-37
-1.0576e-37
-9.05992e-38
-7.73035e-38
-6.56161e-38
-5.52796e-38
-4.60366e-38
-3.76301e-38
-2.9804e-38
-2.23035e-38
-1.48746e-38
-7.26577e-39
7.71992e-40
9.4832e-39
1.91061e-38
2.98707e-38
4.19969e-38
5.56945e-38
7.1165e-38
8.86059e-38
1.08217e-37
1.30207e-37
1.54796e-37
1.82252e-37
2.13032e-37
2.48417e-37
2.88746e-37
1.03919e-37
3.57526e-37
3.85234e-37
4.16399e-37
4.49946e-37
4.83879e-37
5.17069e-37
5.48671e-37
5.78034e-37
6.04725e-37
6.28556e-37
6.49524e-37
6.67574e-37
6.822e-37
6.92277e-37
6.97479e-37
6.87544e-37
5.74066e-37
)
;
    }
    top
    {
        type            calculated;
        value           uniform 2.47472e-25;
    }
    bottom
    {
        type            fixedValue;
        value           uniform 0;
    }
    frontAndBackPlanes
    {
        type            empty;
        value           nonuniform List<scalar> 0();
    }
}


// ************************************************************************* //
