/*--------------------------------*- C++ -*----------------------------------*\
| =========                 |                                                 |
| \\      /  F ield         | OpenFOAM: The Open Source CFD Toolbox           |
|  \\    /   O peration     | Version:  2206                                  |
|   \\  /    A nd           | Website:  www.openfoam.com                      |
|    \\/     M anipulation  |                                                 |
\*---------------------------------------------------------------------------*/
FoamFile
{
    version     2.0;
    format      ascii;
    arch        "LSB;label=32;scalar=64";
    class       volVectorField;
    location    "160";
    object      U.a;
}
// * * * * * * * * * * * * * * * * * * * * * * * * * * * * * * * * * * * * * //

dimensions      [0 1 -1 0 0 0 0];

internalField   nonuniform List<vector> 
344
(
(-2.24876e-17 1.05677e-05 0)
(-4.98083e-17 -1.05387e-07 0)
(-7.70035e-17 9.90882e-08 0)
(-1.04153e-16 -1.00507e-07 0)
(-1.30933e-16 9.92217e-08 0)
(-1.41886e-16 -9.99211e-08 0)
(-1.52488e-16 1.00339e-07 0)
(-1.63093e-16 -9.82062e-08 0)
(-1.7296e-16 1.02696e-07 0)
(-1.68281e-16 -9.5264e-08 0)
(-1.62914e-16 1.06249e-07 0)
(-1.57677e-16 -9.12797e-08 0)
(-1.52558e-16 1.1068e-07 0)
(-1.47564e-16 -8.66857e-08 0)
(-1.42709e-16 1.15441e-07 0)
(-1.37995e-16 -8.20741e-08 0)
(-1.33426e-16 1.19868e-07 0)
(-1.29002e-16 -7.80575e-08 0)
(-1.24726e-16 1.23337e-07 0)
(-1.20603e-16 -7.51206e-08 0)
(-1.16635e-16 1.2541e-07 0)
(-1.12828e-16 -7.34887e-08 0)
(-1.09188e-16 1.25951e-07 0)
(-1.05717e-16 -7.3067e-08 0)
(-1.02422e-16 1.25154e-07 0)
(-9.93053e-17 -7.34721e-08 0)
(-9.63714e-17 1.2349e-07 0)
(-9.36237e-17 -7.41395e-08 0)
(-9.1065e-17 1.21585e-07 0)
(-8.86981e-17 -7.44777e-08 0)
(-8.65251e-17 1.20059e-07 0)
(-8.4548e-17 -7.40491e-08 0)
(-8.27681e-17 1.19363e-07 0)
(-8.11867e-17 -7.27009e-08 0)
(-7.98047e-17 1.19685e-07 0)
(-7.86225e-17 -7.06298e-08 0)
(-7.76407e-17 1.20885e-07 0)
(-7.68588e-17 -6.84011e-08 0)
(-7.62771e-17 1.22505e-07 0)
(-7.5895e-17 -6.6896e-08 0)
(-7.5712e-17 1.23805e-07 0)
(-7.57274e-17 -6.72317e-08 0)
(-7.59409e-17 1.23813e-07 0)
(-7.63529e-17 -7.06641e-08 0)
(-7.69628e-17 1.21368e-07 0)
(-7.77729e-17 -7.84649e-08 0)
(-7.87873e-17 1.1516e-07 0)
(-8.00127e-17 -9.173e-08 0)
(-8.14591e-17 1.03868e-07 0)
(-8.31385e-17 -1.11002e-07 0)
(-8.50835e-17 8.64988e-08 0)
(-8.70951e-17 -1.35691e-07 0)
(-8.29516e-17 6.31118e-08 0)
(-7.88695e-17 -1.63246e-07 0)
(-7.50437e-17 3.60783e-08 0)
(-7.14366e-17 -1.88272e-07 0)
(-6.80314e-17 1.13731e-08 0)
(-6.48137e-17 -2.02698e-07 0)
(-6.17719e-17 -1.39663e-09 0)
(-5.88981e-17 -1.98487e-07 0)
(-5.61869e-17 7.56486e-09 0)
(-5.3633e-17 -1.73845e-07 0)
(-5.12342e-17 4.00626e-08 0)
(-4.89862e-17 -1.40278e-07 0)
(-4.68881e-17 7.97721e-08 0)
(-4.49368e-17 -1.22577e-07 0)
(-4.31308e-17 9.08188e-08 0)
(-4.14682e-17 -1.41015e-07 0)
(-3.99472e-17 4.05252e-08 0)
(-3.85669e-17 -1.78237e-07 0)
(-3.73256e-17 -4.94349e-08 0)
(-3.62229e-17 -1.6553e-07 0)
(-3.52576e-17 -5.06526e-08 0)
(-3.44285e-17 -5.55965e-08 0)
(-3.3735e-17 2.15782e-07 0)
(-3.31765e-17 -4.30626e-08 0)
(-3.27519e-17 2.94159e-07 0)
(-3.24612e-17 -5.18719e-07 0)
(-3.24581e-17 4.16335e-06 0)
(-2.9178e-17 -0.026137 0)
(-2.45091e-17 -0.0210176 0)
(-2.0121e-17 -0.0346597 0)
(-1.66547e-17 -0.0416556 0)
(1.52847e-17 -0.0408303 0)
(2.57241e-17 -0.0412015 0)
(1.81432e-17 -0.0411372 0)
(5.67063e-18 -0.0414359 0)
(2.65379e-18 -0.0414437 0)
(8.6171e-19 -0.0414597 0)
(8.60804e-19 -0.0414597 0)
(8.60094e-19 -0.0414598 0)
(8.59631e-19 -0.0414598 0)
(8.59327e-19 -0.0414598 0)
(8.59063e-19 -0.0414598 0)
(8.58839e-19 -0.0414598 0)
(8.58657e-19 -0.0414598 0)
(8.58525e-19 -0.0414598 0)
(8.58446e-19 -0.0414598 0)
(8.58419e-19 -0.0414598 0)
(8.58457e-19 -0.0414598 0)
(8.58673e-19 -0.0414597 0)
(9.99814e-19 -0.0414503 0)
(1.61262e-18 -0.0413518 0)
(2.64953e-18 -0.0403608 0)
(9.28425e-21 -0.035077 0)
(9.23579e-21 -0.0350769 0)
(9.25802e-21 -0.035077 0)
(-1.33684e-19 -0.0396171 0)
(-1.33691e-19 -0.0396171 0)
(-1.33696e-19 -0.0396171 0)
(-1.33702e-19 -0.0396171 0)
(-1.33708e-19 -0.0396171 0)
(-1.33715e-19 -0.0396171 0)
(-1.33721e-19 -0.0396171 0)
(-1.33727e-19 -0.0396171 0)
(-1.33733e-19 -0.0396171 0)
(-1.33738e-19 -0.0396171 0)
(-1.33742e-19 -0.0396171 0)
(-1.33746e-19 -0.0396171 0)
(-1.33749e-19 -0.0396171 0)
(-1.33752e-19 -0.0396171 0)
(-1.33754e-19 -0.0396171 0)
(-1.33755e-19 -0.0396171 0)
(-1.33755e-19 -0.0396171 0)
(-1.33754e-19 -0.0396171 0)
(-1.3376e-19 -0.0396171 0)
(6.57685e-18 -0.0349429 0)
(6.57689e-18 -0.0349429 0)
(6.57685e-18 -0.0349429 0)
(1.96601e-18 -0.0396307 0)
(4.81542e-19 -0.0394434 0)
(2.97513e-20 -0.0355799 0)
(2.97505e-20 -0.0355799 0)
(2.97503e-20 -0.0355799 0)
(5.99451e-21 -0.0389566 0)
(5.99451e-21 -0.0389566 0)
(5.99447e-21 -0.0389566 0)
(3.24098e-21 -0.0375348 0)
(3.241e-21 -0.0375348 0)
(3.24094e-21 -0.0375348 0)
(-5.7911e-21 -0.0396275 0)
(-1.62821e-20 -0.0394909 0)
(-3.74673e-20 -0.0359488 0)
(-3.74683e-20 -0.0359488 0)
(-3.75121e-20 -0.0359488 0)
(-1.54315e-17 -0.0396283 0)
(-1.54315e-17 -0.0396283 0)
(-1.54316e-17 -0.0396283 0)
(-1.5432e-17 -0.0396283 0)
(-3.44388e-17 -0.0389979 0)
(-8.90886e-18 -0.0389979 0)
(1.66211e-17 -0.0389979 0)
(-4.567e-18 -0.0396391 0)
(-4.80627e-18 -0.0396391 0)
(3.84808e-18 -0.0396391 0)
(1.19475e-17 -0.0396391 0)
(1.14077e-17 -0.0396391 0)
(1.13522e-17 -0.0396391 0)
(1.13501e-17 -0.0396391 0)
(4.577e-18 -0.0338533 0)
(4.57697e-18 -0.0338533 0)
(4.57694e-18 -0.0338533 0)
(6.66037e-19 -0.0391376 0)
(6.66033e-19 -0.0391376 0)
(6.6603e-19 -0.0391376 0)
(6.66019e-19 -0.0391376 0)
(1.75444e-20 -0.0346729 0)
(1.75423e-20 -0.0346728 0)
(1.75417e-20 -0.0346729 0)
(-9.80463e-20 -0.0396128 0)
(-3.1647e-19 -0.0393833 0)
(-7.95155e-19 -0.0348848 0)
(-7.95164e-19 -0.0348847 0)
(-7.95391e-19 -0.0348848 0)
(-3.22392e-17 -0.0398299 0)
(-3.23611e-17 -0.0398299 0)
(-2.05788e-17 -0.0398299 0)
(-2.03013e-17 -0.0398299 0)
(-1.96057e-17 -0.0398299 0)
(-1.2257e-17 -0.0398299 0)
(-5.15382e-18 -0.0398299 0)
(3.15362e-18 -0.0398299 0)
(1.09803e-17 -0.0398299 0)
(1.90473e-17 -0.0398299 0)
(2.77314e-17 -0.0398299 0)
(3.57896e-17 -0.0398299 0)
(4.40682e-17 -0.0398299 0)
(5.0444e-17 -0.0398299 0)
(5.02988e-17 -0.0398299 0)
(5.2936e-17 -0.0396659 0)
(5.29353e-17 -0.0396659 0)
(5.29352e-17 -0.0396659 0)
(5.07031e-17 -0.0398406 0)
(5.05348e-17 -0.0398406 0)
(5.93644e-17 -0.0398406 0)
(6.61357e-17 -0.0398406 0)
(6.60243e-17 -0.0398406 0)
(-1.22134e-17 -0.0383733 0)
(1.33164e-17 -0.0383733 0)
(3.88463e-17 -0.0383733 0)
(6.40263e-18 -0.0395779 0)
(6.21965e-18 -0.0395779 0)
(1.44641e-17 -0.0395779 0)
(2.09845e-17 -0.0395779 0)
(2.08651e-17 -0.0395779 0)
(-2.13504e-17 -0.0363475 0)
(4.17963e-18 -0.0363475 0)
(2.97097e-17 -0.0363475 0)
(-1.46366e-17 -0.0395427 0)
(-1.42942e-17 -0.0395427 0)
(-6.63917e-18 -0.0395426 0)
(6.41681e-19 -0.0395426 0)
(8.80232e-18 -0.0395426 0)
(1.60814e-17 -0.0395426 0)
(1.58527e-17 -0.0395426 0)
(4.17145e-18 -0.0338226 0)
(4.17138e-18 -0.0338225 0)
(4.17126e-18 -0.0338226 0)
(-1.40521e-17 -0.0395253 0)
(-1.40243e-17 -0.0395253 0)
(-1.36326e-17 -0.0395253 0)
(-6.45407e-18 -0.0395253 0)
(9.47392e-19 -0.0395252 0)
(8.8587e-18 -0.0395252 0)
(1.59213e-17 -0.0395252 0)
(1.61748e-17 -0.0395252 0)
(7.5086e-19 -0.0348366 0)
(7.50825e-19 -0.0348366 0)
(7.50705e-19 -0.0348366 0)
(-3.02339e-17 -0.0395787 0)
(-3.05196e-17 -0.0395787 0)
(-2.37126e-17 -0.0395787 0)
(-1.66726e-17 -0.0395787 0)
(-7.52465e-18 -0.0395787 0)
(1.35177e-18 -0.0395787 0)
(1.75513e-18 -0.0395787 0)
(2.06811e-18 -0.0395787 0)
(9.09939e-18 -0.0395787 0)
(1.60469e-17 -0.0395787 0)
(2.48328e-17 -0.0395787 0)
(2.47073e-17 -0.0395787 0)
(1.8194e-18 -0.0343432 0)
(1.81931e-18 -0.0343432 0)
(1.81928e-18 -0.0343432 0)
(-9.06772e-18 -0.0389398 0)
(-9.06776e-18 -0.0389398 0)
(-9.0678e-18 -0.0389398 0)
(-2.91675e-17 -0.0349334 0)
(-3.63741e-18 -0.0349333 0)
(2.18926e-17 -0.0349334 0)
(-1.80449e-17 -0.0395317 0)
(-1.80554e-17 -0.0395317 0)
(-1.82903e-17 -0.0395317 0)
(-1.8068e-17 -0.0395317 0)
(-9.61418e-18 -0.0395317 0)
(-1.51845e-18 -0.0395317 0)
(7.08487e-18 -0.0395317 0)
(1.44398e-17 -0.0395317 0)
(1.43058e-17 -0.0395317 0)
(1.49378e-19 -0.0351793 0)
(1.49343e-19 -0.0351792 0)
(1.49343e-19 -0.0351793 0)
(4.39895e-19 -0.0396018 0)
(2.07115e-19 -0.0393616 0)
(5.70883e-19 -0.0345974 0)
(5.7089e-19 -0.0345973 0)
(5.70856e-19 -0.0345974 0)
(-6.64137e-18 -0.0398171 0)
(-9.33682e-18 -0.0398357 0)
(-1.18262e-17 -0.0395289 0)
(-1.18263e-17 -0.0395289 0)
(-1.18264e-17 -0.0395289 0)
(7.29714e-18 -0.0397738 0)
(7.15397e-18 -0.0397738 0)
(1.9292e-17 -0.0397738 0)
(2.03243e-17 -0.0397738 0)
(2.78086e-17 -0.0395181 0)
(2.78085e-17 -0.0395181 0)
(2.78085e-17 -0.0395181 0)
(2.89771e-17 -0.0397596 0)
(2.89773e-17 -0.0397596 0)
(2.89772e-17 -0.0397596 0)
(2.89769e-17 -0.0397596 0)
(1.05249e-19 -0.0359868 0)
(1.05189e-19 -0.0359867 0)
(1.05188e-19 -0.0359868 0)
(1.50774e-20 -0.0395385 0)
(1.50771e-20 -0.0395385 0)
(1.50769e-20 -0.0395385 0)
(1.50768e-20 -0.0395385 0)
(1.50767e-20 -0.0395385 0)
(1.50766e-20 -0.0395385 0)
(1.50765e-20 -0.0395385 0)
(1.21897e-23 -0.0345231 0)
(1.21546e-23 -0.0345231 0)
(1.21539e-23 -0.0345231 0)
(1.59416e-27 -0.0395299 0)
(1.55423e-27 -0.0395299 0)
(1.5389e-27 -0.0395299 0)
(1.5282e-27 -0.0395299 0)
(1.51999e-27 -0.0395299 0)
(1.51572e-27 -0.0395299 0)
(1.51558e-27 -0.0395299 0)
(8.43449e-31 -0.0375373 0)
(8.38502e-31 -0.0375373 0)
(8.384e-31 -0.0375373 0)
(3.10054e-34 -0.0395593 0)
(3.0356e-34 -0.0395593 0)
(3.01277e-34 -0.0395593 0)
(2.99867e-34 -0.0395593 0)
(2.99187e-34 -0.0395593 0)
(2.99168e-34 -0.0395593 0)
(-7.6114e-35 -0.0347427 0)
(-7.61724e-35 -0.0347427 0)
(-7.59747e-35 -0.0347427 0)
(1.32349e-34 -0.0396674 0)
(1.3216e-34 -0.0396674 0)
(1.32224e-34 -0.0396674 0)
(1.32425e-34 -0.0396674 0)
(1.32725e-34 -0.0396674 0)
(1.3308e-34 -0.0396674 0)
(1.33796e-34 -0.0396674 0)
(1.43512e-32 -0.0371529 0)
(1.43505e-32 -0.0371528 0)
(1.43513e-32 -0.0371529 0)
(-7.20474e-32 -0.0395524 0)
(-7.20517e-32 -0.0395524 0)
(-7.20527e-32 -0.0395524 0)
(-7.20528e-32 -0.0395524 0)
(-7.20518e-32 -0.0395524 0)
(-7.20503e-32 -0.0395524 0)
(-7.20457e-32 -0.0395524 0)
(3.64463e-33 -0.0347929 0)
(3.64158e-33 -0.0347928 0)
(3.64831e-33 -0.0347929 0)
(1.00138e-30 -0.039696 0)
(1.00138e-30 -0.039696 0)
(1.00138e-30 -0.039696 0)
(1.00138e-30 -0.039696 0)
(1.00138e-30 -0.039696 0)
(1.00139e-30 -0.039696 0)
(1.00139e-30 -0.039696 0)
(1.00139e-30 -0.039696 0)
(1.00139e-30 -0.039696 0)
)
;

boundaryField
{
    inlet
    {
        type            cyclic;
    }
    outlet
    {
        type            cyclic;
    }
    top
    {
        type            zeroGradient;
    }
    bottom
    {
        type            fixedValue;
        value           uniform (0 0 0);
    }
    frontAndBackPlanes
    {
        type            empty;
    }
}


// ************************************************************************* //
