/*--------------------------------*- C++ -*----------------------------------*\
| =========                 |                                                 |
| \\      /  F ield         | OpenFOAM: The Open Source CFD Toolbox           |
|  \\    /   O peration     | Version:  2206                                  |
|   \\  /    A nd           | Website:  www.openfoam.com                      |
|    \\/     M anipulation  |                                                 |
\*---------------------------------------------------------------------------*/
FoamFile
{
    version     2.0;
    format      ascii;
    arch        "LSB;label=32;scalar=64";
    class       volVectorField;
    location    "160";
    object      U.b;
}
// * * * * * * * * * * * * * * * * * * * * * * * * * * * * * * * * * * * * * //

dimensions      [0 1 -1 0 0 0 0];

internalField   nonuniform List<vector> 
344
(
(-2.23998e-17 1.01435e-05 0)
(-4.97871e-17 -3.38311e-07 0)
(-7.70033e-17 9.75551e-08 0)
(-1.04152e-16 -9.78805e-08 0)
(-1.30855e-16 9.88661e-08 0)
(-1.41886e-16 -9.81405e-08 0)
(-1.52488e-16 9.72288e-08 0)
(-1.63093e-16 -1.0059e-07 0)
(-1.72967e-16 9.39401e-08 0)
(-1.6828e-16 -1.0476e-07 0)
(-1.62914e-16 8.90387e-08 0)
(-1.57677e-16 -1.10394e-07 0)
(-1.52557e-16 8.29644e-08 0)
(-1.47564e-16 -1.16878e-07 0)
(-1.4271e-16 7.64509e-08 0)
(-1.37997e-16 -1.23359e-07 0)
(-1.33426e-16 7.03619e-08 0)
(-1.29002e-16 -1.28934e-07 0)
(-1.24726e-16 6.54889e-08 0)
(-1.20603e-16 -1.32865e-07 0)
(-1.16635e-16 6.23457e-08 0)
(-1.12831e-16 -1.34765e-07 0)
(-1.09188e-16 6.10362e-08 0)
(-1.05717e-16 -1.34691e-07 0)
(-1.02422e-16 6.12295e-08 0)
(-9.93053e-17 -1.33121e-07 0)
(-9.63714e-17 6.22576e-08 0)
(-9.36236e-17 -1.30832e-07 0)
(-9.1065e-17 6.32909e-08 0)
(-8.8698e-17 -1.28694e-07 0)
(-8.65251e-17 6.35834e-08 0)
(-8.45479e-17 -1.27438e-07 0)
(-8.2768e-17 6.2688e-08 0)
(-8.11867e-17 -1.27471e-07 0)
(-7.98046e-17 6.05947e-08 0)
(-7.86224e-17 -1.28781e-07 0)
(-7.76428e-17 5.77889e-08 0)
(-7.68587e-17 -1.30889e-07 0)
(-7.62771e-17 5.52323e-08 0)
(-7.5895e-17 -1.32897e-07 0)
(-7.57119e-17 5.4273e-08 0)
(-7.57273e-17 -1.33563e-07 0)
(-7.59409e-17 5.65199e-08 0)
(-7.63554e-17 -1.31361e-07 0)
(-7.6964e-17 6.37176e-08 0)
(-7.77728e-17 -1.24578e-07 0)
(-7.87872e-17 7.75335e-08 0)
(-8.00125e-17 -1.11448e-07 0)
(-8.1459e-17 9.92015e-08 0)
(-8.31384e-17 -9.05131e-08 0)
(-8.50839e-17 1.28878e-07 0)
(-8.70991e-17 -6.13675e-08 0)
(-8.29516e-17 1.64663e-07 0)
(-7.88717e-17 -2.5995e-08 0)
(-7.50437e-17 2.01324e-07 0)
(-7.14365e-17 9.56585e-09 0)
(-6.80314e-17 2.29634e-07 0)
(-6.48136e-17 3.44889e-08 0)
(-6.17718e-17 2.3809e-07 0)
(-5.8898e-17 3.57438e-08 0)
(-5.61913e-17 2.18935e-07 0)
(-5.3633e-17 6.19441e-09 0)
(-5.12357e-17 1.77683e-07 0)
(-4.89851e-17 -4.32531e-08 0)
(-4.68881e-17 1.39259e-07 0)
(-4.49368e-17 -7.69668e-08 0)
(-4.31307e-17 1.37511e-07 0)
(-4.14685e-17 -5.06765e-08 0)
(-3.99466e-17 1.80436e-07 0)
(-3.85669e-17 3.86787e-08 0)
(-3.73231e-17 2.12391e-07 0)
(-3.62215e-17 9.02e-08 0)
(-3.52576e-17 1.39795e-07 0)
(-3.44285e-17 -8.50118e-08 0)
(-3.3735e-17 1.57801e-08 0)
(-3.31773e-17 -3.17477e-07 0)
(-3.27519e-17 6.12398e-08 0)
(-3.24668e-17 -3.56831e-06 0)
(-3.27079e-17 0.000444083 0)
(-2.99247e-17 0.0105289 0)
(-2.26822e-17 -0.00710076 0)
(-1.70549e-17 0.004761 0)
(-2.13744e-17 -0.00333008 0)
(-1.00313e-17 0.00248348 0)
(1.29406e-18 -0.00192607 0)
(3.26603e-17 0.00149691 0)
(3.45887e-17 -0.00114425 0)
(3.64616e-17 0.00085995 0)
(3.82109e-17 -0.0006399 0)
(5.23286e-17 0.000474778 0)
(4.79147e-17 -0.000352817 0)
(4.35266e-17 0.000263111 0)
(3.40272e-17 -0.00019695 0)
(2.46149e-17 0.00014787 0)
(2.11241e-17 -0.000111232 0)
(1.77752e-17 8.37419e-05 0)
(1.45612e-17 -6.30449e-05 0)
(1.39544e-17 4.74351e-05 0)
(1.34929e-17 -3.56574e-05 0)
(1.17841e-17 2.67761e-05 0)
(1.02192e-17 -2.00865e-05 0)
(8.79335e-18 1.50551e-05 0)
(7.50145e-18 -1.12766e-05 0)
(6.33693e-18 8.44311e-06 0)
(5.29191e-18 -6.32067e-06 0)
(4.35788e-18 4.7322e-06 0)
(3.52606e-18 -3.54389e-06 0)
(2.78763e-18 2.65501e-06 0)
(2.13395e-18 -1.98995e-06 0)
(1.71197e-18 1.49214e-06 0)
(1.35749e-18 -1.1193e-06 0)
(1.06216e-18 8.39894e-07 0)
(8.18266e-19 -6.30412e-07 0)
(6.18787e-19 4.73298e-07 0)
(4.57299e-19 -3.55455e-07 0)
(3.27994e-19 2.67082e-07 0)
(2.25679e-19 -2.00863e-07 0)
(1.45769e-19 1.51308e-07 0)
(8.42655e-20 -1.14324e-07 0)
(4.66427e-20 8.6842e-08 0)
(1.4204e-20 -6.65912e-08 0)
(-8.76947e-21 5.15434e-08 0)
(-2.43643e-20 -3.90197e-08 0)
(-3.43066e-20 2.8772e-08 0)
(-4.00101e-20 -2.05705e-08 0)
(-4.26156e-20 1.41704e-08 0)
(-4.30256e-20 -9.34016e-09 0)
(-4.1216e-20 5.83545e-09 0)
(-3.84717e-20 -3.42484e-09 0)
(-3.52033e-20 1.869e-09 0)
(-3.14079e-20 -9.46205e-10 0)
(-2.76071e-20 4.45366e-10 0)
(-2.40257e-20 -1.99212e-10 0)
(-2.06826e-20 8.55944e-11 0)
(-1.76321e-20 -3.64035e-11 0)
(-1.48996e-20 1.50845e-11 0)
(-1.24896e-20 -6.45624e-12 0)
(-1.0392e-20 2.73861e-12 0)
(-8.58734e-21 -1.02536e-12 0)
(-7.05052e-21 5.57181e-13 0)
(-5.75383e-21 -9.65872e-14 0)
(-4.66888e-21 1.78207e-13 0)
(-3.76809e-21 6.3779e-14 0)
(-3.02551e-21 1.05282e-13 0)
(-2.41739e-21 8.42976e-14 0)
(-1.9225e-21 9.48263e-14 0)
(-1.5221e-21 9.04306e-14 0)
(-1.19993e-21 8.90585e-14 0)
(-9.42063e-22 8.50667e-14 0)
(-7.36689e-22 8.20892e-14 0)
(-5.73893e-22 7.67012e-14 0)
(-4.45427e-22 6.9739e-14 0)
(-3.4449e-22 6.56418e-14 0)
(-2.65503e-22 6.5167e-14 0)
(-2.03939e-22 6.27872e-14 0)
(-1.56144e-22 5.95271e-14 0)
(-1.19168e-22 5.59116e-14 0)
(-9.0664e-23 5.2657e-14 0)
(-6.87686e-23 4.78921e-14 0)
(-5.20011e-23 4.23087e-14 0)
(-3.92016e-23 3.70636e-14 0)
(-2.94651e-23 3.30923e-14 0)
(-2.20821e-23 2.76599e-14 0)
(-1.64973e-23 2.27074e-14 0)
(-1.22886e-23 1.616e-14 0)
(-9.12596e-24 1.23557e-14 0)
(-6.75664e-24 3.37227e-15 0)
(-4.98711e-24 1.0467e-14 0)
(-3.66964e-24 7.43997e-15 0)
(-2.69182e-24 -5.27916e-15 0)
(-1.9684e-24 -2.15765e-15 0)
(-1.43475e-24 -3.46862e-15 0)
(-1.04268e-24 -2.49489e-15 0)
(-7.56708e-25 -2.70741e-15 0)
(-5.46719e-25 -2.25392e-15 0)
(-3.94508e-25 -1.94825e-15 0)
(-2.83627e-25 -1.66141e-15 0)
(-2.04105e-25 -1.60191e-15 0)
(-1.47e-25 -1.39423e-15 0)
(-1.05776e-25 -1.24255e-15 0)
(-7.68115e-26 -1.07656e-15 0)
(-5.58958e-26 -9.46333e-16 0)
(-4.07031e-26 -8.09497e-16 0)
(-3.03987e-26 -6.7005e-16 0)
(-2.2676e-26 -5.59244e-16 0)
(-1.76083e-26 -4.91368e-16 0)
(-1.38213e-26 -4.07068e-16 0)
(-1.09001e-26 -3.42782e-16 0)
(-9.10696e-27 -2.84467e-16 0)
(-7.63393e-27 -2.41686e-16 0)
(-6.3585e-27 -2.04406e-16 0)
(-5.72284e-27 -1.76973e-16 0)
(-4.72893e-27 -1.46911e-16 0)
(-4.10221e-27 -1.20779e-16 0)
(-3.58495e-27 -8.83238e-17 0)
(-3.15272e-27 -7.53952e-17 0)
(-2.74417e-27 -4.86198e-17 0)
(-2.51322e-27 -5.6675e-17 0)
(-2.21733e-27 4.02628e-17 0)
(-1.96243e-27 -6.81937e-17 0)
(-1.76381e-27 -6.58284e-17 0)
(-1.53623e-27 4.66537e-17 0)
(-1.34129e-27 -4.02838e-17 0)
(-1.16722e-27 -2.18297e-17 0)
(-1.01724e-27 -3.26477e-17 0)
(-8.78404e-28 -2.69346e-17 0)
(-7.59181e-28 -2.91158e-17 0)
(-6.54836e-28 -2.72345e-17 0)
(-5.59664e-28 -2.69865e-17 0)
(-4.75801e-28 -2.56516e-17 0)
(-4.04613e-28 -2.5782e-17 0)
(-3.3994e-28 -2.44445e-17 0)
(-2.85807e-28 -2.32811e-17 0)
(-2.38905e-28 -2.19665e-17 0)
(-1.96741e-28 -2.03579e-17 0)
(-1.64689e-28 -1.86061e-17 0)
(-1.35003e-28 -1.72238e-17 0)
(-1.07075e-28 -1.62949e-17 0)
(-8.76071e-29 -1.54188e-17 0)
(-7.14994e-29 -1.44499e-17 0)
(-5.5336e-29 -1.34944e-17 0)
(-4.47936e-29 -1.26063e-17 0)
(-3.36177e-29 -1.16855e-17 0)
(-2.57044e-29 -1.07309e-17 0)
(-2.11447e-29 -9.864e-18 0)
(-1.5122e-29 -9.10471e-18 0)
(-1.05155e-29 -8.36501e-18 0)
(-7.15262e-30 -7.53902e-18 0)
(-5.1966e-30 -7.03088e-18 0)
(-3.30981e-30 -5.99638e-18 0)
(-2.43566e-30 -6.51482e-18 0)
(-1.16114e-30 -2.84359e-18 0)
(-1.01916e-30 -2.33875e-18 0)
(-1.41899e-31 -5.02321e-18 0)
(-4.56056e-31 -3.48084e-18 0)
(-3.39109e-31 -3.52411e-18 0)
(-3.34158e-31 -2.99177e-18 0)
(3.86695e-32 -2.78503e-18 0)
(-5.05624e-31 -2.47074e-18 0)
(-2.81198e-31 -2.25759e-18 0)
(-8.03221e-31 -2.04033e-18 0)
(-6.60497e-31 -1.85811e-18 0)
(-1.15635e-30 -1.71119e-18 0)
(-1.34092e-30 -1.62728e-18 0)
(-1.53268e-30 -1.5478e-18 0)
(-1.72632e-30 -1.4768e-18 0)
(-1.64861e-30 -1.46318e-18 0)
(-2.34003e-30 -1.52319e-18 0)
(-2.77803e-30 -1.52275e-18 0)
(-2.22255e-30 -1.46231e-18 0)
(-2.41905e-30 -1.47858e-18 0)
(-2.84205e-30 -1.55517e-18 0)
(-3.0062e-30 -1.64115e-18 0)
(-3.17369e-30 -1.73484e-18 0)
(-3.06273e-30 -1.89635e-18 0)
(-3.49521e-30 -2.09985e-18 0)
(-3.02702e-30 -2.33805e-18 0)
(-3.75617e-30 -2.58938e-18 0)
(-3.50996e-30 -2.92336e-18 0)
(-3.18481e-30 -3.19662e-18 0)
(-4.02371e-30 -3.72371e-18 0)
(-4.09198e-30 -3.8545e-18 0)
(-3.72715e-30 -5.03093e-18 0)
(-4.11736e-30 -1.29037e-18 0)
(-3.94406e-30 -1.28632e-18 0)
(-4.04425e-30 -5.01868e-18 0)
(-2.01847e-30 -3.83447e-18 0)
(-3.99908e-30 -3.69599e-18 0)
(-3.9715e-30 -3.16141e-18 0)
(-3.20229e-30 -2.88068e-18 0)
(-4.16416e-30 -2.54046e-18 0)
(-3.42659e-30 -2.28338e-18 0)
(-3.63147e-30 -2.03839e-18 0)
(-3.24609e-30 -1.82703e-18 0)
(-3.13766e-30 -1.65957e-18 0)
(-3.00739e-30 -1.562e-18 0)
(-2.5972e-30 -1.47274e-18 0)
(-2.91694e-30 -1.39348e-18 0)
(-2.73026e-30 -1.37877e-18 0)
(-2.30361e-30 -1.44319e-18 0)
(-2.36178e-30 -1.44327e-18 0)
(-2.17424e-30 -1.379e-18 0)
(-2.50737e-30 -1.39388e-18 0)
(-1.36468e-30 -1.4733e-18 0)
(-1.72055e-30 -1.56272e-18 0)
(-1.56216e-30 -1.66045e-18 0)
(-1.41287e-30 -1.82808e-18 0)
(-1.27467e-30 -2.03958e-18 0)
(-1.14573e-30 -2.28483e-18 0)
(-1.02568e-30 -2.54236e-18 0)
(-9.14443e-31 -2.88289e-18 0)
(-8.11938e-31 -3.16392e-18 0)
(-7.18004e-31 -3.69868e-18 0)
(-6.32408e-31 -3.83814e-18 0)
(-5.54848e-31 -5.01866e-18 0)
(-4.84967e-31 -1.26962e-18 0)
(-4.22355e-31 -1.26611e-18 0)
(-3.66558e-31 -5.00765e-18 0)
(-3.17087e-31 -3.81911e-18 0)
(-2.73422e-31 -3.66989e-18 0)
(-2.35022e-31 -3.1258e-18 0)
(-2.01332e-31 -2.83425e-18 0)
(-1.71785e-31 -2.48041e-18 0)
(-1.45814e-31 -2.20392e-18 0)
(-1.22844e-31 -1.94643e-18 0)
(-1.02303e-31 -1.72695e-18 0)
(-8.36224e-32 -1.54428e-18 0)
(-6.62312e-32 -1.42055e-18 0)
(-4.95632e-32 -1.30731e-18 0)
(-3.30547e-32 -1.1989e-18 0)
(-1.61462e-32 -1.138e-18 0)
(1.71554e-33 -1.12312e-18 0)
(2.10738e-32 -1.07402e-18 0)
(4.2458e-32 -9.8017e-19 0)
(6.63792e-32 -9.27933e-19 0)
(9.33264e-32 -9.00793e-19 0)
(1.23766e-31 -8.79774e-19 0)
(1.58144e-31 -8.58063e-19 0)
(1.96902e-31 -8.5588e-19 0)
(2.40483e-31 -8.72065e-19 0)
(2.89348e-31 -8.72265e-19 0)
(3.43991e-31 -8.56633e-19 0)
(4.05004e-31 -8.59401e-19 0)
(4.73405e-31 -8.82194e-19 0)
(5.52039e-31 -9.04057e-19 0)
(6.41658e-31 -9.32418e-19 0)
(2.3093e-31 -9.86378e-19 0)
(7.94503e-31 -1.08367e-18 0)
(8.56076e-31 -1.13434e-18 0)
(9.25332e-31 -1.15007e-18 0)
(9.99881e-31 -1.21381e-18 0)
(1.07529e-30 -1.32867e-18 0)
(1.14904e-30 -1.44762e-18 0)
(1.21927e-30 -1.57866e-18 0)
(1.28452e-30 -1.77336e-18 0)
(1.34383e-30 -2.00885e-18 0)
(1.39679e-30 -2.28157e-18 0)
(1.44339e-30 -2.57763e-18 0)
(1.4835e-30 -2.95832e-18 0)
(1.516e-30 -3.27995e-18 0)
(1.53839e-30 -3.87402e-18 0)
(1.54995e-30 -4.04937e-18 0)
(1.52788e-30 -5.31292e-18 0)
(1.2757e-30 -9.07078e-19 0)
)
;

boundaryField
{
    inlet
    {
        type            cyclic;
    }
    outlet
    {
        type            cyclic;
    }
    top
    {
        type            zeroGradient;
    }
    bottom
    {
        type            fixedValue;
        value           uniform (0 0 0);
    }
    frontAndBackPlanes
    {
        type            empty;
    }
}


// ************************************************************************* //
