/*--------------------------------*- C++ -*----------------------------------*\
| =========                 |                                                 |
| \\      /  F ield         | OpenFOAM: The Open Source CFD Toolbox           |
|  \\    /   O peration     | Version:  2206                                  |
|   \\  /    A nd           | Website:  www.openfoam.com                      |
|    \\/     M anipulation  |                                                 |
\*---------------------------------------------------------------------------*/
FoamFile
{
    version     2.0;
    format      ascii;
    arch        "LSB;label=32;scalar=64";
    class       volScalarField;
    location    "1680";
    object      pff;
}
// * * * * * * * * * * * * * * * * * * * * * * * * * * * * * * * * * * * * * //

dimensions      [1 -1 -2 0 0 0 0];

internalField   nonuniform List<scalar> 
120
(
26.409
25.8756
25.876
25.2985
25.2815
24.716
24.6872
24.1336
24.093
23.5514
23.4989
22.9693
22.9049
22.3873
22.311
21.8055
21.7173
21.2238
21.1237
20.6423
20.5303
20.0608
19.9372
19.4795
19.3442
18.8983
18.7515
18.3171
18.1591
17.736
17.567
17.1549
16.9752
16.5739
16.3838
15.9928
15.7928
15.4118
15.2022
14.8307
14.612
14.2496
14.0224
13.6684
13.4332
13.0872
12.8445
12.5059
12.2564
11.9245
11.6688
11.3431
11.0818
10.7617
10.4954
10.1802
9.90945
9.5987
9.3241
9.01722
8.73933
8.43579
8.15511
7.85442
7.57146
7.27316
6.98837
6.69205
6.40586
6.11111
5.82397
5.53036
5.24273
4.94979
4.66226
4.36937
4.08274
3.78898
3.50444
3.20838
2.92786
2.62717
2.35371
2.0448
1.78284
1.46093
1.2156
0.877164
0.647834
0.297153
0
0
0
0
0
0
0
0
0
0
0
0
0
0
0
0
0
0
0
0
0
0
0
0
0
0
0
0
0
0
)
;

boundaryField
{
    inlet
    {
        type            cyclic;
    }
    outlet
    {
        type            cyclic;
    }
    top
    {
        type            calculated;
        value           uniform 0;
    }
    bottom
    {
        type            calculated;
        value           uniform 26.409;
    }
    frontAndBackPlanes
    {
        type            empty;
    }
}


// ************************************************************************* //
