/*--------------------------------*- C++ -*----------------------------------*\
| =========                 |                                                 |
| \\      /  F ield         | OpenFOAM: The Open Source CFD Toolbox           |
|  \\    /   O peration     | Version:  2206                                  |
|   \\  /    A nd           | Website:  www.openfoam.com                      |
|    \\/     M anipulation  |                                                 |
\*---------------------------------------------------------------------------*/
FoamFile
{
    version     2.0;
    format      ascii;
    arch        "LSB;label=32;scalar=64";
    class       surfaceScalarField;
    location    "1680";
    object      phi.b;
}
// * * * * * * * * * * * * * * * * * * * * * * * * * * * * * * * * * * * * * //

dimensions      [0 3 -1 0 0 0 0];

oriented        oriented;

internalField   nonuniform List<scalar> 
119
(
3.60764e-17
7.29883e-17
1.0977e-16
1.47583e-16
1.85243e-16
2.24005e-16
2.62638e-16
3.02382e-16
3.42082e-16
3.8284e-16
4.23706e-16
4.65505e-16
5.07634e-16
5.50493e-16
5.93978e-16
6.37908e-16
6.82839e-16
7.27847e-16
7.74303e-16
8.20383e-16
8.68432e-16
9.15573e-16
9.65268e-16
1.01345e-15
1.06483e-15
1.11403e-15
1.16711e-15
1.2173e-15
1.27208e-15
1.32322e-15
1.37968e-15
1.43174e-15
1.48983e-15
1.54277e-15
1.60244e-15
1.65623e-15
1.71741e-15
1.772e-15
1.83459e-15
1.88995e-15
1.95386e-15
2.00997e-15
2.07507e-15
2.13191e-15
2.1981e-15
2.25564e-15
2.32279e-15
2.38103e-15
2.44901e-15
2.50794e-15
2.57663e-15
2.63624e-15
2.7055e-15
2.76579e-15
2.83551e-15
2.89647e-15
2.96651e-15
3.02812e-15
3.09838e-15
3.1606e-15
3.23096e-15
3.29374e-15
3.36409e-15
3.42734e-15
3.49762e-15
3.56118e-15
3.63134e-15
3.69498e-15
3.76506e-15
3.82839e-15
3.89853e-15
3.96092e-15
4.03149e-15
4.09194e-15
4.16365e-15
4.22055e-15
4.29462e-15
4.34552e-15
4.42384e-15
4.46529e-15
4.55013e-15
4.57826e-15
4.67022e-15
4.68477e-15
4.77331e-15
4.79674e-15
4.81687e-15
5.00272e-15
4.55277e-15
8.7879e-15
4.07875e-15
1.59696e-18
2.87797e-17
-8.81307e-21
-7.1469e-21
-3.47402e-21
2.43195e-21
7.13781e-21
8.65871e-21
7.98544e-21
3.96977e-21
-3.85655e-21
-9.0163e-21
-6.96881e-21
-3.13644e-21
-9.05623e-22
2.86907e-21
5.80878e-21
4.95112e-21
3.56064e-21
-9.08301e-23
-5.90132e-21
-6.82518e-21
-4.05219e-21
1.26028e-21
6.96448e-21
6.49903e-21
2.51792e-21
-4.21873e-21
)
;

boundaryField
{
    inlet
    {
        type            cyclic;
        value           nonuniform List<scalar> 
120
(
-4.23846e-27
-1.27217e-26
-2.12196e-26
-2.97417e-26
-3.8298e-26
-4.6898e-26
-5.55519e-26
-6.42678e-26
-7.30562e-26
-8.19279e-26
-9.08904e-26
-9.99527e-26
-1.09127e-25
-1.18419e-25
-1.27839e-25
-1.37396e-25
-1.47098e-25
-1.56954e-25
-1.66972e-25
-1.77159e-25
-1.87524e-25
-1.98074e-25
-2.08815e-25
-2.19747e-25
-2.309e-25
-2.42255e-25
-2.53831e-25
-2.65618e-25
-2.77634e-25
-2.8989e-25
-3.02367e-25
-3.15067e-25
-3.28013e-25
-3.41196e-25
-3.54616e-25
-3.68258e-25
-3.81814e-25
-3.9563e-25
-4.09618e-25
-4.23902e-25
-4.38316e-25
-4.53019e-25
-4.67879e-25
-4.82949e-25
-4.98189e-25
-5.13674e-25
-5.29232e-25
-5.44992e-25
-5.6081e-25
-5.76844e-25
-5.9294e-25
-6.09118e-25
-6.2536e-25
-6.41645e-25
-6.57929e-25
-6.74255e-25
-6.9053e-25
-7.06745e-25
-7.2294e-25
-7.39138e-25
-7.55262e-25
-7.7122e-25
-7.86987e-25
-8.02539e-25
-8.17902e-25
-8.32823e-25
-8.47609e-25
-8.62007e-25
-8.76041e-25
-8.89682e-25
-9.02963e-25
-9.15668e-25
-9.27955e-25
-9.39736e-25
-9.50983e-25
-9.6167e-25
-9.71772e-25
-9.81265e-25
-9.90127e-25
-9.98337e-25
-1.00587e-24
-1.01272e-24
-1.01885e-24
-1.02427e-24
-1.02894e-24
-1.03302e-24
-1.03602e-24
-1.03841e-24
-1.04002e-24
-1.04085e-24
-1.04095e-24
-1.02848e-24
-1.00147e-24
-9.73911e-25
-9.4578e-25
-9.17036e-25
-8.87643e-25
-8.5757e-25
-8.26788e-25
-7.95274e-25
-7.63007e-25
-7.29974e-25
-6.96164e-25
-6.61575e-25
-6.26209e-25
-5.90073e-25
-5.53183e-25
-5.15558e-25
-4.77224e-25
-4.38213e-25
-3.98563e-25
-3.58316e-25
-3.17521e-25
-2.7623e-25
-2.345e-25
-1.92392e-25
-1.49971e-25
-1.07302e-25
-6.44548e-26
-2.15004e-26
)
;
    }
    outlet
    {
        type            cyclic;
        value           nonuniform List<scalar> 
120
(
4.23846e-27
1.27217e-26
2.12196e-26
2.97417e-26
3.8298e-26
4.6898e-26
5.55519e-26
6.42678e-26
7.30562e-26
8.19279e-26
9.08904e-26
9.99527e-26
1.09127e-25
1.18419e-25
1.27839e-25
1.37396e-25
1.47098e-25
1.56954e-25
1.66972e-25
1.77159e-25
1.87524e-25
1.98074e-25
2.08815e-25
2.19747e-25
2.309e-25
2.42255e-25
2.53831e-25
2.65618e-25
2.77634e-25
2.8989e-25
3.02367e-25
3.15067e-25
3.28013e-25
3.41196e-25
3.54616e-25
3.68258e-25
3.81814e-25
3.9563e-25
4.09618e-25
4.23902e-25
4.38316e-25
4.53019e-25
4.67879e-25
4.82949e-25
4.98189e-25
5.13674e-25
5.29232e-25
5.44992e-25
5.6081e-25
5.76844e-25
5.9294e-25
6.09118e-25
6.2536e-25
6.41645e-25
6.57929e-25
6.74255e-25
6.9053e-25
7.06745e-25
7.2294e-25
7.39138e-25
7.55262e-25
7.7122e-25
7.86987e-25
8.02539e-25
8.17902e-25
8.32823e-25
8.47609e-25
8.62007e-25
8.76041e-25
8.89682e-25
9.02963e-25
9.15668e-25
9.27955e-25
9.39736e-25
9.50983e-25
9.6167e-25
9.71772e-25
9.81265e-25
9.90127e-25
9.98337e-25
1.00587e-24
1.01272e-24
1.01885e-24
1.02427e-24
1.02894e-24
1.03302e-24
1.03602e-24
1.03841e-24
1.04002e-24
1.04085e-24
1.04095e-24
1.02848e-24
1.00147e-24
9.73911e-25
9.4578e-25
9.17036e-25
8.87643e-25
8.5757e-25
8.26788e-25
7.95274e-25
7.63007e-25
7.29974e-25
6.96164e-25
6.61575e-25
6.26209e-25
5.90073e-25
5.53183e-25
5.15558e-25
4.77224e-25
4.38213e-25
3.98563e-25
3.58316e-25
3.17521e-25
2.7623e-25
2.345e-25
1.92392e-25
1.49971e-25
1.07302e-25
6.44548e-26
2.15004e-26
)
;
    }
    top
    {
        type            fixedValue;
        value           uniform 0;
    }
    bottom
    {
        type            fixedValue;
        value           uniform 0;
    }
    frontAndBackPlanes
    {
        type            empty;
        value           nonuniform List<scalar> 0();
    }
}


// ************************************************************************* //
