/*--------------------------------*- C++ -*----------------------------------*\
| =========                 |                                                 |
| \\      /  F ield         | OpenFOAM: The Open Source CFD Toolbox           |
|  \\    /   O peration     | Version:  2206                                  |
|   \\  /    A nd           | Website:  www.openfoam.com                      |
|    \\/     M anipulation  |                                                 |
\*---------------------------------------------------------------------------*/
FoamFile
{
    version     2.0;
    format      ascii;
    arch        "LSB;label=32;scalar=64";
    class       surfaceScalarField;
    location    "1680";
    object      phi.a;
}
// * * * * * * * * * * * * * * * * * * * * * * * * * * * * * * * * * * * * * //

dimensions      [0 3 -1 0 0 0 0];

oriented        oriented;

internalField   nonuniform List<scalar> 
119
(
-2.40437e-17
-4.8653e-17
-7.31854e-17
-9.84165e-17
-1.23555e-16
-1.49439e-16
-1.75247e-16
-2.01809e-16
-2.28353e-16
-2.55615e-16
-2.82961e-16
-3.10944e-16
-3.39159e-16
-3.67877e-16
-3.97027e-16
-4.2649e-16
-4.56635e-16
-4.86849e-16
-5.18047e-16
-5.49011e-16
-5.81308e-16
-6.13018e-16
-6.46454e-16
-6.789e-16
-7.13502e-16
-7.46671e-16
-7.82455e-16
-8.1633e-16
-8.53299e-16
-8.8786e-16
-9.26004e-16
-9.61231e-16
-1.00053e-15
-1.0364e-15
-1.07681e-15
-1.11331e-15
-1.1548e-15
-1.19189e-15
-1.2344e-15
-1.27209e-15
-1.31555e-15
-1.35381e-15
-1.39816e-15
-1.43698e-15
-1.48215e-15
-1.52153e-15
-1.56744e-15
-1.60738e-15
-1.65395e-15
-1.69446e-15
-1.74161e-15
-1.78269e-15
-1.83035e-15
-1.87201e-15
-1.92011e-15
-1.96235e-15
-2.01081e-15
-2.05364e-15
-2.10241e-15
-2.14581e-15
-2.19482e-15
-2.23878e-15
-2.28799e-15
-2.33247e-15
-2.38185e-15
-2.42678e-15
-2.47633e-15
-2.52158e-15
-2.57137e-15
-2.61671e-15
-2.66688e-15
-2.71195e-15
-2.76283e-15
-2.80699e-15
-2.85914e-15
-2.9014e-15
-2.95579e-15
-2.99458e-15
-3.0527e-15
-3.08581e-15
-3.14952e-15
-3.17456e-15
-3.24478e-15
-3.26203e-15
-3.33237e-15
-3.35857e-15
-3.38554e-15
-3.53232e-15
-3.2384e-15
-9.33162e-15
-1.69959e-14
-1.8692e-14
-2.62892e-11
-6.45298e-11
-7.87285e-11
-8.13565e-11
-8.18448e-11
-8.19579e-11
-8.19914e-11
-8.20037e-11
-8.2009e-11
-8.20115e-11
-8.20128e-11
-8.20135e-11
-8.20139e-11
-8.20141e-11
-8.20143e-11
-8.20143e-11
-8.20144e-11
-8.20144e-11
-8.20144e-11
-8.20143e-11
-8.20142e-11
-8.20141e-11
-8.20137e-11
-8.20127e-11
-8.20079e-11
-8.19672e-11
-8.12299e-11
)
;

boundaryField
{
    inlet
    {
        type            cyclic;
        value           nonuniform List<scalar> 
120
(
-4.23846e-27
-1.27217e-26
-2.12195e-26
-2.97417e-26
-3.8298e-26
-4.6898e-26
-5.55514e-26
-6.42678e-26
-7.30568e-26
-8.19279e-26
-9.08904e-26
-9.99536e-26
-1.09127e-25
-1.18419e-25
-1.27839e-25
-1.37396e-25
-1.47098e-25
-1.56954e-25
-1.66972e-25
-1.77159e-25
-1.87524e-25
-1.98074e-25
-2.08815e-25
-2.19755e-25
-2.309e-25
-2.42255e-25
-2.53826e-25
-2.65618e-25
-2.77634e-25
-2.89879e-25
-3.02356e-25
-3.15067e-25
-3.28013e-25
-3.41196e-25
-3.54616e-25
-3.68273e-25
-3.81828e-25
-3.95616e-25
-4.09632e-25
-4.23873e-25
-4.38332e-25
-4.53003e-25
-4.67878e-25
-4.8295e-25
-4.98206e-25
-5.13638e-25
-5.29232e-25
-5.44973e-25
-5.60849e-25
-5.76844e-25
-5.9294e-25
-6.09118e-25
-6.2536e-25
-6.41645e-25
-6.57951e-25
-6.74255e-25
-6.9053e-25
-7.06744e-25
-7.2289e-25
-7.39138e-25
-7.55262e-25
-7.7122e-25
-7.86987e-25
-8.02539e-25
-8.17847e-25
-8.32879e-25
-8.4761e-25
-8.62007e-25
-8.76041e-25
-8.89682e-25
-9.02901e-25
-9.15668e-25
-9.27955e-25
-9.39736e-25
-9.50983e-25
-9.6167e-25
-9.71772e-25
-9.81265e-25
-9.90127e-25
-9.98337e-25
-1.00587e-24
-1.01272e-24
-1.01885e-24
-1.02427e-24
-1.02894e-24
-1.03286e-24
-1.03602e-24
-1.03841e-24
-1.04002e-24
-1.04085e-24
-1.04117e-24
-1.04164e-24
-1.04173e-24
-7.20699e-25
-3.68767e-25
-2.25803e-25
-1.84145e-25
-1.7138e-25
-1.66807e-25
-1.6487e-25
-1.63925e-25
-1.63418e-25
-1.63131e-25
-1.62966e-25
-1.62868e-25
-1.62807e-25
-1.62764e-25
-1.62733e-25
-1.62708e-25
-1.62689e-25
-1.62673e-25
-1.62661e-25
-1.62651e-25
-1.62643e-25
-1.62636e-25
-1.62628e-25
-1.62609e-25
-1.62525e-25
-1.61908e-25
-1.54001e-25
)
;
    }
    outlet
    {
        type            cyclic;
        value           nonuniform List<scalar> 
120
(
4.23846e-27
1.27217e-26
2.12195e-26
2.97417e-26
3.8298e-26
4.6898e-26
5.55514e-26
6.42678e-26
7.30568e-26
8.19279e-26
9.08904e-26
9.99536e-26
1.09127e-25
1.18419e-25
1.27839e-25
1.37396e-25
1.47098e-25
1.56954e-25
1.66972e-25
1.77159e-25
1.87524e-25
1.98074e-25
2.08815e-25
2.19755e-25
2.309e-25
2.42255e-25
2.53826e-25
2.65618e-25
2.77634e-25
2.89879e-25
3.02356e-25
3.15067e-25
3.28013e-25
3.41196e-25
3.54616e-25
3.68273e-25
3.81828e-25
3.95616e-25
4.09632e-25
4.23873e-25
4.38332e-25
4.53003e-25
4.67878e-25
4.8295e-25
4.98206e-25
5.13638e-25
5.29232e-25
5.44973e-25
5.60849e-25
5.76844e-25
5.9294e-25
6.09118e-25
6.2536e-25
6.41645e-25
6.57951e-25
6.74255e-25
6.9053e-25
7.06744e-25
7.2289e-25
7.39138e-25
7.55262e-25
7.7122e-25
7.86987e-25
8.02539e-25
8.17847e-25
8.32879e-25
8.4761e-25
8.62007e-25
8.76041e-25
8.89682e-25
9.02901e-25
9.15668e-25
9.27955e-25
9.39736e-25
9.50983e-25
9.6167e-25
9.71772e-25
9.81265e-25
9.90127e-25
9.98337e-25
1.00587e-24
1.01272e-24
1.01885e-24
1.02427e-24
1.02894e-24
1.03286e-24
1.03602e-24
1.03841e-24
1.04002e-24
1.04085e-24
1.04117e-24
1.04164e-24
1.04173e-24
7.20699e-25
3.68767e-25
2.25803e-25
1.84145e-25
1.7138e-25
1.66807e-25
1.6487e-25
1.63925e-25
1.63418e-25
1.63131e-25
1.62966e-25
1.62868e-25
1.62807e-25
1.62764e-25
1.62733e-25
1.62708e-25
1.62689e-25
1.62673e-25
1.62661e-25
1.62651e-25
1.62643e-25
1.62636e-25
1.62628e-25
1.62609e-25
1.62525e-25
1.61908e-25
1.54001e-25
)
;
    }
    top
    {
        type            fixedValue;
        value           uniform 0;
    }
    bottom
    {
        type            fixedValue;
        value           uniform 0;
    }
    frontAndBackPlanes
    {
        type            empty;
        value           nonuniform List<scalar> 0();
    }
}


// ************************************************************************* //
