/*--------------------------------*- C++ -*----------------------------------*\
| =========                 |                                                 |
| \\      /  F ield         | OpenFOAM: The Open Source CFD Toolbox           |
|  \\    /   O peration     | Version:  2206                                  |
|   \\  /    A nd           | Website:  www.openfoam.com                      |
|    \\/     M anipulation  |                                                 |
\*---------------------------------------------------------------------------*/
FoamFile
{
    version     2.0;
    format      ascii;
    arch        "LSB;label=32;scalar=64";
    class       volVectorField;
    location    "1680";
    object      U.a;
}
// * * * * * * * * * * * * * * * * * * * * * * * * * * * * * * * * * * * * * //

dimensions      [0 1 -1 0 0 0 0];

internalField   nonuniform List<vector> 
120
(
(1.41282e-20 1.55834e-08 0)
(4.24056e-20 2.51565e-10 0)
(7.07317e-20 -5.21825e-10 0)
(9.9139e-20 1.15142e-10 0)
(1.2766e-19 -6.61916e-10 0)
(1.56327e-19 -2.44812e-11 0)
(1.85171e-19 -8.05738e-10 0)
(2.14226e-19 -1.67838e-10 0)
(2.43523e-19 -9.53324e-10 0)
(2.73093e-19 -3.15284e-10 0)
(3.02968e-19 -1.1048e-09 0)
(3.33179e-19 -4.67192e-10 0)
(3.63756e-19 -1.26027e-09 0)
(3.9473e-19 -6.23937e-10 0)
(4.2613e-19 -1.41981e-09 0)
(4.57987e-19 -7.85885e-10 0)
(4.90327e-19 -1.58348e-09 0)
(5.2318e-19 -9.53379e-10 0)
(5.56572e-19 -1.75131e-09 0)
(5.9053e-19 -1.12673e-09 0)
(6.2508e-19 -1.92329e-09 0)
(6.60246e-19 -1.30622e-09 0)
(6.96051e-19 -2.09939e-09 0)
(7.32517e-19 -1.49205e-09 0)
(7.69666e-19 -2.27956e-09 0)
(8.07517e-19 -1.68439e-09 0)
(8.46087e-19 -2.46372e-09 0)
(8.85392e-19 -1.88331e-09 0)
(9.25448e-19 -2.65177e-09 0)
(9.66265e-19 -2.08885e-09 0)
(1.00785e-18 -2.84361e-09 0)
(1.05022e-18 -2.30094e-09 0)
(1.09338e-18 -3.03912e-09 0)
(1.13732e-18 -2.51947e-09 0)
(1.18205e-18 -3.23818e-09 0)
(1.22758e-18 -2.74423e-09 0)
(1.27276e-18 -3.44068e-09 0)
(1.31872e-18 -2.97498e-09 0)
(1.36544e-18 -3.64651e-09 0)
(1.41291e-18 -3.21142e-09 0)
(1.46111e-18 -3.85558e-09 0)
(1.51001e-18 -3.45318e-09 0)
(1.55959e-18 -4.06782e-09 0)
(1.60983e-18 -3.69989e-09 0)
(1.66069e-18 -4.28319e-09 0)
(1.71213e-18 -3.95113e-09 0)
(1.76411e-18 -4.50167e-09 0)
(1.81658e-18 -4.20649e-09 0)
(1.8695e-18 -4.72325e-09 0)
(1.92281e-18 -4.46553e-09 0)
(1.97647e-18 -4.94797e-09 0)
(2.03039e-18 -4.72782e-09 0)
(2.08453e-18 -5.17586e-09 0)
(2.13882e-18 -4.99293e-09 0)
(2.19317e-18 -5.40697e-09 0)
(2.24752e-18 -5.26047e-09 0)
(2.30177e-18 -5.64131e-09 0)
(2.35581e-18 -5.53004e-09 0)
(2.40963e-18 -5.87892e-09 0)
(2.46379e-18 -5.80126e-09 0)
(2.51754e-18 -6.11976e-09 0)
(2.57073e-18 -6.07382e-09 0)
(2.62329e-18 -6.36372e-09 0)
(2.67513e-18 -6.34746e-09 0)
(2.72616e-18 -6.6106e-09 0)
(2.77626e-18 -6.62202e-09 0)
(2.82537e-18 -6.85998e-09 0)
(2.87336e-18 -6.89754e-09 0)
(2.92014e-18 -7.11114e-09 0)
(2.96561e-18 -7.17436e-09 0)
(3.00967e-18 -7.36282e-09 0)
(3.05223e-18 -7.45336e-09 0)
(3.09318e-18 -7.61291e-09 0)
(3.13245e-18 -7.73632e-09 0)
(3.16994e-18 -7.8579e-09 0)
(3.20557e-18 -8.02651e-09 0)
(3.23924e-18 -8.09211e-09 0)
(3.27088e-18 -8.32939e-09 0)
(3.30042e-18 -8.30672e-09 0)
(3.32779e-18 -8.65337e-09 0)
(3.35291e-18 -8.4893e-09 0)
(3.37573e-18 -9.00904e-09 0)
(3.39618e-18 -8.62635e-09 0)
(3.41422e-18 -9.40157e-09 0)
(3.4298e-18 -8.71964e-09 0)
(3.44288e-18 -9.79467e-09 0)
(3.45341e-18 -8.86425e-09 0)
(3.46137e-18 -9.94172e-09 0)
(3.46675e-18 -9.69295e-09 0)
(3.46951e-18 -8.32698e-09 0)
(3.47057e-18 -4.37445e-08 0)
(3.47213e-18 -5.05405e-08 0)
(3.47243e-18 -5.31949e-08 0)
(2.40233e-18 -0.000145998 0)
(1.22922e-18 -0.000212501 0)
(7.52677e-19 -0.000224879 0)
(6.13816e-19 -0.000227102 0)
(5.71266e-19 -0.000227592 0)
(5.56023e-19 -0.00022773 0)
(5.49565e-19 -0.000227778 0)
(5.46417e-19 -0.000227798 0)
(5.44726e-19 -0.000227807 0)
(5.43772e-19 -0.000227812 0)
(5.43221e-19 -0.000227815 0)
(5.42894e-19 -0.000227816 0)
(5.42688e-19 -0.000227817 0)
(5.42547e-19 -0.000227817 0)
(5.42443e-19 -0.000227818 0)
(5.42362e-19 -0.000227818 0)
(5.42297e-19 -0.000227818 0)
(5.42244e-19 -0.000227818 0)
(5.42202e-19 -0.000227818 0)
(5.42169e-19 -0.000227817 0)
(5.42142e-19 -0.000227817 0)
(5.4212e-19 -0.000227817 0)
(5.42092e-19 -0.000227815 0)
(5.42029e-19 -0.000227811 0)
(5.4175e-19 -0.000227788 0)
(5.39693e-19 -0.000227585 0)
(5.13337e-19 -0.000223693 0)
)
;

boundaryField
{
    inlet
    {
        type            cyclic;
    }
    outlet
    {
        type            cyclic;
    }
    top
    {
        type            fixedValue;
        value           uniform (0 0 0);
    }
    bottom
    {
        type            fixedValue;
        value           uniform (0 0 0);
    }
    frontAndBackPlanes
    {
        type            empty;
    }
}


// ************************************************************************* //
