/*--------------------------------*- C++ -*----------------------------------*\
| =========                 |                                                 |
| \\      /  F ield         | OpenFOAM: The Open Source CFD Toolbox           |
|  \\    /   O peration     | Version:  2206                                  |
|   \\  /    A nd           | Website:  www.openfoam.com                      |
|    \\/     M anipulation  |                                                 |
\*---------------------------------------------------------------------------*/
FoamFile
{
    version     2.0;
    format      ascii;
    arch        "LSB;label=32;scalar=64";
    class       volVectorField;
    location    "1680";
    object      U.b;
}
// * * * * * * * * * * * * * * * * * * * * * * * * * * * * * * * * * * * * * //

dimensions      [0 1 -1 0 0 0 0];

internalField   nonuniform List<vector> 
120
(
(1.41282e-20 1.53963e-08 0)
(4.24056e-20 5.15292e-10 0)
(7.0732e-20 -1.05484e-10 0)
(9.9139e-20 7.03577e-10 0)
(1.2766e-19 1.14454e-10 0)
(1.56327e-19 9.17232e-10 0)
(1.85173e-19 3.2685e-10 0)
(2.14226e-19 1.13481e-09 0)
(2.43521e-19 5.44888e-10 0)
(2.73093e-19 1.358e-09 0)
(3.02968e-19 7.69036e-10 0)
(3.33176e-19 1.58702e-09 0)
(3.63756e-19 9.99774e-10 0)
(3.9473e-19 1.82208e-09 0)
(4.2613e-19 1.23756e-09 0)
(4.57987e-19 2.06331e-09 0)
(4.90327e-19 1.48283e-09 0)
(5.2318e-19 2.31085e-09 0)
(5.56572e-19 1.73599e-09 0)
(5.9053e-19 2.56477e-09 0)
(6.2508e-19 1.99737e-09 0)
(6.60246e-19 2.82509e-09 0)
(6.9605e-19 2.26723e-09 0)
(7.3249e-19 3.09179e-09 0)
(7.69666e-19 2.54579e-09 0)
(8.07517e-19 3.3648e-09 0)
(8.46102e-19 2.83313e-09 0)
(8.85392e-19 3.64402e-09 0)
(9.25448e-19 3.12927e-09 0)
(9.663e-19 3.92928e-09 0)
(1.00789e-18 3.43414e-09 0)
(1.05022e-18 4.22041e-09 0)
(1.09338e-18 3.74756e-09 0)
(1.13732e-18 4.51719e-09 0)
(1.18205e-18 4.06927e-09 0)
(1.22753e-18 4.81938e-09 0)
(1.27271e-18 4.39892e-09 0)
(1.31877e-18 5.12676e-09 0)
(1.36539e-18 4.73611e-09 0)
(1.41301e-18 5.43907e-09 0)
(1.46105e-18 5.08035e-09 0)
(1.51006e-18 5.75609e-09 0)
(1.5596e-18 5.43114e-09 0)
(1.60983e-18 6.0776e-09 0)
(1.66063e-18 5.78791e-09 0)
(1.71225e-18 6.4034e-09 0)
(1.76411e-18 6.15008e-09 0)
(1.81664e-18 6.73331e-09 0)
(1.86937e-18 6.51707e-09 0)
(1.92281e-18 7.06718e-09 0)
(1.97647e-18 6.88828e-09 0)
(2.03039e-18 7.40485e-09 0)
(2.08453e-18 7.26311e-09 0)
(2.13882e-18 7.7462e-09 0)
(2.1931e-18 7.64096e-09 0)
(2.24752e-18 8.09106e-09 0)
(2.30177e-18 8.02125e-09 0)
(2.35582e-18 8.43926e-09 0)
(2.4098e-18 8.4034e-09 0)
(2.46379e-18 8.79058e-09 0)
(2.51754e-18 8.78682e-09 0)
(2.57073e-18 9.1447e-09 0)
(2.62329e-18 9.17098e-09 0)
(2.67513e-18 9.50119e-09 0)
(2.72634e-18 9.55537e-09 0)
(2.77608e-18 9.85943e-09 0)
(2.82536e-18 9.93958e-09 0)
(2.87336e-18 1.02185e-08 0)
(2.92014e-18 1.03234e-08 0)
(2.96561e-18 1.05768e-08 0)
(3.00988e-18 1.07068e-08 0)
(3.05223e-18 1.09323e-08 0)
(3.09318e-18 1.10906e-08 0)
(3.13245e-18 1.12814e-08 0)
(3.16994e-18 1.14763e-08 0)
(3.20557e-18 1.16186e-08 0)
(3.23924e-18 1.18669e-08 0)
(3.27088e-18 1.19355e-08 0)
(3.30042e-18 1.22675e-08 0)
(3.32779e-18 1.22199e-08 0)
(3.35291e-18 1.26847e-08 0)
(3.37573e-18 1.24566e-08 0)
(3.39618e-18 1.31213e-08 0)
(3.41422e-18 1.26366e-08 0)
(3.4298e-18 1.35521e-08 0)
(3.4434e-18 1.28034e-08 0)
(3.45341e-18 1.38145e-08 0)
(3.46137e-18 1.33214e-08 0)
(3.46675e-18 1.29074e-08 0)
(3.46952e-18 8.81549e-09 0)
(3.46983e-18 3.67741e-09 0)
(3.42825e-18 3.29008e-08 0)
(3.33822e-18 2.15199e-09 0)
(3.24637e-18 -1.33525e-09 0)
(3.1526e-18 -4.14487e-10 0)
(3.05679e-18 5.15325e-11 0)
(2.95881e-18 3.78853e-11 0)
(2.85857e-18 1.25479e-12 0)
(2.75596e-18 -2.68822e-12 0)
(2.65091e-18 -4.34329e-13 0)
(2.54336e-18 1.6211e-13 0)
(2.43325e-18 5.42367e-14 0)
(2.32055e-18 -2.36666e-14 0)
(2.20525e-18 -2.91515e-14 0)
(2.08736e-18 -1.54683e-14 0)
(1.96691e-18 -5.35604e-15 0)
(1.84394e-18 3.33476e-15 0)
(1.71853e-18 1.30998e-14 0)
(1.59075e-18 1.63439e-14 0)
(1.46071e-18 1.31484e-14 0)
(1.32854e-18 5.36625e-15 0)
(1.19439e-18 -9.20857e-15 0)
(1.0584e-18 -1.98547e-14 0)
(9.20766e-19 -1.72246e-14 0)
(7.81667e-19 -4.32258e-15 0)
(6.41307e-19 1.30838e-14 0)
(4.99902e-19 2.15247e-14 0)
(3.57672e-19 1.38848e-14 0)
(2.14849e-19 -5.26842e-15 0)
(7.1668e-20 -1.6255e-14 0)
)
;

boundaryField
{
    inlet
    {
        type            cyclic;
    }
    outlet
    {
        type            cyclic;
    }
    top
    {
        type            fixedValue;
        value           uniform (0 0 0);
    }
    bottom
    {
        type            fixedValue;
        value           uniform (0 0 0);
    }
    frontAndBackPlanes
    {
        type            empty;
    }
}


// ************************************************************************* //
