/*--------------------------------*- C++ -*----------------------------------*\
| =========                 |                                                 |
| \\      /  F ield         | OpenFOAM: The Open Source CFD Toolbox           |
|  \\    /   O peration     | Version:  2206                                  |
|   \\  /    A nd           | Website:  www.openfoam.com                      |
|    \\/     M anipulation  |                                                 |
\*---------------------------------------------------------------------------*/
FoamFile
{
    version     2.0;
    format      ascii;
    arch        "LSB;label=32;scalar=64";
    class       volScalarField;
    location    "200";
    object      p_rbgh;
}
// * * * * * * * * * * * * * * * * * * * * * * * * * * * * * * * * * * * * * //

dimensions      [1 -1 -2 0 0 0 0];

internalField   nonuniform List<scalar> 
120
(
22.863
22.8608
22.8562
22.849
22.8389
22.8254
22.8082
22.7867
22.7603
22.728
22.6893
22.6447
22.597
22.5449
22.3042
22.0486
21.7973
21.5502
21.3043
21.0589
20.8135
20.5683
20.323
20.0778
19.8325
19.5873
19.342
19.0968
18.8515
18.6063
18.361
18.1158
17.8705
17.6253
17.38
17.1348
16.8895
16.6443
16.399
16.1538
15.9085
15.6633
15.418
15.1728
14.9275
14.6823
14.437
14.1918
13.9465
13.7013
13.456
13.2108
12.9655
12.7203
12.475
12.2298
11.9845
11.7393
11.494
11.2488
11.0035
10.7583
10.513
10.2678
10.0225
9.77725
9.532
9.28675
9.0415
8.79625
8.551
8.30575
8.0605
7.81525
7.57
7.32475
7.0795
6.83425
6.589
6.34375
6.0985
5.85325
5.608
5.36275
5.1175
4.87225
4.627
4.38175
4.1365
3.89125
3.646
3.40075
3.1555
2.91025
2.665
2.41975
2.1745
1.92925
1.684
1.43875
1.19348
0.948405
0.703885
0.45508
0.185199
0.0298274
-9.40902e-05
-0.00196311
-0.000249924
0.000113529
3.38235e-05
-4.03495e-06
-3.07168e-06
-1.04668e-07
2.16854e-07
4.02582e-08
-8.62801e-09
-1.45018e-09
2.6965e-09
1.88973e-09
)
;

boundaryField
{
    inlet
    {
        type            cyclic;
    }
    outlet
    {
        type            cyclic;
    }
    top
    {
        type            fixedValue;
        value           uniform 0;
    }
    bottom
    {
        type            fixedFluxPressure;
        gradient        uniform 0;
        value           uniform 22.863;
    }
    frontAndBackPlanes
    {
        type            empty;
    }
}


// ************************************************************************* //
