/*--------------------------------*- C++ -*----------------------------------*\
| =========                 |                                                 |
| \\      /  F ield         | OpenFOAM: The Open Source CFD Toolbox           |
|  \\    /   O peration     | Version:  2206                                  |
|   \\  /    A nd           | Website:  www.openfoam.com                      |
|    \\/     M anipulation  |                                                 |
\*---------------------------------------------------------------------------*/
FoamFile
{
    version     2.0;
    format      ascii;
    arch        "LSB;label=32;scalar=64";
    class       surfaceScalarField;
    location    "200";
    object      phi.b;
}
// * * * * * * * * * * * * * * * * * * * * * * * * * * * * * * * * * * * * * //

dimensions      [0 3 -1 0 0 0 0];

oriented        oriented;

internalField   nonuniform List<scalar> 
119
(
8.75824e-15
1.89144e-14
2.96133e-14
4.20016e-14
5.60172e-14
7.16872e-14
9.02571e-14
1.11697e-13
1.37943e-13
1.67113e-13
1.95389e-13
2.11621e-13
2.31267e-13
1.37623e-12
1.90856e-12
2.1608e-12
2.26325e-12
2.30194e-12
2.31576e-12
2.32072e-12
2.32245e-12
2.32303e-12
2.32322e-12
2.32328e-12
2.3233e-12
2.32331e-12
2.32331e-12
2.32331e-12
2.32331e-12
2.32331e-12
2.32331e-12
2.32331e-12
2.32331e-12
2.32331e-12
2.32331e-12
2.32331e-12
2.32331e-12
2.32331e-12
2.32331e-12
2.32331e-12
2.32331e-12
2.32331e-12
2.32331e-12
2.32331e-12
2.32331e-12
2.32331e-12
2.32331e-12
2.32331e-12
2.32331e-12
2.32331e-12
2.32331e-12
2.32331e-12
2.32331e-12
2.32331e-12
2.32331e-12
2.32331e-12
2.32331e-12
2.32331e-12
2.32331e-12
2.32331e-12
2.32331e-12
2.32331e-12
2.32331e-12
2.32331e-12
2.32331e-12
2.32331e-12
2.32331e-12
2.32331e-12
2.32331e-12
2.32331e-12
2.32331e-12
2.32331e-12
2.32331e-12
2.32331e-12
2.32331e-12
2.32331e-12
2.32331e-12
2.32331e-12
2.32331e-12
2.32331e-12
2.32331e-12
2.32331e-12
2.32331e-12
2.32331e-12
2.32331e-12
2.32331e-12
2.32331e-12
2.32331e-12
2.32331e-12
2.32331e-12
2.32331e-12
2.32331e-12
2.32331e-12
2.32331e-12
2.32331e-12
2.32331e-12
2.32331e-12
2.32331e-12
2.3233e-12
2.32323e-12
2.32366e-12
2.32842e-12
2.3332e-12
1.98952e-12
5.79721e-12
6.32804e-12
7.58139e-14
7.56519e-15
1.19137e-15
5.15883e-18
3.42869e-18
-4.06257e-18
-6.57409e-18
-4.2478e-18
-7.28403e-18
-6.56991e-19
-1.59096e-18
2.00596e-18
3.88925e-18
)
;

boundaryField
{
    inlet
    {
        type            cyclic;
        value           nonuniform List<scalar> 
120
(
6.23413e-28
1.86651e-27
3.07725e-27
4.32386e-27
5.52834e-27
6.70879e-27
7.69641e-27
8.9724e-27
1.02727e-26
1.09597e-26
1.17501e-26
1.27479e-26
1.26541e-26
1.43003e-26
2.92129e-25
3.29495e-25
3.33612e-25
3.54556e-25
3.85702e-25
4.14622e-25
4.31569e-25
4.32982e-25
4.32971e-25
4.77156e-25
-3.24557e-25
-9.43481e-25
-1.58919e-24
-1.97046e-24
-2.3958e-24
-2.87083e-24
-2.78513e-24
-2.14001e-24
-1.54772e-24
-9.94966e-25
-4.82145e-25
4.86028e-27
-1.45127e-25
-9.46006e-25
-1.14701e-24
-2.04031e-24
-1.72122e-24
-2.09235e-24
-1.87367e-24
-1.7027e-24
-1.54974e-24
-2.06666e-24
-1.37648e-24
-7.56396e-25
4.76533e-25
4.47613e-25
4.21458e-25
3.69195e-25
2.89324e-25
1.79981e-25
5.27051e-26
-7.20966e-25
-1.51967e-24
-2.36206e-24
-3.28124e-24
-3.03131e-24
-2.86707e-24
-2.76456e-24
-2.72766e-24
-2.76037e-24
-2.89425e-24
-1.85355e-24
-2.14161e-24
-2.48202e-24
-2.90505e-24
-3.41315e-24
-4.03666e-24
-3.52721e-24
-3.13729e-24
-2.84089e-24
-2.64044e-24
-2.53894e-24
-2.53973e-24
-2.64637e-24
-2.8626e-24
-3.1922e-24
-3.63877e-24
-4.20557e-24
-4.89528e-24
-5.7098e-24
-6.65054e-24
-7.77414e-24
-6.57851e-24
-5.56171e-24
-4.66313e-24
-3.87743e-24
-3.19887e-24
-2.62107e-24
-2.1372e-24
-1.74036e-24
-1.42385e-24
-1.1812e-24
-1.00458e-24
-8.17349e-25
-4.89941e-25
-2.5213e-25
-1.18727e-25
-5.29558e-26
-2.20812e-26
-8.67766e-27
-3.34549e-27
-2.82975e-27
-2.48461e-27
-2.06508e-27
-1.70588e-27
-1.40121e-27
-1.14401e-27
-9.27745e-28
-7.46272e-28
-5.93907e-28
-4.65482e-28
-3.56334e-28
-2.62269e-28
-1.79496e-28
-1.04549e-28
-3.41997e-29
)
;
    }
    outlet
    {
        type            cyclic;
        value           nonuniform List<scalar> 
120
(
-6.23413e-28
-1.86651e-27
-3.07725e-27
-4.32386e-27
-5.52834e-27
-6.70879e-27
-7.69641e-27
-8.9724e-27
-1.02727e-26
-1.09597e-26
-1.17501e-26
-1.27479e-26
-1.26541e-26
-1.43003e-26
-2.92129e-25
-3.29495e-25
-3.33612e-25
-3.54556e-25
-3.85702e-25
-4.14622e-25
-4.31569e-25
-4.32982e-25
-4.32971e-25
-4.77156e-25
3.24557e-25
9.43481e-25
1.58919e-24
1.97046e-24
2.3958e-24
2.87083e-24
2.78513e-24
2.14001e-24
1.54772e-24
9.94966e-25
4.82145e-25
-4.86028e-27
1.45127e-25
9.46006e-25
1.14701e-24
2.04031e-24
1.72122e-24
2.09235e-24
1.87367e-24
1.7027e-24
1.54974e-24
2.06666e-24
1.37648e-24
7.56396e-25
-4.76533e-25
-4.47613e-25
-4.21458e-25
-3.69195e-25
-2.89324e-25
-1.79981e-25
-5.27051e-26
7.20966e-25
1.51967e-24
2.36206e-24
3.28124e-24
3.03131e-24
2.86707e-24
2.76456e-24
2.72766e-24
2.76037e-24
2.89425e-24
1.85355e-24
2.14161e-24
2.48202e-24
2.90505e-24
3.41315e-24
4.03666e-24
3.52721e-24
3.13729e-24
2.84089e-24
2.64044e-24
2.53894e-24
2.53973e-24
2.64637e-24
2.8626e-24
3.1922e-24
3.63877e-24
4.20557e-24
4.89528e-24
5.7098e-24
6.65054e-24
7.77414e-24
6.57851e-24
5.56171e-24
4.66313e-24
3.87743e-24
3.19887e-24
2.62107e-24
2.1372e-24
1.74036e-24
1.42385e-24
1.1812e-24
1.00458e-24
8.17349e-25
4.89941e-25
2.5213e-25
1.18727e-25
5.29558e-26
2.20812e-26
8.67766e-27
3.34549e-27
2.82975e-27
2.48461e-27
2.06508e-27
1.70588e-27
1.40121e-27
1.14401e-27
9.27745e-28
7.46272e-28
5.93907e-28
4.65482e-28
3.56334e-28
2.62269e-28
1.79496e-28
1.04549e-28
3.41997e-29
)
;
    }
    top
    {
        type            fixedValue;
        value           uniform 0;
    }
    bottom
    {
        type            fixedValue;
        value           uniform 0;
    }
    frontAndBackPlanes
    {
        type            empty;
        value           nonuniform List<scalar> 0();
    }
}


// ************************************************************************* //
