/*--------------------------------*- C++ -*----------------------------------*\
| =========                 |                                                 |
| \\      /  F ield         | OpenFOAM: The Open Source CFD Toolbox           |
|  \\    /   O peration     | Version:  2206                                  |
|   \\  /    A nd           | Website:  www.openfoam.com                      |
|    \\/     M anipulation  |                                                 |
\*---------------------------------------------------------------------------*/
FoamFile
{
    version     2.0;
    format      ascii;
    arch        "LSB;label=32;scalar=64";
    class       surfaceScalarField;
    location    "200";
    object      phi.a;
}
// * * * * * * * * * * * * * * * * * * * * * * * * * * * * * * * * * * * * * //

dimensions      [0 3 -1 0 0 0 0];

oriented        oriented;

internalField   nonuniform List<scalar> 
119
(
-6.04329e-15
-1.3069e-14
-2.04922e-14
-2.91173e-14
-3.89048e-14
-4.99002e-14
-6.29774e-14
-7.81779e-14
-9.69013e-14
-1.17937e-13
-1.38631e-13
-1.50897e-13
-1.67662e-13
-1.09531e-12
-1.71648e-12
-2.06852e-12
-2.22458e-12
-2.28752e-12
-2.31069e-12
-2.31898e-12
-2.32188e-12
-2.32285e-12
-2.32316e-12
-2.32326e-12
-2.3233e-12
-2.32331e-12
-2.32331e-12
-2.32331e-12
-2.32331e-12
-2.32331e-12
-2.32331e-12
-2.32331e-12
-2.32331e-12
-2.32331e-12
-2.32331e-12
-2.32331e-12
-2.32331e-12
-2.32331e-12
-2.32331e-12
-2.32331e-12
-2.32331e-12
-2.32331e-12
-2.32331e-12
-2.32331e-12
-2.32331e-12
-2.32331e-12
-2.32331e-12
-2.32331e-12
-2.32331e-12
-2.32331e-12
-2.32331e-12
-2.32331e-12
-2.32331e-12
-2.32331e-12
-2.32331e-12
-2.32331e-12
-2.32331e-12
-2.32331e-12
-2.32331e-12
-2.32331e-12
-2.32331e-12
-2.32331e-12
-2.32331e-12
-2.32331e-12
-2.32331e-12
-2.32331e-12
-2.32331e-12
-2.32331e-12
-2.32331e-12
-2.32331e-12
-2.32331e-12
-2.32331e-12
-2.32331e-12
-2.32331e-12
-2.32331e-12
-2.32331e-12
-2.32331e-12
-2.32331e-12
-2.32331e-12
-2.32331e-12
-2.32331e-12
-2.32331e-12
-2.32331e-12
-2.32331e-12
-2.32331e-12
-2.32331e-12
-2.32331e-12
-2.32331e-12
-2.32331e-12
-2.32331e-12
-2.32331e-12
-2.32331e-12
-2.32331e-12
-2.32331e-12
-2.32331e-12
-2.32331e-12
-2.32331e-12
-2.3233e-12
-2.32335e-12
-2.32331e-12
-2.32245e-12
-2.32694e-12
-2.37335e-12
-1.88647e-12
-9.48885e-12
-4.99144e-11
-8.1424e-11
-8.01119e-11
-8.10723e-11
-8.26743e-11
-8.19587e-11
-8.20905e-11
-8.20907e-11
-8.2158e-11
-8.2294e-11
-8.23652e-11
-8.23653e-11
-8.23626e-11
-8.20871e-11
)
;

boundaryField
{
    inlet
    {
        type            cyclic;
        value           nonuniform List<scalar> 
120
(
6.23416e-28
1.86662e-27
3.10161e-27
4.32398e-27
5.52835e-27
6.70956e-27
7.86028e-27
8.97197e-27
1.00186e-26
1.09585e-26
1.17481e-26
1.23299e-26
1.2644e-26
1.27918e-26
2.90631e-25
3.29496e-25
3.33611e-25
3.54557e-25
3.85706e-25
4.14629e-25
4.31576e-25
4.32983e-25
4.33015e-25
4.63779e-25
-3.26901e-25
-9.4381e-25
-1.58092e-24
-1.97039e-24
-2.39567e-24
-2.85409e-24
-2.76839e-24
-2.13987e-24
-1.54772e-24
-9.94968e-25
-4.82285e-25
-1.18799e-26
-1.61731e-25
-9.29673e-25
-1.16321e-24
-2.00738e-24
-1.73742e-24
-2.07588e-24
-1.87354e-24
-1.70283e-24
-1.56608e-24
-2.03359e-24
-1.37608e-24
-7.40061e-25
4.43459e-25
4.47342e-25
4.21455e-25
3.69194e-25
2.89322e-25
1.79844e-25
3.60995e-26
-7.21103e-25
-1.51967e-24
-2.36179e-24
-3.24803e-24
-3.03105e-24
-2.86707e-24
-2.76456e-24
-2.72766e-24
-2.7601e-24
-2.86131e-24
-1.88649e-24
-2.14188e-24
-2.48202e-24
-2.90505e-24
-3.41288e-24
-4.00345e-24
-3.52694e-24
-3.13729e-24
-2.84089e-24
-2.64044e-24
-2.53895e-24
-2.53973e-24
-2.64637e-24
-2.86261e-24
-3.1922e-24
-3.63877e-24
-4.20557e-24
-4.89528e-24
-5.7098e-24
-6.65001e-24
-7.70773e-24
-6.57797e-24
-5.56171e-24
-4.66313e-24
-3.87743e-24
-3.19888e-24
-2.62107e-24
-2.1372e-24
-1.74037e-24
-1.42386e-24
-1.18126e-24
-1.00539e-24
-8.19997e-25
-4.9062e-25
-2.52459e-25
-1.18734e-25
-5.2957e-26
-2.20806e-26
-8.6774e-27
-3.34539e-27
-2.82957e-27
-2.4851e-27
-2.04883e-27
-1.44626e-27
-8.603e-28
-3.62268e-28
-2.43376e-28
-2.43117e-28
-2.40565e-28
-1.23735e-28
-1.76473e-30
-1.43576e-30
-1.36944e-30
-1.33575e-30
-1.74298e-30
)
;
    }
    outlet
    {
        type            cyclic;
        value           nonuniform List<scalar> 
120
(
-6.23416e-28
-1.86662e-27
-3.10161e-27
-4.32398e-27
-5.52835e-27
-6.70956e-27
-7.86028e-27
-8.97197e-27
-1.00186e-26
-1.09585e-26
-1.17481e-26
-1.23299e-26
-1.2644e-26
-1.27918e-26
-2.90631e-25
-3.29496e-25
-3.33611e-25
-3.54557e-25
-3.85706e-25
-4.14629e-25
-4.31576e-25
-4.32983e-25
-4.33015e-25
-4.63779e-25
3.26901e-25
9.4381e-25
1.58092e-24
1.97039e-24
2.39567e-24
2.85409e-24
2.76839e-24
2.13987e-24
1.54772e-24
9.94968e-25
4.82285e-25
1.18799e-26
1.61731e-25
9.29673e-25
1.16321e-24
2.00738e-24
1.73742e-24
2.07588e-24
1.87354e-24
1.70283e-24
1.56608e-24
2.03359e-24
1.37608e-24
7.40061e-25
-4.43459e-25
-4.47342e-25
-4.21455e-25
-3.69194e-25
-2.89322e-25
-1.79844e-25
-3.60995e-26
7.21103e-25
1.51967e-24
2.36179e-24
3.24803e-24
3.03105e-24
2.86707e-24
2.76456e-24
2.72766e-24
2.7601e-24
2.86131e-24
1.88649e-24
2.14188e-24
2.48202e-24
2.90505e-24
3.41288e-24
4.00345e-24
3.52694e-24
3.13729e-24
2.84089e-24
2.64044e-24
2.53895e-24
2.53973e-24
2.64637e-24
2.86261e-24
3.1922e-24
3.63877e-24
4.20557e-24
4.89528e-24
5.7098e-24
6.65001e-24
7.70773e-24
6.57797e-24
5.56171e-24
4.66313e-24
3.87743e-24
3.19888e-24
2.62107e-24
2.1372e-24
1.74037e-24
1.42386e-24
1.18126e-24
1.00539e-24
8.19997e-25
4.9062e-25
2.52459e-25
1.18734e-25
5.2957e-26
2.20806e-26
8.6774e-27
3.34539e-27
2.82957e-27
2.4851e-27
2.04883e-27
1.44626e-27
8.603e-28
3.62268e-28
2.43376e-28
2.43117e-28
2.40565e-28
1.23735e-28
1.76473e-30
1.43576e-30
1.36944e-30
1.33575e-30
1.74298e-30
)
;
    }
    top
    {
        type            fixedValue;
        value           uniform 0;
    }
    bottom
    {
        type            fixedValue;
        value           uniform 0;
    }
    frontAndBackPlanes
    {
        type            empty;
        value           nonuniform List<scalar> 0();
    }
}


// ************************************************************************* //
