/*--------------------------------*- C++ -*----------------------------------*\
| =========                 |                                                 |
| \\      /  F ield         | OpenFOAM: The Open Source CFD Toolbox           |
|  \\    /   O peration     | Version:  2206                                  |
|   \\  /    A nd           | Website:  www.openfoam.com                      |
|    \\/     M anipulation  |                                                 |
\*---------------------------------------------------------------------------*/
FoamFile
{
    version     2.0;
    format      ascii;
    arch        "LSB;label=32;scalar=64";
    class       volVectorField;
    location    "200";
    object      U.a;
}
// * * * * * * * * * * * * * * * * * * * * * * * * * * * * * * * * * * * * * //

dimensions      [0 1 -1 0 0 0 0];

internalField   nonuniform List<vector> 
120
(
(-2.07805e-21 6.55158e-09 0)
(-6.22207e-21 -2.43205e-08 0)
(-1.03387e-20 -4.82773e-08 0)
(-1.44133e-20 -6.55413e-08 0)
(-1.84278e-20 -9.61957e-08 0)
(-2.23652e-20 -1.19917e-07 0)
(-2.62009e-20 -1.5726e-07 0)
(-2.99066e-20 -1.92571e-07 0)
(-3.33953e-20 -2.41678e-07 0)
(-3.65283e-20 -2.96629e-07 0)
(-3.91602e-20 -3.58608e-07 0)
(-4.10997e-20 -4.11773e-07 0)
(-4.21465e-20 -4.26416e-07 0)
(-4.26392e-20 -4.15666e-07 0)
(-9.68768e-19 -2.79113e-05 0)
(-1.09832e-18 -3.2104e-06 0)
(-1.11204e-18 -4.00417e-06 0)
(-1.18186e-18 -5.7426e-06 0)
(-1.28569e-18 -6.24639e-06 0)
(-1.3821e-18 -6.37892e-06 0)
(-1.43859e-18 -6.4276e-06 0)
(-1.44328e-18 -6.4458e-06 0)
(-1.44338e-18 -6.45166e-06 0)
(-1.54593e-18 -6.45317e-06 0)
(1.08967e-18 -6.45352e-06 0)
(3.14603e-18 -6.45361e-06 0)
(5.26974e-18 -6.45363e-06 0)
(6.56797e-18 -6.45364e-06 0)
(7.98556e-18 -6.45364e-06 0)
(9.51363e-18 -6.45364e-06 0)
(9.22796e-18 -6.45364e-06 0)
(7.1329e-18 -6.45364e-06 0)
(5.15908e-18 -6.45364e-06 0)
(3.31656e-18 -6.45364e-06 0)
(1.60762e-18 -6.45364e-06 0)
(3.95997e-20 -6.45364e-06 0)
(5.39104e-19 -6.45364e-06 0)
(3.09891e-18 -6.45364e-06 0)
(3.87736e-18 -6.45364e-06 0)
(6.69125e-18 -6.45364e-06 0)
(5.79141e-18 -6.45364e-06 0)
(6.91961e-18 -6.45364e-06 0)
(6.24513e-18 -6.45364e-06 0)
(5.6761e-18 -6.45364e-06 0)
(5.22026e-18 -6.45364e-06 0)
(6.77862e-18 -6.45364e-06 0)
(4.58694e-18 -6.45364e-06 0)
(2.46687e-18 -6.45364e-06 0)
(-1.4782e-18 -6.45364e-06 0)
(-1.49114e-18 -6.45364e-06 0)
(-1.40485e-18 -6.45364e-06 0)
(-1.23065e-18 -6.45364e-06 0)
(-9.64407e-19 -6.45364e-06 0)
(-5.9948e-19 -6.45364e-06 0)
(-1.20332e-19 -6.45364e-06 0)
(2.40368e-18 -6.45364e-06 0)
(5.06558e-18 -6.45364e-06 0)
(7.87264e-18 -6.45364e-06 0)
(1.08268e-17 -6.45364e-06 0)
(1.01035e-17 -6.45364e-06 0)
(9.55689e-18 -6.45364e-06 0)
(9.2152e-18 -6.45364e-06 0)
(9.0922e-18 -6.45364e-06 0)
(9.20034e-18 -6.45364e-06 0)
(9.53771e-18 -6.45364e-06 0)
(6.2883e-18 -6.45364e-06 0)
(7.13961e-18 -6.45364e-06 0)
(8.2734e-18 -6.45364e-06 0)
(9.68351e-18 -6.45364e-06 0)
(1.13763e-17 -6.45364e-06 0)
(1.33448e-17 -6.45364e-06 0)
(1.17565e-17 -6.45364e-06 0)
(1.04576e-17 -6.45364e-06 0)
(9.46964e-18 -6.45364e-06 0)
(8.80147e-18 -6.45364e-06 0)
(8.46316e-18 -6.45364e-06 0)
(8.46577e-18 -6.45364e-06 0)
(8.82123e-18 -6.45364e-06 0)
(9.54202e-18 -6.45364e-06 0)
(1.06407e-17 -6.45364e-06 0)
(1.21292e-17 -6.45364e-06 0)
(1.40186e-17 -6.45364e-06 0)
(1.63176e-17 -6.45365e-06 0)
(1.90327e-17 -6.45364e-06 0)
(2.21667e-17 -6.45364e-06 0)
(2.56924e-17 -6.45364e-06 0)
(2.19266e-17 -6.45364e-06 0)
(1.8539e-17 -6.45364e-06 0)
(1.55438e-17 -6.45364e-06 0)
(1.29248e-17 -6.45364e-06 0)
(1.06629e-17 -6.45364e-06 0)
(8.73689e-18 -6.45364e-06 0)
(7.12401e-18 -6.45364e-06 0)
(5.80122e-18 -6.45364e-06 0)
(4.74621e-18 -6.45364e-06 0)
(3.93755e-18 -6.45366e-06 0)
(3.3513e-18 -6.45373e-06 0)
(2.73332e-18 -6.45338e-06 0)
(1.6354e-18 -6.44681e-06 0)
(8.41529e-19 -6.44056e-06 0)
(3.95781e-19 -6.6702e-06 0)
(1.76523e-19 -6.91347e-06 0)
(7.36021e-20 -1.40642e-06 0)
(2.89247e-20 1.1392e-05 0)
(1.11513e-20 -0.000143322 0)
(9.43191e-21 -0.000236389 0)
(8.28368e-21 -0.000165598 0)
(6.82944e-21 -0.000208221 0)
(4.82086e-21 -0.000219095 0)
(2.86767e-21 -0.000232027 0)
(1.20756e-21 -0.000227291 0)
(8.11254e-22 -0.000228035 0)
(8.1039e-22 -0.000228023 0)
(8.01882e-22 -0.000228036 0)
(4.12449e-22 -0.000228397 0)
(5.88243e-24 -0.000228792 0)
(4.78587e-24 -0.000228793 0)
(4.56481e-24 -0.000228792 0)
(4.4525e-24 -0.000228778 0)
(5.80993e-24 -0.000227262 0)
)
;

boundaryField
{
    inlet
    {
        type            cyclic;
    }
    outlet
    {
        type            cyclic;
    }
    top
    {
        type            fixedValue;
        value           uniform (0 0 0);
    }
    bottom
    {
        type            fixedValue;
        value           uniform (0 0 0);
    }
    frontAndBackPlanes
    {
        type            empty;
    }
}


// ************************************************************************* //
