/*--------------------------------*- C++ -*----------------------------------*\
| =========                 |                                                 |
| \\      /  F ield         | OpenFOAM: The Open Source CFD Toolbox           |
|  \\    /   O peration     | Version:  2206                                  |
|   \\  /    A nd           | Website:  www.openfoam.com                      |
|    \\/     M anipulation  |                                                 |
\*---------------------------------------------------------------------------*/
FoamFile
{
    version     2.0;
    format      ascii;
    arch        "LSB;label=32;scalar=64";
    class       volVectorField;
    location    "200";
    object      U.b;
}
// * * * * * * * * * * * * * * * * * * * * * * * * * * * * * * * * * * * * * //

dimensions      [0 1 -1 0 0 0 0];

internalField   nonuniform List<vector> 
120
(
(-2.07804e-21 2.67763e-08 0)
(-6.22169e-21 4.07015e-08 0)
(-1.02575e-20 6.54712e-08 0)
(-1.44129e-20 1.02923e-07 0)
(-1.84278e-20 1.34e-07 0)
(-2.23626e-20 1.80852e-07 0)
(-2.56547e-20 2.23857e-07 0)
(-2.9908e-20 2.83704e-07 0)
(-3.42423e-20 3.47313e-07 0)
(-3.65324e-20 4.24632e-07 0)
(-3.9167e-20 5.00077e-07 0)
(-4.24929e-20 5.563e-07 0)
(-4.21804e-20 6.34076e-07 0)
(-4.76677e-20 2.82205e-06 0)
(-9.73763e-19 -1.88627e-05 0)
(-1.09832e-18 8.08409e-06 0)
(-1.11204e-18 8.20015e-06 0)
(-1.18185e-18 6.91348e-06 0)
(-1.28567e-18 6.57325e-06 0)
(-1.38207e-18 6.49797e-06 0)
(-1.43856e-18 6.46953e-06 0)
(-1.44327e-18 6.45825e-06 0)
(-1.44324e-18 6.45463e-06 0)
(-1.59052e-18 6.4538e-06 0)
(1.08186e-18 6.45365e-06 0)
(3.14494e-18 6.45364e-06 0)
(5.2973e-18 6.45364e-06 0)
(6.56819e-18 6.45364e-06 0)
(7.98602e-18 6.45364e-06 0)
(9.56943e-18 6.45364e-06 0)
(9.28376e-18 6.45364e-06 0)
(7.13335e-18 6.45364e-06 0)
(5.15908e-18 6.45364e-06 0)
(3.31655e-18 6.45364e-06 0)
(1.60715e-18 6.45364e-06 0)
(-1.62009e-20 6.45364e-06 0)
(4.83757e-19 6.45365e-06 0)
(3.15335e-18 6.45365e-06 0)
(3.82336e-18 6.45364e-06 0)
(6.80105e-18 6.45364e-06 0)
(5.73741e-18 6.45364e-06 0)
(6.97451e-18 6.45364e-06 0)
(6.24558e-18 6.45364e-06 0)
(5.67566e-18 6.45365e-06 0)
(5.16581e-18 6.45365e-06 0)
(6.88886e-18 6.45365e-06 0)
(4.58828e-18 6.45365e-06 0)
(2.52132e-18 6.45364e-06 0)
(-1.58844e-18 6.45364e-06 0)
(-1.49204e-18 6.45364e-06 0)
(-1.40486e-18 6.45364e-06 0)
(-1.23065e-18 6.45364e-06 0)
(-9.64414e-19 6.45364e-06 0)
(-5.99935e-19 6.45364e-06 0)
(-1.75684e-19 6.45364e-06 0)
(2.40322e-18 6.45364e-06 0)
(5.06558e-18 6.45365e-06 0)
(7.87355e-18 6.45364e-06 0)
(1.09375e-17 6.45364e-06 0)
(1.01044e-17 6.45364e-06 0)
(9.55689e-18 6.45364e-06 0)
(9.21519e-18 6.45364e-06 0)
(9.0922e-18 6.45364e-06 0)
(9.20123e-18 6.45364e-06 0)
(9.6475e-18 6.45364e-06 0)
(6.1785e-18 6.45364e-06 0)
(7.1387e-18 6.45364e-06 0)
(8.27338e-18 6.45365e-06 0)
(9.68351e-18 6.45364e-06 0)
(1.13772e-17 6.45364e-06 0)
(1.34555e-17 6.45365e-06 0)
(1.17574e-17 6.45364e-06 0)
(1.04576e-17 6.45364e-06 0)
(9.46963e-18 6.45364e-06 0)
(8.80146e-18 6.45364e-06 0)
(8.46315e-18 6.45364e-06 0)
(8.46576e-18 6.45364e-06 0)
(8.82122e-18 6.45364e-06 0)
(9.54201e-18 6.45364e-06 0)
(1.06407e-17 6.45365e-06 0)
(1.21292e-17 6.45365e-06 0)
(1.40186e-17 6.45365e-06 0)
(1.63176e-17 6.45364e-06 0)
(1.90327e-17 6.45364e-06 0)
(2.21685e-17 6.45364e-06 0)
(2.59138e-17 6.45364e-06 0)
(2.19284e-17 6.45364e-06 0)
(1.8539e-17 6.45364e-06 0)
(1.55438e-17 6.45364e-06 0)
(1.29248e-17 6.45364e-06 0)
(1.06629e-17 6.45364e-06 0)
(8.73688e-18 6.45364e-06 0)
(7.12401e-18 6.45364e-06 0)
(5.80121e-18 6.45365e-06 0)
(4.74617e-18 6.45365e-06 0)
(3.93734e-18 6.45362e-06 0)
(3.34861e-18 6.45355e-06 0)
(2.7245e-18 6.45391e-06 0)
(1.63314e-18 6.46028e-06 0)
(8.40434e-19 6.46701e-06 0)
(3.95756e-19 6.24161e-06 0)
(1.76519e-19 5.99539e-06 0)
(7.36041e-20 1.14244e-05 0)
(2.89255e-20 2.42517e-05 0)
(1.11516e-20 -0.00013175 0)
(9.4325e-21 -0.000152733 0)
(8.28202e-21 5.68534e-05 0)
(6.8836e-21 1.95432e-05 0)
(5.68627e-21 -1.62185e-06 0)
(4.67071e-21 -1.65767e-06 0)
(3.81336e-21 -1.00224e-07 0)
(3.09248e-21 1.11209e-07 0)
(2.48757e-21 2.22176e-08 0)
(1.97969e-21 -5.40265e-09 0)
(1.55161e-21 -2.40428e-09 0)
(1.18778e-21 7.18268e-11 0)
(8.7423e-22 1.88733e-10 0)
(5.9832e-22 2.02863e-11 0)
(3.48497e-22 -1.96198e-12 0)
(1.13999e-22 1.36411e-11 0)
)
;

boundaryField
{
    inlet
    {
        type            cyclic;
    }
    outlet
    {
        type            cyclic;
    }
    top
    {
        type            fixedValue;
        value           uniform (0 0 0);
    }
    bottom
    {
        type            fixedValue;
        value           uniform (0 0 0);
    }
    frontAndBackPlanes
    {
        type            empty;
    }
}


// ************************************************************************* //
