/*--------------------------------*- C++ -*----------------------------------*\
| =========                 |                                                 |
| \\      /  F ield         | OpenFOAM: The Open Source CFD Toolbox           |
|  \\    /   O peration     | Version:  2206                                  |
|   \\  /    A nd           | Website:  www.openfoam.com                      |
|    \\/     M anipulation  |                                                 |
\*---------------------------------------------------------------------------*/
FoamFile
{
    version     2.0;
    format      ascii;
    arch        "LSB;label=32;scalar=64";
    class       volScalarField;
    location    "1780";
    object      nuFra;
}
// * * * * * * * * * * * * * * * * * * * * * * * * * * * * * * * * * * * * * //

dimensions      [0 2 -1 0 0 0 0];

internalField   nonuniform List<scalar> 
120
(
1
1
1
1
1
1
1
1
1
1
1
1
1
1
1
1
1
1
1
1
1
1
1
1
1
1
1
1
1
1
1
1
1
1
1
1
1
1
1
1
1
1
1
1
1
1
1
1
1
1
1
1
1
1
1
1
1
1
1
1
1
1
1
1
1
1
1
1
1
1
1
1
1
1
1
1
1
1
1
1
1
1
1
1
1
1
1
1
1
1
1.07486e-05
4.12128e-05
1.46979e-09
1.00978e-09
2.7329e-09
1.5444e-08
9.70401e-08
5.48615e-07
2.61314e-06
1.01814e-05
3.15882e-05
7.50846e-05
0.000133886
0.000188932
0.000232117
0.000264814
0.000288006
0.000301396
0.000304564
0.000297312
0.000279693
0.000251817
0.000212473
0.000156849
8.72238e-05
3.13322e-05
6.85662e-06
8.60991e-07
5.01635e-08
4.77806e-10
)
;

boundaryField
{
    inlet
    {
        type            cyclic;
    }
    outlet
    {
        type            cyclic;
    }
    top
    {
        type            calculated;
        value           uniform 2.41079e-10;
    }
    bottom
    {
        type            calculated;
        value           uniform 1;
    }
    frontAndBackPlanes
    {
        type            empty;
    }
}


// ************************************************************************* //
