/*--------------------------------*- C++ -*----------------------------------*\
| =========                 |                                                 |
| \\      /  F ield         | OpenFOAM: The Open Source CFD Toolbox           |
|  \\    /   O peration     | Version:  2206                                  |
|   \\  /    A nd           | Website:  www.openfoam.com                      |
|    \\/     M anipulation  |                                                 |
\*---------------------------------------------------------------------------*/
FoamFile
{
    version     2.0;
    format      ascii;
    arch        "LSB;label=32;scalar=64";
    class       volScalarField;
    location    "1780";
    object      pff;
}
// * * * * * * * * * * * * * * * * * * * * * * * * * * * * * * * * * * * * * //

dimensions      [1 -1 -2 0 0 0 0];

internalField   nonuniform List<scalar> 
120
(
26.4391
25.9057
25.906
25.3286
25.3115
24.746
24.7172
24.1635
24.1229
23.5811
23.5288
22.9988
22.9348
22.4166
22.341
21.8345
21.7472
21.2524
21.1537
20.6705
20.5603
20.0886
19.9671
19.5067
19.3741
18.925
18.7813
18.3432
18.1888
17.7615
17.5965
17.1798
17.0045
16.5981
16.4128
16.0164
15.8214
15.4347
15.2304
14.8529
14.6398
14.2711
14.0495
13.6892
13.4597
13.1073
12.8703
12.5253
12.2813
11.9433
11.6928
11.3612
11.1048
10.779
10.5173
10.1968
9.93033
9.6146
9.34385
9.03236
8.7579
8.45013
8.17249
7.86791
7.58765
7.28574
7.00339
6.70362
6.41977
6.12156
5.83682
5.53955
5.25465
4.95758
4.67336
4.37557
4.09313
3.79348
3.51416
3.21121
2.93668
2.62881
2.36073
2.04669
1.78581
1.4665
1.20945
0.893599
0.623216
0.342201
0
0
0
0
0
0
0
0
0
0
0
0
0
0
0
0
0
0
0
0
0
0
0
0
0
0
0
0
0
0
)
;

boundaryField
{
    inlet
    {
        type            cyclic;
    }
    outlet
    {
        type            cyclic;
    }
    top
    {
        type            calculated;
        value           uniform 0;
    }
    bottom
    {
        type            calculated;
        value           uniform 26.4391;
    }
    frontAndBackPlanes
    {
        type            empty;
    }
}


// ************************************************************************* //
