/*--------------------------------*- C++ -*----------------------------------*\
| =========                 |                                                 |
| \\      /  F ield         | OpenFOAM: The Open Source CFD Toolbox           |
|  \\    /   O peration     | Version:  2206                                  |
|   \\  /    A nd           | Website:  www.openfoam.com                      |
|    \\/     M anipulation  |                                                 |
\*---------------------------------------------------------------------------*/
FoamFile
{
    version     2.0;
    format      ascii;
    arch        "LSB;label=32;scalar=64";
    class       surfaceScalarField;
    location    "1780";
    object      phi.b;
}
// * * * * * * * * * * * * * * * * * * * * * * * * * * * * * * * * * * * * * //

dimensions      [0 3 -1 0 0 0 0];

oriented        oriented;

internalField   nonuniform List<scalar> 
119
(
9.40106e-18
1.89573e-17
2.85837e-17
3.82965e-17
4.81731e-17
5.80443e-17
6.81834e-17
7.82049e-17
8.86221e-17
9.87802e-17
1.09493e-16
1.19772e-16
1.30799e-16
1.4118e-16
1.52543e-16
1.63005e-16
1.74726e-16
1.8525e-16
1.97351e-16
2.07915e-16
2.20418e-16
2.30999e-16
2.43926e-16
2.54506e-16
2.67875e-16
2.78436e-16
2.92263e-16
3.0279e-16
3.17089e-16
3.27571e-16
3.42351e-16
3.5278e-16
3.68046e-16
3.78419e-16
3.94169e-16
4.04487e-16
4.20715e-16
4.30986e-16
4.47676e-16
4.57912e-16
4.75047e-16
4.85264e-16
5.02816e-16
5.13039e-16
5.30977e-16
5.41231e-16
5.59518e-16
5.69833e-16
5.88428e-16
5.98837e-16
6.17696e-16
6.28229e-16
6.47306e-16
6.57995e-16
6.77246e-16
6.88114e-16
7.075e-16
7.18561e-16
7.38053e-16
7.49303e-16
7.68888e-16
7.80297e-16
7.9999e-16
8.11489e-16
8.31345e-16
8.42808e-16
8.62937e-16
8.74161e-16
8.94753e-16
9.05429e-16
9.26776e-16
9.36466e-16
9.58967e-16
9.67103e-16
9.91228e-16
9.97191e-16
1.02329e-15
1.02673e-15
1.05442e-15
1.05621e-15
1.08277e-15
1.08772e-15
1.1034e-15
1.12792e-15
1.10321e-15
1.19768e-15
1.04508e-15
1.36486e-15
8.02586e-16
2.5288e-15
1.50894e-15
6.16284e-19
2.87153e-17
-2.8539e-21
-2.23535e-21
-9.53945e-22
9.57269e-22
2.48304e-21
2.89902e-21
2.36431e-21
8.33408e-22
-1.46865e-21
-2.88605e-21
-2.34998e-21
-1.06341e-21
6.21467e-23
1.34794e-21
2.14012e-21
1.81683e-21
8.6119e-22
-7.70998e-22
-2.31888e-21
-2.34676e-21
-1.03941e-21
1.04733e-21
2.49345e-21
2.42818e-21
6.73026e-22
-1.60366e-21
)
;

boundaryField
{
    inlet
    {
        type            cyclic;
        value           nonuniform List<scalar> 
120
(
-4.65021e-27
-1.39562e-26
-2.32749e-26
-3.26149e-26
-4.19848e-26
-5.13932e-26
-6.08485e-26
-7.03586e-26
-7.9932e-26
-8.95771e-26
-9.93012e-26
-1.09112e-25
-1.19018e-25
-1.29025e-25
-1.39142e-25
-1.49374e-25
-1.59729e-25
-1.70212e-25
-1.8083e-25
-1.91588e-25
-2.02492e-25
-2.13546e-25
-2.24756e-25
-2.36122e-25
-2.47654e-25
-2.5935e-25
-2.71215e-25
-2.83247e-25
-2.95452e-25
-3.07832e-25
-3.20381e-25
-3.331e-25
-3.45992e-25
-3.59052e-25
-3.72279e-25
-3.85665e-25
-3.98879e-25
-4.12254e-25
-4.25763e-25
-4.39432e-25
-4.53214e-25
-4.67142e-25
-4.81177e-25
-4.95324e-25
-5.09565e-25
-5.2391e-25
-5.38308e-25
-5.52781e-25
-5.67283e-25
-5.81843e-25
-5.96411e-25
-6.10982e-25
-6.25538e-25
-6.40062e-25
-6.54531e-25
-6.68943e-25
-6.83263e-25
-6.97479e-25
-7.11584e-25
-7.25689e-25
-7.3964e-25
-7.53404e-25
-7.66957e-25
-7.80278e-25
-7.93356e-25
-8.06116e-25
-8.18618e-25
-8.30785e-25
-8.4261e-25
-8.54071e-25
-8.65162e-25
-8.75817e-25
-8.86062e-25
-8.95861e-25
-9.05196e-25
-9.14048e-25
-9.22401e-25
-9.30236e-25
-9.37538e-25
-9.44292e-25
-9.50483e-25
-9.561e-25
-9.6113e-25
-9.65561e-25
-9.69385e-25
-9.72629e-25
-9.75174e-25
-9.77126e-25
-9.78443e-25
-9.79121e-25
-9.7913e-25
-9.65474e-25
-9.36165e-25
-9.06455e-25
-8.76358e-25
-8.45872e-25
-8.15001e-25
-7.83745e-25
-7.52108e-25
-7.20094e-25
-6.87709e-25
-6.54959e-25
-6.21853e-25
-5.88398e-25
-5.54607e-25
-5.20491e-25
-4.86062e-25
-4.51337e-25
-4.1633e-25
-3.81059e-25
-3.45542e-25
-3.09799e-25
-2.7385e-25
-2.37718e-25
-2.01424e-25
-1.64992e-25
-1.28447e-25
-9.18125e-26
-5.51139e-26
-1.83768e-26
)
;
    }
    outlet
    {
        type            cyclic;
        value           nonuniform List<scalar> 
120
(
4.65021e-27
1.39562e-26
2.32749e-26
3.26149e-26
4.19848e-26
5.13932e-26
6.08485e-26
7.03586e-26
7.9932e-26
8.95771e-26
9.93012e-26
1.09112e-25
1.19018e-25
1.29025e-25
1.39142e-25
1.49374e-25
1.59729e-25
1.70212e-25
1.8083e-25
1.91588e-25
2.02492e-25
2.13546e-25
2.24756e-25
2.36122e-25
2.47654e-25
2.5935e-25
2.71215e-25
2.83247e-25
2.95452e-25
3.07832e-25
3.20381e-25
3.331e-25
3.45992e-25
3.59052e-25
3.72279e-25
3.85665e-25
3.98879e-25
4.12254e-25
4.25763e-25
4.39432e-25
4.53214e-25
4.67142e-25
4.81177e-25
4.95324e-25
5.09565e-25
5.2391e-25
5.38308e-25
5.52781e-25
5.67283e-25
5.81843e-25
5.96411e-25
6.10982e-25
6.25538e-25
6.40062e-25
6.54531e-25
6.68943e-25
6.83263e-25
6.97479e-25
7.11584e-25
7.25689e-25
7.3964e-25
7.53404e-25
7.66957e-25
7.80278e-25
7.93356e-25
8.06116e-25
8.18618e-25
8.30785e-25
8.4261e-25
8.54071e-25
8.65162e-25
8.75817e-25
8.86062e-25
8.95861e-25
9.05196e-25
9.14048e-25
9.22401e-25
9.30236e-25
9.37538e-25
9.44292e-25
9.50483e-25
9.561e-25
9.6113e-25
9.65561e-25
9.69385e-25
9.72629e-25
9.75174e-25
9.77126e-25
9.78443e-25
9.79121e-25
9.7913e-25
9.65474e-25
9.36165e-25
9.06455e-25
8.76358e-25
8.45872e-25
8.15001e-25
7.83745e-25
7.52108e-25
7.20094e-25
6.87709e-25
6.54959e-25
6.21853e-25
5.88398e-25
5.54607e-25
5.20491e-25
4.86062e-25
4.51337e-25
4.1633e-25
3.81059e-25
3.45542e-25
3.09799e-25
2.7385e-25
2.37718e-25
2.01424e-25
1.64992e-25
1.28447e-25
9.18125e-26
5.51139e-26
1.83768e-26
)
;
    }
    top
    {
        type            fixedValue;
        value           uniform 0;
    }
    bottom
    {
        type            fixedValue;
        value           uniform 0;
    }
    frontAndBackPlanes
    {
        type            empty;
        value           nonuniform List<scalar> 0();
    }
}


// ************************************************************************* //
