/*--------------------------------*- C++ -*----------------------------------*\
| =========                 |                                                 |
| \\      /  F ield         | OpenFOAM: The Open Source CFD Toolbox           |
|  \\    /   O peration     | Version:  2206                                  |
|   \\  /    A nd           | Website:  www.openfoam.com                      |
|    \\/     M anipulation  |                                                 |
\*---------------------------------------------------------------------------*/
FoamFile
{
    version     2.0;
    format      ascii;
    arch        "LSB;label=32;scalar=64";
    class       surfaceScalarField;
    location    "1780";
    object      phi.a;
}
// * * * * * * * * * * * * * * * * * * * * * * * * * * * * * * * * * * * * * //

dimensions      [0 3 -1 0 0 0 0];

oriented        oriented;

internalField   nonuniform List<scalar> 
119
(
-6.26539e-18
-1.26364e-17
-1.90569e-17
-2.55376e-17
-3.21301e-17
-3.87218e-17
-4.5495e-17
-5.21926e-17
-5.91573e-17
-6.59522e-17
-7.31204e-17
-8.00022e-17
-8.73871e-17
-9.43438e-17
-1.0196e-16
-1.08979e-16
-1.16842e-16
-1.23909e-16
-1.32034e-16
-1.39136e-16
-1.47539e-16
-1.54661e-16
-1.63357e-16
-1.70486e-16
-1.79488e-16
-1.86615e-16
-1.95934e-16
-2.03048e-16
-2.12695e-16
-2.19789e-16
-2.29772e-16
-2.36841e-16
-2.47163e-16
-2.54206e-16
-2.64867e-16
-2.71886e-16
-2.82884e-16
-2.89885e-16
-3.0121e-16
-3.08202e-16
-3.19844e-16
-3.26839e-16
-3.38781e-16
-3.45796e-16
-3.5802e-16
-3.65074e-16
-3.77556e-16
-3.84671e-16
-3.97386e-16
-4.04585e-16
-4.17504e-16
-4.24812e-16
-4.37908e-16
-4.45346e-16
-4.58593e-16
-4.66181e-16
-4.79554e-16
-4.87305e-16
-5.0079e-16
-5.08703e-16
-5.22296e-16
-5.30357e-16
-5.44072e-16
-5.5224e-16
-5.6612e-16
-5.74315e-16
-5.88445e-16
-5.96537e-16
-6.11056e-16
-6.18842e-16
-6.33963e-16
-6.41155e-16
-6.5717e-16
-6.63392e-16
-6.80646e-16
-6.85493e-16
-7.0426e-16
-7.07514e-16
-7.27591e-16
-7.29891e-16
-7.49451e-16
-7.54198e-16
-7.66599e-16
-7.85357e-16
-7.70147e-16
-8.38594e-16
-7.34461e-16
-9.63828e-16
-5.70522e-16
-2.68794e-15
-6.30662e-15
-7.23977e-15
-2.63987e-11
-6.48129e-11
-7.90066e-11
-8.15181e-11
-8.19178e-11
-8.19884e-11
-8.20033e-11
-8.20071e-11
-8.20083e-11
-8.20088e-11
-8.20091e-11
-8.20092e-11
-8.20093e-11
-8.20094e-11
-8.20095e-11
-8.20095e-11
-8.20095e-11
-8.20094e-11
-8.20094e-11
-8.20093e-11
-8.20092e-11
-8.2009e-11
-8.20085e-11
-8.20073e-11
-8.20016e-11
-8.19566e-11
-8.11833e-11
)
;

boundaryField
{
    inlet
    {
        type            cyclic;
        value           nonuniform List<scalar> 
120
(
-4.65021e-27
-1.39562e-26
-2.32749e-26
-3.26149e-26
-4.19848e-26
-5.13932e-26
-6.08483e-26
-7.03586e-26
-7.99322e-26
-8.95771e-26
-9.93012e-26
-1.09112e-25
-1.19018e-25
-1.29025e-25
-1.39142e-25
-1.49374e-25
-1.59729e-25
-1.70212e-25
-1.8083e-25
-1.91588e-25
-2.02492e-25
-2.13546e-25
-2.24756e-25
-2.36124e-25
-2.47654e-25
-2.5935e-25
-2.71214e-25
-2.83247e-25
-2.95452e-25
-3.07829e-25
-3.20379e-25
-3.331e-25
-3.45992e-25
-3.59052e-25
-3.7228e-25
-3.8567e-25
-3.98883e-25
-4.1225e-25
-4.25766e-25
-4.39425e-25
-4.53218e-25
-4.67138e-25
-4.81177e-25
-4.95324e-25
-5.09569e-25
-5.23901e-25
-5.38308e-25
-5.52776e-25
-5.67293e-25
-5.81843e-25
-5.96411e-25
-6.10982e-25
-6.25538e-25
-6.40062e-25
-6.54536e-25
-6.68943e-25
-6.83263e-25
-6.97479e-25
-7.11572e-25
-7.25688e-25
-7.3964e-25
-7.53404e-25
-7.66957e-25
-7.80278e-25
-7.93343e-25
-8.0613e-25
-8.18618e-25
-8.30785e-25
-8.4261e-25
-8.54071e-25
-8.65147e-25
-8.75817e-25
-8.86062e-25
-8.95861e-25
-9.05196e-25
-9.14048e-25
-9.22401e-25
-9.30236e-25
-9.37538e-25
-9.44292e-25
-9.50483e-25
-9.561e-25
-9.6113e-25
-9.65561e-25
-9.69384e-25
-9.72592e-25
-9.75174e-25
-9.77126e-25
-9.78443e-25
-9.79121e-25
-9.79381e-25
-9.79803e-25
-9.79889e-25
-6.7036e-25
-3.36137e-25
-2.06511e-25
-1.73926e-25
-1.66212e-25
-1.64235e-25
-1.63653e-25
-1.63447e-25
-1.63358e-25
-1.63309e-25
-1.63277e-25
-1.63252e-25
-1.63232e-25
-1.63215e-25
-1.632e-25
-1.63188e-25
-1.63177e-25
-1.63168e-25
-1.6316e-25
-1.63153e-25
-1.63147e-25
-1.63141e-25
-1.63131e-25
-1.63107e-25
-1.63004e-25
-1.62295e-25
-1.53883e-25
)
;
    }
    outlet
    {
        type            cyclic;
        value           nonuniform List<scalar> 
120
(
4.65021e-27
1.39562e-26
2.32749e-26
3.26149e-26
4.19848e-26
5.13932e-26
6.08483e-26
7.03586e-26
7.99322e-26
8.95771e-26
9.93012e-26
1.09112e-25
1.19018e-25
1.29025e-25
1.39142e-25
1.49374e-25
1.59729e-25
1.70212e-25
1.8083e-25
1.91588e-25
2.02492e-25
2.13546e-25
2.24756e-25
2.36124e-25
2.47654e-25
2.5935e-25
2.71214e-25
2.83247e-25
2.95452e-25
3.07829e-25
3.20379e-25
3.331e-25
3.45992e-25
3.59052e-25
3.7228e-25
3.8567e-25
3.98883e-25
4.1225e-25
4.25766e-25
4.39425e-25
4.53218e-25
4.67138e-25
4.81177e-25
4.95324e-25
5.09569e-25
5.23901e-25
5.38308e-25
5.52776e-25
5.67293e-25
5.81843e-25
5.96411e-25
6.10982e-25
6.25538e-25
6.40062e-25
6.54536e-25
6.68943e-25
6.83263e-25
6.97479e-25
7.11572e-25
7.25688e-25
7.3964e-25
7.53404e-25
7.66957e-25
7.80278e-25
7.93343e-25
8.0613e-25
8.18618e-25
8.30785e-25
8.4261e-25
8.54071e-25
8.65147e-25
8.75817e-25
8.86062e-25
8.95861e-25
9.05196e-25
9.14048e-25
9.22401e-25
9.30236e-25
9.37538e-25
9.44292e-25
9.50483e-25
9.561e-25
9.6113e-25
9.65561e-25
9.69384e-25
9.72592e-25
9.75174e-25
9.77126e-25
9.78443e-25
9.79121e-25
9.79381e-25
9.79803e-25
9.79889e-25
6.7036e-25
3.36137e-25
2.06511e-25
1.73926e-25
1.66212e-25
1.64235e-25
1.63653e-25
1.63447e-25
1.63358e-25
1.63309e-25
1.63277e-25
1.63252e-25
1.63232e-25
1.63215e-25
1.632e-25
1.63188e-25
1.63177e-25
1.63168e-25
1.6316e-25
1.63153e-25
1.63147e-25
1.63141e-25
1.63131e-25
1.63107e-25
1.63004e-25
1.62295e-25
1.53883e-25
)
;
    }
    top
    {
        type            fixedValue;
        value           uniform 0;
    }
    bottom
    {
        type            fixedValue;
        value           uniform 0;
    }
    frontAndBackPlanes
    {
        type            empty;
        value           nonuniform List<scalar> 0();
    }
}


// ************************************************************************* //
