/*--------------------------------*- C++ -*----------------------------------*\
| =========                 |                                                 |
| \\      /  F ield         | OpenFOAM: The Open Source CFD Toolbox           |
|  \\    /   O peration     | Version:  2206                                  |
|   \\  /    A nd           | Website:  www.openfoam.com                      |
|    \\/     M anipulation  |                                                 |
\*---------------------------------------------------------------------------*/
FoamFile
{
    version     2.0;
    format      ascii;
    arch        "LSB;label=32;scalar=64";
    class       volVectorField;
    location    "1780";
    object      U.a;
}
// * * * * * * * * * * * * * * * * * * * * * * * * * * * * * * * * * * * * * //

dimensions      [0 1 -1 0 0 0 0];

internalField   nonuniform List<vector> 
120
(
(1.55007e-20 1.56069e-08 0)
(4.65206e-20 3.26232e-10 0)
(7.7583e-20 -3.96389e-10 0)
(1.08716e-19 2.90737e-10 0)
(1.39949e-19 -4.32884e-10 0)
(1.71311e-19 2.54304e-10 0)
(2.02828e-19 -4.6942e-10 0)
(2.34529e-19 2.16667e-10 0)
(2.66441e-19 -5.06619e-10 0)
(2.9859e-19 1.77961e-10 0)
(3.31004e-19 -5.44352e-10 0)
(3.63708e-19 1.38119e-10 0)
(3.96727e-19 -5.82561e-10 0)
(4.30085e-19 9.70638e-11 0)
(4.63806e-19 -6.21178e-10 0)
(4.97914e-19 5.47144e-11 0)
(5.32429e-19 -6.60129e-10 0)
(5.67374e-19 1.09834e-11 0)
(6.02767e-19 -6.99337e-10 0)
(6.38628e-19 -3.42173e-11 0)
(6.74974e-19 -7.38723e-10 0)
(7.11822e-19 -8.0975e-11 0)
(7.49185e-19 -7.78209e-10 0)
(7.87078e-19 -1.29373e-10 0)
(8.25513e-19 -8.17723e-10 0)
(8.64499e-19 -1.79487e-10 0)
(9.04045e-19 -8.572e-10 0)
(9.44157e-19 -2.31386e-10 0)
(9.84841e-19 -8.96587e-10 0)
(1.0261e-18 -2.85126e-10 0)
(1.06793e-18 -9.35844e-10 0)
(1.11033e-18 -3.40747e-10 0)
(1.15331e-18 -9.74945e-10 0)
(1.19684e-18 -3.98272e-10 0)
(1.24093e-18 -1.01388e-09 0)
(1.28557e-18 -4.57703e-10 0)
(1.32961e-18 -1.05267e-09 0)
(1.37417e-18 -5.1902e-10 0)
(1.41922e-18 -1.09133e-09 0)
(1.46475e-18 -5.82178e-10 0)
(1.51073e-18 -1.12993e-09 0)
(1.55713e-18 -6.4711e-10 0)
(1.60392e-18 -1.16853e-09 0)
(1.65108e-18 -7.13729e-10 0)
(1.69856e-18 -1.20722e-09 0)
(1.74634e-18 -7.81923e-10 0)
(1.79436e-18 -1.24612e-09 0)
(1.84259e-18 -8.51561e-10 0)
(1.89098e-18 -1.28535e-09 0)
(1.93948e-18 -9.22499e-10 0)
(1.98804e-18 -1.32504e-09 0)
(2.03661e-18 -9.9458e-10 0)
(2.08513e-18 -1.36533e-09 0)
(2.13354e-18 -1.06765e-09 0)
(2.18179e-18 -1.40635e-09 0)
(2.22981e-18 -1.14154e-09 0)
(2.27754e-18 -1.4482e-09 0)
(2.32493e-18 -1.21615e-09 0)
(2.37191e-18 -1.49095e-09 0)
(2.41896e-18 -1.29136e-09 0)
(2.46547e-18 -1.53462e-09 0)
(2.51135e-18 -1.36717e-09 0)
(2.55652e-18 -1.57911e-09 0)
(2.60093e-18 -1.44366e-09 0)
(2.64448e-18 -1.62419e-09 0)
(2.6871e-18 -1.52108e-09 0)
(2.72873e-18 -1.66941e-09 0)
(2.76928e-18 -1.59989e-09 0)
(2.8087e-18 -1.71404e-09 0)
(2.8469e-18 -1.68089e-09 0)
(2.88382e-18 -1.75693e-09 0)
(2.91939e-18 -1.76529e-09 0)
(2.95354e-18 -1.79646e-09 0)
(2.9862e-18 -1.85474e-09 0)
(3.01732e-18 -1.8305e-09 0)
(3.04683e-18 -1.95119e-09 0)
(3.07467e-18 -1.85676e-09 0)
(3.10079e-18 -2.05619e-09 0)
(3.12513e-18 -1.87403e-09 0)
(3.14764e-18 -2.1686e-09 0)
(3.16828e-18 -1.88593e-09 0)
(3.187e-18 -2.27806e-09 0)
(3.20377e-18 -1.91176e-09 0)
(3.21854e-18 -2.34699e-09 0)
(3.23128e-18 -2.01695e-09 0)
(3.24197e-18 -2.25968e-09 0)
(3.25058e-18 -2.40329e-09 0)
(3.25709e-18 -1.66936e-09 0)
(3.26148e-18 -3.69956e-09 0)
(3.26374e-18 5.38805e-10 0)
(3.2646e-18 -1.55513e-08 0)
(3.26601e-18 -1.9469e-08 0)
(3.2663e-18 -2.07304e-08 0)
(2.23453e-18 -0.000146639 0)
(1.12046e-18 -0.000213433 0)
(6.88369e-19 -0.000225492 0)
(5.79753e-19 -0.000227386 0)
(5.54041e-19 -0.000227713 0)
(5.47451e-19 -0.000227779 0)
(5.45508e-19 -0.000227795 0)
(5.44825e-19 -0.0002278 0)
(5.44527e-19 -0.000227802 0)
(5.44365e-19 -0.000227803 0)
(5.44257e-19 -0.000227803 0)
(5.44174e-19 -0.000227804 0)
(5.44106e-19 -0.000227804 0)
(5.4405e-19 -0.000227804 0)
(5.44001e-19 -0.000227804 0)
(5.43959e-19 -0.000227804 0)
(5.43923e-19 -0.000227804 0)
(5.43893e-19 -0.000227804 0)
(5.43866e-19 -0.000227804 0)
(5.43844e-19 -0.000227803 0)
(5.43824e-19 -0.000227803 0)
(5.43803e-19 -0.000227802 0)
(5.43771e-19 -0.000227801 0)
(5.43691e-19 -0.000227795 0)
(5.43345e-19 -0.000227769 0)
(5.40983e-19 -0.000227545 0)
(5.12943e-19 -0.000223473 0)
)
;

boundaryField
{
    inlet
    {
        type            cyclic;
    }
    outlet
    {
        type            cyclic;
    }
    top
    {
        type            fixedValue;
        value           uniform (0 0 0);
    }
    bottom
    {
        type            fixedValue;
        value           uniform (0 0 0);
    }
    frontAndBackPlanes
    {
        type            empty;
    }
}


// ************************************************************************* //
