/*--------------------------------*- C++ -*----------------------------------*\
| =========                 |                                                 |
| \\      /  F ield         | OpenFOAM: The Open Source CFD Toolbox           |
|  \\    /   O peration     | Version:  2206                                  |
|   \\  /    A nd           | Website:  www.openfoam.com                      |
|    \\/     M anipulation  |                                                 |
\*---------------------------------------------------------------------------*/
FoamFile
{
    version     2.0;
    format      ascii;
    arch        "LSB;label=32;scalar=64";
    class       volVectorField;
    location    "1780";
    object      U.b;
}
// * * * * * * * * * * * * * * * * * * * * * * * * * * * * * * * * * * * * * //

dimensions      [0 1 -1 0 0 0 0];

internalField   nonuniform List<vector> 
120
(
(1.55007e-20 1.53504e-08 0)
(4.65205e-20 4.19479e-10 0)
(7.75831e-20 -2.91547e-10 0)
(1.08716e-19 4.35403e-10 0)
(1.39949e-19 -2.36393e-10 0)
(1.71311e-19 4.94257e-10 0)
(2.02828e-19 -1.71184e-10 0)
(2.34529e-19 5.49711e-10 0)
(2.6644e-19 -1.14345e-10 0)
(2.9859e-19 6.06081e-10 0)
(3.31004e-19 -5.60413e-11 0)
(3.63707e-19 6.63319e-10 0)
(3.96727e-19 3.78976e-12 0)
(4.30085e-19 7.21361e-10 0)
(4.63806e-19 6.52237e-11 0)
(4.97914e-19 7.80135e-10 0)
(5.32429e-19 1.28342e-10 0)
(5.67374e-19 8.39567e-10 0)
(6.02767e-19 1.93232e-10 0)
(6.38628e-19 8.99579e-10 0)
(6.74974e-19 2.59976e-10 0)
(7.11822e-19 9.6009e-10 0)
(7.49185e-19 3.28654e-10 0)
(7.87072e-19 1.02102e-09 0)
(8.25513e-19 3.99343e-10 0)
(8.64499e-19 1.08231e-09 0)
(9.04049e-19 4.72109e-10 0)
(9.44157e-19 1.14389e-09 0)
(9.84841e-19 5.47011e-10 0)
(1.02611e-18 1.2057e-09 0)
(1.06794e-18 6.2409e-10 0)
(1.11033e-18 1.26772e-09 0)
(1.15331e-18 7.03374e-10 0)
(1.19684e-18 1.32992e-09 0)
(1.24093e-18 7.84866e-10 0)
(1.28555e-18 1.3923e-09 0)
(1.3296e-18 8.6855e-10 0)
(1.37418e-18 1.45487e-09 0)
(1.41921e-18 9.54386e-10 0)
(1.46477e-18 1.51765e-09 0)
(1.51071e-18 1.04231e-09 0)
(1.55714e-18 1.5807e-09 0)
(1.60392e-18 1.13223e-09 0)
(1.65108e-18 1.64409e-09 0)
(1.69855e-18 1.22403e-09 0)
(1.74637e-18 1.7079e-09 0)
(1.79436e-18 1.31758e-09 0)
(1.8426e-18 1.77223e-09 0)
(1.89094e-18 1.41273e-09 0)
(1.93948e-18 1.83718e-09 0)
(1.98804e-18 1.50931e-09 0)
(2.03661e-18 1.90287e-09 0)
(2.08513e-18 1.60713e-09 0)
(2.13354e-18 1.96939e-09 0)
(2.18177e-18 1.70601e-09 0)
(2.22981e-18 2.03683e-09 0)
(2.27754e-18 1.8058e-09 0)
(2.32493e-18 2.10524e-09 0)
(2.37195e-18 1.90632e-09 0)
(2.41896e-18 2.17463e-09 0)
(2.46547e-18 2.0075e-09 0)
(2.51135e-18 2.24489e-09 0)
(2.55652e-18 2.1093e-09 0)
(2.60093e-18 2.31581e-09 0)
(2.64452e-18 2.21183e-09 0)
(2.68705e-18 2.38698e-09 0)
(2.72873e-18 2.31535e-09 0)
(2.76928e-18 2.45773e-09 0)
(2.8087e-18 2.42039e-09 0)
(2.8469e-18 2.52704e-09 0)
(2.88387e-18 2.52781e-09 0)
(2.91939e-18 2.59339e-09 0)
(2.95354e-18 2.63884e-09 0)
(2.9862e-18 2.65479e-09 0)
(3.01732e-18 2.75502e-09 0)
(3.04683e-18 2.70885e-09 0)
(3.07467e-18 2.87773e-09 0)
(3.10079e-18 2.75357e-09 0)
(3.12513e-18 3.00661e-09 0)
(3.14764e-18 2.78983e-09 0)
(3.16828e-18 3.13511e-09 0)
(3.187e-18 2.82855e-09 0)
(3.20377e-18 3.23801e-09 0)
(3.21854e-18 2.9112e-09 0)
(3.23128e-18 3.23682e-09 0)
(3.2421e-18 3.16968e-09 0)
(3.25058e-18 2.89815e-09 0)
(3.25709e-18 4.01581e-09 0)
(3.26148e-18 1.47504e-09 0)
(3.26374e-18 4.17077e-09 0)
(3.26377e-18 -1.56433e-09 0)
(3.21825e-18 1.18065e-08 0)
(3.12055e-18 1.57135e-09 0)
(3.02152e-18 2.36375e-11 0)
(2.92119e-18 -1.75668e-10 0)
(2.81957e-18 -2.03367e-11 0)
(2.71667e-18 1.01527e-11 0)
(2.61248e-18 2.94765e-12 0)
(2.50703e-18 -3.68903e-13 0)
(2.40031e-18 -2.65461e-13 0)
(2.29236e-18 -3.31571e-15 0)
(2.1832e-18 1.86006e-14 0)
(2.07284e-18 -3.50085e-15 0)
(1.96133e-18 -9.09093e-15 0)
(1.84869e-18 -5.52874e-15 0)
(1.73497e-18 -1.38817e-15 0)
(1.62021e-18 2.22911e-15 0)
(1.50446e-18 5.30584e-15 0)
(1.38777e-18 6.0722e-15 0)
(1.2702e-18 4.17742e-15 0)
(1.15181e-18 1.77835e-16 0)
(1.03266e-18 -4.77932e-15 0)
(9.12834e-19 -7.31201e-15 0)
(7.92392e-19 -5.35627e-15 0)
(6.71413e-19 -1.02426e-17 0)
(5.49975e-19 5.60205e-15 0)
(4.28157e-19 7.84882e-15 0)
(3.06042e-19 4.74871e-15 0)
(1.83713e-19 -2.43591e-15 0)
(6.12561e-20 -6.34441e-15 0)
)
;

boundaryField
{
    inlet
    {
        type            cyclic;
    }
    outlet
    {
        type            cyclic;
    }
    top
    {
        type            fixedValue;
        value           uniform (0 0 0);
    }
    bottom
    {
        type            fixedValue;
        value           uniform (0 0 0);
    }
    frontAndBackPlanes
    {
        type            empty;
    }
}


// ************************************************************************* //
