/*--------------------------------*- C++ -*----------------------------------*\
| =========                 |                                                 |
| \\      /  F ield         | OpenFOAM: The Open Source CFD Toolbox           |
|  \\    /   O peration     | Version:  v2006                                 |
|   \\  /    A nd           | Website:  www.openfoam.com                      |
|    \\/     M anipulation  |                                                 |
\*---------------------------------------------------------------------------*/
FoamFile
{
    version     2.0;
    format      ascii;
    class       volScalarField;
    location    "260";
    object      p;
}
// * * * * * * * * * * * * * * * * * * * * * * * * * * * * * * * * * * * * * //

dimensions      [1 -1 -2 0 0 0 0];


internalField   nonuniform List<scalar> 
120
(
19.3917
14.7303
10.067
5.40184
0.734565
-3.93497
-8.60695
-13.2816
-17.9591
-22.6398
-27.3239
-32.0116
-36.7035
-41.4
-46.1011
-50.8081
-55.5269
-60.2827
-65.0506
-69.9594
-74.87
-79.7771
-84.6829
-89.5882
-94.4933
-99.3983
-104.303
-109.208
-114.113
-119.018
-123.923
-128.828
-133.733
-138.638
-143.543
-148.448
-153.353
-158.258
-163.163
-168.068
-172.973
-177.878
-182.783
-187.688
-192.593
-197.498
-202.403
-207.308
-212.213
-217.118
-222.023
-226.928
-231.833
-236.738
-241.643
-246.548
-251.453
-256.358
-261.263
-266.168
-271.073
-275.978
-280.883
-285.788
-290.693
-295.598
-300.503
-305.408
-310.313
-315.218
-320.123
-325.028
-329.933
-334.838
-339.743
-344.648
-349.553
-354.458
-359.363
-364.268
-369.173
-374.078
-378.983
-383.888
-388.793
-393.698
-398.603
-403.508
-408.413
-413.318
-418.223
-423.128
-428.033
-432.938
-437.843
-442.748
-447.653
-452.558
-457.463
-462.368
-467.273
-472.178
-477.085
-481.997
-486.896
-491.601
-496.265
-500.924
-505.583
-510.243
-514.902
-519.562
-524.222
-528.882
-533.541
-538.201
-542.861
-547.521
-552.18
-556.84
)
;

boundaryField
{
    inlet
    {
        type            cyclic;
    }
    outlet
    {
        type            cyclic;
    }
    top
    {
        type            calculated;
        value           uniform -559.17;
    }
    bottom
    {
        type            calculated;
        value           uniform 21.7216;
    }
    frontAndBackPlanes
    {
        type            empty;
    }
}


// ************************************************************************* //
