/*--------------------------------*- C++ -*----------------------------------*\
| =========                 |                                                 |
| \\      /  F ield         | OpenFOAM: The Open Source CFD Toolbox           |
|  \\    /   O peration     | Version:  v2006                                 |
|   \\  /    A nd           | Website:  www.openfoam.com                      |
|    \\/     M anipulation  |                                                 |
\*---------------------------------------------------------------------------*/
FoamFile
{
    version     2.0;
    format      ascii;
    class       volScalarField;
    location    "260";
    object      p_rbgh;
}
// * * * * * * * * * * * * * * * * * * * * * * * * * * * * * * * * * * * * * //

dimensions      [1 -1 -2 0 0 0 0];


internalField   nonuniform List<scalar> 
120
(
21.7216
21.7199
21.7164
21.711
21.7034
21.6937
21.6814
21.6665
21.6487
21.6278
21.6035
21.5755
21.5434
21.5066
21.4652
21.4181
21.359
21.263
21.1548
20.9058
20.6549
20.4075
20.1615
19.916
19.6706
19.4253
19.1801
18.9348
18.6896
18.4443
18.1991
17.9538
17.7086
17.4633
17.2181
16.9728
16.7276
16.4823
16.2371
15.9918
15.7466
15.5013
15.2561
15.0108
14.7656
14.5203
14.2751
14.0298
13.7846
13.5393
13.2941
13.0488
12.8036
12.5583
12.3131
12.0678
11.8226
11.5773
11.3321
11.0868
10.8416
10.5963
10.3511
10.1058
9.86055
9.6153
9.37005
9.1248
8.87955
8.6343
8.38905
8.1438
7.89855
7.6533
7.40805
7.1628
6.91755
6.6723
6.42705
6.1818
5.93655
5.6913
5.44605
5.2008
4.95555
4.7103
4.46505
4.2198
3.97455
3.7293
3.48405
3.2388
2.99355
2.7483
2.50305
2.2578
2.01255
1.7673
1.52205
1.27682
1.03145
0.786798
0.539222
0.286797
0.047741
0.00297901
-0.00144978
-0.000428016
7.83078e-06
3.39792e-05
7.96273e-07
-2.63194e-06
-1.62895e-07
2.07952e-07
2.96496e-08
-7.99557e-09
4.49878e-09
8.05364e-09
6.86905e-09
4.86546e-09
)
;

boundaryField
{
    inlet
    {
        type            cyclic;
    }
    outlet
    {
        type            cyclic;
    }
    top
    {
        type            fixedValue;
        value           uniform 0;
    }
    bottom
    {
        type            fixedFluxPressure;
        gradient        uniform 0;
        value           uniform 21.7216;
    }
    frontAndBackPlanes
    {
        type            empty;
    }
}


// ************************************************************************* //
