/*--------------------------------*- C++ -*----------------------------------*\
| =========                 |                                                 |
| \\      /  F ield         | OpenFOAM: The Open Source CFD Toolbox           |
|  \\    /   O peration     | Version:  v2006                                 |
|   \\  /    A nd           | Website:  www.openfoam.com                      |
|    \\/     M anipulation  |                                                 |
\*---------------------------------------------------------------------------*/
FoamFile
{
    version     2.0;
    format      ascii;
    class       surfaceScalarField;
    location    "260";
    object      phia;
}
// * * * * * * * * * * * * * * * * * * * * * * * * * * * * * * * * * * * * * //

dimensions      [0 3 -1 0 0 0 0];
oriented        oriented;


internalField   nonuniform List<scalar> 
119
(
-4.70376e-15
-9.74527e-15
-1.51909e-14
-2.11138e-14
-2.75862e-14
-3.46784e-14
-4.2457e-14
-5.09863e-14
-6.03371e-14
-7.06159e-14
-8.20365e-14
-9.50551e-14
-1.10193e-13
-1.25848e-13
-1.45921e-13
-1.86158e-13
-3.09264e-13
-4.6103e-13
-1.60058e-12
-2.0489e-12
-2.21369e-12
-2.28056e-12
-2.30719e-12
-2.31736e-12
-2.32118e-12
-2.32257e-12
-2.32305e-12
-2.32322e-12
-2.32327e-12
-2.32329e-12
-2.32329e-12
-2.32329e-12
-2.3233e-12
-2.3233e-12
-2.3233e-12
-2.3233e-12
-2.3233e-12
-2.3233e-12
-2.3233e-12
-2.3233e-12
-2.3233e-12
-2.3233e-12
-2.3233e-12
-2.32331e-12
-2.32331e-12
-2.32331e-12
-2.32331e-12
-2.32331e-12
-2.32331e-12
-2.32331e-12
-2.32331e-12
-2.32331e-12
-2.32331e-12
-2.32331e-12
-2.32331e-12
-2.32331e-12
-2.32331e-12
-2.32331e-12
-2.32331e-12
-2.32331e-12
-2.32331e-12
-2.32331e-12
-2.32331e-12
-2.32331e-12
-2.32331e-12
-2.32331e-12
-2.32331e-12
-2.32331e-12
-2.32331e-12
-2.32331e-12
-2.32331e-12
-2.32331e-12
-2.32331e-12
-2.32331e-12
-2.32331e-12
-2.32331e-12
-2.32331e-12
-2.32331e-12
-2.32331e-12
-2.32331e-12
-2.32331e-12
-2.32331e-12
-2.32331e-12
-2.32331e-12
-2.32331e-12
-2.32331e-12
-2.32331e-12
-2.32332e-12
-2.32332e-12
-2.32332e-12
-2.32332e-12
-2.32332e-12
-2.32332e-12
-2.32332e-12
-2.32331e-12
-2.32333e-12
-2.32329e-12
-2.32333e-12
-2.3243e-12
-2.3171e-12
-2.34288e-12
-2.28769e-12
-2.3631e-12
-4.23326e-12
-3.60494e-11
-1.50475e-11
-8.9176e-11
-8.2259e-11
-8.2278e-11
-8.22718e-11
-8.2276e-11
-8.2277e-11
-8.22766e-11
-8.22766e-11
-8.22766e-11
-8.22766e-11
-8.22765e-11
-8.22565e-11
-8.21697e-11
)
;

boundaryField
{
    inlet
    {
        type            cyclic;
        value           nonuniform List<scalar> 
120
(
1.26396e-28
3.7832e-28
6.28284e-28
9.05645e-28
1.17892e-27
1.44738e-27
1.71053e-27
2.02965e-27
2.34255e-27
2.58592e-27
2.82098e-27
3.046e-27
3.19335e-27
3.33191e-27
3.47683e-27
3.75692e-27
4.9974e-27
1.39295e-26
1.56098e-25
9.24859e-25
1.58139e-24
2.49555e-24
3.70486e-24
5.19773e-24
2.13139e-24
-9.34106e-25
-4.26702e-24
-5.75652e-24
-8.00399e-24
-1.11776e-23
-1.06054e-23
-6.20475e-24
-2.49781e-24
7.98361e-25
3.94909e-24
7.1811e-24
5.8769e-24
-8.68157e-27
-1.12833e-24
-7.21378e-24
-4.21209e-24
-6.55575e-24
-4.84753e-24
-3.90487e-24
-3.67605e-24
-8.86682e-24
-5.12283e-24
-1.76762e-24
6.25164e-24
4.94917e-24
4.01502e-24
3.53396e-24
3.5519e-24
4.02521e-24
4.84304e-24
1.05634e-24
-2.86326e-24
-7.2215e-24
-1.23175e-23
-8.86149e-24
-6.42115e-24
-4.94825e-24
-4.3609e-24
-4.53265e-24
-5.37332e-24
2.7398e-24
8.99134e-25
-1.40643e-24
-4.31744e-24
-7.96767e-24
-1.25248e-23
-8.58463e-24
-5.61529e-24
-3.48808e-24
-2.06388e-24
-1.18656e-24
-7.19524e-25
-5.75008e-25
-7.34962e-25
-1.26556e-24
-2.32603e-24
-4.16822e-24
-7.11938e-24
-1.15421e-23
-1.77727e-23
-2.61375e-23
-1.77722e-23
-1.15406e-23
-7.11536e-24
-4.15777e-24
-2.29999e-24
-1.20382e-24
-5.96165e-25
-2.79451e-25
-1.24079e-25
-5.22363e-26
-2.08747e-26
-7.9284e-27
-2.86616e-27
-9.87252e-28
-3.24284e-28
-1.02439e-28
-3.05763e-29
-1.01115e-29
-4.68755e-30
-4.1206e-30
-3.26224e-30
-2.58064e-30
-2.04106e-30
-1.61461e-30
-1.2763e-30
-1.00708e-30
-7.91841e-31
-6.18541e-31
-4.77641e-31
-3.61442e-31
-2.6375e-31
-1.79407e-31
-1.04084e-31
-3.39665e-32
)
;
    }
    outlet
    {
        type            cyclic;
        value           nonuniform List<scalar> 
120
(
-1.26396e-28
-3.7832e-28
-6.28284e-28
-9.05645e-28
-1.17892e-27
-1.44738e-27
-1.71053e-27
-2.02965e-27
-2.34255e-27
-2.58592e-27
-2.82098e-27
-3.046e-27
-3.19335e-27
-3.33191e-27
-3.47683e-27
-3.75692e-27
-4.9974e-27
-1.39295e-26
-1.56098e-25
-9.24859e-25
-1.58139e-24
-2.49555e-24
-3.70486e-24
-5.19773e-24
-2.13139e-24
9.34106e-25
4.26702e-24
5.75652e-24
8.00399e-24
1.11776e-23
1.06054e-23
6.20475e-24
2.49781e-24
-7.98361e-25
-3.94909e-24
-7.1811e-24
-5.8769e-24
8.68157e-27
1.12833e-24
7.21378e-24
4.21209e-24
6.55575e-24
4.84753e-24
3.90487e-24
3.67605e-24
8.86682e-24
5.12283e-24
1.76762e-24
-6.25164e-24
-4.94917e-24
-4.01502e-24
-3.53396e-24
-3.5519e-24
-4.02521e-24
-4.84304e-24
-1.05634e-24
2.86326e-24
7.2215e-24
1.23175e-23
8.86149e-24
6.42115e-24
4.94825e-24
4.3609e-24
4.53265e-24
5.37332e-24
-2.7398e-24
-8.99134e-25
1.40643e-24
4.31744e-24
7.96767e-24
1.25248e-23
8.58463e-24
5.61529e-24
3.48808e-24
2.06388e-24
1.18656e-24
7.19524e-25
5.75008e-25
7.34962e-25
1.26556e-24
2.32603e-24
4.16822e-24
7.11938e-24
1.15421e-23
1.77727e-23
2.61375e-23
1.77722e-23
1.15406e-23
7.11536e-24
4.15777e-24
2.29999e-24
1.20382e-24
5.96165e-25
2.79451e-25
1.24079e-25
5.22363e-26
2.08747e-26
7.9284e-27
2.86616e-27
9.87252e-28
3.24284e-28
1.02439e-28
3.05763e-29
1.01115e-29
4.68755e-30
4.1206e-30
3.26224e-30
2.58064e-30
2.04106e-30
1.61461e-30
1.2763e-30
1.00708e-30
7.91841e-31
6.18541e-31
4.77641e-31
3.61442e-31
2.6375e-31
1.79407e-31
1.04084e-31
3.39665e-32
)
;
    }
    top
    {
        type            fixedValue;
        value           uniform 0;
    }
    bottom
    {
        type            fixedValue;
        value           uniform 0;
    }
    frontAndBackPlanes
    {
        type            empty;
        value           nonuniform List<scalar> 0();
    }
}


// ************************************************************************* //
