/*--------------------------------*- C++ -*----------------------------------*\
| =========                 |                                                 |
| \\      /  F ield         | OpenFOAM: The Open Source CFD Toolbox           |
|  \\    /   O peration     | Version:  v2006                                 |
|   \\  /    A nd           | Website:  www.openfoam.com                      |
|    \\/     M anipulation  |                                                 |
\*---------------------------------------------------------------------------*/
FoamFile
{
    version     2.0;
    format      ascii;
    class       surfaceScalarField;
    location    "260";
    object      phib;
}
// * * * * * * * * * * * * * * * * * * * * * * * * * * * * * * * * * * * * * //

dimensions      [0 3 -1 0 0 0 0];
oriented        oriented;


internalField   nonuniform List<scalar> 
119
(
6.85243e-15
1.41813e-14
2.20794e-14
3.06494e-14
3.99902e-14
5.01981e-14
6.13602e-14
7.35606e-14
8.68859e-14
1.01471e-13
1.17591e-13
1.35857e-13
1.56945e-13
1.78498e-13
2.05962e-13
2.61323e-13
4.31166e-13
5.94409e-13
1.8145e-12
2.15167e-12
2.25633e-12
2.29754e-12
2.31365e-12
2.31976e-12
2.32205e-12
2.32288e-12
2.32317e-12
2.32327e-12
2.3233e-12
2.32331e-12
2.32332e-12
2.32332e-12
2.32332e-12
2.32332e-12
2.32332e-12
2.32331e-12
2.32331e-12
2.32331e-12
2.32331e-12
2.32331e-12
2.32331e-12
2.32331e-12
2.32331e-12
2.32331e-12
2.32331e-12
2.32331e-12
2.32331e-12
2.32331e-12
2.32331e-12
2.32331e-12
2.32331e-12
2.32331e-12
2.32331e-12
2.32331e-12
2.32331e-12
2.32331e-12
2.32331e-12
2.32331e-12
2.32331e-12
2.32331e-12
2.32331e-12
2.32331e-12
2.32331e-12
2.32331e-12
2.32331e-12
2.32331e-12
2.32331e-12
2.32331e-12
2.32331e-12
2.32331e-12
2.32331e-12
2.32331e-12
2.32331e-12
2.32331e-12
2.32331e-12
2.32331e-12
2.32331e-12
2.32331e-12
2.32331e-12
2.32331e-12
2.32331e-12
2.32331e-12
2.32331e-12
2.32331e-12
2.32331e-12
2.32331e-12
2.32331e-12
2.32332e-12
2.32332e-12
2.32332e-12
2.32332e-12
2.32332e-12
2.32332e-12
2.32332e-12
2.32331e-12
2.32333e-12
2.32331e-12
2.3233e-12
2.32391e-12
2.31958e-12
2.33614e-12
2.29448e-12
2.31274e-12
3.20432e-12
8.37855e-12
9.23172e-15
2.96641e-16
7.44726e-18
9.09894e-18
1.1048e-17
1.23322e-17
1.43033e-17
1.5709e-17
1.77579e-17
1.8543e-17
1.96875e-17
1.94964e-17
1.97666e-17
1.85885e-17
)
;

boundaryField
{
    inlet
    {
        type            cyclic;
        value           nonuniform List<scalar> 
120
(
1.26396e-28
3.78237e-28
6.10188e-28
9.05562e-28
1.17892e-27
1.44686e-27
1.59824e-27
2.02989e-27
2.5046e-27
2.58669e-27
2.8222e-27
3.30336e-27
3.19458e-27
3.33192e-27
3.47719e-27
3.76034e-27
5.0369e-27
1.47597e-26
1.63305e-25
9.24855e-25
1.5814e-24
2.49556e-24
3.70487e-24
5.1759e-24
2.13139e-24
-9.34114e-25
-4.25611e-24
-5.75655e-24
-8.00402e-24
-1.11557e-23
-1.05836e-23
-6.20478e-24
-2.49783e-24
7.98354e-25
3.94909e-24
7.15923e-24
5.85504e-24
1.31835e-26
-1.1502e-24
-7.17006e-24
-4.23397e-24
-6.53391e-24
-4.84756e-24
-3.9049e-24
-3.69794e-24
-8.8231e-24
-5.12283e-24
-1.74576e-24
6.20791e-24
4.94918e-24
4.01504e-24
3.53398e-24
3.55192e-24
4.02522e-24
4.82118e-24
1.05633e-24
-2.86328e-24
-7.22152e-24
-1.22738e-23
-8.86153e-24
-6.42119e-24
-4.94829e-24
-4.36093e-24
-4.53267e-24
-5.32961e-24
2.69604e-24
8.9911e-25
-1.40645e-24
-4.31746e-24
-7.96769e-24
-1.24811e-23
-8.58467e-24
-5.61533e-24
-3.48811e-24
-2.0639e-24
-1.18658e-24
-7.19537e-25
-5.7502e-25
-7.34977e-25
-1.26558e-24
-2.32606e-24
-4.16827e-24
-7.11944e-24
-1.15422e-23
-1.77727e-23
-2.60501e-23
-1.77722e-23
-1.15407e-23
-7.11542e-24
-4.15781e-24
-2.30002e-24
-1.20384e-24
-5.96176e-25
-2.79458e-25
-1.24082e-25
-5.22379e-26
-2.08755e-26
-7.92871e-27
-2.86629e-27
-9.87301e-28
-3.24302e-28
-1.02445e-28
-3.05782e-29
-1.01121e-29
-4.68798e-30
-4.12024e-30
-3.26081e-30
-2.57983e-30
-2.04117e-30
-1.61468e-30
-1.27635e-30
-1.00713e-30
-7.91871e-31
-6.18572e-31
-4.7766e-31
-3.61462e-31
-2.63759e-31
-1.79418e-31
-1.04094e-31
-3.39709e-32
)
;
    }
    outlet
    {
        type            cyclic;
        value           nonuniform List<scalar> 
120
(
-1.26396e-28
-3.78237e-28
-6.10188e-28
-9.05562e-28
-1.17892e-27
-1.44686e-27
-1.59824e-27
-2.02989e-27
-2.5046e-27
-2.58669e-27
-2.8222e-27
-3.30336e-27
-3.19458e-27
-3.33192e-27
-3.47719e-27
-3.76034e-27
-5.0369e-27
-1.47597e-26
-1.63305e-25
-9.24855e-25
-1.5814e-24
-2.49556e-24
-3.70487e-24
-5.1759e-24
-2.13139e-24
9.34114e-25
4.25611e-24
5.75655e-24
8.00402e-24
1.11557e-23
1.05836e-23
6.20478e-24
2.49783e-24
-7.98354e-25
-3.94909e-24
-7.15923e-24
-5.85504e-24
-1.31835e-26
1.1502e-24
7.17006e-24
4.23397e-24
6.53391e-24
4.84756e-24
3.9049e-24
3.69794e-24
8.8231e-24
5.12283e-24
1.74576e-24
-6.20791e-24
-4.94918e-24
-4.01504e-24
-3.53398e-24
-3.55192e-24
-4.02522e-24
-4.82118e-24
-1.05633e-24
2.86328e-24
7.22152e-24
1.22738e-23
8.86153e-24
6.42119e-24
4.94829e-24
4.36093e-24
4.53267e-24
5.32961e-24
-2.69604e-24
-8.9911e-25
1.40645e-24
4.31746e-24
7.96769e-24
1.24811e-23
8.58467e-24
5.61533e-24
3.48811e-24
2.0639e-24
1.18658e-24
7.19537e-25
5.7502e-25
7.34977e-25
1.26558e-24
2.32606e-24
4.16827e-24
7.11944e-24
1.15422e-23
1.77727e-23
2.60501e-23
1.77722e-23
1.15407e-23
7.11542e-24
4.15781e-24
2.30002e-24
1.20384e-24
5.96176e-25
2.79458e-25
1.24082e-25
5.22379e-26
2.08755e-26
7.92871e-27
2.86629e-27
9.87301e-28
3.24302e-28
1.02445e-28
3.05782e-29
1.01121e-29
4.68798e-30
4.12024e-30
3.26081e-30
2.57983e-30
2.04117e-30
1.61468e-30
1.27635e-30
1.00713e-30
7.91871e-31
6.18572e-31
4.7766e-31
3.61462e-31
2.63759e-31
1.79418e-31
1.04094e-31
3.39709e-32
)
;
    }
    top
    {
        type            fixedValue;
        value           uniform 0;
    }
    bottom
    {
        type            fixedValue;
        value           uniform 0;
    }
    frontAndBackPlanes
    {
        type            empty;
        value           nonuniform List<scalar> 0();
    }
}


// ************************************************************************* //
