/*--------------------------------*- C++ -*----------------------------------*\
| =========                 |                                                 |
| \\      /  F ield         | OpenFOAM: The Open Source CFD Toolbox           |
|  \\    /   O peration     | Version:  v2006                                 |
|   \\  /    A nd           | Website:  www.openfoam.com                      |
|    \\/     M anipulation  |                                                 |
\*---------------------------------------------------------------------------*/
FoamFile
{
    version     2.0;
    format      ascii;
    class       volTensorField;
    location    "260";
    object      Taua;
}
// * * * * * * * * * * * * * * * * * * * * * * * * * * * * * * * * * * * * * //

dimensions      [1 -1 -2 0 0 0 0];


internalField   nonuniform List<tensor> 
120
(
(0.00918468 0 0 -1.76651e-15 -0.0183694 0 0 0 0.00918468)
(0.00976219 0 0 -1.75661e-15 -0.0195244 0 0 0 0.00976219)
(0.0105869 0 0 -1.84564e-15 -0.0211738 0 0 0 0.0105869)
(0.0115185 0 0 -1.92723e-15 -0.0230371 0 0 0 0.0115185)
(0.0125831 0 0 -1.89608e-15 -0.0251661 0 0 0 0.0125831)
(0.0137864 0 0 -1.86062e-15 -0.0275728 0 0 0 0.0137864)
(0.0151208 0 0 -2.03795e-15 -0.0302416 0 0 0 0.0151208)
(0.0165787 0 0 -2.21209e-15 -0.0331574 0 0 0 0.0165787)
(0.0181612 0 0 -1.94693e-15 -0.0363224 0 0 0 0.0181612)
(0.0199479 0 0 -1.67448e-15 -0.0398957 0 0 0 0.0199479)
(0.0222872 0 0 -1.61028e-15 -0.0445743 0 0 0 0.0222872)
(0.025607 0 0 -1.3033e-15 -0.0512141 0 0 0 0.025607)
(0.0290574 0 0 -1.00069e-15 -0.0581147 0 0 0 0.0290574)
(0.0315251 0 0 -9.92194e-16 -0.0630501 0 0 0 0.0315251)
(0.0385555 0 0 -1.48752e-15 -0.0771109 0 0 0 0.0385555)
(0.0290194 0 0 -2.12255e-15 -0.0580388 0 0 0 0.0290194)
(0.0172752 0 0 -2.7612e-15 -0.0345505 0 0 0 0.0172752)
(0.00819255 0 0 -2.36411e-15 -0.0163851 0 0 0 0.00819255)
(3.70465e-07 0 0 -1.73767e-18 -7.4093e-07 0 0 0 3.70465e-07)
(-2.85249e-07 0 0 -2.58212e-18 5.70498e-07 0 0 0 -2.85249e-07)
(4.95543e-07 0 0 -2.78635e-18 -9.91085e-07 0 0 0 4.95543e-07)
(3.44772e-07 0 0 -3.73605e-18 -6.89544e-07 0 0 0 3.44772e-07)
(9.51272e-08 0 0 -4.73846e-18 -1.90254e-07 0 0 0 9.51272e-08)
(3.7328e-08 0 0 2.75565e-18 -7.4656e-08 0 0 0 3.7328e-08)
(1.54014e-08 0 0 1.07336e-17 -3.08028e-08 0 0 0 1.54014e-08)
(5.68305e-09 0 0 1.11983e-17 -1.13661e-08 0 0 0 5.68305e-09)
(2.04648e-09 0 0 8.4395e-18 -4.09296e-09 0 0 0 2.04648e-09)
(7.17822e-10 0 0 6.53976e-18 -1.43564e-09 0 0 0 7.17822e-10)
(2.41923e-10 0 0 9.48686e-18 -4.83846e-10 0 0 0 2.41923e-10)
(7.86568e-11 0 0 4.55246e-18 -1.57314e-10 0 0 0 7.86568e-11)
(2.5648e-11 0 0 -8.70243e-18 -5.12961e-11 0 0 0 2.5648e-11)
(8.00953e-12 0 0 -1.41883e-17 -1.60191e-11 0 0 0 8.00953e-12)
(2.73097e-12 0 0 -1.22555e-17 -5.46194e-12 0 0 0 2.73097e-12)
(7.25846e-13 0 0 -1.12821e-17 -1.45169e-12 0 0 0 7.25846e-13)
(7.49295e-13 0 0 -1.11698e-17 -1.49859e-12 0 0 0 7.49295e-13)
(5.34396e-13 1.17803e-21 0 -3.37367e-18 -1.06879e-12 0 0 0 5.34396e-13)
(9.43271e-13 0 0 1.25821e-17 -1.88654e-12 0 0 0 9.43271e-13)
(9.83055e-13 0 0 1.22592e-17 -1.96611e-12 0 0 0 9.83055e-13)
(1.28158e-12 0 0 1.26089e-17 -2.56315e-12 0 0 0 1.28158e-12)
(1.04114e-12 0 0 5.39658e-18 -2.08227e-12 0 0 0 1.04114e-12)
(9.57861e-13 0 0 -1.15155e-18 -1.91572e-12 0 0 0 9.57861e-13)
(7.04531e-13 0 0 1.11202e-18 -1.40906e-12 0 0 0 7.04531e-13)
(7.39137e-13 0 0 -4.63903e-18 -1.47827e-12 0 0 0 7.39137e-13)
(6.33638e-13 0 0 -2.0501e-18 -1.26728e-12 0 0 0 6.33638e-13)
(6.94126e-13 0 0 8.68341e-18 -1.38825e-12 0 0 0 6.94126e-13)
(6.5275e-13 0 0 2.53186e-18 -1.3055e-12 0 0 0 6.5275e-13)
(6.71623e-13 0 0 -1.24236e-17 -1.34325e-12 0 0 0 6.71623e-13)
(5.70662e-13 0 0 -1.99053e-17 -1.14132e-12 0 0 0 5.70662e-13)
(4.9711e-13 0 0 -1.17544e-17 -9.9422e-13 0 0 0 4.9711e-13)
(3.93877e-13 0 0 3.91409e-18 -7.87754e-13 0 0 0 3.93877e-13)
(3.53444e-13 0 0 2.47662e-18 -7.06888e-13 0 0 0 3.53444e-13)
(2.99967e-13 0 0 8.10458e-19 -5.99934e-13 0 0 0 2.99967e-13)
(2.82495e-13 0 0 -8.59683e-19 -5.6499e-13 0 0 0 2.82495e-13)
(2.53326e-13 0 0 -2.2595e-18 -5.06653e-13 0 0 0 2.53326e-13)
(2.34308e-13 0 0 5.19552e-18 -4.68617e-13 0 0 0 2.34308e-13)
(1.9913e-13 0 0 1.3486e-17 -3.98259e-13 0 0 0 1.9913e-13)
(1.66871e-13 0 0 1.44862e-17 -3.33742e-13 0 0 0 1.66871e-13)
(1.3543e-13 0 0 1.65449e-17 -2.70859e-13 0 0 0 1.3543e-13)
(1.1501e-13 -1.17803e-21 0 2.86999e-18 -2.3002e-13 0 0 0 1.1501e-13)
(9.93652e-14 0 0 -1.03186e-17 -1.9873e-13 0 0 0 9.93652e-14)
(8.88201e-14 0 0 -6.84817e-18 -1.7764e-13 0 0 0 8.88201e-14)
(8.27546e-14 0 0 -3.60544e-18 -1.65509e-13 0 0 0 8.27546e-14)
(7.52749e-14 0 0 -7.27293e-19 -1.5055e-13 0 0 0 7.52749e-14)
(6.96421e-14 0 0 1.77173e-18 -1.39284e-13 0 0 0 6.96421e-14)
(5.67505e-14 0 0 -1.27268e-17 -1.13501e-13 0 0 0 5.67505e-14)
(5.52606e-14 0 0 -1.09768e-17 -1.10521e-13 0 0 0 5.52606e-14)
(4.79644e-14 0 0 7.2559e-18 -9.59289e-14 0 0 0 4.79644e-14)
(5.90004e-14 0 0 9.129e-18 -1.18001e-13 0 0 0 5.90004e-14)
(5.33259e-14 0 0 1.14822e-17 -1.06652e-13 0 0 0 5.33259e-14)
(7.55588e-14 0 0 1.4363e-17 -1.51118e-13 0 0 0 7.55588e-14)
(7.29331e-14 0 0 1.07969e-18 -1.45866e-13 0 0 0 7.29331e-14)
(9.28543e-14 0 0 -1.20917e-17 -1.85709e-13 0 0 0 9.28543e-14)
(5.90757e-14 0 0 -8.91897e-18 -1.18151e-13 0 0 0 5.90757e-14)
(8.8324e-14 0 0 -6.21496e-18 -1.76648e-13 0 0 0 8.8324e-14)
(6.83819e-14 0 0 -4.02765e-18 -1.36764e-13 0 0 0 6.83819e-14)
(1.38505e-13 0 0 -2.35263e-18 -2.7701e-13 0 0 0 1.38505e-13)
(1.01629e-13 0 0 -1.07022e-18 -2.03259e-13 0 0 0 1.01629e-13)
(2.06874e-13 0 0 2.70167e-20 -4.13748e-13 0 0 0 2.06874e-13)
(1.80303e-13 0 0 1.20846e-18 -3.60606e-13 0 0 0 1.80303e-13)
(2.58727e-13 0 0 2.78437e-18 -5.17455e-13 0 0 0 2.58727e-13)
(9.14969e-14 0 0 5.07967e-18 -1.82994e-13 0 0 0 9.14969e-14)
(1.9284e-13 0 0 8.38836e-18 -3.85681e-13 0 0 0 1.9284e-13)
(1.05793e-13 0 0 1.29043e-17 -2.11587e-13 0 0 0 1.05793e-13)
(3.2482e-13 0 0 1.86433e-17 -6.4964e-13 0 0 0 3.2482e-13)
(1.53877e-13 0 0 2.55419e-17 -3.07754e-13 0 0 0 1.53877e-13)
(4.69069e-13 0 0 -8.93457e-22 -9.38137e-13 0 0 0 4.69069e-13)
(3.25025e-13 0 0 -2.55445e-17 -6.50051e-13 0 0 0 3.25025e-13)
(5.86267e-13 0 0 -1.86494e-17 -1.17253e-12 0 0 0 5.86267e-13)
(-2.25545e-13 0 0 -1.292e-17 4.5109e-13 0 0 0 -2.25545e-13)
(6.92662e-13 0 0 -8.42689e-18 -1.38532e-12 0 0 0 6.92662e-13)
(-3.39869e-12 0 0 -5.16939e-18 6.79739e-12 0 0 0 -3.39869e-12)
(1.33351e-11 0 0 -2.98169e-18 -2.66701e-11 0 0 0 1.33351e-11)
(-7.5619e-12 0 0 -1.61765e-18 1.51238e-11 0 0 0 -7.5619e-12)
(-7.56837e-11 0 0 -8.26149e-19 1.51367e-10 0 0 0 -7.56837e-11)
(-6.22589e-11 0 0 -3.97626e-19 1.24518e-10 0 0 0 -6.22589e-11)
(1.31776e-09 0 0 -1.80607e-19 -2.63553e-09 0 0 0 1.31776e-09)
(1.26201e-09 0 0 -7.75387e-20 -2.52401e-09 0 0 0 1.26201e-09)
(-2.38795e-08 0 0 -3.15152e-20 4.7759e-08 0 0 0 -2.38795e-08)
(4.3891e-10 0 0 -1.21467e-20 -8.7782e-10 0 0 0 4.3891e-10)
(3.58672e-07 0 0 -4.44764e-21 -7.17344e-07 0 0 0 3.58672e-07)
(-5.31296e-07 0 0 -1.55031e-21 1.06259e-06 0 0 0 -5.31296e-07)
(-2.84545e-06 0 0 -5.11885e-22 5.69091e-06 0 0 0 -2.84545e-06)
(5.04867e-06 0 0 -1.62713e-22 -1.00973e-05 0 0 0 5.04867e-06)
(5.69983e-05 0 0 -4.40096e-23 -0.000113997 0 0 0 5.69983e-05)
(7.60557e-06 0 0 -7.88304e-24 -1.52111e-05 0 0 0 7.60557e-06)
(-9.57295e-08 0 0 -6.0823e-27 1.91459e-07 0 0 0 -9.57295e-08)
(3.40553e-10 0 0 -3.52104e-29 -6.81106e-10 0 0 0 3.40553e-10)
(2.65361e-17 0 0 -2.51391e-36 -5.30723e-17 0 0 0 2.65361e-17)
(-5.88502e-25 0 0 -5.57027e-43 1.177e-24 0 0 0 -5.88502e-25)
(-2.40358e-31 0 0 -5.05572e-49 4.80716e-31 0 0 0 -2.40358e-31)
(-7.96338e-39 0 0 -5.57315e-55 1.59268e-38 0 0 0 -7.96338e-39)
(2.96512e-44 0 0 -5.02543e-61 -5.93023e-44 0 0 0 2.96512e-44)
(2.11719e-51 0 0 -4.31719e-67 -4.23439e-51 0 0 0 2.11719e-51)
(-9.12485e-54 0 0 -1.31743e-69 1.82497e-53 0 0 0 -9.12485e-54)
(-5.4942e-56 0 0 -5.84906e-71 1.09884e-55 0 0 0 -5.4942e-56)
(1.60737e-57 0 0 -2.20647e-72 -3.21474e-57 0 0 0 1.60737e-57)
(-1.03663e-57 0 0 -6.83849e-74 2.07327e-57 0 0 0 -1.03663e-57)
(-6.7553e-59 0 0 -1.64934e-75 1.35106e-58 0 0 0 -6.7553e-59)
(-9.09397e-60 0 0 -2.79708e-77 1.81879e-59 0 0 0 -9.09397e-60)
(-8.43371e-59 0 0 -2.5503e-79 1.68674e-58 0 0 0 -8.43371e-59)
)
;

boundaryField
{
    inlet
    {
        type            cyclic;
    }
    outlet
    {
        type            cyclic;
    }
    top
    {
        type            extrapolatedCalculated;
        value           uniform (-1.68513e-58 0 0 -2.50994e-79 3.37027e-58 0 0 0 -1.68513e-58);
    }
    bottom
    {
        type            extrapolatedCalculated;
        value           uniform (0.00899696 0 0 -1.76955e-15 -0.0179939 0 0 0 0.00899696);
    }
    frontAndBackPlanes
    {
        type            empty;
    }
}


// ************************************************************************* //
