/*--------------------------------*- C++ -*----------------------------------*\
| =========                 |                                                 |
| \\      /  F ield         | OpenFOAM: The Open Source CFD Toolbox           |
|  \\    /   O peration     | Version:  v2006                                 |
|   \\  /    A nd           | Website:  www.openfoam.com                      |
|    \\/     M anipulation  |                                                 |
\*---------------------------------------------------------------------------*/
FoamFile
{
    version     2.0;
    format      ascii;
    class       volTensorField;
    location    "260";
    object      Taub;
}
// * * * * * * * * * * * * * * * * * * * * * * * * * * * * * * * * * * * * * //

dimensions      [1 -1 -2 0 0 0 0];


internalField   nonuniform List<tensor> 
120
(
(-6.46123e-07 0 0 -8.3507e-20 1.29225e-06 0 0 0 -6.46123e-07)
(-6.78698e-07 0 0 -8.00374e-20 1.3574e-06 0 0 0 -6.78698e-07)
(-7.29361e-07 0 0 -8.72152e-20 1.45872e-06 0 0 0 -7.29361e-07)
(-7.90709e-07 0 0 -9.40357e-20 1.58142e-06 0 0 0 -7.90709e-07)
(-8.61243e-07 0 0 -8.94726e-20 1.72249e-06 0 0 0 -8.61243e-07)
(-9.40227e-07 0 0 -6.92863e-20 1.88045e-06 0 0 0 -9.40227e-07)
(-1.02717e-06 0 0 -9.63009e-20 2.05434e-06 0 0 0 -1.02717e-06)
(-1.12202e-06 0 0 -1.49649e-19 2.24405e-06 0 0 0 -1.12202e-06)
(-1.22681e-06 0 0 -9.18935e-20 2.45362e-06 0 0 0 -1.22681e-06)
(-1.3473e-06 0 0 -5.23907e-20 2.69459e-06 0 0 0 -1.3473e-06)
(-1.4936e-06 0 0 -1.18157e-19 2.9872e-06 0 0 0 -1.4936e-06)
(-1.68083e-06 0 0 -6.13541e-20 3.36166e-06 0 0 0 -1.68083e-06)
(-1.84996e-06 0 0 -4.70118e-21 3.69993e-06 0 0 0 -1.84996e-06)
(-2.11842e-06 0 0 -4.6485e-20 4.23685e-06 0 0 0 -2.11842e-06)
(-3.37155e-06 0 0 -7.03898e-20 6.74309e-06 0 0 0 -3.37155e-06)
(-8.63654e-06 0 0 -2.5593e-19 1.72731e-05 0 0 0 -8.63654e-06)
(-7.54014e-06 0 0 -1.80235e-18 1.50803e-05 0 0 0 -7.54014e-06)
(1.76627e-05 0 0 -2.58825e-17 -3.53254e-05 0 0 0 1.76627e-05)
(-0.000107919 0 0 -1.43325e-16 0.000215837 0 0 0 -0.000107919)
(-0.000121391 0 0 -2.16849e-16 0.000242781 0 0 0 -0.000121391)
(1.77907e-05 0 0 -2.37368e-16 -3.55813e-05 0 0 0 1.77907e-05)
(1.9959e-05 0 0 -3.19432e-16 -3.99181e-05 0 0 0 1.9959e-05)
(4.38246e-06 0 0 -4.02457e-16 -8.76491e-06 0 0 0 4.38246e-06)
(1.76566e-06 0 0 2.36091e-16 -3.53132e-06 0 0 0 1.76566e-06)
(7.84766e-07 0 0 9.16526e-16 -1.56953e-06 0 0 0 7.84766e-07)
(2.91563e-07 0 0 9.58055e-16 -5.83125e-07 0 0 0 2.91563e-07)
(1.0667e-07 0 0 7.23288e-16 -2.13339e-07 0 0 0 1.0667e-07)
(3.82253e-08 0 0 5.6212e-16 -7.64506e-08 0 0 0 3.82253e-08)
(1.31263e-08 0 0 8.09778e-16 -2.62526e-08 0 0 0 1.31263e-08)
(4.3615e-09 0 0 3.86882e-16 -8.723e-09 0 0 0 4.3615e-09)
(1.49289e-09 0 0 -7.4255e-16 -2.98578e-09 0 0 0 1.49289e-09)
(4.77322e-10 0 0 -1.21271e-15 -9.54645e-10 0 0 0 4.77322e-10)
(1.57754e-10 0 0 -1.05034e-15 -3.15507e-10 0 0 0 1.57754e-10)
(8.88762e-12 0 0 -9.66918e-16 -1.77752e-11 0 0 0 8.88762e-12)
(1.20837e-11 0 0 -9.54013e-16 -2.41675e-11 0 0 0 1.20837e-11)
(-1.43306e-11 -1.00962e-19 0 -2.85857e-16 2.86611e-11 0 0 0 -1.43306e-11)
(2.06234e-11 0 0 1.07177e-15 -4.12469e-11 0 0 0 2.06234e-11)
(2.50044e-11 0 0 1.05065e-15 -5.00089e-11 0 0 0 2.50044e-11)
(5.43571e-11 0 0 1.07735e-15 -1.08714e-10 0 0 0 5.43571e-11)
(3.19758e-11 0 0 4.62509e-16 -6.39516e-11 0 0 0 3.19758e-11)
(2.4794e-11 0 0 -9.54109e-17 -4.9588e-11 0 0 0 2.4794e-11)
(2.5214e-12 0 0 9.20264e-17 -5.04279e-12 0 0 0 2.5214e-12)
(8.03128e-12 0 0 -3.94301e-16 -1.60626e-11 0 0 0 8.03128e-12)
(7.64483e-13 0 0 -1.72422e-16 -1.52897e-12 0 0 0 7.64483e-13)
(1.05506e-11 0 0 7.37638e-16 -2.11012e-11 0 0 0 1.05506e-11)
(1.15851e-11 0 0 2.13708e-16 -2.31702e-11 0 0 0 1.15851e-11)
(1.84684e-11 0 0 -1.06147e-15 -3.69368e-11 0 0 0 1.84684e-11)
(1.34727e-11 0 0 -1.6994e-15 -2.69454e-11 0 0 0 1.34727e-11)
(1.08287e-11 0 0 -1.00412e-15 -2.16574e-11 0 0 0 1.08287e-11)
(4.99914e-12 0 0 3.2889e-16 -9.99827e-12 0 0 0 4.99914e-12)
(4.74938e-12 0 0 2.12254e-16 -9.49877e-12 0 0 0 4.74938e-12)
(2.85674e-12 0 0 6.94592e-17 -5.71347e-12 0 0 0 2.85674e-12)
(4.29052e-12 0 0 -7.36765e-17 -8.58103e-12 0 0 0 4.29052e-12)
(4.42911e-12 0 0 -1.90365e-16 -8.85822e-12 0 0 0 4.42911e-12)
(5.29037e-12 0 0 4.45277e-16 -1.05807e-11 0 0 0 5.29037e-12)
(4.24303e-12 0 0 1.15252e-15 -8.48607e-12 0 0 0 4.24303e-12)
(3.16958e-12 0 0 1.24152e-15 -6.33916e-12 0 0 0 3.16958e-12)
(1.83783e-12 0 0 1.4114e-15 -3.67566e-12 0 0 0 1.83783e-12)
(1.26401e-12 1.00962e-19 0 2.4597e-16 -2.52801e-12 0 0 0 1.26401e-12)
(8.67971e-13 0 0 -8.77779e-16 -1.73594e-12 0 0 0 8.67971e-13)
(7.82294e-13 0 0 -5.86913e-16 -1.56459e-12 0 0 0 7.82294e-13)
(9.07828e-13 0 0 -3.09e-16 -1.81566e-12 0 0 0 9.07828e-13)
(7.10817e-13 0 0 -6.23339e-17 -1.42163e-12 0 0 0 7.10817e-13)
(4.40481e-13 0 0 1.45283e-16 -8.80962e-13 0 0 0 4.40481e-13)
(-6.98018e-13 0 0 -1.08417e-15 1.39604e-12 0 0 0 -6.98018e-13)
(-1.00059e-12 0 0 -9.34191e-16 2.00118e-12 0 0 0 -1.00059e-12)
(-1.96231e-12 0 0 6.15297e-16 3.92461e-12 0 0 0 -1.96231e-12)
(-1.39601e-12 0 0 7.82388e-16 2.79202e-12 0 0 0 -1.39601e-12)
(-2.46883e-12 0 0 9.84063e-16 4.93766e-12 0 0 0 -2.46883e-12)
(-1.25094e-12 0 0 1.2244e-15 2.50188e-12 0 0 0 -1.25094e-12)
(-2.57224e-12 0 0 9.2534e-17 5.14448e-12 0 0 0 -2.57224e-12)
(-2.24897e-12 0 0 -1.02974e-15 4.49795e-12 0 0 0 -2.24897e-12)
(-7.13028e-12 0 0 -7.64388e-16 1.42606e-11 0 0 0 -7.13028e-12)
(-6.5687e-12 0 0 -5.32647e-16 1.31374e-11 0 0 0 -6.5687e-12)
(-1.04409e-11 0 0 -3.45186e-16 2.08818e-11 0 0 0 -1.04409e-11)
(-6.10755e-12 0 0 -2.0163e-16 1.22151e-11 0 0 0 -6.10755e-12)
(-1.14578e-11 0 0 -9.17224e-17 2.29156e-11 0 0 0 -1.14578e-11)
(-4.37286e-12 0 0 2.31568e-18 8.74573e-12 0 0 0 -4.37286e-12)
(-9.85184e-12 0 0 1.03571e-16 1.97037e-11 0 0 0 -9.85184e-12)
(-6.76087e-12 0 0 2.38633e-16 1.35217e-11 0 0 0 -6.76087e-12)
(-2.65203e-11 0 0 4.35349e-16 5.30405e-11 0 0 0 -2.65203e-11)
(-2.20492e-11 0 0 7.18916e-16 4.40984e-11 0 0 0 -2.20492e-11)
(-3.36533e-11 0 0 1.10595e-15 6.73066e-11 0 0 0 -3.36533e-11)
(-1.62639e-11 0 0 1.5978e-15 3.25279e-11 0 0 0 -1.62639e-11)
(-3.31386e-11 0 0 2.17591e-15 6.62772e-11 0 0 0 -3.31386e-11)
(-6.15072e-12 0 0 -7.5796e-20 1.23014e-11 0 0 0 -6.15072e-12)
(-2.18724e-11 0 0 -2.17614e-15 4.37448e-11 0 0 0 -2.18724e-11)
(-2.55923e-12 0 0 -1.59832e-15 5.11846e-12 0 0 0 -2.55923e-12)
(-8.14078e-11 0 0 -1.10729e-15 1.62816e-10 0 0 0 -8.14078e-11)
(2.23492e-12 0 0 -7.22219e-16 -4.46985e-12 0 0 0 2.23492e-12)
(-3.6874e-10 0 0 -4.43039e-16 7.37479e-10 0 0 0 -3.6874e-10)
(1.1279e-09 0 0 -2.55544e-16 -2.25579e-09 0 0 0 1.1279e-09)
(-7.72714e-10 0 0 -1.38641e-16 1.54543e-09 0 0 0 -7.72714e-10)
(-6.4585e-09 0 0 -7.08052e-17 1.2917e-08 0 0 0 -6.4585e-09)
(-5.1027e-09 0 0 -3.40787e-17 1.02054e-08 0 0 0 -5.1027e-09)
(1.11416e-07 0 0 -1.54791e-17 -2.22832e-07 0 0 0 1.11416e-07)
(1.15037e-07 0 0 -6.64555e-18 -2.30075e-07 0 0 0 1.15037e-07)
(-2.0635e-06 0 0 -2.70105e-18 4.127e-06 0 0 0 -2.0635e-06)
(-2.21851e-08 0 0 -1.04107e-18 4.43702e-08 0 0 0 -2.21851e-08)
(3.1321e-05 0 0 -3.8122e-19 -6.26421e-05 0 0 0 3.1321e-05)
(-4.73118e-05 0 0 -1.32801e-19 9.46236e-05 0 0 0 -4.73118e-05)
(-0.000237015 0 0 -4.39529e-20 0.00047403 0 0 0 -0.000237015)
(0.000415477 0 0 -1.39025e-20 -0.000830953 0 0 0 0.000415477)
(0.00459963 0 0 -3.82136e-21 -0.00919926 0 0 0 0.00459963)
(-0.00064285 0 0 -7.74803e-22 0.0012857 0 0 0 -0.00064285)
(-0.0022274 0 0 -9.54232e-23 0.0044548 0 0 0 -0.0022274)
(0.000216546 0 0 -1.02683e-22 -0.000433092 0 0 0 0.000216546)
(0.000301044 0 0 -8.12991e-23 -0.000602088 0 0 0 0.000301044)
(-4.5861e-06 0 0 -6.43351e-23 9.17221e-06 0 0 0 -4.5861e-06)
(-2.38686e-05 0 0 -5.09813e-23 4.77373e-05 0 0 0 -2.38686e-05)
(-6.24242e-07 0 0 -4.04985e-23 1.24848e-06 0 0 0 -6.24242e-07)
(1.85167e-06 0 0 -3.22949e-23 -3.70334e-06 0 0 0 1.85167e-06)
(1.25362e-07 0 0 -2.59005e-23 -2.50724e-07 0 0 0 1.25362e-07)
(-1.40586e-07 0 0 -2.09448e-23 2.81171e-07 0 0 0 -1.40586e-07)
(-1.57647e-08 0 0 -1.71385e-23 3.15295e-08 0 0 0 -1.57647e-08)
(1.04014e-08 0 0 -1.42583e-23 -2.08027e-08 0 0 0 1.04014e-08)
(1.70625e-09 0 0 -1.21348e-23 -3.41249e-09 0 0 0 1.70625e-09)
(-7.95795e-10 0 0 -1.0643e-23 1.59159e-09 0 0 0 -7.95795e-10)
(-2.2028e-10 0 0 -9.69528e-24 4.4056e-10 0 0 0 -2.2028e-10)
(8.81469e-10 0 0 -9.20318e-24 -1.76294e-09 0 0 0 8.81469e-10)
)
;

boundaryField
{
    inlet
    {
        type            cyclic;
    }
    outlet
    {
        type            cyclic;
    }
    top
    {
        type            extrapolatedCalculated;
        value           uniform (1.70376e-09 0 0 -9.05777e-24 -3.40752e-09 0 0 0 1.70376e-09);
    }
    bottom
    {
        type            extrapolatedCalculated;
        value           uniform (-6.35873e-07 0 0 -8.36643e-20 1.27175e-06 0 0 0 -6.35873e-07);
    }
    frontAndBackPlanes
    {
        type            empty;
    }
}


// ************************************************************************* //
