/*--------------------------------*- C++ -*----------------------------------*\
| =========                 |                                                 |
| \\      /  F ield         | OpenFOAM: The Open Source CFD Toolbox           |
|  \\    /   O peration     | Version:  v2006                                 |
|   \\  /    A nd           | Website:  www.openfoam.com                      |
|    \\/     M anipulation  |                                                 |
\*---------------------------------------------------------------------------*/
FoamFile
{
    version     2.0;
    format      ascii;
    class       volVectorField;
    location    "260";
    object      Ua;
}
// * * * * * * * * * * * * * * * * * * * * * * * * * * * * * * * * * * * * * //

dimensions      [0 1 -1 0 0 0 0];


internalField   nonuniform List<vector> 
120
(
(-4.21321e-22 -6.4264e-09 0)
(-1.26107e-21 -1.98155e-08 0)
(-2.09428e-21 -3.43183e-08 0)
(-3.01882e-21 -5.00639e-08 0)
(-3.92974e-21 -6.72284e-08 0)
(-4.82461e-21 -8.60154e-08 0)
(-5.70176e-21 -1.06618e-07 0)
(-6.76551e-21 -1.29218e-07 0)
(-7.80852e-21 -1.53986e-07 0)
(-8.61973e-21 -1.81107e-07 0)
(-9.40326e-21 -2.1098e-07 0)
(-1.01533e-20 -2.44784e-07 0)
(-1.06445e-20 -2.84143e-07 0)
(-1.11064e-20 -3.27805e-07 0)
(-1.15894e-20 -3.74214e-07 0)
(-1.25231e-20 -4.37964e-07 0)
(-1.6658e-20 -5.82105e-07 0)
(-4.64318e-20 -1.0744e-06 0)
(-5.20328e-19 -5.81833e-06 0)
(-3.08286e-18 -3.01648e-06 0)
(-5.27129e-18 -4.2438e-06 0)
(-8.31849e-18 -5.8099e-06 0)
(-1.23495e-17 -6.20339e-06 0)
(-1.73258e-17 -6.35238e-06 0)
(-7.10462e-18 -6.41653e-06 0)
(3.11369e-18 -6.44036e-06 0)
(1.42234e-17 -6.449e-06 0)
(1.91884e-17 -6.45205e-06 0)
(2.668e-17 -6.45311e-06 0)
(3.72585e-17 -6.45344e-06 0)
(3.53513e-17 -6.45356e-06 0)
(2.06825e-17 -6.45358e-06 0)
(8.32604e-18 -6.4536e-06 0)
(-2.6612e-18 -6.4536e-06 0)
(-1.31636e-17 -6.45361e-06 0)
(-2.3937e-17 -6.4536e-06 0)
(-1.95897e-17 -6.45361e-06 0)
(2.89386e-20 -6.45361e-06 0)
(3.76109e-18 -6.45361e-06 0)
(2.40459e-17 -6.45362e-06 0)
(1.40403e-17 -6.45362e-06 0)
(2.18525e-17 -6.45362e-06 0)
(1.61584e-17 -6.45362e-06 0)
(1.30162e-17 -6.45362e-06 0)
(1.22535e-17 -6.45363e-06 0)
(2.95561e-17 -6.45363e-06 0)
(1.70761e-17 -6.45363e-06 0)
(5.89205e-18 -6.45363e-06 0)
(-2.08388e-17 -6.45363e-06 0)
(-1.64972e-17 -6.45364e-06 0)
(-1.33834e-17 -6.45364e-06 0)
(-1.17799e-17 -6.45364e-06 0)
(-1.18397e-17 -6.45364e-06 0)
(-1.34174e-17 -6.45364e-06 0)
(-1.61435e-17 -6.45364e-06 0)
(-3.52113e-18 -6.45364e-06 0)
(9.54421e-18 -6.45364e-06 0)
(2.40717e-17 -6.45364e-06 0)
(4.10583e-17 -6.45364e-06 0)
(2.95383e-17 -6.45364e-06 0)
(2.14038e-17 -6.45364e-06 0)
(1.64942e-17 -6.45364e-06 0)
(1.45363e-17 -6.45364e-06 0)
(1.51088e-17 -6.45364e-06 0)
(1.79111e-17 -6.45364e-06 0)
(-9.13265e-18 -6.45364e-06 0)
(-2.99711e-18 -6.45364e-06 0)
(4.6881e-18 -6.45364e-06 0)
(1.43915e-17 -6.45364e-06 0)
(2.65589e-17 -6.45364e-06 0)
(4.17495e-17 -6.45364e-06 0)
(2.86154e-17 -6.45364e-06 0)
(1.87176e-17 -6.45364e-06 0)
(1.16269e-17 -6.45364e-06 0)
(6.87961e-18 -6.45365e-06 0)
(3.95521e-18 -6.45365e-06 0)
(2.39841e-18 -6.45365e-06 0)
(1.91669e-18 -6.45365e-06 0)
(2.44987e-18 -6.45365e-06 0)
(4.21852e-18 -6.45365e-06 0)
(7.75344e-18 -6.45365e-06 0)
(1.38941e-17 -6.45365e-06 0)
(2.37313e-17 -6.45365e-06 0)
(3.84737e-17 -6.45365e-06 0)
(5.92422e-17 -6.45365e-06 0)
(8.71249e-17 -6.45365e-06 0)
(5.92405e-17 -6.45365e-06 0)
(3.84687e-17 -6.45365e-06 0)
(2.37179e-17 -6.45366e-06 0)
(1.38592e-17 -6.45365e-06 0)
(7.66663e-18 -6.45366e-06 0)
(4.01275e-18 -6.45363e-06 0)
(1.98722e-18 -6.45374e-06 0)
(9.31504e-19 -6.45359e-06 0)
(4.13596e-19 -6.45331e-06 0)
(1.74121e-19 -6.45323e-06 0)
(6.95824e-20 -6.46084e-06 0)
(2.6428e-20 -6.46044e-06 0)
(9.55388e-21 -6.32438e-06 0)
(3.29084e-21 -6.46295e-06 0)
(1.08095e-21 -8.37424e-06 0)
(3.41463e-22 -3.43066e-06 0)
(1.01921e-22 7.95234e-06 0)
(3.37049e-23 -3.20781e-05 0)
(1.56252e-23 -0.000327341 0)
(1.37353e-23 -8.9878e-05 0)
(1.08741e-23 -0.000103012 0)
(8.60213e-24 -0.000238822 0)
(6.80354e-24 -0.000231916 0)
(5.38202e-24 -0.000228616 0)
(4.25435e-24 -0.00022828 0)
(3.35693e-24 -0.000228529 0)
(2.63947e-24 -0.000228566 0)
(2.0618e-24 -0.000228548 0)
(1.59214e-24 -0.000228545 0)
(1.20481e-24 -0.000228546 0)
(8.79166e-25 -0.000228546 0)
(5.98022e-25 -0.000228518 0)
(3.46948e-25 -0.000228481 0)
(1.13222e-25 -0.000228045 0)
)
;

boundaryField
{
    inlet
    {
        type            cyclic;
    }
    outlet
    {
        type            cyclic;
    }
    top
    {
        type            fixedValue;
        value           uniform (0 0 0);
    }
    bottom
    {
        type            fixedValue;
        value           uniform (0 0 0);
    }
    frontAndBackPlanes
    {
        type            empty;
    }
}


// ************************************************************************* //
