/*--------------------------------*- C++ -*----------------------------------*\
| =========                 |                                                 |
| \\      /  F ield         | OpenFOAM: The Open Source CFD Toolbox           |
|  \\    /   O peration     | Version:  v2006                                 |
|   \\  /    A nd           | Website:  www.openfoam.com                      |
|    \\/     M anipulation  |                                                 |
\*---------------------------------------------------------------------------*/
FoamFile
{
    version     2.0;
    format      ascii;
    class       volVectorField;
    location    "260";
    object      Ub;
}
// * * * * * * * * * * * * * * * * * * * * * * * * * * * * * * * * * * * * * //

dimensions      [0 1 -1 0 0 0 0];


internalField   nonuniform List<vector> 
120
(
(-4.2132e-22 9.60646e-09 0)
(-1.26079e-21 2.94388e-08 0)
(-2.03396e-21 5.06309e-08 0)
(-3.01854e-21 7.35377e-08 0)
(-3.92973e-21 9.84532e-08 0)
(-4.82288e-21 1.25642e-07 0)
(-5.32745e-21 1.55355e-07 0)
(-6.76628e-21 1.87829e-07 0)
(-8.34866e-21 2.23311e-07 0)
(-8.62229e-21 2.62164e-07 0)
(-9.40732e-21 3.04986e-07 0)
(-1.10112e-20 3.52758e-07 0)
(-1.06486e-20 4.07002e-07 0)
(-1.11064e-20 4.65126e-07 0)
(-1.15906e-20 5.35796e-07 0)
(-1.25345e-20 6.70332e-07 0)
(-1.67897e-20 1.06213e-06 0)
(-4.91991e-20 1.13049e-06 0)
(-5.44351e-19 -1.79239e-08 0)
(-3.08285e-18 7.98318e-06 0)
(-5.27132e-18 7.92044e-06 0)
(-8.31852e-18 6.80594e-06 0)
(-1.23496e-17 6.59364e-06 0)
(-1.7253e-17 6.51407e-06 0)
(-7.10462e-18 6.47596e-06 0)
(3.11371e-18 6.46175e-06 0)
(1.4187e-17 6.45652e-06 0)
(1.91885e-17 6.45464e-06 0)
(2.66801e-17 6.45397e-06 0)
(3.71858e-17 6.45377e-06 0)
(3.52785e-17 6.45368e-06 0)
(2.06826e-17 6.45367e-06 0)
(8.3261e-18 6.45365e-06 0)
(-2.66118e-18 6.45366e-06 0)
(-1.31636e-17 6.45365e-06 0)
(-2.38641e-17 6.45366e-06 0)
(-1.95168e-17 6.45365e-06 0)
(-4.39452e-20 6.45365e-06 0)
(3.83399e-18 6.45365e-06 0)
(2.39002e-17 6.45365e-06 0)
(1.41132e-17 6.45365e-06 0)
(2.17797e-17 6.45365e-06 0)
(1.61585e-17 6.45365e-06 0)
(1.30163e-17 6.45365e-06 0)
(1.23265e-17 6.45365e-06 0)
(2.94103e-17 6.45365e-06 0)
(1.70761e-17 6.45365e-06 0)
(5.81919e-18 6.45365e-06 0)
(-2.0693e-17 6.45365e-06 0)
(-1.64973e-17 6.45365e-06 0)
(-1.33835e-17 6.45364e-06 0)
(-1.17799e-17 6.45364e-06 0)
(-1.18397e-17 6.45364e-06 0)
(-1.34174e-17 6.45364e-06 0)
(-1.60706e-17 6.45364e-06 0)
(-3.5211e-18 6.45364e-06 0)
(9.54427e-18 6.45364e-06 0)
(2.40717e-17 6.45364e-06 0)
(4.09126e-17 6.45364e-06 0)
(2.95384e-17 6.45364e-06 0)
(2.1404e-17 6.45364e-06 0)
(1.64943e-17 6.45364e-06 0)
(1.45364e-17 6.45364e-06 0)
(1.51089e-17 6.45364e-06 0)
(1.77654e-17 6.45364e-06 0)
(-8.98681e-18 6.45364e-06 0)
(-2.99703e-18 6.45364e-06 0)
(4.68817e-18 6.45364e-06 0)
(1.43915e-17 6.45364e-06 0)
(2.6559e-17 6.45364e-06 0)
(4.16038e-17 6.45364e-06 0)
(2.86156e-17 6.45364e-06 0)
(1.87178e-17 6.45364e-06 0)
(1.1627e-17 6.45364e-06 0)
(6.87968e-18 6.45364e-06 0)
(3.95526e-18 6.45365e-06 0)
(2.39846e-18 6.45365e-06 0)
(1.91673e-18 6.45365e-06 0)
(2.44992e-18 6.45365e-06 0)
(4.21859e-18 6.45365e-06 0)
(7.75354e-18 6.45365e-06 0)
(1.38942e-17 6.45365e-06 0)
(2.37315e-17 6.45365e-06 0)
(3.84739e-17 6.45365e-06 0)
(5.92425e-17 6.45365e-06 0)
(8.68336e-17 6.45365e-06 0)
(5.92408e-17 6.45365e-06 0)
(3.84689e-17 6.45365e-06 0)
(2.37181e-17 6.45365e-06 0)
(1.38594e-17 6.45366e-06 0)
(7.66673e-18 6.45365e-06 0)
(4.01281e-18 6.45368e-06 0)
(1.98725e-18 6.45357e-06 0)
(9.31526e-19 6.45374e-06 0)
(4.13608e-19 6.454e-06 0)
(1.74126e-19 6.45408e-06 0)
(6.95849e-20 6.44658e-06 0)
(2.6429e-20 6.44641e-06 0)
(9.5543e-21 6.58416e-06 0)
(3.291e-21 6.44789e-06 0)
(1.08101e-21 4.49566e-06 0)
(3.41483e-22 9.60027e-06 0)
(1.01927e-22 2.03347e-05 0)
(3.37069e-23 -1.79935e-05 0)
(1.56266e-23 -0.000291297 0)
(1.37341e-23 3.17205e-05 0)
(1.08694e-23 4.18397e-05 0)
(8.59943e-24 -7.64921e-07 0)
(6.8039e-24 -3.32254e-06 0)
(5.38227e-24 -7.69195e-08 0)
(4.25452e-24 2.58204e-07 0)
(3.35709e-24 1.67285e-08 0)
(2.63957e-24 -1.95811e-08 0)
(2.06191e-24 -2.07818e-09 0)
(1.5922e-24 1.50935e-09 0)
(1.20487e-24 2.86822e-10 0)
(8.79197e-25 -5.10464e-11 0)
(5.98061e-25 3.08529e-11 0)
(3.4698e-25 6.83378e-11 0)
(1.13236e-25 6.38991e-11 0)
)
;

boundaryField
{
    inlet
    {
        type            cyclic;
    }
    outlet
    {
        type            cyclic;
    }
    top
    {
        type            fixedValue;
        value           uniform (0 0 0);
    }
    bottom
    {
        type            fixedValue;
        value           uniform (0 0 0);
    }
    frontAndBackPlanes
    {
        type            empty;
    }
}


// ************************************************************************* //
