/*--------------------------------*- C++ -*----------------------------------*\
| =========                 |                                                 |
| \\      /  F ield         | OpenFOAM: The Open Source CFD Toolbox           |
|  \\    /   O peration     | Version:  v2006                                 |
|   \\  /    A nd           | Website:  www.openfoam.com                      |
|    \\/     M anipulation  |                                                 |
\*---------------------------------------------------------------------------*/
FoamFile
{
    version     2.0;
    format      ascii;
    class       volScalarField;
    location    "1460";
    object      alpha_a;
}
// * * * * * * * * * * * * * * * * * * * * * * * * * * * * * * * * * * * * * //

dimensions      [0 0 0 0 0 0 0];


internalField   nonuniform List<scalar> 
120
(
0.599967
0.599919
0.599871
0.599822
0.599773
0.599722
0.599672
0.599621
0.599569
0.599516
0.599463
0.599409
0.599355
0.5993
0.599244
0.599187
0.59913
0.599072
0.599013
0.598953
0.598893
0.598831
0.598769
0.598705
0.598641
0.598576
0.59851
0.598443
0.598375
0.598305
0.598235
0.598163
0.59809
0.598016
0.597941
0.597864
0.597786
0.597707
0.597626
0.597543
0.597459
0.597374
0.597286
0.597197
0.597106
0.597013
0.596918
0.596821
0.596721
0.596619
0.596515
0.596408
0.596299
0.596187
0.596071
0.595953
0.595831
0.595706
0.595577
0.595444
0.595307
0.595165
0.595019
0.594868
0.59471
0.594548
0.594378
0.594202
0.594018
0.593826
0.593625
0.593415
0.593193
0.592959
0.592712
0.59245
0.59217
0.591871
0.591549
0.591201
0.590821
0.590404
0.589941
0.58942
0.588824
0.588127
0.587286
0.586198
0.584654
0.581593
0.401054
0.00821099
1.08711e-05
3.39009e-13
3.20949e-21
2.59336e-29
1.97673e-37
1.42023e-45
1.07195e-53
8.48279e-62
7.83619e-70
8.06446e-78
9.21917e-86
1.04039e-93
1.20651e-101
1.40193e-109
1.80676e-117
2.69908e-125
7.04252e-133
4.40991e-140
4.27273e-147
4.08485e-154
3.75905e-161
3.2364e-168
2.80996e-175
2.37246e-182
2.02996e-189
1.6648e-196
1.34113e-203
9.97355e-211
)
;

boundaryField
{
    inlet
    {
        type            cyclic;
    }
    outlet
    {
        type            cyclic;
    }
    top
    {
        type            zeroGradient;
    }
    bottom
    {
        type            zeroGradient;
    }
    frontAndBackPlanes
    {
        type            empty;
    }
}


// ************************************************************************* //
