/*--------------------------------*- C++ -*----------------------------------*\
| =========                 |                                                 |
| \\      /  F ield         | OpenFOAM: The Open Source CFD Toolbox           |
|  \\    /   O peration     | Version:  v2006                                 |
|   \\  /    A nd           | Website:  www.openfoam.com                      |
|    \\/     M anipulation  |                                                 |
\*---------------------------------------------------------------------------*/
FoamFile
{
    version     2.0;
    format      ascii;
    class       volScalarField;
    location    "1460";
    object      p;
}
// * * * * * * * * * * * * * * * * * * * * * * * * * * * * * * * * * * * * * //

dimensions      [1 -1 -2 0 0 0 0];


internalField   nonuniform List<scalar> 
120
(
-1.33642
-5.99637
-10.6565
-15.3169
-19.9775
-24.6383
-29.2993
-33.9605
-38.6219
-43.2836
-47.9455
-52.6076
-57.2699
-61.9324
-66.5952
-71.2583
-75.9215
-80.585
-85.2487
-89.9127
-94.5769
-99.2414
-103.906
-108.571
-113.236
-117.902
-122.567
-127.233
-131.9
-136.566
-141.233
-145.9
-150.567
-155.235
-159.902
-164.57
-169.239
-173.907
-178.576
-183.245
-187.915
-192.584
-197.254
-201.925
-206.595
-211.266
-215.937
-220.608
-225.28
-229.952
-234.624
-239.296
-243.969
-248.642
-253.315
-257.988
-262.662
-267.336
-272.01
-276.685
-281.36
-286.035
-290.71
-295.386
-300.062
-304.738
-309.415
-314.092
-318.769
-323.446
-328.123
-332.801
-337.479
-342.158
-346.836
-351.515
-356.194
-360.873
-365.553
-370.233
-374.913
-379.593
-384.273
-388.954
-393.634
-398.315
-402.996
-407.677
-412.358
-417.038
-421.706
-426.367
-431.027
-435.687
-440.346
-445.006
-449.666
-454.326
-458.985
-463.645
-468.305
-472.965
-477.624
-482.284
-486.944
-491.604
-496.263
-500.923
-505.583
-510.243
-514.902
-519.562
-524.222
-528.882
-533.541
-538.201
-542.861
-547.521
-552.18
-556.84
)
;

boundaryField
{
    inlet
    {
        type            cyclic;
    }
    outlet
    {
        type            cyclic;
    }
    top
    {
        type            calculated;
        value           uniform -559.17;
    }
    bottom
    {
        type            calculated;
        value           uniform 0.993459;
    }
    frontAndBackPlanes
    {
        type            empty;
    }
}


// ************************************************************************* //
