/*--------------------------------*- C++ -*----------------------------------*\
| =========                 |                                                 |
| \\      /  F ield         | OpenFOAM: The Open Source CFD Toolbox           |
|  \\    /   O peration     | Version:  v2006                                 |
|   \\  /    A nd           | Website:  www.openfoam.com                      |
|    \\/     M anipulation  |                                                 |
\*---------------------------------------------------------------------------*/
FoamFile
{
    version     2.0;
    format      ascii;
    class       volScalarField;
    location    "1460";
    object      pff;
}
// * * * * * * * * * * * * * * * * * * * * * * * * * * * * * * * * * * * * * //

dimensions      [1 -1 -2 0 0 0 0];


internalField   nonuniform List<scalar> 
120
(
25.4982
25.204
24.91
24.6162
24.3225
24.029
23.7357
23.4426
23.1496
22.8569
22.5643
22.2719
21.9796
21.6876
21.3958
21.1042
20.8127
20.5215
20.2304
19.9396
19.649
19.3586
19.0684
18.7784
18.4886
18.1991
17.9098
17.6207
17.3318
17.0432
16.7548
16.4667
16.1788
15.8911
15.6037
15.3165
15.0296
14.743
14.4566
14.1705
13.8846
13.599
13.3137
13.0286
12.7438
12.4593
12.175
11.891
11.6073
11.3239
11.0408
10.7579
10.4753
10.193
9.91097
9.62923
9.34776
9.06659
8.7857
8.50509
8.22478
7.94476
7.66503
7.3856
7.10646
6.82762
6.54908
6.27084
5.99291
5.71527
5.43794
5.16092
4.8842
4.60779
4.33168
4.05589
3.78041
3.50524
3.2304
2.95589
2.68171
2.40789
2.13441
1.86126
1.58845
1.31611
1.04435
0.767717
0.486404
0.179287
0
0
0
0
0
0
0
0
0
0
0
0
0
0
0
0
0
0
0
0
0
0
0
0
0
0
0
0
0
0
)
;

boundaryField
{
    inlet
    {
        type            cyclic;
    }
    outlet
    {
        type            cyclic;
    }
    top
    {
        type            calculated;
        value           uniform 0;
    }
    bottom
    {
        type            calculated;
        value           uniform 25.4982;
    }
    frontAndBackPlanes
    {
        type            empty;
    }
}


// ************************************************************************* //
