/*--------------------------------*- C++ -*----------------------------------*\
| =========                 |                                                 |
| \\      /  F ield         | OpenFOAM: The Open Source CFD Toolbox           |
|  \\    /   O peration     | Version:  v2006                                 |
|   \\  /    A nd           | Website:  www.openfoam.com                      |
|    \\/     M anipulation  |                                                 |
\*---------------------------------------------------------------------------*/
FoamFile
{
    version     2.0;
    format      ascii;
    class       surfaceScalarField;
    location    "1460";
    object      phia;
}
// * * * * * * * * * * * * * * * * * * * * * * * * * * * * * * * * * * * * * //

dimensions      [0 3 -1 0 0 0 0];
oriented        oriented;


internalField   nonuniform List<scalar> 
119
(
-5.09495e-16
-1.025e-15
-1.54652e-15
-2.07408e-15
-2.60772e-15
-3.14746e-15
-3.6933e-15
-4.24528e-15
-4.80342e-15
-5.36771e-15
-5.93819e-15
-6.51484e-15
-7.09769e-15
-7.68672e-15
-8.28193e-15
-8.88331e-15
-9.49085e-15
-1.01045e-14
-1.07243e-14
-1.13501e-14
-1.1982e-14
-1.26199e-14
-1.32636e-14
-1.39132e-14
-1.45686e-14
-1.52298e-14
-1.58965e-14
-1.65687e-14
-1.72463e-14
-1.79293e-14
-1.86174e-14
-1.93106e-14
-2.00088e-14
-2.07117e-14
-2.14194e-14
-2.21316e-14
-2.28482e-14
-2.35692e-14
-2.42943e-14
-2.50236e-14
-2.57568e-14
-2.64939e-14
-2.72348e-14
-2.79795e-14
-2.87279e-14
-2.94799e-14
-3.02357e-14
-3.09951e-14
-3.17583e-14
-3.25252e-14
-3.3296e-14
-3.40708e-14
-3.48495e-14
-3.56325e-14
-3.64198e-14
-3.72116e-14
-3.8008e-14
-3.88092e-14
-3.96152e-14
-4.04263e-14
-4.12426e-14
-4.2064e-14
-4.28906e-14
-4.37224e-14
-4.45593e-14
-4.54011e-14
-4.62476e-14
-4.70985e-14
-4.79534e-14
-4.88119e-14
-4.96735e-14
-5.05377e-14
-5.1404e-14
-5.2272e-14
-5.31416e-14
-5.40127e-14
-5.48857e-14
-5.57612e-14
-5.66404e-14
-5.75247e-14
-5.84154e-14
-5.93136e-14
-6.02194e-14
-6.11316e-14
-6.2047e-14
-6.29608e-14
-6.38832e-14
-6.49274e-14
-6.60927e-14
-1.14115e-13
-1.34446e-12
-3.98067e-11
-5.65503e-11
-8.21851e-11
-8.22696e-11
-8.22746e-11
-8.22765e-11
-8.22766e-11
-8.22766e-11
-8.22766e-11
-8.22766e-11
-8.22766e-11
-8.22766e-11
-8.22766e-11
-8.22766e-11
-8.22766e-11
-8.22766e-11
-8.22766e-11
-8.22766e-11
-8.22766e-11
-8.22766e-11
-8.22766e-11
-8.22766e-11
-8.22766e-11
-8.22766e-11
-8.22766e-11
-8.22766e-11
-8.22565e-11
-8.21697e-11
)
;

boundaryField
{
    inlet
    {
        type            cyclic;
        value           nonuniform List<scalar> 
120
(
-9.02418e-28
-2.70888e-27
-4.51913e-27
-6.30529e-27
-8.10029e-27
-9.90667e-27
-1.1727e-26
-1.3503e-26
-1.5298e-26
-1.71756e-26
-1.90775e-26
-2.10063e-26
-2.30257e-26
-2.50773e-26
-2.7164e-26
-2.92885e-26
-3.14537e-26
-3.36624e-26
-3.59176e-26
-3.82221e-26
-4.05792e-26
-4.29918e-26
-4.54632e-26
-4.79967e-26
-5.08395e-26
-5.37511e-26
-5.67351e-26
-5.96732e-26
-6.26909e-26
-6.57923e-26
-6.87371e-26
-7.15293e-26
-7.44173e-26
-7.7405e-26
-8.0497e-26
-8.36962e-26
-8.72526e-26
-9.11719e-26
-9.49692e-26
-9.91372e-26
-1.02948e-25
-1.07139e-25
-1.11225e-25
-1.15455e-25
-1.19834e-25
-1.24608e-25
-1.2905e-25
-1.3365e-25
-1.38167e-25
-1.43335e-25
-1.48668e-25
-1.54166e-25
-1.59831e-25
-1.65659e-25
-1.71651e-25
-1.78046e-25
-1.84598e-25
-1.913e-25
-1.98149e-25
-2.04646e-25
-2.11266e-25
-2.18003e-25
-2.24843e-25
-2.31772e-25
-2.38775e-25
-2.45348e-25
-2.52447e-25
-2.59564e-25
-2.66678e-25
-2.73766e-25
-2.80804e-25
-2.8728e-25
-2.93656e-25
-2.99905e-25
-3.06001e-25
-3.11917e-25
-3.17625e-25
-3.23099e-25
-3.28314e-25
-3.33243e-25
-3.37863e-25
-3.42151e-25
-3.46085e-25
-3.49648e-25
-3.52822e-25
-3.55593e-25
-3.56982e-25
-3.57948e-25
-3.58485e-25
-3.5874e-25
-3.5896e-25
-5.09464e-25
-7.4586e-25
-9.81343e-25
-1.20892e-24
-1.42583e-24
-1.62953e-24
-1.81755e-24
-1.9875e-24
-2.13727e-24
-2.26492e-24
-2.36887e-24
-2.44773e-24
-2.5005e-24
-2.52644e-24
-2.52515e-24
-2.49654e-24
-2.44086e-24
-2.35865e-24
-2.25075e-24
-2.11831e-24
-1.96276e-24
-1.78576e-24
-1.58928e-24
-1.37539e-24
-1.14648e-24
-9.05018e-25
-6.5366e-25
-3.95152e-25
-1.32335e-25
)
;
    }
    outlet
    {
        type            cyclic;
        value           nonuniform List<scalar> 
120
(
9.02418e-28
2.70888e-27
4.51913e-27
6.30529e-27
8.10029e-27
9.90667e-27
1.1727e-26
1.3503e-26
1.5298e-26
1.71756e-26
1.90775e-26
2.10063e-26
2.30257e-26
2.50773e-26
2.7164e-26
2.92885e-26
3.14537e-26
3.36624e-26
3.59176e-26
3.82221e-26
4.05792e-26
4.29918e-26
4.54632e-26
4.79967e-26
5.08395e-26
5.37511e-26
5.67351e-26
5.96732e-26
6.26909e-26
6.57923e-26
6.87371e-26
7.15293e-26
7.44173e-26
7.7405e-26
8.0497e-26
8.36962e-26
8.72526e-26
9.11719e-26
9.49692e-26
9.91372e-26
1.02948e-25
1.07139e-25
1.11225e-25
1.15455e-25
1.19834e-25
1.24608e-25
1.2905e-25
1.3365e-25
1.38167e-25
1.43335e-25
1.48668e-25
1.54166e-25
1.59831e-25
1.65659e-25
1.71651e-25
1.78046e-25
1.84598e-25
1.913e-25
1.98149e-25
2.04646e-25
2.11266e-25
2.18003e-25
2.24843e-25
2.31772e-25
2.38775e-25
2.45348e-25
2.52447e-25
2.59564e-25
2.66678e-25
2.73766e-25
2.80804e-25
2.8728e-25
2.93656e-25
2.99905e-25
3.06001e-25
3.11917e-25
3.17625e-25
3.23099e-25
3.28314e-25
3.33243e-25
3.37863e-25
3.42151e-25
3.46085e-25
3.49648e-25
3.52822e-25
3.55593e-25
3.56982e-25
3.57948e-25
3.58485e-25
3.5874e-25
3.5896e-25
5.09464e-25
7.4586e-25
9.81343e-25
1.20892e-24
1.42583e-24
1.62953e-24
1.81755e-24
1.9875e-24
2.13727e-24
2.26492e-24
2.36887e-24
2.44773e-24
2.5005e-24
2.52644e-24
2.52515e-24
2.49654e-24
2.44086e-24
2.35865e-24
2.25075e-24
2.11831e-24
1.96276e-24
1.78576e-24
1.58928e-24
1.37539e-24
1.14648e-24
9.05018e-25
6.5366e-25
3.95152e-25
1.32335e-25
)
;
    }
    top
    {
        type            fixedValue;
        value           uniform 0;
    }
    bottom
    {
        type            fixedValue;
        value           uniform 0;
    }
    frontAndBackPlanes
    {
        type            empty;
        value           nonuniform List<scalar> 0();
    }
}


// ************************************************************************* //
