/*--------------------------------*- C++ -*----------------------------------*\
| =========                 |                                                 |
| \\      /  F ield         | OpenFOAM: The Open Source CFD Toolbox           |
|  \\    /   O peration     | Version:  v2006                                 |
|   \\  /    A nd           | Website:  www.openfoam.com                      |
|    \\/     M anipulation  |                                                 |
\*---------------------------------------------------------------------------*/
FoamFile
{
    version     2.0;
    format      ascii;
    class       surfaceScalarField;
    location    "1460";
    object      phib;
}
// * * * * * * * * * * * * * * * * * * * * * * * * * * * * * * * * * * * * * //

dimensions      [0 3 -1 0 0 0 0];
oriented        oriented;


internalField   nonuniform List<scalar> 
119
(
7.641e-16
1.5369e-15
2.31841e-15
3.10866e-15
3.90767e-15
4.71547e-15
5.53206e-15
6.3575e-15
7.19176e-15
8.03489e-15
8.88684e-15
9.74765e-15
1.06173e-14
1.14957e-14
1.23829e-14
1.3279e-14
1.41837e-14
1.50972e-14
1.60192e-14
1.69498e-14
1.78889e-14
1.88363e-14
1.9792e-14
2.07558e-14
2.17277e-14
2.27075e-14
2.3695e-14
2.46901e-14
2.56925e-14
2.67021e-14
2.77187e-14
2.87421e-14
2.97722e-14
3.08086e-14
3.18511e-14
3.28997e-14
3.39538e-14
3.50135e-14
3.60784e-14
3.71485e-14
3.82235e-14
3.93033e-14
4.03875e-14
4.14763e-14
4.25694e-14
4.36667e-14
4.47682e-14
4.58739e-14
4.69837e-14
4.80978e-14
4.92161e-14
5.03386e-14
5.14655e-14
5.25969e-14
5.37329e-14
5.48737e-14
5.60193e-14
5.717e-14
5.83257e-14
5.94866e-14
6.06525e-14
6.18235e-14
6.29994e-14
6.41801e-14
6.53651e-14
6.65542e-14
6.77465e-14
6.89414e-14
7.01381e-14
7.13356e-14
7.25326e-14
7.37284e-14
7.49214e-14
7.61107e-14
7.72952e-14
7.84741e-14
7.96467e-14
8.08133e-14
8.19735e-14
8.3128e-14
8.4276e-14
8.54161e-14
8.65442e-14
8.76525e-14
8.87277e-14
8.97491e-14
9.07022e-14
9.1686e-14
9.24509e-14
1.10223e-13
3.45905e-13
1.64319e-13
3.07768e-16
4.00307e-19
4.01293e-19
4.38203e-19
4.62178e-19
5.15241e-19
5.32304e-19
5.67236e-19
5.62821e-19
5.77882e-19
5.54161e-19
5.65108e-19
5.56837e-19
5.83593e-19
5.73703e-19
5.8351e-19
5.56607e-19
5.47892e-19
5.05906e-19
4.92772e-19
4.6653e-19
4.69788e-19
4.49879e-19
4.46458e-19
4.2055e-19
4.09896e-19
3.77112e-19
)
;

boundaryField
{
    inlet
    {
        type            cyclic;
        value           nonuniform List<scalar> 
120
(
-9.02418e-28
-2.70889e-27
-4.52092e-27
-6.30529e-27
-8.10028e-27
-9.90671e-27
-1.1737e-26
-1.3503e-26
-1.52847e-26
-1.71756e-26
-1.90774e-26
-2.0988e-26
-2.30256e-26
-2.50773e-26
-2.7164e-26
-2.92885e-26
-3.14537e-26
-3.36624e-26
-3.59176e-26
-3.82221e-26
-4.05792e-26
-4.29918e-26
-4.54625e-26
-4.78355e-26
-5.08388e-26
-5.37515e-26
-5.68275e-26
-5.96736e-26
-6.26918e-26
-6.6002e-26
-6.89549e-26
-7.15303e-26
-7.44173e-26
-7.7405e-26
-8.04958e-26
-8.34367e-26
-8.69858e-26
-9.14448e-26
-9.46892e-26
-9.97196e-26
-1.02651e-25
-1.07447e-25
-1.11226e-25
-1.15454e-25
-1.19501e-25
-1.25296e-25
-1.29054e-25
-1.34009e-25
-1.37425e-25
-1.43332e-25
-1.48668e-25
-1.54166e-25
-1.59831e-25
-1.65657e-25
-1.71225e-25
-1.78045e-25
-1.84598e-25
-1.91304e-25
-1.99075e-25
-2.0465e-25
-2.11266e-25
-2.18003e-25
-2.24843e-25
-2.31777e-25
-2.39811e-25
-2.44293e-25
-2.52442e-25
-2.59564e-25
-2.66678e-25
-2.73771e-25
-2.81962e-25
-2.87286e-25
-2.93656e-25
-2.99905e-25
-3.06001e-25
-3.11917e-25
-3.17625e-25
-3.23099e-25
-3.28314e-25
-3.33243e-25
-3.37863e-25
-3.42151e-25
-3.46085e-25
-3.49648e-25
-3.52835e-25
-3.58491e-25
-3.56996e-25
-3.57948e-25
-3.58486e-25
-3.58752e-25
-3.61178e-25
-5.09769e-25
-7.46373e-25
-9.81499e-25
-1.2089e-24
-1.42579e-24
-1.62951e-24
-1.81752e-24
-1.98748e-24
-2.13724e-24
-2.2649e-24
-2.36884e-24
-2.44771e-24
-2.50048e-24
-2.52643e-24
-2.52514e-24
-2.49654e-24
-2.44086e-24
-2.35865e-24
-2.25075e-24
-2.11832e-24
-1.96277e-24
-1.78579e-24
-1.58929e-24
-1.37541e-24
-1.1465e-24
-9.05042e-25
-6.53687e-25
-3.9518e-25
-1.32349e-25
)
;
    }
    outlet
    {
        type            cyclic;
        value           nonuniform List<scalar> 
120
(
9.02418e-28
2.70889e-27
4.52092e-27
6.30529e-27
8.10028e-27
9.90671e-27
1.1737e-26
1.3503e-26
1.52847e-26
1.71756e-26
1.90774e-26
2.0988e-26
2.30256e-26
2.50773e-26
2.7164e-26
2.92885e-26
3.14537e-26
3.36624e-26
3.59176e-26
3.82221e-26
4.05792e-26
4.29918e-26
4.54625e-26
4.78355e-26
5.08388e-26
5.37515e-26
5.68275e-26
5.96736e-26
6.26918e-26
6.6002e-26
6.89549e-26
7.15303e-26
7.44173e-26
7.7405e-26
8.04958e-26
8.34367e-26
8.69858e-26
9.14448e-26
9.46892e-26
9.97196e-26
1.02651e-25
1.07447e-25
1.11226e-25
1.15454e-25
1.19501e-25
1.25296e-25
1.29054e-25
1.34009e-25
1.37425e-25
1.43332e-25
1.48668e-25
1.54166e-25
1.59831e-25
1.65657e-25
1.71225e-25
1.78045e-25
1.84598e-25
1.91304e-25
1.99075e-25
2.0465e-25
2.11266e-25
2.18003e-25
2.24843e-25
2.31777e-25
2.39811e-25
2.44293e-25
2.52442e-25
2.59564e-25
2.66678e-25
2.73771e-25
2.81962e-25
2.87286e-25
2.93656e-25
2.99905e-25
3.06001e-25
3.11917e-25
3.17625e-25
3.23099e-25
3.28314e-25
3.33243e-25
3.37863e-25
3.42151e-25
3.46085e-25
3.49648e-25
3.52835e-25
3.58491e-25
3.56996e-25
3.57948e-25
3.58486e-25
3.58752e-25
3.61178e-25
5.09769e-25
7.46373e-25
9.81499e-25
1.2089e-24
1.42579e-24
1.62951e-24
1.81752e-24
1.98748e-24
2.13724e-24
2.2649e-24
2.36884e-24
2.44771e-24
2.50048e-24
2.52643e-24
2.52514e-24
2.49654e-24
2.44086e-24
2.35865e-24
2.25075e-24
2.11832e-24
1.96277e-24
1.78579e-24
1.58929e-24
1.37541e-24
1.1465e-24
9.05042e-25
6.53687e-25
3.9518e-25
1.32349e-25
)
;
    }
    top
    {
        type            fixedValue;
        value           uniform 0;
    }
    bottom
    {
        type            fixedValue;
        value           uniform 0;
    }
    frontAndBackPlanes
    {
        type            empty;
        value           nonuniform List<scalar> 0();
    }
}


// ************************************************************************* //
