/*--------------------------------*- C++ -*----------------------------------*\
| =========                 |                                                 |
| \\      /  F ield         | OpenFOAM: The Open Source CFD Toolbox           |
|  \\    /   O peration     | Version:  v2006                                 |
|   \\  /    A nd           | Website:  www.openfoam.com                      |
|    \\/     M anipulation  |                                                 |
\*---------------------------------------------------------------------------*/
FoamFile
{
    version     2.0;
    format      ascii;
    class       volTensorField;
    location    "1460";
    object      Taua;
}
// * * * * * * * * * * * * * * * * * * * * * * * * * * * * * * * * * * * * * //

dimensions      [1 -1 -2 0 0 0 0];


internalField   nonuniform List<tensor> 
120
(
(0.000991666 0 0 1.26396e-14 -0.00198333 0 0 0 0.000991666)
(0.00100118 0 0 1.26585e-14 -0.00200236 0 0 0 0.00100118)
(0.00101417 0 0 1.25874e-14 -0.00202833 0 0 0 0.00101417)
(0.00102593 0 0 1.2534e-14 -0.00205185 0 0 0 0.00102593)
(0.00103763 0 0 1.26048e-14 -0.00207526 0 0 0 0.00103763)
(0.00104947 0 0 1.26935e-14 -0.00209895 0 0 0 0.00104947)
(0.00106137 0 0 1.2587e-14 -0.00212274 0 0 0 0.00106137)
(0.0010733 0 0 1.24986e-14 -0.0021466 0 0 0 0.0010733)
(0.00108526 0 0 1.28543e-14 -0.00217052 0 0 0 0.00108526)
(0.00109725 0 0 1.32282e-14 -0.00219449 0 0 0 0.00109725)
(0.00110925 0 0 1.34075e-14 -0.00221851 0 0 0 0.00110925)
(0.00112128 0 0 1.38186e-14 -0.00224256 0 0 0 0.00112128)
(0.00113331 0 0 1.42484e-14 -0.00226662 0 0 0 0.00113331)
(0.00114534 0 0 1.44842e-14 -0.00229068 0 0 0 0.00114534)
(0.00115736 0 0 1.47393e-14 -0.00231472 0 0 0 0.00115736)
(0.00116936 0 0 1.5014e-14 -0.00233872 0 0 0 0.00116936)
(0.00118133 0 0 1.53086e-14 -0.00236265 0 0 0 0.00118133)
(0.00119325 0 0 1.56235e-14 -0.0023865 0 0 0 0.00119325)
(0.00120512 0 0 1.5959e-14 -0.00241024 0 0 0 0.00120512)
(0.00121692 0 0 1.63157e-14 -0.00243384 0 0 0 0.00121692)
(0.00122864 0 0 1.66939e-14 -0.00245728 0 0 0 0.00122864)
(0.00124026 0 0 1.70942e-14 -0.00248053 0 0 0 0.00124026)
(0.00125177 0 0 1.75172e-14 -0.00250355 0 0 0 0.00125177)
(0.00126316 0 0 1.88169e-14 -0.00252631 0 0 0 0.00126316)
(0.0012744 0 0 2.01404e-14 -0.0025488 0 0 0 0.0012744)
(0.00128548 0 0 2.06347e-14 -0.00257097 0 0 0 0.00128548)
(0.00129639 0 0 2.07272e-14 -0.00259279 0 0 0 0.00129639)
(0.00130712 0 0 2.08454e-14 -0.00261424 0 0 0 0.00130712)
(0.00131764 0 0 2.14169e-14 -0.00263529 0 0 0 0.00131764)
(0.00132796 0 0 2.11615e-14 -0.00265591 0 0 0 0.00132796)
(0.00133804 0 0 2.00798e-14 -0.00267608 0 0 0 0.00133804)
(0.00134789 0 0 1.98807e-14 -0.00269579 0 0 0 0.00134789)
(0.00135751 0 0 2.05649e-14 -0.00271501 0 0 0 0.00135751)
(0.00136687 0 0 2.12791e-14 -0.00273374 0 0 0 0.00136687)
(0.00137599 0 0 2.20191e-14 -0.00275197 0 0 0 0.00137599)
(0.00138485 1.84068e-17 0 2.36446e-14 -0.0027697 0 0 0 0.00138485)
(0.00139347 0 0 2.61649e-14 -0.00278694 0 0 0 0.00139347)
(0.00140185 0 0 2.70083e-14 -0.00280371 0 0 0 0.00140185)
(0.00141001 0 0 2.78786e-14 -0.00282001 0 0 0 0.00141001)
(0.00141795 0 0 2.79261e-14 -0.00283589 0 0 0 0.00141795)
(0.00142569 0 0 2.80049e-14 -0.00285138 0 0 0 0.00142569)
(0.00143326 0 0 2.89687e-14 -0.00286652 0 0 0 0.00143326)
(0.00144068 0 0 2.91082e-14 -0.00288136 0 0 0 0.00144068)
(0.00144798 0 0 3.01309e-14 -0.00289597 0 0 0 0.00144798)
(0.0014552 0 0 3.20352e-14 -0.00291039 0 0 0 0.0014552)
(0.00146236 0 0 3.2256e-14 -0.00292472 0 0 0 0.00146236)
(0.00146951 0 0 3.16451e-14 -0.00293902 0 0 0 0.00146951)
(0.00147668 0 0 3.19088e-14 -0.00295336 0 0 0 0.00147668)
(0.00148392 0 0 3.38983e-14 -0.00296784 0 0 0 0.00148392)
(0.00149126 0 0 3.67549e-14 -0.00298253 0 0 0 0.00149126)
(0.00149875 0 0 3.79107e-14 -0.00299751 0 0 0 0.00149875)
(0.00150643 0 0 3.90693e-14 -0.00301285 0 0 0 0.00150643)
(0.00151432 0 0 4.02249e-14 -0.00302863 0 0 0 0.00151432)
(0.00152245 0 0 4.13711e-14 -0.00304491 0 0 0 0.00152245)
(0.00153086 0 0 4.33553e-14 -0.00306173 0 0 0 0.00153086)
(0.00153956 0 0 4.53151e-14 -0.00307912 0 0 0 0.00153956)
(0.00154855 0 0 4.6388e-14 -0.0030971 0 0 0 0.00154855)
(0.00155782 0 0 4.74281e-14 -0.00311565 0 0 0 0.00155782)
(0.00156737 -3.68135e-17 0 4.67089e-14 -0.00313474 0 0 0 0.00156737)
(0.00157715 0 0 4.59107e-14 -0.00315431 0 0 0 0.00157715)
(0.00158712 0 0 4.67501e-14 -0.00317424 0 0 0 0.00158712)
(0.00159721 0 0 4.75175e-14 -0.00319442 0 0 0 0.00159721)
(0.00160734 0 0 4.81928e-14 -0.00321467 0 0 0 0.00160734)
(0.0016174 0 0 4.87648e-14 -0.0032348 0 0 0 0.0016174)
(0.00162728 0 0 4.75153e-14 -0.00325457 0 0 0 0.00162728)
(0.00163686 0 0 4.78488e-14 -0.00327371 0 0 0 0.00163686)
(0.00164598 0 0 4.9755e-14 -0.00329196 0 0 0 0.00164598)
(0.00165451 0 0 4.98086e-14 -0.00330903 0 0 0 0.00165451)
(0.00166232 0 0 4.97074e-14 -0.00332464 0 0 0 0.00166232)
(0.00166927 0 0 4.94428e-14 -0.00333855 0 0 0 0.00166927)
(0.0016753 0 0 4.7301e-14 -0.00335059 0 0 0 0.0016753)
(0.00168035 0 0 4.49821e-14 -0.0033607 0 0 0 0.00168035)
(0.0016845 0 0 4.41877e-14 -0.00336899 0 0 0 0.0016845)
(0.00168789 0 0 4.32077e-14 -0.00337578 0 0 0 0.00168789)
(0.00169084 0 0 4.20397e-14 -0.00338169 0 0 0 0.00169084)
(0.00169382 0 0 4.06831e-14 -0.00338765 0 0 0 0.00169382)
(0.00169745 0 0 3.91391e-14 -0.0033949 0 0 0 0.00169745)
(0.00170245 0 0 3.74107e-14 -0.00340491 0 0 0 0.00170245)
(0.00170957 0 0 3.55026e-14 -0.00341915 0 0 0 0.00170957)
(0.0017194 0 0 3.34218e-14 -0.0034388 0 0 0 0.0017194)
(0.00173195 0 0 3.11769e-14 -0.00346391 0 0 0 0.00173195)
(0.0017458 0 0 2.87789e-14 -0.00349161 0 0 0 0.0017458)
(0.00175926 0 0 2.62408e-14 -0.00351853 0 0 0 0.00175926)
(0.00177865 0 0 2.35777e-14 -0.0035573 0 0 0 0.00177865)
(0.00180624 0 0 2.08062e-14 -0.00361249 0 0 0 0.00180624)
(0.00172684 0 0 1.45605e-14 -0.00345369 0 0 0 0.00172684)
(0.00139769 0 0 8.24449e-15 -0.00279537 0 0 0 0.00139769)
(0.0022655 0 0 5.26149e-15 -0.00453101 0 0 0 0.0022655)
(0.0116289 0 0 2.76998e-15 -0.0232578 0 0 0 0.0116289)
(0.0101165 0 0 3.53597e-16 -0.020233 0 0 0 0.0101165)
(8.30979e-06 0 0 2.1157e-19 -1.66196e-05 0 0 0 8.30979e-06)
(3.76016e-07 0 0 1.11189e-20 -7.52033e-07 0 0 0 3.76016e-07)
(5.06467e-10 0 0 1.79544e-23 -1.01293e-09 0 0 0 5.06467e-10)
(1.15746e-17 0 0 5.49433e-31 -2.31492e-17 0 0 0 1.15746e-17)
(4.04953e-26 0 0 4.993e-39 -8.09907e-26 0 0 0 4.04953e-26)
(-1.69504e-36 0 0 3.81781e-47 3.39008e-36 0 0 0 -1.69504e-36)
(-1.88961e-45 0 0 2.71018e-55 3.77921e-45 0 0 0 -1.88961e-45)
(1.28021e-53 0 0 1.77938e-63 -2.56042e-53 0 0 0 1.28021e-53)
(1.31927e-62 0 0 1.19951e-71 -2.63855e-62 0 0 0 1.31927e-62)
(-5.16537e-71 0 0 8.23654e-80 1.03307e-70 0 0 0 -5.16537e-71)
(-9.86306e-80 0 0 6.35197e-88 1.97261e-79 0 0 0 -9.86306e-80)
(3.50068e-88 0 0 5.15989e-96 -7.00136e-88 0 0 0 3.50068e-88)
(1.12145e-96 0 0 4.24743e-104 -2.24291e-96 0 0 0 1.12145e-96)
(-3.05787e-105 0 0 2.86609e-112 6.11574e-105 0 0 0 -3.05787e-105)
(-1.36124e-113 0 0 1.04078e-120 2.72248e-113 0 0 0 -1.36124e-113)
(2.32155e-122 0 0 -1.46681e-128 -4.6431e-122 0 0 0 2.32155e-122)
(1.59148e-130 0 0 -5.32999e-136 -3.18295e-130 0 0 0 1.59148e-130)
(-7.44533e-140 0 0 -1.30264e-143 1.48907e-139 0 0 0 -7.44533e-140)
(1.25251e-146 0 0 -4.68601e-151 -2.50503e-146 0 0 0 1.25251e-146)
(1.96951e-153 0 0 -3.70952e-158 -3.93902e-153 0 0 0 1.96951e-153)
(2.3778e-160 0 0 -4.30674e-165 -4.75559e-160 0 0 0 2.3778e-160)
(1.9691e-167 0 0 -4.75446e-172 -3.9382e-167 0 0 0 1.9691e-167)
(1.04124e-174 0 0 -4.91373e-179 -2.08248e-174 0 0 0 1.04124e-174)
(-1.87053e-180 0 0 -4.64844e-186 3.74106e-180 0 0 0 -1.87053e-180)
(-2.80105e-187 0 0 -4.35493e-193 5.6021e-187 0 0 0 -2.80105e-187)
(-4.4074e-193 0 0 -3.9058e-200 8.8148e-193 0 0 0 -4.4074e-193)
(-1.97915e-197 0 0 -3.50137e-207 3.95829e-197 0 0 0 -1.97915e-197)
(-3.80325e-204 0 0 -2.97089e-214 7.6065e-204 0 0 0 -3.80325e-204)
(-2.21942e-210 0 0 -2.44708e-221 4.43884e-210 0 0 0 -2.21942e-210)
(-1.59362e-214 0 0 -1.84132e-228 3.18723e-214 0 0 0 -1.59362e-214)
)
;

boundaryField
{
    inlet
    {
        type            cyclic;
    }
    outlet
    {
        type            cyclic;
    }
    top
    {
        type            extrapolatedCalculated;
        value           uniform (-3.18419e-214 0 0 -1.84779e-228 6.36839e-214 0 0 0 -3.18419e-214);
    }
    bottom
    {
        type            extrapolatedCalculated;
        value           uniform (0.000989178 0 0 1.26339e-14 -0.00197836 0 0 0 0.000989178);
    }
    frontAndBackPlanes
    {
        type            empty;
    }
}


// ************************************************************************* //
