/*--------------------------------*- C++ -*----------------------------------*\
| =========                 |                                                 |
| \\      /  F ield         | OpenFOAM: The Open Source CFD Toolbox           |
|  \\    /   O peration     | Version:  v2006                                 |
|   \\  /    A nd           | Website:  www.openfoam.com                      |
|    \\/     M anipulation  |                                                 |
\*---------------------------------------------------------------------------*/
FoamFile
{
    version     2.0;
    format      ascii;
    class       volTensorField;
    location    "1460";
    object      Taub;
}
// * * * * * * * * * * * * * * * * * * * * * * * * * * * * * * * * * * * * * //

dimensions      [1 -1 -2 0 0 0 0];


internalField   nonuniform List<tensor> 
120
(
(-7.10498e-08 0 0 6.0179e-19 1.421e-07 0 0 0 -7.10498e-08)
(-7.15766e-08 0 0 6.0296e-19 1.43153e-07 0 0 0 -7.15766e-08)
(-7.23208e-08 0 0 5.99248e-19 1.44642e-07 0 0 0 -7.23208e-08)
(-7.31446e-08 0 0 5.96379e-19 1.46289e-07 0 0 0 -7.31446e-08)
(-7.39568e-08 0 0 6.00025e-19 1.47914e-07 0 0 0 -7.39568e-08)
(-7.47663e-08 0 0 6.05869e-19 1.49533e-07 0 0 0 -7.47663e-08)
(-7.55771e-08 0 0 5.99102e-19 1.51154e-07 0 0 0 -7.55771e-08)
(-7.639e-08 0 0 5.90999e-19 1.5278e-07 0 0 0 -7.639e-08)
(-7.7204e-08 0 0 6.11761e-19 1.54408e-07 0 0 0 -7.7204e-08)
(-7.80183e-08 0 0 6.31729e-19 1.56037e-07 0 0 0 -7.80183e-08)
(-7.88322e-08 0 0 6.34983e-19 1.57664e-07 0 0 0 -7.88322e-08)
(-7.96455e-08 0 0 6.57556e-19 1.59291e-07 0 0 0 -7.96455e-08)
(-8.04579e-08 0 0 6.81031e-19 1.60916e-07 0 0 0 -8.04579e-08)
(-8.12688e-08 0 0 6.89168e-19 1.62538e-07 0 0 0 -8.12688e-08)
(-8.20779e-08 0 0 7.01252e-19 1.64156e-07 0 0 0 -8.20779e-08)
(-8.28845e-08 0 0 7.1428e-19 1.65769e-07 0 0 0 -8.28845e-08)
(-8.36877e-08 0 0 7.28254e-19 1.67375e-07 0 0 0 -8.36877e-08)
(-8.44855e-08 0 0 7.4319e-19 1.68971e-07 0 0 0 -8.44855e-08)
(-8.52767e-08 0 0 7.59107e-19 1.70553e-07 0 0 0 -8.52767e-08)
(-8.60609e-08 0 0 7.76025e-19 1.72122e-07 0 0 0 -8.60609e-08)
(-8.68375e-08 0 0 7.93966e-19 1.73675e-07 0 0 0 -8.68375e-08)
(-8.76054e-08 0 0 8.12838e-19 1.75211e-07 0 0 0 -8.76054e-08)
(-8.8364e-08 0 0 8.06183e-19 1.76728e-07 0 0 0 -8.8364e-08)
(-8.91127e-08 0 0 8.9477e-19 1.78225e-07 0 0 0 -8.91127e-08)
(-8.98498e-08 0 0 9.84542e-19 1.797e-07 0 0 0 -8.98498e-08)
(-9.05729e-08 0 0 9.9657e-19 1.81146e-07 0 0 0 -9.05729e-08)
(-9.12803e-08 0 0 9.85416e-19 1.82561e-07 0 0 0 -9.12803e-08)
(-9.19717e-08 0 0 9.75753e-19 1.83943e-07 0 0 0 -9.19717e-08)
(-9.26465e-08 0 0 1.05289e-18 1.85293e-07 0 0 0 -9.26465e-08)
(-9.33041e-08 0 0 1.04194e-18 1.86608e-07 0 0 0 -9.33041e-08)
(-9.39441e-08 0 0 9.19649e-19 1.87888e-07 0 0 0 -9.39441e-08)
(-9.45665e-08 0 0 9.08615e-19 1.89133e-07 0 0 0 -9.45665e-08)
(-9.517e-08 0 0 9.77131e-19 1.9034e-07 0 0 0 -9.517e-08)
(-9.57524e-08 0 0 1.01096e-18 1.91505e-07 0 0 0 -9.57524e-08)
(-9.63128e-08 0 0 1.00308e-18 1.92626e-07 0 0 0 -9.63128e-08)
(-9.6852e-08 -1.74906e-21 0 1.07922e-18 1.93704e-07 0 0 0 -9.6852e-08)
(-9.73709e-08 0 0 1.33157e-18 1.94742e-07 0 0 0 -9.73709e-08)
(-9.787e-08 0 0 1.28078e-18 1.9574e-07 0 0 0 -9.787e-08)
(-9.83507e-08 0 0 1.37568e-18 1.96701e-07 0 0 0 -9.83507e-08)
(-9.88148e-08 0 0 1.32355e-18 1.9763e-07 0 0 0 -9.88148e-08)
(-9.92625e-08 0 0 1.28448e-18 1.98525e-07 0 0 0 -9.92625e-08)
(-9.96932e-08 0 0 1.42528e-18 1.99386e-07 0 0 0 -9.96932e-08)
(-1.00108e-07 0 0 1.33067e-18 2.00215e-07 0 0 0 -1.00108e-07)
(-1.00509e-07 0 0 1.37505e-18 2.01017e-07 0 0 0 -1.00509e-07)
(-1.00899e-07 0 0 1.63548e-18 2.01798e-07 0 0 0 -1.00899e-07)
(-1.01282e-07 0 0 1.58731e-18 2.02563e-07 0 0 0 -1.01282e-07)
(-1.01659e-07 0 0 1.44744e-18 2.03319e-07 0 0 0 -1.01659e-07)
(-1.02036e-07 0 0 1.39051e-18 2.04072e-07 0 0 0 -1.02036e-07)
(-1.02412e-07 0 0 1.54848e-18 2.04825e-07 0 0 0 -1.02412e-07)
(-1.02789e-07 0 0 1.86724e-18 2.05579e-07 0 0 0 -1.02789e-07)
(-1.03168e-07 0 0 1.7993e-18 2.06336e-07 0 0 0 -1.03168e-07)
(-1.03552e-07 0 0 1.85353e-18 2.07103e-07 0 0 0 -1.03552e-07)
(-1.03943e-07 0 0 1.90783e-18 2.07886e-07 0 0 0 -1.03943e-07)
(-1.04344e-07 0 0 1.89158e-18 2.08689e-07 0 0 0 -1.04344e-07)
(-1.04757e-07 0 0 2.05617e-18 2.09515e-07 0 0 0 -1.04757e-07)
(-1.05184e-07 0 0 2.21956e-18 2.10367e-07 0 0 0 -1.05184e-07)
(-1.05622e-07 0 0 2.20047e-18 2.11244e-07 0 0 0 -1.05622e-07)
(-1.06068e-07 0 0 2.4022e-18 2.12136e-07 0 0 0 -1.06068e-07)
(-1.06519e-07 3.49011e-21 0 2.21411e-18 2.13037e-07 0 0 0 -1.06519e-07)
(-1.06972e-07 0 0 2.02234e-18 2.13944e-07 0 0 0 -1.06972e-07)
(-1.07424e-07 0 0 2.21478e-18 2.14849e-07 0 0 0 -1.07424e-07)
(-1.0787e-07 0 0 2.25152e-18 2.15741e-07 0 0 0 -1.0787e-07)
(-1.08304e-07 0 0 2.28395e-18 2.16608e-07 0 0 0 -1.08304e-07)
(-1.08717e-07 0 0 2.48164e-18 2.17435e-07 0 0 0 -1.08717e-07)
(-1.091e-07 0 0 2.07469e-18 2.18201e-07 0 0 0 -1.091e-07)
(-1.09439e-07 0 0 2.09334e-18 2.18877e-07 0 0 0 -1.09439e-07)
(-1.09719e-07 0 0 2.53053e-18 2.19438e-07 0 0 0 -1.09719e-07)
(-1.09931e-07 0 0 2.35858e-18 2.19862e-07 0 0 0 -1.09931e-07)
(-1.10063e-07 0 0 2.35344e-18 2.20126e-07 0 0 0 -1.10063e-07)
(-1.10104e-07 0 0 2.53134e-18 2.20208e-07 0 0 0 -1.10104e-07)
(-1.10046e-07 0 0 2.23779e-18 2.20091e-07 0 0 0 -1.10046e-07)
(-1.09883e-07 0 0 1.93596e-18 2.19765e-07 0 0 0 -1.09883e-07)
(-1.09612e-07 0 0 2.08872e-18 2.19224e-07 0 0 0 -1.09612e-07)
(-1.09235e-07 0 0 2.04276e-18 2.1847e-07 0 0 0 -1.09235e-07)
(-1.08762e-07 0 0 1.98705e-18 2.17524e-07 0 0 0 -1.08762e-07)
(-1.08213e-07 0 0 1.92242e-18 2.16427e-07 0 0 0 -1.08213e-07)
(-1.07616e-07 0 0 1.84894e-18 2.15232e-07 0 0 0 -1.07616e-07)
(-1.06996e-07 0 0 1.76676e-18 2.13991e-07 0 0 0 -1.06996e-07)
(-1.06367e-07 0 0 1.6761e-18 2.12734e-07 0 0 0 -1.06367e-07)
(-1.05717e-07 0 0 1.57731e-18 2.11434e-07 0 0 0 -1.05717e-07)
(-1.04982e-07 0 0 1.4708e-18 2.09963e-07 0 0 0 -1.04982e-07)
(-1.04047e-07 0 0 1.3571e-18 2.08095e-07 0 0 0 -1.04047e-07)
(-1.02663e-07 0 0 1.23685e-18 2.05326e-07 0 0 0 -1.02663e-07)
(-1.00008e-07 0 0 1.11299e-18 2.00015e-07 0 0 0 -1.00008e-07)
(-9.51616e-08 0 0 1.45712e-18 1.90323e-07 0 0 0 -9.51616e-08)
(-9.2638e-08 0 0 6.8507e-19 1.85276e-07 0 0 0 -9.2638e-08)
(-1.06752e-07 0 0 -8.92481e-20 2.13503e-07 0 0 0 -1.06752e-07)
(-4.42623e-08 0 0 2.44902e-19 8.85245e-08 0 0 0 -4.42623e-08)
(2.4962e-06 0 0 1.3186e-19 -4.99241e-06 0 0 0 2.4962e-06)
(-5.2378e-07 0 0 4.40293e-19 1.04756e-06 0 0 0 -5.2378e-07)
(9.66514e-06 0 0 2.01596e-17 -1.93303e-05 0 0 0 9.66514e-06)
(-2.26479e-05 0 0 2.62036e-17 4.52958e-05 0 0 0 -2.26479e-05)
(-5.52083e-06 0 0 3.14456e-17 1.10417e-05 0 0 0 -5.52083e-06)
(2.59622e-05 0 0 3.08312e-17 -5.19245e-05 0 0 0 2.59622e-05)
(1.56081e-06 0 0 2.96158e-17 -3.12162e-06 0 0 0 1.56081e-06)
(-2.01072e-06 0 0 2.80372e-17 4.02145e-06 0 0 0 -2.01072e-06)
(-2.07265e-07 0 0 2.61121e-17 4.1453e-07 0 0 0 -2.07265e-07)
(1.5219e-07 0 0 2.38617e-17 -3.04381e-07 0 0 0 1.5219e-07)
(2.28985e-08 0 0 2.13118e-17 -4.57971e-08 0 0 0 2.28985e-08)
(-1.12269e-08 0 0 1.84926e-17 2.24539e-08 0 0 0 -1.12269e-08)
(-2.34318e-09 0 0 1.54383e-17 4.68635e-09 0 0 0 -2.34318e-09)
(7.9871e-10 0 0 1.21859e-17 -1.59742e-09 0 0 0 7.9871e-10)
(2.25952e-10 0 0 8.775e-18 -4.51904e-10 0 0 0 2.25952e-10)
(-5.39629e-11 0 0 5.2468e-18 1.07926e-10 0 0 0 -5.39629e-11)
(-2.09303e-11 0 0 1.6435e-18 4.18606e-11 0 0 0 -2.09303e-11)
(3.02217e-12 0 0 -1.99228e-18 -6.04434e-12 0 0 0 3.02217e-12)
(1.6292e-12 0 0 -5.618e-18 -3.25839e-12 0 0 0 1.6292e-12)
(-4.34997e-14 0 0 -9.19163e-18 8.69995e-14 0 0 0 -4.34997e-14)
(3.42988e-13 0 0 -1.26721e-17 -6.85976e-13 0 0 0 3.42988e-13)
(8.47659e-13 0 0 -1.60197e-17 -1.69532e-12 0 0 0 8.47659e-13)
(1.05489e-12 0 0 -1.91963e-17 -2.10977e-12 0 0 0 1.05489e-12)
(9.15616e-13 0 0 -2.21662e-17 -1.83123e-12 0 0 0 9.15616e-13)
(5.6197e-13 0 0 -2.48959e-17 -1.12394e-12 0 0 0 5.6197e-13)
(3.14606e-13 0 0 -2.73549e-17 -6.29212e-13 0 0 0 3.14606e-13)
(3.3656e-13 0 0 -2.95156e-17 -6.73121e-13 0 0 0 3.3656e-13)
(5.68932e-13 0 0 -3.13541e-17 -1.13786e-12 0 0 0 5.68932e-13)
(6.83327e-13 0 0 -3.28499e-17 -1.36665e-12 0 0 0 6.83327e-13)
(-3.23266e-13 0 0 -3.39866e-17 6.46533e-13 0 0 0 -3.23266e-13)
(-6.23334e-13 0 0 -3.47515e-17 1.24667e-12 0 0 0 -6.23334e-13)
(1.6542e-11 0 0 -3.51642e-17 -3.30841e-11 0 0 0 1.6542e-11)
)
;

boundaryField
{
    inlet
    {
        type            cyclic;
    }
    outlet
    {
        type            cyclic;
    }
    top
    {
        type            extrapolatedCalculated;
        value           uniform (3.3032e-11 0 0 -3.52887e-17 -6.6064e-11 0 0 0 3.3032e-11);
    }
    bottom
    {
        type            extrapolatedCalculated;
        value           uniform (-7.08491e-08 0 0 6.01517e-19 1.41698e-07 0 0 0 -7.08491e-08);
    }
    frontAndBackPlanes
    {
        type            empty;
    }
}


// ************************************************************************* //
