/*--------------------------------*- C++ -*----------------------------------*\
| =========                 |                                                 |
| \\      /  F ield         | OpenFOAM: The Open Source CFD Toolbox           |
|  \\    /   O peration     | Version:  v2006                                 |
|   \\  /    A nd           | Website:  www.openfoam.com                      |
|    \\/     M anipulation  |                                                 |
\*---------------------------------------------------------------------------*/
FoamFile
{
    version     2.0;
    format      ascii;
    class       volVectorField;
    location    "1460";
    object      Ua;
}
// * * * * * * * * * * * * * * * * * * * * * * * * * * * * * * * * * * * * * //

dimensions      [0 1 -1 0 0 0 0];


internalField   nonuniform List<vector> 
120
(
(3.00806e-21 -7.06555e-10 0)
(9.02961e-21 -2.12678e-09 0)
(1.50638e-20 -3.56707e-09 0)
(2.10176e-20 -5.02439e-09 0)
(2.7001e-20 -6.49829e-09 0)
(3.30222e-20 -7.98905e-09 0)
(3.909e-20 -9.49678e-09 0)
(4.50099e-20 -1.10215e-08 0)
(5.09934e-20 -1.25633e-08 0)
(5.72521e-20 -1.41223e-08 0)
(6.35917e-20 -1.56983e-08 0)
(7.00211e-20 -1.72916e-08 0)
(7.67522e-20 -1.8902e-08 0)
(8.3591e-20 -2.05296e-08 0)
(9.05467e-20 -2.21744e-08 0)
(9.76285e-20 -2.38363e-08 0)
(1.04846e-19 -2.55154e-08 0)
(1.12208e-19 -2.72115e-08 0)
(1.19725e-19 -2.89247e-08 0)
(1.27407e-19 -3.06547e-08 0)
(1.35264e-19 -3.24016e-08 0)
(1.43306e-19 -3.41651e-08 0)
(1.51544e-19 -3.59452e-08 0)
(1.59989e-19 -3.77416e-08 0)
(1.69465e-19 -3.95542e-08 0)
(1.7917e-19 -4.13828e-08 0)
(1.89117e-19 -4.3227e-08 0)
(1.98911e-19 -4.50868e-08 0)
(2.0897e-19 -4.69617e-08 0)
(2.19308e-19 -4.88514e-08 0)
(2.29124e-19 -5.07558e-08 0)
(2.38431e-19 -5.26744e-08 0)
(2.48058e-19 -5.46069e-08 0)
(2.58017e-19 -5.6553e-08 0)
(2.68323e-19 -5.85123e-08 0)
(2.78987e-19 -6.04844e-08 0)
(2.90842e-19 -6.2469e-08 0)
(3.03906e-19 -6.44657e-08 0)
(3.16564e-19 -6.64743e-08 0)
(3.30457e-19 -6.84943e-08 0)
(3.4316e-19 -7.05256e-08 0)
(3.57129e-19 -7.25677e-08 0)
(3.7075e-19 -7.46206e-08 0)
(3.84851e-19 -7.66839e-08 0)
(3.99446e-19 -7.87577e-08 0)
(4.15361e-19 -8.08417e-08 0)
(4.30166e-19 -8.29358e-08 0)
(4.45499e-19 -8.50402e-08 0)
(4.60555e-19 -8.71549e-08 0)
(4.77783e-19 -8.928e-08 0)
(4.9556e-19 -9.14157e-08 0)
(5.13888e-19 -9.35622e-08 0)
(5.32768e-19 -9.57198e-08 0)
(5.52198e-19 -9.78888e-08 0)
(5.7217e-19 -1.0007e-07 0)
(5.93488e-19 -1.02263e-07 0)
(6.15327e-19 -1.04468e-07 0)
(6.37667e-19 -1.06687e-07 0)
(6.60496e-19 -1.08919e-07 0)
(6.82152e-19 -1.11165e-07 0)
(7.04221e-19 -1.13425e-07 0)
(7.26676e-19 -1.157e-07 0)
(7.49476e-19 -1.17989e-07 0)
(7.72574e-19 -1.20292e-07 0)
(7.95918e-19 -1.2261e-07 0)
(8.17826e-19 -1.24942e-07 0)
(8.41488e-19 -1.27287e-07 0)
(8.65212e-19 -1.29644e-07 0)
(8.88925e-19 -1.32014e-07 0)
(9.12552e-19 -1.34394e-07 0)
(9.36014e-19 -1.36783e-07 0)
(9.57601e-19 -1.39181e-07 0)
(9.78854e-19 -1.41584e-07 0)
(9.99684e-19 -1.43993e-07 0)
(1.02e-18 -1.46407e-07 0)
(1.03972e-18 -1.48824e-07 0)
(1.05875e-18 -1.51246e-07 0)
(1.077e-18 -1.53674e-07 0)
(1.09438e-18 -1.5611e-07 0)
(1.11081e-18 -1.58559e-07 0)
(1.12621e-18 -1.61023e-07 0)
(1.1405e-18 -1.63507e-07 0)
(1.15362e-18 -1.66011e-07 0)
(1.16549e-18 -1.68534e-07 0)
(1.17607e-18 -1.71093e-07 0)
(1.18531e-18 -1.73694e-07 0)
(1.18994e-18 -1.76027e-07 0)
(1.19316e-18 -1.77688e-07 0)
(1.19495e-18 -1.825e-07 0)
(1.1958e-18 -2.10913e-07 0)
(1.19653e-18 -3.18377e-07 0)
(1.69821e-18 -5.94105e-05 0)
(2.4862e-18 -0.000131159 0)
(3.27114e-18 -0.000192521 0)
(4.02973e-18 -0.000228709 0)
(4.75276e-18 -0.00022857 0)
(5.43177e-18 -0.000228522 0)
(6.05851e-18 -0.000228543 0)
(6.62499e-18 -0.000228548 0)
(7.12422e-18 -0.000228546 0)
(7.54973e-18 -0.000228546 0)
(7.89622e-18 -0.000228546 0)
(8.15909e-18 -0.000228546 0)
(8.335e-18 -0.000228546 0)
(8.42145e-18 -0.000228546 0)
(8.41715e-18 -0.000228546 0)
(8.32181e-18 -0.000228546 0)
(8.1362e-18 -0.000228546 0)
(7.86217e-18 -0.000228546 0)
(7.50249e-18 -0.000228546 0)
(7.06104e-18 -0.000228546 0)
(6.54253e-18 -0.000228546 0)
(5.95254e-18 -0.000228546 0)
(5.2976e-18 -0.000228546 0)
(4.58464e-18 -0.000228546 0)
(3.82158e-18 -0.000228546 0)
(3.01673e-18 -0.000228546 0)
(2.17887e-18 -0.000228518 0)
(1.31717e-18 -0.000228481 0)
(4.41117e-19 -0.000228045 0)
)
;

boundaryField
{
    inlet
    {
        type            cyclic;
    }
    outlet
    {
        type            cyclic;
    }
    top
    {
        type            fixedValue;
        value           uniform (0 0 0);
    }
    bottom
    {
        type            fixedValue;
        value           uniform (0 0 0);
    }
    frontAndBackPlanes
    {
        type            empty;
    }
}


// ************************************************************************* //
