/*--------------------------------*- C++ -*----------------------------------*\
| =========                 |                                                 |
| \\      /  F ield         | OpenFOAM: The Open Source CFD Toolbox           |
|  \\    /   O peration     | Version:  v2006                                 |
|   \\  /    A nd           | Website:  www.openfoam.com                      |
|    \\/     M anipulation  |                                                 |
\*---------------------------------------------------------------------------*/
FoamFile
{
    version     2.0;
    format      ascii;
    class       volVectorField;
    location    "1460";
    object      Ub;
}
// * * * * * * * * * * * * * * * * * * * * * * * * * * * * * * * * * * * * * //

dimensions      [0 1 -1 0 0 0 0];


internalField   nonuniform List<vector> 
120
(
(3.00806e-21 1.06291e-09 0)
(9.02963e-21 3.20076e-09 0)
(1.50697e-20 5.35839e-09 0)
(2.10176e-20 7.54111e-09 0)
(2.70009e-20 9.7484e-09 0)
(3.30224e-20 1.19801e-08 0)
(3.91232e-20 1.42362e-08 0)
(4.50098e-20 1.65168e-08 0)
(5.09491e-20 1.88219e-08 0)
(5.72519e-20 2.11516e-08 0)
(6.35914e-20 2.35058e-08 0)
(6.99599e-20 2.58846e-08 0)
(7.6752e-20 2.8288e-08 0)
(8.3591e-20 3.07158e-08 0)
(9.05467e-20 3.31681e-08 0)
(9.76284e-20 3.56449e-08 0)
(1.04846e-19 3.81459e-08 0)
(1.12208e-19 4.06711e-08 0)
(1.19725e-19 4.32204e-08 0)
(1.27407e-19 4.57934e-08 0)
(1.35264e-19 4.83901e-08 0)
(1.43306e-19 5.10101e-08 0)
(1.51542e-19 5.36532e-08 0)
(1.59452e-19 5.63191e-08 0)
(1.69463e-19 5.90076e-08 0)
(1.79172e-19 6.17181e-08 0)
(1.89425e-19 6.44504e-08 0)
(1.98912e-19 6.72038e-08 0)
(2.08973e-19 6.9978e-08 0)
(2.20007e-19 7.27723e-08 0)
(2.2985e-19 7.55864e-08 0)
(2.38434e-19 7.84197e-08 0)
(2.48058e-19 8.12716e-08 0)
(2.58017e-19 8.41415e-08 0)
(2.68319e-19 8.70288e-08 0)
(2.78122e-19 8.99329e-08 0)
(2.89953e-19 9.28531e-08 0)
(3.04816e-19 9.57889e-08 0)
(3.15631e-19 9.87396e-08 0)
(3.32399e-19 1.01705e-07 0)
(3.4217e-19 1.04684e-07 0)
(3.58157e-19 1.07676e-07 0)
(3.70754e-19 1.10682e-07 0)
(3.84846e-19 1.137e-07 0)
(3.98336e-19 1.1673e-07 0)
(4.17655e-19 1.19772e-07 0)
(4.30181e-19 1.22826e-07 0)
(4.46696e-19 1.25891e-07 0)
(4.58083e-19 1.28968e-07 0)
(4.77772e-19 1.32057e-07 0)
(4.9556e-19 1.35157e-07 0)
(5.13888e-19 1.3827e-07 0)
(5.32768e-19 1.41394e-07 0)
(5.52191e-19 1.4453e-07 0)
(5.7075e-19 1.47679e-07 0)
(5.93482e-19 1.50841e-07 0)
(6.15327e-19 1.54017e-07 0)
(6.37681e-19 1.57206e-07 0)
(6.63584e-19 1.60409e-07 0)
(6.82166e-19 1.63626e-07 0)
(7.04221e-19 1.66857e-07 0)
(7.26676e-19 1.70103e-07 0)
(7.49476e-19 1.73362e-07 0)
(7.72589e-19 1.76634e-07 0)
(7.99371e-19 1.79919e-07 0)
(8.14309e-19 1.83216e-07 0)
(8.41472e-19 1.86523e-07 0)
(8.65212e-19 1.89837e-07 0)
(8.88925e-19 1.93158e-07 0)
(9.1257e-19 1.96482e-07 0)
(9.39873e-19 1.99806e-07 0)
(9.57618e-19 2.03127e-07 0)
(9.78854e-19 2.06443e-07 0)
(9.99684e-19 2.0975e-07 0)
(1.02e-18 2.13045e-07 0)
(1.03972e-18 2.16325e-07 0)
(1.05875e-18 2.19588e-07 0)
(1.077e-18 2.22833e-07 0)
(1.09438e-18 2.26061e-07 0)
(1.11081e-18 2.2927e-07 0)
(1.12621e-18 2.32461e-07 0)
(1.1405e-18 2.35629e-07 0)
(1.15362e-18 2.38765e-07 0)
(1.16549e-18 2.41852e-07 0)
(1.17612e-18 2.44831e-07 0)
(1.19497e-18 2.47627e-07 0)
(1.18999e-18 2.50456e-07 0)
(1.19316e-18 2.54115e-07 0)
(1.19495e-18 2.5315e-07 0)
(1.19584e-18 1.0199e-07 0)
(1.20393e-18 2.8517e-07 0)
(1.69923e-18 -6.22032e-07 0)
(2.48791e-18 3.61444e-06 0)
(3.27166e-18 2.06173e-07 0)
(4.02966e-18 -2.80385e-07 0)
(4.75264e-18 -2.79774e-08 0)
(5.4317e-18 2.12609e-08 0)
(6.05841e-18 3.11628e-09 0)
(6.62493e-18 -1.57049e-09 0)
(7.12413e-18 -3.18927e-10 0)
(7.54968e-18 1.13764e-10 0)
(7.89614e-18 3.25939e-11 0)
(8.15905e-18 -6.05726e-12 0)
(8.33494e-18 -1.30317e-12 0)
(8.42142e-18 2.03819e-12 0)
(8.41713e-18 1.83677e-12 0)
(8.32179e-18 1.58481e-12 0)
(8.1362e-18 1.59236e-12 0)
(7.86216e-18 1.59134e-12 0)
(7.50251e-18 1.5409e-12 0)
(7.06107e-18 1.46417e-12 0)
(6.54257e-18 1.38265e-12 0)
(5.95262e-18 1.32681e-12 0)
(5.29762e-18 1.29834e-12 0)
(4.58471e-18 1.27962e-12 0)
(3.82166e-18 1.24785e-12 0)
(3.01681e-18 1.19426e-12 0)
(2.17896e-18 1.14534e-12 0)
(1.31727e-18 1.24276e-12 0)
(4.41164e-19 1.23885e-12 0)
)
;

boundaryField
{
    inlet
    {
        type            cyclic;
    }
    outlet
    {
        type            cyclic;
    }
    top
    {
        type            fixedValue;
        value           uniform (0 0 0);
    }
    bottom
    {
        type            fixedValue;
        value           uniform (0 0 0);
    }
    frontAndBackPlanes
    {
        type            empty;
    }
}


// ************************************************************************* //
