/*--------------------------------*- C++ -*----------------------------------*\
| =========                 |                                                 |
| \\      /  F ield         | OpenFOAM: The Open Source CFD Toolbox           |
|  \\    /   O peration     | Version:  v2006                                 |
|   \\  /    A nd           | Website:  www.openfoam.com                      |
|    \\/     M anipulation  |                                                 |
\*---------------------------------------------------------------------------*/
FoamFile
{
    version     2.0;
    format      ascii;
    class       volScalarField;
    location    "1680";
    object      p;
}
// * * * * * * * * * * * * * * * * * * * * * * * * * * * * * * * * * * * * * //

dimensions      [1 -1 -2 0 0 0 0];


internalField   nonuniform List<scalar> 
120
(
-2.27558
-6.93534
-11.5951
-16.2549
-20.9147
-25.5745
-30.2343
-34.8941
-39.5539
-44.2138
-48.8736
-53.5335
-58.1934
-62.8533
-67.5132
-72.1731
-76.833
-81.4929
-86.1528
-90.8128
-95.4728
-100.133
-104.793
-109.453
-114.113
-118.773
-123.433
-128.093
-132.753
-137.413
-142.073
-146.733
-151.393
-156.053
-160.714
-165.374
-170.034
-174.694
-179.354
-184.014
-188.675
-193.335
-197.995
-202.655
-207.316
-211.976
-216.636
-221.297
-225.957
-230.617
-235.278
-239.938
-244.598
-249.259
-253.919
-258.58
-263.24
-267.901
-272.561
-277.222
-281.882
-286.543
-291.203
-295.864
-300.524
-305.185
-309.845
-314.506
-319.167
-323.827
-328.488
-333.149
-337.809
-342.47
-347.131
-351.792
-356.453
-361.113
-365.774
-370.435
-375.096
-379.757
-384.418
-389.079
-393.739
-398.4
-403.061
-407.722
-412.383
-417.044
-421.704
-426.367
-431.027
-435.687
-440.346
-445.006
-449.666
-454.326
-458.985
-463.645
-468.305
-472.965
-477.624
-482.284
-486.944
-491.604
-496.263
-500.923
-505.583
-510.243
-514.902
-519.562
-524.222
-528.882
-533.541
-538.201
-542.861
-547.521
-552.18
-556.84
)
;

boundaryField
{
    inlet
    {
        type            cyclic;
    }
    outlet
    {
        type            cyclic;
    }
    top
    {
        type            calculated;
        value           uniform -559.17;
    }
    bottom
    {
        type            calculated;
        value           uniform 0.0542926;
    }
    frontAndBackPlanes
    {
        type            empty;
    }
}


// ************************************************************************* //
