/*--------------------------------*- C++ -*----------------------------------*\
| =========                 |                                                 |
| \\      /  F ield         | OpenFOAM: The Open Source CFD Toolbox           |
|  \\    /   O peration     | Version:  v2006                                 |
|   \\  /    A nd           | Website:  www.openfoam.com                      |
|    \\/     M anipulation  |                                                 |
\*---------------------------------------------------------------------------*/
FoamFile
{
    version     2.0;
    format      ascii;
    class       volScalarField;
    location    "1680";
    object      p_p_total;
}
// * * * * * * * * * * * * * * * * * * * * * * * * * * * * * * * * * * * * * //

dimensions      [1 -1 -2 0 0 0 0];


internalField   nonuniform List<scalar> 
120
(
26.2276
25.9332
25.6389
25.3447
25.0504
24.7562
24.4621
24.1679
23.8738
23.5798
23.2857
22.9917
22.6978
22.4038
22.1099
21.8161
21.5223
21.2285
20.9347
20.641
20.3473
20.0537
19.7601
19.4665
19.173
18.8795
18.5861
18.2927
17.9993
17.706
17.4127
17.1195
16.8263
16.5332
16.2401
15.9471
15.6541
15.3611
15.0682
14.7753
14.4825
14.1898
13.8971
13.6044
13.3118
13.0193
12.7268
12.4344
12.142
11.8497
11.5575
11.2653
10.9732
10.6811
10.3892
10.0972
9.8054
9.51363
9.22194
8.93032
8.63879
8.34733
8.05596
7.76467
7.47347
7.18237
6.89136
6.60045
6.30963
6.01893
5.72833
5.43785
5.14749
4.85725
4.56715
4.27718
3.98736
3.6977
3.4082
3.11888
2.82975
2.54082
2.25212
1.96365
1.67543
1.38756
1.10031
0.813174
0.520464
0.2187
0
0
0
0
0
0
0
0
0
0
0
0
0
0
0
0
0
0
0
0
0
0
0
0
0
0
0
0
0
0
)
;

boundaryField
{
    inlet
    {
        type            cyclic;
    }
    outlet
    {
        type            cyclic;
    }
    top
    {
        type            calculated;
        value           uniform 0;
    }
    bottom
    {
        type            calculated;
        value           uniform 26.2276;
    }
    frontAndBackPlanes
    {
        type            empty;
    }
}


// ************************************************************************* //
