/*--------------------------------*- C++ -*----------------------------------*\
| =========                 |                                                 |
| \\      /  F ield         | OpenFOAM: The Open Source CFD Toolbox           |
|  \\    /   O peration     | Version:  v2006                                 |
|   \\  /    A nd           | Website:  www.openfoam.com                      |
|    \\/     M anipulation  |                                                 |
\*---------------------------------------------------------------------------*/
FoamFile
{
    version     2.0;
    format      ascii;
    class       surfaceScalarField;
    location    "1680";
    object      phia;
}
// * * * * * * * * * * * * * * * * * * * * * * * * * * * * * * * * * * * * * //

dimensions      [0 3 -1 0 0 0 0];
oriented        oriented;


internalField   nonuniform List<scalar> 
119
(
-2.44309e-17
-4.91411e-17
-7.4132e-17
-9.94052e-17
-1.24962e-16
-1.50804e-16
-1.76932e-16
-2.03349e-16
-2.30054e-16
-2.57051e-16
-2.84339e-16
-3.11922e-16
-3.39799e-16
-3.67974e-16
-3.96446e-16
-4.25219e-16
-4.54292e-16
-4.83669e-16
-5.1335e-16
-5.43337e-16
-5.73633e-16
-6.04237e-16
-6.35153e-16
-6.66382e-16
-6.97925e-16
-7.29786e-16
-7.61964e-16
-7.94464e-16
-8.27285e-16
-8.60432e-16
-8.93905e-16
-9.27708e-16
-9.61842e-16
-9.96311e-16
-1.03112e-15
-1.06626e-15
-1.10176e-15
-1.1376e-15
-1.17379e-15
-1.21035e-15
-1.24727e-15
-1.28456e-15
-1.32223e-15
-1.3603e-15
-1.39876e-15
-1.43764e-15
-1.47695e-15
-1.5167e-15
-1.55691e-15
-1.5976e-15
-1.63879e-15
-1.68051e-15
-1.72276e-15
-1.76559e-15
-1.80901e-15
-1.85305e-15
-1.89773e-15
-1.94306e-15
-1.98908e-15
-2.03579e-15
-2.0832e-15
-2.13133e-15
-2.18017e-15
-2.22974e-15
-2.28003e-15
-2.33105e-15
-2.38281e-15
-2.43533e-15
-2.48865e-15
-2.54281e-15
-2.59791e-15
-2.65404e-15
-2.71133e-15
-2.76994e-15
-2.83002e-15
-2.89173e-15
-2.95521e-15
-3.02055e-15
-3.08774e-15
-3.15668e-15
-3.22715e-15
-3.29878e-15
-3.37126e-15
-3.44468e-15
-3.52079e-15
-3.60393e-15
-3.70836e-15
-3.86151e-15
-4.15671e-15
-9.35031e-15
-5.48932e-12
-6.58515e-11
-5.70794e-11
-8.20522e-11
-8.22706e-11
-8.22742e-11
-8.22765e-11
-8.22766e-11
-8.22766e-11
-8.22766e-11
-8.22766e-11
-8.22766e-11
-8.22766e-11
-8.22766e-11
-8.22766e-11
-8.22766e-11
-8.22766e-11
-8.22766e-11
-8.22766e-11
-8.22766e-11
-8.22766e-11
-8.22766e-11
-8.22766e-11
-8.22766e-11
-8.22766e-11
-8.22766e-11
-8.22766e-11
-8.22565e-11
-8.21697e-11
)
;

boundaryField
{
    inlet
    {
        type            cyclic;
        value           nonuniform List<scalar> 
120
(
-1.17314e-27
-3.52126e-27
-5.8737e-27
-8.20298e-27
-1.05424e-26
-1.28947e-26
-1.52629e-26
-1.75891e-26
-1.99369e-26
-2.23698e-26
-2.48301e-26
-2.73204e-26
-2.99045e-26
-3.25242e-26
-3.51825e-26
-3.78819e-26
-4.06254e-26
-4.34154e-26
-4.62547e-26
-4.91458e-26
-5.20913e-26
-5.50937e-26
-5.81552e-26
-6.12784e-26
-6.47079e-26
-6.82035e-26
-7.17669e-26
-7.52789e-26
-7.88626e-26
-8.25196e-26
-8.60088e-26
-8.93317e-26
-9.27319e-26
-9.62104e-26
-9.97679e-26
-1.03405e-25
-1.07364e-25
-1.11646e-25
-1.15766e-25
-1.20207e-25
-1.24243e-25
-1.28598e-25
-1.32788e-25
-1.37053e-25
-1.41392e-25
-1.46043e-25
-1.50278e-25
-1.54578e-25
-1.58699e-25
-1.63362e-25
-1.6808e-25
-1.72849e-25
-1.77663e-25
-1.82519e-25
-1.8741e-25
-1.92573e-25
-1.9776e-25
-2.02966e-25
-2.08183e-25
-2.12923e-25
-2.1766e-25
-2.22388e-25
-2.271e-25
-2.31788e-25
-2.36445e-25
-2.4058e-25
-2.4515e-25
-2.49665e-25
-2.54117e-25
-2.58499e-25
-2.62802e-25
-2.66537e-25
-2.70178e-25
-2.73718e-25
-2.77149e-25
-2.80465e-25
-2.83658e-25
-2.86721e-25
-2.8965e-25
-2.92437e-25
-2.95078e-25
-2.97566e-25
-2.99899e-25
-3.0207e-25
-3.04076e-25
-3.05915e-25
-3.06629e-25
-3.07169e-25
-3.07535e-25
-3.07723e-25
-3.07796e-25
-3.05857e-25
-3.02529e-25
-2.98865e-25
-2.94896e-25
-2.90574e-25
-2.8584e-25
-2.80636e-25
-2.7491e-25
-2.68612e-25
-2.617e-25
-2.54138e-25
-2.45896e-25
-2.3695e-25
-2.27287e-25
-2.16897e-25
-2.05783e-25
-1.93948e-25
-1.81414e-25
-1.68201e-25
-1.5434e-25
-1.39869e-25
-1.24834e-25
-1.09284e-25
-9.32776e-26
-7.68747e-26
-6.01417e-26
-4.31481e-26
-2.59662e-26
-8.67147e-27
)
;
    }
    outlet
    {
        type            cyclic;
        value           nonuniform List<scalar> 
120
(
1.17314e-27
3.52126e-27
5.8737e-27
8.20298e-27
1.05424e-26
1.28947e-26
1.52629e-26
1.75891e-26
1.99369e-26
2.23698e-26
2.48301e-26
2.73204e-26
2.99045e-26
3.25242e-26
3.51825e-26
3.78819e-26
4.06254e-26
4.34154e-26
4.62547e-26
4.91458e-26
5.20913e-26
5.50937e-26
5.81552e-26
6.12784e-26
6.47079e-26
6.82035e-26
7.17669e-26
7.52789e-26
7.88626e-26
8.25196e-26
8.60088e-26
8.93317e-26
9.27319e-26
9.62104e-26
9.97679e-26
1.03405e-25
1.07364e-25
1.11646e-25
1.15766e-25
1.20207e-25
1.24243e-25
1.28598e-25
1.32788e-25
1.37053e-25
1.41392e-25
1.46043e-25
1.50278e-25
1.54578e-25
1.58699e-25
1.63362e-25
1.6808e-25
1.72849e-25
1.77663e-25
1.82519e-25
1.8741e-25
1.92573e-25
1.9776e-25
2.02966e-25
2.08183e-25
2.12923e-25
2.1766e-25
2.22388e-25
2.271e-25
2.31788e-25
2.36445e-25
2.4058e-25
2.4515e-25
2.49665e-25
2.54117e-25
2.58499e-25
2.62802e-25
2.66537e-25
2.70178e-25
2.73718e-25
2.77149e-25
2.80465e-25
2.83658e-25
2.86721e-25
2.8965e-25
2.92437e-25
2.95078e-25
2.97566e-25
2.99899e-25
3.0207e-25
3.04076e-25
3.05915e-25
3.06629e-25
3.07169e-25
3.07535e-25
3.07723e-25
3.07796e-25
3.05857e-25
3.02529e-25
2.98865e-25
2.94896e-25
2.90574e-25
2.8584e-25
2.80636e-25
2.7491e-25
2.68612e-25
2.617e-25
2.54138e-25
2.45896e-25
2.3695e-25
2.27287e-25
2.16897e-25
2.05783e-25
1.93948e-25
1.81414e-25
1.68201e-25
1.5434e-25
1.39869e-25
1.24834e-25
1.09284e-25
9.32776e-26
7.68747e-26
6.01417e-26
4.31481e-26
2.59662e-26
8.67147e-27
)
;
    }
    top
    {
        type            fixedValue;
        value           uniform 0;
    }
    bottom
    {
        type            fixedValue;
        value           uniform 0;
    }
    frontAndBackPlanes
    {
        type            empty;
        value           nonuniform List<scalar> 0();
    }
}


// ************************************************************************* //
