/*--------------------------------*- C++ -*----------------------------------*\
| =========                 |                                                 |
| \\      /  F ield         | OpenFOAM: The Open Source CFD Toolbox           |
|  \\    /   O peration     | Version:  v2006                                 |
|   \\  /    A nd           | Website:  www.openfoam.com                      |
|    \\/     M anipulation  |                                                 |
\*---------------------------------------------------------------------------*/
FoamFile
{
    version     2.0;
    format      ascii;
    class       surfaceScalarField;
    location    "1680";
    object      phib;
}
// * * * * * * * * * * * * * * * * * * * * * * * * * * * * * * * * * * * * * //

dimensions      [0 3 -1 0 0 0 0];
oriented        oriented;


internalField   nonuniform List<scalar> 
119
(
3.66557e-17
7.37159e-17
1.11183e-16
1.49057e-16
1.87342e-16
2.26037e-16
2.65146e-16
3.04669e-16
3.44608e-16
3.84965e-16
4.25741e-16
4.66938e-16
5.08556e-16
5.50599e-16
5.93067e-16
6.35962e-16
6.79286e-16
7.2304e-16
7.67225e-16
8.11844e-16
8.56898e-16
9.02388e-16
9.48317e-16
9.94686e-16
1.0415e-15
1.08875e-15
1.13645e-15
1.18459e-15
1.23319e-15
1.28223e-15
1.33173e-15
1.38168e-15
1.43209e-15
1.48296e-15
1.53429e-15
1.58609e-15
1.63836e-15
1.6911e-15
1.74432e-15
1.79803e-15
1.85224e-15
1.90694e-15
1.96216e-15
2.0179e-15
2.07418e-15
2.13101e-15
2.18842e-15
2.24641e-15
2.30502e-15
2.36426e-15
2.42417e-15
2.48477e-15
2.5461e-15
2.60818e-15
2.67104e-15
2.73471e-15
2.79922e-15
2.8646e-15
2.93086e-15
2.99802e-15
3.06608e-15
3.13505e-15
3.20493e-15
3.27571e-15
3.34739e-15
3.41995e-15
3.49339e-15
3.56774e-15
3.64302e-15
3.71929e-15
3.79665e-15
3.87521e-15
3.95514e-15
4.03661e-15
4.11981e-15
4.20493e-15
4.29209e-15
4.38133e-15
4.47257e-15
4.56554e-15
4.65974e-15
4.75448e-15
4.84901e-15
4.94314e-15
5.03878e-15
5.14131e-15
5.26935e-15
5.45767e-15
5.82392e-15
8.77355e-15
1.34314e-12
2.37854e-13
1.25981e-15
2.41643e-20
3.16137e-20
4.16847e-20
5.03619e-20
6.15059e-20
6.82174e-20
7.68261e-20
8.03169e-20
8.65168e-20
8.73892e-20
9.37118e-20
9.69497e-20
1.0564e-19
1.07582e-19
1.12811e-19
1.1092e-19
1.1253e-19
1.07323e-19
1.08305e-19
1.06052e-19
1.10066e-19
1.07792e-19
1.09131e-19
1.04166e-19
1.02823e-19
9.49652e-20
)
;

boundaryField
{
    inlet
    {
        type            cyclic;
        value           nonuniform List<scalar> 
120
(
-1.17314e-27
-3.52125e-27
-5.87367e-27
-8.20298e-27
-1.05424e-26
-1.28947e-26
-1.52632e-26
-1.75891e-26
-1.99365e-26
-2.23698e-26
-2.48301e-26
-2.73198e-26
-2.99045e-26
-3.25242e-26
-3.51825e-26
-3.78819e-26
-4.06254e-26
-4.34154e-26
-4.62547e-26
-4.91458e-26
-5.20913e-26
-5.50937e-26
-5.81552e-26
-6.12716e-26
-6.47079e-26
-6.82035e-26
-7.17708e-26
-7.5279e-26
-7.88627e-26
-8.25286e-26
-8.60183e-26
-8.93318e-26
-9.27319e-26
-9.62104e-26
-9.97679e-26
-1.03394e-25
-1.07353e-25
-1.11659e-25
-1.15753e-25
-1.20233e-25
-1.24229e-25
-1.28612e-25
-1.32789e-25
-1.37053e-25
-1.41376e-25
-1.46074e-25
-1.50278e-25
-1.54595e-25
-1.58665e-25
-1.63362e-25
-1.6808e-25
-1.72849e-25
-1.77663e-25
-1.82519e-25
-1.8739e-25
-1.92573e-25
-1.9776e-25
-2.02966e-25
-2.08228e-25
-2.12923e-25
-2.1766e-25
-2.22388e-25
-2.271e-25
-2.31788e-25
-2.36496e-25
-2.40528e-25
-2.45149e-25
-2.49665e-25
-2.54117e-25
-2.58499e-25
-2.6286e-25
-2.66537e-25
-2.70178e-25
-2.73718e-25
-2.77149e-25
-2.80465e-25
-2.83658e-25
-2.86721e-25
-2.8965e-25
-2.92437e-25
-2.95078e-25
-2.97566e-25
-2.99899e-25
-3.0207e-25
-3.04077e-25
-3.06076e-25
-3.0663e-25
-3.07169e-25
-3.07535e-25
-3.07723e-25
-3.07769e-25
-3.05852e-25
-3.02522e-25
-2.98862e-25
-2.94896e-25
-2.90574e-25
-2.8584e-25
-2.80637e-25
-2.7491e-25
-2.68613e-25
-2.61701e-25
-2.54139e-25
-2.45896e-25
-2.36951e-25
-2.27288e-25
-2.16898e-25
-2.05783e-25
-1.9395e-25
-1.81415e-25
-1.68202e-25
-1.54341e-25
-1.39871e-25
-1.24835e-25
-1.09286e-25
-9.32793e-26
-7.68765e-26
-6.01435e-26
-4.31499e-26
-2.59681e-26
-8.67242e-27
)
;
    }
    outlet
    {
        type            cyclic;
        value           nonuniform List<scalar> 
120
(
1.17314e-27
3.52125e-27
5.87367e-27
8.20298e-27
1.05424e-26
1.28947e-26
1.52632e-26
1.75891e-26
1.99365e-26
2.23698e-26
2.48301e-26
2.73198e-26
2.99045e-26
3.25242e-26
3.51825e-26
3.78819e-26
4.06254e-26
4.34154e-26
4.62547e-26
4.91458e-26
5.20913e-26
5.50937e-26
5.81552e-26
6.12716e-26
6.47079e-26
6.82035e-26
7.17708e-26
7.5279e-26
7.88627e-26
8.25286e-26
8.60183e-26
8.93318e-26
9.27319e-26
9.62104e-26
9.97679e-26
1.03394e-25
1.07353e-25
1.11659e-25
1.15753e-25
1.20233e-25
1.24229e-25
1.28612e-25
1.32789e-25
1.37053e-25
1.41376e-25
1.46074e-25
1.50278e-25
1.54595e-25
1.58665e-25
1.63362e-25
1.6808e-25
1.72849e-25
1.77663e-25
1.82519e-25
1.8739e-25
1.92573e-25
1.9776e-25
2.02966e-25
2.08228e-25
2.12923e-25
2.1766e-25
2.22388e-25
2.271e-25
2.31788e-25
2.36496e-25
2.40528e-25
2.45149e-25
2.49665e-25
2.54117e-25
2.58499e-25
2.6286e-25
2.66537e-25
2.70178e-25
2.73718e-25
2.77149e-25
2.80465e-25
2.83658e-25
2.86721e-25
2.8965e-25
2.92437e-25
2.95078e-25
2.97566e-25
2.99899e-25
3.0207e-25
3.04077e-25
3.06076e-25
3.0663e-25
3.07169e-25
3.07535e-25
3.07723e-25
3.07769e-25
3.05852e-25
3.02522e-25
2.98862e-25
2.94896e-25
2.90574e-25
2.8584e-25
2.80637e-25
2.7491e-25
2.68613e-25
2.61701e-25
2.54139e-25
2.45896e-25
2.36951e-25
2.27288e-25
2.16898e-25
2.05783e-25
1.9395e-25
1.81415e-25
1.68202e-25
1.54341e-25
1.39871e-25
1.24835e-25
1.09286e-25
9.32793e-26
7.68765e-26
6.01435e-26
4.31499e-26
2.59681e-26
8.67242e-27
)
;
    }
    top
    {
        type            fixedValue;
        value           uniform 0;
    }
    bottom
    {
        type            fixedValue;
        value           uniform 0;
    }
    frontAndBackPlanes
    {
        type            empty;
        value           nonuniform List<scalar> 0();
    }
}


// ************************************************************************* //
