/*--------------------------------*- C++ -*----------------------------------*\
| =========                 |                                                 |
| \\      /  F ield         | OpenFOAM: The Open Source CFD Toolbox           |
|  \\    /   O peration     | Version:  v2006                                 |
|   \\  /    A nd           | Website:  www.openfoam.com                      |
|    \\/     M anipulation  |                                                 |
\*---------------------------------------------------------------------------*/
FoamFile
{
    version     2.0;
    format      ascii;
    class       volTensorField;
    location    "1680";
    object      Taua;
}
// * * * * * * * * * * * * * * * * * * * * * * * * * * * * * * * * * * * * * //

dimensions      [1 -1 -2 0 0 0 0];


internalField   nonuniform List<tensor> 
120
(
(4.75737e-05 0 0 1.64304e-14 -9.51475e-05 0 0 0 4.75737e-05)
(4.79836e-05 0 0 1.6452e-14 -9.59673e-05 0 0 0 4.79836e-05)
(4.85825e-05 0 0 1.63861e-14 -9.7165e-05 0 0 0 4.85825e-05)
(4.91468e-05 0 0 1.63403e-14 -9.82936e-05 0 0 0 4.91468e-05)
(4.96949e-05 0 0 1.64211e-14 -9.93898e-05 0 0 0 4.96949e-05)
(5.02478e-05 0 0 1.6522e-14 -0.000100496 0 0 0 5.02478e-05)
(5.08051e-05 0 0 1.64304e-14 -0.00010161 0 0 0 5.08051e-05)
(5.1365e-05 0 0 1.63588e-14 -0.00010273 0 0 0 5.1365e-05)
(5.19277e-05 0 0 1.67326e-14 -0.000103855 0 0 0 5.19277e-05)
(5.24931e-05 0 0 1.71262e-14 -0.000104986 0 0 0 5.24931e-05)
(5.30614e-05 0 0 1.73272e-14 -0.000106123 0 0 0 5.30614e-05)
(5.36325e-05 0 0 1.77604e-14 -0.000107265 0 0 0 5.36325e-05)
(5.42065e-05 0 0 1.82132e-14 -0.000108413 0 0 0 5.42065e-05)
(5.47835e-05 0 0 1.8473e-14 -0.000109567 0 0 0 5.47835e-05)
(5.53634e-05 0 0 1.8752e-14 -0.000110727 0 0 0 5.53634e-05)
(5.59463e-05 0 0 1.90502e-14 -0.000111893 0 0 0 5.59463e-05)
(5.65322e-05 0 0 1.93671e-14 -0.000113064 0 0 0 5.65322e-05)
(5.71212e-05 0 0 1.97027e-14 -0.000114242 0 0 0 5.71212e-05)
(5.77133e-05 0 0 2.00565e-14 -0.000115427 0 0 0 5.77133e-05)
(5.83086e-05 0 0 2.04282e-14 -0.000116617 0 0 0 5.83086e-05)
(5.89072e-05 0 0 2.08174e-14 -0.000117814 0 0 0 5.89072e-05)
(5.9509e-05 0 0 2.12237e-14 -0.000119018 0 0 0 5.9509e-05)
(6.01142e-05 0 0 2.16464e-14 -0.000120228 0 0 0 6.01142e-05)
(6.07227e-05 0 0 2.29345e-14 -0.000121445 0 0 0 6.07227e-05)
(6.13348e-05 0 0 2.42378e-14 -0.00012267 0 0 0 6.13348e-05)
(6.19505e-05 0 0 2.47064e-14 -0.000123901 0 0 0 6.19505e-05)
(6.25698e-05 0 0 2.47642e-14 -0.00012514 0 0 0 6.25698e-05)
(6.3193e-05 0 0 2.4835e-14 -0.000126386 0 0 0 6.3193e-05)
(6.38201e-05 0 0 2.53423e-14 -0.00012764 0 0 0 6.38201e-05)
(6.44513e-05 0 0 2.50118e-14 -0.000128903 0 0 0 6.44513e-05)
(6.50869e-05 0 0 2.38425e-14 -0.000130174 0 0 0 6.50869e-05)
(6.57272e-05 0 0 2.35307e-14 -0.000131454 0 0 0 6.57272e-05)
(6.63724e-05 0 0 2.40753e-14 -0.000132745 0 0 0 6.63724e-05)
(6.70229e-05 0 0 2.46261e-14 -0.000134046 0 0 0 6.70229e-05)
(6.76794e-05 0 0 2.51813e-14 -0.000135359 0 0 0 6.76794e-05)
(6.83424e-05 5.75211e-19 0 2.6588e-14 -0.000136685 0 0 0 6.83424e-05)
(6.90127e-05 0 0 2.88449e-14 -0.000138025 0 0 0 6.90127e-05)
(6.96912e-05 0 0 2.94051e-14 -0.000139382 0 0 0 6.96912e-05)
(7.0379e-05 0 0 2.9963e-14 -0.000140758 0 0 0 7.0379e-05)
(7.10776e-05 0 0 2.96692e-14 -0.000142155 0 0 0 7.10776e-05)
(7.17883e-05 0 0 2.93694e-14 -0.000143577 0 0 0 7.17883e-05)
(7.25132e-05 0 0 2.99098e-14 -0.000145026 0 0 0 7.25132e-05)
(7.32541e-05 0 0 2.95924e-14 -0.000146508 0 0 0 7.32541e-05)
(7.40136e-05 0 0 3.01106e-14 -0.000148027 0 0 0 7.40136e-05)
(7.47942e-05 0 0 3.14617e-14 -0.000149588 0 0 0 7.47942e-05)
(7.55989e-05 0 0 3.11016e-14 -0.000151198 0 0 0 7.55989e-05)
(7.64307e-05 0 0 2.98751e-14 -0.000152861 0 0 0 7.64307e-05)
(7.72929e-05 0 0 2.94748e-14 -0.000154586 0 0 0 7.72929e-05)
(7.81887e-05 0 0 3.07444e-14 -0.000156377 0 0 0 7.81887e-05)
(7.91215e-05 0 0 3.28349e-14 -0.000158243 0 0 0 7.91215e-05)
(8.00943e-05 0 0 3.32032e-14 -0.000160189 0 0 0 8.00943e-05)
(8.11098e-05 0 0 3.35405e-14 -0.00016222 0 0 0 8.11098e-05)
(8.21701e-05 0 0 3.38445e-14 -0.00016434 0 0 0 8.21701e-05)
(8.32765e-05 0 0 3.4113e-14 -0.000166553 0 0 0 8.32765e-05)
(8.44296e-05 0 0 3.51897e-14 -0.000168859 0 0 0 8.44296e-05)
(8.56285e-05 0 0 3.62264e-14 -0.000171257 0 0 0 8.56285e-05)
(8.68711e-05 0 0 3.63751e-14 -0.000173742 0 0 0 8.68711e-05)
(8.81541e-05 0 0 3.64801e-14 -0.000176308 0 0 0 8.81541e-05)
(8.94727e-05 -2.30085e-18 0 3.48484e-14 -0.000178945 0 0 0 8.94727e-05)
(9.08209e-05 0 0 3.31683e-14 -0.000181642 0 0 0 9.08209e-05)
(9.2192e-05 0 0 3.31296e-14 -0.000184384 0 0 0 9.2192e-05)
(9.35792e-05 0 0 3.30406e-14 -0.000187158 0 0 0 9.35792e-05)
(9.49763e-05 0 0 3.28998e-14 -0.000189953 0 0 0 9.49763e-05)
(9.63794e-05 0 0 3.27061e-14 -0.000192759 0 0 0 9.63794e-05)
(9.77877e-05 0 0 3.07701e-14 -0.000195575 0 0 0 9.77877e-05)
(9.92058e-05 0 0 3.04676e-14 -0.000198412 0 0 0 9.92058e-05)
(0.000100645 0 0 3.17984e-14 -0.00020129 0 0 0 0.000100645)
(0.000102124 0 0 3.13861e-14 -0.000204248 0 0 0 0.000102124)
(0.000103672 0 0 3.09187e-14 -0.000207344 0 0 0 0.000103672)
(0.000105327 0 0 3.03962e-14 -0.000210654 0 0 0 0.000105327)
(0.000107133 0 0 2.81338e-14 -0.000214267 0 0 0 0.000107133)
(0.000109141 0 0 2.58177e-14 -0.000218283 0 0 0 0.000109141)
(0.0001114 0 0 2.51341e-14 -0.000222801 0 0 0 0.0001114)
(0.000113951 0 0 2.43988e-14 -0.000227902 0 0 0 0.000113951)
(0.000116816 0 0 2.36133e-14 -0.000233632 0 0 0 0.000116816)
(0.00011999 0 0 2.27793e-14 -0.00023998 0 0 0 0.00011999)
(0.000123426 0 0 2.18985e-14 -0.000246853 0 0 0 0.000123426)
(0.000127026 0 0 2.0973e-14 -0.000254052 0 0 0 0.000127026)
(0.000130632 0 0 2.00051e-14 -0.000261264 0 0 0 0.000130632)
(0.000134058 0 0 1.89974e-14 -0.000268117 0 0 0 0.000134058)
(0.000137085 0 0 1.79523e-14 -0.000274171 0 0 0 0.000137085)
(0.000139222 0 0 1.68727e-14 -0.000278445 0 0 0 0.000139222)
(0.000139862 0 0 1.57617e-14 -0.000279725 0 0 0 0.000139862)
(0.000143221 0 0 1.46222e-14 -0.000286442 0 0 0 0.000143221)
(0.000161997 0 0 1.34576e-14 -0.000323993 0 0 0 0.000161997)
(0.000169078 0 0 8.93355e-15 -0.000338156 0 0 0 0.000169078)
(1.73889e-05 0 0 4.39091e-15 -3.47778e-05 0 0 0 1.73889e-05)
(0.000120281 0 0 3.17042e-15 -0.000240562 0 0 0 0.000120281)
(0.00266664 0 0 1.93768e-15 -0.00533328 0 0 0 0.00266664)
(0.00862526 0 0 9.14031e-16 -0.0172505 0 0 0 0.00862526)
(1.44714e-05 0 0 -2.52137e-21 -2.89427e-05 0 0 0 1.44714e-05)
(4.18329e-07 0 0 -1.31867e-22 -8.36658e-07 0 0 0 4.18329e-07)
(1.33079e-09 0 0 -1.0802e-24 -2.66158e-09 0 0 0 1.33079e-09)
(1.10941e-19 0 0 -1.37577e-34 -2.21881e-19 0 0 0 1.10941e-19)
(7.07226e-30 0 0 -1.66193e-44 -1.41445e-29 0 0 0 7.07226e-30)
(-5.51746e-42 0 0 -3.32667e-54 1.10349e-41 0 0 0 -5.51746e-42)
(-1.16647e-52 0 0 -1.25409e-63 2.33294e-52 0 0 0 -1.16647e-52)
(2.42229e-61 0 0 -7.21067e-73 -4.84458e-61 0 0 0 2.42229e-61)
(1.41335e-71 0 0 -5.56318e-82 -2.82671e-71 0 0 0 1.41335e-71)
(-1.07353e-80 0 0 -5.04504e-91 2.14707e-80 0 0 0 -1.07353e-80)
(-1.10035e-90 0 0 -5.47614e-100 2.2007e-90 0 0 0 -1.10035e-90)
(8.10104e-100 0 0 -6.60801e-109 -1.62021e-99 0 0 0 8.10104e-100)
(1.93427e-109 0 0 -8.99557e-118 -3.86854e-109 0 0 0 1.93427e-109)
(-1.0511e-118 0 0 -1.28225e-126 2.1022e-118 0 0 0 -1.0511e-118)
(-3.09116e-128 0 0 -2.02484e-135 6.18233e-128 0 0 0 -3.09116e-128)
(1.38023e-137 0 0 -3.44473e-144 -2.76045e-137 0 0 0 1.38023e-137)
(8.2601e-147 0 0 -6.69987e-153 -1.65202e-146 0 0 0 8.2601e-147)
(-4.63447e-156 0 0 -1.40637e-161 9.26894e-156 0 0 0 -4.63447e-156)
(-3.45641e-165 0 0 -3.30102e-170 6.91282e-165 0 0 0 -3.45641e-165)
(2.43488e-174 0 0 -8.20269e-179 -4.86976e-174 0 0 0 2.43488e-174)
(9.55893e-183 0 0 -2.24382e-187 -1.91179e-182 0 0 0 9.55893e-183)
(1.54667e-191 0 0 -6.40907e-196 -3.09335e-191 0 0 0 1.54667e-191)
(-3.02698e-200 0 0 -2.02802e-204 6.05395e-200 0 0 0 -3.02698e-200)
(-3.71632e-206 0 0 -6.89355e-213 7.43264e-206 0 0 0 -3.71632e-206)
(-2.35584e-214 0 0 -2.63518e-221 4.71168e-214 0 0 0 -2.35584e-214)
(-1.68443e-221 0 0 -1.05001e-229 3.36886e-221 0 0 0 -1.68443e-221)
(-3.6437e-227 0 0 -4.41156e-238 7.2874e-227 0 0 0 -3.6437e-227)
(-3.45123e-235 0 0 -1.80703e-246 6.90247e-235 0 0 0 -3.45123e-235)
(-1.01e-242 0 0 -7.36452e-255 2.01999e-242 0 0 0 -1.01e-242)
(-3.67201e-248 0 0 -2.78603e-263 7.34401e-248 0 0 0 -3.67201e-248)
)
;

boundaryField
{
    inlet
    {
        type            cyclic;
    }
    outlet
    {
        type            cyclic;
    }
    top
    {
        type            extrapolatedCalculated;
        value           uniform (-7.33701e-248 0 0 -2.78991e-263 1.4674e-247 0 0 0 -7.33701e-248);
    }
    bottom
    {
        type            extrapolatedCalculated;
        value           uniform (4.74715e-05 0 0 1.64239e-14 -9.4943e-05 0 0 0 4.74715e-05);
    }
    frontAndBackPlanes
    {
        type            empty;
    }
}


// ************************************************************************* //
