/*--------------------------------*- C++ -*----------------------------------*\
| =========                 |                                                 |
| \\      /  F ield         | OpenFOAM: The Open Source CFD Toolbox           |
|  \\    /   O peration     | Version:  v2006                                 |
|   \\  /    A nd           | Website:  www.openfoam.com                      |
|    \\/     M anipulation  |                                                 |
\*---------------------------------------------------------------------------*/
FoamFile
{
    version     2.0;
    format      ascii;
    class       volTensorField;
    location    "1680";
    object      Taub;
}
// * * * * * * * * * * * * * * * * * * * * * * * * * * * * * * * * * * * * * //

dimensions      [1 -1 -2 0 0 0 0];


internalField   nonuniform List<tensor> 
120
(
(-3.41348e-09 0 0 7.82366e-19 6.82696e-09 0 0 0 -3.41348e-09)
(-3.06973e-09 0 0 7.83352e-19 6.13946e-09 0 0 0 -3.06973e-09)
(-3.82547e-09 0 0 7.80182e-19 7.65094e-09 0 0 0 -3.82547e-09)
(-3.50673e-09 0 0 7.77973e-19 7.01346e-09 0 0 0 -3.50673e-09)
(-3.54364e-09 0 0 7.81775e-19 7.08729e-09 0 0 0 -3.54364e-09)
(-3.58199e-09 0 0 7.86579e-19 7.16398e-09 0 0 0 -3.58199e-09)
(-3.62002e-09 0 0 7.82141e-19 7.24004e-09 0 0 0 -3.62002e-09)
(-3.6582e-09 0 0 7.78594e-19 7.31639e-09 0 0 0 -3.6582e-09)
(-3.69652e-09 0 0 7.96446e-19 7.39303e-09 0 0 0 -3.69652e-09)
(-3.73497e-09 0 0 8.15207e-19 7.46995e-09 0 0 0 -3.73497e-09)
(-3.77357e-09 0 0 8.24559e-19 7.54714e-09 0 0 0 -3.77357e-09)
(-3.8123e-09 0 0 8.45238e-19 7.6246e-09 0 0 0 -3.8123e-09)
(-3.85117e-09 0 0 8.66848e-19 7.70234e-09 0 0 0 -3.85117e-09)
(-3.89018e-09 0 0 8.79058e-19 7.78036e-09 0 0 0 -3.89018e-09)
(-3.92933e-09 0 0 8.92287e-19 7.85865e-09 0 0 0 -3.92933e-09)
(-3.96861e-09 0 0 9.06424e-19 7.93723e-09 0 0 0 -3.96861e-09)
(-4.00804e-09 0 0 9.21454e-19 8.01608e-09 0 0 0 -4.00804e-09)
(-4.0476e-09 0 0 9.37366e-19 8.09521e-09 0 0 0 -4.0476e-09)
(-4.08731e-09 0 0 9.54144e-19 8.17461e-09 0 0 0 -4.08731e-09)
(-4.12715e-09 0 0 9.71771e-19 8.2543e-09 0 0 0 -4.12715e-09)
(-4.16713e-09 0 0 9.90227e-19 8.33426e-09 0 0 0 -4.16713e-09)
(-4.20726e-09 0 0 1.00948e-18 8.41451e-09 0 0 0 -4.20726e-09)
(-4.24753e-09 0 0 1.02842e-18 8.49505e-09 0 0 0 -4.24753e-09)
(-4.28794e-09 0 0 1.09073e-18 8.57589e-09 0 0 0 -4.28794e-09)
(-4.32851e-09 0 0 1.15376e-18 8.65701e-09 0 0 0 -4.32851e-09)
(-4.36922e-09 0 0 1.17551e-18 8.73843e-09 0 0 0 -4.36922e-09)
(-4.41008e-09 0 0 1.17752e-18 8.82015e-09 0 0 0 -4.41008e-09)
(-4.45109e-09 0 0 1.18016e-18 8.90218e-09 0 0 0 -4.45109e-09)
(-4.49227e-09 0 0 1.20636e-18 8.98453e-09 0 0 0 -4.49227e-09)
(-4.53361e-09 0 0 1.19062e-18 9.06723e-09 0 0 0 -4.53361e-09)
(-4.57514e-09 0 0 1.13189e-18 9.15028e-09 0 0 0 -4.57514e-09)
(-4.61687e-09 0 0 1.11692e-18 9.23374e-09 0 0 0 -4.61687e-09)
(-4.65881e-09 0 0 1.14429e-18 9.31762e-09 0 0 0 -4.65881e-09)
(-4.70098e-09 0 0 1.17038e-18 9.40197e-09 0 0 0 -4.70098e-09)
(-4.74342e-09 0 0 1.19478e-18 9.48684e-09 0 0 0 -4.74342e-09)
(-4.78616e-09 -5.46673e-23 0 1.26148e-18 9.57233e-09 0 0 0 -4.78616e-09)
(-4.82926e-09 0 0 1.37452e-18 9.65851e-09 0 0 0 -4.82926e-09)
(-4.87276e-09 0 0 1.39698e-18 9.74552e-09 0 0 0 -4.87276e-09)
(-4.91675e-09 0 0 1.42581e-18 9.83349e-09 0 0 0 -4.91675e-09)
(-4.9613e-09 0 0 1.40927e-18 9.9226e-09 0 0 0 -4.9613e-09)
(-5.00652e-09 0 0 1.39303e-18 1.0013e-08 0 0 0 -5.00652e-09)
(-5.05253e-09 0 0 1.42284e-18 1.01051e-08 0 0 0 -5.05253e-09)
(-5.09944e-09 0 0 1.40308e-18 1.01989e-08 0 0 0 -5.09944e-09)
(-5.14742e-09 0 0 1.42736e-18 1.02948e-08 0 0 0 -5.14742e-09)
(-5.19665e-09 0 0 1.49917e-18 1.03933e-08 0 0 0 -5.19665e-09)
(-5.2473e-09 0 0 1.47925e-18 1.04946e-08 0 0 0 -5.2473e-09)
(-5.29958e-09 0 0 1.41584e-18 1.05992e-08 0 0 0 -5.29958e-09)
(-5.35369e-09 0 0 1.39345e-18 1.07074e-08 0 0 0 -5.35369e-09)
(-5.40984e-09 0 0 1.45653e-18 1.08197e-08 0 0 0 -5.40984e-09)
(-5.46822e-09 0 0 1.56408e-18 1.09364e-08 0 0 0 -5.46822e-09)
(-5.52902e-09 0 0 1.57572e-18 1.1058e-08 0 0 0 -5.52902e-09)
(-5.59239e-09 0 0 1.59153e-18 1.11848e-08 0 0 0 -5.59239e-09)
(-5.65844e-09 0 0 1.60577e-18 1.13169e-08 0 0 0 -5.65844e-09)
(-5.72722e-09 0 0 1.615e-18 1.14544e-08 0 0 0 -5.72722e-09)
(-5.79874e-09 0 0 1.66923e-18 1.15975e-08 0 0 0 -5.79874e-09)
(-5.87287e-09 0 0 1.72155e-18 1.17457e-08 0 0 0 -5.87287e-09)
(-5.94943e-09 0 0 1.7251e-18 1.18989e-08 0 0 0 -5.94943e-09)
(-6.02812e-09 0 0 1.73718e-18 1.20562e-08 0 0 0 -6.02812e-09)
(-6.10854e-09 1.09088e-22 0 1.65223e-18 1.22171e-08 0 0 0 -6.10854e-09)
(-6.19023e-09 0 0 1.56499e-18 1.23805e-08 0 0 0 -6.19023e-09)
(-6.27267e-09 0 0 1.57028e-18 1.25453e-08 0 0 0 -6.27267e-09)
(-6.35533e-09 0 0 1.56588e-18 1.27107e-08 0 0 0 -6.35533e-09)
(-6.43774e-09 0 0 1.55902e-18 1.28755e-08 0 0 0 -6.43774e-09)
(-6.51956e-09 0 0 1.558e-18 1.30391e-08 0 0 0 -6.51956e-09)
(-6.60069e-09 0 0 1.44894e-18 1.32014e-08 0 0 0 -6.60069e-09)
(-6.68135e-09 0 0 1.43457e-18 1.33627e-08 0 0 0 -6.68135e-09)
(-6.76221e-09 0 0 1.51445e-18 1.35244e-08 0 0 0 -6.76221e-09)
(-6.84448e-09 0 0 1.48608e-18 1.3689e-08 0 0 0 -6.84448e-09)
(-6.92994e-09 0 0 1.46368e-18 1.38599e-08 0 0 0 -6.92994e-09)
(-7.02091e-09 0 0 1.4483e-18 1.40418e-08 0 0 0 -7.02091e-09)
(-7.12016e-09 0 0 1.33128e-18 1.42403e-08 0 0 0 -7.12016e-09)
(-7.23061e-09 0 0 1.21175e-18 1.44612e-08 0 0 0 -7.23061e-09)
(-7.35495e-09 0 0 1.18877e-18 1.47099e-08 0 0 0 -7.35495e-09)
(-7.49512e-09 0 0 1.15377e-18 1.49902e-08 0 0 0 -7.49512e-09)
(-7.65164e-09 0 0 1.11635e-18 1.53033e-08 0 0 0 -7.65164e-09)
(-7.82283e-09 0 0 1.07663e-18 1.56457e-08 0 0 0 -7.82283e-09)
(-8.004e-09 0 0 1.03471e-18 1.6008e-08 0 0 0 -8.004e-09)
(-8.18687e-09 0 0 9.90683e-19 1.63737e-08 0 0 0 -8.18687e-09)
(-8.3589e-09 0 0 9.44657e-19 1.67178e-08 0 0 0 -8.3589e-09)
(-8.50234e-09 0 0 8.96753e-19 1.70047e-08 0 0 0 -8.50234e-09)
(-8.59681e-09 0 0 8.47096e-19 1.71936e-08 0 0 0 -8.59681e-09)
(-8.64138e-09 0 0 7.9582e-19 1.72828e-08 0 0 0 -8.64138e-09)
(-8.67693e-09 0 0 7.43067e-19 1.73539e-08 0 0 0 -8.67693e-09)
(-8.62998e-09 0 0 6.89108e-19 1.726e-08 0 0 0 -8.62998e-09)
(-8.22432e-09 0 0 6.60245e-19 1.64486e-08 0 0 0 -8.22432e-09)
(-9.60762e-09 0 0 4.20389e-19 1.92152e-08 0 0 0 -9.60762e-09)
(-2.16641e-08 0 0 1.79967e-19 4.33282e-08 0 0 0 -2.16641e-08)
(-2.4022e-08 0 0 1.48774e-19 4.8044e-08 0 0 0 -2.4022e-08)
(2.46596e-07 0 0 9.08846e-20 -4.93192e-07 0 0 0 2.46596e-07)
(-3.4014e-06 0 0 3.83143e-20 6.8028e-06 0 0 0 -3.4014e-06)
(-5.31185e-05 0 0 -2.4513e-19 0.000106237 0 0 0 -5.31185e-05)
(-3.25165e-05 0 0 -3.55982e-19 6.50331e-05 0 0 0 -3.25165e-05)
(2.69385e-05 0 0 -4.65987e-19 -5.38771e-05 0 0 0 2.69385e-05)
(3.6292e-05 0 0 -5.08323e-19 -7.2584e-05 0 0 0 3.6292e-05)
(1.59254e-07 0 0 -5.52437e-19 -3.18508e-07 0 0 0 1.59254e-07)
(-3.06037e-06 0 0 -6.03651e-19 6.12075e-06 0 0 0 -3.06037e-06)
(-7.86484e-08 0 0 -6.62405e-19 1.57297e-07 0 0 0 -7.86484e-08)
(2.21943e-07 0 0 -7.28582e-19 -4.43886e-07 0 0 0 2.21943e-07)
(2.0043e-08 0 0 -8.01524e-19 -4.0086e-08 0 0 0 2.0043e-08)
(-1.82207e-08 0 0 -8.80526e-19 3.64415e-08 0 0 0 -1.82207e-08)
(-1.89184e-09 0 0 -9.64799e-19 3.78369e-09 0 0 0 -1.89184e-09)
(1.2462e-09 0 0 -1.05349e-18 -2.4924e-09 0 0 0 1.2462e-09)
(2.41427e-10 0 0 -1.14569e-18 -4.82853e-10 0 0 0 2.41427e-10)
(-9.86762e-11 0 0 -1.24043e-18 1.97352e-10 0 0 0 -9.86762e-11)
(-1.97334e-11 0 0 -1.3367e-18 3.94668e-11 0 0 0 -1.97334e-11)
(5.52731e-12 0 0 -1.43347e-18 -1.10546e-11 0 0 0 5.52731e-12)
(1.84873e-12 0 0 -1.52969e-18 -3.69746e-12 0 0 0 1.84873e-12)
(-5.13029e-13 0 0 -1.62432e-18 1.02606e-12 0 0 0 -5.13029e-13)
(-1.71123e-13 0 0 -1.71633e-18 3.42246e-13 0 0 0 -1.71123e-13)
(4.93053e-14 0 0 -1.80472e-18 -9.86105e-14 0 0 0 4.93053e-14)
(7.27226e-14 0 0 -1.88851e-18 -1.45445e-13 0 0 0 7.27226e-14)
(4.14816e-14 0 0 -1.9668e-18 -8.29632e-14 0 0 0 4.14816e-14)
(-3.66982e-16 0 0 -2.03871e-18 7.33965e-16 0 0 0 -3.66982e-16)
(-2.25012e-14 0 0 -2.10348e-18 4.50024e-14 0 0 0 -2.25012e-14)
(2.63071e-15 0 0 -2.16037e-18 -5.26143e-15 0 0 0 2.63071e-15)
(3.82164e-14 0 0 -2.20877e-18 -7.64329e-14 0 0 0 3.82164e-14)
(1.20654e-13 0 0 -2.24815e-18 -2.41308e-13 0 0 0 1.20654e-13)
(1.45355e-13 0 0 -2.27808e-18 -2.9071e-13 0 0 0 1.45355e-13)
(6.51328e-13 0 0 -2.29821e-18 -1.30266e-12 0 0 0 6.51328e-13)
(3.05521e-12 0 0 -2.30908e-18 -6.11042e-12 0 0 0 3.05521e-12)
)
;

boundaryField
{
    inlet
    {
        type            cyclic;
    }
    outlet
    {
        type            cyclic;
    }
    top
    {
        type            extrapolatedCalculated;
        value           uniform (4.90614e-12 0 0 -2.31236e-18 -9.81229e-12 0 0 0 4.90614e-12);
    }
    bottom
    {
        type            extrapolatedCalculated;
        value           uniform (-4.84929e-09 0 0 7.82058e-19 9.69858e-09 0 0 0 -4.84929e-09);
    }
    frontAndBackPlanes
    {
        type            empty;
    }
}


// ************************************************************************* //
