/*--------------------------------*- C++ -*----------------------------------*\
| =========                 |                                                 |
| \\      /  F ield         | OpenFOAM: The Open Source CFD Toolbox           |
|  \\    /   O peration     | Version:  v2006                                 |
|   \\  /    A nd           | Website:  www.openfoam.com                      |
|    \\/     M anipulation  |                                                 |
\*---------------------------------------------------------------------------*/
FoamFile
{
    version     2.0;
    format      ascii;
    class       volVectorField;
    location    "1680";
    object      Ua;
}
// * * * * * * * * * * * * * * * * * * * * * * * * * * * * * * * * * * * * * //

dimensions      [0 1 -1 0 0 0 0];


internalField   nonuniform List<vector> 
120
(
(3.91046e-21 -3.39082e-11 0)
(1.17375e-20 -1.02017e-10 0)
(1.9579e-20 -1.71004e-10 0)
(2.73433e-20 -2.40824e-10 0)
(3.51412e-20 -3.11424e-10 0)
(4.29824e-20 -3.82809e-10 0)
(5.08764e-20 -4.54989e-10 0)
(5.86303e-20 -5.27966e-10 0)
(6.64562e-20 -6.01746e-10 0)
(7.45661e-20 -6.76331e-10 0)
(8.27669e-20 -7.51726e-10 0)
(9.10682e-20 -8.27935e-10 0)
(9.96816e-20 -9.04962e-10 0)
(1.08414e-19 -9.82811e-10 0)
(1.17275e-19 -1.06149e-09 0)
(1.26273e-19 -1.14099e-09 0)
(1.35418e-19 -1.22133e-09 0)
(1.44718e-19 -1.30251e-09 0)
(1.54182e-19 -1.38454e-09 0)
(1.63819e-19 -1.46741e-09 0)
(1.73638e-19 -1.55113e-09 0)
(1.83646e-19 -1.63571e-09 0)
(1.93851e-19 -1.72116e-09 0)
(2.04261e-19 -1.80747e-09 0)
(2.15693e-19 -1.89465e-09 0)
(2.27345e-19 -1.98271e-09 0)
(2.39223e-19 -2.07165e-09 0)
(2.5093e-19 -2.16148e-09 0)
(2.62875e-19 -2.2522e-09 0)
(2.75065e-19 -2.34382e-09 0)
(2.86696e-19 -2.43635e-09 0)
(2.97772e-19 -2.52979e-09 0)
(3.09106e-19 -2.62414e-09 0)
(3.20701e-19 -2.71942e-09 0)
(3.3256e-19 -2.81564e-09 0)
(3.44683e-19 -2.91279e-09 0)
(3.57882e-19 -3.0109e-09 0)
(3.72155e-19 -3.10997e-09 0)
(3.85886e-19 -3.21002e-09 0)
(4.00691e-19 -3.31105e-09 0)
(4.14143e-19 -3.4131e-09 0)
(4.28662e-19 -3.51616e-09 0)
(4.42628e-19 -3.62028e-09 0)
(4.56845e-19 -3.72546e-09 0)
(4.71305e-19 -3.83174e-09 0)
(4.86808e-19 -3.93916e-09 0)
(5.00926e-19 -4.04774e-09 0)
(5.15261e-19 -4.15753e-09 0)
(5.28997e-19 -4.26858e-09 0)
(5.44541e-19 -4.38093e-09 0)
(5.60268e-19 -4.49464e-09 0)
(5.76163e-19 -4.60977e-09 0)
(5.92211e-19 -4.72638e-09 0)
(6.08396e-19 -4.84454e-09 0)
(6.247e-19 -4.96431e-09 0)
(6.4191e-19 -5.08577e-09 0)
(6.59201e-19 -5.20897e-09 0)
(6.76553e-19 -5.33397e-09 0)
(6.93944e-19 -5.46083e-09 0)
(7.09742e-19 -5.58961e-09 0)
(7.25533e-19 -5.72032e-09 0)
(7.41294e-19 -5.85301e-09 0)
(7.57e-19 -5.98769e-09 0)
(7.72627e-19 -6.12437e-09 0)
(7.88149e-19 -6.26306e-09 0)
(8.01932e-19 -6.40377e-09 0)
(8.17166e-19 -6.54651e-09 0)
(8.32216e-19 -6.69132e-09 0)
(8.47057e-19 -6.83829e-09 0)
(8.61662e-19 -6.98753e-09 0)
(8.76006e-19 -7.13922e-09 0)
(8.88457e-19 -7.29362e-09 0)
(9.00594e-19 -7.45105e-09 0)
(9.12394e-19 -7.61191e-09 0)
(9.23831e-19 -7.77663e-09 0)
(9.34883e-19 -7.94567e-09 0)
(9.45526e-19 -8.11946e-09 0)
(9.55738e-19 -8.29832e-09 0)
(9.655e-19 -8.48239e-09 0)
(9.74791e-19 -8.67155e-09 0)
(9.83593e-19 -8.86541e-09 0)
(9.91888e-19 -9.06322e-09 0)
(9.99662e-19 -9.26319e-09 0)
(1.0069e-18 -9.46283e-09 0)
(1.01359e-18 -9.67239e-09 0)
(1.01972e-18 -9.92568e-09 0)
(1.0221e-18 -1.01555e-08 0)
(1.0239e-18 -9.97536e-09 0)
(1.02512e-18 -1.04991e-08 0)
(1.02574e-18 -1.75943e-08 0)
(1.02599e-18 -3.51427e-08 0)
(1.01952e-18 -0.000107131 0)
(1.00843e-18 -0.00016711 0)
(9.96216e-19 -0.00019327 0)
(9.82987e-19 -0.000228662 0)
(9.68579e-19 -0.000228553 0)
(9.528e-19 -0.000228512 0)
(9.35454e-19 -0.000228543 0)
(9.16367e-19 -0.000228549 0)
(8.95373e-19 -0.000228546 0)
(8.72335e-19 -0.000228546 0)
(8.47126e-19 -0.000228546 0)
(8.19654e-19 -0.000228546 0)
(7.89833e-19 -0.000228546 0)
(7.57624e-19 -0.000228546 0)
(7.22989e-19 -0.000228546 0)
(6.85942e-19 -0.000228546 0)
(6.46494e-19 -0.000228546 0)
(6.04713e-19 -0.000228546 0)
(5.60671e-19 -0.000228546 0)
(5.14465e-19 -0.000228546 0)
(4.6623e-19 -0.000228546 0)
(4.16113e-19 -0.000228546 0)
(3.64282e-19 -0.000228546 0)
(3.10925e-19 -0.000228546 0)
(2.56249e-19 -0.000228546 0)
(2.00472e-19 -0.000228546 0)
(1.43827e-19 -0.000228518 0)
(8.6554e-20 -0.000228481 0)
(2.89049e-20 -0.000228045 0)
)
;

boundaryField
{
    inlet
    {
        type            cyclic;
    }
    outlet
    {
        type            cyclic;
    }
    top
    {
        type            fixedValue;
        value           uniform (0 0 0);
    }
    bottom
    {
        type            fixedValue;
        value           uniform (0 0 0);
    }
    frontAndBackPlanes
    {
        type            empty;
    }
}


// ************************************************************************* //
