/*--------------------------------*- C++ -*----------------------------------*\
| =========                 |                                                 |
| \\      /  F ield         | OpenFOAM: The Open Source CFD Toolbox           |
|  \\    /   O peration     | Version:  v2006                                 |
|   \\  /    A nd           | Website:  www.openfoam.com                      |
|    \\/     M anipulation  |                                                 |
\*---------------------------------------------------------------------------*/
FoamFile
{
    version     2.0;
    format      ascii;
    class       volVectorField;
    location    "1680";
    object      Ub;
}
// * * * * * * * * * * * * * * * * * * * * * * * * * * * * * * * * * * * * * //

dimensions      [0 1 -1 0 0 0 0];


internalField   nonuniform List<vector> 
120
(
(3.91045e-21 7.27424e-11 0)
(1.17375e-20 1.32075e-10 0)
(1.95789e-20 2.56942e-10 0)
(2.73433e-20 3.61634e-10 0)
(3.51412e-20 4.67385e-10 0)
(4.29824e-20 5.74302e-10 0)
(5.08772e-20 6.82364e-10 0)
(5.86303e-20 7.91575e-10 0)
(6.6455e-20 9.01939e-10 0)
(7.45661e-20 1.01346e-09 0)
(8.27669e-20 1.12614e-09 0)
(9.10661e-20 1.24e-09 0)
(9.96816e-20 1.35502e-09 0)
(1.08414e-19 1.47121e-09 0)
(1.17275e-19 1.58859e-09 0)
(1.26273e-19 1.70715e-09 0)
(1.35418e-19 1.8269e-09 0)
(1.44718e-19 1.94784e-09 0)
(1.54182e-19 2.06997e-09 0)
(1.63819e-19 2.19331e-09 0)
(1.73638e-19 2.31786e-09 0)
(1.83646e-19 2.44361e-09 0)
(1.93851e-19 2.57058e-09 0)
(2.04239e-19 2.69877e-09 0)
(2.15693e-19 2.82819e-09 0)
(2.27345e-19 2.95883e-09 0)
(2.39236e-19 3.09071e-09 0)
(2.5093e-19 3.22382e-09 0)
(2.62876e-19 3.35818e-09 0)
(2.75095e-19 3.49379e-09 0)
(2.86728e-19 3.63065e-09 0)
(2.97773e-19 3.76877e-09 0)
(3.09106e-19 3.90816e-09 0)
(3.20701e-19 4.04883e-09 0)
(3.3256e-19 4.19077e-09 0)
(3.44645e-19 4.33401e-09 0)
(3.57842e-19 4.47854e-09 0)
(3.72195e-19 4.62439e-09 0)
(3.85845e-19 4.77157e-09 0)
(4.00778e-19 4.92009e-09 0)
(4.14098e-19 5.06997e-09 0)
(4.28708e-19 5.22123e-09 0)
(4.42629e-19 5.3739e-09 0)
(4.56845e-19 5.52801e-09 0)
(4.71254e-19 5.6836e-09 0)
(4.86913e-19 5.8407e-09 0)
(5.00926e-19 5.99936e-09 0)
(5.15316e-19 6.15964e-09 0)
(5.28882e-19 6.32159e-09 0)
(5.44541e-19 6.48528e-09 0)
(5.60268e-19 6.65077e-09 0)
(5.76163e-19 6.81816e-09 0)
(5.92211e-19 6.9875e-09 0)
(6.08396e-19 7.1589e-09 0)
(6.24633e-19 7.33243e-09 0)
(6.4191e-19 7.50817e-09 0)
(6.59201e-19 7.68621e-09 0)
(6.76554e-19 7.86661e-09 0)
(6.94092e-19 8.04943e-09 0)
(7.09743e-19 8.23472e-09 0)
(7.25533e-19 8.42251e-09 0)
(7.41294e-19 8.61283e-09 0)
(7.57e-19 8.80566e-09 0)
(7.72628e-19 9.00099e-09 0)
(7.88319e-19 9.19882e-09 0)
(8.01758e-19 9.39911e-09 0)
(8.17165e-19 9.60186e-09 0)
(8.32216e-19 9.8071e-09 0)
(8.47057e-19 1.00149e-08 0)
(8.61663e-19 1.02254e-08 0)
(8.76201e-19 1.04387e-08 0)
(8.88457e-19 1.06553e-08 0)
(9.00594e-19 1.08754e-08 0)
(9.12394e-19 1.10996e-08 0)
(9.23831e-19 1.13283e-08 0)
(9.34883e-19 1.1562e-08 0)
(9.45526e-19 1.18012e-08 0)
(9.55738e-19 1.2046e-08 0)
(9.655e-19 1.22964e-08 0)
(9.74791e-19 1.25517e-08 0)
(9.83593e-19 1.2811e-08 0)
(9.91888e-19 1.30723e-08 0)
(9.99662e-19 1.33344e-08 0)
(1.0069e-18 1.35981e-08 0)
(1.01359e-18 1.38577e-08 0)
(1.02025e-18 1.40971e-08 0)
(1.0221e-18 1.44411e-08 0)
(1.0239e-18 1.54136e-08 0)
(1.02512e-18 1.59024e-08 0)
(1.02574e-18 3.88815e-10 0)
(1.0259e-18 2.23718e-07 0)
(1.01951e-18 4.05569e-06 0)
(1.00841e-18 5.0161e-06 0)
(9.96206e-19 1.48491e-08 0)
(9.82988e-19 -4.28378e-07 0)
(9.68581e-19 -9.0419e-09 0)
(9.52801e-19 3.07354e-08 0)
(9.35456e-19 2.75684e-09 0)
(9.16368e-19 -2.56024e-09 0)
(8.95375e-19 -2.49991e-10 0)
(8.72336e-19 1.73214e-10 0)
(8.47129e-19 3.38209e-11 0)
(8.19655e-19 -1.37389e-11 0)
(7.89837e-19 -2.39765e-12 0)
(7.57626e-19 1.06435e-12 0)
(7.22994e-19 5.62737e-13 0)
(6.85943e-19 2.35155e-13 0)
(6.465e-19 2.85393e-13 0)
(6.04717e-19 3.12119e-13 0)
(5.60673e-19 3.11064e-13 0)
(5.1447e-19 3.04722e-13 0)
(4.66235e-19 3.00155e-13 0)
(4.16118e-19 2.98499e-13 0)
(3.64287e-19 3.0021e-13 0)
(3.10931e-19 3.01875e-13 0)
(2.56255e-19 2.99815e-13 0)
(2.00478e-19 2.96141e-13 0)
(1.43833e-19 2.81715e-13 0)
(8.65603e-20 2.74335e-13 0)
(2.89081e-20 1.84003e-13 0)
)
;

boundaryField
{
    inlet
    {
        type            cyclic;
    }
    outlet
    {
        type            cyclic;
    }
    top
    {
        type            fixedValue;
        value           uniform (0 0 0);
    }
    bottom
    {
        type            fixedValue;
        value           uniform (0 0 0);
    }
    frontAndBackPlanes
    {
        type            empty;
    }
}


// ************************************************************************* //
