/*--------------------------------*- C++ -*----------------------------------*\
| =========                 |                                                 |
| \\      /  F ield         | OpenFOAM: The Open Source CFD Toolbox           |
|  \\    /   O peration     | Version:  2206                                  |
|   \\  /    A nd           | Website:  www.openfoam.com                      |
|    \\/     M anipulation  |                                                 |
\*---------------------------------------------------------------------------*/
FoamFile
{
    version     2.0;
    format      ascii;
    arch        "LSB;label=32;scalar=64";
    class       volScalarField;
    location    "1120";
    object      nuFra;
}
// * * * * * * * * * * * * * * * * * * * * * * * * * * * * * * * * * * * * * //

dimensions      [0 2 -1 0 0 0 0];

internalField   nonuniform List<scalar> 
120
(
1
1
1
1
1
1
1
1
1
1
1
1
1
1
1
1
1
1
1
1
1
1
1
1
1
1
1
1
1
1
1
1
1
1
1
1
1
1
1
1
1
1
1
1
1
1
1
1
1
1
1
1
1
1
1
1
1
1
1
1
1
1
1
1
1
1
1
1
1
1
1
1
0.634617
0.538423
1
1.04566e-08
9.45881e-08
1.27055e-08
8.43026e-08
1.36765e-07
3.95785e-07
9.27962e-07
1.85482e-06
3.6764e-06
7.82688e-06
3.61341e-05
1.20832e-05
1.62091e-06
3.18625e-07
7.15243e-08
1.27405e-08
2.91866e-09
7.58085e-10
1.55877e-09
5.68126e-09
6.20221e-08
8.94943e-09
2.85807e-07
4.45661e-08
2.23456e-08
2.77321e-08
5.89799e-08
1.14223e-07
1.82227e-07
2.83359e-07
4.80196e-07
9.37795e-07
2.14334e-06
5.72123e-06
1.75639e-05
5.77562e-05
0.000159945
0.000273053
0.000303084
0.000232666
9.22932e-05
1.63177e-05
1.50159e-06
6.44515e-08
4.76302e-10
)
;

boundaryField
{
    inlet
    {
        type            cyclic;
    }
    outlet
    {
        type            cyclic;
    }
    top
    {
        type            calculated;
        value           uniform 2.39854e-10;
    }
    bottom
    {
        type            calculated;
        value           uniform 1;
    }
    frontAndBackPlanes
    {
        type            empty;
    }
}


// ************************************************************************* //
