/*--------------------------------*- C++ -*----------------------------------*\
| =========                 |                                                 |
| \\      /  F ield         | OpenFOAM: The Open Source CFD Toolbox           |
|  \\    /   O peration     | Version:  2206                                  |
|   \\  /    A nd           | Website:  www.openfoam.com                      |
|    \\/     M anipulation  |                                                 |
\*---------------------------------------------------------------------------*/
FoamFile
{
    version     2.0;
    format      ascii;
    arch        "LSB;label=32;scalar=64";
    class       volScalarField;
    location    "1120";
    object      pff;
}
// * * * * * * * * * * * * * * * * * * * * * * * * * * * * * * * * * * * * * //

dimensions      [1 -1 -2 0 0 0 0];

internalField   nonuniform List<scalar> 
120
(
19.9337
19.4005
19.4031
18.8263
18.8123
18.2491
18.2227
17.6743
17.6345
17.102
17.0477
16.5322
16.4627
15.9647
15.8794
15.3996
15.2981
14.8368
14.719
14.2763
14.1423
13.718
13.5682
13.1618
12.9967
12.6078
12.4283
12.056
11.8629
11.5063
11.3008
10.9587
10.7421
10.4134
10.1871
9.87047
9.63577
9.32996
9.08838
8.79205
8.54502
8.2569
8.00576
7.7247
7.47072
7.19564
6.93995
6.66996
6.41358
6.14794
5.89175
5.62993
5.37469
5.11633
4.86268
4.6076
4.356
4.10407
3.85485
3.60594
3.35916
3.11305
2.8686
2.62497
2.38262
2.14109
1.90037
1.66076
1.41935
1.17161
0.925894
0.708323
0.517141
0.338293
0.223832
0
0
0
0
0
0
0
0
0
0
0
0
0
0
0
0
0
0
0
0
0
0
0
0
0
0
0
0
0
0
0
0
0
0
0
0
0
0
0
0
0
0
0
0
0
)
;

boundaryField
{
    inlet
    {
        type            cyclic;
    }
    outlet
    {
        type            cyclic;
    }
    top
    {
        type            calculated;
        value           uniform 0;
    }
    bottom
    {
        type            calculated;
        value           uniform 19.9337;
    }
    frontAndBackPlanes
    {
        type            empty;
    }
}


// ************************************************************************* //
