/*--------------------------------*- C++ -*----------------------------------*\
| =========                 |                                                 |
| \\      /  F ield         | OpenFOAM: The Open Source CFD Toolbox           |
|  \\    /   O peration     | Version:  2206                                  |
|   \\  /    A nd           | Website:  www.openfoam.com                      |
|    \\/     M anipulation  |                                                 |
\*---------------------------------------------------------------------------*/
FoamFile
{
    version     2.0;
    format      ascii;
    arch        "LSB;label=32;scalar=64";
    class       surfaceScalarField;
    location    "1120";
    object      phi.a;
}
// * * * * * * * * * * * * * * * * * * * * * * * * * * * * * * * * * * * * * //

dimensions      [0 3 -1 0 0 0 0];

oriented        oriented;

internalField   nonuniform List<scalar> 
119
(
-1.0736e-15
-2.17619e-15
-3.28017e-15
-4.41583e-15
-5.5554e-15
-6.72624e-15
-7.90352e-15
-9.11151e-15
-1.03288e-14
-1.15762e-14
-1.28362e-14
-1.41254e-14
-1.54308e-14
-1.67647e-14
-1.81185e-14
-1.95001e-14
-2.09057e-14
-2.23383e-14
-2.37991e-14
-2.52864e-14
-2.68062e-14
-2.83519e-14
-2.99347e-14
-3.15433e-14
-3.31934e-14
-3.48697e-14
-3.65922e-14
-3.83418e-14
-4.01424e-14
-4.19719e-14
-4.38573e-14
-4.57744e-14
-4.77526e-14
-4.97663e-14
-5.18465e-14
-5.39669e-14
-5.61593e-14
-5.83978e-14
-6.07139e-14
-6.30827e-14
-6.55349e-14
-6.80475e-14
-7.06496e-14
-7.3321e-14
-7.60893e-14
-7.89382e-14
-8.18938e-14
-8.49448e-14
-8.81166e-14
-9.14042e-14
-9.48326e-14
-9.84036e-14
-1.02143e-13
-1.06057e-13
-1.10173e-13
-1.14502e-13
-1.19067e-13
-1.23883e-13
-1.2897e-13
-1.34345e-13
-1.40029e-13
-1.46052e-13
-1.52463e-13
-1.59337e-13
-1.66802e-13
-1.75068e-13
-1.84428e-13
-1.95344e-13
-2.08718e-13
-2.25736e-13
-2.46196e-13
-2.70567e-13
-3.01124e-13
-3.24493e-13
-3.44315e-13
-1.2464e-12
-1.78492e-12
-2.05876e-12
-2.198e-12
-2.26347e-12
-2.29435e-12
-2.30927e-12
-2.31652e-12
-2.32004e-12
-2.32173e-12
-2.32253e-12
-2.32299e-12
-2.32336e-12
-2.32192e-12
-2.3227e-12
-2.34536e-12
-2.13269e-12
-6.09365e-12
-5.09217e-11
-9.40349e-11
-8.24877e-11
-7.73446e-11
-7.66468e-11
-7.74914e-11
-7.91396e-11
-8.05396e-11
-8.12316e-11
-8.15747e-11
-8.17851e-11
-8.19207e-11
-8.2001e-11
-8.20422e-11
-8.20603e-11
-8.2067e-11
-8.20692e-11
-8.20699e-11
-8.20701e-11
-8.20701e-11
-8.20701e-11
-8.207e-11
-8.20696e-11
-8.20672e-11
-8.20414e-11
-8.14394e-11
)
;

boundaryField
{
    inlet
    {
        type            cyclic;
        value           nonuniform List<scalar> 
120
(
-2.07036e-27
-6.2149e-27
-1.03683e-26
-1.45365e-26
-1.87255e-26
-2.29415e-26
-2.71907e-26
-3.14787e-26
-3.58127e-26
-4.01999e-26
-4.46465e-26
-4.91593e-26
-5.37467e-26
-5.84148e-26
-6.31712e-26
-6.80237e-26
-7.29804e-26
-7.80495e-26
-8.32394e-26
-8.8559e-26
-9.40173e-26
-9.96233e-26
-1.05387e-25
-1.11317e-25
-1.17435e-25
-1.2374e-25
-1.30242e-25
-1.36949e-25
-1.43875e-25
-1.51034e-25
-1.58424e-25
-1.66057e-25
-1.73962e-25
-1.82152e-25
-1.9064e-25
-1.99434e-25
-2.08356e-25
-2.17637e-25
-2.27263e-25
-2.37285e-25
-2.47668e-25
-2.58485e-25
-2.69716e-25
-2.814e-25
-2.93559e-25
-3.06235e-25
-3.19379e-25
-3.33056e-25
-3.47262e-25
-3.62092e-25
-3.7751e-25
-3.9353e-25
-4.10164e-25
-4.27422e-25
-4.45309e-25
-4.63861e-25
-4.83046e-25
-5.02861e-25
-5.23306e-25
-5.44368e-25
-5.66006e-25
-5.88189e-25
-6.10862e-25
-6.33948e-25
-6.57365e-25
-6.80965e-25
-7.04974e-25
-7.29483e-25
-7.54879e-25
-7.81691e-25
-8.10401e-25
-8.41036e-25
-8.79883e-25
-9.29681e-25
-9.55445e-25
-9.63234e-25
-1.4132e-23
-1.68617e-23
-1.80097e-23
-1.91622e-23
-2.05146e-23
-2.21143e-23
-2.40558e-23
-2.65511e-23
-2.98608e-23
-3.35989e-23
-2.94294e-23
-2.51027e-23
-2.16379e-23
-1.89051e-23
-1.66354e-23
-1.47497e-23
-1.33407e-23
-1.27654e-23
-1.23138e-23
-1.17002e-23
-1.0722e-23
-1.02621e-23
-9.54551e-24
-6.45277e-24
-3.53368e-24
-2.05552e-24
-1.33161e-24
-8.68143e-25
-5.37236e-25
-3.15154e-25
-1.85988e-25
-1.22673e-25
-9.6487e-26
-8.723e-26
-8.42883e-26
-8.32942e-26
-8.28613e-26
-8.26306e-26
-8.24999e-26
-8.24338e-26
-8.2426e-26
-8.25602e-26
-8.33482e-26
-8.59884e-26
)
;
    }
    outlet
    {
        type            cyclic;
        value           nonuniform List<scalar> 
120
(
2.07036e-27
6.2149e-27
1.03683e-26
1.45365e-26
1.87255e-26
2.29415e-26
2.71907e-26
3.14787e-26
3.58127e-26
4.01999e-26
4.46465e-26
4.91593e-26
5.37467e-26
5.84148e-26
6.31712e-26
6.80237e-26
7.29804e-26
7.80495e-26
8.32394e-26
8.8559e-26
9.40173e-26
9.96233e-26
1.05387e-25
1.11317e-25
1.17435e-25
1.2374e-25
1.30242e-25
1.36949e-25
1.43875e-25
1.51034e-25
1.58424e-25
1.66057e-25
1.73962e-25
1.82152e-25
1.9064e-25
1.99434e-25
2.08356e-25
2.17637e-25
2.27263e-25
2.37285e-25
2.47668e-25
2.58485e-25
2.69716e-25
2.814e-25
2.93559e-25
3.06235e-25
3.19379e-25
3.33056e-25
3.47262e-25
3.62092e-25
3.7751e-25
3.9353e-25
4.10164e-25
4.27422e-25
4.45309e-25
4.63861e-25
4.83046e-25
5.02861e-25
5.23306e-25
5.44368e-25
5.66006e-25
5.88189e-25
6.10862e-25
6.33948e-25
6.57365e-25
6.80965e-25
7.04974e-25
7.29483e-25
7.54879e-25
7.81691e-25
8.10401e-25
8.41036e-25
8.79883e-25
9.29681e-25
9.55445e-25
9.63234e-25
1.4132e-23
1.68617e-23
1.80097e-23
1.91622e-23
2.05146e-23
2.21143e-23
2.40558e-23
2.65511e-23
2.98608e-23
3.35989e-23
2.94294e-23
2.51027e-23
2.16379e-23
1.89051e-23
1.66354e-23
1.47497e-23
1.33407e-23
1.27654e-23
1.23138e-23
1.17002e-23
1.0722e-23
1.02621e-23
9.54551e-24
6.45277e-24
3.53368e-24
2.05552e-24
1.33161e-24
8.68143e-25
5.37236e-25
3.15154e-25
1.85988e-25
1.22673e-25
9.6487e-26
8.723e-26
8.42883e-26
8.32942e-26
8.28613e-26
8.26306e-26
8.24999e-26
8.24338e-26
8.2426e-26
8.25602e-26
8.33482e-26
8.59884e-26
)
;
    }
    top
    {
        type            fixedValue;
        value           uniform 0;
    }
    bottom
    {
        type            fixedValue;
        value           uniform 0;
    }
    frontAndBackPlanes
    {
        type            empty;
        value           nonuniform List<scalar> 0();
    }
}


// ************************************************************************* //
