/*--------------------------------*- C++ -*----------------------------------*\
| =========                 |                                                 |
| \\      /  F ield         | OpenFOAM: The Open Source CFD Toolbox           |
|  \\    /   O peration     | Version:  2206                                  |
|   \\  /    A nd           | Website:  www.openfoam.com                      |
|    \\/     M anipulation  |                                                 |
\*---------------------------------------------------------------------------*/
FoamFile
{
    version     2.0;
    format      ascii;
    arch        "LSB;label=32;scalar=64";
    class       surfaceScalarField;
    location    "1120";
    object      phi.b;
}
// * * * * * * * * * * * * * * * * * * * * * * * * * * * * * * * * * * * * * //

dimensions      [0 3 -1 0 0 0 0];

oriented        oriented;

internalField   nonuniform List<scalar> 
119
(
1.60305e-15
3.24859e-15
4.89529e-15
6.58835e-15
8.28634e-15
1.003e-14
1.17824e-14
1.35794e-14
1.53893e-14
1.72428e-14
1.91138e-14
2.10273e-14
2.29637e-14
2.4941e-14
2.69468e-14
2.89922e-14
3.10722e-14
3.31905e-14
3.53494e-14
3.75454e-14
3.97884e-14
4.20678e-14
4.44005e-14
4.67693e-14
4.91977e-14
5.16625e-14
5.41937e-14
5.67624e-14
5.94043e-14
6.20859e-14
6.48477e-14
6.76531e-14
7.05461e-14
7.34876e-14
7.65243e-14
7.96163e-14
8.28111e-14
8.60689e-14
8.94371e-14
9.28779e-14
9.64369e-14
1.00079e-13
1.03847e-13
1.07711e-13
1.1171e-13
1.15821e-13
1.2008e-13
1.24471e-13
1.2903e-13
1.33749e-13
1.38663e-13
1.43774e-13
1.49118e-13
1.54704e-13
1.60567e-13
1.66724e-13
1.73205e-13
1.8003e-13
1.87223e-13
1.94805e-13
2.02804e-13
2.11256e-13
2.20225e-13
2.29812e-13
2.4019e-13
2.51641e-13
2.6457e-13
2.79596e-13
2.97945e-13
3.21209e-13
3.49038e-13
3.82012e-13
4.23031e-13
4.53409e-13
4.63145e-13
1.51916e-12
1.9697e-12
2.15535e-12
2.24643e-12
2.28697e-12
2.30573e-12
2.31479e-12
2.31919e-12
2.32133e-12
2.32235e-12
2.32284e-12
2.32309e-12
2.32323e-12
2.3229e-12
2.32559e-12
2.32748e-12
2.14648e-12
4.21797e-12
9.3747e-12
1.34449e-14
5.14547e-17
3.45587e-18
-5.45455e-19
-1.88844e-19
1.04485e-18
1.1749e-18
-1.16842e-19
4.87419e-19
-7.55342e-19
-6.75119e-19
-3.55196e-19
-2.77173e-19
-1.58616e-19
7.03576e-19
3.36371e-19
5.15513e-19
2.18428e-19
-4.5171e-19
1.39043e-19
-6.28073e-19
6.96664e-20
-1.31713e-18
2.87692e-19
2.06991e-19
)
;

boundaryField
{
    inlet
    {
        type            cyclic;
        value           nonuniform List<scalar> 
120
(
-2.07036e-27
-6.21491e-27
-1.03724e-26
-1.45365e-26
-1.87255e-26
-2.29416e-26
-2.72124e-26
-3.14787e-26
-3.57838e-26
-4.01998e-26
-4.46463e-26
-4.91193e-26
-5.37465e-26
-5.84147e-26
-6.31712e-26
-6.80237e-26
-7.29804e-26
-7.80495e-26
-8.32394e-26
-8.8559e-26
-9.40173e-26
-9.96233e-26
-1.05385e-25
-1.10953e-25
-1.17433e-25
-1.23741e-25
-1.30454e-25
-1.3695e-25
-1.43877e-25
-1.51522e-25
-1.58934e-25
-1.6606e-25
-1.73962e-25
-1.82152e-25
-1.90638e-25
-1.98805e-25
-2.07706e-25
-2.18308e-25
-2.26569e-25
-2.38741e-25
-2.46918e-25
-2.5927e-25
-2.69719e-25
-2.81396e-25
-2.92687e-25
-3.08059e-25
-3.19391e-25
-3.3403e-25
-3.4523e-25
-3.62083e-25
-3.7751e-25
-3.9353e-25
-4.10164e-25
-4.27416e-25
-4.4404e-25
-4.63855e-25
-4.83046e-25
-5.02875e-25
-5.26268e-25
-5.44381e-25
-5.66006e-25
-5.88189e-25
-6.10862e-25
-6.33965e-25
-6.61148e-25
-6.77002e-25
-7.04955e-25
-7.29483e-25
-7.54879e-25
-7.81717e-25
-8.15846e-25
-8.41097e-25
-8.79958e-25
-9.29638e-25
-9.5584e-25
-1.04033e-24
-1.41317e-23
-1.68616e-23
-1.80097e-23
-1.91621e-23
-2.05145e-23
-2.21141e-23
-2.40551e-23
-2.65494e-23
-2.98508e-23
-3.35761e-23
-2.94174e-23
-2.50979e-23
-2.16374e-23
-1.8905e-23
-1.66354e-23
-1.47497e-23
-1.33408e-23
-1.27655e-23
-1.23842e-23
-1.17528e-23
-1.1144e-23
-1.05561e-23
-9.98711e-24
-9.43504e-24
-8.89817e-24
-8.37491e-24
-7.86386e-24
-7.36376e-24
-6.87351e-24
-6.39216e-24
-5.91883e-24
-5.45277e-24
-4.99328e-24
-4.53973e-24
-4.09152e-24
-3.64811e-24
-3.20896e-24
-2.77355e-24
-2.34138e-24
-1.91194e-24
-1.48473e-24
-1.05927e-24
-6.3505e-25
-2.11576e-25
)
;
    }
    outlet
    {
        type            cyclic;
        value           nonuniform List<scalar> 
120
(
2.07036e-27
6.21491e-27
1.03724e-26
1.45365e-26
1.87255e-26
2.29416e-26
2.72124e-26
3.14787e-26
3.57838e-26
4.01998e-26
4.46463e-26
4.91193e-26
5.37465e-26
5.84147e-26
6.31712e-26
6.80237e-26
7.29804e-26
7.80495e-26
8.32394e-26
8.8559e-26
9.40173e-26
9.96233e-26
1.05385e-25
1.10953e-25
1.17433e-25
1.23741e-25
1.30454e-25
1.3695e-25
1.43877e-25
1.51522e-25
1.58934e-25
1.6606e-25
1.73962e-25
1.82152e-25
1.90638e-25
1.98805e-25
2.07706e-25
2.18308e-25
2.26569e-25
2.38741e-25
2.46918e-25
2.5927e-25
2.69719e-25
2.81396e-25
2.92687e-25
3.08059e-25
3.19391e-25
3.3403e-25
3.4523e-25
3.62083e-25
3.7751e-25
3.9353e-25
4.10164e-25
4.27416e-25
4.4404e-25
4.63855e-25
4.83046e-25
5.02875e-25
5.26268e-25
5.44381e-25
5.66006e-25
5.88189e-25
6.10862e-25
6.33965e-25
6.61148e-25
6.77002e-25
7.04955e-25
7.29483e-25
7.54879e-25
7.81717e-25
8.15846e-25
8.41097e-25
8.79958e-25
9.29638e-25
9.5584e-25
1.04033e-24
1.41317e-23
1.68616e-23
1.80097e-23
1.91621e-23
2.05145e-23
2.21141e-23
2.40551e-23
2.65494e-23
2.98508e-23
3.35761e-23
2.94174e-23
2.50979e-23
2.16374e-23
1.8905e-23
1.66354e-23
1.47497e-23
1.33408e-23
1.27655e-23
1.23842e-23
1.17528e-23
1.1144e-23
1.05561e-23
9.98711e-24
9.43504e-24
8.89817e-24
8.37491e-24
7.86386e-24
7.36376e-24
6.87351e-24
6.39216e-24
5.91883e-24
5.45277e-24
4.99328e-24
4.53973e-24
4.09152e-24
3.64811e-24
3.20896e-24
2.77355e-24
2.34138e-24
1.91194e-24
1.48473e-24
1.05927e-24
6.3505e-25
2.11576e-25
)
;
    }
    top
    {
        type            fixedValue;
        value           uniform 0;
    }
    bottom
    {
        type            fixedValue;
        value           uniform 0;
    }
    frontAndBackPlanes
    {
        type            empty;
        value           nonuniform List<scalar> 0();
    }
}


// ************************************************************************* //
