/*--------------------------------*- C++ -*----------------------------------*\
| =========                 |                                                 |
| \\      /  F ield         | OpenFOAM: The Open Source CFD Toolbox           |
|  \\    /   O peration     | Version:  2206                                  |
|   \\  /    A nd           | Website:  www.openfoam.com                      |
|    \\/     M anipulation  |                                                 |
\*---------------------------------------------------------------------------*/
FoamFile
{
    version     2.0;
    format      ascii;
    arch        "LSB;label=32;scalar=64";
    class       volVectorField;
    location    "1120";
    object      U.a;
}
// * * * * * * * * * * * * * * * * * * * * * * * * * * * * * * * * * * * * * //

dimensions      [0 1 -1 0 0 0 0];

internalField   nonuniform List<vector> 
120
(
(6.9012e-21 1.41555e-08 0)
(2.07163e-20 -4.17607e-09 0)
(3.45611e-20 -7.91382e-09 0)
(4.84549e-20 -1.03086e-08 0)
(6.24184e-20 -1.42237e-08 0)
(7.64717e-20 -1.66388e-08 0)
(9.06355e-20 -2.07291e-08 0)
(1.04929e-19 -2.31786e-08 0)
(1.19376e-19 -2.74407e-08 0)
(1.34e-19 -2.9941e-08 0)
(1.48822e-19 -3.4371e-08 0)
(1.63864e-19 -3.69402e-08 0)
(1.79156e-19 -4.15338e-08 0)
(1.94716e-19 -4.4192e-08 0)
(2.10571e-19 -4.89445e-08 0)
(2.26746e-19 -5.17132e-08 0)
(2.43268e-19 -5.66201e-08 0)
(2.60165e-19 -5.95221e-08 0)
(2.77465e-19 -6.45789e-08 0)
(2.95197e-19 -6.7638e-08 0)
(3.13391e-19 -7.2841e-08 0)
(3.32078e-19 -7.60815e-08 0)
(3.51289e-19 -8.14282e-08 0)
(3.71058e-19 -8.4875e-08 0)
(3.91449e-19 -9.03644e-08 0)
(4.12465e-19 -9.40427e-08 0)
(4.34142e-19 -9.96768e-08 0)
(4.56496e-19 -1.03612e-07 0)
(4.79584e-19 -1.09396e-07 0)
(5.03446e-19 -1.13616e-07 0)
(5.28079e-19 -1.1956e-07 0)
(5.53525e-19 -1.24091e-07 0)
(5.79874e-19 -1.3021e-07 0)
(6.07172e-19 -1.35082e-07 0)
(6.35468e-19 -1.41396e-07 0)
(6.6478e-19 -1.46639e-07 0)
(6.94521e-19 -1.53175e-07 0)
(7.25457e-19 -1.5882e-07 0)
(7.57542e-19 -1.6561e-07 0)
(7.90952e-19 -1.71688e-07 0)
(8.25558e-19 -1.78769e-07 0)
(8.61616e-19 -1.85313e-07 0)
(8.99052e-19 -1.92727e-07 0)
(9.38001e-19 -1.99769e-07 0)
(9.78531e-19 -2.07567e-07 0)
(1.02078e-18 -2.1515e-07 0)
(1.0646e-18 -2.23393e-07 0)
(1.11019e-18 -2.3157e-07 0)
(1.15754e-18 -2.40343e-07 0)
(1.20697e-18 -2.49191e-07 0)
(1.25837e-18 -2.58607e-07 0)
(1.31177e-18 -2.68238e-07 0)
(1.36721e-18 -2.78445e-07 0)
(1.42474e-18 -2.8901e-07 0)
(1.48436e-18 -3.00193e-07 0)
(1.5462e-18 -3.11875e-07 0)
(1.61015e-18 -3.24243e-07 0)
(1.6762e-18 -3.37238e-07 0)
(1.74435e-18 -3.50998e-07 0)
(1.81456e-18 -3.655e-07 0)
(1.88669e-18 -3.80853e-07 0)
(1.96063e-18 -3.97079e-07 0)
(2.03621e-18 -4.14315e-07 0)
(2.11316e-18 -4.32692e-07 0)
(2.19122e-18 -4.52502e-07 0)
(2.26988e-18 -4.74164e-07 0)
(2.34991e-18 -4.98414e-07 0)
(2.43161e-18 -5.26159e-07 0)
(2.51626e-18 -5.59038e-07 0)
(2.60564e-18 -6.00437e-07 0)
(2.70134e-18 -6.53587e-07 0)
(2.80345e-18 -7.14068e-07 0)
(2.93294e-18 -7.88716e-07 0)
(3.09894e-18 -8.84461e-07 0)
(3.18482e-18 -9.19519e-07 0)
(3.21078e-18 -9.1899e-07 0)
(4.71068e-17 -2.17049e-05 0)
(5.62056e-17 -3.18988e-06 0)
(6.00323e-17 -4.54843e-06 0)
(6.38739e-17 -5.75064e-06 0)
(6.83821e-17 -6.14576e-06 0)
(7.37145e-17 -6.30206e-06 0)
(8.01858e-17 -6.38015e-06 0)
(8.85037e-17 -6.4193e-06 0)
(9.95361e-17 -6.43931e-06 0)
(1.11996e-16 -6.44709e-06 0)
(9.80981e-17 -6.44533e-06 0)
(8.36756e-17 -6.42952e-06 0)
(7.21262e-17 -6.57945e-06 0)
(6.3017e-17 -7.10311e-06 0)
(5.54513e-17 -3.53255e-06 0)
(4.91656e-17 9.83353e-06 0)
(4.44691e-17 -7.85768e-05 0)
(4.25515e-17 -0.00027311 0)
(4.1046e-17 -0.000220303 0)
(3.90008e-17 -0.000240726 0)
(3.57401e-17 -0.000217128 0)
(3.4207e-17 -0.000212576 0)
(3.18184e-17 -0.000213244 0)
(2.15092e-17 -0.000217263 0)
(1.17789e-17 -0.000222399 0)
(6.85173e-18 -0.000225043 0)
(4.43869e-18 -0.000226244 0)
(2.89381e-18 -0.000226949 0)
(1.79079e-18 -0.000227413 0)
(1.05051e-18 -0.000227702 0)
(6.19959e-19 -0.000227859 0)
(4.08909e-19 -0.000227931 0)
(3.21623e-19 -0.000227959 0)
(2.90767e-19 -0.000227969 0)
(2.80961e-19 -0.000227971 0)
(2.77647e-19 -0.000227972 0)
(2.76204e-19 -0.000227973 0)
(2.75435e-19 -0.000227973 0)
(2.75e-19 -0.000227973 0)
(2.74779e-19 -0.000227972 0)
(2.74753e-19 -0.00022797 0)
(2.75201e-19 -0.000227959 0)
(2.77827e-19 -0.000227827 0)
(2.86628e-19 -0.000224615 0)
)
;

boundaryField
{
    inlet
    {
        type            cyclic;
    }
    outlet
    {
        type            cyclic;
    }
    top
    {
        type            fixedValue;
        value           uniform (0 0 0);
    }
    bottom
    {
        type            fixedValue;
        value           uniform (0 0 0);
    }
    frontAndBackPlanes
    {
        type            empty;
    }
}


// ************************************************************************* //
