/*--------------------------------*- C++ -*----------------------------------*\
| =========                 |                                                 |
| \\      /  F ield         | OpenFOAM: The Open Source CFD Toolbox           |
|  \\    /   O peration     | Version:  2206                                  |
|   \\  /    A nd           | Website:  www.openfoam.com                      |
|    \\/     M anipulation  |                                                 |
\*---------------------------------------------------------------------------*/
FoamFile
{
    version     2.0;
    format      ascii;
    arch        "LSB;label=32;scalar=64";
    class       volVectorField;
    location    "1120";
    object      U.b;
}
// * * * * * * * * * * * * * * * * * * * * * * * * * * * * * * * * * * * * * //

dimensions      [0 1 -1 0 0 0 0];

internalField   nonuniform List<vector> 
120
(
(6.90121e-21 1.75991e-08 0)
(2.07164e-20 7.09205e-09 0)
(3.45746e-20 1.09599e-08 0)
(4.8455e-20 1.63296e-08 0)
(6.24184e-20 2.02768e-08 0)
(7.6472e-20 2.58644e-08 0)
(9.0708e-20 2.98724e-08 0)
(1.04929e-19 3.56887e-08 0)
(1.19279e-19 3.97766e-08 0)
(1.33999e-19 4.582e-08 0)
(1.48821e-19 5.0008e-08 0)
(1.63731e-19 5.62771e-08 0)
(1.79155e-19 6.05883e-08 0)
(1.94716e-19 6.70811e-08 0)
(2.10571e-19 7.15399e-08 0)
(2.26746e-19 7.82542e-08 0)
(2.43268e-19 8.28873e-08 0)
(2.60165e-19 8.98218e-08 0)
(2.77465e-19 9.46575e-08 0)
(2.95197e-19 1.0181e-07 0)
(3.13391e-19 1.06877e-07 0)
(3.32078e-19 1.14249e-07 0)
(3.51284e-19 1.19578e-07 0)
(3.69842e-19 1.27169e-07 0)
(3.91444e-19 1.32792e-07 0)
(4.12468e-19 1.40606e-07 0)
(4.34847e-19 1.46554e-07 0)
(4.56499e-19 1.54601e-07 0)
(4.79591e-19 1.60908e-07 0)
(5.05074e-19 1.69199e-07 0)
(5.29779e-19 1.75901e-07 0)
(5.53532e-19 1.84455e-07 0)
(5.79874e-19 1.9159e-07 0)
(6.07172e-19 2.00433e-07 0)
(6.35459e-19 2.08042e-07 0)
(6.62682e-19 2.17207e-07 0)
(6.92352e-19 2.25332e-07 0)
(7.27693e-19 2.3486e-07 0)
(7.55229e-19 2.43544e-07 0)
(7.95804e-19 2.53479e-07 0)
(8.23061e-19 2.62768e-07 0)
(8.64232e-19 2.73164e-07 0)
(8.99064e-19 2.83104e-07 0)
(9.37988e-19 2.94022e-07 0)
(9.75622e-19 3.04666e-07 0)
(1.02686e-18 3.16178e-07 0)
(1.06464e-18 3.27592e-07 0)
(1.11343e-18 3.39795e-07 0)
(1.15077e-18 3.52072e-07 0)
(1.20694e-18 3.65097e-07 0)
(1.25837e-18 3.7837e-07 0)
(1.31177e-18 3.92395e-07 0)
(1.36721e-18 4.06845e-07 0)
(1.42472e-18 4.22097e-07 0)
(1.48013e-18 4.37956e-07 0)
(1.54618e-18 4.54701e-07 0)
(1.61015e-18 4.72227e-07 0)
(1.67625e-18 4.9074e-07 0)
(1.75423e-18 5.1019e-07 0)
(1.8146e-18 5.30733e-07 0)
(1.88669e-18 5.52363e-07 0)
(1.96063e-18 5.75235e-07 0)
(2.03621e-18 5.99442e-07 0)
(2.11322e-18 6.25264e-07 0)
(2.20383e-18 6.5306e-07 0)
(2.25667e-18 6.83514e-07 0)
(2.34985e-18 7.17534e-07 0)
(2.43161e-18 7.56636e-07 0)
(2.51626e-18 8.03595e-07 0)
(2.60572e-18 8.61958e-07 0)
(2.71949e-18 9.31923e-07 0)
(2.80366e-18 1.01785e-06 0)
(2.93319e-18 1.12086e-06 0)
(3.09879e-18 1.20116e-06 0)
(3.18613e-18 1.19659e-06 0)
(3.46775e-18 3.46346e-06 0)
(4.71056e-17 -1.16829e-05 0)
(5.62054e-17 8.03935e-06 0)
(6.00323e-17 7.55441e-06 0)
(6.38738e-17 6.78305e-06 0)
(6.83818e-17 6.58264e-06 0)
(7.37136e-17 6.51841e-06 0)
(8.01838e-17 6.48514e-06 0)
(8.84979e-17 6.46776e-06 0)
(9.95027e-17 6.45833e-06 0)
(1.1192e-16 6.45554e-06 0)
(9.80581e-17 6.45955e-06 0)
(8.36596e-17 6.47688e-06 0)
(7.21245e-17 6.33134e-06 0)
(6.30167e-17 5.80137e-06 0)
(5.54513e-17 9.31731e-06 0)
(4.91656e-17 2.25799e-05 0)
(4.44692e-17 -6.55486e-05 0)
(4.25517e-17 -0.000219561 0)
(4.12808e-17 6.21675e-05 0)
(3.91761e-17 2.8149e-05 0)
(3.71468e-17 -1.23915e-06 0)
(3.51871e-17 -2.24471e-06 0)
(3.32904e-17 -2.15131e-07 0)
(3.14501e-17 1.38656e-07 0)
(2.96606e-17 3.48097e-08 0)
(2.79164e-17 -5.70581e-09 0)
(2.62129e-17 -3.37565e-09 0)
(2.45459e-17 -3.04015e-11 0)
(2.29117e-17 2.49305e-10 0)
(2.13072e-17 3.57112e-11 0)
(1.97294e-17 -1.49211e-11 0)
(1.81759e-17 -5.39046e-12 0)
(1.66443e-17 1.20353e-12 0)
(1.51324e-17 1.9669e-12 0)
(1.36384e-17 1.3982e-12 0)
(1.21604e-17 1.15232e-12 0)
(1.06965e-17 -3.63828e-13 0)
(9.24517e-18 -4.5127e-13 0)
(7.80459e-18 -7.97171e-13 0)
(6.37312e-18 -9.11972e-13 0)
(4.94911e-18 -1.95341e-12 0)
(3.5309e-18 -1.47504e-12 0)
(2.11683e-18 1.03208e-12 0)
(7.05255e-19 2.14737e-12 0)
)
;

boundaryField
{
    inlet
    {
        type            cyclic;
    }
    outlet
    {
        type            cyclic;
    }
    top
    {
        type            fixedValue;
        value           uniform (0 0 0);
    }
    bottom
    {
        type            fixedValue;
        value           uniform (0 0 0);
    }
    frontAndBackPlanes
    {
        type            empty;
    }
}


// ************************************************************************* //
