/*--------------------------------*- C++ -*----------------------------------*\
| =========                 |                                                 |
| \\      /  F ield         | OpenFOAM: The Open Source CFD Toolbox           |
|  \\    /   O peration     | Version:  v2006                                 |
|   \\  /    A nd           | Website:  www.openfoam.com                      |
|    \\/     M anipulation  |                                                 |
\*---------------------------------------------------------------------------*/
FoamFile
{
    version     2.0;
    format      ascii;
    class       volScalarField;
    location    "1280";
    object      p;
}
// * * * * * * * * * * * * * * * * * * * * * * * * * * * * * * * * * * * * * //

dimensions      [1 -1 -2 0 0 0 0];


internalField   nonuniform List<scalar> 
120
(
1.52041
-3.13972
-7.80022
-12.4611
-17.1224
-21.784
-26.4461
-31.1085
-35.7714
-40.4347
-45.0984
-49.7625
-54.427
-59.092
-63.7574
-68.4233
-73.0896
-77.7563
-82.4236
-87.0913
-91.7594
-96.4281
-101.097
-105.767
-110.437
-115.108
-119.779
-124.451
-129.123
-133.796
-138.469
-143.143
-147.818
-152.493
-157.168
-161.845
-166.522
-171.199
-175.877
-180.556
-185.236
-189.916
-194.597
-199.278
-203.961
-208.644
-213.328
-218.012
-222.698
-227.384
-232.071
-236.759
-241.448
-246.137
-250.828
-255.519
-260.212
-264.905
-269.6
-274.296
-278.992
-283.69
-288.389
-293.09
-297.791
-302.494
-307.198
-311.904
-316.611
-321.32
-326.031
-330.743
-335.457
-340.173
-344.891
-349.612
-354.336
-359.062
-363.791
-368.523
-373.26
-378
-382.744
-387.492
-392.249
-397.04
-401.841
-406.754
-411.666
-416.576
-421.499
-426.342
-431.027
-435.688
-440.347
-445.006
-449.666
-454.326
-458.985
-463.645
-468.305
-472.965
-477.624
-482.284
-486.944
-491.604
-496.263
-500.923
-505.583
-510.243
-514.902
-519.562
-524.222
-528.882
-533.541
-538.201
-542.861
-547.521
-552.18
-556.84
)
;

boundaryField
{
    inlet
    {
        type            cyclic;
    }
    outlet
    {
        type            cyclic;
    }
    top
    {
        type            calculated;
        value           uniform -559.17;
    }
    bottom
    {
        type            calculated;
        value           uniform 3.85028;
    }
    frontAndBackPlanes
    {
        type            empty;
    }
}


// ************************************************************************* //
