/*--------------------------------*- C++ -*----------------------------------*\
| =========                 |                                                 |
| \\      /  F ield         | OpenFOAM: The Open Source CFD Toolbox           |
|  \\    /   O peration     | Version:  v2006                                 |
|   \\  /    A nd           | Website:  www.openfoam.com                      |
|    \\/     M anipulation  |                                                 |
\*---------------------------------------------------------------------------*/
FoamFile
{
    version     2.0;
    format      ascii;
    class       volScalarField;
    location    "1280";
    object      pff;
}
// * * * * * * * * * * * * * * * * * * * * * * * * * * * * * * * * * * * * * //

dimensions      [1 -1 -2 0 0 0 0];


internalField   nonuniform List<scalar> 
120
(
22.5821
22.2884
21.995
21.702
21.4095
21.1173
20.8256
20.5343
20.2434
19.953
19.663
19.3734
19.0843
18.7956
18.5074
18.2197
17.9324
17.6456
17.3593
17.0735
16.7882
16.5033
16.219
15.9353
15.652
15.3693
15.0871
14.8055
14.5244
14.2439
13.964
13.6846
13.4059
13.1278
12.8503
12.5734
12.2971
12.0215
11.7466
11.4723
11.1988
10.9259
10.6537
10.3823
10.1116
9.84164
9.57246
9.30406
9.03645
8.76967
8.50371
8.23861
7.97439
7.71107
7.44867
7.18723
6.92675
6.66728
6.40883
6.15144
5.89511
5.63987
5.38575
5.13275
4.8809
4.63023
4.38075
4.13251
3.88555
3.63993
3.39573
3.153
2.91182
2.6722
2.43413
2.19746
1.96186
1.72656
1.49008
1.25104
1.01377
0.786428
0.578731
0.396918
0.2525
0.130363
0
0
0
0
0
0
0
0
0
0
0
0
0
0
0
0
0
0
0
0
0
0
0
0
0
0
0
0
0
0
0
0
0
0
)
;

boundaryField
{
    inlet
    {
        type            cyclic;
    }
    outlet
    {
        type            cyclic;
    }
    top
    {
        type            calculated;
        value           uniform 0;
    }
    bottom
    {
        type            calculated;
        value           uniform 22.5821;
    }
    frontAndBackPlanes
    {
        type            empty;
    }
}


// ************************************************************************* //
