/*--------------------------------*- C++ -*----------------------------------*\
| =========                 |                                                 |
| \\      /  F ield         | OpenFOAM: The Open Source CFD Toolbox           |
|  \\    /   O peration     | Version:  v2006                                 |
|   \\  /    A nd           | Website:  www.openfoam.com                      |
|    \\/     M anipulation  |                                                 |
\*---------------------------------------------------------------------------*/
FoamFile
{
    version     2.0;
    format      ascii;
    class       surfaceScalarField;
    location    "1280";
    object      phia;
}
// * * * * * * * * * * * * * * * * * * * * * * * * * * * * * * * * * * * * * //

dimensions      [0 3 -1 0 0 0 0];
oriented        oriented;


internalField   nonuniform List<scalar> 
119
(
-9.41143e-16
-1.89488e-15
-2.8615e-15
-3.84132e-15
-4.83467e-15
-5.84187e-15
-6.86327e-15
-7.89925e-15
-8.95017e-15
-1.00164e-14
-1.10984e-14
-1.21966e-14
-1.33113e-14
-1.44432e-14
-1.55925e-14
-1.67599e-14
-1.79458e-14
-1.91507e-14
-2.03753e-14
-2.16201e-14
-2.28856e-14
-2.41725e-14
-2.54815e-14
-2.68132e-14
-2.81683e-14
-2.95476e-14
-3.0952e-14
-3.23822e-14
-3.38391e-14
-3.53237e-14
-3.6837e-14
-3.83801e-14
-3.99542e-14
-4.15603e-14
-4.31998e-14
-4.4874e-14
-4.65844e-14
-4.83322e-14
-5.01192e-14
-5.19468e-14
-5.38168e-14
-5.57309e-14
-5.76909e-14
-5.96988e-14
-6.17568e-14
-6.38671e-14
-6.60323e-14
-6.82551e-14
-7.05386e-14
-7.28862e-14
-7.53017e-14
-7.77894e-14
-8.03538e-14
-8.30001e-14
-8.57337e-14
-8.85605e-14
-9.14868e-14
-9.45191e-14
-9.76642e-14
-1.00929e-13
-1.04322e-13
-1.0785e-13
-1.11523e-13
-1.15351e-13
-1.19348e-13
-1.23529e-13
-1.27918e-13
-1.3254e-13
-1.37431e-13
-1.42636e-13
-1.48208e-13
-1.54211e-13
-1.60718e-13
-1.67809e-13
-1.75568e-13
-1.84086e-13
-1.93467e-13
-2.03859e-13
-2.15514e-13
-2.28861e-13
-2.43843e-13
-2.58521e-13
-2.75813e-13
-3.09468e-13
-4.25642e-13
-6.00082e-13
-1.56886e-12
-1.99943e-12
-2.17168e-12
-1.9649e-12
-7.39179e-12
-3.7225e-11
-4.99017e-11
-8.25038e-11
-8.22785e-11
-8.22745e-11
-8.22735e-11
-8.22766e-11
-8.22768e-11
-8.22766e-11
-8.22766e-11
-8.22766e-11
-8.22766e-11
-8.22766e-11
-8.22766e-11
-8.22766e-11
-8.22766e-11
-8.22766e-11
-8.22766e-11
-8.22766e-11
-8.22766e-11
-8.22766e-11
-8.22766e-11
-8.22766e-11
-8.22766e-11
-8.22766e-11
-8.22766e-11
-8.22565e-11
-8.21697e-11
)
;

boundaryField
{
    inlet
    {
        type            cyclic;
        value           nonuniform List<scalar> 
120
(
-7.09316e-28
-2.12941e-27
-3.55292e-27
-4.95174e-27
-6.35853e-27
-7.77559e-27
-9.20523e-27
-1.0589e-26
-1.19901e-26
-1.34715e-26
-1.49749e-26
-1.65028e-26
-1.81182e-26
-1.97629e-26
-2.14394e-26
-2.31503e-26
-2.4898e-26
-2.66852e-26
-2.85145e-26
-3.03884e-26
-3.23095e-26
-3.42806e-26
-3.63044e-26
-3.83834e-26
-4.07629e-26
-4.32032e-26
-4.57067e-26
-4.81549e-26
-5.06718e-26
-5.32599e-26
-5.56793e-26
-5.79327e-26
-6.02651e-26
-6.26792e-26
-6.51773e-26
-6.77595e-26
-7.06733e-26
-7.39237e-26
-7.70259e-26
-8.04669e-26
-8.35223e-26
-8.69216e-26
-9.01829e-26
-9.35512e-26
-9.70296e-26
-1.00863e-25
-1.04329e-25
-1.07915e-25
-1.11382e-25
-1.15464e-25
-1.19679e-25
-1.24033e-25
-1.28534e-25
-1.33188e-25
-1.38004e-25
-1.43234e-25
-1.48645e-25
-1.54251e-25
-1.60071e-25
-1.65629e-25
-1.71424e-25
-1.77479e-25
-1.83819e-25
-1.90467e-25
-1.97451e-25
-2.04316e-25
-2.12066e-25
-2.20255e-25
-2.28925e-25
-2.38127e-25
-2.4792e-25
-2.57887e-25
-2.68598e-25
-2.80141e-25
-2.92595e-25
-3.06008e-25
-3.20362e-25
-3.3553e-25
-3.51228e-25
-3.67002e-25
-3.82274e-25
-3.96578e-25
-4.10199e-25
-4.32433e-25
-5.25792e-25
-1.24912e-24
-1.30962e-23
-3.83355e-23
-3.42321e-23
-2.90265e-23
-2.522e-23
-2.40996e-23
-2.32196e-23
-2.18828e-23
-2.06108e-23
-1.94051e-23
-1.82608e-23
-1.71719e-23
-1.61334e-23
-1.51407e-23
-1.41894e-23
-1.32754e-23
-1.23951e-23
-1.15453e-23
-1.07229e-23
-9.92543e-24
-9.15035e-24
-8.39572e-24
-7.6595e-24
-6.93979e-24
-6.23504e-24
-5.54361e-24
-4.86395e-24
-4.19475e-24
-3.53435e-24
-2.8815e-24
-2.23479e-24
-1.59283e-24
-9.54275e-25
-3.17788e-25
)
;
    }
    outlet
    {
        type            cyclic;
        value           nonuniform List<scalar> 
120
(
7.09316e-28
2.12941e-27
3.55292e-27
4.95174e-27
6.35853e-27
7.77559e-27
9.20523e-27
1.0589e-26
1.19901e-26
1.34715e-26
1.49749e-26
1.65028e-26
1.81182e-26
1.97629e-26
2.14394e-26
2.31503e-26
2.4898e-26
2.66852e-26
2.85145e-26
3.03884e-26
3.23095e-26
3.42806e-26
3.63044e-26
3.83834e-26
4.07629e-26
4.32032e-26
4.57067e-26
4.81549e-26
5.06718e-26
5.32599e-26
5.56793e-26
5.79327e-26
6.02651e-26
6.26792e-26
6.51773e-26
6.77595e-26
7.06733e-26
7.39237e-26
7.70259e-26
8.04669e-26
8.35223e-26
8.69216e-26
9.01829e-26
9.35512e-26
9.70296e-26
1.00863e-25
1.04329e-25
1.07915e-25
1.11382e-25
1.15464e-25
1.19679e-25
1.24033e-25
1.28534e-25
1.33188e-25
1.38004e-25
1.43234e-25
1.48645e-25
1.54251e-25
1.60071e-25
1.65629e-25
1.71424e-25
1.77479e-25
1.83819e-25
1.90467e-25
1.97451e-25
2.04316e-25
2.12066e-25
2.20255e-25
2.28925e-25
2.38127e-25
2.4792e-25
2.57887e-25
2.68598e-25
2.80141e-25
2.92595e-25
3.06008e-25
3.20362e-25
3.3553e-25
3.51228e-25
3.67002e-25
3.82274e-25
3.96578e-25
4.10199e-25
4.32433e-25
5.25792e-25
1.24912e-24
1.30962e-23
3.83355e-23
3.42321e-23
2.90265e-23
2.522e-23
2.40996e-23
2.32196e-23
2.18828e-23
2.06108e-23
1.94051e-23
1.82608e-23
1.71719e-23
1.61334e-23
1.51407e-23
1.41894e-23
1.32754e-23
1.23951e-23
1.15453e-23
1.07229e-23
9.92543e-24
9.15035e-24
8.39572e-24
7.6595e-24
6.93979e-24
6.23504e-24
5.54361e-24
4.86395e-24
4.19475e-24
3.53435e-24
2.8815e-24
2.23479e-24
1.59283e-24
9.54275e-25
3.17788e-25
)
;
    }
    top
    {
        type            fixedValue;
        value           uniform 0;
    }
    bottom
    {
        type            fixedValue;
        value           uniform 0;
    }
    frontAndBackPlanes
    {
        type            empty;
        value           nonuniform List<scalar> 0();
    }
}


// ************************************************************************* //
