/*--------------------------------*- C++ -*----------------------------------*\
| =========                 |                                                 |
| \\      /  F ield         | OpenFOAM: The Open Source CFD Toolbox           |
|  \\    /   O peration     | Version:  v2006                                 |
|   \\  /    A nd           | Website:  www.openfoam.com                      |
|    \\/     M anipulation  |                                                 |
\*---------------------------------------------------------------------------*/
FoamFile
{
    version     2.0;
    format      ascii;
    class       surfaceScalarField;
    location    "1280";
    object      phib;
}
// * * * * * * * * * * * * * * * * * * * * * * * * * * * * * * * * * * * * * //

dimensions      [0 3 -1 0 0 0 0];
oriented        oriented;


internalField   nonuniform List<scalar> 
119
(
1.40842e-15
2.83505e-15
4.28029e-15
5.7446e-15
7.22843e-15
8.73224e-15
1.02565e-14
1.18018e-14
1.33687e-14
1.49576e-14
1.65691e-14
1.82039e-14
1.98626e-14
2.15457e-14
2.32541e-14
2.49883e-14
2.67491e-14
2.85372e-14
3.03533e-14
3.21984e-14
3.40732e-14
3.59786e-14
3.79155e-14
3.98848e-14
4.18875e-14
4.39248e-14
4.59977e-14
4.81074e-14
5.02551e-14
5.24423e-14
5.46702e-14
5.69404e-14
5.92545e-14
6.16142e-14
6.40212e-14
6.64773e-14
6.89845e-14
7.15448e-14
7.41603e-14
7.68333e-14
7.95659e-14
8.23607e-14
8.52201e-14
8.81469e-14
9.1144e-14
9.42145e-14
9.73619e-14
1.0059e-13
1.03903e-13
1.07306e-13
1.10803e-13
1.14401e-13
1.18106e-13
1.21925e-13
1.25866e-13
1.29937e-13
1.34145e-13
1.38501e-13
1.43012e-13
1.4769e-13
1.52543e-13
1.57582e-13
1.62821e-13
1.68272e-13
1.73953e-13
1.79887e-13
1.86102e-13
1.92636e-13
1.99537e-13
2.06865e-13
2.14695e-13
2.23112e-13
2.32216e-13
2.42113e-13
2.52914e-13
2.64732e-13
2.77696e-13
2.91988e-13
3.07921e-13
3.26042e-13
3.462e-13
3.6557e-13
3.88188e-13
4.33194e-13
5.91806e-13
7.74929e-13
1.79777e-12
2.11917e-12
2.22195e-12
2.05304e-12
4.81238e-12
5.82898e-12
3.88486e-15
2.79685e-16
3.58527e-18
3.15232e-18
2.74568e-18
2.65989e-18
2.48774e-18
2.4717e-18
2.3204e-18
2.27145e-18
2.08476e-18
2.03948e-18
1.93588e-18
1.97106e-18
1.8908e-18
1.88806e-18
1.76872e-18
1.71642e-18
1.55894e-18
1.5013e-18
1.40458e-18
1.40851e-18
1.3394e-18
1.32711e-18
1.24265e-18
1.20967e-18
1.10419e-18
)
;

boundaryField
{
    inlet
    {
        type            cyclic;
        value           nonuniform List<scalar> 
120
(
-7.09316e-28
-2.12943e-27
-3.55633e-27
-4.95175e-27
-6.35853e-27
-7.77567e-27
-9.22389e-27
-1.0589e-26
-1.19653e-26
-1.34714e-26
-1.49748e-26
-1.64684e-26
-1.8118e-26
-1.97629e-26
-2.14394e-26
-2.31503e-26
-2.4898e-26
-2.66852e-26
-2.85145e-26
-3.03884e-26
-3.23095e-26
-3.42806e-26
-3.6303e-26
-3.80737e-26
-4.07616e-26
-4.32039e-26
-4.58858e-26
-4.81557e-26
-5.06736e-26
-5.36712e-26
-5.61082e-26
-5.79346e-26
-6.02651e-26
-6.26791e-26
-6.5175e-26
-6.72361e-26
-7.01326e-26
-7.44801e-26
-7.64516e-26
-8.16683e-26
-8.29054e-26
-8.75662e-26
-9.01857e-26
-9.3548e-26
-9.63189e-26
-1.02344e-25
-1.04339e-25
-1.087e-25
-1.09748e-25
-1.15456e-25
-1.19679e-25
-1.24033e-25
-1.28534e-25
-1.33184e-25
-1.37011e-25
-1.43229e-25
-1.48645e-25
-1.54262e-25
-1.62331e-25
-1.65639e-25
-1.71424e-25
-1.77479e-25
-1.83819e-25
-1.9048e-25
-2.00191e-25
-2.0148e-25
-2.12053e-25
-2.20255e-25
-2.28925e-25
-2.38142e-25
-2.5132e-25
-2.57903e-25
-2.68598e-25
-2.80141e-25
-2.92595e-25
-3.06008e-25
-3.20362e-25
-3.3553e-25
-3.51228e-25
-3.67002e-25
-3.82274e-25
-3.96578e-25
-4.1023e-25
-4.32708e-25
-5.29137e-25
-1.33698e-24
-1.34358e-23
-3.83347e-23
-3.4232e-23
-2.90266e-23
-2.522e-23
-2.40997e-23
-2.32185e-23
-2.18798e-23
-2.061e-23
-1.94053e-23
-1.8261e-23
-1.7172e-23
-1.61336e-23
-1.51409e-23
-1.41895e-23
-1.32755e-23
-1.23952e-23
-1.15454e-23
-1.0723e-23
-9.92549e-24
-9.15047e-24
-8.39581e-24
-7.65954e-24
-6.93987e-24
-6.23512e-24
-5.54369e-24
-4.86407e-24
-4.19479e-24
-3.53443e-24
-2.88158e-24
-2.23486e-24
-1.59291e-24
-9.54346e-25
-3.17824e-25
)
;
    }
    outlet
    {
        type            cyclic;
        value           nonuniform List<scalar> 
120
(
7.09316e-28
2.12943e-27
3.55633e-27
4.95175e-27
6.35853e-27
7.77567e-27
9.22389e-27
1.0589e-26
1.19653e-26
1.34714e-26
1.49748e-26
1.64684e-26
1.8118e-26
1.97629e-26
2.14394e-26
2.31503e-26
2.4898e-26
2.66852e-26
2.85145e-26
3.03884e-26
3.23095e-26
3.42806e-26
3.6303e-26
3.80737e-26
4.07616e-26
4.32039e-26
4.58858e-26
4.81557e-26
5.06736e-26
5.36712e-26
5.61082e-26
5.79346e-26
6.02651e-26
6.26791e-26
6.5175e-26
6.72361e-26
7.01326e-26
7.44801e-26
7.64516e-26
8.16683e-26
8.29054e-26
8.75662e-26
9.01857e-26
9.3548e-26
9.63189e-26
1.02344e-25
1.04339e-25
1.087e-25
1.09748e-25
1.15456e-25
1.19679e-25
1.24033e-25
1.28534e-25
1.33184e-25
1.37011e-25
1.43229e-25
1.48645e-25
1.54262e-25
1.62331e-25
1.65639e-25
1.71424e-25
1.77479e-25
1.83819e-25
1.9048e-25
2.00191e-25
2.0148e-25
2.12053e-25
2.20255e-25
2.28925e-25
2.38142e-25
2.5132e-25
2.57903e-25
2.68598e-25
2.80141e-25
2.92595e-25
3.06008e-25
3.20362e-25
3.3553e-25
3.51228e-25
3.67002e-25
3.82274e-25
3.96578e-25
4.1023e-25
4.32708e-25
5.29137e-25
1.33698e-24
1.34358e-23
3.83347e-23
3.4232e-23
2.90266e-23
2.522e-23
2.40997e-23
2.32185e-23
2.18798e-23
2.061e-23
1.94053e-23
1.8261e-23
1.7172e-23
1.61336e-23
1.51409e-23
1.41895e-23
1.32755e-23
1.23952e-23
1.15454e-23
1.0723e-23
9.92549e-24
9.15047e-24
8.39581e-24
7.65954e-24
6.93987e-24
6.23512e-24
5.54369e-24
4.86407e-24
4.19479e-24
3.53443e-24
2.88158e-24
2.23486e-24
1.59291e-24
9.54346e-25
3.17824e-25
)
;
    }
    top
    {
        type            fixedValue;
        value           uniform 0;
    }
    bottom
    {
        type            fixedValue;
        value           uniform 0;
    }
    frontAndBackPlanes
    {
        type            empty;
        value           nonuniform List<scalar> 0();
    }
}


// ************************************************************************* //
