/*--------------------------------*- C++ -*----------------------------------*\
| =========                 |                                                 |
| \\      /  F ield         | OpenFOAM: The Open Source CFD Toolbox           |
|  \\    /   O peration     | Version:  v2006                                 |
|   \\  /    A nd           | Website:  www.openfoam.com                      |
|    \\/     M anipulation  |                                                 |
\*---------------------------------------------------------------------------*/
FoamFile
{
    version     2.0;
    format      ascii;
    class       volTensorField;
    location    "1280";
    object      Taua;
}
// * * * * * * * * * * * * * * * * * * * * * * * * * * * * * * * * * * * * * //

dimensions      [1 -1 -2 0 0 0 0];


internalField   nonuniform List<tensor> 
120
(
(0.00183197 0 0 9.93556e-15 -0.00366394 0 0 0 0.00183197)
(0.00185254 0 0 9.95262e-15 -0.00370509 0 0 0 0.00185254)
(0.00187936 0 0 9.87815e-15 -0.00375872 0 0 0 0.00187936)
(0.00190536 0 0 9.81965e-15 -0.00381071 0 0 0 0.00190536)
(0.00193153 0 0 9.88349e-15 -0.00386305 0 0 0 0.00193153)
(0.00195844 0 0 9.96346e-15 -0.00391688 0 0 0 0.00195844)
(0.00198607 0 0 9.84711e-15 -0.00397214 0 0 0 0.00198607)
(0.0020144 0 0 9.74711e-15 -0.00402879 0 0 0 0.0020144)
(0.00204345 0 0 1.00887e-14 -0.0040869 0 0 0 0.00204345)
(0.00207327 0 0 1.04469e-14 -0.00414654 0 0 0 0.00207327)
(0.00210388 0 0 1.06094e-14 -0.00420775 0 0 0 0.00210388)
(0.00213531 0 0 1.10013e-14 -0.00427062 0 0 0 0.00213531)
(0.00216759 0 0 1.14104e-14 -0.00433518 0 0 0 0.00216759)
(0.00220076 0 0 1.16244e-14 -0.00440152 0 0 0 0.00220076)
(0.00223485 0 0 1.18559e-14 -0.0044697 0 0 0 0.00223485)
(0.00226989 0 0 1.21052e-14 -0.00453979 0 0 0 0.00226989)
(0.00230593 0 0 1.23723e-14 -0.00461185 0 0 0 0.00230593)
(0.00234299 0 0 1.26575e-14 -0.00468598 0 0 0 0.00234299)
(0.00238112 0 0 1.29609e-14 -0.00476223 0 0 0 0.00238112)
(0.00242035 0 0 1.32827e-14 -0.00484071 0 0 0 0.00242035)
(0.00246075 0 0 1.3623e-14 -0.0049215 0 0 0 0.00246075)
(0.00250235 0 0 1.39819e-14 -0.0050047 0 0 0 0.00250235)
(0.00254521 0 0 1.43595e-14 -0.00509043 0 0 0 0.00254521)
(0.0025894 0 0 1.56051e-14 -0.00517881 0 0 0 0.0025894)
(0.00263499 0 0 1.68693e-14 -0.00526997 0 0 0 0.00263499)
(0.00268204 0 0 1.73032e-14 -0.00536408 0 0 0 0.00268204)
(0.00273065 0 0 1.73311e-14 -0.00546129 0 0 0 0.00273065)
(0.0027809 0 0 1.73777e-14 -0.0055618 0 0 0 0.0027809)
(0.0028329 0 0 1.78673e-14 -0.00566581 0 0 0 0.0028329)
(0.00288676 0 0 1.75264e-14 -0.00577352 0 0 0 0.00288676)
(0.00294258 0 0 1.63549e-14 -0.00588516 0 0 0 0.00294258)
(0.00300049 0 0 1.60504e-14 -0.00600097 0 0 0 0.00300049)
(0.0030606 0 0 1.66127e-14 -0.0061212 0 0 0 0.0030606)
(0.00312305 0 0 1.71927e-14 -0.0062461 0 0 0 0.00312305)
(0.00318795 0 0 1.77813e-14 -0.0063759 0 0 0 0.00318795)
(0.00325544 3.68135e-17 0 1.92359e-14 -0.00651088 0 0 0 0.00325544)
(0.00332563 0 0 2.15748e-14 -0.00665126 0 0 0 0.00332563)
(0.00339866 0 0 2.2234e-14 -0.00679731 0 0 0 0.00339866)
(0.00347464 0 0 2.29011e-14 -0.00694929 0 0 0 0.00347464)
(0.00355373 0 0 2.27374e-14 -0.00710746 0 0 0 0.00355373)
(0.00363606 0 0 2.25914e-14 -0.00727212 0 0 0 0.00363606)
(0.0037218 0 0 2.33121e-14 -0.00744359 0 0 0 0.0037218)
(0.00381114 0 0 2.32037e-14 -0.00762228 0 0 0 0.00381114)
(0.00390432 0 0 2.39635e-14 -0.00780864 0 0 0 0.00390432)
(0.00400163 0 0 2.55926e-14 -0.00800325 0 0 0 0.00400163)
(0.0041034 0 0 2.5548e-14 -0.0082068 0 0 0 0.0041034)
(0.00421006 0 0 2.46797e-14 -0.00842013 0 0 0 0.00421006)
(0.00432212 0 0 2.4687e-14 -0.00864423 0 0 0 0.00432212)
(0.00444014 0 0 2.64211e-14 -0.00888029 0 0 0 0.00444014)
(0.00456481 0 0 2.9037e-14 -0.00912962 0 0 0 0.00456481)
(0.00469687 0 0 2.99944e-14 -0.00939373 0 0 0 0.00469687)
(0.00483711 0 0 3.09941e-14 -0.00967421 0 0 0 0.00483711)
(0.00498637 0 0 3.20422e-14 -0.00997275 0 0 0 0.00498637)
(0.00514551 0 0 3.31452e-14 -0.010291 0 0 0 0.00514551)
(0.00531532 0 0 3.51591e-14 -0.0106306 0 0 0 0.00531532)
(0.00549657 0 0 3.7244e-14 -0.0109931 0 0 0 0.00549657)
(0.00568994 0 0 3.85616e-14 -0.0113799 0 0 0 0.00568994)
(0.00589602 0 0 3.99895e-14 -0.011792 0 0 0 0.00589602)
(0.00611536 -7.36271e-17 0 3.98227e-14 -0.0122307 0 0 0 0.00611536)
(0.00634856 0 0 3.97344e-14 -0.0126971 0 0 0 0.00634856)
(0.00659641 0 0 4.14753e-14 -0.0131928 0 0 0 0.00659641)
(0.0068601 0 0 4.33835e-14 -0.0137202 0 0 0 0.0068601)
(0.00714156 0 0 4.54572e-14 -0.0142831 0 0 0 0.00714156)
(0.00744383 0 0 4.77131e-14 -0.0148877 0 0 0 0.00744383)
(0.00777156 0 0 4.84697e-14 -0.0155431 0 0 0 0.00777156)
(0.00813147 0 0 5.1153e-14 -0.0162629 0 0 0 0.00813147)
(0.00853278 0 0 5.57883e-14 -0.0170656 0 0 0 0.00853278)
(0.00898757 0 0 5.9005e-14 -0.0179751 0 0 0 0.00898757)
(0.00951077 0 0 6.25503e-14 -0.0190215 0 0 0 0.00951077)
(0.0101198 0 0 6.6483e-14 -0.0202396 0 0 0 0.0101198)
(0.0108337 0 0 6.9161e-14 -0.0216674 0 0 0 0.0108337)
(0.0116715 0 0 7.23738e-14 -0.0233431 0 0 0 0.0116715)
(0.0126506 0 0 7.78905e-14 -0.0253013 0 0 0 0.0126506)
(0.0137849 0 0 8.39891e-14 -0.0275698 0 0 0 0.0137849)
(0.0150841 0 0 9.05341e-14 -0.0301682 0 0 0 0.0150841)
(0.0165545 0 0 9.71854e-14 -0.033109 0 0 0 0.0165545)
(0.0182154 0 0 1.03326e-13 -0.0364308 0 0 0 0.0182154)
(0.0201878 0 0 1.08031e-13 -0.0403756 0 0 0 0.0201878)
(0.0228126 0 0 1.10154e-13 -0.0456253 0 0 0 0.0228126)
(0.0261399 0 0 1.08658e-13 -0.0522797 0 0 0 0.0261399)
(0.0287556 0 0 1.03514e-13 -0.0575112 0 0 0 0.0287556)
(0.0293251 0 0 9.77372e-14 -0.0586501 0 0 0 0.0293251)
(0.0332254 0 0 1.25495e-13 -0.0664509 0 0 0 0.0332254)
(0.0237386 0 0 1.54332e-13 -0.0474772 0 0 0 0.0237386)
(0.0140231 0 0 1.92041e-13 -0.0280461 0 0 0 0.0140231)
(0.00663156 0 0 1.64023e-13 -0.0132631 0 0 0 0.00663156)
(7.12694e-07 0 0 7.09293e-17 -1.42539e-06 0 0 0 7.12694e-07)
(-1.39515e-06 0 0 3.85819e-17 2.79031e-06 0 0 0 -1.39515e-06)
(-2.55403e-06 0 0 -1.65358e-17 5.10807e-06 0 0 0 -2.55403e-06)
(1.75823e-05 0 0 -1.58947e-17 -3.51646e-05 0 0 0 1.75823e-05)
(4.26362e-05 0 0 -8.93292e-18 -8.52725e-05 0 0 0 4.26362e-05)
(1.52073e-06 0 0 -1.89474e-18 -3.04146e-06 0 0 0 1.52073e-06)
(-3.31527e-09 0 0 -1.15458e-21 6.63054e-09 0 0 0 -3.31527e-09)
(2.7394e-10 0 0 -6.09323e-23 -5.47881e-10 0 0 0 2.7394e-10)
(1.12579e-17 0 0 -4.09469e-30 -2.25159e-17 0 0 0 1.12579e-17)
(-6.5444e-26 0 0 -5.18636e-37 1.30888e-25 0 0 0 -6.5444e-26)
(-3.76318e-32 0 0 -4.24644e-43 7.52637e-32 0 0 0 -3.76318e-32)
(1.54652e-39 0 0 -2.57267e-49 -3.09304e-39 0 0 0 1.54652e-39)
(8.86916e-46 0 0 -1.08676e-55 -1.77383e-45 0 0 0 8.86916e-46)
(-5.81991e-54 0 0 -3.38756e-62 1.16398e-53 0 0 0 -5.81991e-54)
(-6.19895e-60 0 0 -8.76148e-69 1.23979e-59 0 0 0 -6.19895e-60)
(-3.33735e-68 0 0 -1.83709e-75 6.67469e-68 0 0 0 -3.33735e-68)
(2.02098e-74 0 0 -3.34296e-82 -4.04197e-74 0 0 0 2.02098e-74)
(2.14672e-82 0 0 -5.02457e-89 -4.29344e-82 0 0 0 2.14672e-82)
(-3.2919e-89 0 0 -6.75568e-96 6.5838e-89 0 0 0 -3.2919e-89)
(-4.86372e-97 0 0 -7.94108e-103 9.72744e-97 0 0 0 -4.86372e-97)
(3.53563e-104 0 0 -8.82787e-110 -7.07127e-104 0 0 0 3.53563e-104)
(7.59947e-112 0 0 -8.76511e-117 -1.51989e-111 0 0 0 7.59947e-112)
(-1.17544e-121 0 0 -8.13745e-124 2.35088e-121 0 0 0 -1.17544e-121)
(2.05148e-126 0 0 -6.64593e-131 -4.10296e-126 0 0 0 2.05148e-126)
(2.2958e-133 0 0 -4.97218e-138 -4.5916e-133 0 0 0 2.2958e-133)
(1.26665e-140 0 0 -3.20463e-145 -2.53331e-140 0 0 0 1.26665e-140)
(4.78204e-148 0 0 -1.90641e-152 -9.56408e-148 0 0 0 4.78204e-148)
(-1.17166e-154 0 0 -1.04471e-159 2.34331e-154 0 0 0 -1.17166e-154)
(-1.24783e-161 0 0 -6.07282e-167 2.49566e-161 0 0 0 -1.24783e-161)
(-1.66612e-167 0 0 -4.09413e-174 3.33224e-167 0 0 0 -1.66612e-167)
(-8.08233e-172 0 0 -3.73903e-181 1.61647e-171 0 0 0 -8.08233e-172)
(-2.09851e-178 0 0 -4.11691e-188 4.19701e-178 0 0 0 -2.09851e-178)
(-1.83825e-184 0 0 -4.95712e-195 3.67649e-184 0 0 0 -1.83825e-184)
(-2.06641e-188 0 0 -5.75785e-202 4.13283e-188 0 0 0 -2.06641e-188)
)
;

boundaryField
{
    inlet
    {
        type            cyclic;
    }
    outlet
    {
        type            cyclic;
    }
    top
    {
        type            extrapolatedCalculated;
        value           uniform (-4.12889e-188 0 0 -5.75373e-202 8.25778e-188 0 0 0 -4.12889e-188);
    }
    bottom
    {
        type            extrapolatedCalculated;
        value           uniform (0.00182511 0 0 9.93043e-15 -0.00365022 0 0 0 0.00182511);
    }
    frontAndBackPlanes
    {
        type            empty;
    }
}


// ************************************************************************* //
