/*--------------------------------*- C++ -*----------------------------------*\
| =========                 |                                                 |
| \\      /  F ield         | OpenFOAM: The Open Source CFD Toolbox           |
|  \\    /   O peration     | Version:  v2006                                 |
|   \\  /    A nd           | Website:  www.openfoam.com                      |
|    \\/     M anipulation  |                                                 |
\*---------------------------------------------------------------------------*/
FoamFile
{
    version     2.0;
    format      ascii;
    class       volTensorField;
    location    "1280";
    object      Taub;
}
// * * * * * * * * * * * * * * * * * * * * * * * * * * * * * * * * * * * * * //

dimensions      [1 -1 -2 0 0 0 0];


internalField   nonuniform List<tensor> 
120
(
(-1.30969e-07 0 0 4.72812e-19 2.61938e-07 0 0 0 -1.30969e-07)
(-1.3207e-07 0 0 4.74165e-19 2.6414e-07 0 0 0 -1.3207e-07)
(-1.33706e-07 0 0 4.70027e-19 2.67412e-07 0 0 0 -1.33706e-07)
(-1.35482e-07 0 0 4.66649e-19 2.70964e-07 0 0 0 -1.35482e-07)
(-1.37287e-07 0 0 4.7024e-19 2.74573e-07 0 0 0 -1.37287e-07)
(-1.3913e-07 0 0 4.77114e-19 2.7826e-07 0 0 0 -1.3913e-07)
(-1.41017e-07 0 0 4.68426e-19 2.82035e-07 0 0 0 -1.41017e-07)
(-1.42952e-07 0 0 4.56419e-19 2.85903e-07 0 0 0 -1.42952e-07)
(-1.44935e-07 0 0 4.79866e-19 2.8987e-07 0 0 0 -1.44935e-07)
(-1.46969e-07 0 0 5.00997e-19 2.93938e-07 0 0 0 -1.46969e-07)
(-1.49055e-07 0 0 4.98876e-19 2.98111e-07 0 0 0 -1.49055e-07)
(-1.51197e-07 0 0 5.23196e-19 3.02394e-07 0 0 0 -1.51197e-07)
(-1.53395e-07 0 0 5.48346e-19 3.0679e-07 0 0 0 -1.53395e-07)
(-1.55652e-07 0 0 5.52784e-19 3.11304e-07 0 0 0 -1.55652e-07)
(-1.5797e-07 0 0 5.63732e-19 3.1594e-07 0 0 0 -1.5797e-07)
(-1.60352e-07 0 0 5.75546e-19 3.20704e-07 0 0 0 -1.60352e-07)
(-1.62799e-07 0 0 5.88208e-19 3.25598e-07 0 0 0 -1.62799e-07)
(-1.65314e-07 0 0 6.01727e-19 3.30629e-07 0 0 0 -1.65314e-07)
(-1.679e-07 0 0 6.1611e-19 3.35801e-07 0 0 0 -1.679e-07)
(-1.7056e-07 0 0 6.31364e-19 3.41119e-07 0 0 0 -1.7056e-07)
(-1.73296e-07 0 0 6.47493e-19 3.46591e-07 0 0 0 -1.73296e-07)
(-1.76111e-07 0 0 6.64279e-19 3.52223e-07 0 0 0 -1.76111e-07)
(-1.7901e-07 0 0 6.30892e-19 3.58021e-07 0 0 0 -1.7901e-07)
(-1.81997e-07 0 0 7.41539e-19 3.63994e-07 0 0 0 -1.81997e-07)
(-1.85076e-07 0 0 8.53191e-19 3.70152e-07 0 0 0 -1.85076e-07)
(-1.88252e-07 0 0 8.5212e-19 3.76503e-07 0 0 0 -1.88252e-07)
(-1.9153e-07 0 0 8.23376e-19 3.8306e-07 0 0 0 -1.9153e-07)
(-1.94917e-07 0 0 7.96042e-19 3.89834e-07 0 0 0 -1.94917e-07)
(-1.98419e-07 0 0 9.16966e-19 3.96839e-07 0 0 0 -1.98419e-07)
(-2.02044e-07 0 0 9.03461e-19 4.04087e-07 0 0 0 -2.02044e-07)
(-2.05798e-07 0 0 7.08688e-19 4.11596e-07 0 0 0 -2.05798e-07)
(-2.09689e-07 0 0 6.90925e-19 4.19378e-07 0 0 0 -2.09689e-07)
(-2.13726e-07 0 0 7.8854e-19 4.27452e-07 0 0 0 -2.13726e-07)
(-2.17916e-07 0 0 8.15939e-19 4.35831e-07 0 0 0 -2.17916e-07)
(-2.22267e-07 0 0 7.57231e-19 4.44533e-07 0 0 0 -2.22267e-07)
(-2.26787e-07 -1.74763e-21 0 8.23723e-19 4.53574e-07 0 0 0 -2.26787e-07)
(-2.31484e-07 0 0 1.2035e-18 4.62968e-07 0 0 0 -2.31484e-07)
(-2.36366e-07 0 0 1.04974e-18 4.72733e-07 0 0 0 -2.36366e-07)
(-2.41442e-07 0 0 1.19402e-18 4.82884e-07 0 0 0 -2.41442e-07)
(-2.46719e-07 0 0 1.07192e-18 4.93439e-07 0 0 0 -2.46719e-07)
(-2.52208e-07 0 0 9.79488e-19 5.04415e-07 0 0 0 -2.52208e-07)
(-2.57917e-07 0 0 1.20896e-18 5.15835e-07 0 0 0 -2.57917e-07)
(-2.63861e-07 0 0 9.93235e-19 5.27722e-07 0 0 0 -2.63861e-07)
(-2.70053e-07 0 0 1.01825e-18 5.40107e-07 0 0 0 -2.70053e-07)
(-2.76514e-07 0 0 1.46009e-18 5.53028e-07 0 0 0 -2.76514e-07)
(-2.83265e-07 0 0 1.33124e-18 5.66529e-07 0 0 0 -2.83265e-07)
(-2.90333e-07 0 0 1.05494e-18 5.80667e-07 0 0 0 -2.90333e-07)
(-2.97753e-07 0 0 8.97647e-19 5.95506e-07 0 0 0 -2.97753e-07)
(-3.05562e-07 0 0 1.12108e-18 6.11124e-07 0 0 0 -3.05562e-07)
(-3.13802e-07 0 0 1.64752e-18 6.27605e-07 0 0 0 -3.13802e-07)
(-3.22523e-07 0 0 1.42283e-18 6.45046e-07 0 0 0 -3.22523e-07)
(-3.31776e-07 0 0 1.46881e-18 6.63552e-07 0 0 0 -3.31776e-07)
(-3.41614e-07 0 0 1.51753e-18 6.83227e-07 0 0 0 -3.41614e-07)
(-3.5209e-07 0 0 1.40555e-18 7.0418e-07 0 0 0 -3.5209e-07)
(-3.63255e-07 0 0 1.6655e-18 7.2651e-07 0 0 0 -3.63255e-07)
(-3.75155e-07 0 0 1.92873e-18 7.50311e-07 0 0 0 -3.75155e-07)
(-3.8783e-07 0 0 1.82858e-18 7.7566e-07 0 0 0 -3.8783e-07)
(-4.01312e-07 0 0 2.26804e-18 8.02623e-07 0 0 0 -4.01312e-07)
(-4.15632e-07 6.97119e-21 0 1.88523e-18 8.31264e-07 0 0 0 -4.15632e-07)
(-4.30826e-07 0 0 1.50631e-18 8.61652e-07 0 0 0 -4.30826e-07)
(-4.46944e-07 0 0 1.96114e-18 8.93888e-07 0 0 0 -4.46944e-07)
(-4.64064e-07 0 0 2.05276e-18 9.28128e-07 0 0 0 -4.64064e-07)
(-4.82316e-07 0 0 2.15254e-18 9.64632e-07 0 0 0 -4.82316e-07)
(-5.01906e-07 0 0 2.71039e-18 1.00381e-06 0 0 0 -5.01906e-07)
(-5.23144e-07 0 0 1.82074e-18 1.04629e-06 0 0 0 -5.23144e-07)
(-5.46477e-07 0 0 1.96285e-18 1.09295e-06 0 0 0 -5.46477e-07)
(-5.72517e-07 0 0 3.10606e-18 1.14503e-06 0 0 0 -5.72517e-07)
(-6.02054e-07 0 0 2.79057e-18 1.20411e-06 0 0 0 -6.02054e-07)
(-6.36052e-07 0 0 2.95782e-18 1.2721e-06 0 0 0 -6.36052e-07)
(-6.75613e-07 0 0 3.70221e-18 1.35123e-06 0 0 0 -6.75613e-07)
(-7.21905e-07 0 0 3.2658e-18 1.44381e-06 0 0 0 -7.21905e-07)
(-7.76061e-07 0 0 2.8548e-18 1.55212e-06 0 0 0 -7.76061e-07)
(-8.39042e-07 0 0 3.67315e-18 1.67808e-06 0 0 0 -8.39042e-07)
(-9.11523e-07 0 0 3.9622e-18 1.82305e-06 0 0 0 -9.11523e-07)
(-9.93956e-07 0 0 4.26942e-18 1.98791e-06 0 0 0 -9.93956e-07)
(-1.08718e-06 0 0 4.58126e-18 2.17435e-06 0 0 0 -1.08718e-06)
(-1.19377e-06 0 0 4.86859e-18 2.38753e-06 0 0 0 -1.19377e-06)
(-1.31834e-06 0 0 5.08782e-18 2.63668e-06 0 0 0 -1.31834e-06)
(-1.46828e-06 0 0 5.18491e-18 2.93655e-06 0 0 0 -1.46828e-06)
(-1.63848e-06 0 0 5.11117e-18 3.27696e-06 0 0 0 -1.63848e-06)
(-1.74549e-06 0 0 4.86545e-18 3.49097e-06 0 0 0 -1.74549e-06)
(-1.87581e-06 0 0 4.59491e-18 3.75162e-06 0 0 0 -1.87581e-06)
(-2.81208e-06 0 0 5.93208e-18 5.62415e-06 0 0 0 -2.81208e-06)
(-7.76515e-06 0 0 1.94981e-17 1.55303e-05 0 0 0 -7.76515e-06)
(-6.965e-06 0 0 1.48069e-16 1.393e-05 0 0 0 -6.965e-06)
(1.98939e-05 0 0 2.10936e-15 -3.97878e-05 0 0 0 1.98939e-05)
(-6.25933e-05 0 0 5.83529e-15 0.000125187 0 0 0 -6.25933e-05)
(-0.000205092 0 0 3.19372e-15 0.000410183 0 0 0 -0.000205092)
(-0.000237693 0 0 -1.4077e-15 0.000475386 0 0 0 -0.000237693)
(0.00149463 0 0 -1.35751e-15 -0.00298926 0 0 0 0.00149463)
(0.00288203 0 0 -7.53729e-16 -0.00576407 0 0 0 0.00288203)
(-0.00143291 0 0 -2.23682e-16 0.00286582 0 0 0 -0.00143291)
(-0.0012588 0 0 -1.48034e-16 0.0025176 0 0 0 -0.0012588)
(0.000300979 0 0 -1.73885e-16 -0.000601958 0 0 0 0.000300979)
(0.000156426 0 0 -1.64945e-16 -0.000312852 0 0 0 0.000156426)
(-1.74417e-05 0 0 -1.56581e-16 3.48834e-05 0 0 0 -1.74417e-05)
(-1.30781e-05 0 0 -1.48866e-16 2.61562e-05 0 0 0 -1.30781e-05)
(8.02398e-07 0 0 -1.4181e-16 -1.6048e-06 0 0 0 8.02398e-07)
(1.07349e-06 0 0 -1.35395e-16 -2.14698e-06 0 0 0 1.07349e-06)
(-2.02908e-08 0 0 -1.29587e-16 4.05817e-08 0 0 0 -2.02908e-08)
(-8.53455e-08 0 0 -1.2434e-16 1.70691e-07 0 0 0 -8.53455e-08)
(-2.2193e-09 0 0 -1.19603e-16 4.4386e-09 0 0 0 -2.2193e-09)
(6.76451e-09 0 0 -1.15329e-16 -1.3529e-08 0 0 0 6.76451e-09)
(4.70747e-10 0 0 -1.11468e-16 -9.41494e-10 0 0 0 4.70747e-10)
(-5.09085e-10 0 0 -1.07979e-16 1.01817e-09 0 0 0 -5.09085e-10)
(-6.29163e-11 0 0 -1.04822e-16 1.25833e-10 0 0 0 -6.29163e-11)
(3.96241e-11 0 0 -1.01966e-16 -7.92481e-11 0 0 0 3.96241e-11)
(8.47508e-12 0 0 -9.9383e-17 -1.69502e-11 0 0 0 8.47508e-12)
(6.91597e-14 0 0 -9.70503e-17 -1.38319e-13 0 0 0 6.91597e-14)
(2.89427e-12 0 0 -9.49498e-17 -5.78854e-12 0 0 0 2.89427e-12)
(4.21248e-12 0 0 -9.30673e-17 -8.42495e-12 0 0 0 4.21248e-12)
(3.54519e-12 0 0 -9.1392e-17 -7.09037e-12 0 0 0 3.54519e-12)
(2.26042e-12 0 0 -8.99154e-17 -4.52083e-12 0 0 0 2.26042e-12)
(1.37496e-12 0 0 -8.86317e-17 -2.74993e-12 0 0 0 1.37496e-12)
(1.31946e-12 0 0 -8.75365e-17 -2.63892e-12 0 0 0 1.31946e-12)
(1.80696e-12 0 0 -8.66268e-17 -3.61392e-12 0 0 0 1.80696e-12)
(2.26377e-12 0 0 -8.59007e-17 -4.52753e-12 0 0 0 2.26377e-12)
(1.66846e-13 0 0 -8.5357e-17 -3.33692e-13 0 0 0 1.66846e-13)
(1.20044e-12 0 0 -8.49948e-17 -2.40088e-12 0 0 0 1.20044e-12)
(4.46825e-11 0 0 -8.48007e-17 -8.93651e-11 0 0 0 4.46825e-11)
)
;

boundaryField
{
    inlet
    {
        type            cyclic;
    }
    outlet
    {
        type            cyclic;
    }
    top
    {
        type            extrapolatedCalculated;
        value           uniform (8.48508e-11 0 0 -8.47424e-17 -1.69702e-10 0 0 0 8.48508e-11);
    }
    bottom
    {
        type            extrapolatedCalculated;
        value           uniform (-1.30617e-07 0 0 4.72566e-19 2.61234e-07 0 0 0 -1.30617e-07);
    }
    frontAndBackPlanes
    {
        type            empty;
    }
}


// ************************************************************************* //
