/*--------------------------------*- C++ -*----------------------------------*\
| =========                 |                                                 |
| \\      /  F ield         | OpenFOAM: The Open Source CFD Toolbox           |
|  \\    /   O peration     | Version:  v2006                                 |
|   \\  /    A nd           | Website:  www.openfoam.com                      |
|    \\/     M anipulation  |                                                 |
\*---------------------------------------------------------------------------*/
FoamFile
{
    version     2.0;
    format      ascii;
    class       volVectorField;
    location    "1280";
    object      Ua;
}
// * * * * * * * * * * * * * * * * * * * * * * * * * * * * * * * * * * * * * //

dimensions      [0 1 -1 0 0 0 0];


internalField   nonuniform List<vector> 
120
(
(2.36439e-21 -1.30365e-09 0)
(7.09804e-21 -3.93054e-09 0)
(1.18431e-20 -6.59663e-09 0)
(1.65058e-20 -9.30014e-09 0)
(2.11951e-20 -1.20405e-08 0)
(2.59186e-20 -1.48188e-08 0)
(3.06841e-20 -1.7636e-08 0)
(3.52968e-20 -2.04933e-08 0)
(3.99671e-20 -2.33914e-08 0)
(4.49051e-20 -2.63317e-08 0)
(4.99165e-20 -2.93151e-08 0)
(5.50092e-20 -3.23428e-08 0)
(6.03939e-20 -3.54159e-08 0)
(6.58763e-20 -3.85359e-08 0)
(7.14647e-20 -4.17038e-08 0)
(7.71676e-20 -4.49212e-08 0)
(8.29935e-20 -4.81892e-08 0)
(8.89508e-20 -5.15095e-08 0)
(9.50482e-20 -5.48835e-08 0)
(1.01295e-19 -5.83127e-08 0)
(1.07698e-19 -6.17988e-08 0)
(1.14269e-19 -6.53434e-08 0)
(1.21015e-19 -6.89483e-08 0)
(1.27945e-19 -7.26154e-08 0)
(1.35876e-19 -7.63466e-08 0)
(1.44011e-19 -8.0144e-08 0)
(1.52356e-19 -8.40096e-08 0)
(1.60516e-19 -8.79458e-08 0)
(1.68906e-19 -9.1955e-08 0)
(1.77533e-19 -9.60398e-08 0)
(1.85598e-19 -1.00203e-07 0)
(1.93109e-19 -1.04447e-07 0)
(2.00884e-19 -1.08776e-07 0)
(2.08931e-19 -1.13192e-07 0)
(2.17258e-19 -1.17699e-07 0)
(2.25865e-19 -1.223e-07 0)
(2.35578e-19 -1.27e-07 0)
(2.46412e-19 -1.31802e-07 0)
(2.56753e-19 -1.3671e-07 0)
(2.68223e-19 -1.4173e-07 0)
(2.78408e-19 -1.46864e-07 0)
(2.89739e-19 -1.52118e-07 0)
(3.0061e-19 -1.57498e-07 0)
(3.11837e-19 -1.63007e-07 0)
(3.23432e-19 -1.68653e-07 0)
(3.36211e-19 -1.7444e-07 0)
(3.47763e-19 -1.80377e-07 0)
(3.59716e-19 -1.86469e-07 0)
(3.71275e-19 -1.92726e-07 0)
(3.84879e-19 -1.99155e-07 0)
(3.98929e-19 -2.05768e-07 0)
(4.13445e-19 -2.12575e-07 0)
(4.28447e-19 -2.19588e-07 0)
(4.43961e-19 -2.26822e-07 0)
(4.60014e-19 -2.3429e-07 0)
(4.77446e-19 -2.42008e-07 0)
(4.95484e-19 -2.49994e-07 0)
(5.14171e-19 -2.58265e-07 0)
(5.3357e-19 -2.6684e-07 0)
(5.52097e-19 -2.75738e-07 0)
(5.71412e-19 -2.84979e-07 0)
(5.91598e-19 -2.94585e-07 0)
(6.1273e-19 -3.04579e-07 0)
(6.3489e-19 -3.14989e-07 0)
(6.58171e-19 -3.25847e-07 0)
(6.81052e-19 -3.37193e-07 0)
(7.06888e-19 -3.4908e-07 0)
(7.34183e-19 -3.61573e-07 0)
(7.63083e-19 -3.74759e-07 0)
(7.93755e-19 -3.88746e-07 0)
(8.264e-19 -4.03672e-07 0)
(8.59623e-19 -4.197e-07 0)
(8.95327e-19 -4.3702e-07 0)
(9.33804e-19 -4.55845e-07 0)
(9.75317e-19 -4.76405e-07 0)
(1.02003e-18 -4.98942e-07 0)
(1.06787e-18 -5.23704e-07 0)
(1.11843e-18 -5.50986e-07 0)
(1.17076e-18 -5.81383e-07 0)
(1.22334e-18 -6.16165e-07 0)
(1.27425e-18 -6.56068e-07 0)
(1.32193e-18 -6.98324e-07 0)
(1.36733e-18 -7.39854e-07 0)
(1.44144e-18 -7.93254e-07 0)
(1.75264e-18 -9.17654e-07 0)
(4.16373e-18 -1.38961e-06 0)
(4.36539e-17 -5.99993e-06 0)
(1.27785e-16 -5.11603e-06 0)
(1.14107e-16 1.64297e-06 0)
(9.67552e-17 9.26214e-06 0)
(8.40666e-17 -9.80463e-05 0)
(8.03319e-17 -0.000225899 0)
(7.73987e-17 -0.000114101 0)
(7.29428e-17 -0.000162248 0)
(6.87028e-17 -0.000231387 0)
(6.46836e-17 -0.000230372 0)
(6.08694e-17 -0.000228422 0)
(5.72397e-17 -0.000228393 0)
(5.37781e-17 -0.00022855 0)
(5.04691e-17 -0.000228558 0)
(4.7298e-17 -0.000228546 0)
(4.42514e-17 -0.000228545 0)
(4.1317e-17 -0.000228546 0)
(3.84843e-17 -0.000228546 0)
(3.5743e-17 -0.000228546 0)
(3.30848e-17 -0.000228546 0)
(3.05012e-17 -0.000228546 0)
(2.79857e-17 -0.000228546 0)
(2.55317e-17 -0.000228546 0)
(2.31326e-17 -0.000228546 0)
(2.07835e-17 -0.000228546 0)
(1.84787e-17 -0.000228546 0)
(1.62132e-17 -0.000228546 0)
(1.39825e-17 -0.000228546 0)
(1.17812e-17 -0.000228546 0)
(9.60501e-18 -0.000228546 0)
(7.44929e-18 -0.000228546 0)
(5.30944e-18 -0.000228518 0)
(3.18092e-18 -0.000228481 0)
(1.05929e-18 -0.000228045 0)
)
;

boundaryField
{
    inlet
    {
        type            cyclic;
    }
    outlet
    {
        type            cyclic;
    }
    top
    {
        type            fixedValue;
        value           uniform (0 0 0);
    }
    bottom
    {
        type            fixedValue;
        value           uniform (0 0 0);
    }
    frontAndBackPlanes
    {
        type            empty;
    }
}


// ************************************************************************* //
