/*--------------------------------*- C++ -*----------------------------------*\
| =========                 |                                                 |
| \\      /  F ield         | OpenFOAM: The Open Source CFD Toolbox           |
|  \\    /   O peration     | Version:  v2006                                 |
|   \\  /    A nd           | Website:  www.openfoam.com                      |
|    \\/     M anipulation  |                                                 |
\*---------------------------------------------------------------------------*/
FoamFile
{
    version     2.0;
    format      ascii;
    class       volVectorField;
    location    "1280";
    object      Ub;
}
// * * * * * * * * * * * * * * * * * * * * * * * * * * * * * * * * * * * * * //

dimensions      [0 1 -1 0 0 0 0];


internalField   nonuniform List<vector> 
120
(
(2.36439e-21 1.96054e-09 0)
(7.09809e-21 5.90278e-09 0)
(1.18544e-20 9.89041e-09 0)
(1.65058e-20 1.39313e-08 0)
(2.11951e-20 1.8026e-08 0)
(2.59189e-20 2.21757e-08 0)
(3.07463e-20 2.63816e-08 0)
(3.52967e-20 3.06452e-08 0)
(3.98843e-20 3.49678e-08 0)
(4.49047e-20 3.93509e-08 0)
(4.9916e-20 4.37962e-08 0)
(5.48945e-20 4.83052e-08 0)
(6.03934e-20 5.28797e-08 0)
(6.58763e-20 5.75214e-08 0)
(7.14647e-20 6.22321e-08 0)
(7.71676e-20 6.70137e-08 0)
(8.29935e-20 7.18681e-08 0)
(8.89508e-20 7.67974e-08 0)
(9.50482e-20 8.18036e-08 0)
(1.01295e-19 8.6889e-08 0)
(1.07698e-19 9.20558e-08 0)
(1.14269e-19 9.73063e-08 0)
(1.2101e-19 1.02643e-07 0)
(1.26912e-19 1.08069e-07 0)
(1.35872e-19 1.13586e-07 0)
(1.44013e-19 1.19197e-07 0)
(1.52953e-19 1.24906e-07 0)
(1.60519e-19 1.30716e-07 0)
(1.68912e-19 1.3663e-07 0)
(1.78904e-19 1.42651e-07 0)
(1.87027e-19 1.48783e-07 0)
(1.93115e-19 1.55031e-07 0)
(2.00884e-19 1.61399e-07 0)
(2.0893e-19 1.67891e-07 0)
(2.1725e-19 1.74512e-07 0)
(2.2412e-19 1.81267e-07 0)
(2.33775e-19 1.88161e-07 0)
(2.48267e-19 1.952e-07 0)
(2.54839e-19 2.0239e-07 0)
(2.72228e-19 2.09735e-07 0)
(2.76351e-19 2.17244e-07 0)
(2.91887e-19 2.24922e-07 0)
(3.00619e-19 2.32776e-07 0)
(3.11827e-19 2.40813e-07 0)
(3.21063e-19 2.49042e-07 0)
(3.41145e-19 2.5747e-07 0)
(3.47797e-19 2.66107e-07 0)
(3.62333e-19 2.74963e-07 0)
(3.65828e-19 2.8405e-07 0)
(3.84854e-19 2.93379e-07 0)
(3.98929e-19 3.02964e-07 0)
(4.13445e-19 3.12821e-07 0)
(4.28447e-19 3.22967e-07 0)
(4.43946e-19 3.3342e-07 0)
(4.56702e-19 3.442e-07 0)
(4.77431e-19 3.5533e-07 0)
(4.95484e-19 3.66831e-07 0)
(5.14205e-19 3.78728e-07 0)
(5.41104e-19 3.91047e-07 0)
(5.52131e-19 4.03813e-07 0)
(5.71412e-19 4.17053e-07 0)
(5.91598e-19 4.30796e-07 0)
(6.1273e-19 4.45075e-07 0)
(6.34932e-19 4.59925e-07 0)
(6.67305e-19 4.75393e-07 0)
(6.71601e-19 4.91533e-07 0)
(7.06844e-19 5.08418e-07 0)
(7.34183e-19 5.26139e-07 0)
(7.63083e-19 5.44817e-07 0)
(7.93807e-19 5.64604e-07 0)
(8.37732e-19 5.85685e-07 0)
(8.59675e-19 6.08284e-07 0)
(8.95328e-19 6.32656e-07 0)
(9.33804e-19 6.59083e-07 0)
(9.75317e-19 6.87862e-07 0)
(1.02003e-18 7.19303e-07 0)
(1.06787e-18 7.53756e-07 0)
(1.11843e-18 7.9169e-07 0)
(1.17076e-18 8.33735e-07 0)
(1.22334e-18 8.80814e-07 0)
(1.27425e-18 9.33257e-07 0)
(1.32193e-18 9.86917e-07 0)
(1.36743e-18 1.04738e-06 0)
(1.44236e-18 1.15819e-06 0)
(1.76379e-18 1.52093e-06 0)
(4.45659e-18 1.58355e-06 0)
(4.47861e-17 3.03671e-07 0)
(1.27782e-16 5.55218e-06 0)
(1.14107e-16 1.36584e-05 0)
(9.67553e-17 2.1269e-05 0)
(8.40668e-17 -8.55644e-05 0)
(8.03325e-17 -0.000167119 0)
(7.73951e-17 4.26522e-05 0)
(7.29326e-17 2.16541e-05 0)
(6.86999e-17 -2.49952e-06 0)
(6.46843e-17 -1.81277e-06 0)
(6.08699e-17 1.17065e-07 0)
(5.72401e-17 1.49189e-07 0)
(5.37785e-17 -3.3095e-09 0)
(5.04695e-17 -1.18542e-08 0)
(4.72984e-17 -2.65493e-10 0)
(4.42517e-17 9.49257e-10 0)
(4.13175e-17 6.7443e-11 0)
(3.84846e-17 -6.55466e-11 0)
(3.57433e-17 -3.17787e-12 0)
(3.3085e-17 1.08257e-11 0)
(3.05016e-17 6.26076e-12 0)
(2.7986e-17 4.88137e-12 0)
(2.55318e-17 4.98933e-12 0)
(2.31329e-17 4.871e-12 0)
(2.07837e-17 4.55514e-12 0)
(1.8479e-17 4.23905e-12 0)
(1.62136e-17 4.0233e-12 0)
(1.39826e-17 3.89994e-12 0)
(1.17814e-17 3.81703e-12 0)
(9.60526e-18 3.702e-12 0)
(7.44954e-18 3.54595e-12 0)
(5.30969e-18 3.36239e-12 0)
(3.18115e-18 3.52092e-12 0)
(1.05941e-18 3.1823e-12 0)
)
;

boundaryField
{
    inlet
    {
        type            cyclic;
    }
    outlet
    {
        type            cyclic;
    }
    top
    {
        type            fixedValue;
        value           uniform (0 0 0);
    }
    bottom
    {
        type            fixedValue;
        value           uniform (0 0 0);
    }
    frontAndBackPlanes
    {
        type            empty;
    }
}


// ************************************************************************* //
