/*--------------------------------*- C++ -*----------------------------------*\
| =========                 |                                                 |
| \\      /  F ield         | OpenFOAM: The Open Source CFD Toolbox           |
|  \\    /   O peration     | Version:  v2006                                 |
|   \\  /    A nd           | Website:  www.openfoam.com                      |
|    \\/     M anipulation  |                                                 |
\*---------------------------------------------------------------------------*/
FoamFile
{
    version     2.0;
    format      ascii;
    class       volScalarField;
    location    "1180";
    object      p;
}
// * * * * * * * * * * * * * * * * * * * * * * * * * * * * * * * * * * * * * //

dimensions      [1 -1 -2 0 0 0 0];


internalField   nonuniform List<scalar> 
120
(
3.26975
-1.3904
-6.05096
-10.7119
-15.3733
-20.0352
-24.6974
-29.3601
-34.0232
-38.6868
-43.3508
-48.0153
-52.6803
-57.3457
-62.0116
-66.678
-71.3449
-76.0123
-80.6803
-85.3487
-90.0177
-94.6872
-99.3572
-104.028
-108.699
-113.371
-118.043
-122.716
-127.389
-132.064
-136.738
-141.414
-146.09
-150.766
-155.444
-160.122
-164.801
-169.48
-174.16
-178.841
-183.523
-188.206
-192.889
-197.573
-202.258
-206.944
-211.631
-216.319
-221.007
-225.697
-230.388
-235.079
-239.772
-244.466
-249.161
-253.857
-258.554
-263.253
-267.953
-272.654
-277.357
-282.061
-286.767
-291.474
-296.183
-300.894
-305.607
-310.322
-315.039
-319.758
-324.48
-329.205
-333.933
-338.665
-343.401
-348.144
-352.893
-357.648
-362.405
-367.157
-372.059
-376.976
-381.885
-386.792
-391.698
-396.604
-401.509
-406.414
-411.319
-416.224
-421.131
-426.039
-430.964
-435.682
-440.348
-445.007
-449.666
-454.326
-458.985
-463.645
-468.305
-472.965
-477.624
-482.284
-486.944
-491.604
-496.263
-500.923
-505.583
-510.243
-514.902
-519.562
-524.222
-528.882
-533.541
-538.201
-542.861
-547.521
-552.18
-556.84
)
;

boundaryField
{
    inlet
    {
        type            cyclic;
    }
    outlet
    {
        type            cyclic;
    }
    top
    {
        type            calculated;
        value           uniform -559.17;
    }
    bottom
    {
        type            calculated;
        value           uniform 5.59963;
    }
    frontAndBackPlanes
    {
        type            empty;
    }
}


// ************************************************************************* //
