/*--------------------------------*- C++ -*----------------------------------*\
| =========                 |                                                 |
| \\      /  F ield         | OpenFOAM: The Open Source CFD Toolbox           |
|  \\    /   O peration     | Version:  v2006                                 |
|   \\  /    A nd           | Website:  www.openfoam.com                      |
|    \\/     M anipulation  |                                                 |
\*---------------------------------------------------------------------------*/
FoamFile
{
    version     2.0;
    format      ascii;
    class       volScalarField;
    location    "1180";
    object      p_p_total;
}
// * * * * * * * * * * * * * * * * * * * * * * * * * * * * * * * * * * * * * //

dimensions      [1 -1 -2 0 0 0 0];


internalField   nonuniform List<scalar> 
120
(
20.8632
20.5696
20.2764
19.9837
19.6914
19.3996
19.1082
18.8173
18.5268
18.2368
17.9473
17.6583
17.3697
17.0817
16.7941
16.5071
16.2205
15.9345
15.649
15.3641
15.0797
14.7959
14.5126
14.23
13.9479
13.6664
13.3855
13.1052
12.8255
12.5465
12.2681
11.9903
11.7133
11.4369
11.1612
10.8862
10.6119
10.3384
10.0656
9.79361
9.52238
9.25196
8.98236
8.71359
8.44568
8.17864
7.91249
7.64725
7.38293
7.11956
6.85716
6.59574
6.33535
6.076
5.81773
5.56058
5.30459
5.04981
4.79628
4.54404
4.29312
4.04356
3.79535
3.54851
3.30299
3.05875
2.81573
2.57384
2.33299
2.09303
1.85367
1.61421
1.37375
1.13111
0.901089
0.696235
0.520552
0.362042
0.177891
0
0
0
0
0
0
0
0
0
0
0
0
0
0
0
0
0
0
0
0
0
0
0
0
0
0
0
0
0
0
0
0
0
0
0
0
0
0
0
0
0
)
;

boundaryField
{
    inlet
    {
        type            cyclic;
    }
    outlet
    {
        type            cyclic;
    }
    top
    {
        type            calculated;
        value           uniform 0;
    }
    bottom
    {
        type            calculated;
        value           uniform 20.8632;
    }
    frontAndBackPlanes
    {
        type            empty;
    }
}


// ************************************************************************* //
