/*--------------------------------*- C++ -*----------------------------------*\
| =========                 |                                                 |
| \\      /  F ield         | OpenFOAM: The Open Source CFD Toolbox           |
|  \\    /   O peration     | Version:  v2006                                 |
|   \\  /    A nd           | Website:  www.openfoam.com                      |
|    \\/     M anipulation  |                                                 |
\*---------------------------------------------------------------------------*/
FoamFile
{
    version     2.0;
    format      ascii;
    class       surfaceScalarField;
    location    "1180";
    object      phia;
}
// * * * * * * * * * * * * * * * * * * * * * * * * * * * * * * * * * * * * * //

dimensions      [0 3 -1 0 0 0 0];
oriented        oriented;


internalField   nonuniform List<scalar> 
119
(
-1.02304e-15
-2.06086e-15
-3.1138e-15
-4.18227e-15
-5.26665e-15
-6.36737e-15
-7.48486e-15
-8.61959e-15
-9.77204e-15
-1.09427e-14
-1.21322e-14
-1.3341e-14
-1.45697e-14
-1.58189e-14
-1.70893e-14
-1.83816e-14
-1.96965e-14
-2.10346e-14
-2.23969e-14
-2.3784e-14
-2.51968e-14
-2.66361e-14
-2.81029e-14
-2.9598e-14
-3.11225e-14
-3.26773e-14
-3.42636e-14
-3.58824e-14
-3.7535e-14
-3.92227e-14
-4.09468e-14
-4.27089e-14
-4.45105e-14
-4.63534e-14
-4.82395e-14
-5.01709e-14
-5.21496e-14
-5.41782e-14
-5.6259e-14
-5.83948e-14
-6.05884e-14
-6.28427e-14
-6.51608e-14
-6.75459e-14
-7.00015e-14
-7.25312e-14
-7.51388e-14
-7.78287e-14
-8.06053e-14
-8.34742e-14
-8.64415e-14
-8.95143e-14
-9.27012e-14
-9.60119e-14
-9.94581e-14
-1.03053e-13
-1.06812e-13
-1.1075e-13
-1.14887e-13
-1.1924e-13
-1.23829e-13
-1.28673e-13
-1.33792e-13
-1.39206e-13
-1.4494e-13
-1.51029e-13
-1.5752e-13
-1.64492e-13
-1.72071e-13
-1.80458e-13
-1.89976e-13
-2.01141e-13
-2.14677e-13
-2.31524e-13
-2.52267e-13
-2.75899e-13
-2.98014e-13
-3.13615e-13
-3.35479e-13
-1.25196e-12
-1.83607e-12
-2.09492e-12
-2.21309e-12
-2.27007e-12
-2.29734e-12
-2.31086e-12
-2.3175e-12
-2.31563e-12
-2.3397e-12
-2.27609e-12
-2.51958e-12
-2.96302e-12
-3.19636e-11
-8.73638e-12
-1.0988e-10
-8.22313e-11
-8.22856e-11
-8.22721e-11
-8.22757e-11
-8.2277e-11
-8.22767e-11
-8.22766e-11
-8.22766e-11
-8.22766e-11
-8.22766e-11
-8.22766e-11
-8.22766e-11
-8.22766e-11
-8.22766e-11
-8.22766e-11
-8.22766e-11
-8.22766e-11
-8.22766e-11
-8.22766e-11
-8.22766e-11
-8.22766e-11
-8.22766e-11
-8.22565e-11
-8.21697e-11
)
;

boundaryField
{
    inlet
    {
        type            cyclic;
        value           nonuniform List<scalar> 
120
(
-6.16563e-28
-1.85089e-27
-3.088e-27
-4.29941e-27
-5.51737e-27
-6.74378e-27
-7.98057e-27
-9.169e-27
-1.03718e-26
-1.16517e-26
-1.295e-26
-1.4269e-26
-1.56715e-26
-1.70991e-26
-1.85542e-26
-2.00391e-26
-2.15563e-26
-2.31085e-26
-2.46981e-26
-2.6328e-26
-2.80009e-26
-2.97197e-26
-3.14875e-26
-3.33072e-26
-3.54246e-26
-3.76004e-26
-3.98378e-26
-4.2019e-26
-4.42687e-26
-4.65904e-26
-4.87452e-26
-5.07367e-26
-5.2811e-26
-5.49717e-26
-5.72223e-26
-5.95638e-26
-6.22447e-26
-6.52712e-26
-6.81593e-26
-7.13966e-26
-7.42591e-26
-7.74765e-26
-8.05667e-26
-8.37742e-26
-8.71009e-26
-9.07906e-26
-9.41175e-26
-9.75669e-26
-1.00897e-25
-1.04834e-25
-1.08894e-25
-1.13076e-25
-1.17377e-25
-1.21796e-25
-1.26331e-25
-1.31223e-25
-1.36227e-25
-1.41339e-25
-1.46567e-25
-1.51415e-25
-1.56357e-25
-1.61405e-25
-1.66556e-25
-1.7181e-25
-1.77167e-25
-1.82135e-25
-1.87694e-25
-1.93356e-25
-1.99134e-25
-2.05064e-25
-2.11217e-25
-2.17201e-25
-2.23673e-25
-2.30777e-25
-2.38568e-25
-2.47478e-25
-2.57692e-25
-2.67231e-25
-2.75221e-25
-2.88516e-25
-2.01369e-23
-2.72922e-23
-3.30816e-23
-3.96167e-23
-4.71811e-23
-5.58989e-23
-4.68238e-23
-3.88921e-23
-3.20069e-23
-2.61554e-23
-2.13746e-23
-1.78533e-23
-1.56314e-23
-1.52541e-23
-1.44216e-23
-1.36182e-23
-1.2847e-23
-1.21066e-23
-1.13931e-23
-1.07041e-23
-1.0038e-23
-9.39312e-24
-8.76834e-24
-8.16237e-24
-7.57436e-24
-7.00312e-24
-6.44793e-24
-5.90762e-24
-5.38145e-24
-4.86827e-24
-4.36719e-24
-3.87714e-24
-3.39705e-24
-2.9259e-24
-2.46244e-24
-2.00561e-24
-1.55421e-24
-1.10707e-24
-6.62965e-25
-2.20717e-25
)
;
    }
    outlet
    {
        type            cyclic;
        value           nonuniform List<scalar> 
120
(
6.16563e-28
1.85089e-27
3.088e-27
4.29941e-27
5.51737e-27
6.74378e-27
7.98057e-27
9.169e-27
1.03718e-26
1.16517e-26
1.295e-26
1.4269e-26
1.56715e-26
1.70991e-26
1.85542e-26
2.00391e-26
2.15563e-26
2.31085e-26
2.46981e-26
2.6328e-26
2.80009e-26
2.97197e-26
3.14875e-26
3.33072e-26
3.54246e-26
3.76004e-26
3.98378e-26
4.2019e-26
4.42687e-26
4.65904e-26
4.87452e-26
5.07367e-26
5.2811e-26
5.49717e-26
5.72223e-26
5.95638e-26
6.22447e-26
6.52712e-26
6.81593e-26
7.13966e-26
7.42591e-26
7.74765e-26
8.05667e-26
8.37742e-26
8.71009e-26
9.07906e-26
9.41175e-26
9.75669e-26
1.00897e-25
1.04834e-25
1.08894e-25
1.13076e-25
1.17377e-25
1.21796e-25
1.26331e-25
1.31223e-25
1.36227e-25
1.41339e-25
1.46567e-25
1.51415e-25
1.56357e-25
1.61405e-25
1.66556e-25
1.7181e-25
1.77167e-25
1.82135e-25
1.87694e-25
1.93356e-25
1.99134e-25
2.05064e-25
2.11217e-25
2.17201e-25
2.23673e-25
2.30777e-25
2.38568e-25
2.47478e-25
2.57692e-25
2.67231e-25
2.75221e-25
2.88516e-25
2.01369e-23
2.72922e-23
3.30816e-23
3.96167e-23
4.71811e-23
5.58989e-23
4.68238e-23
3.88921e-23
3.20069e-23
2.61554e-23
2.13746e-23
1.78533e-23
1.56314e-23
1.52541e-23
1.44216e-23
1.36182e-23
1.2847e-23
1.21066e-23
1.13931e-23
1.07041e-23
1.0038e-23
9.39312e-24
8.76834e-24
8.16237e-24
7.57436e-24
7.00312e-24
6.44793e-24
5.90762e-24
5.38145e-24
4.86827e-24
4.36719e-24
3.87714e-24
3.39705e-24
2.9259e-24
2.46244e-24
2.00561e-24
1.55421e-24
1.10707e-24
6.62965e-25
2.20717e-25
)
;
    }
    top
    {
        type            fixedValue;
        value           uniform 0;
    }
    bottom
    {
        type            fixedValue;
        value           uniform 0;
    }
    frontAndBackPlanes
    {
        type            empty;
        value           nonuniform List<scalar> 0();
    }
}


// ************************************************************************* //
