/*--------------------------------*- C++ -*----------------------------------*\
| =========                 |                                                 |
| \\      /  F ield         | OpenFOAM: The Open Source CFD Toolbox           |
|  \\    /   O peration     | Version:  v2006                                 |
|   \\  /    A nd           | Website:  www.openfoam.com                      |
|    \\/     M anipulation  |                                                 |
\*---------------------------------------------------------------------------*/
FoamFile
{
    version     2.0;
    format      ascii;
    class       surfaceScalarField;
    location    "1180";
    object      phib;
}
// * * * * * * * * * * * * * * * * * * * * * * * * * * * * * * * * * * * * * //

dimensions      [0 3 -1 0 0 0 0];
oriented        oriented;


internalField   nonuniform List<scalar> 
119
(
1.5289e-15
3.07911e-15
4.65115e-15
6.24557e-15
7.86292e-15
9.5038e-15
1.11688e-14
1.28586e-14
1.45739e-14
1.63154e-14
1.80839e-14
1.98801e-14
2.17048e-14
2.3559e-14
2.54436e-14
2.73595e-14
2.93076e-14
3.12891e-14
3.3305e-14
3.53565e-14
3.74446e-14
3.95705e-14
4.17356e-14
4.3941e-14
4.61883e-14
4.84787e-14
5.08137e-14
5.3195e-14
5.56242e-14
5.81031e-14
6.06336e-14
6.32178e-14
6.58579e-14
6.85564e-14
7.13159e-14
7.41392e-14
7.70293e-14
7.99896e-14
8.30234e-14
8.61346e-14
8.93269e-14
9.26044e-14
9.59714e-14
9.94323e-14
1.02992e-13
1.06655e-13
1.10426e-13
1.14312e-13
1.18319e-13
1.22454e-13
1.26725e-13
1.31142e-13
1.35718e-13
1.40464e-13
1.45398e-13
1.50537e-13
1.55902e-13
1.61515e-13
1.67401e-13
1.73585e-13
1.80092e-13
1.86947e-13
1.94175e-13
2.01804e-13
2.09863e-13
2.18396e-13
2.27466e-13
2.37178e-13
2.47698e-13
2.593e-13
2.72423e-13
2.87768e-13
3.06305e-13
3.29306e-13
3.57544e-13
3.89524e-13
4.18881e-13
4.3782e-13
4.51688e-13
1.52139e-12
2.00826e-12
2.1809e-12
2.25559e-12
2.29095e-12
2.30757e-12
2.31576e-12
2.31976e-12
2.3187e-12
2.33483e-12
2.2877e-12
2.41373e-12
2.52427e-12
9.28558e-12
2.03398e-14
6.5402e-16
5.77827e-18
5.72432e-18
6.01795e-18
5.86846e-18
5.94338e-18
5.59402e-18
5.47694e-18
4.97077e-18
4.81968e-18
4.50816e-18
4.55352e-18
4.31434e-18
4.27274e-18
3.95348e-18
3.797e-18
3.39585e-18
3.22009e-18
2.95991e-18
2.92586e-18
2.74771e-18
2.69483e-18
2.50365e-18
2.42101e-18
2.20403e-18
)
;

boundaryField
{
    inlet
    {
        type            cyclic;
        value           nonuniform List<scalar> 
120
(
-6.16563e-28
-1.8509e-27
-3.09172e-27
-4.29943e-27
-5.51737e-27
-6.74387e-27
-8.00092e-27
-9.16897e-27
-1.03447e-26
-1.16515e-26
-1.29499e-26
-1.42314e-26
-1.56714e-26
-1.70991e-26
-1.85542e-26
-2.00391e-26
-2.15563e-26
-2.31085e-26
-2.46981e-26
-2.6328e-26
-2.80009e-26
-2.97197e-26
-3.1486e-26
-3.29658e-26
-3.54231e-26
-3.76012e-26
-4.00358e-26
-4.20199e-26
-4.42707e-26
-4.70464e-26
-4.92212e-26
-5.07389e-26
-5.2811e-26
-5.49717e-26
-5.72197e-26
-5.89797e-26
-6.16405e-26
-6.58936e-26
-6.7516e-26
-7.27441e-26
-7.35662e-26
-7.82016e-26
-8.05699e-26
-8.37706e-26
-8.62975e-26
-9.24671e-26
-9.4129e-26
-9.84595e-26
-9.90351e-26
-1.04826e-25
-1.08894e-25
-1.13075e-25
-1.17377e-25
-1.21791e-25
-1.25183e-25
-1.31218e-25
-1.36227e-25
-1.41351e-25
-1.49213e-25
-1.51427e-25
-1.56357e-25
-1.61405e-25
-1.66556e-25
-1.71826e-25
-1.80472e-25
-1.78694e-25
-1.87678e-25
-1.93356e-25
-1.99134e-25
-2.05084e-25
-2.15522e-25
-2.17221e-25
-2.23674e-25
-2.30777e-25
-2.38571e-25
-2.47487e-25
-2.57702e-25
-2.67255e-25
-2.75881e-25
-4.03737e-25
-2.01365e-23
-2.72921e-23
-3.30817e-23
-3.96167e-23
-4.71811e-23
-5.58117e-23
-4.68238e-23
-3.88921e-23
-3.20069e-23
-2.61555e-23
-2.13746e-23
-1.78534e-23
-1.56315e-23
-1.52539e-23
-1.442e-23
-1.36171e-23
-1.28471e-23
-1.21067e-23
-1.13932e-23
-1.07042e-23
-1.00381e-23
-9.39321e-24
-8.76839e-24
-8.16247e-24
-7.5744e-24
-7.00321e-24
-6.44796e-24
-5.9077e-24
-5.38149e-24
-4.86833e-24
-4.36725e-24
-3.8772e-24
-3.39713e-24
-2.92593e-24
-2.46249e-24
-2.00566e-24
-1.55427e-24
-1.10712e-24
-6.63015e-25
-2.20742e-25
)
;
    }
    outlet
    {
        type            cyclic;
        value           nonuniform List<scalar> 
120
(
6.16563e-28
1.8509e-27
3.09172e-27
4.29943e-27
5.51737e-27
6.74387e-27
8.00092e-27
9.16897e-27
1.03447e-26
1.16515e-26
1.29499e-26
1.42314e-26
1.56714e-26
1.70991e-26
1.85542e-26
2.00391e-26
2.15563e-26
2.31085e-26
2.46981e-26
2.6328e-26
2.80009e-26
2.97197e-26
3.1486e-26
3.29658e-26
3.54231e-26
3.76012e-26
4.00358e-26
4.20199e-26
4.42707e-26
4.70464e-26
4.92212e-26
5.07389e-26
5.2811e-26
5.49717e-26
5.72197e-26
5.89797e-26
6.16405e-26
6.58936e-26
6.7516e-26
7.27441e-26
7.35662e-26
7.82016e-26
8.05699e-26
8.37706e-26
8.62975e-26
9.24671e-26
9.4129e-26
9.84595e-26
9.90351e-26
1.04826e-25
1.08894e-25
1.13075e-25
1.17377e-25
1.21791e-25
1.25183e-25
1.31218e-25
1.36227e-25
1.41351e-25
1.49213e-25
1.51427e-25
1.56357e-25
1.61405e-25
1.66556e-25
1.71826e-25
1.80472e-25
1.78694e-25
1.87678e-25
1.93356e-25
1.99134e-25
2.05084e-25
2.15522e-25
2.17221e-25
2.23674e-25
2.30777e-25
2.38571e-25
2.47487e-25
2.57702e-25
2.67255e-25
2.75881e-25
4.03737e-25
2.01365e-23
2.72921e-23
3.30817e-23
3.96167e-23
4.71811e-23
5.58117e-23
4.68238e-23
3.88921e-23
3.20069e-23
2.61555e-23
2.13746e-23
1.78534e-23
1.56315e-23
1.52539e-23
1.442e-23
1.36171e-23
1.28471e-23
1.21067e-23
1.13932e-23
1.07042e-23
1.00381e-23
9.39321e-24
8.76839e-24
8.16247e-24
7.5744e-24
7.00321e-24
6.44796e-24
5.9077e-24
5.38149e-24
4.86833e-24
4.36725e-24
3.8772e-24
3.39713e-24
2.92593e-24
2.46249e-24
2.00566e-24
1.55427e-24
1.10712e-24
6.63015e-25
2.20742e-25
)
;
    }
    top
    {
        type            fixedValue;
        value           uniform 0;
    }
    bottom
    {
        type            fixedValue;
        value           uniform 0;
    }
    frontAndBackPlanes
    {
        type            empty;
        value           nonuniform List<scalar> 0();
    }
}


// ************************************************************************* //
