/*--------------------------------*- C++ -*----------------------------------*\
| =========                 |                                                 |
| \\      /  F ield         | OpenFOAM: The Open Source CFD Toolbox           |
|  \\    /   O peration     | Version:  v2006                                 |
|   \\  /    A nd           | Website:  www.openfoam.com                      |
|    \\/     M anipulation  |                                                 |
\*---------------------------------------------------------------------------*/
FoamFile
{
    version     2.0;
    format      ascii;
    class       volTensorField;
    location    "1180";
    object      Taua;
}
// * * * * * * * * * * * * * * * * * * * * * * * * * * * * * * * * * * * * * //

dimensions      [1 -1 -2 0 0 0 0];


internalField   nonuniform List<tensor> 
120
(
(0.00199154 0 0 8.63608e-15 -0.00398307 0 0 0 0.00199154)
(0.00201571 0 0 8.65003e-15 -0.00403142 0 0 0 0.00201571)
(0.00204719 0 0 8.56985e-15 -0.00409438 0 0 0 0.00204719)
(0.00207774 0 0 8.50281e-15 -0.00415548 0 0 0 0.00207774)
(0.00210855 0 0 8.55528e-15 -0.00421709 0 0 0 0.00210855)
(0.00214027 0 0 8.62119e-15 -0.00428055 0 0 0 0.00214027)
(0.0021729 0 0 8.4883e-15 -0.00434581 0 0 0 0.0021729)
(0.00220642 0 0 8.36929e-15 -0.00441285 0 0 0 0.00220642)
(0.00224088 0 0 8.6893e-15 -0.00448176 0 0 0 0.00224088)
(0.00227633 0 0 9.02381e-15 -0.00455266 0 0 0 0.00227633)
(0.00231282 0 0 9.16075e-15 -0.00462565 0 0 0 0.00231282)
(0.00235041 0 0 9.52528e-15 -0.00470082 0 0 0 0.00235041)
(0.00238914 0 0 9.90547e-15 -0.00477828 0 0 0 0.00238914)
(0.00242908 0 0 1.00894e-14 -0.00485816 0 0 0 0.00242908)
(0.00247028 0 0 1.02899e-14 -0.00494055 0 0 0 0.00247028)
(0.00251279 0 0 1.05075e-14 -0.00502558 0 0 0 0.00251279)
(0.00255667 0 0 1.07427e-14 -0.00511335 0 0 0 0.00255667)
(0.00260199 0 0 1.09961e-14 -0.00520397 0 0 0 0.00260199)
(0.00264879 0 0 1.12683e-14 -0.00529757 0 0 0 0.00264879)
(0.00269713 0 0 1.15598e-14 -0.00539426 0 0 0 0.00269713)
(0.00274708 0 0 1.18712e-14 -0.00549416 0 0 0 0.00274708)
(0.0027987 0 0 1.22031e-14 -0.0055974 0 0 0 0.0027987)
(0.00285205 0 0 1.25563e-14 -0.0057041 0 0 0 0.00285205)
(0.00290721 0 0 1.378e-14 -0.00581442 0 0 0 0.00290721)
(0.00296426 0 0 1.5026e-14 -0.00592852 0 0 0 0.00296426)
(0.00302329 0 0 1.54461e-14 -0.00604658 0 0 0 0.00302329)
(0.0030844 0 0 1.54652e-14 -0.00616881 0 0 0 0.0030844)
(0.00314773 0 0 1.55082e-14 -0.00629545 0 0 0 0.00314773)
(0.0032134 0 0 1.59999e-14 -0.0064268 0 0 0 0.0032134)
(0.00328158 0 0 1.56678e-14 -0.00656316 0 0 0 0.00328158)
(0.00335245 0 0 1.45122e-14 -0.00670491 0 0 0 0.00335245)
(0.00342623 0 0 1.42304e-14 -0.00685247 0 0 0 0.00342623)
(0.00350315 0 0 1.48223e-14 -0.00700631 0 0 0 0.00350315)
(0.00358347 0 0 1.54393e-14 -0.00716693 0 0 0 0.00358347)
(0.00366745 0 0 1.60722e-14 -0.0073349 0 0 0 0.00366745)
(0.0037554 3.68135e-17 0 1.75785e-14 -0.0075108 0 0 0 0.0037554)
(0.00384761 0 0 1.99761e-14 -0.00769523 0 0 0 0.00384761)
(0.0039444 0 0 2.0701e-14 -0.00788881 0 0 0 0.0039444)
(0.00404607 0 0 2.14387e-14 -0.00809215 0 0 0 0.00404607)
(0.00415292 0 0 2.13494e-14 -0.00830585 0 0 0 0.00415292)
(0.00426524 0 0 2.12798e-14 -0.00853048 0 0 0 0.00426524)
(0.0043833 0 0 2.20766e-14 -0.0087666 0 0 0 0.0043833)
(0.00450738 0 0 2.20419e-14 -0.00901476 0 0 0 0.00450738)
(0.00463777 0 0 2.28697e-14 -0.00927554 0 0 0 0.00463777)
(0.00477478 0 0 2.45575e-14 -0.00954957 0 0 0 0.00477478)
(0.00491882 0 0 2.45581e-14 -0.00983765 0 0 0 0.00491882)
(0.0050704 0 0 2.37169e-14 -0.0101408 0 0 0 0.0050704)
(0.00523019 0 0 2.37277e-14 -0.0104604 0 0 0 0.00523019)
(0.00539913 0 0 2.54364e-14 -0.0107983 0 0 0 0.00539913)
(0.00557844 0 0 2.79912e-14 -0.0111569 0 0 0 0.00557844)
(0.00576973 0 0 2.88439e-14 -0.0115395 0 0 0 0.00576973)
(0.00597499 0 0 2.96879e-14 -0.01195 0 0 0 0.00597499)
(0.00619667 0 0 3.05211e-14 -0.0123933 0 0 0 0.00619667)
(0.0064376 0 0 3.13413e-14 -0.0128752 0 0 0 0.0064376)
(0.00670094 0 0 3.29962e-14 -0.0134019 0 0 0 0.00670094)
(0.00699003 0 0 3.46345e-14 -0.0139801 0 0 0 0.00699003)
(0.00730817 0 0 3.54041e-14 -0.0146163 0 0 0 0.00730817)
(0.00765839 0 0 3.61911e-14 -0.0153168 0 0 0 0.00765839)
(0.00804316 -7.36271e-17 0 3.52659e-14 -0.0160863 0 0 0 0.00804316)
(0.00846419 0 0 3.42661e-14 -0.0169284 0 0 0 0.00846419)
(0.00892241 0 0 3.49654e-14 -0.0178448 0 0 0 0.00892241)
(0.00941821 0 0 3.56952e-14 -0.0188364 0 0 0 0.00941821)
(0.0099523 0 0 3.64199e-14 -0.0199046 0 0 0 0.0099523)
(0.0105273 0 0 3.71393e-14 -0.0210545 0 0 0 0.0105273)
(0.0111504 0 0 3.61375e-14 -0.0223008 0 0 0 0.0111504)
(0.011838 0 0 3.6845e-14 -0.023676 0 0 0 0.011838)
(0.0126219 0 0 3.92716e-14 -0.0252437 0 0 0 0.0126219)
(0.0135574 0 0 4.0038e-14 -0.0271149 0 0 0 0.0135574)
(0.0147346 0 0 4.09773e-14 -0.0294693 0 0 0 0.0147346)
(0.0162991 0 0 4.22922e-14 -0.0325981 0 0 0 0.0162991)
(0.0184889 0 0 4.24806e-14 -0.0369778 0 0 0 0.0184889)
(0.0216974 0 0 4.35967e-14 -0.0433947 0 0 0 0.0216974)
(0.0265355 0 0 4.75149e-14 -0.053071 0 0 0 0.0265355)
(0.0329911 0 0 5.21307e-14 -0.0659822 0 0 0 0.0329911)
(0.0401096 0 0 5.84536e-14 -0.0802192 0 0 0 0.0401096)
(0.0386704 0 0 5.71804e-14 -0.0773408 0 0 0 0.0386704)
(0.0285564 0 0 4.6908e-14 -0.0571129 0 0 0 0.0285564)
(0.0197669 0 0 3.47855e-14 -0.0395338 0 0 0 0.0197669)
(0.00975494 0 0 1.40597e-14 -0.0195099 0 0 0 0.00975494)
(1.84159e-06 0 0 3.93489e-17 -3.68319e-06 0 0 0 1.84159e-06)
(4.33071e-07 0 0 5.01961e-17 -8.66142e-07 0 0 0 4.33071e-07)
(-9.17213e-07 0 0 2.32732e-17 1.83443e-06 0 0 0 -9.17213e-07)
(4.53284e-07 0 0 2.18449e-17 -9.06568e-07 0 0 0 4.53284e-07)
(1.90447e-07 0 0 2.48263e-17 -3.80894e-07 0 0 0 1.90447e-07)
(7.69159e-08 0 0 2.85787e-17 -1.53832e-07 0 0 0 7.69159e-08)
(1.5349e-08 0 0 -6.26127e-19 -3.06979e-08 0 0 0 1.5349e-08)
(1.74671e-08 0 0 -2.97813e-17 -3.49342e-08 0 0 0 1.74671e-08)
(3.11732e-07 0 0 -2.59378e-17 -6.23463e-07 0 0 0 3.11732e-07)
(-2.33361e-07 0 0 -2.23114e-17 4.66722e-07 0 0 0 -2.33361e-07)
(-2.83147e-06 0 0 -1.85491e-17 5.66295e-06 0 0 0 -2.83147e-06)
(-2.33025e-07 0 0 -1.46474e-17 4.66051e-07 0 0 0 -2.33025e-07)
(6.18269e-05 0 0 -9.53711e-18 -0.000123654 0 0 0 6.18269e-05)
(1.39943e-05 0 0 -4.0537e-18 -2.79887e-05 0 0 0 1.39943e-05)
(-4.07773e-07 0 0 -1.96148e-20 8.15546e-07 0 0 0 -4.07773e-07)
(7.12632e-10 0 0 -6.75727e-23 -1.42526e-09 0 0 0 7.12632e-10)
(2.89615e-17 0 0 -3.79949e-30 -5.79229e-17 0 0 0 2.89615e-17)
(-1.65911e-22 0 0 -6.73162e-35 3.31822e-22 0 0 0 -1.65911e-22)
(-1.71261e-29 0 0 -5.63705e-41 3.42522e-29 0 0 0 -1.71261e-29)
(-4.89006e-37 0 0 -2.72878e-47 9.78012e-37 0 0 0 -4.89006e-37)
(2.40087e-43 0 0 -9.54981e-54 -4.80175e-43 0 0 0 2.40087e-43)
(7.35922e-51 0 0 -2.8366e-60 -1.47184e-50 0 0 0 7.35922e-51)
(-1.40718e-57 0 0 -7.01046e-67 2.81436e-57 0 0 0 -1.40718e-57)
(-4.57819e-65 0 0 -1.52017e-73 9.15638e-65 0 0 0 -4.57819e-65)
(4.17453e-72 0 0 -2.69745e-80 -8.34905e-72 0 0 0 4.17453e-72)
(1.36327e-79 0 0 -4.22463e-87 -2.72653e-79 0 0 0 1.36327e-79)
(-6.72743e-87 0 0 -5.89045e-94 1.34549e-86 0 0 0 -6.72743e-87)
(-2.80433e-94 0 0 -8.84816e-101 5.60866e-94 0 0 0 -2.80433e-94)
(1.41863e-101 0 0 -1.5939e-107 -2.83726e-101 0 0 0 1.41863e-101)
(1.5583e-108 0 0 -3.72177e-114 -3.11661e-108 0 0 0 1.5583e-108)
(8.41017e-116 0 0 -9.06366e-121 -1.68203e-115 0 0 0 8.41017e-116)
(2.91327e-122 0 0 -2.10349e-127 -5.82654e-122 0 0 0 2.91327e-122)
(6.30656e-129 0 0 -4.11282e-134 -1.26131e-128 0 0 0 6.30656e-129)
(7.6182e-136 0 0 -7.09852e-141 -1.52364e-135 0 0 0 7.6182e-136)
(-1.17806e-142 0 0 -1.04863e-147 2.35611e-142 0 0 0 -1.17806e-142)
(-3.62107e-149 0 0 -1.4354e-154 7.24214e-149 0 0 0 -3.62107e-149)
(-1.00221e-154 0 0 -1.73569e-161 2.00442e-154 0 0 0 -1.00221e-154)
(-6.03079e-159 0 0 -1.94536e-168 1.20616e-158 0 0 0 -6.03079e-159)
(-1.40384e-165 0 0 -1.91687e-175 2.80768e-165 0 0 0 -1.40384e-165)
(-9.25769e-172 0 0 -1.73543e-182 1.85154e-171 0 0 0 -9.25769e-172)
(-7.04079e-176 0 0 -1.36286e-189 1.40816e-175 0 0 0 -7.04079e-176)
)
;

boundaryField
{
    inlet
    {
        type            cyclic;
    }
    outlet
    {
        type            cyclic;
    }
    top
    {
        type            extrapolatedCalculated;
        value           uniform (-1.40682e-175 0 0 -1.36161e-189 2.81363e-175 0 0 0 -1.40682e-175);
    }
    bottom
    {
        type            extrapolatedCalculated;
        value           uniform (0.00198347 0 0 8.63188e-15 -0.00396694 0 0 0 0.00198347);
    }
    frontAndBackPlanes
    {
        type            empty;
    }
}


// ************************************************************************* //
