/*--------------------------------*- C++ -*----------------------------------*\
| =========                 |                                                 |
| \\      /  F ield         | OpenFOAM: The Open Source CFD Toolbox           |
|  \\    /   O peration     | Version:  v2006                                 |
|   \\  /    A nd           | Website:  www.openfoam.com                      |
|    \\/     M anipulation  |                                                 |
\*---------------------------------------------------------------------------*/
FoamFile
{
    version     2.0;
    format      ascii;
    class       volTensorField;
    location    "1180";
    object      Taub;
}
// * * * * * * * * * * * * * * * * * * * * * * * * * * * * * * * * * * * * * //

dimensions      [1 -1 -2 0 0 0 0];


internalField   nonuniform List<tensor> 
120
(
(-1.42176e-07 0 0 4.10839e-19 2.84352e-07 0 0 0 -1.42176e-07)
(-1.43473e-07 0 0 4.12096e-19 2.86946e-07 0 0 0 -1.43473e-07)
(-1.4539e-07 0 0 4.07638e-19 2.9078e-07 0 0 0 -1.4539e-07)
(-1.47472e-07 0 0 4.03805e-19 2.94943e-07 0 0 0 -1.47472e-07)
(-1.49592e-07 0 0 4.06908e-19 2.99183e-07 0 0 0 -1.49592e-07)
(-1.51761e-07 0 0 4.13393e-19 3.03521e-07 0 0 0 -1.51761e-07)
(-1.53984e-07 0 0 4.0364e-19 3.07969e-07 0 0 0 -1.53984e-07)
(-1.56268e-07 0 0 3.90077e-19 3.12536e-07 0 0 0 -1.56268e-07)
(-1.58615e-07 0 0 4.13151e-19 3.1723e-07 0 0 0 -1.58615e-07)
(-1.61028e-07 0 0 4.33526e-19 3.22056e-07 0 0 0 -1.61028e-07)
(-1.6351e-07 0 0 4.29285e-19 3.2702e-07 0 0 0 -1.6351e-07)
(-1.66065e-07 0 0 4.52826e-19 3.3213e-07 0 0 0 -1.66065e-07)
(-1.68696e-07 0 0 4.77126e-19 3.37392e-07 0 0 0 -1.68696e-07)
(-1.71407e-07 0 0 4.79605e-19 3.42815e-07 0 0 0 -1.71407e-07)
(-1.74202e-07 0 0 4.89074e-19 3.48405e-07 0 0 0 -1.74202e-07)
(-1.77085e-07 0 0 4.9938e-19 3.54169e-07 0 0 0 -1.77085e-07)
(-1.80058e-07 0 0 5.10522e-19 3.60116e-07 0 0 0 -1.80058e-07)
(-1.83126e-07 0 0 5.22526e-19 3.66252e-07 0 0 0 -1.83126e-07)
(-1.86292e-07 0 0 5.35418e-19 3.72584e-07 0 0 0 -1.86292e-07)
(-1.8956e-07 0 0 5.49227e-19 3.79121e-07 0 0 0 -1.8956e-07)
(-1.92934e-07 0 0 5.63978e-19 3.85869e-07 0 0 0 -1.92934e-07)
(-1.96418e-07 0 0 5.79455e-19 3.92837e-07 0 0 0 -1.96418e-07)
(-2.00017e-07 0 0 5.39674e-19 4.00033e-07 0 0 0 -2.00017e-07)
(-2.03734e-07 0 0 6.54507e-19 4.07468e-07 0 0 0 -2.03734e-07)
(-2.07575e-07 0 0 7.70524e-19 4.15151e-07 0 0 0 -2.07575e-07)
(-2.11547e-07 0 0 7.66677e-19 4.23093e-07 0 0 0 -2.11547e-07)
(-2.15655e-07 0 0 7.34366e-19 4.3131e-07 0 0 0 -2.15655e-07)
(-2.19908e-07 0 0 7.03774e-19 4.39815e-07 0 0 0 -2.19908e-07)
(-2.24315e-07 0 0 8.35248e-19 4.48629e-07 0 0 0 -2.24315e-07)
(-2.28886e-07 0 0 8.22544e-19 4.57772e-07 0 0 0 -2.28886e-07)
(-2.33635e-07 0 0 6.13453e-19 4.67269e-07 0 0 0 -2.33635e-07)
(-2.38574e-07 0 0 5.96344e-19 4.77148e-07 0 0 0 -2.38574e-07)
(-2.43719e-07 0 0 7.03097e-19 4.87438e-07 0 0 0 -2.43719e-07)
(-2.49087e-07 0 0 7.32225e-19 4.98174e-07 0 0 0 -2.49087e-07)
(-2.54695e-07 0 0 6.65618e-19 5.0939e-07 0 0 0 -2.54695e-07)
(-2.60563e-07 -3.49319e-21 0 7.34107e-19 5.21126e-07 0 0 0 -2.60563e-07)
(-2.6671e-07 0 0 1.14797e-18 5.3342e-07 0 0 0 -2.6671e-07)
(-2.73156e-07 0 0 9.75448e-19 5.46312e-07 0 0 0 -2.73156e-07)
(-2.7992e-07 0 0 1.13721e-18 5.59841e-07 0 0 0 -2.7992e-07)
(-2.87022e-07 0 0 1.00422e-18 5.74044e-07 0 0 0 -2.87022e-07)
(-2.94478e-07 0 0 9.05748e-19 5.88956e-07 0 0 0 -2.94478e-07)
(-3.02306e-07 0 0 1.16223e-18 6.04612e-07 0 0 0 -3.02306e-07)
(-3.10522e-07 0 0 9.24026e-19 6.21044e-07 0 0 0 -3.10522e-07)
(-3.19144e-07 0 0 9.5023e-19 6.38287e-07 0 0 0 -3.19144e-07)
(-3.28192e-07 0 0 1.44258e-18 6.56384e-07 0 0 0 -3.28192e-07)
(-3.37691e-07 0 0 1.29893e-18 6.75382e-07 0 0 0 -3.37691e-07)
(-3.47675e-07 0 0 9.93772e-19 6.95351e-07 0 0 0 -3.47675e-07)
(-3.58189e-07 0 0 8.13497e-19 7.16378e-07 0 0 0 -3.58189e-07)
(-3.69293e-07 0 0 1.05551e-18 7.38587e-07 0 0 0 -3.69293e-07)
(-3.81068e-07 0 0 1.63431e-18 7.62136e-07 0 0 0 -3.81068e-07)
(-3.93619e-07 0 0 1.36727e-18 7.87237e-07 0 0 0 -3.93619e-07)
(-4.07077e-07 0 0 1.40563e-18 8.14154e-07 0 0 0 -4.07077e-07)
(-4.21603e-07 0 0 1.44398e-18 8.43207e-07 0 0 0 -4.21603e-07)
(-4.37381e-07 0 0 1.29317e-18 8.74762e-07 0 0 0 -4.37381e-07)
(-4.54613e-07 0 0 1.56146e-18 9.09225e-07 0 0 0 -4.54613e-07)
(-4.73507e-07 0 0 1.82887e-18 9.47015e-07 0 0 0 -4.73507e-07)
(-4.94267e-07 0 0 1.67766e-18 9.88533e-07 0 0 0 -4.94267e-07)
(-5.17066e-07 0 0 2.14971e-18 1.03413e-06 0 0 0 -5.17066e-07)
(-5.42041e-07 6.96298e-21 0 1.66754e-18 1.08408e-06 0 0 0 -5.42041e-07)
(-5.69277e-07 0 0 1.18208e-18 1.13855e-06 0 0 0 -5.69277e-07)
(-5.98807e-07 0 0 1.65063e-18 1.19761e-06 0 0 0 -5.98807e-07)
(-6.30633e-07 0 0 1.68671e-18 1.26127e-06 0 0 0 -6.30633e-07)
(-6.64791e-07 0 0 1.72303e-18 1.32958e-06 0 0 0 -6.64791e-07)
(-7.01468e-07 0 0 2.30032e-18 1.40294e-06 0 0 0 -7.01468e-07)
(-7.41193e-07 0 0 1.13502e-18 1.48239e-06 0 0 0 -7.41193e-07)
(-7.85134e-07 0 0 1.19047e-18 1.57027e-06 0 0 0 -7.85134e-07)
(-8.35538e-07 0 0 2.42136e-18 1.67108e-06 0 0 0 -8.35538e-07)
(-8.96329e-07 0 0 1.89119e-18 1.79266e-06 0 0 0 -8.96329e-07)
(-9.73953e-07 0 0 1.93544e-18 1.94791e-06 0 0 0 -9.73953e-07)
(-1.07878e-06 0 0 2.7033e-18 2.15756e-06 0 0 0 -1.07878e-06)
(-1.22716e-06 0 0 2.00123e-18 2.45432e-06 0 0 0 -1.22716e-06)
(-1.43841e-06 0 0 1.34336e-18 2.87682e-06 0 0 0 -1.43841e-06)
(-1.73158e-06 0 0 2.23247e-18 3.46315e-06 0 0 0 -1.73158e-06)
(-2.12123e-06 0 0 2.45176e-18 4.24247e-06 0 0 0 -2.12123e-06)
(-2.53194e-06 0 0 2.7478e-18 5.06389e-06 0 0 0 -2.53194e-06)
(-2.69657e-06 0 0 3.14307e-18 5.39313e-06 0 0 0 -2.69657e-06)
(-2.30247e-06 0 0 3.24452e-18 4.60495e-06 0 0 0 -2.30247e-06)
(-6.43378e-07 0 0 2.97995e-18 1.28676e-06 0 0 0 -6.43378e-07)
(-3.45413e-05 0 0 2.23249e-17 6.90826e-05 0 0 0 -3.45413e-05)
(2.09998e-05 0 0 3.1973e-15 -4.19997e-05 0 0 0 2.09998e-05)
(-7.49015e-05 0 0 4.17212e-15 0.000149803 0 0 0 -7.49015e-05)
(-0.000110719 0 0 1.97105e-15 0.000221438 0 0 0 -0.000110719)
(2.15874e-05 0 0 1.86165e-15 -4.31749e-05 0 0 0 2.15874e-05)
(8.32132e-06 0 0 2.1219e-15 -1.66426e-05 0 0 0 8.32132e-06)
(2.7762e-06 0 0 2.43297e-15 -5.5524e-06 0 0 0 2.7762e-06)
(-5.46872e-07 0 0 -5.36259e-17 1.09374e-06 0 0 0 -5.46872e-07)
(6.13878e-07 0 0 -2.53854e-15 -1.22776e-06 0 0 0 6.13878e-07)
(2.65843e-05 0 0 -2.22265e-15 -5.31685e-05 0 0 0 2.65843e-05)
(-2.14855e-05 0 0 -1.91132e-15 4.2971e-05 0 0 0 -2.14855e-05)
(-0.000236545 0 0 -1.59191e-15 0.00047309 0 0 0 -0.000236545)
(-4.17272e-05 0 0 -1.25081e-15 8.34543e-05 0 0 0 -4.17272e-05)
(0.00526077 0 0 -8.36914e-16 -0.0105215 0 0 0 0.00526077)
(-9.77533e-05 0 0 -3.66306e-16 0.000195507 0 0 0 -9.77533e-05)
(-0.002648 0 0 -8.16879e-17 0.005296 0 0 0 -0.002648)
(0.000112314 0 0 -1.09109e-16 -0.000224628 0 0 0 0.000112314)
(0.000375935 0 0 -1.04848e-16 -0.000751871 0 0 0 0.000375935)
(6.50541e-06 0 0 -1.00677e-16 -1.30108e-05 0 0 0 6.50541e-06)
(-2.91807e-05 0 0 -9.69183e-17 5.83613e-05 0 0 0 -2.91807e-05)
(-1.69204e-06 0 0 -9.34904e-17 3.38409e-06 0 0 0 -1.69204e-06)
(2.21671e-06 0 0 -9.03298e-17 -4.43342e-06 0 0 0 2.21671e-06)
(2.22355e-07 0 0 -8.7389e-17 -4.4471e-07 0 0 0 2.22355e-07)
(-1.64574e-07 0 0 -8.46337e-17 3.29149e-07 0 0 0 -1.64574e-07)
(-2.41492e-08 0 0 -8.20394e-17 4.82984e-08 0 0 0 -2.41492e-08)
(1.19233e-08 0 0 -7.95896e-17 -2.38467e-08 0 0 0 1.19233e-08)
(2.43252e-09 0 0 -7.72739e-17 -4.86503e-09 0 0 0 2.43252e-09)
(-8.28565e-10 0 0 -7.50864e-17 1.65713e-09 0 0 0 -8.28565e-10)
(-2.25271e-10 0 0 -7.30249e-17 4.50543e-10 0 0 0 -2.25271e-10)
(6.12465e-11 0 0 -7.10896e-17 -1.22493e-10 0 0 0 6.12465e-11)
(2.84217e-11 0 0 -6.92827e-17 -5.68434e-11 0 0 0 2.84217e-11)
(6.37546e-12 0 0 -6.76072e-17 -1.27509e-11 0 0 0 6.37546e-12)
(9.14423e-12 0 0 -6.60672e-17 -1.82885e-11 0 0 0 9.14423e-12)
(9.86428e-12 0 0 -6.46667e-17 -1.97286e-11 0 0 0 9.86428e-12)
(6.83544e-12 0 0 -6.34101e-17 -1.36709e-11 0 0 0 6.83544e-12)
(4.34692e-12 0 0 -6.23012e-17 -8.69384e-12 0 0 0 4.34692e-12)
(3.85903e-12 0 0 -6.13438e-17 -7.71806e-12 0 0 0 3.85903e-12)
(4.794e-12 0 0 -6.05409e-17 -9.58799e-12 0 0 0 4.794e-12)
(5.13991e-12 0 0 -5.98954e-17 -1.02798e-11 0 0 0 5.13991e-12)
(-6.26367e-13 0 0 -5.94093e-17 1.25273e-12 0 0 0 -6.26367e-13)
(-2.11849e-12 0 0 -5.90843e-17 4.23698e-12 0 0 0 -2.11849e-12)
(9.58071e-11 0 0 -5.89098e-17 -1.91614e-10 0 0 0 9.58071e-11)
)
;

boundaryField
{
    inlet
    {
        type            cyclic;
    }
    outlet
    {
        type            cyclic;
    }
    top
    {
        type            extrapolatedCalculated;
        value           uniform (1.89724e-10 0 0 -5.88572e-17 -3.79448e-10 0 0 0 1.89724e-10);
    }
    bottom
    {
        type            extrapolatedCalculated;
        value           uniform (-1.41759e-07 0 0 4.10637e-19 2.83518e-07 0 0 0 -1.41759e-07);
    }
    frontAndBackPlanes
    {
        type            empty;
    }
}


// ************************************************************************* //
