/*--------------------------------*- C++ -*----------------------------------*\
| =========                 |                                                 |
| \\      /  F ield         | OpenFOAM: The Open Source CFD Toolbox           |
|  \\    /   O peration     | Version:  v2006                                 |
|   \\  /    A nd           | Website:  www.openfoam.com                      |
|    \\/     M anipulation  |                                                 |
\*---------------------------------------------------------------------------*/
FoamFile
{
    version     2.0;
    format      ascii;
    class       volVectorField;
    location    "1180";
    object      Ua;
}
// * * * * * * * * * * * * * * * * * * * * * * * * * * * * * * * * * * * * * //

dimensions      [0 1 -1 0 0 0 0];


internalField   nonuniform List<vector> 
120
(
(2.05521e-21 -1.41676e-09 0)
(6.16962e-21 -4.27334e-09 0)
(1.02933e-20 -7.17592e-09 0)
(1.43314e-20 -1.01224e-08 0)
(1.83912e-20 -1.31123e-08 0)
(2.24793e-20 -1.61469e-08 0)
(2.66019e-20 -1.92274e-08 0)
(3.05633e-20 -2.23551e-08 0)
(3.45726e-20 -2.55314e-08 0)
(3.88389e-20 -2.87577e-08 0)
(4.31667e-20 -3.20352e-08 0)
(4.75634e-20 -3.53657e-08 0)
(5.22384e-20 -3.87507e-08 0)
(5.69972e-20 -4.21918e-08 0)
(6.18474e-20 -4.56909e-08 0)
(6.67971e-20 -4.92498e-08 0)
(7.18545e-20 -5.28703e-08 0)
(7.70282e-20 -5.65545e-08 0)
(8.2327e-20 -6.03046e-08 0)
(8.77599e-20 -6.41225e-08 0)
(9.33363e-20 -6.80106e-08 0)
(9.90658e-20 -7.19713e-08 0)
(1.04958e-19 -7.60069e-08 0)
(1.11024e-19 -8.012e-08 0)
(1.18082e-19 -8.43132e-08 0)
(1.25335e-19 -8.85893e-08 0)
(1.32793e-19 -9.29512e-08 0)
(1.40063e-19 -9.74019e-08 0)
(1.47562e-19 -1.01945e-07 0)
(1.55301e-19 -1.06583e-07 0)
(1.62484e-19 -1.11321e-07 0)
(1.69122e-19 -1.16161e-07 0)
(1.76037e-19 -1.2111e-07 0)
(1.83239e-19 -1.2617e-07 0)
(1.90741e-19 -1.31348e-07 0)
(1.98546e-19 -1.36649e-07 0)
(2.07482e-19 -1.42078e-07 0)
(2.17571e-19 -1.47642e-07 0)
(2.27198e-19 -1.53348e-07 0)
(2.37989e-19 -1.59202e-07 0)
(2.4753e-19 -1.65213e-07 0)
(2.58255e-19 -1.71389e-07 0)
(2.68556e-19 -1.77737e-07 0)
(2.79247e-19 -1.84267e-07 0)
(2.90336e-19 -1.90988e-07 0)
(3.02635e-19 -1.97909e-07 0)
(3.13725e-19 -2.05041e-07 0)
(3.25223e-19 -2.12396e-07 0)
(3.36323e-19 -2.19985e-07 0)
(3.49448e-19 -2.27822e-07 0)
(3.62981e-19 -2.35923e-07 0)
(3.76918e-19 -2.44307e-07 0)
(3.91255e-19 -2.52995e-07 0)
(4.05986e-19 -2.62012e-07 0)
(4.21104e-19 -2.71388e-07 0)
(4.37411e-19 -2.81157e-07 0)
(4.54089e-19 -2.91359e-07 0)
(4.71129e-19 -3.02038e-07 0)
(4.88557e-19 -3.1324e-07 0)
(5.04716e-19 -3.25018e-07 0)
(5.21191e-19 -3.37424e-07 0)
(5.38016e-19 -3.50511e-07 0)
(5.55187e-19 -3.64333e-07 0)
(5.72702e-19 -3.78946e-07 0)
(5.90557e-19 -3.94411e-07 0)
(6.07118e-19 -4.10804e-07 0)
(6.25648e-19 -4.28234e-07 0)
(6.4452e-19 -4.46866e-07 0)
(6.63779e-19 -4.66969e-07 0)
(6.83546e-19 -4.88965e-07 0)
(7.04058e-19 -5.13538e-07 0)
(7.24004e-19 -5.41791e-07 0)
(7.45578e-19 -5.7553e-07 0)
(7.69256e-19 -6.17607e-07 0)
(7.95226e-19 -6.6979e-07 0)
(8.24926e-19 -7.32205e-07 0)
(8.58972e-19 -7.99121e-07 0)
(8.9077e-19 -8.52459e-07 0)
(9.17404e-19 -8.98733e-07 0)
(9.6172e-19 -1.00014e-06 0)
(6.71231e-17 -1.01944e-05 0)
(9.09738e-17 -3.3299e-06 0)
(1.10272e-16 -5.09276e-06 0)
(1.32056e-16 -5.88725e-06 0)
(1.5727e-16 -6.17435e-06 0)
(1.8633e-16 -6.32546e-06 0)
(1.56079e-16 -6.26193e-06 0)
(1.2964e-16 -6.42521e-06 0)
(1.0669e-16 -8.04269e-06 0)
(8.71847e-17 -5.09305e-06 0)
(7.12486e-17 8.18729e-06 0)
(5.95111e-17 -3.77227e-06 0)
(5.21046e-17 -0.000364131 0)
(5.08468e-17 -9.35053e-05 0)
(4.8072e-17 -0.000112627 0)
(4.53941e-17 -0.000266022 0)
(4.28235e-17 -0.000232646 0)
(4.03555e-17 -0.000228767 0)
(3.7977e-17 -0.000228229 0)
(3.56804e-17 -0.000228515 0)
(3.346e-17 -0.00022857 0)
(3.13104e-17 -0.000228549 0)
(2.92278e-17 -0.000228544 0)
(2.72079e-17 -0.000228546 0)
(2.52479e-17 -0.000228546 0)
(2.33437e-17 -0.000228546 0)
(2.14931e-17 -0.000228546 0)
(1.96921e-17 -0.000228546 0)
(1.79382e-17 -0.000228546 0)
(1.62276e-17 -0.000228546 0)
(1.45573e-17 -0.000228546 0)
(1.29238e-17 -0.000228546 0)
(1.13235e-17 -0.000228546 0)
(9.75301e-18 -0.000228546 0)
(8.20813e-18 -0.000228546 0)
(6.68536e-18 -0.000228546 0)
(5.18071e-18 -0.000228546 0)
(3.69022e-18 -0.000228518 0)
(2.20988e-18 -0.000228481 0)
(7.35724e-19 -0.000228045 0)
)
;

boundaryField
{
    inlet
    {
        type            cyclic;
    }
    outlet
    {
        type            cyclic;
    }
    top
    {
        type            fixedValue;
        value           uniform (0 0 0);
    }
    bottom
    {
        type            fixedValue;
        value           uniform (0 0 0);
    }
    frontAndBackPlanes
    {
        type            empty;
    }
}


// ************************************************************************* //
