/*--------------------------------*- C++ -*----------------------------------*\
| =========                 |                                                 |
| \\      /  F ield         | OpenFOAM: The Open Source CFD Toolbox           |
|  \\    /   O peration     | Version:  v2006                                 |
|   \\  /    A nd           | Website:  www.openfoam.com                      |
|    \\/     M anipulation  |                                                 |
\*---------------------------------------------------------------------------*/
FoamFile
{
    version     2.0;
    format      ascii;
    class       volVectorField;
    location    "1180";
    object      Ub;
}
// * * * * * * * * * * * * * * * * * * * * * * * * * * * * * * * * * * * * * //

dimensions      [0 1 -1 0 0 0 0];


internalField   nonuniform List<vector> 
120
(
(2.05521e-21 2.12848e-09 0)
(6.16967e-21 6.4105e-09 0)
(1.03057e-20 1.07458e-08 0)
(1.43314e-20 1.51435e-08 0)
(1.83912e-20 1.96044e-08 0)
(2.24796e-20 2.413e-08 0)
(2.66697e-20 2.87218e-08 0)
(3.05632e-20 3.33815e-08 0)
(3.44823e-20 3.81111e-08 0)
(3.88385e-20 4.29125e-08 0)
(4.31662e-20 4.77877e-08 0)
(4.7438e-20 5.27389e-08 0)
(5.22379e-20 5.77683e-08 0)
(5.69972e-20 6.28783e-08 0)
(6.18474e-20 6.80714e-08 0)
(6.67971e-20 7.33501e-08 0)
(7.18545e-20 7.87173e-08 0)
(7.70282e-20 8.41755e-08 0)
(8.2327e-20 8.97279e-08 0)
(8.77599e-20 9.53774e-08 0)
(9.33363e-20 1.01127e-07 0)
(9.90657e-20 1.0698e-07 0)
(1.04953e-19 1.12941e-07 0)
(1.09886e-19 1.19011e-07 0)
(1.18077e-19 1.25196e-07 0)
(1.25337e-19 1.31499e-07 0)
(1.33453e-19 1.37924e-07 0)
(1.40066e-19 1.44475e-07 0)
(1.47569e-19 1.51157e-07 0)
(1.56821e-19 1.57974e-07 0)
(1.64071e-19 1.64932e-07 0)
(1.6913e-19 1.72037e-07 0)
(1.76037e-19 1.79294e-07 0)
(1.83239e-19 1.86709e-07 0)
(1.90732e-19 1.94291e-07 0)
(1.96599e-19 2.02046e-07 0)
(2.05468e-19 2.09982e-07 0)
(2.19645e-19 2.18109e-07 0)
(2.25053e-19 2.26435e-07 0)
(2.4248e-19 2.34971e-07 0)
(2.45221e-19 2.43728e-07 0)
(2.60672e-19 2.52715e-07 0)
(2.68566e-19 2.61945e-07 0)
(2.79235e-19 2.7143e-07 0)
(2.87658e-19 2.81182e-07 0)
(3.08224e-19 2.91214e-07 0)
(3.13763e-19 3.01542e-07 0)
(3.28198e-19 3.12179e-07 0)
(3.30117e-19 3.23143e-07 0)
(3.4942e-19 3.34454e-07 0)
(3.62981e-19 3.46132e-07 0)
(3.76918e-19 3.58203e-07 0)
(3.91255e-19 3.70697e-07 0)
(4.05969e-19 3.83649e-07 0)
(4.17276e-19 3.971e-07 0)
(4.37394e-19 4.11096e-07 0)
(4.54089e-19 4.25693e-07 0)
(4.7117e-19 4.40949e-07 0)
(4.97378e-19 4.56929e-07 0)
(5.04756e-19 4.73701e-07 0)
(5.21191e-19 4.91335e-07 0)
(5.38016e-19 5.09899e-07 0)
(5.55187e-19 5.29466e-07 0)
(5.72752e-19 5.50106e-07 0)
(6.01574e-19 5.71902e-07 0)
(5.95647e-19 5.94958e-07 0)
(6.25594e-19 6.19428e-07 0)
(6.4452e-19 6.45551e-07 0)
(6.6378e-19 6.73721e-07 0)
(6.83613e-19 7.04569e-07 0)
(7.18406e-19 7.39119e-07 0)
(7.24071e-19 7.78997e-07 0)
(7.45578e-19 8.26404e-07 0)
(7.69256e-19 8.84136e-07 0)
(7.95237e-19 9.55296e-07 0)
(8.24956e-19 1.03811e-06 0)
(8.59008e-19 1.11943e-06 0)
(8.90851e-19 1.1784e-06 0)
(9.19602e-19 1.15868e-06 0)
(1.34579e-18 3.29005e-06 0)
(6.71217e-17 -1.45767e-07 0)
(9.09737e-17 8.11728e-06 0)
(1.10272e-16 7.12586e-06 0)
(1.32056e-16 6.68813e-06 0)
(1.5727e-16 6.57293e-06 0)
(1.86039e-16 6.50334e-06 0)
(1.56079e-16 6.60937e-06 0)
(1.2964e-16 6.46242e-06 0)
(1.0669e-16 4.83717e-06 0)
(8.71849e-17 7.89417e-06 0)
(7.12487e-17 2.06359e-05 0)
(5.95113e-17 1.06638e-05 0)
(5.2105e-17 -0.000340372 0)
(5.08462e-17 1.76009e-05 0)
(4.80668e-17 5.23292e-05 0)
(4.53903e-17 7.52176e-07 0)
(4.28238e-17 -4.0681e-06 0)
(4.03558e-17 -2.23758e-07 0)
(3.79772e-17 3.09543e-07 0)
(3.56807e-17 3.00805e-08 0)
(3.34602e-17 -2.30047e-08 0)
(3.13107e-17 -3.2769e-09 0)
(2.9228e-17 1.68458e-09 0)
(2.72082e-17 3.45937e-10 0)
(2.5248e-17 -1.04141e-10 0)
(2.3344e-17 -1.89861e-11 0)
(2.14932e-17 2.0159e-11 0)
(1.96923e-17 1.48088e-11 0)
(1.79383e-17 1.09709e-11 0)
(1.62278e-17 1.0545e-11 0)
(1.45575e-17 1.00145e-11 0)
(1.2924e-17 9.17318e-12 0)
(1.13238e-17 8.53466e-12 0)
(9.75311e-18 8.14773e-12 0)
(8.20831e-18 7.88254e-12 0)
(6.68554e-18 7.56881e-12 0)
(5.18089e-18 7.16336e-12 0)
(3.69039e-18 6.79772e-12 0)
(2.21005e-18 7.25732e-12 0)
(7.35807e-19 7.11554e-12 0)
)
;

boundaryField
{
    inlet
    {
        type            cyclic;
    }
    outlet
    {
        type            cyclic;
    }
    top
    {
        type            fixedValue;
        value           uniform (0 0 0);
    }
    bottom
    {
        type            fixedValue;
        value           uniform (0 0 0);
    }
    frontAndBackPlanes
    {
        type            empty;
    }
}


// ************************************************************************* //
