/*--------------------------------*- C++ -*----------------------------------*\
| =========                 |                                                 |
| \\      /  F ield         | OpenFOAM: The Open Source CFD Toolbox           |
|  \\    /   O peration     | Version:  2206                                  |
|   \\  /    A nd           | Website:  www.openfoam.com                      |
|    \\/     M anipulation  |                                                 |
\*---------------------------------------------------------------------------*/
FoamFile
{
    version     2.0;
    format      ascii;
    arch        "LSB;label=32;scalar=64";
    class       volScalarField;
    location    "16";
    object      p_rbgh;
}
// * * * * * * * * * * * * * * * * * * * * * * * * * * * * * * * * * * * * * //

dimensions      [1 -1 -2 0 0 0 0];

internalField   nonuniform List<scalar> 
120
(
10.598
10.598
10.598
10.598
10.598
10.598
10.598
10.598
10.598
10.598
10.598
10.598
10.598
10.598
10.5981
10.5981
10.5981
10.5981
10.5981
10.5981
10.5981
10.5981
10.5982
10.5982
10.5982
10.5982
10.5983
10.5983
10.5984
10.5984
10.5984
10.5982
10.5983
10.5988
10.5999
10.6023
10.6021
10.6002
10.6001
10.6004
10.5999
10.5967
10.5851
10.5504
10.4688
10.3169
10.0849
9.78012
9.41974
9.02097
8.59399
8.1396
7.64993
7.1113
6.50882
5.83271
5.0858
4.28972
3.48552
2.72475
2.05352
1.49891
1.06563
0.741865
0.507959
0.343163
0.229223
0.151576
0.0992658
0.0643423
0.0411839
0.0259094
0.0159114
0.00947094
0.00543086
0.00297392
0.00159997
0.00115796
-0.000664657
0.00372324
-0.00352692
0.000626605
-0.00015032
-3.03358e-05
-4.90906e-05
-4.17178e-05
-3.872e-05
-3.56945e-05
-3.32859e-05
-2.9837e-05
-2.74729e-05
-2.52618e-05
-2.25287e-05
-2.03006e-05
-1.84737e-05
-1.67049e-05
-1.48122e-05
-1.2475e-05
-9.87091e-06
-7.55374e-06
-5.84237e-06
-4.5384e-06
-3.36965e-06
-2.14979e-06
-8.58463e-07
3.47977e-07
1.21468e-06
1.70971e-06
2.04093e-06
2.30278e-06
2.39936e-06
2.31162e-06
2.19713e-06
2.16561e-06
2.12254e-06
1.96513e-06
1.70671e-06
1.32225e-06
7.99625e-07
2.55112e-07
)
;

boundaryField
{
    inlet
    {
        type            cyclic;
    }
    outlet
    {
        type            cyclic;
    }
    top
    {
        type            fixedValue;
        value           uniform 0;
    }
    bottom
    {
        type            fixedFluxPressure;
        gradient        uniform 0;
        value           uniform 10.598;
    }
    frontAndBackPlanes
    {
        type            empty;
    }
}


// ************************************************************************* //
