/*--------------------------------*- C++ -*----------------------------------*\
| =========                 |                                                 |
| \\      /  F ield         | OpenFOAM: The Open Source CFD Toolbox           |
|  \\    /   O peration     | Version:  2206                                  |
|   \\  /    A nd           | Website:  www.openfoam.com                      |
|    \\/     M anipulation  |                                                 |
\*---------------------------------------------------------------------------*/
FoamFile
{
    version     2.0;
    format      ascii;
    arch        "LSB;label=32;scalar=64";
    class       volScalarField;
    location    "16";
    object      pa;
}
// * * * * * * * * * * * * * * * * * * * * * * * * * * * * * * * * * * * * * //

dimensions      [1 -1 -2 0 0 0 0];

internalField   nonuniform List<scalar> 
120
(
0.000124289
0.000417
0.00117427
0.00273355
0.0056074
0.0104948
0.0183764
0.0305782
0.0489084
0.0758084
0.114569
0.169614
0.246871
0.354272
0.502411
0.705407
0.982054
1.35733
1.86439
2.54714
3.46367
4.69061
6.32883
8.5114
11.4142
15.2663
20.3462
26.956
35.5295
46.8013
61.2768
79.4289
100.708
123.652
144.963
158.451
159.367
150.045
137.127
124.516
112.572
101.261
90.6371
80.7627
71.6716
63.3612
55.7903
48.8868
42.5654
36.7468
31.3699
26.3982
21.8206
17.6486
13.9116
10.6474
7.88991
5.65415
3.92344
2.64588
1.74338
1.12887
0.722065
0.45807
0.28904
0.181789
0.114199
0.0718697
0.0455553
0.029358
0.0195174
0.0136284
0.0101348
0.00803012
0.00669152
0.00572499
0.00512703
0.0041755
0.00417706
0.00251096
1.82105e-14
3.06786e-37
4.22041e-49
5.88025e-60
8.29934e-71
1.41265e-81
2.6644e-92
4.94614e-103
8.46966e-114
1.49963e-124
2.80765e-135
5.17875e-146
9.54163e-157
1.67607e-167
2.84607e-178
4.91788e-189
8.53388e-200
1.53412e-210
2.77294e-221
4.89341e-232
8.13813e-243
1.30912e-253
2.12088e-264
3.45326e-275
5.60544e-286
9.02878e-297
1.50205e-307
2.55163e-318
0
0
0
0
0
0
0
0
0
0
0
0
)
;

boundaryField
{
    inlet
    {
        type            cyclic;
    }
    outlet
    {
        type            cyclic;
    }
    top
    {
        type            slip;
    }
    bottom
    {
        type            zeroGradient;
    }
    frontAndBackPlanes
    {
        type            empty;
    }
}


// ************************************************************************* //
