/*--------------------------------*- C++ -*----------------------------------*\
| =========                 |                                                 |
| \\      /  F ield         | OpenFOAM: The Open Source CFD Toolbox           |
|  \\    /   O peration     | Version:  2206                                  |
|   \\  /    A nd           | Website:  www.openfoam.com                      |
|    \\/     M anipulation  |                                                 |
\*---------------------------------------------------------------------------*/
FoamFile
{
    version     2.0;
    format      ascii;
    arch        "LSB;label=32;scalar=64";
    class       surfaceScalarField;
    location    "16";
    object      phi.a;
}
// * * * * * * * * * * * * * * * * * * * * * * * * * * * * * * * * * * * * * //

dimensions      [0 3 -1 0 0 0 0];

oriented        oriented;

internalField   nonuniform List<scalar> 
119
(
4.37016e-15
1.29306e-14
1.68551e-14
2.52127e-14
3.06573e-14
3.87845e-14
4.60195e-14
5.42565e-14
6.28749e-14
7.21474e-14
8.21228e-14
9.29312e-14
1.04717e-13
1.17662e-13
1.31998e-13
1.48058e-13
1.66321e-13
1.87444e-13
2.12285e-13
2.41862e-13
2.77205e-13
3.19201e-13
3.69307e-13
4.31846e-13
5.15486e-13
6.37917e-13
8.36895e-13
1.14306e-12
1.2439e-12
1.39922e-12
1.59812e-12
1.91321e-12
2.39205e-12
3.11675e-12
4.37652e-12
6.68027e-12
1.05974e-11
1.65589e-11
2.47784e-11
3.5615e-11
4.92567e-11
6.57527e-11
8.48047e-11
1.05778e-10
1.2778e-10
1.4974e-10
1.70547e-10
1.89217e-10
2.05025e-10
2.17572e-10
2.26768e-10
2.32771e-10
2.35892e-10
2.36525e-10
2.35078e-10
2.31955e-10
2.27594e-10
2.22611e-10
2.18147e-10
2.16388e-10
2.21163e-10
2.38622e-10
2.77788e-10
3.50437e-10
4.70267e-10
6.49106e-10
8.88949e-10
1.16852e-09
1.4257e-09
1.54456e-09
1.36134e-09
7.06226e-10
-5.3864e-10
-2.41902e-09
-4.84062e-09
-8.02331e-09
-1.00541e-08
-2.31863e-08
-7.57889e-09
-3.8708e-07
-1.37517e-06
-1.77415e-06
-1.77554e-06
-1.7774e-06
-1.7789e-06
-1.78053e-06
-1.78182e-06
-1.78324e-06
-1.78435e-06
-1.78559e-06
-1.78654e-06
-1.78761e-06
-1.78843e-06
-1.78936e-06
-1.79005e-06
-1.79084e-06
-1.79144e-06
-1.79211e-06
-1.79261e-06
-1.79318e-06
-1.79359e-06
-1.79407e-06
-1.7944e-06
-1.7948e-06
-1.79507e-06
-1.79539e-06
-1.7956e-06
-1.79586e-06
-1.79602e-06
-1.79622e-06
-1.79633e-06
-1.79649e-06
-1.79654e-06
-1.79667e-06
-1.79667e-06
-1.79677e-06
-1.79676e-06
-1.79682e-06
-1.7968e-06
)
;

boundaryField
{
    inlet
    {
        type            cyclic;
        value           nonuniform List<scalar> 
120
(
-1.04255e-12
-3.10333e-12
-5.13968e-12
-7.1516e-12
-9.1391e-12
-1.11022e-11
-1.30408e-11
-1.49551e-11
-1.68449e-11
-1.87103e-11
-2.05513e-11
-2.23679e-11
-2.41601e-11
-2.59279e-11
-2.76713e-11
-2.93903e-11
-3.1085e-11
-3.27552e-11
-3.4401e-11
-3.60225e-11
-3.76196e-11
-3.91923e-11
-4.07406e-11
-4.22646e-11
-4.37642e-11
-4.52395e-11
-4.69856e-11
-5.03468e-11
-6.36475e-11
-1.6788e-10
-1.03409e-09
-4.79258e-09
-1.31239e-08
-2.56024e-08
-4.14737e-08
-6.07779e-08
-8.41503e-08
-1.12745e-07
-1.4857e-07
-1.94402e-07
-2.53583e-07
-3.30145e-07
-4.28652e-07
-5.53469e-07
-7.07415e-07
-8.90392e-07
-1.0989e-06
-1.32678e-06
-1.56669e-06
-1.8115e-06
-2.05512e-06
-2.29286e-06
-2.52136e-06
-2.73836e-06
-2.94251e-06
-3.13308e-06
-3.30986e-06
-3.47314e-06
-3.62366e-06
-3.76269e-06
-3.89188e-06
-4.01299e-06
-4.12764e-06
-4.23706e-06
-4.3421e-06
-4.44331e-06
-4.54098e-06
-4.63526e-06
-4.72622e-06
-4.81391e-06
-4.89834e-06
-4.97966e-06
-5.05838e-06
-5.13588e-06
-5.21481e-06
-5.29948e-06
-5.39403e-06
-5.51027e-06
-5.64562e-06
-5.83955e-06
-6.34068e-06
-6.65189e-06
-6.6735e-06
-6.68339e-06
-6.69941e-06
-6.7083e-06
-6.7227e-06
-6.73068e-06
-6.74359e-06
-6.75074e-06
-6.76227e-06
-6.76865e-06
-6.77891e-06
-6.78457e-06
-6.79364e-06
-6.79864e-06
-6.8066e-06
-6.81098e-06
-6.81791e-06
-6.82172e-06
-6.82766e-06
-6.83096e-06
-6.83598e-06
-6.83879e-06
-6.84295e-06
-6.84531e-06
-6.84868e-06
-6.85061e-06
-6.85325e-06
-6.8548e-06
-6.85675e-06
-6.85796e-06
-6.85929e-06
-6.86017e-06
-6.86098e-06
-6.86154e-06
-6.86198e-06
-6.86224e-06
-6.86238e-06
-6.86243e-06
)
;
    }
    outlet
    {
        type            cyclic;
        value           nonuniform List<scalar> 
120
(
1.04255e-12
3.10333e-12
5.13968e-12
7.1516e-12
9.1391e-12
1.11022e-11
1.30408e-11
1.49551e-11
1.68449e-11
1.87103e-11
2.05513e-11
2.23679e-11
2.41601e-11
2.59279e-11
2.76713e-11
2.93903e-11
3.1085e-11
3.27552e-11
3.4401e-11
3.60225e-11
3.76196e-11
3.91923e-11
4.07406e-11
4.22646e-11
4.37642e-11
4.52395e-11
4.69856e-11
5.03468e-11
6.36475e-11
1.6788e-10
1.03409e-09
4.79258e-09
1.31239e-08
2.56024e-08
4.14737e-08
6.07779e-08
8.41503e-08
1.12745e-07
1.4857e-07
1.94402e-07
2.53583e-07
3.30145e-07
4.28652e-07
5.53469e-07
7.07415e-07
8.90392e-07
1.0989e-06
1.32678e-06
1.56669e-06
1.8115e-06
2.05512e-06
2.29286e-06
2.52136e-06
2.73836e-06
2.94251e-06
3.13308e-06
3.30986e-06
3.47314e-06
3.62366e-06
3.76269e-06
3.89188e-06
4.01299e-06
4.12764e-06
4.23706e-06
4.3421e-06
4.44331e-06
4.54098e-06
4.63526e-06
4.72622e-06
4.81391e-06
4.89834e-06
4.97966e-06
5.05838e-06
5.13588e-06
5.21481e-06
5.29948e-06
5.39403e-06
5.51027e-06
5.64562e-06
5.83955e-06
6.34068e-06
6.65189e-06
6.6735e-06
6.68339e-06
6.69941e-06
6.7083e-06
6.7227e-06
6.73068e-06
6.74359e-06
6.75074e-06
6.76227e-06
6.76865e-06
6.77891e-06
6.78457e-06
6.79364e-06
6.79864e-06
6.8066e-06
6.81098e-06
6.81791e-06
6.82172e-06
6.82766e-06
6.83096e-06
6.83598e-06
6.83879e-06
6.84295e-06
6.84531e-06
6.84868e-06
6.85061e-06
6.85325e-06
6.8548e-06
6.85675e-06
6.85796e-06
6.85929e-06
6.86017e-06
6.86098e-06
6.86154e-06
6.86198e-06
6.86224e-06
6.86238e-06
6.86243e-06
)
;
    }
    top
    {
        type            calculated;
        value           uniform -1.79681e-06;
    }
    bottom
    {
        type            fixedValue;
        value           uniform 0;
    }
    frontAndBackPlanes
    {
        type            empty;
        value           nonuniform List<scalar> 0();
    }
}


// ************************************************************************* //
