/*--------------------------------*- C++ -*----------------------------------*\
| =========                 |                                                 |
| \\      /  F ield         | OpenFOAM: The Open Source CFD Toolbox           |
|  \\    /   O peration     | Version:  2206                                  |
|   \\  /    A nd           | Website:  www.openfoam.com                      |
|    \\/     M anipulation  |                                                 |
\*---------------------------------------------------------------------------*/
FoamFile
{
    version     2.0;
    format      ascii;
    arch        "LSB;label=32;scalar=64";
    class       surfaceScalarField;
    location    "16";
    object      phi.b;
}
// * * * * * * * * * * * * * * * * * * * * * * * * * * * * * * * * * * * * * //

dimensions      [0 3 -1 0 0 0 0];

oriented        oriented;

internalField   nonuniform List<scalar> 
119
(
-6.87683e-15
-2.03687e-14
-2.65722e-14
-3.98399e-14
-4.85394e-14
-6.14412e-14
-7.29094e-14
-8.5978e-14
-9.96632e-14
-1.14342e-13
-1.30058e-13
-1.47008e-13
-1.65436e-13
-1.8568e-13
-2.08152e-13
-2.33334e-13
-2.61914e-13
-2.94912e-13
-3.33712e-13
-3.7992e-13
-4.35088e-13
-5.00555e-13
-5.7859e-13
-6.7598e-13
-8.06188e-13
-9.96657e-13
-1.30591e-12
-1.78082e-12
-1.93458e-12
-2.17171e-12
-2.47385e-12
-2.9507e-12
-3.66979e-12
-4.7437e-12
-6.57255e-12
-9.80212e-12
-1.49758e-11
-2.21499e-11
-3.0811e-11
-4.04341e-11
-5.02049e-11
-5.93487e-11
-6.71842e-11
-7.32904e-11
-7.75387e-11
-8.00064e-11
-8.08801e-11
-8.03792e-11
-7.87057e-11
-7.60186e-11
-7.24284e-11
-6.80053e-11
-6.27952e-11
-5.68464e-11
-5.02414e-11
-4.31384e-11
-3.58075e-11
-2.86424e-11
-2.2112e-11
-1.66386e-11
-1.24572e-11
-9.55673e-12
-7.72526e-12
-6.64634e-12
-6.00078e-12
-5.51496e-12
-4.98551e-12
-4.29188e-12
-3.40198e-12
-2.37315e-12
-1.33336e-12
-4.36068e-13
2.06358e-13
5.71494e-13
6.97642e-13
7.09161e-13
5.35565e-13
7.81255e-13
1.58869e-13
2.54382e-12
-2.76804e-16
-2.7803e-16
-2.33486e-16
-2.1263e-16
-2.45007e-16
-1.94002e-16
-1.86367e-16
-1.20439e-16
-2.4029e-16
-1.09188e-16
-9.29733e-17
-1.57087e-16
-1.09742e-16
-7.12272e-17
-6.29118e-17
-4.82553e-17
-7.38732e-17
-1.09544e-16
-9.66234e-17
-4.23986e-17
-9.68224e-18
-1.01265e-17
-2.24411e-17
-2.9558e-17
-3.02308e-17
-1.68551e-17
4.44258e-18
2.03374e-17
2.76253e-17
3.45949e-17
3.9108e-17
2.28897e-17
-5.75516e-18
-1.37104e-17
-3.73311e-19
6.72063e-18
9.75198e-18
1.62524e-17
1.41296e-17
)
;

boundaryField
{
    inlet
    {
        type            cyclic;
        value           nonuniform List<scalar> 
120
(
-3.77799e-08
-3.83841e-08
-3.84044e-08
-3.84337e-08
-3.84565e-08
-3.84832e-08
-3.85092e-08
-3.85363e-08
-3.85639e-08
-3.85922e-08
-3.86213e-08
-3.86512e-08
-3.86819e-08
-3.87136e-08
-3.87463e-08
-3.87801e-08
-3.88151e-08
-3.88514e-08
-3.88892e-08
-3.89287e-08
-3.89703e-08
-3.90143e-08
-3.90613e-08
-3.91117e-08
-3.91654e-08
-3.92234e-08
-3.92926e-08
-3.93903e-08
-3.95262e-08
-3.97623e-08
-4.08041e-08
-4.47858e-08
-5.34213e-08
-6.63418e-08
-8.29297e-08
-1.03523e-07
-1.29189e-07
-1.61558e-07
-2.03106e-07
-2.57375e-07
-3.30166e-07
-4.33652e-07
-5.87201e-07
-8.01609e-07
-1.06925e-06
-1.37173e-06
-1.68972e-06
-2.00823e-06
-2.31758e-06
-2.61242e-06
-2.89025e-06
-3.15023e-06
-3.39242e-06
-3.61731e-06
-3.82553e-06
-4.01777e-06
-4.19473e-06
-4.35717e-06
-4.50595e-06
-4.64207e-06
-4.76667e-06
-4.88094e-06
-4.98607e-06
-5.08315e-06
-5.17313e-06
-5.25686e-06
-5.33502e-06
-5.40823e-06
-5.47698e-06
-5.54172e-06
-5.60282e-06
-5.66059e-06
-5.71532e-06
-5.76725e-06
-5.81659e-06
-5.86355e-06
-5.90829e-06
-5.95095e-06
-5.99168e-06
-6.0306e-06
-6.06782e-06
-6.10343e-06
-6.13753e-06
-6.17019e-06
-6.20151e-06
-6.23153e-06
-6.26034e-06
-6.28797e-06
-6.3145e-06
-6.33995e-06
-6.36439e-06
-6.38786e-06
-6.41038e-06
-6.432e-06
-6.45275e-06
-6.47265e-06
-6.49175e-06
-6.51005e-06
-6.52759e-06
-6.54439e-06
-6.56046e-06
-6.57583e-06
-6.59051e-06
-6.60451e-06
-6.61786e-06
-6.63054e-06
-6.64259e-06
-6.654e-06
-6.66478e-06
-6.67493e-06
-6.68445e-06
-6.69333e-06
-6.70158e-06
-6.70918e-06
-6.71611e-06
-6.72234e-06
-6.72784e-06
-6.73254e-06
-6.7363e-06
-6.7392e-06
)
;
    }
    outlet
    {
        type            cyclic;
        value           nonuniform List<scalar> 
120
(
3.77799e-08
3.83841e-08
3.84044e-08
3.84337e-08
3.84565e-08
3.84832e-08
3.85092e-08
3.85363e-08
3.85639e-08
3.85922e-08
3.86213e-08
3.86512e-08
3.86819e-08
3.87136e-08
3.87463e-08
3.87801e-08
3.88151e-08
3.88514e-08
3.88892e-08
3.89287e-08
3.89703e-08
3.90143e-08
3.90613e-08
3.91117e-08
3.91654e-08
3.92234e-08
3.92926e-08
3.93903e-08
3.95262e-08
3.97623e-08
4.08041e-08
4.47858e-08
5.34213e-08
6.63418e-08
8.29297e-08
1.03523e-07
1.29189e-07
1.61558e-07
2.03106e-07
2.57375e-07
3.30166e-07
4.33652e-07
5.87201e-07
8.01609e-07
1.06925e-06
1.37173e-06
1.68972e-06
2.00823e-06
2.31758e-06
2.61242e-06
2.89025e-06
3.15023e-06
3.39242e-06
3.61731e-06
3.82553e-06
4.01777e-06
4.19473e-06
4.35717e-06
4.50595e-06
4.64207e-06
4.76667e-06
4.88094e-06
4.98607e-06
5.08315e-06
5.17313e-06
5.25686e-06
5.33502e-06
5.40823e-06
5.47698e-06
5.54172e-06
5.60282e-06
5.66059e-06
5.71532e-06
5.76725e-06
5.81659e-06
5.86355e-06
5.90829e-06
5.95095e-06
5.99168e-06
6.0306e-06
6.06782e-06
6.10343e-06
6.13753e-06
6.17019e-06
6.20151e-06
6.23153e-06
6.26034e-06
6.28797e-06
6.3145e-06
6.33995e-06
6.36439e-06
6.38786e-06
6.41038e-06
6.432e-06
6.45275e-06
6.47265e-06
6.49175e-06
6.51005e-06
6.52759e-06
6.54439e-06
6.56046e-06
6.57583e-06
6.59051e-06
6.60451e-06
6.61786e-06
6.63054e-06
6.64259e-06
6.654e-06
6.66478e-06
6.67493e-06
6.68445e-06
6.69333e-06
6.70158e-06
6.70918e-06
6.71611e-06
6.72234e-06
6.72784e-06
6.73254e-06
6.7363e-06
6.7392e-06
)
;
    }
    top
    {
        type            calculated;
        value           uniform 7.65767e-18;
    }
    bottom
    {
        type            fixedValue;
        value           uniform 0;
    }
    frontAndBackPlanes
    {
        type            empty;
        value           nonuniform List<scalar> 0();
    }
}


// ************************************************************************* //
