/*--------------------------------*- C++ -*----------------------------------*\
| =========                 |                                                 |
| \\      /  F ield         | OpenFOAM: The Open Source CFD Toolbox           |
|  \\    /   O peration     | Version:  2206                                  |
|   \\  /    A nd           | Website:  www.openfoam.com                      |
|    \\/     M anipulation  |                                                 |
\*---------------------------------------------------------------------------*/
FoamFile
{
    version     2.0;
    format      ascii;
    arch        "LSB;label=32;scalar=64";
    class       volTensorField;
    location    "16";
    object      Taua;
}
// * * * * * * * * * * * * * * * * * * * * * * * * * * * * * * * * * * * * * //

dimensions      [1 -1 -2 0 0 0 0];

internalField   nonuniform List<tensor> 
120
(
(-0.332255 0 0 121.769 0.664509 0 0 0 -0.332255)
(0.121272 0 0 120.337 -0.242543 0 0 0 0.121272)
(-0.0640338 0 0 118.902 0.128068 0 0 0 -0.0640338)
(-0.136368 0 0 117.467 0.272735 0 0 0 -0.136368)
(-0.0888336 0 0 116.033 0.177667 0 0 0 -0.0888336)
(-0.132605 0 0 114.598 0.265211 0 0 0 -0.132605)
(-0.118043 -3.08929e-16 0 113.164 0.236086 0 0 0 -0.118043)
(-0.13439 0 0 111.73 0.26878 0 0 0 -0.13439)
(-0.140607 0 0 110.296 0.281215 0 0 0 -0.140607)
(-0.151275 -3.08929e-16 0 108.862 0.302549 0 0 0 -0.151275)
(-0.162734 0 0 107.428 0.325468 0 0 0 -0.162734)
(-0.176315 0 0 105.995 0.35263 0 0 0 -0.176315)
(-0.192253 0 0 104.561 0.384506 0 0 0 -0.192253)
(-0.211128 0 0 103.128 0.422255 0 0 0 -0.211128)
(-0.233815 0 0 101.695 0.46763 0 0 0 -0.233815)
(-0.261912 0 0 100.262 0.523825 0 0 0 -0.261912)
(-0.297788 0 0 98.8297 0.595576 0 0 0 -0.297788)
(-0.344409 0 0 97.3973 0.688819 0 0 0 -0.344409)
(-0.40499 0 0 95.9651 0.809981 0 0 0 -0.40499)
(-0.482171 0 0 94.5331 0.964343 0 0 0 -0.482171)
(-0.576102 0 0 93.1013 1.1522 0 0 0 -0.576102)
(-0.68448 0 0 91.6697 1.36896 0 0 0 -0.68448)
(-0.816545 0 0 90.2384 1.63309 0 0 0 -0.816545)
(-1.01917 0 0 88.8073 2.03833 0 0 0 -1.01917)
(-1.362 0 0 87.3764 2.724 0 0 0 -1.362)
(-1.97932 0 0 94.6178 3.95863 0 0 0 -1.97932)
(-2.06795 0 0 99.2812 4.13591 0 0 0 -2.06795)
(-0.72251 0 0 91.528 1.44502 0 0 0 -0.72251)
(0.237275 0 0 82.2491 -0.474549 0 0 0 0.237275)
(0.203875 0 0 74.502 -0.407751 0 0 0 0.203875)
(0.0345252 0 0 69.4795 -0.0690504 0 0 0 0.0345252)
(-0.0415809 0 0 69.5255 0.0831619 0 0 0 -0.0415809)
(-0.0495661 0 0 71.7647 0.0991322 0 0 0 -0.0495661)
(-0.0685347 0 0 73.1058 0.137069 0 0 0 -0.0685347)
(-0.015367 0 0 72.8481 0.0307339 0 0 0 -0.015367)
(0.0948216 0 0 71.6541 -0.189643 0 0 0 0.0948216)
(0.0606218 0 0 70.6039 -0.121244 0 0 0 0.0606218)
(-0.0288402 0 0 69.345 0.0576804 0 0 0 -0.0288402)
(-0.0290987 0 0 67.7424 0.0581973 0 0 0 -0.0290987)
(-0.00653299 0 0 66.2777 0.013066 0 0 0 -0.00653299)
(-0.00278416 0 0 64.8653 0.00556832 0 0 0 -0.00278416)
(-0.00308824 0 0 63.3988 0.00617647 0 0 0 -0.00308824)
(-0.00294514 0 0 61.723 0.00589029 0 0 0 -0.00294514)
(-0.00250562 0 0 59.561 0.00501124 0 0 0 -0.00250562)
(-0.00205456 0 0 56.6345 0.00410913 0 0 0 -0.00205456)
(-0.00164514 0 0 52.8449 0.00329029 0 0 0 -0.00164514)
(-0.00127966 0 0 48.3256 0.00255931 0 0 0 -0.00127966)
(-0.000961238 0 0 43.3478 0.00192248 0 0 0 -0.000961238)
(-0.000692384 0 0 38.1976 0.00138477 0 0 0 -0.000692384)
(-0.000472829 0 0 33.1059 0.000945659 0 0 0 -0.000472829)
(-0.000300013 0 0 28.2325 0.000600025 0 0 0 -0.000300013)
(-0.000169627 0 0 23.6775 0.000339254 0 0 0 -0.000169627)
(-7.61236e-05 0 0 19.502 0.000152247 0 0 0 -7.61236e-05)
(-1.32814e-05 0 0 15.7436 2.65628e-05 0 0 0 -1.32814e-05)
(2.52157e-05 0 0 12.4272 -5.04313e-05 0 0 0 2.52157e-05)
(4.5147e-05 0 0 9.56888 -9.02939e-05 0 0 0 4.5147e-05)
(5.11152e-05 0 0 7.17386 -0.00010223 0 0 0 5.11152e-05)
(4.60604e-05 0 0 5.23186 -9.21209e-05 0 0 0 4.60604e-05)
(3.15196e-05 0 0 3.71289 -6.30392e-05 0 0 0 3.15196e-05)
(8.97e-06 0 0 2.56799 -1.794e-05 0 0 0 8.97e-06)
(-1.88284e-05 0 0 1.7355 3.76568e-05 0 0 0 -1.88284e-05)
(-4.77088e-05 0 0 1.14986 9.54177e-05 0 0 0 -4.77088e-05)
(-7.29932e-05 0 0 0.749486 0.000145986 0 0 0 -7.29932e-05)
(-9.0847e-05 0 0 0.482097 0.000181694 0 0 0 -9.0847e-05)
(-9.89487e-05 0 0 0.306779 0.000197897 0 0 0 -9.89487e-05)
(-9.638e-05 0 0 0.19349 0.00019276 0 0 0 -9.638e-05)
(-8.36403e-05 0 0 0.121153 0.000167281 0 0 0 -8.36403e-05)
(-6.27168e-05 0 0 0.075444 0.000125434 0 0 0 -6.27168e-05)
(-3.70211e-05 0 0 0.0468443 7.40422e-05 0 0 0 -3.70211e-05)
(-1.09353e-05 0 0 0.0291271 2.18706e-05 0 0 0 -1.09353e-05)
(1.12087e-05 0 0 0.0182658 -2.24173e-05 0 0 0 1.12087e-05)
(2.63633e-05 0 0 0.0116786 -5.27265e-05 0 0 0 2.63633e-05)
(3.42766e-05 0 0 0.00771813 -6.85533e-05 0 0 0 3.42766e-05)
(3.38634e-05 0 0 0.00534111 -6.77267e-05 0 0 0 3.38634e-05)
(3.831e-05 0 0 0.00390977 -7.662e-05 0 0 0 3.831e-05)
(1.5992e-05 0 0 0.00298175 -3.1984e-05 0 0 0 1.5992e-05)
(3.41126e-05 0 0 0.00249841 -6.82252e-05 0 0 0 3.41126e-05)
(2.48539e-05 0 0 0.00184529 -4.97078e-05 0 0 0 2.48539e-05)
(-4.52682e-05 0 0 0.00195421 9.05364e-05 0 0 0 -4.52682e-05)
(0.0005576 0 0 0.00165091 -0.0011152 0 0 0 0.0005576)
(3.40781e-24 0 0 5.57966e-24 -6.81561e-24 0 0 0 3.40781e-24)
(4.40757e-52 0 0 5.81563e-52 -8.81514e-52 0 0 0 4.40757e-52)
(7.23304e-77 0 0 2.98405e-75 -1.44661e-76 0 0 0 7.23304e-77)
(1.91719e-98 0 0 4.76708e-97 -3.83438e-98 0 0 0 1.91719e-98)
(3.04158e-120 0 0 9.15061e-119 -6.08316e-120 0 0 0 3.04158e-120)
(9.66406e-142 0 0 2.48078e-140 -1.93281e-141 0 0 0 9.66406e-142)
(2.71687e-163 0 0 8.4946e-162 -5.43374e-163 0 0 0 2.71687e-163)
(1.03341e-184 0 0 2.7346e-183 -2.06683e-184 0 0 0 1.03341e-184)
(2.37655e-206 0 0 7.70896e-205 -4.7531e-206 0 0 0 2.37655e-206)
(8.25876e-228 0 0 2.2522e-226 -1.65175e-227 0 0 0 8.25876e-228)
(2.24935e-249 0 0 7.57892e-248 -4.4987e-249 0 0 0 2.24935e-249)
(8.57275e-271 0 0 2.39594e-269 -1.71455e-270 0 0 0 8.57275e-271)
(2.21568e-292 0 0 7.79165e-291 -4.43137e-292 0 0 0 2.21568e-292)
(7.78816e-314 0 0 2.22645e-312 -1.55763e-313 0 0 0 7.78816e-314)
(0 0 0 0 -0 0 0 0 0)
(0 0 0 0 -0 0 0 0 0)
(0 0 0 0 -0 0 0 0 0)
(0 0 0 0 -0 0 0 0 0)
(0 0 0 0 -0 0 0 0 0)
(0 0 0 0 -0 0 0 0 0)
(0 0 0 0 -0 0 0 0 0)
(0 0 0 0 -0 0 0 0 0)
(0 0 0 0 -0 0 0 0 0)
(0 0 0 0 -0 0 0 0 0)
(0 0 0 0 -0 0 0 0 0)
(0 0 0 0 -0 0 0 0 0)
(0 0 0 0 -0 0 0 0 0)
(0 0 0 0 -0 0 0 0 0)
(0 0 0 0 -0 0 0 0 0)
(0 0 0 0 -0 0 0 0 0)
(0 0 0 0 -0 0 0 0 0)
(0 0 0 0 -0 0 0 0 0)
(0 0 0 0 -0 0 0 0 0)
(0 0 0 0 -0 0 0 0 0)
(0 0 0 0 -0 0 0 0 0)
(0 0 0 0 -0 0 0 0 0)
(-0 0 0 0 0 0 0 0 -0)
(0 0 0 0 -0 0 0 0 0)
(-0 0 0 0 0 0 0 0 -0)
(0 0 0 0 -0 0 0 0 0)
)
;

boundaryField
{
    inlet
    {
        type            cyclic;
    }
    outlet
    {
        type            cyclic;
    }
    top
    {
        type            extrapolatedCalculated;
        value           uniform (0 0 0 0 0 0 0 0 0);
    }
    bottom
    {
        type            extrapolatedCalculated;
        value           uniform (-0.777274 0 0 122.483 1.55455 0 0 0 -0.777274);
    }
    frontAndBackPlanes
    {
        type            empty;
    }
}


// ************************************************************************* //
