/*--------------------------------*- C++ -*----------------------------------*\
| =========                 |                                                 |
| \\      /  F ield         | OpenFOAM: The Open Source CFD Toolbox           |
|  \\    /   O peration     | Version:  2206                                  |
|   \\  /    A nd           | Website:  www.openfoam.com                      |
|    \\/     M anipulation  |                                                 |
\*---------------------------------------------------------------------------*/
FoamFile
{
    version     2.0;
    format      ascii;
    arch        "LSB;label=32;scalar=64";
    class       volTensorField;
    location    "16";
    object      Taub;
}
// * * * * * * * * * * * * * * * * * * * * * * * * * * * * * * * * * * * * * //

dimensions      [1 -1 -2 0 0 0 0];

internalField   nonuniform List<tensor> 
120
(
(1.55316e-10 0 0 0.00346774 -3.10632e-10 0 0 0 1.55316e-10)
(3.68172e-10 0 0 2.84399e-05 -7.36344e-10 0 0 0 3.68172e-10)
(1.69409e-10 0 0 2.25759e-06 -3.38819e-10 0 0 0 1.69409e-10)
(2.88288e-10 0 0 2.37475e-06 -5.76577e-10 0 0 0 2.88288e-10)
(2.74765e-10 0 0 2.2568e-06 -5.4953e-10 0 0 0 2.74765e-10)
(2.75697e-10 0 0 2.40262e-06 -5.51394e-10 0 0 0 2.75697e-10)
(3.31804e-10 9.58948e-25 0 2.41816e-06 -6.63608e-10 0 0 0 3.31804e-10)
(3.05969e-10 0 0 2.49206e-06 -6.11937e-10 0 0 0 3.05969e-10)
(3.60986e-10 0 0 2.55143e-06 -7.21973e-10 0 0 0 3.60986e-10)
(3.70012e-10 9.59589e-25 0 2.61961e-06 -7.40023e-10 0 0 0 3.70012e-10)
(4.00094e-10 0 0 2.69103e-06 -8.00187e-10 0 0 0 4.00094e-10)
(4.30886e-10 0 0 2.76772e-06 -8.61771e-10 0 0 0 4.30886e-10)
(4.69139e-10 0 0 2.85016e-06 -9.38278e-10 0 0 0 4.69139e-10)
(5.15505e-10 0 0 2.93936e-06 -1.03101e-09 0 0 0 5.15505e-10)
(5.72384e-10 0 0 3.03631e-06 -1.14477e-09 0 0 0 5.72384e-10)
(6.4152e-10 0 0 3.14218e-06 -1.28304e-09 0 0 0 6.4152e-10)
(7.30794e-10 0 0 3.25875e-06 -1.46159e-09 0 0 0 7.30794e-10)
(8.39088e-10 0 0 3.38862e-06 -1.67818e-09 0 0 0 8.39088e-10)
(1.00379e-09 0 0 3.53586e-06 -2.00759e-09 0 0 0 1.00379e-09)
(1.10556e-09 0 0 3.70692e-06 -2.21112e-09 0 0 0 1.10556e-09)
(1.54981e-09 0 0 3.91283e-06 -3.09963e-09 0 0 0 1.54981e-09)
(1.36026e-09 0 0 4.16587e-06 -2.72052e-09 0 0 0 1.36026e-09)
(2.5037e-09 0 0 4.46092e-06 -5.00739e-09 0 0 0 2.5037e-09)
(1.65546e-09 0 0 4.77039e-06 -3.31093e-09 0 0 0 1.65546e-09)
(4.58205e-09 0 0 5.12031e-06 -9.1641e-09 0 0 0 4.58205e-09)
(2.98466e-09 0 0 5.83374e-06 -5.96932e-09 0 0 0 2.98466e-09)
(1.07012e-08 0 0 7.65903e-06 -2.14023e-08 0 0 0 1.07012e-08)
(7.94806e-09 0 0 1.07222e-05 -1.58961e-08 0 0 0 7.94806e-09)
(9.3765e-09 0 0 1.70973e-05 -1.8753e-08 0 0 0 9.3765e-09)
(1.41658e-09 0 0 5.8801e-05 -2.83317e-09 0 0 0 1.41658e-09)
(1.90074e-08 0 0 0.000231463 -3.80148e-08 0 0 0 1.90074e-08)
(-2.10855e-09 0 0 0.000582471 4.2171e-09 0 0 0 -2.10855e-09)
(1.1253e-08 0 0 0.000998075 -2.2506e-08 0 0 0 1.1253e-08)
(1.78316e-08 0 0 0.00137251 -3.56633e-08 0 0 0 1.78316e-08)
(2.83895e-08 0 0 0.00174289 -5.6779e-08 0 0 0 2.83895e-08)
(1.4989e-07 0 0 0.002202 -2.99779e-07 0 0 0 1.4989e-07)
(1.82419e-07 0 0 0.00285324 -3.64839e-07 0 0 0 1.82419e-07)
(1.75814e-07 0 0 0.00390043 -3.51627e-07 0 0 0 1.75814e-07)
(2.37883e-07 0 0 0.00592775 -4.75767e-07 0 0 0 2.37883e-07)
(4.67051e-07 0 0 0.0110215 -9.34103e-07 0 0 0 4.67051e-07)
(9.43304e-07 0 0 0.0281156 -1.88661e-06 0 0 0 9.43304e-07)
(1.95001e-06 0 0 0.0971734 -3.90001e-06 0 0 0 1.95001e-06)
(4.03329e-06 0 0 0.357658 -8.06657e-06 0 0 0 4.03329e-06)
(7.29278e-06 0 0 1.10737 -1.45856e-05 0 0 0 7.29278e-06)
(1.09427e-05 0 0 2.68914 -2.18854e-05 0 0 0 1.09427e-05)
(1.2067e-05 0 0 5.25806 -2.41341e-05 0 0 0 1.2067e-05)
(7.36023e-06 0 0 8.68337 -1.47205e-05 0 0 0 7.36023e-06)
(-4.89019e-06 0 0 12.655 9.78039e-06 0 0 0 -4.89019e-06)
(-2.54105e-05 0 0 16.842 5.0821e-05 0 0 0 -2.54105e-05)
(-5.44231e-05 0 0 20.9836 0.000108846 0 0 0 -5.44231e-05)
(-9.2264e-05 0 0 24.9065 0.000184528 0 0 0 -9.2264e-05)
(-0.000139522 0 0 28.5079 0.000279043 0 0 0 -0.000139522)
(-0.000196753 0 0 31.7295 0.000393506 0 0 0 -0.000196753)
(-0.000263789 0 0 34.5387 0.000527578 0 0 0 -0.000263789)
(-0.000338561 0 0 36.9161 0.000677122 0 0 0 -0.000338561)
(-0.000415462 0 0 38.8517 0.000830924 0 0 0 -0.000415462)
(-0.00048389 0 0 40.3454 0.000967779 0 0 0 -0.00048389)
(-0.000528646 0 0 41.4105 0.00105729 0 0 0 -0.000528646)
(-0.000534336 0 0 42.0761 0.00106867 0 0 0 -0.000534336)
(-0.000493414 0 0 42.3872 0.000986828 0 0 0 -0.000493414)
(-0.000412484 0 0 42.4012 0.000824968 0 0 0 -0.000412484)
(-0.00031076 0 0 42.1817 0.000621519 0 0 0 -0.00031076)
(-0.00021153 0 0 41.7893 0.00042306 0 0 0 -0.00021153)
(-0.00013306 0 0 41.2757 0.00026612 0 0 0 -0.00013306)
(-8.44774e-05 0 0 40.6802 0.000168955 0 0 0 -8.44774e-05)
(-6.706e-05 0 0 40.031 0.00013412 0 0 0 -6.706e-05)
(-7.66775e-05 0 0 39.3473 0.000153355 0 0 0 -7.66775e-05)
(-0.000105021 0 0 38.6418 0.000210042 0 0 0 -0.000105021)
(-0.000140244 0 0 37.9227 0.000280487 0 0 0 -0.000140244)
(-0.000168225 0 0 37.1952 0.000336451 0 0 0 -0.000168225)
(-0.000176043 0 0 36.4628 0.000352085 0 0 0 -0.000176043)
(-0.000157528 0 0 35.7273 0.000315055 0 0 0 -0.000157528)
(-0.000117504 0 0 34.9903 0.000235008 0 0 0 -0.000117504)
(-6.90465e-05 0 0 34.2524 0.000138093 0 0 0 -6.90465e-05)
(-2.60981e-05 0 0 33.5141 5.21962e-05 0 0 0 -2.60981e-05)
(7.95936e-06 0 0 32.7757 -1.59187e-05 0 0 0 7.95936e-06)
(-6.76216e-06 0 0 32.0372 1.35243e-05 0 0 0 -6.76216e-06)
(6.47263e-05 0 0 31.2991 -0.000129453 0 0 0 6.47263e-05)
(-6.71903e-05 0 0 30.5609 0.000134381 0 0 0 -6.71903e-05)
(-0.0001529 0 0 29.8231 0.0003058 0 0 0 -0.0001529)
(0.000204492 0 0 29.0855 -0.000408985 0 0 0 0.000204492)
(0.000148353 0 0 28.3479 -0.000296706 0 0 0 0.000148353)
(-4.74246e-05 0 0 27.6106 9.48491e-05 0 0 0 -4.74246e-05)
(8.38164e-06 0 0 26.8735 -1.67633e-05 0 0 0 8.38164e-06)
(-1.39519e-06 0 0 26.1365 2.79037e-06 0 0 0 -1.39519e-06)
(3.01114e-07 0 0 25.3997 -6.02228e-07 0 0 0 3.01114e-07)
(-7.67949e-08 0 0 24.663 1.5359e-07 0 0 0 -7.67949e-08)
(-4.33374e-09 0 0 23.9265 8.66748e-09 0 0 0 -4.33374e-09)
(4.78461e-09 0 0 23.1901 -9.56922e-09 0 0 0 4.78461e-09)
(-9.52546e-09 0 0 22.4537 1.90509e-08 0 0 0 -9.52546e-09)
(-6.52621e-09 0 0 21.7175 1.30524e-08 0 0 0 -6.52621e-09)
(4.11522e-09 0 0 20.9814 -8.23043e-09 0 0 0 4.11522e-09)
(-4.15984e-09 0 0 20.2454 8.31969e-09 0 0 0 -4.15984e-09)
(-8.2294e-09 0 0 19.5094 1.64588e-08 0 0 0 -8.2294e-09)
(-4.49656e-09 0 0 18.7736 8.99311e-09 0 0 0 -4.49656e-09)
(-1.13963e-09 0 0 18.0377 2.27925e-09 0 0 0 -1.13963e-09)
(4.27323e-09 0 0 17.302 -8.54646e-09 0 0 0 4.27323e-09)
(5.37392e-09 0 0 16.5663 -1.07478e-08 0 0 0 5.37392e-09)
(-2.55341e-09 0 0 15.8306 5.10682e-09 0 0 0 -2.55341e-09)
(-9.58198e-09 0 0 15.095 1.9164e-08 0 0 0 -9.58198e-09)
(-7.53569e-09 0 0 14.3594 1.50714e-08 0 0 0 -7.53569e-09)
(-1.32709e-09 0 0 13.6238 2.65418e-09 0 0 0 -1.32709e-09)
(1.93465e-09 0 0 12.8882 -3.8693e-09 0 0 0 1.93465e-09)
(1.72609e-09 0 0 12.1526 -3.45218e-09 0 0 0 1.72609e-09)
(-1.92172e-10 0 0 11.417 3.84344e-10 0 0 0 -1.92172e-10)
(-2.79646e-09 0 0 10.6814 5.59293e-09 0 0 0 -2.79646e-09)
(-4.26602e-09 0 0 9.94571 8.53205e-09 0 0 0 -4.26602e-09)
(-3.56798e-09 0 0 9.21002 7.13596e-09 0 0 0 -3.56798e-09)
(-2.28062e-09 0 0 8.47427 4.56124e-09 0 0 0 -2.28062e-09)
(-1.55006e-09 0 0 7.73845 3.10011e-09 0 0 0 -1.55006e-09)
(1.34627e-10 0 0 7.00255 -2.69255e-10 0 0 0 1.34627e-10)
(3.18609e-09 0 0 6.26656 -6.37219e-09 0 0 0 3.18609e-09)
(4.0949e-09 0 0 5.53046 -8.1898e-09 0 0 0 4.0949e-09)
(1.26328e-09 0 0 4.79421 -2.52656e-09 0 0 0 1.26328e-09)
(-1.34432e-09 0 0 4.05795 2.68865e-09 0 0 0 -1.34432e-09)
(-1.23249e-09 0 0 3.32081 2.46499e-09 0 0 0 -1.23249e-09)
(-5.44476e-10 0 0 2.58724 1.08895e-09 0 0 0 -5.44476e-10)
(-3.30659e-10 0 0 1.83515 6.61319e-10 0 0 0 -3.30659e-10)
(9.88282e-11 0 0 1.17038 -1.97656e-10 0 0 0 9.88282e-11)
(9.07201e-11 0 0 0.22862 -1.8144e-10 0 0 0 9.07201e-11)
)
;

boundaryField
{
    inlet
    {
        type            cyclic;
    }
    outlet
    {
        type            cyclic;
    }
    top
    {
        type            extrapolatedCalculated;
        value           uniform (0 0 0 0 0 0 0 0 0);
    }
    bottom
    {
        type            extrapolatedCalculated;
        value           uniform (-2.44928e-10 0 0 0.00688046 4.89855e-10 0 0 0 -2.44928e-10);
    }
    frontAndBackPlanes
    {
        type            empty;
    }
}


// ************************************************************************* //
