/*--------------------------------*- C++ -*----------------------------------*\
| =========                 |                                                 |
| \\      /  F ield         | OpenFOAM: The Open Source CFD Toolbox           |
|  \\    /   O peration     | Version:  2206                                  |
|   \\  /    A nd           | Website:  www.openfoam.com                      |
|    \\/     M anipulation  |                                                 |
\*---------------------------------------------------------------------------*/
FoamFile
{
    version     2.0;
    format      ascii;
    arch        "LSB;label=32;scalar=64";
    class       volScalarField;
    location    "16";
    object      Theta;
}
// * * * * * * * * * * * * * * * * * * * * * * * * * * * * * * * * * * * * * //

dimensions      [0 2 -2 0 0 0 0];

internalField   nonuniform List<scalar> 
120
(
1.24631e-10
4.21132e-10
1.18973e-09
2.78747e-09
5.74585e-09
1.08163e-08
1.90457e-08
3.18769e-08
5.12893e-08
7.9984e-08
1.21636e-07
1.81232e-07
2.65521e-07
3.83622e-07
5.47834e-07
7.74727e-07
1.08659e-06
1.5134e-06
2.09541e-06
2.88666e-06
3.95971e-06
5.41192e-06
7.37399e-06
1.00213e-05
1.35891e-05
1.83931e-05
2.48615e-05
3.35872e-05
4.53838e-05
6.1321e-05
8.28741e-05
0.000111962
0.000150464
0.000200156
0.000264342
0.000350108
0.000470853
0.000648959
0.000917368
0.001319
0.00190545
0.0027329
0.00384808
0.00526597
0.00694671
0.0087834
0.010614
0.0122589
0.0135671
0.0144486
0.0148832
0.0149087
0.0145996
0.0140462
0.0133381
0.0125535
0.0117545
0.0109854
0.0102729
0.00962878
0.00905322
0.00853951
0.00807828
0.00766077
0.00728115
0.00693822
0.00663752
0.00639485
0.00624236
0.00623996
0.00649135
0.00716834
0.00853123
0.0109447
0.0148956
0.0210371
0.0301359
0.0433089
0.0578987
0.0764055
0.0092466
9.94622e-15
1.06241e-15
1.06187e-15
1.06045e-15
1.05986e-15
1.05868e-15
1.05818e-15
1.05716e-15
1.05673e-15
1.05585e-15
1.05548e-15
1.05472e-15
1.0544e-15
1.05375e-15
1.05348e-15
1.05293e-15
1.0527e-15
1.05224e-15
1.05205e-15
1.05166e-15
1.0515e-15
1.05118e-15
1.05105e-15
1.05079e-15
1.05069e-15
1.05048e-15
1.0504e-15
1.05024e-15
1.05018e-15
1.05006e-15
1.05002e-15
1.04994e-15
1.04992e-15
1.04986e-15
1.04986e-15
1.04981e-15
1.04983e-15
1.0498e-15
1.04982e-15
)
;

boundaryField
{
    inlet
    {
        type            cyclic;
    }
    outlet
    {
        type            cyclic;
    }
    top
    {
        type            zeroGradient;
    }
    bottom
    {
        type            zeroGradient;
    }
    frontAndBackPlanes
    {
        type            empty;
    }
}


// ************************************************************************* //
