/*--------------------------------*- C++ -*----------------------------------*\
| =========                 |                                                 |
| \\      /  F ield         | OpenFOAM: The Open Source CFD Toolbox           |
|  \\    /   O peration     | Version:  2206                                  |
|   \\  /    A nd           | Website:  www.openfoam.com                      |
|    \\/     M anipulation  |                                                 |
\*---------------------------------------------------------------------------*/
FoamFile
{
    version     2.0;
    format      ascii;
    arch        "LSB;label=32;scalar=64";
    class       volVectorField;
    location    "16";
    object      U.a;
}
// * * * * * * * * * * * * * * * * * * * * * * * * * * * * * * * * * * * * * //

dimensions      [0 1 -1 0 0 0 0];

internalField   nonuniform List<vector> 
120
(
(3.73572e-07 7.11206e-09 0)
(1.112e-06 5.04846e-09 0)
(1.84168e-06 2.67352e-09 0)
(2.56261e-06 7.39209e-09 0)
(3.27478e-06 7.66457e-09 0)
(3.9782e-06 1.06434e-08 0)
(4.67288e-06 1.25179e-08 0)
(5.3588e-06 1.49638e-08 0)
(6.03598e-06 1.74366e-08 0)
(6.70441e-06 2.011e-08 0)
(7.36409e-06 2.29732e-08 0)
(8.01502e-06 2.60661e-08 0)
(8.65722e-06 2.94264e-08 0)
(9.29067e-06 3.31025e-08 0)
(9.91538e-06 3.71536e-08 0)
(1.05313e-05 4.16601e-08 0)
(1.11386e-05 4.67396e-08 0)
(1.17371e-05 5.25591e-08 0)
(1.23268e-05 5.93448e-08 0)
(1.29078e-05 6.73816e-08 0)
(1.34801e-05 7.69922e-08 0)
(1.40436e-05 8.84667e-08 0)
(1.45985e-05 1.02044e-07 0)
(1.51445e-05 1.18352e-07 0)
(1.56819e-05 1.39345e-07 0)
(1.62105e-05 1.682e-07 0)
(1.68362e-05 2.11786e-07 0)
(1.80406e-05 2.82557e-07 0)
(2.28066e-05 3.53174e-07 0)
(6.01557e-05 -8.19281e-08 0)
(0.000370542 -2.50157e-06 0)
(0.00171731 -2.55231e-06 0)
(0.00470263 5.27108e-06 0)
(0.00917403 1.28982e-05 0)
(0.0148611 3.38411e-05 0)
(0.0217783 2.08747e-05 0)
(0.0301533 -2.68683e-05 0)
(0.0403996 -2.70909e-05 0)
(0.0532364 1.93211e-06 0)
(0.0696594 1.06145e-05 0)
(0.0908656 1.30594e-05 0)
(0.1183 1.68778e-05 0)
(0.153598 2.22267e-05 0)
(0.198323 2.83328e-05 0)
(0.253486 3.4833e-05 0)
(0.319051 4.1472e-05 0)
(0.393764 4.79343e-05 0)
(0.47542 5.38939e-05 0)
(0.561388 5.90854e-05 0)
(0.649109 6.33389e-05 0)
(0.736406 6.65844e-05 0)
(0.821594 6.88377e-05 0)
(0.903469 7.0175e-05 0)
(0.981229 7.0707e-05 0)
(1.05438 7.05569e-05 0)
(1.12267 6.98461e-05 0)
(1.18601 6.86937e-05 0)
(1.24452 6.72414e-05 0)
(1.29845 6.5724e-05 0)
(1.34827 6.4599e-05 0)
(1.39456 6.47169e-05 0)
(1.43796 6.75182e-05 0)
(1.47904 7.52323e-05 0)
(1.51825 9.0976e-05 0)
(1.55589 0.000118677 0)
(1.59216 0.00016249 0)
(1.62715 0.000225166 0)
(1.66094 0.000304938 0)
(1.69353 0.000390706 0)
(1.72495 0.000456713 0)
(1.75521 0.00046017 0)
(1.78434 0.000347376 0)
(1.81255 7.18219e-05 0)
(1.84032 -0.000398455 0)
(1.8686 -0.000994348 0)
(1.89895 -0.00212171 0)
(1.93282 -0.00202761 0)
(1.97448 -0.00521556 0)
(2.02298 -0.00567035 0)
(2.09247 0.00298383 0)
(2.27203 -0.258032 0)
(2.38355 -0.530359 0)
(2.39129 -0.529187 0)
(2.39484 -0.531179 0)
(2.40058 -0.530307 0)
(2.40376 -0.532069 0)
(2.40892 -0.531283 0)
(2.41178 -0.532839 0)
(2.41641 -0.532131 0)
(2.41897 -0.533504 0)
(2.4231 -0.532868 0)
(2.42539 -0.534075 0)
(2.42906 -0.533508 0)
(2.43109 -0.534562 0)
(2.43434 -0.534062 0)
(2.43613 -0.534976 0)
(2.43899 -0.534535 0)
(2.44056 -0.53533 0)
(2.44304 -0.534936 0)
(2.4444 -0.53563 0)
(2.44653 -0.535274 0)
(2.44771 -0.535877 0)
(2.44951 -0.535559 0)
(2.45052 -0.536078 0)
(2.45201 -0.535796 0)
(2.45286 -0.536239 0)
(2.45406 -0.535989 0)
(2.45476 -0.536364 0)
(2.4557 -0.536145 0)
(2.45626 -0.536457 0)
(2.45696 -0.536266 0)
(2.45739 -0.536522 0)
(2.45786 -0.53636 0)
(2.45818 -0.536556 0)
(2.45847 -0.536436 0)
(2.45867 -0.536557 0)
(2.45883 -0.536496 0)
(2.45892 -0.536547 0)
(2.45898 -0.536531 0)
(2.45899 -0.536537 0)
)
;

boundaryField
{
    inlet
    {
        type            cyclic;
    }
    outlet
    {
        type            cyclic;
    }
    top
    {
        type            zeroGradient;
    }
    bottom
    {
        type            fixedValue;
        value           uniform (0 0 0);
    }
    frontAndBackPlanes
    {
        type            empty;
    }
}


// ************************************************************************* //
