/*--------------------------------*- C++ -*----------------------------------*\
| =========                 |                                                 |
| \\      /  F ield         | OpenFOAM: The Open Source CFD Toolbox           |
|  \\    /   O peration     | Version:  2206                                  |
|   \\  /    A nd           | Website:  www.openfoam.com                      |
|    \\/     M anipulation  |                                                 |
\*---------------------------------------------------------------------------*/
FoamFile
{
    version     2.0;
    format      ascii;
    arch        "LSB;label=32;scalar=64";
    class       volVectorField;
    location    "16";
    object      U.b;
}
// * * * * * * * * * * * * * * * * * * * * * * * * * * * * * * * * * * * * * //

dimensions      [0 1 -1 0 0 0 0];

internalField   nonuniform List<vector> 
120
(
(0.0135375 1.44571e-09 0)
(0.0137541 -5.11278e-09 0)
(0.0137613 -7.24472e-09 0)
(0.0137718 -9.11109e-09 0)
(0.01378 -1.40471e-08 0)
(0.0137896 -1.55932e-08 0)
(0.0137989 -2.05499e-08 0)
(0.0138086 -2.34177e-08 0)
(0.0138185 -2.77636e-08 0)
(0.0138286 -3.19266e-08 0)
(0.013839 -3.64832e-08 0)
(0.0138498 -4.1353e-08 0)
(0.0138608 -4.66326e-08 0)
(0.0138721 -5.24006e-08 0)
(0.0138838 -5.8769e-08 0)
(0.0138959 -6.58725e-08 0)
(0.0139085 -7.38639e-08 0)
(0.0139215 -8.30632e-08 0)
(0.013935 -9.35961e-08 0)
(0.0139492 -1.06661e-07 0)
(0.0139641 -1.19578e-07 0)
(0.0139798 -1.43072e-07 0)
(0.0139967 -1.51524e-07 0)
(0.0140148 -2.01847e-07 0)
(0.014034 -1.9037e-07 0)
(0.0140548 -3.09321e-07 0)
(0.0140796 -2.60343e-07 0)
(0.0141146 -5.60057e-07 0)
(0.0141633 -4.46423e-07 0)
(0.0142479 -7.79352e-07 0)
(0.0146212 -4.79518e-07 0)
(0.0160479 -1.2228e-06 0)
(0.0191423 -4.30419e-07 0)
(0.023772 -1.48406e-06 0)
(0.0297159 -8.42539e-07 0)
(0.0370949 -2.1351e-06 0)
(0.0462917 -4.22748e-06 0)
(0.0578907 -6.12379e-06 0)
(0.0727782 -7.80915e-06 0)
(0.0922243 -1.02573e-05 0)
(0.118307 -1.35972e-05 0)
(0.155389 -1.6615e-05 0)
(0.21041 -1.9142e-05 0)
(0.287238 -2.10755e-05 0)
(0.383139 -2.25546e-05 0)
(0.491527 -2.35694e-05 0)
(0.605473 -2.40853e-05 0)
(0.719601 -2.41494e-05 0)
(0.830451 -2.38245e-05 0)
(0.936101 -2.31694e-05 0)
(1.03565 -2.22279e-05 0)
(1.12881 -2.10278e-05 0)
(1.21559 -1.95859e-05 0)
(1.29618 -1.79143e-05 0)
(1.37079 -1.603e-05 0)
(1.43968 -1.39662e-05 0)
(1.50308 -1.17859e-05 0)
(1.56129 -9.59038e-06 0)
(1.6146 -7.51503e-06 0)
(1.66338 -5.70112e-06 0)
(1.70802 -4.25254e-06 0)
(1.74897 -3.20311e-06 0)
(1.78664 -2.51495e-06 0)
(1.82143 -2.10283e-06 0)
(1.85367 -1.8667e-06 0)
(1.88367 -1.71505e-06 0)
(1.91168 -1.57517e-06 0)
(1.93791 -1.39795e-06 0)
(1.96255 -1.16042e-06 0)
(1.98575 -8.67252e-07 0)
(2.00764 -5.48639e-07 0)
(2.02834 -2.50345e-07 0)
(2.04795 -1.54221e-08 0)
(2.06656 1.34692e-07 0)
(2.08424 2.04046e-07 0)
(2.10107 2.1531e-07 0)
(2.1171 1.80109e-07 0)
(2.13238 2.35142e-07 0)
(2.14698 -5.28468e-09 0)
(2.16093 4.23384e-07 0)
(2.17426 4.14305e-07 0)
(2.18702 -1.27028e-07 0)
(2.19924 2.21378e-08 0)
(2.21094 -3.7497e-09 0)
(2.22217 6.86362e-10 0)
(2.23292 -2.29884e-10 0)
(2.24324 -6.3341e-11 0)
(2.25315 -4.09704e-11 0)
(2.26265 -5.27957e-11 0)
(2.27177 -5.24997e-11 0)
(2.28053 -3.00399e-11 0)
(2.28894 -3.70255e-11 0)
(2.29701 -3.97356e-11 0)
(2.30476 -2.72754e-11 0)
(2.31219 -2.05246e-11 0)
(2.31932 -1.6808e-11 0)
(2.32617 -1.78758e-11 0)
(2.33272 -2.67371e-11 0)
(2.33901 -3.03756e-11 0)
(2.34503 -2.07832e-11 0)
(2.35079 -7.94484e-12 0)
(2.3563 -3.04518e-12 0)
(2.36156 -4.79847e-12 0)
(2.36657 -7.67354e-12 0)
(2.37135 -8.97352e-12 0)
(2.3759 -7.20256e-12 0)
(2.38022 -2.01238e-12 0)
(2.3843 3.61227e-12 0)
(2.38817 7.22747e-12 0)
(2.3918 9.66649e-12 0)
(2.39521 1.14627e-11 0)
(2.3984 9.28605e-12 0)
(2.40136 2.09659e-12 0)
(2.40408 -3.3271e-12 0)
(2.40656 -2.01824e-12 0)
(2.40879 1.36008e-12 0)
(2.41076 2.66099e-12 0)
(2.41245 3.66744e-12 0)
(2.4138 4.30056e-12 0)
(2.41484 3.06263e-12 0)
)
;

boundaryField
{
    inlet
    {
        type            cyclic;
    }
    outlet
    {
        type            cyclic;
    }
    top
    {
        type            zeroGradient;
    }
    bottom
    {
        type            fixedValue;
        value           uniform (0 0 0);
    }
    frontAndBackPlanes
    {
        type            empty;
    }
}


// ************************************************************************* //
