/*--------------------------------*- C++ -*----------------------------------*\
| =========                 |                                                 |
| \\      /  F ield         | OpenFOAM: The Open Source CFD Toolbox           |
|  \\    /   O peration     | Version:  v2006                                 |
|   \\  /    A nd           | Website:  www.openfoam.com                      |
|    \\/     M anipulation  |                                                 |
\*---------------------------------------------------------------------------*/
FoamFile
{
    version     2.0;
    format      ascii;
    class       volScalarField;
    location    "1440";
    object      p;
}
// * * * * * * * * * * * * * * * * * * * * * * * * * * * * * * * * * * * * * //

dimensions      [1 -1 -2 0 0 0 0];


internalField   nonuniform List<scalar> 
120
(
-1.05236
-5.71238
-10.3727
-15.0333
-19.6942
-24.3553
-29.0168
-33.6785
-38.3406
-43.0029
-47.6656
-52.3285
-56.9918
-61.6553
-66.3192
-70.9834
-75.6479
-80.3127
-84.9778
-89.6432
-94.309
-98.975
-103.641
-108.308
-112.975
-117.643
-122.31
-126.978
-131.647
-136.315
-140.984
-145.654
-150.323
-154.993
-159.663
-164.334
-169.005
-173.676
-178.348
-183.02
-187.692
-192.365
-197.038
-201.712
-206.385
-211.059
-215.734
-220.408
-225.084
-229.759
-234.435
-239.111
-243.787
-248.464
-253.141
-257.819
-262.497
-267.175
-271.853
-276.532
-281.211
-285.891
-290.571
-295.251
-299.931
-304.612
-309.293
-313.975
-318.657
-323.339
-328.021
-332.704
-337.387
-342.07
-346.754
-351.438
-356.122
-360.806
-365.491
-370.176
-374.861
-379.547
-384.232
-388.918
-393.604
-398.291
-402.977
-407.663
-412.35
-417.036
-421.706
-426.367
-431.027
-435.687
-440.346
-445.006
-449.666
-454.326
-458.985
-463.645
-468.305
-472.965
-477.624
-482.284
-486.944
-491.604
-496.263
-500.923
-505.583
-510.243
-514.902
-519.562
-524.222
-528.882
-533.541
-538.201
-542.861
-547.521
-552.18
-556.84
)
;

boundaryField
{
    inlet
    {
        type            cyclic;
    }
    outlet
    {
        type            cyclic;
    }
    top
    {
        type            calculated;
        value           uniform -559.17;
    }
    bottom
    {
        type            calculated;
        value           uniform 1.27752;
    }
    frontAndBackPlanes
    {
        type            empty;
    }
}


// ************************************************************************* //
