/*--------------------------------*- C++ -*----------------------------------*\
| =========                 |                                                 |
| \\      /  F ield         | OpenFOAM: The Open Source CFD Toolbox           |
|  \\    /   O peration     | Version:  v2006                                 |
|   \\  /    A nd           | Website:  www.openfoam.com                      |
|    \\/     M anipulation  |                                                 |
\*---------------------------------------------------------------------------*/
FoamFile
{
    version     2.0;
    format      ascii;
    class       volScalarField;
    location    "1440";
    object      pff;
}
// * * * * * * * * * * * * * * * * * * * * * * * * * * * * * * * * * * * * * //

dimensions      [1 -1 -2 0 0 0 0];


internalField   nonuniform List<scalar> 
120
(
25.2487
24.9546
24.6608
24.3672
24.0739
23.7809
23.4882
23.1957
22.9035
22.6116
22.32
22.0287
21.7376
21.4469
21.1564
20.8662
20.5762
20.2866
19.9973
19.7082
19.4194
19.1309
18.8427
18.5548
18.2672
17.9798
17.6928
17.406
17.1195
16.8333
16.5474
16.2618
15.9764
15.6913
15.4066
15.1221
14.8379
14.5539
14.2703
13.987
13.7039
13.4212
13.1387
12.8565
12.5747
12.2931
12.0118
11.7309
11.4502
11.1698
10.8898
10.6101
10.3307
10.0516
9.77277
9.4943
9.21616
8.93834
8.66084
8.38366
8.10681
7.83029
7.5541
7.27823
7.0027
6.72749
6.45262
6.17808
5.90388
5.63
5.35646
5.08326
4.8104
4.53787
4.26568
3.99384
3.72234
3.4512
3.18042
2.91
2.63996
2.37029
2.10099
1.83205
1.56344
1.29528
1.0275
0.753805
0.476798
0.176386
0
0
0
0
0
0
0
0
0
0
0
0
0
0
0
0
0
0
0
0
0
0
0
0
0
0
0
0
0
0
)
;

boundaryField
{
    inlet
    {
        type            cyclic;
    }
    outlet
    {
        type            cyclic;
    }
    top
    {
        type            calculated;
        value           uniform 0;
    }
    bottom
    {
        type            calculated;
        value           uniform 25.2487;
    }
    frontAndBackPlanes
    {
        type            empty;
    }
}


// ************************************************************************* //
