/*--------------------------------*- C++ -*----------------------------------*\
| =========                 |                                                 |
| \\      /  F ield         | OpenFOAM: The Open Source CFD Toolbox           |
|  \\    /   O peration     | Version:  v2006                                 |
|   \\  /    A nd           | Website:  www.openfoam.com                      |
|    \\/     M anipulation  |                                                 |
\*---------------------------------------------------------------------------*/
FoamFile
{
    version     2.0;
    format      ascii;
    class       surfaceScalarField;
    location    "1440";
    object      phia;
}
// * * * * * * * * * * * * * * * * * * * * * * * * * * * * * * * * * * * * * //

dimensions      [0 3 -1 0 0 0 0];
oriented        oriented;


internalField   nonuniform List<scalar> 
119
(
-6.96235e-16
-1.4005e-15
-2.11267e-15
-2.83257e-15
-3.56002e-15
-4.29485e-15
-5.03688e-15
-5.78592e-15
-6.5418e-15
-7.30432e-15
-8.07331e-15
-8.84859e-15
-9.63e-15
-1.04174e-14
-1.12105e-14
-1.20094e-14
-1.28137e-14
-1.36235e-14
-1.44385e-14
-1.52588e-14
-1.60841e-14
-1.69145e-14
-1.77499e-14
-1.85902e-14
-1.94354e-14
-2.02855e-14
-2.11405e-14
-2.20003e-14
-2.2865e-14
-2.37346e-14
-2.46091e-14
-2.54885e-14
-2.63728e-14
-2.72621e-14
-2.81563e-14
-2.90556e-14
-2.99598e-14
-3.0869e-14
-3.17832e-14
-3.27023e-14
-3.36263e-14
-3.45553e-14
-3.54891e-14
-3.64276e-14
-3.73709e-14
-3.83188e-14
-3.92713e-14
-4.02283e-14
-4.11896e-14
-4.21552e-14
-4.31249e-14
-4.40988e-14
-4.50765e-14
-4.60581e-14
-4.70434e-14
-4.80323e-14
-4.90246e-14
-5.00203e-14
-5.10193e-14
-5.20213e-14
-5.30263e-14
-5.40342e-14
-5.50448e-14
-5.60579e-14
-5.70736e-14
-5.80915e-14
-5.91117e-14
-6.01338e-14
-6.11579e-14
-6.21837e-14
-6.32112e-14
-6.42403e-14
-6.52712e-14
-6.63041e-14
-6.73396e-14
-6.83784e-14
-6.9422e-14
-7.04721e-14
-7.15312e-14
-7.26018e-14
-7.36869e-14
-7.4789e-14
-7.59098e-14
-7.70502e-14
-7.82099e-14
-7.93908e-14
-8.06222e-14
-8.20573e-14
-8.37539e-14
-1.43799e-13
-1.30234e-12
-3.95808e-11
-5.69703e-11
-8.21847e-11
-8.22696e-11
-8.22746e-11
-8.22765e-11
-8.22766e-11
-8.22766e-11
-8.22766e-11
-8.22766e-11
-8.22766e-11
-8.22766e-11
-8.22766e-11
-8.22766e-11
-8.22766e-11
-8.22766e-11
-8.22766e-11
-8.22766e-11
-8.22766e-11
-8.22766e-11
-8.22766e-11
-8.22766e-11
-8.22766e-11
-8.22766e-11
-8.22766e-11
-8.22766e-11
-8.22565e-11
-8.21697e-11
)
;

boundaryField
{
    inlet
    {
        type            cyclic;
        value           nonuniform List<scalar> 
120
(
-8.80101e-28
-2.64191e-27
-4.40745e-27
-6.14882e-27
-7.89892e-27
-9.66025e-27
-1.14353e-26
-1.31659e-26
-1.49152e-26
-1.67467e-26
-1.8602e-26
-2.04839e-26
-2.24557e-26
-2.44593e-26
-2.64973e-26
-2.85724e-26
-3.06873e-26
-3.28449e-26
-3.5048e-26
-3.72994e-26
-3.96021e-26
-4.19591e-26
-4.43735e-26
-4.68484e-26
-4.96306e-26
-5.248e-26
-5.53999e-26
-5.82722e-26
-6.12223e-26
-6.42539e-26
-6.71273e-26
-6.98464e-26
-7.26591e-26
-7.55697e-26
-7.85826e-26
-8.17004e-26
-8.51738e-26
-8.90095e-26
-9.27223e-26
-9.68055e-26
-1.00532e-25
-1.04638e-25
-1.08642e-25
-1.12793e-25
-1.17095e-25
-1.21798e-25
-1.26174e-25
-1.30714e-25
-1.3518e-25
-1.40309e-25
-1.45613e-25
-1.51097e-25
-1.56761e-25
-1.62606e-25
-1.68634e-25
-1.75086e-25
-1.81717e-25
-1.88523e-25
-1.95502e-25
-2.02155e-25
-2.0896e-25
-2.1591e-25
-2.22994e-25
-2.30199e-25
-2.37508e-25
-2.44416e-25
-2.51881e-25
-2.59392e-25
-2.66928e-25
-2.74462e-25
-2.81968e-25
-2.88929e-25
-2.95804e-25
-3.02564e-25
-3.09176e-25
-3.15609e-25
-3.21831e-25
-3.2781e-25
-3.33513e-25
-3.38911e-25
-3.43973e-25
-3.4867e-25
-3.52977e-25
-3.5687e-25
-3.60327e-25
-3.63329e-25
-3.6489e-25
-3.65969e-25
-3.66559e-25
-3.66827e-25
-3.67109e-25
-5.80823e-25
-9.18803e-25
-1.25544e-24
-1.58078e-24
-1.89086e-24
-2.18204e-24
-2.45079e-24
-2.69371e-24
-2.90785e-24
-3.09049e-24
-3.23945e-24
-3.35283e-24
-3.42932e-24
-3.46796e-24
-3.46832e-24
-3.43039e-24
-3.35465e-24
-3.24195e-24
-3.09361e-24
-2.91134e-24
-2.69718e-24
-2.45354e-24
-2.18319e-24
-1.88903e-24
-1.57435e-24
-1.24259e-24
-8.97373e-25
-5.42436e-25
-1.8165e-25
)
;
    }
    outlet
    {
        type            cyclic;
        value           nonuniform List<scalar> 
120
(
8.80101e-28
2.64191e-27
4.40745e-27
6.14882e-27
7.89892e-27
9.66025e-27
1.14353e-26
1.31659e-26
1.49152e-26
1.67467e-26
1.8602e-26
2.04839e-26
2.24557e-26
2.44593e-26
2.64973e-26
2.85724e-26
3.06873e-26
3.28449e-26
3.5048e-26
3.72994e-26
3.96021e-26
4.19591e-26
4.43735e-26
4.68484e-26
4.96306e-26
5.248e-26
5.53999e-26
5.82722e-26
6.12223e-26
6.42539e-26
6.71273e-26
6.98464e-26
7.26591e-26
7.55697e-26
7.85826e-26
8.17004e-26
8.51738e-26
8.90095e-26
9.27223e-26
9.68055e-26
1.00532e-25
1.04638e-25
1.08642e-25
1.12793e-25
1.17095e-25
1.21798e-25
1.26174e-25
1.30714e-25
1.3518e-25
1.40309e-25
1.45613e-25
1.51097e-25
1.56761e-25
1.62606e-25
1.68634e-25
1.75086e-25
1.81717e-25
1.88523e-25
1.95502e-25
2.02155e-25
2.0896e-25
2.1591e-25
2.22994e-25
2.30199e-25
2.37508e-25
2.44416e-25
2.51881e-25
2.59392e-25
2.66928e-25
2.74462e-25
2.81968e-25
2.88929e-25
2.95804e-25
3.02564e-25
3.09176e-25
3.15609e-25
3.21831e-25
3.2781e-25
3.33513e-25
3.38911e-25
3.43973e-25
3.4867e-25
3.52977e-25
3.5687e-25
3.60327e-25
3.63329e-25
3.6489e-25
3.65969e-25
3.66559e-25
3.66827e-25
3.67109e-25
5.80823e-25
9.18803e-25
1.25544e-24
1.58078e-24
1.89086e-24
2.18204e-24
2.45079e-24
2.69371e-24
2.90785e-24
3.09049e-24
3.23945e-24
3.35283e-24
3.42932e-24
3.46796e-24
3.46832e-24
3.43039e-24
3.35465e-24
3.24195e-24
3.09361e-24
2.91134e-24
2.69718e-24
2.45354e-24
2.18319e-24
1.88903e-24
1.57435e-24
1.24259e-24
8.97373e-25
5.42436e-25
1.8165e-25
)
;
    }
    top
    {
        type            fixedValue;
        value           uniform 0;
    }
    bottom
    {
        type            fixedValue;
        value           uniform 0;
    }
    frontAndBackPlanes
    {
        type            empty;
        value           nonuniform List<scalar> 0();
    }
}


// ************************************************************************* //
