/*--------------------------------*- C++ -*----------------------------------*\
| =========                 |                                                 |
| \\      /  F ield         | OpenFOAM: The Open Source CFD Toolbox           |
|  \\    /   O peration     | Version:  v2006                                 |
|   \\  /    A nd           | Website:  www.openfoam.com                      |
|    \\/     M anipulation  |                                                 |
\*---------------------------------------------------------------------------*/
FoamFile
{
    version     2.0;
    format      ascii;
    class       surfaceScalarField;
    location    "1440";
    object      phib;
}
// * * * * * * * * * * * * * * * * * * * * * * * * * * * * * * * * * * * * * //

dimensions      [0 3 -1 0 0 0 0];
oriented        oriented;


internalField   nonuniform List<scalar> 
119
(
1.04396e-15
2.09954e-15
3.16653e-15
4.24465e-15
5.33363e-15
6.4332e-15
7.54305e-15
8.66293e-15
9.79251e-15
1.09315e-14
1.20797e-14
1.32367e-14
1.44023e-14
1.55762e-14
1.67582e-14
1.79481e-14
1.91456e-14
2.03505e-14
2.15626e-14
2.27819e-14
2.4008e-14
2.52409e-14
2.64806e-14
2.77268e-14
2.89796e-14
3.02389e-14
3.15046e-14
3.27767e-14
3.40551e-14
3.534e-14
3.66311e-14
3.79287e-14
3.92327e-14
4.0543e-14
4.18596e-14
4.31826e-14
4.45118e-14
4.58473e-14
4.71889e-14
4.85367e-14
4.98905e-14
5.12503e-14
5.26158e-14
5.39871e-14
5.53638e-14
5.67458e-14
5.8133e-14
5.95252e-14
6.09221e-14
6.23236e-14
6.37293e-14
6.51391e-14
6.65526e-14
6.79697e-14
6.93898e-14
7.08131e-14
7.2239e-14
7.36673e-14
7.50975e-14
7.65296e-14
7.79628e-14
7.93971e-14
8.08318e-14
8.22669e-14
8.37017e-14
8.51359e-14
8.65688e-14
8.8e-14
8.94287e-14
9.08546e-14
9.22769e-14
9.36952e-14
9.51088e-14
9.65177e-14
9.79215e-14
9.93206e-14
1.00715e-13
1.02108e-13
1.03498e-13
1.04889e-13
1.06282e-13
1.07675e-13
1.09067e-13
1.1045e-13
1.11814e-13
1.13142e-13
1.1444e-13
1.15845e-13
1.17129e-13
1.40278e-13
3.40075e-13
1.60385e-13
3.0973e-16
4.77738e-19
4.66465e-19
4.9648e-19
5.12877e-19
5.62231e-19
5.74108e-19
6.05542e-19
5.96236e-19
6.07298e-19
5.78639e-19
5.85499e-19
5.73241e-19
5.96851e-19
5.8417e-19
5.91529e-19
5.62588e-19
5.5189e-19
5.08452e-19
4.937e-19
4.66295e-19
4.68188e-19
4.47587e-19
4.43351e-19
4.17263e-19
4.0625e-19
3.73786e-19
)
;

boundaryField
{
    inlet
    {
        type            cyclic;
        value           nonuniform List<scalar> 
120
(
-8.80101e-28
-2.64192e-27
-4.40995e-27
-6.14883e-27
-7.89892e-27
-9.66031e-27
-1.1449e-26
-1.31658e-26
-1.4897e-26
-1.67466e-26
-1.86019e-26
-2.04589e-26
-2.24556e-26
-2.44593e-26
-2.64973e-26
-2.85724e-26
-3.06873e-26
-3.28449e-26
-3.5048e-26
-3.72994e-26
-3.96021e-26
-4.19591e-26
-4.43725e-26
-4.66327e-26
-4.96297e-26
-5.24805e-26
-5.55229e-26
-5.82727e-26
-6.12235e-26
-6.45318e-26
-6.74154e-26
-6.98476e-26
-7.26591e-26
-7.55697e-26
-7.85811e-26
-8.13595e-26
-8.48238e-26
-8.93671e-26
-9.23556e-26
-9.7567e-26
-1.00143e-25
-1.05041e-25
-1.08644e-25
-1.12791e-25
-1.16662e-25
-1.22693e-25
-1.2618e-25
-1.31181e-25
-1.34218e-25
-1.40304e-25
-1.45613e-25
-1.51097e-25
-1.56761e-25
-1.62604e-25
-1.68083e-25
-1.75084e-25
-1.81717e-25
-1.88528e-25
-1.96696e-25
-2.0216e-25
-2.0896e-25
-2.1591e-25
-2.22994e-25
-2.30205e-25
-2.38836e-25
-2.43064e-25
-2.51874e-25
-2.59392e-25
-2.66928e-25
-2.74469e-25
-2.83443e-25
-2.88936e-25
-2.95804e-25
-3.02564e-25
-3.09176e-25
-3.15609e-25
-3.21831e-25
-3.2781e-25
-3.33513e-25
-3.38911e-25
-3.43973e-25
-3.4867e-25
-3.52977e-25
-3.5687e-25
-3.60344e-25
-3.66983e-25
-3.64907e-25
-3.65969e-25
-3.6656e-25
-3.66843e-25
-3.70157e-25
-5.81251e-25
-9.19542e-25
-1.25567e-24
-1.58075e-24
-1.89081e-24
-2.18201e-24
-2.45074e-24
-2.69368e-24
-2.90781e-24
-3.09047e-24
-3.23941e-24
-3.35281e-24
-3.42929e-24
-3.46794e-24
-3.46831e-24
-3.43039e-24
-3.35464e-24
-3.24195e-24
-3.09362e-24
-2.91135e-24
-2.6972e-24
-2.45358e-24
-2.1832e-24
-1.88905e-24
-1.57438e-24
-1.24263e-24
-8.97409e-25
-5.42474e-25
-1.81669e-25
)
;
    }
    outlet
    {
        type            cyclic;
        value           nonuniform List<scalar> 
120
(
8.80101e-28
2.64192e-27
4.40995e-27
6.14883e-27
7.89892e-27
9.66031e-27
1.1449e-26
1.31658e-26
1.4897e-26
1.67466e-26
1.86019e-26
2.04589e-26
2.24556e-26
2.44593e-26
2.64973e-26
2.85724e-26
3.06873e-26
3.28449e-26
3.5048e-26
3.72994e-26
3.96021e-26
4.19591e-26
4.43725e-26
4.66327e-26
4.96297e-26
5.24805e-26
5.55229e-26
5.82727e-26
6.12235e-26
6.45318e-26
6.74154e-26
6.98476e-26
7.26591e-26
7.55697e-26
7.85811e-26
8.13595e-26
8.48238e-26
8.93671e-26
9.23556e-26
9.7567e-26
1.00143e-25
1.05041e-25
1.08644e-25
1.12791e-25
1.16662e-25
1.22693e-25
1.2618e-25
1.31181e-25
1.34218e-25
1.40304e-25
1.45613e-25
1.51097e-25
1.56761e-25
1.62604e-25
1.68083e-25
1.75084e-25
1.81717e-25
1.88528e-25
1.96696e-25
2.0216e-25
2.0896e-25
2.1591e-25
2.22994e-25
2.30205e-25
2.38836e-25
2.43064e-25
2.51874e-25
2.59392e-25
2.66928e-25
2.74469e-25
2.83443e-25
2.88936e-25
2.95804e-25
3.02564e-25
3.09176e-25
3.15609e-25
3.21831e-25
3.2781e-25
3.33513e-25
3.38911e-25
3.43973e-25
3.4867e-25
3.52977e-25
3.5687e-25
3.60344e-25
3.66983e-25
3.64907e-25
3.65969e-25
3.6656e-25
3.66843e-25
3.70157e-25
5.81251e-25
9.19542e-25
1.25567e-24
1.58075e-24
1.89081e-24
2.18201e-24
2.45074e-24
2.69368e-24
2.90781e-24
3.09047e-24
3.23941e-24
3.35281e-24
3.42929e-24
3.46794e-24
3.46831e-24
3.43039e-24
3.35464e-24
3.24195e-24
3.09362e-24
2.91135e-24
2.6972e-24
2.45358e-24
2.1832e-24
1.88905e-24
1.57438e-24
1.24263e-24
8.97409e-25
5.42474e-25
1.81669e-25
)
;
    }
    top
    {
        type            fixedValue;
        value           uniform 0;
    }
    bottom
    {
        type            fixedValue;
        value           uniform 0;
    }
    frontAndBackPlanes
    {
        type            empty;
        value           nonuniform List<scalar> 0();
    }
}


// ************************************************************************* //
