/*--------------------------------*- C++ -*----------------------------------*\
| =========                 |                                                 |
| \\      /  F ield         | OpenFOAM: The Open Source CFD Toolbox           |
|  \\    /   O peration     | Version:  v2006                                 |
|   \\  /    A nd           | Website:  www.openfoam.com                      |
|    \\/     M anipulation  |                                                 |
\*---------------------------------------------------------------------------*/
FoamFile
{
    version     2.0;
    format      ascii;
    class       volTensorField;
    location    "1440";
    object      Taua;
}
// * * * * * * * * * * * * * * * * * * * * * * * * * * * * * * * * * * * * * //

dimensions      [1 -1 -2 0 0 0 0];


internalField   nonuniform List<tensor> 
120
(
(0.00135512 0 0 1.2327e-14 -0.00271024 0 0 0 0.00135512)
(0.00136797 0 0 1.23457e-14 -0.00273594 0 0 0 0.00136797)
(0.00138475 0 0 1.22742e-14 -0.0027695 0 0 0 0.00138475)
(0.00139991 0 0 1.22202e-14 -0.00279982 0 0 0 0.00139991)
(0.0014145 0 0 1.229e-14 -0.002829 0 0 0 0.0014145)
(0.00142883 0 0 1.23774e-14 -0.00285766 0 0 0 0.00142883)
(0.00144283 0 0 1.22696e-14 -0.00288566 0 0 0 0.00144283)
(0.00145647 0 0 1.21795e-14 -0.00291294 0 0 0 0.00145647)
(0.00146975 0 0 1.25328e-14 -0.00293951 0 0 0 0.00146975)
(0.00148268 0 0 1.29041e-14 -0.00296536 0 0 0 0.00148268)
(0.00149526 0 0 1.30805e-14 -0.00299052 0 0 0 0.00149526)
(0.00150749 0 0 1.34879e-14 -0.00301499 0 0 0 0.00150749)
(0.0015194 0 0 1.39138e-14 -0.0030388 0 0 0 0.0015194)
(0.00153099 0 0 1.41454e-14 -0.00306197 0 0 0 0.00153099)
(0.00154227 0 0 1.43957e-14 -0.00308455 0 0 0 0.00154227)
(0.00155328 0 0 1.46652e-14 -0.00310656 0 0 0 0.00155328)
(0.00156402 0 0 1.49539e-14 -0.00312804 0 0 0 0.00156402)
(0.00157453 0 0 1.52623e-14 -0.00314905 0 0 0 0.00157453)
(0.00158481 0 0 1.55907e-14 -0.00316963 0 0 0 0.00158481)
(0.00159491 0 0 1.59395e-14 -0.00318983 0 0 0 0.00159491)
(0.00160485 0 0 1.6309e-14 -0.0032097 0 0 0 0.00160485)
(0.00161465 0 0 1.66998e-14 -0.0032293 0 0 0 0.00161465)
(0.00162433 0 0 1.71124e-14 -0.00324867 0 0 0 0.00162433)
(0.00163393 0 0 1.84e-14 -0.00326786 0 0 0 0.00163393)
(0.00164347 0 0 1.97106e-14 -0.00328693 0 0 0 0.00164347)
(0.00165296 0 0 2.01926e-14 -0.00330592 0 0 0 0.00165296)
(0.00166243 0 0 2.02727e-14 -0.00332486 0 0 0 0.00166243)
(0.00167189 0 0 2.03781e-14 -0.00334379 0 0 0 0.00167189)
(0.00168137 0 0 2.09361e-14 -0.00336274 0 0 0 0.00168137)
(0.00169087 0 0 2.06677e-14 -0.00338173 0 0 0 0.00169087)
(0.00170039 0 0 1.95735e-14 -0.00340079 0 0 0 0.00170039)
(0.00170995 0 0 1.93612e-14 -0.00341991 0 0 0 0.00170995)
(0.00171955 0 0 2.00318e-14 -0.0034391 0 0 0 0.00171955)
(0.00172918 0 0 2.07323e-14 -0.00345836 0 0 0 0.00172918)
(0.00173884 0 0 2.14575e-14 -0.00347768 0 0 0 0.00173884)
(0.00174852 1.84068e-17 0 2.30694e-14 -0.00349704 0 0 0 0.00174852)
(0.00175821 0 0 2.55816e-14 -0.00351642 0 0 0 0.00175821)
(0.0017679 0 0 2.64197e-14 -0.00353579 0 0 0 0.0017679)
(0.00177756 0 0 2.7286e-14 -0.00355512 0 0 0 0.00177756)
(0.00178719 0 0 2.73324e-14 -0.00357438 0 0 0 0.00178719)
(0.00179677 0 0 2.74149e-14 -0.00359354 0 0 0 0.00179677)
(0.00180627 0 0 2.83876e-14 -0.00361254 0 0 0 0.00180627)
(0.00181568 0 0 2.85413e-14 -0.00363137 0 0 0 0.00181568)
(0.00182498 0 0 2.95852e-14 -0.00364997 0 0 0 0.00182498)
(0.00183416 0 0 3.15187e-14 -0.00366831 0 0 0 0.00183416)
(0.00184318 0 0 3.17746e-14 -0.00368637 0 0 0 0.00184318)
(0.00185205 0 0 3.12067e-14 -0.0037041 0 0 0 0.00185205)
(0.00186074 0 0 3.15237e-14 -0.00372148 0 0 0 0.00186074)
(0.00186924 0 0 3.35795e-14 -0.00373849 0 0 0 0.00186924)
(0.00187755 0 0 3.65146e-14 -0.0037551 0 0 0 0.00187755)
(0.00188565 0 0 3.77578e-14 -0.0037713 0 0 0 0.00188565)
(0.00189353 0 0 3.9016e-14 -0.00378706 0 0 0 0.00189353)
(0.0019012 0 0 4.02839e-14 -0.00380239 0 0 0 0.0019012)
(0.00190864 0 0 4.15556e-14 -0.00381727 0 0 0 0.00190864)
(0.00191585 0 0 4.36802e-14 -0.0038317 0 0 0 0.00191585)
(0.00192283 0 0 4.57934e-14 -0.00384566 0 0 0 0.00192283)
(0.00192958 0 0 4.70286e-14 -0.00385915 0 0 0 0.00192958)
(0.00193609 0 0 4.82462e-14 -0.00387218 0 0 0 0.00193609)
(0.00194237 -3.68135e-17 0 4.7712e-14 -0.00388473 0 0 0 0.00194237)
(0.0019484 0 0 4.71016e-14 -0.0038968 0 0 0 0.0019484)
(0.0019542 0 0 4.81431e-14 -0.00390839 0 0 0 0.0019542)
(0.00195974 0 0 4.91219e-14 -0.00391949 0 0 0 0.00195974)
(0.00196504 0 0 5.00111e-14 -0.00393008 0 0 0 0.00196504)
(0.00197008 0 0 5.07986e-14 -0.00394016 0 0 0 0.00197008)
(0.00197486 0 0 4.97583e-14 -0.00394971 0 0 0 0.00197486)
(0.00197936 0 0 5.03028e-14 -0.00395872 0 0 0 0.00197936)
(0.00198358 0 0 5.24184e-14 -0.00396716 0 0 0 0.00198358)
(0.00198753 0 0 5.26654e-14 -0.00397505 0 0 0 0.00198753)
(0.0019912 0 0 5.27437e-14 -0.0039824 0 0 0 0.0019912)
(0.00199464 0 0 5.26412e-14 -0.00398928 0 0 0 0.00199464)
(0.00199791 0 0 5.06345e-14 -0.00399581 0 0 0 0.00199791)
(0.00200113 0 0 4.84265e-14 -0.00400227 0 0 0 0.00200113)
(0.00200454 0 0 4.77217e-14 -0.00400907 0 0 0 0.00200454)
(0.00200845 0 0 4.6801e-14 -0.0040169 0 0 0 0.00200845)
(0.00201338 0 0 4.56591e-14 -0.00402676 0 0 0 0.00201338)
(0.00202001 0 0 4.4293e-14 -0.00404002 0 0 0 0.00202001)
(0.00202919 0 0 4.2702e-14 -0.00405839 0 0 0 0.00202919)
(0.00204192 0 0 4.08876e-14 -0.00408384 0 0 0 0.00204192)
(0.00205918 0 0 3.88539e-14 -0.00411836 0 0 0 0.00205918)
(0.00208177 0 0 3.66075e-14 -0.00416354 0 0 0 0.00208177)
(0.00210985 0 0 3.41577e-14 -0.00421969 0 0 0 0.00210985)
(0.00214215 0 0 3.15167e-14 -0.0042843 0 0 0 0.00214215)
(0.00217754 0 0 2.86994e-14 -0.00435508 0 0 0 0.00217754)
(0.00222277 0 0 2.57231e-14 -0.00444555 0 0 0 0.00222277)
(0.00227784 0 0 2.2607e-14 -0.00455567 0 0 0 0.00227784)
(0.00223313 0 0 1.59706e-14 -0.00446626 0 0 0 0.00223313)
(0.00201849 0 0 9.23984e-15 -0.00403697 0 0 0 0.00201849)
(0.00318622 0 0 5.84129e-15 -0.00637245 0 0 0 0.00318622)
(0.0132553 0 0 3.00134e-15 -0.0265106 0 0 0 0.0132553)
(0.00991286 0 0 3.1888e-16 -0.0198257 0 0 0 0.00991286)
(8.33534e-06 0 0 3.04131e-19 -1.66707e-05 0 0 0 8.33534e-06)
(3.69849e-07 0 0 1.55644e-20 -7.39697e-07 0 0 0 3.69849e-07)
(5.09936e-10 0 0 2.56345e-23 -1.01987e-09 0 0 0 5.09936e-10)
(1.4395e-17 0 0 9.80339e-31 -2.87901e-17 0 0 0 1.4395e-17)
(6.06106e-26 0 0 1.08618e-38 -1.21221e-25 0 0 0 6.06106e-26)
(-2.96477e-36 0 0 9.97216e-47 5.92955e-36 0 0 0 -2.96477e-36)
(-3.89835e-45 0 0 8.35746e-55 7.7967e-45 0 0 0 -3.89835e-45)
(3.1433e-53 0 0 6.39398e-63 -6.28661e-53 0 0 0 3.1433e-53)
(3.70157e-62 0 0 4.99177e-71 -7.40313e-62 0 0 0 3.70157e-62)
(-1.71863e-70 0 0 4.00776e-79 3.43725e-70 0 0 0 -1.71863e-70)
(-3.9098e-79 0 0 3.7357e-87 7.81961e-79 0 0 0 -3.9098e-79)
(1.80902e-87 0 0 3.8997e-95 -3.61803e-87 0 0 0 1.80902e-87)
(7.88397e-96 0 0 4.4537e-103 -1.57679e-95 0 0 0 7.88397e-96)
(-3.25726e-104 0 0 4.54422e-111 6.51453e-104 0 0 0 -3.25726e-104)
(-2.27898e-112 0 0 2.86804e-119 4.55795e-112 0 0 0 -2.27898e-112)
(7.51166e-121 0 0 -5.78753e-127 -1.50233e-120 0 0 0 7.51166e-121)
(1.32692e-128 0 0 -5.83852e-134 -2.65384e-128 0 0 0 1.32692e-128)
(1.90362e-137 0 0 -6.78182e-141 -3.80725e-137 0 0 0 1.90362e-137)
(2.47971e-143 0 0 -1.02318e-147 -4.95941e-143 0 0 0 2.47971e-143)
(5.99576e-150 0 0 -1.43709e-154 -1.19915e-149 0 0 0 5.99576e-150)
(7.75419e-157 0 0 -1.83107e-161 -1.55084e-156 0 0 0 7.75419e-157)
(6.4003e-164 0 0 -2.00962e-168 -1.28006e-163 0 0 0 6.4003e-164)
(3.44494e-171 0 0 -2.04492e-175 -6.88988e-171 0 0 0 3.44494e-171)
(-5.60022e-177 0 0 -1.92202e-182 1.12004e-176 0 0 0 -5.60022e-177)
(-8.44991e-184 0 0 -1.80952e-189 1.68998e-183 0 0 0 -8.44991e-184)
(-1.35173e-189 0 0 -1.64635e-196 2.70346e-189 0 0 0 -1.35173e-189)
(-6.16813e-194 0 0 -1.49901e-203 1.23363e-193 0 0 0 -6.16813e-194)
(-1.19796e-200 0 0 -1.28504e-210 2.39593e-200 0 0 0 -1.19796e-200)
(-6.99166e-207 0 0 -1.05834e-217 1.39833e-206 0 0 0 -6.99166e-207)
(-4.96915e-211 0 0 -7.88145e-225 9.9383e-211 0 0 0 -4.96915e-211)
)
;

boundaryField
{
    inlet
    {
        type            cyclic;
    }
    outlet
    {
        type            cyclic;
    }
    top
    {
        type            extrapolatedCalculated;
        value           uniform (-9.92882e-211 0 0 -7.90881e-225 1.98576e-210 0 0 0 -9.92882e-211);
    }
    bottom
    {
        type            extrapolatedCalculated;
        value           uniform (0.00135125 0 0 1.23214e-14 -0.00270249 0 0 0 0.00135125);
    }
    frontAndBackPlanes
    {
        type            empty;
    }
}


// ************************************************************************* //
