/*--------------------------------*- C++ -*----------------------------------*\
| =========                 |                                                 |
| \\      /  F ield         | OpenFOAM: The Open Source CFD Toolbox           |
|  \\    /   O peration     | Version:  v2006                                 |
|   \\  /    A nd           | Website:  www.openfoam.com                      |
|    \\/     M anipulation  |                                                 |
\*---------------------------------------------------------------------------*/
FoamFile
{
    version     2.0;
    format      ascii;
    class       volTensorField;
    location    "1440";
    object      Taub;
}
// * * * * * * * * * * * * * * * * * * * * * * * * * * * * * * * * * * * * * //

dimensions      [1 -1 -2 0 0 0 0];


internalField   nonuniform List<tensor> 
120
(
(-9.70586e-08 0 0 5.86887e-19 1.94117e-07 0 0 0 -9.70586e-08)
(-9.77468e-08 0 0 5.88162e-19 1.95494e-07 0 0 0 -9.77468e-08)
(-9.87301e-08 0 0 5.84313e-19 1.9746e-07 0 0 0 -9.87301e-08)
(-9.97754e-08 0 0 5.81296e-19 1.99551e-07 0 0 0 -9.97754e-08)
(-1.0078e-07 0 0 5.85015e-19 2.01561e-07 0 0 0 -1.0078e-07)
(-1.01755e-07 0 0 5.91417e-19 2.0351e-07 0 0 0 -1.01755e-07)
(-1.02702e-07 0 0 5.83964e-19 2.05405e-07 0 0 0 -1.02702e-07)
(-1.03623e-07 0 0 5.74355e-19 2.07246e-07 0 0 0 -1.03623e-07)
(-1.04517e-07 0 0 5.96433e-19 2.09034e-07 0 0 0 -1.04517e-07)
(-1.05384e-07 0 0 6.17082e-19 2.10768e-07 0 0 0 -1.05384e-07)
(-1.06224e-07 0 0 6.18287e-19 2.12448e-07 0 0 0 -1.06224e-07)
(-1.07038e-07 0 0 6.41794e-19 2.14076e-07 0 0 0 -1.07038e-07)
(-1.07827e-07 0 0 6.66186e-19 2.15654e-07 0 0 0 -1.07827e-07)
(-1.08592e-07 0 0 6.7302e-19 2.17183e-07 0 0 0 -1.08592e-07)
(-1.09334e-07 0 0 6.84875e-19 2.18667e-07 0 0 0 -1.09334e-07)
(-1.10054e-07 0 0 6.97654e-19 2.20108e-07 0 0 0 -1.10054e-07)
(-1.10755e-07 0 0 7.11349e-19 2.21509e-07 0 0 0 -1.10755e-07)
(-1.11436e-07 0 0 7.25977e-19 2.22872e-07 0 0 0 -1.11436e-07)
(-1.12099e-07 0 0 7.41554e-19 2.24198e-07 0 0 0 -1.12099e-07)
(-1.12747e-07 0 0 7.58096e-19 2.25493e-07 0 0 0 -1.12747e-07)
(-1.1338e-07 0 0 7.75624e-19 2.26761e-07 0 0 0 -1.1338e-07)
(-1.14002e-07 0 0 7.94004e-19 2.28005e-07 0 0 0 -1.14002e-07)
(-1.14615e-07 0 0 7.77841e-19 2.29229e-07 0 0 0 -1.14615e-07)
(-1.1522e-07 0 0 8.74902e-19 2.30439e-07 0 0 0 -1.1522e-07)
(-1.15818e-07 0 0 9.73136e-19 2.31636e-07 0 0 0 -1.15818e-07)
(-1.1641e-07 0 0 9.80627e-19 2.3282e-07 0 0 0 -1.1641e-07)
(-1.16997e-07 0 0 9.6376e-19 2.33994e-07 0 0 0 -1.16997e-07)
(-1.1758e-07 0 0 9.48456e-19 2.3516e-07 0 0 0 -1.1758e-07)
(-1.18161e-07 0 0 1.04129e-18 2.36323e-07 0 0 0 -1.18161e-07)
(-1.18741e-07 0 0 1.03006e-18 2.37483e-07 0 0 0 -1.18741e-07)
(-1.19321e-07 0 0 8.84259e-19 2.38642e-07 0 0 0 -1.19321e-07)
(-1.19902e-07 0 0 8.72181e-19 2.39803e-07 0 0 0 -1.19902e-07)
(-1.20482e-07 0 0 9.51692e-19 2.40964e-07 0 0 0 -1.20482e-07)
(-1.21061e-07 0 0 9.84866e-19 2.42121e-07 0 0 0 -1.21061e-07)
(-1.21636e-07 0 0 9.62798e-19 2.43272e-07 0 0 0 -1.21636e-07)
(-1.22208e-07 -1.74897e-21 0 1.03805e-18 2.44417e-07 0 0 0 -1.22208e-07)
(-1.22777e-07 0 0 1.33142e-18 2.45555e-07 0 0 0 -1.22777e-07)
(-1.23343e-07 0 0 1.2522e-18 2.46685e-07 0 0 0 -1.23343e-07)
(-1.23903e-07 0 0 1.36316e-18 2.47806e-07 0 0 0 -1.23903e-07)
(-1.24459e-07 0 0 1.29454e-18 2.48917e-07 0 0 0 -1.24459e-07)
(-1.25007e-07 0 0 1.24225e-18 2.50013e-07 0 0 0 -1.25007e-07)
(-1.25544e-07 0 0 1.41281e-18 2.51087e-07 0 0 0 -1.25544e-07)
(-1.26067e-07 0 0 1.28796e-18 2.52134e-07 0 0 0 -1.26067e-07)
(-1.26576e-07 0 0 1.3323e-18 2.53152e-07 0 0 0 -1.26576e-07)
(-1.27071e-07 0 0 1.64532e-18 2.54141e-07 0 0 0 -1.27071e-07)
(-1.27549e-07 0 0 1.58129e-18 2.55099e-07 0 0 0 -1.27549e-07)
(-1.28012e-07 0 0 1.41001e-18 2.56024e-07 0 0 0 -1.28012e-07)
(-1.28458e-07 0 0 1.33524e-18 2.56916e-07 0 0 0 -1.28458e-07)
(-1.28886e-07 0 0 1.51527e-18 2.57771e-07 0 0 0 -1.28886e-07)
(-1.2929e-07 0 0 1.8924e-18 2.58581e-07 0 0 0 -1.2929e-07)
(-1.2967e-07 0 0 1.79211e-18 2.5934e-07 0 0 0 -1.2967e-07)
(-1.30025e-07 0 0 1.85089e-18 2.60051e-07 0 0 0 -1.30025e-07)
(-1.30356e-07 0 0 1.91042e-18 2.60713e-07 0 0 0 -1.30356e-07)
(-1.30662e-07 0 0 1.87953e-18 2.61325e-07 0 0 0 -1.30662e-07)
(-1.30944e-07 0 0 2.07145e-18 2.61888e-07 0 0 0 -1.30944e-07)
(-1.31202e-07 0 0 2.2628e-18 2.62403e-07 0 0 0 -1.31202e-07)
(-1.31433e-07 0 0 2.23101e-18 2.62866e-07 0 0 0 -1.31433e-07)
(-1.31633e-07 0 0 2.48522e-18 2.63267e-07 0 0 0 -1.31633e-07)
(-1.31801e-07 3.4899e-21 0 2.26153e-18 2.63601e-07 0 0 0 -1.31801e-07)
(-1.31935e-07 0 0 2.03429e-18 2.6387e-07 0 0 0 -1.31935e-07)
(-1.32037e-07 0 0 2.28046e-18 2.64074e-07 0 0 0 -1.32037e-07)
(-1.32104e-07 0 0 2.3274e-18 2.64208e-07 0 0 0 -1.32104e-07)
(-1.32136e-07 0 0 2.37017e-18 2.64273e-07 0 0 0 -1.32136e-07)
(-1.32133e-07 0 0 2.62623e-18 2.64267e-07 0 0 0 -1.32133e-07)
(-1.32091e-07 0 0 2.1315e-18 2.64181e-07 0 0 0 -1.32091e-07)
(-1.32002e-07 0 0 2.16081e-18 2.64003e-07 0 0 0 -1.32002e-07)
(-1.31862e-07 0 0 2.70552e-18 2.63723e-07 0 0 0 -1.31862e-07)
(-1.31669e-07 0 0 2.49389e-18 2.63338e-07 0 0 0 -1.31669e-07)
(-1.31423e-07 0 0 2.49723e-18 2.62846e-07 0 0 0 -1.31423e-07)
(-1.31121e-07 0 0 2.73497e-18 2.62242e-07 0 0 0 -1.31121e-07)
(-1.30765e-07 0 0 2.39535e-18 2.6153e-07 0 0 0 -1.30765e-07)
(-1.3036e-07 0 0 2.04632e-18 2.60719e-07 0 0 0 -1.3036e-07)
(-1.29911e-07 0 0 2.25546e-18 2.59822e-07 0 0 0 -1.29911e-07)
(-1.29429e-07 0 0 2.21251e-18 2.58858e-07 0 0 0 -1.29429e-07)
(-1.28935e-07 0 0 2.15799e-18 2.57871e-07 0 0 0 -1.28935e-07)
(-1.28462e-07 0 0 2.09287e-18 2.56924e-07 0 0 0 -1.28462e-07)
(-1.28046e-07 0 0 2.01713e-18 2.56093e-07 0 0 0 -1.28046e-07)
(-1.27725e-07 0 0 1.93084e-18 2.55451e-07 0 0 0 -1.27725e-07)
(-1.27522e-07 0 0 1.8342e-18 2.55044e-07 0 0 0 -1.27522e-07)
(-1.27426e-07 0 0 1.72755e-18 2.54852e-07 0 0 0 -1.27426e-07)
(-1.27369e-07 0 0 1.61133e-18 2.54739e-07 0 0 0 -1.27369e-07)
(-1.27224e-07 0 0 1.48612e-18 2.54448e-07 0 0 0 -1.27224e-07)
(-1.26713e-07 0 0 1.35265e-18 2.53427e-07 0 0 0 -1.26713e-07)
(-1.25039e-07 0 0 1.21458e-18 2.50079e-07 0 0 0 -1.25039e-07)
(-1.21588e-07 0 0 1.66638e-18 2.43177e-07 0 0 0 -1.21588e-07)
(-1.2124e-07 0 0 7.51379e-19 2.4248e-07 0 0 0 -1.2124e-07)
(-1.38066e-07 0 0 -1.66833e-19 2.76132e-07 0 0 0 -1.38066e-07)
(-7.04658e-08 0 0 2.71533e-19 1.40932e-07 0 0 0 -7.04658e-08)
(2.99745e-06 0 0 1.43421e-19 -5.99491e-06 0 0 0 2.99745e-06)
(-2.98127e-07 0 0 5.88408e-19 5.96254e-07 0 0 0 -2.98127e-07)
(9.66392e-06 0 0 2.88005e-17 -1.93278e-05 0 0 0 9.66392e-06)
(-2.16406e-05 0 0 3.7359e-17 4.32812e-05 0 0 0 -2.16406e-05)
(-5.1961e-06 0 0 4.49566e-17 1.03922e-05 0 0 0 -5.1961e-06)
(2.52909e-05 0 0 4.40752e-17 -5.05817e-05 0 0 0 2.52909e-05)
(1.49879e-06 0 0 4.23374e-17 -2.99758e-06 0 0 0 1.49879e-06)
(-1.96024e-06 0 0 4.00785e-17 3.92047e-06 0 0 0 -1.96024e-06)
(-1.99521e-07 0 0 3.73245e-17 3.99043e-07 0 0 0 -1.99521e-07)
(1.4856e-07 0 0 3.41077e-17 -2.9712e-07 0 0 0 1.4856e-07)
(2.20713e-08 0 0 3.04674e-17 -4.41425e-08 0 0 0 2.20713e-08)
(-1.09814e-08 0 0 2.64491e-17 2.19628e-08 0 0 0 -1.09814e-08)
(-2.26154e-09 0 0 2.21039e-17 4.52308e-09 0 0 0 -2.26154e-09)
(7.83839e-10 0 0 1.74871e-17 -1.56768e-09 0 0 0 7.83839e-10)
(2.1854e-10 0 0 1.26571e-17 -4.37081e-10 0 0 0 2.1854e-10)
(-5.30367e-11 0 0 7.6745e-18 1.06073e-10 0 0 0 -5.30367e-11)
(-2.01204e-11 0 0 2.60056e-18 4.02409e-11 0 0 0 -2.01204e-11)
(3.1206e-12 0 0 -2.50335e-18 -6.24119e-12 0 0 0 3.1206e-12)
(1.67565e-12 0 0 -7.5768e-18 -3.3513e-12 0 0 0 1.67565e-12)
(4.43516e-14 0 0 -1.25609e-17 -8.87032e-14 0 0 0 4.43516e-14)
(4.25896e-13 0 0 -1.73991e-17 -8.51791e-13 0 0 0 4.25896e-13)
(9.16567e-13 0 0 -2.20373e-17 -1.83313e-12 0 0 0 9.16567e-13)
(1.11411e-12 0 0 -2.64249e-17 -2.22822e-12 0 0 0 1.11411e-12)
(9.69416e-13 0 0 -3.05144e-17 -1.93883e-12 0 0 0 9.69416e-13)
(6.11578e-13 0 0 -3.42626e-17 -1.22316e-12 0 0 0 6.11578e-13)
(3.57825e-13 0 0 -3.76302e-17 -7.15649e-13 0 0 0 3.57825e-13)
(3.6985e-13 0 0 -4.05826e-17 -7.397e-13 0 0 0 3.6985e-13)
(5.90875e-13 0 0 -4.30896e-17 -1.18175e-12 0 0 0 5.90875e-13)
(6.96459e-13 0 0 -4.51259e-17 -1.39292e-12 0 0 0 6.96459e-13)
(-3.06927e-13 0 0 -4.66711e-17 6.13854e-13 0 0 0 -3.06927e-13)
(-6.10012e-13 0 0 -4.771e-17 1.22002e-12 0 0 0 -6.10012e-13)
(1.63886e-11 0 0 -4.82702e-17 -3.27772e-11 0 0 0 1.63886e-11)
)
;

boundaryField
{
    inlet
    {
        type            cyclic;
    }
    outlet
    {
        type            cyclic;
    }
    top
    {
        type            extrapolatedCalculated;
        value           uniform (3.2721e-11 0 0 -4.84391e-17 -6.5442e-11 0 0 0 3.2721e-11);
    }
    bottom
    {
        type            extrapolatedCalculated;
        value           uniform (-9.68164e-08 0 0 5.86617e-19 1.93633e-07 0 0 0 -9.68164e-08);
    }
    frontAndBackPlanes
    {
        type            empty;
    }
}


// ************************************************************************* //
