/*--------------------------------*- C++ -*----------------------------------*\
| =========                 |                                                 |
| \\      /  F ield         | OpenFOAM: The Open Source CFD Toolbox           |
|  \\    /   O peration     | Version:  v2006                                 |
|   \\  /    A nd           | Website:  www.openfoam.com                      |
|    \\/     M anipulation  |                                                 |
\*---------------------------------------------------------------------------*/
FoamFile
{
    version     2.0;
    format      ascii;
    class       volVectorField;
    location    "1440";
    object      Ua;
}
// * * * * * * * * * * * * * * * * * * * * * * * * * * * * * * * * * * * * * //

dimensions      [0 1 -1 0 0 0 0];


internalField   nonuniform List<vector> 
120
(
(2.93367e-21 -9.65175e-10 0)
(8.80636e-21 -2.9066e-09 0)
(1.46915e-20 -4.87366e-09 0)
(2.04961e-20 -6.86303e-09 0)
(2.63297e-20 -8.8734e-09 0)
(3.22008e-20 -1.09045e-08 0)
(3.81178e-20 -1.29558e-08 0)
(4.38862e-20 -1.50268e-08 0)
(4.97173e-20 -1.71171e-08 0)
(5.58222e-20 -1.92261e-08 0)
(6.20068e-20 -2.13533e-08 0)
(6.82798e-20 -2.34983e-08 0)
(7.48525e-20 -2.56605e-08 0)
(8.1531e-20 -2.78394e-08 0)
(8.83243e-20 -3.00347e-08 0)
(9.52412e-20 -3.22459e-08 0)
(1.02291e-19 -3.44727e-08 0)
(1.09483e-19 -3.67146e-08 0)
(1.16827e-19 -3.89713e-08 0)
(1.24331e-19 -4.12426e-08 0)
(1.32007e-19 -4.35282e-08 0)
(1.39864e-19 -4.58279e-08 0)
(1.47912e-19 -4.81415e-08 0)
(1.56161e-19 -5.04688e-08 0)
(1.65435e-19 -5.28098e-08 0)
(1.74933e-19 -5.51644e-08 0)
(1.84666e-19 -5.75326e-08 0)
(1.94241e-19 -5.99142e-08 0)
(2.04074e-19 -6.23094e-08 0)
(2.1418e-19 -6.47181e-08 0)
(2.23758e-19 -6.71405e-08 0)
(2.32821e-19 -6.95764e-08 0)
(2.42197e-19 -7.2026e-08 0)
(2.51899e-19 -7.44894e-08 0)
(2.61942e-19 -7.69666e-08 0)
(2.72335e-19 -7.94575e-08 0)
(2.83913e-19 -8.19623e-08 0)
(2.96698e-19 -8.4481e-08 0)
(3.09074e-19 -8.70134e-08 0)
(3.22685e-19 -8.95597e-08 0)
(3.35105e-19 -9.21197e-08 0)
(3.48794e-19 -9.46933e-08 0)
(3.62141e-19 -9.72805e-08 0)
(3.75976e-19 -9.9881e-08 0)
(3.90317e-19 -1.02495e-07 0)
(4.05994e-19 -1.05121e-07 0)
(4.20579e-19 -1.07761e-07 0)
(4.35715e-19 -1.10413e-07 0)
(4.50601e-19 -1.13077e-07 0)
(4.67695e-19 -1.15754e-07 0)
(4.85377e-19 -1.18442e-07 0)
(5.03655e-19 -1.21141e-07 0)
(5.22535e-19 -1.23852e-07 0)
(5.42021e-19 -1.26573e-07 0)
(5.62112e-19 -1.29305e-07 0)
(5.83621e-19 -1.32047e-07 0)
(6.05725e-19 -1.34799e-07 0)
(6.2841e-19 -1.3756e-07 0)
(6.51673e-19 -1.40331e-07 0)
(6.7385e-19 -1.4311e-07 0)
(6.96532e-19 -1.45897e-07 0)
(7.19701e-19 -1.48693e-07 0)
(7.43315e-19 -1.51497e-07 0)
(7.6733e-19 -1.54308e-07 0)
(7.91695e-19 -1.57125e-07 0)
(8.14719e-19 -1.5995e-07 0)
(8.39602e-19 -1.62781e-07 0)
(8.64641e-19 -1.65617e-07 0)
(8.89759e-19 -1.68459e-07 0)
(9.14873e-19 -1.71307e-07 0)
(9.39894e-19 -1.74158e-07 0)
(9.63097e-19 -1.77015e-07 0)
(9.86014e-19 -1.79876e-07 0)
(1.00855e-18 -1.82742e-07 0)
(1.03059e-18 -1.85614e-07 0)
(1.05203e-18 -1.88495e-07 0)
(1.07277e-18 -1.91386e-07 0)
(1.0927e-18 -1.94292e-07 0)
(1.11171e-18 -1.9722e-07 0)
(1.1297e-18 -2.00176e-07 0)
(1.14658e-18 -2.03168e-07 0)
(1.16223e-18 -2.06204e-07 0)
(1.17659e-18 -2.09288e-07 0)
(1.18957e-18 -2.12425e-07 0)
(1.20109e-18 -2.15639e-07 0)
(1.2111e-18 -2.18933e-07 0)
(1.2163e-18 -2.22019e-07 0)
(1.2199e-18 -2.24701e-07 0)
(1.22186e-18 -2.31123e-07 0)
(1.22276e-18 -2.62573e-07 0)
(1.2237e-18 -4.02061e-07 0)
(1.93608e-18 -5.89129e-05 0)
(3.06268e-18 -0.000131498 0)
(4.18481e-18 -0.000193112 0)
(5.26927e-18 -0.000228701 0)
(6.30286e-18 -0.000228569 0)
(7.27346e-18 -0.000228523 0)
(8.16929e-18 -0.000228543 0)
(8.97904e-18 -0.000228548 0)
(9.69284e-18 -0.000228546 0)
(1.03016e-17 -0.000228546 0)
(1.07982e-17 -0.000228546 0)
(1.11761e-17 -0.000228546 0)
(1.14311e-17 -0.000228546 0)
(1.15599e-17 -0.000228546 0)
(1.15611e-17 -0.000228546 0)
(1.14346e-17 -0.000228546 0)
(1.11822e-17 -0.000228546 0)
(1.08065e-17 -0.000228546 0)
(1.0312e-17 -0.000228546 0)
(9.70446e-18 -0.000228546 0)
(8.99061e-18 -0.000228546 0)
(8.17848e-18 -0.000228546 0)
(7.27729e-18 -0.000228546 0)
(6.29675e-18 -0.000228546 0)
(5.24784e-18 -0.000228546 0)
(4.14198e-18 -0.000228546 0)
(2.99124e-18 -0.000228518 0)
(1.80812e-18 -0.000228481 0)
(6.05499e-19 -0.000228045 0)
)
;

boundaryField
{
    inlet
    {
        type            cyclic;
    }
    outlet
    {
        type            cyclic;
    }
    top
    {
        type            fixedValue;
        value           uniform (0 0 0);
    }
    bottom
    {
        type            fixedValue;
        value           uniform (0 0 0);
    }
    frontAndBackPlanes
    {
        type            empty;
    }
}


// ************************************************************************* //
