/*--------------------------------*- C++ -*----------------------------------*\
| =========                 |                                                 |
| \\      /  F ield         | OpenFOAM: The Open Source CFD Toolbox           |
|  \\    /   O peration     | Version:  v2006                                 |
|   \\  /    A nd           | Website:  www.openfoam.com                      |
|    \\/     M anipulation  |                                                 |
\*---------------------------------------------------------------------------*/
FoamFile
{
    version     2.0;
    format      ascii;
    class       volVectorField;
    location    "1440";
    object      Ub;
}
// * * * * * * * * * * * * * * * * * * * * * * * * * * * * * * * * * * * * * //

dimensions      [0 1 -1 0 0 0 0];


internalField   nonuniform List<vector> 
120
(
(2.93367e-21 1.45253e-09 0)
(8.8064e-21 4.37214e-09 0)
(1.46998e-20 7.31879e-09 0)
(2.04961e-20 1.02977e-08 0)
(2.63297e-20 1.33074e-08 0)
(3.2201e-20 1.63469e-08 0)
(3.81634e-20 1.94154e-08 0)
(4.38861e-20 2.25121e-08 0)
(4.96568e-20 2.56362e-08 0)
(5.58219e-20 2.87869e-08 0)
(6.20065e-20 3.19634e-08 0)
(6.81964e-20 3.51649e-08 0)
(7.48521e-20 3.83906e-08 0)
(8.1531e-20 4.16397e-08 0)
(8.83243e-20 4.49117e-08 0)
(9.52412e-20 4.82058e-08 0)
(1.02291e-19 5.15215e-08 0)
(1.09483e-19 5.48581e-08 0)
(1.16827e-19 5.8215e-08 0)
(1.24331e-19 6.15918e-08 0)
(1.32007e-19 6.49881e-08 0)
(1.39864e-19 6.84034e-08 0)
(1.47908e-19 7.18374e-08 0)
(1.55442e-19 7.52899e-08 0)
(1.65432e-19 7.87607e-08 0)
(1.74935e-19 8.22497e-08 0)
(1.85076e-19 8.57565e-08 0)
(1.94242e-19 8.92812e-08 0)
(2.04078e-19 9.28236e-08 0)
(2.15106e-19 9.63837e-08 0)
(2.24718e-19 9.99614e-08 0)
(2.32825e-19 1.03557e-07 0)
(2.42197e-19 1.0717e-07 0)
(2.51899e-19 1.10801e-07 0)
(2.61937e-19 1.14449e-07 0)
(2.71198e-19 1.18115e-07 0)
(2.82746e-19 1.21799e-07 0)
(2.9789e-19 1.255e-07 0)
(3.07852e-19 1.29218e-07 0)
(3.25223e-19 1.32953e-07 0)
(3.33811e-19 1.36705e-07 0)
(3.50136e-19 1.40474e-07 0)
(3.62147e-19 1.44259e-07 0)
(3.7597e-19 1.4806e-07 0)
(3.88873e-19 1.51876e-07 0)
(4.08978e-19 1.55707e-07 0)
(4.20599e-19 1.59553e-07 0)
(4.3727e-19 1.63413e-07 0)
(4.47394e-19 1.67287e-07 0)
(4.67681e-19 1.71173e-07 0)
(4.85377e-19 1.75072e-07 0)
(5.03655e-19 1.78982e-07 0)
(5.22535e-19 1.82903e-07 0)
(5.42013e-19 1.86834e-07 0)
(5.60277e-19 1.90774e-07 0)
(5.83613e-19 1.94723e-07 0)
(6.05725e-19 1.9868e-07 0)
(6.28428e-19 2.02644e-07 0)
(6.55653e-19 2.06613e-07 0)
(6.73868e-19 2.10588e-07 0)
(6.96532e-19 2.14567e-07 0)
(7.19701e-19 2.18549e-07 0)
(7.43315e-19 2.22533e-07 0)
(7.6735e-19 2.26519e-07 0)
(7.9612e-19 2.30504e-07 0)
(8.10215e-19 2.34488e-07 0)
(8.39581e-19 2.38469e-07 0)
(8.64641e-19 2.42446e-07 0)
(8.89759e-19 2.46416e-07 0)
(9.14896e-19 2.5038e-07 0)
(9.44809e-19 2.54334e-07 0)
(9.63119e-19 2.58278e-07 0)
(9.86014e-19 2.62209e-07 0)
(1.00855e-18 2.66127e-07 0)
(1.03059e-18 2.70031e-07 0)
(1.05203e-18 2.73921e-07 0)
(1.07277e-18 2.77799e-07 0)
(1.0927e-18 2.81666e-07 0)
(1.11171e-18 2.85527e-07 0)
(1.1297e-18 2.89384e-07 0)
(1.14658e-18 2.93242e-07 0)
(1.16223e-18 2.97099e-07 0)
(1.17659e-18 3.00951e-07 0)
(1.18957e-18 3.0478e-07 0)
(1.20115e-18 3.08535e-07 0)
(1.22328e-18 3.12159e-07 0)
(1.21636e-18 3.15898e-07 0)
(1.2199e-18 3.20551e-07 0)
(1.22187e-18 3.20186e-07 0)
(1.22281e-18 1.37866e-07 0)
(1.23386e-18 3.38412e-07 0)
(1.9375e-18 -5.81573e-07 0)
(3.06514e-18 3.52078e-06 0)
(4.18555e-18 1.97918e-07 0)
(5.26917e-18 -2.73321e-07 0)
(6.30269e-18 -2.69285e-08 0)
(7.27335e-18 2.07511e-08 0)
(8.16915e-18 3.00346e-09 0)
(8.97895e-18 -1.5357e-09 0)
(9.6927e-18 -3.07637e-10 0)
(1.03016e-17 1.11719e-10 0)
(1.0798e-17 3.16365e-11 0)
(1.1176e-17 -5.87108e-12 0)
(1.1431e-17 -1.14864e-12 0)
(1.15598e-17 2.08542e-12 0)
(1.1561e-17 1.8698e-12 0)
(1.14346e-17 1.61727e-12 0)
(1.11821e-17 1.61842e-12 0)
(1.08065e-17 1.61061e-12 0)
(1.03121e-17 1.55453e-12 0)
(9.7045e-18 1.47311e-12 0)
(8.99066e-18 1.38739e-12 0)
(8.17859e-18 1.32768e-12 0)
(7.27732e-18 1.29564e-12 0)
(6.29684e-18 1.274e-12 0)
(5.24794e-18 1.24016e-12 0)
(4.14209e-18 1.18536e-12 0)
(2.99136e-18 1.13568e-12 0)
(1.80825e-18 1.2314e-12 0)
(6.05565e-19 1.22719e-12 0)
)
;

boundaryField
{
    inlet
    {
        type            cyclic;
    }
    outlet
    {
        type            cyclic;
    }
    top
    {
        type            fixedValue;
        value           uniform (0 0 0);
    }
    bottom
    {
        type            fixedValue;
        value           uniform (0 0 0);
    }
    frontAndBackPlanes
    {
        type            empty;
    }
}


// ************************************************************************* //
