/*--------------------------------*- C++ -*----------------------------------*\
| =========                 |                                                 |
| \\      /  F ield         | OpenFOAM: The Open Source CFD Toolbox           |
|  \\    /   O peration     | Version:  2206                                  |
|   \\  /    A nd           | Website:  www.openfoam.com                      |
|    \\/     M anipulation  |                                                 |
\*---------------------------------------------------------------------------*/
FoamFile
{
    version     2.0;
    format      ascii;
    arch        "LSB;label=32;scalar=64";
    class       volScalarField;
    location    "1620";
    object      pff;
}
// * * * * * * * * * * * * * * * * * * * * * * * * * * * * * * * * * * * * * //

dimensions      [1 -1 -2 0 0 0 0];

internalField   nonuniform List<scalar> 
120
(
26.3595
25.826
25.8265
25.2489
25.2322
24.6664
24.638
24.0841
24.0439
23.502
23.45
22.9202
22.8561
22.3385
22.2624
21.7571
21.6688
21.1759
21.0755
20.5949
20.4823
20.014
19.8893
19.4333
19.2966
18.8527
18.7042
18.2723
18.1121
17.6919
17.5203
17.1116
16.929
16.5313
16.3381
15.9511
15.7476
15.3709
15.1577
14.7906
14.5683
14.2104
13.9795
13.6301
13.3912
13.0498
12.8036
12.4694
12.2166
11.8891
11.6303
11.3087
11.0446
10.7284
10.4596
10.1482
9.8752
9.56796
9.29151
8.98785
8.70847
8.40788
8.12608
7.82807
7.54431
7.24845
6.96315
6.66906
6.38258
6.08991
5.80257
5.51103
5.22314
4.93242
4.64431
4.35406
4.06619
3.77587
3.48904
3.19765
2.91335
2.61897
2.34003
2.03898
1.77068
1.45628
1.20762
0.869472
0.651641
0.268865
0
0
0
0
0
0
0
0
0
0
0
0
0
0
0
0
0
0
0
0
0
0
0
0
0
0
0
0
0
0
)
;

boundaryField
{
    inlet
    {
        type            cyclic;
    }
    outlet
    {
        type            cyclic;
    }
    top
    {
        type            calculated;
        value           uniform 0;
    }
    bottom
    {
        type            calculated;
        value           uniform 26.3595;
    }
    frontAndBackPlanes
    {
        type            empty;
    }
}


// ************************************************************************* //
