/*--------------------------------*- C++ -*----------------------------------*\
| =========                 |                                                 |
| \\      /  F ield         | OpenFOAM: The Open Source CFD Toolbox           |
|  \\    /   O peration     | Version:  2206                                  |
|   \\  /    A nd           | Website:  www.openfoam.com                      |
|    \\/     M anipulation  |                                                 |
\*---------------------------------------------------------------------------*/
FoamFile
{
    version     2.0;
    format      ascii;
    arch        "LSB;label=32;scalar=64";
    class       surfaceScalarField;
    location    "1620";
    object      phi.a;
}
// * * * * * * * * * * * * * * * * * * * * * * * * * * * * * * * * * * * * * //

dimensions      [0 3 -1 0 0 0 0];

oriented        oriented;

internalField   nonuniform List<scalar> 
119
(
-5.59792e-17
-1.13498e-16
-1.70637e-16
-2.294e-16
-2.87758e-16
-3.47833e-16
-4.0744e-16
-4.68786e-16
-5.2967e-16
-5.92247e-16
-6.5444e-16
-7.18205e-16
-7.81742e-16
-8.46656e-16
-9.11575e-16
-9.77597e-16
-1.04394e-15
-1.11104e-15
-1.17885e-15
-1.247e-15
-1.31632e-15
-1.3855e-15
-1.45638e-15
-1.52659e-15
-1.59909e-15
-1.67034e-15
-1.74451e-15
-1.81685e-15
-1.89275e-15
-1.96622e-15
-2.04391e-15
-2.11859e-15
-2.19814e-15
-2.27412e-15
-2.3556e-15
-2.43302e-15
-2.51654e-15
-2.59557e-15
-2.68128e-15
-2.76214e-15
-2.85019e-15
-2.93314e-15
-3.02373e-15
-3.10905e-15
-3.20241e-15
-3.29042e-15
-3.38676e-15
-3.4778e-15
-3.57735e-15
-3.67173e-15
-3.77471e-15
-3.87271e-15
-3.97928e-15
-4.08111e-15
-4.19132e-15
-4.29707e-15
-4.41087e-15
-4.52048e-15
-4.63763e-15
-4.75082e-15
-4.87084e-15
-4.98705e-15
-5.10917e-15
-5.22749e-15
-5.35056e-15
-5.46959e-15
-5.59197e-15
-5.70977e-15
-5.82931e-15
-5.94331e-15
-6.05737e-15
-6.1644e-15
-6.27018e-15
-6.36673e-15
-6.46183e-15
-6.54446e-15
-6.62799e-15
-6.6939e-15
-6.76794e-15
-6.81549e-15
-6.88659e-15
-6.915e-15
-6.99513e-15
-7.00528e-15
-7.11408e-15
-7.12566e-15
-7.29143e-15
-7.43723e-15
-7.55063e-15
-1.64765e-14
-2.26125e-12
-2.24272e-11
-5.27851e-11
-7.17274e-11
-7.89128e-11
-8.08217e-11
-8.14967e-11
-8.17953e-11
-8.19258e-11
-8.19771e-11
-8.19974e-11
-8.20069e-11
-8.20122e-11
-8.20152e-11
-8.20168e-11
-8.20175e-11
-8.20179e-11
-8.2018e-11
-8.20181e-11
-8.20182e-11
-8.20182e-11
-8.20182e-11
-8.20181e-11
-8.2018e-11
-8.20177e-11
-8.20168e-11
-8.20123e-11
-8.19739e-11
-8.12562e-11
)
;

boundaryField
{
    inlet
    {
        type            cyclic;
        value           nonuniform List<scalar> 
120
(
-3.97371e-27
-1.19275e-26
-1.98964e-26
-2.78901e-26
-3.59189e-26
-4.39926e-26
-5.21213e-26
-6.03149e-26
-6.85833e-26
-7.69367e-26
-8.53849e-26
-9.39377e-26
-1.02605e-25
-1.11397e-25
-1.20323e-25
-1.29393e-25
-1.38616e-25
-1.48002e-25
-1.57561e-25
-1.67301e-25
-1.77233e-25
-1.87364e-25
-1.97703e-25
-2.08259e-25
-2.19041e-25
-2.30055e-25
-2.4131e-25
-2.52813e-25
-2.64569e-25
-2.76586e-25
-2.88868e-25
-3.01421e-25
-3.14249e-25
-3.27356e-25
-3.40746e-25
-3.54419e-25
-3.68043e-25
-3.81952e-25
-3.96146e-25
-4.10623e-25
-4.25379e-25
-4.4041e-25
-4.55711e-25
-4.71274e-25
-4.87092e-25
-5.03157e-25
-5.19453e-25
-5.35971e-25
-5.52695e-25
-5.69613e-25
-5.86705e-25
-6.03952e-25
-6.21334e-25
-6.38829e-25
-6.56412e-25
-6.7406e-25
-6.91743e-25
-7.09432e-25
-7.27075e-25
-7.44919e-25
-7.62654e-25
-7.80267e-25
-7.97728e-25
-8.15003e-25
-8.32054e-25
-8.48843e-25
-8.65339e-25
-8.81501e-25
-8.97293e-25
-9.12676e-25
-9.27613e-25
-9.42063e-25
-9.55995e-25
-9.69372e-25
-9.82161e-25
-9.94327e-25
-1.00584e-24
-1.01666e-24
-1.02678e-24
-1.03615e-24
-1.04476e-24
-1.05258e-24
-1.05959e-24
-1.06577e-24
-1.07111e-24
-1.0756e-24
-1.0792e-24
-1.08193e-24
-1.08377e-24
-1.08472e-24
-1.08508e-24
-1.07549e-24
-9.79677e-25
-6.63389e-25
-4.25764e-25
-3.0601e-25
-2.42392e-25
-2.039e-25
-1.82162e-25
-1.71996e-25
-1.67593e-25
-1.65407e-25
-1.64098e-25
-1.63263e-25
-1.62772e-25
-1.62517e-25
-1.62388e-25
-1.62317e-25
-1.62271e-25
-1.62237e-25
-1.62212e-25
-1.62193e-25
-1.62178e-25
-1.62167e-25
-1.62158e-25
-1.6215e-25
-1.62135e-25
-1.62066e-25
-1.6152e-25
-1.54004e-25
)
;
    }
    outlet
    {
        type            cyclic;
        value           nonuniform List<scalar> 
120
(
3.97371e-27
1.19275e-26
1.98964e-26
2.78901e-26
3.59189e-26
4.39926e-26
5.21213e-26
6.03149e-26
6.85833e-26
7.69367e-26
8.53849e-26
9.39377e-26
1.02605e-25
1.11397e-25
1.20323e-25
1.29393e-25
1.38616e-25
1.48002e-25
1.57561e-25
1.67301e-25
1.77233e-25
1.87364e-25
1.97703e-25
2.08259e-25
2.19041e-25
2.30055e-25
2.4131e-25
2.52813e-25
2.64569e-25
2.76586e-25
2.88868e-25
3.01421e-25
3.14249e-25
3.27356e-25
3.40746e-25
3.54419e-25
3.68043e-25
3.81952e-25
3.96146e-25
4.10623e-25
4.25379e-25
4.4041e-25
4.55711e-25
4.71274e-25
4.87092e-25
5.03157e-25
5.19453e-25
5.35971e-25
5.52695e-25
5.69613e-25
5.86705e-25
6.03952e-25
6.21334e-25
6.38829e-25
6.56412e-25
6.7406e-25
6.91743e-25
7.09432e-25
7.27075e-25
7.44919e-25
7.62654e-25
7.80267e-25
7.97728e-25
8.15003e-25
8.32054e-25
8.48843e-25
8.65339e-25
8.81501e-25
8.97293e-25
9.12676e-25
9.27613e-25
9.42063e-25
9.55995e-25
9.69372e-25
9.82161e-25
9.94327e-25
1.00584e-24
1.01666e-24
1.02678e-24
1.03615e-24
1.04476e-24
1.05258e-24
1.05959e-24
1.06577e-24
1.07111e-24
1.0756e-24
1.0792e-24
1.08193e-24
1.08377e-24
1.08472e-24
1.08508e-24
1.07549e-24
9.79677e-25
6.63389e-25
4.25764e-25
3.0601e-25
2.42392e-25
2.039e-25
1.82162e-25
1.71996e-25
1.67593e-25
1.65407e-25
1.64098e-25
1.63263e-25
1.62772e-25
1.62517e-25
1.62388e-25
1.62317e-25
1.62271e-25
1.62237e-25
1.62212e-25
1.62193e-25
1.62178e-25
1.62167e-25
1.62158e-25
1.6215e-25
1.62135e-25
1.62066e-25
1.6152e-25
1.54004e-25
)
;
    }
    top
    {
        type            fixedValue;
        value           uniform 0;
    }
    bottom
    {
        type            fixedValue;
        value           uniform 0;
    }
    frontAndBackPlanes
    {
        type            empty;
        value           nonuniform List<scalar> 0();
    }
}


// ************************************************************************* //
