/*--------------------------------*- C++ -*----------------------------------*\
| =========                 |                                                 |
| \\      /  F ield         | OpenFOAM: The Open Source CFD Toolbox           |
|  \\    /   O peration     | Version:  2206                                  |
|   \\  /    A nd           | Website:  www.openfoam.com                      |
|    \\/     M anipulation  |                                                 |
\*---------------------------------------------------------------------------*/
FoamFile
{
    version     2.0;
    format      ascii;
    arch        "LSB;label=32;scalar=64";
    class       surfaceScalarField;
    location    "1620";
    object      phi.b;
}
// * * * * * * * * * * * * * * * * * * * * * * * * * * * * * * * * * * * * * //

dimensions      [0 3 -1 0 0 0 0];

oriented        oriented;

internalField   nonuniform List<scalar> 
119
(
8.39913e-17
1.70262e-16
2.55927e-16
3.4399e-16
4.31412e-16
5.21373e-16
6.10601e-16
7.02391e-16
7.93444e-16
8.86987e-16
9.79917e-16
1.07516e-15
1.17002e-15
1.26689e-15
1.36373e-15
1.46216e-15
1.56102e-15
1.66095e-15
1.76191e-15
1.8633e-15
1.96641e-15
2.06922e-15
2.17454e-15
2.27878e-15
2.38638e-15
2.49205e-15
2.602e-15
2.70915e-15
2.82154e-15
2.93023e-15
3.04514e-15
3.15547e-15
3.27297e-15
3.38508e-15
3.50529e-15
3.61935e-15
3.74241e-15
3.85867e-15
3.98477e-15
4.10354e-15
4.2329e-15
4.35455e-15
4.48744e-15
4.61236e-15
4.74908e-15
4.87773e-15
5.01858e-15
5.15141e-15
5.29672e-15
5.43416e-15
5.58419e-15
5.72664e-15
5.88157e-15
6.02928e-15
6.18916e-15
6.34221e-15
6.5069e-15
6.66513e-15
6.83421e-15
6.99716e-15
7.16987e-15
7.33662e-15
7.51172e-15
7.68083e-15
7.85654e-15
8.02588e-15
8.19969e-15
8.36629e-15
8.53491e-15
8.69486e-15
8.85431e-15
9.00284e-15
9.14884e-15
9.28064e-15
9.40952e-15
9.51935e-15
9.62954e-15
9.71308e-15
9.80719e-15
9.86161e-15
9.94843e-15
9.97193e-15
1.00674e-14
1.00599e-14
1.01895e-14
1.01762e-14
1.03729e-14
1.05329e-14
1.0609e-14
1.55493e-14
5.45055e-13
2.11486e-15
1.05236e-16
1.80734e-19
1.9454e-21
-4.25941e-21
-1.20485e-20
-1.10497e-20
-7.03759e-21
-9.78987e-21
-9.81805e-21
-2.35415e-21
-4.34541e-21
-1.42583e-20
-1.02707e-20
-7.89289e-21
-1.92492e-20
-1.41708e-20
-1.41103e-20
-2.08275e-20
-4.6662e-21
-1.43083e-20
-1.59216e-20
-8.48361e-21
-2.2764e-20
-1.98831e-20
-2.19437e-20
-1.90246e-20
-1.00569e-20
)
;

boundaryField
{
    inlet
    {
        type            cyclic;
        value           nonuniform List<scalar> 
120
(
-3.97372e-27
-1.19275e-26
-1.98966e-26
-2.78901e-26
-3.59189e-26
-4.39926e-26
-5.21224e-26
-6.03149e-26
-6.85819e-26
-7.69367e-26
-8.53848e-26
-9.39356e-26
-1.02605e-25
-1.11397e-25
-1.20323e-25
-1.29393e-25
-1.38616e-25
-1.48002e-25
-1.57561e-25
-1.67301e-25
-1.77233e-25
-1.87363e-25
-1.97703e-25
-2.08241e-25
-2.19041e-25
-2.30055e-25
-2.41321e-25
-2.52813e-25
-2.64569e-25
-2.76609e-25
-2.88892e-25
-3.01421e-25
-3.14249e-25
-3.27356e-25
-3.40746e-25
-3.54389e-25
-3.68013e-25
-3.81983e-25
-3.96115e-25
-4.10688e-25
-4.25346e-25
-4.40444e-25
-4.55711e-25
-4.71274e-25
-4.87055e-25
-5.03234e-25
-5.19454e-25
-5.36011e-25
-5.52611e-25
-5.69612e-25
-5.86705e-25
-6.03952e-25
-6.21334e-25
-6.38828e-25
-6.56363e-25
-6.74059e-25
-6.91743e-25
-7.09432e-25
-7.27185e-25
-7.44919e-25
-7.62654e-25
-7.80267e-25
-7.97728e-25
-8.15003e-25
-8.32178e-25
-8.48716e-25
-8.65338e-25
-8.81501e-25
-8.97293e-25
-9.12676e-25
-9.27754e-25
-9.42064e-25
-9.55995e-25
-9.69372e-25
-9.82161e-25
-9.94327e-25
-1.00584e-24
-1.01667e-24
-1.02678e-24
-1.03615e-24
-1.04476e-24
-1.05258e-24
-1.05959e-24
-1.06577e-24
-1.07112e-24
-1.07593e-24
-1.0792e-24
-1.08193e-24
-1.08377e-24
-1.08472e-24
-1.08492e-24
-1.07576e-24
-1.05563e-24
-1.03477e-24
-1.01306e-24
-9.90355e-25
-9.66547e-25
-9.41527e-25
-9.15193e-25
-8.87457e-25
-8.58242e-25
-8.27484e-25
-7.95132e-25
-7.61152e-25
-7.25523e-25
-6.8824e-25
-6.49316e-25
-6.08777e-25
-5.66668e-25
-5.23047e-25
-4.77988e-25
-4.3158e-25
-3.83925e-25
-3.35139e-25
-2.85346e-25
-2.34685e-25
-1.833e-25
-1.31345e-25
-7.89778e-26
-2.63618e-26
)
;
    }
    outlet
    {
        type            cyclic;
        value           nonuniform List<scalar> 
120
(
3.97372e-27
1.19275e-26
1.98966e-26
2.78901e-26
3.59189e-26
4.39926e-26
5.21224e-26
6.03149e-26
6.85819e-26
7.69367e-26
8.53848e-26
9.39356e-26
1.02605e-25
1.11397e-25
1.20323e-25
1.29393e-25
1.38616e-25
1.48002e-25
1.57561e-25
1.67301e-25
1.77233e-25
1.87363e-25
1.97703e-25
2.08241e-25
2.19041e-25
2.30055e-25
2.41321e-25
2.52813e-25
2.64569e-25
2.76609e-25
2.88892e-25
3.01421e-25
3.14249e-25
3.27356e-25
3.40746e-25
3.54389e-25
3.68013e-25
3.81983e-25
3.96115e-25
4.10688e-25
4.25346e-25
4.40444e-25
4.55711e-25
4.71274e-25
4.87055e-25
5.03234e-25
5.19454e-25
5.36011e-25
5.52611e-25
5.69612e-25
5.86705e-25
6.03952e-25
6.21334e-25
6.38828e-25
6.56363e-25
6.74059e-25
6.91743e-25
7.09432e-25
7.27185e-25
7.44919e-25
7.62654e-25
7.80267e-25
7.97728e-25
8.15003e-25
8.32178e-25
8.48716e-25
8.65338e-25
8.81501e-25
8.97293e-25
9.12676e-25
9.27754e-25
9.42064e-25
9.55995e-25
9.69372e-25
9.82161e-25
9.94327e-25
1.00584e-24
1.01667e-24
1.02678e-24
1.03615e-24
1.04476e-24
1.05258e-24
1.05959e-24
1.06577e-24
1.07112e-24
1.07593e-24
1.0792e-24
1.08193e-24
1.08377e-24
1.08472e-24
1.08492e-24
1.07576e-24
1.05563e-24
1.03477e-24
1.01306e-24
9.90355e-25
9.66547e-25
9.41527e-25
9.15193e-25
8.87457e-25
8.58242e-25
8.27484e-25
7.95132e-25
7.61152e-25
7.25523e-25
6.8824e-25
6.49316e-25
6.08777e-25
5.66668e-25
5.23047e-25
4.77988e-25
4.3158e-25
3.83925e-25
3.35139e-25
2.85346e-25
2.34685e-25
1.833e-25
1.31345e-25
7.89778e-26
2.63618e-26
)
;
    }
    top
    {
        type            fixedValue;
        value           uniform 0;
    }
    bottom
    {
        type            fixedValue;
        value           uniform 0;
    }
    frontAndBackPlanes
    {
        type            empty;
        value           nonuniform List<scalar> 0();
    }
}


// ************************************************************************* //
