/*--------------------------------*- C++ -*----------------------------------*\
| =========                 |                                                 |
| \\      /  F ield         | OpenFOAM: The Open Source CFD Toolbox           |
|  \\    /   O peration     | Version:  2206                                  |
|   \\  /    A nd           | Website:  www.openfoam.com                      |
|    \\/     M anipulation  |                                                 |
\*---------------------------------------------------------------------------*/
FoamFile
{
    version     2.0;
    format      ascii;
    arch        "LSB;label=32;scalar=64";
    class       volVectorField;
    location    "1620";
    object      U.a;
}
// * * * * * * * * * * * * * * * * * * * * * * * * * * * * * * * * * * * * * //

dimensions      [0 1 -1 0 0 0 0];

internalField   nonuniform List<vector> 
120
(
(1.32457e-20 1.55455e-08 0)
(3.97585e-20 1.11887e-10 0)
(6.63212e-20 -7.42691e-10 0)
(9.29671e-20 -2.05362e-10 0)
(1.1973e-19 -1.06911e-09 0)
(1.46642e-19 -5.29507e-10 0)
(1.73738e-19 -1.40291e-09 0)
(2.0105e-19 -8.60597e-10 0)
(2.28611e-19 -1.74379e-09 0)
(2.56456e-19 -1.19878e-09 0)
(2.84616e-19 -2.09149e-09 0)
(3.13126e-19 -1.54425e-09 0)
(3.42017e-19 -2.44579e-09 0)
(3.71323e-19 -1.89718e-09 0)
(4.01076e-19 -2.80646e-09 0)
(4.31309e-19 -2.25782e-09 0)
(4.62053e-19 -3.17327e-09 0)
(4.93341e-19 -2.62638e-09 0)
(5.25204e-19 -3.54604e-09 0)
(5.57672e-19 -3.00313e-09 0)
(5.90775e-19 -3.9246e-09 0)
(6.24545e-19 -3.3883e-09 0)
(6.59009e-19 -4.30886e-09 0)
(6.94197e-19 -3.78218e-09 0)
(7.30136e-19 -4.69882e-09 0)
(7.66851e-19 -4.18504e-09 0)
(8.04368e-19 -5.09456e-09 0)
(8.42709e-19 -4.59723e-09 0)
(8.81897e-19 -5.4963e-09 0)
(9.21954e-19 -5.01906e-09 0)
(9.62894e-19 -5.9043e-09 0)
(1.00474e-18 -5.45086e-09 0)
(1.0475e-18 -6.31897e-09 0)
(1.09119e-18 -5.893e-09 0)
(1.13582e-18 -6.74084e-09 0)
(1.1814e-18 -6.34594e-09 0)
(1.22681e-18 -7.17066e-09 0)
(1.27317e-18 -6.81027e-09 0)
(1.32049e-18 -7.6094e-09 0)
(1.36874e-18 -7.28674e-09 0)
(1.41793e-18 -8.05829e-09 0)
(1.46803e-18 -7.77627e-09 0)
(1.51904e-18 -8.51874e-09 0)
(1.57091e-18 -8.27993e-09 0)
(1.62364e-18 -8.99238e-09 0)
(1.67719e-18 -8.79892e-09 0)
(1.73151e-18 -9.48098e-09 0)
(1.78657e-18 -9.3345e-09 0)
(1.84232e-18 -9.98636e-09 0)
(1.89871e-18 -9.88797e-09 0)
(1.95568e-18 -1.05103e-08 0)
(2.01317e-18 -1.04605e-08 0)
(2.07111e-18 -1.10544e-08 0)
(2.12943e-18 -1.10529e-08 0)
(2.18804e-18 -1.16198e-08 0)
(2.24687e-18 -1.16655e-08 0)
(2.30581e-18 -1.22069e-08 0)
(2.36477e-18 -1.2298e-08 0)
(2.42358e-18 -1.28156e-08 0)
(2.48306e-18 -1.29491e-08 0)
(2.54218e-18 -1.34441e-08 0)
(2.60089e-18 -1.36162e-08 0)
(2.65909e-18 -1.40895e-08 0)
(2.71668e-18 -1.42949e-08 0)
(2.77351e-18 -1.47466e-08 0)
(2.82948e-18 -1.49789e-08 0)
(2.88446e-18 -1.54076e-08 0)
(2.93834e-18 -1.5659e-08 0)
(2.99098e-18 -1.60619e-08 0)
(3.04225e-18 -1.63233e-08 0)
(3.09204e-18 -1.66951e-08 0)
(3.14021e-18 -1.69572e-08 0)
(3.18665e-18 -1.72896e-08 0)
(3.23124e-18 -1.7545e-08 0)
(3.27387e-18 -1.78258e-08 0)
(3.31442e-18 -1.80737e-08 0)
(3.35279e-18 -1.82845e-08 0)
(3.38888e-18 -1.85382e-08 0)
(3.42259e-18 -1.865e-08 0)
(3.45384e-18 -1.89504e-08 0)
(3.48253e-18 -1.89129e-08 0)
(3.5086e-18 -1.9347e-08 0)
(3.53197e-18 -1.90685e-08 0)
(3.55258e-18 -1.97951e-08 0)
(3.57038e-18 -1.9121e-08 0)
(3.58533e-18 -2.04042e-08 0)
(3.59734e-18 -1.91797e-08 0)
(3.60643e-18 -2.1329e-08 0)
(3.61257e-18 -1.99941e-08 0)
(3.61573e-18 -2.21011e-08 0)
(3.61694e-18 -6.89003e-08 0)
(3.58497e-18 -1.02996e-05 0)
(3.26559e-18 -0.000109832 0)
(2.2113e-18 -0.000183311 0)
(1.41921e-18 -0.000215207 0)
(1.02003e-18 -0.0002232 0)
(8.07973e-19 -0.000225809 0)
(6.79666e-19 -0.00022695 0)
(6.07207e-19 -0.000227468 0)
(5.73321e-19 -0.000227675 0)
(5.58644e-19 -0.000227753 0)
(5.51358e-19 -0.000227788 0)
(5.46993e-19 -0.000227806 0)
(5.44209e-19 -0.000227817 0)
(5.42574e-19 -0.000227823 0)
(5.41722e-19 -0.000227826 0)
(5.41293e-19 -0.000227827 0)
(5.41055e-19 -0.000227828 0)
(5.40902e-19 -0.000227828 0)
(5.40792e-19 -0.000227828 0)
(5.40707e-19 -0.000227828 0)
(5.40643e-19 -0.000227828 0)
(5.40593e-19 -0.000227828 0)
(5.40556e-19 -0.000227828 0)
(5.40528e-19 -0.000227827 0)
(5.40501e-19 -0.000227826 0)
(5.40449e-19 -0.000227822 0)
(5.4022e-19 -0.000227802 0)
(5.384e-19 -0.000227609 0)
(5.13346e-19 -0.000223815 0)
)
;

boundaryField
{
    inlet
    {
        type            cyclic;
    }
    outlet
    {
        type            cyclic;
    }
    top
    {
        type            fixedValue;
        value           uniform (0 0 0);
    }
    bottom
    {
        type            fixedValue;
        value           uniform (0 0 0);
    }
    frontAndBackPlanes
    {
        type            empty;
    }
}


// ************************************************************************* //
