/*--------------------------------*- C++ -*----------------------------------*\
| =========                 |                                                 |
| \\      /  F ield         | OpenFOAM: The Open Source CFD Toolbox           |
|  \\    /   O peration     | Version:  2206                                  |
|   \\  /    A nd           | Website:  www.openfoam.com                      |
|    \\/     M anipulation  |                                                 |
\*---------------------------------------------------------------------------*/
FoamFile
{
    version     2.0;
    format      ascii;
    arch        "LSB;label=32;scalar=64";
    class       volVectorField;
    location    "1620";
    object      U.b;
}
// * * * * * * * * * * * * * * * * * * * * * * * * * * * * * * * * * * * * * //

dimensions      [0 1 -1 0 0 0 0];

internalField   nonuniform List<vector> 
120
(
(1.32457e-20 1.54686e-08 0)
(3.97585e-20 7.11548e-10 0)
(6.63219e-20 2.37057e-10 0)
(9.29671e-20 1.17645e-09 0)
(1.1973e-19 7.31581e-10 0)
(1.46642e-19 1.67104e-09 0)
(1.73741e-19 1.22356e-09 0)
(2.0105e-19 2.17459e-09 0)
(2.28606e-19 1.72566e-09 0)
(2.56456e-19 2.68811e-09 0)
(2.84616e-19 2.23795e-09 0)
(3.13119e-19 3.21136e-09 0)
(3.42017e-19 2.76063e-09 0)
(3.71323e-19 3.74409e-09 0)
(4.01076e-19 3.29389e-09 0)
(4.31309e-19 4.28601e-09 0)
(4.62053e-19 3.83785e-09 0)
(4.93341e-19 4.83688e-09 0)
(5.25204e-19 4.39277e-09 0)
(5.57671e-19 5.39653e-09 0)
(5.90775e-19 4.95887e-09 0)
(6.24545e-19 5.96482e-09 0)
(6.59009e-19 5.53641e-09 0)
(6.94137e-19 6.54171e-09 0)
(7.30135e-19 6.12571e-09 0)
(7.66851e-19 7.1273e-09 0)
(8.04402e-19 6.7271e-09 0)
(8.42709e-19 7.72175e-09 0)
(8.81898e-19 7.34097e-09 0)
(9.22031e-19 8.32542e-09 0)
(9.62974e-19 7.96778e-09 0)
(1.00474e-18 8.93876e-09 0)
(1.0475e-18 8.60798e-09 0)
(1.09119e-18 9.56237e-09 0)
(1.13582e-18 9.26216e-09 0)
(1.1813e-18 1.01971e-08 0)
(1.22671e-18 9.93103e-09 0)
(1.27328e-18 1.0844e-08 0)
(1.32038e-18 1.06156e-08 0)
(1.36896e-18 1.15046e-08 0)
(1.41782e-18 1.13171e-08 0)
(1.46815e-18 1.21806e-08 0)
(1.51904e-18 1.20371e-08 0)
(1.57091e-18 1.28741e-08 0)
(1.62352e-18 1.27772e-08 0)
(1.67745e-18 1.35873e-08 0)
(1.73151e-18 1.35391e-08 0)
(1.7867e-18 1.43226e-08 0)
(1.84204e-18 1.43249e-08 0)
(1.89871e-18 1.50824e-08 0)
(1.95568e-18 1.51361e-08 0)
(2.01317e-18 1.58688e-08 0)
(2.07111e-18 1.59743e-08 0)
(2.12943e-18 1.66834e-08 0)
(2.18788e-18 1.68401e-08 0)
(2.24686e-18 1.75272e-08 0)
(2.30581e-18 1.77335e-08 0)
(2.36477e-18 1.83998e-08 0)
(2.42395e-18 1.8653e-08 0)
(2.48306e-18 1.92993e-08 0)
(2.54218e-18 1.95954e-08 0)
(2.60089e-18 2.0222e-08 0)
(2.65909e-18 2.05552e-08 0)
(2.71668e-18 2.11611e-08 0)
(2.77393e-18 2.15241e-08 0)
(2.82905e-18 2.21067e-08 0)
(2.88446e-18 2.24902e-08 0)
(2.93834e-18 2.30448e-08 0)
(2.99098e-18 2.34373e-08 0)
(3.04225e-18 2.39563e-08 0)
(3.09251e-18 2.43449e-08 0)
(3.14021e-18 2.48174e-08 0)
(3.18665e-18 2.51895e-08 0)
(3.23124e-18 2.56009e-08 0)
(3.27387e-18 2.59479e-08 0)
(3.31442e-18 2.62787e-08 0)
(3.35279e-18 2.66029e-08 0)
(3.38888e-18 2.68272e-08 0)
(3.42259e-18 2.71531e-08 0)
(3.45384e-18 2.72318e-08 0)
(3.48253e-18 2.76223e-08 0)
(3.5086e-18 2.74895e-08 0)
(3.53197e-18 2.80655e-08 0)
(3.55258e-18 2.76101e-08 0)
(3.57039e-18 2.85757e-08 0)
(3.58643e-18 2.76763e-08 0)
(3.59735e-18 2.92998e-08 0)
(3.60643e-18 2.82081e-08 0)
(3.61257e-18 2.95294e-08 0)
(3.61573e-18 1.02974e-08 0)
(3.61642e-18 1.5965e-07 0)
(3.58587e-18 4.34449e-06 0)
(3.51876e-18 2.82969e-07 0)
(3.44925e-18 -2.57361e-07 0)
(3.37686e-18 -5.63554e-08 0)
(3.30118e-18 1.17262e-08 0)
(3.22182e-18 5.63431e-09 0)
(3.13842e-18 -1.2582e-10 0)
(3.05064e-18 -4.31679e-10 0)
(2.95819e-18 -4.85899e-11 0)
(2.86081e-18 2.52362e-11 0)
(2.75828e-18 6.93526e-12 0)
(2.65044e-18 -9.29844e-13 0)
(2.53717e-18 -6.56739e-13 0)
(2.41841e-18 -5.13104e-14 0)
(2.29413e-18 1.7931e-14 0)
(2.16439e-18 -3.08975e-14 0)
(2.02926e-18 -4.87935e-14 0)
(1.88889e-18 -4.00129e-14 0)
(1.74349e-18 -4.82673e-14 0)
(1.59329e-18 -3.48182e-14 0)
(1.4386e-18 -2.62176e-14 0)
(1.27975e-18 -4.26684e-14 0)
(1.11713e-18 -3.40568e-14 0)
(9.51154e-19 -4.34692e-14 0)
(7.82284e-19 -5.8932e-14 0)
(6.11001e-19 -5.77368e-14 0)
(4.37817e-19 -5.71485e-14 0)
(2.63259e-19 -4.19568e-14 0)
(8.78726e-20 -3.32291e-14 0)
)
;

boundaryField
{
    inlet
    {
        type            cyclic;
    }
    outlet
    {
        type            cyclic;
    }
    top
    {
        type            fixedValue;
        value           uniform (0 0 0);
    }
    bottom
    {
        type            fixedValue;
        value           uniform (0 0 0);
    }
    frontAndBackPlanes
    {
        type            empty;
    }
}


// ************************************************************************* //
