/*--------------------------------*- C++ -*----------------------------------*\
| =========                 |                                                 |
| \\      /  F ield         | OpenFOAM: The Open Source CFD Toolbox           |
|  \\    /   O peration     | Version:  2206                                  |
|   \\  /    A nd           | Website:  www.openfoam.com                      |
|    \\/     M anipulation  |                                                 |
\*---------------------------------------------------------------------------*/
FoamFile
{
    version     2.0;
    format      ascii;
    arch        "LSB;label=32;scalar=64";
    class       volScalarField;
    location    "220";
    object      p_rbgh;
}
// * * * * * * * * * * * * * * * * * * * * * * * * * * * * * * * * * * * * * //

dimensions      [1 -1 -2 0 0 0 0];

internalField   nonuniform List<scalar> 
120
(
22.3966
22.3945
22.3901
22.3833
22.3739
22.3618
22.3468
22.3285
22.3069
22.2812
22.2506
22.2137
22.1672
22.1069
22.0385
21.9802
21.746
21.4917
21.243
20.9967
20.7511
20.5057
20.2604
20.0151
19.7699
19.5246
19.2794
19.0341
18.7889
18.5436
18.2984
18.0531
17.8079
17.5626
17.3174
17.0721
16.8269
16.5816
16.3364
16.0911
15.8459
15.6006
15.3554
15.1101
14.8649
14.6196
14.3744
14.1291
13.8839
13.6386
13.3934
13.1481
12.9029
12.6576
12.4124
12.1671
11.9219
11.6766
11.4314
11.1861
10.9409
10.6956
10.4504
10.2051
9.95988
9.71463
9.46938
9.22413
8.97888
8.73363
8.48838
8.24313
7.99788
7.75263
7.50738
7.26213
7.01688
6.77163
6.52638
6.28113
6.03588
5.79063
5.54538
5.30013
5.05488
4.80963
4.56438
4.31913
4.07388
3.82863
3.58338
3.33813
3.09288
2.84763
2.60238
2.35713
2.11188
1.86663
1.62138
1.37611
1.1308
0.885937
0.641775
0.389564
0.111972
0.0164858
-0.00263005
-0.00142784
9.35708e-06
0.000107444
1.34619e-05
-6.24887e-06
-1.82847e-06
2.25553e-07
1.65619e-07
5.19668e-09
-1.18712e-08
-1.64397e-09
1.37296e-09
5.84578e-10
)
;

boundaryField
{
    inlet
    {
        type            cyclic;
    }
    outlet
    {
        type            cyclic;
    }
    top
    {
        type            fixedValue;
        value           uniform 0;
    }
    bottom
    {
        type            fixedFluxPressure;
        gradient        uniform 0;
        value           uniform 22.3966;
    }
    frontAndBackPlanes
    {
        type            empty;
    }
}


// ************************************************************************* //
