/*--------------------------------*- C++ -*----------------------------------*\
| =========                 |                                                 |
| \\      /  F ield         | OpenFOAM: The Open Source CFD Toolbox           |
|  \\    /   O peration     | Version:  2206                                  |
|   \\  /    A nd           | Website:  www.openfoam.com                      |
|    \\/     M anipulation  |                                                 |
\*---------------------------------------------------------------------------*/
FoamFile
{
    version     2.0;
    format      ascii;
    arch        "LSB;label=32;scalar=64";
    class       surfaceScalarField;
    location    "220";
    object      phi.b;
}
// * * * * * * * * * * * * * * * * * * * * * * * * * * * * * * * * * * * * * //

dimensions      [0 3 -1 0 0 0 0];

oriented        oriented;

internalField   nonuniform List<scalar> 
119
(
8.54909e-15
1.8124e-14
2.78646e-14
3.86245e-14
5.0053e-14
6.22965e-14
7.59532e-14
9.06549e-14
1.08441e-13
1.3043e-13
1.58967e-13
2.02481e-13
2.65613e-13
3.05291e-13
3.06721e-13
1.60268e-12
2.08003e-12
2.22743e-12
2.28905e-12
2.31103e-12
2.31892e-12
2.32179e-12
2.3228e-12
2.32314e-12
2.32325e-12
2.32329e-12
2.3233e-12
2.32331e-12
2.32331e-12
2.32331e-12
2.32331e-12
2.32331e-12
2.32331e-12
2.32331e-12
2.32331e-12
2.32331e-12
2.32331e-12
2.32331e-12
2.32331e-12
2.32331e-12
2.32331e-12
2.32331e-12
2.32331e-12
2.32331e-12
2.32331e-12
2.32331e-12
2.32331e-12
2.32331e-12
2.32331e-12
2.32331e-12
2.32331e-12
2.32331e-12
2.32331e-12
2.32331e-12
2.32331e-12
2.32331e-12
2.32331e-12
2.32331e-12
2.32331e-12
2.32331e-12
2.32331e-12
2.32331e-12
2.32331e-12
2.32331e-12
2.32331e-12
2.32331e-12
2.32331e-12
2.32331e-12
2.32331e-12
2.32331e-12
2.32331e-12
2.32331e-12
2.32331e-12
2.32331e-12
2.32331e-12
2.32331e-12
2.32331e-12
2.32331e-12
2.32331e-12
2.32331e-12
2.32331e-12
2.32331e-12
2.32331e-12
2.32331e-12
2.32331e-12
2.32331e-12
2.32331e-12
2.32331e-12
2.32331e-12
2.32331e-12
2.32331e-12
2.32331e-12
2.32331e-12
2.32331e-12
2.32331e-12
2.32331e-12
2.32332e-12
2.32332e-12
2.32328e-12
2.323e-12
2.32456e-12
2.33453e-12
2.36781e-12
1.88242e-12
9.08267e-12
2.7105e-12
3.66995e-14
8.20551e-15
1.66749e-15
3.64169e-18
-2.36599e-19
-2.92578e-18
-5.25986e-18
-5.73748e-18
-4.4348e-18
-3.88758e-18
-3.39595e-18
-1.70073e-18
1.23351e-18
)
;

boundaryField
{
    inlet
    {
        type            cyclic;
        value           nonuniform List<scalar> 
120
(
5.6037e-28
1.67669e-27
2.76e-27
3.87296e-27
4.93854e-27
5.97051e-27
6.82069e-27
7.89809e-27
8.96502e-27
9.5376e-27
1.02312e-26
1.13064e-26
1.21436e-26
1.42128e-26
1.52542e-26
1.74602e-26
3.13926e-25
3.56435e-25
3.84744e-25
4.10017e-25
4.27807e-25
4.48701e-25
5.43026e-25
9.47684e-25
-5.04292e-25
-1.26096e-24
-1.84987e-24
-2.15065e-24
-2.53715e-24
-2.99736e-24
-2.90793e-24
-2.26345e-24
-1.673e-24
-1.12188e-24
-6.09981e-25
-1.23014e-25
-2.72164e-25
-1.07139e-24
-1.26999e-24
-2.1602e-24
-1.8374e-24
-2.2043e-24
-1.98102e-24
-1.80525e-24
-1.64755e-24
-2.16004e-24
-1.46609e-24
-8.43236e-25
3.91118e-25
3.61979e-25
3.33718e-25
2.7731e-25
1.9121e-25
7.36232e-26
-6.37273e-26
-8.49025e-25
-1.66055e-24
-2.51655e-24
-3.4497e-24
-3.2137e-24
-3.06297e-24
-2.97325e-24
-2.94823e-24
-2.99175e-24
-3.13537e-24
-2.10339e-24
-2.3993e-24
-2.74689e-24
-3.1767e-24
-3.69145e-24
-4.32177e-24
-3.81957e-24
-3.43755e-24
-3.14984e-24
-2.95894e-24
-2.8678e-24
-2.87957e-24
-2.99752e-24
-3.22498e-24
-3.56519e-24
-4.02118e-24
-4.5956e-24
-5.29054e-24
-6.10738e-24
-7.04712e-24
-8.16616e-24
-6.96237e-24
-5.93396e-24
-5.02068e-24
-4.21775e-24
-3.52019e-24
-2.92259e-24
-2.41947e-24
-2.00579e-24
-1.6774e-24
-1.4316e-24
-1.21365e-24
-9.34715e-25
-5.93769e-25
-3.43548e-25
-1.62276e-25
-7.27908e-26
-3.13854e-26
-1.31107e-26
-5.0793e-27
-4.80441e-27
-4.25626e-27
-3.69532e-27
-3.19199e-27
-2.74208e-27
-2.34003e-27
-1.98083e-27
-1.65966e-27
-1.37184e-27
-1.11274e-27
-8.77796e-28
-6.62483e-28
-4.62345e-28
-2.72987e-28
-9.00743e-29
)
;
    }
    outlet
    {
        type            cyclic;
        value           nonuniform List<scalar> 
120
(
-5.6037e-28
-1.67669e-27
-2.76e-27
-3.87296e-27
-4.93854e-27
-5.97051e-27
-6.82069e-27
-7.89809e-27
-8.96502e-27
-9.5376e-27
-1.02312e-26
-1.13064e-26
-1.21436e-26
-1.42128e-26
-1.52542e-26
-1.74602e-26
-3.13926e-25
-3.56435e-25
-3.84744e-25
-4.10017e-25
-4.27807e-25
-4.48701e-25
-5.43026e-25
-9.47684e-25
5.04292e-25
1.26096e-24
1.84987e-24
2.15065e-24
2.53715e-24
2.99736e-24
2.90793e-24
2.26345e-24
1.673e-24
1.12188e-24
6.09981e-25
1.23014e-25
2.72164e-25
1.07139e-24
1.26999e-24
2.1602e-24
1.8374e-24
2.2043e-24
1.98102e-24
1.80525e-24
1.64755e-24
2.16004e-24
1.46609e-24
8.43236e-25
-3.91118e-25
-3.61979e-25
-3.33718e-25
-2.7731e-25
-1.9121e-25
-7.36232e-26
6.37273e-26
8.49025e-25
1.66055e-24
2.51655e-24
3.4497e-24
3.2137e-24
3.06297e-24
2.97325e-24
2.94823e-24
2.99175e-24
3.13537e-24
2.10339e-24
2.3993e-24
2.74689e-24
3.1767e-24
3.69145e-24
4.32177e-24
3.81957e-24
3.43755e-24
3.14984e-24
2.95894e-24
2.8678e-24
2.87957e-24
2.99752e-24
3.22498e-24
3.56519e-24
4.02118e-24
4.5956e-24
5.29054e-24
6.10738e-24
7.04712e-24
8.16616e-24
6.96237e-24
5.93396e-24
5.02068e-24
4.21775e-24
3.52019e-24
2.92259e-24
2.41947e-24
2.00579e-24
1.6774e-24
1.4316e-24
1.21365e-24
9.34715e-25
5.93769e-25
3.43548e-25
1.62276e-25
7.27908e-26
3.13854e-26
1.31107e-26
5.0793e-27
4.80441e-27
4.25626e-27
3.69532e-27
3.19199e-27
2.74208e-27
2.34003e-27
1.98083e-27
1.65966e-27
1.37184e-27
1.11274e-27
8.77796e-28
6.62483e-28
4.62345e-28
2.72987e-28
9.00743e-29
)
;
    }
    top
    {
        type            fixedValue;
        value           uniform 0;
    }
    bottom
    {
        type            fixedValue;
        value           uniform 0;
    }
    frontAndBackPlanes
    {
        type            empty;
        value           nonuniform List<scalar> 0();
    }
}


// ************************************************************************* //
