/*--------------------------------*- C++ -*----------------------------------*\
| =========                 |                                                 |
| \\      /  F ield         | OpenFOAM: The Open Source CFD Toolbox           |
|  \\    /   O peration     | Version:  2206                                  |
|   \\  /    A nd           | Website:  www.openfoam.com                      |
|    \\/     M anipulation  |                                                 |
\*---------------------------------------------------------------------------*/
FoamFile
{
    version     2.0;
    format      ascii;
    arch        "LSB;label=32;scalar=64";
    class       surfaceScalarField;
    location    "220";
    object      phi.a;
}
// * * * * * * * * * * * * * * * * * * * * * * * * * * * * * * * * * * * * * //

dimensions      [0 3 -1 0 0 0 0];

oriented        oriented;

internalField   nonuniform List<scalar> 
119
(
-5.88896e-15
-1.24995e-14
-1.92437e-14
-2.67168e-14
-3.46772e-14
-4.32426e-14
-5.28266e-14
-6.32062e-14
-7.5816e-14
-9.15117e-14
-1.12009e-13
-1.43406e-13
-1.89042e-13
-2.18052e-13
-2.34311e-13
-1.37962e-12
-1.94614e-12
-2.17073e-12
-2.26664e-12
-2.3028e-12
-2.316e-12
-2.32078e-12
-2.32246e-12
-2.32303e-12
-2.32322e-12
-2.32328e-12
-2.3233e-12
-2.32331e-12
-2.32331e-12
-2.32331e-12
-2.32331e-12
-2.32331e-12
-2.32331e-12
-2.32331e-12
-2.32331e-12
-2.32331e-12
-2.32331e-12
-2.32331e-12
-2.32331e-12
-2.32331e-12
-2.32331e-12
-2.32331e-12
-2.32331e-12
-2.32331e-12
-2.32331e-12
-2.32331e-12
-2.32331e-12
-2.32331e-12
-2.32331e-12
-2.32331e-12
-2.32331e-12
-2.32331e-12
-2.32331e-12
-2.32331e-12
-2.32331e-12
-2.32331e-12
-2.32331e-12
-2.32331e-12
-2.32331e-12
-2.32331e-12
-2.32331e-12
-2.32331e-12
-2.32331e-12
-2.32331e-12
-2.32331e-12
-2.32331e-12
-2.32331e-12
-2.32331e-12
-2.32331e-12
-2.32331e-12
-2.32331e-12
-2.32331e-12
-2.32331e-12
-2.32331e-12
-2.32331e-12
-2.32331e-12
-2.32331e-12
-2.32331e-12
-2.32331e-12
-2.32331e-12
-2.32331e-12
-2.32331e-12
-2.32331e-12
-2.32331e-12
-2.32331e-12
-2.32331e-12
-2.32331e-12
-2.32331e-12
-2.32331e-12
-2.32331e-12
-2.32331e-12
-2.32331e-12
-2.32331e-12
-2.32331e-12
-2.32331e-12
-2.32331e-12
-2.32332e-12
-2.32334e-12
-2.32336e-12
-2.3227e-12
-2.32202e-12
-2.33555e-12
-2.47199e-12
-1.72e-12
-1.91646e-11
-6.6873e-11
-8.08692e-11
-8.34716e-11
-8.40765e-11
-8.27612e-11
-8.27413e-11
-8.23369e-11
-8.2296e-11
-8.23086e-11
-8.23408e-11
-8.23545e-11
-8.23545e-11
-8.23518e-11
-8.20897e-11
)
;

boundaryField
{
    inlet
    {
        type            cyclic;
        value           nonuniform List<scalar> 
120
(
5.60372e-28
1.6768e-27
2.78315e-27
3.87307e-27
4.93855e-27
5.97117e-27
6.96073e-27
7.8978e-27
8.763e-27
9.53662e-27
1.02293e-26
1.09386e-26
1.21386e-26
1.42167e-26
1.52446e-26
1.55673e-26
3.13934e-25
3.56436e-25
3.84745e-25
4.10019e-25
4.2781e-25
4.4873e-25
5.434e-25
9.52476e-25
-5.11434e-25
-1.26421e-24
-1.8427e-24
-2.15066e-24
-2.53702e-24
-2.98062e-24
-2.89119e-24
-2.26331e-24
-1.673e-24
-1.12189e-24
-6.1012e-25
-1.39754e-25
-2.88769e-25
-1.05506e-24
-1.28619e-24
-2.12726e-24
-1.8536e-24
-2.18783e-24
-1.98089e-24
-1.80539e-24
-1.66388e-24
-2.12697e-24
-1.46569e-24
-8.26902e-25
3.58044e-25
3.61708e-25
3.33715e-25
2.77309e-25
1.91208e-25
7.34866e-26
-8.03329e-26
-8.49162e-25
-1.66055e-24
-2.51628e-24
-3.41649e-24
-3.21343e-24
-3.06296e-24
-2.97326e-24
-2.94822e-24
-2.99148e-24
-3.10243e-24
-2.13633e-24
-2.39957e-24
-2.7469e-24
-3.1767e-24
-3.69119e-24
-4.28857e-24
-3.8193e-24
-3.43755e-24
-3.14984e-24
-2.95894e-24
-2.86781e-24
-2.87957e-24
-2.99752e-24
-3.22498e-24
-3.56519e-24
-4.02118e-24
-4.5956e-24
-5.29054e-24
-6.10738e-24
-7.04658e-24
-8.09975e-24
-6.96183e-24
-5.93396e-24
-5.02068e-24
-4.21775e-24
-3.52019e-24
-2.92259e-24
-2.41947e-24
-2.0058e-24
-1.67743e-24
-1.43223e-24
-1.21553e-24
-9.36833e-25
-5.94159e-25
-3.43213e-25
-1.62202e-25
-7.29924e-26
-3.13845e-26
-1.31104e-26
-5.0791e-27
-4.80468e-27
-4.25464e-27
-3.68792e-27
-2.74019e-27
-1.91466e-27
-7.85022e-28
-4.43957e-28
-2.33426e-28
-1.32718e-28
-4.27102e-29
-5.53499e-30
-5.25932e-30
-5.2195e-30
-5.23309e-30
-6.31323e-30
)
;
    }
    outlet
    {
        type            cyclic;
        value           nonuniform List<scalar> 
120
(
-5.60372e-28
-1.6768e-27
-2.78315e-27
-3.87307e-27
-4.93855e-27
-5.97117e-27
-6.96073e-27
-7.8978e-27
-8.763e-27
-9.53662e-27
-1.02293e-26
-1.09386e-26
-1.21386e-26
-1.42167e-26
-1.52446e-26
-1.55673e-26
-3.13934e-25
-3.56436e-25
-3.84745e-25
-4.10019e-25
-4.2781e-25
-4.4873e-25
-5.434e-25
-9.52476e-25
5.11434e-25
1.26421e-24
1.8427e-24
2.15066e-24
2.53702e-24
2.98062e-24
2.89119e-24
2.26331e-24
1.673e-24
1.12189e-24
6.1012e-25
1.39754e-25
2.88769e-25
1.05506e-24
1.28619e-24
2.12726e-24
1.8536e-24
2.18783e-24
1.98089e-24
1.80539e-24
1.66388e-24
2.12697e-24
1.46569e-24
8.26902e-25
-3.58044e-25
-3.61708e-25
-3.33715e-25
-2.77309e-25
-1.91208e-25
-7.34866e-26
8.03329e-26
8.49162e-25
1.66055e-24
2.51628e-24
3.41649e-24
3.21343e-24
3.06296e-24
2.97326e-24
2.94822e-24
2.99148e-24
3.10243e-24
2.13633e-24
2.39957e-24
2.7469e-24
3.1767e-24
3.69119e-24
4.28857e-24
3.8193e-24
3.43755e-24
3.14984e-24
2.95894e-24
2.86781e-24
2.87957e-24
2.99752e-24
3.22498e-24
3.56519e-24
4.02118e-24
4.5956e-24
5.29054e-24
6.10738e-24
7.04658e-24
8.09975e-24
6.96183e-24
5.93396e-24
5.02068e-24
4.21775e-24
3.52019e-24
2.92259e-24
2.41947e-24
2.0058e-24
1.67743e-24
1.43223e-24
1.21553e-24
9.36833e-25
5.94159e-25
3.43213e-25
1.62202e-25
7.29924e-26
3.13845e-26
1.31104e-26
5.0791e-27
4.80468e-27
4.25464e-27
3.68792e-27
2.74019e-27
1.91466e-27
7.85022e-28
4.43957e-28
2.33426e-28
1.32718e-28
4.27102e-29
5.53499e-30
5.25932e-30
5.2195e-30
5.23309e-30
6.31323e-30
)
;
    }
    top
    {
        type            fixedValue;
        value           uniform 0;
    }
    bottom
    {
        type            fixedValue;
        value           uniform 0;
    }
    frontAndBackPlanes
    {
        type            empty;
        value           nonuniform List<scalar> 0();
    }
}


// ************************************************************************* //
