/*--------------------------------*- C++ -*----------------------------------*\
| =========                 |                                                 |
| \\      /  F ield         | OpenFOAM: The Open Source CFD Toolbox           |
|  \\    /   O peration     | Version:  2206                                  |
|   \\  /    A nd           | Website:  www.openfoam.com                      |
|    \\/     M anipulation  |                                                 |
\*---------------------------------------------------------------------------*/
FoamFile
{
    version     2.0;
    format      ascii;
    arch        "LSB;label=32;scalar=64";
    class       volVectorField;
    location    "220";
    object      U.a;
}
// * * * * * * * * * * * * * * * * * * * * * * * * * * * * * * * * * * * * * //

dimensions      [0 1 -1 0 0 0 0];

internalField   nonuniform List<vector> 
120
(
(-1.86791e-21 6.82371e-09 0)
(-5.58934e-21 -2.37317e-08 0)
(-9.27717e-21 -4.5708e-08 0)
(-1.29102e-20 -6.11851e-08 0)
(-1.64618e-20 -8.72316e-08 0)
(-1.99039e-20 -1.05408e-07 0)
(-2.32024e-20 -1.34807e-07 0)
(-2.6326e-20 -1.58661e-07 0)
(-2.921e-20 -1.92438e-07 0)
(-3.17887e-20 -2.28702e-07 0)
(-3.40978e-20 -2.79602e-07 0)
(-3.64619e-20 -3.42366e-07 0)
(-4.04621e-20 -4.53234e-07 0)
(-4.7389e-20 -5.97823e-07 0)
(-5.08152e-20 -6.15633e-07 0)
(-5.18909e-20 -5.99243e-07 0)
(-1.04645e-18 -1.85544e-05 0)
(-1.18812e-18 -3.49877e-06 0)
(-1.28248e-18 -5.26695e-06 0)
(-1.36673e-18 -6.1116e-06 0)
(-1.42603e-18 -6.33519e-06 0)
(-1.49577e-18 -6.40994e-06 0)
(-1.81133e-18 -6.43919e-06 0)
(-3.17492e-18 -6.44951e-06 0)
(1.70478e-18 -6.45261e-06 0)
(4.21402e-18 -6.45338e-06 0)
(6.14234e-18 -6.45357e-06 0)
(7.16887e-18 -6.45362e-06 0)
(8.45674e-18 -6.45364e-06 0)
(9.93539e-18 -6.45364e-06 0)
(9.63729e-18 -6.45364e-06 0)
(7.54438e-18 -6.45364e-06 0)
(5.57668e-18 -6.45364e-06 0)
(3.73962e-18 -6.45364e-06 0)
(2.03373e-18 -6.45364e-06 0)
(4.65846e-19 -6.45364e-06 0)
(9.62565e-19 -6.45364e-06 0)
(3.51686e-18 -6.45364e-06 0)
(4.28729e-18 -6.45364e-06 0)
(7.09086e-18 -6.45364e-06 0)
(6.17865e-18 -6.45364e-06 0)
(7.29278e-18 -6.45364e-06 0)
(6.60297e-18 -6.45364e-06 0)
(6.01796e-18 -6.45364e-06 0)
(5.54628e-18 -6.45364e-06 0)
(7.08988e-18 -6.45364e-06 0)
(4.88564e-18 -6.45364e-06 0)
(2.75634e-18 -6.45365e-06 0)
(-1.19348e-18 -6.45364e-06 0)
(-1.20569e-18 -6.45364e-06 0)
(-1.11238e-18 -6.45364e-06 0)
(-9.24362e-19 -6.45364e-06 0)
(-6.37359e-19 -6.45364e-06 0)
(-2.44955e-19 -6.45364e-06 0)
(2.67776e-19 -6.45364e-06 0)
(2.83054e-18 -6.45364e-06 0)
(5.53517e-18 -6.45364e-06 0)
(8.3876e-18 -6.45364e-06 0)
(1.13883e-17 -6.45365e-06 0)
(1.07114e-17 -6.45364e-06 0)
(1.02099e-17 -6.45364e-06 0)
(9.91085e-18 -6.45364e-06 0)
(9.82742e-18 -6.45364e-06 0)
(9.97161e-18 -6.45364e-06 0)
(1.03414e-17 -6.45364e-06 0)
(7.12111e-18 -6.45364e-06 0)
(7.99858e-18 -6.45364e-06 0)
(9.15632e-18 -6.45364e-06 0)
(1.0589e-17 -6.45364e-06 0)
(1.2304e-17 -6.45365e-06 0)
(1.42952e-17 -6.45364e-06 0)
(1.2731e-17 -6.45364e-06 0)
(1.14585e-17 -6.45364e-06 0)
(1.04995e-17 -6.45364e-06 0)
(9.86314e-18 -6.45364e-06 0)
(9.55935e-18 -6.45364e-06 0)
(9.59858e-18 -6.45364e-06 0)
(9.99175e-18 -6.45364e-06 0)
(1.07499e-17 -6.45364e-06 0)
(1.1884e-17 -6.45364e-06 0)
(1.34039e-17 -6.45364e-06 0)
(1.53187e-17 -6.45364e-06 0)
(1.76351e-17 -6.45365e-06 0)
(2.03579e-17 -6.45364e-06 0)
(2.34886e-17 -6.45364e-06 0)
(2.69992e-17 -6.45364e-06 0)
(2.32061e-17 -6.45364e-06 0)
(1.97799e-17 -6.45364e-06 0)
(1.67356e-17 -6.45364e-06 0)
(1.40592e-17 -6.45364e-06 0)
(1.1734e-17 -6.45364e-06 0)
(9.74197e-18 -6.45364e-06 0)
(8.06491e-18 -6.45364e-06 0)
(6.686e-18 -6.45364e-06 0)
(5.59144e-18 -6.45364e-06 0)
(4.7741e-18 -6.4537e-06 0)
(4.05178e-18 -6.45378e-06 0)
(3.12278e-18 -6.452e-06 0)
(1.98053e-18 -6.43922e-06 0)
(1.14404e-18 -6.47627e-06 0)
(5.40673e-19 -6.92012e-06 0)
(2.43308e-19 -6.47913e-06 0)
(1.04615e-19 4.33146e-06 0)
(4.37014e-20 1.16515e-05 0)
(1.69303e-20 -0.000266154 0)
(1.60156e-20 -0.000203264 0)
(1.41821e-20 -0.000161692 0)
(1.22931e-20 -0.000217436 0)
(9.13396e-21 -0.000239656 0)
(6.38221e-21 -0.000228929 0)
(2.61674e-21 -0.000230863 0)
(1.47986e-21 -0.00022881 0)
(7.78087e-22 -0.000228617 0)
(4.42392e-22 -0.000228583 0)
(1.42367e-22 -0.000228687 0)
(1.845e-23 -0.000228762 0)
(1.75311e-23 -0.000228763 0)
(1.73983e-23 -0.000228762 0)
(1.74436e-23 -0.000228748 0)
(2.10441e-23 -0.000227306 0)
)
;

boundaryField
{
    inlet
    {
        type            cyclic;
    }
    outlet
    {
        type            cyclic;
    }
    top
    {
        type            fixedValue;
        value           uniform (0 0 0);
    }
    bottom
    {
        type            fixedValue;
        value           uniform (0 0 0);
    }
    frontAndBackPlanes
    {
        type            empty;
    }
}


// ************************************************************************* //
