/*--------------------------------*- C++ -*----------------------------------*\
| =========                 |                                                 |
| \\      /  F ield         | OpenFOAM: The Open Source CFD Toolbox           |
|  \\    /   O peration     | Version:  2206                                  |
|   \\  /    A nd           | Website:  www.openfoam.com                      |
|    \\/     M anipulation  |                                                 |
\*---------------------------------------------------------------------------*/
FoamFile
{
    version     2.0;
    format      ascii;
    arch        "LSB;label=32;scalar=64";
    class       volVectorField;
    location    "220";
    object      U.b;
}
// * * * * * * * * * * * * * * * * * * * * * * * * * * * * * * * * * * * * * //

dimensions      [0 1 -1 0 0 0 0];

internalField   nonuniform List<vector> 
120
(
(-1.8679e-21 2.65514e-08 0)
(-5.58898e-21 3.89029e-08 0)
(-9.2e-21 6.20305e-08 0)
(-1.29099e-20 9.51049e-08 0)
(-1.64618e-20 1.20865e-07 0)
(-1.99017e-20 1.58975e-07 0)
(-2.27356e-20 1.90209e-07 0)
(-2.6327e-20 2.33869e-07 0)
(-2.98834e-20 2.76554e-07 0)
(-3.1792e-20 3.34939e-07 0)
(-3.4104e-20 4.03885e-07 0)
(-3.76878e-20 5.1301e-07 0)
(-4.04787e-20 6.5823e-07 0)
(-4.7376e-20 7.59841e-07 0)
(-5.08472e-20 7.42846e-07 0)
(-5.82008e-20 3.78932e-06 0)
(-1.04642e-18 -7.47187e-06 0)
(-1.18812e-18 8.35919e-06 0)
(-1.28248e-18 7.23471e-06 0)
(-1.36672e-18 6.65292e-06 0)
(-1.42602e-18 6.52143e-06 0)
(-1.49567e-18 6.4796e-06 0)
(-1.81009e-18 6.46214e-06 0)
(-3.15895e-18 6.45586e-06 0)
(1.68097e-18 6.45406e-06 0)
(4.2032e-18 6.4537e-06 0)
(6.16623e-18 6.45364e-06 0)
(7.16882e-18 6.45364e-06 0)
(8.45716e-18 6.45364e-06 0)
(9.99118e-18 6.45364e-06 0)
(9.69309e-18 6.45364e-06 0)
(7.54484e-18 6.45364e-06 0)
(5.57668e-18 6.45364e-06 0)
(3.73962e-18 6.45364e-06 0)
(2.03327e-18 6.45364e-06 0)
(4.10046e-19 6.45364e-06 0)
(9.07213e-19 6.45364e-06 0)
(3.57131e-18 6.45364e-06 0)
(4.23328e-18 6.45364e-06 0)
(7.20065e-18 6.45364e-06 0)
(6.12465e-18 6.45364e-06 0)
(7.34768e-18 6.45364e-06 0)
(6.60342e-18 6.45364e-06 0)
(6.01752e-18 6.45364e-06 0)
(5.49183e-18 6.45365e-06 0)
(7.20013e-18 6.45364e-06 0)
(4.88698e-18 6.45364e-06 0)
(2.81079e-18 6.45364e-06 0)
(-1.30373e-18 6.45365e-06 0)
(-1.2066e-18 6.45364e-06 0)
(-1.11239e-18 6.45364e-06 0)
(-9.24365e-19 6.45365e-06 0)
(-6.37366e-19 6.45365e-06 0)
(-2.45411e-19 6.45364e-06 0)
(2.12424e-19 6.45364e-06 0)
(2.83008e-18 6.45364e-06 0)
(5.53517e-18 6.45365e-06 0)
(8.38851e-18 6.45364e-06 0)
(1.1499e-17 6.45364e-06 0)
(1.07123e-17 6.45364e-06 0)
(1.02099e-17 6.45364e-06 0)
(9.91085e-18 6.45364e-06 0)
(9.82742e-18 6.45365e-06 0)
(9.9725e-18 6.45365e-06 0)
(1.04512e-17 6.45364e-06 0)
(7.01131e-18 6.45364e-06 0)
(7.99768e-18 6.45364e-06 0)
(9.1563e-18 6.45364e-06 0)
(1.0589e-17 6.45365e-06 0)
(1.23048e-17 6.45364e-06 0)
(1.44059e-17 6.45364e-06 0)
(1.27319e-17 6.45364e-06 0)
(1.14585e-17 6.45364e-06 0)
(1.04995e-17 6.45364e-06 0)
(9.86313e-18 6.45364e-06 0)
(9.55934e-18 6.45365e-06 0)
(9.59857e-18 6.45365e-06 0)
(9.99174e-18 6.45364e-06 0)
(1.07499e-17 6.45364e-06 0)
(1.1884e-17 6.45364e-06 0)
(1.34039e-17 6.45364e-06 0)
(1.53187e-17 6.45364e-06 0)
(1.76351e-17 6.45364e-06 0)
(2.03579e-17 6.45364e-06 0)
(2.34904e-17 6.45365e-06 0)
(2.72205e-17 6.45364e-06 0)
(2.32079e-17 6.45364e-06 0)
(1.97799e-17 6.45364e-06 0)
(1.67356e-17 6.45364e-06 0)
(1.40592e-17 6.45364e-06 0)
(1.1734e-17 6.45364e-06 0)
(9.74197e-18 6.45364e-06 0)
(8.0649e-18 6.45364e-06 0)
(6.68597e-18 6.45365e-06 0)
(5.59134e-18 6.45364e-06 0)
(4.77199e-18 6.45359e-06 0)
(4.0455e-18 6.45349e-06 0)
(3.11572e-18 6.45534e-06 0)
(1.97923e-18 6.46784e-06 0)
(1.14516e-18 6.43142e-06 0)
(5.4092e-19 5.98624e-06 0)
(2.42636e-19 6.42965e-06 0)
(1.04618e-19 1.71443e-05 0)
(4.37025e-20 2.51979e-05 0)
(1.6931e-20 -0.000255971 0)
(1.60147e-20 -4.62365e-05 0)
(1.41875e-20 6.09679e-05 0)
(1.23177e-20 8.84633e-06 0)
(1.064e-20 -3.08477e-06 0)
(9.14028e-21 -1.05647e-06 0)
(7.8001e-21 9.08974e-08 0)
(6.60277e-21 9.08818e-08 0)
(5.5322e-21 5.16773e-09 0)
(4.57279e-21 -6.12423e-09 0)
(3.70913e-21 -1.20737e-09 0)
(2.92599e-21 2.85627e-10 0)
(2.20828e-21 1.20311e-10 0)
(1.54115e-21 -1.19285e-11 0)
(9.09957e-22 -1.00873e-11 0)
(3.00248e-22 3.99345e-12 0)
)
;

boundaryField
{
    inlet
    {
        type            cyclic;
    }
    outlet
    {
        type            cyclic;
    }
    top
    {
        type            fixedValue;
        value           uniform (0 0 0);
    }
    bottom
    {
        type            fixedValue;
        value           uniform (0 0 0);
    }
    frontAndBackPlanes
    {
        type            empty;
    }
}


// ************************************************************************* //
