/*--------------------------------*- C++ -*----------------------------------*\
| =========                 |                                                 |
| \\      /  F ield         | OpenFOAM: The Open Source CFD Toolbox           |
|  \\    /   O peration     | Version:  2206                                  |
|   \\  /    A nd           | Website:  www.openfoam.com                      |
|    \\/     M anipulation  |                                                 |
\*---------------------------------------------------------------------------*/
FoamFile
{
    version     2.0;
    format      ascii;
    arch        "LSB;label=32;scalar=64";
    class       volScalarField;
    location    "1360";
    object      pff;
}
// * * * * * * * * * * * * * * * * * * * * * * * * * * * * * * * * * * * * * //

dimensions      [1 -1 -2 0 0 0 0];

internalField   nonuniform List<scalar> 
120
(
24.0604
23.5261
23.5295
22.9503
22.9381
22.3708
22.3479
21.7934
21.7588
21.2179
21.1711
20.6444
20.5847
20.0728
19.9999
19.5031
19.4166
18.9353
18.835
18.3693
18.2552
17.8052
17.6774
17.243
17.1015
16.6825
16.5279
16.1238
15.9565
15.5668
15.3874
15.0117
14.8208
14.4583
14.2567
13.9067
13.6953
13.3569
13.1367
12.8089
12.5808
12.2629
12.0278
11.7188
11.4778
11.1769
10.9308
10.637
10.387
10.0995
9.84629
9.56443
9.3089
9.03195
8.77489
8.50224
8.24436
7.9755
7.71742
7.45191
7.19416
6.93164
6.67464
6.41481
6.15889
5.90149
5.64686
5.39165
5.13843
4.88517
4.63338
4.38187
4.13145
3.88152
3.63242
3.38396
3.13626
2.88939
2.64351
2.39871
2.15573
1.91365
1.67567
1.43602
1.20108
0.956439
0.733238
0.612953
0.432061
0.324963
0
0
0
0
0
0
0
0
0
0
0
0
0
0
0
0
0
0
0
0
0
0
0
0
0
0
0
0
0
0
)
;

boundaryField
{
    inlet
    {
        type            cyclic;
    }
    outlet
    {
        type            cyclic;
    }
    top
    {
        type            calculated;
        value           uniform 0;
    }
    bottom
    {
        type            calculated;
        value           uniform 24.0604;
    }
    frontAndBackPlanes
    {
        type            empty;
    }
}


// ************************************************************************* //
