/*--------------------------------*- C++ -*----------------------------------*\
| =========                 |                                                 |
| \\      /  F ield         | OpenFOAM: The Open Source CFD Toolbox           |
|  \\    /   O peration     | Version:  2206                                  |
|   \\  /    A nd           | Website:  www.openfoam.com                      |
|    \\/     M anipulation  |                                                 |
\*---------------------------------------------------------------------------*/
FoamFile
{
    version     2.0;
    format      ascii;
    arch        "LSB;label=32;scalar=64";
    class       surfaceScalarField;
    location    "1360";
    object      phi.a;
}
// * * * * * * * * * * * * * * * * * * * * * * * * * * * * * * * * * * * * * //

dimensions      [0 3 -1 0 0 0 0];

oriented        oriented;

internalField   nonuniform List<scalar> 
119
(
-8.81442e-16
-1.78268e-15
-2.68484e-15
-3.60854e-15
-4.53477e-15
-5.48217e-15
-6.43366e-15
-7.40588e-15
-8.38388e-15
-9.38212e-15
-1.0388e-14
-1.14136e-14
-1.24488e-14
-1.35031e-14
-1.45691e-14
-1.56536e-14
-1.67521e-14
-1.78685e-14
-1.90011e-14
-2.0151e-14
-2.13194e-14
-2.25046e-14
-2.37105e-14
-2.49328e-14
-2.61782e-14
-2.74395e-14
-2.87262e-14
-3.00285e-14
-3.13584e-14
-3.2704e-14
-3.40793e-14
-3.54703e-14
-3.68933e-14
-3.83325e-14
-3.98057e-14
-4.12959e-14
-4.28222e-14
-4.43667e-14
-4.59495e-14
-4.75519e-14
-4.91949e-14
-5.08597e-14
-5.25672e-14
-5.42992e-14
-5.60765e-14
-5.78814e-14
-5.97345e-14
-6.16192e-14
-6.35555e-14
-6.55281e-14
-6.75561e-14
-6.96262e-14
-7.17565e-14
-7.39354e-14
-7.61799e-14
-7.84805e-14
-8.08528e-14
-8.32892e-14
-8.58035e-14
-8.839e-14
-9.10604e-14
-9.38102e-14
-9.66489e-14
-9.95725e-14
-1.02588e-13
-1.05691e-13
-1.08887e-13
-1.12171e-13
-1.15545e-13
-1.19006e-13
-1.22556e-13
-1.26192e-13
-1.29921e-13
-1.33751e-13
-1.377e-13
-1.41804e-13
-1.46123e-13
-1.50756e-13
-1.5586e-13
-1.61667e-13
-1.68541e-13
-1.76961e-13
-1.87635e-13
-2.01551e-13
-2.20154e-13
-2.44856e-13
-2.72874e-13
-3.00778e-13
-3.22438e-13
-5.12775e-13
-2.41455e-11
-4.28659e-11
-4.79774e-11
-7.56938e-11
-7.92459e-11
-7.92896e-11
-7.92927e-11
-7.97494e-11
-8.06414e-11
-8.12798e-11
-8.15707e-11
-8.17345e-11
-8.18493e-11
-8.19313e-11
-8.19847e-11
-8.20156e-11
-8.20313e-11
-8.20379e-11
-8.20403e-11
-8.2041e-11
-8.20413e-11
-8.20414e-11
-8.20414e-11
-8.20413e-11
-8.20412e-11
-8.20406e-11
-8.20375e-11
-8.20066e-11
-8.13541e-11
)
;

boundaryField
{
    inlet
    {
        type            cyclic;
        value           nonuniform List<scalar> 
120
(
-2.88068e-27
-8.64768e-27
-1.44278e-26
-2.02297e-26
-2.60623e-26
-3.19344e-26
-3.78548e-26
-4.38319e-26
-4.98751e-26
-5.59939e-26
-6.21968e-26
-6.84928e-26
-7.4892e-26
-8.14025e-26
-8.80337e-26
-9.47948e-26
-1.01695e-25
-1.08745e-25
-1.15952e-25
-1.23328e-25
-1.30881e-25
-1.38622e-25
-1.4656e-25
-1.54705e-25
-1.63076e-25
-1.71673e-25
-1.80509e-25
-1.89587e-25
-1.98924e-25
-2.08531e-25
-2.18408e-25
-2.28567e-25
-2.39032e-25
-2.49816e-25
-2.60933e-25
-2.72395e-25
-2.83893e-25
-2.95779e-25
-3.08037e-25
-3.20705e-25
-3.33754e-25
-3.47242e-25
-3.61154e-25
-3.75522e-25
-3.90366e-25
-4.05721e-25
-4.21555e-25
-4.37927e-25
-4.54842e-25
-4.7238e-25
-4.90531e-25
-5.09321e-25
-5.28777e-25
-5.4893e-25
-5.69809e-25
-5.91467e-25
-6.13912e-25
-6.37176e-25
-6.61288e-25
-6.86366e-25
-7.12327e-25
-7.39193e-25
-7.66968e-25
-7.95651e-25
-8.25231e-25
-8.5562e-25
-8.86904e-25
-9.18961e-25
-9.51715e-25
-9.85065e-25
-1.01889e-24
-1.05297e-24
-1.0872e-24
-1.12139e-24
-1.15532e-24
-1.18873e-24
-1.22136e-24
-1.25292e-24
-1.28311e-24
-1.31159e-24
-1.33802e-24
-1.36205e-24
-1.38332e-24
-1.40154e-24
-1.41657e-24
-1.42847e-24
-1.43735e-24
-1.44423e-24
-1.4499e-24
-1.45699e-24
-2.87186e-24
-4.27634e-24
-5.72396e-24
-6.46981e-24
-5.6127e-24
-5.4994e-24
-5.48745e-24
-5.47653e-24
-3.91633e-24
-2.42668e-24
-1.7481e-24
-1.3281e-24
-9.8034e-25
-6.82749e-25
-4.55324e-25
-3.02828e-25
-2.14516e-25
-1.71821e-25
-1.54919e-25
-1.4919e-25
-1.47199e-25
-1.46319e-25
-1.45832e-25
-1.45534e-25
-1.45358e-25
-1.45273e-25
-1.45285e-25
-1.4556e-25
-1.46922e-25
-1.50291e-25
)
;
    }
    outlet
    {
        type            cyclic;
        value           nonuniform List<scalar> 
120
(
2.88068e-27
8.64768e-27
1.44278e-26
2.02297e-26
2.60623e-26
3.19344e-26
3.78548e-26
4.38319e-26
4.98751e-26
5.59939e-26
6.21968e-26
6.84928e-26
7.4892e-26
8.14025e-26
8.80337e-26
9.47948e-26
1.01695e-25
1.08745e-25
1.15952e-25
1.23328e-25
1.30881e-25
1.38622e-25
1.4656e-25
1.54705e-25
1.63076e-25
1.71673e-25
1.80509e-25
1.89587e-25
1.98924e-25
2.08531e-25
2.18408e-25
2.28567e-25
2.39032e-25
2.49816e-25
2.60933e-25
2.72395e-25
2.83893e-25
2.95779e-25
3.08037e-25
3.20705e-25
3.33754e-25
3.47242e-25
3.61154e-25
3.75522e-25
3.90366e-25
4.05721e-25
4.21555e-25
4.37927e-25
4.54842e-25
4.7238e-25
4.90531e-25
5.09321e-25
5.28777e-25
5.4893e-25
5.69809e-25
5.91467e-25
6.13912e-25
6.37176e-25
6.61288e-25
6.86366e-25
7.12327e-25
7.39193e-25
7.66968e-25
7.95651e-25
8.25231e-25
8.5562e-25
8.86904e-25
9.18961e-25
9.51715e-25
9.85065e-25
1.01889e-24
1.05297e-24
1.0872e-24
1.12139e-24
1.15532e-24
1.18873e-24
1.22136e-24
1.25292e-24
1.28311e-24
1.31159e-24
1.33802e-24
1.36205e-24
1.38332e-24
1.40154e-24
1.41657e-24
1.42847e-24
1.43735e-24
1.44423e-24
1.4499e-24
1.45699e-24
2.87186e-24
4.27634e-24
5.72396e-24
6.46981e-24
5.6127e-24
5.4994e-24
5.48745e-24
5.47653e-24
3.91633e-24
2.42668e-24
1.7481e-24
1.3281e-24
9.8034e-25
6.82749e-25
4.55324e-25
3.02828e-25
2.14516e-25
1.71821e-25
1.54919e-25
1.4919e-25
1.47199e-25
1.46319e-25
1.45832e-25
1.45534e-25
1.45358e-25
1.45273e-25
1.45285e-25
1.4556e-25
1.46922e-25
1.50291e-25
)
;
    }
    top
    {
        type            fixedValue;
        value           uniform 0;
    }
    bottom
    {
        type            fixedValue;
        value           uniform 0;
    }
    frontAndBackPlanes
    {
        type            empty;
        value           nonuniform List<scalar> 0();
    }
}


// ************************************************************************* //
