/*--------------------------------*- C++ -*----------------------------------*\
| =========                 |                                                 |
| \\      /  F ield         | OpenFOAM: The Open Source CFD Toolbox           |
|  \\    /   O peration     | Version:  2206                                  |
|   \\  /    A nd           | Website:  www.openfoam.com                      |
|    \\/     M anipulation  |                                                 |
\*---------------------------------------------------------------------------*/
FoamFile
{
    version     2.0;
    format      ascii;
    arch        "LSB;label=32;scalar=64";
    class       surfaceScalarField;
    location    "1360";
    object      phi.b;
}
// * * * * * * * * * * * * * * * * * * * * * * * * * * * * * * * * * * * * * //

dimensions      [0 3 -1 0 0 0 0];

oriented        oriented;

internalField   nonuniform List<scalar> 
119
(
1.32039e-15
2.66995e-15
4.02031e-15
5.40229e-15
6.78742e-15
8.20358e-15
9.62523e-15
1.10772e-14
1.25372e-14
1.40267e-14
1.55268e-14
1.70556e-14
1.8598e-14
2.01682e-14
2.1755e-14
2.33686e-14
2.5002e-14
2.66612e-14
2.83437e-14
3.0051e-14
3.17849e-14
3.35426e-14
3.53303e-14
3.71411e-14
3.89852e-14
4.08516e-14
4.27545e-14
4.46794e-14
4.66442e-14
4.86305e-14
5.06597e-14
5.27106e-14
5.48076e-14
5.69266e-14
5.90946e-14
6.12858e-14
6.35291e-14
6.57969e-14
6.81197e-14
7.04693e-14
7.2877e-14
7.5314e-14
7.78123e-14
8.03439e-14
8.29401e-14
8.55739e-14
8.82764e-14
9.10219e-14
9.38405e-14
9.67089e-14
9.96558e-14
1.0266e-13
1.0575e-13
1.08906e-13
1.12155e-13
1.1548e-13
1.18907e-13
1.22421e-13
1.26044e-13
1.29767e-13
1.33605e-13
1.37553e-13
1.41622e-13
1.45808e-13
1.50118e-13
1.54547e-13
1.59099e-13
1.63768e-13
1.68556e-13
1.73456e-13
1.78468e-13
1.83589e-13
1.88825e-13
1.94185e-13
1.99694e-13
2.054e-13
2.11385e-13
2.17785e-13
2.24822e-13
2.32819e-13
2.42286e-13
2.53888e-13
2.68605e-13
2.87793e-13
3.134e-13
3.47307e-13
3.85816e-13
4.2372e-13
4.52308e-13
5.49042e-13
7.03374e-12
8.37339e-15
9.33974e-17
7.64792e-18
1.82177e-19
-3.46304e-20
-4.8687e-19
-6.11428e-19
-2.30035e-19
1.3538e-19
3.83651e-19
6.05725e-19
3.01076e-19
-3.73134e-19
-4.58101e-19
-1.92682e-19
-1.6395e-19
1.22386e-19
3.44821e-19
1.49014e-19
2.03195e-19
-6.58625e-20
-4.35838e-19
-2.40433e-19
-1.91744e-19
3.9244e-19
3.7388e-19
2.5522e-19
-2.75006e-19
)
;

boundaryField
{
    inlet
    {
        type            cyclic;
        value           nonuniform List<scalar> 
120
(
-2.88068e-27
-8.64769e-27
-1.44311e-26
-2.02297e-26
-2.60623e-26
-3.19345e-26
-3.78726e-26
-4.38319e-26
-4.98515e-26
-5.59938e-26
-6.21967e-26
-6.84604e-26
-7.48918e-26
-8.14025e-26
-8.80337e-26
-9.47948e-26
-1.01695e-25
-1.08745e-25
-1.15952e-25
-1.23328e-25
-1.30881e-25
-1.38622e-25
-1.46559e-25
-1.54416e-25
-1.63074e-25
-1.71674e-25
-1.80675e-25
-1.89588e-25
-1.98926e-25
-2.08913e-25
-2.18806e-25
-2.28569e-25
-2.39032e-25
-2.49816e-25
-2.60931e-25
-2.7191e-25
-2.83394e-25
-2.96292e-25
-3.07508e-25
-3.21809e-25
-3.33188e-25
-3.47832e-25
-3.61156e-25
-3.75519e-25
-3.89718e-25
-4.07067e-25
-4.21565e-25
-4.38639e-25
-4.53364e-25
-4.72374e-25
-4.90531e-25
-5.09321e-25
-5.28777e-25
-5.48926e-25
-5.68923e-25
-5.91463e-25
-6.13912e-25
-6.37185e-25
-6.63283e-25
-6.86375e-25
-7.12327e-25
-7.39192e-25
-7.66968e-25
-7.95662e-25
-8.27599e-25
-8.53181e-25
-8.86893e-25
-9.18961e-25
-9.51715e-25
-9.85078e-25
-1.02173e-24
-1.05298e-24
-1.0872e-24
-1.12139e-24
-1.15532e-24
-1.18873e-24
-1.22136e-24
-1.25292e-24
-1.28311e-24
-1.31159e-24
-1.33802e-24
-1.36205e-24
-1.38332e-24
-1.40154e-24
-1.41662e-24
-1.43917e-24
-1.4374e-24
-1.44424e-24
-1.44997e-24
-1.46495e-24
-2.93008e-24
-4.26212e-24
-6.56167e-24
-8.22788e-24
-9.41838e-24
-1.026e-23
-1.08115e-23
-1.11236e-23
-1.12401e-23
-1.1198e-23
-1.10283e-23
-1.07563e-23
-1.04025e-23
-9.98336e-24
-9.51218e-24
-8.99962e-24
-8.45432e-24
-7.88334e-24
-7.29241e-24
-6.68621e-24
-6.0685e-24
-5.44232e-24
-4.81005e-24
-4.17354e-24
-3.5342e-24
-2.89306e-24
-2.25084e-24
-1.60802e-24
-9.64895e-25
-3.21645e-25
)
;
    }
    outlet
    {
        type            cyclic;
        value           nonuniform List<scalar> 
120
(
2.88068e-27
8.64769e-27
1.44311e-26
2.02297e-26
2.60623e-26
3.19345e-26
3.78726e-26
4.38319e-26
4.98515e-26
5.59938e-26
6.21967e-26
6.84604e-26
7.48918e-26
8.14025e-26
8.80337e-26
9.47948e-26
1.01695e-25
1.08745e-25
1.15952e-25
1.23328e-25
1.30881e-25
1.38622e-25
1.46559e-25
1.54416e-25
1.63074e-25
1.71674e-25
1.80675e-25
1.89588e-25
1.98926e-25
2.08913e-25
2.18806e-25
2.28569e-25
2.39032e-25
2.49816e-25
2.60931e-25
2.7191e-25
2.83394e-25
2.96292e-25
3.07508e-25
3.21809e-25
3.33188e-25
3.47832e-25
3.61156e-25
3.75519e-25
3.89718e-25
4.07067e-25
4.21565e-25
4.38639e-25
4.53364e-25
4.72374e-25
4.90531e-25
5.09321e-25
5.28777e-25
5.48926e-25
5.68923e-25
5.91463e-25
6.13912e-25
6.37185e-25
6.63283e-25
6.86375e-25
7.12327e-25
7.39192e-25
7.66968e-25
7.95662e-25
8.27599e-25
8.53181e-25
8.86893e-25
9.18961e-25
9.51715e-25
9.85078e-25
1.02173e-24
1.05298e-24
1.0872e-24
1.12139e-24
1.15532e-24
1.18873e-24
1.22136e-24
1.25292e-24
1.28311e-24
1.31159e-24
1.33802e-24
1.36205e-24
1.38332e-24
1.40154e-24
1.41662e-24
1.43917e-24
1.4374e-24
1.44424e-24
1.44997e-24
1.46495e-24
2.93008e-24
4.26212e-24
6.56167e-24
8.22788e-24
9.41838e-24
1.026e-23
1.08115e-23
1.11236e-23
1.12401e-23
1.1198e-23
1.10283e-23
1.07563e-23
1.04025e-23
9.98336e-24
9.51218e-24
8.99962e-24
8.45432e-24
7.88334e-24
7.29241e-24
6.68621e-24
6.0685e-24
5.44232e-24
4.81005e-24
4.17354e-24
3.5342e-24
2.89306e-24
2.25084e-24
1.60802e-24
9.64895e-25
3.21645e-25
)
;
    }
    top
    {
        type            fixedValue;
        value           uniform 0;
    }
    bottom
    {
        type            fixedValue;
        value           uniform 0;
    }
    frontAndBackPlanes
    {
        type            empty;
        value           nonuniform List<scalar> 0();
    }
}


// ************************************************************************* //
