/*--------------------------------*- C++ -*----------------------------------*\
| =========                 |                                                 |
| \\      /  F ield         | OpenFOAM: The Open Source CFD Toolbox           |
|  \\    /   O peration     | Version:  2206                                  |
|   \\  /    A nd           | Website:  www.openfoam.com                      |
|    \\/     M anipulation  |                                                 |
\*---------------------------------------------------------------------------*/
FoamFile
{
    version     2.0;
    format      ascii;
    arch        "LSB;label=32;scalar=64";
    class       volVectorField;
    location    "1360";
    object      U.a;
}
// * * * * * * * * * * * * * * * * * * * * * * * * * * * * * * * * * * * * * //

dimensions      [0 1 -1 0 0 0 0];

internalField   nonuniform List<vector> 
120
(
(9.60226e-21 1.4461e-08 0)
(2.88256e-20 -3.39457e-09 0)
(4.80927e-20 -6.50916e-09 0)
(6.74324e-20 -8.40618e-09 0)
(8.68745e-20 -1.16412e-08 0)
(1.06448e-19 -1.35514e-08 0)
(1.26183e-19 -1.6905e-08 0)
(1.46106e-19 -1.8837e-08 0)
(1.6625e-19 -2.23067e-08 0)
(1.86646e-19 -2.427e-08 0)
(2.07323e-19 -2.78528e-08 0)
(2.28309e-19 -2.98578e-08 0)
(2.4964e-19 -3.35507e-08 0)
(2.71342e-19 -3.56086e-08 0)
(2.93446e-19 -3.94081e-08 0)
(3.15983e-19 -4.15308e-08 0)
(3.38984e-19 -4.54336e-08 0)
(3.62482e-19 -4.76332e-08 0)
(3.86507e-19 -5.16359e-08 0)
(4.11093e-19 -5.39252e-08 0)
(4.3627e-19 -5.80243e-08 0)
(4.62073e-19 -6.04162e-08 0)
(4.88533e-19 -6.46087e-08 0)
(5.15684e-19 -6.71161e-08 0)
(5.43585e-19 -7.13992e-08 0)
(5.72244e-19 -7.40349e-08 0)
(6.01695e-19 -7.84063e-08 0)
(6.31958e-19 -8.11832e-08 0)
(6.63081e-19 -8.56414e-08 0)
(6.95103e-19 -8.85718e-08 0)
(7.28026e-19 -9.31163e-08 0)
(7.6189e-19 -9.62127e-08 0)
(7.96773e-19 -1.00844e-07 0)
(8.3272e-19 -1.04118e-07 0)
(8.69777e-19 -1.08839e-07 0)
(9.07982e-19 -1.12303e-07 0)
(9.46309e-19 -1.17117e-07 0)
(9.85931e-19 -1.20784e-07 0)
(1.02679e-18 -1.25697e-07 0)
(1.06902e-18 -1.29577e-07 0)
(1.11251e-18 -1.34599e-07 0)
(1.15747e-18 -1.38706e-07 0)
(1.20385e-18 -1.43847e-07 0)
(1.25174e-18 -1.48193e-07 0)
(1.30122e-18 -1.53468e-07 0)
(1.3524e-18 -1.58067e-07 0)
(1.40518e-18 -1.63495e-07 0)
(1.45976e-18 -1.68363e-07 0)
(1.51614e-18 -1.73965e-07 0)
(1.5746e-18 -1.79121e-07 0)
(1.6351e-18 -1.84923e-07 0)
(1.69774e-18 -1.90388e-07 0)
(1.76259e-18 -1.96423e-07 0)
(1.82977e-18 -2.02223e-07 0)
(1.89936e-18 -2.08528e-07 0)
(1.97156e-18 -2.14693e-07 0)
(2.04637e-18 -2.21308e-07 0)
(2.12392e-18 -2.27872e-07 0)
(2.20429e-18 -2.34844e-07 0)
(2.28789e-18 -2.41841e-07 0)
(2.37442e-18 -2.49213e-07 0)
(2.46398e-18 -2.56677e-07 0)
(2.55656e-18 -2.64489e-07 0)
(2.65217e-18 -2.72447e-07 0)
(2.75077e-18 -2.80731e-07 0)
(2.85207e-18 -2.89199e-07 0)
(2.95635e-18 -2.97973e-07 0)
(3.0632e-18 -3.06953e-07 0)
(3.17238e-18 -3.16217e-07 0)
(3.28355e-18 -3.25699e-07 0)
(3.3963e-18 -3.35447e-07 0)
(3.5099e-18 -3.45418e-07 0)
(3.62401e-18 -3.5565e-07 0)
(3.73798e-18 -3.66133e-07 0)
(3.85105e-18 -3.76924e-07 0)
(3.96243e-18 -3.88075e-07 0)
(4.0712e-18 -3.99722e-07 0)
(4.17642e-18 -4.1207e-07 0)
(4.27704e-18 -4.25453e-07 0)
(4.37198e-18 -4.4042e-07 0)
(4.46008e-18 -4.57707e-07 0)
(4.54015e-18 -4.78602e-07 0)
(4.61105e-18 -5.04467e-07 0)
(4.67181e-18 -5.37884e-07 0)
(4.72189e-18 -5.81749e-07 0)
(4.76157e-18 -6.41201e-07 0)
(4.79115e-18 -7.19002e-07 0)
(4.8141e-18 -7.96809e-07 0)
(4.83299e-18 -8.73351e-07 0)
(4.85665e-18 -9.71067e-07 0)
(9.57287e-18 -3.83377e-05 0)
(1.42545e-17 -0.000124906 0)
(1.90799e-17 -6.33778e-05 0)
(2.1566e-17 -0.000200703 0)
(1.8709e-17 -0.000219989 0)
(1.83313e-17 -0.000220267 0)
(1.82915e-17 -0.00022023 0)
(1.82551e-17 -0.000220285 0)
(1.30544e-17 -0.000222767 0)
(8.08893e-18 -0.000225241 0)
(5.827e-18 -0.000226314 0)
(4.427e-18 -0.000226857 0)
(3.2678e-18 -0.000227224 0)
(2.27583e-18 -0.000227495 0)
(1.51775e-18 -0.000227679 0)
(1.00943e-18 -0.000227791 0)
(7.15055e-19 -0.000227851 0)
(5.72736e-19 -0.000227878 0)
(5.16396e-19 -0.000227888 0)
(4.97301e-19 -0.000227891 0)
(4.90664e-19 -0.000227892 0)
(4.8773e-19 -0.000227893 0)
(4.86105e-19 -0.000227893 0)
(4.85114e-19 -0.000227893 0)
(4.84528e-19 -0.000227892 0)
(4.84242e-19 -0.000227892 0)
(4.84285e-19 -0.000227889 0)
(4.852e-19 -0.000227875 0)
(4.89738e-19 -0.000227718 0)
(5.00969e-19 -0.000224249 0)
)
;

boundaryField
{
    inlet
    {
        type            cyclic;
    }
    outlet
    {
        type            cyclic;
    }
    top
    {
        type            fixedValue;
        value           uniform (0 0 0);
    }
    bottom
    {
        type            fixedValue;
        value           uniform (0 0 0);
    }
    frontAndBackPlanes
    {
        type            empty;
    }
}


// ************************************************************************* //
