/*--------------------------------*- C++ -*----------------------------------*\
| =========                 |                                                 |
| \\      /  F ield         | OpenFOAM: The Open Source CFD Toolbox           |
|  \\    /   O peration     | Version:  2206                                  |
|   \\  /    A nd           | Website:  www.openfoam.com                      |
|    \\/     M anipulation  |                                                 |
\*---------------------------------------------------------------------------*/
FoamFile
{
    version     2.0;
    format      ascii;
    arch        "LSB;label=32;scalar=64";
    class       volVectorField;
    location    "1360";
    object      U.b;
}
// * * * * * * * * * * * * * * * * * * * * * * * * * * * * * * * * * * * * * //

dimensions      [0 1 -1 0 0 0 0];

internalField   nonuniform List<vector> 
120
(
(9.60226e-21 1.72466e-08 0)
(2.88256e-20 5.86323e-09 0)
(4.81038e-20 8.97452e-09 0)
(6.74325e-20 1.34197e-08 0)
(8.68744e-20 1.65952e-08 0)
(1.06448e-19 2.11846e-08 0)
(1.26242e-19 2.43997e-08 0)
(1.46106e-19 2.91439e-08 0)
(1.66172e-19 3.24109e-08 0)
(1.86646e-19 3.73083e-08 0)
(2.07322e-19 4.06385e-08 0)
(2.28201e-19 4.56873e-08 0)
(2.49639e-19 4.90934e-08 0)
(2.71342e-19 5.42921e-08 0)
(2.93446e-19 5.77879e-08 0)
(3.15983e-19 6.31341e-08 0)
(3.38984e-19 6.67333e-08 0)
(3.62482e-19 7.22249e-08 0)
(3.86507e-19 7.59426e-08 0)
(4.11093e-19 8.15779e-08 0)
(4.3627e-19 8.54294e-08 0)
(4.62073e-19 9.12061e-08 0)
(4.88529e-19 9.52068e-08 0)
(5.1472e-19 1.01123e-07 0)
(5.43581e-19 1.05289e-07 0)
(5.72247e-19 1.11344e-07 0)
(6.02252e-19 1.1569e-07 0)
(6.3196e-19 1.21883e-07 0)
(6.63087e-19 1.26424e-07 0)
(6.96378e-19 1.32756e-07 0)
(7.29354e-19 1.37508e-07 0)
(7.61896e-19 1.4398e-07 0)
(7.96773e-19 1.48959e-07 0)
(8.3272e-19 1.55573e-07 0)
(8.6977e-19 1.60794e-07 0)
(9.06365e-19 1.67557e-07 0)
(9.44646e-19 1.73035e-07 0)
(9.8764e-19 1.79954e-07 0)
(1.02503e-18 1.85706e-07 0)
(1.0727e-18 1.92791e-07 0)
(1.11063e-18 1.98833e-07 0)
(1.15944e-18 2.06098e-07 0)
(1.20385e-18 2.12448e-07 0)
(1.25173e-18 2.1991e-07 0)
(1.29906e-18 2.26587e-07 0)
(1.35689e-18 2.34267e-07 0)
(1.40522e-18 2.41293e-07 0)
(1.46213e-18 2.49219e-07 0)
(1.51121e-18 2.56618e-07 0)
(1.57458e-18 2.64821e-07 0)
(1.6351e-18 2.72621e-07 0)
(1.69774e-18 2.81141e-07 0)
(1.76259e-18 2.89378e-07 0)
(1.82975e-18 2.9826e-07 0)
(1.89641e-18 3.06972e-07 0)
(1.97154e-18 3.16269e-07 0)
(2.04637e-18 3.25503e-07 0)
(2.12395e-18 3.35272e-07 0)
(2.21094e-18 3.45075e-07 0)
(2.28792e-18 3.55376e-07 0)
(2.37442e-18 3.65795e-07 0)
(2.46397e-18 3.76681e-07 0)
(2.55656e-18 3.87755e-07 0)
(2.65221e-18 3.99272e-07 0)
(2.75866e-18 4.11027e-07 0)
(2.84394e-18 4.23198e-07 0)
(2.95631e-18 4.3564e-07 0)
(3.0632e-18 4.48468e-07 0)
(3.17238e-18 4.6158e-07 0)
(3.28359e-18 4.75046e-07 0)
(3.40575e-18 4.88795e-07 0)
(3.50994e-18 5.02876e-07 0)
(3.62401e-18 5.17251e-07 0)
(3.73798e-18 5.31975e-07 0)
(3.85105e-18 5.47076e-07 0)
(3.96243e-18 5.62675e-07 0)
(4.0712e-18 5.78949e-07 0)
(4.17642e-18 5.96217e-07 0)
(4.27704e-18 6.14992e-07 0)
(4.37198e-18 6.36027e-07 0)
(4.46008e-18 6.60551e-07 0)
(4.54015e-18 6.90107e-07 0)
(4.61105e-18 7.27153e-07 0)
(4.67181e-18 7.74855e-07 0)
(4.72206e-18 8.37876e-07 0)
(4.79724e-18 9.21243e-07 0)
(4.79134e-18 1.01951e-06 0)
(4.81414e-18 1.12569e-06 0)
(4.83323e-18 1.24841e-06 0)
(4.88316e-18 5.9339e-07 0)
(9.76694e-18 -3.47857e-05 0)
(1.42071e-17 4.52909e-05 0)
(2.18722e-17 8.55587e-06 0)
(2.74263e-17 -2.21802e-06 0)
(3.13946e-17 -9.84551e-07 0)
(3.41999e-17 4.80849e-08 0)
(3.60382e-17 7.66513e-08 0)
(3.70787e-17 6.41717e-09 0)
(3.74669e-17 -4.8719e-09 0)
(3.73266e-17 -1.17675e-09 0)
(3.67608e-17 1.99591e-10 0)
(3.58542e-17 1.21181e-10 0)
(3.46749e-17 3.17295e-12 0)
(3.32779e-17 -9.2098e-12 0)
(3.17073e-17 -2.66412e-12 0)
(2.99987e-17 -3.85579e-13 0)
(2.81811e-17 -2.87097e-13 0)
(2.62778e-17 -4.56736e-14 0)
(2.4308e-17 6.56384e-13 0)
(2.22874e-17 6.85414e-13 0)
(2.02283e-17 4.73053e-13 0)
(1.81411e-17 1.60402e-13 0)
(1.60335e-17 -6.99847e-13 0)
(1.39118e-17 -9.41935e-13 0)
(1.17807e-17 -5.87508e-13 0)
(9.64354e-18 2.94388e-13 0)
(7.50279e-18 1.07319e-12 0)
(5.36005e-18 8.75691e-13 0)
(3.21632e-18 -9.53626e-14 0)
(1.07215e-18 -8.54508e-13 0)
)
;

boundaryField
{
    inlet
    {
        type            cyclic;
    }
    outlet
    {
        type            cyclic;
    }
    top
    {
        type            fixedValue;
        value           uniform (0 0 0);
    }
    bottom
    {
        type            fixedValue;
        value           uniform (0 0 0);
    }
    frontAndBackPlanes
    {
        type            empty;
    }
}


// ************************************************************************* //
