/*--------------------------------*- C++ -*----------------------------------*\
| =========                 |                                                 |
| \\      /  F ield         | OpenFOAM: The Open Source CFD Toolbox           |
|  \\    /   O peration     | Version:  v1906                                 |
|   \\  /    A nd           | Web:      www.OpenFOAM.com                      |
|    \\/     M anipulation  |                                                 |
\*---------------------------------------------------------------------------*/
FoamFile
{
    version     2.0;
    format      ascii;
    class       volScalarField;
    location    "1800";
    object      alpha_a;
}
// * * * * * * * * * * * * * * * * * * * * * * * * * * * * * * * * * * * * * //

dimensions      [0 0 0 0 0 0 0];


internalField   nonuniform List<scalar> 
344
(
0.583426
0.583271
0.583238
0.583104
0.583048
0.58293
0.582856
0.582749
0.582662
0.58256
0.582465
0.582364
0.582264
0.582161
0.582057
0.581952
0.581844
0.581735
0.581625
0.581512
0.581398
0.581282
0.581163
0.581043
0.58092
0.580795
0.580667
0.580537
0.580404
0.580269
0.58013
0.579989
0.579844
0.579696
0.579544
0.579388
0.579229
0.579065
0.578896
0.578722
0.578543
0.578359
0.578168
0.577971
0.577766
0.577551
0.577323
0.577082
0.576827
0.576558
0.576275
0.575981
0.575674
0.575353
0.575017
0.574665
0.574296
0.573907
0.573498
0.573066
0.572609
0.572123
0.571605
0.571052
0.570459
0.569819
0.569125
0.568368
0.567536
0.566614
0.565582
0.56441
0.563058
0.561462
0.559525
0.557061
0.553679
0.548781
0.524897
0.123545
0.00199315
7.98312e-06
6.77792e-14
4.75146e-25
2.5259e-35
1.03825e-45
3.69956e-56
1.19071e-66
3.29637e-77
1.03136e-87
3.26382e-98
1.05077e-108
3.06809e-119
9.12763e-130
2.45573e-140
6.03217e-151
1.19632e-161
2.34636e-172
4.07652e-183
6.28929e-194
7.40654e-205
7.18223e-216
4.69743e-227
1.72534e-238
2.54178e-249
5.99421e-260
2.15566e-270
9.84032e-281
4.73283e-291
2.47825e-301
1.26954e-311
1.43393e-316
3.7024e-318
0
0
0
0
0
0
0
0
0
0
0
0
0
0
0
0
0
0
0
0
0
0
0
0
0
0
0
0
0
0
0
0
0
0
0
0
0
0
0
0
0
0
0
0
0
0
0
0
0
0
0
0
0
0
0
0
0
0
0
0
0
0
0
0
0
0
0
0
0
0
0
0
0
0
0
0
0
0
0
0
0
0
0
0
0
0
0
0
0
0
0
0
0
0
0
0
0
0
0
0
0
0
0
0
0
0
0
0
0
0
0
0
0
0
0
0
0
0
0
0
0
0
0
0
0
0
0
0
0
0
0
0
0
0
0
0
0
0
0
0
0
0
0
0
0
0
0
0
0
0
0
0
0
0
0
0
0
0
0
0
0
0
0
0
0
0
0
0
0
0
0
0
0
0
0
0
0
0
0
0
0
0
0
0
0
0
0
0
0
0
0
0
0
0
0
0
0
0
0
0
0
0
0
0
0
0
0
0
0
0
0
0
0
0
0
0
0
0
0
0
0
0
0
0
0
0
0
0
0
0
0
)
;

boundaryField
{
    inlet
    {
        type            cyclic;
    }
    outlet
    {
        type            cyclic;
    }
    top
    {
        type            zeroGradient;
    }
    bottom
    {
        type            zeroGradient;
    }
    frontAndBackPlanes
    {
        type            empty;
    }
}


// ************************************************************************* //
