/*--------------------------------*- C++ -*----------------------------------*\
| =========                 |                                                 |
| \\      /  F ield         | OpenFOAM: The Open Source CFD Toolbox           |
|  \\    /   O peration     | Version:  v1906                                 |
|   \\  /    A nd           | Web:      www.OpenFOAM.com                      |
|    \\/     M anipulation  |                                                 |
\*---------------------------------------------------------------------------*/
FoamFile
{
    version     2.0;
    format      ascii;
    class       volScalarField;
    location    "1800";
    object      p;
}
// * * * * * * * * * * * * * * * * * * * * * * * * * * * * * * * * * * * * * //

dimensions      [1 -1 -2 0 0 0 0];


internalField   nonuniform List<scalar> 
344
(
973.448
961.186
948.925
936.663
924.403
912.143
899.883
887.624
875.365
863.106
850.849
838.591
826.335
814.078
801.823
789.567
777.312
765.058
752.805
740.551
728.299
716.047
703.795
691.544
679.293
667.044
654.794
642.545
630.297
618.049
605.802
593.555
581.309
569.063
556.818
544.574
532.33
520.086
507.843
495.601
483.359
471.118
458.877
446.636
434.396
422.157
409.918
397.679
385.441
373.203
360.966
348.729
336.493
324.257
312.021
299.786
287.551
275.316
263.081
250.847
238.613
226.379
214.145
201.912
189.678
177.445
165.212
152.978
140.745
128.512
116.278
104.045
91.8109
79.5767
67.3421
55.107
42.8711
30.6347
18.3949
6.17671
-6.17171
-18.3597
-30.6812
-42.9024
-55.1915
-67.4371
-79.7109
-91.9652
-104.234
-116.492
-128.758
-141.017
-153.282
-165.543
-177.807
-190.068
-202.332
-214.594
-226.856
-239.119
-251.381
-263.644
-275.906
-288.169
-300.431
-312.694
-324.956
-337.219
-349.481
-361.744
-374.006
-386.269
-398.531
-410.794
-423.056
-435.319
-447.581
-459.844
-472.106
-484.369
-496.631
-508.894
-521.156
-533.419
-545.681
-557.944
-570.206
-582.469
-594.731
-606.994
-619.256
-631.519
-643.781
-656.044
-668.306
-680.569
-692.831
-705.094
-717.356
-729.619
-741.881
-754.144
-766.406
-778.669
-790.931
-803.194
-815.456
-827.719
-839.981
-852.244
-864.506
-876.769
-889.031
-901.294
-913.556
-925.819
-938.081
-950.344
-962.606
-974.869
-987.131
-999.394
-1011.66
-1023.92
-1036.18
-1048.44
-1060.71
-1072.97
-1085.23
-1097.49
-1109.76
-1122.02
-1134.28
-1146.54
-1158.81
-1171.07
-1183.33
-1195.59
-1207.86
-1220.12
-1232.38
-1244.64
-1256.91
-1269.17
-1281.43
-1293.69
-1305.96
-1318.22
-1330.48
-1342.74
-1355.01
-1367.27
-1379.53
-1391.79
-1404.06
-1416.32
-1428.58
-1440.84
-1453.11
-1465.37
-1477.63
-1489.89
-1502.16
-1514.42
-1526.68
-1538.94
-1551.21
-1563.47
-1575.73
-1587.99
-1600.26
-1612.52
-1624.78
-1637.04
-1649.31
-1661.57
-1673.83
-1686.09
-1698.36
-1710.62
-1722.88
-1735.14
-1747.41
-1759.67
-1771.93
-1784.19
-1796.46
-1808.72
-1820.98
-1833.24
-1845.51
-1857.77
-1870.03
-1882.29
-1894.56
-1906.82
-1919.08
-1931.34
-1943.61
-1955.87
-1968.13
-1980.39
-1992.66
-2004.92
-2017.18
-2029.44
-2041.71
-2053.97
-2066.23
-2078.49
-2090.76
-2103.02
-2115.28
-2127.54
-2139.81
-2152.07
-2164.33
-2176.59
-2188.86
-2201.12
-2213.38
-2225.64
-2237.91
-2250.17
-2262.43
-2274.69
-2286.96
-2299.22
-2311.48
-2323.74
-2336.01
-2348.27
-2360.53
-2372.79
-2385.06
-2397.32
-2409.58
-2421.84
-2434.11
-2446.37
-2458.63
-2470.89
-2483.16
-2495.42
-2507.68
-2519.94
-2532.21
-2544.47
-2556.73
-2568.99
-2581.26
-2593.52
-2605.78
-2618.04
-2630.31
-2642.57
-2654.83
-2667.09
-2679.36
-2691.62
-2703.88
-2716.14
-2728.41
-2740.67
-2752.93
-2765.19
-2777.46
-2789.72
-2801.98
-2814.24
-2826.51
-2838.77
-2851.03
-2863.29
-2875.56
-2887.82
-2900.08
-2912.34
-2924.61
-2936.87
-2949.13
-2961.39
-2973.66
-2985.92
-2998.18
-3010.44
-3022.71
-3034.97
-3047.23
-3059.49
-3071.76
-3084.02
-3096.28
-3108.54
-3120.81
-3133.07
-3145.33
-3157.59
-3169.86
-3182.12
-3194.38
-3206.64
-3218.91
-3231.17
)
;

boundaryField
{
    inlet
    {
        type            cyclic;
    }
    outlet
    {
        type            cyclic;
    }
    top
    {
        type            calculated;
        value           uniform -3237.3;
    }
    bottom
    {
        type            calculated;
        value           uniform 979.579;
    }
    frontAndBackPlanes
    {
        type            empty;
    }
}


// ************************************************************************* //
