/*--------------------------------*- C++ -*----------------------------------*\
| =========                 |                                                 |
| \\      /  F ield         | OpenFOAM: The Open Source CFD Toolbox           |
|  \\    /   O peration     | Version:  v1906                                 |
|   \\  /    A nd           | Web:      www.OpenFOAM.com                      |
|    \\/     M anipulation  |                                                 |
\*---------------------------------------------------------------------------*/
FoamFile
{
    version     2.0;
    format      ascii;
    class       volScalarField;
    location    "1800";
    object      p_rbgh;
}
// * * * * * * * * * * * * * * * * * * * * * * * * * * * * * * * * * * * * * //

dimensions      [1 -1 -2 0 0 0 0];


internalField   nonuniform List<scalar> 
344
(
-1.42054
-1.42009
-1.41919
-1.41784
-1.41601
-1.41373
-1.41096
-1.40772
-1.404
-1.39979
-1.39508
-1.38988
-1.38418
-1.37797
-1.37125
-1.36402
-1.35627
-1.34799
-1.3392
-1.32988
-1.32002
-1.30964
-1.29872
-1.28726
-1.27526
-1.26272
-1.24963
-1.23601
-1.22183
-1.20712
-1.19186
-1.17606
-1.15971
-1.14282
-1.12539
-1.10743
-1.08893
-1.06991
-1.05036
-1.03029
-1.0097
-0.988616
-0.967031
-0.944957
-0.922406
-0.899387
-0.875907
-0.851969
-0.827584
-0.802763
-0.77752
-0.751872
-0.725835
-0.699427
-0.672667
-0.645574
-0.618169
-0.590471
-0.562503
-0.534288
-0.505849
-0.477212
-0.448402
-0.419446
-0.390374
-0.361216
-0.332006
-0.302778
-0.273572
-0.244429
-0.215397
-0.186532
-0.157896
-0.129569
-0.101649
-0.0742748
-0.047665
-0.0215963
0.00111445
0.0454594
-0.0404625
0.0340028
-0.0249074
0.0163493
-0.0102911
0.00663597
-0.0046302
0.00350924
-0.00277524
0.00220081
-0.00171842
0.00131834
-0.000998043
0.000749353
-0.00056022
0.000418134
-0.000312106
0.000233203
-0.000174528
0.000130848
-9.82799e-05
7.39303e-05
-5.56864e-05
4.19719e-05
-3.16488e-05
2.3856e-05
-1.79774e-05
1.35324e-05
-1.0182e-05
7.64949e-06
-5.74598e-06
4.30801e-06
-3.23082e-06
2.4162e-06
-1.80744e-06
1.34477e-06
-9.98627e-07
7.3213e-07
-5.30564e-07
3.72939e-07
-2.56867e-07
1.69293e-07
-1.08837e-07
6.56495e-08
-3.8546e-08
2.06294e-08
-1.082e-08
5.02815e-09
-2.2984e-09
1.01934e-09
-2.90913e-10
3.04123e-10
1.24843e-10
2.3395e-10
2.18332e-10
2.37656e-10
2.41772e-10
2.3812e-10
2.28456e-10
2.19148e-10
2.09204e-10
1.98435e-10
1.87355e-10
1.76257e-10
1.65648e-10
1.54244e-10
1.42588e-10
1.3081e-10
1.1956e-10
1.08315e-10
9.76782e-11
8.77232e-11
7.87846e-11
6.96562e-11
6.06084e-11
5.16875e-11
4.33494e-11
3.52284e-11
2.77311e-11
2.0901e-11
1.50378e-11
9.66241e-12
4.99121e-12
1.04379e-12
-1.99358e-12
-4.21451e-12
-5.5187e-12
-6.06374e-12
-6.97365e-12
-6.56741e-12
-6.01876e-12
-5.49533e-12
-5.02328e-12
-4.55337e-12
-4.11487e-12
-3.71298e-12
-3.36259e-12
-3.02045e-12
-2.69809e-12
-2.39619e-12
-2.12164e-12
-1.8686e-12
-1.64162e-12
-1.44012e-12
-1.26443e-12
-1.10252e-12
-9.53148e-13
-8.15571e-13
-6.90159e-13
-5.76394e-13
-4.74075e-13
-3.82758e-13
-3.02208e-13
-2.33099e-13
-1.7517e-13
-1.281e-13
-9.12138e-14
-6.51361e-14
-4.95406e-14
-4.29357e-14
-3.06274e-14
-3.33599e-14
-3.66742e-14
-3.92023e-14
-4.10758e-14
-4.25358e-14
-4.35993e-14
-4.42649e-14
-4.46326e-14
-4.47049e-14
-4.45527e-14
-4.4186e-14
-4.37484e-14
-4.31385e-14
-4.24745e-14
-4.17641e-14
-4.10943e-14
-4.03262e-14
-3.95235e-14
-3.86885e-14
-3.7883e-14
-3.70622e-14
-3.62727e-14
-3.55159e-14
-3.48298e-14
-3.41468e-14
-3.34931e-14
-3.28698e-14
-3.23074e-14
-3.17625e-14
-3.12768e-14
-3.08199e-14
-3.0961e-14
-3.05693e-14
-3.021e-14
-2.98528e-14
-2.95277e-14
-2.92056e-14
-2.88954e-14
-2.85994e-14
-2.83174e-14
-2.80406e-14
-2.77688e-14
-2.75033e-14
-2.72377e-14
-2.6978e-14
-2.67182e-14
-2.64595e-14
-2.61982e-14
-2.59377e-14
-2.56744e-14
-2.54093e-14
-2.51362e-14
-2.48613e-14
-2.45779e-14
-2.42873e-14
-2.39893e-14
-2.36736e-14
-2.33402e-14
-2.29915e-14
-2.26375e-14
-2.22451e-14
-2.18513e-14
-2.14307e-14
-2.16302e-14
-2.12098e-14
-2.08164e-14
-2.04246e-14
-2.00712e-14
-1.97232e-14
-1.93906e-14
-1.90756e-14
-1.8778e-14
-1.8488e-14
-1.82053e-14
-1.79309e-14
-1.76576e-14
-1.73922e-14
-1.71279e-14
-1.68656e-14
-1.66011e-14
-1.63388e-14
-1.60744e-14
-1.58088e-14
-1.55353e-14
-1.52606e-14
-1.49774e-14
-1.4687e-14
-1.43888e-14
-1.40731e-14
-1.37397e-14
-1.33907e-14
-1.30362e-14
-1.26429e-14
-1.22481e-14
-1.18262e-14
-1.20299e-14
-1.16113e-14
-1.12228e-14
-1.08392e-14
-1.04977e-14
-1.01649e-14
-9.85096e-15
-9.55812e-15
-9.28648e-15
-9.02576e-15
-8.77571e-15
-8.53743e-15
-8.30394e-15
-8.08138e-15
-7.86351e-15
-7.65109e-15
-7.44006e-15
-7.23734e-15
-7.03925e-15
-6.84634e-15
-6.65375e-15
-6.46582e-15
-6.27802e-15
-6.09068e-15
-5.89948e-15
-5.71208e-15
-5.52416e-15
-5.33603e-15
-5.14318e-15
-4.94995e-15
-4.75145e-15
-4.54824e-15
-4.33655e-15
-4.12346e-15
-3.90474e-15
-3.6812e-15
-3.44638e-15
-3.20663e-15
-2.95467e-15
-2.69162e-15
-2.41696e-15
-2.1205e-15
-1.80191e-15
-1.46338e-15
-1.11489e-15
-7.22009e-16
-3.23463e-16
1.05241e-16
)
;

boundaryField
{
    inlet
    {
        type            cyclic;
    }
    outlet
    {
        type            cyclic;
    }
    top
    {
        type            fixedValue;
        value           uniform 0;
    }
    bottom
    {
        type            fixedFluxPressure;
        gradient        uniform 0.00296545;
        value           uniform -1.42053;
    }
    frontAndBackPlanes
    {
        type            empty;
    }
}


// ************************************************************************* //
