/*--------------------------------*- C++ -*----------------------------------*\
| =========                 |                                                 |
| \\      /  F ield         | OpenFOAM: The Open Source CFD Toolbox           |
|  \\    /   O peration     | Version:  v1906                                 |
|   \\  /    A nd           | Web:      www.OpenFOAM.com                      |
|    \\/     M anipulation  |                                                 |
\*---------------------------------------------------------------------------*/
FoamFile
{
    version     2.0;
    format      ascii;
    class       volScalarField;
    location    "1800";
    object      pa;
}
// * * * * * * * * * * * * * * * * * * * * * * * * * * * * * * * * * * * * * //

dimensions      [1 -1 -2 0 0 0 0];


internalField   nonuniform List<scalar> 
344
(
2.59031e-12
2.67468e-12
2.72989e-12
2.78955e-12
2.84896e-12
2.91142e-12
2.96497e-12
3.02871e-12
3.08061e-12
3.14108e-12
3.19303e-12
3.24915e-12
3.30025e-12
3.35221e-12
3.40102e-12
3.44896e-12
3.49432e-12
3.53783e-12
3.57892e-12
3.61739e-12
3.65322e-12
3.68612e-12
3.71572e-12
3.74209e-12
3.76473e-12
3.7835e-12
3.79812e-12
3.80838e-12
3.81383e-12
3.81431e-12
3.80955e-12
3.79891e-12
3.78249e-12
3.75961e-12
3.72984e-12
3.69311e-12
3.64875e-12
3.59626e-12
3.53553e-12
3.46577e-12
3.38672e-12
3.29798e-12
3.19895e-12
3.08859e-12
2.99777e-12
2.95757e-12
2.92796e-12
2.86569e-12
2.7697e-12
2.64752e-12
2.50953e-12
2.3657e-12
2.22166e-12
2.07863e-12
1.93713e-12
1.79775e-12
1.66088e-12
1.52712e-12
1.39693e-12
1.27068e-12
1.14894e-12
1.03206e-12
9.20323e-13
8.14161e-13
7.13829e-13
6.19522e-13
5.31451e-13
4.49805e-13
3.74632e-13
3.06003e-13
2.43947e-13
1.88359e-13
1.39123e-13
9.62488e-14
5.88599e-14
2.43712e-14
9.02419e-15
1.37392e-12
2.31848e-11
0.000186961
1.9037e-07
2.5771e-11
1.92761e-16
6.94619e-41
3.17108e-65
8.54727e-87
2.10108e-108
5.42065e-130
1.18512e-151
3.74336e-173
1.32105e-194
5.27048e-216
1.84633e-237
7.08149e-259
2.30127e-280
6.41916e-302
4.44659e-323
4.44659e-323
0
0
0
0
0
0
0
0
0
0
0
0
0
0
0
0
0
0
0
0
0
0
0
0
0
0
0
0
0
0
0
0
0
0
0
0
0
0
0
0
0
0
0
0
0
0
0
0
0
0
0
0
0
0
0
0
0
0
0
0
0
0
0
0
0
0
0
0
0
0
0
0
0
0
0
0
0
0
0
0
0
0
0
0
0
0
0
0
0
0
0
0
0
0
0
0
0
0
0
0
0
0
0
0
0
0
0
0
0
0
0
0
0
0
0
0
0
0
0
0
0
0
0
0
0
0
0
0
0
0
0
0
0
0
0
0
0
0
0
0
0
0
0
0
0
0
0
0
0
0
0
0
0
0
0
0
0
0
0
0
0
0
0
0
0
0
0
0
0
0
0
0
0
0
0
0
0
0
0
0
0
0
0
0
0
0
0
0
0
0
0
0
0
0
0
0
0
0
0
0
0
0
0
0
0
0
0
0
0
0
0
0
0
0
0
0
0
0
0
0
0
0
0
0
0
0
0
0
0
0
0
0
0
0
0
0
0
0
0
0
0
0
0
0
0
0
)
;

boundaryField
{
    inlet
    {
        type            cyclic;
    }
    outlet
    {
        type            cyclic;
    }
    top
    {
        type            zeroGradient;
    }
    bottom
    {
        type            zeroGradient;
    }
    frontAndBackPlanes
    {
        type            empty;
    }
}


// ************************************************************************* //
