/*--------------------------------*- C++ -*----------------------------------*\
| =========                 |                                                 |
| \\      /  F ield         | OpenFOAM: The Open Source CFD Toolbox           |
|  \\    /   O peration     | Version:  v1906                                 |
|   \\  /    A nd           | Web:      www.OpenFOAM.com                      |
|    \\/     M anipulation  |                                                 |
\*---------------------------------------------------------------------------*/
FoamFile
{
    version     2.0;
    format      ascii;
    class       surfaceScalarField;
    location    "1800";
    object      phia;
}
// * * * * * * * * * * * * * * * * * * * * * * * * * * * * * * * * * * * * * //

dimensions      [0 3 -1 0 0 0 0];
oriented        oriented;


internalField   nonuniform List<scalar> 
343
(
2.12074e-15
4.28436e-15
6.47207e-15
8.69118e-15
1.0937e-14
1.32142e-14
1.55165e-14
1.78498e-14
2.02083e-14
2.25959e-14
2.5009e-14
2.74495e-14
2.99152e-14
3.24068e-14
3.49229e-14
3.74634e-14
4.00274e-14
4.26144e-14
4.52235e-14
4.78538e-14
5.05047e-14
5.31751e-14
5.58641e-14
5.85705e-14
6.12933e-14
6.40313e-14
6.6783e-14
6.95472e-14
7.23223e-14
7.51066e-14
7.78985e-14
8.06959e-14
8.3497e-14
8.62995e-14
8.9101e-14
9.1899e-14
9.46906e-14
9.74729e-14
1.00242e-13
1.02996e-13
1.05729e-13
1.08437e-13
1.11117e-13
1.13762e-13
1.1638e-13
1.18994e-13
1.21608e-13
1.24208e-13
1.26779e-13
1.29308e-13
1.31785e-13
1.34207e-13
1.36569e-13
1.38871e-13
1.41109e-13
1.43281e-13
1.45386e-13
1.47422e-13
1.49385e-13
1.51275e-13
1.5309e-13
1.54827e-13
1.56485e-13
1.58062e-13
1.59556e-13
1.60967e-13
1.62291e-13
1.63527e-13
1.64674e-13
1.65728e-13
1.66688e-13
1.6755e-13
1.68309e-13
1.68958e-13
1.69484e-13
1.6984e-13
1.70063e-13
1.66947e-13
1.28425e-13
-1.03717e-09
-1.41379e-09
-4.56351e-09
-5.59398e-09
-5.39201e-09
-5.39616e-09
-5.39319e-09
-5.39538e-09
-5.39363e-09
-5.39501e-09
-5.39391e-09
-5.39476e-09
-5.39411e-09
-5.3946e-09
-5.39423e-09
-5.3945e-09
-5.3943e-09
-5.39445e-09
-5.39434e-09
-5.39442e-09
-5.39436e-09
-5.3944e-09
-5.39437e-09
-5.3944e-09
-5.39438e-09
-5.39439e-09
-5.39438e-09
-5.39439e-09
-5.39438e-09
-5.39439e-09
-5.39438e-09
-5.39439e-09
-5.39438e-09
-5.39438e-09
-5.39438e-09
-5.39438e-09
-5.39438e-09
-5.39438e-09
-5.39438e-09
-5.39438e-09
-5.39438e-09
-5.39438e-09
-5.39438e-09
-5.39438e-09
-5.39438e-09
-5.39438e-09
-5.39438e-09
-5.39438e-09
-5.39438e-09
-5.39438e-09
-5.39438e-09
-5.39438e-09
-5.39438e-09
-5.39438e-09
-5.39438e-09
-5.39438e-09
-5.39438e-09
-5.39438e-09
-5.39438e-09
-5.39438e-09
-5.39438e-09
-5.39438e-09
-5.39438e-09
-5.39438e-09
-5.39438e-09
-5.39438e-09
-5.39438e-09
-5.39438e-09
-5.39438e-09
-5.39438e-09
-5.39438e-09
-5.39438e-09
-5.39438e-09
-5.39438e-09
-5.39438e-09
-5.39438e-09
-5.39438e-09
-5.39438e-09
-5.39438e-09
-5.39438e-09
-5.39438e-09
-5.39438e-09
-5.39438e-09
-5.39438e-09
-5.39438e-09
-5.39438e-09
-5.39438e-09
-5.39438e-09
-5.39438e-09
-5.39438e-09
-5.39438e-09
-5.39438e-09
-5.39438e-09
-5.39438e-09
-5.39438e-09
-5.39438e-09
-5.39438e-09
-5.39438e-09
-5.39438e-09
-5.39438e-09
-5.39438e-09
-5.39438e-09
-5.39438e-09
-5.39438e-09
-5.39438e-09
-5.39438e-09
-5.39438e-09
-5.39438e-09
-5.39438e-09
-5.39438e-09
-5.39438e-09
-5.39438e-09
-5.39438e-09
-5.39438e-09
-5.39438e-09
-5.39438e-09
-5.39438e-09
-5.39438e-09
-5.39438e-09
-5.39438e-09
-5.39438e-09
-5.39438e-09
-5.39438e-09
-5.39438e-09
-5.39438e-09
-5.39438e-09
-5.39438e-09
-5.39438e-09
-5.39438e-09
-5.39438e-09
-5.39438e-09
-5.39438e-09
-5.39438e-09
-5.39438e-09
-5.39438e-09
-5.39438e-09
-5.39438e-09
-5.39438e-09
-5.39438e-09
-5.39438e-09
-5.39438e-09
-5.39438e-09
-5.39438e-09
-5.39438e-09
-5.39438e-09
-5.39438e-09
-5.39438e-09
-5.39438e-09
-5.39438e-09
-5.39438e-09
-5.39438e-09
-5.39438e-09
-5.39438e-09
-5.39438e-09
-5.39438e-09
-5.39438e-09
-5.39438e-09
-5.39438e-09
-5.39438e-09
-5.39438e-09
-5.39438e-09
-5.39438e-09
-5.39438e-09
-5.39438e-09
-5.39438e-09
-5.39438e-09
-5.39438e-09
-5.39438e-09
-5.39438e-09
-5.39438e-09
-5.39438e-09
-5.39438e-09
-5.39438e-09
-5.39438e-09
-5.39438e-09
-5.39438e-09
-5.39438e-09
-5.39438e-09
-5.39438e-09
-5.39438e-09
-5.39438e-09
-5.39438e-09
-5.39438e-09
-5.39438e-09
-5.39438e-09
-5.39438e-09
-5.39438e-09
-5.39438e-09
-5.39438e-09
-5.39438e-09
-5.39438e-09
-5.39438e-09
-5.39438e-09
-5.39438e-09
-5.39438e-09
-5.39438e-09
-5.39438e-09
-5.39438e-09
-5.39438e-09
-5.39438e-09
-5.39438e-09
-5.39438e-09
-5.39438e-09
-5.39438e-09
-5.39438e-09
-5.39438e-09
-5.39438e-09
-5.39438e-09
-5.39438e-09
-5.39438e-09
-5.39438e-09
-5.39438e-09
-5.39438e-09
-5.39438e-09
-5.39438e-09
-5.39438e-09
-5.39438e-09
-5.39438e-09
-5.39438e-09
-5.39438e-09
-5.39438e-09
-5.39438e-09
-5.39438e-09
-5.39438e-09
-5.39438e-09
-5.39438e-09
-5.39438e-09
-5.39438e-09
-5.39438e-09
-5.39438e-09
-5.39438e-09
-5.39438e-09
-5.39438e-09
-5.39438e-09
-5.39438e-09
-5.39438e-09
-5.39438e-09
-5.39438e-09
-5.39438e-09
-5.39438e-09
-5.39438e-09
-5.39438e-09
-5.39438e-09
-5.39438e-09
-5.39438e-09
-5.39438e-09
-5.39438e-09
-5.39438e-09
-5.39438e-09
-5.39438e-09
-5.39438e-09
-5.39438e-09
-5.39438e-09
-5.39438e-09
-5.39438e-09
-5.39438e-09
-5.39438e-09
-5.39438e-09
-5.39438e-09
-5.39438e-09
-5.39438e-09
-5.39438e-09
-5.39438e-09
-5.39438e-09
)
;

boundaryField
{
    inlet
    {
        type            cyclic;
        value           nonuniform List<scalar> 
344
(
4.62844e-29
5.56974e-29
-1.36785e-28
-2.41396e-28
-3.45867e-28
-4.50169e-28
-5.54273e-28
-6.58132e-28
-7.61699e-28
-8.64948e-28
-1.15469e-27
-1.44401e-27
-1.73284e-27
-2.11279e-27
-2.4921e-27
-2.77909e-27
-2.97371e-27
-3.16749e-27
-3.36038e-27
-3.55234e-27
-3.74332e-27
-3.93329e-27
-4.0312e-27
-4.12803e-27
-4.22377e-27
-4.31839e-27
-4.41189e-27
-4.50424e-27
-4.59543e-27
-4.68545e-27
-4.77428e-27
-4.8619e-27
-4.9483e-27
-5.03345e-27
-5.11736e-27
-5.19998e-27
-5.28132e-27
-5.2696e-27
-5.25661e-27
-5.2424e-27
-5.22702e-27
-5.2105e-27
-5.19289e-27
-5.17423e-27
-5.05991e-27
-4.89468e-27
-4.72412e-27
-4.54765e-27
-4.36492e-27
-4.17556e-27
-3.97917e-27
-3.84038e-27
-3.76376e-27
-3.68403e-27
-3.67399e-27
-3.66339e-27
-3.6522e-27
-3.64043e-27
-3.62805e-27
-3.61506e-27
-3.60143e-27
-3.68814e-27
-3.78021e-27
-3.93497e-27
-4.0402e-27
-4.15333e-27
-4.27556e-27
-4.40843e-27
-4.59455e-27
-4.75533e-27
-4.93456e-27
-5.02617e-27
-5.0683e-27
-5.11771e-27
-5.17727e-27
-5.25198e-27
-5.2798e-27
-5.324e-27
-5.27197e-27
-5.22986e-27
7.66779e-25
2.99184e-24
6.11119e-26
2.13965e-24
4.35143e-24
8.84895e-24
8.9617e-24
9.09866e-24
9.59021e-24
1.15865e-23
1.06747e-23
9.69917e-24
7.98427e-24
6.49228e-24
5.98399e-24
5.50669e-24
5.11776e-24
5.14246e-24
5.14862e-24
4.95126e-24
4.77532e-24
4.61767e-24
4.47396e-24
4.34084e-24
4.21576e-24
4.09662e-24
3.98169e-24
3.86993e-24
3.76362e-24
3.68301e-24
3.60129e-24
3.51809e-24
3.43313e-24
3.34614e-24
3.25694e-24
3.16547e-24
3.07175e-24
2.97591e-24
2.87834e-24
2.78037e-24
2.67972e-24
2.57791e-24
2.4753e-24
2.37255e-24
2.27198e-24
2.18458e-24
2.05893e-24
1.94044e-24
1.85933e-24
1.75978e-24
1.66181e-24
1.5657e-24
1.4717e-24
1.38e-24
1.2908e-24
1.20425e-24
1.12051e-24
1.03968e-24
9.61897e-25
8.87339e-25
8.16653e-25
7.53059e-25
6.76977e-25
6.18947e-25
5.61099e-25
5.10697e-25
4.52953e-25
4.03545e-25
3.59024e-25
3.22541e-25
2.68802e-25
2.26811e-25
2.0457e-25
1.89381e-25
1.36122e-25
9.17695e-26
8.88405e-26
8.02797e-26
3.98612e-26
6.64509e-27
7.9893e-27
-8.67779e-27
-2.20791e-26
-3.41248e-26
-4.47696e-26
-5.46509e-26
-6.1658e-26
-6.80548e-26
-7.49226e-26
-7.90531e-26
-8.29031e-26
-8.58837e-26
-8.7944e-26
-8.85127e-26
-7.38503e-26
-9.42103e-26
-1.07655e-25
-8.77069e-26
-6.77007e-26
-9.03777e-26
-9.16893e-26
-8.38169e-26
-7.66795e-26
-8.37293e-26
-1.00699e-25
-7.34463e-26
-5.19812e-26
-7.37224e-26
-7.5559e-26
-6.41355e-26
-7.56507e-26
-6.24475e-26
-6.10317e-26
-3.85064e-26
-5.2968e-26
-4.72989e-26
-4.89596e-26
-5.83554e-26
-4.0666e-26
-3.44572e-26
-4.08948e-26
-2.68457e-26
-3.35861e-26
-3.14892e-26
-3.09309e-26
-2.87511e-26
-2.59031e-26
-2.33485e-26
-2.38702e-26
-2.2224e-26
-2.06311e-26
-1.94501e-26
-1.79078e-26
-1.66358e-26
-1.63907e-26
-1.54004e-26
-1.69404e-26
-3.38053e-26
-9.85184e-27
-7.17774e-27
1.09239e-26
-1.09862e-26
-8.87917e-27
-8.38562e-27
-8.22992e-27
-1.10855e-26
-2.78854e-26
-5.83002e-28
1.47729e-26
-5.23157e-27
-4.83581e-27
-4.54172e-27
-4.62268e-27
-8.0325e-27
-2.49624e-26
2.95733e-27
1.71631e-26
-2.8258e-27
-2.53179e-27
-2.41226e-27
-2.72266e-27
-5.7262e-27
-2.31312e-26
-3.83425e-29
2.50353e-27
1.86474e-26
-1.22913e-27
-1.20544e-27
-1.17784e-27
-1.57325e-27
-4.96681e-27
-2.21943e-26
5.18814e-27
1.93617e-26
-5.79651e-28
-5.99605e-28
-5.91508e-28
-9.54211e-28
-4.64097e-27
-2.03954e-26
3.96038e-27
2.04425e-26
-7.30383e-28
-3.04296e-28
-3.593e-28
-9.65415e-28
-3.92144e-27
-2.054e-26
4.93769e-28
2.80435e-27
2.14571e-26
-6.18523e-28
-6.88424e-29
-2.13312e-28
-6.38296e-28
-4.30277e-27
-2.15375e-26
6.10614e-27
2.13998e-26
-4.79662e-27
-2.27161e-26
1.22535e-27
-4.41372e-29
-4.20637e-29
-3.79209e-29
-3.44794e-29
-3.09861e-29
-2.7949e-29
-2.52127e-29
-2.26169e-29
-2.06037e-29
-1.86108e-29
-1.66964e-29
-1.50378e-29
-1.35011e-29
-1.22772e-29
-1.09421e-29
-9.85467e-30
-8.79069e-30
-8.03155e-30
-7.08971e-30
-6.46442e-30
-5.7275e-30
-5.15179e-30
-4.61428e-30
-4.15033e-30
-3.67109e-30
-3.31946e-30
-2.96561e-30
-2.64956e-30
-2.36507e-30
-2.10598e-30
-1.87298e-30
-1.67886e-30
-1.50814e-30
-1.32977e-30
-1.1823e-30
-1.06176e-30
-9.48756e-31
-8.30445e-31
-7.42362e-31
-6.61452e-31
-5.91628e-31
-5.21981e-31
-4.61207e-31
-4.11624e-31
-3.6704e-31
-3.24728e-31
-2.88102e-31
-2.55997e-31
-2.28038e-31
-2.03242e-31
-1.81552e-31
-1.6292e-31
-1.45901e-31
-1.31098e-31
-1.19457e-31
-1.09523e-31
-1.01563e-31
-9.4e-32
-8.86094e-32
-8.50289e-32
-8.26727e-32
-8.14701e-32
)
;
    }
    outlet
    {
        type            cyclic;
        value           nonuniform List<scalar> 
344
(
-4.62844e-29
-5.56974e-29
1.36785e-28
2.41396e-28
3.45867e-28
4.50169e-28
5.54273e-28
6.58132e-28
7.61699e-28
8.64948e-28
1.15469e-27
1.44401e-27
1.73284e-27
2.11279e-27
2.4921e-27
2.77909e-27
2.97371e-27
3.16749e-27
3.36038e-27
3.55234e-27
3.74332e-27
3.93329e-27
4.0312e-27
4.12803e-27
4.22377e-27
4.31839e-27
4.41189e-27
4.50424e-27
4.59543e-27
4.68545e-27
4.77428e-27
4.8619e-27
4.9483e-27
5.03345e-27
5.11736e-27
5.19998e-27
5.28132e-27
5.2696e-27
5.25661e-27
5.2424e-27
5.22702e-27
5.2105e-27
5.19289e-27
5.17423e-27
5.05991e-27
4.89468e-27
4.72412e-27
4.54765e-27
4.36492e-27
4.17556e-27
3.97917e-27
3.84038e-27
3.76376e-27
3.68403e-27
3.67399e-27
3.66339e-27
3.6522e-27
3.64043e-27
3.62805e-27
3.61506e-27
3.60143e-27
3.68814e-27
3.78021e-27
3.93497e-27
4.0402e-27
4.15333e-27
4.27556e-27
4.40843e-27
4.59455e-27
4.75533e-27
4.93456e-27
5.02617e-27
5.0683e-27
5.11771e-27
5.17727e-27
5.25198e-27
5.2798e-27
5.324e-27
5.27197e-27
5.22986e-27
-7.66779e-25
-2.99184e-24
-6.11119e-26
-2.13965e-24
-4.35143e-24
-8.84895e-24
-8.9617e-24
-9.09866e-24
-9.59021e-24
-1.15865e-23
-1.06747e-23
-9.69917e-24
-7.98427e-24
-6.49228e-24
-5.98399e-24
-5.50669e-24
-5.11776e-24
-5.14246e-24
-5.14862e-24
-4.95126e-24
-4.77532e-24
-4.61767e-24
-4.47396e-24
-4.34084e-24
-4.21576e-24
-4.09662e-24
-3.98169e-24
-3.86993e-24
-3.76362e-24
-3.68301e-24
-3.60129e-24
-3.51809e-24
-3.43313e-24
-3.34614e-24
-3.25694e-24
-3.16547e-24
-3.07175e-24
-2.97591e-24
-2.87834e-24
-2.78037e-24
-2.67972e-24
-2.57791e-24
-2.4753e-24
-2.37255e-24
-2.27198e-24
-2.18458e-24
-2.05893e-24
-1.94044e-24
-1.85933e-24
-1.75978e-24
-1.66181e-24
-1.5657e-24
-1.4717e-24
-1.38e-24
-1.2908e-24
-1.20425e-24
-1.12051e-24
-1.03968e-24
-9.61897e-25
-8.87339e-25
-8.16653e-25
-7.53059e-25
-6.76977e-25
-6.18947e-25
-5.61099e-25
-5.10697e-25
-4.52953e-25
-4.03545e-25
-3.59024e-25
-3.22541e-25
-2.68802e-25
-2.26811e-25
-2.0457e-25
-1.89381e-25
-1.36122e-25
-9.17695e-26
-8.88405e-26
-8.02797e-26
-3.98612e-26
-6.64509e-27
-7.9893e-27
8.67779e-27
2.20791e-26
3.41248e-26
4.47696e-26
5.46509e-26
6.1658e-26
6.80548e-26
7.49226e-26
7.90531e-26
8.29031e-26
8.58837e-26
8.7944e-26
8.85127e-26
7.38503e-26
9.42103e-26
1.07655e-25
8.77069e-26
6.77007e-26
9.03777e-26
9.16893e-26
8.38169e-26
7.66795e-26
8.37293e-26
1.00699e-25
7.34463e-26
5.19812e-26
7.37224e-26
7.5559e-26
6.41355e-26
7.56507e-26
6.24475e-26
6.10317e-26
3.85064e-26
5.2968e-26
4.72989e-26
4.89596e-26
5.83554e-26
4.0666e-26
3.44572e-26
4.08948e-26
2.68457e-26
3.35861e-26
3.14892e-26
3.09309e-26
2.87511e-26
2.59031e-26
2.33485e-26
2.38702e-26
2.2224e-26
2.06311e-26
1.94501e-26
1.79078e-26
1.66358e-26
1.63907e-26
1.54004e-26
1.69404e-26
3.38053e-26
9.85184e-27
7.17774e-27
-1.09239e-26
1.09862e-26
8.87917e-27
8.38562e-27
8.22992e-27
1.10855e-26
2.78854e-26
5.83002e-28
-1.47729e-26
5.23157e-27
4.83581e-27
4.54172e-27
4.62268e-27
8.0325e-27
2.49624e-26
-2.95733e-27
-1.71631e-26
2.8258e-27
2.53179e-27
2.41226e-27
2.72266e-27
5.7262e-27
2.31312e-26
3.83425e-29
-2.50353e-27
-1.86474e-26
1.22913e-27
1.20544e-27
1.17784e-27
1.57325e-27
4.96681e-27
2.21943e-26
-5.18814e-27
-1.93617e-26
5.79651e-28
5.99605e-28
5.91508e-28
9.54211e-28
4.64097e-27
2.03954e-26
-3.96038e-27
-2.04425e-26
7.30383e-28
3.04296e-28
3.593e-28
9.65415e-28
3.92144e-27
2.054e-26
-4.93769e-28
-2.80435e-27
-2.14571e-26
6.18523e-28
6.88424e-29
2.13312e-28
6.38296e-28
4.30277e-27
2.15375e-26
-6.10614e-27
-2.13998e-26
4.79662e-27
2.27161e-26
-1.22535e-27
4.41372e-29
4.20637e-29
3.79209e-29
3.44794e-29
3.09861e-29
2.7949e-29
2.52127e-29
2.26169e-29
2.06037e-29
1.86108e-29
1.66964e-29
1.50378e-29
1.35011e-29
1.22772e-29
1.09421e-29
9.85467e-30
8.79069e-30
8.03155e-30
7.08971e-30
6.46442e-30
5.7275e-30
5.15179e-30
4.61428e-30
4.15033e-30
3.67109e-30
3.31946e-30
2.96561e-30
2.64956e-30
2.36507e-30
2.10598e-30
1.87298e-30
1.67886e-30
1.50814e-30
1.32977e-30
1.1823e-30
1.06176e-30
9.48756e-31
8.30445e-31
7.42362e-31
6.61452e-31
5.91628e-31
5.21981e-31
4.61207e-31
4.11624e-31
3.6704e-31
3.24728e-31
2.88102e-31
2.55997e-31
2.28038e-31
2.03242e-31
1.81552e-31
1.6292e-31
1.45901e-31
1.31098e-31
1.19457e-31
1.09523e-31
1.01563e-31
9.4e-32
8.86094e-32
8.50289e-32
8.26727e-32
8.14701e-32
)
;
    }
    top
    {
        type            calculated;
        value           uniform -5.39438e-09;
    }
    bottom
    {
        type            fixedValue;
        value           uniform 0;
    }
    frontAndBackPlanes
    {
        type            empty;
        value           nonuniform 0();
    }
}


// ************************************************************************* //
