/*--------------------------------*- C++ -*----------------------------------*\
| =========                 |                                                 |
| \\      /  F ield         | OpenFOAM: The Open Source CFD Toolbox           |
|  \\    /   O peration     | Version:  v1906                                 |
|   \\  /    A nd           | Web:      www.OpenFOAM.com                      |
|    \\/     M anipulation  |                                                 |
\*---------------------------------------------------------------------------*/
FoamFile
{
    version     2.0;
    format      ascii;
    class       surfaceScalarField;
    location    "1800";
    object      phib;
}
// * * * * * * * * * * * * * * * * * * * * * * * * * * * * * * * * * * * * * //

dimensions      [0 3 -1 0 0 0 0];
oriented        oriented;


internalField   nonuniform List<scalar> 
343
(
-2.96923e-15
-5.99617e-15
-9.05486e-15
-1.21548e-14
-1.52902e-14
-1.84664e-14
-2.16758e-14
-2.49254e-14
-2.82077e-14
-3.15277e-14
-3.48806e-14
-3.82685e-14
-4.16887e-14
-4.51416e-14
-4.86256e-14
-5.21402e-14
-5.56839e-14
-5.9256e-14
-6.28551e-14
-6.64801e-14
-7.01295e-14
-7.38019e-14
-7.74959e-14
-8.12097e-14
-8.49417e-14
-8.869e-14
-9.24525e-14
-9.62272e-14
-1.00012e-13
-1.03804e-13
-1.076e-13
-1.11399e-13
-1.15197e-13
-1.1899e-13
-1.22775e-13
-1.26549e-13
-1.30306e-13
-1.34043e-13
-1.37755e-13
-1.41437e-13
-1.45082e-13
-1.48684e-13
-1.52237e-13
-1.55732e-13
-1.59179e-13
-1.62606e-13
-1.66018e-13
-1.69395e-13
-1.72716e-13
-1.75963e-13
-1.79123e-13
-1.82189e-13
-1.85158e-13
-1.88026e-13
-1.90787e-13
-1.93439e-13
-1.95977e-13
-1.98397e-13
-2.00694e-13
-2.02864e-13
-2.04902e-13
-2.06803e-13
-2.08561e-13
-2.10171e-13
-2.11624e-13
-2.12915e-13
-2.14032e-13
-2.14966e-13
-2.15701e-13
-2.1622e-13
-2.16499e-13
-2.16504e-13
-2.16186e-13
-2.15469e-13
-2.14219e-13
-2.12141e-13
-2.08891e-13
-1.93505e-13
-6.16152e-14
6.94625e-11
1.41602e-12
1.82155e-14
-1.39619e-19
-1.56098e-19
-1.90511e-19
-2.00972e-19
-2.13847e-19
-2.06647e-19
-2.60044e-19
-2.86988e-19
-3.16789e-19
-3.06508e-19
-3.31648e-19
-3.14603e-19
-3.00056e-19
-2.50614e-19
-2.54936e-19
-2.30647e-19
-2.08393e-19
-1.60183e-19
-1.28796e-19
-8.31491e-20
-3.812e-20
-1.69904e-20
4.4664e-20
7.24851e-20
1.00395e-19
1.17182e-19
1.45069e-19
1.58958e-19
1.73874e-19
1.74775e-19
2.02175e-19
2.13471e-19
2.25946e-19
2.19271e-19
2.29247e-19
2.2019e-19
2.12676e-19
1.91704e-19
2.06124e-19
2.07973e-19
2.11302e-19
1.97856e-19
1.98567e-19
1.83665e-19
1.69645e-19
1.43477e-19
1.35447e-19
1.18205e-19
1.01612e-19
7.75679e-20
5.75809e-20
3.47552e-20
1.23169e-20
2.33873e-20
-1.3843e-20
-1.54783e-20
-1.68794e-20
-1.56064e-20
-1.65464e-20
-1.59137e-20
-1.53673e-20
-1.38305e-20
-1.43338e-20
-1.39952e-20
-1.37219e-20
-1.27385e-20
-1.23403e-20
-1.13547e-20
-1.04199e-20
-9.17111e-21
-9.01966e-21
-8.65348e-21
-8.33022e-21
-7.68659e-21
-7.30824e-21
-6.66581e-21
-6.03783e-21
-5.21718e-21
-4.67817e-21
-4.00335e-21
-3.338e-21
-2.58027e-21
-1.85345e-21
-1.12062e-21
-3.98989e-22
-8.45775e-22
3.51882e-22
3.58724e-22
3.56115e-22
2.96019e-22
2.82084e-22
2.48666e-22
2.16e-22
1.78552e-22
1.61033e-22
1.41355e-22
1.21886e-22
1.06651e-22
8.79223e-23
7.42039e-23
6.03028e-23
5.17944e-23
3.88461e-23
3.11676e-23
2.33012e-23
2.037e-23
1.34364e-23
1.10437e-23
8.3994e-24
9.30094e-24
4.86922e-24
3.10411e-24
1.14957e-24
1.44573e-24
2.34671e-25
2.36664e-25
2.19162e-25
1.80335e-24
1.01402e-24
1.26369e-24
1.53555e-24
1.52158e-24
1.71717e-24
1.68629e-24
1.66893e-24
1.49107e-24
1.55885e-24
1.52183e-24
1.4939e-24
1.37268e-24
1.32194e-24
1.2093e-24
1.10113e-24
9.62993e-25
9.1237e-25
8.49159e-25
7.89055e-25
7.15695e-25
6.53958e-25
5.83863e-25
5.14445e-25
4.40763e-25
3.72283e-25
2.94142e-25
2.17087e-25
1.3049e-25
3.80813e-26
-6.63688e-26
-1.62799e-25
9.68106e-25
-2.04663e-25
-1.52713e-25
-9.25681e-26
-5.07154e-26
-8.31452e-27
1.5509e-26
4.09832e-26
4.90041e-26
7.40242e-26
8.71826e-26
1.01504e-25
1.00574e-25
1.12583e-25
1.11625e-25
1.11658e-25
1.01502e-25
1.1138e-25
1.11259e-25
1.12113e-25
1.00505e-25
1.01271e-25
8.76287e-26
7.50976e-26
5.13442e-26
4.39211e-26
2.00433e-26
-2.24028e-27
-4.24426e-26
-8.09695e-26
-1.39116e-25
-1.8981e-25
9.07867e-25
-1.90111e-25
-1.39716e-25
-8.18689e-26
-4.36278e-26
-3.73584e-27
1.82746e-26
4.18742e-26
4.90898e-26
7.24571e-26
8.47215e-26
9.8088e-26
9.72288e-26
1.08534e-25
1.07659e-25
1.07732e-25
9.81552e-26
1.07749e-25
1.07691e-25
1.08581e-25
9.72842e-26
9.816e-26
8.47978e-26
7.25388e-26
4.91695e-26
4.19644e-26
1.8357e-26
-3.65963e-27
-4.35746e-26
-8.18548e-26
-1.39725e-25
-1.90132e-25
9.0914e-25
-1.89214e-25
-1.37744e-25
-7.88209e-26
-3.90699e-26
1.80702e-27
2.55082e-26
5.07363e-26
6.06779e-26
8.44978e-26
9.86075e-26
1.1373e-25
1.16511e-25
1.29172e-25
1.32585e-25
1.36626e-25
1.34208e-25
1.44265e-25
1.48988e-25
1.54241e-25
1.54203e-25
1.5862e-25
1.58722e-25
1.59087e-25
1.55399e-25
1.59098e-25
1.58736e-25
1.58639e-25
1.542e-25
1.54252e-25
1.48959e-25
1.44201e-25
1.34027e-25
1.36521e-25
1.32416e-25
1.28947e-25
1.16012e-25
1.13181e-25
9.76945e-26
8.32358e-26
5.8773e-26
4.84269e-26
2.23852e-26
-2.12221e-27
-4.39623e-26
-8.52464e-26
-1.44747e-25
-1.97119e-25
)
;

boundaryField
{
    inlet
    {
        type            cyclic;
        value           nonuniform List<scalar> 
344
(
-2.95632e-28
-1.98165e-27
1.56906e-27
-2.34816e-28
-3.45842e-28
-4.5021e-28
-5.54272e-28
-6.58244e-28
-8.13334e-28
-1.44871e-26
-1.20639e-27
-1.47859e-27
-1.08542e-26
-2.10677e-27
8.252e-27
8.76312e-27
-2.93049e-27
-3.16733e-27
-3.36038e-27
-3.55211e-27
-3.68237e-27
1.25163e-26
-3.97033e-27
-4.12781e-27
-4.22377e-27
-4.31839e-27
-4.41189e-27
-4.50424e-27
-4.59543e-27
-4.68545e-27
-4.77428e-27
-4.8619e-27
-4.9483e-27
-5.03345e-27
-5.11698e-27
-5.09453e-27
2.41855e-26
-5.16432e-27
-5.25624e-27
-5.2424e-27
-5.22701e-27
-5.21006e-27
-5.06846e-27
3.03017e-26
1.31762e-26
-4.83105e-27
-4.72388e-27
-4.54763e-27
-4.36515e-27
-4.24576e-27
-2.45285e-26
-2.47598e-26
-3.90799e-27
-2.52436e-26
-3.74645e-27
-3.66363e-27
-3.6522e-27
-3.64042e-27
-3.6283e-27
-3.69183e-27
-2.72773e-26
-3.80316e-27
-1.58223e-26
8.2173e-27
-4.00179e-27
-4.15329e-27
-4.29479e-27
-1.06647e-26
1.69565e-27
-4.69848e-27
7.80763e-27
1.39072e-27
-5.04962e-27
-5.11766e-27
-5.16864e-27
-2.07184e-27
-5.26764e-27
-3.74393e-27
-6.67342e-27
6.06384e-29
5.78562e-25
1.43761e-24
-1.94114e-25
1.66094e-24
3.34327e-24
8.83676e-24
8.93124e-24
8.98855e-24
9.14235e-24
1.17964e-23
1.08934e-23
1.00846e-23
8.31699e-24
6.60365e-24
6.09064e-24
5.59336e-24
5.11133e-24
5.14127e-24
5.1933e-24
4.99062e-24
4.81058e-24
4.64981e-24
4.50373e-24
4.36881e-24
4.2424e-24
4.12232e-24
4.00668e-24
3.89367e-24
3.78158e-24
3.70128e-24
3.61988e-24
3.53708e-24
3.45257e-24
3.36608e-24
3.27739e-24
3.18642e-24
3.09317e-24
2.99773e-24
2.90024e-24
2.80287e-24
2.70248e-24
2.60085e-24
2.49829e-24
2.39511e-24
2.29165e-24
2.18824e-24
2.0852e-24
1.98293e-24
1.88167e-24
1.78169e-24
1.6833e-24
1.58672e-24
1.4922e-24
1.39995e-24
1.31015e-24
1.22298e-24
1.13858e-24
1.05708e-24
9.7857e-25
9.03143e-25
8.30857e-25
7.61756e-25
6.95864e-25
6.3319e-25
5.73726e-25
5.17451e-25
4.64329e-25
4.14313e-25
3.67344e-25
3.23356e-25
2.82271e-25
2.44006e-25
2.08471e-25
1.7557e-25
1.45203e-25
1.17267e-25
9.16568e-26
6.8264e-26
4.69803e-26
2.7697e-26
1.03054e-26
-5.30214e-27
-1.92318e-26
-3.1588e-26
-4.24729e-26
-5.1986e-26
-6.02239e-26
-6.72802e-26
-7.32448e-26
-7.82043e-26
-8.22415e-26
-8.54356e-26
-8.78617e-26
-8.95913e-26
-9.06918e-26
-9.12269e-26
-9.12564e-26
-9.08363e-26
-9.0019e-26
-8.88534e-26
-8.73846e-26
-8.56548e-26
-8.37025e-26
-8.15633e-26
-7.92698e-26
-7.68519e-26
-7.43364e-26
-7.1748e-26
-6.91088e-26
-6.64385e-26
-6.37549e-26
-6.10736e-26
-5.84086e-26
-5.5772e-26
-5.31743e-26
-5.06247e-26
-4.81308e-26
-4.56991e-26
-4.3335e-26
-4.10429e-26
-3.88261e-26
-3.66873e-26
-3.46282e-26
-3.26499e-26
-3.07531e-26
-2.89377e-26
-2.72033e-26
-2.5549e-26
-2.39737e-26
-2.24757e-26
-2.10535e-26
-1.9705e-26
-1.8428e-26
-1.72204e-26
-1.60798e-26
-1.50036e-26
-1.39894e-26
-1.30347e-26
-1.21369e-26
-1.12934e-26
-1.05018e-26
-9.75958e-27
-9.06423e-27
-8.41339e-27
-7.80472e-27
-7.23597e-27
-6.70493e-27
-6.20949e-27
-5.7476e-27
-5.3173e-27
-4.91672e-27
-4.54405e-27
-4.19758e-27
-3.87567e-27
-3.57677e-27
-3.29941e-27
-3.04217e-27
-2.80375e-27
-2.58288e-27
-2.37838e-27
-2.18915e-27
-2.01414e-27
-1.85235e-27
-1.70286e-27
-1.5648e-27
-1.43737e-27
-1.31979e-27
-1.21136e-27
-1.11141e-27
-1.01931e-27
-9.3448e-28
-8.56388e-28
-7.84524e-28
-7.1842e-28
-6.57638e-28
-6.01772e-28
-5.50445e-28
-5.03308e-28
-4.60034e-28
-4.20323e-28
-3.83895e-28
-3.50493e-28
-3.19875e-28
-2.91822e-28
-2.66127e-28
-2.42602e-28
-2.21071e-28
-2.01373e-28
-1.83359e-28
-1.66892e-28
-1.51843e-28
-1.38096e-28
-1.25544e-28
-1.14087e-28
-1.03634e-28
-9.40995e-29
-8.54074e-29
-7.74861e-29
-7.02701e-29
-6.36994e-29
-5.77186e-29
-5.22769e-29
-4.7328e-29
-4.28289e-29
-3.87406e-29
-3.50271e-29
-3.16556e-29
-2.85957e-29
-2.582e-29
-2.33032e-29
-2.1022e-29
-1.89555e-29
-1.70841e-29
-1.53904e-29
-1.3858e-29
-1.24723e-29
-1.12199e-29
-1.00883e-29
-9.06657e-30
-8.14434e-30
-7.31235e-30
-6.56215e-30
-5.88601e-30
-5.27693e-30
-4.72852e-30
-4.235e-30
-3.79109e-30
-3.392e-30
-3.0334e-30
-2.71134e-30
-2.42225e-30
-2.1629e-30
-1.93034e-30
-1.72192e-30
-1.53524e-30
-1.36812e-30
-1.21861e-30
-1.08491e-30
-9.65437e-31
-8.58738e-31
-7.63509e-31
-6.78576e-31
-6.02881e-31
-5.35473e-31
-4.75496e-31
-4.22182e-31
-3.74842e-31
-3.32858e-31
-2.95678e-31
-2.62809e-31
-2.33811e-31
-2.08293e-31
-1.85907e-31
-1.66346e-31
-1.49342e-31
-1.34656e-31
-1.22085e-31
-1.11451e-31
-1.02603e-31
-9.5417e-32
-8.97892e-32
-8.56393e-32
-8.29077e-32
-8.15547e-32
)
;
    }
    outlet
    {
        type            cyclic;
        value           nonuniform List<scalar> 
344
(
2.95632e-28
1.98165e-27
-1.56906e-27
2.34816e-28
3.45842e-28
4.5021e-28
5.54272e-28
6.58244e-28
8.13334e-28
1.44871e-26
1.20639e-27
1.47859e-27
1.08542e-26
2.10677e-27
-8.252e-27
-8.76312e-27
2.93049e-27
3.16733e-27
3.36038e-27
3.55211e-27
3.68237e-27
-1.25163e-26
3.97033e-27
4.12781e-27
4.22377e-27
4.31839e-27
4.41189e-27
4.50424e-27
4.59543e-27
4.68545e-27
4.77428e-27
4.8619e-27
4.9483e-27
5.03345e-27
5.11698e-27
5.09453e-27
-2.41855e-26
5.16432e-27
5.25624e-27
5.2424e-27
5.22701e-27
5.21006e-27
5.06846e-27
-3.03017e-26
-1.31762e-26
4.83105e-27
4.72388e-27
4.54763e-27
4.36515e-27
4.24576e-27
2.45285e-26
2.47598e-26
3.90799e-27
2.52436e-26
3.74645e-27
3.66363e-27
3.6522e-27
3.64042e-27
3.6283e-27
3.69183e-27
2.72773e-26
3.80316e-27
1.58223e-26
-8.2173e-27
4.00179e-27
4.15329e-27
4.29479e-27
1.06647e-26
-1.69565e-27
4.69848e-27
-7.80763e-27
-1.39072e-27
5.04962e-27
5.11766e-27
5.16864e-27
2.07184e-27
5.26764e-27
3.74393e-27
6.67342e-27
-6.06384e-29
-5.78562e-25
-1.43761e-24
1.94114e-25
-1.66094e-24
-3.34327e-24
-8.83676e-24
-8.93124e-24
-8.98855e-24
-9.14235e-24
-1.17964e-23
-1.08934e-23
-1.00846e-23
-8.31699e-24
-6.60365e-24
-6.09064e-24
-5.59336e-24
-5.11133e-24
-5.14127e-24
-5.1933e-24
-4.99062e-24
-4.81058e-24
-4.64981e-24
-4.50373e-24
-4.36881e-24
-4.2424e-24
-4.12232e-24
-4.00668e-24
-3.89367e-24
-3.78158e-24
-3.70128e-24
-3.61988e-24
-3.53708e-24
-3.45257e-24
-3.36608e-24
-3.27739e-24
-3.18642e-24
-3.09317e-24
-2.99773e-24
-2.90024e-24
-2.80287e-24
-2.70248e-24
-2.60085e-24
-2.49829e-24
-2.39511e-24
-2.29165e-24
-2.18824e-24
-2.0852e-24
-1.98293e-24
-1.88167e-24
-1.78169e-24
-1.6833e-24
-1.58672e-24
-1.4922e-24
-1.39995e-24
-1.31015e-24
-1.22298e-24
-1.13858e-24
-1.05708e-24
-9.7857e-25
-9.03143e-25
-8.30857e-25
-7.61756e-25
-6.95864e-25
-6.3319e-25
-5.73726e-25
-5.17451e-25
-4.64329e-25
-4.14313e-25
-3.67344e-25
-3.23356e-25
-2.82271e-25
-2.44006e-25
-2.08471e-25
-1.7557e-25
-1.45203e-25
-1.17267e-25
-9.16568e-26
-6.8264e-26
-4.69803e-26
-2.7697e-26
-1.03054e-26
5.30214e-27
1.92318e-26
3.1588e-26
4.24729e-26
5.1986e-26
6.02239e-26
6.72802e-26
7.32448e-26
7.82043e-26
8.22415e-26
8.54356e-26
8.78617e-26
8.95913e-26
9.06918e-26
9.12269e-26
9.12564e-26
9.08363e-26
9.0019e-26
8.88534e-26
8.73846e-26
8.56548e-26
8.37025e-26
8.15633e-26
7.92698e-26
7.68519e-26
7.43364e-26
7.1748e-26
6.91088e-26
6.64385e-26
6.37549e-26
6.10736e-26
5.84086e-26
5.5772e-26
5.31743e-26
5.06247e-26
4.81308e-26
4.56991e-26
4.3335e-26
4.10429e-26
3.88261e-26
3.66873e-26
3.46282e-26
3.26499e-26
3.07531e-26
2.89377e-26
2.72033e-26
2.5549e-26
2.39737e-26
2.24757e-26
2.10535e-26
1.9705e-26
1.8428e-26
1.72204e-26
1.60798e-26
1.50036e-26
1.39894e-26
1.30347e-26
1.21369e-26
1.12934e-26
1.05018e-26
9.75958e-27
9.06423e-27
8.41339e-27
7.80472e-27
7.23597e-27
6.70493e-27
6.20949e-27
5.7476e-27
5.3173e-27
4.91672e-27
4.54405e-27
4.19758e-27
3.87567e-27
3.57677e-27
3.29941e-27
3.04217e-27
2.80375e-27
2.58288e-27
2.37838e-27
2.18915e-27
2.01414e-27
1.85235e-27
1.70286e-27
1.5648e-27
1.43737e-27
1.31979e-27
1.21136e-27
1.11141e-27
1.01931e-27
9.3448e-28
8.56388e-28
7.84524e-28
7.1842e-28
6.57638e-28
6.01772e-28
5.50445e-28
5.03308e-28
4.60034e-28
4.20323e-28
3.83895e-28
3.50493e-28
3.19875e-28
2.91822e-28
2.66127e-28
2.42602e-28
2.21071e-28
2.01373e-28
1.83359e-28
1.66892e-28
1.51843e-28
1.38096e-28
1.25544e-28
1.14087e-28
1.03634e-28
9.40995e-29
8.54074e-29
7.74861e-29
7.02701e-29
6.36994e-29
5.77186e-29
5.22769e-29
4.7328e-29
4.28289e-29
3.87406e-29
3.50271e-29
3.16556e-29
2.85957e-29
2.582e-29
2.33032e-29
2.1022e-29
1.89555e-29
1.70841e-29
1.53904e-29
1.3858e-29
1.24723e-29
1.12199e-29
1.00883e-29
9.06657e-30
8.14434e-30
7.31235e-30
6.56215e-30
5.88601e-30
5.27693e-30
4.72852e-30
4.235e-30
3.79109e-30
3.392e-30
3.0334e-30
2.71134e-30
2.42225e-30
2.1629e-30
1.93034e-30
1.72192e-30
1.53524e-30
1.36812e-30
1.21861e-30
1.08491e-30
9.65437e-31
8.58738e-31
7.63509e-31
6.78576e-31
6.02881e-31
5.35473e-31
4.75496e-31
4.22182e-31
3.74842e-31
3.32858e-31
2.95678e-31
2.62809e-31
2.33811e-31
2.08293e-31
1.85907e-31
1.66346e-31
1.49342e-31
1.34656e-31
1.22085e-31
1.11451e-31
1.02603e-31
9.5417e-32
8.97892e-32
8.56393e-32
8.29077e-32
8.15547e-32
)
;
    }
    top
    {
        type            calculated;
        value           uniform 9.24294e-25;
    }
    bottom
    {
        type            fixedValue;
        value           uniform 0;
    }
    frontAndBackPlanes
    {
        type            empty;
        value           nonuniform 0();
    }
}


// ************************************************************************* //
