/*--------------------------------*- C++ -*----------------------------------*\
| =========                 |                                                 |
| \\      /  F ield         | OpenFOAM: The Open Source CFD Toolbox           |
|  \\    /   O peration     | Version:  v1906                                 |
|   \\  /    A nd           | Web:      www.OpenFOAM.com                      |
|    \\/     M anipulation  |                                                 |
\*---------------------------------------------------------------------------*/
FoamFile
{
    version     2.0;
    format      ascii;
    class       volTensorField;
    location    "1800";
    object      Taua;
}
// * * * * * * * * * * * * * * * * * * * * * * * * * * * * * * * * * * * * * //

dimensions      [1 -1 -2 0 0 0 0];


internalField   nonuniform List<tensor> 
344
(
(-11.8561 0 0 -2.46297e-13 23.7122 0 0 0 -11.8561)
(-12.0958 0 0 4.42133e-13 24.1915 0 0 0 -12.0958)
(-12.2305 0 0 7.17514e-13 24.461 0 0 0 -12.2305)
(-12.406 0 0 5.04957e-13 24.812 0 0 0 -12.406)
(-12.5553 1.05844e-13 0 5.0421e-13 25.1106 0 0 0 -12.5553)
(-12.7306 0 0 5.03322e-13 25.4611 0 0 0 -12.7306)
(-12.8714 0 0 5.02254e-13 25.7427 0 0 0 -12.8714)
(-13.0446 0 0 5.00958e-13 26.0892 0 0 0 -13.0446)
(-13.1849 2.11687e-13 0 4.99482e-13 26.3698 0 0 0 -13.1849)
(-13.3483 0 0 9.49114e-13 26.6965 0 0 0 -13.3483)
(-13.4905 0 0 1.39849e-12 26.9809 0 0 0 -13.4905)
(-13.6434 0 0 1.39629e-12 27.2869 0 0 0 -13.6434)
(-13.7849 0 0 1.61518e-12 27.5698 0 0 0 -13.7849)
(-13.929 0 0 1.8337e-12 27.8581 0 0 0 -13.929)
(-14.0666 0 0 1.60919e-12 28.1331 0 0 0 -14.0666)
(-14.2029 0 0 1.16315e-12 28.4058 0 0 0 -14.2029)
(-14.3342 0 0 9.38025e-13 28.6684 0 0 0 -14.3342)
(-14.4624 0 0 9.33851e-13 28.9247 0 0 0 -14.4624)
(-14.5861 0 0 9.2946e-13 29.1723 0 0 0 -14.5861)
(-14.7053 0 0 9.24852e-13 29.4105 0 0 0 -14.7053)
(-14.8198 0 0 9.20024e-13 29.6395 0 0 0 -14.8198)
(-14.9291 0 0 6.95255e-13 29.8582 0 0 0 -14.9291)
(-15.0326 0 0 4.70339e-13 30.0653 0 0 0 -15.0326)
(-15.1306 0 0 4.65074e-13 30.2611 0 0 0 -15.1306)
(-15.2219 0 0 4.59737e-13 30.4439 0 0 0 -15.2219)
(-15.3065 0 0 4.54327e-13 30.613 0 0 0 -15.3065)
(-15.3837 0 0 4.48843e-13 30.7675 0 0 0 -15.3837)
(-15.4532 0 0 4.43283e-13 30.9064 0 0 0 -15.4532)
(-15.514 0 0 4.37647e-13 31.0281 0 0 0 -15.514)
(-15.5659 0 0 4.31933e-13 31.1318 0 0 0 -15.5659)
(-15.6081 0 0 4.26142e-13 31.2161 0 0 0 -15.6081)
(-15.6393 0 0 4.20272e-13 31.2787 0 0 0 -15.6393)
(-15.6596 0 0 4.14323e-13 31.3193 0 0 0 -15.6596)
(-15.6675 0 0 4.08295e-13 31.3351 0 0 0 -15.6675)
(-15.6618 0 0 4.02188e-13 31.3237 0 0 0 -15.6618)
(-15.6422 0 0 3.96003e-13 31.2844 0 0 0 -15.6422)
(-15.6068 0 0 1.68125e-13 31.2135 0 0 0 -15.6068)
(-15.5541 0 0 -5.969e-14 31.1083 0 0 0 -15.5541)
(-15.4835 0 0 -6.5685e-14 30.9669 0 0 0 -15.4835)
(-15.3924 0 0 -7.1474e-14 30.7848 0 0 0 -15.3924)
(-15.2795 0 0 -7.70551e-14 30.559 0 0 0 -15.2795)
(-15.1428 0 0 -8.2427e-14 30.2856 0 0 0 -15.1428)
(-14.9798 0 0 -8.75878e-14 29.9596 0 0 0 -14.9798)
(-14.7863 0 0 -3.21159e-13 29.5725 0 0 0 -14.7863)
(-14.6367 0 0 -6.75131e-13 29.2733 0 0 0 -14.6367)
(-14.2491 0 0 -7.90872e-13 28.4983 0 0 0 -14.2491)
(-13.84 0 0 -7.93753e-13 27.6801 0 0 0 -13.84)
(-13.3511 0 0 -7.96754e-13 26.7021 0 0 0 -13.3511)
(-12.785 0 0 -7.99318e-13 25.57 0 0 0 -12.785)
(-12.1621 0 0 -8.0143e-13 24.3241 0 0 0 -12.1621)
(-11.5083 0 0 -6.72564e-13 23.0165 0 0 0 -11.5083)
(-10.8477 0 0 -4.16883e-13 21.6953 0 0 0 -10.8477)
(-10.194 0 0 -2.91432e-13 20.3881 0 0 0 -10.194)
(-9.54979 0 0 -1.60912e-13 19.0996 0 0 0 -9.54979)
(-8.91655 0 0 -3.55304e-14 17.8331 0 0 0 -8.91655)
(-8.29579 0 0 -3.59528e-14 16.5916 0 0 0 -8.29579)
(-7.68857 0 0 -3.62288e-14 15.3771 0 0 0 -7.68857)
(-7.09654 0 0 -3.63702e-14 14.1931 0 0 0 -7.09654)
(-6.52094 0 0 -3.63852e-14 13.0419 0 0 0 -6.52094)
(-5.96279 0 0 -3.62818e-14 11.9256 0 0 0 -5.96279)
(-5.4237 0 0 9.43672e-14 10.8474 0 0 0 -5.4237)
(-4.90474 0 0 2.18068e-13 9.80948 0 0 0 -4.90474)
(-4.40672 0 0 2.83417e-13 8.81345 0 0 0 -4.40672)
(-3.93108 0 0 2.79963e-13 7.86216 0 0 0 -3.93108)
(-3.47859 0 0 2.19558e-13 6.95718 0 0 0 -3.47859)
(-3.05009 0 0 2.19903e-13 6.10018 0 0 0 -3.05009)
(-2.64636 0 0 2.20247e-13 5.29272 0 0 0 -2.64636)
(-2.26825 0 0 2.52824e-13 4.5365 0 0 0 -2.26825)
(-1.91621 0 0 2.50465e-13 3.83242 0 0 0 -1.91621)
(-1.5908 0 0 2.21588e-13 3.1816 0 0 0 -1.5908)
(-1.29254 0 0 1.57553e-13 2.58508 0 0 0 -1.29254)
(-1.02153 0 0 6.84796e-14 2.04305 0 0 0 -1.02153)
(-0.777902 0 0 4.05297e-14 1.5558 0 0 0 -0.777902)
(-0.562056 0 0 4.07383e-14 1.12411 0 0 0 -0.562056)
(-0.371824 0 0 4.10068e-14 0.743648 0 0 0 -0.371824)
(-0.195434 0 0 2.43281e-14 0.390868 0 0 0 -0.195434)
(-0.088012 0 0 1.21755e-14 0.176024 0 0 0 -0.088012)
(0.744306 0 0 -7.91558e-16 -1.48861 0 0 0 0.744306)
(0.240905 4.83731e-15 0 -6.4942e-16 -0.481809 0 0 0 0.240905)
(0.000509125 0 0 -2.52277e-19 -0.00101825 0 0 0 0.000509125)
(1.92011e-05 0 0 -1.44653e-20 -3.84022e-05 0 0 0 1.92011e-05)
(7.69561e-08 -2.21522e-22 0 1.36066e-23 -1.53912e-07 0 0 0 7.69561e-08)
(4.45087e-16 0 0 1.57593e-31 -8.90174e-16 0 0 0 4.45087e-16)
(6.78575e-28 -5.27342e-41 0 -4.92327e-42 -1.35715e-27 0 0 0 6.78575e-28)
(-4.06056e-39 0 0 -4.09289e-52 8.12111e-39 0 0 0 -4.06056e-39)
(1.16915e-49 0 0 -1.15602e-62 -2.3383e-49 0 0 0 1.16915e-49)
(-2.8079e-60 0 0 -2.23111e-74 5.6158e-60 0 0 0 -2.8079e-60)
(6.62376e-71 0 0 -1.80741e-84 -1.32475e-70 0 0 0 6.62376e-71)
(-1.4151e-81 0 0 -1.9806e-94 2.8302e-81 0 0 0 -1.4151e-81)
(3.48671e-92 0 0 -2.70139e-105 -6.97343e-92 0 0 0 3.48671e-92)
(-8.63856e-103 0 0 1.4877e-115 1.72771e-102 0 0 0 -8.63856e-103)
(2.147e-113 0 0 6.82767e-126 -4.294e-113 0 0 0 2.147e-113)
(-4.7713e-124 0 0 2.37623e-136 9.5426e-124 0 0 0 -4.7713e-124)
(1.06991e-134 0 0 4.40946e-147 -2.13983e-134 0 0 0 1.06991e-134)
(-2.15659e-145 0 0 5.8454e-158 4.31317e-145 0 0 0 -2.15659e-145)
(3.95826e-156 0 0 1.26196e-168 -7.91652e-156 0 0 0 3.95826e-156)
(-5.86101e-167 0 0 1.05234e-179 1.1722e-166 0 0 0 -5.86101e-167)
(8.5882e-178 0 0 -1.74912e-191 -1.71764e-177 0 0 0 8.5882e-178)
(-1.11616e-188 0 0 1.88236e-201 2.23231e-188 0 0 0 -1.11616e-188)
(1.29035e-199 0 0 5.67029e-212 -2.58069e-199 0 0 0 1.29035e-199)
(-1.1406e-210 0 0 5.96729e-223 2.2812e-210 0 0 0 -1.1406e-210)
(8.31565e-222 0 0 5.22727e-234 -1.66313e-221 0 0 0 8.31565e-222)
(-4.09428e-233 0 0 3.1405e-245 8.18856e-233 0 0 0 -4.09428e-233)
(1.1331e-244 0 0 1.07591e-256 -2.2662e-244 0 0 0 1.1331e-244)
(-1.25834e-255 0 0 1.49919e-267 2.51668e-255 0 0 0 -1.25834e-255)
(2.23697e-266 0 0 3.38849e-278 -4.47393e-266 0 0 0 2.23697e-266)
(-6.06193e-277 0 0 1.18022e-288 1.21239e-276 0 0 0 -6.06193e-277)
(2.08382e-287 0 0 5.18264e-299 -4.16763e-287 0 0 0 2.08382e-287)
(-7.5411e-298 0 0 2.13649e-309 1.50822e-297 0 0 0 -7.5411e-298)
(2.96845e-308 0 0 9.7158e-320 -5.9369e-308 0 0 0 2.96845e-308)
(-1.14211e-318 0 0 0 2.28421e-318 0 0 0 -1.14211e-318)
(9.88131e-324 0 0 0 -1.97626e-323 0 0 0 9.88131e-324)
(-0 0 0 0 0 0 0 0 -0)
(0 0 0 0 -0 0 0 0 0)
(-0 0 0 0 0 0 0 0 -0)
(0 0 0 0 -0 0 0 0 0)
(-0 0 0 0 0 0 0 0 -0)
(0 0 0 0 -0 0 0 0 0)
(-0 0 0 0 0 0 0 0 -0)
(0 0 0 0 -0 0 0 0 0)
(-0 0 0 0 0 0 0 0 -0)
(0 0 0 0 -0 0 0 0 0)
(-0 0 0 0 0 0 0 0 -0)
(0 0 0 0 -0 0 0 0 0)
(-0 0 0 0 0 0 0 0 -0)
(0 0 0 0 -0 0 0 0 0)
(-0 0 0 0 0 0 0 0 -0)
(0 0 0 0 -0 0 0 0 0)
(-0 0 0 0 0 0 0 0 -0)
(0 0 0 0 -0 0 0 0 0)
(-0 0 0 0 0 0 0 0 -0)
(0 0 0 0 -0 0 0 0 0)
(-0 0 0 0 0 0 0 0 -0)
(0 0 0 0 -0 0 0 0 0)
(-0 0 0 0 0 0 0 0 -0)
(0 0 0 0 -0 0 0 0 0)
(-0 0 0 0 0 0 0 0 -0)
(0 0 0 0 -0 0 0 0 0)
(-0 0 0 0 0 0 0 0 -0)
(0 0 0 0 -0 0 0 0 0)
(-0 0 0 0 0 0 0 0 -0)
(0 0 0 0 -0 0 0 0 0)
(-0 0 0 0 0 0 0 0 -0)
(-0 0 0 0 0 0 0 0 -0)
(0 0 0 0 -0 0 0 0 0)
(-0 0 0 0 0 0 0 0 -0)
(-0 0 0 0 0 0 0 0 -0)
(-0 0 0 0 0 0 0 0 -0)
(-0 0 0 0 0 0 0 0 -0)
(-0 0 0 0 0 0 0 0 -0)
(-0 -0 0 0 0 0 0 0 -0)
(-0 0 0 0 0 0 0 0 -0)
(-0 0 0 0 0 0 0 0 -0)
(-0 0 0 0 0 0 0 0 -0)
(-0 0 0 0 0 0 0 0 -0)
(-0 0 0 0 0 0 0 0 -0)
(-0 0 0 0 0 0 0 0 -0)
(-0 0 0 0 0 0 0 0 -0)
(-0 0 0 0 0 0 0 0 -0)
(-0 0 0 0 0 0 0 0 -0)
(-0 0 0 0 0 0 0 0 -0)
(-0 0 0 0 0 0 0 0 -0)
(-0 0 0 0 0 0 0 0 -0)
(-0 0 0 0 0 0 0 0 -0)
(-0 0 0 0 0 0 0 0 -0)
(-0 0 0 0 0 0 0 0 -0)
(-0 0 0 0 0 0 0 0 -0)
(-0 0 0 0 0 0 0 0 -0)
(-0 0 0 0 0 0 0 0 -0)
(-0 0 0 0 0 0 0 0 -0)
(0 0 0 0 -0 0 0 0 0)
(0 0 0 0 -0 0 0 0 0)
(0 0 0 0 -0 0 0 0 0)
(0 0 0 -0 -0 0 0 0 0)
(0 0 0 0 -0 0 0 0 0)
(0 -0 0 0 -0 0 0 0 0)
(0 0 0 -0 -0 0 0 0 0)
(0 0 0 -0 -0 0 0 0 0)
(0 0 0 0 -0 0 0 0 0)
(0 -0 0 0 -0 0 0 0 0)
(0 0 0 -0 -0 0 0 0 0)
(0 -0 0 -0 -0 0 0 0 0)
(0 0 0 -0 -0 0 0 0 0)
(0 -0 0 0 -0 0 0 0 0)
(0 0 0 -0 -0 0 0 0 0)
(0 -0 0 -0 -0 0 0 0 0)
(0 0 0 0 -0 0 0 0 0)
(0 -0 0 0 -0 0 0 0 0)
(0 0 0 -0 -0 0 0 0 0)
(0 -0 0 0 -0 0 0 0 0)
(0 0 0 -0 -0 0 0 0 0)
(0 0 0 -0 -0 0 0 0 0)
(0 0 0 -0 -0 0 0 0 0)
(0 0 0 -0 -0 0 0 0 0)
(0 -0 0 0 -0 0 0 0 0)
(0 0 0 -0 -0 0 0 0 0)
(0 0 0 0 -0 0 0 0 0)
(0 0 0 -0 -0 0 0 0 0)
(-0 -0 0 -0 0 0 0 0 -0)
(-0 0 0 0 0 0 0 0 -0)
(0 0 0 -0 -0 0 0 0 0)
(0 0 0 -0 -0 0 0 0 0)
(-0 -0 0 0 0 0 0 0 -0)
(0 0 0 -0 0 0 0 0 0)
(-0 -0 0 -0 0 0 0 0 -0)
(-0 0 0 -0 0 0 0 0 -0)
(0 -0 0 -0 0 0 0 0 0)
(0 0 0 -0 0 0 0 0 0)
(0 -0 0 -0 -0 0 0 0 -0)
(-0 0 0 -0 0 0 0 0 -0)
(0 -0 0 -0 -0 0 0 0 0)
(0 0 0 -0 0 0 0 0 0)
(0 -0 0 -0 -0 0 0 0 -0)
(0 0 0 -0 -0 0 0 0 0)
(-0 -0 0 -0 0 0 0 0 -0)
(0 0 0 0 -0 0 0 0 0)
(-0 -0 0 0 0 0 0 0 -0)
(-0 0 0 -0 0 0 0 0 -0)
(0 0 0 -0 0 0 0 0 0)
(0 0 0 -0 -0 0 0 0 0)
(0 0 0 0 0 0 0 0 0)
(0 -0 0 0 -0 0 0 0 0)
(-0 0 0 -0 0 0 0 0 -0)
(0 -0 0 -0 -0 0 0 0 0)
(0 0 0 0 -0 0 0 0 0)
(0 -0 0 0 -0 0 0 0 -0)
(0 0 0 -0 0 0 0 0 0)
(-0 0 0 -0 0 0 0 0 -0)
(0 0 0 0 -0 0 0 0 0)
(0 -0 0 0 0 0 0 0 0)
(0 0 0 -0 0 0 0 0 0)
(0 -0 0 -0 -0 0 0 0 -0)
(0 0 0 0 0 0 0 0 0)
(0 -0 0 0 -0 0 0 0 -0)
(0 0 0 -0 0 0 0 0 0)
(0 0 0 -0 0 0 0 0 0)
(0 0 0 0 0 0 0 0 0)
(0 -0 0 0 -0 0 0 0 -0)
(0 0 0 -0 0 0 0 0 0)
(0 -0 0 0 0 0 0 0 0)
(0 0 0 0 0 0 0 0 0)
(0 -0 0 0 -0 0 0 0 -0)
(0 0 0 -0 0 0 0 0 0)
(0 0 0 -0 0 0 0 0 0)
(-0 0 0 -0 0 0 0 0 -0)
(0 0 0 0 -0 0 0 0 0)
(0 -0 0 0 -0 0 0 0 -0)
(0 0 0 -0 0 0 0 0 0)
(0 -0 0 0 -0 0 0 0 -0)
(-0 0 0 0 0 0 0 0 -0)
(0 -0 0 0 -0 0 0 0 -0)
(0 0 0 -0 -0 0 0 0 0)
(0 0 0 -0 0 0 0 0 0)
(0 0 0 0 0 0 0 0 0)
(0 -0 0 0 -0 0 0 0 -0)
(0 0 0 0 0 0 0 0 0)
(0 -0 0 0 0 0 0 0 0)
(-0 0 0 0 0 0 0 0 -0)
(0 -0 0 0 -0 0 0 0 0)
(0 0 0 -0 -0 0 0 0 0)
(-0 0 0 -0 0 0 0 0 -0)
(0 0 0 0 0 0 0 0 0)
(0 -0 0 0 -0 0 0 0 0)
(-0 0 0 -0 0 0 0 0 -0)
(-0 -0 0 0 0 0 0 0 -0)
(0 0 0 0 0 0 0 0 0)
(0 -0 0 0 0 0 0 0 0)
(0 0 0 -0 0 0 0 0 0)
(0 0 0 -0 -0 0 0 0 0)
(0 0 0 -0 0 0 0 0 0)
(0 0 0 0 -0 0 0 0 0)
(-0 -0 0 0 0 0 0 0 -0)
(0 0 0 -0 0 0 0 0 0)
(0 -0 0 0 0 0 0 0 0)
(0 0 0 0 0 0 0 0 0)
(0 -0 0 0 -0 0 0 0 -0)
(0 0 0 -0 0 0 0 0 0)
(0 0 0 -0 0 0 0 0 0)
(-0 0 0 0 0 0 0 0 -0)
(0 -0 0 0 -0 0 0 0 0)
(0 0 0 -0 0 0 0 0 0)
(0 0 0 -0 0 0 0 0 0)
(0 0 0 0 0 0 0 0 0)
(0 0 0 -0 0 0 0 0 0)
(-0 0 0 -0 0 0 0 0 -0)
(0 0 0 -0 0 0 0 0 0)
(0 0 0 -0 -0 0 0 0 0)
(0 0 0 -0 0 0 0 0 0)
(0 0 0 -0 0 0 0 0 0)
(0 0 0 -0 -0 0 0 0 0)
(0 0 0 -0 0 0 0 0 0)
(-0 0 0 -0 0 0 0 0 -0)
(0 0 0 -0 0 0 0 0 0)
(0 0 0 -0 -0 0 0 0 0)
(0 0 0 -0 -0 0 0 0 0)
(-0 0 0 -0 0 0 0 0 -0)
(-0 0 0 -0 0 0 0 0 -0)
(0 0 0 -0 -0 0 0 0 0)
(0 0 0 -0 0 0 0 0 0)
(0 0 0 -0 0 0 0 0 0)
(0 0 0 -0 0 0 0 0 0)
(0 0 0 -0 0 0 0 0 0)
(0 0 0 -0 0 0 0 0 0)
(0 0 0 -0 0 0 0 0 0)
(-0 0 0 -0 0 0 0 0 -0)
(0 0 0 -0 -0 0 0 0 0)
(0 0 0 -0 0 0 0 0 0)
(0 0 0 -0 0 0 0 0 0)
(0 0 0 -0 -0 0 0 0 0)
(0 0 0 -0 0 0 0 0 0)
(0 0 0 -0 0 0 0 0 0)
(-0 0 0 -0 0 0 0 0 -0)
(0 0 0 -0 0 0 0 0 0)
(0 0 0 -0 -0 0 0 0 0)
(0 0 0 -0 0 0 0 0 0)
(0 0 0 -0 0 0 0 0 0)
(0 0 0 -0 0 0 0 0 0)
(0 0 0 -0 0 0 0 0 0)
(0 0 0 -0 0 0 0 0 0)
(-0 0 0 -0 0 0 0 0 -0)
(0 0 0 -0 0 0 0 0 0)
(0 0 0 -0 -0 0 0 0 0)
(0 0 0 -0 -0 0 0 0 0)
(-0 0 0 -0 0 0 0 0 -0)
(0 0 0 -0 0 0 0 0 0)
(-0 0 0 -0 0 0 0 0 -0)
(0 0 0 -0 -0 0 0 0 0)
(0 0 0 -0 -0 0 0 0 0)
(0 0 0 -0 0 0 0 0 0)
(-0 0 0 -0 0 0 0 0 -0)
(0 0 0 -0 0 0 0 0 0)
(0 0 0 -0 0 0 0 0 0)
(0 0 0 -0 0 0 0 0 0)
(-0 0 0 -0 0 0 0 0 -0)
(0 0 0 -0 -0 0 0 0 0)
(0 0 0 -0 0 0 0 0 0)
(-0 0 0 -0 0 0 0 0 -0)
(0 0 0 -0 -0 0 0 0 0)
(0 0 0 -0 0 0 0 0 0)
(0 0 0 -0 0 0 0 0 0)
(0 0 0 -0 0 0 0 0 0)
(0 0 0 -0 0 0 0 0 0)
(0 0 0 -0 0 0 0 0 0)
(0 0 0 -0 0 0 0 0 0)
)
;

boundaryField
{
    inlet
    {
        type            cyclic;
    }
    outlet
    {
        type            cyclic;
    }
    top
    {
        type            extrapolatedCalculated;
        value           uniform (0 0 0 0 0 0 0 0 0);
    }
    bottom
    {
        type            extrapolatedCalculated;
        value           uniform (-11.5481 0 0 -4.47128e-13 23.0962 0 0 0 -11.5481);
    }
    frontAndBackPlanes
    {
        type            empty;
    }
}


// ************************************************************************* //
