/*--------------------------------*- C++ -*----------------------------------*\
| =========                 |                                                 |
| \\      /  F ield         | OpenFOAM: The Open Source CFD Toolbox           |
|  \\    /   O peration     | Version:  v1906                                 |
|   \\  /    A nd           | Web:      www.OpenFOAM.com                      |
|    \\/     M anipulation  |                                                 |
\*---------------------------------------------------------------------------*/
FoamFile
{
    version     2.0;
    format      ascii;
    class       volTensorField;
    location    "1800";
    object      Taub;
}
// * * * * * * * * * * * * * * * * * * * * * * * * * * * * * * * * * * * * * //

dimensions      [1 -1 -2 0 0 0 0];


internalField   nonuniform List<tensor> 
344
(
(1.40764e-07 -1.11645e-22 0 4.64106e-20 -2.81527e-07 0 0 0 1.40764e-07)
(1.42133e-07 0 0 -3.78579e-20 -2.84267e-07 0 0 0 1.42133e-07)
(1.43816e-07 0 0 -3.54358e-20 -2.87631e-07 0 0 0 1.43816e-07)
(1.44957e-07 0 0 3.8718e-20 -2.89913e-07 0 0 0 1.44957e-07)
(1.46658e-07 -8.84919e-22 0 4.34921e-21 -2.93317e-07 0 0 0 1.46658e-07)
(1.47885e-07 0 0 4.19649e-21 -2.9577e-07 0 0 0 1.47885e-07)
(1.49434e-07 0 0 4.18097e-21 -2.98868e-07 0 0 0 1.49434e-07)
(1.50651e-07 0 0 5.19294e-21 -3.01302e-07 0 0 0 1.50651e-07)
(1.52068e-07 -1.7533e-21 0 2.76619e-19 -3.04136e-07 0 0 0 1.52068e-07)
(1.53265e-07 0 0 7.84291e-21 -3.06529e-07 0 0 0 1.53265e-07)
(1.54547e-07 0 0 -2.58974e-19 -3.09094e-07 0 0 0 1.54547e-07)
(1.55699e-07 0 0 1.91601e-19 -3.11398e-07 0 0 0 1.55699e-07)
(1.56859e-07 0 0 1.24456e-20 -3.13717e-07 0 0 0 1.56859e-07)
(1.57935e-07 0 0 -3.77598e-19 -3.15871e-07 0 0 0 1.57935e-07)
(1.58979e-07 0 0 -2.14292e-19 -3.17959e-07 0 0 0 1.58979e-07)
(1.59957e-07 0 0 2.19899e-19 -3.19914e-07 0 0 0 1.59957e-07)
(1.60883e-07 0 0 2.3401e-19 -3.21766e-07 0 0 0 1.60883e-07)
(1.61744e-07 0 0 8.41029e-21 -3.23488e-07 0 0 0 1.61744e-07)
(1.62542e-07 0 0 7.50825e-21 -3.25084e-07 0 0 0 1.62542e-07)
(1.63273e-07 0 0 6.26633e-21 -3.26546e-07 0 0 0 1.63273e-07)
(1.6393e-07 0 0 -3.11866e-19 -3.27861e-07 0 0 0 1.6393e-07)
(1.64514e-07 0 0 5.57367e-21 -3.29029e-07 0 0 0 1.64514e-07)
(1.65017e-07 0 0 3.21265e-19 -3.30035e-07 0 0 0 1.65017e-07)
(1.65437e-07 0 0 4.87803e-21 -3.30873e-07 0 0 0 1.65437e-07)
(1.65768e-07 0 0 3.6578e-21 -3.31536e-07 0 0 0 1.65768e-07)
(1.66005e-07 0 0 3.60003e-21 -3.32009e-07 0 0 0 1.66005e-07)
(1.66143e-07 0 0 3.54605e-21 -3.32286e-07 0 0 0 1.66143e-07)
(1.66175e-07 0 0 3.49162e-21 -3.3235e-07 0 0 0 1.66175e-07)
(1.66099e-07 0 0 3.43669e-21 -3.32198e-07 0 0 0 1.66099e-07)
(1.65901e-07 0 0 3.38128e-21 -3.31802e-07 0 0 0 1.65901e-07)
(1.65581e-07 0 0 3.32538e-21 -3.31162e-07 0 0 0 1.65581e-07)
(1.65127e-07 0 0 3.26898e-21 -3.30255e-07 0 0 0 1.65127e-07)
(1.6453e-07 0 0 3.21208e-21 -3.2906e-07 0 0 0 1.6453e-07)
(1.63784e-07 0 0 3.14768e-21 -3.27569e-07 0 0 0 1.63784e-07)
(1.62876e-07 0 0 1.13574e-21 -3.25752e-07 0 0 0 1.62876e-07)
(1.61793e-07 0 0 -5.43018e-19 -3.23587e-07 0 0 0 1.61793e-07)
(1.60529e-07 0 0 1.28881e-21 -3.21059e-07 0 0 0 1.60529e-07)
(1.59065e-07 0 0 5.41649e-19 -3.18129e-07 0 0 0 1.59065e-07)
(1.57384e-07 0 0 1.43102e-21 -3.14768e-07 0 0 0 1.57384e-07)
(1.5548e-07 0 0 -5.33502e-22 -3.10959e-07 0 0 0 1.5548e-07)
(1.53321e-07 0 0 -5.88145e-22 -3.06641e-07 0 0 0 1.53321e-07)
(1.50902e-07 0 0 -2.87156e-21 -3.01804e-07 0 0 0 1.50902e-07)
(1.48167e-07 0 0 -6.40475e-19 -2.96333e-07 0 0 0 1.48167e-07)
(1.4541e-07 0 0 -3.27635e-19 -2.90819e-07 0 0 0 1.4541e-07)
(1.43077e-07 0 0 6.28093e-19 -2.86155e-07 0 0 0 1.43077e-07)
(1.41209e-07 0 0 3.18522e-19 -2.82418e-07 0 0 0 1.41209e-07)
(1.39512e-07 0 0 -5.01853e-21 -2.79024e-07 0 0 0 1.39512e-07)
(1.37356e-07 0 0 -6.3193e-21 -2.74713e-07 0 0 0 1.37356e-07)
(1.34385e-07 0 0 -5.28855e-21 -2.68769e-07 0 0 0 1.34385e-07)
(1.30715e-07 0 0 3.51232e-19 -2.6143e-07 0 0 0 1.30715e-07)
(1.2655e-07 0 0 3.55212e-19 -2.53101e-07 0 0 0 1.2655e-07)
(1.22071e-07 -1.20667e-20 0 -3.54847e-19 -2.44142e-07 0 0 0 1.22071e-07)
(1.17418e-07 0 0 8.27123e-21 -2.34837e-07 0 0 0 1.17418e-07)
(1.12641e-07 0 0 -2.74364e-21 -2.25283e-07 0 0 0 1.12641e-07)
(1.0773e-07 0 0 -3.63987e-19 -2.1546e-07 0 0 0 1.0773e-07)
(1.02695e-07 0 0 -1.57825e-21 -2.0539e-07 0 0 0 1.02695e-07)
(9.75346e-08 0 0 -3.85606e-22 -1.95069e-07 0 0 0 9.75346e-08)
(9.22488e-08 0 0 -3.94044e-22 -1.84498e-07 0 0 0 9.22488e-08)
(8.68432e-08 0 0 8.40695e-22 -1.73686e-07 0 0 0 8.68432e-08)
(8.13146e-08 0 0 3.8346e-19 -1.62629e-07 0 0 0 8.13146e-08)
(7.56543e-08 0 0 1.78889e-21 -1.51309e-07 0 0 0 7.56543e-08)
(6.98701e-08 0 0 -1.82323e-19 -1.3974e-07 0 0 0 6.98701e-08)
(6.39444e-08 0 0 -1.89411e-19 -1.27889e-07 0 0 0 6.39444e-08)
(5.78674e-08 0 0 -1.8429e-19 -1.15735e-07 0 0 0 5.78674e-08)
(5.16246e-08 0 0 1.907e-19 -1.03249e-07 0 0 0 5.16246e-08)
(4.51881e-08 0 0 4.46267e-21 -9.03761e-08 0 0 0 4.51881e-08)
(3.85226e-08 0 0 9.79029e-20 -7.70452e-08 0 0 0 3.85226e-08)
(3.15699e-08 0 0 -8.88263e-20 -6.31398e-08 0 0 0 3.15699e-08)
(2.42624e-08 0 0 -8.71433e-20 -4.85248e-08 0 0 0 2.42624e-08)
(1.64653e-08 0 0 -8.78148e-20 -3.29307e-08 0 0 0 1.64653e-08)
(8.00689e-09 0 0 -8.59144e-20 -1.60138e-08 0 0 0 8.00689e-09)
(-1.43036e-09 0 0 1.77773e-19 2.86073e-09 0 0 0 -1.43036e-09)
(-1.23453e-08 0 0 8.79536e-20 2.46907e-08 0 0 0 -1.23453e-08)
(-2.594e-08 0 0 1.56658e-21 5.18799e-08 0 0 0 -2.594e-08)
(-4.52187e-08 0 0 -3.8858e-20 9.04375e-08 0 0 0 -4.52187e-08)
(-7.08376e-08 0 0 1.21532e-21 1.41675e-07 0 0 0 -7.08376e-08)
(-2.45037e-07 0 0 1.95152e-20 4.90074e-07 0 0 0 -2.45037e-07)
(2.53276e-06 0 0 1.53076e-20 -5.06552e-06 0 0 0 2.53276e-06)
(-0.000285982 0 0 -3.10895e-20 0.000571964 0 0 0 -0.000285982)
(-0.000625354 0 0 -7.20468e-19 0.00125071 0 0 0 -0.000625354)
(0.000356934 0 0 -1.28421e-18 -0.000713867 0 0 0 0.000356934)
(0.000224883 -1.27654e-18 0 6.86837e-19 -0.000449765 0 0 0 0.000224883)
(-0.000168017 6.38257e-19 0 -1.98521e-19 0.000336035 0 0 0 -0.000168017)
(0.000116261 0 0 -3.14434e-18 -0.000232521 0 0 0 0.000116261)
(-7.60283e-05 0 0 -6.37851e-18 0.000152057 0 0 0 -7.60283e-05)
(4.95102e-05 0 0 -4.96708e-18 -9.90204e-05 0 0 0 4.95102e-05)
(-3.37802e-05 0 0 -1.34921e-19 6.75604e-05 0 0 0 -3.37802e-05)
(2.47005e-05 0 0 -1.87653e-19 -4.9401e-05 0 0 0 2.47005e-05)
(-1.90343e-05 0 0 -2.49585e-18 3.80687e-05 0 0 0 -1.90343e-05)
(1.49553e-05 0 0 -1.5565e-18 -2.99107e-05 0 0 0 1.49553e-05)
(-1.16971e-05 0 0 1.52161e-18 2.33941e-05 0 0 0 -1.16971e-05)
(9.024e-06 0 0 2.29014e-18 -1.8048e-05 0 0 0 9.024e-06)
(-6.86842e-06 0 0 3.09415e-18 1.37368e-05 0 0 0 -6.86842e-06)
(5.17684e-06 0 0 1.97898e-18 -1.03537e-05 0 0 0 5.17684e-06)
(-3.87918e-06 0 0 8.98033e-19 7.75837e-06 0 0 0 -3.87918e-06)
(2.89875e-06 0 0 8.70496e-19 -5.79751e-06 0 0 0 2.89875e-06)
(-2.16458e-06 0 0 4.01855e-19 4.32916e-06 0 0 0 -2.16458e-06)
(1.61728e-06 0 0 -7.28638e-20 -3.23456e-06 0 0 0 1.61728e-06)
(-1.20994e-06 0 0 1.3391e-19 2.41987e-06 0 0 0 -1.20994e-06)
(9.06683e-07 0 0 3.402e-19 -1.81337e-06 0 0 0 9.06683e-07)
(-6.80607e-07 0 0 3.0295e-19 1.36121e-06 0 0 0 -6.80607e-07)
(5.11711e-07 0 0 2.72752e-19 -1.02342e-06 0 0 0 5.11711e-07)
(-3.85222e-07 0 0 2.49769e-19 7.70444e-07 0 0 0 -3.85222e-07)
(2.90254e-07 0 0 2.32297e-19 -5.80509e-07 0 0 0 2.90254e-07)
(-2.18792e-07 0 0 2.19107e-19 4.37584e-07 0 0 0 -2.18792e-07)
(1.64923e-07 0 0 2.09529e-19 -3.29845e-07 0 0 0 1.64923e-07)
(-1.24269e-07 0 0 2.03241e-19 2.48539e-07 0 0 0 -1.24269e-07)
(9.35759e-08 0 0 2.0009e-19 -1.87152e-07 0 0 0 9.35759e-08)
(-7.04059e-08 0 0 1.71015e-19 1.40812e-07 0 0 0 -7.04059e-08)
(5.29254e-08 0 0 1.43726e-19 -1.05851e-07 0 0 0 5.29254e-08)
(-3.97486e-08 0 0 1.45956e-19 7.94972e-08 0 0 0 -3.97486e-08)
(2.98246e-08 0 0 1.48722e-19 -5.96491e-08 0 0 0 2.98246e-08)
(-2.23557e-08 0 0 1.52003e-19 4.47114e-08 0 0 0 -2.23557e-08)
(1.67362e-08 0 0 1.55716e-19 -3.34724e-08 0 0 0 1.67362e-08)
(-1.25068e-08 0 0 1.59694e-19 2.50136e-08 0 0 0 -1.25068e-08)
(9.31885e-09 0 0 1.63752e-19 -1.86377e-08 0 0 0 9.31885e-09)
(-6.90829e-09 0 0 1.6773e-19 1.38166e-08 0 0 0 -6.90829e-09)
(5.07557e-09 0 0 1.71499e-19 -1.01511e-08 0 0 0 5.07557e-09)
(-3.8977e-09 0 0 1.73206e-19 7.79541e-09 0 0 0 -3.8977e-09)
(3.20111e-09 0 0 1.75783e-19 -6.40222e-09 0 0 0 3.20111e-09)
(-2.60886e-09 0 0 1.79572e-19 5.21772e-09 0 0 0 -2.60886e-09)
(2.08024e-09 0 0 1.81502e-19 -4.16048e-09 0 0 0 2.08024e-09)
(-1.61492e-09 0 0 1.82878e-19 3.22984e-09 0 0 0 -1.61492e-09)
(1.21256e-09 0 0 1.83677e-19 -2.42512e-09 0 0 0 1.21256e-09)
(-8.72757e-10 0 0 1.83887e-19 1.74551e-09 0 0 0 -8.72757e-10)
(5.95153e-10 0 0 1.83513e-19 -1.19031e-09 0 0 0 5.95153e-10)
(-3.78628e-10 0 0 1.82494e-19 7.57256e-10 0 0 0 -3.78628e-10)
(2.21024e-10 0 0 1.80921e-19 -4.42047e-10 0 0 0 2.21024e-10)
(-1.16563e-10 0 0 1.78885e-19 2.33126e-10 0 0 0 -1.16563e-10)
(5.54752e-11 0 0 1.76329e-19 -1.1095e-10 0 0 0 5.54752e-11)
(-2.40669e-11 0 0 1.73303e-19 4.81338e-11 0 0 0 -2.40669e-11)
(9.87527e-12 0 0 1.69861e-19 -1.97505e-11 0 0 0 9.87527e-12)
(-3.81083e-12 0 0 1.66022e-19 7.62166e-12 0 0 0 -3.81083e-12)
(1.53323e-12 0 0 1.61822e-19 -3.06645e-12 0 0 0 1.53323e-12)
(-5.33873e-13 0 0 1.57304e-19 1.06775e-12 0 0 0 -5.33873e-13)
(2.14612e-13 0 0 1.52507e-19 -4.29225e-13 0 0 0 2.14612e-13)
(-2.93816e-14 0 0 1.4747e-19 5.87633e-14 0 0 0 -2.93816e-14)
(5.54475e-14 0 0 1.42232e-19 -1.10895e-13 0 0 0 5.54475e-14)
(-2.07036e-14 0 0 1.3683e-19 4.14071e-14 0 0 0 -2.07036e-14)
(5.3066e-15 0 0 1.313e-19 -1.06132e-14 0 0 0 5.3066e-15)
(-1.69296e-15 0 0 1.25677e-19 3.38591e-15 0 0 0 -1.69296e-15)
(9.16392e-16 0 0 1.19994e-19 -1.83278e-15 0 0 0 9.16392e-16)
(-2.8287e-15 0 0 1.14281e-19 5.65741e-15 0 0 0 -2.8287e-15)
(-2.14832e-15 0 0 1.08567e-19 4.29664e-15 0 0 0 -2.14832e-15)
(1.69139e-16 0 0 1.02879e-19 -3.38278e-16 0 0 0 1.69139e-16)
(3.93777e-16 0 0 9.72421e-20 -7.87554e-16 0 0 0 3.93777e-16)
(-1.28188e-15 0 0 9.16784e-20 2.56375e-15 0 0 0 -1.28188e-15)
(-1.59917e-15 0 0 8.62083e-20 3.19834e-15 0 0 0 -1.59917e-15)
(-1.21933e-15 0 0 8.08503e-20 2.43867e-15 0 0 0 -1.21933e-15)
(-1.51524e-15 0 0 7.56204e-20 3.03047e-15 0 0 0 -1.51524e-15)
(-2.63949e-15 -3.71514e-29 0 7.0533e-20 5.27899e-15 0 0 0 -2.63949e-15)
(-2.34874e-15 0 0 6.56002e-20 4.69748e-15 0 0 0 -2.34874e-15)
(-5.30603e-16 0 0 6.08324e-20 1.06121e-15 0 0 0 -5.30603e-16)
(-1.46045e-16 0 0 5.62382e-20 2.92091e-16 0 0 0 -1.46045e-16)
(-9.88297e-16 -3.71514e-29 0 5.18246e-20 1.97659e-15 0 0 0 -9.88297e-16)
(-1.1721e-15 0 0 4.75967e-20 2.3442e-15 0 0 0 -1.1721e-15)
(-9.293e-16 0 0 4.35585e-20 1.8586e-15 0 0 0 -9.293e-16)
(-1.06407e-15 0 0 3.97124e-20 2.12814e-15 0 0 0 -1.06407e-15)
(-1.59031e-15 -1.85757e-29 0 3.60596e-20 3.18063e-15 0 0 0 -1.59031e-15)
(-1.6397e-15 0 0 3.26e-20 3.2794e-15 0 0 0 -1.6397e-15)
(-1.17209e-15 0 0 2.93325e-20 2.34418e-15 0 0 0 -1.17209e-15)
(-1.18781e-15 0 0 2.62552e-20 2.37561e-15 0 0 0 -1.18781e-15)
(-1.46819e-15 0 0 2.33652e-20 2.93639e-15 0 0 0 -1.46819e-15)
(-1.57794e-15 0 0 2.06587e-20 3.15587e-15 0 0 0 -1.57794e-15)
(-1.42536e-15 0 0 1.81315e-20 2.85071e-15 0 0 0 -1.42536e-15)
(-2.09944e-15 0 0 1.57787e-20 4.19889e-15 0 0 0 -2.09944e-15)
(-7.02281e-16 0 0 1.35948e-20 1.40456e-15 0 0 0 -7.02281e-16)
(4.33562e-16 0 0 1.15741e-20 -8.67123e-16 0 0 0 4.33562e-16)
(-1.99108e-15 0 0 9.71031e-21 3.98215e-15 0 0 0 -1.99108e-15)
(-8.3683e-16 0 0 7.99711e-21 1.67366e-15 0 0 0 -8.3683e-16)
(6.53892e-16 0 0 6.42785e-21 -1.30778e-15 0 0 0 6.53892e-16)
(8.76974e-18 0 0 4.99575e-21 -1.75395e-17 0 0 0 8.76974e-18)
(7.41759e-17 0 0 3.69398e-21 -1.48352e-16 0 0 0 7.41759e-17)
(2.99132e-17 0 0 2.51564e-21 -5.98264e-17 0 0 0 2.99132e-17)
(9.72425e-17 0 0 1.45386e-21 -1.94485e-16 0 0 0 9.72425e-17)
(7.6959e-17 5.80491e-31 0 5.01816e-22 -1.53918e-16 0 0 0 7.6959e-17)
(3.4466e-17 0 0 -3.47224e-22 -6.89321e-17 0 0 0 3.4466e-17)
(2.87425e-17 0 0 -1.09987e-21 -5.7485e-17 0 0 0 2.87425e-17)
(4.35683e-17 0 0 -1.76259e-21 -8.71365e-17 0 0 0 4.35683e-17)
(3.55044e-17 2.90246e-31 0 -2.34166e-21 -7.10088e-17 0 0 0 3.55044e-17)
(3.44711e-17 0 0 -2.84318e-21 -6.89423e-17 0 0 0 3.44711e-17)
(3.03772e-17 0 0 -3.27304e-21 -6.07544e-17 0 0 0 3.03772e-17)
(2.8411e-17 0 0 -3.63688e-21 -5.6822e-17 0 0 0 2.8411e-17)
(2.50649e-17 1.45123e-31 0 -3.94012e-21 -5.01298e-17 0 0 0 2.50649e-17)
(1.95996e-17 0 0 -4.18794e-21 -3.91991e-17 0 0 0 1.95996e-17)
(1.67157e-17 0 0 -4.38525e-21 -3.34315e-17 0 0 0 1.67157e-17)
(1.32224e-17 0 0 -4.53674e-21 -2.64448e-17 0 0 0 1.32224e-17)
(9.85199e-18 7.25614e-32 0 -4.6468e-21 -1.9704e-17 0 0 0 9.85199e-18)
(1.06056e-17 0 0 -4.71959e-21 -2.12111e-17 0 0 0 1.06056e-17)
(7.77449e-18 3.62807e-32 0 -4.75903e-21 -1.5549e-17 0 0 0 7.77449e-18)
(2.41882e-18 0 0 -4.76877e-21 -4.83765e-18 0 0 0 2.41882e-18)
(1.59841e-18 3.62807e-32 0 -4.75222e-21 -3.19681e-18 0 0 0 1.59841e-18)
(5.81864e-18 0 0 -4.71255e-21 -1.16373e-17 0 0 0 5.81864e-18)
(6.18661e-18 0 0 -4.65271e-21 -1.23732e-17 0 0 0 6.18661e-18)
(2.28852e-18 0 0 -4.57541e-21 -4.57704e-18 0 0 0 2.28852e-18)
(9.32906e-19 0 0 -4.48318e-21 -1.86581e-18 0 0 0 9.32906e-19)
(7.43649e-20 0 0 -4.37829e-21 -1.4873e-19 0 0 0 7.43649e-20)
(7.33648e-18 0 0 -4.26287e-21 -1.4673e-17 0 0 0 7.33648e-18)
(-3.4577e-18 -1.81403e-32 0 -4.13883e-21 6.9154e-18 0 0 0 -3.4577e-18)
(-1.2088e-17 0 0 -4.0079e-21 2.41761e-17 0 0 0 -1.2088e-17)
(1.04913e-17 1.81403e-32 0 -3.87166e-21 -2.09825e-17 0 0 0 1.04913e-17)
(2.48381e-18 0 0 -3.73153e-21 -4.96762e-18 0 0 0 2.48381e-18)
(-6.94488e-18 0 0 -3.58877e-21 1.38898e-17 0 0 0 -6.94488e-18)
(1.00734e-18 0 0 -3.44451e-21 -2.01468e-18 0 0 0 1.00734e-18)
(-3.8588e-19 4.53509e-33 0 -3.29976e-21 7.7176e-19 0 0 0 -3.8588e-19)
(7.00872e-20 0 0 -3.15539e-21 -1.40174e-19 0 0 0 7.00872e-20)
(3.9373e-20 4.53509e-33 0 -3.01218e-21 -7.8746e-20 0 0 0 3.9373e-20)
(2.00283e-19 0 0 -2.87079e-21 -4.00565e-19 0 0 0 2.00283e-19)
(5.12232e-20 0 0 -2.7318e-21 -1.02446e-19 0 0 0 5.12232e-20)
(-5.26729e-21 0 0 -2.5957e-21 1.05346e-20 0 0 0 -5.26729e-21)
(9.62624e-20 4.53509e-33 0 -2.4629e-21 -1.92525e-19 0 0 0 9.62624e-20)
(2.10103e-19 0 0 -2.33373e-21 -4.20207e-19 0 0 0 2.10103e-19)
(1.52081e-19 4.53509e-33 0 -2.20848e-21 -3.04162e-19 0 0 0 1.52081e-19)
(1.87218e-19 0 0 -2.08735e-21 -3.74436e-19 0 0 0 1.87218e-19)
(2.72118e-19 4.53509e-33 0 -1.97051e-21 -5.44237e-19 0 0 0 2.72118e-19)
(2.46789e-19 0 0 -1.85808e-21 -4.93578e-19 0 0 0 2.46789e-19)
(1.4498e-19 2.26754e-33 0 -1.75013e-21 -2.89959e-19 0 0 0 1.4498e-19)
(1.0067e-19 0 0 -1.6467e-21 -2.01341e-19 0 0 0 1.0067e-19)
(1.34444e-19 0 0 -1.54779e-21 -2.68888e-19 0 0 0 1.34444e-19)
(1.4528e-19 0 0 -1.45338e-21 -2.90561e-19 0 0 0 1.4528e-19)
(1.36708e-19 0 0 -1.36344e-21 -2.73415e-19 0 0 0 1.36708e-19)
(1.38164e-19 2.26754e-33 0 -1.27788e-21 -2.76327e-19 0 0 0 1.38164e-19)
(1.48547e-19 0 0 -1.19662e-21 -2.97094e-19 0 0 0 1.48547e-19)
(1.4861e-19 0 0 -1.11956e-21 -2.9722e-19 0 0 0 1.4861e-19)
(1.49118e-19 0 0 -1.04659e-21 -2.98236e-19 0 0 0 1.49118e-19)
(1.53908e-19 1.13377e-33 0 -9.77593e-22 -3.07817e-19 0 0 0 1.53908e-19)
(1.62674e-19 0 0 -9.12427e-22 -3.25349e-19 0 0 0 1.62674e-19)
(1.77639e-19 0 0 -8.50961e-22 -3.55277e-19 0 0 0 1.77639e-19)
(2.08587e-19 0 0 -7.93053e-22 -4.17173e-19 0 0 0 2.08587e-19)
(1.71472e-19 -7.08607e-35 0 -7.3856e-22 -3.42943e-19 0 0 0 1.71472e-19)
(-4.13822e-19 0 0 -6.87335e-22 8.27644e-19 0 0 0 -4.13822e-19)
(-4.49426e-19 1.13377e-33 0 -6.39235e-22 8.98851e-19 0 0 0 -4.49426e-19)
(5.36464e-19 0 0 -5.94114e-22 -1.07293e-18 0 0 0 5.36464e-19)
(5.03302e-19 -5.66886e-34 0 -5.51828e-22 -1.0066e-18 0 0 0 5.03302e-19)
(-7.66589e-20 0 0 -5.12236e-22 1.53318e-19 0 0 0 -7.66589e-20)
(-1.09385e-19 0 0 -4.75201e-22 2.1877e-19 0 0 0 -1.09385e-19)
(-7.98589e-20 0 0 -4.40587e-22 1.59718e-19 0 0 0 -7.98589e-20)
(-5.93143e-20 1.77152e-35 0 -4.08262e-22 1.18629e-19 0 0 0 -5.93143e-20)
(-4.14338e-20 0 0 -3.781e-22 8.28676e-20 0 0 0 -4.14338e-20)
(-3.30375e-20 1.41721e-34 0 -3.49978e-22 6.60749e-20 0 0 0 -3.30375e-20)
(-3.78866e-20 0 0 -3.23777e-22 7.57732e-20 0 0 0 -3.78866e-20)
(-3.47533e-20 2.83443e-34 0 -2.99384e-22 6.95067e-20 0 0 0 -3.47533e-20)
(-2.01888e-20 0 0 -2.76691e-22 4.03776e-20 0 0 0 -2.01888e-20)
(-1.22144e-20 0 0 -2.55592e-22 2.44289e-20 0 0 0 -1.22144e-20)
(-1.16973e-20 0 0 -2.35989e-22 2.33946e-20 0 0 0 -1.16973e-20)
(-5.40854e-21 0 0 -2.17788e-22 1.08171e-20 0 0 0 -5.40854e-21)
(6.41618e-21 2.83443e-34 0 -2.00897e-22 -1.28324e-20 0 0 0 6.41618e-21)
(5.79106e-21 0 0 -1.85234e-22 -1.15821e-20 0 0 0 5.79106e-21)
(-5.20712e-21 2.83443e-34 0 -1.70716e-22 1.04142e-20 0 0 0 -5.20712e-21)
(-5.98994e-21 0 0 -1.57267e-22 1.19799e-20 0 0 0 -5.98994e-21)
(5.2511e-21 2.83443e-34 0 -1.44816e-22 -1.05022e-20 0 0 0 5.2511e-21)
(1.12593e-20 0 0 -1.33294e-22 -2.25186e-20 0 0 0 1.12593e-20)
(1.20969e-20 0 0 -1.22638e-22 -2.41938e-20 0 0 0 1.20969e-20)
(1.97832e-20 0 0 -1.12788e-22 -3.95664e-20 0 0 0 1.97832e-20)
(3.25947e-20 2.83443e-34 0 -1.03687e-22 -6.51895e-20 0 0 0 3.25947e-20)
(3.5154e-20 0 0 -9.52821e-23 -7.0308e-20 0 0 0 3.5154e-20)
(3.19118e-20 1.41721e-34 0 -8.75239e-23 -6.38235e-20 0 0 0 3.19118e-20)
(3.89263e-20 0 0 -8.03657e-23 -7.78526e-20 0 0 0 3.89263e-20)
(5.71628e-20 0 0 -7.37642e-23 -1.14326e-19 0 0 0 5.71628e-20)
(7.25191e-20 0 0 -6.76787e-23 -1.45038e-19 0 0 0 7.25191e-20)
(9.4929e-20 0 0 -6.20714e-23 -1.89858e-19 0 0 0 9.4929e-20)
(9.06352e-20 0 0 -5.69068e-23 -1.8127e-19 0 0 0 9.06352e-20)
(-4.78229e-19 0 0 -5.2152e-23 9.56458e-19 0 0 0 -4.78229e-19)
(-5.11885e-19 0 0 -4.77763e-23 1.02377e-18 0 0 0 -5.11885e-19)
(5.12517e-19 1.13377e-33 0 -4.3751e-23 -1.02503e-18 0 0 0 5.12517e-19)
(4.78867e-19 0 0 -4.00497e-23 -9.57734e-19 0 0 0 4.78867e-19)
(-9.00463e-20 -2.83443e-34 0 -3.66475e-23 1.80093e-19 0 0 0 -9.00463e-20)
(-9.43378e-20 0 0 -3.35216e-23 1.88676e-19 0 0 0 -9.43378e-20)
(-7.18617e-20 0 0 -3.06506e-23 1.43723e-19 0 0 0 -7.18617e-20)
(-5.6506e-20 0 0 -2.80147e-23 1.13012e-19 0 0 0 -5.6506e-20)
(-3.85315e-20 0 0 -2.55957e-23 7.70631e-20 0 0 0 -3.85315e-20)
(-3.15015e-20 1.41721e-34 0 -2.33766e-23 6.30031e-20 0 0 0 -3.15015e-20)
(-3.432e-20 0 0 -2.13416e-23 6.86399e-20 0 0 0 -3.432e-20)
(-3.1772e-20 2.83443e-34 0 -1.94761e-23 6.3544e-20 0 0 0 -3.1772e-20)
(-1.94513e-20 0 0 -1.77668e-23 3.89025e-20 0 0 0 -1.94513e-20)
(-1.18144e-20 2.83443e-34 0 -1.62011e-23 2.36288e-20 0 0 0 -1.18144e-20)
(-1.07205e-20 0 0 -1.47675e-23 2.1441e-20 0 0 0 -1.07205e-20)
(-4.78682e-21 0 0 -1.34553e-23 9.57364e-21 0 0 0 -4.78682e-21)
(5.40396e-21 0 0 -1.22549e-23 -1.08079e-20 0 0 0 5.40396e-21)
(4.66613e-21 0 0 -1.1157e-23 -9.33226e-21 0 0 0 4.66613e-21)
(-4.69935e-21 0 0 -1.01533e-23 9.39869e-21 0 0 0 -4.69935e-21)
(-5.43532e-21 0 0 -9.23608e-24 1.08706e-20 0 0 0 -5.43532e-21)
(4.75917e-21 0 0 -8.39824e-24 -9.51834e-21 0 0 0 4.75917e-21)
(1.06946e-20 0 0 -7.6332e-24 -2.13893e-20 0 0 0 1.06946e-20)
(1.17932e-20 0 0 -6.93492e-24 -2.35865e-20 0 0 0 1.17932e-20)
(1.94325e-20 0 0 -6.29784e-24 -3.88649e-20 0 0 0 1.94325e-20)
(3.1769e-20 0 0 -5.71682e-24 -6.35381e-20 0 0 0 3.1769e-20)
(3.43198e-20 0 0 -5.18715e-24 -6.86396e-20 0 0 0 3.43198e-20)
(3.14937e-20 0 0 -4.7045e-24 -6.29874e-20 0 0 0 3.14937e-20)
(3.85183e-20 0 0 -4.26487e-24 -7.70366e-20 0 0 0 3.85183e-20)
(5.65541e-20 0 0 -3.86461e-24 -1.13108e-19 0 0 0 5.65541e-20)
(7.18847e-20 0 0 -3.50034e-24 -1.43769e-19 0 0 0 7.18847e-20)
(9.44953e-20 0 0 -3.16897e-24 -1.88991e-19 0 0 0 9.44953e-20)
(8.95221e-20 0 0 -2.86766e-24 -1.79044e-19 0 0 0 8.95221e-20)
(-4.79336e-19 0 0 -2.59381e-24 9.58672e-19 0 0 0 -4.79336e-19)
(-5.12577e-19 0 0 -2.34502e-24 1.02515e-18 0 0 0 -5.12577e-19)
(5.10609e-19 0 0 -2.1191e-24 -1.02122e-18 0 0 0 5.10609e-19)
(4.77221e-19 0 0 -1.91404e-24 -9.54442e-19 0 0 0 4.77221e-19)
(-9.19023e-20 0 0 -1.72801e-24 1.83805e-19 0 0 0 -9.19023e-20)
(-9.70365e-20 0 0 -1.55931e-24 1.94073e-19 0 0 0 -9.70365e-20)
(-7.45059e-20 0 0 -1.4064e-24 1.49012e-19 0 0 0 -7.45059e-20)
(-5.96435e-20 0 0 -1.26786e-24 1.19287e-19 0 0 0 -5.96435e-20)
(-4.24349e-20 0 0 -1.14242e-24 8.48698e-20 0 0 0 -4.24349e-20)
(-3.53284e-20 0 0 -1.02888e-24 7.06567e-20 0 0 0 -3.53284e-20)
(-3.71796e-20 0 0 -9.26158e-25 7.43592e-20 0 0 0 -3.71796e-20)
(-3.48495e-20 0 0 -8.33276e-25 6.9699e-20 0 0 0 -3.48495e-20)
(-2.4041e-20 0 0 -7.49331e-25 4.80819e-20 0 0 0 -2.4041e-20)
(-1.71237e-20 0 0 -6.73499e-25 3.42473e-20 0 0 0 -1.71237e-20)
(-1.61789e-20 0 0 -6.05031e-25 3.23578e-20 0 0 0 -1.61789e-20)
(-1.20393e-20 0 0 -5.43241e-25 2.40785e-20 0 0 0 -1.20393e-20)
(-4.66055e-21 0 0 -4.87506e-25 9.32109e-21 0 0 0 -4.66055e-21)
(-4.90146e-21 0 0 -4.37258e-25 9.80293e-21 0 0 0 -4.90146e-21)
(-1.13257e-20 0 0 -3.91979e-25 2.26514e-20 0 0 0 -1.13257e-20)
(-1.26708e-20 0 0 -3.51198e-25 2.53415e-20 0 0 0 -1.26708e-20)
(-7.9412e-21 0 0 -3.14486e-25 1.58824e-20 0 0 0 -7.9412e-21)
(-4.96908e-21 0 0 -2.81453e-25 9.93815e-21 0 0 0 -4.96908e-21)
(-4.4912e-21 0 0 -2.51745e-25 8.9824e-21 0 0 0 -4.4912e-21)
(-2.47511e-21 0 0 -2.25039e-25 4.95021e-21 0 0 0 -2.47511e-21)
(1.31251e-21 0 0 -2.01043e-25 -2.62502e-21 0 0 0 1.31251e-21)
(1.55e-21 0 0 -1.79492e-25 -3.1e-21 0 0 0 1.55e-21)
(-1.56905e-21 0 0 -1.60144e-25 3.1381e-21 0 0 0 -1.56905e-21)
(-1.32344e-21 0 0 -1.4278e-25 2.64687e-21 0 0 0 -1.32344e-21)
(2.48045e-21 0 0 -1.27203e-25 -4.9609e-21 0 0 0 2.48045e-21)
(4.5038e-21 0 0 -1.13231e-25 -9.0076e-21 0 0 0 4.5038e-21)
(4.98583e-21 0 0 -1.00703e-25 -9.97165e-21 0 0 0 4.98583e-21)
(7.99583e-21 0 0 -8.94707e-26 -1.59917e-20 0 0 0 7.99583e-21)
(1.27881e-20 0 0 -7.93991e-26 -2.55763e-20 0 0 0 1.27881e-20)
(1.14219e-20 0 0 -7.03674e-26 -2.28438e-20 0 0 0 1.14219e-20)
(4.91644e-21 0 0 -6.22654e-26 -9.83287e-21 0 0 0 4.91644e-21)
(4.7142e-21 0 0 -5.4993e-26 -9.42841e-21 0 0 0 4.7142e-21)
(1.22691e-20 0 0 -4.84593e-26 -2.45382e-20 0 0 0 1.22691e-20)
(1.65121e-20 0 0 -4.25819e-26 -3.30243e-20 0 0 0 1.65121e-20)
(1.75069e-20 0 0 -3.72857e-26 -3.50138e-20 0 0 0 1.75069e-20)
(2.46169e-20 0 0 -3.25023e-26 -4.92337e-20 0 0 0 2.46169e-20)
(3.57267e-20 0 0 -2.81689e-26 -7.14534e-20 0 0 0 3.57267e-20)
(3.82263e-20 0 0 -2.42281e-26 -7.64525e-20 0 0 0 3.82263e-20)
(3.64957e-20 0 0 -2.06271e-26 -7.29914e-20 0 0 0 3.64957e-20)
(4.38912e-20 0 0 -1.7317e-26 -8.77824e-20 0 0 0 4.38912e-20)
(6.13604e-20 0 0 -1.42523e-26 -1.22721e-19 0 0 0 6.13604e-20)
(7.68111e-20 0 0 -1.13904e-26 -1.53622e-19 0 0 0 7.68111e-20)
(9.91938e-20 0 0 -8.69133e-27 -1.98388e-19 0 0 0 9.91938e-20)
(9.36286e-20 0 0 -6.11688e-27 -1.87257e-19 0 0 0 9.36286e-20)
(-4.87082e-19 0 0 -3.63077e-27 9.74164e-19 0 0 0 -4.87082e-19)
(-5.21921e-19 0 0 -1.20268e-27 1.04384e-18 0 0 0 -5.21921e-19)
)
;

boundaryField
{
    inlet
    {
        type            cyclic;
    }
    outlet
    {
        type            cyclic;
    }
    top
    {
        type            extrapolatedCalculated;
        value           uniform (0 0 0 0 0 0 0 0 0);
    }
    bottom
    {
        type            extrapolatedCalculated;
        value           uniform (1.40581e-07 -1.11645e-22 0 2.40997e-20 -2.81163e-07 0 0 0 1.40581e-07);
    }
    frontAndBackPlanes
    {
        type            empty;
    }
}


// ************************************************************************* //
